/*--------------------------------*- C++ -*----------------------------------*\
  =========                 |
  \\      /  F ield         | OpenFOAM: The Open Source CFD Toolbox
   \\    /   O peration     | Website:  https://openfoam.org
    \\  /    A nd           | Version:  10
     \\/     M anipulation  |
\*---------------------------------------------------------------------------*/
FoamFile
{
    format      ascii;
    class       surfaceScalarField;
    location    "34.5";
    object      phi;
}
// * * * * * * * * * * * * * * * * * * * * * * * * * * * * * * * * * * * * * //

dimensions      [0 3 -1 0 0 0 0];

internalField   nonuniform List<scalar> 
57492
(
-0.00589509
-1.02424e-06
0.00130732
0.00458879
0.00362049
-0.00393312
-0.00558246
-0.000757393
0.00224565
0.00787388
-0.00936213
0.0386411
0.0296045
-0.00603656
-0.0622091
-0.0831293
0.0348175
0.0869529
0.0132982
-0.0126444
-0.00648315
0.0058293
-0.0240903
0.00689124
-0.00400658
0.0212056
0.00473674
-0.0155288
0.0132118
-0.0410891
0.0391792
-0.0113018
0.0113345
0.037721
-0.0358436
0.00306795
0.00291014
-0.0062902
0.000312112
0.00207533
0.00328741
-0.00229478
-0.00127664
0.00229403
0.00105794
0.00109571
0.000537785
0.0292589
-0.0254648
-0.011001
0.00720696
0.00147327
0.0223027
0.00548296
-0.00259825
0.00701036
0.0351978
-0.0396099
-0.00655819
0.0347466
-0.0307867
0.00361655
-0.00773932
0.00412276
-0.0315808
0.022184
0.0130134
-0.0477636
0.00492875
0.0348739
0.00796096
0.00932909
-0.0483037
-0.008789
-0.000238208
0.00216518
-0.0021662
0.000239229
0.00190231
-0.00239499
0.000254465
-0.0322708
0.0344199
0.00324306
-0.00539217
-0.0515141
0.0289893
-0.00974597
-0.0197523
0.00776734
0.0098459
0.00213909
-0.0142853
-0.00613634
0.000669286
-0.00781019
-0.0226866
0.0270801
0.00341673
-0.00917259
0.00282711
-0.00146471
0.0138799
-0.00906225
-0.00845947
0.00364184
-0.0118152
0.00923528
0.0164598
-0.0180136
-0.0302303
0.0213644
0.0268795
-0.033557
-0.0105249
0.0260684
-0.0203985
-0.00294901
0.0233475
-0.00636757
-0.014031
-0.0312994
0.0391027
-0.0141708
0.00522832
-0.0201728
-0.0163549
-0.0113385
0.0182297
-0.00880264
-0.0377768
0.020312
0.0174649
-0.0730349
0.0352581
0.0521794
0.00528533
-0.0106811
-0.0467836
0.0380034
-0.0152275
0.0294034
0.0050622
0.0553281
-0.055105
0.0256609
0.00461685
-0.025541
0.0247487
-0.00309441
0.0296586
-0.0105128
-0.021909
0.00276319
0.0334216
0.000853885
0.019727
-0.0116677
0.0166894
0.00982638
0.0311062
-0.0425869
-0.00508028
0.00429588
0.0433713
-0.0439105
-0.00201914
0.00334269
0.00945959
0.0399336
-0.0393118
-0.0100814
0.00656021
-0.0381898
-0.0222448
0.0410602
0.0331881
-0.0520034
0.00960992
0.0480095
-0.0798642
-0.000771581
0.0016375
0.000215383
-0.0010813
0.00232927
-0.000806827
-0.000378923
0.00152126
0.00118694
0.00127766
-1.90858e-05
-0.000290995
0.000506378
-0.000347787
5.67923e-05
0.0949032
0.0404663
-0.0651892
-0.0701803
0.0340294
-0.0207692
0.0816429
-0.0837949
0.0335626
0.0842618
0.0195545
-0.062883
0.0106585
-0.0308038
0.024673
-0.00452769
0.0266281
-0.0311193
0.0151497
0.00120608
-0.00137383
0.000166728
0.00190007
0.000613331
0.00500526
0.0014836
-0.0338114
0.0608159
0.0265973
-0.0536018
0.0365853
-0.0437686
0.0210291
0.0548101
-0.0150233
0.14442
-0.0194472
-0.0338111
-0.0911619
0.0296932
0.0799303
0.0347968
0.0172201
-0.0587874
0.0712605
0.00139968
-0.00215707
0.00364533
0.0161397
0.0313559
-0.0129861
-0.0345095
0.0218657
0.00214795
0.00386824
-0.00172866
-0.00213958
0.00362225
0.000245991
-0.0842825
0.0387478
-0.0297518
0.0752865
-0.0726433
-0.0385439
0.0269047
-0.0397791
0.0363136
-0.0691778
0.0418705
-0.000696641
-0.0208154
-0.0203585
-0.016667
0.0470381
0.0114994
-0.0206281
-0.00206188
0.00602302
-0.0187261
-0.00259866
-0.00692445
-0.032617
0.000826688
0.00212773
0.00287621
-0.00583063
0.0032604
0.00443442
-0.00686813
0.00164946
0.00121218
0.000398766
0.00282534
0.000951849
0.00468917
0.00101238
-0.0173981
0.0104737
0.00240365
-0.0198018
0.00386059
-0.000238337
0.0464963
0.0310428
-0.00327192
0.0174347
-0.0540677
-0.00314003
0.0358827
-0.0265343
-0.00620839
-0.00492909
0.0413956
-0.0396066
0.0310071
0.0195739
-0.00678844
-0.0437925
-0.00855973
0.00301214
0.0365546
0.0406437
-0.0296295
-0.014077
-0.0293808
0.00905462
0.0344032
-0.0138457
0.0341973
-0.0344286
0.00133219
-0.0445587
-0.000371151
0.000472563
0.000252001
0.00609793
-0.00153307
-0.000944369
-0.00481773
0.000929497
0.00998617
-0.00718977
-0.00156108
-0.00446714
0.00960288
0.00206343
-0.00719917
0.0207096
-0.0219586
-0.00321809
-0.0101945
0.0217102
0.00919381
-0.00439881
0.0038072
-0.0686679
0.0360712
0.0713446
0.0738944
-0.02723
-0.0852083
-0.0338289
0.0390554
-0.0021698
-0.0175675
-0.0029493
-0.0115454
0.000202961
-0.000405461
-0.00505367
0.0036334
0.00182573
-0.00334944
0.00147351
0.00147046
-0.00464922
-0.0037539
-0.005367
-0.00739794
0.00121959
-0.0152389
-0.00769563
-0.0139109
-0.0145756
0.0173961
0.0110904
0.000849085
0.00673543
-0.0214954
-0.0192328
0.00550627
-0.0474743
0.0179672
-0.00207381
-0.0476526
0.00463015
-0.00445178
0.00229663
-0.0368419
0.0325039
0.00204133
0.00200482
-0.033979
0.0342708
0.00251244
-0.112389
-0.0275514
0.0344965
0.0347356
-0.0443198
0.0417191
-0.00556549
-0.00271736
0.00392954
-0.00219298
-0.000524379
0.00654492
-0.00122716
0.0572637
-0.0358763
-0.0344009
0.0130135
0.0525603
0.00976563
0.0561903
0.0118533
-0.0584336
0.0279535
0.0432198
-0.014983
0.0121568
-0.0288998
0.0446965
-0.000601108
-0.00159188
0.0141316
-0.044345
-0.0460059
0.0276851
0.0556666
0.0151279
-0.000844125
-0.0157864
0.00150265
0.00492137
-0.00160865
-0.0196095
0.00368333
0.0251615
0.00301994
-0.0177081
-0.00354578
0.000919908
0.00883716
-0.00126539
-0.00733305
-0.000238716
0.000520213
-0.000270711
0.00858766
0.00487411
0.0133896
-0.0177435
-0.023104
0.0398392
-0.0128746
0.0689282
-0.0678523
-0.0241799
-0.000519908
-0.0257654
0.0299686
-0.0708002
-0.00148314
-0.0518156
-0.0267974
0.00781283
0.0326116
0.0268396
-0.0545224
0.0214847
0.0495008
-0.0383739
0.0201096
-0.0330262
0.0188418
-0.00592526
0.0217365
-0.0319685
0.0303416
0.0465419
0.0151716
0.0436139
-0.0021596
-0.0435423
0.00208803
0.0480325
-0.00582601
0.00140737
0.0496757
-0.00754184
0.000261534
-0.0423954
0.035521
-0.0118846
0.0260393
0.0413856
-0.0104155
0.007971
-0.0389411
0.00900473
0.0421344
-0.00975354
-0.0377285
-0.013043
0.040356
0.00728764
-0.0359615
-0.0138346
0.0351948
-0.018536
-0.0323525
0.0162526
0.034636
-0.0191183
-0.0330206
0.0336029
0.0177511
0.0314727
-0.0106584
-0.0385655
0.031039
-0.0324062
-0.0208213
0.0205997
0.0312607
-0.0165103
0.0271618
-0.0410894
0.0364507
-0.00601967
-0.0533459
0.00533117
0.0548276
-0.00681295
0.0146807
-0.0116811
0.01945
-0.0205368
0.0127679
-0.007853
0.0271066
-0.0309347
-0.000307481
0.000460292
-0.00734258
-0.0186577
-0.0286121
0.0177935
0.00132838
-0.0015991
1.1471e-05
0.00131691
-0.00338095
-0.0323316
0.0240449
-0.0282764
-0.00288362
0.027779
0.00200446
-0.0295332
-0.000747637
-0.020642
0.0147111
0.0200087
-0.0140778
0.0275857
-0.0188611
-0.0293666
0.00478202
0.0375148
0.000110729
0.000337158
2.4676e-05
0.000419522
-0.000308793
0.00075668
0.000291458
-0.000259099
0.00124531
-0.000228194
0.000519651
-0.000487292
0.00115056
-8.00786e-05
0.000831829
-0.00106561
0.00221618
-0.00114569
0.00251808
-0.000253115
-0.00666377
-0.000939968
0.00345804
-0.00119308
0.0118487
0.030751
-0.0395876
0.0139536
-0.0418555
0.0397507
0.0433589
0.0013457
-0.0139211
-0.0247206
0.0138492
0.0247925
-0.00547805
0.0259759
-0.034419
0.00389071
-0.0340894
0.0356016
-0.0354502
0.0142007
-0.0143521
0.03596
0.0172985
-0.0176569
0.0111286
-0.035036
-0.0115428
0.0367212
0.0188493
-0.0196105
0.0379582
0.0208058
-0.0220428
0.0214027
0.0393724
-0.0228169
0.0381799
-0.0374167
0.0206395
0.0195119
0.0418875
-0.022027
0.0372174
0.0204744
-0.0355853
0.0189743
-0.0348085
0.0180724
-0.0341624
0.0166525
-0.0344839
0.0145222
-0.0334541
0.0100987
0.0199028
0.0439947
-0.02201
0.0355982
0.0215219
0.00774303
-0.0343648
-0.00841429
-0.0333117
0.00760065
0.00387788
-0.0361639
-0.00207874
0.0217423
0.0442915
-0.0220391
0.0359659
0.0213745
-0.0343222
0.00488844
0.0443195
0.0216255
-0.0216535
0.0213111
0.0444873
-0.021479
0.0361452
0.0214462
0.0363974
0.0210589
9.55371e-05
-0.0357253
-0.000534162
-0.0343309
0.000104219
0.0211004
0.0444002
-0.0210133
0.0364783
0.0210195
-0.00360759
-0.0355798
0.00346206
-0.0342594
-0.00367909
0.0207764
0.0444689
-0.0208452
0.0366514
0.0206033
-0.00734578
-0.0354849
0.00725092
-0.0342444
-0.00736084
0.0206256
0.0442872
-0.0204438
0.0366674
0.0206096
-0.0108259
-0.0355002
0.0108412
-0.034376
-0.0106943
0.0204146
0.044259
-0.0203865
0.0367974
0.0202846
-0.0138942
-0.035528
0.0139221
-0.0345146
-0.0137556
0.0204263
0.0439561
-0.0201234
0.0367953
0.0204284
-0.0163875
-0.0357779
0.0166374
-0.0347293
-0.0161729
0.020413
0.0437659
-0.0202229
0.0369606
0.0202477
-0.0183264
-0.0350436
0.017592
-0.0345015
-0.0185541
0.0206573
0.0432015
-0.0200928
0.0366651
0.0209528
-0.0199035
-0.0352889
0.0201489
-0.0347947
-0.0196104
0.0209132
0.0425643
-0.0202759
0.0362613
0.021317
-0.0206371
-0.034718
0.0200661
-0.0343828
-0.0210489
0.0228297
0.039842
-0.0201074
0.0372804
0.0218106
-0.0210653
-0.0350037
0.0213511
-0.0346035
-0.0208447
0.0226696
0.0370424
-0.01987
0.0376993
0.0222507
-0.021059
0.021075
-0.0350197
-0.0351468
-0.0205156
0.0210063
-0.0204392
0.0364753
0.0373719
0.0213336
-0.0356827
0.0360909
0.0209429
-0.035789
0.0211812
-0.0204463
0.0210517
-0.0356251
-0.0207215
-0.0348716
-0.0355334
0.0353928
0.0202895
0.0206236
-0.034203
0.0340866
0.0167538
0.0187818
-0.0339998
0.0339435
0.0108974
0.0140089
-0.0339264
0.0339695
0.00341889
0.00726806
-0.0340549
0.0366638
-0.00468759
-0.000619522
-0.0367862
0.0366684
-0.0114249
-0.00853673
-0.0382021
0.038334
-0.0177888
-0.0158858
-0.0371943
0.0368276
-0.021676
-0.0184709
-0.0362751
0.0364891
-0.022241
-0.0222644
-0.0366407
0.0367344
-0.0221327
-0.0221615
-0.0367782
0.0367768
-0.0214777
-0.0216973
-0.0367362
0.0366605
-0.0207695
-0.0209726
-0.0365535
0.0364141
-0.0202472
-0.0203367
-0.0362435
0.036039
-0.0200183
-0.0199528
-0.0358034
0.0355345
-0.0200071
-0.0198572
-0.0353733
0.0353983
-0.0198949
-0.0199463
0.0346839
-0.0197248
0.0203035
-0.019334
0.0355058
0.0206553
0.0370202
0.0382272
-0.0373483
0.0209317
-0.0385769
0.038432
0.0214785
0.021901
0.0373163
-0.0368623
0.0204988
0.021285
0.0368086
-0.0367279
0.0203477
0.020194
0.0366202
-0.0364795
0.0204688
0.020177
0.0363047
-0.0360871
0.0208019
0.0204286
0.0358244
-0.0355049
0.0211267
0.0207963
0.0351294
-0.0346938
0.0210864
0.020999
0.0348178
-0.034338
0.0201598
0.0205984
0.0343599
-0.0334301
0.0171427
0.0189962
0.0325969
-0.031798
0.0137233
0.0158192
0.0317481
-0.0316496
0.00750214
0.0100488
0.0303966
-0.0302704
-2.19499e-05
0.00363546
0.0302676
-0.0303704
-0.007258
-0.00368193
0.0305741
-0.0308673
-0.0134624
-0.0104906
0.0312379
-0.0320143
-0.0177778
-0.0158023
0.0326212
-0.0337557
-0.0199145
-0.0190034
0.034401
-0.0344138
-0.0205029
-0.0201993
-0.0349424
-0.0201929
-0.0359446
0.0212073
0.0346049
-0.019255
0.0204362
0.0386511
-0.020238
0.0207196
-0.0353532
-0.0198568
-0.0353235
-0.0209621
0.0209977
-0.0359802
-0.0358676
-0.0361016
0.035607
0.0214375
0.036305
-0.0364919
0.0213941
0.0213846
-0.03529
0.035325
0.0202545
0.0209407
-0.0353048
0.0352853
0.0167734
0.018802
-0.0352789
0.0352887
0.0108876
0.0140153
-0.0353206
0.035381
0.00335852
0.00723614
-0.0354826
0.0356124
-0.00481733
-0.000721165
-0.0357788
0.0367121
-0.0123583
-0.00870312
-0.0362308
0.0364741
-0.018032
-0.0154045
-0.0378422
0.0374312
-0.0212651
-0.0198389
-0.0370633
0.0371685
-0.0223463
-0.0218965
-0.0372155
0.0372096
-0.0221268
-0.0222086
-0.037158
0.0370665
-0.0213861
-0.0216458
-0.0369414
0.0367851
-0.0206131
-0.0208476
-0.0366012
0.0363866
-0.0200325
-0.0201529
-0.036142
0.0358621
-0.0197384
-0.0197082
-0.03555
0.0352046
-0.0196617
-0.0195451
-0.0347738
0.0342796
-0.0194008
-0.0195154
-0.0189443
0.0193793
0.0350708
-0.0182662
0.0339268
-0.0335395
0.0331373
-0.0188528
-0.0189847
0.0389524
-0.0388279
0.021354
0.0387678
0.0206208
-0.0192787
0.0201785
0.0377513
0.0371207
0.0386384
-0.0379637
0.0202569
0.0217115
0.0373045
-0.0371818
0.0203762
0.0206259
0.0370436
-0.0368844
0.0201885
0.0200557
0.0367023
-0.0364888
0.0202553
0.0199949
0.0362428
-0.0359539
0.0205129
0.0201827
0.0356205
-0.0352303
0.0207365
0.0204629
0.0347854
-0.0342771
0.0205781
0.0205541
0.0337172
-0.0330971
0.0195397
0.0200385
0.0324572
-0.0323657
0.0170512
0.0183563
0.0315772
-0.0306235
0.0127696
0.0150307
0.0304622
-0.0297903
0.00683015
0.00988754
0.029535
-0.0294155
-0.000141438
0.00338024
0.0294162
-0.029537
-0.00713717
-0.00368126
0.0297718
-0.0301113
-0.0131229
-0.0102558
0.0305407
-0.0310483
-0.0172702
-0.0153729
0.031615
-0.0322219
-0.0193075
-0.0184367
0.032836
-0.0335221
-0.0198167
-0.0195853
0.0339953
-0.0343544
-0.0194977
-0.0197198
-0.0365652
0.0210711
-0.0201869
0.0200362
-0.0351729
-0.0348124
-0.0197289
0.0196691
-0.0349861
-0.0178482
0.0327193
0.0386678
0.0202785
0.02144
-0.0207902
-0.03663
0.0214
-0.0365253
-0.0203645
0.0202146
-0.035023
-0.0202096
-0.0349673
-0.0369887
0.0327822
-0.0335408
-0.0180941
0.0319353
-0.0170013
0.0190367
-0.0182615
0.0369762
0.0186353
0.0390692
-0.036578
0.037153
0.020825
0.0212779
-0.0213451
-0.0364581
0.0364025
-0.0240854
0.0223801
-0.0346972
0.0211025
-0.0372403
0.037143
0.0214914
0.0209838
-0.0367991
0.0365938
0.0216427
0.0217286
-0.0364758
0.0363855
0.0203448
0.0210587
-0.0364659
0.0365477
0.0166915
0.0187216
-0.0366268
0.0367034
0.0108111
0.0139362
-0.0367795
0.0368602
0.00327781
0.00716
-0.0369518
0.0370585
-0.00492399
-0.000812777
-0.0371895
0.0373362
-0.012505
-0.00883414
-0.0374907
0.0376439
-0.0181852
-0.015559
-0.0377716
0.0378561
-0.0213495
-0.0199667
-0.0378956
0.0378851
-0.0223357
-0.021936
-0.0378229
0.0377133
-0.0220173
-0.0221464
-0.0375649
0.0373822
-0.0212034
-0.0214974
-0.0371724
0.0369358
-0.0203765
-0.0206378
-0.0366762
0.0363881
-0.0197445
-0.0198933
-0.0360725
0.0357214
-0.0193873
-0.0193926
-0.0353387
0.0349207
-0.0192437
-0.0191624
-0.0344921
0.0338283
-0.0187369
-0.0190869
-0.0186973
-0.0171511
0.0172516
0.0349704
0.0167964
-0.0166845
0.0326073
0.033572
0.0361108
0.0395023
-0.0390905
0.0209422
-0.0397283
0.0399075
0.0200994
0.0203948
0.0381161
-0.0382589
0.0203997
0.0207371
0.0377287
-0.0375191
0.0201666
0.0200956
0.0373006
-0.0370657
0.0199536
0.0198373
0.0368121
-0.0365296
0.0199728
0.0197413
0.036217
-0.0358622
0.020158
0.0198701
0.0354645
-0.0350107
0.0202827
0.0200652
0.0345043
-0.0339353
0.0200091
0.0200477
0.0333166
-0.0326487
0.0188718
0.0194198
0.0319647
-0.0312766
0.0163632
0.0176723
0.0306175
-0.0300175
0.0121696
0.0143716
0.029521
-0.0291177
0.00642686
0.00939108
0.0288482
-0.0287131
-0.000276606
0.00311074
0.0287128
-0.0288462
-0.00700373
-0.00368154
0.0291045
-0.0294816
-0.0127457
-0.00999758
0.0299593
-0.0305278
-0.0167017
-0.0148952
0.0311609
-0.0318388
-0.0186296
-0.0178036
0.0325265
-0.0332032
-0.01914
-0.0188976
0.0338119
-0.0340205
-0.019289
-0.0191111
0.0344835
-0.0353991
-0.019294
-0.0192659
-0.0201453
0.0207849
-0.035607
-0.0357489
-0.0197955
-0.020681
-0.0372941
0.0207567
-0.0355281
-0.0159539
0.0312047
0.0400548
0.018488
-0.0208042
-0.0397393
0.0211014
-0.0353395
-0.015193
-0.0342123
0.0541873
0.0205633
-0.0203238
-0.0359884
0.0207059
-0.0357496
-0.0273068
0.0396669
0.0251548
-0.0268482
0.0195501
-0.0369131
-0.0362753
0.0372774
0.0213779
0.0228817
-0.0194901
-0.037379
0.037433
0.020771
0.0210009
-0.037297
0.0371463
0.0216421
0.0211199
-0.0372244
0.0372501
0.0216169
0.0216505
-0.0372767
0.0374727
0.0201488
0.0210322
-0.0376625
0.0378435
0.0165105
0.0185318
-0.0380063
0.0381486
0.0106688
0.0137733
-0.0382693
0.0383721
0.003175
0.00703931
-0.0384626
0.0385484
-0.00500988
-0.000903243
-0.0386333
0.0387166
-0.0125882
-0.00891899
-0.038791
0.0388442
-0.0182384
-0.0156335
-0.0388628
0.0388348
-0.0213215
-0.0199853
-0.0387562
0.0386273
-0.0222068
-0.0218575
-0.0384534
0.0382386
-0.0218024
-0.0219725
-0.0379929
0.0377195
-0.0209299
-0.0212517
-0.0374264
0.0371116
-0.0200617
-0.0203447
-0.0367792
0.0364217
-0.019387
-0.0195609
-0.0360396
0.0356228
-0.0189705
-0.0190105
-0.0351748
0.0346906
-0.0187595
-0.0187144
-0.0341042
0.0337879
-0.0184206
-0.0185005
-0.0330212
0.0322444
-0.0173173
-0.0179306
-0.0317224
0.0307709
-0.0150024
-0.0164793
-0.0143923
0.014907
0.0320926
0.0144878
-0.0142614
0.0305444
0.0313002
-0.0151131
0.0158896
0.0341939
0.0333659
-0.0163446
0.0164114
0.0369093
0.0356558
-0.0168525
0.0167786
0.0401287
0.0386281
0.0410196
-0.0405249
0.0196048
-0.0421113
0.040564
0.0183259
0.0173962
0.040002
-0.0395917
0.0205318
0.0198719
0.0387313
-0.0384445
0.020113
0.0198767
0.0381588
-0.0378676
0.0198755
0.0198099
0.0375733
-0.0372666
0.0196469
0.0195429
0.0369459
-0.0365992
0.019626
0.0194206
0.0362252
-0.0358105
0.0197433
0.0194962
0.0353554
-0.034846
0.0197733
0.0196101
0.034287
-0.0336683
0.0193904
0.0194887
0.0330045
-0.032297
0.0181642
0.018756
0.0315764
-0.0308541
0.0156409
0.0169517
0.0301689
-0.0295442
0.0115449
0.0136864
0.0290158
-0.0285932
0.00600423
0.00886266
0.0283066
-0.0281576
-0.00042558
0.00282421
0.0281545
-0.028295
-0.00686319
-0.00368473
0.0285719
-0.028979
-0.0123387
-0.00972063
0.0294987
-0.0301193
-0.0160811
-0.0143755
0.03081
-0.0315482
-0.0178914
-0.0171129
0.0322927
-0.0330204
-0.0184123
-0.0181531
0.0337047
-0.0343436
-0.0186502
-0.0184268
0.0348409
-0.0350053
-0.0191296
-0.0187686
0.035912
-0.0363949
-0.0198409
-0.0188888
-0.0206246
0.0212081
-0.0365719
-0.0366315
-0.020388
-0.0209178
-0.0371805
0.0212833
-0.03571
-0.0196464
-0.0352859
0.0214534
-0.036087
0.0310346
-0.0314991
-0.0145379
0.0300729
-0.0132997
0.0152143
-0.0147585
0.0396728
0.0145576
0.0412208
-0.0204034
-0.03267
0.021584
-0.0361255
-0.0399869
-0.000939082
-0.0331659
0.036069
0.0222516
-0.0212149
0.0215036
-0.0368607
-0.0205477
-0.0372987
-0.0322572
0.0186414
-0.0365476
-0.0367505
0.0370512
0.0210773
0.0222002
-0.0372358
0.0370064
0.0210004
0.0208163
-0.0370386
0.0373218
0.0213588
0.0210878
-0.0376137
0.0379198
0.0213108
0.0213586
-0.0382355
0.0385489
0.0198354
0.0207165
-0.0388496
0.0391289
0.0162312
0.0182312
-0.0393749
0.0395835
0.0104602
0.0135273
-0.0397504
0.0398786
0.0030468
0.0068724
-0.039973
0.040041
-0.00507784
-0.000997622
-0.0400868
0.0401105
-0.0126119
-0.00896487
-0.0401056
0.0400619
-0.0181947
-0.0156286
-0.0399708
0.0398254
-0.0211761
-0.0198942
-0.0396274
0.0393798
-0.0219592
-0.0216594
-0.0390936
0.0387738
-0.0214826
-0.0216863
-0.0384322
0.0380703
-0.0205681
-0.0209101
-0.0376965
0.037307
-0.0196722
-0.0199709
-0.0369056
0.0364831
-0.0189645
-0.0191595
-0.0360398
0.0355634
-0.0184941
-0.0185672
-0.035057
0.0345128
-0.0182153
-0.0182081
-0.0339422
0.0333495
-0.0178279
-0.0179299
-0.032709
0.0320402
-0.0166486
-0.01729
-0.0159382
-0.012426
0.0124312
0.0320874
0.0121327
-0.011957
0.0303687
0.031007
-0.0130863
0.0133847
0.0338956
0.0327108
-0.0140961
0.0146944
0.036311
0.0349444
0.038564
0.041829
-0.0412363
0.0190121
-0.0413849
0.0426449
0.017066
0.0178402
0.0407081
-0.0397039
0.0195275
0.0193437
0.0393343
-0.0389578
0.0197365
0.0195071
0.0385889
-0.0382204
0.0195069
0.019441
0.0378554
-0.0374819
0.0192734
0.0191779
0.0370995
-0.0366939
0.0192204
0.0190382
0.0362645
-0.0357965
0.0192753
0.0190668
0.0352912
-0.0347341
0.0192162
0.0191048
0.0341312
-0.0334725
0.0187317
0.0188859
0.0327738
-0.0320356
0.0174261
0.0180573
0.0312879
-0.0305416
0.0148946
0.0162039
0.0298364
-0.0291915
0.0109001
0.0129811
0.0286419
-0.0282025
0.00556482
0.00831301
0.0279005
-0.0277406
-0.000585406
0.00252221
0.0277335
-0.0278784
-0.00671822
-0.0036919
0.0281694
-0.0286013
-0.0119068
-0.00942965
0.0291558
-0.0298203
-0.0154166
-0.013821
0.0305599
-0.0313481
-0.0171032
-0.0163733
0.0321389
-0.0329085
-0.0176427
-0.0173623
0.0336298
-0.0343065
-0.0179735
-0.0177054
0.0349425
-0.0355561
-0.018516
-0.0181325
0.0356578
-0.0362341
-0.0192646
-0.0187871
0.0369906
-0.0375012
-0.020037
-0.0196314
-0.0211155
0.0215607
-0.0377439
-0.0382971
-0.0203196
-0.0211842
-0.0356427
0.0216692
-0.0359259
-0.0113594
0.0294753
0.0424262
0.0147762
-0.0211669
-0.0345224
-0.0268906
-0.042463
-0.0234271
-0.0361334
0.0218704
-0.0363733
0.0220915
-0.0367133
-0.0459159
0.0127197
-0.0215187
0.0160505
-0.0404477
-0.0247701
-0.0392116
0.0220032
-0.0373031
-0.0217898
0.0219492
-0.0379034
-0.0208999
-0.039187
-0.0360626
-0.0336203
0.0350902
0.0207817
0.0344092
-0.0384459
0.0167563
0.0194304
-0.0360521
0.036379
0.0207503
0.0212383
-0.0367513
0.037125
0.0206266
0.020444
-0.0375008
0.0378894
0.0209702
0.020712
-0.0382956
0.0387195
0.0208869
0.0209524
-0.0391506
0.0395792
0.0194068
0.0202853
-0.0399865
0.0403622
0.0158555
0.0178238
-0.040691
0.0409665
0.0101847
0.0131985
-0.0411829
0.0413416
0.00288811
0.00665598
-0.0414467
0.0415046
-0.00513574
-0.00110274
-0.0415187
0.0414878
-0.012581
-0.00897891
-0.041407
0.0412683
-0.0180559
-0.0155478
-0.0410687
0.0408061
-0.0209135
-0.0196946
-0.0404896
0.0401252
-0.0215948
-0.0213429
-0.0397292
0.0393072
-0.0210606
-0.0212903
-0.0388731
0.0384268
-0.0201217
-0.020476
-0.0379768
0.0375172
-0.0192125
-0.0195209
-0.0370519
0.0365698
-0.0184824
-0.0186942
-0.0360713
0.0355424
-0.0179652
-0.0180687
-0.0349857
0.0343918
-0.0176214
-0.0176513
-0.0337737
0.0331307
-0.0171849
-0.0173118
-0.0324841
0.0319797
-0.0161442
-0.0166434
-0.0311998
0.0305677
-0.0139057
-0.0151583
-0.0296252
0.0291312
-0.0108654
-0.0123572
-0.00921868
0.00964565
0.0299418
0.00942791
-0.00899049
0.0286938
0.0296845
-0.00989808
0.0104855
0.0315
0.0307545
-0.0108225
0.0111092
0.0336088
0.0323738
-0.0113337
0.0114898
0.036155
0.0347199
-0.0121094
0.012316
0.0394662
0.0379444
-0.0123582
0.0123619
0.0424226
0.0411786
0.0436179
-0.0427885
0.0162366
-0.0437563
0.0434495
0.0126687
0.0146378
0.0422628
-0.0417184
0.0184677
0.0173145
0.0408245
-0.0403688
0.0190719
0.0184499
0.0399125
-0.0394549
0.0192789
0.0190508
0.0390106
-0.0385708
0.0190671
0.0189967
0.0381411
-0.0377068
0.0188391
0.0187482
0.0372686
-0.03681
0.0187619
0.0186
0.0363315
-0.0358168
0.0187607
0.0185883
0.0352683
-0.0346712
0.0186191
0.0185563
0.0340326
-0.0333422
0.0180413
0.0182472
0.032617
-0.0318565
0.0166656
0.017332
0.03109
-0.0303278
0.0141325
0.0154374
0.0296084
-0.028949
0.0102406
0.0122617
0.028385
-0.0279327
0.00511248
0.00774911
0.0276184
-0.0274502
-0.000753614
0.00220794
0.0274391
-0.0275869
-0.00657046
-0.003703
0.027889
-0.0283414
-0.0114545
-0.00912749
0.0289255
-0.0296266
-0.0147155
-0.0132368
0.0304054
-0.0312317
-0.016277
-0.0155945
0.0320562
-0.0328558
-0.0168431
-0.0165378
0.0336055
-0.0343127
-0.0172663
-0.0169557
0.0349812
-0.0356309
-0.0178664
-0.0174641
0.036271
-0.036916
-0.0186195
-0.018147
0.0375689
-0.038065
-0.0195409
-0.0189786
0.0386331
-0.0392172
-0.0203158
-0.0197516
-0.0218094
0.0220828
-0.0394604
-0.0400129
-0.0210137
-0.0218699
-0.0349396
-0.0391609
0.0167655
-0.0227223
-0.0352272
0.0292106
-0.0299171
-0.010159
0.0287676
-0.00854751
0.0102472
-0.00987464
0.04205
0.0102737
0.0434229
0.0220649
-0.0361204
0.0223582
-0.0366401
-0.0233504
-0.0375532
0.0226503
-0.0373604
0.0229169
-0.0382708
0.0231186
-0.0389392
-0.0222818
0.0230063
-0.0401849
-0.0217377
-0.0405571
-0.0358676
-0.0359114
0.0340825
0.0185852
0.0170871
-0.0183558
-0.0378922
0.0371894
-0.0382767
0.0181744
0.0180434
-0.033859
0.03503
0.0196108
0.0196539
-0.0360265
0.0365934
0.0201834
0.0202417
-0.0370443
0.0374919
0.020179
0.0199931
-0.0379488
0.0384293
0.0204897
0.0202551
-0.0389345
0.0394638
0.0203577
0.0204473
-0.0400015
0.0405356
0.0188727
0.0197476
-0.041043
0.041511
0.0153875
0.0173164
-0.0419207
0.0422657
0.00983972
0.0127888
-0.042535
0.042731
0.00269212
0.00638665
-0.0428542
0.0429096
-0.00519114
-0.00122597
-0.0428987
0.0428192
-0.0125015
-0.00896799
-0.0426674
0.0424375
-0.017826
-0.0153961
-0.0421328
0.0417562
-0.0205369
-0.0193899
-0.0413245
0.0408475
-0.0211178
-0.0209112
-0.0403464
0.0398274
-0.0205417
-0.0207891
-0.0393063
0.0387812
-0.0195966
-0.0199549
-0.0382607
0.0377368
-0.0186886
-0.0190004
-0.0372134
0.0366779
-0.0179469
-0.0181709
-0.036131
0.0355569
-0.0173911
-0.0175217
-0.0349582
0.0343238
-0.016987
-0.0170526
-0.0336669
0.0329867
-0.0165047
-0.0166549
-0.0323068
0.0316332
-0.0154706
-0.0159635
-0.0309574
0.0304344
-0.0133828
-0.0144824
-0.0118399
-0.00698038
0.00708682
0.0298353
0.00643848
-0.00655455
0.0288099
0.0291426
-0.00765648
0.00799053
0.0311659
0.0301849
-0.00829159
0.0085517
0.0333487
0.0320727
-0.00876157
0.00892022
0.0359963
0.03451
-0.00956211
0.00965553
0.0393728
0.0373025
0.0409595
0.0444449
-0.0440586
0.0158504
-0.044683
0.0448473
0.0125044
0.0143997
0.0430513
-0.0420492
0.0174656
0.0163071
0.0415287
-0.0409897
0.0185329
0.0179294
0.0404569
-0.0399268
0.0187489
0.018518
0.0394152
-0.0389123
0.0185641
0.0184851
0.0384247
-0.0379363
0.0183507
0.0182606
0.0374485
-0.0369435
0.0182569
0.0181122
0.0364221
-0.0358674
0.018206
0.0180669
0.0352826
-0.0346525
0.017989
0.0179714
0.0339852
-0.0332706
0.0173267
0.01758
0.0325258
-0.0317499
0.0158896
0.0165873
0.0309713
-0.0301996
0.0133607
0.0146589
0.0294715
-0.0288032
0.00957235
0.0115336
0.0282305
-0.0277695
0.00465147
0.00717641
0.0274469
-0.0272728
-0.000927732
0.00188535
0.027259
-0.0274096
-0.00641982
-0.00371682
0.0277219
-0.0281924
-0.0109839
-0.00881527
0.0288021
-0.029533
-0.0139845
-0.0126272
0.0303414
-0.0311934
-0.015425
-0.0147861
0.0320385
-0.0328556
-0.0160259
-0.0156928
0.0336235
-0.0343527
-0.016537
-0.0161879
0.0350485
-0.035732
-0.0171829
-0.0167683
0.036409
-0.037094
-0.0179345
-0.0174701
0.0377883
-0.0385068
-0.0188225
-0.0182843
0.0389992
-0.0394347
-0.0198802
-0.0192591
0.0402976
-0.0413537
-0.0206816
-0.0201508
0.0217029
-0.0199062
-0.0410083
-0.0371005
-0.022098
0.0230871
-0.0415462
-0.0419951
-0.0214565
-0.0225808
-0.0350811
-0.0060416
0.0282547
0.0453525
0.00976846
-0.0193381
-0.0368845
0.0179459
0.0225249
-0.0362871
-0.0199032
-0.0373271
-0.0232491
-0.0353285
0.0228939
-0.0368836
-0.0230848
-0.0343746
0.0232473
-0.0376909
0.0235429
-0.0386951
0.0237386
-0.0396714
0.0235401
-0.0406379
-0.022709
0.0233604
-0.0421976
-0.0217959
-0.0429082
-0.0359235
-0.0363735
0.0353692
0.0191787
0.0165624
-0.0353392
-0.0181077
0.0369013
-0.0350685
0.0147295
0.0184737
-0.0349977
0.0347242
0.0188587
0.018415
-0.0350424
0.035227
0.0194262
0.0193357
-0.0361004
0.0368075
0.0194763
0.0193683
-0.0373332
0.0378532
0.019659
0.0194674
-0.0383836
0.0389424
0.0199308
0.0197248
-0.0395309
0.0401489
0.0197396
0.0198588
-0.0407783
0.0414052
0.0182458
0.0191183
-0.0420033
0.042558
0.0148329
0.0167183
-0.0430469
0.0434612
0.00942543
0.0122999
-0.0437867
0.0440239
0.00245488
0.00606113
-0.0441708
0.0442301
-0.0052504
-0.00137286
-0.0442008
0.0440789
-0.0123796
-0.00893873
-0.0438616
0.0435454
-0.0175098
-0.0151788
-0.0431402
0.0426547
-0.0200514
-0.0189847
-0.0421136
0.0415306
-0.0205348
-0.0203701
-0.0409315
0.0403231
-0.0199332
-0.02019
-0.0397223
0.0391256
-0.019
-0.0193541
-0.0385417
0.0379604
-0.0181073
-0.0184165
-0.0373856
0.0368036
-0.0173648
-0.0175962
-0.0362151
0.0356035
-0.0167795
-0.0169333
-0.0349709
0.0343049
-0.016321
-0.01642
-0.0336185
0.0329105
-0.0157967
-0.0159686
-0.0322056
0.0315076
-0.0147726
-0.0152586
-0.0308434
0.0302846
-0.012824
-0.0138182
-0.0298112
0.0292775
-0.00962528
-0.0113664
-0.0284647
0.0281914
-0.00576831
-0.00773474
-0.00365896
0.00399627
0.0284726
0.00379915
-0.00364208
0.0280344
0.0283949
-0.00419242
0.00472525
0.0293025
0.0289465
-0.0050096
0.0052838
0.0308917
0.0299005
-0.00553446
0.00575737
0.0331258
0.0318221
-0.00594594
0.00609706
0.0358452
0.0343215
-0.00620938
0.00676746
0.0388147
0.0371902
-0.00687436
0.00686753
0.0420568
0.0408526
-0.00640285
0.00700883
0.0447465
0.0438876
0.0461578
-0.0455447
0.0118913
-0.0461995
0.0462853
0.00692305
0.00972674
0.0449973
-0.043866
0.014719
0.0138523
0.0433356
-0.0427601
0.0168902
0.0157767
0.0421662
-0.0415574
0.0179241
0.0173354
0.0409582
-0.0403654
0.0181561
0.0179188
0.0397957
-0.0392384
0.0180067
0.0179154
0.0387007
-0.0381656
0.0178156
0.0177229
0.037635
-0.03709
0.0177118
0.0175817
0.0365322
-0.0359437
0.0176175
0.0175091
0.0353288
-0.0346721
0.0173322
0.0173565
0.0339824
-0.0332496
0.0165939
0.0168904
0.0324911
-0.0317052
0.0151037
0.0158287
0.03092
-0.0301436
0.0125843
0.0138737
0.029412
-0.02874
0.00890042
0.010802
0.0281635
-0.0276982
0.00418623
0.00659983
0.0273714
-0.0271943
-0.0011048
0.00155852
0.0271803
-0.0273354
-0.00626474
-0.00373083
0.0276581
-0.0281465
-0.0104955
-0.00849262
0.0287785
-0.0295332
-0.0132299
-0.0119952
0.0303616
-0.0312273
-0.0145592
-0.0139577
0.0320802
-0.0329027
-0.0152034
-0.0148399
0.0336778
-0.0344197
-0.0157952
-0.0154128
0.0351341
-0.0358414
-0.0164756
-0.0160538
0.0365452
-0.0372601
-0.0172196
-0.0167662
0.0379875
-0.038742
-0.018068
-0.0175569
0.0395283
-0.0403595
-0.0190491
-0.0184728
0.0409948
-0.0415436
-0.0201328
-0.0195155
0.0423976
-0.0430409
-0.0211527
-0.0206025
0.0240126
-0.0227961
-0.0422248
-0.032991
-0.0220718
0.022967
-0.0438034
-0.0445374
-0.0205752
-0.0230395
-0.0352906
0.0230259
-0.0364191
-0.0155931
-0.033227
0.0137516
-0.0331724
-0.0177599
-0.0221982
-0.0332366
-0.0235795
-0.0348339
0.023457
-0.0370933
0.0286687
-0.028827
-0.00561
0.0282532
-0.00322665
0.0041545
-0.00419086
0.0447829
0.00446156
0.0459782
-0.0231693
-0.0340014
0.0238419
-0.03799
0.0241305
-0.039087
0.0242581
-0.0403895
0.0241665
-0.041444
0.0233565
-0.042587
0.0134795
-0.0314764
-0.0152301
-0.0308399
0.0329447
0.0113748
-0.0117394
-0.0299041
0.0108035
-0.0219021
-0.0440412
0.0221398
-0.0213604
-0.0450791
-0.0302888
-0.012927
-0.0359371
-0.0316352
0.0309809
0.0153838
0.0150611
-0.0326397
0.0338953
0.0179231
0.0168148
-0.0340582
0.0343667
0.0185502
0.0182522
-0.0350868
0.0357621
0.018751
0.0186155
-0.0364004
0.0370153
0.0188614
0.0187299
-0.0376078
0.0381964
0.0190703
0.018875
-0.0387954
0.039424
0.0193023
0.0191257
-0.0400835
0.0407756
0.0190474
0.0191993
-0.0414816
0.042188
0.0175394
0.0184122
-0.0428663
0.0434998
0.0141993
0.0160401
-0.0440626
0.0445427
0.00894539
0.011737
-0.0449243
0.0452035
0.00217568
0.00567952
-0.0453774
0.0454454
-0.00531844
-0.00154674
-0.0454034
0.0452447
-0.0122209
-0.00889673
-0.0449671
0.0445699
-0.0171126
-0.0149012
-0.0440702
0.0434828
-0.019464
-0.0184849
-0.0428403