/*--------------------------------*- C++ -*----------------------------------*\
  =========                 |
  \\      /  F ield         | OpenFOAM: The Open Source CFD Toolbox
   \\    /   O peration     | Website:  https://openfoam.org
    \\  /    A nd           | Version:  10
     \\/     M anipulation  |
\*---------------------------------------------------------------------------*/
FoamFile
{
    format      ascii;
    class       volVectorField;
    location    "34.5";
    object      U;
}
// * * * * * * * * * * * * * * * * * * * * * * * * * * * * * * * * * * * * * //

dimensions      [0 1 -1 0 0 0 0];

internalField   nonuniform List<vector> 
28942
(
(-0.124476 0.0902789 -7.84094e-20)
(-0.115781 0.115743 -1.64401e-20)
(0.446025 -0.312079 1.18751e-20)
(1.01568 0.0422919 -1.57928e-19)
(0.99402 0.0521165 5.16493e-20)
(0.282105 0.0119677 0)
(0.343187 0.0329323 2.688e-22)
(0.380177 0.00991236 -2.11585e-22)
(1.19686 -0.141746 -8.97318e-21)
(1.18746 -0.128691 2.5551e-20)
(-0.101959 -0.0021928 -7.9863e-20)
(-0.0937322 -0.00122527 3.68825e-20)
(-0.0824953 0.0147761 0)
(-0.0686072 0.0246909 0)
(0.747418 -0.0179424 -1.92461e-22)
(0.740378 -0.0152661 -7.69205e-23)
(0.945356 0.138458 2.80516e-20)
(0.928296 0.125933 4.59554e-20)
(0.300245 -0.397221 1.41768e-19)
(0.585643 -0.642929 -3.92399e-20)
(1.02338 0.267685 3.18989e-20)
(1.02012 0.256038 0)
(0.0296897 -0.00822678 7.81027e-20)
(-0.0596694 -0.0266381 4.34142e-20)
(0.611753 -0.148846 8.39777e-20)
(0.97084 -0.259114 -7.63317e-20)
(0.183058 -0.36336 5.0105e-19)
(0.188943 -0.294838 -1.89082e-19)
(0.704242 -0.507507 1.83413e-20)
(0.428818 -0.297496 5.95551e-21)
(0.277333 -0.0187561 0)
(0.36031 -0.0260392 5.48667e-22)
(0.45274 -0.00714844 9.22842e-21)
(0.608817 -0.0198704 -6.35486e-22)
(0.498093 0.555604 -1.11549e-20)
(0.415527 0.618782 3.04057e-20)
(0.64597 0.793927 -8.34269e-20)
(0.419113 0.729576 -4.32183e-20)
(0.152292 0.017156 -2.32308e-22)
(0.226609 0.570934 -4.24301e-20)
(0.656113 -0.0598943 0)
(0.855124 -0.0781006 0)
(1.21513 0.256869 -1.45617e-21)
(1.22607 0.26345 3.32718e-21)
(1.2715 0.228395 3.7587e-21)
(0.525402 0.0134307 3.06126e-22)
(0.496945 0.0245012 -5.06294e-22)
(0.658344 0.0140394 -2.31071e-21)
(0.63925 0.0133628 6.43165e-22)
(0.54337 0.0115404 -5.93301e-21)
(0.447441 0.00224237 3.68542e-21)
(1.14444 -0.00508666 -1.21242e-20)
(1.14127 -0.0103911 -1.14302e-20)
(1.19125 -0.155602 -1.19949e-22)
(1.18025 -0.142384 5.10169e-21)
(1.22539 -0.199571 6.59487e-20)
(1.4502 -0.285872 3.00862e-20)
(-0.0495009 -0.00330441 -5.11092e-20)
(-0.0771188 0.000444711 0)
(-0.0637181 -0.0155946 1.84313e-20)
(-0.050833 -0.0137679 4.49537e-20)
(-0.0154595 -0.0040655 -3.51902e-20)
(-0.00813296 0.00261262 -3.72973e-20)
(1.28701 -0.552704 0)
(1.42292 -0.493282 9.61128e-21)
(1.31748 -0.427746 -3.30307e-21)
(1.25233 -0.418706 0)
(0.920238 -0.184254 -3.08057e-20)
(0.938569 -0.20521 -2.04288e-20)
(-0.0804737 0.0593188 2.6075e-19)
(-0.097915 0.0586429 -8.21071e-20)
(-0.11995 0.0882858 2.05717e-19)
(0.904816 -0.263202 0)
(0.92601 -0.231562 1.09117e-19)
(0.855592 -0.372917 2.99297e-20)
(1.56868 0.205081 8.7237e-20)
(1.59463 0.156275 -9.63122e-20)
(1.52828 0.11231 -6.33049e-20)
(0.138043 -0.078547 1.64124e-22)
(0.19627 -0.123892 -2.00771e-20)
(0.950422 -0.594365 9.82673e-22)
(0.69918 -0.47833 9.26239e-21)
(-0.123051 0.0622612 4.39613e-19)
(-0.124969 0.055956 -1.68981e-19)
(1.37712 0.608527 -1.63244e-20)
(1.28093 0.571475 1.56338e-20)
(1.17828 0.719789 -2.20002e-20)
(1.03559 0.720785 7.92566e-20)
(0.994018 0.696679 -5.50931e-20)
(0.750737 0.514816 6.30407e-21)
(0.820547 0.616346 1.43034e-20)
(0.856615 0.705132 -1.79019e-20)
(-0.114278 0.0187065 -1.34288e-20)
(-0.122184 -0.043544 -3.11296e-21)
(-0.0338385 0.0350767 6.24279e-21)
(-0.0200485 0.0809241 -1.02377e-19)
(-0.0408992 0.128379 1.2965e-19)
(0.416703 0.331001 6.49435e-20)
(0.469515 0.407426 -1.92053e-20)
(-0.0250014 0.00769036 0)
(1.00709 0.00424294 0)
(0.965283 0.0533327 -1.11728e-19)
(0.890238 0.135444 8.37811e-20)
(1.08046 0.118143 0)
(1.29709 -0.093963 0)
(1.28703 -0.104504 0)
(1.30783 -0.110728 7.34826e-20)
(1.10956 0.162315 -3.5933e-21)
(1.10762 0.177671 4.01264e-20)
(1.09754 0.154386 2.15405e-20)
(-0.0390929 0.00966748 1.04233e-19)
(-0.0246373 0.0206725 -1.17007e-19)
(0.13789 0.0656375 -1.41335e-19)
(0.141773 0.0452926 1.35154e-19)
(-0.0809389 0.112553 2.65235e-19)
(0.177434 0.327281 7.63724e-20)
(0.402431 0.319602 1.89864e-19)
(0.312437 0.559878 1.81497e-20)
(0.141734 0.445334 -4.36281e-19)
(1.37634 0.459224 -1.55707e-21)
(1.21421 0.460387 -1.0539e-20)
(1.24726 0.4265 1.7026e-20)
(0.771368 -0.592648 2.44733e-20)
(0.525318 -0.381117 -1.58192e-20)
(0.171066 0.0715732 -2.42106e-19)
(0.150646 -0.0101832 0)
(0.31815 0.0311745 1.27589e-19)
(0.487922 -0.372303 2.56544e-20)
(0.693623 -0.57695 -6.5435e-20)
(0.625214 0.0162414 1.68085e-21)
(0.659805 0.015479 -1.32981e-21)
(0.58475 0.0146412 -6.3586e-23)
(0.482889 -0.686119 0)
(0.511955 -0.520836 0)
(1.06083 -0.133841 -1.2989e-20)
(1.04699 -0.116011 7.44903e-20)
(1.03167 -0.0811586 0)
(0.790139 -0.673137 0)
(0.797329 -0.609472 -4.05581e-20)
(0.818651 0.823604 4.52197e-20)
(0.0367004 0.0722607 8.17091e-20)
(0.0325739 0.055354 -6.29079e-20)
(0.521631 -0.473314 -2.91873e-20)
(1.28098 0.193472 2.43155e-20)
(1.30443 0.189128 -3.96344e-21)
(1.42725 -0.232223 -7.18104e-21)
(1.42808 -0.216549 9.60423e-21)
(1.4366 -0.202307 2.88712e-20)
(0.0234451 0.0429558 2.69733e-20)
(0.947967 0.786834 3.9786e-21)
(1.08601 0.743504 -6.66106e-21)
(1.19245 0.800316 2.80422e-22)
(0.427658 -0.0133576 -1.0122e-22)
(0.42683 -0.0149891 -1.20069e-21)
(0.467897 -0.0194442 -1.23315e-22)
(0.508338 -0.0175463 2.23504e-22)
(0.880462 0.779482 2.25631e-20)
(0.485241 0.470595 0)
(-0.155521 0.294029 1.28367e-19)
(-0.173934 0.249323 -1.4302e-19)
(-0.172723 0.300332 1.16315e-19)
(0.747437 0.0768319 -3.09564e-19)
(1.33095 0.210729 -1.53946e-19)
(0.577068 -0.0188561 1.99593e-22)
(1.21082 -0.438065 1.6052e-20)
(1.16993 -0.512785 3.22982e-20)
(1.00721 0.30009 7.40798e-20)
(0.996403 0.341328 7.66956e-21)
(0.953727 0.223423 4.70714e-20)
(0.972666 0.228526 -3.39968e-20)
(1.03403 0.295378 0)
(1.10272 -0.0105695 2.57089e-22)
(1.10357 -0.0138187 3.08938e-22)
(1.14903 -0.0931522 -1.03273e-20)
(1.15963 -0.0969571 1.76624e-20)
(1.11826 0.142571 3.24719e-21)
(1.13302 0.147076 -8.27384e-21)
(1.12159 0.155819 0)
(1.10702 0.148443 2.61235e-21)
(1.12224 0.170079 0)
(1.13963 0.231025 -8.25328e-21)
(1.13531 0.25013 -5.59343e-21)
(1.11613 0.285989 -1.119e-20)
(1.12733 0.269118 0)
(1.15523 0.285148 2.54636e-20)
(1.13944 0.305543 3.08158e-21)
(1.10167 0.309481 -7.81391e-21)
(1.05453 0.381007 -3.36127e-20)
(1.04626 0.322374 -6.67007e-21)
(0.485281 -0.283891 7.96632e-20)
(0.688708 -0.339545 -3.2819e-20)
(-0.0988594 0.164842 -1.95316e-19)
(0.564455 0.012554 -1.2032e-21)
(0.695299 0.0143318 0)
(-0.0753125 0.0653333 1.58454e-19)
(-0.0623566 0.0462198 7.67027e-20)
(0.648153 0.0138214 6.05728e-22)
(0.740936 0.0144302 1.81882e-22)
(0.733144 0.0149714 0)
(0.634779 0.0164409 2.26547e-22)
(0.986525 -0.609427 4.73307e-21)
(0.985697 -0.616161 -2.48583e-20)
(0.990941 -0.607969 -1.13054e-20)
(-0.00359001 0.0305936 4.69172e-20)
(0.0091627 0.0156955 -5.82274e-20)
(0.0148699 0.0239951 5.74401e-20)
(-0.0459732 -0.022081 0)
(-0.021882 -0.0112847 7.53733e-20)
(-0.0196137 -0.0105359 -6.51624e-20)
(-0.0586261 -0.0104346 -6.876e-20)
(-0.0876931 -0.0356721 -7.16083e-20)
(-0.0513371 -0.0235988 0)
(0.0621675 0.299695 0)
(0.0292692 0.178175 0)
(0.0101574 0.103745 0)
(1.26997 -0.0972724 -8.91076e-21)
(1.25113 -0.0916793 0)
(1.26151 -0.101496 9.46308e-21)
(0.920951 -0.0556812 2.07522e-19)
(0.934134 -0.063287 -7.54488e-20)
(0.930794 -0.043822 0)
(0.942791 0.407687 9.84113e-22)
(0.954994 0.478212 -1.9324e-21)
(0.932657 0.322777 6.98131e-22)
(0.967071 0.532553 0)
(0.979413 0.571742 1.11887e-21)
(0.991038 0.596771 0)
(0.969853 0.583905 0)
(1.00052 0.609675 -3.25087e-21)
(0.981748 0.598299 0)
(0.955898 0.557671 1.03505e-21)
(0.941425 0.517926 0)
(0.926809 0.46354 -5.82533e-22)
(0.912512 0.393225 9.46801e-22)
(0.900577 0.310114 -6.97275e-22)
(1.0082 0.613606 3.11143e-21)
(0.991981 0.604224 9.86852e-23)
(0.92399 0.225595 2.06788e-23)
(0.890626 0.214717 1.0844e-21)
(0.917449 0.119127 -6.16023e-21)
(1.0144 0.611519 -2.66444e-24)
(1.00105 0.604134 8.82348e-23)
(0.883324 0.111233 -2.1306e-21)
(1.01903 0.60556 -2.46868e-21)
(1.02232 0.597695 2.46663e-21)
(1.00852 0.599961 -1.88401e-22)
(1.01449 0.593636 -3.46365e-22)
(0.915302 0.0119207 5.99445e-21)
(0.879137 0.00507167 1.40549e-21)
(1.02434 0.589278 0)
(1.01906 0.586526 3.41552e-22)
(0.913151 -0.0982322 -7.04409e-25)
(0.87755 -0.102448 7.06004e-25)
(1.02526 0.581317 0)
(1.02241 0.579699 0)
(0.91418 -0.203666 0)
(0.878769 -0.205667 0)
(1.02516 0.574549 0)
(1.0247 0.573936 -1.61819e-22)
(0.91633 -0.301659 2.69858e-21)
(0.882054 -0.301646 6.59416e-25)
(1.02412 0.569536 -8.54099e-24)
(1.02604 0.569877 1.72912e-22)
(0.920064 -0.388452 -2.71217e-21)
(0.887411 -0.386486 0)
(1.02217 0.566666 0)
(1.02646 0.567906 0)
(0.924879 -0.461491 1.47599e-22)
(0.894667 -0.457592 -2.35311e-21)
(1.01932 0.565947 -1.14841e-21)
(1.02609 0.568112 0)
(0.930886 -0.518898 -1.48418e-22)
(0.903702 -0.513104 2.21697e-21)
(1.01549 0.566865 1.74883e-21)
(1.02471 0.569919 5.28161e-22)
(0.937539 -0.560413 -2.17449e-21)
(0.91437 -0.552629 0)
(1.01099 0.56831 -5.96935e-22)
(1.0229 0.572305 -3.5614e-22)
(0.94596 -0.58593 9.13856e-22)
(0.925983 -0.576854 -1.80076e-21)
(1.00512 0.568141 2.66473e-21)
(1.01979 0.5731 -3.00637e-21)
(0.9543 -0.598509 -8.78746e-22)
(0.938364 -0.588236 -2.49935e-23)
(0.998738 0.564529 0)
(1.01581 0.570315 -1.58484e-21)
(0.963325 -0.600578 1.53981e-21)
(0.950474 -0.590757 -3.00977e-21)
(0.99166 0.554885 0)
(1.01138 0.561343 0)
(0.972358 -0.605125 8.69769e-22)
(0.97798 -0.607332 3.13785e-21)
(0.971888 -0.597683 0)
(0.96218 -0.588404 1.37268e-21)
(0.963308 -0.566537 6.94336e-22)
(0.968028 -0.592841 -1.2918e-22)
(0.95675 -0.466199 0)
(0.959889 -0.524799 2.44851e-21)
(0.952142 -0.303386 6.08617e-24)
(0.954174 -0.391885 0)
(0.951416 -0.0953702 0)
(0.951278 -0.203466 0)
(0.956717 0.129731 0)
(0.954104 0.0167827 0)
(0.968694 0.334457 -1.45294e-21)
(0.962354 0.236262 -3.79527e-22)
(0.986775 0.491036 1.32423e-21)
(0.977109 0.420789 1.51345e-21)
(1.00505 0.582893 -1.90647e-21)
(0.995433 0.544633 -2.72743e-21)
(1.02051 0.617762 0)
(1.0137 0.606411 0)
(1.02909 0.616146 6.33955e-24)
(1.02566 0.620066 0)
(1.0315 0.598969 0)
(1.03096 0.608437 0)
(1.02924 0.580033 0)
(1.03088 0.589176 0)
(1.02324 0.566195 0)
(1.02668 0.572206 0)
(1.01364 0.560583 0)
(1.0189 0.562319 0)
(1.00036 0.560978 0)
(1.00744 0.560545 0)
(0.983865 0.556397 1.12077e-21)
(0.992334 0.560262 0)
(0.974177 0.546383 3.91203e-22)
(0.984358 0.537461 -4.51085e-22)
(1.00671 0.544262 4.47385e-22)
(1.03468 0.574964 0)
(1.03225 0.565026 1.80289e-21)
(1.03369 0.573081 7.94071e-22)
(1.03419 0.570099 -1.72823e-22)
(1.03472 0.573266 7.20694e-22)
(1.03117 0.566672 -4.99712e-24)
(1.03311 0.567604 0)
(1.02511 0.571064 0)
(1.02859 0.567864 0)
(1.01525 0.581614 0)
(1.02072 0.575874 0)
(1.00039 0.592284 0)
(1.00853 0.587446 -6.28315e-28)
(0.979418 0.593098 -5.97507e-24)
(0.990694 0.59474 0)
(0.951839 0.569258 0)
(0.96648 0.5854 0)
(0.91943 0.501806 0)
(0.935684 0.541616 0)
(0.887212 0.378842 0)
(0.902832 0.447648 5.88012e-22)
(0.862852 0.205269 -2.02047e-22)
(0.873689 0.297052 7.82555e-22)
(0.849797 0.00116225 0)
(0.854821 0.105843 6.83002e-22)
(0.849443 -0.203985 0)
(0.848093 -0.103244 0)
(0.860565 -0.379888 0)
(0.853653 -0.297377 0)
(0.881374 -0.502606 0)
(0.869906 -0.448884 0)
(0.909048 -0.563842 4.87224e-22)
(0.894606 -0.540496 0)
(0.939212 -0.577835 1.50495e-21)
(0.924132 -0.574957 4.19383e-22)
(0.953736 -0.576643 -1.40328e-21)
(0.983065 -0.604005 -2.95445e-21)
(0.964067 0.528242 -8.92823e-22)
(1.03051 0.549044 2.11846e-21)
(0.972808 -0.58566 0)
(0.96697 -0.57528 0)
(0.988186 -0.599527 0)
(0.979777 -0.593832 0)
(0.992562 -0.609039 0)
(0.996248 -0.608097 -8.10531e-22)
(0.99442 -0.611564 -8.85274e-22)
(0.990468 -0.569818 -1.43938e-21)
(0.991538 -0.596621 2.75741e-22)
(0.989206 -0.468407 -5.5788e-24)
(0.989725 -0.52749 0)
(0.989026 -0.304068 0)
(0.988956 -0.393302 0)
(0.991104 -0.0944076 0)
(0.989739 -0.203382 0)
(0.996808 0.132734 0)
(0.993531 0.0190128 0)
(1.00631 0.342618 0)
(1.00133 0.241986 0)
(1.01984 0.500266 5.44877e-24)
(1.01295 0.429099 -1.49813e-21)
(1.03253 0.590583 4.54498e-24)
(1.02624 0.554099 2.54926e-21)
(1.04109 0.622174 0)
(1.03749 0.612435 0)
(1.04375 0.617362 -3.18669e-24)
(1.04319 0.622817 0)
(1.04085 0.597697 0)
(1.0429 0.608322 0)
(1.03383 0.576864 0)
(1.03778 0.586903 0)
(1.02351 0.561317 0)
(1.02907 0.568189 0)
(1.00974 0.553875 0)
(1.01709 0.55653 0)
(0.992127 0.552527 0)
(1.00143 0.5529 0)
(0.970814 0.54639 -7.4869e-22)
(0.981935 0.55112 0)
(0.976308 0.509807 0)
(0.953465 0.500911 -1.04838e-21)
(0.946212 0.517454 0)
(0.958844 0.536019 -7.93455e-22)
(1.05368 0.565573 -1.68036e-21)
(1.05481 0.550781 -4.77184e-22)
(1.02827 0.523468 -3.95455e-21)
(1.00131 0.517483 0)
(1.05032 0.573625 0)
(1.0522 0.572596 2.49579e-21)
(1.04448 0.567844 -5.28856e-24)
(1.04741 0.571441 -7.25256e-22)
(1.03667 0.563274 4.99706e-24)
(1.04078 0.564852 0)
(1.02638 0.566073 0)
(1.03192 0.563733 0)
(1.01251 0.574498 0)
(1.01998 0.569901 0)
(0.993702 0.582335 0)
(1.00382 0.579007 6.28309e-28)
(0.968706 0.579782 1.15233e-23)
(0.982019 0.583131 0)
(0.937085 0.552694 0)
(0.953695 0.570379 0)
(0.901224 0.484008 -2.55266e-22)
(0.919322 0.524291 0)
(0.86651 0.363708 0)
(0.883316 0.430763 2.54164e-22)
(0.840042 0.195748 -6.49149e-22)
(0.85193 0.284292 -6.26302e-22)
(0.825842 -0.00203202 0)
(0.831091 0.0985825 0)
(0.825697 -0.200462 0)
(0.824067 -0.102975 0)
(0.838658 -0.370524 0)
(0.830637 -0.290768 0)
(0.862677 -0.488718 0)
(0.849469 -0.437081 0)
(0.894495 -0.547185 -6.18504e-24)
(0.877877 -0.525035 0)
(0.929444 -0.561725 5.24806e-24)
(0.911893 -0.558101 0)
(0.961674 -0.562027 1.27893e-21)
(0.946226 -0.561803 -1.27826e-21)
(0.998168 -0.603227 -1.3351e-21)
(0.978811 -0.576146 0)
(0.975782 -0.564344 2.33389e-21)
(0.982238 -0.585369 0)
(0.933131 0.48998 0)
(1.05558 0.526187 5.14822e-22)
(0.99247 -0.597426 -3.07589e-21)
(0.999511 -0.600149 -1.17649e-21)
(0.989423 -0.580496 -6.41908e-22)
(0.988533 -0.569654 -2.95225e-21)
(0.986725 -0.592599 0)
(0.93122 0.505488 -3.07268e-21)
(0.916299 0.478339 1.58282e-21)
(1.02498 0.487269 1.13544e-21)
(1.05471 0.490863 -5.88074e-21)
(1.00838 -0.599629 -4.36223e-21)
(1.00029 -0.600401 2.39063e-21)
(1.00329 -0.600261 9.27412e-21)
(1.00633 -0.598339 2.37034e-21)
(1.01123 -0.609007 -1.52661e-21)
(1.00999 -0.603731 3.90701e-21)
(1.01414 -0.609391 1.75924e-21)
(1.01267 -0.612265 1.06097e-21)
(1.01861 -0.569423 5.85625e-22)
(1.01637 -0.596392 5.20177e-22)
(1.02327 -0.467543 5.5788e-24)
(1.02092 -0.526743 0)
(1.02789 -0.303079 0)
(1.02561 -0.392393 0)
(1.03249 -0.0926399 0)
(1.03017 -0.202129 0)
(1.03791 0.136147 0)
(1.03503 0.0215203 0)
(1.04526 0.34722 0)
(1.04129 0.246338 0)
(1.05386 0.505709 0)
(1.04955 0.43474 0)
(1.06076 0.594769 -1.14303e-26)
(1.05781 0.558772 0)
(1.0628 0.62352 0)
(1.06247 0.615348 0)
(1.05926 0.615771 -3.11356e-24)
(1.06171 0.622629 0)
(1.05093 0.593858 0)
(1.05561 0.605519 0)
(1.03914 0.571341 0)
(1.0454 0.582172 0)
(1.02456 0.55425 0)
(1.0322 0.56191 0)
(1.0068 0.545008 0)
(1.01613 0.548603 0)
(0.985197 0.541788 0)
(0.996489 0.543069 0)
(0.959758 0.534335 -3.36481e-22)
(0.972916 0.539574 1.69685e-22)
(0.945791 0.52369 1.50143e-21)
(0.967797 0.472537 4.91686e-22)
(0.920197 0.452958 -1.9666e-21)
(0.942556 0.463685 1.4329e-21)
(0.995791 0.481354 0)
(1.0754 0.562536 1.39395e-21)
(1.08276 0.525819 4.73837e-21)
(1.07933 0.548735 -3.34145e-21)
(1.06624 0.569425 0)
(1.07104 0.568748 0)
(1.05515 0.563248 1.78913e-25)
(1.06054 0.567069 0)
(1.04281 0.557808 0)
(1.04903 0.559884 0)
(1.02849 0.559158 4.41364e-24)
(1.03596 0.557618 0)
(1.01086 0.565495 0)
(1.02018 0.562031 0)
(0.988446 0.570528 0)
(1.00035 0.568688 0)
(0.959939 0.564686 -5.55096e-24)
(0.975004 0.569708 0)
(0.925138 0.534609 -5.77204e-24)
(0.943247 0.553644 0)
(0.886686 0.465305 0)
(0.906079 0.505582 0)
(0.84982 0.34736 0)
(0.867582 0.412622 0)
(0.821525 0.184843 0)
(0.834322 0.270757 0)
(0.806264 -0.00564153 0)
(0.811982 0.0913293 0)
(0.806064 -0.196945 8.31331e-24)
(0.804271 -0.10301 0)
(0.820416 -0.360634 0)
(0.811524 -0.283907 0)
(0.847185 -0.473896 0)
(0.83244 -0.424514 0)
(0.882793 -0.529412 6.05105e-25)
(0.864193 -0.508408 0)
(0.9216 -0.54371 -4.82788e-25)
(0.902226 -0.539828 0)
(0.957527 -0.546754 -4.3338e-24)
(0.940236 -0.545038 0)
(0.9881 -0.556876 2.17491e-21)
(0.973408 -0.550574 -5.35457e-22)
(1.00033 -0.577855 -5.59212e-22)
(1.00181 -0.565467 -1.09949e-21)
(0.995897 -0.598825 1.2596e-21)
(0.990616 -0.588767 1.19546e-21)
(0.901453 0.441536 -4.21973e-22)
(1.08496 0.492232 -3.80241e-21)
(0.999782 -0.604266 -9.93477e-23)
(0.998907 -0.58788 0)
(0.997758 -0.607731 -1.42745e-20)
(1.0151 -0.576039 -1.70073e-21)
(1.0115 -0.588177 -2.3568e-21)
(0.991263 -0.604443 2.07704e-20)
(0.985081 -0.605959 -3.50504e-21)
(0.992602 -0.595043 0)
(1.00678 -0.595905 -2.36839e-21)
(0.999966 -0.599234 -1.16052e-21)
(1.01778 -0.59669 -2.3851e-21)
(1.01266 -0.594736 3.34613e-21)
(1.02706 -0.606712 1.52494e-21)
(1.0226 -0.601294 6.44572e-22)
(1.03662 -0.606611 -9.36e-22)
(1.03176 -0.609848 -7.70245e-22)
(1.04755 -0.565993 0)
(1.04203 -0.593132 -3.08647e-23)
(1.05829 -0.464027 0)
(1.05302 -0.523163 0)
(1.06762 -0.300147 -6.35476e-24)
(1.06321 -0.389146 0)
(1.07473 -0.090133 0)
(1.07146 -0.199451 0)
(1.08012 0.138777 0)
(1.07756 0.024029 0)
(1.08501 0.350379 0)
(1.08259 0.249165 0)
(1.08904 0.508483 -5.50472e-24)
(1.08725 0.437856 0)
(1.08981 0.59561 -7.71742e-26)
(1.09001 0.560868 0)
(1.08525 0.621536 0)
(1.08825 0.614778 0)
(1.07541 0.611232 6.12693e-24)
(1.08092 0.61929 0)
(1.0616 0.587482 0)
(1.06891 0.599972 0)
(1.04513 0.56364 0)
(1.05365 0.575097 0)
(1.02645 0.545237 0)
(1.03608 0.553586 0)
(1.00495 0.534282 0)
(1.01612 0.538788 0)
(0.979688 0.529188 0)
(0.99281 0.531377 0)
(0.950562 0.520301 1.6775e-22)
(0.965552 0.526202 0)
(0.918829 0.491346 0)
(0.934929 0.509389 3.21044e-22)
(0.886306 0.428875 4.0663e-23)
(0.902497 0.464722 0)
(0.907472 0.406618 1.99441e-21)
(0.87025 0.382822 -9.94404e-23)
(0.886879 0.395133 -9.76558e-22)
(0.959416 0.426369 -8.38621e-22)
(0.931807 0.416837 5.6909e-22)
(1.02129 0.440546 3.04916e-22)
(0.989533 0.434922 -3.17845e-22)
(1.08716 0.447817 0)
(1.05412 0.445327 2.50971e-21)
(1.11 0.522119 1.02341e-21)
(1.11997 0.447676 2.18301e-21)
(1.11539 0.490164 -5.16106e-21)
(1.09702 0.556646 4.33715e-22)
(1.10395 0.543697 0)
(1.082 0.562693 0)
(1.08982 0.56216 0)
(1.066 0.55632 2.41335e-25)
(1.07391 0.56017 0)
(1.04943 0.550299 0)
(1.05771 0.552705 0)
(1.03134 0.550413 -4.41364e-24)
(1.04062 0.549569 0)
(1.01025 0.554776 0)
(1.02125 0.552391 0)
(0.984601 0.557095 0)
(0.998085 0.556695 0)
(0.953123 0.548113 0)
(0.969637 0.554719 0)
(0.915791 0.515368 6.18717e-25)
(0.935091 0.535579 0)
(0.875275 0.445524 0)
(0.895658 0.485757 0)
(0.83684 0.330292 0)
(0.855352 0.393694 0)
(0.807035 0.173292 0)
(0.820538 0.25625 0)
(0.790795 -0.00964199 0)
(0.796986 0.0835173 0)
(0.790439 -0.193126 -8.31331e-24)
(0.788581 -0.103087 0)
(0.80584 -0.34965 0)
(0.796263 -0.276369 0)
(0.834967 -0.457203 0)
(0.818888 -0.41044 0)
(0.873837 -0.509539 5.58051e-24)
(0.853548 -0.489719 0)
(0.915825 -0.524031 -4.79176e-24)
(0.894926 -0.519654 0)
(0.954363 -0.529563 4.28476e-24)
(0.935777 -0.526405 0)
(0.9879 -0.542056 -5.07045e-22)
(0.971663 -0.534774 1.03073e-21)
(1.01875 -0.561979 4.78637e-22)
(1.00346 -0.551293 -1.05658e-21)
(1.02811 -0.588652 -8.53554e-23)
(1.03381 -0.574641 -1.07635e-21)
(0.998326 -0.603836 1.16181e-21)
(0.997993 -0.595628 0)
(0.998863 -0.610516 1.02917e-20)
(1.00762 -0.597901 0)
(0.874037 0.414375 3.6833e-22)
(0.857575 0.370485 -2.57899e-22)
(1.08784 0.392566 2.72224e-21)
(1.12329 0.392794 3.00108e-21)
(0.993018 -0.616718 9.4577e-21)
(1.02222 -0.600517 2.37973e-21)
(0.977661 -0.613506 0)
(0.990076 -0.595772 1.96836e-21)
(1.04097 -0.603127 1.08297e-21)
(1.04899 -0.589099 -1.74025e-21)
(0.980439 -0.598484 -4.14846e-21)
(0.9976 -0.60117 0)
(1.01021 -0.589328 0)
(1.00062 -0.592054 1.94285e-21)
(1.02684 -0.591067 0)
(1.01888 -0.588712 0)
(1.04233 -0.601268 0)
(1.03464 -0.595881 -6.67713e-22)
(1.0586 -0.600331 0)
(1.05034 -0.604034 0)
(1.07613 -0.5591 0)
(1.0673 -0.586421 0)
(1.09303 -0.457695 0)
(1.08482 -0.516393 0)
(1.10705 -0.295319 6.35476e-24)
(1.10053 -0.383494 0)
(1.11676 -0.0870103 0)
(1.11248 -0.195501 0)
(1.12237 0.140773 0)
(1.12 0.0264916 0)
(1.12508 0.351797 0)
(1.12405 0.250888 0)
(1.12465 0.508597 1.44385e-25)
(1.12536 0.438772 0)
(1.11927 0.59316 -1.41987e-25)
(1.12269 0.559815 0)
(1.10798 0.616269 0)
(1.11434 0.61088 0)
(1.09182 0.603758 -1.39962e-25)
(1.1004 0.612815 0)
(1.07262 0.578602 0)
(1.08251 0.59171 0)
(1.05161 0.553795 0)
(1.0623 0.565711 0)
(1.02905 0.534334 0)
(1.04055 0.543258 0)
(1.0041 0.521798 0)
(1.01696 0.527168 0)
(0.975565 0.514814 0)
(0.990327 0.517938 0)
(0.943425 0.50457 0)
(0.959854 0.510993 0)
(0.908863 0.4754 -3.09002e-22)
(0.926322 0.493352 -3.25926e-22)
(0.891303 0.449226 7.07214e-22)
(0.895502 0.351071 1.14643e-21)
(0.855198 0.328335 0)
(0.873478 0.340313 9.88001e-22)
(0.950999 0.37115 0)
(0.921562 0.361766 -1.17025e-21)
(1.01683 0.384644 -2.03255e-21)
(0.982974 0.379268 6.79649e-22)
(1.05208 0.389256 3.91333e-21)
(1.1364 0.515117 -4.76388e-22)
(1.15174 0.44348 -2.41749e-21)
(1.14569 0.484403 0)
(1.11804 0.547667 8.6257e-22)
(1.12814 0.535462 -8.64939e-22)
(1.09749 0.553505 0)
(1.10819 0.552881 0)
(1.07687 0.547134 2.96388e-25)
(1.08719 0.550928 0)
(1.05635 0.540833 0)
(1.06661 0.543431 0)
(1.0348 0.539938 0)
(1.04577 0.539688 0)
(1.01059 0.542478 0)
(1.02312 0.5411 0)
(0.982113 0.542225 0)
(0.996971 0.543191 0)
(0.948165 0.530301 -4.05849e-24)
(0.965861 0.538379 0)
(0.908858 0.495205 5.15333e-24)
(0.929081 0.516429 0)
(0.866809 0.425003 0)
(0.887907 0.465098 0)
(0.827201 0.312555 0)
(0.846289 0.374122 0)
(0.796272 0.161226 0)
(0.8103 0.241056 0)
(0.779187 -0.0139742 0)
(0.785773 0.0752068 0)
(0.778635 -0.189167 0)
(0.776771 -0.103269 0)
(0.794845 -0.337967 0)
(0.784725 -0.268417 0)
(0.825944 -0.439293 5.03312e-24)
(0.808738 -0.395391 0)
(0.86757 -0.488224 -4.29843e-24)
(0.845861 -0.469653 0)
(0.912147 -0.50312 3.73799e-24)
(0.890026 -0.498092 0)
(0.952791 -0.511171 0)
(0.933183 -0.506702 0)
(0.988465 -0.525626 0)
(0.971096 -0.51747 0)
(1.02236 -0.546379 -3.4163e-24)
(1.00536 -0.535347 -4.74864e-22)
(1.05633 -0.573084 2.67111e-21)
(1.03931 -0.55896 0)
(1.06444 -0.605186 1.67178e-21)
(1.07394 -0.58883 1.85447e-22)
(0.999809 -0.611705 -3.45234e-21)
(1.00446 -0.605162 0)
(0.841643 0.317022 1.65327e-21)
(1.15784 0.391482 4.50644e-21)
(0.995256 -0.620213 1.76724e-21)
(0.976811 -0.621843 1.63958e-22)
(0.986482 -0.627162 -4.62709e-21)
(1.01598 -0.609865 0)
(1.03244 -0.614899 -6.39821e-22)
(0.967153 -0.60476 3.51591e-21)
(0.955597 -0.611233 -3.76233e-21)
(0.967458 -0.623078 3.81464e-21)
(1.0538 -0.619414 1.83985e-21)
(1.08007 -0.622824 -1.32929e-21)
(1.09231 -0.605821 -9.05777e-22)
(1.00154 -0.609966 0)
(0.990048 -0.583373 -9.40317e-23)
(0.961435 -0.589545 -2.83245e-22)
(0.977221 -0.585579 -6.95213e-22)
(1.01434 -0.579491 -8.94474e-22)
(1.00256 -0.581182 8.99423e-22)
(1.03587 -0.582193 -2.02903e-24)
(1.02551 -0.579456 0)
(1.05676 -0.592075 0)
(1.04618 -0.587028 0)
(1.07939 -0.59015 0)
(1.06785 -0.594333 0)
(1.10345 -0.548669 0)
(1.09136 -0.575924 0)
(1.12636 -0.448559 -5.07054e-24)
(1.11526 -0.506432 0)
(1.14501 -0.288617 0)
(1.13638 -0.375475 0)
(1.15747 -0.0830992 0)
(1.15207 -0.190212 0)
(1.1637 0.142421 0)
(1.1613 0.0291731 0)
(1.16462 0.351601 0)
(1.1648 0.251626 0)
(1.15993 0.50598 5.36033e-24)
(1.16306 0.437484 0)
(1.14845 0.587423 -2.03112e-25)
(1.15508 0.555676 0)
(1.13048 0.607701 0)
(1.14017 0.603623 0)
(1.10815 0.593381 -5.57079e-24)
(1.1197 0.603207 0)
(1.08374 0.567304 0)
(1.0961 0.580792 0)
(1.05844 0.54193 0)
(1.07118 0.55412 0)
(1.03228 0.521699 0)
(1.04551 0.531066 0)
(1.00423 0.50776 0)
(1.01859 0.51392 0)
(0.972864 0.498928 0)
(0.989024 0.502984 0)
(0.93801 0.487285 -3.86806e-24)
(0.955802 0.494298 0)
(0.901435 0.458187 3.10333e-22)
(0.919816 0.475891 0)
(0.86506 0.398275 -3.87152e-22)
(0.883064 0.432619 0)
(0.831932 0.304236 -3.34714e-22)
(0.847954 0.355534 3.6378e-22)
(0.842019 0.267026 -9.12548e-22)
(0.817452 0.245067 0)
(0.827461 0.255609 -1.1853e-21)
(0.88455 0.288443 0)
(0.861198 0.277896 0)
(0.942828 0.307711 0)
(0.912025 0.298749 0)
(1.01244 0.320081 0)
(0.976504 0.315107 0)
(1.08815 0.327594 -2.77447e-21)
(1.05008 0.3245 -7.44428e-22)
(1.16264 0.329534 -6.54542e-22)
(1.12584 0.329122 -5.52808e-21)
(1.18278 0.437145 -2.64739e-21)
(1.19785 0.327646 -5.79909e-22)
(1.19064 0.387559 1.14982e-21)
(1.16208 0.504927 -5.02333e-22)
(1.17327 0.476242 3.14233e-21)
(1.13812 0.535988 3.89054e-25)
(1.15088 0.524378 0)
(1.11254 0.541879 0)
(1.12553 0.541294 0)
(1.08763 0.535859 3.42944e-25)
(1.10006 0.539499 0)
(1.06346 0.52957 0)
(1.07552 0.532245 0)
(1.03877 0.527892 0)
(1.05127 0.52814 0)
(1.01179 0.528778 0)
(1.02566 0.528327 0)
(0.980887 0.526128 0)
(0.996916 0.528367 0)
(0.944924 0.511485 7.57725e-24)
(0.963567 0.520916 0)
(0.904114 0.474309 0)
(0.925025 0.496412 0)
(0.861005 0.40396 0)
(0.882586 0.443815 0)
(0.820576 0.294335 0)
(0.840074 0.354086 0)
(0.788859 0.148754 0)
(0.803266 0.225381 0)
(0.771112 -0.0185796 5.51166e-24)
(0.777998 0.0665055 0)
(0.770368 -0.185116 0)
(0.768525 -0.103558 0)
(0.78722 -0.325652 0)
(0.776655 -0.260122 0)
(0.819991 -0.420227 -5.03312e-24)
(0.801831 -0.379419 0)
(0.863824 -0.465637 6.47573e-25)
(0.841006 -0.44831 0)
(0.91029 -0.48115 -6.9307e-24)
(0.887292 -0.475358 0)
(0.952505 -0.491843 0)
(0.93211 -0.486021 0)
(0.990067 -0.507987 0)
(0.97169 -0.499196 0)
(1.02601 -0.52908 3.99352e-25)
(1.00808 -0.517969 0)
(1.06264 -0.555288 0)
(1.04413 -0.541446 0)
(1.10238 -0.587003 1.65758e-21)
(1.08198 -0.570607 0)
(1.1108 -0.623811 3.08787e-22)
(1.12358 -0.604286 -3.20076e-21)
(1.00041 -0.621485 0)
(0.945565 -0.593069 -4.82853e-21)
(0.99141 -0.630723 -1.20614e-21)
(0.825286 0.291675 3.34124e-22)
(0.810945 0.235708 0)
(1.16595 0.258181 -6.57766e-22)
(1.20218 0.257741 1.35954e-21)
(1.01023 -0.616639 0)
(1.02369 -0.623839 0)
(0.979122 -0.635717 0)
(1.04258 -0.630918 6.3011e-22)
(1.06665 -0.637078 1.31557e-21)
(1.09601 -0.641121 0)
(1.12969 -0.641673 -3.65986e-21)
(1.14523 -0.621717 2.63666e-21)
(1.00458 -0.620676 0)
(0.957406 -0.571236 2.94498e-25)
(0.927701 -0.592672 -1.25821e-21)
(0.916937 -0.567596 3.99888e-21)
(0.938188 -0.571296 -1.27653e-21)
(0.990792 -0.568239 3.87062e-22)
(0.97519 -0.569594 6.90256e-22)
(1.01923 -0.566859 0)
(1.00543 -0.567278 0)
(1.04508 -0.570522 2.02845e-24)
(1.03252 -0.567598 0)
(1.07057 -0.579628 0)
(1.05758 -0.575115 0)
(1.09877 -0.576567 0)
(1.08432 -0.581247 0)
(1.12883 -0.535092 0)
(1.11374 -0.562125 0)
(1.15736 -0.436765 5.07054e-24)
(1.14355 -0.493538 0)
(1.18056 -0.279999 0)
(1.16982 -0.365138 0)
(1.19602 -0.0782248 0)
(1.18934 -0.183462 0)
(1.20327 0.143904 0)
(1.20064 0.0322801 0)
(1.20279 0.349974 0)
(1.204 0.25157 0)
(1.19411 0.500783 -4.84889e-24)
(1.19955 0.434148 0)
(1.17672 0.578468 -2.57918e-25)
(1.18646 0.548554 0)
(1.15227 0.595929 0)
(1.16519 0.593084 0)
(1.12403 0.580222 2.07289e-25)
(1.13842 0.590576 0)
(1.09472 0.553725 0)
(1.10941 0.567348 0)
(1.06546 0.528188 0)
(1.08008 0.540466 0)
(1.03602 0.50749 0)
(1.05082 0.51716 0)
(1.00524 0.492363 0)
(1.02091 0.499218 0)
(0.971519 0.481787 0)
(0.988826 0.486733 0)
(0.934501 0.468846 7.22915e-24)
(0.953347 0.476362 0)
(0.8962 0.439799 3.72972e-24)
(0.915301 0.457251 0)
(0.858971 0.382057 -5.93226e-22)
(0.877313 0.415012 5.60442e-22)
(0.841499 0.340736 -5.45856e-22)
(0.830848 0.199342 -2.40873e-22)
(0.805062 0.181068 -4.6093e-23)
(0.815967 0.189878 6.87629e-22)
(0.874874 0.219209 0)
(0.850572 0.209494 0)
(0.935168 0.236299 1.11271e-26)
(0.903204 0.228368 0)
(1.00801 0.248005 0)
(0.970352 0.243053 0)
(1.08736 0.254621 -1.5095e-21)
(1.04734 0.252076 1.5258e-21)
(1.12721 0.256849 -1.14665e-22)
(1.21125 0.427908 3.70933e-23)
(1.23008 0.323255 1.22943e-21)
(1.22142 0.380412 -7.98416e-23)
(1.1859 0.492015 4.6523e-22)
(1.19914 0.46473 -4.66011e-22)
(1.1567 0.522137 5.97882e-24)
(1.17181 0.510768 0)
(1.12679 0.528117 4.56771e-24)
(1.14183 0.527358 0)
(1.09805 0.522719 3.80882e-25)
(1.11231 0.52605 0)
(1.07061 0.516706 0)
(1.08426 0.519336 0)
(1.04313 0.514459 0)
(1.057 0.515112 0)
(1.01375 0.51387 0)
(1.02879 0.514261 0)
(0.980797 0.509016 0)
(0.997803 0.512427 0)
(0.943223 0.491894 -3.51876e-24)
(0.962612 0.502552 0)
(0.901309 0.452884 -3.24972e-24)
(0.922711 0.475746 0)
(0.857519 0.382567 0)
(0.879399 0.4221 0)
(0.816591 0.275796 0)
(0.836337 0.333739 0)
(0.78438 0.135981 0)
(0.799034 0.209386 0)
(0.766184 -0.0233929 -5.51166e-24)
(0.773275 0.0575181 0)
(0.765313 -0.180996 4.44346e-24)
(0.763473 -0.103941 0)
(0.782744 -0.312812 0)
(0.771779 -0.251546 0)
(0.816958 -0.400253 0)
(0.797989 -0.362694 0)
(0.862456 -0.442182 6.35206e-25)
(0.838844 -0.426022 0)
(0.910066 -0.458531 5.84262e-24)
(0.886566 -0.451885 0)
(0.953281 -0.471749 0)
(0.932349 -0.464679 0)
(0.992397 -0.489364 0)
(0.973157 -0.480037 0)
(1.03042 -0.510557 4.18303e-25)
(1.0114 -0.499522 0)
(1.06941 -0.535997 0)
(1.04968 -0.522654 0)
(1.11154 -0.566338 -1.03755e-21)
(1.08991 -0.550667 0)
(1.15835 -0.59959 -1.18248e-21)
(1.13426 -0.583006 2.28088e-21)
(0.950691 -0.627742 6.83982e-21)
(0.939133 -0.612822 5.08306e-21)
(1.16742 -0.638037 1.51719e-21)
(1.18308 -0.6155 -1.51665e-21)
(0.999725 -0.633273 0)
(0.798705 0.17405 -5.72662e-22)
(1.23616 0.255973 5.38175e-21)
(0.893928 -0.559868 -6.99813e-22)
(1.0153 -0.630006 0)
(0.906906 -0.588661 -3.21861e-22)
(0.985819 -0.641393 0)
(1.03093 -0.639216 0)
(0.971501 -0.642653 0)
(1.05232 -0.64805 0)
(1.07915 -0.654958 0)
(1.11118 -0.658904 3.49769e-22)
(1.14822 -0.657895 1.40981e-21)
(1.18927 -0.651068 0)
(1.20848 -0.628747 3.59799e-21)
(1.00674 -0.63306 0)
(0.909118 -0.541304 -1.39964e-21)
(0.868838 -0.544216 -3.47634e-21)
(0.857551 -0.509558 -1.17739e-21)
(0.883981 -0.528728 1.47777e-21)
(0.9546 -0.551192 -1.0289e-22)
(0.932978 -0.548224 4.49665e-22)