/*--------------------------------*- C++ -*----------------------------------*\
  =========                 |
  \\      /  F ield         | OpenFOAM: The Open Source CFD Toolbox
   \\    /   O peration     | Website:  https://openfoam.org
    \\  /    A nd           | Version:  10
     \\/     M anipulation  |
\*---------------------------------------------------------------------------*/
FoamFile
{
    format      ascii;
    class       volScalarField;
    location    "40";
    object      p;
}
// * * * * * * * * * * * * * * * * * * * * * * * * * * * * * * * * * * * * * //

dimensions      [0 2 -2 0 0 0 0];

internalField   nonuniform List<scalar> 
28942
(
-0.00369961
-0.00306702
0.00211618
0.00962213
0.00992242
0.000124481
0.000365527
4.29459e-05
0.00283214
0.00292028
-0.00223989
-0.00251012
-0.0028972
-0.00281432
0.000240908
0.000593131
0.00999255
0.0102623
0.00568398
0.0072443
0.00826422
0.00825647
-0.00517356
-0.0049943
-0.0035232
-0.00374301
0.0139921
0.013941
0.00362922
0.00357379
3.13302e-05
7.10098e-05
0.000942543
0.000395852
0.00725223
0.00845894
0.0109981
0.0129586
1.06164e-05
0.0151559
0.00922645
0.0117242
0.00205825
0.00200062
0.00203466
0.000360714
0.000209639
0.000288998
0.000333341
0.000468465
0.000872265
0.00293113
0.00300046
0.00296239
0.0031193
-0.00228311
-0.000976121
-0.00330812
-0.00315292
-0.00342722
-0.00349978
-0.00350086
-0.00339805
-3.26279e-05
-0.00174498
-0.000274591
0.00106456
0.00953375
0.00903707
-0.00328733
-0.00349901
-0.00323196
0.00909672
0.0089493
0.00924073
-0.00139483
-0.00100491
-0.00065919
0.00245364
0.00285333
0.00193948
0.000839067
-0.00625469
-0.00748904
0.00117625
0.00390718
0.00495089
0.00574034
0.00412116
0.0042475
0.00621781
0.005594
-0.00129585
-0.00159466
-0.00187806
-0.0017119
-0.00153252
0.00543978
0.00673303
-0.00780057
0.0114196
0.0106206
0.00591451
0.00951203
0.00101905
0.00093684
0.000837889
0.00558941
0.00578197
0.00577576
-0.00315014
-0.00307006
-0.00305205
-0.0025306
-0.00265103
0.015948
0.0139415
0.0133826
0.0150151
0.00173982
0.00482881
0.00352383
0.00517194
0.00484944
0.01562
0.0159154
0.014574
0.00601609
0.00709601
0.000245942
0.000360794
0.000149426
0.0106078
0.0111121
0.00780365
0.00745593
0.0129127
0.00680016
0.0080936
0.00916089
-0.00181174
-0.00233177
0.00746276
0.00198424
0.00205573
-0.00110085
-0.00137093
-0.000896858
-0.00243269
0.00669935
0.00582555
0.00381044
0.000322827
0.000258895
0.00011465
0.000262803
0.00763785
0.00690267
-0.00176477
-0.00188424
-0.00177754
-0.00407274
-0.00361276
9.36269e-05
-0.00278738
-0.000428526
0.00850607
0.00861453
0.00970987
0.00924505
0.00782187
0.0032225
0.00314134
0.0033768
0.00325457
0.00516088
0.00493853
0.00527275
0.00549329
0.00543018
0.00549835
0.00570881
0.00626171
0.00595628
0.00555311
0.00588299
0.00658902
0.00734126
0.00763421
-0.000456299
-0.000440052
-0.00238455
0.000271546
9.68363e-05
-0.00189684
-0.00198764
0.000367219
0.000428654
0.000387439
0.000316157
0.00214721
0.00211745
0.00208705
-0.00284397
-0.00303441
-0.00269325
-0.0042779
-0.00476473
-0.00406929
-0.00466158
-0.00643456
-0.00512611
0.0161421
0.0168529
0.0166201
0.00106674
0.00121283
0.00109582
0.0104624
0.0100347
0.0101151
0.00162297
0.00160133
0.00164469
0.00157978
0.0015585
0.00153739
0.00153816
0.00151648
0.00151751
0.00155898
0.00158021
0.00160165
0.00162344
0.00164513
0.00149602
0.00149684
0.00166652
0.00166706
0.00168885
0.00147575
0.00147616
0.0016893
0.00145535
0.00143511
0.00145584
0.00143567
0.00171115
0.00171176
0.00141505
0.00141562
0.00173336
0.00173429
0.00139513
0.00139572
0.00175596
0.00175702
0.00137536
0.00137597
0.00177881
0.0017799
0.00135575
0.00135632
0.00180189
0.00180295
0.00133631
0.00133676
0.00182529
0.00182603
0.00131695
0.00131736
0.00184865
0.00184936
0.00129769
0.00129802
0.00187233
0.00187286
0.0012785
0.00127864
0.00189626
0.00189676
0.00125946
0.0012591
0.00192038
0.0019206
0.00124005
0.00123972
0.00194477
0.00194498
0.00122009
0.00122024
0.00191956
0.00194396
0.00196953
0.00196947
0.00187109
0.00189539
0.0018239
0.00184764
0.00177787
0.00180081
0.00173238
0.00175507
0.0016874
0.00170981
0.00164391
0.00166599
0.00160081
0.00162212
0.00155813
0.00157938
0.00151598
0.00153702
0.00147489
0.00149538
0.00143438
0.00145457
0.0013945
0.00141437
0.00135517
0.00137477
0.00131637
0.00133572
0.00127805
0.00129716
0.00123951
0.00125899
0.00122002
0.00120045
0.00120057
0.00125927
0.0012205
0.00123992
0.00129806
0.00127867
0.00133676
0.00131739
0.00137589
0.00135627
0.00141556
0.00139566
0.0014558
0.00143561
0.00149666
0.00147616
0.00153825
0.00151748
0.00158036
0.00155931
0.00162323
0.00160165
0.00166715
0.00164527
0.00171148
0.00168899
0.00175676
0.00173407
0.00180263
0.00177963
0.00184917
0.00182578
0.0018965
0.00187261
0.00194418
0.00192031
0.00196866
0.00196885
0.00120039
0.00120098
0.00199405
0.00199295
0.00199379
0.00199429
0.00191792
0.00196687
0.00194228
0.00186957
0.00189371
0.0018228
0.00184599
0.00177683
0.00179975
0.00173146
0.00175407
0.00168682
0.00170903
0.00164279
0.00166477
0.00159965
0.00162137
0.00155747
0.00157825
0.00151541
0.00153635
0.00147431
0.00149479
0.00143387
0.00145402
0.00139402
0.00141387
0.00135474
0.00137432
0.00131597
0.0013353
0.0012777
0.00129678
0.00123932
0.00125857
0.00118078
0.00118085
0.00120059
0.00122004
0.00122087
0.00120158
0.0011817
0.0011809
0.0012595
0.00124025
0.00129793
0.0012786
0.00133653
0.00131718
0.00137562
0.00135601
0.00141525
0.00139537
0.00145546
0.00143528
0.00149629
0.00147581
0.00153781
0.00151697
0.00158006
0.00155882
0.00162282
0.00160135
0.00166649
0.00164471
0.00171089
0.00168862
0.00175601
0.00173337
0.0018018
0.00177883
0.00184816
0.00182493
0.00189503
0.00187157
0.00194246
0.00191867
0.00199045
0.00196654
0.00199152
0.0020175
0.00201492
0.00201826
0.00118147
0.00118211
0.00201803
0.00201563
0.00204188
0.00203943
0.00201897
0.00120088
0.00118177
0.00116225
0.00116269
0.00201186
0.00204108
0.00206797
0.00204065
0.0019638
0.00198788
0.00191547
0.00193955
0.00186779
0.0018916
0.00182123
0.00184427
0.00177543
0.00179828
0.00173021
0.00175274
0.0016857
0.00170787
0.00164184
0.00166366
0.00159872
0.0016202
0.00155635
0.00157745
0.00151466
0.00153543
0.00147364
0.00149407
0.00143325
0.00145337
0.00139346
0.00141328
0.00135422
0.00137377
0.00131549
0.0013348
0.00127724
0.00129631
0.00123912
0.00125815
0.00122
0.00116166
0.00116205
0.00116175
0.00116182
0.00122112
0.00118265
0.00120195
0.00125947
0.00124031
0.00129761
0.00127844
0.00133615
0.00131682
0.0013752
0.00135561
0.00141478
0.00139492
0.00145494
0.00143479
0.00149572
0.00147525
0.00153715
0.00151634
0.00157925
0.00155812
0.00162209
0.00160059
0.00166561
0.00164375
0.00170988
0.00168768
0.00175485
0.00173228
0.00180047
0.00177759
0.00184666
0.00182351
0.00189326
0.00186994
0.00194024
0.00191668
0.00198757
0.00196383
0.00203575
0.00201133
0.00206301
0.0020595
0.00204247
0.00204271
0.00116255
0.00116336
0.00206527
0.00206572
0.00207599
0.00208295
0.0020864
0.00204168
0.00211267
0.00204345
0.00205237
0.00206203
0.00200806
0.00203287
0.00195949
0.00198364
0.00191208
0.00193555
0.00186529
0.00188877
0.00181921
0.00184217
0.0017736
0.00179634
0.00172857
0.00175101
0.0016842
0.0017063
0.00164053
0.00166227
0.00159754
0.00161894
0.00155525
0.00157633
0.00151367
0.00153438
0.00147274
0.00149313
0.00143243
0.00145251
0.00139271
0.0014125
0.00135353
0.00137305
0.00131486
0.00133414
0.00127666
0.00129571
0.00123877
0.00125765
0.00120095
0.00121987
0.00116284
0.00118187
0.00114303
0.0011436
0.00114332
0.00114278
0.00114278
0.00114315
0.00114288
0.00114424
0.00114364
0.00118302
0.00114509
0.00116402
0.00122111
0.0012021
0.00125911
0.00124013
0.00129715
0.00127808
0.00133564
0.00131634
0.00137463
0.00135508
0.00141415
0.00139432
0.00145424
0.00143412
0.00149493
0.00147451
0.00153627
0.00151552
0.00157827
0.00155719
0.00162098
0.00159954
0.00166438
0.00164259
0.0017085
0.00168636
0.00175329
0.00173082
0.00179872
0.00177594
0.00184468
0.00182164
0.00189103
0.00186783
0.00193756
0.00191429
0.00198411
0.00196086
0.00203086
0.00200741
0.00207776
0.00205407
0.00210576
0.00210042
0.00206627
0.00206702
0.00208754
0.00208823
0.001163
0.00114411
0.00112524
0.0011257
0.00210699
0.00210941
0.00213631
0.00206909
0.00212728
0.00212255
0.00210487
0.002067
0.00204378
0.00205855
0.00200281
0.00202525
0.00195487
0.00197877
0.00190865
0.00193174
0.00186253
0.00188558
0.00181672
0.00183957
0.00177136
0.00179398
0.00172656
0.00174889
0.00168239
0.0017044
0.00163889
0.00166056
0.00159607
0.0016174
0.00155393
0.00157492
0.00151247
0.00153312
0.00147164
0.00149198
0.00143143
0.00145146
0.00139179
0.00141154
0.0013527
0.00137218
0.0013141
0.00133334
0.00127597
0.00129498
0.00123825
0.00125706
0.0012007
0.00121942
0.0011818
0.00112421
0.00112464
0.00112438
0.00112419
0.00112424
0.00112448
0.00112434
0.00112474
0.00118318
0.00114523
0.00116442
0.00122087
0.00120203
0.00125858
0.00123975
0.00129657
0.00127753
0.00133499
0.00131572
0.00137391
0.00135439
0.00141335
0.00139356
0.00145334
0.00143327
0.00149394
0.00147357
0.00153516
0.00151447
0.00157704
0.00155602
0.0016196
0.00159824
0.00166284
0.00164114
0.00170677
0.00168473
0.00175136
0.00172899
0.00179654
0.00177388
0.00184222
0.00181933
0.00188826
0.00186521
0.00193443
0.00191135
0.00198044
0.00195749
0.00202608
0.00200343
0.00207123
0.0020481
0.0021168
0.00209469
0.00214377
0.00213782
0.00209027
0.00208985
0.00112485
0.00112624
0.00211038
0.00209179
0.00211953
0.00211126
0.00213069
0.00212859
0.00214814
0.0021435
0.00214855
0.00216422
0.00215946
0.00209029
0.0020775
0.00213066
0.0021076
0.00203812
0.00205562
0.00199684
0.00201957
0.00195076
0.00197371
0.001905
0.0019279
0.00185926
0.00188211
0.00181378
0.00183648
0.00176873
0.0017912
0.0017242
0.00174639
0.00168027
0.00170216
0.00163697
0.00165854
0.00159434
0.00161558
0.00155237
0.00157327
0.00151105
0.00153163
0.00147035
0.00149062
0.00143025
0.00145023
0.00139072
0.00141042
0.00135172
0.00137116
0.00131321
0.00133241
0.00127515
0.00129413
0.00123753
0.00125629
0.00120018
0.00121885
0.00116272
0.00118148
0.00112486
0.00114396
0.00110579
0.00110581
0.00110571
0.00110583
0.00110577
0.00110599
0.00110588
0.00110611
0.00110607
0.00110649
0.00110627
0.00110742
0.00110688
0.00114542
0.00110788
0.00112664
0.00118301
0.0011643
0.00122045
0.00120173
0.00125795
0.00123916
0.00129586
0.00127685
0.00133421
0.00131498
0.00137303
0.00135356
0.00141237
0.00139264
0.00145227
0.00143225
0.00149274
0.00147243
0.00153383
0.00151321
0.00157556
0.00155462
0.00161795
0.00159667
0.001661
0.0016394
0.00170471
0.00168278
0.00174905
0.00172681
0.00179394
0.00177143
0.0018393
0.00181658
0.00188496
0.00186211
0.00193072
0.00190785
0.00197629
0.00195356
0.00202128
0.00199893
0.00206537
0.0020434
0.00210814
0.00208714
0.00215027
0.00212852
0.00217972
0.00217143
0.00211205
0.00214644
0.00212897
0.00112487
0.00110617
0.0010886
0.00108891
0.00211231
0.00213299
0.00214681
0.00215186
0.00216874
0.00218529
0.00219857
0.0021909
0.00211248
0.00212357
0.00216441
0.00215681
0.00214127
0.00207533
0.00210118
0.00203274
0.00205232
0.00199115
0.00201336
0.00194603
0.00196856
0.00190078
0.00192344
0.0018555
0.00187813
0.00181042
0.00183292
0.00176572
0.00178802
0.00172149
0.00174354
0.00167783
0.00169959
0.00163478
0.00165623
0.00159236
0.00161349
0.00155057
0.00157139
0.00150942
0.00152992
0.00146887
0.00148907
0.00142891
0.00144882
0.00138949
0.00140914
0.0013506
0.00136999
0.00131219
0.00133134
0.00127422
0.00129315
0.00123667
0.0012554
0.00119951
0.00121805
0.00116231
0.00118091
0.00114359
0.00108721
0.0010871
0.00108714
0.0010876
0.00108745
0.00108792
0.00108777
0.001088
0.00108799
0.00108806
0.00108804
0.00108827
0.0011455
0.00110807
0.0011268
0.00118259
0.00116406
0.00121978
0.0012012
0.0012572
0.00123844
0.00129503
0.00127606
0.00133329
0.0013141
0.00137201
0.00135259
0.00141124
0.00139156
0.00145101
0.00143106
0.00149134
0.0014711
0.00153228
0.00151174
0.00157384
0.00155298
0.00161603
0.00159486
0.00165886
0.00163737
0.00170233
0.00168052
0.00174638
0.00172428
0.00179095
0.00176861
0.00183593
0.0018134
0.00188118
0.00185854
0.00192647
0.00190384
0.00197152
0.00194905
0.00201597
0.00199386
0.00205938
0.00203785
0.00210108
0.00208049
0.00214188
0.00212121
0.00218076
0.00216106
0.00216832
0.00216697
0.00220898
0.00219945
0.00213206
0.00108753
0.00108916
0.00217217
0.00213404
0.00218331
0.00215143
0.00215451
0.00217293
0.00217326
0.00219001
0.00220417
0.00221646
0.00222626
0.00221717
0.00213377
0.00214615
0.00219296
0.00218618
0.00216311
0.00211357
0.00213259
0.00207
0.00209162
0.0020269
0.00204779
0.00198499
0.00200667
0.0019407
0.0019629
0.00189605
0.00191842
0.00185129
0.00187367
0.00180666
0.00182895
0.00176234
0.00178446
0.00171846
0.00174035
0.0016751
0.00169672
0.00163231
0.00165364
0.00159013
0.00161115
0.00154855
0.00156927
0.00150759
0.001528
0.00146721
0.00148733
0.00142739
0.00144723
0.00138811
0.00140769
0.00134934
0.00136867
0.00131104
0.00133014
0.00127318
0.00129206
0.00123572
0.0012544
0.00119864
0.00121714
0.00116177
0.00118022
0.00112476
0.00114324
0.00108755
0.0011063
0.00106877
0.00106879
0.00106872
0.00106909
0.00106885
0.00106956
0.00106932
0.00106991
0.00106977
0.00106997
0.00106998
0.0010699
0.00106991
0.00106998
0.00106987
0.00107046
0.00107011
0.00110808
0.00107077
0.00108949
0.00114521
0.00112664
0.00118203
0.00116366
0.00121901
0.00120048
0.00125635
0.00123763
0.00129408
0.00127516
0.00133223
0.0013131
0.00137084
0.00135148
0.00140994
0.00139033
0.00144957
0.00142969
0.00148975
0.00146959
0.00153051
0.00151006
0.00157188
0.00155112
0.00161385
0.00159279
0.00165644
0.00163507
0.00169962
0.00167796
0.00174336
0.00172143
0.00178757
0.00176542
0.00183215
0.00180983
0.00187693
0.00185453
0.0019217
0.00189934
0.00196618
0.00194401
0.00200999
0.0019882
0.00205274
0.00203154
0.00209377
0.00207352
0.00213285
0.00211366
0.00216966
0.00215113
0.00220515
0.00218825
0.00218694
0.00218976
0.00223103
0.00221857
0.00215386
0.00215573
0.00220094
0.00221035
0.00220113
0.00217341
0.00217582
0.00108744
0.00106906
0.0010519
0.0010522
0.00219508
0.0021938
0.00220943
0.00222216
0.00223309
0.00224032
0.00221435
0.00220627
0.00221736
0.00224502
0.00223615
0.00223173
0.00215552
0.00217802
0.00218923
0.00213685
0.00215557
0.00210337
0.00212228
0.00206199
0.00208241
0.00202058
0.00204138
0.00197841
0.00199973
0.00193491
0.00195675
0.00189089
0.00191295
0.00184667
0.00186879
0.00180252
0.00182458
0.00175863
0.00178054
0.00171512
0.00173682
0.00167209
0.00169354
0.00162959
0.00165077
0.00158766
0.00160856
0.00154632
0.00156692
0.00150556
0.00152587
0.00146536
0.00148539
0.00142571
0.00144547
0.00138659
0.00140609
0.00134795
0.00136721
0.00130977
0.00132881
0.00127202
0.00129085
0.00123467
0.0012533
0.00119768
0.00121613
0.00116103
0.00117933
0.00112434
0.00114269
0.00110596
0.00105045
0.0010503
0.00105032
0.00105107
0.00105078
0.00105163
0.00105137
0.00105196
0.00105183
0.00105203
0.00105203
0.00105187
0.00105196
0.00105177
0.00105181
0.00105181
0.00110796
0.00107106
0.00108954
0.00114469
0.0011263
0.00118126
0.00116295
0.00121814
0.00119966
0.00125538
0.00123672
0.00129301
0.00127415
0.00133104
0.00131197
0.00136953
0.00135023
0.00140849
0.00138895
0.00144796
0.00142816
0.00148797
0.0014679
0.00152854
0.00150819
0.00156969
0.00154904
0.00161142
0.00159049
0.00165374
0.00163252
0.00169662
0.00167512
0.00174001
0.00171826
0.00178383
0.00176188
0.00182797
0.00180588
0.00187226
0.00185012
0.00191648
0.0018944
0.00196033
0.00193848
0.00200347
0.00198202
0.00204546
0.00202465
0.00208579
0.00206588
0.00212392
0.00210521
0.00215935
0.002142
0.00219121
0.00217601
0.00222262
0.00220498
0.00222435
0.00224605
0.00225917
0.00225698
0.00224545
0.00223044
0.00220605
0.0022119
0.00217577
0.00217714
0.00105058
0.00105229
0.00222361
0.00219523
0.00219655
0.00221469
0.00221364
0.00222807
0.00223994
0.0022478
0.00225254
0.00222959
0.00221593
0.00222515
0.00223005
0.00224163
0.00225632
0.00224033
0.00224472
0.00224478
0.00226637
0.00226617
0.00217713
0.00219544
0.00220287
0.00216395
0.00217732
0.00212773
0.0021465
0.00209277
0.00211078
0.00205373
0.00207358
0.00201315
0.00203359
0.00197148
0.00199248
0.0019287
0.0019502
0.00188532
0.00190707
0.00184168
0.00186352
0.00179804
0.00181985
0.00175459
0.00177628
0.00171148
0.00173299
0.0016688
0.00169008
0.00162661
0.00164764
0.00158497
0.00160573
0.00154387
0.00156435
0.00150334
0.00152354
0.00146334
0.00148327
0.00142388
0.00144355
0.00138491
0.00140433
0.00134643
0.00136561
0.00130838
0.00132735
0.00127076
0.00128952
0.00123352
0.00125209
0.00119663
0.00121504
0.00116009
0.00117832
0.00112372
0.00114192
0.00108736
0.0011055
0.00105061
0.00106895
0.00103211
0.00103218
0.00103209
0.00103251
0.00103218
0.00103319
0.00103284
0.00103376
0.0010335
0.00103407
0.00103394
0.00103415
0.00103414
0.00103398
0.00103409
0.0010337
0.00103387
0.0010336
0.0010336
0.00103375
0.00103366
0.00107085
0.00103391
0.00105255
0.00110759
0.00108925
0.00114393
0.00112579
0.00118039
0.00116212
0.00121718
0.00119875
0.00125432
0.00123571
0.00129182
0.00127302
0.00132973
0.00131073
0.00136807
0.00134885
0.00140688
0.00138742
0.00144618
0.00142647
0.001486
0.00146603
0.00152636
0.00150612
0.00156728
0.00154675
0.00160875
0.00158795
0.00165078
0.0016297
0.00169333
0.001672
0.00173635
0.00171479
0.00177975
0.00175801
0.00182342
0.00180157
0.00186719
0.00184531
0.00191082
0.00188904
0.00195403
0.0019325
0.00199645
0.00197537
0.00203767
0.00201725
0.00207719
0.00205769
0.0021145
0.00209618
0.00214899
0.00213216
0.00217963
0.00216489
0.0022066
0.00219379
0.00221538
0.00222281
0.00223416
0.00226266
0.00224911
0.0021972
0.00219807
0.00223509
0.002215
0.00221658
0.00105035
0.00103212
0.00101533
0.00101534
0.00223405
0.00223264
0.00224594
0.00225608
0.00226311
0.00226782
0.00223611
0.00222192
0.00223593
0.00224743
0.00225576
0.00225397
0.0022574
0.00227778
0.00227146
0.00225363
0.00226825
0.00219831
0.00220439
0.00220463
0.00218016
0.00219363
0.00214975
0.00216534
0.00211767
0.00213433
0.00208283
0.00210058
0.00204495
0.00206424
0.00200519
0.00202524
0.00196419
0.00198485
0.00192212
0.00194327
0.00187939
0.00190082
0.00183634
0.00185789
0.00179322
0.00181478
0.00175024
0.00177171
0.00170755
0.00172886
0.00166525
0.00168635
0.0016234
0.00164427
0.00158205
0.00160267
0.00154123
0.00156158
0.00150093
0.00152102
0.00146115
0.00148098
0.00142188
0.00144146
0.0013831
0.00140243
0.00134477
0.00136388
0.00130688
0.00132577
0.00126939
0.00128808
0.00123227
0.00125078
0.0011955
0.00121384
0.00115905
0.00117724
0.00112289
0.00114094
0.00108677
0.00110477
0.0010686
0.00101399
0.00101378
0.00101389
0.00101466
0.00101433
0.0010154
0.00101504
0.00101594
0.0010157
0.00101624
0.00101612
0.00101632
0.00101631
0.00101616
0.00101627
0.00101581
0.001016
0.00101542
0.00101562
0.00101529
0.00107057
0.00103398
0.00105243
0.00110698
0.00108875
0.00114308
0.00112501
0.00117945
0.00116123
0.00121613
0.00119775
0.00125315
0.0012346
0.00129052
0.00127179
0.00132829
0.00130936
0.00136648
0.00134734
0.00140512
0.00138575
0.00144424
0.00142462
0.00148386
0.00146399
0.00152399
0.00150386
0.00156466
0.00154426
0.00160585
0.00158519
0.00164756
0.00162665
0.00168976
0.00166861
0.00173239
0.00171103
0.00177535
0.00175384
0.00181853
0.00179693
0.00186174
0.00184015
0.00190476
0.0018833
0.0019473
0.00192612
0.001989
0.00196829
0.00202943
0.00200941
0.00206811
0.00204903
0.00210453
0.00208665
0.00213808
0.00212172
0.00216796
0.00215354
0.00219343
0.00218145
0.00221375
0.002204
0.00223355
0.00222493
0.00225741
0.00224327
0.00223451
0.00223928
0.00224669
0.00221718
0.00221822
0.00101373
0.00101561
0.00225481
0.0022342
0.00223578
0.00225228
0.00225071
0.00226268
0.00227146
0.00227698
0.00227886
0.00224189
0.00222503
0.00222697
0.00222661
0.00222622
0.00224603
0.00224454
0.00226041
0.00226153
0.00226956
0.00226616
0.0022857
0.00228021
0.00227137
0.00225906
0.00221848
0.00221106
0.00222084
0.00218908
0.00219301
0.00216504
0.00217972
0.00213788
0.00215196
0.00210679
0.00212282
0.00207264
0.00209007
0.00203572
0.0020545
0.00199683
0.00201647
0.00195655
0.00197685
0.00191519
0.00193599
0.00187312
0.00189422
0.00183067
0.00185193
0.0017881
0.00180939
0.00174562
0.00176684
0.00170336
0.00172446
0.00166145
0.00168236
0.00161996
0.00164065
0.00157893
0.00159939
0.00153839
0.0015586
0.00149835
0.00151831
0.0014588
0.00147852
0.00141974
0.00143921
0.00138114
0.00140039
0.00134299
0.00136202
0.00130526
0.00132407
0.00126791
0.00128654
0.00123093
0.00124938
0.00119428
0.00121256
0.00115794
0.00117607
0.00112189
0.00113988
0.00108607
0.00110395
0.00104992
0.00106798
0.00101341
0.00103185
0.00099558
0.000995042
0.000995252
0.000996163
0.000995818
0.000996919
0.000996508
0.000997659
0.000997317
0.000998171
0.000997942
0.000998467
0.000998345
0.000998546
0.000998533
0.000998408
0.000998505
0.000998059
0.000998259
0.000997556
0.000997811
0.000997253
0.000997369
0.000997394
0.000997242
0.00103385
0.000997612
0.00101579
0.00107011
0.00105206
0.00110617
0.00108816
0.00114215
0.00112413
0.00117842
0.00116025
0.00121499
0.00119667
0.00125187
0.00123339
0.00128911
0.00127045
0.00132673
0.00130788
0.00136476
0.0013457
0.00140322
0.00138394
0.00144214
0.00142263
0.00148154
0.00146178
0.00152143
0.00150143
0.00156183
0.00154157
0.00160273
0.00158222
0.00164411
0.00162336
0.00168593
0.00166497
0.00172815
0.001707
0.00177065
0.00174937
0.00181331
0.00179198
0.00185596
0.00183466
0.00189835
0.00187721
0.0019402
0.00191937
0.00198115
0.00196082
0.00202079
0.00200118
0.00205863
0.00203998
0.00209415
0.00207673
0.00212675
0.00211087
0.00215576
0.00214176
0.0021805
0.00216876
0.0022005
0.00219105
0.00221563
0.00220926
0.00221793
0.00225639
0.0022653
0.00224706
0.00223333
0.00223638
0.00223753
0.00226837
0.00225245
0.00225406
0.00101328
0.000995234
0.000979231
0.000979283
0.00226951
0.00226775
0.00227832
0.00228558
0.00228932
0.00228944
0.00222758
0.00221098
0.0022106
0.00222919
0.00224703
0.00226279
0.00227466
0.00227493
0.00228053
0.00229315
0.00228466
0.00227201
0.00225932
0.00222455
0.00223773
0.0022378
0.00220945
0.00220754
0.00219305
0.00220462
0.00217335
0.00218281
0.00215205
0.00216381
0.00212576
0.0021394
0.0020955
0.00211108
0.00206216
0.00207919
0.00202615
0.00204446
0.00198811
0.00200735
0.00194859
0.00196852
0.00190794
0.00192839
0.00186654
0.00188732
0.00182471
0.00184567
0.0017827
0.00180372
0.00174072
0.0017617
0.00169892
0.0017198
0.00165742
0.00167814
0.0016163
0.00163681
0.0015756
0.0015959
0.00153536
0.00155543
0.00149559
0.00151542
0.00145629
0.00147589
0.00141745
0.00143682
0.00137906
0.0013982
0.00134109
0.00136002
0.00130352
0.00132226
0.00126633
0.00128488
0.00122949
0.00124787
0.00119297
0.0012112
0.00115676
0.00117483
0.00112081
0.00113875
0.00108513
0.00110294
0.00104932
0.00106723
0.00103129
0.000977565
0.000976985
0.000977257
0.000978421
0.000978019
0.00097927
0.000978847
0.000979968
0.000979647
0.000980457
0.000980238
0.000980744
0.000980626
0.000980826
0.00098081
0.000980706
0.000980791
0.000980386
0.000980571
0.000979884
0.00098015
0.000979349
0.000979629
0.000979173
0.00103363
0.000997573
0.00101579
0.0010695
0.00105159
0.00110527
0.00108741
0.00114116
0.00112318
0.00117731
0.0011592
0.00121375
0.0011955
0.0012505
0.00123209
0.0012876
0.00126901
0.00132506
0.00130628
0.00136291
0.00134394
0.00140118
0.00138199
0.00143989
0.00142048
0.00147906
0.00145942
0.00151869
0.00149882
0.00155881
0.0015387
0.00159939
0.00157905
0.00164042
0.00161986
0.00168186
0.0016611
0.00172364
0.00170272
0.00176567
0.00174464
0.0018078
0.00178674
0.00184986
0.00182886
0.00189162
0.0018708
0.00193277
0.0019123
0.00197298
0.00195303
0.00201182
0.00199261
0.00204882
0.00203059
0.00208346
0.00206648
0.00211516
0.00209973
0.0021433
0.00212973
0.00216725
0.00215586
0.00218664
0.00217751
0.0022005
0.00219449
0.00220851
0.00220503
0.00221518
0.00220955
0.00222284
0.00220743
0.00220751
0.00227214
0.00228007
0.00225471
0.00225593
0.000977125
0.000979427
0.00228005
0.00226974
0.00227131
0.00228546
0.00228369
0.00229279
0.00229835
0.00230026
0.00229845
0.00221137
0.00219451
0.00218803
0.00219266
0.00218351
0.00219985
0.00220818
0.00223091
0.00224699
0.00226573
0.00227744
0.00228772
0.00228983
0.0022984
0.00228711
0.002272
0.00225528
0.00223484
0.00221506
0.00225622
0.00220088
0.00220042
0.00219225
0.00218692
0.00217618
0.00218837
0.00215975
0.0021682
0.00213894
0.00215007
0.00211334
0.00212665
0.00208396
0.00209909
0.00205145
0.00206807
0.00201631
0.00203419
0.00197911
0.00199794
0.00194034
0.0019599
0.00190041
0.0019205
0.00185969
0.00188014
0.00181848
0.00183913
0.00177704
0.00179778
0.00173558
0.00175631
0.00169425
0.00171489
0.00165318
0.00167368
0.00161244
0.00163276
0.00157209
0.00159221
0.00153216
0.00155207
0.00149267
0.00151236
0.00145363
0.0014731
0.00141503
0.00143428
0.00137685
0.00139589
0.00133907
0.00135791
0.00130168
0.00132033
0.00126466
0.00128313
0.00122797
0.00124627
0.00119159
0.00120974
0.0011555
0.00117351
0.00111967
0.00113755
0.00108409
0.00110185
0.00104861
0.00106637
0.00101298
0.00103074
0.00097697
0.000995099
0.000959202
0.000958773
0.000958945
0.000959934
0.000959493
0.000960831
0.000960376
0.00096167
0.000961269
0.000962326
0.000962022
0.000962793
0.000962583
0.00096307
0.000962956
0.000963155
0.000963137
0.000963051
0.000963127
0.000962759
0.000962928
0.000962275
0.000962541
0.000961661
0.00096197
0.000961285
0.000961424
0.000961498
0.000961298
0.000997432
0.000961509
0.00097955
0.0010332
0.0010154
0.00106877
0.00105095
0.00110432
0.00108652
0.0011401
0.00112218
0.00117613
0.00115808
0.00121243
0.00119424
0.00124904
0.0012307
0.00128598
0.00126747
0.00132327
0.00130458
0.00136093
0.00134206
0.001399
0.00137992
0.00143749
0.00141819
0.00147641
0.0014569
0.00151578
0.00149605
0.0015556
0.00153564
0.00159586
0.00157568
0.00163653
0.00161615
0.00167756
0.00165701
0.0017189
0.0016982
0.00176043
0.00173965
0.00180202
0.00178124
0.00184349
0.00182279
0.0018846
0.00186411
0.00192505
0.00190494
0.00196451
0.00194494
0.00200256
0.00198375
0.00203874
0.00202093
0.00207253
0.00205598
0.00210339
0.00208838
0.00213071
0.00211754
0.00215391
0.00214288
0.00217255
0.00216382
0.00218592
0.00218001
0.0021934
0.00219047
0.00219544
0.00219519
0.00219141
0.00228671
0.00229338
0.00219616
0.00218323
0.00227209
0.00227332
0.00229226
0.00228586
0.00228747
0.000976709
0.000958844
0.000943535
0.000943643
0.00230016
0.00229844
0.00230591
0.00230971
0.00230969
0.00230592
0.00218734
0.00217302
0.0021597
0.00217404
0.00220913
0.00222636
0.00224983
0.00226104
0.00228053
0.00229148
0.0022988
0.00230168
0.00228784
0.00227102
0.00224897
0.00223026
0.00220729
0.00217008
0.00218299
0.00227365
0.00218069
0.00216612
0.00218409
0.00218662
0.00217446
0.00217369
0.00216189
0.00217088
0.0021461
0.00215433
0.00212569
0.00213654
0.00210083
0.00211376
0.00207227
0.00208699
0.00204058
0.00205679
0.00200627
0.00202373
0.00196986
0.0019883
0.00193185
0.00195104
0.00189264
0.00191238
0.00185259
0.00187271
0.00181201
0.00183235
0.00177114
0.0017916
0.00173021
0.00175068
0.00168936
0.00170977
0.00164872
0.00166902
0.00160838
0.00162851
0.00156839
0.00158834
0.00152879
0.00154854
0.0014896
0.00150914
0.00145082
0.00147016
0.00141247
0.0014316
0.00137451
0.00139344
0.00133694
0.00135568
0.00129974
0.0013183
0.00126289
0.00128127
0.00122635
0.00124458
0.00119012
0.0012082
0.00115417
0.00117211
0.00111847
0.00113629
0.001083
0.00110071
0.00104774
0.00106535
0.00101238
0.00103001
0.000994594
0.000941443
0.00094086
0.000941128
0.000942386
0.000941924
0.000943316
0.000942861
0.000944109
0.000943734
0.00094473
0.000944441
0.000945175
0.000944975
0.000945443
0.000945331
0.000945531
0.000945509
0.00094544
0.000945507
0.000945174
0.000945329
0.000944733
0.000944976
0.000944136
0.000944447
0.000943564
0.000943855
0.000943457
0.000997239
0.000961807
0.000979488
0.00103262
0.00101489
0.00106788
0.00105023
0.00110331
0.00108557
0.00113896
0.00112111
0.00117486
0.00115688
0.00121103
0.00119291
0.00124749
0.00122922
0.00128426
0.00126583
0.00132137
0.00130277
0.00135884
0.00134006
0.00139669
0.00137772
0.00143495
0.00141577
0.00147362
0.00145423
0.00151271
0.00149311
0.00155222
0.00153241
0.00159213
0.00157213
0.00163242
0.00161224
0.00167305
0.0016527
0.00171393
0.00169347
0.00175496
0.00173444
0.001796
0.0017755
0.00183687
0.00181648
0.00187732
0.00185717
0.00191708
0.00189732
0.0019558
0.00193661
0.00199308
0.00197466
0.00202846
0.00201105
0.00206145
0.0020453
0.0020915
0.00207689
0.00211806
0.00210527
0.00214058
0.00212988
0.00215857
0.00215018
0.00217145
0.00216572
0.00217877
0.00217583
0.00218007
0.00218034
0.0021749
0.0021781
0.00216829
0.00216818
0.00215587
0.00214491
0.00215654
0.00229993
0.00230489
0.00228835
0.0022896
0.000940933
0.000943609
0.00230279
0.00230075
0.00230242
0.00231356
0.00231185
0.00231762
0.00231953
0.00231752
0.00231155
0.00214686
0.00214075
0.002133
0.00215412
0.00217387
0.00219665
0.00222704
0.00224277
0.00226523
0.00227887
0.00229363
0.00230364
0.00230299
0.00228685
0.00226724
0.00224609
0.00222177
0.00219524
0.00216821
0.00213322
0.0021392
0.00212478
0.00228997
0.00216209
0.00213997
0.00216271
0.0021571
0.00216623
0.00216702
0.00215809
0.00216202
0.00214805
0.00215427
0.00213246
0.00214074
0.0021125
0.00212306
0.00208832
0.0021009
0.00206051
0.00207485
0.00202958
0.00204541
0.00199605
0.00201312
0.00196042
0.00197848
0.00192316
0.00194197
0.00188466
0.00190404
0.00184527
0.00186506
0.00180531
0.00182535
0.00176503
0.0017852
0.00172463
0.00174484
0.00168427
0.00170444
0.00164408
0.00166415
0.00160414
0.00162408
0.00156452
0.00158429
0.00152526
0.00154485
0.00148637
0.00150577
0.00144788
0.00146708
0.00140978
0.00142878
0.00137206
0.00139087
0.0013347
0.00135333
0.0012977
0.00131616
0.00126102
0.00127932
0.00122466
0.00124281
0.00118858
0.00120659
0.00115277
0.00117065
0.0011172
0.00113496
0.00108185
0.0010995
0.00104671
0.00106426
0.0010116
0.00102912
0.000976427
0.000994067
0.000940739
0.000958663
0.000923228
0.000922776
0.000922956
0.000923982
0.000923536
0.000924934
0.000924444
0.000925841
0.000925407
0.000926588
0.000926234
0.000927177
0.000926903
0.000927601
0.000927409
0.000927859
0.000927751
0.000927949
0.000927925
0.000927872
0.000927931
0.000927631
0.000927772