/*--------------------------------*- C++ -*----------------------------------*\
  =========                 |
  \\      /  F ield         | OpenFOAM: The Open Source CFD Toolbox
   \\    /   O peration     | Website:  https://openfoam.org
    \\  /    A nd           | Version:  10
     \\/     M anipulation  |
\*---------------------------------------------------------------------------*/
FoamFile
{
    format      ascii;
    class       volScalarField;
    location    "10";
    object      p;
}
// * * * * * * * * * * * * * * * * * * * * * * * * * * * * * * * * * * * * * //

dimensions      [0 2 -2 0 0 0 0];

internalField   nonuniform List<scalar> 
28942
(
-2.51863
-2.54644
-2.87931
1.19187
1.24088
0.353261
0.275297
0.333062
-0.0512671
0.0107366
-5.68809
-5.70571
-5.6243
-5.63665
-0.0143262
-0.00710067
2.99098
3.09937
-0.691784
0.418336
2.4935
2.48701
-5.92323
-5.90276
-6.16432
-5.64881
4.11497
4.44411
-1.34697
-1.33707
-0.127775
-0.124675
0.0405756
-0.021187
1.85161
2.16369
3.56564
4.2029
0.248745
3.39827
2.14722
2.10688
0.509829
0.536935
0.578104
0.349033
0.301049
0.399455
0.364121
0.267169
0.2495
0.395473
0.385858
-0.043879
0.0303804
-4.03145
-3.27328
-5.76041
-5.64885
-5.72115
-5.77436
-5.78371
-5.79229
-2.10839
-2.63511
-1.49238
-1.08791
2.35091
2.1631
-2.44878
-2.53158
-2.63736
2.13164
2.12341
2.05774
-0.82048
-0.821096
-0.341983
-2.74676
-3.33086
-2.43148
-3.45908
-2.61621
-2.71502
0.515564
1.03046
1.49419
1.39871
0.995642
1.13992
1.36226
1.62202
-5.77676
-5.60899
-5.75495
-5.77724
-5.82909
1.52935
1.72129
-2.85362
1.28473
1.29981
1.35605
1.28876
0.545742
0.5559
0.529275
1.64427
1.68276
1.69213
-5.74729
-5.73706
-2.871
-2.84422
-2.52752
5.41823
5.06929
4.96371
5.25393
0.682217
1.52815
1.16041
-0.832001
-1.08093
5.58672
5.67919
5.47119
-0.968872
-0.610707
0.456577
0.490985
0.470514
1.89301
2.73824
1.82786
1.79294
1.99645
0.177285
1.3194
2.97075
-6.71805
-6.55782
-0.668522
0.638365
0.639934
-2.72516
-2.81995
-2.48252
-6.3413
2.01267
1.85063
0.684899
-0.0801271
-0.0924461
-0.0887934
-0.0833812
2.45839
1.7984
-4.89429
-3.9641
-3.75397
-2.30505
-1.98164
-0.0532776
-5.17532
-4.98971
2.62947
2.72982
2.92518
2.8263
2.49063
1.07175
1.05846
0.201897
0.166227
1.52604
1.46339
1.56337
1.61792
1.60745
1.66094
1.73052
1.92676
1.82044
1.72487
1.84382
2.04687
2.38385
2.45724
-1.89639
-1.00271
-2.51254
0.400286
0.445418
-4.37155
-3.82074
0.284148
0.291823
0.345019
0.32697
-0.985461
-1.0224
-1.01716
-5.75733
-5.89846
-6.17073
-5.83135
-5.83175
-5.81685
-6.0059
-6.26422
-6.08262
5.36713
5.21318
5.41045
0.587035
0.62298
0.60227
2.74009
2.64282
2.70745
-2.27439
-1.97922
-2.58716
-1.71465
-1.48363
-1.28867
-1.18616
-1.12865
-1.02356
-1.38172
-1.61421
-1.87847
-2.17392
-2.4847
-1.00046
-0.890184
-2.90773
-2.80597
-3.22747
-0.899461
-0.781987
-3.11919
-0.821
-0.765526
-0.698442
-0.636985
-3.50611
-3.39645
-0.729932
-0.593967
-3.73302
-3.62049
-0.712866
-0.568103
-3.89391
-3.77606
-0.711297
-0.556629
-3.9725
-3.85118
-0.724442
-0.558584
-3.96364
-3.83962
-0.749461
-0.571052
-3.86634
-3.74352
-0.786493
-0.593926
-3.68753
-3.56765
-0.832121
-0.623826
-3.43624
-3.32399
-0.885175
-0.66153
-3.14168
-3.03485
-0.940851
-0.705231
-2.81824
-2.72038
-1.0037
-0.751428
-2.49738
-2.40457
-1.05903
-0.796745
-2.84398
-2.52373
-2.18868
-2.10607
-3.45587
-3.16047
-3.88285
-3.70183
-3.986
-3.97956
-3.7429
-3.9055
-3.23182
-3.51362
-2.61961
-2.93167
-2.02888
-2.31175
-1.54793
-1.77239
-1.20791
-1.36017
-0.996125
-1.08909
-0.880524
-0.926747
-0.851735
-0.85622
-0.893394
-0.864792
-0.992213
-0.936373
-1.13079
-1.0586
-1.2732
-1.20426
-1.33409
-1.09202
-0.828455
-0.501565
-0.560286
-0.530067
-0.447284
-0.4721
-0.413815
-0.426899
-0.416114
-0.409899
-0.466175
-0.434361
-0.578266
-0.513517
-0.770129
-0.663071
-1.06245
-0.90253
-1.4812
-1.25669
-2.02217
-1.73758
-2.63265
-2.32665
-3.19846
-2.9263
-3.57077
-3.41907
-3.63272
-3.64343
-3.37086
-3.54051
-2.85778
-3.13767
-2.25853
-2.55927
-1.97448
-2.2188
-1.37351
-0.585455
-1.83229
-1.71629
-1.95224
-1.91339
-2.79074
-2.19061
-2.48005
-3.38701
-3.10056
-3.80071
-3.62613
-3.90224
-3.89548
-3.66585
-3.82345
-3.17792
-3.44392
-2.58564
-2.88715
-2.02245
-2.29627
-1.57009
-1.7769
-1.25598
-1.3953
-1.06746
-1.14892
-0.975528
-1.00977
-0.973852
-0.964228
-1.04704
-1.00209
-1.1835
-1.10816
-1.36237
-1.27023
-1.5416
-1.45488
-1.10117
-1.38242
-1.65955
-1.61401
-0.352162
-0.368834
-0.591788
-0.83868
-0.315703
-0.333693
-0.281372
-0.29758
-0.264927
-0.269878
-0.280255
-0.267976
-0.338666
-0.303308
-0.453615
-0.388125
-0.642347
-0.537578
-0.925712
-0.770706
-1.32557
-1.1108
-1.83576
-1.56832
-2.41161
-2.12327
-2.94791
-2.69211
-3.30235
-3.15724
-3.36252
-3.37184
-3.11915
-3.27651
-2.64125
-2.9016
-2.08038
-2.35992
-1.57597
-1.81366
-1.94155
-1.49592
-1.3705
-1.60333
-1.67604
-0.375658
-1.73994
-1.73901
-1.31829
-1.20143
-1.68649
-1.94658
-1.96632
-0.585177
-0.372667
-1.66879
-1.56685
-1.30828
-1.48078
-2.09908
-1.86915
-2.66498
-2.36808
-3.23918
-2.96444
-3.63414
-3.46729
-3.73395
-3.727
-3.51331
-3.66018
-3.05835
-3.30636
-2.50297
-2.78479
-1.97573
-2.22976
-1.56064
-1.75114
-1.28037
-1.40365
-1.12101
-1.18784
-1.05767
-1.07777
-1.08521
-1.06068
-1.19226
-1.12949
-1.37009
-1.27323
-1.59322
-1.47894
-1.81011
-1.70637
-1.89412
-1.08905
-1.657
-1.36746
-0.824719
-0.171318
-0.186724
-0.181103
-0.148623
-0.161101
-0.129624
-0.138493
-0.126094
-0.125041
-0.150222
-0.134054
-0.213128
-0.176095
-0.32751
-0.263025
-0.509447
-0.408866
-0.778993
-0.632078
-1.15168
-0.952226
-1.62383
-1.37669
-2.15398
-1.88634
-2.64961
-2.41421
-2.97695
-2.84223
-3.03324
-3.04206
-2.81077
-2.95363
-2.3815
-2.61453
-1.87534
-2.12907
-1.41937
-1.63532
-1.07501
-1.23234
-1.06537
-0.947262
-1.57328
-1.42244
-1.94653
-0.183102
-1.40412
-1.17634
-1.1392
-0.847645
-0.961112
-0.975216
-0.94782
-1.51507
-1.17581
-1.05442
-1.5373
-1.34268
-1.95337
-1.73745
-2.47628
-2.201
-3.01754
-2.7581
-3.39142
-3.23295
-3.48945
-3.48349
-3.29147
-3.42373
-2.87714
-3.10375
-2.37097
-2.62739
-1.8935
-2.12229
-1.52399
-1.69312
-1.28113
-1.38693
-1.15331
-1.20443
-1.12078
-1.12566
-1.17948
-1.13898
-1.32377
-1.24133
-1.54599
-1.42627
-1.81494
-1.67796
-2.0694
-1.94845
-2.22476
-2.16387
-2.22173
-2.24609
-1.60334
-2.15803
-1.89015
-1.05022
-1.32111
-0.566991
-0.797834
-0.171373
-0.357039
-0.0208424
-0.0094749
-0.01863
-0.013675
-0.018149
-0.00123967
-0.00857488
0.00793971
0.00461114
0.0021271
0.00747332
-0.0278834
-0.0092504
-0.0923803
-0.0551653
-0.202989
-0.141125
-0.374628
-0.28011
-0.625308
-0.489088
-0.966957
-0.784621
-1.39416
-1.17123
-1.87082
-1.63009
-2.31672
-2.10487
-2.61158
-2.49005
-2.66441
-2.6714
-2.46522
-2.59277
-2.08541
-2.2912
-1.64369
-1.86485
-1.24283
-1.43328
-0.935602
-1.07759
-0.725341
-0.818461
-0.771916
-0.653424
-1.4292
-1.28738
-1.2515
-1.07112
-2.48241
-2.40778
-0.151656
-6.60806e-05
-1.07069
-0.883151
-0.964874
-0.904647
-0.716007
-0.59995
-0.897648
-1.38026
-1.04929
-0.94899
-1.37489
-1.1951
-1.77235
-1.56874
-2.24486
-1.99677
-2.73805
-2.50021
-3.08293
-2.9369
-3.17913
-3.16715
-3.00924
-3.12455
-2.64239
-2.8436
-2.19438
-2.42093
-1.77635
-1.97598
-1.4581
-1.60278
-1.25612
-1.3429
-1.16167
-1.19642
-1.16157
-1.1503
-1.25388
-1.19612
-1.43761
-1.33458
-1.7046
-1.56205
-2.01864
-1.85952
-2.3065
-2.17157
-2.48215
-2.41201
-2.50673
-1.52054
-2.05129
-1.78799
-0.995776
-1.25414
-0.534456
-0.755921
-0.332471
0.121654
0.128059
0.123946
0.122709
0.121846
0.128897
0.125741
0.130372
0.130832
0.118497
0.126524
0.0855617
0.105207
0.0220664
0.058242
-0.0826139
-0.0244171
-0.241627
-0.154408
-0.470046
-0.346374
-0.776707
-0.613613
-1.15479
-0.958087
-1.57427
-1.36252
-1.96598
-1.7798
-2.22518
-2.11842
-2.27376
-2.27809
-2.10154
-2.2125
-1.77276
-1.95107
-1.3918
-1.58164
-1.04889
-1.21228
-0.780145
-0.904625
-0.593214
-0.676972
-0.474793
-0.526509
-0.562554
-0.439263
-1.29827
-1.18159
-2.28974
0.139286
-1.13738
-0.997498
-1.03411
-0.995784
-0.829163
-0.906364
-0.924155
-0.993536
-0.680919
-0.543441
-0.417313
-1.26735
-0.820298
-0.813887
-0.813624
-0.926016
-0.852274
-1.20143
-1.04511
-1.56316
-1.37704
-1.98245
-1.76379
-2.4188
-2.20759
-2.72735
-2.59683
-2.82018
-2.79938
-2.6807
-2.77788
-2.36586
-2.53893
-1.98166
-2.17555
-1.62764
-1.79603
-1.36368
-1.48261
-1.205
-1.27149
-1.1459
-1.16348
-1.17951
-1.15143
-1.30643
-1.23102
-1.52914
-1.40597
-1.83912
-1.67477
-2.19483
-2.01562
-2.51454
-2.36514
-2.70593
-2.63142
-2.70443
-2.73142
-2.49622
-2.62577
-1.90746
-2.32693
-2.13316
-1.41279
-1.663
-0.924204
-1.16266
-0.492685
-0.700843
-0.128298
-0.30029
0.154065
0.0215125
0.248854
0.267928
0.256905
0.241746
0.243721
0.24092
0.240489
0.242417
0.241887
0.238738
0.241622
0.2235
0.232942
0.18969
0.209411
0.128867
0.163182
0.031816
0.0854935
-0.112972
-0.033824
-0.317794
-0.207302
-0.588202
-0.444985
-0.91611
-0.746085
-1.27663
-1.09483
-1.61278
-1.45297
-1.8364
-1.74401
-1.87978
-1.88245
-1.73521
-1.82884
-1.45804
-1.60817
-1.13359
-1.29567
-0.843109
-0.98119
-0.615347
-0.721044
-0.451549
-0.525956
-0.343166
-0.390476
-0.287533
-0.309106
-0.409705
-0.27644
-1.18429
-0.829822
-1.07609
-2.66842
-2.49356
0.173128
0.280329
-1.09989
-0.942042
-1.0313
-0.796618
-0.663754
-0.538808
-0.413114
-0.275835
-1.17211
-0.697729
-0.872086
-0.755393
-0.714682
-0.712299
-0.700783
-0.795324
-0.738916
-1.02153
-0.890969
-1.33663
-1.17312
-1.69942
-1.51157
-2.07551
-1.89276
-2.34678
-2.23102
-2.43451
-2.41361
-2.32313
-2.40235
-2.06188
-2.20578
-1.74343
-1.90378
-1.45421
-1.59103
-1.2451
-1.33809
-1.13039
-1.17611
-1.10746
-1.10759
-1.17447
-1.12983
-1.33481
-1.24249
-1.5941
-1.45213
-1.94343
-1.75932
-2.3359
-2.1391
-2.68344
-2.52158
-2.88865
-2.80916
-2.88596
-2.9145
-2.80274
-1.73984
-2.13403
-1.94685
-1.28618
-1.51739
-0.840456
-1.0587
-0.439615
-0.633639
-0.0970219
-0.25967
0.0467396
0.350566
0.363493
0.356535
0.343469
0.345999
0.341951
0.342395
0.340393
0.341518
0.333773
0.338007
0.317117
0.327048
0.284078
0.303088
0.227268
0.259096
0.138828
0.187532
0.0090804
0.0797658
-0.171719
-0.0745393
-0.406297
-0.282609
-0.68563
-0.541367
-0.989054
-0.83633
-1.27116
-1.13702
-1.46034
-1.38169
-1.49809
-1.49999
-1.38022
-1.45637
-1.15209
-1.27566
-0.882639
-1.01824
-0.637361
-0.753869
-0.446896
-0.535063
-0.307704
-0.371649
-0.210889
-0.253997
-0.156126
-0.178775
-0.137875
-0.142848
-1.03144
-0.963985
-0.284583
-0.142187
-1.1077
-2.2889
0.373035
-0.821276
-1.03923
-0.939689
-1.0558
-0.909756
-1.05698
-0.784859
-0.666741
-0.549707
-0.428983
-0.303228
-0.152599
-1.09948
-0.623167
-0.911055
-0.769217
-0.685204
-0.573555
-0.587379
-0.585741
-0.574182
-0.659112
-0.61246
-0.837777
-0.733875
-1.10268
-0.963599
-1.40945
-1.25142
-1.72542
-1.5714
-1.95822
-1.85794
-2.03896
-2.01854
-1.95389
-2.01592
-1.74504
-1.86033
-1.49085
-1.6185
-1.26435
-1.37065
-1.1083
-1.1762
-1.03615
-1.06172
-1.04811
-1.03152
-1.14635
-1.0863
-1.33741
-1.22962
-1.62938
-1.47076
-2.01244
-1.81157
-2.4353
-2.22403
-2.80506
-2.63338
-3.02121
-2.9376
-3.01564
-3.04821
-2.79128
-2.92932
-2.39433
-2.61001
-1.92158
-2.15851
-2.06065
-1.56161
-1.75022
-1.15281
-1.35942
-0.748716
-0.948061
-0.377691
-0.557662
-0.0599115
-0.211254
0.193895
0.0752895
0.385292
0.296907
0.44605
0.461987
0.452793
0.435083
0.440048
0.430289
0.432321
0.427857
0.428923
0.424608
0.426583
0.416755
0.421484
0.400058
0.409836
0.368795
0.38663
0.316773
0.345748
0.237464
0.28098
0.122746
0.185054
-0.0347869
0.0495716
-0.235476
-0.130167
-0.46955
-0.349247
-0.71986
-0.594193
-0.951701
-0.841397
-1.10809
-1.04285
-1.14157
-1.14179
-1.04714
-1.10829
-0.863678
-0.963297
-0.646049
-0.755853
-0.442218
-0.539828
-0.282095
-0.356157
-0.165371
-0.219014
-0.0823118
-0.119992
-0.0288492
-0.0519517
-0.00474363
-0.0132601
-0.00901791
-0.0038242
-1.10946
-1.03923
-0.171258
-0.0205546
-1.0721
-1.00336
-0.875223
-1.02541
-1.03066
-1.06361
-0.898768
-2.45149
-2.21595
0.400145
0.472648
-1.11495
-0.793016
-0.686788
-0.576107
-0.458444
-0.331625
-1.00617
-0.833956
-0.978874
-0.199544
-0.0390232
-1.16899
-1.05952
-0.619588
-0.715764
-0.487389
-0.542741
-0.438707
-0.454327
-0.448776
-0.436961
-0.513591
-0.473884
-0.654829
-0.57296
-0.870393
-0.75611
-1.1228
-0.993194
-1.38189
-1.25528
-1.5767
-1.49201
-1.64947
-1.62956
-1.58839
-1.63459
-1.42844
-1.517
-1.23421
-1.3314
-1.06589
-1.14392
-0.958971
-1.00364
-0.926013
-0.933063
-0.96982
-0.93806
-1.09598
-1.02222
-1.31385
-1.19268
-1.63299
-1.46071
-2.04248
-1.82866
-2.48781
-2.266
-2.87303
-2.69464
-3.09586
-3.01007
-3.09124
-3.12335
-2.85537
-2.99827
-2.66943
-1.69918
-1.91757
-1.82499
-1.37931
-1.54839
-1.0179
-1.201
-0.651905
-0.833651
-0.310871
-0.476494
-0.0184075
-0.157745
0.21775
0.107141
0.315233
0.514884
0.526852
0.520611
0.506922
0.510139
0.503175
0.504734
0.500618
0.501898
0.496769
0.499027
0.488816
0.493506
0.472953
0.482171
0.44414
0.460481
0.397359
0.423292
0.32726
0.365602
0.227126
0.281365
0.0914064
0.163836
-0.0784774
0.010229
-0.272116
-0.173181
-0.475028
-0.373536
-0.661592
-0.572825
-0.788044
-0.735151
-0.817636
-0.816007
-0.744539
-0.792636
-0.599399
-0.678293
-0.426709
-0.513762
-0.262288
-0.341874
-0.127902
-0.190564
-0.0286745
-0.0742132
0.0422558
0.00977026
0.092033
0.069628
0.120885
0.109284
0.127138
0.126919
0.108169
0.119954
-1.16939
-0.0640151
-0.234402
-0.0932787
0.0701347
0.0909229
-1.21718
-1.13511
-1.0694
-0.992642
-1.9734
0.534418
-1.15003
-1.09683
-0.910924
-1.20564
-0.821478
-0.725044
-0.620037
-0.502517
-0.373147
-1.15357
-0.919826
-1.10159
0.214585
0.195422
0.0441127
-1.36673
-1.36414
-1.35005
-0.278954
-0.126931
-1.05107
-0.649552
-0.770768
-0.466293
-0.548031
-0.354509
-0.402676
-0.305809
-0.322406
-0.310142
-0.302332
-0.362466
-0.329733
-0.474649
-0.410267
-0.646286
-0.554708
-0.84903
-0.745194
-1.05623
-0.954739
-1.2153
-1.14548
-1.27951
-1.26048
-1.23927
-1.27155
-1.12288
-1.18757
-0.98214
-1.05216
-0.865507
-0.918467
-0.802096
-0.826203
-0.803617
-0.794411
-0.875228
-0.830261
-1.02516
-0.939822
-1.2648
-1.13294
-1.60429
-1.42202
-2.03164
-1.80934
-2.49031
-2.26249
-2.88324
-2.70172
-3.10818
-3.02199
-3.10082
-3.13495
-2.86216
-3.00718
-2.45987
-2.6757
-1.98528
-2.22544
-1.68239
-1.7482
-1.73374
-1.48389
-1.59642
-1.20279
-1.34969
-0.88409
-1.04682
-0.553026
-0.718039
-0.242016
-0.393242
0.0261444
-0.101785
0.244944
0.141726
0.41597
0.336196
0.543831
0.48434
0.581935
0.594063
0.587273
0.572831
0.577356
0.567369
0.569689
0.564464
0.565742
0.56217
0.563372
0.558508
0.560642
0.551154
0.555479
0.536603
0.545042
0.510594
0.525279
0.4692
0.492054
0.408032
0.441407
0.321568
0.368288
0.20578
0.267378
0.0632032
0.137299
-0.0954969
-0.0149493
-0.257749
-0.176994
-0.405331
-0.335151
-0.505612
-0.463584
-0.530667
-0.528187
-0.476397
-0.512718
-0.363675
-0.42519
-0.227988
-0.296483
-0.0982232
-0.161302
0.0122907
-0.0400325
0.0977452
0.0581905
0.160393
0.131508
0.206271
0.185184
0.237308
0.223733
0.251653
0.246848
0.244079
0.250748
0.231709
-1.35042
-1.2562
0.020497
0.176533
-1.09156
-1.00813
-1.30047
-1.16134
-0.947463
-1.95726
-1.72849
0.553453
0.602381
-1.32935
-0.871518
-0.783683
-0.681651
-0.563089
-0.427723
-1.30632
-1.01975
-1.19733
-1.51976
-1.60443
-1.59651
-1.56909
-0.330494
-0.166769
0.158693
-0.00493195
-1.06953
-0.695763
-0.84601
-0.472259
-0.573988
-0.316196
-0.386421
-0.220981
-0.261777
-0.177296
-0.193221
-0.176369
-0.171839
-0.216641
-0.191156
-0.303323
-0.253732
-0.436368
-0.365058
-0.594977
-0.513863
-0.756487
-0.677242
-0.883191
-0.826917
-0.938917
-0.921073
-0.91583
-0.936458
-0.836486
-0.880834
-0.741407
-0.788243
-0.668766
-0.700418
-0.64223
-0.648917
-0.672811
-0.649937
-0.767594
-0.711677
-0.936463
-0.84207
-1.192
-1.05256
-1.54422
-1.35603
-1.98011
-1.75414
-2.4424
-2.21335
-2.83496
-2.65401
-3.05782
-2.97271
-3.04939
-3.08379
-2.81346
-2.95684
-2.41785
-2.62914
-2.19052
-1.45833
-1.52231
-1.50623
-1.28066
-1.38167
-1.03719
-1.1647
-0.753922
-0.899522
-0.455274
-0.604327
-0.17339
-0.310671
0.0718089
-0.0454813
0.273049
0.177923
0.432462
0.357892
0.497131
0.628672
0.637678
0.632903
0.621841
0.624956
0.618068
0.619611
0.616055
0.616952
0.614283
0.615227
0.611269
0.613042
0.604855
0.608667
0.591822
0.599384
0.568764
0.581731
0.532681
0.552538
0.479953
0.508664
0.406064
0.445908
0.30806
0.360068
0.189035
0.250626
0.0596641
0.124847
-0.0687522
-0.00525664
-0.183864
-0.12916
-0.26242
-0.22943
-0.28291
-0.279946
-0.243347
-0.270151
-0.157832
-0.204808
-0.0523466
-0.105902
0.0497793
9.46431e-05
0.138776
0.0960909
0.211957
0.177465
0.269012
0.24235
0.312605
0.292329
0.344351
0.329977
0.362921
0.355503
0.364475
0.366104
0.343906
0.357419
0.312919
0.328327
0.144468
0.285957
0.298461
-1.52288
-1.42161
-1.1434
-1.05169
-1.51023
0.644214
-1.48956
-1.26148
-1.0086
-1.48813
-0.945447
-0.863376
-0.761581
-0.63737
-0.491569
-1.35245
-1.02236
-1.117
0.407534
0.399507
0.278691
-1.46922
-1.70707
-1.8349
-1.85782
-1.8259
-0.383398
-0.202888
-0.0256715
0.134201
-1.11738
-0.743981
-0.890567
-0.47596
-0.597557
-0.295704
-0.378278
-0.171567
-0.227335
-0.0933047
-0.127286
-0.0518714
-0.0682683
-0.0464735
-0.0446453
-0.0762949
-0.0570171
-0.142552
-0.104714
-0.243695
-0.189436
-0.364739
-0.30287
-0.48761
-0.427276
-0.585987
-0.541781
-0.63355
-0.617104
-0.624001
-0.635306
-0.574798
-0.60255
-0.517032
-0.544927
-0.480246
-0.494556
-0.483607
-0.47618
-0.537571
-0.503745
-0.650518
-0.586114
-0.83311
-0.732358
-1.09829
-0.95457
-1.45537
-1.26541
-1.89033
-1.66556
-2.34669
-2.12109
-2.73116
-2.5543
-2.94804
-2.86535
-2.93999
-2.97323
-2.71269
-2.85083
-2.33286
-2.53563
-1.89307
-2.11472
-1.46951
-1.67661
-1.31461
-1.27799
-1.30736
-1.25305
-1.29698
-1.09597
-1.18278
-0.883969
-0.996091
-0.630184
-0.760991
-0.361528
-0.495657
-0.106821
-0.231112
0.11687
0.00957348
0.301828
0.214277
0.449407
0.380052
0.564515
0.510814
0.651266
0.611089
0.675394
0.685925
0.680186
0.668128
0.671438
0.663066
0.665064
0.660687
0.661662
0.659532
0.660037
0.658478
0.659053
0.65632
0.657645
0.650919
0.654194
0.639459
0.646117
0.619366
0.630624
0.588357
0.605382
0.543401
0.567842
0.480856
0.514523
0.39852
0.442136
0.299477
0.350571
0.193996
0.24676
0.0927962
0.14239
0.00411634
0.0461833
-0.0567847
-0.0311194
-0.073711
-0.0694574
-0.0451062
-0.0648287
0.0189343
-0.0164043
0.100076
0.0585395
0.181039
0.14143
0.252775
0.218174
0.314653
0.284929
0.366724
0.341917
0.408956
0.389068
0.441104
0.426347
0.461647
0.452984
0.467844
0.466754
0.456012
0.464381
0.431973
0.444623
0.418706
-1.73384
-1.6243
0.276645
0.39647
-1.22692
-1.1216
-1.71956
-1.39748
-1.09731
-1.40427
-1.22778
0.658819
0.691898
-1.68613
-1.04408
-0.964722
-0.858001
-0.722318
-0.560814
-1.16102
-0.816609
-0.811867
-1.14994
-1.52112
-1.83501
-2.03875
-2.12115
-2.10639
-0.431013
-0.232132
-0.0396268
0.13119
0.397232
0.278911
-1.19317
-0.706339
-0.781982
-0.489995
-0.60506
-0.281004
-0.377744
-0.138679
-0.203303
-0.0378498
-0.0838029
0.0287899
-0.000455762
0.0643928
0.0502237
0.0728685
0.0718354
0.0545509
0.0672745
0.00642174
0.0342718
-0.0690569
-0.0284808
-0.159643
-0.113382
-0.251237
-0.206241
-0.32595
-0.292033
-0.365977
-0.351052
-0.366578
-0.370749
-0.340876
-0.355653
-0.312303
-0.325387
-0.303463
-0.304277
-0.329938
-0.311622
-0.401678
-0.359598
-0.5277
-0.457322
-0.718772
-0.614355
-0.987446
-0.842671
-1.34175
-1.15404
-1.76697
-1.54791
-2.20855
-1.9907
-2.57806
-2.40834
-2.78559
-2.70649
-2.77944
-2.81018
-2.56632
-2.6959
-2.20923
-2.40029
-1.79678
-2.00441
-1.59506
-1.12811
-1.10555
-1.12687
-1.06809
-1.10985
-0.932108
-1.00711
-0.743771
-0.84415
-0.515365
-0.633039
-0.273895
-0.394503
-0.0436973
-0.156272
0.160393
0.0622337
0.330832
0.249985
0.467668
0.403183
0.575994
0.525179
0.62033
0.707451
0.715317
0.711205
0.701626
0.704272
0.698113
0.699556
0.696667
0.697187
0.69628
0.6964
0.696041
0.696194
0.69472
0.695626
0.690253
0.693026
0.680339
0.686102
0.663128
0.672741
0.636826
0.651247
0.598889
0.61949
0.546415
0.574621
0.47772
0.514067
0.395543
0.437862
0.309244
0.352163
0.229158
0.267994
0.161196
0.193294
0.113716
0.134182
0.0994203
0.100313
0.120885
0.106214
0.168933
0.142356
0.230916
0.198954
0.295432
0.263475
0.354602
0.325921
0.407085
0.381573
0.454007
0.431248
0.494518
0.475175
0.52663
0.511763
0.548017
0.538813
0.556287
0.553944
0.549785
0.554824
0.532911
0.542144
0.51318
0.523084
0.499818
0.504715
0.395795
0.490201
0.495727
-1.98281
-1.8704
-1.34596
-1.22207
-1.06765
0.720828
-1.98912
-1.57451
-1.21421
-1.92419
-1.16828
-1.0861
-0.967453
-0.812977
-0.629663
-0.755374
-0.46484
-0.383659
0.568751
0.556958
0.481797
-0.665981
-1.08537
-1.50289
-1.88424
-2.17748
-2.34817
-2.3886
-0.467889
-0.247951
-0.0434977
0.135362
0.28074
0.391563
-1.30217
-0.525546
-0.512318
-0.423945
-0.488828
-0.258907
-0.345707
-0.103034
-0.17568
0.00862131
-0.0422226
0.0879913
0.0516419
0.142311
0.118128
0.174046
0.160838
0.184388
0.181925
0.17299
0.181425
0.139233
0.158925
0.0849671
0.114252
0.0192628
0.052822
-0.047236
-0.0145034
-0.102874
-0.0773149
-0.136078
-0.122806
-0.143789
-0.142782
-0.135611
-0.140685
-0.128873
-0.130893
-0.140801
-0.131608
-0.184197
-0.157955
-0.268468
-0.220672
-0.40272
-0.328768
-0.597327
-0.491774
-0.863803
-0.720942
-1.2085
-1.0266
-1.6163
-1.40684
-2.03547
-1.82911
-2.38436
-2.22424
-2.58025
-2.50543
-2.57707
-2.6043
-2.38251
-2.50099
-2.0546
-2.23016
-1.67704
-1.86698
-1.31897
-1.49224
-1.012
-1.15876
-0.95452
-0.87998
-0.924511
-0.965701
-0.9682
-0.907974
-0.945495
-0.787907
-0.854665
-0.617348
-0.708406
-0.411159
-0.517197
-0.193623
-0.302369
0.0150674
-0.0872036
0.201741
0.111733
0.359284
0.284346
0.486836
0.426637
0.587949
0.540405
0.666924
0.630136
0.72682
0.69885
0.741462
0.75106
0.7459
0.734638
0.737635
0.730391
0.732135
0.727842
0.728814
0.727148
0.727301
0.72748
0.727225
0.727998
0.727781
0.727357
0.72793
0.723693
0.726019
0.715275
0.720164
0.700799
0.708868
0.678775
0.690845
0.647088
0.66428
0.603455
0.626885
0.546503
0.576627
0.478418
0.513474
0.407386
0.442578
0.343393
0.374077
0.291274
0.315695
0.255118
0.270754
0.24382
0.245265
0.259044
0.248432
0.295212
0.275053
0.342947
0.318214
0.394399
0.368573
0.444255
0.41979
0.489873
0.467582
0.531894
0.511297
0.569818
0.5515
0.601015
0.586456
0.622419
0.613112
0.631609
0.628646
0.628179
0.631317
0.616157
0.622885
0.601835
0.608692
0.587733
0.594796
0.578637
-2.26244
-2.15584
0.470264
0.544008
-1.50555
-1.35447
-2.28268
-1.79458
-1.36062
-0.942639
-0.823831
0.73348
0.756782
-2.19827
-1.31629
-1.22318
-1.08355
-0.90199
-0.690742
-0.279742
-0.0591662
0.0326698
-0.172825
-0.546594
-0.969444
-1.41852
-1.85175
-2.23046
-2.50686
-2.62954
-0.48834
-0.251107
-0.0376455
0.142233
0.281031
0.382727
0.529955
0.457402
-1.44784
-0.214727
-0.141333
-0.266714
-0.26212
-0.1748
-0.22945
-0.0562566
-0.1166
0.0530924
0.00124353
0.137886
0.0985623
0.2008
0.171775
0.245161
0.225197
0.272484
0.260847
0.284286
0.280264
0.280441
0.284446
0.258814
0.271918
0.220702
0.241458
0.173784
0.197747
0.126355
0.149731
0.0853298
0.104546
0.058277
0.069875
0.0459904
0.0505156
0.0417372
0.0435794
0.0329017
0.0387606
0.00633808
0.0225509
-0.0486082
-0.017028
-0.140735
-0.0894931
-0.27885
-0.20349
-0.47257
-0.36813
-0.731908
-0.593521
-1.06132
-0.888169
-1.44548
-1.24875
-1.83652
-1.64438
-2.16042
-2.01181
-2.34326
-2.27309
-2.344
-2.36696
-2.17106
-2.27676
-1.87763
-2.03473
-1.5397
-1.70969
-1.21829
-1.3739
-1.0741
-0.822524
-0.763949
-0.800207
-0.825225
-0.831193
-0.771217
-0.805362
-0.661544
-0.722847
-0.50523
-0.588447
-0.318309
-0.414279
-0.121238
-0.219858
0.0689708
-0.0244172
0.24047
0.157592
0.386613
0.316908
0.505976
0.44956
0.600753
0.556152
0.675677
0.640522
0.706526
0.763986
0.772204
0.767832
0.758173
0.760647
0.755235
0.756242
0.753103
0.753755
0.753087
0.752916
0.754074
0.753504
0.755159
0.754676
0.754988
0.75533
0.752011
0.753935
0.745029
0.749077
0.733078
0.73974
0.714854
0.724848
0.688636
0.702853
0.652668
0.671965
0.605825
0.630602
0.549638
0.578613
0.490753
0.519922
0.438643
0.463374
0.398357
0.416941
0.37164
0.383144
0.362315
0.364326
0.373489
0.365556
0.40091
0.385501
0.438446
0.418853
0.480031
0.458995
0.522335
0.501252
0.56294
0.542957
0.600899
0.582252
0.635683
0.618787
0.664975
0.651217
0.685549
0.676537
0.69502
0.69174
0.693737
0.695536
0.685485
0.690206
0.6741
0.679983
0.658729
0.667266
0.63506
0.647629
0.606433
0.620667
0.512743
0.574208
0.591156
-2.55821
-2.4708
-1.70754
-1.52078
-0.718985
0.777137
-2.57758
-2.05766
-1.53518
-2.49791
-1.48272
-1.36804
-1.19686
-0.98043
-0.737067
0.125257
0.276607
0.356184
0.208228
-0.060436
-0.406053
-0.823142
-1.28135
-1.75787
-2.19846
-2.57973
-2.79946
-0.49047
-0.240811
-0.0247986
0.147367
0.276408
0.370548
0.440911
0.627826
0.55531
0.609975
-1.6323
0.120607
0.202268
-0.000975646
0.0492174
-0.0304922
-0.0307689
0.0340446
-0.00430439
0.114152
0.0740991
0.191028
0.153645
0.254784
0.224937
0.30303
0.28067
0.338439
0.322223
0.362023
0.351692
0.374071
0.369476
0.374537
0.375789
0.362221
0.370076
0.337251
0.35108
0.305133
0.321629
0.272122
0.288455
0.242697
0.25675
0.220426
0.230568
0.205505
0.212232
0.19293
0.199439
0.173565
0.184739
0.137342
0.158139
0.075307
0.110059
-0.0206842
0.0320561
-0.158913
-0.0840055
-0.348
-0.246561
-0.596188
-0.464322
-0.905985
-0.743775
-1.26212
-1.08029
-1.6212
-1.44507
-1.91739
-1.78154
-2.08648
-2.02095
-2.09179
-2.1101
-1.94246
-2.03419
-1.68632
-1.82358
-1.39061
-1.53946
-1.10761
-1.24519
-0.86496
-0.98113
-0.66598
-0.759235
-0.665155
-0.583936
-0.628119
-0.710193
-0.69319
-0.706715
-0.714392
-0.65461
-0.68707
-0.551662
-0.609064
-0.407369
-0.483853
-0.236739
-0.324256
-0.0567647
-0.146915
0.117825
0.0319729
0.276317
0.199575
0.412502
0.347395
0.524666
0.471548
0.614227
0.572052
0.685107
0.65174
0.74066
0.7147
0.782977
0.76308
0.790587
0.800314
0.795156
0.783317
0.786691
0.778359
0.780596
0.774934
0.776602
0.774654
0.774753
0.775297
0.77484
0.776764
0.775974
0.778176
0.77755
0.778279
0.778471
0.775925
0.777465
0.770313
0.773568
0.76064
0.766045
0.745748
0.753927
0.724273
0.735915
0.694875
0.710638
0.656629
0.676864
0.6105
0.634346
0.561531
0.585871
0.518146
0.538639
0.486143
0.500605
0.466539
0.474789
0.459696
0.461384
0.467879
0.461891
0.48918
0.477162
0.5193
0.503422
0.55385
0.536258
0.59004
0.57183
0.626368
0.608295
0.661068
0.644017
0.692718
0.677368
0.719376
0.706834
0.738348
0.729981
0.747767
0.744277
0.748401
0.749016
0.742893
0.746284
0.732147
0.738222
0.714558
0.724335
0.689793
0.702879
0.660738
0.675535
0.644659
-2.83941
-2.78329
0.493511
-1.95306
-1.7206
-2.84019
-2.35616
-1.73149
-0.605999
-0.533836
0.789213
0.806111
-2.80357
-1.65831
-1.50868
-1.296
-1.03887
-0.76233
0.430967
0.537185
0.598106
0.536108
0.591007
0.503579
0.302925
0.0450193
-0.269476
-0.659019
-1.11287
-1.60711
-2.1044
-2.56404
-2.88224
-0.474162
-0.21977
-0.0105525
0.149446
0.267053
0.354408
0.420965
-1.85611
0.402789
0.471887
0.27065
0.334932
0.187351
0.219146
0.172213
0.172257
0.206922
0.185132
0.258954
0.232566
0.310336
0.285092
0.355511
0.333965
0.392019
0.374834
0.420291
0.407152
0.440565
0.431427
0.452927
0.447726
0.457277
0.456146
0.452259
0.456069
0.43715
0.445812
0.415935
0.426956
0.393522
0.404656
0.3726
0.382879
0.354227
0.363052
0.338051
0.34602
0.320272
0.329731
0.294252
0.308769
0.252247
0.275722
0.186677
0.222867
0.090068
0.142717
-0.0452091
0.0277264
-0.226658
-0.129722
-0.460691
-0.33685
-0.747966
-0.598124
-1.07354
-0.907806
-1.39874
-1.23949
-1.66626
-1.54348
-1.82092
-1.76024
-1.83185
-1.84486
-1.70661
-1.78409
-1.48863
-1.6056
-1.23571
-1.36325
-0.99253
-1.11102
-0.780751
-0.88231
-0.688444
-0.581328
-0.513271
-0.551299
-0.615259
-0.60318
-0.607633
-0.61681
-0.555275
-0.587327
-0.457214
-0.511484
-0.323084
-0.393902
-0.165841
-0.246444
9.61416e-05
-0.083078
0.161677
0.0821247
0.309186
0.237644
0.436831
0.375688
0.542749
0.492489
0.627867
0.587751
0.695139
0.663493
0.748161
0.723337
0.770121
0.806878
0.815698
0.811067
0.800247
0.803208
0.795961
0.797853
0.793538
0.794545
0.793307
0.793231
0.794371
0.793715
0.796084
0.795194
0.797577
0.796923
0.797842
0.797921
0.796093
0.797254
0.791758
0.794287
0.784086
0.788396
0.772068
0.778685
0.754647
0.764094
0.730822
0.74359
0.699867
0.716247
0.662309
0.681782
0.621663
0.641996
0.584853
0.602299
0.558162
0.570039
0.543146
0.549243
0.539232
0.539842
0.546003
0.541259
0.563007
0.553341
0.587756
0.574627
0.617132
0.602041
0.648645
0.632728
0.680957
0.664767
0.712544
0.696977
0.741239
0.727382
0.765045
0.753872
0.782122
0.774519
0.79147
0.787757
0.793667
0.793387
0.789369
0.792354
0.777775
0.784541
0.758789
0.769126
0.734344
0.74708
0.706301
0.720771
0.674326
0.690705
0.639463
0.657283
0.597197
0.571708
0.619538
-3.07707
-3.05685
0.47403
-2.23501
-1.94686
-0.471243
0.820952
-3.03809
0.517674
-2.6721
-1.93894
0.553961
-3.09406
-1.82812
-1.63091
-1.36892
-1.06959
-0.763071
0.654067
0.572609
0.389952
0.150833
-0.136656
-0.49363
-0.924429
-1.41622
-1.94091
-2.44867
-2.86893
-0.442844
-0.193802
0.00132162
0.146377
0.253933
0.335874
0.400855
-2.11191
0.720113
0.704183
0.811603
0.762901
0.624824
0.676624
0.507146
0.568049
0.408892
0.453988
0.350994
0.374058
0.335016
0.338939
0.348516
0.338534
0.378554
0.362633
0.411686
0.395088
0.443177
0.427859
0.470323
0.457364
0.492548
0.482044
0.509774
0.501809
0.521689
0.516401
0.528222
0.525642
0.528479
0.52925
0.521166
0.525743
0.508243
0.515155
0.49363
0.500953
0.47882
0.486439
0.46359
0.471263
0.447079
0.455633
0.426324
0.437497
0.39649
0.412897
0.351589
0.376312
0.285174
0.321482
0.190451
0.241777
0.0604996
0.130287
-0.111061
-0.0197345
-0.328916
-0.21407
-0.592104
-0.455334
-0.886215
-0.736951
-1.17732
-1.035
-1.41645
-1.30654
-1.55683
-1.5012
-1.57363
-1.58127
-1.47217
-1.53571
-1.29176
-1.38873
-1.08085
-1.18741
-0.875525
-0.97614
-0.693942
-0.781119
-0.542942
-0.614279
-0.425454
-0.480103
-0.454809
-0.378816
-0.418464
-0.511648
-0.486521
-0.536799
-0.528466
-0.524759
-0.535794
-0.471158
-0.503273
-0.377063
-0.428705
-0.251252
-0.317479
-0.104735
-0.179799
0.0498374
-0.0276662
0.200737
0.126374
0.33912
0.271912
0.459586
0.401787
0.560164
0.512362
0.641443
0.603096
0.705708
0.675507
0.756386
0.73252
0.796093
0.777519
0.826939
0.812437
0.829377
0.839649
0.834226
0.821124
0.825
0.815154
0.817867
0.811368
0.813006
0.809525
0.810218
0.8095
0.809326
0.810709
0.809991
0.812432
0.811558
0.81385
0.813231
0.814245
0.814211
0.813103
0.813894
0.809921
0.811805
0.803976
0.807346
0.794415
0.799697