/*--------------------------------*- C++ -*----------------------------------*\
  =========                 |
  \\      /  F ield         | OpenFOAM: The Open Source CFD Toolbox
   \\    /   O peration     | Website:  https://openfoam.org
    \\  /    A nd           | Version:  10
     \\/     M anipulation  |
\*---------------------------------------------------------------------------*/
FoamFile
{
    format      ascii;
    class       volVectorField;
    location    "34.5";
    object      U;
}
// * * * * * * * * * * * * * * * * * * * * * * * * * * * * * * * * * * * * * //

dimensions      [0 1 -1 0 0 0 0];

internalField   nonuniform List<vector> 
25879
(
(1.07654 -0.00435783 2.90031e-21)
(1.07357 -0.00206569 -4.73164e-21)
(1.07284 -0.00467109 8.47793e-21)
(1.07529 -0.00605506 -8.17887e-21)
(1.16334 -0.587924 3.72086e-22)
(1.14141 -0.564046 -2.87595e-21)
(1.33689 0.0439248 0)
(1.32299 0.0569013 -1.42112e-20)
(1.2946 0.0526704 0)
(1.29514 0.0369272 0)
(1.44601 0.0734551 -6.08347e-21)
(1.40165 0.0602098 1.80324e-20)
(1.49778 0.0888125 -1.37498e-19)
(-0.0506861 -0.0725872 1.71624e-20)
(-0.00271402 -0.123987 -2.61325e-20)
(1.07612 0.539411 -1.35894e-20)
(1.1429 0.692043 2.80669e-21)
(1.21687 -0.63791 2.51768e-20)
(1.35232 -0.600525 -9.59685e-21)
(0.466477 -0.0636966 6.72623e-20)
(0.452035 -0.214785 3.11253e-19)
(0.402667 0.813424 -4.47009e-20)
(0.695577 0.703922 5.85271e-20)
(1.03705 0.0418416 5.98049e-21)
(1.04248 0.0466091 7.46478e-21)
(1.03646 0.045757 3.44796e-22)
(1.03006 0.0384987 -5.98743e-23)
(1.03423 0.0349152 -7.80644e-21)
(1.03027 0.0348989 -1.07351e-20)
(1.03973 0.0393133 -4.34827e-21)
(1.04552 0.0442511 5.05134e-20)
(0.0192986 0.0428624 3.73011e-20)
(0.00146162 0.0399823 -1.54326e-20)
(-0.0493065 0.0228876 2.40171e-20)
(0.878185 0.268876 -3.96446e-21)
(1.02445 0.275516 -5.09668e-22)
(1.04064 0.291589 4.76474e-22)
(1.24299 0.143518 -1.62735e-21)
(1.26772 0.150171 -2.16337e-20)
(1.72904 0.208462 -9.7757e-20)
(1.60899 0.169652 -1.25726e-20)
(1.51175 0.184099 -1.55407e-20)
(0.975186 -0.213993 -1.86663e-20)
(0.96904 -0.191976 0)
(0.968885 -0.173496 -1.2974e-21)
(1.38815 -0.276633 0)
(1.40115 -0.265652 1.69559e-20)
(0.337809 0.0147983 1.3774e-19)
(0.751731 0.00828881 7.30536e-21)
(0.877433 0.0416213 0)
(1.14438 -0.412226 5.61409e-21)
(1.15104 -0.368872 -1.52357e-20)
(0.929361 0.293208 -1.8382e-19)
(1.18105 0.467573 0)
(0.600592 0.00546366 -3.934e-22)
(0.588748 0.00399041 0)
(0.628129 0.0060087 6.44145e-22)
(0.870033 0.270815 -8.37038e-20)
(0.861295 0.247614 8.24745e-20)
(0.906183 0.220166 -1.56613e-19)
(0.914854 0.258398 1.44691e-19)
(0.933694 0.384829 1.27922e-21)
(0.941921 0.312045 -5.31498e-21)
(0.738629 -0.00747523 -1.85784e-22)
(0.79982 -0.00836276 1.10076e-21)
(0.759739 -0.00634371 -7.99883e-22)
(-0.0863096 -0.0218566 1.49991e-21)
(-0.0657702 -0.0407262 0)
(-0.0077042 0.0313591 0)
(-0.0640778 0.243421 8.61982e-20)
(0.0375511 0.128872 -2.4801e-19)
(1.00643 0.0290812 1.77399e-20)
(1.01029 0.0408411 0)
(1.01354 0.0447242 -9.51041e-21)
(1.06504 -0.109848 4.0092e-20)
(1.0192 -0.123822 0)
(1.00433 -0.0844086 1.57572e-20)
(1.06643 -0.00525619 0)
(1.06495 -0.00926536 5.80365e-21)
(1.06817 -0.00781872 5.7563e-21)
(0.952538 -0.20164 0)
(0.959018 -0.231872 4.67748e-20)
(0.33308 0.304334 6.22406e-20)
(0.517819 0.243389 3.20236e-19)
(0.449597 0.442502 0)
(0.998618 -0.0143062 1.367e-20)
(1.0002 -0.0190036 -1.28111e-20)
(1.00488 -0.0221103 0)
(1.11541 0.0175762 2.88359e-22)
(1.10785 0.0144741 -8.66665e-24)
(0.423901 -0.134375 -2.11674e-19)
(0.690166 -0.218119 2.61851e-19)
(0.277265 -0.00508807 5.5542e-20)
(1.04215 0.0385941 2.05313e-20)
(1.03771 0.0341902 -6.06348e-22)
(1.22357 -0.562575 1.98012e-20)
(1.20881 -0.583128 -7.81566e-21)
(1.17673 -0.558927 2.9644e-21)
(0.960406 0.288186 -6.35453e-21)
(0.938331 0.277367 -2.26499e-22)
(0.930275 0.301559 5.74509e-22)
(0.901442 0.29588 2.44064e-21)
(1.11856 0.0251652 1.84688e-22)
(1.12439 0.0264601 -9.77098e-23)
(1.12349 0.0199179 -1.99225e-24)
(1.07192 -0.0804328 6.6948e-21)
(1.05409 -0.0654469 -1.97437e-21)
(1.14294 -0.477719 -3.51335e-20)
(1.04765 -0.610162 2.64203e-20)
(1.0669 0.30055 -9.71749e-23)
(1.08922 0.311024 9.02847e-23)
(1.1113 -0.0271813 -2.38148e-21)
(1.11088 -0.0233102 0)
(1.08395 -0.000851924 4.19566e-21)
(1.07933 -0.00122389 -5.40058e-21)
(1.08074 0.171046 -1.50404e-21)
(1.09444 0.180826 1.66171e-21)
(1.41703 0.0337069 2.30045e-20)
(1.30038 0.247093 -1.17061e-20)
(1.26334 0.217447 1.7937e-20)
(1.25264 0.187366 -3.07624e-20)
(1.43629 -0.228489 -2.28648e-21)
(1.43503 -0.216585 0)
(1.51617 0.269489 -4.97172e-20)
(1.49355 0.246157 1.11823e-19)
(0.857839 -0.20953 -1.20607e-19)
(1.11231 -0.215322 0)
(-0.237521 -0.147294 -1.66275e-20)
(-0.186289 -0.199332 0)
(-0.132266 -0.119472 0)
(-0.132502 0.0107946 -8.22299e-20)
(-0.0786888 -0.00169502 1.58533e-19)
(0.906477 -0.0342185 0)
(0.918398 -0.0518771 1.02046e-19)
(0.93313 -0.0333714 3.15882e-20)
(0.925057 -0.0216536 -2.61013e-20)
(1.07112 -0.00568735 -1.28888e-20)
(1.06956 -0.00362106 7.93388e-21)
(1.31708 0.030692 -1.65054e-20)
(0.607711 -0.00664899 -1.24558e-22)
(1.04254 0.545284 -2.7721e-20)
(1.0306 0.541739 0)
(1.03755 0.544004 -3.26627e-21)
(1.03836 0.542593 0)
(1.04102 0.542886 0)
(1.04099 0.539669 7.63035e-21)
(1.04129 0.540359 -1.12395e-22)
(1.04093 0.542942 -1.59784e-20)
(1.03974 0.548083 7.87112e-21)
(1.03794 0.555151 -8.21362e-21)
(1.03521 0.563609 -3.08195e-22)
(1.03147 0.572589 8.52535e-21)
(1.02656 0.581217 0)
(1.02013 0.587958 -1.02828e-20)
(1.01214 0.591171 1.01691e-20)
(1.00227 0.588215 0)
(0.990766 0.576703 1.32308e-20)
(0.977606 0.553362 -1.33789e-20)
(0.963507 0.516174 1.57923e-20)
(0.948842 0.46279 -3.32308e-20)
(0.934712 0.393308 3.53279e-20)
(0.921601 0.308019 -3.79248e-20)
(0.910427 0.209848 1.92437e-20)
(0.901243 0.101858 0)
(0.894678 -0.0114602 0)
(0.890634 -0.124899 2.0123e-20)
(0.889348 -0.233348 -7.9722e-22)
(0.891019 -0.331198 -1.93177e-20)
(0.896137 -0.415575 -1.67688e-20)
(0.903765 -0.482941 1.69535e-20)
(0.913494 -0.53369 -1.40823e-20)
(0.924227 -0.566585 1.46604e-20)
(0.936161 -0.584651 -7.67478e-22)
(0.948208 -0.589861 0)
(0.961489 -0.589062 0)
(0.972757 -0.584923 -2.2048e-21)
(0.983042 -0.584194 -1.27824e-20)
(0.948513 -0.573733 0)
(0.963311 -0.570747 3.87311e-21)
(0.984619 -0.596505 -2.62267e-21)
(1.01595 0.541707 3.10327e-21)
(1.00972 0.532671 -1.57003e-21)
(1.02871 0.535349 0)
(0.992093 -0.595565 0)
(0.966325 -0.602227 0)
(0.9759 -0.600366 4.87376e-21)
(0.948575 -0.582613 1.4437e-20)
(0.957378 -0.598303 7.5297e-22)
(0.933513 -0.503818 -1.51621e-21)
(0.940732 -0.552242 -3.02618e-20)
(0.925001 -0.354219 0)
(0.928278 -0.438122 1.73728e-20)
(0.926054 -0.145614 -4.37617e-20)
(0.924546 -0.255796 2.08924e-20)
(0.935612 0.0866567 2.18959e-20)
(0.930035 -0.0299707 2.14106e-20)
(0.952714 0.301629 2.00909e-20)
(0.943349 0.198732 -2.11665e-20)
(0.976115 0.465097 0)
(0.964045 0.391509 -1.94224e-20)
(1.00052 0.560999 0)
(0.988724 0.521693 0)
(1.02042 0.597179 1.19506e-20)
(1.01138 0.585471 0)
(1.03336 0.595639 1.00943e-20)
(1.02786 0.599723 -1.15537e-20)
(1.03984 0.578074 -8.88848e-21)
(1.03736 0.587832 -9.75905e-21)
(1.04158 0.558474 -8.25712e-21)
(1.04123 0.567979 8.5932e-21)
(1.03998 0.544163 -8.10322e-21)
(1.04115 0.550266 7.9799e-21)
(1.03531 0.539412 -8.38269e-21)
(1.03794 0.540025 7.73213e-21)
(1.02706 0.542463 0)
(1.03163 0.539713 8.23909e-21)
(1.02193 0.543301 -2.54556e-22)
(1.05194 0.541961 0)
(1.0585 0.543807 1.54991e-20)
(1.05223 0.545243 0)
(1.0468 0.53841 7.83391e-21)
(1.04837 0.538819 -8.02112e-21)
(1.04057 0.543286 2.36268e-22)
(1.04366 0.539467 4.80677e-25)
(1.03157 0.556281 1.59388e-20)
(1.03649 0.548944 -7.61588e-21)
(1.01868 0.571534 0)
(1.02574 0.563894 -7.8331e-21)
(1.00014 0.579871 0)
(1.01017 0.577106 0)
(0.9748 0.566134 1.21793e-20)
(0.988212 0.576686 0)
(0.943706 0.510432 1.44568e-20)
(0.959626 0.544544 -1.18052e-20)
(0.911073 0.396584 1.67048e-20)
(0.927025 0.461285 -1.40129e-20)
(0.8829 0.223413 0)
(0.895855 0.317045 -1.61923e-20)
(0.863769 0.00984497 -1.87095e-20)
(0.87182 0.120536 0)
(0.85766 -0.207663 5.45493e-22)
(0.858299 -0.0999097 1.86794e-20)
(0.867753 -0.389576 1.64158e-20)
(0.860562 -0.304013 -1.58864e-20)
(0.889099 -0.51072 -2.77874e-20)
(0.877016 -0.457631 1.36708e-20)
(0.916997 -0.565706 3.5062e-22)
(0.901996 -0.545337 1.28933e-20)
(0.932514 -0.573544 0)
(1.04457 0.539604 -3.45526e-21)
(1.02495 0.521523 -1.68629e-23)
(1.00325 0.517165 -8.4964e-22)
(0.998131 -0.598208 4.40244e-21)
(0.993813 -0.590544 -7.42424e-21)
(1.00264 -0.60214 -3.35078e-21)
(1.00184 -0.603325 0)
(1.00336 -0.606289 4.38838e-21)
(0.975708 -0.568536 -4.68112e-24)
(0.93696 -0.555119 4.35565e-21)
(0.953828 -0.554231 -1.21972e-20)
(1.07516 0.541469 7.908e-21)
(1.06228 0.538471 9.52492e-21)
(1.081 0.53548 -3.0227e-21)
(1.06467 0.524837 -7.02641e-21)
(1.04451 0.525012 2.67191e-21)
(0.995378 -0.602098 -5.00602e-21)
(0.999847 -0.600749 2.43983e-21)
(0.98498 -0.608961 -7.31209e-22)
(0.99016 -0.606259 2.82614e-21)
(0.974579 -0.591203 0)
(0.979617 -0.60599 0)
(0.966175 -0.514233 4.71074e-21)
(0.969831 -0.561568 -1.51129e-23)
(0.963332 -0.365516 -5.46898e-21)
(0.963737 -0.448768 -4.52278e-21)
(0.966776 -0.157361 0)
(0.964336 -0.266921 5.25124e-21)
(0.974452 0.0764581 0)
(0.969822 -0.041108 0)
(0.988576 0.296125 0)
(0.980583 0.190701 0)
(1.00783 0.465271 5.02329e-21)
(0.997714 0.388895 -4.82397e-21)
(1.02717 0.564802 4.21361e-21)
(1.01778 0.523918 -4.04632e-21)
(1.04148 0.601674 3.44807e-21)
(1.0351 0.589808 -3.3111e-21)
(1.04878 0.598931 0)
(1.04595 0.603665 0)
(1.04991 0.579607 0)
(1.04998 0.5902 0)
(1.04666 0.558393 2.16335e-21)
(1.04871 0.568677 -2.07737e-21)
(1.04035 0.542435 0)
(1.04386 0.549507 0)
(1.0309 0.535612 1.01955e-21)
(1.03605 0.537842 0)
(1.01816 0.536861 0)
(1.02484 0.535952 0)
(1.00337 0.53332 -2.78271e-21)
(1.01098 0.53666 2.50124e-21)
(0.985238 0.508936 0)
(0.994616 0.525095 1.51558e-21)
(1.06374 0.539214 2.1228e-21)
(1.06797 0.542616 -2.21596e-21)
(1.0537 0.534687 -3.92656e-21)
(1.05805 0.536105 3.9402e-21)
(1.04256 0.537523 -2.42633e-22)
(1.04808 0.534686 -1.12025e-25)
(1.02913 0.547705 3.81647e-21)
(1.03622 0.541833 -3.63266e-21)
(1.01186 0.559822 4.03029e-21)
(1.02114 0.553956 -3.8362e-21)
(0.988998 0.565009 4.49093e-21)
(1.00129 0.56402 -4.27468e-21)
(0.959452 0.54934 5.21509e-21)
(0.975112 0.560893 -4.96404e-21)
(0.924377 0.494812 6.17861e-21)
(0.942458 0.528103 -5.88127e-21)
(0.888026 0.386544 7.26163e-21)
(0.906038 0.447969 -6.9123e-21)
(0.856582 0.222765 8.22305e-21)
(0.871345 0.31101 -7.82758e-21)
(0.835976 0.0206382 8.75641e-21)
(0.844653 0.124624 -8.33532e-21)
(0.831349 -0.186811 3.63865e-21)
(0.831498 -0.0850486 -5.46221e-22)
(0.843139 -0.362915 4.23574e-21)
(0.835532 -0.280862 -4.50626e-21)
(0.866955 -0.484372 -1.94472e-22)
(0.853906 -0.431739 -3.09974e-21)
(0.899741 -0.543106 -3.50478e-22)
(0.882477 -0.521486 0)
(0.91831 -0.552988 0)
(0.991858 -0.580465 2.37475e-21)
(1.08642 0.521926 1.79071e-21)
(1.00087 -0.59728 -2.26161e-21)
(0.97516 0.484037 -1.82105e-21)
(0.967978 0.49969 1.27388e-21)
(0.956088 0.473607 -1.92354e-22)
(1.00492 -0.611839 0)
(1.00323 -0.614015 -8.35691e-23)
(0.969868 -0.553865 -1.85183e-21)
(0.98559 -0.557678 -2.07241e-21)
(0.987512 -0.569337 9.10926e-21)
(1.02045 0.497805 -3.627e-22)
(0.996107 0.492366 -2.34922e-22)
(1.06747 0.501025 1.79681e-21)
(1.04357 0.501243 1.78855e-22)
(1.00659 -0.601827 5.82527e-22)
(1.00161 -0.612576 -2.0524e-21)
(1.00459 -0.60568 1.01442e-21)
(1.00615 -0.603766 1.50272e-22)
(1.00697 -0.601318 0)
(1.00337 -0.610787 7.5212e-22)
(1.00463 -0.608143 -3.35079e-22)
(1.00102 -0.592036 0)
(1.00199 -0.60724 0)
(1.00065 -0.514239 0)
(1.00044 -0.56194 0)
(1.00389 -0.364874 0)
(1.00179 -0.448372 0)
(1.00951 -0.156647 0)
(1.00656 -0.26638 0)
(1.01686 0.0781499 0)
(1.01274 -0.0401264 0)
(1.02897 0.300496 0)
(1.02238 0.193553 0)
(1.04407 0.471547 0)
(1.03642 0.394509 0)
(1.05748 0.570346 0)
(1.05133 0.530195 0)
(1.06503 0.604589 0)
(1.06214 0.594195 0)
(1.06571 0.598943 0)
(1.06618 0.605089 0)
(1.06087 0.577381 0)
(1.06386 0.588982 0)
(1.05237 0.554685 0)
(1.05698 0.565613 0)
(1.04129 0.537538 0)
(1.04714 0.545141 0)
(1.02738 0.529198 -1.02732e-21)
(1.03476 0.532061 0)
(1.01018 0.528367 0)
(1.01911 0.528197 5.05037e-22)
(0.990346 0.524817 0)
(1.00057 0.527899 1.74623e-23)
(0.979474 0.516204 3.58549e-22)
(1.09129 0.53687 -2.65721e-21)
(1.1083 0.517829 7.57694e-22)
(1.09951 0.531177 -2.21568e-21)
(1.07556 0.534236 3.52657e-22)
(1.08258 0.537177 -2.81714e-22)
(1.06065 0.529143 0)
(1.06764 0.53121 -4.94785e-25)
(1.04513 0.53061 0)
(1.05278 0.528661 1.13923e-25)
(1.02754 0.538633 0)
(1.03664 0.533905 0)
(1.00616 0.547773 0)
(1.01745 0.543444 0)
(0.979236 0.549366 0)
(0.993524 0.550164 0)
(0.945781 0.530406 0)
(0.963338 0.543414 0)
(0.907134 0.474531 0)
(0.926916 0.508072 0)
(0.867723 0.368358 0)
(0.887145 0.42819 0)
(0.834102 0.210388 0)
(0.849744 0.295272 0)
(0.812995 0.0167892 0)
(0.821594 0.11632 0)
(0.80909 -0.181118 0)
(0.808736 -0.0839261 0)
(0.822216 -0.35 0)
(0.813701 -0.270984 0)
(0.849 -0.466003 1.97656e-22)
(0.834032 -0.415739 0)
(0.886306 -0.521097 -1.17599e-21)
(0.866546 -0.500662 0)
(0.927938 -0.53417 -2.64368e-22)
(0.907142 -0.530958 1.13668e-21)
(0.966296 -0.538572 5.46257e-21)
(0.947442 -0.536029 2.29597e-22)
(1.00164 -0.623005 5.26384e-22)
(0.996935 -0.620755 1.49063e-21)
(1.09237 0.499057 0)
(1.00013 -0.588881 -1.63042e-21)
(0.965626 0.448808 8.25866e-22)
(0.944063 0.437287 -1.6778e-21)
(1.00685 -0.606816 0)
(1.00651 -0.62204 -2.1868e-21)
(0.983775 -0.543357 -3.7353e-21)
(1.0001 -0.565831 -1.86908e-21)
(1.1292 0.510403 2.16713e-21)
(0.998934 -0.633263 0)
(0.991108 -0.629487 -4.62242e-22)
(1.11713 0.494934 6.76569e-21)
(1.13999 0.488663 -6.82895e-21)
(1.0002 -0.551859 3.45744e-21)
(1.00036 -0.578413 0)
(1.015 0.46355 4.91132e-22)
(0.988421 0.457672 1.15405e-21)
(1.06921 0.467312 0)
(1.04183 0.466938 -5.9487e-23)
(1.12639 0.461225 0)
(1.09798 0.465056 0)
(1.00015 -0.607517 0)
(0.983757 -0.622258 1.40616e-21)
(0.992838 -0.614612 -8.80487e-22)
(1.01062 -0.59823 1.52904e-21)
(1.00584 -0.601558 -2.04057e-21)
(1.01698 -0.601964 -7.19165e-22)
(1.01433 -0.598479 5.64225e-22)
(1.0216 -0.609738 0)
(1.01917 -0.606939 0)
(1.0277 -0.590421 0)
(1.0244 -0.605924 0)
(1.03548 -0.511831 0)
(1.03136 -0.559969 0)
(1.04456 -0.361538 0)
(1.03995 -0.445456 0)
(1.05319 -0.152593 0)
(1.049 -0.26271 0)
(1.06179 0.0839287 0)
(1.05738 -0.0353417 0)
(1.07199 0.308114 0)
(1.06671 0.200409 0)
(1.08236 0.478833 0)
(1.0774 0.402316 0)
(1.08904 0.574738 0)
(1.08642 0.536282 0)
(1.08918 0.605058 0)
(1.09 0.596631 0)
(1.08286 0.596094 0)
(1.08673 0.603764 0)
(1.07193 0.572355 0)
(1.07784 0.584912 0)
(1.05822 0.548324 0)
(1.06535 0.559859 0)
(1.04256 0.530019 0)
(1.05064 0.538263 0)
(1.02447 0.520089 0)
(1.03389 0.523934 0)
(1.00302 0.517677 0)
(1.01419 0.518315 0)
(0.978618 0.512691 0)
(0.991139 0.516584 -1.71513e-23)
(0.952605 0.486986 -7.61602e-22)
(0.965818 0.503505 -2.99853e-22)
(0.925226 0.424749 3.18633e-21)
(0.939084 0.461077 0)
(1.107 0.528343 5.8962e-22)
(1.11763 0.523102 -7.08633e-22)
(1.0868 0.525994 0)
(1.09663 0.528419 -5.78483e-22)
(1.0675 0.520876 0)
(1.0769 0.52305 0)
(1.04803 0.521657 0)
(1.05772 0.520255 0)
(1.0267 0.528126 0)
(1.03764 0.524324 0)
(1.00169 0.534759 0)
(1.01477 0.531811 0)
(0.971268 0.533054 0)
(0.987272 0.535584 0)
(0.934574 0.510823 0)
(0.953708 0.525407 0)
(0.89308 0.453195 0)
(0.914235 0.487352 0)
(0.85132 0.348291 0)
(0.871856 0.407082 0)
(0.816107 0.195341 0)
(0.832433 0.277285 0)
(0.794577 0.0101042 0)
(0.803242 0.105165 0)
(0.791123 -0.178249 0)
(0.790475 -0.0857122 0)
(0.805562 -0.338864 0)
(0.796239 -0.263772 0)
(0.835227 -0.447968 0)
(0.818633 -0.400933 0)
(0.876259 -0.498883 0)
(0.854666 -0.480121 0)
(0.921377 -0.512347 -8.84829e-22)
(0.89876 -0.50819 0)
(0.962862 -0.520441 -4.16519e-22)
(0.942702 -0.515437 1.06034e-21)
(0.999796 -0.535654 0)
(0.982074 -0.526644 -1.70606e-21)
(0.983402 -0.637704 -3.08666e-21)
(0.972792 -0.628285 2.31779e-21)
(1.01627 -0.562286 -5.17876e-21)
(1.01789 -0.546059 -6.04554e-21)
(1.00907 -0.599114 -5.84451e-22)
(1.01413 -0.577014 1.85914e-21)
(1.15241 0.455456 -7.20424e-21)
(1.01174 -0.618383 0)
(0.911668 0.379257 8.82556e-22)
(0.909166 0.411309 -1.51117e-21)
(0.894661 0.36603 7.38781e-22)
(1.00716 -0.633766 2.09077e-21)
(0.994578 -0.643637 -2.14783e-21)
(1.03299 -0.575148 5.79507e-23)
(0.973474 -0.644099 1.79337e-21)
(0.959444 -0.632005 9.37522e-23)
(1.03691 -0.557994 4.85048e-21)
(1.01158 -0.589414 4.99929e-22)
(0.955192 0.402418 -1.8892e-21)
(0.932171 0.391393 1.78008e-21)
(1.00972 0.417518 -5.08683e-22)
(0.980573 0.411192 0)
(1.07 0.422377 -2.09348e-21)
(1.0394 0.421587 0)
(1.13307 0.416919 -1.05748e-21)
(1.10167 0.421061 3.1781e-21)
(0.9772 -0.611646 -1.22906e-21)
(0.946478 -0.617003 1.56757e-21)
(0.963369 -0.615593 3.7591e-22)
(0.999137 -0.599393 0)
(0.988977 -0.605478 9.42594e-22)
(1.01521 -0.592012 0)
(1.00764 -0.594512 0)
(1.02814 -0.597082 0)
(1.02202 -0.593012 0)
(1.0401 -0.605037 0)
(1.03394 -0.602347 0)
(1.05413 -0.58501 0)
(1.04682 -0.600883 0)
(1.06966 -0.505797 0)
(1.06179 -0.554202 0)
(1.08485 -0.355718 0)
(1.07745 -0.439356 0)
(1.09746 -0.147858 0)
(1.09157 -0.257397 0)
(1.10735 0.0882437 0)
(1.10269 -0.030975 0)
(1.11559 0.312177 0)
(1.11171 0.204673 0)
(1.12109 0.481495 0)
(1.11888 0.405885 0)
(1.12094 0.574457 0)
(1.1219 0.53762 0)
(1.11359 0.601401 0)
(1.11815 0.594618 0)
(1.10025 0.589858 0)
(1.10752 0.598676 0)
(1.08334 0.564583 0)
(1.09211 0.577794 0)
(1.0646 0.539652 0)
(1.07414 0.55159 0)
(1.04459 0.520463 0)
(1.05477 0.529179 0)
(1.0226 0.509089 0)
(1.03394 0.513718 0)
(0.997324 0.504911 0)
(1.01042 0.506436 0)
(0.968778 0.498513 -3.94451e-24)
(0.983443 0.50304 3.94868e-24)
(0.938904 0.472314 -3.19512e-23)
(0.953816 0.488848 2.68934e-23)
(0.923929 0.446491 -3.23422e-22)
(1.14924 0.499436 -1.41724e-21)
(1.17599 0.448031 8.64485e-21)
(1.16172 0.478917 -3.06338e-21)
(1.12266 0.51634 -1.37912e-22)
(1.135 0.51147 -1.6176e-22)
(1.09769 0.514633 0)
(1.10965 0.516834 0)
(1.07428 0.509988 0)
(1.08572 0.512034 0)
(1.0512 0.51048 0)
(1.06273 0.50942 0)
(1.02655 0.515693 0)
(1.03915 0.512689 0)
(0.998406 0.520104 0)
(1.01302 0.5184 0)
(0.965073 0.51543 0)
(0.982483 0.519516 0)
(0.925824 0.490294 0)
(0.946178 0.50626 0)
(0.882208 0.431242 0)
(0.904366 0.465847 0)
(0.838789 0.327872 0)
(0.860092 0.385475 0)
(0.802524 0.180229 0)
(0.819286 0.259063 0)
(0.780687 0.00354627 0)
(0.789417 0.0940502 0)
(0.777573 -0.175223 0)
(0.776684 -0.0874189 0)
(0.793242 -0.327101 0)
(0.783136 -0.256216 0)
(0.825606 -0.429007 0)
(0.80749 -0.385298 0)
(0.869912 -0.475835 0)
(0.846728 -0.458588 0)
(0.917109 -0.489346 0)
(0.893734 -0.484737 0)
(0.960059 -0.499355 0)
(0.939264 -0.493597 0)
(0.998773 -0.517005 6.8048e-22)
(0.979632 -0.507238 0)
(1.03873 -0.539664 0)
(1.01826 -0.527974 2.83391e-21)
(0.943319 -0.631253 -8.06039e-22)
(0.927455 -0.61228 9.57059e-22)
(1.05613 -0.572172 0)
(1.05973 -0.55302 0)
(1.16242 0.41221 0)
(1.01729 -0.611832 -4.52528e-22)
(1.02809 -0.590079 0)
(0.899021 0.323881 3.82282e-22)
(0.881008 0.3112 1.39449e-21)
(1.01571 -0.631572 5.25586e-22)
(1.04985 -0.59022 9.61927e-22)
(1.00634 -0.646243 5.04931e-22)
(0.988016 -0.652783 -8.84193e-22)
(0.960546 -0.646713 0)
(1.19798 0.437164 -1.66008e-21)
(1.07542 -0.589513 -3.79967e-21)
(0.923667 -0.623149 -3.01935e-21)
(0.904798 -0.600514 -2.21217e-21)
(1.08101 -0.568049 -8.14184e-22)
(1.18829 0.405633 0)
(1.21085 0.397968 5.34757e-21)
(1.02293 -0.602509 -7.38157e-22)
(0.945512 0.345726 0)
(0.920486 0.335181 1.16697e-22)
(1.00342 0.360512 2.64482e-22)
(0.972902 0.354436 -2.72561e-22)
(1.07006 0.366808 1.40032e-22)
(1.0362 0.364498 0)
(1.13894 0.362993 0)
(1.10452 0.365922 -1.42479e-22)
(1.20077 0.352299 8.02478e-21)
(1.17156 0.358023 -4.14027e-21)
(0.935598 -0.598685 -7.88145e-22)
(0.88858 -0.575667 -7.49928e-22)
(0.913616 -0.590628 4.07737e-23)
(0.971566 -0.597746 -2.35305e-23)
(0.954905 -0.599984 0)
(0.998836 -0.588465 0)
(0.986016 -0.593308 -5.15726e-22)
(1.0206 -0.583055 4.0011e-22)
(1.01027 -0.584567 -4.87875e-22)
(1.03945 -0.589199 0)
(1.03021 -0.584788 0)
(1.0584 -0.596598 0)
(1.0487 -0.594389 0)
(1.07979 -0.575475 0)
(1.06876 -0.591842 0)
(1.10267 -0.4961 0)
(1.09119 -0.544404 0)
(1.12407 -0.34749 0)
(1.11379 -0.430192 0)
(1.14083 -0.141885 0)
(1.13317 -0.250317 0)
(1.15211 0.0924669 0)
(1.14711 -0.0259816 0)
(1.15872 0.314985 0)
(1.15604 0.208233 0)
(1.15963 0.481782 0)
(1.16006 0.407637 0)
(1.15266 0.570914 0)
(1.15722 0.536076 0)
(1.13776 0.594222 0)
(1.14609 0.58913 0)
(1.11746 0.580383 0)
(1.12808 0.590163 0)
(1.09473 0.554048 0)
(1.10626 0.567675 0)
(1.0712 0.528624 0)
(1.08302 0.540781 0)
(1.04713 0.508839 0)
(1.05926 0.517912 0)
(1.02155 0.496212 0)
(1.03463 0.501571 0)
(0.992873 0.490255 0)
(1.00769 0.49268 0)
(0.960928 0.482585 4.61756e-22)
(0.977292 0.487591 -4.55497e-22)
(0.927421 0.455703 -2.54453e-22)
(0.944147 0.472628 3.00311e-22)
(0.895598 0.395745 0)
(0.911289 0.430422 -1.3951e-22)
(0.866369 0.29864 -3.19328e-21)
(0.880451 0.351413 -6.36446e-22)
(1.16745 0.48596 -6.1561e-22)
(1.182 0.466579 1.49709e-21)
(1.13695 0.502253 1.38309e-22)
(1.15157 0.49732 7.54819e-22)
(1.10794 0.501197 0)
(1.12193 0.502879 0)
(1.08089 0.497192 0)
(1.0941 0.498958 0)
(1.05458 0.497521 0)
(1.06771 0.496704 0)
(1.02702 0.50156 0)
(1.04106 0.499311 0)
(0.996191 0.503843 0)
(1.01212 0.503333 0)
(0.960465 0.49636 0)
(0.979022 0.501909 0)
(0.919233 0.468558 0)
(0.940516 0.485769 0)
(0.874111 0.408377 0)
(0.896958 0.443262 0)
(0.829677 0.306898 0)
(0.851422 0.363109 0)
(0.792916 0.164977 0)
(0.809859 0.240477 0)
(0.771005 -0.00285904 0)
(0.779731 0.0829539 0)
(0.768123 -0.171719 0)
(0.767067 -0.0888688 0)
(0.784863 -0.314186 0)
(0.77406 -0.247892 0)
(0.819573 -0.408324 0)
(0.80015 -0.368163 0)
(0.866659 -0.451406 0)
(0.842116 -0.435373 0)
(0.916016 -0.46614 0)
(0.891664 -0.460423 0)
(0.960358 -0.478861 0)
(0.938934 -0.47182 0)
(1.00032 -0.497597 0)
(0.980622 -0.487539 0)
(1.04064 -0.520818 1.28129e-21)
(1.02005 -0.508739 -6.22492e-22)
(1.08346 -0.547945 -6.03385e-21)
(1.06173 -0.53357 1.51935e-21)
(1.10277 -0.584865 0)
(1.10633 -0.562621 3.34975e-21)
(0.87866 -0.578759 1.03262e-21)
(0.860159 -0.550195 1.9253e-22)
(1.02472 -0.625985 5.27698e-22)
(1.04232 -0.605514 -9.20069e-22)
(1.22525 0.346553 3.66461e-21)
(1.01842 -0.645733 -5.54677e-22)
(1.06657 -0.608117 5.04284e-22)
(0.853545 0.237684 1.44812e-21)
(0.854944 0.285009 3.11835e-22)
(0.842451 0.226429 -6.42482e-22)
(1.00339 -0.657975 5.554e-22)
(1.09555 -0.607924 3.80415e-21)
(0.978695 -0.658735 1.16403e-21)
(1.12725 -0.602903 0)
(0.943974 -0.642601 1.15432e-21)
(0.900022 -0.605195 0)
(0.849074 -0.543655 2.40478e-21)
(0.828474 -0.511617 -1.91796e-21)
(1.03374 -0.617257 2.44105e-22)
(0.887194 0.259762 4.56011e-22)
(0.868505 0.249038 0)
(0.935572 0.279452 -1.09916e-21)
(0.909541 0.27024 0)
(0.998129 0.293631 0)
(0.965319 0.286928 1.35385e-21)
(1.06905 0.300424 0)
(1.03285 0.298018 0)
(1.14267 0.29864 9.38163e-24)
(1.10583 0.300813 0)
(1.20954 0.289571 0)
(1.17781 0.295022 0)
(0.874576 -0.548217 6.02919e-22)
(0.811388 -0.478808 0)
(0.844411 -0.519663 1.22389e-22)
(0.926153 -0.576965 0)
(0.901731 -0.566404 2.26574e-22)
(0.967002 -0.580972 0)
(0.947932 -0.581068 0)
(0.999288 -0.574928 -3.11787e-22)
(0.983952 -0.578276 0)
(1.02624 -0.571672 0)
(1.01323 -0.572319 3.93568e-22)
(1.05066 -0.578314 0)
(1.03855 -0.573882 0)
(1.07601 -0.584629 0)
(1.06302 -0.583117 0)
(1.10427 -0.562228 0)
(1.08977 -0.579128 0)
(1.13403 -0.483028 0)
(1.11917 -0.530995 0)
(1.16133 -0.336607 0)
(1.14829 -0.417984 0)
(1.18215 -0.134316 0)
(1.17272 -0.241045 0)
(1.19506 0.096828 0)
(1.18961 -0.0200317 0)
(1.20044 0.316193 0)
(1.19877 0.211075 0)
(1.19698 0.478892 0)
(1.19997 0.406936 0)
(1.18329 0.563417 0)
(1.19141 0.530841 0)
(1.16101 0.583217 0)
(1.173 0.579658 0)
(1.13405 0.567682 0)
(1.14786 0.578096 0)
(1.10584 0.54092 0)
(1.11996 0.554659 0)
(1.07788 0.515471 0)
(1.0918 0.527636 0)
(1.05012 0.495405 0)
(1.06402 0.504687 0)
(1.02136 0.481711 0)
(1.03598 0.487719 0)
(0.989791 0.474016 0)
(1.00602 0.477338 0)
(0.954862 0.464956 0)
(0.972685 0.470556 0)
(0.918802 0.438265 -6.39678e-23)
(0.936822 0.454997 0)
(0.884721 0.3793 -5.42647e-22)
(0.901171 0.413071 6.69777e-22)
(0.869215 0.336551 -3.10072e-22)
(1.21777 0.423447 0)
(1.2467 0.338319 -8.55515e-21)
(1.23203 0.386074 3.13584e-21)
(1.1841 0.469932 0)
(1.20015 0.451457 0)
(1.14993 0.486067 0)
(1.1665 0.480974 0)
(1.11741 0.486078 0)
(1.13314 0.487196 0)
(1.08722 0.482921 0)
(1.10195 0.484322 0)
(1.05813 0.483205 0)
(1.07261 0.482552 0)
(1.02806 0.486142 0)
(1.04334 0.484597 0)
(0.994987 0.486382 0)
(1.01201 0.487016 0)
(0.957327 0.476239 0)
(0.976801 0.483167 0)
(0.914602 0.445979 0)
(0.936565 0.464323 0)
(0.868506 0.384915 0)
(0.891769 0.41995 0)
(0.823621 0.285596 0)
(0.845526 0.340272 0)
(0.78683 0.149624 0)
(0.803747 0.221683 0)
(0.765029 -0.00925216 0)
(0.773702 0.0718138 0)
(0.762391 -0.167982 0)
(0.761161 -0.0902393 0)
(0.780111 -0.300499 0)
(0.768685 -0.239094 0)
(0.816733 -0.386404 0)
(0.796278 -0.349981 0)
(0.865675 -0.425694 0)
(0.840287 -0.410852 0)
(0.916113 -0.441733 0)
(0.891305 -0.43487 0)
(0.961453 -0.457264 0)
(0.939468 -0.448907 0)
(1.00312 -0.477248 0)
(0.982495 -0.46684 0)
(1.04443 -0.500218 0)
(1.0237 -0.488351 0)
(1.08815 -0.527557 6.41939e-22)
(1.06561 -0.513096 0)
(1.11285 -0.543234 3.04764e-21)
(0.794942 -0.459851 1.03194e-21)
(0.776968 -0.424428 8.85629e-22)
(1.23635 0.285025 -3.91926e-21)
(1.03091 -0.641619 1.37056e-23)
(1.05586 -0.622703 0)
(0.842728 0.170414 1.273e-21)
(0.831729 0.161216 -1.70493e-22)
(1.01948 -0.659582 -2.49033e-23)
(1.08334 -0.626718 -5.0691e-22)
(0.998059 -0.667142 0)
(1.11618 -0.626354 0)
(0.965992 -0.658587 0)
(1.1553 -0.612309 0)
(0.923902 -0.628937 -2.83724e-21)
(0.873152 -0.574492 0)
(0.816528 -0.493821 -3.73341e-21)
(1.19481 -0.608175 2.04827e-21)
(1.26544 0.32835 3.41989e-21)
(0.759876 -0.391747 -2.45465e-21)
(0.741727 -0.355619 0)
(1.25941 0.279454 -5.26713e-21)
(1.27878 0.273013 1.62039e-21)
(1.04359 -0.633949 0)
(0.876895 0.188765 0)
(0.857658 0.179711 -2.11271e-21)
(0.927385 0.205597 0)
(0.900159 0.197216 0)
(0.992857 0.217797 0)
(0.958469 0.212048 0)
(1.06788 0.224641 0)
(1.02943 0.222014 0)
(1.14454 0.225073 -9.23753e-24)
(1.10631 0.225917 0)
(1.21543 0.218986 2.7313e-21)
(1.18152 0.222986 -2.71241e-22)
(1.26974 0.21194 4.00019e-21)
(1.24487 0.215925 -6.26214e-21)
(0.798046 -0.445336 -1.09776e-22)
(0.728503 -0.320818 5.39748e-22)
(0.763198 -0.389556 -5.39e-22)
(0.863209 -0.518845 -1.99477e-22)
(0.831915 -0.487844 3.05981e-22)
(0.918512 -0.552809 1.74209e-22)
(0.892046 -0.539646 -2.17745e-22)
(0.963498 -0.561368 0)
(0.942125 -0.559349 -1.72321e-22)
(1.0005 -0.558777 0)
(0.982852 -0.560648 0)
(1.03211 -0.557664 0)
(1.01678 -0.557426 0)
(1.06154 -0.564483 0)
(1.04685 -0.560237 0)
(1.09262 -0.569353 0)
(1.07667 -0.56868 0)
(1.12714 -0.545573 0)
(1.10948 -0.563026 0)
(1.16315 -0.466741 0)
(1.14522 -0.514228 0)
(1.19586 -0.323115 0)
(1.18027 -0.402801 0)
(1.22052 -0.125264 0)
(1.20942 -0.229663 0)
(1.23533 0.101355 0)
(1.22921 -0.0132751 0)
(1.23978 0.316082 0)
(1.23895 0.213365 0)
(1.23226 0.473257 0)
(1.23767 0.404157 0)
(1.21212 0.552396 0)
(1.22366 0.522363 0)
(1.18281 0.568735 0)
(1.19828 0.566596 0)
(1.14963 0.55202 0)
(1.1664 0.56278 0)
(1.11642 0.525407 0)
(1.13289 0.538981 0)
(1.08448 0.500371 0)
(1.10028 0.512345 0)
(1.05343 0.480331 0)
(1.06891 0.489682 0)
(1.02192 0.465793 0)
(1.03785 0.472354 0)
(0.987951 0.456446 0)
(1.00535 0.46065 0)
(0.950743 0.446103 0)
(0.96968 0.452208 0)
(0.912467 0.419565 0)
(0.931496 0.435957 0)
(0.876585 0.362017 -5.14505e-22)
(0.894038 0.395364 4.54391e-22)
(0.846695 0.271153 -1.78802e-22)
(0.860894 0.320728 5.86087e-23)
(0.824181 0.152841 -1.80002e-23)
(0.834324 0.214582 -1.19373e-21)
(1.23435 0.407886 0)
(1.25084 0.372663 -1.82156e-21)
(1.19841 0.451837 0)
(1.21653 0.433937 0)
(1.16126 0.468207 0)
(1.17952 0.462769 0)
(1.12593 0.469453 0)
(1.14311 0.469907 0)
(1.09318 0.467341 0)
(1.10918 0.468295 0)
(1.06178 0.467728 0)
(1.07739 0.467161 0)
(1.02963 0.469677 0)
(1.04592 0.468769 0)
(0.994698 0.468002 0)
(1.01262 0.469707 0)
(0.955511 0.45539 0)
(0.975699 0.463591 0)
(0.911724 0.422922 0)
(0.93415 0.442266 0)
(0.865123 0.361241 0)
(0.888565 0.396291 0)
(0.820257 0.264308 0)
(0.842093 0.317345 0)
(0.783777 0.134368 0)
(0.800522 0.202964 0)
(0.762251 -0.0155727 0)
(0.770799 0.0607522 0)
(0.759979 -0.163992 0)
(0.758518 -0.0915003 0)
(0.77876 -0.286094 0)
(0.766689 -0.229817 0)
(0.817044 -0.363662 0)
(0.795745 -0.330943 0)
(0.867064 -0.399683 0)
(0.841283 -0.385724 0)
(0.917578 -0.417258 0)
(0.892806 -0.409242 0)
(0.963207 -0.43511 0)
(0.940963 -0.425727 0)
(1.00618 -0.455836 0)
(0.984789 -0.445268 0)
(1.04937 -0.478161 0)
(1.02765 -0.466757 0)
(1.09556 -0.503595 0)
(1.07163 -0.490261 0)
(1.14892 -0.536388 0)
(1.12165 -0.519009 -4.93627e-22)
(0.707925 -0.273711 0)
(0.695445 -0.240016 -6.30525e-22)
(1.23753 -0.61036 -1.12284e-20)
(1.25609 -0.586208 -9.48024e-21)
(1.03609 -0.657259 -5.77566e-22)
(1.06875 -0.640745 0)
(1.29036 0.208808 3.3965e-21)
(1.01846 -0.671559 6.05667e-22)
(1.09982 -0.644698 0)
(0.816509 0.0858628 7.51187e-23)
(0.81988 0.143955 1.2549e-22)
(0.81296 0.0804207 -1.25852e-22)
(0.989767 -0.670884 0)
(1.1376 -0.640912 6.05577e-22)
(0.949864 -0.649373 1.72668e-21)
(1.17649 -0.635718 -5.62708e-21)
(0.899963 -0.602456 1.38921e-21)
(1.21787 -0.6306 3.71845e-21)
(0.842811 -0.528123 1.32526e-21)
(0.782574 -0.427987 2.4427e-21)
(0.725381 -0.309147 1.08108e-22)
(0.666274 -0.149933 1.54808e-21)
(0.67704 -0.180496 -5.55331e-22)
(1.26847 -0.608902 0)
(1.28859 -0.582851 8.71697e-22)
(1.0527 -0.650947 0)
(0.834237 0.0979978 -2.28322e-22)
(0.823458 0.091653 1.74763e-22)
(0.868475 0.111714 -9.29743e-22)
(0.849186 0.105235 1.79716e-21)
(0.920571 0.124415 0)
(0.892446 0.117871 0)
(0.988196 0.134646 0)
(0.952672 0.129788 0)
(1.06558 0.141409 0)
(1.02608 0.138432 0)
(1.14566 0.143943 0)
(1.1059 0.142587 0)
(1.2181 0.142467 0)
(1.18336 0.143415 -2.96406e-22)
(1.27528 0.138914 0)
(1.24921 0.140473 0)
(0.719462 -0.286951 0)
(0.66068 -0.122138 -2.565e-22)
(0.687761 -0.208697 -2.2496e-22)
(0.788229 -0.411076 5.53842e-23)
(0.753172 -0.355043 1.64858e-22)