/*--------------------------------*- C++ -*----------------------------------*\
  =========                 |
  \\      /  F ield         | OpenFOAM: The Open Source CFD Toolbox
   \\    /   O peration     | Website:  https://openfoam.org
    \\  /    A nd           | Version:  10
     \\/     M anipulation  |
\*---------------------------------------------------------------------------*/
FoamFile
{
    format      ascii;
    class       surfaceScalarField;
    location    "12.5";
    object      phi;
}
// * * * * * * * * * * * * * * * * * * * * * * * * * * * * * * * * * * * * * //

dimensions      [0 3 -1 0 0 0 0];

internalField   nonuniform List<scalar> 
66213
(
0.0101443
-0.0123799
-0.00655524
0.00879081
0.0322419
-0.00510516
-0.0169925
0.00931789
-0.0147942
0.0377183
-0.0169015
0.0262194
0.0246025
-0.0169229
-0.0198284
0.0121487
0.0241234
-0.0234675
0.0239466
0.0439856
-0.0346565
-0.0463644
0.0347962
-0.0349391
-0.00149137
-0.0134923
-0.0196728
-0.00952272
-0.0154361
-0.00028777
0.000298398
0.00148987
-0.0015005
0.000230212
-0.000517982
0.00052861
-0.00239744
0.00122881
0.0108468
-0.00967817
0.00157796
-0.0039754
0.00280677
0.0763719
0.105924
-0.0912007
-0.0910951
0.0615375
0.0487495
-0.0339152
-0.0497933
0.0310462
0.0802847
-0.0109587
0.0670893
0.0360958
0.0376957
-0.0441491
-0.0296424
-0.00208742
0.00234968
0.0358335
-0.0140552
0.011487
0.000480814
0.0125127
0.0111278
0.0535617
0.0176297
-0.00994845
-0.061243
-0.00605768
0.0522345
0.00738483
-0.0746182
0.00658824
0.0619722
-0.0218045
0.0291871
0.0239016
-0.0312842
-0.0618787
0.00665519
0.033419
-0.0246258
-0.0695618
0.0323089
0.0301455
-0.0307985
0.0636289
-0.0882548
-4.62848e-05
-0.00406278
0.00171815
0.00239091
-0.00273573
0.00268944
-0.00154295
-0.00119277
-0.000576009
-0.00502972
0.0455268
-0.0114182
0.00824159
-0.0423502
0.0342725
-0.0143612
0.0256155
0.024993
-0.0288532
0.0436993
-0.0398391
0.0120676
0.042664
-0.0297386
-5.32846e-05
0.021249
-0.0296575
0.00846182
0.0290973
0.00271426
-0.0318649
-0.00122555
-0.000109752
0.000759294
0.00224166
-0.000763204
-0.00628942
0.00481096
0.00366428
-0.00201445
0.000591829
-0.0127758
0.0138147
0.00060617
-0.00164499
0.00225255
-0.00354142
-0.0114521
0.0271252
-0.0224347
0.00676163
-0.0194745
-0.0056355
0.0136579
-0.0374266
0.06085
0.0123884
-0.0358118
-0.0287599
-0.0782285
-0.0643935
-0.00278429
0.0382984
0.0288794
0.0780521
-0.135857
-0.0228498
-0.00477947
0.0276293
-0.009391
-0.0134588
-0.0281875
0.0391299
-0.0203333
0.0042936
-0.0101878
-0.0222934
-0.00146858
-0.00552553
0.00699411
-0.00634435
-0.00784782
0.0127236
-0.00916522
0.00681461
-0.0115683
0.0172664
0.00295988
-0.00150941
0.00536413
-0.00121567
0.00237809
0.00179746
0.00607138
-0.00371138
-0.00236001
0.0106297
-0.00455829
0.0411115
-0.0525808
-0.0191157
0.0305849
0.0764254
-0.0149015
-0.0724827
0.0595933
0.0293138
-0.0124817
0.00292867
-0.00273651
0.00929834
-0.0094905
0.00990993
0.00199265
-0.00897391
0.00668451
0.00431514
-0.00108972
-0.00183098
0.00884111
-0.00659533
-0.000414799
0.0232398
0.0408102
-0.0929032
0.0139228
0.0019219
-0.0134023
-0.00244237
0.00969824
0.00156174
0.00266283
0.00595038
0.00502036
-0.00502626
-0.00594448
0.00560041
0.00536067
-0.0050107
0.0697969
0.0306592
-0.0130389
-0.0874172
0.0799253
0.015341
-0.0254694
-0.0416918
0.0306887
-0.00510116
0.0161042
0.0132245
-0.0257431
-0.0291733
-0.0255399
0.0337488
0.0224798
-0.0528257
0.0296851
0.0463804
-0.0223906
0.0453241
-0.0757592
-0.00403136
0.0204578
-0.038817
-0.00478447
-0.00851102
0.013396
-0.000100488
-0.00432123
-0.000668385
0.000205145
0.000200494
-0.00085745
0.00119162
0.000608347
-0.000168862
-0.0016311
0.00770785
0.00293707
-0.000362944
-0.010282
0.00439158
0.0105595
-0.00724325
-0.00603762
-0.00059098
0.0110202
-0.00390755
0.000807006
-0.00433208
6.15869e-05
-0.0108336
0.0352508
0.0364328
0.029774
-0.00100975
-0.0395979
0.0192279
-0.0346992
0.0425965
-0.0280131
0.00124211
0.0459989
-0.038667
-0.0112194
0.00194231
0.0479441
0.0342985
-0.0058762
0.0541252
-0.0320627
-0.0184992
0.0176174
0.0329445
-0.000414399
-0.00528245
-0.0263658
0.0395728
-0.0584864
-0.00596353
-0.00159799
0.00735302
0.000208503
-0.00120566
-0.00332596
-0.0014319
-0.000842049
0.000437431
-0.000801042
-0.000721886
-0.0526837
-0.0397793
0.0288743
0.0635887
-0.018864
0.0279669
-0.0617866
0.0270091
-0.00425399
-0.0416191
-0.0137746
0.00100441
0.00370123
0.00928421
-0.00474271
-0.00824273
0.00230855
0.00139268
0.00100892
0.0105839
0.00489485
0.00451093
0.00172205
0.000576387
0.00479927
0.0313017
0.00658458
-0.0431687
0.0102329
0.0386861
2.22675e-05
-0.00216279
-0.00377747
0.00591799
-0.000726188
0.000837851
-8.93962e-05
-0.00252415
-0.000364828
0.00607436
0.0117947
-0.0118519
-0.00601714
-0.00167205
-0.0146883
0.029186
0.0448394
-0.010489
0.0489806
-0.0503564
0.000187153
0.00118862
0.0527452
0.000168456
-0.00393302
-0.0105611
0.0014127
0.00862498
0.000523392
-0.000542861
-0.00592818
-0.00409003
0.00167048
-0.00226146
0.00177596
-0.000105486
0.0192385
0.0243245
-0.00513609
-0.0384269
0.017795
0.0556802
-0.0542367
-0.027206
0.0203063
0.0246948
-0.00654446
0.0036629
-0.0123142
-0.00271482
0.0012544
-0.0171958
0.000627547
0.040864
-0.0385268
0.00317654
-0.00551377
0.0073248
-0.00807991
-0.016224
-0.0298323
0.00752955
-0.0494674
-0.00567518
0.0505029
0.00463971
-0.0327983
-0.0247563
0.00808725
-7.56731e-05
-0.0559559
0.0390986
0.00740682
-0.027471
-0.0190344
-0.0159459
0.0494195
0.00562503
0.0398994
-0.0063711
-0.0494742
0.0286754
0.0201356
-0.00891163
0.0212972
-0.0148188
-0.0243157
0.0178374
0.0144147
-0.017522
0.0244045
0.0275944
0.0196407
-0.0132039
-0.0340312
-0.0106603
0.0234359
0.0396898
0.00574501
-0.0258166
-0.0196182
-0.00205338
0.00110485
0.0406384
0.0384416
0.00195745
-0.0424524
0.0257521
-0.00632427
0.0190137
0.00285489
0.00609426
0.000749096
0.0102952
0.000848649
-0.00922198
0.00912046
0.000448549
0.00132741
-0.0206648
0.0155287
-0.0260419
0.00537708
-0.00158744
0.0470014
-0.000574533
0.00334406
-0.00224534
-0.00128781
0.000189093
-0.000448438
-3.72428e-05
0.00382974
-0.000335177
0.00429013
-0.00440339
0.00622128
-0.0112235
-0.0035088
-0.00282441
-0.025334
0.0238647
0.0042937
-0.0274957
-0.00195097
0.0266222
0.00483401
-0.0147122
0.0419053
-0.0320271
0.0396328
0.0025971
-0.0373959
-0.000210243
0.034166
0.000909781
-0.0348655
0.0337946
0.000370477
-0.0343753
0.0140174
0.0366992
-0.0535009
0.0114158
0.0396825
-0.0370809
0.00632134
0.00518577
-0.00479185
-0.00671526
0.00631745
0.00286498
-0.0028611
-0.0468977
0.00928352
0.0450794
-0.00746518
0.0102944
-0.0470055
-0.0101866
-0.00205842
0.0341315
-0.0339831
0.00190998
0.0337268
-0.000979096
-0.0348061
-0.0101351
-0.0302676
0.0400897
0.000312953
0.0252284
-0.00480869
-0.0305549
0.0181561
0.00518697
-0.0183916
-0.00495148
0.0187044
0.00542454
-0.00597286
0.0051218
-2.49926e-05
0.00122064
0.00442016
-0.000228296
0.000929934
-0.000762458
0.000194605
7.61442e-06
-0.00763136
-0.0057786
-0.0329954
-0.00894589
0.0360326
0.00590872
-0.00680881
-0.0306983
0.00451172
-0.00476051
-0.00194112
0.00359811
0.00310352
-0.00309148
-0.00575298
0.00408396
0.034664
-0.0329321
0.0312101
-0.032942
0.0554005
0.0262218
-0.0469584
0.0265133
-0.025884
0.0547712
0.0351301
-0.0424714
0.0430454
-0.0357042
0.0651321
0.0309071
-0.0609091
0.0210796
0.0623532
-0.0183007
-0.034241
0.0104192
0.0370462
-0.031996
-0.0111908
-0.0369881
0.0065926
0.0386585
-0.00826303
-0.00759189
0.00709668
-0.0364929
0.00864331
0.000193237
-0.00299302
-0.00584353
0.00407307
0.00612465
-0.00155441
0.0782762
-0.0548132
0.00623484
-0.0296979
0.0306998
0.0669859
-0.0194095
0.0371844
0.004727
-0.0133374
-0.028574
0.0410083
-0.000347779
-0.0260978
-0.0234586
0.00328243
-0.000858121
-0.021863
-0.000737426
-0.0193253
-0.00763063
0.000975846
0.000757806
-0.000795049
7.02707e-05
0.000687535
-0.0314878
0.00469014
0.0296023
-0.00280459
0.00378169
-0.0033876
-0.0318819
0.0313716
0.00386982
-0.0314598
0.0299854
0.00607642
0.0332492
0.0177951
-0.0408113
-0.0144659
0.0549805
-0.00726541
0.0319589
-0.0286298
-0.0248374
-0.00360563
0.0242338
0.00420923
0.0219856
-0.0421661
-0.00465686
-0.00447928
0.0228592
-0.000320488
0.000422343
-0.0021163
0.000233502
-0.00055399
0.000655845
0.00169534
-0.00441016
0.00294974
0.022441
-0.0049989
-0.0321543
-0.00110325
0.0341673
-0.0335293
0.000465262
0.0348838
-0.00143732
-0.0345497
0.0417157
-0.00495323
-0.0357535
0.00476625
0.0316301
-0.00446504
-0.0319314
0.0279872
-0.0224891
0.00852296
-0.014021
0.0275605
-0.0049629
0.0053896
0.0331281
-0.00829792
0.00273026
0.0329892
-0.00490875
0.00504764
0.0361689
-0.00789109
0.0047114
0.0363411
-0.0045796
0.00440745
0.0366263
-0.00429901
0.00401383
0.0369069
-0.00394013
0.00365953
0.0373033
-0.00362553
0.00322904
0.037709
-0.00323869
0.00283299
0.0382189
-0.00288741
0.00237754
0.0387433
-0.00247816
0.00195372
0.0393488
-0.00209739
0.00149196
0.0399673
-0.00167808
0.00105958
0.0406363
-0.00128117
0.00061214
0.0413126
-0.000868944
0.000192663
0.0420063
-0.00047208
-0.00022169
0.0427014
-8.26143e-05
-0.000612434
0.0433861
0.000289029
-0.000973742
0.0440715
0.000634445
-0.00131989
0.0447141
0.000978287
-0.00162082
0.0453577
0.00127074
-0.00191435
0.0459361
0.00157026
-0.00214866
0.0465182
0.00180526
-0.00238734
0.0470176
0.00205202
-0.00255144
0.0475267
0.00223493
-0.00274403
0.0440201
0.00242049
0.00108606
0.0444502
0.00254115
-0.00297116
0.0383829
0.0055231
0.00054416
0.0372205
0.00482609
-0.00366367
0.0371227
0.00417636
-0.00407857
0.0374844
0.00392213
-0.00428387
-0.0239623
0.0299213
-0.00341698
-0.00254205
-0.0048935
0.0101177
-0.0217873
0.016563
-0.0232168
-0.00563899
-0.0209616
0.00859021
-0.0394906
0.0297428
-0.00818042
0.0179283
0.00406305
-0.00606928
0.0366221
-0.0365973
0.0041516
-0.0364749
0.0388596
0.0016783
0.00406931
0.0340578
-0.0316635
0.0031288
0.00228659
0.0317575
-0.0314543
0.00211725
0.00263521
0.0311204
-0.0307756
0.00170723
0.00190101
0.0304174
-0.0300459
0.00119873
0.00144707
0.0296708
-0.0292897
0.000597145
0.000895706
0.0289152
-0.0285456
-8.05897e-05
0.000259975
0.0281896
-0.0278528
-0.000808934
-0.000438569
0.0275455
-0.0272665
-0.00156013
-0.00117628
0.0270254
-0.0268216
-0.00230121
-0.00191916
0.0266603
-0.0265396
-0.00300811
-0.00263944
0.0264595
-0.0264157
-0.00366937
-0.00331879
0.0264025
-0.0264133
-0.00428826
-0.00395328
0.0264416
-0.0290893
-0.00524338
-0.00455127
0.0278271
-0.0297846
-0.00634037
-0.00617097
-0.00482621
-0.0066638
0.0076027
-0.0227262
-0.0244908
-0.00538977
0.0310515
-0.00108843
0.00889651
-0.0211029
0.00774394
-0.00482309
-3.96616e-05
0.0316876
-0.0268248
-0.00768154
0.0326012
-0.0071302
0.00696579
-0.0225617
-0.0231427
-0.00847828
-0.000207563
0.0312194
0.0347372
-0.0369997
-0.00591796
-0.0213625
0.00722545
0.032421
-0.00536537
0.00732545
-0.00632279
-0.0241454
-0.00662135
0.00663434
-0.0213755
-0.0218576
-0.0212636
0.0228574
0.00699641
0.02033
-0.0196546
0.00655013
0.0068103
-0.0250641
0.0250684
0.00538524
0.0063163
-0.0234587
0.0240702
0.00443615
0.00433998
-0.0243889
0.024736
0.00406037
0.0043927
-0.0251118
0.0255233
0.00324795
0.00363806
-0.0259645
0.0264391
0.0023584
0.00278788
-0.0269364
0.0274585
0.0014316
0.00188025
-0.027992
0.0285387
0.000512978
0.000958428
-0.0290845
0.0296308
-0.000353588
6.62632e-05
-0.0301625
0.0306839
-0.00113376
-0.000753457
-0.0311827
0.0316625
-0.00179969
-0.00147261
-0.0321129
0.0325381
-0.00233953
-0.00207118
-0.0329313
0.0332947
-0.00275066
-0.00254192
-0.0336293
0.0339253
-0.00304012
-0.00288604
-0.0376725
0.0378969
-0.00319555
-0.00266106
-0.0402137
0.0397071
-0.00315711
-0.00177267
-0.0388625
0.0384392
-0.00386062
-0.0032339
-0.00462973
-0.00298466
0.00205088
0.0326213
0.00361205
0.0337392
-0.00493025
0.0332286
0.0344387
-0.0353544
0.00259396
-0.0321453
0.000805295
0.0311324
0.00120497
0.0333553
-0.0319738
0.00277012
0.00207024
0.0326557
-0.0316844
0.00215752
0.00296847
0.0310195
-0.030724
0.00182174
0.0019703
0.0304203
-0.0301082
0.00139512
0.00159729
0.0297937
-0.0294769
0.000881882
0.00113263
0.0291673
-0.0288643
0.000294089
0.000586171
0.0285794
-0.0283117
-0.000348261
-2.49173e-05
0.0280711
-0.0278592
-0.00102082
-0.000679173
0.0276844
-0.0275466
-0.00169797
-0.0013511
0.0274503
-0.0273945
-0.00235702
-0.00201546
0.0273788
-0.0274003
-0.00298658
-0.00265513
0.0274537
-0.0275342
-0.00358891
-0.00326534
0.0276325
-0.0277427
-0.00417813
-0.00385496
0.0278538
-0.0283253
-0.00477193
-0.00444012
0.0294567
-0.0304053
-0.00539178
-0.00503952
0.029553
-0.0271829
-0.0057871
-0.00567852
0.0268301
-0.0259243
-0.00629558
-0.00599178
0.0274303
-0.0269038
-0.00684934
-0.00697223
0.00142973
0.0318406
-0.0195882
0.00656786
-0.00733009
0.00753902
-0.0243543
-0.02713
-0.0071039
-0.00462989
0.00377607
0.034593
0.0344325
-0.034416
-0.00494676
0.0346552
-0.00485256
0.0070728
-0.00770908
-0.0207392
0.0311844
-0.0318152
0.00143612
0.00109912
0.0314631
0.0309846
0.00129896
0.00701847
-0.0195338
-0.0220277
-0.0198213
0.0200363
0.00633515
0.0193221
-0.018692
0.0063884
0.00606865
-0.0212246
0.0225379
0.00568312
0.00562204
-0.0233755
0.0239217
0.00483906
0.00547863
-0.0238636
0.0239929
0.00430681
0.00439809
-0.0244729
0.0249862
0.00354705
0.00391275
-0.0255228
0.0260879
0.00268285
0.00310142
-0.0266702
0.027273
0.00175551
0.00220566
-0.0278825
0.0285014
0.000812667
0.00127081
-0.0291146
0.0297249
-9.74025e-05
0.000345289
-0.0303168
0.0308958
-0.00093264
-0.000525551
-0.0314469
0.0319752
-0.0016621
-0.00130452
-0.0324697
0.0329359
-0.00226594
-0.00196706
-0.0333649
0.0337628
-0.00273747
-0.00250014
-0.0341232
0.0344521
-0.00307954
-0.0029023
-0.0347463
0.0350093
-0.00330311
-0.00318024
-0.0356943
0.0359222
-0.00342339
-0.00334614
-0.0375683
0.0378655
-0.00345431
-0.00341884
-0.0380424
0.0372933
-0.00311149
-0.00341078
-0.0366749
0.035104
-0.00434711
-0.00401129
-0.00467733
-0.00304859
0.00228299
0.0333869
0.0339561
-0.00172883
0.00126096
0.0319309
0.0323948
0.0326541
-0.0324193
0.00235919
0.0020438
0.0325902
-0.0317547
0.00193461
0.00224113
0.0310473
-0.0307972
0.00190742
0.0022611
0.0305473
-0.0302883
0.00156269
0.00172041
0.0300306
-0.0297725
0.00113702
0.00133962
0.0295227
-0.029281
0.000640179
0.00088281
0.0290565
-0.0288497
8.72903e-05
0.000361671
0.028669
-0.0285154
-0.000501842
-0.000205556
0.0283956
-0.0283105
-0.00110588
-0.000799057
0.0282638
-0.0282553
-0.00170648
-0.00139778
0.0282841
-0.0283485
-0.00229259
-0.00198665
0.0284432
-0.0285645
-0.00286522
-0.0025605
0.0287036
-0.0288558
-0.00343675
-0.00312626
0.0290104
-0.0291629
-0.00402567
-0.0037003
0.0293026
-0.0294257
-0.00464884
-0.00430037
0.0295225
-0.0295945
-0.00531979
-0.00494274
0.0296413
-0.0294024
-0.006026
-0.00563169
0.0290474
-0.0290058
-0.00633713
-0.00634682
0.0289598
-0.0288319
-0.00697725
-0.00701821
-0.00758692
0.00700299
-0.026546
0.0285138
-0.0282697
-0.007831
-0.00742202
0.00738282
-0.00757748
-0.0193392
-0.0180077
0.00669846
-0.00752056
-0.0207962
0.00740911
-0.0247605
0.000800563
0.0314449
0.00793887
-0.0281553
-0.0080533
0.00766956
-0.0262767
-0.00384585
0.00361654
0.0348223
-0.00469355
0.0355029
0.0351189
-0.0348541
-0.00521156
0.00680598
-0.00720763
-0.0189375
0.0063012
-0.0175029
0.0351914
-0.00492507
-0.0221391
-0.0186526
0.0193387
0.00570235
0.0177515
-0.0171755
0.00572516
0.00579738
-0.0198811
0.0208787
0.00533755
0.0055262
-0.0214715
0.022278
0.00487668
0.00502922
-0.0231403
0.0236049
0.00437444
0.00461627
-0.0239748
0.0245796
0.00370201
0.0040282
-0.0252025
0.0258499
0.00289966
0.00328986
-0.0265092
0.027185
0.0020071
0.00244211
-0.0278625
0.0285457
0.00107233
0.00152811
-0.0292187
0.0298855
0.000145885
0.000597784
-0.0305304
0.031158
-0.000725015
-0.000299599
-0.0317541
0.0323244
-0.00150296
-0.00112164
-0.0328567
0.0333572
-0.0021626
-0.00183678
-0.0338165
0.0342416
-0.00269101
-0.00242642
-0.0346253
0.0349747
-0.0030869
-0.00288379
-0.0352847
0.0355627
-0.00335757
-0.00321232
-0.035805
0.0360182
-0.00351631
-0.00342248
-0.0362008
0.0363568
-0.00357936
-0.00352876
-0.0364867
0.0365948
-0.00356244
-0.00354875
-0.036682
0.0370519
-0.00348141
-0.00349797
-0.036431
0.0360054
-0.00392147
-0.0033904
-0.00352606
-0.00320942
0.00242246
0.0341739
0.0343632
-0.00180746
0.00109433
0.0326441
0.0330098
0.0311863
-0.0315092
0.00175908
-0.0311708
0.00127697
0.0306944
0.00131449
0.0316608
-0.0314598
0.00215815
0.0021954
0.0312577
-0.0312862
0.00196312
0.00203898
0.0308366
-0.0306229
0.00169372
0.0018115
0.030413
-0.0302043
0.00135392
0.00151059
0.0300053
-0.0298151
0.000946752
0.00114067
0.0296414
-0.0294848
0.000483561
0.000709168
0.0293521
-0.0292449
-1.99581e-05
0.000229002
0.0291674
-0.0291216
-0.000547601
-0.000283062
0.0291097
-0.0291322
-0.00108334
-0.000811016
0.0291879
-0.0292762
-0.00161825
-0.00134205
0.0293916
-0.029532
-0.00215217
-0.00187123
0.029689
-0.0298594
-0.00269486
-0.00240352
0.0300331
-0.0302071
-0.00326277
-0.00295249
0.0303719
-0.0305252
-0.00387236
-0.00353548
0.0306595
-0.0307739
-0.00453439
-0.00416615
0.030864
-0.0309309
-0.0052529
-0.00485265
0.030972
-0.0309848
-0.00601317
-0.00559061
0.0309685
-0.0305022
-0.00680347
-0.00636309
0.0303652
-0.0300748
-0.00726763
-0.00715523
0.0298309
-0.0297754
-0.00788642
-0.00766596
-0.00846306
0.00797899
-0.0276712
0.0295394
-0.0294524
-0.00855002
-0.00828938
0.000691537
0.0318477
0.00617295
-0.00669569
-0.0169802
-0.0165063
0.00550378
-0.00795986
-0.0200439
0.00736761
-0.0244585
-0.00521868
0.0357166
-0.00912908
0.00858768
-0.028911
-0.0307308
0.0311573
-0.00897644
-0.0305951
-0.00926481
-0.00726853
-0.0183647
0.00782095
-0.0261187
0.00824391
-0.0273275
0.00568107
-0.00644738
-0.0162139
0.0313782
-0.0313645
0.00126329
0.000630531
0.0307554
0.0314011
0.000607601
0.00475556
-0.0155808
-0.0227314
-0.0174539
0.0183369
0.00484217
0.0166237
-0.0164316
0.00456347
0.00467358
-0.0191931
0.0200243
0.00487111
0.00494117
-0.0209262
0.0217012
0.00456256
0.00462432
-0.0223434
0.0230016
0.00421845
0.00438699
-0.0236722
0.0243631
0.0036835
0.00394571
-0.0250636
0.0257808
0.00298478
0.00332778
-0.0265037
0.0272386
0.0021648
0.00256693
-0.0279707
0.0287049
0.00127291
0.00170996
-0.0294253
0.0301364
0.000361245
0.000807711
-0.0308225
0.0314883
-0.000519942
-8.82548e-05
-0.0321197
0.0327222
-0.00132754
-0.000931011
-0.0332837
0.0338105
-0.00202979
-0.00168309
-0.034293
0.0347382
-0.00260775
-0.00231929
-0.0351389
0.0355024
-0.00305452
-0.00282713
-0.0358238
0.0361103
-0.00337338
-0.0032052
-0.0363587
0.0365759
-0.00357476
-0.00346074
-0.03676
0.036917
-0.00367336
-0.00360659
-0.0370468
0.0371531
-0.00368564
-0.00365852
-0.0372376
0.0373028
-0.00362772
-0.00363323
-0.0373509
0.0373835
-0.00351407
-0.00354601
-0.037404
0.0368409
-0.0033584
-0.00341088
-0.0365541
0.0359209
-0.00457835
-0.00323923
-0.0355792
0.0357758
-0.00541525
-0.00458335
-0.0040836
0.00358656
0.0353194
0.00474458
-0.00486096
0.035833
0.0361638
-0.00282772
0.0023698
0.0346318
0.035122
-0.00208922
0.00184572
0.0328876
0.0332903
-0.00180295
0.000755227
0.0318031
0.0318905
0.0315391
-0.031878
0.00209796
0.00148913
0.0316957
-0.0315106
0.00197306
0.00201307
0.0313291
-0.0311471
0.00178113
0.00185743
0.030971
-0.0307999
0.00152261
0.00163548
0.030639
-0.0304875
0.00120245
0.00134961
0.0303521
-0.0302327
0.000827382
0.00100524
0.030135
-0.03006
0.000408548
0.000611515
0.0300116
-0.0299908
-4.08104e-05
0.000180635
0.0299994
-0.0300381
-0.000508901
-0.000274473
0.0301053
-0.030201
-0.000987628
-0.000743785
0.0303204
-0.0304621
-0.00147653
-0.00122272
0.0306186
-0.0307879
-0.00198286
-0.0017147
0.0309611
-0.031136
-0.00251995
-0.00223038
0.0313041
-0.0314643
-0.0031026
-0.00278434
0.0316098
-0.0317406
-0.00374154
-0.00338996
0.0318523
-0.0319461
-0.00444059
-0.00405444
0.0320203
-0.0320765
-0.00519665
-0.00477851
0.0321133
-0.0321302
-0.00599627
-0.00555382
0.0321274
-0.032105
-0.00682581
-0.00636593
0.0320603
-0.0316624
-0.00766555
-0.00719993
0.031696
-0.0313555
-0.00822693
-0.00763238
-0.0084876
-0.0092799
0.00881833
-0.0284494
-0.0300784
-0.00979658
-0.00512229
0.0360371
0.00543686
-0.00580142
-0.0152162
-0.0154682
0.00447343
-0.00752676
-0.0197857
0.00772067
-0.0243582
0.031651
0.000505381
-0.00710968
-0.0177024
0.00781842
-0.0256932
-0.00637003
-0.0156452
0.00845989
-0.026969
0.00960624
-0.0295924
-0.0100923
0.00912727
-0.0279705
0.00448358
-0.00538121
-0.0143186
0.0360209
-0.0360075
-0.00542866
0.0354005
-0.00450189
0.00318929
-0.0141739
-0.0225375
-0.0174435
0.0182658
0.00374113
0.01648
-0.0167466
0.00345589
0.00350994
-0.0189504
0.0197159
0.00407662
0.003989
-0.0206941
0.0215645
0.00400078
0.00396299
-0.0222605
0.0229736
0.00384946
0.00392831
-0.0236957
0.0244352
0.00347894
0.00366484
-0.0251829
0.025946
0.00292041
0.00319806
-0.0267112
0.0274847
0.00221132
0.00256255
-0.0282519
0.0290184
0.00139832
0.00179966
-0.0297685
0.0305072
0.000534242
0.000959841
-0.0312189
0.0319085
-0.000328449
9.60477e-05
-0.0325619
0.0331846
-0.00114261
-0.000741638
-0.0337643
0.0343073
-0.00187057
-0.00151071
-0.034804
0.035261
-0.00248688
-0.0021797
-0.0356714
0.0360423
-0.0029786
-0.0027297
-0.0363689
0.0366582
-0.00334386
-0.00315372
-0.0369076
0.0371236
-0.00358936
-0.00345458
-0.037305
0.0374577
-0.00372743
-0.00364216
-0.0375816
0.0376816
-0.00377336
-0.00373051
-0.0377586
0.0378161
-0.00374316
-0.00373548
-0.0378557
0.03788
-0.00365207
-0.00367284
-0.0378909
0.0378903
-0.0035135
-0.00355686
-0.0378796
0.0378607
-0.00333947
-0.00340019
-0.0378354
0.0369814
-0.00372431
-0.00321394
-0.00360946
-0.00351439
0.00326406
0.0360833
0.00403456
0.0356585
-0.00429258
0.0365573
-0.00352322
0.00278982
0.0360528
0.0359047
-0.00275987
0.0027083
0.0346834
0.035152
-0.00215784
0.00196067
0.0330847
0.0338408
-0.00139696
0.000936419
0.0322636
0.0324542
0.000882555
0.0317048
0.0317981
-0.0319378
0.00140293
-0.0316173
0.0315622
0.000560414
0.000788437
0.032379
-0.0322074
0.00192633
0.00193037
0.0320414
-0.0318782
0.00180993
0.00184709
0.0317234
-0.0315745
0.00163228
0.00170256
0.0314372
-0.0313104
0.0013958
0.00149816
0.0311988
-0.0311024
0.00110605
0.00123801
0.0310255
-0.0309687
0.000770606
0.000928348
0.030935
-0.0309254
0.000398891
0.000577824
0.0309407
-0.0309816
1.29895e-07
0.000195917
0.0310466
-0.0311359
-0.000419574
-0.000209466
0.0312453
-0.031374
-0.000858914
-0.000634458
0.0315155
-0.0316687
-0.00132336
-0.00108117
0.0318258
-0.0319855
-0.00182315
-0.00155763
0.0321404
-0.0322899
-0.00237042
-0.00207546
0.0324282
-0.0325557
-0.00297509
-0.0026461
0.0326687
-0.0327687
-0.00364154
-0.00327698
0.0328538
-0.0329262
-0.00436818
-0.00396932
0.0329855
-0.0330338
-0.00514837
-0.00471921
0.0330704
-0.033096
-0.00597067
-0.00551724
0.0331102
-0.033113
-0.00682304
-0.00635172
0.0331036
-0.0330794
-0.00768967
-0.00720934
0.0326406
-0.0323201
-0.00854739
-0.00807122
0.0322397
-0.0321058
-0.00911029
-0.00856804
0.0317194
-0.0312493
-0.0102667
-0.00965124
-0.0098212
-0.0291659
0.00939468
0.0318432
-0.0307175
-0.0109469
-0.00949839
0.00444012
-0.00450285
-0.0141111
-0.0159018
0.00359534
-0.00735919
-0.0195362
0.00774914
-0.0242889
0.0104359
-0.0305842
-0.0105692
-0.0285113
0.00978129
-0.00672616
-0.0173463
0.00814006
-0.0253734
-0.00583213
-0.0151943
0.00847259
-0.0263143
-0.0037172
0.003126
0.0362497
0.035853
-0.035711
-0.00443454
0.0361875
-0.00405171
-0.00508657
-0.0137349
0.00916429
-0.0277401
0.00414162
-0.00447327
-0.0137795
0.000318476
0.0321263
0.00356079
-0.015321
-0.0221475
-0.018481
0.0193085
0.0026284
0.0180772
-0.0174253
0.00290885
0.00319159
-0.0196576
0.0204124
0.00298625
0.00316084
-0.0212695
0.0220865
0.00325961
0.00313192
-0.0227618
0.0234638
0.00329887
0.00328766
-0.0241824
0.0249228
0.00310904
0.00320968
-0.0256733
0.0264398
0.00271242
0.00291437
-0.0272096
0.0279882
0.00214183
0.0024283
-0.0287609
0.0295328
0.0014395
0.00178977
-0.0302882
0.0310319
0.00065458
0.00104422
-0.0317487
0.0324434
-0.000160427
0.000243046
-0.0331018
0.0337292
-0.000955845
-0.00056234
-0.0343133
0.0348602
-0.00168946
-0.0013258
-0.03536
0.0358192
-0.00232977
-0.00201049
-0.0362307
0.0366012
-0.00285744
-0.00259119
-0.0369262
0.0372124
-0.00326479
-0.00305471
-0.0374573
0.0376673
-0.00355379
-0.00339862
-0.0378414
0.0379855
-0.0037334
-0.00362875
-0.0380998
0.0381892
-0.00381682
-0.0037565
-0.0382549
0.0383006
-0.00381908
-0.0037962
-0.0383281
0.0383402
-0.00375522
-0.003763
-0.0383388
0.0383258
-0.00363912
-0.00367143
-0.0383034
0.0382727
-0.00348287
-0.00353443
-0.0382357
0.0381931
-0.00329681
-0.0033632
-0.0381465
0.0376642
-0.00324208
-0.00316734
-0.0373322
0.0362116
-0.00430804
-0.00327743
-0.0040013
-0.00343931
0.00322718
0.0362954
0.0362439
-0.0027009
0.00270416
0.0360495
0.0364309
-0.00268529
0.0026437
0.034725
0.0351709
-0.0025745
0.00205308
0.0336062
0.03391
-0.00141431
0.00147849
0.0321994
0.033093
0.032196
-0.032399
0.00076341
0.0324603
5.41957e-05
-0.000615205
0.000211214
0.0325303
0.0325681
0.0327076
-0.0331196
0.00181489
0.00109701
0.0329599
-0.0328048
0.00177124
0.00177073
0.032659
-0.0325205
0.00167136
0.00170131
0.0323938
-0.0322776
0.00151605
0.00157587
0.0321761
-0.0320888
0.0013085
0.00139672
0.0320191
-0.031967
0.00105398
0.00116825
0.0319349
-0.0319232
0.000758935
0.000896212
0.0319326
-0.0319636
0.000429884
0.000587216
0.0320147
-0.0320862
7.15748e-05
0.000247046
0.0321742
-0.0322787
-0.000315113
-0.00012138
0.0323943
-0.03252
-0.000733161
-0.000518909
0.0326497
-0.0327824
-0.00119063
-0.000951513
0.032912
-0.0330382
-0.00169691
-0.00142801
0.0331561
-0.0332663
-0.00226026
-0.0019576
0.0333655
-0.0334555
-0.00288508
-0.00254685
0.0335348
-0.0336056
-0.00357074
-0.00319771
0.0336675
-0.0337231
-0.00431261
-0.00390736
0.0337725
-0.0338175
-0.00510327
-0.00466986
0.0338581
-0.0338953
-0.0059335
-0.00547667
0.0339284
-0.0339577
-0.00679374
-0.00631862
0.0339819
-0.0340001
-0.00767143
-0.00718514
0.0340102
-0.0340089
-0.0085487
-0.00806117
0.0336515
-0.0333642
-0.00939753
-0.00892543
0.0332723
-0.0336732
-0.00986573
-0.00974319
0.0328057
-0.0324875
-0.0112651
-0.0103659
-0.0103933
0.0104012
-0.0305921
0.0325507
-0.0322781
-0.0106659
-0.010506
0.00285574
-0.00322549
-0.0149512
-0.017153
0.00258349
-0.0278452
0.00973507
-0.010496
0.0099079
-0.0300039
-0.032172
-0.0106022
-0.00716758
-0.0190948
0.00756607
-0.0237149
-0.00645142
-0.016727
0.00816354
-0.0250643
-0.00381288
0.00350686
0.0365558
-0.00424814
0.0366227
-0.00563331
-0.0146476
0.0087863
-0.0259363
-0.0045147
-0.0136935
0.00915459
-0.0271134
-0.0033619
-0.0136431
0.0322801
0.000391384
-0.00177128
-0.0171809
0.00179917
-0.00182264
-0.0148998
-0.0276612
0.00972391
-0.0104587
0.00994306
-0.0294883
-0.0107443
-0.0318864
0.000990483
-0.00117001
-0.0170014
-0.0195149
0.0199221
0.00139191
0.0360397
-0.0357752
-0.00469903
0.0362583
-0.00427031
-0.0201297
0.00160532
-0.021749
-0.0201776
0.02112
0.00196641
0.002328
-0.0217537
0.022186
0.00219606
0.00255796
-0.0229076
0.0234384
0.00245539
0.0024393
-0.024008
0.0246195
0.00264809
0.00256235
-0.0252619
0.0259365
0.00262421
0.00264528
-0.0266309
0.0273484
0.00239154
0.00251533
-0.0280755
0.0288157
0.00197224
0.00218726
-0.0295546
0.0302959
0.00140048
0.00168938
-0.0310247
0.0317446
0.000719646
0.00106097
-0.0324406
0.0331167
-2.15388e-05
0.000348208
-0.0337591
0.0343723
-0.00077358
-0.00039934
-0.0349441
0.0354799
-0.00149158
-0.00113421
-0.0359698
0.0364196
-0.00213927
-0.00181569
-0.0368222
0.0371838
-0.00269136
-0.00241312
-0.0374998
0.0377764
-0.00313404
-0.00290716
-0.0380112
0.0382103
-0.00346384
-0.00328956
-0.0383729
0.0385046
-0.00368545
-0.0035613
-0.038606
0.0386816
-0.00380905
-0.00373014
-0.0387332
0.0387642
-0.00384783
-0.00380804
-0.0387768
0.0387738
-0.00381599
-0.00380885
-0.0387574
0.0387294
-0.00372724
-0.0037466
-0.0386923
0.0386471
-0.00359394
-0.00363434
-0.0385962
0.03854
-0.00342671
-0.00348352
-0.0384807
0.0384184
-0.00323445
-0.00330388
-0.0383546
0.0381371
-0.00302452
-0.0031036
-0.0377488
0.0368883
-0.00344757
-0.00288917
-0.00288818
-0.00282982
0.00257478
0.0365505
0.036921
-0.00260283
0.00261429
0.0360381
0.0364029
-0.00260484
0.00257209
0.0347577
0.0351803
-0.0025112
0.00241802
0.0336993
0.0339709
-0.00229459
0.00155439
0.0329397
0.0332164
-0.00138883
0.000955601
0.0329636
0.0327337
-0.0334097
0.034021
-0.0113556
-0.0111715
0.0103266
-0.0310415
-0.0331382
-0.0114429
0.0001558
0.0330799
0.0332878
-0.0334995
0.000975127
-0.033
0.0331927
0.000198648
0.00034201
0.0340316
-0.0338782
0.0016615
0.00162909
0.0337353
-0.0335987
0.00163457
0.00162787
0.0334736
-0.0333582
0.00155592
0.00157628
0.0332564
-0.0331671
0.00142677
0.00147406
0.0330935
-0.033035
0.00125003
0.00132311
0.0329937
-0.0329695
0.00102977
0.00112694
0.032963
-0.0329743
0.000770235
0.000889724
0.0330024
-0.0330472
0.00047466
0.000615293
0.0331059
-0.0331783
0.000143963
0.000305821
0.0332601
-0.0333507
-0.000224503
-3.95875e-05
0.0334453
-0.0335432
-0.000635316
-0.00042432
0.0336394
-0.0337338
-0.0010962
-0.000855265
0.0338225
-0.0339059
-0.00161353
-0.00133937
0.0339815
-0.0340507
-0.00219106
-0.001882
0.0341124
-0.0341687
-0.00282875
-0.00248512
0.0342196
-0.0342674
-0.00352298
-0.00314682
0.0343124
-0.034357
-0.00426801
-0.00386231
0.0344015
-0.0344477
-0.00505708
-0.00462536
0.0344954
-0.0345459
-0.00588304
-0.00542897
0.0345983
-0.0346535
-0.00673854
-0.00626614
0.03471
-0.0347676
-0.00761382
-0.00712868
0.0348238
-0.0348779
-0.00849459
-0.00800494
0.0349264
-0.0349658
-0.00935815
-0.00887699
0.0349902
-0.0346825
-0.0101734
-0.0097188
0.0345611
-0.0349353
-0.0108909
-0.0104873
0.0347145
-0.0344073
-0.010973
-0.0107268
-0.0109885
-0.00681625
-0.01873
0.00751268
-0.0230641
-0.00450558
0.0365157
-0.00608521
-0.0162751
0.00811992
-0.0243979
-0.00503728
-0.014125
0.00874178
-0.0255235
-0.00366478
-0.0133906
0.00911659
-0.0264949
-0.0022417
-0.013224
-0.00133533
-0.0147345
-0.000609431
-0.0203531
0.000832839
-0.000304362
-0.0173065
-0.0273193
0.00960115
0.00984474
-0.0290065
0.0109979
-0.0115796
-0.0325565
0.0103294
-0.030373
-5.89386e-06
0.0333544
0.000235584
-0.000159675
-0.020429
-0.0232507
0.0219831
0.00210039
0.033923
-0.0341813
0.000456887
0.0341942
-0.000277069
-0.0236864
0.000671236
-0.0210526
-0.0229029
0.0228711
0.00142364
0.000685597
-0.0241102
0.0243076
0.00176902
0.00108891
-0.0251237
0.0254338
0.00188599
0.00174186
-0.0260152
0.0264743
0.00199634
0.00185787
-0.0269768
0.0275234
0.00210143
0.00205984
-0.0281029
0.0287159