/*--------------------------------*- C++ -*----------------------------------*\
  =========                 |
  \\      /  F ield         | OpenFOAM: The Open Source CFD Toolbox
   \\    /   O peration     | Website:  https://openfoam.org
    \\  /    A nd           | Version:  10
     \\/     M anipulation  |
\*---------------------------------------------------------------------------*/
FoamFile
{
    format      ascii;
    class       surfaceScalarField;
    location    "69";
    object      phi;
}
// * * * * * * * * * * * * * * * * * * * * * * * * * * * * * * * * * * * * * //

dimensions      [0 3 -1 0 0 0 0];

internalField   nonuniform List<scalar> 
57492
(
0.000235502
-1.05854e-05
-4.36772e-05
-0.00018124
-0.000162354
0.000267204
0.000130653
-2.87512e-05
8.08247e-05
0.000323253
-0.000375326
0.00315985
0.0033864
-0.000272118
-0.00627414
-0.00862824
0.00404526
0.00774283
0.000705237
-0.000648784
-0.000340298
0.000283845
-0.00125653
0.000216357
-7.46406e-05
0.00111481
0.000269851
-0.000821146
0.00159114
-0.00463316
0.00442547
-0.00138344
0.00134291
0.00424888
-0.00400065
-0.000610832
-0.000206241
0.000683324
0.000133749
-0.000122287
-0.000831259
0.000342715
0.000231511
-0.000324842
-2.89557e-05
-5.31851e-05
7.84547e-05
0.00167586
-0.00161767
-0.000606352
0.00054816
0.000241305
0.00135251
8.20485e-05
-0.000324684
0.000788543
0.00333523
-0.00379909
-0.000660831
0.00326111
-0.00292497
0.000135421
-0.00028848
0.000153059
-0.00166294
0.00121968
0.00057868
-0.0046598
0.000189403
0.00333551
0.00113488
0.00122831
-0.00472996
-0.00115815
-0.000132932
-0.000196081
-0.00070147
0.00103048
-0.000286735
0.000175812
-2.20088e-05
-0.00254378
0.00215924
0.000733892
-0.000349354
-0.00304733
0.000925679
-0.000422128
-0.00112712
0.000596072
0.000456552
7.44942e-05
-0.000778586
-0.000362062
1.353e-05
-0.000367051
-0.00113315
0.00128997
0.000210238
-0.000415793
0.000116306
-6.75644e-05
0.000734347
-0.000488652
-0.000455316
0.000209621
-0.000633547
0.000509983
0.000857911
-0.000868458
-0.0016646
0.00161441
0.000918643
-0.00198044
-0.000472794
0.00158478
-0.000707287
-0.000152
0.000859287
-0.000271214
-0.000436073
-0.00137447
0.00189185
-0.000788594
0.000203042
-0.000767246
-0.000810266
-0.000556097
0.000772454
-0.000233031
-0.00190187
0.00115085
0.000751024
-0.00432174
0.00241987
0.00487508
-0.0008136
0.000342335
-0.00440382
0.00358465
-8.74536e-05
0.00137788
-0.000721357
0.0048896
-0.00498185
0.00138115
0.000298386
-0.00140969
0.00139314
-8.66301e-05
0.00168869
-0.000633063
-0.00125781
0.000202186
0.00189052
9.65561e-05
0.000860237
-0.000535652
0.00106856
0.000837616
0.00113744
-0.00475593
-0.000634295
0.000545489
0.00484474
-0.00488912
-0.000297988
0.000431178
0.00121905
0.0045128
-0.00443752
-0.00129433
0.000890763
-0.00430488
-0.00277567
0.00252766
0.00253259
-0.00228458
-0.000272003
0.00320155
-0.00570522
1.4828e-05
-0.000116478
-8.01637e-07
0.000102452
-0.000320652
1.06375e-05
6.69008e-05
-0.000135753
-0.000251799
-5.6229e-05
6.65186e-06
1.11041e-05
-1.19058e-05
8.83614e-06
2.268e-06
0.00730087
0.00378534
-0.00587773
-0.00520848
0.0023372
-0.00070189
0.00566556
-0.00785093
0.00309897
0.00708916
0.002293
-0.00635859
0.00162396
-0.00286546
0.00213332
-0.000891823
0.00235588
-0.00291404
0.00218212
-2.98224e-05
2.17954e-05
-2.55836e-06
-7.00971e-05
-3.4025e-06
-0.00022239
-2.8947e-05
-0.00293782
0.00534682
0.00339258
-0.00580157
0.00436271
-0.00494466
0.00298418
0.00474663
-0.002384
0.0100824
-0.00147991
-0.00179069
-0.00681183
0.00224356
0.00541776
0.00242111
0.00160649
-0.00500399
0.00564106
4.67722e-05
-7.55234e-05
0.000127597
0.000815733
0.00175684
-0.000626066
-0.0019465
0.00103941
9.95737e-05
-9.56e-05
2.62658e-05
6.93342e-05
-0.00029768
0.00020208
-0.00660343
0.00342327
-0.00201299
0.00519315
-0.00574067
-0.00249553
0.00163276
-0.00262461
0.00208773
-0.00520379
0.00195121
-2.66071e-05
-0.000943975
-0.000980628
-0.000711371
0.00222683
0.000435754
-0.000834339
-8.52216e-05
0.00020819
-0.000771298
-8.96486e-05
-0.000271393
-0.00144388
-0.000237191
-6.24429e-05
1.87363e-05
0.000280898
-0.000215073
-0.000521118
0.000499
0.000137526
1.68955e-05
-0.000369495
7.9296e-05
-4.21274e-06
0.000100666
-2.63388e-06
-0.000640915
0.000369522
8.34456e-05
-0.000724361
0.00017223
-0.00046991
0.00427363
0.00333161
-0.000178527
0.00212863
-0.00648324
-1.03955e-05
0.002264
-0.00179749
-0.000456113
0.000291696
0.00316418
-0.00346627
0.00326874
0.00184011
-0.000499049
-0.0046098
-0.00103341
0.000501628
0.00380052
0.00398779
-0.00318109
-0.00164269
-0.0030345
0.00125151
0.00342569
-0.00118469
0.00350481
-0.00396281
0.000423582
-0.00464278
8.23319e-05
3.37205e-05
-4.57366e-06
0.00104405
-0.000615737
-0.000590665
7.66011e-05
-0.000323662
0.00129111
0.000362918
-1.91131e-05
-0.000187163
0.000331826
6.83221e-05
-0.000212985
0.000991749
-0.00121534
3.64243e-05
-0.000357662
0.000830877
0.000518534
-0.000125123
9.92864e-05
-0.00611208
0.00365143
0.00588391
0.00772167
-0.00200584
-0.00821135
-0.00285494
0.00446453
-9.70864e-05
-0.000874
-0.000162068
-0.000522001
9.12197e-06
4.78195e-05
-0.000129998
3.7344e-05
4.48349e-05
-0.000129968
0.000144405
3.33819e-05
-0.000299199
3.92325e-05
-0.000265182
-0.00031263
5.58112e-05
-0.000803371
-0.000335812
-0.000794241
-0.000851999
0.000973451
0.000672789
3.2532e-05
0.00042053
-0.0012473
-0.00111095
0.000291483
-0.00293341
0.00133045
-5.99794e-05
-0.00350204
0.000809433
-0.000240804
0.000875944
-0.00334737
0.0025642
-9.27699e-05
0.000678982
-0.00272851
0.00292547
0.00252816
-0.0101973
-0.0017652
0.00218151
0.00302107
-0.00345582
0.00206065
-0.000320794
3.29603e-07
1.65659e-05
-3.45626e-06
3.78586e-06
0.000284155
-4.12869e-05
0.00558647
-0.0034124
-0.0024914
0.000317333
0.00483594
2.91717e-05
0.00464037
0.000167635
-0.00508001
0.00137944
0.00329538
-3.44443e-05
0.000550688
-0.00291136
0.00374011
5.33301e-06
-8.78927e-06
0.000759143
-0.00211958
-0.00284609
0.00123159
0.00308297
0.000828012
-4.72955e-05
-0.00087046
8.97436e-05
0.00027512
-8.06549e-05
-0.00106607
0.000235936
0.00134012
0.000193915
-0.000984866
-0.000134926
7.59945e-05
-7.19464e-06
1.03288e-05
-2.80874e-06
-3.25438e-07
1.09296e-05
-2.47864e-07
-1.78763e-05
4.66161e-05
-0.000103737
6.80505e-05
-0.00171565
0.00264884
-0.000760958
0.00291613
-0.00378228
-0.0008495
6.58547e-06
-0.00146556
0.00169491
-0.00399028
0.000241061
-0.00273553
-0.00183046
0.000575709
0.00269107
0.00291146
-0.00541313
0.00260537
0.00429277
-0.00420706
0.00224048
-0.00308404
0.001606
-0.000762434
0.00245572
-0.00302318
0.00280794
0.00437031
0.00187667
0.00500168
-0.000230597
-0.00496727
0.000196192
0.00554249
-0.000659057
0.000118242
0.0055288
-0.00090538
8.4769e-05
-0.00470819
0.00396824
-0.00137748
0.00293804
0.00430757
-0.00140542
0.00114237
-0.00404452
0.00127108
0.00438753
-0.00135104
-0.00387583
-0.0016669
0.00413731
0.001068
-0.00369233
-0.00186117
0.00361995
-0.00237971
-0.00323884
0.00215563
0.00346292
-0.00239563
-0.00326689
0.0032828
0.00223548
0.00304565
-0.00147501
-0.00380612
0.00301943
-0.00317957
-0.00258978
0.00261437
0.00299483
-0.00204118
0.00249706
-0.00406862
0.00361468
-0.00102107
-0.00506503
0.00105388
0.00537433
-0.00136318
0.00191064
-0.000264582
0.000990294
-0.0010562
0.000330484
-0.000107973
0.00126955
-0.00142616
-5.2963e-05
0.000305155
0.000110726
-0.0010693
-0.00167567
0.00109065
-1.65067e-07
-8.27976e-08
3.09683e-07
-4.7475e-07
-9.86795e-05
-0.00184909
0.00141212
-0.00164913
-6.63251e-05
0.00161677
4.52029e-05
-0.00172843
3.41e-05
-0.000243573
0.00156045
0.000268901
-0.00158578
0.00160525
0.000448329
-0.00229716
0.00159188
0.00157382
-2.44931e-06
5.02309e-07
3.56675e-05
-4.75497e-06
2.30566e-06
-4.25266e-06
-5.54064e-06
4.22918e-06
-5.49175e-05
1.02473e-06
-6.56537e-06
5.25391e-06
-4.39042e-05
2.12747e-05
-0.000264105
2.21584e-05
-6.60627e-05
4.34331e-05
5.32046e-05
-5.34093e-06
-0.000172987
-1.69097e-05
7.01143e-05
-2.22506e-05
0.00142676
0.00327888
-0.00420401
0.00132467
-0.00446305
0.00456515
0.00471394
-0.00011039
-0.00118218
-0.0024442
0.00115804
0.00246834
-0.000710417
0.00272161
-0.00319337
0.000157318
-0.00331194
0.00375493
-0.00376606
-1.65157e-05
2.76494e-05
0.00377728
2.92482e-05
-5.16007e-05
-2.78787e-05
-0.00373584
-2.3456e-06
0.00382948
-6.06383e-06
-4.61378e-05
0.0039218
5.11093e-05
-0.000143426
2.28209e-05
0.00404383
-0.000144853
0.00399444
-0.00394715
-2.44675e-05
-0.000194093
0.00425765
-1.97271e-05
0.00390629
-0.000105944
-0.00380297
-9.30751e-05
-0.00376632
-4.27107e-05
-0.00373714
6.79126e-08
-0.00379268
3.90233e-05
-0.00370616
-0.000114403
-0.000190298
0.00446763
-1.96749e-05
0.00374557
-2.95786e-05
-2.27452e-05
-0.00367952
-3.35766e-05
-0.00371151
-1.73903e-05
-3.0107e-05
-0.00386625
0.000216838
-6.78168e-06
0.00449361
-1.92029e-05
0.00376811
-2.93139e-05
-0.00382184
8.02243e-05
0.00451931
-6.67475e-06
-1.90246e-05
-6.74021e-06
0.00454448
-1.84276e-05
0.00379012
-2.86904e-05
0.00381186
-2.8483e-05
-2.54577e-05
-0.00381667
-2.4124e-05
-0.00381579
-3.15107e-05
-6.47491e-06
0.00456921
-1.82539e-05
0.00383318
-2.77938e-05
-3.50945e-06
-0.00378852
-2.46369e-05
-0.0037876
-3.17028e-05
-6.35864e-06
0.00459321
-1.76452e-05
0.00385436
-2.7537e-05
-3.1059e-06
-0.00376006
-2.53545e-05
-0.00375921
-3.14888e-05
-5.80174e-06
0.0046165
-1.74854e-05
0.00387533
-2.67743e-05
-2.8879e-06
-0.0037314
-2.57738e-05
-0.00373049
-3.16096e-05
-5.16767e-06
0.00463853
-1.68669e-05
0.00389663
-2.64674e-05
-2.46411e-06
-0.00370251
-2.64243e-05
-0.00370162
-3.1331e-05
-3.60147e-06
0.00465885
-1.67179e-05
0.00391866
-2.56262e-05
6.3657e-06
-0.00368207
-2.68049e-05
-0.00366392
-3.13442e-05
-9.88952e-07
0.00467592
-1.60838e-05
0.00394292
-2.52553e-05
2.20993e-05
-0.00354996
-0.000154208
-0.00357312
-6.86951e-05
4.50653e-06
0.00468735
-1.59348e-05
0.00395368
-6.2509e-06
2.19345e-05
-0.00353888
-3.30181e-05
-0.00351849
-3.26914e-05
1.49211e-05
0.00468771
-1.52821e-05
0.00394384
2.47603e-05
4.88663e-05
-0.00338599
-0.000201752
-0.00338934
-8.02882e-05
0.000196402
0.00450642
-1.51118e-05
0.0040818
5.84454e-05
5.60178e-05
-0.00334273
-9.92785e-05
-0.00332476
-8.56611e-06
0.000174376
0.00419257
0.000139479
0.00416701
8.91652e-05
8.92235e-05
-0.000154809
-0.00327715
-0.00328402
4.84852e-05
8.70616e-06
2.65283e-05
0.00415733
0.00415728
1.84402e-05
-0.00336457
0.00344583
-0.000180545
-0.00335543
-0.000163947
0.000151579
-0.000160537
-0.00326819
4.75857e-05
-0.00318003
-0.00339905
0.00345633
-9.02973e-05
-0.000154968
-0.0033564
0.00338306
-5.34616e-05
-5.42806e-05
-0.00340934
0.00343549
-5.19217e-05
-5.27051e-05
-0.00346128
0.00348697
-5.03297e-05
-5.11453e-05
-0.00351237
0.00377801
-4.88055e-05
-4.95239e-05
-0.00379256
0.00376554
2.46777e-05
-4.81246e-05
-0.00391202
0.00390628
-4.58658e-05
-0.00011883
-0.00380446
0.00377217
-0.000111131
5.56811e-05
-0.00370534
0.00372834
-4.27257e-05
-7.80216e-05
-0.00375076
0.0037729
-4.13424e-05
-4.20965e-05
-0.00379456
0.00381599
-3.98601e-05
-4.06844e-05
-0.00383692
0.00385759
-3.83164e-05
-3.91792e-05
-0.00387772
0.00389758
-3.67231e-05
-3.76221e-05
-0.00391688
0.00393587
-3.50767e-05
-3.60161e-05
-0.00395428
0.00397235
-3.33433e-05
-3.43488e-05
-0.00396666
0.00407706
2.90742e-05
-9.42377e-06
0.00408362
1.99681e-05
-2.87399e-05
6.73321e-05
0.00411874
-2.42009e-05
0.00415274
0.0040752
-0.00399091
-2.5846e-05
-0.00413245
0.00414075
1.01395e-05
3.19166e-05
0.00397258
-0.00393599
-4.2841e-05
6.42346e-06
0.00391715
-0.0038977
-4.50826e-05
-4.40892e-05
0.00387799
-0.00385768
-4.70803e-05
-4.61752e-05
0.00383715
-0.00381603
-4.891e-05
-4.80731e-05
0.0037947
-0.00377281
-5.05833e-05
-4.98124e-05
0.00375071
-0.00372816
-5.21356e-05
-5.14062e-05
0.00378121
-0.00375223
-5.34439e-05
-5.28907e-05
0.0037913
-0.00372623
-0.000107776
-5.40107e-05
0.00367784
-0.00362977
-9.04538e-06
-4.83271e-05
0.00365052
-0.00364915
-1.87648e-05
-9.36508e-05
0.00351226
-0.00348684
-5.69261e-05
-5.6667e-05
0.00346132
-0.00343538
-5.74285e-05
-5.72275e-05
0.00340934
-0.00338291
-5.77641e-05
-5.76413e-05
0.00335635
-0.00336708
-5.79694e-05
-5.7902e-05
0.0033417
-0.00336385
-5.8137e-05
-5.80741e-05
0.0033141
-0.00323906
-2.65548e-05
-5.83182e-05
-0.00317772
-1.37512e-05
-0.00335253
-0.000163437
0.00411313
3.78281e-05
-3.65928e-05
0.00415315
8.95217e-05
-0.000105572
-0.00316398
3.85884e-05
-0.00312679
0.000137803
-0.000159503
-0.00333083
-0.00323596
-0.0033647
0.00333668
-0.000152525
0.00337625
-0.00337673
-0.000162952
-0.000152402
-0.00332021
0.00334689
-0.00011698
-0.000138495
-0.00337317
0.00339936
-7.96508e-05
-8.0558e-05
-0.00342518
0.00345087
-7.76118e-05
-7.852e-05
-0.00347619
0.00350142
-7.55533e-05
-7.64745e-05
-0.00352631
0.00355102
-7.35199e-05
-7.44146e-05
-0.00357533
0.00367157
-7.15628e-05
-7.24307e-05
-0.00362321
0.00364687
-6.95246e-05
-7.04737e-05
-0.00377103
0.00372743
-6.75362e-05
-6.84732e-05
-0.00371571
0.00373827
-6.52802e-05
-6.63036e-05
-0.00376031
0.00378211
-6.31403e-05
-6.414e-05
-0.00380341
0.00382449
-6.09346e-05
-6.19869e-05
-0.00384505
0.00386537
-5.86356e-05
-5.97455e-05
-0.00388516
0.00390468
-5.6242e-05
-5.74114e-05
-0.00392365
0.00394232
-5.37488e-05
-5.49827e-05
-0.00396042
0.00397818
-5.11051e-05
-5.24443e-05
-0.00399512
0.00404373
-1.95416e-05
-2.63635e-05
-3.22448e-06
-2.18076e-05
0.00414377
-2.61976e-05
0.0041361
-0.00404775
0.00410368
-1.81017e-05
1.59554e-05
0.00409038
-0.00407488
-5.35652e-06
0.00407322
-1.94404e-05
1.72311e-05
1.24035e-05
0.00412351
0.00414816
0.0040587
-0.00401254
-7.2002e-05
1.57365e-05
0.00396086
-0.00394258
-6.11288e-05
-4.52559e-05
0.00392405
-0.00390492
-6.42123e-05
-6.26193e-05
0.00388555
-0.00386559
-6.70371e-05
-6.55421e-05
0.00384542
-0.00382467
-6.96558e-05
-6.82488e-05
0.00380373
-0.00378224
-7.20716e-05
-7.07554e-05
0.00376058
-0.00373843
-7.4285e-05
-7.3063e-05
0.00371617
-0.00369337
-7.62369e-05
-7.51575e-05
0.00367041
-0.00370019
-7.79916e-05
-7.69744e-05
0.0036699
-0.00359948
-7.94728e-05
-7.8617e-05
0.00361308
-0.00355097
-8.08714e-05
-8.00496e-05
0.00352636
-0.00350133
-8.19595e-05
-8.12753e-05
0.00347622
-0.00345071
-8.29419e-05
-8.23357e-05
0.0034251
-0.00339909
-8.37777e-05
-8.32482e-05
0.00337296
-0.00334642
-8.45114e-05
-8.40302e-05
0.00331974
-0.00329265
-8.52261e-05
-8.47485e-05
0.00326547
-0.00320603
-8.59895e-05
-8.55057e-05
0.00316103
-0.00309215
-3.02858e-05
-5.87572e-05
-0.00337237
-0.000163868
2.50392e-05
-0.00010013
-0.00305169
-0.00304684
-2.027e-05
-0.000174787
-0.00308932
-1.7729e-05
0.00409521
0.00409542
-9.79801e-06
-0.000105715
9.57787e-05
-0.00332089
-0.000131716
-0.00334637
2.90679e-06
-9.61672e-05
-0.00295843
-4.33144e-05
-0.00300062
-0.00331496
0.00412028
-0.00409333
-4.50473e-05
0.00409323
9.31796e-06
3.85637e-05
-1.25963e-05
0.00409754
-1.23384e-06
0.00413522
-0.00334262
0.00340642
-0.000195514
-0.000178272
0.000131604
-0.0032997
0.00339278
1.95298e-05
0.000168491
-0.0035808
-0.000128117
-0.00342967
0.00342903
-0.000162315
-0.000187113
-0.00341064
0.00338108
-0.000122965
-0.000134017
-0.00338135
0.00337209
-0.000107714
-0.000138766
-0.00339772
0.00342322
-0.000105143
-0.000106194
-0.00344833
0.00347332
-0.000102601
-0.000103635
-0.00349795
0.00352248
-0.000100079
-0.000101109
-0.00354666
0.00357071
-9.75714e-05
-9.85925e-05
-0.00359438
0.00361789
-9.50773e-05
-9.60993e-05
-0.00364102
0.00366403
-9.25333e-05
-9.35993e-05
-0.00368659
0.003709
-8.99439e-05
-9.10367e-05
-0.00373105
0.00375295
-8.71804e-05
-8.83543e-05
-0.00377439
0.00379563
-8.43762e-05
-8.55835e-05
-0.00381638
0.00383692
-8.14713e-05
-8.27434e-05
-0.00385696
0.00387676
-7.84379e-05
-7.97863e-05
-0.00389605
0.00391508
-7.52673e-05
-7.6697e-05
-0.00393356
0.00395177
-7.19532e-05
-7.34703e-05
-0.00396941
0.00398676
-6.84501e-05
-7.00912e-05
-0.00401451
0.00403709
-4.21168e-05
-5.41155e-05
-4.02893e-05
1.46261e-05
-1.29343e-05
0.00414208
-1.57102e-05
-3.11601e-05
0.00414208
0.00413502
0.00412263
0.00408612
-0.00406626
-2.52202e-05
-0.00409544
0.0040875
-1.85748e-06
-2.87574e-05
0.00400421
-0.00400139
-7.48241e-05
-4.63077e-05
0.00396998
-0.00395214
-7.89636e-05
-7.66696e-05
0.00393408
-0.00391544
-8.28553e-05
-8.06782e-05
0.00389657
-0.00387713
-8.64802e-05
-8.44123e-05
0.00385748
-0.00383727
-8.98592e-05
-8.79002e-05
0.00381688
-0.00379597
-9.29869e-05
-9.11444e-05
0.00377489
-0.00375332
-9.58539e-05
-9.41372e-05
0.00373162
-0.00370942
-9.84348e-05
-9.68618e-05
0.00368709
-0.00366431
-0.000100769
-9.93081e-05
0.00364141
-0.00361805
-0.000102836
-0.000101517
0.00359461
-0.00357077
-0.000104707
-0.000103492
0.00354681
-0.00352244
-0.000106331
-0.000105238
0.00349798
-0.00347312
-0.000107799
-0.000106793
0.00344817
-0.00342282
-0.000109129
-0.000108199
0.00339736
-0.0033715
-0.000110373
-0.000109489
0.00334552
-0.00331913
-0.000111612
-0.000110732
0.00329262
-0.0032657
-0.000112916
-0.000112013
0.00321106
-0.00312693
-0.00011442
-0.00011339
0.00306844
-0.0030509
-6.08529e-05
-7.87605e-05
-3.18183e-05
7.48545e-06
-0.00297629
-0.00301124
-7.14734e-05
0.000122504
-0.00331179
-7.31474e-05
-0.00311234
-1.7352e-05
0.00407942
0.00411632
-3.00614e-05
0.000170121
-0.00345029
3.6489e-05
-0.00298744
0.000759876
-0.00275824
0.00359025
3.68472e-05
-8.03964e-05
-0.0029677
-1.72455e-05
-0.0029222
-0.00222072
0.00339956
0.000394979
-0.0016883
-0.000263512
-0.00326561
-0.00325036
0.00341157
7.28191e-06
0.000158649
-9.45511e-06
-0.00340145
0.00339463
-0.000188701
-0.00011799
-0.00339176
0.00336881
-0.000139366
-0.000184243
-0.00337208
0.00338506
-0.000135941
-0.000137288
-0.00338021
0.00340517
-0.000132679
-0.000133912
-0.00342979
0.00345428
-0.00012964
-0.000130809
-0.00347845
0.0035025
-0.000126656
-0.000127798
-0.00352623
0.00354985
-0.0001237
-0.000124832
-0.00357313
0.0035963
-0.000120743
-0.000121876
-0.00361911
0.0036418
-0.000117764
-0.000118912
-0.00366411
0.0036863
-0.000114718
-0.000115908
-0.00370808
0.00372972
-0.00011158
-0.000112824
-0.00375098
0.00377208
-0.000108287
-0.000109611
-0.00379276
0.00381326
-0.00010487
-0.000106263
-0.00383329
0.00385313
-0.000101303
-0.000102782
-0.00387248
0.00389161
-9.75663e-05
-9.91422e-05
-0.00391024
0.00392863
-9.36507e-05
-9.53292e-05
-0.00394649
0.00396409
-8.95504e-05
-9.13373e-05
-0.00398115
0.00399794
-8.5236e-05
-8.71556e-05
-0.00402656
0.00406514
-8.0694e-05
-8.27345e-05
-0.00407051
0.00408243
-5.69688e-05
-4.56599e-05
-0.00411294
0.00412094
-2.53491e-05
-2.11987e-05
1.61978e-05
-5.47676e-06
0.00413136
2.12696e-05
-6.32715e-05
0.00416294
0.00411689
2.85486e-05
1.33868e-05
0.00410015
0.00415809
-1.01459e-05
-1.32799e-05
0.00412097
0.00412587
2.38283e-05
-5.91509e-05
0.00415165
0.00414577
0.00413394
-0.00410517
-3.06226e-05
-0.0042111
0.00411474
3.72072e-05
-0.000107224
0.00408064
-0.00405682
-4.90415e-05
-5.3289e-05
0.00401488
-0.00399848
-9.12319e-05
-8.82422e-05
0.00398181
-0.00396459
-9.61909e-05
-9.3332e-05
0.00394714
-0.00392913
-0.000100865
-9.8126e-05
0.0039109
-0.00389213
-0.000105256
-0.000102638
0.00387315
-0.00385365
-0.000109361
-0.000106873
0.00383398
-0.00381379
-0.000113169
-0.000110822
0.00379346
-0.00377264
-0.00011667
-0.000114473
0.00375169
-0.00373027
-0.000119856
-0.000117815
0.00370872
-0.00368674
-0.000122751
-0.000120854
0.00366464
-0.00364212
-0.00012536
-0.000123612
0.00361951
-0.00359649
-0.000127721
-0.000126104
0.00357338
-0.00354987
-0.000129842
-0.000128351
0.00352627
-0.00350229
-0.000131783
-0.000130391
0.00347821
-0.00345375
-0.000133587
-0.000132274
0.0034292
-0.00340426
-0.000135314
-0.000134047
0.00337921
-0.00335378
-0.000137041
-0.000135781
0.00332824
-0.00330231
-0.000138843
-0.000137555
0.00327626
-0.00324988
-0.000140805
-0.000139436
0.00318713
-0.00310499
-0.000142998
-0.000141507
0.00308532
-0.00305
-0.000115719
-9.11369e-05
-7.44501e-05
5.22686e-05
-0.00294551
-0.00300456
-0.000119891
0.000117645
-0.00325932
-1.79634e-05
-0.00305789
0.000293141
-0.00298356
3.72177e-05
-0.0030419
0.00413495
-0.00412658
-3.37228e-05
0.00413216
-6.04797e-05
-8.71695e-06
1.06945e-05
0.00414967
-5.91857e-05
0.00416521
0.000310928
-0.00262084
6.79092e-05
-0.00293784
-0.00148066
-0.00179342
-0.0026606
0.00308938
-3.37975e-05
-5.44441e-05
4.78159e-05
-0.00293889
-9.66147e-05
-0.00296239
-0.00244116
-0.000482955
-0.00316593
-0.00324887
0.00331443
-5.8276e-05
-8.45489e-07
-0.00336596
0.00334488
-0.000167614
-0.000169523
-0.0033257
0.00334993
-0.000163593
-0.000165067
-0.00337393
0.00339788
-0.000159896
-0.000161289
-0.00342163
0.0034453
-0.000156352
-0.000157654
-0.00346869
0.003492
-0.000152948
-0.000154198
-0.00351501
0.00353794
-0.000149583
-0.000150812
-0.00356056
0.00358309
-0.000146231
-0.000147453
-0.0036053
0.00362742
-0.000142857
-0.000144091
-0.0036492
0.00367087
-0.000139432
-0.000140693
-0.00369218
0.00371338
-0.000135914
-0.000137226
-0.00373421
0.0037549
-0.00013227
-0.000133651
-0.00377521
0.00379538
-0.000128455
-0.000129926
-0.00381514
0.00383474
-0.000124464
-0.000126029
-0.00385391
0.00387288
-0.000120276
-0.000121948
-0.0038914
0.00390971
-0.000115876
-0.000117665
-0.00392755
0.00394515
-0.000111254
-0.000113167
-0.00396227
0.00397913
-0.00010641
-0.000108451
-0.00399548
0.00401158
-0.000101333
-0.000103511
-0.00402717
0.00404248
-9.6004e-05
-9.83307e-05
-0.00408973
0.0040903
-5.75343e-05
-9.29073e-05
-5.74808e-05
4.45012e-06
-4.5218e-05
0.00417212
3.47776e-05
-3.66215e-05
0.00416479
0.00415612
-1.10575e-05
-3.12581e-06
0.00411433
0.00410181
-2.26784e-05
2.7708e-05
0.00411594
0.00410007
0.00418417
0.00414712
-0.00412148
-5.62621e-05
-0.00410998
0.00416186
-1.46733e-05
-7.00779e-05
0.00409501
-0.0040431
-0.000100955
-7.97584e-05
0.00402791
-0.00401218
-0.000106956
-0.000103434
0.00399624
-0.00397975
-0.000112679
-0.00010928
0.00396304
-0.0039458
-0.000118104
-0.000114829
0.00392836
-0.0039104
-0.000123221
-0.000120082
0.00389225
-0.00387359
-0.000128014
-0.000125024
0.00385477
-0.00383548
-0.000132468
-0.00012964
0.00381603
-0.00379613
-0.000136574
-0.000133917
0.00377609
-0.00375562
-0.000140332
-0.000137849
0.00373503
-0.00371401
-0.000143762
-0.000141446
0.0036929
-0.00367138
-0.000146879
-0.000144727
0.00364977
-0.00362778
-0.000149716
-0.000147713
0.00360569
-0.00358323
-0.000152303
-0.000150435
0.00356069
-0.00353777
-0.000154695
-0.000152936
0.00351478
-0.00349142
-0.000156946
-0.000155271
0.00346797
-0.00344417
-0.000159119
-0.000157495
0.00342027
-0.00339602
-0.000161289
-0.000159678
0.00337168
-0.003347
-0.000163526
-0.000161897
0.00332222
-0.00329713
-0.000165895
-0.000164213
0.00327196
-0.00324652
-0.000168438
-0.000166674
0.00316828
-0.00311284
-0.000171153
-0.000169384
0.00306053
-0.00301479
-0.000142354
-0.000172204
-6.68453e-05
6.92595e-05
-0.0029648
-0.00297743
-0.0001042
9.16817e-05
-0.00305786
6.7574e-06
-0.00302743
-3.0626e-05
0.00412617
0.00415994
-5.72742e-05
0.00018696
-0.00285959
-0.000287213
-0.00349061
1.7285e-05
-0.00292534
3.79192e-05
-0.00301191
6.84928e-05
-0.00295851
-0.0034738
-0.000760776
0.000255739
-0.000513196
-0.00321634
-0.000150345
-0.00308452
4.83915e-05
-0.00291802
-9.83853e-05
2.86165e-05
-0.00289503
-8.82463e-05
-0.00298757
-0.00306749
-0.00296537
0.0031213
-0.000189733
0.0030957
-0.00337021
-0.000486267
-0.000352621
-0.00324078
0.00331025
-0.000127743
-0.000120326
-0.00333322
0.00335622
-0.000190619
-0.000192493
-0.00337907
0.00340187
-0.000186392
-0.000187915
-0.00342447
0.00344703
-0.000182461
-0.000183884
-0.00346938
0.00349168
-0.000178649
-0.000180002
-0.00351372
0.0035357
-0.000174926
-0.00017624
-0.00355741
0.00357905
-0.000171224
-0.000172524
-0.00360041
0.00362169
-0.000167513
-0.000168815
-0.00364268
0.00366358
-0.000163758
-0.00016508
-0.00368418
0.00370467
-0.000159923
-0.000161285
-0.00372483
0.00374489
-0.000155969
-0.000157392
-0.0037646
0.00378419
-0.000151856
-0.000153363
-0.00380342
0.00382251
-0.000147548
-0.000149156
-0.00384122
0.00385978
-0.00014302
-0.000144744
-0.00387794
0.00389591
-0.000138254
-0.000140105
-0.00391347
0.00393083
-0.000133234
-0.000135222
-0.00394775
0.00396444
-0.000127952
-0.000130084
-0.00398068
0.00399668
-0.00012241
-0.000124688
-0.00401221
0.00402748
-0.00011661
-0.000119037
-0.00404228
0.00405683
-0.000110552
-0.000113131
-0.0040709
0.00411762
-0.000104253
-0.000106972
-0.00413311
0.00415503
-5.56449e-05
-7.29746e-05
-0.00411218
0.00414092
-5.93708e-05
-1.76275e-05
5.06673e-06
-1.78713e-07
0.0041599
6.39294e-05
-9.75624e-05
0.00417456
0.00419516
1.39868e-05
2.42216e-05
0.00413392
0.00416993
-1.06983e-05
-2.99471e-06
0.00412802
0.00411534
1.66182e-05
-3.01309e-05
0.00412945
0.00411369
1.33628e-05
-3.31889e-05
0.0041695
0.00416741
5.32809e-05
-6.00197e-05
0.00416668
0.0041853
0.0041876
-0.00412812
-7.4151e-05
-0.00417958
0.004168
-4.84422e-05
-4.92581e-05
0.00412492
-0.00410295
-7.82354e-05
-7.32761e-05
0.00407168
-0.00405751
-0.000115126
-0.000111023
0.00404311
-0.0040282
-0.000121866
-0.000117839
0.00401308
-0.00399744
-0.000128315
-0.000124403
0.0039816
-0.00396525
-0.00013445
-0.000130669
0.00394872
-0.00393169
-0.000140247
-0.000136617
0.00391449
-0.00389682
-0.000145684
-0.000142222
0.003879
-0.00386072
-0.000150743
-0.000147464
0.00384231
-0.00382347
-0.000155418
-0.000152329
0.0038045
-0.00378512
-0.000159713
-0.000156816
0.00376563
-0.00374575
-0.000163645
-0.000160934
0.00372577
-0.00370541
-0.000167237
-0.000164705
0.00368497
-0.00366416
-0.000170524
-0.000168157
0.00364327
-0.00362203
-0.000173546
-0.000171325
0.00360071
-0.00357904
-0.00017636
-0.000174257
0.0035573
-0.00353523
-0.000179023
-0.000177012
0.00351307
-0.00349059
-0.000181602
-0.00017965
0.00346802
-0.00344514
-0.000184169
-0.00018224
0.00342219
-0.00339892
-0.000186789
-0.000184853
0.00337559
-0.00335197
-0.000189518
-0.000187548
0.00332827
-0.00330431
-0.000192401
-0.00019037
0.00328033
-0.00325606
-0.000195416
-0.000193366
0.00323177
-0.00317542
-0.000198703
-0.000196498
0.00312124
-0.00304736
-0.000162126
-0.000158385
-0.000132447
8.21637e-05
-0.00293729
-0.0030252
-0.000154605
6.6831e-05
-0.00293773
-0.00337996
-0.000503441
6.57452e-05
-0.00290805
0.00420454
-0.0042047
-5.92074e-05
0.00421183
-0.000104857
-3.64948e-05
2.90021e-05
0.00417418
-3.63407e-05
0.00416785
7.35947e-06
-0.00299687
3.83775e-05
-0.0029818
-1.40109e-05
-0.00306168
6.88198e-05
-0.00297894
9.91081e-05
-0.00298851
0.00012924
-0.00294211
-0.000118953
0.000121314
-0.00293965
-0.000174524
-0.00296963
-0.0029933
-0.00338016
0.00325099
-0.000357098
-0.000439461
0.000517251
-0.00345775
0.00349246
-0.0036018
-0.000330121
-0.000391135
-0.0031536
0.00322914
-0.00026527
-0.000255238
-0.00331473
0.00337351
-0.000186522
-0.000205913
-0.00339517
0.0034168
-0.000212253
-0.000214152
-0.00343824
0.00345961
-0.000207766
-0.000209353
-0.00348076
0.00350186
-0.000203558
-0.000205031
-0.00352274
0.00354356
-0.000199475
-0.000200882
-0.00356415
0.00358469
-0.000195459
-0.000196831
-0.00360498
0.0036252
-0.000191451
-0.000192814
-0.00364517
0.00366508
-0.000187414
-0.000188786
-0.00368471
0.00370426
-0.000183312
-0.000184713
-0.00372353
0.00374271
-0.000179104
-0.000180556
-0.0037616
0.00378038
-0.000174749
-0.000176274
-0.00379884
0.00381719
-0.000170207
-0.000171827
-0.00383521
0.0038531
-0.000165439
-0.000167175
-0.00387064
0.00388804
-0.000160417
-0.000162285
-0.00390506
0.00392193
-0.000155117
-0.000157131
-0.0039384
0.00395469
-0.000149524
-0.000151694
-0.00397057
0.00398625
-0.000143632
-0.000145964
-0.0040015
0.00401653
-0.000137443
-0.00013994
-0.00403113
0.00404548
-0.000130969
-0.000133628
-0.00405939
0.00407306
-0.000124221
-0.00012704
-0.00408628
0.00409924
-0.000117209
-0.000120191
-0.00413936
0.00416632
-8.26074e-05
-0.000113098
-5.60049e-05
-4.12184e-05
2.77252e-06
0.00419835
3.97466e-05
-8.26531e-05
0.00421746
0.00419369
-3.61843e-05
2.33433e-05
0.00414676
0.00413651
-1.03159e-05
-2.85953e-06
0.0041412
0.00412836
1.59746e-05
-2.90065e-05
0.00414248
0.00412681
-6.499e-06
-1.88335e-05
0.00419483
0.0041319
0.00419547
0.00419463
-0.00418544
-8.33411e-05
-0.00419669
0.00418811
-3.98624e-05
-5.13161e-05
0.00414254
-0.00409998
-0.00012079
-0.000116181
0.00408716
-0.00407384
-0.000128444
-0.000123847
0.00406032
-0.00404632
-0.000135868
-0.000131358
0.00403212
-0.00401744
-0.000142996
-0.000138603
0.00400257
-0.00398723
-0.000149791
-0.00014554
0.00397171
-0.00395574
-0.000156218
-0.000152134
0.00393961
-0.00392304
-0.000162252
-0.000158352
0.00390633
-0.0038892
-0.000167873
-0.000164173
0.00387195
-0.00385429
-0.000173075
-0.000169584
0.00383653
-0.00381837
-0.000177866
-0.000174584
0.00380012
-0.0037815
-0.000182263
-0.000179186
0.0037628
-0.00374374
-0.000186296
-0.000183412
0.0037246
-0.00370512
-0.000190001
-0.000187295
0.00368557
-0.00366569
-0.000193425
-0.000190876
0.00364574
-0.00362547
-0.000196626
-0.000194207
0.00360514
-0.0035845
-0.000199666
-0.000197348
0.00356378
-0.00354277
-0.000202612
-0.000200361
0.0035217
-0.00350034
-0.000205532
-0.000203316
0.00347891
-0.00345721
-0.00020849
-0.000206279
0.00343545
-0.00341343
-0.000211539
-0.000209308
0.00339135
-0.00336902
-0.000214724
-0.000212449
0.00334665
-0.00332401
-0.000218057
-0.000215744
0.00330129
-0.00327835
-0.000221645
-0.00021921
0.00321381
-0.0031506
-0.00022533
-0.00022293
0.00311259
-0.00309714
-0.000189973
-0.000192616
-0.0003118
0.000123238
-0.00289596
-0.00301089
-0.000141698
0.000146759
-0.00297469
-0.00303064
-0.000208198
2.28326e-05
-0.00289482
-4.84113e-05
0.00417759
0.00423371
-8.19367e-05
0.000266632
-0.00354827
-0.00032016
7.85836e-06
-0.00296635
0.000335652
-0.00352677
2.1919e-05
-0.00294398
3.84994e-05
-0.00295147
4.42697e-05
-0.00298271
6.91446e-05
-0.00294898
9.98711e-05
-0.00295914
0.000130364
-0.00295116
0.00012932
-0.00292221
-0.000168514
0.000145078
-0.00295125
-0.000186191
-0.00301297
-0.00296261
-0.00364382
0.0035215
-0.000207803
-0.000404084
-0.00346831
0.000324118
0.00371778
-0.00359994
-0.000521929
-0.000246199
-0.00344596
0.00339371
-0.000304851
-0.000315589
-0.00338148
0.00335801
-0.0002418
-0.000243014
-0.00339138
0.00344249
-0.000237631
-0.000239283
-0.00346261
0.00348271
-0.000232356
-0.00023427
-0.00350261
0.00352244
-0.000227595
-0.000229253
-0.00354205
0.00356159
-0.000223102
-0.000224637
-0.00358092
0.00360019
-0.000218746
-0.00022021
-0.00361924
0.00363824
-0.000214454
-0.000215882
-0.00365701
0.00367572
-0.000210163
-0.000211583
-0.00369419
0.00371261
-0.000205829
-0.000207264
-0.00373078
0.00374887
-0.00020141