/*--------------------------------*- C++ -*----------------------------------*\
  =========                 |
  \\      /  F ield         | OpenFOAM: The Open Source CFD Toolbox
   \\    /   O peration     | Website:  https://openfoam.org
    \\  /    A nd           | Version:  10
     \\/     M anipulation  |
\*---------------------------------------------------------------------------*/
FoamFile
{
    format      ascii;
    class       volVectorField;
    location    "12";
    object      U;
}
// * * * * * * * * * * * * * * * * * * * * * * * * * * * * * * * * * * * * * //

dimensions      [0 1 -1 0 0 0 0];

internalField   nonuniform List<vector> 
33313
(
(0.329189 0.0149597 -5.56407e-21)
(0.479418 0.00786951 3.01543e-21)
(0.423396 0.0289545 0)
(0.185315 0.0113146 0)
(0.80264 0.0246679 -8.04098e-23)
(0.761938 0.0258266 0)
(0.64805 0.0288647 -1.14146e-21)
(0.674943 0.0217652 0)
(0.773018 0.0186035 2.34331e-22)
(0.648639 0.0189895 1.54406e-21)
(0.724132 0.0251596 0)
(-0.0519129 0.0396835 -2.14411e-20)
(-0.0203908 0.0142828 -7.58903e-20)
(-0.0197936 0.0142411 -1.60741e-19)
(0.424699 -0.348377 -8.06122e-22)
(0.16172 -0.119941 7.32859e-21)
(0.142767 -0.113655 9.47848e-21)
(1.3949 -0.458033 0)
(1.37716 -0.342956 0)
(1.36609 -0.31701 0)
(1.41846 -0.391334 2.34167e-20)
(0.524576 0.0180997 0)
(0.44352 0.319747 -1.26486e-19)
(0.292097 0.275176 3.83292e-19)
(0.398214 0.0093992 -8.23777e-20)
(1.00472 -0.0198534 -4.70287e-20)
(1.00463 -0.0387901 3.26511e-20)
(1.00497 -0.078143 0)
(0.964106 0.104871 -4.49769e-20)
(1.03666 0.0998129 3.57786e-20)
(1.01617 0.0813994 2.46974e-20)
(0.996582 -0.0191355 -2.94226e-20)
(0.882389 0.0570906 -1.7521e-20)
(-0.0616386 -0.0687845 6.2016e-20)
(-0.0648235 -0.0417724 -1.2904e-19)
(-0.0647055 -0.0369308 8.04254e-20)
(-0.103289 -0.0606626 1.10756e-20)
(1.15953 -0.0617895 6.00182e-23)
(1.16816 -0.0633762 3.3211e-21)
(1.44774 0.27195 -1.67644e-20)
(1.42978 0.254384 3.11394e-20)
(1.01061 -0.194866 -5.68573e-20)
(1.01754 -0.191598 -4.69288e-21)
(-0.0631223 -0.0324382 -5.29768e-20)
(-0.075353 0.0746047 3.07959e-20)
(-0.0877702 0.0668799 -1.2381e-19)
(0.194917 0.490063 9.03377e-20)
(0.175881 0.354936 3.33457e-20)
(0.48356 -0.0492294 1.59037e-21)
(0.607987 -0.026688 -2.34379e-21)
(1.04192 0.067583 -3.16412e-20)
(1.05976 0.0622285 1.74098e-20)
(1.06434 -0.0970366 -4.34573e-20)
(1.01925 -0.0604369 1.18236e-19)
(0.469532 0.533219 1.36337e-19)
(0.407319 0.58917 -6.35291e-20)
(0.624852 0.725025 -8.94642e-20)
(0.370641 0.666991 2.08609e-19)
(0.219756 -0.370353 4.43578e-20)
(0.351935 -0.689087 -3.48187e-21)
(0.211388 0.528118 -6.01945e-20)
(0.405005 -0.270942 2.35886e-19)
(0.226732 -0.200627 -7.09652e-20)
(0.0971887 -0.142801 0)
(0.0988783 -0.00473688 0)
(0.134094 -0.0156694 1.67041e-20)
(1.40345 0.0906199 4.10155e-20)
(1.34054 -0.339123 0)
(1.3399 -0.331997 0)
(0.0580337 -0.210579 3.07191e-20)
(0.0846555 -0.204772 0)
(0.185508 -0.182641 0)
(0.148826 -0.0581661 7.43376e-21)
(1.46156 0.314099 6.10669e-20)
(-0.125956 -0.200733 6.80837e-20)
(-0.0527795 -0.192396 4.78346e-20)
(0.19789 -0.126408 0)
(0.173885 -0.146642 2.68441e-20)
(1.37892 0.353794 5.56325e-20)
(1.40302 0.302225 -3.40567e-20)
(0.818363 -0.0580343 1.48514e-19)
(0.833665 -0.0380083 -4.9811e-20)
(0.792907 -0.0939808 0)
(1.27029 0.213199 1.68263e-20)
(1.13034 0.230061 -3.52925e-21)
(0.528554 0.0670273 -1.39261e-20)
(0.04724 0.0342945 0)
(-0.0508622 0.06433 1.47898e-20)
(-0.0692495 0.0556144 8.37649e-20)
(0.0379023 -0.133026 2.84159e-19)
(-0.127482 -0.146177 5.3589e-21)
(-0.0998941 -0.163566 -2.17492e-21)
(-0.0954339 -0.121768 -3.70068e-19)
(-0.100829 -0.11606 0)
(-0.10547 -0.107817 4.0839e-20)
(1.04247 0.0619533 0)
(1.01606 0.0593764 -3.73428e-21)
(0.55849 -0.0543883 -2.97389e-21)
(0.701997 -0.0363713 5.45157e-22)
(1.43849 -0.339552 0)
(1.43669 -0.373642 -5.14227e-20)
(1.42337 -0.307593 0)
(1.42386 -0.267348 2.52554e-20)
(1.45168 -0.281235 4.17779e-21)
(1.35455 -0.256712 -2.80891e-20)
(0.211906 -0.0288034 -1.41664e-21)
(0.146605 -0.0546936 -7.13588e-20)
(-0.0315615 -0.0521047 -5.03101e-20)
(-0.0309254 -0.0517565 -2.50888e-22)
(0.889715 -0.60774 -6.71718e-21)
(1.08472 -0.779247 1.89306e-20)
(0.913491 -0.723482 4.79901e-20)
(0.700763 -0.492375 0)
(0.677648 -0.208874 6.37869e-20)
(0.245579 -0.0448085 3.12517e-20)
(0.591983 -0.0982354 -2.83674e-20)
(0.205496 0.0620491 -4.34653e-19)
(0.170763 0.207733 4.95732e-20)
(1.45148 -0.271785 1.26068e-21)
(1.44517 -0.264801 0)
(-0.080274 -0.0655655 0)
(-0.0478035 -0.0371526 8.2785e-20)
(-0.0659549 -0.051635 0)
(0.40257 -0.0165232 -3.74089e-21)
(0.472846 -0.0119327 2.87124e-21)
(0.240771 -0.0387144 -8.21836e-21)
(0.765356 0.7175 1.56237e-19)
(1.28885 0.0195236 1.54402e-21)
(1.29246 0.0155101 0)
(-0.147522 -0.0188851 2.2273e-20)
(-0.169923 -0.0566154 -2.75582e-20)
(-0.0429516 -0.0448896 -1.34135e-19)
(-0.0393862 -0.0374094 2.4521e-19)
(0.873351 0.678678 2.70475e-20)
(1.03069 0.696447 3.81764e-20)
(0.893825 0.642988 0)
(0.74196 0.582431 0)
(0.479228 -0.334654 -3.76844e-21)
(0.60356 -0.429147 0)
(0.846269 -0.758167 -1.1185e-19)
(0.846851 -0.722247 -4.97701e-20)
(0.718408 -0.770366 1.22529e-19)
(1.27283 0.0208503 3.14472e-21)
(1.26859 0.024421 2.65341e-20)
(1.28791 0.0231967 -3.64656e-22)
(1.09859 -0.0283051 0)
(1.10393 -0.0286112 -6.4999e-22)
(1.10593 -0.032694 1.27646e-21)
(1.11088 -0.0355998 4.20673e-22)
(0.99265 -0.234776 4.28486e-20)
(1.00595 -0.240999 0)
(0.990506 -0.189835 -7.38729e-20)
(0.997977 -0.205714 4.2201e-20)
(0.938192 0.102854 2.94796e-20)
(0.930824 0.12227 -4.55692e-20)
(0.951639 0.131359 2.79389e-20)
(0.944771 0.142408 1.62675e-19)
(0.0449558 -0.176237 1.94376e-20)
(-0.0662465 -0.218249 0)
(0.0141095 -0.207194 -2.61276e-20)
(-0.0365222 -0.030621 -2.05673e-19)
(0.437731 0.357147 5.58392e-21)
(0.467426 0.422148 -1.38448e-20)
(0.842924 0.706174 -3.90904e-20)
(0.474979 0.473516 -5.49439e-20)
(-0.0509615 0.0267303 0)
(-0.0649286 0.0574107 7.15185e-20)
(-0.108325 0.0485605 -4.84464e-20)
(0.388185 0.075401 0)
(0.825374 0.0196295 0)
(0.874682 0.0197003 -5.35432e-22)
(1.07795 -0.0129299 1.66426e-21)
(1.07939 -0.0172337 -9.88868e-22)
(1.09616 0.0526428 4.54086e-22)
(1.09957 0.0578494 2.02006e-23)
(1.01358 -0.0908762 9.62267e-21)
(1.02537 -0.0750425 -4.12956e-20)
(0.23716 -0.00249053 1.01251e-19)
(0.15034 -0.0181738 -7.85732e-20)
(1.24224 0.196585 0)
(1.25371 0.201356 0)
(1.13492 0.0474183 1.09464e-22)
(1.13994 0.0514959 2.00017e-21)
(1.10074 0.204951 -2.81391e-20)
(1.09629 0.198253 1.02098e-20)
(0.591496 -0.127697 0)
(0.598977 -0.125294 -1.25048e-20)
(0.100085 -0.0372304 1.85877e-20)
(0.0740485 -0.0542948 2.07455e-20)
(-0.0490916 -0.0423408 -7.43034e-23)
(-0.171413 -0.206533 -1.80182e-19)
(0.835419 0.0425802 -5.29587e-20)
(0.865957 0.0419101 2.25579e-20)
(-0.154756 -0.0847342 6.35988e-21)
(-0.182078 -0.0989748 0)
(0.919753 0.248644 0)
(0.89444 0.280231 -4.79077e-21)
(0.861115 0.372218 -5.68808e-20)
(0.956669 -0.282929 2.64003e-20)
(0.927523 -0.31115 0)
(0.921817 -0.465856 3.18866e-20)
(0.810878 -0.0019903 -4.45596e-20)
(0.839754 0.00508544 5.39604e-20)
(1.0409 -0.0667974 3.5658e-21)
(1.03395 -0.0599652 -7.8767e-21)
(-0.109738 0.0989196 0)
(-0.0907005 0.0946144 -4.41351e-20)
(1.19781 -0.658807 -1.25286e-20)
(1.13679 -0.663555 7.23053e-21)
(1.02924 -0.0564872 -2.79686e-20)
(1.0343 -0.0653124 3.337e-20)
(0.773909 0.0256637 5.61389e-24)
(0.83438 0.0230713 -6.50273e-24)
(0.832888 0.0226091 -8.36382e-22)
(0.783072 0.024005 -4.92139e-22)
(0.550167 -0.424352 7.02175e-21)
(-0.0288986 0.0180368 7.1103e-20)
(-0.0291583 0.0199803 -3.81072e-20)
(0.98011 0.197016 1.21576e-20)
(0.979297 0.179192 -5.69113e-21)
(0.991204 0.179031 5.71537e-21)
(0.99399 0.197607 0)
(1.4612 -0.268313 -2.14891e-20)
(1.46296 -0.253222 1.20826e-21)
(1.46008 -0.247845 2.08967e-20)
(1.09964 0.3039 0)
(1.08405 0.298265 -3.12957e-20)
(1.10276 0.302109 0)
(-0.0617988 0.0447911 -5.00522e-20)
(-0.0224988 0.0152705 -1.12952e-19)
(-0.027169 0.0185487 0)
(0.189111 -0.129127 -2.63153e-20)
(0.154941 -0.112281 7.18719e-21)
(1.07571 -0.0112693 1.20451e-21)
(1.08759 0.0223539 -1.8368e-21)
(1.08976 0.0263384 -7.38943e-22)
(1.20919 -0.405932 0)
(1.03249 -0.200475 0)
(0.70251 -0.112592 1.86166e-21)
(0.712427 -0.100835 1.63475e-21)
(0.725836 -0.0878154 -2.17893e-21)
(0.737997 -0.0748092 1.67393e-22)
(0.751813 -0.062562 0)
(0.765587 -0.0494703 1.09393e-21)
(0.780139 -0.0363576 -1.0937e-21)
(0.795453 -0.023333 -1.01569e-21)
(0.811025 -0.0107024 1.01507e-21)
(0.826899 0.00156482 9.46991e-22)
(0.842565 0.0132056 -9.46365e-22)
(0.858254 0.0242649 -8.899e-22)
(0.873425 0.0344705 8.89275e-22)
(0.888309 0.0439246 0)
(0.9024 0.0524318 0)
(0.91601 0.0601164 0)
(0.928659 0.066832 -7.80858e-22)
(0.940719 0.0727187 7.81517e-22)
(0.951719 0.0776749 0)
(0.962117 0.0818497 0)
(0.971373 0.0851699 0)
(0.980161 0.0878025 -6.98634e-22)
(0.987599 0.0896566 1.54454e-23)
(0.995073 0.0909872 1.35135e-21)
(1.0004 0.0915219 -6.68134e-22)
(1.00745 0.0919034 6.35025e-22)
(1.00952 0.0911041 -1.95618e-21)
(1.01444 0.0904445 -5.17013e-24)
(1.01685 0.0892022 0)
(1.02107 0.0878251 -1.84443e-22)
(1.02432 0.0860356 0)
(1.02789 0.0841425 3.56006e-22)
(0.730494 -0.120658 0)
(0.705821 -0.129561 -3.97355e-21)
(0.736077 -0.132408 -1.19984e-21)
(0.689356 -0.121257 -9.40662e-22)
(1.03572 0.0798334 3.54608e-22)
(1.02896 0.081622 -3.36908e-22)
(0.999422 0.0828191 0)
(1.0078 0.0795735 1.66425e-22)
(1.00263 0.0813905 1.75475e-22)
(0.990224 0.0847344 0)
(0.994701 0.0839319 0)
(0.979359 0.0850622 0)
(0.984074 0.0849699 0)
(0.967005 0.0836047 -1.83282e-26)
(0.973579 0.0846882 0)
(0.952347 0.0798906 0)
(0.960168 0.0821139 0)
(0.934974 0.0734903 2.09628e-24)
(0.944072 0.077064 0)
(0.914908 0.0640844 0)
(0.925289 0.069181 0)
(0.892411 0.0514657 2.34341e-24)
(0.903944 0.0581813 0)
(0.86801 0.0355983 2.48832e-24)
(0.880407 0.0439287 0)
(0.84253 0.0166796 2.6526e-24)
(0.855343 0.0264945 3.16352e-28)
(0.817069 -0.0048368 0)
(0.829731 0.00620534 0)
(0.7928 -0.0281857 0)
(0.804694 -0.0163441 0)
(0.771242 -0.0524822 0)
(0.781607 -0.0402712 0)
(0.753181 -0.076975 0)
(0.76185 -0.0647193 0)
(0.738148 -0.0999122 -8.95614e-22)
(0.745492 -0.0876808 -2.08115e-22)
(0.731909 -0.109858 1.18066e-23)
(0.69882 -0.13873 1.60587e-23)
(0.733099 -0.141799 -6.14132e-22)
(1.00527 0.0772071 0)
(0.677419 -0.131533 3.38374e-21)
(1.02307 0.0761377 0)
(1.04049 0.077022 -4.01301e-22)
(0.693049 -0.148428 -1.58572e-23)
(0.732378 -0.151142 6.2884e-22)
(1.00567 0.0746642 7.36245e-22)
(1.05778 0.0803008 0)
(0.666845 -0.141778 5.60518e-22)
(1.06033 0.0773179 3.62156e-22)
(0.727487 -0.159981 6.54807e-22)
(0.657049 -0.151323 -5.98283e-22)
(0.68694 -0.157217 0)
(0.688762 -0.108787 6.76005e-23)
(0.65819 -0.13054 -9.98687e-22)
(0.673361 -0.119707 -2.15287e-21)
(0.719962 -0.0851975 -5.10189e-23)
(0.704673 -0.0980701 9.07997e-22)
(0.757283 -0.0560623 1.63956e-24)
(0.738013 -0.0705067 1.75886e-21)
(0.795465 -0.0282635 0)
(0.776346 -0.0421742 0)
(0.83331 -0.00147449 0)
(0.814461 -0.0146549 0)
(0.869975 0.0231012 0)
(0.851874 0.0111505 0)
(0.904261 0.0445389 0)
(0.887474 0.034252 0)
(0.935309 0.0623487 0)
(0.920233 0.0539153 0)
(0.962574 0.0763336 0)
(0.949435 0.0698195 0)
(0.98584 0.0865679 0)
(0.974705 0.0819057 0)
(1.00516 0.0933317 0)
(0.995961 0.0903615 0)
(1.02078 0.0970326 0)
(1.01334 0.0955409 0)
(1.03316 0.0981423 -1.30394e-26)
(1.02707 0.0978874 0)
(1.04315 0.0971837 1.14933e-26)
(1.03734 0.0978512 0)
(1.04794 0.0943518 1.0742e-22)
(1.04375 0.0957066 1.49792e-21)
(1.04993 0.0903039 3.67788e-22)
(1.04789 0.0923155 -6.57878e-22)
(1.05342 0.0856032 -3.59255e-22)
(1.05184 0.0880971 1.82858e-22)
(1.05513 0.0831285 0)
(1.02387 0.073395 9.39935e-23)
(1.06105 0.0741695 1.46309e-23)
(1.04149 0.0741031 0)
(0.987279 0.0762869 2.23432e-23)
(0.991788 0.0717309 -7.16207e-22)
(0.989534 0.0740843 0)
(0.978907 0.0788201 0)
(0.983167 0.0776331 -9.22209e-23)
(0.969001 0.0798947 1.08355e-22)
(0.973658 0.0794684 0)
(0.95749 0.0793007 0)
(0.963214 0.0797599 -1.08608e-22)
(0.944295 0.0767098 -1.47318e-26)
(0.951109 0.0782903 0)
(0.929066 0.0717649 0)
(0.936966 0.0745708 0)
(0.911788 0.0641626 -2.091e-24)
(0.920695 0.0683201 0)
(0.892671 0.0536829 0)
(0.902442 0.0592916 0)
(0.87219 0.0402462 -2.33782e-24)
(0.88256 0.0473295 0)
(0.851099 0.023964 -2.48263e-24)
(0.861662 0.0324413 0)
(0.83042 0.00517987 -2.64685e-24)
(0.840633 0.0148506 -3.15642e-28)
(0.811377 -0.0155242 0)
(0.820617 -0.00498512 0)
(0.795157 -0.0374388 0)
(0.802839 -0.0263724 0)
(0.782983 -0.0597403 0)
(0.788498 -0.0485993 0)
(0.775528 -0.0815553 -3.5962e-24)
(0.778704 -0.0707495 0)
(0.771305 -0.102609 0)
(0.77309 -0.0922056 0)
(0.77193 -0.122489 0)
(0.770541 -0.112605 0)
(0.777033 -0.141724 3.0365e-22)
(0.77559 -0.132072 1.36506e-21)
(0.776914 -0.160538 4.4757e-22)
(0.778914 -0.15129 -1.80591e-21)
(1.00723 0.0719948 -2.71832e-22)
(0.643634 -0.1407 1.05951e-21)
(0.726672 -0.168714 -6.51227e-22)
(0.778644 -0.16983 9.15919e-22)
(1.06156 0.0710589 -1.97489e-22)
(1.07947 0.073681 -2.7102e-22)
(1.07969 0.0703483 -1.32724e-22)
(0.648131 -0.160342 0)
(0.983646 0.0680621 -3.4944e-22)
(0.994559 0.0692948 -8.6345e-23)
(0.987715 0.0657332 -3.83794e-22)
(0.629704 -0.150291 1.78411e-23)
(0.681928 -0.16605 0)
(0.668176 -0.114894 2.66787e-22)
(0.631109 -0.135334 1.40218e-21)
(0.649696 -0.12531 -5.44162e-22)
(0.707838 -0.0909871 9.93713e-22)
(0.688197 -0.103036 0)
(0.748221 -0.0645471 -2.43466e-23)
(0.727896 -0.0783153 -4.4626e-22)
(0.791768 -0.0357211 9.5113e-23)
(0.769973 -0.049982 -1.20393e-22)
(0.834606 -0.00792056 0)
(0.813399 -0.0216837 0)
(0.875407 0.018072 0)
(0.85531 0.00537776 0)
(0.913298 0.0412371 0)
(0.894786 0.0300576 0)
(0.947355 0.0608696 0)
(0.930849 0.0515244 0)
(0.977071 0.0766235 0)
(0.962777 0.06924 0)
(1.00227 0.0884607 1.0486e-24)
(0.990237 0.0830231 0)
(1.02305 0.0965902 0)
(1.0132 0.0929689 0)
(1.03972 0.101386 0)
(1.03187 0.0993803 0)
(1.0527 0.103311 0)
(1.04661 0.102687 0)
(1.0625 0.102852 -1.48366e-26)
(1.05786 0.103378 0)
(1.06967 0.100482 1.36576e-26)
(1.06606 0.101943 0)
(1.07421 0.0967525 1.47912e-23)
(1.07162 0.0988213 0)
(1.07617 0.0919233 4.63865e-23)
(1.07502 0.0944357 3.96999e-22)
(1.07741 0.0863126 -9.34998e-23)
(1.07686 0.0891786 -4.7977e-23)
(1.0787 0.0802175 9.22785e-23)
(1.07781 0.0833448 1.836e-22)
(1.07933 0.0769349 -9.37186e-23)
(1.0247 0.0705488 1.11549e-22)
(1.04224 0.0711524 0)
(0.997422 0.066671 -2.38145e-22)
(1.00894 0.0692086 4.60394e-23)
(0.975379 0.0718715 -9.97128e-24)
(0.979646 0.0701538 0)
(0.965794 0.0739836 -2.45862e-23)
(0.970529 0.0730431 3.54678e-23)
(0.954729 0.0743638 -1.67122e-24)
(0.960368 0.0743866 -2.52647e-23)
(0.942682 0.0730449 0)
(0.948848 0.0739321 0)
(0.929177 0.0695868 -1.13506e-26)
(0.936086 0.0715878 0)
(0.914271 0.0637669 2.02748e-24)
(0.921889 0.0669871 0)
(0.898154 0.0553939 0)
(0.906346 0.0599095 0)
(0.881229 0.0443705 0)
(0.889758 0.0502128 0)
(0.864147 0.0307478 0)
(0.872657 0.0378708 0)
(0.84779 0.0147633 2.63216e-24)
(0.855814 0.0230245 0)
(0.833225 -0.0031529 0)
(0.840212 0.00600982 0)
(0.821535 -0.0223761 0)
(0.826961 -0.0126464 0)
(0.813652 -0.0422583 0)
(0.817075 -0.0322718 0)
(0.81015 -0.0622275 0)
(0.811342 -0.0522676 0)
(0.810907 -0.0817647 3.62381e-24)
(0.810059 -0.0720742 0)
(0.814686 -0.101143 0)
(0.812506 -0.0913981 0)
(0.820475 -0.120599 -5.35018e-22)
(0.817388 -0.110929 0)
(0.826562 -0.139992 1.91593e-24)
(0.823493 -0.130115 5.44835e-22)
(0.830246 -0.160265 1.33661e-22)
(0.829245 -0.149932 -1.16223e-21)
(0.776687 -0.179252 1.2258e-21)
(0.831427 -0.180964 0)
(0.831701 -0.170423 8.90014e-22)
(0.615629 -0.158216 -3.03943e-21)
(0.613135 -0.143659 1.54786e-21)
(0.637771 -0.168099 -1.31177e-21)
(0.722703 -0.177224 0)
(0.991797 0.0631745 3.76699e-22)
(0.829956 -0.191414 0)
(0.775851 -0.188703 -2.80743e-21)
(1.06126 0.0678821 8.83563e-23)
(1.07911 0.0669982 -1.23752e-22)
(1.09591 0.0727463 -4.02001e-22)
(0.60129 -0.165181 0)
(0.595274 -0.150359 9.13415e-22)
(1.09555 0.0692672 0)
(0.674939 -0.173858 0)
(0.654175 -0.115461 -1.15131e-21)
(0.611722 -0.131392 -9.12994e-22)
(0.632906 -0.12415 9.30029e-22)
(0.698965 -0.094055 1.78294e-22)
(0.676648 -0.105083 -5.57898e-22)
(0.746072 -0.0685505 6.6359e-22)
(0.722311 -0.0817015 -1.05578e-22)
(0.792953 -0.041142 1.44733e-22)
(0.769401 -0.0551083 0)
(0.839591 -0.0132603 8.52436e-26)
(0.816491 -0.0271013 -9.54504e-23)
(0.883791 0.01348 0)
(0.862068 0.000320326 0)
(0.924497 0.0378458 0)
(0.904639 0.0260304 0)
(0.960929 0.0589453 0)
(0.943291 0.0488414 0)
(0.99256 0.0762717 0)
(0.977366 0.0680996 0)
(1.01923 0.0896382 -1.05262e-24)
(1.00651 0.0834486 0)
(1.04108 0.0991524 -1.0486e-24)
(1.03074 0.0948609 0)
(1.05846 0.105127 0)
(1.0503 0.102557 0)
(1.07186 0.107997 0)
(1.06562 0.106922 0)
(1.08183 0.108255 0)
(1.07723 0.108428 0)
(1.08891 0.106392 -1.63761e-26)
(1.08567 0.107575 0)
(1.09361 0.102876 1.4868e-26)
(1.09148 0.104843 0)
(1.09635 0.0981608 8.18503e-25)
(1.09515 0.100679 0)
(1.09747 0.0925497 1.58345e-24)
(1.09706 0.0954616 0)
(1.09737 0.0862679 9.63932e-23)
(1.09755 0.0894661 0)
(1.09676 0.0796302 9.30474e-23)
(1.09687 0.0830049 -1.88835e-22)
(1.09611 0.07621 1.37551e-22)
(1.02558 0.0676383 -2.16584e-23)
(1.04273 0.0681332 -8.39237e-23)
(1.00028 0.0637787 -3.29739e-22)
(1.01071 0.0663092 -4.07236e-23)
(0.982672 0.0634802 4.18445e-22)
(0.992998 0.0587586 -3.23262e-22)
(0.987883 0.0612397 2.81682e-23)
(0.972288 0.0667643 -2.06028e-26)
(0.97757 0.0653249 -8.83504e-23)
(0.961297 0.0684771 9.80024e-23)
(0.966844 0.0677943 0)
(0.949608 0.0684639 1.65559e-24)
(0.955556 0.0687245 0)
(0.937203 0.0666022 0)
(0.943507 0.0677905 0)
(0.924029 0.0626105 -5.96973e-27)
(0.930699 0.0648774 0)
(0.910252 0.0563373 -2.02748e-24)
(0.917196 0.0597636 0)
(0.896205 0.0476947 0)
(0.903233 0.0523118 0)
(0.882417 0.0367009 0)
(0.889238 0.0424826 0)
(0.869611 0.0235166 0)
(0.875841 0.0303633 0)
(0.85865 0.00845961 -2.63216e-24)
(0.863845 0.0161935 0)
(0.850428 -0.00801727 0)
(0.854151 0.000362343 0)
(0.845691 -0.0253718 0)
(0.84759 -0.0166159 0)
(0.844852 -0.0431562 0)
(0.844784 -0.0342354 0)
(0.847803 -0.061083 0)
(0.845893 -0.0521119 0)
(0.853748 -0.079089 -3.71445e-24)
(0.850488 -0.0700696 0)
(0.861351 -0.0975557 0)
(0.857435 -0.0882145 0)
(0.869179 -0.116996 -2.00048e-26)
(0.865345 -0.107142 0)
(0.875704 -0.137469 0)
(0.872693 -0.127079 0)
(0.879827 -0.159484 -2.87424e-22)
(0.878199 -0.148295 0)
(0.881008 -0.182454 2.08969e-21)
(0.880994 -0.170823 -1.44844e-22)
(0.82742 -0.202129 2.4592e-21)
(0.877834 -0.205958 -2.40617e-21)
(0.879952 -0.194126 1.43863e-22)
(0.995939 0.0602244 1.12903e-23)
(0.577428 -0.156241 0)
(0.590804 -0.137373 3.60599e-23)
(0.627676 -0.175253 1.29349e-21)
(0.72 -0.1857 6.3e-22)
(1.09489 0.065781 3.37091e-22)
(0.8749 -0.217824 -3.70751e-23)
(0.922607 -0.209302 -2.19441e-21)
(0.920209 -0.222208 4.4762e-21)
(0.587071 -0.171161 1.34889e-21)
(0.77207 -0.198171 1.23132e-21)
(0.823817 -0.212822 -2.38112e-21)
(0.559391 -0.160598 0)
(1.00139 0.0535403 3.02351e-22)
(0.998391 0.0558249 4.55443e-23)
(1.00756 0.0507005 3.04147e-22)
(0.569583 -0.142049 -1.27594e-21)
(0.668533 -0.181667 -6.43274e-22)
(0.650562 -0.108879 -5.75852e-22)
(0.602989 -0.120433 0)
(0.626801 -0.11538 1.78726e-21)
(0.698632 -0.0917541 -2.56366e-22)
(0.674519 -0.100954 2.59088e-22)
(0.749011 -0.0693799 -2.28309e-22)
(0.72371 -0.0810809 4.83605e-22)
(0.799689 -0.0437821 0)
(0.774399 -0.0568829 0)
(0.848956 -0.016896 0)
(0.824594 -0.0303845 0)
(0.895507 0.00959389 2.64661e-24)
(0.872654 -0.00352214 0)
(0.938265 0.0344738 0)
(0.917428 0.0223161 0)
(0.97633 0.0565701 0)
(0.957926 0.0459272 0)
(1.00924 0.0751565 0)
(0.993447 0.06633 0)
(1.03684 0.0898944 0)
(1.0237 0.0830152 0)
(1.05929 0.100751 1.05262e-24)
(1.04869 0.0957985 0)
(1.07698 0.107945 0)
(1.0687 0.104785 0)
(1.09044 0.111859 0)
(1.0842 0.110284 0)
(1.10028 0.112961 0)
(1.09578 0.112732 0)
(1.10711 0.111742 0)
(1.10403 0.112614 0)
(1.11149 0.108677 -1.80922e-26)
(1.10957 0.110417 0)
(1.11393 0.104202 1.69274e-26)
(1.11292 0.106597 0)
(1.11485 0.0986927 -8.18466e-25)
(1.11455 0.101557 0)
(1.11458 0.0924459 0)
(1.11483 0.0956461 0)
(1.11343 0.0857028 0)
(1.11403 0.0891232 0)
(1.11172 0.0786886 -1.8314e-22)
(1.11237 0.0822298 0)
(1.10967 0.0715721 4.39324e-22)
(1.11031 0.0751559 -8.71136e-23)
(1.10803 0.0643777 -6.78087e-22)
(1.10878 0.0679817 2.08471e-23)
(1.06127 0.064642 8.25695e-23)
(1.09457 0.0622802 -7.9472e-23)
(1.07889 0.0636242 0)
(1.02633 0.0646166 0)
(1.04305 0.065023 0)
(1.00321 0.0608038 4.0478e-23)
(1.01242 0.063295 -1.55687e-22)
(1.00377 0.0527593 -1.90235e-22)
(1.00009 0.0572556 2.99132e-22)
(0.989616 0.0580858 1.30146e-24)
(0.99553 0.0559393 3.53501e-22)
(0.978094 0.0611181 -2.43557e-26)
(0.983919 0.0597883 0)
(0.966342 0.062625 3.05545e-24)
(0.97225 0.062067 0)
(0.954354 0.0624046 -1.4789e-26)
(0.960377 0.062737 0)
(0.942182 0.060303 0)
(0.948292 0.0616019 0)
(0.929948 0.0561545 2.04628e-27)
(0.93606 0.0584882 0)
(0.91792 0.0498749 0)
(0.923887 0.05328 0)
(0.906515 0.0414633 0)
(0.91211 0.0459288 0)
(0.896293 0.0310249 0)
(0.901219 0.0364834 0)
(0.887921 0.0187846 0)
(0.891836 0.0251086 0)
(0.882085 0.00507328 0)
(0.88465 0.0120866 0)
(0.879349 -0.00971385 2.89956e-24)
(0.88031 -0.00221482 0)
(0.880011 -0.0252221 0)
(0.879259 -0.0173987 0)
(0.883938 -0.041228 3.29759e-24)
(0.881602 -0.0331694 0)
(0.890509 -0.0577294 0)
(0.886959 -0.0494089 0)
(0.898631 -0.0749484 3.71445e-24)
(0.894467 -0.0662262 0)
(0.907029 -0.0933324 0)
(0.902878 -0.0839627 0)
(0.91452 -0.113312 -6.88686e-26)
(0.91097 -0.103103 0)
(0.920094 -0.135133 0)
(0.917594 -0.123983 0)
(0.923342 -0.158759 2.13856e-24)
(0.922031 -0.146737 0)
(0.924509 -0.183681 8.57661e-22)
(0.924156 -0.171096 4.25713e-22)
(0.923816 -0.196444 -7.19515e-22)
(0.870606 -0.229643 -2.28351e-21)
(0.917164 -0.235113 -2.3416e-21)
(1.10739 0.0607677 0)
(0.547697 -0.1458 4.07549e-21)
(0.579997 -0.12397 -1.28527e-21)
(0.61655 -0.18156 -1.33839e-21)
(0.715344 -0.194069 -3.10071e-22)
(1.01397 0.0475468 2.84254e-22)
(0.572106 -0.175615 0)
(0.768288 -0.207665 0)
(0.540786 -0.16405 1.36932e-21)
(0.81901 -0.223489 0)
(0.913058 -0.247892 0)
(0.865363 -0.241318 2.30806e-21)
(0.527701 -0.14636 -4.8301e-21)
(1.11832 0.0628919 1.29522e-21)
(1.11722 0.0592627 -3.87782e-22)
(0.558203 -0.125015 3.23166e-23)
(0.661133 -0.18887 -3.11935e-22)
(0.659599 -0.0962925 1.19453e-21)
(0.611565 -0.102049 6.51124e-22)
(0.634786 -0.100325 -1.2251e-21)
(0.709417 -0.0838789 -1.21794e-23)
(0.684247 -0.0908522 2.70555e-22)
(0.761145 -0.0656936 1.76435e-24)
(0.735181 -0.0754095 -2.52814e-22)
(0.813171 -0.0433174 0)
(0.787208 -0.0549155 0)
(0.863764 -0.018585 0)
(0.838763 -0.0311421 0)
(0.911423 0.0068162 0)
(0.888038 -0.00586541 0)
(0.955076 0.0313538 -2.50157e-24)
(0.933812 0.0192797 0)
(0.993915 0.0538029 0)
(0.975144 0.0429042 0)
(1.02738 0.0732338 0)
(1.01134 0.0639408 0)
(1.05531 0.089086 0)
(1.04203 0.0816258 0)
(1.07786 0.101172 1.0205e-24)
(1.06724 0.0955992 0)
(1.09543 0.109579 -9.9418e-25)
(1.08724 0.10582 0)
(1.10859 0.114604 0)
(1.10252 0.11249 0)
(1.11797 0.116665 0)
(1.11371 0.115976 0)
(1.12423 0.116234 0)
(1.12145 0.116731 0)
(1.12801 0.113782 0)
(1.1264 0.115232 0)
(1.12984 0.10975 -1.97416e-26)
(1.12913 0.111939 0)
(1.13019 0.104527 1.89346e-26)
(1.13017 0.107266 0)
(1.12945 0.0984426 7.84671e-25)
(1.12993 0.101573 0)
(1.1279 0.0917646 0)
(1.12875 0.0951654 0)
(1.12579 0.0847087 0)
(1.12686 0.0882807 0)
(1.12329 0.0774565 1.37175e-24)
(1.12447 0.0811203 0)
(1.12063 0.0701847 5.1681e-24)
(1.12169 0.0738419 0)
(1.11921 0.0665822 1.57908e-22)
(1.09334 0.0588697 7.88921e-23)
(1.11616 0.055678 -7.33466e-23)
(1.10616 0.0572835 0)
(1.06078 0.0613864 0)
(1.07807 0.0603005 7.57825e-23)
(1.02712 0.0614926 0)
(1.04308 0.0618488 0)
(1.00613 0.0576765 -2.18711e-22)
(1.01423 0.0601672 0)
(1.00907 0.0495214 -3.14079e-22)
(1.00425 0.0540818 1.64894e-22)
(1.0201 0.0443136 4.37255e-23)
(1.01646 0.0478172 3.93856e-23)
(1.02979 0.0419898 -7.49683e-24)
(1.02302 0.0450399 -2.92909e-22)
(1.00427 0.0521908 -2.85686e-26)
(1.01035 0.0501437 -3.89918e-23)
(0.992317 0.0551725 -2.74923e-26)
(0.998344 0.0538432 0)
(0.980418 0.0566537 -2.47722e-26)
(0.98637 0.0561077 0)
(0.96869 0.0564523 -2.09697e-26)
(0.97453 0.056769 0)
(0.957285 0.0544305 0)
(0.96294 0.0556753 0)
(0.946436 0.0504891 1.20379e-26)
(0.951777 0.0527003 0)
(0.936476 0.044604 2.04049e-24)
(0.941325 0.0477848 0)
(0.92783 0.0368348 0)
(0.931963 0.0409448 0)
(0.920993 0.0273313 0)
(0.924159 0.0322844 0)
(0.916464 0.0163242 0)
(0.918417 0.0219965 0)
(0.914649 0.00409134 2.70866e-24)
(0.915206 0.0103415 0)
(0.915724 -0.00910299 -2.89956e-24)
(0.914833 -0.00240259 0)
(0.919559 -0.0230943 0)
(0.917329 -0.0160047 0)
(0.925629 -0.0378854 -3.29758e-24)
(0.922371 -0.0303828 0)
(0.933082 -0.0536649 0)
(0.929255 -0.0456344 0)
(0.940872 -0.070762 3.62781e-24)
(0.93701 -0.0620239 0)
(0.948037 -0.0895724 0)
(0.944589 -0.0799324 0)
(0.953892 -0.110349 -7.95023e-24)
(0.95117 -0.0997068 0)
(0.958025 -0.133191 0)
(0.95619 -0.121512 0)
(0.9604 -0.157976 -4.08128e-24)
(0.959431 -0.145361 0)
(0.96132 -0.184229 2.69953e-22)
(0.960993 -0.170916 2.71681e-22)
(0.96063 -0.211488 1.01223e-21)
(0.96107 -0.19778 -1.63868e-21)
(0.95768 -0.239125 2.08862e-21)
(0.959503 -0.225292 -2.07308e-21)
(0.908173 -0.260318 1.88475e-21)
(0.952591 -0.26618 0)
(0.955088 -0.252831 0)
(0.534188 -0.125754 -3.58308e-21)
(0.588596 -0.10276 2.02323e-21)
(0.604852 -0.187021 1.29619e-21)
(0.709846 -0.202235 0)
(0.948252 -0.279113 0)
(0.902504 -0.272289 -1.99498e-21)
(0.556596 -0.179351 1.01234e-23)
(0.762744 -0.217045 -2.99687e-22)
(0.521924 -0.165412 1.37823e-21)
(0.812758 -0.233934 -3.57618e-23)
(1.11474 0.0522432 2.21716e-22)
(1.12318 0.0541887 1.89375e-23)
(1.12188 0.0506998 0)
(0.50587 -0.146678 1.41512e-21)
(0.858651 -0.252593 1.32822e-22)
(0.516028 -0.121675 -1.45202e-21)
(1.03641 0.0387521 7.10022e-24)
(0.571909 -0.0992787 0)
(0.652856 -0.195618 1.83749e-24)
(0.687448 -0.0780221 9.2201e-22)
(0.649644 -0.0767819 0)
(0.665553 -0.0789462 -1.91824e-21)
(0.734196 -0.0711702 -2.7983e-22)
(0.709435 -0.0757559 2.85887e-22)
(0.784542 -0.05781 0)
(0.759321 -0.0651688 0)
(0.835487 -0.0395224 -1.74537e-24)
(0.810041 -0.0491816 0)
(0.885278 -0.0179832 -1.48821e-24)
(0.860643 -0.0290628 0)
(0.932387 0.00528162 0)
(0.909253 -0.00646502 0)
(0.975631 0.0286785 0)
(0.954561 0.0170598 0)
(1.01411 0.0507872 5.71655e-26)
(0.995513 0.0399721 0)
(1.04727 0.0705222 0)
(1.03138 0.0610044 0)
(1.07485 0.0871484 0)
(1.06176 0.079257 0)
(1.09697 0.10027 0)
(1.08658 0.0941572 0)
(1.11399 0.109823 -1.0205e-24)
(1.10609 0.105485 0)
(1.12649 0.115984 9.94179e-25)
(1.12077 0.113308 0)
(1.13511 0.119093 9.45649e-25)
(1.13124 0.117894 0)
(1.14054 0.119578 0)
(1.13818 0.119634 0)
(1.14344 0.117892 0)
(1.14227 0.118978 0)
(1.14441 0.114474 0)
(1.14413 0.116373 0)
(1.14393 0.109719 -2.11333e-26)
(1.14432 0.112241 0)
(1.14244 0.10397 2.05314e-26)
(1.14329 0.106949 0)
(1.14025 0.0975132 -7.84671e-25)
(1.14142 0.100814 0)
(1.13761 0.090582 -1.45637e-24)
(1.13897 0.0940966 0)
(1.1347 0.0833615 0)
(1.13616 0.0870044 0)
(1.13166 0.076007 -1.30621e-24)
(1.13314 0.0797085 0)
(1.1286 0.0686714 8.02246e-23)
(1.12999 0.0723545 0)
(1.12575 0.0613974 -9.43905e-22)
(1.12694 0.0650663 -2.00788e-22)
(1.12443 0.057787 2.92416e-22)
(1.09224 0.0554858 0)
(1.10492 0.0538708 0)
(1.06004 0.0581092 0)
(1.07699 0.056975 -7.51787e-23)
(1.02791 0.0582534 0)
(1.04303 0.0585888 0)
(1.00919 0.054406 1.04672e-22)
(1.0161 0.0569326 0)
(1.01435 0.0461328 1.02281e-22)
(1.0085 0.0507228 -8.74318e-23)
(1.04976 0.0363765 -5.50202e-22)
(1.05662 0.0331382 2.6439e-22)
(1.04328 0.0352812 -2.54154e-22)
(1.02633 0.0408617 -1.03498e-22)
(1.03701 0.0418908 1.13454e-24)
(1.04337 0.0392304 1.49877e-22)
(1.02519 0.0461807 -2.48166e-24)
(1.03111 0.0441736 0)
(1.01344 0.0492356 -2.99611e-26)
(1.01931 0.047874 0)
(1.00198 0.050852 -2.89853e-26)
(1.00767 0.0502316 0)
(0.99099 0.0508734 -1.61994e-24)
(0.996418 0.0510671 0)
(0.980715 0.0491885 0)
(0.985754 0.0502472 0)
(0.97144 0.0457392 2.27637e-26)
(0.975939 0.0476829 0)
(0.963501 0.0405373 -2.04049e-24)
(0.967287 0.0433511 0)
(0.957265 0.0336667 2.17545e-24)
(0.960154 0.0373003 0)
(0.953088 0.0252741 0)
(0.954907 0.0296473 0)
(0.951241 0.0155451 0)
(0.951869 0.0205628 0)
(0.951829 0.00466011 -2.88941e-26)
(0.951241 0.0102359 0)
(0.954696 -0.00726916 0)
(0.953006 -0.00117479 0)
(0.959429 -0.0202474 0)
(0.956876 -0.0136223 0)
(0.965348 -0.0344189 0)
(0.962298 -0.0271701 0)
(0.97165 -0.0500446 0)
(0.96851 -0.0420319 0)
(0.977573 -0.0674249 -3.62782e-24)
(0.974707 -0.0584974 0)
(0.982583 -0.0868179 0)
(0.980219 -0.07686 0)
(0.986454 -0.108315 7.69898e-24)
(0.984671 -0.0973055 0)
(0.989198 -0.131864 0)
(0.987963 -0.119841 0)
(0.991002 -0.157295 4.08192e-24)
(0.990209 -0.144363 0)
(0.992078 -0.184271 0)
(0.991621 -0.170616 0)
(0.992656 -0.212313 1.27137e-22)
(0.992397 -0.198181 -1.26927e-22)
(0.992222 -0.241036 -3.62812e-22)
(0.992556 -0.226643 4.73623e-22)
(0.990886 -0.269437 8.98974e-22)
(0.991739 -0.255263 -9.05578e-22)
(0.943767 -0.291398 1.61567e-21)
(0.987217 -0.296266 -1.44939e-21)
(0.988727 -0.283144 0)
(0.554932 -0.094142 -2.88717e-21)
(0.633174 -0.0731688 0)
(0.895138 -0.283551 0)
(0.93812 -0.302746 -1.51123e-21)
(0.984337 -0.308613 1.28707e-21)
(0.592677 -0.191742 -6.50805e-22)
(0.703109 -0.210028 0)
(0.540382 -0.181707 -1.96856e-21)
(0.755512 -0.226047 2.97185e-22)
(1.11335 0.0488698 2.06907e-22)
(1.12058 0.0473104 -2.79187e-22)
(0.502365 -0.165746 0)
(0.804983 -0.244024 0)
(0.485332 -0.143327 1.41297e-21)
(0.851264 -0.263478 -1.33338e-22)
(0.496683 -0.116131 2.89736e-21)
(1.06326 0.0298333 2.56782e-22)
(0.618556 -0.0675052 -4.42791e-21)
(0.537179 -0.0877108 -2.36764e-23)
(0.886631 -0.29386 -1.66544e-21)
(0.931601 -0.313148 -1.35245e-21)
(0.981076 -0.320044 1.08965e-21)
(0.602097 -0.0613201 1.51083e-21)
(0.712146 -0.0494935 1.45833e-21)
(1.12782 0.0527496 6.10926e-22)
(1.12653 0.0492901 -3.55626e-23)
(0.698143 -0.0444707 -1.54354e-21)
(0.643782 -0.201788 -3.0594e-22)
(0.740984 -0.0556324 1.29528e-21)
(0.724267 -0.0537492 -2.03222e-21)
(0.777047 -0.0546517 -2.92979e-22)
(0.756142 -0.0564647 1.24416e-21)
(0.820867 -0.0466989 0)
(0.797901 -0.0516493 0)
(0.868006 -0.0329541 -1.73688e-24)
(0.844421 -0.0404046 0)
(0.91457 -0.0152449 1.55971e-24)
(0.891462 -0.0245182 0)
(0.959116 0.00508813 1.48821e-24)