/*--------------------------------*- C++ -*----------------------------------*\
  =========                 |
  \\      /  F ield         | OpenFOAM: The Open Source CFD Toolbox
   \\    /   O peration     | Website:  https://openfoam.org
    \\  /    A nd           | Version:  10
     \\/     M anipulation  |
\*---------------------------------------------------------------------------*/
FoamFile
{
    format      ascii;
    class       surfaceScalarField;
    location    "87";
    object      phi;
}
// * * * * * * * * * * * * * * * * * * * * * * * * * * * * * * * * * * * * * //

dimensions      [0 3 -1 0 0 0 0];

internalField   nonuniform List<scalar> 
57492
(
0.00023515
-1.05724e-05
-4.36082e-05
-0.000180969
-0.000162045
0.0002668
0.000130395
-2.87423e-05
8.07977e-05
0.000323151
-0.000375206
0.0031599
0.00338638
-0.000272141
-0.00627415
-0.00862825
0.00404525
0.0077429
0.000651954
-0.00059892
-0.000314276
0.000261242
-0.00115999
0.000196599
-6.61619e-05
0.00102956
0.000250568
-0.000758608
0.00159295
-0.00463284
0.00442504
-0.00138515
0.00134435
0.0042484
-0.0039998
-0.000610321
-0.000206023
0.000682609
0.000133736
-0.000122128
-0.000830478
0.000342284
0.000231344
-0.000324562
-2.89098e-05
-5.31294e-05
7.845e-05
0.00155784
-0.00150545
-0.000563858
0.000511467
0.000225735
0.0012578
7.43075e-05
-0.000324938
0.000788795
0.00333523
-0.00379908
-0.000661061
0.00326113
-0.002925
0.000135384
-0.000288408
0.000153024
-0.00166255
0.00121939
0.000578545
-0.00465975
0.000189094
0.00333539
0.00113527
0.00122866
-0.00472992
-0.00115849
-0.000132859
-0.00019582
-0.00070098
0.00102966
-0.000286516
0.000175651
-2.19935e-05
-0.00254221
0.00215801
0.000733375
-0.00034917
-0.00304591
0.000925677
-0.000421977
-0.00112668
0.0005958
0.000456408
7.44713e-05
-0.000778315
-0.000361894
1.35287e-05
-0.000366966
-0.00113288
0.00128963
0.000210216
-0.000415692
0.000116275
-6.75491e-05
0.000678885
-0.000451499
-0.000420809
0.000193423
-0.000585412
0.000473131
0.000791166
-0.000803329
-0.00154029
0.00149965
0.000843965
-0.00183832
-0.000437018
0.00147201
-0.000707284
-0.000151968
0.000859251
-0.000271196
-0.000436088
-0.00137458
0.00189189
-0.000788508
0.000203036
-0.00076736
-0.000810253
-0.000512153
0.000708751
-0.000233052
-0.00190189
0.00115086
0.000751034
-0.00432179
0.0024199
0.00486384
-0.000801806
0.000332675
-0.00439471
0.00357469
-9.65405e-05
0.0013857
-0.000709454
0.00488229
-0.00497465
0.00127754
0.000277377
-0.00130435
0.00128994
-7.85655e-05
0.0015656
-0.000587189
-0.00116666
0.000188246
0.00175259
9.0384e-05
0.000792918
-0.000494622
0.000991645
0.00077828
0.00104419
-0.00475728
-0.000632348
0.000542866
0.00484676
-0.00489055
-0.000295827
0.000429103
0.00122064
0.00451238
-0.00443719
-0.00129584
0.000892507
-0.0043047
-0.00277268
0.00252596
0.0025304
-0.00228369
-0.000270272
0.00319965
-0.00570205
1.47993e-05
-0.000116375
-7.97591e-07
0.000102374
-0.000320365
1.06024e-05
6.6848e-05
-0.000135632
-0.000251581
-5.61751e-05
6.64781e-06
1.10963e-05
-1.18939e-05
8.82595e-06
2.27034e-06
0.00729835
0.00378493
-0.005876
-0.00520728
0.0023372
-0.000701997
0.00566314
-0.00784866
0.00309919
0.00708667
0.00229332
-0.00635705
0.00162383
-0.00286526
0.00213315
-0.000891722
0.00235565
-0.00291382
0.002182
-2.97722e-05
2.1752e-05
-2.55213e-06
-6.99929e-05
-3.3875e-06
-0.000222072
-2.88908e-05
-0.00293749
0.0053461
0.00339222
-0.00580084
0.00436233
-0.00494417
0.00298385
0.0047458
-0.00238355
0.0100791
-0.00147772
-0.00179162
-0.00680973
0.00224524
0.00541535
0.00241848
0.00160764
-0.00500156
0.00563916
4.67567e-05
-7.5499e-05
0.000127554
0.000815447
0.00175638
-0.000625901
-0.00194592
0.00103906
9.95361e-05
-9.5476e-05
2.62202e-05
6.92557e-05
-0.000297411
0.000201935
-0.00660262
0.00342363
-0.00201297
0.00519196
-0.00574039
-0.00249454
0.00163231
-0.00262455
0.00208738
-0.00520323
0.00195097
-2.66213e-05
-0.000943895
-0.000980456
-0.00071129
0.00222658
0.000435683
-0.000834233
-8.52138e-05
0.000208157
-0.000771211
-8.96438e-05
-0.000271374
-0.00144373
-0.000237916
-6.23519e-05
1.89945e-05
0.000281273
-0.000214848
-0.000521182
0.000498114
0.000137716
1.69469e-05
-0.000369511
7.95441e-05
-4.17955e-06
0.000101144
-2.60563e-06
-0.000640853
0.000369479
8.34526e-05
-0.000724306
0.00017215
-0.000469561
0.00427364
0.0033316
-0.000178533
0.00212861
-0.00648322
-1.04188e-05
0.00226404
-0.00179751
-0.000456112
0.000291653
0.00316422
-0.00346629
0.00326802
0.00183792
-0.000496971
-0.00460897
-0.00103445
0.000503214
0.00379926
0.00398517
-0.0031817
-0.00164303
-0.00303444
0.00125214
0.00342534
-0.00118421
0.00350468
-0.0039635
0.000424164
-0.00464281
8.22897e-05
3.37285e-05
-4.5682e-06
0.00104278
-0.000615087
-0.000589741
7.62354e-05
-0.000322802
0.00128935
0.000362182
-1.91471e-05
-0.000187109
0.000331908
6.8323e-05
-0.000213122
0.000991931
-0.00121579
3.67487e-05
-0.000357775
0.00083098
0.000518727
-0.000125168
9.93007e-05
-0.00611088
0.00365199
0.00588252
0.00772171
-0.00200505
-0.0082112
-0.0028541
0.00446493
-9.70683e-05
-0.000873797
-0.000162013
-0.000521879
9.11869e-06
4.77278e-05
-0.00013006
3.74866e-05
4.48457e-05
-0.000129924
0.000144266
3.33858e-05
-0.00029894
3.89562e-05
-0.000265119
-0.000312558
5.57979e-05
-0.000803183
-0.000335733
-0.00073628
-0.000789573
0.000901558
0.000624295
3.00522e-05
0.000390326
-0.00115666
-0.00102912
0.000269602
-0.00293273
0.00133013
-5.99515e-05
-0.00350121
0.000809196
-0.000240718
0.000875894
-0.0033474
0.00256425
-9.27436e-05
0.000678941
-0.00272859
0.00292554
0.00252811
-0.0101973
-0.0017648
0.00218101
0.00302043
-0.00345511
0.0020606
-0.000320679
2.67642e-07
1.66793e-05
-3.50285e-06
3.7705e-06
0.000284089
-4.12769e-05
0.00557765
-0.00340896
-0.002495
0.000326307
0.00482949
3.87102e-05
0.00463713
0.000169606
-0.00507701
0.0013802
0.00329288
-3.59455e-05
0.000551519
-0.00290865
0.00373733
5.31685e-06
-8.8197e-06
0.000759148
-0.00211943
-0.00284586
0.00123137
0.00308259
0.000765664
-4.3881e-05
-0.000804855
8.30726e-05
0.000254926
-7.46738e-05
-0.000986358
0.000220117
0.00123937
0.000180111
-0.000911543
-0.000134945
7.61186e-05
-7.0109e-06
1.03284e-05
-2.98507e-06
-3.32438e-07
1.09362e-05
-2.55833e-07
-1.76913e-05
4.6786e-05
-0.000103217
6.73673e-05
-0.00171422
0.00264686
-0.000760491
0.00291537
-0.00378034
-0.000849256
7.01421e-06
-0.00135837
0.00157147
-0.00398878
0.000240869
-0.00273457
-0.00182965
0.000575443
0.00269062
0.00291174
-0.00541327
0.00260581
0.0042924
-0.00420758
0.00224083
-0.00308398
0.00160582
-0.000762668
0.0024561
-0.0030231
0.00280783
0.00437006
0.00187706
0.00500264
-0.000228858
-0.00496812
0.000194339
0.00554385
-0.000657391
0.000116184
0.0055283
-0.000906695
8.64038e-05
-0.00470801
0.00396773
-0.00137875
0.00293932
0.00430743
-0.00140614
0.00114314
-0.00404443
0.00127192
0.00438734
-0.00135182
-0.00387566
-0.00166754
0.00413706
0.00106869
-0.00369221
-0.00186199
0.00361978
-0.00238044
-0.00323859
0.00215642
0.00346261
-0.00239625
-0.00326662
0.00328243
0.00223604
0.00304537
-0.0014755
-0.00380591
0.00301911
-0.00317932
-0.00259035
0.00261506
0.00299441
-0.00204161
0.00249663
-0.00406847
0.00361452
-0.00102155
-0.00506479
0.00105444
0.00537417
-0.00136382
0.00191108
-0.00026294
0.000988541
-0.00105427
0.000328669
-0.000106781
0.00126738
-0.00142354
-5.28994e-05
0.000304702
0.00011038
-0.000989977
-0.00155566
0.0010133
-1.4969e-07
-1.06142e-07
3.07952e-07
-4.57643e-07
-9.02374e-05
-0.00171484
0.00131046
-0.00153195
-6.03405e-05
0.00150205
4.08158e-05
-0.00160554
3.27801e-05
-0.000245788
0.0015244
0.000271307
-0.00154992
0.00157286
0.000429158
-0.00224781
0.00154948
0.00154778
-2.44894e-06
5.09374e-07
3.56681e-05
-4.7468e-06
2.29786e-06
-4.23742e-06
-5.53446e-06
4.22375e-06
-5.48644e-05
1.02233e-06
-6.55679e-06
5.24608e-06
-4.38675e-05
2.12587e-05
-0.000263908
2.21369e-05
-6.60044e-05
4.33957e-05
5.32172e-05
-5.34443e-06
-0.000173041
-1.69146e-05
7.01318e-05
-2.22591e-05
0.00142786
0.00327785
-0.00420249
0.00132251
-0.00446074
0.0045661
0.00471312
-0.000112772
-0.00118219
-0.0024441
0.00115806
0.00246823
-0.000710336
0.00272146
-0.00319332
0.000157405
-0.00331184
0.00357911
-0.00359298
-9.06458e-06
2.2935e-05
0.00359724
3.44927e-05
-5.26174e-05
-1.98375e-05
-0.00356753
-5.61969e-06
0.00364389
6.76371e-07
-4.73288e-05
0.0037288
5.48611e-05
-0.000139774
2.77371e-05
0.00384196
-0.000140898
0.00379505
-0.00375288
-1.44327e-05
-0.000178501
0.0040423
-2.18381e-05
0.00370869
-9.21461e-05
-0.00361858
-7.94367e-05
-0.00358665
-3.1255e-05
-0.00356195
9.79538e-06
-0.00361823
4.72134e-05
-0.00353896
-9.91096e-05
-0.000174888
0.00423887
-2.16825e-05
0.00355378
-1.99749e-05
-1.49117e-05
-0.00351716
-3.54516e-05
-0.00354742
-6.44937e-06
-2.20105e-05
-0.00369943
0.000204276
-9.55358e-07
0.00426099
-2.11633e-05
0.00357309
-2.02615e-05
-0.00365652
8.70884e-05
0.00428303
-1.14652e-06
-2.08929e-05
-1.55863e-06
0.00430484
-2.02531e-05
0.00359204
-2.01016e-05
0.00361098
-2.04978e-05
-1.76915e-05
-0.00365563
-2.61051e-05
-0.00365447
-1.97433e-05
-1.64665e-06
0.00432647
-1.99753e-05
0.00362969
-2.03564e-05
3.27916e-06
-0.00363241
-2.65022e-05
-0.00363114
-2.0044e-05
-1.92194e-06
0.00434771
-1.93191e-05
0.00364853
-2.0764e-05
3.55703e-06
-0.0036089
-2.70656e-05
-0.00360772
-1.98698e-05
-1.7683e-06
0.00436853
-1.90549e-05
0.00366739
-2.06226e-05
3.62953e-06
-0.00358518
-2.7355e-05
-0.00358389
-2.01966e-05
-1.57824e-06
0.0043885
-1.8394e-05
0.00368684
-2.10264e-05
3.86894e-06
-0.00356122
-2.78272e-05
-0.00355997
-2.00547e-05
-4.89944e-07
0.00440714
-1.815e-05
0.00370722
-2.08702e-05
1.217e-05
-0.00354534
-2.80443e-05
-0.00352744
-2.03602e-05
1.55133e-06
0.00442308
-1.74873e-05
0.00373001
-2.1248e-05
2.71407e-05
-0.00342179
-0.000150694
-0.00344371
-5.65848e-05
6.34781e-06
0.004434
-1.72654e-05
0.00374029
-3.92782e-06
2.6811e-05
-0.00341483
-3.37721e-05
-0.00339467
-2.22302e-05
1.57866e-05
0.00443483
-1.6617e-05
0.00373138
2.46954e-05
5.26075e-05
-0.0032708
-0.000196638
-0.00327357
-6.84971e-05
0.0001871
0.00426413
-1.64041e-05
0.00386263
5.58477e-05
5.93311e-05
-0.00323252
-9.76066e-05
-0.00321465
4.1678e-07
0.000165916
0.00396833
0.000129889
0.00394433
8.42179e-05
9.1304e-05
-0.000151263
-0.00317256
-0.00317868
5.53276e-05
8.75825e-06
2.30747e-05
0.00393649
0.00393657
1.65219e-05
-0.00325542
0.0033305
-0.000172684
-0.00325004
-0.000156643
0.000151559
-0.000156769
-0.00316735
5.42635e-05
-0.00308138
-0.0032818
0.00333355
-8.55234e-05
-0.000147936
-0.00323376
0.00325597
-5.02594e-05
-5.09011e-05
-0.00327781
0.00329948
-4.90263e-05
-4.96647e-05
-0.00332081
0.00334203
-4.77174e-05
-4.83977e-05
-0.00336297
0.00361372
-4.64663e-05
-4.70512e-05
-0.00362414
0.00359492
2.35991e-05
-4.58741e-05
-0.00373141
0.00372274
-4.39396e-05
-0.000113559
-0.00362265
0.00358914
-0.000106265
5.27549e-05
-0.003523
0.0035424
-4.12381e-05
-7.47539e-05
-0.00356143
0.00358034
-4.00766e-05
-4.0709e-05
-0.00359899
0.0036176
-3.88687e-05
-3.95399e-05
-0.00363596
0.00365429
-3.76529e-05
-3.83325e-05
-0.00367237
0.00369043
-3.64512e-05
-3.71305e-05
-0.00370823
0.00372601
-3.52736e-05
-3.59491e-05
-0.00374354
0.00376103
-3.41047e-05
-3.47924e-05
-0.00375634
0.00386179
2.44357e-05
-1.17189e-05
0.00386934
1.55339e-05
-2.71018e-05
6.18383e-05
0.00390176
-2.46389e-05
0.00393411
0.00385933
-0.00377881
-2.46759e-05
-0.00391455
0.0039238
7.27571e-06
2.89966e-05
0.00376107
-0.00372629
-3.87031e-05
6.95642e-06
0.00370863
-0.00369065
-3.88542e-05
-3.89122e-05
0.00367268
-0.0036544
-3.88993e-05
-3.89939e-05
0.00363613
-0.00361755
-3.89379e-05
-3.90316e-05
0.00359897
-0.00358006
-3.90106e-05
-3.90844e-05
0.00356113
-0.00354193
-3.91694e-05
-3.91911e-05
0.00359468
-0.00356978
-3.9333e-05
-3.93948e-05
0.00360971
-0.00355062
-9.03406e-05
-3.95106e-05
0.00350749
-0.00346472
4.44451e-06
-3.3335e-05
0.00348767
-0.00348971
-4.41358e-06
-7.61647e-05
0.00336197
-0.00334095
-4.07628e-05
-4.06425e-05
0.00331982
-0.00329831
-4.13797e-05
-4.1179e-05
0.00327668
-0.00325467
-4.20642e-05
-4.18227e-05
0.0032325
-0.00324625
-4.28292e-05
-4.25363e-05
0.00322512
-0.00324988
-4.3744e-05
-4.33612e-05
0.00320503
-0.00313586
-1.38477e-05
-4.44245e-05
-0.00307961
-1.98577e-06
-0.00325069
-0.00015612
0.00389904
3.21347e-05
-3.81213e-05
0.00393728
9.46444e-05
-0.000106823
-0.0030692
4.8485e-05
-0.00303345
0.000134642
-0.000152273
-0.00323306
-0.00313953
-0.00325865
0.00322821
-0.000142244
0.00327313
-0.00327692
-0.000152331
-0.00014216
-0.00320899
0.00323141
-0.00010794
-0.00012872
-0.0032534
0.00327525
-7.2104e-05
-7.28967e-05
-0.00329672
0.00331804
-7.03454e-05
-7.11387e-05
-0.00333902
0.00335988
-6.85797e-05
-6.93769e-05
-0.00338045
0.00340086
-6.68673e-05
-6.76227e-05
-0.00342094
0.00350978
-6.52434e-05
-6.5957e-05
-0.00346056
0.00348019
-6.35705e-05
-6.43336e-05
-0.0035957
0.00355142
-6.19888e-05
-6.27553e-05
-0.0035377
0.00355673
-6.02709e-05
-6.10314e-05
-0.00357545
0.00359409
-5.87154e-05
-5.94273e-05
-0.00361245
0.00363077
-5.71932e-05
-5.79e-05
-0.00364883
0.00366687
-5.56911e-05
-5.63932e-05
-0.00368465
0.00370241
-5.42146e-05
-5.49092e-05
-0.00371992
0.00373741
-5.27654e-05
-5.34532e-05
-0.00375463
0.00377183
-5.12973e-05
-5.20165e-05
-0.0037885
0.00383546
-2.25246e-05
-2.83926e-05
-4.96518e-06
-2.09277e-05
0.00392765
-2.87846e-05
0.00392286
-0.00384047
0.00389512
-2.25167e-05
1.05214e-05
0.00388153
-0.00386555
-8.70975e-06
0.00386688
-2.34692e-05
1.87199e-05
7.23346e-06
0.00391133
0.0039319
0.00384928
-0.0038048
-6.91485e-05
1.2724e-05
0.00375543
-0.00373797
-5.61635e-05
-4.24194e-05
0.00372055
-0.00370282
-5.65776e-05
-5.6334e-05
0.00368512
-0.00366711
-5.6909e-05
-5.66948e-05
0.00364912
-0.00363081
-5.72456e-05
-5.70284e-05
0.0036125
-0.00359389
-5.76249e-05
-5.7388e-05
0.00357528
-0.00355637
-5.80719e-05
-5.78043e-05
0.00353748
-0.00351825
-5.85637e-05
-5.82872e-05
0.00349896
-0.00353014
-5.91581e-05
-5.88065e-05
0.00350401
-0.00343975
-5.98172e-05
-5.94625e-05
0.00345572
-0.00339945
-6.06787e-05
-6.01932e-05
0.00337904
-0.00335825
-6.15469e-05
-6.10613e-05
0.00333739
-0.00331617
-6.26021e-05
-6.20395e-05
0.00329483
-0.00327311
-6.37876e-05
-6.31606e-05
0.00325123
-0.00322894
-6.51207e-05
-6.44132e-05
0.00320646
-0.00318355
-6.6659e-05
-6.58385e-05
0.00316046
-0.00310586
-6.84501e-05
-6.75129e-05
0.00306536
-0.0030015
-1.53679e-05
-4.24844e-05
-0.00327594
-0.000153251
3.49977e-05
-0.000104644
-0.0029638
-0.0029605
-6.00473e-06
-0.000173776
-0.00300007
-2.27878e-05
0.00388913
0.00388997
-1.58503e-05
-9.99518e-05
9.36746e-05
-0.00322678
-0.000121945
-0.00325395
1.29153e-05
-0.000100518
-0.0028762
-2.89612e-05
-0.00291863
-0.00321964
0.00391861
-0.00389154
-4.95834e-05
0.00389471
1.11225e-06
3.10316e-05
-8.84471e-06
0.00388914
-8.98564e-06
0.00392998
-0.00325386
0.00331282
-0.000180907
-0.000167102
0.000124958
-0.0032118
0.00330555
1.2033e-05
0.000173271
-0.00349086
-0.000115409
-0.00333226
0.00332845
-0.000148516
-0.000172694
-0.00330738
0.00327557
-0.000110433
-0.000121093
-0.00327261
0.00326043
-9.57573e-05
-0.000125758
-0.00328193
0.00330324
-9.34173e-05
-9.43995e-05
-0.00332418
0.00334496
-9.11288e-05
-9.2077e-05
-0.00336542
0.00338575
-8.89114e-05
-8.98279e-05
-0.00340577
0.00342568
-8.67763e-05
-8.76478e-05
-0.00344528
0.00346476
-8.47236e-05
-8.55588e-05
-0.00348397
0.0035031
-8.27095e-05
-8.35362e-05
-0.00352192
0.00354069
-8.07582e-05
-8.1566e-05
-0.00355923
0.00357775
-7.87841e-05
-7.95808e-05
-0.00359599
0.00361418
-7.69086e-05
-7.76691e-05
-0.00363211
0.00365
-7.50853e-05
-7.58251e-05
-0.00366763
0.00368524
-7.33024e-05
-7.40261e-05
-0.0037026
0.00371994
-7.1556e-05
-7.22653e-05
-0.00373703
0.0037541
-6.984e-05
-7.05398e-05
-0.00377092
0.00378772
-6.81029e-05
-6.88313e-05
-0.00381466
0.00383693
-4.47966e-05
-5.53314e-05
-4.40875e-05
1.20158e-05
-1.28748e-05
0.00392851
-1.06022e-05
-3.62743e-05
0.003936
0.00392427
0.00391018
0.00388551
-0.00386546
-2.87591e-05
-0.00389587
0.00389006
-1.00399e-05
-3.3828e-05
0.00380564
-0.00380225
-7.25368e-05
-4.70964e-05
0.00377201
-0.00375492
-7.32468e-05
-7.26687e-05
0.00373789
-0.00372056
-7.39076e-05
-7.33671e-05
0.00370325
-0.00368564
-7.45187e-05
-7.40019e-05
0.00366805
-0.00365015
-7.51443e-05
-7.46241e-05
0.00363226
-0.00361406
-7.58183e-05
-7.52795e-05
0.00359587
-0.00357738
-7.65612e-05
-7.5995e-05
0.00355889
-0.00354007
-7.73774e-05
-7.67822e-05
0.00352123
-0.00350208
-7.83104e-05
-7.76528e-05
0.00348288
-0.00346335
-7.93508e-05
-7.86549e-05
0.00344377
-0.00342389
-8.05542e-05
-7.97744e-05
0.00340392
-0.00338359
-8.18684e-05
-8.10379e-05
0.00336319
-0.00334242
-8.33656e-05
-8.24473e-05
0.00332155
-0.00330029
-8.50417e-05
-8.40369e-05
0.00327889
-0.0032571
-8.69198e-05
-8.58121e-05
0.00323512
-0.00321273
-8.90501e-05
-8.78116e-05
0.00319015
-0.00316713
-9.14731e-05
-9.00908e-05
0.00311694
-0.00303803
-9.42738e-05
-9.26737e-05
0.00298393
-0.00296954
-4.33471e-05
-6.01092e-05
-1.85256e-05
-2.32608e-06
-0.00289777
-0.00293376
-5.431e-05
0.000119455
-0.00322128
-7.48478e-05
-0.00302574
-2.53385e-05
0.00388377
0.00391969
-3.86139e-05
0.0001624
-0.00336217
2.91238e-05
-0.00290765
0.000734537
-0.00269351
0.00350846
2.4047e-05
-6.37016e-05
-0.00289411
-2.58187e-05
-0.00284791
-0.00217372
0.00332348
0.000398019
-0.00165657
-0.000245843
-0.00317503
-0.00317412
0.00332836
1.90294e-05
0.000166954
-1.75997e-05
-0.00331572
0.00330627
-0.000171454
-0.000102765
-0.00330052
0.00327527
-0.00012327
-0.000166946
-0.00327548
0.00328498
-0.000119939
-0.000121299
-0.00327726
0.00329832
-0.00011682
-0.000118033
-0.00331902
0.00333955
-0.000113955
-0.000115096
-0.00335976
0.00337983
-0.000111201
-0.000112284
-0.0033996
0.00341924
-0.00010856
-0.000109589
-0.0034386
0.00345785
-0.000106026
-0.000107
-0.0034768
0.00349567
-0.000103591
-0.000104517
-0.00351426
0.00353278
-0.00010123
-0.000102122
-0.00355102
0.0035692
-9.89409e-05
-9.98047e-05
-0.00358715
0.00360505
-9.66919e-05
-9.75265e-05
-0.00362271
0.00364032
-9.45229e-05
-9.53214e-05
-0.00365768
0.00367501
-9.24163e-05
-9.31855e-05
-0.00369209
0.00370915
-9.03631e-05
-9.11076e-05
-0.00372597
0.00374277
-8.83557e-05
-8.90794e-05
-0.00375932
0.00377586
-8.63822e-05
-8.70928e-05
-0.00379216
0.00380845
-8.43969e-05
-8.51252e-05
-0.00383625
0.00387387
-8.24163e-05
-8.31268e-05
-0.00388005
0.00389275
-6.2288e-05
-5.02719e-05
-0.00392349
0.0039329
-3.47419e-05
-2.96251e-05
8.17741e-06
-6.43088e-07
0.00392847
3.0248e-05
-7.28722e-05
0.00397552
0.0039222
2.52813e-05
1.17457e-05
0.00389148
0.00394891
-5.88568e-06
-1.90636e-05
0.00391409
0.00391604
3.18832e-05
-6.81579e-05
0.00395596
0.0039428
0.00394462
-0.00391554
-3.91235e-05
-0.00402025
0.00393102
2.10751e-05
-0.000114245
0.00389075
-0.00386692
-5.25966e-05
-5.86126e-05
0.0038261
-0.0038098
-8.88404e-05
-8.79141e-05
0.00379352
-0.00377695
-8.98158e-05
-8.89478e-05
0.00376042
-0.00374361
-9.07215e-05
-8.98939e-05
0.00372681
-0.00370973
-9.16039e-05
-9.07941e-05
0.00369266
-0.00367529
-9.25092e-05
-9.16959e-05
0.00365793
-0.00364028
-9.34692e-05
-9.26377e-05
0.00362263
-0.00360469
-9.45061e-05
-9.36459e-05
0.00358673
-0.00356847
-9.56385e-05
-9.47394e-05
0.00355018
-0.00353159
-9.6899e-05
-9.59417e-05
0.00351296
-0.00349402
-9.82964e-05
-9.72823e-05
0.00347503
-0.00345572
-9.98582e-05
-9.87659e-05
0.00343635
-0.00341663
-0.000101581
-0.000100416
0.00339683
-0.00337669
-0.000103507
-0.000102246
0.00335644
-0.00333583
-0.000105651
-0.000104286
0.00331509
-0.00329397
-0.00010804
-0.000106554
0.0032727
-0.00325103
-0.000110716
-0.000109086
0.0032292
-0.00320695
-0.000113716
-0.000111927
0.00318453
-0.00316172
-0.000117079
-0.000115101
0.00310319
-0.00302572
-0.000120818
-0.000118645
0.003009
-0.00297716
-9.5537e-05
-7.103e-05
-5.87055e-05
3.97199e-05
-0.00287512
-0.00293543
-0.000100432
0.000114579
-0.00317346
-2.08096e-05
-0.00297581
0.000282352
-0.00290998
3.03601e-05
-0.00296383
0.0039589
-0.0039489
-4.47483e-05
0.00395821
-7.21784e-05
-2.17853e-05
2.06382e-05
0.00395711
-7.24651e-05
0.0039817
0.000297096
-0.00256145
5.79714e-05
-0.00286616
-0.00145945
-0.00174703
-0.00260823
0.00302464
-1.83969e-05
-3.97072e-05
3.61413e-05
-0.00287155
-7.86029e-05
-0.00289654
-0.00239579
-0.000458282
-0.00308126
-0.00317762
0.00323899
-4.23424e-05
1.39783e-05
-0.00328655
0.00326333
-0.000148234
-0.000150322
-0.00324208
0.00326293
-0.000144118
-0.0001457
-0.00328349
0.00330393
-0.000140378
-0.00014186
-0.00332412
0.00334417
-0.00013687
-0.000138221
-0.00336392
0.00338354
-0.00013358
-0.000134845
-0.00340287
0.00342209
-0.00013042
-0.000131616
-0.00344102
0.00345986
-0.000127392
-0.000128521
-0.00347841
0.00349688
-0.00012449
-0.000125555
-0.00351507
0.00353318
-0.000121703
-0.00012271
-0.00355103
0.00356881
-0.000119015
-0.000119971
-0.00358634
0.00360381
-0.000116415
-0.000117329
-0.00362105
0.00363824
-0.000113888
-0.000114761
-0.0036552
0.00367212
-0.000111443
-0.000112275
-0.0036888
0.00370545
-0.00010907
-0.000109866
-0.00372187
0.00373826
-0.00010676
-0.000107524
-0.00375442
0.00377057
-0.000104503
-0.00010524
-0.00378648
0.00380239
-0.000102285
-0.000103004
-0.00381806
0.00383374
-0.000100078
-0.000100796
-0.00384919
0.00386463
-9.78574e-05
-9.85829e-05
-0.00391074
0.00391264
-6.41897e-05
-9.63772e-05
-6.58817e-05
-3.66522e-06
-3.81321e-05
0.00397027
4.3815e-05
-4.86788e-05
0.00398038
0.00396235
-1.22803e-05
-4.20032e-06
0.00390796
0.0038985
-1.72565e-05
1.89412e-05
0.00391241
0.00389458
0.00398238
0.00396995
-0.00394386
-6.52102e-05
-0.00393652
0.00398775
-3.01631e-05
-8.08109e-05
0.00391716
-0.00386646
-0.000103297
-8.53133e-05
0.00385104
-0.00383533
-0.000104543
-0.000103342
0.00381967
-0.00380374
-0.000105751
-0.000104609
0.00378783
-0.00377165
-0.000106905
-0.000105798
0.00375549
-0.00373904
-0.00010805
-0.000106958
0.00372261
-0.00370589
-0.000109225
-0.00010813
0.00368918
-0.00367219
-0.000110462
-0.000109349
0.00365519
-0.00363791
-0.000111786
-0.000110641
0.00362062
-0.00360303
-0.000113222
-0.000112033
0.00358543
-0.00356753
-0.000114797
-0.000113549
0.00354959
-0.00353136
-0.000116529
-0.000115216
0.00351308
-0.0034945
-0.000118441
-0.000117046
0.00347585
-0.00345688
-0.000120547
-0.000119065
0.00343784
-0.00341847
-0.000122878
-0.000121291
0.003399
-0.00337919
-0.000125457
-0.000123754
0.00335927
-0.003339
-0.000128312
-0.000126476
0.00331859
-0.00329783
-0.000131478
-0.000129491
0.00327693
-0.00325566
-0.000134983
-0.000132834
0.00323424
-0.00321248
-0.000138842
-0.000136521
0.00319057
-0.00316834
-0.000143046
-0.00014055
0.00309439
-0.00304236
-0.000147563
-0.000144986
0.00299316
-0.00295068
-0.000121088
-0.000149629
-5.00299e-05
5.52222e-05
-0.00290173
-0.00291624
-8.44654e-05
8.91245e-05
-0.00298023
3.68378e-06
-0.00294913
-4.55211e-05
0.00395505
0.0039887
-7.3407e-05
0.000178896
-0.00279179
-0.000289217
-0.00341804
1.07734e-05
-0.00286144
3.15926e-05
-0.00293745
5.91857e-05
-0.0028892
-0.00340973
-0.000733089
0.00023874
-0.000490641
-0.00315783
-0.000155423
-0.00302388
3.74347e-05
-0.00285377
-8.2035e-05
1.60517e-05
-0.00283575
-6.95742e-05
-0.0029287
-0.00298845
-0.00290984
0.00306028
-0.000168835
0.00303935
-0.00331099
-0.000461449
-0.000328776
-0.00317479
0.00324018
-0.000107735
-0.000100531
-0.0032604
0.00328054
-0.000168372
-0.000170542
-0.00330043
0.00332016
-0.000163854
-0.000165587
-0.00333964
0.00335901
-0.000159748
-0.000161335
-0.00337812
0.00339712
-0.000155872
-0.000157335
-0.00341585
0.00343447
-0.000152199
-0.00015357
-0.00345282
0.00347107
-0.000148675
-0.000149968
-0.00348907
0.00350697
-0.000145296
-0.000146513
-0.00352462
0.00354218
-0.000142057
-0.000143201
-0.0035595
0.00357674
-0.000138948
-0.000140025
-0.00359374
0.00361068
-0.000135955
-0.00013697
-0.00362738
0.00364403
-0.000133067
-0.000134028
-0.00366045
0.00367684
-0.000130272
-0.000131182
-0.00369299
0.00370912
-0.000127568
-0.00012843
-0.00372502
0.00374089
-0.000124944
-0.000125764
-0.00375654
0.00377217
-0.000122391
-0.000123173
-0.00378758
0.00380297
-0.000119896
-0.000120647
-0.00381814
0.0038333
-0.000117447
-0.000118174
-0.00384824
0.00386319
-0.00011502
-0.000115737
-0.00387791
0.00389265
-0.000112598
-0.000113312
-0.00390716
0.00395317
-0.000110201
-0.000110885
-0.00396941
0.00399208
-6.74213e-05
-8.21148e-05
-0.00395291
0.00398263
-7.52401e-05
-3.30103e-05
-9.92088e-06
1.1509e-05
0.0039788
7.93919e-05
-0.000114007
0.00401725
0.00402452
4.9059e-06
2.81297e-05
0.00393723
0.00397876
-1.19876e-05
-4.36336e-06
0.00392431
0.00391464
2.06371e-05
-3.6783e-05
0.00392855
0.00391085
2.42512e-05
-4.65058e-05
0.00397937
0.00396985
6.8874e-05
-7.81796e-05
0.003998
0.00400407
0.00402715
-0.003968
-8.9311e-05
-0.00402161
0.00401341
-6.99811e-05
-6.78704e-05
0.00396331
-0.00394071
-8.78054e-05
-8.55018e-05
0.00390949
-0.00389477
-0.000118018
-0.000116535
0.00388005
-0.00386508
-0.000119518
-0.00011806
0.00385014
-0.00383493
-0.000120956
-0.000119548
0.00381975
-0.0038043
-0.000122354
-0.000120979
0.00378887
-0.00377317
-0.000123752
-0.000122391
0.00375748
-0.00374151
-0.000125188
-0.000123823
0.00372555
-0.00370932
-0.000126691
-0.000125308
0.00369309
-0.00367659
-0.000128291
-0.000126875
0.00366007
-0.00364328
-0.000130014
-0.000128551
0.00362646
-0.00360937
-0.000131889
-0.000130365
0.00359224
-0.00357484
-0.000133936
-0.00013234
0.00355739
-0.00353965
-0.000136179
-0.000134498
0.00352185
-0.00350376
-0.000138639
-0.000136861
0.0034856
-0.00346713
-0.000141344
-0.000139455
0.00344858
-0.00342971
-0.00014432
-0.000142306
0.00341075
-0.00339147
-0.000147593
-0.00014544
0.00337208
-0.00335236
-0.000151192
-0.000148885
0.00333253
-0.00331238
-0.000155136
-0.000152667
0.0032921
-0.00327151
-0.000159429
-0.000156797
0.00325079
-0.00322977
-0.00016407
-0.00016127
0.00320866
-0.00318724
-0.00016899
-0.000166089
0.0031657
-0.0031125
-0.000174287
-0.000171165
0.00306138
-0.00299063
-0.000140325
-0.000135589
-0.000114101
6.70775e-05
-0.00288168
-0.00297098
-0.000133754
6.46665e-05
-0.002866
-0.00332275
-0.000478881
6.06808e-05
-0.00284169
0.00405937
-0.00405765
-7.69624e-05
0.00406891
-0.000123545
-5.8396e-05
4.74282e-05
0.00400897
-6.10514e-05
0.00401607
4.71239e-06
-0.00292225
3.25767e-05
-0.00291084
-1.96724e-05
-0.00299719
6.01628e-05
-0.00291193
8.79023e-05
-0.00292562
0.000115789
-0.00288446
-0.000101778
0.00010647
-0.00288637
-0.000154485
-0.00291827
-0.00291907
-0.00332529
0.00319603
-0.00033219
-0.000416744
0.00049381
-0.00339981
0.00343779
-0.00354745
-0.000307087
-0.000366376
-0.00309884
0.00317108
-0.000241079
-0.000231585
-0.00325287
0.0033082
-0.000163072
-0.000182316
-0.00332738
0.00334644
-0.000187432
-0.000189716
-0.00336524
0.00338388
-0.000182501
-0.000184384
-0.00340225
0.0034205
-0.000177998
-0.000179702
-0.0034385
0.00345638
-0.000173758
-0.000175331
-0.00347401
0.00349155
-0.000169733
-0.000171201
-0.00350884
0.00352604
-0.000165876
-0.000167256
-0.003543
0.00355988
-0.000162179
-0.000163474
-0.00357653
0.0035931
-0.000158633
-0.000159847
-0.00360945
0.00362573
-0.00015523
-0.000156368
-0.00364178
0.00365778
-0.000151956
-0.000153025
-0.00367356
0.0036893
-0.000148802
-0.000149807
-0.00370482
0.0037203
-0.000145755
-0.0001467
-0.00373557
0.00375081
-0.000142807
-0.000143698
-0.00376583
0.00378084
-0.000139948
-0.000140791
-0.00379563
0.00381041
-0.000137166
-0.000137966
-0.00382497
0.00383952
-0.000134448
-0.000135211
-0.00385386
0.00386819
-0.000131779
-0.000132515
-0.00388232
0.00389644
-0.00012914
-0.000129859
-0.00391035
0.00392426
-0.000126512
-0.000127223
-0.00393797
0.00395164
-0.000123872
-0.000124588
-0.00399149
0.00401905
-9.49826e-05
-0.00012197
-7.16068e-05
-5.53055e-05
1.5111e-05
0.00401899
5.66749e-05
-0.000101568
0.00406214
0.00402589
-4.34281e-05
2.7672e-05
0.00395299
0.00395045
-1.16791e-05
-4.49866e-06
0.00394049
0.00393063
2.0606e-05
-3.66132e-05
0.00394456
0.00392696
6.39104e-06
-3.41786e-05
0.00400715
0.00393963
0.00401732
0.0040504
-0.00403961
-0.000100101
-0.00405442
0.00404818
-6.37398e-05
-7.18934e-05
0.00399669
-0.00395429
-0.000130197
-0.000128425
0.00394064
-0.0039267
-0.000131954
-0.00013019
0.0039128
-0.00389864
-0.000133677
-0.000131966
0.00388451
-0.00387012
-0.000135342
-0.000133679
0.00385575
-0.00384113
-0.000136977
-0.000135346
0.00382652
-0.00381165
-0.000138619
-0.000137002
0.00379679
-0.00378168
-0.000140303
-0.000138683
0.00376656
-0.00375119
-0.000142062
-0.000140423
0.00373581
-0.00372018
-0.000143924
-0.000142251
0.00370454
-0.00368863
-0.000145919
-0.000144197
0.00367271
-0.00365652
-0.000148075
-0.00014629
0.00364031
-0.00362383
-0.000150415
-0.000148555
0.00360731
-0.00359052
-0.000152965
-0.000151016
0.00357368
-0.00355657
-0.000155749
-0.000153699
0.0035394
-0.00352195
-0.000158793
-0.000156627
0.00350443
-0.00348663
-0.000162124
-0.000159829
0.00346874
-0.00345056
-0.000165766
-0.000163328
0.0034323
-0.00341375
-0.000169741
-0.00016715
0.0033951
-0.00337617
-0.000174065
-0.000171313
0.00335714
-0.00333784
-0.000178737
-0.000175827
0.00331842
-0.00329874
-0.000183754
-0.000180685
0.00327894
-0.00325886
-0.000189078
-0.000185881
0.00323864
-0.00321815
-0.000194775
-0.000191385
0.00315649
-0.00309619
-0.00020063
-0.000197244
0.00306052
-0.00304711
-0.000167896
-0.000169421
-0.000293643
0.000112847
-0.00284308
-0.00295766
-0.000123025
0.000130142
-0.00292539
-0.0029832
-0.000186935
2.15347e-05
-0.00282686
-7.1566e-05
0.00403891
0.00409485
-0.000107716
0.000246741
-0.00349639
-0.000297802
5.60629e-06
-0.00289528
0.000316144
-0.00346922
1.78374e-05
-0.0028792
3.32311e-05
-0.00288391
3.7137e-05
-0.00292148
6.11419e-05
-0.00288517
8.94147e-05
-0.00289924
0.000117735
-0.00289572
0.000115282
-0.00287151
-0.000150586
0.000129527
-0.00290433
-0.000166166
-0.00296762
-0.00289193
-0.00359412
0.00347143
-0.000184404
-0.000381052
-0.00341924
0.000303904
0.00366929
-0.00355447
-0.000495878
-0.000222624
-0.00339527
0.003342
-0.000278917
-0.000290219
-0.0033282
0.00330329
-0.000216174
-0.00021778
-0.00333438
0.00338258
-0.000211273
-0.000213407
-0.00340049
0.00341832
-0.000205262
-0.000207618
-0.0034359
0.00345334
-0.000199945
-0.000201965
-0.00347052
0.00348758
-0.000195057
-0.000196881
-0.00350439
0.0035211
-0.000190468
-0.000192145
-0.00353757
0.00355396
-0.000186115
-0.000187674
-0.00357011
0.00358619
-0.000181953
-0.000183411
-0.00360205
0.00361783
-0.000177965
-0.00017933
-0.0036334
0.00364891
-0.000174142
-0.000175418