/*--------------------------------*- C++ -*----------------------------------*\
  =========                 |
  \\      /  F ield         | OpenFOAM: The Open Source CFD Toolbox
   \\    /   O peration     | Website:  https://openfoam.org
    \\  /    A nd           | Version:  10
     \\/     M anipulation  |
\*---------------------------------------------------------------------------*/
FoamFile
{
    format      ascii;
    class       volScalarField;
    location    "22";
    object      p;
}
// * * * * * * * * * * * * * * * * * * * * * * * * * * * * * * * * * * * * * //

dimensions      [0 2 -2 0 0 0 0];

internalField   nonuniform List<scalar> 
28942
(
-0.00341833
-0.00274755
0.00253362
0.0101723
0.0104727
0.000174817
0.000481849
6.60599e-05
0.00337867
0.00346762
-0.00185684
-0.00212751
-0.00253215
-0.00244888
0.000311682
0.000711202
0.010477
0.010747
0.00616736
0.00772161
0.00874056
0.00873605
-0.00491857
-0.00471347
-0.00325386
-0.00345797
0.0144964
0.0144444
0.00407649
0.00402915
4.53813e-05
9.09514e-05
0.00121302
0.000522564
0.00769853
0.00891129
0.0114667
0.0134402
3.76773e-05
0.01565
0.00976743
0.0122651
0.0029522
0.00290645
0.00293511
0.000457165
0.000293609
0.000366163
0.000422471
0.000611592
0.00110717
0.00357905
0.00364053
0.00349791
0.00366065
-0.00196077
-0.000670564
-0.00296291
-0.00280657
-0.00310168
-0.0031667
-0.00316012
-0.00305195
0.000337478
-0.00142463
0.000115142
0.00148653
0.0100255
0.00952889
-0.00297996
-0.00320559
-0.00293028
0.00958253
0.00943737
0.00972889
-0.00107923
-0.000679267
-0.000293888
0.00288616
0.00328716
0.00235187
0.00122879
-0.00605411
-0.00732091
0.00154989
0.00430846
0.00536264
0.0061592
0.00452216
0.00466248
0.00665054
0.00601387
-0.000748254
-0.00109424
-0.00142951
-0.001235
-0.00101142
0.00587133
0.00717638
-0.00763395
0.0119698
0.0111709
0.00646505
0.0100626
0.0016231
0.00159828
0.00144703
0.0060846
0.00627661
0.00626884
-0.00279612
-0.00271259
-0.00275787
-0.00221191
-0.00229834
0.0164502
0.0144412
0.0138729
0.0155118
0.00213039
0.0052627
0.00394382
0.00563332
0.00531423
0.0161282
0.0164207
0.0150687
0.00648833
0.00757051
0.000323587
0.00045265
0.000208183
0.0111007
0.0116078
0.0083446
0.00799683
0.0134535
0.00726735
0.00857026
0.00961707
-0.00133293
-0.00187944
0.0079433
0.00289974
0.00293726
-0.000746308
-0.000964058
-0.00049273
-0.00200968
0.00713415
0.0062551
0.00419885
0.000394383
0.000320774
0.000159992
0.000328385
0.00808288
0.00734788
-0.00130566
-0.00143706
-0.00131395
-0.00384615
-0.00335899
0.000137091
-0.00247939
-9.65082e-05
0.00898098
0.00908672
0.0101917
0.00972507
0.00829484
0.00383585
0.00376294
0.00393708
0.00382351
0.005663
0.00543993
0.00577049
0.00599122
0.00592352
0.00597903
0.00618655
0.0067352
0.00643173
0.00602356
0.00635219
0.00706023
0.00780731
0.00810489
0.00014974
0.000142193
-0.00201583
0.000347874
0.000153469
-0.00146986
-0.00155756
0.000477337
0.000525182
0.000478899
0.000411001
0.00243883
0.0024299
0.00241161
-0.00247338
-0.00267197
-0.00229049
-0.00397865
-0.00448582
-0.00375438
-0.00438041
-0.00618506
-0.00484469
0.0166445
0.017359
0.0171241
0.00173216
0.00188156
0.00174904
0.0109513
0.0105247
0.010605
0.00192784
0.00190542
0.00195018
0.001883
0.00186065
0.00183839
0.00183915
0.00181621
0.00181736
0.00186111
0.00188345
0.00190582
0.00192839
0.00195062
0.00179433
0.00179544
0.00197265
0.00197323
0.00199552
0.0017726
0.00177327
0.00199601
0.00175065
0.00172875
0.00175134
0.00172944
0.0020178
0.00201853
0.00170687
0.0017076
0.00204033
0.00204128
0.00168509
0.00168578
0.00206308
0.00206413
0.00166336
0.00166396
0.00208596
0.00208705
0.00164168
0.00164219
0.00210897
0.00211006
0.00162001
0.00162045
0.00213222
0.00213301
0.00159837
0.00159876
0.00215536
0.0021561
0.00157669
0.00157704
0.00217896
0.00217953
0.00155502
0.00155519
0.00220251
0.00220303
0.00153346
0.00153302
0.00222668
0.00222695
0.00151141
0.00151094
0.00225096
0.00225117
0.00148855
0.00148863
0.00222607
0.00225041
0.00227567
0.00227561
0.00217822
0.00220217
0.00213148
0.00215499
0.00208543
0.00210839
0.00203975
0.00206256
0.00199417
0.00201699
0.00194967
0.00197213
0.00190499
0.00192709
0.00186051
0.00188281
0.00181596
0.00183828
0.00177198
0.00179396
0.00172816
0.00175005
0.00168453
0.00170633
0.00164107
0.0016628
0.00159775
0.00161941
0.00155461
0.00157619
0.00151086
0.00153301
0.00148855
0.00146596
0.00146606
0.00153331
0.00148903
0.00151128
0.00157719
0.00155533
0.00162058
0.00159891
0.00166401
0.00164228
0.00170761
0.0016858
0.00175137
0.00172947
0.00179535
0.00177332
0.0018395
0.00181754
0.00188372
0.00186168
0.00192841
0.00190599
0.00197345
0.001951
0.00201862
0.0019958
0.00206422
0.00204139
0.00211015
0.00208714
0.00215648
0.00213323
0.00220335
0.00217976
0.0022508
0.00222692
0.00227519
0.00227501
0.00146601
0.0014665
0.00230051
0.00229981
0.00229972
0.00230049
0.00222538
0.00227374
0.00224946
0.00217764
0.00220146
0.00213107
0.00215426
0.00208508
0.00210803
0.00203944
0.00206222
0.00199412
0.00201674
0.00194908
0.00197164
0.00190444
0.00192689
0.00186018
0.00188208
0.00181574
0.00183795
0.00177176
0.00179373
0.00172797
0.00174984
0.00168437
0.00170615
0.00164093
0.00166263
0.00159764
0.00161927
0.00155449
0.00157605
0.00151087
0.00153281
0.00144329
0.00144352
0.00146646
0.00148882
0.00148973
0.00146763
0.00144428
0.00144347
0.00153376
0.00151189
0.00157726
0.00155546
0.00162056
0.0015989
0.00166398
0.00164225
0.00170755
0.00168575
0.00175131
0.00172941
0.00179525
0.00177326
0.00183943
0.00181734
0.00188387
0.00186161
0.00192836
0.00190606
0.00197331
0.00195094
0.00201855
0.00199589
0.00206409
0.00204128
0.00210999
0.002087
0.00215626
0.00213308
0.00220295
0.00217955
0.00225021
0.00222649
0.00229861
0.00227433
0.0022982
0.00232464
0.00232338
0.00232526
0.00144431
0.00144507
0.00232436
0.00232264
0.00234963
0.00234837
0.00232547
0.0014671
0.00144506
0.00142187
0.00142257
0.00232054
0.00234764
0.00237123
0.00234627
0.00227222
0.00229632
0.00222439
0.00224822
0.00217711
0.00220066
0.00213064
0.00215374
0.00208469
0.00210762
0.00203909
0.00206185
0.00199382
0.00201641
0.00194882
0.00197129
0.00190413
0.00192647
0.00185973
0.00188187
0.0018155
0.00183759
0.00177155
0.0017935
0.00172778
0.00174964
0.00168418
0.00170596
0.00164076
0.00166245
0.00159748
0.0016191
0.00155433
0.00157589
0.00151096
0.00153266
0.00148909
0.00142109
0.00142189
0.00142134
0.00142129
0.00149027
0.00144597
0.00146824
0.00153403
0.00151221
0.00157723
0.00155556
0.0016205
0.00159885
0.00166391
0.00164219
0.00170748
0.00168567
0.00175122
0.00172932
0.00179515
0.00177316
0.00183929
0.00181719
0.00188366
0.00186144
0.00192827
0.00190594
0.00197316
0.00195069
0.00201835
0.00199572
0.00206385
0.00204106
0.00210971
0.00208674
0.00215593
0.00213278
0.00220256
0.0021792
0.00224966
0.00222603
0.00229747
0.00227345
0.00234673
0.00232188
0.00237332
0.00237156
0.00234912
0.00235031
0.00142279
0.0014236
0.00237303
0.00237468
0.00239737
0.00239654
0.00239825
0.00239734
0.00243234
0.0023501
0.00236554
0.00238457
0.00231886
0.00234323
0.00227067
0.00229466
0.00222321
0.0022468
0.00217635
0.00219977
0.00213008
0.00215315
0.00208418
0.00210709
0.00203861
0.00206135
0.00199338
0.00201596
0.00194844
0.00197088
0.00190378
0.00192608
0.00185937
0.00188155
0.0018152
0.00183726
0.00177126
0.0017932
0.00172751
0.00174936
0.00168393
0.0017057
0.00164052
0.00166221
0.00159726
0.00161888
0.00155412
0.00157568
0.00151096
0.00153252
0.00146755
0.00148933
0.0014235
0.00144556
0.00139977
0.00140117
0.0014004
0.00139916
0.00139929
0.00139966
0.00139927
0.00140132
0.0014004
0.00144673
0.00140275
0.00142468
0.00149063
0.00146876
0.00153402
0.00151237
0.00157715
0.00155556
0.00162041
0.00159876
0.0016638
0.00164209
0.00170735
0.00168556
0.00175107
0.00172919
0.00179499
0.00177301
0.0018391
0.00181702
0.00188344
0.00186124
0.00192803
0.00190571
0.00197289
0.00195043
0.00201804
0.00199543
0.00206352
0.00204074
0.00210933
0.00208638
0.00215551
0.00213237
0.00220209
0.00217875
0.00224908
0.00222553
0.00229658
0.00227277
0.00234491
0.0023206
0.00239445
0.00236954
0.00242165
0.00241948
0.00237397
0.00237509
0.0023976
0.00239938
0.00142404
0.00140197
0.00137917
0.00138002
0.00242454
0.00242331
0.00244921
0.00240593
0.00244672
0.0024447
0.00243297
0.00237468
0.00236359
0.00238517
0.0023173
0.00234093
0.00226928
0.00229324
0.00222222
0.00224568
0.00217561
0.00219887
0.00212941
0.00215246
0.00208356
0.00210644
0.00203805
0.00206076
0.00199286
0.00201541
0.00194796
0.00197038
0.00190334
0.00192562
0.00185897
0.00188113
0.00181483
0.00183687
0.00177091
0.00179285
0.00172718
0.00174903
0.00168364
0.00170539
0.00164025
0.00166192
0.001597
0.00161861
0.00155389
0.00157543
0.00151087
0.00153237
0.00146774
0.00148928
0.0014459
0.00137781
0.00137893
0.00137824
0.00137744
0.00137768
0.00137788
0.00137764
0.00137835
0.00144732
0.00140327
0.00142554
0.00149077
0.00146911
0.00153393
0.00151239
0.00157704
0.00155547
0.00162028
0.00159864
0.00166365
0.00164195
0.00170718
0.0016854
0.00175088
0.00172901
0.00179477
0.0017728
0.00183886
0.00181679
0.00188317
0.00186098
0.00192772
0.00190541
0.00197254
0.0019501
0.00201766
0.00199506
0.00206308
0.00204033
0.00210884
0.00208592
0.00215497
0.00213186
0.00220148
0.00217818
0.00224841
0.0022249
0.00229577
0.00227204
0.00234366
0.00231966
0.00239231
0.00236771
0.00244249
0.00241731
0.00247009
0.00246779
0.00239863
0.00239967
0.00137956
0.00138104
0.00242364
0.00244167
0.00244796
0.00242407
0.00244812
0.00245593
0.00247912
0.0024728
0.00247192
0.00249543
0.00249358
0.00239933
0.00240988
0.00246044
0.00243624
0.00236276
0.00238562
0.00231582
0.00233975
0.00226825
0.00229194
0.00222131
0.00224473
0.00217477
0.00219799
0.00212862
0.00215165
0.00208284
0.00210569
0.00203739
0.00206008
0.00199226
0.00201479
0.00194741
0.0019698
0.00190283
0.00192509
0.0018585
0.00188064
0.0018144
0.00183643
0.00177051
0.00179243
0.00172682
0.00174864
0.0016833
0.00170504
0.00163993
0.0016616
0.00159671
0.00161831
0.00155362
0.00157515
0.00151065
0.00153212
0.00146767
0.00148918
0.00142428
0.00144604
0.00138005
0.0014024
0.00135679
0.00135767
0.00135709
0.00135627
0.00135644
0.00135618
0.00135614
0.00135637
0.00135627
0.0013572
0.0013567
0.00135895
0.00135796
0.00140393
0.00135993
0.00138197
0.00144763
0.00142592
0.00149081
0.00146925
0.0015338
0.0015123
0.00157689
0.00155533
0.00162011
0.00159849
0.00166346
0.00164177
0.00170696
0.00168519
0.00175063
0.00172878
0.00179449
0.00177254
0.00183855
0.00181649
0.00188282
0.00186066
0.00192734
0.00190505
0.00197212
0.0019497
0.00201718
0.00199461
0.00206255
0.00203983
0.00210825
0.00208536
0.00215431
0.00213123
0.00220074
0.00217748
0.00224759
0.00222411
0.00229486
0.00227117
0.00234259
0.00231868
0.00239082
0.00236662
0.00243967
0.00241521
0.00249017
0.0024646
0.00251911
0.00251603
0.00242366
0.00248304
0.0024487
0.00138065
0.00135866
0.00133681
0.0013376
0.00242427
0.00244875
0.00247326
0.00247308
0.00249718
0.00252119
0.00254456
0.00254168
0.00242403
0.00245979
0.00250678
0.00250683
0.00248341
0.00240993
0.00243547
0.00236171
0.00238529
0.00231448
0.00233836
0.00226711
0.00229071
0.00222025
0.00224363
0.0021738
0.00219698
0.00212773
0.00215072
0.00208203
0.00210484
0.00203665
0.0020593
0.00199157
0.00201407
0.00194678
0.00196914
0.00190226
0.00192449
0.00185797
0.00188009
0.00181392
0.00183592
0.00177007
0.00179197
0.00172641
0.00174821
0.00168292
0.00170464
0.00163958
0.00166123
0.00159639
0.00161797
0.00155333
0.00157485
0.00151037
0.00153184
0.00146751
0.00148894
0.0014244
0.00144598
0.00140258
0.00133492
0.00133557
0.00133518
0.00133482
0.00133489
0.00133497
0.00133488
0.0013351
0.00133504
0.00133551
0.00133528
0.00133606
0.00140454
0.00136068
0.00138267
0.0014477
0.00142617
0.00149069
0.00146923
0.00153365
0.00151216
0.00157672
0.00155517
0.0016199
0.0015983
0.00166323
0.00164155
0.0017067
0.00168495
0.00175034
0.0017285
0.00179416
0.00177223
0.00183818
0.00181614
0.00188241
0.00186027
0.00192688
0.00190462
0.00197161
0.00194921
0.00201662
0.00199408
0.00206192
0.00203923
0.00210755
0.0020847
0.00215353
0.0021305
0.00219987
0.00217665
0.00224662
0.0022232
0.00229378
0.00227015
0.00234139
0.00231753
0.00238946
0.00236537
0.00243796
0.00241365
0.00248745
0.00246249
0.00253817
0.00251253
0.00249853
0.00250316
0.00256739
0.00256384
0.0024485
0.00133676
0.00133839
0.00253013
0.00244895
0.00253196
0.00247354
0.00247364
0.0024982
0.00249821
0.0025225
0.00254642
0.00257001
0.00259308
0.0025898
0.0024488
0.00250519
0.00255465
0.00255412
0.0025292
0.00245745
0.00248174
0.00240867
0.00243301
0.00236029
0.00238423
0.00231298
0.00233672
0.00226578
0.00228932
0.00221904
0.00224236
0.0021727
0.00219583
0.00212674
0.00214968
0.00208112
0.00210389
0.00203581
0.00205843
0.00199081
0.00201328
0.00194608
0.00196841
0.00190161
0.00192382
0.00185738
0.00187947
0.00181337
0.00183535
0.00176957
0.00179145
0.00172595
0.00174773
0.00168249
0.0017042
0.0016392
0.00166083
0.00159604
0.0016176
0.001553
0.0015745
0.00151007
0.00153152
0.00146725
0.00148865
0.00142439
0.00144586
0.00138112
0.00140277
0.0013373
0.00135941
0.00131395
0.00131508
0.00131441
0.00131353
0.00131362
0.00131358
0.00131351
0.00131376
0.00131368
0.00131387
0.00131383
0.0013141
0.00131392
0.00131478
0.00131435
0.00131627
0.00131534
0.00136125
0.00131718
0.00133931
0.00140477
0.00138308
0.00144769
0.00142629
0.00149053
0.00146911
0.00153347
0.00151199
0.00157651
0.00155497
0.00161966
0.00159807
0.00166295
0.00164129
0.00170639
0.00168466
0.00174999
0.00172817
0.00179377
0.00177186
0.00183775
0.00181574
0.00188193
0.00185981
0.00192635
0.00190411
0.00197102
0.00194866
0.00201597
0.00199346
0.0020612
0.00203855
0.00210675
0.00208394
0.00215264
0.00212965
0.00219888
0.00217571
0.00224551
0.00222215
0.00229254
0.00226897
0.00234
0.00231622
0.0023879
0.00236389
0.00243623
0.00241201
0.00248503
0.00246059
0.00253458
0.00250959
0.00258545
0.00256001
0.00252361
0.00253044
0.00261539
0.00261086
0.00247358
0.00247385
0.00257808
0.00257915
0.00255654
0.00249802
0.00249872
0.00133781
0.00131599
0.00129425
0.0012951
0.00252407
0.00252338
0.00254774
0.00257172
0.00259541
0.00261841
0.00260195
0.00260079
0.00262434
0.00264104
0.00263736
0.00262692
0.00247378
0.0025534
0.00257683
0.00250295
0.00252766
0.00245495
0.00247931
0.00240646
0.00243051
0.00235865
0.00238251
0.00231131
0.00233495
0.00226431
0.00228775
0.00221771
0.00224096
0.0021715
0.00219456
0.00212564
0.00214853
0.00208011
0.00210284
0.00203489
0.00205747
0.00198997
0.0020124
0.00194531
0.00196761
0.00190091
0.00192308
0.00185673
0.00187879
0.00181278
0.00183473
0.00176902
0.00179087
0.00172544
0.00174721
0.00168203
0.00170372
0.00163877
0.00166038
0.00159565
0.00161719
0.00155264
0.00157413
0.00150975
0.00153119
0.00146696
0.00148834
0.00142425
0.0014456
0.0013813
0.0014028
0.00135965
0.00129222
0.00129308
0.00129251
0.0012922
0.00129221
0.00129239
0.00129228
0.00129256
0.00129248
0.00129267
0.00129263
0.00129276
0.0012927
0.00129322
0.00129296
0.00129364
0.00136171
0.00131805
0.00133995
0.00140481
0.00138326
0.00144755
0.00142619
0.00149036
0.00146894
0.00153326
0.0015118
0.00157626
0.00155475
0.00161939
0.00159781
0.00166264
0.001641
0.00170604
0.00168432
0.0017496
0.0017278
0.00179333
0.00177144
0.00183726
0.00181527
0.00188139
0.0018593
0.00192575
0.00190355
0.00197036
0.00194803
0.00201523
0.00199276
0.00206039
0.00203777
0.00210585
0.00208308
0.00215164
0.0021287
0.00219777
0.00217466
0.00224427
0.00222097
0.00229115
0.00226766
0.00233844
0.00231474
0.00238614
0.00236224
0.00243425
0.00241015
0.00248276
0.00245847
0.00253165
0.00250716
0.00258094
0.00255628
0.00263215
0.00260582
0.00260372
0.00266261
0.00266708
0.00268819
0.00268376
0.00265698
0.00254812
0.00255897
0.00249869
0.00249896
0.00129403
0.00129582
0.0025828
0.00252328
0.00252396
0.00254974
0.00254872
0.00257316
0.00259725
0.00262074
0.00264365
0.00264832
0.00264515
0.00266903
0.00267746
0.0027036
0.00271004
0.00267263
0.00265141
0.00262965
0.00269151
0.00271332
0.00249893
0.00259852
0.0026211
0.00254971
0.00257357
0.00250032
0.00252512
0.00245211
0.00247616
0.00240422
0.00242813
0.00235667
0.0023804
0.00230951
0.00233305
0.0022627
0.00228606
0.00221626
0.00223944
0.00217018
0.00219318
0.00212444
0.00214727
0.00207902
0.00210169
0.00203389
0.00205642
0.00198905
0.00201144
0.00194447
0.00196673
0.00190013
0.00192227
0.00185602
0.00187805
0.00181212
0.00183405
0.00176842
0.00179025
0.00172489
0.00174663
0.00168152
0.00170319
0.00163831
0.0016599
0.00159522
0.00161675
0.00155226
0.00157373
0.0015094
0.00153082
0.00146664
0.00148801
0.00142397
0.0014453
0.00138126
0.00140265
0.00133828
0.00135979
0.00129467
0.00131651
0.00127142
0.00127266
0.00127198
0.00127087
0.00127096
0.00127098
0.00127088
0.00127121
0.0012711
0.00127137
0.00127129
0.00127149
0.00127144
0.00127156
0.00127152
0.00127177
0.00127167
0.00127244
0.00127202
0.00127365
0.001273
0.00131845
0.00127445
0.0012966
0.00136191
0.00134028
0.00140469
0.00138335
0.00144738
0.00142602
0.00149015
0.00146875
0.00153302
0.00151157
0.00157599
0.00155449
0.00161908
0.00159752
0.00166229
0.00164067
0.00170565
0.00168395
0.00174916
0.00172738
0.00179284
0.00177098
0.00183671
0.00181476
0.00188079
0.00185873
0.00192509
0.00190291
0.00196962
0.00194733
0.00201442
0.00199199
0.00205949
0.00203692
0.00210485
0.00208213
0.00215053
0.00212765
0.00219654
0.00217349
0.0022429
0.00221968
0.00228962
0.00226621
0.00233672
0.00231313
0.00238421
0.00236042
0.00243208
0.0024081
0.00248032
0.00245616
0.00252888
0.00250458
0.00257766
0.00255326
0.00262675
0.00260227
0.00265096
0.00257157
0.00258493
0.0027352
0.00272891
0.00252393
0.00252426
0.00260709
0.0025487
0.00254937
0.00129505
0.00127324
0.0012516
0.00125224
0.00257534
0.00257423
0.00259876
0.00262286
0.00264647
0.00266953
0.00269279
0.00268927
0.00271399
0.00271723
0.00269823
0.00267583
0.00265471
0.00271712
0.00273769
0.0027538
0.00275972
0.00252428
0.00264273
0.00266441
0.00259456
0.00261892
0.00254546
0.00257003
0.00249733
0.00252141
0.00244943
0.00247332
0.00240184
0.00242561
0.00235453
0.00237814
0.00230758
0.00233102
0.00226097
0.00228423
0.00221469
0.00223779
0.00216876
0.00219169
0.00212314
0.00214591
0.00207783
0.00210045
0.00203281
0.00205529
0.00198806
0.0020104
0.00194356
0.00196578
0.0018993
0.0019214
0.00185526
0.00187725
0.00181142
0.00183332
0.00176777
0.00178957
0.0017243
0.00174601
0.00168098
0.00170262
0.00163781
0.00165938
0.00159477
0.00161627
0.00155184
0.00157329
0.00150902
0.00153042
0.0014663
0.00148765
0.00142366
0.00144497
0.00138109
0.00140238
0.00133838
0.00135971
0.00131682
0.00124976
0.00125065
0.00125017
0.00124959
0.00124965
0.00124982
0.00124969
0.00125003
0.00124993
0.00125019
0.00125012
0.00125031
0.00125026
0.00125038
0.00125035
0.00125044
0.00125041
0.00125075
0.00125058
0.00125106
0.00131879
0.00127515
0.00129714
0.00136192
0.00134037
0.00140452
0.00138323
0.00144718
0.00142584
0.00148992
0.00146854
0.00153275
0.00151133
0.00157568
0.00155421
0.00161873
0.00159719
0.0016619
0.0016403
0.00170521
0.00168354
0.00174867
0.00172692
0.0017923
0.00177046
0.00183611
0.00181418
0.00188013
0.00185809
0.00192435
0.00190221
0.00196881
0.00194655
0.00201352
0.00199114
0.0020585
0.00203598
0.00210376
0.00208109
0.00214932
0.0021265
0.0021952
0.00217222
0.00224141
0.00221826
0.00228796
0.00226464
0.00233486
0.00231137
0.00238212
0.00235845
0.00242973
0.00240588
0.00247766
0.00245366
0.0025259
0.00250175
0.00257433
0.0025501
0.0026228
0.00259863
0.00267126
0.00264703
0.00272162
0.00269649
0.00277809
0.00277125
0.00274537
0.00259609
0.00261028
0.00254931
0.00254971
0.0012512
0.00125304
0.00263322
0.0025743
0.00257494
0.00260107
0.0025999
0.00262451
0.00264865
0.0026722
0.00269504
0.00273715
0.0027328
0.00275502
0.00276261
0.00278611
0.00279598
0.00276038
0.00274294
0.00272201
0.00270185
0.00267952
0.00274241
0.00276314
0.00278365
0.00280184
0.00254973
0.00268714
0.00271052
0.00263846
0.00266117
0.00258982
0.00261468
0.00254189
0.00256583
0.00249417
0.00251802
0.00244662
0.00247036
0.0023993
0.00242293
0.00235226
0.00237574
0.00230553
0.00232886
0.00225912
0.00228229
0.00221302
0.00223603
0.00216723
0.00219009
0.00212175
0.00214446
0.00207656
0.00209912
0.00203165
0.00205407
0.00198699
0.00200929
0.00194258
0.00196476
0.0018984
0.00192047
0.00185443
0.00187639
0.00181066
0.00183253
0.00176708
0.00178885
0.00172366
0.00174535
0.0016804
0.00170201
0.00163727
0.00165882
0.00159428
0.00161576
0.0015514
0.00157283
0.00150862
0.00153
0.00146594
0.00148727
0.00142334
0.00144463
0.00138081
0.00140206
0.00133832
0.00135955
0.00129528
0.00131682
0.00125154
0.00127364
0.00122878
0.00122949
0.00122899
0.00122838
0.00122851
0.00122841
0.00122831
0.00122867
0.00122855
0.00122886
0.00122877
0.00122902
0.00122895
0.00122915
0.00122909
0.00122923
0.00122919
0.00122927
0.00122925
0.00122934
0.00122929
0.00122995
0.00122959
0.00123127
0.00123051
0.00127572
0.00123218
0.00125413
0.00131899
0.00129746
0.00136179
0.00134042
0.00140434
0.00138306
0.00144697
0.00142565
0.00148967
0.00146831
0.00153246
0.00151105
0.00157535
0.00155389
0.00161835
0.00159683
0.00166147
0.00163989
0.00170473
0.00168308
0.00174814
0.00172641
0.00179171
0.0017699
0.00183546
0.00181356
0.0018794
0.00185741
0.00192355
0.00190145
0.00196793
0.00194571
0.00201255
0.00199021
0.00205743
0.00203496
0.00210257
0.00207997
0.00214801
0.00212526
0.00219375
0.00217084
0.0022398
0.00221674
0.00228617
0.00226295
0.00233287
0.00230948
0.00237989
0.00235634
0.00242722
0.00240352
0.00247483
0.00245099
0.00252268
0.00249873
0.0025707
0.00254668
0.00261875
0.00259474
0.00266661
0.00264274
0.00271411
0.0026905
0.00273727
0.00262097
0.00263626
0.00281938
0.00281206
0.00257485
0.00257531
0.00265875
0.00260003
0.00260068
0.0012521
0.00123037
0.0012094
0.00121006
0.00262693
0.00262574
0.0026504
0.00267455
0.00269804
0.00272075
0.0027769
0.00277002
0.00279102
0.00279962
0.00278407
0.00276675
0.00274793
0.00272644
0.00270544
0.00276785
0.00278805
0.00280719
0.00282542
0.0028334
0.00283987
0.00257532
0.00272759
0.00274861
0.00268078
0.0027049
0.00263287
0.00265695
0.00258555
0.00260928
0.0025382
0.00256188
0.00249085
0.00251452
0.00244364
0.00246722
0.00239663
0.00242011
0.00234986
0.00237321
0.00230336
0.00232658
0.00225715
0.00228022
0.00221124
0.00223416
0.00216561
0.00218839
0.00212027
0.00214291
0.00207521
0.00209771
0.00203041
0.00205278
0.00198586
0.0020081
0.00194154
0.00196367
0.00189745
0.00191947
0.00185356
0.00187548
0.00180986
0.00183169
0.00176634
0.00178808
0.00172298
0.00174464
0.00167978
0.00170136
0.00163671
0.00165823
0.00159376
0.00161522
0.00155093
0.00157233
0.0015082
0.00152955
0.00146555
0.00148687
0.00142299
0.00144426
0.0013805
0.00140174
0.00133808
0.00135928
0.00129537
0.00131675
0.00127377
0.00120708
0.00120759
0.00120727
0.00120706
0.00120709
0.00120728
0.00120715
0.00120752
0.00120741
0.00120771
0.00120762
0.00120787
0.00120779
0.00120799
0.00120793
0.00120808
0.00120804
0.00120814
0.00120811
0.00120818
0.00120815
0.00120843
0.00120829
0.00120876
0.00127614
0.0012328
0.00125469
0.00131904
0.00129766
0.00136162
0.00134037
0.00140414
0.00138288
0.00144673
0.00142543
0.00148939
0.00146805
0.00153214
0.00151076
0.00157498
0.00155355
0.00161793
0.00159644
0.001661
0.00163945
0.00170421
0.00168259
0.00174756
0.00172586
0.00179107
0.00176929
0.00183475
0.00181289
0.00187862
0.00185666
0.00192269
0.00190063
0.00196698
0.00194481
0.0020115
0.00198921
0.00205627
0.00203386
0.0021013
0.00207876
0.00214661
0.00212392
0.0021922
0.00216937
0.00223808
0.0022151
0.00228426
0.00226114
0.00233074
0.00230747
0.00237751
0.0023541
0.00242456
0.00240101
0.00247184
0.00244817
0.0025193
0.00249555
0.00256687
0.00254308
0.00261441
0.00259066
0.00266177
0.00263813
0.00270853
0.00268526
0.00275449
0.00273171
0.00280182
0.00277732
0.00285582
0.00284564
0.00282284
0.00264603
0.0026621
0.00260057
0.00260108
0.00120862
0.0012109
0.00268448
0.00262593
0.00262658
0.00265296
0.00265174
0.00267645
0.00270057
0.00272396
0.00274648
0.00281305
0.00280661
0.00282575
0.00283612
0.00285603
0.00286631
0.00283482
0.00282254
0.00280721
0.00279104
0.00277236
0.00275256
0.002731
0.00279318
0.00281281
0.00283089
0.00284801
0.00286203
0.00287573
0.00260109
0.00276721
0.00278791
0.00272141
0.00274177
0.00267425
0.0026988
0.00262789
0.00265111
0.00258123
0.0026046
0.00253432
0.00255779
0.00248738
0.00251085
0.00244052
0.00246393
0.00239383
0.00241715
0.00234733
0.00237055
0.00230108
0.00232418
0.00225509
0.00227805
0.00220936
0.00223219
0.0021639
0.0021866
0.00211871
0.00214127
0.00207378
0.00209621
0.0020291
0.00205141
0.00198466
0.00200685
0.00194044
0.00196252
0.00189643
0.00191841
0.00185263
0.00187451
0.001809
0.00183079
0.00176555
0.00178726
0.00172226
0.00174389
0.00167912
0.00170067
0.00163611
0.0016576
0.00159321
0.00161465
0.00155043
0.00157181
0.00150775
0.00152908
0.00146515
0.00148644
0.00142263
0.00144388
0.00138017
0.00140139
0.00133778
0.00135897
0.00129533
0.00131659
0.0012525
0.00127391
0.00120904
0.00123094
0.00118614
0.0011869
0.00118647
0.00118582
0.00118588
0.00118592
0.00118583
0.00118617
0.00118604
0.00118638
0.00118628
0.00118656
0.00118647
0.00118671
0.00118664
0.00118684
0.00118678
0.00118694
0.00118689
0.00118701
0.00118698
0.00118704
0.00118703
0.0011871
0.00118705
0.00118772
0.00118733
0.00118919
0.00118834
0.00123336
0.00119002
0.00121174
0.0012764
0.00125502
0.001319
0.00129769
0.00136145
0.00134023
0.00140393
0.00138268
0.00144647
0.00142519
0.00148909
0.00146777
0.00153179
0.00151043
0.00157459
0.00155318
0.00161749
0.00159602
0.0016605
0.00163898
0.00170365
0.00168206
0.00174693
0.00172527
0.00179038
0.00176864
0.00183399
0.00181216
0.00187778
0.00185586
0.00192177
0.00189975
0.00196596
0.00194384
0.00201039
0.00198815
0.00205504
0.00203269
0.00209995
0.00207747
0.00214511
0.0021225
0.00219055
0.0021678
0.00223626
0.00221337
0.00228224
0.00225922
0.0023285
0.00230534
0.00237501
0.00235173
0.00242176
0.00239836
0.0024687
0.00244521
0.00251578
0.00249223
0.00256289
0.00253934
0.0026099
0.00258642
0.00265666
0.00263333
0.00270287
0.00267986
0.00274805
0.00272567
0.00279186
0.00277027
0.00281303
0.00267124
0.00268803
0.0028874
0.00287814
0.00262647
0.00262702
0.00271028
0.00265199
0.00265265
0.00120949
0.00118791
0.0011674
0.00116822
0.00267916
0.0026779
0.00270263
0.00272669
0.00274993
0.00277219
0.00284561
0.00283748
0.00285406
0.00286263
0.00285726
0.00284422
0.0028311
0.00281337
0.00279674
0.00277716
0.00275646
0.0028184
0.00283737
0.00285475
0.00286956
0.00288381
0.00289516
0.00289535
0.00290458
0.00262702
0.00280059
0.00281582
0.00275999
0.00278196
0.00271428
0.00273563
0.00266853
0.00269194
0.00262289
0.00264574
0.00257673
0.00259987
0.00253029
0.00255353
0.00248377
0.00250704
0.00243729
0.00246052
0.00239091
0.00241408
0.0023447
0.00236778
0.00229869
0.00232167
0.00225292
0.00227578
0.00220738
0.00223012
0.0021621
0.00218471
0.00211706
0.00213955
0.00207227
0.00209464
0.00202772
0.00204997
0.00198339
0.00200553
0.00193927
0.00196131
0.00189536
0.0019173
0.00185164
0.00187348
0.0018081
0.00182985
0.00176473
0.0017864
0.00172151
0.0017431
0.00167842
0.00169995
0.00163547
0.00165693
0.00159264
0.00161404
0.00154991
0.00157126
0.00150727
0.00152858
0.00146472
0.00148599
0.00142225
0.00144348
0.00137983
0.00140103
0.00133748
0.00135865
0.00129517
0.00131633
0.00125261
0.00127385
0.00123114
0.00116461
0.00116517
0.00116482
0.00116462
0.00116462
0.00116483
0.00116471
0.00116505
0.00116494
0.00116525
0.00116515
0.00116542
0.00116534
0.00116557
0.0011655
0.0011657
0.00116564
0.0011658
0.00116575
0.00116588
0.00116584
0.00116594
0.00116591
0.00116598
0.00116595
0.00116627
0.00116611
0.00116672
0.00123385
0.00119079
0.00121235
0.00127649
0.00125516
0.00131887
0.00129768
0.00136125
0.00134006
0.0014037
0.00138247
0.0014462
0.00142494
0.00148877
0.00146747
0.00153142
0.00151008
0.00157416
0.00155278
0.00161701
0.00159557
0.00165996
0.00163847
0.00170305
0.00168149
0.00174627
0.00172464
0.00178964
0.00176794
0.00183318
0.00181139
0.00187688
0.00185501
0.00192078
0.00189881
0.00196488
0.00194281
0.0020092
0.00198701
0.00205374
0.00203144
0.00209851
0.0020761
0.00214353
0.00212099
0.00218881
0.00216614
0.00223434
0.00221154
0.00228012
0.0022572
0.00232614
0.0023031
0.00237239
0.00234924
0.00241884
0.0023956
0.00246544
0.00244213
0.00251212
0.00248878
0.00255877
0.00253546
0.00260527
0.00258206
0.00265141
0.0026284
0.00269694
0.00267428
0.00274148
0.00271937
0.00278442
0.00276325
0.00282521
0.00280521
0.00286662
0.0028447
0.00291139
0.00290105
0.00288434
0.00269655
0.00271401
0.00265254
0.00265313
0.0011661
0.00116882
0.00273614
0.00267822
0.00267889
0.00270554
0.0027042
0.00272892
0.00275289
0.00277594
0.00279785
0.00286912
0.002863
0.00287784
0.00289259
0.0028844
0.00287624
0.00286724
0.0028524
0.00283772
0.00282029
0.0028017
0.00278161
0.00284342
0.00286166
0.00287797
0.00289224
0.00290403
0.00291306
0.00291989
0.00288833
0.00291852
0.00290473
0.00265313
0.00283207
0.00284392
0.00279195
0.00281086
0.00275125
0.00277237
0.00270689
0.00272927
0.00266279
0.00268498
0.00261774
0.00264035
0.00257212
0.00259499
0.00252616
0.00254917
0.00248006
0.00250313
0.00243394
0.002457
0.00238789
0.00241091
0.00234197
0.00236491
0.00229621
0.00231907
0.00225066
0.00227341
0.00220533
0.00222797
0.00216022
0.00218274
0.00211534
0.00213775
0.00207069
0.00209299
0.00202627
0.00204846
0.00198206
0.00200414
0.00193805
0.00196003
0.00189424
0.00191612
0.00185061
0.00187241
0.00180716
0.00182886
0.00176386
0.00178549
0.00172071
0.00174227
0.00167769
0.00169919
0.00163481
0.00165624
0.00159203
0.0016134
0.00154935
0.00157068
0.00150677
0.00152805
0.00146427
0.00148551
0.00142184
0.00144305
0.00137948
0.00140066
0.00133717
0.00135832
0.00129491
0.00131603
0.00125254
0.0012737
0.00120991
0.0012313
0.00116647
0.00118834
0.00114376
0.00114449
0.00114407
0.00114341
0.00114349
0.00114351
0.00114341
0.00114374
0.00114363
0.00114394
0.00114384
0.00114412
0.00114403
0.00114429
0.00114421
0.00114443
0.00114436
0.00114456
0.0011445
0.00114467
0.00114462
0.00114476
0.00114472
0.00114483
0.0011448
0.00114488
0.00114486
0.00114505
0.00114491
0.0011457
0.00114527
0.00114706
0.00114625
0.00119114
0.0011478
0.00116951
0.00123402
0.00121265