/*--------------------------------*- C++ -*----------------------------------*\
  =========                 |
  \\      /  F ield         | OpenFOAM: The Open Source CFD Toolbox
   \\    /   O peration     | Website:  https://openfoam.org
    \\  /    A nd           | Version:  10
     \\/     M anipulation  |
\*---------------------------------------------------------------------------*/
FoamFile
{
    format      ascii;
    class       surfaceScalarField;
    location    "39.5";
    object      phi;
}
// * * * * * * * * * * * * * * * * * * * * * * * * * * * * * * * * * * * * * //

dimensions      [0 3 -1 0 0 0 0];

internalField   nonuniform List<scalar> 
12623
(
0.0957528
0.0225959
-0.0356298
-0.0827188
0.0745483
-0.0376388
0.0588433
0.0764871
-0.0162077
-0.0701179
0.00983846
-0.0200813
0.0792921
0.0172762
-0.0771075
0.021191
-0.0221268
0.0780432
-0.074201
-0.0229879
-0.00168102
0.0438292
-0.0500078
0.00785959
-0.0503312
0.0486502
0.0185659
-0.00688068
-0.0116852
0.0108753
-0.00708709
0.0147777
0.0945758
-0.0416593
-0.0529165
-0.0622954
0.0516235
0.105248
-0.0278162
-0.0182663
0.0205656
0.0255169
0.00323713
0.0053351
-0.0363885
-0.024108
0.00907891
0.00959285
0.0013822
-0.0149685
0.00399344
0.000426818
-0.0129534
0.0221194
-0.000743991
0.00255301
-0.000833123
-0.0133483
0.00147174
0.0127097
-0.0271412
0.00681757
0.0194905
-0.023857
-0.0166325
-0.00164068
0.00835886
-0.00693457
0.000216396
0.00306671
-0.00635513
0.00164774
-0.0119511
0.0233767
-0.0433824
0.00496728
0.0437502
0.00694552
-0.0490812
-0.00124668
-0.0558417
0.00505775
0.0557513
-0.0794784
-0.0194372
0.0206978
0.0782178
-0.0808087
0.027964
-0.0266337
-0.0786542
0.0763638
0.0125891
-0.0102988
-0.0778425
-0.0202489
-0.0824612
0.0229409
-0.0221821
0.0817023
-0.020829
-0.0781892
0.0165569
0.0796542
-0.0881234
0.0205925
-0.0211652
0.0886961
-0.021089
-0.0833624
0.016328
-0.0860891
-0.0208435
0.0858436
-0.0807663
0.0176181
0.0879291
-0.0220961
-0.0903937
0.0245607
-0.0190301
0.0273805
0.0795788
-0.0890986
-0.0224995
0.089502
-0.086105
0.0175989
-0.00319322
0.00404997
0.0755071
-0.0728186
0.0206682
-0.0210397
0.0731902
-0.0166854
-0.0695731
0.0134399
-0.018301
-0.0721076
-0.0736007
-0.0227484
0.0733612
-0.0712335
0.00302177
-0.0776347
-0.00785642
0.0824693
0.0627752
0.0182132
-0.0779666
-0.0562155
0.0100686
0.108922
-0.0356628
0.0976341
-0.077167
0.0151957
-0.0736651
0.0741258
0.0157971
-0.0142591
-0.0756639
0.0183811
0.0722403
-0.0164955
-0.0107564
0.00724502
0.0807888
-0.0772774
-0.0830505
0.0827639
-0.0104698
0.0817358
-0.0093174
0.0103423
-0.0827607
0.0846831
-0.0853607
0.0409033
-0.0402257
0.0402265
0.0836327
-0.0391762
-0.0863218
0.0413931
-0.0404321
-0.0846234
0.040306
-0.0420043
-0.0827286
0.0371406
-0.0390355
-0.0789425
0.032011
-0.0357971
-0.0753986
0.0230037
-0.0265476
-0.0709661
0.00996153
-0.014394
-0.0672089
-0.00560097
0.00184373
-0.0218011
-0.0644722
0.0190644
0.0845921
-0.0840785
0.0397129
0.0399176
0.0834986
-0.0397834
0.0848314
0.0396783
-0.0841719
0.0409967
-0.0824781
0.0396993
-0.0806891
0.038517
-0.0779238
0.0343754
-0.0747622
0.0288493
-0.0703956
0.0186371
-0.0666313
0.00619725
-0.0636191
-0.00861317
-0.0619496
-0.0234705
-0.0385033
0.0838724
0.0394623
0.0825499
-0.0375546
-0.0353174
-0.0641224
0.0349675
-0.0635019
-0.0337651
-0.0373627
0.0826922
0.0385428
0.0827721
-0.0375849
-0.0429974
-0.0658674
0.0447425
-0.0654375
-0.0410618
-0.0342163
0.0817375
0.0351711
-0.0322529
-0.0454223
-0.0682615
0.0478164
-0.0695322
-0.0413276
0.0805678
0.0291336
0.0221249
0.0791407
-0.0452224
0.0474117
-0.0704508
-0.0411449
-0.0736097
0.0802277
-0.0835414
0.0384848
-0.0742449
0.0749845
0.0213852
0.0351165
0.084943
-0.0846407
0.03916
0.0399444
0.0837153
-0.0823456
0.0383433
0.0387528
0.0810572
-0.0787069
0.037349
0.0397083
0.0764144
-0.0733638
0.0313248
0.0362245
0.0701367
-0.0663754
0.0148758
0.0256222
0.0637724
-0.0616015
-0.0107842
0.00359428
0.0619445
-0.0633816
-0.032328
-0.0231275
0.0674525
-0.0706757
-0.0381044
-0.0369909
-0.0744085
-0.0374121
-0.0669061
0.0679721
0.0436765
0.0689001
0.049292
-0.0707804
0.0498104
-0.0693269
0.0723857
0.0160056
0.0336127
-0.07744
0.0796481
-0.0166022
-0.00321058
-0.0851435
0.08484
-0.0354935
-0.032043
-0.0886459
0.086072
-0.0394304
-0.0428414
-0.0882842
0.0845472
-0.0364887
-0.0426443
-0.0851801
0.0804095
-0.0350128
-0.0398091
-0.0806353
0.0780352
-0.0349848
-0.0377804
-0.0792512
-0.025225
-0.0334689
-0.0132252
0.0132044
0.0791615
0.0775818
0.0171526
0.0710364
0.0404441
-0.0769177
-0.0379349
0.0421898
-0.0753553
-0.0719585
0.0718842
0.0493663
0.0470323
-0.0452307
-0.0725819
-0.0725635
0.0476373
-0.039987
0.041126
-0.0780566
-0.0770935
0.0743649
-0.0352064
-0.0379023
-0.0791782
0.07617
-0.074805
-0.0116638
0.0754523
-0.0804824
0.0264153
0.0764646
0.0161402
0.0743703
-0.00139355
-0.0734918
0.0801287
-0.0812248
0.0395808
0.0347628
0.0817916
-0.0816865
0.0390549
0.0405112
0.081486
-0.0791792
0.0360365
0.0385524
0.07627
-0.07421
0.0352891
0.036799
0.0713317
-0.0688767
0.0288698
0.0333462
0.0654881
-0.0631109
0.0124986
0.0222336
0.0607933
-0.060263
-0.0113145
0.00127675
0.0610907
-0.0635381
-0.0298807
-0.0222998
0.0673072
-0.0713891
-0.0340225
-0.0332218
-0.0344362
-0.0729146
0.0736243
0.0429667
0.0487799
-0.0762158
0.0788579
0.0133635
0.0310213
-0.0805169
0.0850074
-0.0210927
-0.00486965
-0.08401
0.0877539
-0.0392374
-0.0310456
-0.0842752
0.0865302
-0.0416854
-0.0393627
-0.0821061
0.0842555
-0.0386381
-0.0382202
-0.0791609
0.079679
-0.035531
-0.0347145
-0.0757487
0.0738874
-0.0331235
-0.0338501
-0.0722395
0.0756309
-0.0286164
-0.031821
-0.019423
-0.0047383
0.0115955
0.0723043
0.0768934
-0.00865792
0.0757304
0.00939215
0.0739739
-0.0459546
0.0442576
-0.0708666
-0.0446299
-0.0739065
0.0426692
-0.0768986
-0.0779135
0.0748182
-0.0321111
-0.0804131
-0.0354027
0.0421897
-0.0398874
-0.0814806
0.0437494
-0.0796163
-0.0709626
0.0728059
0.0424143
0.0433797
-0.0432345
-0.0710118
-0.068408
0.0408251
0.00712569
-0.00340685
0.0717883
0.0731058
0.00839019
-0.00725235
0.00550412
0.0774786
0.0780892
-0.0769936
0.00829656
0.081426
-0.0105891
-0.0731364
-0.00102914
0.0727719
-0.0706102
-0.01419
-0.0754525
0.0785253
-0.0798638
0.0277538
0.0176718
0.0814842
-0.0821712
0.0402678
0.0363832
0.082639
-0.0824632
0.0388792
0.040979
0.0797598
-0.079349
0.0356257
0.0358489
0.0757945
-0.073803
0.0332976
0.0332445
0.0701388
-0.0675981
0.0263291
0.0296819
0.0640351
-0.0616689
0.0101324
0.0186706
0.0597611
-0.0593273
-0.0117482
-0.00063114
0.0611897
-0.0636364
-0.027434
-0.0204374
0.0678099
-0.0709736
-0.0308588
-0.0290483
-0.0305915
-0.0749207
0.0756882
0.0485988
0.0455226
-0.0769336
0.0788203
0.04108
0.0475345
-0.0818339
0.0839955
0.0112019
0.0280078
-0.0862591
0.0882525
-0.0230861
-0.00713323
-0.0888423
0.0884433
-0.0388384
-0.0316353
-0.0872635
0.0855147
-0.0399366
-0.0381829
-0.0836489
0.0816976
-0.0366869
-0.0363544
-0.0798239
0.0776138
-0.0333209
-0.0328407
-0.074431
0.0732777
-0.0319702
-0.0306672
-0.0705196
0.0686621
-0.0267589
-0.0290628
-0.021371
0.00326783
-0.0037241
0.0727606
0.0767544
0.0757539
-0.0830975
-0.037203
-0.0444318
-0.0727092
0.044504
-0.0776532
-0.0413561
0.0387723
-0.0658242
-0.04405
-0.0683179
0.0438903
-0.0418821
-0.0834888
0.045627
-0.081353
-0.018388
0.0165944
0.0792723
-0.0209474
0.0839853
0.0167303
-0.0145721
0.0696301
0.016001
0.0738351
0.0655074
-0.0667976
-0.0128998
-0.00423257
0.0687108
0.084304
-0.0818897
0.00588229
0.0849635
-0.0112485
-0.0859278
-0.0390518
0.0434123
-0.0414035
-0.0879367
0.0453469
-0.0854233
0.0725403
0.00862185
-0.0753803
0.0824932
-0.0851264
0.030387
0.0182753
0.0852776
-0.085462
0.0404523
0.0365345
0.0829366
-0.0819989
0.0379414
0.0384536
0.0802638
-0.0780918
0.0334537
0.0341138
0.0755725
-0.072543
0.0302682
0.0307252
0.0693704
-0.0660491
0.0230078
0.0265094
0.0630766
-0.0606013
0.00765712
0.0156981
0.0591886
-0.059249
-0.0116878
-0.00204385
0.0610017
-0.0643456
-0.0240901
-0.0186846
0.0682171
-0.071966
-0.0271099
-0.0251768
0.0747986
-0.0774765
-0.0294332
-0.0277589
0.0804536
-0.0848856
-0.032771
-0.0324256
0.087364
-0.0923559
-0.0364116
-0.0365734
-0.0734453
0.0752586
0.040601
0.0698242
-0.0658451
0.0347931
0.037204
-0.0768791
0.0791031
0.0463747
0.0439021
-0.0817458
0.0831411
0.0396848
0.0448918
-0.0866947
0.0900383
0.00785826
0.0244542
-0.0924674
0.0936759
-0.0242946
-0.0095624
-0.0934074
0.0919743
-0.0374052
-0.0313669
-0.0899475
0.0874511
-0.0374402
-0.0361561
-0.0850234
0.0825727
-0.0342361
-0.0339267
-0.0803664
0.0779338
-0.0308884
-0.0306344
-0.075754
0.0721926
-0.0284089
-0.0284874
-0.0699229
0.0675962
-0.0244323
-0.0267931
-0.0205724
0.011245
-0.0136583
0.0751739
0.0734272
0.07869
0.0355473
-0.0388611
-0.0625104
-0.0608883
0.0305905
-0.0410056
0.0439223
-0.0908534
-0.0962938
-0.0370676
-0.0451972
-0.071562
0.045958
-0.0779842
-0.0206668
0.0846829
0.0171825
0.0713587
0.0662296
-0.0660912
-0.0130381
0.0667695
-0.00477244
-0.0419497
-0.0652292
0.0463179
-0.082324
-0.0288876
0.0243877
-0.0563884
-0.0334092
-0.0579888
0.0457595
-0.0872605
-0.0416051
0.0442942
-0.0935425
-0.0381223
-0.0997766
0.0711825
0.00615014
-0.0746195
0.0908225
-0.0899578
0.00501758
-0.088829
0.0886661
-0.0205039
-0.00925502
0.0909984
-0.08994
0.0293286
0.0193159
0.0887298
-0.0869161
0.0386387
0.0353242
0.0850033
-0.0829036
0.0358418
0.0365407
0.0807453
-0.0782471
0.0309556
0.0319555
0.0754763
-0.0722569
0.0270488
0.0279544
0.0689512
-0.0655724
0.0196289
0.0232037
0.0626546
-0.0603774
0.00537991
0.0127803
0.059328
-0.0598608
-0.011155
-0.00309326
0.0620443
-0.0655565
-0.0205779
-0.0165012
0.0692129
-0.0725437
-0.023779
-0.0215204
0.0755371
-0.0773136
-0.0276567
-0.0247655
0.081532
-0.0838084
-0.0304945
-0.0282073
0.0890875
-0.0935886
-0.0319104
-0.0312944
0.09797
-0.102497
-0.0335951
-0.0326862
-0.0659632
0.0706214
0.0301349
0.0606649
-0.0557845
0.0195073
0.0252923
-0.0737834
0.076844
0.0375404
0.0340421
-0.0797314
0.0807943
0.0453118
0.0410147
-0.0843359
0.0881726
0.0358481
0.0413502
-0.0921789
0.0959408
0.00409638
0.0204479
-0.0981358
0.0985296
-0.0246884
-0.0117574
-0.0972785
0.0948273
-0.034954
-0.0301158
-0.0920334
0.0889501
-0.0343569
-0.0333622
-0.0861258
0.0833488
-0.0314591
-0.0311023
-0.0809375
0.0784259
-0.0283767
-0.0282232
-0.0755092
0.0732014
-0.026101
-0.0255707
-0.0703247
0.0679534
-0.022061
-0.0239164
-0.0187102
0.0154426
-0.0199844
-0.0518466
-0.0515482
0.0112063
-0.0366157
0.0385802
-0.101741
-0.105992
-0.0331213
0.0716797
0.00334649
0.0208551
-0.0214522
0.0719558
0.0714951
0.0181131
-0.0215326
0.0730496
0.070496
0.0218104
-0.0226234
0.0759869
0.0737051
0.0238641
-0.0256797
0.0810879
0.0799307
0.0271251
-0.027606
0.0851637
0.0854307
-0.0270427
0.0881029
-0.0444077
-0.0691041
0.0459618
-0.0776281
-0.0373733
-0.0612652
0.0455724
-0.0821369
-0.0245727
-0.0534006
0.0439222
-0.0868884
-0.0048215
0.00270466
-0.0494314
-0.00836615
-0.0483019
0.0392552
-0.0942175
0.0328802
-0.0310895
-0.107782
0.0324335
-0.101294
0.0914338
-0.0922364
-0.0197014
0.0901415
-0.0257504
-0.0730654
0.0932573
-0.0938528
0.00561312
-0.0082341
0.0935553
-0.0931342
0.0289074
0.0190184
0.0908012
-0.0884404
0.0362779
0.0329912
0.0860365
-0.0835292
0.0333345
0.0341368
0.0810621
-0.0783553
0.0282487
0.0294884
0.0754812
-0.0722155
0.023783
0.0250803
0.0689089
-0.0655665
0.0162865
0.0198971
0.0627724
-0.060771
0.00337844
0.00998622
0.060154
-0.061233
-0.010076
-0.00371023
0.0637649
-0.0671856
-0.0171572
-0.0139694
0.0703768
-0.0732235
-0.0209323
-0.0183293
0.0758173
-0.07874
-0.024734
-0.0221717
0.0818555
-0.0852422
-0.0271078
-0.0250918
0.0893298
-0.0928454
-0.0283949
-0.0272068
0.0964159
-0.101705
-0.0283056
-0.0291157
0.106796
-0.111562
-0.0263233
-0.0280308
-0.0554643
0.0599354
0.0150362
0.052829
-0.0531451
0.00302073
0.00857103
-0.0646807
0.0691464
0.0256692
0.0205469
-0.0735431
0.0755761
0.0355074
0.0296454
-0.0792007
0.082863
0.0416494
0.0373901
-0.0870835
0.0923292
0.0306024
0.0371297
-0.0972775
0.101259
0.000114807
0.0154996
-0.102895
0.102295
-0.024088
-0.0133936
-0.100075
0.096786
-0.0316646
-0.0278963
-0.093436
0.0899845
-0.0309054
-0.0300122
-0.0869344
0.0839679
-0.0284926
-0.0280522
-0.0814337
0.0788934
-0.0258365
-0.0256889
-0.0764288
0.0736289
-0.0233012
-0.0231061
-0.0704843
0.0682709
-0.0198476
-0.0207718
-0.0661655
0.0650146
-0.0118873
-0.0166048
-0.0659809
0.0678987
0.00142877
-0.0057388
0.010105
0.0225774
-0.0234068
0.0727852
-0.0227943
0.073236
0.0712782
0.0251164
-0.0266224
0.0745557
0.0722056
0.0278707
-0.0303934
0.0785096
0.0749534
0.0303493
-0.0327495
0.0834881
0.0798866
0.0315285
-0.0326351
0.0862704
0.0842098
-0.00442442
0.00534849
-0.0503555
-0.0559619
-0.00160759
-0.0246508
0.025136
-0.108267
-0.114329
-0.0218842
0.0308085
-0.0280639
0.0873969
0.0862763
-0.0410637
-0.0654137
0.0438888
-0.0759445
-0.0295206
-0.0563173
0.0420273
-0.0802421
-0.0127996
-0.0489671
0.0376096
-0.0852429
0.0040689
-0.0470223
0.0301671
-0.0919511
0.00904622
-0.00505769
-0.0599504
0.0129337
-0.054243
0.0223118
-0.0984703
0.0168735
-0.113604
-0.0175984
0.0135402
-0.104934
-0.0648605
0.0622826
-0.00247969
-0.00841412
0.011871
-0.0634073
-0.0665192
-0.00675544
-0.00996019
0.00693014
-0.110574
-0.115046
0.112576
-0.0151286
-0.114624
-0.0103826
0.0903772
-0.0922931
-0.026148
-0.0313246
0.0326686
0.0860529
0.0830277
-0.023975
-0.0702402
0.0939814
-0.0973298
-0.016353
-0.0240622
0.0982652
-0.0985677
0.00591561
-0.00729862
0.0969045
-0.0946981
0.026701
0.0173552
0.0923034
-0.0895542
0.0335287
0.0305965
0.0868365
-0.0840594
0.0305575
0.0314191
0.0814221
-0.0786091
0.0254357
0.026851
0.0756896
-0.0724061
0.0204996
0.0221608
0.0691142
-0.0658559
0.0130282
0.0166052
0.0632933
-0.0617485
0.00183365
0.00742361
0.061739
-0.0633367
-0.00847831
-0.00371969
0.0659427
-0.0689181
-0.0141818
-0.0113633
0.0714945
-0.0739187
-0.0185081
-0.0157529
0.0763676
-0.0791794
-0.0219223
-0.0197228
0.0820433
-0.0851352
-0.0240159
-0.0222278
0.0883851
-0.0914651
-0.0253149
-0.0239569
0.0956938
-0.0999591
-0.0240403
-0.024887
0.10398
-0.109631
-0.0206721
-0.02401
-0.018939
-0.0594607
0.0579195
0.00456195
0.00121428
-0.0579186
0.0596103
0.0133445
0.00857189
-0.063167
0.066321
0.0225152
0.0169902
-0.0704443
0.0745189
0.0314329
0.0255221
-0.0787008
0.0839052
0.036445
0.0332082
-0.0897841
0.0964873
0.0238991
0.0312508
-0.102005
0.10561
-0.00348991
0.00998205
-0.1063
0.1046
-0.0223879
-0.0140842
-0.101562
0.0977186
-0.0278208
-0.0248586
-0.0940824
0.0905033
-0.0273264
-0.026376
-0.087416
0.0844234
-0.0255
-0.024965
-0.0818571
0.0793509
-0.0233303
-0.0231226
-0.0770292
0.0744224
-0.0206943
-0.0207844
-0.0718604
0.0695471
-0.0175343
-0.0182098
-0.0670836
0.0661064
-0.01091
-0.0141413
-0.065979
0.0676387
-0.000230901
-0.00561139
0.00563609
0.0236925
-0.0239804
0.0735239
0.074927
0.0261337
-0.0281828
0.0748343
0.0734314
0.029937
-0.0314295
0.0760481
0.0739598
0.0325633
-0.0332764
0.0792227
0.0760872
0.0334876
-0.0327089
0.0827094
0.0800977
0.0326788
-0.0330586
0.0866502
0.0841797
0.0858862
-0.0343908
-0.0605434
0.0387199
-0.0726371
-0.0179425
-0.0511745
0.0339433
-0.0765758
0.00113279
-0.046031
0.0263587
-0.0814345
0.0151416
-0.0492302
0.0171447
-0.0867839
0.0169049
-0.0592768
0.00768023
-0.0926103
0.0127849
-0.0105775
-0.0687267
0.0149647
-0.0655871
0.000485347
-0.0984894
0.00202447
-0.112793
-0.00385534
-0.00400754
-0.104542
-0.0705384
0.069144
-0.00918301
-0.0145766
0.0167535
-0.0709036
-0.0725237
-0.0125913
0.00203363
-0.00642494
-0.108401
-0.112197
0.113324
-0.00498164
-0.109928
-0.000236007
-0.0338926
0.0337331
0.0862124
-0.032975
0.08211
0.0922846
-0.0952111
-0.0232214
0.0915393
-0.0232297
-0.0659111
0.0975697
-0.0999857
-0.013937
-0.0217036
0.100988
-0.100312
0.00523929
-0.00629648
0.098261
-0.0957624
0.0242024
0.0153047
0.0931632
-0.0902863
0.0306519
0.0279973
0.0874597
-0.0845161
0.0276139
0.0285925
0.081713
-0.0787255
0.0224482
0.0240479
0.0756857
-0.072359
0.0171729
0.019121
0.0691712
-0.066235
0.010092
0.0134174
0.0642305
-0.0634375
0.00104074
0.00541903
0.0640797
-0.065906
-0.00665207
-0.00307752
0.0681604
-0.0704377
-0.0119046
-0.00910882
0.072453
-0.0745983
-0.0163628
-0.0137376
0.0769017
-0.0794794
-0.0193446
-0.0174194
0.0820494
-0.084846
-0.0212193
-0.0196578
0.0877588
-0.0910018
-0.0220718
-0.0210441
0.0946671
-0.0972701
-0.0214373
-0.0212217
0.10157
-0.104314
-0.0179285
-0.0197097
0.107916
-0.111237
-0.0118079
-0.0153366
-0.00829598
-0.0681401
0.0671153
-0.00145491
-0.00575158
-0.0658288
0.0642823
0.00610836
0.00250086
-0.0636606
0.0638275
0.0131777
0.00919359
-0.0651415
0.0676229
0.0200338
0.0156762
-0.0708458
0.0751401
0.0271387
0.0222991
-0.0801885
0.0867475
0.029886
0.0281597
-0.0938221
0.101052
0.0166697
0.0241763
-0.106108
0.108478
-0.00585972
0.00492556
-0.107921
0.105235
-0.0197019
-0.0135277
-0.101702
0.0976873
-0.0238061
-0.0213254
-0.0940637
0.0905754
-0.0238381
-0.0227524
-0.0876031
0.0847153
-0.0226123
-0.0219926
-0.0822113
0.0797791
-0.0208981
-0.0206185
-0.0776072
0.0752823
-0.0183694
-0.0186125
-0.0730048
0.0706461
-0.0151756
-0.0159323
-0.0688868
0.0674965
-0.00951972
-0.0123821
-0.0676463
0.0680478
-0.000632446
-0.00576115
0.00356598
0.022709
-0.022421
0.0777553
0.0801811
0.0242823
-0.0271947
0.0764363
0.0767882
0.0292985
-0.0312083
0.0767441
0.0755353
0.0328224
-0.0341443
0.07737
0.0755739
0.0350579
-0.0354978
0.0796626
0.0770009
0.0353984
-0.0351915
0.0825025
0.0799983
0.0351439
-0.0343125
0.0858189
0.084132
0.0853068
-0.0235273
-0.0549586
0.029049
-0.0677427
-0.00307158
-0.0469701
0.020664
-0.0708811
0.0152488
-0.0461382
0.0103221
-0.0746118
0.0220584
-0.0543838
-0.000288993
-0.0788147
0.0189712
-0.0632833
-0.00858937
-0.0835356
0.0194116
-0.0682453
-0.0125817
-0.0899153
0.0175407
-0.0152083
-0.0748561
0.0201002
-0.073463
-0.0131936
-0.097773
-0.00686286
0.00385578
-0.106921
-0.0120496
-0.103215
-0.00487844
0.0634427
-0.0603894
0.0919755
-0.0959179
-0.019279
-0.0858116
0.0722896
0.0086435
-0.0170658
0.100233
-0.101606
-0.0125636
-0.017389
0.102462
-0.101123
0.00390057
-0.00544055
0.0989318
-0.0956834
0.020954
0.0131134
0.0928148
-0.089888
0.0277252
0.0251286
0.0870667
-0.0840745
0.0246217
0.0257711
0.0811473
-0.0780384
0.0193393
0.0211207
0.0750026
-0.0719046
0.0140749
0.0160852
0.0692119
-0.0670532
0.00793333
0.0107246
0.0659245
-0.0659023
0.00101849
0.00429037
0.0668466
-0.0683974
-0.00510121
-0.00213324
0.0700159
-0.0716572
-0.0102632
-0.00749036
0.0733167
-0.0752678
-0.0144117
-0.0120781
0.077356
-0.0796372
-0.0170635
-0.0153312
0.0819253
-0.0844381
-0.0187065
-0.0173697
0.0870194
-0.0898401
-0.0192511
-0.0184629
0.0926873
-0.0957064
-0.0184182
-0.0183745
0.0986649
-0.101221
-0.015372
-0.0167513
0.102963
-0.105005
-0.00976643
-0.0135945
0.106445
-0.10778
-0.00364637
-0.00685609
0.106854
-0.104751
0.00175264
-0.00116212
-0.0724274
0.0710835
-0.00783911
0.0734378
-0.0767106
-0.0119355
-0.0115809
-0.0701301
0.0701971
-0.00152195
-0.00479814
-0.0702459
0.070163
0.00619131
0.00245209
-0.0701907
0.0705219
0.0128465
0.00916587
-0.0714184
0.0732256
0.0182266
0.0147797
-0.0759299
0.0800411
0.0230274
0.0195949
-0.0852666
0.0920919
0.0230607
0.0229343
-0.0989462
0.105103
0.0105134
0.0173219
-0.108543
0.109186
-0.00650302
0.00148503
-0.107505
0.104283
-0.0164801
-0.0118458
-0.100709
0.0969068
-0.0200034
-0.0177521
-0.0935449
0.0903132
-0.0206065
-0.0193905
-0.0875549
0.0848652
-0.0199226
-0.0192342
-0.0825007
0.0801804
-0.0185778
-0.018254
-0.0781528
0.0760925
-0.016309
-0.016585
-0.0741256
0.0720554
-0.0131054
-0.0139654
-0.0702269
0.0689063
-0.00819904
-0.0105536
-0.0684329
0.0694794
-0.00167893
-0.00528779
-0.0704629
0.0731505
0.00715077
0.0025825
0.0122376
0.0226079
-0.0246062
0.0797537
-0.0215478
0.0824066
0.0812412
0.0265857
-0.029534
0.0793847
0.0787677
0.0314494
-0.0331083
0.078403
0.0774507
0.0344406
-0.0354417
0.0783711
0.0769061
0.036012
-0.0361033
0.0797539
0.0775712
0.0356838
-0.0355187
0.0823374
0.0795788
0.0338727
-0.032218
0.0841642
0.0824861
0.0330493
-0.0329968
0.0861598
0.0861381
0.0405515
0.0951809
0.0896647
-0.0167913
0.0198159
-0.0778808
-0.0786357
-0.0148661
0.00745378
-0.0107971
-0.103577
-0.102188
0.00489108
-0.00840773
-0.0496224
0.0144365
-0.0615153
-0.0777534
0.013544
0.0132751
-0.0449964
0.0029567
-0.0635158
0.10028
-0.0855479
-0.00608817
-0.023232
0.0292632
0.0891497
-0.0138792
0.0909268
0.0259643
-0.0500441
-0.00895194
-0.0659489
0.024669
-0.0600816
-0.0184724
-0.0689317
0.0221754
-0.066047
-0.0232024
-0.0729149
0.0239861
-0.0721311
-0.0227658
-0.080343
0.0234269
-0.077074
-0.0192334
-0.0905891
0.0191066
-0.0166618
-0.0810805
0.022118
-0.0808922
-0.0155114
-0.0985004
0.00920112
-0.0129664
-0.0998121
0.00638466
-0.0993717
-0.0543606
0.0926692
-0.0968761
-0.015072
-0.0099445
0.0999523
-0.102198
-0.0103182
-0.0143128
0.102951
-0.101401
0.00234986
-0.00468692
0.0982098
-0.0949055
0.0176498
0.00992252
0.0914475
-0.0881898
0.0244675
0.0216706
0.0853003
-0.0824056
0.021727
0.0228816
0.0796456
-0.0768242
0.0165179
0.0183606
0.0742453
-0.0718559
0.0116856
0.0135063
0.0700293
-0.0688105
0.00671454
0.00889798
0.0683945
-0.0686767
0.00130067
0.00387439
0.0694127
-0.0704098
-0.00410413
-0.00139719
0.0714813
-0.072755
-0.00898958
-0.00641887
0.0742181
-0.0759726
-0.0126572
-0.0106149
0.0778126
-0.0798169
-0.0150592
-0.0134911
0.0818463
-0.0840669
-0.0164859
-0.0153403
0.0863119
-0.0887254
-0.0168375
-0.0162179
0.0911117
-0.093593
-0.0159369
-0.0159882
0.0959359
-0.0978415
-0.0134665
-0.0144083
0.100225
-0.100674
-0.00931813
-0.0112106
0.101133
-0.100907
-0.00387226
-0.00639693
0.100945
-0.100538
0.00134644
-0.00112445
0.0986648
-0.0968918
0.00461168
0.00301744
-0.0767964
0.0761868
-0.0113259
0.0792182
-0.0818971
-0.0139829
-0.0124443
-0.0739387
0.0730406
-0.00694101
-0.0093328
-0.0724623
0.0723471
-0.00140682
-0.00421984
-0.0728913
0.0737113
0.00537126
0.00190795
-0.0747373
0.076058
0.0115258
0.00813987
-0.0776113
0.0797604
0.0160774
0.0132263
-0.0825138
0.0864811
0.0190601
0.0168415
-0.0913474
0.0972972
0.0171109
0.018068
-0.102657
0.106704
0.0064659
0.0119624
-0.108257
0.107559
-0.00580499
-6.8282e-05
-0.105373
0.102224
-0.0133308
-0.00965982
-0.0990099
0.0956729
-0.0166664
-0.0145378
-0.0927147
0.0898297
-0.0177215
-0.0164323
-0.0873354
0.0848892
-0.0174765
-0.0167399
-0.0827186
0.0805582
-0.0164175
-0.0160834
-0.0786703
0.0768179
-0.0144567
-0.014697
-0.0751495
0.0734236
-0.0113795
-0.012297
-0.0717922
0.07083
-0.00723689
-0.00892219
-0.0698773
0.0697558
-0.00155742
-0.00433509
-0.0705262
0.07288
0.00479702
0.00181207
0.00736428
0.0215123
-0.0225779
0.0834722
0.0861907
0.0238246
-0.0273238
0.083253
0.0824879
0.0295236
-0.0315207
0.0813818
0.0809675
0.0332024
-0.0345555
0.0797561
0.0791324
0.035525
-0.0361039
0.07895
0.0778757
0.0362416
-0.0359228
0.0794351
0.0777089
0.0351614
-0.0339387
0.0811146
0.0788174
0.0323267
-0.0307406
0.082578
0.080874
0.0285574
-0.0279482
0.0855506
0.0839549
0.0909797
-0.0168526
0.0198585
-0.0840864
-0.0843127
-0.014437
0.00722772
-0.0103299
-0.0962696
-0.0949085
0.00524443
0.00938969
-0.0457371
-0.00380973
-0.0547489
0.0953021
-0.0923048
-0.00908553
0.0902017
-0.00877873
0.0277615
-0.0467936
-0.017051
-0.0554167
0.0310469
-0.056422
-0.0280545
-0.0563668
0.0263944
-0.0643006
-0.0340257
-0.0581084
0.0271196
-0.0691805
-0.0337449
-0.0619358
0.0273611
-0.0760654
-0.0285971
-0.0709793
0.0259275
-0.0808834
-0.0213119
-0.0847887
0.0236765
-0.0847103
-0.0172297
-0.0942371
0.0175509
-0.0154421
-0.0864215
0.0212983
-0.0878339
-0.0140204
-0.0961215
-0.0856718
0.0830947
-0.0128649
0.0141424
-0.0867121
-0.0131021
0.0175645
-0.0898437
-0.0211926
0.0873892
0.00815335
-0.0102922
-0.0941308
0.00522597
-0.0919812
-0.0487807
0.093433
-0.0974929
-0.0110121
-0.00881632
0.100812
-0.102447
-0.00868336
-0.0109936
0.102764
-0.101415
0.00100124
-0.00437029
0.0986114
-0.0946407
0.0136791
0.00711891
0.0906063
-0.086803
0.0206643
0.0176362
0.0836946
-0.0809295
0.018962
0.0197732
0.0785759
-0.0763833
0.0143253
0.016007
0.0745455
-0.0729844
0.0101244
0.0116686
0.0718895
-0.0712065
0.00603149
0.00780311
0.0709638
-0.0710552
0.0013921
0.00363173
0.0713883
-0.071947
-0.00354549
-0.00106409
0.0727156
-0.0737883
-0.00791688
-0.00565025
0.0750734
-0.0765983
-0.0111323
-0.00932984
0.0781893
-0.0799409
-0.0133077
-0.0119001
0.0817257
-0.0836664
-0.0145452
-0.0135555
0.0856071
-0.0876669
-0.0147777
-0.0142772
0.0896714
-0.0917198
-0.0138884
-0.0139838
0.0936033
-0.0953477
-0.0117221
-0.0125249
0.0967464
-0.0977452
-0.00831935
-0.00981183
0.0980587
-0.097729
-0.00420199
-0.00608343
0.0966778
-0.0951668
-0.000164592
-0.00217561
0.0936279
-0.0926141
0.00359795
0.00147851
0.0917209
-0.0902831
0.00378821
0.00435118
-0.0812389
0.0793822
-0.0121262
-0.0125812
-0.0783454
0.0767981
-0.00977858
-0.0114075
-0.0754332
0.0746608
-0.00616866
-0.00796792
-0.0742662
0.0741938
-0.00133441
-0.00382517
-0.0747387
0.0758014
0.00430853
0.00136303
-0.0772488
0.0791604
0.00961431
0.00669246
-0.081281
0.0838958
0.0134627
0.0111057
-0.0868544
0.0906683
0.0152462
0.0138829
-0.0948722
0.0994376
0.0125455
0.0138641
-0.103012
0.105219
0.00425899
0.0083883
-0.105573
0.104407
-0.00463862
-0.00042302
-0.102366
0.0997048
-0.0106699
-0.00761851
-0.0970422
0.0942557
-0.0138798
-0.0118753
-0.0917382
0.0892273
-0.0152105
-0.0139148
-0.0870133
0.0848209
-0.015284
-0.014526
-0.0828665
0.0809028
-0.0144537
-0.014129
-0.0791679
0.0774838
-0.0127725
-0.0129621
-0.0760397
0.0746247
-0.00996447
-0.0108529
-0.0734057
0.0723369
-0.00616803
-0.00770327
-0.0717168
0.0716609
-0.00150151
-0.00371502
-0.0724361
0.0741033
0.00312986
0.00103689
-0.0745553
0.0793976
0.00870172
0.00691227
0.0136532
0.0220954
-0.0244479
0.0858247
0.0870935
0.0271536
-0.0295484
0.0856477
0.0851936
0.0316669
-0.0335114
0.0832262
0.083086
0.0349633
-0.036007
0.0807998
0.0805843
0.0366018
-0.0367432
0.0790914
0.0784704
0.0364282
-0.0356714
0.0786783
0.0773939
0.03453
-0.0329991
0.0795837
0.077676
0.0311732
-0.0298805
0.0812854
0.0790481
0.0267823
-0.0249292
0.0836975
0.0808568
0.017803
-0.0175622
0.088909
0.0838535
0.0209283
-0.0259839
0.0952573
0.0942929
0.0269738
-0.0449493
-0.0233499
-0.04845
-0.00496999
0.00319779
-0.0885109
-0.00748638
-0.0894648
0.0903016
-0.097947
-0.0183386
-0.0311198
0.0715068
0.0548704
0.0793797
-0.0201979
-0.0871897
0.0875936
0.00338431
-0.0854454
0.00145347
0.0366169
-0.0523636
-0.035674
-0.0477971
0.0324386
-0.0624662
-0.043364
-0.0470284
0.0305375
-0.0677186
-0.0443434
-0.04751
0.0316926
-0.073512
-0.0390741
-0.0514588
0.0299388
-0.0800767
-0.0300402
-0.062251
0.0281037
-0.0853105
-0.0216944
-0.080324
0.024751
-0.0881629
-0.0168818
-0.0913757
-0.0129129
-0.0890645
0.0152653
-0.0881548
0.0860681
-0.0108262
0.0116641
-0.089847
-0.00997189
-0.0917047
0.0143043
0.0210672
-0.0913365
-0.0134071
-0.0930066
-0.0925724
0.017994
0.00159848
-0.00542525
0.0753335
-0.0825318
0.0127548
-0.0236544
0.0801233
-0.0451567
0.0945384
-0.0950022
-0.00862171
-0.0121873
0.0956216
-0.0968954
-0.00973827
-0.00819693
0.0993038
-0.100998
-0.00698951
-0.00858518
0.10168
-0.100959
0.00028005
-0.00368745
0.0987728
-0.0951856
0.0100919
0.00493238
0.0911699
-0.0871324
0.0166267
0.0136206
0.0838495
-0.0811332
0.0162456
0.0164903
0.0790818
-0.0773696
0.0126131
0.0139556
0.0760318
-0.0749068
0.00899941
0.0103308
0.0740599
-0.0734114
0.00538302
0.00695622
0.0730051
-0.0728115
0.00119857
0.00322535
0.0728677
-0.0732103
-0.00320296
-0.0010079
0.0738286
-0.0747527
-0.00699279
-0.00503188
0.0758572
-0.0771645
-0.009825
-0.00822538
0.0785406
-0.0800709
-0.0117773
-0.010524
0.0816318
-0.0833184
-0.0128586
-0.0119946
0.0849891
-0.0867408
-0.0130259
-0.0126066
0.0884199
-0.0901051
-0.0122032
-0.0123047
0.0916224
-0.0930112
-0.0103333
-0.0110076
0.0940976
-0.0948811
-0.00753585
-0.00872537
0.0952472
-0.0951795
-0.00426975
-0.00571732
0.0947283
-0.0935314
-0.00136151
-0.00262675
0.091758
-0.0895179
0.00135782
-0.000294927
0.00242691
-0.0846679
0.0831202
-0.0113172
-0.0117018
-0.0820103
0.0805732
-0.0106891
-0.0114713
-0.0789638
0.0778479
-0.00866271
-0.00979814
-0.0767557
0.0760005
-0.00541348
-0.00687567
-0.0756322
0.0756586
-0.00136082
-0.00345691
-0.0761427
0.0771665
0.00328473
0.000878968
-0.0786014
0.0805604
0.00765532
0.00525757
-0.082765
0.0854414
0.0107862
0.00890114
-0.0883192
0.0917308
0.0118347
0.011005
-0.09512
0.0984139
0.00925159
0.0104749
-0.100719
0.101926
0.0030513
0.00608371
-0.101899
0.100874
-0.0036132
-0.00039599
-0.0992759
0.0972089
-0.00860296
-0.00602064
-0.0951
0.0928333
-0.0116132
-0.00976634
-0.0907301
0.0885801
-0.0130605
-0.0118116
-0.0866438
0.0846999
-0.0133401
-0.0125896
-0.0829593
0.0812045
-0.0126989
-0.0123884
-0.0796415
0.0781142
-0.0112452
-0.0113992
-0.0768319
0.0756467
-0.00877929
-0.00957058
-0.0746856
0.0738532
-0.00533563
-0.00674216
-0.0733097
0.0731136
-0.00130544
-0.00317152
-0.0733761
0.0734779
0.00302807
0.000774434
-0.0754248
0.0775394
0.00658714
0.00496532
0.00866086
0.021035
-0.0226466
0.0890008
0.0915068
0.0240492
-0.0266601
0.0884355
0.0884961
0.0292287
-0.0316292
0.0880482
0.0877623
0.0337027
-0.0354259
0.0849494
0.0851595
0.0366752
-0.0374408
0.0815654
0.0818336
0.0377035
-0.0374619
0.0788498
0.0787331
0.0367514
-0.0355966
0.0775234
0.0766834
0.0340893
-0.0322393
0.0777337
0.0761687
0.0301774
-0.0279239
0.0790318
0.0769862
0.0256377
-0.0227693
0.0808292
0.0785706
0.0192936
-0.0128019
0.0824173
0.0803777
0.0760657
-0.0107085
-0.0909086
0.0733682
-0.0176429
0.00388477
-0.00538767
-0.087008
-0.0859578
0.00439722
0.0399742
-0.0483066
-0.0398564
-0.0442676
0.0394312
-0.0593562
-0.0491101
-0.042051
0.0350238
-0.0669524
-0.0522965
-0.0390753
-0.00691484
-0.0879376
0.0362416
-0.0722675
-0.0485002
-0.0380839
0.0349274
-0.0785007
-0.0391415
-0.0423575
0.0324719
-0.0844449
-0.0275457
-0.0563998
-0.00886554
-0.0913636
0.0103821
-0.0894725
0.0878928
-0.00728577
0.00749388
-0.090721
-0.00624544
-0.0927664
0.00889666
0.0295966
-0.0901561
-0.0190208
-0.078185
-0.0940849
0.0127623
0.0257331
-0.0928288
-0.0145649
-0.0902179
-0.0951851
0.016917
0.0213307
-0.0946732
-0.011732
-0.0919831
0.0148817
-0.019089
0.0775754
0.0584325
-0.0912476
0.0601956
0.0243173
-0.0262899
0.0815514
0.00412319
-0.00544962
-0.0856816
-0.0861067
0.00427204
-0.000243442
0.0829932
-0.045039
0.0873527
-0.094219
-0.0114723
-0.0812483
-0.0159185
0.0795239
-0.0140935
0.0945132
-0.0942081
-0.00892683
-0.0118931
0.0948019