/*--------------------------------*- C++ -*----------------------------------*\
  =========                 |
  \\      /  F ield         | OpenFOAM: The Open Source CFD Toolbox
   \\    /   O peration     | Website:  https://openfoam.org
    \\  /    A nd           | Version:  10
     \\/     M anipulation  |
\*---------------------------------------------------------------------------*/
FoamFile
{
    format      ascii;
    class       volScalarField;
    location    "17";
    object      p;
}
// * * * * * * * * * * * * * * * * * * * * * * * * * * * * * * * * * * * * * //

dimensions      [0 2 -2 0 0 0 0];

internalField   nonuniform List<scalar> 
8711
(
-0.00294653
-0.00288198
-0.00266562
-0.0375229
-0.0373951
-0.046037
0.0807551
0.081901
0.704638
0.696258
0.517188
0.295083
-0.0821726
-0.0866755
-0.36018
-0.35804
-0.0414891
-0.0473412
-0.0562626
-0.000142883
-0.00024467
-0.00128541
-0.000775086
-0.00246607
-0.172099
-0.124506
-0.211963
-0.260054
-0.00393729
-0.0039273
-0.00293265
-0.514971
-0.545196
-0.358378
-0.392478
0.207711
0.198664
0.162895
0.169447
0.161788
0.206614
0.180355
-0.340126
-0.335875
0.288685
0.169315
-0.478595
-0.483693
-0.479448
0.00189822
0.00177465
0.00153518
0.00135843
0.00396998
0.00903688
0.0142965
-0.14436
-0.179306
-0.108682
-0.135917
0.00016721
0.00131704
-0.001584
-0.00181494
0.0951774
0.0915019
0.0814643
-0.00152144
-0.00150084
-0.000828187
-0.017679
-0.0132608
-0.0248494
-0.0301813
0.0545468
0.0552879
0.0472485
0.0463491
-0.00160766
-0.0108956
-0.0112529
-0.00442953
-0.00345067
-0.00226408
-0.0022507
-0.00217045
-0.0970414
-0.120154
-0.0104602
-0.0587478
0.0202622
0.0162512
0.0214575
0.0256153
0.034669
0.0475735
0.0642042
0.0666152
0.0521503
0.0250018
0.0284569
0.371386
0.365451
-0.0694349
-0.058228
-0.0508112
-0.0467982
-0.0463493
-0.0497535
-0.0561931
-0.0644593
-0.0724827
-0.0778188
-0.0791131
-0.0764267
-0.0702391
-0.0610161
-0.0503855
-0.0400091
-0.0399052
-0.0320577
-0.0539405
-0.0478514
-0.0578922
-0.0573216
-0.0496207
-0.0549441
-0.0370154
-0.0429041
-0.0334073
-0.0335084
-0.0430903
-0.0366899
-0.0678939
-0.0530782
-0.0868288
-0.0622169
-0.0698861
-0.0565714
-0.0576346
-0.0664359
-0.0597471
-0.0872934
-0.0767747
-0.10144
-0.0956421
-0.093894
-0.099843
-0.0726943
-0.0847197
-0.0468941
-0.0596513
-0.035781
-0.117351
-0.0223628
-0.0181991
-0.0263646
-0.162286
-0.101415
-0.02884
-0.0233954
-0.0370824
-0.0339022
-0.0367393
-0.0388558
-0.0279074
-0.0332579
-0.0193689
-0.0229865
-0.0213314
-0.0191687
-0.0354374
-0.0273612
-0.0640706
-0.0476105
-0.112972
-0.0856643
-0.0156165
-0.0190834
-0.0744048
-0.0845512
-0.0638149
-0.0676315
-0.0659302
-0.0629576
-0.0838585
-0.0728513
-0.110174
-0.0972071
-0.122765
-0.118218
-0.110998
-0.119809
-0.0825745
-0.097321
-0.0525389
-0.067091
-0.0298782
-0.0399217
-0.00859907
-0.0120117
-0.14098
-0.0218733
-0.212984
-0.191326
-0.185662
-0.224852
-0.00552571
-0.00504603
-0.00533214
-0.137562
-0.108235
-0.0109499
-0.00794912
-0.0171193
-0.014125
-0.0201457
-0.01947
-0.0165546
-0.0195339
-0.0079545
-0.0129768
-0.00481792
-0.00570078
-0.0115016
-0.00700407
-0.0277917
-0.0186226
-0.058778
-0.0413323
-0.112593
-0.0828869
-0.148123
-0.0319504
-0.0235554
-0.073016
-0.11592
-0.0797323
-0.0778967
-0.0634841
-0.0676666
-0.0628605
-0.0623766
-0.0739204
-0.066533
-0.100698
-0.0855858
-0.130955
-0.115779
-0.141786
-0.139766
-0.123688
-0.135042
-0.0900412
-0.10772
-0.0564594
-0.0722791
-0.0426424
-0.010759
-0.00803367
-0.0154855
-0.0133118
-0.165752
-0.247652
-0.263261
-0.298376
-0.297008
-0.00167946
-0.0169736
-0.152576
-0.221242
-0.045421
-0.0766907
-0.0380955
-0.118378
-0.279925
-0.337948
-0.328271
-0.363648
-0.357271
-0.365678
-0.00317144
-0.00220392
-0.00538678
-0.00428505
-0.00421167
-0.00529339
0.00149562
-0.00176972
0.00755799
0.00485165
0.00639714
0.00801003
-0.00338756
0.00223379
-0.0210049
-0.011136
-0.0524582
-0.0346865
-0.106577
-0.0768213
-0.183766
-0.143446
-0.27973
-0.228946
-0.325251
-0.048556
-0.048046
-0.0509467
-0.0489001
-0.0591499
-0.0540164
-0.0798435
-0.0677117
-0.11471
-0.0960555
-0.149112
-0.132933
-0.157359
-0.157353
-0.133116
-0.148249
-0.0938995
-0.11398
-0.0581323
-0.074788
-0.0327139
-0.0437699
-0.0176043
-0.0241805
-0.00418022
-0.00228927
-0.00731952
-0.00570764
-0.0105148
-0.0089907
-0.0124774
-0.0117933
-0.188113
-0.0697026
-0.0266777
-0.0174491
-0.0126577
-0.162956
-0.247995
-0.347162
-0.361635
-0.116646
-0.305538
-0.348963
-0.369756
0.00374406
0.0028129
0.00504573
0.0041958
0.00687355
0.0058764
0.0110167
0.0085719
0.0168031
0.0139693
0.0192042
0.0187439
0.0143515
0.0176214
0.00313099
0.00935575
-0.0149589
-0.0048958
-0.0454985
-0.0283668
-0.0960212
-0.0681768
-0.171746
-0.131503
-0.265251
-0.218289
-0.309146
0.0129433
0.0116016
0.0397328
0.0294718
-0.0105843
-0.00118916
-0.022976
-0.0172569
-0.035132
-0.0286887
-0.0522982
-0.0426055
-0.0822666
-0.0654171
-0.125573
-0.103042
-0.163061
-0.146737
-0.166935
-0.169618
-0.136639
-0.154636
-0.0941685
-0.115411
-0.0578008
-0.074539
-0.0325976
-0.0436152
-0.0239672
-0.00148581
-0.00362793
-0.00294357
-0.00503315
-0.00437587
-0.00684345
-0.00591633
-0.00835906
-0.00769304
-0.00881613
-0.207779
0.00222576
4.7284e-05
0.0367465
0.0047578
-0.16717
-0.266176
-0.109435
-0.32229
-0.00608322
-0.0417569
-0.351259
0.0177847
-0.35609
0.00344682
-0.00892484
0.00982636
0.00799741
0.0140803
0.0116761
0.0186379
0.016119
0.0240088
0.0212631
0.0280594
0.0264745
0.0268404
0.0282023
0.0197421
0.0238537
0.00807126
0.014427
-0.00980181
7.67007e-05
-0.0385134
-0.0225849
-0.0840769
-0.0589716
-0.152981
-0.116069
-0.239752
-0.197008
-0.314817
-0.282593
-0.340364
-0.335266
0.0649497
0.0581314
0.0502892
0.0627351
0.025507
0.0372877
0.00570299
0.0151931
-0.0153818
-0.00565512
-0.0414833
-0.0271535
-0.0812373
-0.0594278
-0.132664
-0.106668
-0.170642
-0.155146
-0.169325
-0.174893
-0.134396
-0.154316
-0.0909122
-0.11232
-0.0554418
-0.0717472
-0.0316749
-0.0421955
-0.0168839
-0.0232636
-0.0120161
-0.340616
-0.318894
-0.00303158
-0.00026909
-0.00181645
-0.00358323
-0.00361143
-0.00360452
-0.00359216
-0.00418573
-0.00383947
-0.00513086
-0.00464365
-0.00563476
-0.219365
-0.16371
-0.267611
-0.00367249
-0.00724216
-0.00410409
-0.0954327
-0.316978
-0.0297217
-0.335682
0.0206313
-0.333799
0.0489259
-0.280824
-0.293442
0.0011583
-0.00521595
-0.0836845
0.00935191
0.00545127
0.0165737
0.0134344
0.0230779
0.0197392
0.0290018
0.0258027
0.0336832
0.0315913
0.035008
0.034907
0.0312972
0.0337297
0.0233352
0.0276946
0.0117744
0.0180271
-0.00536186
0.0040352
-0.0317247
-0.0172403
-0.0720274
-0.0499284
-0.132044
-0.0996481
-0.208612
-0.169642
-0.277997
-0.246558
-0.308808
-0.301811
-0.256251
-0.289447
-0.234078
-0.166134
-0.213796
0.0831945
0.0624995
0.074709
0.0812948
0.0863625
0.0605446
0.0725475
0.0347256
0.0472711
0.00741171
0.0214124
-0.0277363
-0.00869777
-0.0776103
-0.0508589
-0.135031
-0.106926
-0.170861
-0.157238
-0.164073
-0.172267
-0.126686
-0.147286
-0.0845549
-0.105016
-0.0517151
-0.0667961
-0.0297924
-0.0396047
-0.0161261
-0.0220813
-0.0111718
-0.00503428
-0.00541562
-0.00404511
-0.00480107
-0.00276648
-0.00334918
-0.00232217
-0.00242865
-0.00264302
-0.00242497
-0.00304089
-0.219433
0.00221024
-0.00677267
-0.00393951
-0.152369
-0.266749
-0.0804038
-0.298811
-0.016263
-0.306305
0.0226999
0.0466643
0.0335815
-0.292077
-0.243832
-0.180083
-0.11139
-0.134547
-0.0706565
-0.035422
0.0128816
0.0075473
0.0221816
0.0179713
0.029948
0.0262782
0.0359358
0.0332073
0.0392065
0.0380071
0.0383928
0.0393423
0.0335103
0.0363605
0.0254834
0.029797
0.0143213
0.020335
-0.00167908
0.00701379
-0.02523
-0.0124011
-0.0599803
-0.0410527
-0.110095
-0.0831384
-0.173838
-0.140971
-0.233535
-0.206761
-0.266131
-0.258422
-0.222744
-0.252146
-0.18646
0.0700041
0.0268691
0.0349331
0.0537993
0.0941729
0.0835171
0.101417
0.100433
0.0874583
0.0960845
0.0617034
0.0751926
0.0292275
0.0463404
-0.0142987
0.00915292
-0.0724492
-0.0419709
-0.131946
-0.103759
-0.163247
-0.152265
-0.151546
-0.161722
-0.114442
-0.134284
-0.0760481
-0.0944646
-0.0469226
-0.0602906
-0.0275019
-0.0362232
-0.0149633
-0.0204322
-0.0105366
-0.0102557
-0.00926738
-0.0101282
-0.008136
-0.00931271
-0.00515984
-0.00686066
-0.00242225
-0.00366998
-0.00104913
-0.00155035
-0.000780299
-0.000824571
-0.0014642
-0.00100695
-0.00190715
-0.00190575
-0.211151
-0.135425
-0.249923
-0.0624485
-0.270756
-0.000196535
-0.00187702
-0.000319955
-0.0129446
0.0105735
0.013193
0.0129849
0.00337141
-0.272286
-0.241764
-0.190793
-0.129071
-0.0513188
-0.00764067
-0.0242743
0.0115281
0.0246702
-0.0152291
-0.0134195
0.00274139
-0.00265241
0.0149337
0.00882383
0.0256983
0.0206751
0.0339163
0.0301105
0.0393344
0.0370378
0.0412492
0.0407504
0.0393992
0.0407455
0.0341902
0.0370931
0.0264584
0.0305982
0.0158823
0.0215584
0.00115205
0.00909306
-0.0196975
-0.00843862
-0.0491913
-0.0332846
-0.089811
-0.0681622
-0.140183
-0.114217
-0.190214
-0.166179
-0.21645
-0.209872
-0.185841
-0.208993
-0.112301
-0.151972
-0.0185553
-0.0647007
0.0391576
-0.0129574
-0.0047299
0.0186969
0.0723839
0.056851
0.09784
0.0859547
0.10827
0.104279
0.102057
0.107197
0.0801583
0.0926856
0.0451265
0.0640905
-0.00416109
0.0222683
-0.0662186
-0.0344102
-0.122953
-0.0969257
-0.147462
-0.140023
-0.133052
-0.143922
-0.099185
-0.116875
-0.0662705
-0.0819444
-0.0415783
-0.0529065
-0.0248371
-0.0322643
-0.0137544
-0.0185606
-0.00638538
-0.00966659
-0.0038264
-0.015089
-0.0157455
-0.0116317
-0.0134287
-0.0070135
-0.00953375
-0.00262509
-0.00464622
-0.00020081
-0.00114208
0.000625985
0.000342574
0.00039463
0.000634397
2.5199e-05
-0.193654
0.0219177
0.056459
0.0529842
-0.115135
-0.224348
0.00127338
0.00100147
-0.0528222
-0.0189831
-0.0066189
-0.0108365
-0.0250314
-0.0314466
-0.0430877
-0.230657
-0.196979
-0.142225
-0.0726562
-0.00487869
0.0536826
-0.0187089
-0.0161612
-0.00544822
-0.000339775
-0.00180822
-0.00875049
-0.237909
0.00378045
-0.0015833
0.0158234
0.00975015
0.026971
0.0216348
0.0350755
0.0314486
0.0398795
0.0379316
0.0410795
0.0409176
0.0388674
0.0403422
0.0338691
0.0366364
0.0266243
0.030503
0.0168312
0.022065
0.00353377
0.0106573
-0.0146629
-0.00491108
-0.0393996
-0.0261843
-0.0718123
-0.0547358
-0.110251
-0.0905813
-0.148038
-0.129869
-0.167045
-0.161276
-0.145851
-0.16373
-0.0851953
-0.118956
-0.00919937
-0.0481422
0.0777136
0.0591036
0.0259627
1.24215e-05
-0.061946
-0.0494009
-0.0233274
0.0401744
0.0211466
0.0712337
0.0568387
0.0932001
0.0835839
0.107006
0.101635
0.105359
0.107987
0.0874806
0.0983579
0.0527434
0.0719872
0.00205273
0.0290622
-0.0581634
-0.0279138
-0.107851
-0.0857346
-0.125588
-0.121298
-0.110913
-0.120977
-0.0827103
-0.0972244
-0.0561431
-0.0687925
-0.036008
-0.0453003
-0.0218207
-0.0282844
-0.0122996
-0.0164859
-0.0058905
-0.00871906
-0.00359652
-0.0192955
-0.019841
-0.0154977
-0.0176596
-0.00943465
-0.0126898
-0.00342123
-0.00625364
0.000271124
-0.00122551
0.00167788
0.00116633
0.0018708
0.00189633
0.00156783
-0.170742
0.000819814
-0.0994577
-0.0536492
-0.0322447
-0.0303096
-0.0412443
-0.0590048
-0.19454
-0.157254
-0.0980787
-0.0281974
-0.0779856
-0.0775241
-0.0958579
0.0394419
0.0889148
0.083024
-0.0111287
-0.197237
0.104616
-0.206869
0.00216547
-0.00350728
-0.00606406
0.00570852
0.000863832
0.0167187
0.0111899
0.0270481
0.0220415
0.0346344
0.0312393
0.0388745
0.0371786
0.0397044
0.039681
0.0375028
0.0389217
0.0328617
0.0354271
0.0261909
0.0297623
0.0172446
0.02201
0.00535247
0.0116879
-0.0104246
-0.00203274
-0.0310385
-0.0201326
-0.0567105
-0.0433516
-0.085473
-0.0709482
-0.111985
-0.0995181
-0.124189
-0.120458
-0.108555
-0.120406
-0.0607538
-0.0876743
-0.00353348
-0.0323724
0.0497473
0.0248305
0.103755
0.0833928
0.0702162
-0.0395384
-0.106646
-0.0866643
-0.0627989
0.00333098
-0.0173748
0.0395997
0.0221574
0.0681281
0.0548701
0.0888564
0.0796914
0.102217
0.0970071
0.102052
0.103758
0.0866821
0.096254
0.0543516
0.0724409
0.00680114
0.0319566
-0.0466113
-0.0202453
-0.08715
-0.0695206
-0.0998454
-0.0967185
-0.087979
-0.0958549
-0.0666886
-0.0776196
-0.0464218
-0.0561409
-0.0304936
-0.0379381
-0.0189375
-0.0242419
-0.0107307
-0.014479
-0.00529788
-0.00771684
-0.00170573
-0.00322691
0.000698003
-0.000296421
-0.0210497
-0.0172687
-0.0230541
-0.0229178
-0.0194761
-0.0218215
-0.0122978
-0.0160945
-0.00479758
-0.00840077
0.000310572
-0.00184563
0.00242637
0.00166217
0.00294918
0.00281803
0.00247593
0.0027535
0.00189808
0.00216455
0.00163375
-0.149294
-0.0926534
-0.0625127
-0.0540192
-0.0611485
-0.0777911
-0.168117
-0.127165
-0.0632692
-0.0981566
-0.117231
-0.130803
0.0100016
0.075822
0.119553
-0.110139
-0.135386
0.124241
0.089235
0.110788
0.00222039
-0.00611359
-0.00558436
0.00305988
-0.17403
0.00126277
-0.182441
0.000302114
-0.00404897
0.00834776
0.00370484
0.0179021
0.0129037
0.026773
0.0224735
0.033451
0.0304459
0.0370919
0.0356439
0.0376867
0.0377253
0.0356333
0.0369368
0.0314118
0.033742
0.0253454
0.0285932
0.0172695
0.0215593
0.00673932
0.0123195
-0.00682339
0.000338318
-0.023874
-0.014938
-0.04412
-0.0337026
-0.0655833
-0.0549006
-0.0836849
-0.0754431
-0.0900025
-0.0887053
-0.0760086
-0.0857118
-0.0399368
-0.0597207
0.00210147
-0.0191439
0.0430316
0.023514
0.0672332
0.0583606
0.0865995
0.0671922
0.0703226
-0.0705712
-0.131547
-0.106632
-0.0894147
-0.0312405
-0.0508449
0.00608127
-0.0124308
0.038238
0.022774
0.064126
0.051843
0.0835435
0.0746617
0.0954713
0.0905113
0.0960448
0.0972301
0.0827661
0.0911112
0.054202
0.0701927
0.012958
0.0346072
-0.031334
-0.00970891
-0.063775
-0.0496864
-0.0741841
-0.0714057
-0.0668103
-0.0718767
-0.0522695
-0.0598426
-0.0375772
-0.0447221
-0.0253789
-0.0311502
-0.016084
-0.0204285
-0.00933887
-0.012439
-0.0046496
-0.00674199
-0.00149951
-0.00286892
0.000692398
-0.000169808
0.00166132
-0.0219954
-0.0168423
-0.0258941
-0.0249517
-0.0229921
-0.025194
-0.0153775
-0.0195297
-0.00667218
-0.0109354
-0.000117325
-0.00298659
0.0029197
0.00179403
0.00373608
0.00350959
0.0034138
0.00365086
0.00289055
0.00312627
0.00285303
-0.134473
-0.0955317
-0.0808965
-0.0837191
-0.0996717
-0.152707
-0.1065
-0.12186
-0.143383
-0.160052
-0.0362028
0.0421732
0.107368
-0.166623
0.140318
-0.163062
0.134078
-0.120804
-0.149756
0.109748
0.058172
0.0765754
0.00248925
-0.00235664
-0.00127374
0.00354987
-0.159842
-0.00661579
-0.0109644
0.00135016
-0.168569
0.00334623
0.000635708
0.0106677
0.0066969
0.0188254
0.0145918
0.0262981
0.022677
0.0319057
0.0293624
0.0349336
0.0337285
0.0353489
0.0354241
0.033481
0.0346562
0.0296933
0.0317867
0.0242282
0.027154
0.0169995
0.0208294
0.00773651
0.012621
-0.00386849
0.00221665
-0.0179186
-0.0106252
-0.0338131
-0.0257319
-0.049683
-0.0419123
-0.0618891
-0.0565057
-0.0645216
-0.064696
-0.0515332
-0.0599746
-0.0246816
-0.0390761
0.0071585
-0.00889104
0.0368687
0.0227192
0.0537621
0.0478462
0.0516204
0.0550179
0.0440937
0.0314067
0.0436417
-0.0865877
-0.13223
-0.106805
-0.0978611
-0.057326
-0.0728226
-0.024024
-0.0412771
0.00832763
-0.00768681
0.0364697
0.0228652
0.0596048
0.0485991
0.0772599
0.0691424
0.0880376
0.0835485
0.0891363
0.0898559
0.0782255
0.08514
0.0544076
0.0677308
0.020509
0.038221
-0.0151223
0.00222827
-0.0414161
-0.0298904
-0.0516945
-0.0483938
-0.0488871
-0.0513488
-0.0399632
-0.0447807
-0.0298234
-0.0348578
-0.0207606
-0.0251113
-0.0134745
-0.0169143
-0.00798527
-0.0105483
-0.00400536
-0.00580009
-0.00124784
-0.00253543
0.000557858
-0.000275558
0.00104775
-0.0216484
-0.0163677
-0.0272361
-0.0254068
-0.0255373
-0.0272327
-0.0182295
-0.0223636
-0.00884765
-0.0135574
-0.00097937
-0.00454035
0.00315664
0.00156104
0.00435153
0.00400468
0.0041972
0.00435851
0.00372521
0.00394151
0.00363856
-0.129369
-0.00319352
-0.108576
-0.107978
-0.123229
-0.146778
-0.147919
-0.174067
-0.194708
-0.0939698
-0.0150981
0.0685413
-0.205498
0.130116
-0.202159
0.151112
-0.187567
0.132812
-0.165051
0.0983788
-0.113108
-0.140151
0.0603681
0.0163065
0.0257746
0.00262087
0.00354703
-0.156784
0.0018927
0.00157098
-0.165644
0.0020616
-0.000239567
0.000628272
0.00635738
0.00394644
0.0124304
0.00916687
0.0192224
0.0157353
0.0254698
0.0224546
0.0301057
0.0280001
0.0325929
0.0316019
0.032882
0.0329752
0.0312068
0.0322512
0.0278367
0.0297011
0.0229531
0.0255672
0.0165309
0.0199257
0.00843092
0.0126829
-0.00146271
0.00369148
-0.0130345
-0.00707997
-0.0255512
-0.019261
-0.0372796
-0.0316471
-0.0453256
-0.041935
-0.0456377
-0.0466377
-0.0344147
-0.041382
-0.013858
-0.0248969
0.0104047
-0.00174699
0.0315485
0.0218331
0.0434327
0.0392572
0.0398248
0.0435192
0.0222472
0.0324998
-0.000439042
-0.00387982
0.00987106
-0.0179381
-0.08723
-0.115843
-0.0935544
-0.0917924
-0.0702403
-0.079825
-0.0462587
-0.0595654
-0.0178884
-0.0326678
0.00965781
-0.00388516
0.034358
0.0223664
0.0550006
0.0451838
0.0708667
0.063547
0.0805844
0.0765263
0.0821086
0.0824078
0.0735405
0.0790351
0.0544089
0.0651102
0.0272876
0.0414458
-0.00124407
0.0127001
-0.0231189
-0.0133418
-0.0337548
-0.0297659
-0.0345109
-0.034999
-0.0298095
-0.0325457
-0.0232031
-0.026581
-0.0166875
-0.0198713
-0.0111179
-0.0137756
-0.00674176
-0.00879519
-0.00344411
-0.00495115
-0.00112492
-0.00218493
0.000364354
-0.000334746
0.000865193
-0.00372633
-0.0112869
-0.00713262
-0.0207164
-0.0159385
-0.0270456
-0.0246182
-0.0268032
-0.0277799
-0.0204525
-0.0242158
-0.0110314
-0.0158945
-0.00217991
-0.00631466
0.00311597
0.000982809
0.00484107
0.0043085
0.00481961
0.00495462
0.00424383
0.00454942
0.0039249
-0.135183
-0.000952394
0.00211631
-0.131289
-0.145841
-0.171869
-0.173543
-0.205938
-0.234186
-0.148045
-0.0865086
0.00246893
-0.250895
0.089568
-0.250675
0.145108
-0.234206
0.150772
-0.206689
0.1219
-0.175631
0.0793778
-0.144001
0.0385594
-0.0935874
-0.115945
0.00467845
-0.0188501
-0.0363826
-0.0338852
-0.0272591
0.000915132
0.00173689
-0.164043
-0.0768242
-0.0764295
0.00428491
0.00280992
0.00815791
0.00600101
0.013391
0.010649
0.0190926
0.0162114
0.0242929
0.0217908
0.0281316
0.0263888
0.0301856
0.0293662
0.030397
0.0304921
0.0289113
0.0298337
0.0259307
0.0275813
0.0215951
0.0239158
0.0159211
0.0189139
0.00886983
0.0125555
0.00046215
0.00481469
-0.00905067
-0.00419665
-0.0189145
-0.0140112
-0.0276298
-0.0235194
-0.0329152
-0.0308226
-0.0318836
-0.033296
-0.022456
-0.0281083
-0.00649256
-0.0150401
0.0118546
0.00266355
0.0273664
0.0203141
0.0348018
0.0324235
0.030988
0.034447
0.0161485
0.024823
-0.00548781
0.00588949
-0.0169609
-0.0712695
-0.0750667
-0.0571083
-0.0653202
-0.0370606
-0.0481544
-0.0130089
-0.0251963
0.0105245
-0.00109956
0.0321733
0.0216437
0.0505332
0.0417885
0.0646819
0.0581481
0.0734333
0.0697589
0.0752282
0.0752149
0.0686492
0.0729301
0.0535221
0.0619906
0.0319798
0.0432415
0.00896956
0.0202928
-0.00965024
-0.00112077
-0.0202464
-0.0158947
-0.0233358
-0.0225025
-0.0216143
-0.0228592
-0.0176618
-0.0197771
-0.01317
-0.0154152
-0.00902483
-0.0110325
-0.00559186
-0.00722443
-0.00292251
-0.00416915
-0.000998879
-0.00189928
0.000251138
-0.000315856
0.00118822
0.000759903
0.00178193
0.00152957
0.000261647
-0.00399243
-0.00150408
-0.0111038
-0.00721968
-0.019459
-0.0152404
-0.0258127
-0.0231363
-0.0268106
-0.0270799
-0.0217811
-0.0249402
-0.0129151
-0.0176256
-0.00356366
-0.00806747
0.00280253
0.000129141
0.00518355
0.00440123
0.00528767
0.00540861
0.00452466
0.00495805
0.00346491
0.00400775
0.00238197
0.00278822
0.00197446
-0.1511
-0.0924773
-0.075598
-0.164834
-0.180699
-0.195381
-0.234944
-0.273197
-0.154206
-0.0814135
-0.300021
0.0173538
-0.307092
0.104983
-0.291769
0.150851
-0.260113
0.140132
-0.220766
0.100695
-0.180458
0.0541974
-0.144148
0.0133717
-0.114523
-0.0369854
-0.016631
0.00153011
-0.000261238
0.000904722
0.00165547
-0.0916304
-0.0487686
-0.0399218
-0.0745537
0.00312179
0.00226515
0.00564502
0.00423785
0.00919639
0.00725877
0.0137243
0.0113825
0.0185375
0.0161315
0.0228713
0.0207908
0.0260751
0.0246213
0.0277945
0.0271083
0.0279614
0.0280492
0.0266586
0.0274681
0.0240355
0.0254902
0.0202055
0.0222555
0.0152146
0.0178422
0.00909439
0.012281
0.00195584
0.00562983
-0.00587357
-0.00191092
-0.0136599
-0.00983281
-0.0201406
-0.0171406
-0.0235747
-0.0223225
-0.0219116
-0.0234354
-0.0140654
-0.0186591
-0.00157654
-0.00821105
0.0122029
0.00532464
0.023578
0.0184208
0.0281513
0.026961
0.0240712
0.0274777
0.0117481
0.0189642
-0.0062143
0.003064
-0.0251413
-0.0158561
-0.0327422
-0.0608068
-0.0512174
-0.0565682
-0.0630595
-0.0628534
-0.0581313
-0.0615086
-0.0464263
-0.0532996
-0.029178
-0.0383586
-0.00904554
-0.0192408
0.0112236
0.00116425
0.0301414
0.0209202
0.0463704
0.0386253
0.0589219
0.0531211
0.066765
0.0634498
0.0686813
0.0684648
0.0636489
0.0669782
0.0516709
0.0583884
0.0344726
0.043484
0.015744
0.0250257
-0.000179469
0.00725969
-0.0103606
-0.00595375
-0.0148076
-0.0131638
-0.0151023
-0.0153151
-0.0130992
-0.0142711
-0.0101896
-0.0116904
-0.00721295
-0.00868009
-0.00458639
-0.00585182
-0.00248487
-0.003475
-0.000923216
-0.00165112
0.000166671
-0.000327405
0.00089202
0.000557961
0.00142518
0.00121382
0.00154805
-0.00406513
-0.00185231
-0.0103452
-0.00693581
-0.0177224
-0.0139846
-0.023847
-0.0211435
-0.0257304
-0.0254355
-0.0221031
-0.0245636
-0.0142455
-0.0185447
-0.004932
-0.0095521
0.00226429
-0.000875459
0.00535194
0.00427958
0.00562829
0.00571269
0.00476035
0.00527268
0.00359982
0.00414951
0.0026386
0.00308144
0.00216031
-0.17721
-0.209819
-0.256323
0.00122731
-0.071138
-0.185485
-0.305754
-0.162785
-0.345894
-0.0765456
-0.365764
0.0301423
-0.35821
0.113944
-0.325453
0.145837
-0.0526288
-0.277997
0.117988
-0.0659813
-0.226782
0.0717303
-0.0876717
-0.0482723
-0.0605647
-0.179911
0.0243654
-0.111266
-0.0543552
-0.141663
-0.0140798
-0.0573468
0.00117329
-0.0455472
-0.0383585
0.00237743
0.00178099
-0.206086
-0.0426771
-0.205049
0.00175017
-0.000557031
0.0004895
0.00404259
0.00311861
0.00638653
0.00506465
0.00966087
0.00793119
0.0135857
0.0115788
0.0176711
0.0156429
0.0213148
0.0195714
0.0240135
0.0227896
0.025473
0.02489
0.0256113
0.0256907
0.0244822
0.0251867
0.0221842
0.0234607
0.0188142
0.020618
0.0144402
0.0167391
0.00914152
0.0118905
0.00308497
0.00618534
-0.00337134
-0.000128052
-0.00954763
-0.00654448
-0.0143928
-0.0121942
-0.0165772
-0.015874
-0.0146921
-0.0161645
-0.00823578
-0.0119475
0.00145159
-0.00362694
0.0119277
0.0067793
0.0201736
0.0164839
0.0230378
0.0223871
0.0189136
0.0218313
0.00826635
0.0143051
-0.00671405
0.000960868
-0.0231045
-0.0148801
-0.0311366
-0.0482888
-0.0448363
-0.0512617
-0.0508416
-0.046788
-0.0502819
-0.0372064
-0.0429684
-0.022621
-0.0302737
-0.00568967
-0.0143189
0.0117985
0.00308999
0.0282836
0.0202312
0.0425594
0.0357333
0.053662
0.0485233
0.0606658
0.0576873
0.0625955
0.0622571
0.0587296
0.061334
0.0491702
0.0545436
0.0353112
0.0425914
0.0199352
0.0276034
0.00629189
0.0127635
-0.00324878
0.00101826
-0.00837967
-0.00628262
-0.00999187
-0.00951006
-0.00939712
-0.00987491
-0.00770913
-0.00862739
-0.00568156
-0.00670428
-0.00374782
-0.00468937
-0.00212493
-0.00289664
-0.000882067
-0.00146193
6.53704e-06
-0.0004023
0.000594092
0.000339739
0.00103651
0.000880531
0.00119497
-0.00394687
-0.00201625
-0.00920153
-0.00636143
-0.0155952
-0.0123212
-0.0213449
-0.018729
-0.0237873
-0.0230904
-0.0214531
-0.0232197
-0.014866
-0.0185796
-0.00608618
-0.0105653
0.00159396
-0.00187025
0.0053543
0.00398013
0.0058888
0.00588954
0.00504288
0.00555886
0.00391927
0.004451
0.00286486
0.00339157
0.00233467
-0.213694
-0.265661
-0.0385146
0.00122894
0.0018993
-0.32616
-0.228422
-0.38116
-0.17121
-0.417188
-0.0707985
-0.423851
0.0393234
-0.398294
0.114473
-0.0368974
-0.0465514
-0.347725
0.12841
-0.0616292
-0.0521981
-0.0658294
-0.285811
0.0881433
-0.0811702
-0.071423
-0.225662
0.0359834
-0.105629
-0.0708782
-0.173917
-0.00926761
-0.239369
-0.135729
-0.0291487
-0.0274942
-0.0207433
0.0011946
0.00283228
0.00233897
0.00447218
0.00358236
0.00677264
0.00552758
0.00970951
0.00816958
0.0131234
0.0113836
0.016611
0.0148849
0.0197021
0.0182253
0.0219964
0.0209555
0.0232496
0.0227477
0.0233763
0.0234411
0.0223993
0.0230099
0.020392
0.0215086
0.0174367
0.0190186
0.0136147
0.0156203
0.00903591
0.0114037
0.00389837
0.0065152
-0.00143584
0.00122502
-0.00635757
-0.0039886
-0.0100063
-0.00838378
-0.0113663
-0.0110094
-0.00948784
-0.0108331
-0.00420564
-0.00719824
0.00338919
-0.000570508
0.0113304
0.00747239
0.0172621
0.0146633
0.018901
0.0186744
0.0150376
0.0176127
0.00602338
0.0110736
-0.00630499
3.34917e-05
-0.0197925
-0.0127401
-0.0320706
-0.0264521
-0.041214
-0.0367421
-0.0581982
-0.0343873
-0.0321197
-0.0383421
-0.0362461
-0.0411322
-0.0402359
-0.0376233
-0.0399646
-0.0293474
-0.0340606
-0.0171544
-0.0235687
-0.00279856
-0.0101481
0.0122733
0.00474861
0.0266123
0.0195938
0.0391323
0.0331356
0.0489242
0.0443863
0.0551559
0.0524901
0.0570317
0.0566253
0.0540455
0.0560975
0.0463435
0.0506851
0.0350562
0.0410003
0.0223131
0.0287051
0.0106001
0.0162249
0.00180166
0.00582679
-0.00358618
-0.00126892
-0.00602918
-0.00509243
-0.00643732
-0.00641106
-0.005683
-0.00615009
-0.00441927
-0.00508106
-0.00306491
-0.00373633
-0.00185308
-0.00243594
-0.000885403
-0.00134214
-0.000178301
-0.000505557
0.000302869
8.63327e-05
0.000629937
0.000490368
0.000845267
0.00077409
0.000661293
-0.000787447
0.000122895
-0.00364023
-0.00203713
-0.00795098
-0.00561482
-0.0133647
-0.0105671
-0.0185473
-0.0161302
-0.021244
-0.0203077
-0.0199768
-0.0211355
-0.0147441
-0.017785
-0.00687906
-0.010985
0.000913101
-0.00267883
0.00522681
0.0035677
0.00608535
0.00597846
0.00532668
0.00580826
0.00420797
0.00476303
0.00304549
0.00362157
0.00247324
-0.259855
-0.0605315
0.000862583
0.000567304
-0.329454
-0.278147
-0.0422438
-0.39939
-0.252313
-0.453308
-0.176942
-0.478028
-0.0638792
-0.013246
-0.0211317
-0.0492304
-0.467001
0.0442086
-0.0387382
-0.0604484
-0.422352
0.104293
-0.0564385
-0.0726697
-0.356055
0.0947575
-0.0747433
-0.0818859
-0.283513
0.0463511
-0.0985841
-0.0855483
-0.217022
-0.0054995
-0.127938
-0.0821639
-0.165967
-0.00505774
-0.00650139
0.001124
0.00149536
0.00126465
0.0030537
0.00236054
0.00467434
0.0037536
0.00681156
0.00566116
0.00946257
0.00808415
0.012443
0.0109294
0.0154405
0.0139604
0.0180831
0.0168214
0.0200497
0.0191567
0.0211349
0.0206988
0.0212546
0.0213053
0.0204133
0.0209411
0.0186642
0.0196387
0.0160801
0.0174634
0.0127494
0.0144946
0.00879956
0.010836
0.00444186
0.00665136
2.54313e-05
0.00221416
-0.00391466
-0.00203638
-0.00667977
-0.00547542
-0.00749999
-0.00735584
-0.00574788
-0.00693621
-0.0014405
-0.00385193
0.0045181
0.00142941
0.0105712
0.00763179
0.014817
0.0129967
0.015609
0.0156797
0.0121182
0.0143602
0.00461975
0.0087815
-0.00554604
-0.000269647
-0.0164568
-0.0113849
-0.02576
-0.0214013
-0.0340953
-0.030041
-0.0189395
-0.0132728
-0.026336
-0.0234607
-0.0300775
-0.028341
-0.0319451
-0.0314667
-0.0297434
-0.0316504
-0.0227114
-0.0266414
-0.0125165
-0.0179102
-0.000296413
-0.00656883
0.0126729
0.00618192
0.0251304
0.0190207
0.0360881
0.0308319
0.0446952
0.0407034
0.0502217
0.0478341
0.0520061
0.0515675
0.049682
0.0513134
0.0434124
0.0469568
0.0341208
0.0390267
0.0234658
0.0288343
0.0133719
0.0182741
0.00533418
0.00907125
-5.37868e-05
0.00233814
-0.00299568
-0.00177082
-0.00410833
-0.00372003
-0.0040628
-0.00418243
-0.00341047
-0.00378034
-0.00253713
-0.00298301
-0.00167904
-0.00209799
-0.000957672
-0.00130059
-0.000413394
-0.0006671
-3.89618e-05
-0.000210657
0.000191772
8.75761e-05
0.000366762
0.000237864
0.000622634
0.000251696
0.000336462
0.000983733
0.000305836
0.000600693
-0.000898478
-0.000159006
-0.00326114
-0.00194428
-0.00676941
-0.00486819
-0.0112545
-0.0089264
-0.0157207
-0.0135985
-0.0183894
-0.0173681
-0.0179011
-0.0185818
-0.0139215
-0.0163115
-0.00732608
-0.0108258
0.000331669
-0.0030816
0.00501915
0.00310929
0.00619588
0.00595872
0.00553553
0.00598436
0.00438567
0.00497798
0.00317401
0.00376906
0.00192071
0.00255
0.00123431
-0.312855
-0.0444558
0.00138716
-0.395529
-0.318107
-0.0694526
0.00201028
0.00151556
0.000780769
0.000278492
-0.467849
-0.272727
0.00989733
0.00369022
-0.512673
-0.178169
-0.0124664
-0.0352785
-0.0457054
-0.520071
-0.0584638
-0.0308518
-0.0610548
-0.488733
0.0407946
-0.0503779
-0.0760893
-0.428249
0.0789887
-0.0689041
-0.0898403
-0.350046
0.0501424
-0.0913297
-0.0990211
-0.270628
-0.00224613
-0.119393
-0.101369
-0.203828
-0.0486966
-0.155345
0.000753936
0.0194781
0.0156949
0.0244884
0.000938858
0.00307496
0.00244917
0.00465173
0.0037909
0.00663108
0.00558492
0.00901191
0.00778541
0.0116233
0.0103033
0.0142149
0.0129383
0.0164884
0.0154036
0.0181841
0.0174133
0.0191288
0.0187477
0.019243
0.0192818
0.0185201
0.0189755
0.0169993
0.0178478
0.0147459
0.0159521
0.011851
0.0133657
0.00844994
0.0101986
0.00475522
0.00662071
0.00109281
0.00289694
-0.0020743
-0.000578219
-0.00418118
-0.00328308
-0.00464784
-0.00463245
-0.00307015
-0.00410039
0.000438954
-0.00150559
0.0051186
0.00270858
0.00971154
0.00751083
0.0127804
0.0115105
0.0130285
0.0132772
0.00990398
0.0118544
0.00365249
0.0070947
-0.0046506
-0.000346906
-0.0132394
-0.00915087
-0.0204219
-0.017202
-0.0272131
-0.0240338
-0.0283715
-0.0287467
-0.0306763
-0.0227605
-0.0264673
-0.0239822
-0.0161163
-4.21979e-05
0.00731841
-0.0114801
-0.0061202
-0.0185452
-0.0156322
-0.0228284
-0.0210748
-0.0245406
-0.0242022
-0.0228252
-0.0242032
-0.0170559
-0.0203107
-0.00851361
-0.0130518
0.00188212
-0.00346578
0.013026
0.00743499
0.0238331
0.0185232
0.0334026
0.028806
0.0409575
0.0374489
0.0458391
0.0437527
0.0475009
0.0470566
0.0456732
0.0469839
0.040518
0.0434413
0.0327918
0.0368811
0.0237953
0.0283483
0.0150518
0.0193199
0.00775036
0.0111895
0.00251025
0.0048886
-0.000708643
0.000690351
-0.00230984
-0.00166393
-0.00280039
-0.00265325
-0.0026363
-0.00277062
-0.00216232
-0.00241942
-0.00160725
-0.00188517
-0.00110215
-0.00134544
-0.000704311
-0.000891507
-0.000425893
-0.000555633
-0.000257058
-0.000336316
-0.000168017
-0.000173025
-0.000168633
-0.000143803
0.000191556
0.000505353
-0.000927444
-0.000277974
-0.00285683
-0.00178296
-0.00571832
-0.00417195
-0.00936355
-0.00747158
-0.0130633
-0.0112839
-0.0154869
-0.0145071
-0.0154799
-0.0158308
-0.0125539
-0.0143705
-0.00699566
-0.0100512
-0.000147054
-0.00349143
0.00474765
0.00270551
0.00619771
0.00584431
0.00563385
0.00605251
0.00447024
0.00507825
0.00322906
0.00384657
0.00196976
0.00259729
0.00133699
-0.367452
0.0327795
0.0292848
-0.0954374
0.00123274
0.000972634
-0.000200713
-0.456114
-0.353695
0.0134407
-0.0796982
0.000631006
0.00075428
-0.00507791