/*--------------------------------*- C++ -*----------------------------------*\
  =========                 |
  \\      /  F ield         | OpenFOAM: The Open Source CFD Toolbox
   \\    /   O peration     | Website:  https://openfoam.org
    \\  /    A nd           | Version:  10
     \\/     M anipulation  |
\*---------------------------------------------------------------------------*/
FoamFile
{
    format      ascii;
    class       surfaceScalarField;
    location    "17";
    object      phi;
}
// * * * * * * * * * * * * * * * * * * * * * * * * * * * * * * * * * * * * * //

dimensions      [0 3 -1 0 0 0 0];

internalField   nonuniform List<scalar> 
17221
(
0.0838736
-0.0257161
-0.0695135
0.011356
0.00179269
0.0763114
0.00576945
0.0672114
-0.0197516
-0.0731759
0.0850342
-0.009911
-0.0771752
0.002052
0.0142694
0.0759609
-0.00519618
0.0720724
0.017569
-0.075372
-0.00103955
-0.00304056
0.0700278
-0.0659477
-0.00840604
-0.0678838
0.0752503
0.00436349
-0.0422537
0.00584691
0.0320433
-0.0427177
0.0105374
0.0365438
0.00294194
0.0425991
-0.0506723
0.00513127
-0.0464238
0.0493657
-0.044407
0.0494748
-0.044924
0.0398562
0.0552971
-0.029269
-0.0704352
0.035789
0.0499431
-0.0173071
-0.068425
0.0333673
-0.0295449
0.0319666
0.0137333
0.0640563
-0.0752623
-0.00252731
0.00572008
0.0559652
-0.047952
-0.0476486
-0.0134471
0.0668157
-0.0313095
-0.0631421
0.0777864
0.0166652
-0.0695854
0.00188027
0.0363957
0.0470421
0.0465673
-0.0529955
-0.0406139
0.104449
-0.0682176
0.0108106
-0.0301362
0.0118981
0.0854495
-0.109289
-0.0575142
0.0817412
0.0850623
-0.0466635
0.030049
-0.0926749
0.0975331
-0.0938426
-0.0503539
0.0835947
-0.0435758
-0.0249342
-0.0446733
0.0115581
0.0580493
-0.0116967
-0.0490067
0.0357692
-0.0550551
0.00277904
0.0405794
-0.103129
0.000618957
0.0738362
0.028674
0.0228929
-0.100365
-0.0256568
0.11925
0.0227228
-0.11908
0.0132765
0.106592
0.0665111
-0.000114175
-0.0190632
-0.0473337
0.0115788
0.0672968
-0.0123645
-0.0417794
0.0410773
0.0638978
-0.0631957
0.102464
-0.0792994
-0.0249206
0.00175648
0.0713296
-0.0106454
0.0348965
0.0938392
-0.0376991
0.0238506
-0.00681317
-0.0074248
0.014238
-0.00227791
-0.00760218
0.00306692
0.0940433
-0.0430978
-0.0509454
-0.0601023
0.0494257
0.10472
0.00452088
-0.00337799
-0.00608234
0.00493945
-0.0024733
-0.000119313
0.00711349
-0.00597374
0.000122453
0.0465069
0.0760555
-0.0713479
-0.0512145
0.0599591
-0.0796251
0.0661729
-0.033766
0.0513764
0.0423488
-0.0215811
0.0638706
-0.0837347
0.01534
0.0688789
-0.000484184
-0.0741634
-0.0082502
-0.00132112
-0.00868356
-0.0660445
0.000564631
-0.0575671
0.0376795
0.0605805
-0.0406929
0.0381067
-0.0588881
-0.0367857
-0.0464761
0.0500554
-0.0439289
0.0403495
0.044359
-0.0531556
-0.0589256
-0.0199208
0.0546993
0.024147
-0.0203604
-0.0577024
0.0191372
0.0607125
-0.0237815
-0.054278
0.017347
-0.0212505
0.0616027
0.00614397
-0.0585542
0.00327356
0.0491367
0.0636231
-0.000733382
-0.0567458
0.0701771
-0.00959451
-0.101136
0.00201707
0.036888
0.0622309
-0.00190985
-0.108218
0.0089915
0.000350963
0.102188
0.0117213
-0.0533251
-0.0149578
0.0565616
-0.0546621
0.054942
0.0114414
-0.0111477
-0.0561566
0.0139792
-0.0575541
-0.0160586
0.062465
0.0140566
0.0593311
-0.0134774
-0.0599103
0.0581481
-0.0615441
0.0174526
-0.0144957
0.0605956
0.0132312
-0.012666
0.0588757
-0.0607053
0.0255277
-0.0871781
-0.0827149
-0.00310628
0.00147543
0.0843458
-0.0896967
0.0147569
-0.00777513
0.0104537
-0.0512431
-0.0134562
0.0542456
-0.05233
0.0577901
0.00499356
0.0904356
-0.0757642
0.0108563
0.0935642
0.00586289
0.0758297
-0.0385283
0.0377313
-0.0337091
0.034506
0.03657
-0.039859
-0.0352393
0.0126919
0.0228019
-0.0231979
-0.0122958
0.023242
0.0111576
-0.0217077
0.0832573
-0.0519265
-0.0400144
0.0716039
0.00340322
-0.000853169
-0.0016729
-0.0635184
0.027261
0.076591
-0.0322413
-0.0716106
0.0223306
0.0749998
-0.0700694
-0.0483767
-0.0180465
0.0547062
0.011717
-0.00685526
0.0401034
-0.0816248
0.0590116
0.0040987
-0.0699655
0.0439097
-0.00294464
-0.0103676
-0.0624805
0.071235
0.00161313
-0.0371624
0.081501
0.066596
0.00460047
-0.00663797
-0.0645585
0.0063348
0.0680741
-0.00781283
0.0538461
-0.0377797
0.0392307
0.0524697
-0.0361221
0.0374985
0.0514856
-0.032592
0.0335761
0.0478311
-0.0289498
0.0326043
0.0468174
-0.0307423
0.0317559
0.0429171
-0.0276606
0.0315609
0.0418983
-0.0280614
0.0290802
0.0411329
-0.0245229
0.0252883
0.0418337
-0.0200051
0.0193043
0.0427339
-0.0128946
0.0119944
0.0458028
-0.00622976
0.00316093
0.0489293
0.00163008
-0.00475659
0.0514049
0.00728383
-0.00975943
0.0539902
0.0126841
-0.0152694
0.0158822
0.0573723
-0.0192643
0.0542202
-0.0513963
0.0130583
0.01787
-0.0180518
0.0159337
0.0491467
-0.0462592
0.00439632
0.0104345
0.043866
-0.0422669
-0.00782889
-0.000763053
0.0408044
-0.0413519
-0.0194576
-0.0143572
0.0431984
-0.0472765
-0.0239833
-0.0226765
0.0487958
-0.053022
-0.026516
-0.0261414
0.0530162
-0.0544903
-0.031118
-0.0289556
0.0553569
-0.05933
-0.0338066
-0.0352554
-0.0385435
-0.0500669
0.0500607
0.0375047
0.0386386
-0.0492005
0.0472882
0.0345166
0.0344363
-0.0432663
0.0417679
0.0330594
0.0357778
-0.0411427
0.0408503
0.0255807
0.0297054
-0.0428688
0.0450897
0.00977347
0.0172858
-0.0490307
0.0511045
-0.00683039
-0.000780019
-0.0538753
0.0568495
-0.0182436
-0.0125302
-0.0597638
0.0631866
-0.0214746
-0.0221787
0.0642381
-0.0171101
0.0517241
-0.0374507
0.0300857
-0.0144461
0.0619534
-0.0532828
0.0125999
0.0679945
-0.0182025
0.0386323
-0.0536813
0.0433701
0.0512556
-0.0503675
0.0121702
0.0139065
0.0472616
-0.0452269
0.00236158
0.00732855
0.0429438
-0.0410942
-0.00967851
-0.00304606
0.0419347
-0.0432419
-0.0181503
-0.0135167
0.0460945
-0.0484364
-0.0216414
-0.0198239
0.0530119
-0.0533504
-0.0261775
-0.0215659
0.0562907
-0.0566563
-0.0307524
-0.0260153
0.0588214
-0.0568322
-0.0357957
-0.0330903
0.0562171
-0.0395654
-0.0391587
-0.0146622
0.0120367
0.0645789
-0.0158962
0.0692285
-0.043876
0.0462943
0.0374379
0.0372255
-0.0474564
0.0488577
0.0361034
0.0374765
-0.0473143
0.0430784
0.0387526
0.0359797
-0.0431459
0.0432503
0.0329549
0.0357103
-0.0421468
0.0429494
0.0247781
0.030809
-0.046596
0.0500439
0.00632561
0.0136392
-0.0526659
0.0560187
-0.0101832
-0.00340197
-0.0582714
0.0615265
-0.0214987
-0.0147829
-0.0620364
0.0662386
-0.0256768
-0.0226885
-0.0713527
0.0717649
-0.0186147
-0.0222242
-0.00110349
0.0477339
0.00831162
0.0674948
-0.0386773
-0.0145942
0.070463
0.0359983
-0.0402949
-0.0545914
0.0302692
-0.0479521
-0.0596266
0.0632125
-0.0403717
-0.0583796
-0.0415419
0.0586114
-0.034659
-0.0218191
0.0591799
-0.0512312
0.0248839
0.0315711
-0.0344812
-0.0323293
-0.0303561
0.0282181
0.0516295
-0.0521249
0.0130952
0.0118397
0.0504531
-0.0485414
0.0102585
0.0122347
0.0460921
-0.0442082
0.000477614
0.00487927
0.0430292
-0.0425809
-0.0101269
-0.00422499
0.0440108
-0.0453161
-0.016845
-0.0120869
0.0494604
-0.0522172
-0.0188846
-0.0156795
0.054684
-0.0564849
-0.0243766
-0.019099
0.0587215
-0.058257
-0.0312169
-0.0237787
0.06201
-0.0604897
-0.037316
-0.0293374
0.0640631
-0.0639067
-0.0397218
-0.0355852
-0.0413871
0.0705032
-0.0689208
-0.0201971
0.0731118
-0.0172028
-0.0318826
0.0375927
0.0287959
0.0194682
-0.0215508
-0.0282734
0.0293549
0.017204
-0.0270908
0.0256904
-0.0428467
0.0430976
0.037187
0.0319715
-0.048169
0.0460186
0.0382538
0.032405
-0.0446485
0.0430098
0.0403913
0.0373498
-0.0443847
0.0413498
0.0359898
0.0343354
-0.0446414
0.0470001
0.0224194
0.0275174
-0.0500952
0.0540501
0.00237064
0.0105441
-0.0564413
0.0610418
-0.0147838
-0.00579312
-0.0635764
0.0666731
-0.0245954
-0.0173175
-0.0663416
0.0680328
-0.0273681
-0.022357
-0.0231122
0.0166812
-0.017425
0.0653227
0.0623569
0.0164835
-0.0151917
0.0691711
0.068287
-0.0428894
-0.0388795
0.0294247
-0.0451366
-0.0392707
-0.0579884
-0.0112265
0.0236933
-0.0517375
-0.058035
-0.01118
-0.0471626
0.0177685
-0.0144572
0.0723773
-0.0212178
-0.0326623
0.0264595
-0.0449869
-0.0252916
0.0298811
0.0126145
0.00813035
-0.0108429
-0.0243783
-0.0237719
0.00661062
-0.0116125
-0.0275038
0.0224519
-0.0438952
0.015669
-0.0533475
-0.0203565
0.0118808
-0.0479493
-0.015026
0.00909403
-0.0474155
-0.0476323
0.0592163
-0.0266101
-0.00225585
-0.0120091
0.0521995
-0.0514981
0.0123939
0.0168765
0.0494998
-0.0469008
0.00765956
0.0102364
0.0451954
-0.0437951
-0.00092271
0.00317384
0.0434544
-0.0443645
-0.00921679
-0.00456567
0.0463105
-0.049478
-0.0136775
-0.0101408
0.0523513
-0.0544038
-0.0168321
-0.0128062
0.0568502
-0.0583817
-0.0228451
-0.0166526
0.0597708
-0.0615669
-0.0294209
-0.0223896
0.0631982
-0.064997
-0.0355172
-0.0277061
0.0677772
-0.0667526
-0.0407464
-0.032805
0.0690459
-0.070272
-0.0391456
-0.0390938
0.0754036
-0.0608375
-0.025746
-0.0364103
-0.0219777
-0.0347924
0.0384825
0.0251058
0.0207791
-0.0406616
0.0433565
0.0344921
0.0297924
-0.0438372
0.0418325
0.0402585
0.0319243
-0.0439869
0.0421258
0.0422524
0.0351954
-0.0426937
0.0432218
0.0354618
0.0337675
-0.0472165
0.0510951
0.0185408
0.0235227
-0.0547006
0.0589985
-0.00192725
0.00693856
-0.0623234
0.0656223
-0.0180827
-0.00911805
-0.0677032
0.0693417
-0.0262339
-0.0193983
-0.0701348
0.069658
-0.0268913
-0.0231502
-0.0715321
0.0737356
-0.0224006
-0.0249862
-0.0739034
0.0734564
-0.0140103
-0.0173706
0.016664
-0.018789
0.061305
0.0583459
0.0187574
-0.0177154
0.0642807
0.0623252
0.0164719
-0.0156311
0.0683303
0.0670435
0.0133837
-0.0128461
0.0729188
0.0701299
-0.0376477
-0.00230128
0.00116504
-0.00327129
0.0763008
-0.0745082
-0.0158028
0.074357
-0.0109023
-0.0142134
-0.0300614
0.0164078
-0.0389427
-0.0747455
0.0650927
-0.0169573
-0.0048449
-0.0199575
-0.00224383
-0.0240949
0.00929063
-0.041305
0.00262603
-0.0414813
-0.00850044
-0.0411709
0.0534916
-0.0518375
0.0161144
0.0131363
0.0494809
-0.0490445
0.0119575
0.0145199
0.0475116
-0.0459087
0.0060567
0.00870341
0.0449369
-0.0446395
-0.00122016
0.00220208
0.0453629
-0.0474225
-0.00715714
-0.0038423
0.0499228
-0.0530876
-0.0105127
-0.00764055
0.0553855
-0.0573441
-0.0148735
-0.0105083
0.0586218
-0.0601212
-0.0213457
-0.015375
0.0616311
-0.0636102
-0.0274418
-0.0208796
0.0654016
-0.0675987
-0.0333201
-0.0259147
0.069585
-0.0717815
-0.03855
-0.0308186
0.0750703
-0.0759864
-0.0382295
-0.035805
0.0758169
-0.0708445
-0.0307184
-0.0365797
-0.0277295
-0.0236916
0.0248006
-0.00438034
-0.0113895
0.016725
-0.0285334
0.0252098
-0.0196109
-0.0169883
-0.0107776
-0.0284678
0.0308541
0.0102282
0.00294348
-0.0344635
0.0373365
0.0222327
0.0171698
-0.03905
0.0406317
0.0329104
0.0280789
-0.0411416
0.0412791
0.0401209
0.0314145
-0.0415933
0.0427401
0.0411056
0.0348812
-0.0446667
0.0480704
0.032058
0.0318409
-0.0516276
0.0562775
0.0138909
0.0199655
-0.0602158
0.0645465
-0.00625795
0.00300025
-0.0675964
0.0703254
-0.0208117
-0.0121679
-0.0718187
0.0727183
-0.0271335
-0.0208916
-0.0738819
0.0722101
-0.0252196
-0.0243138
-0.0717834
0.0722616
-0.0228788
-0.0245595
-0.0196171
-0.0184454
0.0184155
0.0547292
0.0171217
-0.0161446
0.0603278
0.0570222
0.0156303
-0.0167468
0.0653973
0.0618109
0.0157378
-0.0148559
0.0674484
0.0660345
0.0140001
-0.0118544
0.0707731
0.0692741
-0.00875963
0.0712621
-0.0354533
0.0430391
-0.0587458
0.0398537
-0.00360533
0.06506
0.0253097
-0.0403137
-0.00460696
-0.0528111
0.0132025
-0.0038961
-0.0284091
0.00686482
-0.0365169
0.00977432
-0.0227116
-0.000254949
-0.038424
-0.0719952
0.0111875
0.070429
-0.00962134
0.0190627
-0.0240455
-0.00759361
-0.0423881
0.0220016
-0.0252253
-0.0145924
-0.0561234
0.0320644
0.00418403
-0.0811816
0.000426738
0.0537744
-0.0504431
0.0127831
0.0140996
0.049379
-0.0478456
0.0104241
0.0134559
0.046949
-0.0462921
0.00539984
0.00780675
0.0462596
-0.0471672
-0.00031255
0.00216958
0.0487866
-0.0514291
-0.00451468
-0.00222292
0.0538244
-0.0562581
-0.00807904
-0.00524521
0.0577649
-0.0590756
-0.0135628
-0.00900145
0.0601568
-0.0616748
-0.0198277
-0.0142939
0.0632016
-0.065182
-0.0254614
-0.0193528
0.0670348
-0.0694609
-0.030894
-0.024062
0.0717558
-0.0745946
-0.0357112
-0.0285237
0.0783173
-0.0780133
-0.0385335
-0.0320824
0.0819009
-0.0766644
-0.0359549
-0.0326921
0.078463
-0.0760932
-0.0193271
-0.0259309
0.0658878
-0.0727453
-0.0104496
-0.0150503
-0.0329234
0.030855
-0.01492
-0.0554616
-0.0177754
-0.0276825
0.026889
-0.00358684
-0.00760508
-0.0283132
0.0307113
0.00783006
0.00151931
-0.032917
0.0332942
0.0218555
0.0149641
-0.0379905
0.0384048
0.0324961
0.0233826
-0.0394337
0.0407588
0.0387958
0.0303856
-0.0423822
0.0452422
0.0382455
0.0332578
-0.0484552
0.0530755
0.0274377
0.028628
-0.0573168
0.062414
0.00879362
0.0157242
-0.0663935
0.0703935
-0.010258
-0.000979218
-0.0729126
0.0748204
-0.0227195
-0.0146869
-0.0755786
0.0756528
-0.0272077
-0.0216498
-0.0742116
0.0755159
-0.0265239
-0.0228726
-0.0721247
0.0719333
-0.0226874
-0.0211683
-0.0725697
0.0763451
-0.0195783
-0.0202535
-0.0157387
0.00123952
-0.0112756
-0.0583889
-0.0689929
-0.00251291
0.0143341
-0.0163512
0.0567464
-0.031694
0.0138578
0.0499005
0.0477001
0.0163966
-0.0157873
0.0597186
0.0570675
0.0162892
-0.0160871
0.0651951
0.0623128
0.0144359
-0.0145758
0.0675883
0.0643833
0.0138253
-0.0121291
0.0690769
0.0685236
0.0703206
-0.0324846
0.00642379
-0.0250586
-0.00314682
-0.033625
-0.0117756
0.0123444
0.0698602
-0.0705445
-0.00564576
0.076617
-0.0147949
0.070015
-0.0669957
0.018619
-0.0222679
-0.0104337
-0.0355839
0.0245406
-0.0265845
-0.0176579
-0.0393226
0.0198811
-0.0497134
-0.021465
-0.045934
-0.0177595
0.017894
-0.0555962
-0.0140888
0.0106966
-0.0656007
-0.0217047
-0.050773
-0.0473853
0.01
-0.0147209
0.0511652
-0.0209906
0.0164166
-0.052715
0.057289
0.0516671
-0.0513729
0.0129083
0.00846587
0.0514534
-0.0510661
0.0123958
0.01418
0.0489226
-0.0490919
0.0105933
0.0113124
0.0483433
-0.0487147
0.00577116
0.00705824
0.0495491
-0.0512822
0.00142052
0.00300404
0.0531774
-0.055507
-0.00218507
-0.000327751
0.0571865
-0.0586312
-0.00663441
-0.00356564
0.059524
-0.0605256
-0.0125612
-0.00810859
0.0615697
-0.0630809
-0.0183165
-0.0132498
0.0645646
-0.0665028
-0.0235231
-0.0178691
0.0683538
-0.0707865
-0.0284613
-0.022211
0.0730808
-0.07599
-0.032802
-0.0262295
0.0786503
-0.0816872
-0.0354967
-0.029422
0.0840733
-0.0860164
-0.0340119
-0.030306
0.0858561
-0.0828223
-0.0223609
-0.0260912
0.0793872
-0.0789944
-0.0108423
-0.0184853
0.0790045
-0.0743945
0.00608656
-0.00250282
0.01401
-0.0224206
-0.0571902
0.0831314
-0.0146288
-0.051445
-0.0170575
0.0227469
-0.0470295
0.039029
-0.00691945
0.0545099
-0.0588859
-0.0133835
-0.0102951
-0.0355759
0.0329619
-0.000972902
-0.00415195
-0.0314949
0.031339
0.00798597
0.00298634
-0.033415
0.0346099
0.0206607
0.012888
-0.0361843
0.0381044
0.030576
0.0218082
-0.03993
0.0425976
0.0361282
0.0285599
-0.0454856
0.0497904
0.0339408
0.0303699
-0.0539904
0.0594303
0.0219978
0.0244279
-0.0640407
0.0691765
0.00365783
0.0111138
-0.072857
0.0761545
-0.0135555
-0.00465965
-0.0778995
0.0788087
-0.0236287
-0.016432
-0.0787643
0.0780224
-0.0264659
-0.0216054
-0.07706
0.0757047
-0.0251687
-0.0219101
-0.0745252
0.0741808
-0.022343
-0.0199887
-0.0720911
0.070571
-0.0180582
-0.0181638
-0.0157122
0.0197587
-0.0157654
0.0527531
0.0527379
0.015684
-0.0168084
0.060843
0.0569861
0.0154205
-0.014928
0.0647026
0.0609249
0.014542
-0.0141641
0.0672104
0.0639973
0.0130129
-0.0119056
0.0679695
0.0673724
0.0707595
-0.0292077
-0.0527707
0.0104407
0.0731443
-0.0701917
-0.00859844
0.0693318
-0.0109823
0.0167472
-0.0231869
-0.0139233
-0.0301354
0.0262036
-0.0239309
-0.0211374
-0.0321045
0.0280998
-0.0348032
-0.026531
-0.0342567
0.0202297
-0.052049
0.0200655
-0.0615778
-0.0173736
0.0244674
-0.0599981
-0.0304557
-0.037183
-0.0325961
-0.0405975
-0.0288967
-0.0429223
-0.0278066
-0.044629
-0.0576436
0.0764641
0.0214111
-0.0402315
-0.0609825
0.0197555
-0.0236155
0.0194503
-0.0485498
0.0552973
-0.054202
0.011813
0.0109924
0.0533189
-0.0529835
0.0120604
0.0132969
0.0522755
-0.0520376
0.0103553
0.0106044
0.0522571
-0.053132
0.00664606
0.00727774
0.0542904
-0.0559808
0.00311089
0.00416252
0.0574132
-0.0588083
-0.000789964
0.00110466
0.0596551
-0.0603764
-0.00591313
-0.00271889
0.0609727
-0.061882
-0.0116519
-0.00751227
0.0629052
-0.0643641
-0.0168575
-0.0122266
0.0658002
-0.0677271
-0.0215962
-0.016433
0.069609
-0.0721161
-0.0259542
-0.020329
0.0745084
-0.0775908
-0.0297195
-0.0238372
0.0804014
-0.0837689
-0.0321292
-0.0266115
0.0865143
-0.089198
-0.0313282
-0.0275606
0.0905737
-0.0883194
-0.0246152
-0.0247155
0.09016
-0.0891844
-0.0118179
-0.0166447
0.0868504
-0.0861711
0.00540726
-0.0048368
0.0130399
-0.0606089
0.0577049
-0.0104795
-0.02177
0.0249124
-0.0647202
0.0638499
-0.0664039
-0.019216
-0.0141326
-0.0537656
0.0489809
-0.00213473
-0.00635584
-0.044452
0.040164
0.00331504
0.000377014
-0.037484
0.0353386
0.0101313
0.00566638
-0.0358889
0.0369486
0.019601
0.0123377
-0.0384533
0.0408284
0.0282009
0.0203035
-0.0433671
0.0471466
0.0323487
0.0260213
-0.0509824
0.0562555
0.0286676
0.026534
-0.061033
0.0668192
0.0162116
0.0196505
-0.071388
0.0761038
-0.00105793
0.00654491
-0.0791064
0.0813504
-0.0157995
-0.00766227
-0.0821413
0.0819733
-0.0234606
-0.0172229
-0.0811697
0.0797275
-0.0250237
-0.0208018
-0.0783313
0.0766305
-0.0234678
-0.020514
-0.0752646
0.0737691
-0.0208475
-0.0186229
-0.073135
0.0708576
-0.0157808
-0.0175297
-0.0150463
0.00845904
-0.012308
0.0550142
-0.00432971
0.00309815
0.0590217
0.058375
0.0151974
-0.0166259
0.0541817
0.0556272
0.0163387
-0.0155774
0.0600817
0.0566989
0.0146982
-0.0138914
0.0638958
0.0600457
0.0132754
-0.0127771
0.0667121
0.0633813
0.0120247
-0.0112457
0.0671905
0.06662
0.0104681
-0.0101455
0.0695377
0.0699818
0.00952855
0.0697807
-0.00997747
0.069398
-0.0263837
0.0263235
-0.0233067
-0.0243709
-0.0269019
0.0322039
-0.028035
-0.0312109
-0.0274246
-0.00725644
0.00799985
0.0690373
0.0700637
-0.0716604
-0.00838079
0.0692639
-0.00645666
0.0297708
-0.0443443
0.0257869
-0.0533686
0.0263636
-0.0614493
0.0257017
-0.0691
-0.0230056
0.028369
-0.0673875
-0.028486
-0.0362264
-0.0394565
-0.0303226
-0.0383091
-0.031185
-0.036379
-0.0343499
-0.0312182
-0.0370264
0.0612209
-0.0635178
0.00539502
-0.0595448
0.0180126
0.0189369
-0.0266608
-0.0408259
0.0195182
-0.0601261
-0.00237578
-0.00284242
0.0642399
0.062895
-0.00404988
0.0632866
-0.0607011
0.00785512
0.00476241
0.0592225
-0.0587758
0.0113662
0.00951392
0.0574554
-0.0579708
0.0125758
0.0119765
0.0571983
-0.0571708
0.0103278
0.0098319
0.0575014
-0.0582796
0.0074243
0.00760831
0.0590754
-0.0600046
0.00404007
0.00495836
0.0606198
-0.0611077
-0.00030209
0.00171981
0.0613853
-0.0617448
-0.00555358
-0.00244128
0.0622242
-0.0630649
-0.0108112
-0.0070329
0.064008
-0.065345
-0.0155205
-0.0112835
0.0666788
-0.0684929
-0.0197821
-0.0150992
0.0702752
-0.07266
-0.0235694
-0.0185467
0.0749622
-0.0779807
-0.026701
-0.021535
0.0808041
-0.0843121
-0.0286211
-0.0237881
0.0873172
-0.0905761
-0.0280693
-0.0245555
0.0928731
-0.0943081
-0.0231802
-0.0224185
0.0949598
-0.0942573
-0.0125204
-0.015993
0.0933297
-0.0886644
0.000742007
-0.0057644
0.0831143
-0.0750852
0.013382
0.00748978
0.0710989
-0.068651
0.0155647
0.0157692
-0.0680731
0.0648181
-0.015961
-0.0245585
0.0290261
-0.0735676
0.0705613
-0.0734382
-0.0216815
-0.0205175
-0.0616507
0.0598621
-0.0086909
-0.0109652
-0.0578495
0.0557395
-2.47589e-05
-0.00434323
-0.052594
0.0487456
0.00716346
0.00352252
-0.046192
0.0437409
0.0125824
0.00821997
-0.0428453
0.0431327
0.0193136
0.0132333
-0.0443781
0.046923
0.025656
0.0190581
-0.0498622
0.0542701
0.0279408
0.0230821
-0.0585906
0.0642552
0.023003
0.0222136
-0.0691293
0.0746867
0.0106543
0.0147764
-0.0787625
0.0825143
-0.00480975
0.0024691
-0.0845079
0.0854671
-0.0167587
-0.00965584
-0.0852573
0.0841047
-0.022308
-0.0170131
-0.0826849
0.0807358
-0.0230746
-0.019382
-0.0790741
0.0771701
-0.0215638
-0.0188523
-0.0764241
0.0736271
-0.0180505
-0.0178768
-0.0723438
0.0712377
-0.0146746
-0.0162465
-0.0703021
0.0724843
-0.0107806
-0.0141107
-0.0101584
0.00633792
-0.00951113
0.0581874
0.0618705
0.013214
-0.0157177
0.0566853
0.0593301
0.0157491
-0.0150898
0.0594224
0.0567303
0.0141001
-0.0130379
0.0628336
0.059056
0.0121587
-0.0114673
0.0660208
0.0625021
0.0107501
-0.00970092
0.0661413
0.0659028
0.00872701
-0.00736536
0.068176
0.0690079
0.0700325
-0.0244312
-0.0646939
0.015561
0.00542383
-0.0250811
-0.0404689
-0.0529921
-0.00627802
0.0343185
-0.0254213
-0.0336626
-0.0244502
-0.0057609
0.00663936
0.0681588
-0.00400366
0.0675067
0.0360347
-0.0342988
0.0300897
-0.0486471
0.0295809
-0.0565859
0.0313947
-0.064475
0.0320461
-0.0704074
0.0274001
-0.077007
-0.0238314
0.030255
-0.0764225
-0.0243719
-0.0435707
-0.0441938
-0.0244379
-0.0421526
-0.0254114
-0.0373507
-0.0282174
-0.0316481
-0.0320391
-0.0266651
-0.0392419
-0.0105807
0.00201616
0.0728044
-0.0266009
0.0789152
0.0707542
-0.0701555
0.00479629
-0.0708252
0.0700186
-0.00565006
-0.0723698
-0.00683615
0.0545424
0.0121619
-0.0395646
-0.0240864
0.0690691
-0.0682742
0.00706023
0.00367604
0.0666981
-0.0661181
0.0107862
0.00793784
0.0644189
-0.0633783
0.0115352
0.0102773
0.0628231
-0.0625408
0.0100455
0.00927671
0.0625112
-0.0626374
0.00755056
0.0075787
0.0627413
-0.0627931
0.00409186
0.00506218
0.0627449
-0.0626686
-0.000378395
0.00167169
0.0626788
-0.0629031
-0.00532931
-0.00243108
0.0633281
-0.0640963
-0.010043
-0.0066079
0.0649577
-0.066194
-0.0142843
-0.010422
0.067444
-0.0691535
-0.0180726
-0.0138493
0.07083
-0.0730667
-0.0213327
-0.0168702
0.0752208
-0.0780453
-0.0238765
-0.019381
0.080705
-0.0840691
-0.025257
-0.0211284
0.0870587
-0.0905136
-0.0246145
-0.0215658
0.0931626
-0.0956067
-0.0207361
-0.0197696
0.0969299
-0.0968304
-0.0126199
-0.0146699
0.0962475
-0.0937571
-0.00174839
-0.00634731
0.0897642
-0.0853489
0.00896664
0.0034969
0.081673
-0.0797922
0.0136839
0.0120934
-0.0283564
-0.0651045
0.0735966
-0.0864922
0.00661753
0.00936541
-0.0740332
0.0711289
-0.0187773
-0.0256262
0.0296642
-0.081045
0.0767812
-0.0804189
-0.0219884
-0.0210834
-0.0673302
0.0638572
-0.012488
-0.0167187
-0.0632283
0.061378
-0.00684056
-0.0103363
-0.0597295
0.0590957
0.000609033
-0.00269477
-0.0582168
0.0568125
0.00856775
0.00440147
-0.0552813
0.0535386
0.0143251
0.00975115
-0.0526398
0.0526348
0.0193186
0.0141321
-0.0536342
0.0560425
0.0232477
0.0180587
-0.0589761
0.0634094
0.0235074
0.0201485
-0.0676671
0.0730583
0.0176118
0.0179559
-0.0774757
0.0821522
0.00597778
0.0103589
-0.0852646
0.0876241
-0.0071692
-0.000643282
-0.0884243
0.0881006
-0.016435
-0.0104561
-0.0870312
0.085153
-0.0204298
-0.0159437
-0.0833442
0.0811326
-0.0208631
-0.0175731
-0.0793588
0.0774048
-0.0196098
-0.0170784
-0.0752052
0.0748493
-0.0176947
-0.0156772
-0.0736224
0.0719752
-0.0130275
-0.0150195
-0.0714695
0.0722459
-0.0115571
-0.013605
-0.0102823
0.00364073
-0.00882606
0.0633728
0.0675273
0.0116899
-0.0134848
0.0584802
0.062194
0.0147105
-0.0143947
0.0591066
0.057956
0.0135129
-0.0123447
0.0616655
0.0581742
0.0112438
-0.0103183
0.0650953
0.0614011
0.00869555
-0.00993296
0.0673787
0.0642801
0.00827274
-0.00756372
0.067467
0.0673477
0.0691082
-0.0237753
-0.000495247
0.0665102
0.0394611
-0.0288477
0.036484
-0.0406931
0.0328217
-0.0518879
0.033636
-0.0588272
0.0342598
-0.0666887
0.0344843
-0.0746367
-0.0213432
-0.0472224
-0.0461738
-0.0204166
-0.0422952
-0.0204669
-0.0363826
-0.0234829
0.0328988
-0.0796572
0.0263859
-0.0839748
-0.02283
0.0323976
-0.0870567
-0.0291162
-0.029588
-0.0236208
-0.0439774
-0.0198076
-0.0784283
0.0117437
-0.0617552
-0.0406497
-0.0233651
-0.0201079
-0.0648042
-0.0451336
-0.0225235
-0.00453722
0.0540455
-0.000171683
-0.0493366
0.0746367
-0.0744672
0.00462673
0.0250435
0.0742716
-0.0730361
0.00582474
0.00348045
0.0720952
-0.0711076
0.00979862
0.00699699
0.0694705
-0.068246
0.0103108
0.0086401
0.0674142
-0.0666499
0.00928126
0.00844482
0.0661009
-0.0655298
0.00697947
0.00702965
0.0650526
-0.0645188
0.0035581
0.00458499
0.0641199
-0.063806
-0.000692288
0.00127278
0.0637297
-0.0639088
-0.00515027
-0.00250735
0.0642908
-0.0649881
-0.00934574
-0.00622584
0.0657763
-0.0669207
-0.0131399
-0.00963383
0.0680838
-0.0696713
-0.0164851
-0.0126862
0.0712198
-0.0732716
-0.0192809
-0.0153217
0.0752307
-0.0777768
-0.0213304
-0.0174218
0.0801581
-0.0831646
-0.0222506
-0.0187471
0.0858614
-0.0890541
-0.0214217
-0.018869
0.0916545
-0.094342
-0.0180485
-0.0171692
0.096053
-0.0971068
-0.011566
-0.0129589
0.0971851
-0.0960729
-0.00286057
-0.00626909
0.0939656
-0.0906363
0.00563735
0.00138961
0.087021
-0.0834916
0.0101545
0.00847804
0.0844009
-0.0876541
0.0098707
0.0102748
0.0111782
-0.0125508
-0.0770556
0.0845326
-0.0819759
0.00862143
0.00862226
-0.0806597
0.0765512
-0.01788
-0.0237431
0.0288006
-0.0890324
0.083861
-0.0865392
-0.021065
-0.0196286
-0.0738867
0.0714987
-0.0163893
-0.0184189
-0.0671295
0.0663318
-0.0116903
-0.0123495
-0.0634792
0.0624997
-0.00586104
-0.00748372
-0.0619086
0.0614387
0.00107898
-0.00210367
-0.0618223
0.0619851
0.00840497
0.00401786
-0.0619923
0.0619113
0.0144061
0.00974392
-0.0620029
0.0626553
0.0186662
0.0140405
-0.0638642
0.0662431
0.0208688
0.0168499
-0.0689844
0.0729956
0.0194962
0.0174071
-0.076724
0.0812331
0.0131027
0.0142275
-0.0847031
0.0880201
0.00266078
0.00688898
-0.0898612
0.0907276
-0.0080356
-0.00248437
-0.090438
0.089127
-0.015124
-0.0101666
-0.0875077
0.0852608
-0.0181829
-0.0143245
-0.0833116
0.08106
-0.0186115
-0.0156239
-0.0792995
0.077388
-0.0176983
-0.015318
-0.0759579
0.0744325
-0.0161693
-0.0142471
-0.0722387
0.0735695
-0.0143583
-0.0128257
-0.0716072
0.070916
-0.0108658
-0.0116427
-0.0717304
0.0714393
-0.00654498
-0.0110968
-0.0703608
0.0630093
0.00685631
-0.00457163
-0.0074408
0.00193501
0.0783102
0.0862313
0.00340146
-0.00793317
0.0679045
0.0728638
0.00916469
-0.0129392
0.0622546
0.0634255
0.0131698
-0.0133244
0.0592611
0.0581867
0.012757
-0.0116919
0.0606004
0.0576068
0.0104933
-0.00935579
0.0639578
0.0602026
0.00850536
-0.00790301
0.0667764
0.0634296
0.0060246
-0.00680674
0.0682491
0.0654693
0.00570217
-0.00502898
0.0674856
0.0680036
0.00416199
0.000372398
0.0619758
0.0666397
0.0588444
-0.0249639
0.0414322
-0.0337959
0.0365571
-0.0444286
0.0349379
-0.0531898
0.0364917
-0.0610591
0.0362092
-0.0684136
-0.0194512
-0.0480659
-0.045575
-0.0171368
-0.0400783
-0.0167712
0.0350299
-0.0767677
0.0333714
-0.080631
0.0302028
-0.0884589
-0.0325829
-0.0200162
-0.0244613
-0.0287475
-0.0176422
-0.0464432
0.0237293
-0.0901205
-0.020148
0.0241966
-0.0894997
-0.0132192
-0.0641358
-0.00885686
-0.0811744
0.00805541
-0.0116265
-0.074286
0.0257231
-0.0533367
0.0782238
-0.0506102
-0.0856239
-0.00132097
0.0838386
-0.0934247
2.56473e-05
0.011461
0.0683077
-0.0445438
-0.0239548
-0.0509255
-0.00258287
-0.0476485
-0.0220974
0.0775634
-0.0769481
0.00401145
0.00918223
0.0766395
-0.076634
0.00581928
0.00317185
0.0755198
-0.0739467
0.00822555
0.00588272
0.072703
-0.07131
0.00891776
0.00739643
0.0702298
-0.069062
0.00811341
0.00736466
0.0681398
-0.0671381
0.0059777
0.00610748
0.0663611
-0.0655812
0.00277819
0.00380806
0.0650706
-0.0647079
-0.00105494
0.000762151
0.0646182
-0.0647767
-0.0049918
-0.00259705
0.0651235
-0.0657589
-0.00871032
-0.0058791
0.0664837
-0.0675424
-0.0120812
-0.00890903
0.0686199
-0.0700881
-0.0150169
-0.0116086
0.0715148
-0.0733946
-0.0174011
-0.013895
0.0751751
-0.077466
-0.0190396
-0.0156414
0.0795838
-0.082228
-0.0196063
-0.0166293
0.0845794
-0.0873605
-0.0186406
-0.0165177
0.0896565
-0.0920892
-0.0156159
-0.0148732
0.0937622
-0.0950678
-0.0102603
-0.0112859
0.0954879
-0.0951625
-0.00318594
-0.00584907
0.0941721
-0.09238
0.00384522
0.000399261
0.0899181
-0.0880271
0.00826348
0.00601618
0.0872
-0.0884636
0.0111344
0.00944767
0.0865294
-0.0848912
0.00698329
0.00668797
0.00784144
-0.0095275
-0.0794884
0.0835714
-0.0812537
0.00552371
0.0067356
-0.0840988
0.0807005
-0.0176668
-0.0204086
0.0211179
-0.0908298
0.0886218
-0.0917894
-0.0172411
-0.015625
-0.0780752
0.075666
-0.0154708
-0.0170032
-0.0713235
0.06858
-0.0136458
-0.0140764
-0.0670734
0.0655496
-0.0101665
-0.0108429
-0.0645835
0.063797
-0.00507457
-0.00651756
-0.0635195
0.0636314
0.000967056
-0.00182615
-0.0641375
0.0650887
0.00745376
0.00351173
-0.0660457
0.0672959
0.013156
0.00878692
-0.068466
0.0701367
0.0169955
0.0128703
-0.0718866
0.0744938
0.0182617
0.0151
-0.0771012
0.0805844
0.0160131
0.0147997
-0.0836045
0.0869851
0.00972211
0.0112074
-0.0893327
0.0912339
0.00075962
0.00454134
-0.0919024
0.0916073
-0.00774042
-0.00315291
-0.0906126
0.0887991
-0.0133104
-0.00917195
-0.0869883
0.0847023
-0.0158969
-0.0125138
-0.0828089
0.0806688
-0.0164714
-0.0137304
-0.0790106
0.0772155
-0.0159032
-0.0136598
-0.0758574
0.0744104
-0.0147223
-0.012889
-0.0733334
0.072191
-0.0132159
-0.0117487
-0.0714592
0.071389
-0.0107956
-0.0109109
-0.0693034
0.0705753
-0.00781682
-0.0090112
-0.0700864
0.0847205
-0.0077778
-0.00408278
-0.0155416
-0.00340323
-0.000455467
0.0821689
0.0843035
0.00117143
-0.00520893
0.071942
0.0735798
0.0075595
-0.0096544
0.0643495
0.0657761
0.0110816
-0.0117684
0.0599479
0.0596139
0.0116636
-0.0109082
0.0598449
0.0575021
0.00979556
-0.00855542
0.0627176
0.05909
0.00752097
-0.00674696
0.0660024
0.0623952
0.00626807
-0.00596108
0.0679421
0.0649904
0.00529032
-0.00471782
0.0669131
0.0673328
0.00591131
-0.00659915
0.0626636
0.0678332
0.0637063
-0.0280755
0.0413746
-0.0386134
0.037861
-0.0473517
0.0383126
-0.0550107
0.0381294
-0.0629793
-0.0183701
-0.0466561
-0.0427436
-0.0144716
0.0372315
-0.0706152
0.0350961
-0.0784924
0.0327928
-0.0832209
-0.035882
-0.0134722
-0.0270653
-0.0174122
-0.01854
-0.0278496
0.0262538
-0.0905161
-0.0130218
-0.0466407
0.0242958
-0.0926776
-0.0105193
-0.0652429
0.0157384
-0.0913788
-0.016149
0.0192331
-0.0943244
-0.00961127
-0.0742023
-0.00656082
-0.0795384
0.0048455
-0.00662501
-0.0794242
0.0149987
0.0727671
-0.00954196
-0.0868913
0.0825349
0.00303546
-0.0859501
-0.000915619
0.0117753
0.071531
-0.0454651
-0.0261382
-0.00019015
0.000642038
0.0833867
0.000282014
0.0838736
-0.0639525
0.0107594
-0.0473867
-0.0227766
0.0802871
-0.078272
0.00199632
0.00351925
0.0784515
-0.0775395
0.00490728
0.0033514
0.0767286
-0.0753179
0.00681478
0.00507183
0.0741097
-0.0726671
0.00747517
0.00618825
0.0714831
-0.0701436
0.00677382
0.00618071
0.0690792
-0.0679386
0.0048371
0.0050431
0.0670939
-0.0662874
0.0019717
0.00296335
0.0657898
-0.065449
-0.00139568
0.000264539
0.0653705
-0.0655161
-0.00484619
-0.00267558
0.0658306
-0.066409
-0.00813189
-0.00556458
0.0670714
-0.0680404
-0.0111123
-0.00824667
0.0690253
-0.0703639
-0.0136783
-0.0106236
0.0716594
-0.0733564