/*--------------------------------*- C++ -*----------------------------------*\
  =========                 |
  \\      /  F ield         | OpenFOAM: The Open Source CFD Toolbox
   \\    /   O peration     | Website:  https://openfoam.org
    \\  /    A nd           | Version:  10
     \\/     M anipulation  |
\*---------------------------------------------------------------------------*/
FoamFile
{
    format      ascii;
    class       volScalarField;
    location    "97.5";
    object      p;
}
// * * * * * * * * * * * * * * * * * * * * * * * * * * * * * * * * * * * * * //

dimensions      [0 2 -2 0 0 0 0];

internalField   nonuniform List<scalar> 
28942
(
-0.00371444
-0.00308936
0.00208275
0.00953707
0.00983695
7.00174e-05
0.000247046
1.3876e-05
0.0027619
0.00284974
-0.00225811
-0.0025267
-0.00290894
-0.0028265
0.000165353
0.000446188
0.00992898
0.010199
0.00563336
0.00719312
0.00820087
0.00819248
-0.00516135
-0.00498696
-0.00351586
-0.00373992
0.0139274
0.0138765
0.00358721
0.00352981
1.03905e-05
4.24163e-05
0.00067333
0.000269535
0.00719174
0.00839737
0.0109352
0.0128935
-1.57928e-05
0.015088
0.00913708
0.0116351
0.00177819
0.00168863
0.00175268
0.000250816
0.000126063
0.0001989
0.000230445
0.000322913
0.000629164
0.00283182
0.00290317
0.00289467
0.0030495
-0.00228764
-0.00098604
-0.00331535
-0.00316118
-0.00343161
-0.00350477
-0.00350543
-0.00340361
-5.33519e-05
-0.0017519
-0.000300223
0.00102942
0.00947312
0.00897678
-0.00330681
-0.00351629
-0.00325168
0.00903922
0.00889064
0.0091831
-0.00142035
-0.00103294
-0.000695321
0.00241607
0.00281533
0.0019073
0.000813465
-0.00625341
-0.00748075
0.00113499
0.00385961
0.00490074
0.00568775
0.00407274
0.00419515
0.0061616
0.00554104
-0.00134265
-0.00163158
-0.00190895
-0.00174848
-0.00157519
0.00538294
0.00667356
-0.00779211
0.0113343
0.0105352
0.00582917
0.00942593
0.000950128
0.000855478
0.000767199
0.0055204
0.00571315
0.00570727
-0.00315913
-0.00307995
-0.00307194
-0.00255566
-0.00267903
0.0158805
0.0138761
0.0133173
0.014948
0.00169474
0.00477301
0.00347188
0.00512564
0.00480255
0.0155537
0.0158486
0.0145073
0.00596688
0.00704558
0.00016168
0.000253193
8.79314e-05
0.0105502
0.0110528
0.00771445
0.00736652
0.0128237
0.00675142
0.00804124
0.00910021
-0.00184709
-0.00235443
0.00741083
0.00169559
0.0017848
-0.0011125
-0.0013746
-0.000918293
-0.00245387
0.00664301
0.00577051
0.00376526
0.000233936
0.000183462
6.65694e-05
0.000184555
0.00757923
0.00684259
-0.00180712
-0.00192416
-0.00181925
-0.00407937
-0.00362546
4.89912e-05
-0.00279042
-0.000438594
0.00844306
0.00855205
0.00964615
0.00918144
0.00775922
0.00312593
0.00304322
0.00330107
0.00317675
0.00508998
0.00486786
0.00520304
0.00542352
0.00536163
0.00543299
0.00564422
0.00619835
0.00589234
0.00549041
0.00582055
0.00652619
0.00728014
0.00757205
-0.000525057
-0.000505731
-0.00241473
0.000184877
4.3518e-05
-0.00193771
-0.00202592
0.000251159
0.0003121
0.000278042
0.000213163
0.00178016
0.00173084
0.00171352
-0.00285792
-0.00304431
-0.00270936
-0.00427489
-0.00475625
-0.00406887
-0.00465532
-0.00641928
-0.0051189
0.0160743
0.0167844
0.0165518
0.000982768
0.0011275
0.00101661
0.0104009
0.009973
0.0100533
0.00141113
0.00139478
0.00142771
0.00137795
0.00136208
0.00134563
0.00134588
0.00132891
0.00132923
0.00136251
0.00137862
0.00139481
0.00141132
0.00142848
0.00131279
0.00131219
0.00144384
0.00144412
0.0014592
0.00129634
0.00129567
0.00145996
0.00127948
0.00126278
0.00127945
0.0012631
0.00147697
0.00147734
0.00124626
0.00124663
0.001493
0.00149359
0.00122976
0.0012302
0.00150911
0.00150974
0.00121335
0.00121375
0.00152519
0.0015259
0.00119692
0.00119736
0.00154123
0.00154197
0.00118055
0.00118094
0.00155735
0.00155809
0.00116412
0.00116458
0.0015738
0.00157433
0.0011477
0.00114798
0.00158931
0.00159005
0.00113114
0.00113119
0.00160627
0.00160657
0.00111426
0.00111416
0.00162161
0.00162186
0.00109633
0.00109704
0.00163773
0.00163771
0.00107929
0.00108016
0.0016209
0.00163705
0.0016539
0.0016537
0.00158742
0.00160501
0.00155532
0.00157194
0.00152394
0.00153975
0.0014918
0.00150794
0.00145861
0.00147556
0.00142638
0.00144396
0.00139434
0.00141086
0.0013612
0.0013765
0.00132722
0.00134445
0.00129457
0.00131096
0.0012617
0.00127817
0.00122884
0.00124529
0.00119605
0.00121246
0.00116333
0.00117972
0.00113069
0.00114702
0.00109666
0.00111431
0.00107951
0.00106225
0.00106273
0.00111426
0.00107985
0.00109675
0.00114789
0.00113085
0.0011806
0.00116437
0.00121335
0.00119698
0.00124623
0.0012298
0.00127919
0.00126273
0.001312
0.00129567
0.00134521
0.00132888
0.00137873
0.00136209
0.0014107
0.0013945
0.00144412
0.00142865
0.00147709
0.00146017
0.00150945
0.00149333
0.00154155
0.00152559
0.00157348
0.00155747
0.00160551
0.00158915
0.00163653
0.00162122
0.00165254
0.0016538
0.001062
0.00106281
0.00166906
0.00166753
0.00167021
0.0016696
0.00161933
0.00165254
0.00163562
0.00158594
0.00160306
0.00155414
0.00156969
0.00152253
0.00153844
0.00149034
0.00150649
0.00145776
0.00147411
0.00142469
0.00144167
0.00139236
0.00140951
0.00136036
0.00137523
0.0013262
0.00134334
0.00129338
0.00130978
0.00126055
0.00127698
0.00122774
0.00124415
0.001195
0.00121137
0.00116238
0.00117869
0.00113
0.00114615
0.00109634
0.00111339
0.001045
0.00104522
0.00106144
0.00107883
0.00107916
0.0010626
0.00104534
0.00104529
0.00111422
0.00109622
0.00114724
0.0011303
0.00117969
0.00116345
0.00121242
0.00119605
0.00124529
0.00122886
0.00127827
0.00126178
0.00131132
0.00129482
0.00134433
0.00132787
0.00137765
0.00136086
0.00141007
0.00139375
0.00144297
0.00142734
0.00147594
0.00145954
0.0015084
0.00149223
0.00154056
0.00152454
0.00157237
0.00155653
0.00160378
0.00158814
0.00163475
0.00161925
0.00166483
0.00165024
0.00166907
0.00168298
0.00168046
0.00168382
0.0010446
0.00104497
0.00168486
0.0016838
0.00169818
0.00169618
0.0016848
0.00106137
0.00104351
0.00102802
0.00102754
0.00168272
0.00170041
0.00172535
0.00170552
0.00165015
0.00166685
0.00161678
0.00163315
0.00158393
0.00160089
0.0015522
0.00156758
0.00152061
0.00153654
0.00148846
0.00150459
0.00145596
0.00147226
0.00142328
0.00143967
0.00139062
0.00140709
0.00135791
0.0013741
0.00132483
0.00134148
0.00129188
0.00130833
0.00125903
0.00127546
0.00122625
0.00124264
0.00119357
0.00120991
0.00116102
0.00117728
0.00112876
0.00114484
0.00109543
0.00111213
0.00107822
0.00102822
0.00102762
0.00102788
0.00102833
0.00107881
0.00104419
0.00106201
0.00111343
0.00109597
0.00114585
0.00112927
0.00117833
0.00116207
0.00121104
0.00119468
0.00124388
0.00122746
0.00127682
0.00126035
0.00130985
0.00129334
0.00134289
0.00132638
0.00137588
0.00135943
0.00140879
0.00139232
0.00144156
0.00142531
0.00147429
0.00145797
0.00150674
0.00149057
0.00153887
0.00152286
0.00157062
0.00155482
0.0016018
0.00158633
0.0016323
0.00161708
0.00166237
0.00164736
0.00169287
0.00167696
0.0017102
0.00170744
0.0016999
0.00169864
0.00102666
0.0010273
0.00171246
0.00171255
0.00171824
0.00172171
0.00172374
0.00165219
0.00172735
0.00170011
0.00170876
0.00170647
0.00168242
0.00170051
0.0016461
0.00166414
0.00161354
0.00162926
0.00158136
0.0015981
0.00154988
0.00156553
0.00151813
0.00153408
0.00148601
0.00150212
0.0014536
0.00146985
0.00142103
0.00143735
0.00138836
0.00140472
0.00135557
0.00137196
0.0013227
0.00133919
0.00128982
0.00130626
0.00125702
0.00127343
0.0012243
0.00124066
0.00119167
0.00120798
0.00115918
0.00117542
0.00112698
0.00114304
0.00109413
0.0011105
0.0010606
0.00107723
0.00102582
0.00104287
0.00101089
0.00100871
0.00100991
0.00101171
0.00101125
0.00101169
0.00101183
0.00101063
0.00101124
0.00104354
0.00100909
0.00102734
0.0010776
0.00106096
0.0011118
0.00109512
0.00114399
0.00112779
0.00117652
0.00116025
0.0012092
0.00119286
0.00124201
0.00122561
0.00127491
0.00125847
0.00130789
0.00129141
0.00134089
0.0013244
0.00137384
0.00135741
0.00140673
0.0013903
0.00143949
0.00142316
0.00147213
0.00145585
0.00150452
0.00148838
0.00153658
0.00152061
0.00156823
0.00155248
0.00159932
0.00158388
0.00162959
0.00161457
0.00165908
0.00164448
0.00168871
0.00167362
0.00171795
0.00170242
0.00173531
0.00173158
0.00171353
0.00171358
0.00173095
0.00172415
0.00102485
0.00100839
0.000993732
0.000992936
0.00172378
0.00173748
0.00176381
0.00167849
0.00174654
0.00174402
0.0017227
0.00171392
0.00169705
0.00169393
0.00167768
0.00169233
0.00164146
0.00165944
0.00161023
0.00162577
0.00157854
0.00159457
0.00154688
0.00156269
0.00151509
0.00153104
0.00148302
0.0014991
0.00145069
0.00146689
0.00141819
0.00143447
0.00138557
0.00140191
0.00135285
0.00136922
0.00132007
0.0013365
0.00128728
0.00130368
0.00125455
0.00127092
0.00122189
0.00123822
0.00118933
0.00120561
0.0011569
0.00117311
0.00112462
0.00114075
0.00109253
0.00110852
0.00105876
0.00107567
0.00104158
0.000994374
0.000992325
0.000993939
0.00099578
0.000995242
0.000995263
0.00099577
0.000994573
0.00104223
0.00100738
0.00102699
0.00107646
0.00105953
0.00110949
0.00109347
0.00114178
0.0011256
0.00117429
0.00115804
0.00120693
0.00119061
0.00123969
0.00122332
0.00127255
0.00125613
0.00130546
0.00128902
0.00133841
0.00132195
0.00137131
0.00135489
0.00140415
0.00138775
0.00143686
0.00142055
0.00146942
0.00145318
0.00150173
0.00148563
0.00153371
0.00151779
0.00156526
0.00154956
0.00159624
0.00158085
0.00162647
0.00161148
0.00165577
0.00164127
0.00168448
0.00167036
0.00171217
0.00169687
0.00174011
0.00172768
0.00175549
0.00175112
0.00172834
0.00172584
0.000990369
0.000991185
0.00173284
0.00169697
0.00171841
0.00173769
0.00174808
0.00177394
0.0017547
0.00176157
0.00175812
0.00176684
0.00176478
0.0017265
0.00169568
0.00176346
0.00173296
0.00168808
0.00168847
0.00166974
0.00168485
0.00163724
0.00165325
0.00160619
0.00162175
0.00157478
0.00159056
0.00154321
0.00155901
0.00151148
0.00152739
0.00147948
0.00149553
0.00144725
0.00146341
0.00141483
0.00143107
0.00138229
0.0013986
0.00134966
0.001366
0.00131697
0.00133334
0.00128428
0.00130063
0.00125163
0.00126796
0.00121905
0.00123534
0.00118657
0.00120281
0.0011542
0.00117038
0.00112196
0.00113808
0.00108988
0.0011059
0.00105736
0.00107391
0.00102291
0.00104025
0.000989177
0.00100621
0.000976051
0.00097224
0.000974319
0.000978918
0.000977407
0.000980208
0.000979872
0.000979855
0.000980169
0.000977839
0.00097902
0.000974926
0.000976451
0.00100665
0.000973316
0.000989669
0.00104083
0.00102452
0.00107478
0.00105813
0.00110686
0.00109083
0.00113919
0.00112302
0.00117164
0.00115542
0.00120423
0.00118794
0.00123693
0.00122059
0.00126973
0.00125334
0.00130258
0.00128617
0.00133545
0.00131904
0.00136829
0.0013519
0.00140105
0.0013847
0.0014337
0.00141742
0.00146617
0.00144998
0.00149839
0.00148234
0.00153027
0.0015144
0.00156171
0.00154607
0.00159257
0.00157724
0.00162271
0.00160777
0.00165198
0.00163749
0.00168025
0.00166635
0.0017076
0.00169373
0.00173352
0.0017214
0.00175894
0.00174426
0.00177772
0.00177311
0.00173614
0.00175537
0.0017363
0.000986964
0.000970835
0.000958396
0.00095638
0.00173761
0.0017493
0.00174629
0.0017593
0.00176869
0.00178064
0.0017888
0.00178503
0.00173708
0.00175126
0.0017637
0.0017579
0.00175615
0.00170214
0.00172799
0.00168178
0.00168787
0.00166237
0.00167643
0.00163194
0.00164708
0.00160138
0.00161675
0.00157031
0.00158592
0.00153893
0.00155466
0.00150731
0.00152318
0.00147542
0.00149142
0.00144329
0.0014594
0.00141098
0.00142717
0.00137854
0.00139479
0.00134601
0.0013623
0.00131342
0.00132974
0.00128083
0.00129714
0.00124828
0.00126457
0.00121579
0.00123204
0.0011834
0.0011996
0.00115111
0.00116726
0.00111895
0.00113503
0.0010869
0.00110292
0.00105526
0.00107104
0.00102123
0.0010385
0.00100376
0.000960567
0.000955586
0.0009587
0.000963674
0.000962235
0.00096459
0.000964311
0.000964186
0.000964556
0.000961969
0.000963243
0.000960262
0.00100545
0.000971312
0.000988087
0.00103916
0.00102264
0.00107185
0.00105591
0.00110393
0.00108787
0.00113621
0.00112007
0.0011686
0.00115241
0.00120113
0.00118487
0.00123376
0.00121745
0.00126647
0.00125013
0.00129924
0.00128288
0.00133203
0.00131566
0.00136479
0.00134844
0.00139747
0.00138117
0.00143003
0.00141379
0.0014624
0.00144627
0.00149451
0.00147852
0.00152628
0.00151047
0.00155759
0.00154202
0.00158833
0.00157307
0.00161835
0.00160347
0.00164753
0.00163308
0.00167571
0.0016618
0.0017028
0.00168938
0.001728
0.00171584
0.0017536
0.00173954
0.00177821
0.00176501
0.00177908
0.00176843
0.0017959
0.00179059
0.00174372
0.000953589
0.000954581
0.00176213
0.00174903
0.00177275
0.00175168
0.00176103
0.00177166
0.00177193
0.00178245
0.00179118
0.00179932
0.00180698
0.00180258
0.0017474
0.00174867
0.00178214
0.00178265
0.00175693
0.00174016
0.00175058
0.00170263
0.00171917
0.00167694
0.00168749
0.00165512
0.00166833
0.001626
0.00164068
0.00159597
0.00161111
0.00156524
0.0015807
0.00153409
0.00154973
0.00150261
0.00151841
0.00147085
0.00148679
0.00143885
0.0014549
0.00140666
0.00142279
0.00137433
0.00139052
0.00134191
0.00135815
0.00130944
0.0013257
0.00127696
0.00129322
0.00124452
0.00126075
0.00121213
0.00122833
0.00117984
0.00119599
0.00114764
0.00116374
0.00111557
0.00113161
0.0010836
0.00109959
0.00105187
0.0010677
0.00101947
0.00103608
0.000984911
0.00100192
0.00095172
0.000969058
0.000940114
0.000935111
0.000937838
0.000945081
0.000942333
0.000948034
0.000947008
0.000948977
0.000948656
0.0009486
0.000948957
0.000946632
0.000947889
0.000943469
0.000944822
0.000938895
0.000941537
0.000969228
0.000936289
0.000952737
0.00100406
0.000985706
0.00103655
0.0010209
0.00106857
0.00105259
0.00110066
0.00108462
0.00113287
0.00111677
0.00116519
0.00114904
0.00119763
0.00118142
0.00123018
0.00121392
0.0012628
0.00124651
0.00129548
0.00127916
0.00132817
0.00131185
0.00136083
0.00134454
0.00139341
0.00137716
0.00142586
0.00140969
0.00145812
0.00144205
0.00149011
0.00147418
0.00152175
0.00150601
0.00155293
0.00153743
0.00158353
0.00156834
0.00161342
0.0015986
0.00164247
0.00162809
0.00167053
0.00165667
0.00169748
0.00168417
0.00172275
0.00171042
0.00174717
0.00173501
0.00177054
0.00175805
0.00179496
0.00178376
0.00178197
0.00178288
0.0018089
0.00180051
0.0017565
0.0017611
0.00178921
0.00179467
0.00178336
0.00176857
0.0017732
0.00094986
0.00093248
0.00092225
0.000920117
0.00178354
0.00178399
0.00179367
0.00180113
0.00180902
0.0018138
0.00179395
0.00179355
0.00179786
0.00181768
0.0018161
0.00180946
0.00175976
0.00178013
0.00177914
0.00174221
0.0017557
0.00172949
0.00174069
0.00169776
0.00171209
0.00167257
0.0016846
0.00164797
0.00166102
0.00161964
0.00163404
0.00159004
0.00160499
0.00155963
0.00157494
0.00152871
0.00154424
0.00149741
0.00151312
0.00146579
0.00148165
0.00143393
0.00144991
0.00140187
0.00141794
0.00136967
0.0013858
0.00133738
0.00135355
0.00130503
0.00132123
0.00127268
0.00128888
0.00124035
0.00125653
0.00120809
0.00122423
0.0011759
0.001192
0.00114381
0.00115986
0.00111183
0.00112783
0.00107997
0.0010959
0.00104822
0.00106409
0.00101677
0.00103248
0.000982731
0.00100003
0.000966461
0.000925503
0.000919758
0.000923045
0.000929923
0.000927616
0.000932373
0.000931382
0.000933399
0.000933054
0.00093303
0.000933387
0.000931378
0.000932363
0.000927667
0.000929797
0.000925152
0.000967191
0.000933794
0.000950381
0.00100181
0.00098424
0.00103318
0.0010175
0.00106507
0.00104912
0.00109707
0.00108108
0.00112918
0.00111314
0.00116141
0.00114531
0.00119376
0.0011776
0.00122621
0.00121
0.00125873
0.00124249
0.0012913
0.00127504
0.00132388
0.00130762
0.00135643
0.00134019
0.0013889
0.00137271
0.00142123
0.00140511
0.00145336
0.00143735
0.00148521
0.00146936
0.00151671
0.00150104
0.00154774
0.00153232
0.0015782
0.00156308
0.00160795
0.0015932
0.00163686
0.00162255
0.00166478
0.00165099
0.00169159
0.00167836
0.00171697
0.00170452
0.00174108
0.00172923
0.00176407
0.00175261
0.00178485
0.00177533
0.00180887
0.00179223
0.00179857
0.0018203
0.00182905
0.001828
0.00182343
0.00180853
0.00178834
0.00179034
0.00177063
0.00177341
0.000916861
0.000917687
0.00180582
0.00178258
0.00178512
0.00179233
0.00179544
0.00180423
0.00181194
0.0018161
0.00181928
0.00180561
0.00179851
0.00180273
0.00181437
0.00182524
0.00183289
0.00181127
0.00181686
0.0018193
0.00182998
0.00183565
0.00177263
0.00179069
0.00178803
0.00176706
0.00177258
0.00173846
0.00175285
0.0017194
0.00173017
0.00169217
0.00170581
0.00166659
0.00167918
0.00164091
0.00165409
0.00161291
0.00162714
0.00158364
0.00159843
0.00155352
0.00156869
0.00152283
0.00153826
0.00149171
0.00150734
0.00146026
0.00147605
0.00142855
0.00144446
0.00139664
0.00141264
0.00136459
0.00138065
0.00133243
0.00134854
0.00130023
0.00131636
0.00126801
0.00128414
0.00123581
0.00125193
0.00120367
0.00121975
0.00117161
0.00118765
0.00113963
0.00115563
0.00110777
0.00112371
0.00107601
0.0010919
0.00104436
0.00106019
0.00101286
0.00102858
0.000980496
0.00099714
0.000947748
0.000963696
0.000914181
0.000930041
0.000903872
0.000898676
0.000901041
0.000910221
0.000906844
0.000914451
0.000912803
0.000916803
0.000915775
0.000917844
0.0009175
0.000917471
0.000917834
0.000915741
0.00091677
0.000911782
0.000914147
0.000906878
0.000909265
0.000901809
0.000904448
0.000931017
0.000898299
0.000916134
0.000965615
0.000947677
0.000998034
0.000982291
0.00102951
0.00101373
0.00106128
0.00104541
0.00109317
0.00107724
0.00112518
0.00110918
0.0011573
0.00114125
0.00118954
0.00117343
0.00122187
0.00120572
0.00125428
0.0012381
0.00128673
0.00127053
0.00131919
0.00130299
0.00135161
0.00133544
0.00138394
0.00136782
0.00141614
0.00140009
0.00144813
0.00143219
0.00147984
0.00146405
0.00151118
0.00149559
0.00154206
0.00152672
0.00157236
0.00155732
0.00160195
0.00158728
0.00163071
0.00161648
0.0016585
0.00164477
0.00168517
0.00167202
0.00171052
0.00169806
0.00173456
0.00172274
0.00175725
0.00174612
0.00177746
0.00176787
0.00179668
0.00178715
0.00179933
0.00180233
0.00181094
0.00183684
0.00183127
0.00178404
0.00178548
0.00180339
0.00179356
0.00179658
0.000911313
0.000896247
0.000886108
0.000882702
0.00180457
0.0018063
0.00181457
0.00182093
0.00182585
0.00183122
0.001813
0.00180659
0.0018235
0.00182405
0.00182817
0.00181913
0.00182517
0.00183949
0.00183743
0.00183475
0.00184226
0.0017851
0.00179504
0.00178423
0.00177777
0.00178751
0.00175504
0.00176612
0.00173294
0.00174446
0.00171112
0.00172242
0.00168546
0.00169852
0.00165976
0.00167256
0.00163362
0.00164692
0.00160581
0.00161991
0.0015768
0.00159145
0.00154694
0.00156198
0.00151648
0.0015318
0.00148556
0.00150109
0.00145429
0.00146999
0.00142275
0.00143857
0.001391
0.00140692
0.0013591
0.00137509
0.0013271
0.00134313
0.00129504
0.00131109
0.00126297
0.00127902
0.00123091
0.00124696
0.00119891
0.00121492
0.00116698
0.00118295
0.00113513
0.00115106
0.00110339
0.00111927
0.00107176
0.00108758
0.00104022
0.001056
0.00100877
0.0010245
0.000977556
0.000993169
0.000944905
0.000960901
0.000927409
0.000888589
0.000882812
0.000886276
0.000895176
0.000891898
0.000898889
0.000897272
0.000901283
0.000900247
0.000902313
0.000901972
0.000901958
0.000902308
0.000900282
0.000901271
0.000897415
0.000899051
0.000891792
0.000894847
0.000888611
0.000928368
0.000895338
0.000913686
0.000963113
0.000945454
0.000994129
0.000978597
0.00102559
0.00100986
0.00105722
0.00104141
0.00108898
0.00107311
0.00112086
0.00110493
0.00115287
0.00113688
0.00118498
0.00116894
0.00121719
0.0012011
0.00124947
0.00123335
0.00128179
0.00126565
0.00131411
0.00129798
0.00134639
0.00133029
0.00137858
0.00136253
0.00141062
0.00139465
0.00144246
0.0014266
0.00147401
0.00145831
0.00150519
0.00148968
0.0015359
0.00152064
0.00156603
0.00155108
0.00159546
0.00158088
0.00162407
0.00160991
0.00165171
0.00163805
0.00167824
0.00166516
0.0017035
0.00169108
0.00172742
0.00171567
0.00174986
0.00173887
0.00177016
0.00176038
0.00178812
0.00177966
0.00180304
0.00179519
0.00182319
0.00181461
0.00183946
0.00183354
0.00182107
0.00181192
0.00181114
0.00179547
0.001797
0.000879428
0.000879905
0.00182212
0.00180467
0.00180753
0.00181571
0.00181662
0.00182412
0.00183003
0.00183473
0.00183748
0.00182782
0.00181746
0.00181739
0.00182448
0.00182439
0.0018384
0.00182746
0.0018394
0.00182923
0.00183593
0.0018254
0.00184508
0.0018467
0.00184543
0.00184264
0.00179666
0.00180492
0.00181571
0.00178393
0.00178014
0.0017659
0.00177902
0.00174697
0.00175669
0.00172544
0.00173649
0.00170292
0.00171445
0.00167797
0.00169066
0.00165234
0.00166521
0.00162599
0.00163935
0.00159832
0.00161234
0.00156954
0.00158407
0.00153993
0.00155485
0.00150969
0.0015249
0.00147898
0.00149441
0.0014479
0.0014635
0.00141653
0.00143227
0.00138496
0.00140079
0.00135322
0.00136913
0.00132139
0.00133734
0.00128949
0.00130546
0.00125757
0.00127355
0.00122567
0.00124164
0.00119381
0.00120975
0.00116202
0.00117793
0.00113032
0.00114618
0.00109872
0.00111453
0.00106722
0.00108298
0.00103582
0.00105153
0.0010045
0.00102017
0.000973293
0.000988897
0.000942463
0.000957682
0.000908192
0.000924903
0.000876943
0.00089279
0.000867098
0.000859652
0.000863738
0.000874431
0.000870464
0.000879916
0.000877762
0.000883423
0.000881783
0.00088579
0.000884774
0.000886805
0.000886467
0.00088647
0.000886806
0.00088483
0.000885805
0.000882092
0.000883595
0.000878027
0.000880306
0.000870515
0.000874428
0.000864189
0.000867358
0.000892773
0.000861184
0.000877666
0.000925637
0.000910208
0.000959318
0.000942878
0.000990092
0.000974597
0.00102141
0.00100576
0.00105289
0.00103716
0.00108451
0.00106871
0.00111626
0.0011004
0.00114813
0.00113221
0.00118011
0.00116414
0.00121218
0.00119616
0.00124431
0.00122827
0.00127649
0.00126043
0.00130866
0.0012926
0.00134078
0.00132476
0.00137282
0.00135685
0.0014047
0.00138881
0.00143637
0.0014206
0.00146775
0.00145213
0.00149876
0.00148334
0.00152929
0.00151412
0.00155925
0.00154438
0.00158851
0.00157401
0.00161696
0.00160288
0.00164445
0.00163087
0.00167084
0.00165782
0.00169598
0.00168361
0.00171976
0.00170809
0.001742
0.00173112
0.00176227
0.00175245
0.00178031
0.00177166
0.00179622
0.00178829
0.00181087
0.00180479
0.00181145
0.00182287
0.0018259
0.00184282
0.00183765
0.00180654
0.00180803
0.00182944
0.00181535
0.00181794
0.000873794
0.000856795
0.000849044
0.000846274
0.0018263
0.00182632
0.00183316
0.00183854
0.00184237
0.00184462
0.00181741
0.00181047
0.00181078
0.0018208
0.00182944
0.00183853
0.00184503
0.00183511
0.00183876
0.00185143
0.0018508
0.00184659
0.00184543
0.0018291
0.0018337
0.00180775
0.00181019
0.00180482
0.00179139
0.00180612
0.00177287
0.00177993
0.00175755
0.0017667
0.0017385
0.00174826
0.00171713
0.00172807
0.00169445
0.00170602
0.00166992
0.00168239
0.00164441
0.00165728
0.00161801
0.00163137
0.00159046
0.0016044
0.0015619
0.00157632
0.00153251
0.00154732
0.00150249
0.00151759
0.00147199
0.00148732
0.00144111
0.00145661
0.00140994
0.00142558
0.00137854
0.00139428
0.00134698
0.0013628
0.00131532
0.00133118
0.00128359
0.00129948
0.00125184
0.00126774
0.0012201
0.00123599
0.0011884
0.00120427
0.00115677
0.0011726
0.00112522
0.00114101
0.00109377
0.0011095
0.00106241
0.0010781
0.00103116
0.0010468
0.00100001
0.0010156
0.000968968
0.000984492
0.000938534
0.000953607
0.00090539
0.000922231
0.000888652
0.000852924
0.000844464
0.000849436
0.000860242
0.000856573
0.000864522
0.000862533
0.000868012
0.000866392
0.00087032
0.000869327
0.00087132
0.000870986
0.000870992
0.000871322
0.000869364
0.000870338
0.000866516
0.000868086
0.00086254
0.000864704
0.000855782
0.000859561
0.000852208
0.000890489
0.00085795
0.000875423
0.000923032
0.000906582
0.000954893
0.000939469
0.000985804
0.00097031
0.00101698
0.0010014
0.00104831
0.00103265
0.00107978
0.00106406
0.00111139
0.0010956
0.00114311
0.00112726
0.00117494
0.00115904
0.00120686
0.00119092
0.00123884
0.00122287
0.00127085
0.00125487
0.00130286
0.00128689
0.00133482
0.00131888
0.00136669
0.0013508
0.0013984
0.0013826
0.00142989
0.00141421
0.00146109
0.00144557
0.00149191
0.00147659
0.00152227
0.00150719
0.00155205
0.00153727
0.00158114
0.00156672
0.00160941
0.00159542
0.00163674
0.00162324
0.00166299
0.00165005
0.00168801
0.0016757
0.00171165
0.00170005
0.00173373
0.00172294
0.00175393
0.00174412
0.001772
0.0017633
0.00178811
0.00178021
0.00180149
0.00179556
0.0018119
0.00180645
0.00182616
0.00181448
0.00183315
0.00182556
0.00181918
0.00183217
0.00183478
0.00181713
0.00181852
0.000841147
0.000842481
0.00183456
0.00182561
0.00182775
0.00183585
0.00183546
0.00184166
0.00184628
0.0018494
0.00185097
0.00181495
0.00180603
0.00180112
0.00181783
0.00181238
0.00182269
0.00181421
0.00182612
0.00182984
0.00184118
0.00184442
0.00184922
0.00184457
0.00185605
0.00185348
0.00184836
0.0018436
0.00183574
0.0018303
0.00181831
0.00181128
0.00181216
0.00179895
0.00178873
0.00177919
0.00179548
0.00176468
0.00177139
0.00174866
0.00175731
0.00172949
0.00173933
0.00170834
0.00171916
0.00168568
0.00169723
0.00166142
0.00167375
0.00163603
0.00164887
0.00160968
0.00162301
0.00158226
0.00159612
0.00155389
0.00156821
0.00152472
0.00153941
0.00149492
0.00150991
0.00146463
0.00147985
0.00143395
0.00144936
0.00140297
0.00141852
0.00137177
0.00138742
0.0013404
0.00135613
0.00130892
0.00132469
0.00127737
0.00129317
0.0012458
0.00126161
0.00121423
0.00123003
0.0011827
0.00119848
0.00115123
0.00116698
0.00111985
0.00113555
0.00108855
0.00110421
0.00105736
0.00107296
0.00102627
0.00104182
0.000995291
0.00101079
0.000964429
0.000979864
0.000933842
0.000949081
0.000902492
0.00091859
0.00087064
0.000885491
0.00083829
0.000854209
0.000830195
0.000822483
0.000826867
0.000838332
0.000833719
0.000844826
0.000842199
0.000849138
0.000847045
0.000852607
0.000851017
0.00085487
0.000853895
0.000855855
0.000855526
0.000855532
0.000855857
0.000853923
0.000854886
0.000851075
0.000852652
0.000847127
0.000849216
0.000842242
0.000844934
0.000834676
0.000838519
0.000827458
0.000830854
0.000855287
0.000824401
0.000839654
0.000887861
0.000871229
0.000919742
0.000903508
0.000950414
0.000935096
0.000981294
0.000965855
0.00101232
0.000996816
0.0010435
0.00102792
0.00107482
0.00105917
0.00110626
0.00109055
0.00113783
0.00112206
0.00116949
0.00115368
0.00120125
0.00118539
0.00123306
0.00121718
0.0012649
0.00124901
0.00129674
0.00128085
0.00132852
0.00131267
0.00136021
0.00134441
0.00139174
0.00137603
0.00142304
0.00140746
0.00145406
0.00143863
0.00148469
0.00146946
0.00151486
0.00149988
0.00154445
0.00152977
0.00157336
0.00155904
0.00160147
0.00158756
0.00162864
0.00161522
0.00165475
0.00164187
0.00167963
0.00166739
0.00170315
0.00169161
0.0017251
0.00171437
0.00174523
0.00173544
0.0017633
0.00175458
0.00177933
0.00177156
0.00179275
0.00178655
0.00180298
0.00179827
0.00181126
0.00180736
0.00180968
0.00184048
0.00184274
0.00182675
0.00182123
0.00182721
0.00182842
0.00184295
0.0018351
0.00183697
0.0008352
0.000818786
0.00081222
0.00080849
0.00184452
0.001844
0.00184945
0.00185334
0.00185569
0.00185661
0.00180685
0.00180142
0.00179003
0.00179535
0.00182152
0.00182377
0.00183706
0.00183406
0.00184682
0.00185023
0.00185167
0.0018594
0.00185546
0.00185025
0.00184033
0.00183701
0.00182878
0.00181349
0.00181924
0.0018283
0.00180119
0.00178504
0.0018007
0.00180656
0.00178546
0.00178313
0.00177036
0.00178187
0.00175584
0.00176284
0.00173929
0.00174802
0.00172019
0.00173001
0.0016992
0.00170994
0.00167661
0.00168812
0.00165253
0.00166476
0.00162728
0.00164006
0.00160101
0.00161429
0.00157373
0.00158751
0.00154554
0.00155976
0.00151658
0.00153117
0.001487
0.00150188
0.00145692
0.00147204
0.00142645
0.00144175
0.00139568
0.00141112
0.00136467
0.00138022
0.00133349
0.00134912
0.0013022
0.00131788
0.00127084
0.00128655
0.00123945
0.00125517
0.00120807
0.00122378
0.00117672
0.00119241
0.00114543
0.00116109
0.00111422
0.00112983
0.00108309
0.00109866
0.00105207
0.00106759
0.00102115
0.00103662
0.000990348
0.00100575
0.000959666
0.00097501
0.000929135
0.00094439
0.000898836
0.000913996
0.000866887
0.000882388
0.000851034
0.000816343
0.000807405
0.000812615
0.000823747
0.000819819
0.000829322
0.000826776
0.00083379
0.000831664
0.000837211
0.000835646
0.00083944
0.000838479
0.00084041
0.000840086
0.000840093
0.000840413
0.000838509
0.000839457
0.00083571
0.000837258
0.000831781
0.000833874
0.000826909
0.000829513
0.000819678
0.000823585
0.000815776
0.000852362
0.000821563
0.000836547
0.000884777
0.000868184
0.000915177
0.000899834
0.000945836
0.000930515
0.000976586
0.000961224
0.00100746
0.000992031
0.00103847
0.00102297
0.00106962
0.00105405
0.0011009
0.00108527
0.00113229
0.00111661
0.00116378
0.00114805
0.00119536
0.00117959
0.001227
0.0012112
0.00125866
0.00124286
0.00129031
0.00127452
0.00132191
0.00130615
0.00135341
0.00133771
0.00138474
0.00136913
0.00141586
0.00140037
0.00144668
0.00143134
0.00147712
0.00146198
0.0015071
0.00149221
0.0015365
0.00152191
0.00156523
0.00155099
0.00159317
0.00157934
0.00162019
0.00160684
0.00164614
0.00163334
0.0016709
0.00165872
0.0016943
0.00168282
0.00171615
0.00170547
0.00173622
0.00172646
0.0017543
0.00174556
0.00177027
0.00176258
0.00178371
0.00177741
0.00179427
0.00178935
0.00180164
0.00179858
0.00180521
0.00180349
0.00181198
0.00180289
0.00180577
0.00180119
0.00180571
0.00184798
0.00184918
0.00183661
0.00183771
0.000803827
0.000804991
0.00185062
0.00184382
0.00184555
0.00185248
0.00185183
0.00185653
0.00185963
0.00186121
0.00186115
0.00178123
0.00178535
0.00178455
0.00179997
0.00180409
0.00181144
0.00183079
0.0018309
0.00184274
0.0018442
0.00185072
0.00185395
0.00186168
0.00185675
0.00184989
0.00184325
0.001834
0.00182267
0.00181104
0.00179462
0.00180568
0.00179507
0.00183765
0.00179975
0.00177586
0.00178884
0.00178558
0.00178739
0.00179129
0.00177352
0.00177929
0.0017617
0.00176904
0.00174658
0.00175417
0.00172972
0.00173849
0.00171066
0.00172046
0.00168976
0.00170045
0.00166725
0.00167871
0.00164332
0.00165547
0.0016182
0.00163091
0.00159203
0.00160526
0.0015649
0.0015786
0.00153688
0.00155101
0.00150813
0.00152261
0.00147876
0.00149353
0.00144889
0.0014639
0.00141863
0.00143383
0.00138806
0.0014034
0.00135726
0.00137271
0.00132629
0.00134181
0.00129519
0.00131077
0.00126403
0.00127964
0.00123283
0.00124845
0.00120164
0.00121725
0.00117048
0.00118607
0.00113937
0.00115494
0.00110834
0.00112387
0.0010774
0.00109288
0.00104656
0.00106198
0.00101582
0.00103119
0.0009852
0.00100051
0.000954701
0.000969953
0.000924339
0.00093952
0.000894275
0.000909263
0.000863015
0.000878482
0.00083212
0.000847663
0.000800925
0.00081579
0.000793169
0.000785042
0.000789662
0.000801802
0.000796984
0.000808648