/*--------------------------------*- C++ -*----------------------------------*\
  =========                 |
  \\      /  F ield         | OpenFOAM: The Open Source CFD Toolbox
   \\    /   O peration     | Website:  https://openfoam.org
    \\  /    A nd           | Version:  10
     \\/     M anipulation  |
\*---------------------------------------------------------------------------*/
FoamFile
{
    format      ascii;
    class       surfaceScalarField;
    location    "38";
    object      phi;
}
// * * * * * * * * * * * * * * * * * * * * * * * * * * * * * * * * * * * * * //

dimensions      [0 3 -1 0 0 0 0];

internalField   nonuniform List<scalar> 
57492
(
0.000238481
-1.07446e-05
-4.42504e-05
-0.000183486
-0.000164653
0.000270776
0.000132358
-2.88529e-05
8.11413e-05
0.000324415
-0.000376703
0.00315956
0.0033865
-0.000271976
-0.00627408
-0.0086282
0.00404532
0.00774243
0.000873948
-0.000807316
-0.000422959
0.000356326
-0.00156317
0.000281836
-0.000103807
0.00138514
0.000329939
-0.00101916
0.00156494
-0.00463263
0.00442607
-0.00135838
0.00132234
0.00425026
-0.00400766
-0.00062441
-0.000210897
0.000698504
0.000136803
-0.000124234
-0.000846274
0.000346098
0.000236662
-0.000331375
-2.95214e-05
-5.44797e-05
8.02454e-05
0.00203561
-0.00195814
-0.000735065
0.000657598
0.000286962
0.00164093
0.000107711
-0.000323987
0.000787747
0.00333608
-0.00379984
-0.000660446
0.00326192
-0.00292547
0.000135572
-0.000288895
0.000153323
-0.00166566
0.00122151
0.000579712
-0.00466235
0.000191714
0.00333821
0.00113243
0.00122621
-0.00473213
-0.00115643
-0.000133683
-0.000201385
-0.000709321
0.00104439
-0.000290574
0.000179132
-2.22412e-05
-0.002567
0.0021765
0.000742356
-0.000351856
-0.00306632
0.000923123
-0.000423796
-0.00112785
0.000596336
0.000456957
7.45537e-05
-0.000779104
-0.000362285
1.35423e-05
-0.00036782
-0.00113572
0.00129342
0.000210117
-0.000416746
0.000116627
-6.7701e-05
0.000910324
-0.00060668
-0.000564922
0.000261277
-0.000786194
0.000625236
0.00107128
-0.00107301
-0.00205629
0.00196874
0.00116056
-0.00242011
-0.000584748
0.00193185
-0.000708257
-0.000152373
0.00086063
-0.000271641
-0.000436616
-0.001376
0.00189422
-0.000789868
0.000203317
-0.00076806
-0.000811253
-0.000696746
0.000978581
-0.000233299
-0.00190174
0.00115077
0.000750968
-0.00432145
0.00241971
0.00489317
-0.00098995
0.000510368
-0.00441359
0.00361713
7.95556e-05
0.00119648
-0.000889395
0.00483966
-0.00494022
0.00170686
0.000363153
-0.00174008
0.00171617
-0.000113116
0.00207005
-0.000775298
-0.00153936
0.000244609
0.00231826
0.000114943
0.00107426
-0.000664672
0.00130658
0.0010206
0.00143879
-0.00473118
-0.000651147
0.000569716
0.00481261
-0.004864
-0.000317907
0.000450729
0.00119598
0.00451357
-0.0044377
-0.00127185
0.000866492
-0.00430314
-0.00282318
0.00254943
0.00256574
-0.00229199
-0.000302629
0.00322607
-0.00574663
1.49602e-05
-0.000118988
-8.08887e-07
0.000104837
-0.000326385
9.97033e-06
6.83199e-05
-0.000138007
-0.000256698
-5.7503e-05
6.83462e-06
1.15627e-05
-1.23716e-05
9.08605e-06
2.4767e-06
0.00733062
0.00378573
-0.0058969
-0.00521944
0.0023327
-0.000698385
0.0056963
-0.00787568
0.0030903
0.00711808
0.00228432
-0.00637427
0.00162237
-0.00286763
0.00213588
-0.000890616
0.00235903
-0.00291656
0.0021799
-3.02006e-05
2.20652e-05
-2.60921e-06
-7.09456e-05
-3.50536e-06
-0.000225035
-2.93973e-05
-0.0029422
0.00535454
0.0033919
-0.00580425
0.00436238
-0.00494555
0.00298276
0.00475455
-0.00238277
0.0101317
-0.00150761
-0.00178175
-0.00684231
0.00222469
0.0054525
0.00245448
0.00159316
-0.00503774
0.00566928
4.69517e-05
-7.58046e-05
0.000128093
0.000819162
0.0017615
-0.000627764
-0.0019529
0.00104354
0.00010004
-9.68058e-05
2.66635e-05
7.01423e-05
-0.000300589
0.000203783
-0.00661832
0.00342256
-0.00201508
0.00521084
-0.0057496
-0.00250771
0.00163899
-0.00262825
0.00209336
-0.00521471
0.00195561
-2.65093e-05
-0.000945801
-0.0009833
-0.000712911
0.00223162
0.000436902
-0.000836248
-8.53838e-05
0.000208721
-0.000772969
-8.97887e-05
-0.000271875
-0.0014469
-0.000245112
-6.38701e-05
1.96626e-05
0.00028932
-0.000220641
-0.000536527
0.000512055
0.000140901
1.72087e-05
-0.00037875
8.13227e-05
-4.29227e-06
0.00010357
-2.58517e-06
-0.000642175
0.0003703
8.34892e-05
-0.000725664
0.000173269
-0.000473858
0.00427354
0.00333166
-0.000178492
0.00212872
-0.00648337
-1.02615e-05
0.00226379
-0.00179741
-0.000456116
0.000291943
0.00316393
-0.00346613
0.00327864
0.00187289
-0.000530235
-0.00462129
-0.00101715
0.000477316
0.00381848
0.00402688
-0.00317115
-0.00163954
-0.00303563
0.00124509
0.00343008
-0.00118991
0.00350701
-0.00395664
0.000417656
-0.0046432
8.44016e-05
3.46511e-05
-4.72916e-06
0.00105752
-0.000622794
-0.000599382
7.81667e-05
-0.000330884
0.00131024
0.000368294
-1.93512e-05
-0.000187338
0.000332152
6.8387e-05
-0.0002132
0.000992745
-0.00121643
3.63501e-05
-0.000358002
0.000831787
0.00051896
-0.00012524
9.93901e-05
-0.0061301
0.00364826
0.0059044
0.00772812
-0.00201518
-0.00822065
-0.00286582
0.00446384
-9.71498e-05
-0.000875655
-0.000162912
-0.000523066
9.17031e-06
4.78198e-05
-0.000130126
3.74329e-05
4.48728e-05
-0.000130051
0.000144463
3.34079e-05
-0.000299312
3.9136e-05
-0.000265789
-0.000313217
5.59402e-05
-0.000805088
-0.000336356
-0.000973933
-0.00104625
0.00119762
0.000822564
4.02142e-05
0.000513644
-0.00152779
-0.00136614
0.000360099
-0.00293756
0.00133182
-5.99223e-05
-0.00350592
0.000809314
-0.000240949
0.00087623
-0.00334723
0.00256392
-9.29213e-05
0.000679214
-0.00272806
0.00292507
0.00252843
-0.0101971
-0.00176887
0.00218529
0.00302471
-0.00346175
0.00206368
-0.000321825
4.90299e-07
1.67184e-05
-3.46328e-06
3.95358e-06
0.0002847
-4.13437e-05
0.00555167
-0.00336598
-0.00235592
0.00017023
0.00477551
-0.000113237
0.00468452
0.000132645
-0.00511979
0.00136048
0.00332882
-4.78338e-06
0.000534051
-0.00295043
0.00377686
5.55421e-06
-9.0175e-06
0.000760036
-0.00212344
-0.00285151
0.00123504
0.00308994
0.00102523
-5.77465e-05
-0.00107812
0.000110642
0.000338665
-9.96305e-05
-0.00131721
0.000284117
0.00165833
0.000236873
-0.00121542
-0.000134966
7.51987e-05
-6.84483e-06
1.03471e-05
-3.15927e-06
-3.43025e-07
1.11054e-05
-2.60719e-07
-1.76895e-05
4.79046e-05
-0.000104477
6.76778e-05
-0.00173231
0.00267215
-0.000766566
0.00292779
-0.00380707
-0.000853039
4.56834e-06
-0.00179969
0.00207924
-0.00400885
0.000244143
-0.00274703
-0.00184119
0.000579364
0.00269579
0.0029111
-0.00541517
0.00260386
0.0042986
-0.00420668
0.0022396
-0.00308547
0.00160756
-0.000761686
0.0024545
-0.00302473
0.00280982
0.00437479
0.00187451
0.00498414
-0.000247917
-0.00495173
0.000215504
0.00551916
-0.000674866
0.000139846
0.0055291
-0.000887913
6.47367e-05
-0.00470593
0.00397004
-0.00135985
0.00291891
0.00430958
-0.00139797
0.00113433
-0.00404595
0.00126214
0.00439027
-0.00134282
-0.00387829
-0.00166047
0.00414079
0.0010609
-0.00369409
-0.00185302
0.00362263
-0.00237327
-0.00324247
0.00214815
0.00346759
-0.00239049
-0.00327089
0.0032881
0.00223113
0.00305006
-0.0014712
-0.00380998
0.00302408
-0.00318344
-0.00258547
0.00260869
0.00300087
-0.00203825
0.00250284
-0.00407223
0.00361838
-0.00101735
-0.00507048
0.00104982
0.00537991
-0.00135925
0.00190818
-0.000274291
0.00101717
-0.00108214
0.000339262
-0.00011583
0.00130346
-0.00146192
-5.3836e-05
0.000310072
0.000112058
-0.00131775
-0.0020441
0.0013273
-9.81274e-08
-1.62591e-07
3.08314e-07
-4.0644e-07
-0.00012565
-0.0022647
0.00172568
-0.00200732
-8.56293e-05
0.0019673
5.95574e-05
-0.00210411
3.72323e-05
-0.000324085
0.00186141
0.000350977
-0.0018883
0.00194252
0.000503352
-0.00276996
0.00188933
0.00191461
-2.5562e-06
5.13886e-07
3.66934e-05
-4.80867e-06
2.25247e-06
-4.29478e-06
-5.6792e-06
4.42339e-06
-5.62472e-05
1.11362e-06
-6.79283e-06
5.53701e-06
-4.45654e-05
2.15725e-05
-0.000267581
2.25839e-05
-6.71493e-05
4.41565e-05
5.32564e-05
-5.34541e-06
-0.000173151
-1.69254e-05
7.01817e-05
-2.22708e-05
0.00140947
0.00329315
-0.0042253
0.001357
-0.00449553
0.00454801
0.00472392
-7.3774e-05
-0.00118281
-0.00244464
0.00115864
0.00246881
-0.000710189
0.00272181
-0.00319443
0.000157748
-0.00331258
0.00419063
-0.00422468
-1.35168e-05
4.75717e-05
0.00419394
3.75903e-05
-4.08998e-05
-2.64213e-05
-0.00421237
1.41093e-05
0.00423013
-1.67378e-06
-3.45197e-05
0.00430988
6.11628e-05
-0.000140913
2.98536e-05
0.00442151
-0.000141482
0.00436818
-0.00433818
-1.51826e-07
-0.000206312
0.00463213
-4.30853e-06
0.00425043
-8.85637e-05
-0.00420095
-7.60614e-05
-0.00418178
-2.08455e-05
-0.00417084
2.66485e-05
-0.00425471
7.03542e-05
-0.00417919
-0.000101943
-0.000200413
0.00483682
-4.28083e-06
0.00405524
-5.21924e-06
-2.1038e-05
-0.00417047
-2.08581e-05
-0.00420675
6.52624e-06
-2.97099e-05
-0.00440407
0.000263308
-9.07619e-07
0.00484134
-3.61143e-06
0.0040597
-5.37308e-06
-0.00435392
0.000117458
0.00484569
-7.30166e-07
-3.61983e-06
-8.62336e-07
0.00484953
-2.96966e-06
0.00406361
-4.6325e-06
0.0040676
-4.85113e-06
-2.49719e-05
-0.00436963
-9.47447e-06
-0.00436925
-9.64451e-06
-6.12017e-07
0.00485317
-3.0324e-06
0.00407112
-4.13437e-06
-2.26311e-07
-0.00435939
-1.00132e-05
-0.0043588
-1.0669e-05
-6.16191e-07
0.0048562
-2.41183e-06
0.0040749
-4.39571e-06
-3.89089e-08
-0.00434827
-1.10732e-05
-0.00434788
-1.09618e-05
-1.02383e-07
0.00485882
-2.52396e-06
0.00407849
-3.69613e-06
-9.78094e-08
-0.00433651
-1.16628e-05
-0.00433592
-1.20568e-05
3.90133e-07
0.00486036
-1.9268e-06
0.00408288
-3.99614e-06
9.31689e-08
-0.00432384
-1.27687e-05
-0.00432337
-1.24623e-05
1.89941e-06
0.00486054
-2.07925e-06
0.00408809
-3.31368e-06
1.00578e-05
-0.00432046
-1.34391e-05
-0.00429968
-1.36328e-05
4.39738e-06
0.00485765
-1.50172e-06
0.00409613
-3.64218e-06
2.82308e-05
-0.00418517
-0.000163514
-0.00421286
-5.85833e-05
9.91545e-06
0.00484942
-1.69106e-06
0.00409007
1.5974e-05
2.78684e-05
-0.00419116
-2.18854e-05
-0.00416743
-1.75655e-05
2.03362e-05
0.00483021
-1.12858e-06
0.00406327
4.71417e-05
5.95859e-05
-0.00402873
-0.000222016
-0.00403264
-7.52029e-05
0.00020628
0.00462527
-1.34161e-06
0.00418869
8.08559e-05
6.81916e-05
-0.00399507
-0.000101845
-0.00397323
8.78331e-06
0.000182156
0.00428601
0.000157108
0.00425947
0.000111372
0.000108118
-0.000169251
-0.00393394
-0.00394133
7.62185e-05
1.19783e-05
4.05505e-05
0.00423348
0.00423336
3.80877e-05
-0.00401124
0.0040899
-0.000180508
-0.00401752
-0.000162968
0.000183641
-0.000177501
-0.00394008
7.48045e-05
-0.0038325
-0.0040163
0.00406502
-7.06039e-05
-0.00014842
-0.00392943
0.00394191
-2.59186e-05
-2.79221e-05
-0.00395352
0.00396443
-2.2571e-05
-2.4384e-05
-0.00397458
0.00398413
-1.95603e-05
-2.12257e-05
-0.00399305
0.00427326
-1.68992e-05
-1.83939e-05
-0.00426835
0.00421647
6.59816e-05
-1.59459e-05
-0.00435843
0.00433006
-1.25351e-05
-9.43835e-05
-0.00419653
0.00413999
-8.43721e-05
9.90178e-05
-0.00404608
0.00405096
-9.18303e-06
-4.75809e-05
-0.00405548
0.00405972
-7.85761e-06
-8.79881e-06
-0.00406368
0.0040674
-6.6963e-06
-7.57335e-06
-0.00407087
0.00407415
-5.68485e-06
-6.50254e-06
-0.00407719
0.00408007
-4.80404e-06
-5.57157e-06
-0.00408275
0.00408529
-4.03492e-06
-4.76082e-06
-0.00408765
0.00408988
-3.3575e-06
-4.05219e-06
-0.00406778
0.0041652
5.96858e-05
2.0754e-05
0.00415636
4.93934e-05
-2.62464e-05
8.12395e-05
0.00417849
-5.78792e-06
0.00421291
0.00417959
-0.00410894
1.02121e-05
-0.00422197
0.00421455
4.55132e-05
6.89841e-05
0.00410661
-0.00408529
-5.34582e-06
4.48047e-05
0.00408277
-0.00408006
-6.02247e-06
-6.15912e-06
0.0040772
-0.00407411
-6.77886e-06
-6.8594e-06
0.00407085
-0.00406735
-7.64398e-06
-7.65492e-06
0.00406363
-0.00405962
-8.63664e-06
-8.56753e-06
0.00405538
-0.00405081
-9.78376e-06
-9.61843e-06
0.00412854
-0.0041176
-1.10931e-05
-1.08381e-05
0.00418145
-0.00413061
-7.16834e-05
-1.22116e-05
0.00409768
-0.00406456
3.72353e-05
-6.28054e-06
0.00410867
-0.00412799
2.58515e-05
-5.78393e-05
0.00399279
-0.00398385
-1.85808e-05
-1.77449e-05
0.00397435
-0.00396412
-2.11922e-05
-2.01706e-05
0.00395324
-0.00394155
-2.41617e-05
-2.29332e-05
0.00392911
-0.00396016
-2.7532e-05
-2.60721e-05
0.00394809
-0.00399195
-3.13492e-05
-2.96288e-05
0.00394948
-0.00387636
3.10004e-06
-3.36855e-05
-0.00381792
1.63664e-05
-0.00403082
-0.000164204
0.0041707
6.69015e-05
-3.25727e-06
0.00421202
0.000124978
-0.000129015
-0.00382846
7.79862e-05
-0.00377093
0.000151725
-0.000161668
-0.00402087
-0.00391737
-0.00399134
0.00394122
-0.000130387
0.00402131
-0.00403799
-0.000147533
-0.000132992
-0.00390475
0.00391866
-8.45108e-05
-0.000111954
-0.00393174
0.00394406
-3.82329e-05
-4.10054e-05
-0.00395551
0.00396628
-3.33325e-05
-3.58414e-05
-0.00397629
0.0039857
-2.897e-05
-3.12385e-05
-0.00399446
0.00400268
-2.51175e-05
-2.7155e-05
-0.00401031
0.00409805
-2.17599e-05
-2.35813e-05
-0.00402413
0.00403041
-1.88135e-05
-2.04643e-05
-0.00414716
0.00407905
-1.62613e-05
-1.77338e-05
-0.00404681
0.00405163
-1.4e-05
-1.5342e-05
-0.0040561
0.00406031
-1.20642e-05
-1.32718e-05
-0.00406422
0.00406791
-1.03846e-05
-1.14863e-05
-0.00407135
0.00407459
-8.92417e-06
-9.93577e-06
-0.0040776
0.00408045
-7.65302e-06
-8.5882e-06
-0.00408311
0.00408561
-6.54407e-06
-7.4152e-06
-0.00408795
0.00409016
-5.56773e-06
-6.39052e-06
-0.00409192
0.00412673
2.48777e-05
1.89985e-05
9.12397e-06
-1.93069e-05
0.00418867
3.48233e-07
0.00417947
-0.00411595
0.00415818
2.46679e-05
6.01705e-05
0.0041592
-0.00415862
4.49245e-05
0.00412715
2.87943e-05
-2.34077e-07
4.55703e-05
0.00416668
0.00419336
0.00415759
-0.00412549
-2.18883e-05
6.79592e-05
0.00408799
-0.00408562
-7.71617e-06
7.30386e-06
0.00408312
-0.00408043
-8.70871e-06
-8.6577e-06
0.0040776
-0.00407454
-9.83235e-06
-9.6962e-06
0.00407132
-0.00406784
-1.11199e-05
-1.08831e-05
0.00406416
-0.0040602
-1.25984e-05
-1.22462e-05
0.004056
-0.00405149
-1.4299e-05
-1.38143e-05
0.00404671
-0.00404155
-1.62489e-05
-1.56196e-05
0.00403608
-0.00408926
-1.84957e-05
-1.76866e-05
0.00407548
-0.00401718
-2.10591e-05
-2.00693e-05
0.0040522
-0.00400232
-2.40347e-05
-2.28152e-05
0.00399411
-0.00398528
-2.74179e-05
-2.59511e-05
0.00397589
-0.00396578
-3.12987e-05
-2.95595e-05
0.00395504
-0.00394348
-3.57184e-05
-3.36758e-05
0.0039312
-0.00391799
-4.07339e-05
-3.83573e-05
0.00390396
-0.00388891
-4.63979e-05
-4.36587e-05
0.00387296
-0.00381713
-5.27366e-05
-4.96357e-05
0.00377799
-0.00370866
8.65932e-06
-2.27699e-05
-0.00404816
-0.000151494
6.05065e-05
-0.00013762
-0.00369382
-0.00366668
1.85263e-05
-0.000213703
-0.00375237
2.37369e-05
0.00413479
0.0041348
3.7919e-05
-9.89714e-05
0.000102622
-0.00402452
-0.000115524
-0.00403161
3.18518e-05
-0.000132659
-0.00359301
-1.18127e-05
-0.00362302
-0.00402845
0.00416899
-0.00415531
1.09943e-05
0.00412765
6.50751e-05
7.04989e-05
-2.97447e-05
0.00412593
4.38166e-05
0.00416149
-0.00399324
0.00405551
-0.000177788
-0.000173597
0.000132164
-0.00399017
0.00406426
-1.59331e-05
0.00024361
-0.00429194
-0.000102576
-0.00406845
0.00405266
-0.000131742
-0.000164435
-0.00401551
0.00396544
-8.03169e-05
-9.58427e-05
-0.00394937
0.00392235
-5.74953e-05
-9.58845e-05
-0.00393517
0.00394722
-5.02796e-05
-5.38247e-05
-0.00395843
0.00396896
-4.38633e-05
-4.70508e-05
-0.00397876
0.00398797
-3.818e-05
-4.10381e-05
-0.00399654
0.0040046
-3.31732e-05
-3.57266e-05
-0.00401208
0.00401912
-2.87924e-05
-3.10676e-05
-0.00402565
0.00403181
-2.49673e-05
-2.70013e-05
-0.00403752
0.0040429
-2.16385e-05
-2.34495e-05
-0.00404791
0.00405264
-1.8726e-05
-2.03575e-05
-0.00405704
0.00406118
-1.62038e-05
-1.76673e-05
-0.00406503
0.00406866
-1.40158e-05
-1.53376e-05
-0.00407204
0.00407523
-1.21146e-05
-1.33161e-05
-0.0040782
0.00408101
-1.04603e-05
-1.15597e-05
-0.00408362
0.0040861
-9.01796e-06
-1.00312e-05
-0.0040884
0.00409059
-7.75197e-06
-8.69714e-06
-0.00410391
0.00411263
1.61622e-05
5.67669e-06
1.7484e-05
2.66266e-05
-1.05348e-05
0.00417258
-4.21758e-05
9.14936e-06
0.00416782
0.00416392
0.00415309
0.00414789
-0.00414192
3.89558e-05
-0.00414338
0.00412214
5.91601e-05
3.33e-05
0.00409268
-0.00410566
-8.91008e-06
1.87215e-05
0.00408844
-0.0040861
-1.00565e-05
-9.91665e-06
0.00408364
-0.00408099
-1.13583e-05
-1.11217e-05
0.00407819
-0.00407518
-1.28427e-05
-1.24935e-05
0.004072
-0.00406857
-1.45448e-05
-1.40647e-05
0.00406495
-0.00406105
-1.64991e-05
-1.58692e-05
0.00405692
-0.00405247
-1.87445e-05
-1.79436e-05
0.00404777
-0.00404269
-2.13229e-05
-2.03284e-05
0.00403731
-0.00403152
-2.42894e-05
-2.30691e-05
0.00402536
-0.00401873
-2.76922e-05
-2.62216e-05
0.00401169
-0.00400412
-3.16079e-05
-2.985e-05
0.00399607
-0.0039874
-3.60878e-05
-3.4006e-05
0.00397819
-0.00396827
-4.12107e-05
-3.87704e-05
0.00395774
-0.00394642
-4.70437e-05
-4.42073e-05
0.00393439
-0.00392146
-5.36566e-05
-5.03881e-05
0.00390774
-0.00389303
-6.1112e-05
-5.73791e-05
0.00387743
-0.00386071
-6.94535e-05
-6.52382e-05
0.00380947
-0.00372204
-7.87723e-05
-7.40065e-05
0.00366373
-0.00365319
-2.23587e-05
-3.97819e-05
-1.33389e-06
-1.75168e-05
-0.00360417
-0.00361569
-3.88339e-05
0.000136357
-0.00402872
-9.09276e-05
-0.00379411
3.65549e-05
0.00410024
0.00413762
2.83439e-05
0.000182187
-0.00418829
3.01131e-05
-0.00364064
0.000887158
-0.00333906
0.00434123
1.04439e-05
-5.35431e-05
-0.00357259
-4.55118e-05
-0.00354821
-0.00264366
0.00404661
0.000511654
-0.00202481
-0.000267872
-0.00398302
-0.00386021
0.00404276
6.10629e-05
0.000235686
-4.92881e-05
-0.00402035
0.00400023
-0.000157666
-8.01694e-05
-0.00398355
0.00394365
-9.18352e-05
-0.000147758
-0.00393386
0.00393431
-8.07619e-05
-8.60585e-05
-0.00391401
0.00392731
-7.07975e-05
-7.55883e-05
-0.00393972
0.00395138
-6.19436e-05
-6.62288e-05
-0.00396225
0.00397246
-5.40814e-05
-5.79175e-05
-0.00398198
0.00399093
-4.71288e-05
-5.05538e-05
-0.00399926
0.0040071
-4.10088e-05
-4.40585e-05
-0.00401439
0.00402124
-3.56488e-05
-3.83579e-05
-0.00402762
0.00403362
-3.09691e-05
-3.3377e-05
-0.0040392
0.00404446
-2.68923e-05
-2.90333e-05
-0.00404935
0.00405397
-2.33396e-05
-2.5252e-05
-0.00405826
0.00406231
-2.02525e-05
-2.19624e-05
-0.00406608
0.00406964
-1.75714e-05
-1.91068e-05
-0.00407295
0.00407607
-1.52409e-05
-1.66274e-05
-0.00407899
0.00408174
-1.3213e-05
-1.44724e-05
-0.0040843
0.00408673
-1.14454e-05
-1.25971e-05
-0.004089
0.00409114
-9.8987e-06
-1.09616e-05
-0.00410635
0.00413105
-8.54027e-06
-9.52726e-06
-0.00412275
0.00412176
1.19765e-05
2.57883e-05
-0.00413939
0.00413596
3.99848e-05
4.74515e-05
5.49101e-05
-3.05631e-05
0.00414347
-3.16388e-05
2.76599e-06
0.00416483
0.00412351
4.00268e-05
1.58339e-05
0.00411672
0.00417339
-2.63592e-05
1.63009e-05
0.00413599
0.00414256
-1.97989e-05
-2.14893e-06
0.00415956
0.00415799
0.00416058
-0.00414458
4.31537e-05
-0.00422608
0.00411471
0.000109224
-3.71517e-05
0.00413288
-0.00412266
2.8737e-05
2.16056e-05
0.0040932
-0.00409117
-1.09417e-05
-1.07432e-05
0.00408903
-0.00408673
-1.23528e-05
-1.20538e-05
0.00408431
-0.00408171
-1.3959e-05
-1.35405e-05
0.00407897
-0.00407602
-1.5796e-05
-1.52384e-05
0.0040729
-0.00406954
-1.79024e-05
-1.71848e-05
0.00406599
-0.00406217
-2.03205e-05
-1.94198e-05
0.00405812
-0.00405377
-2.30978e-05
-2.19878e-05
0.00404916
-0.00404419
-2.62882e-05
-2.49394e-05
0.00403893
-0.00403326
-2.99556e-05
-2.8333e-05
0.00402725
-0.00402077
-3.41675e-05
-3.22346e-05
0.00401391
-0.00400651
-3.90024e-05
-3.67185e-05
0.00399866
-0.00399021
-4.45376e-05
-4.18589e-05
0.00398124
-0.00397159
-5.086e-05
-4.77426e-05
0.00396134
-0.00395033
-5.80537e-05
-5.44529e-05
0.00393865
-0.0039261
-6.62002e-05
-6.20741e-05
0.0039128
-0.00389854
-7.53721e-05
-7.0684e-05
0.00388343
-0.00386725
-8.56277e-05
-8.03494e-05
0.00385013
-0.00383188
-9.70278e-05
-9.11241e-05
0.0037686
-0.00368133
-0.000109633
-0.000103055
0.00366653
-0.00363299
-8.70829e-05
-5.36296e-05
-5.11049e-05
3.25122e-05
-0.003554
-0.00358664
-9.74585e-05
0.000132088
-0.00397862
-2.38135e-05
-0.00374018
0.000335092
-0.00363623
3.23564e-05
-0.00371851
0.00413801
-0.00414277
4.47384e-05
0.00412464
1.61402e-05
4.63182e-05
-3.09652e-05
0.00414421
7.03395e-06
0.00415399
0.000348438
-0.00318415
6.12668e-05
-0.00357697
-0.0018151
-0.00209801
-0.00313632
0.0036336
1.43769e-05
-3.13032e-05
3.11432e-05
-0.00355384
-7.58864e-05
-0.00354206
-0.00288912
-0.000515072
-0.00387475
-0.00381282
0.00388128
-7.3908e-06
5.64615e-05
-0.00393047
0.00389487
-0.000122073
-0.000129358
-0.00386174
0.00387782
-0.000107915
-0.000114624
-0.00389295
0.00390727
-9.50851e-05
-0.00010119
-0.00392071
0.00393341
-8.34964e-05
-8.90289e-05
-0.00394528
0.00395647
-7.31315e-05
-7.81004e-05
-0.00396691
0.00397674
-6.39135e-05
-6.83587e-05
-0.00398591
0.00399454
-5.57585e-05
-5.97211e-05
-0.00400258
0.00401015
-4.85787e-05
-5.21005e-05
-0.0040172
0.00402384
-4.22853e-05
-4.54085e-05
-0.00403002
0.00403584
-3.67874e-05
-3.95558e-05
-0.00404125
0.00404636
-3.19949e-05
-3.44506e-05
-0.00405111
0.00405559
-2.78212e-05
-3.0005e-05
-0.00405977
0.00406371
-2.41906e-05
-2.61372e-05
-0.00406737
0.00407084
-2.10341e-05
-2.27754e-05
-0.00407406
0.00407711
-1.82888e-05
-1.98539e-05
-0.00407995
0.00408264
-1.58987e-05
-1.73132e-05
-0.00408514
0.00408751
-1.38156e-05
-1.51015e-05
-0.00408972
0.00409182
-1.19958e-05
-1.31733e-05
-0.00409378
0.00409564
-1.03991e-05
-1.14866e-05
-0.00413143
0.00411868
2.47324e-05
-1.00057e-05
2.3362e-05
4.16669e-05
-6.92292e-05
0.00417104
-1.46819e-05
2.67961e-05
0.00415272
0.0041505
-3.73405e-07
-9.85588e-07
0.00411808
0.00410378
-3.78573e-05
5.6162e-05
0.00411768
0.00410372
0.00418318
0.00416339
-0.00414976
2.95217e-05
-0.00411298
0.00415568
6.65238e-05
1.32543e-05
0.00413588
-0.00409568
-1.14603e-05
7.72759e-06
0.00409383
-0.00409184
-1.29274e-05
-1.25953e-05
0.00408976
-0.00408751
-1.45951e-05
-1.41418e-05
0.00408515
-0.00408261
-1.64989e-05
-1.59031e-05
0.00407993
-0.00407705
-1.86784e-05
-1.79185e-05
0.004074
-0.00407073
-2.11773e-05
-2.02292e-05
0.00406727
-0.00406354
-2.40447e-05
-2.28815e-05
0.0040596
-0.00405536
-2.73372e-05
-2.59278e-05
0.00405088
-0.00404605
-3.11188e-05
-2.94281e-05
0.00404093
-0.00403542
-3.5463e-05
-3.34511e-05
0.00402958
-0.0040233
-4.04505e-05
-3.80738e-05
0.00401663
-0.00400947
-4.617e-05
-4.33814e-05
0.00400186
-0.00399369
-5.27146e-05
-4.94639e-05
0.00398501
-0.00397569
-6.01826e-05
-5.64184e-05
0.0039658
-0.00395518
-6.86709e-05
-6.43426e-05
0.00394392
-0.00393185
-7.82716e-05
-7.33321e-05
0.00391906
-0.00390537
-8.90653e-05
-8.3474e-05
0.00389087
-0.00387539
-0.000101115
-9.48417e-05
0.00385902
-0.00384158
-0.000114465
-0.000107489
0.0038232
-0.0038037
-0.000129128
-0.000121441
0.00372066
-0.00366275
-0.000144989
-0.000136676
0.00360709
-0.00355872
-0.000124255
-0.000153122
-4.59831e-05
5.48968e-05
-0.00355097
-0.00351856
-8.614e-05
0.000101963
-0.00374549
6.55951e-06
-0.00371438
4.45988e-05
0.00410684
0.00414129
2.14231e-05
0.00020908
-0.00349687
-0.00038062
-0.00420444
-4.54241e-06
-0.00356023
3.46482e-05
-0.00369189
6.49998e-05
-0.00361082
-0.00413147
-0.000855657
0.000270779
-0.000570648
-0.0038316
-0.000212065
-0.0037216
3.60449e-05
-0.00353498
-9.03164e-05
1.08546e-05
-0.00347151
-7.43593e-05
-0.00353452
-0.00376623
-0.00344511
0.00361992
-0.000160441
0.00360416
-0.00393867
-0.000521143
-0.000356023
-0.00375125
0.00382293
-7.90681e-05
-7.48672e-05
-0.00384031
0.003857
-0.000138756
-0.000146741
-0.00387285
0.00388797
-0.000123031
-0.000130479
-0.00390222
0.00391575
-0.000108611
-0.000115445
-0.00392846
0.00394049
-9.55274e-05
-0.000101739
-0.00395176
0.0039624
-8.37749e-05
-8.93713e-05
-0.00397236
0.00398174
-7.32987e-05
-7.83097e-05
-0.0039905
0.00399876
-6.40188e-05
-6.84844e-05
-0.00400647
0.00401373
-5.58409e-05
-5.9807e-05
-0.0040205
0.00402688
-4.86658e-05
-5.21799e-05
-0.00403283
0.00403844
-4.2392e-05
-4.55027e-05
-0.00404366
0.00404858
-3.6919e-05
-3.96736e-05
-0.00405317
0.0040575
-3.21509e-05
-3.45944e-05
-0.00406154
0.00406535
-2.80001e-05
-3.01729e-05
-0.0040689
0.00407225
-2.43881e-05
-2.63267e-05
-0.00407538
0.00407834
-2.12442e-05
-2.2981e-05
-0.00408109
0.0040837
-1.85058e-05
-2.00695e-05
-0.00408613
0.00408843
-1.61182e-05
-1.75337e-05
-0.00409058
0.00409262
-1.40332e-05
-1.53225e-05
-0.00409452
0.00409633
-1.2208e-05
-1.33907e-05
-0.00409802
0.00413336
-1.06029e-05
-1.16968e-05
-0.00413777
0.00414865
3.38656e-05
1.89487e-05
-0.00409444
0.004113
2.60435e-05
7.03428e-05
6.50448e-05
-4.79371e-05
0.00413561
-9.60393e-06
-1.4978e-05
0.00413758
0.00416228
4.92462e-05
1.55842e-06
0.00412023
0.00415181
-2.88864e-07
-9.90526e-07
0.00411936
0.00410505
2.26316e-06
-3.53372e-06
0.00411895
0.00410499
-2.59982e-05
1.88724e-05
0.00415134
0.00415365
-1.095e-05
1.53505e-05
0.00413689
0.00416191
0.00417003
-0.00412181
1.8305e-05
-0.0041518
0.00412856
3.85831e-05
3.96577e-05
0.00412895
-0.00411865
1.92275e-05
2.03893e-05
0.00409809
-0.00409638
-1.31724e-05
-1.2835e-05
0.00409458
-0.00409265
-1.48566e-05
-1.43951e-05
0.00409062
-0.00408844
-1.67747e-05
-1.61711e-05
0.00408614
-0.00408367
-1.89671e-05
-1.81996e-05
0.00408107
-0.00407827
-2.14772e-05
-2.05219e-05
0.00407532
-0.00407214
-2.43544e-05
-2.31841e-05
0.00406878
-0.00406517
-2.76546e-05
-2.62384e-05
0.00406136
-0.00405725
-3.1442e-05
-2.97448e-05
0.00405291
-0.00404824
-3.57901e-05
-3.37717e-05
0.00404329
-0.00403797
-4.07816e-05
-3.83971e-05
0.00403234
-0.00402628
-4.6508e-05
-4.37081e-05
0.00401986
-0.00401296
-5.30689e-05
-4.98005e-05
0.00400565
-0.00399779
-6.05699e-05
-5.67766e-05
0.00398947
-0.00398053
-6.91196e-05
-6.47444e-05
0.00397106
-0.00396091
-7.88258e-05
-7.38128e-05
0.00395015
-0.00393864
-8.97886e-05
-8.40867e-05
0.00392645
-0.00391342
-0.000102094
-9.56604e-05
0.00389965
-0.00388496
-0.000115805
-0.00010861
0.00386946
-0.00385297
-0.000130955
-0.000122986
0.00383562
-0.00381722
-0.000147529
-0.000138799
0.0037979
-0.00377746
-0.000165426
-0.000155997
0.0037561
-0.00369581
-0.000184543
-0.000174483
0.00363644
-0.0035527
-0.000158094
-0.000145509
-0.000134143
7.76905e-05
-0.00347807
-0.00352923
-0.00015762
7.29445e-05
-0.00360935
-0.00396169
-0.000547624
6.34435e-05
-0.00356486
0.00416638
-0.00417572
3.5381e-05
0.00416374
-1.2336e-05
3.77618e-05
-3.23725e-05
0.0041315
4.78441e-05
0.00411848
7.50912e-06
-0.00368724
3.70001e-05
-0.00366389
-4.005e-05
-0.00373224
6.86704e-05
-0.00364345
0.000102555
-0.00362668
0.000138456
-0.00353227
-0.000125851
0.000131091
-0.00348331
-0.000189195
-0.00346588
-0.00368577
-0.00388115
0.00372317
-0.000363161
-0.00048167
0.000580102
-0.00406013
0.00401912
-0.00415234
-0.000348454
-0.000409654
-0.00360631
0.00368724
-0.000241373
-0.000239165
-0.00377864
0.003838
-0.000138433
-0.000166263
-0.0038544
0.00387007
-0.000154427
-0.000163139
-0.00388493
0.00389909
-0.000137191
-0.000145333
-0.00391245
0.00392514
-0.000121306
-0.000128809
-0.00393709
0.00394841
-0.000106848
-0.000113684
-0.00395903
0.00396908
-9.38241e-05
-9.9995e-05
-0.00397849
0.00398738
-8.21892e-05
-8.77209e-05
-0.0039957
0.00400355
-7.18665e-05
-7.67984e-05
-0.00401088
0.0040178
-6.27586e-05
-6.71386e-05
-0.00402425
0.00403035
-5.47584e-05
-5.86382e-05
-0.00403603
0.0040414
-4.77557e-05
-5.11878e-05
-0.0040464
0.00405112
-4.16408e-05
-4.46771e-05
-0.00405553
0.00405968
-3.63092e-05
-3.89988e-05
-0.00406356
0.00406723
-3.16644e-05
-3.4052e-05
-0.00407064
0.00407388
-2.76188e-05
-2.97449e-05
-0.00407689
0.00407974
-2.40948e-05
-2.59952e-05
-0.0040824
0.00408492
-2.10232e-05
-2.27294e-05
-0.00408727
0.00408949
-1.83436e-05
-1.98833e-05
-0.00409157
0.00409354
-1.60034e-05
-1.74005e-05
-0.00409538
0.00409713
-1.39562e-05
-1.52319e-05
-0.00409877
0.00410032
-1.21587e-05
-1.33333e-05
-0.00413094
0.00414706
1.77452e-05
-1.16647e-05
4.16792e-05
1.59659e-05
-4.26094e-05
0.00416225
-2.68537e-05
-3.18002e-06
0.00416761
0.00415139
-2.59722e-06
1.40689e-06
0.00412142
0.0041066
-2.09952e-07
-9.96972e-07
0.00412057
0.00410625
2.19858e-06
-3.3978e-06
0.00412015
0.00410619
-4.38312e-05
3.06198e-05
0.00416455
0.00410642
0.00416016
0.00416458
-0.00416602
1.97446e-05
-0.00415661
0.00413936
5.58325e-05
4.76231e-05
0.00413278
-0.00410038
-1.31699e-05
-1.2847e-05
0.00409884
-0.00409718
-1.48302e-05
-1.43814e-05
0.00409544
-0.00409358
-1.67226e-05
-1.61345e-05
0.00409161
-0.0040895
-1.88828e-05
-1.81341e-05
0.00408728
-0.0040849
-2.13528e-05
-2.04201e-05
0.00408238
-0.00407968
-2.41803e-05
-2.30374e-05
0.00407683
-0.00407376
-2.74198e-05
-2.60365e-05
0.00407052
-0.00406705
-3.11334e-05
-2.94755e-05
0.00406337
-0.00405942
-3.53928e-05
-3.3421e-05
0.00405524
-0.00405075
-4.02791e-05
-3.79492e-05
0.004046
-0.0040409
-4.58841e-05
-4.31463e-05
0.0040355
-0.0040297
-5.23083e-05
-4.91085e-05
0.00402356
-0.00401697
-5.96614e-05
-5.59411e-05
0.00400999
-0.0040025
-6.80587e-05
-6.37566e-05
0.00399457
-0.00398607
-7.76186e-05
-7.26727e-05
0.00397708
-0.00396745
-8.84569e-05
-8.28071e-05
0.00395726
-0.00394637
-0.00010068
-9.42722e-05
0.00393486
-0.00392258
-0.000114377
-0.000107167
0.00390962
-0.00389582
-0.000129609
-0.000121569
0.00388128
-0.00386584
-0.000146399
-0.000137524
0.00384961
-0.00383242
-0.000164718
-0.000155029
0.00381439
-0.00379535
-0.000184465
-0.000174023
0.00377545
-0.00375451
-0.000205485
-0.000194381
0.00368414
-0.00361469
-0.000227546
-0.000215874
0.00357298
-0.00355664
-0.000205537
-0.000199329
-0.000343025
0.000125115
-0.00350369
-0.00359453
-0.000159595
0.000166318
-0.00347261
-0.00348075
-0.000235491
1.99434e-05
-0.00356585
4.15852e-05
0.00411898
0.00417505
1.21551e-05
0.00028689
-0.00409476
-0.000344467
8.61534e-06
-0.00365886
0.00037277
-0.00414601
1.10622e-05
-0.00361597
3.92768e-05
-0.0036345
3.28108e-05
-0.00363994
7.24112e-05
-0.00361331
0.000107913
-0.00359614
0.000145443
-0.00354663
0.000147325
-0.00346431
-0.00019928
0.000172045
-0.00344537
-0.00021981
-0.00346022
-0.00365721
-0.00411835
0.00397639
-0.000206497
-0.000447761
-0.00400714
0.000360141
0.0042052
-0.0040775
-0.000575456
-0.000257622
-0.00388559
0.00382057
-0.000298137
-0.00031885
-0.00380201
0.0037707
-0.000210063
-0.000220606
-0.00380336
0.00385399
-0.000189068
-0.000198924
-0.00386936
0.003884
-0.000169072
-0.000178503
-0.00389785
0.00391104
-0.000150384
-0.000159183
-0.0039235
0.00393533
-0.000133144
-0.000141261
-0.00394648
0.00395706
-0.000117427
-0.000124832
-0.003967
0.00397642
-0.000103241
-0.000109935
-0.00398525
0.00399361
-9.05468e-05
-9.6554e-05
-0.00400144
0.00400884
-7.92666e-05
-8.46263e-05
-0.00401576
0.0040223
-6.93003e-05
-7.40622e-05
-0.00402842
0.00403419
-6.05353e-05
-6.47538e-05
-0.00403959