/*--------------------------------*- C++ -*----------------------------------*\
  =========                 |
  \\      /  F ield         | OpenFOAM: The Open Source CFD Toolbox
   \\    /   O peration     | Website:  https://openfoam.org
    \\  /    A nd           | Version:  10
     \\/     M anipulation  |
\*---------------------------------------------------------------------------*/
FoamFile
{
    format      ascii;
    class       volVectorField;
    location    "38";
    object      U;
}
// * * * * * * * * * * * * * * * * * * * * * * * * * * * * * * * * * * * * * //

dimensions      [0 1 -1 0 0 0 0];

internalField   nonuniform List<vector> 
28942
(
(0.00449123 -0.00228801 -3.33385e-22)
(0.00607804 -0.00237527 -6.14787e-23)
(0.0180085 -0.0124332 -8.50074e-22)
(0.103304 0.0182408 -5.34421e-21)
(0.102342 0.0222824 1.749e-21)
(0.018333 0.000612092 0)
(0.0218181 0.000185613 1.53874e-23)
(0.0252058 0.000789351 -1.3711e-23)
(0.135235 -0.0177918 -2.68427e-22)
(0.133855 -0.0161557 7.63056e-22)
(0.0100181 0.00411733 -6.48591e-22)
(0.0163877 0.00577269 2.43076e-22)
(0.00729007 0.00322733 0)
(0.0048207 0.00211848 0)
(0.0555507 0.00231367 -2.02736e-23)
(0.0534641 0.00305476 -7.46777e-24)
(0.0893398 0.0158625 6.76653e-22)
(0.0870271 0.0138361 1.08851e-21)
(0.012186 -0.0151368 2.97567e-21)
(0.0293848 -0.0305153 -7.83387e-22)
(0.0981915 0.0373204 9.67285e-22)
(0.0973596 0.0343614 0)
(0.0189768 0.00473569 1.15062e-21)
(0.00797701 0.00241542 5.40294e-22)
(0.0381386 0.00735248 9.25782e-22)
(0.0579685 0.00304061 -8.43976e-22)
(0.00765608 -0.0185075 8.59158e-21)
(0.00669996 -0.01657 -3.16265e-21)
(0.0356081 -0.0253777 5.89478e-22)
(0.0193514 -0.0137132 2.03879e-22)
(0.0187741 -0.00175568 0)
(0.0234765 -0.00159117 -1.79255e-23)
(0.0296446 0.00512875 3.68571e-22)
(0.0422717 0.00215757 -6.3278e-23)
(0.018856 0.0180329 1.33608e-21)
(0.0157431 0.0191422 -1.33511e-21)
(0.0322166 0.0376564 -3.09097e-21)
(0.0186944 0.0305666 -1.07824e-21)
(0.0101451 7.51921e-05 -1.286e-23)
(0.00866078 0.0162151 -2.64277e-21)
(0.030647 -0.00620339 0)
(0.0513396 -0.01097 0)
(0.11219 -0.0167547 -3.31233e-23)
(0.11169 -0.0167964 9.89912e-23)
(0.115298 -0.0164906 8.49948e-23)
(0.0353261 0.000337089 1.56863e-23)
(0.0329171 -0.000577159 -2.5581e-23)
(0.0465657 -0.000527673 -1.12162e-22)
(0.0446801 -0.000591563 3.17678e-23)
(0.0365413 -0.00318087 -2.72235e-22)
(0.0274536 -0.0039181 1.75297e-22)
(0.128111 0.00203639 -4.26926e-22)
(0.127478 0.00153704 -3.96486e-22)
(0.134587 -0.0206155 -3.82852e-24)
(0.133005 -0.0188898 1.45164e-22)
(0.0833503 0.00674196 7.00966e-22)
(0.10263 -0.000342156 2.38394e-22)
(0.00312789 0.00165863 -5.52041e-22)
(0.00911209 0.0037601 0)
(0.00840091 0.00335782 2.33041e-22)
(0.00294562 0.00152273 4.7606e-22)
(0.000376407 0.000235022 -3.9647e-22)
(0.000203265 0.000128705 -3.79673e-22)
(0.110221 -0.0425937 0)
(0.105451 -0.0255391 1.20279e-22)
(0.122307 -0.0329428 -3.98897e-23)
(0.123849 -0.0436355 0)
(0.0901695 -0.0327621 -6.47069e-22)
(0.0936793 -0.0352182 -4.2554e-22)
(0.00191334 -0.00114493 1.10169e-21)
(0.00252712 -0.00204351 -3.47254e-22)
(0.00494131 -0.00319697 8.61559e-22)
(0.0849721 -0.045732 0)
(0.0912867 -0.0395784 2.1977e-21)
(0.0806562 -0.0530157 5.94112e-22)
(0.114807 0.0121276 2.21293e-22)
(0.113491 0.00655259 -2.46044e-22)
(0.125811 0.0105678 -9.62904e-23)
(0.00470251 -0.0028732 -5.50064e-23)
(0.00636463 -0.00444326 4.66693e-22)
(0.0512102 -0.0312316 1.32805e-22)
(0.0333006 -0.0206134 -2.62013e-22)
(0.00214023 -0.000610926 3.17415e-21)
(0.00521364 -0.00210365 -1.23734e-21)
(0.101313 0.0482617 1.82307e-23)
(0.0972955 0.0552384 -7.84544e-22)
(0.0809241 0.054065 7.17493e-22)
(0.0473239 0.034571 -2.74431e-21)
(0.0445524 0.0316698 1.94376e-21)
(0.0295668 0.0206392 -1.16957e-22)
(0.0327912 0.0232943 -6.54225e-22)
(0.0380415 0.0284083 8.87728e-22)
(0.00452216 0.00281159 -5.4856e-23)
(0.0079724 0.0041022 -1.60394e-23)
(0.00327215 0.00206653 3.21411e-23)
(0.00196748 0.00168249 -4.27296e-22)
(0.00147916 0.00160929 5.22322e-22)
(0.0157769 0.0115661 -3.32338e-21)
(0.017531 0.0136592 7.62441e-22)
(0.00888561 -0.00389093 0)
(0.101389 0.0051605 0)
(0.0984 0.0156853 -4.00858e-21)
(0.0604362 0.0104758 1.98282e-21)
(0.0886748 0.0178825 0)
(0.13601 -0.0024041 0)
(0.135459 -0.00317425 0)
(0.133892 -0.0036251 -3.02897e-22)
(0.115016 0.0263969 -2.17321e-22)
(0.114114 0.0278144 2.14596e-21)
(0.113305 0.0252785 1.15153e-21)
(0.00235211 0.00133077 1.02605e-21)
(0.00155427 0.000796553 -1.15164e-21)
(0.0192894 -0.00562696 -5.33662e-22)
(0.0204227 -0.0051682 4.52587e-22)
(0.00923952 -0.00297741 8.92889e-22)
(0.00648278 0.0111567 1.49146e-21)
(0.0189856 0.0181717 3.48839e-21)
(0.0134805 0.0228194 2.72492e-22)
(0.00492621 0.0143179 -8.69986e-21)
(0.117345 0.0476813 5.78239e-23)
(0.108097 0.0581952 1.10014e-21)
(0.118595 0.0547852 -1.89752e-21)
(0.0391834 -0.0294722 7.44724e-22)
(0.0240647 -0.0172998 -4.7884e-22)
(0.00532527 -0.000743705 -4.13822e-21)
(0.00454177 -0.00359609 0)
(0.0125055 -0.00167485 2.02207e-21)
(0.0220108 -0.0161608 7.90636e-22)
(0.0343273 -0.0278318 -1.99043e-21)
(0.0441432 1.45608e-05 7.94072e-23)
(0.0468358 0.000182184 -5.57678e-23)
(0.0415358 0.000223905 -2.44503e-24)
(0.0281032 -0.0420026 0)
(0.029651 -0.042885 0)
(0.0896149 -0.0186562 -4.73567e-22)
(0.0995824 -0.0220951 3.21196e-21)
(0.0870314 -0.0252797 0)
(0.0472144 -0.0402456 0)
(0.0582904 -0.0514378 -7.96234e-22)
(0.0413799 0.0393815 2.11154e-21)
(-4.73007e-06 0.00021292 4.90734e-22)
(-0.00020011 0.00012859 -3.20213e-22)
(0.0223692 -0.0192734 -8.04214e-22)
(0.118802 -0.0160854 4.81627e-22)
(0.118156 -0.0161062 -9.23096e-23)
(0.116349 -0.0052001 -6.27687e-23)
(0.10937 0.00152058 8.36484e-23)
(0.118596 0.000366752 1.56678e-22)
(8.53265e-05 0.000261515 1.90837e-22)
(0.043839 0.0344706 3.25981e-21)
(0.062017 0.0463662 -8.02761e-22)
(0.0594759 0.0394349 -3.1143e-24)
(0.029105 -0.00105166 7.26029e-24)
(0.0286835 -0.00107742 3.92352e-23)
(0.0310691 -0.000920875 1.88846e-24)
(0.0346263 -0.000819035 -1.93205e-23)
(0.0455065 0.038138 1.34217e-22)
(0.0189962 0.0160826 0)
(0.000133529 -1.97492e-05 3.4729e-22)
(0.000421207 -0.000251387 -3.85348e-22)
(0.00188239 -0.00101456 2.66689e-22)
(0.0368574 -0.00784449 -1.81743e-21)
(0.0653204 -0.00223295 -7.3753e-22)
(0.0400545 -0.000401681 -2.3083e-24)
(0.0749129 -0.0075858 2.6897e-22)
(0.0710644 -0.0157372 4.7645e-23)
(0.0943822 0.0398573 2.17551e-21)
(0.091496 0.0454027 9.91864e-23)
(0.088795 0.0290477 1.23232e-21)
(0.0915231 0.0307578 -8.93045e-22)
(0.0987817 0.0410028 0)
(0.125734 -0.000916849 1.57209e-22)
(0.126463 -0.00137896 2.98234e-22)
(0.12797 -0.011766 -3.08681e-22)
(0.129423 -0.0115299 5.28935e-22)
(0.117082 0.0239014 2.67241e-22)
(0.119145 0.0247767 -7.57143e-22)
(0.11714 0.0259225 0)
(0.115167 0.0246817 1.57105e-22)
(0.116722 0.0278582 0)
(0.117268 0.0358982 -5.64958e-22)
(0.115813 0.0379692 -3.07813e-22)
(0.111447 0.0418226 -5.5212e-22)
(0.113838 0.0399347 0)
(0.116552 0.0429014 1.83115e-21)
(0.11383 0.0448474 4.73924e-23)
(0.108445 0.0440535 -3.09515e-22)
(0.0997543 0.0502079 -1.31068e-21)
(0.0985201 0.0454195 -2.30781e-22)
(0.0256301 -0.00875383 4.51828e-23)
(0.0336805 -0.00969827 -1.807e-23)
(0.00638901 -0.00252649 -6.67802e-22)
(0.0394018 -4.06941e-05 -5.22336e-23)
(0.0499989 -0.000303585 0)
(-6.94435e-06 -3.82199e-05 4.09591e-22)
(1.07566e-05 -4.6322e-05 2.09349e-22)
(0.0453815 -0.00212472 2.35541e-23)
(0.0532217 -0.00206266 9.16238e-24)
(0.0526843 -0.00139186 0)
(0.0439564 -0.000913711 1.03249e-23)
(0.104505 0.00332296 -1.35134e-22)
(0.104272 0.00297841 6.41518e-22)
(0.104832 0.0030484 3.02674e-22)
(0.000692883 0.000278438 3.80644e-22)
(-0.000159649 -0.00013082 -5.55051e-22)
(-0.000203449 -0.000173109 4.70402e-22)
(0.00153597 0.000637574 0)
(8.72678e-05 9.34839e-05 1.12574e-21)
(0.000181282 -3.46586e-05 -8.07412e-22)
(0.00754784 0.00372427 -9.79655e-22)
(0.00148129 0.000797395 -1.17516e-21)
(0.00174961 0.000875828 0)
(0.00157361 0.00754931 0)
(0.000577613 0.00328357 0)
(0.000313627 0.00197814 0)
(0.137057 -0.00249196 6.51547e-23)
(0.137943 -0.00237673 0)
(0.136453 -0.00333605 -7.56747e-23)
(0.088136 -0.0148405 4.4809e-21)
(0.0901417 -0.0152472 -1.62667e-21)
(0.0890555 -0.0128671 0)
(0.112698 8.44256e-05 -7.4628e-24)
(0.112884 7.71292e-05 1.49373e-23)
(0.1125 9.30783e-05 -5.0627e-24)
(0.113057 7.1055e-05 0)
(0.113221 6.73109e-05 -9.4909e-24)
(0.113373 6.22447e-05 0)
(0.113371 -9.58259e-05 0)
(0.113515 5.44392e-05 3.50929e-23)
(0.11351 -9.59792e-05 0)
(0.11322 -9.91816e-05 -9.55418e-24)
(0.113057 -0.000104119 0)
(0.112883 -0.000109525 4.99816e-24)
(0.112696 -0.000116376 -7.4659e-24)
(0.112499 -0.000123033 5.05637e-24)
(0.113646 4.69623e-05 -3.3581e-23)
(0.113642 -9.44464e-05 -1.17383e-24)
(0.112287 0.000103203 8.21792e-28)
(0.112285 -0.000128218 -7.75123e-24)
(0.112057 0.000113764 4.13205e-23)
(0.113768 4.18608e-05 3.13332e-26)
(0.113767 -9.06379e-05 -1.17164e-24)
(0.112056 -0.000136164 1.53022e-23)
(0.113883 3.67854e-05 3.14995e-23)
(0.113992 3.24755e-05 -3.14736e-23)
(0.113883 -8.72201e-05 2.36243e-24)
(0.113992 -8.37046e-05 4.65855e-24)
(0.111819 0.000130095 -4.02028e-23)
(0.111817 -0.000144988 -1.00785e-23)
(0.114093 2.81556e-05 0)
(0.114093 -8.06099e-05 -4.59488e-24)
(0.11156 0.000142762 4.98724e-27)
(0.111558 -0.000151917 -4.99975e-27)
(0.114188 2.44924e-05 0)
(0.114189 -7.74424e-05 0)
(0.111282 0.000154678 0)
(0.11128 -0.000160795 0)
(0.114277 2.07617e-05 0)
(0.114278 -7.4667e-05 2.2013e-24)
(0.110986 0.000167457 -2.10417e-23)
(0.110983 -0.000169628 -5.12933e-27)
(0.114361 1.76585e-05 1.1534e-25)
(0.114361 -7.17439e-05 -2.35093e-24)
(0.110668 0.000180148 2.11422e-23)
(0.110665 -0.000179779 0)
(0.114439 1.44944e-05 0)
(0.11444 -6.90948e-05 0)
(0.11033 0.000193856 -1.34277e-24)
(0.110326 -0.000189542 2.30717e-23)
(0.114512 1.17493e-05 1.42368e-23)
(0.114513 -6.63032e-05 0)
(0.109969 0.000206753 -1.45463e-25)
(0.109965 -0.000200494 -2.18384e-23)
(0.114581 8.81044e-06 -2.12908e-23)
(0.114582 -6.38696e-05 -6.17781e-24)
(0.109578 0.000215424 2.23249e-23)
(0.109575 -0.000212173 0)
(0.114646 6.28868e-06 7.01012e-24)
(0.114647 -6.10126e-05 4.11972e-24)
(0.109162 0.000228324 -1.13432e-23)
(0.109159 -0.000226771 2.30045e-23)
(0.114707 4.16596e-06 -2.79851e-23)
(0.114709 -5.72065e-05 3.15417e-23)
(0.108705 0.000231376 1.17315e-23)
(0.108707 -0.000244882 3.7185e-25)
(0.114765 2.315e-06 0)
(0.114767 -5.40761e-05 1.50307e-23)
(0.108218 0.000235215 -2.36689e-23)
(0.108223 -0.000269193 4.73538e-23)
(0.114821 2.31423e-07 0)
(0.114822 -5.23025e-05 0)
(0.108747 0.000704666 -1.16082e-23)
(0.10826 0.00073939 -4.71553e-23)
(0.107689 0.000234344 0)
(0.107702 -0.000303057 -2.42012e-23)
(0.109616 0.000633026 -7.25459e-24)
(0.109195 0.000669539 1.42578e-24)
(0.110363 0.000557713 0)
(0.109999 0.00059527 -2.33483e-23)
(0.111016 0.0004867 -4.47383e-26)
(0.1107 0.000521454 0)
(0.111587 0.000421786 0)
(0.111311 0.000453486 0)
(0.112088 0.000360285 0)
(0.111845 0.000391128 0)
(0.112518 0.000308223 9.9901e-24)
(0.112309 0.000333345 2.52509e-24)
(0.112899 0.00026526 -9.61591e-24)
(0.112717 0.000285698 -9.98597e-24)
(0.113231 0.000229043 1.70026e-23)
(0.113069 0.000244869 2.17769e-23)
(0.113524 0.000198114 0)
(0.113382 0.000213966 0)
(0.113778 0.000169893 -7.43343e-26)
(0.113655 0.000183529 0)
(0.114 0.000145018 0)
(0.113893 0.000157026 0)
(0.114196 0.000123343 0)
(0.114101 0.000133789 0)
(0.114367 0.000104487 0)
(0.114284 0.000113594 0)
(0.114518 8.80038e-05 0)
(0.114445 9.59533e-05 0)
(0.114651 7.35732e-05 0)
(0.114587 8.05479e-05 0)
(0.114769 5.88832e-05 -1.14348e-23)
(0.114711 6.69571e-05 0)
(0.114824 5.21683e-05 -3.69391e-24)
(0.114874 -2.33639e-06 3.60346e-24)
(0.114874 -5.09172e-05 -3.57347e-24)
(0.114713 -0.000115923 0)
(0.114825 -0.000104094 -1.46678e-23)
(0.114771 -0.000109504 -7.55437e-24)
(0.114587 -0.000130148 2.07084e-24)
(0.114652 -0.00012292 -8.10444e-24)
(0.114445 -0.000144814 6.71847e-26)
(0.114518 -0.000137549 0)
(0.114284 -0.000160507 0)
(0.114367 -0.000152401 0)
(0.1141 -0.00017849 0)
(0.114195 -0.000169194 0)
(0.113891 -0.000199109 0)
(0.113999 -0.000188427 8.88284e-30)
(0.113652 -0.000223005 7.52158e-26)
(0.113775 -0.000210581 0)
(0.11338 -0.000249326 0)
(0.11352 -0.000236183 0)
(0.113069 -0.000278241 0)
(0.113229 -0.000263383 0)
(0.112712 -0.000313365 0)
(0.112897 -0.000294275 -5.04676e-24)
(0.112303 -0.000355818 1.33707e-24)
(0.112514 -0.000335399 -6.53343e-24)
(0.111838 -0.000406266 0)
(0.11208 -0.000378916 -5.33096e-24)
(0.111303 -0.000461201 0)
(0.11158 -0.000432973 0)
(0.110691 -0.00052338 0)
(0.111008 -0.00049129 0)
(0.109991 -0.00059322 0)
(0.110353 -0.000557365 0)
(0.10919 -0.000670942 -5.93425e-24)
(0.109605 -0.000630011 0)
(0.108274 -0.00076739 -2.42304e-23)
(0.108749 -0.000714435 -5.98571e-24)
(0.107761 -0.000827143 2.47411e-23)
(0.107738 0.000776031 4.68183e-23)
(0.114876 4.64186e-05 7.22575e-24)
(0.114877 -9.91215e-05 -1.41169e-23)
(0.107137 -0.000346794 0)
(0.107211 -0.000900095 0)
(0.107178 0.000814028 0)
(0.107123 0.000227564 0)
(0.108831 0.00116952 0)
(0.10785 0.00131435 1.17001e-23)
(0.108357 0.0012393 1.17842e-23)
(0.109688 0.00103317 1.49009e-23)
(0.109274 0.00110092 -2.98104e-24)
(0.110426 0.000904878 4.58216e-26)
(0.110069 0.000967513 0)
(0.11107 0.00078966 0)
(0.110758 0.000845695 0)
(0.111632 0.000686746 0)
(0.11136 0.000736712 0)
(0.112125 0.00059592 0)
(0.111887 0.000639692 0)
(0.112554 0.000515407 0)
(0.112347 0.000554814 0)
(0.112929 0.000446904 -4.02834e-26)
(0.112747 0.000480664 1.04064e-23)
(0.113255 0.000386611 -3.85533e-26)
(0.113098 0.00041484 -2.02553e-23)
(0.113544 0.000333408 0)
(0.113404 0.000358966 0)
(0.113795 0.000287883 3.71285e-26)
(0.113674 0.000309806 0)
(0.114015 0.000248434 0)
(0.113909 0.000267465 0)
(0.114208 0.000214141 0)
(0.114115 0.000230686 0)
(0.114378 0.00018431 0)
(0.114296 0.000198712 0)
(0.114528 0.000158301 0)
(0.114455 0.00017086 0)
(0.114659 0.00013542 0)
(0.114595 0.000146534 0)
(0.114777 0.000113482 7.81066e-24)
(0.114719 0.000124444 0)
(0.114923 -4.54053e-06 0)
(0.114925 4.13239e-05 7.06344e-24)
(0.114882 9.40999e-05 0)
(0.114831 0.000103356 7.60954e-24)
(0.114832 -0.000155914 1.51516e-23)
(0.114883 -0.000147689 3.72098e-24)
(0.114925 -9.50708e-05 2.90161e-23)
(0.114923 -4.92733e-05 0)
(0.114721 -0.00017517 0)
(0.114778 -0.000165073 -2.28736e-23)
(0.114596 -0.000196711 6.5236e-26)
(0.114661 -0.000185497 8.15374e-24)
(0.114455 -0.000219778 -6.71844e-26)
(0.114528 -0.000207954 0)
(0.114295 -0.000245772 0)
(0.114378 -0.000232341 0)
(0.114114 -0.000275599 0)
(0.114207 -0.000260173 0)
(0.113906 -0.000309889 0)
(0.114013 -0.00029214 -8.88281e-30)
(0.11367 -0.000349392 -1.50389e-25)
(0.113792 -0.000328945 0)
(0.113401 -0.000394689 0)
(0.11354 -0.000371308 0)
(0.113092 -0.000446674 2.54567e-24)
(0.113252 -0.000419741 0)
(0.112741 -0.000505627 0)
(0.112923 -0.000474379 -2.53505e-24)
(0.112338 -0.000575285 5.33842e-24)
(0.112545 -0.00053978 5.29326e-24)
(0.111876 -0.000654519 0)
(0.112115 -0.000613617 0)
(0.111348 -0.000745003 0)
(0.111621 -0.00069828 0)
(0.110744 -0.000848131 0)
(0.111056 -0.000794903 0)
(0.110053 -0.000965239 0)
(0.11041 -0.00090485 0)
(0.109264 -0.00109768 9.51846e-26)
(0.109671 -0.00102938 0)
(0.108365 -0.00124697 -9.70902e-26)
(0.10883 -0.00117015 0)
(0.107333 -0.00143411 -2.55097e-23)
(0.107866 -0.00133634 2.5498e-23)
(0.107307 0.00139238 2.39347e-23)
(0.106625 -0.000984587 0)
(0.106762 -0.00154705 -5.22201e-23)
(0.106541 -0.000396397 0)
(0.11493 8.66109e-05 0)
(0.114931 -0.000139985 -3.61011e-24)
(0.106584 0.000854472 6.09466e-23)
(0.106729 0.00147461 2.44119e-23)
(0.105997 -0.00107506 1.32201e-23)
(0.106152 -0.00167028 6.60117e-23)
(0.106517 0.000218948 0)
(0.11489 0.000142815 2.97698e-23)
(0.114937 0.000131524 -1.47041e-23)
(0.114971 -9.10743e-05 -7.14511e-24)
(0.114976 -0.000132634 3.55274e-23)
(0.106948 0.00207521 8.52623e-23)
(0.106106 0.00156212 -4.8007e-23)
(0.105693 0.00234349 -2.16858e-22)
(0.10634 0.00220102 -4.87438e-23)
(0.108023 0.00183827 2.35883e-23)
(0.107503 0.00195498 -7.24257e-23)
(0.108966 0.00162009 -2.40577e-23)
(0.10851 0.00172697 -1.82318e-23)
(0.109796 0.00142283 -5.95811e-24)
(0.109395 0.0015199 -5.97874e-24)
(0.110518 0.00124568 -4.58216e-26)
(0.11017 0.00133183 0)
(0.111148 0.00108742 0)
(0.110843 0.00116425 0)
(0.111699 0.000947034 0)
(0.111433 0.00101508 0)
(0.112181 0.000823313 0)
(0.111948 0.000883147 0)
(0.112602 0.00071514 0)
(0.112398 0.000767351 0)
(0.112969 0.000620644 0)
(0.112792 0.000666344 0)
(0.113291 0.000538499 2.46957e-29)
(0.113136 0.000578206 0)
(0.113573 0.000466597 0)
(0.113436 0.000501243 0)
(0.11382 0.000404457 3.70968e-26)
(0.113701 0.000434403 0)
(0.114037 0.000350622 0)
(0.113932 0.000376589 0)
(0.114227 0.000303874 0)
(0.114135 0.000326431 0)
(0.114394 0.000263226 0)
(0.114313 0.000282847 0)
(0.114542 0.000227811 0)
(0.11447 0.000244918 0)
(0.114671 0.000196701 0)
(0.114609 0.000211798 0)
(0.114787 0.000168154 3.9808e-24)
(0.114731 0.000182099 -2.00322e-24)
(0.11484 0.000155083 -1.51865e-23)
(0.114968 -5.89039e-06 -3.38337e-24)
(0.114975 7.93539e-05 1.41507e-23)
(0.11497 3.66546e-05 -1.08174e-23)
(0.114968 -4.82443e-05 0)
(0.114841 -0.000207727 -1.12803e-23)
(0.114939 -0.000184783 -3.25538e-23)
(0.114891 -0.000195933 2.62183e-23)
(0.114732 -0.00023417 0)
(0.114788 -0.00022045 0)
(0.114609 -0.00026219 -1.68908e-29)
(0.114673 -0.000247485 0)
(0.11447 -0.000293947 0)
(0.114542 -0.000277586 0)
(0.114313 -0.000330112 -6.9113e-26)
(0.114394 -0.000311421 0)
(0.114133 -0.000371606 0)
(0.114226 -0.000350146 0)
(0.113929 -0.000419297 0)
(0.114035 -0.000394624 0)
(0.113697 -0.000474151 7.51843e-26)
(0.113817 -0.000445773 0)
(0.113432 -0.00053714 7.72285e-26)
(0.113569 -0.000504563 0)
(0.113129 -0.00060969 0)
(0.113285 -0.000572123 0)
(0.112782 -0.000692997 0)
(0.112961 -0.000649893 0)
(0.112386 -0.000788943 0)
(0.112591 -0.000739354 0)
(0.111933 -0.000898695 0)
(0.112167 -0.000841908 0)
(0.111415 -0.00102436 -8.81213e-26)
(0.111683 -0.000959458 0)
(0.110823 -0.00116758 0)
(0.111129 -0.00109368 0)
(0.110146 -0.0013301 0)
(0.110495 -0.00124633 0)
(0.109374 -0.00151349 -8.7172e-29)
(0.109773 -0.00141909 0)
(0.108497 -0.00171896 1.07392e-28)
(0.10895 -0.00161341 0)
(0.1075 -0.00195463 1.01016e-25)
(0.108014 -0.00183111 0)
(0.106361 -0.00224052 -5.35586e-23)
(0.106948 -0.00209042 1.31066e-23)
(0.105506 -0.00179802 1.34987e-23)
(0.105744 -0.00240171 2.6723e-23)
(0.105951 0.000892504 -2.37806e-23)
(0.105901 -0.00045208 -2.56158e-23)
(0.114982 0.000121409 3.6012e-24)
(0.114983 -0.000175021 2.55853e-23)
(0.105422 0.001641 2.95469e-24)
(0.10533 -0.00117607 0)
(0.104874 0.00240684 3.32695e-22)
(0.105094 -0.00256953 4.14812e-23)
(0.104831 -0.00193363 5.53434e-23)
(0.105197 0.00337115 -5.55606e-22)
(0.104728 0.00361384 1.00695e-22)
(0.105886 0.000211452 0)
(0.106126 0.002992 5.4952e-23)
(0.105615 0.00319955 2.84652e-23)
(0.107228 0.00264586 4.94118e-23)
(0.106672 0.00281016 -7.55373e-23)
(0.108248 0.00233653 -2.44463e-23)
(0.107755 0.00248935 -1.2237e-23)
(0.109148 0.00205554 1.21974e-23)
(0.108712 0.00219191 1.24122e-23)
(0.109942 0.00180239 0)
(0.109557 0.00192542 -3.3347e-26)
(0.11064 0.00157734 0)
(0.110302 0.0016866 0)
(0.11125 0.00137748 4.4589e-26)
(0.110955 0.0014744 0)
(0.111785 0.00120076 0)
(0.111527 0.00128637 0)
(0.112254 0.00104524 0)
(0.112027 0.00112047 0)
(0.112664 0.000909151 0)
(0.112466 0.000974902 0)
(0.113022 0.00079039 4.01922e-26)
(0.112849 0.000847751 0)
(0.113336 0.000686961 2.69708e-29)
(0.113185 0.000736904 0)
(0.113612 0.000596879 0)
(0.113478 0.000640344 0)
(0.113853 0.00051868 -7.41713e-26)
(0.113736 0.000556396 0)
(0.114065 0.000450843 0)
(0.113963 0.000483566 0)
(0.114252 0.000391935 0)
(0.114162 0.000420361 0)
(0.114416 0.000340714 0)
(0.114336 0.000365439 0)
(0.11456 0.0002961 0)
(0.11449 0.000317648 0)
(0.114687 0.000257027 0)
(0.114626 0.000275955 0)
(0.114801 0.000222237 -1.98844e-24)
(0.114746 0.000238955 0)
(0.114901 0.000191178 0)
(0.114852 0.000206252 -3.85664e-24)
(0.114991 0.000163247 8.29219e-28)
(0.114948 0.000176764 0)
(0.115017 7.26039e-05 -1.43473e-23)
(0.115033 0.000151398 8.66437e-25)
(0.115024 0.000112484 7.02742e-24)
(0.115011 -7.23099e-06 5.16034e-24)
(0.115013 3.25484e-05 -3.56195e-24)
(0.115014 -8.74234e-05 -1.7931e-24)
(0.115011 -4.72392e-05 1.79011e-24)
(0.115025 -0.000166584 0)
(0.115018 -0.000126739 -1.62835e-23)
(0.114949 -0.000230212 -7.32122e-24)
(0.115034 -0.000206612 -1.40028e-23)
(0.114993 -0.000217697 3.22071e-23)
(0.114854 -0.000258788 -3.84185e-24)
(0.114903 -0.000244016 0)
(0.114747 -0.000291185 0)
(0.114802 -0.000274463 0)
(0.114626 -0.000326622 -2.26875e-29)
(0.114688 -0.000308382 0)
(0.11449 -0.000366941 0)
(0.11456 -0.000346124 0)
(0.114335 -0.000413054 6.9113e-26)
(0.114415 -0.000389217 0)
(0.114159 -0.000465972 0)
(0.11425 -0.000438605 0)
(0.113959 -0.000526771 0)
(0.114063 -0.000495322 0)
(0.113732 -0.000596661 0)
(0.113849 -0.000560507 0)
(0.113472 -0.000676991 -4.3298e-29)
(0.113606 -0.000635438 0)
(0.113176 -0.000769405 0)
(0.113329 -0.00072159 0)
(0.112837 -0.000875626 0)
(0.113012 -0.000820666 0)
(0.112451 -0.000997677 0)
(0.11265 -0.000934588 0)
(0.112009 -0.00113749 0)
(0.112237 -0.00106521 0)
(0.111504 -0.00129736 8.81213e-26)
(0.111765 -0.00121481 0)
(0.110928 -0.00147941 0)
(0.111225 -0.00138549 0)
(0.11027 -0.0016858 0)
(0.11061 -0.00157946 0)
(0.109522 -0.00191843 -9.50884e-26)
(0.109908 -0.00179874 0)
(0.108673 -0.00217873 9.74694e-26)
(0.109111 -0.00204507 0)
(0.10771 -0.00246885 -9.98745e-26)
(0.108206 -0.00231988 0)
(0.106625 -0.00279791 1.31941e-23)
(0.107183 -0.00262594 -2.60043e-23)
(0.105414 -0.00317993 -1.33591e-23)
(0.106034 -0.00298206 2.71896e-23)
(0.104403 -0.00274319 6.11877e-25)
(0.104757 -0.00338535 2.76478e-23)
(0.105277 0.000918829 -2.4612e-23)
(0.105231 -0.000501308 0)
(0.104713 0.00168563 -2.38615e-22)
(0.104632 -0.00126435 0)
(0.115003 0.000206087 -3.60194e-24)
(0.115043 0.000191413 2.63877e-24)
(0.115064 -0.00015852 -1.37649e-23)
(0.115073 -0.000195585 -1.55991e-23)
(0.10411 0.0024113 -2.34528e-22)
(0.104116 -0.00207423 -5.58848e-23)
(0.104112 0.0036321 0)
(0.105556 0.00398721 -6.46651e-23)
(0.103679 -0.0029245 -2.74192e-23)
(0.104063 -0.00359693 4.20891e-23)
(0.104956 0.00414342 1.29439e-22)
(0.105214 0.000202318 0)
(0.106541 0.00357056 0)
(0.106047 0.003785 -5.72548e-23)
(0.107561 0.00317357 0)
(0.107052 0.00336972 0)
(0.108516 0.00280251 0)
(0.108051 0.00298346 1.26777e-23)
(0.109366 0.00246774 0)
(0.108953 0.00263087 0)
(0.110121 0.00216604 0)
(0.109755 0.00231275 0)
(0.110789 0.00189682 0)
(0.110466 0.00202755 0)
(0.111376 0.00165771 -4.4589e-26)
(0.111092 0.00177365 0)
(0.111891 0.00144636 0)
(0.111642 0.00154873 0)
(0.112343 0.0012604 0)
(0.112124 0.00135036 0)
(0.11274 0.00109754 0)
(0.112548 0.00117625 0)
(0.113087 0.000955382 -3.55429e-29)
(0.112919 0.00102405 0)
(0.113392 0.00083155 3.20464e-29)
(0.113244 0.000891324 0)
(0.113659 0.000723758 0)
(0.11353 0.000775785 0)
(0.113894 0.000630071 2.66559e-29)
(0.11378 0.000675274 0)
(0.1141 0.000548702 0)
(0.114 0.000587961 0)
(0.114282 0.000477999 0)
(0.114194 0.00051212 0)
(0.114442 0.000416502 0)
(0.114364 0.000446189 0)
(0.114583 0.000362941 0)
(0.114514 0.000388808 0)
(0.114707 0.000316165 0)
(0.114647 0.000338779 0)
(0.114817 0.000275135 0)
(0.114764 0.000295007 0)
(0.114916 0.000238233 3.82624e-24)
(0.114868 0.000255893 3.91521e-24)
(0.114961 0.000221408 -7.34156e-24)
(0.115057 6.65105e-05 -7.03885e-24)
(0.115072 0.000140929 0)
(0.115063 0.000103967 -7.10943e-24)
(0.115051 -8.51049e-06 0)
(0.115052 2.921e-05 7.1836e-24)
(0.115053 -8.42963e-05 1.07228e-23)
(0.115051 -4.65096e-05 -3.62398e-24)
(0.115058 -0.000121216 -2.10757e-23)
(0.114962 -0.000275086 3.69107e-24)
(0.115045 -0.000244779 1.37322e-23)
(0.115005 -0.00026032 0)
(0.114869 -0.000308923 -7.6486e-24)
(0.114917 -0.000291493 7.67387e-24)
(0.114765 -0.000346996 0)
(0.114819 -0.000327587 0)
(0.114647 -0.000389682 -2.81836e-29)
(0.114708 -0.000367659 0)
(0.114514 -0.000438406 0)
(0.114583 -0.000413233 0)
(0.114363 -0.00049421 0)
(0.114441 -0.000465361 0)
(0.114192 -0.000558244 0)
(0.11428 -0.00052513 0)
(0.113997 -0.000631787 0)
(0.114097 -0.00059375 0)
(0.113775 -0.000716294 7.50679e-26)
(0.113889 -0.000672582 0)
(0.113522 -0.00081343 -7.71852e-26)
(0.113653 -0.000763182 0)
(0.113234 -0.000925116 0)
(0.113383 -0.000867341 0)
(0.112905 -0.00105344 0)
(0.113075 -0.000987062 0)
(0.11253 -0.00120074 0)
(0.112724 -0.0011246 0)
(0.112102 -0.00136943 0)
(0.112323 -0.00128226 0)
(0.111614 -0.00156211 0)
(0.111866 -0.00146263 0)
(0.111058 -0.00178133 0)
(0.111345 -0.00166826 0)
(0.110425 -0.00202956 -9.25199e-26)
(0.110751 -0.0019017 0)
(0.109705 -0.00230897 9.48463e-26)
(0.110076 -0.00216527 0)
(0.108891 -0.00262129 -9.71926e-26)
(0.109311 -0.00246096 0)
(0.107971 -0.0029679 0)
(0.108444 -0.00279027 0)
(0.106937 -0.00334964 0)
(0.107468 -0.00315423 0)
(0.105788 -0.00376962 1.05543e-25)
(0.106379 -0.0035534 1.33526e-23)
(0.104509 -0.00423856 -7.03802e-23)
(0.105163 -0.00399756 0)
(0.103336 -0.00382543 -4.16933e-23)
(0.10382 -0.00449174 -5.96524e-25)
(0.104569 0.000940516 7.71279e-23)
(0.104523 -0.000548012 0)
(0.115082 0.000177588 -1.37056e-23)
(0.115083 -0.000231852 -2.6455e-23)
(0.103925 0.00169995 -4.11396e-23)
(0.103632 0.00320011 5.99273e-25)
(0.103325 0.00243932 1.18756e-22)
(0.103905 -0.00134896 0)
(0.103364 -0.00220396 1.41003e-23)
(0.104182 0.0042702 -1.19276e-22)
(0.103472 0.00431477 1.03681e-22)
(0.103035 0.00345827 -1.01908e-22)
(0.102916 -0.00310339 -4.23509e-23)
(0.10257 -0.00405106 2.83963e-23)
(0.103098 -0.00476391 2.7671e-23)
(0.104502 0.000190957 0)
(0.105933 0.00455377 3.59794e-24)
(0.104609 0.00499326 -5.54786e-25)
(0.105297 0.00476632 2.79866e-23)
(0.106959 0.00410244 2.7518e-23)
(0.106465 0.00432881 -2.7661e-23)
(0.107922 0.00365645 5.0239e-26)
(0.107443 0.00387779 0)
(0.108813 0.00323877 0)
(0.108379 0.00344315 0)
(0.109614 0.00285712 0)
(0.109225 0.00304344 0)
(0.110329 0.00251161 0)
(0.109982 0.00267985 0)
(0.110962 0.00220189 4.56025e-26)
(0.110655 0.00235239 0)
(0.111522 0.00192622 0)
(0.111251 0.00205995 0)
(0.112014 0.0016823 0)
(0.111776 0.00180047 0)
(0.112448 0.00146755 0)
(0.112238 0.00157146 0)
(0.112828 0.00127929 0)
(0.112644 0.00137029 0)
(0.113163 0.00111483 -4.01566e-26)
(0.113001 0.00119427 0)
(0.113456 0.000971477 3.73265e-29)
(0.113314 0.00104069 0)
(0.113715 0.000846677 0)
(0.11359 0.000906919 0)
(0.113942 0.000738127 7.40649e-26)
(0.113832 0.000790515 0)
(0.114141 0.000643753 0)
(0.114045 0.000689298 0)
(0.114317 0.000561686 0)
(0.114232 0.000601298 0)
(0.114473 0.000490265 0)
(0.114397 0.000524747 0)
(0.114609 0.000428044 0)
(0.114543 0.000458094 0)
(0.11473 0.000373746 0)
(0.114672 0.000399985 0)
(0.114838 0.000326236 6.23522e-26)
(0.114786 0.000349216 0)
(0.114933 0.000284126 -3.84296e-24)
(0.114887 0.00030468 0)
(0.115018 0.000246137 3.65491e-24)
(0.114977 0.000264551 0)
(0.115094 0.000212876 3.48802e-24)
(0.115057 0.000229041 -3.56637e-24)
(0.115108 0.000130893 6.89339e-24)
(0.115129 0.000197789 0)
(0.115118 0.000165332 1.02614e-23)
(0.115094 6.12991e-05 0)
(0.1151 9.60912e-05 0)
(0.115087 -9.78381e-06 0)
(0.115089 2.59926e-05 0)
(0.11509 -8.14114e-05 0)
(0.115088 -4.5696e-05 0)
(0.115101 -0.000151305 1.40287e-23)
(0.115095 -0.000116438 3.48617e-24)
(0.115119 -0.000219989 3.44998e-24)
(0.115109 -0.00018583 2.74955e-23)
(0.115059 -0.000283509 1.79171e-23)
(0.11513 -0.00025393 3.43488e-24)
(0.115095 -0.000267992 -6.97771e-24)
(0.114978 -0.000318434 3.68312e-24)
(0.11502 -0.000300368 -2.20787e-23)
(0.114888 -0.000357715 -2.32907e-29)
(0.114935 -0.000337464 0)
(0.114787 -0.000401363 0)
(0.114839 -0.000378837 0)
(0.114672 -0.000451127 -3.36387e-29)
(0.114731 -0.000425427 0)
(0.114543 -0.000508027 0)
(0.11461 -0.000478624 0)
(0.114396 -0.000573219 0)
(0.114472 -0.000539517 0)
(0.11423 -0.000648004 0)
(0.114316 -0.000609334 0)
(0.114041 -0.000733857 0)
(0.114138 -0.000689457 0)
(0.113826 -0.000832467 -1.50079e-25)
(0.113937 -0.000781464 0)
(0.113581 -0.000945768 0)
(0.113707 -0.000887163 0)
(0.113303 -0.00107595 0)
(0.113446 -0.00100862 0)
(0.112986 -0.00122544 0)
(0.113149 -0.00114814 0)
(0.112624 -0.00139687 0)
(0.112811 -0.00130826 0)
(0.112213 -0.00159305 -8.56211e-26)
(0.112425 -0.00149171 0)
(0.111744 -0.00181689 0)
(0.111986 -0.00170135 0)
(0.111212 -0.00207128 0)
(0.111487 -0.00194011 0)
(0.110607 -0.00235893 9.25199e-26)
(0.110919 -0.00221081 0)
(0.109922 -0.00268222 -1.55244e-28)
(0.110275 -0.00251602 0)
(0.109147 -0.00304295 1.9421e-25)
(0.109546 -0.00285784 0)
(0.108276 -0.00344217 0)
(0.108724 -0.00323776 0)
(0.107301 -0.00387962 0)
(0.107802 -0.00365615 0)
(0.106215 -0.00435256 -2.66505e-28)
(0.106772 -0.00411191 0)
(0.105013 -0.00486 0)
(0.105628 -0.00460205 0)
(0.103693 -0.00542324 -4.20772e-23)
(0.104368 -0.00513372 0)
(0.102344 -0.00503564 -5.5747e-25)
(0.102988 -0.00572894 7.17262e-23)
(0.103799 0.00094883 0)
(0.103929 0.0051467 1.62825e-22)
(0.103123 0.00171074 2.81913e-23)
(0.115109 0.000247847 -3.48146e-24)
(0.115142 0.00023139 0)
(0.115152 -0.000209264 3.36163e-24)
(0.115163 -0.000240503 -6.66448e-24)
(0.103781 -0.000594163 0)
(0.103139 -0.00143346 0)
(0.102594 0.00259323 0)
(0.102576 -0.00233247 -1.38876e-23)
(0.102113 -0.0032898 -2.80998e-23)
(0.101766 -0.00428902 0)
(0.101553 -0.00531273 7.26493e-23)
(0.10225 -0.00603471 -5.78692e-23)
(0.103747 0.000176915 0)
(0.105151 0.00564121 -1.34619e-26)
(0.103172 0.00529192 5.15531e-23)
(0.10382 0.00610401 -1.84111e-22)
(0.104502 0.00588074 5.35279e-23)
(0.106371 0.00510358 -1.7346e-23)
(0.105772 0.00536348 -2.77482e-23)
(0.107389 0.0045997 0)
(0.106903 0.00485051 0)
(0.108303 0.00410858 -5.02344e-26)
(0.107853 0.00435159 0)
(0.109138 0.00364771 0)
(0.108731 0.0038738 0)
(0.109889 0.00322343 0)
(0.109524 0.00343082 0)
(0.11056 0.00283782 0)
(0.110234 0.00302577 0)
(0.111157 0.00249097 -4.56025e-26)
(0.110868 0.00265963 0)
(0.111686 0.00218152 0)
(0.11143 0.00233171 0)
(0.112154 0.00190728 0)
(0.111927 0.00204018 0)
(0.112566 0.00166556 0)
(0.112366 0.00178255 0)
(0.112929 0.00145343 0)
(0.112753 0.00155599 0)
(0.113249 0.00126792 4.00687e-26)
(0.113094 0.00135755 0)
(0.11353 0.00110608 4.23621e-29)
(0.113394 0.00118423 0)
(0.113778 0.000965087 0)
(0.113658 0.00103316 0)
(0.113996 0.00084236 -3.50003e-29)