/*--------------------------------*- C++ -*----------------------------------*\
  =========                 |
  \\      /  F ield         | OpenFOAM: The Open Source CFD Toolbox
   \\    /   O peration     | Website:  https://openfoam.org
    \\  /    A nd           | Version:  10
     \\/     M anipulation  |
\*---------------------------------------------------------------------------*/
FoamFile
{
    format      ascii;
    class       volScalarField;
    location    "19";
    object      p;
}
// * * * * * * * * * * * * * * * * * * * * * * * * * * * * * * * * * * * * * //

dimensions      [0 2 -2 0 0 0 0];

internalField   nonuniform List<scalar> 
6397
(
0.249347
0.234768
-0.0248511
-0.0375738
-0.0601325
-0.045817
0.437849
0.170459
-0.493787
-0.465411
0.363462
0.238692
-0.000955735
-0.0012275
-0.00734368
-0.419953
-0.403142
-0.397906
0.840418
0.780334
0.746064
-0.500643
-0.455436
-0.459263
-0.000812571
-0.00177579
-0.000437004
-0.122001
-0.135788
-0.0920507
-0.0999009
-0.0587665
-0.0419178
-0.0521377
-0.0672532
-0.0506753
-0.0643213
-0.0458362
-0.0395924
-0.0453762
-0.060631
-0.0494685
-0.0847422
-0.0496673
-0.0416306
-0.0337526
-0.0525246
-0.0416559
-0.0166479
-0.00984677
-0.00744631
0.001661
-0.00403423
0.33415
0.319917
0.173719
0.185107
0.0081213
-0.124112
-0.141749
-0.107736
-0.0955629
-0.0891661
-0.0878435
-0.0919375
-0.102015
-0.119795
-0.145592
-0.170725
-0.154699
-0.187489
-0.149025
-0.127822
-0.11167
-0.101832
-0.09772
-0.0990288
-0.106263
-0.120494
-0.141701
-0.194528
-0.160279
-0.178647
-0.168219
-0.191023
-0.157002
-0.214947
-0.195872
-0.178187
-0.148409
-0.246805
-0.218762
-0.16053
-0.141225
-0.264765
-0.229119
-0.204539
-0.155905
-0.182107
-0.224265
-0.219528
-0.196424
-0.216417
-0.143794
-0.169874
-0.109214
-0.122981
-0.0992177
-0.101484
-0.11216
-0.102554
-0.146497
-0.127557
-0.179331
-0.165741
-0.182213
-0.221019
-0.285633
-0.260601
-0.14093
-0.177829
-0.0922354
-0.111882
-0.0734573
-0.079469
-0.0759961
-0.0720164
-0.0975176
-0.084674
-0.121736
-0.110851
-0.124708
-0.126175
-0.108959
-0.117428
-0.122605
-0.10908
-0.130821
-0.172979
-0.221467
-0.289272
-0.28664
-0.2967
-0.152109
-0.124272
-0.105745
-0.0739016
-0.163417
-0.132904
-0.0702848
-0.260838
-0.222849
-0.194325
-0.249347
-0.243014
-0.216701
-0.239976
-0.1539
-0.185392
-0.110227
-0.128341
-0.0925441
-0.0988107
-0.0957205
-0.0913273
-0.117896
-0.105321
-0.136495
-0.129759
-0.134951
-0.212982
-0.257321
-0.129533
-0.168093
-0.0788324
-0.10011
-0.0570707
-0.0655145
-0.0545072
-0.0538378
-0.0694969
-0.060571
-0.0893353
-0.0809997
-0.0943682
-0.0945935
-0.0836993
-0.0901809
-0.0785835
-0.106007
-0.0973236
-0.107537
-0.108511
-0.274293
-0.261553
-0.197783
-0.0780268
-0.0626896
-0.0848037
-0.125049
-0.271429
-0.230834
-0.228528
-0.0783747
-0.0677976
-0.0869166
-0.103223
-0.0813904
-0.055731
-0.0560697
-0.235439
-0.164581
-0.131378
-0.232026
-0.199454
-0.263225
-0.255345
-0.228221
-0.253343
-0.15876
-0.193999
-0.106417
-0.128866
-0.080801
-0.0911786
-0.0742625
-0.0751965
-0.0850249
-0.0784128
-0.0938079
-0.0917069
-0.0895269
-0.276438
-0.288735
-0.19482
-0.240779
-0.112525
-0.150452
-0.0634456
-0.0842963
-0.0409714
-0.0498297
-0.0347423
-0.0361478
-0.0437735
-0.0374853
-0.05975
-0.0520975
-0.0654653
-0.0647321
-0.0615737
-0.0643643
-0.0582777
-0.0903786
-0.0864418
-0.0901482
-0.0473717
-0.219761
-0.164386
-0.175065
-0.180694
-0.0678315
-0.100523
-0.0705341
-0.0642033
-0.0729555
-0.0667072
-0.0400751
-0.0419229
-0.0962001
-0.0741363
-0.0374178
-0.0341656
-0.0581483
-0.0566642
-0.197145
-0.158903
-0.124655
-0.230188
-0.195658
-0.266174
-0.256108
-0.229209
-0.255811
-0.155888
-0.193077
-0.0982441
-0.123486
-0.0661937
-0.0798138
-0.0509334
-0.0565796
-0.051383
-0.0495858
-0.0532798
-0.0537509
-0.0380174
-0.0478821
-0.0160923
-0.0256558
-0.0136614
-0.0122642
-0.252073
-0.159086
-0.212697
-0.247328
-0.264057
-0.165929
-0.21059
-0.0910151
-0.125229
-0.0463718
-0.0652779
-0.024883
-0.0335265
-0.0166548
-0.0194434
-0.0208738
-0.01715
-0.0329148
-0.0267897
-0.0400584
-0.0374024
-0.0397081
-0.0401754
-0.0393212
-0.0775925
-0.0770317
-0.0752388
-0.125508
-0.10542
-0.0360025
-0.0181844
-0.174843
-0.132042
-0.0565632
-0.0592065
-0.0243527
-0.028557
-0.136556
-0.0836696
-0.0614239
-0.0873569
-0.0556738
-0.0426751
-0.0260444
-0.0455232
-0.157877
-0.0865659
-0.0479481
-0.0649242
-0.146842
-0.113858
-0.218456
-0.182978
-0.256097
-0.245118
-0.219539
-0.246221
-0.144766
-0.182823
-0.0849164
-0.111401
-0.0494121
-0.0648982
-0.0283345
-0.0372865
-0.0208752
-0.0230265
-0.0179237
-0.0200922
-0.00399448
-0.0125596
0.0078936
0.0036401
0.00325358
0.00709752
-0.0111948
-0.00262037
-0.135172
-0.0321961
-0.0807113
-0.218896
-0.185216
-0.204464
-0.224201
-0.131296
-0.170462
-0.0672991
-0.0960647
-0.029147
-0.045457
-0.0097262
-0.0176873
-0.000722051
-0.00427867
-0.00113234
0.000435924
-0.00986783
-0.00505397
-0.0164138
-0.0140146
-0.0196205
-0.018227
-0.0215405
-0.0291609
0.00594806
-0.0386489
-0.0234699
-0.0508239
-0.0342245
-0.0627275
-0.0571049
-0.068929
-0.0666847
-0.0675857
-0.0694287
-0.0576122
-0.0635109
-0.0426611
-0.050578
-0.0346432
-0.13663
-0.107488
-0.103798
-0.0756122
-0.0602126
-0.0595719
0.0349144
-0.00485975
-0.054999
-0.0400176
-0.0571863
-0.0388004
-0.026664
-0.126209
-0.074228
-0.0544815
-0.128965
-0.0991864
-0.197057
-0.163146
-0.234016
-0.223103
-0.199525
-0.225249
-0.126504
-0.163769
-0.067382
-0.093679
-0.0313491
-0.0472435
-0.0079789
-0.0183854
0.00422924
-0.000522798
0.0112423
0.00748976
0.0223087
0.0166083
0.0254588
0.0257657
0.0168141
0.0219031
0.00156329
0.0103429
-0.0248558
-0.0101395
-0.00716813
0.0669547
0.0342818
-0.106672
-0.0561726
-0.172244
-0.148841
-0.155624
-0.174626
-0.0942651
-0.125774
-0.0437266
-0.0663914
-0.012866
-0.0262702
0.00396626
-0.00306896
0.0127571
0.00900929
0.0150519
0.0149317
0.00938131
0.0129094
0.00276556
0.00573356
-0.00202015
0.00019964
-0.0103557
-0.00551671
-0.023533
-0.0161512
-0.032082
-0.0665915
-0.0586975
-0.0637521
-0.0668376
-0.0676699
-0.060057
-0.0643009
-0.0474591
-0.0544056
-0.0317206
-0.0398636
0.0581209
0.0922135
-0.0619714
-0.0430001
-0.0170424
-0.0240702
-0.109382
-0.0932317
-0.0809797
-0.0755206
-0.0401735
-0.0709753
0.0145906
-0.0752183
0.11168
0.0776523
-0.0833973
-0.0648818
-0.0901049
0.125636
0.126132
0.135685
-0.0908575
-0.0443421
-0.0637863
-0.010411
-0.00912677
-0.00369313
-0.105317
-0.0296204
-0.0187635
-0.0603314
-0.0432191
-0.107848
-0.0816771
-0.168194
-0.137844
-0.203192
-0.192384
-0.171492
-0.195581
-0.102434
-0.137669
-0.046715
-0.0714873
-0.0126191
-0.0277126
0.0104146
-8.89633e-05
0.0250156
0.0187097
0.0345437
0.0299963
0.0415069
0.0389531
0.0380404
0.0411642
0.0275021
0.0331614
0.0119135
0.0205727
-0.011796
0.00116274
-0.0267872
0.0834233
0.108224
0.0110107
0.0508388
-0.0753594
-0.033236
-0.123485
-0.107939
-0.10489
-0.120795
-0.0593312
-0.08231
-0.0222251
-0.0390274
0.00162044
-0.00893986
0.0157863
0.00972067
0.0238255
0.0202666
0.0277525
0.0264591
0.0249052
0.0271546
0.0185813
0.0217813
0.0121275
0.0155123
0.00188619
0.00748564
-0.0133444
-0.00508501
-0.0228543
-0.0695795
-0.0657383
-0.0720765
-0.0721288
-0.0665072
-0.0702457
-0.0547069
-0.0612256
-0.0394722
-0.0473489
-0.0232731
-0.0313544
-0.0157002
-0.091828
-0.0879338
-0.06506
-0.0839675
-0.0244619
-0.0919141
0.0313955
-0.105517
0.0947287
-0.118876
0.138696
0.135228
-0.124457
-0.0843054
-0.119313
0.130623
0.135355
0.125289
-0.103876
-0.0570964
-0.0707998
-0.00250886
0.00246141
-0.00407078
0.00181726
-0.0940162
-0.0204807
-0.0111073
-0.0459621
-0.0318277
-0.0848688
-0.063343
-0.135132
-0.109645
-0.166365
-0.156189
-0.138775
-0.1603
-0.0749615
-0.107669
-0.0235408
-0.0463124
0.00742504
-0.00623707
0.0286288
0.0188154
0.0435985
0.0368582
0.0529396
0.0489314
0.0540864
0.0546416
0.0468859
0.0512604
0.0355698
0.041567
0.0202538
0.0285172
-0.000912153
0.0103022
-0.0273956
-0.0136354
-0.0422466
0.123273
0.130112
0.0878933
0.109337
0.0258823
0.0595001
-0.0405977
-0.00904566
-0.0730617
-0.0632093
-0.0592866
-0.0702044
-0.0294756
-0.0445732
-0.00383587
-0.0157001
0.0139777
0.00592278
0.0256231
0.0204836
0.0327032
0.0295383
0.0372209
0.0353235
0.0368448
0.037813
0.0312995
0.0345336
0.0237562
0.0277986
0.0127375
0.0187826
-0.00311563
0.00532353
-0.0133259
-0.0774986
-0.069806
-0.0843222
-0.0822382
-0.0807909
-0.0839837
-0.0684608
-0.0754099
-0.0513933
-0.0602875
-0.0333272
-0.0422598
-0.0166732
-0.0247796
-0.00910785
-0.0819095
-0.0915776
-0.0549294
-0.103464
-0.0126617
-0.124418
0.0464861
-0.147558
0.109305
-0.163539
0.137248
-0.164383
0.114608
0.125806
-0.148036
-0.0814376
-0.119861
0.00541225
-0.0912328
0.00182692
0.0103734
0.00714018
-0.0118557
-0.00427264
-0.0321713
-0.0210165
-0.0622543
-0.0455323
-0.101098
-0.0812163
-0.127049
-0.118097
-0.104677
-0.122727
-0.0473756
-0.0771914
0.000364192
-0.0208188
0.0286459
0.0163104
0.0471964
0.0386747
0.0597586
0.0542712
0.0648179
0.0632968
0.0616095
0.0641779
0.0528645
0.057673
0.0413732
0.0474223
0.0266879
0.0344914
0.00807932
0.0178231
-0.0139785
-0.00260119
-0.0367359
-0.0254291
-0.0543872
-0.0466276
0.119452
0.102747
0.113414
0.115766
0.120288
0.0884571
0.105175
0.0417125
0.0666744
-0.00595521
0.0164207
-0.0291065
-0.021624
-0.0231589
-0.0286245
-0.0058142
-0.0149108
0.0111274
0.00304538
0.0241473
0.0181308
0.0335102
0.0292435
0.0397026
0.0369237
0.0440633
0.0420682
0.0454509
0.0453275
0.0416406
0.0442138
0.0339521
0.0381706
0.0229289
0.0287934
0.00717981
0.0156577
-0.0144339
-0.00282399
-0.0274764
-0.0987989
-0.0790364
-0.091002
-0.102754
-0.102754
-0.0925832
-0.0992022
-0.0731882
-0.0835581
-0.0505446
-0.061958
-0.0290913
-0.0394373
-0.0114791
-0.0197861
0.00251304
-0.0039862
0.0114999
0.0079004
0.0986999
0.0880146
-0.0881759
-0.0589023
-0.080157
-0.106639
-0.0294516
-0.0514876
-0.135381
0.0156107
0.015853
0.0192231
-0.00430128
-0.169932
0.061069
-0.200371
0.119852
-0.214228
0.131522
-0.204604
0.109647
-0.172707
0.0694808
0.0778715
-0.129686
-0.0894963
-0.060039
-0.0988146
0.00675906
0.0112816
-0.0041383
0.00175353
-0.0195203
-0.0112585
-0.0414934
-0.0297689
-0.0690319
-0.0549216
-0.0883287
-0.0813728
-0.0714052
-0.0855108
-0.0226214
-0.0486294
0.0213454
0.00155544
0.047498
0.0362745
0.0626978
0.0560449
0.0707317
0.0675945
0.0714817
0.0719943
0.0660322
0.0693594
0.056712
0.0616454
0.045385
0.0513015
0.031663
0.038852
0.0153514
0.0237669
-0.00301248
0.00621138
-0.0213135
-0.0125333
-0.0346401
-0.028763
-0.0392028
-0.0379995
0.0918629
0.0621646
0.0783399
0.108089
0.10183
0.107506
0.110189
0.0886737
0.10041
0.0558295
0.0732965
0.0221072
0.0380645
0.00350157
0.0103908
0.0031554
0.00156704
0.0121464
0.00709287
0.0229124
0.0175822
0.0322645
0.0278326
0.039649
0.0361916
0.0450423
0.0425789
0.0489916
0.0471521
0.051194
0.0504255
0.0495755
0.0510005
0.043129
0.0468627
0.0329256
0.0383409
0.0187176
0.026169
-0.0016303
0.00962825
-0.0149674
-0.101236
-0.084974
-0.121982
-0.11398
-0.122812
-0.124986
-0.106204
-0.116248
-0.0800364
-0.0937327
-0.0519007
-0.065838
-0.0266422
-0.0386959
-0.00721781
-0.0161037
0.00677344
0.000303731
0.0119855
0.0477354
0.0434372
-0.0578623
-0.0384867
-0.0880035
-0.134167
0.0183701
0.0212845
-0.0540513
-0.179719
0.00307155
-0.226256
0.0758982
-0.25791
0.123152
-0.262785
0.116117
-0.237026
0.086264
-0.187024
0.0528268
-0.131665
0.0230196
0.0235223
-0.0854647
0.0230963
0.00499347
0.00120528
-0.0824876
-0.0531043
-0.0360968
-0.118
0.0111623
0.0150923
0.00260648
0.00717235
-0.0086856
-0.00261595
-0.0237499
-0.0157664
-0.0412895
-0.0324573
-0.0529044
-0.0488411
-0.0400867
-0.0503745
-0.00141979
-0.0225077
0.0368505
0.0192223
0.0604013
0.0504012
0.0723495
0.0674849
0.0764896
0.0752669
0.0745397
0.0761617
0.0684702
0.0718361
0.058915
0.0638309
0.0480112
0.0536528
0.0354078
0.0419307
0.0211
0.0284388
0.00558556
0.0134163
-0.0093456
-0.00222808
-0.0202488
-0.0157273
-0.0243991
-0.0230997
-0.023241
-0.0242333
0.0564198
0.0403826
0.0824314
0.0705425
0.0975227
0.0915224
0.0995631
0.100256
0.0874981
0.095263
0.06484
0.0769803
0.0407462
0.0522691
0.0250932
0.0314064
0.021427
0.0219921
0.0253133
0.0227963
0.0319003
0.028485
0.038537
0.0353
0.0443016
0.0415401
0.0489446
0.0467733
0.0524826
0.050831
0.0548522
0.053866
0.0547052
0.0551696
0.050604
0.0531669
0.0423036
0.0469067
0.0298769
0.0366509
0.0113011
0.0216352
-0.0171851
-0.0014844
-0.0335752
-0.121222
-0.103304
-0.142814
-0.134708
-0.141174
-0.145055
-0.119309
-0.132195
-0.0874222
-0.103939
-0.0545591
-0.0706898
-0.0258853
-0.0395073
-0.0041815
-0.0140405
0.0103157
0.00380417
0.0186592
0.0153216
0.0237181
0.0211927
-0.103725
-0.172554
-0.0215686
-0.032982
0.0247042
0.0261461
0.0258046
-0.0132875
-0.0123174
-0.0586187
-0.233353
0.0131441
-0.285256
0.0877892
-0.309118
0.114858
-0.297601
0.0920042
-0.252452
0.0579513
-0.187267
0.0242172
-0.1244
-0.0134928
-0.00639235
-0.0210821
-0.0316256
-0.00273979
-0.0767432
-0.021286
0.0257233
-0.0362539
0.0263709
-0.14648
0.020679
0.0227388
0.0151146
0.0179852
0.00843083
0.0118716
0.00040047
0.00461137
-0.00925857
-0.00428081
-0.0190419
-0.0143409
-0.023544
-0.0225081
-0.01226
-0.0204216
0.0169694
0.000958171
0.0475871
0.0331903
0.0673821
0.0589713
0.0766693
0.0730982
0.0786106
0.0783944
0.0754057
0.0775236
0.0688826
0.0724428
0.0598829
0.0645507
0.0496228
0.0549056
0.0381093
0.0440152
0.0255379
0.0319297
0.0124144
0.0189991
-3.65078e-05
0.00596417
-0.00915848
-0.00523507
-0.0132703
-0.0119055
-0.0136001
0.0239021
0.00881423
0.0519682
0.0384035
0.0743927
0.0641351
0.0884052
0.0825714
0.09186
0.0914542
0.0845179
0.0894607
0.0689128
0.077389
0.0515627
0.0599455
0.0387144
0.0442142
0.033747
0.0353161
0.0347266
0.0337163
0.0385864
0.0364591
0.0432502
0.0409027
0.0477333
0.0455412
0.0516643
0.0497841
0.0548409
0.0533486
0.0571502
0.0561228
0.0578025
0.057734
0.055556
0.0570898
0.0496549
0.0530367
0.0395378
0.0452047
0.023087
0.0322715
-0.00474695
0.0102333
-0.0209793
-0.0923931
-0.0675437
-0.133741
-0.11453
-0.157284
-0.148543
-0.154234
-0.159136
-0.129092
-0.143763
-0.0934214
-0.111814
-0.0573247
-0.0749733
-0.0262805
-0.0409957
-0.00258974
-0.0134224
0.0128875
0.00608773
0.0210647
0.0179429
0.0229298
-0.0478273
0.0264296
-0.0198172
-0.0110955
-0.121982
-0.217419
-0.0597364
-0.28746
0.025587
-0.333879
-0.0301517
0.0919939
-0.340603
0.093064
-0.30767
0.0601711
-0.245977
-0.0346573
-0.0228417
-0.0321495
-0.0463554
0.0247793
-0.173759
-0.0484997
-0.00735748
-0.108246
-0.0436674
-0.0302917
-0.0669638
0.0272499
-0.025972
-0.0479535
-0.0185392
-0.0101327
-0.0305706
-0.178814
0.02495
0.0266148
0.0259015
0.0222408
0.0237381
0.0181805
0.0203309
0.0132269
0.0157514
0.00776189
0.0105494
0.00208418
0.00488372
-0.00224839
-0.000413881
-0.00154449
-0.00284037
0.00975948
0.00255828
0.0320722
0.0200551
0.0553005
0.0442752
0.0708619
0.0642093
0.0779257
0.0753131
0.078612
0.0789225
0.0748876
0.0771872
0.0681763
0.0718427
0.0600072
0.0643043
0.0505255
0.0553974
0.0400772
0.045406
0.0289638
0.0345751
0.0177318
0.0233187
0.00733865
0.0123441
-0.000477014
0.00299068
-0.00445421
-0.00291995
-0.0050837
-0.00516188
-0.00352254
-0.00448704
-0.00936799
-0.00172628
-0.00264211
-9.82081e-05
-0.011982
0.0249788
0.0124194
0.0485056
0.0371131
0.0677544
0.0588217
0.0804613
0.0750675
0.084747
0.0836439
0.0805782
0.0836331
0.0698799
0.0757919
0.0570671
0.0634305
0.0469259
0.051482
0.0418416
0.0437366
0.0412971
0.0411308
0.043422
0.0421432
0.0466757
0.0449804
0.050164
0.0484241
0.0534554
0.0518522
0.056288
0.0549398
0.0584514
0.0574689
0.0594109
0.0591139
0.0582928
0.0591601
0.0542213
0.0566605
0.0461365
0.050831
0.0315695
0.039935
0.00699856
0.0203356
-0.0205636
-0.00695076
-0.0318543
-0.0939993
-0.0684472
-0.136137
-0.116062
-0.162159
-0.153133
-0.159136
-0.164098
-0.133217
-0.14837
-0.0963106
-0.115342
-0.0589988
-0.077241
-0.0269566
-0.0421357
-0.00221266
-0.0136233
0.0142167
0.00705457
0.0227946
0.0194412
0.0266667
0.0248256
0.0273517
-0.1361
-0.260688
-0.000532779
0.00523511
0.00685628
-0.0538998
-0.328814
-0.0426758
0.0370924
-0.35909
0.0814608
-0.342677
-0.0280553
-0.0393487
-0.0256458
-0.0288164
-0.0438217
0.0595615
-0.289231
-0.0556513
0.0219167
-0.220715
-0.00873326
-0.017783
-0.0633935
-0.0129086
-0.151488
-0.0649797
-0.0408143
-0.0913678
-0.058024
0.0265696
0.0272181
0.0268988
0.028076
-0.0204493
-0.0169057
0.0277704
-0.207851
0.0252919
0.0259949
0.0233138
0.0243775
0.0204584
0.0219901
0.0170475
0.0187795
0.0135791
0.0152779
0.0107304
0.0120087
0.00993997
0.00995093
0.0137651
0.0110929
0.0250062
0.0183958
0.042752
0.0334074
0.060397
0.0520428
0.0722758
0.067187
0.0774867
0.0756314
0.0773891
0.0779891
0.0735387
0.0758403
0.0669956
0.0705744
0.0595922
0.0635199
0.0509143
0.0553658
0.0414846
0.0462724
0.0316502
0.0365901
0.0219447
0.0267397
0.0131848
0.0173844
0.00648819
0.00951526
0.00287863
0.00424065
0.00194326
0.00204398
0.00315004
0.00238402
0.00403005
-0.0128532
-0.0202236
0.00552118
-0.0041516
0.0261737
0.0157679
0.0459077
0.0363075
0.0622925
0.054642
0.0736979
0.0687657
0.0784152
0.0769436
0.0763398
0.0781314
0.0690657
0.0731719
0.0596583
0.064434
0.0516667
0.0553482
0.0470067
0.0488837
0.0457422
0.04602
0.0467946
0.0460603
0.0490621
0.0478358
0.0517861
0.050401
0.054528
0.0531735
0.0570147
0.0558168
0.0589895
0.058085
0.0600243
0.0596496
0.0594716
0.0599921
0.0564792
0.0583425
0.0498975
0.0537924
0.0373943
0.0446295
0.0173051
0.0281708
-0.00451057
0.00594475
-0.0142505
-0.0470248
-0.0174665
-0.0297814
-0.087863
-0.0658701
-0.129973
-0.109573
-0.156172
-0.146378
-0.154824
-0.158856
-0.130555
-0.144993
-0.0951123
-0.11347
-0.0587027
-0.0765607
-0.0271193
-0.0420903
-0.00242696
-0.0138993
0.0146719
0.00714153
0.0239858
0.0202211
0.0276152
0.0261531
0.0282479
0.000741651
0.00896779
-0.139808
-0.291321
-0.057266
-0.0436067
-0.346038
-0.0296412
-0.0165173
-0.0146505
-0.0282819
0.0388075
-0.354009
-0.0386586
-0.0453903
0.0521472
-0.316362
-0.0619046
0.0168399
-0.250253
-0.00834913
-0.0269421
-0.0753671
-0.0221389
-0.181062
-0.0177031
-0.0840906
-0.0540677
-0.118843
-0.0848493
-0.0749231
0.0272065
-0.0109793
0.00225871
0.0114173
-0.225994
0.0262916
0.0265538
0.0264152
0.0254195
0.0258784
0.0240314
0.024767
0.0221372
0.023143
0.0199654
0.0210487
0.0180578
0.0189375
0.0171809
0.0174287
0.0185758
0.0175017
0.0239747
0.0206741
0.0346433
0.0286637
0.0491119
0.041638
0.0628847
0.0563941
0.0720742
0.0681439
0.0759506
0.0746237
0.075425
0.0761514
0.0717129
0.0738899
0.0658299
0.0689853
0.0588444
0.0624744
0.0509346
0.0549806
0.0424478
0.0467418
0.0337402
0.0380951
0.0253066
0.0294518
0.0178476
0.0214074
0.0121494
0.0147391
0.00888218
0.0101861
0.00804156
0.00821704
0.00908826
0.00836084
0.0115576
0.0100852
0.0160313
0.013496
0.0143992
0.0232005
0.0191065
-0.0143454
-0.0165227
-0.00432855
-0.0101419
0.0105434
0.00266433
0.0274218
0.0188877
0.043933
0.0358542
0.0576874
0.0513326
0.0680752
0.0637032
0.0728658
0.0711912
0.0721825
0.0731247
0.0673066
0.0701353
0.0604531
0.0640163
0.0541802
0.0571204
0.0501374
0.0518409
0.0486199
0.049098
0.0490392
0.0486428
0.0506253
0.0497333
0.0527618
0.0516557
0.0550437
0.0539036
0.0571893
0.0561484
0.0589492
0.058136
0.0599391
0.059564
0.0596407
0.0599887
0.0572919
0.0587777
0.0518074
0.055041
0.0414682
0.0473069
0.0254913
0.0340236
0.00773892
0.0163717
-0.00652736
3.08555e-05
-0.0103305
-0.0424557
-0.0273185
-0.0781977
-0.0594421
-0.11656
-0.0977706
-0.141541
-0.131801
-0.14239
-0.145026
-0.121871
-0.13427
-0.0899226
-0.106637
-0.0561733
-0.0728105
-0.0263135
-0.0404399
-0.00263395
-0.0137125
0.0146397
0.00686654
0.0246849
0.0205532
0.0282831
0.0269785
0.0286357
0.028798
0.0272771
0.0280933
-0.0737447
-0.135558
-0.299542
0.0263994
-0.0151952
-0.0117425
-0.0253812
-0.0359542
-0.335242
0.0280151
0.0186442
-0.0497454
-0.0445408
0.0208557
-0.320781
0.00416756
-0.0649257
0.00612702
-0.266033
-0.0081509
-0.0366239
-0.0839664
-0.0340438
-0.197071
-0.0183723
-0.0996326
-0.0716012
-0.135243
-0.0273052
-0.109455
-0.0968363
-0.088907
-0.108613
0.033622
0.0415948
0.0458949
-0.00770465
-0.00137088
-0.225891
0.0258768
0.024734
0.0252515
0.0258041
0.0258161
0.0252922
0.0255518
0.0244663
0.0249162
0.0233278
0.0239272
0.0221408
0.0227146
0.0214231
0.0216879
0.0219036
0.0214617
0.0245902
0.0229064
0.0306131
0.0271351
0.0404075
0.0350778
0.0523958
0.0462971
0.0634183
0.0582393
0.0707341
0.0676097
0.07373
0.0727369
0.0730339
0.0737766
0.0695992
0.0715942
0.0642971
0.0671305
0.0578726
0.0611963
0.050696
0.0543582
0.043076
0.0469206
0.0353634
0.0392065
0.0280094
0.0316091
0.0216103
0.0246522
0.0167801
0.0189708
0.013964
0.0151069
0.0133729
0.0133838
0.0144102
0.0136702
0.0172398
0.0155727
0.0223288
0.0195141
0.0300993
0.0257161
0.0356402
-0.000257679
0.00856951
0.00328722
-0.00552388
-0.00334279
-0.00468331
-0.00613828
0.00293785
-0.00166876
0.0148982
0.0085087
0.0286822
0.0216227
0.0425934
0.0357453
0.0551151
0.0490571
0.0635103
0.0596677
0.068064
0.0663201
0.0682991
0.0686714
0.0651086
0.0670311
0.0601215
0.0626955
0.055264
0.0575783
0.0518749
0.0533463
0.050356
0.0508966
0.0504189
0.0502264
0.0515378
0.0508826
0.0532257
0.0523376
0.0551207
0.0541661
0.0569502
0.056058
0.0584779
0.0577676
0.0593531
0.0590184
0.0591405
0.0594134
0.0571816
0.0584274
0.0525353
0.0552687
0.0439804
0.0488092
0.031063
0.0380248
0.0164449
0.0237625
0.0035379
0.00961584
-0.00267291
-0.000757387
-0.036415
-0.0244109
-0.0665806
-0.0506274
-0.0993664
-0.0832399
-0.121831
-0.112727
-0.124717
-0.125878
-0.108744
-0.118692
-0.0815766
-0.0959731
-0.0516437
-0.0665285
-0.0245561
-0.0375112
-0.00253623
-0.0128958
0.0142306
0.0065175
0.0250173
0.0203875
0.028604
0.0273776
0.0287567
0.0289449
0.0272051
0.0280861
0.0263613
-0.0208164
-0.125714
-0.286896
0.0391402
0.0448635
0.0511797
0.00132699
0.023426
0.0246609
-0.0601046
-0.0415097
-0.0430204
-0.302832
0.00769617
-0.0645756
-0.0210017
-0.270034
-0.00738682
-0.0458411
-0.0885957
-0.0531516
-0.206052
-0.0196928
-0.111056
-0.0931544
-0.139919
-0.0371146
-0.0292086
-0.130037
-0.124434
-0.0923703
-0.140493
-0.139786
0.0175866
-0.00422207
-0.014148
-0.21377
0.0248912
0.024659
0.0250808
0.0250492
0.0249631
0.0250678
0.0246214
0.0248352
0.0241087
0.0243795
0.0237063
0.0238741
0.0238858
0.0236917
0.0252939
0.0243942
0.0287123
0.0267083
0.034847
0.0314205
0.043705
0.0389844
0.0537499
0.048692
0.0627712
0.0585422
0.0687529
0.066197
0.0711679
0.0703832
0.070447
0.0711476
0.0673409
0.0691385
0.0625773
0.0651231
0.0567529
0.0597664
0.0502709
0.0535737
0.0434437
0.0468799
0.0366119
0.0400053
0.0301871
0.0333206
0.0246762
0.0272861
0.020587
0.0224308
0.0182763
0.0191988
0.0178702
0.0178491
0.0192069
0.0182998
0.0223704
0.0205125
0.0278488
0.0248368
0.0359453
0.031511
0.0464279
0.0411744
0.0408126
0.0503857
0.0574493
0.0514456
0.00858324
0.0178923
0.0121789
0.00374094
0.005834
0.00347786
0.00287155
0.00907441
0.00559112
0.018563
0.0134958
0.0299567
0.0241059
0.0416721
0.0358911
0.0521057
0.0471239
0.0596548
0.0562473
0.0639419
0.0622235
0.0647635
0.0647515
0.0627706
0.0640477
0.0591663
0.0610668
0.0554361
0.0572377
0.0526595
0.0538916
0.0512636
0.0517922
0.051142
0.0510673
0.0519425
0.0514545
0.0532852
0.0525691
0.054854
0.054059
0.0563969
0.0556418
0.0576875
0.0570892
0.0584104
0.0581381
0.058189
0.0584427
0.0564577
0.0575497
0.0524325
0.0547807
0.0451997
0.0492559
0.0344752
0.0402254
0.0220994
0.0283179
0.0108899
0.0161696
0.00360561
0.00650179
-0.0120963
-0.00392485
-0.0297971
-0.0202082
-0.0543805
-0.0412333
-0.0813189
-0.0680814
-0.100723
-0.0925889
-0.104992
-0.104959
-0.0934261
-0.100932
-0.0714294
-0.0832655
-0.0459296
-0.0587368
-0.0220691
-0.033587
-0.00210287
-0.0115466
0.0135891
0.00625823
0.0245449
0.0197646
0.028643
0.0273279
0.0285368
0.0288875
0.0268609
0.0278234
0.0256091
0.032963
-0.0656818
-0.0369076
-0.123116
-0.261496
0.0222935
0.0262268
0.0143118
-0.0612047
-0.0741307
-0.260578
0.0201777
0.0601418
0.066122
-0.00442195
0.0207303
0.010995
-0.052653
-0.0893312
-0.0844028
-0.214775
-0.0204387
-0.117808
-0.12511
-0.147047
-0.0461494
-0.0323837
-0.14516
-0.159146
-0.0892762
-0.0402654
-0.168198
-0.178039
-0.0597998
0.0347003
0.0449962
-0.180984
0.0547568
-0.0190635
-0.0302876
-0.199552
0.0236916
0.0233132
0.0242024
0.024052
0.0244519
0.0243688
0.0245295
0.0245169
0.0245411
0.0245333
0.0247668
0.0246078
0.0256289
0.0250904
0.0276734
0.0264705
0.0314848
0.0293307
0.0374722
0.0342042
0.045508
0.0412615
0.0539657
0.049708
0.0614904
0.0579682
0.0664857
0.0643482
0.0684968
0.0678492
0.0678183
0.0684532
0.0650437
0.0666485
0.0607797
0.0630609
0.0555365
0.0582508
0.0497055
0.0526736
0.0436008
0.0466676
0.0375513
0.0405473
0.0319349
0.0346646
0.0271859
0.029426
0.0237353
0.0252782
0.0218987
0.0226064
0.021778
0.0216317
0.0233426
0.0223498
0.0268446
0.0248098
0.0324946
0.0293548
0.0405956
0.0362063
0.0505561
0.0455109
0.0623823
0.0557288
0.0363488
0.0294348
0.0422315
0.0254547
0.0331005
0.016197
0.0199553
0.0114067
0.0134091
0.0103058
0.0102011
0.0143171
0.0117546
0.0218363
0.0177684
0.0312009
0.0263787
0.0409729
0.0361283
0.0497779
0.045567
0.0564409
0.0534103
0.0604134
0.0587694
0.0615927
0.061328
0.0604409
0.061247
0.0578766
0.05926
0.0550364
0.0564277
0.0527981
0.0538084
0.051576
0.0520566
0.0513701
0.051361
0.0519506
0.0515829
0.0530231
0.0524449
0.054316
0.0536577
0.0556019
0.0549726
0.0566646
0.0561756
0.0572231
0.0570236
0.0569414
0.0572083
0.0553329
0.0563336
0.0517394
0.0538191
0.0454568
0.0489536
0.0363296
0.0411945
0.0256558
0.0310249
0.0156951
0.0203965
0.0084332
0.0115274
0.0043614
0.00594506
-0.00888438
0.00057571
-0.00303308
-0.0237073
-0.0157349
-0.0433513
-0.0329287
-0.0647618
-0.0542169
-0.0809261
-0.0739609
-0.0857729
-0.0849794
-0.077887
-0.0832752
-0.0607647
-0.0701383
-0.0397419
-0.050421
-0.0192303
-0.0292368
-0.00146696
-0.00991744
0.0127796
0.00605468
0.0236368
0.0187214
0.0282575
0.0267797
0.0280566
0.0285005
0.0260744
0.0272397
0.0225524
0.0244503
0.0213374
0.0237545
-0.0559754
-0.141284
-0.23708
0.0209637
0.0706263
0.00329078
0.00214159
0.0360489
0.0246587
0.0360956
0.0279609
-0.0526703
-0.0867811
-0.131396
-0.222791
-0.0186388
-0.11985
-0.166019
-0.166643
-0.0522061
0.0472939
-0.0353015
-0.154249
-0.208346
-0.0989285
-0.0456453
-0.188929
-0.228916
-0.0518423
-0.0506352
-0.21739
-0.229937
0.0714386
-0.0371532
-0.00276276
-0.0187802
0.0658928
-0.0491055
-0.197878
0.0223715
0.0217075
0.0232128
0.022872
0.0237569
0.0235168
0.0241972
0.0239931
0.0246623
0.0244188
0.0254074
0.0249827
0.0268036
0.026001
0.0292962
0.0278883
0.0333051
0.0310954
0.0390238
0.0359605
0.0459917
0.0424287
0.053528
0.0498399
0.0599189
0.0569353
0.0641538
0.0623392
0.0658602
0.0653135
0.0652419
0.0658094
0.0627729
0.0642017
0.0589624
0.0610025
0.0542588
0.0566953
0.0490298
0.0516896
0.0435824
0.0463144
0.0382319
0.0408747
0.0333268
0.0357022
0.0292451
0.0311612
0.0263579
0.0276345
0.024948
0.0254603
0.0251323
0.0248425
0.026961
0.0258387
0.0306217
0.02855
0.0363567
0.0332149
0.0443838
0.0400868
0.0538913
0.0489885
0.0660117
0.0594216
0.0794473
0.0819994
0.0736591
0.0761378
0.048061
0.0426695
0.04706
0.0564485
0.0526139
0.0318725
0.0388159
0.0225693
0.0264995
0.0175496
0.0196663
0.0160312
0.0162831
0.0187643
0.0169183
0.0246709
0.0214264
0.032315
0.0283594
0.0404552
0.0363985
0.0479226
0.0443352
0.053752
0.0510781
0.0574076
0.0558595
0.0587832
0.0583606
0.0582226
0.0587011
0.0564336
0.0574236
0.054289
0.0553548
0.0525044
0.0533218
0.0514632
0.051884
0.051226
0.0512529
0.0516482
0.0513703
0.052503
0.0520378
0.0535608
0.0530203
0.0546173
0.0541012
0.0554758
0.0550837
0.0558771
0.0557512
0.0555188
0.0558105
0.0539812
0.0549241
0.0507034
0.0525879
0.0451383
0.0482189
0.0371998
0.0414245
0.0278659
0.0325924
0.018883
0.0231984
0.0116961
0.0148742
0.00718723
0.00914642
0.00573341
-0.000177556
0.00446536
0.00234858
-0.00726635
-0.00331987
-0.0189102
-0.012439
-0.0342656
-0.0262239
-0.0508137
-0.0426271
-0.0638283
-0.0581026
-0.0685973
-0.0674345
-0.0634938
-0.0672113
-0.050557
-0.0577685
-0.0336611
-0.0423519
-0.0163577
-0.0248993
-0.000805601
-0.00824968
0.0118832
0.00584859
0.0223428
0.0174448
0.0274968
0.0257806
0.0273539
0.0278381
0.0251032
0.0263953
0.0220166
0.0235305
0.0194493
0.0206969
0.0123174
0.0175199
-0.0386599
-0.0117524
0.00449427
-0.0431615
-0.0587518
-0.0814518
-0.18572
-0.228056
-0.0126685
-0.118239
-0.211964
-0.200031
0.0890134
0.0909059
-0.0514393
0.0600586
0.0828322
0.0787093
0.0511462
0.0596886
0.00344974
0.00597123
0.00469141
0.0181219
0.0186911
0.017279
-0.0356498
-0.157988
-0.261788
-0.133748
0.0113133
0.0239936
-0.05164
-0.201238
-0.297595
-0.0681639
-0.0585861
-0.0587634
-0.0640848
-0.0310137
-0.244795
-0.299138
-0.0318923
-0.277046
-0.0725133
-0.219861
0.0196733
0.0189062
0.0210288
0.0203596
0.0220862
0.0216228
0.0228885
0.0225061
0.023648
0.023271
0.0245082
0.0240565
0.0256977
0.0250464
0.0275306
0.0265147
0.0303573
0.0288022
0.0344637
0.0322433
0.0399019
0.0370316
0.0462632
0.0430168
0.0527758
0.0496132
0.0582615
0.0557039
0.0618867
0.0603333
0.0633403
0.0628781
0.062772
0.0632827
0.0605664
0.0618429
0.0571561
0.0589829
0.0529418
0.0551253
0.0482609
0.0506401
0.0434101
0.0458384
0.0386882
0.0410143
0.0344153
0.0364764
0.0309263
0.0325541
0.0285437
0.0295813
0.0275208
0.0278545
0.0279937
0.0275684
0.0300593
0.0288233
0.0338672
0.0317381
0.0396559
0.0365006
0.0474908
0.043349
0.0569347
0.0520088
0.0689589
0.06255
0.0840049
0.0761288
0.0863547
0.0517308
0.0389458
0.045734
0.0604976
0.0566034
0.0664849
0.0637101
0.0370623
0.0435039
0.0279217
0.0318968
0.022642
0.0248646
0.0207672
0.0212695
0.0225033
0.0212205
0.0270781
0.0245208
0.0332934
0.0300542
0.0400731
0.0366777
0.0464125
0.0433519
0.0514933
0.0491429
0.0548304
0.053389
0.0563034
0.0557856
0.0561603
0.0563997
0.0549478
0.055643
0.0533419
0.0541527
0.051927
0.0525842
0.0510491
0.0514123
0.0508019
0.0508513
0.0511004
0.0508945
0.0517723
0.0514029
0.0526265
0.0521888
0.053482
0.0530645
0.0541664
0.0538564
0.0544329
0.054377
0.0540088
0.054321
0.0525311
0.0534253
0.0495147
0.0512381
0.0445262
0.0472743
0.0375238
0.041241
0.0292464
0.0334601
0.0210132
0.025034
0.0140733
0.0173406
0.00924147
0.0114096
0.0074522
-0.00054061
0.00169327
-0.00646563
-0.00331646
-0.0152326
-0.0103216
-0.0269411
-0.0208363
-0.0395384
-0.0332863
-0.049756
-0.045189
-0.0540752
-0.0528094
-0.0509303
-0.0534164
-0.0413692
-0.0467968
-0.0280519
-0.0349938
-0.0136856
-0.020862