/*--------------------------------*- C++ -*----------------------------------*\
  =========                 |
  \\      /  F ield         | OpenFOAM: The Open Source CFD Toolbox
   \\    /   O peration     | Website:  https://openfoam.org
    \\  /    A nd           | Version:  10
     \\/     M anipulation  |
\*---------------------------------------------------------------------------*/
FoamFile
{
    format      ascii;
    class       surfaceScalarField;
    location    "19";
    object      phi;
}
// * * * * * * * * * * * * * * * * * * * * * * * * * * * * * * * * * * * * * //

dimensions      [0 3 -1 0 0 0 0];

internalField   nonuniform List<scalar> 
12623
(
0.0971328
0.0240165
-0.0374914
-0.083658
0.0758682
-0.0395999
0.0608645
0.0783477
-0.0368137
-0.0744997
0.0329657
-0.0391692
0.0811154
0.0364015
-0.0768219
0.0373012
-0.0373027
0.0768234
-0.0753624
-0.0406287
-0.00369367
0.0465584
-0.0528267
0.00996201
-0.0555652
0.0518716
0.0371937
-0.00921641
-0.0279772
0.0178698
-0.0081179
0.0274417
0.0872994
-0.0399723
-0.0473271
-0.0590387
0.0476403
0.0986978
-0.0270331
-0.0176398
0.0201075
0.0245654
0.0031058
0.00535382
-0.0354927
-0.0232033
0.0086693
0.00424659
0.00155673
-0.0108708
0.00506747
0.0026852
-0.00920699
0.0107684
-0.00128553
0.00552746
0.00208499
-0.01264
-0.00158266
0.0121377
-0.0292355
0.0106366
0.0206839
-0.0287105
-0.0131651
-0.0017864
0.0117431
-0.00800964
-0.00194707
0.00577756
-0.00639978
-0.00116418
-0.0145799
0.0321006
-0.0424894
0.00509425
0.0427489
0.00705055
-0.0481752
-0.00136469
-0.0547461
0.00533761
0.0545028
-0.0651491
0.0341077
-0.0369955
0.0680369
-0.0629565
-0.0306689
0.0284764
-0.0667812
0.0692047
-0.0357526
0.0333291
-0.0640864
0.0314129
-0.084969
0.0374152
-0.0369695
0.0845234
-0.0382205
-0.0809013
0.0341528
0.0801961
-0.101089
0.0212382
-0.0236657
0.103516
-0.0297729
-0.0934699
0.0221543
-0.0911749
-0.031431
0.092833
-0.0850104
0.0312507
0.114992
-0.0162766
-0.118352
0.0196366
-0.00636659
0.0186514
0.102707
-0.110583
-0.0165911
0.110897
-0.10516
0.0158157
0.0360154
-0.0377599
0.0709491
-0.0737748
0.0397246
-0.0390106
0.0730609
-0.0392956
-0.0696399
0.0351608
-0.0380224
-0.0741537
-0.0740977
-0.038706
0.072175
-0.0723956
-0.0195248
-0.0883572
0.0167177
0.0911643
0.0660355
0.00595268
-0.091513
-0.0742975
0.0316424
0.10869
-0.018093
0.104137
-0.0873142
0.00126972
-0.0864377
0.0727584
0.0143211
-0.0124609
-0.0746187
0.017181
0.0705026
-0.0149251
-0.0107899
0.00728998
0.080767
-0.0772671
-0.0830364
0.0827394
-0.0104929
0.0814245
-0.0102397
0.0114886
-0.0826734
0.0646979
-0.06805
0.0407837
-0.0374316
0.0320794
0.0620428
-0.0294243
-0.0725484
0.0450268
-0.0405284
-0.0751134
0.0452207
-0.0426557
-0.0780485
0.0442118
-0.0412768
-0.0792328
0.0447861
-0.0436017
-0.0813253
0.0468272
-0.0447347
-0.0812133
0.0488586
-0.0489705
-0.0818842
0.0502449
-0.0495741
0.0483192
-0.0804219
-0.0497815
0.0647834
-0.0666384
0.0339344
0.0196218
0.0608729
-0.0184519
0.0637191
0.020686
-0.0698231
0.0439684
-0.0718904
0.0470941
-0.0747487
0.048079
-0.0767189
0.046182
-0.0786923
0.0467595
-0.0784311
0.0465659
-0.0787707
0.0491982
-0.0768383
0.0483125
-0.0757784
0.0472593
-0.00471297
0.0628951
0.00553704
0.0605727
-0.00441273
0.0434458
-0.0783451
-0.0455226
-0.0719237
0.0395912
0.00883962
0.0632432
-0.00918775
0.0609035
0.00850878
0.0343677
-0.0732809
-0.0394318
-0.0677927
0.0302366
0.0213485
0.0639184
-0.0220236
0.0192954
0.0209478
-0.0686187
-0.0256101
-0.0622221
0.0153773
0.0658854
-0.032636
-0.0416465
0.0705365
0.00328729
-0.00973247
-0.0621735
-9.43618e-05
-0.0588405
0.0675211
-0.066355
-0.0231898
-0.0672894
0.0708328
-0.0451899
-0.0324043
0.0667206
-0.0668738
0.00569023
-0.00882211
0.0674246
-0.0682392
0.034749
0.0212368
0.06996
-0.0715039
0.048638
0.0456892
0.0734498
-0.0749421
0.0476744
0.0500249
0.0756505
-0.0751446
0.04606
0.0474679
0.0737497
-0.0714531
0.0460158
0.0478033
0.0680342
-0.0658415
0.0373985
0.0438405
0.061581
-0.057271
0.0110673
0.0259761
-0.0541098
-0.00325564
-0.0814294
0.0829209
-0.0409234
0.0745929
-0.0157421
-0.0685833
-0.0324465
-0.0857363
0.084038
-0.0480833
-0.048338
-0.085476
0.0806173
-0.0441118
-0.0510121
-0.0812098
0.0761056
-0.0384976
-0.0453272
-0.0755304
0.0696059
-0.0367311
-0.0407016
-0.0682994
0.0627382
-0.0318704
-0.0392219
-0.0616522
0.0585831
-0.0153827
-0.0283383
-0.0591216
0.0602914
0.00733897
-0.00495125
-0.0613549
0.0257448
0.0182319
0.0393478
-0.0435668
0.0747555
0.0716321
-0.0427136
0.0699796
0.0164422
-0.0522091
-0.0183429
0.0125159
-0.0549142
-0.0762258
0.081199
-0.0207154
0.004342
-0.00890008
-0.0640252
-0.0712394
-0.000644403
-0.0309501
0.0308124
-0.0520714
-0.0504654
0.0512318
-0.0191093
-0.0296775
-0.051738
0.0712193
-0.0680177
0.0301274
0.0707624
-0.074396
-0.0415563
0.0755967
-0.047548
0.0712933
0.0359414
-0.0585577
0.0724958
-0.0717392
-0.0239463
-0.0343045
0.0708158
-0.0697628
0.00463721
-0.00974548
0.0698865
-0.0690749
0.0339375
0.0213605
0.0684911
-0.0696144
0.0497613
0.0451054
0.0704814
-0.0718856
0.0490785
0.050892
0.0715335
-0.0711285
0.045655
0.0471158
0.068743
-0.0666133
0.0438861
0.0454177
0.0634602
-0.0596266
0.0335648
0.0406874
0.0559057
-0.0536329
0.00879439
0.0222553
-0.00565671
-0.0841767
0.0865773
-0.043324
-0.0354242
-0.0859367
0.0854282
-0.0475748
-0.0476974
-0.0804426
0.0807711
-0.0444402
-0.0460265
-0.0751311
0.0753452
-0.0387117
-0.0396872
-0.0691532
0.068089
-0.035667
-0.0345096
-0.061762
0.0616099
-0.0317184
-0.0328948
-0.0573079
0.0579301
-0.0160049
-0.0240364
-0.0577024
0.0591197
0.00592164
-0.00472354
-0.0613315
0.0636328
0.0234436
0.0160201
0.027028
0.0399479
-0.0371904
0.071998
0.0738201
0.0403999
0.0736244
-0.0384276
0.0731891
-0.0249875
0.0187187
-0.0649706
-0.0282017
-0.060811
0.0298785
-0.0539802
-0.0504318
0.0497388
-0.0184162
-0.0531063
-0.0270031
0.0385989
-0.0348008
-0.055536
0.0411984
-0.0546709
-0.0725372
0.0792755
0.0119804
0.036872
-0.0397533
-0.0620894
-0.0660063
0.0303411
0.0385411
-0.0376942
0.0701023
0.0714283
0.0384061
-0.0406311
0.0406746
0.0735809
0.0730219
-0.0719819
-0.0394675
0.0755853
-0.0431945
-0.0689638
0.0337185
0.0711867
-0.0668455
0.0280091
-0.0568809
0.0768667
-0.0775632
-0.0408598
-0.0426632
0.0778106
-0.0777983
-0.0239587
-0.0340571
0.0755444
-0.0746988
0.00379164
-0.0119994
0.0727325
-0.0733744
0.0345794
0.0193941
0.0716349
-0.0726655
0.050792
0.0433659
0.0718349
-0.0729942
0.0502378
0.0500613
0.0715401
-0.0710787
0.0451937
0.0456616
0.0677075
-0.0654311
0.0416097
0.0420466
0.0607404
-0.0570924
0.0299169
0.0359967
0.0534118
-0.0510163
0.00639886
0.0185747
-0.0069342
-0.0858918
0.0892486
-0.0240721
-0.0072607
-0.0906189
0.0907393
-0.0434444
-0.0367945
-0.0877506
0.0862662
-0.0460904
-0.0447086
-0.081944
0.0793287
-0.041825
-0.0417043
-0.076593
0.0737628
-0.0358814
-0.0369514
-0.0705277
0.0665138
-0.0316531
-0.0312745
-0.0626385
0.0593882
-0.028468
-0.0290196
-0.0574212
0.0568038
-0.0153875
-0.0220694
-0.0572347
0.0582588
0.00489754
-0.0051544
-0.0606686
0.0637846
0.0203276
0.0136103
0.0239672
0.0402439
-0.0401367
0.0718908
0.0763698
0.0737271
-0.0577488
-0.0301583
-0.0422775
-0.0582868
0.0425077
-0.0552895
-0.0478727
0.0433646
-0.0614983
-0.0505745
-0.0593876
0.0408124
-0.0358402
-0.0605082
0.0454882
-0.0593467
-0.0387213
0.0388081
0.0734941
-0.0391039
0.0759679
0.0419623
-0.0413575
0.0694975
0.0394172
0.0739733
0.0651417
-0.0635531
0.0264206
0.0301885
0.0686717
0.0787234
-0.0779359
-0.0402551
0.0767707
-0.0412418
-0.0630102
-0.0305788
0.0354668
-0.0316843
-0.0667927
0.0403809
-0.0654222
0.072079
0.0375139
-0.0566507
0.0804344
-0.0833319
-0.0379623
-0.0401647
0.0846161
-0.0825827
-0.0259921
-0.0327729
0.081421
-0.0795341
0.00190476
-0.0131611
0.0778009
-0.0762903
0.0330688
0.0176609
0.0751261
-0.074204
0.0498699
0.0422017
0.0735441
-0.0728988
0.0495926
0.0494014
0.0718983
-0.0700386
0.0433339
0.0446611
0.0672812
-0.063617
0.0379455
0.0392892
0.0597249
-0.0557845
0.0259765
0.0321046
0.0525083
-0.050144
0.00403465
0.0152984
0.0494462
-0.05095
-0.0169123
-0.00763209
0.0549687
-0.0612462
-0.0238807
-0.0229845
0.065641
-0.0703443
-0.026981
-0.0261841
-0.0824831
0.0889707
0.00549274
0.0742329
-0.0669247
0.0360564
0.022091
-0.0942775
0.0972406
-0.0270352
-0.0125675
-0.0961082
0.0949466
-0.0422828
-0.035662
-0.0915128
0.088018
-0.0425956
-0.0412748
-0.084498
0.0808316
-0.0381586
-0.0381843
-0.0777127
0.074748
-0.0329168
-0.0338325
-0.0717055
0.0678362
-0.0277838
-0.0282319
-0.0639036
0.0602934
-0.0248577
-0.025087
-0.0580031
0.0569869
-0.0143712
-0.0197791
-0.0572918
0.0587519
0.00343745
-0.00545935
-0.0601303
0.0620114
0.0184465
0.0122319
0.0224254
0.0371204
-0.0379373
0.0727077
0.0721327
0.0745978
0.0509151
-0.0535203
-0.058893
-0.0602005
0.0441909
-0.0330679
0.0364495
-0.0701743
-0.0735452
-0.029867
-0.0502798
-0.0585814
0.0487033
-0.0585047
-0.0373128
0.0749796
0.0397187
0.0717775
0.0653559
-0.0640148
0.0250795
0.0674267
0.0281176
-0.0538988
-0.0590092
0.0453852
-0.0643509
-0.0514167
0.0472633
-0.0560471
-0.0533891
-0.0569206
0.0405604
-0.0695332
-0.0367749
0.0407545
-0.0741539
-0.0333039
-0.0770162
0.0714634
0.0347221
-0.0582272
0.0829991
-0.0856069
-0.0376473
-0.0793451
0.0770337
-0.0350014
-0.0375877
0.0881148
-0.0901996
-0.0358775
-0.0376568
0.0897242
-0.0890169
-0.0266994
-0.0332483
0.087477
-0.0852747
-0.000297588
-0.0147009
0.0830402
-0.0807792
0.0308078
0.0154265
0.0787907
-0.0769599
0.0480391
0.0402131
0.0754795
-0.0741196
0.0482326
0.047921
0.0726605
-0.0705555
0.0412289
0.043202
0.0676776
-0.0638923
0.0341601
0.0364114
0.0598474
-0.0557935
0.0219226
0.0280597
0.0525495
-0.0505288
0.00201396
0.0120544
0.0506683
-0.0529065
-0.0146741
-0.00749257
0.0584924
-0.063074
-0.0192991
-0.0173987
0.0684827
-0.0719608
-0.0235029
-0.0207754
0.0750997
-0.0788769
-0.0295267
-0.0267281
-0.0745362
0.0834355
0.0271571
0.0661167
-0.0595284
0.040675
0.0357714
-0.0912567
0.0982054
-0.00145589
0.0142697
-0.101428
0.102858
-0.0284649
-0.0157905
-0.101071
0.0978432
-0.0390546
-0.0338754
-0.0939488
0.0897598
-0.0384066
-0.0373803
-0.0859561
0.0820781
-0.0342806
-0.0343806
-0.0787397
0.0756846
-0.0298617
-0.0304942
-0.0728709
0.0693649
-0.0242778
-0.0254183
-0.0655718
0.0617634
-0.0210493
-0.0212939
-0.0591582
0.0578591
-0.0130721
-0.0171739
-0.0578797
0.0588155
0.00250161
-0.00547992
-0.0606604
0.0626659
0.016441
0.0103871
0.0210765
0.0455794
-0.0489559
-0.0526706
-0.0540965
0.0401475
-0.0350979
0.0390444
-0.0809627
-0.0824653
-0.0315096
0.0718865
0.0325089
0.0391509
-0.0390926
0.0717192
0.0720267
0.0353564
-0.0375731
0.0717142
0.0702371
0.0365609
-0.0356873
0.0718341
0.0711205
0.0349706
-0.034753
0.0732765
0.0738812
0.0343371
-0.0332998
0.0739422
0.075552
-0.0315806
0.0753145
-0.0523197
-0.0601605
0.0494546
-0.0625741
-0.052451
-0.0599472
0.0444604
-0.0682509
-0.0496874
-0.0561892
0.0432404
-0.072019
-0.0408805
0.0360875
-0.0493035
-0.043739
-0.0498121
0.0433379
-0.0784474
0.0372039
-0.0337973
-0.0858719
0.0410093
-0.0847681
0.0785349
-0.0807935
-0.0327428
0.0762443
-0.02929
-0.0610923
0.0846622
-0.0878996
-0.0344099
-0.033719
0.0920311
-0.0929664
-0.0349422
-0.0335253
0.094839
-0.0947624
-0.026776
-0.0313757
0.0934526
-0.0910336
-0.00271659
-0.0160107
0.0881944
-0.0851403
0.0277537
0.0125872
0.0823193
-0.0796279
0.0453477
0.0373922
0.0773519
-0.0753051
0.0461859
0.0456451
0.0734122
-0.0711004
0.0389171
0.0413091
0.0681882
-0.064391
0.0303629
0.0334991
0.0602872
-0.0561754
0.0178109
0.0239559
0.0531218
-0.0518238
0.000715901
0.00900075
0.0531449
-0.0570394
-0.0107797
-0.0061714
0.0619503
-0.0664236
-0.0148258
-0.0124878
0.0699697
-0.0725123
-0.0209603
-0.0172293
0.075202
-0.0793411
-0.0253876
-0.0240384
0.0833534
-0.0878178
-0.029333
-0.0274973
-0.067096
0.0754546
0.0323164
0.0599686
-0.0550151
0.031134
0.0330202
-0.0842139
0.0927742
0.0185968
0.027012
-0.10036
0.105571
-0.00666745
0.00668439
-0.10764
0.1069
-0.0277242
-0.0178598
-0.10399
0.0996919
-0.0347563
-0.0309659
-0.0952543
0.0907491
-0.0339014
-0.0329427
-0.0868703
0.083027
-0.0304373
-0.0305018
-0.0796413
0.0765285
-0.026749
-0.0271085
-0.0739261
0.0709338
-0.0212855
-0.0228159
-0.0675401
0.0637449
-0.0172541
-0.0179003
-0.0608311
0.0591122
-0.0113532
-0.0142601
-0.0589107
0.0599276
0.00148469
-0.00527837
-0.0619721
0.063092
0.0153211
0.00834256
-0.0640856
0.0665402
0.0226249
0.0200829
-0.0679445
0.0708548
0.0295987
0.0267133
0.03362
0.0356929
-0.0351454
0.0711718
-0.0369659
0.0713209
0.0707537
0.0346232
-0.0339978
0.0710887
0.0697149
0.0333095
-0.0339097
0.0724343
0.0704322
0.0322967
-0.032993
0.0739728
0.0722682
0.0306866
-0.0306165
0.0738722
0.0732456
0.0301194
-0.0341837
-0.0452392
-0.0515188
0.026623
-0.0341583
0.0393304
-0.091044
-0.0924297
-0.0295464
0.0283281
-0.025549
0.0734653
0.0730261
-0.0506249
-0.0619867
0.0479059
-0.0660196
-0.0495404
-0.0600942
0.0457478
-0.0707583
-0.0458059
-0.0541222
0.0468054
-0.0754866
-0.038105
-0.0458908
0.0453466
-0.0827847
-0.0230088
0.0212656
-0.0497756
-0.0266379
-0.0416101
0.0437772
-0.0892149
0.0347629
-0.0962715
-0.0309211
0.0405248
-0.0968059
-0.0635959
0.0645388
0.0203227
0.015758
-0.0154062
-0.0501274
-0.0646919
0.016854
-0.0308654
0.0362527
-0.101659
-0.0958107
0.0911036
-0.026214
-0.0999959
-0.0266803
0.0757996
-0.0776311
-0.0237176
-0.024907
0.025852
0.0725202
0.0701255
-0.0192328
-0.0638113
0.0798759
-0.0845181
-0.0281006
-0.0270451
0.0880091
-0.0918501
-0.0305689
-0.030228
0.0947418
-0.0974042
-0.0322799
-0.0306336
0.0992455
-0.0999061
-0.0261154
-0.0295343
0.0990022
-0.0965024
-0.00521642
-0.0169146
0.0930988
-0.0891497
0.0238046
0.00918366
0.0854319
-0.0818331
0.0417488
0.0336744
0.0787341
-0.075905
0.0433567
0.0425461
0.0734172
-0.070707
0.0362069
0.0388213
0.0676243
-0.0638274
0.026566
0.0304164
0.0599097
-0.0563062
0.0142074
0.0200383
0.0542359
-0.054435
0.000914968
0.0069305
0.0570624
-0.061307
-0.00653508
-0.00354397
0.0652834
-0.0683469
-0.0117622
-0.00851144
0.0707463
-0.0730884
-0.0186182
-0.0148299
0.0765599
-0.0799923
-0.0219552
-0.0205669
0.0830076
-0.0879292
-0.0244114
-0.0244821
-0.026372
-0.0671868
0.0722769
0.0260438
0.023975
-0.0789824
0.0863751
0.0249237
0.0263147
-0.0948575
0.102129
0.0113252
0.0185296
-0.107971
0.111312
-0.0100092
0.000843048
-0.111368
0.108771
-0.0251274
-0.0179151
-0.104815
0.100024
-0.0299646
-0.0270106
-0.095502
0.0910527
-0.029452
-0.028421
-0.0873017
0.0836819
-0.0268174
-0.0267508
-0.0804443
0.0773384
-0.0236431
-0.0238709
-0.0748462
0.0723416
-0.0187809
-0.0203237
-0.0695748
0.0661428
-0.0138222
-0.0151334
-0.0630679
0.0608623
-0.00914763
-0.0111852
-0.0602245
0.060972
0.000737141
-0.00464052
-0.0626479
0.0647762
0.0131928
0.00666667
-0.0672082
0.0685455
0.0212876
0.0176509
-0.0699642
0.0722082
0.0273546
0.0252946
0.0316745
0.0379814
-0.0374255
0.070765
0.0728537
0.0367629
-0.0357606
0.0701694
0.0700912
0.0345335
-0.0331531
0.0697083
0.0684878
0.0317401
-0.0303311
0.0710253
0.0690192
0.0289855
-0.0272212
0.0722085
0.0709226
0.0264771
-0.0263485
0.0737436
0.0725015
0.0725296
-0.0488197
-0.0627073
0.0476453
-0.0679172
-0.0473346
-0.0585655
0.0488415
-0.0727944
-0.0418539
-0.0503734
0.0493021
-0.0794421
-0.0313139
-0.0412147
0.0481542
-0.0871617
-0.0177393
-0.039277
0.0457419
-0.0944319
-0.0107167
0.0133033
-0.0672785
-0.00818392
-0.0526601
0.0410098
-0.101563
0.0299349
-0.104937
-0.024994
0.0344015
-0.106125
-0.0758291
0.0760168
0.0131156
0.00940498
-0.00738076
-0.0693028
-0.0754561
0.00903196
-0.0231129
0.0269663
-0.10879
-0.102093
0.0990788
-0.0219796
-0.10546
-0.0197463
-0.0245637
0.0240025
0.0730814
-0.024464
0.0700257
0.077698
-0.0800821
-0.0213336
0.0774884
-0.0190231
-0.0649857
0.0825934
-0.0863322
-0.0243618
-0.0245338
0.0900095
-0.0935525
-0.0270259
-0.0265506
0.0967731
-0.100044
-0.0290094
-0.027413
0.102627
-0.104107
-0.0246352
-0.0269506
0.103824
-0.101525
-0.00751498
-0.0171985
0.0977236
-0.0928951
0.0189761
0.00538224
0.0881346
-0.0834899
0.0371041
0.0289139
0.0794317
-0.0756687
0.0395937
0.0384879
0.0723955
-0.0691278
0.0329392
0.0355481
0.0658822
-0.0624129
0.0230967
0.0271708
0.0593695
-0.0572712
0.0121091
0.0169948
0.0570303
-0.0588719
0.00275655
0.00668961
0.0620142
-0.0654149
-0.00313433
-0.000401675
0.0679395
-0.069957
-0.0097447
-0.00598689
0.0720649
-0.0747492
-0.0159339
-0.012722
0.0778706
-0.0799605
-0.0198653
-0.0174455
0.0836897
-0.0863606
-0.0217405
-0.0207529
0.0904231
-0.0943621
-0.022275
-0.0223094
-0.0219636
-0.0769492
0.0780889
0.019183
0.0159216
-0.0810066
0.0850572
0.0219932
0.0210572
-0.0912321
0.0978618
0.018294
0.0201399
-0.104061
0.109621
0.00576471
0.0123306
-0.112952
0.113606
-0.0106631
-0.00248751
-0.111807
0.108121
-0.0214408
-0.0161165
-0.103851
0.0991933
-0.0253074
-0.0227405
-0.0949884
0.0908754
-0.025339
-0.0242161
-0.0873801
0.0840501
-0.0234874
-0.0232555
-0.0810931
0.0781393
-0.0206893
-0.0209139
-0.0757056
0.0735097
-0.0165849
-0.01789
-0.0713927
0.0686716
-0.0111011
-0.0130164
-0.0658206
0.0632418
-0.00656884
-0.00833418
-0.0619474
0.0620854
0.00059917
-0.00334615
-0.0634334
0.0656453
0.0109808
0.00531869
-0.0679105
0.0698345
0.0193637
0.0153858
-0.0720876
0.072122
0.0273203
0.0230414
0.0292968
0.0371975
-0.036439
0.0760649
0.0804241
0.0374291
-0.0383574
0.0716932
0.0738437
0.0375708
-0.0363345
0.0689331
0.0693046
0.0347343
-0.032845
0.0678189
0.0668877
0.0308431
-0.0287912
0.0689734
0.0670173
0.0268695
-0.0255306
0.0708696
0.0690009
0.0249808
-0.0242429
0.0730057
0.0719517
0.0722892
-0.0487452
-0.0612968
0.0494833
-0.068559
-0.0456275
-0.0547918
0.051089
-0.0745813
-0.0367466
-0.0449407
0.0505573
-0.0818452
-0.0225096
-0.0364445
0.0489575
-0.0903774
-0.00786204
-0.0395988
0.0451121
-0.0985342
-0.00241098
-0.0576299
0.0389508
-0.106112
-0.00539716
0.0049947
-0.0750536
-0.00411977
-0.0705802
0.0315943
-0.110753
0.0202213
-0.0174331
-0.108248
0.0232505
-0.111819
-0.00173061
0.054755
-0.0642476
0.0781401
-0.0811203
-0.0183533
-0.0732589
0.0599473
0.011581
-0.014142
0.0850096
-0.0877484
-0.021623
-0.0206445
0.0913341
-0.0950872
-0.0232728
-0.0229649
0.0975455
-0.10153
-0.0250251
-0.0249547
0.104678
-0.106997
-0.0223164
-0.0238022
0.107577
-0.105938
-0.00915437
-0.0166181
0.102231
-0.0968318
0.0135772
0.00167495
0.0911057
-0.085325
0.0313234
0.0231878
0.0802482
-0.0755543
0.0348998
0.033411
0.0715947
-0.0680086
0.0293531
0.0315885
0.0650271
-0.062536
0.0206056
0.0241893
0.0610445
-0.0608369
0.0119015
0.0155033
0.062047
-0.0643012
0.00501078
0.00789969
0.0666135
-0.0684926
-0.00125525
0.0019106
0.0698943
-0.0714431
-0.00819596
-0.00458515
0.0733671
-0.0757213
-0.0135797
-0.0107979
0.0781504
-0.0807991
-0.0172165
-0.0150164
0.0835885
-0.0863134
-0.0190156
-0.0179635
0.0886414
-0.092038
-0.0188785
-0.0199813
0.0951363
-0.0994473
-0.0176685
-0.0188652
0.102414
-0.105023
-0.0148244
-0.0167798
-0.0799966
0.0819801
0.0111321
0.0779536
-0.0782784
0.00531949
0.00698893
-0.0835609
0.0869925
0.0157515
0.0143408
-0.0907195
0.0949216
0.0177911
0.0173302
-0.0996012
0.104653
0.0132417
0.0154603
-0.108925
0.112113
0.00257677
0.00805892
-0.113172
0.112109
-0.00959974
-0.00354655
-0.109515
0.105773
-0.0176982
-0.0135229
-0.101866
0.0977468
-0.0211883
-0.0188339
-0.0940539
0.0904128
-0.0216979
-0.0205232
-0.087255
0.0842259
-0.0204583
-0.0200977
-0.0815773
0.0789006
-0.0180126
-0.0182653
-0.0765816
0.0745185
-0.0145219
-0.0155709
-0.0728405
0.0709241
-0.00918478
-0.0113384
-0.0687357
0.0662729
-0.00410601
-0.00614574
-0.0644671
0.063703
0.00136321
-0.00154038
-0.0642366
0.0658495
0.00936793
0.00478511
-0.0680939
0.0698057
0.0176519
0.0131414
-0.0715952
0.0743883
0.0245272
0.0212518
-0.0758015
0.0777005
0.0310667
0.0278835
0.0332008
0.0341335
-0.0359918
0.0779232
-0.032753
0.0858454
0.0818046
0.0365764
-0.037397
0.0725139
0.0744282
0.0367949
-0.0357025
0.0678407
0.0687025
0.034191
-0.0322654
0.0658933
0.0653762
0.0300954
-0.0277112
0.0665892
0.0648473
0.0253308
-0.0237359
0.0692747
0.0666205
0.0216225
-0.0202218
0.0716049
0.0698383
0.0214873
-0.0223083
0.0739024
0.0735548
0.0299847
0.0847176
0.0777021
0.00118606
-0.000835999
-0.0754037
-0.0777614
0.000669079
-0.0128214
0.0157673
-0.111194
-0.106851
-0.0109932
-0.0490698
-0.0578545
0.0510979
-0.0685678
-0.0822456
0.031388
-0.0423467
-0.0491917
0.0511794
-0.0752033
0.0883342
-0.0741222
-0.00263098
-0.0140753
0.0191764
0.0796166
-0.00777031
0.0820292
-0.0288612
-0.0385891
0.0500468
-0.0829345
-0.0113898
-0.0329167
0.0468132
-0.0920784
0.00158352
-0.0435933
0.0414659
-0.101049
0.00155148
-0.0633012
0.0345443
-0.109062
0.000388038
-0.0718042
0.0260739
-0.113577
0.00314335
-0.00276033
-0.0781444
0.00399913
-0.0762595
0.0182038
-0.114256
-0.00941129
0.0107207
-0.112503
-0.00824051
-0.108022
-0.0622195
0.0796946
-0.082628
-0.0154199
-0.0085696
0.085378
-0.088173
-0.0188281
-0.0178945
0.0919396
-0.0943466
-0.0208659
-0.0191983
0.0985799
-0.101862
-0.0217427
-0.0207214
0.105308
-0.108274
-0.0193504
-0.0203569
0.109808
-0.109307
-0.00965582
-0.0150833
0.106405
-0.101309
0.00848174
-0.00122703
0.0952522
-0.0887815
0.0248528
0.0171305
0.0830111
-0.0777645
0.0296532
0.0276406
0.0735559
-0.0701277
0.0259249
0.02738
0.0677812
-0.066377
0.0192014
0.0218428
0.0660302
-0.0665936
0.0124649
0.0151565
0.0676908
-0.0689264
0.00624639
0.00899689
0.0698887
-0.0706885
-0.000455432
0.00287292
0.0715822
-0.0729064
-0.00687172
-0.0036915
0.0745762
-0.0765543
-0.0116017
-0.00912808
0.0786178
-0.0809245
-0.0149098
-0.0129528
0.0833765
-0.0855581
-0.0168341
-0.0155115
0.0888752
-0.0905013
-0.0172524
-0.0166642
0.0930818
-0.0953039
-0.0154465
-0.0162847
0.0979293
-0.100976
-0.0117777
-0.0141545
0.102263
-0.103461
-0.00704309
-0.00970582
-0.0789415
0.0809989
0.00326214
0.0792146
-0.0801013
-0.00187366
0.000942174
-0.0817286
0.0837785
0.00908224
0.00625923
-0.0873148
0.0901983
0.0128679
0.0108045
-0.0941039
0.0981845
0.0137105
0.0134246
-0.102069
0.105809
0.00950125
0.0115761
-0.108542
0.1101
0.00101892
0.00532618
-0.110028
0.108475
-0.00804675
-0.00347501
-0.106008
0.102796
-0.0144858
-0.0110557
-0.0995278
0.0960661
-0.0177266
-0.0155661
-0.0929192
0.0897714
-0.0185501
-0.0173763
-0.0869875
0.0842685
-0.0177392
-0.0173139
-0.0819044
0.0795474
-0.0156557
-0.0159012
-0.0774525
0.0755033
-0.0125727
-0.013476
-0.0740171
0.0726598
-0.00782742
-0.00985218
-0.0712668
0.0694924
-0.00233165
-0.00475274
-0.0677715
0.066405
0.00272968
0.000180575
-0.0659791
0.0665669
0.00878015
0.00521101
-0.0680993
0.0696241
0.0161271
0.011609
-0.0720406
0.0728391
0.0237287
0.0188354
-0.0742836
0.0765589
0.0287914
0.026439
0.0275141
0.0260461
-0.028088
0.0878873
0.0952134
0.0295892
-0.0323506
0.0806846
0.0833057
0.0332908
-0.0336795
0.0729026
0.0753684
0.0335222
-0.0328739
0.0671924
0.0685452
0.0318193
-0.0303219
0.0643959
0.0643216
0.028492
-0.0263121
0.0644094
0.0630174
0.023941
-0.021444
0.0667776
0.0642494
0.0190991
-0.0174257
0.0699315
0.0674934
0.0160366
-0.0164964
0.0743623
0.0721656
0.0803821
-0.00487802
0.00624429
-0.0795107
-0.0810059
-0.00397338
-0.00496217
0.00506575
-0.108125
-0.104084
-0.00433845
-0.047095
-0.0531062
0.0500846
-0.0674731
0.0852011
-0.0813213
-0.00651074
0.0821305
-0.00469975
-0.0355005
-0.0425524
0.0487522
-0.0739087
-0.0175633
-0.0324157
0.0460774
-0.0821988
0.00101089
-0.0323441
0.0407615
-0.091374
0.00902483
-0.0510667
0.034137
-0.100642
0.00440615
-0.0673193
0.0267518
-0.10974
0.00548671
-0.0732918
0.0198199
-0.115193
0.00818221
-0.0781974
0.0116894
-0.115224
0.00742755
-0.00648802
-0.0819454
0.00965905
-0.0817422
0.00506295
-0.112501
-0.0823314
0.080778
-0.00493457
0.00679657
-0.0826291
-0.00649892
0.00930617
-0.084455
-0.0158283
0.102753
-0.000962813
0.00107377
-0.108236
-0.00230849
-0.102739
-0.0592299
0.0814805
-0.0844219
-0.0124785
-0.00841045
0.0872004
-0.0894568
-0.0165717
-0.0151159
0.0919175
-0.0947756
-0.0180077
-0.0167376
0.0978409
-0.101278
-0.0183055
-0.0176561
0.104651
-0.107866
-0.0161361
-0.0169837
0.110104
-0.11081
-0.00894964
-0.0128451
0.109344
-0.105526
0.00466412
-0.00269331
0.100229
-0.0940548
0.0186784
0.0118335
0.0883238
-0.0831139
0.0244433
0.0219096
0.0790354
-0.0758579
0.0227474
0.0233015
0.0738027
-0.0725892
0.017988
0.0197876
0.0720957
-0.0720019
0.0123711
0.014663
0.0720503
-0.0720908
0.0062869
0.00904523
0.0721612
-0.0724684
-0.000148224
0.00294335
0.0731359
-0.0742463
-0.00576133
-0.00302397
0.0756218
-0.0772599
-0.0099637
-0.00775258
0.079011
-0.0809903
-0.0129306
-0.0112017
0.0830385
-0.0852473
-0.0146253
-0.0134632
0.0874459
-0.089718
-0.0149803
-0.0144656
0.0918619
-0.0934035
-0.0139049
-0.0141407
0.0951159
-0.0959564
-0.0109372
-0.0124421
0.0967748
-0.098049
-0.00576889
-0.00888739
0.0988519
-0.0987711
-0.00238922
-0.00353562
-0.0802453
0.0800446
-0.001673
-0.00344074
-0.0808813
0.0817325
0.00241098
0.000105497
-0.0832685
0.0854381
0.00691272
0.00472318
-0.0879111
0.0907585
0.0100204
0.00833151
-0.0941842
0.0976471
0.0102476
0.00999892
-0.100748
0.103508
0.00674114
0.00847481
-0.105306
0.106096
0.000229059
0.00352828
-0.105752
0.104383
-0.00667719
-0.00313098
-0.102396
0.0998411
-0.0119312
-0.00906869
-0.0972138
0.0943732
-0.014886
-0.0129388
-0.091734
0.0890466
-0.0158627
-0.014737
-0.0866331
0.0842354
-0.0153416
-0.0149003
-0.0821374
0.0800727
-0.013591
-0.0138031
-0.0782469
0.0764922
-0.010818
-0.0116502
-0.0751212
0.0740124
-0.00671857
-0.00848124
-0.0731585
0.072201
-0.0013742
-0.00389888
-0.0711351
0.0699642
0.00390053
0.00124652
-0.0691425
0.0688853
0.00903739
0.00603275
-0.0693338
0.0705607
0.0149002
0.0111604
-0.072258
0.0745821
0.0214047
0.017138
-0.0776685
0.0813157
0.0251442
0.0233526
-0.0809199
0.0878328
0.024475
0.02791
0.0256136
0.0176227
-0.0205291
0.0907937
0.0970078
0.0230467
-0.0249034
0.0825413
0.0858233
0.0261985
-0.0270519
0.073756
0.0766635
0.0274613
-0.0274621
0.0671932
0.0689546
0.0270829
-0.0263125
0.0636255
0.0639424
0.0251929
-0.0236827
0.0628991
0.0618978
0.0218461
-0.0196631
0.0645947
0.0624128
0.0173389
-0.0157698
0.0683625
0.0651692
0.0131126
-0.0122186
0.0734682
0.0695084
0.00662275
-0.00747916
0.080473
0.0747863
0.0115729
-0.0195363
0.0900939
0.0861229
-0.0412124
-0.0473943
0.0456315
-0.0643523
0.000163842
-0.00121672
-0.0977183
-0.00145831
-0.101117
0.0841612
-0.09008
-0.0136175
-0.0240934
0.0616454
0.0525419
0.0745766
-0.0145088
-0.0938771
0.0931997
-0.0017118
-0.0926778
-0.00241604
-0.0246275
-0.0354881
0.0427872
-0.0706185
-0.00351447
-0.0278903
0.0375683
-0.0790056
0.0130518
-0.036371
0.0307511
-0.087988
0.0128875
-0.059548
0.0235483
-0.0974385
0.0082
-0.0700326
0.0171187
-0.107039
0.0107686
-0.0758781
0.0111781
-0.114682
0.0118304
-0.0803687
0.00518164
-0.115343
-0.00771325
-0.0844309
0.00951508
-0.0844948
0.0828942
-0.0061126
0.00792321
-0.0859421
-0.00647588
-0.0867658
0.0102581
0.0118165
-0.0842525
0.00016857
-0.111595
-0.0865564
0.0116164
0.00670775
-0.0146012
0.0695389
-0.0987469
0.0157409
-0.0157861
0.0750358
-0.0548108
0.0857498
-0.0850419
-0.0072186
-0.00902994
0.0848734
-0.0855122
-0.0118397
-0.00857899
0.0875294
-0.0895835
-0.0145175
-0.0130988
0.0917999
-0.09435
-0.0154576
-0.0145213
0.0970531
-0.100081
-0.0152773
-0.014953
0.103103
-0.106134
-0.0131043
-0.0139624
0.108564
-0.110038
-0.00747575
-0.0104157
0.109879
-0.10774
0.00252559
-0.00285206
0.103976
-0.0989947
0.0136974
0.00806877
0.0939954
-0.0892301
0.0196781
0.0169103
0.0853581
-0.0821603
0.0195497
0.0194294
0.0798242
-0.0780302
0.016194
0.0174515
0.0767337
-0.0756741
0.0113115
0.0133665
0.0748481
-0.0742162
0.00565497
0.0082193
0.0739174
-0.0740244
-4.12701e-05
0.0026446
0.0745322
-0.0754148
-0.00487873
-0.00251614
0.0765242
-0.077884
-0.00860389
-0.00664322
0.0793681
-0.0810558
-0.0112429
-0.00971761
0.0827948
-0.0846726
-0.0127474
-0.0117243
0.0865226
-0.08843
-0.0130729
-0.0126156
0.0902227
-0.091938
-0.0121896
-0.012348
0.0934429
-0.0941832
-0.0101969
-0.0109371
0.094455
-0.0938907
-0.00633311
-0.00861566
-0.00422667
-0.0822075
0.081634
-0.00436102
-0.00581229
-0.0816523
0.0817007
-0.00172145
-0.00345902
-0.0819441
0.0827831
0.00157206
-0.000137926
-0.0837443
0.0856277
0.0050293
0.00376197
-0.0877576
0.0903169
0.00746112
0.00620163
-0.0929362
0.0957052
0.00747863
0.00737962
-0.0981085
0.100171
0.00467824
0.00607151
-0.101462
0.101972
-0.000280952
0.00223761
-0.101692
0.100662
-0.00564692
-0.002851
-0.0991559
0.097179
-0.00995438
-0.0075627
-0.095096
0.0927877
-0.0125777
-0.0108558
-0.0905936
0.0883185
-0.0135876
-0.012543
-0.0862468
0.0841621
-0.0132569
-0.0128286
-0.082319
0.0805125
-0.0117846
-0.01196
-0.0789381
0.0774209
-0.00930084
-0.0100757
-0.0761969
0.0752155
-0.00573713
-0.00725722
-0.0745988
0.0741568
-0.000932132
-0.00328223
-0.0737858
0.0733331
0.00435319
0.0016175
-0.0729047
0.0726338
0.00930831
0.00646112
-0.072748
0.0734464
0.0142018
0.0110462
-0.0747464
0.0768212
0.01933
0.015838
-0.0797004
0.0814053
0.0234392
0.0204734
-0.0863743
0.0903268
0.0205226
0.022941
0.0171934
0.00577805
-0.00676898
0.103744
0.110309
0.0080851
-0.010681
0.0933896
0.0983239
0.0130453
-0.0150783
0.0845743
0.0881876
0.0167217
-0.0180485
0.0750828
0.0783069
0.0190461
-0.019741
0.0678881
0.0699521
0.0201252
-0.0201954
0.0636957
0.0643266
0.0199435
-0.0193435
0.0622991
0.061646
0.0183776
-0.0169815
0.0631986
0.0614469
0.0152112
-0.0131452
0.0662965
0.0633989
0.0111233
-0.00884223
0.0711871
0.0674865
0.00640233
-0.0015903
0.0756609
0.0723464
0.0699314
-0.00371648
-0.105978
0.0699659
-0.0111755
0.00140916
-0.0026908
-0.0964366
-0.0935269
0.00225833
-0.0313369
-0.0406849
0.0375046
-0.0590698
-0.0103052
-0.0286974
0.032272
-0.0653223
0.0116498
-0.0264883
0.0250569
-0.0733114
-0.00401781
-0.0997896
0.0217096
-0.045193
0.017702
-0.0821418
0.0148144
-0.0661625
0.011477
-0.0917968
0.0135552
-0.0728192
0.00715562
-0.103016
-0.00651072
-0.0874401
0.0080087
-0.0863457
0.0848179
-0.00498294
0.00620932
-0.0877168
-0.00483824
-0.0890381
0.0078073
0.0152815
-0.0793293
0.00339933
-0.112899
-0.0891442
0.0103871
0.0152359
-0.0837881
5.18907e-05
-0.115226
-0.088851
0.0125528
0.0142778
-0.0869139
-0.00379834
-0.111514
0.00699079
-0.0120425
0.0750176
0.078263
-0.123791
0.0641798
0.00671363
-0.00500429
0.100998
0.00340916
-0.00502755
-0.0948182
-0.0935954
0.0034776
-0.0163008
0.101277
-0.0486431
0.0820172
-0.0874885
-0.00814618
-0.0770814
-0.0106507
0.0765567
-0.00957309
0.0868403
-0.0858076
-0.00825126
-0.00967812
0.0857919
-0.0862645
-0.0113671
-0.00859477
0.0877243
-0.089571
-0.0126708
-0.011639