/*--------------------------------*- C++ -*----------------------------------*\
  =========                 |
  \\      /  F ield         | OpenFOAM: The Open Source CFD Toolbox
   \\    /   O peration     | Website:  https://openfoam.org
    \\  /    A nd           | Version:  10
     \\/     M anipulation  |
\*---------------------------------------------------------------------------*/
FoamFile
{
    format      ascii;
    class       volVectorField;
    location    "19";
    object      U;
}
// * * * * * * * * * * * * * * * * * * * * * * * * * * * * * * * * * * * * * //

dimensions      [0 1 -1 0 0 0 0];

internalField   nonuniform List<vector> 
6397
(
(1.05036 -0.196195 9.6765e-21)
(1.05911 -0.208456 -4.46223e-20)
(1.00831 -0.439013 0)
(1.01998 -0.465339 -1.63785e-22)
(0.997451 -0.494721 -1.45544e-21)
(0.992704 -0.475964 -2.06838e-21)
(0.802454 -0.537161 -3.46529e-20)
(0.476071 -0.765826 9.6318e-20)
(-0.115927 -0.285647 2.05829e-20)
(-0.149066 -0.269379 -7.72054e-21)
(0.493146 0.65617 7.51654e-20)
(0.795829 0.675379 -9.51468e-21)
(0.453058 0.0269516 -2.85635e-22)
(0.520453 0.0146317 -8.14624e-23)
(0.331473 0.0264374 1.00327e-21)
(0.0411771 -0.0365164 -1.04084e-19)
(0.17929 -0.0547221 -5.62144e-20)
(-0.0255783 -0.081157 4.91475e-20)
(0.324702 -0.0466152 5.44883e-20)
(0.447018 -0.229491 -1.65692e-19)
(0.546099 -0.0700502 -8.53533e-20)
(0.117924 -0.08209 -9.93598e-20)
(-0.0988514 -0.115421 4.54244e-21)
(0.392189 -0.0814316 -7.18193e-20)
(0.658559 0.0131759 0)
(0.659058 0.0116832 6.40645e-23)
(0.788073 0.0142614 -1.86888e-23)
(0.887023 -0.432392 1.17792e-20)
(0.861078 -0.357339 -2.59947e-21)
(0.889615 -0.45866 4.91976e-21)
(0.86649 -0.413155 -6.91308e-21)
(1.08212 -0.450685 -4.59381e-21)
(1.0632 -0.455695 -2.39892e-21)
(1.03023 -0.481006 9.36278e-21)
(1.26367 -0.221043 -1.84771e-21)
(1.22145 -0.287374 0)
(1.16152 -0.359639 1.76159e-21)
(1.12819 -0.397941 2.59168e-21)
(1.40041 -0.0153085 -1.6437e-21)
(1.41133 0.03843 4.25835e-22)
(1.35996 -0.0699939 0)
(1.3299 -0.140426 0)
(0.907492 -0.482784 -1.88267e-21)
(0.951299 -0.456472 -2.23776e-21)
(0.945629 -0.439071 1.87056e-21)
(0.988493 -0.448288 -3.40425e-21)
(0.969427 -0.477128 -2.3651e-21)
(0.968252 -0.453495 6.57185e-21)
(1.34244 0.122964 -9.08352e-22)
(1.32998 0.0964714 9.04544e-23)
(1.30369 0.0970353 -9.09615e-24)
(1.28688 0.0756865 -6.03513e-23)
(1.30014 0.0863414 1.43613e-21)
(0.976563 0.174701 -8.45348e-21)
(1.01748 0.205949 5.56707e-21)
(1.03222 0.0517215 3.95636e-21)
(1.03773 0.0644275 4.03702e-21)
(1.1487 -0.0148144 -8.82685e-23)
(0.810068 0.499637 -6.21852e-21)
(0.789036 0.388136 6.28924e-21)
(0.845392 0.556452 4.56188e-21)
(0.887868 0.568572 -4.50321e-21)
(0.929424 0.563678 -4.03986e-21)
(0.960629 0.569565 3.97062e-21)
(0.979638 0.594848 0)
(0.989173 0.625972 4.93501e-21)
(0.995231 0.640103 -5.17974e-21)
(0.992853 0.627246 0)
(0.81399 0.417744 -8.01073e-21)
(0.782027 0.232973 9.12678e-23)
(0.811598 0.254453 7.62746e-21)
(0.830973 0.53524 0)
(0.859282 0.594713 0)
(0.894336 0.606904 0)
(0.928366 0.597088 -1.88514e-23)
(0.952723 0.594052 2.03983e-24)
(0.96349 0.609557 0)
(0.962016 0.631993 -5.72434e-25)
(0.953863 0.636774 0)
(0.937439 0.608319 0)
(0.82189 0.0703416 -9.3307e-21)
(0.789057 0.0608024 5.60111e-22)
(0.976773 0.577648 0)
(0.909759 0.539463 0)
(0.84076 -0.106515 3.81348e-22)
(0.807878 -0.105986 0)
(0.944998 0.479462 0)
(0.867651 0.422836 0)
(0.865614 -0.259051 1.66988e-20)
(0.833694 -0.249575 -1.55975e-21)
(0.901207 0.317699 0)
(0.819872 0.252182 0)
(0.8926 -0.374293 -1.17142e-20)
(0.918964 -0.452014 -7.06446e-21)
(0.853621 0.102577 0)
(0.772719 0.0380961 1.18202e-21)
(0.911376 -0.268925 0)
(0.960059 -0.463885 1.43177e-20)
(0.935496 -0.386685 1.04271e-21)
(0.864607 0.0812978 -9.73861e-21)
(0.884565 -0.106962 0)
(0.850038 0.44387 -3.84002e-21)
(0.851855 0.274249 9.80927e-21)
(0.879511 0.628085 3.03674e-21)
(0.859374 0.566298 3.0825e-21)
(0.93167 0.620961 1.88834e-23)
(0.905956 0.637525 -3.19152e-21)
(0.950093 0.611469 -1.20987e-23)
(0.948017 0.607439 -2.54246e-21)
(0.918339 0.620389 -2.14984e-21)
(0.938556 0.623944 4.41216e-21)
(0.855048 0.496885 0)
(0.891412 0.581432 0)
(0.759868 0.191126 0)
(0.809341 0.366627 0)
(0.715841 -0.01491 -2.11472e-21)
(1.02974 0.52369 -1.08823e-20)
(0.949773 0.169143 -6.55667e-21)
(0.998731 0.379422 1.07194e-20)
(1.04757 0.631358 7.24652e-21)
(1.04718 0.602467 -7.0836e-21)
(1.01466 0.607403 3.42065e-23)
(1.03593 0.6284 1.61051e-22)
(0.968535 0.537628 0)
(0.994605 0.569552 0)
(0.88678 0.521742 3.5862e-21)
(0.933099 0.521923 3.51925e-22)
(0.7982 0.458102 7.80303e-22)
(0.839455 0.507908 -3.56549e-21)
(0.763335 0.215546 3.15361e-21)
(0.772553 0.356589 -3.49075e-22)
(0.787407 -0.102695 -5.66626e-21)
(0.769447 0.0532375 -2.85384e-21)
(0.840075 -0.340456 0)
(0.811804 -0.237478 6.53227e-21)
(0.943326 -0.491671 -5.49228e-21)
(0.911064 -0.47574 -3.5259e-22)
(0.979846 -0.500441 3.38578e-21)
(0.685006 -0.228711 -3.04046e-21)
(0.734215 -0.192134 7.8593e-22)
(1.05468 0.230871 -1.00417e-22)
(0.891948 -0.0840947 6.56968e-21)
(0.991908 -0.0162085 0)
(0.677326 -0.411904 1.89577e-21)
(0.657495 -0.247795 -2.68007e-21)
(0.665741 -0.400152 2.66461e-21)
(0.876054 -0.436907 2.04569e-21)
(1.0093 -0.477801 -7.85762e-21)
(1.02381 -0.508601 -3.24241e-21)
(0.895517 -0.463983 1.84879e-21)
(0.804729 -0.143069 3.24325e-22)
(0.966731 -0.281256 0)
(0.99034 -0.402802 -2.3308e-21)
(0.921519 0.0758342 3.96899e-22)
(0.941848 -0.116197 0)
(0.899293 0.44801 -1.7514e-21)
(0.906396 0.27458 3.2906e-21)
(0.907722 0.641182 0)
(0.898972 0.57458 4.05551e-22)
(0.938337 0.634129 0)
(0.921887 0.653912 1.80686e-22)
(0.9431 0.602138 0)
(0.947215 0.611166 2.87313e-22)
(0.893499 0.592152 -3.20384e-23)
(0.923639 0.603439 2.18399e-22)
(0.814308 0.454571 1.59233e-22)
(0.856732 0.546836 -2.85354e-22)
(0.716962 0.139596 -7.11625e-23)
(0.766002 0.316082 -9.66334e-23)
(0.677562 -0.0558955 9.19353e-22)
(1.11659 0.554843 1.45993e-22)
(1.09801 0.428074 1.8221e-22)
(1.10079 0.621697 -6.01023e-24)
(1.11576 0.612563 0)
(1.04046 0.57904 0)
(1.07375 0.606762 -6.43513e-23)
(0.97859 0.500469 0)
(1.00993 0.540457 0)
(0.890464 0.469741 -1.98215e-24)
(0.93997 0.477262 -3.57031e-22)
(0.794968 0.413984 -4.70936e-22)
(0.840037 0.4582 0)
(0.752767 0.202538 -2.07475e-21)
(0.766614 0.328534 0)
(0.773568 -0.0877592 1.59663e-22)
(0.756951 0.0561012 2.07839e-21)
(0.824856 -0.318055 3.31407e-24)
(0.796973 -0.215862 5.9393e-22)
(0.852978 -0.390592 -2.11869e-21)
(0.956298 -0.505282 1.4271e-21)
(0.927745 -0.496006 0)
(1.02374 -0.510002 1.23278e-21)
(0.98795 -0.509157 -1.0915e-21)
(0.922288 -0.274894 0)
(0.832713 -0.338999 0)
(0.709322 -0.406048 -1.04718e-21)
(0.648036 -0.251694 -3.16534e-22)
(0.671668 -0.372006 0)
(0.704957 -0.486579 -3.04779e-22)
(0.699992 -0.530081 9.53476e-23)
(1.02732 -0.195165 0)
(0.854515 -0.49913 0)
(0.941502 -0.42477 -4.60807e-21)
(0.919922 -0.491487 2.04155e-21)
(0.910888 -0.476719 0)
(1.01906 -0.494427 -2.28116e-21)
(1.059 -0.50461 -1.8872e-23)
(1.04977 -0.482244 4.98099e-21)
(0.893415 -0.441563 0)
(0.870274 -0.411269 -1.23351e-21)
(0.761455 -0.381878 0)
(1.06392 -0.485343 1.12737e-21)
(1.06809 -0.507818 0)
(1.03639 -0.305484 4.23783e-23)
(1.05444 -0.419846 8.64421e-23)
(0.989758 0.0584432 -7.34504e-22)
(1.01481 -0.141473 0)
(0.955419 0.446633 1.01795e-23)
(0.969458 0.2649 -7.14185e-22)
(0.943931 0.648959 -7.01091e-24)
(0.945828 0.578433 -5.48945e-22)
(0.95067 0.640379 5.63115e-22)
(0.945144 0.663137 0)
(0.939908 0.585916 0)
(0.950389 0.608434 -5.73936e-22)
(0.875392 0.553405 -1.21084e-22)
(0.913447 0.57416 6.04912e-23)
(0.781649 0.407901 0)
(0.830067 0.50316 -1.65575e-23)
(0.688081 0.099745 -1.00963e-22)
(0.732515 0.270029 2.7101e-22)
(0.656862 -0.0832617 4.88009e-22)
(1.16375 0.284939 -1.357e-21)
(1.10449 0.0561947 6.12998e-24)
(1.19791 0.55725 -5.07453e-22)
(1.19567 0.455874 2.07727e-21)
(1.14858 0.593831 1.9224e-22)
(1.17876 0.597349 -7.49459e-22)
(1.06792 0.543492 0)
(1.1105 0.571858 6.35015e-22)
(0.994809 0.465793 0)
(1.0291 0.507674 0)
(0.906782 0.420037 3.04834e-24)
(0.956001 0.434232 0)
(0.802304 0.376816 0)
(0.851606 0.409908 0)
(0.751078 0.196851 0)
(0.767735 0.305708 0)
(0.764777 -0.0685942 7.38013e-22)
(0.751123 0.0651789 0)
(0.816593 -0.291655 -3.28235e-24)
(0.78866 -0.192148 -7.54024e-22)
(0.844041 -0.363289 1.40039e-21)
(0.96183 -0.503056 1.14029e-21)
(0.937684 -0.500212 -1.91182e-21)
(0.989304 -0.500751 2.38509e-21)
(0.726848 -0.426288 9.80968e-22)
(0.788469 -0.544164 0)
(0.712735 -0.556345 1.27102e-21)
(0.863718 -0.59196 4.89565e-21)
(0.805598 -0.647157 0)
(0.771328 -0.506547 2.47552e-22)
(0.751159 -0.573027 8.34592e-22)
(1.01061 -0.468707 1.03298e-22)
(1.03684 -0.451907 5.72932e-23)
(0.928912 -0.485245 1.68304e-21)
(0.923016 -0.475406 1.58888e-21)
(0.872549 -0.383969 8.39244e-22)
(0.898471 -0.416458 0)
(1.09707 -0.490803 7.74054e-22)
(1.08183 -0.463882 6.59791e-22)
(0.803384 -0.430991 -9.83917e-22)
(0.873847 -0.432652 -1.34769e-22)
(0.844422 -0.498526 -1.1996e-21)
(0.91097 -0.459045 3.41465e-22)
(0.741724 -0.563017 0)
(1.12047 -0.486142 7.84162e-22)
(1.11323 -0.501312 -3.10144e-21)
(1.11075 -0.323359 -1.26589e-21)
(1.12105 -0.429962 2.94782e-21)
(1.06701 0.0382117 0)
(1.09179 -0.161685 0)
(1.01746 0.432402 -1.90986e-25)
(1.04104 0.246745 -6.80005e-28)
(0.983631 0.64368 6.94826e-24)
(0.997884 0.568523 0)
(0.967298 0.638248 0)
(0.973522 0.660886 -3.28948e-28)
(0.941694 0.56509 0)
(0.958363 0.599393 0)
(0.867327 0.508141 0)
(0.910494 0.539146 0)
(0.763576 0.357953 0)
(0.815734 0.452152 0)
(0.675822 0.0667042 0)
(0.714956 0.225511 0)
(0.655719 -0.238716 -2.30746e-22)
(0.651903 -0.0988153 0)
(0.764351 -0.354203 0)
(0.695325 -0.325115 6.07593e-23)
(0.903772 -0.376959 0)
(0.843966 -0.357105 -1.44532e-23)
(1.14153 -0.111021 -1.31941e-21)
(0.944229 -0.509042 -9.9711e-22)
(1.04481 -0.335184 1.32508e-21)
(1.27055 0.327563 4.87605e-22)
(1.2217 0.125094 -6.12774e-24)
(1.26768 0.543844 -2.53375e-22)
(1.28442 0.467832 -6.86861e-22)
(1.18691 0.555952 -9.81197e-25)
(1.23139 0.567393 0)
(1.09165 0.500161 0)
(1.14028 0.528838 0)
(1.00734 0.429576 0)
(1.04605 0.468566 0)
(0.924266 0.369759 -7.37078e-25)
(0.970027 0.392328 0)
(0.817119 0.333121 0)
(0.869971 0.357169 0)
(0.755869 0.186305 0)
(0.777547 0.277325 0)
(0.76423 -0.0528674 2.17183e-22)
(0.752749 0.0703304 -2.25872e-22)
(0.813331 -0.264014 2.32708e-22)
(0.785656 -0.168284 -2.12048e-23)
(0.84353 -0.335235 -1.20603e-21)
(0.961234 -0.488297 -1.33413e-21)
(0.941889 -0.490068 -1.80285e-21)
(0.985068 -0.480902 0)
(0.80212 -0.682552 0)
(0.852129 -0.614685 8.24071e-22)
(0.925701 -0.463044 9.2899e-22)
(0.946787 -0.42109 0)
(0.769784 -0.666618 0)
(0.743758 -0.624994 0)
(1.06271 -0.431319 0)
(0.924097 -0.463841 -2.90794e-21)
(0.881326 -0.355226 3.82462e-22)
(0.909422 -0.389953 0)
(0.783825 -0.708815 1.97605e-22)
(0.818647 -0.566498 -1.07643e-21)
(0.778159 -0.650113 1.9478e-22)
(0.767855 -0.695986 -1.38575e-22)
(0.904158 -0.509333 1.34521e-21)
(0.968036 -0.511122 2.24883e-22)
(0.990687 -0.465207 0)
(0.918913 -0.438457 2.54507e-21)
(0.749405 -0.658339 0)
(1.13439 -0.469542 -2.31716e-21)
(1.08622 -0.407632 -6.47467e-22)
(1.11152 -0.440716 -4.15855e-21)
(1.17702 -0.47836 -1.50692e-21)
(1.15905 -0.485584 2.61019e-21)
(1.18708 -0.33646 0)
(1.1893 -0.433005 9.59766e-22)
(1.14644 0.0112702 6.7475e-28)
(1.17322 -0.184041 -7.01607e-28)
(1.0821 0.409442 -6.55244e-25)
(1.11478 0.221354 0)
(1.02594 0.626471 0)
(1.05228 0.548428 0)
(0.98727 0.625702 -3.36442e-24)
(1.00446 0.647039 3.28939e-28)
(0.949452 0.539814 1.54577e-28)
(0.970807 0.583278 -1.60491e-28)
(0.871955 0.459785 0)
(0.916609 0.501333 0)
(0.763753 0.305601 3.68116e-25)
(0.818318 0.398368 0)
(0.677268 0.0369219 -1.47809e-25)
(0.714156 0.180644 0)
(0.678753 -0.209586 -3.03553e-23)
(0.661262 -0.103392 0)
(0.80973 -0.279265 -8.70715e-23)
(0.733763 -0.263648 3.20573e-23)
(0.924333 -0.332126 -3.70981e-24)
(0.878981 -0.293771 1.01152e-22)
(1.01155 -0.413928 4.03871e-22)
(0.963474 -0.379147 3.6459e-24)
(1.04865 -0.40524 6.14271e-22)
(0.833876 -0.569295 1.06307e-23)
(0.936686 -0.518316 -6.75111e-22)
(1.2605 -0.0242038 1.91795e-21)
(1.16102 -0.23296 -1.14928e-21)
(1.36266 0.352583 -8.93692e-22)
(1.33121 0.183507 -5.61992e-22)
(1.31997 0.510335 0)
(1.35551 0.459629 1.127e-21)
(1.21325 0.506748 -5.83981e-24)
(1.26858 0.521195 -2.29936e-28)
(1.10986 0.452356 0)
(1.16075 0.479877 0)
(1.01938 0.392139 -1.24829e-25)
(1.06125 0.425563 0)
(0.942643 0.323646 -3.76486e-25)
(0.983033 0.353892 0)
(0.839044 0.287031 0)
(0.892459 0.305906 0)
(0.76893 0.172313 0)
(0.794812 0.245486 0)
(0.770143 -0.0377851 0)
(0.761498 0.0722441 0)
(0.818016 -0.236653 0)
(0.790374 -0.145822 1.77517e-23)
(0.849462 -0.305812 -2.72842e-22)
(0.724747 -0.627182 -2.62201e-22)
(0.750113 -0.561784 0)
(1.04482 -0.497334 1.1369e-22)
(1.06564 -0.4401 -5.93544e-22)
(0.932063 -0.451672 0)
(0.932872 -0.417047 -3.49177e-22)
(0.931789 -0.462763 -1.51359e-21)
(0.939267 -0.459577 1.47167e-21)
(0.9341 -0.468391 9.12252e-22)
(0.93008 -0.466025 -4.57358e-23)
(0.95624 -0.464744 4.17257e-23)
(0.94274 -0.468577 -8.03118e-22)
(0.995049 -0.441267 -1.45649e-21)
(0.974373 -0.455708 2.14073e-22)
(1.04077 -0.399372 0)
(1.01786 -0.421977 1.27535e-21)
(1.0621 -0.374836 1.04689e-21)
(0.778796 -0.704608 -1.99215e-22)
(0.797152 -0.627959 -5.35687e-28)
(0.785401 -0.701871 1.39109e-22)
(0.88081 -0.560501 0)
(0.751312 -0.65746 0)
(0.945092 -0.551101 0)
(0.681813 -0.51048 -7.29015e-23)
(0.681606 -0.566875 -1.24338e-24)
(1.01652 -0.55302 -1.08995e-21)
(1.11891 -0.468631 2.89154e-22)
(1.10281 -0.526573 1.39063e-21)
(1.10728 -0.380161 1.09447e-21)
(1.08185 -0.348455 -7.88175e-22)
(0.783243 -0.674891 -6.48408e-28)
(1.16729 -0.440624 -3.72041e-23)
(1.1381 -0.412205 -7.96806e-22)
(1.22854 -0.458067 -7.44036e-22)
(1.20053 -0.459168 0)
(1.25969 -0.340408 4.84196e-28)
(1.25151 -0.423546 8.52908e-22)
(1.22556 -0.017577 0)
(1.25207 -0.202535 0)
(1.14536 0.376141 -9.25065e-24)
(1.18805 0.187672 0)
(1.06694 0.598322 0)
(1.10472 0.517298 0)
(1.00678 0.604325 5.88495e-24)
(1.03441 0.622658 0)
(0.957189 0.511745 9.71654e-25)
(0.982867 0.561334 0)
(0.878802 0.410939 0)
(0.923462 0.462885 0)
(0.768713 0.251806 -1.01485e-24)
(0.82484 0.343433 0)
(0.686861 0.0130895 1.16065e-24)
(0.718901 0.136527 0)
(0.720472 -0.165256 -1.41216e-24)
(0.6847 -0.0950085 5.43552e-29)
(0.853116 -0.213685 -6.68709e-25)
(0.785293 -0.196378 0)
(0.937782 -0.292983 4.97743e-23)
(0.902858 -0.246127 -1.12956e-22)
(1.02705 -0.361994 -1.70704e-22)
(0.977949 -0.334181 1.59331e-22)
(1.12764 -0.411777 4.089e-22)
(1.07718 -0.386584 -2.97115e-22)
(0.938094 -0.464348 1.09161e-23)
(0.754531 -0.434968 7.42749e-23)
(0.837509 -0.47077 0)
(1.17178 -0.29214 -7.39799e-23)
(1.05278 -0.405075 9.15748e-23)
(1.37261 0.053611 -1.37768e-22)
(1.28205 -0.131638 -2.3056e-23)
(1.43114 0.355113 2.82679e-24)
(1.42452 0.225271 -7.27025e-23)
(1.34926 0.462772 0)
(1.40095 0.431492 0)
(1.22784 0.451827 2.40763e-24)
(1.28858 0.465466 -3.10247e-28)
(1.1224 0.403714 1.04573e-28)
(1.17282 0.42867 -1.10693e-28)
(1.03048 0.353811 5.52903e-25)
(1.0741 0.380715 0)
(0.959698 0.282892 0)
(0.994381 0.318512 0)
(0.866885 0.238744 -9.27132e-25)
(0.917154 0.25745 0)
(0.787998 0.154098 0)
(0.819572 0.208953 0)
(0.782946 -0.0240769 -4.62076e-25)
(0.77606 0.0723996 0)
(0.829317 -0.207296 4.48933e-25)
(0.801634 -0.122328 3.2685e-24)
(0.895289 -0.326463 -2.63732e-22)
(0.861545 -0.27617 0)
(0.94802 -0.397427 -1.96157e-21)
(0.923571 -0.364633 1.12493e-21)
(0.962388 -0.427036 -4.54094e-22)
(0.930273 -0.467626 0)
(0.950851 -0.475111 -1.51737e-21)
(0.938534 -0.471752 2.14155e-23)
(0.931441 -0.453484 0)
(0.928418 -0.460988 0)
(0.949302 -0.435132 -6.69753e-22)
(0.938459 -0.444912 -1.74163e-28)
(0.98042 -0.408176 3.2935e-22)
(0.963589 -0.423529 1.15244e-21)
(1.01888 -0.367421 0)
(0.99951 -0.38964 -7.84092e-22)
(0.624374 -0.429126 8.32838e-25)
(0.69467 -0.366834 -1.46288e-22)
(1.17762 -0.494777 -1.75134e-21)
(1.1839 -0.430355 -2.39613e-21)
(1.05507 -0.318807 -5.34979e-22)
(1.03755 -0.343558 2.74762e-22)
(0.806393 -0.682971 -7.01168e-27)
(0.853547 -0.610058 0)
(0.796486 -0.658853 0)
(0.92103 -0.587446 -1.24802e-26)
(0.733638 -0.598119 -4.99948e-25)
(0.983274 -0.60018 -4.81479e-22)
(0.635508 -0.485141 -7.77282e-25)
(1.07343 -0.583414 0)
(0.654231 -0.283036 -1.39705e-21)
(0.571079 -0.32894 6.18119e-24)
(1.16053 -0.558537 -2.02983e-21)
(1.24453 -0.440584 2.58671e-21)
(1.24427 -0.510133 5.39109e-22)
(0.834672 -0.265911 1.18361e-21)
(0.64304 -0.195807 1.40328e-21)
(0.839032 -0.212021 1.62347e-21)
(1.309 -0.444195 2.68278e-21)
(1.23729 -0.377494 -1.92821e-21)
(1.29379 -0.376652 -5.39697e-22)
(1.07045 -0.29316 -9.0517e-23)
(1.03173 -0.28973 0)
(1.0486 -0.267419 9.59014e-23)
(0.827351 -0.652128 -4.68098e-28)
(1.12529 -0.350242 -2.22566e-22)
(1.0988 -0.321179 -3.85174e-22)
(1.19398 -0.406459 7.89841e-22)
(1.16074 -0.379322 2.20102e-22)
(1.27101 -0.428767 0)
(1.23466 -0.425184 0)
(1.32297 -0.337444 0)
(1.30473 -0.404463 0)
(1.30009 -0.0491 0)
(1.324 -0.217622 0)
(1.2049 0.331838 0)
(1.25816 0.146367 0)
(1.10209 0.558817 6.49067e-28)
(1.15197 0.474556 -6.7438e-28)
(1.01954 0.574171 -2.52021e-24)
(1.05822 0.587752 -3.32383e-28)
(0.953789 0.480901 -9.71656e-25)
(0.986315 0.53347 0)
(0.870882 0.362784 0)
(0.916602 0.424093 0)
(0.765546 0.201099 -8.70625e-25)
(0.818064 0.28975 0)
(0.709699 0.00468517 9.22396e-25)
(0.724892 0.100656 0)
(0.779473 -0.109811 1.4121e-24)
(0.729313 -0.0681551 0)
(0.887496 -0.165847 3.28534e-24)
(0.839768 -0.134567 1.29435e-28)
(0.951639 -0.256015 1.20191e-22)
(0.919912 -0.211032 0)
(1.03804 -0.314019 -3.82879e-23)
(0.993068 -0.289198 -1.50312e-22)
(1.13068 -0.357738 -1.25449e-22)
(1.08286 -0.33733 1.5006e-22)
(1.18313 -0.370466 1.69174e-21)
(0.910828 -0.362904 5.67818e-22)
(0.858865 -0.32023 -1.76648e-21)
(1.08791 -0.357818 4.04318e-25)
(0.988478 -0.379253 3.96553e-23)
(1.30542 -0.185348 -2.87373e-22)
(1.19638 -0.293678 3.13225e-22)
(1.46395 0.109884 -2.13249e-24)
(1.39985 -0.0421391 2.34166e-23)
(1.46469 0.333469 -2.82445e-24)
(1.48497 0.241221 -1.26678e-27)
(1.35502 0.404357 0)
(1.41608 0.384668 0)
(1.23155 0.395008 -3.26774e-28)
(1.29188 0.404874 3.45814e-28)
(1.12958 0.356882 0)
(1.1775 0.377875 0)
(1.04153 0.314725 4.69346e-25)
(1.08445 0.336427 0)
(0.973874 0.24915 0)
(1.00486 0.28532 0)
(0.898128 0.192451 9.27134e-25)
(0.940343 0.216344 0)
(0.814614 0.12978 0)
(0.851877 0.168468 0)
(0.797659 -0.0120331 -6.17899e-25)
(0.795589 0.0677005 2.26633e-28)
(0.843298 -0.178269 -4.3649e-25)
(0.81498 -0.0981588 0)
(0.908536 -0.298132 0)
(0.875893 -0.245866 -7.39253e-26)
(0.96064 -0.379315 4.41817e-22)
(0.938048 -0.340066 -4.07117e-27)
(0.979633 -0.415754 9.89849e-22)
(0.946913 -0.496844 -3.42678e-21)
(0.969624 -0.49829 1.73749e-21)
(0.91955 -0.479537 0)
(0.931628 -0.491228 0)
(0.917547 -0.447262 -9.49838e-26)
(0.915232 -0.464893 -1.91547e-28)
(0.935228 -0.409828 -8.07733e-26)
(0.924407 -0.428603 -1.62423e-28)
(0.963762 -0.374248 -5.18924e-23)
(0.948732 -0.39194 -2.43132e-28)
(0.99679 -0.335449 -2.43644e-22)
(0.979739 -0.356145 2.6765e-22)
(1.01433 -0.312758 9.57489e-23)
(0.829789 -0.649586 1.80324e-26)
(0.890023 -0.617573 -2.8367e-27)
(0.791528 -0.615559 0)
(0.947466 -0.634091 1.42922e-26)
(0.697279 -0.531318 7.39922e-25)
(1.0293 -0.63344 4.82253e-22)
(0.578036 -0.38603 6.07376e-24)
(1.12687 -0.613138 1.38274e-22)
(0.527849 -0.214018 2.72882e-23)
(1.22445 -0.578519 0)
(0.863023 -0.164479 -1.81776e-21)
(0.66597 -0.121231 0)
(1.31368 -0.514661 1.25838e-21)
(1.35197 -0.364679 -4.46186e-21)
(1.37572 -0.432947 -2.50048e-21)
(0.999499 -0.175948 1.4058e-23)
(0.8967 -0.118407 -3.06607e-21)
(0.996634 -0.126596 -2.18177e-23)
(1.40755 -0.340233 -7.46241e-22)
(1.32059 -0.306439 -2.32961e-21)
(1.36685 -0.284788 -3.41877e-21)
(1.00965 -0.259312 0)
(1.02486 -0.239402 -2.15313e-22)
(1.08266 -0.267189 -2.68892e-23)
(1.06507 -0.242715 2.81004e-23)
(0.857441 -0.63825 3.19176e-27)
(1.1401 -0.318006 1.27991e-22)
(1.1132 -0.292915 1.77559e-22)
(1.21418 -0.36668 -5.65672e-23)
(1.17783 -0.343178 1.55077e-22)
(1.30146 -0.390412 1.62347e-24)
(1.25861 -0.384135 -1.6561e-27)
(1.37292 -0.324167 0)
(1.34368 -0.37475 0)
(1.36698 -0.0807961 0)
(1.384 -0.226524 0)
(1.26176 0.275719 -5.37413e-24)
(1.32381 0.097809 0)
(1.13097 0.506829 0)
(1.19493 0.418764 0)
(1.0225 0.533037 0)
(1.0738 0.541006 0)
(0.93549 0.444068 0)
(0.977467 0.496556 0)
(0.848229 0.316349 0)
(0.893263 0.383021 0)
(0.766195 0.1632 1.51735e-24)
(0.803205 0.242547 0)
(0.759244 0.0199013 6.69148e-25)
(0.748741 0.0849117 5.70236e-28)
(0.844259 -0.0572646 0)
(0.796218 -0.0252452 0)
(0.912694 -0.135715 3.28126e-25)
(0.885078 -0.0915918 -1.29434e-28)
(0.969334 -0.220186 1.39581e-24)
(0.937527 -0.182278 4.327e-28)
(1.0457 -0.272152 8.70322e-23)
(1.0073 -0.248507 1.39884e-25)
(1.12944 -0.308279 -1.36833e-23)
(1.08603 -0.293049 -7.49451e-23)
(1.22303 -0.321588 4.88145e-22)
(1.17569 -0.317713 -2.69436e-22)
(1.27179 -0.31856 2.64195e-21)
(1.01828 -0.256933 1.79903e-22)
(1.00427 -0.219036 -2.97264e-23)
(1.0961 -0.305677 -1.51919e-23)
(1.04573 -0.288751 0)
(1.24754 -0.266443 -3.99249e-25)
(1.16431 -0.300376 -4.01561e-23)
(1.41833 -0.0999001 0)
(1.33554 -0.199103 0)
(1.50993 0.135414 1.0239e-24)
(1.48136 0.0189437 0)
(1.45945 0.292841 0)
(1.49935 0.229235 0)
(1.34219 0.34444 0)
(1.40327 0.328831 0)
(1.22746 0.341207 -1.58101e-25)
(1.28292 0.34673 0)
(1.13241 0.313553 0)
(1.1771 0.329827 0)
(1.05189 0.276423 -8.97421e-25)
(1.0915 0.295294 0)
(0.985858 0.220622 -1.56875e-24)
(1.01569 0.252792 0)
(0.927957 0.153175 -1.76061e-24)
(0.959286 0.184531 1.08387e-28)
(0.850142 0.0988634 -1.7812e-24)
(0.889078 0.127628 -8.36787e-28)
(0.815254 -0.00545183 -4.99172e-25)
(0.822968 0.0551988 0)
(0.85166 -0.149284 0)
(0.82684 -0.0769946 0)
(0.916114 -0.269395 0)
(0.884267 -0.214198 7.40549e-26)
(0.97036 -0.36012 -1.96682e-22)
(0.946765 -0.315988 3.99901e-27)
(0.991899 -0.402714 1.3543e-22)
(1.00572 -0.499196 0)
(1.04478 -0.478986 -4.77224e-21)
(0.942283 -0.509491 1.97372e-21)
(0.971533 -0.50868 6.97122e-22)
(0.903363 -0.488423 2.44052e-25)
(0.920169 -0.503746 4.6158e-28)
(0.894197 -0.446711 1.94659e-25)
(0.894352 -0.470652 4.03104e-28)
(0.911498 -0.393647 -3.07829e-28)
(0.900067 -0.42097 3.12994e-28)
(0.94364 -0.342871 -8.53421e-23)
(0.926633 -0.367353 2.11698e-28)
(0.977763 -0.300382 2.42552e-22)
(0.960993 -0.320976 8.69622e-23)
(0.993533 -0.28024 1.56455e-22)
(0.826973 -0.634539 0)
(0.903221 -0.65283 1.00549e-27)
(0.756469 -0.577218 0)
(0.974918 -0.666536 -8.56191e-26)
(0.634928 -0.450358 -6.09776e-25)
(1.06865 -0.656132 -1.31879e-24)
(0.512187 -0.264646 -3.57208e-24)
(1.17606 -0.629299 6.89117e-24)
(0.509072 -0.0944007 -3.73927e-23)
(1.2857 -0.576161 1.6753e-23)
(0.723357 -0.0682603 0)
(1.37907 -0.498288 2.18717e-21)
(0.993405 -0.0703883 -2.51334e-21)
(0.925471 -0.0658547 5.84018e-21)
(1.43731 -0.402343 -9.27149e-23)
(1.40765 -0.252087 3.59122e-21)
(1.45506 -0.300376 5.45254e-21)
(1.03796 -0.223826 -2.49262e-22)
(0.858887 -0.652256 -6.33326e-27)
(1.09538 -0.23931 2.34171e-23)
(1.04756 -0.191912 1.38166e-21)
(1.07365 -0.222798 -8.80764e-22)
(1.15303 -0.284797 -7.15608e-23)
(1.12319 -0.265563 -2.9467e-23)
(1.22745 -0.324948 5.64939e-23)
(1.18836 -0.306832 -4.69852e-23)
(1.31865 -0.346402 3.0453e-22)
(1.27144 -0.339932 -2.83623e-22)
(1.40479 -0.300146 3.75472e-24)
(1.3657 -0.336375 -2.03832e-27)
(1.42207 -0.107753 4.74991e-24)
(1.42729 -0.225525 2.74451e-27)
(1.32011 0.208348 1.48717e-24)
(1.38477 0.0455491 0)
(1.16311 0.439463 0)
(1.24182 0.347857 0)
(1.02678 0.477997 -4.79592e-25)
(1.09111 0.479647 0)
(0.921095 0.398743 4.82596e-28)
(0.970461 0.447323 -5.01048e-28)
(0.840904 0.276268 9.25203e-28)
(0.877998 0.33987 -9.60251e-28)
(0.800536 0.148798 -1.23018e-27)
(0.813277 0.21105 1.27637e-27)
(0.833145 0.0509218 -5.6214e-24)
(0.807899 0.0943552 1.43501e-27)
(0.895605 -0.0236166 2.8231e-24)
(0.866619 0.0143717 1.40978e-27)
(0.93338 -0.114105 2.17498e-25)
(0.915983 -0.0677704 0)
(0.98508 -0.187498 1.91995e-24)
(0.956065 -0.155144 9.96025e-28)
(1.05027 -0.236029 1.03924e-24)
(1.01709 -0.213673 0)
(1.12434 -0.266658 1.0182e-23)
(1.08618 -0.254234 0)
(1.20591 -0.275155 -1.27964e-22)
(1.16442 -0.273858 8.83667e-23)
(1.28834 -0.257692 0)
(1.24751 -0.269642 -2.7747e-23)
(1.35936 -0.211757 -2.33751e-21)
(1.32623 -0.238359 2.19934e-21)
(1.06859 -0.156467 1.81726e-22)
(1.03318 -0.0595083 1.28369e-21)
(1.048 -0.109866 -1.2372e-21)
(1.12844 -0.227297 4.02318e-23)
(1.09543 -0.196296 5.62711e-24)
(1.22193 -0.251401 0)
(1.16899 -0.247601 0)
(1.35004 -0.194647 -1.05864e-24)
(1.28341 -0.234803 0)
(1.46783 -0.046019 0)
(1.41454 -0.130316 0)
(1.49763 0.130502 1.1084e-24)
(1.49772 0.0454582 0)
(1.42631 0.244252 0)
(1.47066 0.197413 0)
(1.31943 0.288942 0)
(1.37371 0.273437 0)
(1.2187 0.292578 -5.79977e-25)
(1.2674 0.294238 0)
(1.13278 0.273832 0)
(1.17368 0.285637 0)
(1.06066 0.240979 -1.32553e-27)
(1.09581 0.258305 1.40345e-27)
(0.997668 0.194338 1.56713e-24)
(1.02703 0.220924 1.71525e-27)
(0.951907 0.124701 3.77436e-24)
(0.974143 0.160474 1.82035e-27)
(0.891927 0.0652722 -3.10711e-25)
(0.924748 0.093164 0)
(0.842696 -0.00964221 1.58076e-24)
(0.861481 0.0332833 -1.92551e-27)
(0.857046 -0.124499 1.52667e-27)
(0.842236 -0.0638366 -1.61888e-27)
(0.913644 -0.239828 0)
(0.884004 -0.184203 0)
(0.972549 -0.337907 -4.56795e-23)
(0.944334 -0.290623 6.57459e-23)
(1.02239 -0.418913 0)
(0.997174 -0.383147 5.97349e-24)
(1.04252 -0.44608 0)
(1.01878 -0.4793 0)
(1.10791 -0.420557 -4.97128e-22)
(1.06461 -0.452382 2.13829e-21)
(0.940419 -0.495451 -2.73145e-22)
(0.978021 -0.492069 -5.47611e-22)
(0.887046 -0.479132 3.58397e-26)
(0.909839 -0.492404 0)
(0.867656 -0.439569 -9.98833e-26)
(0.872357 -0.463291 0)
(0.880883 -0.382115 0)
(0.87061 -0.412752 0)
(0.917026 -0.318923 9.8835e-27)
(0.896968 -0.350372 0)
(0.958514 -0.266519 0)
(0.938521 -0.290684 0)
(0.992146 -0.226514 0)
(0.975978 -0.245596 1.13366e-23)
(1.03008 -0.193437 0)
(1.00912 -0.208114 1.24587e-22)
(0.99454 -0.0098568 4.58097e-21)
(1.02928 -0.00810732 0)
(1.43921 -0.210364 -3.22563e-22)
(1.38503 -0.17869 -1.44427e-22)
(0.792354 -0.628093 1.20564e-25)
(0.907106 -0.67998 0)
(1.09747 -0.413361 0)
(0.691968 -0.522747 8.39607e-26)
(0.994944 -0.675928 6.14637e-26)
(1.05409 -0.178875 6.72418e-22)
(1.01449 -0.168282 0)
(1.03222 -0.155839 0)
(0.55444 -0.338229 3.34649e-25)
(1.09389 -0.659563 2.27225e-24)
(0.451813 -0.120385 0)
(1.21417 -0.612111 -1.57905e-23)
(0.533921 0.00907737 0)
(1.33035 -0.540385 0)
(0.801004 -0.0291597 0)
(1.429 -0.448718 -8.64216e-22)
(0.945222 -0.00359186 -4.63057e-22)
(1.48362 -0.345528 -2.14852e-22)
(1.0349 0.0390124 0)
(1.00448 0.0487203 -2.17631e-21)
(1.4882 -0.244944 3.38811e-21)
(1.45746 -0.161438 -4.11397e-21)
(1.40139 -0.141096 2.78296e-21)
(0.837728 -0.668871 4.25801e-27)
(1.10494 -0.217753 8.21286e-23)
(1.082 -0.196725 0)
(1.1612 -0.25431 2.15125e-23)
(1.13215 -0.236547 -2.47468e-23)
(1.23274 -0.284309 0)
(1.19524 -0.270537 2.03374e-24)
(1.32252 -0.29907 0)
(1.276 -0.294963 -2.72088e-23)
(1.41586 -0.266013 -3.75275e-24)
(1.37098 -0.292145 0)
(1.45859 -0.122862 -7.86898e-24)
(1.44887 -0.211907 0)
(1.3799 0.137942 1.42581e-24)
(1.43583 -0.000697597 0)
(1.21448 0.358435 5.29359e-25)
(1.30102 0.266312 1.60766e-27)
(1.059 0.411546 4.79108e-25)
(1.1321 0.404982 5.0468e-28)
(0.946372 0.350751 -2.38628e-24)
(0.996861 0.389837 1.75091e-27)
(0.883334 0.250671 -2.5608e-27)
(0.908452 0.302174 2.48483e-27)
(0.873975 0.154697 -3.25864e-24)
(0.872036 0.200472 3.09813e-27)
(0.903758 0.0750166 6.24527e-24)
(0.88675 0.11358 0)
(0.929883 -0.00877666 1.48889e-25)
(0.91902 0.0348365 3.03504e-27)
(0.953863 -0.0958013 -4.98482e-24)
(0.939858 -0.0540095 0)
(0.998726 -0.159855 -1.91882e-24)
(0.974237 -0.131039 -2.16881e-27)
(1.05427 -0.204172 0)
(1.02551 -0.184068 0)
(1.11862 -0.230238 1.10551e-22)
(1.08563 -0.219713 -1.14498e-22)
(1.18825 -0.23646 0)
(1.1532 -0.236056 -2.71331e-29)
(1.25746 -0.219791 -3.0751e-23)
(1.2237 -0.231168 5.20999e-23)
(1.31526 -0.180682 -7.44897e-22)
(1.28834 -0.202979 7.43008e-22)
(1.34956 -0.124294 0)
(1.33579 -0.153865 1.43753e-22)
(1.05892 -0.047461 5.63224e-22)
(1.05649 0.0320323 1.16608e-22)
(1.05338 -0.00618269 -8.22863e-22)
(1.10004 -0.126897 1.25869e-21)
(1.07492 -0.0886883 -5.54859e-22)
(1.17241 -0.18428 5.99619e-22)
(1.13241 -0.160428 -1.89016e-21)
(1.26976 -0.195386 -1.91263e-24)
(1.21802 -0.197459 1.76806e-23)
(1.37565 -0.138443 1.05863e-24)
(1.32343 -0.176102 0)
(1.45107 -0.0186594 2.5694e-27)
(1.42043 -0.08425 -2.71657e-27)
(1.4498 0.111666 -5.96922e-28)
(1.46115 0.0494212 6.31256e-28)
(1.38239 0.200001 -2.6663e-25)
(1.42137 0.162208 0)
(1.29312 0.24163 8.08908e-28)
(1.33838 0.225823 -8.55826e-28)
(1.20731 0.250293 7.36373e-25)
(1.24911 0.249151 1.80803e-27)
(1.13152 0.237886 0)
(1.16806 0.246352 0)
(1.06715 0.209574 1.81937e-24)
(1.09816 0.225247 -1.08863e-28)
(1.01018 0.168957 -3.70484e-27)
(1.03758 0.191389 3.92365e-27)
(0.969743 0.10541 1.82362e-25)
(0.987583 0.140012 0)
(0.931609 0.0375398 2.09272e-24)
(0.95271 0.0699258 0)
(0.884438 -0.0251256 -2.25738e-24)
(0.907022 0.00743871 0)
(0.872883 -0.11055 3.80814e-27)
(0.872028 -0.0641466 -4.03795e-27)
(0.909588 -0.212148 0)
(0.886859 -0.160558 0)
(0.966988 -0.310849 1.30255e-23)
(0.936343 -0.263579 1.30382e-22)
(1.03143 -0.391506 -9.36662e-23)
(0.995923 -0.357695 -7.22989e-23)
(1.06355 -0.412655 0)
(1.14185 -0.355082 6.54622e-22)
(1.20126 -0.291652 -1.85739e-21)
(1.0378 -0.420355 0)
(1.09103 -0.390814 -6.4289e-22)
(0.94332 -0.443653 1.2721e-24)
(0.988609 -0.435813 0)
(0.875417 -0.438949 -2.77893e-25)
(0.904932 -0.4458 -2.49305e-27)
(0.844526 -0.411291 0)
(0.854891 -0.428882 0)
(0.849667 -0.3629 0)
(0.842952 -0.389669 0)
(0.884164 -0.29985 -9.82554e-27)
(0.863829 -0.332652 0)
(0.933712 -0.237794 0)
(0.908615 -0.267289 0)
(0.976195 -0.193362 -1.11447e-22)
(0.956667 -0.213112 -1.09505e-23)
(0.995061 -0.178043 -7.03341e-24)
(1.05077 0.0818884 0)
(1.06792 0.0668669 4.89581e-22)
(1.4085 -0.102426 -1.9506e-21)
(1.35626 -0.0937333 1.78355e-21)
(0.736469 -0.596847 -2.05544e-26)
(0.904301 -0.673033 3.7901e-26)
(1.06683 -0.158325 -1.06126e-21)
(1.05159 -0.143734 9.17957e-22)
(0.609992 -0.426634 -1.6271e-24)
(0.992959 -0.658295 0)
(0.468176 -0.187509 7.43833e-25)
(1.10127 -0.618785 -7.16558e-24)
(0.417266 0.0324258 0)
(1.22563 -0.548815 0)