/*--------------------------------*- C++ -*----------------------------------*\
  =========                 |
  \\      /  F ield         | OpenFOAM: The Open Source CFD Toolbox
   \\    /   O peration     | Website:  https://openfoam.org
    \\  /    A nd           | Version:  10
     \\/     M anipulation  |
\*---------------------------------------------------------------------------*/
FoamFile
{
    format      ascii;
    class       volScalarField;
    location    "30.5";
    object      p;
}
// * * * * * * * * * * * * * * * * * * * * * * * * * * * * * * * * * * * * * //

dimensions      [0 2 -2 0 0 0 0];

internalField   nonuniform List<scalar> 
14667
(
0.321166
0.330818
-0.00444678
-0.00341487
-0.000884742
0.198433
0.185516
-0.00495513
0.00363963
0.0030426
0.201353
0.214814
0.296573
0.228919
-0.00670067
0.181641
0.188798
0.0224828
0.0139751
0.19102
0.275073
0.355354
0.291428
0.28301
-0.306127
-0.326475
-0.374216
-0.331376
-0.339893
0.537363
0.501732
0.501843
-0.657515
-0.673601
-0.732818
-0.664965
-0.680361
0.00705207
-0.00333971
0.00712031
0.0165807
0.0264814
0.713086
0.719559
0.807696
0.796664
0.713868
-0.393053
-0.329695
-0.427722
-0.507406
0.623704
0.572959
0.534476
-0.0343541
-0.0646186
-0.517564
-0.454512
-0.736677
-0.70504
-0.326184
-0.362113
0.336865
0.386713
0.479805
0.42657
0.311038
0.217777
0.0821458
0.470965
0.458447
0.447401
0.874585
0.840333
-0.335389
-0.222288
-0.228125
-0.276515
0.474025
0.490621
0.0108848
0.00654063
0.00659877
0.000516724
0.00069401
-0.299504
-0.393585
-0.654554
-0.582607
-0.254673
-0.233565
-0.0402878
-0.0709675
-0.0979552
-0.0992107
-0.0943489
-0.0959535
-0.0746176
-0.093082
-0.0648972
-0.0881137
-0.172758
-0.11068
0.386631
0.427808
0.413262
0.380681
0.35873
0.352257
-0.00903969
-0.0119545
-0.00752911
-0.00681225
-0.00240567
-0.00557896
0.054395
0.0454327
0.0481341
-0.00624298
-0.00975939
-0.00553424
-0.0978092
-0.097898
-0.0987697
-0.101534
-0.103838
-0.0997613
-0.107282
-0.115154
-0.119294
-0.110105
-0.125149
-0.137341
-0.146322
-0.13134
-0.151148
-0.165921
-0.183515
-0.163966
-0.180336
-0.193216
-0.222097
-0.203604
-0.202296
-0.203424
-0.24781
-0.236905
-0.206121
-0.202217
-0.233554
-0.244028
-0.19402
-0.181238
-0.196019
-0.216493
-0.1634
-0.14777
-0.155198
-0.173929
-0.132733
-0.120184
-0.125939
-0.139867
-0.109872
-0.102356
-0.105644
-0.114526
-0.0994688
-0.0971794
-0.100605
-0.103154
-0.0947778
-0.0966169
-0.100229
-0.105677
-0.0992533
-0.104385
-0.0925195
-0.102554
-0.0962419
-0.123883
-0.111744
-0.160285
-0.139291
-0.196838
-0.179722
-0.209661
-0.207429
-0.198743
-0.209885
-0.17113
-0.185717
-0.14121
-0.155855
-0.117163
-0.128151
-0.10201
-0.108448
-0.0959232
-0.0976467
-0.0965307
-0.111628
-0.109626
-0.0959107
-0.0952022
-0.103832
-0.0986874
-0.121139
-0.111126
-0.150401
-0.134206
-0.190527
-0.169462
-0.231541
-0.211994
-0.25195
-0.246051
-0.246313
-0.254012
-0.210956
-0.231675
-0.163626
-0.186475
-0.128153
-0.144271
-0.106068
-0.115812
-0.0988317
-0.11305
-0.10613
-0.0911244
-0.0950508
-0.111434
-0.121957
-0.12144
-0.0923387
-0.0853894
-0.0931919
-0.0881313
-0.112405
-0.101375
-0.141432
-0.126827
-0.166107
-0.154721
-0.177661
-0.174056
-0.170993
-0.175585
-0.149482
-0.16148
-0.1245
-0.136699
-0.10511
-0.113809
-0.0942284
-0.0985536
-0.0919245
-0.0920094
-0.0975829
-0.093834
-0.103386
-0.118399
-0.0978586
-0.0910976
-0.0934959
-0.0921598
-0.090674
-0.101699
-0.0957884
-0.121458
-0.110127
-0.154054
-0.136067
-0.19843
-0.175168
-0.243362
-0.22204
-0.267918
-0.25936
-0.256815
-0.266646
-0.216862
-0.239284
-0.167782
-0.192005
-0.12827
-0.146192
-0.103614
-0.114374
-0.0900912
-0.0955261
-0.092833
-0.086089
-0.0869032
-0.0851256
-0.0951218
-0.0969175
-0.133572
-0.0961718
-0.0879769
-0.135048
-0.0883978
-0.108767
-0.120031
-0.0931153
-0.104187
-0.0874984
-0.0925989
-0.0801211
-0.0766281
-0.0771342
-0.0824352
-0.0783753
-0.0978066
-0.0888436
-0.120383
-0.108712
-0.142491
-0.132153
-0.153763
-0.150002
-0.146752
-0.15214
-0.128739
-0.138539
-0.109022
-0.118576
-0.0941931
-0.100759
-0.0866818
-0.0894737
-0.086535
-0.085709
-0.0935182
-0.0891179
-0.100008
-0.122738
-0.129393
-0.114047
-0.0837539
-0.0852127
-0.0863507
-0.0841284
-0.0971498
-0.0906348
-0.118275
-0.106244
-0.152568
-0.13366
-0.19938
-0.174801
-0.247126
-0.224418
-0.2733
-0.264284
-0.262496
-0.272699
-0.21927
-0.243768
-0.166849
-0.19254
-0.125108
-0.144022
-0.0984384
-0.110118
-0.0833158
-0.0897249
-0.0769713
-0.0789907
-0.0806124
-0.0774728
-0.0984586
-0.0929705
-0.0861068
-0.111914
-0.0990888
-0.102065
-0.0928047
-0.102869
-0.100388
-0.13358
-0.0860355
-0.0972245
-0.0956108
-0.0862571
-0.0708889
-0.0770254
-0.0663884
-0.0674343
-0.0701892
-0.0672743
-0.0816547
-0.0748985
-0.0998674
-0.0901921
-0.118137
-0.109614
-0.126933
-0.124242
-0.122339
-0.126189
-0.108639
-0.116143
-0.0935569
-0.100841
-0.0825228
-0.0873354
-0.0776008
-0.0792539
-0.0790501
-0.0775263
-0.087295
-0.0822437
-0.103737
-0.0943579
-0.129446
-0.115443
-0.149172
-0.147443
-0.149911
-0.133875
-0.142039
-0.123623
-0.0859152
-0.0778192
-0.0814207
-0.0750636
-0.0756523
-0.0790119
-0.0761731
-0.0907357
-0.0837843
-0.112744
-0.100264
-0.148019
-0.1286
-0.196025
-0.170826
-0.24489
-0.221674
-0.271358
-0.262358
-0.259642
-0.270315
-0.216262
-0.24082
-0.162377
-0.189036
-0.118745
-0.138559
-0.0906547
-0.102983
-0.0740584
-0.0812298
-0.0658261
-0.0687973
-0.0666216
-0.0650818
-0.0699384
-0.145268
-0.105392
-0.102144
-0.110884
-0.0992919
-0.109048
-0.11302
-0.0727014
-0.0764668
-0.090859
-0.11063
-0.102266
-0.122452
-0.13842
-0.0808514
-0.105494
-0.11672
-0.103033
-0.0752623
-0.0872528
-0.0605815
-0.0665233
-0.0553273
-0.056926
-0.0572296
-0.0554619
-0.0655904
-0.0605665
-0.079861
-0.0721985
-0.0945375
-0.0876648
-0.101944
-0.0995183
-0.0988723
-0.10166
-0.0886283
-0.0942543
-0.0773909
-0.0827868
-0.0695689
-0.0728863
-0.0669718
-0.0675714
-0.0700702
-0.0677918
-0.0794667
-0.0739031
-0.0966387
-0.086966
-0.108492
-0.166239
-0.155486
-0.162577
-0.162621
-0.166278
-0.145874
-0.155709
-0.120208
-0.133813
-0.105651
-0.0665826
-0.0692696
-0.0654515
-0.0652979
-0.0703766
-0.0671235
-0.0825421
-0.0754279
-0.10454
-0.0921128
-0.139525
-0.120271
-0.187241
-0.162168
-0.235962
-0.212811
-0.262051
-0.253293
-0.249739
-0.26074
-0.206514
-0.230743
-0.153741
-0.179949
-0.10977
-0.12995
-0.0805915
-0.093468
-0.0625944
-0.0705133
-0.0526273
-0.0565832
-0.0507819
-0.0507248
-0.0553239
-0.0525034
-0.0596196
-0.116144
-0.115464
-0.0959715
-0.0802503
-0.123578
-0.127129
-0.126741
-0.123708
-0.138983
-0.123286
-0.11251
-0.145509
-0.0949068
-0.0693208
-0.172576
-0.161709
-0.117793
-0.149285
-0.128785
-0.0878333
-0.106041
-0.0631092
-0.0737521
-0.0496221
-0.0551779
-0.0440746
-0.0459937
-0.0444774
-0.0436152
-0.0501619
-0.0466361
-0.0608791
-0.0550233
-0.0725259
-0.0670126
-0.0787204
-0.0766117
-0.0767035
-0.0786752
-0.0692243
-0.0733338
-0.061194
-0.0649998
-0.0561779
-0.0581704
-0.0557286
-0.055341
-0.0603036
-0.057372
-0.070433
-0.0646076
-0.0876529
-0.0780122
-0.113134
-0.0993962
-0.128728
-0.18347
-0.17999
-0.178136
-0.182926
-0.157994
-0.169635
-0.128545
-0.144044
-0.112236
-0.0651712
-0.0595214
-0.0624491
-0.055131
-0.056885
-0.0553487
-0.0546032
-0.0608926
-0.0574137
-0.0730398
-0.06601
-0.094393
-0.0823713
-0.128067
-0.109547
-0.173993
-0.149848
-0.220938
-0.198639
-0.245769
-0.237552
-0.233175
-0.244146
-0.191109
-0.214589
-0.140574
-0.1656
-0.0981039
-0.117766
-0.0686765
-0.0818428
-0.0495177
-0.0580816
-0.0380193
-0.0428486
-0.0339895
-0.0350567
-0.0363453
-0.0346149
-0.042452
-0.0392075
-0.0712786
-0.0447532
-0.0446001
-0.131181
-0.133229
-0.140347
-0.150254
-0.143054
-0.16638
-0.13707
-0.156051
-0.17968
-0.121797
-0.0989784
-0.042936
-0.0692859
-0.132339
-0.0397632
-0.0510906
-0.188314
-0.176538
-0.0527284
-0.0674876
-0.0230575
-0.147728
-0.134559
-0.187139
-0.157457
-0.106786
-0.130707
-0.0718986
-0.0873816
-0.0506357
-0.0598449
-0.0384864
-0.0436012
-0.0329659
-0.0350217
-0.0322595
-0.0320873
-0.0357484
-0.0334577
-0.0434464
-0.0391458
-0.0524559
-0.0481247
-0.0575478
-0.0557536
-0.0563684
-0.0576901
-0.0511205
-0.0540026
-0.0457299
-0.04822
-0.0430675
-0.0439455
-0.0443874
-0.0431997
-0.0500311
-0.0466578
-0.0605044
-0.054604
-0.0772793
-0.0680005
-0.101987
-0.0886307
-0.117083
-0.199489
-0.196128
-0.192473
-0.198303
-0.168977
-0.182419
-0.136
-0.153175
-0.10041
-0.11819
-0.0834569
-0.0466701
-0.0489997
-0.0438602
-0.0448421
-0.0450529
-0.043919
-0.0508582
-0.0473328
-0.0625555
-0.055846
-0.082603
-0.0713511
-0.113984
-0.0967341
-0.156853
-0.134292
-0.200814
-0.179931
-0.223745
-0.21629
-0.211062
-0.22181
-0.171192
-0.193327
-0.123828
-0.147262
-0.083905
-0.102465
-0.0552796
-0.0682721
-0.0356013
-0.0445197
-0.022832
-0.0283766
-0.0171144
-0.0191331
-0.0174003
-0.0167415
-0.0206716
-0.0188324
-0.0211799
-0.021708
-0.0201603
-0.15042
-0.15578
-0.068908
-0.0536636
-0.000782423
-0.160423
-0.178045
-0.160774
-0.198132
-0.149822
-0.212625
-0.128185
-0.185834
-0.21824
-0.0985272
-0.0629965
-0.032651
-0.161424
-0.155856
-0.211912
-0.174385
-0.127035
-0.151524
-0.0849171
-0.104423
-0.0562342
-0.0688063
-0.0382989
-0.0461674
-0.0276533
-0.0322112
-0.0222929
-0.0244046
-0.020817
-0.0211394
-0.0225813
-0.02128
-0.0277505
-0.0247686
-0.0344903
-0.0311761
-0.0386447
-0.0371173
-0.038127
-0.0389352
-0.034636
-0.0365529
-0.0313208
-0.0327774
-0.0304862
-0.0305048
-0.033112
-0.0313464
-0.0394457
-0.0358056
-0.0499753
-0.0441238
-0.0660846
-0.0572066
-0.0891612
-0.0767038
-0.117028
-0.102655
-0.143901
-0.131288
-0.172242
-0.201325
-0.188332
-0.212689
-0.209465
-0.204004
-0.210888
-0.177563
-0.192512
-0.141581
-0.160243
-0.103507
-0.122421
-0.0855381
-0.0397849
-0.037958
-0.0392186
-0.0345188
-0.0362207
-0.0330067
-0.03339
-0.0348716
-0.0334915
-0.0406407
-0.0372195
-0.0515467
-0.0453373
-0.069815
-0.0595948
-0.0981614
-0.0825931
-0.136902
-0.116494
-0.17682
-0.157838
-0.197419
-0.190847
-0.18495
-0.195258
-0.147998
-0.168399
-0.104636
-0.126078
-0.067876
-0.0850297
-0.0408152
-0.0532379
-0.0212391
-0.0302474
-0.00767736
-0.0137032
-0.000495601
-0.00329513
0.0012024
0.000894653
3.92068e-05
0.000742877
0.000251921
-0.000140516
0.000473829
-0.153569
-0.173721
-0.183077
-0.192083
-0.230371
-0.182335
-0.209538
-0.177844
-0.231798
-0.159274
-0.245026
-0.129959
-0.245148
-0.0932312
-0.0555372
-0.00220518
-0.0259991
-0.000706591
-0.124564
-0.0274675
-0.0271192
-0.133509
-0.0396744
-0.181526
-0.200634
-0.16086
-0.135329
-0.151415
-0.0970538
-0.116395
-0.0641733
-0.0793372
-0.0413392
-0.0515105
-0.0265319
-0.0331215
-0.0173237
-0.0213279
-0.0122859
-0.0143537
-0.0103308
-0.0109831
-0.0108167
-0.0102663
-0.0139303
-0.0120413
-0.018714
-0.0162847
-0.022048
-0.0207564
-0.0220233
-0.0224414
-0.0198575
-0.0210488
-0.0180855
-0.0187767
-0.0185817
-0.017979
-0.022118
-0.0199561
-0.0288567
-0.0250793
-0.039193
-0.0335178
-0.0542654
-0.046031
-0.0750522
-0.0639175
-0.100264
-0.0872251
-0.113174
-0.236558
-0.19645
-0.160215
-0.17909
-0.13937
-0.159681
-0.21049
-0.195702
-0.22159
-0.218688
-0.211495
-0.219223
-0.182673
-0.198676
-0.144793
-0.1644
-0.10509
-0.124751
-0.069289
-0.0864903
-0.0536166
-0.0258129
-0.0269622
-0.023368
-0.0244936
-0.0227999
-0.0227596
-0.0250406
-0.0235515
-0.0305299
-0.027333
-0.0403852
-0.0348122
-0.0565295
-0.0475286
-0.0813339
-0.0677261
-0.115244
-0.0973596
-0.150427
-0.133665
-0.168448
-0.162797
-0.156511
-0.166197
-0.122885
-0.14133
-0.0840158
-0.103217
-0.05087
-0.0664034
-0.0258706
-0.0374508
-0.00703748
-0.0158112
0.00674232
0.000501472
0.0149314
0.0115516
0.018025
0.0170002
0.0184313
0.018353
0.0188064
0.0185735
0.0168607
0.0181536
0.0175173
0.0159778
0.0210658
0.00987343
0.0208669
-0.199138
-0.213515
-0.0389119
-0.0264426
-0.20328
-0.242514
-0.191124
-0.263509
-0.163751
-0.271323
-0.126319
-0.262533
-0.0850377
-0.0509186
-0.0211733
-0.000306712
-0.228513
-0.147748
-0.178687
-0.124244
-0.11799
0.00772226
-0.141491
0.0173277
-0.119947
-0.209914
-0.113498
-0.0963513
-0.119607
-0.121152
-0.098291
-0.110947
-0.0696949
-0.0838796
-0.0450897
-0.0564247
-0.0275371
-0.035522
-0.0155247
-0.0209281
-0.00772341
-0.0111674
-0.00311655
-0.00507142
-0.000902251
-0.00175833
-0.000486123
-0.000478055
-0.0019909
-0.000977353
-0.00510312
-0.00344634
-0.00768148
-0.00661854
-0.00799541
-0.00812931
-0.00680049
-0.00746218
-0.00613368
-0.00628019
-0.00755526
-0.00652458
-0.0116804
-0.00927128
-0.0185747
-0.0147779
-0.0284946
-0.0231115
-0.0422924
-0.0348354
-0.0606936
-0.0509166
-0.0829746
-0.0714875
-0.104586
-0.0942923
-0.112641
-0.181635
-0.162138
-0.216141
-0.196641
-0.224961
-0.222561
-0.2145
-0.222249
-0.183549
-0.199935
-0.145177
-0.165046
-0.105036
-0.124892
-0.0687573
-0.0861664
-0.0529808
-0.0157518
-0.0163527
-0.0164236
-0.0148378
-0.0157864
-0.0132771
-0.0139423
-0.0133728
-0.0130563
-0.0157571
-0.014268
-0.0207885
-0.0178997
-0.0294352
-0.024577
-0.0432814
-0.0355914
-0.0642966
-0.0527868
-0.092992
-0.0778407
-0.123049
-0.10868
-0.13848
-0.133691
-0.127347
-0.136369
-0.0971866
-0.113627
-0.0629272
-0.0798197
-0.0336208
-0.0474053
-0.0110258
-0.0215744
0.00655086
-0.00171323
0.0199413
0.0137952
0.0285069
0.024857
0.0324692
0.0309639
0.0339847
0.0333499
0.0345312
0.0344458
0.0322658
0.0338802
0.0310956
0.0310646
0.028708
0.030019
0.0142257
0.0213243
0.0251741
-0.224228
-0.244797
-0.220649
-0.272923
-0.198299
-0.288414
-0.161753
-0.286479
-0.118286
-0.265633
-0.0772181
-0.0444572
-0.0178892
-0.00259687
0.00462505
0.0186005
0.00939662
0.0051788
-0.206054
-0.149714
-0.0927021
-0.139835
-0.0964276
-0.00645611
-0.00580535
-0.0147227
-0.0984338
-0.118482
-0.238501
-0.0468519
-0.0225813
-0.0773938
-0.0656337
-0.0804836
-0.0820275
-0.0655832
-0.0744118
-0.0456275
-0.0554899
-0.0283084
-0.0364838
-0.015016
-0.0211602
-0.00547492
-0.00981433
0.00100966
-0.00189684
0.005128
0.00332944
0.00743889
0.00647428
0.00844441
0.0080884
0.00813153
0.00847709
0.00642364
0.00740897
0.00457701
0.00539821
0.00406685
0.00412518
0.00455874
0.00428013
0.00445359
0.00468225
0.00243264
0.00373273
-0.00200117
0.000521605
-0.00882867
-0.00511761
-0.0181655
-0.0131537
-0.0306073
-0.02395
-0.0467211
-0.0382167
-0.0657882
-0.0560668
-0.084655
-0.0756212
-0.0917016
-0.180046
-0.16081
-0.211169
-0.196705
-0.22169
-0.219196
-0.210386
-0.218665
-0.180917
-0.197191
-0.142831
-0.162487
-0.103255
-0.122836
-0.0673663
-0.084632
-0.0377283
-0.0516901
-0.0254187
-0.00644496
-0.00667906
-0.00520224
-0.00590638
-0.00427639
-0.00460557
-0.00481323
-0.00432749
-0.00715856
-0.00575205
-0.0116145
-0.00908565
-0.018982
-0.0148689
-0.0304999
-0.024131
-0.0477211
-0.0383116
-0.0711528
-0.0587703
-0.0959709
-0.0840506
-0.108791
-0.104872
-0.098744
-0.10645
-0.0721296
-0.0866225
-0.0422314
-0.0569353
-0.0166985
-0.0287321
0.00329656
-0.0060952
0.0192393
0.0116935
0.0317334
0.0259457
0.0401488
0.0364819
0.0446115
0.0427907
0.0467943
0.0458697
0.0471932
0.0473311
0.0445269
0.0461686
0.0405254
0.0426243
0.0349835
0.0379297
0.0247626
0.0305813
-0.245523
-0.272954
-0.0137491
-0.00489724
-0.23118
-0.295933
-0.197937
-0.301871
-0.153509
-0.286706
-0.107546
-0.253997
-0.0690422
-0.0388434
-0.0165316
-0.00572547
-0.000271083
0.0147964
0.00337023
0.00694328
0.0127204
0.0415045
0.0183672
0.0339414
-0.173141
-0.1136
-0.0567262
-0.00695662
-0.097315
-0.263532
-0.021143
-0.00318907
-0.0428106
-0.0343678
-0.046677
-0.046672
-0.0381838
-0.0434171
-0.0256265
-0.0320107
-0.0136893
-0.0194485
-0.00388372
-0.0084806
0.00351226
0.000103523
0.00880624
0.00639578
0.0124149
0.0107982
0.0147054
0.0137013
0.0160624
0.0154815
0.0165715
0.0164413
0.0159951
0.016415
0.0148705
0.0154248
0.0143024
0.0144772
0.0142922
0.0142884
0.0136655
0.0141401
0.0113072
0.0127467
0.00679822
0.00932305
0.00021453
0.00375846
-0.00843407
-0.0038357
-0.019524
-0.0136421
-0.0334468
-0.0261417
-0.0495601
-0.0413497
-0.0652269
-0.0577153
-0.0758758
-0.071514
-0.0770649
-0.0779521
-0.0927676
-0.134109
-0.113282
-0.173276
-0.154495
-0.202362
-0.189519
-0.212571
-0.210152
-0.201798
-0.209673
-0.174186
-0.189598
-0.137797
-0.156598
-0.0998291
-0.118641
-0.0651606
-0.0818744
-0.0362723
-0.0499144
-0.0242525
0.00278141
0.00206245
0.00225637
0.00229608
0.00203628
0.00318614
0.00271723
0.00363099
0.00353525
0.00284397
0.00340788
0.000667418
0.00193507
-0.00315268
-0.00100616
-0.00924668
-0.00586681
-0.018531
-0.0134231
-0.0321549
-0.0247359
-0.0505533
-0.0408296
-0.0702638
-0.0607401
-0.0807324
-0.0774894
-0.0720647
-0.0788246
-0.0487396
-0.06145
-0.0226925
-0.0354672
-0.000588138
-0.0110043
0.0168182
0.0086169
0.0309049
0.0242082
0.0421676
0.0369135
0.0500942
0.0465717
0.0547533
0.0527759
0.0570435
0.0561566
0.0566977
0.0572888
0.053018
0.0551956
0.0475822
0.0504426
0.0405709
0.0443448
0.0297493
0.0357567
0.0238349
-0.0731095
-0.259317
-0.293381
-0.232528
-0.307111
-0.189658
-0.300952
-0.140542
-0.272738
-0.0957341
-0.228575
-0.0610831
-0.0348549
-0.0182863
-0.0106556
-0.00684549
-0.00286039
0.00431747
-0.0029817
0.010539
-0.00523811
0.00248901
0.0642334
0.0610729
0.0849295
0.0678455
0.0845528
-0.134599
-0.0747644
-0.0203472
0.0257415
-0.058486
0.00956894
0.00974835
-0.0553423
0.00334094
-0.280873
0.0323677
0.0500321
0.00298009
0.016248
-0.01419
-0.00723173
-0.0197411
-0.0182946
-0.0163917
-0.0188887
-0.00907091
-0.0129554
-0.00118286
-0.00507548
0.00579653
0.00246754
0.0113978
0.00877462
0.0156511
0.0136824
0.0187599
0.0173346
0.0209504
0.0199552
0.0224878
0.0217838
0.0235095
0.0230722
0.023781
0.0237548
0.0233475
0.0236168
0.0228595
0.0230735
0.022512
0.0226995
0.0215449
0.0221719
0.0190458
0.020526
0.0146416
0.0170824
0.00843502
0.011752
0.000536464
0.00470186
-0.00923709
-0.00409778
-0.021099
-0.0149159
-0.0345002
-0.0276958
-0.0473718
-0.0411752
-0.0567414
-0.0526587
-0.0587921
-0.08526
-0.0500986
-0.0668747
-0.124562
-0.104726
-0.161736
-0.143879
-0.188963
-0.177119
-0.198738
-0.196297
-0.189298
-0.196305
-0.164299
-0.17834
-0.130703
-0.148121
-0.0952138
-0.112848
-0.0624396
-0.0782913
-0.0347602
-0.047878
-0.0128966
-0.0231286
-0.00410875
0.00934832
0.00938244
0.0097417
0.00947439
0.0103899
0.010092
0.010486
0.0105497
0.00959926
0.0101706
0.00767812
0.00877319
0.00450852
0.0062738
-0.000376443
0.00231436
-0.00761246
-0.00365462
-0.0179852
-0.012363
-0.0318027
-0.0245101
-0.0467171
-0.0394687
-0.0549535
-0.0523317
-0.0478567
-0.0534949
-0.0277563
-0.0387905
-0.00499359
-0.0161566
0.0142358
0.00519002
0.0293067
0.0222103
0.0415176
0.0357043
0.0513958
0.0467624
0.0585916
0.0553485
0.0629999
0.0611275
0.0647408
0.0642168
0.0633523
0.064474
0.0588446
0.0614327
0.0526565
0.0558765
0.0451079
0.0491284
0.0348945
0.0402933
0.0237739
0.0296024
0.0176929
-0.262465
-0.302044
0.00361378
0.00986657
-0.22432
-0.303648
-0.174655
-0.283931
-0.125103
-0.245307
-0.0846386
-0.193461
-0.0549845
-0.0341717
-0.0224919
-0.0172863
-0.0143163
-0.012189
-0.0138222
-0.00634141
-0.0152234
0.00110136
-0.0158114
-0.0070808
0.0849619
0.0989028
0.102398
0.0952653
0.104288
0.110222
-0.0951432
-0.0374851
0.0138207
0.0557214
-0.034954
-0.043667
-0.029682
-0.287285
0.0714414
0.0841627
0.0448946
0.0580082
0.0222814
0.0327499
0.00744181
0.0137915
0.00075181
0.00312489
0.000740833
7.85733e-05
0.00440946
0.00230212
0.0092746
0.00679433
0.0140575
0.0117234
0.0182059
0.0162272
0.0215714
0.0199863
0.0242108
0.0229747
0.0262492
0.0252967
0.0278501
0.0270921
0.0291496
0.0285392
0.0299909
0.0296476
0.0301656
0.0301582
0.0298827
0.0300583
0.0293524
0.0296587
0.0281721
0.028889
0.0256625
0.027117
0.0214923
0.0237862
0.0157612
0.018808
0.00864761
0.0123731
0.000128598
0.00457107
-0.00987638
-0.00469573
-0.0209291
-0.0153409
-0.0314797
-0.026402
-0.0392972
-0.035879
-0.0415313
-0.0413838
-0.0391932
-0.0759582
-0.0592147
-0.112219
-0.0938242
-0.14686
-0.130228
-0.172088
-0.161119
-0.181744
-0.179085
-0.174202
-0.180038
-0.152448
-0.164769
-0.122375
-0.138053
-0.089959
-0.106141
-0.0595013
-0.0742969
-0.0333331
-0.0457948
-0.0122907
-0.0221728
-0.00367188
0.0152273
0.0153541
0.0153018
0.0155474
0.0154117
0.0160424
0.0157684
0.0164837
0.0163061
0.0163567
0.0165117
0.0154844
0.0160117
0.0138669
0.014774
0.0113285
0.0127306
0.00754825
0.00961547
0.002119
0.00506845
-0.00543994
-0.00136912
-0.0152812
-0.0101075
-0.0258642
-0.0207062
-0.0318726
-0.0299216
-0.0263181
-0.0307801
-0.00952554
-0.0188744
0.0103198
0.000525876
0.0272624
0.0192953
0.0404296
0.0342533
0.0509425
0.0459533
0.059409
0.0554333
0.0656206
0.0628181
0.0692602
0.0677763
0.0700432
0.0700285
0.0677623
0.069276
0.062833
0.0656609
0.0564041
0.0597378
0.0487443
0.0527842
0.0391723
0.044151
0.0281592
0.0338753
0.0156949
0.0222179
0.00870398
-0.255068
-0.296534
-0.207548
-0.285563
-0.155671
-0.254975
-0.11
-0.209131
-0.0758471
-0.153905
-0.0520633
-0.036515
-0.0286362
-0.0253911
-0.023715
-0.0238106
-0.0253949
-0.026255
-0.015536
-0.0259495
-0.00695489
-0.0247036
-0.0144648
0.110368
0.102346
0.104187
0.113169
0.104764
0.116143
0.118285
-0.058438
-0.00399389
0.044005
0.0812802
-0.0362497
-0.0214545
0.0197967
0.019392
0.014994
-0.0171411
-0.0234614
-0.279991
0.0914361
0.0981202
0.0737936
0.0831137
0.0540298
0.0639039
0.0360171
0.044592
0.0230849
0.0288176
0.0160025
0.0188292
0.013966
0.0144499
0.0151707
0.0142861
0.0178737
0.016416
0.021005
0.0194304
0.0239993
0.0225401
0.0266217
0.0253627
0.028835
0.0277773
0.0306912
0.0298035
0.0322778
0.031511
0.0336949
0.0330057
0.0348616
0.0343259
0.0355046
0.0352629
0.0355096
0.0355843
0.0349509
0.0353014
0.0336631
0.0344239
0.0312202
0.0326111
0.0273618
0.0294699
0.0221703
0.0249189
0.0158547
0.0191431
0.00850061
0.0123075
0.000108585
0.00442704
-0.00898204
-0.00440278
-0.0176388
-0.0134692
-0.0241736
-0.0212936
-0.0263811
-0.0260976
-0.0245611
-0.0656874
-0.0504716
-0.0986904
-0.0819385
-0.130262
-0.115092
-0.153534
-0.143328
-0.163348
-0.160325
-0.158036
-0.162531
-0.139863
-0.150291
-0.113663
-0.127429
-0.084607
-0.0992054
-0.0566561
-0.0703108
-0.0321142
-0.0438704
-0.0119951
-0.0214786
0.00356422
-0.00363782
0.00976741
0.020353
0.0201012
0.0208078
0.0205761
0.0212951
0.021052
0.021566
0.0214809
0.0213264
0.0215167
0.0205513
0.0210013
0.019256
0.0199737
0.0173064
0.0183746
0.0145033
0.0160242
0.0106147
0.0127102
0.00539676
0.00818217
-0.00115187
0.00226278
-0.00800351
-0.00468181
-0.0117638
-0.0105881
-0.00738017
-0.0108236
0.00610794
-0.00151673
0.0230631
0.0145825
0.0380637
0.0309758
0.0497373
0.0442843
0.0588251
0.0545474
0.0659348
0.0626198
0.0709691
0.0687326
0.0735525
0.0725897
0.0733713
0.0738168
0.0704515
0.0722318
0.0653873
0.068086
0.0590231
0.0623379
0.0514882
0.0554263
0.0424918
0.0471659
0.0321231
0.0374769
0.0204104
0.0264561
0.00737189
0.0140445
0.000467801
-0.237065
-0.277742
0.0144523
0.0187624
-0.185341
-0.25628
-0.136287
-0.218603
-0.0975547
-0.169713
-0.0705007
-0.114932
-0.0522225
-0.041485
-0.0368623
-0.0357401
-0.0355027
-0.0369124
-0.0384685
-0.0384308
-0.0369673
-0.0222271
-0.0121442
-0.0296681
-0.0180792
0.0861007
0.103485
-0.034093
0.100248
0.112929
0.120534
0.125947
0.122548
-0.0265004
0.0249318
0.069674
0.10237
-0.0121791
-0.261137
0.0947203
0.0914989
0.0948507
0.0958571
0.0872951
0.091931
0.0745233
0.081298
0.0596778
0.0672182
0.0452782
0.0522457
0.034125
0.0392059
0.027149
0.0301099
0.0240082
0.0251523
0.0236444
0.0235581
0.0248539
0.0241157
0.0267663
0.0257616
0.0288605
0.0278121
0.0308728
0.0298858
0.0327101
0.0318147
0.0343717
0.0335614
0.0358928
0.0351466
0.0373267
0.0366186
0.038633
0.038007
0.039577
0.0391689
0.0398802
0.0398321
0.039427
0.0397481
0.0381479
0.038903
0.035827
0.0371321
0.0323138
0.0342202
0.0276867
0.0301269
0.0221535
0.0250211
0.0158503
0.0190944
0.0088202
0.0124189
0.00132304
0.00509008
-0.00583884
-0.00237731
-0.0113226
-0.00891502
-0.0130684
-0.0128082
-0.00965903
-0.0120459
-0.00231961
-0.00630604
-0.00684957
-0.0285197
-0.0169846
-0.0551882
-0.0413536
-0.0850069
-0.0699361
-0.113466
-0.0997535
-0.135003
-0.125431
-0.145155
-0.141691
-0.142179
-0.145287
-0.127621
-0.136144
-0.10531
-0.117156
-0.0796296
-0.0926367
-0.0541883
-0.0667029
-0.0312805
-0.0423239
-0.0120638
-0.021168
0.00312325
-0.00397984
0.00926237
0.0224403
0.0236931
0.0231402
0.0245393
0.0241511
0.0251384
0.0248566
0.0255988
0.0253942
0.0257526
0.0257262
0.02549
0.0256716
0.0248647
0.0252188
0.0238884
0.0244246
0.0224717
0.0232416
0.0205094
0.0215647
0.0178963
0.0192902
0.0145576
0.0163174
0.0106109
0.0126363
0.00678983
0.00859523
0.00517384
0.00551356
0.00900293
0.00623129
0.0195779
0.0135624
0.0335671
0.0264602
0.0466109
0.0403829
0.0569624
0.0521304
0.06485
0.0611752
0.0707345
0.0680318
0.0746037
0.072936
0.0761786
0.0756948
0.0752659
0.0760328
0.0720265
0.0739099
0.0670179
0.0696811
0.0608173
0.0640471
0.0535408
0.0573216
0.045115
0.0494694
0.0355212
0.040468
0.0247259
0.0302629
0.0129568
0.0189321
0.000567036
0.00679124
-0.00578194
0.00190343
-0.212057
-0.249046
-0.161769
-0.220798
-0.119537
-0.180336
-0.0890248
-0.132079
-0.0685228
-0.0798942
-0.0555685
-0.0492588
-0.0477979
-0.0484357
-0.0501687
-0.0521163
-0.0529046
-0.0516207
-0.048584
-0.0434706
-0.0236328
-0.036636
0.0789363
0.0721397
0.0787313
-0.0128343
-0.0284204
-0.0166463
0.0944556
0.109919
0.132361
0.131897
0.123348
0.000449488
0.0494646
0.0912309
0.119778
0.00609973
0.0254866
0.0245597
0.00930608
0.0215243
-0.233883
0.0869025
0.083849
0.0878921
0.0881897
0.0830942
0.086122
0.0740265
0.0789289
0.0627073
0.0685382
0.0512187
0.0568695
0.0417015
0.046122
0.0351556
0.0380408
0.0315341
0.0330054
0.0302377
0.0306457
0.030445
0.0302009
0.0314771
0.0308908
0.0328839
0.0321537
0.0344046
0.0336402
0.0359173
0.0351656
0.0373854
0.0366574
0.0388085
0.0381019
0.0401987
0.0395073
0.041524
0.0408771
0.0426128
0.042113
0.043147
0.0430094
0.0428827
0.0431176
0.0417342
0.0424265
0.0396
0.0407954
0.0364451
0.0381475
0.0323705
0.0345113
0.0275686
0.0300486
0.0221812
0.0249434
0.0162671
0.0192839
0.0100218
0.0131584
0.00401635
0.00693225
-0.000586749
0.00142509
-0.00197376
-0.0017801
0.000598574
-0.00116787
0.00312878
-0.0016668
0.0123229
0.00591256
-0.0209665
-0.0106576
-0.045071
-0.0325068
-0.0718891
-0.058358
-0.0976205
-0.0851659
-0.117744
-0.108665
-0.128356
-0.124416
-0.127653
-0.129427
-0.11652
-0.123243
-0.0978782
-0.107912
-0.0753922
-0.0868924
-0.0523258
-0.0637624
-0.0309652
-0.041331
-0.0125951
-0.021354
0.00223338
-0.00473236
0.0134978
0.00829977
0.0178617
0.026931
0.0262814
0.0279333
0.0274717
0.0286372
0.0283158
0.0290639
0.0288887
0.0291599
0.0291552
0.0289445
0.0290856
0.0284958
0.0287465
0.0278213
0.0281894
0.0268745
0.0273845
0.0256185
0.0262866
0.0240346
0.0248672
0.0221575
0.023126
0.0201782
0.0211578
0.0186609
0.0193031
0.0188773
0.0184419
0.0227073
0.0202316
0.0311429
0.0263963
0.0423649
0.0366052
0.0533316
0.0480323
0.0623106
0.0581046
0.0690969
0.0659609
0.0739202
0.0717453
0.0767972
0.0756101
0.0775692
0.0774551
0.0761657
0.0771328
0.0728019
0.0747023
0.0679466
0.0705423
0.0619991
0.0650944
0.055081
0.0586618
0.0472121
0.0512614
0.0383998
0.0429285
0.0286113
0.0336174
0.018126
0.023428
0.00718655
0.0126534
-0.00346941
0.00167501
-0.00838235
-0.184583
-0.215428
0.0202839
0.0233516
-0.140508
-0.184554
-0.107121
-0.144791
-0.08445
-0.0991963
-0.0700475
-0.0501343
-0.0623524
-0.0603158
-0.0618113
-0.0646968
-0.0676996
-0.0694339
-0.0686543
-0.0654708
-0.0598316
-0.0521651
0.063632
0.0590417
0.0500824
0.0534574
-0.0429083
0.0693752
-0.0196882
-0.0323267
0.0863225
0.103973
-0.00903349
-0.0219217
-0.0107697
0.140223
0.134062
0.120715
0.0232366
0.0702784
0.109439
0.133674
0.017621
0.0151637
0.0198133
-0.202982
0.0726056
0.0666056
0.0799274
0.0770065
0.081781
0.0814643
0.0790066
0.0809321
0.0725621
0.0761604
0.0638767
0.0683936
0.0547399
0.0592548
0.0467357
0.050517
0.0408045
0.0434863
0.0370971
0.0386828
0.0352971
0.0359901
0.0348592
0.0349421
0.0352738
0.0349863
0.0361672
0.0356784
0.037299
0.0367136
0.0385369
0.0379096
0.0398217
0.0391754
0.0411286
0.0404734
0.0424404
0.0417853
0.0437167
0.0430886
0.0448085
0.0443017
0.0454745
0.045183
0.0454333
0.0455595
0.0445015
0.0450844
0.0426258
0.0436818
0.0398445
0.0413424
0.0362897
0.0381528
0.0321395
0.0342787
0.0275215
0.0298844
0.0224962
0.0250548
0.0172154
0.0198683
0.0121356
0.0146021
0.00831416
0.00997053
0.00720868
0.00735997
0.00908855
0.00783935
0.0130483
0.0109147
0.015384
0.00286077
0.00955651
-0.014263
-0.00506172
-0.0358484
-0.0245545
-0.0599605
-0.0477711
-0.0834422
-0.0720089
-0.10249
-0.0937631
-0.113652
-0.109223
-0.115069
-0.115613
-0.107049
-0.11214
-0.0917318
-0.100123
-0.0721436
-0.0822766
-0.0512282
-0.06169
-0.0312546
-0.0410152
-0.0136357
-0.0220915
0.000915254
-0.00595086
0.012157
0.00693618
0.0165834
0.0258991
0.0280462
0.027072
0.0295946
0.0288773
0.0306747
0.0301741
0.0314042
0.0310782
0.0318051
0.0316453
0.031902
0.0318869
0.0317814
0.0318628
0.0315173
0.0316654
0.0311197
0.0313361
0.0305785
0.0308669
0.0299032
0.0302561
0.0291308
0.029525
0.0283587
0.0287347
0.0278084
0.0280348
0.0279301
0.0277451
0.0295215
0.0284796
0.0336079
0.0311974
0.0406886
0.0368028
0.0497027
0.045076
0.0586875
0.0543109
0.0662439
0.0626872
0.0719571
0.0693309
0.0758509
0.0741281
0.0779198
0.0771174
0.0780895
0.0782444
0.0763775
0.0774591
0.0729897
0.0748743
0.0683384
0.0707465
0.06272
0.0656473
0.0562184
0.059574
0.0489098
0.0526604
0.0408371
0.0449688
0.0320318
0.0365169
0.022703
0.0274167
0.013114
0.0179093
0.00404978
0.00843968
-0.00358097
-2.3772e-05
-0.00664086
-0.15889
-0.182039
-0.1238
-0.151768
-0.0993147
-0.114466
-0.0838143
-0.071833
-0.075431
-0.0253107
-0.0731151
-0.0754291
-0.0800323
-0.0848093
-0.088214
-0.0886881
-0.0856032
-0.079535
0.0400646
0.0386397
0.029274
0.0291881
-0.0709837
0.0422311
-0.0601707
0.0581804
-0.0481797
0.0760292
-0.0354552
0.0953106
-0.011773
-0.0233773
0.143945
0.132179
0.114873
0.0426847
0.0882228
0.124657
0.143737
0.0177789
0.0219666
0.0279585
-0.0120739
-0.00212328
-0.00211691
0.0266474
0.0245487
0.023581
0.0218636
-0.173168
0.0550552
0.0472713
0.0668368
0.0616071
0.0737948
0.0708834
0.0763464
0.075577
0.0750276
0.0761447
0.0704646
0.0730897
0.0638553
0.0673259
0.0565999
0.060209
0.0499403
0.0531311
0.0446997
0.0471137
0.0411378
0.0427095
0.0391165
0.0399529
0.0382901
0.0385778
0.038287
0.0382062
0.038806
0.0384963
0.0396356
0.0391917
0.0406451
0.0401234
0.0417621
0.0411931
0.0429457
0.0423477
0.0441606
0.0435519
0.0453547
0.0447652
0.0464068
0.0459109
0.0471178