/*--------------------------------*- C++ -*----------------------------------*\
  =========                 |
  \\      /  F ield         | OpenFOAM: The Open Source CFD Toolbox
   \\    /   O peration     | Website:  https://openfoam.org
    \\  /    A nd           | Version:  10
     \\/     M anipulation  |
\*---------------------------------------------------------------------------*/
FoamFile
{
    format      ascii;
    class       surfaceScalarField;
    location    "30.5";
    object      phi;
}
// * * * * * * * * * * * * * * * * * * * * * * * * * * * * * * * * * * * * * //

dimensions      [0 3 -1 0 0 0 0];

internalField   nonuniform List<scalar> 
29080
(
0.0907404
-0.145251
-0.0153105
0.0698209
0.0509744
0.039766
0.0111871
0.0279208
-0.0249381
-0.0141698
0.0398844
0.00532885
-0.0340262
0.0366819
-0.00154205
0.00474455
0.0315568
-0.0584838
0.0475808
-0.0206538
-0.0485018
0.0291868
0.0508718
0.0323754
0.00465456
-0.0444993
0.00746934
-0.0300693
0.0679913
-0.00554664
0.0112672
-0.103353
-0.0159908
0.06086
-0.0838522
0.0553534
0.0822301
0.0662394
-0.0181206
-0.107402
0.0377121
0.0652285
0.0044615
0.000811582
0.0362888
-0.01244
-0.0220518
0.0500703
0.0264873
0.0535646
-0.0882967
0.00824483
0.0200105
0.074822
0.0204053
0.0635867
-0.00407517
-0.0042692
0.00343495
0.0027339
-0.00189965
-0.00785251
-0.0197099
0.0232932
-0.00399805
-0.0050422
0.00118774
-0.00346376
0.00290066
0.00409278
-0.00482264
-0.0697613
0.0013271
0.00798368
0.0604505
-0.0361044
-0.0483758
0.0147189
0.0390918
-0.0377507
-0.0374455
-0.00176634
0.000480592
0.00484347
-0.00355773
0.0126466
-0.0144129
-0.00366803
0.0163146
0.00881901
-0.0120064
0.00160852
0.012054
-0.0241754
-0.00284703
0.020167
0.00685544
0.00142257
-0.0188793
-0.0067187
0.0237711
0.00121607
-0.0235646
0.0153222
0.00560187
0.0157618
0.0197274
-0.032352
0.0135137
0.0288155
-0.00997726
0.0259532
-0.0493317
-0.00897344
0.0134225
0.0131166
-0.000585835
0.0165839
0.0103523
0.0165106
0.0288888
0.0810304
0.0233058
-0.0563696
-0.0479667
0.0218412
0.0743233
-0.0151341
-0.0702346
0.067444
0.0246319
-0.0703878
0.023459
-0.0586044
-0.0014405
0.0114237
0.0486212
-0.0668532
0.00957582
-0.0455156
0.0177542
0.0734193
0.0273655
-0.0397074
-0.0610774
-0.0276081
0.0242805
0.0767469
0.066699
-0.117873
0.0806367
-0.0294623
-0.0480758
0.0643089
0.0504659
-0.0195123
0.0335599
-0.0210945
0.00704695
0.0426568
-0.020409
-0.0417601
-0.000460324
0.00336099
0.00363245
-0.0605329
-0.0351376
0.0091452
0.0865253
-0.0249064
0.0212528
-0.0568793
0.0527993
-0.0572018
-0.0205038
0.0508724
-0.0332107
0.0659055
-0.00588791
0.0969665
-0.0422362
-0.0547303
-0.0645698
0.0553942
0.106142
-0.0292873
-0.029676
0.0212126
-0.00288997
0.0154591
-0.0418564
0.0144677
-0.0470337
0.00430238
0.00881418
0.0146546
-0.0177239
0.0629988
0.022169
-0.0494998
0.0500501
-0.00618227
0.00563194
-0.075082
-0.0176599
0.0432421
-0.0184826
0.019348
-0.0413345
0.0167129
-0.0428805
0.004131
-0.0258344
0.0273053
-0.0336646
4.02721e-06
0.0377916
-0.0264666
0.00184822
0.0417125
-0.0405636
-0.00258052
0.00143157
-0.00150736
-0.000786128
0.044006
-0.0142223
-0.0063834
0.00793073
0.0126749
-0.0163645
0.00248848
-0.000346198
-0.0319442
0.0541182
0.0204828
0.0463193
-0.0203856
-0.0578779
0.0737319
-0.00538312
-0.0844686
0.0161199
-0.00355831
0.0496731
0.027617
0.0637739
0.00994678
-0.0146719
-0.0590488
0.0684651
-0.011033
0.00634178
0.0270907
-0.0415243
0.0430057
-0.0285722
-0.0428008
0.0432482
0.0266434
-0.0318976
0.0471443
-0.0471137
0.031867
0.0487587
-0.0325549
-0.0481014
-0.0267181
0.0399501
-0.0385602
0.0253282
0.0421453
-0.0287854
-0.0400779
-0.0160122
0.0350208
-0.0328816
0.013873
0.0366292
-0.0185321
-0.0341092
0.0320543
0.0819823
-0.11942
-0.0714954
0.0759417
-0.0132569
-0.0521045
0.0107819
0.0545795
-0.0491296
-0.0185078
0.0543806
0.0127981
-0.0136398
-0.048288
0.0101382
-0.0494446
-0.0531185
0.0083763
0.0528452
-0.00810301
0.0109857
-0.0533223
-0.000679461
-0.0191478
0.00194848
0.0178788
-0.0112702
0.0106324
-4.16431e-05
0.0011968
-0.0122039
-0.000263095
0.00252349
-0.0204745
-0.0183494
-0.00298872
0.00245883
0.0108212
-0.0272221
0.0183049
0.0401318
-0.0161242
-0.0423126
0.0236097
0.0546145
-0.0599193
0.00584503
0.0578965
-0.00873231
-0.0118597
0.0138733
-0.00303036
0.00493041
0.0271237
-0.0403052
-0.0283428
-0.0346813
0.0190042
-0.0311691
-0.0308597
0.0273475
-0.0438737
-0.0150616
0.0277662
0.0402696
-0.0521739
-0.0319694
-0.0308953
-0.0147054
-0.0284002
0.028044
-0.02897
-0.0141134
0.0283779
0.050571
-0.0501612
-0.0293798
-0.0300031
-0.0137995
-0.028611
0.0282972
-0.0282608
-0.0134166
0.0278779
0.0495858
-0.0488425
-0.0290041
-0.0291864
-0.0134794
-0.0265772
0.02664
-0.0243414
-0.0137516
0.0246135
0.0479788
-0.0470493
-0.0252709
-0.0274409
-0.0146738
-0.020431
0.0213532
-0.0156288
-0.0160805
0.0170355
0.0461668
-0.0454222
-0.0163734
-0.0213135
-0.0181651
-0.00942181
0.0115063
-0.00259944
-0.0206448
0.00507921
0.0449224
-0.0447776
-0.00274431
-0.00992155
-0.0231128
0.00449762
-0.0020297
0.0116673
-0.0260233
-0.0087567
0.0450935
-0.0452234
0.0117971
0.00481359
-0.0286773
0.0178534
-0.0151994
0.022967
-0.0309806
-0.0206637
0.0453344
-0.045755
0.0233877
0.0179643
-0.0409618
0.0264429
-0.0164617
0.028588
-0.0420575
-0.0274922
0.0463283
-0.0470849
0.0293446
0.0270162
-0.0446461
0.0323264
-0.0297379
0.0304003
-0.0459214
-0.0291251
0.0468336
-0.0467998
0.0303665
0.0320751
-0.0475476
0.0325476
-0.0309213
0.0320762
-0.0478492
-0.0317746
0.0463702
-0.0483
0.0340059
0.032118
-0.0315374
0.0319961
-0.0484445
-0.030942
0.026947
-0.0282465
0.0443052
0.0257674
0.0444277
-0.0324632
-0.0485362
0.0439164
-0.0418297
-0.0303331
0.0277715
0.0443478
-0.0282029
0.0264153
0.0456614
0.0466804
-0.0468181
0.0267811
0.0485783
0.0238695
0.048615
-0.0494408
-0.0301162
-0.046873
0.0453178
-0.0293662
-0.0300326
-0.0448526
0.0423294
-0.0272147
-0.0286598
-0.0363509
0.0437665
-0.0238773
-0.0215137
-0.043128
0.0426919
-0.0147633
-0.0200252
-0.042521
0.0421954
-0.00170417
-0.00858573
-0.0427568
0.0436244
0.0106388
0.00451783
-0.0446327
0.0457019
0.020284
0.0160272
-0.0467629
0.0477507
0.0256522
0.0235525
-0.0486147
0.0493395
0.0275723
0.0270139
-0.0499182
0.0503648
0.0275975
0.0277991
-0.0507278
0.0526219
0.0254534
0.0274032
0.0248081
-0.0244893
0.0249501
0.0481175
0.0463538
0.0417111
-0.0439986
-0.0260554
-0.0286908
0.0465013
-0.0501698
-0.0283009
-0.0283926
0.0515004
-0.0513863
-0.0294939
-0.0286725
0.0511244
-0.050697
-0.0294315
-0.0294483
0.0501285
-0.0494478
-0.0259515
-0.0280095
0.0487402
-0.0480827
-0.0170309
-0.0220211
0.0475598
-0.047161
-0.00314315
-0.0104445
0.0467623
-0.0468854
0.0119203
0.00441488
0.0472393
-0.0476755
0.0238239
0.0183181
0.0480966
-0.0483411
0.029589
0.0274374
0.0470595
-0.0483658
0.0316728
0.0307936
0.0484931
-0.0471636
0.0326764
0.0322453
0.0319768
-0.0271963
0.0268192
0.0460385
-0.0285881
0.0457396
-0.0301385
-0.0517656
0.0315837
-0.0313972
-0.0482879
0.0488073
-0.0490517
0.0251944
-0.0257449
0.0486276
0.0259247
-0.0255683
0.0479409
-0.047994
0.032464
0.0493573
-0.0503038
-0.0291698
-0.0471567
0.0444929
-0.0267024
-0.027832
-0.042738
0.0405603
-0.0250371
-0.0269049
-0.0434811
0.0421918
-0.022588
-0.0244345
-0.0412767
0.0407515
-0.0142381
-0.0191101
-0.0407149
0.0413126
-0.00230183
-0.00854916
-0.0417802
0.0425381
0.00988084
0.00405019
-0.0435172
0.0446312
0.01917
0.0150482
-0.0457887
0.0469041
0.0245368
0.022395
-0.0479182
0.0488027
0.0266878
0.0259999
-0.0495574
0.0501799
0.026975
0.0270444
-0.050699
0.0494428
0.0267096
0.0268841
-0.0488586
0.0499724
0.0256673
0.0253923
0.0247902
0.0476047
-0.0448595
-0.0281608
0.0444322
0.0451838
-0.0480652
-0.0274517
-0.0278786
0.0508782
-0.0503298
-0.0266038
-0.0258778
0.0517497
-0.0520497
-0.0280009
-0.0269727
0.0522441
-0.0523216
-0.0294163
-0.0284781
0.0522622
-0.0520532
-0.0296405
-0.0295076
0.0517114
-0.051268
-0.0263949
-0.0283513
0.0507865
-0.0503198
-0.0174976
-0.0225027
0.0499302
-0.0496217
-0.00345168
-0.010834
0.0495475
-0.0494783
0.0118512
0.00434069
0.0495162
-0.049651
0.0239586
0.018356
0.049831
-0.0503356
0.0300936
0.0276173
0.0502734
-0.0500267
0.0314261
0.0307313
0.0487555
-0.0460049
0.0299258
0.0309741
0.0458055
-0.0446053
0.0306668
0.0317775
0.0330547
-0.0337429
-0.0473059
0.0453967
-0.0463556
0.0340136
0.0332554
-0.0515885
-0.0288537
-0.0314091
-0.0485243
-0.0335017
-0.0485291
0.0251687
-0.0256701
0.0484423
0.0333874
-0.0339378
-0.0467554
0.0324162
-0.0453844
0.0237166
0.0500798
0.0441812
-0.0457254
-0.0266166
0.0500115
-0.0501087
0.0252916
0.0512981
0.024638
0.0270302
0.043633
-0.0264821
0.0272388
0.0442237
0.0307947
-0.0293291
-0.0530541
-0.0523799
0.0535977
-0.054385
-0.0285418
-0.0521223
0.0495829
-0.0266304
-0.0273783
-0.0476015
0.0460477
-0.0251486
-0.0258506
-0.0440343
0.0434725
-0.0244753
-0.0248914
-0.0426215
0.0414377
-0.0214042
-0.0235835
-0.040534
0.0399909
-0.013695
-0.0182064
-0.0398435
0.0400487
-0.00250706
-0.00840172
-0.0406767
0.0415563
0.00900123
0.00342221
-0.0426424
0.0438479
0.0179644
0.0139621
-0.0450964
0.0463102
0.023323
0.0211465
-0.0474415
0.0484554
0.0256739
0.0248686
-0.0493521
0.0501223
0.0262048
0.0261477
-0.0507827
0.051332
0.0261603
0.0262237
-0.0510066
0.0503373
0.0263366
0.0257177
0.0250188
0.0264871
-0.0280313
0.0475826
0.0484217
0.0449471
0.0478368
-0.0502671
-0.0250213
-0.0257673
0.0510202
-0.0516822
-0.0259418
-0.0251247
0.052263
-0.0527873
-0.0274766
-0.026392
0.0532336
-0.0535865
-0.0290635
-0.0280317
0.0538109
-0.0538925
-0.0295589
-0.0292833
0.05382
-0.0536071
-0.0266078
-0.0284238
0.0533001
-0.0529598
-0.0178378
-0.0228097
0.0526512
-0.0524097
-0.00369312
-0.0111427
0.0522131
-0.0520971
0.0117352
0.00414405
0.0519866
-0.0518524
0.0238245
0.0182455
0.0517087
-0.0516091
0.029994
0.0274737
0.0515286
-0.0509249
0.0308224
0.0306508
0.0499342
-0.0499176
0.0299092
0.0299834
0.0481448
-0.0476841
0.0302061
0.0300047
0.0460311
-0.0446611
0.0326436
0.0316024
0.0438825
-0.0318077
-0.043108
0.0310332
0.0316376
-0.0325292
-0.0494968
-0.0310029
0.0317749
-0.0538261
-0.0550414
-0.0303465
-0.0254977
0.025265
0.0444563
-0.0246458
0.0427811
-0.0340944
-0.0483725
-0.0325775
-0.0446146
-0.0331411
-0.0461918
0.0293632
-0.0303255
-0.0436523
0.0238399
0.0511748
0.0284005
-0.0531342
-0.0300855
0.0317703
-0.0567262
0.0571602
-0.0575887
-0.029657
-0.0552037
0.0540312
-0.0273693
-0.0283901
-0.0528029
0.0505395
-0.024367
-0.02615
-0.0485983
0.0468778
-0.0234282
-0.0239093
-0.0453197
0.0437183
-0.0228739
-0.0233333
-0.042214
0.0409321
-0.0201222
-0.0220793
-0.0399419
0.0393216
-0.0130747
-0.0172163
-0.0391192
0.0393489
-0.00273679
-0.00819927
-0.039968
0.0408947
0.00807454
0.00280312
-0.0420434
0.0433144
0.0166934
0.0128134
-0.0446319
0.0459192
0.0220357
0.019829
-0.0471377
0.0482514
0.0245603
0.0236501
-0.0492594
0.0501522
0.025312
0.0251397
-0.0509443
0.0516357
0.0254689
0.0254315
-0.0516721
0.0520288
0.0259798
0.0256813
-0.0514566
0.0514051
0.0253431
0.025591
-0.0518255
0.0528689
0.0227965
0.0242176
-0.0226839
0.0221929
0.0516659
0.0234688
-0.0246138
0.0495873
0.0508646
0.0245192
-0.0244727
0.0475361
0.0483271
0.0457394
-0.0430324
-0.0238136
0.0422002
0.0450038
-0.0470913
-0.0245291
-0.0245107
0.0494095
-0.0503905
-0.0240404
-0.023449
0.0512635
-0.0520653
-0.0251399
-0.0242517
0.052805
-0.0535114
-0.0267702
-0.0256523
0.0541645
-0.0547562
-0.0284718
-0.0273786
0.0552471
-0.0556209
-0.0291851
-0.0287924
0.0558489
-0.0559267
-0.02653
-0.0281958
0.0558662
-0.0557033
-0.0180008
-0.0228702
0.0554876
-0.0552539
-0.00392685
-0.0113583
0.0550179
-0.0547551
0.0114724
0.00390806
0.0544554
-0.0540863
0.0234553
0.0179457
0.0536698
-0.0532474
0.0295716
0.0270572
0.0528388
-0.0524475
0.0304311
0.0302422
0.0520645
-0.0513443
0.029189
0.0296004
0.0498793
-0.0484429
0.0287696
0.0285398
0.0464109
-0.0440385
0.0302711
0.0295705
0.0420866
-0.0411544
0.0301009
0.0296857
0.0271962
0.0228151
0.0522467
-0.0331944
-0.0503968
0.0328448
-0.0549006
-0.0329428
-0.0485708
0.0318586
-0.0590103
-0.030437
0.0328362
-0.0577037
-0.0313737
-0.0451436
0.0424719
-0.0442898
-0.0219957
0.0214999
0.0409416
-0.0199696
0.0216572
0.0420428
-0.0306189
-0.0418188
0.0238938
-0.0256653
-0.0383064
0.0537877
-0.0545515
0.0235603
0.0540925
0.0225103
0.0219627
-0.0534838
-0.0306255
0.0324805
-0.0608652
0.0608123
-0.0618815
-0.0295564
-0.0584822
0.0563948
-0.0275696
-0.0281069
-0.0545248
0.0525369
-0.0253814
-0.02652
-0.0509445
0.0496812
-0.0231038
-0.0245576
-0.048343
0.0468717
-0.0219569
-0.0225711
-0.0452655
0.0436111
-0.0212195
-0.0217271
-0.0420259
0.0406663
-0.0187626
-0.0204941
-0.0396265
0.0389798
-0.0124281
-0.0161764
-0.0387537
0.0389632
-0.00294627
-0.00797313
-0.0395683
0.0405014
0.00714141
0.00219801
-0.0416748
0.0429815
0.0153867
0.0116401
-0.0443445
0.0456856
0.0206946
0.018466
-0.0469699
0.0481627
0.0233674
0.0223659
-0.0492627
0.0502613
0.0243135
0.0240397
-0.0511705
0.0519978
0.0246416
0.0245223
-0.0527641
0.0534962
0.0252478
0.024915
-0.0540974
0.0544277
0.0250129
0.0249898
0.0240938
0.0221646
-0.0225147
0.052016
-0.0213963
0.0211139
0.054375
0.053015
0.0228754
-0.0226726
0.0493845
0.0512253
0.0228579
-0.0222366
0.0469149
0.0485124
0.0218672
-0.0215656
0.0441547
0.04537
0.0428728
0.0459118
-0.0483492
-0.0220918
-0.0228886
0.0495003
-0.0505701
-0.0229707
-0.0222979
0.0515491
-0.0524859
-0.0242031
-0.0232727
0.0533888
-0.0542886
-0.0258705
-0.0247494
0.0551582
-0.0559955
-0.0276346
-0.0265089
0.0567557
-0.0574179
-0.0285229
-0.0280321
0.0579298
-0.0582718
-0.0261881
-0.0276838
0.0584301
-0.0584291
-0.0180018
-0.0227119
0.0583034
-0.0580793
-0.00415093
-0.011484
0.0577831
-0.0573806
0.0110699
0.00361185
0.0568714
-0.0562555
0.0228394
0.0174365
0.0555735
-0.0548595
0.0288576
0.0263752
0.0541573
-0.053472
0.0297459
0.02954
0.0528082
-0.0521183
0.0284991
0.0289366
0.0513732
-0.050481
0.0278775
0.0277947
0.048987
-0.0469913
0.0282753
0.0280765
0.0452048
-0.0422098
0.0271059
0.0278993
0.0402057
-0.0375259
0.0226484
0.0251921
0.0194576
-0.0330101
-0.0503295
0.0338573
-0.0559217
-0.0183117
0.0185173
0.0418372
-0.0179592
0.0405891
-0.0324343
-0.0475102
0.0329171
-0.0581404
-0.0306633
-0.0450993
0.031463
-0.063888
-0.0294564
0.0322923
-0.0616946
-0.0268267
-0.0406574
-0.0207679
-0.0360705
0.0561318
-0.0528656
0.0178476
0.0105052
-0.0121305
-0.032484
-0.0310474
0.00867095
0.0171561
-0.018124
0.0553428
0.0573152
0.0159727
-0.0526366
-0.0311571
0.0319636
-0.0646945
0.0645413
-0.0664312
-0.0292672
-0.0628248
0.0607723
-0.0275039
-0.02774
-0.0589915
0.0570042
-0.0255823
-0.0263261
-0.0552779
0.0531134
-0.0232169
-0.0247937
-0.0511763
0.0498524
-0.0217799
-0.0226205
-0.0484814
0.047007
-0.0204825
-0.0212
-0.0453894
0.0437053
-0.0195354
-0.0201095
-0.0420713
0.0406571
-0.0173484
-0.0188601
-0.0395717
0.0388941
-0.0117505
-0.0150911
-0.0386485
0.038833
-0.00313081
-0.00772749
-0.0394163
0.0403333
0.00622443
0.00161472
-0.041503
0.0428199
0.0140697
0.0104704
-0.044207
0.0455858
0.0193158
0.0170789
-0.046921
0.0481785
0.0221099
0.0210306
-0.0493549
0.0504423
0.0232261
0.0228633
-0.0514512
0.0523952
0.0236977
0.0235134
-0.0532931
0.0541701
0.0243708
0.0240171
-0.0543303
0.0548622
0.0244809
0.0248295
-0.0546913
0.0547884
0.0234632
0.0242647
0.0244331
0.019064
-0.0192123
0.0521643
0.053955
0.01988
-0.0201866
0.0496911
0.0518931
0.0197171
-0.0191173
0.0463151
0.0480428
0.0189594
-0.0188649
0.0440601
0.0452121
0.0425252
-0.0417195
-0.0164544
0.0402147
0.0426257
-0.0442371
-0.0203844
-0.0190633
0.0472026
-0.0484734
-0.020821
-0.0199231
0.0496766
-0.0508192
-0.0218281
-0.0210946
0.0518881
-0.0529367
-0.0231545
-0.0222037
0.0539732
-0.0550318
-0.0248119
-0.0237129
0.0560881
-0.0571479
-0.0265747
-0.0254527
0.0581633
-0.0591105
-0.0275756
-0.0270168
0.0599138
-0.060531
-0.0255709
-0.0268805
0.0609124
-0.0610612
-0.017853
-0.0223305
0.0610003
-0.060765
-0.00438621
-0.0115449
0.0603804
-0.0598337
0.0105232
0.0032272
0.0591319
-0.0582776
0.0219851
0.0167348
0.0573355
-0.056351
0.0278731
0.0254331
0.0553843
-0.0544442
0.0288058
0.0285733
0.0535422
-0.0526303
0.0275872
0.0280346
0.0516683
-0.0505182
0.0267273
0.0268326
0.0487341
-0.0468372
0.0263784
0.0262924
0.0447049
-0.0421342
0.0245353
0.025767
0.0397315
-0.0362478
0.0191647
0.0227894
0.0340171
-0.0327518
0.0126077
0.0172269
0.00364347
-0.00517385
-0.029517
0.0314628
-0.0297045
0.00188509
0.00738201
-0.0324131
-0.0503508
0.0324499
-0.0554545
-0.0311783
-0.0469952
0.0333318
-0.0591799
-0.0285797
-0.0433462
0.0321821
-0.0619131
-0.0223597
-0.0390656
0.0297832
-0.0665223
-0.0296921
0.0309806
-0.0658918
-0.0147499
-0.0334511
-0.00746316
-0.0301947
0.00230777
-0.028418
-0.0035942
0.000855923
-0.0280651
0.0587143
-0.0598071
0.0189403
-0.00948614
0.00449126
-0.0234232
0.041293
-0.0414351
-0.0163124
0.0137084
-0.0145801
0.0562145
0.0121453
0.0588784
0.0143276
0.0402508
-0.0132853
0.0143052
0.0402371
0.0269377
-0.0218175
-0.0146063
0.0596461
0.015041
-0.0525998
-0.0286822
0.0299759
-0.067816
0.069094
-0.0698694
-0.0279068
-0.067057
0.0655779
-0.0277881
-0.0276551
-0.0629363
0.0608651
-0.0254326
-0.0250983
-0.0587362
0.0564113
-0.0232574
-0.0241973
-0.0542432
0.0528041
-0.0217778
-0.0226256
-0.0514041
0.0500425
-0.0204183
-0.0212205
-0.0486637
0.0472144
-0.0190333
-0.0198212
-0.0456343
0.0439702
-0.0178713
-0.0185294
-0.0423242
0.0408709
-0.0158952
-0.017214
-0.0397394
0.0390249
-0.0110359
-0.0139596
-0.0387507
0.0389092
-0.00328931
-0.00745334
-0.0394649
0.0403536
0.00533574
0.00105907
-0.041501
0.0428081
0.0127627
0.009323
-0.0442008
0.0456019
0.0179148
0.0156862
-0.0469745
0.0482826
0.0208017
0.019658
-0.0495204
0.0506786
0.0220678
0.0216256
-0.0517692
0.0528064
0.0226605
0.0224228
-0.0538165
0.0548205
0.0233668
0.0230069
-0.0558429
0.0562114
0.0241125
0.0238071
-0.0562898
0.0559961
0.0237569
0.0241862
0.0206222
0.0158687
-0.0167021
0.0529977
0.0552436
0.0164973
-0.0161655
0.0493592
0.0516883
0.0157238
-0.0151926
0.0457839
0.0476012
0.0145969
-0.0139656
0.0434289
0.0446164
0.0143079
-0.014712
0.0422413
0.0428675
0.0401823
0.0435491
-0.0461031
-0.0178304
-0.0169493
0.0473917
-0.0486894
-0.0195234
-0.0186344
0.0499255
-0.0511136
-0.0206401
-0.0198585
0.0522486
-0.0533903
-0.0220128
-0.0210686
0.0545424
-0.0557407
-0.0236135
-0.0225609
0.0569606
-0.0582167
-0.0253186
-0.0242328
0.0594586
-0.0606616
-0.0263726
-0.0257749
0.0617306
-0.0626043
-0.0246972
-0.0258116
0.0631973
-0.0634868
-0.0175634
-0.0217375
0.0634765
-0.0632045
-0.00465819
-0.0115552
0.0627189
-0.0620169
0.0098212
0.00274153
0.0611261
-0.0600571
0.020916
0.015844
0.0588833
-0.0576579
0.0266477
0.0242594
0.0564618
-0.055306
0.0276499
0.0273772
0.0542056
-0.0531056
0.0264872
0.0269342
0.05196
-0.0506855
0.0254528
0.0256871
0.0492681
-0.0474371
0.0245474
0.024875
0.045141
-0.0428213
0.0222156
0.0234709
0.0399888
-0.0386083
0.0177843
0.0199568
0.0354728
-0.0325063
0.00964119
0.0140914
0.0309209
-0.0294159
0.000380082
0.00579663
-0.00607246
-0.0320059
-0.0495232
0.0323835
-0.0545061
-0.0101093
0.00951352
0.0408329
-0.00998283
0.0401243
0.0297286
-0.0388571
-0.0126891
-0.0298146
-0.0457604
0.0316495
-0.0586474
-0.0247208
-0.0409851
0.0310769
-0.0620094
-0.0171063
-0.0367093
0.0287059
-0.0646218
-0.00827566
-0.0326386
0.0256516
-0.0697993
-0.0257217
0.0251264
-0.0672908
-0.000286068
-0.0290527
0.0059174
-0.0294913
0.00605274
-0.0440822
0.0120648
0.0597265
-0.0522221
-0.0214813
-0.0695436
0.0212256
0.0733563
-0.0735289
-0.0213087
-0.0712403
0.0689901
-0.0256567
-0.0236056
-0.0663712
0.0633134
-0.0247303
-0.0250362
-0.0619032
0.0594244
-0.0229538
-0.0236881
-0.0576696
0.0560446
-0.0216324
-0.0224424
-0.0545107
0.0530537
-0.0203207
-0.0210917
-0.0516384
0.0502675
-0.0190475
-0.0198052
-0.0489
0.0474951
-0.0176284
-0.0184537
-0.045983
0.044379
-0.0162673
-0.0170172
-0.0427572
0.0412858
-0.0144237
-0.0155922
-0.0401094
0.039345
-0.0102716
-0.0127832
-0.0390281
0.0391502
-0.00341143
-0.00713636
-0.0396705
0.0405226
0.00448362
0.000538779
-0.0416361
0.042919
0.0114797
0.0082095
-0.0443019
0.0457103
0.0165064
0.0143033
-0.0471059
0.0484504
0.0194571
0.0182624
-0.0497352
0.0509494
0.0208536
0.0203409
-0.0521058
0.0532187
0.0215476
0.0212663
-0.0543184
0.0554255
0.0222597
0.0219073
-0.0565665
0.0577384
0.0229406
0.022666
-0.0589406
0.0601083
0.0225892
0.0229841
-0.0602895
0.0604372
0.0187927
0.0204409
-0.0610896
0.0616975
0.0114569
0.0143886
-0.00911478
0.00831987
0.0605214
0.0100213
-0.0110166
0.0572098
0.0597849
0.0112562
-0.0119058
0.0536473
0.0554831
0.0116865
-0.0113787
0.0490514
0.051469
0.0110026
-0.0105805
0.0453618
0.047225
0.0101252
-0.00966221
0.0429659
0.0441612
0.00921068
-0.00879205
0.0418227
0.042416
0.0409038
-0.0404295
-0.00996693
0.0404136
0.0416743
-0.0438148
-0.0141718
-0.0120406
0.0451358
-0.0463758
-0.0165903
-0.0156284
0.0476676
-0.0489732
-0.0182177
-0.0173426
0.0502217
-0.0514372
-0.0194246
-0.01861
0.0526211
-0.0538331
-0.0208008
-0.0198847
0.0550726
-0.0563777
-0.0223084
-0.0213214
0.057727
-0.059144
-0.0239016
-0.0228835
0.0605782
-0.0620058
-0.024945
-0.0243406
0.063315
-0.0644261
-0.0235861
-0.0245023
0.0652163
-0.0656329
-0.0171468
-0.0209473
0.0656573
-0.0653344
-0.00498105
-0.0115309
0.0647187
-0.0638628
0.00896523
0.00212587
0.0627981
-0.0615367
0.0196546
0.0147793
0.0601654
-0.0587398
0.025222
0.0228881
0.0573534
-0.0560215
0.0263181
0.0259908
0.0547594
-0.0535061
0.0252339
0.0256721
0.0522161
-0.0508029
0.0240396
0.0243971
0.0492459
-0.0475071
0.0228086
0.023318
0.0456295
-0.0436094
0.0201954
0.0215934
0.0415343
-0.0389323
0.0151822
0.0178818
0.0364502
-0.0351043
0.00829533
0.0116093
0.0330974
-0.0310964
-0.00162091
0.00378969
-0.00744021
0.00786738
0.06215
-0.0305346
-0.0488032
0.0313189
-0.0541755
0.0152221
-0.0720943
-0.0166567
-0.0682816
0.0139601
-0.0259576
-0.0445236
0.0296617
-0.0572322
-0.0187978
-0.0392935
0.0276186
-0.0609222
-0.0106343
-0.0343506
0.0240175
-0.0635129
-0.00135427
-0.0315704
0.0197488
-0.065814
0.00678663
-0.0299219
0.0103567
-0.0337952
0.0149248
-0.0405399
-0.0132419
0.0109086
-0.040066
-0.0152903
0.0178485
-0.0430981
0.0623548
-0.0625433
0.0116453
0.0402741
-0.0408039
-0.00943713
0.00591823
0.0408299
-0.00647408
0.0622264
0.00799574
0.00579471
0.0405371
-0.0514378
-0.0116309
0.00902884
-0.0694922
0.0753221
-0.0734465
-0.0135065
-0.07501
0.0742365
-0.0205352
-0.0163446
-0.0719295
0.0693759
-0.0231031
-0.0212987
-0.0664149
0.0635271
-0.0218426
-0.0220751
-0.0614966
0.0596133
-0.0210704
-0.0216577
-0.0578608
0.0562444
-0.020016
-0.02069
-0.054719
0.0532723
-0.0188741
-0.0195663
-0.051866
0.0505058
-0.0176874
-0.0183989
-0.0491646
0.0478181
-0.0162818
-0.0171124
-0.0463971
0.0448896
-0.0147599
-0.0155962
-0.0433333
0.0418736
-0.012964
-0.0140359
-0.0406608
0.0398357
-0.00944647
-0.0115704
-0.0394556
0.0395223
-0.00347813
-0.00675625
-0.0399932
0.0407993
0.00367759
6.78249e-05
-0.0418702
0.0431192
0.0102307
0.00713851
-0.0444808
0.0458838
0.0151035
0.0129417
-0.0472893
0.0486575
0.018089
0.0168568
-0.0499765
0.0512346
0.0195955
0.0190218
-0.0524434
0.0536175
0.0203736
0.0200575
-0.0547858
0.0559722
0.0210733
0.020739
-0.0571984
0.0584657
0.0216733
0.0214398
-0.0597603
0.0610463
0.0213033
0.0216895
-0.0616629
0.0620434
0.0184122
0.0198243
0.0138888
-0.0652984
0.00604569
-0.00444269
0.00144216
-0.0664917
-0.0709411
-0.006948
0.00478893
-0.00505372
0.0607862
-0.00428963
0.00361223
0.0629038
0.0626493
0.00557321
-0.00590973
0.0575463
0.0603044
0.00662833
-0.00647678
0.0534957
0.0562017
0.00626551
-0.00601774
0.0488036
0.0512577
0.00574765
-0.0054719
0.045086
0.0469549
0.00519872
-0.00494432
0.0427115
0.043888
0.00471659
-0.00452147
0.0416276
0.0421882
0.00481411
-0.00527284
0.0412916
0.0411964
0.0406462
0.0423425
-0.0438237
-0.0126906
-0.010502
0.0455026
-0.0467382
-0.0153547
-0.0139496
0.0480206
-0.0493114
-0.0169269
-0.0160602
0.050551
-0.0517754
-0.0182002
-0.0173704
0.0529886
-0.0542479
-0.0195415
-0.0186715
0.0555477
-0.0569283
-0.0209278
-0.0200215
0.0583711
-0.0599075
-0.0223653
-0.0214407
0.061489
-0.0630959
-0.0233382
-0.0227591
0.0646078
-0.0659311
-0.0222629
-0.0229904
0.0669076
-0.0674493
-0.0166051
-0.0199708
0.0675054
-0.0671152
-0.00537131
-0.0114748
0.0663707
-0.0653458
0.00794031
0.0013814
0.0641092
-0.062686
0.0182314
0.0135428
0.0611507
-0.0595656
0.0236369
0.0213529
0.0580294
-0.0565563
0.024845
0.0244545
0.055167
-0.0537943
0.0238612
0.0242829
0.0523956
-0.0508837
0.0225277
0.0229984
0.0492402
-0.0474295
0.0209979
0.0216745
0.0455027
-0.0434727
0.0181654
0.0196665
0.0414267
-0.0394154
0.013171
0.0158358
0.0375918
-0.0354743
0.00617782
0.00978567
0.0340097
-0.0338845
-0.00174609
0.00232503
0.0353274
-0.0396151
-0.00840142
-0.00599726
0.0427489
-0.0523287
-0.00571045
-0.0101081
-0.0190676
-0.0308505
-0.00241063
-0.0142824
0.0287564
-0.0335416
-0.0383851
-0.00674771
-0.0275573
-0.0472035
0.0288144
-0.0533282
-0.00271225
0.00148288
0.0417665
-0.00267491
0.0407926
-0.0209176
-0.0424038
0.0259355
-0.055549
-0.0120613
-0.0378666
0.0218278
-0.0587325
-0.0022602
-0.0334447
0.0175382
-0.0613023
0.00593159
-0.0307153
0.012147
-0.0640009
0.0127309
-0.0322961
0.0160691
-0.0389558
0.018751
-0.0409686
0.0213768
-0.0357184
-0.0615185
-0.00233781
-0.00262181
-0.0673698
-0.000949585
-0.00664469
-0.0624688
0.00517944
-0.00944935
-0.0630998
0.0649173
-0.0634372
0.00213212
-0.0124221
0.0181153
-0.0392348
-0.00137897
0.000203735
0.064079
-0.0386766
-0.0121307
-0.000959326
0.0644976
-0.0501807
-0.0720652
0.0747616
-0.00364601
0.00157935
-0.0765203
0.0760605
-0.0130467
-0.00870667
-0.0758215
0.0738464
-0.0185601
-0.0161056
-0.0713995
0.0677454
-0.019449
-0.0188518
-0.0655377
0.0634278
-0.0197326
-0.0198675
-0.0614472
0.0596241
-0.0192472
-0.0196772
-0.0579234
0.0563487
-0.0184413
-0.0189894
-0.05486
0.0534491
-0.0174631
-0.0180776
-0.0520776
0.0507504
-0.0163601
-0.0170274
-0.049449
0.0481673
-0.0150001
-0.0158111
-0.0468479
0.0454628
-0.0133748
-0.0142768
-0.0440121
0.0426034
-0.0115553
-0.0125852
-0.0413755
0.0404868
-0.00855771
-0.0103425
-0.0400227
0.0400078
-0.00346325
-0.00629214
-0.0404073
0.0411521
0.00293282
-0.000331659
-0.0421705
0.0433775
0.00902374
0.00612006
-0.0447094
0.0460974
0.0137155
0.0116098
-0.0475022
0.0488826
0.0167086
0.015452
-0.0502244
0.0515144
0.0183055
0.01768
-0.0527624
0.053982
0.019154
0.0188095
-0.0552007
0.0564414
0.0198325
0.0195204
-0.0577247
0.0590538
0.0203443
0.0201565
-0.0604142
0.0617793
0.0199382
0.020329
-0.0625658
0.0640607
0.0169173
0.0190377
-0.0634765
0.0639958
0.011126
0.014473
0.0085544
-0.000262622
-0.000480533
0.0615294
0.0625904
0.000314403
-0.00101844
0.0582504
0.0601383
0.000841135
-0.000658586
0.0533132
0.0560244
0.000485369
-0.000328833
0.0486471
0.0510845
0.000203509
-0.000110556
0.0449931
0.0468296
5.25858e-05
-3.3785e-05
0.0426927
0.04383
5.38582e-05
-0.000109673
0.0416834
0.0422083
0.000651916
-0.00100296
0.0416426
0.0417387
0.0411261
-0.0402163
-0.00372244
0.0412638
0.0416611
-0.043136
-0.00796222
-0.00502926
0.0436715
-0.0448743
-0.0114878
-0.00996646
0.0459567
-0.047176
-0.0141355
-0.0128671
0.0484262
-0.0496814
-0.0156717
-0.01481
0.050896
-0.052114
-0.0169822
-0.0161558
0.0533389
-0.0546226
-0.0182578
-0.0174466
0.0559551
-0.0573783
-0.0195046
-0.018689
0.0588769
-0.0604885
-0.0207537
-0.0199421
0.0621686
-0.0639045
-0.0216023
-0.0210789
0.0655746
-0.0670786
-0.0207589
-0.0213203
0.0682301
-0.0689047
-0.0159305
-0.0188193
0.0690094
-0.0685663
-0.00581438
-0.0113701
0.0676812
-0.0664783
0.0067374
0.000496321
0.0650734
-0.0634957
0.0166537
0.0121379
0.0618306
-0.0601197
0.021926
0.0196878
0.0584663
-0.0568854
0.0232641
0.0228011
0.0553994
-0.0539424
0.0224042
0.0227969
0.0524736
-0.0509058
0.0209599
0.0215295
0.0492209
-0.0473823
0.0191593
0.0199896
0.0454413
-0.0434179
0.016142
0.0177255
0.0414147
-0.0395043
0.0112606
0.0138326
0.0378611
-0.0366402
0.00495691
0.00814246
0.0360674
-0.0367286
-0.00108491
0.00175227
0.0383499
-0.0409588
-0.0057926
-0.00437594
0.0452383
-0.0441415
-0.0068073
-0.00582858
0.0406705
-0.0395555
-0.00786271
-0.00588156
-0.00474357
0.0108527
-0.0447857
0.0415905
-0.0349887
-0.0113454
-0.0100957
-0.0228573
-0.0452638
0.0245578
-0.0519505
-0.0142326
-0.0402325
0.0202537
-0.0539749
-0.00417546
-0.0359513
0.0148406
-0.0560348
0.00566423
-0.0331773
0.00874971
-0.057905
0.0136705
-0.031655
0.00258724
-0.0605425
0.0176239
-0.0338509
0.0190501
-0.0392549
0.0207414
-0.0403332
0.020778
-0.0383811
0.0148075
-0.0431895
0.00263604
0.0269189
-0.0645436
0.0106033
-0.0527529
0.0657439
0.00974525
-0.0616568
-0.0138323
-0.0576778
-0.0104854
-0.0140208
-0.0578973
-0.015239
-0.0588939
-0.0057783
0.00590512
0.0639522
0.0651728
-0.0659477
0.00290701
0.0413048
-0.0419382
-0.00308902
0.000262899
0.0413434
-0.000301544
-0.000690835
0.0422176
0.0660394
-0.00182587
-0.00654246
0.0652618
-0.0484803
-0.0693439
0.0730249
0.00266078
0.0063468
-0.0757942
0.0772827
-0.00513449
-0.00118995
-0.0775492
0.0766833
-0.0121808
-0.00897326
-0.0745262
0.0714852
-0.015519
-0.0139485
-0.0693731
0.0672112
-0.0172871
-0.0167397
-0.0650973
0.0631102
-0.0177455
-0.0177536
-0.0612421
0.0595153
-0.0175204
-0.017809
-0.0578955
0.0563864
-0.0169323
-0.0173695
-0.0549539
0.0535952
-0.0161044
-0.0166451
-0.0522755
0.0509978
-0.0150824
-0.0157078
-0.0497475
0.0485324
-0.0137851
-0.0145607
-0.0473137
0.0460617
-0.0121229
-0.0130581
-0.0447482
0.0434344
-0.0102415
-0.0112716
-0.0422291
0.0412907
-0.00761933
-0.00913728
-0.0407309
0.0406081
-0.00334047
-0.00573229
-0.0409064
0.0415669
0.00227236
-0.000629961
-0.0425171
0.0436714
0.00786944
0.00516984
-0.0449651
0.0463295
0.0123511
0.010316
-0.0477241
0.0491061
0.0153266
0.0140574
-0.0504597
0.051769
0.0169962
0.0163265
-0.0530431
0.0542921
0.0179051
0.0175354
-0.0555429
0.0568148
0.0185606
0.0182695
-0.05813
0.0594899
0.0189843
0.0188414
-0.0608855
0.0622879
0.0185358
0.0189335
-0.0636464
0.0642788
0.0162849
0.0176792
-0.0644771
0.0648267
0.0107764
0.0142748
0.00743336
-0.00520526
0.0049115
0.0618231
0.0632903
-0.00453087
0.00480564
0.0579756
0.0605189
-0.00504703
0.00522641
0.0531338
0.055783
-0.00533507
0.00536819
0.048614
0.0509758
-0.00533108
0.00522529
0.0450989
0.0468667
-0.00505599
0.00483075
0.042918
0.0439993
-0.00455571
0.00424181
0.0419973
0.0424834
-0.00388815
0.00350545
0.0420253
0.0420923
-0.00217053
0.00206765
0.0418694
0.042461
0.0421694
0.042395
-0.0432883
-0.00706892
-0.00457245
0.0445133
-0.0454099