/*--------------------------------*- C++ -*----------------------------------*\
  =========                 |
  \\      /  F ield         | OpenFOAM: The Open Source CFD Toolbox
   \\    /   O peration     | Website:  https://openfoam.org
    \\  /    A nd           | Version:  10
     \\/     M anipulation  |
\*---------------------------------------------------------------------------*/
FoamFile
{
    format      ascii;
    class       volVectorField;
    location    "30.5";
    object      U;
}
// * * * * * * * * * * * * * * * * * * * * * * * * * * * * * * * * * * * * * //

dimensions      [0 1 -1 0 0 0 0];

internalField   nonuniform List<vector> 
14667
(
(1.03738 0.0667773 -1.47373e-19)
(0.887393 0.0445075 -6.4303e-20)
(0.538783 0.0266853 -1.01824e-21)
(0.657095 0.024627 2.69757e-22)
(0.642413 0.0258494 2.54746e-22)
(0.989811 -0.0901319 -2.57707e-20)
(1.03188 -0.0832952 5.65178e-20)
(0.426476 0.0371312 -9.35634e-22)
(0.511479 0.028588 0)
(0.630189 0.0282226 -6.46117e-24)
(1.03689 -0.067358 -2.46038e-20)
(1.02573 -0.039649 1.31974e-20)
(0.986154 -0.0230953 -3.34564e-20)
(0.885637 -0.0752726 9.89497e-20)
(0.472578 0.0242798 -1.17701e-21)
(1.01863 -0.0315862 0)
(1.01905 -0.0295471 0)
(0.585949 0.01217 -9.54129e-22)
(0.352607 0.0143326 0)
(1.03977 -0.0594429 0)
(1.05584 0.0853087 -1.14533e-19)
(0.885618 -0.00313935 7.74979e-20)
(0.997442 0.0159425 0)
(1.00132 0.0406474 6.59785e-21)
(-0.0125784 0.0365958 4.51693e-20)
(0.355533 -0.0271429 1.46704e-19)
(-0.0385975 -0.010097 4.8574e-20)
(-0.107341 -0.00716999 -1.83688e-19)
(-0.0741916 0.064755 3.37159e-21)
(0.818058 0.133082 1.5194e-20)
(0.871321 0.0967116 -1.5087e-21)
(0.876911 0.0708647 -4.38042e-20)
(-0.0489541 0.0897525 2.71731e-20)
(-0.186059 0.0955991 1.42137e-19)
(-0.294382 0.046574 1.65507e-19)
(0.0611545 0.0341475 -2.47873e-19)
(0.164397 0.0743873 -3.41514e-21)
(0.43315 -0.0526367 1.55289e-21)
(0.430055 -0.0320094 6.00751e-22)
(0.554406 -0.0212807 -2.29571e-22)
(0.543049 -0.0169403 0)
(0.443329 0.00683269 -1.41418e-20)
(0.538927 -0.145779 5.36025e-19)
(0.602391 -0.0200536 -1.73821e-19)
(0.427626 0.0241413 -1.2065e-19)
(0.353829 -0.191306 7.98735e-20)
(0.555182 -0.340038 -3.75028e-21)
(1.33321 -0.374731 -8.79656e-20)
(1.28872 -0.406838 3.64436e-20)
(1.21081 -0.489925 0)
(1.27176 -0.446399 0)
(0.737544 0.0805687 0)
(0.797777 0.0566964 0)
(0.849556 0.0464558 -7.86209e-20)
(1.32848 -0.264564 8.16494e-21)
(1.36183 -0.243638 6.87119e-21)
(1.52388 0.0780161 6.93952e-20)
(1.53929 0.0421768 4.3824e-20)
(0.715407 -0.246187 -6.59983e-20)
(0.986394 -0.295633 5.51225e-20)
(-0.0535294 -0.0138713 1.37241e-19)
(0.0160714 0.0457954 0)
(0.950638 -0.42883 -2.26435e-20)
(0.965672 -0.355144 -6.9595e-20)
(0.884192 -0.302533 -5.02249e-21)
(0.835334 -0.548219 -1.03872e-20)
(0.896047 -0.501607 6.39607e-20)
(0.50395 0.77609 3.58514e-20)
(0.84252 0.800231 7.53775e-21)
(0.908153 0.0683633 3.75072e-20)
(0.92544 0.0517951 -3.64027e-20)
(0.929968 0.0737155 -3.86425e-20)
(0.144237 0.0500428 0)
(0.138914 -0.187651 4.29898e-20)
(1.13189 -0.518642 2.5996e-20)
(1.10759 -0.453093 2.76833e-20)
(1.18476 -0.414712 -9.70489e-20)
(1.20448 -0.443717 6.92174e-20)
(0.913888 0.0346625 2.07283e-19)
(0.898359 0.00670166 1.56168e-21)
(0.635786 -0.0142009 -8.62092e-22)
(0.715173 -0.0142141 0)
(0.64548 -0.0171379 1.83923e-21)
(0.858127 0.0264798 1.01064e-23)
(0.859065 0.0273649 0)
(-0.177127 -0.129959 0)
(-0.274866 -0.132412 -1.00212e-19)
(1.07635 -0.41321 2.89462e-20)
(1.27107 -0.399495 -1.50952e-19)
(1.0038 -0.135916 -2.39204e-20)
(1.17994 -0.158882 3.04525e-20)
(1.22631 0.251278 1.41849e-21)
(1.30931 0.165882 -3.54502e-21)
(1.0072 0.536363 5.80899e-21)
(1.01165 0.539577 -3.018e-21)
(1.00636 -0.593741 5.54507e-21)
(1.00678 -0.590897 4.09867e-21)
(0.853247 -0.481928 8.74933e-22)
(0.875105 -0.518859 -3.04703e-21)
(0.747701 -0.282265 2.56625e-21)
(0.765954 -0.325933 -1.50648e-21)
(1.40409 -0.295168 5.54923e-21)
(1.39614 -0.244045 1.62404e-20)
(0.945353 0.158403 6.7518e-21)
(0.923972 0.137204 -2.27144e-20)
(0.948231 0.114654 3.01618e-21)
(0.970372 0.133082 2.83979e-21)
(0.984647 0.196912 1.87557e-20)
(0.964266 0.166625 4.80586e-22)
(0.370786 -0.0148017 3.48568e-22)
(0.226993 -0.00947164 -8.76945e-23)
(0.245461 -0.00472175 -5.70084e-22)
(0.39113 -0.00892517 0)
(0.481774 -0.0234054 6.245e-22)
(0.49586 -0.0160098 -2.53623e-22)
(1.2102 -0.1144 8.88344e-21)
(1.22958 -0.128435 -1.73286e-20)
(1.21931 -0.115369 0)
(0.333961 -0.0322854 -6.70473e-22)
(0.256809 -0.0299147 -2.75645e-22)
(0.381688 -0.0237545 -2.66903e-23)
(1.01275 0.540386 -2.54333e-21)
(1.01396 0.540622 1.27429e-20)
(1.01376 0.546427 -6.58019e-21)
(1.01156 0.556021 8.08437e-21)
(1.01379 0.560787 0)
(1.01536 0.548927 1.46284e-21)
(1.00544 0.565034 -2.32297e-20)
(0.997742 0.572941 1.18981e-20)
(1.00275 0.574698 0)
(1.00967 0.569372 0)
(0.987554 0.574388 0)
(0.974228 0.566041 -1.54283e-20)
(0.979948 0.557254 0)
(0.993139 0.572079 0)
(0.958136 0.542916 1.55008e-20)
(0.939856 0.499721 0)
(0.94585 0.470233 0)
(0.963878 0.52492 0)
(0.920716 0.432124 -2.00926e-20)
(0.902636 0.337736 1.99451e-20)
(0.911199 0.286466 0)
(0.927644 0.390439 0)
(0.888222 0.217517 0)
(0.877752 0.0782003 2.18416e-20)
(0.891653 0.0234982 5.54119e-24)
(0.898052 0.16218 0)
(0.866293 -0.0625476 -2.19852e-20)
(0.860945 -0.204795 0)
(0.899141 -0.248744 0)
(0.894526 -0.119888 0)
(0.866267 -0.338254 2.04301e-23)
(0.876206 -0.443753 0)
(0.903161 -0.459415 0)
(0.900497 -0.363599 0)
(0.891277 -0.518755 2.3551e-20)
(0.910261 -0.560007 -2.06926e-20)
(0.929639 -0.572765 -1.93133e-21)
(0.912512 -0.530971 0)
(0.932244 -0.576697 0)
(0.951667 -0.580006 0)
(0.966826 -0.595979 -2.60414e-21)
(0.94971 -0.592092 2.08123e-21)
(0.970882 -0.574411 3.12845e-21)
(0.986455 -0.571033 2.94633e-21)
(0.993168 -0.582569 -3.01636e-21)
(0.981311 -0.587351 3.61155e-21)
(1.0017 -0.583439 5.78223e-21)
(0.998674 -0.574239 -5.63813e-21)
(0.999789 0.536298 -2.97534e-22)
(1.00726 0.541845 2.6333e-21)
(1.0078 -0.583444 7.31003e-23)
(0.995601 0.527646 2.10054e-21)
(0.982594 0.527019 -4.1975e-21)
(0.990317 0.537453 8.77701e-23)
(1.01775 0.540634 0)
(1.01789 0.544906 -2.98109e-21)
(0.996771 -0.560919 -1.21871e-21)
(0.96114 -0.556346 -7.32672e-21)
(0.980698 -0.554943 2.81344e-21)
(0.915103 -0.554938 7.16741e-21)
(0.938587 -0.560122 -7.33645e-21)
(0.876907 -0.478136 0)
(0.892989 -0.532378 0)
(0.85233 -0.274667 -1.94394e-23)
(0.862433 -0.387194 0)
(0.842332 -0.0110142 9.97577e-24)
(0.847408 -0.145781 0)
(0.858372 0.231227 0)
(0.843888 0.113794 0)
(0.898969 0.421011 1.73126e-23)
(0.87795 0.335847 0)
(0.940916 0.525888 7.7153e-25)
(0.920356 0.484013 0)
(0.975205 0.560198 0)
(0.959423 0.549852 0)
(0.998139 0.556159 3.81265e-25)
(0.9882 0.561302 0)
(1.01188 0.542353 0)
(1.00652 0.549287 0)
(1.01615 0.53916 -6.72423e-21)
(1.01658 0.548945 -3.08823e-21)
(1.00192 0.544769 3.18579e-21)
(1.01437 0.536063 -1.05859e-21)
(1.00624 0.530113 0)
(1.02381 0.558829 -1.2817e-22)
(1.02036 0.545917 -1.2459e-21)
(1.02412 0.582244 0)
(1.0251 0.571649 -4.47908e-23)
(1.01375 0.582197 0)
(1.02054 0.58738 0)
(0.991464 0.516379 0)
(1.00389 0.560626 0)
(0.963906 0.343011 0)
(0.977561 0.444356 0)
(0.942517 0.0703944 0)
(0.9524 0.215474 0)
(0.93023 -0.230806 0)
(0.932892 -0.0823012 0)
(0.943862 -0.469851 0)
(0.936372 -0.362921 0)
(0.960456 -0.58716 -2.08063e-21)
(0.950795 -0.545365 0)
(0.982949 -0.605646 1.02297e-21)
(0.971924 -0.604383 2.45842e-22)
(1.00116 -0.5898 -3.01066e-21)
(0.992892 -0.596264 0)
(1.00549 -0.587977 -7.14188e-21)
(0.979602 0.534344 -1.89299e-21)
(0.967953 0.522218 3.91695e-22)
(1.0101 -0.572222 1.32693e-21)
(1.00938 -0.603976 -2.78368e-21)
(1.03294 0.549215 0)
(1.03489 0.548798 8.4817e-22)
(1.01437 0.547955 8.9376e-22)
(1.00472 -0.60471 0)
(0.996289 -0.543376 -1.04247e-21)
(0.954409 -0.535411 -1.20225e-21)
(0.977264 -0.53556 0)
(0.902096 -0.530729 -6.70654e-21)
(0.928692 -0.536171 6.26701e-21)
(0.850558 -0.462562 0)
(0.875917 -0.507708 2.86979e-21)
(0.813596 -0.296691 1.73222e-23)
(0.828519 -0.392642 0)
(0.814917 -0.0517867 -1.44142e-24)
(0.808389 -0.179855 0)
(0.838673 0.204518 -8.1909e-24)
(0.82633 0.08123 0)
(0.876969 0.393837 -1.0924e-24)
(0.855889 0.309628 0)
(0.922645 0.500114 8.29199e-25)
(0.899839 0.456891 0)
(0.962809 0.540425 0)
(0.944014 0.526818 0)
(0.992605 0.543606 3.946e-25)
(0.979271 0.545089 0)
(1.01304 0.536257 0)
(1.00438 0.539984 0)
(1.02551 0.538586 -1.65222e-23)
(1.02061 0.53525 3.50698e-22)
(1.02972 0.544291 4.67082e-21)
(0.995247 0.542899 -6.33486e-24)
(0.9597 0.507967 7.71463e-22)
(0.993964 0.517161 1.79798e-21)
(0.977674 0.514271 1.31003e-21)
(1.0177 0.529608 5.80947e-22)
(1.00711 0.521672 -6.05492e-22)
(1.03292 0.555515 2.52942e-24)
(1.02634 0.541428 3.90013e-23)
(1.04074 0.580717 0)
(1.03791 0.569368 0)
(1.03849 0.580547 0)
(1.04106 0.586015 0)
(1.02535 0.512145 0)
(1.03308 0.557932 0)
(1.00682 0.33634 0)
(1.01622 0.438596 0)
(0.990896 0.0621316 0)
(0.99804 0.208335 0)
(0.984825 -0.234052 0)
(0.987031 -0.0899818 0)
(0.985384 -0.470941 0)
(0.983846 -0.363444 0)
(0.992625 -0.593994 0)
(0.988293 -0.549092 0)
(1.00233 -0.611722 9.306e-22)
(0.997649 -0.612028 -9.11322e-22)
(1.01029 -0.592046 4.43324e-21)
(1.00711 -0.60112 0)
(1.00705 -0.591754 -2.77361e-21)
(1.00967 -0.587692 4.1113e-21)
(0.999685 -0.61504 -2.63112e-21)
(0.990672 -0.608082 2.15053e-21)
(1.0005 -0.600546 -6.51661e-22)
(1.01318 -0.556742 1.06311e-23)
(1.01482 -0.59829 -2.72334e-21)
(1.00957 -0.616688 -5.36098e-23)
(1.01058 0.536382 -9.77446e-22)
(0.990904 -0.621992 0)
(0.976835 -0.610696 -2.65755e-21)
(1.03595 0.537805 -1.88173e-21)
(0.953602 0.489315 0)
(1.0498 0.545076 -1.47524e-21)
(1.05645 0.545326 -8.59532e-23)
(0.932325 0.473963 0)
(0.940787 0.492838 -6.85065e-22)
(1.02916 -0.573346 4.63565e-21)
(1.02142 -0.588071 0)
(1.03689 -0.554174 -9.9786e-22)
(0.996839 -0.522899 1.2677e-21)
(1.01723 -0.537074 4.88157e-22)
(0.949237 -0.510066 -1.37823e-22)
(0.974855 -0.513255 1.03855e-21)
(0.890444 -0.502938 -4.40199e-23)
(0.92081 -0.509036 3.93562e-23)
(0.834528 -0.440486 0)
(0.8607 -0.483121 3.91221e-22)
(0.798941 -0.278461 -1.23739e-24)
(0.813457 -0.371524 0)
(0.793552 -0.044744 -8.54625e-24)
(0.792411 -0.166696 0)
(0.817459 0.188404 8.1909e-24)
(0.802197 0.075152 0)
(0.860398 0.369992 -1.05251e-24)
(0.837336 0.288245 0)
(0.909752 0.476959 7.97134e-25)
(0.885101 0.432668 0)
(0.954531 0.522164 0)
(0.933314 0.505871 0)
(0.989999 0.530781 4.65727e-24)
(0.973771 0.529557 0)
(1.01627 0.527946 0)
(1.00466 0.529361 0)
(1.03474 0.533093 -2.32171e-22)
(1.02655 0.528661 9.19416e-22)
(1.04245 0.539585 -6.23207e-23)
(0.967519 0.520883 -1.60341e-21)
(0.987126 0.530663 0)
(0.9523 0.507946 7.96827e-22)
(0.992187 0.501015 -1.15267e-21)
(0.973859 0.496447 0)
(1.02208 0.51777 0)
(1.00818 0.507575 0)
(1.04527 0.547162 -2.5287e-24)
(1.03426 0.5315 0)
(1.06307 0.577718 0)
(1.05498 0.563253 0)
(1.07219 0.586299 0)
(1.06895 0.58714 0)
(1.06985 0.526179 0)
(1.07248 0.568347 0)
(1.05837 0.351073 0)
(1.0648 0.454262 0)
(1.04605 0.0713646 -6.93452e-24)
(1.0518 0.220301 0)
(1.03794 -0.233392 -6.64927e-24)
(1.0413 -0.0837994 0)
(1.03211 -0.471808 0)
(1.0353 -0.365283 0)
(1.02645 -0.593669 0)
(1.02876 -0.548414 0)
(1.02388 -0.611342 0)
(1.02512 -0.61214 0)
(1.02032 -0.589139 6.41968e-22)
(1.02288 -0.600107 0)
(1.00867 -0.585503 0)
(1.01535 -0.583316 -2.56776e-21)
(0.983172 -0.596128 2.9281e-21)
(0.997204 -0.591825 -5.60663e-22)
(0.940304 -0.58302 -1.24156e-21)
(0.964116 -0.594374 0)
(1.02021 -0.613447 -2.78217e-21)
(1.04479 -0.591408 -2.92214e-21)
(1.05717 -0.572587 1.71728e-21)
(0.921871 0.464079 0)
(0.91131 0.446067 -6.86145e-22)
(1.00627 -0.62785 4.49114e-21)
(0.957657 -0.604522 1.3502e-21)
(0.977172 -0.621545 0)
(0.932731 -0.586958 0)
(1.06202 0.535246 2.70925e-21)
(0.910742 -0.559139 1.2486e-21)
(1.0321 -0.605146 -1.32607e-21)
(1.07668 -0.593263 -1.78404e-21)
(1.09252 -0.570136 -1.67086e-21)
(1.04497 -0.531385 5.18599e-22)
(1.06888 -0.549599 -9.31782e-22)
(0.998851 -0.499935 6.298e-22)
(1.0219 -0.514399 -1.3146e-21)
(0.947816 -0.482728 -7.83958e-24)
(0.9747 -0.488627 0)
(0.88516 -0.473898 4.6366e-24)
(0.917429 -0.479864 0)
(0.8254 -0.415339 0)
(0.85354 -0.455021 0)
(0.786524 -0.267125 -1.23693e-24)
(0.802618 -0.352196 0)
(0.77899 -0.0528775 0)
(0.778425 -0.165074 0)
(0.803625 0.170667 -5.70243e-24)
(0.787823 0.0620262 0)
(0.849063 0.346306 -6.11718e-24)
(0.824683 0.266803 0)
(0.901177 0.453151 5.21867e-24)
(0.875139 0.40827 0)
(0.949432 0.501902 0)
(0.926354 0.483564 0)
(0.989402 0.514711 3.72181e-24)
(0.970791 0.511373 0)
(1.0209 0.515659 0)
(1.00647 0.515123 -2.27854e-28)
(1.0454 0.523885 -7.50918e-23)
(1.03404 0.518111 0)
(1.06731 0.536986 7.80838e-22)
(1.05651 0.531107 -6.48825e-22)
(1.0889 0.527557 -3.64772e-21)
(1.07857 0.537398 -7.88787e-22)
(1.06847 0.511027 -2.06419e-21)
(1.0062 0.510346 8.57853e-22)
(1.03697 0.512623 1.08871e-21)
(0.955163 0.493344 0)
(0.978614 0.504074 0)
(0.936312 0.47947 8.01355e-22)
(0.905046 0.428032 1.00966e-21)
(0.950799 0.469928 2.75306e-22)
(0.927929 0.455134 5.87949e-22)
(0.993304 0.483466 0)
(0.972794 0.477667 2.53498e-22)
(1.0282 0.503499 0)
(1.01169 0.491609 0)
(1.05771 0.535068 0)
(1.04339 0.518401 0)
(1.0838 0.567499 0)
(1.0713 0.552015 0)
(1.10355 0.579235 0)
(1.09472 0.578305 0)
(1.11325 0.523815 0)
(1.10985 0.563446 0)
(1.11164 0.353487 0)
(1.11372 0.454483 0)
(1.10299 0.0751768 6.93452e-24)
(1.10776 0.223999 0)
(1.09249 -0.22943 6.64927e-24)
(1.09789 -0.080463 0)
(1.07927 -0.467945 0)
(1.08648 -0.361383 0)
(1.06225 -0.588878 0)
(1.07087 -0.544007 0)
(1.04674 -0.605684 0)
(1.05423 -0.606934 0)
(1.03157 -0.582244 -6.26652e-22)
(1.03961 -0.594299 0)
(1.01072 -0.574994 0)
(1.02227 -0.574931 0)
(0.976751 -0.579502 0)
(0.995041 -0.578361 4.42844e-22)
(0.925628 -0.557756 -1.7643e-21)
(0.953431 -0.573721 -8.68641e-22)
(0.89229 -0.527886 2.0237e-21)
(1.09963 0.504306 5.18478e-21)
(1.0228 -0.628325 7.75285e-22)
(1.05921 -0.61086 3.38831e-21)
(0.998653 -0.63335 -1.51991e-21)
(1.1168 -0.591194 1.1724e-21)
(1.09574 -0.613261 0)
(0.957989 -0.611158 1.77723e-21)
(0.902337 0.407383 -2.10622e-21)
(0.880124 0.368367 5.26581e-22)
(0.883796 0.386404 -1.63661e-21)
(0.901454 -0.553475 3.02739e-21)
(0.833859 -0.456144 -1.77184e-21)
(1.11492 0.517039 0)
(1.1301 0.493921 0)
(0.8102 -0.414802 2.10695e-21)
(1.04078 -0.622641 -3.20091e-23)
(1.1401 -0.610311 2.17345e-23)
(1.16296 -0.583305 -2.17065e-23)
(1.10605 -0.543174 7.32185e-23)
(1.13426 -0.563874 0)
(1.0521 -0.505891 5.19408e-22)
(1.07866 -0.523422 0)
(1.00119 -0.474843 0)
(1.02641 -0.48961 -9.57125e-23)
(0.947804 -0.453641 0)
(0.975577 -0.462295 0)
(0.883775 -0.440718 0)
(0.916951 -0.448134 0)
(0.820892 -0.388468 3.63144e-24)
(0.850728 -0.423371 0)
(0.779935 -0.254725 -9.79516e-24)
(0.796768 -0.332054 0)
(0.771393 -0.0567652 0)
(0.771336 -0.160819 0)
(0.795542 0.15229 1.17641e-24)
(0.779832 0.0500952 0)
(0.841983 0.320761 4.06783e-24)
(0.816959 0.243881 0)
(0.895938 0.427012 -3.57011e-24)
(0.868906 0.381749 0)
(0.946846 0.478731 0)
(0.922298 0.458632 0)
(0.990524 0.495435 -3.72181e-24)
(0.969865 0.490096 0)
(1.02669 0.500075 0)
(1.00968 0.497739 2.27854e-28)
(1.05707 0.511131 0)
(1.04261 0.504189 0)
(1.08558 0.525488 -6.1551e-22)
(1.07161 0.519081 0)
(1.10074 0.526069 1.40732e-21)
(1.07139 0.470295 0)
(1.14167 0.45529 1.05745e-21)
(1.10715 0.464436 -2.15305e-21)
(1.00087 0.467062 1.03963e-21)
(1.03561 0.470465 -1.06666e-21)
(0.942479 0.448889 0)
(0.969286 0.459816 0)
(0.90359 0.419876 0)
(0.920669 0.435105 0)
(0.891265 0.40293 2.01443e-21)
(0.950213 0.446672 0)
(0.926053 0.432341 0)
(0.995914 0.462914 0)
(0.973757 0.455075 0)
(1.03507 0.486274 1.66887e-24)
(1.01619 0.473064 0)
(1.07113 0.519124 0)
(1.05323 0.501938 0)
(1.10586 0.553868 0)
(1.08878 0.536952 0)
(1.13638 0.570271 0)
(1.12193 0.566703 0)
(1.15743 0.521116 0)
(1.14847 0.557576 0)
(1.1646 0.355469 0)
(1.1628 0.454537 0)
(1.15952 0.0791873 0)
(1.16328 0.227154 0)
(1.14642 -0.22325 0)
(1.1539 -0.0754644 0)
(1.12502 -0.458292 0)
(1.13677 -0.353388 0)
(1.09746 -0.578351 -3.74957e-24)
(1.11163 -0.533539 -5.41837e-28)
(1.06989 -0.59522 0)
(1.08341 -0.596453 0)
(1.04397 -0.570676 2.80611e-25)
(1.05696 -0.583705 0)
(1.01403 -0.559531 0)
(1.0302 -0.561885 0)
(0.971915 -0.557886 8.67717e-23)
(0.994565 -0.559831 -4.16112e-22)
(0.913698 -0.528928 1.6403e-21)
(0.944807 -0.54871 7.06527e-22)
(0.835545 -0.443635 -2.30484e-21)
(0.876983 -0.494168 -1.11695e-21)
(0.79136 -0.372566 -3.04411e-21)
(1.0218 -0.639224 -1.61197e-21)
(1.07184 -0.629214 -2.18159e-21)
(0.865118 0.32949 -1.07663e-21)
(0.86098 0.314247 -5.31877e-22)
(0.985992 -0.630026 0)
(1.11221 -0.630553 -1.76248e-21)
(0.932157 -0.584927 2.1427e-22)
(1.19178 -0.597648 1.04055e-22)
(1.16185 -0.621718 -1.03867e-22)
(0.863725 -0.497051 3.31867e-21)
(0.79076 -0.370823 1.74911e-21)
(1.17454 0.441294 2.93842e-21)
(0.723122 -0.218388 2.93464e-21)
(0.707056 -0.17736 9.73693e-23)
(1.15237 0.398914 1.26471e-21)
(1.1889 0.387127 0)
(1.0466 -0.63796 0)
(1.21834 -0.601069 -5.02446e-21)
(1.24837 -0.574353 8.76664e-22)
(1.18027 -0.551447 1.22283e-21)
(1.21442 -0.566921 -1.23534e-21)
(1.11642 -0.513378 2.60518e-22)
(1.14738 -0.53263 0)
(1.05885 -0.478754 7.75937e-23)
(1.0871 -0.494955 0)
(1.00504 -0.449102 0)
(1.03158 -0.463656 -7.80653e-23)
(0.950528 -0.424272 0)
(0.978565 -0.43543 0)
(0.886164 -0.407359 -2.21736e-24)
(0.919644 -0.416001 0)
(0.821288 -0.361068 -3.63144e-24)
(0.852294 -0.391565 0)
(0.778479 -0.241645 7.53318e-24)
(0.796073 -0.311181 0)
(0.768995 -0.060712 3.51388e-24)
(0.76939 -0.156186 0)
(0.792229 0.133511 4.52603e-24)
(0.77694 0.0380618 0)
(0.838552 0.294163 -9.66569e-25)
(0.813444 0.220188 0)
(0.893507 0.399453 8.15624e-25)
(0.865834 0.353963 0)
(0.946477 0.45388 0)
(0.920737 0.432149 0)
(0.993224 0.474324 0)
(0.970854 0.467073 0)
(1.03336 0.48228 0)
(1.01418 0.478434 0)
(1.06902 0.495159 0)
(1.05172 0.487584 0)
(1.10415 0.509866 6.19203e-22)
(1.08655 0.503561 0)
(1.14082 0.501464 1.47069e-21)
(1.12217 0.510776 -2.13958e-21)
(1.1577 0.479951 0)
(1.07398 0.410999 0)
(1.1138 0.406647 1.30583e-21)
(0.994891 0.404984 -6.01571e-22)
(1.03376 0.409769 6.07432e-22)
(0.93021 0.386419 0)
(0.959953 0.397324 0)
(0.887184 0.359326 0)
(0.906014 0.373414 0)
(0.873612 0.344261 1.19435e-21)
(0.860284 0.29995 4.46532e-22)
(0.902292 0.385862 -3.03941e-22)
(0.879639 0.349857 -4.07132e-22)
(0.951818 0.422544 0)
(0.92667 0.408851 0)
(1.00007 0.441165 0)
(0.976704 0.431858 0)
(1.04281 0.466649 -1.66887e-24)
(1.02195 0.452626 0)
(1.08421 0.499727 0)
(1.06342 0.48256 0)
(1.1264 0.534752 0)
(1.10528 0.517544 0)
(1.16711 0.553626 0)
(1.14724 0.548415 0)
(1.19979 0.510909 0)
(1.18504 0.543642 0)
(1.21586 0.35371 0)
(1.21026 0.448624 0)
(1.21341 0.0835383 -5.97779e-24)
(1.21669 0.228832 0)
(1.19692 -0.214026 -5.65722e-24)
(1.20672 -0.0687241 0)
(1.16778 -0.443813 0)
(1.18391 -0.341491 0)
(1.12995 -0.561608 3.74957e-24)
(1.14939 -0.517308 5.41837e-28)
(1.09177 -0.579386 0)
(1.11055 -0.580029 0)
(1.05626 -0.554742 3.22599e-25)
(1.07382 -0.568189 0)
(1.01782 -0.539692 0)
(1.03813 -0.544636 0)
(0.967796 -0.531662 0)
(0.994541 -0.536854 0)
(0.902781 -0.4952 2.39078e-22)
(0.937173 -0.518932 0)
(0.822158 -0.403323 0)
(0.864029 -0.45707 1.91926e-22)
(0.735877 -0.241646 3.62257e-22)
(0.778014 -0.331331 -6.13285e-22)
(0.672849 -0.0614993 -3.08247e-21)
(0.666265 -0.0310217 -4.43593e-22)
(0.697391 -0.140423 1.13158e-21)
(1.01609 -0.64251 8.3375e-22)
(1.08077 -0.643262 7.99157e-22)
(0.966637 -0.611239 0)
(1.1258 -0.638039 7.92032e-22)
(0.899443 -0.536125 -8.2393e-22)
(1.17932 -0.619668 -2.31265e-21)
(0.822318 -0.415741 -7.13198e-22)
(1.2778 -0.568483 0)
(1.23825 -0.586882 4.15206e-21)
(0.747367 -0.263297 0)
(0.684937 -0.0964569 -2.89877e-21)
(0.64747 0.0765407 -1.03145e-21)
(0.648258 0.057198 1.40725e-21)
(1.20414 0.425694 -3.80083e-21)
(0.645291 0.168082 2.93201e-21)
(0.862626 0.284617 0)
(1.1612 0.325292 -2.61197e-21)
(1.20144 0.315859 -1.26583e-21)
(0.847876 0.226293 -1.60083e-21)
(0.845435 0.236893 1.17491e-21)
(0.652081 0.182309 8.15027e-21)
(1.22221 0.372832 1.07374e-21)
(1.04791 -0.647239 0)
(1.3003 -0.537984 4.02752e-21)
(1.33873 -0.520645 -1.07395e-21)
(1.26931 -0.539673 1.49029e-21)
(1.30684 -0.539467 -1.50466e-21)
(1.19278 -0.515803 9.26819e-22)
(1.23023 -0.530736 -3.88966e-22)
(1.12475 -0.48171 1.85593e-22)
(1.15752 -0.498833 -4.23817e-22)
(1.06464 -0.450241 0)
(1.09401 -0.46523 0)
(1.00908 -0.422119 0)
(1.03642 -0.436169 0)
(0.954322 -0.394893 0)
(0.982136 -0.407957 0)
(0.891469 -0.373652 2.21736e-24)
(0.924219 -0.38399 0)
(0.826067 -0.332323 0)
(0.857702 -0.358735 0)
(0.781384 -0.227854 -9.81111e-25)
(0.799867 -0.289157 0)
(0.770728 -0.0642709 -1.03341e-24)
(0.771649 -0.151128 0)
(0.792841 0.115248 0)
(0.778131 0.0265335 0)
(0.838308 0.2677 -8.91335e-25)
(0.813522 0.196866 0)
(0.893523 0.371506 7.69571e-25)
(0.86554 0.326051 0)
(0.94801 0.428191 0)
(0.92133 0.405051 0)
(0.997222 0.45194 0)
(0.973447 0.443016 0)
(1.04063 0.462562 0)
(1.01957 0.457584 0)
(1.08083 0.476325 2.84212e-24)
(1.06077 0.468624 0)
(1.12151 0.491146 -2.75441e-22)
(1.10049 0.484879 0)
(1.16445 0.483104 -1.48164e-21)
(1.14181 0.49228 2.77779e-22)
(1.1839 0.462315 7.46218e-22)
(1.07388 0.333295 6.68301e-22)
(1.11813 0.330866 -1.95774e-21)
(0.98869 0.325097 0)
(1.03032 0.330955 0)
(0.918967 0.307465 0)
(0.951082 0.317311 0)
(0.873093 0.284038 0)
(0.893022 0.296119 0)
(0.850415 0.25895 7.23836e-22)
(0.859001 0.271079 -5.34031e-22)
(0.846188 0.247595 5.72224e-22)
(0.904838 0.362797 7.01336e-22)
(0.881995 0.330678 2.89216e-22)
(0.955913 0.396997 0)
(0.929757 0.383572 0)
(1.00541 0.418119 0)
(0.981269 0.407376 0)
(1.0508 0.445022 0)
(1.02834 0.430638 0)
(1.09683 0.477397 0)
(1.0735 0.460689 0)
(1.14556 0.511943 0)
(1.12088 0.494835 0)
(1.19531 0.532574 0)
(1.17061 0.526035 0)
(1.23858 0.49629 0)
(1.21851 0.525152 0)
(1.26309 0.349205 0)
(1.25386 0.438877 0)
(1.26266 0.0882842 6.15585e-25)
(1.26586 0.229277 0)
(1.24205 -0.201841 6.14134e-25)
(1.25449 -0.0601837 0)
(1.2055 -0.424835 0)
(1.2256 -0.325673 0)
(1.15843 -0.539632 0)
(1.18264 -0.496175 0)
(1.11107 -0.558675 0)
(1.1343 -0.558373 0)
(1.06753 -0.534963 2.80455e-24)
(1.08897 -0.548329 0)
(1.02193 -0.516237 0)
(1.04569 -0.52371 0)
(0.965012 -0.50178 6.91825e-23)
(0.995232 -0.510265 0)
(0.894334 -0.458564 -2.35085e-25)
(0.93141 -0.485698 -7.00154e-23)
(0.811433 -0.361797 -2.42655e-22)
(0.854079 -0.417808 2.94572e-22)
(0.72728 -0.203591 3.05628e-22)
(0.768261 -0.290793 1.89077e-22)
(0.663329 -0.00547354 6.06988e-22)
(0.690916 -0.107354 -8.01124e-22)
(0.647835 0.0936763 -1.63367e-21)
(1.00458 -0.631094 -2.6913e-22)
(1.0859 -0.645381 9.95879e-22)
(0.835214 0.163896 7.43598e-22)
(0.838212 0.158 -3.59466e-22)
(0.685448 0.191788 -3.6609e-22)
(0.940186 -0.569963 -2.20059e-21)
(1.13337 -0.62926 0)
(0.860711 -0.459229 -2.21579e-21)
(1.18882 -0.595799 2.31389e-21)
(0.778955 -0.308412 -6.42328e-23)
(1.24931 -0.544093 0)
(0.705379 -0.134877 1.85559e-21)
(1.35906 -0.475143 2.15412e-21)
(1.30768 -0.476267 -5.11353e-21)
(0.654892 0.0359674 0)
(0.634561 0.168132 1.85858e-21)
(0.662009 0.245415 -7.09722e-22)
(1.23764 0.304709 -1.07654e-21)
(1.04486 -0.642741 0)
(1.36283 -0.39451 0)
(1.41336 -0.400336 -4.85008e-22)
(1.36357 -0.491561 2.46027e-21)
(1.39567 -0.459993 -1.33423e-21)
(1.28109 -0.500591 6.11051e-22)
(1.32342 -0.502847 -6.1228e-22)
(1.20039 -0.478402 0)
(1.23909 -0.491488 -1.28441e-22)
(1.13059 -0.449222 -3.10106e-25)
(1.1641 -0.463934 0)
(1.06976 -0.421178 0)
(1.09935 -0.434838 0)
(1.01361 -0.394738 0)
(1.04126 -0.408071 0)
(0.959333 -0.36635 0)
(0.986589 -0.380615 0)
(0.899198 -0.34092 -8.62009e-25)
(0.930483 -0.353201 0)
(0.834746 -0.303083 1.07547e-24)
(0.866379 -0.326151 0)
(0.788216 -0.213226 -3.61512e-24)
(0.807762 -0.266273 0)
(0.775825 -0.0672185 -9.15415e-25)
(0.77752 -0.145412 0)
(0.796523 0.0977764 -1.55057e-24)
(0.782528 0.0157106 0)
(0.840666 0.241781 -2.20992e-24)
(0.816471 0.174293 0)
(0.895522 0.343445 7.12155e-25)
(0.867536 0.298384 0)
(0.950947 0.401742 0)
(0.923615 0.377502 0)
(1.00204 0.428289 0)
(0.977175 0.417932 0)
(1.04806 0.441084 0)
(1.02553 0.435203 0)
(1.09175 0.455196 -2.84212e-24)
(1.06978 0.447527 0)
(1.13684 0.469394 0)
(1.11374 0.463179 0)
(1.18403 0.462541 4.91905e-24)
(1.16029 0.470235 0)
(1.2299 0.407037 -7.37961e-22)
(1.2079 0.441662 0)
(1.26854 0.291214 1.03228e-21)
(1.25116 0.35624 1.69691e-21)
(1.24863 0.222134 2.27681e-21)
(1.16638 0.235774 -3.79571e-25)
(1.20971 0.230017 2.58488e-21)
(1.07284 0.238565 0)
(1.12021 0.238963 7.19303e-22)
(0.982473 0.229395 0)
(1.02627 0.235087 0)
(0.909461 0.214519 0)
(0.943076 0.222544 0)
(0.861908 0.19651 0)
(0.882445 0.205609 0)
(0.839017 0.178811 0)
(0.847606 0.187306 0)
(0.835094 0.170716 -1.01743e-21)
(0.843417 0.152552 8.98759e-22)
(0.8677 0.268822 -2.17711e-22)
(0.85261 0.215681 0)
(0.909753 0.338761 0)
(0.886516 0.309623 -2.73334e-22)
(0.961477 0.371387 0)
(0.935301 0.357899 0)
(1.01148 0.394419 0)
(0.987041 0.382633 0)
(1.05882 0.421759 9.04818e-25)
(1.03517 0.407507 0)
(1.10835 0.452601 0)
(1.08311 0.436786 0)
(1.16227 0.485374 0)
(1.13473 0.46909 0)
(1.21969 0.50636 0)
(1.19082 0.499125 0)
(1.27251 0.476563 0)
(1.24758 0.501236 0)
(1.30487 0.342214 0)
(1.29226 0.425038 0)
(1.30587 0.094035 5.36221e-24)
(1.3093 0.229081 0)
(1.28041 -0.186602 5.04309e-24)
(1.29574 -0.0494402 0)
(1.23698 -0.401738 0)
(1.2607 -0.306212 0)
(1.18202 -0.51327 0)
(1.21023 -0.470677 0)
(1.12706 -0.53391 0)
(1.15396 -0.532445 0)
(1.07702 -0.511643 -2.07464e-24)
(1.1016 -0.524685 0)
(1.02558 -0.48953 0)
(1.05217 -0.499378 0)
(0.963355 -0.468376 0)
(0.996154 -0.480388 0)
(0.888415 -0.419251 4.11725e-25)
(0.927333 -0.449059 0)
(0.805254 -0.32036 0)
(0.84731 -0.376555 0)
(0.726426 -0.167676 6.22891e-23)
(0.764193 -0.249963 -6.18468e-23)
(0.675146 0.0155358 -7.51878e-25)
(0.695529 -0.0781916 -6.17844e-23)
(0.669102 0.106942 -1.60485e-24)
(1.28101 0.213068 -3.3163e-21)
(0.985288 -0.59765 2.68931e-22)
(1.08362 -0.628668 0)
(1.41067 -0.309719 2.92809e-22)
(1.3447 -0.280019 -2.09991e-23)
(0.906183 -0.49924 2.29369e-21)
(1.13237 -0.595198 0)
(0.818419 -0.352927 1.74409e-21)
(1.18716 -0.540471 0)
(0.735594 -0.176805 -2.28245e-21)
(1.24343 -0.466364 0)
(0.670905 0.00591674 -1.8319e-21)
(1.29802 -0.376327 0)
(0.636336 0.162281 -2.91858e-21)
(0.642121 0.261563 1.246e-21)
(0.71348 0.238831 -7.83042e-23)
(0.698296 0.283759 -5.66125e-21)
(0.766105 0.270357 1.98932e-22)
(1.29349 0.275935 8.93223e-22)
(0.850312 0.147485 -1.56833e-21)
(0.846482 0.0831249 -2.17174e-22)
(1.30745 0.201718 -2.82403e-21)
(0.839293 0.0835112 0)
(1.03372 -0.617605 0)
(1.38559 -0.1898 -1.26248e-21)
(1.45 -0.226372 -3.37903e-21)
(1.44424 -0.389728 2.07678e-21)
(1.45756 -0.321748 3.6973e-21)
(1.37365 -0.45391 3.77337e-22)
(1.41372 -0.432902 -1.87502e-21)
(1.28507 -0.458564 4.71433e-22)
(1.32929 -0.460785 -1.0382e-21)
(1.20394 -0.440475 0)
(1.24295 -0.450857 0)
(1.13452 -0.416663 -2.94232e-25)
(1.1679 -0.428829 0)
(1.07402 -0.392041 0)
(1.10343 -0.404296 0)
(1.01823 -0.367369 0)
(1.04572 -0.379914 0)
(0.965009 -0.338849 0)
(0.991476 -0.35366 0)
(0.908525 -0.309695 8.62009e-25)
(0.937735 -0.323983 0)
(0.846661 -0.273651 -1.07547e-24)
(0.877502 -0.294354 0)
(0.798624 -0.197428 1.98673e-24)
(0.819304 -0.242466 0)
(0.783699 -0.0692535 -7.98432e-25)
(0.786594 -0.138622 0)
(0.802439 0.0811453 7.76738e-25)
(0.789375 0.00573362 0)
(0.844913 0.216465 6.86971e-25)
(0.82149 0.152507 0)
(0.898943 0.31534 6.4885e-25)
(0.871209 0.271031 0)
(0.954773 0.374606 0)
(0.927076 0.349565 0)
(1.00722 0.403534 0)
(0.981577 0.391933 0)
(1.05529 0.418163 0)
(1.0317 0.411555 0)
(1.10166 0.43219 0)
(1.07843 0.424819 0)
(1.15012 0.444963 0)
(1.12561 0.439467 0)
(1.20131 0.437827 -3.49016e-24)
(1.17602 0.445303 0)
(1.2513 0.38556 1.0451e-21)
(1.2276 0.41807 -3.13534e-22)
(1.27454 0.337352 -2.54479e-22)
(1.3056 -0.137961 6.92686e-22)
(1.33515 -0.0499684 0)
(1.41562 -0.10972 -1.11265e-22)
(1.25419 0.128434 -1.25564e-21)
(1.31551 0.11743 -5.60338e-23)
(1.28791 0.123926 -1.1121e-21)
(1.16848 0.133317 0)
(1.21337 0.131794 0)
(1.07049 0.130823 0)
(1.12001 0.133143 -7.11304e-22)
(0.976977 0.121962 0)
(1.02217 0.126749 0)
(0.902506 0.111276 0)
(0.936643 0.116757 0)
(0.854673 0.100486 0)
(0.875195 0.105698 0)
(0.832415 0.0916021 0)
(0.840598 0.0956521 0)
(0.829812 0.0853485 -2.30371e-22)
(0.829064 0.0879722 -7.18601e-23)
(0.83356 0.0839382 3.61267e-22)
(0.874453 0.2521 1.66133e-22)
(0.859334 0.204819 8.87703e-23)
(0.917078 0.314309 0)
(0.89367 0.288249 -4.15546e-23)
(0.968404 0.345736 0)
(0.942493 0.332193 0)
(1.01803 0.370355 0)
(0.993626 0.357813 0)
(1.06655 0.397357 -9.04818e-25)
(1.0421 0.383604 0)
(1.1185 0.426035 8.87881e-25)
(1.09192 0.411423 0)
(1.17616 0.456133 0)
(1.14653 0.441176 0)
(1.23946 0.476305 0)
(1.20735 0.46896 0)
(1.3003 0.452484 0)
(1.27117 0.473032 0)
(1.34005 0.332815 3.48108e-24)
(1.32417 0.407439 0)
(1.34233 0.10112 0)
(1.34614 0.228357 0)
(1.31161 -0.168032 0)
(1.3301 -0.0360383 0)
(1.26153 -0.375071 0)
(1.28849 -0.283232 0)
(1.20014 -0.48332 -1.87206e-24)
(1.23157 -0.441551 0)
(1.13911 -0.505955 0)
(1.16893 -0.50312 0)
(1.08393 -0.48544 3.79666e-25)
(1.11098 -0.498018 0)
(1.02812 -0.460318 6.2032e-27)
(1.05678 -0.472333 0)
(0.962428 -0.432875 0)
(0.996836 -0.448149 0)
(0.885524 -0.378939 3.69833e-25)
(0.925109 -0.410762 0)
(0.803906 -0.279724 0)
(0.844685 -0.335425 0)
(0.730706 -0.135918 -6.0562e-23)
(0.765014 -0.212186 0)
(0.691398 0.0262922 3.04972e-23)
(0.704841 -0.0542543 6.14992e-23)
(0.72039 0.154607 2.65601e-22)
(0.695522 0.098328 4.09616e-22)
(0.796209 0.221699 -3.24772e-21)
(0.757371 0.193875 -7.05849e-22)
(0.824884 0.239607 4.78507e-21)
(0.825011 0.274404 4.84575e-22)
(0.867496 0.251518 -5.90376e-22)
(0.957816 -0.534269 0)
(1.07298 -0.583826 0)
(0.840761 0.0121864 4.36705e-22)
(0.848483 0.0167372 -4.42606e-22)
(0.866653 -0.396736 0)
(1.11959 -0.527151 0)
(0.774811 -0.219189 5.51158e-22)
(1.17059 -0.447171 0)
(0.696915 -0.0275688 0)
(1.22195 -0.348656 -1.77775e-21)
(0.647147 0.146163 2.00161e-21)
(1.26644 -0.240689 0)
(0.635448 0.27177 -1.19349e-21)
(0.673211 0.328293 1.34799e-21)
(0.736418 0.320302 4.67025e-22)
(0.807002 0.296177 4.57299e-22)
(1.24496 0.0201213 0)
(1.36042 0.0184589 -5.1524e-23)
(1.26655 0.0962091 2.58065e-22)
(1.28562 0.143908 -2.90537e-21)
(1.33533 0.109678 1.6149e-21)