/*--------------------------------*- C++ -*----------------------------------*\
  =========                 |
  \\      /  F ield         | OpenFOAM: The Open Source CFD Toolbox
   \\    /   O peration     | Website:  https://openfoam.org
    \\  /    A nd           | Version:  10
     \\/     M anipulation  |
\*---------------------------------------------------------------------------*/
FoamFile
{
    format      ascii;
    class       volScalarField;
    location    "30";
    object      p;
}
// * * * * * * * * * * * * * * * * * * * * * * * * * * * * * * * * * * * * * //

dimensions      [0 2 -2 0 0 0 0];

internalField   nonuniform List<scalar> 
28942
(
-2.32195
-2.38641
-3.69541
0.697146
0.746795
-0.0555183
-0.0484775
-0.0559041
-0.632644
-0.561699
-6.90461
-6.7963
-6.65757
-6.69585
-0.0350869
-0.0226316
2.63983
2.73677
-0.975918
0.0408971
2.22671
2.21402
-7.14125
-7.15695
-7.3098
-6.62216
3.71711
4.03129
-1.91441
-1.86683
-0.1522
-0.14792
0.0238537
-0.0434142
1.33163
1.59989
3.18282
3.78971
-0.0757455
2.88505
1.7994
1.75937
0.236869
0.261083
0.294465
-0.0410743
-0.0368978
-0.0266814
-0.0278721
-0.0273152
-0.0148142
-0.0632072
-0.0780653
-0.64016
-0.555811
-4.82163
-4.0445
-6.80299
-6.68822
-6.79229
-6.85652
-6.83897
-6.82167
-2.91541
-3.46085
-2.2685
-1.83037
1.83267
1.63097
-2.27368
-2.30969
-2.40887
1.58902
1.5891
1.51944
-0.830855
-0.824333
-0.414936
-3.51529
-4.19566
-3.18882
-4.33799
-2.25588
-2.28025
0.443688
0.898427
1.30666
1.16552
0.814852
0.874332
1.07582
1.32993
-7.36242
-7.37188
-6.65777
-6.55536
-6.50268
1.14997
1.31285
-2.41082
0.790011
0.805494
0.863232
0.795724
-0.0420129
-0.060469
-0.0935208
1.4079
1.44746
1.44989
-6.76865
-6.75891
-2.5586
-2.49378
-2.43305
5.06449
4.70241
4.58567
4.88616
0.599339
1.36733
1.02445
-1.3378
-1.56736
5.2608
5.35172
5.08508
-1.40799
-1.0563
-0.0254709
-0.0188673
-0.0293875
1.49103
2.32882
1.4798
1.44491
1.64923
-0.294579
0.839879
2.61896
-6.86995
-6.81103
-1.03375
0.328252
0.339603
-3.41542
-3.45663
-3.09485
-6.7697
1.70336
1.60599
0.557902
-0.110253
-0.120556
-0.113662
-0.112131
2.13468
1.34536
-4.69998
-3.92474
-3.56482
-1.93613
-1.76964
-0.0803767
-6.21899
-6.07906
2.36031
2.46189
2.61368
2.52426
2.23293
0.696346
0.676447
-0.347089
-0.378748
1.28771
1.23088
1.33003
1.37829
1.3779
1.45049
1.51993
1.70974
1.60717
1.52552
1.63946
1.82568
2.14899
2.21049
-1.41998
-0.922117
-2.59136
-0.038611
-0.0208213
-4.19418
-3.84602
-0.0223122
-0.015805
-0.0164076
-0.0258463
-1.8984
-2.01714
-2.08169
-6.72542
-6.77543
-6.75472
-6.98901
-7.00219
-6.94099
-7.27868
-7.5372
-7.33806
5.01229
4.83951
5.05893
-0.00892659
0.0334333
-0.0180911
2.27415
2.17302
2.2448
-1.625
-1.58709
-1.69271
-1.57862
-1.59869
-1.64667
-1.57877
-1.72429
-1.6393
-1.54397
-1.53412
-1.55148
-1.59855
-1.67526
-1.82749
-1.72709
-1.79309
-1.7881
-1.93468
-1.95023
-1.83887
-1.94027
-2.09208
-2.25033
-1.96611
-2.10683
-2.11232
-2.1295
-2.41502
-2.25365
-2.33201
-2.36146
-2.57229
-2.39582
-2.59175
-2.63496
-2.70533
-2.51845
-2.88589
-2.9439
-2.80317
-2.61076
-3.20435
-3.27622
-2.85561
-2.66331
-3.53038
-3.61398
-2.85916
-2.67263
-3.84079
-3.93623
-2.81187
-2.63302
-4.1195
-4.2248
-2.72078
-2.55236
-4.33906
-4.45316
-2.59259
-2.43552
-4.48736
-4.60602
-2.43753
-2.29275
-4.55846
-4.67316
-2.25882
-2.13427
-4.26196
-4.31285
-4.51009
-4.62011
-3.91136
-4.12606
-3.35367
-3.65158
-2.75327
-3.04819
-2.2436
-2.48226
-1.87894
-2.04271
-1.67489
-1.76071
-1.59207
-1.61882
-1.62293
-1.59296
-1.77207
-1.68219
-2.02538
-1.88787
-2.35561
-2.18288
-2.69706
-2.53224
-2.93442
-2.83497
-2.98598
-2.98625
-2.83462
-2.93353
-2.52701
-2.69665
-2.34094
-2.07636
-1.96931
-2.25519
-1.9835
-2.12592
-2.43216
-2.35979
-2.45214
-2.46627
-2.31633
-2.40122
-2.07747
-2.20478
-1.82093
-1.94641
-1.61074
-1.70754
-1.48584
-1.5355
-1.46111
-1.46122
-1.54077
-1.4869
-1.74274
-1.62491
-2.09272
-1.89627
-2.60974
-2.33087
-3.25959
-2.92335
-3.93151
-3.60195
-4.46057
-4.22449
-4.67587
-4.61532
-4.62413
-4.29147
-2.1493
-1.83648
-4.468
-4.46862
-4.1677
-4.37098
-3.95106
-3.98258
-4.00148
-3.62695
-3.82271
-3.11656
-3.38483
-2.57719
-2.84199
-2.12117
-2.33427
-1.80274
-1.9436
-1.6259
-1.69872
-1.56731
-1.58316
-1.6204
-1.57964
-1.78997
-1.69062
-2.06301
-1.91517
-2.41053
-2.23025
-2.76064
-2.5922
-3.00283
-2.90158
-3.05231
-3.05461
-2.89065
-2.99577
-2.56942
-2.74492
-1.89944
-1.9633
-2.18359
-2.37907
-1.81298
-1.68501
-1.69079
-1.80802
-2.04834
-1.93737
-2.19823
-2.1373
-2.21225
-2.22955
-2.08782
-2.16467
-1.87661
-1.98854
-1.65308
-1.76211
-1.47485
-1.55576
-1.37476
-1.4137
-1.36602
-1.35872
-1.45747
-1.39865
-1.66547
-1.54593
-2.01939
-1.82227
-2.53476
-2.25753
-3.1773
-2.84513
-3.84126
-3.51586
-4.36203
-4.13077
-4.57181
-4.51373
-4.37416
-4.52337
-3.87481
-4.22163
-4.13116
-4.22737
-1.99516
-1.55846
-3.95341
-3.69078
-3.9056
-3.81587
-4.13959
-2.17977
-1.99004
-1.55955
-1.44427
-3.36315
-3.45506
-2.86405
-3.14734
-3.60239
-3.51324
-3.57617
-3.61919
-3.29058
-3.46223
-2.84168
-3.07603
-2.37105
-2.60244
-1.97364
-2.15884
-1.70102
-1.82067
-1.55375
-1.61291
-1.51848
-1.52279
-1.59142
-1.54108
-1.7756
-1.66993
-2.06051
-1.90671
-2.41754
-2.23311
-2.77384
-2.60253
-3.01806
-2.91661
-3.06338
-3.0684
-2.89411
-3.00336
-2.56724
-2.74443
-2.37528
-1.74063
-1.81903
-1.79436
-1.66002
-1.62637
-1.41179
-1.51822
-1.82248
-1.73102
-1.94383
-1.89665
-1.95138
-1.95525
-1.84504
-1.91182
-1.66309
-1.75915
-1.47306
-1.56535
-1.32576
-1.39187
-1.24893
-1.2776
-1.25452
-1.24098
-1.35328
-1.29139
-1.56272
-1.44276
-1.91073
-1.71783
-2.4113
-2.14267
-3.03075
-2.71081
-3.6713
-3.35701
-4.17408
-3.95146
-4.37207
-4.3186
-4.18867
-4.32782
-3.65934
-3.96081
-3.46017
-3.31623
-3.68623
-3.91531
-1.81223
-1.31306
-3.18289
-3.54696
-2.51892
-2.96176
-3.09737
-1.96599
-1.79101
-3.84507
-2.50132
-2.225
-2.97602
-2.76808
-3.18453
-3.10824
-3.1638
-3.2018
-2.92209
-3.06882
-2.54307
-2.74154
-2.14162
-2.33928
-1.80342
-1.96057
-1.57463
-1.67453
-1.45785
-1.503
-1.4448
-1.43865
-1.53389
-1.47631
-1.72718
-1.61771
-2.01891
-1.86172
-2.3805
-2.19439
-2.7362
-2.56579
-2.97637
-2.87712
-3.01803
-3.02469
-2.8462
-2.95657
-2.51969
-2.69605
-2.13575
-2.32984
-1.77225
-1.94693
-1.66502
-1.61462
-1.6538
-1.60369
-1.6475
-1.44995
-1.53576
-1.22952
-1.34728
-1.24965
-1.09917
-1.16904
-1.42762
-1.3377
-1.59042
-1.51501
-1.68751
-1.6496
-1.68968
-1.69873
-1.59682
-1.65412
-1.4433
-1.52396
-1.28624
-1.36205
-1.16842
-1.22062
-1.1124
-1.13189
-1.13002
-1.1114
-1.23255
-1.16982
-1.43799
-1.32094
-1.77193
-1.58752
-2.24614
-1.99227
-2.82836
-2.52804
-3.42906
-3.13421
-3.90351
-3.6928
-4.09284
-4.0411
-3.91605
-4.04683
-3.4373
-3.7103
-2.78446
-3.11913
-2.6218
-2.45867
-3.39928
-3.57119
-2.8821
-3.18401
-1.70429
-1.55151
-1.16284
-1.04425
-2.24374
-2.74956
-1.76314
-1.75309
-2.31272
-2.16058
-1.65094
-3.52257
-2.15568
-1.92597
-2.5633
-2.37758
-2.75564
-2.68797
-2.74411
-2.77364
-2.54511
-2.66547
-2.23037
-2.39583
-1.89475
-2.05988
-1.61422
-1.74411
-1.42808
-1.50864
-1.34084
-1.37256
-1.34766
-1.33258
-1.44887
-1.38621
-1.64813
-1.53617
-1.94264
-1.78448
-2.30131
-2.11761
-2.64843
-2.48261
-2.88114
-2.78524
-2.91965
-2.9273
-2.749
-2.85818
-2.42965
-2.60193
-2.05597
-2.2438
-1.87356
-1.53711
-1.4797
-1.52082
-1.49338
-1.52814
-1.36305
-1.43786
-1.27045
-1.08037
-0.961629
-1.01594
-1.22507
-1.15135
-1.35662
-1.29502
-1.43381
-1.40414
-1.43176
-1.4425
-1.35185
-1.40025
-1.2256
-1.29152
-1.09924
-1.15984
-1.00775
-1.04769
-0.969713
-0.981307
-0.996535
-0.974387
-1.09965
-1.03773
-1.2964
-1.18493
-1.60955
-1.43726
-2.04808
-1.81396
-2.58179
-2.30687
-3.13065
-2.86139
-3.56435
-3.37141
-3.74397
-3.69215
-3.57339
-3.69744
-3.14066
-3.38314
-2.56364
-2.86279
-1.98302
-2.26376
-1.90024
-1.7378
-3.09477
-3.21725
-1.41748
-0.915771
-2.53189
-1.82791
-2.00619
-2.83701
-2.43585
-1.56569
-1.47102
-1.65672
-2.04523
-1.68759
-1.53262
-3.19064
-1.55461
-1.35743
-1.46374
-1.83654
-1.67112
-2.16721
-2.01462
-2.33396
-2.2734
-2.33026
-2.35266
-2.17067
-2.26754
-1.91382
-2.04924
-1.63997
-1.77438
-1.41398
-1.51813
-1.26829
-1.33045
-1.20832
-1.2278
-1.23216
-1.20971
-1.3424
-1.27614
-1.5446
-1.43182
-1.83573
-1.68018
-2.18351
-2.0061
-2.51639
-2.35767
-2.73781
-2.64684
-2.77213
-2.78075
-2.60753
-2.71241
-2.30161
-2.46668
-1.94573
-2.1243
-1.61155
-1.77308
-1.33742
-1.46567
-1.37142
-1.23015
-1.30744
-1.43761
-1.41564
-1.41033
-1.43525
-1.29875
-1.36458
-1.11456
-1.21393
-0.885205
-1.0043
-0.817808
-0.761913
-0.784129
-0.911541
-0.861902
-1.02513
-0.967719
-1.12911
-1.08054
-1.18891
-1.16632
-1.18373
-1.19462
-1.11697
-1.15684
-1.01579
-1.06826
-0.917277
-0.964133
-0.848715
-0.878135
-0.825525
-0.830728
-0.85884
-0.834509
-0.959594
-0.900007
-1.14378
-1.04002
-1.43109
-1.27362
-1.82734
-1.61648
-2.30414
-2.05902
-2.79245
-2.55296
-3.17737
-3.00634
-3.34382
-3.29142
-3.18431
-3.2973
-2.79671
-3.01218
-2.29521
-2.55399
-1.78429
-2.03223
-1.37497
-1.56267
-1.3691
-1.21934
-2.74658
-1.27134
-2.23352
-1.24193
-1.13948
-0.868212
-0.752854
-2.86886
-2.51691
-1.82541
-2.15839
-1.81923
-1.5117
-1.23761
-1.09578
-2.84724
-1.1615
-1.20127
-1.02039
-1.07863
-1.3368
-1.25508
-1.54101
-1.42441
-1.79431
-1.67472
-1.93121
-1.88015
-1.93322
-1.94896
-1.8088
-1.88488
-1.60479
-1.7125
-1.38811
-1.49415
-1.21198
-1.29269
-1.10293
-1.14845
-1.06692
-1.0758
-1.10468
-1.0764
-1.22087
-1.15254
-1.42173
-1.31059
-1.70294
-1.55342
-2.03364
-1.86546
-2.34701
-2.19795
-2.55346
-2.46884
-2.58389
-2.59284
-2.42889
-2.52743
-2.14234
-2.29675
-1.80998
-1.97687
-1.49804
-1.64878
-1.36192
-1.29001
-1.14486
-1.22479
-1.36465
-1.338
-1.35121
-1.36884
-1.25369
-1.31252
-1.08408
-1.1763
-0.980432
-0.676735
-0.639123
-0.652799
-0.747615
-0.709559
-0.834388
-0.790155
-0.913767
-0.8768
-0.958336
-0.941836
-0.951515
-0.961509
-0.897339
-0.929271
-0.818654
-0.859157
-0.744263
-0.779362
-0.694916
-0.71556
-0.683591
-0.683837
-0.720807
-0.695542
-0.816828
-0.76075
-0.985853
-0.891158
-1.24416
-1.10316
-1.59449
-1.40877
-2.01017
-1.79708
-2.43264
-2.22564
-2.76365
-2.61713
-2.88788
-2.85763
-2.7672
-2.86018
-2.43075
-2.61899
-1.99623
-2.2185
-1.56298
-1.77374
-1.20768
-1.37387
-0.951527
-1.06683
-1.51147
-1.36792
-0.997421
-0.860617
-2.41748
-1.05633
-0.63499
-0.990494
-2.54343
-1.1464
-2.01163
-2.22972
-1.68137
-1.92445
-1.63834
-1.37412
-1.13493
-0.920895
-0.785594
-2.51689
-0.842394
-0.974599
-0.816853
-0.820049
-0.95948
-0.891166
-1.1093
-1.03583
-1.2676
-1.18381
-1.45285
-1.36331
-1.56052
-1.51982
-1.56472
-1.57551
-1.47046
-1.52849
-1.31379
-1.39655
-1.14814
-1.22899
-1.01568
-1.07593
-0.938135
-0.969454
-0.921935
-0.922227
-0.97011
-0.937684
-1.08877
-1.02018
-1.28376
-1.17666
-1.55017
-1.40913
-1.85905
-1.70244
-2.14832
-2.01106
-2.3375
-2.26011
-2.36478
-2.37337
-2.22173
-2.31245
-1.95937
-2.1006
-1.65524
-1.80804
-1.36985
-1.50768
-1.13293
-1.24398
-0.959407
-1.03818
-1.0838
-0.897458
-0.993369
-1.23406
-1.16531
-1.31623
-1.28542
-1.31273
-1.32526
-1.22635
-1.27931
-1.07066
-1.15592
-0.867506
-0.973332
-0.640926
-0.755452
-0.517373
-0.52644
-0.518018
-0.542281
-0.525764
-0.591768
-0.564222
-0.656164
-0.623435
-0.714662
-0.687534
-0.746494
-0.73501
-0.739108
-0.74783
-0.696593
-0.7213
-0.637421
-0.667648
-0.583182
-0.608552
-0.549345
-0.562989
-0.547019
-0.543613
-0.586046
-0.560826
-0.675575
-0.623876
-0.827782
-0.742959
-1.05569
-0.93181
-1.35914
-1.19897
-1.71313
-1.53233
-2.06903
-1.89494
-2.34624
-2.22389
-2.43557
-2.42164
-2.34488
-2.41952
-2.06137
-2.22144
-1.68815
-1.87869
-1.32706
-1.50178
-1.02907
-1.16891
-0.806734
-0.908637
-0.653341
-0.72282
-1.41917
-1.30124
-0.72643
-0.596305
-2.15778
-2.25493
-0.822127
-0.968094
-1.11643
-1.84063
-1.98682
-0.856387
-0.796768
-0.656788
-0.544549
-1.55243
-1.73163
-1.49203
-1.26584
-1.05553
-0.860777
-0.836174
-0.695625
-0.718176
-0.682486
-0.551579
-0.860902
-2.23603
-0.675725
-0.681094
-0.689948
-0.678572
-0.769609
-0.719318
-0.890203
-0.829657
-1.01492
-0.951038
-1.148
-1.0832
-1.22953
-1.19839
-1.23361
-1.24118
-1.16435
-1.20714
-1.04823
-1.1096
-0.925854
-0.985446
-0.829853
-0.873115
-0.777972
-0.797834
-0.777171
-0.770925
-0.832346
-0.797396
-0.950152
-0.883001
-1.13571
-1.03444
-1.38392
-1.25306
-1.66737
-1.52408
-1.92988
-1.80563
-2.10019
-2.03075
-2.12499
-2.13263
-1.99588
-2.07767
-1.76068
-1.88719
-1.48821
-1.62514
-1.23131
-1.35563
-1.01634
-1.11782
-0.929344
-1.04486
-0.852052
-0.951507
-1.20066
-1.12909
-1.28857
-1.25472
-1.29293
-1.30122
-1.21692
-1.26439
-1.07348
-1.15249
-0.879979
-0.981529
-0.770424
-0.401095
-0.416251
-0.404844
-0.414649
-0.405362
-0.447893
-0.429149
-0.493022
-0.469956
-0.534381
-0.515284
-0.556029
-0.548498
-0.548883
-0.556137
-0.51674
-0.535179
-0.473865
-0.495591
-0.43585
-0.453447
-0.414126
-0.422362
-0.418288
-0.412383
-0.457333
-0.432981
-0.539159
-0.492367
-0.673973
-0.599222
-0.871844
-0.764753
-1.13007
-0.994463
-1.42488
-1.27507
-1.71669
-1.57431
-1.94318
-1.84313
-2.02152
-2.00547
-1.93828
-2.00144
-1.70514
-1.83711
-1.3923
-1.55282
-1.09105
-1.2358
-0.845591
-0.960788
-0.658129
-0.744977
-0.520289
-0.5834
-0.424822
-0.469191
-0.97326
-0.515816
-0.648242
-0.488633
-0.3584
-0.388031
-1.3492
-1.24777
-1.95789
-2.01505
-0.75193
-0.435768
-1.10203
-1.69475
-1.79119
-1.45456
-1.57838
-1.3774
-1.18399
-0.996131
-0.816842
-0.754793
-0.619061
-0.66999
-0.235874
-0.212635
-0.338279
-0.810497
-0.898222
-0.993895
-0.627179
-0.470755
-2.01166
-0.559043
-0.582859
-0.536684
-0.544184
-0.548703
-0.538339
-0.606632
-0.571533
-0.695078
-0.649505
-0.788044
-0.741033
-0.881865
-0.836268
-0.941112
-0.918238
-0.944311
-0.949708
-0.8949
-0.925441
-0.811712
-0.855712
-0.724258
-0.76674
-0.657327
-0.687091
-0.625523
-0.636487
-0.636257
-0.62523
-0.695463
-0.659418
-0.809628
-0.745292
-0.983175
-0.888996
-1.21065
-1.09121
-1.46654
-1.3376
-1.70103
-1.59034
-1.85232
-1.79067
-1.87394
-1.88085
-1.76057
-1.83234
-1.55443
-1.66528
-1.31534
-1.43565
-1.0881
-1.19837
-0.896507
-0.986992
-0.750298
-0.817197
-0.65097
-0.694146
-0.825413
-0.620738
-0.722014
-1.02534
-0.92761
-1.18685
-1.11324
-1.27926
-1.24282
-1.2916
-1.29546
-1.22576
-1.26808
-1.09163
-1.16618
-0.904454
-1.00367
-0.684531
-0.79664
-0.462863
-0.573097
-0.31235
-0.358408
-0.332084
-0.293521
-0.299333
-0.296764
-0.292641
-0.316788
-0.305027
-0.34646
-0.331115
-0.374178
-0.361403
-0.388018
-0.383438
-0.381658
-0.387386
-0.358352
-0.371554
-0.328587
-0.343542
-0.303152
-0.314776
-0.290462
-0.294716
-0.299016
-0.291546
-0.336776
-0.313858
-0.410253
-0.368608
-0.527861
-0.462965
-0.697121
-0.605908
-0.91366
-0.800536
-1.15489
-1.0331
-1.38825
-1.27492
-1.56763
-1.48838
-1.63289
-1.61779
-1.56077
-1.61415
-1.37209
-1.47819
-1.11902
-1.24951
-0.868996
-0.98958
-0.665973
-0.761011
-0.509789
-0.58277
-0.389421
-0.445453
-0.299185
-0.341085
-0.264649
-1.31194
-1.21824
-0.323003
-0.194546
-1.79879
-1.82788
-1.10246
-1.5772
-1.64026
-0.551822
-0.521402
-0.500399
-0.391741
-1.39576
-1.46239
-1.29206
-1.1239
-0.956217
-0.79014
-0.735095
-0.590412
-0.66002
-0.81435
-0.882853
-0.951407
-1.02886
-0.619847
-0.466783
-0.183839
-0.318511
-1.83897
-0.487288
-0.531068
-0.437499
-0.458008
-0.415766
-0.424004
-0.418023
-0.413652
-0.452301
-0.430565
-0.516087
-0.481976
-0.585905
-0.551103
-0.652071
-0.620203
-0.694037
-0.6777
-0.696763
-0.700375
-0.662625
-0.683743
-0.604935
-0.635468
-0.544537
-0.573772
-0.500051
-0.519403
-0.48362
-0.487806
-0.502653
-0.488335
-0.563258
-0.527382
-0.671531
-0.611099
-0.831168
-0.744995
-1.03639
-0.929034
-1.26393
-1.14966
-1.47029
-1.37311
-1.60267
-1.54869
-1.62166
-1.62752
-1.52476
-1.58612
-1.34819
-1.44318
-1.14241
-1.24617
-0.944644
-1.04097
-0.775537
-0.855714
-0.644059
-0.704994
-0.592876
-0.815243
-0.60211
-0.708353
-1.02312
-0.921238
-1.18961
-1.11391
-1.28791
-1.24801
-1.30971
-1.30856
-1.25346
-1.2912
-1.12565
-1.19754
-0.943054
-1.04017
-0.724584
-0.836247
-0.61191
-0.215833
-0.260264
-0.234822
-0.19439
-0.20279
-0.189771
-0.190088
-0.199242
-0.193015
-0.216939
-0.207565
-0.234167
-0.226209
-0.242279
-0.239781
-0.236996
-0.241297
-0.220936
-0.229904
-0.201329
-0.211095
-0.185263
-0.192479
-0.179067
-0.180493
-0.190349
-0.182049
-0.225845
-0.204766
-0.290796
-0.254276
-0.392038
-0.33643
-0.535015
-0.458294
-0.714256
-0.621131
-0.9087
-0.811255
-1.09165
-1.00334
-1.22992
-1.16901
-1.28041
-1.26844
-1.22173
-1.26482
-1.06996
-1.15478
-0.870201
-0.973134
-0.66779
-0.766629
-0.498251
-0.57785
-0.366909
-0.428433
-0.26321
-0.312166
-0.179788
-0.219083
-0.118782
-0.146056
-0.075615
-0.0951355
-0.17915
-0.0533946
-0.0616259
-1.29878
-1.21127
-1.67083
-1.68664
-0.50107
-0.290299
-1.11857
-1.49357
-1.52975
-1.36506
-1.37935
-1.23252
-1.0844
-0.932435
-0.776743
-0.738886
-0.578559
-0.6544
0.0580191
0.0618109
-0.0510229
-0.835202
-0.905632
-0.969397
-1.02407
-1.08347
-0.6247
-0.471771
-0.322864
-0.182079
-1.70584
-0.456811
-0.513718
-0.36982
-0.407332
-0.323584
-0.343429
-0.301571
-0.30981
-0.300159
-0.298302
-0.32158
-0.307847
-0.363604
-0.340704
-0.41222
-0.387975
-0.457099
-0.435643
-0.485516
-0.474396
-0.488122
-0.490266
-0.465445
-0.479528
-0.42686
-0.44728
-0.386917
-0.406119
-0.359465
-0.370915
-0.3545
-0.353702
-0.378906
-0.36267
-0.438605
-0.403975
-0.539283
-0.483538
-0.683809
-0.606169
-0.866278
-0.771187
-1.06582
-0.965935
-1.2449
-1.16073
-1.3591
-1.31247
-1.37688
-1.38105
-1.29609
-1.34734
-1.14821
-1.22784
-0.974506
-1.06235
-0.804865
-0.887908
-0.656964
-0.727476
-0.540627
-0.594568
-0.456323
-0.49482
-0.406161
-0.42645
-0.597425
-0.393355
-0.491395
-0.820164
-0.707996
-1.03635
-0.931579
-1.20813
-1.1295
-1.31569
-1.27064
-1.3486
-1.342
-1.30081
-1.3348
-1.17677
-1.24742
-0.995334
-1.09189
-0.77712
-0.889348
-0.545262
-0.660856
-0.327571
-0.433334
-0.169307
-0.229724
-0.196851
-0.127962
-0.146321
-0.104588
-0.114747
-0.0940868
-0.0976032
-0.0954865
-0.093487
-0.104143
-0.0992629
-0.113585
-0.109175
-0.117687
-0.116577
-0.113612
-0.116644
-0.103249
-0.10894
-0.0911674
-0.0971356
-0.0817385
-0.0858602
-0.0799941
-0.0795062
-0.0927049
-0.0841457
-0.125288
-0.106282
-0.181859
-0.150277
-0.267973
-0.220872
-0.387593
-0.323638
-0.534846
-0.458753
-0.689874
-0.612914
-0.830441
-0.763147
-0.934565
-0.888862
-0.971238
-0.963062
-0.924597
-0.958227
-0.805094
-0.872171
-0.648161
-0.72875
-0.488349
-0.567076
-0.347636
-0.414577
-0.235009
-0.287994
-0.144679
-0.187617
-0.0694728
-0.105316
-0.00981201
-0.0374744
0.0342706
0.0143397
0.0485875
-1.31201
-1.22521
-0.0536295
0.0628712
-1.57324
-1.58347
-1.15079
-1.44001
-1.45374
-0.316144
-0.301555
-0.373163
-0.270881
-1.36335
-1.32479
-1.19642
-1.06406
-0.92415
-0.776697
-0.746332
-0.567182
-0.650464
-0.854497
-0.948398
-1.01252
-1.07464
-1.11797
-1.15962
-0.640224
-0.486483
-0.334455
-0.192032
0.060574
-0.0621822
-1.60533
-0.433683
-0.495247
-0.33615
-0.382143
-0.264034
-0.296218
-0.223177
-0.240582
-0.200445
-0.20995
-0.192093
-0.194424
-0.201502
-0.194268
-0.228658
-0.213378
-0.262602
-0.245617
-0.292944
-0.27864
-0.311108
-0.304231
-0.314178
-0.315147
-0.299878
-0.308827
-0.275355
-0.288306
-0.250678
-0.262367
-0.235959
-0.241523
-0.239158
-0.234916
-0.266439
-0.24944
-0.323492
-0.290896
-0.415479
-0.364889
-0.544427
-0.475455
-0.70451
-0.6214
-0.877263
-0.791047
-1.03082
-0.958753
-1.12864
-1.08865
-1.14573
-1.14808
-1.08052
-1.12216
-0.959568
-1.02484
-0.815515
-0.888696
-0.671727
-0.742526
-0.543539
-0.604944
-0.440985
-0.488788
-0.365134
-0.400191
-0.337155
-0.605714
-0.388696
-0.494552
-0.839959
-0.72151
-1.0633
-0.955342
-1.24381
-1.16015
-1.36453
-1.31264
-1.40955
-1.39736
-1.36877
-1.39995
-1.24626
-1.31688
-1.06211
-1.16026
-0.83987
-0.954344
-0.601086
-0.720795
-0.484391
-0.0871406
-0.142573
-0.111993
-0.0491175
-0.0662654
-0.0238207
-0.0350585
-0.00955815
-0.015268
-0.00514309
-0.0062305
-0.00720632
-0.00560398
-0.0110767
-0.0091903
-0.0125136
-0.0122711
-0.00963281
-0.0115938
-0.00354039
-0.00682462
0.00325001
-8.07288e-05
0.00821499
0.00615956
0.00704717
0.00876772
-0.00614272
0.00226585
-0.0354763
-0.0186226
-0.084128
-0.0571442
-0.156519
-0.117089
-0.255522
-0.202754
-0.375765
-0.313863
-0.499208
-0.438509
-0.605879
-0.555533
-0.681897
-0.648718
-0.707335
-0.702288
-0.669938
-0.696203
-0.578094
-0.629843
-0.455209
-0.518454
-0.329654
-0.391615
-0.214906
-0.270426
-0.117404
-0.163849
-0.0366889
-0.0752358
0.0314103
-0.00121119
0.0880727
0.0611971
0.132022
0.111947
0.157055
0.147393
0.164106
0.16198
0.0541394
0.15862
0.163014
-1.34927
-1.25895
-1.50601
-1.51209
-0.293419
-0.176457
-1.20502
-1.41601
-1.40612
-1.38804
-1.29591
-1.18249
-1.06228
-0.931903
-0.790173
-0.74189
-0.530327
-0.606352
0.245904
0.240884
0.152244
-0.848054
-0.978579
-1.07887
-1.14373
-1.20032
-1.23292
-1.26007
-0.667089
-0.510271
-0.354877
-0.20784
-0.0745932
0.0448402
-1.53442
-0.40376
-0.46236
-0.298604
-0.346491
-0.224703
-0.259752
-0.167873
-0.193775
-0.130743
-0.147057
-0.108737
-0.118125
-0.0984066
-0.102245
-0.100057
-0.0975076
-0.114914
-0.106088
-0.136495
-0.12546
-0.156303
-0.147001
-0.166835
-0.163449
-0.170512
-0.170753
-0.162074
-0.167386
-0.147713
-0.155241
-0.134235
-0.140402
-0.128786
-0.130098
-0.137532
-0.131044
-0.165918
-0.148939
-0.219264
-0.189161
-0.302051
-0.256796
-0.415601
-0.355116
-0.554363
-0.482576
-0.70226
-0.628625
-0.832719
-0.771561
-0.916223
-0.88195
-0.932906
-0.933433
-0.882388
-0.915056
-0.78577
-0.838136
-0.668147
-0.728294
-0.547403
-0.607282
-0.437011
-0.490178
-0.34676
-0.389045
-0.279345
-0.310363
-0.232728
-0.253253
-0.2082
-0.217644
-0.395668
-0.204933
-0.294674
-0.625033
-0.506746
-0.870997
-0.747751
-1.10401
-0.990895
-1.29883
-1.20735
-1.43611
-1.37612
-1.49345
-1.47587
-1.45834
-1.48753
-1.33531
-1.40696
-1.14481
-1.2467
-0.913579
-1.03256
-0.667182
-0.791085
-0.426436
-0.543913
-0.216065
-0.316794
-0.0628155
-0.126276
-0.0926632
-0.014143
-0.0367701
0.0217844
0.0049188
0.0476934
0.0358389
0.0642445
0.0570663
0.072588
0.0693319
0.0751109
0.0743996
0.0750611
0.0752169
0.0753083
0.0750348
0.0771187
0.0760253
0.0801857
0.0785572
0.0835147
0.0818792
0.0856643
0.0849129
0.0827154
0.0851596
0.0697427
0.0777095
0.043819
0.0585194
0.00248476
0.0252777
-0.057776
-0.0250764
-0.139095
-0.0958609
-0.236849
-0.186663
-0.335267
-0.287259
-0.416282
-0.37871
-0.470272
-0.447144
-0.486619
-0.483921
-0.456641
-0.477394
-0.386027
-0.425578
-0.29057
-0.340098
-0.190774
-0.240154
-0.0977897
-0.143258
-0.0140046
-0.0546169
0.0591218
0.0238908
0.121932
0.091777
0.174915
0.149658
0.216624
0.197434
0.242553
0.231894
0.251042
0.248987
0.249727
-1.4116
-1.31411
0.146376
0.235158
-1.46834
-1.46799
-1.28421
-1.4183
-1.38407
-0.130905
-0.124003
-0.260933
-0.164549
-1.44053
-1.29082
-1.19003
-1.07973
-0.9558
-0.817541
-0.685977
-0.449369
-0.504399
-0.77041
-0.96067
-1.11614
-1.23008
-1.30126
-1.35045
-1.37291
-1.38708
-0.70545
-0.543403
-0.381897
-0.228339
-0.0888319
0.0358966
0.230969
0.140514
-1.49137
-0.348513
-0.395537
-0.263427
-0.306454
-0.184945
-0.221266
-0.12753
-0.154737
-0.082262
-0.103278
-0.0496146
-0.0644227
-0.0278488
-0.0375272
-0.0148755
-0.0203578
-0.0107971
-0.0115506
-0.0172513
-0.012818
-0.0301845
-0.0233329
-0.0431095
-0.036952
-0.053622
-0.0484895
-0.0527217
-0.0533034
-0.048227
-0.0510066
-0.0411073
-0.0447566
-0.0356613
-0.0378684
-0.036781
-0.0351035
-0.0491891
-0.0412884
-0.0775884
-0.0610918
-0.126695
-0.0992888
-0.20028
-0.160285
-0.299154
-0.2467
-0.418188
-0.35681
-0.543638
-0.481312
-0.653742
-0.602121
-0.724964
-0.695507
-0.741642
-0.740458
-0.704274
-0.728954
-0.628926
-0.670064
-0.53406
-0.583004
-0.433212
-0.483632
-0.338495
-0.384388
-0.259415
-0.296652
-0.199317
-0.227048
-0.156388
-0.175787
-0.141339
-0.412792
-0.207221
-0.30541
-0.654515
-0.52948
-0.91196
-0.783048
-1.15979
-1.0385
-1.37474
-1.27282
-1.53086
-1.46208
-1.60048
-1.57768
-1.57018
-1.59792
-1.44464
-1.51845
-1.24439
-1.35194
-0.999281
-1.12537
-0.740548
-0.87034
-0.486547
-0.61123
-0.368874
0.00739124
-0.0472719
-0.0182727
0.0504203
0.0296785
0.0844178
0.0684498
0.110096
0.0981852
0.127893
0.119875
0.138722
0.13406
0.144258
0.142007
0.146687
0.145722
0.147935
0.147374
0.148889
0.148441
0.149974
0.149392
0.151285
0.150615
0.151776
0.151807
0.147808
0.15063
0.135524
0.142858
0.112965
0.125615
0.0782252
0.0972766
0.0285974
0.0554227
-0.0375496
-0.00244651
-0.116736
-0.0761017
-0.195771
-0.15742
-0.257968
-0.229693
-0.295864
-0.280126
-0.305003
-0.304381
-0.280706
-0.297076
-0.226031
-0.256551
-0.151855
-0.190579
-0.0714191
-0.111616
0.00533494
-0.0323459
0.0767961
0.0417017
0.142578
0.110498
0.200949
0.172796
0.250424
0.226886
0.289008
0.271268
0.31379
0.303267
0.32382
0.320666
0.320897
0.323868
0.310216
0.315909
0.223008
0.293336
0.303819
-1.50252
-1.39682
-1.4576
-1.44929
-0.12206
-0.0802961
-1.38918
-1.44846
-1.38655
-1.52121
-1.30886
-1.21973
-1.11684
-0.997056
-0.858894
-0.564146
-0.323419
-0.342964
-0.617291
-0.854246
-1.07449
-1.26331
-1.39894
-1.48423
-1.5364
-1.54457
-1.54545
-0.754272
-0.583651
-0.412832
-0.251009
-0.102975
0.0267367
0.134239
0.348814
0.278851
0.33309
-1.47494
-0.258003
-0.289688
-0.197022
-0.227912
-0.139772
-0.1685
-0.0844557
-0.111342
-0.0406572
-0.061171
-0.00501544
-0.0219602
0.022921
0.00998497
0.0429578
0.0338528
0.0564858
0.0504276
0.0641653
0.0611598
0.0642743
0.0651975
0.0582312
0.0617711
0.0505255
0.0542854
0.0443165
0.0471555
0.0438767
0.0438253
0.0453522
0.0444256
0.0473139
0.0464199
0.0470791
0.0476678
0.0413694
0.0451227
0.0265964
0.0353498
-0.00115199
0.014597
-0.0458703
-0.0211673
-0.110683
-0.075653
-0.196043
-0.150941
-0.297317
-0.245257
-0.403003
-0.350592
-0.495559
-0.452125
-0.556331
-0.530912
-0.573429
-0.570591
-0.547285
-0.565166
-0.489848
-0.521579
-0.413884
-0.453525
-0.329781
-0.372174
-0.248693
-0.288198
-0.179652
-0.212342
-0.126158
-0.150971
-0.086846
-0.104953
-0.06125
-0.072475
-0.0489534
-0.0526067
-0.217908
-0.0490941
-0.127029
-0.436602
-0.321678
-0.691673
-0.560838
-0.963209
-0.826545
-1.23196
-1.09934
-1.47139
-1.35734
-1.64756
-1.56959
-1.72997
-1.70175
-1.70405
-1.73072
-1.5738
-1.65107
-1.36047
-1.47547
-1.09712
-1.2327
-0.820527
-0.958772
-0.552024
-0.684419
-0.31074
-0.426408
-0.115008
-0.207623
0.0210369
-0.0352745
-0.00598148
0.0680074
0.0458619
0.107121
0.0885004
0.139024
0.123993
0.163913
0.152306
0.182161
0.173805
0.194405
0.188944
0.201773
0.198592
0.205691
0.204066
0.207423
0.206765
0.207871
0.207758
0.207847
0.207863
0.208169
0.207961
0.207761
0.208236
0.203306
0.206257
0.192043
0.198619
0.172711
0.183451
0.143815
0.159581
0.103329
0.12513
0.0500015
0.0782544
-0.0137737
0.0189896
-0.0777286
-0.0466939
-0.126735
-0.104859
-0.15341
-0.142882
-0.156909
-0.158118
-0.136667
-0.149705
-0.0939535
-0.117776
-0.0357601
-0.0662529
0.0295063
-0.00353058
0.0946119
0.0624353
0.156328
0.125881
0.214818
0.18602
0.268457
0.242417
0.314363
0.29256
0.34968
0.333508
0.372487
0.362677
0.383053
0.379226
0.382898
0.384286
0.37229
0.378912
0.362017
-1.6243
-1.50857
0.211035
-1.4743
-1.45647
-1.52504
-1.50709
-1.41341
0.015619
0.0187343
-0.152936
-0.0665941
-1.6328
-1.35129
-1.27206
-1.17487
-1.05613
-0.914655
-0.359688
-0.139813
-0.133778
0.262448
0.315487
-0.358807
-0.631886
-0.913794
-1.17353
-1.40001
-1.57256
-1.69005
-1.75312
-1.75404
-1.74096
-0.811224
-0.627475
-0.444081
-0.271276
-0.115054
0.0191369
0.123284
-1.48571
-0.135523
-0.141051
-0.107517
-0.12411
-0.0719439
-0.0913219
-0.0355114
-0.0532807
0.000661409
-0.0175318
0.0339073
0.0179932
0.0622151
0.0485994
0.0859033
0.0746843
0.104493
0.0958292
0.118357
0.111956
0.128106
0.123787
0.132502
0.131058
0.131468
0.13254
0.127577
0.129651
0.124043
0.125677
0.122788
0.12329
0.121996
0.12241
0.120333
0.121368
0.116128
0.11867
0.107231
0.112418
0.0909763
0.100207
0.0642382
0.0791234
0.0237296
0.045891
-0.0330857
-0.0025548
-0.106386
-0.067814
-0.19211
-0.14816
-0.280805
-0.236893
-0.358471
-0.321967
-0.410501
-0.388412
-0.428146
-0.423878
-0.411239
-0.423541
-0.368269
-0.392444
-0.307455
-0.33962
-0.237172
-0.272866
-0.167841
-0.201767
-0.10776
-0.136353
-0.0601222
-0.0824075
-0.0245286
-0.0409315
0.000503913
-0.0109975
0.00958507
-0.235276
-0.0529104
-0.138362
-0.466215
-0.344545
-0.734675
-0.596896
-1.02545
-0.878113
-1.32038
-1.17412
-1.58629
-1.45947
-1.78366
-1.69587
-1.87989
-1.84588
-1.85785
-1.88395
-1.72047
-1.8026
-1.49095
-1.61499
-1.20584
-1.35277
-0.906582
-1.05584
-0.621327
-0.761222
-0.364324
-0.487359
-0.251593
0.0804228
0.0332001
0.0578801
0.120961
0.101169
0.156527
0.139547
0.186127
0.172103
0.209871
0.198735
0.227974
0.219606
0.240845
0.235014
0.249186
0.245515
0.253889
0.251927
0.255827
0.255147
0.256054
0.256069
0.255656
0.255862
0.255662
0.25562
0.254786
0.255505
0.25021
0.253111
0.240147
0.245915
0.223805
0.232816
0.199998
0.212922
0.167303
0.184838
0.124786
0.147271
0.0739039
0.100103
0.0220045
0.0473349
-0.0180732
-0.00028931
-0.0376712
-0.030536
-0.0373871
-0.0398427
-0.0193438
-0.0304993
0.0150648
-0.00402117
0.061689
0.0372168
0.115061
0.0878226
0.170845
0.142922
0.225317
0.198381
0.277209
0.251605
0.325436
0.30193
0.36714
0.347314
0.399261
0.38454
0.420423
0.4112
0.431101
0.427031
0.431352
0.432605
0.420866
0.427252
0.39368
0.408184
0.359429
0.377268
0.318093
0.297241
0.339761
-1.78242
-1.65491
0.196353
-1.51863
-1.48974
0.0189031
0.00738779
-1.69466
0.245955
-1.59737
-1.46697
0.278995
-1.77962
-1.41915
-1.34895
-1.25459
-1.13296
-0.983336
-0.128778
-0.339917
-0.618641
-0.930852
-1.23572
-1.5112
-1.73587
-1.9014
-1.99065
-1.99972
-1.97831
-0.871676
-0.67007
-0.471203
-0.286147
-0.122604
0.0116024
0.111253
-1.52371
0.0514773
-0.108159
0.110383
0.068455
0.0222188
0.0377048
0.00368732
0.00861719
0.0122135
0.00543579
0.0290306
0.0199858
0.0502476
0.0392909
0.0744384
0.0620018
0.0990462
0.0869789
0.121271
0.11047
0.140829
0.131415
0.157289
0.149455
0.17067
0.164342
0.18138
0.17636
0.188627
0.18554
0.1914
0.19055
0.190582
0.191315
0.188672
0.189653
0.186978
0.187866
0.184564
0.185923
0.18041
0.182767
0.173471
0.177362
0.162378
0.168547
0.145237
0.154701
0.119638
0.133657
0.0829467
0.10283
0.033177
0.0597559
-0.0296539
0.00326729
-0.102098
-0.0650431
-0.176457
-0.139688
-0.241674
-0.210968
-0.286592
-0.26716
-0.304497
-0.299163
-0.294945
-0.302828
-0.263109
-0.281496
-0.21404
-0.240358
-0.155036
-0.185179
-0.0958221
-0.124895
-0.0437258
-0.0686315
-0.00148843
-0.0213763
0.0310058
0.0158523
0.0548743
0.0438801
0.0713634
0.0639379
0.0787272