/*--------------------------------*- C++ -*----------------------------------*\
  =========                 |
  \\      /  F ield         | OpenFOAM: The Open Source CFD Toolbox
   \\    /   O peration     | Website:  https://openfoam.org
    \\  /    A nd           | Version:  10
     \\/     M anipulation  |
\*---------------------------------------------------------------------------*/
FoamFile
{
    format      ascii;
    class       volVectorField;
    location    "1.5";
    object      U;
}
// * * * * * * * * * * * * * * * * * * * * * * * * * * * * * * * * * * * * * //

dimensions      [0 1 -1 0 0 0 0];

internalField   nonuniform List<vector> 
28942
(
(-0.176844 0.157198 -6.00052e-20)
(-0.168927 0.21056 -1.25118e-20)
(0.520371 -0.358575 5.40908e-20)
(1.01631 0.0421896 -1.48748e-19)
(0.992848 0.0519482 4.86888e-20)
(0.73865 0.0367602 0)
(0.83703 0.0529564 -7.9831e-22)
(0.866541 0.0262777 1.04055e-21)
(1.18922 -0.0957832 -6.04798e-21)
(1.17768 -0.0865516 1.78789e-20)
(-0.0448778 -0.189878 -1.76748e-19)
(0.115154 -0.154887 8.16013e-20)
(-0.12239 -0.266423 0)
(-0.174797 -0.285185 0)
(1.0139 -0.0224683 7.73564e-24)
(1.00974 -0.0202331 -2.56821e-23)
(0.940576 0.101975 3.16711e-20)
(0.924441 0.088402 5.07748e-20)
(0.336315 -0.454523 7.96288e-20)
(0.643296 -0.721394 -2.25901e-20)
(1.00851 0.226563 4.15545e-20)
(1.00592 0.213964 0)
(0.110593 -0.0508326 1.46525e-19)
(-0.106415 -0.101813 8.11196e-20)
(0.864629 -0.168103 1.6301e-19)
(1.26394 -0.248447 -1.48176e-19)
(0.196874 -0.445059 4.90527e-19)
(0.204449 -0.367917 -1.89558e-19)
(0.777294 -0.555263 -4.22056e-21)
(0.478127 -0.328521 -2.46613e-21)
(0.704877 -0.0290148 0)
(0.894378 -0.0408004 2.94656e-21)
(0.932693 -0.0365924 1.79362e-20)
(1.00021 -0.0280825 1.16344e-21)
(0.476883 0.519251 1.81196e-20)
(0.397033 0.572574 -1.05868e-20)
(0.623742 0.733267 -1.20503e-19)
(0.405851 0.664407 -5.06892e-20)
(0.405519 0.03002 1.14421e-21)
(0.217521 0.522978 -7.36528e-20)
(0.65512 -0.0577301 0)
(0.854267 -0.0771357 0)
(1.01058 -0.0370553 -1.46361e-21)
(1.01047 -0.0347845 4.358e-21)
(1.01296 -0.0371612 3.74844e-21)
(0.978276 0.027967 -4.58655e-22)
(0.96966 0.0370668 6.48251e-22)
(1.01836 0.0233171 3.00427e-21)
(1.01186 0.0252204 -8.30969e-22)
(0.969814 0.0244844 -3.5744e-21)
(0.972695 0.0232088 2.36632e-21)
(1.10099 0.0101161 -1.37631e-20)
(1.10199 0.00565097 -1.23251e-20)
(1.19161 -0.116129 -2.17903e-22)
(1.17791 -0.107035 3.44266e-21)
(1.45157 -0.0142019 1.28558e-19)
(1.57495 -0.0723394 5.96796e-20)
(-0.172629 -0.218316 -9.57889e-20)
(-0.0843418 -0.243163 0)
(-0.0930672 -0.177888 3.4527e-20)
(-0.153145 -0.166191 8.38008e-20)
(-0.0906273 -0.0886819 -6.82722e-20)
(-0.101754 -0.10541 -6.99986e-20)
(1.39286 -0.532775 0)
(1.55364 -0.426193 2.22331e-20)
(1.40877 -0.361863 -9.25579e-21)
(1.3226 -0.38339 0)
(0.942806 -0.207111 -2.97413e-20)
(0.963337 -0.224804 -1.93339e-20)
(-0.119384 0.0980453 1.98817e-19)
(-0.138759 0.0926438 -6.24323e-20)
(-0.164578 0.139758 1.56327e-19)
(0.948936 -0.295964 0)
(0.957491 -0.255905 1.02442e-19)
(0.897445 -0.416097 2.59246e-20)
(1.51375 0.160866 5.3488e-20)
(1.52611 0.0927493 -6.03093e-20)
(1.45503 0.0680111 -3.37552e-20)
(0.163069 -0.0913301 2.56624e-21)
(0.235505 -0.144435 -5.73112e-20)
(1.06445 -0.643748 -1.01156e-20)
(0.811239 -0.539849 1.85941e-20)
(-0.134231 0.0739769 3.53192e-19)
(-0.135716 0.0607365 -1.36118e-19)
(1.33713 0.582058 -8.99743e-21)
(1.24795 0.538016 -7.96047e-21)
(1.1434 0.682494 2.18686e-21)
(1.0013 0.687815 -1.80914e-21)
(0.962831 0.669723 8.91474e-22)
(0.726129 0.495655 1.71528e-21)
(0.791638 0.589462 -2.16118e-21)
(0.827443 0.671634 5.65762e-21)
(-0.219246 -0.00873127 -1.60187e-20)
(-0.0902051 0.0768233 -4.78113e-21)
(-0.30957 -0.173326 9.5557e-21)
(-0.357615 -0.171497 -1.11644e-19)
(-0.330514 -0.125664 1.3934e-19)
(0.403822 0.319055 -2.45612e-20)
(0.453111 0.388557 3.4604e-21)
(-0.0300176 0.00687176 0)
(1.00757 0.00422663 0)
(0.962357 0.0532146 -1.0621e-19)
(0.893754 0.133103 7.87594e-20)
(1.07977 0.115761 0)
(1.19863 -0.097208 0)
(1.18945 -0.105985 0)
(1.20074 -0.114114 4.48132e-21)
(1.09055 0.137367 -7.38821e-21)
(1.08912 0.149592 7.59703e-20)
(1.07954 0.128142 4.06282e-20)
(-0.195107 -0.250984 1.92422e-19)
(-0.207776 -0.260551 -2.15742e-19)
(0.196621 0.108943 -1.11255e-19)
(0.233774 0.0614203 1.07634e-19)
(-0.112751 0.182911 2.00417e-19)
(0.173334 0.26357 8.29196e-20)
(0.396994 0.256968 2.02601e-19)
(0.307563 0.488494 1.67192e-20)
(0.137987 0.384213 -4.80857e-19)
(1.33052 0.436792 1.00797e-21)
(1.18215 0.43441 2.31111e-20)
(1.21938 0.404624 -4.06845e-20)
(0.852683 -0.652329 8.23817e-21)
(0.582992 -0.420789 -1.15896e-21)
(0.167828 0.0125419 -2.51246e-19)
(0.153682 -0.0668212 0)
(0.32058 -0.0331562 1.35075e-19)
(0.540467 -0.412756 1.14519e-20)
(0.764407 -0.638676 -2.24048e-20)
(1.01823 0.0229101 -3.28352e-21)
(1.0234 0.0207618 1.57902e-21)
(1.0113 0.02312 1.11425e-22)
(0.522472 -0.771026 0)
(0.549624 -0.594546 0)
(1.06023 -0.13077 -1.77516e-20)
(1.04838 -0.112417 1.04453e-19)
(1.03006 -0.0835546 0)
(0.860107 -0.744222 0)
(0.856697 -0.675196 -2.94628e-20)
(0.787755 0.767425 7.32336e-20)
(-0.233085 -0.197168 1.07414e-19)
(-0.216862 -0.194982 -7.5476e-20)
(0.580561 -0.531921 -1.3601e-20)
(1.01636 -0.0394922 2.16155e-20)
(1.01588 -0.0374462 -4.0011e-21)
(1.49712 -0.023282 -1.40285e-20)
(1.48985 0.044295 1.87671e-20)
(1.44824 0.0580117 5.3906e-20)
(-0.211759 -0.202445 3.93223e-20)
(0.913424 0.745042 7.15385e-20)
(1.05138 0.704811 -2.28776e-20)
(1.15769 0.768609 1.46239e-22)
(0.933853 -0.0219312 -6.41414e-22)
(0.933701 -0.0247403 -6.45123e-21)
(0.984066 -0.0252485 -3.97886e-22)
(0.981157 -0.0336221 1.52965e-21)
(0.849577 0.733424 2.00717e-20)
(0.467557 0.445176 0)
(-0.147909 0.092534 7.14773e-20)
(-0.171332 0.155244 -7.92444e-20)
(-0.245769 0.0705336 6.57956e-20)
(0.772098 0.0798035 -2.34692e-19)
(1.35011 0.194767 -1.18853e-19)
(1.00676 -0.0316258 6.9021e-22)
(1.41133 -0.473957 2.87892e-20)
(1.36859 -0.551838 7.06883e-20)
(0.992214 0.255932 9.56878e-20)
(0.981146 0.298282 7.47428e-21)
(0.944455 0.181199 5.5945e-20)
(0.961784 0.186013 -4.0412e-20)
(1.01767 0.253312 0)
(1.09715 0.00371806 4.8118e-21)
(1.09751 -0.000568555 9.30601e-21)
(1.1379 -0.0685962 -8.36194e-21)
(1.14496 -0.0667792 1.43774e-20)
(1.09788 0.126102 8.60819e-21)
(1.11072 0.135932 -2.39696e-20)
(1.10086 0.13688 0)
(1.08814 0.126182 5.37089e-21)
(1.10155 0.147902 0)
(1.11818 0.206622 -1.89987e-20)
(1.11392 0.2225 -1.08577e-20)
(1.09539 0.253268 -2.02089e-20)
(1.10609 0.238591 0)
(1.13171 0.259897 6.10366e-20)
(1.11726 0.277024 2.80596e-21)
(1.08163 0.274578 -1.22283e-20)
(1.03565 0.342544 -5.25984e-20)
(1.02875 0.282182 -9.56413e-21)
(0.596406 -0.425001 1.5174e-20)
(0.774396 -0.462962 -7.89789e-21)
(-0.170538 0.157091 -1.50274e-19)
(1.00551 0.0252849 3.30767e-21)
(1.02288 0.0214574 0)
(-0.0922445 0.0541225 7.2406e-20)
(-0.0998491 0.0607498 4.23468e-20)
(1.00737 0.0248423 1.33499e-23)
(1.0141 0.0212342 -4.82563e-23)
(1.01809 0.0219336 0)
(1.00814 0.0267495 -1.97302e-22)
(1.01831 0.00184107 -4.61563e-21)
(1.01827 0.00124669 2.21963e-20)
(1.01862 0.00151957 1.06784e-20)
(-0.22917 -0.257816 8.13668e-20)
(-0.112835 -0.118914 -1.02447e-19)
(-0.138906 -0.139873 9.50514e-20)
(-0.118745 -0.105751 0)
(-0.0497172 -0.0383813 1.44272e-19)
(-0.0545363 -0.0461034 -1.25984e-19)
(-0.0919879 -0.0524772 -1.27745e-19)
(-0.119365 -0.0567804 -1.29545e-19)
(-0.0754841 -0.0397722 0)
(0.0596411 0.252127 0)
(0.0274652 0.151403 0)
(0.0101591 0.0861871 0)
(1.18169 -0.0969177 7.54678e-22)
(1.17111 -0.0897893 0)
(1.1738 -0.100173 -1.07661e-21)
(0.929711 -0.0839042 2.07856e-19)
(0.942733 -0.0903338 -7.55577e-20)
(0.93927 -0.0731827 0)
(1.02366 -0.0001115 -2.58573e-22)
(1.02386 -9.2197e-05 5.17525e-22)
(1.02351 -0.000128875 -1.75357e-22)
(1.02409 -8.88744e-05 0)
(1.02434 -8.01059e-05 -3.28927e-22)
(1.02458 -6.96128e-05 0)
(1.0247 -0.000326222 0)
(1.0248 -7.87336e-05 1.21539e-21)
(1.02488 -0.000314539 0)
(1.02451 -0.000345388 -3.31011e-22)
(1.0243 -0.000338288 0)
(1.02408 -0.000325172 1.7318e-22)
(1.02387 -0.000309719 -2.58663e-22)
(1.02369 -0.000298186 1.75117e-22)
(1.025 -8.45996e-05 -1.16287e-21)
(1.02504 -0.000291353 -4.06724e-23)
(1.0234 -0.000179082 2.08514e-26)
(1.02354 -0.000289612 -2.6842e-22)
(1.02332 -0.000226447 1.43045e-21)
(1.02516 -7.17104e-05 1.08513e-24)
(1.02517 -0.000250894 -4.05643e-23)
(1.02342 -0.000302649 5.29814e-22)
(1.02529 -5.89974e-05 1.09049e-21)
(1.0254 -4.70797e-05 -1.08959e-21)
(1.02528 -0.000210745 8.18152e-23)
(1.02538 -0.000178138 1.61206e-22)
(1.02327 -0.000247392 -1.39191e-21)
(1.02333 -0.000333347 -3.48863e-22)
(1.02548 -3.89047e-05 0)
(1.02546 -0.000152549 -1.59003e-22)
(1.02322 -0.000253008 1.72512e-25)
(1.02324 -0.000345743 -1.72949e-25)
(1.02555 -3.22564e-05 0)
(1.02553 -0.000134357 0)
(1.02314 -0.000197981 0)
(1.02314 -0.000337069 0)
(1.0256 -2.8884e-05 0)
(1.0256 -0.000121416 7.60439e-23)
(1.02301 -9.9953e-05 -7.26899e-22)
(1.02299 -0.000294677 -1.77244e-25)
(1.02565 -2.79263e-05 3.98349e-24)
(1.02566 -0.000114397 -8.12108e-23)
(1.02281 2.5365e-05 7.30371e-22)
(1.02279 -0.000236295 0)
(1.0257 -3.13658e-05 0)
(1.02571 -0.000110833 0)
(1.02255 0.0001311 -4.635e-23)
(1.02254 -0.000190298 7.96082e-22)
(1.02575 -3.80745e-05 4.90833e-22)
(1.02576 -0.000109241 0)
(1.02227 0.000170584 -4.702e-24)
(1.02227 -0.000189201 -7.53539e-22)
(1.02579 -4.72404e-05 -7.33813e-22)
(1.02581 -0.000105806 -2.12787e-22)
(1.02197 0.000121768 7.69988e-22)
(1.02198 -0.000230489 0)
(1.02583 -5.98069e-05 2.41497e-22)
(1.02585 -0.000106331 1.41885e-22)
(1.02168 4.95576e-05 -3.90765e-22)
(1.02169 -0.000309542 7.92411e-22)
(1.02587 -6.80973e-05 -9.62701e-22)
(1.0259 -9.58197e-05 1.08467e-21)
(1.02139 -4.60256e-05 4.03916e-22)
(1.0214 -0.000370382 1.2798e-23)
(1.02593 -8.53312e-05 0)
(1.02594 -8.45831e-05 5.16304e-22)
(1.02109 -6.71994e-05 -8.14491e-22)
(1.02111 -0.00041718 1.6295e-21)
(1.02599 -8.54281e-05 0)
(1.02599 -8.97048e-05 0)
(1.02141 0.000274167 -3.99684e-22)
(1.02111 0.0002702 -1.62262e-21)
(1.02077 -7.53237e-05 0)
(1.02079 -0.000441215 -8.3209e-22)
(1.022 0.000397927 -2.50282e-22)
(1.0217 0.000342126 4.91599e-23)
(1.02256 0.000359267 0)
(1.02228 0.000427835 -8.05692e-22)
(1.02299 3.58283e-05 -1.54608e-24)
(1.0228 0.000216072 0)
(1.02321 -0.000230079 0)
(1.02313 -0.000125329 0)
(1.02329 -0.000222046 0)
(1.02326 -0.000255772 0)
(1.0234 -3.26091e-05 3.46161e-22)
(1.02332 -0.000129939 8.74246e-23)
(1.02371 0.000123913 -3.33247e-22)
(1.02353 5.4792e-05 -3.45995e-22)
(1.02418 0.000168419 5.89303e-22)
(1.02393 0.000150436 7.55075e-22)
(1.02468 0.000143871 0)
(1.02443 0.000167372 0)
(1.02507 7.79795e-05 -2.57496e-24)
(1.02489 0.000111905 0)
(1.02534 2.799e-05 0)
(1.02522 4.89275e-05 0)
(1.02551 -1.18827e-07 0)
(1.02543 1.15323e-05 0)
(1.02563 -1.62017e-05 0)
(1.02557 -9.20239e-06 0)
(1.02573 -3.04834e-05 0)
(1.02568 -2.27971e-05 0)
(1.02583 -4.60937e-05 0)
(1.02578 -3.71694e-05 0)
(1.02593 -5.76329e-05 -3.92577e-22)
(1.02588 -4.93836e-05 0)
(1.02597 -6.08368e-05 -1.26693e-22)
(1.02604 -8.17948e-05 1.23486e-22)
(1.02604 -9.33947e-05 -1.22456e-22)
(1.02591 -0.000133866 0)
(1.02599 -0.00011265 -5.02975e-22)
(1.02595 -0.000119296 -2.59485e-22)
(1.02582 -0.000162248 7.13338e-23)
(1.02587 -0.000145524 -2.7894e-22)
(1.0257 -0.000173257 2.31849e-24)
(1.02576 -0.000169655 0)
(1.02556 -0.000185303 0)
(1.02563 -0.000177751 0)
(1.0254 -0.000221531 0)
(1.02548 -0.000199028 0)
(1.02523 -0.00029884 0)
(1.02532 -0.000255041 3.07439e-28)
(1.02503 -0.000413453 2.60624e-24)
(1.02514 -0.000352735 0)
(1.02479 -0.000529405 0)
(1.02491 -0.000480124 0)
(1.02448 -0.000561202 0)
(1.02464 -0.000559987 0)
(1.02411 -0.000524881 0)
(1.0243 -0.000547042 -1.74871e-22)
(1.02373 -0.000460262 4.62602e-23)
(1.02392 -0.000502167 -2.26305e-22)
(1.02342 -0.000473274 0)
(1.02357 -0.000458797 -1.84566e-22)
(1.02314 -0.000496746 0)
(1.02328 -0.000485118 0)
(1.02277 -0.000487969 0)
(1.02297 -0.000495188 0)
(1.02227 -0.000515236 0)
(1.02253 -0.000490396 0)
(1.02171 -0.000643565 -2.04508e-22)
(1.02199 -0.000566222 0)
(1.02114 -0.000769341 -8.33788e-22)
(1.02143 -0.000709231 -2.06184e-22)
(1.02082 -0.000818665 8.5067e-22)
(1.02078 0.000292956 1.61025e-21)
(1.02602 -6.37094e-05 2.4751e-22)
(1.02604 -0.000113606 -4.82766e-22)
(1.02044 -0.000461388 0)
(1.02048 -0.000863831 0)
(1.02043 0.000313655 0)
(1.02043 -7.90723e-05 0)
(1.02147 0.000567688 0)
(1.02081 0.00061859 4.03022e-22)
(1.02115 0.000572096 4.05983e-22)
(1.02207 0.000664592 5.14093e-22)
(1.02178 0.000606702 -1.02807e-22)
(1.02259 0.000595915 1.58292e-24)
(1.02234 0.000669268 0)
(1.023 0.000210107 0)
(1.02281 0.000432078 0)
(1.02325 -0.000155654 0)
(1.02315 -5.0692e-06 0)
(1.02336 -0.000168535 0)
(1.02332 -0.000210275 0)
(1.02347 5.86869e-05 0)
(1.0234 -6.81908e-05 0)
(1.02374 0.000302122 -1.39641e-24)
(1.02358 0.000193606 3.60682e-22)
(1.02414 0.000398104 -1.33683e-24)
(1.02393 0.000362343 -7.02142e-22)
(1.02459 0.000360873 0)
(1.02437 0.00039413 0)
(1.02496 0.000252511 1.28625e-24)
(1.02479 0.00031037 0)
(1.02524 0.000151641 0)
(1.02511 0.000198395 0)
(1.02544 8.77441e-05 0)
(1.02535 0.000115147 0)
(1.02559 5.56706e-05 0)
(1.02552 6.93903e-05 0)
(1.02572 3.62024e-05 0)
(1.02566 4.60534e-05 0)
(1.02583 1.71516e-05 0)
(1.02578 2.68402e-05 0)
(1.02594 -7.07063e-06 2.68287e-22)
(1.02589 4.70375e-06 0)
(1.02608 -8.71529e-05 0)
(1.02607 -5.59757e-05 2.41281e-22)
(1.02602 -3.43708e-05 0)
(1.02598 -2.07944e-05 2.61072e-22)
(1.02599 -0.000153504 5.2033e-22)
(1.02604 -0.000145124 1.27538e-22)
(1.02608 -0.000109918 9.93886e-22)
(1.02608 -9.50279e-05 0)
(1.02592 -0.000191808 0)
(1.02596 -0.000171324 -7.85278e-22)
(1.02582 -0.00022237 2.24692e-24)
(1.02587 -0.000205698 2.80668e-22)
(1.02568 -0.000244201 -2.31848e-24)
(1.02575 -0.000232381 0)
(1.02552 -0.00026633 0)
(1.02561 -0.000254119 0)
(1.02535 -0.000306179 0)
(1.02544 -0.000282571 0)
(1.02518 -0.000382033 0)
(1.02526 -0.000338948 -3.07439e-28)
(1.025 -0.000497315 -5.2108e-24)
(1.02509 -0.000435177 0)
(1.02483 -0.000636178 0)
(1.02492 -0.000566484 0)
(1.02461 -0.000722749 8.82376e-23)
(1.02473 -0.000688644 0)
(1.02432 -0.000721387 0)
(1.02448 -0.000730954 -8.78611e-23)
(1.02395 -0.00066885 1.84873e-22)
(1.02414 -0.000697687 1.83359e-22)
(1.02356 -0.000641545 0)
(1.02376 -0.000652261 0)
(1.02318 -0.000664263 0)
(1.02337 -0.000649899 0)
(1.02276 -0.000698023 0)
(1.02298 -0.000680632 0)
(1.02227 -0.000763131 0)
(1.02253 -0.000723116 0)
(1.02174 -0.000898117 3.28097e-24)
(1.02201 -0.000823484 0)
(1.02118 -0.00105828 -3.34307e-24)
(1.02147 -0.000980005 0)
(1.02055 -0.00119921 -8.77366e-22)
(1.02088 -0.00112857 8.76837e-22)
(1.02046 0.000666264 8.22923e-22)
(1.02012 -0.000924135 0)
(1.02019 -0.00128723 -1.79363e-21)
(1.02008 -0.000492613 0)
(1.02606 -3.77045e-05 0)
(1.02609 -0.000135752 -1.23567e-22)
(1.02006 0.000304862 2.0922e-21)
(1.0201 0.000697267 8.37581e-22)
(1.01975 -0.000982603 4.53404e-22)
(1.01981 -0.00136654 2.26665e-21)
(1.02006 -9.07481e-05 0)
(1.02603 1.83518e-05 1.0205e-21)
(1.02606 -1.79894e-06 -5.03813e-22)
(1.02613 -0.000107478 -2.44255e-22)
(1.02613 -0.000123525 1.21378e-21)
(1.02019 0.0010851 2.92864e-21)
(1.01973 0.000729073 -1.64884e-21)
(1.01947 0.00120984 -7.41862e-21)
(1.01981 0.00114804 -1.67326e-21)
(1.0209 0.000955038 8.12593e-22)
(1.02055 0.00102293 -2.49023e-21)
(1.02157 0.000876278 -8.28929e-22)
(1.02124 0.000898368 -6.27445e-22)
(1.02219 0.000936351 -2.05608e-22)
(1.0219 0.000899827 -2.06308e-22)
(1.02268 0.000830662 -1.58292e-24)
(1.02245 0.00092561 0)
(1.02307 0.000387 0)
(1.02288 0.000640136 0)
(1.0234 -5.01858e-05 0)
(1.02325 0.000136685 0)
(1.02362 -0.000113476 0)
(1.02352 -0.000135816 0)
(1.02379 0.000147918 0)
(1.0237 -8.63472e-06 0)
(1.024 0.000449251 0)
(1.02388 0.000308793 0)
(1.02428 0.000589832 2.60941e-28)
(1.02413 0.000548431 0)
(1.0246 0.000548146 0)
(1.02444 0.000585633 0)
(1.0249 0.000412226 1.28599e-24)
(1.02476 0.000486274 0)
(1.02517 0.000273391 0)
(1.02504 0.000338828 0)
(1.02539 0.000181022 0)
(1.02528 0.000221099 0)
(1.02557 0.000130299 0)
(1.02548 0.000151718 0)
(1.02572 9.93751e-05 0)
(1.02564 0.000113574 0)
(1.02585 7.20348e-05 0)
(1.02578 8.51828e-05 0)
(1.02595 4.38521e-05 1.36795e-22)
(1.0259 5.71643e-05 -6.88683e-23)
(1.026 2.86379e-05 -5.20803e-22)
(1.02612 -8.97715e-05 -1.15696e-22)
(1.02611 -3.9227e-05 4.83412e-22)
(1.02611 -6.41144e-05 -3.70166e-22)
(1.02612 -8.56026e-05 0)
(1.02601 -0.000213058 -3.868e-22)
(1.02609 -0.000169295 -1.11396e-21)
(1.02605 -0.000188383 8.98495e-22)
(1.02592 -0.000251881 0)
(1.02597 -0.000234857 0)
(1.02581 -0.00028509 -4.52412e-28)
(1.02587 -0.000266482 0)
(1.02567 -0.000319746 0)
(1.02575 -0.000301832 0)
(1.02551 -0.000353778 -2.38881e-24)
(1.02559 -0.000336311 0)
(1.02533 -0.000398638 0)
(1.02542 -0.000373703 0)
(1.02514 -0.00046994 0)
(1.02523 -0.000430308 0)
(1.02497 -0.000575116 2.60516e-24)
(1.02505 -0.000518234 0)
(1.02483 -0.000706029 2.67753e-24)
(1.0249 -0.00063914 0)
(1.02468 -0.000820001 0)
(1.02476 -0.000767767 0)
(1.02448 -0.000872924 0)
(1.02459 -0.000857064 0)
(1.02416 -0.000868884 0)
(1.02433 -0.000872676 0)
(1.02374 -0.000858165 0)
(1.02396 -0.000860407 0)
(1.02328 -0.000881792 -3.04923e-24)
(1.02352 -0.000865896 0)
(1.0228 -0.000931091 0)
(1.02304 -0.00090367 0)
(1.02229 -0.0010169 0)
(1.02255 -0.000967413 0)
(1.02177 -0.00116007 -1.04798e-27)
(1.02203 -0.0010822 0)
(1.02123 -0.00133215 1.40414e-27)
(1.0215 -0.00124551 0)
(1.02062 -0.0015179 3.47661e-24)
(1.02093 -0.00142144 0)
(1.0199 -0.00172815 -1.84014e-21)
(1.02027 -0.00161873 4.50903e-22)
(1.01941 -0.00144196 4.6352e-22)
(1.01951 -0.00183255 9.1809e-22)
(1.01968 0.000302504 -8.16847e-22)
(1.0197 -0.000554334 -8.78798e-22)
(1.0261 -1.40446e-05 1.23162e-22)
(1.02613 -0.000151891 8.75326e-22)
(1.01935 0.000765201 1.00014e-22)
(1.01935 -0.00102964 0)
(1.01892 0.00129015 1.15456e-20)
(1.01909 -0.00193513 1.42485e-21)
(1.01899 -0.00151995 1.89936e-21)
(1.01891 0.00146851 -1.92454e-20)
(1.01842 0.00186376 3.43947e-21)
(1.01967 -0.000127995 0)
(1.01965 0.00145441 1.88631e-21)
(1.01933 0.00149892 9.83978e-22)
(1.02035 0.00136948 1.69917e-21)
(1.01999 0.0014139 -2.59393e-21)
(1.02106 0.00124461 -8.42472e-22)
(1.02071 0.00131228 -4.2187e-22)
(1.02174 0.00116747 4.20837e-22)
(1.0214 0.00118913 4.27748e-22)
(1.02235 0.00118809 0)
(1.02206 0.00117953 -1.19369e-24)
(1.02279 0.00103366 0)
(1.02259 0.0011518 0)
(1.02316 0.000574488 1.54432e-24)
(1.02297 0.000830769 0)
(1.02359 0.000118887 0)
(1.02337 0.000319043 0)
(1.024 9.99725e-06 0)
(1.02381 1.19085e-05 0)
(1.02429 0.000241501 0)
(1.02416 9.70857e-05 0)
(1.02447 0.000547557 1.39511e-24)
(1.02439 0.000402378 0)
(1.02461 0.000704618 2.57362e-28)
(1.02454 0.000652864 0)
(1.02477 0.000673014 0)
(1.02469 0.000707672 0)
(1.02496 0.000537253 -2.57176e-24)
(1.02486 0.000612054 0)
(1.02517 0.000390417 0)
(1.02506 0.000460637 0)
(1.02538 0.000283623 0)
(1.02528 0.000331204 0)
(1.02557 0.000217194 0)
(1.02548 0.000246349 0)
(1.02573 0.000172161 0)
(1.02565 0.000193048 0)
(1.02586 0.000133957 0)
(1.0258 0.000152095 0)
(1.02597 9.668e-05 -6.83139e-23)
(1.02592 0.0001142 0)
(1.02605 6.59713e-05 0)
(1.02601 8.04331e-05 -1.32387e-22)
(1.02611 2.31608e-05 4.89023e-26)
(1.02608 4.50937e-05 0)
(1.02614 -4.46895e-05 -4.90242e-22)
(1.02614 1.60292e-06 2.95919e-23)
(1.02614 -2.27079e-05 2.39803e-22)
(1.02616 -8.20263e-05 1.7614e-22)
(1.02615 -6.84496e-05 -1.21595e-22)
(1.02616 -0.000109924 -6.11871e-23)
(1.02616 -8.20178e-05 6.10965e-23)
(1.02616 -0.000149919 0)
(1.02616 -0.000116849 -5.56881e-22)
(1.0261 -0.00021705 -2.50593e-22)
(1.02615 -0.000186088 -4.78707e-22)
(1.02613 -0.000199883 1.10007e-21)
(1.02602 -0.000263276 -1.3181e-22)
(1.02606 -0.000238466 0)
(1.02593 -0.000309532 0)
(1.02598 -0.00028957 0)
(1.02582 -0.000348721 -4.91356e-28)
(1.02588 -0.000328895 0)
(1.02568 -0.00039521 0)
(1.02575 -0.000372007 0)
(1.02552 -0.000441577 2.38881e-24)
(1.0256 -0.000418358 0)
(1.02533 -0.000493892 0)
(1.02543 -0.000466278 0)
(1.02514 -0.000562496 0)
(1.02524 -0.000525689 0)
(1.02496 -0.00065431 0)
(1.02505 -0.000605249 0)
(1.02481 -0.000767879 -6.00475e-28)
(1.02488 -0.000709214 0)
(1.02469 -0.000886066 0)
(1.02475 -0.000827837 0)
(1.02454 -0.000980598 0)
(1.02462 -0.000938399 0)
(1.0243 -0.00104089 0)
(1.02443 -0.00101354 0)
(1.02392 -0.00108598 0)
(1.02412 -0.00106354 0)
(1.02344 -0.00113493 3.04923e-24)
(1.02369 -0.0011096 0)
(1.02291 -0.00119272 0)
(1.02318 -0.00116209 0)
(1.02236 -0.00128054 0)
(1.02264 -0.00123076 0)
(1.02182 -0.00142318 -3.27961e-24)
(1.02209 -0.00134506 0)
(1.02128 -0.00160544 3.35778e-24)
(1.02155 -0.00151139 0)
(1.02069 -0.0018095 -3.43726e-24)
(1.02099 -0.0017044 0)
(1.02001 -0.00204879 4.53993e-22)
(1.02036 -0.00192341 -8.94644e-22)
(1.01921 -0.00231516 -4.59952e-22)
(1.01962 -0.00217872 9.34744e-22)
(1.01865 -0.00203742 2.19847e-23)
(1.01877 -0.00244776 9.51572e-22)
(1.01929 0.000315108 -8.43967e-22)
(1.01931 -0.000603515 0)
(1.01893 0.00090282 -8.1953e-21)
(1.01893 -0.00105285 0)
(1.02612 7.09824e-05 -1.23043e-22)
(1.02615 6.46414e-05 9.0123e-23)
(1.02619 -0.000140088 -4.68884e-22)
(1.02619 -0.000177555 -5.31563e-22)
(1.01834 0.00115763 -8.07559e-21)
(1.01855 -0.00159297 -1.91808e-21)
(1.01813 0.00184464 0)
(1.01899 0.00202659 -2.24133e-21)
(1.01818 -0.00213904 -9.41643e-22)
(1.01831 -0.00259376 1.45053e-21)
(1.01856 0.00229195 4.49421e-21)
(1.01928 -0.000153762 0)
(1.01976 0.00186691 0)
(1.01938 0.00194406 -1.98537e-21)
(1.02052 0.00171269 0)
(1.02014 0.00178996 0)
(1.02124 0.0015562 0)
(1.02089 0.00163216 4.37061e-22)
(1.0219 0.00148403 0)
(1.02158 0.00150714 0)
(1.02246 0.00143797 0)
(1.0222 0.00146977 0)
(1.02282 0.00121427 0)
(1.02265 0.0013581 0)
(1.02316 0.000784306 -1.54432e-24)
(1.02297 0.00101423 0)
(1.02369 0.00038105 0)
(1.0234 0.000561297 0)
(1.0243 0.000239495 0)
(1.024 0.000270253 0)
(1.02475 0.000374843 0)
(1.02456 0.000281409 0)
(1.02496 0.000602908 -3.14847e-28)
(1.02488 0.000491226 0)
(1.025 0.000736288 2.9562e-28)
(1.02499 0.000688494 0)
(1.02502 0.000721783 0)
(1.02501 0.000745256 0)
(1.02511 0.000614487 2.73297e-28)
(1.02506 0.000674982 0)
(1.02525 0.000486274 0)
(1.02517 0.000549329 0)
(1.02543 0.000380498 0)
(1.02534 0.000429517 0)
(1.0256 0.000303652 0)
(1.02551 0.00033895 0)
(1.02575 0.000245261 0)
(1.02568 0.000272907 0)
(1.02588 0.000195342 0)
(1.02582 0.000219499 0)
(1.02599 0.000154651 0)
(1.02594 0.000173081 0)
(1.02606 0.000105933 1.31185e-22)
(1.02603 0.000131322 1.34403e-22)
(1.0261 8.59284e-05 -2.51276e-22)
(1.02617 -5.19109e-05 -2.3992e-22)
(1.02617 -7.18257e-06 0)
(1.02617 -2.10143e-05 -2.42623e-22)
(1.0262 -7.47133e-05 0)
(1.02619 -6.44755e-05 2.44887e-22)
(1.0262 -0.000112838 3.65436e-22)
(1.0262 -8.80988e-05 -1.23488e-22)
(1.02619 -0.000116573 -7.18722e-22)
(1.02611 -0.000266028 1.2635e-22)
(1.02617 -0.00021829 4.68052e-22)
(1.02614 -0.000252992 0)
(1.02604 -0.000319628 -2.6222e-22)
(1.02608 -0.000294953 2.63107e-22)
(1.02595 -0.000362566 0)
(1.026 -0.000343193 0)
(1.02584 -0.000411767 -5.74548e-28)
(1.0259 -0.000387023 0)
(1.0257 -0.000468239 0)
(1.02577 -0.000439722 0)
(1.02555 -0.000526721 0)
(1.02563 -0.000497385 0)
(1.02537 -0.00058906 0)
(1.02546 -0.000557087 0)
(1.02518 -0.000659833 0)
(1.02527 -0.000623235 0)
(1.02498 -0.000742095 2.60347e-24)
(1.02508 -0.000699362 0)
(1.02481 -0.000837517 -2.67693e-24)
(1.02489 -0.000788238 0)
(1.02467 -0.000945343 0)
(1.02474 -0.000890045 0)
(1.02453 -0.00105987 0)
(1.0246 -0.00100234 0)
(1.02434 -0.00117591 0)
(1.02445 -0.00111782 0)
(1.02404 -0.00128975 0)
(1.0242 -0.00123352 0)
(1.02361 -0.00139111 0)
(1.02384 -0.00134281 0)
(1.02308 -0.00147454 0)
(1.02336 -0.00143437 0)
(1.02251 -0.00156477 -3.19989e-24)
(1.0228 -0.00151617 0)
(1.02192 -0.00169994 3.27714e-24)
(1.02221 -0.00162534 0)
(1.02135 -0.0018883 -3.35509e-24)
(1.02164 -0.00178834 0)
(1.02076 -0.00211621 0)
(1.02106 -0.00199811 0)
(1.0201 -0.00237512 0)
(1.02044 -0.00224162 0)
(1.01934 -0.00269085 3.6399e-24)
(1.01974 -0.00252144 4.59755e-22)
(1.01847 -0.00304236 -2.42722e-21)
(1.01892 -0.00286562 0)
(1.01782 -0.00274594 -1.43604e-21)
(1.01799 -0.00322887 -2.23886e-23)
(1.01889 0.000345837 2.64268e-21)
(1.01889 -0.000629963 0)
(1.02618 4.12939e-05 -4.67088e-22)
(1.0262 -0.000193664 -9.0296e-22)
(1.01842 0.000757279 -1.4114e-21)
(1.01802 0.0012831 2.24174e-23)
(1.01786 0.00120354 4.12668e-21)
(1.01848 -0.00110997 0)
(1.01808 -0.00165406 4.84696e-22)
(1.01813 0.00248041 -4.13736e-21)
(1.01761 0.0022811 3.59378e-21)
(1.0176 0.00162109 -3.54757e-21)
(1.01768 -0.00225063 -1.45737e-21)
(1.0173 -0.00290127 9.789e-22)
(1.01748 -0.00342734 9.54486e-22)
(1.01888 -0.000168635 0)
(1.01907 0.00268034 1.24803e-22)
(1.01816 0.00299866 -2.19017e-23)
(1.01864 0.00287795 9.67739e-22)
(1.01987 0.00234934 9.53017e-22)
(1.01947 0.00250076 -9.58455e-22)
(1.02067 0.00209682 1.73801e-24)
(1.02027 0.00222353 0)
(1.02139 0.00189963 0)
(1.02104 0.00198532 0)
(1.02201 0.00178907 0)
(1.02172 0.00183845 0)
(1.02246 0.0016418 0)
(1.02226 0.0017299 0)
(1.02274 0.00135555 1.58134e-24)
(1.02261 0.00151527 0)
(1.02308 0.00100451 0)
(1.02288 0.0011792 0)
(1.02367 0.000715896 0)
(1.02334 0.000846638 0)
(1.0244 0.000564141 0)
(1.02403 0.000620188 0)
(1.02497 0.000565667 0)
(1.02472 0.000547965 0)
(1.02524 0.000654235 -1.3948e-24)
(1.02515 0.000605885 0)
(1.02528 0.000724652 3.49661e-28)
(1.02528 0.000697113 0)
(1.02525 0.000720084 0)
(1.02527 0.000732156 0)
(1.02527 0.000651716 2.57067e-24)
(1.02526 0.000691768 0)
(1.02537 0.000555439 0)
(1.02531 0.000604816 0)
(1.0255 0.000461251 0)
(1.02543 0.00050696 0)
(1.02565 0.000380631 0)
(1.02558 0.000419147 0)
(1.02579 0.000312577 0)
(1.02572 0.000345347 0)
(1.02591 0.000252853 0)
(1.02585 0.000281969 0)
(1.02601 0.000199912 2.14418e-24)
(1.02596 0.000226156 0)
(1.02609 0.000153777 -1.31754e-22)
(1.02605 0.00017801 0)
(1.02614 0.000101453 1.25003e-22)
(1.02612 0.000128578 0)
(1.0262 5.97374e-05 1.18983e-22)
(1.02617 7.66348e-05 -1.21811e-22)
(1.0262 -1.28418e-05 2.34781e-22)
(1.02622 3.65471e-05 0)
(1.0262 2.59185e-05 3.49939e-22)
(1.02621 -4.59156e-05 0)
(1.0262 -2.8327e-05 0)
(1.02622 -7.29252e-05 0)
(1.02622 -5.39005e-05 0)
(1.02623 -0.000121397 0)
(1.02623 -9.33818e-05 0)
(1.02622 -0.000135323 4.77911e-22)
(1.02623 -0.000121053 1.18532e-22)
(1.02623 -0.000178771 1.17414e-22)
(1.02622 -0.000162893 9.358e-22)
(1.02619 -0.000247881 6.11927e-22)
(1.02623 -0.000203563 1.16914e-22)
(1.02621 -0.000221179 -2.37892e-22)
(1.02613 -0.00031217 1.25898e-22)
(1.02616 -0.000277849 -7.54537e-22)
(1.02607 -0.000369429 -5.88784e-28)
(1.0261 -0.000343245 0)
(1.02597 -0.000415907 0)
(1.02602 -0.000390777 0)
(1.02586 -0.000472374 -6.67872e-28)
(1.02592 -0.000442836 0)
(1.02573 -0.000537582 0)
(1.0258 -0.000504267 0)
(1.02559 -0.000607142 0)
(1.02566 -0.000572002 0)
(1.02542 -0.000680622 0)
(1.02551 -0.000643327 0)
(1.02523 -0.000758375 0)
(1.02533 -0.000719077 0)
(1.02504 -0.000839105 -5.20615e-24)
(1.02514 -0.000798432 0)
(1.02484 -0.000923677 0)
(1.02494 -0.000880691 0)
(1.02466 -0.00101889 0)
(1.02475 -0.000969317 0)
(1.0245 -0.00113558 0)
(1.02458 -0.00107387 0)
(1.02431 -0.00128216 0)
(1.02441 -0.00120513 0)
(1.02407 -0.00145102 -2.97097e-24)
(1.0242 -0.00136517 0)
(1.02373 -0.00161467 0)
(1.02391 -0.00153559 0)
(1.02327 -0.00174854 0)
(1.02351 -0.0016857 0)
(1.02271 -0.00186358 3.19989e-24)
(1.023 -0.00180619 0)
(1.02211 -0.00199967 -1.55299e-27)
(1.02241 -0.00192655 0)
(1.02148 -0.00218686 6.70851e-24)
(1.0218 -0.00208612 0)
(1.02086 -0.0024301 0)
(1.02117 -0.00230202 0)
(1.0202 -0.00271784 0)
(1.02053 -0.00256931 0)
(1.01947 -0.00303919 -2.66619e-27)
(1.01984 -0.0028749 0)
(1.01864 -0.0034093 0)
(1.01907 -0.00321595 0)
(1.0177 -0.00386735 -1.45587e-21)
(1.01818 -0.0036252 0)
(1.01695 -0.00362377 -2.24901e-23)
(1.01718 -0.00411975 2.48752e-21)
(1.01844 0.000333617 0)
(1.01768 0.00306125 5.63378e-21)
(1.0179 0.000794235 9.68069e-22)
(1.02622 7.57277e-05 -1.18777e-22)
(1.02623 5.98616e-05 0)
(1.02625 -0.000167645 1.14264e-22)
(1.02626 -0.000186644 -2.26458e-22)
(1.01844 -0.00064462 0)
(1.01801 -0.00116099 0)
(1.01735 0.00142493 0)
(1.01758 -0.00173951 -4.77336e-22)
(1.01715 -0.00236959 -9.68874e-22)
(1.01676 -0.00307678 0)
(1.01639 -0.0038367 2.51444e-21)
(1.01663 -0.00437344 -2.00695e-21)
(1.01843 -0.000158815 0)
(1.01831 0.00348417 -4.66251e-25)
(1.01718 0.00319231 1.79202e-21)
(1.0173 0.00377463 -6.41012e-21)
(1.01781 0.00363142 1.85544e-21)
(1.01923 0.00314508 -6.0196e-22)
(1.01878 0.00332234 -9.5962e-22)
(1.02004 0.00278202 0)
(1.01964 0.00295724 0)
(1.02082 0.00247742 -1.73785e-24)
(1.02044 0.00262665 0)
(1.02151 0.00223076 0)
(1.02119 0.00234327 0)
(1.02204 0.00204067 0)
(1.0218 0.00213501 0)
(1.02239 0.00179365 0)
(1.02224 0.00192978 0)
(1.02265 0.00148426 -1.58134e-24)
(1.02252 0.00163917 0)
(1.02302 0.00123789 0)
(1.02281 0.00134772 0)
(1.02362 0.0010744 0)
(1.02329 0.00115066 0)
(1.02435 0.0009252 0)
(1.02398 0.000999911 0)
(1.02494 0.000798046 0)
(1.02467 0.000855479 0)
(1.02527 0.00073542 1.39399e-24)
(1.02514 0.000758021 0)
(1.02537 0.00072274 4.05077e-28)
(1.02534 0.000725905 0)
(1.02538 0.000711263 0)
(1.02538 0.000719398 0)
(1.0254 0.000672312 -3.72377e-28)
(1.02539 0.000695806 0)
(1.02548 0.000605528 0)
(1.02543 0.000641614 0)
(1.02559 0.000525715 0)
(1.02553 0.000566271 0)
(1.02571 0.000446047 0)
(1.02565 0.000485344 0)
(1.02583 0.000372449 0)
(1.02577 0.000408391 0)
(1.02594 0.000305683 0)
(1.02588 0.000338285 0)
(1.02603 0.000245836 -4.28768e-24)
(1.02599 0.000274798 0)
(1.02611 0.000194784 -2.07356e-24)
(1.02607 0.000218673 0)
(1.02617 0.000134631 2.53567e-22)
(1.02614 0.000166557 -2.57852e-22)
(1.02619 0.000102463 2.4281e-22)
(1.02622 -1.53753e-05 5.8345e-23)
(1.02624 1.79953e-05 1.4577e-23)
(1.02623 1.8729e-05 -1.76676e-22)
(1.02624 -3.78039e-05 0)
(1.02623 -2.85545e-05 0)
(1.02624 -7.40129e-05 -1.81082e-27)
(1.02624 -5.30463e-05 0)
(1.02626 -0.000123215 0)
(1.02625 -9.49656e-05 0)
(1.02625 -0.000135214 2.34093e-22)
(1.02626 -0.000126751 -2.39115e-22)
(1.02625 -0.000152851 -8.61467e-24)
(1.02621 -0.000287979 -1.33497e-26)
(1.02625 -0.000230097 -2.33421e-22)
(1.02623 -0.000259142 -5.03396e-27)
(1.02616 -0.000356225 -1.27999e-22)
(1.02619 -0.000320894 1.28217e-22)
(1.02609 -0.000410377 -2.10482e-24)
(1.02613 -0.000384374 0)
(1.026 -0.00046621 -2.17406e-24)