/*--------------------------------*- C++ -*----------------------------------*\
  =========                 |
  \\      /  F ield         | OpenFOAM: The Open Source CFD Toolbox
   \\    /   O peration     | Website:  https://openfoam.org
    \\  /    A nd           | Version:  10
     \\/     M anipulation  |
\*---------------------------------------------------------------------------*/
FoamFile
{
    format      ascii;
    class       volScalarField;
    location    "62";
    object      p;
}
// * * * * * * * * * * * * * * * * * * * * * * * * * * * * * * * * * * * * * //

dimensions      [0 2 -2 0 0 0 0];

internalField   nonuniform List<scalar> 
28942
(
-0.00378502
-0.00315854
0.00201373
0.0094797
0.0097797
9.55727e-05
0.000300777
2.80817e-05
0.00269997
0.00278791
-0.00232896
-0.00259797
-0.00298114
-0.00289858
0.000200274
0.000515689
0.00986767
0.0101376
0.00556648
0.00712719
0.00813985
0.00813153
-0.00523739
-0.00506239
-0.00359112
-0.00381472
0.0138656
0.0138147
0.00351963
0.00346243
2.1112e-05
5.67119e-05
0.00079473
0.000326542
0.00713185
0.0083376
0.0108748
0.0128333
-3.65092e-06
0.0150282
0.00908204
0.01158
0.00174165
0.00165639
0.00171637
0.000302138
0.000163871
0.000241264
0.000278549
0.000388847
0.000739792
0.00277473
0.00284566
0.00283242
0.00298765
-0.00236076
-0.00105821
-0.0033883
-0.0032339
-0.00350494
-0.00357807
-0.00357888
-0.0034769
-0.000124081
-0.00182492
-0.000370091
0.000961244
0.00941051
0.00891405
-0.00337616
-0.00358614
-0.00332119
0.00897569
0.00882746
0.00911949
-0.00148803
-0.00110037
-0.000761308
0.00234771
0.00274709
0.00183815
0.000743119
-0.00632605
-0.00755446
0.00107074
0.00379646
0.00483811
0.00562581
0.00401009
0.00413341
0.00610041
0.00547926
-0.00140922
-0.00170003
-0.00197814
-0.00181682
-0.00164279
0.00532226
0.0066133
-0.00786573
0.011277
0.0104779
0.00577188
0.00936887
0.000888905
0.000796116
0.000706338
0.0054604
0.0056531
0.00564719
-0.00323177
-0.00315242
-0.00314153
-0.00262469
-0.00274744
0.0158201
0.0138147
0.0132565
0.0148877
0.00163101
0.00471115
0.00340921
0.00505887
0.00473574
0.0154922
0.0157877
0.0144472
0.00590053
0.00697964
0.000200771
0.000303847
0.000116587
0.0104861
0.0109892
0.00765935
0.00731149
0.0127685
0.00668529
0.00797604
0.00903962
-0.00191706
-0.00242602
0.00734503
0.0016598
0.00174757
-0.00118433
-0.00144735
-0.000988814
-0.00252533
0.0065818
0.00570901
0.00370189
0.000276382
0.000219427
8.89445e-05
0.00022163
0.0075184
0.00678253
-0.00187357
-0.00199072
-0.00188602
-0.00415078
-0.00369538
6.96518e-05
-0.00286435
-0.000511248
0.00838202
0.00849097
0.00958501
0.00912036
0.00769814
0.0030705
0.00298798
0.00324034
0.0031162
0.00503031
0.00480813
0.00514315
0.00536365
0.00530154
0.00537236
0.00558347
0.00613741
0.00583149
0.00542937
0.00575949
0.00646519
0.00721891
0.00751093
-0.000587918
-0.000568752
-0.00248288
0.000225438
6.75832e-05
-0.00200276
-0.00209136
0.000304198
0.000367051
0.000329613
0.000260609
0.00185202
0.00180701
0.00178491
-0.00292967
-0.00311685
-0.00278144
-0.0043495
-0.0048317
-0.00414315
-0.00473054
-0.00649624
-0.00519445
0.0160139
0.0167241
0.0164916
0.000923833
0.00106877
0.000956979
0.0103387
0.00991078
0.00999109
0.00149974
0.00148199
0.00151735
0.0014638
0.00144602
0.00142773
0.0014286
0.00140937
0.00141012
0.00144663
0.00146432
0.00148204
0.0014999
0.00151787
0.00139133
0.0013912
0.00153429
0.00153458
0.00155088
0.00137289
0.00137254
0.00155127
0.00135393
0.00133499
0.00135405
0.00133538
0.00156882
0.00156903
0.00131611
0.00131654
0.00158508
0.00158552
0.00129718
0.00129767
0.00160134
0.00160175
0.00127826
0.00127871
0.00161737
0.00161783
0.00125928
0.00125978
0.00163319
0.00163362
0.00124033
0.0012408
0.00164882
0.00164927
0.00122135
0.00122185
0.0016644
0.00166478
0.00120244
0.0012027
0.0016792
0.00167959
0.0011835
0.00118344
0.00169485
0.00169499
0.00116442
0.00116397
0.00170907
0.00170902
0.0011446
0.00114467
0.00172369
0.00172348
0.00112484
0.00112537
0.00170817
0.00172278
0.00173819
0.00173778
0.00167735
0.00169339
0.00164664
0.00166249
0.00161586
0.00163147
0.00158352
0.00159988
0.00154978
0.00156681
0.00151593
0.00153409
0.00148144
0.00149896
0.00144514
0.00146275
0.00140805
0.00142671
0.00137117
0.00138976
0.00133382
0.00135257
0.00129616
0.00131504
0.00125835
0.0012773
0.00122051
0.00123945
0.00118274
0.00120163
0.00114419
0.00116379
0.00112476
0.00110536
0.00110564
0.001164
0.00112519
0.00114455
0.00120252
0.00118313
0.00124049
0.00122159
0.00127836
0.00125946
0.00131615
0.0012973
0.00135372
0.001335
0.00139074
0.00137239
0.00142781
0.00140945
0.00146424
0.00144622
0.00149903
0.0014816
0.00153427
0.00151749
0.00156803
0.00155089
0.00160089
0.00158466
0.00163256
0.00161692
0.00166328
0.00164797
0.0016933
0.00167809
0.0017216
0.00170776
0.00173591
0.00173785
0.00110514
0.00110572
0.00175133
0.0017491
0.00175252
0.00175219
0.00170581
0.00173587
0.00172071
0.00167503
0.0016908
0.00164483
0.00165975
0.00161385
0.00162953
0.0015816
0.00159788
0.00154834
0.00156508
0.00151387
0.00153139
0.00147896
0.00149717
0.00144387
0.00146093
0.00140672
0.00142531
0.00136979
0.00138832
0.00133253
0.00135122
0.00129498
0.00131379
0.00125727
0.00127614
0.00121952
0.0012384
0.00118187
0.00120068
0.00114362
0.00116279
0.00108567
0.00108588
0.00110464
0.00112417
0.00112488
0.00110569
0.0010863
0.00108603
0.00116384
0.00114427
0.00120188
0.00118264
0.00123964
0.00122076
0.00127744
0.00125856
0.00131514
0.00129632
0.00135263
0.00133393
0.00138975
0.00137129
0.00142644
0.00140814
0.00146273
0.00144457
0.00149783
0.00148038
0.00153242
0.00151566
0.00156625
0.00154953
0.00159897
0.00158277
0.00163059
0.00161494
0.00166108
0.001646
0.00169042
0.00167593
0.00171864
0.00170464
0.00174525
0.00173244
0.00175058
0.00176253
0.00175874
0.00176415
0.00108552
0.00108614
0.00176544
0.0017636
0.00177554
0.00177223
0.00176555
0.00110449
0.00108509
0.00106687
0.0010668
0.00176077
0.00177855
0.00179883
0.00178156
0.00173221
0.00174689
0.00170218
0.00171705
0.00167194
0.00168753
0.00164185
0.00165662
0.001611
0.00162663
0.00157889
0.00159508
0.00154574
0.00156245
0.00151162
0.00152876
0.00147672
0.00149429
0.00144111
0.00145898
0.00140482
0.00142309
0.00136799
0.00138646
0.00133083
0.00134945
0.00129339
0.00131214
0.00125581
0.00127462
0.00121818
0.001237
0.00118063
0.00119939
0.00114272
0.00116163
0.00112351
0.00106666
0.00106628
0.00106649
0.00106684
0.00112456
0.001086
0.00110545
0.00116313
0.00114385
0.00120072
0.00118179
0.00123838
0.00121955
0.00127605
0.00125723
0.00131362
0.00129486
0.00135096
0.00133233
0.00138795
0.00136952
0.0014245
0.00140628
0.00146039
0.00144256
0.00149569
0.00147816
0.00153004
0.00151299
0.0015636
0.00154698
0.00159613
0.00158001
0.00162759
0.00161201
0.00165789
0.0016429
0.0016869
0.0016726
0.0017146
0.00170085
0.00174109
0.00172798
0.00176719
0.00175362
0.00178397
0.0017794
0.00177862
0.00177697
0.00106584
0.00106681
0.00178978
0.0017876
0.00178576
0.00179122
0.00179514
0.00172194
0.00179911
0.00177894
0.00178139
0.00177778
0.00175833
0.0017744
0.00172659
0.00174234
0.00169743
0.00171163
0.0016679
0.00168324
0.00163811
0.00165304
0.00160726
0.00162285
0.0015753
0.00159142
0.00154233
0.00155895
0.00150844
0.00152549
0.00147373
0.00149117
0.00143824
0.00145609
0.00140219
0.00142031
0.00136557
0.00138393
0.00132858
0.00134712
0.00129132
0.00130998
0.0012539
0.00127263
0.00121643
0.00123517
0.00117901
0.00119771
0.00114148
0.00116018
0.00110371
0.00112256
0.00106549
0.00108438
0.00104736
0.00104633
0.00104688
0.00104779
0.00104756
0.00104796
0.0010479
0.00104792
0.00104795
0.00108556
0.00104757
0.00106687
0.00112369
0.00110473
0.00116177
0.00114292
0.00119919
0.00118049
0.00123671
0.00121795
0.00127422
0.00125548
0.00131161
0.00129294
0.00134877
0.00133023
0.00138556
0.00136723
0.00142191
0.00140381
0.00145761
0.00143987
0.00149266
0.00147524
0.00152683
0.00150986
0.00156014
0.00154362
0.00159245
0.00157644
0.00162367
0.00160821
0.00165373
0.00163887
0.00168251
0.00166831
0.00170982
0.00169635
0.00173576
0.001723
0.00176097
0.00174827
0.00178523
0.00177235
0.00180222
0.00179627
0.00179035
0.00178984
0.00180244
0.00179718
0.00106488
0.00104607
0.00102895
0.0010287
0.00179613
0.00180635
0.00182977
0.00175085
0.00181094
0.0018061
0.00179015
0.00179062
0.00176807
0.00176475
0.00175162
0.00176425
0.00172009
0.00173575
0.00169221
0.00170619
0.00166322
0.00167795
0.00163342
0.00164841
0.00160269
0.0016182
0.00157093
0.00158695
0.00153818
0.00155468
0.00150452
0.00152147
0.00147004
0.00148738
0.00143481
0.00145252
0.00139897
0.00141698
0.0013626
0.00138085
0.00132583
0.00134426
0.00128879
0.00130734
0.00125157
0.0012702
0.00121428
0.00123293
0.00117703
0.00119565
0.00113993
0.00115847
0.00110235
0.00112112
0.00108353
0.00102859
0.00102754
0.00102827
0.00102931
0.00102908
0.00102933
0.00102944
0.00102907
0.00108487
0.0010467
0.00106647
0.00112261
0.00110373
0.00116002
0.00114151
0.00119729
0.00117866
0.00123463
0.00121597
0.00127195
0.00125331
0.00130913
0.00129057
0.00134606
0.00132764
0.00138263
0.00136441
0.00141872
0.00140075
0.00145419
0.00143655
0.00148896
0.00147168
0.00152289
0.00150604
0.00155593
0.00153954
0.00158797
0.00157209
0.00161892
0.0016036
0.0016487
0.00163398
0.00167722
0.00166314
0.00170432
0.00169097
0.00172991
0.00171734
0.00175434
0.00174243
0.0017771
0.00176455
0.00179956
0.00178976
0.00181485
0.00180785
0.00180261
0.0017999
0.00102671
0.001028
0.00180495
0.00176312
0.00178921
0.00180842
0.0018146
0.00182896
0.00181713
0.00182318
0.00181991
0.00182339
0.00181852
0.00180115
0.00176349
0.00181941
0.00179511
0.00175728
0.00175715
0.00174185
0.00175476
0.00171369
0.00172763
0.00168606
0.00169999
0.00165741
0.00167189
0.00162784
0.00164274
0.00159733
0.00161272
0.00156582
0.00158171
0.00153333
0.0015497
0.00149994
0.00151675
0.00146573
0.00148294
0.00143079
0.00144835
0.00139522
0.00141309
0.00135912
0.00137723
0.00132261
0.00134092
0.00128582
0.00130425
0.00124883
0.00126735
0.00121177
0.00123031
0.00117473
0.00119325
0.00113781
0.00115626
0.00110085
0.00111945
0.00106326
0.0010821
0.00102574
0.00104461
0.00100898
0.00100684
0.00100805
0.00101045
0.0010097
0.00101123
0.00101094
0.0010112
0.0010113
0.00101047
0.00101086
0.00100949
0.00101002
0.00104607
0.00100884
0.00102734
0.00108357
0.00106492
0.0011211
0.00110241
0.00115796
0.00113952
0.00119504
0.0011765
0.00123217
0.00121361
0.00126925
0.00125073
0.00130619
0.00128776
0.00134287
0.00132458
0.00137917
0.00136108
0.00141497
0.00139715
0.00145016
0.00143266
0.00148463
0.0014675
0.00151827
0.00150157
0.001551
0.00153477
0.00158274
0.00156702
0.00161339
0.00159822
0.00164287
0.0016283
0.0016711
0.00165717
0.00169796
0.00168472
0.00172336
0.00171087
0.00174724
0.00173559
0.00176973
0.00175839
0.00179041
0.0017809
0.00181
0.0017985
0.00182842
0.00182093
0.00180881
0.00181297
0.00180698
0.00102437
0.00100605
0.000990943
0.000990136
0.00180949
0.00181752
0.00181304
0.00182328
0.00182777
0.00183413
0.00183654
0.00182983
0.00180967
0.00180616
0.00181917
0.00181022
0.00180967
0.00176544
0.00178725
0.00174867
0.00175346
0.00173236
0.0017443
0.00170604
0.00171921
0.00167896
0.00169267
0.00165073
0.001665
0.00162148
0.00163624
0.00159126
0.00160651
0.00156003
0.00157578
0.00152784
0.00154406
0.00149476
0.00151142
0.00146086
0.00147791
0.00142623
0.00144364
0.00139096
0.00140868
0.00135516
0.00137313
0.00131895
0.00133711
0.00128243
0.00130073
0.00124572
0.0012641
0.00120891
0.00122732
0.0011721
0.0011905
0.00113539
0.00115373
0.0010989
0.00111713
0.00106164
0.00108035
0.00104289
0.000990773
0.000988437
0.000989908
0.000992492
0.000991716
0.000993262
0.000992974
0.000993216
0.000993335
0.000992233
0.000992853
0.000991618
0.00104504
0.00100779
0.00102638
0.00108207
0.00106358
0.0011189
0.00110062
0.00115559
0.00113722
0.00119245
0.00117402
0.00122933
0.0012109
0.00126616
0.00124777
0.00130282
0.00128453
0.00133921
0.00132107
0.00137521
0.00135728
0.0014107
0.00139303
0.00144557
0.00142823
0.00147971
0.00146275
0.00151302
0.00149649
0.00154543
0.00152936
0.00157683
0.00156128
0.00160715
0.00159215
0.00163632
0.00162191
0.00166424
0.00165046
0.00169082
0.00167772
0.00171599
0.0017036
0.00173965
0.00172806
0.00176181
0.00175091
0.00178178
0.00177224
0.00180162
0.00179066
0.00182014
0.00181006
0.00183874
0.00182726
0.00183768
0.00182939
0.00181411
0.000987545
0.000989258
0.00181267
0.00181845
0.00182573
0.00181928
0.00182662
0.00183446
0.00183315
0.00183868
0.00184188
0.00184414
0.00184573
0.0018382
0.00181754
0.00179796
0.001829
0.00182554
0.00180395
0.00179298
0.00180102
0.00176225
0.00177592
0.00174104
0.0017497
0.00172275
0.00173392
0.00169764
0.00171037
0.00167113
0.00168457
0.00164333
0.00165739
0.00161444
0.00162903
0.00158454
0.00159963
0.00155363
0.00156922
0.00152177
0.00153782
0.00148902
0.00150551
0.00145545
0.00147234
0.00142116
0.0014384
0.00138623
0.00140378
0.00135076
0.00136856
0.00131487
0.00133287
0.00127866
0.00129681
0.00124224
0.00126047
0.0012057
0.00122398
0.00116916
0.00118743
0.00113269
0.00115092
0.00109639
0.00111451
0.00106001
0.00107835
0.00102305
0.00104141
0.000986367
0.00100494
0.000970567
0.000968003
0.000969416
0.000972977
0.000971739
0.000974621
0.000973928
0.000975394
0.000975107
0.00097533
0.000975467
0.000974426
0.000974984
0.000972956
0.000973538
0.000970986
0.00097203
0.0010066
0.000969973
0.000988308
0.0010437
0.00102485
0.00108015
0.00106212
0.00111643
0.00109827
0.00115292
0.00113466
0.00118952
0.00117122
0.00122614
0.00120784
0.00126268
0.00124444
0.00129905
0.0012809
0.00133512
0.00131714
0.00137079
0.00135302
0.00140594
0.00138845
0.00144046
0.0014233
0.00147425
0.00145747
0.00150721
0.00149086
0.00153926
0.00152337
0.00157031
0.00155494
0.00160029
0.00158546
0.00162912
0.00161488
0.00165672
0.0016431
0.00168301
0.00167005
0.00170791
0.00169566
0.00173135
0.00171985
0.00175327
0.00174252
0.00177323
0.00176357
0.00179207
0.00178276
0.00180953
0.00180013
0.00182767
0.00181958
0.00184115
0.00183829
0.00184165
0.0018304
0.00182413
0.00182788
0.00182964
0.0018384
0.0018334
0.00183274
0.00183604
0.000985053
0.000966792
0.000952844
0.0009519
0.00184382
0.00184233
0.00184697
0.00184899
0.00185091
0.00184964
0.00183209
0.0018279
0.00182969
0.0018474
0.00184261
0.0018443
0.0018272
0.00181895
0.00181641
0.00178837
0.00179874
0.00177995
0.00178855
0.00175431
0.00176592
0.00173366
0.00174358
0.00171306
0.00172406
0.00168873
0.00170116
0.0016627
0.00167592
0.00163533
0.00164919
0.00160681
0.00162122
0.00157724
0.00159217
0.00154668
0.0015621
0.00151517
0.00153105
0.00148277
0.00149909
0.00144957
0.00146628
0.00141563
0.0014327
0.00138106
0.00139843
0.00134595
0.00136358
0.0013104
0.00132823
0.00127452
0.0012925
0.00123841
0.00125649
0.00120218
0.00122031
0.00116592
0.00118405
0.00112971
0.00114781
0.00109365
0.00111166
0.00105784
0.00107572
0.00102131
0.00103965
0.00100322
0.000952934
0.000950091
0.000951708
0.000955328
0.000954137
0.00095687
0.000956203
0.000957626
0.000957349
0.000957563
0.000957698
0.000956712
0.000957229
0.00095507
0.000955938
0.000954019
0.00100519
0.00096886
0.000987044
0.00104189
0.00102347
0.00107766
0.00105976
0.00111372
0.00109567
0.00114996
0.00113183
0.00118628
0.00116812
0.00122261
0.00120446
0.00125885
0.00124076
0.00129489
0.00127691
0.00133063
0.00131282
0.00136594
0.00134836
0.00140073
0.00138342
0.00143489
0.00141791
0.00146831
0.00145171
0.0015009
0.00148473
0.00153257
0.00151687
0.00156326
0.00154806
0.00159288
0.00157823
0.00162136
0.00160729
0.00164864
0.00163518
0.00167463
0.00166182
0.00169926
0.00168714
0.00172246
0.00171107
0.00174417
0.00173353
0.00176416
0.00175442
0.00178266
0.00177364
0.00179988
0.00179135
0.00181484
0.0018082
0.00183242
0.00181939
0.00183993
0.00184387
0.00185551
0.00184859
0.00184095
0.00182951
0.00184634
0.00184356
0.00183533
0.00183743
0.00094892
0.000950778
0.00185166
0.0018438
0.00184514
0.00185019
0.00185089
0.00185459
0.0018568
0.00185518
0.0018523
0.00183469
0.00182438
0.00182592
0.00182925
0.00183697
0.00184725
0.00183768
0.00184893
0.00185682
0.00185388
0.00185322
0.00183727
0.00182123
0.00181682
0.00180356
0.00180666
0.00178134
0.00179258
0.00176736
0.00177549
0.00174569
0.00175664
0.00172481
0.00173514
0.00170336
0.00171444
0.00167942
0.00169165
0.0016538
0.00166681
0.00162682
0.00164048
0.00159867
0.00161289
0.00156946
0.0015842
0.00153925
0.00155449
0.0015081
0.0015238
0.00147608
0.00149221
0.00144325
0.00145977
0.00140969
0.00142657
0.0013755
0.00139268
0.00134076
0.0013582
0.00130557
0.00132322
0.00127004
0.00128785
0.00123427
0.00125218
0.00119835
0.00121633
0.00116239
0.00118038
0.00112648
0.00114443
0.00109067
0.00110856
0.00105508
0.00107285
0.00101942
0.00103739
0.000983664
0.00100139
0.000947718
0.000965489
0.000932434
0.000929984
0.000931178
0.000935483
0.000933939
0.000937744
0.000936724
0.000939235
0.000938582
0.000939963
0.000939697
0.000939903
0.000940032
0.000939067
0.000939577
0.000937342
0.000938333
0.000935157
0.000936221
0.000932913
0.000934019
0.000967321
0.000931296
0.000949663
0.00100369
0.00098533
0.00103939
0.00102173
0.00107494
0.00105712
0.00111076
0.00109284
0.00114672
0.00112873
0.00118275
0.00116474
0.00121877
0.00120078
0.00125468
0.00123676
0.00129038
0.00127258
0.00132576
0.00130813
0.00136071
0.00134331
0.00139512
0.001378
0.00142889
0.00141211
0.00146192
0.00144552
0.00149413
0.00147815
0.00152542
0.00150991
0.00155573
0.00154073
0.00158499
0.00157052
0.00161313
0.00159923
0.00164007
0.00162678
0.00166576
0.0016531
0.00169013
0.00167814
0.00171309
0.00170182
0.0017346
0.00172406
0.00175451
0.00174479
0.00177292
0.00176394
0.00178984
0.00178161
0.00180427
0.00179755
0.00181766
0.00181108
0.00181772
0.00185633
0.00186024
0.00184838
0.00184009
0.00184587
0.00184669
0.00184738
0.0018519
0.00185372
0.000946047
0.000928619
0.000915203
0.000913592
0.00185936
0.00185881
0.00186194
0.00186278
0.00186188
0.0018612
0.00183319
0.00182358
0.00183711
0.00184125
0.00185106
0.00184852
0.00185985
0.00186045
0.00185248
0.00184079
0.00185103
0.00184692
0.00181726
0.0018049
0.00180576
0.00181259
0.00178914
0.00179722
0.00177284
0.00178149
0.00175637
0.00176499
0.00173609
0.00174651
0.0017152
0.00172567
0.00169346
0.00170459
0.00166977
0.00168185
0.00164449
0.00165733
0.00161788
0.00163136
0.00159009
0.00160414
0.00156124
0.00157581
0.0015314
0.00154646
0.00150063
0.00151614
0.00146899
0.00148493
0.00143655
0.00145287
0.00140338
0.00142006
0.00136957
0.00138656
0.00133522
0.00135247
0.00130041
0.00131787
0.00126524
0.00128287
0.00122982
0.00124756
0.00119424
0.00121205
0.0011586
0.00117643
0.00112299
0.00114079
0.00108747
0.00110522
0.00105212
0.00106977
0.00101704
0.00103456
0.000981576
0.00099919
0.000963685
0.00091499
0.000912296
0.000913823
0.000918152
0.000916673
0.000920272
0.000919299
0.00092171
0.000921082
0.000922406
0.000922152
0.000922353
0.000922474
0.000921552
0.000922044
0.000920052
0.000920882
0.000917634
0.000918924
0.000916214
0.000965629
0.000929921
0.000948189
0.00100167
0.000983564
0.00103668
0.00101916
0.00107201
0.00105432
0.00110755
0.00108977
0.00114322
0.00112538
0.00117894
0.00116109
0.00121464
0.00119681
0.00125021
0.00123245
0.00128555
0.00126792
0.00132055
0.00130311
0.00135512
0.00133791
0.00138914
0.00137222
0.00142252
0.00140593
0.00145515
0.00143895
0.00148696
0.00147119
0.00151787
0.00150256
0.00154781
0.00153299
0.0015767
0.00156241
0.00160449
0.00159076
0.00163111
0.00161797
0.0016565
0.00164399
0.0016806
0.00166874
0.00170334
0.00169217
0.00172465
0.0017142
0.00174444
0.00173476
0.00176271
0.00175379
0.00177939
0.00177129
0.00179392
0.00178701
0.00180617
0.00180054
0.00181551
0.00181048
0.00182956
0.00182396
0.0018428
0.00183434
0.00182499
0.00186255
0.00185799
0.00185443
0.00185532
0.000910763
0.000912303
0.00186243
0.00186007
0.00186173
0.00186737
0.00186614
0.00186848
0.00186885
0.00186771
0.00186447
0.00183881
0.0018257
0.00182324
0.00182312
0.00182057
0.0018364
0.00183607
0.00185323
0.00184943
0.00186169
0.00185751
0.0018631
0.00185878
0.00185161
0.00184335
0.0018556
0.00181832
0.00182623
0.00180361
0.00179765
0.00179157
0.00180141
0.00177845
0.00178528
0.00176261
0.00177084
0.00174553
0.00175435
0.00172589
0.00173596
0.00170514
0.00171562
0.0016833
0.00169444
0.00165982
0.00167178
0.00163486
0.00164753
0.00160859
0.00162189
0.00158116
0.00159503
0.00155267
0.00156706
0.0015232
0.00153807
0.0014928
0.00150813
0.00146155
0.00147729
0.0014295
0.00144563
0.00139673
0.00141322
0.00136333
0.00138012
0.00132936
0.00134642
0.00129494
0.00131221
0.00126015
0.00127759
0.0012251
0.00124266
0.00118987
0.00120751
0.00115456
0.00117223
0.00111926
0.00113691
0.00108405
0.00110165
0.00104898
0.00106649
0.00101413
0.00103152
0.000979563
0.00099681
0.000944017
0.000961685
0.000909053
0.00092666
0.000894866
0.000891197
0.000893264
0.000898024
0.000896375
0.000900874
0.000899618
0.000902916
0.00090197
0.000904292
0.000903693
0.000904958
0.000904714
0.000904912
0.000905024
0.000904156
0.000904622
0.000902724
0.000903519
0.000900638
0.000901749
0.000897715
0.000899165
0.000894919
0.000896281
0.000928488
0.000893697
0.000911194
0.000963612
0.00094621
0.000999028
0.000981414
0.0010338
0.00101637
0.00106887
0.00105131
0.00110411
0.00108648
0.00113947
0.00112179
0.00117487
0.00115718
0.00121023
0.00119257
0.00124544
0.00122787
0.00128041
0.00126297
0.00131503
0.00129778
0.00134921
0.0013322
0.00138283
0.00136611
0.00141581
0.00139942
0.00144804
0.00143204
0.00147946
0.00146388
0.00150998
0.00149486
0.00153954
0.00152491
0.00156807
0.00155396
0.00159552
0.00158196
0.00162182
0.00160884
0.00164692
0.00163455
0.00167076
0.00165903
0.00169328
0.00168222
0.0017144
0.00170405
0.00173405
0.00172444
0.00175218
0.00174334
0.00176868
0.00176068
0.00178321
0.00177625
0.00179557
0.00178975
0.00180593
0.00180077
0.0018151
0.0018117
0.00181324
0.00187031
0.00186941
0.00183826
0.00183079
0.00186251
0.00186339
0.00186674
0.00186771
0.00186913
0.000907225
0.000889836
0.000877687
0.000876496
0.0018748
0.00187281
0.00187448
0.00187431
0.00187234
0.00186862
0.00182079
0.00181122
0.00180912
0.00182141
0.00183531
0.00184971
0.00186177
0.0018582
0.00186749
0.00186656
0.00186008
0.00185021
0.00184356
0.00182006
0.00182706
0.00186372
0.0018157
0.00180825
0.0018028
0.00181422
0.00179037
0.00179453
0.0017808
0.001787
0.0017675
0.0017744
0.00175179
0.00175992
0.00173457
0.00174343
0.00171531
0.00172517
0.00169473
0.00170517
0.00167292
0.00168402
0.00164964
0.00166148
0.00162496
0.00163748
0.00159901
0.00161215
0.00157193
0.00158562
0.0015438
0.001558
0.00151469
0.00152938
0.00148468
0.00149981
0.00145381
0.00146936
0.00142216
0.00143809
0.00138979
0.00140607
0.00135679
0.00137338
0.00132323
0.00134008
0.0012892
0.00130627
0.0012548
0.00127205
0.00122011
0.00123749
0.00118525
0.00120271
0.00115029
0.00116778
0.00111532
0.0011328
0.00108041
0.00109786
0.00104564
0.00106301
0.00101106
0.00102832
0.000976783
0.000993886
0.000941851
0.000959393
0.000924313
0.000877842
0.000874039
0.000876277
0.000881174
0.000879512
0.000883706
0.000882516
0.00088567
0.000884766
0.00088698
0.000886409
0.000887618
0.000887384
0.000887579
0.000887683
0.000886863
0.000887305
0.000885482
0.000886254
0.000883496
0.000884558
0.000880651
0.000882174
0.000879069
0.000926858
0.000892086
0.000909816
0.000961571
0.000944118
0.000996175
0.000979013
0.00103073
0.00101342
0.00106551
0.0010481
0.00110045
0.00108297
0.0011355
0.00111798
0.00117056
0.00115304
0.00120556
0.00118808
0.00124041
0.00122302
0.001275
0.00125775
0.00130923
0.00129218
0.00134301
0.0013262
0.00137623
0.00135971
0.0014088
0.00139262
0.00144064
0.00142483
0.00147166
0.00145627
0.0015018
0.00148686
0.00153098
0.00151653
0.00155916
0.00154523
0.00158628
0.00157288
0.00161228
0.00159945
0.0016371
0.00162486
0.00166069
0.00164908
0.00168299
0.00167203
0.00170393
0.00169366
0.00172344
0.0017139
0.00174144
0.00173266
0.00175781
0.00174987
0.00177231
0.00176535
0.00178476
0.00177885
0.00179535
0.00179019
0.00180338
0.00180009
0.00180866
0.00180578
0.00181753
0.00180879
0.00182161
0.00181221
0.00180844
0.00187646
0.00187514
0.00187006
0.00187086
0.000872713
0.000874804
0.00186892
0.00187485
0.0018759
0.00188118
0.00187889
0.00187993
0.00187902
0.00187636
0.00187201
0.00181049
0.00179933
0.00179217
0.00180285
0.00179531
0.00180708
0.00180716
0.00182383
0.00183289
0.00184945
0.00185841
0.00186894
0.00187019
0.00186835
0.00186003
0.00184941
0.0018393
0.00182664
0.00181652
0.00187125
0.00180903
0.00180746
0.00180234
0.00179024
0.00178877
0.00180156
0.00178001
0.0017839
0.0017697
0.00177548
0.00175625
0.00176324
0.00174071
0.00174874
0.00172349
0.00173234
0.00170448
0.00171421
0.00168406
0.00169445
0.00166235
0.0016734
0.00163926
0.001651
0.00161485
0.00162723
0.00158921
0.00160219
0.00156246
0.00157598
0.00153468
0.00154871
0.00150593
0.00152044
0.00147629
0.00149124
0.00144581
0.00146117
0.00141456
0.00143029
0.00138259
0.00139867
0.00134999
0.00136638
0.00131683
0.00133349
0.0012832
0.00130008
0.00124919
0.00126625
0.00121489
0.00123208
0.0011804
0.00119767
0.00114579
0.00116311
0.00111116
0.00112848
0.00107658
0.00109386
0.00104211
0.00105933
0.00100782
0.00102495
0.000973762
0.000990756
0.000939705
0.000956853
0.00090546
0.000922335
0.000871067
0.000888312
0.000857381
0.00085383
0.000855945
0.000861131
0.000859181
0.000864211
0.000862786
0.000866651
0.000865492
0.000868526
0.000867666
0.000869775
0.00086923
0.000870386
0.000870161
0.000870353
0.00087045
0.000869677
0.000870095
0.000868364
0.000869099
0.000866438
0.000867473
0.000863987
0.000865274
0.000860818
0.000862383
0.000857932
0.000859342
0.000890425
0.000856497
0.000873412
0.000924785
0.000907503
0.000959168
0.000941897
0.000993184
0.000976161
0.00102747
0.0010103
0.00106196
0.0010447
0.00109659
0.00107926
0.0011313
0.00111395
0.00116602
0.00114867
0.00120066
0.00118336
0.00123513
0.00121793
0.00126933
0.00125228
0.00130317
0.00128632
0.00133655
0.00131994
0.00136937
0.00135305
0.00140154
0.00138555
0.00143298
0.00141737
0.00146361
0.00144842
0.00149337
0.00147862
0.0015222
0.00150792
0.00155003
0.00153626
0.00157683
0.00156359
0.00160253
0.00158984
0.00162708
0.00161498
0.00165044
0.00163894
0.00167253
0.00166168
0.00169331
0.00168312
0.00171268
0.0017032
0.00173057
0.00172185
0.00174685
0.00173895
0.00176133
0.00175436
0.00177383
0.00176787
0.00178441
0.00177935
0.00179254
0.00178896
0.00179773
0.00179552
0.00180117
0.00179968
0.00179738
0.00188163
0.00187993
0.00180876
0.00180161
0.00187704
0.00187771
0.00187418
0.0018812
0.00188204
0.000869316
0.000852294
0.000841076
0.000839539
0.00188667
0.00188435
0.00188465
0.00188306
0.00187967
0.00187475
0.00179514
0.00178777
0.00177429
0.0017815
0.00181151
0.00181879
0.001837
0.00183979
0.00185788
0.00186701
0.00187417
0.00186891
0.00185934
0.00184871
0.00183371
0.00182547
0.00181282
0.00179192
0.00179926
0.00187816
0.00179232
0.00177456
0.00179668
0.00179979
0.00178732
0.00178263
0.0017781
0.00178644
0.00176924
0.00177344
0.00175837
0.00176425
0.00174492
0.00175192
0.00172949
0.00173746
0.00171233
0.00172114
0.00169349
0.00170312
0.00167322
0.00168354
0.00165164
0.00166261
0.00162874
0.00164037
0.00160457
0.00161683
0.00157923
0.00159206
0.0015528
0.00156616
0.00152535
0.00153921
0.00149696
0.00151129
0.00146769
0.00148245
0.00143759
0.00145276
0.00140673
0.00142227
0.00137516
0.00139104
0.00134296
0.00135915
0.00131021
0.00132666
0.00127698
0.00129366
0.00124337
0.00126023
0.00120946
0.00122645
0.00117534
0.00119242
0.00114109
0.00115823
0.00110681
0.00112396
0.00107256
0.00108968
0.00103841
0.00105547
0.00100441
0.00102139
0.000970627
0.000987494
0.000937128
0.000953856
0.000903222
0.00092007
0.000886298
0.000840921
0.000837013
0.000839283
0.000844473
0.00084268
0.000847341
0.00084598
0.000849698
0.000848587
0.000851484
0.000850665
0.000852675
0.000852155
0.00085326
0.000853044
0.000853233
0.000853323
0.000852595
0.00085299
0.000851354
0.00085205
0.000849523
0.00085051
0.000847175
0.000848409
0.000844082
0.000845715
0.000842471
0.000888763
0.000855248
0.000871926
0.000922763
0.000905638
0.00095628
0.000939495
0.00099004
0.00097313
0.00102404
0.00100702
0.00105822
0.00104112
0.00109253
0.00107537
0.0011269
0.00110972
0.00116126
0.0011441
0.00119554
0.00117843
0.00122963
0.00121262
0.00126344
0.00124659
0.00129688
0.00128023
0.00132986
0.00131345
0.00136227
0.00134616
0.00139405
0.00137826
0.00142509
0.00140968
0.00145534
0.00144034
0.00148474
0.00147017
0.00151321
0.00149911
0.00154072
0.00152711
0.0015672
0.00155411
0.00159262
0.00158007
0.00161693
0.00160494
0.00164006
0.00162867
0.00166197
0.0016512
0.00168259
0.00167247
0.00170184
0.00169242
0.00171963
0.00171095
0.00173584
0.00172797
0.00175032
0.00174334
0.00176288
0.00175688
0.00177348
0.00176845
0.00178172
0.00177799
0.00178729
0.00178484
0.00178994
0.0017892
0.00178905
0.00178955
0.00179119
0.00178467
0.0017823
0.00177649
0.00178297
0.00188597
0.00188324
0.00188332
0.00188389
0.000835617
0.00083815
0.00187861
0.00188675
0.00188752
0.00189142
0.00188909
0.00188866
0.00188632
0.00188223
0.00187641
0.00176336
0.00176559
0.00176245
0.00177893
0.00178721
0.00179903
0.0018228
0.00182823
0.00184531
0.00185241
0.00186455
0.0018734
0.00186845
0.001858
0.00184583
0.00183418
0.00182025
0.00180468
0.00178918
0.00176908
0.00177881
0.00176749
0.00188439
0.00178407
0.0017589
0.0017786
0.00177304
0.00178221
0.00178342
0.00177407
0.00177703
0.0017678
0.0017723
0.0017583
0.00176309
0.00174706
0.00175302
0.0017336
0.0017406
0.00171821
0.00172615
0.0017011
0.00170988
0.00168239
0.00169195
0.00166226
0.00167251
0.00164082
0.00165172
0.00161811
0.00162964
0.00159418
0.00160631
0.00156911
0.0015818
0.00154298
0.00155619
0.00151586
0.00152955
0.00148782
0.00150196
0.00145891
0.00147348
0.00142918
0.00144416
0.0013987
0.00141405
0.00136753
0.00138321
0.00133573
0.00135172
0.00130338
0.00131963
0.00127056
0.00128703
0.00123734
0.001254
0.00120382
0.00122062
0.00117008
0.00118698
0.0011362
0.00115316
0.00110227
0.00111925
0.00106836
0.00108532
0.00103454
0.00105144
0.00100085
0.00101768
0.000967353
0.000984081
0.000934108
0.000950699
0.000900697
0.00091735
0.000867515
0.000884157
0.000833996
0.000850725
0.000820685
0.000817087
0.000819229
0.000824564
0.000822556
0.000827838
0.000826292
0.000830592
0.000829272