/*--------------------------------*- C++ -*----------------------------------*\
  =========                 |
  \\      /  F ield         | OpenFOAM: The Open Source CFD Toolbox
   \\    /   O peration     | Website:  https://openfoam.org
    \\  /    A nd           | Version:  10
     \\/     M anipulation  |
\*---------------------------------------------------------------------------*/
FoamFile
{
    format      ascii;
    class       surfaceScalarField;
    location    "12";
    object      phi;
}
// * * * * * * * * * * * * * * * * * * * * * * * * * * * * * * * * * * * * * //

dimensions      [0 3 -1 0 0 0 0];

internalField   nonuniform List<scalar> 
57492
(
-0.0200326
-0.00132417
0.00422817
0.0171286
0.0169888
-0.0142616
-0.0227598
-0.00309224
0.0102127
0.0313785
-0.038499
0.0989809
0.0723396
-0.0164113
-0.154909
-0.209942
0.0849894
0.223933
0.0531228
-0.052527
-0.0274621
0.0268664
-0.0978102
0.0241927
-0.0148158
0.0884333
0.0166466
-0.0613341
0.0275387
-0.104079
0.0992773
-0.0227369
0.0241831
0.0954086
-0.092053
0.0482509
0.0184876
-0.0426159
-0.0241226
0.00443148
0.0418909
0.00192852
-0.0216311
0.0217676
0.00429498
0.00741882
-0.0105624
0.106066
-0.0929519
-0.0389843
0.0258701
0.00534875
0.0809586
0.0197587
-0.00192484
0.0131305
0.0866202
-0.0978258
-0.0117
0.0854319
-0.0756567
0.0176702
-0.0358655
0.0181953
-0.0977583
0.0664493
0.0489792
-0.115914
0.0161678
0.0851518
0.0145949
0.0182945
-0.117628
-0.0165813
0.00840082
0.013034
0.0125321
-0.0339669
0.0137014
-0.00735083
0.00205026
-0.119273
0.143985
-0.0038888
-0.0208228
-0.170278
0.0896826
-0.0386778
-0.0773994
0.0276813
0.0394555
0.0102627
-0.0554232
-0.0252705
0.00329433
-0.0281195
-0.0756252
0.0931491
0.0105956
-0.03446
0.0116236
-0.0052831
0.0606429
-0.0382408
-0.0371912
0.0147891
-0.0481134
0.0409449
0.0678114
-0.0722815
-0.126088
0.078384
0.119985
-0.131383
-0.0398472
0.0989483
-0.0575846
-0.0111664
0.068751
-0.0171432
-0.0404414
-0.0683318
0.0878102
-0.0366217
0.0153952
-0.0427767
-0.0409503
-0.0515163
0.075709
-0.0250462
-0.113182
0.054941
0.0582413
-0.204534
0.0913521
0.149422
-0.0398781
0.0273664
-0.13691
0.110199
0.0163519
0.022871
-0.0334035
0.138248
-0.144723
0.0953399
0.0145709
-0.0932642
0.0928935
-0.0123694
0.102282
-0.0353915
-0.0747737
0.00788306
0.115519
0.00133444
0.0794881
-0.0434905
0.056896
0.0269829
0.140938
-0.1014
-0.0151614
0.014576
0.101986
-0.104705
-0.00822151
0.0115266
0.018788
0.101415
-0.0997048
-0.0204978
0.0110344
-0.0963255
-0.0812036
0.127236
0.114562
-0.160594
0.00826055
0.137734
-0.227198
-0.00201197
0.00736623
0.00147484
-0.0068291
0.0153557
0.00440002
-0.00299492
0.00601331
0.0123373
0.0038168
0.000554515
0.00198159
-0.000506758
-0.00228868
0.00427027
0.25803
0.0986252
-0.174573
-0.182083
0.0886324
-0.0649675
0.234365
-0.220875
0.0837037
0.225804
0.0452758
-0.167526
0.0301746
-0.078999
0.0628466
-0.0140222
0.0676758
-0.0796755
0.0421743
0.00486498
-0.00627291
8.37597e-05
0.0078704
0.00122275
0.0211352
0.00386376
-0.0867707
0.157701
0.0734662
-0.144397
0.0970921
-0.116187
0.0579827
0.150082
-0.050363
0.343974
-0.0500208
-0.0788445
-0.215108
0.0660998
0.186322
0.0915514
0.0380465
-0.138534
0.166587
0.0061841
-0.00927634
0.0163968
0.0543088
0.091168
-0.0421187
-0.103358
0.0755933
0.010094
0.0131563
-0.00459418
-0.00856213
0.0151057
-0.00194941
-0.186547
0.0811471
-0.0654493
0.170849
-0.151365
-0.100388
0.065206
-0.083378
0.0901361
-0.158123
0.10499
-0.000984267
-0.0509992
-0.0530062
-0.0470796
0.11732
0.034749
-0.0589944
-0.00707415
0.0189889
-0.0512032
-0.00877542
-0.0192447
-0.0829577
0.136486
-0.0104408
-0.046318
-0.0797275
0.00251473
0.0914381
0.0425334
-0.0621004
-0.00685019
0.0714653
-0.0597082
-0.012833
-0.0908497
-0.0151765
-0.0554261
0.0361813
0.00533308
-0.0607591
0.00974443
0.00536129
0.117914
0.0764445
-0.00869054
0.0422259
-0.134254
-0.0154081
0.095665
-0.067201
-0.0130559
-0.0229562
0.100851
-0.0933024
0.0719219
0.040809
-0.0110716
-0.101659
-0.0234332
0.0116515
0.0837036
0.0893372
-0.0719615
-0.0324727
-0.0718706
0.0194728
0.0848705
-0.0359808
0.08306
-0.0795519
0.00089482
-0.108746
-0.00482279
0.000530307
0.00206572
0.0184021
-0.00541797
0.00400476
-0.00753573
-0.00412805
0.0300658
-0.0188774
-0.00291995
-0.0128488
0.0194462
0.00483462
-0.011432
0.0390351
-0.0301119
-0.0217721
-0.0183101
0.0477254
0.00961986
-0.00943581
0.0105719
-0.166034
0.0799973
0.167184
0.167394
-0.0703942
-0.197388
-0.0833313
0.0846914
-0.00806648
-0.0583553
-0.00920346
-0.0429345
0.000408072
0.00199587
-0.00928159
0.00300928
0.00427643
-0.010967
0.00772546
0.00523742
-0.0223811
0.00213254
-0.0174209
-0.0298165
0.00430285
-0.0466341
-0.0291421
-0.0481868
-0.0507149
0.0619745
0.0369273
0.00357508
0.0213937
-0.0731556
-0.0679519
0.0208121
-0.137907
0.0508368
-0.0106885
-0.134561
0.0124542
-0.0157994
-0.00517455
-0.0859063
0.0791127
0.0119681
-0.00041241
-0.0890415
0.0842794
-0.00962867
-0.280812
-0.0771246
0.0969398
0.0926737
-0.118961
0.0966921
-0.0200482
-0.0127212
0.005871
-0.0129733
0.000252083
0.0258196
-0.00598255
0.157043
-0.0944979
-0.0635489
0.00100411
0.131882
-0.00824304
0.156985
0.0122095
-0.160934
0.0591043
0.121876
-0.023995
0.0219108
-0.0871459
0.124339
0.000489097
-0.0134624
0.0304066
-0.108031
-0.105978
0.0732865
0.13417
0.0611604
-0.00266315
-0.0641452
0.00564799
0.0204385
-0.00739149
-0.0781694
0.0155178
0.103596
0.0120049
-0.0697358
-0.00799184
-0.00334736
-0.0179904
-0.0146819
0.0291016
0.00357071
-0.0109378
0.00171936
-0.008772
-0.0432667
-0.00380295
0.0361319
-0.070807
0.115491
-0.0349398
0.184361
-0.176698
-0.0784705
-0.00164325
-0.0995717
0.116733
-0.217386
-0.0178589
-0.163592
-0.0830849
0.02929
0.0836332
0.060874
-0.128339
0.0438284
0.123349
-0.0835437
0.0430465
-0.082157
0.0495882
-0.0104776
0.0470661
-0.0793685
0.0753488
0.114117
0.0319087
0.10698
-0.0032554
-0.106689
0.00296457
0.118142
-0.0122017
0.00103891
0.125074
-0.0152874
-0.00352712
-0.106259
0.0896476
-0.0260544
0.0614807
0.100793
-0.0228881
0.0171944
-0.0950988
0.0195925
0.102467
-0.0212673
-0.092301
-0.0291986
0.0986115
0.0153987
-0.0882269
-0.0300545
0.0857263
-0.0401931
-0.0788952
0.03471
0.0843783
-0.0422034
-0.0806128
0.0826231
0.0388225
0.0766549
-0.0214983
-0.0939791
0.0759165
-0.0792974
-0.0450171
0.0449441
0.0759895
-0.0356147
0.0672525
-0.0992087
0.087475
-0.00976451
-0.128305
0.00607783
0.128507
-0.00627952
0.0296405
-0.0920077
-0.0207649
-0.0053693
0.118142
-0.0563348
0.00979764
-0.0454706
0.00904584
-0.0252759
-0.00264731
-0.0666812
-0.0947707
0.0569243
-0.000683727
0.00240309
-0.00113007
0.000446344
-0.0133362
-0.111716
0.0815615
-0.0920871
-0.0115469
0.0902977
0.00856653
-0.096328
-0.00432563
0.0357919
0.0575902
-0.0326248
-0.0607573
0.0250604
0.0767265
-0.065995
0.0878333
-0.00518264
0.000761194
0.00346903
-0.00369992
0.00709718
-0.00633599
0.0105662
0.000928418
0.000159892
0.00272849
-0.000207649
0.00113607
-4.7757e-05
0.00647823
0.000216077
0.00700707
-0.00479337
0.0112716
-0.00457729
0.00677144
-0.000746804
-0.0154604
-0.00275409
0.00952553
-0.00350089
0.0312819
0.0705903
-0.0902207
0.027611
-0.0937506
0.0974215
0.101777
-0.00357575
-0.0342512
-0.0636815
0.033969
0.0639637
-0.0153033
0.067466
-0.0864139
0.00747658
-0.0864614
0.0841711
-0.0855472
0.047739
-0.0463629
0.0831987
0.0389234
-0.037951
0.0561618
-0.0863815
-0.0553275
0.0833973
0.0263643
-0.0265629
0.084317
0.0151371
-0.0160568
0.00148351
0.0859911
-0.00315758
0.0945402
-0.0942417
0.00118501
-0.016447
0.0899586
0.0124795
0.0921543
-0.0140612
-0.0914393
0.0123347
-0.091097
0.0260219
-0.0910744
0.0389008
-0.0935168
0.0501814
-0.0920604
0.0547054
-0.0288187
0.0940218
0.0247555
0.0880452
-0.0247095
0.0630968
-0.0867062
-0.0627721
-0.0924724
0.0635088
0.0675069
-0.0933452
-0.060868
-0.0360779
0.0937975
0.0363022
0.0880431
-0.0360758
-0.0961685
0.071203
0.0942475
-0.0466461
0.0461961
-0.0552842
0.0943773
0.0551544
0.0882032
-0.0468062
0.0880559
-0.055137
0.0698977
-0.093497
-0.0697459
-0.0978036
0.0715329
-0.0624624
0.0951617
0.061678
0.0881549
-0.0625614
0.0725711
-0.0942669
-0.0718013
-0.0977725
0.07254
-0.0675068
0.0953082
0.0673603
0.0877396
-0.0670915
0.0730746
-0.0952713
-0.0720702
-0.0981153
0.0734174
-0.0713221
0.0960974
0.0705328
0.0875957
-0.0711782
0.072885
-0.0958559
-0.0723004
-0.0979182
0.0726879
-0.0733179
0.0960831
0.0733323
0.0868811
-0.0726034
0.0722732
-0.0965852
-0.0715439
-0.0980989
0.0724539
-0.0746106
0.0967694
0.0739243
0.0864963
-0.0742258
0.0717446
-0.0970063
-0.0713235
-0.0975519
0.0711976
-0.07459
0.0966326
0.0747268
0.0854844
-0.0735781
0.071738
-0.0944004
-0.0743438
-0.0956446
0.0698307
-0.0744649
0.0972925
0.073805
0.0851574
-0.074138
0.0717959
-0.0955678
-0.0706285
-0.0939733
0.0701245
-0.0736419
0.0972899
0.0736445
0.0839563
-0.0724408
0.0726873
-0.0910967
-0.0771584
-0.0903324
0.0690464
-0.069755
0.0947937
0.0722512
0.0853104
-0.0711091
0.073485
-0.0901209
-0.0744608
-0.088135
0.0712876
-0.0698808
0.0858202
0.0788543
0.085669
-0.0702394
0.0759037
-0.0775991
-0.0884255
-0.0859941
0.0737628
-0.0728979
0.0754016
0.0833164
0.08354
-0.0707689
-0.0910708
0.0919453
-0.0753352
-0.0926772
-0.0759928
0.0791509
-0.0795908
-0.0879856
0.0755275
-0.0823706
-0.0882821
0.0892924
-0.0716388
-0.0734952
-0.0846178
0.0837301
-0.0704358
-0.0696693
-0.0826709
0.0814551
-0.0710846
-0.0704847
-0.0800937
0.0786819
-0.0703894
-0.0707088
-0.0773898
0.0823614
-0.0658396
-0.0684538
-0.080249
0.0782458
-0.0533243
-0.0606597
-0.079356
0.0779036
-0.0364987
-0.0474731
-0.0745635
0.072987
-0.0144803
-0.0232227
-0.0711432
0.0716179
0.0120048
-0.00131379
-0.0723065
0.0730755
0.0355333
0.0240669
-0.0739892
0.0750205
0.0541231
0.0452824
-0.0760863
0.0771383
0.0663083
0.0606121
-0.0781046
0.0789695
0.0724674
0.0695665
-0.0796921
0.0802722
0.0741467
0.0732017
-0.0806748
0.0808861
0.0734331
0.0734024
-0.0792324
0.0826395
0.0754473
0.0739049
0.0831398
0.0749013
-0.0735366
0.0748563
0.0819967
-0.0716193
0.0816227
0.0853263
-0.0862172
-0.0702181
-0.0845121
0.0827099
-0.0689667
-0.0694252
0.0875657
-0.089222
-0.0724816
-0.0710923
0.0903633
-0.091479
-0.0731101
-0.0724368
0.0925278
-0.0934876
-0.0702184
-0.0715546
0.0943173
-0.0949991
-0.0618796
-0.0662618
0.0954996
-0.0958179
-0.0464879
-0.0546365
0.0959882
-0.0961331
-0.0245647
-0.0359055
0.0982184
-0.0979417
0.000908335
-0.0119758
0.0993828
-0.0980257
0.0246648
0.0137757
0.0969806
-0.0958341
0.049035
0.0378557
0.0963088
-0.0967099
0.0639099
0.0551801
0.0928219
-0.0922
0.0709109
0.0673151
0.0916747
-0.0911455
0.0728881
0.0720147
0.0905924
-0.0899971
0.0718586
0.0721349
0.089372
-0.0896878
0.0701464
0.0705725
0.0885502
-0.0884133
0.0689096
0.068987
0.0855269
-0.0830598
0.0712956
0.0684012
-0.0791965
0.0716642
-0.0943667
-0.0779013
0.0822462
0.0757498
-0.0686464
0.079737
0.0776963
-0.0787736
-0.0812932
0.0745188
-0.076019
0.0797962
-0.0791251
-0.0950378
-0.086963
-0.0912836
0.0885821
-0.0726338
0.0938905
-0.0958149
-0.0759768
-0.0733859
-0.0860675
0.0847921
-0.0703634
-0.0709805
-0.0836929
0.0822977
-0.0690406
-0.0685701
-0.0807447
0.0790125
-0.0693524
-0.0689317
-0.0771318
0.0751457
-0.0684033
-0.0688281
-0.0730728
0.0710379
-0.0638047
-0.0663809
-0.0693352
0.0690556
-0.0530447
-0.0589569
-0.0663601
0.0653942
-0.0355328
-0.0447776
-0.0666587
0.0650072
-0.0128288
-0.0244872
-0.0644362
0.0649262
0.0115148
-0.000742835
-0.0657437
0.0668394
0.0344375
0.0232494
-0.0681444
0.06961
0.0526575
0.0439773
-0.0711445
0.0726996
0.0647532
0.0590777
-0.0741928
0.0755988
0.0710614
0.0680733
-0.0768578
0.077957
0.0730475
0.0719427
-0.0788563
0.0795442
0.0727452
0.0725032
-0.0802461
0.0825274
0.0731659
0.0732031
0.0726264
-0.072516
0.0818864
0.0716689
0.0832038
-0.0832134
0.0851026
0.0738607
0.0742153
0.0821004
-0.0843674
-0.0666996
0.0790722
-0.0656183
0.0688603
-0.0673208
0.0781976
0.0779669
0.0866887
-0.0887573
-0.0681495
-0.0671039
0.0904744
-0.0921487
-0.0708073
-0.0693753
0.0938334
-0.0955128
-0.0714307
-0.0707521
0.0971326
-0.0986768
-0.0686742
-0.0699348
0.100082
-0.101343
-0.0606185
-0.0648569
0.102405
-0.103243
-0.0456493
-0.0535745
0.103826
-0.104175
-0.0242155
-0.0353225
0.104328
-0.104224
0.000804254
-0.0118234
0.10388
-0.104889
0.0256731
0.0134323
0.10365
-0.101505
0.04689
0.0366172
0.101194
-0.0991434
0.0618597
0.0548685
0.0979891
-0.0967528
0.0696746
0.0661608
0.0955652
-0.0944322
0.0717552
0.0708271
0.0933203
-0.0922004
0.0707386
0.071023
0.0910523
-0.0898047
0.0688989
0.0694244
0.0884932
-0.0870405
0.0674569
0.0676754
0.0854658
-0.0814226
0.0672524
0.0668265
0.0787006
-0.0743279
0.070146
0.0689422
-0.0976531
-0.0772869
0.0749612
-0.0782782
-0.072702
-0.0705761
0.0712094
-0.0806067
-0.0789648
0.0730946
0.0836768
0.0774941
-0.0657426
-0.0787531
0.0778022
-0.0940869
-0.0780858
-0.0983204
0.0728831
-0.0778636
-0.0677215
0.0698701
-0.0675631
-0.0897676
0.0855832
-0.0835698
0.0718473
0.085121
0.0735568
-0.0654098
0.0672253
0.0763821
-0.0628224
0.0749067
-0.0994796
0.0994313
-0.0780375
-0.08146
0.0806699
-0.0975303
0.105354
0.0792883
-0.0592563
-0.125386
-0.0755858
-0.0980922
0.0957719
-0.0736565
-0.0759478
-0.0931719
0.0895721
-0.069034
-0.0707859
-0.0873824
0.0844399
-0.0674209
-0.0687909
-0.0828329
0.0810349
-0.0672427
-0.066963
-0.0790581
0.076879
-0.0671733
-0.0669548
-0.0745361
0.072052
-0.0659192
-0.0664853
-0.0695401
0.0670556
-0.0613203
-0.063869
-0.0647429
0.0627009
-0.0510028
-0.0566442
-0.0610248
0.059679
-0.034187
-0.0431015
-0.0588666
0.0584519
-0.0124141
-0.0236748
-0.0584807
0.0590041
0.0109914
-0.000771588
-0.0599735
0.0613297
0.0330814
0.02228
-0.0629723
0.0648309
0.0507988
0.0423348
-0.0667951
0.0688099
0.0627384
0.0571135
-0.0707831
0.0726796
0.0691649
0.0661001
-0.074426
0.0760002
0.0714732
0.0701964
-0.0773553
0.0784977
0.0716028
0.0711481
-0.0799352
0.0817363
0.0713648
0.0717656
0.0723818
0.0707125
-0.0679938
0.0791677
-0.0723186
0.0721891
0.0838063
0.0815976
0.0771984
0.0835772
-0.0863856
-0.0638913
-0.0806919
0.0768605
-0.0619113
-0.062733
0.0886804
-0.0904509
-0.0663789
-0.0648091
0.0928574
-0.0950047
-0.0686599
-0.0669689
0.0971817
-0.0994079
-0.0692045
-0.0685751
0.101599
-0.103733
-0.0665408
-0.0677434
0.105701
-0.107486
-0.0588343
-0.062888
0.109018
-0.110299
-0.0443683
-0.0520418
0.111262
-0.111867
-0.0236105
-0.0343595
0.112078
-0.111943
0.000669061
-0.0116124
0.111486
-0.110651
0.0248373
0.0129756
0.109525
-0.108151
0.0455162
0.0354917
0.106547
-0.104805
0.060118
0.0532638
0.103033
-0.101223
0.0678653
0.0643885
0.0994307
-0.0976905
0.070015
0.0690345
0.0960086
-0.0943514
0.0690815
0.0693411
0.0927012
-0.0910209
0.0672186
0.0677742
0.08931
-0.0875356
0.0656825
0.0659645
0.0856837
-0.0836779
0.0652466
0.0649746
0.079711
-0.0748372
0.0652722
0.0649753
0.0701722
-0.0661686
0.0658665
0.0665444
0.0673118
-0.0707962
-0.0640787
-0.0627613
0.0639045
0.0793011
-0.0927181
-0.0774261
-0.0794023
0.0723602
0.0849499
0.0746805
-0.0606424
0.0799223
-0.0981643
-0.0696098
-0.0689078
0.0953706
-0.0749245
0.0673872
-0.0637222
0.0604844
-0.0595235
-0.0673503
-0.0604506
-0.0652225
0.102203
-0.0421627
-0.0371053
-0.060742
-0.0878926
-0.100398
0.105672
-0.06453
-0.0561937
0.0579984
-0.10227
0.0991218
-0.0748894
-0.0721842
-0.096755
0.0932952
-0.0701967
-0.0735811
-0.0908093
0.0889812
-0.0672059
-0.0683001
-0.0861053
0.0842583
-0.0655738
-0.065915
-0.0822563
0.0801021
-0.0650885
-0.064961
-0.0777743
0.0752314
-0.0646305
-0.064627
-0.0725009
0.069605
-0.0630233
-0.0637548
-0.0666521
0.0637328
-0.0584009
-0.0609161
-0.0610176
0.058576
-0.0485613
-0.0539289
-0.0565577
0.0549828
-0.0326121
-0.0410831
-0.0539245
0.0534182
-0.0119078
-0.0226164
-0.0534554
0.0540379
0.0104089
-0.000808779
-0.0551368
0.0566989
0.0315192
0.0211812
-0.0586135
0.0607996
0.0486127
0.0404201
-0.0631298
0.0655425
0.0603257
0.0547834
-0.0679294
0.0702526
0.0668417
0.0637132
-0.072419
0.0744131
0.0694791
0.06803
-0.0761724
0.07773
0.0700452
0.0693888
-0.0800144
0.0814352
0.069944
0.0694812
-0.0826798
0.0842948
0.0702324
0.0711372
-0.085803
0.0882758
0.0698873
0.0720486
0.0704673
-0.0693421
0.0826811
-0.0716583
0.0706425
0.0892916
0.0837589
0.0684703
-0.0662871
0.0769845
0.0807258
0.06492
-0.0630955
0.0745576
0.0758314
0.0618382
-0.0601326
0.0729749
0.0736493
0.0793525
-0.0821548
-0.059109
-0.0769026
0.0739135
-0.0571435
-0.0581924
0.0850112
-0.087518
-0.0613845
-0.0598766
0.0902983
-0.0926952
-0.063982
-0.0620288
0.0951421
-0.0976925
-0.0661095
-0.064522
0.100294
-0.10298
-0.0665188
-0.0659737
0.105661
-0.108322
-0.0638791
-0.0650623
0.11083
-0.11314
-0.0565239
-0.0603805
0.115137
-0.116807
-0.0426983
-0.0500451
0.118077
-0.118916
-0.0227719
-0.0330893
0.11926
-0.119121
0.000530264
-0.0112684
0.118526
-0.117493
0.0238049
0.0123803
0.116089
-0.114328
0.0437551
0.0340874
0.112304
-0.110073
0.0578866
0.0512401
0.107756
-0.105394
0.0655026
0.062072
0.103056
-0.100765
0.067724
0.0666969
0.0985628
-0.0964228
0.0669415
0.0671389
0.0943476
-0.092302
0.065173
0.065699
0.0902799
-0.0882227
0.0636252
0.0639424
0.0860863
-0.0837803
0.0629406
0.0628383
0.0812581
-0.0784553
0.0624694
0.062453
0.0734134
-0.0680774
0.0605304
0.0615026
0.0638485
-0.0602336
0.0568696
0.0596756
0.0552362
-0.0580697
-0.05669
-0.0570804
0.052083
0.0779112
-0.090707
-0.0733456
-0.0756665
0.0801129
-0.0829065
-0.0661868
-0.0700713
0.0867191
-0.0864935
0.0696617
0.0892198
0.0681417
-0.0570133
0.0588602
0.071128
-0.0541619
0.071062
0.0754061
-0.0736042
-0.0581109
-0.0604093
0.00141916
-0.0992818
-0.0799358
0.0958426
-0.0580695
0.0494475
-0.0503618
-0.0557757
0.0456623
-0.0532952
-0.0721488
-0.068529
-0.0833269
-0.101208
0.101745
-0.0650664
-0.0615596
-0.101576
0.0981005
-0.0714141
-0.0720151
-0.0942019
0.0922865
-0.0682812
-0.0696825
-0.0903798
0.088428
-0.0652541
-0.0663934
-0.0863896
0.0842059
-0.0633901
-0.0638766
-0.081894
0.0794169
-0.0626114
-0.0626491
-0.0767786
0.0739362
-0.0617881
-0.0619886
-0.0709102
0.0677136
-0.0598267
-0.0607288
-0.0644517
0.0612095
-0.0551587
-0.0576542
-0.0581572
0.0553968
-0.0458008
-0.0508767
-0.0530896
0.0512906
-0.0308132
-0.0387759
-0.0500721
0.049474
-0.0113097
-0.0213979
-0.0494911
0.0501153
0.00978467
-0.000825912
-0.0513087
0.0530208
0.0298071
0.0199878
-0.0551385
0.05758
0.0461713
0.0383024
-0.0602031
0.0629421
0.0575867
0.0521602
-0.065669
0.0683453
0.0641654
0.0609862
-0.0708609
0.0732085
0.0671315
0.0655144
-0.0753161
0.0772182
0.068143
0.0672812
-0.0788925
0.0804067
0.0684298
0.0678069
-0.0836735
0.0844075
0.0694984
0.0678704
0.0699626
0.0675654
-0.0669432
0.0820588
-0.0663912
0.0679536
0.0877293
0.0849331
0.0637301
-0.062714
0.0759684
0.0775128
0.0611481
-0.0600366
0.0734462
0.0742655
0.0724729
0.0809614
-0.0839819
-0.0560885
-0.0778863
0.0737418
-0.052999
-0.0551173
0.0865998
-0.0892071
-0.0587773
-0.0572586
0.0918223
-0.0945331
-0.0612712
-0.0594135
0.0972914
-0.100182
-0.0632187
-0.0617637
0.10315
-0.106236
-0.0634327
-0.0630055
0.109332
-0.112428
-0.0607829
-0.0619666
0.115376
-0.11813
-0.0537703
-0.057433
0.120542
-0.122571
-0.0406694
-0.0476326
0.124113
-0.125144
-0.0217411
-0.0315471
0.125608
-0.125497
0.000419573
-0.0108042
0.124804
-0.123596
0.0225972
0.011687
0.121932
-0.119837
0.0416605
0.0324229
0.117427
-0.114763
0.0552228
0.0488298
0.111971
-0.109119
0.0626499
0.0592804
0.106309
-0.103561
0.0649762
0.063887
0.100939
-0.0984154
0.0644178
0.0645169
0.0960016
-0.0936484
0.0628198
0.0632853
0.0913458
-0.0890114
0.0612908
0.0616398
0.0866023
-0.0840315
0.0603698
0.0604291
0.0812768
-0.0783065
0.0594992
0.0596983
0.0751747
-0.0718961
0.0572518
0.0583708
0.0670174
-0.0618493
0.0517015
0.0547969
0.0566707
-0.0531624
0.042154
0.0469044
0.03845
-0.039024
-0.0527212
-0.0501516
0.0354392
0.0727711
-0.0833653
-0.068542
-0.0733113
0.0672163
0.0899571
0.0712937
-0.0517137
0.0714832
-0.0789836
0.0434823
-0.108058
0.0549861
-0.0851079
-0.0607734
-0.0674089
-0.0506348
-0.0601363
-0.106953
-0.0644773
0.0451913
-0.0460342
-0.10611
0.033522
-0.0963889
-0.0407756
-0.0540241
0.0268622
-0.029417
-0.0501665
0.0264825
-0.049772
-0.0790978
-0.0973667
0.1007
-0.0614031
0.105387
-0.116286
-0.0535782
-0.0605091
-0.102753
0.103313
-0.0656262
-0.0636122
-0.100793
0.0983594
-0.0689805
-0.0694955
-0.0959896
0.0936677
-0.0659594
-0.0673127
-0.0913882
0.0890965
-0.0629624
-0.0641139
-0.0867639
0.0843187
-0.060945
-0.061544
-0.0817494
0.079028
-0.05989
-0.0600798
-0.0761613
0.0731039
-0.0587306
-0.0591219
-0.0698668
0.066453
-0.0564128
-0.0574917
-0.0629663
0.0594857
-0.0516781
-0.0541676
-0.0561977
0.0531961
-0.0427992
-0.0475887
-0.0506629
0.0486747
-0.0288249
-0.0362427
-0.0473205
0.0466372
-0.0106265
-0.0200436
-0.0466217
0.0472608
0.00914556
-0.000810474
-0.0485111
0.0503214
0.0279969
0.0187375
-0.0525768
0.0551995
0.0435486
0.0360469
-0.0580392
0.0610255
0.0546004
0.0493205
-0.0640146
0.0669657
0.0612143
0.0579971
-0.069759
0.0723893
0.0645012
0.0627211
-0.0747908
0.0769927
0.0659411
0.0648798
-0.0789905
0.0808411
0.0665792
0.0658091
-0.0825465
0.0853799
0.0666651
0.066165
-0.087805
0.0901374
0.0673294
0.0675375
-0.0904955
0.0933709
0.0643408
0.0677836
0.0637214
-0.0633994
0.0874074
-0.0630131
0.0591245
0.0972595
0.0906654
0.0629812
-0.0608773
0.0799549
0.0845149
0.0604122
-0.0594849
0.0750411
0.0770477
0.0581656
-0.0564661
0.0717467
0.0729461
0.0549007
-0.0535513
0.0697786
0.0709074
0.0515582
-0.0487685
0.0685041
0.0690689
0.075896
-0.0781171
-0.050778
-0.0723094
0.0698094
-0.0462686
-0.0481271
0.0818015
-0.084565
-0.053325
-0.0514329
0.0876707
-0.0904797
-0.0559683
-0.054153
0.093301
-0.0962227
-0.0583495
-0.0565922
0.0992122
-0.102362
-0.0600693
-0.0587742
0.105611
-0.109009
-0.0600349
-0.0597565
0.112445
-0.115906
-0.0573218
-0.0585304
0.119222
-0.122336
-0.0506563
-0.0541168
0.125081
-0.127407
-0.0383432
-0.0448874
0.12919
-0.130393
-0.0205377
-0.0297647
0.130956
-0.130869
0.000333256
-0.0102418
0.130122
-0.12878
0.0212547
0.01094
0.126902
-0.124534
0.0392918
0.0305454
0.121804
-0.118779
0.0521981
0.0460999
0.115601
-0.112357
0.0594054
0.0561027
0.109168
-0.106061
0.0618697
0.0606976
0.10311
-0.100283
0.0615914
0.0615655
0.0975874
-0.0949618
0.0601941
0.0605894
0.0923957
-0.0898095
0.0587046
0.0590737
0.0871761
-0.0844207
0.0576145
0.0577957
0.0815425
-0.0785023
0.0564589
0.0568201
0.0753214
-0.0719778
0.0539082
0.0551899
0.0685343
-0.0650928
0.0482601
0.0513534
0.0617798
-0.0575995
0.0379737
0.0435913
0.054038
-0.0505727
0.0230172
0.0318777
0.0144722
-0.0153997
-0.0488445
-0.0496772
0.0135768
0.0668037
-0.0786858
-0.118768
-0.0435516
0.0577571
-0.0817547
0.0979734
-0.0952539
0.0616214
0.100123
0.0569748
-0.0461898
0.0474241
0.0672698
-0.0432118
0.0668314
-0.0630886
-0.0709961
-0.0529434
-0.0651003
0.0406736
-0.0922595
-0.0411792
-0.0597327
-0.0279435
-0.0554976
-0.0144094
-0.0511567
0.00322124
-0.00242459
-0.0496412
0.00262369
-0.0490797
-0.0753827
-0.120967
0.114433
-0.0470448
-0.0290884
0.0349578
-0.124638
0.127788
-0.134919
-0.0219577
-0.0367304
-0.107238
0.106989
-0.0611538
-0.0533135
-0.107165
0.106431
-0.0648922
-0.063789
-0.103533
0.100661
-0.0661087
-0.0665969
-0.0978595
0.0951188
-0.0632186
-0.0645111
-0.0924685
0.0898624
-0.0603564
-0.0614635
-0.0872665
0.084598
-0.0582765
-0.058948
-0.0818304
0.0789208
-0.0569804
-0.0573121
-0.0758795
0.0726664
-0.0555175
-0.0560807
-0.0692962
0.0657554
-0.052872
-0.0541216
-0.0621482
0.0585304
-0.0480604
-0.0505603
-0.0550936
0.0519353
-0.039641
-0.0441518
-0.0492465
0.0471146
-0.026693
-0.0335539
-0.045649
0.0448893
-0.00986673
-0.0185781
-0.0448296
0.0454576
0.00851749
-0.000750732
-0.0467287
0.0485893
0.0261364
0.0174664
-0.0509239
0.0536568
0.0408157
0.0337123
-0.0566356
0.0597874
0.0514486
0.0463418
-0.0629592
0.0661049
0.0580685
0.0548254
-0.0691069
0.0719564
0.0616517
0.0597191
-0.0745945
0.0770562
0.0634794
0.0622417
-0.0793329
0.0814837
0.0644284
0.0635324
-0.0835227
0.0855264
0.0646615
0.064126
-0.0892742
0.0917304
0.0648733
0.0637896
0.0642601
0.0563533
-0.057285
0.0883391
-0.0542372
0.0537193
0.0977773
0.0927815
0.0559546
-0.0560862
0.0800865
0.0831844
0.0557781
-0.0550573
0.0743203
0.0767396
0.0539453
-0.0524934
0.0702948
0.0718341
0.050345
-0.0491078
0.0685413
0.068759
0.0673852
0.0773446
-0.0803671
-0.0477555
-0.0742655
0.0706603
-0.0426633
-0.045048
0.0831913
-0.0859114
-0.0506048
-0.0486087
0.0887604
-0.0916979
-0.0530309
-0.051304
0.094659
-0.0977404
-0.0552681
-0.0536311
0.100909
-0.104247
-0.0567313
-0.0556056
0.107694
-0.111304
-0.0564245
-0.05631
0.114971
-0.118692
-0.0536009
-0.0548628
0.122285
-0.12568
-0.0472621
-0.0505239
0.12868
-0.131226
-0.0357964
-0.0418875
0.133189
-0.134531
-0.0191951
-0.0278025
0.13518
-0.135118
0.000271538
-0.00959301
0.134342
-0.132905
0.0198182
0.0101634
0.130876
-0.128308
0.0367231
0.0285165
0.125343
-0.122053
0.0489084
0.043135
0.118603
-0.115077
0.0558803
0.0526523
0.111614
-0.10824
0.0584957
0.0572341
0.105028
-0.101949
0.0585131
0.0583533
0.0990099
-0.0961502
0.0573344
0.0576499
0.0933656
-0.0905918
0.0559309
0.0562891
0.0878124
-0.0849585
0.0547607
0.0550162
0.0820239
-0.0789556
0.0533906
0.0538855
0.0757647
-0.0724342
0.0505777
0.051999
0.0690328
-0.0656389
0.0448662
0.047952
0.0623772
-0.0593586
0.0349551
0.0403296
0.0555214
-0.0526815
0.0201773
0.0280406
0.0510814
-0.0508558
0.00239812
0.0119767
-0.0325197
0.0284621
-0.0923312
-0.103672
-0.00772172
0.00906974
-0.0504277
-0.0507525
-0.00782499
0.0560876
-0.0770163
0.0536952
0.100147
0.0684057
-0.0409572
0.00915497
-0.134975
-0.0090985
-0.0547962
-0.0691433
0.0141028
-0.129585
0.0443294
-0.0854104
-0.0431086
-0.0631709
0.0308446
-0.094642
-0.0296334
-0.0580428
-0.0155015
-0.0544055
-0.00174886
-0.0518324
0.0100131
-0.0505845
-0.0189067
0.0204177
-0.0519387
-0.0174136
-0.0522457
-0.0740913
-0.137732
0.130722
-0.0149476
0.000356989
-0.133491
-0.00184082
0.143001
-0.139776
-0.00286822
-0.00382984
-0.125545
0.121291
-0.0427911
-0.0315533
-0.117753
0.113497
-0.0568979
-0.049775
-0.110632
0.108871
-0.0631313
-0.0609242
-0.105571
0.102327
-0.0628649
-0.0632969
-0.0992135
0.0962175
-0.0602226
-0.0613971
-0.0933509
0.0905551
-0.0575605
-0.058597
-0.0877965
0.0849816
-0.0554617
-0.0561894
-0.0820814
0.0790397
-0.0539387
-0.0544119
-0.0758861
0.0725802
-0.0522116
-0.0529271
-0.0691539
0.0655731
-0.0492912
-0.0506953
-0.0619334
0.058279
-0.0444059
-0.0469206
-0.0547856
0.0515564
-0.0364118
-0.0406584
-0.0487829
0.0465567
-0.0244669
-0.0307804
-0.0450067
0.0441804
-0.00904041
-0.0170281
-0.0440668
0.0446613
0.00792301
-0.000637158
-0.0459189
0.0477843
0.024271
0.0162087
-0.0501425
0.0529193
0.038039
0.0313541
-0.0559628
0.0591993
0.0482121
0.0432982
-0.0624762
0.065743
0.0548017
0.0515485
-0.0688845
0.0718957
0.0586404
0.0565776
-0.0747177
0.0773909
0.0608062
0.0594197
-0.0799021
0.0823187
0.0620118
0.0610212
-0.0846436
0.0869587
0.0623464
0.0618011
-0.089262
0.0929836
0.0611518
0.0614862
-0.0967781
0.0997176
0.0586818
0.0604656
-0.101148
0.103915
0.0509287
0.055544
0.0482526
-0.0480388
0.0975635
-0.0462151
0.0431285
0.107002
0.102185
0.0489667
-0.0487821
0.0881545
0.0937095
0.0494766
-0.0497923
0.0804022
0.0838789
0.0497092
-0.0492482
0.0738593
0.0766565
0.0484189
-0.0472493
0.0691252
0.0710048
0.0457791
-0.0436793
0.0664415
0.0672888
0.0423304
-0.0406376
0.065577
0.0660364
0.040047
-0.0368119
0.0651705
0.0662408
0.0728193
-0.0752193
-0.0402634
-0.0692351
0.0672247
-0.0348015
-0.037373
0.0781267
-0.0811984
-0.0446838
-0.0421406
0.0839847
-0.0869041
-0.0476854
-0.0458224
0.0898339
-0.0928387
-0.0500261
-0.0483743
0.0958809
-0.0990581
-0.0520909
-0.0505889
0.10233
-0.105781
-0.05328
-0.0523335
0.109344
-0.113078
-0.0526896
-0.0527479
0.116881
-0.120757
-0.0497249
-0.0510604
0.124524
-0.128108
-0.0436781
-0.0467564
0.131291
-0.133995
-0.0330922
-0.0387052
0.136079
-0.137512
-0.0177619
-0.0257187
0.138222
-0.138185
0.000235085
-0.00888321
0.137397
-0.135906
0.0183278
0.00937486
0.133787
-0.131095
0.034031
0.0263976
0.127988
-0.124539
0.0454599
0.0400276
0.120926
-0.117225
0.0521795
0.0490387
0.113587
-0.11003
0.0549389
0.0535964
0.10663
-0.103354
0.0552367
0.0549532
0.100227
-0.0971939
0.0543009
0.0545233
0.0942637
-0.0913739
0.0530412
0.0533588
0.0885175
-0.0856181
0.0518613
0.0521597
0.0826632
-0.0795938
0.0503211
0.0509306
0.0764288
-0.0731574
0.0473063
0.0488341
0.069853
-0.0665654
0.0415785
0.0446476
0.0634077
-0.0604739
0.0320213
0.037172
0.0579407
-0.0559491
0.0181857
0.0255074
0.0538615
-0.0525149
0.00105155
0.00988911
0.0523123
-0.0527163
-0.0170096
-0.00802768
-0.0188259
0.0178323
-0.0913377
-0.108395
-0.0268304
0.0290277
-0.0544429
-0.0552064
-0.0243403
0.0453479
-0.0780348
-0.0445523
-0.0676996
-0.0122533
-0.137299
0.00977684
-0.130192
-0.0155529
-0.0107434
-0.120683
0.0314813
-0.0860471
-0.0310539
-0.0617504
0.109002
-0.104694
0.0466204
0.110361
0.04177
-0.0321328
0.0329393
0.064364
-0.0302323
0.0653243
0.0177051
-0.0945149
-0.0164385
-0.0571058
-0.00205162
-0.0541028
0.0110495
-0.0528688
0.0224106
-0.0525774
0.0309009
-0.053812
0.0232979
-0.133872
-0.0267256
-0.13639
0.141483
0.0182049
-0.032135
-0.135237
0.0309829
-0.0350361
-0.0565629
0.0371561
-0.0328874
-0.0573551
-0.132097
-0.0339096
-0.0732957
-0.133783
0.127794
0.00312132
0.017476
-0.130484
0.131499
-0.0159624
-0.00651972
-0.127448
0.123016
-0.0383594
-0.0275027
-0.120402
0.117381
-0.0538773
-0.0471607
-0.114161
0.110791
-0.0597608
-0.0577042
-0.10733
0.103877
-0.0594119
-0.0598356
-0.100554
0.0973659
-0.0570346
-0.0580745
-0.0943263
0.0913686
-0.0546028
-0.0555574
-0.0884603
0.0855098
-0.0525111
-0.0532811
-0.0824932
0.0793591
-0.0508045
-0.0513954
-0.0761399
0.072806
-0.0488777
-0.049708
-0.0693852
0.0658398
-0.0457458
-0.0472745
-0.0622444
0.0586356
-0.0407972
-0.0433252
-0.0551733
0.0519552
-0.0331936
-0.0371961
-0.0491636
0.0469079
-0.0222111
-0.0279889
-0.0453001
0.0444251
-0.00816537
-0.0154204
-0.0442521
0.0447954
0.00737963
-0.000464137
-0.0460084
0.0478363
0.0224431
0.0149958
-0.0501661
0.0529244
0.0352807
0.0290243
-0.0559643
0.0592123
0.0449641
0.0402583
-0.0625197
0.0658394
0.0514821
0.0482411
-0.0690571
0.0721729
0.0555247
0.0533599
-0.0751276
0.0779665
0.0579673
0.056465
-0.0806685
0.0833064
0.0593739
0.0583192
-0.0858802
0.0884601
0.0597665
0.0592272
-0.0910511
0.0937123
0.0584906
0.0588952
-0.097859
0.101032
0.0555084
0.0563189
0.0518823
0.0380414
-0.0398831
0.0994052
-0.0362047
0.0340295
0.109177
0.104021
0.0395408
-0.0406897
0.0893035
0.0933671