/*--------------------------------*- C++ -*----------------------------------*\
  =========                 |
  \\      /  F ield         | OpenFOAM: The Open Source CFD Toolbox
   \\    /   O peration     | Website:  https://openfoam.org
    \\  /    A nd           | Version:  10
     \\/     M anipulation  |
\*---------------------------------------------------------------------------*/
FoamFile
{
    format      ascii;
    class       surfaceScalarField;
    location    "21.5";
    object      phi;
}
// * * * * * * * * * * * * * * * * * * * * * * * * * * * * * * * * * * * * * //

dimensions      [0 3 -1 0 0 0 0];

internalField   nonuniform List<scalar> 
57492
(
0.000251636
-1.14131e-05
-4.67633e-05
-0.00019346
-0.000177515
0.000287956
0.000141195
-2.91784e-05
8.216e-05
0.000328138
-0.000381119
0.00315953
0.00338649
-0.000271956
-0.00627406
-0.00862818
0.0040453
0.00774241
0.00109258
-0.00101529
-0.00053125
0.000453956
-0.00196464
0.00037561
-0.000148491
0.00173752
0.000403854
-0.00127591
0.00149306
-0.0046238
0.00441877
-0.00128804
0.00126718
0.00424473
-0.00401885
-0.000697778
-0.000231211
0.000768758
0.000160231
-0.000127097
-0.00091047
0.000339789
0.000265296
-0.000362324
-3.00691e-05
-5.99641e-05
9.40493e-05
0.00246248
-0.0023552
-0.000886197
0.00077892
0.000334316
0.00198217
0.000145994
-0.000323689
0.00078697
0.00334017
-0.00380345
-0.000661336
0.00326597
-0.00292832
0.000135854
-0.000289922
0.000154067
-0.00167326
0.00122643
0.000582687
-0.00467386
0.000199365
0.0033495
0.001125
0.00122001
-0.00474204
-0.00115184
-0.000135455
-0.000223184
-0.000737016
0.00109566
-0.00030431
0.000191866
-2.30116e-05
-0.00264674
0.00223425
0.000772531
-0.000360038
-0.00312934
0.000911559
-0.000428958
-0.00112662
0.000594773
0.000457271
7.45809e-05
-0.000778689
-0.00036152
1.35842e-05
-0.000370158
-0.00114358
0.00130424
0.000209501
-0.000419678
0.000117635
-6.81154e-05
0.00114049
-0.000761684
-0.000708933
0.000330131
-0.000985754
0.000769925
0.00135632
-0.00133429
-0.002561
0.00240287
0.00149243
-0.00295937
-0.000727593
0.00235267
-0.000712914
-0.000153809
0.000866723
-0.000273505
-0.000439409
-0.00138445
0.001906
-0.000795048
0.000204585
-0.000773183
-0.000815855
-0.000885396
0.00126101
-0.000234824
-0.00190171
0.00115076
0.000750953
-0.00432141
0.0024197
0.00469202
-0.000890524
0.000433231
-0.00423472
0.00346973
-8.48584e-06
0.00123077
-0.000792809
0.00456928
-0.004667
0.00212151
0.000440544
-0.0021582
0.00212369
-0.000150672
0.00253778
-0.000948732
-0.00188192
0.00029287
0.00284424
0.000134088
0.00135397
-0.000829044
0.00159876
0.00124356
0.00184793
-0.00465886
-0.000652155
0.00058188
0.00472914
-0.00479455
-0.000327126
0.000462813
0.00113106
0.00450889
-0.00443289
-0.00120705
0.000800247
-0.00429299
-0.00300027
0.00261253
0.00268724
-0.0022995
-0.000424396
0.003307
-0.00588287
1.36024e-05
-0.000129909
-5.17385e-07
0.000116824
-0.000350013
1.29142e-06
7.51092e-05
-0.000146324
-0.000278798
-6.25984e-05
7.79856e-06
1.39194e-05
-1.44368e-05
1.00149e-05
3.90452e-06
0.00742625
0.00378443
-0.00595775
-0.00525293
0.00231467
-0.000685253
0.00579683
-0.00795283
0.00305824
0.00720927
0.00225415
-0.00642255
0.00161395
-0.00287498
0.00214519
-0.000884161
0.0023702
-0.00292512
0.00216888
-3.18269e-05
2.32421e-05
-2.82825e-06
-7.46422e-05
-3.94811e-06
-0.000236763
-3.13388e-05
-0.00295739
0.00537995
0.00338594
-0.00580849
0.00435708
-0.00494427
0.00297426
0.00477954
-0.00237385
0.0103091
-0.00161537
-0.001738
-0.00695572
0.00213406
0.0055769
0.00259813
0.0015324
-0.00516133
0.005763
4.75286e-05
-7.6707e-05
0.000129689
0.000830256
0.00177613
-0.0006331
-0.00197329
0.00105684
0.000101556
-0.000101672
2.82769e-05
7.33949e-05
-0.00031224
0.000210568
-0.00667883
0.00342313
-0.00202464
0.00528034
-0.00578838
-0.00255372
0.00166328
-0.0026448
0.00211598
-0.00525957
0.00197389
-2.62161e-05
-0.000953627
-0.000994045
-0.000719358
0.00225167
0.000441576
-0.000844179
-8.6076e-05
0.000210897
-0.000779981
-9.04136e-05
-0.000273974
-0.00145963
-0.00031953
-7.50741e-05
2.93861e-05
0.000365218
-0.000254033
-0.000649953
0.000584457
0.000174385
2.2647e-05
-0.000451065
0.000104372
-5.06099e-06
0.000137587
-3.82876e-06
-0.000647552
0.000373577
8.3789e-05
-0.000731341
0.000177303
-0.000489543
0.00427353
0.00333167
-0.000178484
0.00212873
-0.00648339
-1.02752e-05
0.0022638
-0.00179741
-0.000456114
0.000291909
0.00316395
-0.00346614
0.00325747
0.00197434
-0.000644519
-0.00458729
-0.000929022
0.00037097
0.00381552
0.00411019
-0.00306488
-0.00162887
-0.00304031
0.00122287
0.00344631
-0.00120866
0.00351576
-0.00393597
0.000396759
-0.00464573
9.67699e-05
4.21272e-05
-5.3214e-06
0.00112077
-0.00065325
-0.000645038
9.47819e-05
-0.000379237
0.00140523
0.000401157
-1.84193e-05
-0.000187612
0.000334597
6.87085e-05
-0.000215694
0.000999386
-0.00122623
3.92287e-05
-0.000360846
0.000837249
0.000522982
-0.000126299
0.00010005
-0.00619991
0.00363944
0.0059836
0.00775838
-0.0020501
-0.008262
-0.00290654
0.00446501
-9.72584e-05
-0.000880544
-0.000165779
-0.000526269
9.33313e-06
4.68323e-05
-0.000131387
3.93836e-05
4.51711e-05
-0.000129981
0.000143233
3.35802e-05
-0.000297185
3.58172e-05
-0.000267671
-0.000314939
5.63405e-05
-0.000810356
-0.000337859
-0.0011946
-0.00128572
0.00147724
0.00100308
5.08836e-05
0.000624015
-0.00186949
-0.00168281
0.000447977
-0.0029485
0.00133465
-5.94166e-05
-0.00351453
0.000806757
-0.000240721
0.00087618
-0.00334722
0.00256394
-9.29033e-05
0.00067915
-0.00272809
0.00292512
0.00252845
-0.0101971
-0.0017802
0.00219627
0.00303412
-0.00347966
0.00207766
-0.000325478
-3.67881e-06
2.63258e-05
-7.96654e-06
4.28773e-06
0.000286312
-4.1484e-05
0.00515794
-0.00312289
-0.00220125
0.000166208
0.0044433
-7.8174e-05
0.00482121
7.46197e-07
-0.00524635
0.00127189
0.00343636
0.000112959
0.000462193
-0.00308232
0.00389203
5.74915e-06
-1.37157e-05
0.000764367
-0.00214021
-0.00287447
0.00124897
0.00311868
0.00128039
-7.19596e-05
-0.00134645
0.00013802
0.000418277
-0.000123644
-0.00163933
0.000339201
0.00207005
0.000287907
-0.00150896
-0.000135383
7.2835e-05
-9.12841e-06
1.45926e-05
-4.83028e-06
-6.33956e-07
1.26965e-05
-2.08061e-07
-2.16168e-05
5.03073e-05
-0.000121609
8.39982e-05
-0.00180023
0.00276647
-0.000788935
0.00297066
-0.00390441
-0.000866483
-2.38952e-06
-0.00221594
0.00255753
-0.00406926
0.000254661
-0.00278426
-0.00187646
0.00059146
0.0027133
0.00291221
-0.00542615
0.00260128
0.00432213
-0.00421011
0.00223915
-0.00309166
0.00161311
-0.000760605
0.00245276
-0.00303122
0.00281761
0.00439307
0.00186864
0.00492337
-0.000260128
-0.00489738
0.000234139
0.00544315
-0.000679145
0.000159367
0.00551783
-0.000843884
1.79513e-05
-0.0046919
0.00396433
-0.00131479
0.0028683
0.00431718
-0.00137245
0.00110681
-0.00405154
0.00123197
0.00440018
-0.00131498
-0.00388764
-0.0016385
0.00415369
0.00103623
-0.00370099
-0.00182507
0.00363289
-0.00235185
-0.00325658
0.00212295
0.00348548
-0.00237376
-0.00328647
0.00330838
0.00221722
0.00306747
-0.00145896
-0.00382573
0.00304215
-0.00319868
-0.00257195
0.00259022
0.00302388
-0.00202956
0.00252508
-0.00408752
0.00363402
-0.00100546
-0.00509292
0.00103723
0.00540319
-0.0013475
0.00190143
-0.000412732
0.00118858
-0.00124911
0.00047326
-0.000230623
0.00149573
-0.00167784
-5.66806e-05
0.000332141
0.000125697
-0.00162969
-0.00248497
0.00160612
-5.13145e-07
3.05085e-07
2.7349e-07
-7.86633e-07
-0.000161783
-0.00277404
0.00210678
-0.00243272
-0.000112589
0.00238353
8.04704e-05
-0.00255012
3.69346e-05
-0.000403851
0.00191456
0.000432489
-0.0019432
0.00204483
0.000443974
-0.00289265
0.00190789
0.0020515
-3.13103e-06
1.2919e-06
4.39663e-05
-4.54793e-06
1.41689e-06
-3.25602e-06
-6.18125e-06
5.19621e-06
-6.16134e-05
1.44205e-06
-7.62331e-06
6.63826e-06
-4.68779e-05
2.264e-05
-0.000280072
2.40667e-05
-7.09446e-05
4.67067e-05
5.36482e-05
-5.40624e-06
-0.000174541
-1.70585e-05
7.07067e-05
-2.24648e-05
0.00131779
0.00328672
-0.00423354
0.00145559
-0.00453828
0.00440048
0.00466665
7.56601e-05
-0.00118591
-0.00244531
0.00116175
0.00246947
-0.000707993
0.00272077
-0.00319869
0.000160955
-0.00331426
0.00410329
-0.00414167
-1.31211e-05
5.14993e-05
0.00410189
3.69194e-05
-3.55187e-05
-2.58144e-05
-0.00413501
1.91564e-05
0.00413293
-1.48907e-06
-2.95531e-05
0.00420671
5.98537e-05
-0.000133631
2.92705e-05
0.00431175
-0.000134314
0.00425991
-0.00423445
3.81834e-06
-0.000200834
0.00451335
-7.61451e-07
0.0041416
-8.25299e-05
-0.00410451
-7.00904e-05
-0.00409008
-1.59233e-05
-0.00408403
3.08699e-05
-0.00417125
7.4104e-05
-0.00410261
-9.44529e-05
-0.000194799
0.00470915
-1.00752e-06
0.0039483
-1.4987e-06
-2.06212e-05
-0.00409973
-1.46588e-05
-0.00413552
1.22889e-05
-2.92159e-05
-0.00433581
0.000265296
-4.27394e-07
0.00471016
-5.76877e-07
0.00394978
-1.90476e-06
-0.00428671
0.000121973
0.00471124
-2.39786e-07
-8.38643e-07
-3.66596e-07
0.00471201
-4.11177e-07
0.00395089
-1.35187e-06
0.0039523
-1.77308e-06
-2.46745e-05
-0.00430891
-2.22671e-06
-0.00430887
-2.51737e-06
-1.11251e-07
0.00471282
-6.92176e-07
0.0039534
-1.21657e-06
-3.70913e-07
-0.00430641
-2.12526e-06
-0.00430615
-3.09105e-06
-1.12968e-07
0.0047132
-2.67821e-07
0.00395494
-1.65056e-06
-2.32049e-07
-0.00430357
-2.60733e-06
-0.00430357
-2.80885e-06
3.80995e-07
0.00471338
-5.64717e-07
0.00395642
-1.09339e-06
-3.30882e-07
-0.00430073
-2.51615e-06
-0.00430052
-3.38818e-06
8.63127e-07
0.00471266
-1.43261e-07
0.00395882
-1.54008e-06
-1.64801e-07
-0.00429756
-3.00381e-06
-0.00429754
-3.13557e-06
2.33496e-06
0.00471078
-4.54662e-07
0.00396213
-9.77731e-07
9.72479e-06
-0.00430434
-2.94086e-06
-0.00428409
-3.73071e-06
4.75579e-06
0.00470606
-3.5727e-08
0.00396832
-1.43258e-06
2.78564e-05
-0.00418026
-0.000151934
-0.00420834
-4.78947e-05
1.01035e-05
0.00469632
-3.58139e-07
0.00396092
1.74994e-05
2.76186e-05
-0.00419768
-1.02015e-05
-0.00417439
-6.33203e-06
2.01872e-05
0.00467606
6.83006e-08
0.00393356
4.75513e-05
5.957e-05
-0.00404732
-0.000209931
-0.00405145
-6.33643e-05
0.000200128
0.0044762
-2.64538e-07
0.00405363
8.00608e-05
6.86337e-05
-0.00402663
-8.93267e-05
-0.00400465
2.18337e-05
0.000176686
0.00414655
0.000152961
0.00412084
0.000109475
0.000109497
-0.000157001
-0.00397912
-0.00398637
9.12131e-05
1.20149e-05
4.00286e-05
0.00409451
0.00409438
3.8472e-05
-0.00404135
0.00410736
-0.000155341
-0.00406159
-0.000136757
0.000187006
-0.000165362
-0.00400077
9.17082e-05
-0.00389107
-0.0040217
0.00405913
-4.76287e-05
-0.00012427
-0.00391399
0.00391717
-6.11936e-06
-6.80104e-06
-0.00392016
0.00392298
-5.34377e-06
-5.9874e-06
-0.00392564
0.00392817
-4.65054e-06
-5.26454e-06
-0.00393056
0.0041999
-4.04627e-06
-4.61903e-06
-0.0041893
0.00413299
7.54672e-05
-4.05385e-06
-0.00426702
0.00423451
-3.01152e-06
-8.25326e-05
-0.00409977
0.00404065
-7.45097e-05
0.000105185
-0.00394542
0.00394686
-2.20204e-06
-3.90873e-05
-0.00394822
0.00394951
-1.86771e-06
-2.36333e-06
-0.00395073
0.00395189
-1.57136e-06
-2.0568e-06
-0.00395299
0.00395403
-1.31091e-06
-1.78752e-06
-0.00395501
0.00395595
-1.08189e-06
-1.55142e-06
-0.00395684
0.00395769
-8.79673e-07
-1.34454e-06
-0.00395849
0.00395925
-6.94971e-07
-1.16028e-06
-0.00393655
0.00402959
5.99181e-05
2.24413e-05
0.00401987
4.97454e-05
-2.49331e-05
7.92413e-05
0.0040402
-4.01394e-06
0.00407346
0.00404476
-0.00397769
1.29874e-05
-0.00408451
0.00407614
4.68375e-05
6.97277e-05
0.00397684
-0.00395767
-1.67006e-06
4.67025e-05
0.00395683
-0.00395593
-1.87186e-06
-2.27375e-06
0.003955
-0.00395401
-2.08643e-06
-2.47356e-06
0.00395297
-0.00395186
-2.32108e-06
-2.68895e-06
0.00395071
-0.00394948
-2.58054e-06
-2.92735e-06
0.0039482
-0.00394683
-2.86801e-06
-3.19119e-06
0.00402587
-0.00401886
-3.19264e-06
-3.48518e-06
0.00408513
-0.0040397
-6.13612e-05
-3.81598e-06
0.00401201
-0.0039844
4.64954e-05
3.18272e-06
0.00403289
-0.00405757
3.6969e-05
-4.59652e-05
0.00393053
-0.00392814
-4.90484e-06
-5.06967e-06
0.00392563
-0.00392295
-5.48537e-06
-5.60108e-06
0.00392013
-0.00391713
-6.14256e-06
-6.20719e-06
0.00391396
-0.00395496
-6.89053e-06
-6.89759e-06
0.00395361
-0.00400923
-7.7418e-06
-7.68331e-06
0.00397881
-0.00391864
3.10399e-05
-8.58733e-06
-0.00387346
4.65242e-05
-0.00409019
-0.000136758
0.00403262
6.6499e-05
-4.77787e-07
0.00407261
0.000144886
-0.000132988
-0.00390297
0.000112233
-0.0038408
0.000139485
-0.000133184
-0.0040965
-0.00399427
-0.0040182
0.00395544
-9.25847e-05
0.00406163
-0.00409308
-0.000105312
-9.33197e-05
-0.00390765
0.00391104
-5.10163e-05
-7.64807e-05
-0.00391438
0.00391754
-9.28067e-06
-1.01446e-05
-0.00392051
0.00392332
-8.15353e-06
-8.95274e-06
-0.00392596
0.00392846
-7.1558e-06
-7.90368e-06
-0.00393082
0.00393305
-6.2742e-06
-6.97554e-06
-0.00393515
0.00401612
-5.49801e-06
-6.158e-06
-0.00393902
0.00394081
-4.80061e-06
-5.43222e-06
-0.00405079
0.00398046
-4.1832e-06
-4.79645e-06
-0.00394559
0.00394702
-3.63671e-06
-4.21427e-06
-0.00394837
0.00394966
-3.15318e-06
-3.71324e-06
-0.00395087
0.00395202
-2.72614e-06
-3.26757e-06
-0.00395311
0.00395415
-2.3496e-06
-2.87569e-06
-0.00395513
0.00395607
-2.01726e-06
-2.53071e-06
-0.00395695
0.00395779
-1.7228e-06
-2.22676e-06
-0.00395859
0.00395935
-1.45595e-06
-1.95628e-06
-0.00395976
0.00399226
2.7417e-05
2.20252e-05
9.40677e-06
-1.8211e-05
0.004049
1.92047e-06
0.0040401
-0.00398071
0.0040205
2.67175e-05
6.12961e-05
0.0040225
-0.00402309
4.74223e-05
0.00399046
3.15645e-05
-1.68671e-06
4.65812e-05
0.00402771
0.00405356
0.00402332
-0.00399351
-1.68242e-05
6.99647e-05
0.00395856
-0.00395776
-2.47479e-06
1.17518e-05
0.00395692
-0.00395603
-2.7613e-06
-3.11214e-06
0.0039551
-0.00395412
-3.07285e-06
-3.40118e-06
0.00395308
-0.00395199
-3.41736e-06
-3.71951e-06
0.00395084
-0.00394962
-3.80007e-06
-4.07351e-06
0.00394835
-0.00394699
-4.22564e-06
-4.46763e-06
0.00394557
-0.00394405
-4.70383e-06
-4.90881e-06
0.00394247
-0.00399859
-5.23602e-06
-5.40283e-06
0.00398945
-0.00393712
-5.83569e-06
-5.95918e-06
0.0039765
-0.00393302
-6.51557e-06
-6.58181e-06
0.0039308
-0.00392842
-7.27714e-06
-7.29207e-06
0.00392593
-0.00392327
-8.14457e-06
-8.09548e-06
0.00392047
-0.00391748
-9.13002e-06
-9.0081e-06
0.00391433
-0.00391097
-1.02525e-05
-1.00476e-05
0.00390742
-0.00390363
-1.15318e-05
-1.12325e-05
0.00389963
-0.0038556
-1.29917e-05
-1.2589e-05
0.00382957
-0.00377317
5.5825e-05
2.05009e-05
-0.004119
-0.000107261
9.80176e-05
-0.000160389
-0.00377843
-0.0037455
7.03538e-05
-0.000221038
-0.00384232
2.55674e-05
0.00399685
0.00399682
4.02258e-05
-6.81026e-05
8.98522e-05
-0.00411824
-6.79691e-05
-0.00411914
7.1782e-05
-0.000158348
-0.00369186
4.36885e-05
-0.00371741
-0.00412546
0.00403079
-0.00401858
1.45061e-05
0.00398983
6.65266e-05
7.05202e-05
-3.01619e-05
0.00398735
4.56317e-05
0.0040217
-0.00407223
0.00411952
-0.000115259
-0.000123728
0.000100409
-0.00409582
0.00415967
-7.61002e-05
0.000316352
-0.00439992
-3.62857e-05
-0.00411755
0.00408771
-7.54681e-05
-0.000105295
-0.00403742
0.00397571
-3.08664e-05
-4.30352e-05
-0.0039486
0.00391168
-1.40939e-05
-4.93742e-05
-0.00391498
0.00391811
-1.24077e-05
-1.34484e-05
-0.00392104
0.00392382
-1.09314e-05
-1.18847e-05
-0.00392643
0.0039289
-9.63121e-06
-1.05123e-05
-0.00393123
0.00393344
-8.48344e-06
-9.30239e-06
-0.00393551
0.00393748
-7.46781e-06
-8.23465e-06
-0.00393934
0.00394111
-6.56657e-06
-7.28984e-06
-0.00394276
0.00394435
-5.7674e-06
-6.45255e-06
-0.00394584
0.00394726
-5.0568e-06
-5.70709e-06
-0.0039486
0.00394987
-4.42776e-06
-5.05012e-06
-0.00395107
0.00395222
-3.87109e-06
-4.46766e-06
-0.0039533
0.00395433
-3.37943e-06
-3.95413e-06
-0.0039553
0.00395622
-2.94487e-06
-3.50119e-06
-0.0039571
0.00395794
-2.55966e-06
-3.10131e-06
-0.00395872
0.00395948
-2.21324e-06
-2.74605e-06
-0.00397112
0.00397841
2.01299e-05
1.03883e-05
2.11237e-05
2.62336e-05
-9.73621e-06
0.00403251
-4.22236e-05
1.12565e-05
0.00402782
0.00402411
0.00401367
0.00401134
-0.00400666
4.27423e-05
-0.00400596
0.00398449
6.16964e-05
3.69455e-05
0.00396015
-0.00397404
-2.9397e-06
2.34581e-05
0.00395868
-0.00395788
-3.27344e-06
-3.60243e-06
0.00395705
-0.00395617
-3.64221e-06
-3.94176e-06
0.00395525
-0.00395428
-4.04958e-06
-4.31977e-06
0.00395326
-0.00395217
-4.5024e-06
-4.73955e-06
0.00395104
-0.00394983
-5.00693e-06
-5.20772e-06
0.00394857
-0.00394722
-5.56994e-06
-5.7305e-06
0.00394582
-0.00394432
-6.20159e-06
-6.31613e-06
0.00394275
-0.00394107
-6.90964e-06
-6.97379e-06
0.00393932
-0.00393745
-7.70592e-06
-7.71398e-06
0.00393548
-0.00393339
-8.60639e-06
-8.54849e-06
0.00393119
-0.00392885
-9.62305e-06
-9.49333e-06
0.00392638
-0.00392375
-1.07761e-05
-1.05637e-05
0.00392097
-0.00391802
-1.2086e-05
-1.17796e-05
0.0039149
-0.00391158
-1.35772e-05
-1.31638e-05
0.00390807
-0.00390432
-1.52775e-05
-1.47418e-05
0.00390037
-0.00389614
-1.72212e-05
-1.65453e-05
0.00385702
-0.00378174
-1.94599e-05
-1.86117e-05
0.00373637
-0.0037402
4.75175e-05
2.49867e-05
5.82315e-05
-6.08089e-05
-0.00371483
-0.00371806
3.60892e-05
0.000124402
-0.00414224
-9.70497e-05
-0.00390362
3.86662e-05
0.00396242
0.00399852
3.16011e-05
0.000151572
-0.00432349
7.40857e-06
-0.00376008
0.000857951
-0.00346708
0.00451701
-5.34637e-05
2.6541e-05
-0.00369114
-9.32425e-05
-0.00367505
-0.00273884
0.00417179
0.000618545
-0.00213217
-0.000174177
-0.0040981
-0.00395868
0.00412833
0.0001467
0.000330209
-0.000117092
-0.00409067
0.0040558
-8.03839e-05
1.36861e-06
-0.0040248
0.00397205
-2.27151e-05
-7.43008e-05
-0.00395048
0.00393956
-1.99493e-05
-2.14614e-05
-0.00390909
0.00391255
-1.75542e-05
-1.89036e-05
-0.00391579
0.00391887
-1.54788e-05
-1.66924e-05
-0.00392175
0.00392448
-1.36634e-05
-1.47668e-05
-0.00392705
0.00392948
-1.20672e-05
-1.30787e-05
-0.00393177
0.00393395
-1.06587e-05
-1.15925e-05
-0.00393599
0.00393794
-9.41247e-06
-1.02802e-05
-0.00393977
0.00394151
-8.30779e-06
-9.11909e-06
-0.00394315
0.00394471
-7.3277e-06
-8.09063e-06
-0.00394618
0.00394758
-6.45773e-06
-7.17738e-06
-0.0039489
0.00395015
-5.6859e-06
-6.36924e-06
-0.00395134
0.00395247
-5.00201e-06
-5.65272e-06
-0.00395354
0.00395455
-4.39687e-06
-5.01946e-06
-0.00395551
0.00395643
-3.86147e-06
-4.46006e-06
-0.00395729
0.00395812
-3.38679e-06
-3.96559e-06
-0.0039589
0.00395965
-2.96309e-06
-3.52696e-06
-0.00397318
0.00399589
-2.58707e-06
-3.13689e-06
-0.00398679
0.00398486
1.64368e-05
3.02296e-05
-0.00400094
0.00399681
4.27925e-05
5.04446e-05
5.52361e-05
-3.0831e-05
0.00400341
-3.36824e-05
6.66805e-06
0.00402383
0.00398397
3.90945e-05
1.57559e-05
0.00397766
0.00403238
-2.68086e-05
1.79529e-05
0.00399621
0.00400261
-2.22505e-05
1.93501e-06
0.00401883
0.00401741
0.00402136
-0.00400683
4.71631e-05
-0.00408382
0.00397522
0.000110543
-3.08585e-05
0.00399651
-0.00398772
3.39529e-05
2.66233e-05
0.00396029
-0.00395958
-3.65421e-06
-3.96643e-06
0.00395884
-0.00395805
-4.0608e-06
-4.3426e-06
0.00395723
-0.00395636
-4.51173e-06
-4.76054e-06
0.00395546
-0.00395449
-5.01355e-06
-5.22643e-06
0.00395349
-0.00395242
-5.57288e-06
-5.74606e-06
0.0039513
-0.00395011
-6.19754e-06
-6.3267e-06
0.00394886
-0.00394754
-6.89607e-06
-6.97632e-06
0.00394615
-0.00394467
-7.67983e-06
-7.70484e-06
0.00394312
-0.00394147
-8.56004e-06
-8.52376e-06
0.00393974
-0.00393789
-9.55134e-06
-9.44595e-06
0.00393595
-0.00393389
-1.06706e-05
-1.04863e-05
0.00393172
-0.00392941
-1.19358e-05
-1.16635e-05
0.00392697
-0.00392438
-1.33696e-05
-1.29967e-05
0.00392165
-0.00391874
-1.49978e-05
-1.45104e-05
0.00391567
-0.00391239
-1.68503e-05
-1.62324e-05
0.00390894
-0.00390526
-1.89626e-05
-1.8195e-05
0.00390136
-0.00389721
-2.13782e-05
-2.04374e-05
0.00389281
-0.00388812
-2.4155e-05
-2.30082e-05
0.00383716
-0.00376227
-2.73667e-05
-2.59709e-05
0.00376146
-0.00374339
8.47801e-06
3.52708e-05
3.42932e-05
-3.54547e-05
-0.00368997
-0.00371337
4.27052e-06
0.000120502
-0.00411117
-2.91319e-05
-0.00386708
0.000309683
-0.00377522
7.93904e-06
-0.00386126
0.00399836
-0.00400388
4.83147e-05
0.0039847
2.03295e-05
4.85152e-05
-3.28302e-05
0.00400315
1.1282e-05
0.00401245
0.000302505
-0.00332561
1.52924e-05
-0.0037258
-0.00198406
-0.00209131
-0.00324776
0.00373676
0.000129547
6.22175e-05
-4.10376e-05
-0.00371115
3.26229e-05
-0.00368378
-0.00301712
-0.00040482
-0.00400673
-0.00390141
0.00395566
9.24539e-05
0.000165557
-0.0039899
0.00394018
-3.06678e-05
-3.28724e-05
-0.00389476
0.00389899
-2.69406e-05
-2.88804e-05
-0.00390296
0.00390673
-2.37207e-05
-2.54386e-05
-0.00391028
0.00391365
-2.09196e-05
-2.24533e-05
-0.00391681
0.00391981
-1.8477e-05
-1.98547e-05
-0.00392263
0.0039253
-1.63366e-05
-1.75841e-05
-0.00392781
0.0039302
-1.44537e-05
-1.55917e-05
-0.00393245
0.00393458
-1.27922e-05
-1.38372e-05
-0.00393659
0.0039385
-1.13217e-05
-1.22875e-05
-0.00394029
0.003942
-1.00184e-05
-1.0916e-05
-0.00394361
0.00394515
-8.86171e-06
-9.70074e-06
-0.00394659
0.00394797
-7.83503e-06
-8.62235e-06
-0.00394927
0.0039505
-6.92352e-06
-7.66652e-06
-0.00395167
0.00395278
-6.11496e-06
-6.81874e-06
-0.00395383
0.00395483
-5.39868e-06
-6.06819e-06
-0.00395578
0.00395668
-4.76407e-06
-5.40424e-06
-0.00395753
0.00395835
-4.2015e-06
-4.81675e-06
-0.00395911
0.00395985
-3.7012e-06
-4.29599e-06
-0.00396055
0.00396122
-3.25484e-06
-3.83318e-06
-0.00399487
0.00398152
2.97881e-05
-3.42237e-06
2.8078e-05
4.22412e-05
-6.80415e-05
0.00402921
-1.6953e-05
2.95479e-05
0.00401123
0.00400926
-1.12511e-08
-5.03171e-07
0.00397817
0.00396432
-3.78274e-05
5.63387e-05
0.0039777
0.00396428
0.00404091
0.00402373
-0.00401145
3.48866e-05
-0.00397408
0.00401471
6.99168e-05
1.87862e-05
0.00399902
-0.00396113
-3.93116e-06
1.41908e-05
0.00396047
-0.00395977
-4.35729e-06
-4.62894e-06
0.00395904
-0.00395826
-4.83459e-06
-5.07189e-06
0.00395746
-0.0039566
-5.36717e-06
-5.56595e-06
0.00395571
-0.00395476
-5.96166e-06
-6.11838e-06
0.00395377
-0.00395272
-6.62578e-06
-6.736e-06
0.00395162
-0.00395045
-7.36831e-06
-7.42713e-06
0.00394922
-0.00394792
-8.19998e-06
-8.20139e-06
0.00394655
-0.0039451
-9.13343e-06
-9.07039e-06
0.00394358
-0.00394195
-1.01827e-05
-1.00476e-05
0.00394025
-0.00393844
-1.13647e-05
-1.11484e-05
0.00393653
-0.00393451
-1.26988e-05
-1.23905e-05
0.00393237
-0.0039301
-1.42069e-05
-1.3795e-05
0.00392771
-0.00392517
-1.5915e-05
-1.53853e-05
0.00392249
-0.00391963
-1.78534e-05
-1.71896e-05
0.00391663
-0.00391342
-2.00577e-05
-1.92407e-05
0.00391004
-0.00390643
-2.25699e-05
-2.1577e-05
0.00390262
-0.00389856
-2.54414e-05
-2.4245e-05
0.00389427
-0.00388968
-2.87358e-05
-2.73014e-05
0.00388484
-0.00387968
-3.25315e-05
-3.08155e-05
0.00380953
-0.00376414
-3.69086e-05
-3.48732e-05
0.0037203
-0.0036863
-1.37567e-06
-3.95738e-05
7.29249e-05
-4.17057e-05
-0.00371499
-0.00366021
4.683e-05
9.00106e-05
-0.0038915
1.43969e-06
-0.00386058
4.7526e-05
0.00396672
0.00399998
2.6008e-05
0.00017987
-0.00365259
-0.00047508
-0.00440163
-6.35858e-05
-0.0037371
8.48368e-06
-0.00385446
1.63317e-05
-0.00378317
-0.00433688
-0.000771552
0.00017173
-0.000473864
-0.00403474
-0.000303606
-0.0039263
-4.03064e-05
-0.00371255
3.17697e-05
-9.55933e-05
-0.00365117
6.85481e-05
-0.00369699
-0.00391528
-0.00354597
0.00370802
-3.25082e-05
0.00372518
-0.00409742
-0.000399315
-0.000225603
-0.00382594
0.00388321
3.51784e-05
4.76414e-05
-0.00388793
0.00389244
-3.51766e-05
-3.75871e-05
-0.00389671
0.00390077
-3.10063e-05
-3.31521e-05
-0.00390461
0.00390825
-2.73648e-05
-2.92737e-05
-0.00391169
0.00391495
-2.41802e-05
-2.58862e-05
-0.00391801
0.00392093
-2.13906e-05
-2.29232e-05
-0.00392367
0.00392627
-1.89403e-05
-2.03254e-05
-0.00392872
0.00393105
-1.67822e-05
-1.80417e-05
-0.00393324
0.00393533
-1.48762e-05
-1.60285e-05
-0.00393729
0.00393916
-1.31887e-05
-1.42494e-05
-0.00394091
0.00394259
-1.16925e-05
-1.2674e-05
-0.00394416
0.00394567
-1.03642e-05
-1.12773e-05
-0.00394708
0.00394843
-9.1846e-06
-1.00378e-05
-0.0039497
0.00395092
-8.13684e-06
-8.93801e-06
-0.00395206
0.00395315
-7.20656e-06
-7.96206e-06
-0.00395418
0.00395516
-6.38149e-06
-7.09697e-06
-0.00395609
0.00395698
-5.64996e-06
-6.33074e-06
-0.00395781
0.00395861
-5.00099e-06
-5.6521e-06
-0.00395937
0.00396009
-4.42439e-06
-5.05049e-06
-0.00396077
0.00396143
-3.91152e-06
-4.51639e-06
-0.00396205
0.00399529
-3.45286e-06
-4.04083e-06
-0.0039987
0.0040084
3.86221e-05
2.46623e-05
-0.00395522
0.00397245
3.02959e-05
7.35042e-05
6.61408e-05
-4.88541e-05
0.00399395
-1.34229e-05
-9.72249e-06
0.0039956
0.00401944
4.9355e-05
4.78367e-07
0.00397938
0.00400976
8.9435e-09
-5.02506e-07
0.00397866
0.00396481
9.92045e-07
-1.48454e-06
0.00397819
0.00396477
-2.78196e-05
2.17169e-05
0.00400925
0.00401161
-1.48211e-05
1.978e-05
0.00399502
0.00401934
0.00402817
-0.00398237
2.41196e-05
-0.00400986
0.00398665
4.29886e-05
4.43197e-05
0.00399002
-0.00398097
2.58316e-05
2.64363e-05
0.00396195
-0.00396133
-4.55534e-06
-4.82617e-06
0.00396068
-0.00395999
-5.04533e-06
-5.27889e-06
0.00395927
-0.00395852
-5.59313e-06
-5.78672e-06
0.00395773
-0.00395689
-6.20597e-06
-6.35567e-06
0.00395601
-0.00395508
-6.89123e-06
-6.99293e-06
0.00395411
-0.00395308
-7.65779e-06
-7.70644e-06
0.003952
-0.00395085
-8.51585e-06
-8.50572e-06
0.00394965
-0.00394838
-9.47759e-06
-9.40194e-06
0.00394704
-0.00394561
-1.05576e-05
-1.04084e-05
0.00394412
-0.00394253
-1.17721e-05
-1.15404e-05
0.00394086
-0.00393909
-1.31401e-05
-1.28156e-05
0.00393723
-0.00393524
-1.46836e-05
-1.42543e-05
0.00393315
-0.00393093
-1.6428e-05
-1.58803e-05
0.0039286
-0.00392611
-1.84025e-05
-1.77205e-05
0.00392349
-0.00392071
-2.06417e-05
-1.98068e-05
0.00391777
-0.00391464
-2.31861e-05
-2.21765e-05
0.00391134
-0.00390783
-2.60838e-05
-2.48737e-05
0.00390412
-0.00390017
-2.93928e-05
-2.79512e-05
0.003896
-0.00389155
-3.31833e-05
-3.14725e-05
0.00388686
-0.00388185
-3.75396e-05
-3.55141e-05
0.00387655
-0.0038709
-4.25592e-05
-4.01673e-05
0.00386493
-0.00381793
-4.8377e-05
-4.55485e-05
0.00377175
-0.00369825
-4.94929e-06
6.54467e-07
1.20296e-05
-5.1329e-05
-0.00365769
-0.00369152
5.29327e-06
6.03411e-05
-0.00377197
-0.00414804
-0.000423246
2.87625e-05
-0.00374494
0.00402375
-0.00403343
3.99741e-05
0.00402052
-6.4939e-06
4.12392e-05
-3.52366e-05
0.00398902
5.16041e-05
0.00397628
1.5756e-06
-0.00385367
9.07216e-06
-0.0038472
-0.000101836
-0.00393887
1.74116e-05
-0.00384089
2.67045e-05
-0.00383485
3.70385e-05
-0.00373954
2.87924e-05
-4.50214e-07
-0.00368603
-2.08251e-05
-0.0036419
-0.00385337
-0.00401053
0.003825
-0.000213789
-0.000354522
0.000470388
-0.0042639
0.00417649
-0.00433945
-0.000191565
-0.000257284
-0.00369237
0.00376096
-0.000101099
-9.29651e-05
-0.00383959
0.00388576
-1.09921e-05
-3.09925e-05
-0.00389034
0.0038947
-3.95343e-05
-4.21686e-05
-0.00389882
0.00390274
-3.49251e-05
-3.72695e-05
-0.00390643
0.00390995
-3.08805e-05
-3.29708e-05
-0.00391326
0.00391641
-2.73307e-05
-2.92004e-05
-0.00391938
0.0039222
-2.4212e-05
-2.58914e-05
-0.00392486
0.00392739
-2.14665e-05
-2.29825e-05
-0.00392977
0.00393203
-1.90448e-05
-2.04206e-05
-0.00393416
0.00393619
-1.69039e-05
-1.81594e-05
-0.0039381
0.00393992
-1.50074e-05
-1.61594e-05
-0.00394163
0.00394326
-1.33248e-05
-1.43873e-05
-0.0039448
0.00394627
-1.18303e-05
-1.28152e-05
-0.00394765
0.00394896
-1.05023e-05
-1.14193e-05
-0.00395021
0.00395139
-9.32205e-06
-1.01798e-05
-0.00395251
0.00395358
-8.27339e-06
-9.0792e-06
-0.00395458
0.00395554
-7.34241e-06
-8.10262e-06
-0.00395645
0.00395731
-6.51624e-06
-7.2367e-06
-0.00395813
0.00395891
-5.7829e-06
-6.46907e-06
-0.00395965
0.00396036
-5.13142e-06
-5.7883e-06
-0.00396103
0.00396167
-4.55204e-06
-5.18407e-06
-0.00396227
0.00396285
-4.03427e-06
-4.64678e-06
-0.00399168
0.00400645
2.38611e-05
-4.16782e-06
4.65212e-05
1.84333e-05
-4.34651e-05
0.00401898
-2.95409e-05
1.32154e-06
0.00402382
0.00400833
-8.98611e-07
4.32918e-07
0.00397984
0.0039654
3.3951e-08
-5.05613e-07
0.00397914
0.00396528
9.75753e-07
-1.44667e-06
0.00397866
0.00396524
-4.48649e-05
3.28236e-05
0.00402129
0.0039653
0.00401693
0.00402248
-0.00402464
2.62815e-05
-0.00401408
0.00399683
6.02424e-05
5.27183e-05
0.00399325
-0.00396274
-4.67908e-06
-4.95289e-06
0.00396216
-0.00396155
-5.16736e-06
-5.40331e-06
0.00396092
-0.00396025
-5.71733e-06
-5.91285e-06
0.00395955
-0.00395881
-6.33439e-06
-6.48514e-06
0.00395804
-0.00395722
-7.02562e-06
-7.12738e-06
0.00395636
-0.00395545
-7.79944e-06
-7.84746e-06
0.0039545
-0.0039535
-8.66588e-06
-8.65449e-06
0.00395244
-0.00395132
-9.6365e-06
-9.55921e-06
0.00395015
-0.0039489
-1.07251e-05
-1.05743e-05
0.0039476
-0.00394621
-1.19477e-05
-1.17146e-05
0.00394475
-0.0039432
-1.33228e-05
-1.29972e-05
0.00394157
-0.00393984
-1.48715e-05
-1.44419e-05
0.00393802
-0.00393609
-1.66182e-05
-1.60714e-05
0.00393406
-0.00393189
-1.85911e-05
-1.7912e-05
0.00392962
-0.0039272
-2.0823e-05
-1.99938e-05
0.00392466
-0.00392195
-2.33521e-05
-2.23522e-05
0.00391909
-0.00391606
-2.62236e-05
-2.50288e-05
0.00391286
-0.00390945
-2.94909e-05
-2.80726e-05
0.00390586
-0.00390203
-3.32179e-05
-3.15418e-05
0.003898
-0.0038937
-3.74812e-05
-3.55065e-05
0.00388917
-0.00388433
-4.23725e-05
-4.00502e-05
0.00387923
-0.00387378
-4.80011e-05
-4.52732e-05
0.00386804
-0.00386191
-5.45012e-05
-5.12972e-05
0.003803
-0.00374592
-6.20351e-05
-5.82556e-05
0.00371686
-0.00371571
-2.19718e-05
-2.37676e-05
-0.000241471
5.27078e-05
-0.00373753
-0.00380583
2.06052e-05
7.40072e-06
-0.00366991
-0.00364986
-4.52388e-05
5.60919e-06
-0.00374881
4.52453e-05
0.0039766
0.00403067
1.77596e-05
0.000143205
-0.00430004
-0.000182616
1.75147e-06
-0.00384635
0.000252998
-0.0043737
-2.67193e-05
-0.00382005
9.67933e-06
-0.00383946
-2.88699e-05
-0.00385729
1.85691e-05
-0.00383275
2.85293e-05
-0.00382634
3.96432e-05
-0.00377963
1.12408e-05
-0.00368987
-1.51398e-05
7.33042e-06
-0.0036621
-1.88896e-05
-0.00364611
-0.00384601
-0.00426985
0.00410162
-2.33352e-05
-0.000285911
-0.00423156
0.000217432
0.00438509
-0.00427548
-0.000395524
-6.73753e-05
-0.00399011
0.00390626
-0.000129942
-0.000145769
-0.00387316
0.00382817
-5.61046e-05
-5.98661e-05
-0.00384991
0.00388844
-4.95166e-05
-5.27374e-05
-0.00389289
0.00389711
-4.37533e-05
-4.66185e-05
-0.00390108
0.00390486
-3.87029e-05
-4.12449e-05
-0.00390842
0.00391181
-3.42674e-05
-3.6533e-05
-0.003915
0.00391804
-3.0368e-05
-3.2394e-05
-0.0039209
0.00392362
-2.69353e-05
-2.87544e-05
-0.00392619
0.00392863
-2.39086e-05
-2.55493e-05
-0.00393093
0.00393313
-2.12352e-05
-2.2722e-05
-0.00393519
0.00393715
-1.88694e-05
-2.02236e-05
-0.00393901
0.00394077
-1.67721e-05
-1.80118e-05
-0.00394244
0.00394402
-1.49102e-05