/*--------------------------------*- C++ -*----------------------------------*\
  =========                 |
  \\      /  F ield         | OpenFOAM: The Open Source CFD Toolbox
   \\    /   O peration     | Website:  https://openfoam.org
    \\  /    A nd           | Version:  10
     \\/     M anipulation  |
\*---------------------------------------------------------------------------*/
FoamFile
{
    format      ascii;
    class       volVectorField;
    location    "21.5";
    object      U;
}
// * * * * * * * * * * * * * * * * * * * * * * * * * * * * * * * * * * * * * //

dimensions      [0 1 -1 0 0 0 0];

internalField   nonuniform List<vector> 
28942
(
(0.00473868 -0.00242185 -3.03975e-22)
(0.00641397 -0.00255202 -5.426e-23)
(0.0182302 -0.0125758 -9.4881e-22)
(0.103304 0.0182413 -5.64635e-21)
(0.102342 0.0222826 1.84516e-21)
(0.0230739 0.000845242 0)
(0.0274908 0.000466555 2.05191e-23)
(0.0315997 0.00108465 -1.82504e-23)
(0.134966 -0.0161333 -3.19013e-22)
(0.133485 -0.0145436 9.02976e-22)
(0.0109801 0.00491768 -5.44176e-22)
(0.017647 0.0066783 1.91658e-22)
(0.00792569 0.00370943 0)
(0.00534313 0.0025278 0)
(0.0668386 0.00250625 -2.61997e-23)
(0.0646199 0.003451 -8.8989e-24)
(0.0894401 0.0158491 7.09364e-22)
(0.087124 0.0138457 1.13954e-21)
(0.0122412 -0.0151939 3.21175e-21)
(0.0295294 -0.0306267 -8.46481e-22)
(0.0984951 0.0371221 1.022e-21)
(0.097622 0.034178 0)
(0.0197923 0.00516456 1.08589e-21)
(0.00836857 0.00260935 4.9965e-22)
(0.0392434 0.00785516 8.55261e-22)
(0.059361 0.0034856 -7.79685e-22)
(0.00768245 -0.0184956 8.9117e-21)
(0.0067221 -0.016556 -3.27367e-21)
(0.0359012 -0.0255362 6.58669e-22)
(0.0195027 -0.0138037 2.29367e-22)
(0.0236031 -0.00225979 0)
(0.0295075 -0.00215431 -2.20514e-23)
(0.0369391 0.00600137 4.70668e-22)
(0.0518161 0.00228866 -8.63432e-23)
(0.0189912 0.0181479 1.41449e-21)
(0.0158496 0.0192623 -1.44126e-21)
(0.0324269 0.0378811 -3.22996e-21)
(0.0188067 0.0307607 -1.11434e-21)
(0.0129196 0.000218942 -1.6897e-23)
(0.00871658 0.016319 -2.74539e-21)
(0.0306465 -0.00620336 0)
(0.0513391 -0.01097 0)
(0.10761 -0.0145108 -4.65584e-23)
(0.107385 -0.0138099 1.37688e-22)
(0.108825 -0.0143685 1.19391e-22)
(0.0438601 0.000573474 2.02967e-23)
(0.0409261 -0.000454774 -3.36286e-23)
(0.0569875 -0.000479114 -1.40893e-22)
(0.0548025 -0.000534402 3.96142e-23)
(0.0452667 -0.00361486 -3.46062e-22)
(0.0344886 -0.00461147 2.20923e-22)
(0.126167 0.00246721 -5.24857e-22)
(0.125742 0.00200805 -4.79768e-22)
(0.13447 -0.0190456 -3.97757e-24)
(0.132789 -0.0173614 1.69827e-22)
(0.0860684 0.00832992 6.35747e-22)
(0.105494 0.00129313 1.94438e-22)
(0.00341346 0.00186274 -4.96589e-22)
(0.00976574 0.00419601 0)
(0.00892492 0.00367533 2.154e-22)
(0.00318721 0.00168261 4.27085e-22)
(0.000438785 0.000278954 -3.57413e-22)
(0.0002572 0.000167749 -3.35781e-22)
(0.111591 -0.042509 0)
(0.107148 -0.0252598 9.48507e-23)
(0.123911 -0.0323349 -2.54306e-23)
(0.125122 -0.0431668 0)
(0.0903454 -0.0325345 -6.79529e-22)
(0.0938703 -0.0349585 -4.47976e-22)
(0.00202338 -0.00120243 1.00195e-21)
(0.00267652 -0.00214458 -3.16815e-22)
(0.00521014 -0.00335975 7.86995e-22)
(0.0852406 -0.045541 0)
(0.0915224 -0.0393359 2.31383e-21)
(0.0809705 -0.0528854 6.27314e-22)
(0.117199 0.0110172 1.66745e-22)
(0.11617 0.00506156 -1.88034e-22)
(0.128183 0.00878507 -3.93919e-23)
(0.00475982 -0.00290715 -6.1034e-23)
(0.0064429 -0.00449523 5.44197e-22)
(0.0518155 -0.0314765 1.60915e-22)
(0.0337428 -0.0208421 -2.80371e-22)
(0.00224602 -0.000666913 3.08323e-21)
(0.00542278 -0.00222019 -1.20359e-21)
(0.102545 0.0483641 3.48867e-23)
(0.0983035 0.0553903 -8.54901e-22)
(0.0817051 0.0543266 7.87229e-22)
(0.0477902 0.0348284 -2.96799e-21)
(0.0450142 0.0319292 2.10306e-21)
(0.0298602 0.0208162 -1.2914e-22)
(0.0331027 0.0234844 -7.00309e-22)
(0.0383922 0.0286225 9.5304e-22)
(0.00538807 0.00370314 -3.62868e-23)
(0.00915246 0.00527558 -1.16771e-23)
(0.00381468 0.0026166 2.33995e-23)
(0.00239866 0.00217732 -2.98996e-22)
(0.00189945 0.00212071 3.57652e-22)
(0.0159159 0.011659 -3.56947e-21)
(0.0176779 0.0137608 8.23088e-22)
(0.00918593 -0.00405385 0)
(0.101389 0.00516069 0)
(0.0983999 0.0156855 -4.18757e-21)
(0.0604363 0.0104758 2.13118e-21)
(0.0886751 0.0178823 0)
(0.135684 -0.00741807 0)
(0.135016 -0.00842401 0)
(0.133971 -0.00891013 -5.25831e-22)
(0.115185 0.0257127 -2.36664e-22)
(0.11431 0.027178 2.32773e-21)
(0.113458 0.0246509 1.24896e-21)
(0.00262095 0.00153927 9.07145e-22)
(0.00178307 0.000969929 -1.01818e-21)
(0.0202806 -0.00610718 -4.8003e-22)
(0.0216943 -0.00585392 3.95266e-22)
(0.00987187 -0.00331357 7.64944e-22)
(0.00651196 0.0112569 1.53955e-21)
(0.0190631 0.018323 3.60928e-21)
(0.0135501 0.0229829 2.74107e-22)
(0.00495173 0.0144232 -8.99328e-21)
(0.118665 0.0474925 6.62662e-23)
(0.109008 0.0581082 1.21341e-21)
(0.119626 0.0545339 -2.09416e-21)
(0.0394595 -0.0296263 8.00864e-22)
(0.02423 -0.0174006 -5.2617e-22)
(0.00533535 -0.000685197 -4.27483e-21)
(0.00455005 -0.00354854 0)
(0.012538 -0.00159234 2.09557e-21)
(0.0221472 -0.016247 8.4178e-22)
(0.0345385 -0.0279609 -2.1373e-21)
(0.0542124 0.000121993 1.01971e-22)
(0.0573138 0.000285243 -6.89959e-23)
(0.0511671 0.000349886 -3.12211e-24)
(0.0282379 -0.0421126 0)
(0.0297842 -0.0429491 0)
(0.089615 -0.0186556 -5.10359e-22)
(0.0995824 -0.0220943 3.44266e-21)
(0.0870309 -0.0252797 0)
(0.0474999 -0.0403895 0)
(0.058624 -0.0515463 -8.5134e-22)
(0.0416756 0.0396134 2.20854e-21)
(9.66359e-05 0.000326039 3.83788e-22)
(-0.000131869 0.000209883 -2.38544e-22)
(0.0224893 -0.0193604 -8.58842e-22)
(0.110376 -0.0146205 6.87687e-22)
(0.109983 -0.0140848 -1.28786e-22)
(0.11896 -0.0031898 -4.31469e-23)
(0.112271 0.00404262 5.75e-23)
(0.121273 0.00304323 5.19441e-23)
(0.000160122 0.000332634 1.56981e-22)
(0.0442254 0.0347054 3.46225e-21)
(0.0625887 0.0466405 -8.56265e-22)
(0.0601266 0.0397308 -3.44859e-24)
(0.0363363 -0.00130661 8.73842e-24)
(0.035835 -0.00140371 4.82658e-23)
(0.0387224 -0.00140047 2.62427e-24)
(0.043013 -0.00111885 -2.40019e-23)
(0.0458731 0.0383732 1.36122e-22)
(0.0191438 0.0161917 0)
(0.000200298 -3.67728e-05 2.59264e-22)
(0.0005109 -0.000338446 -2.8794e-22)
(0.00221334 -0.00126227 1.87491e-22)
(0.0380039 -0.00833098 -1.73971e-21)
(0.0670229 -0.00275116 -6.93375e-22)
(0.0493762 -0.000725895 -2.06197e-24)
(0.0762792 -0.00737924 2.58185e-22)
(0.0722358 -0.0157504 -1.10169e-23)
(0.0947032 0.0397176 2.29454e-21)
(0.0918703 0.0453059 9.88704e-23)
(0.0889896 0.0289899 1.2945e-21)
(0.09173 0.030673 -9.38112e-22)
(0.0991297 0.0408061 0)
(0.12433 -0.00142686 1.86349e-22)
(0.124888 -0.00184578 3.58447e-22)
(0.127419 -0.0104592 -3.60935e-22)
(0.128811 -0.0101494 6.20848e-22)
(0.117193 0.0230987 2.93627e-22)
(0.119273 0.0239028 -8.33211e-22)
(0.117297 0.0251456 0)
(0.115302 0.0239681 1.71089e-22)
(0.116924 0.0271233 0)
(0.117637 0.0352347 -6.14966e-22)
(0.116213 0.0373719 -3.32858e-22)
(0.111887 0.0413709 -5.94064e-22)
(0.114261 0.0394101 0)
(0.117069 0.0423479 1.9871e-21)
(0.114359 0.0443747 4.73346e-23)
(0.108905 0.0436816 -3.30811e-22)
(0.100242 0.0500266 -1.3974e-21)
(0.0989239 0.0452322 -2.45528e-22)
(0.0295428 -0.0118673 -1.66354e-23)
(0.0381227 -0.0134102 5.77114e-24)
(0.00692619 -0.0028921 -5.75226e-22)
(0.0486982 7.68016e-05 -6.86666e-23)
(0.0608833 -0.000257836 0)
(1.7143e-05 -5.83967e-05 3.15876e-22)
(2.85837e-05 -6.45266e-05 1.62609e-22)
(0.0555636 -0.00234384 3.03144e-23)
(0.0644157 -0.00225376 1.11069e-23)
(0.0638087 -0.00146373 0)
(0.0539234 -0.000901442 1.30741e-23)
(0.108245 0.000867766 -1.53448e-22)
(0.108206 0.000770061 7.34864e-22)
(0.108344 0.00078598 3.56576e-22)
(0.000847205 0.000395635 3.24769e-22)
(-0.00014017 -0.000116416 -4.87905e-22)
(-0.000191299 -0.000169725 3.98748e-22)
(0.0016673 0.000718567 0)
(0.000113299 0.000114916 1.05959e-21)
(0.000214668 -1.89263e-05 -7.3998e-22)
(0.00788397 0.0039001 -9.22231e-22)
(0.00158056 0.000851553 -1.12965e-21)
(0.00184732 0.000926573 0)
(0.0015815 0.00760835 0)
(0.000580812 0.00330865 0)
(0.00031527 0.00199408 0)
(0.136129 -0.0075625 1.04356e-22)
(0.136519 -0.0074154 0)
(0.135425 -0.00865386 -1.2017e-22)
(0.0882071 -0.0147174 4.69295e-21)
(0.0902088 -0.0151198 -1.70402e-21)
(0.0891193 -0.0127541 0)
(0.110415 1.58206e-05 -8.85244e-24)
(0.110467 1.42309e-05 1.77187e-23)
(0.11036 1.81126e-05 -5.98951e-24)
(0.110517 1.2928e-05 0)
(0.110563 1.23003e-05 -1.12995e-23)
(0.110608 1.10589e-05 0)
(0.110607 -3.56059e-05 0)
(0.110649 8.82771e-06 4.19175e-23)
(0.110648 -3.63325e-05 0)
(0.110563 -3.62625e-05 -1.13727e-23)
(0.110517 -3.73189e-05 0)
(0.110467 -3.85277e-05 5.92752e-24)
(0.110415 -4.00556e-05 -8.85147e-24)
(0.11036 -4.15639e-05 5.98202e-24)
(0.110688 6.86388e-06 -4.01116e-23)
(0.110687 -3.6383e-05 -1.40403e-24)
(0.110302 2.0462e-05 8.31235e-28)
(0.110302 -4.25562e-05 -9.1507e-24)
(0.11024 2.29049e-05 4.86844e-23)
(0.110725 5.73748e-06 3.75035e-26)
(0.110725 -3.54542e-05 -1.40503e-24)
(0.11024 -4.40204e-05 1.80392e-23)
(0.11076 4.47897e-06 3.777e-23)
(0.110794 3.39455e-06 -3.77389e-23)
(0.11076 -3.45956e-05 2.82932e-24)
(0.110794 -3.36644e-05 5.59272e-24)
(0.110176 2.73543e-05 -4.73676e-23)
(0.110176 -4.60923e-05 -1.18744e-23)
(0.110826 2.28023e-06 0)
(0.110825 -3.2833e-05 -5.51631e-24)
(0.110107 3.04066e-05 5.86067e-27)
(0.110107 -4.75183e-05 -5.87537e-27)
(0.110856 1.38924e-06 0)
(0.110856 -3.18878e-05 0)
(0.110035 3.32494e-05 0)
(0.110035 -4.93856e-05 0)
(0.110884 5.30816e-07 0)
(0.110884 -3.09765e-05 2.65151e-24)
(0.109958 3.63486e-05 -2.46178e-23)
(0.109957 -5.1145e-05 -6.00632e-27)
(0.110911 -1.70317e-07 1.3901e-25)
(0.110911 -2.99642e-05 -2.83184e-24)
(0.109876 3.95007e-05 2.47354e-23)
(0.109875 -5.31532e-05 0)
(0.110937 -9.11883e-07 0)
(0.110937 -2.90067e-05 0)
(0.10979 4.31061e-05 -1.5666e-24)
(0.109789 -5.49494e-05 2.68933e-23)
(0.110961 -1.60084e-06 1.72017e-23)
(0.110961 -2.79288e-05 0)
(0.109698 4.65468e-05 -1.41595e-25)
(0.109698 -5.71932e-05 -2.54544e-23)
(0.110984 -2.40152e-06 -2.57327e-23)
(0.110984 -2.70059e-05 -7.47003e-24)
(0.1096 4.87248e-05 2.59743e-23)
(0.1096 -5.948e-05 0)
(0.111006 -3.19063e-06 8.47787e-24)
(0.111007 -2.59593e-05 4.98218e-24)
(0.109496 5.21823e-05 -1.31598e-23)
(0.109496 -6.2654e-05 2.669e-23)
(0.111027 -3.90558e-06 -3.38905e-23)
(0.111028 -2.43377e-05 3.81977e-23)
(0.109383 5.29065e-05 1.3587e-23)
(0.109384 -6.62246e-05 4.30235e-25)
(0.111048 -4.59047e-06 0)
(0.111048 -2.31714e-05 1.82188e-23)
(0.109262 5.43937e-05 -2.73598e-23)
(0.109264 -7.13398e-05 5.47404e-23)
(0.111068 -4.83352e-06 0)
(0.111068 -2.28162e-05 0)
(0.109389 0.000170673 -1.34443e-23)
(0.109268 0.000179792 -5.44959e-23)
(0.109131 5.50194e-05 0)
(0.109135 -7.86858e-05 -2.79264e-23)
(0.109606 0.000152546 -8.43513e-24)
(0.1095 0.000161763 1.6562e-24)
(0.109795 0.000134461 0)
(0.109703 0.000143548 -2.71943e-23)
(0.109963 0.000117994 -5.23965e-26)
(0.109882 0.000126011 0)
(0.110112 0.00010304 0)
(0.11004 0.000110358 0)
(0.110246 8.86556e-05 0)
(0.110181 9.5859e-05 0)
(0.110364 7.70667e-05 1.18304e-23)
(0.110306 8.28128e-05 2.98279e-24)
(0.11047 6.71669e-05 -1.14047e-23)
(0.110419 7.19492e-05 -1.18187e-23)
(0.110565 5.84923e-05 2.02426e-23)
(0.110519 6.21718e-05 2.58939e-23)
(0.110652 5.09276e-05 0)
(0.11061 5.48511e-05 0)
(0.110728 4.36946e-05 -8.89817e-26)
(0.110691 4.72263e-05 0)
(0.110796 3.7419e-05 0)
(0.110763 4.04394e-05 0)
(0.110858 3.19748e-05 0)
(0.110828 3.46129e-05 0)
(0.110913 2.71617e-05 0)
(0.110886 2.94891e-05 0)
(0.110963 2.29718e-05 0)
(0.110939 2.5e-05 0)
(0.111008 1.93172e-05 0)
(0.110986 2.10933e-05 0)
(0.111049 1.51586e-05 -1.38638e-23)
(0.111029 1.76228e-05 0)
(0.111069 1.32048e-05 -4.4841e-24)
(0.111087 -5.46531e-06 4.37501e-24)
(0.111086 -2.23452e-05 -4.3386e-24)
(0.111029 -4.46716e-05 0)
(0.111068 -4.07698e-05 -1.78007e-23)
(0.111049 -4.24259e-05 -9.15592e-24)
(0.110986 -4.95717e-05 2.50327e-24)
(0.111008 -4.70364e-05 -9.80687e-24)
(0.110938 -5.41991e-05 8.1064e-26)
(0.110963 -5.20215e-05 0)
(0.110886 -5.86134e-05 0)
(0.110913 -5.63688e-05 0)
(0.110827 -6.34174e-05 0)
(0.110857 -6.09447e-05 0)
(0.110762 -6.87417e-05 0)
(0.110796 -6.60224e-05 1.06592e-29)
(0.11069 -7.45973e-05 8.99201e-26)
(0.110727 -7.15912e-05 0)
(0.110609 -8.11333e-05 0)
(0.11065 -7.79411e-05 0)
(0.110519 -8.74612e-05 0)
(0.110565 -8.43148e-05 0)
(0.110419 -9.51208e-05 0)
(0.11047 -9.08526e-05 -5.98987e-24)
(0.110306 -0.000104627 1.57473e-24)
(0.110364 -0.000100372 -7.72963e-24)
(0.11018 -0.000116087 0)
(0.110245 -0.000109657 -6.29209e-24)
(0.110039 -0.000128142 0)
(0.110112 -0.000121992 0)
(0.109881 -0.000141685 0)
(0.109962 -0.000134688 0)
(0.109702 -0.000157099 0)
(0.109794 -0.000149193 0)
(0.109501 -0.00017428 -6.89109e-24)
(0.109605 -0.000165112 0)
(0.109273 -0.000195754 -2.80116e-23)
(0.109391 -0.000183876 -6.9393e-24)
(0.109146 -0.000209441 2.85494e-23)
(0.109138 0.000189772 5.40539e-23)
(0.111088 1.16579e-05 8.77725e-24)
(0.111087 -3.93195e-05 -1.7159e-23)
(0.108995 -8.81668e-05 0)
(0.109009 -0.000226356 0)
(0.109 0.000200424 0)
(0.108992 5.44135e-05 0)
(0.109402 0.000286664 0)
(0.109156 0.000323335 1.35432e-23)
(0.109283 0.000304112 1.36559e-23)
(0.109618 0.00025332 1.73311e-23)
(0.109513 0.000269689 -3.46442e-24)
(0.109806 0.000223108 5.3514e-26)
(0.109715 0.000237603 0)
(0.109973 0.000196765 0)
(0.109892 0.000209552 0)
(0.110121 0.000173354 0)
(0.110049 0.000184714 0)
(0.110253 0.000152824 0)
(0.110189 0.000162668 0)
(0.110371 0.000134049 0)
(0.110314 0.000143237 0)
(0.110477 0.000118108 -4.78231e-26)
(0.110425 0.000126135 1.23349e-23)
(0.110571 0.000103932 -4.59186e-26)
(0.110525 0.000110471 -2.4083e-23)
(0.110656 9.10285e-05 0)
(0.110614 9.72346e-05 0)
(0.110732 7.97381e-05 4.44491e-26)
(0.110695 8.52095e-05 0)
(0.1108 6.98488e-05 0)
(0.110767 7.46246e-05 0)
(0.110861 6.11659e-05 0)
(0.110831 6.53633e-05 0)
(0.110916 5.35309e-05 0)
(0.110889 5.72153e-05 0)
(0.110966 4.68055e-05 0)
(0.110942 5.00545e-05 0)
(0.111011 4.0698e-05 0)
(0.110989 4.36866e-05 0)
(0.111052 3.43112e-05 9.4687e-24)
(0.111032 3.75638e-05 0)
(0.111104 -6.24516e-06 0)
(0.111105 1.03654e-05 8.5934e-24)
(0.111089 2.83857e-05 0)
(0.111071 3.116e-05 9.23269e-24)
(0.11107 -5.91691e-05 1.83756e-23)
(0.111088 -5.67308e-05 4.51871e-24)
(0.111104 -3.8051e-05 3.52407e-23)
(0.111104 -2.16678e-05 0)
(0.111031 -6.55379e-05 0)
(0.111051 -6.21056e-05 -2.77363e-23)
(0.110988 -7.23178e-05 7.8878e-26)
(0.11101 -6.88316e-05 9.86652e-24)
(0.110941 -7.89403e-05 -8.10637e-26)
(0.110965 -7.55866e-05 0)
(0.110889 -8.60658e-05 0)
(0.110915 -8.24221e-05 0)
(0.110831 -9.394e-05 0)
(0.11086 -8.98952e-05 0)
(0.110766 -0.000102708 0)
(0.110799 -9.82111e-05 -1.06592e-29)
(0.110694 -0.000112431 -1.79809e-25)
(0.110731 -0.000107446 0)
(0.110614 -0.000123501 0)
(0.110655 -0.000117753 0)
(0.110525 -0.000135674 3.02434e-24)
(0.110571 -0.000129404 0)
(0.110425 -0.000149108 0)
(0.110476 -0.000141974 -3.01172e-24)
(0.110313 -0.000164853 6.30689e-24)
(0.11037 -0.000156858 6.26358e-24)
(0.110188 -0.000182534 0)
(0.110253 -0.000173491 0)
(0.110048 -0.000202514 0)
(0.11012 -0.000192208 0)
(0.10989 -0.000225256 0)
(0.109971 -0.000213513 0)
(0.109713 -0.000251197 0)
(0.109804 -0.000237818 0)
(0.109513 -0.000280752 1.10543e-25)
(0.109616 -0.000265476 0)
(0.109288 -0.000314986 -1.12356e-25)
(0.109404 -0.000297199 0)
(0.10903 -0.000359191 -2.94322e-23)
(0.109163 -0.000335976 2.94187e-23)
(0.109021 0.000343896 2.7589e-23)
(0.108863 -0.00024625 0)
(0.108887 -0.000386741 -6.00458e-23)
(0.108848 -9.86833e-05 0)
(0.111107 2.64602e-05 0)
(0.111106 -5.42874e-05 -4.38735e-24)
(0.108852 0.000211885 7.00286e-23)
(0.108876 0.000366258 2.80186e-23)
(0.108707 -0.000267751 1.51744e-23)
(0.108733 -0.00041711 7.58872e-23)
(0.108842 5.41337e-05 0)
(0.111092 4.63477e-05 3.61571e-23)
(0.111109 4.28537e-05 -1.7866e-23)
(0.111122 -3.70196e-05 -8.68892e-24)
(0.111123 -5.19198e-05 4.32173e-23)
(0.108913 0.000517383 9.80929e-23)
(0.10872 0.00039107 -5.51621e-23)
(0.108594 0.000594242 -2.4992e-22)
(0.108759 0.000552858 -5.60262e-23)
(0.109185 0.000454841 2.72907e-23)
(0.109054 0.000485094 -8.34607e-23)
(0.109424 0.000400179 -2.78716e-23)
(0.109309 0.000426699 -2.1049e-23)
(0.109636 0.000352571 -6.93309e-24)
(0.109534 0.000375786 -6.94934e-24)
(0.109822 0.000311122 -5.3514e-26)
(0.109732 0.000331067 0)
(0.109987 0.000274913 0)
(0.109907 0.000292447 0)
(0.110134 0.000242994 0)
(0.110062 0.000258456 0)
(0.110264 0.00021486 0)
(0.110201 0.000228475 0)
(0.110381 0.000189919 0)
(0.110324 0.000201951 0)
(0.110486 0.000167772 0)
(0.110435 0.000178479 0)
(0.110579 0.000148178 9.7252e-30)
(0.110534 0.000157795 0)
(0.110663 0.00013086 0)
(0.110622 0.000139196 0)
(0.110738 0.000115535 4.44378e-26)
(0.110701 0.000122971 0)
(0.110806 0.000102001 0)
(0.110773 0.000108553 0)
(0.110866 9.00767e-05 0)
(0.110837 9.58496e-05 0)
(0.110921 7.95696e-05 0)
(0.110894 8.46558e-05 0)
(0.11097 7.02774e-05 0)
(0.110946 7.47834e-05 0)
(0.111015 6.18948e-05 0)
(0.110993 6.59978e-05 0)
(0.111055 5.38042e-05 4.82638e-24)
(0.111035 5.7794e-05 -2.42806e-24)
(0.111074 4.99776e-05 -1.84376e-23)
(0.111121 -6.46857e-06 -4.11419e-24)
(0.111124 2.45832e-05 1.72163e-23)
(0.111122 8.88897e-06 -1.31487e-23)
(0.111121 -2.11829e-05 0)
(0.111072 -7.80264e-05 -1.3695e-23)
(0.111108 -7.05549e-05 -3.95706e-23)
(0.11109 -7.41197e-05 3.18402e-23)
(0.111034 -8.64615e-05 0)
(0.111053 -8.21965e-05 0)
(0.110992 -9.46014e-05 -2.48904e-30)
(0.111013 -9.03278e-05 0)
(0.110945 -0.000103525 0)
(0.110969 -9.89611e-05 0)
(0.110893 -0.00011336 -8.32545e-26)
(0.11092 -0.000108318 0)
(0.110836 -0.000124287 0)
(0.110865 -0.000118677 0)
(0.110772 -0.000136469 0)
(0.110804 -0.000130214 0)
(0.110701 -0.000150061 8.99023e-26)
(0.110737 -0.00014308 0)
(0.110621 -0.000165335 9.21302e-26)
(0.110662 -0.000157457 0)
(0.110533 -0.000182457 0)
(0.110578 -0.000173636 0)
(0.110434 -0.000201793 0)
(0.110485 -0.000191865 0)
(0.110323 -0.000223621 0)
(0.11038 -0.000212293 0)
(0.1102 -0.000248259 0)
(0.110263 -0.000235567 0)
(0.110061 -0.000276268 -1.03497e-25)
(0.110132 -0.000261817 0)
(0.109905 -0.000308134 0)
(0.109985 -0.000291687 0)
(0.10973 -0.000344448 0)
(0.10982 -0.000325703 0)
(0.109532 -0.000385866 -2.03263e-29)
(0.109634 -0.000364476 0)
(0.10931 -0.000433305 2.66738e-29)
(0.109424 -0.000408773 0)
(0.109058 -0.000489845 1.16615e-25)
(0.109188 -0.000459861 0)
(0.108768 -0.000561538 -6.15495e-23)
(0.108918 -0.000523462 1.51073e-23)
(0.10857 -0.000449152 1.5495e-23)
(0.10861 -0.000603342 3.07266e-23)
(0.108695 0.000223666 -2.73626e-23)
(0.108689 -0.000110872 -2.94122e-23)
(0.111126 3.99965e-05 4.38104e-24)
(0.111125 -6.75616e-05 3.11053e-23)
(0.108549 0.000414772 3.36551e-24)
(0.10854 -0.000291887 0)
(0.108388 0.000618191 3.8198e-22)
(0.108442 -0.000648004 4.75343e-23)
(0.108398 -0.000484222 6.33885e-23)
(0.108424 0.000864423 -6.43384e-22)
(0.108285 0.000940873 1.14718e-22)
(0.108686 5.43551e-05 0)
(0.108675 0.000757559 6.31889e-23)
(0.10854 0.000816249 3.29052e-23)
(0.108961 0.000662419 5.69014e-23)
(0.108818 0.000707161 -8.68949e-23)
(0.109224 0.000581196 -2.82826e-23)
(0.109097 0.000620813 -1.41408e-23)
(0.109456 0.00051092 1.41597e-23)
(0.109344 0.000544576 1.43608e-23)
(0.109662 0.000450213 0)
(0.109562 0.000479478 -3.59626e-26)
(0.109844 0.000397758 0)
(0.109756 0.000423091 0)
(0.110006 0.000351885 5.23301e-26)
(0.109928 0.000374072 0)
(0.11015 0.000311571 0)
(0.11008 0.000331091 0)
(0.110279 0.000276023 0)
(0.110217 0.000293243 0)
(0.110394 0.000244611 0)
(0.110338 0.000259827 0)
(0.110497 0.000216766 4.77774e-26)
(0.110447 0.000230248 0)
(0.110589 0.000192064 9.01409e-30)
(0.110544 0.000204093 0)
(0.110672 0.000170217 0)
(0.110632 0.000180788 0)
(0.110746 0.000150847 -8.88681e-26)
(0.11071 0.000160245 0)
(0.110813 0.000133715 0)
(0.11078 0.000142015 0)
(0.110873 0.000118595 0)
(0.110844 0.000125921 0)
(0.110927 0.000105247 0)
(0.1109 0.000111715 0)
(0.110975 9.34358e-05 0)
(0.110952 9.91651e-05 0)
(0.111019 8.28689e-05 0)
(0.110998 8.80234e-05 0)
(0.111059 7.31502e-05 -2.41148e-24)
(0.11104 7.78147e-05 0)
(0.111095 6.42865e-05 0)
(0.111078 6.86589e-05 -4.68224e-24)
(0.111129 5.5586e-05 1.96964e-27)
(0.111112 5.98393e-05 0)
(0.11114 2.26937e-05 -1.74554e-23)
(0.111144 5.19937e-05 1.05503e-24)
(0.111142 3.76695e-05 8.5571e-24)
(0.111137 -6.50817e-06 6.27958e-24)
(0.111138 7.86636e-06 -4.3345e-24)
(0.111138 -3.61349e-05 -2.18182e-24)
(0.111137 -2.10519e-05 2.17832e-24)
(0.11114 -6.53275e-05 0)
(0.111139 -5.02596e-05 -1.97986e-23)
(0.111111 -8.76598e-05 -8.89889e-24)
(0.111142 -8.06856e-05 -1.70319e-23)
(0.111127 -8.38572e-05 3.91913e-23)
(0.111076 -9.65478e-05 -4.66244e-24)
(0.111094 -9.19204e-05 0)
(0.111038 -0.000106515 0)
(0.111057 -0.000101473 0)
(0.110996 -0.000116627 -4.38253e-30)
(0.111017 -0.000111488 0)
(0.11095 -0.000127854 0)
(0.110974 -0.000122091 0)
(0.110899 -0.000140343 8.32545e-26)
(0.110925 -0.000133932 0)
(0.110842 -0.000154269 0)
(0.110871 -0.000147116 0)
(0.110779 -0.000169827 0)
(0.110811 -0.000161834 0)
(0.110709 -0.000187235 0)
(0.110745 -0.000178286 0)
(0.110631 -0.000206781 -1.00403e-29)
(0.110671 -0.000196723 0)
(0.110544 -0.000228742 0)
(0.110588 -0.000217437 0)
(0.110446 -0.000253525 0)
(0.110496 -0.000240771 0)
(0.110337 -0.000281519 0)
(0.110393 -0.000267069 0)
(0.110215 -0.000313194 0)
(0.110278 -0.000296864 0)
(0.110078 -0.000349139 1.03497e-25)
(0.110148 -0.000330599 0)
(0.109924 -0.00039 0)
(0.110003 -0.000368913 0)
(0.109752 -0.000436546 0)
(0.109841 -0.000412515 0)
(0.109558 -0.000489663 -1.10513e-25)
(0.109658 -0.000462224 0)
(0.109339 -0.000550412 1.12892e-25)
(0.109451 -0.000519017 0)
(0.109092 -0.000620392 -1.15297e-25)
(0.109219 -0.000584108 0)
(0.108812 -0.000703911 1.52061e-23)
(0.108956 -0.000659641 -2.99718e-23)
(0.108494 -0.000806784 -1.53765e-23)
(0.108657 -0.000752724 3.12245e-23)
(0.108261 -0.000695935 6.54967e-25)
(0.10832 -0.000864864 3.17145e-23)
(0.108527 0.000233959 -2.82064e-23)
(0.108523 -0.000121766 0)
(0.108371 0.000434449 -2.73774e-22)
(0.108364 -0.000312748 0)
(0.111132 7.24326e-05 -4.38759e-24)
(0.111148 6.81355e-05 3.21424e-24)
(0.111155 -6.29908e-05 -1.67704e-23)
(0.111158 -7.74779e-05 -1.90079e-23)
(0.108194 0.000624755 -2.68921e-22)
(0.108213 -0.000521718 -6.40087e-23)
(0.108133 0.00095396 0)
(0.10848 0.00103121 -7.45094e-23)
(0.10807 -0.000747916 -3.14234e-23)
(0.108133 -0.000927581 4.82559e-23)
(0.108316 0.00108633 1.49363e-22)
(0.108519 5.45192e-05 0)
(0.10875 0.000908947 0)
(0.108616 0.000970952 -6.61699e-23)
(0.10902 0.000799173 0)
(0.108885 0.000852496 0)
(0.109271 0.000701659 0)
(0.109149 0.000748628 1.46501e-23)
(0.109494 0.000618066 0)
(0.109386 0.000658329 0)
(0.109694 0.000545596 0)
(0.109597 0.000580532 0)
(0.109872 0.000482553 0)
(0.109785 0.000513019 0)
(0.11003 0.000427379 -5.23301e-26)
(0.109953 0.000454063 0)
(0.110171 0.000378905 0)
(0.110103 0.000402374 0)
(0.110297 0.000336166 0)
(0.110236 0.000356873 0)
(0.11041 0.000298384 0)
(0.110355 0.000316698 0)
(0.110511 0.000264924 -1.12333e-29)
(0.110462 0.000281148 0)
(0.110602 0.000235258 1.0282e-29)
(0.110558 0.000249657 0)
(0.110683 0.000208959 0)
(0.110644 0.00022171 0)
(0.110756 0.000185638 8.82314e-30)
(0.110721 0.000196951 0)
(0.110822 0.000164987 0)
(0.11079 0.000174997 0)
(0.110881 0.000146728 0)
(0.110852 0.000155578 0)
(0.110934 0.000130587 0)
(0.110908 0.000138411 0)
(0.110982 0.0001163 0)
(0.110959 0.00012323 0)
(0.111025 0.000103607 0)
(0.111004 0.000109771 0)
(0.111064 9.23247e-05 0)
(0.111045 9.78236e-05 0)
(0.1111 8.1568e-05 4.6504e-24)
(0.111083 8.67263e-05 4.75334e-24)
(0.111117 7.6742e-05 -8.93118e-24)
(0.111155 2.1035e-05 -8.57215e-24)
(0.111159 4.92371e-05 0)
(0.111157 3.54258e-05 -8.65696e-24)
(0.111153 -6.72082e-06 0)
(0.111153 7.27569e-06 8.74843e-24)
(0.111153 -3.54149e-05 1.30574e-23)
(0.111152 -2.11195e-05 -4.41282e-24)
(0.111154 -4.89022e-05 -2.56597e-23)
(0.111114 -0.000104687 4.48863e-24)
(0.111145 -9.5083e-05 1.67338e-23)
(0.11113 -0.000100346 0)
(0.11108 -0.000115003 -9.28925e-24)
(0.111098 -0.000109652 9.31991e-24)
(0.111043 -0.00012619 0)
(0.111062 -0.000120614 0)
(0.111002 -0.000138305 -5.91349e-30)
(0.111023 -0.000132098 0)
(0.110956 -0.000151827 0)
(0.11098 -0.000144881 0)
(0.110906 -0.000166924 0)
(0.110932 -0.000159169 0)
(0.11085 -0.000183797 0)
(0.110879 -0.000175127 0)
(0.110788 -0.000202676 0)
(0.11082 -0.000192973 0)
(0.110719 -0.000223833 8.98755e-26)
(0.110755 -0.000212953 0)
(0.110643 -0.000247601 -9.21202e-26)
(0.110682 -0.000235371 0)
(0.110557 -0.000274338 0)
(0.110601 -0.000260575 0)
(0.110461 -0.000304486 0)
(0.11051 -0.000288961 0)
(0.110354 -0.00033855 0)
(0.110409 -0.000320994 0)
(0.110234 -0.000377097 0)
(0.110295 -0.000357227 0)
(0.110099 -0.000420805 0)
(0.110169 -0.000398264 0)
(0.109949 -0.000470459 0)
(0.110026 -0.000444839 0)
(0.10978 -0.000526985 -1.08104e-25)
(0.109867 -0.000497806 0)
(0.109589 -0.000591473 1.10456e-25)
(0.109687 -0.000558162 0)
(0.109375 -0.000665249 -1.12828e-25)
(0.109485 -0.000627115 0)
(0.109134 -0.000749957 0)
(0.109258 -0.000706121 0)
(0.108862 -0.000847728 0)
(0.109002 -0.000797026 0)
(0.108555 -0.000962816 1.21581e-25)
(0.108713 -0.000902361 1.5372e-23)
(0.108206 -0.00110218 -8.08116e-23)
(0.108386 -0.00102922 0)
(0.107934 -0.000998042 -4.78155e-23)
(0.108013 -0.00118246 -6.64157e-25)
(0.108351 0.00024422 8.83029e-23)
(0.108346 -0.000131948 0)
(0.111162 6.37203e-05 -1.67074e-23)
(0.11116 -9.11235e-05 -3.22227e-23)
(0.108172 0.0004436 -4.70932e-23)
(0.108037 0.000834982 6.58295e-25)
(0.10799 0.000639547 1.3713e-22)
(0.108179 -0.000334015 0)
(0.108018 -0.000557726 1.61311e-23)
(0.108118 0.00113864 -1.37033e-22)
(0.107933 0.0011641 1.18948e-22)
(0.10787 0.000923954 -1.17647e-22)
(0.107865 -0.000801993 -4.85025e-23)
(0.107721 -0.00107159 3.25326e-23)
(0.107807 -0.00127264 3.1811e-23)
(0.108341 5.43531e-05 0)
(0.108538 0.00119048 4.15577e-24)
(0.108175 0.00134536 -7.17426e-25)
(0.108362 0.0012643 3.22358e-23)
(0.108822 0.00105267 3.17964e-23)
(0.108686 0.00111978 -3.19616e-23)
(0.109083 0.000927714 5.81702e-26)
(0.108954 0.000988748 0)
(0.109323 0.00081756 0)
(0.109206 0.000870687 0)
(0.109539 0.000721751 0)
(0.109434 0.000768018 0)
(0.109732 0.000638174 0)
(0.109638 0.000678538 0)
(0.109904 0.000565123 5.34507e-26)
(0.10982 0.000600442 0)
(0.110058 0.000501073 0)
(0.109983 0.000532062 0)
(0.110196 0.000444738 0)
(0.110129 0.000472017 0)
(0.110319 0.000395038 0)
(0.110259 0.000419122 0)
(0.110429 0.000351083 0)
(0.110376 0.000372394 0)
(0.110528 0.000312145 -4.77662e-26)
(0.11048 0.000331029 0)
(0.110617 0.000277615 1.18263e-29)
(0.110574 0.000294368 0)
(0.110697 0.000246984 0)
(0.110658 0.000261842 0)
(0.110768 0.000219809 8.88329e-26)
(0.110733 0.000232992 0)
(0.110832 0.000195717 0)
(0.110801 0.0002074 0)
(0.11089 0.000174386 0)
(0.110862 0.000184728 0)
(0.110942 0.000155506 0)
(0.110917 0.00016466 0)
(0.11099 0.000138785 0)
(0.110967 0.000146895 0)
(0.111032 0.00012395 0)
(0.111011 0.000131148 0)
(0.11107 0.000110788 7.56956e-26)
(0.111052 0.000117182 0)
(0.111105 9.87745e-05 -4.67072e-24)
(0.111088 0.000104749 0)
(0.111137 8.73394e-05 4.447e-24)
(0.111121 9.29319e-05 0)
(0.111166 7.72994e-05 4.25269e-24)
(0.111152 8.22088e-05 -4.34376e-24)
(0.111173 4.65425e-05 8.40478e-24)
(0.11118 7.24655e-05 0)
(0.111177 6.02199e-05 1.25097e-23)
(0.111169 1.99424e-05 0)
(0.111171 3.30937e-05 0)
(0.111167 -7.1234e-06 0)
(0.111168 6.63446e-06 0)
(0.111167 -3.4832e-05 0)
(0.111166 -2.10083e-05 0)
(0.111169 -6.11356e-05 1.70918e-23)
(0.111168 -4.78742e-05 4.2494e-24)
(0.111174 -8.76651e-05 4.20678e-24)
(0.111172 -7.44609e-05 3.35152e-23)
(0.111149 -0.00011005 2.1817e-23)
(0.111177 -0.00010112 4.19079e-24)
(0.111163 -0.000105291 -8.50553e-24)
(0.111119 -0.000120954 4.48354e-24)
(0.111134 -0.000115285 -2.68755e-23)
(0.111086 -0.000132945 -1.45828e-30)
(0.111103 -0.000126827 0)
(0.111049 -0.000145492 0)
(0.111068 -0.000139041 0)
(0.111009 -0.000159591 -7.44803e-30)
(0.111029 -0.000152346 0)
(0.110964 -0.000175371 0)
(0.110987 -0.000167261 0)
(0.110915 -0.000193028 0)
(0.11094 -0.000183954 0)
(0.11086 -0.00021279 0)
(0.110888 -0.000202632 0)
(0.110799 -0.000234927 0)
(0.110831 -0.000223545 0)
(0.110732 -0.000259757 -1.79737e-25)
(0.110767 -0.000246986 0)
(0.110657 -0.000287663 0)
(0.110695 -0.000273303 0)
(0.110572 -0.000319071 0)
(0.110616 -0.000302903 0)
(0.110479 -0.000354482 0)
(0.110527 -0.000336246 0)
(0.110374 -0.000394477 0)
(0.110428 -0.00037387 0)
(0.110256 -0.00043972 -1.01133e-25)
(0.110317 -0.000416402 0)
(0.110125 -0.000490988 0)
(0.110193 -0.000464553 0)
(0.109978 -0.000549189 0)
(0.110053 -0.000519164 0)
(0.109813 -0.000615393 1.08104e-25)
(0.109898 -0.000581223 0)
(0.109627 -0.00069087 -3.77895e-29)
(0.109723 -0.00065189 0)
(0.109419 -0.00077716 2.25613e-25)
(0.109526 -0.000732563 0)
(0.109184 -0.000876123 0)
(0.109305 -0.000824935 0)
(0.10892 -0.00098995 0)
(0.109056 -0.000931019 0)
(0.108623 -0.0011212 -6.75902e-29)
(0.108776 -0.00105322 0)
(0.108287 -0.00127385 0)
(0.10846 -0.00119455 0)
(0.107905 -0.00146099 -4.84011e-23)
(0.108102 -0.00136236 0)
(0.107588 -0.00136804 -6.63424e-25)
(0.107695 -0.00157078 8.25669e-23)
(0.108156 0.000251786 0)
(0.107991 0.00140642 1.87023e-22)
(0.107965 0.00045392 3.2271e-23)
(0.111171 9.07485e-05 -4.24469e-24)
(0.111184 8.584e-05 0)
(0.111187 -8.4694e-05 4.10251e-24)
(0.11119 -9.71313e-05 -8.13135e-24)
(0.108158 -0.000141644 0)
(0.107981 -0.000356616 0)
(0.107796 0.000693917 0)
(0.10781 -0.000595599 -1.58877e-23)
(0.107646 -0.000861254 -3.21929e-23)
(0.107493 -0.00115365 0)
(0.107354 -0.00147143 8.34128e-23)
(0.10747 -0.00168752 -6.65979e-23)
(0.108151 5.45988e-05 0)
(0.108257 0.00153177 -1.55167e-26)
(0.107783 0.00147325 5.94036e-23)
(0.107875 0.00171257 -2.12516e-22)
(0.108072 0.00162138 6.16276e-23)
(0.108604 0.00134673 -2.00577e-23)
(0.108434 0.00143491 -3.19614e-23)
(0.108893 0.00119051 0)
(0.108756 0.00126599 0)
(0.109149 0.00105155 -5.81648e-26)
(0.109023 0.00111911 0)
(0.10938 0.000929087 0)
(0.109268 0.000988304 0)
(0.109588 0.000821739 0)
(0.109487 0.000873645 0)
(0.109774 0.00072769 0)
(0.109684 0.000773168 0)
(0.109941 0.000645202 -5.34507e-26)
(0.10986 0.00068511 0)
(0.11009 0.000572701 0)
(0.110018 0.000607797 0)
(0.110224 0.000508832 0)
(0.110159 0.000539769 0)
(0.110344 0.000452432 0)
(0.110286 0.000479768 0)
(0.110451 0.000402518 0)
(0.110399 0.000426722 0)