/*--------------------------------*- C++ -*----------------------------------*\
  =========                 |
  \\      /  F ield         | OpenFOAM: The Open Source CFD Toolbox
   \\    /   O peration     | Website:  https://openfoam.org
    \\  /    A nd           | Version:  10
     \\/     M anipulation  |
\*---------------------------------------------------------------------------*/
FoamFile
{
    format      ascii;
    class       volScalarField;
    location    "35";
    object      p;
}
// * * * * * * * * * * * * * * * * * * * * * * * * * * * * * * * * * * * * * //

dimensions      [0 2 -2 0 0 0 0];

internalField   nonuniform List<scalar> 
33313
(
-0.0062721
-0.00743998
-0.00653087
-0.0100796
0.00153082
0.00153755
0.000225944
0.0108451
0.00983361
-0.00573016
-0.00184398
-0.37973
-0.374057
-0.372539
-0.175283
-0.201381
-0.172953
-0.435853
-0.568374
-0.480805
-0.368646
0.795561
0.729047
0.861317
0.84494
0.268694
0.273944
0.276273
0.210321
0.201107
0.212472
0.291825
0.244669
-0.731784
-0.750036
-0.734711
-0.708191
-0.000561541
-0.00445609
-0.162277
-0.13728
0.243072
0.228905
-0.709142
-0.405382
-0.421749
0.779671
0.842389
-0.00362441
-0.00207754
0.20882
0.237515
0.295353
0.342236
0.256624
0.287332
0.49278
0.605096
0.308949
0.211778
0.523456
0.81047
0.88514
0.91644
-0.00532353
-0.0210564
-0.0153708
-0.231045
-0.226031
-0.752166
-0.693935
-0.661407
-0.662332
-0.198625
-0.781068
-0.798828
-0.724419
-0.744242
-0.0824683
-0.130708
0.542284
0.533802
0.549097
-0.262361
-0.309247
-0.373643
-0.462768
-0.444287
-0.441512
0.900667
-0.669555
-0.68551
-0.653943
-0.640226
-0.647755
0.197051
0.186183
0.00516039
0.00327574
-0.329758
-0.317113
-0.39858
-0.427126
-0.43623
-0.478183
-0.763397
-0.815783
-0.796971
-0.754509
-0.241571
-0.0180123
-0.10178
-0.255831
-1.01027
-1.14264
-0.934558
0.905738
0.881252
-0.41719
-0.395063
-0.659198
-0.673822
-0.668292
-0.00523518
-0.00385793
-0.0175053
0.411269
0.025142
0.0246165
-0.370897
-0.34671
-0.712395
-0.699526
0.18551
0.157136
0.0395664
0.117608
-0.289737
-0.196644
0.0570882
-0.0709404
0.183915
0.0314975
0.03316
0.0254567
0.0375864
0.0344714
0.0321333
0.0296358
0.267221
0.246066
0.281131
0.264695
0.447555
0.454015
0.427776
0.433227
-0.78966
-0.783125
-0.790817
-0.696731
0.193183
0.233357
0.33664
0.254022
-0.513799
-0.444391
-0.429468
-0.457297
-0.00439619
-0.00331849
0.0526244
0.0508347
0.123891
0.122853
0.268946
0.252407
-0.219652
-0.204399
0.114037
0.115707
0.095227
0.092924
0.196409
0.197095
-0.528325
-0.486047
-0.187467
-0.165084
-0.257303
-0.769926
0.544454
0.51999
-0.292978
-0.297035
0.449914
0.472728
0.480416
0.303754
0.316998
0.295552
0.559991
0.538241
0.223935
0.229665
-0.373908
-0.389203
-0.35448
-0.48276
0.243064
0.238203
-0.000632318
0.00258504
-0.000639864
-0.0028838
-0.173214
-0.411901
-0.396378
0.37816
0.379974
0.361657
0.358135
-0.363478
-0.356907
-0.331032
0.225658
0.244368
0.217536
-0.412588
-0.407134
-0.413034
-0.307952
-0.262405
0.0550131
0.123398
0.12228
-0.779182
0.20122
-0.0991581
-0.102081
-0.106516
-0.111335
-0.117682
-0.125567
-0.135536
-0.147054
-0.159838
-0.173555
-0.187907
-0.202224
-0.215919
-0.228119
-0.238271
-0.245622
-0.249884
-0.25052
-0.247876
-0.241787
-0.232918
-0.221648
-0.208882
-0.195185
-0.181461
-0.168137
-0.15584
-0.144418
-0.135049
-0.126186
-0.118937
-0.113124
-0.100928
-0.0987201
-0.0990083
-0.0977318
-0.105764
-0.108682
-0.122615
-0.110939
-0.116172
-0.140005
-0.130406
-0.164014
-0.151212
-0.193043
-0.178054
-0.223759
-0.208499
-0.250413
-0.238007
-0.266612
-0.260154
-0.268152
-0.269393
-0.254595
-0.263138
-0.229282
-0.243057
-0.198159
-0.214038
-0.167419
-0.182405
-0.141183
-0.153612
-0.121066
-0.130256
-0.108814
-0.114369
-0.104527
-0.0987044
-0.0985688
-0.107159
-0.0978196
-0.10448
-0.103116
-0.0998533
-0.0993162
-0.105215
-0.102473
-0.0993681
-0.100557
-0.101332
-0.102358
-0.102364
-0.095364
-0.0977734
-0.0958862
-0.0981509
-0.0961552
-0.105995
-0.101561
-0.118416
-0.111478
-0.137498
-0.127175
-0.161553
-0.149067
-0.187541
-0.174561
-0.210797
-0.199847
-0.226216
-0.219767
-0.230062
-0.229717
-0.221603
-0.227287
-0.203215
-0.213392
-0.179522
-0.191705
-0.155406
-0.167258
-0.134852
-0.144025
-0.119514
-0.126416
-0.108687
-0.113574
-0.10498
-0.103534
-0.0998097
-0.102166
-0.11217
-0.105186
-0.108089
-0.124534
-0.117564
-0.143284
-0.133171
-0.168891
-0.155215
-0.2
-0.183941
-0.232821
-0.216541
-0.261107
-0.247972
-0.278072
-0.271358
-0.279342
-0.280775
-0.264726
-0.27388
-0.237707
-0.252407
-0.204535
-0.221455
-0.171844
-0.187766
-0.144181
-0.157246
-0.122955
-0.132716
-0.10918
-0.115201
-0.101004
-0.104655
-0.0974114
-0.0984991
-0.0990539
-0.0976745
-0.104066
-0.101167
-0.104744
-0.101851
-0.100528
-0.0967088
-0.0976759
-0.106876
-0.103996
-0.103461
-0.101847
-0.106127
-0.106406
-0.0951256
-0.104034
-0.0988048
-0.0918012
-0.0927875
-0.0934919
-0.0920043
-0.100242
-0.0962669
-0.111463
-0.105215
-0.128418
-0.119221
-0.150074
-0.138814
-0.173464
-0.161793
-0.194294
-0.184499
-0.207947
-0.202267
-0.211171
-0.210969
-0.203362
-0.208566
-0.186768
-0.195923
-0.165576
-0.176453
-0.144106
-0.154631
-0.125756
-0.134181
-0.112174
-0.118226
-0.103063
-0.107125
-0.0980773
-0.100077
-0.0968946
-0.103551
-0.102516
-0.102729
-0.103687
-0.111857
-0.107341
-0.125123
-0.117746
-0.145071
-0.13423
-0.172114
-0.157729
-0.204953
-0.188002
-0.239454
-0.22237
-0.268903
-0.255276
-0.286229
-0.279437
-0.287036
-0.288799
-0.271319
-0.281063
-0.243007
-0.258368
-0.20846
-0.226074
-0.174369
-0.190987
-0.145512
-0.159123
-0.123439
-0.133619
-0.108289
-0.115003
-0.0992886
-0.103163
-0.0950143
-0.096569
-0.0955784
-0.0946919
-0.106104
-0.101413
-0.0977745
-0.112742
-0.110911
-0.113127
-0.109661
-0.100762
-0.10653
-0.112073
-0.102341
-0.0997401
-0.0927944
-0.121132
-0.119589
-0.0940427
-0.112027
-0.100611
-0.116613
-0.107655
-0.091214
-0.0951675
-0.0871723
-0.0885808
-0.087977
-0.0869906
-0.0935215
-0.0901788
-0.103457
-0.0979161
-0.118423
-0.110294
-0.137718
-0.127669
-0.15855
-0.148171
-0.176942
-0.16832
-0.188809
-0.183903
-0.191416
-0.191358
-0.184314
-0.188994
-0.169629
-0.177707
-0.151044
-0.160568
-0.132366
-0.141492
-0.11645
-0.123868
-0.104608
-0.109966
-0.0968467
-0.100241
-0.0930805
-0.0945294
-0.0925092
-0.104679
-0.104001
-0.10306
-0.104392
-0.101732
-0.0978481
-0.0992523
-0.110247
-0.105373
-0.124335
-0.116528
-0.145163
-0.133827
-0.173321
-0.158361
-0.207429
-0.189829
-0.243127
-0.225477
-0.273338
-0.259402
-0.290789
-0.284017
-0.291137
-0.293191
-0.274505
-0.28475
-0.245128
-0.261019
-0.209612
-0.227692
-0.174639
-0.191696
-0.14495
-0.158959
-0.122261
-0.132731
-0.106238
-0.113457
-0.0962252
-0.100545
-0.091206
-0.0931539
-0.0908145
-0.0904472
-0.0954212
-0.0924682
-0.113146
-0.105431
-0.0996966
-0.1007
-0.130266
-0.127537
-0.121047
-0.116385
-0.0962691
-0.11256
-0.0964055
-0.102575
-0.131426
-0.119727
-0.121489
-0.142985
-0.0939837
-0.0974271
-0.093279
-0.140644
-0.119503
-0.112208
-0.136658
-0.123271
-0.0960102
-0.103196
-0.0862104
-0.0903978
-0.0816744
-0.0833425
-0.0817266
-0.0811517
-0.086121
-0.0833961
-0.0946825
-0.0898711
-0.10772
-0.100633
-0.124645
-0.115815
-0.142957
-0.13384
-0.159025
-0.151511
-0.169253
-0.165052
-0.171319
-0.171372
-0.16499
-0.169123
-0.152194
-0.159212
-0.136153
-0.144357
-0.120155
-0.127959
-0.106561
-0.11293
-0.0965147
-0.10107
-0.0901631
-0.0928877
-0.0874384
-0.0883713
-0.0880959
-0.0873823
-0.0919897
-0.089609
-0.105147
-0.0994343
-0.102762
-0.10688
-0.106534
-0.104442
-0.106198
-0.0980053
-0.101676
-0.0983936
-0.0956525
-0.107449
-0.102292
-0.122121
-0.114018
-0.143596
-0.131937
-0.172484
-0.157145
-0.207379
-0.189387
-0.243723
-0.225785
-0.274195
-0.260187
-0.291462
-0.284832
-0.291316
-0.293642
-0.274065
-0.284626
-0.244063
-0.26026
-0.208022
-0.226348
-0.172626
-0.18989
-0.142502
-0.156731
-0.119411
-0.130075
-0.102885
-0.110395
-0.092011
-0.0967894
-0.0861329
-0.0884888
-0.084809
-0.0849243
-0.0881418
-0.0859071
-0.0916451
-0.121163
-0.10993
-0.0953215
-0.156244
-0.151929
-0.13089
-0.124989
-0.0934567
-0.143652
-0.129224
-0.158224
-0.131464
-0.118491
-0.131099
-0.173291
-0.0870135
-0.0904779
-0.16922
-0.128743
-0.130526
-0.163444
-0.145857
-0.106483
-0.117463
-0.0902217
-0.0974675
-0.0802741
-0.0845641
-0.0753842
-0.0772526
-0.0748084
-0.0745917
-0.078165
-0.0760079
-0.0853666
-0.0812801
-0.0965642
-0.0904651
-0.111224
-0.103562
-0.127133
-0.119216
-0.141012
-0.134538
-0.149722
-0.146169
-0.151333
-0.151462
-0.145774
-0.149375
-0.134778
-0.140791
-0.121133
-0.128098
-0.107622
-0.114206
-0.0962151
-0.101561
-0.087912
-0.0916536
-0.0829203
-0.0850104
-0.0811772
-0.0816512
-0.0825713
-0.0814944
-0.0844228
-0.103694
-0.0947783
-0.0996719
-0.10903
-0.106834
-0.110141
-0.110114
-0.106901
-0.109086
-0.0995415
-0.103695
-0.0945561
-0.0892213
-0.0881545
-0.0882638
-0.0940785
-0.0911215
-0.103518
-0.0981705
-0.118548
-0.110266
-0.14036
-0.128543
-0.169561
-0.154065
-0.204732
-0.186613
-0.24117
-0.223218
-0.271422
-0.257564
-0.288214
-0.281841
-0.28755
-0.290127
-0.269925
-0.280648
-0.239769
-0.256016
-0.203748
-0.222048
-0.168428
-0.185657
-0.138285
-0.152542
-0.115026
-0.125789
-0.098203
-0.105885
-0.0867275
-0.0918522
-0.0799691
-0.0827836
-0.0776611
-0.0782736
-0.0797627
-0.0781446
-0.0864989
-0.0825375
-0.0979562
-0.0916396
-0.127816
-0.112908
-0.105236
-0.188985
-0.182246
-0.142715
-0.135525
-0.121267
-0.137729
-0.158402
-0.140541
-0.175397
-0.142885
-0.100249
-0.0893367
-0.0946518
-0.192783
-0.142078
-0.209288
-0.0888794
-0.202302
-0.140019
-0.154705
-0.192737
-0.173216
-0.122908
-0.137937
-0.0993811
-0.110087
-0.0834745
-0.0905938
-0.0735847
-0.0778673
-0.0684825
-0.0704961
-0.0673693
-0.0674639
-0.0698184
-0.0681629
-0.075732
-0.0723388
-0.0851922
-0.0800219
-0.0977187
-0.0911576
-0.111383
-0.104582
-0.123254
-0.11773
-0.130598
-0.127622
-0.131839
-0.132016
-0.127019
-0.130116
-0.117698
-0.12278
-0.10626
-0.112086
-0.0950331
-0.100494
-0.0856664
-0.0900443
-0.079005
-0.081977
-0.0752608
-0.0767731
-0.074397
-0.0744759
-0.0764125
-0.0750437
-0.0813614
-0.078543
-0.084947
-0.109056
-0.105027
-0.114076
-0.112117
-0.114558
-0.114903
-0.110433
-0.113048
-0.102082
-0.106745
-0.082163
-0.0825821
-0.0904271
-0.0966252
-0.0836341
-0.0824934
-0.0888632
-0.0857433
-0.0985473
-0.093097
-0.113702
-0.10537
-0.135527
-0.12372
-0.164623
-0.149194
-0.199552
-0.181576
-0.235532
-0.21784
-0.265098
-0.251605
-0.281157
-0.275139
-0.279994
-0.282776
-0.262256
-0.272986
-0.232376
-0.248441
-0.196893
-0.214905
-0.16215
-0.1791
-0.132406
-0.146496
-0.109254
-0.120001
-0.0922848
-0.100067
-0.0804025
-0.0857693
-0.0728951
-0.0761251
-0.0695588
-0.0707105
-0.0704124
-0.0694608
-0.0755311
-0.0724039
-0.084903
-0.0797631
-0.0973708
-0.0906901
-0.12914
-0.110372
-0.104114
-0.223309
-0.213569
-0.147534
-0.136181
-0.116067
-0.156818
-0.147923
-0.175226
-0.153415
-0.106733
-0.101007
-0.194567
-0.155523
-0.213605
-0.153438
-0.230459
-0.0836981
-0.233907
-0.243871
-0.156387
-0.142096
-0.120451
-0.252151
-0.221214
-0.0832511
-0.0884629
-0.239261
-0.153403
-0.180923
-0.20128
-0.144105
-0.161879
-0.113728
-0.127964
-0.0912135
-0.101473
-0.0759472
-0.082783
-0.0663221
-0.0705188
-0.0611252
-0.0632292
-0.0595771
-0.0599314
-0.0612355
-0.0600221
-0.065968
-0.063216
-0.0738201
-0.0695083
-0.0843775
-0.0788323
-0.0959818
-0.0902009
-0.106045
-0.101371
-0.112189
-0.109716
-0.113132
-0.113334
-0.109012
-0.111639
-0.101218
-0.105452
-0.091773
-0.0965702
-0.0826142
-0.0870557
-0.0751034
-0.0785951
-0.0699399
-0.0722101
-0.0673244
-0.0683153
-0.0672607
-0.0669777
-0.069785
-0.0681963
-0.0750995
-0.0721207
-0.0788135
-0.115652
-0.111676
-0.120385
-0.118586
-0.120188
-0.120932
-0.115005
-0.118181
-0.105623
-0.110771
-0.0928674
-0.0995894
-0.0991406
-0.123279
-0.101488
-0.085637
-0.0755353
-0.0765575
-0.0757211
-0.0774016
-0.0760408
-0.082885
-0.0796569
-0.0926472
-0.0871802
-0.107697
-0.0994402
-0.129216
-0.117588
-0.157796
-0.142652
-0.191985
-0.174408
-0.226994
-0.209814
-0.255457
-0.242518
-0.270564
-0.264981
-0.268934
-0.271876
-0.25135
-0.261926
-0.222166
-0.237828
-0.187689
-0.205177
-0.153965
-0.170422
-0.124999
-0.138743
-0.102238
-0.11284
-0.08529
-0.0931016
-0.073134
-0.0786734
-0.0650278
-0.0686014
-0.0607315
-0.062406
-0.0602865
-0.0600247
-0.0637983
-0.0615344
-0.0710751
-0.0670203
-0.0812699
-0.075948
-0.0913999
-0.0864557
-0.0956928
-0.173093
-0.162124
-0.0945511
-0.194147
-0.167517
-0.215217
-0.168644
-0.234861
-0.1647
-0.251095
-0.26249
-0.253779
-0.266841
-0.163392
-0.145828
-0.101921
-0.124254
-0.07804
-0.263466
-0.237716
-0.068985
-0.0701662
-0.247407
-0.168724
-0.206094
-0.223388
-0.167142
-0.186477
-0.131853
-0.148635
-0.103312
-0.116645
-0.0822462
-0.0918556
-0.067867
-0.0743238
-0.0586498
-0.062696
-0.0534689
-0.0556098
-0.051589
-0.0521514
-0.052569
-0.0517395
-0.0562457
-0.054071
-0.0626362
-0.0591053
-0.0714026
-0.0667812
-0.0811467
-0.0762841
-0.0896081
-0.0856831
-0.094718
-0.0926743
-0.0954314
-0.0956377
-0.0919573
-0.0941577
-0.0855268
-0.0890076
-0.0778505
-0.0817357
-0.0705267
-0.0740618
-0.0646674
-0.067368
-0.0608435
-0.0624853
-0.0592389
-0.0597632
-0.0598865
-0.0592822
-0.0628583
-0.061074
-0.06834
-0.0652882
-0.0765875
-0.0721638
-0.0875588
-0.0817024
-0.114198
-0.101505
-0.108279
-0.123392
-0.11929
-0.127907
-0.126279
-0.127015
-0.128156
-0.120756
-0.124514
-0.110113
-0.115892
-0.0961626
-0.10347
-0.0802184
-0.0883461
-0.068377
-0.0683706
-0.0706212
-0.069101
-0.076265
-0.0729907
-0.0859488
-0.0805505
-0.100675
-0.0926125
-0.121593
-0.110302
-0.149271
-0.134615
-0.182263
-0.165319
-0.215846
-0.199401
-0.24285
-0.230625
-0.256841
-0.251746
-0.25478
-0.257841
-0.237602
-0.247872
-0.209496
-0.224554
-0.176444
-0.1932
-0.144124
-0.159903
-0.116253
-0.1295
-0.0941383
-0.104476
-0.0773937
-0.085154
-0.065085
-0.0707403
-0.0565062
-0.0603571
-0.0513831
-0.0535171
-0.0497373
-0.0501209
-0.0516709
-0.0502529
-0.0570288
-0.0539529
-0.0650962
-0.0608327
-0.0732739
-0.069269
-0.0793691
-0.0766661
-0.080715
-0.0806643
-0.100543
-0.0788364
-0.0941726
-0.191275
-0.177773
-0.0718235
-0.214345
-0.182368
-0.236373
-0.181621
-0.255538
-0.175073
-0.270166
-0.277647
-0.277011
-0.251837
-0.267548
-0.168082
-0.147092
-0.122928
-0.0973067
-0.0755876
-0.250038
-0.233476
-0.0801401
-0.0863463
-0.231964
-0.185766
-0.219195
-0.228953
-0.188513
-0.205503
-0.151403
-0.170108
-0.118353
-0.13413
-0.0920836
-0.104359
-0.072747
-0.0815798
-0.0594169
-0.0654246
-0.0507254
-0.0545654
-0.0456606
-0.0477899
-0.043546
-0.0442675
-0.0439578
-0.0434546
-0.04671
-0.0450443
-0.0517964
-0.048964
-0.0589573
-0.0551641
-0.0670425
-0.0629961
-0.0741036
-0.0708284
-0.0783371
-0.0766526
-0.078883
-0.0790778
-0.0759926
-0.0778123
-0.070757
-0.0735791
-0.0646199
-0.0677114
-0.0588943
-0.061639
-0.0544789
-0.0564862
-0.0518342
-0.0529221
-0.05112
-0.0512341
-0.0523821
-0.051503
-0.0557023
-0.0537767
-0.0612915
-0.0581925
-0.0693943
-0.065026
-0.0744706
-0.109218
-0.0932179
-0.101427
-0.122697
-0.116346
-0.1322
-0.12798
-0.136547
-0.135093
-0.134953
-0.136493
-0.127617
-0.131961
-0.115566
-0.122076
-0.100294
-0.108293
-0.0830256
-0.0918296
-0.0558571
-0.0714283
-0.0521747
-0.0740763
-0.0611113
-0.063352
-0.0620093
-0.0608855
-0.060681
-0.0634518
-0.0618089
-0.0691387
-0.0658762
-0.0785986
-0.0733465
-0.0928036
-0.0850417
-0.112854
-0.102043
-0.139286
-0.1253
-0.170687
-0.154576
-0.202466
-0.186935
-0.227731
-0.216343
-0.240475
-0.235913
-0.238051
-0.241167
-0.221494
-0.231338
-0.194786
-0.209071
-0.163511
-0.179359
-0.132916
-0.147863
-0.106401
-0.119029
-0.0851407
-0.0951152
-0.068769
-0.0763983
-0.0564348
-0.0621472
-0.0474972
-0.0515673
-0.0416877
-0.044207
-0.0390064
-0.0399514
-0.0395418
-0.0388716
-0.0431645
-0.0409903
-0.0492535
-0.0459909
-0.0556775
-0.0525593
-0.060188
-0.0583778
-0.0604692
-0.0609932
-0.0587139
-0.210561
-0.194261
-0.234883
-0.197162
-0.256853
-0.193576
-0.100693
-0.0846626
-0.0915652
-0.274368
-0.183662
-0.285455
-0.28821
-0.281523
-0.265743
-0.224786
-0.242229
-0.170006
-0.145703
-0.119148
-0.0921487
-0.0481531
-0.0664026
-0.065147
-0.212305
-0.20571
-0.054819
-0.0562805
-0.193859
-0.203768
-0.213075
-0.212368
-0.198464
-0.208126
-0.168775
-0.184999
-0.134521
-0.151531
-0.104129
-0.118553
-0.080384
-0.0914229
-0.0629505
-0.0709364
-0.050776
-0.0562848
-0.0426993
-0.0462897
-0.0378341
-0.0399099
-0.0355738
-0.0364084
-0.0355226
-0.0352903
-0.0374819
-0.0362557
-0.0414253
-0.0392071
-0.047166
-0.0441063
-0.053787
-0.0504592
-0.0596349
-0.0569185
-0.0631368
-0.0617474
-0.0635682
-0.0637391
-0.0611972
-0.0626828
-0.0569911
-0.0592474
-0.0521709
-0.0545837
-0.0478135
-0.0498807
-0.0446402
-0.0460499
-0.0430156
-0.0436238
-0.0430697
-0.0428309
-0.0448485
-0.0437415
-0.0484329
-0.0464067
-0.0540102
-0.0509549
-0.0618665
-0.0576356
-0.072218
-0.0667947
-0.0782169
-0.117684
-0.1095
-0.132077
-0.12532
-0.142061
-0.137709
-0.146176
-0.14491
-0.143856
-0.145814
-0.135407
-0.14035
-0.121872
-0.129171
-0.105078
-0.113768
-0.0863833
-0.0958616
-0.0673131
-0.0768221
-0.0530104
-0.0536979
-0.0532621
-0.0528416
-0.0560252
-0.0543175
-0.0616451
-0.058449
-0.0707512
-0.0657142
-0.0842641
-0.0768944
-0.103219
-0.0930096
-0.128118
-0.114952
-0.157604
-0.142488
-0.187285
-0.172808
-0.210614
-0.200147
-0.222039
-0.218032
-0.219314
-0.222436
-0.203556
-0.212874
-0.178496
-0.191877
-0.149265
-0.164073
-0.120641
-0.134638
-0.095685
-0.107598
-0.0754443
-0.0849767
-0.0595878
-0.0670169
-0.0473533
-0.0530624
-0.0381722
-0.0424037
-0.0318091
-0.0346432
-0.0282655
-0.0296804
-0.0276182
-0.0275801
-0.0297588
-0.0283605
-0.0341008
-0.031732
-0.0389835
-0.0366021
-0.0423353
-0.0409915
-0.0421158
-0.0428452
-0.0378981
-0.0405099
-0.0314953
-0.0348471
-0.0439012
-0.0282369
-0.229964
-0.210733
-0.254515
-0.210928
-0.108697
-0.0989142
-0.275175
-0.203723
-0.289548
-0.189737
-0.295847
-0.292708
-0.279897
-0.258239
-0.229459
-0.0579587
-0.178034
-0.195577
-0.168738
-0.141515
-0.113328
-0.0858454
-0.0608754
-0.0398878
-0.025465
-0.159084
-0.159784
-0.0758388
-0.0822983
-0.141681
-0.221803
-0.185495
-0.174896
-0.191029
-0.190957
-0.175975
-0.185862
-0.14774
-0.162846
-0.116559
-0.131937
-0.0895535
-0.102326
-0.0685653
-0.0783217
-0.053071
-0.0601902
-0.0421072
-0.0470882
-0.0347055
-0.0380157
-0.030107
-0.0320947
-0.0277799
-0.0286864
-0.027364
-0.0273505
-0.0286573
-0.0278032
-0.0316167
-0.0299295
-0.0361174
-0.0336997
-0.0414565
-0.038757
-0.0462593
-0.0440206
-0.0491559
-0.0480062
-0.0495166
-0.0496543
-0.0476033
-0.0487989
-0.0442718
-0.0460493
-0.0405603
-0.0424022
-0.0373547
-0.0388512
-0.0352313
-0.0361352
-0.0344724
-0.0346734
-0.0351756
-0.0346398
-0.0373783
-0.0360874
-0.041154
-0.039062
-0.0466692
-0.0436802
-0.0541859
-0.0501612
-0.0641068
-0.0588797
-0.0698285
-0.126945
-0.118056
-0.142288
-0.135108
-0.152723
-0.148258
-0.156601
-0.155522
-0.15352
-0.15592
-0.14389
-0.149466
-0.128852
-0.136946
-0.110275
-0.119864
-0.0901354
-0.100313
-0.0697332
-0.0799242
-0.0123726
-0.023136
-0.0111405
-0.0598049
-0.0463077
-0.0488193
-0.0474655
-0.0449258
-0.0453926
-0.0455833
-0.0449951
-0.0484625
-0.0467311
-0.0539217
-0.0508405
-0.0625638
-0.0577999
-0.0752443
-0.0683414
-0.0929218
-0.0834104
-0.11606
-0.103833
-0.143388
-0.129389
-0.170768
-0.157437
-0.192048
-0.182546
-0.202138
-0.198681
-0.199167
-0.202263
-0.184337
-0.193055
-0.161098
-0.173485
-0.134093
-0.14777
-0.107604
-0.12057
-0.084349
-0.0954782
-0.0652505
-0.0742814
-0.0500222
-0.057195
-0.0380001
-0.0436492
-0.0286927
-0.0330262
-0.0219095
-0.0249884
-0.0176712
-0.0194673
-0.0160567
-0.0165358
-0.016977
-0.0162194
-0.0198815
-0.018248
-0.0234308
-0.021683
-0.0258137
-0.0248888
-0.0252844
-0.0260133
-0.0216932
-0.0237582
-0.0165289
-0.0192021
-0.0142872
-0.248372
-0.226167
-0.0889785
-0.271822
-0.222641
-0.289628
-0.21113
-0.299646
-0.192672
-0.30017
-0.290831
-0.271959
-0.245107
-0.21237
-0.175969
-0.12165
-0.138237
-0.16454
-0.13505
-0.105996
-0.078893
-0.0554185
-0.0363723
-0.0103348
-0.0214219
-0.050317
-0.100969
-0.105212
-0.0399782
-0.0412014
-0.085343
-0.2388
-0.141257
-0.124327
-0.164001
-0.15485
-0.167425
-0.168414
-0.151982
-0.161689
-0.125819
-0.139556
-0.0985107
-0.111883
-0.075115
-0.0861825
-0.0568666
-0.0653617
-0.0432893
-0.049546
-0.0335537
-0.0379954
-0.0268616
-0.0298724
-0.0225801
-0.0244526
-0.0202537
-0.021196
-0.0195622
-0.0197197
-0.0203087
-0.0197628
-0.0224362
-0.0212003
-0.0258685
-0.024006
-0.0300932
-0.0279401
-0.0339969
-0.0321664
-0.036394
-0.0354378
-0.0367185
-0.0368164
-0.0352055
-0.0361515
-0.0326086
-0.0339859
-0.0298167
-0.0311856
-0.0275642
-0.0285883
-0.0263116
-0.0267957
-0.0262721
-0.0261348
-0.0275114
-0.0267313
-0.0300528
-0.0286176
-0.0339586
-0.0318284
-0.039379
-0.0364656
-0.0465739
-0.0427298
-0.0558334
-0.0509378
-0.0669428
-0.0612308
-0.0790328
-0.0729078
-0.116917
-0.0957391
-0.106417
-0.136623
-0.127036
-0.153052
-0.145375
-0.163876
-0.159302
-0.16754
-0.16664
-0.163676
-0.166535
-0.152804
-0.159045
-0.136251
-0.145131
-0.115915
-0.126414
-0.0941128
-0.105059
-0.0723066
-0.0830914
-0.0518565
-0.0618682
-0.0378874
-0.0388499
-0.0370382
-0.0372586
-0.0379728
-0.037275
-0.0408807
-0.0391658
-0.0461002
-0.0431741
-0.0541899
-0.049745
-0.0659308
-0.0595513
-0.0821961
-0.0734541
-0.103412
-0.0922076
-0.128417
-0.115615
-0.153379
-0.141244
-0.172574
-0.164045
-0.181356
-0.178431
-0.178201
-0.181236
-0.164378
-0.172455
-0.143053
-0.154398
-0.118369
-0.13087
-0.0941021
-0.105996
-0.072629
-0.0829344
-0.0547546
-0.0632426
-0.040241
-0.0471136
-0.0285285
-0.0340673
-0.0192084
-0.0235845
-0.0121408
-0.0153935
-0.00737431
-0.00946398
-0.004999
-0.00588661
-0.0049454
-0.00470008
-0.00670977
-0.0056586
-0.00915463
-0.00793841
-0.0107369
-0.0101536
-0.0100915
-0.0107486
-0.00720658
-0.00883899
-0.00357832
-0.00535888
-0.00105659
-0.0020647
-0.000394238
-0.000530799
-0.010035
-0.000691245
-0.0850504
-0.264463
-0.239426
-0.0423521
-0.285289
-0.231312
-0.298968
-0.215041
-0.303522
-0.192132
-0.297966
-0.282428
-0.258353
-0.227331
-0.191917
-0.154439
-0.116731
-0.0653976
-0.0803569
-0.157586
-0.126787
-0.0976899
-0.0718669
-0.0505045
-0.0334856
-0.0202536
-0.0101321
-0.0012591
-0.0463914
-0.0512435
-0.0690899
-0.0745084
-0.0327956
-0.25353
-0.0892638
-0.0704011
-0.121963
-0.106786
-0.141471
-0.133816
-0.142544
-0.144391
-0.127213
-0.136426
-0.104227
-0.116128
-0.080962
-0.0923197
-0.0610836
-0.070497
-0.045486
-0.0527624
-0.0337652
-0.0391845
-0.0252383
-0.029146
-0.0192664
-0.0219693
-0.015336
-0.0170735
-0.0130658
-0.0140135
-0.0121777
-0.0124635
-0.0124863
-0.01219
-0.0139239
-0.0130645
-0.0164489
-0.0150604
-0.019711
-0.018031
-0.0228397
-0.0213595
-0.024822
-0.024023
-0.0251346
-0.0251898
-0.0239703
-0.0247025
-0.0219847
-0.0230309
-0.0199451
-0.0209281
-0.0184677
-0.0191078
-0.0179225
-0.0180654
-0.018467
-0.0180553
-0.0201374
-0.0191619
-0.0229402
-0.0213962
-0.0269226
-0.024778
-0.0322151
-0.0293918
-0.039038
-0.0354137
-0.0476204
-0.0430819
-0.0578742
-0.0525684
-0.0634473
-0.102265
-0.0796674
-0.0908323
-0.125025
-0.113694
-0.146382
-0.136062
-0.163942
-0.155818
-0.175156
-0.170458
-0.17863
-0.177902
-0.173984
-0.177304
-0.161848
-0.16877
-0.143761
-0.153427
-0.121751
-0.133107
-0.0981643
-0.109997
-0.0749912
-0.086469
-0.0534604
-0.0639565
0.00671139
-0.00230463
0.00535539
-0.0435584
-0.0314744
-0.0334451
-0.0324825
-0.0297813
-0.0305283
-0.0293838
-0.0294013
-0.0305212
-0.0297519
-0.0333868
-0.0317233
-0.0383023
-0.0355633
-0.0457739
-0.0416815
-0.0565021
-0.0506839
-0.0712691
-0.0633412
-0.0904653
-0.0803326
-0.113058
-0.101494
-0.135561
-0.124633
-0.152704
-0.145124
-0.160247
-0.157818
-0.156965
-0.159915
-0.144183
-0.151601
-0.124796
-0.13509
-0.102445
-0.113763
-0.0804136
-0.0912283
-0.0607474
-0.0702145
-0.0441407
-0.0520615
-0.0304045
-0.0369431
-0.0190835
-0.0244684
-0.00985597
-0.014219
-0.00263687
-0.00599342
0.00249517
0.00019717
0.0054361
0.0042415
0.00624048
0.0060886
0.0053638
0.00596097
0.0038003
0.00458828
0.00286084
0.00317197
0.00355351
0.00297793
0.0056808
0.00451053
0.00791884
0.0068864
0.00889332
0.0086101
0.00840549
0.00884234
0.00779158
-0.276875
-0.249387
-0.293789
-0.236102
-0.302173
-0.21494
-0.0846574
-0.068937
-0.0732657
-0.300772
-0.187943
-0.289197
-0.268269
-0.239801
-0.206239
-0.169506
-0.132029
-0.0954158
-0.0606231
-0.0153417
-0.0284012
-0.148385
-0.117383
-0.0893002
-0.0655224
-0.0464092
-0.0312848
-0.019597
-0.0106105
0.00356585
-0.00369924
-0.0342948
0.000805187
-0.00356675
-0.0250025
-0.0257102
0.0123082
-0.264754
-0.0381179
-0.0204333
-0.0731593
-0.0559577
-0.102167
-0.0888569
-0.118052
-0.112025
-0.116999
-0.119583
-0.10302
-0.111145
-0.0835717
-0.0935626
-0.0642191
-0.0736512
-0.0476852
-0.055527
-0.0345948
-0.0407205
-0.0246281
-0.0292545
-0.0172603
-0.0206528
-0.0119992
-0.0143948
-0.0084395
-0.0100288
-0.00626935
-0.00719751
-0.00525278
-0.0056296
-0.00522061
-0.00512127
-0.00609806
-0.00554651
-0.00786473
-0.00687512
-0.0103018
-0.00902951
-0.0127594
-0.0115822
-0.0143914
-0.0137225
-0.0147063
-0.0147191
-0.0138445
-0.0143944
-0.0123642
-0.0131386
-0.0109325
-0.0116049
-0.0100739
-0.010408
-0.0100903
-0.00996271
-0.0110959
-0.010468
-0.0131012
-0.0119751
-0.0160952
-0.0144745
-0.0201067
-0.017969
-0.0252395
-0.0225219
-0.0316661
-0.0282755
-0.0395485
-0.0354125
-0.0488757
-0.0440449
-0.0592232
-0.0540271
-0.0642695
-0.108554
-0.0963529
-0.133018
-0.120833
-0.155958
-0.144833
-0.174516
-0.165977
-0.186145
-0.181306
-0.189449
-0.188883
-0.184046
-0.187814
-0.170669
-0.178261
-0.151056
-0.161506
-0.127451
-0.139606
-0.102214
-0.114882
-0.0776511
-0.0897418
-0.0550231
-0.0660144
-0.0351366
-0.0447177
-0.0233486
-0.0241906
-0.022121
-0.0225967
-0.022048
-0.0219235
-0.023309
-0.0225041
-0.0260742
-0.02449
-0.0306368
-0.0281083
-0.0374472
-0.0337283
-0.0471222
-0.0418853
-0.060351
-0.0532572
-0.0774888
-0.0684466
-0.0976454
-0.0873273
-0.117715
-0.107973
-0.132894
-0.126211
-0.139301
-0.13732
-0.135949
-0.138792
-0.124204
-0.130976
-0.106711
-0.115979
-0.0866362
-0.0968002
-0.0667894
-0.0765472
-0.0489058
-0.0575428
-0.0335763
-0.0409209
-0.0206586
-0.0268391
-0.00979753
-0.014991
-0.00075821
-0.00505683
0.00648819
0.00309353
0.0118329
0.00940651
0.0151602
0.0137512
0.0165171
0.0160692
0.0163198
0.016567
0.0154443
0.0158976
0.0149847
0.0151004
0.0156219
0.0151629
0.0169736
0.0162713
0.0179382
0.0175795
0.0176721
0.0179711
0.0163152
0.0171092
0.0139096
0.0152711
0.0102474
0.012236
0.00143073
0.00794661
-0.28449
-0.255111
-0.296416
-0.236445
-0.0892286
-0.0773418
-0.29899
-0.210707
-0.291539
-0.180404
-0.274559
-0.249359
-0.218006
-0.182956
-0.146488
-0.109968
-0.0749316
-0.0421098
-0.0118006
-0.0261873
0.0265479
0.015525
-0.13763
-0.107548
-0.081454
-0.0601079
-0.0431262
-0.0298145
-0.0195402
-0.011612
-0.0056052
-0.0586102
-0.062478
0.0396194
0.0359146
-0.00120632
0.00528269
0.0489127
-0.271431
0.00693773
0.0221114
-0.0254487
-0.00898804
-0.0571824
-0.0415989
-0.0824161
-0.0708797
-0.0941539
-0.0899336
-0.0920617
-0.0947201
-0.0801121
-0.0869238
-0.0642111
-0.072339
-0.0485539
-0.0561817
-0.0351113
-0.0415052
-0.0243233
-0.0293924
-0.0159761
-0.0198681
-0.00969621
-0.0126022
-0.00512033
-0.00721676
-0.00193824
-0.00337255
9.8804e-05
-0.000790317
0.00118661
0.000750489
0.00147483
0.00142336
0.00104145
0.00134696
-0.000103151
0.000556564
-0.00184023
-0.000916711
-0.00371379
-0.00280144
-0.00504169
-0.00448457
-0.00537144
-0.00533873
-0.00476221
-0.00515861
-0.00369751
-0.00425013
-0.00275175
-0.00317731
-0.00237814
-0.00247348
-0.00282859
-0.0024926
-0.00418563
-0.00339368
-0.00643905
-0.00520273
-0.00956074
-0.00789233
-0.0135593
-0.0114473
-0.0185086
-0.015907
-0.0245382
-0.0213778
-0.0317661
-0.0279967
-0.0401808
-0.0358311
-0.0495876
-0.0447859
-0.0542893
-0.114596
-0.101739
-0.140626
-0.127615
-0.164899
-0.153142
-0.184337
-0.175413
-0.196383
-0.191399
-0.199538
-0.19912
-0.193424
-0.197612
-0.178881
-0.187105
-0.157814
-0.169012
-0.132697
-0.145601
-0.106011
-0.119402
-0.0800453
-0.09281
-0.0564139
-0.0678898
-0.0357789
-0.0457202
0.011128
0.00217382
0.00802612
-0.0265727
-0.0170897
-0.0180724
-0.0176588
-0.0156936
-0.0163708
-0.0149002
-0.0151857
-0.0150823
-0.0148567
-0.0164035
-0.0155933
-0.0190215
-0.0175381
-0.0231975
-0.0208949
-0.0293249
-0.0259889
-0.0379365
-0.0332846
-0.0496289
-0.0433668
-0.0647232
-0.0567624
-0.0824774
-0.0733855
-0.100186
-0.0915878
-0.113527
-0.107673
-0.11893
-0.117335
-0.115565
-0.118285
-0.104826
-0.110977
-0.0891285
-0.0974239
-0.0712123
-0.0802816
-0.0534473
-0.0621963
-0.0372813
-0.0451151
-0.0232096
-0.0299822
-0.0111326
-0.0169392
-0.000787525
-0.00575773
0.00797793
0.00379009
0.0151385
0.0117656
0.0205579
0.0180749
0.0241135
0.022571
0.0258533
0.025195
0.0261655
0.0261466
0.0258186
0.026016
0.0256839
0.0256813
0.0261463
0.0258521
0.0267259
0.0264757
0.026599
0.0267935
0.0253622
0.0261157
0.0232319
0.02439
0.0202354
0.0218418
0.0162715
0.0183764
0.013872
-0.286526
-0.255966
-0.0658568
-0.292872
-0.232198
-0.289563
-0.202625
-0.276695
-0.170126
-0.255263
-0.227134
-0.194415
-0.159288
-0.123726
-0.0890871
-0.0559342
-0.0250034
0.00338835
0.028912
0.0602054
0.0514236
-0.126205
-0.098084
-0.0745946
-0.0557477
-0.040786
-0.0291157
-0.0201354
-0.0131841
-0.00807519
-0.00424318
0.00445732
-0.00142711
-0.0182619
0.070721
0.0670363
-0.0105715
-0.0106809
0.0772017
-0.272854
0.0436023
0.0560336
0.0164196
0.0305395
-0.0131972
0.00184075
-0.0410572
-0.0276987
-0.0610442
-0.0524681
-0.0706825
-0.0675499
-0.0685265
-0.0708357
-0.058924
-0.0643467
-0.0464405
-0.0528051
-0.0341611
-0.040155
-0.0234843
-0.0285851
-0.0147589
-0.0188795
-0.00787853
-0.0111029
-0.00260105
-0.00505627
0.00132736
-0.000483819
0.0041355
0.0028581
0.00601631
0.00518085
0.00712847
0.00665941
0.00760049
0.00743778
0.0075096
0.00762352
0.00686414
0.00725666
0.00571271
0.00634118
0.00434809
0.00502725
0.00329423
0.00374954
0.00296202
0.00302759
0.00335013
0.0030845
0.0040733
0.00370124
0.00463406
0.0044024
0.00463511
0.0047219
0.0038599
0.00435076
0.00224746
0.00315748
-0.000176802
0.00113352
-0.00336949
-0.00167914
-0.0073189
-0.00524816
-0.0120697
-0.00958877
-0.0177137
-0.0147732
-0.0243345
-0.0209001
-0.0319101
-0.0280141
-0.0402557
-0.0360185
-0.0485378
-0.0445301
-0.0551442
-0.0521262
-0.0932832
-0.068687
-0.0807093
-0.11999
-0.106422
-0.147374