/*--------------------------------*- C++ -*----------------------------------*\
  =========                 |
  \\      /  F ield         | OpenFOAM: The Open Source CFD Toolbox
   \\    /   O peration     | Website:  https://openfoam.org
    \\  /    A nd           | Version:  10
     \\/     M anipulation  |
\*---------------------------------------------------------------------------*/
FoamFile
{
    format      ascii;
    class       volScalarField;
    location    "9";
    object      p;
}
// * * * * * * * * * * * * * * * * * * * * * * * * * * * * * * * * * * * * * //

dimensions      [0 2 -2 0 0 0 0];

internalField   nonuniform List<scalar> 
6397
(
4.13657
3.86752
0.467571
0.156078
-0.455271
-0.0369617
7.44128
4.91884
-10.9911
-9.24264
3.20506
0.155661
-0.237485
-0.179333
-0.238984
-15.4209
-15.948
-14.7198
11.9692
11.8277
11.0337
-10.6649
-9.45222
-8.97001
-0.129005
-0.0908488
-0.0459366
-3.67243
-3.52824
-2.73233
-2.72519
-0.350844
0.030545
-0.205825
-0.478241
-0.127
-0.435059
-0.0435985
0.0474192
-0.0461065
-0.365996
-0.128293
-2.66361
-0.334341
-0.0815747
0.287419
-0.308217
0.0277337
0.332125
0.433314
0.455934
0.549653
0.491462
4.02827
3.44054
2.90929
2.94328
1.75138
-2.19342
-2.16288
-2.36159
-2.6598
-3.08171
-3.59623
-4.07327
-4.38428
-4.33959
-4.01922
-2.10054
-2.27667
-2.37438
-1.97479
-1.98743
-2.09904
-2.31099
-2.57989
-2.8556
-3.03486
-2.99584
-2.80314
-2.79385
-2.52809
-3.53831
-2.55962
-3.3095
-2.87108
-3.08378
-2.36335
-3.83412
-3.24058
-2.75812
-2.26066
-4.24157
-4.48355
-2.5852
-2.27367
-4.13442
-5.02873
-4.67629
-2.83628
-3.48211
-1.86239
-2.27744
-1.47945
-1.60172
-1.51533
-1.4598
-1.75401
-1.62692
-1.8343
-1.90716
-1.66938
-1.7561
-1.66905
-1.64158
-1.82357
-3.76345
-2.74904
-3.15675
-5.2833
-4.54631
-5.74455
-5.7689
-4.59108
-5.32704
-3.13533
-3.81731
-2.27421
-2.61955
-2.02189
-2.07346
-2.2733
-2.0972
-2.64584
-2.45889
-4.52526
-3.69776
-5.06501
-2.14758
-2.46861
-2.77409
-2.5744
-2.38162
-2.66944
-1.67248
-2.26677
-1.7816
-5.20726
-5.2293
-1.7438
-2.6101
-4.12131
-4.79871
-2.59761
-3.34354
-1.46039
-1.95581
-0.90712
-1.12312
-0.754702
-0.796447
-0.788111
-0.766935
-0.854708
-0.755675
-0.897663
-0.877926
-1.04287
-0.939403
-1.27957
-4.35372
-3.43841
-6.42701
-5.42382
-7.05773
-7.03138
-5.52144
-6.46487
-3.51793
-4.45649
-2.24959
-2.78202
-1.68408
-1.89741
-1.62417
-1.61151
-1.73588
-1.67931
-1.80021
-4.32505
-3.57576
-4.84204
-4.73654
-2.23492
-2.61761
-2.85772
-1.12902
-1.72687
-3.12682
-3.44606
-1.75469
-2.25894
-1.615
-2.52405
-1.69578
-4.16913
-4.6341
-3.94155
-0.937854
-0.927508
-2.83541
-5.07864
-5.09833
-3.89036
-4.62576
-2.21253
-3.02381
-0.990322
-1.53021
-0.366744
-0.622187
-0.138076
-0.222428
-0.107558
-0.115543
-0.150054
-0.112566
-0.248157
-0.199708
-0.469335
-0.32857
-0.728294
-2.65541
-2.0742
-4.69329
-3.53654
-7.23356
-6.01024
-8.00031
-7.9614
-6.13789
-7.29405
-3.6771
-4.84355
-2.09669
-2.7675
-1.30681
-1.6282
-1.00956
-1.1133
-0.97451
-0.988309
-0.951936
-3.85755
-3.29277
-4.14532
-2.57407
-2.84917
-3.48663
-1.61944
-2.44672
-4.28906
-4.5144
-3.36669
-3.11039
-2.31451
-1.65833
-0.300828
-0.306659
-4.19804
-3.51054
-3.69715
-4.98472
-5.65919
-0.959525
-3.27091
-4.58348
-4.61774
-3.41731
-4.12682
-1.7776
-2.58753
-0.570674
-1.09855
0.0672869
-0.190312
0.316489
0.225185
0.378444
0.359705
0.355993
0.379477
0.263332
0.315393
0.0254304
0.174334
-0.584787
-0.21958
-1.82388
-1.10211
-3.85359
-2.76553
-1.24528
-0.891199
-0.998698
-2.39428
-1.68405
-4.68895
-3.40042
-7.47849
-6.14092
-8.33721
-8.28964
-6.27845
-7.55539
-3.5576
-4.85109
-1.79546
-2.54424
-0.889273
-1.26545
-0.471671
-0.631566
-0.319705
-0.368136
-0.299849
-3.26282
-2.88496
-3.42484
-1.74271
-0.896313
-6.12502
-4.7911
-3.25103
-4.3686
-2.65663
-1.04074
0.225879
0.18387
-2.74212
-5.7947
-0.957444
-1.91378
-6.91625
-6.73959
-5.23526
-0.368516
-3.92067
-3.49484
-2.08635
-2.86571
-3.77087
-3.84025
-2.71915
-3.35247
-1.2705
-1.98712
-0.186689
-0.658351
0.400969
0.162396
0.645123
0.555458
0.72347
0.698661
0.721266
0.731709
0.657264
0.699313
0.430794
0.570695
-0.0652298
0.216856
-0.993682
-0.466503
-2.5055
-1.7119
-3.42307
-3.17419
-0.287505
-0.223021
-0.22728
-0.759277
-0.451649
-1.99055
-1.25571
-4.29821
-3.01199
-7.07703
-5.74243
-7.98121
-7.90626
-5.8818
-7.16943
-3.1646
-4.45458
-1.40317
-2.15275
-0.479926
-0.866704
-0.00754221
-0.204891
0.200879
0.122687
0.227715
-1.01585
-0.242473
-5.01501
-3.12832
-0.515022
0.0933535
-1.1916
-0.759718
-2.07833
-1.64341
-2.65991
-2.44634
-2.54326
-2.69109
-1.80809
-2.2443
-1.32677
-3.7791
-5.43957
-3.05144
-6.98725
-2.02463
-7.59852
-0.265779
-1.03191
-6.53058
-2.46702
-4.20109
-1.46008
-0.836332
-4.72552
-2.58208
-2.1037
-2.75337
-2.79465
-1.92515
-2.44924
-0.729135
-1.31989
0.17737
-0.217479
0.668706
0.470312
0.878798
0.802336
0.954002
0.930651
0.967621
0.96652
0.93255
0.961228
0.758676
0.866099
0.387278
0.597435
-0.299351
0.0932496
-1.32299
-0.807885
-1.76031
-1.70828
-0.866766
-1.41168
0.308656
0.301636
0.306647
0.18691
0.27966
-0.297086
0.00359129
-1.44763
-0.772651
-3.53552
-2.37267
-6.07039
-4.84931
-6.93597
-6.84067
-4.98632
-6.16865
-2.5234
-3.68768
-0.936966
-1.61203
-0.0928374
-0.451291
0.357372
0.167593
0.59483
0.496055
0.607264
0.634235
0.43474
0.556707
0.268197
-1.36423
-0.665594
-1.0312
-1.90122
-1.66153
-2.1163
-2.06958
-1.79448
-2.02524
-1.04808
-1.46133
-0.250481
0.309442
-1.6666
-0.35731
-0.267454
-0.644968
-4.29332
-6.44043
-3.23849
-7.65058
-2.00689
-7.39629
-0.972986
-5.57101
0.297791
-0.232204
-3.0372
0.0829069
-0.851104
0.663305
0.236545
0.565002
0.485512
0.862475
1.07724
0.0768018
0.188031
0.417616
-5.4839
-0.853433
-0.363243
-1.669
-1.32163
-1.7972
-1.83789
-1.15216
-1.55412
-0.229536
-0.686937
0.481895
0.171397
0.869354
0.719112
1.03422
0.977723
1.10397
1.08149
1.13543
1.12442
1.11712
1.13933
0.9725
1.06145
0.694836
0.848554
0.247971
0.493595
-0.309615
-0.0359562
-0.525454
-0.527126
0.230476
-0.220494
0.61534
0.697525
0.706249
0.683975
0.682627
0.582883
0.656778
0.157915
0.417595
-0.78075
-0.226592
-2.52302
-1.55258
-4.61214
-3.60983
-5.377
-5.2533
-3.78221
-4.74283
-1.76597
-2.71989
-0.44771
-1.0104
0.26363
-0.0384233
0.653688
0.488986
0.86403
0.780023
0.90659
0.906645
0.711225
0.839821
0.529575
-1.06399
-0.745959
-1.53816
-1.32638
-1.77418
-1.70409
-1.6609
-1.76525
-1.16482
-1.45569
-0.436426
-0.808557
-0.0968078
-4.56945
-6.99714
-3.17295
-7.46751
-1.85288
-6.35536
-0.873302
-4.16642
-0.256673
-1.8347
0.428481
0.121972
-0.145362
1.27831
0.838662
0.659714
0.268385
0.559031
1.43599
1.59575
1.65479
0.572521
0.716704
0.364562
0.623543
-5.90136
-0.310082
0.0512074
-0.872863
-0.625633
-0.96552
-0.981083
-0.497477
-0.781117
0.181124
-0.151576
0.709404
0.478803
1.0024
0.888179
1.1319
1.08517
1.20329
1.17292
1.22797
1.21804
1.19919
1.22424
1.09536
1.15316
0.952573
1.02861
0.738259
0.856988
0.430183
0.590101
0.364224
0.317356
0.904222
0.577122
1.39505
1.19704
1.51631
0.852881
0.752249
0.946654
0.925816
0.924782
0.930631
0.871784
0.914609
0.584745
0.766867
-0.136643
0.293068
-1.48385
-0.73475
-3.05927
-2.30948
-3.44802
-3.50396
-2.49362
-3.15721
-1.01108
-1.71949
0.000915882
-0.435773
0.566422
0.323884
0.883539
0.748154
1.05342
0.97919
1.10035
1.09121
0.917022
1.03569
0.716548
-1.01456
-0.689305
-1.58232
-1.31384
-1.83461
-1.75667
-1.73584
-1.83766
-1.30034
-1.55315
-0.655137
-0.992853
0.0475783
-0.297872
0.348125
-4.45725
-6.82898
-2.86017
-6.46587
-1.62619
-4.85568
-0.816106
-2.76025
-0.34529
-0.8744
-0.0443759
0.344125
0.428489
0.073744
1.10292
1.70291
1.5502
0.812264
-5.74406
0.574442
0.929214
0.780016
0.126253
0.363079
-0.228192
-0.0730299
-0.295108
-0.293908
0.0110392
-0.1781
0.486151
0.247715
0.868098
0.695806
1.08433
0.991204
1.1908
1.14153
1.25222
1.22219
1.29471
1.27721
1.29165
1.29842
1.24734
1.274
1.16355
1.21207
1.02771
1.10077
0.911124
0.959331
0.972421
0.908082
1.33233
1.12202
1.64542
1.51993
1.74806
1.71871
1.77815
1.76681
0.89728
0.722313
0.820934
1.02915
0.962572
1.11525
1.08271
1.10796
1.11721
1.069
1.09481
0.890402
1.00849
0.379152
0.687259
-0.592464
-0.0532792
-1.66992
-1.16702
-1.95889
-1.95722
-1.30007
-1.73171
-0.332352
-0.799198
0.373515
0.0586096
0.802734
0.61209
1.0512
0.939645
1.17616
1.11552
1.20844
1.19629
1.05021
1.15528
0.63167
0.867163
0.343703
-1.7531
-0.864875
-1.33151
-2.28477
-2.06347
-2.30596
-2.37087
-1.83706
-2.12454
-1.07227
-1.47478
-0.261823
-0.65422
0.404022
0.092472
0.84762
0.66394
1.02085
0.962919
0.260657
0.603725
1.75361
1.77832
-3.96378
-5.96544
0.276059
-2.44306
-5.05058
1.03486
1.17885
1.14907
-1.43874
-3.4101
-0.867135
-1.69276
-0.504301
-0.246303
-0.275814
0.662552
-0.161045
1.30696
0.477368
0.060324
1.64947
1.78524
1.75053
-5.06102
0.738515
0.876808
0.447915
0.586651
0.234831
0.326994
0.187816
0.186009
0.374574
0.256522
0.688518
0.522689
0.962712
0.830558
1.12869
1.05077
1.22488
1.17678
1.30298
1.26095
1.34094
1.32125
1.35359
1.35301
1.31793
1.34307
1.25331
1.28587
1.21243
1.22933
1.21696
1.20734
1.33164
1.25664
1.58562
1.45123
1.75591
1.69261
1.78579
1.78005
1.77587
1.78253
1.69007
1.7484
0.887454
0.727838
0.798197
1.06001
0.976143
1.19459
1.12921
1.25658
1.23344
1.25418
1.26287
1.21501
1.24036
1.09218
1.17192
0.743415
0.956114
0.108103
0.451953
-0.50558
-0.228747
-0.690313
-0.663356
-0.351059
-0.576671
0.212063
-0.0687058
0.667872
0.456649
0.97206
0.830194
1.16023
1.07105
1.24446
1.20426
1.25274
1.25297
1.13971
1.21639
0.807772
1.00018
0.555666
-1.51845
-0.941656
-2.61947
-2.10613
-3.14731
-2.97034
-2.89176
-3.1194
-2.04135
-2.51833
-0.966101
-1.50622
0.0194089
-0.444127
0.695416
0.400555
1.06263
0.916256
1.14106
0.342727
0.687305
1.67168
1.59423
-3.28937
-4.77089
1.06295
1.12367
-2.09384
-3.71269
-1.39621
-2.33893
-1.03662
-1.00375
-0.756185
0.142258
-0.599757
0.892275
-0.435257
1.4831
-0.165015
1.72965
0.668492
0.198871
1.76
0.89061
0.897034
0.657141
-0.861403
1.52363
1.45752
-4.1225
0.846375
0.954727
0.646358
0.733575
0.522766
0.580977
0.491774
0.497133
0.597365
0.532347
0.802644
0.693778
1.00373
0.905494
1.14024
1.07583
1.22727
1.18501
1.28298
1.25975
1.32729
1.31194
1.34373
1.33777
1.35018
1.34757
1.35415
1.35258
1.35469
1.355
1.38271
1.36147
1.50097
1.42977
1.69166
1.59513
1.79459
1.763
1.77826
1.79296
1.72703
1.75606
1.61222
1.68215
1.36907
1.50804
0.970413
0.920002
1.08387
1.02652
1.17781
1.13465
1.25345
1.2148
1.30933
1.28527
1.32964
1.3244
1.30242
1.3216
1.21045
1.26937
0.973547
1.11536
0.610326
0.796266
0.330344
0.452612
0.212171
0.250872
0.318454
0.238766
0.599719
0.450274
0.876533
0.74218
1.08418
0.984027
1.22143
1.15445
1.27727
1.25452
1.26194
1.27816
1.17782
1.23579
0.938691
1.08254
0.482941
0.742869
0.198995
-2.20606
-1.48845
-3.46806
-2.88815
-4.03319
-3.87598
-3.51054
-3.90198
-2.27439
-2.94261
-0.912032
-1.57535
0.204318
-0.311104
0.903578
0.612149
1.22598
1.10009
1.27905
1.27419
1.19643
1.25674
-2.70707
-3.65799
1.19722
1.26214
1.10637
1.21376
1.139
1.31057
1.15514
-1.93494
-2.73593
-1.53455
-1.65219
-1.33421
-0.551565
-1.14891
0.42352
-1.03881
1.0561
-0.792582
1.64502
-0.373436
1.72107
0.954918
1.13765
1.20965
1.06456
0.100248
1.67127
0.658761
1.24762
0.129311
1.20872
-3.26793
1.021
1.08076
0.89979
0.972655
0.773128
0.829298
0.694782
0.716851
0.677015
0.673648
0.73557
0.694131
0.870049
0.794148
1.02232
0.946568
1.13992
1.08449
1.22445
1.18409
1.30295
1.26173
1.33991
1.32071
1.37136
1.35896
1.38071
1.37975
1.37854
1.37891
1.40255
1.38571
1.47364
1.4318
1.58793
1.52572
1.71154
1.64999
1.77604
1.7574
1.74612
1.76801
1.67076
1.71407
1.53807
1.61354
1.43853
1.12359
1.12059
1.125
1.12376
1.17237
1.13883
1.2554
1.21459
1.32656
1.29328
1.36991
1.35271
1.38193
1.37951
1.35352
1.37248
1.27699
1.32425
1.11483
1.20703
0.926589
1.01377
0.828352
0.87069
0.744846
0.785619
0.746643
0.733051
0.880058
0.803668
1.03328
0.957774
1.15563
1.09665
1.24271
1.20079
1.28084
1.26819
1.25883
1.27783
1.18433
1.2303
1.00328
1.1123
0.638391
0.848701
0.394595
-1.1836
-0.545249
-2.74871
-1.9305
-4.23071
-3.54138
-4.84027
-4.70139
-4.07894
-4.61846
-2.49634
-3.33425
-0.877644
-1.65341
0.341033
-0.209398
1.06698
0.768489
1.34751
1.24766
1.34249
1.37062
1.28901
1.33121
1.16237
0.997955
0.981701
-2.38756
-2.87544
-1.99581
-2.12448
-1.85223
-1.2056
1.02161
-1.82629
-0.222885
-1.73233
0.659296
-1.61575
1.11431
1.32313
1.41517
1.49538
1.44004
-1.24711
1.82106
1.20732
-0.54822
1.54838
0.734748
0.106849
1.44537
1.14857
0.230504
-0.138202
0.7995
0.815641
0.162675
-2.72397
1.06043
1.10123
1.08784
1.00075
1.02871
0.928265
0.969871
0.845338
0.883838
0.794368
0.809697
0.786293
0.782005
0.825332
0.799577
0.916877
0.866219
1.03297
0.976027
1.13341
1.0863
1.21064
1.17418
1.25577
1.24052
1.31974
1.29512
1.35693
1.34084
1.38634
1.37251
1.41543
1.40058
1.44656
1.43
1.49862
1.46743
1.58787
1.54159
1.69422
1.64767
1.73047
1.72283
1.69572
1.71968
1.61331
1.66045
1.47529
1.55126
1.26648
1.38154
0.981937
1.13076
0.654605
0.698132
0.835045
1.30145
1.34816
1.23815
1.26613
1.22931
1.22502
1.27649
1.24909
1.33303
1.30725
1.37155
1.35353
1.40206
1.38932
1.40815
1.40853
1.38187
1.39872
1.3224
1.3564
1.22182
1.27582
1.13691
1.17011
1.10789
1.12172
1.04247
1.0802
1.00489
1.00232
1.05504
1.02313
1.13711
1.09615
1.20926
1.17707
1.25634
1.23738
1.2719
1.27051
1.24593
1.26425
1.17031
1.21182
1.01919
1.10378
0.748507
0.899726
0.372132
0.564546
0.174839
-1.38531
-0.653106
-3.10543
-2.20832
-4.79716
-4.00787
-5.41352
-5.30071
-4.48562
-5.12484
-2.66562
-3.61907
-0.861238
-1.72445
0.428195
-0.143547
1.15668
0.857676
1.42525
1.33421
1.42765
1.45303
1.27527
1.3053
1.22638
-2.33118
-2.43168
0.566947
0.745952
0.64237
-2.27592
-1.76306
1.06726
-2.41324
-0.918242
-2.58303
0.0356275
0.773919
1.58067
1.6259
1.66037
1.62824
-2.57786
0.828748
1.54023
-2.36302
1.0013
0.485477
0.604777
1.3689
-1.7174
2.06297
0.931006
-0.647711
1.40752
0.273655
1.03983
1.08017
1.02341
1.11809
0.303543
0.370065
1.04751
-2.49226
1.02452
1.03842
0.977316
0.998136
0.929857
0.955212
0.883352
0.905873
0.854687
0.86493
0.853524
0.848749
0.885703
0.865268
0.953607
0.916431
1.04327
0.998571
1.12895
1.08804
1.20077
1.16631
1.25608
1.23046
1.31021
1.28518
1.34966
1.33193
1.37828
1.36523
1.40803
1.39186
1.45314
1.428
1.51574
1.48254
1.58599
1.55023
1.65087
1.61934
1.67445
1.67073
1.63869
1.66285
1.55614
1.60317
1.4213
1.49563
1.23019
1.3335
0.989584
1.11559
0.862552
1.49439
1.55514
1.38678
1.43736
1.33551
1.3518
1.32883
1.33041
1.33963
1.33097
1.37289
1.35581
1.40112
1.38759
1.42343
1.4141
1.42657
1.42789
1.40343
1.41754
1.36149
1.3838
1.30486
1.33272
1.2726
1.2819
1.26058
1.26788
1.20783
1.23904
1.16042
1.17639
1.16319
1.15728
1.19615
1.17876
1.23455
1.21758
1.25855
1.25149
1.25659
1.26467
1.22272
1.24678
1.14563
1.19051
1.01535
1.08522
0.81668
0.918903
0.559438
0.677539
0.402936
-0.22324
0.352001
0.118964
-1.42594
-0.722598
-3.20494
-2.26195
-5.00971
-4.17274
-5.65119
-5.53585
-4.6578
-5.33724
-2.74534
-3.74126
-0.840904
-1.76887
0.472279
-0.113288
1.19889
0.904575
1.44053
1.37314
1.45224
1.46748
1.28792
1.32512
1.22328
0.432278
0.547418
-2.50251
-2.23286
1.10606
-2.83213
-1.60127
1.66863
1.70513
1.70386
1.6536
-3.32898
-0.761598
0.761192
1.63546
-3.70207
0.277813
1.5988
-3.81772
0.935494
0.298277
0.532348
1.49856
-3.28241
0.689499
0.387304
1.21242
-2.04945
1.7672
0.567535
-0.554686
0.996561
0.439389
0.295803
0.456749
-2.48964
0.986049
0.95194
0.975012
0.980567
0.985448
0.958501
0.968263
0.929973
0.943983
0.901099
0.91517
0.888244
0.89258
0.894806
0.888186
0.924499
0.906538
0.979532
0.949744
1.0513
1.01528
1.12456
1.08917
1.19029
1.15842
1.24561
1.21855
1.2951
1.27087
1.33672
1.31679
1.37175
1.35498
1.40509
1.38833
1.44215
1.42253
1.49508
1.46605
1.55452
1.52571
1.60621
1.58495
1.61548
1.617
1.57895
1.6022
1.50225
1.54607
1.37721
1.44577
1.2067
1.29621
1.00184
1.10755
0.798424
0.89526
0.649101
0.71558
0.376269
0.547956
0.593924
1.64148
1.68644
1.54374
1.59852
1.45534
1.49283
1.41323
1.43164
1.386
1.39717
1.38699
1.38227
1.40886
1.39662
1.42582
1.41838
1.43837
1.43274
1.43828
1.44048
1.4199
1.43094
1.39016
1.40557
1.35972
1.37343
1.34737
1.35059
1.33703
1.3446
1.29355
1.31875
1.24755
1.26719
1.23011
1.23434
1.23633
1.23097
1.24662
1.24118
1.24802
1.2494
1.23131
1.24532
1.19072
1.21895
1.11481
1.16005
1.00044
1.06257
0.838889
0.923496
0.635543
0.744252
0.46134
0.552103
0.461623
-0.223984
0.113627
-1.3259
-0.692934
-3.07571
-2.13302
-4.85235
-4.03851
-5.46266
-5.35545
-4.50628
-5.15677
-2.66814
-3.62923
-0.858999
-1.72461
0.445557
-0.134776
1.16886
0.874327
1.42633
1.34812
1.4206
1.44748
1.2587
1.33613
1.08142
1.17842
0.951542
1.00698
1.06125
-2.96287
-2.27378
0.902754
0.352791
1.69112
1.62941
-3.77724
-1.64169
0.510913
0.333975
0.67882
1.60936
-4.73364
-0.666455
0.176563
1.60834
-5.43136
0.555832
0.103327
0.442251
1.58347
-5.53614
0.947629
0.130413
1.43694
-4.20661
0.829789
0.257462
0.947958
-1.97478
1.3603
-0.184253
0.501841
0.625935
0.610823
1.68349
1.69957
-2.75638
0.914963
0.812411
0.87246
0.93879
0.929585
0.94049
0.939204
0.933244
0.937952
0.919944
0.92626
0.907989
0.913453
0.906702
0.906347
0.919463
0.91157
0.948341
0.931989
0.996109
0.970467
1.05681
1.02607
1.12049
1.0892
1.1805
1.15103
1.23336
1.2073
1.27936
1.25648
1.31959
1.29993
1.35484
1.33757
1.39066
1.37247
1.43031
1.40997
1.47427
1.4519
1.51862
1.49649
1.55667
1.54061
1.56054
1.56396
1.52249
1.5463
1.4512
1.49095
1.33981
1.40091
1.18966
1.26811
1.01495
1.10421
0.849793
0.92793
0.7338
0.785445
0.66357
0.692382
0.644088
1.74776
1.76815
1.74785
1.74212
1.74989
1.68021
1.71862
1.58519
1.63351
1.51186
1.54363
1.46098
1.48433
1.43122
1.44183
1.42557
1.42591
1.43325
1.4287
1.44099
1.43752
1.44684
1.44421
1.4448
1.44715
1.42992
1.43861
1.40854
1.41921
1.39099
1.39868
1.38283
1.38596
1.37076
1.3791
1.33566
1.35566
1.2931
1.31407
1.26281
1.27574
1.25007
1.25453
1.24538
1.24721
1.23565
1.24213
1.21048
1.22673
1.16368
1.1918
1.08783
1.1305
0.980676
1.03992
0.842754
0.91782
0.687443
0.767736
0.558396
0.617334
0.49778
0.514954
-0.102495
0.183593
-1.09522
-0.526248
-2.69792
-1.83666
-4.2804
-3.55888
-4.87043
-4.74084
-4.09633
-4.64
-2.48047
-3.33429
-0.853245
-1.63341
0.369866
-0.180278
1.06933
0.783836
1.32484
1.24563
1.31069
1.3382
1.17037
1.24429
1.03882
1.10545
0.906917
0.968813
0.854528
1.60854
-3.80897
-2.61203
0.52543
0.571672
0.633863
0.562457
0.737363
0.35502
0.650629
1.56461
-5.2975
-1.82541
0.124802
1.5649
-6.88371
-0.555473
-0.0549859
0.286198
1.58624
-7.93563
0.859314
-0.132081
1.56996
-7.31797
0.551052
0.106694
-0.0693978
1.30929
-4.52747
0.634488
0.505779
-1.32466
1.8298
1.64886
1.60937
-3.38481
0.856149
0.827153
0.893218
0.877661
0.904952
0.900532
0.910071
0.909609
0.908723
0.910459
0.907211
0.908118
0.914059
0.910169
0.932622
0.922465
0.963046
0.946553
1.00629
0.98319
1.05934
1.03203
1.11555
1.08742
1.17006
1.14298
1.21975
1.1952
1.26359
1.24182
1.30255
1.28338
1.33718
1.32024
1.37088
1.35409
1.40688
1.38847
1.44718
1.42689
1.48348
1.46637
1.5068
1.49877
1.50634
1.51019
1.47218
1.49381
1.40553
1.44241
1.30748
1.36073
1.17795
1.24638
1.03128
1.1052
0.9002
0.960669
0.807685
0.850518
0.750804
0.773485
0.716829
0.735379
0.510883
0.56629
0.715181
0.704023
1.79134
1.83962
1.80361
1.77666
1.78684
1.71396
1.75357
1.62149
1.66716
1.54963
1.58199
1.49972
1.52299
1.46617
1.48019
1.45316
1.45785
1.45064
1.4512
1.45153
1.45099
1.45154
1.45168
1.4478
1.45041
1.43462
1.4422
1.41808
1.42605
1.40525
1.41098
1.39755
1.40111
1.3835
1.39253
1.3509
1.36911
1.31116
1.33095
1.27665
1.29186
1.25618
1.26555
1.23975
1.2487
1.21873
1.23151
1.18685
1.20576
1.13693
1.16403
1.06314
1.10135
0.963309
1.01557
0.842344
0.906343
0.715604
0.778989
0.606915
0.65484
0.549303
0.564306
0.441128
0.524565
0.10773
0.328233
-0.751817
-0.251981
-2.10887
-1.38689
-3.44472
-2.83098
-4.01662
-3.86127
-3.4704
-3.87586
-2.19974
-2.87812
-0.857995
-1.51087
0.216709
-0.274664
0.88122
0.601305
1.17527
1.07081
1.1866
1.20407
1.06289
1.12779
0.965182
1.00832
0.859789
0.918479
0.79754
0.438133
0.598293
1.51443
-5.17784
-3.22593
0.698597
1.90121
0.173714
1.48974
-7.65591
-2.06115
0.610243
0.620435
0.761456
-0.115618
1.84179
1.74729
0.191995
1.51771
-9.89896
-0.457015
-0.332618
1.5995
-10.462
0.792771
-0.105936
-0.404269
1.58955
-7.9517
-0.0569278
-0.291016
1.13274
-3.58372
0.256216
0.393263
0.438086
-0.285367
0.488664
1.51677
1.48605
-4.41942
0.810349
0.767039
0.852226
0.835818
0.87326
0.865372
0.884712
0.881527
0.893731
0.891069
0.903098
0.898881
0.916952
0.909737
0.938782
0.926895
0.970128
0.95323
1.01102
0.98936
1.05913
1.03427
1.10983
1.08429
1.15938
1.13473
1.20553
1.18284
1.24702
1.22657
1.28418
1.26597
1.31776
1.3013
1.34986
1.33401
1.38187
1.36595
1.41466
1.39838
1.44373
1.43023
1.46065
1.45309
1.45618
1.46168
1.42461
1.44381
1.36554
1.39845
1.27951
1.32573
1.16949
1.2271
1.04801
1.10846
0.945329
0.99214
0.873324
0.906093
0.826828
0.845205
0.799869
0.814498
0.801685
0.786094
1.98403
1.92356
2.03605
1.89685
1.95911
1.83253
1.85518
1.80337
1.81971
1.74023
1.77767
1.64954
1.69506
1.57899
1.61041
1.52964
1.55327
1.49167
1.50846
1.47285
1.48056
1.46316
1.46733
1.45744
1.45999
1.45298
1.45512
1.44711
1.45043
1.43457
1.44175
1.42082
1.42726
1.40965
1.41489
1.39937
1.40482
1.3814
1.3918
1.35164
1.36772
1.32042
1.33476
1.28041
1.29818
1.25224
1.26607
1.22784
1.24081
1.20052
1.21586
1.16393
1.18398
1.11171
1.13891
1.0393
1.07627
0.947084
0.994587
0.84046
0.895018
0.731289
0.784484
0.63785
0.679605
0.584983
0.603687
0.562348
0.574809
0.541326
0.563714
0.564717
0.337927
0.486166
-0.32058
0.0687685
-1.36002
-0.806251
-2.42897
-1.92691
-3.00427
-2.80729
-2.75483
-2.98166
-1.90891
-2.37569
-0.898965
-1.40374
-0.0128853
-0.426921
0.590438
0.32757
0.913054
0.78348
1.00542
0.9795
0.962643
0.993378
0.888132
0.925593
0.800676
0.850472
0.667762
0.73259
0.633021
0.291543
1.40677
-7.30164
-4.05496
0.661602
0.85131
0.549728
-0.0590091
0.258162
0.194201
1.96676
1.87424
-0.10069
1.40814
-10.8093
-2.3094
-0.414367
1.50553
-12.8647
-0.378919
-0.305797
0.330245
-0.68318
1.67775
-11.2471
0.265864
-0.749801
1.58234
-6.4788
-0.557062
-0.605093
0.701574
-1.75085
0.720273
1.34468
1.61187
1.43899
0.58905
1.34353
-5.94875
0.760288
0.712756
0.814799
0.792881
0.844367
0.831822
0.865459
0.856287
0.87955
0.873143
0.895145
0.887625
0.914995
0.904902
0.940564
0.927248
0.972899
0.955982
1.01193
0.991608
1.05627
1.03343
1.10285
1.07934
1.14861
1.12583
1.19149
1.17041
1.23038
1.21129
1.26541
1.24829
1.29715
1.28157
1.32686
1.31229
1.35566
1.34145
1.38303
1.36981
1.40512
1.39506
1.41691
1.41243
1.41085
1.41659
1.38133
1.3991
1.32921
1.35796
1.25524
1.29481
1.16214
1.21067
1.06326
1.11174
0.981943
1.01959
0.923602
0.949818
0.893181
0.904765
0.873371
0.883042
0.88579
0.869029
0.916882
0.984189
0.926508
0.835648
2.08507
2.03448
2.07648
2.15841
2.12457
1.94614
2.00528
1.86911
1.90128
1.82373
1.84498
1.76016
1.79652
1.67273
1.71663
1.60297
1.63456
1.55204
1.57638
1.51116
1.52994
1.48649
1.49708
1.47128
1.47831
1.45974
1.46503
1.45147
1.4553
1.4433
1.44744
1.43131
1.43955
1.41832
1.42452
1.40607
1.41214
1.39313
1.39989
1.37405
1.38469
1.34497
1.36065
1.30613
1.32708
1.27349
1.29066
1.24331
1.25851
1.21477
1.22984
1.18272
1.19982
1.14208
1.16331
1.08792
1.11576
1.01716
1.05365
0.931612
0.976185
0.83632
0.884824
0.740176
0.786591
0.657203
0.694815
0.601369
0.625678
0.559441
0.580108
0.545735
0.565248
0.542091
0.551204
0.60333
0.575577
0.527847
0.602875
0.11289
0.364793
-0.602129
-0.209739
-1.45417
-1.03518
-2.03983
-1.80735
-2.06431
-2.12167
-1.63814
-1.89306
-0.992756
-1.3282
-0.336406
-0.65552
0.207103
-0.0470791
0.594827
0.421695
0.794079
0.71486
0.852152
0.838493
0.807325
0.840749
0.721499
0.766001
0.617327
0.66681
0.562312
0.583675
0.0749558
1.76136
1.22157
1.40728
1.6093
-0.307186
1.13688
1.27762
-10.09
-4.99298
-0.370155
1.32799
-13.7515
-2.52636
0.996806
1.05353
-0.680185
0.450444
0.835007
0.727872
2.11147
2.18731
0.541912
0.530056
0.51667
0.542129
0.513736
0.492543
-0.821818
1.52103
-13.9428
-0.597583
-0.0754128
0.0275516
-1.13829
1.75506
-9.25985
-0.767756
-0.841872
-1.14346
0.923624
1.14242
1.46478
-3.42657
-0.943881
0.148026
1.16628
-7.90441
0.634134
0.589124
0.71772
0.677183
0.777901
0.751963
0.815974
0.798794
0.84339
0.830925
0.864974
0.854826
0.88625
0.875833
0.910264
0.898118
0.93863
0.924016
0.972092
0.954785
1.01032
0.990676
1.052
1.03075
1.09506
1.0734
1.13752
1.11636
1.17749
1.15785
1.21388
1.19603
1.24677
1.23071
1.27633
1.26189
1.30339
1.29019
1.32857
1.31625
1.35161
1.34059
1.36888
1.36132
1.37614
1.37392
1.36851
1.3746
1.34242
1.35811
1.29685
1.32185
1.23424
1.26766
1.15638
1.19675
1.07723
1.11556
1.01291
1.04312
0.965428
0.986366
0.945884
0.952571
0.939141
0.941513
0.961877
0.94345
1.04434
0.995737
0.924462
2.09867
1.93869
2.02451
2.19156
2.15324
2.24698
2.22089
1.98688
2.0438
1.90445
1.94099
1.84413
1.8731
1.77633
1.81288
1.69278
1.73484
1.62197
1.65471
1.56905
1.59418
1.52493
1.54575
1.49542
1.50833
1.47543
1.48493
1.45925
1.46669
1.44763
1.45304
1.43596
1.44201
1.42355
1.42758
1.41119
1.41749
1.39843
1.40486
1.38389
1.39163
1.36276
1.37438
1.33316
1.34886
1.2978
1.31586
1.26436
1.28112
1.23253
1.24878
1.20028
1.21695
1.1645
1.183
1.12092
1.1434
1.06585
1.09429
0.997518
1.03308
0.91768
0.959127
0.830651
0.874602
0.743243
0.785745
0.666199
0.702332
0.606759
0.634461
0.561818
0.582102
0.545068
0.590102
0.565337
0.659343
0.609388
0.684174
0.69396
0.501193
0.623904
0.0572109
0.317056
-0.586566
-0.25818
-1.15009
-0.892914
-1.44443
-1.33659
-1.41682
-1.46793
-1.14899
-1.30508
-0.749638
-0.959533
-0.301605
-0.528974
0.153323
-0.0721444
0.520703
0.354032
0.718447
0.644947
0.715171
0.738663
0.634222
0.674047
0.564919
0.597757
0.536258
-0.222836
1.82534
0.858187
1.11897
-12.5781
-5.62596
1.1036
-1.12564
0.611503
2.26748
0.514413
0.493905
0.518016
0.470849
-0.789928
1.25395
-14.85
-2.65066
0.132645
-1.34151
1.58899
-11.9111
-1.28497
-0.419433
-0.264264
-1.41218
-1.64186
0.530271
0.80372
1.93263
-5.47608
-1.8793
-1.53355
1.55894
-0.325248
1.67198
1.48124
0.939791
-9.62182
0.607659
0.564224
0.685325
0.648625
0.745232
0.717155
0.788911
0.768653
0.822339
0.806746
0.849896
0.836637
0.876256
0.863167
0.904134
0.890057
0.93486
0.919181
0.968942
0.951516
1.00636
0.987309
1.04622
1.02608
1.08673
1.06646
1.12635
1.10667
1.16354
1.14529
1.19751
1.18088
1.2281
1.21318
1.25548
1.24218
1.27985
1.26801
1.30178
1.29116
1.32075
1.31179
1.33407
1.32835
1.33869
1.3376
1.33121
1.33669
1.30682
1.32081
1.26804
1.28919
1.21495
1.24315
1.15107
1.18381
1.08888
1.11879
1.03821
1.06212
1.00212
1.01764
0.989858
0.993232
0.995503
0.990622
1.02644
1.00667
1.09912
1.05753
1.17187
1.21151
1.15193
1.08353
1.1301
0.95411
1.0244
-1.70337
0.783836
0.872966
2.23262
2.12927
2.18474
2.29645
2.26918
2.33475
2.31794
2.28565
2.3616
2.34879
2.14163
2.21169
2.02211
2.07814
1.93413
1.97479
1.86301
1.89785
1.79008
1.82769
1.70871
1.74968
1.63697
1.67059
1.58133
1.60786
1.53445
1.55669
1.50061
1.51589
1.47623
1.48773
1.45666
1.4658
1.44169
1.4487
1.42807
1.43487
1.41483
1.42089
1.40205
1.40846
1.38846
1.39552
1.37173
1.38062
1.34934
1.36131
1.32008
1.33557
1.28324
1.30289
1.25264
1.26899
1.21949
1.23636
1.18508
1.20263
1.14673
1.16642
1.10116
1.12467
1.04584
1.07456
0.979709
1.01417
0.904478
0.943193
0.823491
0.864096
0.742167
0.78196
0.668436
0.704002
0.607907
0.636329
0.560756
0.582702
0.538122
0.542455
0.477026
0.505449
0.628723
0.58352
0.725408
0.666644
0.819837
0.780051
0.807924
0.837803
0.567778
0.723205
0.0993423
0.352757
-0.45664
-0.177431
-0.939808
-0.715238
-1.2489
-1.11767
-1.35941
-1.32992
-1.23705
-1.32954
-0.872031
-1.08391
-0.334133
-0.61453
0.183548
-0.0611333
0.517063
0.381162
0.593872
0.582527
0.55123
0.576955
0.503201
0.526343
0.46159
0.481406
0.422974
0.441647
-0.629769
2.05831
0.490581
0.966908
-13.3911
-5.88765
0.278404
-1.34908
1.23023
-13.002
-2.84965
-0.134168
1.24595
1.27622
2.30276
2.37515
-2.07572
0.462616
0.451446
0.429355
0.403864
0.372531
0.354647
-2.04322
1.23266
1.92559
-7.9909
-2.53573
-0.883706
-0.679203
-2.33387
-2.29732
2.5153
-1.63718
-2.83607
-0.0431541
0.279554
1.88521
0.682078
0.961297
0.894458
1.96379
1.84814
0.672737
-9.99506
0.470761
0.495042
0.450424
0.580984
0.538703
0.656138
0.620496
0.716527
0.688532
0.764097
0.741685
0.802448
0.784273
0.834996
0.819249
0.865522
0.850352
0.896585
0.880954
0.929438
0.912785
0.96441
0.946684
1.00128
0.982656
1.03947
1.02028
1.07774
1.05865
1.11499
1.09654
1.14989
1.13279
1.18155
1.16612
1.2098
1.19605
1.23483
1.22271
1.25657
1.24608
1.27548
1.26637
1.29097
1.28379
1.30082
1.29672
1.30352
1.30316
1.29579
1.30123
1.27441
1.28663
1.24152
1.25931
1.1973
1.22075
1.14573
1.1718
1.09779
1.12074
1.05882
1.07713
1.03354
1.04389
1.02825
1.02849
1.04274
1.03292
1.08149
1.05863
1.15019
1.11134
1.24912
1.19654
1.17466
1.2122
1.07751
1.12961
1.02128
2.32182
2.25647
2.29349
2.36634
2.3456
2.39846
2.38378
2.4197
2.41051
2.43683
2.428
2.16819
2.23261
2.05401
2.10862
1.96065
2.00527
1.87984
1.91931
1.80188
1.84113
1.72137
1.76161
1.64875
1.68335
1.58985
1.61792
1.54056
1.56409
1.50241
1.51999
1.47451
1.48755
1.45168
1.46258
1.43361
1.44199
1.41877
1.42601
1.40489
1.41162
1.39105
1.39792
1.37637
1.38401
1.35851
1.36789
1.33571
1.3478
1.30664
1.32194
1.27251
1.29014
1.24
1.25666
1.20599
1.22323
1.17007
1.18832
1.12974
1.15047
1.0828
1.10704
1.02757
1.05625
0.963332
0.996581
0.891658
0.928279
0.815081
0.85348
0.738132
0.776157
0.666517
0.701516
0.605059
0.634222
0.553268
0.57862
0.500348
0.527012
0.475316
0.549178
0.502226
0.673179
0.606744
0.806261
0.732669
0.941639
0.874001
1.02858
1.00175
0.948031
1.01637
0.641611
0.821231
0.130143
0.408454
-0.510209
-0.182439
-1.13755
-0.83294
-1.61895
-1.40513
-1.79704
-1.75502
-1.54698
-1.73137
-0.903045
-1.25806
-0.205967
-0.537733
0.260783
0.0638553
0.439758
0.379099
0.459891
0.462175
0.431487
0.446412
0.404002
0.418371
0.389154
-1.17188
2.21673
-0.036075
0.825594
-11.8605
-5.54371
0.0400376
0.820931
0.55184
1.30579
2.44567
-2.97013
0.428555
0.401072
0.383929
0.337327
-2.14763
1.70961
1.41713
-9.52783
-3.60739
-0.512478
-2.98401
-3.00719
2.67884
-3.9734
-4.0889
0.808272
-3.23154
3.25117
1.05092
0.742616
-1.32157
2.54033
2.57429
-1.62248
1.07351
1.05958
0.350678
-8.98608
0.280858
0.473727
0.430107
0.555442
0.515319
0.629585
0.594105
0.691123
0.661948
0.741597
0.717605
0.783745
0.763566
0.82051
0.80264
0.854672
0.837754
0.888432
0.871539
0.92294
0.90554
0.958595