/*--------------------------------*- C++ -*----------------------------------*\
  =========                 |
  \\      /  F ield         | OpenFOAM: The Open Source CFD Toolbox
   \\    /   O peration     | Website:  https://openfoam.org
    \\  /    A nd           | Version:  10
     \\/     M anipulation  |
\*---------------------------------------------------------------------------*/
FoamFile
{
    format      ascii;
    class       volVectorField;
    location    "14";
    object      U;
}
// * * * * * * * * * * * * * * * * * * * * * * * * * * * * * * * * * * * * * //

dimensions      [0 1 -1 0 0 0 0];

internalField   nonuniform List<vector> 
28942
(
(-0.108213 0.0666839 -3.87036e-20)
(-0.107593 0.0721992 -8.11263e-21)
(0.441676 -0.310709 3.08895e-20)
(1.01584 0.0416231 -9.96997e-20)
(0.994204 0.0515603 3.28484e-20)
(0.287537 0.0112443 0)
(0.352301 0.0340509 -3.7677e-22)
(0.392316 0.00872877 5.08099e-22)
(1.22703 -0.18682 1.44337e-21)
(1.21721 -0.172098 -2.78282e-21)
(-0.0915059 -0.146348 -9.56087e-20)
(-0.0683121 -0.131376 4.38043e-20)
(-0.0893177 -0.101528 0)
(-0.0940338 -0.110292 0)
(0.772076 -0.0140546 -3.06789e-23)
(0.766326 -0.0111861 -5.65401e-23)
(0.931604 0.104841 3.09424e-20)
(0.915177 0.0893277 4.96013e-20)
(0.318871 -0.435698 8.57396e-20)
(0.614039 -0.702887 -2.40775e-20)
(0.985712 0.249027 4.09974e-20)
(0.987062 0.233633 0)
(0.0107734 -0.030761 8.95969e-20)
(-0.0660464 -0.0368759 5.00334e-20)
(0.559149 -0.153621 9.71515e-20)
(0.919274 -0.274193 -8.83016e-20)
(0.190245 -0.442217 4.77821e-19)
(0.197712 -0.367579 -1.8417e-19)
(0.717617 -0.524704 3.73838e-21)
(0.434247 -0.303331 3.8823e-22)
(0.287431 -0.0188676 0)
(0.375858 -0.0258879 9.77666e-22)
(0.475642 -0.00699098 8.98602e-21)
(0.637399 -0.0177478 1.26771e-22)
(0.43989 0.478963 2.95019e-20)
(0.36909 0.52817 -2.71126e-20)
(0.585223 0.691627 -1.27878e-19)
(0.379394 0.620039 -5.07671e-20)
(0.149101 0.0142031 4.98416e-22)
(0.203172 0.481196 -8.23803e-20)
(0.657858 -0.0597056 0)
(0.856819 -0.0777466 0)
(1.54952 -0.169654 4.27573e-21)
(1.54018 -0.193416 -1.36225e-20)
(1.54096 -0.167691 -1.08062e-20)
(0.546458 0.0118658 -1.71075e-22)
(0.516818 0.0241708 2.48987e-22)
(0.679487 0.0125483 1.56022e-21)
(0.660759 0.0120562 -4.38657e-22)
(0.56422 0.0112237 -3.8005e-21)
(0.467931 0.00423469 2.47913e-21)
(1.17673 -0.0402124 7.69544e-21)
(1.17259 -0.0449482 5.57824e-21)
(1.21987 -0.200926 -9.98203e-23)
(1.20852 -0.186226 2.17873e-22)
(1.19344 -0.248264 7.91036e-20)
(1.44715 -0.34796 4.3214e-20)
(-0.0718354 -0.0608459 -5.89472e-20)
(-0.080057 -0.0844045 0)
(-0.0709078 -0.0628514 2.1254e-20)
(-0.0651234 -0.0491354 5.16915e-20)
(-0.0296825 -0.0228029 -4.13288e-20)
(-0.0291181 -0.0236896 -4.32209e-20)
(1.30177 -0.597105 0)
(1.428 -0.537771 1.59927e-20)
(1.33353 -0.478996 -6.76943e-21)
(1.27315 -0.470541 0)
(0.928653 -0.233558 -2.87562e-20)
(0.947555 -0.255043 -1.86767e-20)
(-0.0659942 0.0468301 1.28559e-19)
(-0.0811635 0.0516671 -4.09446e-20)
(-0.105085 0.0773879 1.03121e-19)
(0.921215 -0.319549 0)
(0.93863 -0.283515 9.94818e-20)
(0.869854 -0.433621 2.58984e-20)
(1.40557 0.338095 4.47125e-20)
(1.43271 0.32131 -4.84748e-20)
(1.41715 0.286303 -3.16395e-20)
(0.13575 -0.0776284 1.35721e-21)
(0.192377 -0.122682 -3.5495e-20)
(0.954701 -0.610083 -5.00268e-21)
(0.693242 -0.48001 1.18259e-20)
(-0.0757886 0.0455174 2.20437e-19)
(-0.0805795 0.0468319 -8.47827e-20)
(1.23295 0.599117 -4.83358e-21)
(1.17136 0.568638 -1.75661e-20)
(1.06552 0.665689 1.2616e-20)
(0.914694 0.650957 -4.43033e-20)
(0.872367 0.624113 3.05048e-20)
(0.652192 0.451314 -7.694e-22)
(0.717535 0.541319 -1.03526e-20)
(0.759044 0.624146 1.68565e-20)
(-0.137475 -0.195673 -1.2757e-20)
(-0.113378 -0.201197 -3.26562e-21)
(-0.113235 -0.154269 6.54308e-21)
(-0.126743 -0.165775 -9.00169e-20)
(-0.129484 -0.170872 1.14409e-19)
(0.365278 0.28975 -6.35193e-20)
(0.412284 0.35539 1.34663e-20)
(-0.0208133 0.0201897 0)
(1.00712 0.0041261 0)
(0.965144 0.0529941 -7.6797e-20)
(0.891169 0.135054 5.44386e-20)
(1.08121 0.11755 0)
(1.37904 0.14382 0)
(1.38136 0.142031 0)
(1.39247 0.146625 5.81532e-20)
(1.08291 0.187574 -6.34629e-21)
(1.07923 0.198833 6.7954e-20)
(1.07275 0.176909 3.56393e-20)
(-0.0738994 -0.0689886 1.18665e-19)
(-0.0727606 -0.0704273 -1.33154e-19)
(0.00391046 0.0515805 -7.04031e-20)
(-0.0245467 0.033591 6.67569e-20)
(-0.105354 0.0533648 1.29256e-19)
(0.163081 0.238974 8.12962e-20)
(0.378307 0.236406 1.98448e-19)
(0.290429 0.453842 1.5527e-20)
(0.12935 0.352998 -4.73364e-19)
(1.25537 0.477026 1.32836e-21)
(1.11666 0.455182 3.08599e-20)
(1.15554 0.43939 -5.32587e-20)
(0.793886 -0.622746 1.2399e-20)
(0.537093 -0.393466 -5.29213e-21)
(0.158089 -0.00069664 -2.44289e-19)
(0.146056 -0.0755627 0)
(0.306239 -0.0454094 1.31461e-19)
(0.502207 -0.38884 1.47053e-20)
(0.718676 -0.614111 -3.30972e-20)
(0.648174 0.0144878 -1.77963e-21)
(0.682282 0.0131011 6.48387e-22)
(0.607595 0.0130358 5.35763e-23)
(0.500287 -0.763812 0)
(0.527954 -0.596425 0)
(1.06258 -0.132211 -1.26621e-20)
(1.04885 -0.113455 7.25863e-20)
(1.03253 -0.0809625 0)
(0.815894 -0.731052 0)
(0.817716 -0.676041 -3.10415e-20)
(0.733733 0.724338 8.01497e-20)
(-0.0558346 -0.0606224 8.23973e-20)
(-0.0490545 -0.0490487 -6.18112e-20)
(0.546002 -0.50702 -1.63802e-20)
(1.51841 -0.131196 -5.62473e-20)
(1.51883 -0.151256 1.06812e-20)
(1.43634 -0.291069 -1.32053e-20)
(1.43497 -0.278938 1.7661e-20)
(1.45356 -0.264166 6.30571e-20)
(-0.0492651 -0.0433701 2.84361e-20)
(0.841379 0.70153 9.59378e-20)
(0.973283 0.682064 -2.82403e-20)
(1.04698 0.720943 5.34866e-23)
(0.449992 -0.0126928 -2.44071e-22)
(0.448535 -0.0141171 -2.13941e-21)
(0.492004 -0.0181761 -2.24816e-22)
(0.535305 -0.0164319 5.66265e-22)
(0.791789 0.695676 1.68255e-20)
(0.42935 0.410343 0)
(-0.0140034 -0.0294449 6.38972e-20)
(-0.0297344 0.00609968 -7.06757e-20)
(-0.0875193 -0.019303 5.52898e-20)
(0.452036 0.0733696 -1.55761e-19)
(0.975392 0.244456 -7.55378e-20)
(0.6062 -0.0171593 2.85565e-22)
(1.18653 -0.450998 1.8562e-20)
(1.15001 -0.526086 4.419e-20)
(0.966589 0.272757 9.55465e-20)
(0.948384 0.309189 7.79083e-21)
(0.928086 0.19114 5.49218e-20)
(0.945225 0.19787 -3.96738e-20)
(0.991124 0.274332 0)
(1.14853 0.0591919 -1.38519e-22)
(1.15445 0.058218 -1.21913e-21)
(1.17608 -0.130792 2.20822e-22)
(1.18829 -0.136048 -1.16395e-21)
(1.09498 0.177623 6.93778e-21)
(1.1076 0.186741 -1.92592e-20)
(1.0952 0.188215 0)
(1.08282 0.177134 4.61275e-21)
(1.09291 0.198864 0)
(1.09628 0.253101 -1.74869e-20)
(1.08958 0.266435 -1.02608e-20)
(1.06639 0.289513 -1.98786e-20)
(1.07951 0.278882 0)
(1.09903 0.29989 6.03694e-20)
(1.08215 0.313338 2.88561e-21)
(1.04973 0.305411 -1.21052e-20)
(0.99658 0.358965 -5.37809e-20)
(0.996414 0.300866 -9.51622e-21)
(-0.0795964 -0.0737085 3.23621e-20)
(0.0119192 -0.0609747 -1.31709e-20)
(-0.107417 0.0524147 -9.56064e-20)
(0.586349 0.0112353 1.81907e-21)
(0.715584 0.0124156 0)
(-0.0153255 0.00420948 6.81308e-20)
(-0.0186795 0.00988069 3.5014e-20)
(0.669098 0.0131212 1.66335e-22)
(0.755487 0.0128695 2.72097e-23)
(0.749168 0.013386 0)
(0.656256 0.0155738 -5.18532e-23)
(0.454757 -0.203621 -1.09248e-21)
(0.415051 -0.230379 5.52905e-21)
(0.463367 -0.202228 -6.21295e-23)
(-0.0679621 -0.0653098 5.12462e-20)
(-0.0230355 -0.0202988 -6.57508e-20)
(-0.0251698 -0.0214701 6.34879e-20)
(-0.0528589 -0.0353527 0)
(-0.0235227 -0.0144278 8.75715e-20)
(-0.0227499 -0.0155312 -7.62248e-20)
(-0.0652703 -0.0142991 -7.86669e-20)
(-0.0876652 -0.0356055 -8.01516e-20)
(-0.051562 -0.0234053 0)
(0.055352 0.229309 0)
(0.0252667 0.137254 0)
(0.00949778 0.0779468 0)
(1.36896 0.136804 -8.16522e-21)
(1.3573 0.128361 0)
(1.3711 0.133058 9.01293e-21)
(0.922305 -0.096426 2.01443e-19)
(0.936045 -0.103424 -7.31496e-20)
(0.932941 -0.0844843 0)
(0.903438 0.172371 -1.93258e-22)
(0.91857 0.176392 3.92841e-22)
(0.887983 0.166889 -1.30262e-22)
(0.931087 0.17833 0)
(0.942725 0.1791 -2.47771e-22)
(0.953538 0.178518 0)
(0.909036 0.168685 0)
(0.960769 0.17634 9.81038e-22)
(0.916655 0.168029 0)
(0.897534 0.167558 -2.64679e-22)
(0.885717 0.165284 0)
(0.871588 0.161407 1.41669e-22)
(0.855175 0.155412 -2.00905e-22)
(0.837888 0.147722 1.30094e-22)
(0.965734 0.173266 -9.38744e-22)
(0.922658 0.166416 -3.34515e-23)
(0.869876 0.159116 4.29562e-24)
(0.819347 0.138082 -1.97682e-22)
(0.849578 0.148862 9.49525e-22)
(0.970632 0.169629 8.75153e-25)
(0.928812 0.164202 -3.33536e-23)
(0.797873 0.125867 3.88574e-22)
(0.974304 0.16533 8.88318e-22)
(0.97701 0.160544 -8.87596e-22)
(0.933595 0.16129 6.72828e-23)
(0.937287 0.157783 1.31005e-22)
(0.830662 0.137865 -9.23814e-22)
(0.77536 0.111478 -2.54313e-22)
(0.978551 0.155394 0)
(0.939791 0.153797 -1.29209e-22)
(0.805462 0.122382 1.15519e-25)
(0.751469 0.0945619 -1.15847e-25)
(0.979206 0.149974 0)
(0.941362 0.149432 0)
(0.780359 0.104952 0)
(0.72628 0.0753039 0)
(0.978862 0.144385 0)
(0.941989 0.144777 5.94343e-23)
(0.752771 0.0846667 -4.23492e-22)
(0.70004 0.0536539 -1.1355e-25)
(0.977789 0.13868 3.10109e-24)
(0.941924 0.13988 -6.34592e-23)
(0.72414 0.0619261 4.25484e-22)
(0.673198 0.0298694 0)
(0.975975 0.132923 0)
(0.941261 0.134785 0)
(0.694241 0.0368621 -2.90509e-23)
(0.646209 0.00420123 5.48047e-22)
(0.973536 0.127125 3.67911e-22)
(0.940127 0.129487 0)
(0.663486 0.00958461 -4.82344e-23)
(0.619411 -0.023155 -5.2162e-22)
(0.97084 0.121288 -5.46071e-22)
(0.938914 0.123977 -1.52282e-22)
(0.630782 -0.0208149 4.30805e-22)
(0.593238 -0.0519187 0)
(0.967328 0.115425 1.77061e-22)
(0.937322 0.118173 1.01574e-22)
(0.600152 -0.0512599 -2.51184e-22)
(0.568747 -0.0813441 5.66029e-22)
(0.964786 0.109422 -6.69766e-22)
(0.936802 0.112006 7.54841e-22)
(0.567444 -0.0853582 2.06903e-22)
(0.545912 -0.111507 9.49324e-24)
(0.96152 0.10325 0)
(0.936536 0.10553 3.35566e-22)
(0.538592 -0.11801 -5.52447e-22)
(0.526649 -0.140951 1.2218e-21)
(0.958453 0.0967725 0)
(0.936028 0.0987443 0)
(0.610474 -0.0510939 -2.04737e-22)
(0.573959 -0.0859962 -6.88358e-22)
(0.511195 -0.151517 0)
(0.511444 -0.16983 -6.99039e-22)
(0.683878 0.0145492 -9.72779e-23)
(0.648036 -0.016894 2.14158e-23)
(0.750928 0.0700033 0)
(0.718288 0.0435897 -4.02182e-22)
(0.810469 0.114824 -8.43885e-25)
(0.781708 0.0937573 0)
(0.86187 0.148546 0)
(0.837549 0.133114 0)
(0.903923 0.171053 0)
(0.885467 0.16155 0)
(0.937813 0.1843 2.39871e-22)
(0.922283 0.178994 5.90974e-23)
(0.965235 0.189896 -2.39099e-22)
(0.951985 0.18794 -2.29868e-22)
(0.98485 0.188796 4.59248e-22)
(0.974922 0.189804 5.54989e-22)
(1.00002 0.182976 0)
(0.993642 0.186497 0)
(1.00875 0.173688 -2.05609e-24)
(1.00499 0.178699 0)
(1.01322 0.162155 0)
(1.01146 0.168117 0)
(1.01406 0.14951 0)
(1.01407 0.155921 0)
(1.01173 0.136474 0)
(1.01327 0.143001 0)
(1.00668 0.123569 0)
(1.00955 0.129973 0)
(0.999414 0.11108 0)
(1.00344 0.117233 0)
(0.990248 0.0988754 -2.74196e-22)
(0.995749 0.104899 0)
(0.985422 0.0927142 -8.61329e-23)
(0.95518 0.090202 7.74978e-23)
(0.935756 0.0915144 -7.68531e-23)
(0.916713 0.112145 0)
(0.921613 0.0979254 -2.99602e-22)
(0.918956 0.105315 -1.76803e-22)
(0.913963 0.124424 5.0999e-23)
(0.915114 0.118549 -1.86362e-22)
(0.912182 0.13493 1.70149e-24)
(0.913006 0.129881 0)
(0.909586 0.143909 0)
(0.911056 0.139607 0)
(0.904714 0.151271 0)
(0.907515 0.14781 0)
(0.896266 0.156557 0)
(0.901004 0.154216 2.49954e-28)
(0.88323 0.159017 2.18151e-24)
(0.890382 0.158185 0)
(0.865322 0.157792 0)
(0.874818 0.158951 0)
(0.841286 0.151264 0)
(0.853479 0.155069 0)
(0.810123 0.138032 0)
(0.826743 0.145694 -1.41511e-22)
(0.773817 0.117348 3.15173e-23)
(0.791806 0.128282 -1.88038e-22)
(0.730382 0.0872575 0)
(0.752649 0.103538 -1.48361e-22)
(0.684889 0.0491318 0)
(0.70805 0.069295 0)
(0.638733 0.00324725 0)
(0.661659 0.0270383 0)
(0.59593 -0.0481057 0)
(0.616617 -0.0219444 0)
(0.561835 -0.101267 -1.44867e-22)
(0.577586 -0.0745553 0)
(0.541521 -0.15222 -6.84701e-22)
(0.54964 -0.127113 -1.77759e-22)
(0.538434 -0.176056 7.1463e-22)
(0.538168 -0.121448 6.96085e-22)
(0.980296 0.0865518 1.61042e-22)
(0.924854 0.0899757 -2.60726e-22)
(0.501609 -0.196873 0)
(0.540715 -0.19776 0)
(0.505207 -0.156336 0)
(0.488644 -0.18349 0)
(0.66907 -0.0132922 0)
(0.588869 -0.0830666 3.46318e-23)
(0.62912 -0.0477512 1.52464e-22)
(0.745214 0.0497692 1.65565e-22)
(0.708169 0.0194532 -3.24247e-23)
(0.811262 0.101435 5.14033e-25)
(0.779415 0.0769739 0)
(0.868424 0.142076 0)
(0.840992 0.12317 0)
(0.91629 0.171333 0)
(0.893593 0.158082 0)
(0.954829 0.189903 0)
(0.936858 0.181827 0)
(0.984386 0.199021 0)
(0.971128 0.195682 0)
(1.0073 0.200775 -9.95382e-25)
(0.996642 0.200806 2.48256e-22)
(1.0226 0.196434 -9.69271e-25)
(1.01518 0.199093 -5.14252e-22)
(1.03331 0.187832 0)
(1.02861 0.192575 0)
(1.03949 0.176398 1.01781e-24)
(1.0369 0.182412 0)
(1.04212 0.163116 0)
(1.0412 0.16992 0)
(1.04186 0.148946 0)
(1.04233 0.156095 0)
(1.03906 0.134564 0)
(1.04076 0.141744 0)
(1.03397 0.120482 0)
(1.03678 0.127452 0)
(1.02688 0.10704 0)
(1.03065 0.113649 0)
(1.01771 0.0942414 1.88513e-22)
(1.02266 0.100525 0)
(0.952829 0.0832917 0)
(0.975956 0.0802799 1.4713e-22)
(1.00686 0.0819651 0)
(1.01249 0.0880557 1.78858e-22)
(0.917818 0.0936519 3.05996e-22)
(0.924622 0.08497 6.72956e-23)
(0.929066 0.0815234 5.64856e-22)
(0.936442 0.0838991 0)
(0.906263 0.10907 0)
(0.911667 0.101712 -4.69823e-22)
(0.897266 0.12209 1.48994e-24)
(0.901546 0.115934 1.87519e-22)
(0.889887 0.1328 -1.70148e-24)
(0.893465 0.12776 0)
(0.882582 0.141236 0)
(0.886292 0.137306 0)
(0.873926 0.14732 0)
(0.878504 0.144585 0)
(0.86254 0.150702 0)
(0.868646 0.149381 -2.49953e-28)
(0.847261 0.150761 -4.384e-24)
(0.855447 0.151189 0)
(0.827221 0.146589 0)
(0.837854 0.149279 0)
(0.801976 0.13702 7.59285e-23)
(0.815153 0.142478 0)
(0.771568 0.120976 0)
(0.787677 0.13001 -7.56049e-23)
(0.736789 0.0977612 1.54599e-22)
(0.754312 0.110066 1.53358e-22)
(0.698239 0.0662911 0)
(0.717375 0.0828059 0)
(0.659552 0.0278322 0)
(0.67876 0.0479276 0)
(0.624111 -0.0163758 0)
(0.641169 0.00628318 0)
(0.596365 -0.0634757 0)
(0.608949 -0.0397787 0)
(0.581209 -0.109798 3.35732e-24)
(0.586977 -0.0869654 0)
(0.581731 -0.152062 -3.50331e-24)
(0.579448 -0.131536 0)
(0.599849 -0.188772 -8.9025e-22)
(0.588777 -0.171206 8.89795e-22)
(0.549012 -0.118893 2.20289e-22)
(0.548812 -0.217334 0)
(0.615157 -0.20516 -1.80294e-21)
(0.497795 -0.220912 0)
(1.00172 0.075881 0)
(0.932458 0.0756733 -6.17422e-23)
(0.475887 -0.189414 1.06691e-21)
(0.51083 -0.154183 3.225e-22)
(0.560634 -0.234832 3.5145e-22)
(0.632018 -0.220778 2.25734e-21)
(0.471081 -0.212625 0)
(1.03255 0.0771343 6.8957e-22)
(1.02712 0.0710885 -3.36688e-22)
(0.934015 0.0727757 -1.24442e-22)
(0.94061 0.0661629 5.88461e-22)
(0.571029 -0.110968 7.20322e-22)
(0.474762 -0.188361 -6.17606e-22)
(0.488336 -0.179231 -1.77908e-21)
(0.527465 -0.146484 -3.80466e-22)
(0.657344 -0.0402623 8.98542e-23)
(0.614652 -0.07526 -5.60034e-22)
(0.73794 0.0256639 -1.49222e-22)
(0.69871 -0.00641969 -1.25708e-22)
(0.811466 0.0840585 -5.56253e-23)
(0.776103 0.0562299 -3.09106e-23)
(0.874311 0.131422 -5.14033e-25)
(0.844224 0.109174 0)
(0.926868 0.16722 0)
(0.901865 0.150773 0)
(0.969334 0.191618 0)
(0.949349 0.180792 0)
(1.00225 0.205649 0)
(0.98694 0.199832 0)
(1.02669 0.210862 0)
(1.01547 0.209235 0)
(1.04397 0.209013 0)
(1.03613 0.210721 0)
(1.05544 0.201977 3.80969e-26)
(1.05034 0.20606 0)
(1.06239 0.191174 0)
(1.05941 0.19694 0)
(1.06586 0.177992 9.62672e-25)
(1.06451 0.184821 0)
(1.06661 0.163335 0)
(1.06653 0.170794 0)
(1.06523 0.147998 0)
(1.06616 0.15571 0)
(1.06203 0.132577 0)
(1.06384 0.140267 0)
(1.05715 0.117529 0)
(1.05978 0.12498 0)
(1.05069 0.103195 0)
(1.05407 0.110256 0)
(1.04247 0.08973 9.64446e-23)
(1.04675 0.0963299 -4.89322e-23)
(1.03757 0.0833459 -3.5573e-22)
(0.951321 0.0762465 -7.04679e-23)
(0.996632 0.0698572 3.03639e-22)
(0.972046 0.0739238 -2.36234e-22)
(0.937902 0.0760948 0)
(0.925941 0.0857784 -2.03063e-22)
(0.946551 0.0667925 -5.32481e-22)
(0.936017 0.0764584 4.55595e-22)
(0.907892 0.102413 0)
(0.916658 0.0943813 0)
(0.89221 0.116484 -6.88089e-26)
(0.899736 0.109857 0)
(0.878396 0.127785 0)
(0.885098 0.122522 0)
(0.865454 0.136162 -1.76127e-24)
(0.871874 0.132349 0)
(0.852145 0.141477 0)
(0.858919 0.139213 0)
(0.837194 0.143445 0)
(0.844946 0.142903 0)
(0.81947 0.141568 2.2031e-24)
(0.828736 0.143023 0)
(0.798181 0.135101 2.3592e-24)
(0.809293 0.13896 0)
(0.773073 0.123221 0)
(0.786085 0.129868 0)
(0.744383 0.10504 0)
(0.759134 0.114975 0)
(0.713431 0.0803107 0)
(0.729084 0.0934726 0)
(0.682071 0.0488061 0)
(0.697491 0.0652503 0)
(0.653554 0.0117926 -3.07997e-24)
(0.667199 0.0308891 0)
(0.631809 -0.0287449 0)
(0.641576 -0.00822461 0)
(0.620999 -0.0698768 0)
(0.624801 -0.0494317 0)
(0.624222 -0.108611 2.78552e-25)
(0.620767 -0.0897014 0)
(0.641668 -0.143156 -2.44915e-25)
(0.631317 -0.126415 0)
(0.67043 -0.174277 3.85396e-24)
(0.65478 -0.159023 0)
(0.704847 -0.205109 -1.90221e-21)
(0.687369 -0.189478 4.91604e-22)
(0.648279 -0.236399 4.6078e-22)
(0.720726 -0.221655 9.71316e-22)
(0.450678 -0.220002 -4.15843e-22)
(0.49979 -0.24244 -7.61501e-22)
(1.02176 0.0651301 7.94511e-23)
(0.95759 0.0566569 4.13415e-22)
(0.439939 -0.222544 -8.13841e-23)
(0.574879 -0.250709 0)
(0.437833 -0.221576 3.84066e-21)
(0.734623 -0.239563 1.32239e-21)
(0.664123 -0.252521 1.72258e-21)
(0.509006 -0.177207 -2.67192e-21)
(0.488735 -0.189453 6.8596e-22)
(0.45973 -0.238348 0)
(0.566236 -0.129279 1.87162e-22)
(0.534469 -0.15456 1.63017e-22)
(0.649224 -0.0650872 1.97152e-22)
(0.604967 -0.0991462 -2.4671e-22)
(0.735946 0.00254195 -7.36392e-23)
(0.693981 -0.0304911 -1.40395e-24)
(0.813078 0.0639301 3.32881e-23)
(0.775702 0.0341425 3.51853e-23)
(0.880909 0.116831 0)
(0.848291 0.0916419 1.25101e-23)
(0.937907 0.158911 0)
(0.910779 0.139293 0)
(0.98404 0.189428 4.43833e-25)
(0.962315 0.175609 0)
(1.01981 0.208826 0)
(1.00317 0.200451 0)
(1.04621 0.218371 0)
(1.0341 0.21473 0)
(1.06465 0.219795 0)
(1.05634 0.219984 0)
(1.07665 0.214927 8.65346e-25)
(1.07136 0.218036 0)
(1.08372 0.205499 4.02185e-26)
(1.08072 0.210684 0)
(1.08711 0.192941 0)
(1.0858 0.19953 0)
(1.08788 0.178425 -1.89076e-24)
(1.08778 0.185869 0)
(1.08674 0.162779 0)
(1.08751 0.170699 0)
(1.08422 0.146654 0)
(1.08563 0.154743 0)
(1.08059 0.130541 0)
(1.08253 0.138571 0)
(1.07593 0.114823 0)
(1.07837 0.122614 0)
(1.07024 0.0998089 0)
(1.07317 0.107219 0)
(1.06332 0.0857115 -4.77851e-23)
(1.06684 0.0926452 0)
(1.05498 0.0726346 0)
(1.0592 0.0790817 -8.95891e-23)
(1.04507 0.0604726 -4.39853e-25)
(1.05017 0.0664531 0)
(0.991783 0.0638558 -3.07928e-22)
(1.03993 0.0545974 1.8603e-23)
(1.01635 0.0592615 1.49021e-22)
(0.950567 0.0690768 1.0142e-22)
(0.968752 0.06742 -7.12653e-23)
(0.939936 0.063608 -3.41489e-23)
(0.940387 0.0679617 2.97108e-23)
(0.969396 0.0461916 0)
(0.949782 0.0562062 -2.78579e-22)
(0.970829 0.0552405 -1.16034e-22)
(0.997272 0.0342277 -2.08137e-22)
(0.984158 0.0447225 4.5289e-22)
(0.945846 0.0748255 -6.84051e-23)
(0.958525 0.065068 0)
(0.922312 0.0924437 0)
(0.93404 0.0838452 0)
(0.900555 0.107563 -7.16335e-26)
(0.911221 0.100359 0)
(0.880589 0.119646 0)
(0.890368 0.114014 0)
(0.861931 0.128354 1.76127e-24)
(0.87114 0.124437 0)
(0.843747 0.133433 0)
(0.852838 0.131359 0)
(0.825072 0.134601 0)
(0.834529 0.134522 0)
(0.805019 0.131472 0)
(0.815263 0.133599 0)
(0.783033 0.123516 4.38551e-26)
(0.79428 0.128128 0)
(0.759091 0.110209 0)
(0.771282 0.117555 0)
(0.73386 0.0910939 0)
(0.746555 0.101387 0)
(0.708888 0.0662386 0)
(0.721223 0.0793616 0)
(0.686607 0.036148 0)
(0.697204 0.0517357 0)
(0.670184 0.00229858 3.07996e-24)
(0.67743 0.0195621 0)
(0.663067 -0.0330838 0)
(0.665268 -0.0153621 0)
(0.667976 -0.067573 0)
(0.663923 -0.0505778 0)
(0.685431 -0.0994611 -3.63566e-24)
(0.675241 -0.0838875 0)
(0.712579 -0.128899 3.76559e-24)
(0.698116 -0.114379 0)
(0.743692 -0.158219 -3.81039e-24)
(0.728071 -0.143373 0)
(0.773176 -0.190694 4.95515e-22)
(0.758683 -0.173915 -9.75959e-22)
(0.797218 -0.228812 -4.78881e-22)
(0.785832 -0.20907 9.40091e-22)
(0.745833 -0.258903 -1.071e-22)
(0.805809 -0.250169 8.35428e-22)
(0.429726 -0.248282 -5.22141e-22)
(0.505384 -0.260805 0)
(0.411249 -0.250893 -3.08878e-21)
(0.587447 -0.266066 0)
(1.06522 0.0563066 -7.57598e-23)
(1.06095 0.050374 5.56475e-23)
(0.981093 0.0357735 -1.86218e-22)
(1.01026 0.023692 -1.94588e-22)
(0.394238 -0.254129 -2.39788e-21)
(0.678026 -0.269345 -1.7394e-21)
(0.436116 -0.216077 0)
(0.580672 -0.13697 -1.72702e-22)
(0.754913 -0.279642 -9.00753e-22)
(0.813076 -0.272735 1.08577e-21)
(0.539559 -0.163464 1.45568e-22)
(0.452969 -0.261265 0)
(0.652559 -0.0829613 0)
(0.616662 -0.110251 2.60152e-23)
(0.736211 -0.0203131 0)
(0.693521 -0.052379 0)
(0.817815 0.0425099 0)
(0.778183 0.0116638 1.45449e-24)
(0.889248 0.0990247 0)
(0.854816 0.0717365 0)
(0.950136 0.146389 0)
(0.921072 0.123987 0)
(0.999761 0.182882 0)
(0.976378 0.166057 0)
(1.03822 0.208004 -4.43833e-25)
(1.02035 0.19684 0)
(1.06644 0.222492 0)
(1.05353 0.216495 0)
(1.08582 0.22783 0)
(1.07714 0.226193 0)
(1.09804 0.225851 0)
(1.09272 0.227639 0)
(1.10476 0.218382 -4.34936e-26)
(1.10199 0.222695 0)
(1.1075 0.207046 4.18488e-26)
(1.10654 0.213105 0)
(1.1075 0.193159 0)
(1.10778 0.200352 0)
(1.1057 0.177728 3.7993e-26)
(1.10678 0.185585 0)
(1.10277 0.16147 0)
(1.10435 0.169666 0)
(1.09913 0.14491 0)
(1.10102 0.153201 0)
(1.09503 0.128439 0)
(1.09713 0.136644 0)
(1.0905 0.112362 0)
(1.09281 0.120337 0)
(1.08548 0.0969368 0)
(1.08804 0.104559 0)
(1.07984 0.0823958 0)
(1.0827 0.0895547 0)
(1.07316 0.0688559 8.54451e-23)
(1.07656 0.0755073 9.09534e-23)
(1.06934 0.0624478 -1.61654e-22)
(0.987307 0.0578283 -1.4154e-22)
(1.03506 0.0488422 0)
(1.01121 0.053541 -1.50773e-22)
(0.950747 0.0616989 0)
(0.96617 0.060865 1.4447e-22)
(0.946354 0.0544564 1.73003e-22)
(0.943643 0.0596855 -6.15228e-23)
(0.95912 0.0462923 -3.28048e-22)
(1.00341 0.0418722 5.04271e-23)
(1.03077 0.0213351 1.5653e-22)
(1.01809 0.0313269 0)
(0.975989 0.0616113 -1.1874e-22)
(0.990268 0.0517015 1.19136e-22)
(0.948707 0.0798516 0)
(0.962526 0.0708943 0)
(0.922429 0.0957754 -7.14144e-26)
(0.935489 0.0881342 0)
(0.897531 0.108655 0)
(0.909818 0.102632 0)
(0.874033 0.117943 0)
(0.885629 0.113772 0)
(0.851605 0.123251 0)
(0.86272 0.12111 0)
(0.829738 0.124269 0)
(0.840638 0.12431 0)
(0.807955 0.120696 2.24149e-24)
(0.818861 0.123071 0)
(0.786058 0.112219 -2.40306e-24)
(0.797018 0.117083 0)
(0.764346 0.0986088 0)
(0.775138 0.106059 0)
(0.743801 0.079839 0)
(0.753838 0.0898484 0)
(0.726131 0.056336 0)
(0.734477 0.068632 0)
(0.713732 0.0290575 0)
(0.719111 0.043068 0)
(0.709237 -0.00041689 0)
(0.710344 0.0144712 0)
(0.714746 -0.0301842 0)
(0.710657 -0.0153805 0)
(0.730895 -0.0587808 -3.78039e-24)
(0.721565 -0.0446798 0)
(0.755615 -0.0860397 3.89704e-24)
(0.742435 -0.0725173 0)
(0.784335 -0.113571 -3.9436e-24)
(0.769833 -0.0996086 0)
(0.811699 -0.144053 0)
(0.798492 -0.12828 0)
(0.83401 -0.179554 0)
(0.823611 -0.161107 0)
(0.851043 -0.220653 3.47882e-24)
(0.84288 -0.199438 4.73982e-22)
(0.863719 -0.266488 -1.90797e-21)
(0.857649 -0.243134 0)
(0.819601 -0.296181 -1.15905e-21)
(0.869412 -0.290741 1.83635e-22)
(0.414228 -0.273193 1.35528e-21)
(0.512185 -0.277081 0)
(1.05642 0.0445808 -2.83978e-22)
(1.04422 0.0110885 -3.23213e-22)
(0.386133 -0.280085 -6.10346e-22)
(0.384636 -0.250755 -1.49765e-22)
(0.365442 -0.279782 1.25728e-21)
(0.600406 -0.281044 0)
(0.687307 -0.287436 3.75196e-22)
(0.475348 -0.19496 -3.59659e-22)
(0.416799 -0.229319 9.30033e-22)
(0.362322 -0.263817 -9.47341e-22)
(0.761578 -0.301239 -1.13268e-21)
(0.82411 -0.32011 6.28075e-22)
(0.875237 -0.315454 8.03093e-22)
(0.450398 -0.281111 0)
(0.664196 -0.0956473 -1.58944e-23)
(0.561053 -0.152976 1.0591e-22)
(0.61609 -0.124841 -6.35069e-23)
(0.744676 -0.0388399 -1.25316e-22)
(0.705963 -0.0670968 1.26011e-22)
(0.825357 0.0211329 -3.27179e-25)
(0.78502 -0.00904716 0)
(0.900244 0.0790912 0)
(0.864023 0.0506916 0)
(0.964434 0.130352 0)
(0.933752 0.105785 0)
(1.01711 0.172013 0)
(0.992243 0.152494 0)
(1.05808 0.202762 1.58306e-25)
(1.03904 0.188782 0)
(1.08796 0.222542 0)
(1.07433 0.213978 0)
(1.10812 0.232378 0)
(1.09915 0.228607 0)
(1.12032 0.233926 0)
(1.1151 0.234071 0)
(1.1264 0.229042 0)
(1.12401 0.232172 0)
(1.12808 0.219481 -8.21852e-25)
(1.12769 0.224745 0)
(1.1268 0.206729 4.27454e-26)
(1.12773 0.213422 0)
(1.1237 0.191949 0)
(1.12542 0.199532 0)
(1.1196 0.175994 1.73993e-24)
(1.12174 0.184075 0)
(1.11505 0.159464 0)
(1.11736 0.167771 0)
(1.11039 0.142776 0)
(1.11272 0.151119 0)
(1.1058 0.126236 0)
(1.10808 0.134473 0)
(1.10131 0.110077 0)
(1.10355 0.118097 0)
(1.09683 0.0945057 0)
(1.09908 0.102209 0)
(1.09217 0.0797168 1.38896e-24)
(1.09454 0.087006 0)
(1.08711 0.0658743 -8.58149e-23)
(1.08975 0.0726729 0)
(1.08114 0.0529624 8.08637e-23)
(1.08429 0.0592929 0)
(1.07427 0.040973 7.08892e-23)
(1.07786 0.0468639 -7.55543e-23)
(1.02984 0.0433844 1.41491e-22)
(1.07055 0.0353102 0)
(1.05184 0.0389795 2.12597e-22)
(0.983603 0.0517745 0)
(1.00628 0.0478959 0)
(0.951788 0.0541619 0)
(0.964534 0.0541517 0)
(0.953519 0.0451256 0)
(0.94774 0.0512043 0)
(0.993012 0.0253976 1.89802e-22)
(0.96904 0.0362998 4.89209e-23)
(1.05702 0.00120767 3.8081e-23)
(1.02312 0.0133944 3.35614e-22)
(1.06804 0.00835949 2.15229e-22)
(1.09224 -0.0103798 3.44503e-23)
(1.0802 -0.00111318 -7.65003e-23)
(1.04161 0.0278806 4.4268e-23)
(1.05515 0.0180637 -2.73217e-22)
(1.01365 0.0472814 -5.87151e-26)
(1.02799 0.0376187 0)
(0.98479 0.0656598 0)
(0.999319 0.0566572 0)
(0.956075 0.0820472 -6.80363e-26)
(0.97041 0.0741564 0)
(0.928168 0.0955709 0)
(0.942008 0.0892128 0)
(0.901492 0.105532 0)
(0.914672 0.101029 0)
(0.876211 0.111421 0)
(0.888683 0.109006 0)
(0.852328 0.112883 0)
(0.864105 0.112717 0)
(0.829841 0.109679 -4.4693e-24)
(0.840911 0.11187 0)
(0.808964 0.10168 0)
(0.819181 0.106276 0)
(0.790305 0.0889271 0)
(0.799306 0.0958816 0)
(0.774999 0.0717317 0)
(0.782149 0.0808447 0)
(0.764656 0.0508021 0)
(0.7691 0.0616704 0)
(0.761139 0.027257 -3.29039e-24)
(0.761943 0.0392666 0)
(0.765981 0.00248096 0)
(0.762464 0.0149318 0)
(0.779533 -0.0223835 0)
(0.771721 -0.00998192 0)
(0.800379 -0.0469914 3.78039e-24)
(0.789233 -0.0346897 0)
(0.825059 -0.0723494 -1.16842e-26)
(0.812524 -0.0594638 0)
(0.849242 -0.100486 7.8373e-24)
(0.837475 -0.0859297 0)
(0.869646 -0.133344 0)
(0.860045 -0.116243 0)
(0.88534 -0.171635 0)
(0.878055 -0.151828 0)
(0.897394 -0.214648 -1.46662e-25)
(0.891715 -0.192635 0)
(0.907702 -0.261165 0)
(0.902647 -0.237572 0)
(0.919001 -0.310044 -8.52307e-22)
(0.913108 -0.285441 0)
(0.879662 -0.340115 2.57363e-22)
(0.92494 -0.334854 9.80124e-22)
(0.40425 -0.29488 0)
(0.505265 -0.181899 6.17032e-22)
(0.368757 -0.299628 4.20729e-22)
(1.08812 0.038356 -7.07667e-23)
(1.08562 0.0326244 0)
(1.06919 -0.00823666 3.34709e-23)
(1.10277 -0.0190234 -7.07154e-23)
(0.520838 -0.291948 0)
(0.610336 -0.296347 0)
(0.339298 -0.294661 0)
(0.694722 -0.306251 -3.69512e-22)
(0.766139 -0.323481 -6.21591e-22)
(0.828086 -0.34404 0)
(0.883753 -0.364608 1.02308e-21)
(0.930439 -0.35944 -7.71212e-22)
(0.451374 -0.298105 0)
(0.665661 -0.107747 3.91052e-26)
(0.452934 -0.20557 1.83299e-22)
(0.563388 -0.156781 -5.61785e-22)
(0.613332 -0.134018 7.87747e-23)
(0.759732 -0.0543146 1.1572e-22)
(0.713163 -0.0823769 6.29806e-23)
(0.840581 0.00246832 0)
(0.801996 -0.0257525 0)
(0.915398 0.0589239 3.27149e-25)
(0.878645 0.0308686 0)
(0.981932 0.11184 0)
(0.950008 0.0860806 0)
(1.03694 0.157355 0)
(1.01094 0.135717 0)
(1.07991 0.193053 0)
(1.05993 0.176514 0)
(1.11119 0.218073 -1.58306e-25)
(1.09696 0.206899 0)
(1.13196 0.232771 0)
(1.12279 0.226648 0)
(1.14397 0.23841 0)
(1.13894 0.236618 0)
(1.14919 0.236726 0)
(1.1473 0.238367 0)
(1.14953 0.229523 0)
(1.14986 0.233705 0)
(1.14663 0.218422 7.36421e-25)
(1.1484 0.224369 0)
(1.14181 0.204743 4.28898e-26)
(1.1444 0.211834 0)
(1.13603 0.189482 0)
(1.139 0.197259 0)
(1.12996 0.173353 -4.14824e-26)
(1.133 0.181491 0)
(1.12402 0.156844 0)
(1.12696 0.165122 0)
(1.11848 0.140286 0)
(1.12119 0.148554 0)
(1.11344 0.123912 0)
(1.11589 0.132064 0)
(1.10891 0.107902 0)
(1.11111 0.115853 0)
(1.1048 0.0924131 0)
(1.10681 0.100084 0)
(1.10095 0.0776013 -2.72438e-24)
(1.10286 0.0849135 0)
(1.09716 0.0636255 -1.26483e-24)
(1.09905 0.0704998 0)
(1.09303 0.0505421 1.57126e-22)
(1.09513 0.0569696 -1.57244e-22)
(1.09066 0.0443248 1.42426e-22)
(1.02504 0.0380249 3.44168e-23)
(1.06709 0.0299148 8.39122e-24)
(1.04733 0.033714 -1.04918e-22)
(0.980702 0.0456338 0)
(1.00201 0.0422722 0)
(0.953703 0.0463966 -9.08524e-28)
(0.963738 0.0472755 0)
(0.961226 0.0358135 0)
(0.952633 0.0425734 0)
(1.00457 0.0154239 8.7124e-23)
(0.978977 0.0265581 -9.5666e-23)
(1.03551 0.00352909 -1.20606e-23)
(1.10532 -0.00357098 -1.49427e-24)
(1.12585 -0.0205165 -7.224e-23)
(1.11598 -0.0122679 2.43463e-24)
(1.08142 0.0146019 -4.55754e-23)
(1.09364 0.00544747 4.56522e-23)
(1.05502 0.033126 -8.9063e-25)
(1.06861 0.0238435 0)
(1.02697 0.0511031 -9.84876e-25)
(1.0412 0.0422335 0)
(0.998167 0.0675305 -6.11034e-26)
(1.01263 0.0595698 0)
(0.9695 0.0814481 0)
(0.983782 0.0748547 0)
(0.941717 0.0920529 0)
(0.95547 0.0872034 0)
(0.915405 0.0987411 0)
(0.928357 0.0959114 0)
(0.891028 0.101116 0)
(0.902958 0.100479 0)
(0.869031 0.0989768 2.22781e-24)
(0.879711 0.10061 0)
(0.849982 0.0923251 2.42e-24)
(0.859104 0.0962013 0)
(0.834689 0.0813934 0)
(0.841815 0.0873647 0)
(0.824227 0.0666927 0)
(0.82879 0.0744657 0)
(0.819792 0.0490249 0)
(0.821196 0.0581671 0)
(0.82236 0.0293768 3.29038e-24)
(0.820177 0.0393827 0)
(0.832117 0.00864062 -3.48238e-24)
(0.826388 0.0191016 0)
(0.84792 -0.0128669 0)
(0.839414 -0.00199584 0)
(0.867198 -0.0357055 0)
(0.857331 -0.0240482 0)
(0.886663 -0.0612681 -8.75493e-26)
(0.877126 -0.0480414 0)
(0.903527 -0.0911223 -7.66728e-24)
(0.895543 -0.0755798 0)
(0.916756 -0.12613 0)
(0.91059 -0.107973 0)
(0.927133 -0.166046 0)
(0.922212 -0.145529 0)
(0.936322 -0.209844 -1.96352e-25)
(0.931771 -0.187533 0)
(0.94594 -0.256319 0)
(0.94101 -0.232839 0)
(0.95727 -0.304312 5.02438e-22)
(0.951192 -0.280183 0)
(0.970928 -0.352891 3.39643e-22)
(0.963635 -0.328706 -7.84182e-22)
(0.323879 -0.28183 -1.77915e-21)
(0.37317 -0.247783 -9.8085e-22)
(0.936119 -0.383734 -1.3533e-22)
(0.978167 -0.376724 1.35273e-22)
(0.39799 -0.310858 0)
(1.08304 0.0271697 1.20243e-22)
(1.13478 -0.0283644 -2.78951e-22)
(0.515578 -0.174627 -3.16906e-23)
(0.529173 -0.305679 0)
(0.403498 -0.223622 7.21119e-23)
(0.351822 -0.314185 0)
(0.61847 -0.312137 0)
(0.315694 -0.308413 0)