/*--------------------------------*- C++ -*----------------------------------*\
  =========                 |
  \\      /  F ield         | OpenFOAM: The Open Source CFD Toolbox
   \\    /   O peration     | Website:  https://openfoam.org
    \\  /    A nd           | Version:  10
     \\/     M anipulation  |
\*---------------------------------------------------------------------------*/
FoamFile
{
    format      ascii;
    class       volVectorField;
    location    "13";
    object      U;
}
// * * * * * * * * * * * * * * * * * * * * * * * * * * * * * * * * * * * * * //

dimensions      [0 1 -1 0 0 0 0];

internalField   nonuniform List<vector> 
28942
(
(0.00569801 -0.00307971 -2.50172e-22)
(0.00765509 -0.00356381 -4.10273e-23)
(0.0184899 -0.0127358 -1.09183e-21)
(0.103307 0.0182242 -6.11086e-21)
(0.102346 0.0222671 1.99303e-21)
(0.0286909 0.00117684 0)
(0.034202 0.000936175 2.62849e-23)
(0.0390391 0.00149588 -2.32405e-23)
(0.133332 -0.0130496 -3.99357e-22)
(0.131807 -0.0116692 1.12485e-21)
(0.0142909 0.00834732 -3.44659e-22)
(0.0214998 0.0104042 9.17032e-23)
(0.0101416 0.0059335 0)
(0.00736479 0.00458472 0)
(0.077777 0.00244299 -3.27096e-23)
(0.0756701 0.00362392 -1.01096e-23)
(0.0895628 0.01586 7.56769e-22)
(0.0872415 0.0138748 1.2135e-21)
(0.0122781 -0.0152282 3.54503e-21)
(0.0296289 -0.0306891 -9.35595e-22)
(0.0987581 0.0370743 1.10091e-21)
(0.0978588 0.0341434 0)
(0.0218802 0.00670483 9.82685e-22)
(0.00945769 0.00331524 4.285e-22)
(0.0415207 0.00935186 7.55757e-22)
(0.0619651 0.00478873 -6.8897e-22)
(0.00769605 -0.0184614 9.35334e-21)
(0.00673436 -0.0165227 -3.42644e-21)
(0.0361698 -0.0256593 7.57428e-22)
(0.0196367 -0.0138771 2.65837e-22)
(0.0293542 -0.00290311 0)
(0.0366579 -0.0029383 -2.5771e-23)
(0.045302 0.00671429 5.91943e-22)
(0.0619743 0.00214892 -1.13908e-22)
(0.0191013 0.0182365 1.52659e-21)
(0.0159347 0.0193548 -1.59491e-21)
(0.0325897 0.0380477 -3.42548e-21)
(0.0188918 0.030908 -1.16405e-21)
(0.016325 0.000472096 -2.11418e-23)
(0.00876063 0.0163999 -2.88836e-21)
(0.0306521 -0.00620203 0)
(0.0513482 -0.010967 0)
(0.105246 -0.00753448 -5.6951e-23)
(0.105249 -0.00706289 1.67452e-22)
(0.10579 -0.00760712 1.46051e-22)
(0.0533624 0.000957083 2.5198e-23)
(0.0499123 -0.000154388 -4.25631e-23)
(0.0678574 -0.000272523 -1.69508e-22)
(0.0654756 -0.000311717 4.72289e-23)
(0.0548925 -0.00389012 -4.28739e-22)
(0.0426699 -0.0052159 2.7112e-22)
(0.122139 0.00361032 -6.68143e-22)
(0.122134 0.00309392 -6.03519e-22)
(0.133196 -0.0163091 -4.14563e-24)
(0.131476 -0.0148714 2.08784e-22)
(0.0916238 0.0135312 5.28541e-22)
(0.110664 0.00662576 1.23258e-22)
(0.00454337 0.00286047 -3.95471e-22)
(0.0118915 0.00615251 0)
(0.0105671 0.00505424 1.85196e-22)
(0.00409326 0.00243829 3.38608e-22)
(0.000766824 0.00054053 -2.81358e-22)
(0.000590334 0.000452687 -2.5368e-22)
(0.113355 -0.0418615 0)
(0.109702 -0.0241012 5.85779e-23)
(0.126007 -0.0304024 -4.16215e-24)
(0.126535 -0.0417875 0)
(0.0905034 -0.0324446 -7.26349e-22)
(0.0940437 -0.0348541 -4.8021e-22)
(0.00250273 -0.00149513 8.17133e-22)
(0.00327744 -0.00255872 -2.63274e-22)
(0.0061621 -0.00404602 6.59831e-22)
(0.0854423 -0.0454344 0)
(0.0917141 -0.0392324 2.48013e-21)
(0.0811943 -0.0527681 6.73833e-22)
(0.120967 0.00729899 7.55013e-23)
(0.120576 0.000183721 -9.3501e-23)
(0.131381 0.00325608 5.81899e-23)
(0.00482394 -0.00294512 -6.97368e-23)
(0.00653004 -0.00455253 6.57581e-22)
(0.0525295 -0.0316822 2.01316e-22)
(0.034302 -0.0210947 -3.083e-22)
(0.002523 -0.000873269 2.93974e-21)
(0.00593243 -0.00255519 -1.15079e-21)
(0.103981 0.0480872 5.902e-23)
(0.0993357 0.0552997 -9.55593e-22)
(0.0824576 0.0544544 8.8711e-22)
(0.048232 0.0350348 -3.28943e-21)
(0.0454681 0.0321501 2.33189e-21)
(0.0301382 0.0209733 -1.46846e-22)
(0.0333905 0.0236479 -7.66104e-22)
(0.0387123 0.0287986 1.04665e-21)
(0.00928472 0.00672934 3.42737e-25)
(0.0137642 0.00929451 -3.09775e-24)
(0.00630444 0.00502645 6.20751e-24)
(0.00466635 0.00422973 -5.08743e-23)
(0.00419683 0.00396669 3.79825e-23)
(0.0160408 0.0117398 -3.92292e-21)
(0.0178065 0.0138453 9.10479e-22)
(0.00986332 -0.00445977 0)
(0.101389 0.00515759 0)
(0.0984003 0.0156792 -4.46248e-21)
(0.0604561 0.0104747 2.3593e-21)
(0.0887018 0.0178755 0)
(0.131077 -0.0162659 0)
(0.130157 -0.0172137 0)
(0.129967 -0.0180339 -9.60073e-22)
(0.115234 0.0254382 -2.65581e-22)
(0.114398 0.0269183 2.59676e-21)
(0.113527 0.0244294 1.39418e-21)
(0.00378005 0.00264342 6.9012e-22)
(0.00286733 0.00200515 -7.74594e-22)
(0.0231255 -0.0082439 -3.89134e-22)
(0.0255065 -0.009043 2.93954e-22)
(0.0121938 -0.00521949 5.25514e-22)
(0.00653131 0.0113397 1.60573e-21)
(0.0191125 0.0184454 3.77645e-21)
(0.0135986 0.0231109 2.75412e-22)
(0.00496965 0.0145068 -9.39828e-21)
(0.120129 0.0466775 7.87907e-23)
(0.109851 0.0577618 1.3769e-21)
(0.120593 0.0538442 -2.37807e-21)
(0.0396917 -0.0297351 8.80088e-22)
(0.0243666 -0.0174772 -5.93385e-22)
(0.00533852 -0.000627618 -4.46291e-21)
(0.00455264 -0.00349757 0)
(0.0125543 -0.00151082 2.19783e-21)
(0.0222543 -0.0163092 9.13633e-22)
(0.0347034 -0.0280461 -2.34435e-21)
(0.0648894 0.00034655 1.26278e-22)
(0.0682288 0.000482118 -8.18148e-23)
(0.0615302 0.00057335 -3.84415e-24)
(0.0283271 -0.0421542 0)
(0.029867 -0.0429474 0)
(0.0896598 -0.0186328 -5.66984e-22)
(0.0996303 -0.0220605 3.79708e-21)
(0.087042 -0.0252745 0)
(0.0477227 -0.0404658 0)
(0.0588765 -0.0515705 -9.29112e-22)
(0.0419114 0.0397821 2.34524e-21)
(0.000886591 0.00107624 1.82336e-22)
(0.000515955 0.000848549 -8.47217e-23)
(0.0225765 -0.0194176 -9.35676e-22)
(0.106456 -0.00800461 8.50946e-22)
(0.106339 -0.00760614 -1.57547e-22)
(0.123153 0.00281828 -8.39297e-24)
(0.117097 0.0111973 1.11851e-23)
(0.125037 0.0106559 -1.45221e-22)
(0.000781371 0.000905031 9.16203e-23)
(0.0445683 0.0348857 3.75085e-21)
(0.0631135 0.0468239 -9.3257e-22)
(0.0607976 0.0399587 -3.93303e-24)
(0.0446407 -0.00163706 1.00808e-23)
(0.0440893 -0.00185357 5.64071e-23)
(0.047483 -0.00215324 3.44384e-24)
(0.05245 -0.00157728 -2.86393e-23)
(0.0461814 0.0385446 1.38208e-22)
(0.0192683 0.0162781 0)
(0.001005 -0.000776001 9.58165e-23)
(0.00146525 -0.00137303 -1.06755e-22)
(0.00438511 -0.00318301 3.13595e-23)
(0.0404683 -0.009754 -1.63682e-21)
(0.0702984 -0.00440619 -6.34115e-22)
(0.0595361 -0.00129897 -1.44908e-24)
(0.0784643 -0.00667143 2.42834e-22)
(0.073979 -0.0155297 -9.42987e-23)
(0.0949764 0.0397013 2.46486e-21)
(0.092174 0.045292 9.80259e-23)
(0.0891749 0.0290208 1.38435e-21)
(0.0919285 0.0306917 -1.00322e-21)
(0.0994187 0.0407457 0)
(0.121488 -0.0020142 2.30307e-22)
(0.12165 -0.00252124 4.48374e-22)
(0.12603 -0.00875003 -4.42569e-22)
(0.12716 -0.0080797 7.64591e-22)
(0.117146 0.0227704 3.33406e-22)
(0.119184 0.0234489 -9.4795e-22)
(0.117289 0.0247921 0)
(0.115319 0.0237035 1.91994e-22)
(0.116966 0.0267686 0)
(0.117823 0.0347532 -6.88809e-22)
(0.116452 0.0369358 -3.69571e-22)
(0.112203 0.041054 -6.54903e-22)
(0.114543 0.0390333 0)
(0.117408 0.0418278 2.21421e-21)
(0.114735 0.0439443 4.70507e-23)
(0.109252 0.0434228 -3.61585e-22)
(0.100637 0.0498898 -1.5214e-21)
(0.0992506 0.045147 -2.66775e-22)
(0.0401846 -0.0200309 -1.47514e-22)
(0.0490907 -0.0225895 5.6424e-23)
(0.0092154 -0.00506272 -4.02175e-22)
(0.0588444 0.000325087 -8.72585e-23)
(0.0719745 -8.1866e-05 0)
(0.00033521 -0.000333627 1.56607e-22)
(0.000317761 -0.000302982 7.45388e-23)
(0.0662289 -0.00240297 3.75841e-23)
(0.075501 -0.00226278 1.28191e-23)
(0.0748585 -0.00135398 0)
(0.0644505 -0.000726306 1.58318e-23)
(0.106935 0.000432382 -1.8304e-22)
(0.10692 0.000379136 8.78307e-22)
(0.106989 0.00039007 4.28563e-22)
(0.00173881 0.0012335 2.22876e-22)
(8.066e-05 8.2345e-05 -3.6387e-22)
(6.92121e-05 3.90863e-05 2.55314e-22)
(0.00215096 0.00109338 0)
(0.00022621 0.00021827 9.47498e-22)
(0.00036298 7.94758e-05 -6.12964e-22)
(0.00874812 0.004419 -8.26584e-22)
(0.00184489 0.00100967 -1.05367e-21)
(0.00211303 0.00107353 0)
(0.00158713 0.00765662 0)
(0.000583234 0.00332957 0)
(0.000316432 0.00200751 0)
(0.130532 -0.0159462 1.75094e-22)
(0.130212 -0.0154 0)
(0.129598 -0.016924 -1.99904e-22)
(0.0883017 -0.0146365 5.00015e-21)
(0.0903023 -0.0150293 -1.81618e-21)
(0.0892081 -0.012672 0)
(0.108088 7.26559e-06 -1.07377e-23)
(0.108118 7.07184e-06 2.1492e-23)
(0.108058 8.19459e-06 -7.25937e-24)
(0.108146 7.02679e-06 0)
(0.108172 7.40979e-06 -1.37204e-23)
(0.108197 7.23654e-06 0)
(0.108196 -1.9806e-05 0)
(0.108221 6.28999e-06 5.09439e-23)
(0.108219 -2.01716e-05 0)
(0.108172 -2.05813e-05 -1.38083e-23)
(0.108145 -2.1591e-05 0)
(0.108117 -2.27061e-05 7.18915e-24)
(0.108088 -2.39338e-05 -1.07347e-23)
(0.108058 -2.51407e-05 7.25029e-24)
(0.108243 5.58088e-06 -4.87491e-23)
(0.108242 -2.00731e-05 -1.70699e-24)
(0.108026 8.97234e-06 8.81959e-28)
(0.108026 -2.59214e-05 -1.10835e-23)
(0.107991 9.8795e-06 5.89329e-23)
(0.108264 5.36992e-06 4.56043e-26)
(0.108264 -1.92799e-05 -1.70944e-24)
(0.107991 -2.66707e-05 2.18398e-23)
(0.108285 4.94084e-06 4.59496e-23)
(0.108304 4.50548e-06 -4.59118e-23)
(0.108284 -1.85617e-05 3.44105e-24)
(0.108304 -1.78505e-05 6.80616e-24)
(0.107956 1.23879e-05 -5.73389e-23)
(0.107956 -2.7967e-05 -1.43737e-23)
(0.108323 4.04443e-06 0)
(0.108323 -1.72077e-05 -6.71318e-24)
(0.107919 1.3919e-05 7.08856e-27)
(0.107919 -2.87395e-05 -7.10634e-27)
(0.10834 3.60183e-06 0)
(0.10834 -1.65649e-05 0)
(0.107879 1.54483e-05 0)
(0.107879 -2.96183e-05 0)
(0.108357 3.12042e-06 0)
(0.108357 -1.6009e-05 3.22954e-24)
(0.107838 1.72376e-05 -2.97323e-23)
(0.107837 -3.02813e-05 -7.25632e-27)
(0.108373 2.6258e-06 1.69341e-25)
(0.108373 -1.54288e-05 -3.44921e-24)
(0.107794 1.91765e-05 2.98744e-23)
(0.107793 -3.09542e-05 0)
(0.108388 2.09843e-06 0)
(0.108388 -1.49304e-05 0)
(0.107748 2.15288e-05 -1.89026e-24)
(0.107747 -3.13986e-05 3.24388e-23)
(0.108403 1.506e-06 2.09681e-23)
(0.108402 -1.43492e-05 0)
(0.107699 2.37939e-05 -1.58669e-25)
(0.107698 -3.2219e-05 -3.07025e-23)
(0.108416 7.52893e-07 -3.13693e-23)
(0.108416 -1.39083e-05 -9.10723e-24)
(0.107646 2.51322e-05 3.13093e-23)
(0.107647 -3.29952e-05 0)
(0.108429 -1.00534e-07 1.03365e-23)
(0.108429 -1.34519e-05 6.07435e-24)
(0.107592 2.71864e-05 -1.58456e-23)
(0.107592 -3.44257e-05 3.21373e-23)
(0.108441 -9.68192e-07 -4.13336e-23)
(0.108442 -1.24547e-05 4.65868e-23)
(0.107532 2.73866e-05 1.63486e-23)
(0.107533 -3.57864e-05 5.17447e-25)
(0.108454 -1.86357e-06 0)
(0.108454 -1.19404e-05 2.22245e-23)
(0.107469 2.81911e-05 -3.28932e-23)
(0.10747 -3.80614e-05 6.58115e-23)
(0.108466 -2.02574e-06 0)
(0.108466 -1.22118e-05 0)
(0.107535 8.91911e-05 -1.61768e-23)
(0.107472 9.38899e-05 -6.55111e-23)
(0.107401 2.84988e-05 0)
(0.107404 -4.15069e-05 -3.3547e-23)
(0.107649 7.93315e-05 -1.01648e-23)
(0.107593 8.4465e-05 1.99514e-24)
(0.10775 6.94444e-05 0)
(0.107701 7.45301e-05 -3.27928e-23)
(0.107841 6.06362e-05 -6.33044e-26)
(0.107797 6.49076e-05 0)
(0.107922 5.27846e-05 0)
(0.107882 5.66097e-05 0)
(0.107995 4.55408e-05 0)
(0.107959 4.90647e-05 0)
(0.10806 4.06903e-05 1.43429e-23)
(0.108028 4.31754e-05 3.61357e-24)
(0.108119 3.66716e-05 -1.3833e-23)
(0.108091 3.86332e-05 -1.43263e-23)
(0.108173 3.31457e-05 2.45793e-23)
(0.108147 3.45028e-05 3.14301e-23)
(0.108223 3.00183e-05 0)
(0.108199 3.16867e-05 0)
(0.108266 2.66622e-05 -1.08206e-25)
(0.108245 2.83442e-05 0)
(0.108306 2.36254e-05 0)
(0.108287 2.51192e-05 0)
(0.108342 2.06799e-05 0)
(0.108324 2.21419e-05 0)
(0.108374 1.78591e-05 0)
(0.108358 1.92559e-05 0)
(0.108404 1.52548e-05 0)
(0.108389 1.65437e-05 0)
(0.10843 1.28158e-05 0)
(0.108417 1.40159e-05 0)
(0.108455 9.83236e-06 -1.69136e-23)
(0.108443 1.16502e-05 0)
(0.108467 8.40579e-06 -5.47213e-24)
(0.108478 -2.56998e-06 5.33902e-24)
(0.108477 -1.21872e-05 -5.29459e-24)
(0.108443 -2.4584e-05 0)
(0.108466 -2.2583e-05 -2.17205e-23)
(0.108454 -2.32899e-05 -1.11689e-23)
(0.108417 -2.74638e-05 3.05168e-24)
(0.10843 -2.59103e-05 -1.19582e-23)
(0.108389 -3.004e-05 9.87777e-26)
(0.108403 -2.89003e-05 0)
(0.108358 -3.23516e-05 0)
(0.108374 -3.11603e-05 0)
(0.108323 -3.49891e-05 0)
(0.108341 -3.36114e-05 0)
(0.108285 -3.81221e-05 0)
(0.108305 -3.6473e-05 1.29701e-29)
(0.108243 -4.18247e-05 1.09304e-25)
(0.108265 -3.99043e-05 0)
(0.108197 -4.634e-05 0)
(0.10822 -4.41411e-05 0)
(0.108146 -5.0267e-05 0)
(0.108172 -4.8392e-05 0)
(0.10809 -5.48168e-05 0)
(0.108119 -5.22708e-05 -7.26649e-24)
(0.108027 -6.02796e-05 1.90602e-24)
(0.108059 -5.80614e-05 -9.36815e-24)
(0.107958 -6.65359e-05 0)
(0.107994 -6.29343e-05 -7.62048e-24)
(0.107882 -7.24669e-05 0)
(0.107921 -6.95158e-05 0)
(0.107796 -7.87721e-05 0)
(0.10784 -7.55355e-05 0)
(0.107701 -8.59377e-05 0)
(0.10775 -8.22885e-05 0)
(0.107594 -9.38273e-05 -8.30054e-24)
(0.107649 -8.95352e-05 0)
(0.107475 -0.000103645 -3.36771e-23)
(0.107536 -9.8179e-05 -8.35253e-24)
(0.107409 -0.000110084 3.42955e-23)
(0.107404 9.88937e-05 6.49527e-23)
(0.108478 7.33997e-06 1.07126e-23)
(0.108477 -2.20693e-05 -2.09453e-23)
(0.107332 -4.59323e-05 0)
(0.107338 -0.00011806 0)
(0.107333 0.000103968 0)
(0.107329 2.80249e-05 0)
(0.107541 0.000149869 0)
(0.107412 0.000167878 1.629e-23)
(0.107479 0.000158527 1.64345e-23)
(0.107655 0.000132637 2.08868e-23)
(0.1076 0.000141118 -4.17394e-24)
(0.107756 0.000116888 6.45888e-26)
(0.107707 0.000124326 0)
(0.107845 0.000103295 0)
(0.107802 0.000109905 0)
(0.107926 9.13101e-05 0)
(0.107887 9.70919e-05 0)
(0.107999 8.12559e-05 0)
(0.107964 8.59767e-05 0)
(0.108065 7.2091e-05 0)
(0.108033 7.64866e-05 0)
(0.108124 6.48377e-05 -5.80218e-26)
(0.108095 6.85793e-05 1.49587e-23)
(0.108177 5.86551e-05 -5.57629e-26)
(0.108151 6.13872e-05 -2.92315e-23)
(0.108225 5.28494e-05 0)
(0.108202 5.56369e-05 0)
(0.108269 4.75239e-05 5.4054e-26)
(0.108248 5.01462e-05 0)
(0.108308 4.25881e-05 0)
(0.108289 4.5002e-05 0)
(0.108344 3.79586e-05 0)
(0.108326 4.02226e-05 0)
(0.108376 3.36329e-05 0)
(0.10836 3.574e-05 0)
(0.108405 2.95349e-05 0)
(0.108391 3.15369e-05 0)
(0.108432 2.56087e-05 0)
(0.108419 2.75532e-05 0)
(0.108456 2.12136e-05 1.15514e-23)
(0.108444 2.34732e-05 0)
(0.108488 -3.41165e-06 0)
(0.108489 6.52402e-06 1.04919e-23)
(0.108479 1.69779e-05 0)
(0.108468 1.89164e-05 1.12657e-23)
(0.108467 -3.35742e-05 2.24185e-23)
(0.108478 -3.24265e-05 5.5146e-24)
(0.108488 -2.15188e-05 4.30088e-23)
(0.108488 -1.19416e-05 0)
(0.108444 -3.73152e-05 0)
(0.108455 -3.52016e-05 -3.38375e-23)
(0.108418 -4.11841e-05 9.61632e-26)
(0.108431 -3.92066e-05 1.2031e-23)
(0.10839 -4.46876e-05 -9.87773e-26)
(0.108404 -4.29118e-05 0)
(0.108359 -4.85191e-05 0)
(0.108375 -4.65479e-05 0)
(0.108325 -5.28726e-05 0)
(0.108342 -5.0619e-05 0)
(0.108287 -5.78859e-05 0)
(0.108306 -5.52849e-05 -1.29701e-29)
(0.108245 -6.35969e-05 -2.18577e-25)
(0.108267 -6.06582e-05 0)
(0.108199 -7.03254e-05 0)
(0.108223 -6.67731e-05 0)
(0.108149 -7.74998e-05 3.66987e-24)
(0.108175 -7.38288e-05 0)
(0.108093 -8.51363e-05 0)
(0.108121 -8.11154e-05 -3.65455e-24)
(0.108031 -9.37136e-05 7.64053e-24)
(0.108063 -8.93978e-05 7.59174e-24)
(0.107962 -0.000102878 0)
(0.107998 -9.83047e-05 0)
(0.107886 -0.000112715 0)
(0.107925 -0.000107688 0)
(0.107801 -0.000123579 0)
(0.107845 -0.000117999 0)
(0.107706 -0.000135778 0)
(0.107755 -0.00012952 0)
(0.107601 -0.000149502 1.33128e-25)
(0.107655 -0.00014243 0)
(0.107482 -0.000165642 -1.35108e-25)
(0.107543 -0.000157193 0)
(0.107348 -0.000186492 -3.53461e-23)
(0.107417 -0.000175594 3.53298e-23)
(0.107342 0.000177659 3.31242e-23)
(0.107263 -0.000127473 0)
(0.107275 -0.000199589 -7.19832e-23)
(0.107256 -5.06544e-05 0)
(0.108489 1.5829e-05 0)
(0.108489 -3.11027e-05 -5.35517e-24)
(0.107257 0.000108977 8.39505e-23)
(0.107268 0.000188085 3.35727e-23)
(0.107184 -0.000137482 1.81785e-23)
(0.107196 -0.000213707 9.09643e-23)
(0.107253 2.7949e-05 0)
(0.10848 2.8066e-05 4.41301e-23)
(0.108491 2.56238e-05 -2.18076e-23)
(0.108499 -2.12709e-05 -1.06071e-23)
(0.108499 -2.98206e-05 5.27618e-23)
(0.107285 0.000265693 1.1767e-22)
(0.107188 0.000199552 -6.61306e-23)
(0.107121 0.000301835 -2.99411e-22)
(0.107206 0.000282433 -6.71797e-23)
(0.107426 0.000236097 3.28153e-23)
(0.107358 0.000250482 -1.00186e-22)
(0.107552 0.000209399 -3.35356e-23)
(0.107491 0.000222492 -2.52899e-23)
(0.107664 0.000185443 -8.35675e-24)
(0.107609 0.00019718 -8.37205e-24)
(0.107764 0.000164272 -6.45888e-26)
(0.107715 0.000174419 0)
(0.107853 0.000145768 0)
(0.107809 0.000154738 0)
(0.107933 0.000129538 0)
(0.107894 0.000137371 0)
(0.108005 0.000115548 0)
(0.10797 0.000122266 0)
(0.10807 0.000103395 0)
(0.108039 0.000109175 0)
(0.108129 9.28419e-05 0)
(0.1081 9.78642e-05 0)
(0.108182 8.36155e-05 5.12673e-30)
(0.108156 8.82352e-05 0)
(0.108229 7.5574e-05 0)
(0.108206 7.94164e-05 0)
(0.108273 6.81538e-05 5.40501e-26)
(0.108252 7.18076e-05 0)
(0.108312 6.12544e-05 0)
(0.108293 6.46352e-05 0)
(0.108347 5.48572e-05 0)
(0.10833 5.79925e-05 0)
(0.108379 4.89304e-05 0)
(0.108363 5.1833e-05 0)
(0.108408 4.34198e-05 0)
(0.108394 4.61218e-05 0)
(0.108434 3.82375e-05 0)
(0.108421 4.08022e-05 0)
(0.108458 3.30158e-05 5.88827e-24)
(0.108447 3.56048e-05 -2.96208e-24)
(0.10847 3.04783e-05 -2.25013e-23)
(0.108499 -3.64756e-06 -5.02255e-24)
(0.1085 1.47138e-05 2.10203e-23)
(0.108499 5.3171e-06 -1.60503e-23)
(0.108498 -1.17116e-05 0)
(0.108468 -4.52064e-05 -1.67122e-23)
(0.10849 -4.0782e-05 -4.83017e-23)
(0.108479 -4.28169e-05 3.88575e-23)
(0.108445 -5.01696e-05 0)
(0.108457 -4.77415e-05 0)
(0.10842 -5.45094e-05 1.8062e-30)
(0.108433 -5.22057e-05 0)
(0.108392 -5.92946e-05 0)
(0.108406 -5.68373e-05 0)
(0.108361 -6.46542e-05 -1.01403e-25)
(0.108377 -6.1896e-05 0)
(0.108327 -7.07136e-05 0)
(0.108345 -6.75886e-05 0)
(0.10829 -7.75913e-05 0)
(0.108309 -7.40434e-05 0)
(0.108249 -8.53556e-05 1.09288e-25)
(0.10827 -8.13623e-05 0)
(0.108203 -9.41416e-05 1.11923e-25)
(0.108227 -8.95942e-05 0)
(0.108153 -0.000103819 0)
(0.108179 -9.88567e-05 0)
(0.108098 -0.000114537 0)
(0.108126 -0.000109102 0)
(0.108036 -0.000126155 0)
(0.108068 -0.000120105 0)
(0.107968 -0.000138776 0)
(0.108003 -0.000132354 0)
(0.107893 -0.000152659 -1.2514e-25)
(0.107931 -0.000145544 0)
(0.107808 -0.000168083 0)
(0.107852 -0.000160159 0)
(0.107715 -0.000185393 0)
(0.107763 -0.000176487 0)
(0.10761 -0.000204932 -3.22276e-30)
(0.107664 -0.000194867 0)
(0.107493 -0.000227223 7.15973e-30)
(0.107553 -0.000215706 0)
(0.107362 -0.000253923 1.40032e-25)
(0.107429 -0.000239713 0)
(0.107213 -0.000287601 -7.3733e-23)
(0.107289 -0.000269742 1.81254e-23)
(0.107113 -0.000228293 1.85516e-23)
(0.107132 -0.000306944 3.68249e-23)
(0.107177 0.000114123 -3.28304e-23)
(0.107175 -5.63722e-05 -3.52379e-23)
(0.108501 2.38568e-05 5.34911e-24)
(0.1085 -3.91824e-05 3.797e-23)
(0.107101 0.00020986 4.02858e-24)
(0.107099 -0.000148388 0)
(0.107019 0.000310238 4.56979e-22)
(0.107046 -0.00032724 5.68216e-23)
(0.107026 -0.00024424 7.5773e-23)
(0.107031 0.000426977 -7.70705e-22)
(0.106955 0.000465172 1.36953e-22)
(0.107173 2.79685e-05 0)
(0.10716 0.000382487 7.57385e-23)
(0.107092 0.000409011 3.94338e-23)
(0.107307 0.000339777 6.82683e-23)
(0.107233 0.000360035 -1.04181e-22)
(0.107444 0.000301437 -3.40044e-23)
(0.107378 0.000320358 -1.69889e-23)
(0.107567 0.000267322 1.70482e-23)
(0.107507 0.000283709 1.72665e-23)
(0.107676 0.000237358 0)
(0.107623 0.000251885 -4.12835e-26)
(0.107775 0.000211036 0)
(0.107727 0.000223806 0)
(0.107863 0.000187739 6.32604e-26)
(0.10782 0.000199024 0)
(0.107942 0.000167284 0)
(0.107903 0.00017717 0)
(0.108013 0.000149475 0)
(0.107979 0.000158063 0)
(0.108078 0.000134012 0)
(0.108046 0.000141457 0)
(0.108135 0.000120509 5.79878e-26)
(0.108107 0.000127 0)
(0.108188 0.0001086 3.0006e-30)
(0.108162 0.000114438 0)
(0.108235 9.80654e-05 0)
(0.108212 0.000103163 0)
(0.108277 8.84534e-05 -1.08098e-25)
(0.108257 9.31656e-05 0)
(0.108316 7.96052e-05 0)
(0.108297 8.39365e-05 0)
(0.108351 7.14622e-05 0)
(0.108334 7.54496e-05 0)
(0.108382 6.3972e-05 0)
(0.108367 6.7638e-05 0)
(0.108411 5.70892e-05 0)
(0.108397 6.04577e-05 0)
(0.108437 5.07297e-05 0)
(0.108424 5.38573e-05 0)
(0.108461 4.47032e-05 -2.94225e-24)
(0.108449 4.75869e-05 0)
(0.108482 3.91753e-05 0)
(0.108472 4.19442e-05 -5.71438e-24)
(0.108502 3.33071e-05 2.78333e-27)
(0.108493 3.6182e-05 0)
(0.108509 1.34977e-05 -2.13122e-23)
(0.108512 3.09736e-05 1.28844e-24)
(0.108511 2.25625e-05 1.04499e-23)
(0.108509 -3.56646e-06 7.66722e-24)
(0.108509 4.67674e-06 -5.29234e-24)
(0.108509 -2.11339e-05 -2.66387e-24)
(0.108508 -1.19775e-05 2.65959e-24)
(0.108509 -3.82788e-05 0)
(0.108509 -2.91357e-05 -2.41685e-23)
(0.108491 -5.14711e-05 -1.08623e-23)
(0.10851 -4.7813e-05 -2.07927e-23)
(0.108501 -4.93961e-05 4.78496e-23)
(0.10847 -5.6543e-05 -5.68912e-24)
(0.108481 -5.38576e-05 0)
(0.108448 -6.2294e-05 0)
(0.108459 -5.94553e-05 0)
(0.108422 -6.77068e-05 1.18939e-30)
(0.108435 -6.49827e-05 0)
(0.108395 -7.37926e-05 0)
(0.108409 -7.06578e-05 0)
(0.108364 -8.06406e-05 1.01403e-25)
(0.10838 -7.71166e-05 0)
(0.108331 -8.8358e-05 0)
(0.108348 -8.4384e-05 0)
(0.108294 -9.70623e-05 0)
(0.108313 -9.25809e-05 0)
(0.108253 -0.000106849 0)
(0.108274 -0.000101816 0)
(0.108208 -0.000117818 -2.11724e-31)
(0.108231 -0.000112181 0)
(0.108159 -0.000129955 0)
(0.108184 -0.000123734 0)
(0.108104 -0.00014338 0)
(0.108132 -0.000136524 0)
(0.108043 -0.000158109 0)
(0.108074 -0.000150534 0)
(0.107976 -0.000174299 0)
(0.108011 -0.000166014 0)
(0.107901 -0.000192201 1.2514e-25)
(0.10794 -0.000183019 0)
(0.107818 -0.000212154 0)
(0.107861 -0.000201898 0)
(0.107726 -0.000234574 0)
(0.107773 -0.000223032 0)
(0.107622 -0.000259897 -1.33112e-25)
(0.107675 -0.000246845 0)
(0.107507 -0.000288589 1.35778e-25)
(0.107566 -0.0002738 0)
(0.107378 -0.000321285 -1.38449e-25)
(0.107444 -0.000304371 0)
(0.107233 -0.000360172 1.82384e-23)
(0.107307 -0.00033954 -3.59541e-23)
(0.10707 -0.000407623 -1.84211e-23)
(0.107154 -0.00038279 3.73755e-23)
(0.106955 -0.000348688 7.08486e-25)
(0.106981 -0.000433788 3.78945e-23)
(0.107092 0.00011873 -3.37594e-23)
(0.107091 -6.16289e-05 0)
(0.107013 0.000220048 -3.27551e-22)
(0.107011 -0.00015705 0)
(0.108504 4.42392e-05 -5.35886e-24)
(0.108514 4.1659e-05 3.92578e-24)
(0.108519 -3.71534e-05 -2.04808e-23)
(0.10852 -4.62384e-05 -2.32141e-23)
(0.10692 0.000310471 -3.21486e-22)
(0.106934 -0.000260929 -7.65144e-23)
(0.106881 0.000470043 0)
(0.107055 0.000513797 -8.90854e-23)
(0.106859 -0.000371583 -3.75727e-23)
(0.106887 -0.000461809 5.75765e-23)
(0.10697 0.00053853 1.78756e-22)
(0.107089 2.7798e-05 0)
(0.107194 0.000459885 0)
(0.107125 0.000487856 -7.92703e-23)
(0.107335 0.000410127 0)
(0.107265 0.000434397 0)
(0.107467 0.000364196 0)
(0.107402 0.000386508 1.76007e-23)
(0.107585 0.00032405 0)
(0.107527 0.000343489 0)
(0.107692 0.000288545 0)
(0.10764 0.000305732 0)
(0.107788 0.000257047 0)
(0.107741 0.000272344 0)
(0.107875 0.000229119 -6.32604e-26)
(0.107833 0.000242651 0)
(0.107953 0.00020453 0)
(0.107915 0.000216426 0)
(0.108023 0.000183006 0)
(0.107989 0.000193405 0)
(0.108087 0.000164201 0)
(0.108056 0.000173285 0)
(0.108144 0.000147728 -3.26171e-30)
(0.108116 0.000155692 0)
(0.108195 0.00013318 3.0322e-30)
(0.10817 0.000140253 0)
(0.108241 0.000120206 0)
(0.108219 0.000126513 0)
(0.108283 0.000108445 2.77086e-30)
(0.108263 0.000114194 0)
(0.108321 9.76896e-05 0)
(0.108303 0.000102949 0)
(0.108355 8.7841e-05 0)
(0.108339 9.26578e-05 0)
(0.108386 7.88285e-05 0)
(0.108371 8.32343e-05 0)
(0.108414 7.05982e-05 0)
(0.108401 7.46193e-05 0)
(0.10844 6.3107e-05 0)
(0.108428 6.67619e-05 0)
(0.108464 5.64018e-05 0)
(0.108452 5.96843e-05 0)
(0.108485 4.96476e-05 5.67706e-24)
(0.108474 5.28883e-05 5.80115e-24)
(0.108495 4.67413e-05 -1.0905e-23)
(0.108519 1.25065e-05 -1.04683e-23)
(0.108521 2.95053e-05 0)
(0.10852 2.13651e-05 -1.05718e-23)
(0.108518 -3.7248e-06 0)
(0.108518 4.50009e-06 1.06835e-23)
(0.108518 -2.10493e-05 1.59448e-23)
(0.108518 -1.24233e-05 -5.38861e-24)
(0.108518 -2.87472e-05 -3.13325e-23)
(0.108493 -6.21679e-05 5.47958e-24)
(0.108512 -5.65404e-05 2.04373e-23)
(0.108503 -5.98821e-05 0)
(0.108473 -6.80052e-05 -1.13367e-23)
(0.108483 -6.49241e-05 1.13741e-23)
(0.10845 -7.41529e-05 0)
(0.108462 -7.11715e-05 0)
(0.108425 -8.07158e-05 9.86519e-31)
(0.108438 -7.73564e-05 0)
(0.108398 -8.81063e-05 0)
(0.108412 -8.43017e-05 0)
(0.108368 -9.64172e-05 0)
(0.108384 -9.21415e-05 0)
(0.108335 -0.00010576 0)
(0.108352 -0.000100953 0)
(0.108299 -0.000116257 0)
(0.108318 -0.000110858 0)
(0.108259 -0.00012802 1.09288e-25)
(0.108279 -0.000121975 0)
(0.108214 -0.00014116 -1.11922e-25)
(0.108237 -0.000134414 0)
(0.108166 -0.000155734 0)
(0.108191 -0.000148262 0)
(0.108112 -0.000171856 0)
(0.108139 -0.000163601 0)
(0.108052 -0.000189659 0)
(0.108083 -0.000180529 0)
(0.107986 -0.000209338 0)
(0.10802 -0.000199251 0)
(0.107912 -0.000231185 0)
(0.10795 -0.00021997 0)
(0.107831 -0.000255594 0)
(0.107873 -0.000243044 0)
(0.107739 -0.000283028 -1.30445e-25)
(0.107786 -0.000268905 0)
(0.107638 -0.000314002 1.33105e-25)
(0.10769 -0.000298041 0)
(0.107524 -0.000349072 -1.3577e-25)
(0.107583 -0.000330995 0)
(0.107397 -0.000388821 0)
(0.107463 -0.000368321 0)
(0.107256 -0.000433968 0)
(0.107328 -0.000410653 0)
(0.107098 -0.00048681 1.45583e-25)
(0.107179 -0.000458981 1.84162e-23)
(0.10692 -0.000550375 -9.65044e-23)
(0.107011 -0.000517312 0)
(0.106787 -0.000492997 -5.70883e-23)
(0.106822 -0.00058618 -7.12988e-25)
(0.107004 0.000123394 1.05614e-22)
(0.107002 -6.64114e-05 0)
(0.108523 3.86944e-05 -2.04087e-23)
(0.108521 -5.43082e-05 -3.935e-23)
(0.106913 0.000221887 -5.62562e-23)
(0.10684 0.000404734 7.45744e-25)
(0.106819 0.000313399 1.63957e-22)
(0.106918 -0.000166208 0)
(0.106836 -0.000276346 1.92446e-23)
(0.106874 0.000562246 -1.6372e-22)
(0.106779 0.000568326 1.41818e-22)
(0.106756 0.00044835 -1.40627e-22)
(0.106757 -0.000395058 -5.78707e-23)
(0.106682 -0.000524925 3.87678e-23)
(0.106719 -0.000625962 3.80225e-23)
(0.107 2.72524e-05 0)
(0.107079 0.000598323 4.97663e-24)
(0.106895 0.000667891 -7.75886e-25)
(0.10699 0.000631863 3.85566e-23)
(0.107227 0.000535206 3.81219e-23)
(0.107156 0.000565946 -3.83199e-23)
(0.107364 0.000477378 6.98865e-26)
(0.107296 0.000505774 0)
(0.107491 0.000425566 0)
(0.107429 0.000450658 0)
(0.107606 0.000379559 0)
(0.10755 0.000401905 0)
(0.107711 0.000338592 0)
(0.10766 0.000358467 0)
(0.107805 0.000302129 6.45733e-26)
(0.107759 0.000319833 0)
(0.107889 0.000269752 0)
(0.107848 0.000285451 0)
(0.107966 0.000241148 0)
(0.107929 0.000255 0)
(0.108035 0.000215992 0)
(0.108001 0.000228163 0)
(0.108097 0.000193908 0)
(0.108067 0.000204592 0)
(0.108153 0.000174486 -5.79845e-26)
(0.108126 0.000183891 0)
(0.108203 0.000157297 3.3965e-30)
(0.108179 0.000165644 0)
(0.108249 0.000141945 0)
(0.108227 0.000149413 0)
(0.10829 0.000128078 1.08087e-25)
(0.10827 0.000134846 0)
(0.108327 0.000115454 0)
(0.108309 0.000121621 0)
(0.108361 0.000103938 0)
(0.108344 0.000109565 0)
(0.108391 9.34386e-05 0)
(0.108376 9.85667e-05 0)
(0.108419 8.3887e-05 0)
(0.108405 8.85488e-05 0)
(0.108444 7.52339e-05 0)
(0.108432 7.945e-05 0)
(0.108467 6.74891e-05 9.23846e-26)
(0.108456 7.12586e-05 0)
(0.108488 6.02808e-05 -5.70186e-24)
(0.108478 6.39319e-05 0)
(0.108507 5.31038e-05 5.42992e-24)
(0.108498 5.66343e-05 0)
(0.108525 4.69259e-05 5.19519e-24)
(0.108516 4.99469e-05 -5.3052e-24)
(0.10853 2.80845e-05 1.0267e-23)
(0.108533 4.37522e-05 0)
(0.108531 3.66837e-05 1.52813e-23)
(0.108528 1.21417e-05 0)
(0.108528 1.99009e-05 0)
(0.108527 -4.10592e-06 0)
(0.108527 4.27922e-06 0)
(0.108527 -2.10945e-05 0)
(0.108526 -1.26061e-05 0)
(0.108528 -3.64765e-05 2.08733e-23)
(0.108527 -2.86189e-05 5.19012e-24)
(0.10853 -5.2513e-05 5.13846e-24)
(0.108528 -4.45424e-05 4.09344e-23)
(0.108514 -6.58033e-05 2.66412e-23)
(0.108531 -6.08553e-05 5.11961e-24)
(0.108523 -6.31079e-05 -1.03886e-23)
(0.108496 -7.21464e-05 5.47462e-24)
(0.108505 -6.88111e-05 -3.28158e-23)
(0.108476 -7.90423e-05 6.10154e-30)
(0.108486 -7.55612e-05 0)
(0.108453 -8.58096e-05 0)
(0.108465 -8.2323e-05 0)
(0.108429 -9.35181e-05 7.63183e-31)
(0.108442 -8.95524e-05 0)
(0.108402 -0.000102195 0)
(0.108416 -9.77304e-05 0)
(0.108373 -0.000111942 0)
(0.108388 -0.000106929 0)
(0.10834 -0.000122877 0)
(0.108357 -0.000117254 0)
(0.108305 -0.00013513 0)
(0.108323 -0.000128832 0)
(0.108265 -0.000148829 -2.18575e-25)
(0.108286 -0.000141792 0)
(0.108222 -0.000164102 0)
(0.108244 -0.000156263 0)
(0.108174 -0.000181063 0)
(0.108199 -0.000172365 0)
(0.108121 -0.000199858 0)
(0.108148 -0.000190225 0)
(0.108063 -0.000220679 0)
(0.108093 -0.00021 0)
(0.107998 -0.000243775 -1.22482e-25)
(0.108031 -0.000231926 0)
(0.107926 -0.00026949 0)
(0.107963 -0.000256282 0)
(0.107845 -0.000298261 0)
(0.107886 -0.000283466 0)
(0.107756 -0.0003306 1.30445e-25)
(0.107802 -0.000313953 0)
(0.107656 -0.000367079 -5.5162e-30)
(0.107707 -0.000348287 0)
(0.107545 -0.000408331 2.71533e-25)
(0.107602 -0.000387071 0)
(0.107421 -0.000455038 0)
(0.107485 -0.000430961 0)
(0.107283 -0.000507921 0)
(0.107354 -0.000480653 0)
(0.107128 -0.000567883 -1.56249e-29)
(0.107208 -0.000536972 0)
(0.106956 -0.000636622 0)
(0.107044 -0.000601004 0)
(0.106762 -0.000720082 -5.77374e-23)
(0.106862 -0.000676131 0)
(0.10661 -0.000667324 -7.07582e-25)
(0.106656 -0.000768597 9.83588e-23)
(0.106907 0.000126173 0)
(0.106802 0.000692782 2.23267e-22)
(0.10681 0.00022455 3.85375e-23)
(0.108527 5.5034e-05 -5.18542e-24)
(0.108535 5.212e-05 0)
(0.108538 -5.10868e-05 5.01196e-24)
(0.108539 -5.87029e-05 -9.9334e-24)
(0.106908 -7.05387e-05 0)
(0.10682 -0.000176151 0)
(0.106722 0.00033885 0)
(0.106733 -0.000292543 -1.89542e-23)
(0.106649 -0.000420489 -3.8363e-23)
(0.106569 -0.000560415 0)
(0.106494 -0.00071167 9.92759e-23)
(0.106543 -0.000819251 -7.93209e-23)
(0.106905 2.73076e-05 0)
(0.106929 0.000763063 -1.85555e-26)
(0.106698 0.000720366 7.08601e-23)
(0.106735 0.000840112 -2.53515e-22)
(0.106835 0.000801838 7.35779e-23)
(0.107109 0.000679998 -2.40279e-23)
(0.107021 0.000719884 -3.82285e-23)
(0.107259 0.000607877 0)
(0.107187 0.000642824 0)
(0.107395 0.000543025 -6.98801e-26)
(0.107328 0.000574653 0)
(0.107518 0.000485144 0)
(0.107458 0.000513243 0)
(0.10763 0.000433456 0)
(0.107576 0.000458576 0)
(0.107732 0.000387311 0)
(0.107682 0.000409726 0)
(0.107823 0.000346146 -6.45733e-26)
(0.107778 0.000366142 0)
(0.107906 0.000309501 0)
(0.107866 0.000327284 0)
(0.107981 0.000277012 0)
(0.107944 0.000292761 0)
(0.108048 0.000248321 0)
(0.108015 0.000262217 0)
(0.108109 0.00022303 0)