/*--------------------------------*- C++ -*----------------------------------*\
  =========                 |
  \\      /  F ield         | OpenFOAM: The Open Source CFD Toolbox
   \\    /   O peration     | Website:  https://openfoam.org
    \\  /    A nd           | Version:  10
     \\/     M anipulation  |
\*---------------------------------------------------------------------------*/
FoamFile
{
    format      ascii;
    class       volScalarField;
    location    "30.5";
    object      p;
}
// * * * * * * * * * * * * * * * * * * * * * * * * * * * * * * * * * * * * * //

dimensions      [0 2 -2 0 0 0 0];

internalField   nonuniform List<scalar> 
40874
(
0.625832
0.704455
0.197944
0.271915
0.190884
0.104261
-0.00408228
0.167998
0.25015
0.390992
0.56185
0.524123
0.383812
0.485865
0.49384
0.551563
-0.0885822
-0.0595982
0.286214
0.358719
0.358322
0.333144
0.25591
0.445732
0.41451
0.127886
0.153015
0.156812
0.110021
-0.0583496
-0.0391399
0.0627649
0.0460229
-0.407342
-0.345942
-0.322582
-0.364169
0.00526667
0.00537927
0.00327912
0.00538086
0.00557785
0.00636782
0.00231691
0.00480278
0.00475723
0.00218534
0.254029
0.37029
0.4594
0.355801
0.0767218
0.188577
-0.105196
-0.142078
-0.0378487
-0.00966788
-0.0325803
-0.159259
-0.288949
-0.259176
-0.121916
0.0251233
0.00298275
-0.12091
-0.421526
-0.459188
-0.420575
-0.602873
-0.606937
-0.602381
0.921072
0.923609
0.915216
-9.27563e-05
0.0239389
0.0296251
-0.0220579
0.0048174
0.00870154
0.00463396
0.00575182
0.443592
0.494795
0.510474
0.472098
-0.101726
-0.0965094
-0.0793535
-0.208765
-0.380749
-0.300752
-0.327055
-0.269808
-0.201087
0.00370146
0.00540805
-0.00252369
-0.00018817
0.00311656
0.213831
0.199104
-0.602009
-0.611953
-0.345914
-0.341492
0.369002
0.370591
0.908761
0.895077
-0.352419
-0.346626
0.186739
-0.00549595
-0.00393671
0.00597889
0.00823087
0.0133359
0.0518096
0.371872
0.534205
0.609091
0.501908
0.371501
0.00327989
0.00263936
0.00648786
0.00124856
-0.00887024
-0.0192453
0.198186
0.00404001
0.04298
0.0433244
0.670507
-0.12852
-0.132119
-0.191115
-0.534392
-0.49264
-0.481204
-0.525625
-0.586232
-0.583331
-0.252282
-0.273451
-0.294278
0.901658
0.923462
0.921314
-0.120763
-0.136994
-0.0575893
-0.345022
-0.345453
-0.346352
-0.34926
-0.34026
-0.341816
-0.348494
-0.760445
-0.765552
-0.749563
0.887829
0.83407
0.746021
0.658767
0.680225
0.130769
-0.659075
0.785026
0.735383
0.612418
0.820774
0.00823116
0.0135619
-0.548351
-0.545706
-0.578984
-0.351561
-0.336721
-0.246035
-0.264241
-0.386971
-0.381918
0.00428131
0.00376998
0.00398307
0.402817
0.417266
0.393664
0.257776
0.194236
0.8516
0.862277
0.889843
0.845108
-0.198455
-0.300321
-0.443584
-0.330475
-0.661046
-0.653572
-0.646944
-0.666894
0.00353608
0.00409926
-0.63642
-0.00499362
-0.0108695
0.178077
0.173932
0.239091
0.223099
0.222712
0.185089
0.184433
0.209534
0.2014
0.700239
0.787517
0.816174
0.0040383
0.00342908
0.114385
-0.0108104
0.0275702
0.177563
-0.295848
-0.538228
-0.53255
-0.606604
-0.605043
-0.118088
-0.578642
-0.587114
-0.597067
-0.570912
-0.575629
0.179192
0.235401
-0.606219
-0.604017
-0.131578
-0.142127
-0.274441
-0.246371
0.589977
0.593011
0.72183
0.686129
-0.2099
-0.193384
-0.207683
-0.228102
-0.563195
-0.586191
-0.569953
-0.568587
-0.543761
-0.596274
-0.366677
-0.362712
-0.378225
0.831094
0.781565
0.842107
0.606491
0.584912
0.587111
-0.631748
0.00397311
-0.27525
0.0398404
-0.0620096
-0.0535719
-0.0455784
-0.038018
-0.0305169
-0.0240496
-0.0190546
-0.0131884
-0.00800798
-0.0034569
0.000813995
0.00464131
0.00826887
0.0115368
0.014637
0.017443
0.0201002
0.0224558
0.02477
0.02686
0.0287985
0.0305608
0.0322205
0.0337209
0.0351221
0.0363804
0.0375447
0.0385785
0.0395213
0.0403426
0.0410725
0.0416831
0.0422241
0.0427192
0.0429895
0.0428993
0.0424736
0.0429882
-0.0862789
-0.0772614
-0.0881727
-0.0996046
-0.1095
-0.0971232
-0.0671607
-0.0770835
-0.0503075
-0.0583645
-0.0348248
-0.0423841
-0.0218062
-0.0273527
-0.0111155
-0.0162403
-0.00210642
-0.00642758
0.00557056
0.00187726
0.0121478
0.00898013
0.0176745
0.0150803
0.0227271
0.0203193
0.0268816
0.0248778
0.0304657
0.0287395
0.0335199
0.0320539
0.0360876
0.03486
0.0382046
0.0371988
0.0398985
0.0391018
0.0411405
0.040582
0.0417673
0.0415693
0.0420194
-0.0560627
-0.0651433
-0.0405024
-0.0480037
-0.0262535
-0.0332884
-0.0158765
-0.0206833
-0.00626766
-0.0110909
0.0022806
-0.0018234
0.00953907
0.00603893
0.015782
0.0127672
0.021176
0.0185691
0.0257943
0.0235544
0.0298204
0.0278829
0.0332637
0.0316059
0.0362027
0.0347915
0.0386795
0.0374953
0.0407261
0.039754
0.0423611
0.0415943
0.0436
0.0430247
0.0444895
0.0441135
0.0445468
0.044518
-0.123188
-0.138583
-0.126411
-0.112224
-0.156917
-0.14269
-0.177521
0.0412363
0.041398
0.044744
-0.0784791
-0.0684855
-0.0889432
-0.114075
-0.129015
-0.233506
-0.195336
-0.185098
-0.149409
-0.167164
-0.118457
-0.132896
-0.0936504
-0.105388
-0.0729769
-0.0838877
-0.0546707
-0.0635325
-0.0391726
-0.0468223
-0.0263229
-0.0321764
-0.0159654
-0.0210224
-0.00673636
-0.0111811
0.00125231
-0.00258818
0.00814819
0.00483351
0.0140903
0.0112156
0.019293
0.0167809
0.0237715
0.0216214
0.0276171
0.0257685
0.0309105
0.0293302
0.0337037
0.0323675
0.0360373
0.0349262
0.0379479
0.0370432
0.0394112
0.0387469
0.040441
0.0399475
0.0409059
0.0415286
0.0448183
0.0421794
0.0428132
-0.0500332
-0.0590757
-0.034805
-0.0421224
-0.0219849
-0.0279289
-0.0112085
-0.0165632
-0.00207176
-0.00646186
0.00595155
0.00209145
0.0128309
0.00952379
0.0187617
0.0159058
0.0238851
0.0214194
0.028313
0.0261788
0.0321541
0.0303049
0.0354546
0.0338684
0.0382739
0.036922
0.040651
0.0395161
0.0426124
0.0416826
0.0441736
0.0434424
0.0453725
0.044813
0.0461468
0.0458297
0.0465604
0.0463434
0.0465764
0.0466405
-0.100781
-0.0681334
-0.0593678
-0.0779497
-0.100982
-0.115034
0.0484088
0.0464077
0.0482135
-0.21965
-0.160798
0.0412715
-0.14619
0.0408015
-0.243933
-0.267198
-0.310172
-0.316123
-0.280098
-0.190629
-0.215425
-0.157579
-0.174147
-0.125768
-0.140902
-0.0994624
-0.112077
-0.078102
-0.0885158
-0.058984
-0.0683287
-0.0436078
-0.0510476
-0.030484
-0.03675
-0.0195402
-0.0248104
-0.0100208
-0.014603
-0.00177567
-0.00574407
0.00535902
0.00192756
0.011527
0.0085367
0.0168749
0.0142944
0.0215126
0.0192831
0.0254977
0.0235826
0.0289097
0.0272725
0.0318067
0.0304204
0.0342335
0.0330772
0.0362314
0.035283
0.03782
0.0370847
0.0389621
0.0384054
0.0397764
0.039463
0.0399449
0.0399426
0.0398928
0.043066
0.0418671
0.0446793
-0.0430949
-0.0511536
-0.0285356
-0.0354501
-0.0166681
-0.0222873
-0.00623575
-0.0113244
0.00241171
-0.0017204
0.00987962
0.00627392
0.0163443
0.0132311
0.021939
0.0192414
0.0267925
0.0244522
0.0310041
0.0289726
0.0346666
0.0329002
0.0378305
0.0363081
0.0405423
0.0392405
0.0428369
0.0417402
0.0447364
0.0438352
0.046252
0.0455418
0.0473844
0.0468681
0.0480811
0.0477847
0.0484353
0.0483118
0.0484675
-0.0887222
-0.13185
-0.0577689
-0.0497681
0.0461315
0.0478868
-0.0666978
-0.253488
0.0385101
0.0380384
-0.300424
-0.180859
-0.203
-0.314793
-0.348212
-0.351023
-0.165934
-0.150971
-0.253864
-0.282927
-0.201655
-0.226306
-0.163544
-0.181608
-0.131604
-0.147065
-0.104373
-0.117361
-0.082066
-0.092584
-0.0632764
-0.0723058
-0.0474357
-0.0549841
-0.0338861
-0.0403879
-0.0223619
-0.0278858
-0.0125243
-0.0172475
-0.00405484
-0.00812948
0.00326278
-0.000258965
0.00957428
0.00653523
0.0150385
0.012407
0.0197578
0.0174875
0.0238172
0.0218663
0.0272892
0.0256236
0.0302335
0.0288249
0.0326977
0.0315237
0.0347229
0.0337624
0.0363473
0.0355891
0.03752
0.0369678
0.038364
0.0379949
0.0385748
0.0385704
0.0384984
0.0404253
0.0392803
0.0429561
0.0416395
0.044454
-0.0349267
-0.0422834
-0.0215455
-0.0279042
-0.0105096
-0.015817
-0.000857075
-0.00550616
0.00723303
0.00336297
0.014175
0.0108268
0.0201932
0.0172921
0.025416
0.022896
0.0299597
0.0277666
0.0339181
0.032007
0.0373649
0.0357017
0.0403518
0.0389132
0.0429181
0.0416854
0.0450924
0.0440529
0.0468916
0.0460382
0.0483237
0.0476531
0.0493881
0.0489031
0.050065
0.0497732
0.0503994
0.0502777
0.0503313
0.0504321
-0.393483
-0.383589
-0.18679
-0.338775
0.0497385
0.0501064
-0.0875402
-0.0766847
-0.115286
-0.0998127
-0.174132
-0.432909
-0.383315
-0.33049
-0.435905
-0.385951
-0.0397682
-0.0471595
-0.234183
-0.477372
-0.475185
-0.13369
0.051684
0.0492481
0.0511674
-0.467008
-0.294408
-0.368495
-0.314353
-0.345666
-0.260389
-0.28572
-0.210551
-0.234617
-0.169401
-0.188809
-0.136279
-0.151952
-0.108643
-0.121832
-0.0857226
-0.0965584
-0.0667231
-0.075804
-0.0505275
-0.0582619
-0.0366627
-0.0433113
-0.0248476
-0.030515
-0.0147601
-0.0196001
-0.00610369
-0.0102654
0.00136082
-0.00223153
0.0077961
0.00470185
0.013354
0.0106782
0.0181471
0.0158416
0.0222689
0.0202882
0.0257931
0.0241027
0.0287801
0.0273512
0.0312792
0.0300887
0.0333301
0.0323586
0.0349748
0.0342036
0.0361832
0.0356255
0.0370495
0.036665
0.0374
0.037311
0.0373797
0.037379
0.0399928
0.0373419
0.0388244
0.0426356
0.0412852
0.0457175
0.0441148
0.0474305
-0.0263519
-0.0329027
-0.0141284
-0.0199818
-0.00394889
-0.00883154
0.00478989
0.000590581
0.012214
0.00865265
0.0185963
0.0155178
0.0241467
0.0214676
0.0289847
0.0266477
0.0332126
0.0311694
0.0369115
0.0351238
0.040146
0.0385835
0.0429612
0.0416037
0.0453902
0.0442223
0.0474553
0.0464672
0.0491685
0.0483555
0.050532
0.0498942
0.0515349
0.05108
0.0521644
0.0518953
0.0524257
0.0523431
0.0523144
0.0524122
0.0520644
-0.0553696
-0.0735734
-0.0641457
-0.0978445
-0.0845162
-0.218416
-0.43751
-0.393981
-0.509797
-0.51663
0.0361893
0.0361779
-0.156653
-0.113475
0.0486251
0.0504772
-0.431979
-0.332309
-0.476968
-0.281652
-0.211155
-0.0361121
-0.0293776
-0.31967
-0.353047
-0.264444
-0.290955
-0.215924
-0.239193
-0.174079
-0.193894
-0.14013
-0.156137
-0.112201
-0.125496
-0.0889434
-0.0999899
-0.0695255
-0.0787871
-0.0530643
-0.0609355
-0.03902
-0.0457484
-0.027059
-0.0327993
-0.0168151
-0.0217337
-0.00801846
-0.0122467
-0.00043915
-0.00408573
0.00609754
0.00295361
0.0117398
0.0090241
0.0166046
0.0142649
0.0207869
0.0187773
0.0243632
0.0226478
0.0273954
0.0259448
0.0299345
0.0287246
0.0320195
0.031032
0.0336902
0.0329056
0.0349464
0.0343657
0.0358436
0.0354424
0.036315
0.0361477
0.0363465
0.0395704
0.0371229
0.0383254
0.0421708
0.0408449
0.0451787
0.0436214
0.0468513
-0.0171972
-0.0231297
-0.00634808
-0.0115796
0.00282772
-0.00157274
0.010672
0.0069002
0.0173981
0.0141634
0.0232057
0.0204039
0.0282696
0.0258228
0.0327037
0.0305594
0.0365974
0.0347134
0.0400212
0.0383644
0.043029
0.0415744
0.0456594
0.0443895
0.0479395
0.0468421
0.0498854
0.0489537
0.0515038
0.0507356
0.0527921
0.0521898
0.0537385
0.0533092
0.0543283
0.0540787
0.0545463
0.0544857
0.0543609
0.0545048
0.0537048
0.0541152
-0.517068
0.0361739
-0.131085
-0.181306
0.0524348
0.053154
-0.37122
-0.556524
-0.516947
-0.0927948
-0.0432596
-0.0509559
-0.0592968
-0.0690036
-0.0799353
-0.254445
-0.485602
-0.331202
-0.401544
-0.443929
-0.0186326
-0.0245128
0.0369443
0.0360226
-0.107665
-0.585069
-0.206881
0.0545148
0.0515792
0.0535975
-0.327439
-0.362252
-0.267902
-0.296248
-0.218483
-0.241811
-0.177096
-0.196732
-0.143002
-0.159152
-0.114871
-0.128244
-0.0914291
-0.102596
-0.0717506
-0.0811454
-0.0551248
-0.0630738
-0.0409829
-0.0477566
-0.0289293
-0.0347142
-0.0185937
-0.0235583
-0.0097067
-0.0139788
-0.0020477
-0.00573211
0.00456126
0.00138164
0.0102675
0.00752149
0.0151883
0.0128218
0.0194191
0.0173863
0.0230379
0.021302
0.0261084
0.0246393
0.0286822
0.0274554
0.0307999
0.0297965
0.0324983
0.0317002
0.0337924
0.0331929
0.0347162
0.0343019
0.0352265
0.0350316
0.0352412
0.0352936
0.0353104
0.035295
0.0391233
0.037957
0.0416442
0.0403612
0.0445261
0.043024
0.0478674
0.0461477
0.0496695
-0.00775778
-0.0129637
0.00169836
-0.00287314
0.00979392
0.00590823
0.0167303
0.0133918
0.0227188
0.0198332
0.0279238
0.0254098
0.0324865
0.0302789
0.0365063
0.0345595
0.0400588
0.0383373
0.0432025
0.0416789
0.0459819
0.0446358
0.0484282
0.0472454
0.0505619
0.0495335
0.0523933
0.0515154
0.0539235
0.0531966
0.0551444
0.0545737
0.0560387
0.0556339
0.056585
0.056357
0.0567561
0.0567196
0.0565177
0.0566907
0.0558193
0.0562353
0.0552446
-0.402558
-0.556333
-0.485853
-0.0307613
-0.037386
-0.0447116
-0.0528691
-0.0619248
-0.0724252
0.0351779
-0.495646
-0.569468
-0.084246
-0.0448041
-0.0368587
-0.151672
-0.592523
-0.59736
-0.595808
-0.249707
0.0566988
0.0557754
0.0505693
0.0525342
-0.407227
-0.451249
-0.331583
-0.367115
-0.269802
-0.299208
-0.219751
-0.243342
-0.17865
-0.198079
-0.144735
-0.160848
-0.11659
-0.129978
-0.0931098
-0.104301
-0.0733703
-0.0827993
-0.0566901
-0.0646662
-0.0425093
-0.0493027
-0.030408
-0.0362154
-0.0200287
-0.0250143
-0.0110982
-0.0153915
-0.0033976
-0.00710181
0.00325068
5.20353e-05
0.00899278
0.0062299
0.0139458
0.0115639
0.0182057
0.0161591
0.021851
0.0201025
0.0249459
0.023465
0.027543
0.0263049
0.029684
0.0286691
0.0314043
0.0305955
0.0327236
0.0321121
0.0336657
0.0332427
0.0342111
0.0339915
0.0343845
0.034336
0.0344695
0.0344464
0.0349105
0.0340818
0.0343497
0.0365961
0.0357496
0.0386555
0.0375879
0.041078
0.0398416
0.0438082
0.0423948
0.0469859
0.0453532
0.0487263
-0.0621626
-0.0532512
-0.0179665
-0.029859
-0.0236196
-0.00741286
-0.0125872
0.00188274
-0.00263662
0.00993849
0.00603865
0.0169138
0.0135586
0.0229326
0.0200321
0.0281688
0.0256411
0.0327563
0.0305374
0.0368061
0.0348438
0.040401
0.0386572
0.0436029
0.0420487
0.0464593
0.0450726
0.0490043
0.0477696
0.0512618
0.0501685
0.0532465
0.0522885
0.054962
0.0541386
0.0564042
0.0557185
0.05756
0.0570197
0.0584079
0.0580246
0.0589197
0.0587084
0.0590586
0.0590389
0.0587783
0.0589747
0.0580334
0.058462
0.0574397
-0.0955527
-0.123295
-0.603621
-0.070552
-0.610707
-0.592506
0.0347266
0.0335606
0.0546095
0.0494574
0.0513095
-0.172133
-0.598942
-0.580319
-0.617784
-0.619817
-0.50123
-0.537423
-0.40892
-0.455769
-0.331506
-0.367473
-0.269982
-0.299142
-0.219979
-0.243656
-0.178988
-0.198321
-0.145333
-0.161326
-0.117362
-0.130679
-0.0939944
-0.105136
-0.0743424
-0.0837321
-0.0577159
-0.0656707
-0.0435675
-0.0503475
-0.03148
-0.0372807
-0.0211082
-0.02609
-0.0121802
-0.016472
-0.00447729
-0.00818219
0.00217642
-0.00102445
0.00792528
0.00515972
0.0128861
0.0105009
0.0171544
0.0151041
0.0208088
0.0190562
0.0239136
0.0224282
0.0265216
0.0252782
0.0286753
0.0276541
0.0304096
0.0295939
0.0317467
0.0311264
0.0327092
0.0322749
0.0333016
0.0330521
0.0335625
0.0334694
0.0335934
0.0336153
0.0334327
0.0335335
0.0361737
0.0353523
0.0381325
0.0371143
0.0404602
0.039278
0.0430566
0.0417219
0.0460386
0.0444955
0.0476747
-0.0606444
-0.0406426
-0.0483819
-0.0272229
-0.0338268
-0.0147934
-0.0208096
-0.00481957
-0.00959147
0.00386434
-0.000392287
0.0115971
0.0078693
0.0183122
0.0150672
0.024153
0.0213382
0.0292396
0.0267844
0.0337083
0.0315468
0.037665
0.0357475
0.0411933
0.0394804
0.0443573
0.0428195
0.0472045
0.0458198
0.0497707
0.0485225
0.0520804
0.0509579
0.0541497
0.0531456
0.0559873
0.0550988
0.0575907
0.0568199
0.0589504
0.0583032
0.0600478
0.0595345
0.0608558
0.0604911
0.0613388
0.0611416
0.0614518
0.0614459
0.0611374
0.0613535
0.0603359
0.0608005
0.0589873
0.0597439
0.0330938
0.0533077
0.0568618
0.0580335
-0.083193
-0.613536
-0.590193
-0.571653
-0.643993
0.0314483
0.0554488
-0.561299
0.720311
0.190889
0.191754
-0.123154
0.656496
-0.588275
-0.630403
-0.642303
-0.613811
-0.551114
-0.405729
-0.450503
-0.328672
-0.36465
-0.26806
-0.296644
-0.218745
-0.24217
-0.178138
-0.197334
-0.144858
-0.160681
-0.117222
-0.130394
-0.094113
-0.105144
-0.0746637
-0.0839649
-0.0581897
-0.0660795
-0.0441558
-0.0508861
-0.032152
-0.0379154
-0.0218437
-0.026797
-0.0129641
-0.017234
-0.0052979
-0.00898593
0.0013284
-0.00185976
0.00705654
0.0043008
0.012002
0.00962409
0.0162595
0.0142144
0.0199069
0.0181576
0.023008
0.0215242
0.0256157
0.0243723
0.0277726
0.0267496
0.0295137
0.0286944
0.030864
0.0302368
0.0318474
0.0314013
0.0324787
0.0322071
0.0327796
0.0326693
0.0327966
0.0328296
0.0325918
0.0326966
0.0312596
0.0323079
0.0347445
0.037722
0.0352619
0.0357388
0.0360119
0.0361065
0.036171
0.036185
0.0361808
0.0361562
0.0361164
0.0360631
0.0359984
0.0359239
0.0358411
0.0357513
0.0356558
0.0355557
0.0354521
0.0353463
0.0352392
0.0351318
0.0350251
0.0349202
0.0348178
0.0347189
0.0346243
0.0345347
0.0344509
0.0343735
0.0343032
0.0342404
0.0341857
0.0341394
0.034102
0.0340735
0.0340543
0.0340444
0.0340438
0.0340525
0.0340703
0.0340969
0.034132
0.0341752
0.034226
0.0342837
0.0343478
0.0344174
0.0344917
0.0345698
0.0346508
0.0347337
0.0348173
0.0349006
0.0349824
0.0350616
0.035137
0.0352074
0.0352716
0.0353286
0.0353771
0.0354162
0.0354447
0.0354617
0.0354664
0.0354579
0.0354357
0.0353999
0.0353495
0.0352802
0.0351904
0.0351011
0.0350556
0.0349858
0.0345223
0.0336319
0.034839
0.0341514
0.0340554
0.0337658
0.0335529
0.0332998
0.0330526
0.0327918
0.0325271
0.0322557
0.0319809
0.0317034
0.0314251
0.0311476
0.0308727
0.0306022
0.030338
0.0300819
0.029836
0.0296021
0.0293823
0.0291785
0.0289927
0.028827
0.0286833
0.0285635
0.0284697
0.028404
0.0283685
0.0283653
0.0283958
0.0284608
0.0285664
0.0287321
0.0289829
0.0292886
0.0294719
0.0294113
0.0306899
0.0315596
0.0306955
0.0310088
0.0323795
0.0322752
0.0342972
0.034296
0.0356748
0.0350349
0.037587
0.0366034
0.0398038
0.0386785
0.0422724
0.0410058
0.0450693
0.0436244
0.0482318
0.0466057
0.051854
0.0499921
0.0577568
0.0560474
0.0538693
0.176071
0.0584116
0.060934
0.0635202
0.0663092
0.0693162
0.0726401
0.076276
0.0802741
0.0846329
0.0895118
0.0949991
0.101124
0.107932
0.115453
0.123469
0.131979
0.142025
0.156334
-0.590362
-0.711448
-0.61762
-0.65905
0.0592305
0.0604237
0.0613665
0.0621414
0.0627695
0.0632571
0.0636082
0.0638321
0.0639385
0.0639376
0.0638376
0.0636471
0.0633722
0.0630201
0.0625956
0.0621045
0.0615502
0.0609375
0.0602687
0.0595472
0.0587745
0.0579527
0.0570826
0.0561658
0.0552009
0.0541887
0.0531273
0.0520164
0.0508535
0.0496373
0.048364
0.0470313
0.0456345
0.04417
0.0426316
0.0410145
0.0393107
0.0375139
0.0356144
0.033604
0.0314704
0.029203
0.0267881
0.0242123
0.021454
0.0184778
0.0153623
0.0120397
0.00857675
0.00482087
0.000532553
-0.00414861
-0.00862647
-0.0143412
-0.0191235
-0.025401
-0.0376127
-0.0596764
-0.102426
-0.205758
0.060202
0.0628074
0.0655326
0.0684358
0.0715666
0.0749715
0.0786664
0.0826916
0.0870657
0.0917812
0.0970681
0.102829
0.109076
0.115707
0.122526
0.1294
0.137984
0.150337
0.164837
0.174245
0.177401
0.0349404
0.177692
-0.597326
0.157672
0.144539
0.133777
0.123552
0.114123
0.105683
0.09838
0.0919853
0.0863825
0.0814796
0.0771474
0.0732562
0.0697644
0.0665835
0.0637466
0.0610544
0.058855
0.0564962
0.0542879
0.0522295
0.0504022
0.0486479
0.0470515
0.0455399
0.0440946
0.0427402
0.041468
0.0402717
0.0391365
0.0380763
0.0370592
0.0361523
0.0352456
0.0346624
0.0342344
0.0333708
0.0319335
0.0312287
0.0311551
0.0305664
0.0305946
0.0300293
0.0294568
0.0292117
0.0290515
0.0288455
0.0286506
0.0285031
0.0284015
0.0283372
0.0283067
0.0283086
0.0283419
0.0284045
0.0284945
0.0286099
0.0287489
0.0289094
0.0290896
0.0292875
0.0295013
0.0297289
0.0299685
0.0302182
0.0304761
0.0307404
0.0310091
0.0312807
0.0315532
0.0318251
0.0320947
0.0323609
0.032621
0.032877
0.0331206
0.0333682
0.0335803
0.0338578
0.0339616
0.0344783
0.0336314
0.0346198
0.0349002
0.0348824
0.0349122
0.0349968
0.0350818
0.0351491
0.0352004
0.0352383
0.0352628
0.035274
0.0352723
0.0352584
0.0352333
0.0351978
0.0351529
0.0350998
0.0350394
0.034973
0.0349016
0.0348265
0.0347487
0.0346694
0.0345898
0.0345108
0.0344337
0.0343593
0.0342885
0.0342224
0.0341617
0.0341071
0.0340594
0.034019
0.0339866
0.0339625
0.0339471
0.0339407
0.0339433
0.0339551
0.033976
0.034006
0.0340448
0.0340923
0.0341481
0.0342119
0.034283
0.0343611
0.0344455
0.0345355
0.0346305
0.0347297
0.0348322
0.0349373
0.035044
0.0351514
0.0352586
0.0353645
0.035468
0.0355682
0.0356638
0.0357538
0.0358369
0.0359119
0.0359773
0.0360317
0.036073
0.0361
0.036107
0.0361036
0.0360475
0.036105
0.0355205
0.035149
0.176617
-0.367156
-0.371963
-0.414662
-0.384616
-0.424038
-0.415354
-0.419996
-0.359228
0.030934
0.0314941
0.0317449
0.0319463
0.0320822
0.032117
0.0320593
0.0319343
0.0317292
0.0314429
0.0310717
0.0306158
0.0300723
0.0294395
0.0287142
0.0278931
0.0269731
0.025951
0.024822
0.023582
0.0222256
0.0207477
0.0191415
0.0174007
0.0155174
0.0134837
0.0112902
0.00892722
0.00638338
0.00364692
0.000704136
-0.00245944
-0.00586058
-0.00951706
-0.013449
-0.0176785
-0.0222303
-0.0271319
-0.0324137
-0.0381103
-0.0442584
-0.0509026
-0.0580889
-0.0658697
-0.0743068
-0.0834688
-0.0934322
-0.104287
-0.116131
-0.12908
-0.143258
-0.158815
-0.175924
-0.194796
-0.215712
-0.238792
-0.264191
-0.292326
-0.323681
-0.358696
-0.398205
-0.439512
-0.580426
-0.622442
-0.627375
-0.628786
-0.645979
-0.655098
-0.659978
-0.658659
-0.673273
-0.680442
-0.664957
-0.679669
-0.69034
-0.654601
-0.674423
-0.697754
-0.67869
0.0305926
0.0308615
0.031016
0.0307601
0.0312078
0.0308233
0.0313706
0.0309268
0.0314788
0.0309708
0.0314886
0.0309419
0.0314145
0.0308466
0.0312731
0.0306882
0.0310546
0.0304568
0.0307572
0.0301499
0.0303778
0.0297647
0.0299158
0.0292993
0.0293685
0.0287511
0.0287337
0.0281176
0.0280086
0.0273959
0.0271897
0.0265827
0.026274
0.0256747
0.0252576
0.0246681
0.0241364
0.0235588
0.0229058
0.0223422
0.0215608
0.0210133
0.0200957
0.0195667
0.0185047
0.0179963
0.0167807
0.0162956
0.0149167
0.0144574
0.0129043
0.0124736
0.0107349
0.0103358
0.00839832
0.00803422
0.00588432
0.0055586
0.00318046
0.00289724
0.000274386
3.77078e-05
-0.00284901
-0.00303414
-0.0062049
-0.00633349
-0.00981167
-0.00987752
-0.0136877
-0.0136847
-0.0178556
-0.017776
-0.022338
-0.0221741
-0.0271628
-0.0269051
-0.032358
-0.0319968
-0.0379583
-0.0374816
-0.0439983
-0.043394
-0.050522
-0.0497749
-0.0575728
-0.0566679
-0.065204
-0.0641229
-0.0734729
-0.0721967
-0.0824478
-0.0809532
-0.0922007
-0.090464
-0.10282
-0.100812
-0.1144
-0.11209
-0.127054
-0.124406
-0.140904
-0.137879
-0.156097
-0.15265
-0.172791
-0.168872
-0.191187
-0.186724
-0.211514
-0.206409
-0.233973
-0.228154
-0.258755
-0.252208
-0.286206
-0.27886
-0.316818
-0.308525
-0.350666
-0.341656
-0.388051
-0.37891
-0.428807
-0.421205
-0.473674
-0.469331
-0.525024
-0.522786
-0.578027
-0.572634
-0.624326
-0.619034
-0.660284
-0.656756
-0.68478
-0.683287
-0.698352
-0.698718
-0.702432
-0.705098
-0.68609
-0.701931
-0.693324
-0.665696
-0.67636
-0.642903
-0.60338
-0.5469
0.0376004
0.0373963
0.0364889
0.0362497
0.0358293
0.0359235
0.035535
0.0354364
0.0349816
0.0347119
0.0345423
0.0341276
0.0337564
0.0334018
0.0330246
0.032623
0.032203
0.031767
0.0313149
0.0308474
0.0303663
0.0298735
0.0293703
0.0288588
0.028343
0.0278316
0.0273403
0.0268356
0.0262505
0.0257182
0.025076
0.0247904
0.0241321
0.0234322
0.022884
0.0223967
0.0219646
0.0212802
0.0207185
0.0202234
0.0198432
0.0192371
0.0186786
0.0181733
0.017693
0.0169218
0.0166703
0.0160822
0.0155086
0.0148055
0.0145391
0.0138186
0.0133762
0.013003
0.0123252
0.0117125
0.0111869
0.0107041
0.0100904
0.00958638
0.00886815
0.00825914
0.0078976
0.00705188
0.00660769
0.00611649
0.00537999
0.00484923
0.00442667
0.00393921
0.00364838
0.00289392
0.00283697
0.0308067
0.0293542
0.0293423
0.0292949
0.0290579
0.0288185
0.0286537
0.0285502
0.028487
0.0284573
0.0284611
0.028498
0.028566
0.028663
0.0287867
0.028935
0.0291058
0.0292972
0.0295069
0.0297329
0.0299732
0.0302257
0.0304884
0.0307593
0.0310364
0.0313178
0.0316017
0.0318862
0.0321697
0.0324503
0.0327271
0.0329971
0.0332624
0.0335152
0.0337692
0.0339933
0.0342521
0.0344034
0.034675
0.0345866
0.0348375
0.0351514
0.035289
0.0353611
0.0354455
0.0355322
0.0356024
0.0356535
0.0356887
0.0357098
0.035717
0.0357109
0.035692
0.0356614
0.0356201
0.0355691
0.0355095
0.0354425
0.0353691
0.0352906
0.0352082
0.0351231
0.0350364
0.0349494
0.034863
0.0347785
0.0346968
0.0346189
0.0345457
0.0344781
0.0344169
0.0343626
0.0343159
0.0342774
0.0342475
0.0342265
0.0342146
0.0342121
0.0342189
0.0342352
0.0342608
0.0342955
0.0343391
0.0343912
0.0344515
0.0345195
0.0345946
0.0346762
0.0347637
0.0348563
0.0349534
0.035054
0.0351573
0.0352624
0.0353684
0.0354741
0.0355788
0.0356812
0.0357802
0.0358747
0.0359635
0.0360453
0.0361188
0.0361823
0.0362344
0.0362727
0.0362952
0.0362977
0.0362758
0.0362198
0.036113
0.0360408
0.0357745
0.0365027
0.0356308
0.0364193
0.0367785
0.0367969
0.0364795
0.0361401
0.0359264
0.0356296
0.0353992
0.035274
0.0348514
0.03449
0.0342086
0.0338399
0.033455
0.0330621
0.0326527
0.0322262
0.0317839
0.0313265
0.030855
0.0303712
0.0298769
0.0293736
0.0288624
0.0283448
0.0278218
0.0272961
0.0267777
0.026257
0.0257393
0.0251276
0.0245863
0.024056
0.0234698
0.0229105
0.0223621
0.0218534
0.0212973
0.0206742
0.0201538
0.0198055
0.0193146
0.0186814
0.0180919
0.0176006
0.0170395
0.0165549
0.0160585
0.0154992
0.0149104
0.0144363
0.01394
0.0134211
0.012931
0.0123754
0.011778
0.0112498
0.0106694
0.0103124
0.00956378
0.00898013
0.00844423
0.00793974
0.00733098
0.00678459
0.00626214
0.00567704
0.0051211
0.00470718
0.00428337
0.00387147
0.00328459
0.0305251
0.0298758
0.0295559
0.02937
0.0291431
0.0289163
0.0287447
0.0286318
0.0285634
0.0285318
0.0285355
0.0285735
0.028644
0.0287446
0.0288729
0.0290266
0.0292036
0.0294017
0.0296187
0.0298524
0.0301007
0.0303615
0.0306325
0.0309119
0.0311975
0.0314873
0.0317795
0.0320722
0.0323637
0.032652
0.0329362
0.0332136
0.033485
0.0337449
0.0340005
0.0342335
0.0344709
0.0346528
0.0348629
0.0350023
0.0351451
0.0353591
0.0355242
0.035631
0.0357215
0.0358063
0.0358774
0.0359305
0.0359671
0.0359887
0.0359962
0.0359901
0.035971
0.0359399
0.0358978
0.0358458
0.0357849
0.0357162
0.0356411
0.0355605
0.0354759
0.0353883
0.0352989
0.035209
0.0351196
0.0350319
0.0349469
0.0348655
0.0347887
0.0347174
0.0346524
0.0345943
0.0345437
0.0345013
0.0344674
0.0344423
0.0344265
0.03442
0.0344229
0.0344353
0.0344571
0.034488
0.034528
0.0345765
0.0346334
0.034698
0.03477
0.0348486
0.0349333
0.0350233
0.0351179
0.0352162
0.0353175
0.0354207
0.0355251
0.0356294
0.0357329
0.0358343
0.0359325
0.0360264
0.0361148
0.0361964
0.0362698
0.0363335
0.036386
0.0364252
0.0364491
0.0364548
0.03644
0.0364028
0.0363454
0.0362792
0.036258
0.036268
0.0361986
0.0364255
0.0368306
0.0368415
0.0366219
0.0363121
0.0360447
0.0357895
0.0355108
0.0352882
0.0349466
0.0345772
0.0342893
0.0339396
0.0335509
0.033149
0.0327346
0.0323048
0.0318595
0.031399
0.030925
0.0304394
0.0299442
0.0294412
0.0289315
0.0284167
0.0278968
0.0273753
0.0268488
0.0263361
0.0257741
0.0252073
0.0245805
0.0240182
0.023487
0.0229469
0.0224059
0.0218617
0.0213532
0.0207515
0.0202441
0.0198507
0.0194302
0.0187605
0.0181334
0.01763
0.0171227
0.0166137
0.0161118
0.0155904
0.0150461
0.0145402
0.0140153
0.0135136
0.0130213
0.0124785
0.0119268
0.0114082
0.0108492
0.0104126
0.00962601
0.00918985
0.00868881
0.00814802
0.00758972
0.00704856
0.00652395
0.00601155
0.00551096
0.00509068
0.00464799
0.00420215
0.00386785
0.0041216
0.00444368
0.0048272
0.00499462
0.00499095
0.00400699
0.030524
0.0301022
0.0297003
0.0294147
0.0291787
0.0289667
0.0287967
0.028678
0.0286057
0.0285734
0.0285781
0.0286183
0.028692
0.0287968
0.0289303
0.0290901
0.0292739
0.0294795
0.0297045
0.0299467
0.0302038
0.0304736
0.0307539
0.0310426
0.0313376
0.0316368
0.0319383
0.0322401
0.0325404
0.0328375
0.0331299
0.0334155
0.033694
0.0339614
0.0342209
0.0344621
0.034697
0.0349019
0.0351102
0.0352791
0.0354301
0.0356094
0.0357754
0.0359014
0.0360016
0.0360885
0.0361617
0.0362182
0.0362579
0.036282
0.0362914
0.036287
0.0362694
0.0362395
0.0361983
0.0361468
0.0360863
0.0360177
0.0359423
0.0358613
0.0357758
0.0356872
0.0355965
0.035505
0.0354138
0.0353239
0.0352366
0.0351526
0.0350731
0.0349988
0.0349306
0.0348691
0.034815
0.0347688
0.0347311
0.0347021
0.0346822
0.0346715
0.0346703
0.0346784
0.0346959
0.0347226
0.0347582
0.0348026
0.0348553
0.0349159
0.0349839
0.0350587
0.0351397
0.0352262
0.0353175
0.0354127
0.0355111
0.0356117
0.0357136
0.0358158
0.0359174
0.0360171
0.036114
0.0362069
0.0362946
0.0363758
0.0364491
0.0365133
0.0365668
0.036608
0.0366354
0.0366476
0.0366438
0.0366254
0.0365947
0.0365648
0.036529
0.0365604
0.0365796
0.0366892
0.0368731
0.036874
0.0366827
0.0364253
0.0361803
0.0359404
0.0356804
0.0354113
0.0351043
0.0347698
0.0344407
0.0340866
0.0337022
0.0332996
0.0328832
0.0324517
0.0320047
0.0315427
0.0310672
0.0305803
0.030084
0.0295797
0.0290686
0.0285519
0.028029
0.0275011
0.0269634
0.0264307
0.0258841
0.0253226
0.0247074
0.0241561
0.0236271
0.0230889
0.0225483
0.0220039
0.0214812
0.020899
0.0204006
0.0199679
0.0195089
0.0188614
0.0182845
0.0177775
0.0172751
0.0167666
0.0162566
0.0157414
0.0152163
0.0147041
0.0141918
0.0136859
0.0131818
0.0126587
0.0121255
0.011603
0.0110673
0.010541
0.00997022
0.00945802
0.00894576
0.00841981
0.00788913
0.00736963
0.0068685
0.00638385
0.00591713
0.0054853
0.00507885
0.00472555
0.00448639
0.00453704
0.00474987
0.00489814
0.00486941
0.00480815
0.00463489
0.0305444
0.030139
0.0297418
0.0294257
0.0291788
0.0289732
0.0288075
0.0286881
0.028615
0.0285841
0.028592
0.0286364
0.0287153
0.0288263
0.028967
0.0291348
0.0293273
0.0295421
0.0297769
0.0300293
0.0302968
0.0305773
0.0308684
0.0311679
0.0314736
0.0317834
0.0320954
0.0324074
0.0327178
0.0330245
0.0333261
0.0336206
0.0339071
0.0341828
0.0344484
0.0346987
0.0349381
0.0351575
0.0353658
0.0355506
0.0357192
0.0358896
0.0360499
0.0361834
0.0362921
0.0363835
0.0364601
0.0365203
0.036564
0.0365916
0.0366043
0.0366029
0.036588
0.0365606
0.0365217
0.0364723
0.0364135
0.0363465
0.0362725
0.0361925
0.0361079
0.0360197
0.0359293
0.0358377
0.0357461
0.0356557
0.0355673
0.0354821
0.035401
0.0353249
0.0352545
0.0351906
0.0351338
0.0350847
0.0350437
0.0350113
0.0349877
0.0349732
0.0349679
0.0349718
0.034985
0.0350072
0.0350384
0.0350782
0.0351263
0.0351823
0.0352457
0.0353159
0.0353925
0.0354746
0.0355617
0.0356529
0.0357474
0.0358443
0.0359427
0.0360418
0.0361404
0.0362375
0.0363321
0.0364229
0.036509
0.036589
0.0366616
0.0367257
0.03678
0.0368231
0.0368542
0.0368724
0.0368779
0.0368724
0.0368572
0.0368429
0.0368254
0.0368492
0.0368728
0.0369166
0.036963
0.0369266
0.0367817
0.0365765
0.0363548
0.0361221
0.0358684
0.0355947
0.0352966
0.0349721
0.0346323
0.0342747
0.033894
0.0334936
0.0330769
0.0326444
0.0321964
0.0317336
0.0312576
0.03077
0.0302723
0.029766
0.0292521
0.0287316
0.0282048
0.0276727
0.0271341
0.0265921
0.0260405
0.0254778
0.0249083
0.0243564
0.0238158