/*--------------------------------*- C++ -*----------------------------------*\
  =========                 |
  \\      /  F ield         | OpenFOAM: The Open Source CFD Toolbox
   \\    /   O peration     | Website:  https://openfoam.org
    \\  /    A nd           | Version:  10
     \\/     M anipulation  |
\*---------------------------------------------------------------------------*/
FoamFile
{
    format      ascii;
    class       surfaceScalarField;
    location    "30.5";
    object      phi;
}
// * * * * * * * * * * * * * * * * * * * * * * * * * * * * * * * * * * * * * //

dimensions      [0 3 -1 0 0 0 0];

internalField   nonuniform List<scalar> 
81299
(
0.0341149
0.0238689
-0.0385043
-0.0194795
0.0488635
-0.0281308
0.0133822
-0.0511247
-0.0234418
0.0194988
0.0550677
-0.00806743
0.0275085
-0.0705657
0.0724236
-0.0756502
-0.00484081
0.0563425
-0.00736074
0.0802053
-0.00436401
-0.0425595
0.033611
0.0640161
0.0420637
-0.0571147
-0.0535885
-0.0288556
0.0089707
0.0734734
0.00328822
-0.0351757
-0.021701
0.0345551
-0.00640815
-0.0248587
-0.0165613
0.0222608
-0.0405719
-0.00163047
0.0511731
-0.0172118
0.00752125
-0.0308814
-0.0285186
-0.122239
0.0294189
0.10782
-0.0150008
-0.00842221
0.0178506
-0.0200274
0.0208306
0.0237382
-0.0199698
-0.024599
0.00258921
0.0505403
-0.0322989
-0.0368308
-0.0311458
-0.0108254
0.00325852
0.0146921
-0.00712528
-0.0161582
-0.0010753
-0.00196523
-0.036496
-0.0762412
0.0252623
0.0803978
0.0341726
-0.0463976
0.077291
0.0129701
-0.0649989
0.0725305
-0.00572433
0.0104848
-0.0580745
0.0319459
0.045777
-0.0196484
-0.0093013
-0.0882587
0.0394854
0.070863
-0.00763375
-0.0135852
-0.00868496
0.00224317
0.0132834
-0.00684164
0.00513862
-0.0059649
-0.00785868
0.00889227
0.000565044
-0.0043187
0.00245527
0.00868017
0.0222754
-0.0221919
-0.00788238
0.00779891
1.46406e-05
0.0240698
-0.00180904
0.00282633
-0.0140054
-0.0110129
-0.0186587
0.0200078
0.00147715
0.000636616
-0.019573
0.000277693
0.00248803
-0.0158568
-0.0178019
0.0092771
0.00137007
-0.0197203
-0.00122277
0.00418088
-0.0186676
-0.0162386
0.00261752
-0.0374399
-0.0362102
0.0237998
0.0498504
-0.032564
0.0196902
-0.0245661
0.0228069
-0.0452892
-0.0100818
-0.0379424
0.0245391
-0.0445183
0.027846
0.0409387
-0.0242664
0.023636
-0.0443546
0.0872692
0.0167017
-0.0523359
-0.051635
-0.00532827
0.0277327
0.0648648
-0.0615341
0.0552702
0.00093559
0.00964559
-0.0544779
0.0202599
-0.0406499
0.0634753
-0.0693333
0.089492
-0.0450648
0.0190481
0.0608365
0.0563882
-0.0463093
0.0378924
0.0417089
-0.033292
0.0296663
-0.0481296
0.0521632
0.0245196
-0.0470165
0.0174438
0.0726119
0.00076941
-0.000369534
-0.00116982
0.000769945
-0.000955663
0.00172507
-0.0013252
-0.000328233
0.000257027
0.00142441
-0.00135321
0.000205833
-0.000534066
0.000462861
7.69557e-05
0.000444029
0.00029119
-0.000812175
0.00021804
-0.000141085
0.000662069
0.0346377
0.00167902
-0.00656056
-0.0297562
0.0255543
-0.0202198
0.0293032
-0.0248162
-0.0121547
-0.0109826
0.00488588
-0.00871047
-0.00471167
0.00853626
-0.0306785
0.0116073
0.0190858
-0.0145578
-0.0112348
-0.0135739
0.0251812
0.00875862
-0.0256207
0.0322788
-0.0154167
-0.0300246
-0.00650594
0.00038256
-0.0033148
-0.0270924
3.33822e-05
-0.0252715
-0.020858
-0.0240392
0.0297794
0.0151178
-0.00801083
0.0195056
-0.0323527
0.00427755
-0.0363276
0.0699533
0.0423375
-0.0218692
-0.0904216
0.0155877
-0.122635
0.109756
-0.00270836
0.0962259
-0.0106848
0.00296606
-0.0656047
-0.0599964
0.0428357
-0.0778142
-0.0094025
0.0443809
0.0129879
0.0236114
-0.0142608
-0.0189029
0.00955226
-0.0208987
0.0422429
0.00226716
-0.00980041
-0.0176588
-0.00343243
-0.0206288
-0.0224737
0.000138357
0.117962
0.00174367
-0.04764
0.0455341
0.0716617
0.000766104
-0.00120549
0.000867011
-0.0013544
0.00169287
-0.000119725
0.00300324
-0.004089
-0.0030134
0.00311278
-1.68542e-05
-8.25195e-05
9.50705e-05
-0.00109797
-0.0020105
0.0285182
0.0235086
-0.0315094
-0.0205175
0.0228547
0.0135782
0.00187116
-0.0121998
-0.00324957
0.00303868
0.00481509
0.0057244
-0.00246662
0.00440791
-0.00242994
0.000488648
-0.00611837
0.00610702
-0.0146666
0.0374003
0.0228003
0.0133639
0.00673482
-0.00508474
-0.015014
-0.0143819
-0.00201035
0.0174756
-0.00959975
0.016194
0.0124697
0.0240917
-0.0268532
-0.00451201
0.0313652
-0.0114548
-0.0153983
-0.0264598
0.0374339
-0.022429
0.00506729
-0.0134993
-0.0180278
-0.000998846
-0.0039168
0.00491565
-0.00604208
-0.0069192
0.0119624
-0.0103311
0.00204958
-0.00211165
-0.0186055
-0.0155308
0.00134179
-0.0131631
-0.0127567
0.00221108
0.00652949
-0.00345953
-0.00306996
-0.00562517
0.0341056
0.00248768
0.00201127
0.0257955
-0.0379214
0.00386396
0.0333232
0.000734205
-0.0279857
0.00276223
-0.0126979
0.0280948
0.0150406
-0.0267267
-0.0164088
0.0235062
0.0284713
-0.0324719
0.0148474
0.0384382
0.0542425
0.0165662
-0.00638853
0.0402411
0.00662259
-0.0404751
0.0435818
-0.0413221
-0.00864826
0.00482529
-0.00506731
0.0438238
-0.0015289
0.0465953
0.0414761
-0.0311802
-0.0132216
0.00292576
0.0479407
0.000157932
0.000212023
-0.00242113
0.00170872
0.000500382
0.00122556
-0.00247241
0.00145887
0.00165026
0.00236748
-0.00279218
-0.00297157
0.00218963
0.00107313
-0.000830549
-0.000234522
0.000252896
-0.000763439
0.0164211
-0.0169561
0.0290897
0.0527311
0.0430822
-0.0047681
0.000264047
0.00126602
0.00158271
-0.000273605
0.000343074
0.000194578
-0.000489803
0.000199343
0.000245753
0.00136334
0.000867984
0.00123607
-0.00200898
-9.04601e-05
0.000468642
0.00021564
0.000929965
-0.00858661
0.0104565
-0.000726163
-0.00114373
-0.0144129
0.00769186
-0.00186556
-0.0153479
0.00154512
-0.000610151
0.000199109
0.000908607
0.017322
-0.00105378
-0.028468
0.0207456
0.00139148
-0.0261087
-0.00134674
0.0482011
-0.0448206
0.020327
0.048532
0.0018605
-0.039936
0.00629642
-0.00744577
-0.000197393
-0.000952201
0.00718516
6.34588e-05
0.0223901
-0.00662488
0.000570599
-0.0258992
-0.013699
0.018267
0.0213312
-0.00387602
0.029898
0.0250897
-0.0125154
-0.0424722
-0.0162072
0.00603187
0.0400733
0.0341401
-0.0252577
0.000315674
0.00117904
-0.00157724
0.00149883
-0.00228113
-0.00437096
0.00373047
-0.00178064
-0.00366055
-0.00318282
0.0642211
-0.00237014
-0.0488631
0.0261628
-0.00700647
0.0275999
0.00853214
-0.00225594
-0.0338761
-0.0177443
0.00369696
0.0416473
0.0236334
-0.0328455
-0.0188998
-0.0165259
0.0237107
0.0117151
0.00446341
0.00140032
-0.0247636
0.0160878
-0.0281503
0.0236623
-0.0434777
0.018931
-0.0400894
0.00305197
-0.000276074
0.00795905
-0.0107349
-0.00226541
0.00549108
-0.000173702
-0.00248909
0.000422798
-0.00601474
0.0505015
0.0155993
-0.0296505
-0.0364502
0.0137094
0.0785011
-0.0300796
0.000892537
0.0428964
-0.0269299
0.0124496
-0.00475066
-2.96734e-05
0.00121647
0.00356386
-0.00018831
-0.00468207
0.00216888
-0.00235719
0.00213921
-0.0306739
0.0356946
-0.00132375
0.00193803
-0.0348678
-0.004549
0.000733941
0.001263
-0.00936106
-0.0028845
-0.00131782
-0.0118011
0.0382369
-0.00519055
-0.0477129
0.0182865
0.0238855
-0.0039351
0.0526121
0.0354449
0.0381195
-0.0222018
-0.0513627
0.0296944
0.0357806
-0.0300301
-0.0251908
0.0262933
0.0285919
-0.020185
0.0331137
0.0590266
0.0237229
-0.0110877
-0.00685812
0.043683
0.0184734
-0.0185093
0.0211005
-0.0262824
0.0236552
-0.0204218
-0.00141016
0.00118058
-0.0202234
-0.00137895
-0.00331471
0.0419333
0.0139935
-0.0280505
0.0177626
0.0102879
0.0218292
0.0226455
-0.0181813
-0.00434883
-0.00253841
0.000922338
-0.0490898
0.0220284
-0.00610979
0.0331712
-0.0440204
0.000538759
-0.00560807
0.00571668
-0.000228612
-0.00477093
-0.000717131
0.0046569
-0.000294626
0.0388173
-0.0229004
0.0131728
0.00930955
-0.0100153
-0.00679124
0.00749696
-0.00631886
0.00368806
0.0119403
-0.00632699
0.0155155
-0.0155074
-0.00155514
-0.0147871
-0.0126506
0.00531952
0.00053987
0.0058596
-0.00586836
0.00326727
0.00399044
0.00140715
0.000508959
-0.00191611
0.00046933
0.000937823
0.0190684
0.0141229
-0.00890851
-0.0242828
0.018881
-0.0294631
-0.0224956
0.0144466
-0.0113592
0.00298655
0.0371287
-0.00892737
-0.0347073
-0.00638442
0.0334314
-0.0344008
0.00275638
0.02526
-0.0140926
-0.0292356
0.0172623
0.0349316
-0.0106597
-0.0415343
0.0273636
-0.0419882
0.031887
-0.0162717
0.003022
0.0406133
0.0432626
-0.0246027
0.00512408
-0.0227949
-0.00324035
0.0209112
-0.0207633
-0.00529283
-0.0215299
-0.0119693
-0.00223644
0.00163484
-0.0033966
-0.0102076
0.00302067
-0.00362227
-6.20948e-06
0.00191133
0.00250279
0.00287732
-0.00288353
0.00478865
0.00200869
0.000116042
0.00336634
-0.00115103
0.00315972
-0.00103499
-0.0152104
-0.00978768
0.016175
0.00882309
0.00407372
0.00480263
-0.0240867
0.0188163
-0.0245302
-0.00728261
-0.0217192
0.0102439
0.0187579
0.0165718
-0.033933
0.0409945
-0.0419132
0.00774914
0.0517275
-0.0175635
-0.03292
0.000710306
0.0324737
-0.00026406
0.00102073
0.0335895
-0.0330281
-0.00158219
0.000708131
0.0348584
-0.0345458
0.00113877
0.0348256
-0.0352563
0.00108663
0.0350578
-0.0350057
-4.60491e-05
0.0347821
-0.0336494
0.00215624
0.0339587
-0.036161
0.00456006
0.033053
-0.0354568
0.00451018
0.0342681
-0.0342183
0.00586599
0.0327722
-0.034128
0.00580935
0.033826
-0.0337694
0.00699027
0.0325353
-0.0337162
0.00693436
0.0334512
-0.0333952
0.00795727
0.032349
-0.0333719
0.00790381
0.0331367
-0.0330832
0.00878579
0.0322048
-0.0330868
0.00873605
0.0328761
-0.0328263
0.0106822
0.0309072
-0.0328534
0.0100407
0.0332628
-0.0326213
0.0101001
0.0326118
-0.0326711
0.0100602
0.032498
-0.0324582
0.0106185
0.0319717
-0.03253
0.0105847
0.0323736
-0.0323398
0.0110651
0.0319512
-0.0324316
0.0110374
0.032289
-0.0322614
0.0114529
0.0319571
-0.0323726
0.0114319
0.0322431
-0.0322221
0.0117944
0.0319904
-0.0323529
0.0117805
0.032236
-0.0322222
0.0121007
0.032053
-0.0323732
0.0120947
0.0322689
-0.0322629
0.0123823
0.0321481
-0.0324356
0.0123851
0.0323445
-0.0323473
0.0126463
0.0322814
-0.0325425
0.00935906
0.0357652
-0.032478
0.0108993
0.0311601
-0.0327004
0.0207782
0.0269144
-0.0367933
-0.0126578
0.00368784
0.0297482
-0.0378114
0.0290176
-0.0360433
-0.00217048
0.00307547
0.0351383
-0.00212682
-4.27168e-05
-0.0338738
-0.00342132
0.0359641
-0.0346696
0.0362517
-0.00473074
-0.0349423
0.00296411
-0.00362341
0.036911
0.0367577
-0.00431443
0.00173476
0.0361692
0.0350426
-0.0362815
-0.00134334
0.000758238
0.0354107
0.0352499
-0.000314629
0.000278786
0.0348179
0.0355014
-0.000386839
0.000531771
0.032908
0.0338506
-0.000451759
0.000373088
0.0328508
0.0343482
-0.000293576
0.000218642
0.0326103
0.0339056
-0.000144591
7.48378e-05
0.0324187
0.0335252
-5.89514e-06
-5.96341e-05
0.0322703
0.0332057
-0.000440206
-0.00137364
0.0327211
0.0323763
0.000836873
-0.000304577
0.0320795
0.032726
0.000363322
-0.000419967
0.0320284
0.0325568
0.000476142
-0.000530807
0.0320059
0.0324298
0.000585279
-0.000638607
0.0320105
0.0323435
0.00069184
-0.00074419
0.0320428
0.0322964
0.000796527
-0.000848198
0.0321047
0.0322884
0.000899931
-0.000951126
0.0321993
0.0323206
0.00100228
-0.00082915
0.0321082
0.0323957
-0.00285917
0.00154039
0.0324789
0.0320769
0.0321426
0.00324473
0.000829564
-0.0371023
-0.0346617
0.0378637
-0.00167501
0.00141029
-0.0349916
-0.0353913
-0.00105296
0.0028091
-0.0354055
-0.0346484
-0.00274097
0.00141615
-0.034132
-0.0360928
-0.000586568
0.000489203
-0.0340306
-0.0333887
-0.000394041
0.000305758
-0.033628
-0.0336742
-0.000219699
0.000139327
-0.0332915
-0.0333092
-6.08941e-05
-1.33149e-05
-0.0330126
-0.0330048
8.5503e-05
-0.000153561
-0.0327853
-0.0327542
0.000222568
-0.000287818
-0.0326059
-0.0325523
0.000350723
-0.000412376
-0.0324684
-0.0323953
0.000473109
-0.000532656
-0.032372
-0.0322791
0.000591193
-0.000648962
-0.0323149
-0.0322029
0.000705854
-0.000762341
-0.0322964
-0.0321652
0.000818069
-0.000873699
-0.0323176
-0.0321664
0.000928651
-0.000983618
-0.0323807
-0.0322079
0.00103737
-0.00108915
-0.0324907
-0.0322936
0.00113871
0.000191171
-0.0340303
-0.0324284
0.00287816
-0.00799528
-0.0326943
-0.0337239
-0.00457327
-0.037198
0.0381479
-0.0382886
-0.00492242
0.0386378
0.00557274
-0.00677304
-0.0370883
-0.036356
-0.0387359
-0.00824899
0.0420625
-0.0377606
-0.00774832
-0.0108522
-0.039385
-0.00336018
0.00204418
0.0310642
-0.00472869
0.0303861
-0.00135983
-0.0346212
0.00278006
-0.00414968
-0.0333
0.00227591
-0.0333696
-0.00457704
-0.034515
-0.00656914
0.00534192
-0.0358611
-0.0365199
-0.00780989
-0.0483681
-0.0044577
0.0421662
-0.00794368
-0.0444428
-0.00325767
0.0381667
-0.00191523
0.00242133
0.0381317
0.0368896
-0.00239649
0.00178773
0.0375198
0.0381727
-0.00177678
0.000317442
0.0365977
0.0367687
-5.84874e-05
0.000222345
0.0360053
0.0353015
-0.000326472
0.000750427
0.0349868
0.0351457
-0.000666319
0.000848895
0.0346353
0.0355856
-0.00121095
0.000405912
0.0337131
0.0334886
-0.000326876
0.000253863
0.0329238
0.0344272
-0.000185189
0.000117597
0.0326778
0.0339742
-5.31496e-05
-1.03902e-05
0.0324823
0.0335897
7.09901e-05
-0.000130671
0.03233
0.0332663
0.000417833
-0.000246036
0.0325493
0.0326634
0.000301002
-0.000355052
0.0321336
0.032781
0.000408425
-0.000461546
0.0320815
0.0326102
0.000513481
-0.000565109
0.0320575
0.0324817
0.000615871
-0.000666448
0.032061
0.0323943
0.000716408
-0.000766251
0.0320926
0.0323463
0.000815666
-0.000865014
0.032154
0.0323378
0.000914098
-0.000963094
0.0322483
0.0323697
0.00101167
-0.00128299
0.0323795
0.0324442
0.00116455
-0.00141144
0.0327258
0.0319584
0.0327754
-0.00330878
0.0319033
-0.0341749
-0.00450529
0.0373203
-0.0340693
0.036102
-0.00129845
-0.00668465
-0.0246224
-0.00220065
0.00121375
-0.0361154
-0.0345864
-0.00118383
0.00119841
-0.0350061
-0.0353614
-0.00193839
0.00173711
-0.0352043
-0.0353884
-0.000268301
0.000132015
-0.0339957
-0.034624
-0.000732974
0.000623145
-0.0339208
-0.0339896
-0.00052234
0.000425618
-0.0335312
-0.0335734
-0.000334972
0.000247312
-0.0332039
-0.0332185
-0.000164705
8.4453e-05
-0.0329323
-0.0329222
-8.36311e-06
-6.57796e-05
-0.0327112
-0.0326781
0.000136558
-0.000206639
-0.0325358
-0.0324815
0.000273666
-0.000339687
-0.0324024
-0.0323283
0.000403221
-0.000466319
-0.0323089
-0.0322156
0.000527347
-0.000588232
-0.032254
-0.0321418
0.000647388
-0.000706644
-0.0322372
-0.0321061
0.000764447
-0.000822552
-0.0322595
-0.0321086
0.000879443
-0.000936977
-0.0323231
-0.032151
0.000994301
-0.00105356
-0.0324315
-0.0322362
0.00111177
-0.00194935
-0.0331927
-0.0323702
0.00294936
-0.00185605
-0.0337876
-0.0327239
0.00284047
-0.0340306
-0.00298479
-0.0336368
-0.0355911
0.00332829
-0.00369729
-0.032931
0.00253509
-0.0325764
-0.0044619
-0.0337503
-0.00471141
0.00441693
-0.0355666
-0.0045104
-0.0367209
-0.0028107
0.00258342
-0.0338033
-0.0337006
0.0346934
-0.00397757
-0.00253955
-0.0339718
-0.0101534
-0.0461584
-0.0397311
-0.00740216
0.000138335
0.0326549
-0.0396648
-0.00787621
-0.0325988
-0.000182872
-0.00485762
0.0054225
0.0426977
-0.046969
0.000598119
0.0464121
-0.0447609
0.0060979
-0.00455661
0.0425112
0.00845751
0.0423133
-0.00440942
0.0031828
0.0393933
0.0416264
-0.00128995
0.00100824
0.0384134
0.0387824
-0.0013515
0.0020251
0.0368462
0.0378295
-0.00057434
0.00169038
0.0354816
0.0382194
0.000244362
0.000998911
0.0347621
0.0372363
0.000249768
0.00055336
0.0341837
0.0363944
-0.000473197
0.00140757
0.033701
0.0356657
0.000140613
0.000265691
0.0333068
0.0350367
-0.000200034
0.000134405
0.0329895
0.0344928
-7.54107e-05
1.51178e-05
0.0327381
0.0340332
4.01961e-05
-9.68563e-05
0.0325389
0.033645
0.00014956
-0.000203571
0.032384
0.033319
0.000589049
-0.00030679
0.032267
0.0330489
0.000356377
-0.00040687
0.0321841
0.0328306
0.000455086
-0.000504388
0.0321308
0.0326584
0.00055195
-0.000600374
0.0321059
0.0325293
0.000647395
-0.000695151
0.0321088
0.0324413
0.000741829
-0.000789142
0.0321399
0.032393
0.000835647
-0.000882692
0.0322011
0.0323843
0.000929158
-0.000976141
0.0322952
0.0324161
0.00102292
-0.00107009
0.0324267
0.032491
0.00148944
-0.00160411
0.0328405
0.0323778
0.00128168
-0.00240375
0.0321863
0.0324529
0.0031404
-0.00279415
0.0315571
0.0311227
0.030571
0.0314321
-0.0337935
-0.00432328
-0.00246505
-0.0036054
-0.00208027
0.00153606
-0.0355712
-0.0341316
-0.0017104
0.0019395
-0.0352352
-0.0355357
-0.00145293
0.000989734
-0.0347411
-0.0349018
-0.000711825
0.000953949
-0.0342378
-0.0343461
-0.000831005
0.00071151
-0.0338013
-0.0338667
-0.000601505
0.000496393
-0.0334261
-0.0334634
-0.000398447
0.000303798
-0.0331092
-0.0331206
-0.000215139
0.000128936
-0.0328461
-0.0328335
-4.77944e-05
-3.17236e-05
-0.0326317
-0.0325969
0.000107002
-0.000181169
-0.0324616
-0.0324062
0.000251572
-0.000321329
-0.0323326
-0.0322579
0.000387977
-0.000454493
-0.0322424
-0.0321489
0.000518317
-0.000582347
-0.0321899
-0.032078
0.000644042
-0.000706249
-0.032175
-0.0320444
0.000766422
-0.000827359
-0.0321985
-0.0320484
0.000886484
-0.000946504
-0.0322631
-0.0320919
0.00100453
-0.00106274
-0.0323733
-0.0321782
0.00111973
-0.0017762
-0.0325362
-0.0323132
0.00181712
-0.00227556
-0.0333292
-0.032683
-0.0333289
-0.0356361
-0.00578987
-0.0383854
0.00338605
-0.00345344
-0.0328636
0.00361932
-0.0328097
-0.0346817
0.0336048
-0.00290063
-0.0344414
-0.0027799
-0.00300469
-0.0341991
-0.0530047
-0.00411773
0.004656
0.00225634
0.0255614
-0.0302051
0.0201673
0.0146937
0.00341371
-0.0475765
-0.0106785
-0.0411665
-0.0420203
-0.0148166
-0.000697035
0.000792248
0.042416
-0.0394464
-0.00464661
0.0433959
0.0169306
-0.0479194
-0.0397551
-0.00928756
-0.00587757
-0.0396674
-0.000895821
0.00204007
0.0415535
0.0422097
-0.00303358
0.00237499
0.0400519
0.0406329
-0.00107313
0.00196573
0.0375208
0.0400843
-0.000368577
0.000770535
0.0364442
0.0394266
-0.000698078
0.000613029
0.0355667
0.0382919
-0.000545485
0.000464257
0.0348433
0.0373038
-0.00040535
0.000340788
0.0342482
0.0364533
-0.000287882
0.000225805
0.033763
0.0357186
-0.00017612
0.00011622
0.0333667
0.0350864
-6.79608e-05
1.13862e-05
0.033046
0.0345411
3.5253e-05
-8.84509e-05
0.0327913
0.0340799
0.000133217
-0.000184099
0.0325898
0.0336897
0.000227942
-0.000277063
0.0324331
0.0333628
0.000320682
-0.000368487
0.0323148
0.0330925
0.000411325
-0.000458112
0.0322309
0.0328734
0.000500929
-0.000546958
0.0321768
0.0327012
0.000589789
-0.000635313
0.0321514
0.0325721
0.000678274
-0.00072346
0.032154
0.0324843
0.000766622
-0.000811618
0.0321849
0.0324362
0.000855048
-0.00089999
0.032246
0.0324277
0.000943766
-0.000988841
0.0323403
0.0324599
0.00103316
-0.00107862
0.0324722
0.0325353
0.00135881
-0.00116995
0.0326516
0.032658
0.00155762
-0.0016508
0.0322794
0.0328406
0.00282319
-0.00228219
0.0310161
0.0322951
0.0305452
0.0317953
-0.0316142
-0.00036397
0.00132618
0.0318273
-0.0330539
-0.00309668
-0.00225194
-0.00305451
-0.00290287
0.00208241
-0.0347508
-0.0334152
-0.00188249
0.00169698
-0.0350497
-0.0353358
-0.00152398
0.00135816
-0.0345752
-0.0347288
-0.00120806
0.0010684
-0.0340982
-0.034196
-0.000939064
0.000813979
-0.0336762
-0.0337374
-0.00069834
0.000586379
-0.0333142
-0.0333478
-0.000483026
0.000382316
-0.0330085
-0.0330172
-0.000289019
0.000197465
-0.0327545
-0.0327403
-0.000112347
2.8175e-05
-0.0325475
-0.0325118
5.03746e-05
-0.000128686
-0.0323833
-0.0323277
0.000202092
-0.000275703
-0.032259
-0.0321844
0.000344923
-0.000414846
-0.0321725
-0.0320797
0.000480885
-0.000548036
-0.0321228
-0.032012
0.000611706
-0.00067683
-0.0321098
-0.0319807
0.000738814
-0.000802559
-0.0321348
-0.0319865
0.000863491
-0.000926548
-0.0322001
-0.032031
0.000987183
-0.00105033
-0.0323101
-0.0321176
0.00111136
-0.00117531
-0.0324723
-0.0322522
0.00141603
-0.00205027
-0.032695
-0.0324423
0.00202149
-0.00238064
-0.0334441
-0.0333577
0.0415669
0.0307814
-0.0554177
-0.00839611
0.0453164
-0.039343
-0.0119649
0.00451303
-0.0463345
0.00234635
-0.0341419
-0.00264586
-0.0340061
0.0038857
-0.00456066
-0.0348917
-0.0347551
0.00397457
-0.00466777
-0.0376922
-0.037307
-0.0409811
-0.00423942
0.0432537
-0.0208684
0.00296257
-0.0538673
0.00307922
-0.046
0.0055982
-0.00609937
0.0437549
0.00415378
0.0467608
-0.00211732
0.00252683
-0.0332192
-0.00111775
-0.0338632
-0.0529485
-0.0148728
0.0436893
-0.0644964
-6.13636e-05
-0.00553996
0.0431299
-0.00554881
-0.0387864
-0.00261111
0.00237337
-0.0339041
-0.0345287
0.0347464
-0.00286357
-0.00244201
-0.0346978
-0.0567523
-0.00478153
0.00236469
-0.0540589
-0.00956412
-0.0412239
-0.002145
0.00127109
0.0432899
0.0454047
-0.00155489
0.00182529
0.0412831
0.0419259
-0.000203791
0.00132554
0.0389301
0.0422544
-0.000608361
0.000528971
0.0376002
0.0408015
-0.000485946
0.00040883
0.0365214
0.0394696
-0.000376705
0.000308938
0.0356345
0.038324
-0.000278765
0.000216109
0.0349059
0.037334
-0.000186888
0.000128832
0.0343063
0.0364825
-0.000101333
4.75763e-05
0.0338168
0.0357461
-1.85466e-05
-3.36062e-05
0.0334188
0.0351155
6.37796e-05
-0.000113572
0.0330958
0.0345713
0.000144532
-0.000192751
0.0328396
0.0341108
0.000224803
-0.000271578
0.0326366
0.0337218
0.000304691
-0.000350411
0.0324788
0.0333959
0.000384609
-0.000429528
0.0323597
0.0331267
0.000464772
-0.000508917
0.032275
0.0329086
0.000545243
-0.000588981
0.0322206
0.0327375
0.000626305
-0.000669735
0.0321949
0.0326095
0.000707992
-0.000751252
0.0321972
0.0325225
0.000790382
-0.000833584
0.0322281
0.0324753
0.000873541
-0.000916798
0.0322893
0.0324677
0.000957556
-0.001001
0.0323838
0.0325007
0.00104263
-0.00108651
0.0325161
0.032577
0.0011294
-0.0011735
0.0326957
0.0327009
0.00121641
-0.00150311
0.0325661
0.0328835
0.00205671
-0.00318853
0.0321479
0.0328487
0.00663157
0.0390971
0.0339882
0.032517
-0.0321619
-0.000719092
-0.0313152
0.0407323
0.00527654
0.002528
0.0325682
-0.033637
-0.00202786
-0.00184557
0.0344706
-0.0348367
-0.00253451
-0.00222092
-0.00287026
-0.00283132
0.00225014
-0.0341696
-0.0337197
-0.00203803
0.00184064
-0.0348523
-0.0351237
-0.00165649
0.00148051
-0.0343993
-0.0345446
-0.00132239
0.00117045
-0.0339462
-0.0340379
-0.00103305
0.000898623
-0.0335418
-0.0336
-0.000776929
0.000657381
-0.0331946
-0.0332261
-0.000549181
0.00044194
-0.0329013
-0.032909
-0.000344687
0.000247402
-0.0326573
-0.032643
-0.000159016
6.97517e-05
-0.0324582
-0.0324234
1.1526e-05
-9.43419e-05
-0.0323005
-0.0322464
0.00016989
-0.000247593
-0.0321813
-0.0321089
0.000318653
-0.00039239
-0.0320988
-0.0320086
0.000460019
-0.000530767
-0.032052
-0.0319443
0.000595849
-0.00066443
-0.0320413
-0.0319156
0.000727715
-0.000794829
-0.0320677
-0.0319232
0.000856939
-0.000923111
-0.0321339
-0.0319689
0.000984442
-0.00105011
-0.0322445
-0.0320562
0.00111147
-0.00117751
-0.0324062
-0.0321908
0.00123893
-0.00130539
-0.0326285
-0.0323809
0.00202651
-0.00189575
-0.0335749
-0.0326366
-0.0335284
-0.00217221
-0.0331446
0.00318821
-0.00349538
-0.0345845
-0.0337391
0.00425453
-0.0052458
-0.0367009
-0.0365478
-0.0234915
-0.0414219
0.000104796
-0.00346373
0.0471138
0.00111685
0.0457487
-0.0402562
0.0407481
-0.052833
-0.000811525
0.00316404
0.0367446
0.00284897
0.0370718
-0.03853
-0.00799999
-0.00721226
-0.0368199
-0.0350264
0.0351321
-0.00296933
-0.0347241
-0.00274426
-0.0283512
-0.0379652
0.0168628
-0.0604982
-0.00671867
0.0463848
-0.0531606
-0.0157712
-0.0346786
0.0175021
-0.0284847
0.0456613
0.00165734
-0.00216271
-0.0333578
0.00212778
-0.0336896
-0.00160583
0.00129399
0.0436018
0.0449157
-0.000488429
0.000120454
0.041651
0.0427315
-0.000155422
0.00010589
0.0389796
0.0422194
-0.000143512
8.46948e-05
0.037659
0.0407638
-0.00010656
4.6296e-05
0.0365816
0.0394478
-6.29711e-05
5.45317e-06
0.035692
0.0383073
-1.75964e-05
-3.68211e-05
0.0349604
0.0373218
2.89822e-05
-8.21504e-05
0.0343594
0.0364747
7.92299e-05
-0.000130572
0.0338681
0.0357432
0.000132323
-0.000182449
0.033469
0.0351172
0.000189468
-0.000238321
0.0331447
0.0345783
0.000249494
-0.000297015
0.0328871
0.034122
0.000312296
-0.000358727
0.032683
0.0337371
0.000377727
-0.00042318
0.0325243
0.0334149
0.000445477
-0.000490095
0.0324043
0.033149
0.00051538
-0.000559236
0.0323189
0.0329339
0.000587156
-0.000630496
0.0322639
0.0327654
0.000660765
-0.000703685
0.0322378
0.0326397
0.000735996
-0.000778621
0.0322399
0.0325548
0.000812726
-0.000855178
0.0322706
0.0325094
0.000890868
-0.000933269
0.0323317
0.0325034
0.000970379
-0.00101286
0.0324262
0.0325378
0.0010513
-0.00109411
0.0325589
0.0326154
0.00113411
-0.00117717
0.0327388
0.0327409
0.00121793
-0.00162261
0.0329708
0.0329243
0.00194232
-0.00293886
0.0331445
0.0331684
0.0342134
0.0330725
-0.0331077
-0.000683865
-0.0345194
0.0373595
0.00243646
0.00108113
0.0333957
-0.0338417
-0.00158189
-0.00155761
0.0344653
-0.0349767
-0.00202308
-0.00159732
-0.00271483
-0.00224399
0.00241361
-0.0343392
-0.0338359
-0.0021816
0.00196955
-0.0346403
-0.0348917
-0.001777
0.00159125
-0.0342135
-0.0343521
-0.0014271
0.00126503
-0.0337841
-0.0338737
-0.00112295
0.000980343
-0.0333992
-0.0334579
-0.000855384
0.000728372
-0.0330676
-0.0331011
-0.000617414
0.000503364
-0.0327872
-0.0327981
-0.000403951
0.000300483
-0.0325538
-0.0325436
-0.00021047
0.000115568
-0.0323633
-0.0323334
-3.31491e-05
-5.48886e-05
-0.0322125
-0.032164
0.00013126
-0.000213853
-0.0320987
-0.0320325
0.000285446
-0.000363795
-0.0320204
-0.031937
0.000431728
-0.00050689
-0.0319769
-0.0318764
0.000572121
-0.000644997
-0.0319684
-0.0318504
0.000708351
-0.000779727
-0.0319963
-0.0318598
0.000841942
-0.000912545
-0.0320633
-0.0319067
0.000974329
-0.00104488
-0.0321739
-0.0319945
0.00110687
-0.00117793
-0.0323352
-0.0321289
0.00124052
-0.00131193
-0.0325571
-0.0323183
0.0013748
-0.00209956
-0.0328501
-0.0325737
0.00199378
-0.002206
-0.0336919
-0.0336342
-0.06242
0.0048054
0.00288779
0.0373207
-0.0381347
-0.00760756
-0.00136835
-0.0413102
0.00238382
-0.0344389
-0.00266906
-0.0345199
-0.0527123
0.00999098
-0.00955148
0.0396338
0.00657524
-0.00778543
-0.0356097
-0.00191247
-0.0333949
-0.00248846
-0.0331631
-0.00318407
-0.0338889
-0.0049829
-0.034749
-0.0351085
-0.05915
-0.077
-0.0233852
0.0199565
-0.00104054
9.75821e-05
0.0466917
-0.000668445
0.0467418
-0.00211975
0.00186873
-0.0334386
-0.00201523
-0.0334623
0.0367469
-0.0355827
0.00127229
0.0379952
0.00163947
-0.0353463
-0.0105738
0.0337467
-0.0091581
0.0155924
-0.0454454
-0.0023036
0.00243123
-0.0345665
-0.035029
0.0350682
-0.00270833
-0.0345922
-0.00274035
0.000701631
-0.000545107
0.0434452
0.0457149
0.000476431
-0.000909614
0.0420842
0.0426628
-0.000230722
-0.000412503
0.0396229
0.0410791
0.000295474
-0.000355132
0.0377187
0.0406468
0.000253989
-0.000317317
0.036645
0.0393466
0.000231793
-0.000296832
0.035757
0.0382218
0.000224829
-0.000289295
0.0350248
0.0372498
0.000229198
-0.000292776
0.034423
0.0364146
0.000244958
-0.000307003
0.0339302
0.0356954
0.000269863
-0.000329961
0.0335291
0.0350801
0.00030346
-0.000361647
0.0332029
0.0345518
0.00034424
-0.00040014
0.032943
0.0341046
0.000391059
-0.000444837
0.0327368
0.033728
0.000443227
-0.000494978
0.032576
0.0334133
0.000499952
-0.000549844
0.0324542
0.033154
0.000560595
-0.000608787
0.0323671
0.0329447
0.000624557
-0.000671331
0.0323107
0.0327812
0.000691473
-0.000737035
0.0322834
0.0326599
0.000760919
-0.000805484
0.0322844
0.0325787
0.000832576
-0.000876359
0.0323144
0.0325365
0.000906203
-0.000949413
0.0323749
0.0325332
0.000981632
-0.00102447
0.0324691
0.03257
0.0010588
-0.00110161
0.0326017
0.0326497
0.00113807
-0.00118084
0.0327815
0.0327773
0.0012187
-0.00126234
0.0330145
0.0329621
0.00130156
-0.00146447
0.0333074
0.0332077
0.00117255
0.000296738
0.0352753
0.0339215
-0.00236511
0.00262222
0.0370635
0.0350035
0.0344648
-0.0339773
-0.00117145
-3.67393e-05
0.0339649
-0.0339487
-0.00159811
-0.00156995
0.0339273
-0.0343017
-0.00164874
-0.00161867
0.0346988
-0.0351086
-0.00255957
-0.00231771
-0.0027846
-0.00262126
0.00255323
-0.0342712
-0.0345884
-0.00230582
0.00208271
-0.0344172
-0.0346442
-0.00188438
0.00168693
-0.0340161
-0.0341538
-0.00151977
0.00134644
-0.0336108
-0.0337066
-0.00120243
0.00104943
-0.0332462
-0.0333139
-0.000923553
0.00078726
-0.0329313
-0.0329753
-0.000676157
0.000553606
-0.0326647
-0.032687
-0.000454608
0.00034325
-0.0324424
-0.0324446
-0.000254112
0.000151811
-0.032261
-0.0322443
-7.06446e-05
-2.4392e-05
-0.0321174
-0.0320828
9.91841e-05
-0.000188466
-0.0320094
-0.0319577
0.00025825
-0.000343079
-0.0319356
-0.0318673
0.000409042
-0.000490544
-0.0318954
-0.0318104
0.000553705
-0.000632849
-0.0318892
-0.0317872
0.00069409
-0.000771717
-0.0319187
-0.0317986
0.000831792
-0.000908616
-0.0319865
-0.0318466
0.000968173
-0.00104487
-0.0320972
-0.0319349
0.00110457
-0.00118174
-0.032258
-0.0320692
0.00124206
-0.00132021
-0.0324789
-0.032258
0.00138126
-0.00146025
-0.0327712
-0.0325126
0.00180206
-0.00212631
-0.0333677
-0.0332924
-0.034215
0.0329111
-0.0705779
0.0462551
-0.00238636
-0.0330238
-0.00274432
-0.0328052
-0.00367456
-0.0329587
-0.00496251
-0.033461
-0.00603318
-0.0340379
-0.00802744
-0.0336154
0.00326646
0.037351
0.000216072
0.0399293
-0.00481244
0.0388382
-0.0332721
-0.0101016
0.00408448
-0.00637684
-0.0317455
0.00352914
-0.0329057
-0.0393588
-0.00955902
-0.00490244
0.0338367
0.0299636
-0.0223102
0.0279023
-0.00709675
-0.00292312
0.00241177
-0.0340552
-0.0023581
-0.0351572
-0.0352241
0.0354041
-0.00288836
-0.0352166
-0.00274784
0.00106312
-0.00135414
0.0469827
0.0480209
0.00125355
-0.00128751
0.0434792
0.0456143
0.00107715
-0.000662391
0.0416695
0.0424525
0.000417485
-0.000920649
0.040126
0.0408341
0.000682154
-0.000784906
0.0378214
0.0404083
0.000570187
-0.000676672
0.0367514
0.0391319
0.000487607
-0.000595711
0.0358651
0.0380327
0.000431835
-0.000538564
0.0351316
0.0370859
0.000397458
-0.000500772
0.0345263
0.0362735
0.000381516
-0.000480488
0.0340292
0.0355761
0.000381189
-0.000474876
0.0336227
0.0349808
0.00039446
-0.000482652
0.0332911
0.0344714
0.000418961
-0.000501242
0.0330253
0.0340409
0.000452639
-0.000529228
0.0328134
0.0336794
0.000494097
-0.000565306
0.0326473
0.0333782
0.000542059
-0.000608328
0.0325205
0.0331307
0.00059546
-0.000657242
0.0324288
0.0329318
0.000653356
-0.000711232
0.0323686
0.0327773
0.000715095
-0.000769592
0.0323379
0.0326637
0.000780059
-0.000831689
0.0323361
0.0325892
0.000847758
-0.000897009
0.0323636
0.0325526
0.000917818
-0.000965146
0.0324222
0.032554
0.000989967
-0.0010358
0.0325149
0.0325948
0.00106406
-0.00110891
0.0326465
0.032678
0.00114032
-0.00118435
0.0328256
0.0328087
0.00121799
-0.00126169
0.0330582
0.0329958
0.00129677
-0.00133768
0.0333483
0.0332427
0.000957749
0.00034561
0.033972
0.0335415
-0.000167658
0.00235033
0.0348809
0.0351814
0.0374024
-0.0361176
0.00198165
-0.00305237
0.00372487
0.0367299
0.0366489
0.0365371
-0.0349631
-0.00030169