/*--------------------------------*- C++ -*----------------------------------*\
  =========                 |
  \\      /  F ield         | OpenFOAM: The Open Source CFD Toolbox
   \\    /   O peration     | Website:  https://openfoam.org
    \\  /    A nd           | Version:  10
     \\/     M anipulation  |
\*---------------------------------------------------------------------------*/
FoamFile
{
    format      ascii;
    class       volScalarField;
    location    "25";
    object      p;
}
// * * * * * * * * * * * * * * * * * * * * * * * * * * * * * * * * * * * * * //

dimensions      [0 2 -2 0 0 0 0];

internalField   nonuniform List<scalar> 
28942
(
-2.43172
-2.48836
-3.68034
0.704806
0.754397
-0.0597301
-0.0512893
-0.059724
-0.609773
-0.540625
-6.72927
-6.66406
-6.53689
-6.55641
-0.03439
-0.0222373
2.62732
2.72534
-1.08982
-0.0298521
2.20108
2.18939
-7.04562
-7.05054
-7.22774
-6.56486
3.68584
4.00893
-1.94549
-1.90941
-0.150286
-0.146172
0.0240399
-0.042663
1.41462
1.69328
3.20166
3.8131
-0.0786683
2.95118
1.78188
1.74184
0.193091
0.217902
0.252678
-0.0447056
-0.0398306
-0.0305901
-0.0314058
-0.0296558
-0.0166346
-0.0647572
-0.0784734
-0.614245
-0.531824
-4.76896
-3.99529
-6.7024
-6.58268
-6.69264
-6.75854
-6.74098
-6.72491
-2.87115
-3.40872
-2.2155
-1.78512
1.84115
1.64195
-2.38418
-2.42421
-2.52251
1.59622
1.59813
1.52236
-0.888866
-0.884145
-0.465671
-3.50959
-4.1758
-3.17959
-4.31358
-2.38093
-2.40754
0.395707
0.864191
1.28512
1.16348
0.802627
0.885551
1.09039
1.34245
-7.18233
-7.10307
-6.43727
-6.38637
-6.48371
1.19177
1.36221
-2.54253
0.797673
0.813089
0.870683
0.803178
0.00181709
-0.012451
-0.0421568
1.37435
1.41403
1.41741
-6.66104
-6.6416
-2.69434
-2.64373
-2.54103
5.05169
4.69532
4.58783
4.88178
0.547874
1.33104
0.981109
-1.38143
-1.62028
5.23683
5.32263
5.0734
-1.47401
-1.11581
-0.0302192
-0.0240044
-0.0344458
1.44095
2.28991
1.46244
1.42756
1.63174
-0.336875
0.812791
2.63407
-6.93367
-6.84604
-1.11948
0.291871
0.301236
-3.37989
-3.43132
-3.07588
-6.77758
1.71638
1.60047
0.531415
-0.107827
-0.118447
-0.112122
-0.110099
2.14672
1.4081
-4.97486
-4.1434
-3.8248
-2.0525
-1.85828
-0.0788605
-6.15826
-6.01696
2.33591
2.43891
2.59505
2.504
2.20623
0.684792
0.665884
-0.330386
-0.36295
1.25412
1.19636
1.29569
1.34506
1.34317
1.41369
1.48364
1.67562
1.57188
1.48848
1.60384
1.79293
2.12092
2.18278
-1.57441
-0.879082
-2.68426
-0.0428348
-0.025225
-4.44696
-4.04483
-0.024798
-0.0183208
-0.0195437
-0.0288857
-1.62491
-1.71657
-1.75595
-6.61397
-6.70131
-6.71554
-6.88804
-6.89841
-6.84125
-7.16769
-7.42428
-7.22898
5.00162
4.83766
5.04644
0.0334867
0.0730396
0.0279366
2.27628
2.17557
2.24638
-1.76458
-1.67181
-1.89176
-1.61148
-1.58125
-1.57963
-1.52993
-1.60719
-1.54432
-1.54181
-1.58101
-1.64985
-1.75245
-1.8893
-1.66181
-1.58618
-2.05734
-2.06954
-2.26949
-1.73973
-1.65412
-2.29316
-1.84162
-1.96788
-1.74359
-1.85486
-2.51487
-2.55136
-2.11488
-1.98461
-2.79568
-2.84498
-2.27504
-2.12721
-3.10194
-3.16514
-2.4346
-2.27103
-3.41914
-3.49695
-2.58111
-2.40484
-3.72956
-3.82078
-2.70043
-2.51587
-4.01149
-4.11349
-2.78314
-2.59502
-4.24093
-4.35232
-2.81979
-2.63284
-4.40315
-4.51993
-2.80881
-2.62753
-4.48343
-4.60052
-2.74961
-2.57763
-4.46965
-4.58306
-2.64959
-2.48691
-4.36915
-4.4721
-2.50827
-2.36283
-4.25905
-4.16922
-4.17803
-4.26902
-4.18484
-4.26555
-3.81094
-4.03202
-3.2555
-3.54536
-2.67492
-2.95999
-2.18254
-2.41375
-1.8529
-2.00015
-1.65974
-1.73916
-1.5893
-1.60989
-1.63578
-1.5978
-1.79157
-1.7011
-2.049
-1.90765
-2.38392
-2.21124
-2.70641
-2.55338
-2.91423
-2.83022
-2.93525
-2.95012
-2.75707
-2.8698
-2.60793
-2.3422
-2.21351
-2.38095
-2.18832
-2.29921
-2.42775
-2.42452
-2.31568
-2.38933
-2.09304
-2.21395
-1.83733
-1.96384
-1.62539
-1.72282
-1.49208
-1.54804
-1.45376
-1.45993
-1.52021
-1.47391
-1.70382
-1.5957
-2.03245
-1.84862
-2.51954
-2.25436
-3.14389
-2.81898
-3.80844
-3.48016
-4.35235
-4.1064
-4.60783
-4.52408
-4.4765
-4.5917
-4.26582
-3.99337
-2.43294
-2.05579
-3.98553
-3.97605
-3.74277
-3.9099
-3.96191
-3.72038
-3.88011
-3.89022
-3.96397
-3.54484
-3.74573
-3.04017
-3.30371
-2.51307
-2.77156
-2.07519
-2.27814
-1.77938
-1.91027
-1.61578
-1.68309
-1.56975
-1.57791
-1.63743
-1.58953
-1.81376
-1.71256
-2.09219
-1.94079
-2.44074
-2.26237
-2.77188
-2.61482
-2.98432
-2.89891
-3.00138
-3.01954
-2.81267
-2.93061
-2.163
-2.24467
-2.47964
-2.65886
-1.99229
-1.87767
-1.90778
-2.05001
-2.15759
-2.0884
-2.19307
-2.19365
-2.09007
-2.15716
-1.89107
-1.9985
-1.66834
-1.7778
-1.48715
-1.57002
-1.37871
-1.42275
-1.35805
-1.35666
-1.43538
-1.38396
-1.6259
-1.51506
-1.95581
-1.77301
-2.4422
-2.17919
-3.06031
-2.73901
-3.71691
-3.39235
-4.2557
-4.01229
-4.50736
-4.42577
-4.37956
-4.49151
-3.89063
-4.17362
-3.49754
-3.63743
-3.55394
-3.65297
-2.28911
-1.75004
-3.44653
-3.24086
-3.2795
-3.19695
-3.58786
-2.48317
-2.29087
-1.76143
-1.62307
-2.97072
-2.97659
-2.43913
-2.72188
-3.37819
-3.18826
-3.59937
-3.52101
-3.53876
-3.60292
-3.23237
-3.40961
-2.78707
-3.02002
-2.32182
-2.54954
-1.94014
-2.11621
-1.68308
-1.79585
-1.5485
-1.60157
-1.52567
-1.52323
-1.61151
-1.55527
-1.80277
-1.69424
-2.09326
-1.9365
-2.44965
-2.26751
-2.78786
-2.6276
-3.00159
-2.91647
-3.01366
-3.0349
-2.81898
-2.93938
-2.66311
-1.98699
-2.09567
-2.05832
-1.88503
-1.78048
-1.57821
-1.68454
-1.91604
-1.86067
-1.943
-1.94574
-1.85009
-1.9097
-1.67684
-1.76977
-1.48724
-1.57999
-1.33599
-1.40459
-1.25104
-1.28425
-1.24599
-1.23793
-1.33098
-1.27658
-1.52317
-1.41209
-1.84739
-1.66757
-2.32007
-2.06537
-2.91631
-2.60673
-3.54897
-3.23604
-4.07063
-3.83465
-4.31294
-4.23513
-4.18676
-4.29589
-3.7292
-3.99392
-3.06476
-3.41048
-2.84717
-2.72411
-3.1495
-3.29856
-2.09582
-1.46876
-2.70682
-2.92713
-2.10545
-2.40854
-2.52577
-1.66398
-1.53721
-3.25757
-2.12963
-1.87777
-2.63801
-2.39739
-2.99719
-2.83294
-3.19454
-3.12297
-3.14903
-3.20333
-2.88905
-3.0402
-2.50591
-2.70666
-2.10577
-2.30129
-1.77933
-1.92977
-1.56328
-1.65708
-1.45828
-1.49745
-1.45677
-1.44482
-1.55632
-1.49402
-1.75719
-1.6441
-2.05479
-1.89493
-2.41495
-2.23128
-2.7529
-2.59341
-2.96319
-2.87986
-2.97166
-2.9947
-2.77525
-2.89597
-2.4403
-2.62014
-2.05638
-2.24814
-1.913
-1.87171
-1.90925
-1.8221
-1.88279
-1.62809
-1.73439
-1.36702
-1.50503
-1.39123
-1.2167
-1.30213
-1.55815
-1.47878
-1.66946
-1.62473
-1.68617
-1.69067
-1.60407
-1.65609
-1.45651
-1.53509
-1.29894
-1.37559
-1.17666
-1.23149
-1.11327
-1.13676
-1.12113
-1.10771
-1.21101
-1.15502
-1.39993
-1.29168
-1.71135
-1.53903
-2.15932
-1.91863
-2.72007
-2.42923
-3.31401
-3.02019
-3.80474
-3.58246
-4.03451
-3.96045
-3.91396
-4.01784
-3.4905
-3.73295
-2.88672
-3.2035
-2.26272
-2.56517
-2.13061
-1.99389
-2.87153
-2.96264
-2.41798
-2.60547
-1.98354
-1.80525
-1.27709
-1.1412
-1.88358
-2.24081
-1.52434
-1.50577
-1.89352
-1.76425
-1.43166
-2.94663
-1.849
-1.64255
-2.2838
-2.07189
-2.60349
-2.46098
-2.77663
-2.71201
-2.74446
-2.78726
-2.52818
-2.65478
-2.20567
-2.37461
-1.87026
-2.03387
-1.59859
-1.72349
-1.42338
-1.49846
-1.34675
-1.37307
-1.36356
-1.34362
-1.47389
-1.4069
-1.6815
-1.56538
-1.98171
-1.8213
-2.33797
-2.15704
-2.66829
-2.5127
-2.87229
-2.79173
-2.87799
-2.902
-2.68373
-2.80275
-2.35504
-2.53031
-2.16901
-1.74929
-1.70281
-1.74085
-1.67753
-1.7282
-1.51246
-1.60481
-1.4022
-1.19841
-1.05973
-1.12694
-1.33399
-1.26901
-1.42208
-1.38616
-1.43198
-1.43802
-1.36066
-1.40513
-1.23839
-1.30303
-1.11092
-1.17254
-1.01493
-1.05748
-0.970091
-0.985318
-0.988079
-0.970649
-1.07965
-1.02388
-1.26097
-1.15783
-1.55343
-1.39213
-1.9682
-1.74597
-2.48256
-2.21615
-3.0263
-2.75725
-3.47528
-3.2721
-3.68568
-3.61752
-3.57556
-3.6711
-3.1871
-3.40868
-2.6488
-2.92844
-2.0886
-2.36436
-1.61634
-1.83634
-1.57415
-1.43529
-2.59495
-2.65005
-1.63882
-0.996081
-2.11464
-1.5749
-1.70554
-2.32131
-1.99972
-1.37275
-1.3096
-1.45669
-1.69875
-1.42642
-1.29097
-2.65385
-1.3524
-1.21115
-1.28504
-1.592
-1.4452
-1.94551
-1.77045
-2.21495
-2.09453
-2.36105
-2.30608
-2.33934
-2.3722
-2.16331
-2.26706
-1.89858
-2.03708
-1.62512
-1.75824
-1.4061
-1.50635
-1.26952
-1.327
-1.21855
-1.23349
-1.25103
-1.22434
-1.37
-1.29936
-1.58085
-1.46385
-1.87704
-1.71971
-2.22203
-2.04733
-2.53929
-2.39009
-2.73335
-2.65711
-2.73694
-2.761
-2.54862
-2.66383
-2.23387
-2.40114
-1.87996
-2.05719
-1.55208
-1.71011
-1.55672
-1.4118
-1.4928
-1.61071
-1.59669
-1.55813
-1.59671
-1.41725
-1.49793
-1.2028
-1.31728
-0.945247
-1.07806
-0.897085
-0.809223
-0.84862
-1.00798
-0.952405
-1.11403
-1.06397
-1.18248
-1.15486
-1.18717
-1.19419
-1.12677
-1.1638
-1.02804
-1.07988
-0.927953
-0.976015
-0.855219
-0.886947
-0.826043
-0.834484
-0.851399
-0.831299
-0.941838
-0.887751
-1.11211
-1.01587
-1.38088
-1.23322
-1.75627
-1.55579
-2.21659
-1.97865
-2.70133
-2.46145
-3.10203
-2.92073
-3.28888
-3.22845
-3.19166
-3.27653
-2.84209
-3.04169
-2.36503
-2.61045
-1.87751
-2.11801
-1.45466
-1.65273
-1.15326
-1.2878
-1.18065
-1.04596
-2.29579
-1.15694
-1.8823
-1.44622
-1.31439
-0.906391
-0.781492
-2.36489
-2.07519
-1.58371
-1.79722
-1.54165
-1.30853
-1.09504
-0.963766
-2.36877
-1.04726
-1.12025
-0.965813
-0.994027
-1.17844
-1.11609
-1.35329
-1.24953
-1.62477
-1.48708
-1.84233
-1.74475
-1.96141
-1.91626
-1.94774
-1.97223
-1.80849
-1.89101
-1.59775
-1.70789
-1.38141
-1.48649
-1.21058
-1.28828
-1.10875
-1.15052
-1.08019
-1.08532
-1.12572
-1.09351
-1.25048
-1.17778
-1.45952
-1.3445
-1.74538
-1.59423
-2.07338
-1.90772
-2.37218
-2.23199
-2.55404
-2.48265
-2.55589
-2.57989
-2.37734
-2.48617
-2.08183
-2.23884
-1.75072
-1.91632
-1.59276
-1.43638
-1.29264
-1.37337
-1.49783
-1.4793
-1.46277
-1.49179
-1.34062
-1.41201
-1.1452
-1.25029
-1.02955
-0.739094
-0.674952
-0.702848
-0.824475
-0.781274
-0.905368
-0.866945
-0.956448
-0.936096
-0.957263
-0.965649
-0.907687
-0.937536
-0.830447
-0.870725
-0.754211
-0.790564
-0.701174
-0.723834
-0.684639
-0.68769
-0.714874
-0.693336
-0.801833
-0.750594
-0.958614
-0.870519
-1.20082
-1.0683
-1.53339
-1.35645
-1.93571
-1.7283
-2.35657
-2.14844
-2.70473
-2.54705
-2.86652
-2.81472
-2.78142
-2.85512
-2.47761
-2.65152
-2.05931
-2.27458
-1.63964
-1.84536
-1.27715
-1.44788
-1.0096
-1.13173
-0.830646
-0.909882
-1.37059
-1.25099
-0.900196
-0.769873
-2.03458
-1.20082
-0.65508
-0.960893
-2.11413
-1.10133
-1.72297
-1.86641
-1.4979
-1.63527
-1.4214
-1.22033
-1.03074
-0.852789
-0.720646
-2.11046
-0.809631
-0.970001
-0.830527
-0.81198
-0.875883
-0.832808
-0.988384
-0.930558
-1.12811
-1.05158
-1.32836
-1.22478
-1.49803
-1.42173
-1.5914
-1.55576
-1.58298
-1.60094
-1.47621
-1.53972
-1.31381
-1.39864
-1.14795
-1.22833
-1.0192
-1.07727
-0.947189
-0.975584
-0.937319
-0.934359
-0.992757
-0.95657
-1.11959
-1.04687
-1.32211
-1.21146
-1.59292
-1.45027
-1.89917
-1.74503
-2.17521
-2.04599
-2.34324
-2.27694
-2.34348
-2.36815
-2.17803
-2.27833
-1.90644
-2.05072
-1.60369
-1.75477
-1.3236
-1.45818
-1.09709
-1.20305
-1.19828
-1.00783
-1.1072
-1.34263
-1.27773
-1.41114
-1.38798
-1.38905
-1.41132
-1.28161
-1.3453
-1.10449
-1.20026
-0.883396
-0.997494
-0.644416
-0.764519
-0.543015
-0.525112
-0.53065
-0.589966
-0.563269
-0.651436
-0.619501
-0.711615
-0.683327
-0.746946
-0.733713
-0.744949
-0.748231
-0.707169
-0.730135
-0.648736
-0.679019
-0.592698
-0.61918
-0.555786
-0.571118
-0.548992
-0.548016
-0.581975
-0.559973
-0.663708
-0.616168
-0.805431
-0.726254
-1.01974
-0.902991
-1.30864
-1.1556
-1.65231
-1.47575
-2.0084
-1.83251
-2.30294
-2.16934
-2.4401
-2.39658
-2.3654
-2.42885
-2.1087
-2.25578
-1.7508
-1.93608
-1.3907
-1.56597
-1.0872
-1.22991
-0.858364
-0.963635
-0.698138
-0.77059
-0.591931
-0.639644
-1.33108
-1.22861
-0.683689
-0.553839
-1.84181
-1.90512
-0.856653
-0.990331
-1.10315
-1.61239
-1.70004
-0.985297
-0.901951
-0.642955
-0.52849
-1.42901
-1.5087
-1.32905
-1.15438
-0.983977
-0.818133
-0.892645
-0.751346
-0.796682
-0.659555
-0.525936
-0.941446
-1.90416
-0.694163
-0.717331
-0.676614
-0.680535
-0.716368
-0.687551
-0.804885
-0.757663
-0.915757
-0.856737
-1.0607
-0.985354
-1.1888
-1.13087
-1.25919
-1.23225
-1.25418
-1.267
-1.17494
-1.22223
-1.05368
-1.11701
-0.930398
-0.989989
-0.83674
-0.878514
-0.789164
-0.806675
-0.794012
-0.78479
-0.855998
-0.817509
-0.981378
-0.910421
-1.17394
-1.06933
-1.42621
-1.29388
-1.70722
-1.56628
-1.95772
-1.84071
-2.10923
-2.04925
-2.10932
-2.13535
-1.95975
-2.05005
-1.71578
-1.8453
-1.44393
-1.57969
-1.1914
-1.31346
-1.08186
-1.12681
-0.935798
-1.03555
-1.2732
-1.20703
-1.3475
-1.32089
-1.33509
-1.3521
-1.24083
-1.29745
-1.08004
-1.16742
-0.873673
-0.9809
-0.759824
-0.418176
-0.411152
-0.411185
-0.44986
-0.432187
-0.493291
-0.470768
-0.5357
-0.515804
-0.559807
-0.551016
-0.556371
-0.56097
-0.527458
-0.544713
-0.484789
-0.506725
-0.445239
-0.463745
-0.421009
-0.430626
-0.421421
-0.417573
-0.455334
-0.43371
-0.530592
-0.487301
-0.656654
-0.586602
-0.843331
-0.742084
-1.09003
-0.959975
-1.37749
-1.23051
-1.671
-1.52635
-1.91305
-1.80318
-2.02643
-1.99039
-1.96308
-2.01665
-1.75065
-1.8721
-1.45313
-1.60771
-1.14802
-1.29666
-0.894557
-1.01324
-0.703255
-0.791715
-0.563691
-0.627755
-0.463593
-0.509143
-0.39774
-0.427828
-1.02507
-0.506282
-0.644122
-0.49458
-0.358009
-0.374631
-1.31126
-1.21885
-1.70481
-1.74168
-0.833903
-0.418364
-1.1184
-1.52654
-1.57471
-1.38503
-1.415
-1.26189
-1.10905
-0.95349
-0.797548
-0.858203
-0.713189
-0.78605
-0.230889
-0.218774
-0.350802
-0.942103
-1.00617
-1.07635
-0.641554
-0.492066
-1.74965
-0.617468
-0.65826
-0.563667
-0.586454
-0.543884
-0.549708
-0.571
-0.550802
-0.636369
-0.600629
-0.720713
-0.67632
-0.82403
-0.770609
-0.917466
-0.874892
-0.96822
-0.94905
-0.965571
-0.974408
-0.908638
-0.942749
-0.820766
-0.866674
-0.731881
-0.774706
-0.666332
-0.695095
-0.63804
-0.647014
-0.653901
-0.640136
-0.719348
-0.680068
-0.840496
-0.772638
-1.02056
-0.923272
-1.25181
-1.13102
-1.50549
-1.37866
-1.72885
-1.62485
-1.85895
-1.80914
-1.86001
-1.87122
-1.73147
-1.81038
-1.5175
-1.63116
-1.27826
-1.39788
-1.05523
-1.16305
-0.869438
-0.956574
-0.729486
-0.792744
-0.883799
-0.679712
-0.781427
-1.07649
-0.983197
-1.22574
-1.15854
-1.30401
-1.27489
-1.30027
-1.31235
-1.21843
-1.26854
-1.07088
-1.1517
-0.875422
-0.97801
-0.652856
-0.765725
-0.432379
-0.541566
-0.30426
-0.329512
-0.313994
-0.30363
-0.300643
-0.321897
-0.310753
-0.350632
-0.335569
-0.378962
-0.365675
-0.394515
-0.389009
-0.390605
-0.394898
-0.369169
-0.381691
-0.339319
-0.354519
-0.312686
-0.324997
-0.298041
-0.303393
-0.303466
-0.297724
-0.336948
-0.316292
-0.405048
-0.366265
-0.51553
-0.454452
-0.675835
-0.589274
-0.883431
-0.774557
-1.11974
-0.99964
-1.35607
-1.24007
-1.54908
-1.46159
-1.63921
-1.61053
-1.58827
-1.63181
-1.41534
-1.51383
-1.17446
-1.29967
-0.92289
-1.04649
-0.710408
-0.809919
-0.550179
-0.624332
-0.43025
-0.486094
-0.33854
-0.381109
-0.272054
-0.302415
-0.248569
-1.31592
-1.22717
-0.348325
-0.211746
-1.60398
-1.62273
-1.14851
-1.4654
-1.48569
-0.625964
-0.578858
-0.455935
-0.351136
-1.37309
-1.3513
-1.21828
-1.08219
-0.940278
-0.792606
-0.877573
-0.715433
-0.810608
-0.988583
-1.04737
-1.09165
-1.14427
-0.652509
-0.503684
-0.212096
-0.356754
-1.63843
-0.571644
-0.634249
-0.490976
-0.526083
-0.444703
-0.464414
-0.425858
-0.432261
-0.435223
-0.426237
-0.478769
-0.453295
-0.54237
-0.50898
-0.616367
-0.578568
-0.683057
-0.652487
-0.718185
-0.705545
-0.717581
-0.723506
-0.67781
-0.701711
-0.615985
-0.648295
-0.553936
-0.583682
-0.510285
-0.528924
-0.496814
-0.499286
-0.520398
-0.503637
-0.586665
-0.547845
-0.7014
-0.637681
-0.86706
-0.778034
-1.07581
-0.967215
-1.3014
-1.18896
-1.49763
-1.40659
-1.61128
-1.56774
-1.61249
-1.62414
-1.50252
-1.57007
-1.31873
-1.41644
-1.11221
-1.21567
-0.917766
-1.0121
-0.752857
-0.831011
-0.684233
-0.849141
-0.642101
-0.746047
-1.04482
-0.94976
-1.19665
-1.12838
-1.27924
-1.24734
-1.28477
-1.29171
-1.21436
-1.25872
-1.07691
-1.15298
-0.890454
-0.988687
-0.674129
-0.784133
-0.564049
-0.205611
-0.233062
-0.216456
-0.199097
-0.200233
-0.207025
-0.2015
-0.224011
-0.214846
-0.241568
-0.233316
-0.25072
-0.247644
-0.246894
-0.250357
-0.231845
-0.240459
-0.212056
-0.222031
-0.195159
-0.202846
-0.187471
-0.189761
-0.196171
-0.189304
-0.228189
-0.208934
-0.288836
-0.254603
-0.384432
-0.331838
-0.520474
-0.447329
-0.693085
-0.603059
-0.884444
-0.787885
-1.0709
-0.979862
-1.22099
-1.15315
-1.28982
-1.26819
-1.24979
-1.28389
-1.11144
-1.19041
-0.919329
-1.01902
-0.71809
-0.817575
-0.541603
-0.625091
-0.405292
-0.468578
-0.301565
-0.350202
-0.219084
-0.258051
-0.153811
-0.184218
-0.110828
-0.128905
-0.0870003
-0.0967999
-0.218205
-0.08414
-0.0828728
-1.34517
-1.25651
-1.53217
-1.54003
-0.542291
-0.253575
-1.19819
-1.43268
-1.42847
-1.38792
-1.31384
-1.19683
-1.07412
-0.942451
-0.801017
-0.918909
-0.726105
-0.828696
0.0329787
0.0287081
-0.0904531
-1.04979
-1.11738
-1.17161
-1.20288
-1.23571
-0.675919
-0.523929
-0.373595
-0.23087
-1.56037
-0.561483
-0.638282
-0.443651
-0.494777
-0.37456
-0.405494
-0.331924
-0.350178
-0.312296
-0.319402
-0.315795
-0.310899
-0.343548
-0.326961
-0.387387
-0.364156
-0.438228
-0.412405
-0.484131
-0.462928
-0.510875
-0.500213
-0.508023
-0.512501
-0.480836
-0.49714
-0.438736
-0.460713
-0.397177
-0.416926
-0.370241
-0.381172
-0.36772
-0.365482
-0.396101
-0.377711
-0.460992
-0.423643
-0.567647
-0.508853
-0.717747
-0.637475
-0.903512
-0.807228
-1.10139
-1.00308
-1.27174
-1.19291
-1.37078
-1.33245
-1.37249
-1.38347
-1.28008
-1.33672
-1.12557
-1.2078
-0.950551
-1.03851
-0.783138
-0.864783
-0.63933
-0.707568
-0.525588
-0.57871
-0.447475
-0.481574
-0.618882
-0.42123
-0.516638
-0.830399
-0.724542
-1.02978
-0.933725
-1.18395
-1.11422
-1.27318
-1.23731
-1.28899
-1.2906
-1.2286
-1.26816
-1.09863
-1.17137
-0.917908
-1.01328
-0.70664
-0.814725
-0.48592
-0.595618
-0.280545
-0.380182
-0.144004
-0.18858
-0.163963
-0.116447
-0.128168
-0.105431
-0.109557
-0.105403
-0.104047
-0.113383
-0.108723
-0.122896
-0.118373
-0.127416
-0.12608
-0.124048
-0.126573
-0.114283
-0.119767
-0.102079
-0.108165
-0.0921773
-0.0965844
-0.0892934
-0.0894893
-0.0999
-0.0925046
-0.129756
-0.11217
-0.182986
-0.15318
-0.264732
-0.219956
-0.379073
-0.317825
-0.521544
-0.447621
-0.675034
-0.598273
-0.819299
-0.749438
-0.93324
-0.881838
-0.984283
-0.96875
-0.952209
-0.978788
-0.844476
-0.906356
-0.692312
-0.771345
-0.533445
-0.611949
-0.390083
-0.458902
-0.273375
-0.32819
-0.181799
-0.224955
-0.107393
-0.142863
-0.045893
-0.0749617
-0.000754918
-0.0208798
0.0266193
0.0152343
0.0321915
-1.40019
-1.30658
-0.100251
0.0230799
-1.48733
-1.48759
-1.26803
-1.42541
-1.39827
-0.356698
-0.330993
-0.314877
-0.22056
-1.43146
-1.30051
-1.19692
-1.0847
-0.960363
-0.823145
-0.950976
-0.725091
-0.829024
-1.08974
-1.20031
-1.2673
-1.322
-1.34176
-1.35459
-0.709922
-0.553198
-0.396227
-0.248395
0.0165606
-0.113166
-1.51042
-0.553549
-0.633533
-0.424717
-0.485653
-0.327733
-0.371303
-0.268811
-0.294673
-0.231563
-0.248001
-0.210456
-0.219127
-0.205668
-0.205746
-0.220606
-0.210718
-0.250427
-0.234296
-0.285518
-0.26782
-0.316655
-0.302278
-0.334253
-0.32748
-0.3327
-0.33565
-0.314817
-0.325525
-0.287404
-0.301661
-0.261245
-0.273473
-0.246749
-0.251986
-0.251864
-0.246456
-0.282626
-0.263707
-0.344462
-0.309345
-0.441942
-0.388559
-0.576046
-0.504645
-0.739196
-0.654934
-0.910649
-0.825739
-1.05705
-0.989364
-1.14244
-1.10917
-1.14552
-1.15435
-1.06996
-1.11629
-0.942913
-1.01066
-0.79704
-0.870672
-0.6546
-0.724417
-0.529813
-0.589391
-0.42916
-0.476602
-0.389219
-0.608916
-0.403384
-0.504124
-0.826642
-0.717244
-1.02897
-0.931717
-1.18776
-1.11508
-1.28663
-1.24545
-1.31333
-1.30963
-1.26143
-1.29713
-1.13664
-1.20726
-0.958086
-1.05255
-0.748011
-0.855741
-0.525501
-0.636732
-0.41753
-0.0640105
-0.106733
-0.0828138
-0.0371073
-0.0488523
-0.0221026
-0.0283078
-0.0166219
-0.0182258
-0.0180562
-0.0166914
-0.0217707
-0.0199186
-0.0230689
-0.0229321
-0.020376
-0.0219191
-0.0147719
-0.0178779
-0.00804078
-0.0113708
-0.00287291
-0.00507993
-0.00316512
-0.00199087
-0.0146764
-0.00718361
-0.0419338
-0.026155
-0.0880704
-0.062423
-0.157217
-0.119506
-0.252367
-0.201568
-0.369217
-0.308827
-0.492071
-0.431163
-0.60262
-0.549764
-0.686732
-0.649008
-0.722771
-0.71254
-0.697456
-0.718286
-0.614736
-0.662249
-0.495911
-0.557981
-0.370022
-0.432271
-0.255011
-0.31073
-0.156012
-0.203341
-0.0739215
-0.113
-0.00554315
-0.0382637
0.0517595
0.0245142
0.0965042
0.0758681
0.126278
0.11354
0.135877
0.133949
0.129515
0.133499
0.00850113
0.117915
0.124215
-1.48196
-1.38005
-1.46828
-1.46144
-0.311983
-0.133518
-1.36479
-1.44636
-1.39246
-1.5026
-1.31058
-1.21842
-1.11436
-0.995087
-0.859195
-0.939155
-0.678702
-0.761535
0.209687
0.20437
0.112121
-1.05568
-1.23786
-1.36586
-1.44588
-1.49888
-1.50787
-1.50653
-0.754237
-0.589493
-0.424694
-0.268266
-0.12645
0.000851459
-1.48654
-0.526275
-0.59839
-0.39206
-0.453799
-0.295905
-0.341451
-0.222261
-0.25588
-0.17216
-0.194705
-0.138549
-0.153578
-0.118482
-0.126945
-0.110683
-0.112993
-0.116504
-0.111851
-0.134063
-0.124185
-0.156663
-0.145197
-0.176935
-0.167586
-0.188146
-0.183901
-0.187381
-0.189202
-0.176273
-0.182907
-0.159614
-0.168205
-0.144781
-0.151484
-0.139262
-0.140433
-0.149443
-0.142036
-0.180858
-0.162178
-0.238523
-0.206131
-0.326299
-0.278513
-0.444569
-0.381856
-0.586171
-0.513301
-0.733178
-0.660568
-0.857863
-0.800228
-0.931075
-0.902353
-0.936052
-0.942257
-0.876357
-0.913183
-0.774141
-0.828848
-0.654344
-0.71519
-0.534206
-0.593473
-0.426246
-0.478082
-0.338226
-0.379598
-0.271958
-0.302059
-0.229274
-0.247715
-0.397229
-0.216964
-0.302242
-0.61022
-0.500828
-0.834323
-0.722645
-1.04152
-0.941548
-1.20933
-1.13149
-1.32067
-1.27315
-1.35835
-1.34956
-1.31352
-1.3462
-1.19186
-1.26144
-1.01225
-1.10766
-0.799072
-0.908397
-0.574307
-0.68704
-0.356177
-0.462561
-0.16561
-0.256898
-0.0319118
-0.0841114
-0.0562293
0.00666428
-0.0111
0.0335208
0.0211378
0.0508786
0.0432166
0.0600254
0.0563545
0.0630945
0.0621423
0.0633425
0.0633613
0.0641431
0.0634953
0.0661071
0.0656701
0.0686027
0.0671827
0.0717097
0.070169
0.0738796
0.0730641
0.071596
0.0736095
0.0599249
0.0671946
0.0355195
0.0494422
-0.00399392
0.0178313
-0.0619378
-0.0304597
-0.14056
-0.0986973
-0.236042
-0.186845
-0.334414
-0.286027
-0.419074
-0.379196
-0.480056
-0.453087
-0.506239
-0.498196
-0.484255
-0.501015
-0.420032
-0.456605
-0.328378
-0.376499
-0.228324
-0.278202
-0.135075
-0.18042
-0.0518945
-0.0922658
0.0214985
-0.0139641
0.0851169
0.0545141
0.138879
0.113282
0.181647
0.161735
0.211156
0.198307
0.22367
0.219734
0.220505
0.223734
0.215357
-1.59286
-1.4812
0.107605
0.199427
-1.47617
-1.46035
-1.49102
-1.49482
-1.41095
-0.153394
-0.139279
-0.20284
-0.116561
-1.60365
-1.34395
-1.26204
-1.16417
-1.04678
-0.909191
-0.835057
-0.555916
-0.598266
-0.895156
-1.15777
-1.3801
-1.54218
-1.6468
-1.70153
-1.70512
-1.69278
-0.807245
-0.631169
-0.455189
-0.288218
-0.137475
-0.004626
0.193681
0.104188
-1.48876
-0.452828
-0.50362
-0.35313
-0.404565
-0.256929
-0.301538
-0.185651
-0.21958
-0.128537
-0.155168
-0.0864431
-0.105713
-0.0567311
-0.0702581
-0.0368589
-0.0456595
-0.0258826
-0.0302164
-0.0251563
-0.0241537
-0.034196
-0.0286977
-0.0481275
-0.0409445
-0.0609328
-0.0549956
-0.0679988
-0.0653217
-0.0677862
-0.0687407
-0.0615819
-0.0652809
-0.0526597
-0.0571746
-0.0459537
-0.0486971
-0.0467728
-0.0450999
-0.0602197
-0.0516131
-0.0911694
-0.0732196
-0.144053
-0.114629
-0.222089
-0.179832
-0.325213
-0.270739
-0.446859
-0.384466
-0.571782
-0.510221
-0.677278
-0.628479
-0.740094
-0.715184
-0.747165
-0.75073
-0.701833
-0.730157
-0.621375
-0.664714
-0.524108
-0.573938
-0.423257
-0.473401
-0.330243
-0.375142
-0.253178
-0.289478
-0.193878
-0.221243
-0.171214
-0.4011
-0.210235
-0.301852
-0.621593
-0.50804
-0.852022
-0.737279
-1.06843
-0.963212
-1.25021
-1.16493
-1.37622
-1.32164
-1.42478
-1.41113
-1.386
-1.41629
-1.26553
-1.33513
-1.08195
-1.17994
-0.861467
-0.974641
-0.630176
-0.745994
-0.404033
-0.515051
-0.299193
0.0338306
-0.0122541
0.0123872
0.0688747
0.052077
0.0953405
0.0830952
0.113902
0.105486
0.125394
0.120399
0.131399
0.128926
0.134159
0.133025
0.136044
0.135045
0.137285
0.137968
0.137845
0.137458
0.138871
0.138331
0.139291
0.139313
0.135831
0.138312
0.124515
0.131342
0.103014
0.115128
0.0695229
0.0879125
0.021448
0.0474596
-0.0429255
-0.00872135
-0.120678
-0.0806485
-0.200003
-0.161191
-0.265407
-0.235149
-0.309199
-0.29022
-0.32592
-0.321423
-0.307805
-0.321079
-0.257918
-0.286317
-0.186746
-0.22417
-0.10716
-0.147263
-0.0299567
-0.0677637
0.0405551
0.00608436
0.105419
0.0736602
0.164177
0.135671
0.214769
0.190635
0.255074
0.236328
0.282842
0.2707
0.296051
0.291278
0.29647
0.297641
0.288229
0.293263
0.27419
0.281396
0.183108
0.251244
0.264734
-1.73882
-1.61703
-1.51063
-1.48465
-0.130136
-0.0409116
-1.65026
-1.57429
-1.45474
-1.73796
-1.40186
-1.32909
-1.23475
-1.11604
-0.971945
-0.629004
-0.368364
-0.362704
-0.635267
-0.927525
-1.22651
-1.49889
-1.70985
-1.8563
-1.93382
-1.93711
-1.91672
-0.865503
-0.673942
-0.48355
-0.305662
-0.145018
-0.00834747
0.0974666
0.306445
0.234633
0.289538
-1.51731
-0.326143
-0.349585
-0.268092
-0.299369
-0.204836
-0.237503
-0.139357
-0.171359
-0.0867924
-0.111462
-0.0437184
-0.0642505
-0.00936943
-0.0253911
0.0162779
0.00445008
0.0345101
0.0262482
0.0464545
0.0412314
0.0516632
0.049998
0.049425
0.0513912
0.0422484
0.0461952
0.0348171
0.0382951
0.030445
0.0321503
0.0301428
0.0298408
0.0327994
0.0312107
0.036214
0.0345952
0.0371592
0.0372207
0.031893
0.0355463
0.0164131
0.0256814
-0.0133826
0.00355305
-0.061302
-0.0348725
-0.13
-0.0929886
-0.219098
-0.172209
-0.322737
-0.269736
-0.428199
-0.376311
-0.517102
-0.475936
-0.571166
-0.549376
-0.58039
-0.581478
-0.547541
-0.568524
-0.485487
-0.519263
-0.407019
-0.447653
-0.322492
-0.36486
-0.242547
-0.28135
-0.17519
-0.207037
-0.122336
-0.14705
-0.084554
-0.101741
-0.0606026
-0.0701322
-0.211845
-0.054772
-0.127692
-0.411989
-0.307205
-0.641191
-0.524138
-0.880432
-0.760702
-1.11141
-0.998189
-1.31146
-1.21693
-1.45367
-1.39155
-1.51338
-1.49482
-1.4801
-1.50841
-1.35882
-1.42961
-1.16826
-1.27044
-0.936447
-1.05566
-0.693501
-0.814816
-0.457853
-0.574122
-0.245371
-0.347397
-0.0717439
-0.154089
0.0499102
-0.000616679
0.025952
0.0904328
0.0714785
0.123125
0.107687
0.148788
0.136838
0.167709
0.159035
0.180518
0.174792
0.18829
0.184922
0.192468
0.190722
0.194169
0.193614
0.194721
0.193468
0.195002
0.194988
0.195103
0.195024
0.194589
0.195072
0.190539
0.193224
0.179943
0.186178
0.161292
0.171689
0.133182
0.148536
0.0936362
0.114949
0.0413525
0.0690794
-0.0216258
0.0108152
-0.0860085
-0.0545258
-0.137717
-0.114185
-0.169175
-0.156033
-0.178703
-0.176919
-0.163198
-0.1739
-0.124241
-0.146441
-0.0682635
-0.0978008
-0.0043998
-0.0368107
0.0603931
0.0282447
0.121643
0.0915624
0.178972
0.150736
0.232361
0.206265
0.279369
0.256864
0.3169
0.299491
0.34251
0.331307
0.355513
0.350498
0.358086
0.357934
0.35188
0.356153
0.334711
0.344595
0.321735
-1.92227
-1.78915
0.168217
-1.57508
-1.53634
-1.84848
-1.68689
-1.52553
0.00149333
0.00924295
-0.106504
-0.0298944
-1.90973
-1.48653
-1.42055
-1.32667
-1.20149
-1.04547
-0.343612
-0.126887
-0.0969358
0.217415
0.271563
-0.299208
-0.589189
-0.910604
-1.2426
-1.56413
-1.84098
-2.0535
-2.17358
-2.19987
-2.17876
-0.923887
-0.712572
-0.505833
-0.315824
-0.148805
-0.0130762
0.0842512
-1.57464
-0.157341
-0.147907
-0.14877
-0.157931
-0.11831
-0.136607
-0.0803183
-0.0992374
-0.0403508
-0.060636
-0.00267563
-0.0207976
0.0299897
0.0142148
0.0576084
0.0444988
0.0796887
0.0693095
0.0967007
0.0888016
0.109188
0.10347
0.117097
0.113785
0.119459
0.118976
0.11722
0.118772
0.113473
0.115291
0.110812
0.111936
0.110031
0.110233
0.110148
0.110058
0.10968
0.110102
0.106559
0.108602
0.0981851
0.103207
0.0815165
0.0910878
0.0532157
0.0690289
0.0100748
0.0336691
-0.0500307
-0.0178153
-0.126533
-0.0864294
-0.214361
-0.169558
-0.303026
-0.259445
-0.377839
-0.343141
-0.424621
-0.40537
-0.435838
-0.434759
-0.413408
-0.428303
-0.366309
-0.392359
-0.303028
-0.336206
-0.232076
-0.267896
-0.16345
-0.196918
-0.104566
-0.132577
-0.0579354
-0.0797277
-0.0229627
-0.0392886
-0.00919534
-0.220385
-0.0527402
-0.131656
-0.429397
-0.319686
-0.667993
-0.546127
-0.920998
-0.793527
-1.1718
-1.04811
-1.39315
-1.28818
-1.55285
-1.48261
-1.62463
-1.60079
-1.59643
-1.62319
-1.47212
-1.5454
-1.27132
-1.3794
-1.02439
-1.15162
-0.76502
-0.89435
-0.517164
-0.638878
-0.292784
-0.40043
-0.193671
0.10391
0.060627
0.0834963
0.13963
0.122322
0.170038
0.155634
0.194489
0.183029
0.21319
0.20455
0.226542
0.220495
0.235233
0.231407
0.240136
0.238093
0.24203
0.241416
0.242251
0.242114
0.242102
0.242216
0.241925
0.242015
0.240971
0.241681
0.236716
0.239424
0.22707
0.232634
0.211108
0.219926
0.187726
0.200433
0.155492
0.172792
0.113446
0.135699
0.0628474
0.0889541
0.010453
0.036182
-0.0317281
-0.012657
-0.0550513
-0.0459059
-0.0594455
-0.0594835
-0.045383
-0.0547379
-0.0141031
-0.031737
0.0306924
0.00697366
0.0828485
0.0562308
0.137511
0.11006
0.191557
0.164795
0.242885
0.217601
0.290819
0.267348
0.333438
0.312981
0.367697
0.351791
0.391337
0.38091
0.404273
0.399056
0.407676
0.407145
0.400671
0.405642
0.381848
0.39272
0.35252
0.368195
0.317197
0.335321
0.275193
0.253002
0.297165
-2.148
-2.00358
0.151955
-1.67201
-1.61729
0.0140315
0.0359511
-2.0866
0.200808
-1.83735
-1.62648
0.235075
-2.12383
-1.5995
-1.53755
-1.43845
-1.30008
-1.12498
-0.0631586
-0.233809
-0.508695
-0.840908
-1.19603
-1.56405
-1.91174
-2.20302
-2.39225
-2.4722
-2.47107
-0.975687
-0.741595
-0.518517
-0.318152
-0.149402
-0.0208432
0.0700327
-1.66299
0.0985291
-0.0126529
0.186634
0.13034
0.0401555
0.0702902
-0.00296527
0.0135667
-0.00937719
-0.0100959
0.000884488
-0.00558044
0.0195832
0.00952512
0.04405
0.0311629
0.0704667
0.0574207
0.094774
0.0829167
0.116437
0.105984
0.134856
0.12606
0.150038
0.142844
0.162231
0.156478
0.17159
0.167304
0.177188
0.174922
0.17874
0.178427
0.177706
0.17836
0.176245
0.176975
0.175008
0.175621
0.17332
0.174281
0.170149
0.171993
0.164178
0.167611
0.153658
0.159613
0.136355
0.146011
0.109622
0.124337
0.0708364
0.0918689
0.0183664
0.0463379
-0.047138
-0.0129357
-0.121401
-0.0836121
-0.195836
-0.159268
-0.258868
-0.229548
-0.299703
-0.282531
-0.312493
-0.309638
-0.298393
-0.308464
-0.2629
-0.282977
-0.211514
-0.238802
-0.151739
-0.182087
-0.0929078
-0.121698
-0.0416347
-0.0661281
-0.00023088
-0.0197461
0.0316856
0.0167893
0.0555717
0.0445245
0.0703325
0.0643463
-0.056271
0.0734663
0.0143641