/*--------------------------------*- C++ -*----------------------------------*\
  =========                 |
  \\      /  F ield         | OpenFOAM: The Open Source CFD Toolbox
   \\    /   O peration     | Website:  https://openfoam.org
    \\  /    A nd           | Version:  10
     \\/     M anipulation  |
\*---------------------------------------------------------------------------*/
FoamFile
{
    format      ascii;
    class       volVectorField;
    location    "1.5";
    object      U;
}
// * * * * * * * * * * * * * * * * * * * * * * * * * * * * * * * * * * * * * //

dimensions      [0 1 -1 0 0 0 0];

internalField   nonuniform List<vector> 
6397
(
(4.23107 -0.797942 1.02541e-19)
(4.17144 -0.688027 -4.54559e-19)
(4.09289 0.000815224 0)
(4.09317 0.00069607 -2.32258e-22)
(4.09209 -0.000548315 2.72846e-21)
(4.09193 -0.000614943 5.46936e-21)
(3.31303 -2.09822 -5.30706e-19)
(1.7268 -3.2329 1.29936e-18)
(-1.01112 2.04285 4.31655e-19)
(-2.0121 1.08294 -1.63311e-19)
(1.90656 2.81173 1.08172e-18)
(3.45448 3.53035 -1.13276e-19)
(4.25187 0.0686059 -4.15625e-20)
(3.77727 0.0547207 -1.94239e-20)
(3.3179 0.0864904 4.08468e-20)
(-0.864399 0.212113 -1.37547e-18)
(0.585376 0.514032 -8.5031e-19)
(-0.490429 1.38051 7.23101e-19)
(1.15139 0.0451913 7.64487e-19)
(2.03403 -0.651873 -2.34984e-18)
(1.74272 -0.0737457 -1.18388e-18)
(-0.478757 -0.284069 -2.00951e-18)
(-0.501289 -0.374876 1.03826e-19)
(2.088 -0.41516 -1.58899e-18)
(3.82505 0.0824635 0)
(4.29407 0.0295655 9.09427e-21)
(4.0689 0.0687404 1.90083e-21)
(4.09048 -0.00584515 -1.74536e-20)
(4.08937 -0.00709828 4.26195e-21)
(4.09062 -0.00295199 -8.74197e-21)
(4.0894 -0.00384537 1.21439e-20)
(4.09511 -0.000217597 7.02737e-21)
(4.09489 0.000148922 5.15899e-21)
(4.09288 0.000593597 -1.86306e-20)
(4.09542 0.000142001 1.78365e-21)
(4.09517 0.000392224 0)
(4.09542 0.00142473 -2.16047e-21)
(4.096 0.00169824 -4.56293e-21)
(4.0952 -0.000612254 3.43131e-21)
(4.09524 -0.000454931 -1.49663e-21)
(4.09553 -0.000337434 0)
(4.09538 0.00027941 0)
(4.09135 -0.00223497 3.8562e-21)
(4.09291 0.000258646 6.08633e-21)
(4.09254 0.000271225 -6.61594e-21)
(4.09176 -0.000307862 1.23918e-20)
(4.09308 0.000602283 5.9987e-21)
(4.09271 0.000743826 -1.8322e-20)
(4.09593 -0.00371277 2.18669e-21)
(4.09649 -0.00324618 -3.4291e-22)
(4.09718 -0.00270945 3.55582e-21)
(4.09705 -0.00391238 -1.13125e-21)
(4.0967 -0.0028344 -9.59573e-21)
(3.98829 1.13546 -1.11181e-19)
(3.71052 0.523169 7.29103e-20)
(4.03913 0.0423533 1.87425e-20)
(4.05559 0.059787 1.83312e-20)
(4.52671 -0.247411 5.39539e-20)
(4.06973 -0.0244307 1.22861e-20)
(4.07543 -0.020215 -1.23015e-20)
(4.062 -0.0292901 -1.31074e-20)
(4.05142 -0.0341508 1.2903e-20)
(4.03809 -0.0394781 1.50021e-20)
(4.02005 -0.0438908 -1.47475e-20)
(3.9978 -0.0475926 0)
(3.9704 -0.048671 -1.73972e-20)
(3.93831 -0.0463527 1.82507e-20)
(3.90258 -0.0388928 0)
(4.08275 -0.0244246 1.11752e-20)
(4.07961 -0.0167796 -1.34162e-23)
(4.0855 -0.0198835 -1.06272e-20)
(4.07886 -0.0301185 0)
(4.07325 -0.0367963 0)
(4.06574 -0.0445342 0)
(4.05605 -0.0532723 5.85527e-23)
(4.04266 -0.0623162 -7.52454e-24)
(4.02586 -0.0712027 0)
(4.00404 -0.0784294 2.13236e-24)
(3.97729 -0.0819821 0)
(3.94491 -0.0798254 0)
(4.08808 -0.0157761 1.08371e-20)
(4.08318 -0.0136757 -7.31442e-22)
(3.86463 -0.0242598 0)
(3.90659 -0.0686206 0)
(4.0894 -0.0127621 -5.57419e-22)
(4.08542 -0.0109611 0)
(3.82848 -0.000859299 0)
(3.86334 -0.0466933 0)
(4.0908 -0.0100263 -1.93382e-20)
(4.08772 -0.00883237 2.34152e-21)
(3.79803 0.0307894 0)
(3.81524 -0.0106306 0)
(4.09231 -0.00839822 1.41992e-20)
(4.09285 -0.00675963 8.77524e-21)
(3.77953 0.0712529 0)
(3.76547 0.0396917 -2.94572e-21)
(4.09461 -0.0115785 0)
(4.09489 -0.00827489 -1.73264e-20)
(4.0949 -0.00948109 -1.17995e-21)
(4.09455 -0.0180328 1.05549e-20)
(4.09438 -0.0146536 0)
(4.0938 -0.0288958 5.69275e-21)
(4.09399 -0.0229103 -1.05834e-20)
(4.09376 -0.0442237 -6.87392e-21)
(4.09343 -0.035687 -4.42816e-21)
(4.09419 -0.0648414 -5.86498e-23)
(4.09356 -0.0537918 7.26426e-21)
(4.09554 -0.0887863 4.59513e-22)
(4.094 -0.0767754 9.08359e-21)
(4.09567 -0.108239 7.93456e-21)
(4.0948 -0.0999721 -1.64314e-20)
(4.08231 -0.10775 0)
(4.08973 -0.111964 0)
(4.03032 -0.0658075 0)
(4.0636 -0.0935462 0)
(3.97452 -0.0223676 5.89388e-21)
(3.89487 0.0136096 2.18652e-20)
(3.90105 0.0570463 1.27212e-20)
(3.8922 0.0327692 -2.15623e-20)
(3.9279 -0.0116975 -1.9493e-20)
(3.90809 -0.000699027 1.90545e-20)
(3.97545 -0.0216705 -1.32208e-22)
(3.95201 -0.0172364 -5.52149e-22)
(4.01747 -0.0231415 0)
(3.99778 -0.0228206 0)
(4.04758 -0.020031 -1.27621e-20)
(4.03417 -0.0216149 -1.72096e-21)
(4.067 -0.0156269 -2.1923e-21)
(4.05853 -0.0178905 1.26824e-20)
(4.07773 -0.0109704 -5.72697e-21)
(4.0733 -0.0131817 6.88966e-22)
(4.0841 -0.00726869 9.5449e-21)
(4.08148 -0.00893813 5.21267e-21)
(4.0882 -0.00486969 0)
(4.08651 -0.00619948 -1.05793e-20)
(4.09383 -0.00576461 8.18435e-21)
(4.09194 -0.00485978 2.2463e-22)
(4.09527 -0.00663358 -4.52106e-21)
(3.91447 0.0402527 9.53222e-21)
(3.72085 0.104857 -2.30557e-21)
(3.98864 0.0436551 1.8098e-22)
(3.92151 0.0888332 -1.27546e-20)
(3.97883 0.0786218 0)
(3.83846 0.120033 -6.37764e-21)
(4.33463 -0.017692 1.24586e-20)
(4.27114 0.0442037 -1.23886e-20)
(4.09021 -0.00313272 -4.11515e-21)
(4.09656 -0.00914869 9.18547e-21)
(4.09696 -0.00720638 4.3301e-21)
(4.09096 -0.00249342 -3.78802e-21)
(3.77716 0.119071 -7.72438e-22)
(4.09868 -0.0128264 0)
(4.09737 -0.0105987 2.34417e-21)
(4.10176 -0.0184447 -3.36208e-22)
(4.09954 -0.0155707 0)
(4.10842 -0.0270659 1.72841e-21)
(4.10416 -0.0222684 -3.57361e-21)
(4.12319 -0.0398787 0)
(4.11403 -0.032711 -8.32001e-22)
(4.15284 -0.0554939 0)
(4.13488 -0.0470894 -4.47893e-22)
(4.20516 -0.0721328 0)
(4.17495 -0.064011 -1.00389e-21)
(4.28073 -0.0858411 -1.43081e-23)
(4.23938 -0.0800875 -8.4166e-22)
(4.35754 -0.0916961 -6.27569e-22)
(4.31914 -0.0906238 1.14883e-21)
(4.39066 -0.0789821 3.6874e-22)
(4.38323 -0.0888922 3.44931e-22)
(4.37111 -0.0577152 -2.9133e-21)
(3.98707 0.0124981 -3.21281e-22)
(3.98982 0.0241455 -3.4653e-22)
(3.98896 0.0016957 1.82039e-23)
(3.98619 0.0066537 0)
(4.0058 -0.00448941 0)
(3.99627 -0.0010636 2.62372e-22)
(4.02828 -0.00859851 0)
(4.01657 -0.0061694 0)
(4.04959 -0.0102606 1.25583e-23)
(4.03929 -0.00931823 1.74596e-21)
(4.06599 -0.00984903 1.45689e-21)
(4.05845 -0.0100823 0)
(4.07698 -0.00798513 5.00695e-21)
(4.07208 -0.00887636 0)
(4.08374 -0.00599693 -3.01461e-22)
(4.08084 -0.00687458 -5.02054e-21)
(4.08788 -0.00425015 -8.2818e-24)
(4.0862 -0.00513634 -1.11788e-21)
(4.08916 -0.0034962 4.17832e-21)
(4.09394 -0.00473211 -1.92341e-21)
(4.09252 -0.00394105 0)
(4.09573 -0.00605332 -2.05144e-21)
(4.09495 -0.00550306 1.79217e-21)
(3.95037 0.134997 0)
(3.94465 0.132201 0)
(3.68568 0.180119 3.70428e-21)
(4.59559 -0.0544496 1.45902e-21)
(4.61529 -0.00793312 0)
(4.19111 0.129694 1.75304e-21)
(3.76449 0.216099 -8.21399e-22)
(3.84874 0.189004 0)
(3.90452 0.218455 0)
(3.79086 0.279375 1.46595e-20)
(4.09196 -0.00175437 -3.82462e-21)
(4.09178 -0.0020393 0)
(4.09636 -0.00521479 4.06084e-21)
(4.09834 -0.00541671 3.28155e-23)
(4.09935 -0.00464958 -9.97524e-21)
(4.09115 -0.00204335 0)
(4.09042 -0.00249247 3.5054e-21)
(3.79291 0.1733 0)
(4.09867 -0.00751367 -1.19373e-21)
(4.09925 -0.00578866 0)
(4.10175 -0.0103586 -3.82286e-23)
(4.09965 -0.009146 -3.19614e-23)
(4.10794 -0.014616 6.66222e-22)
(4.10381 -0.0126939 0)
(4.11926 -0.0192147 -1.15656e-23)
(4.11239 -0.0166414 7.12144e-22)
(4.1414 -0.0239873 1.29852e-23)
(4.1285 -0.0216354 8.00603e-22)
(4.18199 -0.0264057 -1.93037e-21)
(4.15851 -0.0255339 0)
(4.24562 -0.0267543 0)
(4.21029 -0.0269936 1.96732e-21)
(4.33089 -0.0320158 5.84047e-22)
(4.28601 -0.0285995 -2.83208e-22)
(4.42595 -0.051682 0)
(4.37806 -0.0401838 7.74804e-23)
(4.51856 -0.0755738 6.85173e-22)
(4.47283 -0.0657356 -1.41242e-21)
(4.56091 -0.0752124 -3.11039e-21)
(3.96072 0.0621094 2.55678e-21)
(3.90913 0.11602 -1.16877e-23)
(4.02505 0.00724444 9.99958e-22)
(3.99948 0.0272828 -4.03631e-21)
(4.04883 -0.00563208 -1.4683e-22)
(4.04038 -0.00226199 2.30233e-21)
(4.05525 -0.00495974 0)
(4.053 -0.00595503 -2.47819e-21)
(4.05954 -0.00374124 0)
(4.05709 -0.00409465 0)
(4.06595 -0.0038434 -2.4198e-23)
(4.06252 -0.00358683 0)
(4.07347 -0.00430321 0)
(4.0698 -0.00421203 0)
(4.08021 -0.00414216 0)
(4.07716 -0.00441985 0)
(4.08495 -0.00378278 -2.21153e-21)
(4.08286 -0.00399207 0)
(4.08803 -0.00313808 8.20086e-24)
(4.08666 -0.00337795 2.26096e-21)
(4.08948 -0.00297524 -4.0574e-21)
(4.09388 -0.00373003 -1.94436e-21)
(4.09291 -0.00339102 3.58042e-21)
(4.09509 -0.00461157 -4.01291e-21)
(4.61827 0.0618819 -1.50293e-20)
(3.9622 0.19443 0)
(3.66829 0.265543 -4.69171e-21)
(3.74746 0.379354 -1.5755e-20)
(3.84655 0.326688 0)
(4.09944 0.229323 -1.97933e-21)
(3.69052 0.320022 -6.80434e-21)
(4.09714 -0.00393163 -2.42103e-23)
(4.09988 -0.00395876 -1.5962e-24)
(4.09267 -0.00143404 -3.2728e-21)
(4.09242 -0.00179554 -3.2855e-21)
(4.09013 -0.000675349 -3.52946e-21)
(4.09099 -0.000809718 0)
(4.10029 -0.00564658 -1.13511e-21)
(4.10158 -0.00495761 -1.98102e-21)
(4.58663 0.157092 1.50734e-20)
(4.53037 0.259145 2.19399e-21)
(3.99728 0.333297 1.67466e-20)
(4.092 -0.00175035 7.20321e-23)
(3.82732 0.235594 0)
(4.10113 -0.00694775 -1.07517e-21)
(4.10096 -0.00541676 4.42758e-21)
(4.10366 -0.00799201 1.20485e-21)
(4.10116 -0.0077195 -2.93593e-21)
(4.10853 -0.0106292 0)
(4.10561 -0.00966232 0)
(4.11607 -0.0119112 9.30694e-26)
(4.11206 -0.0110718 7.05171e-28)
(4.12649 -0.0103284 -1.28699e-23)
(4.12096 -0.011178 0)
(4.13847 -0.00538603 0)
(4.13211 -0.00830437 8.52586e-28)
(4.1482 0.000690036 0)
(4.14348 -0.00287915 0)
(4.15499 0.00230058 0)
(4.15182 0.00220693 0)
(4.17094 -0.00175639 0)
(4.16022 0.0010923 0)
(4.22907 0.00365526 0)
(4.19161 -0.00177073 0)
(4.35674 0.0409932 2.5564e-21)
(4.28497 0.017646 0)
(4.51136 0.110266 0)
(4.43514 0.0739741 4.04011e-23)
(4.55753 0.210686 0)
(4.54709 0.159884 4.13548e-21)
(3.83593 0.243611 3.28756e-21)
(3.83652 0.37909 4.79227e-21)
(3.82651 0.308918 -3.30162e-21)
(3.90117 0.131037 -9.87919e-22)
(3.86314 0.183846 1.16851e-23)
(3.97954 0.0548955 6.08608e-22)
(3.94177 0.0882822 1.41239e-21)
(4.03423 0.0153832 6.34183e-25)
(4.01079 0.0310883 0)
(4.06035 0.000856827 0)
(4.05023 0.00580749 0)
(4.07059 -0.00253456 0)
(4.0667 -0.00150017 0)
(4.07528 -0.0029382 3.56777e-25)
(4.07328 -0.00286656 0)
(4.0791 -0.00266374 0)
(4.07734 -0.00278221 0)
(4.08259 -0.00235671 0)
(4.08103 -0.00266515 0)
(4.08559 -0.00208501 -1.12832e-21)
(4.08431 -0.00235555 1.17404e-21)
(4.08815 -0.00137914 -1.00433e-21)
(4.08698 -0.00173456 1.32746e-22)
(4.08918 -0.00101575 4.97157e-21)
(4.09419 -0.00263161 2.48318e-21)
(4.09348 -0.00282142 3.51165e-21)
(4.09557 -0.00333149 0)
(3.72842 0.481895 0)
(3.86389 0.455966 -4.32169e-21)
(4.45079 0.357748 -2.22584e-20)
(4.50811 0.267062 0)
(3.9604 0.281545 0)
(3.67074 0.352268 0)
(4.10074 -0.00367634 0)
(4.09241 -0.00158434 7.12808e-21)
(4.09097 -0.000130073 -2.82215e-21)
(4.09184 0.000126249 0)
(3.78889 0.45571 -1.09876e-21)
(3.6286 0.42094 8.73841e-21)
(3.89536 0.548207 -3.34814e-21)
(3.73544 0.586801 1.13932e-21)
(3.90043 0.428791 -1.90977e-20)
(4.3578 0.433156 -3.55078e-21)
(4.43115 0.308573 0)
(4.09168 -0.000739298 -7.1802e-21)
(3.87334 0.304806 0)
(4.1019 -0.00486028 4.0459e-21)
(4.10006 -0.00328572 2.68574e-21)
(4.10228 -0.00423887 9.51882e-21)
(4.10439 -0.00577994 1.78299e-21)
(4.10343 -0.00489539 -4.09608e-21)
(4.10599 -0.00666235 0)
(4.10406 -0.00662185 -1.10854e-21)
(4.10784 -0.00893702 -6.03451e-28)
(4.1068 -0.00763863 6.27479e-28)
(4.1118 -0.010512 1.35468e-25)
(4.11014 -0.0094028 0)
(4.11683 -0.0122429 0)
(4.1142 -0.0114106 0)
(4.12088 -0.0140416 1.39385e-23)
(4.11816 -0.013198 -8.52582e-28)
(4.12277 -0.0165993 -9.31631e-28)
(4.12173 -0.015783 9.67274e-28)
(4.12588 -0.0208919 0)
(4.12464 -0.0188321 0)
(4.13818 -0.0171946 -1.91084e-23)
(4.13038 -0.0201458 0)
(4.16397 0.0160349 2.14287e-23)
(4.14864 -0.00517561 0)
(4.19872 0.0868968 8.23391e-22)
(4.18126 0.0478676 0)
(4.23018 0.158403 -7.94378e-21)
(4.21627 0.126069 -1.79017e-21)
(4.22935 0.195405 -9.71504e-21)
(4.23332 0.182915 3.76534e-21)
(4.13636 0.209903 -2.35321e-20)
(4.19415 0.206094 9.69971e-21)
(4.03025 0.338558 -3.48129e-21)
(4.09852 0.537006 7.1438e-22)
(4.06535 0.428055 3.88761e-21)
(3.96529 0.213199 -4.90852e-21)
(3.99544 0.268099 3.09898e-21)
(3.93895 0.130503 2.19091e-21)
(3.94572 0.168607 1.29205e-21)
(3.95615 0.0700589 0)
(3.94311 0.0978269 -2.69815e-21)
(3.99314 0.0303755 3.14273e-23)
(3.97389 0.0474494 1.04793e-27)
(4.02772 0.0102005 0)
(4.01156 0.0182598 0)
(4.05197 0.00234986 1.24381e-23)
(4.04127 0.0051137 0)
(4.0672 -0.000172022 1.1583e-23)
(4.06061 0.000753385 0)
(4.07642 -0.000856859 0)
(4.07246 -0.000673521 0)
(4.08195 -0.000863841 0)
(4.0797 -0.00103692 0)
(4.08553 -0.000841524 0)
(4.08407 -0.00090752 0)
(4.0885 -0.000639608 0)
(4.08719 -0.000834145 -6.73321e-23)
(4.08968 -0.00033911 1.87227e-21)
(3.92717 0.661128 4.34391e-21)
(4.13394 0.657927 0)
(4.31535 0.332203 -4.73041e-21)
(4.0491 0.202856 3.03398e-20)
(4.09203 -0.00072091 0)
(4.09233 0.000411927 1.65403e-21)
(4.09279 -0.00137967 3.109e-21)
(4.09231 -0.000701544 -3.07865e-21)
(4.0934 -0.00114185 -1.81157e-21)
(4.09323 -0.00134788 1.16389e-22)
(4.0943 -0.0017268 -2.54422e-23)
(4.09388 -0.0020569 1.5967e-21)
(4.09713 -0.00328242 3.46932e-21)
(4.09568 -0.00272165 -4.25196e-22)
(4.09939 -0.00322121 0)
(4.09936 -0.00392764 -3.43273e-21)
(4.098 -0.0020238 -4.39031e-21)
(3.93635 0.400998 1.10772e-21)
(3.69213 0.439169 4.63029e-27)
(3.74842 0.593918 -1.14388e-21)
(3.57517 0.512408 0)
(3.76297 0.698856 0)
(3.79971 0.506042 0)
(4.17268 0.781671 -7.76899e-22)
(3.95878 0.793809 -6.93686e-23)
(4.25008 0.485145 2.42379e-20)
(3.94379 0.178837 -7.14584e-21)
(4.17682 0.322917 -2.4214e-20)
(4.09808 -0.000941858 -3.66648e-21)
(4.0962 0.000721119 3.51107e-21)
(3.91433 0.390631 4.95926e-27)
(4.10203 -0.00307177 5.52243e-23)
(4.10133 -0.00205732 1.96536e-21)
(4.10611 -0.00447078 9.5528e-22)
(4.1039 -0.00370005 0)
(4.10801 -0.00603044 -5.36116e-28)
(4.10646 -0.00577778 -1.10027e-21)
(4.11074 -0.00762214 0)
(4.10956 -0.006289 0)
(4.11588 -0.00707538 1.12432e-23)
(4.11329 -0.00743952 0)
(4.12425 -0.00624358 0)
(4.11919 -0.00739083 0)
(4.13675 -0.00339572 -2.75868e-23)
(4.12892 -0.00496514 0)
(4.15536 0.00121821 -1.51405e-23)
(4.14535 -0.00132411 0)
(4.18416 0.00566158 0)
(4.16938 0.00405509 0)
(4.22448 0.0138467 4.98236e-25)
(4.2028 0.0101979 0)
(4.26692 0.0356238 -5.78348e-25)
(4.24561 0.0216672 0)
(4.29126 0.0815523 -2.36442e-23)
(4.28293 0.0538139 1.47586e-27)
(4.28708 0.139751 1.25685e-24)
(4.29337 0.111599 0)
(4.26461 0.172961 1.59455e-22)
(4.27758 0.163841 -4.17598e-21)
(4.21334 0.151352 1.17042e-20)
(4.24337 0.170674 1.49953e-20)
(4.11914 0.0659957 -2.33255e-20)
(4.16898 0.115526 -9.42104e-22)
(4.14397 0.500747 -9.27153e-22)
(4.23425 0.7268 8.41699e-22)
(4.18635 0.607591 0)
(4.09284 0.327416 4.61206e-22)
(4.11254 0.407261 -1.0449e-21)
(4.06632 0.207646 3.52684e-22)
(4.07868 0.260964 8.45984e-23)
(4.04087 0.133842 -8.93169e-24)
(4.05336 0.166204 1.72537e-22)
(4.02381 0.0864788 0)
(4.0305 0.107845 0)
(4.0229 0.0531775 -1.53836e-23)
(4.02134 0.0682842 1.99406e-27)
(4.03411 0.0305169 -1.69607e-27)
(4.02756 0.0406033 1.79522e-27)
(4.04952 0.0166609 -5.26129e-25)
(4.04188 0.0225723 0)
(4.06315 0.00878169 0)
(4.05681 0.0121655 0)
(4.07337 0.00445423 -9.72315e-24)
(4.06871 0.0063916 0)
(4.08085 0.00187483 0)
(4.0775 0.00283734 0)
(4.08629 0.00110038 -7.89845e-24)
(4.08397 0.00117725 0)
(4.09012 0.00139608 1.46925e-23)
(4.08849 0.00119343 -6.47491e-23)
(4.09218 0.00174124 2.66181e-21)
(4.09132 0.00172743 0)
(4.09286 0.00121342 1.13666e-20)
(4.09241 0.00140509 -8.4737e-21)
(4.0928 0.000891606 -5.5217e-23)
(4.09296 -0.00114493 0)
(4.09297 2.40678e-05 3.01413e-21)
(4.09249 -0.000802833 1.1615e-22)
(4.09376 -0.000896354 0)
(4.09378 -0.000936614 0)
(4.09439 -0.00126615 1.53917e-21)
(4.09394 -0.00153305 3.6632e-28)
(4.09769 -0.00287148 -8.41892e-22)
(4.09597 -0.00240003 -2.73423e-21)
(4.09871 -0.00183663 0)
(4.09904 -0.00304026 2.45482e-21)
(4.21672 0.902256 1.57119e-23)
(4.28229 0.854524 -5.91034e-22)
(3.82302 0.123994 3.02094e-20)
(4.06302 -0.00838942 4.89308e-20)
(4.09577 0.00143332 3.30182e-21)
(4.09741 -0.000827565 -1.68139e-21)
(3.88956 0.550431 8.71877e-26)
(3.71776 0.525159 0)
(3.73481 0.737558 0)
(3.52253 0.587357 1.85337e-25)
(3.79994 0.832543 1.46884e-23)
(3.69945 0.559563 7.80245e-21)
(4.00353 0.937559 -2.5156e-23)
(4.13077 0.500059 0)
(4.33571 0.984094 -3.32181e-21)
(4.26962 1.02838 1.25648e-23)
(4.01514 0.273977 3.73226e-20)
(4.01511 -0.0968943 -5.31596e-20)
(3.69464 0.0397917 -1.45731e-20)
(4.36294 0.895523 3.19444e-21)
(4.40489 1.10302 3.31803e-21)
(4.48643 0.992565 1.25819e-22)
(3.98069 -0.213724 -2.93929e-20)
(3.84866 -0.104072 4.69912e-20)
(3.78712 -0.202607 7.51561e-21)
(4.09451 0.00199766 1.58596e-21)
(4.09376 0.00101898 0)
(4.09366 0.001451 -1.8546e-21)
(3.93163 0.501302 6.0726e-27)
(4.09501 0.00118165 9.07247e-22)
(4.09411 0.00231628 3.46025e-21)
(4.09993 -0.000419428 -1.91253e-21)
(4.09818 0.000220746 -8.96815e-22)
(4.10564 -0.00271711 0)
(4.10225 -0.0018491 0)
(4.10929 -0.00480879 0)
(4.10737 -0.00404237 0)
(4.11229 -0.00523041 0)
(4.11123 -0.00424183 0)
(4.11605 -0.00349952 0)
(4.11414 -0.00553587 0)
(4.12156 -0.00265952 -1.44774e-27)
(4.11768 -0.00420755 1.50424e-27)
(4.12775 0.000906392 1.36468e-23)
(4.12378 -2.17544e-05 1.66769e-27)
(4.13626 0.00639453 1.51406e-23)
(4.13306 0.00404349 0)
(4.15005 0.0132926 0)
(4.14357 0.0103336 0)
(4.17047 0.0272679 5.95846e-25)
(4.15764 0.0194716 0)
(4.1979 0.0554836 -7.43699e-25)
(4.18166 0.0363878 0)
(4.22369 0.0993621 2.36431e-23)
(4.21283 0.0723996 0)
(4.22433 0.142093 5.29809e-23)
(4.23021 0.121972 1.52172e-27)
(4.18387 0.155328 3.54486e-21)
(4.20935 0.154936 0)
(4.09804 0.120089 -4.76406e-21)
(4.14616 0.143749 -4.69452e-21)
(3.98013 0.0351808 1.98155e-20)
(4.03901 0.0789613 -1.23594e-20)
(3.91704 -0.0307907 -4.20526e-20)
(4.18506 0.663258 2.24581e-21)
(4.26088 0.782131 -5.08785e-21)
(4.08099 0.446111 9.34358e-24)
(4.12716 0.548298 2.90915e-22)
(4.02108 0.291319 2.51602e-21)
(4.04517 0.360807 -2.68614e-21)
(4.00231 0.185099 8.8645e-24)
(4.0074 0.233984 -8.59203e-23)
(4.00851 0.110919 8.9233e-24)
(4.00356 0.144529 4.51646e-27)
(4.02244 0.0642513 0)
(4.01522 0.0846385 0)
(4.03554 0.0384178 3.53455e-27)
(4.02915 0.049166 -3.74026e-27)
(4.04714 0.0250292 0)
(4.04154 0.0304054 0)
(4.0578 0.0170938 -5.48902e-25)
(4.05277 0.0205776 0)
(4.06733 0.0114577 0)
(4.06285 0.0142426 0)
(4.07546 0.00760994 9.72314e-24)
(4.0716 0.00944128 0)
(4.082 0.00531873 0)
(4.07889 0.00624917 0)
(4.08697 0.00357897 2.48017e-25)
(4.08493 0.00427679 2.06703e-27)
(4.09021 0.00196672 -1.42785e-23)
(4.089 0.00280041 0)
(4.0913 0.0008304 0)
(4.09083 0.00145917 -8.51373e-25)
(4.09146 -9.14731e-05 -3.11311e-21)
(4.0913 0.000534897 -6.22479e-24)
(4.09157 -0.00024288 -3.11342e-21)
(4.093 -0.000220351 5.29172e-21)
(4.09305 0.000529974 -2.88891e-21)
(4.09303 -0.00106302 0)
(4.09268 -0.000744464 0)
(4.094 -0.000431427 1.64797e-25)
(4.09403 -0.000761751 3.35509e-28)
(4.09488 -0.00073284 1.79415e-25)
(4.0942 -0.000953433 3.44503e-28)
(4.09793 -0.00217789 1.8092e-22)
(4.09652 -0.00180426 6.94102e-28)
(4.09672 -0.00078863 1.44852e-21)
(4.09829 -0.00220152 -9.46405e-22)
(4.09484 -0.00020749 -8.44919e-23)
(3.83358 0.721629 -1.60394e-25)
(3.72726 0.615352 3.77344e-26)
(3.7482 0.888657 0)
(3.45449 0.646169 -2.09571e-25)
(3.84496 0.998044 -2.05878e-23)
(3.59928 0.580524 -7.81729e-21)
(4.07902 1.09272 8.6393e-23)
(3.998 0.475412 -2.12938e-21)
(4.34727 1.17391 6.46672e-23)
(3.82432 0.182851 0)
(4.61968 1.06844 4.28521e-23)
(4.50261 1.20851 0)
(3.56684 -0.0854544 -1.59389e-20)
(3.73061 -0.312572 3.39249e-20)
(3.96484 -0.356005 2.69367e-20)
(4.54907 0.925189 7.18818e-23)
(4.75475 1.12183 1.2218e-20)
(4.72375 0.997149 6.53782e-23)
(3.69972 -0.45571 -8.24298e-21)
(3.90039 -0.393981 3.10888e-20)
(3.92263 -0.5054 1.68388e-20)
(4.09328 0.00181236 0)
(4.09441 0.00137177 -5.7048e-21)
(4.09629 0.00179188 3.07084e-21)
(4.09692 0.00123028 -3.22025e-21)
(3.91091 0.642414 -3.57147e-26)
(4.09562 0.00288429 -1.62079e-21)
(4.09601 0.00291795 -1.62819e-21)
(4.09848 0.00231351 2.30162e-22)
(4.09672 0.0025476 -8.72407e-22)
(4.10236 0.000501271 -3.90964e-24)
(4.09974 0.00122997 3.90248e-27)
(4.1072 -0.00276359 0)
(4.10486 -0.00151387 0)
(4.11197 -0.0037791 0)
(4.10993 -0.00289801 0)
(4.11693 -0.00198057 1.06275e-23)
(4.11411 -0.00471511 0)
(4.12093 -0.000478714 0)
(4.11758 -0.00223095 0)
(4.125 0.00458152 0)
(4.12346 0.00272642 0)
(4.13446 0.0115658 0)
(4.1313 0.00806158 0)
(4.14905 0.020959 0)
(4.14072 0.0169834 0)
(4.1657 0.0384235 1.80143e-23)
(4.15472 0.0282483 0)
(4.18219 0.0652462 -9.26779e-25)
(4.17284 0.0460194 4.8543e-27)
(4.1904 0.0969937 0)
(4.18763 0.0768927 0)
(4.17714 0.121832 -1.8076e-24)
(4.18701 0.112446 -1.52172e-27)
(4.13829 0.115986 2.93125e-23)
(4.1617 0.126504 6.9003e-27)
(4.07723 0.0587927 4.23827e-21)
(4.1143 0.0927938 4.01454e-24)
(3.99035 -0.0563172 -2.2973e-21)
(4.04041 0.00147814 -2.02136e-21)
(3.9273 -0.207953 -1.49153e-20)
(3.96007 -0.135593 1.01381e-20)
(3.91046 -0.301879 -3.56722e-20)
(4.27365 0.761932 3.09479e-22)
(4.39587 0.843019 -1.40002e-23)
(4.1294 0.593849 -6.5575e-23)
(4.18537 0.679395 0)
(4.07773 0.421009 -9.23875e-24)
(4.09689 0.50606 -2.9462e-22)
(4.05577 0.282153 0)
(4.06542 0.34472 0)
(4.03938 0.193603 -9.08409e-25)
(4.04733 0.232651 0)
(4.0302 0.135992 0)
(4.03342 0.162693 0)
(4.03262 0.0934072 0)
(4.02997 0.11369 0)
(4.04208 0.0616298 -1.28399e-23)
(4.03662 0.076268 0)
(4.05301 0.0397206 0)
(4.04765 0.0491857 0)
(4.06266 0.0256092 -1.1363e-23)
(4.05842 0.0315311 0)
(4.07078 0.0167673 -9.84813e-24)
(4.06714 0.0207794 0)
(4.07758 0.0111407 -8.96248e-24)
(4.07419 0.0140204 6.0816e-28)
(4.08278 0.00759111 -8.14528e-24)
(4.08029 0.00917985 -4.41388e-27)
(4.08662 0.00537699 2.64026e-25)
(4.08511 0.0060477 0)
(4.08923 0.00360766 0)
(4.08822 0.00438331 0)
(4.09094 0.00207962 0)
(4.09017 0.00309301 8.52615e-25)
(4.09207 0.00115062 2.81799e-21)
(4.09141 0.00167231 6.11195e-24)
(4.09223 0.000897401 -2.45933e-21)
(4.09267 -0.000632702 0)
(4.09349 0.000616477 7.61864e-21)
(4.09348 -0.000158967 -2.77905e-21)
(4.09302 0.000433335 -7.88618e-22)
(4.09322 -0.000959759 -3.01887e-25)
(4.09308 -0.000590493 -6.16564e-28)
(4.09402 -4.44232e-05 -3.19913e-25)
(4.09401 -0.000660687 -6.30266e-28)
(4.09511 -0.000395854 6.3828e-28)
(4.09434 -0.000604433 -6.48993e-28)
(4.09728 -0.00182314 3.44197e-22)
(4.09653 -0.00169648 -6.57743e-28)
(4.09472 -0.000157953 -1.44279e-21)
(4.09645 -0.00148408 -3.50718e-22)
(4.09321 0.000918761 -1.48024e-21)
(3.77973 0.902177 0)
(3.69611 0.711811 -1.32371e-26)
(3.77749 1.06129 0)
(3.35519 0.682985 1.11487e-24)
(3.90639 1.19713 2.54126e-23)
(3.48883 0.568973 1.81414e-23)
(4.19832 1.27843 -5.81281e-23)
(3.83868 0.403253 -7.70869e-23)
(4.4759 1.35037 -9.08096e-23)
(3.63068 0.037076 -1.56199e-22)
(4.65109 1.31885 0)
(3.45667 -0.240582 -1.62546e-20)
(4.91021 1.04144 1.90138e-20)
(4.92009 1.16262 -3.43847e-20)
(3.98257 -0.531221 6.21643e-22)
(3.96703 -0.62073 -1.79079e-20)
(3.68883 -0.626566 -2.69395e-20)
(4.09636 0.00099105 8.55626e-23)
(3.84705 0.806467 8.00249e-26)
(4.09858 0.00235205 -3.31724e-21)
(4.09895 0.00170409 1.81531e-20)
(4.09926 0.00141155 -1.12957e-20)
(4.09623 0.00333277 4.22708e-22)
(4.09842 0.00220032 3.08457e-21)
(4.09665 0.00314511 -2.29881e-22)
(4.09747 0.00233357 4.30701e-22)
(4.0991 0.00173253 -9.69565e-22)
(4.09804 0.00212672 8.69445e-22)
(4.10396 0.000142712 -8.53504e-24)
(4.10155 0.000955701 4.26205e-27)
(4.10947 -0.000608921 -9.42755e-24)
(4.10785 -0.00068531 -4.71448e-27)
(4.11653 -0.000704872 -2.47136e-25)
(4.11365 -0.00151617 0)
(4.12109 0.00166515 0)
(4.11722 0.00031322 0)
(4.1236 0.00827594 -1.25771e-23)
(4.12342 0.00464546 0)
(4.13086 0.0170216 6.69138e-27)
(4.12982 0.0120751 -6.9474e-27)
(4.14181 0.0283522 7.35113e-27)
(4.13521 0.0220882 -7.62971e-27)
(4.15219 0.0449246 -8.08126e-27)
(4.14456 0.0342027 8.38467e-27)
(4.1601 0.0678211 -3.73616e-23)
(4.15537 0.0537692 9.24734e-27)
(4.16029 0.0943935 1.99627e-23)
(4.16032 0.083201 1.02104e-26)
(4.14229 0.112152 -1.94461e-24)
(4.15351 0.111166 0)
(4.10214 0.0978287 2.38344e-23)
(4.12848 0.114199 1.24505e-26)
(4.04528 0.0355128 2.93735e-23)
(4.08563 0.0716826 0)
(3.98629 -0.0754235 1.93289e-21)
(4.0276 -0.0182976 0)
(3.94373 -0.22637 7.97362e-21)
(3.97414 -0.153177 -8.72304e-21)
(3.93353 -0.402726 0)
(3.94139 -0.314208 6.48174e-22)
(3.99657 -0.615199 8.52985e-21)
(3.95832 -0.504388 -7.53763e-21)
(4.62204 0.768083 -2.25502e-22)
(4.87045 0.8336 -5.77156e-21)
(4.73102 0.80042 5.57351e-21)
(4.45079 0.693504 2.66065e-23)
(4.53376 0.735876 2.77441e-25)
(4.28926 0.56777 0)
(4.36845 0.637042 0)
(4.16389 0.416623 -6.45946e-24)
(4.22044 0.491993 0)
(4.09282 0.281775 0)
(4.1219 0.344862 0)
(4.06186 0.18253 -7.95434e-24)
(4.0743 0.227386 0)
(4.04884 0.117065 0)
(4.05394 0.146376 0)
(4.04614 0.0769485 0)
(4.04633 0.095085 0)
(4.05014 0.0528828 9.13817e-25)
(4.04713 0.0637355 0)
(4.05724 0.0376509 0)
(4.05327 0.0439334 0)
(4.06503 0.0269806 -1.04677e-26)
(4.06159 0.0311712 1.10826e-26)
(4.07232 0.0190755 9.83853e-24)
(4.06931 0.0227026 1.01636e-26)
(4.07866 0.0136535 1.75103e-23)
(4.07558 0.0166752 8.68056e-27)
(4.08355 0.0100677 3.37709e-25)
(4.08096 0.0119681 0)
(4.08672 0.00687557 7.39428e-24)
(4.08542 0.00803363 -7.69177e-27)
(4.08881 0.00379018 6.55854e-27)
(4.08828 0.00504849 -6.95768e-27)
(4.09076 0.00178686 0)
(4.08971 0.00290406 0)
(4.09252 0.00100079 -4.60759e-22)
(4.0913 0.0013503 7.21786e-22)
(4.0942 0.000285734 0)
(4.09338 0.000529104 -8.69774e-23)
(4.09473 3.18713e-05 0)
(4.09279 -0.000873023 0)
(4.0949 -0.000401532 -1.21086e-22)
(4.09375 0.000679374 -2.28857e-21)
(4.09369 -0.000219207 3.04211e-22)
(4.09304 0.000366405 6.02795e-22)
(4.09328 -0.000985862 1.83689e-26)
(4.09347 -0.000551471 0)
(4.09363 -9.13115e-05 1.55405e-25)
(4.09343 -0.000738608 0)
(4.09564 -0.000437788 0)
(4.09438 -0.000711895 0)
(4.09716 -0.00106671 -3.77448e-26)
(4.0968 -0.00142268 0)
(4.09372 0.00158612 0)
(4.09525 0.000157909 0)
(4.09411 0.00248685 0)
(4.09329 0.00232424 -6.28591e-22)
(4.09908 0.000266387 0)
(4.09626 0.00149931 1.25217e-21)
(5.1044 1.02762 -4.69809e-20)
(5.02527 0.84653 0)
(4.05101 -0.745289 2.25604e-22)
(4.06799 -0.73563 -6.74904e-22)
(3.73214 1.08639 -1.68144e-24)
(3.6041 0.809194 0)
(4.09544 0.00201506 0)
(3.80167 1.26684 -3.79773e-24)
(3.20762 0.691036 -8.22033e-25)
(4.10106 0.00227773 3.97693e-21)
(4.09967 0.000691982 0)
(4.10116 0.00305768 0)
(3.99767 1.42721 -9.99539e-24)
(3.37523 0.507837 -2.22577e-23)
(4.35875 1.51861 0)
(3.66393 0.27213 1.51678e-22)
(4.6883 1.55982 0)
(3.4363 -0.147376 0)
(4.88985 1.4541 0)
(3.37886 -0.436906 8.62808e-21)
(5.14723 1.19899 -1.22792e-20)
(4.03093 -0.732526 9.67285e-22)
(5.18324 0.818213 0)
(5.3182 0.951825 3.0025e-20)
(3.72603 -0.839589 4.17423e-22)
(4.16703 -0.866044 -2.96397e-20)
(4.16103 -0.850829 3.03517e-20)
(3.7428 0.977721 -5.5342e-26)
(4.09981 0.00233404 1.60318e-21)
(4.10045 0.00145965 0)
(4.0989 0.00226429 -4.21246e-22)
(4.1007 0.0018363 -7.40321e-22)
(4.09874 0.00320985 0)
(4.09893 0.00310414 4.01691e-22)
(4.09938 0.00378275 0)
(4.09788 0.00356642 1.19632e-22)
(4.10146 0.00362308 8.53095e-24)
(4.09988 0.00372511 0)
(4.10601 0.0026028 1.86647e-23)
(4.1054 0.00237427 0)
(4.11374 0.00136596 -2.58365e-25)
(4.11045 0.00234464 0)
(4.11924 0.00453855 -1.10791e-23)
(4.11473 0.00351501 -1.11791e-26)
(4.12202 0.0108366 1.25653e-23)
(4.12094 0.00631105 1.22633e-26)
(4.12655 0.0190292 -1.33058e-23)
(4.1263 0.0146415 1.2615e-26)
(4.13341 0.0323054 -1.41252e-26)
(4.13029 0.0258118 1.37832e-26)
(4.14038 0.0491112 -1.57526e-23)
(4.13602 0.0376816 1.60106e-26)
(4.14376 0.0670836 3.52905e-23)
(4.14105 0.0561825 0)
(4.13665 0.0861626 -1.42661e-24)
(4.13973 0.0822439 1.91139e-26)
(4.11329 0.0962659 -4.19904e-23)
(4.12775 0.10221 0)
(4.07605 0.0761334 -2.38247e-23)
(4.10233 0.095198 -2.24083e-26)
(4.03136 0.00999071 0)
(4.06616 0.0462123 0)
(3.98973 -0.0988826 2.95488e-21)
(4.02084 -0.0470822 -3.10793e-21)
(3.97117 -0.230441 0)
(3.98756 -0.167975 -1.23404e-27)
(3.98223 -0.371591 5.63627e-22)
(3.97697 -0.30285 -1.11385e-21)
(4.06283 -0.526948 9.15523e-22)
(4.01543 -0.448065 -9.13669e-22)
(4.22791 -0.693282 0)
(4.13636 -0.61165 6.71905e-22)
(4.79013 0.682817 -2.55331e-21)
(5.07536 0.613954 3.44385e-21)
(4.93507 0.650737 1.00179e-20)
(4.52523 0.701895 -1.26744e-21)
(4.64927 0.701784 2.51591e-21)
(4.33568 0.624362 -1.78286e-24)
(4.42073 0.676134 1.24903e-21)
(4.21544 0.479633 -3.61084e-24)
(4.26787 0.555609 1.88518e-23)
(4.14486 0.338488 6.45952e-24)
(4.1761 0.405456 0)
(4.09783 0.233496 2.44915e-26)
(4.11906 0.280325 -2.58954e-26)
(4.06983 0.165886 -2.56193e-26)
(4.08209 0.195494 2.70927e-26)
(4.05793 0.120959 -6.08853e-24)
(4.06255 0.141505 0)
(4.0572 0.0881378 2.42713e-26)
(4.05641 0.103972 -2.5678e-26)
(4.06146 0.0635904 1.19032e-23)
(4.05823 0.0755025 2.41828e-26)
(4.06622 0.0454524 0)
(4.06339 0.0535479 0)
(4.07053 0.0321621 9.60575e-24)
(4.06899 0.0374927 -6.43038e-28)
(4.07553 0.0225503 -1.82013e-26)
(4.07394 0.0266187 1.92757e-26)
(4.0806 0.0157888 -4.09631e-25)
(4.07811 0.0192502 0)
(4.08408 0.0111122 7.81174e-24)
(4.08191 0.0137811 0)
(4.08667 0.00792455 -6.82404e-24)
(4.0854 0.00916063 0)
(4.0895 0.00537817 1.26373e-26)
(4.08853 0.00597517 -1.34021e-26)
(4.09253 0.00374727 0)
(4.09112 0.00460172 0)
(4.09448 0.00324744 4.34507e-22)
(4.09322 0.00374503 7.01944e-22)
(4.09547 0.00292297 -2.55116e-21)
(4.0949 0.00277325 1.1969e-21)
(4.09553 0.00230638 0)
(4.09509 -0.000119279 -5.22564e-22)
(4.09521 0.00135804 1.95645e-21)
(4.09314 -0.000469434 0)
(4.0938 0.000824295 5.13105e-22)
(4.09376 -0.000119277 -1.10437e-24)
(4.09316 0.000485772 0)
(4.09331 -0.000986196 2.81988e-25)
(4.09388 -0.000315744 2.17185e-27)
(4.0933 -0.000181116 0)
(4.09277 -0.000810047 0)
(4.09639 -0.000356267 0)
(4.09454 -0.000580351 0)
(4.09655 -0.000107744 3.75291e-26)
(4.0972 -0.000782932 0)
(4.09177 0.00220483 0)
(4.09373 0.00134683 0)
(4.09356 0.00141967 -1.16666e-21)
(4.09177 0.00241816 6.07328e-22)
(4.0965 0.00100393 -2.49725e-23)
(5.32757 0.721383 0)
(5.1867 0.553444 -9.08692e-21)
(4.28152 -0.948383 -2.05917e-20)