/*--------------------------------*- C++ -*----------------------------------*\
  =========                 |
  \\      /  F ield         | OpenFOAM: The Open Source CFD Toolbox
   \\    /   O peration     | Website:  https://openfoam.org
    \\  /    A nd           | Version:  10
     \\/     M anipulation  |
\*---------------------------------------------------------------------------*/
FoamFile
{
    format      ascii;
    class       volVectorField;
    location    "23";
    object      U;
}
// * * * * * * * * * * * * * * * * * * * * * * * * * * * * * * * * * * * * * //

dimensions      [0 1 -1 0 0 0 0];

internalField   nonuniform List<vector> 
28942
(
(0.00468791 -0.00239105 -3.0866e-22)
(0.00634565 -0.00250638 -5.54239e-23)
(0.0181952 -0.0125532 -9.33674e-22)
(0.103304 0.0182419 -5.59861e-21)
(0.102341 0.0222832 1.82997e-21)
(0.0224312 0.00081132 0)
(0.026722 0.000422537 1.98329e-23)
(0.0307383 0.00104204 -1.76482e-23)
(0.135046 -0.016336 -3.10987e-22)
(0.133578 -0.0147313 8.8078e-22)
(0.0107775 0.00471601 -5.61543e-22)
(0.0173969 0.00645983 2.00288e-22)
(0.00779395 0.00358915 0)
(0.00522847 0.00241968 0)
(0.0654143 0.0024938 -2.54133e-23)
(0.0632005 0.00341097 -8.72616e-24)
(0.0894216 0.0158544 7.04249e-22)
(0.087106 0.013847 1.13156e-21)
(0.0122315 -0.0151834 3.17534e-21)
(0.0295044 -0.0306063 -8.36751e-22)
(0.0984441 0.0371548 1.01346e-21)
(0.0975775 0.0342093 0)
(0.0196484 0.00507842 1.09586e-21)
(0.00829874 0.00257164 5.06169e-22)
(0.0390614 0.00776265 8.65784e-22)
(0.0591362 0.00340613 -7.89278e-22)
(0.00767761 -0.0184945 8.86158e-21)
(0.006718 -0.0165556 -3.25627e-21)
(0.035854 -0.0255098 6.48026e-22)
(0.0194781 -0.0137887 2.2545e-22)
(0.0229471 -0.00218942 0)
(0.0286894 -0.00207286 -2.15402e-23)
(0.035961 0.00589713 4.56764e-22)
(0.0505703 0.00228413 -8.31719e-23)
(0.0189688 0.0181288 1.40231e-21)
(0.0158319 0.0192423 -1.42482e-21)
(0.0323921 0.0378441 -3.2083e-21)
(0.0187879 0.0307289 -1.10868e-21)
(0.0125386 0.000196 -1.63699e-23)
(0.00870724 0.0163018 -2.72936e-21)
(0.0306462 -0.0062034 0)
(0.0513388 -0.0109701 0)
(0.108114 -0.01565 -4.51411e-23)
(0.107844 -0.0149789 1.33744e-22)
(0.1095 -0.0154657 1.15749e-22)
(0.0427282 0.000537015 1.96925e-23)
(0.039861 -0.000478168 -3.25572e-23)
(0.0556375 -0.000492245 -1.37229e-22)
(0.0534859 -0.000548872 3.86232e-23)
(0.0441131 -0.00356637 -3.36217e-22)
(0.0335405 -0.00452662 2.1488e-22)
(0.12649 0.00247419 -5.09206e-22)
(0.126024 0.00202161 -4.66412e-22)
(0.134519 -0.0192392 -3.95273e-24)
(0.132851 -0.017541 1.65934e-22)
(0.0856213 0.00799859 6.45591e-22)
(0.105044 0.000966927 2.01237e-22)
(0.00335436 0.00181339 -5.05656e-22)
(0.00963744 0.00409293 0)
(0.00882685 0.00360519 2.182e-22)
(0.00313955 0.00164659 4.35072e-22)
(0.000424895 0.000268231 -3.63946e-22)
(0.000244034 0.000157193 -3.43288e-22)
(0.11138 -0.0425224 0)
(0.106883 -0.0253103 9.87036e-23)
(0.123669 -0.0324368 -2.76439e-23)
(0.124931 -0.0432385 0)
(0.0903137 -0.0325693 -6.74451e-22)
(0.0938361 -0.0349982 -4.44468e-22)
(0.00200012 -0.00118973 1.01794e-21)
(0.00264582 -0.00212375 -3.2158e-22)
(0.00515691 -0.00332548 7.98501e-22)
(0.0851942 -0.0455665 0)
(0.091481 -0.0393712 2.29569e-21)
(0.0809173 -0.0529001 6.22149e-22)
(0.11683 0.0112327 1.74988e-22)
(0.115755 0.00536192 -1.96765e-22)
(0.127841 0.00913252 -4.82023e-23)
(0.00475076 -0.00290177 -6.01097e-23)
(0.00643053 -0.004487 5.32331e-22)
(0.0517203 -0.0314371 1.56604e-22)
(0.0336731 -0.0208059 -2.77553e-22)
(0.00222749 -0.000655921 3.09633e-21)
(0.00538643 -0.002199 -1.20843e-21)
(0.102353 0.0483471 3.23687e-23)
(0.0981453 0.0553639 -8.44074e-22)
(0.0815813 0.054283 7.76513e-22)
(0.0477153 0.0347863 -2.93356e-21)
(0.0449402 0.0318869 2.07854e-21)
(0.0298128 0.0207874 -1.27266e-22)
(0.0330524 0.0234533 -6.93205e-22)
(0.0383355 0.0285874 9.42968e-22)
(0.00516382 0.00349124 -3.95633e-23)
(0.00887288 0.00499399 -1.24361e-23)
(0.0036789 0.00247237 2.49204e-23)
(0.00228135 0.00205243 -3.21499e-22)
(0.00177955 0.00199893 3.86562e-22)
(0.0158932 0.0116437 -3.53144e-21)
(0.0176539 0.013744 8.1372e-22)
(0.00913455 -0.00402547 0)
(0.101389 0.00516079 0)
(0.0983999 0.0156858 -4.1593e-21)
(0.0604356 0.0104758 2.10774e-21)
(0.0886741 0.0178825 0)
(0.135979 -0.00644487 0)
(0.135338 -0.00740861 0)
(0.1342 -0.00787959 -4.86332e-22)
(0.115158 0.0258126 -2.33635e-22)
(0.114279 0.0272725 2.29934e-21)
(0.113433 0.0247452 1.2337e-21)
(0.00256124 0.00148555 9.2681e-22)
(0.00172872 0.000921833 -1.04025e-21)
(0.0200921 -0.00599305 -4.88171e-22)
(0.021444 -0.00567781 4.0415e-22)
(0.0097379 -0.00322015 7.8596e-22)
(0.00650687 0.0112414 1.532e-21)
(0.0190495 0.0182998 3.59032e-21)
(0.0135382 0.0229568 2.7383e-22)
(0.00494735 0.0144063 -8.94723e-21)
(0.118462 0.0475209 6.49612e-23)
(0.108866 0.0581175 1.19592e-21)
(0.119467 0.0545686 -2.0638e-21)
(0.0394143 -0.0296 7.92203e-22)
(0.0242028 -0.0173837 -5.18888e-22)
(0.00533315 -0.000693202 -4.25338e-21)
(0.00454821 -0.0035546 0)
(0.0125317 -0.00160349 2.08403e-21)
(0.0221244 -0.0162323 8.33875e-22)
(0.0345033 -0.0279384 -2.11464e-21)
(0.0529004 0.00010312 9.90064e-23)
(0.0559574 0.000267934 -6.73247e-23)
(0.0499057 0.000329524 -3.0335e-24)
(0.0282147 -0.0420908 0)
(0.0297611 -0.042934 0)
(0.0896135 -0.0186563 -5.04537e-22)
(0.0995809 -0.0220953 3.40617e-21)
(0.0870305 -0.0252799 0)
(0.0474524 -0.0403633 0)
(0.0585687 -0.0515241 -8.42803e-22)
(0.0416271 0.039575 2.19343e-21)
(6.03643e-05 0.000288529 4.02773e-22)
(-0.000160359 0.00018119 -2.52077e-22)
(0.0224688 -0.019345 -8.50402e-22)
(0.111253 -0.0156353 6.65201e-22)
(0.110809 -0.0151324 -1.24888e-22)
(0.118568 -0.00359546 -4.60417e-23)
(0.111839 0.00353759 6.13577e-23)
(0.120894 0.00249747 6.86338e-23)
(0.000136576 0.000310555 1.62789e-22)
(0.0441629 0.0346667 3.4309e-21)
(0.0624972 0.0465953 -8.47985e-22)
(0.0600229 0.0396825 -3.39748e-24)
(0.0353665 -0.00127097 8.55618e-24)
(0.0348742 -0.00135683 4.7147e-23)
(0.0376972 -0.0013273 2.5231e-24)
(0.0418965 -0.00107384 -2.34054e-23)
(0.0458135 0.0383343 1.35799e-22)
(0.0191195 0.0161736 0)
(0.000166145 -1.07425e-05 2.74314e-22)
(0.000471367 -0.000294017 -3.04601e-22)
(0.00210631 -0.00116711 2.01288e-22)
(0.0378096 -0.00824084 -1.75048e-21)
(0.0667423 -0.00265328 -6.9957e-22)
(0.0481494 -0.000673889 -2.11396e-24)
(0.0760633 -0.0074156 2.59793e-22)
(0.0720514 -0.0157495 -2.10546e-24)
(0.0946495 0.0397407 2.27596e-21)
(0.0918084 0.045321 9.89176e-23)
(0.0889556 0.0290021 1.28478e-21)
(0.0916941 0.0306895 -9.31066e-22)
(0.0990719 0.0408374 0)
(0.124546 -0.00146066 1.81667e-22)
(0.125138 -0.00187996 3.4878e-22)
(0.12752 -0.0105778 -3.52632e-22)
(0.128927 -0.0102794 6.0622e-22)
(0.117177 0.0232098 2.89494e-22)
(0.119256 0.0240203 -8.21296e-22)
(0.117273 0.0252546 0)
(0.115281 0.0240712 1.68899e-22)
(0.116893 0.0272281 0)
(0.117579 0.0353296 -6.07168e-22)
(0.11615 0.0374582 -3.28953e-22)
(0.111817 0.0414373 -5.87537e-22)
(0.114194 0.0394866 0)
(0.116988 0.0424269 1.96287e-21)
(0.114275 0.0444425 4.73362e-23)
(0.108832 0.0437365 -3.27494e-22)
(0.100163 0.0500525 -1.38393e-21)
(0.0988575 0.0452606 -2.4323e-22)
(0.0287102 -0.011139 -5.25131e-24)
(0.0372238 -0.0125605 1.42915e-24)
(0.00680213 -0.00278199 -5.90377e-22)
(0.0474741 5.61841e-05 -6.64683e-23)
(0.0594855 -0.00026943 0)
(4.49291e-06 -4.69476e-05 3.31144e-22)
(1.76326e-05 -5.52962e-05 1.70732e-22)
(0.0542423 -0.00232289 2.94246e-23)
(0.0629923 -0.00223758 1.08692e-23)
(0.0623928 -0.00146271 0)
(0.0526263 -0.000910076 1.27216e-23)
(0.10832 0.000987741 -1.50409e-22)
(0.108274 0.000877845 7.19934e-22)
(0.108431 0.0008946 3.48817e-22)
(0.00080698 0.00035942 3.34032e-22)
(-0.000147568 -0.000123221 -4.99007e-22)
(-0.000197207 -0.000174067 4.1104e-22)
(0.00164212 0.000701606 0)
(0.000108318 0.000110569 1.07013e-21)
(0.000208198 -2.22396e-05 -7.51101e-22)
(0.00782592 0.00386859 -9.31212e-22)
(0.00156352 0.00084211 -1.1367e-21)
(0.00183041 0.000917773 0)
(0.00158013 0.00759895 0)
(0.000580257 0.0033046 0)
(0.000314989 0.00199153 0)
(0.136532 -0.00658958 9.74951e-23)
(0.137005 -0.0064575 0)
(0.135853 -0.00763774 -1.12387e-22)
(0.0881931 -0.0147377 4.6598e-21)
(0.0901956 -0.0151412 -1.69193e-21)
(0.0891066 -0.0127729 0)
(0.110753 1.81424e-05 -8.64394e-24)
(0.110811 1.63666e-05 1.73014e-23)
(0.110692 2.06376e-05 -5.8495e-24)
(0.110865 1.49112e-05 0)
(0.110917 1.41891e-05 -1.10307e-23)
(0.110966 1.28149e-05 0)
(0.110965 -3.86472e-05 0)
(0.111012 1.03675e-05 4.09115e-23)
(0.11101 -3.93598e-05 0)
(0.110917 -3.94138e-05 -1.11023e-23)
(0.110866 -4.06377e-05 0)
(0.110811 -4.20329e-05 5.78802e-24)
(0.110753 -4.37981e-05 -8.64331e-24)
(0.110692 -4.55354e-05 5.84218e-24)
(0.111055 8.17225e-06 -3.91489e-23)
(0.111054 -3.93656e-05 -1.37021e-24)
(0.110628 2.32508e-05 8.28683e-28)
(0.110627 -4.67173e-05 -8.93814e-24)
(0.110558 2.59737e-05 4.756e-23)
(0.111095 6.86653e-06 3.65986e-26)
(0.111095 -3.83484e-05 -1.37097e-24)
(0.110559 -4.84649e-05 1.76219e-23)
(0.111134 5.42212e-06 3.68545e-23)
(0.111171 4.16614e-06 -3.68242e-23)
(0.111134 -3.74238e-05 2.76095e-24)
(0.111171 -3.64346e-05 5.45673e-24)
(0.110487 3.08565e-05 -4.62736e-23)
(0.110487 -5.08195e-05 -1.16002e-23)
(0.111206 2.87219e-06 0)
(0.111206 -3.55635e-05 -5.38217e-24)
(0.110411 3.42618e-05 5.7264e-27)
(0.110411 -5.24683e-05 -5.74075e-27)
(0.111239 1.81021e-06 0)
(0.111239 -3.459e-05 0)
(0.11033 3.74433e-05 0)
(0.11033 -5.4614e-05 0)
(0.11127 7.63265e-07 0)
(0.11127 -3.36735e-05 2.58651e-24)
(0.110244 4.09146e-05 -2.40618e-23)
(0.110244 -5.66516e-05 -5.87026e-27)
(0.1113 -9.7528e-08 1.35597e-25)
(0.1113 -3.26482e-05 -2.76241e-24)
(0.110153 4.44473e-05 2.41768e-23)
(0.110152 -5.89757e-05 0)
(0.111328 -9.98129e-07 0)
(0.111328 -3.16792e-05 0)
(0.110056 4.84728e-05 -1.53155e-24)
(0.110056 -6.1076e-05 2.62936e-23)
(0.111355 -1.81908e-06 1.67768e-23)
(0.111355 -3.05833e-05 0)
(0.109954 5.23355e-05 -1.40662e-25)
(0.109954 -6.36396e-05 -2.48869e-23)
(0.11138 -2.75732e-06 -2.50967e-23)
(0.11138 -2.96369e-05 -7.2852e-24)
(0.109844 5.48522e-05 2.5399e-23)
(0.109844 -6.6263e-05 0)
(0.111404 -3.65304e-06 8.26802e-24)
(0.111404 -2.85401e-05 4.85887e-24)
(0.109727 5.88041e-05 -1.28715e-23)
(0.109727 -6.98442e-05 2.61052e-23)
(0.111427 -4.43719e-06 -3.30489e-23)
(0.111428 -2.6848e-05 3.72491e-23)
(0.1096 5.97853e-05 1.32915e-23)
(0.109601 -7.39387e-05 4.20918e-25)
(0.111449 -5.16753e-06 0)
(0.11145 -2.56025e-05 1.77654e-23)
(0.109464 6.15815e-05 -2.67696e-23)
(0.109466 -7.97585e-05 5.35595e-23)
(0.111471 -5.49021e-06 0)
(0.111471 -2.51745e-05 0)
(0.109607 0.000192107 -1.31518e-23)
(0.109471 0.000202614 -5.33217e-23)
(0.109317 6.24211e-05 0)
(0.109321 -8.81044e-05 -2.73289e-23)
(0.109851 0.000171395 -8.24884e-24)
(0.109732 0.000181888 1.61975e-24)
(0.110063 0.000150835 0)
(0.109959 0.000161129 -2.65896e-23)
(0.11025 0.00013216 -5.12091e-26)
(0.110159 0.000141242 0)
(0.110417 0.000115293 0)
(0.110336 0.000123532 0)
(0.110566 9.91612e-05 0)
(0.110493 0.00010724 0)
(0.110696 8.60938e-05 1.15531e-23)
(0.110632 9.25415e-05 2.91337e-24)
(0.110814 7.50095e-05 -1.11362e-23)
(0.110757 8.03511e-05 -1.15421e-23)
(0.110919 6.53401e-05 1.9761e-23)
(0.110868 6.94556e-05 2.528e-23)
(0.111014 5.68969e-05 0)
(0.110968 6.12788e-05 0)
(0.111098 4.88162e-05 -8.68342e-26)
(0.111057 5.27641e-05 0)
(0.111174 4.17208e-05 0)
(0.111137 4.5145e-05 0)
(0.111241 3.5509e-05 0)
(0.111208 3.852e-05 0)
(0.111302 3.00081e-05 0)
(0.111272 3.26714e-05 0)
(0.111357 2.51999e-05 0)
(0.11133 2.75245e-05 0)
(0.111406 2.10065e-05 0)
(0.111382 2.30394e-05 0)
(0.111451 1.63733e-05 -1.35185e-23)
(0.111429 1.90846e-05 0)
(0.111472 1.422e-05 -4.37212e-24)
(0.111491 -6.19284e-06 4.26572e-24)
(0.111491 -2.4652e-05 -4.23023e-24)
(0.111429 -4.90194e-05 0)
(0.111472 -4.4778e-05 -1.73565e-23)
(0.111451 -4.66056e-05 -8.92812e-24)
(0.111382 -5.426e-05 2.44137e-24)
(0.111406 -5.15604e-05 -9.5638e-24)
(0.11133 -5.92158e-05 7.90686e-26)
(0.111356 -5.68756e-05 0)
(0.111272 -6.39845e-05 0)
(0.111302 -6.15556e-05 0)
(0.111208 -6.9216e-05 0)
(0.111241 -6.6523e-05 0)
(0.111136 -7.50508e-05 0)
(0.111173 -7.206e-05 1.04004e-29)
(0.111057 -8.15544e-05 8.77575e-26)
(0.111098 -7.82045e-05 0)
(0.110968 -8.88296e-05 0)
(0.111013 -8.52618e-05 0)
(0.110869 -9.60482e-05 0)
(0.110919 -9.24355e-05 0)
(0.110757 -0.000104808 0)
(0.110814 -9.99457e-05 -5.84858e-24)
(0.110632 -0.00011563 1.5384e-24)
(0.110696 -0.000110728 -7.54895e-24)
(0.110492 -0.000128633 0)
(0.110565 -0.000121377 -6.14602e-24)
(0.110335 -0.000142372 0)
(0.110416 -0.000135357 0)
(0.110158 -0.000157816 0)
(0.110249 -0.000149838 0)
(0.109959 -0.000175372 0)
(0.110061 -0.00016636 0)
(0.109733 -0.000194995 -6.73954e-24)
(0.10985 -0.000184537 0)
(0.109477 -0.0002196 -2.74072e-23)
(0.109609 -0.000205993 -6.78779e-24)
(0.109333 -0.00023527 2.79386e-23)
(0.109325 0.000214142 5.28942e-23)
(0.111493 1.25065e-05 8.55774e-24)
(0.111492 -4.31456e-05 -1.67293e-23)
(0.109164 -9.89061e-05 0)
(0.109179 -0.000254648 0)
(0.109169 0.000226514 0)
(0.10916 6.19048e-05 0)
(0.109622 0.000322451 0)
(0.109346 0.000364651 1.32497e-23)
(0.109489 0.000342507 1.33582e-23)
(0.109864 0.000284356 1.6948e-23)
(0.109747 0.000303041 -3.38807e-24)
(0.110075 0.00024996 5.23135e-26)
(0.109973 0.000266477 0)
(0.110261 0.000220033 0)
(0.110171 0.000234542 0)
(0.110426 0.000193554 0)
(0.110346 0.00020639 0)
(0.110574 0.000170392 0)
(0.110502 0.000181498 0)
(0.110705 0.000149351 0)
(0.110641 0.000159648 0)
(0.110821 0.000131491 -4.66942e-26)
(0.110764 0.000140458 1.2045e-23)
(0.110925 0.0001156 -4.48249e-26)
(0.110875 0.00012295 -2.35122e-23)
(0.111019 0.00010115 0)
(0.110973 0.000108107 0)
(0.111103 8.8484e-05 4.33761e-26)
(0.111062 9.4626e-05 0)
(0.111178 7.73393e-05 0)
(0.111141 8.27296e-05 0)
(0.111245 6.7511e-05 0)
(0.111212 7.22676e-05 0)
(0.111305 5.88447e-05 0)
(0.111276 6.30324e-05 0)
(0.11136 5.12084e-05 0)
(0.111333 5.48987e-05 0)
(0.111409 4.43354e-05 0)
(0.111385 4.76915e-05 0)
(0.111453 3.72602e-05 9.23298e-24)
(0.111432 4.08492e-05 0)
(0.111511 -6.99769e-06 0)
(0.111512 1.10722e-05 8.37773e-24)
(0.111494 3.07841e-05 0)
(0.111474 3.38195e-05 9.00239e-24)
(0.111473 -6.4805e-05 1.79177e-23)
(0.111493 -6.20921e-05 4.40577e-24)
(0.111511 -4.17408e-05 3.43599e-23)
(0.111511 -2.38986e-05 0)
(0.111431 -7.17162e-05 0)
(0.111453 -6.80133e-05 -2.70454e-23)
(0.111384 -7.90682e-05 7.69266e-26)
(0.111408 -7.52864e-05 9.62197e-24)
(0.111333 -8.62945e-05 -7.90683e-26)
(0.111359 -8.26338e-05 0)
(0.111275 -9.40926e-05 0)
(0.111305 -9.01005e-05 0)
(0.111212 -0.000102754 0)
(0.111244 -9.83009e-05 0)
(0.111141 -0.00011245 0)
(0.111177 -0.000107467 -1.04004e-29)
(0.111062 -0.000123289 -1.75484e-25)
(0.111102 -0.00011772 0)
(0.110973 -0.000135671 0)
(0.111019 -0.000129246 0)
(0.110874 -0.000149393 2.95282e-24)
(0.110925 -0.000142317 0)
(0.110764 -0.000164609 0)
(0.110821 -0.000156529 -2.9405e-24)
(0.11064 -0.000182462 6.16007e-24)
(0.110703 -0.000173393 6.11709e-24)
(0.110501 -0.00020254 0)
(0.110573 -0.000192256 0)
(0.110345 -0.000225268 0)
(0.110425 -0.000213542 0)
(0.110169 -0.000251165 0)
(0.11026 -0.000237789 0)
(0.109971 -0.000280752 0)
(0.110073 -0.000265481 0)
(0.109747 -0.000314562 1.08116e-25)
(0.109863 -0.000297072 0)
(0.109494 -0.000353777 -1.09925e-25)
(0.109625 -0.000333401 0)
(0.109203 -0.000404517 -2.88041e-23)
(0.109354 -0.000377842 2.87908e-23)
(0.109193 0.00038841 2.70021e-23)
(0.109015 -0.000277456 0)
(0.109042 -0.000436155 -5.87874e-23)
(0.108997 -0.000110954 0)
(0.111513 2.86417e-05 0)
(0.111513 -5.94108e-05 -4.27752e-24)
(0.109003 0.000239935 6.85623e-23)
(0.10903 0.000414321 2.74349e-23)
(0.108838 -0.000302181 1.48588e-23)
(0.108868 -0.000471147 7.42986e-23)
(0.108991 6.17049e-05 0)
(0.111497 5.02788e-05 3.5253e-23)
(0.111516 4.64821e-05 -1.74189e-23)
(0.11153 -4.05493e-05 -8.47108e-24)
(0.111531 -5.68005e-05 4.21331e-23)
(0.109073 0.000584898 9.60255e-23)
(0.108854 0.000443116 -5.40068e-23)
(0.108712 0.000673777 -2.44712e-22)
(0.108899 0.000625916 -5.48506e-23)
(0.10938 0.000512708 2.67012e-23)
(0.109231 0.000547592 -8.1689e-23)
(0.109648 0.000449935 -2.72655e-23)
(0.109518 0.000480342 -2.0598e-23)
(0.109886 0.000395512 -6.77961e-24)
(0.109771 0.000422022 -6.79629e-24)
(0.110094 0.000348294 -5.23135e-26)
(0.109993 0.000371012 0)
(0.110278 0.00030716 0)
(0.110188 0.000327059 0)
(0.110441 0.000271032 0)
(0.110362 0.000288517 0)
(0.110586 0.000239286 0)
(0.110516 0.000254638 0)
(0.110716 0.000211253 0)
(0.110653 0.000224774 0)
(0.110831 0.000186427 0)
(0.110775 0.000198432 0)
(0.110934 0.000164492 1.0682e-29)
(0.110884 0.000175238 0)
(0.111027 0.000145073 0)
(0.110982 0.000154431 0)
(0.11111 0.000127878 4.33634e-26)
(0.111069 0.000136222 0)
(0.111184 0.000112663 0)
(0.111148 0.000120034 0)
(0.111251 9.92229e-05 0)
(0.111218 0.000105734 0)
(0.11131 8.73598e-05 0)
(0.111281 9.31045e-05 0)
(0.111364 7.68753e-05 0)
(0.111338 8.19572e-05 0)
(0.111413 6.74693e-05 0)
(0.111389 7.20645e-05 0)
(0.111457 5.848e-05 4.70618e-24)
(0.111436 6.2903e-05 -2.36763e-24)
(0.111478 5.42628e-05 -1.7977e-23)
(0.111529 -7.2325e-06 -4.01105e-24)
(0.111532 2.65669e-05 1.67842e-23)
(0.11153 9.50333e-06 -1.28193e-23)
(0.111529 -2.33593e-05 0)
(0.111476 -8.52687e-05 -1.3353e-23)
(0.111515 -7.71098e-05 -3.85795e-23)
(0.111496 -8.10251e-05 3.10444e-23)
(0.111434 -9.44566e-05 0)
(0.111456 -8.97982e-05 0)
(0.111388 -0.000103392 -3.45954e-30)
(0.111412 -9.87054e-05 0)
(0.111337 -0.000113191 0)
(0.111363 -0.000108179 0)
(0.11128 -0.000124015 -8.12134e-26)
(0.111309 -0.000118462 0)
(0.111217 -0.000136085 0)
(0.11125 -0.000129882 0)
(0.111147 -0.000149606 0)
(0.111183 -0.000142654 0)
(0.111069 -0.000164774 8.7739e-26)
(0.111109 -0.000156973 0)
(0.110981 -0.000181893 8.99272e-26)
(0.111026 -0.000173058 0)
(0.110884 -0.000201169 0)
(0.110934 -0.000191229 0)
(0.110774 -0.000222992 0)
(0.11083 -0.000211774 0)
(0.110652 -0.000247698 0)
(0.110715 -0.000234887 0)
(0.110514 -0.000275636 0)
(0.110585 -0.000261233 0)
(0.110359 -0.000307446 -1.01132e-25)
(0.110439 -0.000291027 0)
(0.110186 -0.0003437 0)
(0.110275 -0.000324979 0)
(0.10999 -0.000385105 0)
(0.110091 -0.000363718 0)
(0.109769 -0.000432467 -2.42736e-29)
(0.109883 -0.000407988 0)
(0.109519 -0.000486872 3.12833e-29)
(0.109648 -0.000458718 0)
(0.109235 -0.000551837 1.14128e-25)
(0.109382 -0.000517384 0)
(0.108909 -0.000634406 -6.02686e-23)
(0.109078 -0.00059053 1.47879e-23)
(0.108683 -0.000508201 1.51745e-23)
(0.10873 -0.000682693 3.00844e-23)
(0.108825 0.000253758 -2.67846e-23)
(0.108818 -0.000124887 -2.87999e-23)
(0.111534 4.33436e-05 4.27109e-24)
(0.111533 -7.37955e-05 3.0326e-23)
(0.10866 0.000470867 3.29649e-24)
(0.108648 -0.000330048 0)
(0.108478 0.000702715 3.74144e-22)
(0.108539 -0.000734461 4.65667e-23)
(0.108488 -0.00054882 6.20985e-23)
(0.108523 0.000983878 -6.29941e-22)
(0.108367 0.00107154 1.12423e-22)
(0.108814 6.2108e-05 0)
(0.108806 0.00085895 6.18676e-23)
(0.108653 0.000926979 3.22162e-23)
(0.109129 0.000748585 5.56998e-23)
(0.108966 0.000800454 -8.50729e-23)
(0.109424 0.00065493 -2.76722e-23)
(0.109281 0.000700529 -1.38379e-23)
(0.109685 0.000574275 1.38497e-23)
(0.109559 0.000612874 1.40508e-23)
(0.109915 0.000504833 0)
(0.109803 0.000538276 -3.55382e-26)
(0.110119 0.000445032 0)
(0.11002 0.000473885 0)
(0.110299 0.000392925 5.11377e-26)
(0.110212 0.000418104 0)
(0.11046 0.000347286 0)
(0.110382 0.000369366 0)
(0.110603 0.000307171 0)
(0.110533 0.000326588 0)
(0.11073 0.000271832 0)
(0.110668 0.000288939 0)
(0.110844 0.000240587 4.66458e-26)
(0.110789 0.000255712 0)
(0.110946 0.000212916 1.02198e-29)
(0.110896 0.000226379 0)
(0.111037 0.000188436 0)
(0.110993 0.000200286 0)
(0.111119 0.000166724 -8.67182e-26)
(0.111079 0.00017726 0)
(0.111192 0.000147498 0)
(0.111156 0.000156817 0)
(0.111258 0.000130501 0)
(0.111226 0.000138739 0)
(0.111317 0.000115481 0)
(0.111288 0.000122759 0)
(0.11137 0.0001022 0)
(0.111344 0.000108639 0)
(0.111418 9.0361e-05 0)
(0.111395 9.61279e-05 0)
(0.111462 7.95458e-05 -2.35138e-24)
(0.11144 8.47339e-05 0)
(0.111501 6.97437e-05 0)
(0.111482 7.45624e-05 -4.56526e-24)
(0.111537 6.02778e-05 1.85642e-27)
(0.11152 6.48957e-05 0)
(0.111549 2.45094e-05 -1.70173e-23)
(0.111554 5.63693e-05 1.0285e-24)
(0.111551 4.07682e-05 8.34189e-24)
(0.111547 -7.29202e-06 6.12189e-24)
(0.111547 8.39041e-06 -4.22566e-24)
(0.111547 -3.95006e-05 -2.12704e-24)
(0.111546 -2.31456e-05 2.12363e-24)
(0.11155 -7.12593e-05 0)
(0.111548 -5.49156e-05 -1.93024e-23)
(0.111518 -9.56128e-05 -8.67603e-24)
(0.111552 -8.78669e-05 -1.66048e-23)
(0.111535 -9.14088e-05 3.82074e-23)
(0.11148 -0.000105373 -4.54609e-24)
(0.111499 -0.000100305 0)
(0.111439 -0.000116284 0)
(0.11146 -0.000110753 0)
(0.111393 -0.000127426 -5.61943e-30)
(0.111417 -0.000121759 0)
(0.111343 -0.000139799 0)
(0.111369 -0.000133448 0)
(0.111287 -0.000153587 8.12134e-26)
(0.111316 -0.000146505 0)
(0.111225 -0.000169011 0)
(0.111257 -0.000161082 0)
(0.111156 -0.000186309 0)
(0.111191 -0.000177412 0)
(0.111078 -0.000205749 0)
(0.111118 -0.000195745 0)
(0.110992 -0.000227658 -1.22217e-29)
(0.111036 -0.000216375 0)
(0.110896 -0.000252361 0)
(0.110945 -0.000239635 0)
(0.110788 -0.000280308 0)
(0.110843 -0.000265915 0)
(0.110667 -0.000311948 0)
(0.110729 -0.000295614 0)
(0.110531 -0.000347816 0)
(0.110601 -0.000329315 0)
(0.110379 -0.000388594 1.01132e-25)
(0.110457 -0.000367552 0)
(0.110208 -0.000435045 0)
(0.110296 -0.000411061 0)
(0.110015 -0.000488088 0)
(0.110114 -0.000460686 0)
(0.109798 -0.000548795 -1.08081e-25)
(0.10991 -0.000517412 0)
(0.109552 -0.00061845 1.10445e-25)
(0.109679 -0.000582422 0)
(0.109274 -0.000698967 -1.12838e-25)
(0.109418 -0.000657187 0)
(0.108959 -0.000795287 1.48855e-23)
(0.109122 -0.000744222 -2.9339e-23)
(0.1086 -0.000914168 -1.50562e-23)
(0.108785 -0.000851669 3.058e-23)
(0.108335 -0.000790163 6.54594e-25)
(0.108403 -0.000981489 3.10718e-23)
(0.108635 0.000265884 -2.76255e-23)
(0.108629 -0.000137335 0)
(0.108458 0.000493675 -2.68156e-22)
(0.108449 -0.000354399 0)
(0.111541 7.845e-05 -4.27713e-24)
(0.111558 7.37338e-05 3.13332e-24)
(0.111566 -6.86288e-05 -1.63482e-23)
(0.111569 -8.42707e-05 -1.85293e-23)
(0.108258 0.000711646 -2.63446e-22)
(0.108279 -0.000592395 -6.2706e-23)
(0.108193 0.00108767 0)
(0.108589 0.00117226 -7.2986e-23)
(0.108117 -0.000850616 -3.07821e-23)
(0.108191 -0.00105449 4.72909e-23)
(0.108403 0.00123661 1.46279e-22)
(0.108625 6.2489e-05 0)
(0.108892 0.00102991 0)
(0.108741 0.00110187 -6.47892e-23)
(0.109196 0.000902691 0)
(0.109045 0.000964435 0)
(0.109478 0.000790328 0)
(0.109341 0.00084438 1.43363e-23)
(0.109729 0.000694364 0)
(0.109607 0.000740542 0)
(0.109952 0.000611472 0)
(0.109843 0.0006514 0)
(0.11015 0.000539625 0)
(0.110054 0.000574311 0)
(0.110326 0.000476967 -5.11377e-26)
(0.110241 0.000507244 0)
(0.110484 0.000422095 0)
(0.110407 0.00044864 0)
(0.110624 0.000373863 0)
(0.110556 0.000397214 0)
(0.110749 0.000331349 0)
(0.110688 0.000351944 0)
(0.11086 0.00029379 -1.28464e-29)
(0.110806 0.000311993 0)
(0.11096 0.000260547 1.17422e-29)
(0.110912 0.000276675 0)
(0.11105 0.000231094 0)
(0.111006 0.000245374 0)
(0.11113 0.000204973 1.00333e-29)
(0.111091 0.000217645 0)
(0.111202 0.000181825 0)
(0.111167 0.000193049 0)
(0.111267 0.000161339 0)
(0.111235 0.000171271 0)
(0.111325 0.000143219 0)
(0.111297 0.000152002 0)
(0.111377 0.000127192 0)
(0.111352 0.000134962 0)
(0.111425 0.000112988 0)
(0.111401 0.00011988 0)
(0.111467 0.000100404 0)
(0.111446 0.000106529 0)
(0.111506 8.85386e-05 4.53392e-24)
(0.111487 9.42218e-05 4.63458e-24)
(0.111524 8.32121e-05 -8.707e-24)
(0.111565 2.26989e-05 -8.35653e-24)
(0.11157 5.33165e-05 0)
(0.111568 3.82885e-05 -8.43924e-24)
(0.111563 -7.50368e-06 0)
(0.111564 7.72405e-06 8.52838e-24)
(0.111563 -3.86326e-05 1.27291e-23)
(0.111563 -2.31313e-05 -4.30186e-24)
(0.111564 -5.33346e-05 -2.50148e-23)
(0.111522 -0.000114016 4.37609e-24)
(0.111556 -0.00010346 1.63123e-23)
(0.111539 -0.000109196 0)
(0.111485 -0.000125369 -9.05704e-24)
(0.111504 -0.000119493 9.08694e-24)
(0.111444 -0.000137701 0)
(0.111465 -0.00013154 0)
(0.1114 -0.000151075 -7.42541e-30)
(0.111423 -0.000144221 0)
(0.11135 -0.000166007 0)
(0.111376 -0.000158334 0)
(0.111295 -0.000182709 0)
(0.111323 -0.000174124 0)
(0.111234 -0.000201427 0)
(0.111265 -0.000191801 0)
(0.111166 -0.000222442 0)
(0.111201 -0.000211631 0)
(0.11109 -0.000246075 8.77063e-26)
(0.111129 -0.000233912 0)
(0.111005 -0.000272713 -8.9915e-26)
(0.111049 -0.000258997 0)
(0.11091 -0.000302767 0)
(0.110959 -0.000287286 0)
(0.110804 -0.000336735 0)
(0.110859 -0.000319233 0)
(0.110686 -0.000375196 0)
(0.110747 -0.000355366 0)
(0.110553 -0.000418802 0)
(0.110621 -0.000396313 0)
(0.110403 -0.000468345 0)
(0.11048 -0.000442783 0)
(0.110236 -0.000524753 0)
(0.110322 -0.000495632 0)
(0.110047 -0.00058913 -1.05682e-25)
(0.110144 -0.000555876 0)
(0.109834 -0.00066279 1.08013e-25)
(0.109944 -0.000624713 0)
(0.109594 -0.00074733 -1.10368e-25)
(0.109718 -0.000703596 0)
(0.109323 -0.000844742 0)
(0.109463 -0.000794287 0)
(0.109017 -0.000957595 0)
(0.109175 -0.00089902 0)
(0.10867 -0.00109071 1.19058e-25)
(0.10885 -0.00102079 1.50516e-23)
(0.108276 -0.00125248 -7.91802e-23)
(0.108479 -0.00116761 0)
(0.107965 -0.00113665 -4.68535e-23)
(0.108058 -0.00134586 -6.65202e-25)
(0.108434 0.000277992 8.64982e-23)
(0.108428 -0.000149031 0)
(0.111574 6.89584e-05 -1.62861e-23)
(0.111572 -9.90823e-05 -3.1412e-23)
(0.108232 0.000505264 -4.61426e-23)
(0.108082 0.000954175 6.51126e-25)
(0.108027 0.000730318 1.3432e-22)
(0.108238 -0.000379195 0)
(0.108057 -0.000634439 1.58093e-23)
(0.108178 0.00129791 -1.34258e-22)
(0.107967 0.00132959 1.16586e-22)
(0.107892 0.00105651 -1.15241e-22)
(0.107884 -0.000913776 -4.75336e-23)
(0.107723 -0.00122258 3.18905e-23)
(0.107824 -0.00145087 3.11625e-23)
(0.108423 6.25482e-05 0)
(0.108656 0.00135155 4.06949e-24)
(0.108246 0.00153191 -7.16555e-25)
(0.108458 0.00143744 3.15753e-23)
(0.108975 0.00119164 3.11284e-23)
(0.108822 0.00126944 -3.12902e-23)
(0.109269 0.00104715 5.69233e-26)
(0.109124 0.00111764 0)
(0.109538 0.000920279 0)
(0.109407 0.000981414 0)
(0.109779 0.00081036 0)
(0.109662 0.000863386 0)
(0.109995 0.000714832 0)
(0.10989 0.000760927 0)
(0.110187 0.000631629 5.22403e-26)
(0.110094 0.00067182 0)
(0.110359 0.000558918 0)
(0.110275 0.000594069 0)
(0.110511 0.000495163 0)
(0.110437 0.000526012 0)
(0.110648 0.000439084 0)
(0.110582 0.000466239 0)
(0.11077 0.000389623 0)
(0.110711 0.000413587 0)
(0.110879 0.000345913 -4.66329e-26)
(0.110826 0.000367101 0)
(0.110977 0.00030722 1.35337e-29)
(0.110929 0.000325985 0)
(0.111065 0.000272927 0)
(0.111022 0.000289559 0)
(0.111143 0.00024251 8.66782e-26)
(0.111105 0.000257266 0)
(0.111214 0.000215536 0)
(0.111179 0.000228618 0)
(0.111277 0.000191639 0)
(0.111246 0.000203227 0)
(0.111334 0.000170483 0)
(0.111306 0.00018074 0)
(0.111386 0.00015176 0)
(0.111361 0.000160837 0)
(0.111432 0.000135184 0)
(0.111409 0.000143222 0)
(0.111474 0.00012052 7.38044e-26)
(0.111453 0.000127636 0)
(0.111512 0.000107214 -4.55372e-24)
(0.111493 0.000113809 0)
(0.111546 9.46756e-05 4.33534e-24)
(0.111529 0.000100796 0)
(0.111578 8.36935e-05 4.14541e-24)
(0.111562 8.90569e-05 -4.23443e-24)
(0.111586 5.03397e-05 8.19278e-24)
(0.111593 7.8461e-05 0)
(0.111589 6.51153e-05 1.21942e-23)
(0.111581 2.1466e-05 0)
(0.111583 3.57628e-05 0)
(0.111578 -7.8999e-06 0)
(0.111579 7.00701e-06 0)
(0.111579 -3.78982e-05 0)
(0.111578 -2.29386e-05 0)
(0.111581 -6.64895e-05 1.66615e-23)
(0.11158 -5.20942e-05 4.14231e-24)
(0.111587 -9.52209e-05 4.10068e-24)
(0.111584 -8.09214e-05 3.26706e-23)
(0.11156 -0.000119642 2.12684e-23)
(0.11159 -0.000109748 4.08495e-24)
(0.111575 -0.000114385 -8.29115e-24)
(0.111527 -0.000131636 4.37087e-24)
(0.111544 -0.00012541 -2.62002e-23)
(0.111491 -0.000144825 -3.0191e-30)
(0.111509 -0.000138091 0)
(0.111451 -0.000158704 0)
(0.111472 -0.000151571 0)
(0.111407 -0.000174284 -9.23223e-30)
(0.11143 -0.000166278 0)
(0.111359 -0.000191735 0)
(0.111384 -0.000182763 0)
(0.111305 -0.000211294 0)
(0.111332 -0.000201237 0)
(0.111245 -0.000233241 0)
(0.111276 -0.000221953 0)
(0.111178 -0.000257898 0)
(0.111212 -0.000245212 0)
(0.111104 -0.00028564 -1.75396e-25)
(0.111142 -0.000271361 0)
(0.111021 -0.000316907 0)
(0.111063 -0.000300807 0)
(0.110928 -0.000352188 0)
(0.110976 -0.000334015 0)
(0.110824 -0.000392055 0)
(0.110878 -0.000371514 0)
(0.110708 -0.000437173 0)
(0.110768 -0.000413916 0)
(0.110578 -0.000488311 -9.87843e-26)
(0.110645 -0.000461941 0)
(0.110432 -0.000546377 0)
(0.110507 -0.00051642 0)
(0.110269 -0.000612447 0)
(0.110353 -0.000578343 0)
(0.110085 -0.000687796 1.05682e-25)
(0.110179 -0.00064888 0)
(0.109878 -0.000773948 -4.49782e-29)
(0.109984 -0.000729422 0)
(0.109644 -0.000872756 2.20686e-25)
(0.109765 -0.000821649 0)
(0.109382 -0.000986466 0)
(0.109517 -0.0009276 0)
(0.109085 -0.00111774 0)
(0.109238 -0.00104971 0)
(0.10875 -0.00126969 -7.9292e-29)
(0.108923 -0.0011909 0)
(0.108371 -0.00144701 0)
(0.108566 -0.00135488 0)
(0.107939 -0.00166449 -4.74339e-23)
(0.108162 -0.0015498 0)
(0.107575 -0.00156222 -6.64583e-25)
(0.1077 -0.00179225 8.09379e-23)
(0.108213 0.000287155 0)
(0.108037 0.00160405 1.83266e-22)
(0.107997 0.00051815 3.16216e-23)
(0.111583 9.82949e-05 -4.13761e-24)
(0.111597 9.29185e-05 0)
(0.111601 -9.18706e-05 3.99885e-24)
(0.111604 -0.000105309 -7.926e-24)
(0.108214 -0.000160301 0)
(0.108014 -0.000405526 0)
(0.107806 0.000793368 0)
(0.10782 -0.000678761 -1.55708e-23)
(0.107635 -0.000983112 -3.15576e-23)
(0.107464 -0.00131851 0)
(0.107309 -0.00168312 8.17869e-23)
(0.107446 -0.00192844 -6.52868e-23)
(0.108206 6.29683e-05 0)
(0.108342 0.00174251 -1.51993e-26)
(0.107801 0.00168289 5.82177e-23)
(0.107911 0.00195431 -2.08267e-22)
(0.108133 0.00184732 6.03873e-23)
(0.108734 0.0015274 -1.96397e-23)
(0.108542 0.00162983 -3.13065e-23)
(0.109058 0.00134643 0)
(0.108904 0.00143379 0)
(0.109345 0.00118599 -5.69181e-26)
(0.109204 0.00126392 0)
(0.109604 0.00104509 0)
(0.109478 0.00111316 0)
(0.109836 0.000922043 0)
(0.109723 0.00098148 0)
(0.110044 0.00081463 0)
(0.109943 0.000866524 0)
(0.110229 0.000720737 -5.22403e-26)
(0.110139 0.000766125 0)
(0.110395 0.000638473 0)
(0.110315 0.000678263 0)
(0.110543 0.000566219 0)
(0.110471 0.000601191 0)
(0.110676 0.000502594 0)
(0.110612 0.000533409 0)
(0.110795 0.000446438 0)
(0.110737 0.000473651 0)