/*--------------------------------*- C++ -*----------------------------------*\
  =========                 |
  \\      /  F ield         | OpenFOAM: The Open Source CFD Toolbox
   \\    /   O peration     | Website:  https://openfoam.org
    \\  /    A nd           | Version:  10
     \\/     M anipulation  |
\*---------------------------------------------------------------------------*/
FoamFile
{
    format      ascii;
    class       surfaceScalarField;
    location    "20.5";
    object      phi;
}
// * * * * * * * * * * * * * * * * * * * * * * * * * * * * * * * * * * * * * //

dimensions      [0 3 -1 0 0 0 0];

internalField   nonuniform List<scalar> 
12623
(
0.377626
0.0871392
-0.142144
-0.322621
0.289127
-0.117968
0.206467
0.401015
-0.167311
-0.370632
0.136927
-0.153447
0.420592
0.13387
-0.367782
0.118623
-0.120948
0.370108
-0.354248
-0.166981
-0.0059014
0.163662
-0.187477
0.0297164
-0.203213
0.197312
0.0187349
-0.0257609
0.00702603
0.0493032
0.00471732
-0.0352857
0.442911
-0.187626
-0.255285
-0.284282
0.228917
0.498276
-0.204479
-0.147434
0.149969
0.201944
0.0191245
0.0334023
-0.257006
-0.193971
0.0656612
0.104359
0.0352361
-0.118746
-0.0208485
0.00167315
-0.10186
0.204546
0.0187053
0.0182039
-0.0231664
-0.0479634
0.0291771
0.0419526
-0.0914249
0.000544955
0.0677136
-0.0659262
-0.0734621
-0.0145911
-0.00558966
-0.0302447
0.0504255
-0.0243396
-0.037025
0.0467735
-0.0725647
0.0426354
-0.272758
0.0253107
0.28085
0.0405373
-0.304257
-0.00903841
-0.310577
0.0239213
0.311967
-0.204234
0.18079
-0.187979
0.211422
-0.199385
-0.166833
0.161985
-0.202917
0.209787
-0.181908
0.175038
-0.198517
0.176391
-0.464462
0.0969486
-0.0855614
0.453075
-0.119299
-0.440944
0.0957805
0.419916
-0.501605
0.033391
-0.0194788
0.487693
-0.0533418
-0.485537
0.0372745
-0.499235
-0.0434627
0.489356
-0.469727
0.0674414
0.451246
-0.0372856
-0.480109
0.0661486
-0.0047352
0.0663915
0.38959
-0.488344
-0.0137119
0.46477
-0.486881
0.0319284
0.183289
-0.183857
0.210355
-0.268215
0.192171
-0.190065
0.266109
-0.202586
-0.252692
0.187063
-0.180299
-0.341259
-0.31069
-0.164047
0.307756
-0.298819
-0.0500259
-0.309384
0.0421467
0.317263
0.233963
0.0346781
-0.318667
-0.246013
0.0890426
0.390934
-0.0897156
0.367329
-0.305122
0.027509
-0.301051
0.309698
0.0755998
-0.0836709
-0.301627
0.0687464
0.289813
-0.0488614
-0.0282819
0.017098
0.314343
-0.303159
-0.325299
0.322577
-0.0255598
0.317726
-0.0322041
0.0364002
-0.321923
0.234499
-0.249304
0.166567
-0.151762
0.119259
0.219207
-0.103967
-0.265248
0.196584
-0.18064
-0.269775
0.208374
-0.203847
-0.273961
0.2093
-0.205114
-0.268638
0.206759
-0.212081
-0.26601
0.200447
-0.203076
-0.251797
0.190158
-0.204371
-0.238497
0.177675
-0.190975
0.152819
-0.218496
-0.172819
0.246588
-0.25884
0.13151
0.0562262
0.207991
-0.0450106
0.235229
0.0675852
-0.272534
0.180262
-0.277051
0.201101
-0.281787
0.213109
-0.280156
0.20767
-0.277523
0.204125
-0.265023
0.187947
-0.253446
0.178582
-0.232827
0.157055
-0.215832
0.135824
0.0126836
0.224292
-0.00174669
0.201004
0.0196704
0.11333
-0.200873
-0.130953
-0.195405
0.0929035
0.0755047
0.217747
-0.0689594
0.194684
0.0818253
0.0560271
-0.183972
-0.0729287
-0.182223
0.0428444
0.130056
0.212821
-0.125131
0.125354
-0.0132964
-0.178356
0.00768072
-0.177012
-0.0185067
0.214392
-0.168404
-0.200504
0.226917
-0.0856002
0.0879465
-0.180703
-0.0775336
-0.185079
0.245109
-0.250065
-0.120174
-0.235389
0.241221
-0.206336
-0.158684
0.262873
-0.273141
0.00852188
-0.0561516
0.283019
-0.289383
0.137874
0.0774628
0.294917
-0.295677
0.201862
0.185796
0.293785
-0.288987
0.202871
0.211217
0.280063
-0.2673
0.175184
0.195202
0.250915
-0.231651
0.137791
0.162197
0.210855
-0.198369
0.0804179
0.115028
0.187828
-0.18444
-0.0218943
0.0323026
-0.191796
-0.0701775
-0.201867
0.211958
-0.0830195
0.191312
0.0905843
-0.19395
-0.00287428
-0.232915
0.243527
-0.183431
-0.151909
-0.265736
0.260744
-0.199379
-0.213184
-0.273648
0.260146
-0.19858
-0.215979
-0.264843
0.244613
-0.183617
-0.209812
-0.240528
0.217572
-0.128805
-0.176555
-0.209369
0.195402
-0.0310435
-0.0957645
-0.191214
0.193436
0.0796034
0.0238585
-0.190315
0.153783
0.128475
0.190368
-0.200541
0.23709
0.219883
-0.191904
0.232584
0.129534
-0.205229
-0.116101
0.142163
-0.197708
-0.2202
0.217671
0.093114
0.172035
-0.158739
-0.207246
-0.230615
0.18245
-0.152851
0.169888
-0.222266
-0.214974
0.202038
-0.103165
-0.137524
-0.230302
0.221842
-0.217758
0.170953
0.251316
-0.276292
-0.18136
0.259974
-0.200562
0.214817
0.190314
-0.197278
0.28248
-0.293725
-0.108929
-0.152495
0.303129
-0.309424
0.0148169
-0.0467478
0.317008
-0.313929
0.134795
0.0850472
0.307472
-0.304221
0.198611
0.179339
0.29674
-0.290184
0.196315
0.203736
0.27746
-0.266205
0.163929
0.182478
0.249347
-0.233928
0.122372
0.145338
0.216912
-0.201385
0.0648914
0.098012
0.193075
-0.195324
-0.0196457
0.0239924
-0.063463
-0.221063
0.231932
-0.0938878
-0.00626705
-0.240974
0.254883
-0.19734
-0.160951
-0.251943
0.265366
-0.212802
-0.210244
-0.248979
0.255922
-0.205523
-0.199593
-0.234028
0.23527
-0.184858
-0.187918
-0.2127
0.211692
-0.127797
-0.153985
-0.195053
0.193678
-0.0296682
-0.0791262
-0.191882
0.195477
0.0760083
0.0256545
-0.202383
0.203071
0.153095
0.121569
0.161704
0.187218
-0.175684
0.225555
0.223244
0.178876
0.243802
-0.162703
0.235776
-0.233161
0.239394
-0.236848
-0.212885
-0.227523
0.190488
-0.218309
-0.227293
0.215081
-0.0909534
-0.241418
-0.123399
0.17826
-0.160105
-0.248457
0.198081
-0.242086
-0.267761
0.265404
0.241751
0.270894
-0.251615
-0.256127
-0.269654
0.272787
0.185538
-0.179573
0.20439
0.208439
0.191916
-0.164114
0.171661
0.236255
0.250538
-0.256614
-0.156627
0.251732
-0.165308
-0.225611
0.189058
0.226867
-0.227876
0.173218
-0.219675
0.285916
-0.301956
-0.16532
-0.17126
0.318508
-0.335637
-0.0918004
-0.135944
0.342732
-0.351604
0.0236891
-0.0396528
0.348956
-0.351957
0.137796
0.0823996
0.339569
-0.334219
0.193261
0.166951
0.31877
-0.310069
0.187614
0.188287
0.291989
-0.27995
0.151891
0.164398
0.260053
-0.245026
0.107345
0.125441
0.225509
-0.212575
0.0519567
0.0784956
0.206474
-0.207542
-0.0185776
0.0178914
-0.0559238
-0.265179
0.261559
0.0967342
0.182675
-0.261175
0.265732
-0.0984449
-0.00588321
-0.265268
0.27363
-0.205702
-0.160487
-0.269427
0.270496
-0.213871
-0.206041
-0.264222
0.25453
-0.195831
-0.193318
-0.2428
0.230355
-0.172413
-0.176189
-0.217882
0.207014
-0.116929
-0.141512
-0.199012
0.195635
-0.0262906
-0.0711241
-0.197624
0.198348
0.0752842
0.023665
-0.20862
0.221196
0.14052
0.111297
0.155023
0.184733
-0.177836
0.218658
0.228404
0.229601
-0.257864
-0.143659
-0.237725
-0.241413
0.218116
-0.238344
-0.268488
0.27433
-0.275496
-0.261543
-0.263072
0.192479
-0.175216
-0.26572
0.212927
-0.262534
-0.149751
0.156739
0.229266
-0.143856
0.245838
0.195275
-0.189231
0.198346
0.191356
0.212358
0.232686
-0.228587
0.169119
0.184606
0.237138
0.28054
-0.288367
-0.148801
0.265801
-0.150569
-0.274404
-0.158677
0.18787
-0.172459
-0.289815
0.204378
-0.282227
0.221093
0.19769
-0.239285
0.309736
-0.33711
-0.137946
-0.149891
0.359332
-0.370619
-0.080513
-0.113723
0.380551
-0.38548
0.0286173
-0.0297203
0.384407
-0.377591
0.13098
0.0813268
0.367234
-0.352589
0.178616
0.156594
0.337126
-0.31956
0.170048
0.172824
0.302172
-0.28397
0.133689
0.14701
0.266728
-0.250229
0.0908464
0.108199
0.236756
-0.226783
0.041984
0.065022
0.221711
-0.221363
-0.0189256
0.0128192
0.226183
-0.236096
-0.0810402
-0.051104
0.251028
-0.272046
-0.122641
-0.108467
0.287692
-0.313363
-0.146788
-0.14303
-0.31357
0.314877
0.240445
0.304523
-0.295393
0.265199
0.26374
-0.315071
0.315456
0.0963493
0.18248
-0.311694
0.310178
-0.0969291
-0.00212115
-0.305865
0.301869
-0.201706
-0.156175
-0.296356
0.289055
-0.20657
-0.200529
-0.279172
0.265746
-0.182405
-0.183434
-0.251943
0.23786
-0.15833
-0.162386
-0.22582
0.215316
-0.106426
-0.129472
-0.208085
0.204466
-0.0226716
-0.0638933
-0.205164
0.213239
0.0672094
0.0229671
-0.218136
0.225529
0.133127
0.106399
0.151965
0.167308
-0.161579
0.212929
0.206482
0.224762
0.259082
-0.257373
-0.277204
-0.283242
0.246931
-0.178276
0.198696
-0.310235
-0.336914
-0.154726
-0.246899
-0.256057
0.231112
-0.256529
-0.13027
0.252215
0.197157
0.215292
0.246328
-0.245191
0.167982
0.251547
0.179387
-0.253197
-0.267248
0.220829
-0.278985
-0.229871
0.220091
-0.273462
-0.238531
-0.268544
0.21719
-0.300721
-0.191116
0.216126
-0.335245
-0.168096
-0.359933
0.237663
0.197165
-0.255071
0.305144
-0.325971
-0.127974
-0.283725
0.267958
-0.114503
-0.12915
0.348558
-0.372482
-0.114022
-0.127304
0.387847
-0.403385
-0.0649754
-0.0983568
0.412696
-0.416341
0.0322626
-0.020409
0.412452
-0.402245
0.120772
0.0774371
0.387687
-0.368842
0.159771
0.142037
0.349617
-0.328487
0.148917
0.153598
0.309483
-0.29051
0.114717
0.128006
0.274439
-0.259759
0.0761662
0.0921275
0.248166
-0.23911
0.0329278
0.0534289
0.233751
-0.232585
-0.020091
0.00745999
0.237239
-0.244337
-0.0739424
-0.0464499
0.261434
-0.27457
-0.109505
-0.0913704
0.300268
-0.324257
-0.122799
-0.117331
0.347494
-0.372227
-0.143364
-0.131489
-0.320684
0.338073
0.24781
0.301747
-0.285935
0.204279
0.227995
-0.351499
0.364719
0.227225
0.250314
-0.372117
0.367712
0.100754
0.175083
-0.363741
0.356468
-0.0896564
0.00185
-0.346039
0.333305
-0.188972
-0.145745
-0.321279
0.308895
-0.194185
-0.188503
-0.296216
0.280536
-0.166725
-0.170756
-0.264594
0.248707
-0.142442
-0.146444
-0.236287
0.226381
-0.0965188
-0.117053
-0.220318
0.217866
-0.0202199
-0.0578306
-0.220218
0.22334
0.0640874
0.0206151
-0.232002
0.240872
0.124257
0.0977378
0.147645
0.190572
-0.205658
-0.258376
-0.268017
0.172654
-0.17603
0.199099
-0.383003
-0.396635
-0.151621
0.232235
0.19602
0.191215
-0.186717
0.210793
0.233385
0.169968
-0.166554
0.194932
0.195609
0.154009
-0.142073
0.200993
0.193937
0.132233
-0.125202
0.222236
0.214922
0.118586
-0.110522
0.24415
0.239221
-0.100099
0.257535
-0.245529
-0.263725
0.234586
-0.270286
-0.239707
-0.266072
0.229081
-0.290877
-0.217523
-0.256679
0.230533
-0.315128
-0.16009
0.139123
-0.24705
-0.177207
-0.241259
0.220729
-0.356875
0.176148
-0.152404
-0.420379
0.195606
-0.402461
0.28199
-0.297589
-0.0989038
0.269212
-0.0873216
-0.266014
0.318817
-0.341409
-0.105382
-0.107923
0.36746
-0.387307
-0.0941755
-0.101252
0.408526
-0.425196
-0.048305
-0.0771381
0.434253
-0.436397
0.034406
-0.0113518
0.430491
-0.417806
0.108087
0.0715314
0.400392
-0.378954
0.138333
0.124624
0.357802
-0.335375
0.12649
0.132446
0.316557
-0.298035
0.0961953
0.109187
0.283521
-0.269717
0.0623622
0.0776133
0.259314
-0.2506
0.0242147
0.0430254
0.245853
-0.245302
-0.0206417
0.00271284
0.249807
-0.259319
-0.0644301
-0.0419454
0.272836
-0.289787
-0.0925538
-0.0778532
0.308896
-0.324892
-0.106803
-0.0982227
0.34113
-0.367603
-0.11689
-0.115251
0.399046
-0.434211
-0.117239
-0.120179
-0.297587
0.321568
0.180297
0.275164
-0.257317
0.121275
0.150232
-0.346012
0.370168
0.223654
0.203551
-0.395439
0.403334
0.21933
0.225042
-0.414838
0.417459
0.098133
0.163579
-0.41156
0.399494
-0.0775906
0.0077491
-0.383616
0.364355
-0.16971
-0.129867
-0.346231
0.328747
-0.176701
-0.17038
-0.313254
0.296017
-0.149489
-0.155262
-0.278633
0.261294
-0.125102
-0.12906
-0.248004
0.238276
-0.0867901
-0.103763
-0.233207
0.231979
-0.0189926
-0.0527617
-0.234489
0.240971
0.0576055
0.0181053
-0.251946
0.254607
0.121596
0.086763
-0.257853
0.270946
0.15489
0.144399
-0.276037
0.292256
0.179802
0.174296
0.180499
0.156988
-0.153485
0.20729
-0.161265
0.263328
0.229108
0.14517
-0.134807
0.184569
0.187294
0.124959
-0.119266
0.1953
0.184088
0.10859
-0.106
0.219646
0.204246
0.0945871
-0.0901948
0.239758
0.227808
0.103799
-0.123494
-0.227355
-0.239644
0.086127
-0.130945
0.155185
-0.444618
-0.461899
-0.103257
0.0787593
-0.0658317
0.256285
0.2461
-0.24027
-0.263162
0.236858
-0.278063
-0.2285
-0.255096
0.239013
-0.299356
-0.197108
-0.236778
0.236208
-0.330607
-0.144087
-0.220666
0.212755
-0.374025
-0.0604923
0.0434981
-0.22265
-0.0776088
-0.210239
0.171237
-0.418513
0.0916988
-0.472063
-0.081535
0.09961
-0.45253
-0.225215
0.245469
0.023245
-0.00485157
-0.00811235
-0.209686
-0.215167
-0.0148998
-0.0309519
0.023274
-0.464385
-0.470715
0.45047
-0.06129
-0.471876
-0.0297909
0.271582
-0.281889
-0.0555249
-0.0596415
0.0630128
0.252914
0.25141
-0.0394689
-0.269426
0.293671
-0.317563
-0.0750121
-0.0755396
0.336042
-0.359462
-0.0819619
-0.0894433
0.377964
-0.399321
-0.0728189
-0.0827501
0.417423
-0.434091
-0.0316366
-0.0590362
0.443163
-0.445177
0.0364207
-0.0022802
0.438764
-0.42503
0.0943537
0.0651176
0.406758
-0.384534
0.116109
0.106352
0.363232
-0.341209
0.104468
0.111144
0.322977
-0.304854
0.0780719
0.0909558
0.290705
-0.276757
0.048414
0.0634644
0.266476
-0.257896
0.0156348
0.0327447
0.254017
-0.254715
-0.0199443
-0.00116596
0.260758
-0.271903
-0.0532843
-0.0359024
0.28525
-0.300595
-0.0772083
-0.0645066
0.315725
-0.330992
-0.091536
-0.0830936
0.351382
-0.373782
-0.0944898
-0.0948611
0.396369
-0.427711
-0.0858969
-0.0975917
-0.0804979
-0.267833
0.290289
0.0988191
0.0637622
-0.312096
0.332039
0.160354
0.128426
-0.36204
0.383371
0.202323
0.173551
-0.410787
0.433005
0.197112
0.197626
-0.446043
0.450572
0.0936039
0.150541
-0.445475
0.430814
-0.06293
0.0128461
-0.410991
0.38674
-0.14546
-0.110044
-0.36319
0.340479
-0.15399
-0.14683
-0.322145
0.304698
-0.132042
-0.136928
-0.288335
0.271684
-0.108452
-0.112696
-0.25875
0.249635
-0.0776751
-0.0908293
-0.245423
0.245855
-0.0194253
-0.0485495
-0.249256
0.256689
0.0501724
0.0147045
-0.265284
0.275863
0.111018
0.0781681
-0.290174
0.298054
0.147009
0.130088
-0.30954
0.326583
0.162758
0.16281
0.165823
0.125137
-0.125368
0.263558
0.311945
0.122533
-0.115776
0.200534
0.226273
0.108268
-0.0998102
0.176111
0.179787
0.0912837
-0.0835314
0.187548
0.175562
0.0767324
-0.069298
0.212211
0.197447
0.065457
-0.064508
0.238809
0.223967
0.244604
-0.236736
-0.254926
0.241126
-0.280176
-0.214814
-0.23739
0.241623
-0.304771
-0.166057
-0.214808
0.224078
-0.34193
-0.0960333
-0.202242
0.181613
-0.3844
-0.0187614
-0.19959
0.105562
-0.424465
0.0492825
-0.0429166
-0.221533
0.046409
-0.206813
0.0119749
-0.441231
-0.037293
-0.453445
0.018862
-0.06901
-0.432668
-0.248064
0.235167
-0.0300201
-0.0617588
0.0763432
-0.236118
-0.263624
-0.0461982
0.0671512
-0.107021
-0.413576
-0.450712
0.46072
0.00885381
-0.426147
0.0425865
-0.0463098
0.0419801
0.257243
-0.0491351
0.254235
0.282238
-0.294981
-0.0427823
0.279919
-0.0371501
-0.265036
0.307865
-0.325899
-0.0569787
-0.0626549
0.344858
-0.362799
-0.0640206
-0.0704837
0.381958
-0.400176
-0.0546006
-0.0635917
0.419122
-0.432243
-0.0185152
-0.0400905
0.441812
-0.441415
0.0360232
0.00728859
0.436246
-0.422446
0.0805542
0.0599487
0.406055
-0.384797
0.094852
0.0899605
0.364465
-0.343262
0.0832644
0.090811
0.325062
-0.307265
0.0602745
0.0727562
0.292897
-0.280125
0.0356423
0.0490962
0.271638
-0.266699
0.0106955
0.0242576
0.266461
-0.270948
-0.0154583
-0.00140299
0.27885
-0.289365
-0.0427692
-0.0279996
0.300044
-0.311974
-0.0652783
-0.0538284
0.324405
-0.338581
-0.0773595
-0.0706625
0.35493
-0.368309
-0.0811113
-0.0785122
0.389131
-0.4051
-0.0699283
-0.0767688
0.426557
-0.448073
-0.0397739
-0.0590411
-0.0171441
-0.233543
0.244552
0.0122361
-0.0132758
-0.266292
0.290288
0.0748234
0.0420221
-0.319148
0.346582
0.132919
0.0995652
-0.372104
0.400305
0.174123
0.148029
-0.42556
0.448534
0.174138
0.172371
-0.464111
0.470499
0.087216
0.134965
-0.465344
0.449128
-0.0467134
0.0180006
-0.426815
0.399633
-0.118278
-0.0877311
-0.373137
0.347464
-0.128318
-0.120333
-0.326994
0.309689
-0.114737
-0.116458
-0.294957
0.280162
-0.0936563
-0.0979645
-0.267958
0.259342
-0.0690587
-0.0786258
-0.255956
0.257555
-0.0210234
-0.0451642
-0.262564
0.271354
0.0413825
0.00969503
-0.281672
0.294683
0.0980068
0.0678505
-0.308233
0.321845
0.133397
0.116537
-0.340213
0.347179
0.155793
0.144442
0.14237
0.081594
-0.0733303
0.361844
0.415949
0.0727806
-0.0748602
0.265638
0.311395
0.0722061
-0.0679038
0.196232
0.223619
0.0630124
-0.0577513
0.17085
0.174895
0.0525205
-0.0475744
0.182602
0.170331
0.0433862
-0.0413265
0.210152
0.193259
0.0417765
-0.041103
0.238136
0.224417
0.245481
-0.228986
-0.240755
0.239127
-0.277679
-0.187293
-0.216154
0.22452
-0.305213
-0.115037
-0.195804
0.182803
-0.34312
-0.0306398
-0.190363
0.105144
-0.383982
0.045287
-0.198467
7.41051e-05
-0.412564
0.0888167
-0.219286
-0.0972678
-0.412973
0.0754712
-0.0617207
-0.277375
0.0894074
-0.250054
-0.151589
-0.3881
-0.0991379
0.0695481
-0.396557
-0.14278
-0.369934
0.024896
0.205888
-0.254896
0.288906
-0.300632
-0.0310567
-0.264434
0.192966
0.096364
-0.0126784
0.319625
-0.329337
-0.0472666
-0.0436615
0.347848
-0.36269
-0.0491785
-0.0519728
0.378589
-0.394316
-0.0388735
-0.0476928
0.410298
-0.421309
-0.00750403
-0.0241089
0.429065
-0.429058
0.0360155
0.0150451
0.423902
-0.411748
0.0684002
0.0547931
0.396223
-0.376918
0.0755467
0.0744359
0.357188
-0.337354
0.0634302
0.0710811
0.3195
-0.303633
0.044407
0.0549025
0.290721
-0.281316
0.0262367
0.0361848
0.275422
-0.27307
0.00834363
0.0183639
0.273201
-0.275061
-0.0135989
-0.00127171
0.277665
-0.281557
-0.0388774
-0.0253949
0.287615
-0.296566
-0.0563273
-0.047771
0.308238
-0.322233
-0.0633646
-0.0589897
0.337948
-0.354996
-0.0640638
-0.0627974
0.372673
-0.389068
-0.0535338
-0.0590911
0.403225
-0.417012
-0.0259871
-0.044884
0.42614
-0.428492
0.0112062
-0.00801605
0.415574
-0.393509
0.047483
0.0296684
-0.254757
0.248287
-0.0235504
0.257006
-0.267118
-0.0516088
-0.0439494
-0.242641
0.247271
0.00760651
-0.00762937
-0.262314
0.28556
0.0515774
0.0269788
-0.312585
0.343481
0.102024
0.07254
-0.373297
0.403739
0.14368
0.118213
-0.429864
0.452174
0.151828
0.146246
-0.466029
0.471406
0.0818391
0.12111
-0.466534
0.450623
-0.030802
0.0228727
-0.429325
0.404235
-0.0931881
-0.0664337
-0.379914
0.355341
-0.103745
-0.0960122
-0.334505
0.316591
-0.0968226
-0.0956221
-0.302097
0.288545
-0.0801046
-0.0834705
-0.276828
0.268005
-0.0602362
-0.066908
-0.264656
0.266366
-0.0227336
-0.0418147
-0.272848
0.282519
0.0317124
0.00321228
-0.295176
0.308925
0.084258
0.0551929
-0.326465
0.339346
0.120517
0.0989972
-0.356232
0.37983
0.132195
0.127555
-0.39634
0.414668
0.118599
0.125861
0.107594
0.0272286
-0.0210694
0.355685
-0.0357298
0.445342
0.407447
0.0174582
-0.0174326
0.265612
0.307784
0.0144568
-0.0124355
0.19421
0.220643
0.0111035
-0.0100807
0.169827
0.173563
0.00900751
-0.00784332
0.181438
0.169258
0.00679069
-0.00860844
0.211969
0.192206
0.00948759
-0.0121658
0.240814
0.225296
0.0227007
-0.0302373
0.26478
0.256016
0.0636009
0.335253
0.287599
-0.0728196
0.0891553
-0.29371
-0.274518
-0.0654197
0.0793944
-0.1062
-0.369752
-0.372964
0.0588499
-0.204363
-0.223685
0.217563
-0.270722
-0.450751
0.0768037
-0.134912
-0.196278
0.177189
-0.299599
0.337829
-0.276616
0.0351504
0.00274357
0.0201168
0.312393
0.0180426
0.32253
-0.0422879
-0.184156
0.100755
-0.338731
0.0445973
-0.189674
-0.00800562
-0.375903
0.102009
-0.21166
-0.11663
-0.393202
0.109494
-0.239373
-0.184347
-0.380214
0.103025
-0.263924
-0.187837
-0.343043
0.083326
-0.0733049
-0.284539
0.100088
-0.310472
-0.139157
-0.336977
0.0757137
-0.0955582
-0.349907
0.0591045
-0.356355
-0.241695
0.298068
-0.309174
-0.0199513
0.00877426
0.319919
-0.33125
-0.0359361
-0.032916
0.346487
-0.357658
-0.0380077
-0.0367358
0.372908
-0.384763
-0.027018
-0.0324429
0.395246
-0.403727
0.000976373
-0.0136257
0.407545
-0.407938
0.0364076
0.0188637
0.402158
-0.392468
0.0587107
0.0490134
0.378345
-0.362246
0.0594473
0.060313
0.344802
-0.3285
0.0471275
0.0536374
0.313757
-0.302466
0.0331155
0.0401602
0.293871
-0.288872
0.0212386
0.0275894
0.285931
-0.285142
0.00755444
0.0154224
0.285016
-0.286503
-0.0121116
-0.00139798
0.290097
-0.29659
-0.0323839
-0.0218011
0.305611
-0.316064
-0.0458749
-0.0387497
0.326627
-0.336963
-0.0530285
-0.0484269
0.347134
-0.357479
-0.053719
-0.0526256
0.367919
-0.377644
-0.0438085
-0.0486512
0.389129
-0.392826
-0.0222907
-0.0333994
0.394243
-0.391526
0.00848897
-0.00659827
0.387382
-0.377579
0.0376804
0.0255241
0.362307
-0.34937
0.0461679
0.0435775
-0.278638
0.273077
-0.0460483
0.291548
-0.304844
-0.0600082
-0.0525098
-0.264012
0.260814
-0.0203531
-0.0348839
-0.259118
0.258289
0.00843618
-0.00593333
-0.264043
0.2782
0.0374198
0.021225
-0.299295
0.327287
0.0740321
0.051445
-0.356065
0.385633
0.114112
0.0894346
-0.409973
0.431221
0.130579
0.121906
-0.445888
0.454283
0.073444
0.106443
-0.452948
0.440897
-0.0187502
0.0242078
-0.422526
0.400449
-0.0711107
-0.0480635
-0.379586
0.358557
-0.0827164
-0.075149
-0.340101
0.323139
-0.0798605
-0.0771661
-0.309684
0.297102
-0.0675227
-0.0700154
-0.286227
0.276795
-0.050804
-0.0560331
-0.272396
0.272861
-0.0231991
-0.0374158
-0.27941
0.289559
0.0215633
-0.00333646
-0.303423
0.31881
0.068871
0.0413288
-0.337337
0.352979
0.104874
0.080471
-0.374147
0.385277
0.121065
0.106388
-0.398646
0.417692
0.0995536
0.112491
0.0745352
-0.004034
0.0185187
0.430857
0.465843
-0.035756
0.0364173
0.355024
0.39021
-0.0392901
0.0412026
0.2637
0.304911
-0.0417289
0.0409805
0.194959
0.220117
-0.039281
0.0367849
0.172323
0.175263
-0.0341745
0.031705
0.183907
0.171868
-0.0295963
0.0273522
0.214213
0.194315
-0.0246773
0.0200024
0.245489
0.227971
-0.0139568
0.00200898
0.276728
0.262062
0.309724
-0.0758439
0.0891427
-0.297838
-0.317068
-0.06362
0.0557602
-0.0708826
-0.341233
-0.337269
0.0436586
-0.15198
-0.206617
0.166304
-0.259837
0.329367
-0.311286
0.0170691
0.324012
0.0233973
-0.0555333
-0.183033
0.0918446
-0.290689
0.0430803
-0.182639
-0.0153229
-0.331414
0.115571
-0.203236
-0.126808
-0.365724
0.13387
-0.236036
-0.200722
-0.376828
0.118616
-0.254963
-0.217808
-0.350243
0.11629
-0.280126
-0.173309
-0.30889
0.104611
-0.325941
-0.116604
-0.31593
0.0791316
-0.0689598
-0.32724
0.098068
-0.316774
-0.086066
-0.334724
-0.319679
0.307819
-0.057099
0.0657765
-0.326772
-0.0586838
0.0799798
-0.341444
0.0200392
0.453941
0.0538479
-0.0665318
-0.328549
0.0395245
-0.322945
-0.227372
0.307716
-0.316742
-0.0109252
0.00520461
0.326616
-0.335408
-0.027144
-0.0230418
0.345451
-0.356315
-0.0271437
-0.0266927
0.366694
-0.376065
-0.0176465
-0.0220643
0.382667
-0.386331
0.00463981
-0.0070235
0.386239
-0.383196
0.0333641
0.0187722
0.376889
-0.368246
0.050067
0.0427069
0.357298
-0.345403
0.0475523
0.0493654
0.333162
-0.322265
0.0362306
0.041396
0.312768
-0.305828
0.0261751
0.0306633
0.300345
-0.296631
0.0175246
0.0221069
0.293519
-0.291341
0.00537649
0.0123107
0.290403
-0.291122
-0.011392
-0.0023366
0.293795
-0.298608
-0.0275705
-0.0191287
0.304661
-0.311579
-0.038957
-0.0326963
0.318807
-0.326937
-0.0448986
-0.0411988
0.335956
-0.346271
-0.0434039
-0.0436069
0.356467
-0.365824
-0.0344518
-0.0384551
0.373035
-0.377887
-0.0174392
-0.0261879
0.378423
-0.375475
0.00554145
-0.00606219
0.36589
-0.354466
0.0262562
0.0159388
0.343051
-0.334467
0.0375834
0.0321628
0.327651
-0.319021
0.0308947
0.0368428
-0.299271
0.291062
-0.0517995
-0.0550722
-0.285883
0.278535
-0.0386995
-0.0473311
-0.273008
0.270543
-0.0178875
-0.0293578
-0.270098
0.270469
0.00806514
-0.00548876
-0.273865
0.281061
0.0302243
0.0178289
-0.293092
0.311098
0.0560259
0.039414
-0.331537
0.354722
0.0909265
0.0689958
-0.376659
0.399642
0.107596
0.0999696
-0.41841
0.43145
0.0604042
0.0876753
-0.433356
0.425212
-0.0106061
0.0223013
-0.410448
0.392127
-0.0527891
-0.0332998
-0.375076
0.358724
-0.0663636
-0.0580987
-0.34428
0.329997
-0.0655773
-0.0627225
-0.318107
0.30666
-0.0560759
-0.0581254
-0.296906
0.287082
-0.0409806
-0.0462785
-0.281189
0.278764
-0.0207732
-0.0315232
-0.283365
0.292175
0.0127537
-0.007938
-0.305836
0.322003
0.0527042
0.0276677
-0.339353
0.359574
0.0846526
0.0631207
-0.378133
0.399679
0.0995193
0.0878285
-0.419547
0.438136
0.0809639
0.0926236
-0.437312
0.465553
0.0485619
0.07536
0.0474575
-0.0454316
0.0636447
0.412644
0.44045
-0.0756699
0.0844531
0.34624
0.378185
-0.0906059
0.0936394
0.260666
0.298758
-0.0936001
0.0908047
0.197754
0.220156
-0.086306
0.0810594
0.177569
0.179761
-0.0759267
0.0709374
0.188896
0.177001
-0.0659582
0.0604725
0.219699
0.199294
-0.0543371
0.0443975
0.255428
0.234106
-0.0405
0.0308272
0.286401
0.265959
-0.0446964
0.0340529
0.323036
0.295855
-0.0116779
-0.0393681
0.375058
0.344905
-0.0691008
-0.19305
0.0808393
-0.248832
-0.0341633
0.0249575
-0.309815
-0.0473707
-0.309738
0.335023
-0.357168
-0.0172235
-0.057039
0.214196
0.217901
0.297763
-0.0197786
-0.31092
0.314898
0.0269165
-0.302759
0.0167974
0.0399539
-0.179906
-0.0222574
-0.283754
0.126922
-0.19399
-0.13459
-0.323633
0.161439
-0.230805
-0.212996
-0.35345
0.143256
-0.260677
-0.233373
-0.361263
0.132238
-0.270911
-0.205374
-0.318179
0.123511
-0.299026
-0.144437
-0.281058
0.109505
-0.337378
-0.0964658
-0.305531
-0.0584645
-0.339372
0.0710641
-0.336213
0.326529
-0.0487802
0.0537539
-0.344907
-0.0450599
-0.353226
0.067608
0.0989922
-0.335786
-0.0816753
-0.31958
-0.352748
0.0823684
0.057029
-0.118733
0.2759
-0.469072
0.0194657
-0.0254017
0.300331
-0.215633
0.335904
-0.327864
0.00902887
0.00213357
0.325679
-0.325537
-0.011067
0.00301909
0.332728
-0.339843
-0.0200288
-0.0158509
0.346692
-0.354168
-0.0196668
-0.0198442
0.360455
-0.366961
-0.0111405
-0.0157779
0.370764
-0.372825
0.00670027
-0.00322029
0.370778
-0.366082
0.028668
0.0167254
0.358624
-0.350314
0.041757
0.0352496
0.341418
-0.333197
0.0393305
0.0404695
0.325516
-0.319165
0.0298789
0.0337156
0.313632
-0.309171
0.0217138
0.0251308
0.305083
-0.301555
0.0139961
0.0180197
0.298453
-0.296225
0.00314912
0.00920844
0.295235
-0.295997
-0.0106302
-0.003327
0.298453
-0.302561
-0.0234619
-0.0166728
0.30775
-0.314177
-0.0325298
-0.0275078
0.321287
-0.329262
-0.0369234
-0.0340891
0.33688
-0.344124
-0.0361603
-0.0359886
0.350353
-0.356197
-0.0286069
-0.0322265
0.360982
-0.364238
-0.0141834
-0.0214032
0.364806
-0.362188
0.00292319
-0.00549417
0.356978
-0.348338
0.0176161
0.0107295
0.336847
-0.324739
0.0254747
0.0206718
0.0270018
-0.319479
0.311749
-0.0493688
-0.0516338
-0.305572
0.298311
-0.0445383
-0.0488953
-0.290683
0.285023
-0.0330393
-0.0397035
-0.280066
0.277526
-0.0153466
-0.0244012
-0.277657
0.279532
0.00619044
-0.00562034
-0.282549
0.287171
0.0256017
0.014812
-0.293705
0.303702
0.0460287
0.0328804
-0.316451
0.333967
0.0734102
0.0562474
-0.354211
0.37791
0.0838972
0.0797253
-0.397975
0.411663
0.0467158
0.0676106
-0.414678
0.408633
-0.0045615
0.0192866
-0.396761
0.381521
-0.0375491
-0.0214275
-0.367105
0.353401
-0.05266
-0.0436825
-0.341902
0.330637
-0.0543122
-0.0512234
-0.321244
0.312101
-0.0469328
-0.0487328
-0.304856
0.296792
-0.0329168
-0.0390331
-0.291032
0.286644
-0.0163846
-0.0257635
-0.287812
0.293497
0.00706881
-0.00910638
-0.304461
0.319528
0.0376372
0.0167032
-0.336502
0.356064
0.0650901
0.0461473
-0.375149
0.395502
0.079166
0.068744
-0.413478
0.422506
0.0719359
0.0746478
-0.437959
0.448523
0.0379988
0.0599063
0.0269078
-0.0241799
0.0514374
0.426684
0.435855
-0.0787271
0.0978431
0.393528
0.413161
-0.112421
0.124313
0.334349
0.363607
-0.132088
0.134975
0.257779
0.290983
-0.133508
0.12897
0.202292
0.221623
-0.123165
0.117046
0.183688
0.185567
-0.111077
0.105076
0.194897
0.18297
-0.0990462
0.0924996
0.226246
0.205324
-0.0852866
0.0761441
0.264571
0.241319
-0.0654858
0.0561498
0.295737
0.276618
-0.0506023
0.0576792
0.31596
0.301403
0.283852
-0.0651264
-0.310793
0.282331
-0.00996926
0.0224356
-0.0295653
-0.302686
-0.303525
0.0232014
0.0343591
-0.187455
-0.0283256
-0.242764
0.135495
-0.18848
-0.139375
-0.278969
0.187353
-0.219904
-0.223822
-0.312806
-0.0381428
-0.30116
0.174595
-0.262143
-0.249551
-0.337271
0.152364
-0.280803
-0.223481
-0.343156
0.147598
-0.294998
-0.176428
-0.286188
-0.0402087
-0.353277
0.0485783
-0.345477
0.3379
-0.0326315
0.0336404
-0.351628
-0.0274894
-0.360799
0.0411623
0.127071
-0.316592
-0.11568
-0.261844
-0.364954
0.060307
0.11715
-0.355536
-0.0875816
-0.299624
-0.364772
0.0796319
0.100913
-0.354331
-0.0754796
-0.309227
-0.0116191
-0.0139067
0.307856
0.282209
-0.45095
0.235133
0.0234679
-0.00205182
0.368173
0.0183203
-0.0232626
-0.297743
-0.304166
0.0189606
-0.0531868
0.358864
-0.2096
0.325047
-0.343689
0.00141824
-0.30869
-0.0115595
0.31028
-0.00342167
0.337945
-0.330068
0.0011513
-0.00360982
0.327009
-0.327614
-0.0104623
-3.95288e-05
0.330515
-0.336127
-0.0144171
-0.0129498
0.341492
-0.347792
-0.013367
-0.0144788
0.353217
-0.358515
-0.00584176
-0.010353
0.361714
-0.362791
0.00777803
-2.20989e-05
0.360855
-0.355939
0.0237518
0.0147895
0.349109
-0.341186
0.0338339
0.0284193
0.333698
-0.327153
0.0327855
0.0329816
0.321785
-0.317423
0.0255167
0.0283478
0.313598
-0.310126
0.0182418
0.021306
0.30678
-0.303679
0.0108945
0.0146741
0.301134
-0.299469
0.00148381
0.006664
0.299141
-0.30016
-0.00961157
-0.00365505
0.302409
-0.305908
-0.0199627
-0.0144234
0.310081
-0.315069
-0.0275418
-0.0233352
0.320245
-0.325998
-0.0311708
-0.0289126
0.331848
-0.338162
-0.0298461
-0.0301385
0.343982
-0.349082
-0.0235072
-0.0264064
0.352485
-0.354151
-0.0125172
-0.0180007
0.353938
-0.351937
0.000921827
-0.0057069
0.347952
-0.342212
0.0118759
0.00674521
0.336092
-0.327576
0.0169582
0.014552
0.318504
-0.309178
0.0175912
0.0179295
0.306426
-0.302462
0.019238
0.0140446
0.00464589
-0.294588
-0.0142233
0.295612
-0.29827
0.00730426
0.0121105
-0.332675
0.326906
-0.0430113
-0.0398346
-0.320551
0.314125
-0.0429426
-0.0452789
-0.307196
0.299597
-0.0369397
-0.041966
-0.29471
0.2898
-0.0281295
-0.0348161
-0.286185
0.283715
-0.0128761
-0.0207867
-0.283547
0.285146
0.00459198
-0.00545295
-0.287872
0.291895
0.0215781
0.0120862
-0.296718
0.303757
0.0389902
0.0280574
-0.31341
0.327931
0.0588886
0.0465941
-0.345773
0.366199
0.0634706
0.0618842
-0.382859
0.393284
0.0362914
0.0509504
-0.395709
0.391917
-0.000769401
0.0168615
-0.384466
0.373922
-0.0270051
-0.0139764
-0.362621
0.350164
-0.0402033
-0.0323813
-0.338801
0.327959
-0.0434702
-0.0398609
-0.318973
0.311298
-0.0392579
-0.039746
-0.305553
0.300703
-0.0280674
-0.0332884
-0.296702
0.293611
-0.0132934
-0.0217621
-0.292739
0.295688
0.00411956
-0.00823437
-0.302699
0.314402
0.0259348
0.00969219
-0.329013
0.346357
0.0477452
0.0315363
-0.364739
0.383231
0.0606741
0.0503624
-0.400413
0.414782
0.0575667
0.0574659
-0.426863
0.430236
0.0346262
0.0478252
-0.434753
0.446183
0.00803578
0.0223902
-0.00199699
-0.0488323
0.0795246
0.395991
0.384971
-0.100328
0.11854
0.375317
0.392357
-0.134044
0.146275
0.322118
0.348103
-0.154601
0.158473
0.253908
0.282657