/*--------------------------------*- C++ -*----------------------------------*\
  =========                 |
  \\      /  F ield         | OpenFOAM: The Open Source CFD Toolbox
   \\    /   O peration     | Website:  https://openfoam.org
    \\  /    A nd           | Version:  10
     \\/     M anipulation  |
\*---------------------------------------------------------------------------*/
FoamFile
{
    format      ascii;
    class       surfaceScalarField;
    location    "2";
    object      phi;
}
// * * * * * * * * * * * * * * * * * * * * * * * * * * * * * * * * * * * * * //

dimensions      [0 3 -1 0 0 0 0];

internalField   nonuniform List<scalar> 
17221
(
0.0820496
-0.0249428
-0.0683543
0.0112475
0.00168602
0.0747137
0.00564996
0.0639146
-0.0188602
-0.0699973
0.0816697
-0.00806511
-0.0743982
0.000793699
0.0155485
0.0724388
-0.00631763
0.0681387
0.0181863
-0.0707766
0.000612989
-0.00431489
0.0685306
-0.0648287
-0.0069277
-0.0667792
0.0743199
0.00117436
-0.042958
0.00888906
0.0328946
-0.0429617
0.00770982
0.0364262
0.00171568
0.0458093
-0.053485
0.00596
-0.0518585
0.0535742
-0.000573464
0.0623682
-0.0634252
0.00163046
0.0622982
0.00425143
-0.0671231
0.040155
0.0487103
-0.0162257
-0.0726396
0.0348973
-0.0285158
0.0337735
0.0162144
0.0554815
-0.0664645
-0.00523144
0.00777076
0.0474593
-0.0390156
-0.0413913
-0.00695207
0.0561142
-0.028118
-0.058894
0.0709725
0.0160395
-0.0642116
0.00230756
0.033786
0.0428097
0.0435794
-0.0491318
-0.0372573
0.0968832
-0.0631755
0.009102
-0.0285398
0.0110677
0.0813867
-0.118726
-0.0551391
0.0937999
0.0800648
-0.0420907
0.0224632
-0.0990982
0.111869
-0.103939
-0.050021
0.104155
-0.0474248
-0.0297634
-0.0585637
0.0152582
0.073069
-0.0126357
-0.0582292
0.0411014
-0.0604026
0.0033773
0.0443897
-0.117199
-0.00502516
0.0835963
0.0386282
0.0206253
-0.107374
-0.0304502
0.123333
0.0184818
-0.12119
0.00835913
0.109949
0.0665444
-0.000191267
-0.0190273
-0.0473258
0.0116478
0.0673718
-0.0124752
-0.0418116
0.0410387
0.0639856
-0.0632126
0.102472
-0.079269
-0.0249415
0.00173811
0.0713367
-0.010676
0.0348386
0.0938426
-0.0376447
0.0238231
0.0275227
-0.0205786
-0.00694409
0.0075569
-0.0123371
0.0323029
0.091345
-0.0431571
-0.0481879
-0.0601368
0.0476811
0.103801
0.00966428
-0.00369866
-0.0100734
0.00410779
-0.0039679
-0.00247887
0.0161111
-0.0062065
-0.00146005
0.0420774
0.0661644
-0.0638047
-0.0444371
0.0526168
-0.0705407
0.0600013
-0.0312351
0.0453303
0.0385216
-0.0212259
0.0561552
-0.0819137
0.0151895
0.0673307
-0.000606471
-0.0726196
-0.00821626
-0.00107784
-0.00871491
-0.0647314
0.000826657
-0.067562
0.002789
0.0693455
-0.00457247
0.00751699
-0.0732752
-0.00180377
-0.0566001
0.0608071
-0.00932764
0.00512056
0.0171456
-0.0709567
-0.0731594
-0.00790874
0.0679914
0.0130768
-0.00899292
-0.0717992
0.00763274
0.0731098
-0.0141959
-0.0651524
0.00623849
-0.00968182
0.0737987
0.00739816
-0.0573877
0.00231653
0.047673
0.0623095
0.000816041
-0.0557274
0.0687461
-0.0107515
-0.0940863
0.00216828
0.0339247
0.0579933
-0.00238504
-0.10042
0.00871857
-0.000504173
0.0950024
-0.00938434
-0.0570153
0.00638689
0.0600127
-0.0615337
0.0592372
-0.0070879
0.011759
-0.0629483
-0.00582601
-0.0623338
0.00673598
0.0673568
0.0133585
0.0587295
-0.0127302
-0.0593578
0.0575952
-0.0610202
0.0167835
-0.0138372
0.059914
0.0126527
-0.0119613
0.0581636
-0.0600395
0.0240726
-0.0809131
-0.0669929
-0.000902012
-0.00022334
0.0681182
-0.0732026
0.0122523
-0.00604258
-0.00265185
-0.0559365
0.000527053
0.0580612
-0.0552231
0.0579919
-0.00542069
0.0848658
-0.071224
0.0104309
0.0878089
0.00577545
0.071117
-0.00780946
0.0593086
-0.0575253
0.00602614
0.0581628
-0.00825409
-0.0577181
0.0003822
0.0559263
-0.057784
0.00147549
0.0574771
0.000195425
-0.0572903
0.0816952
-0.0509294
-0.0394807
0.0702373
0.00324158
-0.00041757
-0.00200432
-0.0623095
0.0225287
0.0745196
-0.0269548
-0.0700935
0.0182632
0.0728088
-0.0685433
-0.0474043
-0.0199912
0.0535373
0.0138582
-0.00875326
0.0416278
-0.0802789
0.0580511
0.00223734
-0.0690417
0.0423912
-0.00433136
-0.011934
-0.061263
0.0696767
0.00352024
-0.038035
0.0796383
0.0677944
0.00451429
-0.00689081
-0.0654179
0.00675038
0.06976
-0.00871598
0.0634281
-0.00163249
0.000502642
0.0624748
-0.000406919
0.00136022
0.0631953
1.99779e-05
-0.000740527
0.0616245
0.00168661
-0.000115807
0.0635136
-0.00195749
6.8372e-05
0.0626728
0.000984318
-0.000143521
0.0636255
-0.00114483
0.000192183
0.0631488
-0.000174782
0.000651422
0.0636967
-0.000513906
-3.39744e-05
0.0624657
0.000398086
0.000832895
0.0633625
-0.00033297
-0.000563752
0.0637859
0.000486868
-0.000910349
0.063296
-0.000324795
0.000814722
0.0632341
-0.000334772
0.000396737
-0.00132255
0.0641061
0.000450512
0.063374
-0.0629313
-0.00176524
-0.00231263
0.00408496
-0.00188689
0.0636762
-0.0634978
-0.00050315
0.000410085
0.0636023
-0.0639707
3.54114e-05
0.00059135
0.0634335
-0.0634054
-0.000541979
-0.000139106
0.0636273
-0.0646687
-0.000103418
4.70913e-05
0.0635086
-0.0651398
-0.000326313
-0.000175772
0.0632549
-0.0631483
-8.66148e-05
-0.000198316
0.0636094
-0.0662841
0.00104223
5.4162e-05
-0.00122552
-0.0626152
0.0628771
0.00109829
0.000255628
-0.0631279
0.0631893
-0.00017722
-0.000991313
-0.0626683
0.0622395
0.000285325
0.000589375
-0.0632946
0.0629322
0.0010139
-0.000863009
-0.0625986
0.0629916
0.00043993
0.000299567
-0.0639751
0.0631073
-4.25913e-05
-0.00154725
-0.0629516
0.0635407
-0.000192359
0.000970484
-0.0640921
0.0659333
0.00224379
-0.000100971
0.0652854
0.00738392
0.0139692
-0.0588261
0.0620026
0.00858003
0.0651636
-0.0626781
-0.00468158
0.0694878
0.0043776
0.00857799
-0.0720177
0.00870676
0.0629811
-0.0644375
-0.00030883
-0.00158389
0.0641533
-0.0645021
-0.000154389
0.000125858
0.0640326
-0.06381
-0.000187196
0.000121882
0.0646231
-0.0646443
-0.000520787
0.000674046
0.0643155
-0.0645342
0.000115212
-0.000281704
0.0644949
-0.0646754
-0.000145777
-0.000215061
0.0646977
-0.0644685
-0.000315793
-0.000176011
0.0649153
-0.0637077
-0.000165359
0.000500913
0.0631796
-0.00316177
-0.00175361
0.00672527
-0.00895192
0.0673903
0.00597518
0.0702379
-0.0638992
0.0628888
0.00264084
0.00411614
-0.0625742
0.0642997
-0.000627183
0.000570208
-0.0632287
0.0629844
6.70978e-05
7.96698e-05
-0.0638081
0.0644911
-0.000397672
-0.000234283
-0.0635151
0.0642759
0.000253084
0.000112925
-0.0645765
0.0650182
-1.79504e-06
-9.79914e-07
-0.0639336
0.0634607
0.000430303
-0.000462674
-0.0644708
0.0642953
-1.68437e-05
-3.96122e-05
-0.0641138
0.0664927
-0.000135168
8.0599e-05
-0.0708587
0.0707155
0.00452076
0.00301796
0.0219945
0.0434745
-0.00623172
0.0730553
-0.0585022
0.00696019
0.0697305
0.00812393
-0.0120135
-0.0693856
0.00207654
-0.0659703
-0.06834
0.0694974
-0.00296115
-0.0764613
-0.00389221
0.0745772
-0.0452985
-0.00287361
0.067769
-0.0590299
0.00749962
0.00648017
-0.00850479
-0.0556935
-0.0566197
0.00557461
0.0609326
-0.0636215
-0.00199268
-0.00518514
0.0648325
-0.0651112
-3.01211e-05
-0.000372932
0.0649605
-0.0650724
-4.25111e-05
-2.48455e-05
0.0649113
-0.0650414
-5.70815e-05
-3.92191e-05
0.0643124
-0.0647784
-5.47821e-05
-5.49478e-05
0.0650146
-0.0648506
-4.88146e-05
-4.54681e-05
0.0649487
-0.064918
-0.000176497
-0.000116945
0.0649023
-0.0649944
-0.000223682
-0.00019174
0.0643169
-0.0642871
-0.000195175
-0.000176604
0.0658358
-0.067155
-0.00184253
-0.000204917
-0.00223011
0.0676513
-0.0663406
0.00321011
0.0701768
0.00443467
-0.0565135
0.0602013
0.00233827
0.00449837
-0.0043317
-0.0567864
0.0568619
0.00437748
-0.056741
0.005923
-0.0618003
0.064622
-0.000180835
0.0025172
-0.0653011
0.0646902
-1.62679e-05
-0.000108946
-0.0648144
0.0650027
-0.000121171
-4.45642e-05
-0.0648572
0.0646141
-0.000154628
-8.87304e-05
-0.0647433
0.0650371
-4.07126e-05
-1.62746e-05
-0.065047
0.0650465
-1.21061e-06
-1.09075e-05
-0.0645992
0.0650538
-2.42868e-05
-1.54607e-05
-0.0650553
0.0650819
-4.34191e-05
-4.10949e-05
-0.0651951
0.0650852
-2.52472e-05
-3.2599e-05
0.00176253
-0.00302685
0.0026471
0.06777
0.0671548
-0.0035932
0.00512208
0.0682016
0.0692918
-0.0649305
-0.0145628
0.00555014
-0.0603729
-0.049106
-0.0419181
0.00917817
0.00207834
-0.0603625
-0.0554278
0.0226878
-0.0578501
0.000197365
0.00516845
0.0701304
-3.18144e-05
-0.0599934
0.00398786
-0.064408
-0.0543008
0.0581481
0.000530197
0.00449375
-0.00586906
-0.0553657
-0.0551639
0.00535685
-0.00297744
-0.059678
0.00287607
-0.0611707
-0.00107195
-0.056966
0.00261014
-0.0016
-0.0598344
-0.00209345
0.000313649
-0.0551862
-0.050015
0.0570117
-0.00909019
-0.0059203
-0.00919733
0.0647198
-0.06547
-0.00124248
0.00168448
0.0652061
-0.0651077
-0.000128487
-0.00063683
0.0650847
-0.0650543
-7.28916e-05
-4.78346e-05
0.0650254
-0.0649798
-0.000102669
-6.81867e-05
0.064944
-0.0649065
-9.2218e-05
-9.07505e-05
0.0648843
-0.0648623
-7.08835e-05
-6.76747e-05
0.0648964
-0.0649263
-0.000146556
-8.28069e-05
0.0649384
-0.0649182
-0.000243868
-0.000179711
0.0648702
-0.0648001
-0.000265262
-0.000224596
0.0647577
-0.0662933
-0.000306859
-0.000247345
0.0671507
-0.0691488
-0.000963011
-0.00137277
0.0730804
-0.055604
0.00521139
3.93826e-05
0.00401784
-0.0616823
0.0630708
0.000949734
0.00238881
-0.0648124
0.064719
-8.73599e-05
0.000775587
-0.0647913
0.0649367
-0.000161671
-0.000181278
-0.0650083
0.0650128
-0.000125625
-0.000116216
-0.0650341
0.0649902
-0.000110761
-0.000110031
-0.0650494
0.0650543
-4.55621e-05
-7.54694e-05
-0.065064
0.0650688
-6.02658e-06
-2.05884e-05
-0.0650719
0.0650782
-3.05155e-05
-1.86368e-05
-0.065078
0.0650812
-4.66205e-05
-4.09383e-05
-0.0650867
0.0648131
0.0002483
-3.80399e-05
-0.0664447
0.0685683
0.00108652
0.000130976
-0.0693061
0.0694648
0.00500971
0.00369685
0.00224935
-0.00128512
0.0668047
0.0681393
0.000491988
0.000891291
0.0663868
0.0663617
-0.00244831
0.00295032
0.0676996
0.0677348
-0.00484851
0.0046508
0.0696625
0.0682322
-0.0609744
0.00318092
-0.00106952
0.00394332
0.0708137
-0.0684181
0.00261412
0.0701437
0.00532076
-0.00249028
-0.0604806
2.11486e-05
-0.0615531
-0.0690255
0.0586071
0.00132826
0.00426092
-0.0245761
-0.00325732
-0.0574902
-0.00143117
-0.0613395
-0.00231185
-0.0572089
-0.00825659
-0.0528499
0.0651587
-0.0649275
-3.3863e-05
-0.000401999
0.0634519
-0.0649701
0.000275712
0.000208875
0.0650244
-0.0651
-5.29427e-05
-0.000582493
0.0650825
-0.0650589
-9.6473e-05
-6.5329e-05
0.0650284
-0.0649882
-0.000142847
-9.87003e-05
0.0649524
-0.0649082
-0.000136421
-0.000126554
0.0648778
-0.0648632
-8.54508e-05
-9.81083e-05
0.0648704
-0.0648957
-0.00012122
-7.5592e-05
0.0649131
-0.0649089
-0.000248069
-0.000162322
0.0648769
-0.0648204
-0.000321694
-0.000256669
0.0647739
-0.0647282
-0.000352533
-0.000293888
0.0657663
-0.0664429
-0.000286439
-0.000334626
0.0660903
-0.0625203
0.0016414
-0.000313239
0.000104621
-0.0562782
0.0579209
0.00230065
0.0177222
-0.0046322
-0.070874
0.0567267
-0.0374386
-0.00156579
0.00192394
-0.0618619
0.0614565
0.000935605
0.0014158
-0.0633673
0.0639607
0.000356396
0.00047801
-0.064512
0.0646986
-0.000274023
0.000224286
-0.0647317
0.0647944
-0.000224369
-0.000214345
-0.0648561
0.064922
-0.000191506
-0.000177889
-0.0649635
0.0649951
-0.000142318
-0.000151591
-0.0650138
0.0650331
-6.48579e-05
-9.41719e-05
-0.0650548
0.0650756
-2.68298e-05
-4.23181e-05
-0.0650892
0.065097
-3.83315e-05
-3.22302e-05
-0.0650981
0.0651016
-5.01357e-05
-4.20412e-05
-0.0651087
0.0651904
0.000166596
-4.50703e-05
-0.0652845
0.066473
-0.000102014
3.68327e-05
0.0017518
-0.00293872
0.00470095
0.0662291
0.000278316
0.000401322
0.0661251
0.0654789
-0.00161587
0.000686198
0.0673164
0.0651471
-0.00175047
0.00251026
0.0669398
0.0666705
-0.00284569
0.00398287
0.0685254
0.0678968
0.0058798
0.0682468
-0.0634435
0.0568099
-0.0790598
0.0353267
-0.0161727
0.0776836
0.0246159
-0.0276718
-0.0343828
-0.0673879
-0.00403922
-0.000805772
-0.0629321
1.93017e-05
-0.0630035
0.00172472
-0.0590195
-0.00112153
-0.0625298
-0.0690084
-0.00247088
0.069496
0.00198328
-0.00118647
-0.060736
-0.00138479
-0.0640807
-0.000637572
-0.0456206
-0.0039402
-0.0774255
0.0375119
-0.0183579
-0.0751117
0.0119831
0.0661216
-0.0648614
-0.00129406
-0.00166825
0.0652043
-0.0646596
-0.000269016
0.000551772
0.0649924
-0.0650937
4.8323e-05
-0.000249686
0.0650833
-0.0650699
-0.000109863
-7.57002e-05
0.0650507
-0.0650348
-0.000158734
-0.000117942
0.0650141
-0.0649843
-0.000166196
-0.000147218
0.0649542
-0.0649171
-0.000122484
-0.000128271
0.0648906
-0.0648723
-0.000139441
-0.000102177
0.0648663
-0.0648613
-0.000253059
-0.000168395
0.0648507
-0.0648334
-0.000339013
-0.000267198
0.0648206
-0.0648068
-0.000366319
-0.000306725
0.064796
-0.0646418
-0.000440721
-0.000345393
0.064532
-0.0623478
-0.000542864
-0.000422977
0.0629688
-0.0628389
0.00119828
0.000725704
0.0569462
-0.0675179
-0.00565401
-0.00163171
-0.0531963
0.0575684
-0.00593789
-0.0730236
-0.00784445
-0.0583054
0.059857
0.000749039
0.00118692
-0.061659
0.0631685
-0.000573958
-0.000386131
-0.0635075
0.0642085
-0.000344548
0.000138985
-0.0647257
0.0647541
-0.000302379
-0.000292963
-0.0647702
0.064802
-0.000256159
-0.000230457
-0.0648376
0.0648817
-0.000235692
-0.000213446
-0.0649148
0.0649499
-0.00017738
-0.00018466
-0.0649782
0.0650127
-9.93811e-05
-0.0001225
-0.0650433
0.0650733
-5.68405e-05
-7.29003e-05
-0.065095
0.0651061
-4.94368e-05
-5.3916e-05
-0.065114
0.065118
-5.4085e-05
-4.99638e-05
-0.0651198
0.0653344
-4.80906e-05
-4.68404e-05
-0.0654137
0.0651361
0.000175526
-4.24022e-05
-0.0665152
0.0697698
-0.000640446
0.000372723
-2.11259e-05
-0.00980774
0.00710823
-0.06994
-0.0694271
-0.00789859
-0.000420463
9.87358e-05
0.0665509
-0.0189563
-0.00191792
0.0583862
0.0583068
-0.000242253
0.000887341
0.06548
0.0653354
-2.03139e-05
2.01463e-05
0.0673166
0.0660142
-0.00154204
0.00116209
0.0673198
0.0651486
-0.00150362
0.00258882
0.0674402
0.0675552
0.0683647
-0.06423
0.000100279
-0.0613077
7.59781e-06
-0.0641327
0.00140558
-0.000463518
0.0685539
-0.0640203
0.0105719
0.0654315
0.000118057
0.0687023
-0.0674148
7.43392e-05
-0.0602803
0.000131452
-0.064046
-0.00210956
-0.059264
-0.00123193
-0.066789
-0.00784411
-0.0721592
-0.00174653
-0.0685708
-0.00421072
-0.000605194
-0.0682077
0.00696384
-0.00424421
-0.0721467
0.00669284
-0.069669
-0.0525836
-0.00527075
0.000558324
0.0583549
0.00598048
-0.00483591
-0.0582132
0.0570686
0.0634258
-0.0644006
-0.00306448
-0.0075157
0.0654352
-0.0657708
-0.000958454
-0.000633608
0.0648269
-0.0650372
-5.87172e-05
-0.000392173
0.0652338
-0.0650997
-8.58042e-05
-5.3067e-05
0.0650948
-0.0650847
-0.000119907
-8.06126e-05
0.0650784
-0.0650762
-0.000160945
-0.000124242
0.0650676
-0.0650518
-0.000181972
-0.000155831
0.0650249
-0.0649796
-0.000167819
-0.000155139
0.0649345
-0.0648876
-0.000186346
-0.000147317
0.0648602
-0.0648446
-0.000268686
-0.000195742
0.0648412
-0.0648464
-0.000333842
-0.000270562
0.0648548
-0.0648614
-0.000359687
-0.00029836
0.0648513
-0.0648033
-0.000488713
-0.0003555
0.0647216
-0.0645994
-0.000664994
-0.000504717
0.0642318
-0.0624896
-0.000543992
0.000358117
0.0619145
-0.0646436
-0.00292497
-0.00220673
0.0690562
-0.0701734
-0.00312702
-0.00348595
-0.00712665
0.00623309
-0.0712531
0.0824752
0.0130163
-0.0552949
-0.0401965
0.00517509
-0.0633492
0.0602074
-0.00279602
0.067259
-0.0683436
-0.00312607
-0.00393469
-0.0630533
0.0644552
-0.000652853
-0.00165902
-0.0643065
0.0641947
-0.000462153
-0.000237468
-0.0646605
0.0647616
-0.000445736
-0.000326734
-0.0647983
0.0648274
-0.000331481
-0.000329634
-0.0648484
0.0648689
-0.000276638
-0.000251468
-0.0648836
0.0648997
-0.000251737
-0.000228167
-0.0649142
0.064939
-0.000202153
-0.000199184
-0.0649655
0.0650031
-0.000137031
-0.000149034
-0.0650348
0.065066
-8.79999e-05
-0.000104569
-0.0650913
0.0651031
-6.12302e-05
-7.92673e-05
-0.0651175
0.0651237
-6.03224e-05
-6.43462e-05
-0.065124
0.0651374
-6.15239e-05
-4.7068e-05
-0.0651366
0.0653506
-3.85041e-05
-4.15949e-05
-0.0657658
0.0653265
-0.000201059
-4.24963e-05
0.00128506
0.00343698
0.000753154
0.0623607
0.0623021
-0.000938951
-0.000881032
0.0673
0.0651496
-8.23946e-06
1.32363e-05
0.0673116
0.0651249
-7.24045e-06
7.12842e-06
0.0673199
0.0651546
-0.000846185
0.00156555
0.0667208
0.0667162
0.0694668
-0.0641221
-0.0585096
-0.00198423
0.0693366
-0.0645026
0.00573784
0.0673262
0.00212848
9.03236e-05
-0.0613237
1.99456e-05
-0.0640212
-0.0012233
-0.0611665
0.000167539
-0.0654455
-0.00255253
-0.0645556
0.00187248
-0.070408
-0.00396081
-0.0688036
0.00276383
-0.0682581
-0.00284938
0.00372591
-0.0691698
0.00442057
-0.0662985
0.00390988
-0.0673458
0.00679177
-0.0650286
0.00792509
-0.0572395
-0.0533539
0.0661739
0.00405205
-0.0168721
-0.0575114
-0.000678354
0.00439014
-0.00430842
-0.0582949
0.0633614
-0.064433
-0.00199284
-0.0026639
0.0645158
-0.0649698
-0.000504473
-0.000550822
0.0651386
-0.0651313
-6.59972e-05
-0.000223416
0.0651233
-0.0651098
-9.93628e-05
-6.1038e-05
0.0651069
-0.065096
-0.000130839
-8.34764e-05
0.065096
-0.0650941
-0.000162837
-0.000124208
0.0650917
-0.0650838
-0.000189846
-0.000158255
0.0650657
-0.0650314
-0.000202135
-0.000173211
0.0649921
-0.0649452
-0.000233222
-0.000186684
0.0649108
-0.0648831
-0.000296396
-0.000230142
0.0648697
-0.0648629
-0.000340578
-0.000283962
0.0648576
-0.0648449
-0.000372306
-0.000303738
0.0648226
-0.0647722
-0.000539139
-0.000377808
0.0647049
-0.0646077
-0.000762167
-0.000572059
0.0635387
-0.0631792
-0.000903424
-0.000710893
0.0645375
-0.0657144
-0.00174808
-0.000848501
0.0669915
-0.0699462
-0.000172344
-0.00220884
0.00140287
-0.067639
0.0668051
-0.00229223
-0.00359219
0.00359549
-0.0682614
0.0687409
-0.0682473
-0.00408573
-0.0017475
-0.0653464
0.064172
-0.00162161
-0.00247597
-0.0640893
0.0643241
-0.000887698
-0.0015763
-0.0644902
0.0646095
-0.000581453
-0.000403495
-0.0647357
0.0647803
-0.000490243
-0.000453011
-0.0648198
0.0648636
-0.000375246
-0.000369184
-0.0648921
0.0649127
-0.000297246
-0.000279971
-0.0649223
0.0649312
-0.000260626
-0.000237788
-0.0649411
0.064961
-0.000222056
-0.000209134
-0.0649832
0.0650145
-0.000168353
-0.000171158
-0.06504
0.0650665
-0.000114489
-0.000130089
-0.0650881
0.0651021
-7.52398e-05
-0.000100841
-0.0651159
0.0651251
-6.95192e-05
-7.81594e-05
-0.0651274
0.0651387
-7.28031e-05
-4.93871e-05
-0.0651383
0.0651397
-3.99157e-05
-4.1243e-05
-0.0651735
0.0642587
0.000713783
-7.62776e-05
0.00104118
-0.00451433
0.00240253
0.0604667
0.0064148
-0.00532787
0.056905
0.0599617
-0.00107533
3.13881e-05
0.0634047
0.0636293
-2.1156e-05
1.5131e-06
0.0673196
0.0651598
8.40953e-06
-1.15639e-05
0.0673148
0.0651348
1.49585e-05
-1.35089e-05
0.0673184
0.065158
-0.000322415
0.000758988
0.0662842
0.0663803
-0.0013269
0.00158724
0.0682936
0.0688989
-0.00233982
0.0679317
0.00173434
0.0679497
-0.0640119
9.84224e-05
-0.0626454
3.37602e-05
-0.0638874
-0.000976511
-0.0627426
0.000190169
-0.0637632
0.00305159
-0.00251504
0.0673951
0.0676164
-0.0686504
0.0027683
0.0673027
0.00336536
-0.00057627
-0.0679402
0.00125185
-0.0663296
0.00211297
-0.0676872
0.00425843
-0.0675995
-0.00490624
0.00346508
-0.067468
-0.0651356
-0.000851818
0.00328735
-0.065676
0.00297028
-0.0635243
0.00295504
-0.0600586
0.00333195
-0.0561814
0.0555734
-0.0600046
-0.000896695
-0.0586019
-0.00321791
-0.00419252
0.00129367
-0.0553961
-0.00167583
-0.0611186
-0.00807642
0.00561786
0.0593636
0.0551303
-0.00763336
0.0623011
-0.0619504
-0.00233497
-0.00312414
0.0626869
-0.0640935
-0.000586265
-0.00192733
0.0645364
-0.0649865
-5.43795e-05
-0.000107956
0.0651463
-0.0651404
-7.18436e-05
-6.36181e-05
0.0651332
-0.0651217
-0.00011087
-6.82713e-05
0.0651188
-0.0651084
-0.000141244
-8.64109e-05
0.0651079
-0.0651035
-0.000167199
-0.000124666
0.0651016
-0.0650959
-0.000195548
-0.000160178
0.0650846
-0.0650642
-0.000222571
-0.000184494
0.0650395
-0.0650086
-0.000264112
-0.000211414
0.064982
-0.0649536
-0.000324787
-0.000256753
0.0649292
-0.064895
-0.000374805
-0.000308333
0.0648547
-0.0647952
-0.000431802
-0.000343979
0.0647395
-0.0646752
-0.00060346
-0.000433537
0.0646259
-0.0645759
-0.000812171
-0.000621349
0.0645354
-0.0645045
-0.000934407
-0.000751349
0.0644755
-0.0650976
-0.00112599
-0.000877419
0.066116
-0.0651413
-0.0011471
-0.00119044
0.0632196
-0.0597448
0.000577181
-0.000518753
0.0595967
-0.0598404
-0.00297423
-0.000826404
-0.0681835
0.0670925
-0.00299477
-0.00359597
0.00466799
-0.0686715
0.0682399
-0.0679423
-0.00389359
-0.00484986
-0.0664111
0.0663106
-0.00219175
-0.00106602
-0.0656756
0.0654182
-0.00136416
-0.00184101
-0.0646135
0.0645166
-0.000790769
-0.000771669
-0.0647001
0.0647391
-0.000620495
-0.000586955
-0.0647681
0.0648038
-0.000525989
-0.000481991
-0.0648409
0.0648882
-0.000422535
-0.000406268
-0.0649209
0.0649452
-0.000321573
-0.000312625
-0.0649564
0.0649665
-0.000270751
-0.000248949
-0.0649763
0.0649925
-0.000238249
-0.00021897
-0.065009
0.0650312
-0.000190599
-0.000187602
-0.0650494
0.0650706
-0.000135672
-0.000148271
-0.0650858
0.0651028
-9.221e-05
-0.00011611
-0.0651139
0.0651242
-7.98501e-05
-8.92599e-05
-0.065131
0.0651398
-8.16186e-05
-5.61744e-05
-0.0651412
0.0652929
-0.000191676
-4.25829e-05
-0.0647759
0.0648602
0.000629472
0.000440745
-0.065234
0.0683567
0.00261509
0.000667439
0.00183481
-0.00441577
0.00353074
0.0613517
0.0611638
-0.00158038
2.60945e-05
0.0649589
0.0655796
-1.92445e-05
2.51702e-06
0.0673364
0.0651666
1.92108e-05
-3.02745e-05
0.0673258
0.0651565
3.07892e-05
-2.72069e-05
0.0673149
0.0651585
-0.000228801
0.000877345
0.0656357
0.0661243
-0.00169293
0.00316344
0.0668231
0.0680833
0.0685981
-0.0638797
-0.0573872
-0.004129
-0.00894477
-0.0051817
-0.0469922
-0.0398489
-0.0264831
0.000118768
-0.0637407
3.68805e-05
-0.0637341
0.00283753
-0.00201158
0.0665692
0.00452581
0.0656144
0.000299906
-0.0636187
-0.000254372
-0.0664339
0.0018882
-0.0661048
0.00317168
-0.0673938
0.00449451
-0.0672946
0.00458212
-0.0682958
-0.00422858
0.0039541
-0.0680435
-0.0634835
0.00163523
0.000680746
-0.0633864
0.000960015
-0.0615293
0.00278438
-0.059511
0.00219328
-0.057081
-0.00260199
-0.0579758
-0.0124818
0.00720162
0.0646437
-0.023932
0.0665805
0.0613703
-0.0622309
-3.61177e-05
-0.0676823
0.0673826
0.00366508
-0.0685314
0.00361737
0.0453804
0.00835657
0.000201053
-0.0648161
0.063084
-0.0641201
-0.00129887
-0.00227109
0.064565
-0.0650993
-5.19595e-05
-0.0014824
0.065162
-0.065161
-5.53467e-05
-4.52573e-05
0.0651552
-0.0651491
-7.79125e-05
-6.94515e-05
0.0651437
-0.0651342
-0.000120402
-7.36728e-05
0.0651293
-0.0651223
-0.000148255
-9.12928e-05
0.0651185
-0.0651139
-0.00017185
-0.00012846
0.0651102
-0.0651047
-0.000201053
-0.000163782
0.0650967
-0.0650848
-0.000234541
-0.000192504
0.065071
-0.0650545
-0.000280587
-0.000225159
0.0650393
-0.0650198
-0.000344197
-0.000272042
0.0649978
-0.0649593
-0.000413303
-0.000330336
0.0649112
-0.0648403
-0.000502707
-0.000392072
0.0647765
-0.0647111
-0.000668819
-0.000497391
0.0646711
-0.0646393
-0.000843927
-0.000661402
0.0646196
-0.0646061
-0.000947848
-0.000771109
0.0645972
-0.064557
-0.00116618
-0.000886351
0.0646112
-0.0642819
-0.00147639
-0.00113622
0.0635472
-0.0621504
-0.000819642
-0.00125343
0.0616697
-0.0620812
-0.00256273
-0.00130715
-0.0123722
-0.0744688
0.0582518
-0.0749131
-0.0098218
-0.00795839
-0.0684732
0.0679826
-0.00340298
-0.00451994
0.00507056
-0.0688464
0.0684514
-0.0687087
-0.00426267
-0.00425037
-0.0663052
0.0652373
-0.00192692
-0.00317242
-0.0661117
0.0656485
-0.00172857
-0.00194041
-0.0647843
0.0647236
-0.00130349
-0.000976759
-0.0646638
0.0647007
-0.00082772
-0.000711827
-0.0647371
0.0647794
-0.000662753
-0.000623338
-0.0648125
0.0648503
-0.000563753
-0.000515131
-0.0648823
0.06492
-0.000460219
-0.000438272
-0.0649481
0.064974
-0.000347486
-0.000340779
-0.0649896
0.0650036
-0.000284709
-0.000264557
-0.0650134
0.065025
-0.000249853
-0.000228765
-0.0650356
0.0650503
-0.0002053
-0.00019821
-0.0650629
0.0650802
-0.00015296
-0.000160899
-0.0650919
0.0651089
-0.000109247
-0.000127759
-0.0651189
0.0651277
-8.87178e-05
-9.92098e-05
-0.0651391
0.0651413
-8.38806e-05
-6.75431e-05
-0.0651442
0.0650158
-6.3298e-05
-4.54527e-05
-0.0654965
0.0656834
0.000442604
-3.99509e-05
-0.0661091
0.0679088
0.000815421
0.000241755
0.00121216
-0.00445506
0.00185798
0.0639488
0.0639104
-0.00111701
0.000864381
0.0652116
0.0663206
2.29912e-06
-2.47318e-06
0.0673365
0.0660333
1.88333e-05
-2.79193e-05
0.0673349
0.0651729
2.41061e-05
-1.83929e-05
0.0673091
0.0651547
-0.000969582
-0.000709243
0.0673145
0.0651363
-0.000677265
0.00122456
0.0662758
0.0666968
0.0678111
-0.063724
0.00770609
0.0642023
0.00013395
-0.0635747
0.000329637
-0.0642027
0.00131121
-0.065857
0.00255871
-0.0654918
0.00317909
-0.0660784
0.00416523
-0.0675057
-0.0632842
0.000481434
0.000767612
-0.063194
0.00111953
-0.0598645
0.00112796
-0.0584457
0.00458116
-0.0675541
0.00488104
-0.0690485
-0.00454128
0.00659662
-0.070562
-0.00103235
-0.0586506
-0.00483605
-0.0655119
0.00126133
-0.0699353
-0.00623922
-0.0517542
3.46101e-05
-0.0635676
-0.0036404
-0.069567
0.000239813
-0.0634207
-0.0111549
0.0506923
0.00416397
-0.0437014
0.0622357
-0.0630049
0.000733064
0.0188381
0.0639169
-0.0643456
-0.000870253
-0.00135901
0.0651771
-0.0651767
-5.23678e-05
-0.000650885
0.065168
-0.0651699
-5.34386e-05
-5.38999e-05
0.0651658
-0.0651569
-8.68879e-05
-7.3537e-05
0.0651544
-0.0651471
-0.000127665
-7.6184e-05
0.0651409
-0.0651369
-0.00015225
-9.75351e-05
0.0651313
-0.0651271
-0.000175996
-0.000134037
0.0651223
-0.0651165
-0.000206903
-0.000168604
0.0651089
-0.0650988
-0.000244709
-0.000200046
0.0650877
-0.0650742
-0.000294084
-0.00023624
0.0650615
-0.0650454
-0.000360288
-0.000284739
0.065028
-0.0649994
-0.000441862
-0.000347717
0.0649655
-0.0649163
-0.000551892
-0.00042603
0.064872
-0.0648271
-0.000713668
-0.000541724
0.0648005
-0.0647782
-0.000866173
-0.000688068
0.064759
-0.0647323
-0.000974514
-0.000790312
0.0647061
-0.0646771
-0.00119525
-0.00091257
0.0646479
-0.0646074
-0.00151689
-0.00116537
0.0644211
-0.0634568
-0.00178398
-0.00143971
0.062843
-0.0625322
-0.00287347
-0.00192096
0.0661387
-0.0705977
-0.00536276
-0.00435195
-0.00539551
0.00584549
-0.0703852
0.0703652
-0.0698897
-0.00587095
-0.00647173
-0.0695365
0.0682214
-0.00294759
-0.00546597
0.00681798
-0.0704005
0.0697566
-0.0696553
-0.00556732
-0.00432116
-0.0676605
0.0675101
-0.00325262
-0.00368942
-0.0660464
0.0658549
-0.00173541
-0.00170872
-0.0652057
0.0648363
-0.00135911
-0.00129123
-0.0648693
0.0646273
-0.00106156
-0.00100976
-0.0647158
0.0647488
-0.000860741
-0.000800229
-0.0647858
0.0648349
-0.000711834
-0.000660344
-0.0648733
0.0649111
-0.000601512
-0.000553622
-0.0649362
0.0649613
-0.000485351
-0.000463367
-0.0649811
0.0650034
-0.00036982
-0.000360548
-0.0650202
0.0650366
-0.000301118
-0.000281286
-0.0650477
0.0650584
-0.000260597
-0.000239838
-0.0650666
0.0650774
-0.000216083
-0.000206459
-0.0650858
0.0650994
-0.000166587
-0.000169279
-0.0651073
0.0651212
-0.00012312
-0.00013565
-0.0651298
0.0651347
-9.35392e-05
-0.000107852
-0.06515
0.0651433
-7.71918e-05
-8.28878e-05
-0.0651547
0.0651624
-7.09948e-05
-5.68017e-05
-0.0651563
0.0656443
-4.53635e-05
-3.39025e-05
-0.0658707
0.0659802
0.00070591
1.53814e-05
-0.0675326
0.0678801
0.00326979
-0.000340229
-0.0672341
0.0596312
0.015309
0.00431111
-0.00739991
0.00449747
0.0675462
0.071433
-0.00196023
5.93665e-05
0.0658497
0.0664476
-0.00121653
-0.000898675
0.0673268
0.0651634
1.13004e-05
-3.7563e-07
0.0673256
0.0651459
2.08851e-06
-4.00195e-06
0.0673368
0.0651746
6.94532e-07
1.93071e-06
0.0673065
0.0651514
-7.02834e-06
1.01652e-05
0.0673114
0.0651312
-0.00154844
0.000496759
0.0673274
0.0651585
-0.00157012
0.00219939
0.0659399
0.0667377
-0.00301395
0.00739483
0.0598215
0.0647998
0.0558711
-0.0635555
0.00014592
-0.063391
0.000365307
-0.0632568
0.00066264
-0.0639609
0.00181252
-0.0641252
0.00238378
-0.064297
-0.0630637
0.000547058
0.000888558
-0.062963
0.00126744
-0.0600039
0.00293856
-0.0658631
0.00404079
-0.0649983
0.00447392
-0.0682179
8.93488e-05
-0.0595674
-0.00105718
-0.0624295
-0.000322474
-0.0688299
0.0060145
-0.0701457
-0.00552407
0.00335405
-0.06774
0.00453735
-0.0682589
0.00627947
-0.0709095
-0.00525972
0.00439522
-0.068501
0.0209644
-0.0520149
0.0769339
-0.0458834
-0.0688853
0.000437755
0.0675456
-0.0753484
0.000420443
0.00628422
0.0653725
4.73226e-05
-0.0633752
-0.0491965
0.00134554
0.000270245
-0.0632095
0.0631152
-0.0633988
0.00101663
0.0066049
0.0638582
-0.0650542
0.000325749
-0.000899598
0.0651826
-0.0651823
-5.27119e-05
-0.00052243
0.0651771
-0.0651761
-5.4382e-05
-5.91023e-05
0.0651748
-0.0651665
-9.51957e-05
-7.48963e-05
0.0651637
-0.0651598
-0.000131563
-7.89142e-05
0.0651533
-0.0651506
-0.000154943
-0.000104123
0.0651452
-0.0651408
-0.000180404
-0.00013936
0.065136
-0.0651295
-0.000213329
-0.000173466
0.0651223
-0.0651123
-0.000254686
-0.000207299
0.065102
-0.0650888
-0.000307299
-0.000246583
0.0650763
-0.0650607
-0.000375917
-0.000297161
0.0650455
-0.0650239
-0.000463464
-0.000362964
0.0650018
-0.0649738
-0.000579949
-0.000448069
0.0649518
-0.0649336
-0.00073185
-0.000563718
0.0649251
-0.0649148
-0.000876417
-0.000696593
0.0648966
-0.0648601
-0.00101094
-0.000808574
0.0648214
-0.0647816
-0.00123511
-0.000951271
0.0647593
-0.0647408
-0.00153532
-0.00118769
0.064725
-0.0646337
-0.00187532
-0.00145552
0.0647399
-0.0652748
-0.00233863
-0.00181471
0.0671534
-0.0698862
-0.00262992
-0.00247331
0.0704449
-0.0709863
-0.00532953
-0.00591307
-0.00434532
0.00386814
-0.0704323
0.0713303
-0.0707985
-0.0048771
-0.00491579
-0.0688308
0.0680652
-0.00480174
-0.00665812
0.0048439
-0.0683315
0.070752
-0.0713334
-0.00607669
-0.0036029
-0.0673229
0.0668086
-0.00243324
-0.00357883
-0.0654266
0.0646408
-0.00246678
-0.00230745
-0.0646846
0.0647045
-0.00175523
-0.00175259
-0.0647177
0.0647256
-0.00136708
-0.00130443
-0.0647382
0.0647619
-0.00108531
-0.00102234
-0.0647922
0.0648316
-0.000900106
-0.0008305
-0.0648694
0.0649148
-0.000757259
-0.000698181
-0.0649471
0.0649744
-0.000628789
-0.000585859
-0.0649896
0.0650045
-0.000500212
-0.000478607
-0.0650182
0.0650371
-0.00038866
-0.000374313
-0.0650528
0.0650687
-0.000317037
-0.000297049
-0.065079
0.0650879
-0.00026951
-0.000250107
-0.065094
0.0651018
-0.000223832
-0.000212569
-0.0651072
0.0651181
-0.000177489
-0.000174734
-0.0651228
0.0651351
-0.000135426
-0.000140301
-0.0651407
0.0651459
-9.87843e-05
-0.000113414
-0.0651583
0.0651503
-6.92479e-05
-9.52311e-05
-0.0651658
0.0651622
-6.73382e-05
-7.23089e-05
-0.0651596
0.0651778
-6.35667e-05
-3.13302e-05
-0.0653034
0.0660786
-6.93003e-05
-0.000110243