/*--------------------------------*- C++ -*----------------------------------*\
  =========                 |
  \\      /  F ield         | OpenFOAM: The Open Source CFD Toolbox
   \\    /   O peration     | Website:  https://openfoam.org
    \\  /    A nd           | Version:  10
     \\/     M anipulation  |
\*---------------------------------------------------------------------------*/
FoamFile
{
    format      ascii;
    class       volVectorField;
    location    "34";
    object      U;
}
// * * * * * * * * * * * * * * * * * * * * * * * * * * * * * * * * * * * * * //

dimensions      [0 1 -1 0 0 0 0];

internalField   nonuniform List<vector> 
25879
(
(1.07663 0.00363844 4.7702e-21)
(1.07352 0.00530913 -7.36937e-21)
(1.0732 0.00278856 1.35999e-20)
(1.07582 0.00193192 -1.32812e-20)
(1.0082 -0.500905 1.53995e-22)
(0.98851 -0.482842 -1.28773e-21)
(1.30985 0.0566439 0)
(1.29813 0.0674013 -1.16795e-20)
(1.27219 0.0637178 0)
(1.2727 0.0509986 0)
(1.40997 0.080437 -5.28968e-21)
(1.36876 0.0694218 1.52441e-20)
(1.45936 0.0934281 -1.22466e-19)
(0.0158238 -0.219519 1.99501e-20)
(0.112174 -0.268084 -2.9973e-20)
(1.05012 0.511643 -1.60022e-20)
(1.11288 0.655106 -6.15841e-21)
(1.24753 -0.663124 2.93192e-20)
(1.38763 -0.623449 -1.61419e-20)
(0.468177 -0.104235 6.74666e-20)
(0.455966 -0.259462 3.09428e-19)
(0.394199 0.767133 -7.44864e-20)
(0.676895 0.667151 7.55067e-20)
(1.03695 0.0425306 5.91498e-21)
(1.04236 0.0472616 7.38688e-21)
(1.03638 0.0462917 3.46e-22)
(1.02999 0.0390787 -5.89794e-23)
(1.03408 0.0357516 -7.71752e-21)
(1.03017 0.0356181 -1.0617e-20)
(1.03957 0.0401091 -4.30065e-21)
(1.04535 0.0450585 4.99625e-20)
(-0.00819589 -0.0314081 3.89421e-20)
(-0.0186714 -0.00597769 -1.60698e-20)
(-0.0753412 -0.110981 2.49938e-20)
(0.744388 0.102291 -9.13881e-21)
(0.92941 0.168846 -1.36243e-21)
(0.939607 0.192522 1.27455e-21)
(1.38092 0.0189828 -9.43653e-22)
(1.40007 0.00406461 -1.25647e-20)
(1.67789 0.200817 -9.07963e-20)
(1.56659 0.16545 -1.15067e-20)
(1.47674 0.181339 -1.41397e-20)
(0.98517 -0.231925 -1.85049e-20)
(0.977432 -0.209284 0)
(0.975952 -0.18999 -1.31349e-21)
(1.42612 -0.27772 0)
(1.44224 -0.266157 2.12918e-20)
(0.345803 -0.00556111 1.3295e-19)
(0.735607 -0.0136794 6.92049e-21)
(0.856985 0.0284169 0)
(1.16981 -0.431477 5.02322e-21)
(1.17532 -0.385301 -1.45104e-20)
(0.915025 0.284106 -1.74841e-19)
(1.15964 0.455222 0)
(0.597422 0.00443025 -4.74754e-22)
(0.585288 0.00306958 0)
(0.625005 0.0049348 7.60416e-22)
(0.860954 0.244538 -8.7045e-20)
(0.855851 0.222678 8.52258e-20)
(0.900415 0.197857 -1.62607e-19)
(0.907213 0.235752 1.50941e-19)
(0.920261 0.355255 1.13803e-21)
(0.930793 0.28808 -5.07429e-21)
(0.743463 -0.00890578 -1.18659e-22)
(0.804326 -0.0102562 1.4607e-21)
(0.763933 -0.00806433 -1.05525e-21)
(-0.102105 -0.0313685 1.77592e-21)
(-0.081616 -0.0507842 0)
(-0.0228699 0.00620177 0)
(-0.0774625 -0.105226 8.52871e-20)
(-0.0216028 -0.080509 -2.4268e-19)
(1.00642 0.0291798 1.75924e-20)
(1.01028 0.0409693 0)
(1.01352 0.0448501 -9.4391e-21)
(1.06504 -0.109798 4.32455e-20)
(1.01921 -0.123807 0)
(1.00433 -0.0843968 1.67777e-20)
(1.06692 0.00144724 0)
(1.06573 -0.00274791 8.47829e-21)
(1.06889 -0.00108671 8.84508e-21)
(0.961534 -0.220864 0)
(0.969514 -0.252048 4.6352e-20)
(0.331776 0.259452 6.32636e-20)
(0.512805 0.204379 3.27556e-19)
(0.440424 0.393165 0)
(0.998626 -0.0142766 1.51395e-20)
(1.0002 -0.0189699 -1.41884e-20)
(1.00488 -0.0220549 0)
(1.11155 0.0274289 1.35529e-21)
(1.10467 0.0240716 -3.93943e-23)
(0.259221 -0.27566 -1.7425e-19)
(0.497689 -0.297098 2.09099e-19)
(0.177617 -0.177037 5.0764e-20)
(1.04194 0.0395324 2.02987e-20)
(1.03751 0.0351732 -5.99614e-22)
(1.04633 -0.481257 5.58595e-21)
(1.03861 -0.49647 -2.08366e-21)
(1.01359 -0.476072 9.25122e-22)
(0.858913 0.144457 -1.62489e-20)
(0.837136 0.12212 -6.27057e-22)
(0.814504 0.14194 1.37982e-21)
(0.774426 0.131514 6.42846e-21)
(1.11384 0.0339758 1.2905e-21)
(1.11913 0.0353117 -9.57531e-23)
(1.11882 0.0300069 -6.48334e-23)
(1.07196 -0.0801694 7.52553e-21)
(1.05414 -0.0651633 -2.22755e-21)
(1.17208 -0.501676 -3.02228e-20)
(1.07599 -0.64292 2.49279e-20)
(0.960855 0.212628 -5.23602e-22)
(0.978464 0.231957 4.96709e-22)
(1.15839 0.00290651 -4.30615e-21)
(1.15584 0.00154072 0)
(1.08233 0.0239684 4.95384e-21)
(1.07868 0.0266202 -6.3757e-21)
(1.07381 0.163273 -1.75376e-21)
(1.08642 0.172808 1.91093e-21)
(1.38163 0.0461012 1.97999e-20)
(1.27786 0.239194 -8.57586e-21)
(1.2437 0.211184 1.26211e-20)
(1.23372 0.182812 -1.88951e-20)
(1.48278 -0.222583 -2.92306e-21)
(1.48516 -0.208914 0)
(1.48205 0.261713 -4.53377e-20)
(1.46197 0.240099 1.01024e-19)
(0.688637 -0.25565 -1.01321e-19)
(0.958375 -0.233562 0)
(-0.166527 -0.416251 -1.55571e-20)
(-0.0625072 -0.419821 0)
(-0.0352346 -0.338593 0)
(-0.111209 -0.285367 -8.2421e-20)
(-0.0935866 -0.228737 1.59224e-19)
(0.907566 -0.0503767 0)
(0.920162 -0.0671997 1.03027e-19)
(0.934659 -0.0475474 3.19624e-20)
(0.926105 -0.0361201 -2.64108e-20)
(1.07157 0.001385 -1.98317e-20)
(1.06979 0.00340013 1.23174e-20)
(1.29204 0.0455605 -1.30839e-20)
(0.611302 -0.00786051 -1.51955e-22)
(1.01758 0.304747 -4.72882e-20)
(0.99339 0.288981 0)
(1.00496 0.359217 -5.46324e-21)
(1.01245 0.391688 0)
(1.01839 0.461008 0)
(1.02284 0.495032 1.15295e-20)
(1.02576 0.524914 -1.08752e-21)
(1.02974 0.540339 -2.13394e-20)
(1.0322 0.548287 1.00326e-20)
(1.0352 0.548894 -8.54028e-21)
(1.03738 0.546777 5.68582e-22)
(1.03935 0.543754 7.96549e-21)
(1.0407 0.542302 0)
(1.04147 0.543281 -7.07434e-21)
(1.04163 0.54706 6.99602e-21)
(1.0411 0.553275 0)
(1.03994 0.561419 7.2143e-21)
(1.0379 0.570814 -7.29499e-21)
(1.03494 0.580808 8.00504e-21)
(1.03064 0.590319 -1.68058e-20)
(1.02489 0.598087 1.80046e-20)
(1.01721 0.601943 -1.99273e-20)
(1.00761 0.599661 1.03174e-20)
(0.995789 0.587969 0)
(0.982119 0.564271 0)
(0.966676 0.525246 1.55513e-20)
(0.950359 0.469514 1.37786e-21)
(0.933564 0.395618 -1.6945e-20)
(0.917353 0.305017 -1.90458e-20)
(0.902058 0.199485 1.92512e-20)
(0.888658 0.0836051 -2.01768e-20)
(0.877731 -0.0371488 2.10524e-20)
(0.870014 -0.155952 -1.28242e-21)
(0.86542 -0.266304 0)
(0.866987 -0.368281 0)
(0.872577 -0.45162 -4.04047e-21)
(0.883123 -0.515762 -2.22307e-20)
(0.836759 -0.345904 0)
(0.842182 -0.432855 6.68693e-21)
(0.906395 -0.470382 -4.91947e-21)
(0.962971 0.295331 5.07858e-21)
(0.955027 0.215308 -2.48944e-21)
(0.988839 0.220201 0)
(0.913404 -0.533423 0)
(0.902683 -0.287933 0)
(0.902181 -0.387959 9.04324e-21)
(0.91474 -0.0533773 2.13639e-20)
(0.907309 -0.175281 1.25802e-21)
(0.936663 0.191074 7.36765e-22)
(0.924955 0.0709333 -4.22857e-20)
(0.964458 0.395901 0)
(0.950205 0.300957 2.03041e-20)
(0.993617 0.53202 -3.23515e-20)
(0.979414 0.473517 1.63864e-20)
(1.01812 0.597108 1.24697e-20)
(1.0069 0.572765 1.48907e-20)
(1.03438 0.610217 1.0145e-20)
(1.02744 0.608677 -1.20555e-20)
(1.04257 0.596341 0)
(1.03945 0.605319 -9.8081e-21)
(1.04478 0.574524 0)
(1.04432 0.585636 0)
(1.04316 0.554984 7.18421e-21)
(1.04437 0.564106 0)
(1.0388 0.542883 7.29526e-21)
(1.04131 0.547748 -6.94552e-21)
(1.03165 0.541247 -7.90711e-21)
(1.03557 0.540777 -7.05284e-21)
(1.02167 0.545561 -9.07591e-21)
(1.02692 0.543531 7.64431e-21)
(1.00944 0.538565 -1.08088e-20)
(1.01571 0.545003 8.77121e-21)
(0.994933 0.499013 -1.28869e-20)
(1.00232 0.523795 1.03078e-20)
(0.977686 0.417204 0)
(0.986679 0.460613 1.26962e-20)
(0.971201 0.359522 -3.42974e-22)
(1.05259 0.451124 0)
(1.05448 0.324178 2.62308e-20)
(1.04923 0.393451 0)
(1.05259 0.521363 1.23314e-20)
(1.05181 0.490554 -1.26261e-20)
(1.05187 0.546837 3.10225e-22)
(1.05243 0.538018 6.57868e-25)
(1.05017 0.547103 1.66414e-20)
(1.05155 0.54877 -8.37097e-21)
(1.04771 0.541553 0)
(1.04943 0.543726 -7.75895e-21)
(1.04377 0.543862 0)
(1.0462 0.541264 0)
(1.03753 0.555735 6.92766e-21)
(1.0411 0.548696 0)
(1.02804 0.57269 7.54445e-21)
(1.03331 0.563776 -6.71478e-21)
(1.01354 0.587658 8.70956e-21)
(1.02151 0.580808 -7.31259e-21)
(0.991981 0.588195 0)
(1.00363 0.590536 -8.44188e-21)
(0.962487 0.554899 -1.27358e-20)
(0.978021 0.576902 0)
(0.926806 0.466493 4.33065e-22)
(0.944991 0.51855 1.27278e-20)
(0.889342 0.31102 1.58874e-20)
(0.907718 0.397305 -1.54326e-20)
(0.856684 0.0981475 -3.63108e-20)
(0.871635 0.210629 1.69701e-20)
(0.836946 -0.133731 5.5194e-22)
(0.844231 -0.0176086 1.78032e-20)
(0.834486 -0.243987 0)
(1.02075 0.229823 -5.74716e-21)
(0.982604 0.139511 -4.80965e-23)
(0.947887 0.133081 -1.30648e-21)
(0.922352 -0.578044 7.54471e-21)
(0.899671 -0.562825 -1.3008e-20)
(0.948047 -0.58719 -5.97584e-21)
(0.930829 -0.605472 0)
(0.952566 -0.613746 7.41037e-21)
(0.849786 -0.492798 1.31329e-22)
(0.81219 -0.32508 7.43874e-21)
(0.817285 -0.407205 -2.07807e-20)
(1.09243 0.323521 1.38216e-20)
(1.05583 0.240482 1.60041e-20)
(1.09305 0.245764 -5.12384e-21)
(1.0553 0.151794 -1.11483e-20)
(1.01802 0.144273 4.21827e-21)
(0.940098 -0.476743 -9.60109e-21)
(0.943325 -0.541086 4.66084e-21)
(0.943178 -0.29767 -1.39028e-21)
(0.93962 -0.395561 5.45348e-21)
(0.956706 -0.0611088 0)
(0.949 -0.184103 0)
(0.975927 0.186514 5.64757e-21)
(0.965459 0.0649448 -2.15993e-23)
(1.00001 0.395812 -4.96317e-21)
(0.987437 0.298539 -5.42209e-21)
(1.02461 0.53568 0)
(1.01255 0.475465 4.76568e-21)
(1.04361 0.601766 0)
(1.03503 0.577121 0)
(1.05388 0.613707 0)
(1.0498 0.612806 0)
(1.05622 0.597927 2.3909e-21)
(1.05586 0.607802 -2.29588e-21)
(1.05302 0.574391 2.03896e-21)
(1.05514 0.586274 -1.95791e-21)
(1.04641 0.553506 1.84858e-21)
(1.05004 0.563267 -1.77511e-21)
(1.03735 0.539942 0)
(1.0422 0.545595 0)
(1.02542 0.536622 0)
(1.03182 0.536981 0)
(1.01008 0.54013 2.0665e-21)
(1.0182 0.538296 -1.98436e-21)
(0.991846 0.53415 0)
(1.00129 0.539851 0)
(0.971425 0.495979 1.4772e-21)
(0.981855 0.520485 0)
(0.951768 0.412244 0)
(0.961141 0.460461 0)
(0.934133 0.286461 -4.55186e-21)
(0.94313 0.353651 4.10925e-21)
(0.916778 0.127602 0)
(0.924937 0.210431 2.40283e-21)
(1.08664 0.44519 3.7175e-21)
(1.08813 0.390309 -3.87992e-21)
(1.08099 0.517384 -6.37987e-21)
(1.08386 0.485914 6.40196e-21)
(1.07335 0.545848 -3.18587e-22)
(1.07751 0.535549 -1.66801e-25)
(1.06484 0.546169 4.43705e-21)
(1.06922 0.547889 -4.22335e-21)
(1.05642 0.5395 3.79773e-21)
(1.0608 0.542485 -3.61482e-21)
(1.04735 0.539668 3.43345e-21)
(1.05217 0.538276 -3.26809e-21)
(1.03642 0.548966 3.30889e-21)
(1.04229 0.543332 -3.14952e-21)
(1.02231 0.56293 3.41692e-21)
(1.02994 0.555726 -3.25236e-21)
(1.00317 0.57443 3.77424e-21)
(1.01357 0.569574 -3.59248e-21)
(0.977007 0.571771 4.40673e-21)
(0.991119 0.575883 -4.19456e-21)
(0.943 0.537129 5.31936e-21)
(0.960992 0.559773 -5.06334e-21)
(0.902872 0.45089 3.05805e-21)
(0.923519 0.501563 -3.86449e-22)
(0.861589 0.302055 4.52313e-21)
(0.881963 0.384331 -3.79266e-21)
(0.827853 0.100737 -2.49401e-22)
(0.843183 0.206235 -3.29213e-21)
(0.810849 -0.120186 -5.51751e-22)
(0.816992 -0.00985748 0)
(0.809521 -0.226545 0)
(0.878838 -0.554198 3.71052e-21)
(1.09395 0.156843 2.80087e-21)
(0.910825 -0.593379 -3.67428e-21)
(0.910387 0.0406036 -2.45901e-21)
(0.889977 0.121053 1.82656e-21)
(0.88369 0.0351359 -2.73238e-22)
(0.940347 -0.616083 0)
(0.958325 -0.624342 -2.17094e-22)
(0.827504 -0.471127 -2.94752e-21)
(0.843916 -0.516571 -3.29187e-21)
(0.85825 -0.535568 1.44793e-20)
(0.977776 0.0509848 -5.14946e-22)
(0.942395 0.0461341 -3.23505e-22)
(1.05489 0.0586846 2.77746e-21)
(1.01504 0.0538171 2.59175e-22)
(0.974314 -0.590923 1.03389e-21)
(0.97662 -0.627677 -3.24834e-21)
(0.974674 -0.617066 1.82522e-21)
(0.975656 -0.480072 3.07262e-22)
(0.97413 -0.54517 0)
(0.985536 -0.296184 1.43006e-21)
(0.979335 -0.396409 -6.56988e-22)
(1.00048 -0.0560879 0)
(0.992677 -0.180359 0)
(1.01871 0.193009 0)
(1.00909 0.070462 0)
(1.04006 0.404225 0)
(1.02923 0.306136 0)
(1.05971 0.543444 0)
(1.05054 0.484002 0)
(1.07196 0.606253 0)
(1.067 0.583491 0)
(1.075 0.614371 0)
(1.07458 0.615342 0)
(1.07067 0.595673 0)
(1.07358 0.606858 0)
(1.06168 0.570334 0)
(1.0666 0.582987 0)
(1.04999 0.548361 0)
(1.05609 0.558606 0)
(1.03629 0.533719 0)
(1.04341 0.539947 0)
(1.01982 0.528862 0)
(1.02847 0.530033 0)
(0.99968 0.530816 0)
(1.01021 0.529703 0)
(0.976392 0.523922 0)
(0.988313 0.529995 0)
(0.951554 0.485689 -1.4755e-21)
(0.963989 0.510131 0)
(0.927773 0.402276 0)
(0.93914 0.449695 7.31188e-22)
(0.907245 0.278147 0)
(0.917043 0.345059 2.73688e-23)
(0.897957 0.203127 5.37984e-22)
(1.12821 0.323558 -4.67597e-21)
(1.133 0.16224 1.26776e-21)
(1.13008 0.246971 -3.75773e-21)
(1.11973 0.441973 6.22397e-22)
(1.12365 0.38869 -4.98501e-22)
(1.10792 0.513455 0)
(1.11413 0.48308 -8.34307e-25)
(1.0937 0.541657 0)
(1.10093 0.531742 1.6963e-25)
(1.07917 0.542132 0)
(1.08645 0.54394 0)
(1.06529 0.535061 0)
(1.07225 0.538405 0)
(1.0514 0.534065 0)
(1.05852 0.533398 0)
(1.03603 0.541493 0)
(1.04407 0.536891 0)
(1.01759 0.552793 0)
(1.02737 0.547018 0)
(0.99406 0.560674 0)
(1.00664 0.557701 0)
(0.963451 0.553846 0)
(0.979762 0.559995 0)
(0.925061 0.515694 0)
(0.945195 0.539839 0)
(0.880999 0.428403 0)
(0.903469 0.479094 0)
(0.83739 0.28299 0)
(0.858571 0.362828 0)
(0.804051 0.0904018 2.53471e-22)
(0.818798 0.191002 0)
(0.78831 -0.118498 -1.85692e-21)
(0.793669 -0.0142985 0)
(0.791689 -0.310513 -4.48042e-22)
(0.787944 -0.2186 1.79473e-21)
(0.812426 -0.453485 8.57975e-21)
(0.799367 -0.388866 3.7713e-22)
(0.963899 -0.62482 7.52751e-22)
(0.978772 -0.62812 2.03535e-21)
(1.09514 0.0636199 0)
(0.892537 -0.5762 -2.62261e-21)
(0.907205 -0.0488098 1.1498e-21)
(0.879992 -0.0524443 -2.12206e-21)
(0.923474 -0.604019 0)
(0.949106 -0.61679 -2.73858e-21)
(0.831092 -0.496765 -5.83201e-21)
(0.863293 -0.541238 -2.43942e-21)
(1.17022 0.163848 3.60306e-21)
(0.969159 -0.620527 0)
(0.980563 -0.623251 -9.43967e-22)
(1.13445 0.0689914 1.0357e-20)
(1.17091 0.0735307 -1.0457e-20)
(0.852806 -0.52106 4.37402e-21)
(0.876785 -0.560138 0)
(0.974344 -0.0418256 6.5852e-22)
(0.938088 -0.0441681 1.53049e-21)
(1.05356 -0.0361645 0)
(1.01295 -0.0398798 -8.44177e-23)
(1.13519 -0.027866 0)
(1.09537 -0.0333984 0)
(0.995448 -0.62602 0)
(0.991932 -0.621874 1.97892e-21)
(0.993911 -0.626446 -1.27057e-21)
(1.00128 -0.588445 2.92094e-21)
(0.997552 -0.615037 -3.779e-21)
(1.01165 -0.475876 -1.48262e-21)
(1.00606 -0.542196 1.16578e-21)
(1.02757 -0.288096 0)
(1.01911 -0.390528 0)
(1.04551 -0.046513 0)
(1.0365 -0.171446 0)
(1.06415 0.204322 0)
(1.05472 0.0809098 0)
(1.08275 0.415477 0)
(1.07373 0.317848 0)
(1.09642 0.551111 0)
(1.09058 0.493845 0)
(1.10091 0.608586 0)
(1.09993 0.588531 0)
(1.09615 0.612073 0)
(1.09955 0.615168 0)
(1.08493 0.590434 0)
(1.09114 0.602882 0)
(1.07019 0.563519 0)
(1.07787 0.576835 0)
(1.05361 0.540628 0)
(1.06208 0.551296 0)
(1.03549 0.524962 0)
(1.04478 0.53176 0)
(1.01477 0.518466 0)
(1.02556 0.520527 0)
(0.990233 0.518527 0)
(1.003 0.518323 0)
(0.962427 0.510273 0)
(0.976614 0.51688 0)
(0.933592 0.471764 0)
(0.947976 0.496018 0)
(0.906366 0.389723 0)
(0.91959 0.43638 0)
(0.883209 0.266675 0)
(0.894181 0.333017 -2.68829e-23)
(0.866094 0.114178 -1.12543e-21)
(0.873849 0.193351 -4.46326e-22)
(0.857236 -0.0540478 3.99271e-21)
(0.860528 0.0309139 0)
(1.16231 0.320199 1.05485e-21)
(1.16628 0.246789 -1.19465e-21)
(1.15011 0.435725 0)
(1.1569 0.383612 -1.03482e-21)
(1.1327 0.505374 0)
(1.14192 0.476126 0)
(1.11271 0.533123 0)
(1.12284 0.523552 0)
(1.09272 0.534017 0)
(1.10261 0.535638 0)
(1.07391 0.527349 0)
(1.0832 0.530583 0)
(1.05562 0.526043 0)
(1.06483 0.52567 0)
(1.03622 0.532273 0)
(1.04621 0.528409 0)
(1.01384 0.541408 0)
(1.02556 0.536871 0)
(0.986399 0.546007 0)
(1.00093 0.544833 0)
(0.951892 0.535091 0)
(0.970143 0.543359 0)
(0.909814 0.493177 0)
(0.931749 0.519089 0)
(0.862827 0.404403 0)
(0.886623 0.455444 0)
(0.817893 0.261993 0)
(0.839517 0.339711 0)
(0.784716 0.077553 0)
(0.79928 0.173557 0)
(0.769834 -0.12109 0)
(0.774772 -0.0219342 0)
(0.775132 -0.30167 -1.43932e-21)
(0.769954 -0.215491 0)
(0.800591 -0.433404 -6.6133e-22)
(0.784901 -0.374998 1.70502e-21)
(0.844277 -0.498244 0)
(0.821272 -0.474765 -2.50822e-21)
(0.981545 -0.618227 -3.54026e-21)
(0.990171 -0.616759 2.62435e-21)
(0.876074 -0.53025 -6.27565e-21)
(0.869603 -0.50867 -6.61342e-21)
(0.907929 -0.588801 -8.22209e-22)
(0.884507 -0.55096 2.42622e-21)
(1.17174 -0.0225789 -1.01705e-20)
(0.935905 -0.605629 0)
(0.856847 -0.137219 9.68275e-22)
(0.838755 -0.0549445 -1.87461e-21)
(0.839405 -0.135509 8.25195e-22)
(0.958043 -0.613116 2.61831e-21)
(0.973201 -0.616109 -2.31587e-21)
(0.900613 -0.531908 2.20154e-22)
(0.981846 -0.616379 1.92545e-21)
(0.987048 -0.614395 -2.18099e-22)
(0.896109 -0.511042 5.08089e-21)
(0.89513 -0.571146 6.04945e-22)
(0.905815 -0.138658 -2.2337e-21)
(0.879198 -0.138496 2.11227e-21)
(0.972954 -0.135862 -6.24272e-22)
(0.937055 -0.13758 0)
(1.05133 -0.132364 -2.63994e-21)
(1.01091 -0.13509 0)
(1.13166 -0.124557 -1.33943e-21)
(1.09246 -0.128613 4.0132e-21)
(1.0037 -0.617444 -1.75521e-21)
(0.991915 -0.609144 1.74122e-21)
(0.999014 -0.61183 5.62828e-22)
(1.01509 -0.620738 0)
(1.00933 -0.621835 1.47147e-21)
(1.02924 -0.581374 0)
(1.02126 -0.608874 0)
(1.0485 -0.467135 0)
(1.03849 -0.534173 0)
(1.07017 -0.278087 0)
(1.0592 -0.381048 0)
(1.09132 -0.0371079 0)
(1.081 -0.161706 0)
(1.11047 0.21326 0)
(1.1012 0.0901762 0)
(1.12589 0.422312 0)
(1.11894 0.326029 0)
(1.13319 0.553647 0)
(1.13084 0.498744 0)
(1.12978 0.606156 0)
(1.13283 0.58853 0)
(1.11722 0.605836 0)
(1.12442 0.610618 0)
(1.09927 0.582079 0)
(1.10869 0.595394 0)
(1.07898 0.554182 0)
(1.08929 0.567895 0)
(1.05774 0.530718 0)
(1.06845 0.541664 0)
(1.03552 0.514186 0)
(1.04681 0.521499 0)
(1.01099 0.506034 0)
(1.02366 0.509019 0)
(0.982604 0.504141 0)
(0.997312 0.504877 0)
(0.950851 0.494783 0)
(0.967003 0.501785 0)
(0.918409 0.456588 0)
(0.9345 0.480544 0)
(0.888315 0.376219 0)
(0.902878 0.421914 0)
(0.863281 0.255381 -5.94366e-24)
(0.875069 0.320702 5.95038e-24)
(0.84587 0.106946 -7.36334e-23)
(0.853515 0.183381 4.92666e-23)
(0.840899 0.0263485 -4.40807e-22)
(1.20523 0.163676 -2.33934e-21)
(1.20651 -0.0149974 1.23135e-20)
(1.20558 0.0755861 -4.62912e-21)
(1.1956 0.314562 -2.49186e-22)
(1.20039 0.243648 -2.82347e-22)
(1.17851 0.426558 0)
(1.18754 0.376217 0)
(1.15582 0.493918 0)
(1.16765 0.465798 0)
(1.13046 0.521092 0)
(1.14325 0.51177 0)
(1.10545 0.522602 0)
(1.11777 0.523864 0)
(1.08217 0.516743 0)
(1.0936 0.519629 0)
(1.05993 0.515546 0)
(1.07104 0.515245 0)
(1.0369 0.520898 0)
(1.04866 0.517611 0)
(1.01103 0.5281 0)
(1.02447 0.524682 0)
(0.980153 0.529646 0)
(0.996377 0.530147 0)
(0.942366 0.514931 0)
(0.962221 0.525154 0)
(0.897443 0.4697 0)
(0.920717 0.497117 0)
(0.848565 0.380142 0)
(0.873151 0.431136 0)
(0.803059 0.241467 0)
(0.824816 0.31671 0)
(0.770063 0.0651064 0)
(0.784504 0.156698 0)
(0.755559 -0.123589 0)
(0.760265 -0.0295416 0)
(0.762172 -0.292636 0)
(0.756128 -0.212699 0)
(0.790683 -0.412181 0)
(0.773654 -0.359915 0)
(0.836629 -0.471049 7.98443e-22)
(0.811984 -0.448255 0)
(0.891571 -0.488259 0)
(0.863674 -0.483415 3.11229e-21)
(0.982577 -0.615699 -1.01445e-21)
(0.985423 -0.609286 8.52791e-22)
(0.920821 -0.513135 0)
(0.917544 -0.492168 0)
(1.1688 -0.117693 0)
(0.924606 -0.590724 -4.99246e-22)
(0.9066 -0.552784 0)
(0.860317 -0.217888 3.64396e-22)
(0.843731 -0.212737 1.39061e-21)
(0.948339 -0.602943 5.68761e-22)
(0.924002 -0.533526 8.80141e-22)
(0.965647 -0.610074 5.8636e-22)
(0.976635 -0.615159 -7.37067e-22)
(0.98013 -0.618681 0)
(1.2391 -0.0095015 -2.252e-21)
(0.943656 -0.519544 -2.55364e-21)
(0.976888 -0.620401 -2.35398e-21)
(0.976449 -0.612976 -1.55428e-21)
(0.940813 -0.498223 -5.36618e-22)
(1.20315 -0.109071 0)
(1.23459 -0.0993414 6.76965e-21)
(0.914838 -0.573033 -8.56456e-22)
(0.907642 -0.225602 0)
(0.881522 -0.221932 1.30379e-22)
(0.972022 -0.228067 3.09706e-22)
(0.937848 -0.227095 -2.84434e-22)
(1.04888 -0.22507 1.59008e-22)
(1.0094 -0.228232 0)
(1.12748 -0.216019 0)
(1.0886 -0.22181 -1.618e-22)
(1.19933 -0.200395 9.23871e-21)
(1.16469 -0.209966 -4.7541e-21)
(0.99786 -0.600525 -9.17516e-22)
(0.976583 -0.602157 -6.47624e-22)
(0.988585 -0.599671 -9.50253e-23)
(1.01619 -0.609353 1.87072e-23)
(1.00756 -0.603878 0)
(1.03498 -0.611662 0)
(1.02516 -0.613573 -8.57943e-22)
(1.05791 -0.569397 8.50305e-22)
(1.04585 -0.598082 -1.03898e-21)
(1.08508 -0.454864 0)
(1.07122 -0.521977 0)
(1.11246 -0.266258 0)
(1.09899 -0.36885 0)
(1.13682 -0.0268285 0)
(1.12519 -0.150607 0)
(1.15642 0.221727 0)
(1.14734 0.0996422 0)
(1.16868 0.427312 0)
(1.16377 0.333063 0)
(1.16958 0.553099 0)
(1.17076 0.501133 0)
(1.15812 0.600025 0)
(1.16527 0.585032 0)
(1.13777 0.59603 0)
(1.14875 0.602358 0)
(1.11324 0.570669 0)
(1.12577 0.584576 0)
(1.08768 0.542304 0)
(1.10048 0.556173 0)
(1.0621 0.518624 0)
(1.07489 0.52969 0)
(1.03612 0.501457 0)
(1.04923 0.509182 0)
(1.00819 0.491752 0)
(1.02253 0.495629 0)
(0.976491 0.487857 0)
(0.992862 0.489567 0)
(0.941391 0.477389 0)
(0.959207 0.484754 0)
(0.90594 0.439741 0)
(0.923459 0.463206 0)
(0.873636 0.36148 0)
(0.889195 0.405971 0)
(0.847567 0.24429 6.77536e-22)
(0.859683 0.307375 -6.68364e-22)
(0.829885 0.0994782 -3.56709e-22)
(0.83743 0.17469 4.3518e-22)
(0.824317 -0.0558088 0)
(0.82563 0.0222434 -1.78625e-22)
(0.831242 -0.20563 -3.25964e-21)
(0.826098 -0.1329 -7.16249e-22)
(1.23724 0.161823 -1.05061e-21)
(1.2386 0.0784547 2.31626e-21)
(1.22544 0.307372 2.49898e-22)
(1.23214 0.238574 1.29446e-21)
(1.2044 0.415248 0)
(1.21569 0.366591 0)
(1.17698 0.480089 0)
(1.19121 0.45301 0)
(1.1468 0.506662 0)
(1.16198 0.497485 0)
(1.11731 0.508935 0)
(1.1318 0.509742 0)
(1.09005 0.504066 0)
(1.1034 0.506508 0)
(1.06429 0.503127 0)
(1.0771 0.502825 0)
(1.03804 0.507671 0)
(1.05138 0.50493 0)
(1.00908 0.512954 0)
(1.02405 0.510644 0)
(0.975224 0.51149 0)
(0.992913 0.513627 0)
(0.934736 0.493158 0)
(0.955882 0.505211 0)
(0.887742 0.445054 0)
(0.911943 0.473704 0)
(0.837812 0.355409 0)
(0.862779 0.405974 0)
(0.792249 0.221054 0)
(0.813941 0.293559 0)
(0.759537 0.0529742 0)
(0.773825 0.140057 0)
(0.745767 -0.125354 0)
(0.750014 -0.0366594 0)
(0.75413 -0.283593 0)
(0.74703 -0.208971 0)
(0.785258 -0.393368 0)
(0.766963 -0.345867 0)
(0.833676 -0.445223 0)
(0.807849 -0.425772 0)
(0.888875 -0.463565 1.04824e-21)
(0.861062 -0.45646 -6.62704e-22)
(0.937502 -0.476569 -3.73324e-21)
(0.914496 -0.469303 8.66906e-22)
(0.962373 -0.506781 0)
(0.959284 -0.485196 1.92549e-21)
(0.965702 -0.618372 7.74466e-22)
(0.963299 -0.60585 1.28279e-22)
(0.940168 -0.589319 5.38454e-22)
(0.928087 -0.553574 -8.41841e-22)
(1.22992 -0.189509 3.79373e-21)
(0.959455 -0.601247 -5.21582e-22)
(0.945341 -0.53856 3.5731e-22)
(0.839733 -0.273388 1.31994e-21)
(0.822837 -0.198838 3.22212e-22)
(0.832312 -0.26315 -6.05784e-22)
(0.972095 -0.61051 5.2783e-22)
(0.964995 -0.527984 2.55686e-21)
(0.978066 -0.61861 1.00295e-21)
(0.985437 -0.516751 0)
(0.97732 -0.624703 8.39056e-22)
(0.968949 -0.627369 0)
(0.953269 -0.623629 1.21447e-21)
(0.947657 -0.609308 -9.22862e-22)
(0.933398 -0.572605 2.59572e-22)
(0.86698 -0.292224 4.54914e-22)
(0.851231 -0.283166 0)
(0.911701 -0.306136 -1.08191e-21)
(0.886958 -0.299462 0)
(0.973245 -0.313056 0)
(0.940808 -0.310836 1.34824e-21)
(1.04598 -0.312082 0)
(1.00849 -0.314042 0)
(1.12125 -0.302479 9.0535e-24)
(1.08391 -0.308544 0)
(1.1914 -0.286575 0)
(1.15759 -0.295592 0)
(0.977426 -0.588369 4.26162e-22)
(0.942856 -0.592177 0)
(0.961453 -0.590555 2.97737e-23)
(1.00464 -0.588744 0)
(0.99192 -0.587214 2.40093e-22)
(1.0288 -0.59824 0)
(1.0169 -0.592894 0)
(1.05481 -0.59883 -6.79014e-22)
(1.04129 -0.601709 0)
(1.08581 -0.554736 0)
(1.06965 -0.584524 8.5465e-22)
(1.12024 -0.439454 0)
(1.10291 -0.506732 0)
(1.15319 -0.252164 0)
(1.1372 -0.353847 0)
(1.18087 -0.0153508 0)
(1.1679 -0.137752 0)
(1.20104 0.229607 0)
(1.19207 0.109474 0)
(1.21021 0.429635 0)
(1.20734 0.338453 0)
(1.20456 0.548444 0)
(1.20934 0.499986 0)
(1.18508 0.589586 0)
(1.19627 0.577182 0)
(1.1572 0.582533 0)
(1.17179 0.59004 0)
(1.12653 0.556348 0)
(1.14195 0.570465 0)
(1.09613 0.528126 0)
(1.11121 0.541876 0)
(1.06662 0.504612 0)
(1.08129 0.51563 0)
(1.0373 0.487052 0)
(1.05202 0.49508 0)
(1.00644 0.475926 0)
(1.02221 0.480647 0)
(0.971999 0.470039 0)
(0.989736 0.472729 0)
(0.934152 0.458538 0)
(0.953336 0.466203 0)
(0.896247 0.421789 0)
(0.914915 0.444559 0)
(0.862364 0.346131 0)
(0.878568 0.389127 0)
(0.835506 0.232965 0)
(0.847914 0.293615 0)
(0.818601 0.093508 -8.69561e-23)
(0.825627 0.165828 0)
(0.813971 -0.0559164 -6.60613e-22)
(0.81447 0.0187432 8.24086e-22)
(0.816638 -0.128857 -3.20415e-22)
(1.26854 -0.00502663 0)
(1.25784 -0.177215 -1.01858e-20)
(1.26378 -0.0918651 3.96897e-21)
(1.26619 0.15839 0)
(1.26818 0.0785352 0)
(1.25188 0.298181 0)
(1.2603 0.23206 0)
(1.22725 0.401713 0)
(1.24056 0.355045 0)
(1.19574 0.464076 0)
(1.21208 0.438002 0)
(1.16147 0.490202 0)
(1.17868 0.481034 0)
(1.12817 0.49347 0)
(1.14452 0.49369 0)
(1.09752 0.489786 0)
(1.11251 0.491692 0)
(1.06872 0.489228 0)
(1.083 0.488873 0)
(1.03965 0.493 0)
(1.05437 0.490793 0)
(1.00799 0.496363 0)
(1.02429 0.495156 0)
(0.971582 0.491951 0)
(0.990509 0.495676 0)
(0.928941 0.470224 0)
(0.95109 0.483967 0)
(0.880539 0.419677 0)
(0.905326 0.449316 0)
(0.830168 0.330457 0)
(0.855231 0.380339 0)
(0.784898 0.200711 0)
(0.806384 0.270368 0)
(0.752725 0.0410335 0)
(0.766722 0.123525 0)
(0.739837 -0.126424 0)
(0.743551 -0.0434169 0)
(0.750139 -0.272582 0)
(0.741914 -0.204053 0)
(0.784075 -0.371394 0)
(0.76434 -0.328991 0)
(0.834736 -0.418359 0)
(0.807995 -0.400408 0)
(0.889156 -0.437063 0)
(0.862387 -0.429338 0)
(0.937259 -0.454568 3.78111e-22)
(0.913811 -0.444924 0)
(0.961161 -0.466127 1.38161e-21)
(0.929518 -0.610871 5.54249e-22)
(0.922228 -0.590727 3.67952e-22)
(1.22182 -0.275776 -4.28438e-21)
(0.954172 -0.589348 -8.81195e-24)
(0.947434 -0.557275 0)
(0.851564 -0.334204 1.09189e-21)
(0.8448 -0.320763 -1.46985e-22)
(0.968675 -0.603023 3.12358e-24)
(0.964984 -0.547099 -3.59181e-22)
(0.976807 -0.615458 0)
(0.985622 -0.539021 0)
(0.978337 -0.625909 0)
(1.00891 -0.523765 0)
(0.972796 -0.63302 -1.6643e-21)
(0.959596 -0.634732 0)
(0.93791 -0.627632 -1.84866e-21)
(1.03483 -0.51836 8.61387e-22)
(1.28268 -0.16715 3.901e-21)
(0.908623 -0.607854 -1.01519e-21)
(0.898564 -0.584881 0)
(1.2494 -0.261006 -5.59355e-21)
(1.27376 -0.248251 1.80075e-21)
(0.950209 -0.574593 0)
(0.876729 -0.358634 0)
(0.862045 -0.346716 -1.77005e-21)
(0.918593 -0.377514 0)
(0.895657 -0.369258 0)
(0.975668 -0.388591 0)
(0.945501 -0.384333 0)
(1.04372 -0.389658 0)
(1.00859 -0.39064 0)
(1.11433 -0.380532 -8.91514e-24)
(1.07901 -0.386472 0)
(1.18192 -0.363455 2.4989e-21)
(1.14914 -0.372938 -2.63306e-22)
(1.23887 -0.337733 3.67277e-21)
(1.21208 -0.352305 -5.74271e-21)
(0.939515 -0.57195 -5.16756e-23)
(0.890582 -0.559284 1.06623e-22)
(0.916465 -0.568129 -1.0647e-22)
(0.978994 -0.571829 -1.38439e-22)
(0.960604 -0.572287 1.88249e-22)
(1.01157 -0.574354 2.79911e-22)
(0.995958 -0.571955 -2.30739e-22)
(1.04143 -0.583938 0)
(1.02641 -0.578937 -2.76885e-22)
(1.07417 -0.582305 0)
(1.05716 -0.586567 0)
(1.11222 -0.535989 0)
(1.09255 -0.566789 0)
(1.15321 -0.420561 0)
(1.13269 -0.487585 0)
(1.19145 -0.235692 0)
(1.17304 -0.335891 0)
(1.22253 -0.00279507 0)
(1.20807 -0.123112 0)
(1.24346 0.236923 0)
(1.23458 0.119651 0)
(1.2495 0.429474 0)
(1.24871 0.342293 0)
(1.23728 0.54006 0)
(1.24566 0.495598 0)
(1.20999 0.575272 0)
(1.22509 0.565404 0)
(1.17508 0.565714 0)
(1.19302 0.574077 0)
(1.13883 0.539401 0)
(1.15686 0.553389 0)
(1.10412 0.511868 0)
(1.12122 0.525251 0)
(1.07117 0.488873 0)
(1.08747 0.499688 0)
(1.03895 0.471169 0)
(1.05506 0.479382 0)
(1.00564 0.458809 0)
(1.02258 0.464292 0)
(0.969034 0.45098 0)
(0.987833 0.454641 0)
(0.929067 0.43847 0)
(0.94931 0.446406 0)
(0.889261 0.402887 0)
(0.908818 0.424786 0)
(0.854248 0.330339 0)
(0.870892 0.371581 0)
(0.827341 0.221628 0)
(0.839594 0.279959 0)
(0.811089 0.088167 0)
(0.81769 0.157033 0)
(0.807485 -0.0549946 -6.07477e-22)
(0.807561 0.0169655 5.39323e-22)
(0.818024 -0.190867 -1.7214e-22)
(0.811097 -0.124663 6.09191e-23)
(0.841142 -0.306251 -1.518e-23)
(0.828147 -0.251853 -1.0561e-21)
(1.29342 -0.0028456 0)
(1.29021 -0.0844876 -2.37229e-21)
(1.29092 0.153816 0)
(1.29419 0.0776446 0)
(1.27442 0.287411 0)
(1.28433 0.224361 0)
(1.24674 0.386286 0)
(1.26176 0.341714 0)
(1.21186 0.446103 0)
(1.22993 0.421023 0)
(1.17427 0.471908 0)
(1.19312 0.462651 0)
(1.13792 0.476378 0)
(1.15577 0.475895 0)
(1.10449 0.474075 0)
(1.12084 0.475351 0)
(1.07314 0.474026 0)
(1.08868 0.473563 0)
(1.04165 0.477088 0)
(1.05756 0.47539 0)
(1.00766 0.478582 0)
(1.02511 0.478448 0)
(0.969118 0.471362 0)
(0.989068 0.476586 0)
(0.924824 0.446543 0)
(0.947716 0.461801 0)
(0.875552 0.393996 0)
(0.90066 0.42439 0)
(0.825193 0.305609 0)
(0.850147 0.354621 0)
(0.78051 0.180642 0)
(0.801658 0.247396 0)
(0.749138 0.0294547 0)
(0.76271 0.107292 0)
(0.73745 -0.126865 0)
(0.740485 -0.0496803 0)
(0.749748 -0.260603 0)
(0.740409 -0.198323 0)
(0.786161 -0.348563 0)
(0.765187 -0.311109 0)
(0.838594 -0.39069 0)
(0.811173 -0.3742 0)
(0.892802 -0.41124 0)
(0.866306 -0.40201 0)
(0.941661 -0.43192 0)
(0.917478 -0.420793 0)
(0.990512 -0.459156 0)
(0.966227 -0.445229 -1.62937e-22)
(0.871904 -0.572456 0)
(0.861758 -0.543606 -7.15076e-23)
(1.06488 -0.52259 -3.35939e-21)
(1.07429 -0.504273 -2.24991e-21)
(0.96633 -0.592679 -4.68655e-22)
(0.964766 -0.564305 0)
(1.26267 -0.323008 3.33516e-21)
(0.976435 -0.60939 4.6847e-22)
(0.983433 -0.557914 0)
(0.856848 -0.354266 5.35253e-23)
(0.84064 -0.292218 9.42127e-23)
(0.856601 -0.337755 -9.44847e-23)
(0.980153 -0.624125 0)
(1.0061 -0.549945 2.99769e-22)
(0.977179 -0.635918 1.02082e-21)
(1.03055 -0.543889 -2.13196e-21)
(0.966661 -0.642626 7.94697e-22)
(1.05746 -0.541657 1.22904e-21)
(0.947858 -0.64121 6.33485e-22)
(0.92006 -0.628188 1.01034e-21)
(0.884288 -0.599203 6.98472e-23)
(0.83018 -0.519316 1.38902e-22)
(0.842062 -0.551433 -1.87464e-22)
(1.09265 -0.53534 0)
(1.10075 -0.512815 2.78694e-22)
(0.965113 -0.579672 0)
(0.866144 -0.386586 -1.57079e-22)
(0.859911 -0.370629 1.26865e-22)
(0.889075 -0.415034 -7.25019e-22)
(0.875662 -0.40113 1.41227e-21)
(0.927408 -0.43809 0)
(0.90657 -0.428008 0)
(0.979469 -0.452087 0)
(0.951885 -0.446445 0)
(1.04171 -0.455189 0)
(1.00962 -0.455177 0)
(1.10778 -0.446611 0)
(1.07475 -0.45284 0)
(1.17081 -0.429125 0)
(1.13994 -0.439271 -2.55436e-22)
(1.2254 -0.403191 0)
(1.19971 -0.417427 0)
(0.884378 -0.531425 0)
(0.820992 -0.485929 1.30623e-23)
(0.853834 -0.513181 2.03968e-22)
(0.937598 -0.548828 1.24303e-23)