/*--------------------------------*- C++ -*----------------------------------*\
  =========                 |
  \\      /  F ield         | OpenFOAM: The Open Source CFD Toolbox
   \\    /   O peration     | Website:  https://openfoam.org
    \\  /    A nd           | Version:  10
     \\/     M anipulation  |
\*---------------------------------------------------------------------------*/
FoamFile
{
    format      ascii;
    class       volScalarField;
    location    "79";
    object      p;
}
// * * * * * * * * * * * * * * * * * * * * * * * * * * * * * * * * * * * * * //

dimensions      [0 2 -2 0 0 0 0];

internalField   nonuniform List<scalar> 
28942
(
-0.00376777
-0.00314228
0.00203124
0.00948819
0.0097881
8.06327e-05
0.000269976
1.95662e-05
0.0027119
0.00279977
-0.00231001
-0.00257869
-0.00296113
-0.00287866
0.000180616
0.000477059
0.00987877
0.0101488
0.00558225
0.0071422
0.0081506
0.00814225
-0.00521428
-0.00503978
-0.00356862
-0.0037926
0.0138773
0.0138263
0.00353598
0.00347862
1.46289e-05
4.83437e-05
0.000726344
0.000294111
0.00714161
0.00834729
0.010885
0.0128435
-1.08581e-05
0.0150381
0.00908855
0.0115865
0.00173373
0.00164485
0.00170814
0.000272807
0.00014211
0.000216752
0.00025098
0.000351527
0.000677841
0.00278286
0.00285406
0.00284461
0.00299953
-0.00233991
-0.00103813
-0.00336767
-0.00321345
-0.003484
-0.00355716
-0.00355784
-0.003456
-0.000105203
-0.00180421
-0.000351889
0.000978102
0.00942287
0.00892651
-0.00335979
-0.00356941
-0.0033047
0.00898879
0.00884028
0.00913266
-0.0014728
-0.00108534
-0.0007473
0.0023647
0.00276399
0.00185576
0.000761681
-0.00630733
-0.00753498
0.00108358
0.00380855
0.00484986
0.00563704
0.00402182
0.00414447
0.0061111
0.00549038
-0.00139393
-0.00168314
-0.00196065
-0.00180011
-0.00162682
0.00533256
0.00662331
-0.00784631
0.0112854
0.0104864
0.00578032
0.00937714
0.000899451
0.000805323
0.000716618
0.00547036
0.00566309
0.00565721
-0.0032114
-0.0031322
-0.003125
-0.00260856
-0.00273172
0.0158306
0.0138259
0.0132672
0.0148981
0.00164349
0.00472235
0.00342098
0.00507458
0.00475148
0.0155036
0.0157986
0.0144574
0.0059159
0.00699468
0.000177731
0.000274408
9.94999e-05
0.0104996
0.0110023
0.0076659
0.00731799
0.0127751
0.00670048
0.00799047
0.00904997
-0.00189906
-0.00240656
0.00735996
0.00165089
0.00173996
-0.0011645
-0.00142676
-0.000970027
-0.002506
0.00659253
0.00571994
0.00371413
0.000251708
0.000198613
7.58805e-05
0.000200129
0.00752888
0.00679241
-0.00185902
-0.00197618
-0.00187129
-0.00413294
-0.00367857
5.74671e-05
-0.00284293
-0.000490839
0.0083928
0.00850176
0.00959593
0.00913122
0.00770892
0.00307711
0.00299445
0.00325133
0.00312705
0.00504002
0.00481787
0.00515301
0.00537351
0.00531155
0.00538275
0.00559395
0.00614804
0.00584204
0.00544004
0.00577018
0.00647587
0.00722976
0.00752173
-0.000576384
-0.000557157
-0.00246735
0.000201771
5.28654e-05
-0.00198954
-0.00207785
0.000274064
0.0003362
0.000300457
0.000233483
0.00175972
0.00171105
0.00169308
-0.00291006
-0.00309659
-0.00276155
-0.00432754
-0.00480906
-0.00412145
-0.00470809
-0.00647241
-0.00517174
0.0160243
0.0167345
0.0165019
0.000932746
0.00107755
0.00096641
0.0103507
0.00992277
0.010003
0.00141343
0.00139795
0.00142907
0.00138203
0.00136692
0.00135123
0.0013515
0.00133538
0.00133561
0.00136724
0.00138247
0.00139778
0.00141338
0.00142957
0.00132001
0.00131925
0.00144417
0.00144423
0.00145865
0.00130423
0.0013034
0.00145908
0.00128801
0.00127188
0.0012878
0.00127202
0.00147537
0.00147545
0.00125588
0.00125607
0.0014903
0.00149065
0.00123983
0.00124011
0.00150535
0.00150572
0.0012238
0.00122406
0.00152036
0.0015208
0.00120769
0.00120802
0.00153533
0.00153577
0.00119158
0.0011919
0.00155035
0.00155079
0.00117535
0.00117579
0.00156565
0.00156592
0.00115914
0.00115935
0.00158007
0.0015805
0.00114277
0.00114265
0.00159585
0.0015959
0.00112602
0.00112569
0.00161007
0.00161006
0.00110821
0.00110871
0.00162503
0.00162479
0.00109104
0.00109185
0.00160941
0.00162439
0.00164005
0.00163964
0.00157826
0.00159462
0.00154835
0.00156383
0.00151914
0.00153387
0.0014891
0.0015042
0.00145808
0.00147386
0.00142779
0.00144434
0.00139759
0.00141314
0.00136607
0.00138075
0.0013338
0.00135012
0.00130245
0.00131824
0.00127075
0.00128667
0.00123884
0.00125485
0.00120676
0.00122285
0.0011745
0.00119069
0.00114209
0.00115834
0.00110824
0.0011257
0.00109113
0.00107393
0.00107434
0.00112567
0.00109142
0.00110836
0.00115901
0.00114215
0.00119136
0.00117535
0.00122346
0.00120746
0.00125544
0.0012395
0.00128727
0.00127141
0.00131872
0.00130312
0.00135043
0.00133483
0.00138223
0.00136646
0.00141236
0.00139712
0.00144385
0.00142927
0.00147466
0.00145885
0.00150493
0.00148987
0.00153485
0.00151999
0.00156459
0.00154967
0.00159441
0.00157916
0.00162322
0.00160902
0.00163811
0.00164
0.00107364
0.00107429
0.00165387
0.00165199
0.00165529
0.00165463
0.00160768
0.00163862
0.00162286
0.00157661
0.00159254
0.00154705
0.00156149
0.00151761
0.00153244
0.00148755
0.00150265
0.00145707
0.00147237
0.00142599
0.00144191
0.00139541
0.00141162
0.00136507
0.00137929
0.00133261
0.00134887
0.0013011
0.00131688
0.00126944
0.00128531
0.00123756
0.00125353
0.00120553
0.00122158
0.00117336
0.00118948
0.00114115
0.00115726
0.00110768
0.00112456
0.0010565
0.00105663
0.00107292
0.0010903
0.00109071
0.00107393
0.00105681
0.00105681
0.00112534
0.00110767
0.00115809
0.00114138
0.00119017
0.00117415
0.00122222
0.00120622
0.00125414
0.00123821
0.00128595
0.00127008
0.0013176
0.00130184
0.00134904
0.00133337
0.00138061
0.00136472
0.00141123
0.00139585
0.00144211
0.00142742
0.00147297
0.00145764
0.00150331
0.00148821
0.00153329
0.00151837
0.00156292
0.00154817
0.00159214
0.00157759
0.00162093
0.00160653
0.00164883
0.00163532
0.00165403
0.00166633
0.00166335
0.00166752
0.00105592
0.00105634
0.00166884
0.00166768
0.00168044
0.00167799
0.00166872
0.00107247
0.00105468
0.00103932
0.00103887
0.00166624
0.00168331
0.00170642
0.00168797
0.00163594
0.00165149
0.00160486
0.0016201
0.00157431
0.00159009
0.00154482
0.0015591
0.0015154
0.00153025
0.00148538
0.00150045
0.00145497
0.00147023
0.00142425
0.00143965
0.0013934
0.00140895
0.00136237
0.00137779
0.0013309
0.00134675
0.00129931
0.00131511
0.00126763
0.0012835
0.00123579
0.00125174
0.00120382
0.00121983
0.00117172
0.00118779
0.00113961
0.00115567
0.00110647
0.00112306
0.00108935
0.00103953
0.0010387
0.00103914
0.00103963
0.00108985
0.00105546
0.00107307
0.00112417
0.00110698
0.0011564
0.00114004
0.00118844
0.00117243
0.00122041
0.00120445
0.00125226
0.00123636
0.00128398
0.00126815
0.00131557
0.00129981
0.001347
0.00133131
0.00137821
0.00136267
0.00140924
0.00139373
0.00143999
0.00142475
0.00147064
0.00145537
0.00150094
0.00148585
0.00153089
0.00151598
0.00156046
0.00154575
0.00158947
0.00157508
0.00161783
0.00160367
0.00164576
0.00163183
0.00167411
0.00165927
0.00169094
0.00168764
0.00168282
0.00168127
0.00103766
0.00103834
0.00169472
0.00169377
0.00169742
0.0017009
0.00170348
0.00163104
0.00170643
0.00168297
0.00168983
0.0016867
0.00166548
0.00168252
0.00163148
0.00164833
0.00160121
0.00161579
0.00157131
0.00158688
0.00154205
0.00155661
0.00151249
0.00152736
0.0014825
0.00149756
0.00145215
0.00146738
0.00142155
0.00143689
0.00139072
0.00140617
0.00135962
0.00137519
0.00132834
0.00134405
0.00129683
0.0013126
0.00126521
0.00128105
0.00123345
0.00124936
0.00120155
0.00121752
0.00116954
0.00118557
0.0011375
0.00115352
0.00110479
0.00112111
0.0010713
0.00108796
0.00103661
0.00105377
0.0010217
0.00101929
0.00102064
0.00102263
0.00102219
0.00102262
0.00102274
0.00102143
0.00102214
0.00105436
0.00101995
0.00103801
0.00108837
0.0010717
0.00112216
0.00110566
0.00115417
0.00113815
0.00118618
0.0011702
0.00121806
0.00120215
0.00124982
0.00123397
0.00128144
0.00126566
0.00131293
0.00129722
0.00134428
0.00132864
0.00137541
0.00135991
0.00140639
0.00139093
0.00143711
0.00142181
0.00146764
0.00145242
0.00149788
0.00148282
0.00152776
0.00151288
0.00155723
0.00154257
0.00158616
0.0015718
0.00161431
0.00160034
0.00164173
0.00162816
0.00166929
0.00165526
0.0016965
0.00168198
0.00171351
0.00170915
0.00169545
0.00169519
0.00171125
0.00170438
0.00103525
0.00101849
0.00100427
0.00100332
0.00170327
0.00171622
0.00174163
0.00165785
0.00172378
0.00172064
0.00170075
0.00169572
0.00167761
0.00167373
0.00166019
0.00167377
0.0016263
0.0016431
0.00159733
0.00161175
0.00156792
0.00158281
0.00153849
0.0015532
0.00150889
0.00152375
0.00147894
0.00149397
0.00144868
0.00146386
0.00141814
0.00143346
0.00138737
0.0014028
0.00135637
0.0013719
0.00132516
0.00134082
0.00129376
0.00130949
0.00126223
0.00127802
0.00123056
0.00124642
0.00119875
0.00121468
0.00116683
0.00118282
0.0011348
0.00115084
0.00110271
0.00111876
0.00106914
0.00108597
0.00105205
0.00100474
0.00100249
0.00100412
0.00100617
0.00100566
0.00100579
0.00100622
0.00100513
0.00105285
0.00101816
0.0010371
0.00108676
0.00106995
0.00111952
0.00110357
0.00115152
0.00113554
0.00118342
0.0011675
0.00121519
0.00119933
0.00124684
0.00123105
0.00127836
0.00126263
0.00130974
0.00129408
0.00134098
0.00132539
0.00137203
0.00135655
0.00140291
0.00138751
0.00143356
0.00141829
0.001464
0.00144883
0.00149415
0.00147913
0.00152394
0.00150911
0.00155332
0.00153871
0.00158216
0.00156784
0.00161028
0.00159633
0.00163753
0.00162405
0.00166428
0.00165113
0.00169001
0.00167571
0.00171602
0.00170453
0.00173118
0.00172611
0.00170912
0.00170641
0.0010005
0.00100158
0.00171247
0.00167443
0.0016969
0.00171694
0.00172588
0.00174944
0.00173094
0.00173802
0.00173444
0.00174163
0.00173887
0.00170726
0.00167394
0.00173875
0.00170978
0.00166802
0.00166759
0.00165166
0.00166567
0.00162144
0.00163631
0.00159264
0.00160707
0.00156349
0.00157814
0.00153415
0.00154884
0.0015046
0.00151943
0.00147474
0.00148973
0.00144457
0.0014597
0.00141412
0.00142939
0.00138344
0.00139882
0.00135254
0.00136802
0.00132143
0.00133703
0.00129015
0.00130582
0.00125872
0.00127446
0.00122716
0.00124297
0.00119547
0.00121134
0.00116366
0.00117959
0.00113173
0.00114772
0.0010997
0.00111573
0.00106714
0.00108368
0.00103291
0.00105014
0.000998854
0.00101606
0.000985717
0.00098167
0.000983858
0.00098861
0.000987171
0.000989983
0.000989556
0.00098971
0.00099
0.000987779
0.000988938
0.00098495
0.000986457
0.00101693
0.00098322
0.000999882
0.00105092
0.00103443
0.00108456
0.001068
0.00111651
0.00110057
0.00114842
0.00113249
0.00118019
0.00116434
0.00121183
0.00119604
0.00124336
0.00122763
0.00127475
0.00125909
0.00130601
0.00129042
0.00133713
0.00132161
0.00136808
0.00135265
0.00139884
0.0013835
0.00142941
0.00141418
0.00145974
0.00144462
0.00148978
0.00147482
0.00151948
0.0015047
0.00154875
0.0015342
0.00157748
0.00156321
0.00160554
0.00159162
0.00163278
0.00161929
0.00165911
0.00164617
0.00168459
0.00167165
0.00170873
0.00169749
0.00173236
0.0017186
0.00175095
0.00174564
0.00171595
0.00173036
0.00171499
0.000996447
0.000979965
0.000968029
0.000966055
0.00171719
0.00172756
0.00172359
0.00173616
0.00174409
0.00175454
0.0017612
0.00175675
0.00171686
0.00172606
0.00173783
0.00173119
0.00173017
0.00167942
0.00170404
0.00166104
0.00166619
0.00164362
0.00165658
0.00161541
0.00162944
0.0015871
0.00160135
0.00155827
0.00157276
0.00152912
0.00154374
0.00149968
0.00151446
0.00146992
0.00148486
0.00143986
0.00145494
0.00140952
0.00142474
0.00137895
0.00139428
0.00134816
0.00136359
0.00131718
0.00133271
0.00128602
0.00130163
0.00125472
0.0012704
0.00122328
0.00123903
0.00119172
0.00120753
0.00116004
0.00117591
0.00112824
0.00114417
0.00109633
0.00111231
0.00106448
0.00108041
0.00103064
0.00104778
0.00101331
0.000969449
0.000964762
0.000967629
0.000972578
0.000971158
0.000973721
0.000973336
0.00097342
0.000973748
0.000971357
0.000972585
0.000969787
0.00101518
0.000981029
0.000997942
0.0010487
0.00103219
0.00108127
0.00106532
0.00111313
0.00109721
0.00114489
0.00112905
0.00117652
0.00116074
0.00120802
0.00119231
0.0012394
0.00122375
0.00127066
0.00125507
0.00130178
0.00128626
0.00133277
0.00131731
0.00136359
0.00134822
0.00139424
0.00137896
0.00142468
0.00140951
0.0014549
0.00143984
0.00148482
0.00146992
0.00151441
0.00149969
0.00154356
0.00152907
0.00157218
0.00155797
0.00160014
0.00158627
0.00162732
0.00161386
0.00165358
0.00164062
0.00167885
0.00166633
0.00170232
0.00169101
0.00172623
0.00171303
0.00174922
0.00173682
0.00175473
0.00174355
0.00176683
0.00176082
0.00172248
0.000962635
0.000964087
0.00173464
0.0017276
0.00174595
0.00172931
0.00173832
0.00174788
0.00174788
0.00175699
0.00176427
0.00177094
0.00177716
0.00177206
0.00172614
0.00172115
0.00175363
0.0017532
0.00172855
0.00171432
0.00172381
0.00167905
0.00169453
0.00165542
0.00166497
0.00163563
0.00164777
0.0016087
0.00162229
0.0015809
0.00159493
0.0015524
0.00156674
0.00152346
0.00153799
0.00149417
0.00150887
0.00146454
0.00147941
0.0014346
0.00144962
0.00140439
0.00141954
0.00137394
0.00138921
0.00134328
0.00135865
0.00131243
0.00132789
0.00128141
0.00129696
0.00125025
0.00126586
0.00121896
0.00123464
0.00118754
0.00120328
0.00115601
0.00117181
0.00112436
0.00114022
0.0010926
0.00110851
0.00106078
0.00107669
0.00102827
0.00104487
0.000994037
0.00101097
0.000960419
0.000977784
0.000948596
0.000943528
0.000946245
0.00095331
0.000950833
0.000956265
0.000955124
0.000957415
0.000957009
0.000957133
0.000957455
0.000955278
0.000956436
0.000952189
0.000953578
0.000947751
0.000950239
0.000978689
0.000945268
0.000962035
0.00101316
0.000995273
0.00104571
0.0010299
0.00107762
0.00106172
0.00110938
0.00109354
0.00114098
0.00112522
0.00117245
0.00115675
0.00120379
0.00118816
0.00123502
0.00121944
0.00126612
0.0012506
0.00129709
0.00128164
0.00132793
0.00131255
0.00135861
0.00134332
0.00138913
0.00137392
0.00141944
0.00140433
0.00144952
0.00143454
0.00147932
0.00146449
0.00150877
0.00149412
0.0015378
0.00152337
0.00156629
0.00155215
0.00159414
0.00158033
0.00162122
0.00160781
0.0016474
0.00163447
0.00167255
0.00166013
0.00169614
0.00168464
0.00171896
0.00170759
0.00174081
0.00172908
0.00176375
0.00175327
0.00175704
0.00175686
0.00177769
0.00176863
0.00173422
0.00173868
0.00175891
0.00176522
0.00175559
0.00174512
0.00174953
0.00095816
0.000940902
0.000930837
0.000928689
0.00175879
0.00175902
0.00176735
0.00177342
0.00177989
0.00178327
0.00176287
0.00176157
0.0017651
0.00178578
0.00178353
0.00177749
0.00173748
0.00174968
0.001748
0.00171388
0.00172637
0.00170297
0.00171319
0.00167338
0.00168668
0.00165022
0.00166125
0.0016277
0.0016397
0.00160154
0.00161484
0.00157414
0.00158799
0.00154595
0.00156015
0.00151723
0.00153166
0.0014881
0.00150273
0.00145862
0.00147342
0.00142882
0.00144378
0.00139875
0.00141384
0.00136845
0.00138365
0.00133793
0.00135323
0.00130723
0.00132262
0.00127637
0.00129184
0.00124536
0.0012609
0.00121423
0.00122983
0.00118297
0.00119863
0.0011516
0.00116732
0.00112012
0.00113589
0.00108852
0.00110435
0.00105681
0.00107269
0.0010251
0.00104098
0.000991341
0.00100845
0.000974878
0.000932936
0.000927428
0.000930538
0.000937297
0.000935103
0.000939907
0.000938812
0.000941089
0.000940674
0.000940825
0.000941137
0.000939197
0.000940176
0.00093578
0.000937695
0.000933543
0.000976271
0.000942754
0.000959502
0.00101042
0.0009932
0.00104201
0.00102624
0.00107372
0.00105789
0.00110529
0.00108954
0.00113671
0.00112104
0.00116801
0.0011524
0.00119918
0.00118363
0.00123023
0.00121474
0.00126117
0.00124574
0.00129198
0.00127661
0.00132266
0.00130736
0.00135319
0.00133797
0.00138355
0.00136842
0.00141372
0.00139869
0.00144366
0.00142875
0.00147331
0.00145855
0.00150262
0.00148805
0.00153151
0.00151715
0.00155987
0.00154579
0.00158759
0.00157385
0.00161456
0.00160121
0.00164064
0.00162776
0.00166569
0.00165333
0.00168942
0.00167778
0.00171198
0.00170089
0.00173353
0.00172279
0.00175297
0.0017441
0.00177562
0.0017597
0.00176828
0.00178709
0.00179647
0.00179418
0.00178896
0.00177471
0.00176277
0.00176335
0.00174731
0.00175002
0.000924665
0.000926239
0.00177695
0.00175812
0.00176053
0.00176665
0.00176959
0.00177707
0.00178345
0.00178625
0.00178807
0.00177206
0.00176419
0.00176764
0.00177929
0.00178958
0.00179782
0.00177696
0.00178407
0.00178803
0.00179683
0.00180123
0.00174935
0.00175782
0.00175452
0.00173598
0.00174067
0.00170934
0.00172273
0.00169218
0.00170197
0.00166699
0.00167961
0.00164345
0.00165502
0.00161984
0.00163198
0.00159399
0.00160714
0.00156691
0.0015806
0.00153898
0.00155305
0.00151048
0.00152481
0.00148154
0.00149608
0.00145222
0.00146694
0.00142258
0.00143746
0.00139267
0.00140767
0.00136252
0.00137764
0.00133216
0.00134738
0.00130162
0.00131693
0.00127092
0.00128631
0.00124009
0.00125554
0.00120912
0.00122463
0.00117804
0.00119361
0.00114685
0.00116247
0.00111554
0.00113122
0.00108413
0.00109986
0.00105259
0.00106839
0.00102097
0.00103679
0.000988561
0.00100513
0.000955668
0.000971828
0.000921996
0.000938257
0.000911082
0.000905868
0.000908312
0.000916933
0.000913919
0.000921058
0.00091932
0.00092357
0.00092247
0.00092474
0.000924332
0.000924486
0.000924791
0.000922852
0.000923836
0.000919315
0.000921386
0.000914769
0.000917059
0.000909878
0.000912399
0.00093983
0.000906567
0.000924222
0.00097405
0.000956526
0.00100648
0.000990655
0.00103801
0.00102224
0.00106952
0.0010538
0.00110089
0.00108524
0.00113212
0.00111654
0.00116323
0.00114771
0.00119421
0.00117876
0.00122509
0.00120969
0.00125584
0.0012405
0.00128648
0.0012712
0.00131699
0.00130178
0.00134736
0.00133222
0.00137756
0.00136251
0.00140757
0.00139262
0.00143735
0.00142252
0.00146685
0.00145217
0.00149601
0.00148151
0.00152474
0.00151046
0.00155296
0.00153895
0.00158055
0.00156687
0.0016074
0.00159411
0.00163336
0.00162053
0.00165831
0.00164601
0.00168205
0.00167038
0.00170459
0.0016935
0.00172587
0.00171543
0.00174478
0.00173583
0.00176279
0.00175386
0.0017649
0.0017757
0.00178289
0.00180123
0.00179508
0.00175977
0.00176114
0.00177372
0.00176811
0.00177109
0.000918988
0.000903271
0.000893614
0.000890381
0.00177794
0.00177959
0.0017866
0.00179167
0.00179528
0.00179935
0.00177715
0.00176999
0.0017861
0.00178746
0.00179299
0.00178554
0.00179305
0.00180575
0.00180251
0.00179805
0.00180614
0.00176087
0.00175987
0.00174849
0.00174425
0.00175314
0.00172333
0.0017335
0.00170309
0.00171367
0.00168317
0.00169351
0.00165951
0.00167157
0.00163583
0.00164762
0.00161176
0.00162401
0.00158607
0.00159911
0.00155923
0.00157279
0.00153156
0.0015455
0.00150327
0.0015175
0.00147452
0.00148897
0.00144538
0.00146001
0.00141591
0.0014307
0.00138616
0.00140109
0.00135618
0.00137122
0.001326
0.00134113
0.00129563
0.00131085
0.00126511
0.00128041
0.00123445
0.00124982
0.00120367
0.0012191
0.00117278
0.00118826
0.00114177
0.00115731
0.00111066
0.00112625
0.00107944
0.00109508
0.0010481
0.0010638
0.00101664
0.0010324
0.000985159
0.00100093
0.00095246
0.000968601
0.000935298
0.000895029
0.000889497
0.000892669
0.000901006
0.0008981
0.000904747
0.000903072
0.00090723
0.000906149
0.000908372
0.000907973
0.00090814
0.000908428
0.000906574
0.000907515
0.000903779
0.000905348
0.000898819
0.000901501
0.000895949
0.000936938
0.0009037
0.000921523
0.000971062
0.000953826
0.00100237
0.000986733
0.00103376
0.00101809
0.00106504
0.00104944
0.0010962
0.00108066
0.00112723
0.00111175
0.00115814
0.00114272
0.00118893
0.00117357
0.00121961
0.00120431
0.00125018
0.00123494
0.00128064
0.00126545
0.00131097
0.00129585
0.00134116
0.00132611
0.00137119
0.00135622
0.00140103
0.00138616
0.00143064
0.0014159
0.00145998
0.00144538
0.00148897
0.00147455
0.00151754
0.00150335
0.00154561
0.00153168
0.00157305
0.00155945
0.00159977
0.00158654
0.00162562
0.00161284
0.00165046
0.00163821
0.00167415
0.00166249
0.0016966
0.00168557
0.00171768
0.00170736
0.00173672
0.00172755
0.00175352
0.00174562
0.00176738
0.00176005
0.00178643
0.00177838
0.00180229
0.00179582
0.00178387
0.00178431
0.00178219
0.00177025
0.00177174
0.000886327
0.000887622
0.00179149
0.00177828
0.00178116
0.00178812
0.00178907
0.00179535
0.00180002
0.00180346
0.00180496
0.00178976
0.00177875
0.00177808
0.00178626
0.00178576
0.00180021
0.00178879
0.00180201
0.00179332
0.00180146
0.00179248
0.00181075
0.00181124
0.00180884
0.00180501
0.00177149
0.0017675
0.00177759
0.00174813
0.00174366
0.00173179
0.00174401
0.00171461
0.00172344
0.00169489
0.00170503
0.00167426
0.00168484
0.00165128
0.00166298
0.00162765
0.00163952
0.00160336
0.00161568
0.00157779
0.00159075
0.00155116
0.00156462
0.00152372
0.00153755
0.00149565
0.00150977
0.00146709
0.00148144
0.00143813
0.00145268
0.00140885
0.00142355
0.00137929
0.00139412
0.00134949
0.00136443
0.00131948
0.00133453
0.0012893
0.00130443
0.00125897
0.00127417
0.0012285
0.00124377
0.00119792
0.00121324
0.00116722
0.0011826
0.00113642
0.00115185
0.00110551
0.00112099
0.00107449
0.00109003
0.00104337
0.00105896
0.00101212
0.00102777
0.000980772
0.000996466
0.000949491
0.000965043
0.000915667
0.000932323
0.000883515
0.00089979
0.000873254
0.000866302
0.000870096
0.000879739
0.000876301
0.00088491
0.000882732
0.000888466
0.000886809
0.00089088
0.000889833
0.00089199
0.0008916
0.000891779
0.00089205
0.000890275
0.000891184
0.000887618
0.000889083
0.000883724
0.000885854
0.000877374
0.000880646
0.000871468
0.000874418
0.000900947
0.000868659
0.00088526
0.000933825
0.000918021
0.000967061
0.000950748
0.000998096
0.000982538
0.00102926
0.00101371
0.00106032
0.00104482
0.00109126
0.00107582
0.00112207
0.0011067
0.00115278
0.00113746
0.00118337
0.00116811
0.00121385
0.00119865
0.00124422
0.00122908
0.00127449
0.0012594
0.00130463
0.0012896
0.00133463
0.00131967
0.00136448
0.0013496
0.00139414
0.00137936
0.00142357
0.00140892
0.00145273
0.00143822
0.00148155
0.00146722
0.00150996
0.00149585
0.00153786
0.00152401
0.00156516
0.00155163
0.00159173
0.00157857
0.00161745
0.00160474
0.00164219
0.00162999
0.00166579
0.00165417
0.00168813
0.00167716
0.00170905
0.00169882
0.0017281
0.00171887
0.00174501
0.00173692
0.0017599
0.00175247
0.00177359
0.00176797
0.00177375
0.00179436
0.00179603
0.00180421
0.00179853
0.00178037
0.00178186
0.00179794
0.00178803
0.0017907
0.000880307
0.000863506
0.000855599
0.000852973
0.00179778
0.00179796
0.00180362
0.00180781
0.00181043
0.00181148
0.00177751
0.00177
0.00176975
0.00178027
0.00179011
0.00180046
0.00180832
0.00179989
0.00180499
0.00181655
0.00181481
0.00180954
0.00180736
0.00178961
0.00179472
0.00178166
0.00177086
0.00176496
0.0017535
0.00176744
0.00173656
0.00174283
0.00172286
0.00173117
0.00170552
0.00171441
0.00168594
0.00169597
0.00166512
0.00167575
0.00164253
0.00165403
0.001619
0.00163087
0.00159465
0.00160698
0.00156919
0.00158207
0.00154274
0.0015561
0.00151551
0.00152923
0.00148765
0.00150167
0.00145929
0.00147355
0.00143053
0.00144498
0.00140144
0.00141605
0.00137207
0.00138681
0.00134246
0.00135731
0.00131265
0.00132759
0.00128266
0.00129769
0.00125253
0.00126763
0.00122226
0.00123743
0.00119188
0.00120711
0.00116139
0.00117667
0.0011308
0.00114612
0.0011001
0.00111548
0.0010693
0.00108473
0.0010384
0.00105388
0.00100739
0.00102293
0.00097628
0.000991859
0.000945377
0.000960769
0.000912447
0.000929131
0.00089579
0.000857893
0.000850454
0.000854769
0.000864377
0.000861142
0.000868721
0.000866686
0.000872193
0.000870584
0.000874519
0.00087351
0.000875597
0.000875217
0.000875401
0.000875659
0.000873945
0.000874828
0.00087129
0.000872761
0.000867547
0.000869566
0.000861724
0.000864909
0.000858518
0.000898294
0.00086551
0.000882729
0.000930788
0.000914415
0.000962615
0.000947084
0.000993597
0.000978108
0.00102453
0.0010091
0.00105536
0.00103998
0.00108608
0.00107076
0.00111668
0.00110141
0.00114717
0.00113196
0.00117755
0.00116239
0.00120782
0.00119272
0.00123799
0.00122295
0.00126805
0.00125306
0.001298
0.00128307
0.00132781
0.00131295
0.00135746
0.00134269
0.00138693
0.00137225
0.00141618
0.00140162
0.00144516
0.00143074
0.0014738
0.00145956
0.00150203
0.001488
0.00152977
0.001516
0.0015569
0.00154345
0.00158333
0.00157025
0.00160892
0.00159627
0.00163354
0.00162139
0.00165704
0.00164547
0.00167928
0.00166836
0.00170007
0.00168991
0.00171908
0.00170985
0.00173607
0.00172789
0.00175118
0.00174376
0.00176364
0.00175816
0.00177321
0.00176817
0.00178661
0.00177539
0.00179327
0.00178526
0.00177928
0.00180279
0.00180401
0.00179004
0.00179146
0.000847445
0.000849482
0.0018022
0.00179737
0.00179967
0.00180643
0.0018063
0.00181139
0.00181485
0.0018168
0.00181722
0.00177331
0.00176389
0.0017585
0.00177712
0.00177134
0.00178202
0.00177201
0.00178495
0.00178985
0.00180241
0.001807
0.00181321
0.00180999
0.00182062
0.00181699
0.00181085
0.00180511
0.00179636
0.00179005
0.00179131
0.00177015
0.00177047
0.00175914
0.00174842
0.00174087
0.00175634
0.00172786
0.00173382
0.00171343
0.00172127
0.00169595
0.00170494
0.00167656
0.00168649
0.00165574
0.00166636
0.00163338
0.00164475
0.00160996
0.0016218
0.00158562
0.00159794
0.00156027
0.00157309
0.001534
0.00154727
0.00150697
0.0015206
0.00147932
0.00149324
0.00145117
0.00146532
0.00142261
0.00143696
0.00139372
0.00140822
0.00136454
0.00137918
0.00133513
0.00134988
0.00130552
0.00132037
0.00127574
0.00129067
0.00124582
0.00126082
0.00121576
0.00123082
0.0011856
0.00120071
0.00115532
0.00117049
0.00112495
0.00114016
0.00109447
0.00110974
0.0010639
0.00107921
0.00103323
0.00104859
0.00100246
0.00101787
0.000971601
0.000987056
0.000940743
0.00095616
0.000909218
0.000925299
0.000877126
0.000892508
0.000844486
0.000860732
0.000835262
0.000828258
0.000832198
0.000842416
0.000838541
0.000848258
0.000845721
0.000852526
0.000850475
0.000855906
0.000854352
0.000858151
0.000857176
0.000859197
0.000858828
0.000859012
0.000859259
0.000857608
0.000858461
0.000855021
0.00085646
0.00085136
0.00085331
0.000846777
0.000849239
0.000840217
0.000843536
0.000833841
0.000836923
0.00086262
0.000830884
0.000846667
0.000895204
0.000878688
0.000927202
0.000911043
0.000958078
0.000942681
0.000988896
0.000973515
0.0010196
0.00100428
0.0010502
0.00103494
0.00108069
0.00106548
0.00111106
0.00109591
0.00114133
0.00112623
0.0011715
0.00115645
0.00120156
0.00118656
0.00123152
0.00121658
0.00126137
0.00124649
0.00129111
0.00127628
0.00132072
0.00130596
0.00135018
0.0013355
0.00137945
0.00136487
0.00140851
0.00139404
0.00143729
0.00142297
0.00146575
0.0014516
0.0014938
0.00147986
0.00152136
0.00150768
0.00154833
0.00153496
0.00157461
0.0015616
0.00160006
0.00158748
0.00162456
0.00161247
0.00164795
0.00163644
0.0016701
0.00165923
0.00169079
0.00168067
0.00170976
0.00170054
0.00172678
0.00171857
0.00174184
0.00173454
0.00175436
0.0017486
0.00176379
0.00175948
0.00177131
0.00176779
0.00176938
0.00181025
0.00181109
0.00178571
0.00177981
0.00179922
0.00180051
0.00180976
0.00180598
0.00180807
0.000841388
0.000824991
0.000818033
0.000814715
0.00181423
0.00181407
0.00181844
0.00182124
0.00182247
0.00182228
0.00176368
0.00175784
0.00174602
0.00175173
0.00177871
0.00178201
0.0017964
0.00179467
0.0018087
0.00181347
0.00181632
0.00182345
0.00181849
0.00181229
0.00180144
0.00179723
0.00178817
0.00177175
0.00177788
0.00180042
0.0017586
0.0017421
0.00175918
0.00176443
0.0017453
0.00174238
0.00173163
0.00174237
0.00171857
0.00172483
0.00170359
0.00171153
0.00168614
0.00169512
0.00166688
0.00167674
0.0016461
0.00165669
0.0016239
0.00163518
0.00160059
0.00161239
0.00157632
0.0015886
0.00155108
0.00156384
0.00152498
0.00153816
0.00149814
0.00151167
0.0014707
0.00148451
0.00144275
0.0014568
0.0014144
0.00142864
0.00138571
0.00140011
0.00135674
0.00137128
0.00132754
0.00134219
0.00129814
0.00131288
0.00126857
0.0012834
0.00123886
0.00125375
0.00120903
0.00122398
0.00117908
0.00119409
0.00114903
0.00116409
0.00111888
0.00113399
0.00108864
0.00110379
0.0010583
0.0010735
0.00102787
0.00104311
0.000997347
0.00101263
0.000966736
0.000982065
0.000936058
0.000951411
0.000905386
0.00092075
0.00087341
0.000889127
0.000857431
0.000820249
0.000812553
0.000816985
0.000826869
0.000823441
0.00083208
0.000829649
0.000836338
0.000834317
0.000839609
0.000838108
0.000841781
0.000840837
0.000842795
0.000842436
0.000842621
0.000842857
0.000841269
0.000842091
0.00083878
0.000840164
0.00083522
0.000837125
0.000830758
0.000833118
0.000824524
0.000827854
0.000821137
0.000859632
0.000828192
0.000843695
0.000891945
0.000875551
0.000922702
0.000907273
0.000953423
0.000938089
0.000984019
0.000968754
0.00101449
0.000999288
0.00104486
0.00102971
0.00107511
0.00106002
0.00110526
0.00109022
0.0011353
0.00112031
0.00116524
0.00115031
0.00119508
0.0011802
0.00122483
0.00120999
0.00125447
0.00123969
0.001284
0.00126927
0.0013134
0.00129874
0.00134265
0.00132807
0.00137172
0.00135724
0.00140058
0.00138621
0.00142917
0.00141494
0.00145744
0.00144338
0.0014853
0.00147146
0.00151269
0.00149909
0.00153949
0.0015262
0.00156561
0.00155268
0.00159093
0.00157841
0.0016153
0.00160327
0.00163859
0.00162713
0.00166064
0.00164982
0.00168125
0.00167118
0.0017002
0.00169098
0.00171724
0.00170901
0.00173228
0.00172504
0.00174485
0.00173898
0.00175462
0.00175009
0.00176127
0.00175857
0.00176416
0.00176278
0.00177023
0.00176153
0.00176373
0.00175884
0.00176365
0.00181691
0.00181669
0.00180775
0.00180895
0.000809433
0.000811634
0.0018166
0.00181382
0.00181586
0.00182133
0.00182115
0.00182482
0.00182687
0.00182737
0.00182625
0.00173681
0.00174055
0.00173931
0.00175494
0.00175987
0.00176813
0.00178842
0.00178966
0.00180268
0.00180541
0.00181325
0.00181784
0.00182522
0.00181931
0.00181149
0.00180396
0.00179385
0.00178173
0.00176936
0.001752
0.00176298
0.00175213
0.00180891
0.00175574
0.0017316
0.00174596
0.00174221
0.00174563
0.00174893
0.00173307
0.00173818
0.00172261
0.00172925
0.00170893
0.00171579
0.00169361
0.0017016
0.00167616
0.00168514
0.00165696
0.00166679
0.00163624
0.0016468
0.00161416
0.00162537
0.00159095
0.0016027
0.00156676
0.00157899
0.00154165
0.00155434
0.00151571
0.0015288
0.00148906
0.00150249
0.00146181
0.00147552
0.00143407
0.00144802
0.00140593
0.00142006
0.00137745
0.00139174
0.00134869
0.00136312
0.0013197
0.00133424
0.00129052
0.00130515
0.00126118
0.00127589
0.00123169
0.00124647
0.00120208
0.00121692
0.00117236
0.00118725
0.00114254
0.00115748
0.00111263
0.00112761
0.00108262
0.00109765
0.00105253
0.0010676
0.00102234
0.00103746
0.000992065
0.00100723
0.000961705
0.000976907
0.000931271
0.000946508
0.000900869
0.000916063
0.000869511
0.000885111
0.000838273
0.000853991
0.000806503
0.000822042
0.000797479
0.000790307
0.000794369
0.000804903
0.000800921