/*--------------------------------*- C++ -*----------------------------------*\
  =========                 |
  \\      /  F ield         | OpenFOAM: The Open Source CFD Toolbox
   \\    /   O peration     | Website:  https://openfoam.org
    \\  /    A nd           | Version:  10
     \\/     M anipulation  |
\*---------------------------------------------------------------------------*/
FoamFile
{
    format      ascii;
    class       volVectorField;
    location    "79";
    object      U;
}
// * * * * * * * * * * * * * * * * * * * * * * * * * * * * * * * * * * * * * //

dimensions      [0 1 -1 0 0 0 0];

internalField   nonuniform List<vector> 
28942
(
(0.00443063 -0.00225741 -3.42131e-22)
(0.00599693 -0.00234084 -6.35698e-23)
(0.0179353 -0.0123859 -8.24056e-22)
(0.103306 0.0182356 -5.25389e-21)
(0.102344 0.0222781 1.72025e-21)
(0.0140509 0.000431601 0)
(0.0166992 1.44738e-05 1.05463e-23)
(0.0193692 0.000557761 -9.31256e-24)
(0.135238 -0.0184312 -2.54592e-22)
(0.133895 -0.016797 7.24678e-22)
(0.00979614 0.00401529 -6.72909e-22)
(0.01607 0.00562953 2.55122e-22)
(0.00713825 0.00315321 0)
(0.00470801 0.00207012 0)
(0.0439808 0.00196052 -1.46873e-23)
(0.0421993 0.00252043 -5.89096e-24)
(0.0893158 0.0158873 6.67159e-22)
(0.0870038 0.0138558 1.07374e-21)
(0.012164 -0.0151117 2.91278e-21)
(0.0293293 -0.0304657 -7.66589e-22)
(0.0981181 0.0373969 9.51199e-22)
(0.0972967 0.0344329 0)
(0.0187401 0.00462731 1.16501e-21)
(0.00786403 0.00236369 5.49353e-22)
(0.037798 0.00721159 9.42115e-22)
(0.0575309 0.00291285 -8.58866e-22)
(0.00764744 -0.0184899 8.50157e-21)
(0.00669343 -0.0165545 -3.13134e-21)
(0.0355079 -0.0253213 5.71197e-22)
(0.0192993 -0.0136812 1.9714e-22)
(0.0144223 -0.0013238 0)
(0.018031 -0.00114476 -1.32922e-23)
(0.0229198 0.00415882 2.77341e-22)
(0.0330452 0.00186574 -4.28688e-23)
(0.0188253 0.0180095 1.3122e-21)
(0.0157198 0.0191195 -1.30249e-21)
(0.0321693 0.0376172 -3.04962e-21)
(0.018669 0.0305356 -1.06774e-21)
(0.00769941 -1.05575e-05 -8.80888e-24)
(0.0086488 0.0161971 -2.61228e-21)
(0.0306492 -0.00620318 0)
(0.0513425 -0.0109694 0)
(0.111862 -0.0117788 -2.69496e-23)
(0.111358 -0.0117793 7.94714e-23)
(0.115907 -0.0116767 6.92474e-23)
(0.0273241 0.000183458 1.11992e-23)
(0.0254413 -0.000591895 -1.80063e-23)
(0.0363747 -0.000481909 -8.22131e-23)
(0.0348534 -0.000551823 2.34348e-23)
(0.0283152 -0.00264764 -2.0398e-22)
(0.0210507 -0.00317169 1.32554e-22)
(0.128652 0.00131453 -3.99297e-22)
(0.127967 0.000842043 -3.73096e-22)
(0.134557 -0.0211988 -3.77124e-24)
(0.133009 -0.0194725 1.38384e-22)
(0.0824903 0.00635601 7.15118e-22)
(0.101744 -0.000763033 2.49181e-22)
(0.00305875 0.00162085 -5.64576e-22)
(0.00894333 0.00367964 0)
(0.0082577 0.00328909 2.37015e-22)
(0.00288279 0.00148814 4.87188e-22)
(0.000362253 0.000226267 -4.05042e-22)
(0.000192894 0.000122682 -3.89218e-22)
(0.109768 -0.0426067 0)
(0.104899 -0.0256114 1.26516e-22)
(0.12177 -0.0331152 -4.34962e-23)
(0.123417 -0.0437691 0)
(0.0901064 -0.0328036 -6.37952e-22)
(0.0936103 -0.0352705 -4.19263e-22)
(0.00188577 -0.00113 1.13117e-21)
(0.00248967 -0.00201802 -3.5643e-22)
(0.0048744 -0.00315689 8.84332e-22)
(0.0848762 -0.0457606 0)
(0.0912021 -0.0396242 2.16534e-21)
(0.080545 -0.0530263 5.84994e-22)
(0.114137 0.0124003 2.38156e-22)
(0.112736 0.00689678 -2.64082e-22)
(0.125104 0.0110007 -1.13357e-22)
(0.00468356 -0.00286196 -5.34102e-23)
(0.00633875 -0.00442603 4.46467e-22)
(0.0510098 -0.0311475 1.25516e-22)
(0.0331555 -0.0205373 -2.57031e-22)
(0.00211154 -0.000596358 3.2051e-21)
(0.00515794 -0.0020731 -1.24891e-21)
(0.100986 0.0482486 1.30527e-23)
(0.0970338 0.055216 -7.63207e-22)
(0.0807241 0.054013 6.96302e-22)
(0.0472064 0.0345112 -2.67616e-21)
(0.0444348 0.0316073 1.89522e-21)
(0.0294929 0.0205961 -1.13223e-22)
(0.0327135 0.0232489 -6.40232e-22)
(0.0379547 0.0283587 8.67876e-22)
(0.00440887 0.00272634 -5.90912e-23)
(0.00776229 0.00397842 -1.70357e-23)
(0.00318882 0.00202119 3.41377e-23)
(0.00192318 0.00164487 -4.56574e-22)
(0.00144987 0.00156846 5.59964e-22)
(0.0157427 0.0115439 -3.24838e-21)
(0.0174955 0.0136357 7.43905e-22)
(0.00880575 -0.00384762 0)
(0.101389 0.00515945 0)
(0.0984003 0.0156833 -3.95499e-21)
(0.0604412 0.0104756 1.93842e-21)
(0.0886809 0.0178812 0)
(0.135461 -0.00110876 0)
(0.134899 -0.00182337 0)
(0.133208 -0.00231717 -2.48138e-22)
(0.114974 0.0266068 -2.11601e-22)
(0.114066 0.0280098 2.09222e-21)
(0.113268 0.0254697 1.12272e-21)
(0.00229422 0.00129946 1.0529e-21)
(0.00151155 0.000777385 -1.18178e-21)
(0.0190518 -0.00553687 -5.50319e-22)
(0.0201326 -0.00506605 4.69974e-22)
(0.00910178 -0.00292894 9.28983e-22)
(0.00647663 0.0111494 1.47755e-21)
(0.0189679 0.0181605 3.45382e-21)
(0.0134651 0.0228001 2.72185e-22)
(0.00492084 0.0143063 -8.6148e-21)
(0.116991 0.047751 5.529e-23)
(0.107866 0.0582403 1.06589e-21)
(0.118326 0.0548778 -1.83822e-21)
(0.0390869 -0.0294147 7.29703e-22)
(0.0240067 -0.0172632 -4.66254e-22)
(0.005321 -0.000741653 -4.09916e-21)
(0.00453806 -0.00359166 0)
(0.0124957 -0.00167174 2.00075e-21)
(0.0219618 -0.0161287 7.76887e-22)
(0.0342515 -0.0277813 -1.95111e-21)
(0.0343943 -2.23767e-05 5.68142e-23)
(0.0365741 0.000136753 -4.16118e-23)
(0.0322934 0.000156291 -1.75698e-24)
(0.0280522 -0.0419439 0)
(0.0296016 -0.0428353 0)
(0.0896231 -0.018653 -4.62136e-22)
(0.0995909 -0.0220907 3.14024e-21)
(0.0870344 -0.0252786 0)
(0.0471123 -0.0401839 0)
(0.0581721 -0.0513791 -7.81397e-22)
(0.0413116 0.0393376 2.08257e-21)
(-2.45114e-06 0.000214302 5.13987e-22)
(-0.000194347 0.000130907 -3.38821e-22)
(0.0223242 -0.0192384 -7.89551e-22)
(0.120312 -0.0115488 3.90453e-22)
(0.11968 -0.0114957 -7.55663e-23)
(0.115436 -0.00571818 -6.67212e-23)
(0.108364 0.000984902 8.89154e-23)
(0.117629 -0.000314366 1.81792e-22)
(8.21584e-05 0.000259098 1.98351e-22)
(0.0437443 0.0344187 3.19867e-21)
(0.0618735 0.046308 -7.8662e-22)
(0.0593085 0.0393648 -3.01166e-24)
(0.0224474 -0.00082833 5.56603e-24)
(0.0221182 -0.000810536 2.90939e-23)
(0.0240036 -0.000586995 1.12459e-24)
(0.0268023 -0.000596155 -1.43343e-23)
(0.0454186 0.0380896 1.33772e-22)
(0.0189613 0.0160588 0)
(0.000139136 -2.90284e-05 3.69651e-22)
(0.000422312 -0.00025637 -4.10109e-22)
(0.00186064 -0.00101102 2.8625e-22)
(0.0365546 -0.00772154 -1.84382e-21)
(0.0648658 -0.00210273 -7.52318e-22)
(0.0311749 -0.000208237 -2.17604e-24)
(0.0744747 -0.00764338 2.71325e-22)
(0.0706859 -0.0157273 6.23115e-23)
(0.0943048 0.0399194 2.14049e-21)
(0.0914055 0.0454549 9.92838e-23)
(0.0887489 0.0290869 1.21415e-21)
(0.0914743 0.0308037 -8.79883e-22)
(0.0986968 0.0410804 0)
(0.126113 -0.000333732 1.48766e-22)
(0.126883 -0.000767463 2.80924e-22)
(0.128094 -0.0123384 -2.94184e-22)
(0.129558 -0.0121431 5.03487e-22)
(0.117055 0.0241504 2.59433e-22)
(0.119113 0.0250511 -7.34638e-22)
(0.117101 0.0261629 0)
(0.115135 0.0249004 1.5297e-22)
(0.116672 0.0280853 0)
(0.117174 0.0361065 -5.50151e-22)
(0.115712 0.0381583 -3.00402e-22)
(0.111338 0.0419709 -5.39709e-22)
(0.113732 0.0401032 0)
(0.116421 0.0430784 1.78492e-21)
(0.113699 0.045001 4.73876e-23)
(0.108332 0.0441818 -3.03225e-22)
(0.0996297 0.0502845 -1.28516e-21)
(0.09842 0.0454961 -2.26431e-22)
(0.0249615 -0.00848255 6.00959e-23)
(0.0328186 -0.00934032 -2.39702e-23)
(0.00628505 -0.00248847 -6.94119e-22)
(0.0305692 -8.40266e-05 -3.61081e-23)
(0.0391892 -0.000270148 0)
(-2.89945e-06 -4.0148e-05 4.34693e-22)
(1.32623e-05 -4.73578e-05 2.21354e-22)
(0.0354592 -0.00180504 1.71358e-23)
(0.0419195 -0.0017536 7.04355e-24)
(0.0414681 -0.00120485 0)
(0.0342923 -0.000828453 7.54332e-24)
(0.0859932 0.0035194 -1.08821e-22)
(0.0852303 0.00318824 5.14112e-22)
(0.0861007 0.00327772 2.37826e-22)
(0.00067062 0.000271848 3.93587e-22)
(-0.000159471 -0.0001293 -5.70037e-22)
(-0.000201125 -0.000169022 4.86058e-22)
(0.00150024 0.000617427 0)
(7.99275e-05 8.77919e-05 1.14e-21)
(0.000171936 -3.89925e-05 -8.2223e-22)
(0.00744797 0.00367336 -9.92395e-22)
(0.00145163 0.000781305 -1.18479e-21)
(0.00172053 0.000860618 0)
(0.00157199 0.00754375 0)
(0.000576949 0.00328113 0)
(0.000313306 0.0019768 0)
(0.136633 -0.00112148 5.55555e-23)
(0.137644 -0.000956801 0)
(0.136007 -0.00190667 -6.4793e-23)
(0.0881109 -0.0148534 4.42086e-21)
(0.0901176 -0.0152626 -1.60476e-21)
(0.089033 -0.0128781 0)
(0.0974367 0.000294981 -6.44061e-24)
(0.0980544 0.000283402 1.28899e-23)
(0.0968175 0.000306488 -4.35374e-24)
(0.0986674 0.000274198 0)
(0.0992792 0.00027369 -8.22827e-24)
(0.0998845 0.000267753 0)
(0.0998838 -0.000375727 0)
(0.100482 0.000250115 3.05723e-23)
(0.100474 -0.000398074 0)
(0.0992854 -0.000365663 -8.28607e-24)
(0.0986736 -0.000360841 0)
(0.0980596 -0.000355065 4.30856e-24)
(0.0974389 -0.000353102 -6.43643e-24)
(0.0968218 -0.000349682 4.3483e-24)
(0.101067 0.000230856 -2.92552e-23)
(0.101062 -0.000413591 -1.02321e-24)
(0.0961897 0.000323528 -8.41051e-29)
(0.0961886 -0.00033944 -6.64107e-24)
(0.0955516 0.000338875 3.53064e-23)
(0.101643 0.000218953 2.73484e-26)
(0.101654 -0.000420049 -1.02466e-24)
(0.0955541 -0.000337222 1.30832e-23)
(0.102221 0.000206402 2.75553e-23)
(0.102795 0.000196781 -2.75326e-23)
(0.102237 -0.000426777 2.06264e-24)
(0.102813 -0.000431147 4.07906e-24)
(0.0949327 0.000365483 -3.43514e-23)
(0.0949274 -0.00033341 -8.61039e-24)
(0.103365 0.000185848 0)
(0.103384 -0.000436132 -4.02333e-24)
(0.0942913 0.000381788 4.24625e-27)
(0.0942872 -0.000323675 -4.2569e-27)
(0.103931 0.000177521 0)
(0.10395 -0.00043897 0)
(0.0936446 0.00039449 0)
(0.0936403 -0.000317459 0)
(0.104491 0.000167617 0)
(0.10451 -0.000442565 1.93397e-24)
(0.0929931 0.000407262 -1.77916e-23)
(0.0929879 -0.000310108 -4.34282e-27)
(0.105046 0.000160249 1.01391e-25)
(0.105065 -0.000443934 -2.06549e-24)
(0.0923363 0.000418059 1.78766e-23)
(0.0923306 -0.000304412 0)
(0.105596 0.000151207 0)
(0.105615 -0.000445873 0)
(0.091675 0.000429379 -1.13019e-24)
(0.0916685 -0.00029648 1.93916e-23)
(0.10614 0.000144715 1.25396e-23)
(0.106159 -0.000445137 0)
(0.0910097 0.000438674 -9.59196e-26)
(0.0910016 -0.000288774 -1.83534e-23)
(0.106679 0.000136694 -1.87565e-23)
(0.106698 -0.000444818 -5.44321e-24)
(0.0903257 0.00044116 1.87063e-23)
(0.0903204 -0.000281449 0)
(0.107213 0.000132249 6.17815e-24)
(0.107234 -0.000438311 3.63027e-24)
(0.0896398 0.000450367 -9.46159e-24)
(0.0896344 -0.000277212 1.91833e-23)
(0.107738 0.0001305 -2.46721e-23)
(0.107768 -0.000424019 2.78077e-23)
(0.0889232 0.000444274 9.74966e-24)
(0.0889268 -0.000278779 3.08452e-25)
(0.108266 0.000131642 0)
(0.108294 -0.000410063 1.32502e-23)
(0.0881996 0.00043845 -1.96014e-23)
(0.0882102 -0.000287877 3.92071e-23)
(0.108807 0.000124072 0)
(0.108818 -0.000402001 0)
(0.0892086 0.00116192 -9.64721e-24)
(0.0884801 0.00116294 -3.90239e-23)
(0.0874527 0.000425998 0)
(0.0874803 -0.000308985 -1.99647e-23)
(0.0906172 0.00115011 -6.06259e-24)
(0.089916 0.00115705 1.19048e-24)
(0.0919601 0.00112179 0)
(0.0912865 0.00113564 -1.95914e-23)
(0.0932709 0.0010888 -3.78782e-26)
(0.0926187 0.00110586 0)
(0.0945582 0.00105191 0)
(0.0939173 0.00107078 0)
(0.0958251 0.00100725 0)
(0.0951942 0.00103141 0)
(0.0970482 0.00096142 8.59898e-24)
(0.0964328 0.000983209 2.16649e-24)
(0.0982709 0.000927419 -8.29674e-24)
(0.0976663 0.000944066 -8.58443e-24)
(0.0994733 0.000898612 1.47464e-23)
(0.0988682 0.000906825 1.88287e-23)
(0.100677 0.0008743 0)
(0.100077 0.000889567 0)
(0.101842 0.000847081 -6.48573e-26)
(0.101263 0.000860481 0)
(0.102985 0.000817797 0)
(0.102416 0.00083251 0)
(0.104109 0.000788393 0)
(0.10355 0.000802937 0)
(0.105214 0.000759889 0)
(0.104664 0.000773933 0)
(0.106297 0.000732431 0)
(0.105758 0.000745955 0)
(0.107358 0.000705667 0)
(0.10683 0.000718931 0)
(0.108404 0.000662746 -1.00789e-23)
(0.10788 0.000691315 0)
(0.108926 0.000640351 -3.25427e-24)
(0.109336 0.000112365 3.17788e-24)
(0.109344 -0.000397964 -3.15143e-24)
(0.107905 -0.000945878 0)
(0.108945 -0.000917647 -1.29312e-23)
(0.108427 -0.000930691 -6.66417e-24)
(0.106845 -0.000973441 1.82417e-24)
(0.107376 -0.000961508 -7.13723e-24)
(0.105771 -0.000988909 5.90575e-26)
(0.10631 -0.000983061 0)
(0.104675 -0.000996396 0)
(0.105226 -0.000993064 0)
(0.103559 -0.00100074 0)
(0.10412 -0.000998815 0)
(0.10242 -0.00100306 0)
(0.102992 -0.001002 7.76626e-30)
(0.101261 -0.00100505 6.54719e-26)
(0.101843 -0.00100387 0)
(0.100088 -0.000999132 0)
(0.100674 -0.00100379 0)
(0.0988887 -0.000990574 0)
(0.0994886 -0.000994255 0)
(0.097669 -0.000987556 0)
(0.09828 -0.00098632 -4.35598e-24)
(0.0964296 -0.000990473 1.14411e-24)
(0.0970506 -0.00099229 -5.61313e-24)
(0.0951822 -0.000995832 0)
(0.0958128 -0.000991502 -4.56436e-24)
(0.0939039 -0.000995383 0)
(0.0945461 -0.0009958 0)
(0.0926017 -0.00099445 0)
(0.0932558 -0.000994882 0)
(0.0912709 -0.000992019 0)
(0.0919409 -0.000993463 0)
(0.0899056 -0.000990195 -4.95763e-24)
(0.090594 -0.000989624 0)
(0.0885099 -0.00100843 -2.00578e-23)
(0.0892118 -0.000993805 -4.97959e-24)
(0.0877904 -0.00102832 2.04101e-23)
(0.0877381 0.00116544 3.86856e-23)
(0.109448 0.000621856 6.37087e-24)
(0.109462 -0.000904084 -1.24431e-23)
(0.086729 -0.000341483 0)
(0.0870629 -0.00106335 0)
(0.0869836 0.00116756 0)
(0.0866923 0.000405782 0)
(0.0897761 0.00186453 0)
(0.0883461 0.00190016 9.68962e-24)
(0.089066 0.00188039 9.78745e-24)
(0.0911635 0.00182678 1.24492e-23)
(0.0904759 0.00184685 -2.488e-24)
(0.0924826 0.00177996 3.85222e-26)
(0.0918283 0.00180341 0)
(0.0937719 0.00173268 0)
(0.0931304 0.00175647 0)
(0.0950371 0.00168455 0)
(0.0944073 0.0017087 0)
(0.0962824 0.00163823 0)
(0.0956618 0.00166042 0)
(0.0975011 0.00159071 0)
(0.0968942 0.00161513 0)
(0.0987009 0.00154834 -3.47751e-26)
(0.0980996 0.00157034 8.96702e-24)
(0.0998729 0.00150428 -3.33895e-26)
(0.0992929 0.00152514 -1.75101e-23)
(0.101045 0.00145925 0)
(0.10046 0.00148073 0)
(0.102191 0.00141882 3.23833e-26)
(0.101621 0.00143869 0)
(0.103316 0.00137924 0)
(0.102756 0.001399 0)
(0.104422 0.00133998 0)
(0.103871 0.00135953 0)
(0.105507 0.00130127 0)
(0.104967 0.00132053 0)
(0.106572 0.00126305 0)
(0.106042 0.0012821 0)
(0.107615 0.00122381 0)
(0.107097 0.00124383 0)
(0.108642 0.00117055 6.88393e-24)
(0.10813 0.00119979 0)
(0.10986 0.000105759 0)
(0.109961 0.000603958 6.22648e-24)
(0.109663 0.00111723 0)
(0.109152 0.00114344 6.70616e-24)
(0.109182 -0.00142407 1.33424e-23)
(0.109687 -0.00140379 3.276e-24)
(0.109975 -0.000894561 2.55782e-23)
(0.109864 -0.000391011 0)
(0.108159 -0.00146493 0)
(0.108672 -0.00144459 -2.01449e-23)
(0.10712 -0.00150042 5.73789e-26)
(0.107642 -0.00148235 7.18064e-24)
(0.106063 -0.00152499 -5.90572e-26)
(0.106594 -0.00151377 0)
(0.104986 -0.00154339 0)
(0.105527 -0.0015347 0)
(0.103887 -0.0015584 0)
(0.104439 -0.00155122 0)
(0.102768 -0.00157119 0)
(0.10333 -0.00156498 -7.76624e-30)
(0.10163 -0.00158278 -1.30847e-25)
(0.102201 -0.0015771 0)
(0.100474 -0.00159136 0)
(0.101054 -0.00158762 0)
(0.0992947 -0.00159857 2.19744e-24)
(0.0998877 -0.00159471 0)
(0.0980993 -0.00160454 0)
(0.098698 -0.00159943 -2.18827e-24)
(0.0968828 -0.00161587 4.5745e-24)
(0.0974897 -0.00161035 4.5485e-24)
(0.0956456 -0.00162452 0)
(0.0962679 -0.00162039 0)
(0.0943855 -0.00163513 0)
(0.0950183 -0.00162967 0)
(0.0931016 -0.00164709 0)
(0.0937467 -0.0016409 0)
(0.0917908 -0.00166112 0)
(0.0924498 -0.00165371 0)
(0.0904497 -0.00167939 7.92246e-26)
(0.0911244 -0.0016696 0)
(0.0890752 -0.00170508 -8.02597e-26)
(0.0897679 -0.00169143 0)
(0.0876692 -0.00176459 -2.09806e-23)
(0.0883752 -0.00173115 2.0971e-23)
(0.087612 0.00191991 1.97021e-23)
(0.0863305 -0.00111025 0)
(0.0869559 -0.00181105 -4.26332e-23)
(0.0859768 -0.00038123 0)
(0.110165 0.0010977 0)
(0.11019 -0.00138281 -3.17708e-24)
(0.0862232 0.00116963 4.98682e-23)
(0.0868721 0.00194036 1.99445e-23)
(0.0855825 -0.00116003 1.07814e-23)
(0.0862327 -0.00186546 5.38761e-23)
(0.0859194 0.000381174 0)
(0.109981 0.00160743 2.61977e-23)
(0.110468 0.00157827 -1.29372e-23)
(0.110478 -0.000880854 -6.29328e-24)
(0.110685 -0.00135851 3.12835e-23)
(0.0878523 0.00268281 6.99865e-23)
(0.0861121 0.00196007 -3.9291e-23)
(0.0863674 0.00274219 -1.75399e-22)
(0.0871064 0.00270903 -3.99745e-23)
(0.0892621 0.0026129 1.94949e-23)
(0.0885633 0.00264922 -5.95565e-23)
(0.0906228 0.00254495 -1.99449e-23)
(0.0899491 0.00257879 -1.50352e-23)
(0.0919574 0.00248329 -4.97793e-24)
(0.0912968 0.00251517 -4.9788e-24)
(0.0932452 0.00242332 -3.85222e-26)
(0.0926075 0.00245364 0)
(0.0945013 0.00236281 0)
(0.0938764 0.00239298 0)
(0.0957335 0.00230335 0)
(0.0951202 0.00233295 0)
(0.0969449 0.00224587 0)
(0.0963417 0.00227419 0)
(0.0981347 0.00219093 0)
(0.0975422 0.00221781 0)
(0.0993036 0.00213647 0)
(0.0987211 0.00216341 0)
(0.100453 0.00208392 6.75509e-29)
(0.0998816 0.0021109 0)
(0.101587 0.00203004 0)
(0.101021 0.00205651 0)
(0.102704 0.00197904 3.22912e-26)
(0.102148 0.00200427 0)
(0.103801 0.00192937 0)
(0.103255 0.00195411 0)
(0.104879 0.00188029 0)
(0.104342 0.00190478 0)
(0.105938 0.00183151 0)
(0.105411 0.00185588 0)
(0.106976 0.00178266 0)
(0.10646 0.00180714 0)
(0.107994 0.00173183 0)
(0.107487 0.0017578 0)
(0.108993 0.00167069 3.50313e-24)
(0.108496 0.00170247 -1.76331e-24)
(0.109489 0.0016394 -1.33668e-23)
(0.110367 0.00010379 -2.98269e-24)
(0.110662 0.00107696 1.24624e-23)
(0.110464 0.000592825 -9.53664e-24)
(0.11037 -0.00039202 0)
(0.109525 -0.00191865 -9.92745e-24)
(0.110501 -0.00185904 -2.86353e-23)
(0.110015 -0.00189016 2.30636e-23)
(0.108532 -0.00197504 0)
(0.10903 -0.0019464 0)
(0.107519 -0.00201537 -9.72162e-29)
(0.108027 -0.0019943 0)
(0.106489 -0.00205026 0)
(0.107006 -0.00203376 0)
(0.105438 -0.0020793 -6.04897e-26)
(0.105966 -0.00206533 0)
(0.104366 -0.00210464 0)
(0.104904 -0.00209236 0)
(0.103275 -0.00212733 0)
(0.103823 -0.00211627 0)
(0.102164 -0.00214806 6.53844e-26)
(0.102722 -0.00213792 0)
(0.101035 -0.00216669 6.68488e-26)
(0.101602 -0.00215763 0)
(0.0998864 -0.00218476 0)
(0.100463 -0.00217561 0)
(0.0987184 -0.00220261 0)
(0.0993052 -0.00219383 0)
(0.0975304 -0.00222197 0)
(0.098126 -0.0022118 0)
(0.0963215 -0.00224104 0)
(0.0969288 -0.00223121 0)
(0.0950905 -0.00226298 -7.46019e-26)
(0.0957088 -0.00225171 0)
(0.0938359 -0.00228759 0)
(0.0944663 -0.00227492 0)
(0.092555 -0.00231586 0)
(0.0931989 -0.00230117 0)
(0.0912453 -0.00234959 -1.48839e-28)
(0.0919039 -0.00233194 0)
(0.0899049 -0.00239064 1.64988e-28)
(0.0905793 -0.0023692 0)
(0.0885358 -0.00244911 8.28321e-26)
(0.0892209 -0.00241512 0)
(0.0871435 -0.00254365 -4.35365e-23)
(0.0878416 -0.00249096 1.07068e-23)
(0.085499 -0.00192027 1.09539e-23)
(0.086449 -0.00260435 2.17675e-23)
(0.0854522 0.00116492 -1.95324e-23)
(0.0852076 -0.000424703 -2.08855e-23)
(0.110951 0.00154937 3.16505e-24)
(0.110985 -0.00183228 2.25027e-23)
(0.0853161 0.00195923 2.45843e-24)
(0.0848249 -0.00121725 0)
(0.085383 0.00265118 2.68851e-22)
(0.0857488 -0.00266785 3.34394e-23)
(0.0847712 -0.00198028 4.464e-23)
(0.087033 0.00365115 -4.42472e-22)
(0.0867657 0.00379622 8.11741e-23)
(0.0851533 0.000358782 0)
(0.0878362 0.00348872 4.49237e-23)
(0.0873266 0.00359305 2.29199e-23)
(0.0891127 0.00338173 4.05634e-23)
(0.0884361 0.00342461 -6.18334e-23)
(0.0904486 0.00328874 -2.01833e-23)
(0.0897913 0.00333715 -1.00691e-23)
(0.091737 0.00320278 1.01208e-23)
(0.0910967 0.00324452 1.02468e-23)
(0.0930019 0.00312177 0)
(0.0923701 0.0031607 -1.76804e-26)
(0.0942367 0.00304653 0)
(0.0936226 0.00308405 0)
(0.0954476 0.00297349 3.76366e-26)
(0.094845 0.00300966 0)
(0.0966368 0.00290311 0)
(0.0960448 0.00293801 0)
(0.0978059 0.00283531 0)
(0.0972237 0.00286886 0)
(0.0989552 0.00277009 0)
(0.0983829 0.00280237 0)
(0.100085 0.00270643 3.45774e-26)
(0.0995225 0.00273799 0)
(0.101197 0.0026443 7.46264e-29)
(0.100644 0.00267552 0)
(0.102293 0.00258255 0)
(0.101747 0.00261317 0)
(0.103372 0.00252249 -6.45133e-26)
(0.102834 0.00255236 0)
(0.104432 0.00246347 0)
(0.103904 0.0024929 0)
(0.105475 0.00240492 0)
(0.104956 0.00243418 0)
(0.106499 0.00234638 0)
(0.105989 0.00237569 0)
(0.107503 0.00228726 0)
(0.107004 0.00231696 0)
(0.108487 0.00222573 0)
(0.107998 0.00225704 0)
(0.109454 0.00215926 -1.74938e-24)
(0.108972 0.00219197 0)
(0.110403 0.00208548 0)
(0.109929 0.00212269 -3.38781e-24)
(0.111334 0.00200788 -3.71693e-27)
(0.110872 0.00204761 0)
(0.111147 0.00105705 -1.26355e-23)
(0.111799 0.00197535 7.60303e-25)
(0.111431 0.00152446 6.18127e-24)
(0.11086 9.7884e-05 4.54896e-24)
(0.110956 0.00058011 -3.13973e-24)
(0.110971 -0.000866468 -1.58166e-24)
(0.110866 -0.000386971 1.57775e-24)
(0.11146 -0.00180571 0)
(0.11117 -0.00134119 -1.43388e-23)
(0.110912 -0.00232938 -6.43435e-24)
(0.111837 -0.00226159 -1.23152e-23)
(0.111378 -0.00229506 2.82836e-23)
(0.109973 -0.00240112 -3.37757e-24)
(0.110445 -0.00236596 0)
(0.109015 -0.00246412 0)
(0.109496 -0.00243273 0)
(0.108038 -0.00251571 -1.20904e-28)
(0.108529 -0.00249099 0)
(0.107041 -0.00256058 0)
(0.107542 -0.00253896 0)
(0.106024 -0.00259994 6.04897e-26)
(0.106535 -0.00258085 0)
(0.104988 -0.00263529 0)
(0.105508 -0.00261806 0)
(0.103932 -0.00266761 0)
(0.104462 -0.00265179 0)
(0.102857 -0.00269761 0)
(0.103397 -0.00268287 0)
(0.101764 -0.00272585 -1.49641e-28)
(0.102313 -0.00271191 0)
(0.100652 -0.00275359 0)
(0.10121 -0.0027397 0)
(0.0995214 -0.00278136 0)
(0.100089 -0.00276748 0)
(0.0983712 -0.00281038 0)
(0.0989486 -0.00279561 0)
(0.0972007 -0.00284056 0)
(0.0977887 -0.00282518 0)
(0.0960087 -0.00287376 7.46019e-26)
(0.0966074 -0.00285676 0)
(0.0947937 -0.00291065 0)
(0.0954041 -0.0028917 0)
(0.0935538 -0.00295241 0)
(0.094177 -0.00293083 0)
(0.0922871 -0.00300079 -7.90682e-26)
(0.0929239 -0.00297567 0)
(0.0909921 -0.00305719 8.04974e-26)
(0.0916432 -0.00302798 0)
(0.0896673 -0.0031239 -8.18961e-26)
(0.0903331 -0.00308898 0)
(0.0883232 -0.00320955 1.07562e-23)
(0.0889932 -0.00316175 -2.12212e-23)
(0.0869848 -0.00333019 -1.08263e-23)
(0.0876507 -0.00326448 2.20144e-23)
(0.0850369 -0.00272855 2.98458e-25)
(0.0863058 -0.00339656 2.22048e-23)
(0.0846635 0.00114164 -2.00074e-23)
(0.0844366 -0.000458141 0)
(0.0845052 0.00190791 -1.93385e-22)
(0.0840607 -0.00125862 0)
(0.111813 0.00245912 -3.15404e-24)
(0.11225 0.00241291 2.31006e-24)
(0.111926 -0.00177863 -1.21025e-23)
(0.112289 -0.00222022 -1.36923e-23)
(0.0844196 0.00259015 -1.88092e-22)
(0.0840343 -0.00203649 -4.50766e-23)
(0.0858611 0.0037771 0)
(0.0884538 0.00432972 -5.12427e-23)
(0.0843254 -0.00279042 -2.21238e-23)
(0.0856184 -0.00346121 3.3582e-23)
(0.0878657 0.00432017 1.02905e-22)
(0.0843751 0.000333906 0)
(0.0893977 0.00415742 0)
(0.0888937 0.00424719 -4.56713e-23)
(0.0906053 0.00403041 0)
(0.0899836 0.00409081 0)
(0.0918518 0.00392161 0)
(0.0912308 0.00397336 1.04317e-23)
(0.0930648 0.00382328 0)
(0.0924603 0.00387194 0)
(0.0942618 0.00373041 0)
(0.0936652 0.00377551 0)
(0.0954386 0.00364346 0)
(0.0948528 0.00368661 0)
(0.0965953 0.00355979 -3.76366e-26)
(0.0960194 0.0036012 0)
(0.0977327 0.00347941 0)
(0.0971664 0.00351923 0)
(0.0988515 0.00340204 0)
(0.0982944 0.00344037 0)
(0.0999523 0.00332737 0)
(0.0994041 0.0033644 0)
(0.101035 0.00325481 -9.05838e-29)
(0.100496 0.00329085 0)
(0.102101 0.00318398 8.81438e-29)
(0.10157 0.00321931 0)
(0.103151 0.00311409 0)
(0.102628 0.00314886 0)
(0.104185 0.0030455 8.31705e-29)
(0.10367 0.00307968 0)
(0.105202 0.00297768 0)
(0.104695 0.00301154 0)
(0.106201 0.0029101 0)
(0.105703 0.00294391 0)
(0.107183 0.0028422 0)
(0.106694 0.00287624 0)
(0.108146 0.00277328 0)
(0.107667 0.00280793 0)
(0.10909 0.00270199 0)
(0.10862 0.00273806 0)
(0.110016 0.00262732 0)
(0.109555 0.00266515 0)
(0.110922 0.0025458 3.35508e-24)
(0.11047 0.0025856 3.43926e-24)
(0.11137 0.00250182 -6.43927e-24)
(0.111621 0.00103744 -6.19989e-24)
(0.112256 0.00194331 0)
(0.111896 0.00149458 -6.25341e-24)
(0.111342 9.42367e-05 0)
(0.111433 0.000569625 6.32739e-24)
(0.11145 -0.000854111 9.44635e-24)
(0.111347 -0.00038188 -3.19414e-24)
(0.111644 -0.00132009 -1.85581e-23)
(0.111419 -0.0027848 3.23365e-24)
(0.112297 -0.00269322 1.20175e-23)
(0.111863 -0.00274523 0)
(0.110521 -0.00286463 -6.71017e-24)
(0.110974 -0.00282639 6.73229e-24)
(0.109604 -0.00293562 0)
(0.110066 -0.0029018 0)
(0.108668 -0.00299733 -1.42674e-28)
(0.109139 -0.00296748 0)
(0.107713 -0.00305214 0)
(0.108193 -0.00302552 0)
(0.106737 -0.00310144 0)
(0.107227 -0.00307741 0)
(0.105743 -0.00314645 0)
(0.106243 -0.00312443 0)
(0.10473 -0.00318812 0)
(0.105239 -0.00316766 0)
(0.103699 -0.00322729 6.49518e-26)
(0.104217 -0.00320798 0)
(0.10265 -0.00326483 -6.66992e-26)
(0.103177 -0.00324622 0)
(0.101583 -0.00330188 0)
(0.102119 -0.00328336 0)
(0.100498 -0.00333919 0)
(0.101043 -0.00332048 0)
(0.099394 -0.00337784 0)
(0.0999483 -0.0033583 0)
(0.0982704 -0.00341849 0)
(0.0988347 -0.00339784 0)
(0.0971263 -0.00346257 0)
(0.097701 -0.00344006 0)
(0.0959605 -0.00351112 0)
(0.0965462 -0.00348623 0)
(0.0947716 -0.00356542 -7.72151e-26)
(0.095369 -0.00353747 0)
(0.0935582 -0.00362704 7.86701e-26)
(0.094168 -0.00359523 0)
(0.0923196 -0.00369732 -8.00909e-26)
(0.0929421 -0.00366107 0)
(0.0910555 -0.00377727 0)
(0.0916906 -0.00373602 0)
(0.0897662 -0.00386746 0)
(0.0904135 -0.00382093 0)
(0.0884678 -0.00397315 8.51604e-26)
(0.0891194 -0.00391779 1.08167e-23)
(0.0871617 -0.00410453 -5.6287e-23)
(0.0878099 -0.00403513 0)
(0.0849457 -0.00353493 -3.33646e-23)
(0.0865144 -0.00417857 -2.9718e-25)
(0.0838737 0.00111635 6.25308e-23)
(0.0836572 -0.000486999 0)
(0.11269 0.00237046 -1.20091e-23)
(0.112733 -0.00265146 -2.31698e-23)
(0.0836073 0.00184443 -3.29971e-23)
(0.0847136 0.00332227 1.06521e-24)
(0.0836055 0.00253356 9.38842e-23)
(0.0832975 -0.00129062 0)
(0.0832821 -0.002075 1.12694e-23)
(0.0868206 0.0042925 -9.65352e-23)
(0.0858634 0.00419693 8.2359e-23)
(0.0842898 0.00341876 -8.10618e-23)
(0.0836017 -0.00284288 -3.38347e-23)
(0.0842524 -0.0036034 2.25574e-23)
(0.0858785 -0.00426615 2.21415e-23)
(0.0835883 0.000308906 0)
(0.0900592 0.00492631 2.87041e-24)
(0.0885673 0.00494051 5.08759e-25)
(0.0893796 0.00492227 2.24288e-23)
(0.0911145 0.00477967 2.21737e-23)
(0.0905894 0.00485967 -2.22887e-23)
(0.0922681 0.00463364 4.10902e-26)
(0.0916739 0.00470286 0)
(0.0934369 0.00451629 0)
(0.0928558 0.00457224 0)
(0.0945847 0.00440888 0)
(0.0940128 0.00446202 0)
(0.0957164 0.00430714 0)
(0.0951527 0.00435708 0)
(0.0968301 0.00421066 3.81658e-26)
(0.0962756 0.00425847 0)
(0.0979258 0.00411777 0)
(0.0973801 0.00416378 0)
(0.0990043 0.00402838 0)
(0.0984672 0.00407267 0)
(0.100066 0.00394222 0)
(0.0995371 0.00398492 0)
(0.101111 0.00385893 0)
(0.10059 0.00390025 0)
(0.102139 0.00377801 -3.44868e-26)
(0.101627 0.00381821 0)
(0.103152 0.00369898 1.0218e-28)
(0.102648 0.00373833 0)
(0.10415 0.00362123 0)
(0.103653 0.00365995 0)
(0.105131 0.00354457 6.41816e-26)
(0.104642 0.00358281 0)
(0.106098 0.00346845 0)
(0.105616 0.00350649 0)
(0.107047 0.00339231 0)
(0.106574 0.00343043 0)
(0.10798 0.00331551 0)
(0.107516 0.00335405 0)
(0.108896 0.00323733 0)
(0.10844 0.00327666 0)
(0.109793 0.00315667 0)
(0.109346 0.0031974 0)
(0.110672 0.00307246 5.45491e-26)
(0.110234 0.00311508 0)
(0.111532 0.00298305 -3.36973e-24)
(0.111105 0.00302895 0)
(0.112373 0.00288392 3.20847e-24)
(0.111955 0.00293428 0)
(0.113198 0.00277853 3.04687e-24)
(0.112786 0.00283202 -3.12396e-24)
(0.112697 0.00190625 6.04657e-24)
(0.113608 0.00272665 0)
(0.113123 0.00232848 8.98558e-24)
(0.11208 0.00101798 0)
(0.112348 0.00146753 0)
(0.111812 9.1443e-05 0)
(0.1119 0.000557161 0)
(0.111916 -0.000839853 0)
(0.111818 -0.000375908 0)
(0.112379 -0.00174983 1.23344e-23)
(0.112104 -0.00130038 3.06939e-24)
(0.113157 -0.00260723 3.01874e-24)
(0.112731 -0.00218505 2.41349e-23)
(0.112844 -0.00311678 1.56722e-23)
(0.113656 -0.00301297 2.99146e-24)
(0.113251 -0.00306424 -6.09291e-24)
(0.112013 -0.00321757 3.22102e-24)
(0.112429 -0.00316735 -1.93204e-23)
(0.111163 -0.0033068 -1.35894e-28)
(0.11159 -0.00326287 0)
(0.110292 -0.0033855 0)
(0.110729 -0.00334688 0)
(0.109403 -0.00345693 -1.64216e-28)
(0.10985 -0.00342218 0)
(0.108495 -0.00352144 0)
(0.108951 -0.00348998 0)
(0.107568 -0.00358029 0)
(0.108034 -0.00355152 0)
(0.106623 -0.00363456 0)
(0.107097 -0.00360795 0)
(0.10566 -0.00368526 0)
(0.106143 -0.00366032 0)
(0.104679 -0.00373334 -1.29706e-25)
(0.105172 -0.00370958 0)
(0.103682 -0.0037798 0)
(0.104183 -0.00375672 0)
(0.102666 -0.00382578 0)
(0.103176 -0.0038028 0)
(0.101634 -0.00387222 0)
(0.102152 -0.0038489 0)
(0.100584 -0.00392018 0)
(0.101111 -0.00389596 0)
(0.0995147 -0.00397068 -7.2486e-26)
(0.100052 -0.00394505 0)
(0.0984266 -0.00402502 0)
(0.0989731 -0.00399731 0)
(0.0973184 -0.0040844 0)
(0.0978751 -0.00405402 0)
(0.0961891 -0.0041501 7.72151e-26)
(0.0967564 -0.00411639 0)
(0.0950379 -0.00422352 -2.48483e-28)
(0.0956162 -0.00418578 0)
(0.0938645 -0.0043058 1.59929e-25)
(0.094454 -0.00426352 0)
(0.0926689 -0.0043976 0)
(0.0932694 -0.00435051 0)
(0.0914512 -0.00449911 0)
(0.0920626 -0.00444699 0)
(0.0902135 -0.00460913 -2.79446e-28)
(0.0908352 -0.00455405 0)
(0.0889562 -0.00473175 0)
(0.0895861 -0.00466793 0)
(0.0877252 -0.00488521 -3.3451e-23)
(0.0883364 -0.00480431 0)
(0.0852247 -0.00434834 -2.9067e-25)
(0.0871185 -0.00497477 5.67853e-23)
(0.0830439 0.00107156 0)
(0.0877382 0.0049442 1.30116e-22)
(0.0827781 0.00178699 2.25412e-23)
(0.113781 0.00317074 -3.04114e-24)
(0.114167 0.00311576 0)
(0.113576 -0.00256429 2.93364e-24)
(0.114052 -0.0029568 -5.82921e-24)
(0.0828755 -0.000514019 0)
(0.0825256 -0.00131431 0)
(0.0829289 0.00260587 0)
(0.0825238 -0.0021067 -1.10994e-23)
(0.0828712 -0.00289769 -2.23218e-23)
(0.0835543 -0.00367653 0)
(0.0845588 -0.00443337 5.74438e-23)
(0.0864926 -0.0050661 -4.58025e-23)
(0.0827904 0.00027883 0)
(0.0906103 0.00555928 -1.07954e-26)
(0.0868709 0.00490456 4.08163e-23)
(0.0891401 0.00563443 -1.45466e-22)
(0.0898728 0.00561385 4.26402e-23)
(0.0919166 0.00548835 -1.38736e-23)
(0.0912809 0.00550569 -2.22377e-23)
(0.0929988 0.00535976 0)
(0.0924704 0.00543545 0)
(0.0940978 0.00520476 -4.10864e-26)
(0.0935375 0.00527798 0)
(0.0951999 0.0050776 0)
(0.0946523 0.00513894 0)
(0.0962802 0.00496105 0)
(0.0957424 0.00501851 0)
(0.0973432 0.00485074 0)
(0.0968139 0.00490512 0)
(0.0983891 0.00474559 -3.81658e-26)
(0.0978683 0.00479766 0)
(0.0994186 0.00464435 0)
(0.0989059 0.00469451 0)
(0.100432 0.00454677 0)
(0.0999275 0.00459513 0)
(0.101431 0.00445258 0)
(0.100933 0.00449928 0)
(0.102414 0.0043614 0)
(0.101924 0.00440665 0)
(0.103382 0.00427273 3.42637e-26)
(0.1029 0.00431679 0)
(0.104335 0.00418606 1.15208e-28)