/*--------------------------------*- C++ -*----------------------------------*\
  =========                 |
  \\      /  F ield         | OpenFOAM: The Open Source CFD Toolbox
   \\    /   O peration     | Website:  https://openfoam.org
    \\  /    A nd           | Version:  10
     \\/     M anipulation  |
\*---------------------------------------------------------------------------*/
FoamFile
{
    format      ascii;
    class       volScalarField;
    location    "39.5";
    object      p;
}
// * * * * * * * * * * * * * * * * * * * * * * * * * * * * * * * * * * * * * //

dimensions      [0 2 -2 0 0 0 0];

internalField   nonuniform List<scalar> 
14667
(
0.330429
0.340107
-0.000513559
0.000183611
0.0022866
0.209501
0.196591
-0.0021198
0.00549511
0.00553737
0.21241
0.225861
0.307623
0.239974
-0.00321243
0.192673
0.199829
0.0232054
0.014535
0.202077
0.284323
0.364611
0.300673
0.292258
-0.265935
-0.287851
-0.338132
-0.301415
-0.316149
0.546337
0.510534
0.510735
-0.669901
-0.66672
-0.745441
-0.685783
-0.695967
0.00780534
-0.00239113
0.00792004
0.0171372
0.0265895
0.721665
0.728601
0.817382
0.804457
0.719945
-0.276445
-0.211911
-0.279439
-0.366719
0.63299
0.582241
0.543688
-0.0232975
-0.0559418
-0.508366
-0.440121
-0.656531
-0.626606
-0.298676
-0.340556
0.346938
0.397102
0.488432
0.433569
0.317016
0.242034
0.098024
0.479689
0.467317
0.456044
0.886144
0.846561
-0.189127
-0.0833197
-0.103717
-0.155266
0.483058
0.499806
0.0113547
0.00696527
0.00732837
0.00494116
0.00439088
-0.297635
-0.361337
-0.536095
-0.47577
-0.230481
-0.216555
-0.104857
-0.101703
-0.121599
-0.129055
-0.12698
-0.123303
-0.0475531
-0.0597042
-0.0288092
-0.0448125
-0.156434
-0.0985845
0.39461
0.436193
0.421553
0.388621
0.366177
0.359869
-0.00784092
-0.010748
-0.00627845
-0.00556916
-0.00135637
-0.00443556
0.0609249
0.0514847
0.0538238
-0.00524844
-0.00865184
-0.00443444
-0.110283
-0.115316
-0.104274
-0.0961981
-0.0946272
-0.101586
-0.0901918
-0.0874238
-0.0876897
-0.0901272
-0.0868241
-0.0885585
-0.0898134
-0.0875639
-0.0925057
-0.0988962
-0.10219
-0.0946243
-0.107664
-0.118824
-0.126381
-0.112729
-0.131979
-0.146574
-0.162435
-0.143118
-0.161388
-0.175189
-0.20398
-0.183273
-0.18623
-0.191289
-0.235872
-0.222359
-0.195847
-0.199818
-0.233156
-0.236692
-0.196154
-0.185723
-0.204729
-0.222567
-0.16938
-0.150831
-0.162723
-0.184476
-0.141689
-0.131902
-0.135706
-0.144865
-0.115752
-0.12466
-0.136673
-0.150077
-0.135234
-0.152338
-0.119367
-0.151778
-0.135168
-0.179542
-0.16696
-0.197251
-0.188591
-0.181113
-0.192218
-0.151339
-0.166945
-0.121779
-0.135903
-0.0999121
-0.109679
-0.0876036
-0.0925921
-0.0844189
-0.0849338
-0.0905323
-0.0863008
-0.107466
-0.0975066
-0.11977
-0.168942
-0.161086
-0.103569
-0.113133
-0.0901396
-0.0961763
-0.085342
-0.0866214
-0.0894775
-0.0863176
-0.103501
-0.0951268
-0.129699
-0.114958
-0.168637
-0.147766
-0.213147
-0.191107
-0.2426
-0.231912
-0.245996
-0.237065
-0.218346
-0.237147
-0.171642
-0.195819
-0.147546
-0.163152
-0.1479
-0.105099
-0.108412
-0.173185
-0.190087
-0.185122
-0.110599
-0.104218
-0.132835
-0.118219
-0.159053
-0.147359
-0.167644
-0.167317
-0.156965
-0.165168
-0.131098
-0.144833
-0.105898
-0.117743
-0.0885973
-0.0961094
-0.0804901
-0.0834152
-0.0811377
-0.0797627
-0.090361
-0.0846339
-0.108935
-0.0983715
-0.138216
-0.122168
-0.155465
-0.175898
-0.131427
-0.112443
-0.122386
-0.0948133
-0.102869
-0.0837822
-0.0883227
-0.0809315
-0.0813266
-0.0868144
-0.0827275
-0.103063
-0.0934925
-0.132358
-0.115929
-0.175655
-0.152439
-0.225565
-0.200757
-0.264225
-0.247309
-0.264526
-0.28028
-0.226212
-0.247959
-0.174861
-0.201178
-0.12729
-0.149214
-0.0983551
-0.0957451
-0.109479
-0.0922438
-0.102704
-0.097304
-0.198716
-0.0889847
-0.0853857
-0.204502
-0.114392
-0.172946
-0.190572
-0.120031
-0.138864
-0.0831319
-0.0940086
-0.0707
-0.0876367
-0.0779082
-0.11262
-0.0996105
-0.1343
-0.124677
-0.14063
-0.139707
-0.131293
-0.137966
-0.110971
-0.121729
-0.0913615
-0.10054
-0.078394
-0.083904
-0.0734159
-0.0749016
-0.0761925
-0.0738502
-0.0867231
-0.0804018
-0.106384
-0.0952621
-0.136517
-0.120208
-0.15444
-0.174082
-0.188215
-0.157039
-0.0984557
-0.106823
-0.0838859
-0.09059
-0.0752934
-0.0786528
-0.0745071
-0.0739239
-0.0818804
-0.0770993
-0.099342
-0.0891719
-0.130056
-0.112853
-0.175616
-0.151121
-0.228955
-0.202321
-0.269406
-0.252359
-0.269567
-0.277594
-0.228461
-0.252207
-0.173029
-0.201227
-0.124141
-0.147057
-0.0905342
-0.105575
-0.0701141
-0.0789118
-0.0929684
-0.07673
-0.0659802
-0.143341
-0.123265
-0.0891637
-0.0776599
-0.0822562
-0.0723987
-0.205277
-0.0637852
-0.0859824
-0.0635179
-0.0526461
-0.0572642
-0.0539779
-0.070282
-0.0625999
-0.0902829
-0.0797538
-0.107706
-0.0999436
-0.113884
-0.11252
-0.106557
-0.111677
-0.0912673
-0.0993668
-0.0764825
-0.0833831
-0.0670953
-0.0709787
-0.0644251
-0.0648991
-0.0685239
-0.0656101
-0.0798867
-0.0731815
-0.100408
-0.0888533
-0.131258
-0.114599
-0.168493
-0.149535
-0.201296
-0.186349
-0.215564
-0.207845
-0.214334
-0.181185
-0.196518
-0.162914
-0.103358
-0.096309
-0.101025
-0.0833127
-0.0900753
-0.0717921
-0.0770487
-0.0657937
-0.0679675
-0.0666223
-0.0653312
-0.0750567
-0.0697936
-0.0933248
-0.082771
-0.124801
-0.107209
-0.17132
-0.146308
-0.225721
-0.198591
-0.265878
-0.249345
-0.265601
-0.272076
-0.224312
-0.248654
-0.167217
-0.196047
-0.117422
-0.140579
-0.0827215
-0.0982734
-0.0604173
-0.0702509
-0.0529076
-0.211624
-0.0862727
-0.0729872
-0.0837778
-0.0534024
-0.0634584
-0.0782976
-0.0843427
-0.0841108
-0.103182
-0.0697744
-0.0584136
-0.191842
-0.202205
-0.0447829
-0.0808074
-0.0565001
-0.0455291
-0.0411466
-0.0423835
-0.0435876
-0.0415433
-0.0528734
-0.0472828
-0.0683672
-0.0601328
-0.0826468
-0.0762354
-0.0879174
-0.0867274
-0.0827319
-0.0864819
-0.071434
-0.0774243
-0.0605951
-0.065614
-0.05425
-0.0567363
-0.0536605
-0.053204
-0.0590958
-0.0555911
-0.0713086
-0.0642395
-0.0922099
-0.0805471
-0.122939
-0.106402
-0.159761
-0.141115
-0.177247
-0.220331
-0.206974
-0.216409
-0.211893
-0.218867
-0.183871
-0.199864
-0.14441
-0.164854
-0.123643
-0.0784616
-0.0824348
-0.0682951
-0.0735207
-0.0594158
-0.0634188
-0.0554235
-0.0566881
-0.0575318
-0.0556933
-0.0665796
-0.0610864
-0.0848642
-0.0743719
-0.115874
-0.0985608
-0.161764
-0.137059
-0.21567
-0.188781
-0.254816
-0.238931
-0.253975
-0.260244
-0.213406
-0.237409
-0.156565
-0.185316
-0.106835
-0.129888
-0.0719931
-0.08763
-0.0488212
-0.0591932
-0.0339799
-0.0404133
-0.0300424
-0.0824655
-0.0719543
-0.101172
-0.0821377
-0.081403
-0.0661258
-0.0774232
-0.0513022
-0.0623574
-0.0703631
-0.0601959
-0.192868
-0.0473492
-0.0295245
-0.205437
-0.191331
-0.0784572
-0.0600055
-0.0474495
-0.0341417
-0.0395427
-0.0293165
-0.0308607
-0.0302177
-0.0291241
-0.0364628
-0.0325968
-0.0479566
-0.0417378
-0.0593521
-0.0541691
-0.0638901
-0.0627341
-0.0602622
-0.062961
-0.0520968
-0.0564113
-0.0445384
-0.0479697
-0.040871
-0.0421087
-0.0422198
-0.0408885
-0.0488754
-0.0448523
-0.061594
-0.054374
-0.0821887
-0.0707841
-0.111782
-0.0959281
-0.14696
-0.129108
-0.178033
-0.163792
-0.188077
-0.218809
-0.214786
-0.210173
-0.217243
-0.181943
-0.198067
-0.142333
-0.162922
-0.12151
-0.0643302
-0.066253
-0.0661087
-0.0613855
-0.0645312
-0.0535116
-0.0575354
-0.0469413
-0.0498275
-0.0446754
-0.0451794
-0.0476861
-0.0454936
-0.0569022
-0.0514126
-0.0746171
-0.064508
-0.104222
-0.0877183
-0.147964
-0.124401
-0.199531
-0.173787
-0.236827
-0.221777
-0.23549
-0.241704
-0.196345
-0.219435
-0.141721
-0.169396
-0.093287
-0.115837
-0.0588708
-0.0744246
-0.0352998
-0.0459748
-0.0195655
-0.0265013
-0.0122112
-0.0147697
-0.0317903
-0.0114187
-0.0111918
-0.0816901
-0.0738479
-0.082395
-0.0718916
-0.0801006
-0.0715749
-0.0743508
-0.0583885
-0.072269
-0.0647411
-0.0517759
-0.0131138
-0.0345529
-0.174595
-0.0148673
-0.0479757
-0.197666
-0.183683
-0.0456917
-0.0614372
0.000798789
-0.173146
-0.0791743
-0.0731155
-0.0567172
-0.0346676
-0.0443385
-0.0227364
-0.0276708
-0.0177958
-0.0195366
-0.0174611
-0.0171283
-0.0213232
-0.0188148
-0.0294698
-0.0249684
-0.0382439
-0.0341709
-0.0421273
-0.0410189
-0.0397253
-0.0415966
-0.0340433
-0.0370242
-0.0291647
-0.0312882
-0.0277246
-0.0279243
-0.0306338
-0.0286146
-0.0381041
-0.0337735
-0.0508456
-0.0437222
-0.0705801
-0.0597266
-0.0982931
-0.0835175
-0.130988
-0.114447
-0.160364
-0.146835
-0.169973
-0.211055
-0.206977
-0.202831
-0.209669
-0.175466
-0.191079
-0.137361
-0.157177
-0.0972518
-0.117124
-0.0786921
-0.0491747
-0.0493167
-0.0454415
-0.047788
-0.0395041
-0.0425415
-0.0348172
-0.0368036
-0.0338616
-0.0338043
-0.037416
-0.0350463
-0.046406
-0.0411302
-0.0629816
-0.0535705
-0.0903033
-0.0750944
-0.130643
-0.108894
-0.178466
-0.154554
-0.213054
-0.199145
-0.211302
-0.217364
-0.174219
-0.196009
-0.12313
-0.148979
-0.077408
-0.0988404
-0.0440723
-0.0592327
-0.0207222
-0.0314364
-0.00442253
-0.0117884
0.00448167
0.00101947
0.00744995
0.00649957
0.00663114
-0.0843966
-0.0789799
-0.0577354
-0.0427413
0.0250693
-0.0871289
-0.0811668
-0.0864845
-0.0846727
-0.0815233
-0.0885652
-0.0718081
-0.0727935
-0.0918953
-0.0571716
-0.0364826
-0.0170808
-0.166014
-0.0832636
-0.0928884
-0.0701259
-0.0409165
-0.0541139
-0.0223911
-0.0305006
-0.0118928
-0.0162298
-0.00695729
-0.0088562
-0.00575944
-0.0059685
-0.00767327
-0.00629519
-0.0130053
-0.00995395
-0.0195067
-0.0163985
-0.0227872
-0.0217529
-0.0213726
-0.0225804
-0.0176234
-0.019572
-0.0148162
-0.01593
-0.0150595
-0.0144846
-0.0190576
-0.0165767
-0.0269502
-0.0224966
-0.0393809
-0.0325156
-0.0578521
-0.0477667
-0.0832006
-0.0697247
-0.112854
-0.097852
-0.139183
-0.127068
-0.151785
-0.147756
-0.145359
-0.151456
-0.153884
-0.184439
-0.170811
-0.197778
-0.193623
-0.190501
-0.19676
-0.165268
-0.179674
-0.129909
-0.148346
-0.0920941
-0.110932
-0.0741807
-0.029077
-0.0330476
-0.0313943
-0.0336364
-0.0338338
-0.0308386
-0.0325806
-0.0264303
-0.028664
-0.0232633
-0.0245266
-0.0232875
-0.0228288
-0.0270797
-0.0246844
-0.0355201
-0.0306252
-0.0505411
-0.0420539
-0.0749436
-0.0613849
-0.110889
-0.091496
-0.153816
-0.132295
-0.185088
-0.172516
-0.183042
-0.188836
-0.148526
-0.168734
-0.10164
-0.125297
-0.0596128
-0.0794089
-0.0281667
-0.042595
-0.00544787
-0.0159368
0.0111038
0.00355661
0.0212572
0.0170169
0.0253405
0.0240529
0.0255056
-0.134401
-0.0909475
-0.0878697
-0.0893018
-0.11686
-0.0959767
-0.0944676
-0.0967766
-0.102305
-0.0918334
-0.109851
-0.0808657
-0.115448
-0.0631637
-0.0395206
0.0187851
-0.0110242
0.0171224
-0.123254
-0.016995
-0.0151561
-0.113908
-0.026796
-0.0911704
-0.111494
-0.0808328
-0.0488048
-0.0637501
-0.0259078
-0.0363056
-0.0108751
-0.0175013
-0.00181179
-0.00568626
0.00297203
0.00101566
0.00482186
0.00420127
0.00436335
0.0048918
0.00130553
0.00316078
-0.00321082
-0.000963361
-0.00589618
-0.00496498
-0.00522984
-0.00593095
-0.0029227
-0.0041067
-0.00162235
-0.00200649
-0.00304893
-0.00193684
-0.00774978
-0.004984
-0.0157881
-0.0113378
-0.0276641
-0.02118
-0.044591
-0.0354151
-0.0672557
-0.0552479
-0.0933721
-0.0801968
-0.116403
-0.105784
-0.128311
-0.124199
-0.128243
-0.1438
-0.135348
-0.099425
-0.138469
-0.101694
-0.120328
-0.167272
-0.154309
-0.180562
-0.176147
-0.174758
-0.18005
-0.152684
-0.165365
-0.120986
-0.137606
-0.0862986
-0.103658
-0.0539902
-0.0695904
-0.0396597
-0.0195891
-0.0185617
-0.0198173
-0.0200347
-0.0176981
-0.019017
-0.0144835
-0.0160846
-0.0125027
-0.0132125
-0.013192
-0.0124836
-0.0169629
-0.0146652
-0.0246176
-0.0202229
-0.0378042
-0.0303904
-0.0588866
-0.0471995
-0.0898191
-0.0731226
-0.127071
-0.108328
-0.154621
-0.143499
-0.152557
-0.157903
-0.120934
-0.139384
-0.0785897
-0.0998926
-0.0407847
-0.058622
-0.0119288
-0.0252901
0.00971321
-0.000374002
0.0260552
0.0185188
0.0369632
0.0322353
0.041741
0.0401102
0.0410635
0.0420225
0.0416234
0.0396358
0.0479555
0.0343342
0.0510838
-0.101675
-0.100887
-0.0248252
-0.0137769
-0.108935
-0.112609
-0.110781
-0.124953
-0.105193
-0.136075
-0.0910525
-0.143631
-0.0694602
-0.0433991
-0.0106421
0.0180865
-0.172175
-0.118029
-0.158403
-0.134175
-0.082119
0.0348698
-0.0876495
0.0485686
-0.0699662
-0.103322
-0.0807202
-0.0931165
-0.053436
-0.0670212
-0.029798
-0.0408213
-0.0123568
-0.0203045
-0.000281574
-0.0056498
0.00739937
0.00401207
0.0119492
0.0100117
0.014207
0.0133148
0.014782
0.0146981
0.0134961
0.0143956
0.0107021
0.0121774
0.00862978
0.00942143
0.00877821
0.0084437
0.0100406
0.00940685
0.0102851
0.0104073
0.00807007
0.00953274
0.0029715
0.0058815
-0.00498033
-0.000642312
-0.0161077
-0.010097
-0.0313357
-0.0231438
-0.0511571
-0.0407073
-0.0736405
-0.0623176
-0.0934927
-0.0843118
-0.104245
-0.100335
-0.100617
-0.104437
-0.0927365
-0.121414
-0.104926
-0.148062
-0.135986
-0.16126
-0.156693
-0.157464
-0.161453
-0.139125
-0.149816
-0.111539
-0.126119
-0.0804821
-0.0961145
-0.050614
-0.0651869
-0.0371019
-0.00411597
-0.00604923
-0.00511755
-0.00755319
-0.00692518
-0.0076839
-0.00786077
-0.0060374
-0.00704798
-0.0037445
-0.00485135
-0.00265908
-0.00296033
-0.00375482
-0.00291838
-0.00730957
-0.00519944
-0.0140272
-0.0102048
-0.0252461
-0.0189715
-0.0428571
-0.0331238
-0.0685175
-0.0546679
-0.0996806
-0.0839344
-0.123296
-0.113661
-0.121665
-0.126251
-0.0929345
-0.109576
-0.0551891
-0.0741264
-0.0216867
-0.0374922
0.00413529
-0.0078914
0.0240835
0.0147067
0.0396155
0.0323823
0.0505216
0.045699
0.0557503
0.0538591
0.0561045
0.0565498
0.0571311
0.0558719
0.0603239
0.0586995
0.0475416
0.0557376
0.0584014
-0.116963
-0.118787
-0.126274
-0.13605
-0.127994
-0.152928
-0.119902
-0.16698
-0.101508
-0.174568
-0.0747931
-0.0421754
-0.00764383
0.0188719
0.035409
0.0530974
0.0438032
-0.0614442
-0.198636
-0.177294
-0.145013
-0.0732473
-0.0630513
0.00442485
0.00457844
-0.00356225
-0.0527658
-0.0573502
-0.120282
-0.0629647
-0.0649687
-0.0484911
-0.0568087
-0.0300887
-0.0392971
-0.0134689
-0.0214149
-0.000293378
-0.00635802
0.00916891
0.00484988
0.0156983
0.0127578
0.0199243
0.0180662
0.0224021
0.0213445
0.0236634
0.0231679
0.0236755
0.023853
0.0223426
0.0231321
0.0209293
0.02153
0.0207631
0.0206805
0.0212779
0.0210365
0.0208044
0.0212636
0.0181183
0.0197783
0.0128862
0.0158163
0.00522021
0.009355
-0.00503177
0.0004514
-0.0185062
-0.0113199
-0.0355099
-0.0265975
-0.0545084
-0.0449583
-0.0712813
-0.0635138
-0.0805838
-0.0771622
-0.078301
-0.0811597
-0.0718649
-0.104083
-0.0890928
-0.128761
-0.117553
-0.141823
-0.137043
-0.140318
-0.14288
-0.125817
-0.134481
-0.102405
-0.114915
-0.0750314
-0.0889231
-0.047767
-0.0611899
-0.0234759
-0.0351032
-0.0129442
0.00362697
0.00408301
0.00281695
0.00316893
0.00287512
0.00268994
0.00417693
0.00340246
0.00575226
0.00502961
0.006192
0.00617319
0.00490472
0.00577081
0.00170246
0.00356632
-0.00400761
-0.000785382
-0.0132532
-0.00811151
-0.0274605
-0.0196389
-0.0479301
-0.0368939
-0.0729392
-0.0602486
-0.0924477
-0.0843785
-0.0922077
-0.0951599
-0.0657784
-0.0806205
-0.0324697
-0.0491624
-0.0030042
-0.016895
0.0197211
0.00911897
0.0375258
0.0291118
0.0516827
0.0450492
0.0619849
0.0573591
0.0675807
0.065395
0.0693984
0.0687869
0.0699975
0.069671
0.0680188
0.069675
0.0586911
0.0642198
-0.137065
-0.142028
-0.00366276
0.00429374
-0.147389
-0.164856
-0.147143
-0.185794
-0.133996
-0.201053
-0.109241
-0.206154
-0.0765045
-0.0386105
-0.0031792
0.020258
0.0328324
0.0503756
0.0387071
0.0436583
0.0482949
-0.0204945
-0.0284759
-0.0510722
-0.218464
-0.188094
-0.146571
-0.0991783
-0.0420339
-0.142408
-0.0308562
-0.0315668
-0.0223536
-0.0272933
-0.0110423
-0.0167955
0.000404413
-0.00517696
0.0100713
0.0055132
0.0175546
0.0140768
0.0230524
0.0205347
0.0268915
0.0251567
0.0294481
0.028305
0.0311292
0.0303779
0.0320238
0.0316945
0.0318683
0.0320752
0.031154
0.0315097
0.0308605
0.0309326
0.0308507
0.0308857
0.0299136
0.03058
0.0270121
0.028744
0.0218643
0.0247126
0.0146362
0.018501
0.00533152
0.0102618
-0.00642176
-0.00021009
-0.0207908
-0.0133052
-0.0365851
-0.0286674
-0.0505504
-0.0440599
-0.0585426
-0.0555487
-0.0568951
-0.0590925
-0.0450005
-0.0521533
-0.0274103
-0.0365323
-0.0314514
-0.059591
-0.0452463
-0.087677
-0.07397
-0.110609
-0.100109
-0.123767
-0.118651
-0.124558
-0.125738
-0.113687
-0.120434
-0.0942393
-0.104783
-0.0703362
-0.0825942
-0.0456132
-0.057883
-0.0228374
-0.0338373
-0.0127694
0.0113539
0.0122695
0.0119251
0.0121301
0.0123081
0.0117489
0.011912
0.0119658
0.0117449
0.0130091
0.0124187
0.0140283
0.0135979
0.0140326
0.0141909
0.0127188
0.013542
0.00995162
0.0115376
0.00525537
0.00788436
-0.00211259
0.00195962
-0.0131563
-0.00710674
-0.0287973
-0.0203863
-0.0479059
-0.0381808
-0.0631055
-0.0567805
-0.0602369
-0.0648807
-0.0404776
-0.0527449
-0.0114199
-0.0260764
0.0145242
0.00229581
0.034459
0.0251733
0.0500317
0.0426674
0.0625318
0.0566496
0.0718585
0.067627
0.077341
0.0751102
0.0791452
0.0786074
0.0784166
0.0790486
0.073866
0.0771327
0.0645289
0.0695461
0.0593227
-0.0183965
-0.161534
-0.170545
-0.170786
-0.19823
-0.165715
-0.221335
-0.145138
-0.234835
-0.112168
-0.234389
-0.072986
-0.0321945
0.000471553
0.0191181
0.0280317
0.0343542
0.0408494
0.0354629
0.0452557
0.0325781
0.0378017
-0.00701233
-0.033228
0.010906
0.0150767
0.0287396
-0.227522
-0.187057
-0.136877
-0.0839543
-0.0140754
0.0176859
0.016488
-0.00654771
0.0103804
-0.169436
-0.00192802
0.00492523
-0.00582614
-0.00533997
-0.00221655
-0.00460445
0.00429319
0.000799579
0.011927
0.00808638
0.0190176
0.0156059
0.0248842
0.0221161
0.0294541
0.0273254
0.0328879
0.0312988
0.0354222
0.034252
0.0373338
0.0364382
0.03877
0.0381202
0.0394838
0.0392356
0.0394574
0.0395331
0.0392207
0.0393468
0.0388719
0.0390928
0.0376527
0.0384344
0.0347229
0.0364338
0.0298252
0.0325135
0.0231486
0.0266949
0.0148225
0.0191969
0.00468962
0.0099976
-0.00731712
-0.00110049
-0.0202913
-0.0138029
-0.0318023
-0.026428
-0.0386178
-0.0360141
-0.0375745
-0.0392206
-0.028282
-0.0337847
-0.0214293
-0.0218334
7.99074e-05
-0.0102934
-0.0472256
-0.0342527
-0.0728295
-0.0602488
-0.0944575
-0.0844329
-0.107964
-0.102432
-0.1109
-0.110814
-0.103323
-0.108328
-0.0874777
-0.0962356
-0.0667251
-0.0774979
-0.0443417
-0.0555529
-0.0229939
-0.0333903
-0.00447412
-0.0133322
0.00345279
0.0190316
0.0184994
0.0193614
0.0193146
0.0193615
0.0193585
0.0197078
0.0194558
0.0205429
0.0201019
0.0211412
0.0209245
0.0208853
0.0211346
0.0196646
0.0203955
0.0173704
0.018669
0.0136436
0.0157133
0.00798512
0.0110913
-0.000252775
0.00423112
-0.0116322
-0.00554228
-0.0253911
-0.018386
-0.036533
-0.0318435
-0.0350961
-0.0379768
-0.018109
-0.028409
0.00708905
-0.00574054
0.030097
0.019227
0.0477652
0.0395578
0.0613517
0.0549565
0.0721481
0.0670704
0.0801919
0.0765466
0.0848234
0.0829749
0.0857116
0.0857072
0.0832218
0.0848957
0.0774933
0.0804363
0.0684644
0.0733795
0.0577815
0.0632801
0.0521012
-0.188859
-0.203134
0.0088288
0.014959
-0.193838
-0.233777
-0.18071
-0.255814
-0.150752
-0.263716
-0.109707
-0.254265
-0.0655626
-0.0255939
0.00150778
0.0155745
0.0228834
0.0275087
0.0264225
0.0296155
0.0238362
0.0341969
0.0207735
0.0261476
-0.00938537
0.0448542
0.0320788
0.0544072
0.0672281
0.062219
-0.22208
-0.172353
-0.115801
-0.059729
0.0093403
0.00581786
0.0140067
-0.199941
0.0319657
0.0423907
0.0180575
0.0238912
0.0126415
0.0144528
0.0130436
0.0123406
0.0165216
0.0144965
0.0215091
0.0189227
0.0266279
0.0241138
0.0311685
0.02899
0.0349404
0.0331521
0.0379811
0.036545
0.0404222
0.0392674
0.0424346
0.0414696
0.0441587
0.0433338
0.0454374
0.0448757
0.0460103
0.0458145
0.0459868
0.0460509
0.0454848
0.0458085
0.0441099
0.0449477
0.0412688
0.0428996
0.0367361
0.0392089
0.0306915
0.033886
0.0233446
0.0271763
0.0146935
0.0191886
0.00473784
0.00986213
-0.00584806
-0.000563852
-0.0152974
-0.0108586
-0.0211339
-0.0188488
-0.0205445
-0.021783
-0.0130423
-0.0174812
-0.00201035
-0.00778852
0.00390466
-0.0136157
-0.00342477
-0.0364388
-0.0247121
-0.0600893
-0.0483818
-0.0807608
-0.0710553
-0.0947518
-0.0887815
-0.0996446
-0.0984172
-0.0950106
-0.0984646
-0.0823587
-0.0895365
-0.0643896
-0.0738504
-0.0440623
-0.0543456
-0.0239483
-0.0338386
-0.00596988
-0.0146248
0.00189403
0.0203642
0.0231802
0.0219103
0.0248178
0.0241305
0.0254758
0.0252389
0.0257282
0.0256121
0.0262258
0.0259428
0.0268786
0.0265618
0.0271764
0.0271031
0.0268028
0.0270761
0.0257538
0.026363
0.0239367
0.0249547
0.0211017
0.0226635
0.0169436
0.0192089
0.011095
0.0142526
0.003296
0.00743664
-0.00587477
-0.00122902
-0.0132286
-0.0101344
-0.0121039
-0.0141571
0.0014661
-0.00681323
0.0227251
0.0117354
0.0430703
0.0333781
0.0589179
0.0515646
0.0708689
0.0652916
0.0800506
0.0757708
0.0865982
0.0836825
0.0899375
0.0887035
0.0897366
0.0902706
0.0862881
0.0883912
0.0800854
0.08343
0.0712663
0.0759992
0.0604702
0.0660356
0.0484133
0.0547212
0.0416254
-0.216278
-0.237173
-0.213112
-0.267326
-0.189203
-0.283994
-0.149016
-0.28234
-0.101667
-0.261012
-0.0563892
-0.0209817
0.000108566
0.010753
0.0166562
0.018617
0.0169294
0.0141213
0.0175314
0.0111121
0.0227267
0.00805488
0.0145566
0.0797768
0.0790278
0.0873284
0.0908814
0.0176911
0.0543732
0.0788112
-0.202124
-0.144668
-0.0846995
-0.0293974
0.0108522
0.0173827
0.0250518
0.0232268
0.0185177
0.0211875
0.0182147
-0.231161
0.0607088
0.0698423
0.0438665
0.0516155
0.0321884
0.0373124
0.0261239
0.0284979
0.0246923
0.0249228
0.026251
0.0251971
0.0293673
0.0276874
0.0329873
0.0311653
0.0364751
0.03477
0.0395791
0.0380816
0.0422531
0.0409676
0.0445551
0.0434456
0.0465797
0.045595
0.0484242
0.0475227
0.0500083
0.0492657
0.05103
0.0506083
0.0513108
0.0512582
0.0508308
0.0511718
0.0494139
0.0502604
0.0467283
0.0482478
0.0426211
0.0448486
0.0372505
0.0400772
0.0308566
0.0341716
0.0235272
0.0273099
0.0152996
0.0195127
0.00666517
0.0109708
-0.0011333
0.00255792
-0.00612385
-0.00414531
-0.00580297
-0.00675437
0.000132384
-0.00339147
0.00868563
0.00419313
0.0132419
-0.00673294
0.00250892
-0.0275327
-0.0168099
-0.0496058
-0.0386032
-0.0695786
-0.0600787
-0.084127
-0.0777123
-0.0908235
-0.0885555
-0.088817
-0.0908929
-0.0789707
-0.084764
-0.0634211
-0.0717458
-0.0448374
-0.0543412
-0.0257232
-0.0352083
-0.0081243
-0.0166272
0.00675444
-0.000299523
0.013046
0.0279566
0.0266355
0.0297317
0.0289746
0.0305876
0.0302341
0.0310845
0.0308459
0.0316388
0.0313524
0.0321305
0.0319143
0.0322377
0.032246
0.0318564
0.0321049
0.0310238
0.0314976
0.0296641
0.0304189
0.0276232
0.0287381
0.0247407
0.0262973
0.0208544
0.0229303
0.0159295
0.0185103
0.0104717
0.0131922
0.00648055
0.00807907
0.00808227
0.00629249
0.0186482
0.0122213
0.0358768
0.0268281
0.0533983
0.0449347
0.0675249
0.0609485
0.0780679
0.0731906
0.0857954
0.0822514
0.0908807
0.0886874
0.0929528
0.0923128
0.0918604
0.0927925
0.0878913
0.0902045
0.0815502
0.0849656
0.0730635
0.0775559
0.0627738
0.0681136
0.0511171
0.0571273
0.0377653
0.0446488
0.0305236
-0.239935
-0.268397
0.0162661
0.0211134
-0.22507
-0.293591
-0.189006
-0.300555
-0.14034
-0.286256
-0.0902794
-0.252102
-0.0479579
-0.0192361
-0.00336908
0.00454667
0.00867671
0.00864797
0.00609077
0.00320745
0.000329155
0.00587569
0.0127989
-0.00296035
0.00534712
0.0919433
0.0939001
-0.00201378
0.0983121
0.0998413
0.045644
0.0758236
0.0935634
-0.169299
-0.107346
-0.0475127
0.00393622
0.0245727
-0.258963
0.0880085
0.0909848
0.0774689
0.0834049
0.0640535
0.0708936
0.0514958
0.0575428
0.0417008
0.0461408
0.0358149
0.0382602
0.0335745
0.0342921
0.0338999
0.033492
0.0357139
0.0346739
0.0382283
0.0369245
0.0408971
0.0395657
0.0434493
0.0421968
0.0457914
0.0446478
0.0479294
0.0468837
0.0499056
0.0489344
0.0517679
0.0508496
0.0534714
0.0526509
0.0547614
0.0541893
0.055342
0.0551525
0.0550263
0.0553044
0.0536972
0.054497
0.0512223
0.0526105
0.0475584
0.049534
0.0428595
0.0453232
0.0373575
0.0401976
0.0311714
0.0343484
0.0243531
0.0278312
0.0172497
0.0207944
0.0107439
0.0138416
0.00653054
0.0081987
0.00672256
0.00598761
0.0113304
0.00859316
0.0179472
0.0145205
0.0243735
0.0211687
0.0300295
0.0273115
0.0276707
0.015188
0.0219044
-0.000958991
0.00755287
-0.0203071
-0.010306
-0.0411718
-0.0307115
-0.0607075
-0.0513
-0.0759088
-0.0690253
-0.0843148
-0.0810762
-0.0846873
-0.0855242
-0.0773266
-0.0818985
-0.0638761
-0.0712228
-0.0467368
-0.055607
-0.0283804
-0.0375698
-0.0109239
-0.01942
0.00415317
-0.00306142
0.0106206
0.0253126
0.0291038
0.0273171
0.0319905
0.0306681
0.0337935
0.0330203
0.0348141
0.0343725
0.0354872
0.0351705
0.0360577
0.0357863
0.0364225
0.0362782
0.0364387
0.0364763
0.036127
0.036319
0.0355294
0.0358654
0.0345926
0.0351085
0.0332399
0.0339719
0.0314127
0.0323883
0.0290876
0.0303101
0.0263744
0.0277624
0.0237457
0.024995
0.0224937
0.0228217
0.025021
0.0231146
0.0335573
0.028492
0.0471582
0.0399639
0.0616618
0.0545534
0.0738865
0.0681532
0.0830526
0.0788357
0.0894887
0.0865899
0.0933366
0.0917454
0.0944107
0.0942279
0.0927009
0.0938905
0.0885069
0.0908867
0.0822263
0.0855998
0.0741341
0.078385
0.0644954
0.0694984
0.0534251
0.0591276
0.0410395
0.0473844
0.0274872
0.0343833
0.020258
0.032547
-0.255715
-0.291745
-0.227031
-0.307531
-0.180066
-0.301531
-0.126613
-0.273729
-0.0783127
-0.227408
-0.0423564
-0.0204624
-0.00878447
-0.00300923
-0.00142068
-0.00305926
-0.00607046
-0.00898661
-0.0114477
-0.0126048
-0.00209641
-0.011875
0.0848088
0.0830643
0.0906567
0.00632937
-0.00920631
0.000399069
0.100226
0.106299
0.0727152
0.0952916
0.105809
-0.12803
-0.0648206
-0.00802739
0.0381437
0.0345911
0.0288786
0.0267943
0.0365865
0.0230679
-0.278716
0.0827605
0.0845879
0.075579
0.0796338
0.0657627
0.0709818
0.05616
0.0608378
0.0481461
0.0518711
0.0428191
0.0451105
0.0402761
0.0412329
0.0398372
0.0398419
0.0407755
0.0401734
0.0424921
0.0415692
0.044532
0.043492
0.0466346
0.0455853
0.0486834
0.047669
0.0506485
0.0496764
0.0525363
0.0516014
0.0543554
0.0534547
0.0560642
0.0552316
0.0574672
0.0568223
0.0582656
0.0579605
0.0581793
0.0583461
0.0570591
0.0577534
0.054863
0.0560952
0.051646
0.0533741
0.0475793
0.0497051
0.042872
0.0452955
0.0376387
0.0403188
0.0319331
0.0348372
0.0260023
0.0289659
0.0205443
0.0231427
0.017056
0.0184296
0.0171996
0.0166397
0.0206428
0.0186112
0.025508
0.0230177
0.0302727
0.0279367
0.0325011
0.0304114
0.0383267
0.0347484
0.0189995
0.0251659
0.00388564
0.0118857
-0.0144266
-0.00493911
-0.0344652
-0.0243624
-0.0538563
-0.0444112
-0.0698557
-0.0624513
-0.0799474
-0.0757706
-0.082541
-0.0822306
-0.0774373
-0.0809077
-0.0658295
-0.0723284
-0.0498663
-0.0582381
-0.0320167
-0.0410292
-0.0144991
-0.0230912
0.000976473
-0.00643915
0.0135483
0.00763785
0.0186852
0.0325172
0.0307993
0.0352847
0.0340137
0.0371111
0.0363047
0.0382592
0.0377473
0.0390418
0.0386818
0.0395975
0.0393489
0.0398836
0.0397774
0.039893
0.039919
0.0396987
0.039817
0.0393362
0.0395395
0.0387795
0.039084
0.0380091
0.038421
0.0370344
0.0375452
0.0359175
0.036486
0.0348447
0.0353564
0.0342506
0.0344463
0.0350112
0.034386
0.038491
0.0363208
0.0459114
0.0416822
0.0567402
0.0510414
0.0684339
0.0626527
0.0786334
0.0738118
0.086379
0.0828234
0.0916419
0.0893121
0.094472
0.0933647
0.0947975
0.0949483
0.0926885
0.0940323
0.0884377
0.0908072
0.082361
0.0856143
0.0747157
0.0787144
0.0657446
0.0703898
0.0554873
0.0607696
0.0441542
0.0499327
0.0318483
0.0380967
0.0190048
0.0253967
0.0125819
-0.260298
-0.302647
0.0204714
0.0244168
-0.218416
-0.305945
-0.164133
-0.286166
-0.110922
-0.245987
-0.0685346
-0.190738
-0.0404119
-0.0242367
-0.0160137
-0.0130134
-0.0137811
-0.0166348
-0.0197619
-0.0223366
-0.023687
-0.0232787
0.0792782
0.0731203
0.0678141
0.0733025
-0.0207039
0.0868841
-0.00505438
-0.015887
0.0995034
0.109667
0.0043563
-0.00992054
0.000392616
0.097297
0.111789
0.114879
-0.082961
-0.0215137
0.0308193
0.0707231
0.0412231
0.0399362
0.0425472
-0.286533
0.0786404
0.0767392
0.0779947
0.0789579
0.0732945
0.0760331
0.0662015
0.0698385
0.0589211
0.0625524
0.0524398
0.0554986
0.0478081
0.0498569
0.0452401
0.0462811
0.0443821
0.044626
0.0447575
0.0444448
0.0459111
0.0452625
0.0474762
0.0466598
0.0492183
0.048335
0.051013
0.0501136
0.0528077
0.0519119
0.0545837
0.053699
0.0563232
0.05546
0.0579737
0.0571654
0.0593883
0.058726
0.0603008
0.059925
0.0604272
0.060478
0.0595794
0.0601311
0.0577234
0.0587744
0.0549579
0.0564444
0.0514676
0.0532906
0.0474406
0.0495124
0.0429793
0.0452615
0.0381406
0.0406006
0.0331297
0.0356313
0.0285801
0.0307309
0.0257767
0.026866
0.025806
0.0254298
0.0282047
0.02679
0.0316346
0.0298719
0.0350806
0.0334033
0.0383152
0.0367354
0.039843
0.0327254
0.0366976
0.0221371
0.0278888
0.00788954
0.0154825
-0.00965464
-0.000534675
-0.0292099
-0.0192896
-0.0487607
-0.0391376
-0.0657471
-0.057744
-0.0775786
-0.0724526
-0.0823387
-0.0809196
-0.0793601
-0.0818035
-0.0694018
-0.0751565
-0.0543714
-0.0623719
-0.0367555
-0.0457282
-0.0189394
-0.0277392
-0.00282887
-0.0105774
0.0103934
0.00415486
0.0158123
0.027773
0.0319001
0.0299316
0.0353378
0.0337043
0.037952
0.0367401
0.0397782
0.0389507
0.0410089
0.040452
0.0418449
0.0414676
0.0423776
0.0421467
0.042642
0.0425406
0.0427062
0.0426931
0.0426536
0.0426912
0.0425152
0.0425951
0.0422921
0.0424136
0.0420041
0.0421538
0.0417029
0.0418502
0.0414976
0.0415781
0.0416016
0.0414921
0.0423961
0.0418807
0.0444905
0.0432347
0.0486634
0.0462714
0.055453
0.0517292
0.0643822
0.0597369
0.0738211
0.0691526
0.0821446
0.0781938
0.0885071
0.0855923
0.0926968
0.0908746
0.0946807
0.0939657
0.0944472
0.0948373
0.092103
0.0935249
0.0879046
0.0902156
0.0821126
0.0852116
0.0749544
0.0786867
0.0666458
0.0709368
0.0572582
0.0620811
0.0469543
0.0522057
0.0359048
0.0415071
0.0245975
0.0302223
0.0138144
0.0190668
0.0088498
-0.252695
-0.298467
-0.200716
-0.288265
-0.144622
-0.256463
-0.096667
-0.207309
-0.0626726
-0.147143
-0.0418335
-0.0305784
-0.025939
-0.0258487
-0.0285754
-0.0321956
-0.0351449
-0.0367579
0.0608515
0.0573094
0.0500679
0.0526056
-0.036665
0.0656329
-0.0341101
0.0805717
-0.029205
0.095987
-0.0221731
0.109913
-0.00291926
-0.0141784
0.118164
0.124138
0.120408
-0.0390479
0.0192747
0.0667713
0.0996724
0.0414123
0.0435255
0.0305207
-0.00552121
0.00662874
0.00475156
0.0284028
0.0254505
0.0445777
0.0437753
-0.280201
0.068093
0.0634143
0.0732862
0.0713537
0.0738236
0.0740555
0.0709592
0.0727295
0.065992
0.0686436
0.0603743
0.063198
0.0552002
0.0576695
0.0512671
0.0530481
0.0488487
0.0498695
0.047811
0.048174
0.0478433
0.0477144
0.0486101
0.0481543
0.0498234
0.0491755
0.0512801
0.0505305
0.052858
0.052059
0.0544917
0.0536704
0.0561453
0.0553179
0.0577841
0.0569696
0.059345
0.0585798
0.0607124
0.0600645
0.0616594
0.0612544
0.0619394
0.0618974
0.0613591
0.0617645
0.0598628