/*--------------------------------*- C++ -*----------------------------------*\
  =========                 |
  \\      /  F ield         | OpenFOAM: The Open Source CFD Toolbox
   \\    /   O peration     | Website:  https://openfoam.org
    \\  /    A nd           | Version:  10
     \\/     M anipulation  |
\*---------------------------------------------------------------------------*/
FoamFile
{
    format      ascii;
    class       surfaceScalarField;
    location    "15.5";
    object      phi;
}
// * * * * * * * * * * * * * * * * * * * * * * * * * * * * * * * * * * * * * //

dimensions      [0 3 -1 0 0 0 0];

internalField   nonuniform List<scalar> 
57492
(
-0.0057119
9.3424e-05
0.0012252
0.00439327
0.00332293
-0.00438671
-0.00464812
-0.000742104
0.00217321
0.00772219
-0.0091533
0.0386847
0.0295867
-0.00605558
-0.0622158
-0.0831217
0.0348026
0.0870038
0.0130174
-0.0122765
-0.00621
0.00546916
-0.0235237
0.0065869
-0.00388935
0.0208261
0.00476141
-0.0152677
0.015359
-0.0415974
0.0395914
-0.013353
0.0129976
0.0380128
-0.0356514
0.00517459
0.0025903
-0.0057059
-0.002059
0.000321412
0.00357214
0.00128104
-0.00364171
0.00376579
0.000197335
0.00103341
-0.00208481
0.0290964
-0.0255922
-0.0108417
0.00733757
0.00167533
0.0222395
0.00518159
-0.00189512
0.00636672
0.0346976
-0.0391692
-0.00580358
0.0342255
-0.0303171
0.00387137
-0.00807824
0.00420687
-0.0322464
0.0229051
0.0132126
-0.0465951
0.0048128
0.0339136
0.0078687
0.00914513
-0.0472565
-0.00848371
-0.000563266
0.00257307
-0.00164781
-0.000361997
0.0019608
-0.0027366
0.000212534
-0.0290505
0.0312607
0.00267148
-0.00488166
-0.0491006
0.0293676
-0.00931752
-0.0222351
0.00923174
0.0106857
0.00231769
-0.0156085
-0.00731867
0.000692079
-0.00783237
-0.022801
0.0269717
0.00366168
-0.00915988
0.0027917
-0.0014642
0.0137152
-0.00896958
-0.00830468
0.00355908
-0.0117577
0.00927931
0.0161935
-0.0179416
-0.0301791
0.0215809
0.0265398
-0.0337859
-0.010357
0.0262012
-0.0186339
-0.00272514
0.0213591
-0.00591508
-0.0127188
-0.0286837
0.0362399
-0.0134713
0.00483271
-0.0181638
-0.0153525
-0.0105586
0.0171455
-0.00788612
-0.0378517
0.0203423
0.0175094
-0.073156
0.0353043
0.0563057
0.000878651
-0.00613642
-0.0510479
0.040723
-0.0110735
0.0266563
0.00142396
0.0580125
-0.0585578
0.0254198
0.00465127
-0.0253097
0.0245327
-0.00300223
0.0293763
-0.0104883
-0.0216852
0.00279716
0.033123
0.000904523
0.0194674
-0.0115156
0.0165809
0.00967047
0.030623
-0.0442733
-0.00381479
0.00256586
0.0455222
-0.045676
-0.000526288
0.001929
0.0114044
0.0403841
-0.0397803
-0.0120083
0.00855378
-0.0387468
-0.0182839
0.0392982
0.0301161
-0.0511304
0.0128868
0.0469918
-0.0781625
0.000220203
0.00248893
-7.59072e-05
-0.00263323
0.00286341
0.00112258
-0.00123009
0.00142965
0.00266385
0.0015415
-0.000282659
-0.00100632
0.000930417
-0.000276269
-0.000730056
0.094242
0.0422356
-0.0650583
-0.0714194
0.0357845
-0.0215353
0.0799928
-0.0840143
0.0357617
0.0840372
0.0214888
-0.0632675
0.0118721
-0.0306783
0.0242438
-0.00543752
0.0261929
-0.0309178
0.0165969
0.00106967
-0.00112612
0.000149879
0.00182128
0.000473589
0.00498777
0.00122678
-0.0332872
0.060382
0.0281358
-0.0552306
0.0381645
-0.0452587
0.0228413
0.0547965
-0.0172558
0.138095
-0.010873
-0.0411924
-0.0860301
0.0399403
0.0763184
0.0218368
0.0231745
-0.0531849
0.0699507
0.00135581
-0.00209791
0.00352902
0.0157542
0.0314354
-0.0129335
-0.0342561
0.0214246
0.00205181
0.0027716
-0.00123857
-0.00153303
0.00306957
-0.000297972
-0.0799062
0.0395875
-0.0293869
0.0697057
-0.0698241
-0.0342179
0.0241358
-0.0379093
0.033112
-0.0650268
0.0384514
-0.000739214
-0.0192856
-0.0184265
-0.0152171
0.0434382
0.0102302
-0.0186852
-0.00187971
0.00534785
-0.0170539
-0.00237056
-0.00637477
-0.0299647
0.0024464
0.00236567
0.00120793
-0.00602
0.00414237
0.0043552
-0.00605117
-0.00284429
-0.000223528
0.00721019
-0.00122183
0.000743212
-0.000948717
0.000934813
-0.0157732
0.00939846
0.00226567
-0.0180389
0.00266538
0.000404198
0.0465082
0.0310354
-0.00327646
0.0174167
-0.0540302
-0.00317791
0.0359323
-0.0265526
-0.00620182
-0.00499294
0.0414393
-0.0396243
0.0339135
0.0173477
-0.00321184
-0.0480494
-0.0123314
0.00680228
0.0394426
0.0412483
-0.036232
-0.0143792
-0.0289419
0.00989333
0.0334278
-0.0129674
0.0334942
-0.034906
0.00217532
-0.0440846
-0.00271216
-0.00185264
0.000173881
-0.00128558
0.001963
0.00264551
-0.00408235
0.00393857
-0.00114181
-0.00752543
-0.000943629
-0.00461585
0.00844604
0.00193703
-0.00576722
0.0187716
-0.0188276
-0.00455987
-0.0087769
0.0196764
0.00787213
-0.00371871
0.00338785
-0.0639432
0.0374037
0.066127
0.0722869
-0.0248068
-0.081698
-0.0310547
0.0393983
-0.00226258
-0.017837
-0.00270147
-0.0116109
0.000188441
0.000369576
-0.00429072
0.0023121
0.00160904
-0.00343761
0.00248923
0.00131796
-0.00592473
-0.0018036
-0.00534
-0.00748025
0.00120935
-0.0152795
-0.00789752
-0.013786
-0.0145196
0.0172419
0.0110637
0.000788627
0.00675269
-0.0213273
-0.0191285
0.00539757
-0.0487779
0.0189753
-0.00244385
-0.0495481
0.005772
-0.00500175
0.00217843
-0.0368584
0.0325604
0.00211959
0.00191412
-0.0341043
0.0343686
0.00241845
-0.112433
-0.0276293
0.0352549
0.0360423
-0.0446962
0.0387557
-0.00524096
0.000838704
-0.00106223
0.00114874
-0.000310036
0.00659689
-0.00128177
0.061426
-0.0382487
-0.0341136
0.0109364
0.0551892
0.00766071
0.0544243
0.0152824
-0.0568199
0.0303424
0.0416928
-0.0176109
0.0138504
-0.0268183
0.0433103
-0.000246212
0.00139495
0.0133796
-0.0410787
-0.0429561
0.024796
0.0517542
0.0151331
-0.000799989
-0.0158128
0.0014797
0.00500058
-0.00162513
-0.0196644
0.00380894
0.0251347
0.00313855
-0.0178024
-0.00332017
0.00099716
0.00428574
-0.00161529
-0.0027113
4.08387e-05
-0.000355692
-9.76291e-05
0.00473907
0.000950778
0.00879646
-0.0101029
-0.0125121
0.0239443
-0.00876684
0.0623056
-0.0548369
-0.0199808
-0.000402073
-0.0259437
0.0301547
-0.0689964
-0.00163945
-0.0507728
-0.0255585
0.00733492
0.0316628
0.0261222
-0.0529722
0.020852
0.0475427
-0.0367319
0.0192933
-0.0324329
0.0186164
-0.00547667
0.0209989
-0.0314188
0.0297131
0.0450835
0.0149523
0.0454143
-0.000525992
-0.0451699
0.000281625
0.0503298
-0.00439367
-0.000521791
0.0499662
-0.00897854
0.00187491
-0.0428626
0.0356222
-0.0133103
0.0276544
0.0407128
-0.0114325
0.00910738
-0.0383877
0.0102755
0.0413462
-0.0109089
-0.0370178
-0.0138673
0.0394527
0.00826815
-0.0353926
-0.014869
0.0344294
-0.0192319
-0.0313889
0.0171689
0.0334519
-0.0195541
-0.03197
0.0322922
0.0180381
0.0302634
-0.0109314
-0.0373701
0.0298331
-0.0313491
-0.0211359
0.0211837
0.0297853
-0.0166238
0.0257513
-0.0398231
0.0352031
-0.00631136
-0.051422
0.0055916
0.0527605
-0.00693014
0.0145135
0.00135398
0.000531102
-0.00124969
-0.000635385
0.00210749
0.0057678
-0.00652132
0.000354448
-0.00242245
-0.00545743
-0.0185561
-0.0282718
0.0176503
0.000816516
-0.000914145
-2.94684e-05
0.000845985
-0.00327518
-0.032042
0.0238016
-0.0278319
-0.00276154
0.0273182
0.00192114
-0.0290877
-0.000665345
-0.00629981
0.00640787
0.0057819
-0.00588995
0.0106998
-0.00560322
-0.0113963
0.00337629
0.0137313
0.000194592
-0.000247167
-0.00180006
-0.000361583
0.000556175
-0.00060875
0.000270154
-0.000383805
0.00165515
-0.000263953
0.000534107
-0.000647759
0.00110615
-8.39463e-05
0.000938603
-0.0010109
0.00211705
-0.00109484
0.00218508
-0.000194278
-0.00570951
-0.000800669
0.00298575
-0.000994947
0.0154679
0.0329425
-0.0416081
0.011697
-0.0425751
0.0463461
0.048088
-0.00344855
-0.0135043
-0.0249579
0.0134105
0.0250517
-0.00599638
0.0265506
-0.0340585
0.00321743
-0.0341717
0.0261492
-0.0267196
-0.00858794
0.00915832
0.0260183
-0.00785938
0.00799035
-0.00910417
-0.0270587
0.00944327
0.0261936
-0.00750559
0.00733023
0.0267996
-0.00643125
0.0058253
-0.0058092
0.0278257
0.00478308
0.0274893
-0.027311
-0.00598744
-0.00636943
0.0296076
0.0045875
0.0269855
-0.00586573
-0.0266683
-0.00707392
-0.0269235
-0.0072504
-0.0273499
-0.007433
-0.0284172
-0.00752069
-0.0285052
-0.00901617
-0.00547539
0.0316253
0.00345768
0.0260828
-0.00457268
-0.00947783
-0.0273054
0.0097245
-0.0293771
-0.00860588
-0.00984866
-0.0291652
0.0117084
-0.00321349
0.0324917
0.00234708
0.0265379
-0.0036686
-0.0309741
-0.00825166
0.0334629
-0.00218141
0.0012102
-0.00113434
0.0344785
0.000118777
0.0271214
-0.00276486
0.0277792
-0.00179211
-0.0101215
-0.0295086
0.0104649
-0.0314979
-0.00959769
-0.000112216
0.0355188
-0.000928052
0.0285067
-0.000839728
-0.0104222
-0.0299354
0.0108489
-0.031891
-0.010029
0.000863347
0.0365668
-0.00191133
0.0292691
0.000100952
-0.0108516
-0.030217
0.0111332
-0.0321198
-0.0106228
0.00178864
0.0375679
-0.00278978
0.0300459
0.00101181
-0.0113244
-0.0304463
0.0115537
-0.0323199
-0.0111242
0.00262981
0.038547
-0.00360893
0.0308358
0.00183992
-0.0118107
-0.0305138
0.0118781
-0.0323561
-0.0117745
0.0034135
0.0394173
-0.00428384
0.0316065
0.0026428
-0.0122375
-0.0306077
0.0123313
-0.0322992
-0.0122944
0.00409857
0.0402334
-0.00491458
0.0323973
0.00330781
-0.012647
-0.0297283
0.0117676
-0.0316744
-0.0132718
0.00475837
0.0408567
-0.00538168
0.0329859
0.00416974
-0.0132141
-0.0295645
0.0130503
-0.0313884
-0.0135001
0.00535506
0.0413261
-0.00582454
0.0333782
0.0049628
-0.0134914
-0.0285159
0.0124428
-0.0303436
-0.0145363
0.00743174
0.0399997
-0.0061053
0.0350527
0.0057572
-0.0138631
-0.0281124
0.0134596
-0.0298084
-0.0143983
0.0076365
0.0376718
-0.00530857
0.036204
0.00648522
-0.0140581
0.0133579
-0.0274122
-0.0294969
-0.0143696
0.00647483
-0.00648613
0.0376831
0.0364836
0.00619524
-0.0265085
0.0273504
0.0126178
-0.0259737
0.0128231
-0.0138319
0.0135194
-0.0270997
-0.014874
-0.0284548
-0.027248
0.0274917
0.0128065
0.0125452
-0.0266834
0.0266597
0.012355
0.012576
-0.0265305
0.0263044
0.0117798
0.0120074
-0.0260019
0.0256462
0.0112046
0.0114357
-0.0252815
0.0264719
0.010518
0.0108296
-0.0261779
0.0256081
0.0100131
0.0100184
-0.0264442
0.0263711
0.00806337
0.00832229
-0.0259392
0.0260959
0.00566861
0.00776218
-0.026083
0.0268175
0.00385307
0.00479594
-0.0276376
0.0285239
0.00146082
0.00263751
-0.0294419
0.0303749
-0.000814278
0.000292255
-0.0312907
0.0321843
-0.00280486
-0.00184388
-0.0330297
0.0338274
-0.00440664
-0.00363523
-0.0345592
0.0352311
-0.00558645
-0.0050156
-0.0358298
0.0363682
-0.00636293
-0.00598041
-0.0367211
0.0378249
-0.00641233
-0.00645822
0.0379791
-0.00664035
0.00638482
-0.00616368
0.0374619
0.00614006
0.0367283
0.0337757
-0.0325389
0.00452042
-0.0347173
0.0351747
0.00573786
0.00554362
0.0318823
-0.0310137
0.00330112
0.00430617
0.0303336
-0.0296367
0.00194587
0.00262776
0.0289518
-0.0282848
0.000344743
0.00115507
0.0276696
-0.0271182
-0.00139119
-0.000514203
0.0266654
-0.0263275
-0.00310275
-0.00224487
0.026132
-0.0260911
-0.0046135
-0.00386414
0.0267479
-0.0269329
-0.00580248
-0.00520896
0.0277703
-0.0279483
-0.00707241
-0.0062365
0.0283544
-0.0288057
-0.00706947
-0.00702684
0.0297236
-0.0304118
-0.0079177
-0.00809819
0.0300045
-0.0303666
-0.00923561
-0.00865894
0.030648
-0.0308569
-0.010414
-0.00974759
0.0309983
-0.03108
-0.0116928
-0.0109828
0.0311044
-0.0314023
-0.0129739
-0.01227
0.0313902
-0.0317675
-0.0141589
-0.0135123
0.0315599
-0.0308017
-0.0151278
-0.0146059
-0.0304073
-0.0152685
-0.025351
0.0128968
0.0384461
-0.00663066
0.00560924
0.0357055
-0.0147064
0.0142532
-0.0280016
-0.015216
-0.0298976
-0.013555
0.0127205
-0.0245165
-0.0264015
-0.0246352
0.0247151
0.0125379
0.0242217
-0.023654
0.0123291
0.0124096
-0.0247737
0.025001
0.0125793
0.0124866
-0.025074
0.0250422
0.0123868
0.0125029
-0.024917
0.0247193
0.0119775
0.0121325
-0.0244818
0.0242411
0.0114453
0.0116732
-0.0240428
0.0239252
0.0106356
0.0110279
-0.0239255
0.0245574
0.0093812
0.0100181
-0.0243709
0.02483
0.00760425
0.00850883
-0.0260924
0.0263748
0.00538624
0.00649978
-0.0270254
0.0279529
0.00292551
0.00414531
-0.0289255
0.0299274
0.000458992
0.00166489
-0.030923
0.0319039
-0.00179515
-0.000703375
-0.0328395
0.0337288
-0.00369414
-0.00277948
-0.0345501
0.0353076
-0.00516421
-0.00445654
-0.0359874
0.0365974
-0.00619641
-0.0056954
-0.0371297
0.0375947
-0.0068279
-0.00651275
-0.0379634
0.0384674
-0.00691633
-0.00682688
-0.00686161
0.00655256
0.037771
-0.00703182
0.0386163
-0.0385369
0.039028
-0.00712176
-0.00670988
0.033532
-0.0329782
0.00518413
0.0337675
0.0053737
-0.00620118
0.00629553
0.0356111
0.0370797
0.0323631
-0.0314826
0.00363994
0.00492851
0.0305615
-0.0299466
0.00268624
0.00338503
0.0293397
-0.0287386
0.00134483
0.00202082
0.0281762
-0.0276621
-0.000169329
0.000592651
0.0272272
-0.0268867
-0.00173171
-0.000949135
0.0266673
-0.0265822
-0.00318779
-0.0024643
0.0266433
-0.0268525
-0.00440433
-0.00380303
0.0271919
-0.0276485
-0.00534585
-0.0048696
0.0281867
-0.0291524
-0.00610671
-0.00569825
0.0297429
-0.0299377
-0.00687465
-0.00643638
0.0307746
-0.0308884
-0.00780395
-0.00726131
0.0312568
-0.0315548
-0.00893765
-0.00829049
0.0317921
-0.0319776
-0.0102285
-0.00951028
0.0321176
-0.0322176
-0.0115928
-0.0108428
0.0322773
-0.0322955
-0.0129557
-0.0122103
0.0322669
-0.0321854
-0.0142404
-0.0135408
0.0320458
-0.0318359
-0.0153378
-0.0147456
0.0314701
-0.0309591
-0.015727
-0.0156342
-0.0228996
0.0119661
-0.0155774
0.0145723
-0.0288926
-0.0305045
-0.016032
0.0133981
-0.0268274
-0.0070561
0.0390523
0.0342261
0.00583695
0.0127567
-0.013291
-0.0239823
0.0118017
-0.0219446
-0.0155415
0.0144481
-0.0277992
-0.0163352
-0.0297107
-0.0262944
0.0400288
-0.0398991
-0.00725145
0.0397129
-0.00674018
0.00665035
-0.00656347
0.0355242
0.00597052
0.0349059
-0.0200273
0.0212202
0.0106088
0.0110721
-0.0121254
-0.0208912
0.0190084
-0.0115798
0.00985414
-0.0172827
0.0100532
-0.0220191
0.0225936
0.0117547
0.0111672
-0.0228866
0.0231124
0.012312
0.0121166
-0.0232678
0.0233366
0.0125105
0.0123313
-0.023425
0.0234258
0.0123861
0.0124145
-0.0233651
0.0232747
0.0120679
0.0121932
-0.023193
0.0231603
0.0114779
0.0117549
-0.0232138
0.0233853
0.0104641
0.0109745
-0.0236975
0.0241607
0.00891804
0.00970589
-0.0247707
0.0255205
0.00685444
0.00789884
-0.0263824
0.0273426
0.00442602
0.00563786
-0.0283635
0.0294273
0.00186166
0.00312448
-0.0304954
0.0315576
-0.000603193
0.000596778
-0.0325813
0.0335629
-0.00277667
-0.00172711
-0.0344763
0.0353243
-0.00454216
-0.00369294
-0.0360897
0.0367796
-0.00585407
-0.00522188
-0.0373841
0.0379132
-0.00672549
-0.00629998
-0.0383631
0.0387443
-0.0072091
-0.00696262
-0.0391351
0.039357
-0.00713822
-0.00721773
-0.00725199
-0.0065726
0.00635213
0.0379915
0.00665992
-0.00711811
0.0395105
0.0387036
0.0368684
0.0322784
-0.0316813
0.00458694
-0.0327475
0.0331021
0.00548238
0.00490464
0.0307156
-0.0303396
0.00326392
0.00396288
0.0296677
-0.0291447
0.00216326
0.00271313
0.0286479
-0.0281849
0.000881855
0.00152396
0.0277849
-0.0274598
-0.00049443
0.000192707
0.0272355
-0.0271249
-0.00184229
-0.00117352
0.0271431
-0.0272965
-0.00303443
-0.00244607
0.0275794
-0.0279828
-0.00400087
-0.00352012
0.0284769
-0.0290397
-0.00478309
-0.00437555
0.0296271
-0.0302113
-0.00552249
-0.00511085
0.0307586
-0.0312533
-0.00637995
-0.00588908
0.0316753
-0.0320376
-0.0074416
-0.0068393
0.0323344
-0.0325845
-0.00868749
-0.00799373
0.032793
-0.0329711
-0.0100504
-0.00930183
0.0331217
-0.0332487
-0.0114657
-0.0106922
0.0333499
-0.0334235
-0.012882
-0.0121092
0.0334637
-0.0334649
-0.0142392
-0.0135006
0.0334177
-0.0333123
-0.0154432
-0.0147928
0.0330779
-0.0324539
-0.016351
-0.0158686
0.032052
-0.0320012
-0.016386
-0.016434
-0.0158761
0.0153869
-0.0292216
-0.0313585
-0.0165188
-0.0127705
-0.0233372
0.0138808
-0.02626
-0.00689913
0.0394939
0.0336121
0.00546048
-0.011004
-0.0214671
0.0146125
-0.0270248
-0.00582534
-0.0157201
0.0249217
0.0155327
-0.0163957
-0.0304955
0.014528
-0.0282168
-0.0105966
0.0166073
0.00772062
-0.00897226
0.00415756
-0.0251841
-0.0162378
0.0176467
0.00844517
0.00800852
-0.00763897
-0.0185486
0.0193589
0.00979847
0.00915133
-0.0199675
0.0204535
0.0112687
0.0105586
-0.0209417
0.0212806
0.0119731
0.0116284
-0.0214991
0.0217305
0.0122791
0.0121127
-0.0218866
0.0219932
0.0122795
0.0122584
-0.0220808
0.0221863
0.0119624
0.0121057
-0.0223446
0.0225915
0.0112311
0.0115966
-0.0229503
0.0234424
0.00997203
0.0106156
-0.0240699
0.0248356
0.00815233
0.00907842
-0.0257189
0.0267079
0.00586543
0.00701556
-0.0277689
0.0288865
0.00330844
0.00457685
-0.0300216
0.0311623
0.000720931
0.00198941
-0.0322713
0.0333435
-0.00167546
-0.000512184
-0.0343501
0.0352916
-0.0037182
-0.00273368
-0.0361473
0.0369228
-0.00531769
-0.00454856
-0.0376056
0.0382053
-0.00645378
-0.00590473
-0.0387163
0.0391497
-0.00715894
-0.00681091
-0.0395054
0.0397943
-0.00749794
-0.0073183
-0.0400761
0.0404864
-0.00754848
-0.00749962
-0.0404599
0.0404313
-0.0072228
-0.00722553
-0.0405853
0.0403638
-0.00667763
-0.0068942
-0.00642588
0.00654329
0.039393
0.00686504
-0.00715408
0.0406529
0.0399331
-0.00628574
0.00660532
0.0376719
0.0389611
-0.00650021
0.00612462
0.0358998
0.0369735
-0.00594207
0.00545891
0.0340953
0.0350885
0.0323585
-0.0317785
0.00490229
-0.0333399
0.0326508
0.00614803
0.00447913
0.031218
-0.0306807
0.00404959
0.00434418
0.0299679
-0.0295273
0.00282339
0.00325008
0.029102
-0.0287038
0.00176509
0.0022878
0.0283517
-0.0280582
0.000588354
0.00117186
0.0278466
-0.0277281
-0.000612895
-1.8964e-05
0.0277191
-0.027828
-0.00173332
-0.00118254
0.0280548
-0.0283975
-0.0026918
-0.00221927
0.0288344
-0.0293492
-0.00348606
-0.0030832
0.0299039
-0.0304765
-0.00421053
-0.00382082
0.0310274
-0.0315416
-0.00500825
-0.00455996
0.0319965
-0.0323924
-0.00598408
-0.0054342
0.0327265
-0.0330127
-0.00715533
-0.00650519
0.0332565
-0.0334733
-0.00847074
-0.00774996
0.0336678
-0.0338488
-0.00986934
-0.0091073
0.0340168
-0.0341747
-0.0113078
-0.0105242
0.0343193
-0.0344495
-0.0127518
-0.0119646
0.0345591
-0.0346434
-0.0141549
-0.013391
0.034693
-0.0346985
-0.0154377
-0.0147432
0.0346479
-0.0345287
-0.0164702
-0.0159192
0.0342035
-0.0335228
-0.0170667
-0.0167592
0.0334826
-0.0329214
-0.0169569
-0.016559
-0.0157651
0.0150623
-0.0297926
-0.0320165
-0.0166701
-0.0122008
-0.0221405
0.0136072
-0.0252546
-0.00927249
-0.0180199
0.0139484
-0.0264452
0.0412409
-0.041263
-0.00665553
0.0408763
-0.00678943
0.00599071
-0.00606852
0.0341731
0.00527878
0.0333627
-0.00728493
-0.0140383
0.0141622
-0.0273167
-0.011204
-0.00365821
-0.0118246
0.0139772
0.005568
-0.0150128
0.0139899
-0.0287698
-0.0157184
-0.0313108
-0.0102508
0.00258373
-0.0237777
-0.0151412
0.0160513
0.00753513
0.00684452
-0.0168625
0.0174196
0.00924138
0.00834012
-0.0180257
0.0186712
0.0106232
0.00995248
-0.0192234
0.0196906
0.0115058
0.0110762
-0.0200779
0.0204082
0.0119489
0.0117255
-0.0207016
0.0209893
0.0119917
0.011965
-0.0212997
0.0216671
0.0115949
0.0117953
-0.0221159
0.0226725
0.0106744
0.0111479
-0.0233445
0.0241425
0.00917404
0.00994365
-0.025053
0.0260724
0.00713293
0.00816787
-0.0271704
0.028335
0.00470081
0.00591758
-0.0295283
0.0307383
0.00209851
0.00338355
-0.0319272
0.0330867
-0.000438604
0.000800494
-0.0341854
0.035221
-0.00271106
-0.00161085
-0.0361695
0.0370349
-0.00458368
-0.00368215
-0.0378017
0.0384783
-0.00599426
-0.00531534
-0.0390568
0.0395486
-0.00694561
-0.00648327
-0.0399523
0.0402799
-0.00748659
-0.00721453
-0.0405344
0.0407272
-0.00769078
-0.00757277
-0.0408639
0.0409531
-0.0076377
-0.00763627
-0.0412094
0.0411021
-0.00711549
-0.0074819
-0.00705508
-0.00636134
0.00595882
0.0397956
0.00658624
-0.00663588
0.0407025
0.040158
-0.00638622
0.00623294
0.0378251
0.0385338
-0.00645208
0.00648922
0.0358627
0.0367543
0.0355092
0.031636
-0.0311287
0.00439497
-0.0315467
0.0324225
0.00527227
0.00456842
0.0306455
-0.0299395
0.00334357
0.00386098
0.0295885
-0.0292566
0.00249146
0.00289913
0.0289595
-0.0287086
0.00151412
0.00199074
0.0285212
-0.0284095
0.000476652
0.000984512
0.0283878
-0.0284653
-0.000535472
-4.06377e-05
0.0286449
-0.0289285
-0.00144967
-0.00100293
0.0293021
-0.0297557
-0.00223813
-0.00184575
0.0302586
-0.0307925
-0.00295221
-0.0025803
0.0313208
-0.0318281
-0.00370321
-0.00329253
0.0322877
-0.0326969
-0.004599
-0.00410039
0.0330473
-0.0333489
-0.00568249
-0.00508384
0.0336068
-0.033836
-0.00692616
-0.00624726
0.0340432
-0.0342405
-0.00827349
-0.00754268
0.0344307
-0.0346204
-0.00967969
-0.00891705
0.0348085
-0.0349979
-0.0111185
-0.010336
0.0351848
-0.0353691
-0.0125675
-0.0117777
0.0355449
-0.0357088
-0.013991
-0.0132153
0.0358516
-0.0359658
-0.0153234
-0.0146004
0.036039
-0.0360584
-0.0164509
-0.0158459
0.0360074
-0.0358726
-0.0172016
-0.0168101
0.0351454
-0.0347635
-0.0173388
-0.0172861
0.0343948
-0.0336783
-0.0164349
-0.0170388
-0.0147455
0.0138253
-0.0303906
-0.0330295
-0.0153943
-0.0113555
-0.0200575
0.0128904
-0.0241967
-0.00638429
0.0406247
0.0325631
0.00513813
-0.00882118
-0.0164837
-0.00744372
-0.0151566
-0.00718202
-0.0143
0.0130689
-0.0253519
0.0131177
-0.0264445
-0.013573
-0.000335995
-0.00166798
-0.000543181
-0.0113618
-0.00470727
-0.0121173
0.0127642
-0.0277087
-0.0136508
0.0122575
-0.0289972
-0.0143164
-0.032364
-0.0222428
-0.0116964
0.0129712
0.00429327
0.0113627
-0.0118743
0.000175656
0.00224998
-0.0140174
0.0147788
0.00677372
0.00579831
-0.0155137
0.0162262
0.00852884
0.00760523
-0.0169014
0.0175367
0.00998787
0.0092773
-0.0181194
0.0186574
0.0109678
0.0104935
-0.0191571
0.019641
0.011465
0.0112259
-0.0201279
0.0206474
0.0114722
0.0114781
-0.0212197
0.0218722
0.0109424
0.011223
-0.0226152
0.0234656
0.00982402
0.0104049
-0.0244163
0.0254704
0.00811999
0.00899291
-0.0266035
0.0278089
0.00592754
0.00703474
-0.0290516
0.030321
0.00343135
0.0046749
-0.0315793
0.0328179
0.000859889
0.00212533
-0.0340022
0.0351284
-0.00156486
-0.000383782
-0.036169
0.0371259
-0.00366787
-0.00265148
-0.0379798
0.038738
-0.00534188
-0.00453615
-0.0393901
0.0399465
-0.00655067
-0.00596735
-0.0404043
0.040776
-0.00731733
-0.00694112
-0.0410641
0.0412809
-0.00770338
-0.00750257
-0.0414321
0.0415286
-0.00778732
-0.00772396
-0.0415774
0.0415874
-0.00764763
-0.0076851
-0.0415652
0.0418021
-0.00735236
-0.00745977
-0.0416804
0.0416324
-0.00660753
-0.00693338
-0.040984
0.0409641
-0.00636438
-0.00614103
-0.00590459
0.00605691
0.0405502
0.00654171
-0.00649384
0.0409162
0.0412618
-0.00598333
0.00633187
0.039447
0.0402316
-0.0062547
0.00613862
0.0379412
0.0386109
-0.00598789
0.00580665
0.0360439
0.0369051
-0.00595802
0.00574892
0.0343822
0.0353578
-0.00545813
0.00520218
0.0328191
0.0336535
0.0320772
-0.0313755
0.00457056
-0.0322859
0.0323278
0.00516025
0.00492948
0.0310642
-0.0306732
0.00400391
0.00425713
0.0301859
-0.0299101
0.00306781
0.0033737
0.0296662
-0.0294569
0.00228216
0.0026552
0.0292986
-0.0292005
0.00141599
0.00183244
0.0291747
-0.0292304
0.000532352
0.000958712
0.0293708
-0.0296009
-0.00030541
9.97988e-05
0.0299113
-0.0302972
-0.00106376
-0.000692497
0.0307348
-0.031211
-0.00176195
-0.00140818
0.0316939
-0.0321694
-0.0024767
-0.00209734
0.0326103
-0.0330108
-0.00330272
-0.0028517
0.0333582
-0.0336592
-0.00429797
-0.00375296
0.0339153
-0.03414
-0.00545771
-0.00482778
0.0343409
-0.0345308
-0.00673622
-0.0060464
0.0347151
-0.0349025
-0.00808616
-0.00735838
0.0350941
-0.0352949
-0.00947883
-0.00872545
0.0355035
-0.0357225
-0.0108994
-0.0101275
0.0359485
-0.0361824
-0.0123336
-0.0115517
0.0364185
-0.0366551
-0.0137544
-0.0129792
0.0368838
-0.0370991
-0.0151081
-0.0143718
0.0372886
-0.0374417
-0.0162977
-0.0156564
0.0375425
-0.0375764
-0.0171677
-0.0167093
0.0375207
-0.0373587
-0.0175008
-0.0173418
0.0370788
-0.0364659
-0.0170478
-0.0173188
0.0357603
-0.0348305
-0.0152462
-0.0160999
-0.0133101
0.0119447
-0.0309986
-0.033995
-0.0141456
-0.010461
-0.0184176
-0.0112711
-0.00114639
-0.00808918
-0.0155765
0.0416859
-0.0420219
-0.00602838
0.0414905
-0.00629844
0.00562648
-0.00568168
0.0328743
0.00539842
0.0325559
0.0118873
-0.023015
0.0119202
-0.0241545
-0.00543615
-0.0135712
0.011817
-0.0254973
0.011587
-0.0270382
0.0112449
-0.0282974
-0.0115946
0.0105329
-0.0299369
-0.012879
-0.0327105
-0.0208166
-0.012383
0.0120937
0.000464915
-0.00235133
0.00210445
-0.0110242
0.0125982
-0.0129837
-0.00196583
-0.000931198
-0.0121741
0.0129925
0.00347489
0.00216957
-0.0138283
0.0145217
0.00608037
0.0049625
-0.0151621
0.0158084
0.00788254
0.00696478
-0.016452
0.0170944
0.00934541
0.00863373
-0.0177287
0.0183636
0.0103329
0.00985926
-0.019003
0.0196669
0.0108012
0.0105864
-0.0203665
0.0211257
0.010713
0.0107784
-0.021953
0.0228673
0.0100281
0.0103957
-0.0238656
0.0249567
0.00873296
0.0094066
-0.0261222
0.0273606
0.00688163
0.00782738
-0.0286412
0.0299566
0.00461217
0.00575412
-0.0312703
0.0325742
0.00212745
0.00336113
-0.0338324
0.0350398
-0.000347483
0.000867135
-0.0361659
0.0372104
-0.00260938
-0.00150988
-0.0381509
0.0389923
-0.00450929
-0.00359199
-0.0397212
0.040347
-0.00596764
-0.00526505
-0.0408646
0.0412862
-0.00697227
-0.00648498
-0.0416135
0.0418592
-0.00756306
-0.00726835
-0.0420294
0.0421359
-0.00780989
-0.00767275
-0.0421867
0.0421916
-0.00779215
-0.0077748
-0.0421588
0.0420953
-0.00758412
-0.00765233
-0.042009
0.041904
-0.00724734
-0.00737351
-0.0419624
0.0419699
-0.00661501
-0.00699178
-0.00619303
-0.00604358
0.00579179
0.040802
0.00572813
-0.0060953
0.0412834
0.0409463
-0.00616001
0.00614675
0.0394603
0.0398634
-0.00609937
0.00601836
0.0380222
0.0386583
-0.00590656
0.0057662
0.0361843
0.0370169
-0.00606058
0.0058276
0.0346152
0.0350634
0.0337994
0.0320967
-0.0318274
0.00430123
-0.0323243
0.0325363
0.00494823
0.00470193
0.0312726
-0.0307607
0.003492
0.0037023
0.0305509
-0.0303713
0.0028882
0.00316395
0.0302346
-0.0301459
0.00219345
0.00251848
0.0301159
-0.0301516
0.00145166
0.0018025
0.0302571
-0.030437
0.000712226
0.00106422
0.0306852
-0.0310003
9.61642e-06
0.000348029
0.0313645
-0.0317693
-0.000658879
-0.000328291
0.0321887
-0.0326112
-0.00133951
-0.000988805
0.0330112
-0.0333818
-0.00210608
-0.00169733
0.0337079
-0.0339924
-0.00301822
-0.00252558
0.0342333
-0.0344418
-0.00408949
-0.00351203
0.0346239
-0.0347925
-0.00528912
-0.00464573
0.0349541
-0.0351188
-0.00657155
-0.00588474
0.0352896
-0.035473
-0.00790281
-0.00718756
0.0356688
-0.0358815
-0.00926613
-0.00852958
0.0361091
-0.0363548
-0.0106537
-0.0098999
0.0366152
-0.0368924
-0.0120564
-0.0112913
0.0371811
-0.0374814
-0.013454
-0.0126906
0.0377856
-0.0380904
-0.0148032
-0.0140677
0.0383841
-0.0386589
-0.0160229
-0.0153627
0.0388986
-0.039089
-0.0169772
-0.0164697
0.0392088
-0.0392397
-0.0174699
-0.017222
0.0391605
-0.0389511
-0.0172572
-0.0173979
0.0383013
-0.0374266
-0.0161209
-0.0167497
0.0367418
-0.0360516
-0.0135693
-0.0148304
-0.000366722
-0.00150933
-0.0102413
-0.00962412
-0.0109604
0.0100053
-0.0317554
-0.0347069
-0.0123051
-0.0093331
-0.0171737
-0.00559737
0.0409925
0.033139
0.00479577
0.00323631
-0.0130893
-0.00313073
0.010646
-0.0217407
0.00327395
-0.0110619
-0.00657993
-0.0144327
0.0105213
-0.0228588
-0.00333254
-0.011748
0.0102698
-0.0241801
0.00990233
-0.0256956
0.00942146
-0.027186
0.00863295
-0.0285646
-0.00929298
0.0079272
-0.0303896
-0.0104227
-0.0335772
-0.0195037
-0.0161911
0.0150455
-0.000820223
-0.0046219
-0.0132897
0.00482237
0.0173834
-0.0177463
-0.00425904
-0.00193842
-0.0144176
0.0140431
0.00083939
-0.000303281
-0.0140044
0.014115
0.00336435
0.00220826
-0.0146193
0.0151878
0.00551188
0.00445818
-0.0157253
0.0163078
0.00730007
0.00642726
-0.0169271
0.0175858
0.0086867
0.00801443
-0.0182782
0.0190123
0.00959872
0.00916688
-0.019788
0.0206198
0.00996931
0.00981074
-0.0215099
0.0224744
0.00974849
0.00988829
-0.02351
0.0246277
0.00891041
0.00936012
-0.0258132
0.0270694
0.00747683
0.00822106
-0.0283703
0.0297119
0.00554004
0.00652642
-0.0310606
0.0324093
0.0032635
0.00440544
-0.0337225
0.0349941
0.000855822
0.00204797
-0.0361917
0.0373132
-0.00146893
-0.000330525
-0.0383329
0.0392535
-0.00352997
-0.00252958
-0.0400583
0.0407548
-0.00520577
-0.00439678
-0.0413354
0.0418112
-0.00644351
-0.00584565
-0.0421826
0.0424624
-0.00725208
-0.00685636
-0.0426564
0.0427771
-0.00768376
-0.0074623
-0.0428332
0.0428355
-0.00781219
-0.00772889
-0.0427935
0.0427152
-0.00771388
-0.00773281
-0.0426097
0.0424822
-0.00745658
-0.00754684
-0.0423405
0.0421874
-0.00709424
-0.00723177
-0.0420296
0.0420807
-0.00666619
-0.00683397
-0.0421537
0.0419843
-0.00585899
-0.00626598
-0.0412518
0.0411307
-0.00547621
-0.00556597
-0.00522188
0.00547909
0.0410262
0.00562058
-0.00546313
0.0409732
0.0413912
-0.00549662
0.00590251
0.0403961
0.0409288
-0.00593805
0.00594602
0.0394523
0.0398278
-0.00592542
0.00587663
0.038071
0.0386789
-0.00580124
0.00570023
0.0362853
0.0370923
-0.00557345
0.005831
0.0343576
0.0351902
-0.00564383
0.00537209
0.033146
0.0339866
-0.00473039
0.00485401
0.0330154
0.0331976
0.0333026
-0.0327983
0.00444393
-0.033483
0.0338442
0.00449278
0.00461537
0.0324613
-0.0319017
0.00374163
0.00436493
0.0317004
-0.0315269
0.00331855
0.003501
0.0313924
-0.0312988
0.0027946
0.00302945
0.0312543
-0.0312632
0.00220237
0.002474
0.0313295
-0.0314565
0.00157866
0.00186871
0.0316407
-0.0318818
0.000953391
0.00124842
0.0321671
-0.0324912
0.000333672
0.000633355
0.0328338
-0.0331857
-0.000307015
1.43415e-05
0.0335257
-0.0338467
-0.00101852
-0.000648814
0.0341332
-0.0343852
-0.00185402
-0.00141084
0.0345981
-0.0347797
-0.00283666
-0.00231266
0.034934
-0.0350724
-0.00395106
-0.00335777
0.0352017
-0.0353322
-0.00515862
-0.0045164
0.0354685
-0.0356177
-0.00642233
-0.00574844
0.0357813
-0.0359642
-0.00771997
-0.00702398
0.0361655
-0.0363894
-0.00904226
-0.00832822
0.0366337
-0.0369021
-0.0103853
-0.00965559
0.0371914
-0.0375046
-0.0117431
-0.0110021
0.0378371
-0.0381908
-0.0131003
-0.0123581
0.0385584
-0.0389394
-0.0144223
-0.0137
0.0393229
-0.0397039
-0.0156419
-0.0149792
0.0400667
-0.0403996
-0.0166443
-0.0161069
0.0406816
-0.0408952
-0.0172564
-0.0169401
0.0410156
-0.0410196
-0.0172532
-0.0172775
0.0408835
-0.0405931
-0.0164113
-0.0168858
0.0398532
-0.0388333
-0.0145892
-0.0155702
0.0378664
-0.0364687
-0.0118204
-0.013272
-0.00290677
0.000231468
-0.00756599
-0.00925693
-0.00837841
0.00719286
-0.0323917
-0.035755
-0.00909207
-0.00778442
-0.0159692
0.00916432
-0.0203837
0.00568286
-0.0186476
-0.00478158
-0.0138895
0.00628266
0.0041274
-0.0103669
-0.00475508
-0.0130102
0.0088735
-0.0214625
0.0418681
-0.0418149
-0.00552943
0.0413218
-0.00491682
0.00492497
-0.00529219
0.0333826
0.00478471
0.0339845
-0.00119132
-0.0103252
0.0084725
-0.0227503
0.0079714
-0.0242455
0.00739055
-0.0259436
0.00676576
-0.0274032
0.00568134
-0.0288781
-0.00520972
-0.0197391
0.00630127
-0.0247554
0.0240839
-0.00453818
0.00593155
-0.0261889