/*--------------------------------*- C++ -*----------------------------------*\
  =========                 |
  \\      /  F ield         | OpenFOAM: The Open Source CFD Toolbox
   \\    /   O peration     | Website:  https://openfoam.org
    \\  /    A nd           | Version:  10
     \\/     M anipulation  |
\*---------------------------------------------------------------------------*/
FoamFile
{
    format      ascii;
    class       volScalarField;
    location    "0.5";
    object      p;
}
// * * * * * * * * * * * * * * * * * * * * * * * * * * * * * * * * * * * * * //

dimensions      [0 2 -2 0 0 0 0];

internalField   nonuniform List<scalar> 
25879
(
0.252556
0.255028
0.254657
0.252491
0.149059
0.147371
0.151347
0.152956
0.1671
0.167817
0.102307
0.121909
0.074183
0.120477
0.161068
0.322462
0.211053
-0.0772855
-0.25097
0.854047
0.842796
0.301879
0.435412
0.333009
0.335279
0.340554
0.337352
0.327773
0.331144
0.328703
0.328637
-0.0352241
-0.0693009
0.0629919
0.170413
0.177051
0.177885
0.18169
0.180602
-0.0826284
-0.0471265
0.0186259
0.44014
0.453943
0.46016
0.0322553
0.0342374
-0.201797
-0.181694
-0.351588
0.107065
0.179511
-1.19226
-0.90933
0.00868009
0.00780085
0.00929059
0.59428
0.605299
0.570032
0.55338
0.513389
0.514025
0.00301163
0.00400046
0.00536328
-0.739382
-0.697002
-0.209599
0.166832
0.117731
0.384702
0.387464
0.391191
0.47178
0.614492
0.541593
0.260316
0.261064
0.258065
0.471585
0.455833
0.906605
0.844981
0.836739
0.389777
0.398099
0.385719
0.236906
0.239913
0.170849
0.175682
0.147054
0.324203
0.323233
0.151485
0.151091
0.149034
0.174551
0.173423
0.172845
0.171376
0.237661
0.235631
0.233846
0.36877
0.366328
0.137207
0.191225
0.179074
0.180482
0.195589
0.196093
0.0349778
0.0347038
0.334986
0.322804
0.123655
0.137958
0.177061
0.186281
0.0430539
0.061281
-0.0424527
-0.0139874
0.163199
0.153644
0.234205
0.22331
0.186388
0.212247
0.141479
0.588006
0.571002
0.561644
0.574271
0.255799
0.258164
0.15969
0.00926131
0.0900055
0.0896812
0.0911184
0.0921996
0.0936749
0.0952912
0.096592
0.0980906
0.0994875
0.100862
0.102276
0.103635
0.105031
0.1064
0.107782
0.109154
0.110529
0.1119
0.113273
0.114642
0.116013
0.117379
0.118748
0.12011
0.121477
0.12284
0.124211
0.125585
0.126947
0.128285
0.12969
0.131255
0.132706
0.133786
0.134806
0.136199
0.137741
0.134548
0.136099
0.136397
0.0899954
0.0886183
0.0884798
0.137629
0.134121
0.135282
0.13147
0.132831
0.128598
0.130064
0.125807
0.127135
0.123069
0.124452
0.120302
0.121686
0.117544
0.118925
0.114795
0.116172
0.112047
0.113424
0.109298
0.110675
0.106545
0.107926
0.103787
0.105177
0.101019
0.102423
0.0982634
0.0996485
0.0955061
0.0968516
0.0927268
0.0940927
0.0914544
0.0934067
0.0903288
0.0918272
0.0963174
0.0950283
0.0990621
0.097718
0.101794
0.100387
0.104538
0.10314
0.107287
0.105899
0.110037
0.108652
0.112787
0.111402
0.115536
0.11415
0.118286
0.1169
0.12104
0.119651
0.123786
0.122401
0.126545
0.125165
0.129185
0.127834
0.132465
0.130808
0.13355
0.0884898
0.0876162
0.0875755
0.139032
0.13911
0.139173
0.140401
0.140472
0.137606
0.134523
0.135933
0.0903673
0.0885321
0.0888208
0.0874411
0.0875233
0.13674
0.137887
0.134196
0.135576
0.131575
0.132829
0.128827
0.13024
0.126053
0.127473
0.123305
0.124674
0.120564
0.121933
0.11783
0.119196
0.11509
0.11646
0.112346
0.113718
0.109599
0.110973
0.106845
0.108224
0.10408
0.105467
0.1013
0.1027
0.0984958
0.0999007
0.0956948
0.0970628
0.0929481
0.0943258
0.090245
0.0916448
0.0875239
0.0887532
0.0932811
0.0917154
0.0961203
0.0947414
0.0989033
0.0975522
0.101673
0.100293
0.104424
0.103048
0.107173
0.105803
0.109919
0.108551
0.11266
0.111295
0.115397
0.114033
0.11813
0.116769
0.120866
0.119503
0.123599
0.122237
0.126365
0.124995
0.129016
0.127684
0.132187
0.130584
0.133426
0.138998
0.0875212
0.140422
0.0863567
0.0875139
0.0863239
0.141746
0.141813
0.137424
0.138845
0.138918
0.0864625
0.0864067
0.0864664
0.086478
0.139361
0.141912
0.140623
0.136851
0.138104
0.134147
0.135524
0.131528
0.132816
0.128803
0.130193
0.126029
0.127412
0.123283
0.124656
0.12053
0.121907
0.117781
0.119154
0.115034
0.116407
0.112287
0.113661
0.109539
0.110913
0.106787
0.108164
0.104031
0.105412
0.101271
0.102654
0.0985097
0.0998885
0.0957452
0.0971166
0.0930359
0.0943996
0.0902616
0.0916963
0.0887963
0.0904805
0.0876138
0.0890437
0.0932411
0.0917787
0.0960312
0.0946593
0.0988054
0.0974383
0.101572
0.100196
0.104327
0.10295
0.107079
0.105704
0.109825
0.108452
0.11257
0.111199
0.115311
0.113941
0.11805
0.116682
0.120786
0.119419
0.123523
0.122153
0.126258
0.124899
0.12897
0.127596
0.131843
0.130409
0.134499
0.133201
0.137302
0.135807
0.143101
0.143196
0.0864343
0.140362
0.0849718
0.0849709
0.14171
0.14305
0.138774
0.140254
0.0877011
0.144394
0.144471
0.0863571
0.0863886
0.140128
0.140318
0.0849373
0.0849761
0.0850861
0.0849753
0.0850228
0.0850828
0.142005
0.144586
0.143288
0.139415
0.140702
0.136793
0.138115
0.134173
0.135489
0.131478
0.132823
0.128781
0.130139
0.126028
0.127405
0.123286
0.124657
0.120543
0.121915
0.117803
0.119173
0.115062
0.116433
0.112319
0.113691
0.109574
0.110946
0.106823
0.1082
0.104067
0.105447
0.101305
0.102689
0.0985392
0.0999203
0.0957857
0.0971552
0.0930423
0.0944188
0.0902911
0.0916795
0.0875831
0.0889014
0.0849406
0.086299
0.0905283
0.0891367
0.0932802
0.091869
0.0960491
0.0946674
0.0988217
0.0974516
0.101583
0.100208
0.104335
0.102958
0.107084
0.10571
0.109828
0.108456
0.112572
0.111201
0.115311
0.113941
0.11805
0.116681
0.120784
0.119417
0.123521
0.122151
0.126247
0.12489
0.12898
0.127599
0.131714
0.130378
0.134282
0.132981
0.137152
0.135676
0.139949
0.138623
0.145763
0.145859
0.141578
0.141409
0.141666
0.141679
0.0850295
0.143018
0.0835511
0.0849178
0.0835459
0.144344
0.1457
0.143063
0.147061
0.147158
0.143026
0.141683
0.083545
0.0835666
0.0835362
0.0835627
0.0836306
0.0835274
0.0835723
0.0836248
0.14467
0.147264
0.145956
0.142046
0.143383
0.139451
0.14073
0.13682
0.138141
0.134155
0.135495
0.131442
0.132792
0.128752
0.130104
0.126013
0.127385
0.123274
0.124643
0.120533
0.121904
0.117791
0.119162
0.115048
0.116419
0.112303
0.113676
0.109557
0.11093
0.106808
0.108183
0.104056
0.105433
0.1013
0.102679
0.0985469
0.0999223
0.0958005
0.0971711
0.0930614
0.0944321
0.0903305
0.0917032
0.0876058
0.0889541
0.0862643
0.0877988
0.0850787
0.0864291
0.0905531
0.0892023
0.0933165
0.0919192
0.0960746
0.0946933
0.098839
0.0974627
0.101597
0.100222
0.104348
0.102973
0.107097
0.105723
0.109841
0.108468
0.112583
0.111213
0.115322
0.113952
0.118059
0.116691
0.120791
0.119425
0.123524
0.122158
0.126245
0.124888
0.128982
0.127605
0.131715
0.130367
0.134293
0.13301
0.136954
0.135606
0.13968
0.138312
0.142771
0.141107
0.148441
0.148545
0.144427
0.144397
0.083604
0.143015
0.143035
0.0821928
0.0821954
0.144315
0.144338
0.145657
0.146987
0.148346
0.0851116
0.145519
0.149704
0.14983
0.145531
0.0836615
0.083746
0.143022
0.0822261
0.082223
0.0823116
0.0823082
0.0823391
0.0822793
0.0822278
0.0822594
0.0822548
0.0822116
0.147307
0.149917
0.148615
0.144717
0.146033
0.142068
0.143395
0.139466
0.140766
0.136799
0.138138
0.134122
0.135462
0.131435
0.132779
0.128733
0.130089
0.126
0.127368
0.123267
0.124633
0.120533
0.1219
0.117796
0.119165
0.115057
0.116426
0.112315
0.113686
0.109571
0.110943
0.106825
0.108199
0.104075
0.10545
0.101322
0.102699
0.0985709
0.0999454
0.095824
0.0971962
0.0930849
0.0944546
0.0903519
0.091722
0.0876179
0.0889843
0.0849319
0.0862847
0.0822045
0.0835584
0.087857
0.086479
0.0905886
0.0892332
0.0933391
0.091957
0.0960933
0.0947132
0.0988497
0.0974735
0.101604
0.100229
0.104354
0.102979
0.107101
0.105728
0.109844
0.108472
0.112586
0.111216
0.115323
0.113954
0.11806
0.116693
0.120793
0.119426
0.123526
0.12216
0.126248
0.124889
0.128977
0.12761
0.131681
0.13034
0.134355
0.133012
0.137026
0.135705
0.139538
0.138297
0.142453
0.140849
0.145506
0.144241
0.146557
0.146345
0.151088
0.151191
0.144321
0.144322
0.0823227
0.145627
0.145541
0.0808424
0.0821946
0.0808406
0.146966
0.146856
0.148306
0.148144
0.149643
0.150998
0.152352
0.152471
0.144324
0.080872
0.080866
0.0809174
0.0809073
0.0809918
0.0809729
0.0810284
0.0809574
0.080943
0.0809534
0.0808764
0.0809013
0.149967
0.152551
0.15125
0.147361
0.148676
0.144744
0.146055
0.142092
0.143412
0.13946
0.140779
0.136778
0.138119
0.134113
0.135446
0.131422
0.132771
0.128716
0.13007
0.125995
0.127357
0.123267
0.124631
0.120533
0.121901
0.117795
0.119164
0.115055
0.116425
0.112312
0.113684
0.109569
0.110941
0.106823
0.108197
0.104076
0.105449
0.101327
0.102702
0.0985797
0.0999521
0.0958365
0.0972076
0.0930997
0.0944683
0.0903675
0.0917335
0.0876423
0.089004
0.0849478
0.0862996
0.0835749
0.0851675
0.0823984
0.0837842
0.0878891
0.0865272
0.0906194
0.0892572
0.0933649
0.0919903
0.0961147
0.0947384
0.0988672
0.0974914
0.101619
0.100244
0.104367
0.102992
0.107113
0.105741
0.109855
0.108483
0.112596
0.111227
0.115333
0.113964
0.118068
0.116702
0.120798
0.119432
0.123526
0.122164
0.126247
0.124887
0.128973
0.127609
0.13167
0.13033
0.134342
0.133
0.137077
0.13571
0.139627
0.138395
0.142345
0.140859
0.145475
0.144077
0.146253
0.153732
0.15382
0.0809013
0.145623
0.145591
0.0794846
0.0794862
0.146979
0.146948
0.148302
0.148435
0.149625
0.149361
0.150957
0.152296
0.153658
0.150661
0.0824559
0.155013
0.155094
0.0809727
0.0810488
0.145618
0.0795394
0.0795157
0.0795578
0.0795522
0.0795686
0.0795871
0.0796192
0.0795429
0.0796107
0.0795811
0.0795322
0.0795749
0.0795517
0.079524
0.152587
0.155176
0.153886
0.15
0.151297
0.147414
0.148712
0.144764
0.146088
0.142109
0.143433
0.139452
0.140783
0.13678
0.138116
0.134107
0.135445
0.131412
0.132761
0.128707
0.130061
0.125988
0.127349
0.12326
0.124625
0.120528
0.121895
0.117792
0.11916
0.115056
0.116424
0.112317
0.113687
0.109576
0.110946
0.106833
0.108205
0.104088
0.10546
0.101341
0.102715
0.0985968
0.0999682
0.0958548
0.0972254
0.0931176
0.094486
0.0903847
0.0917511
0.0876603
0.0890208
0.0849401
0.0863032
0.0822168
0.083585
0.0795065
0.0808556
0.0851967
0.0838315
0.0879147
0.0865515
0.0906431
0.0892801
0.0933847
0.092013
0.0961314
0.0947576
0.0988797
0.0975052
0.101628
0.100255
0.104375
0.103001
0.10712
0.105749
0.109861
0.10849
0.112602
0.111233
0.115338
0.113969
0.118074
0.116707
0.120805
0.119438
0.123534
0.122171
0.126255
0.124895
0.128975
0.127616
0.131676
0.130329
0.134357
0.133017
0.13706
0.135703
0.139719
0.13841
0.142529
0.141036
0.145567
0.144182
0.147187
0.14632
0.156376
0.156471
0.152476
0.152841
0.146991
0.146962
0.0796268
0.148307
0.1484
0.078127
0.0795005
0.0781315
0.149634
0.149579
0.150963
0.150486
0.152285
0.152297
0.153622
0.154975
0.156315
0.157754
0.157661
0.153878
0.154023
0.146987
0.0781301
0.0781262
0.0781823
0.0781605
0.0781648
0.0781741
0.078168
0.0781965
0.0782025
0.0781525
0.0782196
0.0781737
0.0781945
0.0782118
0.0781752
0.0781761
0.155231
0.157833
0.156533
0.152644
0.15394
0.150055
0.151351
0.147415
0.148735
0.144763
0.14609
0.142108
0.143436
0.139448
0.140778
0.136778
0.138115
0.134095
0.135438
0.131402
0.13275
0.128697
0.130052
0.125982
0.127341
0.123257
0.124621
0.120528
0.121893
0.117796
0.119163
0.115061
0.116428
0.112323
0.113693
0.109583
0.110953
0.106839
0.108211
0.104095
0.105467
0.10135
0.102723
0.0986072
0.099978
0.0958669
0.0972368
0.0931311
0.0944984
0.0903994
0.0917645
0.0876717
0.0890352
0.0849528
0.0863137
0.0822394
0.0835987
0.0808749
0.082486
0.0797115
0.081113
0.0852118
0.0838533
0.0879365
0.0865732
0.0906681
0.0893031
0.0934068
0.0920363
0.0961508
0.0947785
0.0988964
0.097523
0.101643
0.100271
0.104387
0.103015
0.107132
0.105761
0.109872
0.108501
0.112611
0.111243
0.115346
0.113978
0.11808
0.116715
0.120809
0.119444
0.123536
0.122174
0.126256
0.124896
0.128974
0.127617
0.131674
0.130326
0.134372
0.133022
0.137055
0.135717
0.139716
0.13839
0.142436
0.141032
0.145538
0.144033
0.147349
0.146421
0.150575
0.149245
0.152927
0.151765
0.155223
0.155314
0.154145
0.0782044
0.159029
0.159118
0.148304
0.148324
0.0767532
0.0767668
0.149629
0.149622
0.150957
0.150714
0.152292
0.152153
0.153626
0.153705
0.154964
0.155156
0.156295
0.157615
0.158955
0.155452
0.160316
0.0797676
0.0782779
0.0783604
0.160408
0.156737
0.156585
0.156467
0.148308
0.0767858
0.0767645
0.0768177
0.0767855
0.0767933
0.0768017
0.076794
0.0768121
0.0768176
0.0767894
0.076814
0.0767874
0.0768239
0.0768313
0.076807
0.0768271
0.0768643
0.076815
0.157878
0.160481
0.159187
0.155269
0.156571
0.152703
0.15398
0.150081
0.151393
0.147431
0.148755
0.144776
0.146102
0.142117
0.143449
0.139451
0.140784
0.136777
0.138115
0.134094
0.135437
0.1314
0.132748
0.128694
0.130049
0.12598
0.127338
0.123258
0.12462
0.12053
0.121894
0.117799
0.119165
0.115064
0.116431
0.112326
0.113696
0.109587
0.110956
0.106844
0.108216
0.104102
0.105473
0.101359
0.102731
0.0986185
0.0999884
0.0958796
0.0972489
0.0931442
0.0945114
0.0904123
0.0917778
0.0876842
0.089048
0.0849636
0.0863243
0.0822342
0.0836007
0.0795182
0.0808808
0.0767808
0.0781503
0.0825153
0.0811592
0.0852313
0.0838742
0.0879563
0.0865927
0.0906879
0.0893218
0.0934249
0.0920552
0.0961668
0.0947958
0.0989101
0.0975377
0.101655
0.100283
0.104398
0.103026
0.107142
0.105771
0.109882
0.108511
0.112621
0.111253
0.115356
0.113988
0.118089
0.116724
0.120818
0.119453
0.123544
0.122182
0.126264
0.124904
0.128981
0.127624
0.131682
0.130333
0.134379
0.13303
0.137065
0.135725
0.139749
0.138405
0.142385
0.14107
0.145344
0.143816
0.147562
0.14654
0.150359
0.148927
0.152976
0.15171
0.15426
0.161677
0.161759
0.157814
0.158001
0.149627
0.149601
0.0769315
0.150954
0.150883
0.0754059
0.0767976
0.0754121
0.152286
0.152135
0.15362
0.153583
0.154958
0.155063
0.1563
0.156378
0.157619
0.157724
0.158927
0.160266
0.161616
0.159069
0.162944
0.163024
0.159238
0.149613
0.0753876
0.0754001
0.0754173
0.0754048
0.0754374
0.0754223
0.0754178
0.0754243
0.0754169
0.0754259
0.0754345
0.0754167
0.0754231
0.0754193
0.0754476
0.075429
0.0754411
0.0754499
0.0754639
0.0754269
0.160505
0.163086
0.161806
0.157913
0.159216
0.15532
0.156612
0.15272
0.154024
0.150084
0.151405
0.147437
0.14876
0.144782
0.146109
0.142123
0.143454
0.139456
0.14079
0.13678
0.138119
0.134093
0.135438
0.131399
0.132747
0.128692
0.130047
0.12598
0.127336
0.123258
0.12462
0.120532
0.121895
0.117801
0.119167
0.115067
0.116434
0.11233
0.113699
0.109592
0.110961
0.106851
0.108222
0.104111
0.105481
0.10137
0.102741
0.0986302
0.0999995
0.0958919
0.0972608
0.0931567
0.0945238
0.0904247
0.0917903
0.0876962
0.08906
0.084971
0.0863337
0.0822441
0.0836086
0.0795234
0.0808915
0.0781614
0.0755141
0.0797981
0.0769913
0.0784194
0.0825268
0.0811663
0.0852503
0.0838896
0.0879758
0.0866113
0.0907073
0.0893408
0.0934435
0.0920744
0.0961839
0.0948137
0.0989251
0.0975537
0.101668
0.100298
0.10441
0.103038
0.107152
0.105782
0.109891
0.108521
0.11263
0.111262
0.115365
0.113997
0.118098
0.116733
0.120827
0.119462
0.123552
0.122191
0.126271
0.124912
0.128987
0.127631
0.131692
0.13034
0.134394
0.133044
0.137082
0.135741
0.139788
0.138428
0.142447
0.141138
0.145165
0.143765
0.147745
0.146506
0.150361
0.149031
0.152995
0.15169
0.155556
0.154327
0.158131
0.156845
0.160525
0.160657
0.15937
0.164254
0.164296
0.150949
0.150923
0.0740232
0.0740379
0.152282
0.152228
0.153615
0.153529
0.15495
0.154955
0.156284
0.156359
0.157614
0.157679
0.158937
0.159009
0.160257
0.160404
0.161586
0.162906
0.164225
0.165541
0.160782
0.161793
0.0755791
0.161901
0.162028
0.165585
0.150936
0.074025
0.0740212
0.0740426
0.0740311
0.0740432
0.0740431
0.0740352
0.0740388
0.0740352
0.0740397
0.0740442
0.0740342
0.0740411
0.0740452
0.0740493
0.0740412
0.0740548
0.0740634
0.074072
0.0740431
0.0741879
0.0741082
0.16316
0.165627
0.164382
0.160543
0.16186
0.157969
0.159257
0.15536
0.156664
0.152735
0.154052
0.150095
0.151414
0.147445
0.148769
0.144793
0.146121
0.142132
0.143463
0.139461
0.140798
0.136783
0.138123
0.134095
0.13544
0.131399
0.132747
0.128693
0.130048
0.12598
0.127337
0.123259
0.124621
0.120535
0.121897
0.117804
0.11917
0.115071
0.116438
0.112336
0.113704
0.109599
0.110967
0.106859
0.108229
0.10412
0.105489
0.10138
0.10275
0.0986409
0.10001
0.0959029
0.0972718
0.093168
0.094535
0.0904359
0.0918016
0.0877064
0.0890708
0.0849797
0.0863426
0.0822527
0.0836166
0.079529
0.080897
0.0768036
0.0781676
0.0740577
0.075437
0.0770625
0.0742807
0.0756745
0.079817
0.0784551
0.0825409
0.0811795
0.0852662
0.0839031
0.0879934
0.0866288
0.0907248
0.0893586
0.0934604
0.0920919
0.0961998
0.0948302
0.0989402
0.0975693
0.101683
0.100312
0.104423
0.103052
0.107164
0.105795
0.109902
0.108532
0.11264
0.111273
0.115374
0.114007
0.118108
0.116743
0.120836
0.119471
0.123562
0.1222
0.126281
0.124921
0.128996
0.12764
0.131701
0.130349
0.134401
0.133052
0.137088
0.135746
0.139788
0.138434
0.142458
0.141131
0.145157
0.143799
0.147763
0.146462
0.150449
0.149109
0.153058
0.151747
0.155654
0.154378
0.158259
0.156966
0.159532
0.167003
0.167071
0.163182
0.163313
0.152276
0.152264
0.15361
0.153548
0.0727825
0.0728514
0.0726852
0.0740741
0.0726974
0.154944
0.154903
0.156276
0.156334
0.157608
0.157656
0.158932
0.158993
0.160254
0.160344
0.161583
0.161712
0.162898
0.163091
0.164215
0.165556
0.166942
0.164453
0.168297
0.168514
0.164572
0.152267
0.0726542
0.0726581
0.0726609
0.072641
0.0726582
0.0726389
0.0726504
0.0726605
0.0726512
0.0726519
0.0726528
0.0726556
0.0726552
0.0726517
0.072661
0.0726589
0.0726593
0.0726627
0.0726712
0.0726674
0.0726528
0.0726545
0.0726951
0.168727
0.169537
0.169806
0.165594
0.167084
0.163197
0.164415
0.160584
0.161884
0.158005
0.1593
0.15538
0.156697
0.152747
0.154062
0.150113
0.151432
0.147467
0.14879
0.144811
0.146141
0.142145
0.143479
0.139471
0.140809
0.136789
0.13813
0.134099
0.135446
0.131403
0.132751
0.128695
0.130051
0.125983
0.127339
0.123262
0.124624
0.120538
0.1219
0.117809
0.119174
0.115077
0.116443
0.112342
0.11371
0.109605
0.110973
0.106867
0.108237
0.104129
0.105497
0.101389
0.102759
0.0986509
0.100019
0.0959132
0.0972821
0.0931786
0.0945454
0.0904461
0.0918122
0.0877158
0.0890805
0.0849878
0.0863515
0.0822607
0.0836244
0.079538
0.0809027
0.0768056
0.078171
0.075442
0.0771117
0.074329
0.0757343
0.0798357
0.0784779
0.0825563
0.0811943
0.0852811
0.0839181
0.0880095
0.0866448
0.0907413
0.0893752
0.0934765
0.0921084
0.0962149
0.0948457
0.0989542
0.0975839
0.101696
0.100326
0.104436
0.103065
0.107176
0.105807
0.109914
0.108544
0.112652
0.111284
0.115385
0.114018
0.118118
0.116753
0.120846
0.119482
0.123572
0.122211
0.126292
0.124932
0.129007
0.127651
0.131715
0.130362
0.134418
0.133068
0.137112
0.135765
0.139812
0.138462
0.142472
0.141147
0.145183
0.143821
0.147789
0.146496
0.150475
0.149122
0.153121
0.151795
0.155722
0.154429
0.158375
0.157054
0.160908
0.15965
0.163431
0.162164
0.165789
0.1659
0.164683
0.153602
0.15358
0.0728959
0.0712956
0.0713092
0.154939
0.154908
0.156272
0.156284
0.157601
0.157637
0.158928
0.158992
0.160251
0.160331
0.161572
0.161672
0.162893
0.16303
0.164206
0.164361
0.165534
0.165729
0.166882
0.168184
0.169347
0.170523
0.166031
0.167032
0.167146
0.167276
0.153594
0.0712736
0.0712708
0.0712831
0.0712662
0.0712665
0.0712559
0.0712644
0.0712709
0.0712666
0.0712717
0.0712688
0.0712709
0.0712703
0.0712694
0.0712769
0.0712719
0.0712721
0.0712823
0.0712995
0.0712721
0.0712509
0.0712668
0.0713416
0.0712766
0.071452
0.071386
0.170197
0.170924
0.1688
0.169859
0.165579
0.167078
0.163276
0.164452
0.160629
0.161955
0.158027
0.159329
0.155396
0.156714
0.152774
0.154083
0.150135
0.151458
0.147483
0.14881
0.14482
0.146153
0.142154
0.143488
0.139479
0.140818
0.136797
0.138139
0.134106
0.135453
0.131408
0.132757
0.1287
0.130056
0.125987
0.127344
0.123267
0.124629
0.120543
0.121905
0.117814
0.119179
0.115083
0.116448
0.112348
0.113716
0.109612
0.11098
0.106875
0.108244
0.104137
0.105505
0.101398
0.102768
0.0986606
0.100029
0.0959233
0.0972921
0.0931889
0.0945555
0.0904558
0.0918223
0.0877251
0.08909
0.0849958
0.0863604
0.0822683
0.0836325
0.0795411
0.0809055
0.0768082
0.0781732
0.074088
0.0754505
0.0713394
0.0727226
0.0743622
0.0715741
0.0729728
0.0771212
0.0757578
0.0798478
0.078486
0.0825705
0.0812084
0.0852963
0.083933
0.088025
0.0866602
0.090757
0.0893906
0.0934921
0.0921242
0.0962297
0.0948608
0.0989684
0.0975986
0.101709
0.100339
0.104448
0.103078
0.107188
0.105819
0.109926
0.108557
0.112663
0.111295
0.115397
0.114029
0.11813
0.116765
0.120858
0.119493
0.123584
0.122222
0.126304
0.124944
0.12902
0.127663
0.131729
0.130375
0.134433
0.133082
0.137129
0.135781
0.139826
0.138479
0.142496
0.141163
0.145191
0.143841
0.147836
0.146521
0.150495
0.149165
0.153129
0.151805
0.155751
0.154449
0.15839
0.157065
0.160974
0.159684
0.163518
0.162247
0.164777
0.168401
0.168529
0.154934
0.154922
0.156267
0.156261
0.0700154
0.0701365
0.0699512
0.0713519
0.0699715
0.157597
0.157613
0.158924
0.158979
0.160246
0.160304
0.161568
0.161663
0.162886
0.162991
0.164202
0.164321
0.165526
0.165671
0.166854
0.166997
0.168146
0.168314
0.169301
0.170583
0.171745
0.169644
0.169752
0.174649
0.175194
0.15493
0.0698789
0.0699147
0.0698878
0.0698877
0.0698971
0.0698917
0.0698826
0.0698781
0.0698825
0.0698801
0.0698832
0.0698864
0.0698839
0.0698856
0.0698865
0.0698853
0.0698886
0.0698872
0.0698898
0.0698939
0.0698986
0.0698872
0.0698685
0.0699048
0.0699339
0.0698707
0.0699196
0.170067
0.171463
0.168934
0.16984
0.165691
0.167236
0.163288
0.164483
0.160664
0.161988
0.158053
0.159357
0.15543
0.156742
0.1528
0.154117
0.150154
0.151479
0.147503
0.148829
0.144842
0.146174
0.142173
0.143508
0.139493
0.140834
0.136808
0.138151
0.134114
0.135463
0.131415
0.132765
0.128706
0.130062
0.125993
0.12735
0.123273
0.124634
0.120549
0.121911
0.11782
0.119185
0.115089
0.116455
0.112355
0.113723
0.10962
0.110987
0.106883
0.108252
0.104145
0.105514
0.101407
0.102776
0.09867
0.100038
0.095933
0.0973017
0.0931986
0.0945653
0.090465
0.0918318
0.0877338
0.089099
0.0850036
0.0863685
0.0822747
0.0836393
0.0795453
0.0809102
0.0768176
0.0781812
0.0740946
0.0754559
0.0727309
0.0744046
0.0716449
0.0730475
0.0771352
0.0757753
0.0798585
0.0784955
0.0825834
0.0812206
0.0853104
0.0839464
0.0880398
0.0866748
0.0907719
0.0894055
0.093507
0.0921391
0.0962441
0.0948754
0.0989824
0.0976129
0.101722
0.100353
0.104461
0.103091
0.107201
0.105832
0.109938
0.108569
0.112675
0.111308
0.115409
0.114042
0.118142
0.116777
0.12087
0.119506
0.123597
0.122235
0.126317
0.124957
0.129034
0.127677
0.131745
0.13039
0.134449
0.133098
0.137148
0.135799
0.139843
0.138497
0.142523
0.141184
0.145205
0.143866
0.147857
0.146531
0.150522
0.149192
0.153169
0.151839
0.155802
0.154494
0.158426
0.157115
0.161026
0.15973
0.163585
0.162304
0.16613
0.164855
0.168627
0.167381
0.170976
0.171102
0.169887
0.156263
0.156259
0.0702163
0.06855
0.0685783
0.157594
0.157597
0.175338
0.175831
0.176473
0.158921
0.15896
0.160244
0.160286
0.161564
0.161639
0.162883
0.162979
0.164197
0.164303
0.165516
0.165629
0.16683
0.166958
0.168123
0.168257
0.169353
0.169576
0.17057
0.170882
0.171983
0.172814
0.173955
0.17571
0.171215
0.1722
0.17231
0.172398
0.156261
0.0684777
0.0685146
0.0684989
0.0685096
0.0685059
0.0685092
0.0685007
0.0685024
0.0684987
0.0684958
0.0684981
0.0684997
0.068499
0.0684999
0.0685015
0.0685
0.068502
0.068503
0.0685094
0.0685062
0.0685069
0.0685061
0.0685079
0.0685248
0.0685372
0.0685087
0.0685794
0.0684799
0.0687667
0.0686863
0.173694
0.17449
0.17055
0.172082
0.168789
0.1698
0.16584
0.167322
0.163292
0.164534
0.160689
0.162006
0.158075
0.159378
0.155459
0.156771
0.152824
0.154143
0.15018
0.151504
0.147526
0.148854
0.14486
0.146195
0.142188
0.143525
0.139507
0.140849
0.13682
0.138164
0.134125
0.135474
0.131423
0.132774
0.128714
0.13007
0.126
0.127357
0.12328
0.124641
0.120555
0.121918
0.117827
0.119192
0.115096
0.116462
0.112363
0.11373
0.109627
0.110995
0.106891
0.108259
0.104154
0.105522
0.101416
0.102785
0.098679
0.100047
0.0959424
0.0973108
0.0932078
0.0945746
0.0904738
0.0918408
0.0877419
0.0891075
0.085011
0.0863764
0.082281
0.0836459
0.0795517
0.0809159
0.0768234
0.0781879
0.0740948
0.0754589
0.071358
0.0727311
0.068605
0.0699905
0.0716822
0.0688712
0.0702908
0.0744191
0.0730604
0.0771474
0.075787
0.0798702
0.0785079
0.082596
0.0812327
0.0853237
0.0839594
0.0880538
0.0866885
0.0907862
0.0894196
0.0935213
0.0921535
0.0962581
0.0948895
0.0989961
0.0976268
0.101735
0.100366
0.104474
0.103105
0.107213
0.105844
0.109951
0.108582
0.112688
0.11132
0.115422
0.114054
0.118155
0.116789
0.120884
0.119519
0.12361
0.122248
0.126332
0.124971
0.12905
0.127692
0.131762
0.130406
0.134469
0.133116
0.137169
0.135819
0.139864
0.138519
0.142548
0.141206
0.145233
0.143893
0.147887
0.146561
0.150548
0.149219
0.153203
0.151873
0.155843
0.154526
0.158472
0.157163
0.161074
0.159774
0.163651
0.162364
0.166213
0.164934
0.168728
0.16747
0.169963
0.173499
0.173568
0.157593
0.157593
0.17676
0.15892
0.15894
0.0673044
0.0674168
0.0672105
0.0686301
0.0672405
0.160243
0.160276
0.161562
0.161618
0.16288
0.162954
0.164196
0.164281
0.165508
0.165602
0.166818
0.166931
0.168108
0.168248
0.169377
0.169536
0.170623
0.170846
0.171935
0.172139
0.173037
0.173431
0.174009
0.175583
0.17697
0.174768
0.174857
0.157592
0.0671405
0.0671633
0.0670944
0.0671161
0.0671057
0.067131
0.0671131
0.0671231
0.0671151
0.0671169
0.0671135
0.0671147
0.0671129
0.0671133
0.067114
0.067114
0.0671161
0.0671147
0.0671185
0.0671178
0.0671254
0.0671209
0.0671198
0.0671235
0.067132
0.0671346
0.0671332
0.0671397
0.0671549
0.0671068
0.0671905
0.175547
0.177712
0.173903
0.174669
0.170787
0.172456
0.168593
0.16959
0.165957
0.167362
0.163328
0.164603
0.160743
0.162049
0.158123
0.159431
0.155493
0.156811
0.152855
0.154174
0.150207
0.151533
0.147548
0.148878
0.14488
0.146215
0.142207
0.143544
0.139523
0.140866
0.136834
0.138179
0.134137
0.135487
0.131434
0.132785
0.128723
0.13008
0.126009
0.127366
0.123288
0.124649
0.120563
0.121926
0.117835
0.119199
0.115104
0.11647
0.112371
0.113737
0.109635
0.111003
0.106899
0.108267
0.104162
0.105531
0.101425
0.102794
0.0986878
0.100056
0.0959515
0.0973197
0.0932165
0.0945837
0.0904822
0.0918493
0.0877498
0.0891157
0.0850181
0.0863839
0.0822874
0.0836526
0.0795578
0.0809223
0.076828
0.078193
0.0740982
0.075463
0.0713644
0.0727341
0.0699997
0.0717148
0.0689503
0.0703489
0.0744324
0.073079
0.0771567
0.0757952
0.0798814
0.0785191
0.0826082
0.0812445
0.0853365
0.0839719
0.0880671
0.0867017
0.0908
0.0894331
0.0935351
0.0921674
0.0962718
0.0949033
0.0990097
0.0976405
0.101749
0.100379
0.104488
0.103118
0.107226
0.105857
0.109964
0.108595
0.112701
0.111333
0.115435
0.114068
0.118169
0.116803
0.120898
0.119533
0.123625
0.122263
0.126348
0.124987
0.129067
0.127709
0.131781
0.130424
0.134489
0.133136
0.137193
0.135841
0.13989
0.138543
0.142578
0.141234
0.145262
0.143922
0.147926
0.146595
0.150584
0.149257
0.153233
0.151907
0.155875
0.154555
0.158507
0.157194
0.161113
0.159813
0.163701
0.16241
0.166269
0.164986
0.168811
0.167543
0.171286
0.170042
0.173667
0.172492
0.176131
0.176264
0.174918
0.15892
0.158928
0.0674997
0.0657974
0.0658356
0.160243
0.160264
0.161563
0.161603
0.162879
0.162932
0.164195
0.164268
0.165505
0.165585
0.166812
0.166915
0.168105
0.16822
0.169384
0.169525
0.170659
0.170822
0.171898
0.172106
0.175993
0.173144
0.17339
0.174691
0.174191
0.175458
0.176943
0.177944
0.179046
0.176342
0.177258
0.177431
0.17764
0.158923
0.065746
0.0657461
0.0657159
0.0657299
0.0657155
0.0657417
0.0657232
0.0657331
0.0657272
0.0657269
0.0657261
0.065731
0.0657275
0.0657277
0.065729
0.0657284
0.065731
0.0657295
0.0657339
0.0657324
0.065737
0.0657349
0.0657356
0.0657377
0.0657359
0.0657447
0.0657477
0.0657536
0.0657352
0.065722
0.0658391
0.0657203
0.0660448
0.0659513
0.178014
0.180439
0.179217
0.175807
0.177046
0.173686
0.174668
0.170909
0.172409
0.168542
0.169626
0.165975
0.167332
0.163346
0.16463
0.160773
0.162071
0.158153
0.159464
0.155525
0.156841
0.152886
0.154207
0.150234
0.151562
0.147574
0.148905
0.144905
0.146241
0.142228
0.143567
0.139542
0.140886
0.13685
0.138196
0.134151
0.135502
0.131446
0.132798
0.128734
0.130091
0.126018
0.127376
0.123297
0.124658
0.120572
0.121935
0.117843
0.119208
0.115112
0.116478
0.112379
0.113746
0.109643
0.111012
0.106908
0.108276
0.104171
0.105539
0.101433
0.102802
0.0986965
0.100065
0.0959603
0.0973283
0.0932249
0.0945924
0.0904903
0.0918575
0.0877573
0.0891236
0.0850251
0.0863911
0.0822936
0.0836593
0.0795628
0.0809281
0.0768324
0.0781977
0.0741027
0.0754675
0.0713752
0.0727382
0.0686388
0.0700146
0.0658584
0.0672546
0.0689821
0.0661386
0.0675605
0.0717234
0.0703637
0.0744433
0.0730883
0.0771666
0.0758052
0.0798921
0.0785289
0.0826197
0.0812557
0.0853487
0.0839838
0.0880799
0.0867143
0.0908132
0.0894461
0.0935485
0.0921807
0.0962852
0.0949167
0.0990231
0.0976539
0.101762
0.100393
0.104501
0.103131
0.107239
0.10587
0.109977
0.108608
0.112714
0.111346
0.115449
0.114082
0.118183
0.116817
0.120913
0.119548
0.123641
0.122278
0.126365
0.125003
0.129085
0.127726
0.1318
0.130443
0.134511
0.133157
0.137215
0.135863
0.139914
0.138566
0.142604
0.141259
0.145288
0.143948
0.147961
0.146625
0.15063
0.149297
0.153283
0.151958
0.155924
0.154604
0.158552
0.157241
0.16116
0.159858
0.163754
0.162459
0.166322
0.16504
0.168867
0.1676
0.17138
0.17012
0.17373
0.172594
0.174913
0.178349
0.17849
0.160245
0.160254
0.161564
0.16159
0.064578
0.0646918
0.162881
0.162919
0.0644383
0.0658768
0.0644683
0.164194
0.16425
0.165505
0.165574
0.166811
0.166893
0.168108
0.168208
0.169391
0.169512
0.17067
0.170802
0.178274
0.171924
0.172089
0.177127
0.17315
0.173372
0.175922
0.174344
0.174638
0.175534
0.17681
0.178036
0.179197
0.181649
0.181593
0.180437
0.179427
0.179347
0.160248
0.0643934
0.0644229
0.0643432
0.0643439
0.0643405
0.0643397
0.0643324
0.0643428
0.0643372
0.064343
0.0643404
0.06434
0.0643409
0.0643423
0.0643425
0.0643423
0.064344
0.064343
0.0643458
0.0643444
0.0643477
0.0643466
0.0643491
0.0643484
0.0643506
0.064351
0.0643466
0.0643553
0.06436
0.0643556
0.0643523
0.0643497
0.0643943
0.0643061
0.0644534
0.178106
0.180417
0.179253
0.175837
0.177066
0.173522
0.174577
0.171053
0.172383
0.168555
0.169749
0.166025
0.16733
0.163408
0.164706
0.160815
0.162117
0.158192
0.159504
0.155563
0.156879
0.15292
0.154243
0.150266
0.151595
0.147603
0.148935
0.14493
0.146268
0.14225
0.143591
0.139561
0.140907
0.136867
0.138215
0.134166
0.135518
0.131459
0.132813
0.128746
0.130104
0.126029
0.127388
0.123307
0.124669
0.120581