/*--------------------------------*- C++ -*----------------------------------*\
  =========                 |
  \\      /  F ield         | OpenFOAM: The Open Source CFD Toolbox
   \\    /   O peration     | Website:  https://openfoam.org
    \\  /    A nd           | Version:  10
     \\/     M anipulation  |
\*---------------------------------------------------------------------------*/
FoamFile
{
    format      ascii;
    class       surfaceScalarField;
    location    "6.5";
    object      phi;
}
// * * * * * * * * * * * * * * * * * * * * * * * * * * * * * * * * * * * * * //

dimensions      [0 3 -1 0 0 0 0];

internalField   nonuniform List<scalar> 
57492
(
0.000507054
-1.62895e-05
-9.67085e-05
-0.000394055
-0.000470301
0.000596951
0.000380403
-3.09342e-05
8.80987e-05
0.000349168
-0.000406333
0.00316502
0.00338344
-0.000274178
-0.00627428
-0.00862834
0.00403988
0.00775347
0.00179877
-0.00171411
-0.000897012
0.000812355
-0.00329585
0.000766066
-0.000351029
0.00288081
0.000600878
-0.00209796
0.000988486
-0.00440565
0.00419631
-0.000779145
0.000892294
0.00405583
-0.00395964
-0.00180908
-0.000542754
0.00175638
0.000595456
-0.000106462
-0.00178045
7.78273e-05
0.000803275
-0.000897799
-1.19371e-05
-0.00015524
0.000415761
0.0034282
-0.00321028
-0.00121521
0.000997289
0.00039752
0.00274333
0.000287355
-0.000341306
0.000805783
0.00332664
-0.00379112
-0.000672913
0.00325062
-0.00291902
0.000134743
-0.000289926
0.000155184
-0.00168637
0.00123224
0.000588874
-0.00466462
0.000222848
0.00335007
0.0010917
0.00120214
-0.0047322
-0.00113456
-0.000104964
-0.000580188
-0.00104826
0.00173341
-0.00048899
0.000413069
-2.90432e-05
-0.00346243
0.0027433
0.001142
-0.000422867
-0.00366147
0.000647829
-0.000448784
-0.00110536
0.000581329
0.000450827
7.32024e-05
-0.000765012
-0.000353676
1.33298e-05
-0.000377484
-0.00117272
0.00135254
0.000197668
-0.000430108
0.000121902
-6.9278e-05
0.00190848
-0.00128271
-0.00119819
0.000572423
-0.00164134
0.0011887
0.00236112
-0.00210656
-0.00412906
0.00353072
0.0027049
-0.00436286
-0.00113748
0.00339378
-0.0007161
-0.000159326
0.000875425
-0.0002764
-0.0004397
-0.00138251
0.00191143
-0.000805322
0.000205431
-0.000770774
-0.000817168
-0.00157228
0.00233834
-0.000234269
-0.00190493
0.00115286
0.000752074
-0.00433311
0.00242818
0.00449728
-0.000483283
6.36867e-05
-0.00407768
0.00330552
-0.000346804
0.00153856
-0.000393161
0.00439248
-0.0044826
0.00335306
0.000622469
-0.00337465
0.00329627
-0.000294236
0.00374897
-0.00139066
-0.00274504
0.000386736
0.00421626
0.000155177
0.00224962
-0.0013086
0.00235525
0.00180015
0.00333027
-0.00425413
-0.000649138
0.00061792
0.00428535
-0.0043931
-0.000362384
0.000501358
0.000670307
0.00430525
-0.00425272
-0.000722829
0.000363861
-0.0040992
-0.00468704
0.0029707
0.00373805
-0.0020217
-0.00163579
0.00372505
-0.0067763
-4.74169e-05
-0.000354329
1.62822e-05
0.000385463
-0.000730974
-0.000214243
0.000225964
-0.000265962
-0.000690975
-0.00016467
3.63051e-05
9.02658e-05
-7.39837e-05
2.68395e-05
6.34263e-05
0.00806271
0.00359729
-0.00630996
-0.00535004
0.00197734
-0.000474641
0.00656001
-0.00834082
0.00257793
0.00774023
0.00187233
-0.00661586
0.00159223
-0.0028658
0.00214559
-0.000872015
0.0023776
-0.00291936
0.00213398
-7.06045e-05
6.11618e-05
-6.84683e-06
-0.000152593
-1.47195e-05
-0.000476165
-7.04844e-05
-0.00298066
0.00542929
0.00331443
-0.00576305
0.00429817
-0.00490123
0.00287519
0.00484996
-0.00229585
0.0111605
-0.00258992
-0.000991127
-0.00757943
0.0010189
0.00621119
0.00393038
0.00084235
-0.00588492
0.00606147
5.07482e-05
-8.16823e-05
0.000138847
0.000903333
0.00184248
-0.000656751
-0.00208906
0.00114053
0.000111972
-0.000165433
5.38265e-05
0.000111606
-0.000441577
0.000276144
-0.00691593
0.00322982
-0.00199989
0.005686
-0.00586378
-0.00286543
0.00181329
-0.00266375
0.00222175
-0.00542178
0.00203947
-2.19363e-05
-0.000975161
-0.00104237
-0.000740654
0.00231908
0.000461044
-0.000872123
-8.78606e-05
0.000219329
-0.000802807
-9.1252e-05
-0.000278546
-0.00149942
-0.00116958
-0.000343103
7.56458e-05
0.00143704
-0.000850135
-0.00194917
0.00162972
0.000800832
0.000128258
-0.00177922
0.000511721
-5.39926e-05
0.000660947
-7.35799e-05
-0.000661699
0.000383153
8.19306e-05
-0.000743629
0.000207309
-0.000648886
0.00427421
0.00333123
-0.000178724
0.00212751
-0.00648164
-2.02629e-05
0.00227468
-0.00179944
-0.000454977
0.000270923
0.00318016
-0.00347135
0.00285591
0.00200008
-0.000845801
-0.00401018
-0.000631063
0.000101955
0.00338502
0.00384409
-0.00247507
-0.00157756
-0.00302981
0.00113755
0.00346982
-0.00125459
0.00350937
-0.00383234
0.000342015
-0.00462641
0.000400366
0.000259649
-1.45229e-05
0.0019556
-0.00103001
-0.00139589
0.000538408
-0.00119882
0.00261602
0.00107976
5.55953e-05
-0.000185238
0.000333125
6.80658e-05
-0.000215953
0.000995827
-0.00122165
4.05884e-05
-0.00035936
0.000835285
0.000519903
-0.000125771
9.95359e-05
-0.00655697
0.00334899
0.0064378
0.00768198
-0.00226556
-0.00828185
-0.00314081
0.00426582
-9.52898e-05
-0.000893825
-0.000183607
-0.000535704
1.03062e-05
4.4143e-05
-0.000130959
4.20656e-05
4.47505e-05
-0.000127325
0.000138259
3.32091e-05
-0.000287969
2.96845e-05
-0.000274504
-0.000318941
5.77411e-05
-0.000828373
-0.000339957
-0.00177097
-0.00192292
0.00224857
0.00144533
8.87612e-05
0.000878934
-0.00273867
-0.00254723
0.000713067
-0.00295734
0.00132616
-5.51965e-05
-0.00350029
0.000778523
-0.000235573
0.000837391
-0.00335325
0.00258988
-7.40239e-05
0.000643194
-0.00277245
0.00296665
0.00251331
-0.0101997
-0.00182016
0.00222403
0.00303545
-0.00352945
0.00209636
-0.000344251
-0.000176296
0.000304554
-0.000193028
1.67321e-05
0.000290304
-4.13866e-05
0.00479959
-0.00294388
-0.00231246
0.000456756
0.00419437
0.000212051
0.00562253
-0.00123238
-0.00602594
0.000423162
0.00397488
0.00122449
-0.000113717
-0.00384956
0.00438644
8.42599e-06
-0.000201454
0.000764192
-0.00218168
-0.00294193
0.00131385
0.00322697
0.00208991
-0.00012535
-0.00219389
0.000229331
0.000643566
-0.000194995
-0.00262619
0.000444571
0.00337032
0.000402294
-0.00238492
-0.000131796
4.64712e-05
-0.000162641
0.000137145
3.34614e-05
-7.96566e-06
5.70471e-05
2.90644e-06
-0.000222594
7.42829e-05
-0.000665738
0.000648502
-0.00255093
0.00376072
-0.00100248
0.00313392
-0.00474743
-0.00093742
-6.32041e-05
-0.00336314
0.00387092
-0.00450158
0.000365459
-0.00303274
-0.0021618
0.000692963
0.00275066
0.00287617
-0.00540399
0.00253426
0.00436638
-0.00414998
0.00223593
-0.00307961
0.00160598
-0.000762294
0.00244672
-0.00302046
0.00280967
0.00440921
0.00181703
0.00455967
-0.000286691
-0.00456136
0.000288382
0.0050087
-0.00067006
0.000221029
0.00532308
-0.00058261
-0.000223144
-0.00451732
0.00382411
-0.0010283
0.00252727
0.00429598
-0.00125637
0.000994595
-0.00403421
0.00108367
0.00437823
-0.00116591
-0.00388197
-0.00152795
0.00415355
0.000949977
-0.0036944
-0.00168375
0.00362561
-0.00218266
-0.00327167
0.00194145
0.00351287
-0.0022291
-0.00330861
0.00335505
0.00209093
0.00310352
-0.00135615
-0.0038383
0.00308232
-0.0032205
-0.00241449
0.00239953
0.00309729
-0.0019192
0.00260823
-0.00409146
0.00364508
-0.000909769
-0.00511602
0.000928391
0.00541666
-0.00122902
0.00182745
-0.00109522
0.00246702
-0.00259765
0.00122585
-0.000700772
0.00272609
-0.00312054
-8.94859e-05
0.000668417
0.000500832
-0.00251674
-0.00353356
0.00223384
-3.13271e-05
3.42335e-05
1.17878e-06
-3.25059e-05
-0.000278709
-0.00408358
0.00305369
-0.00340681
-0.000204585
0.00333268
0.000161557
-0.00357411
5.74128e-06
-0.000407338
0.00185309
0.000435405
-0.00188116
0.00198996
0.000412508
-0.00280981
0.00183831
0.00200474
-1.87607e-05
3.42148e-05
0.000244195
3.01427e-05
-4.89034e-05
6.43575e-05
-1.44294e-05
2.69116e-05
-0.000177152
1.07669e-05
-2.51963e-05
3.76785e-05
-7.52241e-05
3.95626e-05
-0.000453328
4.47224e-05
-0.000119947
8.4285e-05
5.32882e-05
-5.40282e-06
-0.000173657
-1.69335e-05
7.02218e-05
-2.23363e-05
0.000986175
0.00290712
-0.00379134
0.00147893
-0.00413236
0.0036396
0.00403442
0.000351631
-0.00117396
-0.00243704
0.00115036
0.00246064
-0.000713254
0.00271834
-0.00317905
0.000151572
-0.00330186
0.00392478
-0.00396272
-1.21842e-05
5.01239e-05
0.00392229
3.56769e-05
-3.31812e-05
-2.43369e-05
-0.00395766
1.92732e-05
0.00395087
-1.03671e-06
-2.75407e-05
0.00402033
5.75682e-05
-0.000127029
2.83299e-05
0.00411969
-0.000127695
0.00407018
-0.00404686
5.01614e-06
-0.000191448
0.00431129
-1.54607e-07
0.00395621
-7.74848e-05
-0.00392371
-6.55793e-05
-0.003911
-1.37547e-05
-0.00390637
3.10531e-05
-0.00399104
7.24886e-05
-0.00392668
-8.87e-05
-0.000185613
0.00449735
-4.36995e-07
0.00377073
-1.30328e-07
-1.93979e-05
-0.00392529
-1.29759e-05
-0.00395957
1.34855e-05
-2.76506e-05
-0.00415281
0.000255179
5.4219e-08
0.00449737
-7.57775e-08
0.00377136
-5.73528e-07
-0.00410583
0.000118614
0.00449751
2.24064e-07
-3.68422e-07
1.08123e-07
0.00449742
-1.31678e-08
0.00377167
-8.54257e-08
0.00377231
-5.38214e-07
-2.33565e-05
-0.00412865
-8.04919e-07
-0.00412869
-4.92578e-07
3.38902e-07
0.00449739
-3.13227e-07
0.0037727
-4.39632e-08
-8.99677e-08
-0.004128
-5.67795e-07
-0.0041278
-9.83126e-07
3.33581e-07
0.00449701
4.93052e-08
0.00377354
-5.0675e-07
9.46476e-09
-0.00412711
-8.9016e-07
-0.00412717
-6.24257e-07
8.01124e-07
0.00449647
-2.66111e-07
0.00377434
-5.87156e-09
-1.42502e-07
-0.00412634
-6.30284e-07
-0.00412619
-1.12106e-06
1.25425e-06
0.00449511
1.05137e-07
0.00377608
-4.79335e-07
-2.41015e-08
-0.00412539
-9.26684e-07
-0.00412542
-7.88659e-07
2.65299e-06
0.00449268
-2.23757e-07
0.0037787
3.15575e-08
9.38977e-06
-0.00413412
-6.65334e-07
-0.00411473
-1.30002e-06
4.95036e-06
0.00448758
1.57345e-07
0.0037841
-4.48784e-07
2.67527e-05
-0.00401729
-0.000143575
-0.00404434
-4.36417e-05
1.00422e-05
0.00447771
-1.80409e-07
0.00377656
1.75827e-05
2.65007e-05
-0.00403652
-7.27604e-06
-0.00401421
-3.6308e-06
1.96471e-05
0.00445786
2.12285e-07
0.00375002
4.61878e-05
5.72073e-05
-0.00389462
-0.000199103
-0.00389863
-5.83671e-05
0.000191144
0.00426684
-1.27861e-07
0.00386403
7.7129e-05
6.59805e-05
-0.00387756
-8.30435e-05
-0.0038564
2.37514e-05
0.000168766
0.00395219
0.000145882
0.00392768
0.000105121
0.000105428
-0.000148108
-0.00383488
-0.00384182
9.08384e-05
1.18067e-05
3.82115e-05
0.00390217
0.00390206
3.7422e-05
-0.00389154
0.00395223
-0.000143728
-0.00391406
-0.00012559
0.000180344
-0.000156136
-0.00385909
9.17238e-05
-0.0037532
-0.00386726
0.00390076
-4.07766e-05
-0.000114131
-0.00375916
0.00376017
-1.67016e-06
-1.98293e-06
-0.00376113
0.00376205
-1.55277e-06
-1.88788e-06
-0.00376293
0.00376377
-1.41022e-06
-1.7669e-06
-0.00376459
0.00402103
-1.25953e-06
-1.62018e-06
-0.0040095
0.00395431
7.44669e-05
-1.45098e-06
-0.00408127
0.004049
-9.08938e-07
-7.68423e-05
-0.00391911
0.00386158
-6.95055e-05
0.000102353
-0.00376964
0.00377013
-6.38185e-07
-3.57548e-05
-0.00377059
0.00377103
-5.16259e-07
-9.02833e-07
-0.00377146
0.00377186
-4.08789e-07
-7.94988e-07
-0.00377224
0.0037726
-3.11799e-07
-7.01179e-07
-0.00377296
0.00377328
-2.23737e-07
-6.16919e-07
-0.0037736
0.0037739
-1.42192e-07
-5.40544e-07
-0.00377419
0.00377446
-6.34929e-08
-4.68093e-07
-0.00375239
0.00384066
5.76123e-05
2.19453e-05
0.00383101
4.78622e-05
-2.33993e-05
7.55407e-05
0.00385003
-3.07695e-06
0.00388174
0.00385558
-0.00379207
1.36211e-05
-0.00389305
0.00388468
4.57883e-05
6.76565e-05
0.00379172
-0.00377391
-2.2443e-07
4.58317e-05
0.00377361
-0.00377329
-2.89339e-07
-7.51384e-07
0.00377296
-0.0037726
-3.57135e-07
-8.10948e-07
0.00377224
-0.00377185
-4.30764e-07
-8.73884e-07
0.00377144
-0.00377102
-5.12215e-07
-9.43967e-07
0.00377057
-0.0037701
-6.02459e-07
-1.0222e-06
0.00384647
-0.00384074
-7.15241e-07
-1.10766e-06
0.0039051
-0.00386274
-5.61136e-05
-1.22172e-06
0.0038374
-0.00381217
4.72663e-05
5.70671e-06
0.00385983
-0.00388481
3.84638e-05
-4.10422e-05
0.00376456
-0.00376375
-1.29863e-06
-1.63921e-06
0.00376291
-0.00376202
-1.51295e-06
-1.82212e-06
0.0037611
-0.00376013
-1.76156e-06
-2.04464e-06
0.00375912
-0.00380073
-2.03746e-06
-2.30144e-06
0.00380179
-0.00385784
-2.31554e-06
-2.57371e-06
0.00383125
-0.00377626
3.5852e-05
-2.83928e-06
-0.00373576
5.12257e-05
-0.00394492
-0.000125277
0.00384277
6.37782e-05
6.6791e-07
0.00388094
0.00014351
-0.000128555
-0.00376815
0.000115307
-0.00370756
0.000131219
-0.000121573
-0.00395457
-0.00385642
-0.00386887
0.00380576
-8.0616e-05
0.0039136
-0.00394709
-9.17802e-05
-8.08636e-05
-0.00375733
0.00375826
-4.17082e-05
-6.56978e-05
-0.00375932
0.00376032
-2.67316e-06
-3.0438e-06
-0.00376127
0.00376219
-2.46641e-06
-2.84128e-06
-0.00376306
0.00376389
-2.24056e-06
-2.63391e-06
-0.00376467
0.00376541
-1.99925e-06
-2.40599e-06
-0.00376613
0.00384235
-1.75716e-06
-2.16725e-06
-0.00376744
0.00376805
-1.51862e-06
-1.92737e-06
-0.00387213
0.00380392
-1.2983e-06
-1.72741e-06
-0.00376969
0.00377017
-1.12544e-06
-1.52209e-06
-0.00377064
0.00377108
-9.59336e-07
-1.36547e-06
-0.0037715
0.0037719
-8.10261e-07
-1.21444e-06
-0.00377228
0.00377265
-6.76411e-07
-1.08101e-06
-0.00377299
0.00377332
-5.55217e-07
-9.61028e-07
-0.00377363
0.00377393
-4.44409e-07
-8.52583e-07
-0.00377422
0.0037745
-3.39405e-07
-7.52781e-07
-0.00377447
0.00380504
2.7037e-05
2.19734e-05
8.98313e-06
-1.70023e-05
0.00385805
2.20994e-06
0.00384955
-0.00379365
0.00383118
2.62455e-05
5.92557e-05
0.00383353
-0.00383448
4.67381e-05
0.00380264
3.15537e-05
-2.30542e-06
4.54495e-05
0.00383779
0.00386243
0.00383512
-0.00380711
-1.43831e-05
6.82964e-05
0.00377423
-0.00377394
-5.17079e-07
1.29509e-05
0.00377363
-0.00377332
-6.0849e-07
-1.05454e-06
0.00377298
-0.00377263
-7.07355e-07
-1.14184e-06
0.00377227
-0.00377188
-8.16964e-07
-1.23864e-06
0.00377148
-0.00377105
-9.38706e-07
-1.3468e-06
0.00377061
-0.00377014
-1.07376e-06
-1.46762e-06
0.00376964
-0.00376912
-1.23276e-06
-1.60513e-06
0.00376858
-0.00382329
-1.40281e-06
-1.76397e-06
0.00381564
-0.00376677
-1.60785e-06
-1.94446e-06
0.00380567
-0.00376537
-1.83507e-06
-2.13965e-06
0.00376463
-0.00376383
-2.0928e-06
-2.38258e-06
0.003763
-0.00376213
-2.38764e-06
-2.65028e-06
0.00376122
-0.00376026
-2.71952e-06
-2.95521e-06
0.00375927
-0.00375822
-3.08235e-06
-3.29534e-06
0.00375714
-0.00375599
-3.46043e-06
-3.65818e-06
0.0037548
-0.0037151
-3.84529e-06
-4.03381e-06
0.00369301
-0.00364169
6.39843e-05
2.91351e-05
-0.00397551
-9.31547e-05
0.000102407
-0.000159062
-0.0036509
-0.00361833
7.9046e-05
-0.000213924
-0.00371329
2.50913e-05
0.0038083
0.00380833
3.97611e-05
-5.84472e-05
8.33766e-05
-0.0039795
-5.45829e-05
-0.00397938
7.77922e-05
-0.000157785
-0.00357091
5.43236e-05
-0.00359486
-0.00398697
0.00384093
-0.00382966
1.49718e-05
0.00380155
6.44701e-05
6.82087e-05
-2.94077e-05
0.00379899
4.4816e-05
0.00383172
-0.00393298
0.00397505
-9.66479e-05
-0.000107565
8.92337e-05
-0.00396105
0.00402081
-8.70287e-05
0.000320945
-0.00425472
-1.97399e-05
-0.00396981
0.00393797
-5.99441e-05
-8.79155e-05
-0.00388669
0.00382476
-1.86823e-05
-2.95877e-05
-0.00379624
0.00375852
-3.99189e-06
-3.71748e-05
-0.00375956
0.00376055
-3.66561e-06
-4.0811e-06
-0.00376149
0.00376239
-3.36352e-06
-3.77984e-06
-0.00376324
0.00376405
-3.05302e-06
-3.48346e-06
-0.00376482
0.00376555
-2.7333e-06
-3.17481e-06
-0.00376625
0.00376691
-2.41551e-06
-2.86208e-06
-0.00376754
0.00376814
-2.1168e-06
-2.55972e-06
-0.00376869
0.00376924
-1.84641e-06
-2.28605e-06
-0.00376976
0.00377024
-1.61156e-06
-2.03709e-06
-0.0037707
0.00377114
-1.40027e-06
-1.82536e-06
-0.00377156
0.00377196
-1.2096e-06
-1.63133e-06
-0.00377234
0.0037727
-1.03829e-06
-1.45835e-06
-0.00377304
0.00377337
-8.83694e-07
-1.30303e-06
-0.00377368
0.00377398
-7.43649e-07
-1.16325e-06
-0.00377426
0.00377454
-6.14151e-07
-1.03658e-06
-0.00378521
0.00379176
2.0485e-05
1.13023e-05
2.13614e-05
2.49942e-05
-8.94876e-06
0.003842
-4.05679e-05
1.14137e-05
0.00383745
0.00383397
0.00382407
0.00382282
-0.00381874
4.26508e-05
-0.00381734
0.00379656
6.05459e-05
3.70347e-05
0.0037748
-0.00378847
-7.05618e-07
2.43547e-05
0.00377427
-0.00377397
-8.08308e-07
-1.25683e-06
0.00377367
-0.00377336
-9.24892e-07
-1.35409e-06
0.00377303
-0.00377268
-1.05533e-06
-1.47034e-06
0.00377232
-0.00377194
-1.20088e-06
-1.6008e-06
0.00377154
-0.00377111
-1.36289e-06
-1.74683e-06
0.00377067
-0.0037702
-1.54356e-06
-1.91015e-06
0.00376971
-0.00376919
-1.74981e-06
-2.09474e-06
0.00376865
-0.00376808
-1.97923e-06
-2.30454e-06
0.00376748
-0.00376684
-2.24093e-06
-2.54232e-06
0.00376617
-0.00376547
-2.53763e-06
-2.80969e-06
0.00376474
-0.00376396
-2.87243e-06
-3.11897e-06
0.00376314
-0.00376228
-3.2468e-06
-3.46412e-06
0.00376139
-0.00376045
-3.66128e-06
-3.84975e-06
0.00375947
-0.00375844
-4.112e-06
-4.27416e-06
0.00375737
-0.00375623
-4.59125e-06
-4.73061e-06
0.00375505
-0.0037538
-5.09733e-06
-5.214e-06
0.00371894
-0.00364933
-5.63131e-06
-5.72367e-06
0.00360867
-0.00361567
6.13193e-05
3.8393e-05
6.93393e-05
-6.80822e-05
-0.00359611
-0.00359796
5.16291e-05
0.000116733
-0.004007
-9.44837e-05
-0.00377659
3.78599e-05
0.0037751
0.00380959
3.17842e-05
0.000138578
-0.00418665
2.15697e-06
-0.00364115
0.000817702
-0.00336248
0.00438309
-6.58992e-05
4.38356e-05
-0.0035759
-0.00010036
-0.00356165
-0.00265598
0.00404056
0.000620155
-0.00207578
-0.000144792
-0.00396472
-0.00382924
0.00398928
0.000160904
0.000339689
-0.000128365
-0.00394951
0.00391258
-5.97176e-05
2.0027e-05
-0.00387952
0.00382587
-6.30025e-06
-5.48467e-05
-0.00380245
0.00378938
-5.61017e-06
-6.16951e-06
-0.00375777
0.00375886
-5.07622e-06
-5.56708e-06
-0.00375988
0.00376085
-4.63856e-06
-5.10206e-06
-0.00376177
0.00376265
-4.23902e-06
-4.6979e-06
-0.00376347
0.00376426
-3.8441e-06
-4.31122e-06
-0.00376501
0.00376573
-3.4492e-06
-3.92372e-06
-0.00376641
0.00376706
-3.06463e-06
-3.54033e-06
-0.00376767
0.00376826
-2.7057e-06
-3.17518e-06
-0.00376882
0.00376935
-2.38092e-06
-2.84257e-06
-0.00376986
0.00377034
-2.09371e-06
-2.54294e-06
-0.0037708
0.00377123
-1.83659e-06
-2.28078e-06
-0.00377164
0.00377204
-1.60492e-06
-2.04407e-06
-0.00377241
0.00377277
-1.39641e-06
-1.83204e-06
-0.00377311
0.00377344
-1.20859e-06
-1.64169e-06
-0.00377374
0.00377404
-1.0393e-06
-1.47077e-06
-0.00377432
0.00377459
-8.86391e-07
-1.31731e-06
-0.00378708
0.00380832
-7.55822e-07
-1.1841e-06
-0.00379926
0.00379707
1.7164e-05
3.04193e-05
-0.00381204
0.00380781
4.20921e-05
4.94959e-05
5.32525e-05
-2.96819e-05
0.00381388
-3.30638e-05
7.66648e-06
0.00383321
0.00379529
3.72326e-05
1.53365e-05
0.00378944
0.00384152
-2.61918e-05
1.80724e-05
0.00380711
0.00381322
-2.2507e-05
3.48633e-06
0.00382861
0.00382729
0.0038316
-0.00381809
4.70363e-05
-0.00389079
0.00378696
0.000107318
-2.74099e-05
0.0038086
-0.0038006
3.46565e-05
2.75455e-05
0.00377484
-0.00377457
-9.67061e-07
-1.41319e-06
0.00377431
-0.00377402
-1.09411e-06
-1.52321e-06
0.00377373
-0.00377341
-1.23775e-06
-1.6498e-06
0.00377309
-0.00377274
-1.39998e-06
-1.79547e-06
0.00377239
-0.00377201
-1.58121e-06
-1.95953e-06
0.00377161
-0.00377119
-1.7833e-06
-2.14323e-06
0.00377075
-0.00377028
-2.00881e-06
-2.34867e-06
0.0037698
-0.00376929
-2.263e-06
-2.57974e-06
0.00376875
-0.00376818
-2.54758e-06
-2.84049e-06
0.00376759
-0.00376696
-2.86916e-06
-3.135e-06
0.0037663
-0.00376561
-3.23179e-06
-3.46657e-06
0.00376489
-0.00376412
-3.63801e-06
-3.84307e-06
0.00376332
-0.00376248
-4.08878e-06
-4.26217e-06
0.0037616
-0.00376068
-4.58451e-06
-4.72623e-06
0.00375972
-0.00375871
-5.12412e-06
-5.23481e-06
0.00375765
-0.00375654
-5.7062e-06
-5.78621e-06
0.00375537
-0.00375413
-6.33339e-06
-6.38084e-06
0.00375284
-0.00375145
-7.0151e-06
-7.02306e-06
0.00370533
-0.00363625
-7.76573e-06
-7.7281e-06
0.00363878
-0.00362514
3.01917e-05
5.41679e-05
5.27885e-05
-4.97228e-05
-0.00357896
-0.00360027
2.7919e-05
0.00011302
-0.00398144
-2.90258e-05
-0.00374541
0.000291581
-0.00366053
2.2409e-06
-0.00374375
0.00380913
-0.00381473
4.77017e-05
0.00379583
2.09652e-05
4.77969e-05
-3.25286e-05
0.00381334
1.26074e-05
0.00382215
0.000279716
-0.00322969
4.23387e-06
-0.00361561
-0.00194827
-0.00200867
-0.00315007
0.00361809
0.00015214
8.18844e-05
-5.632e-05
-0.00360453
5.72161e-05
-0.0035756
-0.00293247
-0.000362395
-0.00388073
-0.00377284
0.00382157
0.00011217
0.000184938
-0.00385097
0.00379986
-8.60066e-06
-9.37361e-06
-0.00375332
0.00375463
-7.6182e-06
-8.30643e-06
-0.00375588
0.00375707
-6.79989e-06
-7.41757e-06
-0.0037582
0.00375926
-6.14001e-06
-6.69138e-06
-0.00376026
0.00376121
-5.58845e-06
-6.103e-06
-0.0037621
0.00376295
-5.08988e-06
-5.59202e-06
-0.00376376
0.00376453
-4.61127e-06
-5.11449e-06
-0.00376525
0.00376595
-4.14486e-06
-4.65023e-06
-0.00376661
0.00376724
-3.69786e-06
-4.20055e-06
-0.00376784
0.00376842
-3.28244e-06
-3.77645e-06
-0.00376897
0.00376949
-2.9055e-06
-3.38895e-06
-0.00376999
0.00377046
-2.56883e-06
-3.03985e-06
-0.00377091
0.00377134
-2.26693e-06
-2.72994e-06
-0.00377175
0.00377214
-1.99489e-06
-2.45118e-06
-0.00377251
0.00377286
-1.74989e-06
-2.20083e-06
-0.00377319
0.00377352
-1.52906e-06
-1.97589e-06
-0.00377382
0.00377411
-1.33061e-06
-1.77401e-06
-0.00377439
0.00377465
-1.15302e-06
-1.59338e-06
-0.0037749
0.00377514
-9.9613e-07
-1.43406e-06
-0.00380686
0.00379377
3.02549e-05
-1.29747e-06
2.85298e-05
4.08391e-05
-6.51008e-05
0.00383815
-1.70511e-05
2.93807e-05
0.00382088
0.00381908
-2.40148e-08
-1.59338e-07
0.00378962
0.0037764
-3.6657e-05
5.46031e-05
0.00378916
0.0037764
0.00384936
0.00383373
-0.00382236
3.56722e-05
-0.00378608
0.00382454
6.88526e-05
2.02391e-05
0.00381087
-0.00377512
-1.09309e-06
1.60546e-05
0.00377488
-0.00377463
-1.22309e-06
-1.65239e-06
0.00377436
-0.00377408
-1.37423e-06
-1.7872e-06
0.00377379
-0.00377348
-1.54623e-06
-1.94091e-06
0.00377316
-0.00377282
-1.74017e-06
-2.11634e-06
0.00377247
-0.00377209
-1.95704e-06
-2.31383e-06
0.0037717
-0.00377129
-2.19861e-06
-2.53484e-06
0.00377085
-0.00377039
-2.4682e-06
-2.78185e-06
0.00376991
-0.00376941
-2.77026e-06
-3.05876e-06
0.00376888
-0.00376832
-3.10833e-06
-3.3698e-06
0.00376773
-0.00376711
-3.48808e-06
-3.7196e-06
0.00376647
-0.00376579
-3.91387e-06
-4.1124e-06
0.00376508
-0.00376433
-4.38829e-06
-4.55363e-06
0.00376354
-0.00376272
-4.91258e-06
-5.04344e-06
0.00376186
-0.00376096
-5.48797e-06
-5.58365e-06
0.00376002
-0.00375903
-6.11668e-06
-6.17583e-06
0.00375799
-0.00375689
-6.80217e-06
-6.82258e-06
0.00375575
-0.00375453
-7.55141e-06
-7.52914e-06
0.00375325
-0.00375188
-8.37624e-06
-8.3042e-06
0.00375045
-0.00374892
-9.2963e-06
-9.16297e-06
0.00368462
-0.00364408
-1.03414e-05
-1.01362e-05
0.00360492
-0.00357595
2.82403e-05
-1.12386e-05
9.90235e-05
-6.33456e-05
-0.00361128
-0.0035546
7.76784e-05
8.35593e-05
-0.00377342
4.12254e-07
-0.00374358
4.68076e-05
0.0037784
0.0038102
2.69521e-05
0.000165774
-0.00354659
-0.000479531
-0.00427854
-7.55208e-05
-0.0036337
2.32598e-06
-0.00374184
4.45951e-06
-0.00367639
-0.00422039
-0.000720747
0.000139881
-0.000430702
-0.00392957
-0.000314585
-0.00382408
-5.69187e-05
-0.00361095
6.09368e-05
-0.000118088
-0.00355413
0.000101867
-0.00359553
-0.00379675
-0.00343547
0.00358801
-3.94111e-07
0.003613
-0.00398046
-0.000353284
-0.000184869
-0.00369806
0.00374962
6.06064e-05
7.48909e-05
-0.00375109
0.00375252
-1.00242e-05
-1.08462e-05
-0.00375387
0.00375516
-8.91231e-06
-9.6616e-06
-0.00375639
0.00375756
-7.96909e-06
-8.64496e-06
-0.00375866
0.00375971
-7.18284e-06
-7.79256e-06
-0.00376068
0.00376161
-6.51417e-06
-7.08096e-06
-0.00376248
0.0037633
-5.91526e-06
-6.46123e-06
-0.00376408
0.00376482
-5.35417e-06
-5.89274e-06
-0.00376553
0.0037662
-4.81933e-06
-5.35382e-06
-0.00376684
0.00376746
-4.31366e-06
-4.84143e-06
-0.00376804
0.00376861
-3.84518e-06
-4.36212e-06
-0.00376914
0.00376966
-3.41887e-06
-3.92325e-06
-0.00377014
0.00377061
-3.03518e-06
-3.52663e-06
-0.00377105
0.00377147
-2.68998e-06
-3.17128e-06
-0.00377187
0.00377226
-2.37849e-06
-2.85145e-06
-0.00377262
0.00377297
-2.09758e-06
-2.56362e-06
-0.0037733
0.00377361
-1.84442e-06
-2.3047e-06
-0.00377391
0.0037742
-1.61671e-06
-2.07215e-06
-0.00377447
0.00377473
-1.41292e-06
-1.86404e-06
-0.00377497
0.00377521
-1.23279e-06
-1.67953e-06
-0.00377543
0.00380675
-1.07181e-06
-1.51677e-06
-0.00380968
0.0038186
3.87831e-05
2.56009e-05
-0.00376764
0.00378378
3.06715e-05
7.19276e-05
6.41616e-05
-4.73954e-05
0.00380411
-1.42772e-05
-7.52489e-06
0.00380558
0.00382828
4.75753e-05
1.81816e-07
0.00379039
0.00381926
-1.33973e-08
-1.62019e-07
0.00378979
0.00377657
3.32818e-07
-5.08993e-07
0.00378934
0.00377657
-2.77093e-05
2.22033e-05
0.00381885
0.00382114
-1.59316e-05
2.09344e-05
0.0038052
0.00382842
0.00383723
-0.00379392
2.55375e-05
-0.00381952
0.0037971
4.33484e-05
4.46676e-05
0.00380149
-0.0037932
2.73837e-05
2.78119e-05
0.0037754
-0.00377518
-1.31536e-06
-1.74719e-06
0.00377494
-0.00377469
-1.47188e-06
-1.88718e-06
0.00377443
-0.00377416
-1.64894e-06
-2.04587e-06
0.00377387
-0.00377357
-1.84958e-06
-2.22684e-06
0.00377325
-0.00377292
-2.07514e-06
-2.43211e-06
0.00377257
-0.0037722
-2.32711e-06
-2.66272e-06
0.00377181
-0.00377141
-2.6077e-06
-2.92052e-06
0.00377098
-0.00377053
-2.92035e-06
-3.20835e-06
0.00377006
-0.00376956
-3.26966e-06
-3.53025e-06
0.00376904
-0.00376848
-3.6598e-06
-3.89062e-06
0.00376791
-0.0037673
-4.09587e-06
-4.29426e-06
0.00376667
-0.003766
-4.5824e-06
-4.74577e-06
0.0037653
-0.00376457
-5.1224e-06
-5.24955e-06
0.00376381
-0.003763
-5.71765e-06
-5.80732e-06
0.00376216
-0.00376128
-6.3714e-06
-6.42169e-06
0.00376036
-0.00375939
-7.0885e-06
-7.09651e-06
0.00375837
-0.0037573
-7.87674e-06
-7.83808e-06
0.00375617
-0.00375497
-8.74672e-06
-8.65566e-06
0.00375372
-0.00375238
-9.71264e-06
-9.56133e-06
0.00375097
-0.00374947
-1.07943e-05
-1.05715e-05
0.0037479
-0.00374622
-1.20174e-05
-1.17105e-05
0.00374446
-0.0037028
-1.34135e-05
-1.30054e-05
0.00366206
-0.00359441
3.42155e-05
3.6933e-05
4.93801e-05
-8.23459e-05
-0.00356257
-0.00359276
4.77354e-05
5.47854e-05
-0.00366243
-0.00403635
-0.000374819
1.90498e-05
-0.00364116
0.00383255
-0.00384203
4.01546e-05
0.0038292
-4.17275e-06
4.13631e-05
-3.53192e-05
0.00379915
5.14886e-05
0.00378698
3.95273e-07
-0.00374165
2.43484e-06
-0.00373982
-0.000113318
-0.00383497
4.70505e-06
-0.00373801
7.20344e-06
-0.00373625
9.93767e-06
-0.00364641
6.89456e-05
-3.51423e-05
-0.00359637
2.54369e-05
-0.00354925
-0.00374157
-0.00389167
0.00370598
-0.000167592
-0.00030694
0.000423004
-0.00415241
0.00405885
-0.00422382
-0.00014197
-0.000207637
-0.00357415
0.00363686
-6.31016e-05
-5.30403e-05
-0.00370918
0.00375026
1.95265e-05
2.56968e-06
-0.00375172
0.00375312
-1.14236e-05
-1.23051e-05
-0.00375445
0.00375572
-1.01865e-05
-1.09935e-05
-0.00375693
0.00375808
-9.11637e-06
-9.85093e-06
-0.00375916
0.00376018
-8.20296e-06
-8.87135e-06
-0.00376113
0.00376203
-7.41626e-06
-8.0359e-06
-0.00376288
0.00376368
-6.71659e-06
-7.30652e-06
-0.00376443
0.00376515
-6.07386e-06
-6.64728e-06
-0.00376584
0.00376649
-5.47295e-06
-6.03539e-06
-0.00376711
0.00376771
-4.91161e-06
-5.463e-06
-0.00376828
0.00376883
-4.39307e-06
-4.93141e-06
-0.00376935
0.00376985
-3.91975e-06
-4.44417e-06
-0.00377032
0.00377078
-3.49131e-06
-4.00205e-06
-0.00377121
0.00377163
-3.10436e-06
-3.60338e-06
-0.00377202
0.00377239
-2.75457e-06
-3.24372e-06
-0.00377275
0.00377309
-2.43868e-06
-2.91941e-06
-0.00377341
0.00377372
-2.15371e-06
-2.62727e-06
-0.00377402
0.0037743
-1.89711e-06
-2.36454e-06
-0.00377456
0.00377481
-1.667e-06
-2.12901e-06
-0.00377505
0.00377528
-1.46207e-06
-1.91924e-06
-0.0037755
0.00377571
-1.27777e-06
-1.73316e-06
-0.00380287
0.00381662
2.50421e-05
-1.56745e-06
4.65088e-05
1.86643e-05
-4.22229e-05
0.00382767
-2.94801e-05
2.91462e-06
0.00383214
0.00381747
-3.12827e-07
1.53696e-07
0.00379055
0.00377673
4.68861e-09
-1.66017e-07
0.00378996
0.00377672
3.27047e-07
-4.91859e-07
0.0037895
0.00377673
-4.3906e-05
3.27299e-05
0.00383002
0.00377674
0.00382583
0.00383168
-0.00383405
2.79057e-05
-0.00382339
0.00380672
6.00209e-05
5.29514e-05
0.00380443
-0.00377567
-1.37712e-06
-1.80517e-06
0.00377546
-0.00377524
-1.53542e-06
-1.95279e-06
0.00377501
-0.00377477
-1.71471e-06
-2.11529e-06
0.00377452
-0.00377425
-1.91795e-06
-2.29886e-06
0.00377397
-0.00377367
-2.1471e-06
-2.50706e-06
0.00377336
-0.00377303
-2.40392e-06
-2.74195e-06
0.00377269
-0.00377233
-2.69039e-06
-3.00521e-06
0.00377195
-0.00377155
-3.00916e-06
-3.2991e-06
0.00377113
-0.00377068
-3.364e-06
-3.62686e-06
0.00377022
-0.00376973
-3.75939e-06
-3.99269e-06
0.00376922
-0.00376868
-4.20009e-06
-4.40118e-06
0.00376812
-0.00376752
-4.69082e-06
-4.85716e-06
0.0037669
-0.00376625
-5.23617e-06
-5.36528e-06
0.00376557
-0.00376485
-5.83944e-06
-5.92969e-06
0.00376411
-0.00376332
-6.5039e-06
-6.55335e-06
0.0037625
-0.00376164
-7.23448e-06
-7.24019e-06
0.00376074
-0.00375979
-8.03888e-06
-7.99644e-06
0.0037588
-0.00375774
-8.92824e-06
-8.83156e-06
0.00375664
-0.00375547
-9.91625e-06
-9.75806e-06
0.00375424
-0.00375294
-1.10189e-05
-1.07907e-05
0.00375156
-0.0037501
-1.22561e-05
-1.1947e-05
0.00374856
-0.00374693
-1.36517e-05
-1.32496e-05
0.00374521
-0.00374339
-1.52342e-05
-1.47233e-05
0.00369006
-0.00363882
-1.7021e-05
-1.63954e-05
0.00361476
-0.00361841
2.90792e-05
2.36778e-05
-0.000205296
3.18853e-05
-0.00365067
-0.00371186
7.02134e-05
-3.68103e-05
-0.00358266
-0.00355856
1.03683e-05
1.64916e-06
-0.00364503
4.50261e-05
0.00378709
0.0038387
1.95094e-05
9.80581e-05
-0.00419132
-0.000130558
3.99998e-07
-0.00373961
0.000210224
-0.00426458
-3.52895e-05
-0.00371919
2.56658e-06
-0.00373768
-4.37436e-05
-0.00375934
4.968e-06
-0.00373578
7.61568e-06
-0.00373392
1.05246e-05
-0.00369208
-2.63448e-05
-0.00360684
3.9014e-05
-4.0277e-05
-0.00358139
4.10185e-05
-0.00356057
-0.00373952
-0.00415081
0.00398126
2.75795e-05
-0.000228161
-0.0041313
0.000168141
0.00427025
-0.0041705
-0.000327904
-1.11203e-05
-0.00386805
0.00378212
-8.16626e-05
-9.44254e-05
-0.0037462
0.00369913
-1.60327e-05
-1.71215e-05
-0.00371706
0.00375093
-1.43478e-05
-1.53558e-05
-0.00375237
0.00375374
-1.28009e-05
-1.37427e-05
-0.00375505
0.0037563
-1.1437e-05
-1.23022e-05
-0.00375749
0.00375861
-1.02396e-05
-1.1033e-05
-0.00375966
0.00376066
-9.19987e-06
-9.92641e-06
-0.00376159
0.00376247
-8.29572e-06
-8.96809e-06
-0.0037633
0.00376408
-7.49603e-06
-8.12967e-06
-0.00376481
0.00376551
-6.77252e-06
-7.38039e-06
-0.00376617
0.0037668
-6.10711e-06
-6.69673e-06
-0.00376741
0.00376799
-5.49197e-06
-6.06606e-06
-0.00376854
0.00376907
-4.92544e-06
-5.48423e-06
-0.00376958