/*--------------------------------*- C++ -*----------------------------------*\
  =========                 |
  \\      /  F ield         | OpenFOAM: The Open Source CFD Toolbox
   \\    /   O peration     | Website:  https://openfoam.org
    \\  /    A nd           | Version:  10
     \\/     M anipulation  |
\*---------------------------------------------------------------------------*/
FoamFile
{
    format      ascii;
    class       volScalarField;
    location    "30.5";
    object      p;
}
// * * * * * * * * * * * * * * * * * * * * * * * * * * * * * * * * * * * * * //

dimensions      [0 2 -2 0 0 0 0];

internalField   nonuniform List<scalar> 
28942
(
-5.40613
-5.48943
-1.3853
1.24022
1.28753
-0.0776684
-0.0648638
-0.0765297
0.254805
0.29357
-3.68651
-3.64361
-3.8143
-3.89248
-0.000936825
0.0017312
2.38679
2.54065
0.174264
1.096
1.58825
1.60303
-3.66495
-3.57667
-3.90351
-3.78137
4.20428
4.46873
-0.326014
-0.322335
-0.0930177
-0.0934563
0.0479258
-0.00582581
0.472729
0.853021
2.54492
3.28395
-0.093467
2.28182
1.38403
1.34265
-0.00749565
0.0205647
0.120262
-0.0613085
-0.0541671
-0.048337
-0.0477971
-0.0422885
-0.0275244
0.395122
0.398089
0.292946
0.338084
-2.77652
-2.18217
-3.78599
-3.7523
-3.70283
-3.73454
-3.76806
-3.81289
-0.978849
-1.46595
-0.600188
-0.27523
2.4251
2.27923
-5.4061
-5.42376
-5.41524
2.36043
2.28935
2.34653
-2.69075
-2.69589
-2.05494
-1.32469
-1.70052
-1.09892
-1.82132
-5.61108
-5.89678
-1.12515
-0.498399
0.0594515
-0.105155
-0.619452
-0.418696
-0.14285
0.182663
-4.0206
-3.68693
-4.34635
-4.40886
-4.38011
0.0648052
0.290885
-5.925
1.33301
1.34722
1.39948
1.3329
-0.315353
-0.247523
-0.320131
0.633935
0.671973
0.699436
-3.85682
-3.93586
-5.66899
-5.95538
-5.62756
4.87526
4.50794
4.25824
4.60358
-0.857257
0.189249
-0.213202
0.0776543
-0.124684
5.24902
5.41023
5.17405
-0.0475975
0.247904
-0.0506661
-0.0456293
-0.0556911
2.35543
3.03983
1.06371
1.02851
1.23059
0.902031
1.83932
1.82581
-4.7108
-4.58892
0.187684
0.271776
0.237787
-1.79231
-1.91416
-1.72052
-4.55222
0.656422
0.467273
-0.994124
-0.0366396
-0.054747
-0.0609768
-0.047354
1.19992
0.390795
-4.1042
-4.15672
-4.3564
-5.27613
-4.55624
-0.0262402
-3.241
-2.95201
1.72373
1.79532
2.17861
2.04699
1.55107
0.304485
0.306429
0.417687
0.377274
0.509917
0.426496
0.539309
0.613967
0.577041
0.579494
0.648087
0.857355
0.742885
0.597585
0.727547
0.985044
1.33626
1.47292
-3.62388
-3.00453
-5.41408
-0.061429
-0.0447035
-3.98909
-4.10308
-0.0375496
-0.0310356
-0.0345912
-0.0436498
-2.82036
-2.82188
-2.57073
-4.05472
-4.07023
-4.32783
-3.65896
-3.63989
-3.68386
-3.64063
-3.8623
-3.69341
4.7531
4.53039
4.80643
-0.19408
-0.113095
-0.120171
2.59924
2.51976
2.55498
-3.50046
-3.71815
-3.24276
-3.87614
-3.9643
-3.97551
-4.04571
-3.90668
-3.97696
-4.03207
-3.94073
-3.77779
-3.55452
-3.29366
-3.76775
-3.82925
-2.96068
-3.00596
-2.67535
-3.57112
-3.61559
-2.71384
-3.32972
-3.06226
-3.36256
-3.08499
-2.41578
-2.44505
-2.78643
-2.79904
-2.17511
-2.20081
-2.51722
-2.52076
-1.96585
-1.9849
-2.26734
-2.26258
-1.78932
-1.8019
-2.0448
-2.03297
-1.64732
-1.65208
-1.85399
-1.83551
-1.53866
-1.53548
-1.6957
-1.67175
-1.46149
-1.45036
-1.56906
-1.53939
-1.41201
-1.39377
-1.47174
-1.43597
-1.38832
-1.3636
-1.40318
-1.36001
-1.38911
-1.35718
-1.36153
-1.31112
-1.41465
-1.375
-1.34918
-1.28955
-1.39163
-1.42595
-1.46955
-1.41923
-1.40021
-1.38371
-1.50883
-1.44048
-1.73784
-1.6069
-2.09998
-1.90247
-2.58442
-2.32946
-3.1164
-2.84823
-3.57663
-3.36901
-3.81357
-3.72774
-3.75728
-3.82314
-3.43929
-3.6257
-2.95671
-3.21033
-2.44249
-2.69589
-1.99972
-2.20799
-1.67567
-1.82201
-1.47532
-1.56075
-1.38824
-1.41838
-1.38764
-1.36631
-1.29636
-1.29996
-1.2147
-1.24487
-1.4849
-1.37917
-1.78468
-1.61916
-2.21439
-1.98362
-2.75311
-2.47351
-3.32315
-3.0416
-3.79423
-3.57987
-4.01996
-3.94713
-3.91808
-4.00859
-3.53271
-3.75515
-2.98062
-3.26625
-2.41423
-2.69216
-1.94745
-2.16503
-1.61285
-1.76409
-1.40424
-1.49366
-1.3084
-1.34357
-1.30672
-1.29649
-1.34209
-1.49099
-1.4151
-1.2114
-1.49323
-1.40276
-1.58943
-1.55687
-1.36737
-1.48354
-1.41003
-1.36283
-1.35266
-1.45579
-1.39666
-1.66187
-1.5432
-1.99524
-1.81281
-2.4401
-2.20609
-2.93552
-2.68645
-3.36452
-3.1663
-3.59086
-3.50826
-3.54607
-3.60501
-3.25205
-3.42468
-2.80436
-3.03976
-2.32859
-2.56264
-1.92213
-2.11286
-1.62909
-1.76058
-1.45555
-1.52792
-1.39243
-1.41054
-1.41074
-1.46772
-1.43548
-1.40085
-1.12705
-1.11464
-1.23221
-1.33033
-1.22062
-1.16293
-1.40615
-1.30054
-1.70407
-1.53985
-2.12785
-1.90052
-2.65782
-2.38273
-3.22074
-2.94226
-3.68382
-3.47437
-3.9074
-3.83232
-3.81241
-3.90018
-3.43909
-3.65491
-2.89736
-3.1776
-2.34013
-2.61325
-1.87496
-2.09116
-1.54408
-1.69325
-1.33534
-1.42569
-1.23131
-1.27137
-1.21716
-1.21333
-1.29037
-1.24225
-1.5888
-1.49074
-1.36374
-1.59707
-1.49408
-1.12463
-1.71777
-1.71933
-1.6101
-1.46413
-1.67745
-1.42532
-1.48834
-1.27829
-1.15896
-1.69364
-1.87166
-2.05295
-1.86072
-1.44773
-1.55674
-1.31955
-1.36858
-1.30214
-1.29816
-1.37948
-1.32918
-1.56037
-1.45569
-1.85859
-1.69499
-2.26122
-2.04893
-2.71155
-2.48599
-3.10411
-2.92274
-3.31517
-3.23768
-3.27885
-3.32947
-3.01448
-3.17019
-2.61099
-2.82319
-2.18215
-2.39302
-1.81755
-1.98825
-1.55861
-1.67398
-1.41184
-1.47157
-1.36965
-1.37795
-1.3854
-1.4791
-1.57652
-1.54349
-1.38701
-1.02817
-1.01084
-1.00938
-1.12414
-1.06688
-1.30673
-1.20336
-1.59612
-1.43697
-2.00422
-1.78556
-2.51386
-2.24921
-3.05683
-2.78797
-3.50434
-3.30209
-3.71922
-3.64668
-3.63486
-3.71516
-3.27979
-3.48531
-2.76384
-3.03251
-2.23063
-2.49272
-1.7796
-1.99015
-1.45581
-1.60163
-1.24965
-1.33938
-1.14035
-1.18408
-1.11263
-1.11667
-1.16378
-1.12837
-1.30358
-1.22197
-1.5902
-1.40601
-1.87005
-1.73503
-1.57626
-1.03249
-2.06611
-1.75744
-2.40658
-1.52753
-1.73492
-2.47476
-2.75524
-1.82614
-2.01691
-2.23353
-1.63948
-1.81777
-1.38389
-1.49508
-1.24932
-1.30246
-1.22028
-1.22271
-1.28262
-1.24058
-1.43787
-1.34761
-1.6984
-1.55499
-2.05315
-1.86586
-2.45428
-2.25295
-2.8056
-2.64329
-2.99782
-2.92708
-2.97049
-3.0126
-2.73961
-2.87624
-2.38506
-2.57156
-2.00777
-2.1933
-1.688
-1.8374
-1.46403
-1.56312
-1.34278
-1.3908
-1.31812
-1.31891
-1.38504
-1.34028
-1.54622
-1.45353
-1.68083
-1.66237
-1.68808
-1.56821
-1.641
-1.34789
-1.46771
-1.07263
-1.21325
-0.89164
-0.930249
-0.903549
-0.919448
-0.897006
-1.01515
-0.958913
-1.19106
-1.09168
-1.4669
-1.31564
-1.85184
-1.64594
-2.33079
-2.0821
-2.84115
-2.58843
-3.26326
-3.07197
-3.4677
-3.39863
-3.39231
-3.46514
-3.0636
-3.25455
-2.58411
-2.83425
-2.08563
-2.3305
-1.66166
-1.8606
-1.35168
-1.49194
-1.15059
-1.23865
-1.03857
-1.08466
-0.999694
-1.01048
-1.0294
-1.00588
-1.13462
-1.07234
-1.31514
-1.21693
-1.66355
-1.42622
-2.05658
-1.90246
-2.34469
-1.92901
-1.48774
-1.60592
-1.13282
-0.978785
-2.77559
-1.8962
-2.98765
-2.38533
-1.80411
-1.54261
-2.66671
-2.00521
-1.91461
-2.13421
-1.54561
-1.71768
-1.2948
-1.40428
-1.16079
-1.21503
-1.12191
-1.13012
-1.16892
-1.13524
-1.29906
-1.22302
-1.52124
-1.39855
-1.82692
-1.66526
-2.17495
-2.00001
-2.48234
-2.34
-2.6536
-2.58986
-2.63483
-2.6688
-2.4385
-2.55532
-2.13402
-2.29428
-1.80949
-1.96906
-1.53545
-1.66319
-1.34648
-1.42948
-1.24963
-1.28675
-1.24154
-1.23481
-1.31934
-1.2701
-1.3923
-1.80409
-1.79726
-1.81817
-1.67596
-1.75632
-1.43523
-1.56637
-1.28811
-0.769337
-0.793326
-0.773085
-0.803921
-0.779411
-0.896572
-0.842073
-1.06368
-0.969782
-1.3211
-1.18035
-1.67661
-1.48679
-2.11706
-1.88845
-2.5862
-2.3539
-2.97433
-2.79828
-3.16525
-3.09994
-3.09943
-3.16472
-2.80103
-2.97458
-2.36452
-2.59249
-1.9078
-2.13206
-1.51851
-1.70159
-1.22993
-1.3613
-1.03836
-1.12291
-0.92695
-0.973758
-0.880628
-0.896207
-0.892662
-0.87948
-0.965277
-0.920951
-1.10454
-1.02661
-1.28401
-1.19301
-1.65326
-1.37429
-2.29084
-2.09531
-1.74281
-0.825048
-2.6729
-3.03448
-3.0562
-2.11991
-2.06914
-2.94982
-3.1596
-3.29384
-1.94388
-1.75713
-1.45467
-2.21571
-2.22182
-2.78436
-2.51246
-1.76464
-1.97218
-1.42469
-1.58467
-1.18772
-1.29164
-1.0567
-1.11069
-1.01076
-1.02365
-1.04323
-1.01765
-1.14939
-1.08693
-1.33403
-1.23176
-1.59072
-1.45474
-1.88536
-1.73687
-2.14828
-2.02612
-2.29763
-2.2414
-2.28588
-2.31256
-2.12286
-2.22037
-1.86716
-2.00186
-1.59431
-1.72842
-1.36522
-1.47171
-1.21051
-1.27781
-1.13751
-1.1639
-1.14541
-1.13143
-1.2344
-1.17963
-1.40716
-1.31018
-1.66242
-1.52487
-1.94422
-1.8106
-1.89273
-1.93767
-1.95916
-1.79462
-1.88252
-1.53743
-1.67812
-1.20808
-1.37665
-0.871863
-1.03895
-0.657628
-0.71253
-0.679114
-0.647529
-0.646875
-0.684087
-0.660178
-0.773434
-0.72132
-0.929623
-0.84233
-1.16558
-1.03706
-1.48726
-1.3159
-1.88326
-1.67788
-2.30472
-2.09595
-2.65411
-2.49555
-2.82764
-2.76765
-2.77179
-2.82887
-2.5069
-2.6612
-2.11764
-2.32112
-1.70771
-1.90931
-1.35599
-1.52169
-1.09259
-1.21303
-0.914304
-0.993585
-0.806688
-0.852643
-0.756184
-0.774868
-0.755091
-0.749753
-0.801514
-0.772191
-0.899436
-0.843818
-1.03579
-0.965039
-1.17343
-1.10723
-1.52047
-1.22544
-2.56488
-2.98866
-2.9781
-1.55662
-1.69694
-0.928079
-0.758366
-2.31041
-2.32596
-3.32353
-2.24228
-2.07222
-1.83877
-1.56198
-1.26085
-2.45442
-2.53915
-3.14703
-2.89039
-2.74566
-2.02454
-2.29085
-1.59703
-1.79154
-1.28399
-1.43046
-1.06468
-1.16145
-0.940143
-0.992041
-0.890557
-0.906624
-0.909907
-0.891873
-0.99401
-0.943964
-1.14399
-1.0607
-1.35434
-1.24274
-1.59734
-1.47463
-1.81651
-1.7143
-1.94359
-1.89519
-1.93722
-1.95764
-1.80487
-1.88443
-1.59504
-1.70567
-1.37114
-1.4811
-1.18481
-1.27107
-1.0628
-1.11507
-1.01264
-1.02871
-1.0353
-1.0148
-1.13295
-1.07456
-1.30781
-1.21123
-1.42439
-2.09308
-1.9569
-2.04329
-2.07483
-2.10302
-1.91578
-2.01144
-1.64303
-1.79188
-1.29196
-1.47264
-1.10882
-0.52826
-0.565547
-0.541651
-0.527576
-0.523848
-0.564361
-0.540665
-0.649246
-0.600136
-0.793037
-0.713142
-1.0057
-0.89033
-1.29133
-1.1396
-1.63997
-1.45938
-2.01013
-1.82676
-2.31788
-2.17798
-2.47238
-2.41859
-2.42542
-2.47448
-2.19576
-2.32972
-1.85615
-2.0339
-1.49637
-1.67369
-1.18423
-1.33175
-0.947112
-1.05604
-0.783446
-0.85673
-0.681374
-0.725546
-0.628749
-0.649462
-0.617557
-0.618305
-0.64458
-0.626315
-0.709652
-0.672409
-0.804857
-0.754624
-0.909945
-0.858469
-0.984823
-0.954269
-3.53198
-3.3668
-1.27354
-1.00005
-2.866
-1.837
-0.599
-2.97437
-2.5492
-3.27965
-3.26407
-2.53244
-3.5684
-2.40216
-2.18008
-1.89324
-1.57699
-1.26311
-0.993067
-2.72684
-2.52887
-3.00533
-2.63773
-2.61319
-2.23845
-2.40413
-1.81538
-2.03552
-1.4194
-1.60445
-1.13084
-1.2637
-0.932197
-1.02032
-0.816225
-0.865095
-0.765321
-0.783326
-0.773642
-0.762202
-0.837874
-0.799013
-0.956461
-0.890405
-1.12441
-1.03515
-1.31977
-1.22093
-1.4978
-1.41447
-1.60308
-1.56253
-1.60064
-1.61585
-1.49566
-1.55907
-1.32755
-1.41623
-1.14854
-1.23632
-1.00156
-1.06918
-0.909564
-0.948032
-0.87996
-0.886829
-0.915043
-0.88925
-1.01827
-0.957882
-1.19192
-1.09644
-1.42632
-1.30284
-1.69234
-1.55799
-2.09503
-1.81831
-1.97107
-2.23186
-2.18339
-2.20577
-2.23918
-2.03153
-2.13541
-1.74278
-1.89915
-1.37611
-1.56618
-0.99139
-1.18231
-0.636949
-0.808234
-0.429441
-0.4795
-0.452142
-0.407193
-0.414671
-0.410563
-0.405078
-0.448048
-0.424588
-0.527714
-0.482107
-0.658132
-0.586083
-0.846806
-0.744904
-1.09596
-0.964061
-1.39673
-1.24121
-1.71502
-1.55736
-1.98015
-1.85945
-2.11491
-2.0676
-2.07632
-2.11765
-1.88122
-1.99512
-1.59116
-1.74319
-1.28186
-1.43461
-1.01034
-1.13914
-0.800478
-0.897407
-0.652148
-0.719102
-0.556262
-0.598311
-0.502529
-0.524686
-0.483238
-0.488897
-0.495133
-0.485377
-0.536212
-0.512247
-0.599964
-0.565889
-0.675183
-0.637186
-0.737236
-0.710286
-0.752987
-0.752925
-3.65213
-3.55371
-0.968134
-0.737764
-3.16019
-2.79006
-2.5951
-2.96162
-3.35256
-3.51003
-2.7208
-1.5293
-1.64264
-0.67556
-0.510155
-3.76521
-2.53028
-2.24893
-1.91343
-1.56279
-1.22815
-2.49297
-2.10647
-1.96813
-0.931742
-0.711074
-2.34673
-3.00124
-2.25203
-2.19681
-2.17071
-2.23844
-1.94871
-2.07832
-1.58464
-1.7765
-1.22991
-1.39693
-0.970856
-1.08884
-0.79468
-0.873266
-0.688612
-0.733812
-0.638441
-0.657213
-0.638095
-0.632119
-0.685087
-0.655941
-0.776428
-0.725355
-0.907061
-0.837544
-1.05993
-0.982458
-1.20053
-1.1345
-1.28522
-1.25227
-1.28535
-1.29638
-1.20404
-1.25338
-1.07265
-1.14198
-0.933348
-1.00149
-0.821112
-0.872292
-0.755266
-0.781779
-0.742984
-0.742219
-0.787677
-0.757986
-0.893342
-0.832654
-1.0617
-0.969903
-1.28164
-1.167
-1.40506
-2.21402
-1.92373
-2.0859
-2.35156
-2.30318
-2.32019
-2.35657
-2.13412
-2.2449
-1.82938
-1.99354
-1.45176
-1.64702
-1.04979
-1.24936
-0.857258
-0.305745
-0.339214
-0.319657
-0.292753
-0.297624
-0.300288
-0.293297
-0.337522
-0.314787
-0.411259
-0.369439
-0.528077
-0.463912
-0.693259
-0.60448
-0.907146
-0.794391
-1.16171
-1.0304
-1.42978
-1.29701
-1.6536
-1.55157
-1.76863
-1.72791
-1.73782
-1.77179
-1.57536
-1.67035
-1.33238
-1.45993
-1.07116
-1.20048
-0.839014
-0.94958
-0.656613
-0.741277
-0.524624
-0.58471
-0.4357
-0.475302
-0.381564
-0.404761
-0.355738
-0.365385
-0.355374
-0.352469
-0.378384
-0.364171
-0.419801
-0.397219
-0.471535
-0.445093
-0.518549
-0.496933
-0.536691
-0.532524
-0.513722
-0.532475
-2.86367
-0.670882
-0.878917
-0.630184
-0.458882
-0.486792
-3.6596
-3.64637
-3.41327
-3.00733
-1.73943
-0.362724
-3.31648
-3.70994
-2.87
-3.88345
-2.61101
-2.27203
-1.89656
-1.52048
-1.17648
-1.80352
-1.4565
-1.31152
-0.30654
-0.290698
-0.433863
-1.63767
-2.1654
-2.7088
-0.824557
-0.591122
-3.24313
-1.72509
-1.59511
-1.88651
-1.82934
-1.83755
-1.88628
-1.64265
-1.75637
-1.34053
-1.49928
-1.03983
-1.18326
-0.81213
-0.916029
-0.657151
-0.726444
-0.561647
-0.602782
-0.513343
-0.532209
-0.5064
-0.504766
-0.538916
-0.517979
-0.607183
-0.568805
-0.706074
-0.65337
-0.822419
-0.763372
-0.930274
-0.879474
-0.99631
-0.97041
-0.997713
-1.00557
-0.936147
-0.97366
-0.835933
-0.888804
-0.730387
-0.781832
-0.647517
-0.684842
-0.603459
-0.620069
-0.605237
-0.598359
-0.656918
-0.624606
-0.762455
-0.702758
-0.923384
-0.836212
-1.13012
-1.02247
-1.35405
-1.24251
-1.54444
-1.45636
-2.00267
-1.61138
-1.81158
-2.30081
-2.16964
-2.44001
-2.39169
-2.40744
-2.44491
-2.21438
-2.32945
-1.89741
-2.068
-1.51009
-1.70946
-1.09787
-1.30372
-0.711755
-0.899183
-0.384564
-0.540412
-0.215596
-0.248701
-0.232208
-0.194905
-0.202868
-0.187254
-0.189227
-0.198198
-0.189967
-0.234542
-0.212836
-0.301938
-0.26406
-0.40541
-0.348902
-0.548385
-0.471934
-0.729526
-0.634514
-0.941293
-0.832424
-1.16253
-1.05301
-1.34769
-1.26313
-1.44397
-1.40963
-1.42001
-1.4473
-1.28749
-1.36515
-1.08748
-1.19267
-0.870347
-0.978155
-0.674707
-0.7683
-0.5183
-0.591242
-0.402745
-0.455724
-0.321761
-0.358401
-0.268306
-0.291978
-0.237484
-0.250255
-0.227307
-0.229882
-0.236425
-0.229588
-0.261695
-0.247334
-0.297086
-0.278685
-0.331282
-0.315307
-0.347434
-0.342426
-0.335627
-0.345805
-0.322652
-3.66302
-3.56234
-0.413013
-0.278473
-3.61614
-3.17822
-3.1925
-3.82862
-2.9616
-1.34499
-1.40455
-0.405894
-0.263522
-3.91403
-2.63593
-2.24731
-1.84239
-1.45747
-1.11781
-1.16693
-0.898451
-0.787319
-1.03468
-1.46761
-1.96536
-2.48341
-0.777047
-0.565176
-0.272869
-0.402472
-3.43198
-1.13418
-1.00743
-1.38882
-1.26735
-1.52837
-1.48183
-1.51147
-1.53853
-1.35953
-1.45075
-1.11109
-1.24284
-0.85399
-0.977661
-0.656363
-0.746484
-0.521994
-0.582201
-0.437538
-0.474241
-0.39248
-0.410636
-0.381007
-0.38264
-0.401591
-0.387471
-0.450864
-0.422906
-0.523656
-0.484795
-0.609704
-0.565985
-0.689945
-0.652075
-0.739704
-0.720062
-0.741322
-0.746947
-0.695574
-0.723521
-0.620849
-0.660244
-0.542954
-0.580733
-0.484057
-0.510088
-0.45766
-0.466275
-0.47048
-0.458901
-0.526696
-0.492949
-0.630058
-0.572344
-0.781948
-0.700239
-0.973585
-0.874282
-1.17521
-1.07648
-1.2666
-2.04758
-1.64916
-1.85582
-2.3485
-2.21558
-2.48946
-2.43986
-2.45874
-2.49581
-2.26353
-2.38009
-1.94149
-2.11496
-1.5481
-1.75011
-1.13409
-1.34105
-0.741037
-0.931985
-0.565386
-0.107244
-0.129822
-0.117351
-0.0948714
-0.100189
-0.0920753
-0.0918409
-0.105369
-0.0963673
-0.140158
-0.11978
-0.201053
-0.167113
-0.291857
-0.242536
-0.414502
-0.349269
-0.566248
-0.487116
-0.739779
-0.650966
-0.918968
-0.830372
-1.06902
-1.0004
-1.14787
-1.11953
-1.12991
-1.15126
-1.02372
-1.08612
-0.861683
-0.947112
-0.683763
-0.772401
-0.52103
-0.599235
-0.388292
-0.450553
-0.287912
-0.334245
-0.215137
-0.248502
-0.163662
-0.187069
-0.129597
-0.144565
-0.111947
-0.118729
-0.110478
-0.109234
-0.12375
-0.115448
-0.147517
-0.134766
-0.172779
-0.160726
-0.186768
-0.181935
-0.18079
-0.186166
-0.167079
-0.174167
-0.15625
-0.160583
-0.276048
-0.163484
-0.156655
-3.58477
-3.39336
-3.74519
-3.28146
-1.43775
-0.140158
-2.97832
-3.85275
-2.98662
-3.8375
-2.60217
-2.17689
-1.75859
-1.37845
-1.0495
-0.671719
-0.467889
-0.377248
-0.0617206
-0.0747182
-0.174046
-0.567329
-0.905531
-1.29884
-1.74462
-2.21403
-0.737319
-0.549434
-0.402193
-0.285014
-3.54561
-0.661036
-0.5631
-0.864655
-0.759511
-1.08551
-0.980753
-1.21144
-1.16384
-1.21837
-1.23089
-1.09454
-1.17186
-0.883765
-0.994712
-0.670905
-0.772986
-0.506829
-0.581956
-0.39326
-0.444443
-0.319773
-0.352069
-0.278211
-0.295436
-0.263682
-0.267672
-0.2749
-0.266195
-0.308954
-0.289349
-0.360799
-0.33306
-0.422399
-0.391074
-0.480152
-0.452845
-0.516167
-0.501927
-0.517306
-0.521432
-0.483785
-0.504263
-0.429207
-0.457927
-0.373272
-0.400193
-0.333419
-0.350486
-0.320893
-0.323276
-0.341856
-0.32693
-0.400364
-0.366211
-0.499937
-0.444904
-0.641444
-0.56574
-0.816227
-0.725885
-0.997977
-0.908532
-1.14657
-1.08016
-1.22692
-1.19691
-1.65638
-1.22807
-1.44137
-2.0541
-1.8634
-2.35176
-2.22058
-2.49584
-2.44409
-2.46898
-2.50457
-2.27639
-2.39151
-1.95661
-2.12916
-1.56387
-1.76573
-1.15253
-1.35772
-0.761574
-0.952444
-0.419815
-0.582423
-0.14939
-0.275659
-0.0266057
-0.0404043
-0.0341456
-0.0131861
-0.0189953
-0.00644176
-0.00945407
-0.00746669
-0.005554
-0.0221382
-0.0128297
-0.054906
-0.0360264
-0.109403
-0.079265
-0.188466
-0.145744
-0.292958
-0.237669
-0.419112
-0.353748
-0.559612
-0.488132
-0.702258
-0.631888
-0.821465
-0.766895
-0.884529
-0.861733
-0.871377
-0.887749
-0.787456
-0.836916
-0.658041
-0.726471
-0.514061
-0.586069
-0.380186
-0.444812
-0.268629
-0.321308
-0.181742
-0.222206
-0.116478
-0.14673
-0.0677594
-0.0903385
-0.0322229
-0.0484253
-0.00946178
-0.0192
-0.000310749
-0.00314506
-0.00478063
-0.000924377
-0.0201351
-0.011447
-0.0388763
-0.0297285
-0.0508726
-0.0464211
-0.0494512
-0.0515526
-0.0440724
-0.0464285
-0.0456149
-0.0434498
-0.0524249
-3.44717
-3.1653
-0.189087
-0.0900432
-3.77945
-3.30785
-2.69992
-3.78038
-2.9424
-1.01893
-1.01999
-0.156778
-0.0475147
-3.66129
-2.5141
-2.06944
-1.65441
-1.28913
-0.98286
-0.298158
-0.142566
-0.085527
-0.22917
-0.476315
-0.782313
-1.13439
-1.51759
-1.93289
-0.709781
-0.542793
-0.408635
-0.300367
-0.108312
-0.209595
-3.57249
-0.285737
-0.208564
-0.459324
-0.370532
-0.636639
-0.546783
-0.815508
-0.729676
-0.932756
-0.88482
-0.948324
-0.955334
-0.84792
-0.91108
-0.67716
-0.766774
-0.504623
-0.587724
-0.368484
-0.431223
-0.27271
-0.316009
-0.209526
-0.237535
-0.171996
-0.187913
-0.155814
-0.161356
-0.159791
-0.155352
-0.181838
-0.168798
-0.217366
-0.198279
-0.259852
-0.238241
-0.299764
-0.280867
-0.324581
-0.314842
-0.324902
-0.328067
-0.300559
-0.315382
-0.261462
-0.281957
-0.222497
-0.241025
-0.197295
-0.207491
-0.195141
-0.192931
-0.221584
-0.204538
-0.28049
-0.246779
-0.374928
-0.32316
-0.50498
-0.435739
-0.662309
-0.581196
-0.824923
-0.744764
-0.954183
-0.897267
-0.996205
-1.6308
-1.20219
-1.41941
-2.02177
-1.83407
-2.31139
-2.18245
-2.45833
-2.40461
-2.43673
-2.4693
-2.25182
-2.36277
-1.94097
-2.10908
-1.55638
-1.75444
-1.15149
-1.35343
-0.767833
-0.955213
-0.428623
-0.590861
-0.284071
0.0608153
0.0501192
0.0560912
0.0676823
0.0649583
0.0707454
0.06984
0.0667436
0.0698738
0.0514755
0.0607556
0.021082
0.0383507
-0.0272538
-0.000716517
-0.0956531
-0.0588681
-0.18426
-0.137606
-0.288691
-0.234946
-0.401552
-0.344564
-0.513438
-0.458457
-0.606344
-0.5638
-0.655663
-0.6378
-0.645763
-0.658337
-0.580163
-0.618934
-0.477912
-0.532141
-0.362558
-0.420476
-0.253316
-0.306323
-0.160222
-0.204486
-0.0853154
-0.120573
-0.0265921
-0.0541357
0.0193396
-0.0022386
0.0550407
0.0383992
0.0806872
0.0691918
0.0948351
0.0892961
0.0964605
0.0971992
0.0871913
0.092914
0.0736733
0.0802992
0.0635427
0.06748
0.0619464
0.0619998
0.060882
0.0620102
0.0512195
0.0574939
0.0306889
0.0419778
0.00112218
0.0163937
-0.132531
-0.0389744
-0.0172238
-3.26011
-2.92997
-3.7064
-3.2545
-0.998919
0.0465201
-2.39487
-3.61764
-2.83459
-3.39641
-2.38198
-1.93704
-1.53989
-1.20016
-0.92516
-0.029656
0.0942172
0.140789
0.0451628
0.0222344
-0.0649526
0.0213357
-0.169321
-0.398417
-0.66958
-0.976998
-1.30535
-1.66939
-0.693841
-0.54523
-0.423509
-0.322315
-0.23754
-0.161956
-3.50854
-0.00742705
0.0460675
-0.130906
-0.0642134
-0.284967
-0.206941
-0.43564
-0.360535
-0.582187
-0.510582
-0.689885
-0.644249
-0.709638
-0.712887
-0.627483
-0.67978
-0.487
-0.560307
-0.348182
-0.414769
-0.239118
-0.289477
-0.161069
-0.196616
-0.107834
-0.131697
-0.074563
-0.0889643
-0.0578628
-0.0642642
-0.0565783
-0.0553312
-0.0693837
-0.0613994
-0.0925156
-0.07998
-0.120535
-0.106286
-0.146661
-0.134329
-0.162545
-0.156404
-0.162069
-0.164609
-0.144434
-0.155083
-0.116915
-0.131244
-0.0906855
-0.102923
-0.0763334
-0.0814761
-0.0815178
-0.0761325
-0.111213
-0.0930713
-0.168959
-0.136406
-0.257195
-0.209192
-0.375334
-0.312765
-0.515529
-0.443531
-0.65837
-0.588287
-0.771607
-0.721032
-0.824904
-0.806203
-0.810823
-0.826887
-1.15964
-0.777572
-0.962427
-1.57352
-1.36699
-1.95003
-1.77055
-2.23163
-2.10506
-2.37965
-2.32471
-2.36478
-2.39318
-2.19198
-2.29637
-1.896
-2.05648
-1.52612
-1.71704
-1.1333
-1.32961
-0.759893
-0.942141
-0.431023
-0.588884
-0.160915
-0.287468
0.0429516
-0.0513436
0.127943
0.12196
0.124777
0.133682
0.131032
0.13711
0.135616
0.137078
0.137643
0.131102
0.135001
0.115824
0.124838
0.0879835
0.103614
0.0454539
0.0686524
-0.0133813
0.018128
-0.088269
-0.0490049
-0.174629
-0.130471
-0.265012
-0.219782
-0.351801
-0.30942
-0.42289
-0.390367
-0.460609
-0.446962
-0.452776
-0.462552
-0.401754
-0.432
-0.321432
-0.364126
-0.22961
-0.275897
-0.140846
-0.184183
-0.0632774
-0.100427
0.00118967
-0.0294671
0.0540718
0.0289397
0.0974418
0.0768302
0.132641
0.116033
0.159465
0.147178
0.176304
0.169249
0.181733
0.180462
0.176779
0.180331
0.166438
0.171881
0.159142
0.162321
0.15548
0.157145
0.148976
0.153051
0.134459
0.142784
0.112502
0.124315
0.0835447
0.0988409
0.065321
-3.01308
-2.6861
-0.0951204
-0.00291962
-3.5498
-3.12922
-2.11633
-3.38296
-2.67552
-0.634573
-0.604406
0.0406459
0.119187
-3.086
-2.22021
-1.79303
-1.42627
-1.12144
-0.881548
0.185916
0.287573
0.325538
0.226285
0.0679025
-0.114652
-0.329001
-0.572764
-0.838259
-1.12194
-1.44641
-0.690084
-0.557648
-0.446975
-0.353387
-0.271861
-0.197899
-0.0309645
-0.129053
-3.36368
0.205852
0.249515
0.105803
0.157516
-0.0038741
0.0530099
-0.132997
-0.0679312
-0.260388
-0.196641
-0.386677
-0.324549
-0.481101
-0.441121
-0.497398
-0.500792
-0.428832
-0.471809
-0.318156
-0.375367
-0.210376
-0.262162
-0.124141
-0.164254
-0.0606637
-0.0897944
-0.0159964
-0.0362262
0.0133334
0.000397629
0.0299262
0.0231086
0.0348915
0.0338378
0.0290446
0.0332023
0.0151545
0.0228404
-0.00225571
0.0065915
-0.0181493
-0.0107488
-0.0268099
-0.0237378
-0.0259126
-0.0280214
-0.0131047
-0.0207379
0.0059676
-0.00385582
0.022918
0.0152527
0.0295143
0.0279502
0.0194268
0.026858
-0.0117384
0.00668129
-0.0670848
-0.0362513
-0.148434
-0.104485
-0.254691
-0.198725
-0.378389
-0.315183
-0.502283
-0.441811
-0.600557
-0.556384
-0.647146
-0.631385
-0.648523
-1.09985
-0.72812
-0.911954
-1.48874
-1.29359
-1.84614
-1.67531
-2.11884
-1.99553
-2.26603
-2.21055
-2.25906
-2.28234
-2.10196
-2.19779
-1.82574
-1.97606
-1.47593
-1.65694
-1.10073
-1.2887
-0.741181
-0.916884
-0.424708
-0.576674
-0.161558
-0.285654
-0.0529226
0.192212
0.187806
0.190399
0.194825
0.193433
0.195576
0.19547
0.193367
0.194918
0.186292
0.190599
0.171447
0.180026
0.146241
0.160244
0.109097
0.12924
0.0587461
0.0856089
-0.00438258
0.0286019
-0.0758968
-0.0395324
-0.148448
-0.112498
-0.215387
-0.183005
-0.268856
-0.244483
-0.296923
-0.286834
-0.290306
-0.298108
-0.250687
-0.274168
-0.187699
-0.221262
-0.114657
-0.151659
-0.0425327
-0.077969
0.0223478
-0.00898314
0.0781038
0.05134
0.125722
0.102825
0.16656
0.146942
0.200876
0.184563
0.227791
0.21535
0.245647
0.237959
0.253138
0.250702
0.251288
0.253166
0.244553
0.248178
0.238679
0.241337
0.233147
0.236218
0.22259
0.228736
0.205483
0.214732
0.183465
0.195093
0.156024
0.170501
0.121564
0.139659
0.0792726
0.10087
-0.0648
0.0283305
0.0554287
-2.72761
-2.44259
-3.32236
-2.94571
-0.56333
0.184484
-1.87277
-3.10175
-2.48245
-2.76524
-2.04473
-1.651
-1.32393
-1.05941
-0.853311
0.360896
0.443245
0.475005
0.391049
0.264001
0.112963
-0.065212
-0.267383
-0.490002
-0.723708
-0.972291
-1.26645
-0.698567
-0.580566
-0.480533
-0.393491
-0.314628
-0.240761
-0.1699
0.110868
-0.00100375
0.0891127
-3.15545
0.37639
0.412244
0.295713
0.337052
0.200517
0.249365
0.103342
0.152436
-0.00235416
0.0513463
-0.113797
-0.0573881
-0.223341
-0.170209
-0.300756
-0.268432
-0.312391
-0.316021
-0.256341
-0.291035
-0.169474
-0.214057
-0.0865744
-0.126305
-0.0199397
-0.0510901
0.030297
0.00707006
0.0667528
0.0500799
0.0918347
0.08058
0.10753
0.100755
0.114859
0.112226
0.114175
0.115457
0.107195
0.111281
0.0974169
0.102411
0.0886704
0.0926711
0.0858709
0.086081
0.0867202
0.0848577
0.0961792
0.090676
0.109198
0.102608
0.119529
0.115114
0.120755
0.121634
0.107648
0.116251
0.0763963
0.0944668
0.0243463
0.0530791
-0.0497885
-0.00997318
-0.144489
-0.0948551
-0.25266
-0.197633
-0.359427
-0.307419
-0.444075
-0.40584
-0.484259
-0.471037
-0.47392
-0.48564
-0.418051
-0.44961
-0.672982
-0.378536
-0.517658
-1.02339
-0.844418
-1.38441
-1.20434
-1.72005
-1.5585
-1.98149
-1.86279
-2.12637
-2.07076
-2.12818
-2.14567
-1.98913
-2.07503
-1.73598
-1.87442
-1.41022
-1.57931
-1.05685
-1.23433
-0.71474
-0.882359
-0.411575
-0.557196
-0.158824
-0.278646
0.0389257
-0.0529445
0.18193
0.116047
0.24111
0.23568
0.23863
0.244076
0.24302
0.245185
0.244888
0.24416
0.244937
0.240668
0.242787
0.23313
0.23756
0.219031
0.227046
0.196446
0.208871
0.164227
0.181606
0.121358
0.14415
0.0682783
0.0959402
0.00890247
0.0389734
-0.0497646
-0.0209736
-0.101458
-0.0767742
-0.141081
-0.123173
-0.16118
-0.154077
-0.155281
-0.161658
-0.124256
-0.142528
-0.0747074
-0.101232
-0.0163222
-0.0460354
0.0426222
0.0134739
0.0972739
0.0706469
0.145961
0.122374
0.188995
0.168123
0.227157
0.20867
0.260117
0.24436
0.2864
0.274206
0.304244
0.29647
0.312678
0.309624
0.313008
0.313648
0.309088
0.311324
0.304274
0.306759
0.296804
0.301141
0.2837
0.290976
0.265845
0.275232
0.244437
0.255612
0.218862
0.232227
0.188369
0.204276
0.152615
0.170997
0.13234
-2.43714
-2.19758
-0.101646
-3.04689
-2.72304
-1.66696
-2.79878
-2.27468
-0.285471
-0.253375
0.178387
0.231988
-2.46446
-1.87141
-1.52278
-1.24065
-1.0168
-0.84062
0.503581
0.569469
0.595126
-0.0280616
0.067786
0.531903
0.424569
0.2977
0.151767
-0.0196709
-0.21246
-0.41967
-0.630727
-0.856524
-1.1268
-0.719855
-0.615259
-0.525036
-0.443341
-0.366597
-0.291882
-0.216927
-2.90671
0.511629
0.540921
0.443787
0.479273
0.365473
0.405484
0.280851
0.323799
0.195946
0.238339
0.105893
0.152176
0.00696264
0.0569979
-0.0854628
-0.0415602
-0.146218
-0.121254
-0.151276
-0.156471
-0.10511
-0.13269
-0.0404231
-0.0731751
0.0203174
-0.00892584
0.0705814
0.0468615
0.109857
0.0915146
0.139589
0.125814
0.161178
0.151327
0.175823
0.169291
0.184445
0.180862
0.187294
0.186567
0.185308
0.186785
0.180924
0.183228
0.176903
0.178732
0.174288
0.175587
0.179007
0.176599
0.186289
0.182258
0.194999
0.190714
0.200656
0.198523
0.198281
0.200758
0.183563
0.192683
0.153226
0.1705
0.105044
0.131448
0.0381885
0.0739104
-0.0454967
-0.00182988
-0.139406
-0.0918186
-0.230925
-0.186428
-0.302957
-0.270441
-0.338817
-0.326104
-0.331074
-0.340802
-0.311981
-0.612751
-0.33363
-0.468463
-0.935203
-0.769451
-1.269
-1.10275
-1.58187
-1.43056
-1.82947
-1.7166
-1.97104
-1.91556
-1.98191
-1.99339
-1.86192
-1.93729
-1.63361
-1.75918
-1.33425
-1.49019
-1.00525
-1.17097
-0.683127
-0.841423
-0.394619
-0.533456
-0.153625
-0.267952
0.0372082
-0.051539
0.114014
0.284541
0.279524
0.282577
0.286315
0.285941
0.286183
0.286468
0.284141
0.285378
0.280037
0.282399
0.272474
0.276826
0.259329
0.266704
0.239286
0.250216
0.211515
0.226419
0.175214
0.19445
0.13075
0.15388
0.0813565
0.106322
0.033385
0.0567489
-0.00697473
0.0119854
-0.0360186
-0.0231106
-0.0496023
-0.0450661
-0.0441554
-0.0493647
-0.0193738
-0.0340224
0.0200581
-0.00104523
0.0672204
0.0431017
0.115946
0.091688
0.162479
0.139617
0.205396
0.184416
0.244514
0.22542
0.279923
0.262691
0.310993
0.296087
0.336037
0.324392
0.353253
0.345701
0.362053
0.358659
0.364053
0.363712
0.362209
0.363472
0.357627
0.360343
0.348382
0.353704
0.334112
0.341766
0.316584
0.325679
0.296249
0.306785
0.272919
0.284972
0.246089
0.259993
0.215793
0.231297
0.183333
0.199639
0.151369
0.167293
0.108968
0.0483237
0.132693
-2.17072
-1.96855
-0.137164
-2.74999
-2.48246
-0.217052
0.275575
-1.49066
-0.0507925
-2.4997
-2.07074
0.0328223
-2.19477
-1.71391
-1.41725
-1.18033
-0.993545
-0.843043
0.615981
0.556206
0.455084
0.330235
0.186734
0.0209352
-0.164428
-0.358828
-0.557387
-0.768312
-1.01794
-0.755146
-0.663216
-0.581521
-0.50409
-0.428011
-0.349875
-0.265271
-2.64084
0.660963
0.632956
0.6866
0.675279
0.618235
0.642486
0.560072
0.590611
0.49439
0.528518
0.422527
0.458832
0.34877
0.385822
0.274059
0.311678
0.19317
0.234747
0.107276
0.150054
0.0322913
0.067206
-0.0116568
0.00492503
-0.0111248
-0.0168941
0.0232691
0.00333147
0.0690938
0.0458666
0.112919
0.0916827
0.15016
0.132445
0.180263
0.166071
0.20388
0.192828
0.221843
0.213515
0.235013
0.228968
0.244152
0.24006
0.249396
0.247268
0.251017
0.250594
0.250468
0.25088
0.249806
0.250049
0.250268
0.249836
0.254436
0.252169
0.260032
0.257086
0.26564
0.263009
0.268005
0.267463
0.26328
0.266758
0.247929
0.257117
0.219159
0.23535
0.175134
0.199109
0.115407
0.147168
0.0420112
0.0801421
-0.0390481
0.00186699
-0.117106
-0.0792789
-0.178237
-0.15064
-0.209988
-0.198341
-0.206259
-0.21247
-0.17035
-0.191808
-0.116145
-0.14479
-0.288992
-0.0847944
-0.180089
-0.54797
-0.413102
-0.842301
-0.691647
-1.14976
-0.996188
-1.44006
-1.29935
-1.6726