/*--------------------------------*- C++ -*----------------------------------*\
  =========                 |
  \\      /  F ield         | OpenFOAM: The Open Source CFD Toolbox
   \\    /   O peration     | Website:  https://openfoam.org
    \\  /    A nd           | Version:  10
     \\/     M anipulation  |
\*---------------------------------------------------------------------------*/
FoamFile
{
    format      ascii;
    class       surfaceScalarField;
    location    "31";
    object      phi;
}
// * * * * * * * * * * * * * * * * * * * * * * * * * * * * * * * * * * * * * //

dimensions      [0 3 -1 0 0 0 0];

internalField   nonuniform List<scalar> 
29080
(
0.0907337
-0.145249
-0.0153066
0.069822
0.0509719
0.0397618
0.01111
0.0277706
-0.0248006
-0.01408
0.0396644
0.00526464
-0.033819
0.0364972
-0.00151322
0.00468038
0.0315542
-0.0584879
0.0475866
-0.0206528
-0.0485061
0.0291825
0.0508778
0.0321949
0.00460997
-0.0442563
0.00745145
-0.0299345
0.0676988
-0.00556936
0.0111727
-0.103354
-0.0159882
0.0608547
-0.0838485
0.0553483
0.0822338
0.0662457
-0.017999
-0.107399
0.0377177
0.0652253
0.00445621
0.000809353
0.0361966
-0.0124558
-0.0218901
0.0500663
0.0264883
0.0535578
-0.0882934
0.00824728
0.0200123
0.0748219
0.0204073
0.0635867
-0.00407144
-0.00698053
0.00239364
0.00407433
0.000512552
-0.0100178
-0.022892
0.0259293
-0.00248031
-0.00800813
0.000470639
-0.00310447
0.0030178
0.00638887
-0.005419
-0.0697276
0.00145461
0.00788222
0.0603908
-0.0359133
-0.0483935
0.0145792
0.039301
-0.0378517
-0.0373626
-0.0021083
0.00240454
0.00548504
-0.00578129
0.0113402
-0.0134485
-0.00440074
0.015741
0.00633805
-0.00833425
0.00375837
0.00806473
-0.0239888
-0.00276225
0.0199917
0.00675937
0.00145449
-0.0187507
-0.00669262
0.0235872
0.00128668
-0.0234194
0.0151708
0.00565421
0.0157366
0.0194259
-0.0323157
0.0136257
0.0288105
-0.0101206
0.025963
-0.049402
-0.00887668
0.0130915
0.0131113
-0.000239738
0.016324
0.0103932
0.0162166
0.0289179
0.0905169
0.0226556
-0.059909
-0.0532635
0.0214357
0.0839096
-0.0148285
-0.0783202
0.0777104
0.0220455
-0.0734531
0.0177885
-0.0585767
-0.00143503
0.0114537
0.048558
-0.0668229
0.00970082
-0.0454594
0.0179376
0.0732269
0.025771
-0.0383149
-0.060683
-0.0254876
0.0224864
0.0762281
0.0698892
-0.116766
0.0789931
-0.0321158
-0.0466523
0.0637599
0.0527816
-0.00941939
0.0349927
-0.0232931
-0.00228028
0.0443501
-0.0130636
-0.0407059
-0.000749638
0.00376744
0.00563923
-0.0612417
-0.0349533
0.00960237
0.0865926
-0.0246374
0.0207083
-0.0573127
0.0530546
-0.0574627
-0.0202292
0.0512073
-0.0331059
0.0663576
-0.00554798
0.096744
-0.0419925
-0.0547515
-0.0643148
0.0553485
0.10571
-0.0291947
-0.0297121
0.0210551
-0.00301041
0.01564
-0.0418242
0.0142853
-0.0470079
0.00422194
0.00888935
0.0146151
-0.0179706
0.0747681
0.0209128
-0.0565755
0.0590268
-0.00712476
0.00467343
-0.0858949
-0.0199448
0.0492642
-0.0199558
0.0195686
-0.0412913
0.0169704
-0.0428612
0.00423716
-0.0256837
0.0271007
-0.0335287
0.000139097
0.0376268
-0.0263457
0.00194872
0.0413687
-0.0402313
-0.00260696
0.00146953
-0.00155583
-0.000735588
0.0436601
0.00287187
-0.0137135
-0.00867048
0.0195121
-0.00957213
0.0266548
-0.0142108
-0.0251664
0.0581135
0.011403
0.0520916
-0.0168712
-0.0603868
0.075147
-0.00881243
-0.086035
0.0197005
-0.00693053
0.0511247
0.0309527
0.0429711
0.018944
-0.0216155
-0.0402995
0.045832
-0.0233984
0.0205375
0.0283781
-0.0407379
0.0429019
-0.0305421
-0.0413972
0.042423
0.0273523
-0.0327881
0.0464375
-0.0454719
0.0318225
0.0491472
-0.0343433
-0.0475921
-0.00324294
0.0325507
-0.031628
0.0023202
0.0342677
-0.0049802
-0.0325305
0.0108267
0.0298372
-0.0297426
-0.0109213
0.0309021
0.00995346
-0.0300288
0.0288518
0.0821166
-0.119781
-0.0724804
0.0758446
-0.0131009
-0.0520053
0.0106407
0.0544656
-0.0490719
-0.0183304
0.0543015
0.0126206
-0.0134487
-0.0482439
0.00998723
-0.0493719
-0.052988
0.00831102
0.0526885
-0.00801149
0.0108634
-0.0532107
-0.000688322
-0.0190527
0.00196857
0.0177724
-0.0112157
0.010574
-4.66546e-05
0.00120483
-0.012154
-0.000266469
0.00254346
-0.0203913
-0.018243
-0.00300182
0.00249414
0.0108312
-0.0271056
0.0183539
0.039654
-0.0161842
-0.0418237
0.0230403
0.0541431
-0.0588295
0.005503
0.0571913
-0.00868001
-0.0117721
0.0137594
-0.00299856
0.00489256
0.0281853
-0.0389459
-0.0299773
-0.0329324
0.0197205
-0.0292503
-0.0307878
0.0271057
-0.0406704
-0.0143485
0.0257686
0.0383779
-0.0488874
-0.0301608
-0.0313558
-0.0147763
-0.0230656
0.0234934
-0.0194336
-0.0155276
0.0201849
0.0468155
-0.0460719
-0.0201773
-0.0251375
-0.0169323
-0.0143282
0.015733
-0.00848082
-0.018775
0.0103235
0.0455122
-0.0451835
-0.00880954
-0.0148879
-0.0209976
-0.00186117
0.00408374
0.00490652
-0.0233098
-0.00259432
0.0452447
-0.045685
0.00534682
-0.00179998
-0.0259054
0.0113944
-0.00879878
0.0174322
-0.0285028
-0.0148349
0.046066
-0.046429
0.0177953
0.0117754
-0.0306681
0.0220797
-0.0199144
0.0257993
-0.0325167
-0.0239507
0.046873
-0.0474812
0.0264074
0.0225237
-0.0337291
0.0276684
-0.026456
0.0288884
-0.0346562
-0.0279613
0.0482185
-0.0489714
0.0296414
0.0284057
-0.0351404
0.0287665
-0.0282823
0.0287195
-0.0356231
-0.0282368
0.0496565
-0.050287
0.02935
0.0294516
-0.0452636
0.0283013
-0.0186609
0.0284941
-0.0457293
-0.0280284
0.0507024
-0.0510851
0.0288767
0.0287167
-0.0482455
0.0324908
-0.0299746
0.0305152
-0.0490836
-0.0296772
0.0498046
-0.0490763
0.029787
0.0312103
-0.0502614
0.0336712
-0.0324933
0.0339728
-0.049997
-0.0342373
0.0480516
-0.0493794
0.0353006
0.0326464
-0.0336696
0.0334375
-0.0499452
-0.0337214
0.0279598
-0.0299005
0.0448426
0.0261583
0.0442244
-0.0350693
-0.0492192
0.0451748
-0.0423811
-0.0326942
0.0288801
0.0462443
-0.0299497
0.0268929
0.0468299
0.0451232
-0.0446713
0.0269003
0.0475085
0.023773
0.0517488
-0.0520364
-0.0334338
-0.0504724
0.0493487
-0.0313696
-0.0329608
-0.0493473
0.0470696
-0.0276968
-0.0296758
-0.0407976
0.0492507
-0.027114
-0.0217564
-0.0482583
0.0471836
-0.0272076
-0.0272444
-0.0461588
0.0452404
-0.0255376
-0.0269365
-0.0444254
0.0437603
-0.0192494
-0.0231356
-0.0432651
0.042939
-0.00847271
-0.0143396
-0.0425093
0.0428504
0.00374262
-0.00216464
-0.0435422
0.0444238
0.0148513
0.00963181
-0.045387
0.046384
0.0224965
0.0192217
-0.0473297
0.0497593
0.0246761
0.0248228
0.0248085
-0.0244351
0.0244075
0.0475362
0.0466822
0.0417533
-0.0435802
-0.0281504
-0.0311699
0.0454903
-0.0483618
-0.0272893
-0.0294457
0.0490474
-0.048467
-0.0207576
-0.0244519
0.0480096
-0.0477102
-0.00910897
-0.0153454
0.0475173
-0.0473817
0.00521123
-0.00199287
0.0476705
-0.0481457
0.0182704
0.0120643
0.0486202
-0.0490591
0.0268463
0.0229982
0.0494904
-0.0499321
0.0300831
0.0288369
0.0503516
-0.0507178
0.0297161
0.0298712
0.0509856
-0.0508577
0.0287489
0.0289845
0.0489361
-0.0497301
0.0305811
0.0292887
0.0492147
-0.047181
0.0332668
0.032131
0.032694
-0.0279881
0.0270599
0.0477581
-0.0300408
0.0482971
-0.0333484
-0.0537572
0.030919
-0.0318263
-0.0466848
0.0473637
-0.047189
0.0242328
-0.0250574
0.0475395
0.0248815
-0.0253075
0.0477863
-0.0452134
0.0306605
0.0535344
-0.0540102
-0.032958
-0.0516134
0.0492028
-0.0289591
-0.0310397
-0.0478689
0.0459303
-0.0257582
-0.0283419
-0.0499694
0.0489066
-0.0260512
-0.0257955
-0.0477899
0.0465475
-0.0259652
-0.0261278
-0.0452577
0.0440351
-0.024315
-0.0256467
-0.0429694
0.0421495
-0.0184294
-0.0220699
-0.041617
0.0414315
-0.00828715
-0.0138072
-0.0417399
0.0419829
0.00349962
-0.00247307
-0.0425391
0.0433656
0.0140249
0.00907565
-0.0443736
0.045468
0.021402
0.0182137
-0.0465426
0.045978
0.0252408
0.0237482
-0.0459855
0.0476021
0.0252837
0.024801
0.0241861
0.0484346
-0.0474881
-0.0301999
0.0476472
0.0471876
-0.0495898
-0.030292
-0.0302502
0.0519051
-0.0507232
-0.0293323
-0.0288546
0.0515311
-0.051212
-0.0276084
-0.0286378
0.0508451
-0.0504805
-0.0211222
-0.0248189
0.0501902
-0.0500039
-0.00929532
-0.0156356
0.0499225
-0.0500045
0.0052932
-0.00207424
0.0500915
-0.0502434
0.0184224
0.0121513
0.0504612
-0.0506915
0.0270766
0.023216
0.0509052
-0.0510922
0.0302701
0.0290506
0.0512358
-0.0513195
0.0297998
0.0300148
0.051338
-0.0515431
0.0289541
0.0290029
0.0510246
-0.0502643
0.0298207
0.0287701
0.0484034
-0.0450376
0.029901
0.0302701
0.0441114
-0.0420766
0.0297877
0.0317678
0.0285655
-0.0305423
-0.0432365
0.0417932
-0.0413801
0.0281524
0.0303771
-0.054782
-0.0325767
-0.032869
-0.0481766
-0.0316427
-0.0455844
0.0249856
-0.0258503
0.048651
0.0251767
-0.0271277
-0.0412855
0.0229658
-0.0391692
0.0232741
0.049251
0.0480671
-0.0491629
-0.0291041
0.0477414
-0.047487
0.0239784
0.0492633
0.0233596
0.0291836
0.0479724
-0.0290889
0.0288919
0.0479389
0.0332283
-0.0324991
-0.0555113
-0.0533979
0.058147
-0.0583111
-0.032335
-0.0570093
0.0545959
-0.0305446
-0.031439
-0.0528204
0.0516521
-0.0277908
-0.0292642
-0.0500662
0.0501985
-0.0258905
-0.0267559
-0.0498115
0.0486698
-0.0249094
-0.0254085
-0.0474184
0.0461071
-0.0246539
-0.0248764
-0.0447722
0.043492
-0.0230348
-0.0243118
-0.0423441
0.0414404
-0.0175257
-0.0209221
-0.040852
0.0405952
-0.00803043
-0.0132187
-0.0406011
0.0410035
0.00309726
-0.00247896
-0.0416697
0.0425789
0.0131156
0.00840948
-0.0436661
0.0448368
0.0202313
0.0171265
-0.0460154
0.0471343
0.0241218
0.0225695
-0.0473802
0.0472756
0.0253883
0.0245552
0.0239747
0.0271269
-0.0292289
0.0498601
0.0497111
0.0479601
0.0508532
-0.0528944
-0.0282508
-0.0285598
0.0531718
-0.0533234
-0.0291807
-0.0285772
0.0533591
-0.0532894
-0.0276781
-0.028602
0.0531404
-0.0529553
-0.0213073
-0.0249678
0.0527917
-0.0526807
-0.00940633
-0.0157993
0.0526339
-0.0526208
0.00528012
-0.00212102
0.0526356
-0.0526406
0.0184274
0.012166
0.0526015
-0.0525283
0.0270035
0.0231769
0.052436
-0.0523319
0.030166
0.0289583
0.0522051
-0.052033
0.0296277
0.029888
0.051807
-0.0515027
0.0286499
0.0287769
0.051088
-0.050026
0.0287587
0.0283554
0.048501
-0.0478494
0.0292494
0.0287451
0.0453783
-0.0440566
0.028466
0.0292968
0.041504
-0.0391253
0.0257737
0.0278244
0.037282
-0.0177595
-0.0355548
0.0160323
0.0211225
-0.0319565
-0.0478628
-0.032815
0.0324519
-0.0551481
-0.0579933
-0.0331328
-0.0286231
0.0279781
0.0485839
-0.0280359
0.0473852
-0.0287097
-0.0440024
-0.0196398
-0.037289
-0.021515
-0.0394103
0.0105581
-0.0123645
-0.0354826
0.0231795
0.0493578
0.00927107
-0.0529025
-0.0304116
0.0307745
-0.0583563
0.061854
-0.0610623
-0.0312032
-0.0605311
0.0597314
-0.0315353
-0.0318099
-0.0586822
0.0563878
-0.0282502
-0.0303898
-0.0545499
0.0531358
-0.0263768
-0.0274263
-0.052064
0.0509793
-0.0248058
-0.0256841
-0.0498468
0.0486245
-0.0236871
-0.024276
-0.0472599
0.0457934
-0.0231875
-0.0235118
-0.0443037
0.0429141
-0.0216451
-0.0228221
-0.0417094
0.0407729
-0.0165892
-0.0197175
-0.040158
0.039905
-0.00777745
-0.0126039
-0.0400158
0.0404383
0.00267479
-0.00258974
-0.0411555
0.042109
0.0121621
0.00769226
-0.0432374
0.044452
0.0190167
0.0159982
-0.0456815
0.0468709
0.0229325
0.02134
-0.047428
0.0482417
0.0245747
0.023998
-0.0480889
0.0483333
0.023734
0.0241274
-0.0489428
0.0500904
0.0220319
0.0227502
-0.023636
0.0229536
0.0500403
0.0246593
-0.0261289
0.0501205
0.0502743
0.0263803
-0.0267228
0.0502025
0.0499626
0.0492154
-0.0478523
-0.0274473
0.0472636
0.0495464
-0.0512823
-0.0273683
-0.0273947
0.0532861
-0.0538751
-0.0276618
-0.0265561
0.054381
-0.0547982
-0.0287635
-0.0280713
0.05511
-0.0553185
-0.0274697
-0.0282902
0.0554302
-0.0554732
-0.0212644
-0.0248561
0.0554776
-0.0554662
-0.00941766
-0.0157949
0.0554417
-0.0553826
0.00522106
-0.00214555
0.0552674
-0.0550793
0.0182393
0.0120507
0.0548122
-0.0544664
0.0266577
0.0229098
0.0540678
-0.0536427
0.0297409
0.0285597
0.0532196
-0.0527856
0.0291938
0.0294649
0.0523273
-0.0517996
0.0281221
0.0283185
0.0511722
-0.0504228
0.0280093
0.0277281
0.0495398
-0.0482338
0.0279434
0.0278622
0.0460936
-0.0438987
0.0262711
0.0271565
0.0410643
-0.0379942
0.0227036
0.0249901
0.0353987
-0.0339774
0.014611
0.018527
0.00784439
0.0234229
0.0496211
-0.0292695
-0.0473029
0.0304058
-0.0547794
-0.022759
-0.0427584
0.0282276
-0.0607467
-0.0285432
0.0273951
-0.0575238
-0.0142556
-0.0375191
0.047963
-0.0497081
-0.0257021
0.0266708
0.0462961
-0.0250039
0.0266893
0.0472451
-0.00655659
-0.0339062
-0.00304671
0.0020951
-0.0315789
0.0501516
-0.0507537
0.022634
0.0505161
0.0230584
-0.0037726
-0.0517662
-0.0235546
0.0230667
-0.0602588
0.064592
-0.0634474
-0.0246991
-0.0637654
0.0624773
-0.0299151
-0.0277167
-0.0609239
0.0589602
-0.0295716
-0.0302565
-0.057313
0.0560333
-0.0269705
-0.0287426
-0.0547687
0.053535
-0.025143
-0.0261617
-0.0523255
0.0511379
-0.0236182
-0.0244746
-0.0499189
0.0486193
-0.0223875
-0.0230571
-0.047193
0.0456739
-0.0216683
-0.0220855
-0.044127
0.0426748
-0.0201929
-0.0212752
-0.0414138
0.0404414
-0.0156168
-0.0184565
-0.0398114
0.039559
-0.00752511
-0.0119739
-0.0396767
0.0401359
0.0022156
-0.00270742
-0.0408908
0.0418757
0.0111772
0.00693741
-0.0430277
0.0442674
0.017777
0.0148462
-0.0455304
0.0467693
0.0216935
0.020077
-0.0479423
0.0490348
0.0234822
0.0228251
-0.0499227
0.050473
0.0231838
0.0232395
0.0224694
0.0252362
-0.0258137
0.0506178
-0.0242984
0.023852
0.0509626
0.0505588
0.026463
-0.0265205
0.050178
0.0509237
0.0270329
-0.02666
0.0498296
0.050475
0.0265247
-0.0264224
0.0484816
0.0490802
0.0476521
0.0510673
-0.0532881
-0.0251474
-0.0260356
0.0541216
-0.0549292
-0.0268542
-0.0257226
0.0556803
-0.0563672
-0.0280766
-0.0273202
0.0569531
-0.0574304
-0.0269924
-0.0277042
0.0577808
-0.0580211
-0.021024
-0.0245056
0.0581669
-0.0582374
-0.00934713
-0.0156492
0.0582268
-0.0581151
0.00510933
-0.00215622
0.0578734
-0.0574845
0.0178504
0.0118091
0.0569722
-0.056353
0.0260384
0.0223975
0.0556732
-0.0549604
0.0290281
0.0278799
0.0542601
-0.0535698
0.0285035
0.0287646
0.052882
-0.0521439
0.027384
0.0276308
0.0513273
-0.0503893
0.0270713
0.0269115
0.0493124
-0.0480574
0.0266884
0.0267852
0.0466211
-0.0449672
0.0246172
0.0257202
0.0427149
-0.0400774
0.0200661
0.0227378
0.0378196
-0.034879
0.0116704
0.0162692
0.0331138
-0.0311436
0.000349953
0.00607921
-0.00507895
-0.024337
-0.0457249
0.0266732
-0.0540575
-0.0258136
0.026148
0.0469107
-0.0251969
0.0456794
-0.0162721
-0.0407419
0.0213829
-0.05584
-0.00692903
-0.0371467
0.0175438
-0.0625196
-0.0184715
0.0156863
-0.0584014
0.00170051
-0.0335117
0.00957106
-0.0311965
0.0518552
-0.0486806
0.0206774
-0.0152157
0.0159407
-0.0307538
-0.0303929
-0.0145655
0.0230247
-0.0241785
0.0521164
0.0532102
0.0216697
-0.04943
-0.0125202
0.00999086
-0.0599902
0.0657139
-0.0640969
-0.0141373
-0.0668294
0.0667037
-0.0245734
-0.019587
-0.0659633
0.064391
-0.0283429
-0.0269763
-0.0627109
0.0603234
-0.0271841
-0.0285764
-0.058136
0.056677
-0.0255115
-0.0265552
-0.0552688
0.053921
-0.0237952
-0.0247535
-0.0526115
0.0513392
-0.0223459
-0.0231652
-0.0500573
0.0487224
-0.0210525
-0.0217752
-0.0472746
0.0457278
-0.0201216
-0.0206377
-0.0441409
0.0426434
-0.0186953
-0.0196883
-0.0413443
0.0403462
-0.0146186
-0.0171574
-0.0397033
0.0394476
-0.00726942
-0.011331
-0.0395772
0.0400504
0.00174248
-0.00283709
-0.0408237
0.0418258
0.0101752
0.00616405
-0.0429909
0.0442458
0.0165221
0.013681
-0.0455315
0.0468031
0.0204219
0.0187914
-0.0480241
0.0491776
0.0223287
0.0216041
-0.0495927
0.0502678
0.0225087
0.0228245
-0.0502169
0.0503692
0.0224817
0.0225203
0.024747
0.025311
-0.0256908
0.0509976
0.0516914
0.026699
-0.0273375
0.0508166
0.0519318
0.0270687
-0.026606
0.0493669
0.0502062
0.0265426
-0.026513
0.048452
0.0490168
0.047287
-0.0474109
-0.0232507
0.0454646
0.0484241
-0.0499841
-0.0241421
-0.0239907
0.0529318
-0.0539399
-0.0241394
-0.0230879
0.0549331
-0.0559353
-0.025852
-0.0247294
0.0569081
-0.0578482
-0.0271366
-0.0263474
0.0587026
-0.0594511
-0.026244
-0.0268498
0.0600455
-0.0604828
-0.0205868
-0.0239112
0.0607573
-0.0608856
-0.00921883
-0.0153746
0.060865
-0.0606823
0.00492657
-0.00217678
0.0603107
-0.0597372
0.0172768
0.0114376
0.0589955
-0.0581179
0.0251608
0.0216558
0.0571751
-0.0562053
0.0280584
0.0269371
0.0552649
-0.0543487
0.0275873
0.0278242
0.0534531
-0.0525228
0.0264537
0.0267352
0.0515299
-0.0504179
0.0259593
0.0259186
0.0491699
-0.0477492
0.0252677
0.0255373
0.0461662
-0.0443334
0.0227845
0.0241371
0.0419364
-0.0395343
0.017664
0.0203407
0.0370735
-0.0346001
0.009197
0.0138084
0.0326542
-0.0303821
-0.00192213
0.00413325
0.0298826
-0.0310616
-0.00974236
-0.00557843
-0.015636
0.0175787
-0.0323355
0.0326403
-0.033236
-0.0150404
-0.0129867
-0.0174965
-0.0445005
0.0191482
-0.0518229
-0.0081722
-0.0394988
0.0144047
-0.0545583
0.000649332
-0.0360955
0.00752536
-0.0559359
0.00971149
-0.0336521
0.0030404
-0.0606502
-0.00648706
0.000730747
-0.0576806
0.0160132
-0.031269
0.0188403
-0.0320154
0.0171197
-0.0340683
-0.0162874
0.0187191
-0.033935
0.0536071
-0.0545089
0.0215793
-0.0178397
0.0144863
-0.0307148
0.0468546
-0.0472873
-0.022818
0.0231859
-0.0243568
0.0532873
0.0213035
0.0550926
0.0237703
0.0450843
-0.0219999
0.0242125
0.0450224
0.031844
-0.0341862
-0.0154976
0.0547476
0.0205291
-0.0477783
0.0021364
-0.00522494
-0.0575617
0.0650181
-0.0618064
-0.00107539
-0.0675337
0.0694534
-0.016057
-0.00900257
-0.0691965
0.0685534
-0.0239304
-0.0193301
-0.0669812
0.0646461
-0.0260078
-0.025404
-0.0621843
0.0604525
-0.0254523
-0.0261146
-0.0587639
0.0571758
-0.0239235
-0.0248666
-0.0556719
0.0542492
-0.0223724
-0.0232496
-0.0528744
0.0515471
-0.0210186
-0.0217904
-0.0502295
0.0488853
-0.0197083
-0.0204576
-0.0474487
0.0459162
-0.0185891
-0.0192011
-0.0443284
0.0428105
-0.0171774
-0.0181005
-0.0414824
0.0404605
-0.0135968
-0.0158293
-0.0398035
0.0395408
-0.00700673
-0.0106739
-0.039665
0.0401398
0.00126765
-0.00296133
-0.0409159
0.0419216
0.00916946
0.00538803
-0.0430904
0.0443518
0.0152607
0.0125122
-0.0456513
0.0469441
0.019129
0.0174919
-0.0482003
0.0494015
0.0211274
0.0203479
-0.0505386
0.0510038
0.0220435
0.0216874
-0.0511334
0.0509039
0.0227112
0.0223907
0.0211419
0.0260097
-0.027246
0.0522339
0.0533442
0.027333
-0.0272081
0.0506917
0.0520188
0.0268749
-0.0263475
0.0488395
0.0498729
0.0256446
-0.0247938
0.0476013
0.0483138
0.0249391
-0.0250879
0.0470595
0.0474323
0.044804
0.0496919
-0.0523404
-0.0214936
-0.021586
0.0534499
-0.0545776
-0.0230117
-0.0219784
0.0557203
-0.0568988
-0.0246735
-0.0235867
0.0580735
-0.059243
-0.0259671
-0.0251726
0.0603401
-0.061332
-0.025252
-0.0257527
0.0621433
-0.0627519
-0.0199781
-0.0230999
0.0631319
-0.0632961
-0.00905463
-0.0149947
0.0632464
-0.0629771
0.00465726
-0.00222646
0.062474
-0.0617293
0.0165321
0.0109345
0.0607868
-0.0596878
0.0240618
0.0207133
0.0585204
-0.0573292
0.0268672
0.0257697
0.0561819
-0.0550726
0.026478
0.0266769
0.0540001
-0.0529043
0.0253578
0.0256627
0.0517556
-0.0504897
0.0246933
0.02477
0.0490937
-0.0475338
0.0237078
0.0241413
0.0458315
-0.0439701
0.0209232
0.0224348
0.0420245
-0.0397867
0.0154263
0.0183951
0.037462
-0.0353777
0.0071127
0.0114837
0.0334713
-0.0334069
-0.0019866
0.00222684
0.0323884
-0.031789
-0.0103417
-0.00659687
0.0328251
-0.0335139
-0.0143516
-0.0119507
-0.0179572
-0.010062
-0.0426107
0.0118338
-0.049252
-0.0222216
0.0222807
0.0449633
-0.0211937
0.0440564
0.0369879
-0.0498695
-0.0213046
-0.000468771
-0.0383806
0.00503966
-0.0520726
0.0086906
-0.0350746
-0.00148274
-0.0537224
0.0163123
-0.0339511
-0.00865141
-0.0542541
0.0210264
-0.033455
-0.0117041
-0.0577455
0.00764318
-0.0146785
-0.0545873
0.0206881
-0.0339843
0.0185145
-0.0379632
0.0114521
-0.0576645
0.020844
0.0552071
-0.0460065
0.0157472
-0.0541945
-0.0192981
0.0622295
-0.0581215
0.0116391
-0.0655221
0.068349
-0.00390234
0.00435065
-0.06965
0.0695523
-0.0159593
-0.0103036
-0.0698904
0.0682266
-0.0222666
-0.0196682
-0.0666579
0.0648139
-0.0241638
-0.0238354
-0.0628807
0.0610007
-0.0235722
-0.0241814
-0.0592126
0.0575535
-0.0222644
-0.0230785
-0.0559968
0.0545343
-0.0209099
-0.0216929
-0.0531266
0.0517718
-0.0196637
-0.0203828
-0.0504392
0.0491041
-0.0183732
-0.019125
-0.0477029
0.0462164
-0.0171026
-0.0177999
-0.0446623
0.0431512
-0.0156663
-0.0165464
-0.0418063
0.0407583
-0.0125488
-0.0144844
-0.0400775
0.0397973
-0.00672648
-0.00999313
-0.0399074
0.0403707
0.00080438
-0.00307146
-0.0411354
0.0421313
0.00817359
0.00462325
-0.0432932
0.0445517
0.0140021
0.0113504
-0.0458565
0.047161
0.0178245
0.0161871
-0.048441
0.0496726
0.0198959
0.019068
-0.0508587
0.0519936
0.0209086
0.0205013
-0.0531088
0.0541876
0.0216324
0.0212755
-0.0544082
0.054673
0.0213146
0.0209213
-0.0555398
0.0565816
0.0198022
0.0196623
-0.0219366
0.0206215
0.0565223
0.023423
-0.0249373
0.0548017
0.0565789
0.0256698
-0.0267435
0.0533076
0.0540767
0.0267795
-0.0265974
0.0505096
0.0520548
0.0262077
-0.0256338
0.0482656
0.0494832
0.0248955
-0.0240245
0.0467304
0.0475755
0.0230406
-0.0219743
0.0459932
0.0464484
0.0451105
-0.0452893
-0.0203368
0.0444324
0.0473471
-0.0501134
-0.0200518
-0.0199421
0.0515791
-0.0527675
-0.0203052
-0.0201203
0.0539481
-0.0551763
-0.0217835
-0.0207977
0.0564379
-0.0577597
-0.0233517
-0.0223252
0.0591042
-0.0604725
-0.0245988
-0.0238281
0.0617853
-0.062997
-0.0240403
-0.02444
0.0640035
-0.0647593
-0.0192222
-0.0220935
0.0652162
-0.0653853
-0.00888552
-0.0145378
0.0652812
-0.0649126
0.00428864
-0.00233057
0.064285
-0.0633879
0.015635
0.0103069
0.0622761
-0.060997
0.0227826
0.0196015
0.0596492
-0.058284
0.025502
0.0244219
0.0569723
-0.0557065
0.0252122
0.0253652
0.0544891
-0.0532557
0.0241244
0.0244453
0.0519752
-0.0505791
0.0232972
0.0234895
0.0490594
-0.0473863
0.0220346
0.0226217
0.0455963
-0.0436891
0.0190159
0.0206449
0.0417455
-0.0398146
0.0134954
0.0164515
0.0380528
-0.0365764
0.00563637
0.00972192
0.0355862
-0.034557
-0.00301587
0.00123666
0.0344074
-0.035817
-0.00893214
-0.00674648
0.0364779
-0.0369093
-0.0139202
-0.0112897
-0.0178786
0.0194516
0.0577514
-0.00152866
-0.0415508
0.00322911
-0.0474414
-0.022237
-0.0540185
0.018134
-0.0511316
-0.0252999
0.00856737
-0.0382574
-0.00419419
-0.0493612
0.0169201
-0.0356824
-0.0110872
-0.0512866
0.0214591
-0.0343838
-0.0171695
-0.0517631
0.0232395
-0.0360065
-0.0220319
-0.0518535
0.0224075
-0.0378773
0.0179941
-0.0445052
0.0214486
-0.0507514
-0.0205667
0.015011
-0.0512269
-0.0227769
0.024391
-0.0523656
0.0566897
-0.0564815
0.019594
0.04412
-0.0457215
-0.0187353
0.0183632
0.0438993
-0.0181426
0.0569966
0.0191447
0.0193805
0.0434152
-0.0443061
0.0224593
-0.0263136
-0.0501643
0.0578486
-0.0531692
0.0177799
-0.0620047
0.066386
0.00725783
0.0139779
-0.0694067
0.0715517
-0.00604738
0.00132997
-0.0720749
0.0715476
-0.0154321
-0.0108267
-0.0707369
0.0692393
-0.020769
-0.0188574
-0.0673399
0.065296
-0.0221199
-0.0219359
-0.0632455
0.0613019
-0.0216287
-0.0221309
-0.0594792
0.0578001
-0.0205853
-0.0212557
-0.0562308
0.0547612
-0.0194403
-0.0201236
-0.0533497
0.0519927
-0.0183067
-0.0189713
-0.0506653
0.0493557
-0.0170636
-0.0177976
-0.0480086
0.0465952
-0.0156892
-0.0164528
-0.0451088
0.0436354
-0.0141928
-0.01506
-0.0422908
0.0412167
-0.0114747
-0.0131398
-0.0405005
0.0401872
-0.00641319
-0.00927693
-0.0402688
0.0407069
0.000366244
-0.00315307
-0.0414481
0.0424226
0.00719904
0.00388211
-0.0435675
0.0448148
0.0127548
0.0102055
-0.0461169
0.0474263
0.016515
0.0148851
-0.0487206
0.0499743
0.0186421
0.0177737
-0.0511918
0.0523665
0.0197338
0.0192838
-0.0535263
0.0546733
0.0204853
0.0201158
-0.0552632
0.0557449
0.0208329
0.0203315
0.0189256
-0.0485497
-0.0288956
0.0257905
-0.0284688
-0.047486
-0.0494769
0.0220983
0.0206234
-0.0215979
0.0574969
-0.0194661
0.0178645
0.0585983
0.0589086
0.0230192
-0.0240078
0.0557903
0.0580002
0.0253579
-0.0255597
0.0535094
0.0554268
0.0255402
-0.025307
0.0502764
0.0520353
0.0248746
-0.0242721
0.0476631
0.0490509
0.0235238
-0.0226626
0.0458692
0.0468272
0.0217043
-0.0206742
0.044963
0.0454901
0.0200973
-0.0196629
0.0445288
0.0445336
0.043774
0.0481084
-0.0500583
-0.0181019
-0.0175552
0.0519624
-0.0531817
-0.0190859
-0.0182161
0.0544174
-0.0557198
-0.0204811
-0.019562
0.0570696
-0.0585019
-0.0219194
-0.0209754
0.0599787
-0.0615055
-0.023072
-0.0223512
0.0629944
-0.064391
-0.0226437
-0.0229511
0.0655653
-0.0664472
-0.0183403
-0.0209192
0.0669614
-0.0671122
-0.00873475
-0.0140236
0.0669287
-0.0664444
0.00380433
-0.00251404
0.0656894
-0.0646653
0.0146108
0.00955197
0.0634218
-0.0620031
0.0213639
0.018358
0.0605229
-0.0590298
0.0240089
0.0229418
0.0575982
-0.0562171
0.0238311
0.0239336
0.0548882
-0.0535451
0.0227813
0.0231164
0.0521576
-0.0506568
0.0217965
0.022102
0.0490417
-0.0472871
0.02028
0.0210066
0.0454425
-0.0435203
0.0170937
0.0188003
0.0416117
-0.0397748
0.0116584
0.0145429
0.0381608
-0.0368936
0.00436921
0.00810792
0.0361553
-0.0360782
-0.00309294
0.00049831
0.0367565
-0.0373083
-0.00838035
-0.00606817
0.038651
-0.0405453
-0.012026
-0.00994698
0.0436867
-0.0489277
-0.0160636
-0.0147372
0.052015
-0.0634836
-0.0113083
-0.0174794
-0.0200212
-0.0363948
-0.00706752
-0.0194742
0.0382164
-0.0387635
-0.0443389
-0.0115301
0.00733336
-0.0403168
-0.00588123
-0.0457544
-0.0171032
0.0168691
0.0436493
-0.0158129
0.0426091
0.0164604
-0.0377977
-0.0132302
-0.0472182
0.0228495
-0.0370728
-0.0196966
-0.0487595
0.0257442
-0.0368886
-0.0243093
-0.0494857
0.024354
-0.037953
-0.0273947
-0.0497587
0.0226768
-0.04256
0.0212783
-0.0507726
0.0241816
-0.0510175
0.0283744
-0.0425236
-0.0465055
-0.0305129
-0.0269135
-0.0462206
0.0236572
-0.0292119
-0.0451877
0.0242406
-0.0267824
-0.0436788
0.0605164
-0.0581366
0.0154848
-0.017188
0.0242087
-0.0457842
0.0158061
-0.0182404
0.0610326
-0.0448424
-0.0166845
0.0151531
0.0611693
-0.042854
-0.0492756
0.0531972
0.0197356
0.020797
-0.0578218
0.0617786
0.0138231
0.0174737
-0.0663167
0.0698274
0.00374711
0.00943988
-0.072262
0.072773
-0.00655835
-0.00110468
-0.0732842
0.0727461
-0.0148939
-0.0113379
-0.0714135
0.0695824
-0.0189378
-0.0175249
-0.0674928
0.0653681
-0.0199952
-0.0198464
-0.0633028
0.0613761
-0.0197019
-0.0200656
-0.0595803
0.0579271
-0.0189321
-0.0194599
-0.0563806
0.0549326
-0.0179924
-0.0185771
-0.0535431
0.0522072
-0.0169708
-0.0175817
-0.0509033
0.0496307
-0.0157911
-0.0164937
-0.0483477
0.0470245
-0.014366
-0.0151698
-0.0456341
0.0442313
-0.01279
-0.0136696
-0.0429121
0.0418193
-0.0103819
-0.0118206
-0.0410577
0.0406918
-0.00604734
-0.00851531
-0.0407244
0.0411201
-2.9459e-05
-0.0031856
-0.0418241
0.0427668
0.00625633
0.00317812
-0.0438858
0.045115
0.0115256
0.00908643
-0.0464073
0.0477159
0.0152064
0.0135928
-0.0490165
0.0502854
0.0173732
0.0164731
-0.0515217
0.0527264
0.0185291
0.0180475
-0.0539151
0.055112
0.0192884
0.0189271
-0.055821
0.0573326
0.0193213
0.0196225
-0.057039
0.0579848
0.0186482
0.0192192
0.0189929
0.019134
-0.0209822
0.059345
0.0598022
0.021491
-0.0231039
0.0574032
0.058509
0.0234459
-0.0235741
0.0536376
0.0557688
0.0234936
-0.023216
0.0499988
0.0519547
0.0227557
-0.0221451
0.0470525
0.0485906
0.0214107
-0.0205854
0.0450438
0.0460928
0.0196863
-0.018738
0.0440148
0.044591
0.0182055
-0.0174831
0.0438064
0.0440011
0.04316
-0.0428613
-0.0158487
0.0428971
0.0458489
-0.0484232
-0.016161
-0.015155
0.0495773
-0.0511304
-0.0165487
-0.0164011
0.0523388
-0.053576
-0.0178487
-0.0170077
0.0548442
-0.0561905
-0.0191347
-0.0182939
0.0575966
-0.0591011
-0.0204148
-0.0195694
0.0606696
-0.0623112
-0.0214305
-0.0207828
0.0639345
-0.0654796
-0.0210986
-0.0213278
0.0667954
-0.0677866
-0.017349
-0.0196034
0.0683472
-0.0684672
-0.00861469
-0.0134631
0.0681869
-0.0675704
0.00318788
-0.00279437
0.0666874
-0.0655479
0.0134713
0.00866896
0.0642038
-0.062691
0.019851
0.017014
0.0611195
-0.0595405
0.0224299
0.0213703
0.0580296
-0.0565704
0.0223719
0.0224228
0.0551646
-0.0537431
0.0213598
0.0217106
0.052279
-0.0507062
0.0202237
0.0206379
0.0490302
-0.0472309
0.0184807
0.0193306
0.0453668
-0.0434599
0.0151868
0.0169363
0.0416112
-0.0398906
0.00993785
0.0126942
0.0384549
-0.0374376
0.00335191
0.00667215
0.0370105
-0.037271
-0.00283241
7.12107e-05
0.038192
-0.0395954
-0.00697689
-0.00514719
0.0411762
-0.0434198
-0.00978231
-0.00836624
0.0456816
-0.0484886
-0.0132566
-0.0124754
0.053195
-0.0511555
-0.0133478
-0.012773
0.0467361
-0.0453892
-0.012877
-0.0114869
-0.00763119
0.0146035
-0.0518148
0.0476445
-0.0405244
-0.0147514
-0.0144291
0.0157164
-0.0395728
-0.0146389
-0.0443457
0.0230344
-0.0379826
-0.0211711
-0.0457437
0.0268902
-0.0382188
-0.0262494
-0.0468193
0.0274138
-0.0399484
-0.0295107
-0.0473697
0.0259942
-0.0412704
-0.0308949
-0.0477593
0.0234484
-0.0447301
0.0232699
-0.0498608
0.0264611
-0.0491041
0.0270857
-0.0454006
0.019303
-0.0504836
0.00440194
0.0295082
-0.0744345
0.0136278
-0.0610407
0.0451786
0.0158672
-0.0431966
-0.0178492
-0.0451053
-0.0306121
-0.0287966
-0.0431734
-0.0255403
-0.0415369
0.0140655
-0.0151713
0.0621384
0.0607665
-0.0605833
0.0153015
0.0428348
-0.0450181
-0.0136654
0.0137071
0.0417352
-0.0126076
0.0138231
0.0427812
0.0626685
0.0132511
0.0119749
0.0632599
-0.0417764
-0.0473867
0.0507213
0.0172029
0.0167358
-0.054447
0.0585276
0.015655
0.0170713
-0.0626976
0.0665737
0.00994702
0.0133037
-0.0696236
0.0716248
0.00174597
0.00638997
-0.0735342
0.0743389
-0.00736308
-0.00301409
-0.0741109
0.0730264
-0.0138094
-0.0111099
-0.0713352
0.0693314
-0.0169341
-0.0158337
-0.0672042
0.0651189
-0.0179099
-0.0177192
-0.063126
0.0612769
-0.0178529
-0.0180727
-0.0595518
0.0579573
-0.0173376
-0.0177348
-0.0564594
0.055054
-0.016587
-0.0170793
-0.0537055
0.0524093
-0.0156746
-0.0162332
-0.0511448
0.0499188
-0.0145651
-0.0152292
-0.048704
0.047478
-0.01314
-0.013955
-0.0462028
0.044902
-0.0114892
-0.0123944
-0.0436407
0.0425489
-0.00929013
-0.0105593
-0.0417414
0.041306
-0.00561192
-0.00770775
-0.0412654
0.0415958
-0.000359909
-0.003145
-0.0422448
0.0431429
0.00535826
0.00252912
-0.0442268
0.0454305
0.010322
0.00800247
-0.0467062
0.0480074
0.0139052
0.0123171
-0.0493078
0.0505843
0.0160967
0.0151727
-0.0518322
0.0530556
0.0173057
0.0167995
-0.0542652
0.0554898
0.0180637
0.0177176
-0.0567321
0.0574172
0.0186362
0.0183802
-0.0578509
0.0587538
0.0177453
0.0187856
0.0171633
0.0171331
-0.0185157
0.0607277
0.061764
0.020001
-0.0204379
0.05784
0.0599943
0.0206807
-0.0207305
0.0536874
0.0560117
0.0205927
-0.0202823
0.0496884
0.0518169
0.0198148
-0.0192219
0.0464595
0.0481231
0.0185287
-0.0177707
0.0442858
0.0453996
0.0169661
-0.0161415
0.0431902
0.0437863
0.0153074
-0.0144762
0.0429753
0.0431669
0.0146194
-0.0135672
0.042597
0.0433032
0.042865
0.0466477
-0.0484435
-0.0143652
-0.0135254
0.0503134
-0.0515087
-0.0153534
-0.0145312
0.0526999
-0.0539384
-0.0166102
-0.0158166
0.0552175
-0.0565808
-0.0177715
-0.0170148
0.058011
-0.0595506