/*--------------------------------*- C++ -*----------------------------------*\
  =========                 |
  \\      /  F ield         | OpenFOAM: The Open Source CFD Toolbox
   \\    /   O peration     | Website:  https://openfoam.org
    \\  /    A nd           | Version:  10
     \\/     M anipulation  |
\*---------------------------------------------------------------------------*/
FoamFile
{
    format      ascii;
    class       surfaceScalarField;
    location    "27.5";
    object      phi;
}
// * * * * * * * * * * * * * * * * * * * * * * * * * * * * * * * * * * * * * //

dimensions      [0 3 -1 0 0 0 0];

internalField   nonuniform List<scalar> 
12623
(
0.396007
0.0960068
-0.153819
-0.338195
0.307387
-0.15346
0.24208
0.345874
0.0652807
-0.327027
-0.0841276
0.0618772
0.327727
-0.0437308
-0.315062
-0.055222
0.0780539
0.29223
-0.327854
0.0746692
-0.0528872
0.212502
-0.229926
0.0703112
-0.29649
0.243602
0.276199
-0.0154307
-0.260769
0.0729965
0.0128377
0.190365
0.341608
-0.1621
-0.179507
-0.241346
0.188851
0.394102
-0.206437
-0.148817
0.151263
0.203991
0.0192803
0.0338109
-0.259528
-0.196042
0.0665048
-0.0227577
-0.000915045
-0.0466529
0.0703257
0.0607438
-0.0646094
-0.0188921
-0.0310255
0.0908542
0.0181576
-0.0424673
-0.0272862
0.0515959
-0.116208
0.0596081
0.0747571
-0.132718
-0.0259573
0.0336306
0.119164
-0.0898879
-0.0629071
0.00125336
0.0284837
0.00389347
-0.205696
0.326114
-0.274685
0.0251064
0.28339
0.0402629
-0.306017
-0.00893142
-0.312098
0.0231174
0.314087
-0.199097
-0.0787557
0.0635573
0.214295
-0.185354
0.0324583
-0.0462011
-0.231603
0.238901
0.104785
-0.112083
-0.207761
-0.102597
-0.328992
-0.00956192
0.034666
0.303888
0.0371311
-0.333365
-0.0327575
0.309637
-0.327568
0.0107
0.00084644
0.316022
-2.08898e-05
-0.329573
0.00202552
-0.3384
0.0212368
0.317142
-0.332278
-0.0156831
0.325853
-0.0370697
-0.348194
0.0594103
-0.0215917
0.0612545
0.28619
-0.329318
-0.0247246
0.316973
-0.331671
0.013053
-0.131791
0.123099
0.247593
-0.316242
-0.0945986
0.112048
0.298792
0.108746
-0.322706
-0.102282
0.0793064
-0.341879
-0.313719
0.0987435
0.289645
-0.329011
-0.0165493
-0.279552
-0.00312635
0.299228
0.222917
0.0480448
-0.287511
-0.218875
0.0553381
0.386453
-0.105484
0.356391
-0.287732
0.0368247
-0.276314
0.288422
0.0535602
-0.0540528
-0.287929
0.0461876
0.267033
-0.0247985
-0.0288651
0.0178802
0.313974
-0.302989
-0.325101
0.322216
-0.02598
0.306006
-0.0511532
0.0591352
-0.313988
0.18925
-0.199863
-0.196127
0.20674
-0.175172
0.183577
0.180845
-0.20325
-0.21018
0.213567
-0.210376
-0.212271
0.219397
-0.208586
-0.212478
0.210688
-0.210472
-0.203196
0.205082
-0.204916
-0.181227
0.175671
-0.207631
-0.137538
0.140252
-0.211312
-0.0748317
0.0785121
0.000309797
-0.220567
0.00894519
0.185327
-0.198723
-0.161776
-0.139675
0.172764
0.150488
0.179357
-0.133705
-0.209672
-0.185178
-0.222853
-0.196998
-0.22501
-0.210115
-0.230154
-0.207333
-0.22861
-0.20474
-0.232058
-0.177779
-0.23339
-0.136206
-0.240937
-0.0672849
-0.253232
0.0126055
0.0983433
0.175667
-0.0946534
0.170819
0.100288
0.0794787
-0.237462
-0.0625832
-0.267693
0.0939392
0.0520678
0.178716
-0.0551168
0.174537
0.0483498
0.146359
-0.251117
-0.132704
-0.283046
0.161712
0.00660588
0.186776
-0.0146662
-0.00421128
0.191453
-0.26715
-0.17542
-0.286845
0.195252
0.200561
0.0186738
0.0518832
0.212235
0.209803
-0.208394
-0.268559
0.219257
-0.296299
0.190121
-0.187849
-0.0169387
-0.186012
0.198569
0.0393261
0.0227837
0.190279
-0.195548
-0.0893842
-0.052687
0.205739
-0.218421
-0.149093
-0.123514
0.232775
-0.242404
-0.187369
-0.170824
0.255344
-0.258675
-0.204003
-0.197175
0.26691
-0.268364
-0.176325
-0.196505
0.277717
-0.28201
-0.062992
-0.126852
0.291413
-0.304943
0.107469
0.0220083
0.311301
-0.312636
0.196586
0.16807
-0.310086
0.216707
-0.23519
0.214682
-0.112196
0.242741
-0.198591
-0.252544
-0.167869
-0.204422
0.197081
0.0162861
-0.0523235
-0.194731
0.200626
0.134357
0.0808627
-0.201201
0.21054
0.195743
0.175095
-0.204527
0.207981
0.215943
0.216702
-0.19801
0.195878
0.208871
0.223538
-0.185818
0.180527
0.155779
0.190905
-0.17588
0.180295
0.0439346
0.104935
-0.193082
-0.0608806
-0.0169977
-0.0919891
0.0797418
0.224482
0.227091
0.0813746
0.196936
-0.221502
-0.305124
0.21654
-0.22979
-0.288011
-0.249277
0.232526
-0.18184
-0.212337
0.225128
-0.265336
-0.268878
-0.192735
0.205708
-0.218125
-0.292707
-0.326736
0.336613
0.206663
0.193229
-0.314257
0.254899
-0.23466
-0.132322
0.202603
-0.207431
0.0441536
0.211492
0.0724863
0.259355
-0.136247
-0.273221
0.200792
-0.201709
-0.0160219
0.0161449
0.207016
-0.213558
-0.082842
-0.0473797
0.227515
-0.238874
-0.137734
-0.109558
0.254241
-0.268537
-0.173073
-0.155457
0.280913
-0.291617
-0.1933
-0.184799
0.30009
-0.309155
-0.16726
-0.188031
0.315971
-0.324292
-0.0546706
-0.120037
0.330967
-0.333898
0.1104
0.0286836
0.334019
-0.3396
0.202167
0.168192
0.21372
-0.215849
0.205654
-0.102
-0.151192
-0.198696
0.197906
0.0170758
-0.045366
-0.202218
0.207123
0.129452
0.0765513
-0.221775
0.219814
0.197704
0.160444
-0.232285
0.221643
0.226585
0.20423
-0.227985
0.213091
0.223766
0.217196
-0.210368
0.197849
0.168298
0.193628
-0.193567
0.193126
0.044376
0.109216
-0.19812
0.222883
-0.0856432
-0.0219917
-0.114375
-0.115317
0.13206
0.20774
0.234873
-0.116881
0.218496
0.109877
0.212115
0.216522
-0.200248
-0.285152
0.225881
-0.274695
-0.228265
-0.277871
-0.3443
0.349892
0.201071
-0.326244
0.175172
-0.192397
0.174961
-0.296821
-0.204594
-0.28051
-0.290089
0.272302
-0.182462
-0.205155
0.210763
-0.29076
-0.305999
-0.189245
-0.129824
0.143898
0.233519
0.25761
-0.128078
0.118209
-0.130743
0.23103
0.231247
-0.220397
0.0990263
0.24485
0.104606
-0.274628
-0.138957
0.277337
-0.247348
-0.159602
-0.275605
0.214184
-0.211926
0.0418954
0.0662733
0.212308
-0.217091
-0.0112392
0.0165271
0.220275
-0.229413
-0.0737048
-0.0441951
0.240868
-0.253928
-0.124673
-0.098103
0.271747
-0.285459
-0.159361
-0.137639
0.303542
-0.315104
-0.181737
-0.166716
0.331274
-0.342401
-0.156134
-0.171861
0.355694
-0.366029
-0.0443356
-0.106744
0.370798
-0.3706
0.110202
0.0334521
0.363923
-0.36196
0.200204
0.161514
0.201653
-0.254364
0.23272
-0.160197
-0.174796
-0.215754
0.206079
-0.0923256
-0.134225
-0.20003
0.19993
0.0171754
-0.0393167
-0.208464
0.217514
0.120402
0.0680177
-0.227789
0.236853
0.18864
0.150169
-0.243086
0.245666
0.224005
0.197997
-0.244796
0.240555
0.228006
0.218067
-0.235558
0.22939
0.174466
0.198625
-0.226363
0.221697
0.0490424
0.112243
-0.22367
0.22723
-0.0892036
-0.0239649
-0.134492
-0.148603
0.141968
0.214375
0.230167
0.22334
-0.311977
0.160694
0.217567
-0.281498
-0.2136
-0.268865
0.211957
-0.205344
-0.312613
0.21583
-0.294632
-0.178444
0.158239
-0.276616
-0.193767
-0.265188
0.138519
-0.149505
0.242016
0.120535
0.262833
-0.147712
0.167889
0.213342
-0.133691
0.243589
0.267096
-0.267991
-0.158707
-0.159595
0.287734
0.247518
-0.233219
0.084727
0.261624
0.0905005
-0.297564
0.143826
-0.151348
0.127138
-0.273355
-0.171125
-0.256839
0.276261
-0.127002
-0.271638
0.228345
-0.230861
0.0444114
0.0613999
0.231028
-0.231573
-0.0106941
0.0166937
0.236271
-0.243282
-0.0666929
-0.0394974
0.254721
-0.269819
-0.109576
-0.0866642
0.286149
-0.303981
-0.141528
-0.121308
0.321769
-0.340508
-0.162999
-0.148929
0.358484
-0.375881
-0.138736
-0.153885
0.390065
-0.400825
-0.0335757
-0.0925604
0.406023
-0.404558
0.108737
0.0386508
0.396444
-0.382555
0.186315
0.1534
0.370011
-0.347628
0.178688
0.189109
0.335344
-0.320922
0.146272
0.162889
0.299745
-0.279153
0.106546
0.122649
-0.29275
0.274081
-0.163792
0.305399
-0.320334
-0.190409
-0.176597
-0.256059
0.238827
-0.142965
-0.156774
-0.220802
0.212087
-0.0836103
-0.116201
-0.207701
0.210463
0.0144139
-0.034931
-0.217593
0.2284
0.109594
0.0608874
-0.239526
0.250818
0.177347
0.139043
-0.259388
0.265851
0.217541
0.189428
-0.26919
0.270731
0.226466
0.214729
-0.270325
0.269023
0.175768
0.199031
-0.265512
0.264391
0.0501637
0.115754
-0.262109
0.261698
-0.0887924
-0.0216833
-0.140785
-0.17525
0.164228
0.225397
0.222805
0.238063
-0.223634
0.228097
-0.317076
-0.337084
-0.206883
0.116835
-0.137685
-0.252505
-0.253018
0.0907
0.213177
-0.278845
-0.206754
-0.255879
0.111714
0.270445
-0.116159
0.258729
0.306262
-0.300311
-0.164659
0.307216
-0.160548
0.226584
-0.29312
-0.19048
-0.245832
0.230884
-0.216503
-0.351466
0.237262
-0.323453
-0.161709
-0.232815
0.0886438
-0.119408
-0.221741
0.0700069
-0.234381
0.298715
-0.137982
-0.265215
0.270586
-0.258253
0.072394
-0.27341
0.288739
0.096385
0.087676
0.256501
-0.249983
0.037893
0.0596485
0.246584
-0.245576
-0.0117013
0.0132945
0.249464
-0.25682
-0.0593377
-0.0356095
0.267787
-0.282028
-0.095335
-0.0756967
0.297483
-0.315574
-0.123438
-0.105853
0.334762
-0.356976
-0.140785
-0.12974
0.378659
-0.399617
-0.117778
-0.132201
0.415146
-0.426075
-0.0226466
-0.0770316
0.42976
-0.426432
0.10541
0.0423354
0.415552
-0.398279
0.169042
0.14252
0.373824
-0.35649
0.161354
0.164653
0.332432
-0.311607
0.125448
0.138831
0.292597
-0.275598
0.0895479
0.103638
0.258745
-0.242884
0.0541456
0.073847
-0.331939
0.315339
-0.17381
0.353436
-0.376059
-0.19388
-0.185386
-0.297326
0.280643
-0.14711
-0.158583
-0.258745
0.244156
-0.128376
-0.134876
-0.229944
0.222131
-0.0757979
-0.101988
-0.219908
0.223389
0.0109327
-0.0327074
-0.231213
0.242843
0.097964
0.0530634
-0.255338
0.268573
0.164113
0.126549
-0.280088
0.290421
0.207207
0.177913
-0.29873
0.305814
0.219382
0.20642
-0.310924
0.313954
0.172738
0.19392
-0.315418
0.311173
0.0544084
0.114291
-0.307907
0.304169
-0.0850545
-0.0184167
-0.136927
-0.217912
0.230482
-0.364036
-0.396436
-0.197535
0.0410337
-0.0607025
-0.214712
-0.229679
0.0278286
0.291302
-0.153473
-0.144554
0.158526
0.244757
0.258796
-0.187051
0.182527
0.217866
0.215064
-0.184915
0.180238
0.230074
0.220417
-0.170357
0.156045
0.256329
0.247944
-0.140742
0.126154
0.285033
0.278136
0.112417
0.302476
0.217288
-0.269549
-0.204679
-0.24168
0.229303
-0.285161
-0.182888
-0.224653
0.227023
-0.319994
-0.140145
-0.212078
0.195748
-0.177534
-0.41465
0.199513
-0.367801
-0.0825884
-0.199855
-0.00523748
-0.00323796
-0.221203
-0.0161587
-0.203791
0.299408
-0.289911
0.0868888
0.316592
0.0952331
-0.252605
0.280269
-0.27349
0.0656152
0.0780337
0.268452
-0.262322
0.0317629
0.0546101
0.259495
-0.257613
-0.0135833
0.0104673
0.261778
-0.268374
-0.0527416
-0.031444
0.278675
-0.29112
-0.0828896
-0.0653963
0.305666
-0.323352
-0.105752
-0.0913072
0.343391
-0.36768
-0.116496
-0.109701
0.391405
-0.414174
-0.0950095
-0.108477
0.43019
-0.43978
-0.0130559
-0.0610156
0.439589
-0.431807
0.0976279
0.042144
0.418038
-0.3995
0.150503
0.128752
0.377804
-0.353824
0.137374
0.142958
0.331243
-0.30936
0.103564
0.11625
0.290461
-0.275312
0.0743989
0.0847389
0.261204
-0.250637
0.0435792
0.0597389
0.242328
-0.23977
-0.00579546
0.0195194
-0.392414
0.366626
-0.168092
0.420263
-0.444788
-0.153009
-0.169686
-0.339632
0.316817
-0.150995
-0.158392
-0.295854
0.281499
-0.132754
-0.13762
-0.263769
0.248858
-0.113465
-0.117146
-0.238197
0.232336
-0.0699372
-0.0913266
-0.232217
0.237228
0.00592221
-0.0325889
-0.24599
0.258281
0.0856725
0.0443016
-0.271901
0.287219
0.148795
0.112929
-0.301753
0.316516
0.192444
0.163379
-0.329538
0.342053
0.206867
0.193398
-0.352161
0.359514
0.165385
0.183812
-0.36287
0.361831
0.0554478
0.110935
-0.356343
0.348063
-0.076774
-0.0129293
-0.337665
0.32548
-0.152473
-0.12653
-0.325608
0.319747
-0.147611
-0.160676
-0.111546
-0.151568
0.177475
0.21885
0.120018
0.277518
0.227245
-0.183292
0.187024
0.214134
0.209247
-0.188849
0.182086
0.236837
0.218592
-0.177505
0.158419
0.275415
0.252526
-0.147088
0.127439
0.304683
0.289467
-0.126259
0.131668
-0.420059
-0.459361
-0.111686
-0.0335352
0.0318991
-0.219567
-0.244003
-0.0293027
-0.116279
0.104449
0.328422
0.313635
0.217979
-0.258224
-0.200767
-0.223801
0.218935
-0.277073
-0.16388
-0.200918
0.194234
-0.314716
-0.105215
-0.189451
0.130104
-0.366237
-0.0327568
-0.183256
0.0327899
-0.0327018
-0.459449
0.0259159
-0.413185
0.0311342
-0.203026
0.0641822
-0.254496
-0.0536889
0.0724681
-0.227853
-0.476352
0.476434
-0.0327837
0.0751219
-0.0898586
-0.444712
-0.455954
0.0547236
-0.0712937
0.0876275
-0.27083
-0.243892
0.239479
-0.0492761
-0.248181
-0.0670043
0.343877
-0.328234
0.0888062
0.0926514
-0.115666
0.351437
0.348835
0.0876931
-0.235393
0.31274
-0.307124
0.0812721
0.0797391
0.298421
-0.289704
0.0568976
0.0693312
0.281167
-0.271853
0.0224484
0.0460738
0.269634
-0.268102
-0.0151154
0.00824854
0.272483
-0.278369
-0.046856
-0.0270628
0.288151
-0.29985
-0.07119
-0.0556142
0.313927
-0.33145
-0.0882293
-0.0772301
0.351372
-0.374763
-0.0931051
-0.0897784
0.397031
-0.418354
-0.0736868
-0.0862088
0.433892
-0.442925
-0.00402308
-0.0454774
0.441722
-0.431751
0.0876578
0.0409409
0.414911
-0.394274
0.129866
0.111911
0.372364
-0.349469
0.114479
0.121047
0.327718
-0.307072
0.0829181
0.0944998
0.288908
-0.271523
0.0570143
0.0665744
0.255943
-0.243453
0.0310894
0.0441588
0.237356
-0.238445
-0.00470668
0.0134226
-0.0282686
-0.458472
0.433141
-0.127678
-0.0937239
-0.399982
0.373041
-0.14115
-0.136527
-0.343515
0.323052
-0.130532
-0.128865
-0.303016
0.286422
-0.11616
-0.117585
-0.271156
0.256736
-0.0990451
-0.10188
-0.24655
0.241255
-0.0646421
-0.0811414
-0.242243
0.248804
-0.00063796
-0.033577
-0.259034
0.27287
0.0718363
0.034071
-0.287698
0.30475
0.131743
0.0981009
-0.321513
0.339543
0.174414
0.146616
-0.35659
0.373856
0.189601
0.176351
-0.388313
0.399904
0.153793
0.169355
-0.405582
0.40542
0.0556091
0.105258
-0.399624
0.389876
-0.0670261
-0.00713268
-0.370441
0.354986
-0.137018
-0.107095
-0.338106
0.327679
-0.137185
-0.143796
-0.125746
-0.104839
0.144872
0.237486
0.26286
-0.155467
0.163843
0.210474
0.21665
-0.170429
0.175628
0.208935
0.202661
-0.179179
0.180348
0.235667
0.215042
-0.178199
0.173832
0.279781
0.254675
-0.161123
0.139135
0.32667
0.302176
0.337105
0.203527
-0.242816
-0.18392
-0.203761
0.181949
-0.264788
-0.124715
-0.181418
0.12182
-0.306432
-0.0479196
-0.174288
0.0181239
-0.358445
0.0275039
-0.179626
-0.104948
-0.398096
0.0805278
-0.211085
-0.170053
0.142552
-0.428453
-0.197853
-0.416912
0.105648
-0.245874
0.0881222
-0.25906
-0.0772429
0.0984658
-0.281174
-0.424446
0.460615
0.106382
0.194022
-0.230567
-0.391908
-0.381711
0.151287
-0.0842914
0.100544
-0.275313
-0.297223
0.285044
-0.0650639
-0.311277
-0.0702374
0.0778963
-0.100882
0.374422
0.0581187
0.368613
0.348646
-0.336374
0.0765346
0.361021
0.0753179
-0.215786
0.327567
-0.31534
0.0690442
0.0709323
0.307892
-0.296279
0.0452854
0.0618833
0.287808
-0.280222
0.0148618
0.0376027
0.277859
-0.277897
-0.0150774
0.00588598
0.2818
-0.289087
-0.0395684
-0.0231602
0.298332
-0.310472
-0.0590498
-0.0463695
0.323791
-0.340261
-0.0717589
-0.0639116
0.357674
-0.376966
-0.073813
-0.0723652
0.395772
-0.413902
-0.0555571
-0.0674029
0.427688
-0.434194
0.00248273
-0.0316915
0.432469
-0.42241
0.0775988
0.0392167
0.406725
-0.385658
0.108799
0.0962259
0.363813
-0.340488
0.0911544
0.0992016
0.319113
-0.298869
0.0626741
0.0731248
0.282512
-0.268794
0.0432957
0.0502175
0.260034
-0.255531
0.0265865
0.0353985
0.256207
-0.256023
-0.00489079
0.0140993
0.261937
-0.271139
-0.0400742
-0.0223543
-0.0530997
-0.481539
0.477267
-0.0285121
0.0337999
-0.456996
0.43067
-0.101351
-0.0734527
-0.401286
0.37521
-0.115075
-0.107144
-0.353076
0.332411
-0.109867
-0.106731
-0.31533
0.299018
-0.0998484
-0.100504
-0.283855
0.268273
-0.0834636
-0.0867166
-0.256734
0.250547
-0.0584553
-0.0696019
-0.251004
0.257553
-0.00718633
-0.0340346
-0.268336
0.283271
0.0569019
0.0232873
-0.299612
0.318471
0.112884
0.0817598
-0.337381
0.358174
0.153621
0.127705
-0.378144
0.398732
0.169013
0.156381
-0.415816
0.430473
0.139135
0.152272
-0.438297
0.439955
0.0539505
0.097434
-0.433488
0.420471
-0.0540093
-0.000665205
-0.402324
0.379488
-0.114182
-0.0889478
-0.358988
0.342799
-0.120996
-0.123296
-0.109974
-0.0552924
0.0833241
0.264198
0.28901
-0.107899
0.12317
0.222215
0.238285
-0.132325
0.140304
0.202494
0.207495
-0.14725
0.15371
0.202474
0.195716
-0.159047
0.161885
0.232828
0.209705
-0.161563
0.153888
0.287457
0.254997
-0.138535
0.121156
0.34405
0.317529
0.357379
0.163721
-0.224587
-0.144095
-0.184381
0.108693
-0.251661
-0.0616806
-0.167657
0.0103801
-0.298688
0.0229886
-0.169773
-0.113589
-0.349804
0.0882786
-0.187377
-0.214893
-0.381056
0.12186
-0.227297
-0.260437
-0.387041
0.123034
-0.270442
-0.202253
0.160723
-0.34018
-0.241266
-0.352896
0.108894
-0.289524
0.087873
-0.0775413
-0.321609
0.109778
-0.297218
0.115042
0.304098
-0.196161
0.346196
-0.338305
0.0686432
-0.325287
0.214193
0.226136
0.096227
0.335742
-0.319975
0.0532771
0.0683698
0.311069
-0.300168
0.034385
0.0529769
0.291919
-0.286924
0.0098672
0.0293537
0.284156
-0.287008
-0.0122259
0.00311756
0.290907
-0.299164
-0.0313118
-0.0192604
0.307554
-0.31887
-0.0477339
-0.0379797
0.331048
-0.345217
-0.05759
-0.051733
0.360192
-0.375597
-0.0584082
-0.0573904
0.391214
-0.404741
-0.0420292
-0.0517862
0.414269
-0.415897
0.00411065
-0.0221635
0.411358
-0.399578
0.0658187
0.0346772
0.384867
-0.366044
0.0899756
0.0815155
0.347131
-0.32713
0.0711526
0.080289
0.310211
-0.29545
0.0479135
0.0562061
0.285094
-0.277513
0.0357145
0.0398617
0.27238
-0.268101
0.0223068
0.0302657
0.265582
-0.265185
-0.00528758
0.0115809
0.266369
-0.272845
-0.0335989
-0.0211706
0.280565
-0.29156
-0.0540692
-0.0453792
0.299194
-0.309362
-0.0673737
-0.062603
-0.425222
0.45823
0.073374
0.38169
-0.349267
0.1283
0.107754
-0.467096
0.460953
-0.0223688
0.0249342
-0.440861
0.416553
-0.0770427
-0.0533611
-0.393285
0.372718
-0.0945077
-0.0838761
-0.356595
0.340588
-0.0938598
-0.0906073
-0.325854
0.31111
-0.0851044
-0.0857698
-0.297551
0.282334
-0.0682473
-0.0731574
-0.269248
0.259944
-0.0491515
-0.0565156
-0.258199
0.263416
-0.0124033
-0.0322896
-0.273967
0.289017
0.0418511
0.0127369
-0.306063
0.325972
0.0929753
0.064714
-0.346136
0.368854
0.130904
0.107541
-0.39045
0.413085
0.146378
0.134785
-0.432124
0.448584
0.122675
0.133233
-0.457746
0.459982
0.0517149
0.0882714
-0.453546
0.439603
-0.0400665
0.00577089
-0.419171
0.395761
-0.0907729
-0.0685152
-0.3718
0.35221
-0.101405
-0.0993355
-0.332489
0.324982
-0.0766206
-0.0902537
-0.0521138
-0.0568747
0.076219
0.244854
0.0377513
0.287373
0.269887
-0.087287
0.0929607
0.216541
0.227217
-0.0996732
0.106773
0.195395
0.200783
-0.114022
0.121125
0.195371
0.188466
-0.127257
0.131476
0.228609
0.203574
-0.132969
0.127964
0.292462
0.253504
-0.121806
0.109312
0.356544
0.323687
-0.0806084
0.0536236
0.401407
0.386082
0.0102283
0.508062
0.432465
0.141377
-0.177321
-0.304236
-0.319678
0.111787
-0.0769501
0.0893267
-0.333985
-0.322862
-0.0634495
0.0921534
-0.208048
-0.0765816
-0.16948
-0.334178
-0.0308582
0.00220427
-0.243485
0.0175094
-0.162178
0.46488
-0.350455
0.111711
0.0650217
-0.0189174
0.461958
0.0763949
0.453507
-0.117449
-0.294828
0.0955649
-0.177059
-0.224194
-0.340503
0.138091
-0.203608
-0.278675
-0.362819
0.149181
-0.253444
-0.272081
-0.356226
0.129215
-0.290763
-0.219514
-0.310703
0.122477
-0.302222
-0.11226
0.0917386
-0.299156
-0.140047
-0.27645
0.112359
-0.320251
-0.0785854
0.0910976
-0.346497
-0.0627328
-0.338715
-0.180589
0.351737
-0.346523
0.0634289
0.097509
0.332089
-0.324105
0.0452936
0.0539354
0.310989
-0.30377
0.0271657
0.0398608
0.295495
-0.294189
0.00856118
0.0210787
0.29371
-0.297429
-0.00850709
0.00263853
0.301807
-0.30835
-0.0247693
-0.0148818
0.315401
-0.324279
-0.0388557
-0.0309283
0.333909
-0.344794
-0.0467048
-0.0421037
0.356105
-0.368452
-0.0460613
-0.0460789
0.381053
-0.392551
-0.030531
-0.0391856
0.399953
-0.40059
0.00474751
-0.0147612
0.393537
-0.379373
0.0516553
0.0276238
0.363159
-0.346153
0.0729694
0.0653016
0.331543
-0.318572
0.0581817
0.0656786
0.308623
-0.300766
0.0400563
0.0462573
0.294787
-0.289497
0.0304243
0.0338829
0.284098
-0.279083
0.0172918
0.0248667
0.274599
-0.273244
-0.00664303
0.00709706
0.276177
-0.278807
-0.0309683
-0.0182374
0.285918
-0.294172
-0.0458149
-0.0382687
0.305594
-0.320018
-0.05295
-0.0511813
0.328628
-0.337566
-0.0537952
-0.0548386
-0.350969
0.387944
0.0913251
0.328637
-0.313837
0.0769391
0.0894545
-0.416035
0.437641
0.0517678
0.0796631
-0.446824
0.438801
-0.0143456
0.0157513
-0.422286
0.401309
-0.0560659
-0.0368458
-0.381407
0.36225
-0.0753505
-0.0639739
-0.346907
0.332789
-0.0797421
-0.0752642
-0.320719
0.309193
-0.0735782
-0.0736996
-0.300021
0.290001
-0.058228
-0.0639854
-0.280212
0.270406
-0.0393463
-0.0467258
-0.26595
0.267734
-0.0141873
-0.0278336
-0.276321
0.290597
0.027575
0.00415066
-0.30754
0.327843
0.072672
0.0477712
-0.348211
0.371333
0.107783
0.0871731
-0.393242
0.416442
0.123177
0.112876
-0.435955
0.452531
0.106099
0.11372
-0.462091
0.465018
0.0487887
0.0787111
-0.460212
0.446384
-0.0262386
0.0105768
-0.426676
0.405299
-0.0693958
-0.0488078
-0.377912
0.356578
-0.0800712
-0.071948
-0.339766
0.332642
-0.0694969
-0.0734415
-0.0536493
-0.0199525
0.030899
0.276427
0.298036
-0.0452921
0.0481552
0.241991
0.255494
-0.0525565
0.0569559
0.212142
0.222815
-0.0620629
0.0680298
0.189428
0.195676
-0.0742106
0.0802188
0.189363
0.182285
-0.085292
0.0894697
0.224432
0.198501
-0.0916712
0.0916792
0.292454
0.251303
-0.0893162
0.0823882
0.363472
0.32605
-0.0723118
0.0533026
0.420416
0.396159
0.46685
0.0762605
-0.0875632
-0.287853
-0.301231
0.0636545
-0.0594881
0.0731481
-0.352375
-0.348136
-0.0489179
-0.00503027
-0.200813
0.0113274
-0.163298
0.426638
-0.385493
0.0705669
0.432942
0.0700902
-0.117157
-0.243777
0.10196
-0.168573
-0.22519
-0.293832
0.154535
-0.193503
-0.288696
-0.330482
0.172287
-0.226714
-0.290183
-0.344716
0.158412
-0.282641
-0.250045
-0.325695
0.13957
-0.307856
-0.179481
-0.271269
0.136116
-0.325979
-0.103126
-0.260886
0.111468
-0.340621
-0.0596199
0.0484072
-0.290018
-0.0678771
-0.279596
0.0892585
-0.362608
-0.296059
0.302878
0.041588
-0.0402732
-0.285576
0.0297902
-0.0451736
-0.285118
-0.00755721
0.298855
-0.051348
0.0657932
-0.36682
-0.0453333
-0.354151
-0.174292
0.358257
-0.345889
0.0510611
0.0702731
0.333973
-0.322921
0.0342422
0.0420187
0.312017
-0.306229
0.0213782
0.0289563
0.301189
-0.30024
0.00761191
0.0160384
0.299851
-0.301498
-0.00685946
0.00224928
0.303586
-0.307007
-0.021348
-0.0127943
0.311563
-0.318268
-0.0321509
-0.0263721
0.326269
-0.336493
-0.0364808
-0.034103
0.347664
-0.360267
-0.0334585
-0.0349077
0.372
-0.382095
-0.0204364
-0.0274519
0.387981
-0.38839
0.00515637
-0.00887554
0.382189
-0.369475
0.0389407
0.0214236
0.354037
-0.338423
0.0573545
0.0498643
0.326245
-0.317131
0.0490677
0.0535008
0.310881
-0.305843
0.035019
0.0400071
0.300943
-0.295693
0.0251746
0.0289822
0.290064
-0.285155
0.0123829
0.0192376
0.281693
-0.281331
-0.00700494
0.00363551
0.28344
-0.288081
-0.0263281
-0.0161283
0.293643
-0.298712
-0.0407462
-0.0327065
0.305724
-0.311201
-0.0474734
-0.044169
0.318635
-0.329637
-0.0427925
-0.0474043
0.339223
-0.346743
-0.0378142
-0.039332
-0.315337
0.331525
0.0607518
0.0511954
-0.354446
0.380005
0.0657658
0.0665332
-0.403325
0.417201
0.0378918
0.0563434
-0.419725
0.414221
-0.00884139
0.0132273
-0.404076
0.391117
-0.0431073
-0.0267007
-0.377391
0.361202
-0.0591614
-0.0502481
-0.34533
0.329302
-0.0637138
-0.059392
-0.316007
0.303868
-0.0614391
-0.0604056
-0.295373
0.288479
-0.051334
-0.0554898
-0.283285
0.27727
-0.0333311
-0.0415323
-0.272959
0.271973
-0.0132018
-0.0235223
-0.276842
0.288313
0.0161047
-0.000718532
-0.303533
0.323581
0.052624
0.0325511
-0.343685
0.366977
0.0844911
0.0670687
-0.388557
0.411309
0.100426
0.0912953
-0.429876
0.446116
0.089859
0.0951528
-0.456191
0.460327
0.0446524
0.0686363
-0.455778
0.442039
-0.0124991
0.0151258
-0.423632
0.401287
-0.047051
-0.0304006
-0.380589
0.359572
-0.0590538
-0.0512506
-0.342938
0.32913
-0.0556882
-0.0568079
-0.322723
0.325113
-0.0332479
-0.0472429
-0.0201432
-0.00454983
0.0120575
0.268919
0.285929
-0.0149654
0.0151996
0.241756
0.252586
-0.0157186
0.017521
0.210339
0.222296
-0.0205059
0.0241222
0.185812
0.192691
-0.0279793
0.0321031
0.185239
0.178428
-0.0360396
0.0401126
0.220359
0.194564
-0.043486
0.0455911
0.290349
0.247929
-0.0463377
0.0407045
0.369105
0.325303
-0.0425434
0.0345216
0.428438
0.39432
-0.0609919
0.0537675
0.469182
0.44038
-0.0274911
-0.0368475
0.497281
0.479783
-0.11347
-0.204501
0.108269
-0.169608
0.0387187
-0.0347538
-0.350707
0.0446899
-0.360122
0.410724
-0.443854
-0.00371802
-0.0740828
0.290169
0.281194
0.357543
-0.0209021
-0.334036
0.325271
-0.0290494
-0.335766
-0.0330235
-0.218177
-0.25079
0.17197
-0.186008
-0.287747
-0.294781
0.193849
-0.215065
-0.301834
-0.318832
0.189003
-0.257305
-0.269078
-0.325683
0.163258
-0.306329
-0.212946
-0.29223
0.155979
-0.32772
-0.133449
-0.240946
0.142916
-0.357427
-0.0720977
-0.256666
0.111126
-0.362489
0.0154451
-0.283507
-0.0175139
-0.290902
0.291885
0.0144616
-0.0039156
-0.291746
0.00476035
-0.28628
-0.00114251
-0.0496774
-0.275092
0.0845811
-0.381396
-0.281393
-0.0212394
0.0648911
-0.139811
0.365089
-0.324918
-0.00472666
-0.0377526
0.383838
-0.179492
0.402507
-0.379809
0.0478686
0.028744
0.357115
-0.341028
0.0349737
0.047579
0.329983
-0.322198
0.0264577
0.030974
0.314843
-0.31099
0.0175254
0.0216012
0.307698
-0.306842
0.00675583
0.0127455
0.306377
-0.307495
-0.005742
0.00178512
0.309786
-0.313717
-0.0174167
-0.0105036
0.319242
-0.325907
-0.0254854
-0.0208473
0.333354
-0.341235
-0.0286005
-0.0266559
0.34917
-0.357088
-0.0255397
-0.0269727
0.36418
-0.370277
-0.0143391
-0.0203603
0.374095
-0.374868
0.0059292
-0.00505812
0.371043
-0.362297
0.0301948
0.0175987
0.350407
-0.337452
0.0444004
0.037974
0.326609
-0.318294
0.0407524
0.0426578
0.312372
-0.307508
0.0301542
0.0340853
0.302835
-0.298053
0.0203928
0.0243097
0.293399
-0.289618
0.00860184
0.0145833
0.287252
-0.287071
-0.00718595
0.00126932
0.288764
-0.292454
-0.0226382
-0.0144352
0.29719
-0.303212
-0.0347242
-0.0279703
0.309751
-0.314935
-0.0422889
-0.03763
0.319737
-0.322455
-0.0400744
-0.0426029
-0.0365157
-0.298903
0.307909
0.0325814
0.0227726
-0.319885
0.334343
0.046294
0.03922
-0.351571
0.369713
0.0476236
0.0493047
-0.383575
0.394468
0.0269993
0.0424814
-0.397081
0.393447
-0.00520729
0.0106144
-0.385723
0.375463
-0.0328482
-0.0189767
-0.365473
0.3554
-0.0490878
-0.0402581
-0.346408
0.336959
-0.054264
-0.0504006
-0.327928
0.317676
-0.0511871
-0.0513748
-0.308328
0.299475
-0.0424814
-0.0461417
-0.293131
0.287536
-0.0277365
-0.0351876
-0.283346
0.280692
-0.0105476
-0.019332
-0.281617
0.287952
0.00976941
-0.00164401
-0.298817
0.315564
0.0358763
0.0216869
-0.334016
0.356181
0.0623257
0.0486169
-0.37702
0.398741
0.078705
0.0704563
-0.416624
0.432449
0.0740334
0.0772706
-0.442107
0.444909
0.0418507
0.0589784
-0.439526
0.426402
0.000625066
0.0205086
-0.41057
0.39209
-0.0285717
-0.0145684
-0.37598
0.358415
-0.041489
-0.0351402
-0.343845
0.329825
-0.0416681
-0.0422378
-0.322101
0.319947
-0.0310935
-0.0395193
-0.0251147
0.0166072
-0.0134131
0.29566
0.311988
0.011318
-0.0141951
0.271796
0.283834
0.0184716
-0.021141
0.244426
0.256862
0.0224875
-0.0224294
0.210281
0.223643
0.0218794
-0.0209851
0.184918
0.192141
0.0197135
-0.0182168
0.183742
0.177156
0.0162982
-0.0134833
0.217544
0.192646
0.0101675
-0.00616491
0.286346
0.244613
0.00162483
0.00302375
0.364457
0.320763
-0.00669205
0.0129193
0.42221
0.390651
-0.023714
0.0518103
0.441086
0.429585
0.391782
0.0536558
-0.375786
0.334149
-0.0143582
-0.0240541
0.0276267
-0.35428
-0.344812
-0.0150089
-0.204782
-0.217896
0.188768
-0.186406
-0.277401
-0.261136
0.216261
-0.208421
-0.30285
-0.293765
0.215061
-0.241123
0.0337654
-0.366261
-0.28327
-0.30464
0.193404
-0.287451
-0.236211
-0.302417
0.177661
-0.328011
-0.171089
-0.254591
0.167423
-0.352226
-0.00421531
-0.295022
0.00749104
-0.298196
0.294578
-0.000597634
0.0116414
-0.302863
-0.00697458
-0.300469
0.0170886
-0.0874335
-0.22561
0.1464
-0.392702
-0.2922
0.0134106
-0.0481745
-0.258169
0.113024
-0.390931
-0.283287
0.000752167
-0.0248405
-0.271491
0.0757325
-0.403472
0.0103077
-0.0302304
0.354072
0.220363
-0.358675
0.199566
0.0510724
-0.0513874
0.286505
-0.0147482
0.0161952
-0.355727
-0.350609
-0.00895087
-0.0265317
0.297967
-0.195506
0.372175
-0.393263
0.0173696
-0.349345
-0.0126955
0.347683
0.00192774
0.381412
-0.363015
0.029471
0.0168932
0.34743
-0.3375
0.0250437
0.0319942
0.328026
-0.322376
0.0208074
0.0215006
0.317674
-0.314372
0.0142233
0.0168992
0.311722
-0.310378
0.00541121
0.0100961
0.309768
-0.31061
-0.00489963
0.00117539
0.312563
-0.31576
-0.0142193
-0.00855125
0.31997
-0.324967
-0.0204879
-0.0166377
0.330401
-0.33634
-0.0226615
-0.0212218
0.342307
-0.348649
-0.0191981
-0.0210056
0.354451
-0.359673
-0.00911662
-0.0145585
0.362787
-0.36327
0.00641194
-0.00194436
0.360299
-0.353857
0.023753
0.0146276
0.34514
-0.335167
0.0344275
0.0292571
0.326165
-0.318534
0.0331216
0.0336554
0.312707
-0.307832
0.0252788
0.0282588
0.303579
-0.299554
0.0163683
0.0200562
0.296033
-0.293298
0.00586757
0.0110618
0.291794
-0.29195
-0.00702949
-0.000235048
0.293455
-0.296381
-0.0197124
-0.0129304
0.300157
-0.304993
-0.0298885
-0.0241943
0.310305
-0.316379
-0.0362154
-0.0323179
0.321992
-0.326247
-0.0358195
-0.0369893
0.328828
-0.328117
-0.0297603
-0.0339344
0.333826
-0.33536
-0.013475
-0.027315
-0.0142786
-0.34151
0.00518023
0.331274
-0.336088
-0.00946465
-0.0130364
-0.295646
0.299921
0.0101869
0.00369295
-0.305521
0.313018
0.025084
0.0171724
-0.322162
0.332675
0.0357816
0.0300759
-0.345485
0.357882
0.0352263
0.0364947
-0.36911
0.376238
0.0198712
0.0312537
-0.378963
0.378157
-0.00440166
0.00788946
-0.374224
0.367118
-0.025742
-0.0150439
-0.358476
0.348383
-0.0389945
-0.0316164
-0.338785
0.329318
-0.0447968
-0.0408029
-0.321228
0.313577
-0.043536
-0.0432845
-0.30686
0.300702
-0.0363236
-0.0394244
-0.295865
0.292227
-0.0240989
-0.0303504
-0.289708
0.288088
-0.00892689
-0.0168135
-0.288049
0.290938
0.00688035
-0.00160546
-0.297582
0.308774
0.024685
0.0150427
-0.323323
0.3412
0.044448
0.0340681
-0.359537
0.378375
0.0598672
0.0521196
-0.394639
0.408197
0.0604758
0.0610059
-0.415854
0.417437
0.0402672
0.0513216
-0.412831
0.4041
0.00935663
0.0251148
-0.392921
0.380884
-0.0165346
-0.00338968
-0.36845
0.356715
-0.0297544
-0.0227062
-0.345059
0.33485
-0.0314585
-0.0305819
-0.326982
0.31844
-0.0225515
-0.0316518
-0.31776
0.321812
-0.0087789
-0.0244347
-0.0133285
0.0314122
-0.0313881
0.295636
0.292013
0.0380365
-0.0435871
0.277347
0.290482
0.0483722
-0.0531762
0.24923
0.261647
0.0573261
-0.0602336
0.213189
0.227793