/*--------------------------------*- C++ -*----------------------------------*\
  =========                 |
  \\      /  F ield         | OpenFOAM: The Open Source CFD Toolbox
   \\    /   O peration     | Website:  https://openfoam.org
    \\  /    A nd           | Version:  10
     \\/     M anipulation  |
\*---------------------------------------------------------------------------*/
FoamFile
{
    format      ascii;
    class       surfaceScalarField;
    location    "32.5";
    object      phi;
}
// * * * * * * * * * * * * * * * * * * * * * * * * * * * * * * * * * * * * * //

dimensions      [0 3 -1 0 0 0 0];

internalField   nonuniform List<scalar> 
12623
(
0.0980123
0.0235154
-0.037327
-0.0842007
0.0767228
-0.0391447
0.0604342
0.112562
-0.00693861
-0.10299
-0.00263417
0.000311966
0.112633
-0.000382703
-0.109841
-0.00675265
0.0100447
0.106549
-0.10795
-0.00157929
-0.00325678
0.0470772
-0.0532764
0.00945594
-0.0565025
0.0532457
0.0172613
-0.0116729
-0.00558839
0.00270649
-0.00699389
0.0215487
0.0867228
-0.0395685
-0.0471543
-0.058744
0.0475716
0.0978952
-0.0274299
-0.0180059
0.0203386
0.0250971
0.00315826
0.00533006
-0.0359182
-0.0237308
0.00888318
0.00180428
-0.00189089
-0.00573814
0.00582476
4.95058e-05
-0.00362115
0.00537592
-0.00443603
0.00259465
0.00196081
-0.012721
-0.00147101
0.0122312
-0.0294044
0.0103684
0.0209968
-0.0288963
-0.0132291
0.00454211
0.0171012
-0.0171445
-0.00449885
0.0018741
0.00324492
-0.000576908
-0.0275046
0.04648
-0.0427282
0.00499262
0.0430656
0.00703013
-0.0484074
-0.00135088
-0.0548709
0.00521489
0.0546486
-0.0743162
0.0420898
-0.042207
0.0744334
-0.0746311
-0.0427187
0.0430335
-0.077406
0.0779692
-0.0373086
0.0367454
-0.0768114
0.0414952
-0.113587
-0.00260374
0.00933964
0.106851
0.00417718
-0.111633
-0.00613081
0.110058
-0.107571
-0.00379924
0.00842176
0.102949
0.00503246
-0.107796
-0.00480793
-0.115208
0.0113089
0.108932
-0.111275
-0.00653687
0.0988606
-0.0017025
-0.105961
0.00880302
0.00417476
0.00889141
0.0857945
-0.103852
0.00398821
0.098161
-0.10511
-0.00254067
0.0327051
-0.0328002
0.0780642
-0.099942
0.0113654
-0.0114345
0.100011
-0.0224146
-0.0948691
0.0173416
-0.00906963
-0.105819
-0.104404
0.000858448
0.101966
-0.102108
-0.0177197
-0.072549
0.0148488
0.0754199
0.0552729
0.00397855
-0.0769711
-0.0639407
0.0268273
0.0923863
-0.0144778
0.0903549
-0.0760911
0.000214019
-0.0744399
0.0723527
0.0141447
-0.0121923
-0.0743051
0.0170441
0.0700627
-0.0147542
-0.010833
0.00734973
0.0807317
-0.0772484
-0.0830133
0.0827023
-0.0105219
0.0798451
-0.0103982
0.0118228
-0.0812697
0.0733669
-0.0730062
-0.0405516
0.040191
-0.0417063
0.0752856
0.0397875
-0.0713393
-0.0374475
0.0357806
-0.0705012
-0.0304912
0.0296531
-0.0689658
-0.0213718
0.0198363
-0.0685067
-0.00846535
0.00800628
-0.068865
0.00651415
-0.00615589
-0.0697183
0.0214698
-0.0206164
-0.0720932
0.0338222
-0.0314474
0.0407395
-0.0742711
-0.0385616
0.0748586
-0.0757024
-0.0408625
-0.0400049
0.074793
0.0404975
0.0755396
-0.0406859
-0.0757107
-0.0405432
-0.0759156
-0.0372427
-0.0739099
-0.0324968
-0.073074
-0.0222078
-0.0722088
-0.00933053
-0.0720356
0.00634099
-0.0730666
0.0225008
-0.0738246
0.0345802
-0.0766741
0.0435889
0.0394469
0.0749351
-0.0388425
0.0752492
0.0389907
0.0429622
-0.0773075
-0.0399258
-0.0780585
0.0443466
0.0397921
0.0742294
-0.0390863
0.0738829
0.0411584
0.0416528
-0.0785598
-0.0404005
-0.0802206
0.0438149
0.0417588
0.0723223
-0.0398517
0.0410106
0.0399027
-0.0806526
-0.0378099
-0.0800227
0.0397049
0.0714036
-0.0418
-0.0435055
0.0727021
0.0382284
-0.0395707
-0.0793103
0.0400654
-0.0818598
0.0729404
-0.0743809
-0.0384112
-0.0691465
0.0688628
-0.0432217
-0.0380061
0.0767888
-0.0780413
-0.0375899
-0.0366785
0.0792199
-0.0801088
-0.0399737
-0.0395072
0.0808337
-0.0798474
-0.038229
-0.0398183
0.0796329
-0.0776582
-0.0241825
-0.0327113
0.0769618
-0.0757113
0.00509045
-0.0100269
0.0756278
-0.0754751
0.0344275
0.0224173
0.0755421
-0.0780461
0.0468506
0.043656
0.0788293
-0.0792126
0.0400882
0.0445981
-0.0791053
0.0399582
-0.0792019
0.0749617
-0.0361603
0.0787832
-0.0392557
-0.0790982
-0.0382286
-0.0730453
0.068994
-0.0345102
-0.0380095
-0.0684939
0.0655081
-0.0176307
-0.0309472
-0.0664581
0.0668432
0.00762114
-0.00710585
-0.0681407
0.0700425
0.0277514
0.0185388
-0.0714198
0.0737051
0.0379057
0.0344032
-0.0752128
0.0765215
0.0391888
0.0382798
-0.0761578
0.0774957
0.0398205
0.0393545
-0.0757766
0.0419987
0.0427297
0.0383064
-0.0393345
0.0737303
0.0754312
-0.0355427
0.0650709
-0.0411198
-0.0783856
0.0404
-0.0434261
-0.0795535
-0.0792795
0.0773699
-0.0373461
-0.0416656
0.0432783
-0.0807109
-0.0822555
-0.0386897
0.0410647
-0.0436478
-0.0758024
-0.0771801
0.0783084
0.0392717
0.0390379
-0.0751533
0.0850375
-0.0832912
0.034999
0.0653235
-0.0722227
-0.0363226
0.0665876
-0.0368068
0.0834154
0.0343273
-0.079458
0.0743705
-0.0776669
-0.0351148
-0.0358583
0.0803217
-0.0813876
-0.036524
-0.0340236
0.0837382
-0.0843553
-0.0393565
-0.0371567
0.085276
-0.0854703
-0.0380347
-0.0388975
0.0845232
-0.0832276
-0.0254782
-0.0336584
0.080928
-0.0794524
0.00361488
-0.0123264
0.077532
-0.0770697
0.0339652
0.020497
0.0765886
-0.0762237
0.0464857
0.0431749
0.0762152
-0.0780812
0.0419542
0.0445896
0.0401854
-0.074665
0.0725397
-0.034035
-0.0355237
-0.0688711
0.066659
-0.0322981
-0.0343409
-0.062885
0.0637481
-0.0184938
-0.0271732
-0.0633469
0.0655009
0.00546718
-0.00670464
-0.0681143
0.0697361
0.0261295
0.0159254
-0.0734677
0.0750975
0.036276
0.0306716
-0.0776017
0.0780395
0.038751
0.0357756
-0.0791533
0.0795752
0.0393986
0.0382407
-0.0802878
0.0800542
0.0422323
0.0420171
0.0382582
0.0327572
-0.0274355
0.0684086
0.0753881
0.0282668
0.0632767
-0.0249559
0.0659022
0.0446168
-0.041769
-0.0851033
0.0460923
-0.0821865
-0.0461048
-0.0770965
-0.0756405
0.076053
0.0388592
-0.0720688
0.0354662
-0.0408253
0.0370491
-0.0713771
-0.0434932
-0.0731345
-0.086242
0.0829844
-0.0385115
-0.043718
0.0453753
-0.0867605
-0.0901547
-0.0398053
0.0279896
-0.0249312
0.0750059
0.082168
0.0292369
-0.0216512
0.0225147
0.0624132
0.060761
-0.061205
-0.0245119
0.0619705
-0.0228606
-0.0870494
0.0333048
0.0880719
-0.0861432
0.0340929
-0.0794705
0.0673071
-0.0709999
-0.0326298
-0.0307047
0.0749767
-0.0791335
-0.030958
-0.0318816
0.0801775
-0.0826107
-0.0340908
-0.0329797
0.0848032
-0.0864495
-0.0377102
-0.0349642
0.0883632
-0.088709
-0.0376889
-0.0369838
0.0893718
-0.0881338
-0.0267162
-0.0329956
0.0865386
-0.0845715
0.00164783
-0.0139216
0.0821208
-0.0813857
0.0332301
0.0180462
0.0790252
-0.0782573
0.0457178
0.0408144
0.0768915
-0.0773677
0.0424304
0.0432238
0.0388707
-0.0807941
0.0776459
-0.0341979
-0.0364994
-0.0746408
0.0716884
-0.0310825
-0.0325186
-0.067157
0.0645897
-0.0297308
-0.0298096
-0.0616798
0.0612636
-0.0180776
-0.0242633
-0.0619752
0.0639613
0.00348105
-0.00741625
-0.0664949
0.069524
0.0231004
0.0133918
-0.0723699
0.0751801
0.0334657
0.0278258
-0.0774429
0.0793678
0.036826
0.0335128
-0.0814986
0.0805477
0.0403495
0.0361099
-0.0825245
0.0845754
0.0401815
0.0400402
0.0366904
0.0249583
-0.0233252
0.0667754
0.0754153
0.0650916
-0.0684173
0.0333975
0.0467936
-0.0836048
-0.0455622
-0.0750274
0.0444648
-0.0421401
-0.0924794
0.0460891
-0.0883847
-0.0370977
0.0320037
-0.0662831
-0.040985
-0.0692472
-0.0140753
0.0141702
0.0623184
-0.0148145
0.0627096
0.0212834
-0.0179449
0.0716673
0.0212086
0.0822428
0.085309
-0.0850107
0.0337946
0.0297532
0.0888607
0.0630584
-0.0635256
-0.0240447
0.0615699
-0.0213721
-0.0642552
0.0278416
-0.0253088
0.0188776
-0.0578239
-0.03089
-0.060702
0.0880615
0.0292473
-0.0782391
0.0673737
-0.0723803
-0.0276231
-0.0268565
0.0767538
-0.078336
-0.0293757
-0.0275082
0.0818605
-0.0837665
-0.0321848
-0.0294552
0.0862338
-0.0888023
-0.0351417
-0.0324969
0.0910809
-0.0929061
-0.0358637
-0.0347053
0.0938281
-0.093536
-0.0270083
-0.0320736
0.0919865
-0.0893845
-0.000954166
-0.0154711
0.0866573
-0.0841213
0.0306941
0.0153191
0.082148
-0.0804422
0.0440119
0.0388411
0.0789329
-0.0772232
0.0407206
0.0417145
0.0758175
-0.072019
0.0350608
0.037465
0.0694094
-0.0657899
0.029778
0.0328566
0.0605519
-0.0557933
0.0141189
0.0226036
-0.0876544
0.0838632
-0.0347203
0.0905936
-0.09465
-0.0380837
-0.0368661
-0.0809606
0.0783177
-0.031555
-0.0335967
-0.0745448
0.0717972
-0.028335
-0.0287457
-0.0678801
0.0643154
-0.0261661
-0.0258925
-0.0618177
0.0607181
-0.0169781
-0.0217655
-0.0611426
0.0629008
0.00172288
-0.00784074
-0.0654213
0.0685836
0.0199381
0.0108713
-0.0717087
0.0748685
0.0303059
0.0247006
-0.0775034
0.0798418
0.0344876
0.030878
-0.0812094
0.0839635
0.0375953
0.0347424
-0.0841742
0.0849789
0.0393767
0.0398296
0.0366586
0.0130157
-0.0134238
0.0671836
0.0704861
0.065838
-0.0433828
0.0449601
-0.0940567
-0.0985327
-0.0395001
0.00925525
-0.0144811
-0.0525981
-0.0509843
0.00444624
0.0455801
-0.0830959
-0.0442524
-0.07176
-0.0138129
0.0605683
0.023122
0.0861482
0.0884217
-0.0879581
0.033331
0.0904782
0.0276966
0.0451968
-0.0886215
-0.0361868
-0.0639503
0.0409484
-0.0386504
-0.100831
0.0417586
-0.0948669
-0.0206478
-0.0545353
-0.00340084
-0.00130698
-0.0478902
-0.00568836
-0.0486967
0.0922887
0.0258193
-0.0769114
0.0650126
-0.0675596
-0.0214978
-0.0621357
0.0613833
-0.0130605
-0.0184952
0.0710287
-0.0746383
-0.0240135
-0.0233874
0.0768149
-0.0794496
-0.0267411
-0.0253316
0.0819212
-0.0845874
-0.0295186
-0.0269836
0.0873687
-0.0903846
-0.0321257
-0.0297156
0.093247
-0.0958881
-0.0332226
-0.0318429
0.0976867
-0.0982141
-0.0264809
-0.030275
0.0970718
-0.0943076
-0.00371841
-0.0166133
0.0908637
-0.0873476
0.027178
0.0118752
0.0845367
-0.0821962
0.0416715
0.0360302
0.0802309
-0.0780858
0.0385754
0.0397492
0.0747648
-0.0721814
0.0324774
0.034144
0.0675256
-0.0626417
0.0248941
0.0282008
0.0579665
-0.0540117
0.0101641
0.0179283
0.051409
-0.0513816
-0.00571584
0.00184361
-0.0957228
0.0920884
-0.0344493
0.100144
-0.104203
-0.0345921
-0.0350786
-0.0879524
0.0846194
-0.0313874
-0.03273
-0.0804189
0.0780602
-0.0291963
-0.0293962
-0.0751338
0.0721542
-0.0253553
-0.0258193
-0.0688131
0.065175
-0.022528
-0.0225514
-0.0624086
0.0608679
-0.0154374
-0.0189991
-0.0609264
0.0624186
0.000230737
-0.00789926
-0.0648366
0.0680555
0.0167192
0.00845326
-0.0713442
0.0747608
0.0268893
0.021412
-0.077691
0.0804026
0.031776
0.0279478
-0.0831346
0.0842024
0.0365275
0.0320104
-0.0863813
0.0878117
0.0379463
0.0376507
0.0365122
-0.0351785
0.0355188
-0.101171
-0.106522
-0.0328589
-0.0135182
0.0138512
-0.0490297
-0.0540435
-0.0108564
0.0929961
0.0214284
0.00867351
-0.00778905
0.0852637
0.0902351
0.00185152
-0.00390993
0.0737257
0.0763053
0.00296787
-0.00287286
0.0670886
0.069544
0.00337917
-0.00444398
0.0633832
0.0663443
0.00540653
-0.00597696
0.0611388
0.0636722
-0.00614548
0.0615518
0.0429737
-0.0808728
-0.0400724
-0.0678744
0.0392763
-0.0861391
-0.0264669
-0.0581312
0.0327002
-0.0920484
-0.00643589
-0.0494063
0.0273578
-0.0270768
-0.106803
0.0240984
-0.0979116
0.0124128
-0.0464518
0.0182335
-0.0140396
-0.0582374
0.0216713
-0.0524675
0.0617701
-0.0627822
-0.0120484
0.0619086
-0.00628401
-0.0740102
0.0652054
-0.0680705
-0.0186327
-0.0160719
0.0719587
-0.0741641
-0.0218081
-0.0194992
0.07739
-0.0799602
-0.0241708
-0.0221057
0.0824528
-0.0852397
-0.0267317
-0.024491
0.0881803
-0.0914396
-0.0288664
-0.026775
0.0946924
-0.0979679
-0.0299471
-0.0285901
0.100565
-0.10198
-0.0250656
-0.0276779
0.101481
-0.0988235
-0.00637601
-0.0171127
0.0947345
-0.0899996
0.022443
0.00778625
0.0859494
-0.0825996
0.0383217
0.03198
0.0799347
-0.0772266
0.0358673
0.0370843
0.0741999
-0.0702889
0.0285664
0.0311173
0.0657743
-0.0607177
0.0198375
0.0236863
0.056379
-0.0539217
0.00770684
0.0135896
0.0536015
-0.0563479
-0.00296938
0.00152337
0.0603974
-0.0644818
-0.00995514
-0.00680693
-0.104832
0.100599
-0.0303589
0.108981
-0.111526
-0.0245321
-0.0287098
-0.095802
0.0914525
-0.0300999
-0.0302816
-0.0872445
0.0844781
-0.0286209
-0.028522
-0.0810431
0.0780759
-0.0262291
-0.0259612
-0.0755522
0.0728851
-0.0226882
-0.0232956
-0.0699795
0.0665688
-0.0191173
-0.0196458
-0.0636631
0.0617241
-0.0134984
-0.0160934
-0.0613805
0.0625393
-0.000928033
-0.00755566
-0.0647652
0.0679122
0.0135723
0.00622735
-0.0712262
0.0747581
0.0233574
0.0180979
-0.0778728
0.0808634
0.0287854
0.0248331
-0.0834367
0.0860228
0.0339414
0.0294371
-0.0891847
0.0891797
0.0379513
0.0344888
-0.0891358
0.0913533
0.0311135
0.0365562
-0.0929733
0.0968179
0.0175839
0.0260766
0.0120515
-0.00719264
0.0103066
0.0821498
0.00235412
0.0985155
0.0853966
-0.00991374
0.00932615
0.0743133
0.0766981
-0.00861691
0.00633702
0.0693685
0.0702533
-0.00577503
0.00284274
0.0663155
0.0669063
-0.00248833
0.000506981
0.0631201
0.0640266
-0.0183744
0.0147323
-0.103161
-0.111187
-0.0187135
-0.0157889
0.0203987
-0.0628472
-0.0673238
-0.0129468
-0.000345619
0.000256851
0.0619974
0.0617131
0.0360272
-0.0776236
-0.0315865
-0.0627548
0.0287261
-0.082165
-0.0122579
-0.0523092
0.0190826
-0.0870325
0.00922661
-0.0462201
0.0085688
-0.0917481
0.023752
-0.0485326
0.00654426
-0.0101734
-0.107558
-0.000511171
-0.0961056
0.0255907
-0.0576594
0.0188259
-0.0689458
-0.017204
0.0223527
-0.066374
-0.113248
0.113523
-0.0104489
-9.46999e-05
-0.00620453
-0.101258
-0.109849
-0.00349376
-0.020334
0.0232792
-0.071891
-0.0708886
0.0686729
-0.0149883
-0.0731138
-0.0181087
0.0635694
-0.0628508
-0.000461792
0.00371971
-0.00612945
0.0644071
0.0624338
0.00485528
-0.0695695
0.0628456
-0.0653808
-0.00951323
-0.00628914
0.0674763
-0.0704141
-0.0156949
-0.0139765
0.0728706
-0.0755059
-0.0191728
-0.0170427
0.0779342
-0.0803838
-0.0217212
-0.0196774
0.0828586
-0.0856579
-0.0239323
-0.0220162
0.0886109
-0.0919193
-0.025558
-0.023822
0.0953359
-0.0989808
-0.0263023
-0.0251736
0.102181
-0.104476
-0.0227708
-0.0244773
0.104883
-0.102827
-0.0084318
-0.0167058
0.0985516
-0.0927318
0.0166232
0.00351067
0.0871193
-0.0821757
0.0333781
0.0263675
0.0782959
-0.0747213
0.0322928
0.0332045
0.071264
-0.0674503
0.0247527
0.0276599
0.0636799
-0.0601962
0.0163538
0.0199159
0.058005
-0.0576152
0.00731708
0.0113983
0.0591806
-0.0618746
-0.000275345
0.00308873
0.0645492
-0.0673842
-0.00712011
-0.00413234
-0.0116582
-0.111465
0.1085
-0.0215672
-0.0166555
-0.103633
0.099566
-0.026292
-0.0238424
-0.094637
0.0912371
-0.0267
-0.0253525
-0.0875111
0.0842782
-0.0253881
-0.024796
-0.0813859
0.0784991
-0.0233424
-0.0230689
-0.0760348
0.0736272
-0.0202806
-0.0208313
-0.0712117
0.0682901
-0.0161957
-0.0172303
-0.0655082
0.0632862
-0.0112764
-0.0133116
-0.0624837
0.0632043
-0.00164855
-0.00675318
-0.0651401
0.0681145
0.0105978
0.00429156
-0.0713544
0.0748776
0.0198342
0.014858
-0.0780476
0.0811671
0.0256659
0.0216631
-0.08393
0.0867583
0.0311131
0.0266742
-0.0893688
0.0915924
0.0357277
0.0318783
-0.094073
0.094823
0.0303635
0.0340755
-0.0960705
0.0989818
0.0146726
0.0248291
0.00521426
-0.0136826
0.0208439
0.0913542
0.0983281
-0.0209893
0.020672
0.0824671
0.0852512
-0.0200762
0.0191311
0.0752584
0.0772939
-0.0179897
0.0166729
0.0706853
0.0713946
-0.0152607
0.0141461
0.06743
0.0683185
-0.0119667
0.00887209
0.0662148
0.066206
0.0644558
0.0236029
-0.0725004
-0.0179414
-0.0570714
0.0128277
-0.0759101
0.00503955
-0.0481221
0.0010312
-0.0794949
0.0242872
-0.0467553
-0.00928963
-0.0829697
0.0308667
-0.0538086
-0.0153539
-0.0869562
0.0273503
-0.062657
-0.00827418
0.00414004
-0.105715
-0.0167348
-0.0927978
0.0259881
-0.0690828
0.0229693
-0.0762448
-0.0198383
0.0260388
-0.0749605
-0.109189
0.111825
0.00150419
0.00953052
-0.0154397
-0.0998054
-0.105428
0.00576927
-0.0217218
0.0246694
-0.0791924
-0.0776261
0.075756
-0.0179681
-0.080229
-0.0191189
0.00660646
-0.0101323
0.0679329
0.0036109
0.0654294
0.0645041
-0.0648298
-0.000136163
0.0659983
0.00336116
-0.063908
0.0652874
-0.0670433
-0.00775735
-0.00583147
0.0692431
-0.0716334
-0.0133045
-0.0117767
0.0739093
-0.0762468
-0.0168353
-0.0147668
0.078466
-0.080764
-0.0194233
-0.0174583
0.0831731
-0.0858728
-0.0212325
-0.0196071
0.0886998
-0.091885
-0.0223728
-0.0209951
0.0952408
-0.0989478
-0.0225953
-0.0218178
0.102442
-0.105418
-0.0197955
-0.0209828
0.106842
-0.105954
-0.00931955
-0.0152813
0.10238
-0.0964393
0.0106826
-6.38553e-05
0.0898238
-0.0834084
0.0269628
0.019752
0.0782701
-0.0739212
0.0279438
0.0280662
0.0703858
-0.0672585
0.0216254
0.0241246
0.0648659
-0.063306
0.014794
0.0175233
0.0629111
-0.0636146
0.00802058
0.0110034
0.0649315
-0.066226
0.0010192
0.00440559
0.0677283
-0.0685102
-0.0063382
-0.00263008
0.0704288
-0.0728152
-0.0126019
-0.00973958
-0.015168
-0.112786
0.111724
-0.00938705
-0.00445493
-0.109055
0.105687
-0.018199
-0.0139859
-0.101519
0.0974544
-0.022227
-0.0196752
-0.0938027
0.0902442
-0.0231416
-0.0217008
-0.0871569
0.0841998
-0.022431
-0.0217086
-0.0815899
0.0789292
-0.0206817
-0.0204589
-0.0765711
0.0743295
-0.018039
-0.0184731
-0.0723208
0.0700262
-0.0139011
-0.0152216
-0.0676814
0.0654581
-0.00905305
-0.0109668
-0.0642407
0.0643462
-0.00175404
-0.00553583
-0.0657773
0.068388
0.0079871
0.00286049
-0.0714439
0.0748974
0.0163807
0.0118021
-0.0780818
0.0812783
0.0224695
0.0184786
-0.0841463
0.0871259
0.0281334
0.0238062
-0.0899522
0.092884
0.0327959
0.0290521
-0.0952625
0.0970731
0.0285529
0.031697
-0.0996407
0.100389
0.0139248
0.0222615
0.00261311
-0.0139851
0.0209536
0.0995807
0.105412
-0.0260811
0.028075
0.0893603
0.0932007
-0.0284843
0.0283428
0.0826086
0.0848418
-0.0277281
0.0266823
0.0763042
0.0779086
-0.0253349
0.0237263
0.0722939
0.072742
-0.0219761
0.0193929
0.0700132
0.0700687
-0.0161245
0.0132128
0.0691265
0.0694744
0.0675363
0.00625175
-0.0659245
-0.000159156
-0.0518727
-0.00676867
-0.0681102
0.0227205
-0.0465554
-0.0184253
-0.0703593
0.0346054
-0.0504941
-0.0255819
-0.0727416
0.0330671
-0.0595254
-0.0269203
-0.0767708
0.0296445
-0.0663135
-0.0236943
-0.0845433
0.0298341
-0.0728781
-0.0136671
0.009342
-0.101103
-0.0194673
-0.0940052
0.0287771
-0.0790681
0.0232065
-0.0204814
-0.0829542
0.0266216
-0.0826075
0.016491
0.0531181
-0.0578154
0.0650611
-0.0659961
0.000798752
-0.0607847
0.0392921
0.0379836
0.00763756
0.0678597
-0.0688212
-0.00679585
-0.00396784
0.0710111
-0.0732246
-0.011091
-0.00958675
0.0747161
-0.0769459
-0.0146054
-0.0132754
0.0789452
-0.0811042
-0.0172642
-0.015459
0.0833796
-0.0859067
-0.0187055
-0.0173317
0.0885197
-0.0914687
-0.0194238
-0.018382
0.094579
-0.0980585
-0.0191157
-0.0187075
0.101479
-0.10473
-0.016545
-0.0175619
0.106932
-0.107389
-0.0088623
-0.0130794
0.105346
-0.100611
0.0059473
-0.00210691
0.0944093
-0.0876909
0.0202444
0.0135506
0.0820253
-0.0773869
0.0233054
0.0224006
0.0740386
-0.0715444
0.0191312
0.0207763
0.0699726
-0.0691072
0.0139286
0.0159514
0.0688564
-0.0689706
0.00813483
0.0107526
0.0692239
-0.069538
0.00133334
0.00465882
0.0700686
-0.0708314
-0.00557542
-0.00209948
0.0717118
-0.0736587
-0.0106549
-0.00885916
0.0756553
-0.0788078
-0.0148156
-0.0131715
0.0812927
-0.0841222
-0.0176518
-0.016634
-0.106964
0.108432
3.63912e-05
0.103662
-0.10207
0.00775031
0.00246687
-0.10806
0.107248
-0.00857455
-0.00408332
-0.104973
0.102067
-0.0152932
-0.0117107
-0.0988788
0.0955195
-0.0188677
-0.0164871
-0.0924617
0.0894015
-0.0200814
-0.018643
-0.086685
0.0840161
-0.0197621
-0.0189921
-0.0816636
0.0792817
-0.0182999
-0.0181064
-0.0771207
0.075024
-0.0159422
-0.0163121
-0.0732655
0.0715038
-0.0121393
-0.0134632
-0.0697693
0.0679379
-0.00722167
-0.00923238
-0.066605
0.0661202
-0.00126924
-0.00420293
-0.0668085
0.0686908
0.00610481
0.0021722
-0.0712543
0.0744277
0.0132072
0.00923865
-0.0775463
0.0808171
0.0191987
0.0153601
-0.0838204
0.0869565
0.0249974
0.0208029
-0.0898862
0.0929137
0.0297683
0.0261224
-0.0959488
0.0977557
0.026746
0.0286619
-0.0998642
0.102708
0.0110805
0.020153
-0.103401
0.105495
-0.00472819
0.0019209
-0.00652135
-0.022322
0.0285203
0.0933824
0.0163609
0.101799
0.0994512
-0.031664
0.0323547
0.0886695
0.0900571
-0.0330243
0.0331263
0.0825067
0.0841722
-0.032687
0.0317454
0.0772459
0.078348
-0.0304142
0.0287446
0.0739635
0.0740732
-0.0268769
0.0240449
0.0728453
0.0719363
-0.0218131
0.0190007
0.0719389
0.0717061
-0.0138139
0.00935316
0.0723937
0.0727231
0.00186557
0.0905447
0.0766481
0.0119122
-0.0158601
-0.097155
-0.0982226
0.00806459
-0.0195979
0.0237503
-0.0871065
-0.0869145
-0.0168056
-0.0137713
-0.0589218
0.0191916
-0.0483438
-0.109316
-0.00809002
-0.0266425
-0.059893
0.0365165
-0.0484664
0.0842545
-0.0646578
0.0183869
0.0155631
-0.00796907
0.0829507
0.0158895
0.0839281
-0.0352396
-0.0607016
0.0388276
-0.0562546
-0.0374438
-0.0622181
0.0342817
-0.0641626
-0.0337408
-0.0667242
0.0337876
-0.070267
-0.0267749
-0.0772356
0.0333203
-0.0774214
-0.0206377
-0.0892276
0.0308529
-0.0832994
-0.0123037
0.00862912
-0.094548
-0.0161927
-0.093266
0.0281789
-0.0870362
-0.0198191
0.0236969
-0.0909844
-0.0168166
-0.0899169
-0.0523951
0.0674487
-0.0683551
0.00170523
0.0104284
0.069209
-0.0705525
-0.00545236
-0.00311396
0.0725878
-0.0738214
-0.00985748
-0.00755144
0.0760254
-0.0775705
-0.0130603
-0.0110713
0.0793794
-0.0814092
-0.0152344
-0.0136502
0.0834941
-0.0858037
-0.0163959
-0.0152467
0.0881607
-0.0908116
-0.0167729
-0.0160251
0.0935696
-0.0966358
-0.0160495
-0.0159495
0.0996875
-0.102749
-0.0134834
-0.0145102
0.105185
-0.106543
-0.00750418
-0.0106432
0.106037
-0.103227
0.00313674
-0.00261315
0.0986354
-0.0929346
0.0145437
0.00895934
0.0876753
-0.0831769
0.018807
0.0171412
0.0798948
-0.0774053
0.0166417
0.0174942
0.0756583
-0.0743159
0.0125862
0.0142044
0.0733213
-0.0725201
0.00733365
0.00975805
0.0719779
-0.0717473
0.0011027
0.00411659
0.071873
-0.0725136
-0.00493484
-0.0019737
0.0740707
-0.0748696
-0.00985598
-0.00730209
0.0766189
-0.0784099
-0.0130247
-0.0114221
0.0807606
-0.0840082
-0.0144042
-0.0142833
0.0861708
-0.0887884
-0.014199
-0.0146431
-0.0981598
0.102001
0.0039095
0.0960627
-0.0939336
0.00649994
0.00596749
-0.102705
0.103759
-0.00101719
0.00176215
-0.10393
0.102965
-0.0076098
-0.00425427
-0.101271
0.0989059
-0.0129278
-0.0100168
-0.0964091
0.0936763
-0.0161349
-0.0139904
-0.0911189
0.0885013
-0.0174638
-0.0160855
-0.0861318
0.0837571
-0.0173874
-0.0166226
-0.0816481
0.0795372
-0.0161889
-0.0159975
-0.0776272
0.07573
-0.0140451
-0.0144021
-0.0741383
0.0726911
-0.0106921
-0.0118714
-0.0714623
0.07022
-0.00597934
-0.00800354
-0.0691836
0.0685151
-0.00060074
-0.00316653
-0.0685833
0.0695644
0.00512368
0.00210398
-0.0712921
0.0737678
0.0107315
0.00751097
-0.0764819
0.0795569
0.0161236
0.012646
-0.082522
0.0856621
0.0218573
0.0178378
-0.0885863
0.0916839
0.0266708
0.0231981
-0.0950424
0.097617
0.0241713
0.0253034
-0.100702
0.102056
0.00972641
0.0170679
-0.103199
0.105476
-0.00700485
0.000777763
-0.0103613
-0.0166317
0.0217726
0.0966581
0.100722
-0.0286283
0.0305034
0.0915074
0.0925954
-0.0325645
0.0341113
0.0871227
0.0879959
-0.0350696
0.0354465
0.0821298
0.0832138
-0.0352559
0.034538
0.0779637
0.0785386
-0.0333851
0.031846
0.0755025
0.0752261
-0.0300568
0.0280277
0.0748744
0.0737256
-0.0258695
0.0231304
0.0746781
0.0738643
-0.0200192
0.0155124
0.0769005
0.0758343
0.0841914
0.00922329
-0.0121724
-0.0915989
-0.0912883
0.00657798
-0.0157838
0.0186522
-0.0927854
-0.0915547
-0.0130174
-0.0327504
-0.0528139
0.0360484
-0.0478757
0.0807531
-0.0736004
0.0112342
0.082632
0.0140106
-0.042665
-0.0524677
0.0436622
-0.053301
-0.0464492
-0.0516962
0.0396985
-0.0616714
-0.043566
-0.0523929
0.0377066
-0.0680816
-0.0356938
-0.0578053
0.0379678
-0.0749145
-0.0263724
-0.071501
0.0359064
-0.0824749
-0.0198445
-0.0855758
0.0334321
-0.0885526
-0.0153018
-0.0901366
0.0285813
-0.0919206
-0.00786623
0.00524362
-0.0886656
-0.0103692
-0.0890959
0.02256
-0.0948922
-0.0881071
0.0891827
0.00416805
-0.00560056
-0.0856493
0.00314278
-0.00641997
-0.0878462
0.0116057
0.0953311
-0.0134735
0.0169915
-0.0963034
-0.0122899
-0.0927383
-0.0490971
0.0706894
-0.0709063
0.0019221
0.00751737
0.0720213
-0.0727649
-0.00470881
-0.00199891
0.0739246
-0.0752129
-0.00856922
-0.00639171
0.0766089
-0.0781679
-0.0115012
-0.0096753
0.0798002
-0.0816596
-0.013375
-0.012018
0.0835362
-0.0856073
-0.0143247
-0.0133702
0.0877032
-0.0900331
-0.014443
-0.0139292
0.0924075
-0.094998
-0.013459
-0.0135751
0.0975478
-0.10013
-0.010901
-0.0119604
0.102311
-0.103866
-0.00594947
-0.00846224
0.1042
-0.102916
0.00185287
-0.00227879
0.100079
-0.0959607
0.010425
0.00612241
0.0916626
-0.0875832
0.0147276
0.0128431
0.084315
-0.0815715
0.0138982
0.014226
0.0793928
-0.0774877
0.010681
0.0120258
0.0759469
-0.0746875
0.0060743
0.00821726
0.0738634
-0.0734765
0.000715847
0.00329246
0.0735891
-0.0741579
-0.00436605
-0.00186112
0.075084
-0.0763662
-0.00857375
-0.00637599
0.0778406
-0.079151
-0.0117142
-0.00994779
0.0810315
-0.0823784
-0.0130573
-0.0124028
0.084032
-0.086533
-0.011698
-0.0129895
0.0887435
-0.0905742
-0.0104592
-0.0108069
-0.0913593
0.0935658
0.00429342
0.00440139
-0.096289
0.0981171
0.00208149
0.00324424
-0.0994248
0.100177
-0.00176937
0.000454442
-0.100127
0.0993355
-0.00681797
-0.00420467
-0.0979572
0.0961436
-0.0111142
-0.00863842
-0.0941828
0.0919752
-0.0139273
-0.0120296
-0.0898525
0.0876336
-0.0152449
-0.0139629
-0.0855921
0.0835138
-0.0153091
-0.0145811
-0.0816441
0.0797739
-0.0143187
-0.0141278
-0.0780991
0.0764325
-0.0123785
-0.0127273
-0.0750091
0.0737402
-0.00942322
-0.010448
-0.0727898
0.0719969
-0.00518646
-0.00705318
-0.0714095
0.0709987
-0.000189911
-0.00257912
-0.0709262
0.0713479
0.00470205
0.00217644
-0.0722982
0.0738792
0.00915046
0.00656069
-0.075832
0.0782668
0.0136887
0.0106932
-0.0807952
0.0836436
0.0190088
0.0153095
-0.0864859
0.0897863
0.0233705
0.0203558
-0.0932487
0.097178
0.020242
0.021841
-0.100554
0.10309
0.00719129
0.0136914
-0.104124
0.103909
-0.00678952
-0.000256921
-0.103101
0.105566
-0.010555
-0.00955288
-0.00876695
-0.0182795
0.023699
0.0912386
0.0940482
-0.0276101
0.030234
0.0888834
0.0886844
-0.0324427
0.0341864
0.0853791
0.0857872
-0.0353692
0.0360034
0.0814957
0.082031
-0.0360861
0.0356637
0.0783861
0.0784558
-0.0348045
0.0335492
0.0767579
0.0760854
-0.0320042
0.0301885
0.07669
0.0752706
-0.0282085
0.0251459
0.0777406
0.0758443
-0.0237933
0.0204441
0.0802498
0.0771869
-0.0240305
0.0209262
0.086055
0.0806051
-0.0146862
-0.00239278
0.099711
0.0901681
-0.0465463
-0.0489326
0.046612
-0.0508255
0.0107035
-0.00979818
-0.0914795
0.0118905
-0.0939254
0.0839245
-0.0884313
0.00211402
-0.00833406
0.0500032
0.0580419
0.0746924
0.000898044
-0.0872062
0.0850759
-0.00832884
-0.0875284
-0.009476
-0.051999
-0.0469178
0.0452098
-0.0588123
-0.0511098
-0.0441525
0.0418799
-0.0658447
-0.0442002
-0.0438866
0.0426086
-0.0727224
-0.0334438
-0.050734
0.0412888
-0.0802968
-0.0231899
-0.0681555
0.038519
-0.0875618
-0.0174404
-0.0834372
0.0344062
-0.0943775
-0.0129914
-0.0875144
0.0281589
-0.0975195
0.00177156
-0.0850207
-0.00240018
-0.0853217
0.0856286
0.00146461
-0.000899523
-0.0850992
0.000677079
-0.0852381
-0.000682118
-0.00805715
-0.0874587
0.0209533
-0.0988539
-0.0868258
-0.00342063
0.0211886
-0.0424327
0.0712473
-0.102082
-0.0078363
0.00171669
0.0775138
-0.0490314
0.0806112
-0.0767199
0.00734296
0.0061905
0.074331
-0.0730772
0.000668289
0.00512846
0.0735355
-0.0742
-0.00404436
-0.0015406
0.0750671
-0.0761409
-0.00749539
-0.00552463
0.0773176
-0.0787257
-0.0100932
-0.00849855
0.0801957
-0.0818622
-0.0117085
-0.0105479
0.0835298
-0.0853647
-0.0124899
-0.0117026
0.0872073
-0.0892225
-0.0124278
-0.0120865
0.0912306
-0.0933687
-0.0113209
-0.011567
0.0954218
-0.0974598
-0.00886296
-0.00990731
0.0991774
-0.100474
-0.00465234
-0.00674467
0.100968
-0.100411
0.00129625
-0.00178531
0.0987184
-0.095926
0.00763252
0.00442948
0.0926698
-0.0892297
0.0112875
0.0095869
0.0861917
-0.083433
0.0111395
0.011188
0.081127
-0.0790704
0.00862442
0.0097198
0.0774255
-0.0761209
0.00476968
0.00657235
0.0752918
-0.0748907
0.00031481
0.00246332
0.0749316
-0.0753602
-0.00393737
-0.00182029
0.0760972
-0.0771413
-0.00752956
-0.00563907
0.0783884
-0.0798759
-0.0102267
-0.00870079
0.0814683
-0.0826763
-0.0118493
-0.0108104
0.0838567
-0.0844845
-0.0110703
-0.0118091
-0.0102155
-0.0870839
0.0887049
0.00254702
0.00168752
-0.0907675
0.0926401
0.00242078
0.0023388
-0.0941919
0.0956121
0.000661298
0.00169245
-0.0963125
0.0968652
-0.00232201
-0.000245973
-0.096815
0.0962159
-0.00621885
-0.00415447
-0.0952123
0.0938073
-0.00970925
-0.00763488
-0.0922538
0.0904631
-0.0121366
-0.0104761
-0.0887019
0.0868254
-0.0133684
-0.0122017
-0.0850731
0.0832681
-0.0135041
-0.0128288
-0.0816274
0.0799797
-0.0126711
-0.012487
-0.0785157
0.0770721
-0.0109349
-0.0112633
-0.0758353
0.0747207
-0.00830863
-0.00921123
-0.0739159
0.073354
-0.00462454
-0.00624835
-0.073074
0.0730024
-0.000118358
-0.00229915
-0.0731394
0.0735209
0.00432047
0.00203951
-0.0741504
0.075147
0.0081538
0.00593127
-0.0764202
0.0781256
0.0119833
0.00942004
-0.0800688
0.0825313
0.0165463
0.0133663
-0.0853211
0.088911
0.0197805
0.017566
-0.0928097
0.0970556
0.0159962
0.0179424
-0.100434
0.102624
0.00500149
0.0103127
-0.103033
0.101572
-0.00532851
-0.000665691
-0.100439
0.100642
-0.0107577
-0.00842033
-0.010207
-0.00993203
0.0150168
0.0902463
0.0924038
-0.0202757
0.0239757
0.0875386
0.0887894
-0.0266588
0.0292018
0.0863405
0.0860013
-0.0314072
0.0332418
0.0835445
0.0835818
-0.0345909
0.0354731
0.0806135
0.0806818
-0.0358663
0.0358117
0.0784407
0.0780626
-0.0353418
0.0344808
0.0776189
0.0765553
-0.0332959
0.0317937
0.0781922
0.0764555
-0.0300625
0.0280629
0.0797402
0.0775755
-0.0259268
0.0245227
0.0816539
0.0793229
-0.0239919
0.026375
0.0836719
0.0811359
0.0741103
0.0137427
-0.0981556
0.07208
0.00432912
-0.00712795
0.00795193
-0.0923035
-0.0898494
-0.00480693
-0.0529601
-0.0479716
0.0500828
-0.0556985
-0.0545152
-0.0435124
0.0459149
-0.0628473
-0.0502757
-0.038077
0.0467165
-0.0699525
0.00940606
-0.0953795
-0.0405444
-0.0367859
0.0467273
-0.0781609
-0.027873
-0.0460509
0.0446403
-0.0864181
-0.0182001
-0.0673958
0.040698
-0.0938536
-8.48163e-05
-0.0852112
0.000196789
-0.084891
0.084469
0.000337148
0.000719212
-0.085406
-0.000204176
-0.0858308
0.00133877
-0.0141079
-0.0823206
0.0346243
-0.100843
-0.086004
0.000962667
-0.00965799
-0.0859136
0.0273824
-0.103949
-0.0864849
-0.00102305
-0.00459583
-0.0862835
0.0187233
-0.103834
-0.00975444
0.00272042
0.079114
0.0655854
-0.106405
0.049711
0.00034654
0.00328179
0.0821661
-0.00483599
0.00522304
-0.0926905
-0.0913646
-0.00332078
-0.0166922
0.0826241
-0.0519087
0.0797365
-0.0831435
0.00552102
-0.0762579
0.00278646
0.0778006
0.00437661
0.0806007
-0.0775575
0.00429972