/*--------------------------------*- C++ -*----------------------------------*\
  =========                 |
  \\      /  F ield         | OpenFOAM: The Open Source CFD Toolbox
   \\    /   O peration     | Website:  https://openfoam.org
    \\  /    A nd           | Version:  10
     \\/     M anipulation  |
\*---------------------------------------------------------------------------*/
FoamFile
{
    format      ascii;
    class       volVectorField;
    location    "17.5";
    object      U;
}
// * * * * * * * * * * * * * * * * * * * * * * * * * * * * * * * * * * * * * //

dimensions      [0 1 -1 0 0 0 0];

internalField   nonuniform List<vector> 
6397
(
(1.05033 -0.185388 8.73694e-21)
(1.05722 -0.196998 -3.9644e-20)
(1.3098 0.299311 0)
(1.289 0.318738 7.8581e-22)
(1.23519 0.347489 -2.14342e-21)
(1.25016 0.333998 -4.81698e-21)
(0.798139 -0.509897 -3.47165e-20)
(0.479502 -0.736872 9.43289e-20)
(-0.10879 0.00505846 1.82134e-20)
(-0.152622 -0.0172284 -8.32365e-21)
(0.491984 0.682645 7.5005e-20)
(0.788576 0.696041 -1.04682e-20)
(0.461563 0.0274227 -6.72979e-22)
(0.529114 0.0147963 -2.61742e-22)
(0.33668 0.0268709 1.40471e-21)
(-0.0364766 0.0257371 -7.72632e-20)
(0.089294 0.0391586 -4.27584e-20)
(-0.0796708 0.0283305 3.76257e-20)
(0.3232 -0.0136938 5.41821e-20)
(0.44771 -0.197694 -1.64326e-19)
(0.545518 -0.0429837 -8.44179e-20)
(0.231128 -0.0351435 -1.21577e-19)
(0.0022265 -0.0362294 5.50016e-21)
(0.501385 0.000764948 -8.59985e-20)
(0.66561 0.0138609 0)
(0.66629 0.012038 2.58385e-22)
(0.790196 0.0151469 5.5658e-23)
(0.80196 -0.419076 7.38792e-21)
(0.830196 -0.446098 -2.01284e-21)
(0.793833 -0.364366 4.80238e-21)
(0.801753 -0.433328 -7.0256e-21)
(1.25252 0.286867 -3.30595e-21)
(1.28038 0.290306 -3.43807e-21)
(1.26548 0.324427 1.34289e-20)
(1.20091 0.202307 -3.79015e-22)
(1.22245 0.208261 0)
(1.22765 0.241162 9.51426e-22)
(1.25318 0.247851 2.24643e-21)
(1.17582 0.148656 -4.65338e-22)
(1.1625 0.145612 1.26244e-22)
(1.17929 0.171199 0)
(1.19666 0.174556 0)
(0.796712 -0.273785 -3.01587e-21)
(1.11694 0.247505 -7.04157e-21)
(1.10165 0.164814 8.09917e-21)
(1.26172 0.302841 -1.34399e-20)
(1.19493 0.331059 -6.52608e-21)
(1.19479 0.285214 2.03743e-20)
(1.12665 0.103402 -1.49e-22)
(1.13234 0.0956643 2.27009e-23)
(1.12646 0.0853528 -1.43048e-22)
(1.13503 0.0759878 2.48099e-23)
(1.13244 0.08227 4.12276e-22)
(0.971728 0.185914 -8.80218e-21)
(1.02244 0.21957 5.79623e-21)
(1.03214 0.0513993 3.68809e-21)
(1.03769 0.0641492 3.78054e-21)
(1.13647 -0.0334996 2.36087e-22)
(0.920041 -0.539063 -4.00884e-21)
(0.92588 -0.526463 3.99822e-21)
(0.908976 -0.528976 5.25806e-21)
(0.885483 -0.492544 -5.17877e-21)
(0.852095 -0.422314 -7.18681e-21)
(0.81036 -0.308937 7.06372e-21)
(0.767522 -0.152245 0)
(0.726826 0.0353914 8.15788e-21)
(0.698607 0.231542 -8.51828e-21)
(0.688965 0.404415 0)
(0.952979 -0.53072 -3.35918e-21)
(0.926764 -0.49906 -8.6691e-25)
(0.945709 -0.500663 3.19821e-21)
(0.956708 -0.545845 0)
(0.950976 -0.543523 0)
(0.93177 -0.516824 0)
(0.902051 -0.45114 -3.23734e-23)
(0.86415 -0.33781 4.02788e-24)
(0.820426 -0.176098 0)
(0.776555 0.0212528 -1.33446e-24)
(0.739784 0.230617 0)
(0.718444 0.422833 0)
(0.936301 -0.463976 -2.86544e-21)
(0.919402 -0.472494 2.06153e-22)
(0.703774 0.526816 0)
(0.720246 0.561835 0)
(0.917444 -0.434947 1.59852e-22)
(0.897392 -0.458185 0)
(0.743716 0.583938 0)
(0.746657 0.632544 0)
(0.888124 -0.417938 5.17083e-21)
(0.864375 -0.454007 -8.51189e-22)
(0.80003 0.589975 0)
(0.790372 0.64364 0)
(0.850603 -0.408136 -4.11855e-21)
(0.816509 -0.386406 -2.3386e-21)
(0.855585 0.583862 0)
(0.837924 0.629164 6.53956e-22)
(0.914004 -0.385801 0)
(0.841574 -0.348401 3.92378e-21)
(0.87767 -0.368843 2.53836e-22)
(0.957025 -0.455379 -2.66467e-21)
(0.938712 -0.416883 0)
(0.987599 -0.523568 -1.91437e-21)
(0.971513 -0.493866 2.66e-21)
(0.998834 -0.551519 3.19507e-21)
(0.998087 -0.544076 1.44915e-21)
(0.966078 -0.47297 3.24256e-23)
(0.986796 -0.532926 -3.39276e-21)
(0.889695 -0.203731 -4.34812e-22)
(0.931749 -0.363194 -5.95937e-21)
(0.799349 0.214111 -5.11781e-21)
(0.841348 -0.00312304 1.07747e-20)
(0.750483 0.576628 0)
(0.764332 0.418751 0)
(0.785476 0.682438 0)
(0.757262 0.663455 0)
(0.821104 0.664686 -1.36153e-21)
(0.750142 0.527518 -3.59434e-21)
(0.875068 0.533605 -1.6626e-21)
(0.815187 0.529327 3.55746e-21)
(0.67184 0.379204 5.12758e-21)
(0.697958 0.482792 -5.01185e-21)
(0.694098 0.0441459 5.84574e-23)
(0.671697 0.223525 2.20945e-22)
(0.774025 -0.282417 0)
(0.730815 -0.132536 0)
(0.851016 -0.468794 4.38519e-21)
(0.815431 -0.394302 5.94735e-22)
(0.894619 -0.523819 6.62305e-22)
(0.876234 -0.510358 -4.36755e-21)
(0.912555 -0.495541 1.74908e-21)
(0.90722 -0.514278 -2.09707e-22)
(0.881134 -0.48552 -3.55805e-21)
(0.904177 -0.483983 -1.59749e-21)
(0.821501 -0.473874 0)
(0.850422 -0.486432 3.85047e-21)
(0.790453 -0.348216 -3.22855e-21)
(0.783953 -0.366345 1.65271e-22)
(0.807855 -0.32159 9.13554e-22)
(0.847322 0.64827 -1.85708e-21)
(0.871363 0.62862 4.6943e-22)
(0.896866 0.483386 -1.4179e-23)
(0.916155 0.568647 1.66711e-21)
(0.937629 0.531609 0)
(0.848418 0.653923 1.2424e-21)
(0.828671 0.659117 -2.35868e-21)
(0.827001 0.640284 2.34495e-21)
(0.820917 -0.347701 2.89054e-21)
(0.86851 -0.30778 -1.70418e-21)
(0.831015 -0.284068 -8.74738e-22)
(0.833839 -0.241321 2.96146e-21)
(0.893998 0.601605 1.32395e-22)
(0.937373 -0.357711 0)
(0.905198 -0.3303 -2.79733e-22)
(0.978606 -0.438713 4.92487e-23)
(0.958482 -0.397414 0)
(1.02385 -0.507001 -3.82482e-22)
(1.0005 -0.475858 9.09035e-22)
(1.05053 -0.550455 0)
(1.04013 -0.53493 3.33992e-22)
(1.04056 -0.492188 0)
(1.05074 -0.540971 2.25454e-22)
(0.974711 -0.243032 0)
(1.01376 -0.394684 6.57273e-22)
(0.875938 0.176064 2.67577e-23)
(0.92532 -0.045637 5.77058e-22)
(0.79518 0.565116 3.39166e-22)
(0.828074 0.390988 -6.73422e-22)
(0.788377 0.704881 -9.46647e-23)
(0.780641 0.670557 -1.17839e-22)
(0.809605 0.689567 6.99837e-22)
(0.766103 0.461595 2.98513e-23)
(0.836994 0.465264 4.32086e-23)
(0.668935 0.348864 -4.56462e-24)
(0.705015 0.431939 0)
(0.672055 0.0563874 0)
(0.659633 0.217719 -5.44884e-23)
(0.741326 -0.246114 0)
(0.702485 -0.103431 0)
(0.818984 -0.43661 -3.2015e-24)
(0.78265 -0.358452 -6.03452e-22)
(0.875948 -0.502 -4.22749e-22)
(0.850269 -0.483935 0)
(0.902823 -0.495766 -1.58636e-21)
(0.895543 -0.500467 0)
(0.873629 -0.510612 1.11118e-22)
(0.894544 -0.499465 1.58924e-21)
(0.827728 -0.491733 5.05985e-24)
(0.848184 -0.515135 4.86054e-22)
(0.818012 -0.433122 -2.55161e-21)
(0.773213 -0.288395 6.40211e-22)
(0.777421 -0.291242 0)
(0.795536 -0.249781 3.8485e-22)
(0.779896 -0.273367 -5.17777e-22)
(0.975597 0.587939 0)
(0.943357 0.62456 0)
(0.87884 0.657564 -6.37342e-22)
(0.807028 0.665687 -3.63071e-22)
(0.804268 0.623892 0)
(0.798364 0.62917 -2.88345e-22)
(0.825438 0.667131 1.27477e-22)
(1.00568 0.540155 0)
(1.02111 0.628937 0)
(1.06234 0.578376 -1.99799e-21)
(0.811129 -0.16733 2.56685e-21)
(0.855618 -0.1242 0)
(0.778485 -0.1942 -8.091e-22)
(0.819268 -0.221009 -3.11122e-24)
(0.795208 -0.177963 6.96839e-22)
(0.889663 -0.194782 0)
(0.866606 -0.318133 -2.95946e-21)
(0.911268 0.647999 0)
(0.896581 -0.268908 1.05951e-22)
(0.860706 -0.247399 0)
(0.954506 -0.332395 3.40303e-24)
(0.929891 -0.296497 9.77967e-23)
(1.00113 -0.414601 -1.21579e-22)
(0.976262 -0.374845 0)
(1.057 -0.484841 2.76652e-24)
(1.02927 -0.450235 -1.57569e-22)
(1.1017 -0.54072 -4.95195e-24)
(1.08048 -0.518163 -2.67236e-22)
(1.11787 -0.507865 1.21883e-21)
(1.11557 -0.54155 0)
(1.072 -0.286534 0)
(1.10337 -0.425461 -1.2421e-21)
(0.966578 0.126456 -4.07382e-22)
(1.02364 -0.0953325 2.09635e-22)
(0.853809 0.532788 0)
(0.905952 0.346803 -4.7264e-23)
(0.797574 0.710385 -2.65851e-22)
(0.814819 0.657182 4.83608e-22)
(0.798848 0.703636 6.1938e-22)
(0.918508 0.43534 -1.45476e-22)
(0.958552 0.489981 6.50118e-25)
(0.795675 0.395349 -8.3792e-23)
(0.865688 0.402804 2.3769e-22)
(0.677134 0.320899 -6.50031e-23)
(0.725838 0.38026 -2.34407e-22)
(0.662247 0.0737778 0)
(0.658059 0.214627 3.63067e-22)
(0.719057 -0.208853 0)
(0.685074 -0.0725649 0)
(0.79695 -0.401462 5.30934e-24)
(0.757912 -0.319816 0)
(0.866041 -0.477156 0)
(0.833526 -0.452444 0)
(0.897507 -0.496412 0)
(0.888863 -0.486929 0)
(0.873138 -0.532651 1.04256e-21)
(0.889907 -0.514007 0)
(0.845724 -0.49947 -5.01158e-24)
(0.854107 -0.533765 -1.06528e-21)
(0.847863 -0.427165 3.48714e-21)
(0.772445 -0.204276 9.66195e-22)
(0.784209 -0.194073 -2.4043e-21)
(0.771294 -0.202826 1.34431e-21)
(0.777191 0.584882 1.55968e-21)
(0.971785 0.667382 0)
(0.871118 0.687408 8.07712e-22)
(1.11522 0.614291 2.14925e-21)
(1.06332 0.657126 0)
(0.749031 0.600914 3.13324e-22)
(0.79022 0.653129 1.20562e-21)
(0.77685 -0.124184 1.89429e-22)
(0.785082 -0.122432 2.05976e-22)
(0.83264 -0.0537884 2.30946e-21)
(0.879243 -0.00939472 3.11956e-21)
(0.923141 -0.281204 3.36639e-21)
(0.957172 -0.142375 0)
(0.85254 -0.187088 -3.8036e-23)
(0.823095 -0.15432 -5.55875e-22)
(0.724147 0.535652 -1.5642e-21)
(0.658669 0.453597 -2.42103e-22)
(0.691025 0.530681 -2.29763e-21)
(0.917405 -0.0693353 -4.43882e-22)
(0.921792 0.686659 0)
(0.923702 -0.235611 1.15305e-23)
(0.892219 -0.20991 -4.26381e-23)
(0.972565 -0.309456 -7.08523e-23)
(0.950761 -0.269644 1.73835e-22)
(1.02536 -0.386425 0)
(0.9965 -0.350477 0)
(1.08741 -0.456569 -4.36888e-25)
(1.05616 -0.420845 -1.38381e-28)
(1.14899 -0.516878 4.90752e-24)
(1.1183 -0.490984 0)
(1.19124 -0.505265 0)
(1.17522 -0.525683 -3.6485e-28)
(1.1719 -0.320152 0)
(1.19187 -0.440372 0)
(1.06889 0.0671052 0)
(1.12943 -0.145146 0)
(0.926199 0.479611 0)
(0.997989 0.287035 0)
(0.816028 0.689797 0)
(0.862583 0.618056 0)
(0.777605 0.662097 -3.58458e-22)
(0.789568 0.697983 0)
(0.735287 0.545477 0)
(0.763763 0.606912 7.00395e-23)
(0.622294 0.375999 0)
(0.686359 0.472082 -8.51899e-23)
(1.02977 0.486983 -2.44246e-22)
(1.14749 0.561004 -6.8833e-22)
(1.08874 0.52242 2.45296e-22)
(0.937198 0.392558 2.41415e-23)
(0.9775 0.445542 -6.49862e-25)
(0.832447 0.327164 -2.35807e-23)
(0.894046 0.347984 -2.74919e-23)
(0.699802 0.28193 -1.22618e-24)
(0.760761 0.317675 0)
(0.664339 0.0848715 0)
(0.667938 0.202428 0)
(0.712465 -0.174218 0)
(0.68189 -0.0469553 0)
(0.791057 -0.363176 -8.95384e-25)
(0.750236 -0.281619 0)
(0.864902 -0.449839 0)
(0.830661 -0.417194 0)
(0.895079 -0.496187 0)
(0.887416 -0.471793 0)
(0.878863 -0.545704 4.35066e-22)
(0.889462 -0.524024 -4.52493e-22)
(0.874993 -0.496594 8.02347e-22)
(0.870626 -0.542177 -7.53887e-23)
(0.891557 -0.406154 -4.5941e-21)
(0.785338 -0.10373 -1.13923e-21)
(0.803557 -0.0831049 -2.45858e-21)
(0.777164 -0.117576 0)
(1.16094 0.640486 0)
(1.20933 0.590253 6.29925e-22)
(0.588293 0.329018 1.55411e-21)
(0.554659 0.249606 0)
(0.997494 0.684977 0)
(0.857483 0.683067 0)
(0.803774 -0.112136 0)
(0.941328 0.0445724 -7.8074e-21)
(0.992683 -0.234194 2.9835e-21)
(1.03508 -0.0847026 0)
(1.09095 0.670011 2.518e-22)
(0.748271 0.591376 -1.51101e-21)
(1.2684 0.5946 8.78285e-22)
(1.19851 0.631 -3.03085e-22)
(0.629051 0.410504 2.56033e-21)
(0.523417 0.168181 -6.00969e-23)
(0.49557 0.0963474 0)
(0.993228 -0.00783683 8.20628e-21)
(0.928983 0.692486 0)
(0.89073 -0.150835 9.38416e-23)
(0.834912 -0.0917317 2.48915e-22)
(0.86074 -0.123549 2.12752e-22)
(0.947424 -0.208885 3.18791e-25)
(0.922952 -0.17678 -7.83134e-23)
(0.989407 -0.287175 0)
(0.968697 -0.247127 -1.88072e-24)
(1.04616 -0.355488 4.63205e-29)
(1.01573 -0.323009 -4.81652e-29)
(1.11208 -0.423756 -4.65211e-25)
(1.07823 -0.388935 0)
(1.18781 -0.484573 0)
(1.149 -0.457014 0)
(1.25552 -0.491683 -6.39992e-24)
(1.22501 -0.499948 3.64856e-28)
(1.26817 -0.346664 5.86152e-28)
(1.27256 -0.444775 -6.08581e-28)
(1.17885 0.001911 0)
(1.23671 -0.193496 0)
(1.01535 0.405595 8.96017e-24)
(1.10135 0.213322 0)
(0.855534 0.638135 -4.77692e-24)
(0.930179 0.551989 0)
(0.756271 0.638156 -9.34709e-23)
(0.797807 0.663128 0)
(0.685651 0.506986 5.00759e-23)
(0.722555 0.582299 1.29831e-22)
(0.583697 0.309228 -2.62672e-22)
(0.639241 0.416043 3.53121e-23)
(0.498889 0.0520506 -1.05763e-21)
(0.532054 0.184668 2.61977e-22)
(1.1662 0.500178 4.07354e-22)
(1.30572 0.538644 -9.94636e-23)
(1.23463 0.526777 -4.70829e-22)
(1.05087 0.432375 1.87581e-22)
(1.10685 0.465485 -1.47187e-22)
(0.954008 0.354213 3.69937e-23)
(0.997377 0.39976 -3.33174e-23)
(0.870751 0.266957 0)
(0.918252 0.303202 -3.51851e-23)
(0.737801 0.230602 7.2306e-25)
(0.805575 0.25082 3.26106e-29)
(0.675455 0.0881496 0)
(0.691258 0.178516 0)
(0.715286 -0.140177 -9.96549e-26)
(0.686629 -0.0245645 0)
(0.794971 -0.322658 -1.28912e-24)
(0.753291 -0.242044 0)
(0.866826 -0.42271 0)
(0.834506 -0.380718 0)
(0.894224 -0.494261 0)
(0.886905 -0.457738 0)
(0.891434 -0.550441 0)
(0.893044 -0.529104 0)
(0.916727 -0.478523 0)
(0.8975 -0.536926 3.80396e-23)
(0.94754 -0.373978 -1.92172e-21)
(1.31021 0.561318 -1.08217e-21)
(1.36875 0.525989 0)
(0.459245 -0.0615332 -1.93524e-22)
(0.502103 -0.0676191 1.22326e-21)
(1.01697 0.105063 0)
(1.07849 0.0569901 -2.0849e-21)
(0.969651 0.152961 -3.12371e-21)
(1.0399 0.201475 3.39343e-21)
(0.865203 0.0662839 1.31281e-21)
(0.910122 0.105577 6.08184e-23)
(0.808924 0.000222181 6.22073e-23)
(0.831798 0.0303466 -1.14234e-21)
(0.788257 -0.0433281 -8.04656e-22)
(0.795043 -0.0246202 2.06665e-22)
(0.797689 -0.0588253 0)
(0.788569 -0.0549841 4.26148e-22)
(0.819232 -0.0520371 -3.43325e-22)
(1.00473 0.679623 -2.5387e-22)
(0.832251 0.633445 -8.55774e-28)
(1.10268 0.642015 3.04283e-22)
(0.693767 0.479152 0)
(1.21279 0.571402 0)
(0.562406 0.244891 0)
(1.41148 0.473276 2.43493e-22)
(1.3213 0.47854 2.31936e-23)
(0.465943 -0.0163636 -1.45661e-21)
(0.551115 -0.14765 -2.10016e-22)
(0.462858 -0.197826 -1.95416e-22)
(0.876759 -0.0646957 -2.96828e-22)
(0.856398 -0.0349489 2.98179e-22)
(0.919327 0.664 -1.13348e-27)
(0.927358 -0.120401 2.0586e-23)
(0.902697 -0.0928412 1.81339e-22)
(0.967384 -0.189041 3.46021e-23)
(0.949849 -0.152437 0)
(1.00752 -0.263203 -6.43413e-30)
(0.985324 -0.227925 -3.89441e-23)
(1.06447 -0.324889 0)
(1.03458 -0.294778 0)
(1.13235 -0.387096 -1.84206e-24)
(1.09656 -0.355905 0)
(1.21647 -0.442996 0)
(1.17263 -0.416798 0)
(1.30464 -0.461284 1.15925e-23)
(1.26186 -0.460841 0)
(1.35155 -0.357877 8.05538e-24)
(1.3378 -0.43138 0)
(1.28967 -0.0620224 0)
(1.33686 -0.232567 0)
(1.12029 0.316442 -1.16274e-24)
(1.21365 0.131918 0)
(0.924787 0.559181 1.01855e-24)
(1.02056 0.46416 0)
(0.771897 0.58673 2.97473e-25)
(0.840577 0.598038 -1.05939e-28)
(0.668199 0.462211 -1.56814e-24)
(0.716373 0.537329 0)
(0.582136 0.264316 -3.06159e-23)
(0.623508 0.368468 -2.95202e-22)
(0.566692 0.0537822 1.09496e-21)
(0.558976 0.153703 1.34144e-21)
(0.694471 -0.0559553 -2.06236e-21)
(0.616347 -0.0172547 -2.18554e-22)
(1.31203 0.470345 1.95442e-22)
(1.44951 0.435672 -2.65072e-22)
(1.38517 0.466217 0)
(1.17501 0.438655 -3.94064e-23)
(1.24086 0.458843 1.2761e-22)
(1.06618 0.380786 -7.47424e-24)
(1.1176 0.411538 -2.08475e-24)
(0.971043 0.316243 -4.37237e-25)
(1.01637 0.351965 2.6373e-25)
(0.902763 0.219974 0)
(0.936616 0.26807 0)
(0.790047 0.170516 -8.53738e-25)
(0.853757 0.18913 1.65484e-28)
(0.698697 0.0792696 -1.23849e-28)
(0.732027 0.13996 1.31095e-28)
(0.717845 -0.108627 9.14353e-25)
(0.696203 -0.00878711 0)
(0.793826 -0.283307 0)
(0.753309 -0.203159 0)
(0.861872 -0.398703 4.27922e-25)
(0.831629 -0.346816 0)
(0.892133 -0.489528 0)
(0.881309 -0.445048 0)
(0.911385 -0.541937 3.00375e-24)
(0.899619 -0.526162 0)
(0.967818 -0.448978 -1.09606e-23)
(0.933274 -0.519225 3.69976e-23)
(1.0696 -0.178404 -3.09523e-21)
(1.01524 -0.328988 0)
(1.16337 0.115388 -1.40242e-20)
(1.12054 -0.0234965 1.04537e-20)
(1.18763 0.21728 1.14893e-22)
(1.00041 0.24447 0)
(1.1286 0.308718 -3.2217e-21)
(1.06066 0.279527 -2.34467e-22)
(0.902133 0.169521 0)
(0.947365 0.208019 0)
(0.839932 0.0966746 -6.4051e-22)
(0.866212 0.131885 -2.01019e-28)
(0.809776 0.0363204 1.51295e-22)
(0.821408 0.0638569 1.01783e-21)
(0.80437 -0.00159408 0)
(0.803612 0.0133175 -3.13468e-22)
(1.41945 0.374543 -6.24891e-24)
(1.49044 0.370147 2.24251e-22)
(0.641449 -0.182001 1.46582e-21)
(0.778482 -0.0837928 3.34318e-21)
(0.84215 -0.000195837 2.88494e-22)
(0.815303 -0.00664471 -2.06025e-22)
(0.991027 0.630762 -2.79028e-26)
(0.784331 0.53786 0)
(1.0912 0.554053 0)
(0.626724 0.318848 -2.874e-26)
(1.19379 0.455339 -5.33757e-24)
(0.498108 0.0465737 -7.11322e-22)
(1.29577 0.343538 9.9313e-24)
(0.433093 -0.198918 0)
(1.49578 0.271819 2.33731e-21)
(1.3867 0.241507 -7.96857e-24)
(0.518128 -0.279411 5.21355e-22)
(0.841716 -0.125792 -3.60214e-21)
(0.744914 -0.196221 -8.1108e-22)
(1.52836 0.263083 -1.36897e-21)
(1.46497 0.15319 -2.34491e-21)
(1.5345 0.174649 -1.56435e-21)
(0.882651 -0.188157 -1.14342e-21)
(0.898029 -0.0941258 4.31422e-21)
(0.926644 -0.154847 4.9742e-22)
(0.885576 0.015632 2.81223e-22)
(0.839012 0.0383954 0)
(0.876289 0.0433649 -3.30442e-22)
(0.883788 0.593259 -1.63004e-27)
(0.920481 -0.0392987 1.29697e-22)
(0.904566 -0.0132384 6.24802e-22)
(0.955575 -0.100337 -1.91463e-22)
(0.942356 -0.0689622 -1.28266e-22)
(0.983941 -0.173059 0)
(0.971685 -0.136261 0)
(1.02447 -0.2388 0)
(1.00278 -0.20817 0)
(1.07916 -0.294797 0)
(1.05106 -0.267137 0)
(1.14712 -0.349047 0)
(1.11118 -0.322264 0)
(1.23383 -0.39722 2.58735e-28)
(1.18828 -0.374398 -2.68841e-28)
(1.33437 -0.418687 -5.1921e-24)
(1.28359 -0.414052 -5.06179e-28)
(1.41252 -0.350199 -8.05533e-24)
(1.38058 -0.401347 0)
(1.39103 -0.116437 0)
(1.41899 -0.255116 0)
(1.23741 0.220221 -1.44798e-24)
(1.32748 0.0512058 0)
(1.02643 0.460597 1.01044e-24)
(1.13298 0.36261 0)
(0.83952 0.510917 -2.9739e-25)
(0.926416 0.509141 0)
(0.713318 0.409117 4.9301e-24)
(0.768408 0.473838 1.29847e-28)
(0.655867 0.24252 4.89328e-22)
(0.674939 0.327666 0)
(0.705559 0.100476 -6.16221e-22)
(0.666019 0.162044 -6.16264e-22)
(0.824941 0.0167827 2.39198e-21)
(0.766767 0.0569005 -1.4856e-21)
(0.870866 -0.0332095 -3.88466e-21)
(1.43614 0.375083 -6.77403e-22)
(1.49296 0.331812 1.96671e-21)
(1.30015 0.401078 -1.03019e-24)
(1.36904 0.396596 -4.81139e-23)
(1.17659 0.380848 -1.57116e-22)
(1.23623 0.394742 1.67332e-22)
(1.07631 0.334126 2.59004e-25)
(1.12349 0.360478 2.11748e-24)
(0.988721 0.276729 4.36929e-25)
(1.03196 0.306509 2.35924e-28)
(0.925756 0.187881 0)
(0.952993 0.237172 0)
(0.848145 0.112796 4.44005e-28)
(0.894892 0.143006 -4.6987e-28)
(0.743376 0.05207 0)
(0.791477 0.0888676 0)
(0.724278 -0.0864915 8.11423e-25)
(0.720185 -0.00805347 0)
(0.782776 -0.247764 0)
(0.748571 -0.169743 0)
(0.847575 -0.37557 -4.27922e-25)
(0.817507 -0.315743 0)
(0.8903 -0.47682 0)
(0.870757 -0.429229 0)
(0.939532 -0.518036 -5.45165e-25)
(0.911082 -0.510447 -5.93658e-28)
(1.03054 -0.402023 1.06567e-23)
(0.978878 -0.484426 0)
(1.15236 -0.121756 0)
(1.09027 -0.274886 7.65775e-25)
(1.24385 0.158477 3.59537e-21)
(1.2074 0.0288543 7.03778e-24)
(1.26506 0.248881 3.13421e-21)
(1.13788 0.347733 -4.86653e-21)
(1.19082 0.356539 2.72154e-21)
(1.02961 0.310636 0)
(1.083 0.334548 0)
(0.938439 0.247659 -1.09558e-25)
(0.981393 0.281446 -2.52678e-28)
(0.874439 0.176598 -8.3999e-26)
(0.902428 0.212245 -1.78087e-28)
(0.83762 0.110315 -3.2067e-23)
(0.853128 0.141795 -1.96471e-28)
(0.821477 0.0587997 -5.05457e-23)
(0.82703 0.0821581 1.30417e-22)
(0.822944 0.0430825 -9.84939e-24)
(0.957847 0.516726 4.64025e-26)
(0.717041 0.389634 -7.3398e-27)
(1.04867 0.406965 0)
(0.553541 0.115722 3.33257e-26)
(1.14205 0.286864 7.90615e-24)
(0.444125 -0.165882 7.12438e-22)
(1.2328 0.176083 -4.12109e-23)
(0.443561 -0.342496 7.36256e-24)
(1.31919 0.0936813 -6.84392e-23)
(0.623605 -0.303844 0)
(1.51191 0.0790611 1.71466e-21)
(1.40597 0.0355497 0)
(0.821916 -0.230966 -5.63754e-22)
(0.963294 -0.207964 1.20695e-21)
(0.924854 -0.251316 1.0014e-21)
(1.52074 0.0942389 -5.85117e-23)
(1.46751 -0.00992391 2.04983e-21)
(1.50268 0.0225881 8.94048e-24)
(1.00759 -0.252937 -1.16698e-21)
(0.996351 -0.173037 2.26076e-21)
(1.03292 -0.211674 2.34199e-22)
(0.845091 0.078269 0)
(0.869753 0.0770583 -1.16762e-21)
(0.929422 0.0336863 6.59091e-22)
(0.939225 0.0553575 -6.88669e-22)
(0.828856 0.46106 9.17068e-27)
(0.95522 -0.0216638 -3.18978e-22)
(0.955935 0.00407146 -2.82867e-22)
(0.975887 -0.0885569 3.368e-23)
(0.974412 -0.0555344 -1.46775e-22)
(0.999903 -0.157869 -4.0873e-25)
(0.990402 -0.124522 4.16579e-28)
(1.03962 -0.215651 0)
(1.01975 -0.188297 0)
(1.09116 -0.265796 0)
(1.0648 -0.241095 0)
(1.15689 -0.311473 -5.46998e-25)
(1.12227 -0.289213 0)
(1.24136 -0.349945 0)
(1.19679 -0.331925 0)
(1.34468 -0.367899 0)
(1.29133 -0.363189 0)
(1.44364 -0.323327 0)
(1.39802 -0.357542 0)
(1.46837 -0.150905 0)
(1.47097 -0.255722 0)
(1.35546 0.129377 -6.34945e-24)
(1.42849 -0.0158245 0)
(1.15752 0.356397 9.90945e-25)
(1.26079 0.260023 -8.0428e-28)
(0.965816 0.426557 0)
(1.05631 0.411663 0)
(0.839947 0.362222 6.05255e-25)
(0.892272 0.406734 -1.29847e-28)
(0.80638 0.246461 4.37979e-24)
(0.811356 0.304802 1.13813e-27)
(0.854917 0.146349 6.354e-22)
(0.824336 0.192872 6.07441e-25)
(0.908138 0.0455573 -3.08584e-22)
(0.885566 0.0988591 -3.39226e-22)
(0.940789 -0.0744266 -1.5162e-21)
(0.924247 -0.0139878 1.07904e-21)
(0.964985 -0.1277 -2.59751e-21)
(1.49526 0.2309 -1.63382e-22)
(1.51904 0.167364 2.37661e-23)
(1.3988 0.314295 1.52765e-23)
(1.45314 0.280759 0)
(1.28135 0.341567 1.01859e-24)
(1.3406 0.334038 4.87227e-23)
(1.1734 0.329239 0)
(1.22549 0.339195 0)
(1.08198 0.291976 1.71515e-25)
(1.12529 0.313445 0)
(1.00532 0.239075 0)
(1.04296 0.26661 0)
(0.944019 0.16367 0)
(0.970807 0.206303 0)
(0.897237 0.0714442 -2.36064e-24)
(0.923266 0.115096 0)
(0.811536 0.00947997 0)
(0.858282 0.0386369 0)
(0.754245 -0.0832291 -1.6261e-24)
(0.772977 -0.0289982 0)
(0.77732 -0.218974 -1.76809e-24)
(0.757738 -0.149046 0)
(0.834696 -0.348992 -1.02118e-24)
(0.804895 -0.286288 9.19925e-29)
(0.895832 -0.450845 5.79291e-26)
(0.864284 -0.404804 6.30735e-29)
(0.978921 -0.476469 -6.44078e-25)
(0.932535 -0.478412 0)
(1.10308 -0.342479 0)
(1.0358 -0.432783 0)
(1.23919 -0.0652391 0)
(1.17422 -0.211883 -7.67123e-25)
(1.316 0.18485 -2.92516e-21)
(1.28902 0.0738687 -6.91261e-24)
(1.32331 0.259171 2.54316e-21)
(1.21782 0.346989 0)
(1.24103 0.320745 -5.02219e-21)
(1.14114 0.365233 2.45941e-21)
(1.18315 0.363135 5.96055e-22)
(1.05143 0.347205 2.20386e-25)
(1.09689 0.361533 4.92609e-28)
(0.970095 0.299248 2.01486e-25)
(1.00897 0.326086 4.24881e-28)
(0.908713 0.236251 -3.02235e-28)
(0.936274 0.268851 3.0731e-28)
(0.868708 0.171799 -5.76585e-23)
(0.88628 0.203089 1.73847e-28)
(0.845714 0.113241 5.0316e-23)
(0.855548 0.141497 5.87551e-23)
(0.839661 0.0908197 -6.95303e-23)
(0.898935 0.342367 0)
(0.639656 0.189678 2.71071e-27)
(0.976459 0.212832 0)
(0.484625 -0.113306 -1.26421e-25)
(1.05951 0.0909293 -9.89185e-24)
(0.41576 -0.360239 -7.38139e-25)
(1.14009 0.00251646 2.80006e-23)
(0.514437 -0.41395 9.42394e-25)
(1.22749 -0.0454622 8.92244e-23)
(0.738893 -0.310954 -2.35456e-25)
(1.32927 -0.0682382 0)
(0.872411 -0.295828 -9.26564e-23)
(1.46956 -0.040591 6.86322e-22)
(1.41275 -0.0855993 -3.27584e-21)
(0.976056 -0.303326 7.7683e-24)
(1.07433 -0.243495 -2.83737e-22)
(1.05654 -0.29111 -1.75714e-23)
(0.906391 0.0803671 -2.05127e-22)
(0.756959 0.269253 -2.03635e-26)
(0.979918 0.0433214 -7.44694e-22)
(0.971112 0.0955278 4.46505e-21)
(0.980604 0.0662439 -2.83045e-21)
(0.986581 -0.0155456 7.34108e-23)
(0.987772 0.0145922 6.89907e-22)
(0.995148 -0.0818665 -3.36365e-23)
(0.993375 -0.0480802 7.7346e-23)
(1.01654 -0.143606 -1.19725e-22)
(1.00569 -0.113308 1.0526e-22)
(1.05299 -0.194311 -6.64362e-25)
(1.03432 -0.169447 3.44558e-28)
(1.1009 -0.238279 -3.0386e-25)
(1.07601 -0.216685 -1.60502e-28)
(1.16264 -0.275893 3.43813e-25)
(1.13016 -0.257808 0)
(1.24147 -0.304737 0)
(1.19989 -0.291664 0)
(1.33917 -0.315383 1.84654e-24)
(1.28826 -0.31338 0)
(1.44351 -0.28197 -1.59965e-27)
(1.39255 -0.306724 1.66091e-27)
(1.50435 -0.158811 -2.13344e-27)
(1.48433 -0.234257 2.21432e-27)
(1.44926 0.0593629 2.01938e-27)
(1.49358 -0.0567837 -2.09516e-27)
(1.29285 0.26311 2.48616e-24)
(1.37816 0.172249 -1.00662e-27)
(1.12313 0.350497 1.89368e-24)
(1.20463 0.322928 4.88133e-28)
(1.00575 0.327295 1.58536e-25)
(1.05531 0.349579 0)
(0.961558 0.25134 4.74852e-24)
(0.975543 0.292066 2.35047e-27)
(0.959567 0.16071 4.96908e-24)
(0.958932 0.207483 0)
(0.959434 0.0523534 2.8487e-22)
(0.959653 0.108385 0)
(0.97579 -0.0578174 1.0337e-21)
(0.963592 -0.00460757 -1.17981e-21)
(1.02138 -0.143488 0)
(0.995897 -0.103937 8.10113e-23)
(1.08641 -0.203396 4.65872e-22)
(1.05181 -0.17649 -4.1711e-22)
(1.47511 0.0924756 -9.13825e-23)
(1.44972 -0.0136818 -3.2483e-22)
(1.46888 0.0369674 3.09066e-22)
(1.43975 0.19599 -1.46582e-23)
(1.4651 0.147057 -3.15619e-24)
(1.35669 0.265048 0)
(1.40232 0.236081 0)
(1.25911 0.291305 2.32898e-25)
(1.30832 0.283107 0)
(1.1668 0.284097 0)
(1.21162 0.291049 0)
(1.08651 0.254182 -4.30504e-25)
(1.12504 0.271703 0)
(1.0196 0.206369 0)
(1.05183 0.231982 0)
(0.963524 0.141234 0)
(0.989392 0.177123 0)
(0.930735 0.0499812 -1.63659e-25)
(0.945127 0.0974222 0)
(0.884348 -0.0294156 0)
(0.912313 0.0066934 0)
(0.822059 -0.100565 -2.54932e-27)
(0.851123 -0.0625899 2.69915e-27)
(0.807432 -0.202233 1.76588e-24)
(0.806703 -0.147372 2.32752e-27)
(0.847552 -0.317922 2.71078e-24)
(0.822324 -0.260414 1.56311e-27)
(0.922692 -0.409343 -6.67127e-25)
(0.880951 -0.369362 0)
(1.03581 -0.417108 -1.81522e-24)
(0.973706 -0.428735 1.00133e-27)
(1.18584 -0.271029 -3.11849e-27)
(1.10749 -0.365385 3.30681e-27)
(1.32133 -0.0117387 0)
(1.26094 -0.145083 0)
(1.37152 0.196332 4.34864e-22)
(1.35976 0.107314 -6.63749e-22)
(1.33811 0.279362 0)
(1.36139 0.252746 7.99753e-23)
(1.30868 0.290402 0)
(1.19782 0.335409 0)
(1.226 0.277044 2.04285e-22)
(1.2165 0.309051 1.20244e-21)
(1.13821 0.363224 -2.3198e-22)
(1.17105 0.354331 -4.46238e-22)
(1.06491 0.359736 -4.27477e-26)
(1.10241 0.366063 0)
(0.995063 0.327069 -9.20969e-26)
(1.0288 0.346449 0)
(0.939351 0.275606 0)
(0.964978 0.302986 0)
(0.898917 0.218042 7.33026e-27)
(0.917157 0.246756 0)
(0.872683 0.159316 0)
(0.884801 0.188434 0)
(0.858461 0.115441 0)
(0.861026 0.133702 -2.38912e-23)
(0.935328 0.102331 0)
(0.87999 0.107691 2.37268e-22)
(1.42759 -0.0904197 -7.89148e-22)
(1.41966 -0.0542518 0)
(1.12016 -0.267603 -1.08236e-22)
(1.12458 -0.222939 -5.16481e-23)
(0.815933 0.126482 4.96354e-25)
(0.559808 -0.0442227 0)
(1.28223 0.251291 0)
(0.882027 -0.00532762 1.51596e-24)
(0.428688 -0.338332 9.00943e-26)
(1.01371 0.0960768 1.11897e-21)
(0.941783 0.124076 0)
(1.00754 0.122828 0)
(0.953367 -0.10458 3.71316e-24)
(0.437242 -0.494046 7.84217e-25)
(1.02822 -0.156298 0)
(0.634219 -0.422787 7.33579e-25)
(1.12007 -0.163029 0)
(0.821867 -0.351121 0)
(1.24445 -0.14992 0)
(0.925089 -0.360466 2.18376e-22)
(1.35397 -0.141159 8.70775e-22)
(1.03644 -0.345046 -2.57759e-23)
(1.38541 -0.0826812 0)
(1.38304 -0.123453 9.58448e-23)
(1.11063 -0.321439 1.48378e-21)
(1.1692 -0.281984 -3.32512e-21)
(1.16439 -0.234106 2.51952e-21)
(0.672354 0.0387555 1.39563e-26)
(1.01146 0.0441997 3.80952e-22)
(1.02146 0.0712028 0)
(1.00687 -0.0146603 -7.93191e-23)
(1.01266 0.0150179 -1.71521e-22)
(1.01146 -0.0755324 0)
(1.00963 -0.0457738 8.36922e-23)
(1.03146 -0.129567 0)
(1.02045 -0.10359 1.67065e-23)
(1.06443 -0.174525 6.64031e-25)
(1.04696 -0.152617 0)
(1.10859 -0.212559 7.86154e-25)
(1.08528 -0.194152 0)
(1.16531 -0.243058 2.90908e-25)
(1.13542 -0.228698 0)
(1.23662 -0.263474 4.27178e-25)
(1.19909 -0.254755 4.88705e-28)
(1.32382 -0.266498 -1.84537e-24)
(1.27838 -0.267857 -1.21932e-27)
(1.42026 -0.235922 1.68758e-24)
(1.37205 -0.256873 -1.95721e-27)
(1.49497 -0.144656 2.55765e-27)
(1.46368 -0.199605 -2.53359e-27)
(1.48931 0.0179784 1.3743e-24)
(1.5056 -0.0701846 -2.36757e-27)
(1.38611 0.188895 -4.48702e-25)
(1.44672 0.10902 0)
(1.24857 0.282966 3.85365e-25)
(1.31712 0.248089 1.54312e-27)
(1.1352 0.287446 -7.63639e-24)
(1.18664 0.294846 0)
(1.06412 0.233585 -4.74641e-24)
(1.09501 0.265468 -4.56301e-27)
(1.01991 0.149375 0)
(1.03994 0.194196 0)
(0.995529 0.0491883 5.36791e-22)
(1.00441 0.0999459 -5.6292e-22)
(1.00298 -0.0447196 0)
(0.994634 0.000122504 -2.1843e-28)
(1.03886 -0.118226 8.3481e-23)
(1.01793 -0.0841961 -1.48058e-22)
(1.09307 -0.169244 3.14129e-22)
(1.06396 -0.146693 -3.13322e-22)
(1.15745 -0.194081 0)
(1.12456 -0.18497 5.14049e-23)
(1.40349 0.00420703 -6.22762e-23)
(1.35596 -0.0518256 -1.19882e-22)
(1.38194 -0.0279189 -1.10509e-22)
(1.41651 0.0863423 -2.98084e-22)
(1.41542 0.0436495 6.13528e-23)
(1.38422 0.167483 -1.50192e-22)
(1.40634 0.12911 4.61839e-22)
(1.31776 0.223623 2.82369e-25)
(1.35428 0.199497 -3.22509e-24)
(1.23776 0.248054 -2.32899e-25)
(1.27831 0.239602 0)
(1.15955 0.244953 7.43415e-28)
(1.19785 0.249521 -7.86042e-28)
(1.08971 0.220599 -2.08691e-27)
(1.12346 0.235149 2.20699e-27)
(1.03114 0.178282 -9.13574e-25)
(1.05902 0.201459 0)
(0.983106 0.120266 4.13457e-27)
(1.00573 0.151554 -4.37431e-27)
(0.955172 0.0393615 2.51946e-24)
(0.965957 0.0828037 5.15053e-27)
(0.939033 -0.0488654 0)
(0.948095 -0.00597808 0)
(0.907461 -0.122794 2.91676e-24)
(0.925091 -0.0870462 -1.88175e-28)
(0.885476 -0.200267 -5.24329e-27)
(0.892404 -0.159574 5.55286e-27)
(0.909751 -0.288859 4.56332e-25)
(0.890946 -0.244147 0)
(0.988053 -0.357844 6.0914e-25)
(0.942232 -0.328808 0)
(1.1171 -0.345767 5.67403e-25)
(1.04661 -0.366557 0)
(1.2746 -0.196294 -4.70786e-27)
(1.19525 -0.288364 4.99173e-27)
(1.389 0.0290409 0)
(1.34248 -0.0829227 0)
(1.40309 0.190513 -2.57037e-22)
(1.40864 0.123652 -5.14517e-22)
(1.34749 0.247947 1.62073e-21)
(1.37973 0.230093 -6.81185e-22)
(1.31353 0.253101 0)
(1.20044 0.262606 2.37237e-22)
(1.20351 0.231579 -6.21947e-22)
(1.17652 0.315676 0)
(1.19212 0.291183 -2.32946e-22)
(1.13002 0.348443 7.10758e-25)
(1.15551 0.335687 0)
(1.07107 0.355334 -1.76876e-25)
(1.1014 0.355616 -1.26839e-27)
(1.01307 0.335989 0)
(1.04128 0.348598 0)
(0.964332 0.297501 0)
(0.987334 0.318491 0)
(0.926192 0.249662 -7.28721e-27)
(0.943479 0.274363 0)
(0.899902 0.195443 0)
(0.912875 0.222756 0)
(0.874141 0.150062 -1.72432e-22)
(0.883992 0.17028 2.30754e-23)
(0.891303 0.136304 -5.21056e-23)
(1.34824 -0.098629 0)
(1.32685 -0.066152 1.48707e-22)
(1.20497 -0.237391 -1.65796e-21)
(1.19055 -0.196145 2.66386e-21)
(0.717295 -0.107421 4.57761e-27)
(0.483081 -0.284024 5.63199e-26)
(1.05183 0.0891348 -1.78008e-21)
(1.06295 0.106976 1.05583e-21)
(0.769843 -0.219902 -1.06008e-23)
(0.403108 -0.523838 0)
(0.830382 -0.279289 -2.20297e-23)
(0.52417 -0.542298 -1.65248e-24)
(0.903468 -0.285959 0)
(0.751539 -0.431272 0)
(1.00431 -0.247754 -1.39116e-22)