/*--------------------------------*- C++ -*----------------------------------*\
  =========                 |
  \\      /  F ield         | OpenFOAM: The Open Source CFD Toolbox
   \\    /   O peration     | Website:  https://openfoam.org
    \\  /    A nd           | Version:  10
     \\/     M anipulation  |
\*---------------------------------------------------------------------------*/
FoamFile
{
    format      ascii;
    class       surfaceScalarField;
    location    "24.5";
    object      phi;
}
// * * * * * * * * * * * * * * * * * * * * * * * * * * * * * * * * * * * * * //

dimensions      [0 3 -1 0 0 0 0];

internalField   nonuniform List<scalar> 
12623
(
0.09634
0.0233682
-0.0365869
-0.0831213
0.075109
-0.0386808
0.0599117
0.0808506
-0.0250368
-0.0741038
0.0182901
-0.0282961
0.0846442
0.0245025
-0.0823596
0.0281651
-0.0295018
0.0836962
-0.0787271
-0.0319286
-0.00278888
0.0451972
-0.0514401
0.00903183
-0.0529582
0.0501693
0.0312965
-0.00712158
-0.024175
0.0169392
-0.00744388
0.0218012
0.090961
-0.0408883
-0.0500727
-0.0607073
0.049581
0.102087
-0.0285617
-0.018907
0.0212072
0.0262616
0.00324456
0.00569666
-0.0375029
-0.0250548
0.00939229
0.00730138
0.00192157
-0.0138142
0.00459126
0.00200431
-0.0120545
0.0173515
-0.000837181
0.00476305
0.000665491
-0.0128971
-0.000263497
0.0124951
-0.0282381
0.00884976
0.0200538
-0.0263249
-0.0148103
-0.00251244
0.00938785
-0.00640472
-0.000470682
0.00481096
-0.00741629
9.28872e-05
-0.0117718
0.0259706
-0.0447893
0.00545252
0.0450334
0.0074628
-0.0508061
-0.00144602
-0.0580763
0.0057006
0.0578282
-0.0770092
-0.00170357
0.00171898
0.0769938
-0.0778339
0.0138504
-0.0130257
-0.0764754
0.0762664
-0.00749434
0.00770327
-0.0750302
-0.00314873
-0.0877231
0.0291498
-0.028577
0.0871504
-0.0276816
-0.0829317
0.0228902
0.0851277
-0.0928154
0.0259026
-0.0266386
0.0935513
-0.0267985
-0.0873818
0.0213649
-0.0907451
-0.0267409
0.0906875
-0.0851408
0.0235455
0.090542
-0.0266856
-0.0924441
0.0285878
-0.0229604
0.0312834
0.082219
-0.0927473
-0.0274757
0.0935373
-0.0893615
0.0225168
0.0162578
-0.0170944
0.077103
-0.0766729
0.0317732
-0.0330675
0.0779672
-0.0302422
-0.0715333
0.0251027
-0.0281394
-0.0756245
-0.0783297
-0.0321634
0.0785645
-0.0746959
3.14724e-05
-0.0821339
-0.00559716
0.0876996
0.066271
0.0170354
-0.0832749
-0.0623187
0.0156405
0.112949
-0.0335612
0.102186
-0.081707
0.0130824
-0.0788445
0.0735139
0.0150314
-0.0133516
-0.0751937
0.0177429
0.0714476
-0.0156766
-0.0107692
0.00726119
0.0807831
-0.0772751
-0.0830466
0.0827565
-0.0104791
0.0817725
-0.00983945
0.0109538
-0.0828869
0.0841594
-0.085678
0.0391353
-0.0376167
0.0398665
0.0822879
-0.0379949
-0.0875918
0.039644
-0.0377302
-0.0872774
0.040554
-0.0408684
-0.0872877
0.0410074
-0.0409971
-0.0855467
0.0409623
-0.0427032
-0.0841502
0.0386096
-0.0400061
-0.0801162
0.032845
-0.036879
-0.0758564
0.0237086
-0.0279684
0.00977164
-0.0704266
-0.0152014
0.0843382
-0.0846923
0.0402206
0.0406815
0.0813961
-0.0397897
0.0837865
0.0412331
-0.0857663
0.0402093
-0.0852253
0.039103
-0.0847977
0.0401264
-0.0836184
0.0398281
-0.0822605
0.0396044
-0.0787565
0.0351055
-0.075184
0.0292726
-0.0700306
0.0185552
-0.0656488
0.00538979
-0.0383859
0.0821699
0.0400025
0.0798632
-0.0368529
-0.00702568
-0.0661864
0.00278551
-0.0625649
-0.0101096
-0.0338962
0.0804792
0.0355869
0.0795815
-0.0336145
-0.0233062
-0.0631884
0.0203082
-0.0605536
-0.0253175
-0.0254931
0.0791621
0.0268103
-0.0237455
-0.0361574
-0.0623158
0.0352847
-0.0617944
-0.0349165
0.0783047
0.0147078
0.00116414
0.0788596
-0.0436105
0.0446096
-0.0633148
-0.0402335
-0.0651715
0.079115
-0.0821631
0.0298584
-0.0743017
0.0763376
-0.000871761
0.0195211
0.0841274
-0.0845708
0.0404459
0.0375512
0.0844656
-0.0840333
0.0397883
0.0411279
0.0838052
-0.0825123
0.0378101
0.0399812
0.0813227
-0.0793987
0.0379041
0.0389368
0.0770543
-0.0736489
0.0317002
0.0372599
0.0699307
-0.0654862
0.0141107
0.0255544
0.0619136
-0.05988
-0.0121431
0.00181712
0.0602677
-0.0617738
-0.0334104
-0.0249299
-0.0655818
-0.0364255
-0.0673144
0.0717314
0.0158912
0.0650291
0.044564
-0.0649835
0.0329995
-0.0772981
0.0813029
-0.0192063
-0.00278119
-0.0872699
0.0868029
-0.0364121
-0.0339354
-0.0903811
0.0874435
-0.0397656
-0.0435842
-0.0894512
0.0858126
-0.0372298
-0.0430048
-0.0871529
0.0829569
-0.0334207
-0.0390705
-0.0828162
0.0774773
-0.0344509
-0.0378542
-0.0772269
0.0746787
-0.0310663
-0.0366026
-0.0756201
-0.0124358
-0.024687
0.00895058
-0.0112081
0.0811171
0.0784501
-0.00917415
0.0743037
0.0405184
-0.0694567
-0.0366435
0.0435959
-0.0682489
-0.0679361
0.0698672
0.0426328
0.0493977
-0.0473868
-0.0669945
-0.0682608
0.0497224
-0.0365133
0.039124
-0.0720673
-0.0699807
0.0658414
-0.0325043
-0.0334705
-0.0730235
0.0764878
-0.0739002
0.00511566
0.0767477
-0.0811159
0.00349645
0.080323
-0.0127495
0.0761018
0.0166439
-0.0671058
0.0803081
-0.0812841
0.0308344
0.0187132
0.081997
-0.0823587
0.0408077
0.0382641
0.0828879
-0.0815063
0.0384067
0.041657
0.0796314
-0.078549
0.0367277
0.0381063
0.0764339
-0.0745865
0.0360567
0.0368218
0.0713589
-0.0686847
0.029026
0.0340323
0.0648868
-0.0619397
0.0111636
0.0217565
0.0593036
-0.0580689
-0.0133778
-0.000818978
0.0591317
-0.0622103
-0.0303318
-0.0238671
-0.0327944
-0.0738583
0.0783715
0.011378
0.0290084
-0.0829733
0.0869475
-0.0231805
-0.00738302
-0.0866579
0.0900182
-0.0397724
-0.0336457
-0.0862291
0.0882339
-0.0417705
-0.0397951
-0.0834634
0.0848515
-0.0386179
-0.0382343
-0.0802752
0.0817307
-0.0348763
-0.0344943
-0.0761657
0.0760046
-0.0342897
-0.0322892
-0.0719295
0.0703715
-0.0295083
-0.0325275
-0.0695406
0.0727995
-0.0156947
-0.023856
-0.00424944
0.0184337
-0.0140918
0.0767753
0.0797893
0.0182874
0.0798329
-0.0177973
0.0784993
-0.0493775
0.0490589
-0.0679421
-0.0463453
-0.0700266
0.0424979
-0.0716228
-0.0713602
0.0670627
-0.0282067
-0.0741518
-0.0306789
0.0376234
-0.0353162
-0.0753307
0.0397616
-0.0742055
-0.0690991
0.0700258
0.0481322
0.0465454
-0.0441869
-0.0703007
-0.0686753
0.0461217
0.0258578
-0.0242151
0.0754604
0.0762571
0.0257024
-0.0310809
0.0295595
0.0813542
0.0806872
-0.0788458
-0.0196387
0.0843533
-0.0347469
-0.0730166
0.0152148
0.0744457
-0.0701321
0.00223111
-0.0709532
0.0812274
-0.0817564
0.0040254
-0.0103678
0.0827679
-0.0833807
0.0314472
0.0197248
0.0838507
-0.0840596
0.0410165
0.038734
0.081847
-0.0823348
0.0388945
0.0394445
0.0796797
-0.0786341
0.0356821
0.0354512
0.0755593
-0.073497
0.0339943
0.033747
0.0696102
-0.0668161
0.0262319
0.0301456
0.0628815
-0.060145
0.00842702
0.017822
0.0581163
-0.0574018
-0.0140923
-0.00284768
0.0593768
-0.0622558
-0.0274528
-0.0218921
-0.0279875
-0.0728772
0.075894
0.039616
0.046871
-0.0801278
0.0849419
0.00656393
0.0247746
-0.088379
0.0911145
-0.025916
-0.0108201
-0.0907373
0.0905668
-0.0396018
-0.0332685
-0.089089
0.0870216
-0.0397031
-0.0383174
-0.0848713
0.0827143
-0.0364608
-0.036084
-0.0807827
0.0786276
-0.0327212
-0.0325626
-0.0762496
0.0734111
-0.0314513
-0.0299111
-0.0700212
0.0690745
-0.0285616
-0.0291376
-0.067465
0.0673134
-0.0155431
-0.0222465
-0.00706817
0.026485
-0.0275236
0.0778139
0.0820592
0.0805352
-0.0763679
-0.0331001
-0.0433866
-0.0708269
0.0417077
-0.073569
-0.0427666
0.0424814
-0.0683901
-0.0436221
-0.0694452
0.0399593
-0.0380518
-0.0772381
0.0418907
-0.0761369
-0.0368714
0.0357441
0.0824815
-0.0383577
0.0858396
0.0350237
-0.0344842
0.0749208
0.0322054
0.0790754
0.0662453
-0.065899
0.0018848
0.0111495
0.0703105
0.0870495
-0.0845954
-0.0220928
0.0864219
-0.0341194
-0.0788259
-0.0355938
0.0400616
-0.0379407
-0.0809468
0.0425346
-0.0797112
0.075645
0.0245031
-0.072632
0.0852462
-0.0873419
0.00612109
-0.00971701
0.0873961
-0.087275
0.031326
0.019779
0.0849677
-0.0842869
0.0403357
0.0364267
0.0829566
-0.0814695
0.0374075
0.0381142
0.0797797
-0.0775594
0.0334618
0.0337614
0.0749003
-0.0716685
0.0307625
0.031088
0.0682688
-0.0646704
0.0226334
0.0267458
0.0613887
-0.0586472
0.0056855
0.0145403
0.0571835
-0.0575762
-0.0136996
-0.00431136
0.0599852
-0.0639882
-0.0234498
-0.019483
0.0680098
-0.0713568
-0.0248598
-0.023966
0.0740301
-0.0776706
-0.0294596
-0.0280056
0.0797789
-0.0842928
-0.0334268
-0.0334856
-0.0716837
0.0734681
0.0463478
0.0696096
-0.0678164
0.0406881
0.0440476
-0.0767373
0.0817897
0.0345636
0.0436018
-0.0869554
0.091428
0.00209127
0.019609
-0.094668
0.0961069
-0.0273549
-0.0140601
-0.0956152
0.0938119
-0.0377986
-0.0327768
-0.0914507
0.0886703
-0.0369227
-0.0359562
-0.0860134
0.0833881
-0.0338356
-0.0334271
-0.0811406
0.0787991
-0.0303797
-0.0303151
-0.0763415
0.0733613
-0.0284712
-0.0274535
-0.0708344
0.0676665
-0.0253937
-0.0266106
-0.0662745
0.065443
-0.0147115
-0.0208545
-0.00752416
0.0310434
-0.0333122
0.0800827
0.0786184
0.0829671
0.0396319
-0.0414143
-0.0666076
-0.0645986
0.036414
-0.0382375
0.041454
-0.0841633
-0.0879037
-0.0346265
-0.0432906
-0.0711585
0.0428845
-0.0745628
-0.0370328
0.0850971
0.0318779
0.0759725
0.0661768
-0.0649966
0.000704602
0.0680323
0.00929403
-0.0433492
-0.0675103
0.0443652
-0.0779675
-0.0359223
0.0321594
-0.0608357
-0.0399799
-0.0625501
0.044472
-0.0827291
-0.0407561
0.0446091
-0.0880163
-0.0370121
-0.0916477
0.0738933
0.0209203
-0.0730381
0.0925079
-0.0929181
-0.0216826
-0.0895391
0.0876119
-0.0351056
-0.0311506
0.0936889
-0.0928443
0.00527644
-0.00894615
0.0912426
-0.089493
0.0295765
0.0181773
0.0877071
-0.085764
0.0383926
0.0346408
0.0838831
-0.0819184
0.0354428
0.0362333
0.079858
-0.0773605
0.0309644
0.0317009
0.0744786
-0.0710424
0.0273263
0.028206
0.0674735
-0.0637947
0.0189546
0.0231769
0.0606262
-0.0582602
0.0033195
0.0113718
0.0574365
-0.0586345
-0.0125016
-0.00513508
0.0616252
-0.065671
-0.0194039
-0.0164924
0.0694892
-0.0714784
-0.0228705
-0.0201478
0.0749551
-0.0767788
-0.0276359
-0.024529
0.0815079
-0.0853377
-0.029597
-0.0287565
0.0889338
-0.0930528
-0.032893
-0.0310305
-0.0657435
0.0688822
0.0375495
0.0620783
-0.0581476
0.0282288
0.0327488
-0.0717282
0.0761066
0.0419694
0.0412016
-0.0817156
0.0868036
0.0294756
0.0379928
-0.0930679
0.0980913
-0.00293209
0.0133446
-0.100577
0.100739
-0.0275171
-0.0165456
-0.0990585
0.096164
-0.0349041
-0.0310963
-0.0930698
0.0897924
-0.0336453
-0.032862
-0.0868325
0.0839417
-0.0309448
-0.0304671
-0.0815011
0.0790645
-0.0279432
-0.0278744
-0.0766161
0.0736916
-0.0255466
-0.025005
-0.0704251
0.0681761
-0.0231448
-0.0233441
-0.0662098
0.0653051
-0.0138068
-0.0188882
-0.00721566
0.0266823
-0.0318281
-0.0556899
-0.0534574
0.0219921
-0.0379499
0.041655
-0.0953529
-0.0970454
-0.0339573
0.075529
0.0174193
0.0345131
-0.0359847
0.0774441
0.0769746
0.033192
-0.0368733
0.0786021
0.0762827
0.0369385
-0.0371054
0.0802497
0.0786835
0.0373574
-0.0379813
0.0831054
0.083219
0.0381259
-0.0372578
0.084229
0.0859841
-0.0353085
0.0856626
-0.0446544
-0.0698532
0.0450541
-0.0752517
-0.0431083
-0.0643819
0.0461469
-0.0796424
-0.0365603
-0.0578179
0.0461543
-0.0842744
-0.0193058
0.0149014
-0.049053
-0.0247109
-0.0502848
0.0449449
-0.0913062
0.0384834
-0.0347731
-0.100756
0.0414392
-0.0983086
0.0891932
-0.0914742
-0.0328245
0.0863652
-0.0324806
-0.0726384
0.0944773
-0.0960768
-0.0200832
-0.0281475
0.0969286
-0.0958579
0.00420573
-0.00809431
0.0938961
-0.0916666
0.027347
0.0162155
0.0894203
-0.0870498
0.0360221
0.0323945
0.0847699
-0.0824534
0.0331262
0.0339534
0.0801479
-0.077481
0.0282974
0.0293954
0.0744816
-0.070924
0.0237687
0.0252067
0.067247
-0.0635358
0.0152434
0.0194999
0.0605563
-0.0587093
0.00147246
0.00839233
0.0586898
-0.0606752
-0.0105162
-0.00515458
0.0639254
-0.0675306
-0.0157986
-0.0132422
0.070435
-0.0729256
-0.02038
-0.0172434
0.0754672
-0.0785009
-0.0246022
-0.0219873
0.0821586
-0.0850103
-0.0267452
-0.0250988
0.0878108
-0.092329
-0.0283748
-0.02823
0.0970075
-0.102233
-0.0295473
-0.0292788
-0.0562272
0.0601901
0.0242659
0.0528537
-0.0513185
0.0133663
0.0186186
-0.0640827
0.0682354
0.0333968
0.0288562
-0.0737331
0.0783615
0.0373411
0.0357038
-0.0857238
0.0933862
0.0218132
0.0306305
-0.099667
0.10395
-0.0072151
0.00706384
-0.105197
0.103933
-0.0262537
-0.0177924
-0.10116
0.0974725
-0.031217
-0.0283225
-0.093926
0.0904049
-0.0301242
-0.0293154
-0.0873299
0.0843305
-0.0279454
-0.0273922
-0.0817884
0.079331
-0.0254857
-0.0253324
-0.0769868
0.0742007
-0.0227605
-0.0226609
-0.0713604
0.0685367
-0.020321
-0.0205038
-0.0661991
0.0651436
-0.0127513
-0.0165507
-0.0645326
0.0653488
-0.000111567
-0.00660468
-0.0673397
0.0708069
0.0139521
0.00730315
0.0212136
0.0330543
-0.0344307
0.0788205
-0.0326386
0.0784424
0.0773903
0.0359635
-0.0371437
0.0797823
0.0778156
0.0378591
-0.0396351
0.0820257
0.0793989
0.0385244
-0.0397209
0.0843019
0.0821083
0.0372652
-0.0371779
0.0841417
0.0835285
0.00748516
-0.0101215
-0.0464166
-0.0520112
0.0081778
-0.0328161
0.0373698
-0.105309
-0.107134
-0.0279156
0.0343292
-0.0306896
0.0827256
0.082814
-0.045443
-0.0675186
0.0464621
-0.075567
-0.0408476
-0.0600945
0.0468493
-0.0803373
-0.0303124
-0.0522164
0.0464551
-0.0857846
-0.0150397
-0.0453666
0.0434778
-0.0933448
-0.000978845
0.00408158
-0.0551139
-0.000541055
-0.0468544
0.0395827
-0.100522
0.0303536
-0.110329
-0.027158
0.0333554
-0.108311
-0.0638442
0.061246
0.00667977
0.000721147
0.00364042
-0.0594755
-0.0660198
0.00289676
-0.0237876
0.0266973
-0.113239
-0.108777
0.104152
-0.0225327
-0.111966
-0.020599
0.0846663
-0.0873732
-0.0279827
-0.0312744
0.0331486
0.0808515
0.0773476
-0.0239557
-0.0716193
0.0903715
-0.095502
-0.0276941
-0.0294822
0.0984647
-0.100541
-0.0180064
-0.0251848
0.100086
-0.0982779
0.00239809
-0.00855022
0.0958602
-0.0931295
0.0246163
0.0137977
0.0905716
-0.0879882
0.0334387
0.0298366
0.0855359
-0.0830011
0.0305914
0.0315011
0.0804762
-0.0775897
0.0254109
0.0268706
0.0744119
-0.0707189
0.0200757
0.0220289
0.0670243
-0.063521
0.0117402
0.0158054
0.0610823
-0.0601309
0.000521063
0.00595361
0.0610369
-0.0635105
-0.00804253
-0.00424857
0.0664629
-0.0692268
-0.0130347
-0.0102899
0.0714249
-0.0736676
-0.0181372
-0.0150453
0.0761578
-0.0790055
-0.0217545
-0.0194971
0.0818529
-0.0843655
-0.0242326
-0.0222515
0.0879751
-0.0916733
-0.0246767
-0.0246203
0.0951316
-0.100613
-0.024066
-0.0258205
-0.0243766
-0.0591546
0.0588563
0.0136645
0.0102693
-0.0599859
0.0621032
0.0221486
0.0174891
-0.0663615
0.0704714
0.0292869
0.0245978
-0.0768088
0.0843357
0.0298141
0.0293664
-0.0921956
0.100081
0.013928
0.0227707
-0.105593
0.108284
-0.00990627
0.00155133
-0.107919
0.105323
-0.0236582
-0.0174266
-0.101794
0.0977321
-0.0271556
-0.0247929
-0.0940577
0.0905332
-0.0265997
-0.025641
-0.0875176
0.0845654
-0.0249932
-0.0243766
-0.0820154
0.0795743
-0.0230447
-0.0227824
-0.0773647
0.0748503
-0.0202461
-0.0204512
-0.072235
0.0694442
-0.0175302
-0.0178885
-0.0673186
0.0661856
-0.0116183
-0.0144251
-0.0656583
0.0662889
-0.000742078
-0.00607744
-0.0677711
0.0708036
0.0109197
0.00582086
0.0163927
0.0315958
-0.0324691
0.0793157
0.0806585
0.0343888
-0.0360656
0.0804973
0.07931
0.0373346
-0.0381838
0.0806315
0.0790847
0.0385285
-0.0383261
0.0818232
0.0797437
0.0375832
-0.0358397
0.0825584
0.0813654
0.0348711
-0.0343101
0.0835807
0.0825599
0.0816524
-0.0440801
-0.0642861
0.0461406
-0.0748583
-0.035346
-0.055061
0.0458663
-0.0797485
-0.0206421
-0.0466139
0.0439733
-0.08628
-0.00329685
-0.0426108
0.0398982
-0.0936604
0.00760481
-0.0508188
0.0339012
-0.101067
0.00300917
-0.00115665
-0.0678724
0.00646038
-0.0629267
0.026652
-0.108266
0.0189887
-0.114678
-0.0162765
0.0189623
-0.113213
-0.0705666
0.0702074
-0.000797526
-0.00592668
0.00687094
-0.0688166
-0.0713481
-0.00514519
-0.0116113
0.0116987
-0.114765
-0.110988
0.109301
-0.0145905
-0.112039
-0.01056
-0.0323224
0.0324844
0.0806895
-0.0313028
0.0763281
0.0859217
-0.0893094
-0.0245951
0.0850257
-0.0230597
-0.0695588
0.0927391
-0.0970547
-0.0233784
-0.0260525
0.100467
-0.102253
-0.0162199
-0.0217726
0.101946
-0.10002
0.000471941
-0.00885753
0.0971012
-0.0936914
0.0212065
0.0108789
0.0906258
-0.0877691
0.030582
0.026771
0.0851885
-0.0824883
0.0278912
0.0289205
0.0797505
-0.0766468
0.0223072
0.0241328
0.0733856
-0.0698376
0.0165276
0.0187677
0.066601
-0.0639391
0.00907826
0.0125688
0.0625888
-0.0627544
0.000686655
0.00460334
0.0642572
-0.0665316
-0.00576807
-0.00274582
0.0686893
-0.0706069
-0.0111171
-0.0081322
0.0723897
-0.0745086
-0.0160184
-0.0132625
0.0768353
-0.0793732
-0.0192166
-0.0171704
0.0819069
-0.0847122
-0.0214274
-0.0197178
0.0879728
-0.0901745
-0.022475
-0.0213597
0.0941952
-0.0969607
-0.0213004
-0.0217998
0.101074
-0.105151
-0.0184561
-0.020263
-0.0164485
-0.0699892
0.0692047
0.00746418
0.00311504
-0.068497
0.067868
0.0142935
0.010977
-0.0688154
0.0706861
0.020278
0.0165416
-0.0738294
0.078681
0.0244353
0.0214544
-0.0847004
0.0922488
0.0222657
0.023347
-0.0995954
0.106022
0.00750141
0.015424
-0.109581
0.110153
-0.0104785
-0.00200736
-0.108314
0.104887
-0.0202308
-0.0155879
-0.101121
0.0971352
-0.0231701
-0.0210268
-0.0936311
0.0902923
-0.0232608
-0.0221369
-0.0874493
0.0846561
-0.0221999
-0.0215336
-0.0821927
0.0798047
-0.0206566
-0.020319
-0.07773
0.075509
-0.0180251
-0.0183765
-0.073225
0.0706881
-0.0149933
-0.0156046
-0.0685822
0.0671439
-0.0101801
-0.0123192
-0.0668867
0.0673435
-0.00119887
-0.00582023
-0.0693115
0.0707127
0.00951851
0.00385279
0.0130016
0.0292699
-0.0291343
0.0835607
0.0858205
0.0312552
-0.0342271
0.0822876
0.0827794
0.0359747
-0.0373493
0.0818719
0.0810576
0.0382699
-0.0387172
0.0810788
0.0800052
0.0386408
-0.0380245
0.0812069
0.0796673
0.0369235
-0.0357933
0.0814283
0.0802645
0.03495
-0.0335047
0.0821354
0.0817166
0.0806321
-0.0398215
-0.0598106
0.0435233
-0.0725153
-0.0263265
-0.0493766
0.04166
-0.0774352
-0.00798114
-0.0419297
0.0373947
-0.0837765
0.0085706
-0.0435766
0.0311732
-0.0909323
0.0124916
-0.0568501
0.023731
-0.0981464
0.00937267
-0.0654284
0.0163155
-0.105619
0.0101889
-0.00876921
-0.0727678
0.0115552
-0.0701829
0.00997712
-0.111491
0.00635762
-0.00650431
-0.111892
0.00463753
-0.113045
-0.00500286
0.0587257
-0.065857
0.085321
-0.0894139
-0.0205021
-0.0796428
0.0672579
0.00738201
-0.0173815
0.0944053
-0.0977268
-0.0200569
-0.0210612
0.10128
-0.103392
-0.0141078
-0.0182195
0.103088
-0.101344
-0.00127232
-0.00916126
0.0980846
-0.0938787
0.0170006
0.00761963
0.0899303
-0.0863633
0.0270149
0.0228226
0.0833978
-0.0805248
0.0250183
0.025955
0.0777547
-0.0747949
0.0193473
0.0213627
0.0719407
-0.0691691
0.013756
0.0159135
0.0670081
-0.0656435
0.00771359
0.0104078
0.0654038
-0.0661804
0.0014632
0.0043637
0.0675099
-0.0690145
-0.00426354
-0.00141625
0.0703535
-0.0717497
-0.00972084
-0.00679319
0.0733278
-0.0752634
-0.0140827
-0.0116845
0.0773107
-0.079536
-0.0169913
-0.0151231
0.0818064
-0.0843301
-0.0189038
-0.0174473
0.0869271
-0.0897433
-0.0196589
-0.0187626
0.0926185
-0.0953162
-0.0186028
-0.0189246
0.0974878
-0.100486
-0.0154579
-0.0180913
0.103103
-0.106372
-0.0113211
-0.0138314
0.107716
-0.108022
-0.00619819
-0.00921625
-0.0728064
0.0727902
-0.000781251
0.0728042
-0.0752301
-0.00634333
-0.00514739
-0.0729132
0.0741512
0.00622617
0.00299199
-0.0752274
0.0762686
0.0132523
0.00990082
-0.0777995
0.0801454
0.0179321
0.0150107
-0.0833143
0.0878421
0.0199075
0.0182856
-0.093201
0.0995052
0.0159615
0.017988
-0.104991
0.108958
0.00353497
0.00993783
-0.110242
0.109169
-0.00940513
-0.00329146
-0.106605
0.103092
-0.0167177
-0.0130242
-0.0995895
0.0960043
-0.0195849
-0.0175244
-0.0928538
0.0898122
-0.0202192
-0.0189864
-0.0872007
0.0846292
-0.0196285
-0.018922
-0.0823281
0.0800452
-0.0183738
-0.0180179
-0.0780802
0.0761121
-0.016057
-0.0164116
-0.0742013
0.072046
-0.0128379
-0.0136937
-0.0700866
0.0685469
-0.00864043
-0.0103598
-0.0679441
0.0681838
-0.00143858
-0.00521743
-0.069417
0.0721866
0.00674888
0.00261966
-0.0743259
0.0776576
0.0149584
0.0108623
0.0192284
0.0288718
-0.0312274
0.0859163
-0.0275619
0.0879714
0.0871304
0.033239
-0.0361277
0.0851763
0.084791
0.0377099
-0.0388224
0.0829844
0.0826397
0.0394074
-0.0394517
0.0811232
0.0805902
0.0389453
-0.0378992
0.0801608
0.0791609
0.0364055
-0.0352666
0.0802894
0.0787707
0.0328828
-0.0307026
0.0799553
0.0793327
0.0310709
-0.0307974
0.080416
0.0810003
0.0377657
0.0882179
0.0832963
-0.0113178
0.0136879
-0.0751379
-0.0765407
-0.0100072
-0.00142652
0.000624274
-0.11109
-0.107379
-0.00207025
-0.0321031
-0.054034
0.0375157
-0.068371
-0.0819866
0.019736
-0.013722
-0.0436357
0.0328985
-0.072939
0.0929779
-0.0793218
-0.00627414
-0.0213967
0.0269079
0.0827068
-0.0129716
0.0845527
0.00631153
-0.0396706
0.026052
-0.0786554
0.0176941
-0.0487791
0.0181208
-0.0853221
0.0146235
-0.0621009
0.0105222
-0.0923531
0.0139023
-0.0677755
0.00478111
-0.100423
0.01657
-0.073065
0.000606344
-0.10746
0.0143913
-0.0124933
-0.0784386
0.0168648
-0.0776114
-0.00195734
-0.110464
0.00199004
-0.00418295
-0.108897
0.000625689
-0.106014
-0.0604444
0.0858455
-0.0899218
-0.0164258
-0.0108578
0.0935402
-0.0971551
-0.016442
-0.0174427
0.100891
-0.10253
-0.0124687
-0.0144841
0.103567
-0.102316
-0.00252292
-0.00812384
0.0992818
-0.0947753
0.0124941
0.004585
0.090059
-0.0856044
0.0225604
0.0181062
0.0820452
-0.0789676
0.0219407
0.0223958
0.0763879
-0.0739745
0.0169339
0.018783
0.0719397
-0.0702397
0.0120561
0.0138787
0.0691516
-0.0686772
0.00723917
0.00931972
0.0688104
-0.0693584
0.00201114
0.00449695
0.0700515
-0.0708329
-0.00348216
-0.000723133
0.0717044
-0.0728656
-0.00855962
-0.0059217
0.074281
-0.0759831
-0.0123807
-0.010269
0.0777629
-0.0797257
-0.0150285
-0.0133433
0.0817444
-0.0839663
-0.0166818
-0.0154287
0.0862147
-0.0886282
-0.0172454
-0.0165142
0.0910673
-0.0931412
-0.0165289
-0.0164854
0.0961412
-0.0973103
-0.0142888
-0.0150913
0.0990445
-0.10024
-0.0101257
-0.0120972
0.10173
-0.103079
-0.00484961
-0.00772593
0.102613
-0.101988
6.81718e-07
-0.00253567
-0.0757905
0.0758859
-0.00643877
0.0776285
-0.0798207
-0.0103011
-0.00816917
-0.0745502
0.0746572
-0.000888233
-0.00381168
-0.0756414
0.0766948
0.00517277
0.0020078
-0.0785477
0.0806814
0.0111186
0.00804787
-0.0830773
0.0860681
0.0149413
0.0126148
-0.0894264
0.0936195
0.0157144
0.0149273
-0.0980583
0.102678
0.0113418
0.0135493
-0.106107
0.10798
0.00166223
0.00650845
-0.107883
0.106212
-0.00773422
-0.00319413
-0.103723
0.100655
-0.0136495
-0.0105357
-0.0976759
0.0946182
-0.0165272
-0.0145452
-0.0918879
0.0891921
-0.0175235
-0.0162561
-0.0868364
0.0845064
-0.0172984
-0.0165663
-0.0824126
0.0802951
-0.0162563
-0.0159241
-0.0784441
0.0766571
-0.01427
-0.0145606
-0.0750542
0.0733253
-0.011109
-0.0120909
-0.0716841
0.0701972
-0.00715352
-0.0087186
-0.0693334
0.0694774
-0.00158256
-0.00435365
-0.0702794
0.0714103
0.00561804
0.00181765
-0.0732719
0.0763229
0.0119073
0.00900076
0.0135647
0.0274262
-0.0286188
0.089164
0.0914751
0.0301695
-0.0339255
0.0896724
0.0886811
0.0361849
-0.0381142
0.0871056
0.0870503
0.0395413
-0.0404187
0.0838618
0.0840668
0.0407127
-0.0404136
0.0808241
0.0808842
0.039543
-0.038131
0.0787487
0.0782902
0.0362948
-0.034064
0.0780586
0.0769346
0.0316011
-0.0293414
0.0776957
0.0768697
0.0267344
-0.0258124
0.0794939
0.0783933
0.0843919
-0.0134878
0.0160659
-0.0810168
-0.0818579
-0.0114506
0.00309019
-0.00527891
-0.103826
-0.100829
0.00193047
-0.0202633
-0.0474927
0.0269623
-0.0624348
0.0886358
-0.0856225
-0.0092874
0.0840809
-0.00841666
0.00167221
-0.0389964
0.0193
-0.0661869
0.0197603
-0.0417368
0.0105861
-0.0711207
0.0221301
-0.0562857
0.00232591
-0.0771258
0.0171444
-0.065343
-0.00352292
-0.0840491
0.0193931
-0.0705986
-0.00618356
-0.093633
0.0202503
-0.0764505
-0.00624287
-0.103174
0.019342
-0.0808875
-0.00751945
-0.107127
0.014935
-0.0130868
-0.0837061
0.018324
-0.0844057
-0.00822954
-0.105946
-0.0834937
0.0811526
-0.0107457
0.0124681
-0.0844251
-0.0115367
0.0157074
-0.0869454
-0.0262538
0.0923295
0.00575919
-0.00749409
-0.102091
0.00310913
-0.0981786
-0.0537454
0.086683
-0.0905545
-0.0125544
-0.0097973
0.0941121
-0.0969386
-0.0136155
-0.0138851
0.0995234
-0.101712
-0.0102802
-0.0118993
0.102878
-0.102517
-0.00288394
-0.0069575
0.100368
-0.0964514
0.00857735
0.00243597
0.0918051
-0.0870011
0.0177564
0.0134599
0.0830565
-0.0798238
0.018708
0.0184512
0.0774326
-0.0755011
0.0150024
0.0163919
0.0740691
-0.0729679
0.0109548
0.0124467
0.072257
-0.0718361
0.00681826
0.00860888
0.0716703
-0.0716796
0.00202048
0.00433111
0.0718563
-0.0722518
-0.00308665
-0.000546401
0.0729168
-0.073923
-0.00755348
-0.00525674
0.0751485
-0.0766072
-0.010922
-0.00904342
0.0781464
-0.0798666
-0.0133082
-0.0118041
0.081638
-0.0835725
-0.0147472
-0.0136573
0.0855134
-0.0875795
-0.0151794
-0.0145733
0.0895987
-0.0916467
-0.0144809
-0.0144663
0.0935358
-0.0952831
-0.0125415
-0.0132023
0.0966355
-0.0973315
-0.00942977
-0.0107448
0.0976979
-0.0973061
-0.00524141
-0.00735952
0.0967962
-0.0966729
-0.000122663
-0.0030455
0.0963262
-0.0951951
0.00197807
0.00158376
-0.0796262
0.0782148
-0.00888973
-0.00992413
-0.0776847
0.0768295
-0.00558361
-0.0076391
-0.0763689
0.0765634
-0.00108272
-0.00335104
-0.0772439
0.0783527
0.00406395
0.0013273
-0.0801913
0.0824934
0.00881653
0.0062093
-0.0850743
0.0881689
0.0118467
0.0100338
-0.0914037
0.0950819
0.0120362
0.0116925
-0.0985674
0.10177
0.00813969
0.0100637
-0.103812
0.104604
0.000870154
0.00446629
-0.104117
0.102603
-0.00622026
-0.00270732
-0.100583
0.0981288
-0.0111953
-0.0085157
-0.0957115
0.0931737
-0.0139895
-0.0121279
-0.0908541
0.0885091
-0.0151785
-0.0139365
-0.0864161
0.0843254
-0.0152077
-0.0144734
-0.0824465
0.0805336
-0.0143433
-0.0140452
-0.0788282
0.0771813
-0.0126231
-0.0128552
-0.0757839
0.0744072
-0.00973241
-0.0106934
-0.0731448
0.0719051
-0.00591387
-0.00745616
-0.0710467
0.0707355
-0.00127141
-0.00349518
-0.0711841
0.0724739
0.00432827
0.00136902
-0.0745624
0.0773109
0.0091588
0.0069123
-0.0777506
0.083258
0.0142286
0.013125
0.0194217
0.0274636
-0.0301815
0.0918819
0.0926849
0.0331747
-0.0357229
0.0922206
0.0916742
0.0379161
-0.0397027
0.0888922
0.0892436
0.040934
-0.0415631
0.084491
0.0852981
0.0415807
-0.0409957
0.0802391
0.0809018
0.039857
-0.0381931
0.0770849
0.0771515
0.0361303
-0.0336813
0.0756095
0.0748718
0.0310188
-0.028947
0.0756239
0.0742072
0.0253654
-0.0231242
0.0772527
0.0748117
0.0161643
-0.0157461
0.0822887
0.0774319
0.0187944
-0.0238662
0.0891527
0.0876011
-0.00456724
-0.0412532
0.0118328
-0.0549676
-0.0040546
0.00229277
-0.0934333
-0.00662611
-0.095607
0.0846682
-0.0915827
-0.0169517
-0.0283321
0.0659478
0.0515369
0.0744936
-0.0181575
-0.0910698
0.0912047
0.00184317
-0.0893368
0.000559772
0.0181399
-0.037376
0.00205643
-0.0576573
0.0288596
-0.0484664
-0.00711618
-0.0616786
0.0235725
-0.0627138
-0.0135429
-0.0671058
0.0222213
-0.0681712
-0.0158638
-0.0743688
0.0240098
-0.0743581
-0.01468
-0.0851958
0.0233085
-0.0804171
-0.0123908
-0.0983031
0.0214296
-0.0839931
-0.0112667
-0.10409
-0.0119128
-0.0867308
0.0142185
-0.086253
0.0842095
-0.00986924
0.0112331
-0.0879972
-0.00948895
-0.0894234
0.0139256
0.0190119
-0.0877103
-0.0105571
-0.102883
-0.0896116
0.0168847
0.00243549
-0.00626957
0.0697819
-0.0859855
0.0179889
-0.020694
0.0746664
-0.0464799
0.0882841
-0.0885885
-0.00898296
-0.0117153
0.089178
-0.0903828
-0.0113495
-0.00920786
0.0929612
-0.0953929
-0.0111838
-0.0113068
0.0976941
-0.0997622
-0.0082122
-0.00959805
0.10115
-0.10148
-0.00255368
-0.00556981
0.100382
-0.0976726
0.00586804
0.00133772
0.0939412
-0.089635
0.0134502
0.00972853
0.0858102
-0.0825654
0.0154632
0.0146264
0.0801929
-0.0783396
0.013149
0.0140194
0.0769665
-0.0758283
0.00981659
0.0110736
0.0749346
-0.0741856
0.00606925
0.0077152
0.0736405
-0.0732953
0.00167532
0.00378603
0.073229
-0.0734772
-0.0028385
-0.000612681
0.0740274
-0.0748838
-0.00669712
-0.00470655
0.0759228
-0.0771687
-0.00967618
-0.00800433
0.0785037
-0.0800066
-0.0118054
-0.010469
0.0815524
-0.0832319
-0.0130678
-0.0121115
0.0849046
-0.0866661
-0.0134178
-0.0129005
0.0883601
-0.0900635
-0.0127775
-0.0127723
0.0916054
-0.093032
-0.0111149
-0.0116603
0.0941834
-0.0950552
-0.008558
-0.00959341
0.0955845
-0.0952858
-0.00554007
-0.00683023
0.0943754
-0.0927589
-0.00173913
-0.00395596
2.95478e-05
-0.0829299
0.0815959
-0.00941167
-0.0102571
-0.0807645
0.07973
-0.00785528
-0.00909273
-0.0786599
0.0781316
-0.00505527
-0.00656898
-0.0776888
0.0778434
-0.00123729
-0.00290827
-0.0784137
0.0795063
0.00297139
0.000756937
-0.081023
0.0830926
0.00674689
0.0046926
-0.0854191
0.088184
0.00908177
0.00770741
-0.0909878
0.0940031
0.00902096
0.00888863
-0.0966609
0.0989249
0.00587575
0.00740594
-0.100271
0.100729
0.000411593
0.0031203
-0.100325
0.0991989
-0.00509415
-0.00230291
-0.0976827
0.09579
-0.00930264
-0.00699946
-0.0938664
0.0917859
-0.0119089
-0.0102043
-0.0898349
0.0878183
-0.0131618
-0.0119855
-0.0859814
0.0841216
-0.0133479
-0.0126365
-0.0824455
0.0807422
-0.01264
-0.0123692
-0.0792098
0.0777079
-0.0111211
-0.0113228
-0.0764496
0.0752949
-0.00857774
-0.00943514
-0.0743395
0.0734379
-0.00501229
-0.00650077
-0.0727495
0.0723354
-0.000857375
-0.00280673
-0.0724024
0.0730811
0.00364955
0.0013021
-0.0743295
0.0751048
0.00838349
0.00566388
-0.0779708
0.0803204
0.0118789
0.0102591
0.0137566
0.0253567
-0.0271482
0.094121
0.0959336
0.0287003
-0.0314895
0.0946712
0.0942369
0.0341367
-0.0365769
0.0946609
0.0943214
0.038606
-0.0401519
0.0904381
0.0912726
0.0411048
-0.0414343
0.0848205
0.086251
0.0411547
-0.0403025
0.0793869
0.0806222
0.0389641
-0.037158
0.0752788
0.0758132
0.035017
-0.0325415
0.073134
0.0727307
0.0298999
-0.0271044
0.0728285
0.0715656
0.0243488
-0.021132
0.0740359
0.0720561
0.0174482
-0.011078
0.0759185
0.0737482
0.0702534
-0.0100898
-0.0986269
0.0689246
-0.0151251
0.00386782
-0.00558974
-0.0917114
-0.0897768
0.00430782
0.0133052
-0.0364185
-0.00621723
-0.046694
0.0320788
-0.0405952
-0.0167404
-0.0480331
0.0323097
-0.0572036
-0.0242345
-0.050987
-0.00745016
-0.0937466
0.0265027
-0.0669952
-0.0269621
-0.0560075
0.028219
-0.0723805
-0.0250001
-0.0640487
0.0274358
-0.0784853
-0.0200928
-0.0774938
-0.0088093
-0.0896575
0.0104696
-0.0880704
0.0863908
-0.00712967
0.00781859
-0.0894823
-0.00640673
-0.0912678
0.00942888
0.0259077
-0.0848951
-0.015414
-0.0941558
-0.0919637
0.0130099
0.0233873
-0.0883685
-0.0125078
-0.102139
-0.0922919
0.016606
0.0201459
-0.0909714
-0.0114964
-0.101477
0.0119741
-0.0159257
0.0728762
0.0603129
-0.0931728
0.0641433
0.0275392
-0.0299834
0.0846632
0.00486231
-0.00661204
-0.0899616
-0.0896772
0.0047627
0.00106082
0.0867913
-0.039392
0.082244
-0.0885799
-0.0106158
-0.0765884
-0.0136561
0.0751194
-0.0125019
0.0887603
-0.0884517
-0.00929153
-0.0115349
0.089017