/*--------------------------------*- C++ -*----------------------------------*\
  =========                 |
  \\      /  F ield         | OpenFOAM: The Open Source CFD Toolbox
   \\    /   O peration     | Website:  https://openfoam.org
    \\  /    A nd           | Version:  10
     \\/     M anipulation  |
\*---------------------------------------------------------------------------*/
FoamFile
{
    format      ascii;
    class       volVectorField;
    location    "24.5";
    object      U;
}
// * * * * * * * * * * * * * * * * * * * * * * * * * * * * * * * * * * * * * //

dimensions      [0 1 -1 0 0 0 0];

internalField   nonuniform List<vector> 
6397
(
(1.04172 -0.187401 1.16689e-20)
(1.04838 -0.199555 -5.50264e-20)
(1.00094 -0.240573 0)
(1.03355 -0.281022 1.61584e-22)
(1.05726 -0.351098 2.23483e-22)
(1.02551 -0.317953 6.07983e-22)
(0.784574 -0.512959 -4.63685e-20)
(0.467956 -0.729663 1.09805e-19)
(-0.0754551 -0.243009 1.78914e-20)
(-0.0962265 -0.233585 -5.78338e-21)
(0.504906 0.690774 6.86301e-20)
(0.818233 0.706477 -7.69349e-21)
(0.481136 0.0271178 1.64813e-21)
(0.549158 0.0149506 7.83062e-22)
(0.356688 0.0265648 -8.53105e-22)
(0.0729394 -0.0250657 -1.3393e-19)
(0.260856 -0.0567288 -7.35241e-20)
(-0.0257618 -0.0565631 6.19533e-20)
(0.326337 -0.0158548 5.59583e-20)
(0.443332 -0.199757 -1.70393e-19)
(0.543692 -0.0427755 -8.88645e-20)
(0.0712367 -0.0658331 -7.24147e-20)
(-0.116229 -0.0878224 3.23621e-21)
(0.322685 -0.0771355 -5.01282e-20)
(0.694249 0.0124153 0)
(0.694473 0.0114968 -9.20489e-22)
(0.836424 0.0128306 -4.14591e-22)
(0.953954 0.113903 1.17933e-20)
(0.952031 0.256802 -2.80058e-21)
(0.933473 -0.044362 5.20042e-21)
(0.922642 0.0958204 -7.71722e-21)
(1.10085 -0.308174 1.56243e-21)
(1.07047 -0.276591 9.12646e-22)
(1.06465 -0.31499 -2.54167e-21)
(1.16273 -0.289961 5.65337e-22)
(1.13084 -0.264811 0)
(1.13652 -0.301025 -4.12223e-22)
(1.10447 -0.272109 -1.07114e-21)
(1.14685 -0.24602 1.95789e-21)
(1.17397 -0.258288 -1.21676e-21)
(1.17585 -0.276545 0)
(1.14414 -0.253537 0)
(0.950414 -0.175714 -2.26258e-21)
(0.980455 -0.345406 -4.72662e-22)
(0.949486 -0.288315 4.88601e-22)
(0.993017 -0.275909 6.93248e-22)
(1.01813 -0.353434 -1.78066e-22)
(0.985941 -0.311214 4.83293e-22)
(1.24907 -0.162138 1.89387e-21)
(1.24296 -0.138486 -3.91705e-22)
(1.26205 -0.09733 5.0567e-21)
(1.23655 -0.0842044 -1.65296e-21)
(1.24207 -0.0966194 -1.15172e-20)
(0.985794 0.186354 -8.09379e-21)
(1.02944 0.215051 5.32464e-21)
(1.03237 0.0514124 4.9197e-21)
(1.03788 0.0642103 4.95411e-21)
(1.15203 -0.0205312 -3.39857e-21)
(1.05347 0.490813 -2.38467e-21)
(1.03709 0.494027 2.40233e-21)
(1.06285 0.502718 2.34737e-21)
(1.06672 0.524099 -2.311e-21)
(1.06689 0.538651 -3.28664e-21)
(1.06236 0.536575 3.2303e-21)
(1.04834 0.507948 0)
(1.02162 0.442951 6.13915e-21)
(0.983212 0.326659 -6.46198e-21)
(0.938471 0.155576 0)
(1.04643 0.508828 -2.65298e-21)
(1.01429 0.504131 1.72385e-23)
(1.03133 0.523661 2.51074e-21)
(1.05538 0.500663 0)
(1.05722 0.50806 0)
(1.05181 0.524353 0)
(1.04104 0.532678 -1.02822e-23)
(1.0245 0.520042 1.70171e-24)
(0.999339 0.477112 0)
(0.963237 0.395442 -5.65941e-25)
(0.91924 0.26732 0)
(0.873277 0.091903 0)
(1.01456 0.521697 -4.16955e-21)
(0.990737 0.498798 2.37924e-22)
(0.89632 -0.0570975 0)
(0.836259 -0.11242 0)
(1.00039 0.483514 -8.24531e-22)
(0.970077 0.459151 0)
(0.864175 -0.275719 0)
(0.814761 -0.310399 0)
(0.989999 0.40003 1.06155e-20)
(0.956726 0.376503 -1.11646e-21)
(0.849957 -0.455856 0)
(0.816859 -0.461553 0)
(0.986986 0.277854 -8.74977e-21)
(0.990895 0.126258 -6.76232e-21)
(0.859931 -0.559775 0)
(0.840649 -0.540099 4.33125e-22)
(1.02665 0.421684 0)
(1.03607 0.130285 1.34964e-20)
(1.02756 0.293976 8.70287e-22)
(1.03993 0.537274 -3.13498e-21)
(1.03008 0.505033 0)
(1.05592 0.514918 -1.06071e-21)
(1.0487 0.534498 3.158e-21)
(1.05029 0.503009 1.05123e-21)
(1.05688 0.501384 8.722e-22)
(1.0154 0.514138 1.02995e-23)
(1.03583 0.512781 -1.10218e-21)
(0.956818 0.439064 -3.33696e-22)
(0.989534 0.492901 -1.75634e-21)
(0.871307 0.213873 -2.01711e-21)
(0.916841 0.347698 3.94988e-21)
(0.794306 -0.151258 0)
(0.827504 0.041821 0)
(0.797913 -0.44883 0)
(0.78337 -0.326985 0)
(0.834521 -0.502798 -7.30567e-22)
(0.930831 -0.223671 -7.88082e-21)
(0.891237 -0.563553 -2.49707e-21)
(0.90219 -0.427928 7.77749e-21)
(1.0169 0.219717 8.72063e-21)
(0.973751 0.0077845 -8.52343e-21)
(1.08386 0.478924 4.50075e-23)
(1.05863 0.380646 2.16177e-22)
(1.09917 0.540079 0)
(1.09912 0.526146 0)
(1.08037 0.512781 2.15716e-21)
(1.0918 0.532072 3.30261e-22)
(1.05137 0.472992 3.5291e-22)
(1.06762 0.48723 -2.14566e-21)
(1.0014 0.477587 1.41292e-21)
(1.02929 0.470617 -1.35351e-22)
(0.946251 0.429771 -3.77587e-21)
(0.971416 0.469867 -1.29749e-21)
(0.920626 0.23246 0)
(0.92798 0.346852 4.38513e-21)
(1.00752 -0.038097 -6.41423e-21)
(0.965206 -0.0370772 -2.27422e-23)
(1.05292 -0.0412648 3.77661e-21)
(0.885107 -0.508309 -8.29693e-22)
(0.881607 -0.555128 2.21023e-22)
(0.933044 -0.552095 -4.68385e-23)
(0.901408 -0.614405 2.5004e-21)
(0.924865 -0.622202 0)
(0.93391 -0.49925 4.98415e-22)
(0.895779 -0.454238 -5.81529e-22)
(0.945436 -0.455349 5.78184e-22)
(0.907796 -0.0475303 2.37282e-21)
(1.083 0.12483 -7.18607e-21)
(1.10411 -0.0585771 -3.61558e-21)
(0.924196 -0.168273 2.22176e-21)
(0.887174 -0.591981 9.96149e-23)
(1.06812 0.423271 0)
(1.07213 0.29156 -1.56345e-21)
(1.06652 0.539633 9.22678e-23)
(1.06502 0.506914 0)
(1.06572 0.511841 -4.20454e-22)
(1.06561 0.535411 7.45963e-22)
(1.046 0.488307 0)
(1.05883 0.49353 9.94847e-23)
(0.99631 0.487309 0)
(1.0242 0.491635 5.98371e-23)
(0.924599 0.400884 0)
(0.962935 0.46087 1.59555e-22)
(0.83667 0.16932 -5.84778e-23)
(0.881879 0.304641 1.9227e-22)
(0.76983 -0.170756 1.15062e-22)
(0.796301 0.00535021 -2.16662e-22)
(0.792705 -0.416667 -1.29237e-23)
(0.767786 -0.321737 -4.40093e-23)
(0.839154 -0.452899 2.92665e-22)
(1.00832 -0.170633 1.40489e-22)
(0.962399 -0.393005 1.16975e-22)
(1.10572 0.276705 -8.31938e-24)
(1.06043 0.0691235 0)
(1.1482 0.503374 0)
(1.13596 0.422458 -1.07879e-22)
(1.13389 0.532332 0)
(1.14694 0.532371 0)
(1.09319 0.49383 -1.79043e-24)
(1.11458 0.517408 -3.35049e-22)
(1.05063 0.44795 -2.23367e-22)
(1.07313 0.467164 0)
(0.991129 0.444528 -9.9033e-22)
(1.02376 0.441823 0)
(0.927806 0.39995 9.65552e-23)
(0.957555 0.436568 9.92093e-22)
(0.896208 0.210117 3.14273e-24)
(0.906503 0.323394 4.48957e-22)
(0.897861 0.0816451 -2.25738e-21)
(1.02247 -0.187413 1.56795e-21)
(0.982392 -0.17785 0)
(1.11445 -0.219333 1.63328e-21)
(1.06544 -0.201339 -1.44832e-21)
(0.93256 -0.617937 0)
(0.924431 -0.604085 0)
(0.927251 -0.541396 -2.72845e-22)
(0.911823 -0.400229 -6.70019e-23)
(0.958166 -0.413031 0)
(0.981706 -0.478255 -7.75233e-23)
(0.970005 -0.509896 2.28694e-23)
(0.948522 -0.618647 0)
(0.943435 -0.583717 0)
(0.946617 -0.584032 -5.09609e-22)
(0.971341 -0.290482 2.57968e-21)
(0.946114 -0.275586 0)
(1.12504 -0.346179 -3.09881e-21)
(1.16217 -0.230545 -2.45383e-23)
(1.17083 -0.350733 6.7564e-21)
(0.905955 -0.157266 0)
(0.888158 -0.0423308 -1.35983e-21)
(0.924096 -0.577908 0)
(1.13616 0.11396 8.39221e-22)
(1.15555 -0.0668964 0)
(1.11198 0.419497 1.90853e-23)
(1.12377 0.28535 3.16019e-23)
(1.09436 0.536561 -2.01019e-22)
(1.10297 0.504853 0)
(1.07616 0.50259 1.40633e-24)
(1.08539 0.529063 -1.55405e-22)
(1.04326 0.467037 -7.89498e-25)
(1.06218 0.479209 -1.00362e-22)
(0.981385 0.452684 1.48937e-22)
(1.01524 0.463502 0)
(0.898705 0.357239 0)
(0.941491 0.421397 -1.51794e-22)
(0.810247 0.12714 -9.09279e-23)
(0.853732 0.25913 4.08595e-23)
(0.756297 -0.17934 0)
(0.774776 -0.025246 -1.20591e-23)
(0.798764 -0.374124 -3.52902e-23)
(0.763885 -0.30261 9.31108e-23)
(0.853634 -0.398 7.09063e-23)
(0.985223 -0.525464 -8.00272e-22)
(0.958051 -0.611934 1.85391e-24)
(1.0941 -0.117436 -3.92144e-22)
(1.03376 -0.349026 1.36551e-21)
(1.19124 0.310623 1.4463e-22)
(1.15006 0.117507 -1.07377e-21)
(1.20533 0.501077 0)
(1.20803 0.437126 1.06173e-21)
(1.16499 0.510023 0)
(1.18927 0.518062 0)
(1.10688 0.469705 3.06572e-24)
(1.13585 0.492386 0)
(1.0547 0.421963 0)
(1.08034 0.443988 0)
(0.989412 0.410402 0)
(1.02486 0.411124 0)
(0.916347 0.37236 5.24702e-22)
(0.950789 0.403374 0)
(0.879839 0.200997 -3.11241e-24)
(0.891757 0.304737 -5.36055e-22)
(0.878705 0.0796493 1.54407e-21)
(1.03904 -0.318044 1.4607e-21)
(1.00191 -0.302465 -2.41596e-21)
(1.07951 -0.332688 3.18532e-21)
(0.992644 -0.445181 2.15249e-22)
(0.945228 -0.577281 0)
(0.961364 -0.537861 3.31239e-22)
(0.939082 -0.545685 5.21805e-22)
(0.940245 -0.56141 0)
(1.01235 -0.513933 8.07466e-23)
(0.994846 -0.541414 3.30172e-22)
(1.13082 -0.42859 1.20548e-22)
(1.17007 -0.424403 1.19445e-22)
(0.993147 -0.384661 2.08535e-21)
(0.971877 -0.365595 1.59969e-21)
(0.877993 -0.0334477 8.97112e-22)
(0.895864 -0.142008 0)
(1.21236 -0.23464 7.73217e-22)
(1.21557 -0.345782 5.74829e-22)
(1.02794 -0.479436 -2.15897e-22)
(1.06894 -0.508178 -7.03959e-23)
(1.04604 -0.546933 -7.78935e-22)
(0.928736 -0.257473 3.82619e-22)
(0.95337 -0.56137 0)
(1.18924 0.0994748 7.67473e-22)
(1.20677 -0.0794952 -3.09254e-21)
(1.15544 0.4081 -6.38793e-22)
(1.17268 0.271346 1.72988e-21)
(1.12191 0.523715 0)
(1.13915 0.492477 0)
(1.08705 0.487749 -5.53818e-25)
(1.10448 0.51579 -9.00533e-29)
(1.04196 0.441639 7.82443e-25)
(1.06681 0.459902 0)
(0.970371 0.413631 0)
(1.00918 0.430363 4.51129e-31)
(0.879343 0.312273 0)
(0.925565 0.377663 0)
(0.791795 0.0896308 0)
(0.832831 0.214577 0)
(0.752369 -0.17905 0)
(0.761638 -0.0491192 0)
(0.815031 -0.32488 0)
(0.770459 -0.275109 0)
(0.927351 -0.351068 -3.11659e-24)
(0.873778 -0.340763 0)
(1.00134 -0.410673 0)
(0.967458 -0.375604 1.79938e-23)
(1.08641 -0.463603 0)
(1.0416 -0.439167 3.82287e-23)
(0.961357 -0.608925 -1.66217e-22)
(0.927572 -0.529144 5.82448e-23)
(0.944293 -0.577017 1.66936e-22)
(1.04433 -0.480389 3.13025e-22)
(0.992995 -0.586216 -1.85328e-24)
(1.18385 -0.0581876 -2.62783e-22)
(1.11156 -0.292529 -4.17933e-22)
(1.27153 0.334395 -1.09719e-24)
(1.2408 0.163492 0)
(1.25545 0.486087 0)
(1.27392 0.439092 0)
(1.19075 0.479758 0)
(1.2256 0.493064 0)
(1.11865 0.439371 -4.96642e-25)
(1.15412 0.460293 0)
(1.05766 0.393666 0)
(1.08681 0.415953 0)
(0.990389 0.37314 0)
(1.02663 0.378835 0)
(0.912554 0.340718 1.22438e-22)
(0.950173 0.36604 -1.27342e-22)
(0.868335 0.192786 2.37654e-22)
(0.883462 0.282047 -1.69315e-23)
(0.867436 0.0812271 -1.28294e-21)
(1.05285 -0.414943 -1.78352e-21)
(1.01942 -0.399748 -2.23218e-21)
(1.09043 -0.423809 0)
(0.912303 -0.520882 0)
(0.897524 -0.48504 -8.64326e-23)
(1.11295 -0.535896 9.96862e-22)
(1.13292 -0.489255 0)
(0.948769 -0.571701 0)
(0.979782 -0.560528 0)
(1.2062 -0.412392 0)
(0.955994 -0.341678 -2.73866e-21)
(0.87284 -0.0242912 3.66247e-22)
(0.892119 -0.12625 0)
(0.917887 -0.557054 3.49927e-23)
(1.01729 -0.576976 -4.08772e-22)
(0.847851 -0.440009 -1.47979e-22)
(0.864633 -0.497153 -1.84924e-24)
(1.08368 -0.573526 8.56148e-22)
(1.15563 -0.565039 5.76335e-22)
(1.1818 -0.516128 0)
(0.920178 -0.235265 2.33539e-21)
(0.965431 -0.570645 0)
(1.25979 -0.237239 -2.55717e-21)
(1.23733 -0.395502 -6.99664e-22)
(1.25553 -0.338169 -5.31269e-21)
(1.23888 0.0825542 -1.02097e-21)
(1.25551 -0.0910038 2.64733e-21)
(1.19436 0.389529 0)
(1.2189 0.252528 6.03155e-22)
(1.14532 0.503172 1.33542e-28)
(1.17088 0.472775 -1.38862e-28)
(1.09571 0.465764 -6.29556e-25)
(1.12055 0.494296 0)
(1.04083 0.411658 0)
(1.07014 0.434991 0)
(0.963315 0.371138 7.91696e-25)
(1.00517 0.393611 -4.51121e-31)
(0.867659 0.26601 -2.40237e-29)
(0.916041 0.331543 2.49423e-29)
(0.782986 0.0568533 0)
(0.821131 0.171972 0)
(0.76049 -0.169435 -7.65249e-25)
(0.759636 -0.0644288 0)
(0.83996 -0.272456 1.1014e-24)
(0.789472 -0.239291 0)
(0.938775 -0.308992 1.96336e-23)
(0.894992 -0.288162 0)
(1.00869 -0.37248 -1.68745e-22)
(0.972961 -0.341334 -3.80169e-23)
(1.09682 -0.415953 -2.07342e-24)
(1.05162 -0.395372 1.29737e-22)
(1.19484 -0.459292 6.71433e-22)
(1.1431 -0.43844 2.00733e-24)
(0.898247 -0.506096 -1.82322e-22)
(0.806892 -0.387239 1.26683e-22)
(0.859161 -0.448804 1.96105e-22)
(0.974314 -0.574771 1.64321e-22)
(0.932785 -0.554655 -4.81832e-23)
(1.10826 -0.414464 -5.67875e-22)
(1.03067 -0.536596 -9.54604e-23)
(1.2747 0.00479077 0)
(1.19569 -0.219548 6.93922e-22)
(1.34106 0.345192 -1.10537e-23)
(1.32524 0.20355 -3.89147e-28)
(1.29277 0.455838 0)
(1.32653 0.424657 0)
(1.20819 0.441036 -1.12259e-24)
(1.25091 0.45599 0)
(1.12777 0.404508 -8.21405e-25)
(1.16673 0.422525 0)
(1.06153 0.363777 0)
(1.0926 0.384768 0)
(0.994601 0.33654 0)
(1.03001 0.346179 0)
(0.914677 0.30657 0)
(0.95411 0.327568 0)
(0.865101 0.181119 0)
(0.882551 0.258416 1.42442e-23)
(0.861948 0.0817183 -2.72086e-22)
(0.779538 -0.380011 2.09498e-22)
(0.742731 -0.312954 0)
(1.2353 -0.536385 1.8577e-22)
(1.25227 -0.474669 -9.72641e-22)
(0.947906 -0.315416 0)
(0.92012 -0.213982 -1.36022e-22)
(0.985631 -0.404964 -1.31709e-21)
(0.979797 -0.3763 8.13158e-22)
(1.01336 -0.449732 1.04764e-21)
(0.996779 -0.428802 -2.50265e-22)
(1.06195 -0.475523 5.34919e-23)
(1.03458 -0.464791 -9.22954e-22)
(1.12568 -0.475585 -2.02083e-21)
(1.0929 -0.47872 2.84009e-22)
(1.18662 -0.443482 0)
(1.15747 -0.46313 1.76137e-21)
(1.21133 -0.418198 1.13747e-21)
(0.935887 -0.58374 -3.52789e-23)
(0.989981 -0.593414 -2.21375e-28)
(0.876676 -0.551436 1.8564e-24)
(1.04231 -0.602075 0)
(0.800827 -0.451577 0)
(1.1156 -0.598711 0)
(0.676265 -0.218604 -1.18154e-22)
(0.702856 -0.287531 -5.52389e-24)
(1.19694 -0.584969 -1.47544e-21)
(1.3115 -0.482784 4.55899e-22)
(1.28786 -0.541348 2.17835e-21)
(1.26182 -0.37143 1.26136e-21)
(1.2311 -0.386582 -8.23406e-22)
(0.963991 -0.595644 -2.38325e-28)
(1.29965 -0.234855 6.18714e-23)
(1.28843 -0.324078 -8.23503e-22)
(1.28218 0.0641028 -3.84121e-22)
(1.29894 -0.101367 0)
(1.22651 0.36432 1.77045e-28)
(1.25642 0.229324 4.58671e-22)
(1.16544 0.475185 0)
(1.19636 0.445613 0)
(1.1049 0.437876 -2.11537e-25)
(1.13496 0.466096 0)
(1.04329 0.378319 0)
(1.07536 0.405569 0)
(0.962531 0.326248 -2.22201e-24)
(1.00607 0.354375 0)
(0.863829 0.217972 -1.48954e-24)
(0.913736 0.283103 0)
(0.783977 0.0281706 0)
(0.817978 0.129826 0)
(0.782827 -0.149197 -8.06172e-25)
(0.769954 -0.0711661 0)
(0.869997 -0.222365 5.89385e-25)
(0.82067 -0.196815 0)
(0.948461 -0.275064 -1.60719e-24)
(0.914549 -0.244763 9.01786e-29)
(1.01671 -0.333138 -4.23133e-25)
(0.979746 -0.307819 0)
(1.10057 -0.370162 5.87172e-23)
(1.05861 -0.351898 -1.14676e-22)
(1.1958 -0.403345 -2.77914e-22)
(1.1453 -0.38877 1.06332e-22)
(1.30923 -0.416649 6.21111e-22)
(1.2508 -0.412692 -3.44848e-22)
(0.770876 -0.334654 -8.52924e-23)
(0.683795 -0.174626 1.23512e-22)
(0.721683 -0.257841 0)
(0.87385 -0.461682 5.14665e-23)
(0.821799 -0.402946 -1.33167e-22)
(0.996964 -0.512974 -5.91103e-24)
(0.928839 -0.506044 7.64718e-24)
(1.18433 -0.324666 1.15258e-24)
(1.08275 -0.45724 -1.56308e-23)
(1.3597 0.0651695 0)
(1.28401 -0.135151 0)
(1.39147 0.338812 4.80936e-24)
(1.39504 0.229947 -5.70773e-28)
(1.31411 0.414077 3.16822e-28)
(1.36006 0.39482 -3.3536e-28)
(1.2174 0.398201 6.9917e-25)
(1.2645 0.411507 0)
(1.13378 0.3675 0)
(1.17405 0.382283 0)
(1.06473 0.333326 -4.78795e-25)
(1.09708 0.351798 0)
(1.00075 0.300484 0)
(1.03399 0.314587 0)
(0.92313 0.271102 -4.33279e-25)
(0.962339 0.289237 0)
(0.868165 0.168055 3.56783e-25)
(0.889087 0.232203 2.53876e-24)
(0.873388 -0.0147785 -1.60437e-22)
(0.863107 0.0807631 0)
(0.922562 -0.189837 -2.22975e-22)
(0.893571 -0.108478 2.92142e-22)
(0.954005 -0.256664 -3.47254e-22)
(1.01365 -0.444334 0)
(1.01216 -0.386902 -6.46622e-22)
(1.00948 -0.41665 -1.84531e-22)
(1.03066 -0.48488 0)
(1.01968 -0.466549 0)
(1.06689 -0.503411 -8.31797e-22)
(1.04611 -0.497283 -2.01008e-28)
(1.11538 -0.49178 4.67299e-22)
(1.09021 -0.501409 1.46252e-21)
(1.16124 -0.450237 0)
(1.13954 -0.474002 -1.03982e-21)
(0.623569 -0.107688 1.45505e-24)
(0.673363 -0.0932031 -1.61372e-22)
(1.36937 -0.474286 -2.4314e-21)
(1.36992 -0.409748 -2.87482e-21)
(1.19228 -0.388474 -4.28263e-22)
(1.179 -0.421466 2.00856e-22)
(0.909751 -0.589905 -3.68891e-27)
(0.998187 -0.615657 0)
(0.825197 -0.517267 0)
(1.06006 -0.617487 -1.40487e-26)
(0.728966 -0.365751 3.16548e-25)
(1.1385 -0.611284 -6.90858e-22)
(0.628976 -0.161743 -1.80122e-24)
(1.23224 -0.578479 0)
(0.698253 -0.028649 -1.25455e-21)
(0.603635 0.000989635 5.67382e-24)
(1.32917 -0.52086 -3.16857e-21)
(1.42708 -0.385034 3.13355e-21)
(1.41646 -0.435379 9.27927e-22)
(0.826446 -0.0730565 1.19227e-21)
(0.754701 0.0147109 1.25896e-21)
(0.862655 -0.0296834 1.26671e-21)
(1.47179 -0.336439 2.57051e-21)
(1.40105 -0.322497 -1.71485e-21)
(1.44886 -0.286522 -4.14083e-22)
(1.2004 -0.352328 1.26476e-22)
(1.15685 -0.376066 0)
(1.16543 -0.340301 -1.63827e-22)
(0.955045 -0.611252 -3.52029e-28)
(1.27821 -0.341623 -1.70163e-22)
(1.2439 -0.351573 4.0661e-23)
(1.32929 -0.227768 7.19344e-22)
(1.31278 -0.303128 1.68272e-22)
(1.31617 0.0429997 0)
(1.33333 -0.109502 0)
(1.24874 0.332946 0)
(1.2856 0.200878 0)
(1.1793 0.443032 0)
(1.21324 0.413665 0)
(1.11382 0.406319 0)
(1.14656 0.43399 0)
(1.0461 0.342655 -1.493e-28)
(1.08124 0.373241 1.55124e-28)
(0.960465 0.279089 1.43011e-24)
(1.0063 0.313028 2.08885e-28)
(0.861193 0.169722 1.48954e-24)
(0.910482 0.232676 0)
(0.795576 0.00864934 0)
(0.820002 0.0915595 0)
(0.819424 -0.11911 -5.9245e-25)
(0.795191 -0.0653165 0)
(0.899017 -0.181244 4.34128e-25)
(0.859034 -0.153799 0)
(0.95845 -0.245673 1.60709e-24)
(0.931093 -0.21209 0)
(1.02536 -0.295036 3.13665e-24)
(0.989301 -0.274317 1.18601e-28)
(1.10148 -0.328441 1.12566e-22)
(1.06315 -0.312118 0)
(1.19029 -0.351757 -2.81296e-23)
(1.14394 -0.34237 -1.40523e-22)
(1.29268 -0.35518 -1.57183e-22)
(1.23991 -0.356114 1.57725e-22)
(1.34727 -0.34418 1.53803e-21)
(0.77352 -0.168145 6.88648e-22)
(0.791924 -0.116484 -1.86497e-21)
(0.803076 -0.28863 2.31701e-24)
(0.777174 -0.227158 8.13129e-23)
(0.900283 -0.397883 4.45108e-22)
(0.844196 -0.347885 -4.70785e-22)
(1.05899 -0.422273 8.26234e-25)
(0.9709 -0.429371 -7.76681e-24)
(1.27569 -0.221806 -1.15205e-24)
(1.16395 -0.354477 -2.32213e-28)
(1.42834 0.111552 0)
(1.37084 -0.0523188 0)
(1.41626 0.314327 -6.6505e-28)
(1.44023 0.236764 7.03775e-28)
(1.31902 0.364488 0)
(1.37161 0.352058 0)
(1.21892 0.353656 6.48483e-25)
(1.26675 0.362812 0)
(1.13685 0.330079 0)
(1.17619 0.341683 0)
(1.06753 0.302846 4.78795e-25)
(1.10036 0.317939 0)
(1.00732 0.267565 0)
(1.03772 0.284609 0)
(0.935822 0.235612 -4.51143e-25)
(0.972976 0.252987 1.84535e-28)
(0.878424 0.153485 -3.46885e-25)
(0.901715 0.205179 0)
(0.877918 -0.00311877 0)
(0.870738 0.0797588 -8.0725e-26)
(0.926126 -0.162631 -2.37843e-22)
(0.898099 -0.0867206 -6.28969e-25)
(0.960038 -0.223826 -2.87872e-22)
(1.0425 -0.415404 -8.97702e-22)
(1.04953 -0.384588 3.82586e-22)
(1.03715 -0.467771 0)
(1.03691 -0.442661 0)
(1.04427 -0.500757 -8.04951e-26)
(1.03864 -0.486642 -1.56877e-28)
(1.06671 -0.509514 -9.39513e-26)
(1.05346 -0.508539 -1.72003e-28)
(1.09926 -0.48969 -6.29814e-23)
(1.08208 -0.503123 -2.93681e-28)
(1.13242 -0.44248 -2.36428e-22)
(1.11616 -0.469261 3.34648e-22)
(1.14604 -0.410684 1.46487e-22)
(0.874696 -0.566285 6.53593e-27)
(0.998387 -0.619017 -2.52872e-27)
(0.764687 -0.439079 0)
(1.06275 -0.614744 1.5615e-26)
(0.653972 -0.235869 -7.79823e-26)
(1.14909 -0.588389 6.91975e-22)
(0.572595 -0.0167391 8.25034e-24)
(1.24879 -0.533708 2.14139e-22)
(0.632927 0.0819435 2.35481e-23)
(1.34924 -0.455789 0)
(0.8872 0.023108 -1.41296e-21)
(0.81562 0.0510466 0)
(1.43742 -0.358658 1.59751e-21)
(1.48298 -0.232647 -2.63553e-21)
(1.49143 -0.256908 -2.40004e-21)
(0.931299 0.0146876 2.65583e-24)
(0.903395 0.0855954 -1.96225e-21)
(0.93977 0.0722722 -1.6265e-23)
(1.49557 -0.162197 3.49166e-22)
(1.435 -0.1958 -8.94451e-22)
(1.45419 -0.144647 -6.41108e-22)
(1.1201 -0.361716 0)
(1.12534 -0.329269 -1.40477e-21)
(1.20203 -0.314213 5.59974e-22)
(1.1709 -0.301024 -5.85264e-22)
(0.937653 -0.599928 2.16665e-27)
(1.28541 -0.306393 -1.41019e-22)
(1.24958 -0.312821 1.82159e-23)
(1.34865 -0.214679 -1.44854e-23)
(1.32616 -0.275385 3.80807e-23)
(1.34139 0.0186448 3.23957e-25)
(1.35751 -0.11517 -6.39874e-28)
(1.26065 0.294484 0)
(1.30617 0.165469 0)
(1.17775 0.409293 0)
(1.21645 0.377573 0)
(1.10861 0.372911 1.68959e-24)
(1.14289 0.400963 0)
(1.03487 0.304092 0)
(1.07328 0.338174 0)
(0.94692 0.231524 0)
(0.992745 0.269563 0)
(0.859833 0.128624 0)
(0.900771 0.184902 0)
(0.823351 0.00442878 0)
(0.831931 0.0656199 0)
(0.863649 -0.0864327 2.16387e-24)
(0.836076 -0.0470912 0)
(0.921988 -0.152355 3.13217e-25)
(0.895127 -0.119174 5.92595e-28)
(0.970024 -0.217934 0)
(0.945078 -0.186891 0)
(1.03255 -0.260708 2.78725e-25)
(0.999968 -0.242005 -1.18601e-28)
(1.10079 -0.290697 1.33889e-24)
(1.06584 -0.276893 4.11348e-28)
(1.1798 -0.306459 1.00322e-22)
(1.1391 -0.300766 1.35092e-25)
(1.26935 -0.302952 -2.70103e-23)
(1.22369 -0.307679 -7.5292e-23)
(1.3613 -0.269259 2.46525e-22)
(1.31624 -0.290492 -1.12925e-22)
(1.40233 -0.238105 1.09455e-21)
(0.921268 -0.0932727 1.69084e-22)
(0.926631 -0.0421816 -2.5086e-23)
(0.902501 -0.18073 -2.08933e-23)
(0.910204 -0.138416 0)
(0.917329 -0.262679 -2.29071e-24)
(0.902292 -0.221628 -8.23408e-23)
(1.00212 -0.333001 0)
(0.950236 -0.301206 0)
(1.16516 -0.323114 3.63166e-25)
(1.0739 -0.346267 0)
(1.36744 -0.127569 0)
(1.26877 -0.248517 0)
(1.46489 0.132787 0)
(1.43736 0.0100724 0)
(1.41328 0.275352 3.34623e-25)
(1.45208 0.22147 0)
(1.31011 0.313448 0)
(1.36281 0.302618 0)
(1.21465 0.310606 -2.25062e-25)
(1.26007 0.314902 0)
(1.13723 0.294103 -1.0836e-24)
(1.17425 0.302871 0)
(1.07017 0.272702 -1.22352e-24)
(1.10248 0.284636 7.56149e-29)
(1.01363 0.238148 -1.26716e-24)
(1.04125 0.256502 -5.73618e-28)
(0.951218 0.20217 -3.62353e-25)
(0.984171 0.220406 0)
(0.8938 0.136569 0)
(0.919081 0.176838 0)
(0.886854 0.00848477 0)
(0.882623 0.0783316 8.08647e-26)
(0.932351 -0.134256 4.50355e-22)
(0.904781 -0.0646553 6.17809e-25)
(0.966256 -0.192084 -4.05768e-22)
(1.08785 -0.378401 0)
(1.09572 -0.344822 9.33293e-22)
(1.06974 -0.440352 5.95618e-22)
(1.07872 -0.410348 1.26305e-22)
(1.05649 -0.486774 1.28774e-25)
(1.06111 -0.465707 2.2204e-28)
(1.05259 -0.510575 1.58092e-25)
(1.05285 -0.501381 2.984e-28)
(1.06107 -0.507939 -3.00516e-28)
(1.05515 -0.512654 3.0556e-28)
(1.08011 -0.478789 -9.50926e-23)
(1.06945 -0.496437 2.37679e-28)
(1.10312 -0.426732 2.35374e-22)
(1.09162 -0.455229 9.68967e-23)
(1.11264 -0.395201 7.46027e-23)
(0.826031 -0.500546 0)
(0.980189 -0.596153 9.40792e-28)
(0.693911 -0.313543 0)
(1.04682 -0.571052 -1.1798e-25)
(0.582082 -0.0708048 2.10563e-25)
(1.13569 -0.515914 -1.99147e-24)
(0.55449 0.1183 -5.10485e-24)
(1.23443 -0.435306 9.35829e-24)
(0.707583 0.122875 -3.2466e-23)
(1.33311 -0.34019 2.02384e-23)
(0.857091 0.102954 0)
(1.41926 -0.243954 1.91338e-21)
(0.957799 0.124826 -1.59231e-21)
(0.923765 0.148503 3.5444e-21)
(1.47763 -0.156421 -5.89276e-23)
(1.45633 -0.0869576 6.61917e-22)
(1.48424 -0.0826613 2.41577e-21)
(1.1299 -0.301039 -5.15085e-22)
(0.901803 -0.554436 -5.77547e-27)
(1.20033 -0.272672 -7.33393e-22)
(1.12084 -0.260983 6.04059e-21)
(1.16835 -0.269975 -3.8216e-21)
(1.28525 -0.267024 -2.54105e-23)
(1.24673 -0.274888 6.68484e-22)
(1.35642 -0.196243 1.44667e-23)
(1.32702 -0.244051 5.29143e-23)
(1.35923 -0.00613781 5.49298e-24)
(1.37023 -0.117522 -1.2458e-23)
(1.26986 0.245166 -1.0797e-24)
(1.3229 0.123058 2.22459e-28)
(1.16294 0.369677 -1.86212e-24)
(1.21277 0.331722 -6.69441e-28)
(1.08352 0.337935 5.96371e-25)
(1.12089 0.365505 0)
(1.00877 0.264591 0)
(1.0467 0.301444 0)
(0.931744 0.190017 -2.80914e-24)
(0.969911 0.227861 0)
(0.873494 0.103315 1.33751e-27)
(0.8981 0.14844 -1.38867e-27)
(0.866968 0.0132468 1.36565e-27)
(0.862759 0.0569223 -1.41742e-27)
(0.902974 -0.0615201 -1.34321e-27)
(0.882863 -0.0257301 1.39367e-27)
(0.939153 -0.1323 -5.10476e-24)
(0.921965 -0.0969253 1.32369e-27)
(0.981578 -0.191584 2.47316e-24)
(0.958264 -0.164771 1.23138e-27)
(1.03665 -0.230421 2.16955e-25)
(1.00842 -0.212845 0)
(1.09782 -0.256721 1.92479e-24)
(1.0662 -0.245194 9.62881e-28)
(1.16765 -0.267939 1.15971e-24)
(1.13182 -0.264374 0)
(1.24398 -0.260423 4.96009e-23)
(1.20542 -0.267009 0)
(1.32037 -0.227585 1.14841e-22)
(1.28288 -0.24766 -1.61206e-22)
(1.3799 -0.165507 0)
(1.35326 -0.199848 1.70414e-23)
(1.40279 -0.0824005 3.93408e-22)
(1.39703 -0.1254 -4.16949e-22)
(0.964205 0.0141938 1.46147e-22)
(0.985697 0.106749 9.63922e-22)
(0.970648 0.0627396 -9.30292e-22)
(0.9755 -0.0883136 4.06927e-23)
(0.966401 -0.0375411 4.92994e-24)
(0.999482 -0.176638 0)
(0.986114 -0.134905 0)
(1.04091 -0.240845 -2.49544e-24)
(1.01644 -0.211648 0)
(1.12663 -0.276693 0)
(1.07673 -0.263411 0)
(1.27228 -0.235121 -1.18937e-24)
(1.19237 -0.271556 0)
(1.42334 -0.0614556 0)
(1.35535 -0.161543 0)
(1.45885 0.127969 0)
(1.45899 0.0411911 0)
(1.38823 0.230317 -1.06073e-24)
(1.43109 0.190267 0)
(1.29253 0.265636 0)
(1.34017 0.253537 0)
(1.20668 0.270602 -9.48595e-28)
(1.24779 0.270606 1.00436e-27)
(1.13555 0.260555 1.0824e-24)
(1.16958 0.266748 1.26649e-27)
(1.07287 0.243401 2.73924e-24)
(1.10348 0.252967 1.33336e-27)
(1.01936 0.212283 -2.72372e-25)
(1.0449 0.229887 0)
(0.96715 0.172549 1.24801e-24)
(0.994377 0.192795 -1.46213e-27)
(0.913885 0.117822 1.31822e-27)
(0.938933 0.149351 -1.39789e-27)
(0.898675 0.0172503 0)
(0.899208 0.0729549 0)
(0.937885 -0.105602 -9.92761e-23)
(0.912577 -0.0444764 1.61274e-22)
(1.00475 -0.203976 0)
(0.96994 -0.159596 -1.74894e-23)
(1.03822 -0.243287 0)
(1.11852 -0.404985 0)
(1.1319 -0.336023 -1.56545e-22)
(1.12748 -0.371938 -1.96563e-22)
(1.09499 -0.466793 -7.8713e-23)
(1.10724 -0.437023 -9.3638e-23)
(1.07212 -0.507944 1.35353e-26)
(1.08239 -0.490446 0)
(1.05523 -0.523036 -7.77365e-26)
(1.06224 -0.518759 0)
(1.04983 -0.509007 0)
(1.05079 -0.519413 0)
(1.05744 -0.469258 1.0286e-26)
(1.05209 -0.491878 0)
(1.0728 -0.41146 0)
(1.06473 -0.442139 0)
(1.08729 -0.343216 0)
(1.08047 -0.378059 -5.3798e-23)
(1.10554 -0.27375 0)
(1.09386 -0.307231 4.0543e-22)
(0.985375 0.169492 2.75348e-21)
(1.00837 0.144247 0)
(1.44243 -0.0304841 -3.42283e-23)
(1.39625 -0.0405595 7.24434e-23)
(0.758306 -0.388658 1.11136e-25)
(0.93895 -0.529555 0)
(1.07189 -0.24012 0)
(0.615917 -0.143358 -2.07542e-26)
(1.00543 -0.469014 8.62975e-26)
(1.1167 -0.238162 2.10203e-21)
(1.07155 -0.260357 0)
(1.08101 -0.230263 0)
(0.528949 0.107465 8.70233e-26)
(1.08785 -0.382667 2.74894e-24)
(0.595075 0.207226 0)
(1.18064 -0.280785 -1.96477e-23)
(0.792203 0.148885 0)
(1.27245 -0.185167 0)
(0.881265 0.1719 0)
(1.36108 -0.109078 -1.03965e-21)
(0.957165 0.202719 -4.60678e-22)
(1.43259 -0.0508748 -9.60501e-23)
(1.03574 0.176409 0)
(1.01898 0.207263 -1.21276e-21)
(1.45187 -0.00823851 3.33619e-22)
(1.41594 0.0174395 1.14884e-21)
(1.37938 -0.00427266 -1.52913e-21)
(0.841988 -0.463882 4.19918e-27)
(1.19692 -0.237899 5.41909e-22)
(1.1593 -0.233883 0)
(1.2774 -0.228562 -1.0073e-22)
(1.23751 -0.234977 -2.29571e-22)
(1.35065 -0.172775 0)
(1.31747 -0.208956 1.20219e-22)
(1.36861 -0.0267088 0)
(1.37083 -0.113138 6.56141e-24)
(1.28602 0.186949 1.07948e-24)
(1.33894 0.0786371 0)
(1.15842 0.317572 4.34741e-24)
(1.22076 0.272058 0)
(1.06291 0.299764 5.34087e-25)
(1.10563 0.321959 0)
(0.99329 0.229482 -2.99942e-24)
(1.0262 0.265366 -2.79607e-27)
(0.938335 0.161651 2.80624e-24)
(0.96362 0.19486 2.99237e-27)
(0.908969 0.0938269 -3.18106e-24)
(0.919566 0.128173 2.90285e-27)
(0.912544 0.0234341 -2.9954e-27)
(0.907305 0.0587677 2.90826e-27)
(0.931367 -0.047958 -3.00311e-24)
(0.921569 -0.0120154 3.00865e-27)
(0.95486 -0.116387 5.4895e-24)
(0.941918 -0.0834081 0)
(0.992915 -0.16828 1.54262e-25)
(0.972041 -0.14483 2.64977e-27)
(1.04084 -0.203717 -4.64332e-24)
(1.0162 -0.187609 0)
(1.09519 -0.226266 -1.92365e-24)
(1.06716 -0.216681 -2.14479e-27)
(1.15582 -0.234465 0)
(1.12488 -0.232243 0)
(1.22014 -0.225565 1.74161e-22)
(1.18793 -0.232453 -1.81322e-22)
(1.28233 -0.19553 0)
(1.25232 -0.213479 -7.9595e-29)
(1.33013 -0.143247 3.64119e-23)
(1.30922 -0.171891 -4.40412e-23)
(1.34903 -0.0779413 5.26756e-22)
(1.34369 -0.111357 -5.25418e-22)
(1.33445 -0.0178776 0)
(1.34542 -0.0458555 -7.21061e-23)
(1.00714 0.0906895 4.59812e-22)
(1.04802 0.149834 1.11579e-22)
(1.02528 0.122497 -6.12135e-22)
(0.990686 0.0132993 1.15204e-21)
(0.995034 0.0538578 -4.52984e-22)
(1.00707 -0.0738064 5.91895e-22)
(0.994182 -0.030295 -1.77509e-21)
(1.05119 -0.153535 -2.50316e-24)
(1.02608 -0.115682 2.03921e-23)
(1.11632 -0.206855 2.49545e-24)
(1.08113 -0.184181 0)
(1.20742 -0.221902 8.90363e-27)
(1.15787 -0.220228 -9.41343e-27)
(1.32816 -0.165733 -6.97679e-27)
(1.26539 -0.205795 7.37762e-27)
(1.42255 -0.027335 -1.17308e-24)
(1.38476 -0.102838 0)
(1.42041 0.108313 2.75004e-27)
(1.43368 0.0462348 -2.90946e-27)
(1.3523 0.188445 7.23805e-25)
(1.39057 0.155222 2.43657e-27)
(1.27099 0.224201 0)
(1.31137 0.210489 0)
(1.19657 0.234803 1.64645e-24)
(1.23261 0.231802 -1.03353e-28)
(1.13241 0.229991 -3.0582e-27)
(1.16327 0.233923 3.23883e-27)
(1.07536 0.215768 2.4087e-25)
(1.10336 0.223855 0)
(1.02497 0.189066 1.54008e-24)
(1.04898 0.204567 0)
(0.981277 0.148387 -1.74956e-24)
(1.0031 0.169886 0)
(0.936615 0.0982585 3.17184e-27)
(0.958566 0.125058 -3.36333e-27)
(0.91458 0.0211211 0)
(0.920101 0.0635454 0)
(0.941445 -0.079052 1.45808e-22)
(0.921838 -0.0286598 2.00884e-22)
(1.00395 -0.17068 -7.87516e-22)
(0.969908 -0.128353 3.83212e-22)
(1.03832 -0.208477 0)
(1.16535 -0.361343 -5.39649e-24)
(1.16937 -0.326456 4.73878e-22)
(1.15032 -0.432382 0)
(1.16129 -0.397428 5.29962e-24)
(1.1197 -0.494051 3.746e-25)
(1.13596 -0.465483 0)
(1.08471 -0.530546 -1.41421e-25)
(1.10188 -0.515988 -1.12587e-27)
(1.05309 -0.537952 0)
(1.06764 -0.538113 0)
(1.03348 -0.514449 0)
(1.04122 -0.529676 0)
(1.03012 -0.465447 -1.02258e-26)
(1.02981 -0.492529 0)
(1.0392 -0.400428 0)
(1.03355 -0.434397 0)
(1.05371 -0.327531 -3.48548e-22)
(1.04607 -0.364379 5.19676e-23)
(1.06243 -0.291197 -3.66456e-23)
(1.06871 0.202851 0)
(1.07536 0.171889 3.36617e-22)
(1.35646 0.0236637 1.13285e-21)
(1.31817 0.00410412 -1.92056e-21)
(0.675111 -0.225508 -2.58898e-26)
(0.874149 -0.401296 4.78667e-26)
(1.11589 -0.202613 -3.37369e-21)
(1.09305 -0.198755 2.45878e-21)
(0.541797 0.0590724 -7.23867e-25)
(0.932189 -0.302975 0)
(0.519861 0.2592 2.9256e-24)
(1.00348 -0.192872 -8.37882e-24)
(0.689955 0.240376 0)
(1.08592 -0.0881037 0)
(0.847845 0.198757 9.26211e-23)
(1.17296 -0.0169679 -6.45464e-23)
(0.910596 0.239269 0)
(1.27186 0.0203005 -8.42464e-22)
(0.999912 0.246863 -1.05059e-21)
(1.36786 0.0403376 0)