/*--------------------------------*- C++ -*----------------------------------*\
  =========                 |
  \\      /  F ield         | OpenFOAM: The Open Source CFD Toolbox
   \\    /   O peration     | Website:  https://openfoam.org
    \\  /    A nd           | Version:  10
     \\/     M anipulation  |
\*---------------------------------------------------------------------------*/
FoamFile
{
    format      ascii;
    class       volVectorField;
    location    "9";
    object      U;
}
// * * * * * * * * * * * * * * * * * * * * * * * * * * * * * * * * * * * * * //

dimensions      [0 1 -1 0 0 0 0];

internalField   nonuniform List<vector> 
40874
(
(0.706947 -0.241226 0)
(0.606111 -0.211797 3.65368e-19)
(1.07267 -0.589333 -4.13169e-20)
(1.01291 -0.524962 1.56664e-19)
(1.01401 -0.751785 1.00563e-19)
(1.00524 -0.760623 4.73457e-20)
(1.03544 -0.755398 4.62301e-21)
(1.15021 -0.526851 1.09905e-20)
(1.05406 -0.470474 -3.36301e-21)
(0.757987 -0.661989 1.18744e-19)
(0.752225 -0.487697 -1.68866e-19)
(0.455059 -0.650292 1.57869e-19)
(0.837329 -0.689935 1.29567e-20)
(0.834579 -0.427458 9.52149e-20)
(0.839876 -0.326867 -9.28883e-20)
(0.782216 -0.303049 8.97732e-20)
(0.987168 -0.661909 -1.9355e-21)
(1.13373 -0.729174 0)
(0.948549 -0.752733 -2.80799e-19)
(0.987075 -0.324136 -7.98696e-20)
(0.979792 -0.388483 -4.78043e-21)
(0.967181 -0.473618 -1.45216e-19)
(0.598781 -0.558606 1.15321e-20)
(0.570302 -0.681139 4.8514e-20)
(0.918699 -0.375128 1.28199e-19)
(1.13642 -0.505464 -6.62536e-21)
(1.16532 -0.511364 1.70677e-20)
(1.14789 -0.445803 8.03538e-21)
(1.1802 -0.466957 0)
(1.27396 -0.490454 -1.04851e-20)
(1.26816 -0.516753 -8.70706e-22)
(1.21505 -0.460936 1.32531e-21)
(1.15915 -0.512034 0)
(-0.184343 -0.0903136 5.07608e-20)
(-0.133967 -0.115383 0)
(-0.0869856 -0.121872 0)
(-0.124001 -0.108829 -1.10469e-21)
(0.701377 0.0160271 -5.25068e-22)
(0.65875 0.0153282 6.69315e-23)
(0.729302 0.0182666 3.89033e-21)
(0.806402 0.0162798 0)
(0.811957 0.0135446 7.84004e-22)
(0.753758 0.0161277 -1.11553e-21)
(0.6795 0.017369 -8.14636e-22)
(0.809216 0.014403 -7.90736e-22)
(0.743127 0.0145454 4.90426e-22)
(0.657424 0.015738 0)
(0.875172 0.575676 -2.38672e-20)
(0.761665 0.566338 4.85455e-20)
(0.75322 0.431023 -1.4552e-20)
(0.860684 0.449942 0)
(1.02793 0.579171 0)
(0.97437 0.529064 4.19262e-21)
(1.34921 -0.457323 4.06966e-20)
(1.40419 -0.413797 0)
(1.32821 -0.375645 0)
(1.29719 -0.39536 0)
(1.27762 -0.456864 -5.88092e-21)
(1.40937 -0.477082 -2.1406e-20)
(1.20937 -0.343902 9.34984e-20)
(1.36675 -0.337128 -1.2529e-19)
(1.1924 0.562695 0)
(1.09435 0.555691 0)
(1.11753 0.504672 1.74742e-21)
(1.23823 0.550377 -1.45536e-21)
(-0.0585784 -0.035785 5.77034e-20)
(-0.0811905 -0.0329874 -4.6559e-20)
(-0.0548308 -0.0321256 -4.36144e-20)
(-0.0392215 0.0309169 0)
(-0.0156585 0.0118159 -9.64253e-20)
(-0.0150529 0.0112181 -1.00034e-19)
(0.0286873 -0.0749881 2.44272e-19)
(0.00901697 -0.0255889 4.23625e-20)
(0.0163873 -0.0446519 4.03336e-20)
(0.547962 -0.0586683 -1.95626e-21)
(0.612516 -0.0158887 1.13321e-20)
(0.386137 0.0315017 -3.67594e-21)
(0.25914 -0.029691 -6.28786e-22)
(0.319174 0.0233297 -2.50259e-22)
(0.510452 0.0215461 0)
(0.491952 0.0191235 3.54537e-22)
(0.240125 0.0152421 -3.24932e-22)
(0.818267 0.344444 7.00594e-20)
(0.770719 0.328599 7.48012e-20)
(0.791877 0.250067 -3.7881e-20)
(0.833001 0.250249 1.67331e-19)
(1.26472 0.300924 -1.47873e-23)
(1.26252 0.31043 -6.22324e-21)
(1.24771 0.293123 -1.45109e-22)
(1.32573 0.3597 5.13484e-21)
(1.44255 0.366412 4.62246e-20)
(1.39549 0.315138 -3.76482e-21)
(1.49507 0.44849 4.60233e-20)
(1.24107 -0.703791 0)
(1.26608 -0.47882 -3.55533e-20)
(0.838467 -0.0235798 5.34616e-22)
(0.773336 -0.0319588 -9.24433e-22)
(0.71233 -0.0337306 1.16946e-21)
(0.795257 -0.0274689 -1.14224e-21)
(0.858379 -0.0229957 -8.25879e-23)
(0.995483 -0.0385767 0)
(0.988905 -0.0315545 3.11001e-22)
(-0.030168 0.0249286 -4.0658e-21)
(0.0311237 0.00865229 -2.7233e-20)
(-0.0740343 -0.0619723 0)
(-0.0681318 -0.070939 0)
(0.902645 0.328712 0)
(0.879731 0.373204 -6.8194e-20)
(0.212058 -0.136864 5.65904e-19)
(0.190197 -0.225077 -8.63088e-19)
(-0.0839412 -0.0865688 0)
(-0.0964333 -0.110807 1.64462e-20)
(0.99412 -0.0361806 -2.47961e-20)
(0.666837 -0.0194582 -1.89322e-21)
(0.620594 -0.0112675 7.07582e-21)
(0.701778 0.0102078 -9.76634e-22)
(0.606826 0.00711509 7.51149e-22)
(0.494333 0.555854 8.16949e-21)
(0.440785 0.611864 -2.39733e-20)
(0.625326 0.733588 4.47319e-21)
(0.378631 0.614015 1.12217e-19)
(0.17512 -0.296302 -9.71309e-20)
(0.323333 -0.633855 9.94714e-20)
(0.218479 0.520946 -2.2881e-20)
(0.732167 0.0136523 0)
(0.646812 0.0130935 0)
(0.61903 0.0185403 -4.46847e-22)
(0.552159 0.0157438 0)
(0.132006 -0.0104303 0)
(0.177894 -0.00923028 1.17051e-21)
(1.00304 -0.0156845 -6.35447e-20)
(0.779942 0.0159848 -7.58913e-22)
(1.11829 -0.0327625 0)
(1.11784 -0.0330647 -4.10806e-22)
(0.665356 -0.0477896 0)
(1.28963 0.309217 4.04443e-21)
(1.28996 0.299868 -5.07149e-21)
(1.32592 0.331969 -5.12386e-21)
(1.10357 0.0929464 2.59949e-20)
(1.27574 0.112192 -2.31651e-20)
(1.26193 0.0980769 1.19309e-20)
(1.08392 0.0811627 4.13891e-20)
(0.916875 0.0790545 -1.38871e-22)
(0.91132 0.0727783 -7.63806e-21)
(0.152066 -0.10203 -5.75873e-20)
(0.0857292 -0.103655 7.123e-20)
(0.0344796 -0.102943 -5.8373e-20)
(0.0693045 -0.162689 -2.06599e-19)
(0.0345845 -0.0641464 -2.8042e-19)
(0.0908778 -0.140205 1.77529e-19)
(1.13219 -0.641962 0)
(1.41009 -0.386369 -1.11275e-20)
(1.35174 -0.353083 3.73319e-20)
(-0.076623 -0.0550162 1.20377e-19)
(-0.0486217 -0.0345915 0)
(-0.0564866 -0.0462103 0)
(-0.0649228 -0.0406904 0)
(-0.0720716 -0.0731593 -2.15247e-20)
(-0.0619598 -0.05328 4.25109e-20)
(-0.0723082 -0.0672992 0)
(0.0673863 0.0527082 7.17408e-20)
(0.23878 0.0629549 -1.52091e-19)
(0.331652 0.0837608 -5.13115e-20)
(0.0692098 -0.0262538 0)
(0.372704 -0.229897 -2.12978e-21)
(0.325648 -0.432114 2.76175e-19)
(0.460444 -0.506118 -2.60786e-20)
(0.620793 -0.346362 -3.16819e-19)
(1.04348 0.485209 -4.53809e-21)
(0.636518 0.0749109 0)
(0.106998 -0.415889 -9.85316e-20)
(0.115653 -0.46867 -1.8599e-19)
(0.475136 -0.569368 -1.14526e-19)
(0.119576 -0.36583 9.44731e-20)
(0.837492 -0.0211887 0)
(0.773701 -0.0222839 -4.91717e-21)
(1.15119 0.17639 9.04073e-20)
(1.09707 0.146919 -4.88101e-20)
(0.935554 0.124137 -6.85032e-20)
(-0.028323 -0.0535429 -6.31225e-20)
(0.00350442 -0.0558338 2.81336e-20)
(0.230456 -0.0889708 1.47894e-20)
(0.187175 -0.084873 2.10754e-20)
(1.13473 -0.404435 5.93062e-20)
(0.99732 -0.295037 1.7099e-20)
(1.06694 -0.00731825 2.04494e-24)
(1.06678 -0.00739533 0)
(1.06689 -0.00754466 0)
(0.892527 0.268902 4.2926e-20)
(0.887985 0.242688 -1.04966e-19)
(0.906932 0.250524 -8.11871e-22)
(0.952266 0.446837 2.29388e-20)
(1.01209 0.431364 5.05475e-21)
(0.259515 0.113385 3.47661e-19)
(0.0827591 0.131375 0)
(0.0614952 0.044669 0)
(0.207579 0.0222102 0)
(1.15019 0.703615 -1.04022e-21)
(1.27006 0.651791 5.10392e-20)
(1.22459 0.665602 -2.20263e-20)
(1.02332 0.639295 -1.42115e-20)
(-0.0951611 0.0464482 -3.75657e-20)
(-0.101153 0.0442433 -1.40848e-19)
(-0.0616027 0.0366357 -2.64152e-20)
(-0.067561 0.0357225 0)
(1.06674 -0.00715965 3.31545e-24)
(1.06691 -0.00714154 1.9012e-24)
(-0.103792 0.0521847 2.89783e-19)
(0.465599 0.00168926 4.40196e-21)
(0.521818 -0.00298329 0)
(1.01382 -0.0335749 -2.17857e-20)
(1.01803 -0.0365607 4.99015e-20)
(0.803817 0.724387 -1.26858e-19)
(1.09965 -0.0937669 -5.54117e-20)
(1.01891 -0.117069 0)
(1.08465 -0.118282 -3.67245e-20)
(1.08876 -0.100881 3.0039e-20)
(1.01872 -0.0768216 9.76496e-21)
(1.01022 -0.0954857 1.66866e-20)
(0.62078 -0.117672 -2.35485e-19)
(0.478345 -0.0124993 1.40587e-19)
(0.4057 -0.114915 -4.09381e-19)
(0.804918 0.0139614 0)
(0.800697 0.0130461 2.8861e-22)
(0.847192 0.758472 1.21584e-19)
(0.441832 0.460688 -9.32335e-21)
(0.503591 0.512349 0)
(1.03403 -0.127609 0)
(-0.0685984 -0.123336 0)
(1.15744 0.126562 0)
(1.13034 0.131899 2.64623e-21)
(-0.0873929 0.0523012 8.28975e-20)
(-0.0864956 0.0493168 3.42504e-20)
(1.40689 -0.348064 0)
(-0.0903262 0.0883007 -6.42099e-20)
(-0.078386 0.0851632 8.94033e-20)
(-0.109045 0.0686484 -1.948e-19)
(-0.107847 0.0711852 1.78602e-19)
(-0.0807332 0.0804791 -2.70486e-20)
(0.537148 -0.31828 0)
(0.665 -0.408416 -4.45398e-20)
(-0.0304465 0.0274008 2.75736e-20)
(-0.0282472 0.0246687 -3.09713e-20)
(0.876161 0.663946 0)
(1.03592 0.69751 4.39538e-21)
(0.893952 0.588307 -2.63247e-20)
(0.659173 0.494142 0)
(0.67725 0.289829 -1.1547e-19)
(0.614306 0.392419 8.08865e-20)
(0.467922 0.269406 -2.99269e-19)
(0.588616 0.175252 3.667e-20)
(1.3632 0.215017 -1.36644e-20)
(1.34969 0.201628 1.84562e-20)
(1.36463 0.198843 7.18381e-21)
(1.38004 0.212881 0)
(1.01108 0.0929091 1.5138e-20)
(0.909985 0.0875012 -1.30588e-20)
(1.01059 0.104084 0)
(-0.0857335 0.0723283 0)
(-0.093456 0.0428549 2.64319e-20)
(-0.0609544 0.0496734 3.2487e-20)
(-0.080349 -0.0727655 1.29818e-20)
(-0.0413376 -0.0352733 -5.19725e-20)
(-0.0439496 -0.0330688 1.3887e-19)
(0.0926474 0.22887 -4.96621e-19)
(0.0239473 0.139233 -2.97859e-19)
(0.0162009 0.0864569 -4.16683e-20)
(0.756745 -0.00247856 5.69408e-20)
(0.779682 -0.0184707 -1.10947e-19)
(0.773742 0.0193568 0)
(0.137926 0.0494656 2.30737e-20)
(1.06689 -0.00768804 -5.36002e-25)
(1.40622 0.219333 0)
(1.13448 -0.0375699 -7.10967e-22)
(1.22222 0.125909 0)
(1.21231 0.118106 -5.40545e-22)
(1.2026 0.111012 1.37028e-22)
(1.19325 0.104121 8.1853e-23)
(1.18373 0.0981771 -1.40811e-21)
(1.17514 0.0918464 2.5293e-21)
(1.16772 0.0839494 6.12695e-21)
(1.16071 0.078634 -5.15476e-22)
(1.15369 0.0731802 3.92371e-22)
(1.14735 0.0678034 3.35447e-28)
(1.14126 0.0625522 -8.01579e-23)
(1.13582 0.0576205 -3.78873e-22)
(1.1306 0.0528065 4.25355e-22)
(1.12593 0.0482495 1.49466e-26)
(1.12149 0.0437857 -1.73389e-23)
(1.11753 0.039555 -8.50307e-23)
(1.11382 0.0354228 8.06128e-23)
(1.11067 0.0316218 0)
(1.10753 0.0276672 -4.73617e-23)
(1.10481 0.0238867 0)
(1.10241 0.0202512 -7.62998e-22)
(1.10037 0.016768 7.53514e-22)
(1.09859 0.0133401 5.21249e-23)
(1.09715 0.0100369 -2.78759e-26)
(1.09597 0.00678361 0)
(1.09514 0.00363774 -1.13915e-21)
(1.09459 0.000535482 1.06093e-21)
(1.09438 -0.00247394 -1.22657e-21)
(1.09447 -0.00544604 2.47255e-21)
(1.09492 -0.00833718 -2.52967e-21)
(1.0957 -0.0111939 1.26917e-21)
(1.09687 -0.0139851 0)
(1.09842 -0.0167826 1.37228e-21)
(1.1006 -0.0197861 -2.38833e-21)
(1.10329 -0.0222894 1.43535e-21)
(1.10674 -0.0251265 0)
(1.10979 -0.0268941 9.04266e-22)
(1.11306 -0.0301042 0)
(1.25066 0.140717 2.9626e-22)
(1.24017 0.144382 8.60907e-22)
(1.25217 0.153472 3.95732e-22)
(1.26431 0.16336 0)
(1.27546 0.158381 7.62378e-22)
(1.26259 0.148903 9.08359e-22)
(1.22948 0.123656 0)
(1.23982 0.131201 8.03194e-21)
(1.20886 0.108434 -2.81353e-22)
(1.2189 0.115545 1.3902e-21)
(1.18939 0.095217 0)
(1.19894 0.101189 0)
(1.17224 0.0823086 0)
(1.18005 0.0894397 -2.63217e-21)
(1.15774 0.0716282 -1.49989e-23)
(1.16476 0.0770213 -2.02449e-26)
(1.14508 0.061295 6.17367e-23)
(1.15122 0.066422 4.16546e-26)
(1.13416 0.0517191 -1.3809e-23)
(1.13945 0.0564656 -3.05208e-26)
(1.12481 0.0428342 5.3585e-24)
(1.12932 0.0472384 -4.51056e-27)
(1.11705 0.0345151 2.01139e-23)
(1.12072 0.0387211 2.63189e-23)
(1.11034 0.0269032 1.56371e-23)
(1.11353 0.0306981 -1.95868e-23)
(1.10508 0.0196212 -3.36142e-24)
(1.10756 0.023223 6.60389e-27)
(1.10108 0.0127878 -1.72703e-23)
(1.10294 0.0161823 0)
(1.0983 0.00631435 1.53408e-26)
(1.09954 0.00953275 4.19035e-27)
(1.09675 0.000148439 2.36099e-23)
(1.09737 0.00321645 -3.06845e-27)
(1.09647 -0.0057534 0)
(1.09645 -0.0028149 0)
(1.09755 -0.0114186 -1.15332e-26)
(1.09684 -0.00859838 -7.75567e-27)
(1.10015 -0.0169283 1.47017e-22)
(1.09863 -0.0141543 2.09829e-26)
(1.10488 -0.0220319 -2.20563e-22)
(1.10208 -0.0198088 0)
(1.10786 -0.0250538 0)
(1.21545 0.128754 0)
(1.22852 0.137843 0)
(1.19633 0.113797 0)
(1.2057 0.121155 3.66421e-22)
(1.17815 0.100537 1.96258e-21)
(1.18708 0.106482 -7.96797e-23)
(1.16248 0.0840824 -3.3851e-21)
(1.17006 0.0929354 3.88457e-22)
(1.14882 0.0728142 0)
(1.15566 0.0785351 0)
(1.13654 0.0616048 -1.2878e-26)
(1.14242 0.067028 -1.02137e-28)
(1.12609 0.0515243 1.10429e-26)
(1.13109 0.0564259 1.2886e-26)
(1.11725 0.0422635 0)
(1.12147 0.0467783 0)
(1.10992 0.0337641 0)
(1.11339 0.0378949 0)
(1.10389 0.0257328 0)
(1.10673 0.0296295 0)
(1.09923 0.0183498 -9.76387e-28)
(1.1014 0.0219742 0)
(1.0958 0.0113808 -1.15424e-26)
(1.09736 0.0148071 0)
(1.09361 0.00477277 0)
(1.09455 0.00802472 1.22113e-26)
(1.09266 -0.00152025 -1.48924e-26)
(1.09298 0.00158172 0)
(1.09302 -0.00754413 -1.61303e-26)
(1.09268 -0.00456963 1.51857e-26)
(1.09478 -0.0133394 -1.6955e-26)
(1.09372 -0.0104731 1.61954e-26)
(1.09803 -0.0189082 -1.66728e-26)
(1.09624 -0.0161755 1.68795e-26)
(1.10245 -0.023858 0)
(1.09992 -0.0212519 1.71642e-26)
(1.10956 -0.0291781 0)
(1.10638 -0.0270854 0)
(1.28919 0.168518 5.14885e-23)
(1.30389 0.178797 0)
(1.29089 0.18466 3.2407e-22)
(1.2772 0.173639 2.83099e-21)
(1.32008 0.189544 -3.32872e-21)
(1.30525 0.196332 4.28174e-22)
(1.33617 0.197103 7.69532e-21)
(1.11254 -0.0273619 -6.56242e-22)
(1.11629 -0.0304274 -1.79676e-22)
(1.11307 -0.0315237 0)
(1.24144 0.15825 -2.53291e-22)
(1.23044 0.150253 -8.21351e-22)
(1.25272 0.167967 8.8632e-25)
(1.27798 0.189389 1.20778e-21)
(1.29164 0.201326 -3.139e-21)
(1.37948 0.22699 8.85014e-21)
(1.35003 0.218695 4.92079e-21)
(1.34869 0.190168 -1.16696e-20)
(1.31531 0.170922 -1.01768e-21)
(1.33097 0.179629 2.1207e-21)
(1.28574 0.152691 8.83568e-23)
(1.30013 0.162275 -1.35521e-21)
(1.2596 0.135636 3.01387e-22)
(1.2723 0.143761 -1.40935e-21)
(1.23655 0.11937 2.89403e-22)
(1.24799 0.126394 -7.00463e-22)
(1.21502 0.105581 -1.09051e-21)
(1.22559 0.111927 -1.34579e-21)
(1.19531 0.092078 2.47038e-22)
(1.20498 0.0982359 -5.44743e-23)
(1.17847 0.080126 0)
(1.18646 0.0865932 4.50024e-22)
(1.16366 0.0692089 1.19636e-22)
(1.17076 0.0746088 -1.40442e-25)
(1.15072 0.0591372 1.34036e-23)
(1.15701 0.0641248 6.91918e-26)
(1.13942 0.0498224 0)
(1.14488 0.0544464 3.15325e-26)
(1.1297 0.0411654 0)
(1.13437 0.0454642 -6.61008e-26)
(1.12146 0.0330936 0)
(1.12544 0.0371104 -2.74764e-23)
(1.11458 0.0255798 -3.81469e-26)
(1.11785 0.0293109 3.74936e-26)
(1.10901 0.0184842 9.30886e-24)
(1.11163 0.0220075 0)
(1.10473 0.0117963 1.12153e-25)
(1.10671 0.0151235 0)
(1.1017 0.00546066 -1.4666e-26)
(1.10306 0.00861502 4.07873e-27)
(1.09992 -0.000572456 0)
(1.10065 0.00243466 9.65561e-28)
(1.09944 -0.00634939 1.20692e-23)
(1.09952 -0.00346825 2.0396e-26)
(1.10031 -0.0118912 0)
(1.0997 -0.00912953 4.59078e-26)
(1.10271 -0.0172983 -1.85161e-22)
(1.1013 -0.0145542 9.07097e-27)
(1.10698 -0.0224278 1.80909e-22)
(1.10453 -0.0201021 -2.19366e-23)
(1.10974 -0.0251244 4.69658e-23)
(1.12082 -0.0329815 1.68894e-22)
(1.11894 -0.0347383 0)
(1.12411 -0.0348599 -9.93081e-22)
(1.12265 -0.0350615 1.67216e-22)
(1.20911 0.132811 6.74637e-23)
(1.21942 0.141606 -1.00451e-22)
(1.18937 0.116013 0)
(1.19878 0.123772 1.19722e-22)
(1.17225 0.101863 -9.34982e-22)
(1.1805 0.108955 -1.59991e-22)
(1.15739 0.0874631 3.68559e-23)
(1.16448 0.0939315 2.58676e-22)
(1.14475 0.0761475 0)
(1.15081 0.08162 0)
(1.13326 0.0651098 0)
(1.13885 0.070544 8.83535e-30)
(1.12325 0.0549714 -3.66426e-28)
(1.12808 0.0599375 -7.34691e-29)
(1.11469 0.0456308 0)
(1.11881 0.0502166 0)
(1.10745 0.0369732 2.50764e-26)
(1.11091 0.0412304 0)
(1.10155 0.0289394 -3.44767e-27)
(1.10436 0.0329123 -1.95435e-26)
(1.09679 0.021339 1.97815e-27)
(1.09902 0.025078 0)
(1.09322 0.0142111 0)
(1.09486 0.0177269 0)
(1.09084 0.00745666 5.92076e-28)
(1.09189 0.0107942 0)
(1.08964 0.00101755 -1.28178e-28)
(1.09009 0.00420325 0)
(1.08967 -0.00515348 1.63453e-28)
(1.08949 -0.00209659 0)
(1.09104 -0.011105 -3.97121e-26)
(1.09018 -0.00815092 0)
(1.09394 -0.0169203 -2.88496e-28)
(1.09227 -0.0140192 3.98479e-26)
(1.09893 -0.0229709 8.56099e-23)
(1.09615 -0.0199067 0)
(1.10628 -0.0290565 3.85878e-22)
(1.10223 -0.025963 -3.09521e-22)
(1.11578 -0.0348057 -2.91259e-22)
(1.11098 -0.0321742 -7.62421e-23)
(1.26496 0.178147 -1.20414e-21)
(1.23034 0.161916 -2.38285e-22)
(1.22035 0.152809 1.67786e-23)
(1.24103 0.171791 3.86641e-22)
(1.26458 0.193991 5.00542e-22)
(1.2775 0.206813 -8.79131e-22)
(1.11274 -0.0348077 0)
(1.12155 -0.0375459 3.63937e-22)
(1.11835 -0.037528 -7.85016e-23)
(1.36759 0.231999 2.61717e-21)
(1.32061 0.209509 -4.23268e-21)
(1.12556 -0.0345707 -2.7058e-22)
(1.30664 0.21324 2.75562e-21)
(1.13173 -0.0372065 -6.52781e-22)
(1.39315 0.201304 -1.0236e-20)
(1.39939 0.235152 -3.89191e-22)
(1.42705 0.230071 -2.2154e-20)
(1.43215 0.217426 4.51988e-21)
(1.41252 0.208135 3.5125e-21)
(1.35697 0.183222 -1.08693e-20)
(1.37398 0.190706 5.92961e-21)
(1.32511 0.163635 7.43689e-22)
(1.34079 0.173278 -3.53301e-21)
(1.29515 0.146583 5.89033e-23)
(1.3097 0.155021 4.07361e-22)
(1.26763 0.130504 -3.73624e-22)
(1.28114 0.138187 0)
(1.24362 0.114855 0)
(1.25539 0.121982 7.35837e-22)
(1.22126 0.101683 1.03439e-21)
(1.23241 0.107747 0)
(1.20164 0.0888807 4.18176e-22)
(1.21119 0.094918 4.84615e-25)
(1.18432 0.0772414 0)
(1.19281 0.0833371 -4.15074e-22)
(1.16896 0.0666506 1.17068e-23)
(1.17633 0.0719374 9.75683e-25)
(1.15564 0.0568188 1.14305e-23)
(1.1621 0.061682 8.72548e-26)
(1.14398 0.0477565 -5.12779e-23)
(1.14961 0.052254 0)
(1.13393 0.0393395 3.98527e-23)
(1.13876 0.0435202 6.6103e-26)
(1.12537 0.0314586 -2.99362e-23)
(1.1295 0.0353537 0)
(1.11828 0.0241384 -2.15655e-23)
(1.12166 0.027789 0)
(1.11248 0.0172245 -5.85349e-24)
(1.11522 0.0206599 0)
(1.108 0.0106998 -1.1215e-25)
(1.11008 0.0139485 0)
(1.1048 0.00451258 1.32909e-27)
(1.10624 0.00759536 -1.31679e-27)
(1.10288 -0.00137867 -8.01179e-27)
(1.10368 0.00156122 2.12375e-26)
(1.10226 -0.00702504 -1.73145e-23)
(1.1024 -0.00420753 8.32863e-27)
(1.10303 -0.0124479 0)
(1.10247 -0.00974096 -5.24106e-26)
(1.1053 -0.0177006 0)
(1.10396 -0.0150484 -6.69727e-26)
(1.10942 -0.0228178 4.31293e-23)
(1.10708 -0.0204275 2.24904e-23)
(1.11518 -0.0276631 -1.41572e-22)
(1.11219 -0.0253006 -3.07289e-23)
(1.12363 -0.0330636 0)
(1.1191 -0.030549 1.34693e-22)
(1.12833 -0.0347972 5.98813e-23)
(1.12775 -0.0375377 5.28645e-23)
(1.1303 -0.0375634 6.85626e-22)
(1.12438 -0.0370758 0)
(1.20066 0.134852 -2.33163e-22)
(1.21069 0.14381 0)
(1.18216 0.118588 0)
(1.1911 0.126324 9.89655e-23)
(1.16568 0.103252 -5.1755e-24)
(1.17364 0.110966 1.61463e-22)
(1.15108 0.0892863 -3.38259e-23)
(1.15832 0.0960809 -9.58649e-23)
(1.13806 0.0769012 0)
(1.14431 0.0830185 0)
(1.12695 0.0655121 3.11069e-26)
(1.1323 0.0710774 1.7731e-28)
(1.11738 0.0551249 0)
(1.12198 0.0601977 5.58442e-29)
(1.10925 0.0455976 -9.51297e-26)
(1.11314 0.0502614 0)
(1.10245 0.0368 -5.71169e-27)
(1.10569 0.0411124 9.55189e-26)
(1.09689 0.0285997 3.44771e-27)
(1.09952 0.0326237 9.927e-29)
(1.09254 0.0209447 7.14804e-26)
(1.09457 0.0247107 0)
(1.08935 0.0137359 7.95912e-26)
(1.0908 0.0172884 -7.37576e-26)
(1.08732 0.00690103 1.21755e-28)
(1.08819 0.0102748 -7.99151e-26)
(1.08646 0.000381115 8.87461e-26)
(1.08674 0.00360436 0)
(1.08684 -0.00587528 9.14608e-26)
(1.08649 -0.00277764 -8.89205e-26)
(1.08856 -0.011912 9.31578e-26)
(1.08752 -0.00891963 -9.18048e-26)
(1.09172 -0.0177213 -3.92379e-28)
(1.08995 -0.0148507 -9.35641e-26)
(1.09656 -0.0233988 -8.72523e-23)
(1.09388 -0.0205252 0)
(1.10332 -0.0290522 0)
(1.09971 -0.0262756 0)
(1.10761 -0.031915 0)
(1.2524 0.182352 -4.89893e-22)
(1.29231 0.21962 3.95697e-22)
(1.21942 0.165141 -3.80793e-23)
(1.21011 0.155792 -1.35514e-22)
(1.12759 -0.0400981 -3.38187e-22)
(1.12464 -0.0403341 0)
(1.22935 0.174927 0)
(1.38678 0.244908 -1.00333e-20)
(1.1347 -0.0371758 1.14792e-21)
(1.14119 -0.0382267 -6.76672e-22)
(1.41694 0.240354 0)
(1.33726 0.222884 1.5575e-21)
(1.35415 0.239964 -2.03397e-20)
(1.4387 0.206054 1.03612e-21)
(1.46917 0.218977 -3.01918e-22)
(1.45568 0.227618 1.10624e-20)
(1.32292 0.22723 4.04236e-21)
(1.30848 0.23311 9.03651e-22)
(1.40231 0.189798 3.57149e-21)
(1.41932 0.196941 -4.99833e-21)
(1.36804 0.174814 -3.82041e-22)
(1.38465 0.181248 7.69699e-22)
(1.33409 0.156775 -3.31432e-22)
(1.35066 0.165836 1.25629e-21)
(1.30357 0.139877 0)
(1.31864 0.148143 -4.31489e-24)
(1.27539 0.124776 -7.05236e-24)
(1.28915 0.132147 1.02668e-23)
(1.25042 0.110202 0)
(1.26248 0.117127 0)
(1.22789 0.0973581 0)
(1.23894 0.103462 0)
(1.20776 0.0851845 -4.13476e-24)
(1.21751 0.0910522 3.46274e-24)
(1.18993 0.0740383 -1.07803e-22)
(1.19862 0.0797753 -2.88286e-24)
(1.17399 0.0638274 -7.98255e-23)
(1.18164 0.0689218 3.3192e-25)
(1.16022 0.0543199 -6.45065e-23)
(1.16688 0.059029 -3.60401e-25)
(1.14821 0.0455338 1.13923e-22)
(1.15401 0.0498947 -1.42745e-24)
(1.13786 0.0373696 1.04408e-23)
(1.14284 0.0414239 -7.24988e-25)
(1.12905 0.0297252 2.94516e-23)
(1.13327 0.0335145 5.66491e-25)
(1.12172 0.0225976 2.15642e-23)
(1.1252 0.0261487 0)
(1.11574 0.0158739 2.22984e-23)
(1.11856 0.019217 0)
(1.11109 0.00952302 -1.04823e-25)
(1.11325 0.0126863 1.03641e-25)
(1.10775 0.00349612 -6.04563e-26)
(1.10926 0.00650042 5.99005e-26)
(1.1057 -0.0022464 0)
(1.10656 0.000620885 0)
(1.10499 -0.00775196 5.22623e-24)
(1.10518 -0.0050034 -3.50605e-26)
(1.10568 -0.013048 0)
(1.10515 -0.0104007 2.82207e-26)
(1.10788 -0.0181584 0)
(1.10658 -0.0155882 3.63376e-26)
(1.11194 -0.0231613 -1.17358e-23)
(1.10963 -0.0207691 -2.22322e-23)
(1.1178 -0.0279467 -4.02066e-23)
(1.11471 -0.0255962 1.9004e-23)
(1.12606 -0.033005 1.21197e-23)
(1.12171 -0.0306137 9.85063e-23)
(1.13043 -0.0349507 -3.87745e-23)
(1.13766 -0.0393028 0)
(1.13971 -0.0388304 1.3282e-22)
(1.13326 -0.0398287 -2.11711e-22)
(1.13586 -0.0397581 0)
(1.1305 -0.039825 -1.76574e-22)
(1.19193 0.137826 1.56089e-22)
(1.20105 0.146819 -1.56834e-22)
(1.17409 0.120474 4.39946e-25)
(1.18277 0.128906 -2.54824e-25)
(1.1586 0.105087 -6.76733e-26)
(1.16607 0.11257 -1.03968e-27)
(1.14465 0.091073 0)
(1.15143 0.0978557 0)
(1.13259 0.0786282 4.33698e-26)
(1.13838 0.0846687 0)
(1.1221 0.0672447 -8.74904e-26)
(1.12717 0.0728237 -1.86141e-28)
(1.11299 0.056779 0)
(1.11738 0.0618998 0)
(1.10521 0.0471569 0)
(1.10894 0.0518711 0)
(1.09869 0.0382577 1.4385e-25)
(1.1018 0.0426248 0)
(1.09336 0.0299808 0)
(1.09588 0.0340507 -1.55125e-25)
(1.08915 0.022217 0)
(1.09112 0.0260387 0)
(1.08607 0.0149051 0)
(1.08747 0.0185095 0)
(1.08409 0.00797169 -7.13855e-28)
(1.08494 0.0113958 0)
(1.08326 0.00135225 -1.85991e-28)
(1.08353 0.00462658 0)
(1.08363 -0.00500819 -4.11414e-28)
(1.08329 -0.00185688 0)
(1.08529 -0.0111622 2.14051e-25)
(1.08429 -0.00810742 0)
(1.08845 -0.0171752 2.14852e-25)
(1.08667 -0.0141798 -2.14716e-25)
(1.09336 -0.0231327 -1.76561e-27)
(1.09068 -0.0201669 -2.14875e-25)
(1.10036 -0.0290967 0)
(1.09655 -0.02611 0)
(1.10976 -0.0350152 2.11429e-22)
(1.10476 -0.0320981 0)
(1.52488 0.257655 2.97646e-21)
(1.51821 0.239392 0)
(1.33918 0.242106 -1.2616e-21)
(1.4568 0.245058 8.32075e-21)
(1.12174 -0.0407027 -2.12131e-22)
(1.11546 -0.0378995 -2.04241e-22)
(1.25153 0.198054 -5.52951e-22)
(1.24018 0.185718 0)
(1.27753 0.225446 1.28409e-21)
(1.26352 0.211958 7.45615e-22)
(1.3264 0.247633 2.44377e-21)
(1.49898 0.221349 2.92941e-20)
(1.52246 0.265678 2.66547e-20)
(1.43861 0.252388 -1.55612e-20)
(1.47642 0.202204 -1.711e-20)
(1.51136 0.219016 0)
(1.19959 0.157624 1.28044e-22)
(1.20852 0.167478 -1.34051e-22)
(1.37253 0.257848 1.84764e-20)
(1.44255 0.215387 -3.2296e-20)
(1.3968 0.193234 0)
(1.29283 0.240822 5.88011e-22)
(1.11873 -0.0410803 4.01104e-22)
(1.12839 -0.043451 -3.77337e-22)
(1.12545 -0.0439692 3.82779e-22)
(1.46627 0.23133 7.37765e-21)
(1.40918 0.25345 5.288e-21)
(1.52396 0.296059 0)
(1.44697 0.196283 1.09619e-21)
(1.47791 0.207928 0)
(1.41062 0.179937 -1.63702e-21)
(1.42649 0.187322 1.95697e-21)
(1.37759 0.165269 3.72721e-22)
(1.394 0.171634 0)
(1.34296 0.148962 6.33431e-22)
(1.36012 0.157342 -1.08425e-23)
(1.31147 0.133204 -5.55773e-22)
(1.32677 0.141053 -1.27119e-23)
(1.28281 0.118824 1.5272e-23)
(1.2968 0.125888 -1.80284e-23)
(1.25713 0.105209 -4.12847e-22)
(1.26957 0.111806 6.61881e-24)
(1.23412 0.0928526 1.74984e-22)
(1.24535 0.0988415 -5.63993e-24)
(1.21351 0.0812622 0)
(1.22351 0.0869206 0)
(1.19524 0.0706 1.11193e-22)
(1.20413 0.0760144 0)
(1.17888 0.0607805 0)
(1.18676 0.065675 0)
(1.1647 0.0516395 -2.66443e-24)
(1.17155 0.0561729 4.65202e-24)
(1.15236 0.0431607 -6.38997e-23)
(1.15831 0.0473722 3.85654e-24)
(1.14171 0.0352663 -1.08643e-22)
(1.14683 0.0391874 0)
(1.13265 0.0278755 0)
(1.13699 0.0315453 0)
(1.12509 0.0209585 1.13939e-24)
(1.12869 0.0244021 -1.78148e-24)
(1.11893 0.0144367 7.90537e-24)
(1.12184 0.0176819 -5.25801e-25)
(1.11411 0.00826902 3.28829e-25)
(1.11635 0.011342 8.42781e-26)
(1.11063 0.00241243 2.34178e-25)
(1.11221 0.0053329 7.7515e-26)
(1.10846 -0.00317406 0)
(1.10938 -0.000383958 2.24736e-25)
(1.10765 -0.00852962 7.89577e-24)
(1.10788 -0.00585457 2.52423e-26)
(1.10825 -0.0136877 0)
(1.10776 -0.011107 -9.68535e-26)
(1.1104 -0.0186619 0)
(1.10912 -0.0161664 -4.8075e-26)
(1.11438 -0.0235304 0)
(1.11211 -0.021151 3.91146e-26)
(1.12024 -0.0282225 1.3842e-23)
(1.11711 -0.0259004 0)
(1.12846 -0.0330778 -5.52509e-23)
(1.12408 -0.0306904 -1.57852e-24)
(1.13888 -0.0379392 3.1288e-22)
(1.13341 -0.03547 0)
(1.14314 -0.0409734 -1.36979e-22)
(1.14564 -0.0391477 7.22303e-23)
(1.14538 -0.0407914 -1.33462e-22)
(1.139 -0.0418499 -1.95406e-22)
(1.14143 -0.0415762 3.16817e-22)
(1.13399 -0.0425688 5.69468e-22)
(1.13662 -0.0422055 5.58942e-22)
(1.13128 -0.042996 1.82707e-22)
(1.18253 0.139507 4.35161e-25)
(1.19101 0.148412 1.27221e-23)
(1.16597 0.122202 3.34533e-25)
(1.17406 0.130664 0)
(1.15114 0.10646 -5.27043e-26)
(1.15835 0.114157 1.03916e-27)
(1.13794 0.0922824 -5.82919e-26)
(1.14435 0.0991836 1.20738e-25)
(1.12633 0.0795082 5.09924e-25)
(1.13193 0.0857429 0)
(1.11628 0.0679051 -2.54091e-26)
(1.12112 0.0735711 -4.81691e-25)
(1.10763 0.0573103 -6.50921e-25)
(1.11179 0.0624902 0)
(1.10027 0.0475857 0)
(1.10379 0.0523477 6.53505e-25)
(1.09411 0.0386014 3.97911e-25)
(1.09704 0.0430083 0)
(1.0891 0.0302424 4.18546e-25)
(1.09147 0.0343493 -3.88783e-25)
(1.08519 0.0224194 0)
(1.08701 0.0262697 -4.13232e-25)
(1.08237 0.0150451 4.51435e-25)
(1.08365 0.018681 0)
(1.08063 0.0080451 -9.61683e-28)
(1.08136 0.0115026 -4.51328e-25)
(1.08 0.00135398 4.74221e-25)
(1.08017 0.00466465 0)
(1.08055 -0.00508554 4.81159e-25)
(1.08012 -0.001894 -4.75836e-25)
(1.08239 -0.011322 4.84052e-25)
(1.0813 -0.00822666 -4.82828e-25)
(1.08565 -0.0173922 4.81854e-25)
(1.08383 -0.0143756 -4.85952e-25)
(1.09057 -0.0233561 4.7879e-25)
(1.08789 -0.0203804 -4.84695e-25)
(1.0974 -0.0292247 -4.70552e-25)
(1.09373 -0.0263026 -4.78852e-25)
(1.10674 -0.0352075 -2.14283e-22)
(1.10173 -0.0321988 4.62226e-25)
(1.11242 -0.0381688 2.08354e-22)
(1.21809 0.177783 4.20249e-22)
(1.23812 0.200771 5.9877e-22)
(1.22797 0.188606 -6.71713e-22)
(1.26194 0.230179 -3.16915e-22)
(1.24929 0.215474 -5.0689e-22)
(1.35797 0.264966 2.69461e-22)
(1.45837 0.185588 -5.46099e-21)
(1.50811 0.201053 -5.24001e-21)
(1.26079 0.175657 6.18679e-21)
(1.30574 0.203408 -1.42409e-20)
(1.14119 -0.0377065 1.24865e-23)
(1.14731 -0.0391506 3.11293e-23)
(1.30968 0.258579 3.40313e-22)
(1.27565 0.245889 -1.66479e-21)
(1.13511 -0.0460418 -5.52569e-22)
(1.1324 -0.0466547 3.67013e-22)
(1.47066 0.264553 -4.08527e-20)
(1.42753 0.263581 -4.43311e-20)
(1.35526 0.172626 1.81504e-20)
(1.39778 0.270154 -3.43608e-20)
(1.34682 0.276882 0)
(1.198 0.170007 5.53252e-24)
(1.1894 0.159817 0)
(1.45759 0.186493 -3.31967e-21)
(1.48738 0.195609 -1.33189e-22)
(1.41838 0.170343 0)
(1.43564 0.177861 0)
(1.38559 0.155652 0)
(1.40173 0.162463 -2.64879e-23)
(1.35111 0.140735 7.14e-22)
(1.36835 0.148373 1.07673e-23)
(1.31895 0.126244 1.1831e-21)
(1.33457 0.133529 0)
(1.28984 0.112676 -5.20692e-22)
(1.30402 0.119395 0)
(1.2636 0.0999024 1.62526e-22)
(1.27634 0.106163 1.98121e-23)
(1.24005 0.0881482 -3.87983e-22)
(1.25151 0.0939173 4.04074e-23)
(1.21899 0.0771286 1.61173e-22)
(1.22921 0.0825525 0)
(1.20032 0.0669647 0)
(1.2094 0.072085 0)
(1.18361 0.0575523 1.01424e-22)
(1.19168 0.0622435 1.3854e-23)
(1.16908 0.0487885 9.76448e-23)
(1.1761 0.0531381 -1.43862e-24)
(1.15642 0.0406384 -8.19944e-23)
(1.16253 0.0446894 -1.20129e-24)
(1.1455 0.0330323 5.90824e-23)
(1.15075 0.0368121 0)
(1.13619 0.0259054 0)
(1.14065 0.0294478 -1.90966e-24)
(1.12842 0.019217 4.66702e-23)
(1.13212 0.0225464 6.60779e-25)
(1.12206 0.0129079 -3.01956e-23)
(1.12507 0.0160492 1.8239e-24)
(1.11708 0.00693355 0)
(1.1194 0.00991112 -1.46161e-24)
(1.11345 0.00125688 6.91534e-25)
(1.1151 0.00408773 -9.95012e-25)
(1.11116 -0.0041662 1.89843e-23)
(1.11214 -0.0014567 -4.83544e-25)
(1.11024 -0.0093644 -8.0845e-24)
(1.11053 -0.00676687 1.88417e-25)
(1.11076 -0.014375 0)
(1.11031 -0.011867 9.49089e-26)
(1.11284 -0.0192128 -4.26501e-26)
(1.11159 -0.016788 9.05733e-26)
(1.11673 -0.0239442 5.58241e-24)
(1.11452 -0.0216045 0)
(1.12261 -0.0285526 0)
(1.11943 -0.0262501 0)
(1.13082 -0.033254 1.48408e-23)
(1.12645 -0.0309109 1.44386e-24)
(1.13566 -0.0354854 -1.51835e-23)
(1.14794 -0.0426961 -3.98072e-23)
(1.15059 -0.0414389 -1.02944e-22)
(1.14962 -0.042142 5.54774e-23)
(1.14436 -0.0436859 -1.08058e-26)
(1.1463 -0.0432068 0)
(1.14016 -0.0448497 -8.45003e-23)
(1.14235 -0.044249 -2.34613e-22)
(1.13773 -0.0454403 -4.70406e-22)
(1.17314 0.141132 -4.36727e-25)
(1.18117 0.150284 -1.26575e-23)
(1.15761 0.123467 -9.6566e-25)
(1.16525 0.132178 0)
(1.14364 0.107535 -6.18226e-25)
(1.15041 0.115265 1.91329e-25)
(1.13125 0.0932619 1.37499e-24)
(1.13725 0.100207 4.1914e-26)
(1.12038 0.0804245 -7.11551e-26)
(1.12563 0.0866749 -1.2321e-24)
(1.11092 0.0687835 -1.5723e-24)
(1.11548 0.0744704 -8.89524e-27)
(1.10274 0.0581382 -5.7157e-26)
(1.10667 0.063345 1.55265e-24)
(1.09577 0.048358 3.00665e-26)
(1.09911 0.053148 0)
(1.08993 0.0393186 1.56718e-26)
(1.09271 0.0437532 1.9278e-27)
(1.08519 0.0309088 1.17665e-27)
(1.08743 0.0350417 1.00101e-27)
(1.0815 0.0230285 0)
(1.08321 0.0269079 0)
(1.07884 0.0155948 2.62426e-28)
(1.08004 0.0192607 -2.64914e-28)
(1.07724 0.00853237 -1.2514e-28)
(1.07791 0.0120216 0)
(1.07671 0.00177333 -2.45345e-28)
(1.07684 0.00511889 0)
(1.07733 -0.00474266 -1.07908e-24)
(1.07687 -0.00151157 0)
(1.07921 -0.0110708 -1.08171e-24)
(1.07811 -0.00792672 1.08311e-24)
(1.08252 -0.0172688 4.99579e-28)
(1.08067 -0.0141821 1.08575e-24)
(1.08749 -0.0233873 -1.06243e-24)
(1.08478 -0.0203368 0)
(1.09446 -0.0294566 3.87911e-27)
(1.0907 -0.0264284 1.0664e-24)
(1.10377 -0.035492 1.64374e-26)