/*--------------------------------*- C++ -*----------------------------------*\
  =========                 |
  \\      /  F ield         | OpenFOAM: The Open Source CFD Toolbox
   \\    /   O peration     | Website:  https://openfoam.org
    \\  /    A nd           | Version:  10
     \\/     M anipulation  |
\*---------------------------------------------------------------------------*/
FoamFile
{
    format      ascii;
    class       surfaceScalarField;
    location    "35";
    object      phi;
}
// * * * * * * * * * * * * * * * * * * * * * * * * * * * * * * * * * * * * * //

dimensions      [0 3 -1 0 0 0 0];

internalField   nonuniform List<scalar> 
57492
(
0.000239462
-1.08014e-05
-4.44382e-05
-0.000184222
-0.000165417
0.000271985
0.000132893
-2.88821e-05
8.12331e-05
0.000324749
-0.0003771
0.00315952
0.00338651
-0.000271958
-0.00627407
-0.00862819
0.00404533
0.00774238
0.000901623
-0.000833472
-0.000436581
0.00036843
-0.00161373
0.000293121
-0.000109026
0.00142963
0.000339559
-0.00105166
0.00155669
-0.00463208
0.00442587
-0.00135047
0.00131588
0.00425031
-0.0040095
-0.000629179
-0.00021243
0.000703569
0.000138041
-0.000124764
-0.000851203
0.000346787
0.000238494
-0.000333587
-2.96707e-05
-5.49059e-05
8.09695e-05
0.00209232
-0.0020114
-0.000755255
0.000674332
0.000293751
0.00168635
0.000112221
-0.000324006
0.000787725
0.00333643
-0.00380015
-0.000660561
0.00326227
-0.00292571
0.00013559
-0.000288974
0.000153384
-0.00166628
0.00122191
0.000579959
-0.00466333
0.000192336
0.00333916
0.00113183
0.00122572
-0.00473297
-0.00115609
-0.000133894
-0.000203116
-0.00071177
0.00104878
-0.000291781
0.000180199
-2.23125e-05
-0.00257417
0.00218179
0.000745004
-0.000352617
-0.00307208
0.000922197
-0.000424285
-0.00112765
0.000596143
0.000456955
7.45512e-05
-0.000779011
-0.000362184
1.35455e-05
-0.00036802
-0.0011364
0.00129437
0.000210046
-0.000416999
0.000116715
-6.77363e-05
0.000939302
-0.000626153
-0.000583004
0.000269855
-0.000811332
0.00064387
0.00110676
-0.00110635
-0.00212038
0.00202541
0.00120132
-0.00249046
-0.000602992
0.00198711
-0.000708656
-0.000152495
0.000861151
-0.000271799
-0.000436857
-0.00137674
0.00189524
-0.000790305
0.000203425
-0.000768516
-0.000811646
-0.00072018
0.0010133
-0.000233432
-0.00190172
0.00115076
0.00075096
-0.00432141
0.00241969
0.00487191
-0.00101963
0.000540988
-0.00439326
0.00360495
0.000109016
0.00115794
-0.000917726
0.00480196
-0.00490386
0.0017599
0.000373392
-0.00179374
0.00176855
-0.000117674
0.00213112
-0.000798003
-0.00158428
0.000251165
0.00238683
0.000117672
0.00110956
-0.000685715
0.0013447
0.0010498
0.0014894
-0.00472314
-0.000654901
0.000575389
0.00480265
-0.0048559
-0.000322742
0.000455509
0.0011887
0.00451343
-0.00443741
-0.00126472
0.000858889
-0.00430227
-0.00283805
0.00255567
0.00257621
-0.00229383
-0.000312553
0.00323406
-0.00575955
1.4965e-05
-0.000119825
-8.04742e-07
0.000105665
-0.000328258
9.63547e-06
6.88063e-05
-0.000138722
-0.000258342
-5.79188e-05
6.89989e-06
1.17255e-05
-1.25303e-05
9.16696e-06
2.55857e-06
0.00733939
0.00378546
-0.00590245
-0.00522239
0.002331
-0.000697178
0.00570556
-0.00788283
0.00308718
0.00712665
0.0022813
-0.00637867
0.00162161
-0.00286824
0.00213667
-0.000890035
0.00235998
-0.00291728
0.0021789
-3.03205e-05
2.21451e-05
-2.62598e-06
-7.1221e-05
-3.53768e-06
-0.000225899
-2.95436e-05
-0.00294351
0.00535673
0.00339127
-0.00580448
0.00436182
-0.00494535
0.00298186
0.0047567
-0.00238183
0.0101486
-0.00151714
-0.00177862
-0.00685281
0.002218
0.0054644
0.00246617
0.00158846
-0.00504931
0.00567885
4.70036e-05
-7.58856e-05
0.000128237
0.000820168
0.00176279
-0.000628235
-0.00195473
0.00104474
0.000100178
-9.72097e-05
2.67943e-05
7.04154e-05
-0.000301576
0.000204366
-0.00662364
0.00342252
-0.00201588
0.00521701
-0.00575296
-0.00251183
0.00164115
-0.00262967
0.00209533
-0.00521862
0.00195719
-2.64828e-05
-0.000946475
-0.000984232
-0.000713466
0.00223335
0.000437306
-0.000836931
-8.5443e-05
0.000208908
-0.000773573
-8.98417e-05
-0.000272054
-0.00144799
-0.000249042
-6.43747e-05
2.02793e-05
0.000293138
-0.000222595
-0.000542815
0.000516368
0.000142529
1.74231e-05
-0.000382547
8.24476e-05
-4.29348e-06
0.000105286
-2.5587e-06
-0.000642634
0.00037058
8.35143e-05
-0.000726149
0.000173627
-0.000475202
0.00427353
0.00333167
-0.000178487
0.00212873
-0.00648339
-1.02455e-05
0.00226376
-0.0017974
-0.000456117
0.000291972
0.0031639
-0.00346612
0.00328078
0.00188328
-0.000540396
-0.00462367
-0.0010113
0.000469089
0.00382299
0.00403856
-0.00316658
-0.0016386
-0.00303602
0.00124312
0.0034315
-0.00119154
0.00350775
-0.00395482
0.000415842
-0.0046434
8.51612e-05
3.50353e-05
-4.77998e-06
0.00106223
-0.000625227
-0.00060242
7.86953e-05
-0.000333507
0.00131704
0.00037013
-1.9449e-05
-0.00018735
0.000332374
6.84141e-05
-0.000213438
0.000993344
-0.00121735
3.66591e-05
-0.000358264
0.00083227
0.000519337
-0.000125338
9.94485e-05
-0.00613637
0.00364737
0.00591152
0.00773074
-0.00201832
-0.00822425
-0.00286949
0.00446386
-9.71541e-05
-0.000876067
-0.000163176
-0.000523339
9.18523e-06
4.77175e-05
-0.000130244
3.76266e-05
4.48999e-05
-0.000130035
0.00014433
3.34229e-05
-0.000299076
3.87969e-05
-0.000265952
-0.000313361
5.59749e-05
-0.000805541
-0.000336478
-0.00100272
-0.00107742
0.00123379
0.000846344
4.15252e-05
0.000528311
-0.00157256
-0.0014072
0.000371309
-0.00293842
0.00133201
-5.98693e-05
-0.00350653
0.000809019
-0.00024091
0.000876268
-0.00334721
0.00256388
-9.29417e-05
0.000679245
-0.002728
0.00292502
0.00252847
-0.0101971
-0.00176984
0.00218621
0.00302543
-0.00346326
0.00206488
-0.000322134
4.26866e-07
1.69962e-05
-3.56448e-06
3.99133e-06
0.000284836
-4.13544e-05
0.00551081
-0.00333602
-0.00231294
0.000138149
0.004734
-0.000140917
0.0046978
0.00012151
-0.00513187
0.00135415
0.00333931
4.34437e-06
0.000528533
-0.00296256
0.00378818
5.60757e-06
-9.17205e-06
0.000760408
-0.00212489
-0.0028535
0.00123625
0.00309243
0.00105756
-5.94918e-05
-0.00111215
0.000114083
0.000348939
-0.000102713
-0.00135822
0.0002916
0.00171049
0.000243664
-0.00125295
-0.000135002
7.49963e-05
-6.60175e-06
1.04302e-05
-3.46635e-06
-3.62125e-07
1.1198e-05
-2.69667e-07
-1.75301e-05
4.84744e-05
-0.000104624
6.7348e-05
-0.00173803
0.00268015
-0.000768489
0.00293183
-0.00381559
-0.000854261
3.99507e-06
-0.00185354
0.00214115
-0.00401437
0.000245105
-0.00275041
-0.00184443
0.000580472
0.00269725
0.00291122
-0.00541613
0.00260367
0.00430062
-0.00420704
0.00223962
-0.00308599
0.001608
-0.000761636
0.00245442
-0.00302527
0.00281047
0.00437634
0.00187404
0.00497785
-0.000252622
-0.0049461
0.00022088
0.00551099
-0.000678879
0.000145732
0.00552873
-0.000882481
5.86175e-05
-0.00470486
0.00397024
-0.00135434
0.00291282
0.00431025
-0.00139564
0.00113181
-0.00404642
0.00125931
0.00439117
-0.00134022
-0.00387909
-0.00165848
0.00414193
0.0010587
-0.00369467
-0.00185051
0.00362353
-0.00237133
-0.0032437
0.00214585
0.00346918
-0.00238899
-0.00327224
0.0032899
0.00222989
0.00305158
-0.00147013
-0.00381134
0.00302567
-0.00318476
-0.00258423
0.00260698
0.00300292
-0.00203748
0.00250483
-0.00407355
0.00361975
-0.00101633
-0.00507239
0.00104876
0.00538188
-0.00135825
0.00190762
-0.000279901
0.00102794
-0.00109251
0.000344465
-0.000120495
0.00131658
-0.00147598
-5.41408e-05
0.000311797
0.000112473
-0.00135795
-0.00210243
0.00136449
-6.54875e-08
-2.04179e-07
3.04383e-07
-3.69866e-07
-0.000130169
-0.00233123
0.00177568
-0.00206385
-8.89384e-05
0.00202262
6.20686e-05
-0.00216338
3.74664e-05
-0.0003452
0.00188641
0.000372671
-0.00191388
0.00197996
0.000492658
-0.00281782
0.0019062
0.00196018
-2.59535e-06
5.33257e-07
3.70974e-05
-4.81675e-06
2.22141e-06
-4.2835e-06
-5.72334e-06
4.48773e-06
-5.66832e-05
1.14265e-06
-6.86599e-06
5.63038e-06
-4.47726e-05
2.16664e-05
-0.000268675
2.27178e-05
-6.74904e-05
4.43842e-05
5.32916e-05
-5.35117e-06
-0.000173279
-1.69374e-05
7.0229e-05
-2.22886e-05
0.00140334
0.0032966
-0.00423086
0.001367
-0.00450444
0.00454078
0.00472523
-6.16223e-05
-0.00118307
-0.00244469
0.0011589
0.00246885
-0.000709998
0.00272171
-0.00319478
0.000158025
-0.00331271
0.00418578
-0.00422144
-1.35394e-05
4.92009e-05
0.00418757
3.75071e-05
-3.9296e-05
-2.64463e-05
-0.00421091
1.59124e-05
0.00422229
-1.69931e-06
-3.30164e-05
0.00430054
6.10067e-05
-0.000139258
2.97594e-05
0.00441065
-0.000139873
0.00435751
-0.00432882
1.06475e-06
-0.00020576
0.00461952
-3.11041e-06
0.00423892
-8.71717e-05
-0.00419319
-7.4617e-05
-0.00417546
-1.94317e-05
-0.00416606
2.81024e-05
-0.0042515
7.19024e-05
-0.0041778
-0.000100146
-0.000199782
0.00482248
-3.1774e-06
0.00404325
-4.11224e-06
-2.10909e-05
-0.00417094
-1.88818e-05
-0.00420726
8.37453e-06
-2.97805e-05
-0.00440666
0.000265503
-8.23667e-07
0.00482589
-2.58574e-06
0.00404678
-4.34932e-06
-0.00435657
0.000119527
0.00482921
-6.40884e-07
-2.68178e-06
-7.70307e-07
0.00483209
-2.10324e-06
0.00404981
-3.66714e-06
0.00405299
-3.9532e-06
-2.50708e-05
-0.00437447
-7.11671e-06
-0.0043742
-7.43996e-06
-5.17696e-07
0.00483485
-2.24131e-06
0.00405576
-3.28653e-06
-3.20369e-07
-0.00436668
-7.47039e-06
-0.0043662
-8.3224e-06
-5.21764e-07
0.00483705
-1.68266e-06
0.00405884
-3.60568e-06
-1.35295e-07
-0.00435817
-8.37608e-06
-0.0043579
-8.43072e-06
-7.64669e-10
0.00483891
-1.85948e-06
0.00406179
-2.94836e-06
-1.89299e-07
-0.0043492
-8.78469e-06
-0.00434873
-9.3651e-06
4.80661e-07
0.00483974
-1.31395e-06
0.00406557
-3.30082e-06
2.34288e-08
-0.00433948
-9.74342e-06
-0.00433914
-9.56203e-06
1.9859e-06
0.00483928
-1.52038e-06
0.00407021
-2.65688e-06
1.00374e-05
-0.00433928
-1.02357e-05
-0.00431854
-1.05608e-05
4.47157e-06
0.00483579
-9.88251e-07
0.00407771
-3.02976e-06
2.83272e-05
-0.00420674
-0.000160863
-0.0042347
-5.55176e-05
9.96363e-06
0.00482705
-1.22318e-06
0.00407121
1.64708e-05
2.80348e-05
-0.00421628
-1.84923e-05
-0.00419255
-1.41124e-05
2.03315e-05
0.00480742
-6.99362e-07
0.00404409
4.74503e-05
6.00362e-05
-0.00405663
-0.000219692
-0.00406062
-7.18926e-05
0.000205375
0.004603
-9.51534e-07
0.0041685
8.09617e-05
6.887e-05
-0.00402667
-9.88246e-05
-0.00400466
1.29089e-05
0.000181334
0.00426496
0.000156704
0.00423854
0.000111291
0.000109345
-0.000166801
-0.00396922
-0.00397659
8.12767e-05
1.19799e-05
4.0667e-05
0.00421231
0.0042122
3.83295e-05
-0.00404241
0.00411772
-0.00017413
-0.00405285
-0.000156361
0.000185923
-0.000175261
-0.00397988
8.03858e-05
-0.00387106
-0.00404005
0.00408556
-6.40026e-05
-0.000142019
-0.00394625
0.00395587
-1.98581e-05
-2.15505e-05
-0.00396481
0.00397319
-1.71707e-05
-1.86829e-05
-0.00398099
0.00398832
-1.48015e-05
-1.61751e-05
-0.00399517
0.00427342
-1.2744e-05
-1.39682e-05
-0.00426663
0.00421301
6.95269e-05
-1.20858e-05
-0.00435318
0.0043233
-9.41825e-06
-9.09687e-05
-0.00418862
0.00413092
-8.15591e-05
0.000101664
-0.00403606
0.00403985
-6.89871e-06
-4.50129e-05
-0.00404337
0.00404669
-5.90293e-06
-6.69771e-06
-0.00404979
0.00405271
-5.02886e-06
-5.77799e-06
-0.00405544
0.00405802
-4.26495e-06
-4.97258e-06
-0.00406043
0.00406272
-3.59577e-06
-4.2694e-06
-0.00406485
0.00406687
-3.00745e-06
-3.65282e-06
-0.00406875
0.00407054
-2.48517e-06
-3.1104e-06
-0.00404814
0.00414471
6.01306e-05
2.14476e-05
0.00413556
4.9822e-05
-2.60503e-05
8.11101e-05
0.00415725
-5.34751e-06
0.00419149
0.00415942
-0.00408952
1.10591e-05
-0.00420121
0.00419346
4.60827e-05
6.94997e-05
0.00408763
-0.00406687
-4.28914e-06
4.55639e-05
0.00406487
-0.00406272
-4.80949e-06
-5.03511e-06
0.00406045
-0.00405801
-5.38751e-06
-5.57049e-06
0.00405544
-0.00405268
-6.04755e-06
-6.17636e-06
0.00404976
-0.00404663
-6.80157e-06
-6.8695e-06
0.00404331
-0.00403975
-7.66942e-06
-7.66447e-06
0.00411834
-0.00410862
-8.65999e-06
-8.58391e-06
0.00417361
-0.00412425
-6.87958e-05
-9.61936e-06
0.00409285
-0.00406134
4.03951e-05
-3.30172e-06
0.00410712
-0.0041283
2.95536e-05
-5.43623e-05
0.00399499
-0.00398813
-1.43027e-05
-1.37825e-05
0.00398083
-0.00397297
-1.62899e-05
-1.56187e-05
0.00396461
-0.0039556
-1.85713e-05
-1.7728e-05
0.00394601
-0.00398033
-2.11978e-05
-2.01543e-05
0.00397149
-0.00401916
-2.42234e-05
-2.2947e-05
0.00398006
-0.00391035
1.15624e-05
-2.61915e-05
-0.00385541
2.54442e-05
-0.00407067
-0.000157448
0.00414948
6.71886e-05
-2.49802e-06
0.00419061
0.000131665
-0.000131211
-0.00387151
8.84601e-05
-0.0038122
0.000149451
-0.00015483
-0.00406529
-0.00396164
-0.00402127
0.00396709
-0.000119952
0.00405538
-0.00407643
-0.000136403
-0.000122251
-0.00392699
0.00393774
-7.47527e-05
-0.000101915
-0.00394787
0.00395738
-2.93671e-05
-3.16784e-05
-0.00396621
0.00397449
-2.54559e-05
-2.75148e-05
-0.0039822
0.00398943
-2.20374e-05
-2.38777e-05
-0.00399617
0.00400249
-1.90637e-05
-2.0705e-05
-0.00400837
0.0040944
-1.65014e-05
-1.79646e-05
-0.00401902
0.00402388
-1.42696e-05
-1.55968e-05
-0.00413908
0.00406987
-1.23458e-05
-1.35395e-05
-0.00403659
0.00404034
-1.0648e-05
-1.17399e-05
-0.00404383
0.00404712
-9.19285e-06
-1.01876e-05
-0.00405019
0.00405309
-7.92756e-06
-8.84571e-06
-0.00405579
0.00405835
-6.82343e-06
-7.67753e-06
-0.00406074
0.004063
-5.85749e-06
-6.65803e-06
-0.00406512
0.00406712
-5.00969e-06
-5.76556e-06
-0.00406899
0.00407076
-4.25797e-06
-4.98122e-06
-0.00407211
0.00410639
2.58527e-05
2.00961e-05
9.32812e-06
-1.91441e-05
0.00416707
8.97023e-07
0.00415791
-0.00409532
0.00413702
2.54886e-05
6.08892e-05
0.00413836
-0.00413813
4.58507e-05
0.00410615
2.97153e-05
-6.04061e-07
4.60339e-05
0.00414518
0.00417174
0.00413749
-0.00410593
-2.04981e-05
6.88585e-05
0.00406903
-0.00406713
-6.18415e-06
8.66052e-06
0.00406514
-0.004063
-6.94611e-06
-7.02772e-06
0.00406075
-0.00405833
-7.80432e-06
-7.82126e-06
0.00405579
-0.00405305
-8.7846e-06
-8.72484e-06
0.00405016
-0.00404705
-9.90597e-06
-9.75902e-06
0.00404377
-0.00404025
-1.11913e-05
-1.09446e-05
0.00403653
-0.00403253
-1.26629e-05
-1.23061e-05
0.00402828
-0.00408273
-1.43543e-05
-1.38624e-05
0.00407037
-0.00401369
-1.62859e-05
-1.56552e-05
0.00405033
-0.00400225
-1.85322e-05
-1.77222e-05
0.00399593
-0.00398914
-2.10984e-05
-2.00939e-05
0.00398192
-0.00397414
-2.40655e-05
-2.2839e-05
0.00396587
-0.00395696
-2.74827e-05
-2.60006e-05
0.00394747
-0.00393725
-3.14187e-05
-2.96439e-05
0.00392636
-0.00391464
-3.59448e-05
-3.38385e-05
0.00390216
-0.00384948
-4.11208e-05
-3.86626e-05
0.00381391
-0.00374783
2.23865e-05
-1.01301e-05
-0.00409114
-0.00014012
7.16452e-05
-0.000145129
-0.00373872
-0.00370956
3.33763e-05
-0.00021738
-0.00379926
2.4483e-05
0.00411344
0.00411344
3.87382e-05
-9.13643e-05
0.000100064
-0.00407399
-0.000103368
-0.00407914
4.32975e-05
-0.000140869
-0.00364115
3.57182e-06
-0.00366984
-0.00407896
0.00414772
-0.00413442
1.21893e-05
0.00410629
6.59105e-05
7.07822e-05
-2.9947e-05
0.00410435
4.45127e-05
0.00413971
-0.00403777
0.00409622
-0.000161825
-0.000161558
0.000124806
-0.00404238
0.00411368
-3.13317e-05
0.000263794
-0.00434614
-8.56475e-05
-0.00410501
0.00408507
-0.000116465
-0.000148905
-0.00404386
0.00399004
-6.61318e-05
-8.10391e-05
-0.00397054
0.00394035
-4.45558e-05
-8.24177e-05
-0.00395029
0.00395961
-3.86896e-05
-4.16203e-05
-0.00396827
0.00397639
-3.35809e-05
-3.61743e-05
-0.00398395
0.00399105
-2.91347e-05
-3.14325e-05
-0.00399765
0.00400386
-2.52732e-05
-2.73102e-05
-0.00400964
0.00401507
-2.19304e-05
-2.37393e-05
-0.00402012
0.00402488
-1.90336e-05
-2.0651e-05
-0.00402931
0.00403349
-1.65243e-05
-1.79706e-05
-0.0040374
0.00404108
-1.43338e-05
-1.56443e-05
-0.00404452
0.00404776
-1.2436e-05
-1.36232e-05
-0.00405079
0.00405364
-1.0786e-05
-1.18702e-05
-0.00405631
0.00405884
-9.34728e-06
-1.03451e-05
-0.00406119
0.00406342
-8.08941e-06
-9.01451e-06
-0.00406551
0.00406749
-6.98669e-06
-7.85072e-06
-0.00406933
0.00407109
-6.01267e-06
-6.82933e-06
-0.00408396
0.00409228
1.75297e-05
7.22438e-06
1.87548e-05
2.67123e-05
-1.04159e-05
0.00415077
-4.24728e-05
9.90519e-06
0.00414601
0.00414215
0.00413138
0.00412703
-0.00412143
4.02474e-05
-0.00412223
0.00410082
6.01562e-05
3.45122e-05
0.00407278
-0.0040861
-7.17425e-06
2.02104e-05
0.00406937
-0.0040675
-8.05747e-06
-8.07052e-06
0.00406553
-0.00406342
-9.05608e-06
-8.99485e-06
0.0040612
-0.00405882
-1.01899e-05
-1.00433e-05
0.0040563
-0.0040536
-1.14852e-05
-1.12397e-05
0.00405075
-0.00404769
-1.29671e-05
-1.26089e-05
0.00404446
-0.00404098
-1.46645e-05
-1.41778e-05
0.00403731
-0.00403336
-1.66099e-05
-1.59769e-05
0.00402919
-0.00402469
-1.88453e-05
-1.80416e-05
0.00401993
-0.00401481
-2.14116e-05
-2.0416e-05
0.00400938
-0.00400354
-2.43729e-05
-2.31534e-05
0.00399733
-0.00399065
-2.77797e-05
-2.63026e-05
0.00398355
-0.0039759
-3.17085e-05
-2.99378e-05
0.00396778
-0.00395902
-3.62351e-05
-3.41287e-05
0.00394971
-0.00393968
-4.1446e-05
-3.8958e-05
0.00392901
-0.00391752
-4.74308e-05
-4.45139e-05
0.0039053
-0.00389214
-5.42762e-05
-5.0888e-05
0.0038441
-0.0037596
-6.21155e-05
-5.81696e-05
0.00370452
-0.00369778
-3.17208e-06
-2.17017e-05
1.48757e-05
-2.95638e-05
-0.00365515
-0.00366408
-1.88246e-05
0.000134394
-0.00408358
-9.35905e-05
-0.00384654
3.74456e-05
0.00407875
0.00411593
2.93988e-05
0.000175767
-0.00424948
2.37955e-05
-0.00369451
0.000885938
-0.00339249
0.00441275
-6.44835e-06
-3.27846e-05
-0.00362484
-5.86314e-05
-0.00360297
-0.00268353
0.00410275
0.000540954
-0.00206351
-0.000247347
-0.00403815
-0.0039085
0.00408875
8.35437e-05
0.000260861
-6.66072e-05
-0.00406209
0.00403778
-0.000137511
-5.89922e-05
-0.00401697
0.00397316
-7.26499e-05
-0.000128098
-0.00395987
0.00395695
-6.32075e-05
-6.77573e-05
-0.00393348
0.00394386
-5.493e-05
-5.895e-05
-0.0039535
0.00396256
-4.7742e-05
-5.12681e-05
-0.00397098
0.00397888
-4.14876e-05
-4.45934e-05
-0.00398624
0.00399315
-3.60506e-05
-3.87896e-05
-0.00399959
0.00400565
-3.13302e-05
-3.3749e-05
-0.00401129
0.0040166
-2.72386e-05
-2.93783e-05
-0.00402154
0.0040262
-2.36922e-05
-2.55931e-05
-0.00403054
0.00403463
-2.06162e-05
-2.23115e-05
-0.00403845
0.00404206
-1.79409e-05
-1.94635e-05
-0.00404542
0.0040486
-1.56152e-05
-1.69883e-05
-0.00405157
0.00405437
-1.3591e-05
-1.48367e-05
-0.00405699
0.00405947
-1.18254e-05
-1.29634e-05
-0.00406178
0.00406398
-1.02822e-05
-1.1329e-05
-0.00406603
0.00406797
-8.93009e-06
-9.89981e-06
-0.00406979
0.00407152
-7.74042e-06
-8.64693e-06
-0.00408628
0.0041105
-6.69078e-06
-7.54268e-06
-0.00410191
0.00410064
1.34624e-05
2.73432e-05
-0.00411789
0.00411423
4.10991e-05
4.86646e-05
5.53493e-05
-3.08661e-05
0.00412152
-3.24818e-05
4.0248e-06
0.00414269
0.00410162
4.00141e-05
1.58164e-05
0.00409494
0.0041513
-2.65525e-05
1.68085e-05
0.00411409
0.00412065
-2.05653e-05
-9.93159e-07
0.00413749
0.00413596
0.00413897
-0.00412333
4.45187e-05
-0.00420387
0.00409279
0.000110085
-3.54984e-05
0.004112
-0.00410217
3.04143e-05
2.31784e-05
0.00407318
-0.00407154
-8.8108e-06
-8.77708e-06
0.00406983
-0.00406798
-9.89805e-06
-9.78729e-06
0.00406605
-0.00406398
-1.11303e-05
-1.09287e-05
0.00406179
-0.00405945
-1.2534e-05
-1.22273e-05
0.00405698
-0.00405433
-1.41376e-05
-1.37104e-05
0.00405153
-0.00404852
-1.59721e-05
-1.54073e-05
0.00404535
-0.00404194
-1.80729e-05
-1.73509e-05
0.00403834
-0.00403447
-2.04816e-05
-1.95796e-05
0.00403037
-0.00402597
-2.32483e-05
-2.21387e-05
0.0040213
-0.00401628
-2.6429e-05
-2.50812e-05
0.00401097
-0.00400525
-3.0092e-05
-2.847e-05
0.00399918
-0.00399265
-3.43103e-05
-3.23731e-05
0.00398571
-0.00397825
-3.91713e-05
-3.68733e-05
0.00397032
-0.00396178
-4.47696e-05
-4.20599e-05
0.00395271
-0.00394295
-5.12085e-05
-4.80327e-05
0.00393256
-0.0039214
-5.85962e-05
-5.48976e-05
0.00390952
-0.00389675
-6.70424e-05
-6.27642e-05
0.00388318
-0.00386862
-7.66718e-05
-7.17453e-05
0.00380836
-0.00372391
-8.76241e-05
-8.1961e-05
0.00371267
-0.00368286
-6.25929e-05
-3.00694e-05
-2.95697e-05
1.51725e-05
-0.00361045
-0.00364025
-7.21783e-05
0.000130386
-0.00403819
-2.58919e-05
-0.00379685
0.000331344
-0.00369489
2.57105e-05
-0.00377885
0.00411614
-0.00412114
4.61053e-05
0.00410262
1.75463e-05
4.71294e-05
-3.16046e-05
0.00412196
8.27293e-06
0.00413165
0.000340049
-0.00323988
4.95846e-05
-0.00363738
-0.00186676
-0.00211064
-0.00318255
0.00368089
4.26158e-05
-8.30654e-06
1.32676e-05
-0.00361541
-4.9615e-05
-0.00359894
-0.00293769
-0.000492209
-0.00393366
-0.0038575
0.00392264
1.83967e-05
8.42499e-05
-0.00396809
0.00392842
-9.78417e-05
-0.00010444
-0.00389166
0.00390444
-8.54308e-05
-9.13391e-05
-0.00391642
0.0039277
-7.44932e-05
-7.97294e-05
-0.00393825
0.00394819
-6.48683e-05
-6.95019e-05
-0.00395746
0.00396617
-5.64561e-05
-6.05346e-05
-0.00397429
0.00398193
-4.91233e-05
-5.27122e-05
-0.00398904
0.00399573
-4.27442e-05
-4.59032e-05
-0.00400197
0.00400784
-3.72028e-05
-3.99862e-05
-0.00401332
0.00401847
-3.23945e-05
-3.48512e-05
-0.00402328
0.00402781
-2.82234e-05
-3.03986e-05
-0.00403204
0.00403602
-2.46028e-05
-2.65367e-05
-0.00403974
0.00404326
-2.14553e-05
-2.31837e-05
-0.00404654
0.00404964
-1.87163e-05
-2.02687e-05
-0.00405253
0.00405527
-1.63298e-05
-1.77319e-05
-0.00405783
0.00406025
-1.42473e-05
-1.55214e-05
-0.00406251
0.00406466
-1.24266e-05
-1.35918e-05
-0.00406666
0.00406857
-1.08319e-05
-1.19044e-05
-0.00407034
0.00407204
-9.43176e-06
-1.04261e-05
-0.00407362
0.00407513
-8.19714e-06
-9.12657e-06
-0.00411045
0.00409745
2.646e-05
-7.9808e-06
2.49743e-05
4.2113e-05
-6.92801e-05
0.00414869
-1.55043e-05
2.78216e-05
0.00413037
0.00412823
-1.96888e-07
-9.15521e-07
0.00409606
0.00408182
-3.79621e-05
5.64172e-05
0.00409564
0.00408177
0.00416077
0.00414165
-0.00412836
3.12304e-05
-0.00409123
0.00413351
6.78024e-05
1.49245e-05
0.00411486
-0.00407516
-9.2785e-06
9.67084e-06
0.00407367
-0.00407206
-1.04132e-05
-1.02749e-05
0.00407038
-0.00406858
-1.16986e-05
-1.14679e-05
0.00406669
-0.00406466
-1.31602e-05
-1.28214e-05
0.00406252
-0.00406023
-1.48269e-05
-1.43642e-05
0.00405781
-0.00405522
-1.67308e-05
-1.61265e-05
0.00405249
-0.00404955
-1.89081e-05
-1.81423e-05
0.00404645
-0.00404312
-2.14012e-05
-2.04505e-05
0.0040396
-0.00403583
-2.42596e-05
-2.30967e-05
0.00403183
-0.00402754
-2.75414e-05
-2.61346e-05
0.00402299
-0.00401811
-3.1314e-05
-2.96266e-05
0.00401293
-0.00400737
-3.56554e-05
-3.36454e-05
0.00400147
-0.00399513
-4.06535e-05
-3.82732e-05
0.00398839
-0.00398116
-4.64088e-05
-4.36048e-05
0.00397347
-0.00396521
-5.30313e-05
-4.9745e-05
0.00395643
-0.003947
-6.06402e-05
-5.68089e-05
0.00393698
-0.00392622
-6.9359e-05
-6.4918e-05
0.00391478
-0.00390251
-7.93127e-05
-7.41977e-05
0.00388949
-0.00387553
-9.06264e-05
-8.47729e-05
0.00386073
-0.00384495
-0.000103412
-9.67595e-05
0.00376477
-0.00370967
-0.000117688
-0.000110246
0.00365656
-0.00361131
-9.4863e-05
-0.000125293
-1.79557e-05
3.2085e-05
-0.00361307
-0.00357411
-5.51555e-05
0.000100164
-0.00380701
4.68806e-06
-0.00377583
4.57596e-05
0.00408468
0.00411895
2.28325e-05
0.000203922
-0.00355876
-0.000405073
-0.00427951
-1.79587e-05
-0.00362699
2.77003e-05
-0.00375696
5.30095e-05
-0.00367712
-0.00420623
-0.000842093
0.000250863
-0.000553286
-0.00390381
-0.000233963
-0.00379468
1.77797e-05
-0.0036011
-6.28835e-05
-1.37008e-05
-0.00353649
-4.21902e-05
-0.0035948
-0.00382881
-0.00348972
0.00366245
-0.000130116
0.00365456
-0.004
-0.000496654
-0.000327372
-0.00379115
0.00385947
-4.99249e-05
-4.4441e-05
-0.00387355
0.00388698
-0.00011128
-0.00011852
-0.00389969
0.00391175
-9.74862e-05
-0.000104044
-0.00392307
0.00393376
-8.51921e-05
-9.10489e-05
-0.00394378
0.00395324
-7.43235e-05
-7.95209e-05
-0.00396207
0.0039704
-6.47824e-05
-6.93701e-05
-0.00397817
0.00398549
-5.64445e-05
-6.04841e-05
-0.00399232
0.00399876
-4.91796e-05
-5.27336e-05
-0.00400476
0.00401042
-4.28613e-05
-4.59896e-05
-0.0040157
0.00402068
-3.73724e-05
-4.013e-05
-0.00402532
0.0040297
-3.26059e-05
-3.5043e-05
-0.00403379
0.00403766
-2.84647e-05
-3.06265e-05
-0.00404126
0.00404467
-2.48629e-05
-2.67892e-05
-0.00404785
0.00405086
-2.17263e-05
-2.34511e-05
-0.00405367
0.00405633
-1.89912e-05
-2.05437e-05
-0.00405882
0.00406118
-1.66029e-05
-1.80081e-05
-0.00406338
0.00406547
-1.45141e-05
-1.57936e-05
-0.00406742
0.00406927
-1.26844e-05
-1.38564e-05
-0.004071
0.00407265
-1.10788e-05
-1.21593e-05
-0.00407419
0.00407566
-9.66683e-06
-1.06696e-05
-0.00407704
0.00411192
-8.41949e-06
-9.35757e-06
-0.00411606
0.00412663
3.55304e-05
2.0836e-05
-0.00407248
0.00409073
2.75065e-05
7.16995e-05
6.57523e-05
-4.85107e-05
0.00411313
-1.0857e-05
-1.34202e-05
0.00411501
0.00413957
4.95852e-05
1.17394e-06
0.00409793
0.0041293
-1.31364e-07
-9.19084e-07
0.00409711
0.00408287
1.96357e-06
-3.00734e-06
0.00409668
0.00408281
-2.65978e-05
1.97427e-05
0.00412882
0.00413116
-1.2089e-05
1.66777e-05
0.00411436
0.0041393
0.00414766
-0.00409993
2.00761e-05
-0.00412931
0.00410598
4.0013e-05
4.11784e-05
0.00410726
-0.00409729
2.12596e-05
2.22501e-05
0.00407709
-0.0040757
-1.0669e-05
-1.05248e-05
0.00407424
-0.00407268
-1.19731e-05
-1.17336e-05
0.00407105
-0.00406929
-1.34528e-05
-1.3105e-05
0.00406745
-0.00406547
-1.51376e-05
-1.46654e-05
0.00406339
-0.00406116
-1.70592e-05
-1.64453e-05
0.0040588
-0.00405628
-1.92539e-05
-1.84782e-05
0.00405362
-0.00405077
-2.17629e-05
-2.08026e-05
0.00404775
-0.00404452
-2.46347e-05
-2.34631e-05
0.00404111
-0.00403744
-2.79262e-05
-2.6512e-05
0.00403356
-0.0040294
-3.17035e-05
-3.00107e-05
0.004025
-0.00402027
-3.60431e-05
-3.40301e-05
0.00401526
-0.00400988
-4.10334e-05
-3.86526e-05
0.00400418
-0.00399806
-4.67747e-05
-4.39719e-05
0.00399157
-0.0039846
-5.33793e-05
-5.00946e-05
0.00397721
-0.00396927
-6.0971e-05
-5.71388e-05
0.00396085
-0.0039518
-6.96817e-05
-6.52327e-05
0.00394221
-0.00393192
-7.96482e-05
-7.45112e-05
0.00392101
-0.00390931
-9.10059e-05
-8.51114e-05
0.00389692
-0.00388367
-0.000103881
-9.71661e-05
0.00386963
-0.00385467
-0.000118378
-0.000110791
0.00383885
-0.003822
-0.000134539
-0.000126065
0.00380426
-0.00374672
-0.000152402
-0.000143036
0.00368995
-0.00360788
-0.000124262
-0.000111919
-0.000102947
4.97469e-05
-0.0035416
-0.00358778
-0.000123046
7.09939e-05
-0.00367409
-0.00402941
-0.000523878
5.63311e-05
-0.00363305
0.00414374
-0.00415322
3.69851e-05
0.00414092
-1.05955e-05
3.89043e-05
-3.33092e-05
0.00410877
4.91183e-05
0.00409576
5.40336e-06
-0.00375353
2.97915e-05
-0.00373375
-5.38835e-05
-0.00380707
5.64649e-05
-0.00371581
8.55258e-05
-0.00370033
0.000116888
-0.00360363
-9.4194e-05
0.000104207
-0.00355162
-0.000155218
-0.00352676
-0.00375241
-0.00393372
0.0037684
-0.000331335
-0.000458159
0.000561193
-0.00413244
0.00407882
-0.00421929
-0.000317683
-0.000378783
-0.00364711
0.00372548
-0.000208488
-0.000206076
-0.00381417
0.00387043
-0.000106188
-0.000133128
-0.00388377
0.00389644
-0.000123954
-0.000131857
-0.00390839
0.00391974
-0.00010883
-0.000115997
-0.0039304
0.00394049
-9.52825e-05
-0.00010171
-0.00394995
0.00395889
-8.32663e-05
-8.89832e-05
-0.00396727
0.00397517
-7.26857e-05
-7.77418e-05
-0.00398256
0.00398953
-6.3417e-05
-6.78737e-05
-0.00399605
0.00400219
-5.53263e-05
-5.92486e-05
-0.00400793
0.00401335
-4.82795e-05
-5.17311e-05
-0.00401841
0.00402319
-4.21497e-05
-4.51906e-05
-0.00402765
0.00403187
-3.68201e-05
-3.95049e-05
-0.0040358
0.00403952
-3.21847e-05
-3.45628e-05
-0.004043
0.00404629
-2.81497e-05
-3.02646e-05
-0.00404936
0.00405226
-2.46332e-05
-2.65226e-05
-0.00405498
0.00405755
-2.15644e-05
-2.32608e-05
-0.00405996
0.00406224
-1.88829e-05
-2.04139e-05
-0.00406437
0.00406639
-1.65364e-05
-1.79257e-05
-0.00406829
0.00407008
-1.44804e-05
-1.57482e-05
-0.00407176
0.00407336
-1.26764e-05
-1.38402e-05
-0.00407486
0.00407628
-1.1091e-05
-1.21661e-05
-0.00407762
0.00407889
-9.69286e-06
-1.0694e-05
-0.00410912
0.00412492
1.97353e-05
-9.39515e-06
4.33955e-05
1.68413e-05
-4.31338e-05
0.00413942
-2.78425e-05
-1.79514e-06
0.00414465
0.00412857
-2.03698e-06
1.05548e-06
0.00409891
0.00408413
-6.95752e-08
-9.24375e-07
0.0040981
0.00408385
1.91384e-06
-2.9017e-06
0.00409767
0.0040838
-4.4279e-05
3.13522e-05
0.00414175
0.00408398
0.00413734
0.0041421
-0.00414377
2.17379e-05
-0.00413397
0.00411664
5.7346e-05
4.93105e-05
0.00411092
-0.00407893
-1.07282e-05
-1.0593e-05
0.00407767
-0.00407632
-1.20191e-05
-1.1787e-05
0.00407491
-0.0040734
-1.34858e-05
-1.31469e-05
0.00407181
-0.00407011
-1.51541e-05
-1.46926e-05
0.00406832
-0.0040664
-1.70546e-05
-1.64535e-05
0.00406439
-0.00406222
-1.92221e-05
-1.84622e-05
0.00405995
-0.0040575
-2.16966e-05
-2.07557e-05
0.00405493
-0.00405217
-2.45243e-05
-2.33769e-05
0.00404925
-0.00404613
-2.77594e-05
-2.63757e-05
0.00404283
-0.00403929
-3.1465e-05
-2.98104e-05
0.00403555
-0.00403154
-3.57149e-05
-3.37492e-05
0.0040273
-0.00402275
-4.05938e-05
-3.82709e-05
0.00401794
-0.00401277
-4.61994e-05
-4.34667e-05
0.0040073
-0.00400143
-5.26421e-05
-4.94402e-05
0.00399522
-0.00398855
-6.00454e-05
-5.63086e-05
0.00398149
-0.00397392
-6.85442e-05
-6.42009e-05
0.0039659
-0.0039573
-7.82814e-05
-7.32567e-05
0.00394819
-0.00393843
-8.94039e-05
-8.36217e-05
0.0039281
-0.00391705
-0.000102055
-9.5442e-05
0.00390536
-0.00389288
-0.000116364
-0.000108856
0.00387969
-0.00386563
-0.000132432
-0.000123981
0.0038508
-0.00383503
-0.000150311
-0.000140898
0.00381843
-0.00380082
-0.000170007
-0.000159638
0.0037326
-0.0036654
-0.00019146
-0.00018014
0.00362605
-0.00361265
-0.000168618
-0.000162394
-0.000324173
0.000110689
-0.0035812
-0.00366678
-0.000124691
0.000135608
-0.00353768
-0.00353813
-0.000199212
1.73958e-05
-0.00363515
4.29271e-05
0.0040962
0.00415195
1.38072e-05
0.00025991
-0.00416505
-0.000314152
6.2689e-06
-0.00373001
0.000351471
-0.004224
3.17681e-06
-0.00369011
3.18777e-05
-0.00370916
2.01131e-05
-0.00371649
6.00606e-05
-0.00369034
9.08167e-05
-0.00367426
0.000123955
-0.00362338
0.000120925
-0.00353693
-0.000165729
0.000141868
-0.00351381
-0.000183322
-0.00352054
-0.00372874
-0.00417493
0.0040266
-0.000169344
-0.000419758
-0.0040806
0.000335309
0.00426803
-0.00414307
-0.000544722
-0.000221055
-0.00393068
0.00386097
-0.000261624
-0.000282872
-0.00383889
0.0038041
-0.000173704
-0.000183988
-0.00383422
0.003882
-0.000153975
-0.000163245
-0.00389457
0.00390649
-0.000135868
-0.000144425
-0.0039177
0.00392833
-0.00011946
-0.000127209
-0.00393832
0.00394779
-0.000104748
-0.000111703
-0.00395667
0.00396508
-9.16752e-05
-9.78694e-05
-0.00397297
0.00398042
-8.01393e-05
-8.56252e-05
-0.0039874
0.003994
-7.00137e-05
-7.48542e-05
-0.00400017
0.004006
-6.11591e-05
-6.54218e-05
-0.00401146
0.00401661
-5.34349e-05
-5.71871e-05
-0.00402144
0.00402599
-4.67063e-05
-5.00116e-05
-0.00403025
0.00403428