/*--------------------------------*- C++ -*----------------------------------*\
  =========                 |
  \\      /  F ield         | OpenFOAM: The Open Source CFD Toolbox
   \\    /   O peration     | Website:  https://openfoam.org
    \\  /    A nd           | Version:  10
     \\/     M anipulation  |
\*---------------------------------------------------------------------------*/
FoamFile
{
    format      ascii;
    class       volVectorField;
    location    "2";
    object      U;
}
// * * * * * * * * * * * * * * * * * * * * * * * * * * * * * * * * * * * * * //

dimensions      [0 1 -1 0 0 0 0];

internalField   nonuniform List<vector> 
14667
(
(1.03764 0.0663501 -1.38355e-19)
(0.887976 0.0445427 -5.98495e-20)
(0.965463 0.0275842 -2.35876e-21)
(1.00663 0.02335 3.84657e-22)
(0.986791 0.0255308 5.35069e-22)
(0.990759 -0.0893526 -3.38073e-20)
(1.03289 -0.082032 7.46973e-20)
(0.865082 0.0363669 -7.39806e-22)
(0.902438 0.0287208 0)
(1.00198 0.0238232 -8.98378e-24)
(1.03709 -0.0666592 -3.1657e-20)
(1.02543 -0.0393192 1.70436e-20)
(0.986148 -0.0231067 -4.1364e-20)
(0.886289 -0.0751959 1.22733e-19)
(0.871681 0.0284186 -1.95805e-21)
(1.01836 -0.0307972 0)
(1.01882 -0.0291391 0)
(0.980183 0.018881 -5.10435e-22)
(0.658279 0.0201638 0)
(1.04011 -0.0581784 0)
(1.05585 0.0846529 -1.05957e-19)
(0.885591 -0.00292056 7.26868e-20)
(0.997419 0.0159143 0)
(1.00131 0.0403168 5.93748e-21)
(0.0880737 -0.239757 8.70091e-20)
(0.522513 -0.155457 2.8319e-19)
(-0.00928825 -0.139117 8.20436e-20)
(-0.149375 -0.280534 -3.21773e-19)
(-0.22389 -0.296167 6.40149e-21)
(0.812313 0.0821671 1.65042e-20)
(0.864679 0.0526298 -1.5058e-21)
(0.876664 0.0265639 -4.66036e-20)
(-0.121352 0.167737 2.16347e-20)
(-0.266209 0.139082 1.04072e-19)
(-0.341551 0.102151 1.277e-19)
(0.0235024 0.11296 -1.90653e-19)
(0.135432 0.150189 -2.69721e-21)
(0.894831 -0.0918796 2.55393e-21)
(0.883125 -0.0450607 3.05046e-21)
(0.960689 -0.0380811 -9.65778e-23)
(0.948351 -0.0279598 0)
(0.884163 0.00684128 -3.16128e-20)
(0.549926 -0.206413 5.39256e-19)
(0.614467 -0.0866533 -1.7645e-19)
(0.436747 -0.0515897 -1.23451e-19)
(0.355949 -0.266464 8.27112e-20)
(0.587628 -0.425865 -8.09737e-21)
(1.19231 -0.318789 -1.87978e-20)
(1.15976 -0.322631 1.01936e-20)
(1.09668 -0.368554 0)
(1.13696 -0.375288 0)
(0.740323 0.0236012 0)
(0.798164 0.00430981 0)
(0.854128 0.00309711 -8.15581e-20)
(1.39212 -0.191596 2.05071e-20)
(1.42913 -0.148861 1.31845e-20)
(1.47884 0.0900287 5.05242e-20)
(1.49023 0.052769 2.93005e-20)
(0.674263 -0.365528 -2.97958e-20)
(0.961813 -0.377465 2.88222e-20)
(-0.202767 -0.197501 2.41667e-19)
(-0.278222 -0.233841 0)
(1.01934 -0.462699 -8.06033e-21)
(1.01513 -0.379667 -5.947e-20)
(0.939339 -0.335554 -5.03611e-21)
(0.882435 -0.627646 -9.37387e-21)
(0.97022 -0.545012 5.01687e-20)
(0.488518 0.700983 5.69586e-20)
(0.811913 0.731391 -2.09538e-20)
(0.906227 0.0316921 4.13671e-20)
(0.924039 0.0163292 -3.84948e-20)
(0.928276 0.0396104 -4.18113e-20)
(0.148026 -0.0187434 0)
(0.147512 -0.258318 4.20298e-20)
(1.05839 -0.34705 1.04861e-22)
(1.0542 -0.29061 -1.10528e-21)
(1.10035 -0.295931 -1.54756e-21)
(1.1153 -0.310956 5.93085e-21)
(0.913871 -0.00118325 2.19718e-19)
(0.899287 -0.0315046 3.11947e-22)
(0.979639 -0.0310918 -8.8336e-22)
(0.998605 -0.0215811 0)
(0.998081 -0.0261355 1.13242e-21)
(1.028 0.0173404 -1.43166e-22)
(1.02622 0.017322 0)
(0.0145793 0.240285 0)
(-0.105476 0.191427 -6.93091e-20)
(1.01097 -0.421706 1.0778e-20)
(1.17765 -0.39816 -5.33287e-20)
(1.28697 -0.0978453 -4.58363e-20)
(1.49426 -0.0693762 6.29301e-20)
(1.0101 -0.0285478 -2.08823e-21)
(1.01137 -0.0258853 4.13814e-21)
(1.02905 9.12692e-05 -2.24491e-21)
(1.02946 -0.000332409 1.11996e-21)
(1.02212 0.000769423 -3.62996e-21)
(1.02213 1.14076e-05 -2.69796e-21)
(1.01774 0.00468539 -1.05549e-21)
(1.0174 0.0035952 2.07862e-21)
(1.01582 0.00689416 -2.72174e-21)
(1.01539 0.00576049 1.08032e-21)
(1.56192 -0.224828 1.00511e-20)
(1.50218 -0.142597 3.99095e-20)
(0.935626 0.122176 7.30709e-21)
(0.915696 0.098328 -2.58102e-20)
(0.941967 0.0808466 3.38361e-21)
(0.962604 0.101182 3.25241e-21)
(0.969693 0.1602 2.23174e-20)
(0.954622 0.134227 4.56598e-22)
(0.81355 -0.0277488 1.31232e-21)
(0.561455 -0.0139717 -1.97955e-22)
(0.614072 -0.0142261 -2.36175e-21)
(0.853765 -0.0196817 0)
(0.945892 -0.0456175 3.54957e-21)
(0.944834 -0.0287021 -1.30377e-21)
(1.19974 -0.0680066 2.38533e-21)
(1.21887 -0.0704861 -2.31729e-21)
(1.20352 -0.0639677 0)
(0.805252 -0.0556547 -3.39839e-21)
(0.622819 -0.0549393 -1.37836e-21)
(0.842011 -0.0422522 -5.91712e-22)
(1.0288 -5.55668e-05 9.97564e-22)
(1.02915 -0.00054492 -5.09813e-21)
(1.02875 -0.000704599 2.63583e-21)
(1.02855 -0.000758087 -3.18731e-21)
(1.0284 -0.0001657 0)
(1.02856 -0.00018703 -5.87227e-22)
(1.02853 -0.000890279 8.96219e-21)
(1.02854 -0.000696827 -4.5052e-21)
(1.02828 -0.000154049 0)
(1.02833 -0.000289506 0)
(1.0286 -0.000620433 0)
(1.02858 -0.000497442 4.79785e-21)
(1.02827 5.12146e-05 0)
(1.02831 -0.000106446 0)
(1.02848 -0.000467735 -4.82134e-21)
(1.02828 -0.000449408 0)
(1.02803 0.000190399 0)
(1.0282 0.0001148 0)
(1.02806 -0.000410828 5.13105e-21)
(1.02784 -0.000336542 -5.09401e-21)
(1.02767 0.000345273 0)
(1.02785 0.000258076 0)
(1.02764 -0.000272324 0)
(1.0274 -0.000256661 -5.39939e-21)
(1.02729 0.000458931 -1.27674e-24)
(1.02749 0.00041515 0)
(1.02711 -0.000310527 5.43459e-21)
(1.02675 -0.000425897 0)
(1.02667 0.000350854 0)
(1.02702 0.000438903 0)
(1.02631 -0.000540342 -5.55695e-24)
(1.02583 -0.000635919 0)
(1.02579 0.000122575 0)
(1.02625 0.000228401 0)
(1.0255 -0.000814492 -8.41758e-21)
(1.02519 -0.00099607 7.40352e-21)
(1.02498 -0.000248862 7.46483e-22)
(1.02535 -1.56962e-05 0)
(1.02477 -0.00102459 0)
(1.02435 -0.000949242 0)
(1.02435 -0.000485439 1.30166e-21)
(1.02468 -0.000471639 -8.041e-22)
(1.0239 -0.000973652 -1.74263e-21)
(1.0234 -0.000865897 -1.79545e-21)
(1.02342 -0.000325409 1.79083e-21)
(1.02392 -0.000514883 -1.76605e-21)
(1.02282 -0.000161505 -3.50641e-21)
(1.02282 -0.000761625 3.53459e-21)
(1.0293 0.000140825 1.53508e-22)
(1.02971 -0.00019504 -9.79554e-22)
(1.02215 -0.000653512 -2.22203e-25)
(1.02922 0.00030488 -7.82481e-22)
(1.02937 0.000245604 1.53191e-21)
(1.02951 9.73137e-05 1.23459e-23)
(1.02984 -0.000305657 0)
(1.03011 -0.000247662 1.06405e-21)
(1.02285 -0.00127445 8.39185e-22)
(1.02394 -0.00131046 4.2708e-21)
(1.02342 -0.00130097 -1.68907e-21)
(1.0248 -0.00118346 -3.49718e-21)
(1.02439 -0.0012677 3.60344e-21)
(1.02571 -0.000897852 0)
(1.02523 -0.00110265 0)
(1.02647 -0.000234728 5.4459e-24)
(1.02611 -0.000517485 0)
(1.02713 3.51272e-05 -2.61706e-24)
(1.0268 -6.74802e-05 0)
(1.02773 5.90407e-05 0)
(1.02744 8.32795e-05 0)
(1.02827 -0.000102663 -4.84418e-24)
(1.028 -2.09884e-05 0)
(1.02878 -7.79708e-05 -4.95201e-27)
(1.02855 -0.000117505 0)
(1.02895 -0.00010482 0)
(1.02891 -4.82384e-05 0)
(1.02891 -0.000325866 -4.61291e-27)
(1.02892 -0.000195518 0)
(1.02915 -0.000383868 0)
(1.02899 -0.00040874 0)
(1.02949 -0.000382994 2.70052e-21)
(1.03028 -0.000223617 1.01188e-21)
(1.02994 -0.000170294 -1.04377e-21)
(1.02888 0.000120795 4.33942e-22)
(1.02906 0.00026677 0)
(1.02847 -0.000341671 5.17419e-23)
(1.0287 -0.000102916 5.00843e-22)
(1.02813 -0.000534041 0)
(1.02827 -0.000486665 1.72155e-23)
(1.02794 -0.000309395 0)
(1.02804 -0.000466356 0)
(1.02774 -0.000120439 0)
(1.02785 -0.000192486 0)
(1.02753 -3.59948e-05 0)
(1.02763 -8.82559e-05 0)
(1.0273 0.000145923 0)
(1.02743 3.67349e-05 0)
(1.02681 0.00028908 0)
(1.0271 0.000241455 0)
(1.02604 0.000248501 0)
(1.02645 0.000282689 0)
(1.02512 0.000118919 7.68331e-22)
(1.02559 0.000189335 0)
(1.02435 1.38746e-05 -4.04402e-22)
(1.02472 4.28809e-05 1.40298e-23)
(1.02349 0.000243697 1.73437e-21)
(1.02395 4.42037e-05 0)
(1.02287 0.000525395 4.50633e-21)
(1.02968 3.63517e-05 6.19488e-22)
(1.02951 0.000162056 -1.27474e-22)
(1.02218 -0.00127934 -8.4763e-22)
(1.02134 0.000120546 1.83935e-21)
(1.03021 -0.00043506 0)
(1.03028 -0.000319377 -2.47745e-22)
(1.03037 -0.000202448 -2.44997e-22)
(1.0213 0.000909275 0)
(1.02293 -0.00182351 8.31882e-22)
(1.02402 -0.00167458 7.08198e-22)
(1.0235 -0.00176869 0)
(1.02492 -0.00138681 3.36527e-21)
(1.02451 -0.00154707 -3.54466e-21)
(1.02567 -0.00105334 0)
(1.02533 -0.00117796 -1.35075e-21)
(1.02625 -0.000941822 -5.44671e-24)
(1.02595 -0.000975909 0)
(1.02702 -0.000856358 -3.85851e-27)
(1.02661 -0.000909314 0)
(1.02786 -0.000742822 2.52444e-24)
(1.02746 -0.00077957 0)
(1.02851 -0.000816334 -2.6976e-27)
(1.02821 -0.000765908 0)
(1.02906 -0.000712878 2.63878e-27)
(1.0288 -0.00080661 0)
(1.02938 -0.000534165 0)
(1.02926 -0.000583543 0)
(1.02945 -0.000728895 1.72843e-27)
(1.02943 -0.000578442 0)
(1.02956 -0.000917231 0)
(1.02948 -0.000861635 0)
(1.02992 -0.000710407 -3.11615e-24)
(1.02971 -0.000864399 -1.35257e-22)
(1.0301 -0.000570397 -1.68341e-21)
(1.03008 -0.000164564 1.93879e-24)
(1.02958 0.000349852 -2.31661e-22)
(1.02945 0.000528434 -7.58646e-22)
(1.02951 0.00044477 -4.9184e-22)
(1.0293 0.000339068 -2.4027e-22)
(1.02938 0.00048438 2.51016e-22)
(1.02892 -6.23549e-05 -1.03818e-24)
(1.02915 0.000135761 -1.6367e-23)
(1.02843 -0.000177886 0)
(1.02868 -0.000162603 0)
(1.02801 6.79197e-05 0)
(1.02821 -9.20763e-05 0)
(1.02768 0.000308834 0)
(1.02784 0.00021868 0)
(1.0274 0.000400677 0)
(1.02754 0.000355409 0)
(1.02712 0.00057873 0)
(1.02727 0.00046683 0)
(1.02674 0.000791486 0)
(1.02696 0.000703283 0)
(1.02612 0.00077376 0)
(1.02646 0.000819044 0)
(1.0253 0.000522439 0)
(1.02572 0.000655694 0)
(1.02448 0.000432409 -3.92628e-22)
(1.02489 0.000435985 3.84478e-22)
(1.02356 0.000898994 -2.60649e-21)
(1.02405 0.000604763 0)
(1.02213 0.00155453 1.86889e-21)
(1.0229 0.00122564 -2.76554e-21)
(1.02049 0.000930054 1.90692e-21)
(1.02048 0.00174755 -1.43626e-21)
(1.02129 0.00168459 4.84265e-22)
(1.02228 -0.00187338 2.24081e-23)
(1.02139 -0.000567577 1.8075e-21)
(1.02052 0.000140003 1.7162e-23)
(1.03039 -0.000154811 2.38815e-22)
(1.01969 0.000982992 0)
(1.01974 0.00174998 1.97587e-21)
(1.03029 -0.000212068 4.83708e-22)
(1.02973 0.00036383 0)
(1.02989 -0.000451452 5.02374e-22)
(1.02998 -0.000316251 -2.67436e-24)
(1.02976 0.000269047 0)
(1.02965 0.000258412 2.37609e-22)
(1.02156 -0.00198487 -3.3371e-21)
(1.02144 -0.00125585 0)
(1.02173 -0.0026499 7.9792e-22)
(1.02304 -0.00231403 -1.00057e-21)
(1.02241 -0.00247943 -4.1545e-22)
(1.02413 -0.00197164 9.15945e-23)
(1.02361 -0.00216836 -8.11891e-22)
(1.02499 -0.00162194 2.70957e-23)
(1.02459 -0.00179547 -2.41518e-23)
(1.02567 -0.0014085 0)
(1.02534 -0.0014991 -1.84796e-22)
(1.02636 -0.00121967 2.03189e-27)
(1.02599 -0.00130972 0)
(1.02718 -0.001066 2.62479e-24)
(1.02676 -0.00114493 0)
(1.02802 -0.000909957 -2.52444e-24)
(1.02761 -0.000977026 0)
(1.02868 -0.00091546 2.01681e-27)
(1.02838 -0.000901976 0)
(1.02918 -0.000742127 -1.87537e-27)
(1.02895 -0.000876403 0)
(1.02951 -0.000438923 0)
(1.02937 -0.000560745 0)
(1.02961 -0.000553171 -2.13912e-24)
(1.02959 -0.000435528 0)
(1.02959 -0.00081966 0)
(1.0296 -0.000713349 0)
(1.0297 -0.000718113 9.77257e-23)
(1.02961 -0.000807911 -3.89292e-22)
(1.0298 -0.000588802 8.50054e-26)
(1.02981 1.45792e-05 4.68531e-22)
(1.03014 -0.000139698 0)
(1.02963 0.000113936 -2.36671e-22)
(1.02969 0.000508578 4.90837e-22)
(1.0297 0.000453636 0)
(1.02964 0.000416532 0)
(1.02968 0.000505086 0)
(1.02929 0.000144871 1.0383e-24)
(1.0295 0.000274162 0)
(1.02873 1.37123e-05 0)
(1.02903 5.00149e-05 0)
(1.02821 0.000125542 0)
(1.02845 4.50418e-05 0)
(1.02784 0.00027213 0)
(1.02802 0.000209952 0)
(1.0275 0.000377976 0)
(1.02767 0.00032095 0)
(1.02715 0.000614112 1.27776e-24)
(1.02732 0.000469879 0)
(1.0268 0.000951255 1.32824e-24)
(1.02698 0.000791289 0)
(1.02631 0.00110165 0)
(1.02658 0.00106568 0)
(1.02558 0.000970532 0)
(1.02597 0.00105711 0)
(1.02466 0.000954014 0)
(1.02513 0.000905497 0)
(1.02354 0.00157944 -4.10043e-22)
(1.02415 0.00119464 0)
(1.02208 0.0023392 0)
(1.02286 0.00197671 1.70338e-21)
(1.02056 0.00248391 -2.3436e-21)
(1.0213 0.00244128 4.61932e-22)
(1.01922 0.00265631 1.00808e-21)
(1.0199 0.00247216 0)
(1.02056 -0.000561612 1.84441e-21)
(1.02077 -0.00209892 2.0835e-21)
(1.02097 -0.00285337 -1.23508e-21)
(1.02971 0.000175688 0)
(1.02978 0.00018531 2.22952e-22)
(1.01968 0.000231441 -2.90022e-21)
(1.019 0.00188544 -9.93703e-22)
(1.01888 0.00109724 0)
(1.01815 0.00215872 0)
(1.03003 -0.000206861 -7.21676e-22)
(1.0184 0.00308 -1.01379e-21)
(1.02064 -0.00130101 8.5489e-22)
(1.02013 -0.00307105 1.24826e-21)
(1.02042 -0.00389871 1.24389e-21)
(1.02193 -0.00335209 -4.07369e-22)
(1.02121 -0.00362151 8.05498e-22)
(1.02319 -0.00285376 -5.95553e-22)
(1.02259 -0.0031068 1.18338e-21)
(1.02423 -0.00240896 6.04595e-24)
(1.02374 -0.002623 0)
(1.02507 -0.00204542 -2.93047e-24)
(1.02467 -0.00220707 0)
(1.02584 -0.00179934 0)
(1.02545 -0.00191747 0)
(1.02664 -0.00161217 1.94999e-27)
(1.02623 -0.001688 0)
(1.02744 -0.00152387 0)
(1.02705 -0.00156996 0)
(1.02818 -0.00135636 2.5212e-24)
(1.02782 -0.00144596 0)
(1.02875 -0.00124371 2.42395e-24)
(1.0285 -0.00129321 0)
(1.0291 -0.00100011 -2.32701e-24)
(1.02894 -0.00115707 0)
(1.02937 -0.00063443 0)
(1.02924 -0.00079849 0)
(1.02952 -0.000626434 -2.1372e-24)
(1.02947 -0.000572406 0)
(1.0295 -0.000839316 0)
(1.02952 -0.000744218 1.27354e-28)
(1.0295 -0.000787551 3.1519e-23)
(1.02948 -0.000855581 0)
(1.02966 -0.000547581 -2.46036e-22)
(1.02957 -0.000677936 2.55248e-22)
(1.02984 -0.000324549 9.61748e-22)
(1.02975 -0.000428301 2.49542e-22)
(1.03007 -0.000134417 4.71517e-22)
(1.03035 -0.000109895 -2.38115e-22)
(1.03027 -0.000134353 -2.29194e-22)
(1.02989 -2.49695e-05 0)
(1.03017 -0.000121243 0)
(1.02972 5.42697e-05 -2.30385e-22)
(1.02983 0.000229873 -4.47206e-22)
(1.0298 0.000377448 -1.13921e-22)
(1.02982 0.000307755 -2.22841e-22)
(1.02979 0.000506449 0)
(1.02979 0.000445198 -1.18626e-22)
(1.02976 0.000507078 0)
(1.0298 0.000533255 0)
(1.0295 0.000402426 0)
(1.02966 0.000454619 0)
(1.02902 0.000353666 0)
(1.02928 0.000364134 0)
(1.02851 0.000443489 0)
(1.02875 0.000384257 0)
(1.02809 0.000548914 0)
(1.02829 0.000501877 0)
(1.02768 0.000641468 0)
(1.02789 0.000590813 0)
(1.02729 0.000819476 -1.27776e-24)
(1.02748 0.000711445 0)
(1.02698 0.00111363 -1.32824e-24)
(1.02713 0.000961022 0)
(1.02659 0.00135587 0)
(1.02681 0.00125661 0)
(1.02588 0.00139224 0)
(1.02629 0.00139542 0)
(1.02477 0.00152828 0)
(1.02537 0.00140485 0)
(1.0234 0.00225651 4.00254e-22)
(1.02411 0.00181961 0)
(1.02198 0.00308813 0)
(1.02269 0.0027423 0)
(1.02076 0.00312591 0)
(1.02133 0.00318689 -4.47912e-22)
(1.01958 0.00338618 2.00307e-21)
(1.02021 0.00311243 9.82261e-22)
(1.01877 0.00399957 -2.07228e-21)
(1.02993 -0.000249195 -1.17557e-21)
(1.01969 -0.000522593 -4.65777e-22)
(1.01991 -0.00223395 -2.13931e-21)
(1.0188 0.000323363 9.49886e-22)
(1.01955 -0.00425474 -8.38022e-22)
(1.01923 -0.00334871 0)
(1.01797 0.00129338 -1.02274e-21)
(1.02988 0.000246849 8.94126e-22)
(1.02991 0.000176082 -2.17477e-22)
(1.02986 0.000160671 5.50834e-22)
(1.01713 0.00252963 -2.06479e-21)
(1.01625 0.00412301 1.05359e-21)
(1.0298 -0.000374417 0)
(1.0299 -0.000309612 0)
(1.0166 0.00530027 -2.11623e-21)
(1.01977 -0.00135117 7.57299e-24)
(1.0186 -0.00461578 -1.34662e-23)
(1.01904 -0.00554389 1.34485e-23)
(1.02072 -0.00469067 -1.06235e-24)
(1.01992 -0.00510355 0)
(1.02215 -0.00396391 -5.10199e-22)
(1.02147 -0.00430875 0)
(1.02335 -0.00333871 0)
(1.02277 -0.00364298 1.02078e-22)
(1.02437 -0.00284503 0)
(1.02387 -0.00307362 0)
(1.02529 -0.00247125 0)
(1.02483 -0.00264338 0)
(1.02619 -0.00220783 -2.8225e-24)
(1.02574 -0.00232951 0)
(1.02705 -0.0020247 5.44139e-24)
(1.02663 -0.00210238 0)
(1.02776 -0.0018937 0)
(1.02743 -0.00196622 0)
(1.02832 -0.00165889 -1.52887e-27)
(1.02805 -0.00178694 0)
(1.02871 -0.00142333 -2.42181e-24)
(1.02854 -0.0015393 0)
(1.02893 -0.00109969 2.32523e-24)
(1.02883 -0.00128281 0)
(1.02915 -0.000723384 0)
(1.02903 -0.000894086 0)
(1.02938 -0.000659144 2.1372e-24)
(1.02928 -0.000641999 0)
(1.02946 -0.000811616 0)
(1.02944 -0.000737769 -1.27354e-28)
(1.02949 -0.00078232 0)
(1.02947 -0.000831121 0)
(1.02961 -0.000574664 2.4161e-22)
(1.02954 -0.0006895 0)
(1.0297 -0.000471555 -4.77933e-22)
(1.03011 -0.000106072 0)
(1.02999 -0.000262887 -2.29852e-22)
(1.03001 -0.000213682 4.64392e-22)
(1.0303 -0.000132065 -2.23346e-22)
(1.03025 -0.000120244 2.24547e-22)
(1.02995 -0.000119822 0)
(1.03016 -0.000175857 0)
(1.02977 5.88588e-05 0)
(1.0298 -5.17472e-05 0)
(1.02981 8.77628e-05 -6.66807e-22)
(1.02983 0.000362457 0)
(1.02986 0.000309043 0)
(1.02981 0.000488823 0)
(1.02982 0.000426273 0)
(1.02977 0.000548168 -9.90471e-25)
(1.02981 0.000531578 0)
(1.02958 0.000550682 0)
(1.0297 0.000551615 0)
(1.02922 0.000567599 0)
(1.02941 0.000554018 0)
(1.02879 0.000643702 0)
(1.029 0.00059885 0)
(1.02837 0.000739071 0)
(1.02858 0.000693159 0)
(1.02795 0.00084276 0)
(1.02816 0.000787778 0)
(1.02753 0.00100323 0)
(1.02774 0.000910321 0)
(1.02719 0.00127107 0)
(1.02735 0.00112503 0)
(1.02677 0.00160138 0)
(1.027 0.00143682 0)
(1.026 0.00187333 1.428e-24)
(1.02645 0.00174706 1.7257e-28)
(1.02468 0.00224033 0)
(1.0254 0.00201614 0)
(1.02312 0.00304384 -2.60377e-27)
(1.02389 0.00259024 0)
(1.02192 0.00374707 0)
(1.02246 0.003484 0)
(1.02113 0.00366303 -1.09513e-22)
(1.0215 0.00377807 4.20798e-22)
(1.02007 0.00411215 -1.86227e-21)
(1.02069 0.00369476 -7.87311e-22)
(1.01815 0.00576633 2.53669e-21)
(1.01921 0.00492661 1.45718e-21)
(1.017 0.0064323 3.18535e-21)
(1.01879 -0.000503148 9.2379e-22)
(1.01899 -0.00238747 1.28151e-21)
(1.0299 8.73908e-05 3.18346e-22)
(1.02995 0.000110073 2.19681e-22)
(1.01786 0.000431525 0)
(1.01826 -0.00360826 8.76187e-22)
(1.01692 0.00156038 -1.82925e-23)
(1.01807 -0.00604599 -5.49389e-23)
(1.01758 -0.00502431 5.48379e-23)
(1.01596 0.003002 -2.08267e-21)
(1.01501 0.00456609 -1.0814e-21)
(1.03001 -0.000366224 -7.09139e-22)
(1.01413 0.00616925 -2.23389e-21)
(1.01461 0.00732171 -3.99017e-23)
(1.03005 -0.00024902 -2.20741e-22)
(1.03007 -0.000333201 0)
(1.01885 -0.00141483 0)
(1.01703 -0.0065971 2.23813e-21)
(1.01768 -0.00759408 -4.43693e-22)
(1.01951 -0.00636758 -8.61845e-22)
(1.01864 -0.00694728 8.70655e-22)
(1.02105 -0.00537865 -2.09766e-22)
(1.02031 -0.00584757 0)
(1.02239 -0.00455848 -1.01478e-22)
(1.02175 -0.00495382 0)
(1.02356 -0.00387989 0)
(1.023 -0.00420016 1.02091e-22)
(1.02463 -0.00336262 0)
(1.0241 -0.00360367 0)
(1.02566 -0.00296592 2.92444e-24)
(1.02515 -0.00315049 0)
(1.02663 -0.00266842 2.8225e-24)
(1.02615 -0.00280807 0)
(1.02744 -0.00241405 -5.43703e-24)
(1.02706 -0.00253718 0)
(1.02801 -0.00216126 -2.61677e-24)
(1.02776 -0.00229412 0)
(1.02837 -0.00183951 -2.51967e-24)
(1.02821 -0.00200678 0)
(1.0286 -0.00152344 1.79539e-27)
(1.0285 -0.00167846 0)
(1.02876 -0.00118359 -1.57115e-27)
(1.02868 -0.00136074 0)
(1.029 -0.000859803 0)
(1.02887 -0.00100543 0)
(1.0293 -0.000773383 0)
(1.02916 -0.000781065 0)
(1.02948 -0.000853863 0)
(1.02941 -0.000812902 0)
(1.02955 -0.000824332 0)
(1.02952 -0.000863186 0)
(1.02965 -0.000661976 -2.43024e-22)
(1.02959 -0.000751643 0)
(1.02982 -0.000487392 -4.76212e-22)
(1.02973 -0.000568208 7.18085e-22)
(1.02992 -0.000412706 0)
(1.03013 -0.000146925 0)
(1.03007 -0.000220661 -2.19015e-22)
(1.03023 -0.00023406 1.06737e-22)
(1.03021 -0.000187229 -1.07769e-22)
(1.02999 -0.000263573 0)
(1.03014 -0.000294979 0)
(1.02985 -5.66954e-05 0)
(1.02988 -0.000186142 0)
(1.02987 -4.51888e-06 -3.73202e-22)
(1.02999 0.000146968 -2.11896e-22)
(1.02992 0.000273647 2.28431e-22)
(1.02996 0.000210746 2.218e-22)
(1.02984 0.000387154 0)
(1.02988 0.000328568 0)
(1.0298 0.000514459 0)
(1.02982 0.000454344 0)
(1.02974 0.000606059 9.90471e-25)
(1.02978 0.000566653 0)
(1.02959 0.000672558 0)
(1.02968 0.000640703 0)
(1.02933 0.000745347 0)
(1.02947 0.00070698 0)
(1.029 0.000840421 0)
(1.02917 0.000790473 0)
(1.02861 0.000940623 0)
(1.02881 0.000891601 0)
(1.02819 0.00104791 0)
(1.02841 0.000992182 0)
(1.02772 0.0012002 1.27362e-24)
(1.02796 0.00111309 0)
(1.02723 0.0014747 1.32339e-24)
(1.02748 0.00131856 0)
(1.02662 0.00190856 0)
(1.02695 0.00167396 0)
(1.02569 0.0024335 -1.428e-24)
(1.02621 0.00216586 -1.7257e-28)
(1.02432 0.00302265 0)
(1.02505 0.00271409 0)
(1.02294 0.00371226 -3.18374e-27)
(1.02358 0.00336569 0)
(1.02217 0.00409663 0)
(1.02247 0.00398317 0)
(1.02171 0.00402421 0)
(1.02196 0.00406319 0)
(1.02057 0.00491484 -4.69279e-22)
(1.02127 0.00424632 0)
(1.01856 0.00692891 0)
(1.01963 0.00593147 -5.85793e-24)
(1.01629 0.0080771 -5.17901e-22)
(1.01742 0.00759317 1.06472e-21)
(1.01338 0.00801994 3.43243e-21)
(1.01404 0.0094226 1.13131e-21)
(1.01516 0.00859417 -2.13572e-21)
(1.01782 -0.000490415 -4.57096e-22)
(1.01801 -0.00253571 -4.35471e-22)
(1.0168 0.000581822 0)
(1.0172 -0.00389903 -4.34787e-22)
(1.01574 0.0018721 4.84943e-22)
(1.01648 -0.00544804 9.0579e-22)
(1.01469 0.00336167 5.11222e-22)
(1.01663 -0.00827236 0)
(1.01588 -0.00717078 -1.79628e-21)
(1.01373 0.00498145 0)
(1.01283 0.00673958 2.20651e-21)
(1.01279 0.0105438 1.78408e-21)
(1.01205 0.0089073 -1.79004e-21)
(1.03005 -0.000390086 8.92811e-22)
(1.0115 0.0116786 -5.78848e-21)
(1.03004 0.000177624 0)
(1.03007 -0.000243682 4.32778e-22)
(1.0301 -0.000299987 2.12549e-22)
(1.03007 0.00013285 8.25873e-22)
(1.03003 9.81091e-05 -6.24628e-22)
(1.01199 0.0125082 -2.34623e-20)
(1.03011 -0.000351864 -2.1816e-22)
(1.01787 -0.00147578 0)
(1.01547 -0.00905797 -1.39705e-21)
(1.01641 -0.0101039 4.62795e-22)
(1.0184 -0.00849304 -8.8536e-22)
(1.01744 -0.00926598 8.93878e-22)
(1.02003 -0.00712845 -8.60065e-22)
(1.01925 -0.0077716 3.29084e-22)
(1.02144 -0.00602621 -2.13527e-22)
(1.02076 -0.00654999 4.30756e-22)
(1.02274 -0.00513276 0)
(1.02211 -0.00555675 0)
(1.02393 -0.0044397 0)
(1.02334 -0.00476121 0)
(1.02505 -0.00391091 0)
(1.0245 -0.0041598 0)
(1.0261 -0.00348245 -2.92444e-24)
(1.02559 -0.0036866 0)
(1.02701 -0.00310959 0)
(1.02658 -0.00329308 0)
(1.02769 -0.00273294 2.88251e-27)
(1.02738 -0.00292334 0)
(1.02811 -0.00234279 2.61554e-27)
(1.02793 -0.00254018 0)
(1.02835 -0.0019443 0)
(1.02824 -0.0021414 0)
(1.02852 -0.00159845 2.05643e-27)
(1.02844 -0.00176346 0)
(1.02871 -0.00128473 -1.84732e-27)
(1.0286 -0.00144023 0)
(1.02899 -0.00101923 0)
(1.02884 -0.00113888 0)
(1.02933 -0.000915679 0)
(1.02917 -0.000944584 0)
(1.02956 -0.00092117 0)
(1.02946 -0.000917226 0)
(1.02966 -0.00085817 -1.94832e-24)
(1.02962 -0.00090496 0)
(1.02975 -0.000688314 1.18522e-22)
(1.0297 -0.000780335 0)
(1.0299 -0.000515396 4.66586e-22)
(1.02981 -0.000593668 -1.19538e-22)
(1.02998 -0.000434197 -2.31199e-22)
(1.0301 -0.000210968 -1.05212e-22)
(1.03007 -0.00024383 3.21417e-22)
(1.03015 -0.00034882 0)
(1.03014 -0.000282102 0)
(1.03005 -0.000364486 0)
(1.03011 -0.000402533 0)
(1.02994 -0.000146548 0)
(1.02998 -0.000279193 0)
(1.02995 3.13928e-05 -2.06077e-22)
(1.02994 -7.62564e-05 1.54101e-22)
(1.02999 5.1124e-05 -2.07511e-22)
(1.02996 0.000280475 -4.4388e-22)
(1.03 0.000231262 -2.21665e-22)
(1.02989 0.000404714 0)
(1.02992 0.00033589 0)
(1.02982 0.000535187 0)
(1.02985 0.000469853 0)
(1.02974 0.000649994 0)
(1.02978 0.000594509 0)
(1.0296 0.00075693 0)
(1.02968 0.000703362 0)
(1.0294 0.000873843 0)
(1.02951 0.000813629 0)
(1.02914 0.00100637 0)
(1.02928 0.000938513 0)
(1.02879 0.00114294 0)
(1.02897 0.00107522 0)
(1.02836 0.00128577 0)
(1.02859 0.00121259 0)
(1.02782 0.00147296 -1.83172e-27)
(1.0281 0.00136853 0)
(1.02715 0.00179697 -2.07267e-27)
(1.0275 0.00161163 0)
(1.0263 0.00233475 0)
(1.02675 0.00203883 0)
(1.02526 0.00302675 0)
(1.02581 0.00267209 0)
(1.02412 0.00368644 0)
(1.02468 0.00337273 0)
(1.02326 0.00414352 -3.05963e-24)
(1.02363 0.00394971 0)
(1.02288 0.00427081 0)
(1.02303 0.00424909 0)
(1.02233 0.0044166 -2.14039e-22)
(1.02268 0.00427376 0)
(1.02094 0.00581129 1.75048e-24)
(1.02175 0.0049052 2.1663e-22)
(1.01895 0.00802009 9.50549e-22)
(1.01998 0.00696776 -9.35207e-22)
(1.01689 0.00903988 -1.03634e-21)
(1.01791 0.00866167 -9.66065e-22)
(1.0147 0.0102357 -2.18527e-21)
(1.01581 0.00944154 2.12988e-21)
(1.01344 0.0112954 6.04931e-21)
(1.01675 -0.000470872 1.16772e-22)
(1.01695 -0.00273395 -4.53016e-22)
(1.03006 5.82094e-05 -2.99837e-22)
(1.0301 8.38645e-05 1.99204e-22)
(1.01273 0.0149487 -4.327e-21)
(1.0156 0.000707088 9.71023e-22)
(1.01606 -0.00419945 0)
(1.01446 0.00212538 9.99104e-22)
(1.01527 -0.00591095 -9.06198e-22)
(1.01336 0.00370618 -4.30715e-24)
(1.01464 -0.00782999 0)
(1.01234 0.00545152 -1.08337e-21)
(1.01529 -0.0110097 -9.18301e-22)
(1.01421 -0.00985882 1.85504e-21)
(1.0114 0.00753484 0)
(1.01057 0.00978465 -1.76021e-21)
(1.0103 0.0130658 2.14266e-21)
(1.03014 -0.000308607 2.18717e-22)
(1.0168 -0.00159516 0)
(1.01409 -0.0120354 0)
(1.01537 -0.0130941 2.33295e-22)
(1.01738 -0.0110239 -1.36947e-21)
(1.0164 -0.0120163 6.86794e-22)
(1.01913 -0.00926076 -4.53263e-22)
(1.01829 -0.0101007 4.54113e-22)
(1.02063 -0.00779995 0)
(1.01991 -0.00847888 1.12931e-22)
(1.02197 -0.00664568 4.90085e-27)
(1.02131 -0.0071879 0)
(1.02325 -0.00574538 0)
(1.02261 -0.00616676 0)
(1.02446 -0.00503693 0)
(1.02386 -0.00537112 0)
(1.02557 -0.00446103 0)
(1.02503 -0.00473642 0)
(1.02653 -0.00395798 2.91613e-24)
(1.02607 -0.00420393 0)
(1.02726 -0.00347044 -2.81264e-24)
(1.02693 -0.00371567 0)
(1.02776 -0.0029646 5.42553e-24)
(1.02754 -0.0032192 0)
(1.02808 -0.00247114 2.97548e-27)
(1.02794 -0.00271349 0)
(1.0283 -0.00203454 2.51273e-24)
(1.0282 -0.00224273 0)
(1.02852 -0.00169293 2.41796e-24)
(1.02841 -0.00185226 0)
(1.02878 -0.00141558 -2.15844e-27)
(1.02864 -0.00154893 0)
(1.0291 -0.00119214 0)
(1.02893 -0.00129464 0)
(1.02942 -0.00106853 0)
(1.02927 -0.00111707 0)
(1.02965 -0.0010089 0)
(1.02955 -0.00103815 0)
(1.02976 -0.000907929 1.94832e-24)
(1.02971 -0.000969033 0)
(1.02985 -0.000736082 0)
(1.02981 -0.000830561 0)
(1.02997 -0.000543895 -1.76696e-24)
(1.0299 -0.000642025 0)
(1.03009 -0.000430333 2.21484e-22)
(1.03003 -0.000483926 0)
(1.03019 -0.000340244 -2.11882e-22)
(1.03015 -0.000388307 -4.40908e-22)
(1.03016 -0.000254246 -4.21275e-22)
(1.03006 -0.000213503 -2.97044e-24)
(1.0301 -0.000249865 -4.17098e-22)
(1.03002 -0.000236135 0)
(1.03003 -0.000238453 -1.00483e-22)
(1.03009 -0.000381657 0)
(1.03005 -0.000321536 0)
(1.03012 -0.000347255 0)
(1.03012 -0.000406669 0)
(1.03004 -0.000157362 0)
(1.03008 -0.000268476 0)
(1.03 -1.7281e-05 0)
(1.03 -0.000102269 0)
(1.03003 -1.56694e-06 3.84863e-22)
(1.03015 0.000113942 -8.05083e-22)
(1.03008 0.000223658 2.16532e-22)
(1.03012 0.000165748 0)
(1.03001 0.000319914 0)
(1.03004 0.000265677 2.08696e-22)
(1.02993 0.000449257 0)
(1.02997 0.000384383 0)
(1.02985 0.000582292 0)
(1.02989 0.000516668 0)
(1.02975 0.000708914 -9.87163e-25)
(1.02981 0.000646192 0)
(1.02962 0.000835865 0)
(1.02969 0.000771391 0)
(1.02944 0.000978596 0)
(1.02954 0.000904725 0)
(1.02921 0.00114405 0)
(1.02933 0.00105851 0)
(1.02889 0.00132753 0)
(1.02906 0.00123407 0)
(1.02847 0.00153315 0)
(1.0287 0.00142647 0)
(1.02791 0.00180154 -1.27179e-24)
(1.02821 0.00165442 0)
(1.02717 0.00222215 -1.32132e-24)
(1.02756 0.00198699 0)
(1.02628 0.00284996 0)
(1.02673 0.0025128 0)
(1.0254 0.00355778 0)
(1.02582 0.00321049 0)
(1.02474 0.00407596 0)
(1.02503 0.00385462 0)
(1.02436 0.00431217 3.05211e-24)
(1.02453 0.00422142 0)
(1.02388 0.00447061 0)
(1.02417 0.00438097 0)
(1.02277 0.00502959 0)
(1.02342 0.00464959 0)
(1.02114 0.00676595 -5.97233e-27)
(1.02199 0.0057265 0)
(1.01948 0.00905748 0)
(1.0203 0.00798162 0)
(1.01765 0.0102146 -5.30548e-24)
(1.0186 0.00979222 4.71387e-22)
(1.01563 0.011727 -9.9901e-22)
(1.01668 0.0107262 9.84993e-22)
(1.01436 0.0131785 1.0029e-21)
(1.03022 -0.000282841 6.34655e-22)
(1.01555 -0.000471213 -1.16695e-22)
(1.01578 -0.00292925 0)
(1.01426 -0.0142902 -1.27536e-22)
(1.01281 -0.0131423 7.58698e-24)
(1.01429 0.000861917 -9.62758e-22)
(1.01482 -0.00455458 0)
(1.01307 0.00237233 -7.53906e-22)
(1.01396 -0.00641403 0)
(1.01193 0.00410473 1.03246e-21)
(1.01327 -0.00850277 0)
(1.01081 0.0061006 1.06966e-21)
(1.01287 -0.0107664 0)
(1.0098 0.00835228 2.81627e-21)
(1.009 0.011025 -1.11657e-21)
(1.01084 0.0157208 -8.67217e-22)
(1.00919 0.0145744 1.62821e-20)
(1.00919 0.0177068 -2.19685e-21)
(1.03024 -0.000352142 -2.11008e-22)
(1.0302 0.00010531 1.6147e-21)
(1.03022 6.04434e-05 3.84683e-22)
(1.03028 -0.000307182 6.30941e-22)
(1.03018 6.53555e-05 0)
(1.01562 -0.00169408 0)
(1.01306 -0.015663 4.89466e-22)
(1.01456 -0.0167358 1.68309e-21)
(1.01664 -0.0139941 -1.16396e-21)
(1.01563 -0.0152719 -1.81617e-21)
(1.01838 -0.0117976 -4.4941e-22)
(1.01753 -0.0128307 1.05763e-21)
(1.01991 -0.00997355 -4.5977e-22)
(1.01917 -0.0108441 9.1571e-22)
(1.02132 -0.00847989 0)
(1.02063 -0.00918544 0)
(1.02266 -0.00730202 5.07527e-27)
(1.022 -0.00785481 0)
(1.02394 -0.00638108 0)
(1.02331 -0.00681444 0)
(1.02511 -0.00562332 0)
(1.02454 -0.00598777 0)
(1.0261 -0.00495593 0)
(1.02563 -0.00528143 0)
(1.02686 -0.00433486 -2.91613e-24)
(1.02651 -0.00464206 0)
(1.02739 -0.00372669 2.81264e-24)
(1.02715 -0.00403028 0)
(1.02774 -0.00313343 -5.41842e-24)
(1.02758 -0.00342609 0)
(1.02803 -0.002599 3.31946e-27)
(1.02789 -0.0028559 0)
(1.02831 -0.00216109 -2.95903e-27)
(1.02817 -0.00236661 0)
(1.02862 -0.00183046 -2.41291e-24)
(1.02846 -0.00198376 0)
(1.02893 -0.00157072 -2.4384e-27)
(1.02877 -0.00169457 0)
(1.02925 -0.00135703 0)
(1.02909 -0.00145779 0)
(1.02954 -0.00120276 0)
(1.02941 -0.00127233 0)
(1.02975 -0.0010865 0)
(1.02966 -0.00114399 0)
(1.02987 -0.000949183 0)
(1.02982 -0.00102373 0)
(1.02996 -0.000773165 0)
(1.02991 -0.000865598 0)
(1.03005 -0.000593958 1.7638e-24)
(1.03 -0.000682332 0)
(1.03015 -0.000455489 -3.30131e-22)
(1.0301 -0.000523349 1.10486e-22)
(1.0302 -0.000406315 4.50246e-25)
(1.01146 -0.0143909 -2.46273e-22)
(1.01173 -0.0171982 0)
(1.01336 -0.0183597 6.15077e-23)
(1.03017 -0.000191036 2.01594e-22)
(1.0303 -0.000257425 -1.15151e-23)
(1.03024 -0.000213532 1.99735e-22)
(1.03004 -0.00015284 0)
(1.03011 -0.000177169 0)
(1.02995 -0.000175046 0)
(1.02998 -0.000174635 9.93685e-23)
(1.03007 -0.000292949 0)
(1.02998 -0.00025585 0)
(1.0302 -0.000217293 0)
(1.03016 -0.000294441 0)
(1.03011 -9.62548e-05 0)
(1.03016 -0.000161288 0)
(1.03004 -4.01543e-05 0)
(1.03005 -8.40022e-05 0)
(1.03008 1.52079e-05 9.92166e-23)
(1.03005 -3.44563e-05 2.48948e-23)
(1.03012 3.53997e-05 -2.00203e-22)
(1.03014 0.000220903 -1.61113e-22)
(1.03017 0.00016078 -1.056e-22)
(1.03007 0.000345468 0)
(1.0301 0.000280938 5.32933e-23)
(1.03 0.000481344 0)
(1.03003 0.000411592 0)