/*--------------------------------*- C++ -*----------------------------------*\
  =========                 |
  \\      /  F ield         | OpenFOAM: The Open Source CFD Toolbox
   \\    /   O peration     | Website:  https://openfoam.org
    \\  /    A nd           | Version:  10
     \\/     M anipulation  |
\*---------------------------------------------------------------------------*/
FoamFile
{
    format      ascii;
    class       volScalarField;
    location    "2.5";
    object      p;
}
// * * * * * * * * * * * * * * * * * * * * * * * * * * * * * * * * * * * * * //

dimensions      [0 2 -2 0 0 0 0];

internalField   nonuniform List<scalar> 
6397
(
0.279946
0.266229
0.0287086
0.027702
0.0269584
0.0279493
0.486349
0.233951
-0.46836
-0.520042
0.33798
0.218425
-0.0139839
-0.015952
-0.0254534
-0.505983
-0.512612
-0.501535
0.862855
0.80209
0.766324
-0.529848
-0.5063
-0.509683
-0.0106223
-0.0107204
-0.00617535
0.0356595
0.0368725
0.0343888
0.0354979
0.0255289
0.0264547
0.0267246
0.0229963
0.0239428
0.0243063
0.0252259
0.0213137
0.020383
0.0216973
0.0226422
0.0333173
0.0294674
0.0304642
0.0289597
0.0282152
0.0292182
0.0171519
0.0171143
0.0160751
0.0164018
0.0167875
0.339073
0.322797
0.203091
0.214026
0.0573272
0.0451635
0.0437213
0.0466299
0.0481345
0.0496694
0.0512098
0.0527961
0.0544106
0.0560653
0.057746
0.0438513
0.0422924
0.04238
0.0453518
0.0468319
0.0482991
0.0497814
0.0513335
0.0529348
0.0545718
0.0562365
0.0579447
0.0409981
0.0408958
0.0595006
0.0596886
0.0396499
0.0395057
0.0613245
0.0614852
0.0383152
0.0381533
0.0632043
0.0633227
0.0370292
0.0357984
0.0651489
0.0652208
0.0384582
0.0358922
0.0371711
0.0411607
0.0397887
0.0439805
0.0425623
0.0468967
0.04543
0.0498797
0.0483742
0.0530084
0.0514282
0.0562763
0.0546228
0.0597505
0.0580009
0.0633047
0.061509
0.0651713
0.0611159
0.0650083
0.0630284
0.0575017
0.0592724
0.0541258
0.0557763
0.0509495
0.052504
0.0479338
0.0494126
0.0449946
0.0464529
0.042111
0.0435385
0.0393328
0.040689
0.0367093
0.0379867
0.0346367
0.0345286
0.0346572
0.0671357
0.067212
0.0647245
0.0670634
0.0667789
0.0692037
0.0669668
0.068995
0.0342212
0.0359202
0.0345816
0.0331467
0.067201
0.0384955
0.0371958
0.0411733
0.0398195
0.0439707
0.0425673
0.0468411
0.0453912
0.0498113
0.0483109
0.0529119
0.0513455
0.0561536
0.0545077
0.0595909
0.0578523
0.0631673
0.0613602
0.065029
0.0608967
0.062764
0.0573292
0.0590815
0.0540009
0.0556551
0.0508441
0.0524123
0.0478233
0.0493264
0.0448813
0.0463499
0.0420043
0.0434456
0.0392255
0.0405987
0.0365903
0.037893
0.0353624
0.0335174
0.0334464
0.0332979
0.033412
0.0689393
0.0692439
0.0693211
0.0666966
0.0686927
0.0711336
0.0714007
0.0685247
0.0711943
0.0707326
0.032254
0.0320775
0.032056
0.0331724
0.031934
0.0329752
0.0340948
0.0693651
0.0358353
0.0345044
0.038476
0.0371539
0.0411435
0.0397953
0.0439013
0.0425059
0.0467493
0.0453106
0.0497034
0.0482135
0.0527711
0.0512265
0.0559745
0.054352
0.0593583
0.0576474
0.0629224
0.0611202
0.0647865
0.0644504
0.0664378
0.0606881
0.0625327
0.0571959
0.0589208
0.0538971
0.0555321
0.0507568
0.0523115
0.0477414
0.0492355
0.0448171
0.0462682
0.0419659
0.0433828
0.0391955
0.0405663
0.0365174
0.0378439
0.035262
0.0323112
0.0323363
0.0321972
0.0707766
0.0715075
0.0715711
0.0729932
0.0735244
0.073395
0.0737367
0.0308602
0.0307489
0.0311094
0.0309813
0.0339877
0.0327949
0.0330862
0.0318569
0.0729625
0.0752546
0.0758027
0.0318954
0.0716224
0.0357451
0.0344099
0.0383898
0.0370674
0.0410717
0.0397215
0.0438115
0.0424279
0.0466385
0.0452146
0.0495673
0.0480915
0.0525974
0.0510722
0.0557538
0.0541575
0.0590757
0.0573929
0.0625846
0.0608082
0.0663135
0.0644234
0.0702814
0.0682592
0.0745776
0.072385
0.0680315
0.0722967
0.0700962
0.0641
0.0660322
0.0604402
0.0622467
0.0570192
0.0587121
0.053769
0.0553755
0.0506594
0.0521996
0.0476662
0.0491498
0.0447622
0.0462037
0.0419316
0.0433377
0.0391663
0.0405391
0.0364831
0.0378041
0.0352086
0.0310858
0.0311602
0.0309852
0.075371
0.0745892
0.0776842
0.0768502
0.0738612
0.0739502
0.0306568
0.0308502
0.03387
0.0326719
0.0759769
0.0762333
0.0769638
0.0778841
0.0783898
0.0802853
0.0792232
0.0316962
0.0739998
0.0330294
0.030544
0.0317773
0.035642
0.0343408
0.0382849
0.0369496
0.0409617
0.0396101
0.0436929
0.0423167
0.0464987
0.0450875
0.0493978
0.0479396
0.0523907
0.0508847
0.0554967
0.0539291
0.0587434
0.0571004
0.0621656
0.0604326
0.0657798
0.0639547
0.0696195
0.0676803
0.0737016
0.0716463
0.0780148
0.0758151
0.0715363
0.0758959
0.0736826
0.0674871
0.0694747
0.0637018
0.065576
0.0601562
0.0619083
0.0568053
0.0584627
0.053608
0.0551892
0.0505338
0.0520577
0.0475676
0.049039
0.0446842
0.0461159
0.0418732
0.0432695
0.039122
0.0404881
0.0364389
0.0377636
0.0351398
0.0794441
0.0781859
0.0817313
0.0802674
0.0306849
0.0315161
0.0297616
0.0296719
0.0298568
0.0298256
0.029868
0.0298958
0.0296804
0.029797
0.0294457
0.0295692
0.0293207
0.0763631
0.0764966
0.0785819
0.0789267
0.0805235
0.0811742
0.0805477
0.0820365
0.083064
0.0825625
0.0843844
0.0304338
0.0291941
0.0765391
0.0329556
0.0316896
0.0355438
0.0342612
0.0381723
0.0368458
0.0408371
0.0394875
0.0435531
0.0421837
0.0463366
0.0449385
0.0492012
0.0477629
0.0521526
0.0506685
0.0552024
0.053666
0.058373
0.0567711
0.0616883
0.0600122
0.0651749
0.0634107
0.068842
0.0669854
0.0726788
0.0707592
0.076654
0.0746428
0.0806713
0.0786697
0.0747658
0.0789558
0.0768595
0.0707223
0.0727246
0.0668798
0.0687798
0.0632644
0.0650577
0.0598299
0.0615275
0.0565548
0.0581751
0.0534136
0.054969
0.0503821
0.0518858
0.047446
0.0489039
0.0445868
0.0460075
0.0417942
0.0431832
0.039065
0.0404213
0.0363986
0.0377155
0.0337986
0.0350852
0.031346
0.0325562
0.0302203
0.0286273
0.0284426
0.0285979
0.0286317
0.028612
0.0286457
0.0286601
0.0285138
0.0286198
0.0282716
0.028414
0.0829577
0.0810539
0.0849744
0.0826675
0.0280319
0.0281479
0.0790546
0.0792379
0.0813795
0.0818391
0.0833511
0.0841979
0.0847672
0.0860705
0.083135
0.0854291
0.0872164
0.0846321
0.0874772
0.0809127
0.0851814
0.0825319
0.0865701
0.0818559
0.0832332
0.0279159
0.0268575
0.0267775
0.0792783
0.0303419
0.0290651
0.0328512
0.0316042
0.0354287
0.0341544
0.0380507
0.0367288
0.0407016
0.0393537
0.0433979
0.0420358
0.046156
0.0447708
0.0489844
0.047566
0.0518911
0.050431
0.0548807
0.0533771
0.0579705
0.0564126
0.0611694
0.0595561
0.0645022
0.0628186
0.0679732
0.0662193
0.0715548
0.0697629
0.07519
0.0733833
0.0786871
0.0769595
0.0803056
0.0773241
0.079148
0.0735853
0.0754825
0.0698438
0.0717167
0.0662427
0.0680318
0.0627836
0.0644986
0.059464
0.0611072
0.0562725
0.0578538
0.0531931
0.0547199
0.0502086
0.0516904
0.0473057
0.0487477
0.0444737
0.0458823
0.0417035
0.0430824
0.0389918
0.0403408
0.0363386
0.0376536
0.0337195
0.035015
0.0312096
0.0324476
0.0300227
0.0273662
0.0271774
0.0274341
0.0274563
0.0274415
0.0274259
0.0274366
0.0274598
0.0273397
0.0274291
0.0271087
0.0272432
0.0269742
0.081967
0.0822084
0.084405
0.0850169
0.0863856
0.0874922
0.0876423
0.0893355
0.0879464
0.0902548
0.0839666
0.0871394
0.0899636
0.0843535
0.0883346
0.0809839
0.0851093
0.0816518
0.0850899
0.0806455
0.0807875
0.0256527
0.0255735
0.0277795
0.0266027
0.0822505
0.0302338
0.0289409
0.0327316
0.0315062
0.0353001
0.0340393
0.0379159
0.0365997
0.0405541
0.0392091
0.0432292
0.0418746
0.0459587
0.0445872
0.0487482
0.0473502
0.0516044
0.0501711
0.0545301
0.0530601
0.0575369
0.0560237
0.0606243
0.0590708
0.0638004
0.0622017
0.06706
0.0654198
0.0703745
0.0687161
0.0736287
0.0720345
0.0766824
0.0752155
0.0791379
0.0780274
0.0800609
0.0787046
0.0799854
0.0756949
0.0772663
0.0723694
0.0740794
0.068936
0.0706513
0.0655585
0.0672395
0.062263
0.0639005
0.0590623
0.0606501
0.0559607
0.0575002
0.0529474
0.0544435
0.0500129
0.0514715
0.0471485
0.0485723
0.0443463
0.0457408
0.0415995
0.0429671
0.0389053
0.0402458
0.0362558
0.0375739
0.0336368
0.0349318
0.0310972
0.0323516
0.0298679
0.0259393
0.0257497
0.0262064
0.0260881
0.026239
0.0262588
0.0262538
0.0262467
0.0262169
0.0262533
0.0261261
0.0262089
0.0259425
0.0260517
0.0257944
0.085138
0.0854551
0.0876955
0.0884974
0.0896514
0.0910813
0.0906638
0.0928615
0.0904557
0.0934311
0.0888927
0.0924304
0.0818717
0.085856
0.0898291
0.0802884
0.085261
0.0255413
0.0854961
0.027627
0.0251816
0.0263492
0.0301068
0.0288331
0.0326061
0.0313902
0.0351692
0.033912
0.0377695
0.0364563
0.0403934
0.0390542
0.0430466
0.0417026
0.0457458
0.0443902
0.0484963
0.0471187
0.0513007
0.0498949
0.0541603
0.052725
0.0570785
0.0556129
0.0600531
0.0585592
0.0630752
0.0615596
0.0661289
0.0645995
0.0691658
0.067654
0.0720846
0.0706521
0.0746849
0.0734502
0.0765925
0.075754
0.0773041
0.0771103
0.0761094
0.0770107
0.0782555
0.0783898
0.0785594
0.0766049
0.0775605
0.0740746
0.0754228
0.0711329
0.0726473
0.0680028
0.0695761
0.0648451
0.0664233
0.0617158
0.0632755
0.0586381
0.0601691
0.0556275
0.0571248
0.0526822
0.0541468
0.0498002
0.0512341
0.0469765
0.0483818
0.0442058
0.0455854
0.0414836
0.0428387
0.0388058
0.0401381
0.0361666
0.0374806
0.0335607
0.0348523
0.0309967
0.0322768
0.0285463
0.0297463
0.0274381
0.0248455
0.0245619
0.0247232
0.0250295
0.0249493
0.02507
0.0250688
0.0250674
0.0250803
0.0250124
0.0250472
0.0249364
0.0249923
0.0247965
0.02488
0.024526
0.0246631
0.0244153
0.0243989
0.0814852
0.0776124
0.0790243
0.0743984
0.0886137
0.0890309
0.0262
0.0912923
0.0923294
0.0247258
0.0230871
0.0230808
0.0931691
0.0950325
0.093806
0.0966605
0.092871
0.0966864
0.0903187
0.0947217
0.0860547
0.090849
0.076033
0.0802517
0.0845952
0.0766534
0.0717427
0.0890698
0.0274793
0.0261761
0.0299718
0.0287214
0.032473
0.0312452
0.0350297
0.0337626
0.0376112
0.036304
0.0402186
0.0388938
0.0428521
0.041523
0.0455218
0.044183
0.0482315
0.046875
0.0509821
0.0496044
0.0537736
0.0523739
0.0566042
0.0551853
0.0594663
0.0580318
0.0623408
0.0609043
0.0651992
0.063774
0.0679766
0.0666041
0.0705685
0.0693031
0.0727602
0.0717445
0.0742034
0.0736325
0.0743971
0.0745147
0.0725923
0.0737741
0.0678748
0.0706501
0.0754353
0.0726735
0.0744289
0.0757969
0.0758569
0.0746113
0.0753838
0.0725252
0.073665
0.069923
0.0712678
0.0670751
0.0685173
0.0641257
0.0656071
0.0611541
0.06264
0.0581951
0.0596709
0.0552763
0.0567305
0.0524013
0.0538333
0.0495741
0.0509822
0.0467918
0.0481778
0.0440533
0.0454178
0.041356
0.0426997
0.0386965
0.0400201
0.0360693
0.0373773
0.0334754
0.0347658
0.0309135
0.0321973
0.0284257
0.0296483
0.0272605
0.0235213
0.0233264
0.0237148
0.0236323
0.0238759
0.0237972
0.0238994
0.0239045
0.0239029
0.0239216
0.0238449
0.0238779
0.0237712
0.0238184
0.0236388
0.0237119
0.0233967
0.0235363
0.0232355
0.0734295
0.0700393
0.0679305
0.0641529
0.0924516
0.0929975
0.0244358
0.0231284
0.0952414
0.0965945
0.0969511
0.0993957
0.0970167
0.100722
0.0950704
0.0999262
0.0911999
0.0966791
0.0853924
0.0910587
0.0778892
0.0827674
0.0663499
0.0695946
0.0729083
0.0641908
0.059833
0.061376
0.0220104
0.0628012
0.0593599
0.0930368
0.0272777
0.0258842
0.0298235
0.0285666
0.0323276
0.0310838
0.0348754
0.033604
0.0374446
0.0361496
0.0400356
0.0387263
0.042648
0.0413333
0.0452873
0.0439644
0.0479559
0.04662
0.050653
0.0493029
0.0533758
0.0520122
0.056119
0.0547461
0.05887
0.0574945
0.0616049
0.0602421
0.0642811
0.0629533
0.0668273
0.0655767
0.0691278
0.0680161
0.0709848
0.0701299
0.0720723
0.0716501
0.0719027
0.0721962
0.069844
0.0711833
0.0651492
0.0678606
0.0573242
0.0616259
0.0701138
0.0675889
0.0729744
0.0718704
0.0736182
0.07353
0.0728068
0.0733527
0.0710664
0.0720388
0.068762
0.0699613
0.0661616
0.0674876
0.063405
0.0647962
0.0605813
0.0619973
0.0577411
0.0591612
0.0549122
0.0563244
0.0521074
0.0535062
0.0493352
0.0507175
0.0465959
0.0479616
0.0438908
0.0452395
0.0412184
0.0425508
0.0385779
0.0398935
0.0359659
0.0372656
0.033382
0.034668
0.0308284
0.0321069
0.028319
0.0295645
0.0259962
0.0270992
0.0249349
0.0224295
0.022264
0.0226083
0.0225233
0.0227213
0.0226544
0.0227326
0.0227341
0.0227413
0.0227432
0.0226938
0.0227263
0.0226005
0.0226562
0.0224566
0.0225402
0.0222218
0.0223541
0.021812
0.0220598
0.0218812
0.0216887
0.0967197
0.0974359
0.0521367
0.0533907
0.0221338
0.0208789
0.0210954
0.0562906
0.0518925
0.0995887
0.101374
0.100992
0.104215
0.100204
0.105025
0.096859
0.103044
0.0912708
0.0979716
0.0835391
0.0900847
0.0740266
0.0794017
0.0543637
0.0545531
0.0490981
0.0476951
0.0641425
0.067457
0.0549909
0.0201976
0.0235889
0.0199725
0.097476
0.0244126
0.0231919
0.027068
0.0257086
0.0296488
0.0283671
0.0321668
0.0309236
0.0347119
0.0334461
0.0372734
0.0359857
0.0398483
0.0385499
0.042438
0.041136
0.0450461
0.043739
0.0476734
0.0463584
0.0503178
0.0489949
0.0529735
0.0516452
0.0556311
0.0543033
0.0582744
0.056956
0.0608756
0.0595826
0.0633871
0.0621464
0.0657312
0.0645859
0.067787
0.066804
0.0693649
0.0686501
0.0701743
0.0698851
0.0698112
0.0701703
0.0676844
0.0690087
0.0632747
0.0657955
0.0600821
0.0629223
0.0591573
0.0682186
0.0659167
0.070945
0.0698733
0.0717615
0.0715475
0.0711905
0.0716095
0.0697142
0.0705438
0.0676632
0.0687406
0.065275
0.0664995
0.0626949
0.0640026
0.0600109
0.0613607
0.0572831
0.0586506
0.0545414
0.0559122
0.0518074
0.0531729
0.0490893
0.0504463
0.0463925
0.0477384
0.0437203
0.045054
0.0410737
0.0423941
0.0384532
0.0397587
0.0358568
0.0371469
0.0332808
0.0345611
0.0307271
0.0320087
0.0282339
0.0294839
0.0258347
0.0269943
0.0246783
0.0209362
0.0206973
0.0213055
0.0211446
0.0214797
0.0214092
0.0215299
0.021494
0.0215554
0.0215487
0.0215651
0.0215616
0.0215279
0.0215565
0.0214292
0.0214875
0.0212903
0.0213714
0.0210508
0.0211852
0.0207309
0.0209013
0.0204649
0.0560857
0.0199656
0.046102
0.046876
0.101493
0.10244
0.104372
0.10675
0.105256
0.109518
0.0462047
0.103212
0.109502
0.0979485
0.105764
0.0901445
0.0981047
0.0428781
0.0460548
0.0409264
0.0361548
0.0800496
0.0874518
0.039914
0.068316
0.0739761
0.047003
0.0568391
0.0597693
0.0188621
0.0199423
0.0193981
0.0393491
0.0413751
0.0191534
0.102479
0.0221531
0.0198313
0.021025
0.0244558
0.0233219
0.0269327
0.0256387
0.0294726
0.0281966
0.0320051
0.0307589
0.0345469
0.0332838
0.0370976
0.0358167
0.0396554
0.0383677
0.042222
0.0409328
0.0447994
0.0435084
0.047386
0.046092
0.0499782
0.0486824
0.052569
0.0512747
0.0551459
0.0538604
0.0576893
0.0564235
0.0601667
0.0589387
0.0625279
0.0613659
0.0646935
0.0636407
0.0665463
0.0656678
0.0679088
0.0673012
0.0685243
0.0683269
0.0680536
0.0684487
0.0660228
0.067259
0.0620394
0.0642786
0.0560182
0.0592649
0.0481333
0.0523003
0.0356349
0.0393008
0.0436969
0.0552841
0.0509194
0.0622409
0.0590712
0.0668227
0.0648121
0.0693132
0.0683022
0.0701612
0.0699165
0.0697498
0.0700798
0.0684761
0.0691994
0.0666351
0.0676094
0.0644309
0.0655675
0.0620058
0.0632391
0.0594496
0.0607389
0.0568255
0.0581436
0.0541684
0.0554992
0.0515012
0.0528354
0.0488362
0.050168
0.046182
0.0475081
0.043543
0.0448615
0.0409224
0.0422313
0.0383219
0.039618
0.0357404
0.0370219
0.0331737
0.0344464
0.0306233
0.0319019
0.028127
0.0293934
0.0256894
0.0268814
0.023352
0.0244623
0.0222993
0.019837
0.0196629
0.0201607
0.0200258
0.0202938
0.0202314
0.0203406
0.0203119
0.0203939
0.0203695
0.0203959
0.0203985
0.0203601
0.0203849
0.0202694
0.0203254
0.0201174
0.0202069
0.0198546
0.0200259
0.0195845
0.0196917
0.0192829
0.0194195
0.0191409
0.106847
0.108113
0.03512
0.0429686
0.0399471
0.109608
0.112793
0.0474851
0.109653
0.115297
0.105774
0.113977
0.0379002
0.0358866
0.041873
0.0389265
0.0314047
0.097911
0.107619
0.0292842
0.0872911
0.0965014
0.0300458
0.0320878
0.0312095
0.074341
0.0825264
0.0373727
0.0602288
0.0657977
0.0474077
0.0196639
0.0186452
0.0184724
0.0178596
0.0207924
0.0191574
0.0175641
0.108144
0.0219982
0.0208492
0.0243689
0.0231944
0.0268284
0.0255556
0.0293224
0.0280687
0.031844
0.0305968
0.0343787
0.0331191
0.0369181
0.0356454
0.0394595
0.0381824
0.0420029
0.0407267
0.0445498
0.0432747
0.0470968
0.0458235
0.0496388
0.0483692
0.0521664
0.0509053
0.0546657
0.0534209
0.0571146
0.0558981
0.0594792
0.05831
0.0617082
0.0606145
0.0637233
0.062748
0.0654121
0.0646164
0.0666125
0.0660846
0.0671032
0.06696
0.0666079
0.0669984
0.0647693
0.065873
0.0613044
0.0632464
0.0562458
0.0589557
0.0498299
0.0531887
0.0463431
0.0492037
0.0454007
0.0563543
0.0529233
0.0619821
0.0593907
0.0658408
0.0641289
0.0680314
0.0671302
0.0688097
0.0685776
0.0684967
0.0687779
0.0673641
0.0680115
0.065682
0.0665768
0.0636296
0.0646923
0.0613397
0.0625069
0.0589015
0.0601345
0.056375
0.0576464
0.0537972
0.0550906
0.0511939
0.0524976
0.0485811
0.0498883
0.0459681
0.0472749
0.0433616
0.0446653
0.0407658
0.0420643
0.0381844
0.0394728
0.0356186
0.0368911
0.0330635
0.0343245
0.0305166
0.0317879
0.028006
0.0292838
0.0255571
0.0267797
0.02313
0.024307
0.021968
0.0183981
0.0182109
0.0183025
0.0187052
0.0185636
0.0190025
0.0188876
0.0191098
0.019047
0.0192042
0.0191584
0.019268
0.0192369
0.0192564
0.0192564
0.0192154
0.0192425
0.0191229
0.0191806
0.0189594
0.019052
0.0187383
0.0188616
0.0185515
0.0186094
0.0183483
0.0184985
0.0181487
0.031033
0.037433
0.112845
0.114553
0.0494511
0.115269
0.119547
0.0369226
0.0445235
0.0447533
0.0360633
0.113996
0.121456
0.0369467
0.0279511
0.107447
0.118065
0.0227777
0.0961603
0.107897
0.0241191
0.0286317
0.0220186
0.0820043
0.0923934
0.024411
0.0262354
0.0657576
0.0741917
0.0356725
0.0493568
0.0173608
0.0180558
0.0272475
0.0354772
0.114567
0.0194689
0.0172872
0.0183628
0.0218255
0.0206542
0.0242356
0.0230191
0.0266849
0.0254216
0.0291704
0.027927
0.031682
0.0304412
0.034209
0.0329541
0.0367369
0.0354714
0.039262
0.0379947
0.041783
0.0405193
0.0442997
0.0430406
0.0468081
0.0455549
0.0493022
0.0480576
0.0517704
0.0505403
0.054198
0.0529906
0.0565607
0.0553891
0.0588235
0.0577072
0.0609347
0.0599016
0.0628216
0.0619114
0.0643801
0.0636487
0.0654667
0.0649926
0.0658913
0.0657718
0.0654406
0.0657901
0.0638586
0.0648014
0.0609619
0.0625753
0.0568287
0.0590281
0.0517431
0.0543639
0.0465794
0.0490609
0.0430887
0.0445083
0.0343188
0.0428799
0.0424291
0.0470892
0.0453227
0.0522132
0.049498
0.0576212
0.0549806
0.0620291
0.0599813
0.0651825
0.0637658
0.0670351
0.0662685
0.067693
0.0675144
0.0674047
0.0676606
0.066366
0.0669608
0.0648058
0.0656378
0.0628825
0.0638815
0.0607089
0.0618196
0.0583738
0.0595572
0.0559342
0.0571639
0.05343
0.0546881
0.0508881
0.0521625
0.0483251
0.0496087
0.0457523
0.04704
0.0431776
0.0444662
0.0406064
0.041893
0.0380434
0.0393227
0.0354905
0.0367572
0.0329436
0.0342018
0.0303997
0.0316714
0.0278829
0.0291658
0.0254352
0.0266654
0.0230033
0.0241803
0.0204442
0.0217385
0.0192383
0.0173479
0.0172236
0.0175854
0.017471
0.0178389
0.0177318
0.0179839
0.0179109
0.0181054
0.0180476
0.0181482
0.0181333
0.018142
0.0181475
0.0180968
0.0181272
0.0180052
0.0180595
0.0178667
0.0179423
0.0177191
0.0177898
0.0175847
0.0176462
0.0173057
0.0175026
0.0168104
0.0170699
0.0162479
0.0165165
0.0541252
0.119512
0.121829
0.0160309
0.0160784
0.0456299
0.0361637
0.121238
0.126968
0.0442861
0.0347065
0.0364614
0.0257285
0.117921
0.127713
0.0241764
0.0171448
0.107572
0.121028
0.0178478
0.0247711
0.0128351
0.0919284
0.105703
0.0159307
0.0140668
0.0733427
0.0846864
0.0182388
0.0215863
0.0535783
0.0613927
0.0353493
0.0469388
0.0551123
0.0573477
0.0473404
0.0508929
0.121807
0.0171287
0.0147746
0.0160058
0.0192709
0.0181822
0.0216354
0.0204634
0.0240893
0.022833
0.0265343
0.025276
0.029013
0.0277758
0.0315201
0.0302844
0.0340392
0.0327894
0.0365553
0.0352973
0.0390643
0.0378069
0.0415634
0.0403121
0.0440513
0.0428077
0.0465224
0.0452888
0.0489705
0.04775
0.0513825
0.0501818
0.0537433
0.0525706
0.0560275
0.0548966
0.0582015
0.0571309
0.0602138
0.0592312
0.0619963
0.0611386
0.0634546
0.0627717
0.0644682
0.0640255
0.0648788
0.0647569
0.0645209
0.0648062
0.0632242
0.0639949
0.0608894
0.0621863
0.0576307
0.0593476
0.0537104
0.0557167
0.0500331
0.0517564
0.0481681
0.0487981
0.0494838
0.0482555
0.0520092
0.0535644
0.0587438
0.0554602
0.0509579
0.051974
0.0517485
0.0508542
0.0550316
0.0531726
0.0589641
0.0569985
0.0622979
0.0607157
0.0647927
0.0636593
0.0662876
0.0656686
0.0667885
0.0666514
0.0664651
0.0667179
0.0654823
0.0660425
0.0640109
0.0647968
0.0621864
0.0631352
0.0601103
0.0611729
0.0578661
0.0590052
0.0555064
0.0566976
0.0530711
0.0542962
0.0505866
0.0518337
0.0480709
0.0493319
0.0455367
0.046806
0.042993
0.0442664
0.0404461
0.0417198
0.0379009
0.0391697
0.0353588
0.03662
0.032815
0.0340777
0.0302716
0.0315548
0.0277633
0.02905
0.0253207
0.0265374
0.0228554
0.0240168
0.0203463
0.0215841
0.0179352
0.0191847
0.0162943
0.0161459
0.0165325
0.0164372
0.0167211
0.0166259
0.0168873
0.0168097
0.0169955
0.0169445
0.0170364
0.0170223
0.0170329
0.0170384
0.0169928
0.0170214
0.0169122
0.0169619
0.016797
0.016861
0.016637
0.0167221
0.0164344
0.0165381
0.016142
0.0163246
0.0157223
0.0159357
0.0151702
0.0154423
0.0148783
0.0374839
0.126787
0.129926
0.0506245
0.0554864
0.0613377
0.0148897
0.0135731
0.0376792
0.0387524
0.0248677
0.127227
0.134837
0.0233537
0.013103
0.120773
0.133436
0.0124911
0.0211075
0.00446989
0.105268
0.121725
0.00685658
0.00146274
0.0840909
0.0997319
0.0110909
0.00650795
0.00551891
0.0601127
0.0717899
0.0179195
0.0371129
0.0653216
0.046871
0.0406135
0.129845
0.0167134
0.0155948
0.0190443
0.0178726
0.0214574
0.020267
0.0239138
0.0226489
0.026374
0.0251138
0.028854
0.0276188
0.0313587
0.030124
0.0338707
0.0326243
0.0363754
0.035124
0.0388685
0.0376204
0.0413461
0.0401069
0.0438064
0.0425776
0.046242
0.0450272
0.0486468
0.0474489
0.0510064
0.049833
0.0533056
0.0521649
0.0555184
0.0544243
0.057613
0.0565829
0.0595413
0.058601
0.0612417
0.0604242
0.0626294
0.0619797
0.063603
0.0631744
0.0640384
0.0638944
0.0638093
0.0640135
0.0628052
0.0634062
0.0609932
0.061997
0.0585124
0.0598133
0.0556929
0.0571144
0.0532952
0.0543248
0.0526861
0.0527538
0.0548601
0.0532921
0.0605302
0.0575056
0.0510459
0.0591011
0.0676435
0.0635648
0.0595593
0.0659895
0.0619569
0.0564341
0.0577799
0.0558323
0.0557719
0.0576182
0.0565012
0.0602981
0.0589351
0.0627486
0.0615813
0.0646275
0.0637697
0.0657405
0.0652846
0.0660533
0.0659891
0.0656658
0.065937
0.0647032
0.0652468
0.0632879
0.0640428
0.0615414
0.062449
0.0595496
0.0605706
0.0573844
0.0584847
0.055096
0.0562526
0.0527229
0.053918
0.0502915
0.0515131
0.0478205
0.0490601
0.0453232
0.0465747
0.0428089
0.044068
0.040285
0.0415473
0.0377562
0.0390174
0.0352239
0.0364826
0.0326854
0.0339506
0.0301467
0.0314313
0.0276416
0.0289227
0.025184
0.0264042
0.0227054
0.0238922
0.0202211
0.0214497
0.017763
0.0190553
0.0149533
0.0148484
0.015208
0.015025
0.0154563
0.0153599
0.015632
0.015544
0.0157834
0.015713
0.0158731
0.015832
0.0159235
0.015901
0.0159253
0.0159297
0.0158943
0.0159211
0.0158121
0.0158622
0.0156761
0.0157544
0.015471
0.0155831
0.0152441
0.015348
0.0150186
0.0151539
0.0146657
0.0148563
0.0141865
0.0144224
0.0138887
0.0441138
0.0432859
0.0252152
0.134434
0.138651
0.0134725
0.0723147
0.0266237
0.0110559
0.13264
0.142592
0.0120704
0.0672727
0.0747068
0.0102981
0.0671751
0.0584941
0.0197923
-0.00231023
0.121473
0.137408
-0.0012171
-0.0106739
0.0992379
0.11861
0.00354182
-0.00621682
-0.0117074
0.0709614
0.0879241
-0.00437113
-0.00292679
0.0410744
0.0518878
0.0437424
0.052335
0.0157021
0.060668
0.0340559
0.0274262
0.138479
0.0163902
0.0150055
0.0188186
0.0176286
0.0212553
0.0200472
0.0237289
0.0224696
0.0262066
0.0249468
0.0286958
0.0274555
0.031199
0.0299608
0.0337041
0.0324593
0.0361978
0.0349527
0.0386758
0.0374368
0.0411329
0.0399054
0.0435667
0.0423522
0.0459688
0.0447717
0.048333
0.0471564
0.0506441
0.0494959
0.0528874
0.0517755
0.0550372
0.0539754
0.0570632
0.0560679
0.0589205
0.0580156
0.0605551
0.0597692
0.061894
0.0612658
0.0628525
0.0624255
0.0633384
0.0631595
0.0632559
0.0633718
0.0625491
0.0629806
0.0612185
0.0619567
0.0594387
0.0603619
0.0575205
0.0584797
0.0562123
0.0566832
0.056569
0.0561358
0.0593683
0.0575439
0.0649251
0.0619895
0.0728088
0.0680354
0.0805744
0.0748116
0.0853326
0.0717023
0.0777558
0.0646931
0.0675006
0.0609972
0.0625957
0.0593737
0.059849
0.0600025
0.0594891
0.06163
0.0607644
0.0632923
0.0624924
0.0645983
0.0640008
0.0653419
0.0650477
0.0654559
0.0654732
0.0649851
0.065287
0.0640145
0.0645547
0.0626391
0.06337
0.0609529
0.0618289
0.0590279
0.0600154
0.0569288
0.0579962
0.0547034
0.0558292
0.0523868
0.0535544
0.0500047
0.0512025
0.0475756
0.0487951
0.0451131
0.0463479
0.0426268
0.0438725
0.0401244
0.0413766
0.0376108
0.0388664
0.0350873
0.0363466
0.0325548
0.0338233
0.0300241
0.0313041
0.0275216
0.0287872
0.0250426
0.026261
0.0225348
0.0237477
0.0200275
0.0212868
0.0174956
0.0188389
0.014806
0.0161064
0.0137811
0.0135312
0.0136271
0.0141165
0.0139308
0.0143545
0.0142555
0.0145454
0.0144563
0.0146786
0.0146149
0.0147683
0.0147265
0.0148221
0.0147974
0.0148185
0.0148288
0.0147992
0.014834
0.0147071
0.0147623
0.0145607
0.0146422
0.0143878
0.0144743
0.0142021
0.014295
0.0139428
0.0140953
0.0135679
0.0137636
0.0131389
0.0133728
0.0123825
0.0127757
0.0121826
0.0340706
0.0105492
0.141888
0.147465
0.013326
0.0795906
0.0134948
0.013087
0.0417023
0.0318221
0.0801453
0.0726965
0.0194196
-0.00704347
0.136346
0.14906
-0.0055581
-0.0212632
0.118328
0.137608
-0.00279029
0.0518519
-0.0180186
-0.028967
0.0869976
0.108739
-0.0214691
-0.0265293
0.0505066
0.0675955
-0.0165119
-0.0113803
0.0151842
0.077905
0.0178594
0.0461928
0.0313009
0.0713307
0.0116556
0.147163
0.015986
0.0146018
0.0185511
0.0173134
0.0210307
0.0198088
0.0235402
0.0222728
0.02604
0.0247694
0.0285371
0.0272873
0.0310399
0.0297981
0.0335394
0.0322971
0.0360236
0.034785
0.0384876
0.0372574
0.0409252
0.0397089
0.043334
0.0421331
0.0457046
0.0445241
0.0480309
0.046874
0.0502972
0.0491722
0.0524898
0.051404
0.0545834
0.0535503
0.0565507
0.0555849
0.0583506
0.0574738
0.0599358
0.059173
0.0612456
0.0606286
0.0622103
0.0617747
0.0627623
0.0625409
0.0628349
0.0628609
0.0624067
0.0626806
0.0615141
0.0620127
0.0603491
0.0609433
0.0592106
0.0597609
0.058727
0.0588143
0.0597501
0.0590287
0.0630804
0.0610508
0.0685142
0.0655987
0.0769112
0.0720991
0.0873389
0.0902766
0.0830548
0.0833988
0.0905791
0.0859729
0.0890113
0.0971813
0.0942717
0.0763848
0.0820394
0.0689148
0.0720853
0.0646504
0.0665204
0.062426
0.063278
0.0621397
0.0620958
0.0628947
0.0624472
0.0638761
0.0633928
0.0646701
0.0643094
0.0650709
0.0649274
0.0649861
0.0650888
0.0644166
0.0647574
0.0634192
0.0639659
0.0620599
0.0627792
0.0604119
0.0612665
0.0585409
0.0595002
0.0564999
0.0575381
0.0543307
0.0554288
0.0520654
0.053208
0.0497285
0.0509045
0.0473381
0.0485389
0.044908
0.0461273
0.0424483
0.0436812
0.039966
0.041209
0.0374667
0.0387168
0.034953
0.0362104
0.032427
0.0336949
0.029901
0.0311759
0.0273922
0.028653
0.0248898
0.0261206
0.0223546
0.023597
0.0198111
0.0211001
0.0173023
0.0185988
0.0147315
0.0159802
0.0134188
0.012409
0.0121444
0.0122829
0.0126745
0.0125327
0.0130273
0.0128625
0.013285
0.0131818
0.0134701
0.0133863
0.0135961
0.0135345
0.0136908
0.0136439
0.0137405
0.0137184
0.0137453
0.013748
0.0137131
0.0137406
0.013629
0.0136784
0.0135098
0.0135733
0.0133722
0.0134418
0.013164
0.0132859
0.0128141
0.0130074
0.0124058
0.012617
0.011983
0.0122063
0.0113407
0.01165
0.0108933
0.0111024
0.0209575
0.0631333
0.0125076
0.035272
0.050728
0.0235887
-0.00190665
-0.00942255
0.148031
0.155238
-0.00405789
-0.0296512
0.136428
0.152119
0.0959142
0.0981391
-0.0101887
0.0642437
0.0887366
0.0838142
0.0919423
0.0994615
0.0109576
0.0119601
0.0107507
0.0106356
0.00978696
0.00947987
-0.0257437
-0.0449596
0.108471
0.131158
0.0160511
0.0275293
-0.0382278
-0.0512145
0.0652697
0.0881958
-0.0291222
-0.0391565
-0.0123398
0.0149008
-0.0439306
0.0204944
0.0353719
-0.0187276
-0.00840305
0.15478
0.0131393
0.0118716
0.015675
0.0143666
0.0182643
0.0169926
0.0208065
0.0195553
0.0233463
0.0220681
0.0258653
0.0245916
0.028377
0.0271205
0.0308831
0.0296377
0.033379
0.032138
0.0358545
0.0346211
0.0383053
0.037083
0.0407246
0.0395186
0.0431097
0.0419216
0.0454509
0.044286
0.0477421
0.0466034
0.0499676
0.0488637
0.0521145
0.0510521
0.0541585
0.0531505
0.0560752
0.0551346
0.0578279
0.056974
0.0593761
0.05863
0.06067
0.0600573
0.061656
0.0612043
0.0622833
0.0620161
0.0625162
0.0624499
0.0623514
0.0624798
0.0618571
0.0621381
0.0612185
0.0615372
0.060724
0.0609335
0.060923
0.0606885
0.0624626
0.0614968
0.0660444
0.0639679
0.0716175
0.0685982
0.0801021
0.0753919
0.0925314
0.0858187
0.0927874
0.0936876
0.0818528
0.0880912
0.101335
0.0978936
0.105897
0.103863
0.080017
0.0853813
0.0723997
0.0757437
0.0676854
0.0697583
0.0650063
0.0661192
0.0640287
0.0643444
0.0640797
0.063975
0.0644789
0.06427
0.0648161
0.0646681
0.0649021
0.0648995
0.0646141
0.0648065
0.0639353
0.0643207
0.0628944
0.0634564
0.0615369
0.0622507
0.0599197
0.0607564
0.0580934
0.0590294
0.0561006
0.0571146
0.0539798
0.0550539
0.05176
0.0528804
0.0494643
0.0506202
0.0471096
0.0482932
0.0447097
0.0459146
0.0422746
0.0434958
0.0398117
0.0410459
0.0373259
0.0385708
0.0348215
0.0360758
0.032302
0.0335666
0.0297777
0.0310473
0.0272583
0.0285194
0.0247307
0.0259809
0.0221739
0.0234431
0.0196243
0.0209125
0.0171152
0.0183768
0.0145528
0.0158143
0.013242
0.0112934
0.0111399
0.0115205
0.0114118
0.0118827
0.0116929
0.0121907
0.0120608
0.0123972
0.0123066
0.0125327
0.0124666
0.0126273
0.0125792
0.0126732
0.0126529
0.0126791
0.0126808
0.012647
0.0126704
0.0125753
0.0126168
0.0124683
0.0125272
0.0123032
0.0123942
0.0120453
0.0121871
0.0117286
0.0118939
0.0113198
0.0115441
0.0108429
0.0110874
0.0102943
0.0105665
0.0100563
0.00425807
0.0731817
-0.0282554
-0.0350446
0.150858
0.159917
0.0997492
-0.0137278
0.0784257
0.107391
0.0117532
0.0105318
0.0103059
0.00912128
-0.0262356
-0.0578001
0.129919
0.148419
0.0400904
-0.0510487
-0.0746106
0.0872315
0.11321
-0.00434623
0.00978976
-0.0455817
-0.0627205
-0.0451301
-0.0110864
-0.0796323
0.0295308
0.0522388
-0.0593326
-0.0617615
-0.0218242
0.0625492
0.0484698
-0.034827
0.159305
0.012837
0.0115569
0.015418
0.0141071
0.0180066
0.0167125
0.0205802
0.019306
0.0231499
0.0218656
0.0256953
0.0244152
0.0282199
0.0269565
0.0307305
0.0294804
0.0332239
0.0319829
0.0356916
0.0344625
0.0381302
0.0369149
0.0405323
0.0393357
0.0428954
0.041719
0.0452093
0.0440587
0.0474681
0.0463462
0.0496565
0.0485717
0.0517623
0.0507208
0.053763
0.0527768
0.0556368
0.0547173
0.0573515
0.0565155
0.0588739
0.0581388
0.0601636
0.0595497
0.0611812
0.0607082
0.0618913
0.0615756
0.0622786
0.0621243
0.0623594
0.0623542
0.0622111
0.0623043
0.0620248
0.0621086
0.0620501
0.0619893
0.0627877