/*--------------------------------*- C++ -*----------------------------------*\
  =========                 |
  \\      /  F ield         | OpenFOAM: The Open Source CFD Toolbox
   \\    /   O peration     | Website:  https://openfoam.org
    \\  /    A nd           | Version:  10
     \\/     M anipulation  |
\*---------------------------------------------------------------------------*/
FoamFile
{
    format      ascii;
    class       surfaceScalarField;
    location    "2.5";
    object      phi;
}
// * * * * * * * * * * * * * * * * * * * * * * * * * * * * * * * * * * * * * //

dimensions      [0 3 -1 0 0 0 0];

internalField   nonuniform List<scalar> 
12623
(
0.0967582
0.0228123
-0.0362295
-0.083341
0.0753867
-0.0379826
0.0593541
0.085243
-0.00898033
-0.0788575
0.00259493
-0.00893057
0.0859058
0.00826774
-0.0854851
0.00758264
-0.00605642
0.0839589
-0.0840566
-0.010359
-0.00213678
0.0449971
-0.0510961
0.00823577
-0.0525543
0.0504175
0.0329534
-0.0245782
-0.00837524
0.0132272
-0.0177675
0.0374938
0.0917982
-0.0408656
-0.0509326
-0.0610916
0.0502262
0.102664
-0.0519619
-0.0389776
0.0380042
0.0529353
0.00523691
0.00866847
-0.0658673
-0.0527531
0.0190124
0.00976317
-0.00462703
-0.00791585
0.00277972
-0.006657
-0.00433282
0.020753
-0.00729548
-0.00398855
-3.59848e-05
-0.0130394
0.000422032
0.0126534
-0.0279413
0.00791104
0.0199942
-0.0255197
-0.015461
-0.00136146
0.015153
-0.0089014
-0.00489018
0.00826507
-0.00516262
-0.00446392
-0.0173503
0.0407684
-0.0651484
0.00675105
0.0670658
0.0103003
-0.0728457
-0.00260301
-0.0714311
0.00650216
0.07168
-0.0816435
0.00607428
-0.00702757
0.0825968
-0.0808827
-0.005523
0.00476221
-0.0850621
0.0850344
-0.005306
0.00533371
-0.0825257
0.00353788
-0.0864434
0.0106371
-0.00747641
0.0832827
-0.00885863
-0.0838647
0.00627991
0.0846298
-0.0867516
0.00780957
-0.00617136
0.0851134
-0.0081865
-0.0845487
0.00598354
-0.0885895
-0.005619
0.086022
-0.084414
0.00646156
0.0844523
-0.0103631
-0.0887939
0.0147047
-0.0057635
0.01558
0.0746358
-0.0863255
-0.00792481
0.0838873
-0.0854966
0.00698061
0.00544169
-0.00573461
0.0853273
-0.0859471
0.0111207
-0.0103963
0.0852227
-0.0119172
-0.0829403
0.00891045
-0.00995989
-0.0830771
-0.0845892
-0.00821128
0.0824414
-0.0834284
-0.0089748
-0.0679381
0.00564165
0.0712713
0.0529689
0.00862721
-0.0705709
-0.0554251
0.0186091
0.0897849
-0.0207408
0.084534
-0.0695099
0.00571666
-0.0675387
0.0734596
0.015247
-0.0135726
-0.075134
0.0178541
0.0713983
-0.0157929
-0.0105803
0.00709282
0.0807699
-0.0772824
-0.0830496
0.0828023
-0.010333
0.0795258
-0.00986307
0.0112228
-0.0808856
0.0784209
-0.0789808
0.000105444
0.000454491
8.78059e-05
0.0787621
-0.000428983
-0.0793184
-4.84072e-05
0.000385958
-0.0792699
0.000135406
-0.000183844
-0.0789883
-0.000249735
-3.19515e-05
-0.0789084
-2.00989e-05
-5.97212e-05
-0.0788516
1.27396e-05
-6.96205e-05
-0.0787631
4.59226e-05
-0.000134336
-0.0786285
0.000234679
-0.000369334
-9.5344e-05
-0.0781503
-0.000382837
0.0782864
-0.0785484
0.00034981
0.000605846
0.0787864
-0.000630146
0.0789859
-9.36665e-05
-0.0790977
0.000654681
-0.0793646
0.000218494
-0.0789356
-0.000293593
-0.079096
-8.93174e-05
-0.0790401
-7.59692e-05
-0.0789318
-9.56133e-05
-0.078807
-7.8859e-05
-0.0784457
-0.000126617
-0.0785454
4.37125e-06
0.000430592
0.0788928
-0.000337413
0.0793067
-8.97765e-05
-0.00050662
-0.0785222
0.000878492
-0.0789725
-7.95061e-05
0.00140582
0.0790844
-0.00159742
0.0799972
0.000715384
-0.00080636
-0.0781966
0.000480823
-0.0790641
-0.000714748
0.00336039
0.0791351
-0.00341108
0.0024749
-0.00122878
-0.0783203
0.00135248
-0.0788448
-0.00144816
0.0797244
-0.00611236
-0.00847859
0.0811754
-0.00257104
0.000954534
-0.0767038
-0.00137586
-0.0800399
0.0774459
-0.078365
-0.00249205
-0.0739292
0.0754746
-0.010024
-0.00259567
0.0792361
-0.0791218
-0.000451697
-0.000726267
0.0790181
-0.0789112
0.000242923
-0.000197416
0.0792037
-0.0786869
-0.000298338
0.000947232
0.0791668
-0.0787158
-0.000540241
0.000186253
0.0791474
-0.0786231
-0.000619901
0.000355624
0.0790626
-0.0784115
-0.000777668
0.00036056
0.07831
-0.0787443
0.000354756
-9.71077e-05
0.0791984
-0.0789132
-0.00173336
-0.000260684
-0.079162
-0.00112699
-0.0783244
0.078156
0.000649194
0.0769618
0.000106851
-0.0761141
-1.01082e-05
-0.0787556
0.0784971
-0.000124371
0.000278959
-0.0795918
0.0785301
0.000927278
-0.00146399
-0.0795592
0.0786605
0.000838979
-0.00109863
-0.0795875
0.0786804
0.000723253
-0.000959023
-0.0798702
0.0788877
0.00143701
-0.000803782
-0.0799638
0.0785196
0.000814074
-0.00150514
-0.0793156
0.0798137
0.000217315
-0.000885777
-0.0812073
0.00344379
0.00108124
0.00663301
-0.00827821
0.0828206
0.0839238
-0.00505632
0.0722527
0.00115225
-0.0791488
-0.00116549
-0.000345044
-0.0785426
-0.0761161
0.0766644
-0.000441493
0.000160113
0.000107302
-0.0763816
-0.0765442
0.000588269
-0.00129684
0.000279098
-0.078131
-0.0789726
0.0787707
-0.000963645
-0.0013382
-0.0789312
0.0874216
-0.0846545
0.0025666
0.0725609
-0.077439
-0.00514591
0.0744905
-0.00698585
0.086299
0.00656426
-0.0769416
0.0769632
-0.0779515
-0.00150377
-0.00307148
0.0786136
-0.0784485
-0.000616843
-6.41518e-05
0.0791475
-0.0783481
-0.000556416
0.000501605
0.0778575
-0.078034
-0.000121841
0.000456558
0.0778299
-0.0781532
-0.000216985
-1.77584e-05
0.0777807
-0.0781173
-0.000283296
-1.68926e-05
0.0776892
-0.0779806
-0.000486316
-6.75063e-05
0.0777755
-0.0774505
2.97189e-05
-0.000302145
0.0774219
-0.0785523
-0.000602979
-0.000289303
-0.000908516
-0.0772806
0.0780658
-0.000136031
-0.000626265
-0.0785518
0.0788528
-0.000425327
-0.000207029
-0.0776652
0.0787341
-0.000141687
-0.000276382
-0.0777564
0.078702
-0.000106552
-0.000120941
-0.0778412
0.078655
-9.05458e-05
-9.82639e-05
-0.0779405
0.0794599
-8.23624e-05
-8.92978e-05
-0.0780334
0.0789126
-6.51478e-05
-7.86138e-05
-0.0781493
0.0784065
-3.98794e-05
-0.000122537
-0.0791246
0.0825921
-2.37532e-05
0.000363192
0.00147549
0.00602255
0.000324509
0.0764736
0.0842117
0.0023599
0.073093
-0.00096245
0.0749371
-0.000145689
-0.000278353
-0.0761202
0.000328426
-0.0768557
-0.000625248
-0.0776383
-0.0789871
0.0779465
7.69041e-05
-0.0786313
-0.00169398
0.000980143
-0.00142647
-0.0784849
0.000589591
-0.0777405
-0.0760999
0.0763701
-0.000548607
-0.000151702
0.000660436
-0.0766289
-0.076268
1.64501e-05
0.00819623
-0.0041301
0.0812612
0.0850471
0.00944814
-0.00493319
0.00421142
0.0738148
0.071556
-0.0706618
-0.00185672
0.073845
-0.00722219
-0.0853258
0.00607859
0.0858114
-0.082163
-0.000596162
-0.0772384
0.0735155
-0.0750468
-0.00361464
-0.00413207
0.0766995
-0.0781604
-4.29036e-05
-0.00141878
0.0779857
-0.0785194
-8.31958e-05
-0.000238789
0.0779301
-0.0784092
-7.73067e-05
-8.76609e-05
0.0778627
-0.0778961
-8.84593e-05
-9.00017e-05
0.0778019
-0.0778938
-0.000125081
-0.00011192
0.0777524
-0.0778484
-0.000187347
-0.000158255
0.0776866
-0.0779024
-0.00027051
-0.000229274
0.0778933
-0.0775075
-0.000356087
-0.000311253
0.0773997
-0.0775459
-0.000456793
-0.000397093
-0.000507887
-0.0774707
0.0773375
-0.000308287
-0.000512271
-0.0774192
0.0778495
-0.000566288
-0.000708026
-0.077894
0.0777321
-0.000263429
-0.000251515
-0.0776762
0.0777321
-0.000197509
-0.000220562
-0.0777805
0.0778293
-0.000155344
-0.000169341
-0.0778725
0.0779147
-0.000132774
-0.00014146
-0.0779497
0.0779815
-0.000114138
-0.000124302
-0.0780064
0.0780283
-8.70266e-05
-0.000103552
-0.0779836
0.0780035
-5.97734e-05
-7.7871e-05
-0.0784185
0.0791762
-0.000781372
-5.18349e-05
-0.00151134
0.0036517
-0.00336258
0.0761845
0.0837333
0.075786
-0.0785654
-0.00149235
0.00061894
-0.0768142
2.74454e-05
-0.0770762
0.000388016
-0.000394286
-0.0762618
0.00030422
-0.0765451
0.00107526
-0.00193709
-0.0776231
0.000720014
-0.0773852
-0.00468061
0.00391818
0.0745772
-0.00636846
0.0755329
0.00899844
-0.00494853
0.0772113
0.00969342
0.0843522
0.0776802
-0.0781125
-0.000163817
0.00207137
0.0816874
0.0738169
-0.072326
-0.00334759
0.0737144
-0.00711969
-0.0786751
-0.00182742
0.00137449
-0.00264203
-0.0774076
0.000856522
-0.0771051
0.0856868
0.00957274
-0.076592
0.0737433
-0.0765777
-0.000780222
-0.00271484
0.0779234
-0.0778798
-8.65144e-05
-7.30408e-05
0.0780246
-0.0780056
-0.000102222
-9.40116e-05
0.0779752
-0.0779372
-0.000115281
-0.000118022
0.0778919
-0.0778472
-0.000133155
-0.000135304
0.0778038
-0.0777644
-0.000164532
-0.000155314
0.07773
-0.0776985
-0.000218861
-0.000192626
0.0776712
-0.0776418
-0.000299837
-0.000256613
0.0776044
-0.0775483
-0.000412201
-0.000348651
0.0774749
-0.0773827
-0.000549058
-0.000470476
0.0774742
-0.0769564
-0.000440897
-0.000416332
0.0774288
-0.0784345
-0.000486634
-0.00122166
0.0778522
-0.0786276
-0.00186665
-0.00240969
-0.0772336
0.0771674
-0.000482372
0.0763628
-0.0763002
-0.000456931
-0.000854342
-0.0774897
0.0779102
-0.000728807
-0.000834544
-0.0776262
0.0774872
-0.000427296
-0.000424012
-0.0775922
0.0776522
-0.00032347
-0.000356503
-0.0777054
0.0777578
-0.000249989
-0.000273709
-0.0778065
0.0778535
-0.000202353
-0.000217977
-0.0778926
0.0779263
-0.000166482
-0.000180617
-0.0779511
0.0779712
-0.000134252
-0.000149028
-0.0779865
0.0780017
-0.000102254
-0.000118895
-0.078014
0.0780738
-0.000119593
-9.0111e-05
-0.0779327
0.0778432
-0.000691825
8.92493e-05
-0.00178071
0.000365708
-0.00192119
0.0777399
0.0791505
0.077783
-0.000734757
0.000746305
-0.0762733
-0.0761404
-0.000894536
-0.00127274
0.00132917
-0.077464
-0.0781943
-0.00170607
0.000184554
-0.0766945
3.16335e-05
-0.0763878
-0.00560655
0.0729525
0.0120741
0.0833062
0.0783315
-0.0775388
-0.000956509
0.0794391
0.000963838
0.000740409
-0.0765392
0.000285694
-0.0768144
0.0010147
-0.000969005
-0.0761861
0.00106448
-0.0763231
0.000795009
-0.0765709
-0.00256121
0.00165649
-0.0765593
-0.00224656
-0.0785089
0.0847109
0.00654923
-0.0763758
0.0760475
-0.0762881
-0.00310697
-0.0737658
0.0735706
-0.00541135
-0.00483796
0.0777673
-0.0782867
-0.000260802
-0.00123565
0.0780626
-0.0780533
-9.5891e-05
-0.00029713
0.0780456
-0.0780302
-0.000117573
-0.000101695
0.0780048
-0.0779762
-0.000143863
-0.00014343
0.0779338
-0.0778888
-0.000178162
-0.000177693
0.077839
-0.0777894
-0.000214172
-0.000205118
0.077744
-0.0777032
-0.000259615
-0.00023804
0.0776698
-0.0776376
-0.00033207
-0.00029002
0.0776043
-0.0775625
-0.00045398
-0.00038197
0.0775134
-0.0774515
-0.000610988
-0.000519517
0.077188
-0.0768353
-0.000793646
-0.000679843
0.0771777
-0.0766356
-0.0010288
-0.000879184
0.0776912
-0.0782647
-0.00129313
-0.00135411
0.0784632
-0.0783912
-0.00231849
-0.00150759
-0.0765933
0.0772471
-0.00111073
0.0762532
-0.0762584
-0.000963882
-0.00123459
-0.0772101
0.0776616
-0.00093384
-0.000817337
-0.0774804
0.0773952
-0.000643589
-0.00065338
-0.077509
0.077575
-0.000493322
-0.000537839
-0.0776313
0.0776848
-0.000376975
-0.000412815
-0.0777329
0.0777815
-0.000298595
-0.000321813
-0.0778251
0.0778661
-0.000243354
-0.000261553
-0.0778993
0.0779274
-0.00019458
-0.000213779
-0.0779488
0.0779668
-0.000152283
-0.000170396
-0.0779815
0.077997
-0.000117755
-0.000133614
-0.0780107
0.0779787
-8.76146e-05
-0.000103822
-0.0780951
0.078033
-0.000629731
-2.70798e-05
-0.00128657
-0.00132456
0.00134273
-0.0762043
-0.0760942
-0.00148877
-0.00261123
0.00170593
-0.0776036
-0.0779581
-0.00304434
0.0848678
0.00304796
0.00742808
-0.00623019
0.0821083
0.0818996
-2.63815e-05
-0.00216412
0.0794018
0.0780956
0.0010929
-0.00104334
0.0776904
0.0780793
0.00169516
-0.00302458
0.0759066
0.0784348
0.0041048
-0.0045929
0.0734406
0.0766131
-0.00448769
0.0734654
0.000216447
-0.0761705
3.58932e-05
-0.076138
0.000535055
-0.0760098
0.000333257
-0.0763527
0.000935137
-0.0759155
0.001139
-0.0760534
0.00168682
-0.00160252
-0.0761785
0.00141215
-0.0759296
0.00155019
-0.0764035
0.00307183
-0.00362551
-0.0774044
0.00208225
-0.076614
0.073245
-0.0740278
-0.0046286
0.0731253
-0.00436791
-0.0761235
0.0752745
-0.0765004
-0.00188105
-0.00359122
0.0776564
-0.077854
-6.31426e-05
-7.97343e-05
0.0780697
-0.0780594
-0.000106208
-8.13957e-05
0.0780512
-0.0780424
-0.000126321
-0.000109946
0.0780223
-0.0780058
-0.000160398
-0.000163563
0.0779743
-0.0779409
-0.000211627
-0.000209118
0.0778979
-0.0778501
-0.000261917
-0.000248124
0.0778001
-0.0777481
-0.00031163
-0.000288077
0.0776994
-0.0776524
-0.000379162
-0.000338644
0.0776121
-0.077575
-0.000491091
-0.00042223
0.0775407
-0.0775004
-0.000651271
-0.000553848
0.0774498
-0.0773843
-0.00085918
-0.000730366
0.0773073
-0.0772138
-0.00112228
-0.000956235
0.0773263
-0.0773005
-0.00131887
-0.0012416
0.0770352
-0.07764
-0.00171375
-0.0017729
0.0780156
-0.0785466
-0.00309454
-0.00266866
-0.0764525
0.0769574
-0.00146882
0.0762117
-0.0762474
-0.00156684
-0.00172957
-0.0770755
0.0771649
-0.00120016
-0.00135263
-0.0773275
0.0773165
-0.000922798
-0.000979919
-0.0774339
0.0775031
-0.000712834
-0.000770807
-0.077562
0.0776171
-0.000548408
-0.000596734
-0.0776665
0.0777171
-0.000427634
-0.000462158
-0.0777633
0.077809
-0.000344358
-0.000367981
-0.0778481
0.0778835
-0.000278815
-0.000300584
-0.0779125
0.0779383
-0.000220432
-0.000242718
-0.0779593
0.0779787
-0.000171661
-0.000191409
-0.0779953
0.0780111
-0.000133489
-0.000150228
-0.0780244
0.0780379
-0.000101152
-0.000117131
-0.078104
0.0775815
-0.000107255
-9.31503e-05
-0.0768096
0.0768348
-0.000981684
-0.000514633
-0.0779762
0.0798503
0.00117392
-0.000177648
0.00533234
0.00267883
2.16115e-05
0.0794078
-0.00649461
0.0835061
0.0780838
-2.70119e-05
2.40383e-05
0.0794048
0.0780902
-9.56088e-06
-0.00170128
0.0794012
0.0780937
0.0013346
-0.00375492
0.078327
0.0780681
0.00312674
-0.00457689
0.0748907
0.0759849
-0.00205792
0.0019322
-0.0760527
-0.0762139
-0.00209136
-0.00314513
0.00295712
-0.0772164
-0.078595
-0.0030967
0.00385281
-0.00297474
0.0722472
0.0727413
0.00025418
-0.0758897
4.08589e-05
-0.0758456
0.000633429
-0.0757081
0.000390284
-0.075604
0.00111407
-0.0756174
0.000848122
-0.0753514
0.00168142
-0.0756788
0.00134123
-0.0756625
0.00247082
-0.00257174
-0.076113
0.00228301
-0.0758649
0.00232809
-0.075985
0.00358088
-0.0778472
-0.00432873
0.00286899
-0.0765045
-0.0763914
0.0763262
-0.00250647
-0.00297982
0.00288897
-0.0760222
-0.0762137
-0.00315755
-0.00428668
0.00386248
-0.077423
-0.0783653
0.0781612
-0.00412463
-0.078
-0.00465202
0.0732398
-0.073271
-0.00294354
-0.00454454
0.00357346
0.0732183
0.0699944
-0.00129914
-0.0758284
0.0736238
-0.0759449
-0.00230749
-0.00401516
0.0769993
-0.0780988
-0.000781613
-0.00253677
0.0780898
-0.0780799
-7.30109e-05
-8.87416e-05
0.0780787
-0.0780672
-0.000117649
-8.26107e-05
0.0780574
-0.0780522
-0.000131513
-0.000119762
0.0780363
-0.0780283
-0.000168408
-0.000179476
0.0780091
-0.07799
-0.00023073
-0.000228375
0.0779613
-0.0779249
-0.000298315
-0.000276739
0.0778804
-0.0778263
-0.000365705
-0.000332639
0.077769
-0.077709
-0.000439157
-0.000395971
0.077656
-0.0776092
-0.000537873
-0.00047524
0.0775716
-0.0775366
-0.000686286
-0.000591467
0.0775024
-0.077462
-0.000899561
-0.000764571
0.0774141
-0.077352
-0.0011844
-0.00100411
0.0772776
-0.0770435
-0.00155302
-0.00131593
0.0770781
-0.0770713
-0.00172056
-0.00173826
0.077233
-0.0782216
-0.0021059
-0.00250704
-0.00315709
-0.076362
0.0769558
-0.0021607
-0.00212717
-0.0769703
0.0771721
-0.00167064
-0.00174399
-0.0772086
0.077294
-0.00128555
-0.00138912
-0.0773851
0.0774538
-0.000991557
-0.00107103
-0.0775125
0.0775666
-0.000767
-0.000829422
-0.0776149
0.0776652
-0.000598696
-0.000645006
-0.0777132
0.0777636
-0.000478066
-0.000510187
-0.0778086
0.0778515
-0.000387194
-0.000412959
-0.0778862
0.0779177
-0.000310274
-0.000335339
-0.077943
0.0779662
-0.000243678
-0.00026802
-0.0779852
0.0780032
-0.000189648
-0.000210438
-0.078018
0.0780315
-0.000147003
-0.000165002
-0.078044
0.0780558
-0.000112959
-0.000129622
-0.078064
0.0780416
-8.48284e-05
-0.000101357
-0.0776039
0.0773093
-0.000687153
-7.69121e-05
-0.0771973
0.0784649
-9.37031e-05
-6.56048e-05
0.000720187
0.00441382
1.72523e-05
0.079075
0.0807988
-1.71637e-05
2.41078e-05
0.0794009
0.0780839
-2.88942e-05
2.12345e-05
0.0794124
0.0780854
-7.7612e-06
-2.51162e-06
0.0794115
0.0781072
5.45658e-06
0.00040322
0.0779183
0.0780711
0.0003997
-0.00217448
0.0766655
0.0767879
0.0741403
0.000301978
-0.0755582
4.53324e-05
-0.0755006
0.000756053
-0.0753501
0.000461893
-0.0752177
0.00133961
-0.0752756
0.00101492
-0.0750251
0.00201605
-0.0754119
0.00169301
-0.0750274
0.00270866
-0.0756846
0.00244161
-0.0755576
0.00383464
-0.00332491
-0.0767234
0.00337354
-0.0755611
0.00344928
-0.0760913
0.00482069
-0.078214
-0.00460663
0.0041342
-0.0767365
-0.0768709
0.0768822
-0.00333617
-0.0041672
0.00390318
-0.0764594
-0.0768858
-0.00415229
-0.00492669
0.0045419
-0.0778293
-0.0786415
0.0790587
-0.00502378
-0.0785008
-0.0050674
-0.00622197
0.00427006
0.0751702
-0.0076381
0.0714106
0.0735423
-0.0745305
-0.00195532
0.0740733
-0.00183015
-0.0754811
0.075308
-0.0765683
-0.0010472
-0.00323766
0.0776122
-0.078102
-0.0002918
-0.00149287
0.0781064
-0.0780881
-9.13199e-05
-8.43304e-05
0.0780894
-0.0780802
-0.000126888
-8.12994e-05
0.07807
-0.0780649
-0.000136632
-0.000129908
0.0780539
-0.0780458
-0.000176499
-0.000190513
0.0780353
-0.078022
-0.000244002
-0.000238856
0.0780059
-0.0779822
-0.000322036
-0.00029286
0.0779526
-0.0779127
-0.000405609
-0.000362208
0.0778665
-0.0778121
-0.000493505
-0.000442196
0.0777572
-0.0777012
-0.000593887
-0.000530186
0.0776511
-0.0776048
-0.000732641
-0.000641536
0.0775653
-0.0775278
-0.00093709
-0.000804011
0.0774924
-0.0774543
-0.00122247
-0.0010395
0.0774155
-0.0773753
-0.0015932
-0.00135474
0.0773537
-0.0769992
-0.00207502
-0.00175992
0.0772998
-0.0768684
-0.00253736
-0.00220642
0.0772397
-0.078285
-0.00307929
-0.00278578
-0.00387834
-0.0769347
0.076946
-0.00251779
-0.00321005
-0.0770253
0.0770987
-0.0022341
-0.00220642
-0.0772329
0.0773054
-0.00174316
-0.00187821
-0.0773712
0.0774351
-0.00134945
-0.00145495
-0.077492
0.0775468
-0.00104636
-0.00112791
-0.0775964
0.0776474
-0.000817933
-0.000879073
-0.0776945
0.0777432
-0.000647385
-0.000692124
-0.0777873
0.077831
-0.00052168
-0.000554345
-0.0778681
0.0779027
-0.00042172
-0.000450134
-0.0779304
0.0779556
-0.000335463
-0.000363107
-0.0779758
0.0779947
-0.000262599
-0.00028815
-0.0780104
0.0780255
-0.000204767
-0.000226126
-0.0780383
0.0780504
-0.000159095
-0.000177833
-0.078061
0.0780712
-0.000123117
-0.000140263
-0.0780786
0.0780872
-9.3366e-05
-0.000108774
-0.0780938
0.0777284
-0.000321791
-8.3517e-05
-0.0781427
0.0779021
0.000146862
-0.000479857
-0.00023527
0.00567043
-0.00220598
0.0804944
0.0828238
0.000275265
1.18907e-05
0.0787878
0.0788681
-1.40581e-05
2.10125e-05
0.0793939
0.0780817
-2.59267e-05
1.83757e-05
0.07942
0.0780805
-8.22431e-06
1.86379e-06
0.0794178
0.0781174
-3.59184e-07
-0.000651866
0.0785705
0.0780726
0.00199272
-0.00295312
0.0776259
0.0781287
0.0754572
0.000362213
-0.0751644
5.06386e-05
-0.0750894
0.000916236
-0.0749267
0.000552167
-0.074755
0.00162965
-0.0748892
0.00122332
-0.0745554
0.00243715
-0.0751403
0.00204903
-0.0746348
0.00321689
-0.075528
0.00292953
-0.0750379
0.00393345
-0.0755913
0.0037742
-0.0757313
0.00465295
-0.00466257
-0.0768762
0.00426162
-0.0760681
0.00445806
-0.0766527
0.00531164
-0.00535015
-0.0784623
0.00501067
-0.0775283
0.0100209
0.0564143
-0.0750683
0.0731526
-0.0747064
-0.000401512
-0.0682423
0.0497364
0.0285268
0.00308011
0.0768379
-0.0770551
-0.000829953
-0.00110615
0.0779674
-0.0782354
-2.38549e-05
-0.000580557
0.078121
-0.0781016
-0.000110729
-0.000198751
0.0781004
-0.0780967
-0.000130516
-8.2504e-05
0.078084
-0.0780797
-0.000140913
-0.000142635
0.0780717
-0.0780613
-0.000186859
-0.000198533
0.0780564
-0.0780449
-0.000255498
-0.000243758
0.0780375
-0.078024
-0.000335537
-0.000300306
0.0780094
-0.0779873
-0.000427767
-0.000376785
0.0779595
-0.0779217
-0.00053126
-0.000469967
0.0778774
-0.0778242
-0.000647109
-0.000574527
0.0777689
-0.0777111
-0.000790404
-0.000696837
0.0776591
-0.077613
-0.000983228
-0.000855985
0.0775786
-0.0775537
-0.00124743
-0.00107387
0.077538
-0.0775273
-0.00160391
-0.00137046
0.0775187
-0.0775152
-0.00207847
-0.00176851
0.0775519
-0.0774376
-0.00265168
-0.00216972
0.07705
-0.0773025
-0.00282685
-0.00317336
0.0777985
-0.0789321
-0.00389018
-0.00338227
0.0792234
-0.0794808
-0.00509279
-0.00477612
-0.0771531
0.0771055
-0.00328856
0.0765715
-0.0779397
-0.0032944
-0.00473395
-0.0768422
0.0772313
-0.00290681
-0.00294674
-0.0773403
0.0773978
-0.00229158
-0.00231552
-0.0774375
0.0774809
-0.00178655
-0.00191787
-0.0775229
0.0775673
-0.0013938
-0.00149702
-0.0776094
0.0776541
-0.00109097
-0.00117006
-0.0776964
0.0777421
-0.000863561
-0.000921451
-0.0777856
0.0778304
-0.00069215
-0.000735681
-0.0778691
0.0779044
-0.000556999
-0.000593034
-0.0779319
0.0779556
-0.000445509
-0.000477598
-0.0779743
0.0779915
-0.000352716
-0.000381742
-0.0780063
0.078021
-0.000277274
-0.000302942
-0.0780341
0.078047
-0.000217652
-0.000239228
-0.0780581
0.0780688
-0.00016976
-0.000188955
-0.0780777
0.0780866
-0.000131981
-0.000149199
-0.0780929
0.0781002
-0.000100664
-0.00011505
-0.0781068
0.0778072
-2.21861e-05
-9.01542e-05
-0.0776816
0.0782725
-0.000443995
-0.000354302
-0.0780096
0.0793964
0.00120814
2.75856e-05
0.0037995
0.00200627
-0.000139168
0.0786273
-0.00399541
0.0816591
0.0808347
-0.000629942
7.37447e-06
0.0794104
0.078099
-7.97063e-06
1.25594e-05
0.0793893
0.0780811
-1.67476e-05
1.53274e-05
0.0794214
0.0780763
-1.29155e-05
1.38511e-05
0.0794169
0.0781198
-1.36521e-05
-0.000794612
0.0793788
0.0780728
0.00075486
-0.00123452
0.0781056
0.078089
0.00426112
-0.00654049
0.0774496
0.0784838
0.015684
0.0904667
0.080554
-0.00472287
0.00510958
-0.0772629
-0.0777782
-0.00488438
-0.00475486
0.00534916
-0.0790566
-0.0797791
-0.00445656
0.000443279
-0.0746914
5.49535e-05
-0.0745922
-0.0823842
0.00425012
0.00112735
-0.0744244
0.000664965
-0.0741966
0.0879724
-0.0704489
0.0110033
0.000349356
0.00730487
0.0828125
0.00470602
0.0836158
0.00200629
-0.0744583
0.00149388
-0.0740002
0.00296268
-0.0748861
0.00250328
-0.0742086
0.00381737
-0.0754119
0.00353137
-0.074795
0.00458058
-0.0759103
0.00439703
-0.0756703
0.00533844
-0.076297
0.00494342
-0.0765854
0.00572148
-0.00561877
-0.0778809
0.00590217
-0.0774436
0.00563536
-0.0778145
-0.00512687
0.00554166
-0.0794714
-0.00469954
-0.0802064
-0.07457
0.074461
-0.0760578
0.00119526
0.0070922
0.0767166
-0.0775238
-2.27664e-05
-0.000447343
0.0780334
-0.0779944
-6.28497e-05
-7.08963e-05
0.0781291
-0.078122
-0.000117805
-6.41384e-05
0.0781123
-0.0781146
-0.000128183
-9.22013e-05
0.0781027
-0.0780972
-0.000146452
-0.000154539
0.0780923
-0.0780805
-0.00019864
-0.000203389
0.0780773
-0.0780666
-0.000266223
-0.000246988
0.0780617
-0.0780532
-0.00034405
-0.000305206
0.0780462
-0.078036
-0.000437957
-0.00038373
0.078023
-0.078003
-0.000551294
-0.000482986
0.0779758
-0.0779383
-0.000684619
-0.000601722
0.0778943
-0.0778436
-0.000841088
-0.000740807
0.0777943
-0.077748
-0.00102956
-0.000905297
0.0777123
-0.0776873
-0.00127241
-0.00110953
0.0776755
-0.0776758
-0.00160357
-0.00138232
0.0776895
-0.0777198
-0.00204821
-0.00175483
0.077648
-0.0776862
-0.00261342
-0.00224152
0.0780215
-0.0775711
-0.00327723
-0.00283809
0.0775729
-0.0776621
-0.00380101
-0.00338048
0.0784316
-0.0795727
-0.00395168
-0.00400662
0.0798522
-0.0805244
-0.00402739
-0.00417699
-0.0773898
0.0783314
-0.00423603
0.0781066
-0.0789248
-0.00480056
-0.00416757
-0.077384
0.0774497
-0.00335427
-0.00378654
-0.0775442
0.077529
-0.00289157
-0.00304129
-0.0776293
0.0776275
-0.00228974
-0.00241582
-0.0776392
0.0776583
-0.00180566
-0.00192964
-0.0776809
0.0777102
-0.00142311
-0.00151957
-0.077743
0.0777811
-0.00112907
-0.00120292
-0.0778173
0.0778534
-0.000899658
-0.000957633
-0.0778847
0.0779144
-0.000721917
-0.000766935
-0.0779394
0.0779623
-0.000579974
-0.000617954
-0.0779811
0.0779982
-0.000462652
-0.000496359
-0.0780124
0.078026
-0.000366262
-0.000395924
-0.0780377
0.0780494
-0.000288897
-0.00031471
-0.07806
0.07807
-0.000227579
-0.000249915
-0.0780792
0.0780879
-0.00017849
-0.000198157
-0.0780948
0.0781022
-0.000139379
-0.000156068
-0.0781074
0.0781136
-0.000106892
-0.000120249
-0.0781164
0.0781701
-7.59701e-05
-9.29217e-05
-0.0778874
0.0774923
-4.88791e-05
-7.15786e-05
-0.0774884
0.0788851
-0.000188594
3.14744e-05
0.000300435
0.00300666
-0.00151484
0.0801673
0.0828573
-0.000796635
6.58761e-06
0.0794174
0.0785232
-7.22599e-06
2.5233e-06
0.0794151
0.0780984
-2.00314e-07
-6.45467e-07
0.0793902
0.0780834
-2.9273e-06
1.3296e-05
0.079411
0.0780727
-2.43259e-05
3.26842e-05
0.0794086
0.0781088
-2.89852e-05
2.1592e-05
0.0793862
0.0780765
-1.40913e-05
-0.000455482
0.0785752
0.0780965
0.000941339
-0.00292965
0.0794379
0.0789696
0.0849293
-0.00537686
0.00592868
-0.0784327
-0.0793472
-0.00495448
-0.00462712
0.00496261
-0.0805419
-0.0812894
-0.00386215
0.000551767
-0.0741158
5.79198e-05
-0.0739851
0.0840014
-0.0785353
0.00553722
0.0827341
0.00597332
0.00140951
-0.0738276
0.000809298
-0.073512
0.00249347
-0.0739891
0.00184005
-0.073337
0.00361109
-0.0746799
0.00307998
-0.0737572
0.00451745
-0.0753488
0.00426556
-0.0746636
0.00532842
-0.0759003
0.00516869
-0.0758956
0.00617434
-0.0765691
0.0062863
-0.0772363
0.00654174
-0.0780567
0.00604305
-0.0783159
0.00607169
-0.00590609
-0.0795128
0.00705273
-0.0794137
0.00546146
-0.0799703
-0.0799204
0.0788761
-0.00486181
0.00502432
-0.07958
-0.00536477
0.00650253
-0.080991
-0.00403632
0.0812249
-0.00381873
0.00494721
-0.0816704
-0.00409638
-0.0810117
-0.0739604
0.0766317
-0.0773359
0.00189951
0.00518855
0.0781435
-0.0781424
-2.38652e-05
0.000360202
0.0781496
-0.0781387
-7.37182e-05
-6.36353e-05
0.078137
-0.078142
-0.000112787
-6.59119e-05
0.0781276
-0.0781306
-0.000125215
-0.000106554
0.0781249
-0.0781151
-0.000156294
-0.000160209
0.0781151
-0.0781028
-0.000210911
-0.000203408
0.0781002
-0.0780905
-0.000275972
-0.000249541
0.0780853
-0.078078
-0.000351391
-0.000310404
0.0780724
-0.0780664
-0.000443939
-0.000389335
0.0780603
-0.0780522
-0.000559341
-0.000489096
0.0780412
-0.0780251
-0.000700762
-0.000612719
0.0780041
-0.077977
-0.000868236
-0.000761735
0.0779468
-0.0779138
-0.00106256
-0.000935519
0.0778838
-0.077859
-0.00129724
-0.00113947
0.0778455
-0.0778472
-0.00160189
-0.00139578
0.0778684
-0.077914
-0.00200261
-0.00173367
0.0779821
-0.0780811
-0.00251441
-0.00217342
0.0781996
-0.0783504
-0.00312642
-0.00271958
0.0783891
-0.0784012
-0.00378893
-0.00334181
0.0784299
-0.0783362
-0.00404536
-0.00397786
0.0785311
-0.0794678
-0.00309068
-0.00398214
0.0804158
-0.0810113
-0.00350086
-0.00291413
-0.0785802
0.0782556
-0.00447598
-0.0046585
-0.0785641
0.0783105
-0.00398241
-0.00447613
-0.0780569
0.078035
-0.00333233
-0.00353294
-0.078016
0.0779176
-0.00279319
-0.00302226
-0.0778836
0.0778525
-0.00225863
-0.00238189
-0.0778408
0.0778424
-0.00180725
-0.00191794
-0.0778527
0.0778695
-0.00143983
-0.00152987
-0.0778884
0.0779101
-0.00115074
-0.00122186
-0.0779308
0.0779517
-0.000920562
-0.00097832
-0.0779697
0.0779867
-0.000738901
-0.000784948
-0.0780009
0.0780143
-0.00059336
-0.000632171
-0.0780258
0.078037
-0.000473845
-0.000507875
-0.0780471
0.0780573
-0.000376509
-0.000406017
-0.0780666
0.0780761
-0.000298361
-0.000323988
-0.0780847
0.0780926
-0.00023556
-0.000258515
-0.0781002
0.0781069
-0.000185211
-0.000205703
-0.0781123
0.0781185
-0.000145552
-0.000161477
-0.0781216
0.0781275
-0.0001128
-0.000123398
-0.0781285
0.0781319
-7.93253e-05
-9.38933e-05
-0.0781363
0.0781347
-4.73511e-05
-7.59796e-05
-0.0782634
0.0786829
-0.000608039
-9.72262e-05
-0.0783945
0.0817402
0.000904436
0.000588776
0.00365313
0.00161154
-0.000414209
0.07897
0.0804325
-5.70344e-07
-3.10168e-06
0.0794211
0.0781084
3.38487e-06
-3.12156e-06
0.0794148
0.0780986
6.60655e-06
-1.34094e-05
0.079397
0.0780869
8.91189e-06
1.57062e-05
0.0793864
0.0780682
-4.25503e-05
5.47678e-05
0.0793963
0.0780819
-4.2151e-05
2.14008e-05
0.0794069
0.0780891
-1.17475e-05
-0.000848288
0.0794352
0.0781061
-6.63502e-06
-0.000708457
0.080153
0.0781147
-0.00462557
0.00334999
0.0840881
0.0795952
0.00104402
-0.0120524
0.0937424
0.0880098
0.000701271
-0.0734076
5.69021e-05
-0.0732327
0.00395137
-0.00388242
-0.0810803
0.0039295
-0.0809898
0.083378
-0.0895084
-0.00592191
-0.0179794
0.0577795
0.0539423
0.0736551
-0.00825659
-0.0795395
0.0783852
-0.00234653
-0.079283
-0.00413894
0.00178538
-0.0731196
0.000991615
-0.0726636
0.00311957
-0.0734976
0.00228407
-0.0725411
0.00439926
-0.0745617
0.0038111
-0.0733027
0.00532698
-0.0753473
0.00515439
-0.0746493
0.00621074
-0.0759367
0.0060686
-0.0756779
0.00715875
-0.0771861
0.00680081
-0.0779941
0.00745412
-0.0784581
0.00661822
-0.0794726
-0.00581797
-0.0806318
0.00686982
-0.0812896
0.0802003
-0.00472864
0.00559688
-0.0822379
-0.00464858
-0.0822053
0.00717041
0.00755854
-0.0804697
0.00577961
-0.0808027
-0.0819826
0.00786148
0.0106042
-0.0227907
0.069966
-0.0824741
0.00296105
-0.0106473
0.0751938
-0.0732022
0.083545
-0.081199
0.00319125
9.8913e-06
0.0792709
-0.0780693
0.000697975
0.0032604
0.0781608
-0.078154
-3.06821e-05
0.000451677
0.0781621
-0.0781567
-7.91288e-05
-5.54847e-05
0.0781513
-0.0781565
-0.000107591
-7.1388e-05
0.0781489
-0.0781461
-0.000128055
-0.000114061
0.0781467
-0.0781369
-0.000166119
-0.000159622
0.0781379
-0.0781292
-0.000219603
-0.000202411
0.0781266
-0.07812
-0.000282563
-0.000252149
0.0781152
-0.0781097
-0.000356909
-0.000315154
0.0781049
-0.0781006
-0.00044821
-0.000394133
0.0780972
-0.0780945
-0.000562053
-0.000492554
0.0780923
-0.0780901
-0.000702964
-0.000614914
0.0780872
-0.0780825
-0.000872972
-0.000764609
0.0780752
-0.0780646
-0.0010732
-0.000942762
0.0780523
-0.0780405
-0.00130898
-0.00115179
0.0780354
-0.0780435
-0.00159385
-0.00140088
0.0780711
-0.0781267
-0.00194702
-0.00170603
0.0782111
-0.0783318
-0.00239372
-0.00208904
0.0784786
-0.0786592
-0.00294581
-0.00257274
0.0788596
-0.0791041
-0.00354443
-0.00314143
0.079383
-0.0793501
-0.00407825
-0.00369893
0.0791645
-0.0786695
-0.00358569
-0.00416775
-0.00319845
-0.0799214
0.0796078
-0.00454828
-0.00508582
-0.0796723
0.0794754
-0.00427904
-0.00472301
-0.0790789
0.0789322
-0.00383573
-0.00407962
-0.0785802
0.0784396
-0.00319174
-0.00318091
-0.0783171
0.0782117
-0.00268781
-0.00289977
-0.0781389
0.0780835
-0.0022032
-0.0023091
-0.0780496
0.0780299
-0.00178757
-0.00188404
-0.0780215
0.0780181
-0.00143643
-0.00152144
-0.0780174
0.0780191
-0.00115241
-0.0012212
-0.0780235
0.0780309
-0.00092798
-0.000982739
-0.0780394
0.0780484
-0.000747907
-0.00079339