/*--------------------------------*- C++ -*----------------------------------*\
  =========                 |
  \\      /  F ield         | OpenFOAM: The Open Source CFD Toolbox
   \\    /   O peration     | Website:  https://openfoam.org
    \\  /    A nd           | Version:  10
     \\/     M anipulation  |
\*---------------------------------------------------------------------------*/
FoamFile
{
    format      ascii;
    class       volScalarField;
    location    "27.5";
    object      p;
}
// * * * * * * * * * * * * * * * * * * * * * * * * * * * * * * * * * * * * * //

dimensions      [0 2 -2 0 0 0 0];

internalField   nonuniform List<scalar> 
8711
(
0.0176707
0.0158968
0.0197147
0.0122962
0.0111576
0.00224317
0.102434
0.101927
0.708418
0.707239
0.497232
0.263836
-0.131454
-0.154874
-0.0482372
-0.0647127
0.0388954
0.0371915
0.0351014
0.0376461
0.037333
0.029787
0.0312287
0.0192649
-0.251154
-0.197074
-0.317474
-0.369809
0.0090306
0.0102749
0.0124008
-0.459519
-0.501455
-0.297021
-0.32789
0.227134
0.218395
0.212784
0.219026
0.211419
0.256423
0.229948
-0.411043
-0.434007
0.313886
0.2024
-0.409031
-0.417549
-0.421882
0.0433687
0.0448247
0.0438254
0.0429543
0.0552802
0.0606148
0.0658162
-0.220862
-0.234171
-0.184694
-0.20747
-0.0317818
-0.0315299
-0.0470458
-0.0450628
0.11618
0.112185
0.1043
0.0248125
0.0254961
0.0298814
-0.101432
-0.0887051
-0.116862
-0.129984
0.104316
0.105009
0.0971575
0.0963768
0.0264825
0.00115618
0.00255543
-0.00880103
-0.000606419
0.0235564
0.0226235
0.0222378
-0.126897
-0.156162
-0.0132809
-0.0323272
0.0712964
0.0671317
0.0730195
0.0302793
0.0429787
0.0990349
0.114481
0.11671
0.10323
0.077909
0.0810808
0.357803
0.348019
-0.124137
-0.101118
-0.0841082
-0.0723379
-0.0648137
-0.0619751
-0.0630027
-0.0676192
-0.0761725
-0.0885723
-0.104765
-0.122346
-0.138801
-0.149138
-0.150638
-0.13209
-0.144054
-0.127254
-0.12149
-0.130414
-0.0925502
-0.10773
-0.0687788
-0.0788475
-0.059128
-0.0621628
-0.0640438
-0.0595657
-0.086502
-0.0728116
-0.13299
-0.106521
-0.160042
-0.0924349
-0.110516
-0.0681277
-0.0782487
-0.0611809
-0.06239
-0.070143
-0.0637676
-0.0953196
-0.0804361
-0.133995
-0.113897
-0.164786
-0.152767
-0.159815
-0.167254
-0.145233
-0.178577
-0.114285
-0.0999259
-0.126148
-0.21316
-0.151135
-0.11143
-0.107865
-0.101672
-0.109824
-0.0778902
-0.0910636
-0.0591349
-0.0671238
-0.0527311
-0.054365
-0.0600893
-0.0547008
-0.0854989
-0.0703706
-0.135379
-0.107683
-0.197059
-0.166384
-0.0982506
-0.107808
-0.108584
-0.12186
-0.0794819
-0.0938541
-0.0598751
-0.0680717
-0.0571196
-0.0566242
-0.069337
-0.0611888
-0.0985772
-0.0816142
-0.143592
-0.120299
-0.176759
-0.163336
-0.171002
-0.178957
-0.133652
-0.154178
-0.0758925
-0.0857622
-0.182699
-0.113446
-0.234387
-0.205088
-0.234527
-0.228632
-0.0607734
-0.0587837
-0.062868
-0.149526
-0.121146
-0.0813758
-0.0729435
-0.0899751
-0.0878005
-0.0814929
-0.0883144
-0.0624944
-0.0727667
-0.0475373
-0.0542462
-0.044318
-0.0447706
-0.0535816
-0.0473164
-0.079747
-0.0643846
-0.130744
-0.102574
-0.198783
-0.165324
-0.224258
-0.135364
-0.113869
-0.0965085
-0.105845
-0.0781222
-0.0913035
-0.0833689
-0.093526
-0.0624815
-0.0736851
-0.04853
-0.053877
-0.0497948
-0.0476511
-0.0652974
-0.0560285
-0.0979338
-0.0791969
-0.147316
-0.121977
-0.183367
-0.168714
-0.176824
-0.185761
-0.15798
-0.0843076
-0.0738897
-0.0956553
-0.091738
-0.177029
-0.212979
-0.211066
-0.180587
-0.194924
-0.0507646
-0.0951994
-0.133582
-0.190049
-0.0516496
-0.0607566
-0.0372963
-0.0854887
-0.183692
-0.16462
-0.155492
-0.125424
-0.120437
-0.0858277
-0.0626839
-0.057251
-0.0697141
-0.0674877
-0.0621141
-0.0675948
-0.0465748
-0.0545379
-0.0355088
-0.0400306
-0.0345826
-0.0339391
-0.0448009
-0.0383997
-0.070368
-0.055386
-0.119714
-0.0919682
-0.187077
-0.154091
-0.228033
-0.214403
-0.2077
-0.226591
-0.161559
-0.065553
-0.0620116
-0.0585286
-0.0637762
-0.0427434
-0.050708
-0.0347379
-0.0377498
-0.0401099
-0.0359472
-0.0580645
-0.0477944
-0.0931112
-0.073169
-0.144044
-0.118005
-0.181673
-0.166431
-0.175278
-0.18425
-0.131693
-0.155223
-0.0899925
-0.109234
-0.0566023
-0.0446286
-0.0736261
-0.0659126
-0.0811803
-0.0790203
-0.0745586
-0.0798139
-0.162907
-0.044632
-0.0235781
-0.0805285
-0.0659773
-0.112594
-0.166424
-0.105594
-0.0715331
-0.0673666
-0.149412
-0.125877
-0.093861
-0.0365679
-0.0327053
-0.0453073
-0.041331
-0.0493873
-0.0482517
-0.0431316
-0.0475854
-0.030993
-0.0370771
-0.0234493
-0.0262791
-0.02428
-0.0229094
-0.0343515
-0.028084
-0.0581618
-0.0442825
-0.103134
-0.0778386
-0.167319
-0.134314
-0.213091
-0.196925
-0.188265
-0.210717
-0.148692
-0.00489127
-0.0102092
-0.000230389
0.00129958
-0.0248548
-0.01505
-0.0375105
-0.0328891
-0.0332636
-0.0368593
-0.0231514
-0.0280622
-0.0199529
-0.0202877
-0.0284329
-0.0228809
-0.048192
-0.0369332
-0.0843686
-0.0640591
-0.135226
-0.109207
-0.173131
-0.157783
-0.166886
-0.175941
-0.122489
-0.146656
-0.099443
-0.0329933
-0.0535215
-0.0441633
-0.0666254
-0.0610761
-0.0703441
-0.0699444
-0.0621842
-0.067733
-0.0540125
-0.140519
-0.0212206
-0.0230751
-0.00715551
-0.0182584
-0.0907466
-0.135707
-0.0524009
-0.119652
-0.0350894
-0.0260059
-0.0962083
-0.0135743
-0.065675
-0.0123187
-0.0433934
-0.0221755
-0.0191862
-0.0284319
-0.0254468
-0.0311022
-0.0307421
-0.0256392
-0.0293304
-0.0164841
-0.0209846
-0.0117597
-0.0133203
-0.0137346
-0.0120099
-0.0231456
-0.0174042
-0.044241
-0.0320037
-0.0831634
-0.0613533
-0.140007
-0.110126
-0.185698
-0.168614
-0.161242
-0.185951
-0.0839792
-0.123851
-0.0253462
-0.0510953
0.00869161
0.00288526
0.0111238
0.0127046
-0.000599939
0.00581647
-0.00969252
-0.00635867
-0.00961529
-0.0121432
-0.0039242
-0.00647548
-0.00477526
-0.00322604
-0.0155389
-0.00901924
-0.0363973
-0.0246894
-0.0718922
-0.0521962
-0.120737
-0.0957021
-0.157359
-0.142599
-0.150374
-0.159338
-0.108775
-0.132457
-0.0678684
-0.0867239
-0.0535399
-0.0277679
-0.00230866
-0.0345958
-0.014347
-0.0240832
-0.0519561
-0.0440873
-0.062517
-0.0582649
-0.0630118
-0.0641927
-0.0528079
-0.0591274
-0.0446744
-0.114656
-0.0727009
-0.107503
-0.0279647
-0.0294004
-0.0183441
-0.0425274
-0.0930374
-0.0250505
-0.0717383
-0.0155856
-0.0464013
-0.0017278
0.0141302
-0.00973032
-0.00562231
-0.0179343
0.0885499
-0.00632135
-0.00516135
-0.00802127
-0.00659765
-0.0125616
-0.0103717
-0.0144092
-0.0147626
-0.00997407
-0.0128709
-0.00340633
-0.00651102
-0.000872167
-0.00150066
-0.00339718
-0.00158884
-0.0117341
-0.0067194
-0.0295181
-0.0192797
-0.0614948
-0.0436293
-0.108622
-0.0837126
-0.149955
-0.132733
-0.131293
-0.149555
-0.0591462
-0.0961991
-0.000319406
-0.0266149
0.0405516
0.0243998
0.0245273
0.05801
0.0517976
0.0189084
0.00995445
0.0144369
0.0251719
0.0236947
0.0196506
0.0235437
0.0123714
0.014909
0.0117893
0.0110866
0.01392
0.0130957
0.0101545
0.0130116
-0.0020628
0.00500963
-0.0228663
-0.0113757
-0.0561299
-0.0378108
-0.101437
-0.0781812
-0.135966
-0.121977
-0.130077
-0.138253
-0.0924406
-0.113039
-0.0538892
-0.0719765
-0.0391927
-0.0364345
-0.0271677
-0.05245
-0.0454634
-0.0608098
-0.0577464
-0.0587892
-0.0611713
-0.0464733
-0.0537312
-0.0376826
-0.0917385
0.00223778
-0.0165615
-0.00786096
-0.0588521
-0.0854306
-0.0380774
-0.07383
-0.0261515
-0.0558273
-0.0186082
0.00243828
-0.0112331
-0.0293417
0.00119412
0.0342952
0.0656036
0.0934489
0.106865
0.0945245
0.00428444
0.0035638
0.00409304
0.00473102
0.000917857
0.0025707
-7.00884e-05
-8.99267e-05
0.00361524
0.00138141
0.00800571
0.00607478
0.00897369
0.00896519
0.00635612
0.00806023
-0.000681412
0.00349589
-0.0149485
-0.00680076
-0.0398778
-0.0259857
-0.0767756
-0.0572076
-0.110744
-0.0961233
-0.0985502
-0.112001
-0.0347463
-0.069456
0.0246372
-0.00330215
0.0656224
0.0484924
0.0794519
0.0206996
-0.00858537
0.00435778
0.0137776
0.0296453
0.0256392
0.0369265
0.0336064
0.036118
0.0372688
0.0312271
0.0330286
0.0298405
0.0300886
0.0296034
0.0299473
0.024082
0.0276889
0.0113834
0.0185184
-0.00828881
0.00244258
-0.0383365
-0.0218741
-0.0789363
-0.0580543
-0.110613
-0.0976725
-0.105773
-0.112907
-0.0727854
-0.0906821
-0.0393144
-0.054281
-0.0264979
-0.0237791
-0.00464748
-0.0141752
-0.0410579
-0.0325961
-0.0552201
-0.0489378
-0.0614448
-0.0595734
-0.0571754
-0.0606451
-0.0428195
-0.0510608
-0.0224208
-0.0329965
-0.0021504
-0.0121071
-0.0737598
-0.0506839
-0.0700708
-0.0370086
-0.0607849
0.00102879
0.00740076
0.0104623
-0.0322084
-0.0263489
-0.0232725
-0.00736743
-0.0227566
-0.0438755
-0.0183336
0.011807
0.0426128
0.0717394
0.00394608
0.113277
0.10043
0.118706
-0.0107224
-0.00131029
0.0102413
0.0070499
0.0138222
0.0121244
0.0147539
0.0146474
0.0125968
0.0135571
0.0123338
0.0121411
0.0151112
0.0135146
0.0177242
0.0166993
0.0176751
0.0180211
0.0152351
0.0167379
0.0094877
0.0128568
-0.00146113
0.004718
-0.0196954
-0.00961614
-0.0462048
-0.0321341
-0.0717349
-0.0604442
-0.0643457
-0.0736986
-0.0128856
-0.0413792
0.0453845
0.0171917
0.0852784
0.0685534
0.108469
0.098657
0.121903
0.116557
0.0153344
-0.0219528
-0.00577245
0.00575777
0.0297533
0.0232861
0.0387007
0.0347388
0.0457239
0.042285
0.0479804
0.0473101
0.0462566
0.0472834
0.0444813
0.0452348
0.0426558
0.0437642
0.0363818
0.0402212
0.0241603
0.0308988
0.00640014
0.0159959
-0.0197006
-0.00547158
-0.0548564
-0.0366732
-0.0833137
-0.0715248
-0.0796943
-0.0855015
-0.0524266
-0.0668512
-0.0240871
-0.0364843
-0.00442834
-0.0131863
0.00244648
-0.030612
-0.0206967
-0.0478623
-0.0394385
-0.0606076
-0.0551237
-0.0645231
-0.0639266
-0.0578708
-0.0624849
-0.0416088
-0.0507403
-0.0197128
-0.0309302
-0.00903474
-0.0620261
0.123363
0.118275
0.120428
-0.0473006
-0.0605682
0.00262321
0.0124215
-0.0419111
-0.0400972
-0.03875
-0.0400396
-0.0411945
-0.0194969
-0.0399505
-0.0356052
-0.0112529
0.0179558
0.0486688
0.0772174
0.105037
-0.0167648
-0.00650078
0.0110755
0.0192017
0.0164068
0.00661375
-0.0522178
0.0179357
0.014506
0.0220724
0.0202167
0.0232194
0.0229208
0.0224353
0.0229777
0.022633
0.0223153
0.0245793
0.0235533
0.0258262
0.0254446
0.0252396
0.0257231
0.0231517
0.0243971
0.0186908
0.0212704
0.0107199
0.0151657
-0.00184991
0.0050216
-0.0192299
-0.0100924
-0.0355632
-0.0283517
-0.030076
-0.0367389
0.00858674
-0.0137543
0.059469
0.0342642
0.097373
0.0810455
0.117498
0.109366
0.124965
0.122276
0.116756
0.121957
0.124527
0.00709572
-0.0354487
-0.0147662
-0.00315328
0.0242945
0.016239
0.0369905
0.0312858
0.0458357
0.0417813
0.0523453
0.0491871
0.0565857
0.0547715
0.0574669
0.0574307
0.0560691
0.056921
0.0532824
0.0548733
0.0469247
0.0506368
0.035892
0.0418972
0.0205806
0.0287824
-0.00112269
0.0106578
-0.0308218
-0.0152998
-0.0561245
-0.0454772
-0.0535682
-0.058136
-0.0307629
-0.0431007
-0.00939297
-0.0195544
0.00649938
-0.000500506
0.0122187
-0.0382301
-0.0277595
-0.0566404
-0.0476639
-0.068823
-0.0639239
-0.0703682
-0.0711011
-0.0609914
-0.0669313
-0.0429367
-0.0528375
-0.0197237
-0.031547
-0.00819413
-0.0556854
0.0212441
-0.0494468
-0.0502239
-0.0532721
-0.0578748
-0.06261
-0.0645593
-0.0328905
-0.00878646
0.0209121
0.0519633
-0.0611785
-0.026589
-0.0526199
0.0840747
0.108312
0.116152
0.00352501
-0.0558702
0.114063
-0.0486507
0.0322715
0.0180436
0.0140593
0.0246802
0.0220179
0.029038
0.0273599
0.030399
0.0300606
0.0304526
0.030561
0.0309647
0.0305869
0.0321537
0.0316005
0.0324615
0.0324771
0.0316869
0.0321698
0.0300017
0.0309877
0.0266903
0.0285743
0.021187
0.0242139
0.0131326
0.0174554
0.00306612
0.00821783
-0.0048558
-0.00164326
0.00111042
-0.00425905
0.0298057
0.013062
0.0697829
0.0496635
0.102028
0.0876084
0.118928
0.112685
0.123228
0.12214
0.117347
0.121816
0.104454
0.10044
0.109205
0.00139182
-0.0373423
-0.0141786
-0.00682984
0.0174921
0.00964816
0.0320927
0.0248834
0.0429429
0.0374993
0.0513603
0.0472155
0.057531
0.0544374
0.0625809
0.0602585
0.0652147
0.0642347
0.0648694
0.0653587
0.0619811
0.0636924
0.0560434
0.0593981
0.0466285
0.0516988
0.0340261
0.0407251
0.0165452
0.0260538
-0.00841474
0.00476784
-0.030982
-0.0211611
-0.0287065
-0.0322323
-0.0120412
-0.0209726
0.00508916
-0.0032817
0.0162886
0.010725
0.0244603
0.0209957
0.0294258
0.0270226
-0.0230824
-0.0108884
-0.0473478
-0.0354222
-0.0679678
-0.0580357
-0.0799333
-0.0753763
-0.0791728
-0.0812318
-0.0666378
-0.0741729
-0.0461279
-0.0571213
-0.0215321
-0.0339594
0.00238656
-0.00911143
0.0206457
0.0124552
0.0269441
-0.0545565
-0.0563653
-0.0640534
-0.0737043
-0.0837586
-0.0909487
-0.0359122
-0.0105725
0.0214829
-0.0917537
-0.0842673
-0.0681218
0.0558495
0.0900882
0.105945
-0.0198163
-0.0458397
0.104826
0.0885363
0.0918582
0.0372069
0.0134771
0.0161268
0.0320135
-0.0562084
0.0351248
-0.0507511
0.0244029
0.020364
0.0307446
0.0280921
0.0347836
0.0331587
0.0363745
0.0358497
0.0369059
0.036666
0.0375241
0.0371665
0.0380539
0.0378624
0.0378333
0.0380339
0.0370961
0.0375051
0.0358237
0.0365557
0.0335368
0.0348134
0.0300341
0.0319295
0.025376
0.0278114
0.0204933
0.0228452
0.0186636
0.0188992
0.026644
0.0211204
0.0488826
0.0364724
0.0785584
0.0635842
0.103327
0.09197
0.116526
0.111615
0.118932
0.118857
0.111862
0.116752
0.0954867
0.104525
0.0740797
0.0711984
0.0842123
0.00288275
-0.0224076
-0.00213992
-0.000560922
0.0136392
0.00796581
0.0262484
0.0195553
0.0380592
0.0323172
0.0475652
0.0429554
0.0552834
0.0515937
0.0614432
0.0584519
0.0666436
0.0641884
0.0703165
0.0686676
0.071039
0.0709796
0.0689425
0.0703166
0.0639916
0.0667704
0.0564471
0.0604822
0.0464917
0.0517805
0.0323206
0.0401256
0.0111947
0.0223305
-0.00558902
0.00087534
-0.00643542
-0.00839685
0.00496976
-0.00125336
0.0166008
0.0110693
0.0249302
0.0211424
0.0311207
0.0285981
0.0349814
0.0339708
0.0363577
-0.0295828
-0.013868
-0.0584334
-0.0441836
-0.0817957
-0.071008
-0.0937296
-0.0895745
-0.0905537
-0.0939941
-0.0744625
-0.0838397
-0.0506909
-0.0631696
-0.0242199
-0.0374908
0.000546234
-0.0113032
0.0189292
0.0107986
0.025408
-0.0586592
-0.069648
-0.0852437
-0.102106
-0.117201
-0.0436792
-0.0150241
-0.125252
-0.122095
-0.106811
0.0215229
0.0599731
0.0914787
-0.0805867
0.100206
-0.0506513
0.0924971
-0.000998829
-0.0211097
0.0762869
0.0565596
0.0576339
0.0394649
0.0233958
0.0261134
0.0337825
-0.0632092
0.0101943
-0.00249462
0.0383463
-0.0592852
0.0303725
0.0284352
0.0360246
0.0334391
0.0394438
0.0378691
0.0411804
0.0404042
0.0419996
0.0415661
0.0425112
0.0422573
0.042569
0.0426001
0.0421513
0.0423894
0.0415591
0.0418696
0.0406723
0.0411712
0.0392456
0.0400237
0.0372877
0.0383197
0.0351029
0.0361816
0.0337294
0.0342204
0.0356473
0.0340985
0.0449675
0.0392134
0.0630951
0.0541898
0.0853041
0.0741313
0.103552
0.0952386
0.113062
0.109451
0.113401
0.11435
0.106098
0.110726
0.0901976
0.0990073
0.0683926
0.0799235
0.0404737
0.0414762
0.0555519
0.0119345
0.00223469
0.015295
0.0129532
0.0152048
0.0128181
0.0231366
0.0184088
0.0333884
0.0279414
0.042881
0.0380897
0.0512403
0.0472173
0.0583093
0.0549091
0.0642894
0.0614067
0.069366
0.0669455
0.0730862
0.071438
0.0749665
0.0743552
0.0740248
0.0748156
0.0705009
0.0725228
0.0649104
0.0679135
0.0572181
0.0613681
0.0452922
0.0519529
0.0273912
0.0366944
0.0134998
0.019077
0.012349
0.0114836
0.0191923
0.0153976
0.0266211
0.0230232
0.0323557
0.0298057
0.0369351
0.0348926
0.0397842
0.0391011
0.0398795
-0.0370133
-0.0189457
-0.0713551
-0.0546989
-0.0976491
-0.0859573
-0.109295
-0.105602
-0.1035
-0.108445
-0.0836184
-0.0949587
-0.0560761
-0.0703446
-0.0271207
-0.0414698
-0.0012154
-0.01353
0.0187057
0.00956965
0.0265096
-0.0694354
0.0203373
-0.0901341
-0.114994
-0.139798
-0.0548631
-0.15817
-0.163952
-0.152897
-0.0199755
0.0230089
0.0647234
-0.126217
0.0887106
-0.0886876
0.0893989
-0.0504648
0.0766025
-0.0169219
0.0583638
0.0185596
0.00728576
0.0394126
0.0265946
0.0235971
0.0409505
0.0355051
-0.0769709
0.0442663
0.0439976
-0.0737645
0.0335736
0.0292405
0.0311597
0.0363441
0.0350243
0.0401488
0.0382562
0.0431621
0.041801
0.044961
0.0441431
0.0458658
0.0454238
0.0461847
0.0460547
0.0460018
0.0461256
0.0455953
0.0457961
0.0451808
0.04539
0.0446471
0.0449371
0.0439199
0.0443016
0.0431182
0.0435133
0.0426459
0.0428027
0.0434763
0.0428271
0.0474136
0.0449582
0.056482
0.0513221
0.0714314
0.0625387
0.0889198
0.0803208
0.102533
0.096421
0.109008
0.106642
0.108046
0.109348
0.100096
0.105019
0.0860811
0.0937462
0.0661609
0.076743
0.0425382
0.0546957
0.0115073
0.0164297
0.0297016
0.00440847
0.0240345
0.0225407
0.029082
0.0263425
0.0221115
0.0226201
0.0243437
0.0223336
0.0307705
0.0268534
0.0387539
0.0346729
0.0467336
0.0427505
0.0541075
0.0505303
0.0605839
0.0574406
0.0662517
0.063511
0.0711286
0.0687886
0.074936
0.073187
0.0772594
0.0763314
0.0773334
0.0775657
0.0752181
0.0764979
0.0713493
0.0734709
0.0653792
0.0686923
0.0552066
0.0609007
0.0405646
0.0480346
0.0295285
0.0340765
0.0274296
0.0275862
0.0306096
0.0287348
0.0347772
0.0327282
0.0386501
0.036814
0.0415805
0.0401869
0.0434563
0.0429067
0.0436747
0.0167823
-0.00966307
0.00472201
-0.0467479
-0.0271366
-0.0851077
-0.0664869
-0.113862
-0.10139
-0.125004
-0.121845
-0.116514
-0.12302
-0.0928484
-0.106117
-0.0615672
-0.0776454
-0.0298203
-0.0454158
-0.00217433
-0.0153161
0.0194586
0.00939693
0.0281949
-0.0874797
0.0272219
0.0448574
-0.119338
-0.154362
-0.0926491
-0.18521
-0.203501
-0.20256
-0.0666176
-0.0226979
0.0273871
-0.179406
0.0669849
-0.138187
0.081016
-0.0892496
0.0739749
-0.0438911
0.0575185
-0.00941482
0.0378615
0.0133948
0.0198433
0.0312479
0.0260842
0.00613302
-0.00284173
-0.00654339
7.44484e-05
0.00486538
0.0353952
0.0368717
-0.0978162
0.0335082
0.0349548
0.0393373
0.0380188
0.0413522
0.0403143
0.0439254
0.0427758
0.0462797
0.045269
0.0478841
0.0471738
0.0486846
0.0483326
0.0488415
0.0487987
0.0486086
0.0487359
0.0483086
0.0484459
0.0480716
0.0481841
0.0478493
0.0479602
0.0476701
0.0477476
0.0477103
0.0476478
0.0483909
0.0479398
0.0505255
0.0492282
0.0553637
0.0525563
0.0639736
0.0592379
0.0763937
0.06954
0.0899523
0.0833487
0.100145
0.0956164
0.104516
0.103039
0.102745
0.104321
0.0950388
0.099537
0.0820603
0.0891322
0.0644773
0.0737655
0.0439302
0.0545016
0.0224086
0.033022
0.0131973
0.0304033
0.0318619
0.0294393
0.0295416
0.0312971
0.0297132
0.0365276
0.0336353
0.0429893
0.0396838
0.0498092
0.0463963
0.0563373
0.05314
0.0622529
0.0593652
0.0675451
0.0649735
0.0721773
0.0699456
0.0759324
0.0741774
0.07845
0.0773624
0.0792224
0.0790506
0.0781859
0.0788935
0.0755928
0.0770687
0.0709251
0.0735806
0.0625407
0.0672002
0.0510388
0.0568559
0.042102
0.045956
0.0389221
0.0399374
0.0394601
0.0389306
0.0413219
0.040324
0.0435957
0.0424242
0.0454016
0.0443787
0.046548
0.0459436
0.0474011
0.0470391
0.0477972
0.0475197
0.0331721
0.0128823
0.0245889
-0.018445
-0.00154821
-0.0575901
-0.0371577
-0.097911
-0.07818
-0.128367
-0.115294
-0.138816
-0.136265
-0.127788
-0.135739
-0.100695
-0.115692
-0.0662002
-0.0838261
-0.0319484
-0.0486884
-0.00254876
-0.0164959
0.0201571
0.00968843
0.0364017
0.0291434
0.0452908
0.0415163
0.0480372
-0.113588
0.0321968
0.0355689
-0.157457
-0.124741
-0.200993
-0.234057
-0.246708
-0.0753032
-0.0207615
-0.233498
0.0327376
-0.194236
0.0641968
-0.138821
0.0670756
-0.0812063
0.0543095
-0.0329476
0.0352037
0.000368151
0.0152636
0.0193834
-0.000582384
0.0284036
-0.0158001
-0.0110895
0.0391092
0.03063
0.0374792
0.050228
0.0319642
-0.0165708
-0.00308232
0.0349515
0.0423624
0.0411687
0.0439926
0.043202
0.0454264
0.0445995
0.0471618
0.0463481
0.0488343
0.0480884
0.050068
0.0495253
0.0506788
0.0504288
0.0507537
0.0507448
0.0505766
0.0506646
0.05041
0.0504796
0.0503402
0.050363
0.0503816
0.0503453
0.0506154
0.0504681
0.0512412
0.0508657
0.0526541
0.0518258
0.0555008
0.0538678
0.0606084
0.0577517
0.0684988
0.0642484
0.078816
0.0733559
0.0893732
0.0842695
0.0970093
0.0936622
0.0998747
0.0990267
0.0976259
0.0993302
0.0904008
0.0945481
0.078521
0.0850015
0.0631074
0.071273
0.0450056
0.0543162
0.0268883
0.0355757
0.0108229
0.0185913
0.00426055
0.0388791
0.0388602
0.0392305
0.037066
0.0380288
0.035269
0.0360747
0.0349004
0.0347837
0.0368201
0.0355506
0.041012
0.0387273
0.0464079
0.0436202
0.0522835
0.0493305
0.058059
0.0552078
0.0634377
0.0608
0.0683406
0.0659479
0.0726889
0.0705874
0.0762978
0.0745962
0.078887
0.077728
0.0800907
0.0796593
0.0797927
0.0801048
0.0780808
0.0791064
0.074456
0.0765484
0.0678042
0.0714805
0.0588207
0.0633817
0.0512384
0.0546744
0.0472549
0.0488576
0.0460765
0.0464285
0.0463783
0.0461094
0.0473115
0.0467961
0.0482608
0.0477734
0.0490176
0.0486717
0.0496676
0.0494321
0.0498579
0.0497888
0.0499597
0.0089621
0.0213875
-0.0255662
-0.00686625
-0.0665703
-0.0453971
-0.107842
-0.0876956
-0.138909
-0.1256
-0.148582
-0.14662
-0.135472
-0.144569
-0.105807
-0.122105
-0.0690193
-0.0877318
-0.0330615
-0.0505676
-0.00257583
-0.0169884
0.0206273
0.00996817
0.0364289
0.0294448
0.0454204
0.0415463
0.0482982
-0.147349
-0.201521
-0.249304
0.0511843
0.0340558
-0.112984
-0.277955
-0.0771512
-0.277977
-0.0140248
-0.247516
0.0356542
-0.192473
0.05381
-0.126433
0.0475015
0.0329461
-0.0643546
0.0304805
0.0323883
-0.017647
0.00955578
0.0311186
-0.00944131
-0.026089
0.0105392
-0.00872453
0.0293179
-0.0272311
0.0241822
-0.021112
-0.0161376
0.0509587
-0.00190267
0.00295935
0.0433304
0.0504272
-0.154397
0.0413138
-0.129923
0.0421994
0.0282697
0.0354857
0.0460596
0.0451905
0.047499
0.0468181
0.0484642
0.0479071
0.0496254
0.0490352
0.0507585
0.0502323
0.0516214
0.0512421
0.0520595
0.051885
0.0521185
0.0521102
0.052038
0.0520736
0.0520009
0.0520061
0.0520845
0.0520264
0.052341
0.0521882
0.0528768
0.0525681
0.0538934
0.0533137
0.055736
0.0546947
0.0588981
0.0571345
0.0639126
0.0611704
0.0709772
0.0672303
0.0795553
0.0751294
0.0878215
0.083852
0.0935844
0.091097
0.0953843
0.094973
0.0928721
0.0946161
0.0861653
0.0899902
0.0755315
0.0812043
0.0619406
0.0690452
0.0460355
0.054212
0.0303506
0.0377975
0.0154737
0.0228871
0.00826826
0.0418495
0.0422168
0.0402764
0.0410062
0.0394104
0.0396005
0.0393037
0.0390625
0.0411238
0.0400275
0.0445607
0.0426784
0.0491455
0.0467619
0.0542347
0.0516656
0.0593568
0.0568121
0.0642391
0.061835
0.0687585
0.0665466
0.0728064
0.0708454
0.0761816
0.0745944
0.0787959
0.0776165
0.0802363
0.0796546
0.0804151
0.0804671
0.0793083
0.0800182
0.0764939
0.0781363
0.0712176
0.0741349
0.06403
0.0677132
0.0574084
0.0605272
0.0530467
0.0549546
0.0508669
0.0517495
0.0501329
0.0503758
0.0501747
0.0500923
0.0504954
0.0503242
0.0509365
0.050702
0.0512388
0.0510333
0.0512952
0.0513074
0.0512942
0.00598409
0.018314
-0.0288847
-0.00997467
-0.0710543
-0.0494008
-0.112866
-0.0926301
-0.143535
-0.130427
-0.152452
-0.150939
-0.138101
-0.147858
-0.107218
-0.124107
-0.0693654
-0.0885589
-0.0327871
-0.0505639
-0.00205324
-0.0165321
0.0210067
0.0104552
0.0362941
0.0295427
0.0454219
0.041493
0.0482782
-0.185447
-0.245257
-0.0274916
0.0514188
0.0507828
-0.290134
-0.138206
-0.306278
-0.0712553
-0.287954
-0.006118
-0.238974
0.0313214
-0.172416
0.03546
0.0366387
0.0316894
-0.102251
0.0222934
0.029476
-0.00643199
-0.0220913
-0.04126
0.0019163
0.0291103
-0.0330293
-0.00119557
-0.0187736
0.0287105
-0.0392053
0.0194092
-0.0335898
-0.181049
0.027012
0.0358936
0.0413758
0.0412062
0.0405949
0.0462043
0.0450739
0.0484558
0.0476365
0.0497393
0.0493336
0.0505478
0.0501908
0.0513141
0.0509225
0.0520711
0.0517111
0.0526597
0.0523982
0.0529828
0.0528507
0.0530686
0.0530404
0.0530877
0.0530729
0.0531689
0.0531153
0.053388
0.0532596
0.0538135
0.0535718
0.0545618
0.054142
0.0558236
0.0551196
0.0578887
0.0567446
0.061121
0.0593505
0.0658441
0.0633023
0.07207
0.0688067
0.0792623
0.0755921
0.0857359
0.0826231
0.0901154
0.0882573
0.0911795
0.0910584
0.0885805
0.0902966
0.0824233
0.0858995
0.0729856
0.0780753
0.0610867
0.0672732
0.0473802
0.0543927
0.0339323
0.0403475
0.0212403
0.0275749
0.0114151
0.01561
0.00540008
0.0083642
-0.0108704
0.0437576
0.0424096
0.0444869
0.0445361
0.04325
0.043952
0.0426445
0.0428923
0.0428634
0.0426071
0.0444757
0.0435201
0.0473853
0.0457898
0.0513203
0.0492676
0.0557577
0.0535081
0.0603152
0.0580401
0.0647416
0.0625543
0.0688896
0.0668549
0.0726421
0.0708197
0.0758364
0.0743147
0.0783308
0.0771829
0.0798661
0.0792139
0.0803215
0.0802182
0.0796023
0.0801055
0.077349
0.0786775
0.0730462
0.075428
0.0671338
0.0701888
0.0613103
0.0641275
0.0569167
0.0589197
0.0542251
0.0553949
0.0528477
0.0534152
0.0522947
0.0524999
0.0521672
0.0521966
0.0522223
0.0521798
0.0522392
0.0522196
0.052197
0.0522315
0.0520142
0.0522285
0.0393444
0.0268268
0.0344385
0.00604155
0.0163088
-0.0282801
-0.00995661
-0.0699542
-0.0485098
-0.111416
-0.0914659
-0.141085
-0.128432
-0.149443
-0.148149
-0.135073
-0.144789
-0.104502
-0.121209
-0.0671122
-0.0860722
-0.031022
-0.0485488
-0.000814107
-0.0150264
0.0217195
0.0114231
0.036456
0.0299795
0.0453489
0.0415091
0.047985
-0.221495
-0.0429376
0.041878
0.0512463
-0.279646
-0.197851
-0.0413236
-0.313229
-0.135267
-0.310426
-0.0599297
-0.272376
-0.00318602
0.0416073
0.0357334
0.000767432
-0.208998
0.0169277
0.0300437
-0.0113672
-0.136615
0.00965734
0.0263881
-0.0263093
-0.0687373
-0.00899801
0.025701
-0.0397326
-0.0162114
-0.0311359
0.0262057
-0.0498721
0.0136326
-0.0492077
0.0271636
-0.057465
0.0251742
0.0428201
0.0467114
0.0424039
0.0445567
0.0484271
0.0474754
0.0454605
0.0499125
0.0486311
0.0511727
0.0506147
0.0518456
0.0515305
0.0523618
0.0520914
0.0528698
0.0526184
0.0532877
0.0530955
0.0535538
0.0534379
0.0536874
0.0536284
0.0537987
0.0537377
0.0539871
0.05388
0.0543205
0.0541336
0.0548757
0.0545676
0.055767
0.0552747
0.0571684
0.0563973
0.0593164
0.0581422
0.0624726
0.0607661
0.0668162
0.0645074
0.0722377
0.0694279
0.0780643
0.0751776
0.0833984
0.0809062
0.0867546
0.0853593
0.0873065
0.0873776
0.0847473
0.0863844
0.0791229
0.0822754
0.0707855
0.0752374
0.0604097
0.0657916
0.0487219
0.0546566
0.0371747
0.042827
0.0267039
0.0316312
0.0191881
0.0225051
0.0131826
0.0160903
0.0457059
0.0458898
0.0464817
0.0458944
0.0468162
0.0468528
0.0460085
0.0464683
0.0453431
0.045514
0.0457209
0.0454293
0.0471351
0.0463023
0.0496449
0.0482708
0.0530446
0.0512669
0.0569357
0.0549554
0.061
0.0589634
0.0650079
0.0630214
0.0688033
0.0669378
0.0722635
0.0705798
0.0752458
0.0738184
0.0775966
0.076505
0.0791306
0.078463
0.0797144
0.0795345
0.0792129
0.0795966
0.0773224
0.078444
0.0737058
0.0757064
0.0687363
0.0713141
0.0636005
0.0661242
0.0593856
0.0613543
0.056486
0.0577904
0.054734
0.0554983
0.0537858
0.0541873
0.0533148
0.0535102
0.0530641
0.053173
0.0528396
0.052947
0.0525574
0.0527028
0.0523911
0.052382
0.0515137
0.0517236
0.0521074
0.0421642
0.0384085
0.0408537
0.0272075
0.0341088
0.00683488
0.0178463
-0.0243658
-0.00738121
-0.0638824
-0.0435036
-0.103421
-0.084387
-0.131632
-0.119563
-0.139865
-0.138462
-0.126746
-0.135704
-0.0980744
-0.113794
-0.062618
-0.0806426
-0.0280672
-0.0448736
0.000987882
-0.0126982
0.0227069
0.0127776
0.036908
0.0306853
0.0454812
0.0417511
0.0502912
0.0481971
0.0512428
-0.247341
-0.0584984
0.0445183
-0.295937
-0.199601
-0.0610605
0.0458781
0.0454664
0.0514551
0.0512886
-0.311803
-0.122228
0.0512501
0.0451327
-0.288461
-0.0501115
0.0364031
0.015498
0.00543031
-0.233103
-0.0109856
0.0287285
-0.0103524
-0.161634
-0.00806991
0.0231865
-0.0270856
-0.0908169
-0.0238177
0.0211208
-0.0442952
-0.0318511
-0.0470903
0.0219422
-0.0589266
0.00753303
-0.0680565
0.0245073
-0.0704272
0.0244192
-0.080367
0.0271221
0.0421102
0.0552567
0.0566617
0.0605711
0.04303
0.0480677
0.0466257
0.0504336
0.0491737
0.0517802
0.0511674
0.0524563
0.052148
0.0528827
0.0526704
0.0532598
0.053071
0.0535902
0.0534319
0.0538461
0.0537267
0.0540323
0.0539427
0.0542279
0.0541237
0.0545111
0.0543567
0.0549405
0.0547056
0.0555926
0.0552363
0.0565755
0.0560388
0.0580429
0.0572438
0.0601843
0.0590257
0.0631829
0.061578
0.0671205
0.0650481
0.0718236
0.0694089
0.0767304
0.0743024
0.0810072
0.0790215
0.0835868
0.0825369
0.0837857
0.0839814
0.081334
0.0828663
0.0762598
0.0790839
0.0689094
0.0728142
0.059864
0.0645448
0.0498971
0.0549217
0.0401061
0.0449428
0.0315734
0.0354765
0.0256258
0.0280933
0.0205464
0.0228543
0.0213145
0.0200483
0.0208953
0.0279841
0.023877
0.0281486
0.0351
0.051368
0.0535009
0.0495329
0.0502265
0.0493275
0.0492512
0.0489864
0.0491842
0.0482737
0.048611
0.0477077
0.0479025
0.0480614
0.0477866
0.0492935
0.0485716
0.0514634
0.0502767
0.054411
0.0528661
0.0578344
0.0560861
0.0614628
0.0596391
0.0650867
0.063286
0.0685493
0.0668445
0.0717248
0.0701774
0.0744837
0.0731601
0.0766732
0.0756527
0.078144
0.0774967
0.0787586
0.078554
0.0783634
0.0786845
0.0767112
0.0776926
0.0735961
0.0753136
0.0693323
0.0715493
0.0648008
0.0670534
0.0608531
0.0627277
0.0579223
0.0592692
0.0559698
0.0568467
0.0547618
0.0552961
0.0540291
0.0543543
0.0535314
0.0537613
0.0530945
0.0533082
0.0526616
0.0528633
0.0521685
0.0524153
0.0514925
0.0519381
0.0386314
0.0410118
0.0286638
0.0346495
0.0103068
0.0205285
-0.0178998
-0.00251799
-0.0539798
-0.035355
-0.0903379
-0.0727731
-0.116699
-0.105319
-0.125245
-0.123414
-0.114428
-0.122043
-0.0889892
-0.103051
-0.056658
-0.0731862
-0.0244902
-0.0402071
0.00296868
-0.0100102
0.0237093
0.0142059
0.0374116
0.0314047
0.0455352
0.0420229
0.0499005
0.0480792
0.0510108
-0.255694
0.0645287
0.0602506
-0.0794213
0.0452478
0.0437752
0.050899
-0.289012
-0.186816
0.0489953
-0.0832789
0.0425345
0.0429253
0.0467253
0.0371036
0.0691379
0.0687461
0.0740608
-0.285457
-0.106316
0.0738018
0.0611137
0.0675505
0.0377281
0.0112278
-0.244797
-0.0498368
0.0279668
-0.00678043
-0.178093
-0.0326638
0.0205844
-0.0251899
-0.104553
-0.0432531
0.0162322
-0.0457015
-0.0407068
-0.0666862
0.0160301
-0.0642604
0.00371348
-0.091396
0.0191594
-0.0812862
0.0256921
-0.107064
0.0248034
-0.0954518
0.0295661
0.0486806
0.0527063
0.046186
0.0439291
0.0453828
0.0483712
0.0472899
0.0504035
0.0494304
0.0517934
0.0511676
0.0525459
0.0522168
0.0529855
0.05278
0.0533257
0.0531584
0.0536301
0.0534797
0.0539107
0.0537725
0.0541459
0.0540286
0.0544191
0.0542741
0.0547856
0.0545896
0.0552956
0.0550212
0.0560195
0.0556286
0.0570572
0.056496
0.0585416
0.0577402
0.060623
0.0595062
0.0634253
0.061938
0.0669666
0.065118
0.0710467
0.0689677
0.0751804
0.0731456
0.0786589
0.0770406
0.0806498
0.0798587
0.080614
0.0808843
0.0783068
0.0797234
0.0737712
0.0762817
0.0673181
0.0707385
0.0594529
0.0635132
0.0509206
0.0552054
0.0426313
0.0467117
0.0355938
0.0388577
0.0307109
0.0329193
0.0275006
0.0287155
0.0292072
0.0275747
0.036205
0.0317433
0.0421987
0.0611887
0.0650084
0.0557778
0.0581072
0.0531462
0.0539737
0.0518647
0.052353
0.0511515
0.0514716
0.0502474
0.0506317
0.0497602
0.0499462