/*--------------------------------*- C++ -*----------------------------------*\
  =========                 |
  \\      /  F ield         | OpenFOAM: The Open Source CFD Toolbox
   \\    /   O peration     | Website:  https://openfoam.org
    \\  /    A nd           | Version:  10
     \\/     M anipulation  |
\*---------------------------------------------------------------------------*/
FoamFile
{
    format      ascii;
    class       volVectorField;
    location    "17.5";
    object      U;
}
// * * * * * * * * * * * * * * * * * * * * * * * * * * * * * * * * * * * * * //

dimensions      [0 1 -1 0 0 0 0];

internalField   nonuniform List<vector> 
33313
(
(0.272117 0.011378 -4.78058e-21)
(0.40087 0.00595433 2.59989e-21)
(0.350816 0.0269473 0)
(0.15166 0.00726769 0)
(0.704274 0.0242359 -6.27226e-24)
(0.661997 0.0254643 0)
(0.55213 0.028396 -1.03169e-21)
(0.582362 0.0196003 0)
(0.676366 0.0173818 2.7663e-22)
(0.557396 0.0178719 1.28501e-21)
(0.627878 0.0239131 0)
(-0.0692506 0.053657 -2.89647e-20)
(-0.0287349 0.0202341 -1.02364e-19)
(-0.0280198 0.0199508 -2.18473e-19)
(0.427775 -0.35039 -1.03703e-21)
(0.162808 -0.120591 9.15697e-21)
(0.143875 -0.114406 1.08394e-20)
(1.41403 -0.443398 0)
(1.41945 -0.328674 0)
(1.39655 -0.296456 0)
(1.43498 -0.369851 2.11729e-20)
(0.532832 0.0222972 0)
(0.451171 0.32876 -1.24379e-19)
(0.296654 0.283813 3.77622e-19)
(0.400822 0.0146052 -8.14558e-20)
(1.00475 -0.0202077 -5.15759e-20)
(1.00453 -0.039357 3.57924e-20)
(1.00489 -0.0786147 0)
(0.963515 0.105114 -5.59745e-20)
(1.03632 0.100268 4.45272e-20)
(1.01603 0.0816117 2.96184e-20)
(0.996656 -0.0192781 -3.21438e-20)
(0.882158 0.0570591 -2.13445e-20)
(-0.060612 -0.0672486 6.43957e-20)
(-0.0671159 -0.0428114 -1.33541e-19)
(-0.0670367 -0.03707 8.33272e-20)
(-0.105929 -0.0558522 1.14565e-20)
(1.14716 -0.0383892 -9.40509e-23)
(1.15494 -0.038808 -2.02944e-21)
(1.48209 0.188847 -2.18793e-20)
(1.45549 0.172918 4.06214e-20)
(1.01143 -0.184234 -5.92822e-20)
(1.01812 -0.180725 -4.96921e-21)
(-0.0635573 -0.0299692 -5.47741e-20)
(-0.0583779 0.0815654 4.2378e-20)
(-0.0842217 0.0690172 -1.6836e-19)
(0.200249 0.503999 8.83378e-20)
(0.179719 0.366246 3.34247e-20)
(0.401989 -0.0426996 7.962e-22)
(0.514771 -0.0240868 -1.57618e-21)
(1.04196 0.0680287 -3.92357e-20)
(1.05974 0.062572 2.1068e-20)
(1.06397 -0.0975567 -4.7002e-20)
(1.01898 -0.060778 1.2691e-19)
(0.485926 0.550991 9.00275e-20)
(0.420583 0.609374 -3.51843e-20)
(0.642325 0.74241 -8.01754e-20)
(0.381204 0.684591 1.99063e-19)
(0.220176 -0.369965 4.54264e-20)
(0.353143 -0.687994 -3.54811e-21)
(0.217726 0.546529 -5.15886e-20)
(0.408207 -0.264663 2.35961e-19)
(0.229603 -0.193479 -7.11336e-20)
(0.0983587 -0.135793 0)
(0.0803954 -0.00419301 0)
(0.110279 -0.0139159 1.2297e-20)
(1.3166 0.00328829 2.82521e-20)
(1.35126 -0.316326 0)
(1.35049 -0.309608 0)
(0.185607 -0.30666 3.13325e-20)
(0.240373 -0.307047 0)
(0.349559 -0.256592 0)
(0.170481 -0.0430245 7.66903e-21)
(1.51262 0.242864 8.15137e-20)
(-0.0562983 -0.315301 7.20351e-20)
(0.011642 -0.286491 4.8814e-20)
(0.234725 -0.151538 0)
(0.221994 -0.184195 2.56701e-20)
(1.40523 0.302021 7.75664e-20)
(1.43858 0.236298 -4.71255e-20)
(0.821461 -0.0509012 1.47268e-19)
(0.8368 -0.0314211 -4.95124e-20)
(0.796205 -0.0869172 0)
(1.37595 0.141186 2.19363e-20)
(1.2524 0.179439 -4.79318e-21)
(0.695512 0.0505739 -1.9319e-20)
(0.0960879 0.0252407 0)
(-0.0229108 0.0574677 1.99845e-20)
(-0.0591711 0.0513879 1.14198e-19)
(0.0383762 -0.128747 2.8451e-19)
(-0.101733 -0.175668 5.74638e-21)
(-0.0790572 -0.196447 -2.33561e-21)
(-0.0736784 -0.115046 -3.95816e-19)
(-0.0749198 -0.113011 0)
(-0.0835362 -0.105169 4.64377e-20)
(1.0423 0.0626529 0)
(1.01582 0.0601525 -4.76535e-21)
(0.471625 -0.0472119 -1.56878e-21)
(0.605711 -0.0311943 3.48204e-24)
(1.45239 -0.311721 0)
(1.44893 -0.347872 -4.64962e-20)
(1.44427 -0.281851 0)
(1.45763 -0.238394 2.35502e-20)
(1.48085 -0.250896 3.85702e-21)
(1.39733 -0.233046 -2.61705e-20)
(0.228686 -0.0266315 -1.57517e-21)
(0.15581 -0.0553281 -7.39625e-20)
(-0.0309194 -0.0535886 -5.21404e-20)
(-0.0291161 -0.0517613 -2.60098e-22)
(0.899041 -0.609598 -8.00908e-21)
(1.09392 -0.777506 2.03432e-20)
(0.92071 -0.726195 5.14526e-20)
(0.708207 -0.496014 0)
(0.700047 -0.213577 6.58436e-20)
(0.255175 -0.0456944 3.23207e-20)
(0.615027 -0.0997264 -2.93337e-20)
(0.206708 0.0701638 -4.32431e-19)
(0.172904 0.217508 4.90174e-20)
(1.47369 -0.239654 1.14795e-21)
(1.47042 -0.232632 0)
(-0.0732375 -0.0454238 0)
(-0.0420736 -0.0265393 8.58643e-20)
(-0.0562503 -0.0332674 0)
(0.329994 -0.0142095 -2.4844e-21)
(0.392004 -0.0102323 1.8883e-21)
(0.199871 -0.0319059 -6.45836e-21)
(0.786642 0.731668 1.37163e-19)
(1.21815 0.0366141 2.02946e-22)
(1.22261 0.0385591 0)
(-0.121103 -0.126114 3.12242e-20)
(-0.152732 -0.209015 -3.73638e-20)
(-0.0211742 -0.0225604 -1.47634e-19)
(-0.0192058 -0.0139428 2.67697e-19)
(0.9063 0.694504 1.5948e-20)
(1.06506 0.704935 7.7125e-21)
(0.935614 0.661977 0)
(0.774504 0.600955 0)
(0.484381 -0.337205 -3.23479e-21)
(0.608855 -0.431972 0)
(0.85128 -0.757371 -1.15216e-19)
(0.852355 -0.72322 -5.34774e-20)
(0.721873 -0.768594 1.25687e-19)
(1.20837 0.0313957 4.98483e-22)
(1.20535 0.0299895 4.96251e-21)
(1.21649 0.0356039 -5.90884e-23)
(1.08952 -0.0134398 0)
(1.09418 -0.0131768 -3.39981e-21)
(1.09635 -0.0167367 5.39489e-21)
(1.10066 -0.0189131 3.21659e-21)
(0.994113 -0.224109 4.4406e-20)
(1.00749 -0.230016 0)
(0.991248 -0.179892 -7.64635e-20)
(0.998833 -0.195242 4.36302e-20)
(0.942139 0.105644 2.85493e-20)
(0.935447 0.12501 -4.40479e-20)
(0.956536 0.133763 2.70327e-20)
(0.950338 0.14373 1.56299e-19)
(0.110259 -0.245951 1.89089e-20)
(0.0293253 -0.333853 0)
(0.104606 -0.302935 -2.65254e-20)
(-0.0185863 -0.00825112 -2.2205e-19)
(0.458643 0.371915 1.04474e-20)
(0.486668 0.437049 -5.06862e-21)
(0.868001 0.718756 -3.38877e-20)
(0.492702 0.489039 -3.53698e-20)
(-0.0655076 0.0462762 0)
(-0.0820343 0.0793287 9.44871e-20)
(-0.122814 0.0527794 -6.40071e-20)
(0.484305 0.0709943 0)
(0.726428 0.0195495 0)
(0.779783 0.0199436 -4.78048e-22)
(1.0712 -0.00151591 4.03819e-21)
(1.07251 -0.00525978 -2.52145e-21)
(1.08616 0.0350076 6.65281e-22)
(1.08954 0.0392582 -1.41867e-23)
(1.01302 -0.0917017 1.06849e-20)
(1.0248 -0.0760914 -4.61313e-20)
(0.450217 -0.128086 1.43463e-19)
(0.340343 -0.155975 -1.10018e-19)
(1.02692 0.139891 0)
(1.04023 0.157934 0)
(1.11583 0.0291444 -1.1545e-22)
(1.12022 0.0320915 -1.23786e-21)
(1.10888 0.185837 -2.37009e-20)
(1.10315 0.179347 8.5414e-21)
(0.759685 -0.13079 0)
(0.787267 -0.122156 -1.29034e-20)
(0.281619 -0.195617 2.5601e-20)
(0.244234 -0.240182 2.70779e-20)
(0.0509734 -0.194439 -8.83533e-23)
(-0.0858601 -0.345132 -1.92014e-19)
(0.839564 0.0484756 -5.21179e-20)
(0.869809 0.0476831 2.22304e-20)
(-0.111496 -0.310059 8.18158e-21)
(-0.14564 -0.34686 0)
(0.930023 0.248941 0)
(0.906652 0.282268 -5.47647e-21)
(0.87491 0.373894 -5.34799e-20)
(0.958869 -0.273846 2.68622e-20)
(0.929517 -0.302275 0)
(0.927095 -0.459572 3.23961e-20)
(0.814561 0.00433944 -4.40819e-20)
(0.843299 0.011388 5.31165e-20)
(1.04019 -0.0683498 4.04027e-21)
(1.03341 -0.0613831 -8.8945e-21)
(-0.105282 0.105484 0)
(-0.073163 0.107153 -6.10295e-20)
(1.2155 -0.658758 -1.17013e-20)
(1.1529 -0.664464 7.29169e-21)
(1.02879 -0.0576269 -3.13067e-20)
(1.03374 -0.0665549 3.7322e-20)
(0.675035 0.0248228 3.1417e-24)
(0.736792 0.0225584 -3.63671e-24)
(0.735956 0.0222048 -6.75536e-22)
(0.68421 0.0235696 -3.9177e-22)
(0.554431 -0.426695 7.72824e-21)
(-0.0421262 0.0244797 9.4246e-20)
(-0.0414301 0.0271899 -5.08628e-20)
(0.987701 0.194685 1.1406e-20)
(0.985906 0.177393 -5.36835e-21)
(0.997839 0.176165 5.3912e-21)
(1.00162 0.194067 0)
(1.47984 -0.234168 -1.88821e-20)
(1.48193 -0.217809 1.07934e-21)
(1.47428 -0.210733 1.83643e-20)
(1.11611 0.288673 0)
(1.09906 0.28575 -2.63919e-20)
(1.11807 0.286485 0)
(-0.0631314 0.0485264 -6.85715e-20)
(-0.0238636 0.0168974 -1.55044e-19)
(-0.0280691 0.0198427 0)
(0.191229 -0.130333 -2.33733e-20)
(0.157395 -0.113562 6.17013e-21)
(1.06916 -3.86595e-05 2.78405e-21)
(1.07698 0.0100932 -3.19966e-21)
(1.07884 0.0133352 -1.43735e-21)
(1.24691 -0.409153 0)
(1.03305 -0.18916 0)
(0.605956 -0.400409 -5.26304e-21)
(0.612586 -0.325515 -5.05742e-21)
(0.627968 -0.239293 7.78451e-21)
(0.645892 -0.15555 -5.42132e-22)
(0.667043 -0.0702297 0)
(0.688315 0.0129953 -4.32928e-21)
(0.711249 0.0939239 4.32827e-21)
(0.735794 0.170382 4.04186e-21)
(0.760362 0.240546 -4.03939e-21)
(0.78477 0.303518 -3.61369e-21)
(0.808186 0.358062 3.61134e-21)
(0.83062 0.403975 3.09411e-21)
(0.851261 0.440756 -3.09198e-21)
(0.870156 0.468888 0)
(0.886687 0.488621 0)
(0.901072 0.50095 0)
(0.912961 0.506632 1.8496e-21)
(0.922725 0.506834 -1.85117e-21)
(0.930216 0.502475 0)
(0.935886 0.494577 0)
(0.939658 0.483978 0)
(0.942051 0.471378 1.06746e-21)
(0.942855 0.45748 -1.00783e-22)
(0.942847 0.442546 -1.84897e-21)
(0.941196 0.427354 8.8222e-22)
(0.939753 0.411362 -7.50685e-22)
(0.935611 0.39649 2.26883e-21)
(0.932193 0.380355 5.64056e-24)
(0.927346 0.365712 0)
(0.922507 0.350285 1.90617e-22)
(0.916099 0.335667 0)
(0.909406 0.322016 -3.6022e-22)
(0.582564 -0.404097 0)
(0.590675 -0.470837 1.03065e-20)
(0.583775 -0.46909 2.37359e-21)
(0.600291 -0.46239 3.895e-21)
(0.892767 0.298429 -3.85966e-22)
(0.898108 0.310268 3.86839e-22)
(0.905331 0.343389 0)
(0.888689 0.321372 -1.82643e-22)
(0.89745 0.332 -2.10233e-22)
(0.916469 0.370322 0)
(0.911441 0.356431 0)
(0.92322 0.3997 0)
(0.919952 0.385088 0)
(0.926319 0.428956 -9.70646e-27)
(0.925405 0.414299 0)
(0.925153 0.456443 0)
(0.926471 0.442975 0)
(0.918562 0.47947 -3.29161e-24)
(0.922669 0.468718 0)
(0.90522 0.493589 0)
(0.912836 0.487981 0)
(0.883859 0.49257 -4.96101e-24)
(0.89561 0.495411 0)
(0.853769 0.469055 -6.07101e-24)
(0.869911 0.484084 0)
(0.815394 0.416164 -7.28446e-24)
(0.835535 0.446625 -8.21935e-28)
(0.770611 0.329729 0)
(0.793641 0.377232 0)
(0.72227 0.210041 0)
(0.746706 0.273821 0)
(0.673742 0.0624601 0)
(0.697736 0.139187 0)
(0.631305 -0.102183 0)
(0.651264 -0.0185868 0)
(0.600504 -0.264135 2.42666e-21)
(0.614716 -0.18088 6.74791e-22)
(0.589511 -0.336663 1.27743e-22)
(0.591718 -0.520547 1.1499e-22)
(0.589068 -0.515214 1.26253e-21)
(0.873614 0.316191 0)
(0.597848 -0.521429 -9.02559e-21)
(0.868938 0.297862 0)
(0.88164 0.286501 4.36136e-22)
(0.599655 -0.56056 -1.38558e-22)
(0.601641 -0.548634 -1.17677e-21)
(0.857653 0.310662 -1.08948e-21)
(0.903502 0.286223 0)
(0.601774 -0.568972 -1.54573e-21)
(0.893564 0.274596 -3.5721e-22)
(0.618353 -0.570466 -9.69966e-22)
(0.611215 -0.602492 1.32324e-21)
(0.613182 -0.588129 0)
(0.615807 -0.455049 6.79364e-22)
(0.60796 -0.571741 2.43544e-21)
(0.609136 -0.518935 5.79092e-21)
(0.639736 -0.305801 1.9745e-22)
(0.626834 -0.384189 -3.35627e-21)
(0.681527 -0.129887 -6.51108e-24)
(0.658173 -0.219744 -6.55064e-21)
(0.730105 0.0456058 0)
(0.705688 -0.0412018 0)
(0.780272 0.205136 0)
(0.754954 0.1281 0)
(0.829709 0.33718 0)
(0.805398 0.275221 0)
(0.87391 0.433479 0)
(0.852688 0.390063 0)
(0.909752 0.492068 0)
(0.893014 0.467339 0)
(0.935715 0.517092 0)
(0.92399 0.508323 0)
(0.952053 0.516478 0)
(0.945016 0.519425 0)
(0.960219 0.498935 0)
(0.957042 0.509314 0)
(0.96209 0.471786 0)
(0.961816 0.486194 0)
(0.959418 0.440141 -1.47318e-27)
(0.961168 0.456319 0)
(0.953674 0.407032 -1.85648e-26)
(0.956521 0.423743 0)
(0.944498 0.374242 -1.23626e-22)
(0.948406 0.390625 -1.72578e-21)
(0.932842 0.342883 -3.82899e-22)
(0.938358 0.35853 6.62832e-22)
(0.919636 0.312979 3.63414e-22)
(0.926773 0.327586 -1.80528e-22)
(0.911905 0.299407 0)
(0.854356 0.291579 -1.35563e-22)
(0.880491 0.264725 6.00278e-24)
(0.867521 0.278344 0)
(0.875374 0.334384 -3.2117e-23)
(0.846548 0.324221 1.06025e-21)
(0.861636 0.329001 0)
(0.894452 0.351748 0)
(0.885621 0.342216 1.25284e-22)
(0.90646 0.37522 -1.28279e-22)
(0.901075 0.363113 0)
(0.912744 0.401997 0)
(0.910065 0.388477 1.28514e-22)
(0.914408 0.4291 -2.92105e-26)
(0.914169 0.415626 0)
(0.91112 0.454106 0)
(0.913477 0.441979 0)
(0.90196 0.474054 3.27453e-24)
(0.907376 0.46493 0)
(0.885756 0.484462 0)
(0.894819 0.480785 0)
(0.861504 0.479274 4.93464e-24)
(0.874678 0.484234 0)
(0.828858 0.451576 6.03954e-24)
(0.846207 0.468655 0)
(0.788594 0.395131 7.2491e-24)
(0.809574 0.427241 8.17758e-28)
(0.742741 0.306355 0)
(0.766191 0.354838 0)
(0.694305 0.185981 0)
(0.718629 0.249854 0)
(0.647378 0.0400923 0)
(0.670293 0.115599 0)
(0.608868 -0.119035 8.76217e-24)
(0.626618 -0.0388086 0)
(0.582552 -0.274432 0)
(0.594243 -0.198232 0)
(0.5721 -0.408526 0)
(0.574506 -0.344171 0)
(0.589062 -0.504329 -4.8917e-22)
(0.577874 -0.463476 -2.61296e-21)
(0.627395 -0.54739 -6.24067e-22)
(0.606682 -0.532237 2.6472e-21)
(0.842513 0.305047 3.94535e-22)
(0.612697 -0.611467 -2.31719e-21)
(0.642018 -0.580133 8.83024e-22)
(0.654846 -0.553059 -1.17848e-21)
(0.866953 0.256165 2.07664e-22)
(0.893461 0.252635 2.57683e-22)
(0.880872 0.242637 1.15479e-22)
(0.627382 -0.622254 0)
(0.835937 0.337221 6.53704e-22)
(0.832055 0.318314 1.54767e-22)
(0.823167 0.330288 7.91966e-22)
(0.623966 -0.636822 8.72839e-23)
(0.633353 -0.60309 0)
(0.618576 -0.572219 -7.41381e-22)
(0.623911 -0.647284 -3.48866e-21)
(0.618009 -0.616487 1.43235e-21)
(0.636383 -0.445276 -2.9723e-21)
(0.625109 -0.513902 0)
(0.66963 -0.28495 1.15143e-22)
(0.651644 -0.368541 1.61331e-21)
(0.716145 -0.106949 -4.48146e-22)
(0.69143 -0.19716 5.61031e-22)
(0.767681 0.0704266 0)
(0.741874 -0.0169199 0)
(0.81924 0.229724 0)
(0.793554 0.153114 0)
(0.867895 0.359395 0)
(0.844203 0.298847 0)
(0.909613 0.451806 0)
(0.889823 0.410486 0)
(0.941737 0.505677 0)
(0.926971 0.483361 0)
(0.963398 0.525952 -3.39087e-24)
(0.953856 0.519517 0)
(0.97543 0.521183 0)
(0.970515 0.526109 0)
(0.979692 0.500368 0)
(0.9784 0.512269 0)
(0.978267 0.470823 0)
(0.979569 0.486325 0)
(0.972932 0.437484 7.29632e-27)
(0.975995 0.454421 0)
(0.964977 0.403166 -2.30104e-26)
(0.969186 0.42038 0)
(0.955108 0.369158 -1.50298e-23)
(0.960069 0.386099 0)
(0.943489 0.336178 -4.26133e-23)
(0.949281 0.352538 -4.00586e-22)
(0.930328 0.304757 7.81455e-23)
(0.937114 0.320144 4.40606e-23)
(0.914615 0.276247 -7.809e-23)
(0.922703 0.290124 -1.49321e-22)
(0.904917 0.263821 7.93241e-23)
(0.839898 0.284888 -1.53264e-22)
(0.853109 0.270799 0)
(0.819134 0.309975 4.98894e-22)
(0.828393 0.298121 -6.57203e-23)
(0.862595 0.346783 1.38566e-23)
(0.849601 0.342009 0)
(0.883589 0.360228 3.64237e-23)
(0.873867 0.352966 -4.6088e-23)
(0.896457 0.380037 2.02637e-24)
(0.890964 0.369418 3.30816e-23)
(0.902545 0.403745 0)
(0.900268 0.391606 0)
(0.902876 0.428253 -4.57087e-26)
(0.903375 0.416093 0)
(0.897654 0.450467 -2.52279e-24)
(0.901 0.439808 0)
(0.886165 0.467116 0)
(0.892765 0.459717 0)
(0.86743 0.473712 0)
(0.877763 0.471998 0)
(0.840707 0.464419 0)
(0.855088 0.471443 0)
(0.805955 0.432785 -4.98329e-24)
(0.824292 0.451773 0)
(0.764202 0.373171 0)
(0.785835 0.40673 0)
(0.717692 0.282564 0)
(0.741347 0.331758 0)
(0.669888 0.162313 0)
(0.693682 0.225829 0)
(0.625665 0.019277 0)
(0.646944 0.0929737 0)
(0.591355 -0.133945 -8.82998e-24)
(0.606915 -0.0570902 0)
(0.57091 -0.281273 0)
(0.579287 -0.20917 0)
(0.568429 -0.40713 8.48813e-22)
(0.56683 -0.348083 0)
(0.593402 -0.489361 -2.20375e-23)
(0.577359 -0.454825 -8.0199e-22)
(0.642318 -0.52061 -2.78546e-22)
(0.615575 -0.510321 1.37629e-21)
(0.683646 -0.553691 -1.39762e-21)
(0.703992 -0.523025 0)
(0.672773 -0.523068 -9.53675e-22)
(0.639892 -0.649936 6.15938e-21)
(0.634939 -0.664301 -2.89636e-21)
(0.647059 -0.631123 2.19122e-21)
(0.667677 -0.582517 0)
(0.812429 0.319771 -7.59789e-22)
(0.732882 -0.52478 0)
(0.71332 -0.553058 3.16044e-21)
(0.852345 0.248316 -1.20784e-22)
(0.866855 0.233847 6.9415e-23)
(0.905833 0.241053 2.72486e-22)
(0.659258 -0.653382 0)
(0.649951 -0.670296 -1.83612e-21)
(0.894332 0.229908 0)
(0.655746 -0.608433 0)
(0.627867 -0.651808 2.86328e-21)
(0.643879 -0.684027 1.77913e-21)
(0.633542 -0.67408 -2.09627e-21)
(0.63425 -0.565935 -6.02932e-22)
(0.628014 -0.615612 1.73849e-21)
(0.662006 -0.430051 -2.58034e-21)
(0.645745 -0.503551 4.60265e-22)
(0.703648 -0.26222 -7.06785e-22)
(0.681422 -0.348833 0)
(0.754704 -0.0812622 4.29269e-25)
(0.72827 -0.172548 4.81328e-22)
(0.808634 0.0965556 0)
(0.781685 0.00912891 0)
(0.860995 0.254951 0)
(0.835196 0.179011 0)
(0.90837 0.381836 0)
(0.885549 0.322918 0)
(0.94713 0.469808 0)
(0.929008 0.430878 0)
(0.975056 0.518336 4.35729e-24)
(0.962507 0.498742 0)
(0.991936 0.533352 3.39087e-24)
(0.984815 0.529479 0)
(0.999257 0.524161 0)
(0.996656 0.531164 0)
(0.999338 0.500059 0)
(1.00005 0.513459 0)
(0.994474 0.468281 0)
(0.997399 0.484779 0)
(0.986466 0.4335 1.48641e-26)
(0.990777 0.451068 0)
(0.976513 0.398246 -2.70956e-26)
(0.981683 0.41585 0)
(0.965347 0.363621 -8.11242e-25)
(0.971057 0.380835 0)
(0.953286 0.329877 -1.43866e-24)
(0.959417 0.346644 0)
(0.940121 0.297292 -8.05816e-23)
(0.946844 0.313412 0)
(0.925063 0.267095 -6.1929e-23)
(0.932732 0.281937 1.53603e-22)
(0.915804 0.253758 -1.01555e-22)
(0.826137 0.276473 1.12715e-23)
(0.838663 0.262885 8.13152e-23)
(0.808774 0.297531 7.31043e-22)
(0.815951 0.288174 6.50601e-23)
(0.826763 0.348974 -7.79798e-22)
(0.808608 0.326918 8.35954e-22)
(0.816308 0.340195 2.78127e-23)
(0.85103 0.358988 -1.84739e-25)
(0.838787 0.35453 1.66855e-22)
(0.872647 0.369212 -1.35676e-22)
(0.862553 0.363693 0)
(0.886573 0.3848 -2.16469e-24)
(0.880712 0.376184 0)
(0.892582 0.40509 0)
(0.890529 0.394542 0)
(0.891819 0.426647 -5.95479e-26)
(0.892976 0.415949 0)
(0.884871 0.445828 2.52279e-24)
(0.889126 0.436737 0)
(0.87131 0.459039 0)
(0.878965 0.453421 0)
(0.850377 0.461793 0)
(0.861806 0.462042 0)
(0.821575 0.448502 0)
(0.836962 0.457521 0)
(0.785126 0.413168 4.98329e-24)
(0.804247 0.433934 0)
(0.742318 0.350735 0)
(0.764381 0.385553 0)
(0.695721 0.258835 0)
(0.719271 0.30844 0)
(0.649305 0.139536 0)
(0.672185 0.202249 0)
(0.608303 0.000283931 0)
(0.62776 0.07172 0)
(0.578274 -0.14662 6.33683e-24)
(0.591628 -0.0731533 0)
(0.563461 -0.285631 0)
(0.568719 -0.218128 0)
(0.569414 -0.399551 1.19168e-24)
(0.563341 -0.346874 0)
(0.602837 -0.468326 0)
(0.582622 -0.440704 0)
(0.66054 -0.489756 2.39809e-22)
(0.62967 -0.483747 0)
(0.725317 -0.492192 -1.74644e-21)
(0.693468 -0.49095 1.1372e-22)
(0.75881 -0.53091 -2.34224e-21)
(0.778649 -0.507528 1.98211e-21)
(0.753748 -0.497211 -1.00116e-22)
(0.804997 0.304119 7.38959e-23)
(0.667963 -0.668794 0)
(0.658114 -0.684426 1.15501e-22)
(0.669419 -0.632043 -2.16145e-21)
(0.695657 -0.581365 -7.67163e-22)
(0.881595 0.21985 -2.76187e-22)
(0.800169 -0.522696 3.35946e-23)
(0.798772 -0.485293 1.60465e-21)
(0.81929 -0.503947 -3.38341e-21)
(0.679864 -0.650521 -2.11911e-21)
(0.739596 -0.555754 -1.3483e-21)
(0.781288 -0.542402 2.27197e-21)
(0.685653 -0.663916 0)
(0.808033 0.330623 -7.82366e-22)
(0.804735 0.307537 -2.45746e-23)
(0.808023 0.307388 -8.74401e-22)
(0.673663 -0.679194 2.31813e-21)
(0.681135 -0.608083 8.99387e-22)
(0.64147 -0.69366 1.23987e-21)
(0.662968 -0.691848 0)
(0.650969 -0.696612 -3.62062e-21)
(0.636796 -0.6515 7.01742e-22)
(0.636472 -0.679202 -7.09145e-22)
(0.655079 -0.554436 8.02142e-22)
(0.643054 -0.609789 -1.50639e-21)
(0.692462 -0.410151 0)
(0.671794 -0.487256 0)
(0.741542 -0.23715 0)
(0.715954 -0.325966 0)
(0.796736 -0.0540208 -1.61809e-23)
(0.768676 -0.145923 0)
(0.852771 0.123529 0)
(0.824962 0.0364736 0)
(0.905325 0.279903 0)
(0.879702 0.205208 0)
(0.950769 0.402843 0)
(0.929163 0.346126 0)
(0.98581 0.485433 0)
(0.96974 0.449317 0)
(1.00885 0.528149 -4.35729e-24)
(0.99884 0.511447 0)
(1.02046 0.537926 0)
(1.01597 0.536552 0)
(1.02283 0.524665 0)
(1.02264 0.533541 0)
(1.01867 0.497761 0)
(1.0214 0.512413 0)
(1.0104 0.464227 0)
(1.01492 0.481492 0)
(0.999797 0.428415 2.21343e-26)
(1.00531 0.446425 0)
(0.987962 0.392568 -3.10673e-26)
(0.993988 0.410419 0)
(0.975507 0.357557 8.11254e-25)
(0.981787 0.374939 0)
(0.962694 0.323507 0)
(0.969125 0.340425 0)
(0.949469 0.290343 0)
(0.956089 0.306834 0)
(0.935086 0.258808 1.28697e-22)
(0.942235 0.274377 0)
(0.917653 0.230703 -2.90564e-22)
(0.926351 0.244497 5.42855e-23)
(0.896015 0.206933 3.58138e-22)
(0.907226 0.21839 -1.23948e-23)
(0.838242 0.239452 -9.22332e-23)
(0.868524 0.210376 6.13248e-23)
(0.852953 0.224939 0)
(0.81401 0.264976 0)
(0.82501 0.253161 0)
(0.802259 0.280052 -4.40993e-23)
(0.806298 0.274063 3.28604e-22)
(0.805591 0.281624 5.36244e-22)
(0.802011 0.282698 -7.87002e-22)
(0.819752 0.35872 -3.03602e-24)
(0.81218 0.347335 -8.27385e-22)
(0.840682 0.370636 -1.84514e-25)
(0.829652 0.365834 0)
(0.861902 0.378358 -4.66667e-24)
(0.85179 0.374413 0)
(0.876608 0.389811 -5.50036e-26)
(0.870303 0.383386 0)
(0.882796 0.406201 0)
(0.880754 0.397522 0)
(0.881252 0.424403 -7.38977e-26)
(0.882914 0.415341 0)
(0.872831 0.440326 0)
(0.877881 0.43289 0)
(0.857469 0.450003 0)
(0.866044 0.446198 0)
(0.834665 0.448932 0)
(0.847021 0.45112 0)
(0.804161 0.431782 0)
(0.820361 0.442711 0)
(0.766437 0.39301 0)
(0.786125 0.415406 0)
(0.723074 0.328171 -4.39908e-24)
(0.745304 0.36402 0)
(0.67701 0.235604 0)
(0.700133 0.285279 0)
(0.632566 0.118051 -5.27964e-24)
(0.654268 0.179558 0)
(0.594972 -0.0167387 0)
(0.612576 0.0521306 0)
(0.569325 -0.156761 -6.33683e-24)
(0.580377 -0.0869932 0)
(0.560317 -0.286627 0)
(0.562409 -0.224059 0)
(0.574528 -0.387633 1.14859e-24)
(0.56404 -0.341988 0)
(0.617423 -0.442878 0)
(0.592428 -0.421446 0)
(0.681931 -0.456956 -3.40995e-23)
(0.648147 -0.453403 0)
(0.747739 -0.462136 -6.07341e-22)
(0.7161 -0.458498 -3.15402e-22)
(0.775135 -0.471117 5.01369e-22)
(0.81889 -0.541716 2.14246e-21)
(0.838066 -0.525119 1.83296e-21)
(0.883875 0.196509 0)
(0.68883 -0.671534 -6.53078e-21)
(0.675743 -0.683201 2.14693e-21)
(0.691987 -0.629508 2.1472e-21)
(0.722242 -0.581116 3.85532e-22)
(0.812957 0.277125 -1.01598e-21)
(0.698929 -0.64661 0)
(0.763186 -0.563142 0)
(0.70196 -0.658528 -2.0555e-21)
(0.800598 -0.558475 0)
(0.855662 -0.547769 0)
(0.836117 -0.562838 -2.16813e-21)
(0.699741 -0.665814 7.22732e-21)
(0.909872 0.195352 -6.01386e-22)
(0.898592 0.184078 1.51607e-22)
(0.68587 -0.67441 8.67207e-23)
(0.705961 -0.60617 5.00337e-22)
(0.654786 -0.701921 -2.16842e-21)
(0.672684 -0.681856 -9.65069e-22)
(0.664301 -0.692935 2.22398e-21)
(0.643133 -0.697907 -5.4255e-23)
(0.647137 -0.704668 -6.25391e-22)
(0.651107 -0.644946 -5.92994e-24)
(0.644263 -0.678473 6.65787e-22)
(0.681219 -0.537136 0)
(0.66357 -0.597461 0)
(0.727835 -0.386152 0)
(0.702966 -0.466035 0)
(0.783342 -0.209654 0)
(0.754874 -0.299918 0)
(0.842225 -0.0253829 1.68202e-23)
(0.812654 -0.117512 0)
(0.899784 0.150934 0)
(0.871449 0.0647353 0)
(0.951809 0.30421 0)
(0.926727 0.231298 0)
(0.994556 0.422256 0)
(0.974556 0.368186 0)
(1.02513 0.498796 -5.50781e-24)
(1.01147 0.465786 0)
(1.0427 0.535393 4.4359e-24)
(1.0355 0.521689 0)
(1.04869 0.539968 0)
(1.04698 0.541036 0)
(1.04595 0.52291 0)
(1.04822 0.5335 0)
(1.03753 0.49359 0)
(1.04228 0.509293 0)
(1.02592 0.458704 0)
(1.032 0.476536 0)
(1.01281 0.422229 2.89115e-26)
(1.01948 0.440505 0)
(0.999176 0.386106 -3.45829e-26)
(1.00602 0.40406 0)
(0.985493 0.351007 -7.30206e-25)
(0.992324 0.368419 0)
(0.971948 0.316917 0)
(0.978692 0.333857 0)
(0.958507 0.283587 0)
(0.965195 0.300184 0)
(0.944648 0.251237 -8.45875e-25)
(0.951576 0.267302 0)
(0.928964 0.221385 -2.55975e-24)
(0.936712 0.236039 0)
(0.919469 0.208187 -6.75893e-23)
(0.854055 0.201574 -6.08766e-23)
(0.886517 0.173662 3.20921e-23)
(0.870242 0.187295 0)
(0.824781 0.229088 0)
(0.83877 0.215785 -7.84072e-23)
(0.804887 0.249487 0)
(0.813195 0.240648 0)
(0.79992 0.257008 5.73545e-22)
(0.800405 0.254981 0)
(0.810974 0.249837 1.09842e-21)
(0.803445 0.255281 -4.49066e-22)
(0.822264 0.24106 -4.91164e-23)
(0.811174 0.330788 -1.143e-22)
(0.824096 0.269194 -8.44136e-23)
(0.815249 0.303419 1.05109e-21)
(0.815602 0.365825 -2.45154e-25)
(0.811504 0.351301 1.13149e-22)
(0.831924 0.381099 -1.78432e-25)
(0.82278 0.375264 0)
(0.851547 0.387566 -1.10109e-25)
(0.841903 0.384701 0)
(0.866537 0.395144 -4.4448e-26)
(0.859973 0.390832 0)
(0.873102 0.407247 0)
(0.870935 0.400673 0)
(0.871134 0.421652 -8.90244e-26)
(0.873118 0.414424 0)
(0.861553 0.43406 -2.07648e-24)
(0.867251 0.428379 0)
(0.844679 0.440118 0)
(0.85403 0.43815 0)
(0.820328 0.435264 0)
(0.833444 0.439355 0)
(0.788501 0.414416 0)
(0.805318 0.427157 0)
(0.749947 0.37251 -3.21159e-24)
(0.76997 0.396367 0)
(0.706554 0.305735 4.39908e-24)
(0.728678 0.342358 0)
(0.661581 0.21314 0)
(0.684004 0.26255 0)
(0.619514 0.0980111 5.27964e-24)
(0.63987 0.157983 0)
(0.585427 -0.0317979 0)
(0.601157 0.0342717 0)
(0.564268 -0.16441 -3.96417e-24)
(0.572935 -0.0986494 0)
(0.561476 -0.284007 0)
(0.560167 -0.226999 0)
(0.584316 -0.371212 6.68354e-24)
(0.569261 -0.33285 0)
(0.636029 -0.412991 0)
(0.606896 -0.397716 0)
(0.704788 -0.422469 1.9371e-24)
(0.669655 -0.419743 0)
(0.76876 -0.433277 -1.50158e-22)
(0.738393 -0.425825 -1.46241e-22)
(0.817823 -0.464065 -5.76395e-22)
(0.794907 -0.446369 9.26621e-22)
(0.857242 -0.508031 -1.45394e-21)
(0.838189 -0.485117 1.43304e-21)
(0.872629 -0.570873 -2.12532e-21)
(0.894134 -0.555272 0)
(0.875704 -0.531824 0)
(0.693105 -0.666578 5.12573e-21)
(0.67887 -0.671108 -2.83374e-21)
(0.713034 -0.627345 -1.89964e-21)
(0.745764 -0.58475 0)
(0.911663 -0.579741 0)
(0.889173 -0.594178 2.24087e-21)
(0.716093 -0.643924 7.19146e-23)
(0.782961 -0.575797 3.2987e-22)
(0.714046 -0.65588 -2.03785e-21)
(0.817384 -0.577623 3.61703e-23)
(0.873018 0.164355 -9.80366e-23)
(0.901912 0.161552 -5.71077e-24)
(0.889848 0.151239 0)
(0.707211 -0.661811 -2.06065e-21)
(0.852098 -0.585042 -1.41088e-22)
(0.693896 -0.661696 1.8777e-21)
(0.837261 0.229013 8.54005e-23)
(0.679422 -0.662134 0)
(0.728636 -0.606487 9.80968e-24)
(0.660612 -0.688182 -1.40467e-21)
(0.665231 -0.661995 0)
(0.664939 -0.674806 2.76445e-21)
(0.64973 -0.707877 5.28439e-22)
(0.65495 -0.700029 -5.3983e-22)
(0.64982 -0.695896 0)
(0.647492 -0.70755 0)
(0.671136 -0.631666 5.86755e-24)
(0.657657 -0.67078 0)
(0.712704 -0.514937 7.11794e-24)
(0.689753 -0.579257 0)
(0.767679 -0.358574 0)
(0.739002 -0.440675 0)
(0.828842 -0.179797 0)
(0.797869 -0.270882 0)
(0.890828 0.00439389 1.95107e-25)
(0.860011 -0.0874021 0)
(0.949256 0.178444 0)
(0.920752 0.0936282 0)
(0.999953 0.327511 0)
(0.975819 0.25694 0)
(1.03917 0.439652 0)
(1.02119 0.388709 0)
(1.06454 0.509441 5.5078e-24)
(1.05365 0.479837 0)
(1.07609 0.539668 -4.4359e-24)
(1.07194 0.529029 0)
(1.07618 0.539207 -3.45203e-24)
(1.07736 0.542591 0)
(1.06827 0.518773 0)
(1.07301 0.530848 0)
(1.05568 0.487534 0)
(1.06239 0.50404 0)
(1.04087 0.451758 0)
(1.04844 0.469934 0)
(1.0254 0.415009 3.51435e-26)
(1.03316 0.433368 0)
(1.01008 0.378924 -3.77031e-26)
(1.0177 0.396833 0)
(0.995254 0.34399 7.30206e-25)
(1.0026 0.361311 0)
(0.981023 0.31009 1.04933e-24)
(0.98806 0.326935 0)
(0.967345 0.276866 0)
(0.974104 0.293426 0)
(0.953892 0.244219 6.02895e-25)
(0.960558 0.260487 0)
(0.93962 0.213146 -3.04545e-23)
(0.946687 0.228466 0)
(0.922838 0.185268 3.43537e-22)
(0.931131 0.198989 8.48807e-23)
(0.91281 0.17298 -1.12226e-22)
(0.84028 0.191896 0)
(0.856344 0.17815 0)
(0.81338 0.215885 0)
(0.825637 0.204806 7.77831e-23)
(0.799563 0.229315 0)
(0.804498 0.224245 0)
(0.802049 0.228327 -2.94845e-22)
(0.798759 0.230733 0)
(0.820729 0.212797 -3.82725e-22)
(0.809441 0.222236 2.57372e-22)
(0.839149 0.257678 2.29192e-21)
(0.856023 0.213868 -1.15068e-21)
(0.85446 0.184037 1.20036e-21)
(0.835838 0.199719 3.72053e-22)
(0.818528 0.326865 -4.04739e-24)
(0.826711 0.295324 -4.84817e-22)
(0.815005 0.369727 6.71735e-24)
(0.814777 0.351479 0)
(0.825339 0.389651 -1.68156e-25)
(0.818852 0.382045 0)
(0.841996 0.396317 -9.90052e-26)
(0.833449 0.393878 0)
(0.856503 0.40069 2.26427e-24)
(0.849966 0.398268 0)
(0.863425 0.408374 0)
(0.861077 0.40404 0)
(0.861372 0.418573 -1.045e-25)
(0.863491 0.413384 0)
(0.851001 0.427179 2.07648e-24)
(0.857167 0.423369 0)
(0.832942 0.429526 -1.94179e-24)
(0.842908 0.429419 0)
(0.80738 0.420945 0)
(0.821084 0.426894 0)
(0.774614 0.396594 0)
(0.791849 0.411033 0)
(0.735678 0.351891 6.0381e-25)
(0.755805 0.37702 0)
(0.692753 0.283673 0)
(0.714521 0.320806 0)
(0.649322 0.191643 0)
(0.670833 0.240485 0)
(0.609896 0.0794971 0)
(0.628802 0.137667 0)
(0.579393 -0.044859 0)
(0.593224 0.0181799 0)
(0.562957 -0.169411 3.96416e-24)
(0.569069 -0.10804 0)
(0.567054 -0.277511 0)
(0.56196 -0.226738 0)
(0.599057 -0.350167 -4.58024e-24)
(0.579267 -0.319242 0)
(0.658549 -0.380279 0)
(0.626061 -0.369909 0)
(0.728945 -0.388361 -1.93729e-24)
(0.693879 -0.38488 0)
(0.789691 -0.406159 0)
(0.761317 -0.3947 0)
(0.836087 -0.44333 -5.76956e-23)
(0.814185 -0.422848 5.76027e-23)
(0.876032 -0.489757 2.0385e-22)
(0.856416 -0.466089 -2.81243e-22)
(0.914612 -0.537693 -7.61387e-22)
(0.895157 -0.51347 7.66979e-22)
(0.929274 -0.603328 -2.65547e-21)
(0.952353 -0.586126 2.43887e-21)
(0.933201 -0.562427 0)
(0.675712 -0.653538 3.56069e-21)
(0.661719 -0.649164 0)
(0.904978 -0.61747 0)
(0.945953 -0.626312 2.46708e-21)
(0.971098 -0.60959 -2.12221e-21)
(0.731215 -0.627937 8.86844e-22)
(0.765366 -0.593388 0)
(0.729067 -0.644822 2.80072e-21)
(0.799202 -0.592472 -3.27114e-22)
(0.859684 0.154703 -6.9188e-23)
(0.877302 0.14136 1.01589e-22)
(0.721868 -0.65605 0)
(0.832433 -0.598479 0)
(0.708871 -0.660768 -1.91958e-21)
(0.867427 -0.607407 1.66011e-22)
(0.690401 -0.657424 -3.66694e-21)
(0.876125 0.166244 -1.21275e-21)
(0.653823 -0.63582 4.63397e-21)
(0.66801 -0.644484 3.44871e-23)
(0.919994 -0.640173 3.33023e-21)
(0.962486 -0.648138 3.73667e-21)
(0.989912 -0.631822 -3.34173e-21)
(0.642103 -0.621425 -1.66205e-21)
(0.640652 -0.62721 -1.49453e-21)
(0.916727 0.150688 -6.22807e-23)
(0.906231 0.139399 5.08017e-24)
(0.62868 -0.608548 1.31402e-21)
(0.747772 -0.610964 3.95656e-22)
(0.651989 -0.661034 -1.55515e-21)
(0.648307 -0.644472 2.25978e-21)
(0.650737 -0.691791 4.64311e-22)
(0.652484 -0.677002 -1.75977e-21)
(0.649074 -0.708432 0)
(0.648929 -0.703274 0)
(0.662463 -0.687003 5.09878e-24)
(0.653223 -0.703831 0)
(0.697075 -0.612504 -6.19278e-24)
(0.677196 -0.656562 0)
(0.749222 -0.488152 -7.11794e-24)
(0.721391 -0.555829 0)
(0.811697 -0.327728 0)
(0.77963 -0.411417 0)
(0.877717 -0.147929 0)
(0.844626 -0.239207 0)
(0.942134 0.0349849 1.0527e-25)
(0.910397 -0.055903 0)
(1.00068 0.205659 0)
(0.972404 0.122786 0)
(1.04917 0.349372 0)
(1.02644 0.281712 0)
(1.08399 0.454622 0)
(1.06846 0.407263 0)
(1.1034 0.517077 0)
(1.09562 0.491109 0)
(1.10849 0.540849 0)
(1.10757 0.533259 0)