/*--------------------------------*- C++ -*----------------------------------*\
  =========                 |
  \\      /  F ield         | OpenFOAM: The Open Source CFD Toolbox
   \\    /   O peration     | Website:  https://openfoam.org
    \\  /    A nd           | Version:  10
     \\/     M anipulation  |
\*---------------------------------------------------------------------------*/
FoamFile
{
    format      ascii;
    class       surfaceScalarField;
    location    "37.5";
    object      phi;
}
// * * * * * * * * * * * * * * * * * * * * * * * * * * * * * * * * * * * * * //

dimensions      [0 3 -1 0 0 0 0];

internalField   nonuniform List<scalar> 
12623
(
0.0981353
0.0237012
-0.0375581
-0.0842784
0.0768409
-0.0393873
0.0606818
0.111227
-0.0152779
-0.101875
0.00592574
-0.00746212
0.112585
0.00610403
-0.109201
-0.000766921
0.00306971
0.106898
-0.106531
-0.0101318
-0.00362033
0.0474721
-0.0536792
0.00982743
-0.0572434
0.0536231
0.0232784
-0.0118317
-0.0114466
0.00569797
-0.00645944
0.0240399
0.0858765
-0.0394458
-0.0464307
-0.058423
0.0470596
0.0972398
-0.0273161
-0.0179389
0.0202927
0.0249622
0.00312802
0.00536961
-0.0358137
-0.0236516
0.00884082
0.00175629
-0.00115803
-0.0063718
0.00577354
0.000766081
-0.00438596
0.00537617
-0.00369682
0.00330487
0.00241243
-0.0126316
-0.00191558
0.0121347
-0.0297112
0.0109684
0.0211552
-0.0296051
-0.0127376
0.00398266
0.0171365
-0.0165768
-0.00454237
0.00253825
0.00240753
-0.000963114
-0.0270539
0.0467287
-0.0426612
0.00507063
0.0429602
0.00709638
-0.0483642
-0.00139339
-0.0548895
0.00532007
0.0546401
-0.0756807
0.0428096
-0.0429665
0.0758376
-0.0758035
-0.0423726
0.0424953
-0.0782411
0.078744
-0.0397107
0.0392079
-0.0776868
0.0422553
-0.114787
0.000274654
0.0056978
0.108815
-0.00100569
-0.111825
-0.00195716
0.110812
-0.110089
-0.00312899
0.00777128
0.105447
0.00371904
-0.109986
-0.00382228
-0.117293
0.00961113
0.111401
-0.112642
-0.00437608
0.100675
-0.00217229
-0.107843
0.00934005
0.00397232
0.00933695
0.0873661
-0.106077
0.00362042
0.100284
-0.107301
-0.00190443
0.0372417
-0.0371373
0.0786395
-0.0983686
0.0207621
-0.0209695
0.098576
-0.0310131
-0.0930489
0.0256934
-0.0179653
-0.103844
-0.102955
-0.00828225
0.101106
-0.100158
-0.0179732
-0.0735649
0.0151271
0.076411
0.0559312
0.00402195
-0.0779263
-0.0646784
0.0272824
0.0933271
-0.0145878
0.0912132
-0.0768256
0.000200194
-0.0752443
0.0722597
0.0139213
-0.0119507
-0.0742303
0.016812
0.0699328
-0.0144851
-0.0108397
0.00735766
0.0807301
-0.0772481
-0.0830121
0.0826995
-0.0105271
0.0798625
-0.0107041
0.0121531
-0.0813115
0.0725584
-0.0720172
-0.0377009
0.0371597
-0.0407045
0.0746973
0.0385656
-0.0704197
-0.0321283
0.0305308
-0.0697027
-0.0224694
0.0217525
-0.0688599
-0.0106978
0.00985504
-0.0690133
0.0037904
-0.00363703
-0.0704711
0.0188096
-0.0173519
-0.0718879
0.0312329
-0.0298161
-0.0747556
0.0398072
-0.0369394
0.0428221
-0.0769739
-0.0406039
0.0746964
-0.0752646
-0.0401362
-0.0400316
0.0745633
0.0401656
0.0756949
-0.0410302
-0.0749866
-0.0379789
-0.0748696
-0.0322453
-0.0730502
-0.0242889
-0.0725761
-0.011172
-0.0726338
0.00384815
-0.0730561
0.0192319
-0.0748747
0.0330515
-0.0759074
0.04084
-0.0788144
0.0457291
0.0395772
0.0755341
-0.0394164
0.075503
0.0386375
0.042492
-0.0797983
-0.0396676
-0.0799622
0.0436398
0.0394844
0.0753344
-0.0392846
0.0746861
0.0403013
0.0405813
-0.0806274
-0.0397522
-0.0817109
0.04233
0.041103
0.0738394
-0.039608
0.0399856
0.0397214
-0.0822479
-0.0381009
-0.0810357
0.0390462
0.0731396
-0.0416728
-0.0443443
0.0745175
0.0390813
-0.0408551
-0.0804741
0.0404678
-0.0824221
0.0747145
-0.0757455
-0.038577
-0.0710993
0.0709539
-0.044199
-0.0380575
0.0777134
-0.0786216
-0.0385082
-0.0373168
0.0795368
-0.0800814
-0.0395916
-0.0401149
0.0803356
-0.0789272
-0.0336536
-0.0377248
0.0784467
-0.0767652
-0.0128535
-0.0247694
0.0764865
-0.0759525
0.0186979
0.00356948
0.0763927
-0.0766991
0.0411463
0.0334917
0.0769108
-0.0792682
0.0459972
0.0459407
0.0797103
-0.0795878
0.0389237
0.0427721
-0.0789258
0.0398058
-0.0816012
0.0778195
-0.0359705
0.0806648
-0.0408575
-0.0806624
-0.0390373
-0.0761502
0.071908
-0.0363617
-0.0379983
-0.0710878
0.0668683
-0.0255967
-0.0361192
-0.0671564
0.0662824
-0.00276299
-0.0176399
-0.0673989
0.0687406
0.0204107
0.00873853
-0.0702479
0.0725126
0.034895
0.0290235
-0.0742683
0.0759487
0.0384852
0.0368099
-0.0760716
0.07783
0.0385429
0.0385146
-0.0765096
0.0413181
0.041306
0.0406862
-0.041699
0.0755303
0.0768131
-0.0378074
0.0670623
-0.0417137
-0.0776681
0.0404561
-0.0444972
-0.0796386
-0.0812201
0.0794123
-0.0390497
-0.0432404
0.0446951
-0.0821171
-0.0842583
-0.0402022
0.0401227
-0.0432614
-0.0745294
-0.0758579
0.0775664
0.0387476
0.0375266
-0.0732618
0.0854703
-0.083767
0.0375046
0.0674775
-0.0744652
-0.0372112
0.0688013
-0.0391312
0.0836468
0.0390652
-0.0802762
0.0763467
-0.0793092
-0.0356144
-0.0361761
0.0816792
-0.0825161
-0.0376713
-0.0349468
0.084651
-0.0848464
-0.0393963
-0.03798
0.0851151
-0.0846101
-0.0341586
-0.0374561
0.0830769
-0.0815728
-0.0143576
-0.0263025
0.0795185
-0.0786045
0.0177839
0.0015152
0.077277
-0.0773482
0.0412175
0.0321643
0.0771551
-0.0767994
0.0456415
0.0457477
0.0765476
-0.077927
0.0403032
0.0425202
0.0394452
-0.0771245
0.0755135
-0.0343595
-0.0367495
-0.0720329
0.0695422
-0.033871
-0.0345177
-0.0648037
0.0649496
-0.0257426
-0.0313808
-0.0629212
0.0646969
-0.00453873
-0.0156115
-0.0662595
0.0680725
0.0185978
0.00717594
-0.0715388
0.0734925
0.0329413
0.0255572
-0.0762309
0.0770947
0.0376214
0.0340716
-0.0786023
0.0793853
0.0377599
0.0370069
-0.0803927
0.0804033
0.0413075
0.0402986
0.0388917
0.0370043
-0.0316771
0.0702031
0.0766801
0.0324013
0.0651364
-0.0287365
0.0677865
0.045715
-0.0430692
-0.0869042
0.0467952
-0.0831973
-0.0462824
-0.0766176
-0.073712
0.0747389
0.0377207
-0.0696745
0.0334891
-0.0380095
0.0336662
-0.0689186
-0.0413869
-0.071152
-0.0886676
0.0854596
-0.0398612
-0.0447351
0.0457911
-0.0879601
-0.0922884
-0.0411142
0.0343448
-0.0313021
0.0755967
0.0821553
0.0358364
-0.0270322
0.0283264
0.0638422
0.062441
-0.0631927
-0.0279847
0.0633624
-0.0279537
-0.0869104
0.0381098
0.0878658
-0.0861679
0.036762
-0.0797634
0.069676
-0.0733398
-0.0335473
-0.0326479
0.0771252
-0.0810575
-0.0316822
-0.0323908
0.0818822
-0.0842219
-0.0353316
-0.0341221
0.0862834
-0.0875966
-0.038083
-0.0359185
0.0889115
-0.0885835
-0.0344866
-0.0361412
0.0883486
-0.0867283
-0.015978
-0.0265374
0.0847316
-0.0833798
0.016432
-0.000481441
0.0812442
-0.0810677
0.0410409
0.0300287
0.0788452
-0.0781171
0.0449134
0.0435252
0.0765954
-0.0766094
0.0403172
0.0409985
0.0375746
-0.0831143
0.0798395
-0.035775
-0.0378569
-0.0770894
0.0746498
-0.0319199
-0.0339994
-0.0703799
0.0675552
-0.0310462
-0.0302478
-0.0637298
0.0622206
-0.0242334
-0.0275554
-0.0617972
0.0628072
-0.0055487
-0.0151881
-0.0647226
0.0674411
0.0158793
0.00526053
-0.0702328
0.0731994
0.0299747
0.0227655
-0.0757351
0.0780365
0.0353199
0.0315359
-0.080472
0.0799095
0.0383225
0.0345714
-0.0821159
0.0844213
0.039002
0.0380921
0.0371452
0.0314229
-0.0294821
0.0682623
0.076801
0.0666309
-0.0656216
0.0296133
0.0464004
-0.0838066
-0.0442812
-0.0737233
0.044337
-0.0426935
-0.093932
0.0449954
-0.0886185
-0.0320781
0.0264807
-0.0633212
-0.0367294
-0.0665007
-0.0206631
0.0212676
0.0632378
-0.0208404
0.0635397
0.0299288
-0.0267471
0.072415
0.029606
0.0824781
0.0849756
-0.0845358
0.0363222
0.0348373
0.088248
0.0649554
-0.0657558
-0.0271844
0.0628471
-0.0258453
-0.0611189
0.0219779
-0.0175651
0.0113098
-0.0548635
-0.0233483
-0.057538
0.0876062
0.036096
-0.0776441
0.0698038
-0.0748276
-0.0285235
-0.0285999
0.0790337
-0.0803744
-0.0303415
-0.0281847
0.0838655
-0.0857811
-0.033416
-0.030631
0.0882106
-0.0905335
-0.0357602
-0.033489
0.0923304
-0.0933795
-0.0334376
-0.0343442
0.0933345
-0.0920412
-0.0172713
-0.0265823
0.089909
-0.0873704
0.0138934
-0.00261363
0.0851098
-0.0831042
0.0390353
0.0277681
0.081405
-0.079736
0.0432444
0.0418261
0.0780539
-0.0759381
0.0382015
0.0393163
0.0739373
-0.0695945
0.0333778
0.0355738
0.0665252
-0.0627158
0.0258039
0.0304199
0.0575663
-0.053457
0.00720053
0.0168284
-0.0904728
0.0865895
-0.0359779
0.093412
-0.0972286
-0.0388769
-0.038175
-0.0834984
0.0806402
-0.0329168
-0.0347657
-0.0768879
0.074582
-0.029614
-0.0302471
-0.071036
0.0673667
-0.027377
-0.0267018
-0.0641815
0.0619475
-0.0219995
-0.0243701
-0.0612155
0.0619201
-0.00625329
-0.0144561
-0.0637264
0.0664495
0.0131562
0.00345424
-0.0694222
0.0726614
0.0267356
0.0197928
-0.0755323
0.0781946
0.0326576
0.028665
-0.0798694
0.0828186
0.0353733
0.0328966
-0.0832991
0.0843289
0.0379723
0.0376116
0.0369382
0.0212504
-0.021114
0.0681259
0.0713043
0.0667844
-0.04203
0.0423386
-0.0942407
-0.100171
-0.0390872
0.000645203
-0.00509778
-0.0504109
-0.0501013
-0.00271058
0.0433947
-0.0822059
-0.040951
-0.0695017
-0.0193143
0.061321
0.0314708
0.0857414
0.0874569
-0.0870272
0.0358925
0.0893662
0.0329281
0.0411722
-0.0874521
-0.0290929
-0.0607561
0.03654
-0.0359866
-0.100725
0.0353889
-0.0930896
-0.0106103
-0.0520254
-0.0115295
0.00884957
-0.047731
-0.011841
-0.0497898
0.0912412
0.0331029
-0.0752004
0.0669419
-0.0699478
-0.0241786
-0.0635388
0.0621089
-0.0178844
-0.0224422
0.0735677
-0.0771269
-0.0249643
-0.02498
0.0790891
-0.0816123
-0.0278183
-0.0262224
0.0841311
-0.0869222
-0.0306249
-0.0281122
0.0897541
-0.0926645
-0.0328497
-0.0306571
0.0951948
-0.0971261
-0.0315063
-0.031814
0.0978323
-0.0969953
-0.0181083
-0.0258762
0.0947673
-0.0916068
0.0107329
-0.00484164
0.0885289
-0.0857595
0.0362659
0.0246903
0.0834999
-0.0813743
0.0411189
0.0395665
0.079296
-0.0767507
0.0356562
0.0372381
0.072876
-0.0696169
0.0301187
0.0316991
0.0646179
-0.0596798
0.0208657
0.0254209
0.0555826
-0.05273
0.00434794
0.0127313
0.0518573
-0.0537912
-0.00990711
-0.00358327
-0.0990896
0.0953632
-0.0351506
0.103096
-0.105944
-0.0331391
-0.0350804
-0.0909489
0.0874331
-0.0324622
-0.0337606
-0.0830203
0.0804394
-0.0303358
-0.030353
-0.0773995
0.0746783
-0.0268928
-0.0272072
-0.0717357
0.0681937
-0.023835
-0.0237591
-0.064937
0.062358
-0.0194204
-0.0211134
-0.0612604
0.0616501
-0.00664304
-0.0133585
-0.0632569
0.0659261
0.010487
0.00184741
-0.0689767
0.0724025
0.0233098
0.0167422
-0.0755195
0.0784974
0.0296797
0.025548
-0.0814241
0.0827351
0.0340622
0.02997
-0.0850599
0.0866869
0.0363453
0.0352868
0.0365978
-0.0290253
0.0269224
-0.0986219
-0.106102
-0.0288673
-0.0175464
0.020088
-0.0523314
-0.0576597
-0.0136779
0.0916989
0.0294202
0.01895
-0.0181007
0.0848921
0.0896794
0.0121999
-0.013788
0.0740031
0.0765772
0.0122593
-0.0114422
0.0673088
0.0697756
0.0111949
-0.0115703
0.0636132
0.0665371
0.0119128
-0.0119099
0.0613181
0.0638822
-0.0114986
0.0616977
0.037717
-0.0787506
-0.0337623
-0.0648324
0.0312678
-0.083331
-0.0162239
-0.0551425
0.022062
-0.0882291
0.00497396
-0.0481498
0.0171545
-0.0198023
-0.103454
0.0114519
-0.0929193
0.0210529
-0.0486958
0.0204777
-0.0163886
-0.0617488
0.0249767
-0.0568304
0.0625871
-0.064135
-0.0163365
0.0620581
-0.0109697
-0.0712458
0.0671623
-0.0703885
-0.0209523
-0.0194149
0.0744319
-0.0765109
-0.0228853
-0.0209366
0.0796195
-0.0821747
-0.0252632
-0.0231138
0.0847884
-0.0877526
-0.0276607
-0.0254985
0.0908216
-0.0941226
-0.0295488
-0.0275881
0.0972237
-0.0999356
-0.0287944
-0.0287128
0.101437
-0.101223
-0.0183224
-0.0243747
0.0990974
-0.0953634
0.00699893
-0.00696718
0.091282
-0.0874383
0.0324222
0.0206088
0.0844273
-0.0817666
0.0384582
0.0365555
0.0792601
-0.0762858
0.0326818
0.0347316
0.0727451
-0.0682585
0.0256321
0.0281584
0.0634357
-0.0585785
0.0160085
0.0205981
0.0551368
-0.0539937
0.00320479
0.00928955
0.0551323
-0.058924
-0.00611542
-0.00244461
0.0630219
-0.0665102
-0.0129003
-0.00957999
-0.108024
0.104297
-0.0294123
0.110706
-0.110811
-0.0196974
-0.0261851
-0.0994342
0.0947715
-0.0304879
-0.0302176
-0.0901961
0.0872098
-0.0294759
-0.0291853
-0.0836329
0.0804681
-0.027171
-0.0267761
-0.0777531
0.075134
-0.0242737
-0.0244922
-0.07254
0.0693746
-0.0206696
-0.0211651
-0.0662287
0.0634429
-0.0166347
-0.0179675
-0.0619869
0.0619936
-0.00664974
-0.0119025
-0.0633329
0.0658445
0.0079754
0.000508065
-0.0688526
0.0723315
0.0198309
0.0137342
-0.0755756
0.0787699
0.0264854
0.0223039
-0.0815166
0.0842324
0.0313465
0.0272233
-0.0874541
0.0876811
0.0361183
0.0320651
-0.0878138
0.0902218
0.0334845
0.0364652
-0.0916658
0.0955115
0.0255744
0.0314841
0.0210465
0.00300792
-0.000292589
0.0821767
-0.00709978
0.0973935
0.0855876
0.000290882
-0.000337895
0.0740501
0.0765755
0.000461535
-0.00207161
0.0689188
0.0698993
0.00194775
-0.00416863
0.0658341
0.0664132
0.00387272
-0.00531203
0.0627574
0.0635863
-0.00801007
0.00153683
-0.096981
-0.107516
-0.0113044
-0.0184352
0.0222838
-0.0655973
-0.0690007
-0.0159448
0.00497253
-0.00449829
0.0615839
0.0613582
0.026754
-0.0742369
-0.0215873
-0.0594689
0.0165101
-0.0777792
0.000264108
-0.0504327
0.00461725
-0.0813945
0.0202473
-0.0473443
-0.00670268
-0.0846797
0.0290776
-0.0527967
-0.00536591
-0.000869924
-0.101281
-0.0143294
-0.0880174
0.0270677
-0.0616144
0.0216957
-0.0708212
-0.0198752
0.0249164
-0.068818
-0.109869
0.112899
-0.00389982
0.00913274
-0.0171151
-0.0932982
-0.104493
0.00375676
-0.0224898
0.0258593
-0.0741907
-0.0725104
0.0698883
-0.0172531
-0.0749835
-0.0200167
0.06322
-0.0630511
-0.00466721
-0.000757117
-0.00113677
0.0634777
0.0614977
0.000965207
-0.0660791
0.0636478
-0.0667982
-0.0131861
-0.0103729
0.0694109
-0.0726607
-0.0177025
-0.0168022
0.0751705
-0.0777103
-0.0203455
-0.0184269
0.0800724
-0.082594
-0.0227416
-0.0207516
0.0852343
-0.088226
-0.0246689
-0.0228582
0.0913553
-0.0948241
-0.02608
-0.0244588
0.0982645
-0.101561
-0.0254977
-0.0252724
0.103831
-0.104451
-0.0177019
-0.0221053
0.102808
-0.0988449
0.00303584
-0.00861034
0.0937656
-0.0884462
0.0271028
0.0155295
0.0840978
-0.0803966
0.034757
0.0322071
0.0771868
-0.0737495
0.0292445
0.0315218
0.070103
-0.0660245
0.0215536
0.0245119
0.0622109
-0.059119
0.0129167
0.0167845
0.0577643
-0.0583628
0.00380325
0.00793483
0.0606728
-0.0634916
-0.00329659
-0.000134583
0.0657843
-0.0684734
-0.0102113
-0.00728732
-0.0145298
-0.113135
0.111624
-0.0181868
-0.01154
-0.107335
0.103235
-0.0253121
-0.0218963
-0.0980661
0.094351
-0.0267729
-0.0250487
-0.0903112
0.0868325
-0.0259972
-0.0251454
-0.0838238
0.0808246
-0.0241718
-0.0237674
-0.0781787
0.0756484
-0.0217435
-0.0218462
-0.0733576
0.0706969
-0.0180089
-0.0188743
-0.0679109
0.0651389
-0.0138626
-0.0151815
-0.0633779
0.0629328
-0.00620465
-0.0101415
-0.063911
0.066161
0.00572537
-0.000470101
-0.0690288
0.072445
0.0164146
0.0108664
-0.0756986
0.0789784
0.0232056
0.0190503
-0.0818776
0.0847874
0.0284366
0.0243241
-0.0874489
0.0898005
0.0337667
0.0294036
-0.0924747
0.0933986
0.0325606
0.033791
-0.0947783
0.0977533
0.0225994
0.0301044
0.0149561
-0.00564974
0.0115494
0.0914938
0.0985257
-0.0116921
0.0115109
0.082358
0.0854449
-0.0111737
0.0105932
0.0746306
0.0769128
-0.00988412
0.00904116
0.0697618
0.0706083
-0.00812066
0.00751017
0.0664446
0.0673337
-0.00585781
0.00333995
0.0652753
0.0652387
0.0635614
0.0105445
-0.0682713
-0.00481963
-0.0543852
-0.00251061
-0.0706513
0.0179873
-0.0481726
-0.0151754
-0.0729217
0.0320855
-0.0503521
-0.0240811
-0.0749281
0.0328522
-0.0585812
-0.0272596
-0.0778729
0.029014
-0.065712
-0.0158457
0.0105314
-0.0991788
-0.0251147
-0.0840293
0.0288531
-0.0718119
0.0247296
-0.0782878
-0.0214252
0.0279159
-0.077377
-0.105335
0.109226
0.00664072
0.0145314
-0.0207541
-0.0929562
-0.100877
0.0100737
-0.0230184
0.0261772
-0.0814466
-0.0794171
0.0774027
-0.0194108
-0.0821848
-0.0202508
0.00265369
-0.00584
0.066664
-1.60045e-05
0.0641673
0.0643516
-0.0650989
-0.0039199
0.0655602
-0.000243361
-0.0603542
0.0661177
-0.0684641
-0.0108396
-0.00935414
0.0710977
-0.0737013
-0.0150989
-0.0141686
0.0759785
-0.0782634
-0.0180607
-0.0161497
0.0804999
-0.082925
-0.0203165
-0.0185151
0.0854973
-0.0883749
-0.0217913
-0.020286
0.0914005
-0.0948184
-0.022662
-0.0214332
0.0983266
-0.101914
-0.02191
-0.0217643
0.104779
-0.106336
-0.0161449
-0.0192406
0.105653
-0.102247
-0.000370323
-0.0092931
0.0968727
-0.0904128
0.0206429
0.0101552
0.0845953
-0.0795816
0.0297432
0.0263896
0.0755895
-0.0719589
0.0256139
0.0275297
0.068774
-0.0658865
0.0186661
0.021327
0.0637989
-0.0627234
0.0118411
0.0146969
0.0628923
-0.0640611
0.00497207
0.0081038
0.0656087
-0.0667506
-0.00215461
0.00141294
0.0683446
-0.0693645
-0.00919138
-0.00569333
0.0716734
-0.07426
-0.0146665
-0.012221
-0.016874
-0.112164
0.112858
-0.00459344
0.00081833
-0.111543
0.108822
-0.0154657
-0.0102253
-0.104878
0.100704
-0.021138
-0.0179527
-0.0968383
0.0930402
-0.0229748
-0.0211826
-0.0897228
0.086548
-0.0228224
-0.0218279
-0.0838133
0.0810823
-0.0214408
-0.0210327
-0.078608
0.0761859
-0.0193214
-0.0193718
-0.0741074
0.0719309
-0.0158324
-0.0167959
-0.0696904
0.0672417
-0.0114139
-0.012941
-0.065365
0.0644514
-0.00529102
-0.00826481
-0.0649038
0.0666958
0.00393338
-0.000922534
-0.0692788
0.0725366
0.0131567
0.00828341
-0.075739
0.0790452
0.0198995
0.0158479
-0.0820115
0.0850268
0.0254214
0.0213577
-0.0878576
0.0908402
0.0307841
0.0265728
-0.0933559
0.0953542
0.0305623
0.0312753
-0.098063
0.0987023
0.02196
0.0273956
0.0117837
-0.00955406
0.0156593
0.100793
0.106956
-0.0199379
0.0213906
0.0900412
0.0942471
-0.0216739
0.0215072
0.0825247
0.0851616
-0.0209548
0.020052
0.0755334
0.0774652
-0.0189161
0.0175743
0.0711036
0.0717442
-0.0161227
0.0139136
0.0686537
0.0687853
-0.0110537
0.00854351
0.0677855
0.0680986
0.0662649
-0.00899781
-0.0617841
0.0142235
-0.0506214
-0.0227594
-0.0630673
0.0330199
-0.0491071
-0.0330918
-0.063911
0.0379533
-0.0554533
-0.0373757
-0.0648121
0.0338676
-0.0634347
-0.0352474
-0.0677402
0.0323229
-0.0691818
-0.0288986
-0.0758848
0.0320333
-0.0759293
-0.0170584
0.0125321
-0.0963511
-0.022482
-0.0875325
0.0303673
-0.0815671
0.0241766
-0.0213255
-0.0850359
0.0277994
-0.0850694
0.0137215
0.0518227
-0.0551285
0.0649739
-0.0663484
-0.00254546
-0.0606693
0.0406465
0.0337442
0.00406132
0.0687279
-0.0702174
-0.00935011
-0.00697463
0.0727092
-0.075074
-0.0127341
-0.0116769
0.0765113
-0.0787834
-0.0157885
-0.0147124
0.0808668
-0.0831671
-0.0180162
-0.0164317
0.0855801
-0.0882623
-0.0191092
-0.0178729
0.0910675
-0.0942568
-0.0194727
-0.0186279
0.0975681
-0.101095
-0.0183829
-0.018453
0.10421
-0.106508
-0.0138465
-0.0161259
0.106991
-0.104963
-0.00239821
-0.00881033
0.100517
-0.0942018
0.0143278
0.00570881
0.0878358
-0.0820488
0.0239562
0.0200236
0.0776227
-0.0740986
0.0220898
0.0231036
0.0715424
-0.0696712
0.0167949
0.0187709
0.0685975
-0.0681732
0.0114168
0.0136232
0.0682569
-0.0686039
0.00531908
0.00818748
0.0690212
-0.0695482
-0.00162761
0.00183023
0.0703926
-0.0715201
-0.00806395
-0.00484891
0.0726845
-0.0748647
-0.0124863
-0.0110565
0.0769894
-0.0803192
-0.0160809
-0.0147492
0.0829419
-0.085892
-0.0183753
-0.0176281
-0.104874
0.107558
0.00395762
0.100791
-0.0986697
0.0104107
0.0059903
-0.108448
0.108822
-0.0049678
-7.18874e-05
-0.107318
0.104769
-0.0129166
-0.00872143
-0.101681
0.0982595
-0.0177169
-0.0148642
-0.0950667
0.091847
-0.0197551
-0.0179899
-0.0889804
0.0861516
-0.0199936
-0.0189613
-0.0836758
0.0812181
-0.0189831
-0.0185569
-0.0789857
0.0767409
-0.0170765
-0.0171395
-0.0748148
0.0729716
-0.0139893
-0.0148698
-0.0712637
0.0693863
-0.0095365
-0.0112331
-0.0677305
0.066564
-0.00412447
-0.00660904
-0.0664301
0.0674977
0.00286576
-0.000788686
-0.0694957
0.0723352
0.0103172
0.00628548
-0.0753449
0.0786228
0.0166217
0.0128382
-0.081659
0.0848065
0.0222739
0.0183215
-0.0877477
0.0908245
0.0277073
0.0236316
-0.0939459
0.0957848
0.0287234
0.0281539
-0.0979294
0.10111
0.0187792
0.025251
-0.10236
0.10516
0.00312558
0.0105336
-0.000560084
-0.0196676
0.0252564
0.095204
0.014256
0.10417
0.101544
-0.027998
0.0283749
0.0896643
0.0915055
-0.0288355
0.0287781
0.0825821
0.084701
-0.0282375
0.0272463
0.0765246
0.0780057
-0.0259214
0.0243083
0.0727167
0.0730691
-0.0225377
0.019854
0.0713373
0.0705559
-0.017791
0.015195
0.0703814
0.0701616
-0.010297
0.00610572
0.0708553
0.0711629
0.00467414
0.0877951
0.0749472
0.0138884
-0.017699
-0.0925405
-0.0946536
0.00987236
-0.0200959
0.0243742
-0.0893141
-0.0887654
-0.0172226
-0.0284979
-0.0560455
0.031905
-0.0495065
-0.109888
-0.00471177
-0.03991
-0.0562491
0.0419205
-0.0530743
0.082625
-0.0641636
0.0152829
0.0123968
-0.0055365
0.0809347
0.0130426
0.0819792
-0.0456968
-0.0555899
0.039328
-0.0609137
-0.0446697
-0.0553897
0.0361432
-0.0672551
-0.0380318
-0.058607
0.0364387
-0.0735872
-0.0288606
-0.0695062
0.0349205
-0.0804826
-0.0216842
-0.0835473
0.032231
-0.0859987
-0.0132058
0.00958122
-0.0910291
-0.0166944
-0.0890519
0.0289522
-0.0896474
-0.0200039
0.0239532
-0.0932634
-0.0169552
-0.0918141
-0.0517214
0.0673488
-0.0687322
-0.00116208
0.00724655
0.0700652
-0.0717594
-0.00765591
-0.00564161
0.0740581
-0.075334
-0.0114581
-0.00937822
0.0776405
-0.0792516
-0.0141775
-0.0124059
0.0811801
-0.083331
-0.0158653
-0.0145032
0.0855257
-0.0879669
-0.016668
-0.0156782
0.0904883
-0.0933389
-0.0166222
-0.0161065
0.0962755
-0.0994479
-0.0152105
-0.0155163
0.102403
-0.104952
-0.0112974
-0.0131708
0.106274
-0.105752
-0.0029199
-0.00748823
0.103007
-0.0981614
0.00948171
0.00296383
0.0925661
-0.0870061
0.0183963
0.0144284
0.0826058
-0.0791681
0.0186521
0.0187033
0.0767649
-0.0749742
0.0150042
0.0163677
0.0737332
-0.0727903
0.010474
0.0123821
0.0721053
-0.0715994
0.0048131
0.00750254
0.0713692
-0.0715169
-0.00147994
0.00160009
0.0720634
-0.0730074
-0.00711999
-0.00430238
0.0748984
-0.0758521
-0.0115326
-0.00916557
0.0777855
-0.079705
-0.0141614
-0.0128158
0.0821504
-0.0855005
-0.0150252
-0.0151827
0.0877072
-0.0903424
-0.01432
-0.0150159
-0.095685
0.0999779
0.00611787
0.093317
-0.0911093
0.00737356
0.00750431
-0.101438
0.103337
0.00205807
0.00453034
-0.104516
0.10424
-0.00469182
-0.00125021
-0.103089
0.101037
-0.0108648
-0.00757091
-0.098668
0.0959475
-0.0149964
-0.0124948
-0.0933344
0.0906274
-0.0170481
-0.0153768
-0.0881641
0.085681
-0.0175105
-0.0164981
-0.0834671
0.0812666
-0.0167825
-0.016343
-0.0792883
0.0772852
-0.0150734
-0.0151613
-0.0755284
0.0738878
-0.0123487
-0.0131129
-0.0725323
0.071206
-0.00821024
-0.00987763
-0.0700244
0.0690117
-0.00311173
-0.0054274
-0.0685726
0.0689301
0.00250828
-0.000349648
-0.0701237
0.0721832
0.00825769
0.00509187
-0.0746578
0.0776094
0.0136701
0.0103635
-0.0805325
0.0836705
0.0191359
0.0153984
-0.0866098
0.0896768
0.0246403
0.0206923
-0.0929116
0.0952141
0.0264209
0.0249191
-0.0984002
0.0998693
0.0173101
0.0220649
-0.101747
0.104865
7.45921e-06
0.00865575
-0.00558264
-0.0159032
0.0209269
0.0991464
0.103269
-0.0275795
0.0292085
0.0935749
0.0948919
-0.0310474
0.0323578
0.0883539
0.0896666
-0.0330916
0.033251
0.0824226
0.0839672
-0.0328667
0.0319737
0.0774176
0.07839
-0.0306762
0.0290223
0.0743705
0.0743666
-0.027154
0.0250747
0.0734166
0.0724242
-0.0228967
0.0201855
0.0730926
0.0723396
-0.0171609
0.0127943
0.075222
0.0741874
0.082205
0.00932392
-0.0120566
-0.0882964
-0.0885816
0.00679624
-0.0156317
0.0184835
-0.094666
-0.0930794
-0.0128947
-0.0435709
-0.0523847
0.0440375
-0.0516235
0.0793875
-0.0728161
0.00871146
0.0808546
0.0115755
-0.050583
-0.0513629
0.0446026
-0.0583488
-0.0514373
-0.0488223
0.0405044
-0.0652749
-0.0461224
-0.0472991
0.0404433
-0.0712597
-0.0363331
-0.0511345
0.0398165
-0.0784831
-0.0258394
-0.0653511
0.0374076
-0.0856592
-0.0192859
-0.0809558
0.0344287
-0.0914752
-0.0147231
-0.0863853
0.0289354
-0.0946297
-0.00730839
0.00493954
-0.0862128
-0.00945601
-0.0861488
0.0223835
-0.0971633
-0.0861129
0.0870358
0.00401671
-0.00482914
-0.0839243
0.00264055
-0.00533254
-0.0857094
0.0114335
0.0976336
-0.0130263
0.0164577
-0.0980974
-0.0119385
-0.0941672
-0.0512547
0.0705288
-0.071327
-0.000363948
0.00495927
0.0727908
-0.0738154
-0.00663125
-0.0041778
0.075122
-0.0765193
-0.0100609
-0.00807167
0.0780285
-0.079708
-0.0124979
-0.0108966
0.0814592
-0.0834141
-0.0139105
-0.012752
0.0853807
-0.0875604
-0.0144883
-0.0137116
0.0897816
-0.0922504
-0.0141534
-0.0138853
0.0947455
-0.0974164
-0.0125396
-0.0130213
0.0999332
-0.102246
-0.0089845
-0.010654
0.103787
-0.104161
-0.00254663
-0.00594698
0.10289
-0.0998502
0.00644233
0.00169277
0.0957322
-0.0911171
0.0137812
0.0103103
0.087088
-0.0836782
0.0152423
0.0146741
0.0810843
-0.0789178
0.0128378
0.0137738
0.0771773
-0.0756548
0.00895152
0.0106415
0.0744641
-0.0735817
0.0039307
0.00631178
0.073144
-0.0731646
-0.00145943
0.00116245
0.0736381
-0.074521
-0.00623711
-0.00382881
0.0756899
-0.0771741
-0.0100485
-0.00799663
0.0788228
-0.0802293
-0.0127549
-0.0111671
0.0822174
-0.0836068
-0.0136358
-0.0131945
0.0852845
-0.0877905
-0.0118139
-0.0133383
0.0899728
-0.0917271
-0.0101842
-0.0107125
-0.0891468
0.0914396
0.00508073
0.00468521
-0.094384
0.0966455
0.00385631
0.00455997
-0.0985637
0.0999846
0.000637176
0.00261214
-0.100534
0.100277
-0.00443414
-0.00180008
-0.0993359
0.0978
-0.00932893
-0.00662996
-0.0959857
0.0938412
-0.0128518
-0.0106805
-0.0917186
0.0894618
-0.0147913
-0.0132542
-0.0873661
0.0852175
-0.0153619
-0.0144023
-0.08327
0.0813141
-0.0148266
-0.0143955
-0.0795639
0.077805
-0.0133145
-0.0134111
-0.0762484
0.0747769
-0.0108771
-0.0115563
-0.0736147
0.0726263
-0.00722185
-0.0087154
-0.0718775
0.0712651
-0.00249926
-0.00467864
-0.0709338
0.0709989
0.00244317
-1.84086e-05
-0.0715848
0.0728114
0.00703107
0.00450599
-0.0744961
0.07673
0.0114362
0.00867892
-0.0791333
0.0818782
0.016391
0.0129951
-0.0845685
0.0875421
0.0216667
0.0180021
-0.0905496
0.0940615
0.022909
0.0219116
-0.0974835
0.10077
0.0140234
0.0186429
-0.103091
0.104277
-0.00117833
0.00633502
-0.104025
0.107319
-0.00800575
-0.00533058
-0.0070432
-0.0182391
0.0237391
0.0936464
0.0964636
-0.0276644
0.0302517
0.0909876
0.0909666
-0.0323683
0.0339616
0.0867606
0.08755
-0.0349635
0.0353836
0.0820025
0.0829653
-0.0352352
0.0345633
0.0780896
0.0785384
-0.033456
0.0319578
0.0758687
0.0754739
-0.0301976
0.0281949
0.0754194
0.0741845
-0.0260673
0.0229241
0.0762358
0.0744672
-0.0214834
0.0181519
0.0785535
0.0756281
-0.0215148
0.0183207
0.0841289
0.078842
-0.0121129
-0.00403412
0.0970017
0.0881869
-0.0513859
-0.0515818
0.0489407
-0.0559616
0.0101481
-0.00935728
-0.0925179
0.0111843
-0.0952034
0.082453
-0.0868757
0.00038854
-0.00966527
0.0500923
0.0565746
0.073452
-0.000664269
-0.0881306
0.0860614
-0.00811493
-0.0883555
-0.00913245
-0.0540537
-0.0487464
0.0449464
-0.0627908
-0.0513137
-0.043631
0.0442542
-0.0690857
-0.0431083
-0.0405239
0.0447369
-0.0761801
-0.0312587
-0.0457151
0.0428996
-0.0839751
-0.0207909
-0.0638461
0.0398085
-0.091039
-0.0158705
-0.0798085
0.0349309
-0.0974707
-0.0116279
-0.0842134
0.0280266
-0.100273
0.00100602
-0.0835838
-0.0013466
-0.0840985
0.0841957
0.000908813
4.67914e-05
-0.0841145
-3.07917e-05
-0.084114
0.000576983
-0.00653913
-0.0849422
0.0203095
-0.101015
-0.0850817
-0.00197432
0.0196825
-0.0396266
0.0700364
-0.104197
-0.00692645
0.00015313
0.0761041
-0.0537
0.0795879
-0.0761993
0.00532288
0.00428772
0.0743041
-0.0734229
-0.00124516
0.00306407
0.0741663
-0.0750338
-0.00576377
-0.00343436
0.076056
-0.0772761
-0.00884077
-0.00704952
0.0785959
-0.0801272
-0.0109666
-0.00957688
0.0816971
-0.0834424
-0.0121653
-0.011182
0.0851859
-0.0871058
-0.0125684
-0.0119681
0.0890335
-0.0911302
-0.0120567
-0.0119576
0.0931983
-0.0953606
-0.0103773
-0.0109532
0.0973622
-0.0992058
-0.00714098
-0.00865235
0.100519
-0.101091
-0.00197497
-0.00463385
0.100576
-0.0987853
0.0046514
0.00117841
0.0960065
-0.0925082
0.0102829
0.00753154
0.089099
-0.0859052
0.0120485
0.0112649
0.0832585
-0.0809077
0.010487
0.0111271
0.0789588
-0.0772564
0.00724911
0.00869263
0.0759635
-0.0750403
0.00300749
0.00501889
0.0745812
-0.0745472
-0.00149346
0.000703391
0.0748971
-0.0755989
-0.00553528
-0.00347892
0.0765546
-0.077786
-0.00881705
-0.00704094
0.0791801
-0.0807844
-0.0111505
-0.00977312
0.0824618
-0.083712
-0.0123856
-0.0115172
0.0849107
-0.0855165
-0.0112081
-0.0121396
-0.0101675
-0.0854671
0.0869666
0.00251721
0.00136917
-0.088992
0.0909493
0.00312342
0.0026598
-0.0927283
0.0944766
0.00210801
0.00278093
-0.0955981
0.0966528
-0.000417461
0.00149059
-0.0970774
0.0969182
-0.00427501
-0.00222465
-0.0962469
0.0950946
-0.00817659
-0.00595865
-0.0936966
0.0919976
-0.0111528
-0.00928257
-0.0902708
0.0883917
-0.0129122
-0.0115274
-0.0866136
0.0847639
-0.0135122
-0.0126242
-0.083066
0.0813444
-0.013105
-0.0126977
-0.0798021
0.0782664
-0.0117788
-0.0118688
-0.0769143
0.0756267
-0.00958954
-0.0102042
-0.0746057
0.0737909
-0.00640704
-0.00769446
-0.0732838
0.073001
-0.00221636
-0.00417159
-0.0729456
0.0731209
0.00226786
3.69769e-05
-0.0735443
0.0743159
0.00625939
0.0040826
-0.0753787
0.0768643
0.0099505
0.00761619
-0.0785817
0.0807295
0.0142432
0.0112776
-0.0830745
0.0860149
0.0187263
0.0156571
-0.0893052
0.0932779
0.0189362
0.0186213
-0.0970671
0.100392
0.0106985
0.0148538
-0.102255
0.101904
-0.000827649
0.00447186
-0.101794
0.102392
-0.0086037
-0.00522037
-0.00884826
-0.00989061
0.0151773
0.0923469
0.0943659
-0.0206481
0.0245178
0.0897767
0.0909928
-0.0273222
0.0299369
0.0883729
0.0881622
-0.0321508
0.0339165
0.0849948
0.0853362
-0.0351307
0.035809
0.0813242
0.0817511
-0.0359462
0.035589
0.0784467
0.0784012
-0.0347999
0.0336133
0.0770553
0.076263
-0.0321278
0.0303578
0.0771894
0.07567
-0.0284092
0.0262463
0.0783987
0.0764158
-0.0240027
0.0224971
0.0800592
0.0778716
-0.0218684
0.0240975
0.0818997
0.0794707
0.0726578
0.0128208
-0.0997339
0.0708254
0.0027797
-0.00654932
0.00721369
-0.0931822
-0.0905679
-0.00433689
-0.0526641
-0.0529714
0.0491267
-0.0601419
-0.0527191
-0.047341
0.0473006
-0.0658372
-0.0477014
-0.039038
0.0490604
-0.0734092
0.0084663
-0.096456
-0.037131
-0.0346516
0.0482465
-0.081527
-0.0237122
-0.0427938
0.0460993
-0.0902659
-0.0148396
-0.064877
0.0414813
-0.0975894
-0.000895328
-0.0844568
0.00123765
-0.0842033
0.0836039
-0.000295957
0.00157168
-0.0848832
-0.000891747
-0.0852772
0.00239206
-0.0120037
-0.0794326
0.0346112
-0.104055
-0.0851524
0.00227605
-0.00762327
-0.0831293
0.0266811
-0.106644
-0.0851625
0.0006578
-0.00263813
-0.0842784
0.0176042
-0.105799
-0.00816964
0.00127655
0.0777185
0.0666045
-0.10793
0.0506622
0.000534668
0.00318296
0.0836484
-0.00415048
0.00434252
-0.0933743
-0.0919466
-0.00277175
-0.0168038
0.083943
-0.0572374
0.0787242
-0.0822523
0.00391667
-0.0752179
0.00135637
0.0766412
0.00284203
0.079955
-0.0772396
0.00260745