/*--------------------------------*- C++ -*----------------------------------*\
  =========                 |
  \\      /  F ield         | OpenFOAM: The Open Source CFD Toolbox
   \\    /   O peration     | Website:  https://openfoam.org
    \\  /    A nd           | Version:  10
     \\/     M anipulation  |
\*---------------------------------------------------------------------------*/
FoamFile
{
    format      ascii;
    class       volScalarField;
    location    "23";
    object      p;
}
// * * * * * * * * * * * * * * * * * * * * * * * * * * * * * * * * * * * * * //

dimensions      [0 2 -2 0 0 0 0];

internalField   nonuniform List<scalar> 
28942
(
-0.344856
-0.341322
-0.390368
0.204722
0.214964
0.00441005
0.00548667
0.00232145
-0.047529
-0.0389418
-0.649845
-0.645441
-0.648354
-0.647633
0.00363974
0.00772143
0.476619
0.496629
0.025382
0.115072
0.387112
0.387973
-0.683317
-0.686184
-0.696926
-0.718008
0.744763
0.764529
-0.160888
-0.146088
-0.00541508
-0.00472764
0.0216282
0.00841637
0.258613
0.307265
0.526768
0.646668
0.000690487
0.555913
0.340238
0.368169
-0.0155314
-0.00713652
-0.00666221
0.00592664
0.00531679
0.00589415
0.0066976
0.00919095
0.0150397
0.0009017
0.00150708
-0.0401468
-0.0298752
-0.568758
-0.482557
-0.652987
-0.647876
-0.652134
-0.657142
-0.660671
-0.657793
-0.298674
-0.411493
-0.255541
-0.16996
0.389657
0.357299
-0.345741
-0.350673
-0.354796
0.37192
0.357031
0.360977
-0.172582
-0.16532
-0.111575
-0.360196
-0.428807
-0.329262
-0.48632
-0.398383
-0.434199
0.0377706
0.12561
0.193344
0.17287
0.110456
0.12001
0.15789
0.176246
-0.6362
-0.668225
-0.633337
-0.606714
-0.586283
0.177776
0.226309
-0.470793
0.233072
0.235223
0.21285
0.21961
-0.0557495
-0.0558723
-0.0641463
0.227756
0.236984
0.237041
-0.649088
-0.646368
-0.348988
-0.3117
-0.323153
0.885179
0.8192
0.777058
0.845362
0.0731842
0.211666
0.148313
-0.0674943
-0.0882575
0.909183
0.913592
0.883723
-0.0585091
-0.0112566
0.00671102
0.00875229
0.00626896
0.349817
0.472566
0.267026
0.257275
0.337214
0.0783321
0.247309
0.414872
-0.640555
-0.639994
0.00186853
-0.00276623
0.0012567
-0.421123
-0.438097
-0.400327
-0.64235
0.247557
0.246706
0.0515561
-0.000514788
-0.00131739
-0.00112644
-0.000326106
0.318179
0.248634
-0.433635
-0.386806
-0.373863
-0.351882
-0.341515
0.000339115
-0.688131
-0.653029
0.408956
0.423378
0.465511
0.445998
0.381066
0.0856278
0.0816192
-0.00741243
-0.0153749
0.20229
0.190908
0.21026
0.220788
0.220186
0.232772
0.24549
0.281035
0.261834
0.243281
0.263547
0.30241
0.358475
0.373277
-0.234452
-0.198326
-0.322703
0.00504013
0.00530139
-0.358921
-0.352314
0.00706111
0.00661846
0.00638604
0.00648588
-0.116451
-0.119194
-0.108044
-0.641155
-0.64828
-0.648829
-0.669478
-0.673289
-0.668792
-0.705963
-0.776928
-0.73074
0.878904
0.85708
0.892055
-0.0461457
-0.0395949
-0.0484883
0.452545
0.434634
0.445988
-0.256901
-0.258948
-0.250725
-0.256556
-0.250329
-0.240895
-0.251751
-0.228677
-0.239038
-0.261528
-0.268017
-0.270508
-0.268354
-0.261871
-0.215143
-0.224184
-0.240789
-0.251458
-0.227494
-0.201156
-0.208247
-0.237621
-0.186962
-0.173298
-0.192493
-0.17744
-0.212602
-0.221887
-0.160816
-0.16363
-0.196224
-0.204729
-0.149845
-0.151436
-0.179515
-0.187141
-0.14055
-0.141016
-0.163342
-0.170081
-0.13294
-0.132407
-0.148464
-0.154325
-0.12698
-0.125532
-0.135342
-0.140352
-0.122587
-0.120315
-0.124207
-0.128374
-0.119682
-0.116605
-0.114848
-0.118247
-0.118185
-0.114334
-0.107438
-0.11009
-0.118099
-0.113522
-0.101592
-0.103527
-0.119533
-0.114153
-0.0973837
-0.0986504
-0.12265
-0.116357
-0.0980914
-0.0945342
-0.0947379
-0.0953786
-0.109735
-0.103096
-0.128355
-0.118019
-0.154398
-0.140519
-0.185384
-0.169588
-0.215239
-0.200964
-0.236663
-0.227344
-0.244538
-0.242554
-0.237211
-0.242668
-0.217182
-0.228514
-0.191947
-0.20477
-0.166766
-0.179063
-0.145932
-0.15562
-0.13133
-0.137833
-0.122996
-0.126408
-0.120509
-0.121055
-0.123629
-0.121348
-0.127526
-0.127295
-0.120118
-0.108078
-0.109063
-0.107842
-0.112499
-0.109598
-0.122701
-0.116822
-0.139664
-0.130288
-0.164011
-0.150917
-0.194905
-0.178797
-0.228808
-0.211801
-0.259082
-0.245083
-0.276565
-0.269792
-0.276708
-0.278993
-0.259207
-0.269934
-0.228399
-0.245098
-0.191934
-0.210353
-0.157581
-0.174084
-0.130201
-0.142897
-0.110757
-0.11956
-0.0983047
-0.103747
-0.094408
-0.0924918
-0.133088
-0.111859
-0.0936972
-0.0920815
-0.0920659
-0.0937373
-0.0931516
-0.0887205
-0.0902061
-0.103468
-0.0975537
-0.120303
-0.110948
-0.144238
-0.131456
-0.172924
-0.158278
-0.200607
-0.18737
-0.220744
-0.211974
-0.228171
-0.226198
-0.22175
-0.22646
-0.204183
-0.214171
-0.181532
-0.193079
-0.159125
-0.170024
-0.140889
-0.149323
-0.128514
-0.133947
-0.122111
-0.124586
-0.12137
-0.121057
-0.1262
-0.123052
-0.133548
-0.140213
-0.13719
-0.130862
-0.101033
-0.102846
-0.11598
-0.125392
-0.10155
-0.100642
-0.107108
-0.103666
-0.118485
-0.112015
-0.136724
-0.12669
-0.162556
-0.14869
-0.19521
-0.178185
-0.230927
-0.213066
-0.262521
-0.247786
-0.281338
-0.27396
-0.28173
-0.283986
-0.263751
-0.274722
-0.232079
-0.249201
-0.194465
-0.213451
-0.158987
-0.176049
-0.130538
-0.143753
-0.110013
-0.119346
-0.0964509
-0.102427
-0.088968
-0.0919323
-0.0888518
-0.0914559
-0.0876417
-0.0937221
-0.145154
-0.106
-0.0934236
-0.0906621
-0.0926758
-0.0880532
-0.0944776
-0.139576
-0.14824
-0.121673
-0.110685
-0.0863616
-0.0939976
-0.0943064
-0.0898926
-0.0835652
-0.0841749
-0.0870113
-0.0845453
-0.0960576
-0.0908439
-0.111082
-0.102738
-0.132823
-0.121168
-0.159151
-0.145681
-0.184794
-0.172471
-0.203378
-0.195326
-0.21048
-0.208549
-0.205001
-0.209121
-0.189605
-0.198295
-0.169678
-0.179843
-0.150186
-0.159629
-0.134597
-0.141762
-0.12445
-0.128818
-0.119936
-0.121501
-0.120865
-0.119734
-0.127247
-0.123352
-0.132621
-0.141384
-0.154902
-0.149046
-0.13202
-0.0923458
-0.0956077
-0.0933297
-0.0940057
-0.0926191
-0.100592
-0.0966674
-0.112922
-0.105974
-0.132146
-0.121608
-0.159097
-0.144648
-0.193097
-0.175367
-0.230297
-0.2117
-0.263008
-0.247786
-0.282499
-0.274853
-0.283129
-0.285337
-0.264863
-0.276078
-0.232741
-0.250088
-0.194605
-0.213876
-0.158468
-0.17588
-0.129225
-0.14285
-0.107801
-0.117589
-0.093169
-0.0997054
-0.0845127
-0.0881105
-0.0820159
-0.0824434
-0.0902576
-0.0832591
-0.0965838
-0.0956984
-0.158783
-0.0991607
-0.0989243
-0.0957489
-0.10428
-0.0862561
-0.0942128
-0.10354
-0.114412
-0.0971245
-0.0890865
-0.0952117
-0.080782
-0.0844412
-0.0773574
-0.0783276
-0.0798424
-0.0778942
-0.0876413
-0.0831064
-0.100924
-0.093531
-0.120388
-0.109916
-0.144265
-0.132017
-0.167744
-0.156433
-0.184914
-0.177439
-0.191658
-0.18973
-0.18713
-0.190682
-0.173889
-0.181345
-0.15668
-0.165457
-0.140048
-0.148067
-0.127057
-0.132973
-0.119104
-0.122423
-0.116434
-0.117115
-0.118964
-0.117055
-0.126747
-0.122193
-0.140314
-0.132741
-0.160885
-0.149682
-0.166247
-0.173981
-0.171158
-0.150634
-0.159399
-0.128928
-0.140339
-0.103888
-0.116605
-0.0847747
-0.0909314
-0.0873973
-0.0830176
-0.0833106
-0.0856922
-0.0838484
-0.0930717
-0.0887398
-0.106135
-0.0988272
-0.12605
-0.115166
-0.153744
-0.138911
-0.188621
-0.170434
-0.226779
-0.207702
-0.260347
-0.244728
-0.28029
-0.272485
-0.281013
-0.283184
-0.262666
-0.273973
-0.23039
-0.247804
-0.192119
-0.211468
-0.155725
-0.17329
-0.126014
-0.1399
-0.103925
-0.114067
-0.0884346
-0.0954291
-0.0786619
-0.0828515
-0.0746642
-0.0759303
-0.07695
-0.0749952
-0.0910119
-0.080542
-0.101504
-0.0996638
-0.106065
-0.100697
-0.161206
-0.174785
-0.109946
-0.0960927
-0.118174
-0.100069
-0.124858
-0.0985664
-0.097336
-0.0856631
-0.110042
-0.101712
-0.0828745
-0.0895285
-0.0740546
-0.0778131
-0.0703089
-0.0715242
-0.0719482
-0.0704793
-0.078489
-0.0746279
-0.0900575
-0.0835908
-0.10727
-0.0979756
-0.128684
-0.117667
-0.149961
-0.139686
-0.165689
-0.158814
-0.172097
-0.170175
-0.1685
-0.171451
-0.157326
-0.163626
-0.14275
-0.150178
-0.128865
-0.135519
-0.118386
-0.123091
-0.112569
-0.114866
-0.111688
-0.111513
-0.115732
-0.113096
-0.124814
-0.119629
-0.13955
-0.131437
-0.149485
-0.178868
-0.188625
-0.184789
-0.161135
-0.170905
-0.137265
-0.149787
-0.12388
-0.0736497
-0.0783796
-0.0753887
-0.0731928
-0.0728895
-0.0766717
-0.0744089
-0.084701
-0.0800657
-0.0982514
-0.090717
-0.118542
-0.10748
-0.146577
-0.131571
-0.18186
-0.163459
-0.220499
-0.201178
-0.254513
-0.238684
-0.274707
-0.26681
-0.275491
-0.277632
-0.257217
-0.268489
-0.225121
-0.242428
-0.187092
-0.206324
-0.150811
-0.168348
-0.120941
-0.134943
-0.098413
-0.108808
-0.0822295
-0.0896022
-0.0714931
-0.076206
-0.066058
-0.0681014
-0.0664894
-0.0654788
-0.0726886
-0.0689592
-0.0920882
-0.0777457
-0.108228
-0.105552
-0.190228
-0.0821242
-0.117282
-0.130498
-0.131466
-0.107681
-0.107817
-0.124313
-0.139904
-0.144778
-0.105367
-0.0998954
-0.0838257
-0.108225
-0.0913272
-0.117412
-0.103215
-0.0754205
-0.0822137
-0.0665448
-0.0703424
-0.0626137
-0.0639674
-0.0635135
-0.0624818
-0.068855
-0.0656463
-0.0787571
-0.0731935
-0.0937603
-0.0856271
-0.112732
-0.102936
-0.131825
-0.122577
-0.14612
-0.139844
-0.152193
-0.150288
-0.14949
-0.15185
-0.140242
-0.14547
-0.128164
-0.134307
-0.116882
-0.122243
-0.108795
-0.112344
-0.105017
-0.10634
-0.105834
-0.10485
-0.111286
-0.107978
-0.121573
-0.115797
-0.137391
-0.128728
-0.159925
-0.147743
-0.189963
-0.17397
-0.204302
-0.207272
-0.206982
-0.192197
-0.199352
-0.172309
-0.183116
-0.146558
-0.160052
-0.116907
-0.131952
-0.0868591
-0.101853
-0.0656687
-0.0722412
-0.0685476
-0.0624599
-0.0635953
-0.0629541
-0.0622813
-0.0671374
-0.0645557
-0.0756362
-0.0707968
-0.0894342
-0.0818023
-0.109783
-0.098713
-0.13775
-0.122787
-0.172948
-0.154584
-0.211581
-0.19225
-0.245651
-0.229793
-0.265873
-0.257968
-0.266705
-0.268809
-0.248662
-0.259788
-0.217063
-0.234092
-0.179673
-0.198584
-0.143894
-0.161214
-0.114181
-0.128154
-0.0914323
-0.101982
-0.0746966
-0.0823841
-0.0631076
-0.0682859
-0.0564337
-0.0591529
-0.0550383
-0.05503
-0.0590042
-0.056399
-0.0675147
-0.0627692
-0.0907289
-0.0727774
-0.117491
-0.132723
-0.130503
-0.187742
-0.205188
-0.0920718
-0.0767431
-0.113415
-0.116758
-0.146442
-0.117487
-0.114918
-0.10851
-0.0977461
-0.0782461
-0.116708
-0.107696
-0.150756
-0.140892
-0.123147
-0.0827738
-0.0942249
-0.0672744
-0.0739442
-0.0584881
-0.0622513
-0.0544202
-0.0558902
-0.0547014
-0.0540439
-0.0589482
-0.0563436
-0.0672548
-0.0625584
-0.0801301
-0.0731178
-0.0967267
-0.08812
-0.11369
-0.105443
-0.126588
-0.120893
-0.132324
-0.130442
-0.130443
-0.132254
-0.122972
-0.127213
-0.113214
-0.11816
-0.104355
-0.108513
-0.0984978
-0.100969
-0.0966236
-0.0970374
-0.0990127
-0.0972821
-0.105747
-0.10183
-0.117102
-0.110814
-0.133832
-0.124733
-0.157132
-0.14462
-0.171585
-0.220404
-0.225129
-0.223999
-0.205974
-0.214323
-0.183767
-0.195697
-0.155986
-0.170465
-0.124342
-0.14042
-0.10816
-0.0532144
-0.0583504
-0.055352
-0.0512988
-0.0518869
-0.052544
-0.051503
-0.0572681
-0.0544473
-0.0660471
-0.0611009
-0.0798576
-0.0722526
-0.0999575
-0.0890432
-0.127459
-0.11275
-0.162094
-0.144013
-0.200234
-0.181131
-0.233983
-0.218264
-0.254037
-0.246197
-0.254914
-0.256959
-0.237253
-0.248135
-0.206438
-0.223033
-0.170043
-0.188449
-0.135136
-0.152057
-0.105901
-0.119693
-0.0831715
-0.0937653
-0.0660513
-0.0739779
-0.0537165
-0.0593116
-0.0459557
-0.0492613
-0.0429522
-0.0438416
-0.0446869
-0.0432552
-0.0506753
-0.0472311
-0.0588917
-0.0547534
-0.164953
-0.159205
-0.0832735
-0.0627157
-0.129748
-0.223361
-0.0619533
-0.160738
-0.123635
-0.171833
-0.145921
-0.127928
-0.164166
-0.128824
-0.125576
-0.117459
-0.104421
-0.087335
-0.0654359
-0.127943
-0.126483
-0.182195
-0.165302
-0.144937
-0.0959729
-0.110246
-0.0733498
-0.0836778
-0.0586165
-0.0650718
-0.0500513
-0.0537212
-0.0459316
-0.0474795
-0.0456923
-0.0453554
-0.048953
-0.046899
-0.0557711
-0.0518873
-0.0666305
-0.0606837
-0.0809497
-0.0734855
-0.0958651
-0.0885815
-0.107419
-0.102285
-0.112816
-0.110968
-0.111673
-0.112988
-0.105813
-0.109159
-0.0981666
-0.102023
-0.0915154
-0.0945777
-0.0876917
-0.0891787
-0.0875524
-0.0871383
-0.0913632
-0.0889594
-0.0992371
-0.0947825
-0.111502
-0.104784
-0.128972
-0.119518
-0.152761
-0.140013
-0.183373
-0.167274
-0.219116
-0.200741
-0.242851
-0.237735
-0.241793
-0.236289
-0.240936
-0.219715
-0.229171
-0.195148
-0.208277
-0.165156
-0.180677
-0.131746
-0.148754
-0.097724
-0.114649
-0.0657017
-0.0813446
-0.0449489
-0.0507338
-0.0477522
-0.0412478
-0.0427428
-0.0401865
-0.0403435
-0.0421128
-0.0407716
-0.0472251
-0.0442461
-0.0561039
-0.0511445
-0.069707
-0.0622456
-0.0892726
-0.0786665
-0.115934
-0.101679
-0.149551
-0.131988
-0.186735
-0.168086
-0.219806
-0.204384
-0.239524
-0.231809
-0.24047
-0.24242
-0.223325
-0.233876
-0.193549
-0.209572
-0.158454
-0.176201
-0.124732
-0.141098
-0.0962649
-0.109735
-0.073803
-0.0843236
-0.0564999
-0.0645703
-0.0435744
-0.0495143
-0.0348504
-0.0386813
-0.0304716
-0.0321123
-0.0303427
-0.0298991
-0.0340556
-0.0317625
-0.0399713
-0.0369349
-0.0447607
-0.0427822
-0.187443
-0.184025
-0.0668264
-0.0454263
-0.144806
-0.136201
-0.187161
-0.204862
-0.194183
-0.162858
-0.140929
-0.212744
-0.231132
-0.0693568
-0.0538417
-0.185498
-0.141329
-0.136539
-0.126091
-0.110112
-0.0897386
-0.208922
-0.188189
-0.207978
-0.0666627
-0.0446295
-0.229792
-0.141862
-0.147563
-0.167959
-0.111153
-0.128114
-0.0837707
-0.0966116
-0.0632901
-0.0726184
-0.0496614
-0.0557029
-0.0414414
-0.0449742
-0.0373282
-0.0389247
-0.0366553
-0.0365908
-0.0390418
-0.0374806
-0.0444971
-0.0413612
-0.0534748
-0.0485266
-0.0656403
-0.0592588
-0.0786122
-0.0722432
-0.0888865
-0.0842869
-0.093944
-0.0921411
-0.0934435
-0.0943216
-0.0890172
-0.0915669
-0.083251
-0.0861355
-0.0785687
-0.0806537
-0.0765598
-0.0771685
-0.0779669
-0.0768158
-0.0830331
-0.0800374
-0.0918874
-0.0869751
-0.104886
-0.0978305
-0.122859
-0.113184
-0.146846
-0.134054
-0.177225
-0.161299
-0.194543
-0.259809
-0.255695
-0.259326
-0.251538
-0.25709
-0.23288
-0.243379
-0.206014
-0.22032
-0.173729
-0.190356
-0.138641
-0.15641
-0.102965
-0.120652
-0.0858176
-0.0322414
-0.0368113
-0.034327
-0.0296255
-0.0307308
-0.0293628
-0.0291643
-0.0318103
-0.0302449
-0.0371597
-0.0340988
-0.0459737
-0.0410861
-0.0591721
-0.0519583
-0.0779486
-0.0677868
-0.103435
-0.0898114
-0.135617
-0.118788
-0.171414
-0.153429
-0.203481
-0.188499
-0.222722
-0.215179
-0.223805
-0.225587
-0.207272
-0.21741
-0.178753
-0.194088
-0.14521
-0.162169
-0.112927
-0.128612
-0.0854728
-0.0985007
-0.0635052
-0.0738415
-0.0462286
-0.05434
-0.0329098
-0.0390974
-0.0233961
-0.0276697
-0.0178393
-0.0201182
-0.0161743
-0.0165406
-0.0179015
-0.0166715
-0.0216867
-0.0196486
-0.0249652
-0.0236077
-0.0243621
-0.0254527
-0.227298
-0.0421791
-0.0642584
-0.0382273
-0.0182482
-0.0219448
-0.208874
-0.209005
-0.161609
-0.150786
-0.249114
-0.0394698
-0.21783
-0.182365
-0.155276
-0.20814
-0.154313
-0.147138
-0.133572
-0.114142
-0.0904008
-0.225565
-0.200036
-0.214579
-0.000280842
0.00313904
-0.0140494
-0.240365
-0.248027
-0.248345
-0.0605351
-0.0331097
-0.157833
-0.165187
-0.18329
-0.127913
-0.146275
-0.0955017
-0.110794
-0.0709889
-0.0823489
-0.0529185
-0.0612026
-0.0405374
-0.0460733
-0.0328252
-0.0361699
-0.0287696
-0.030389
-0.0277407
-0.0279053
-0.029362
-0.0282355
-0.033592
-0.0311319
-0.0408424
-0.0368153
-0.0509962
-0.0456293
-0.0621415
-0.0566319
-0.0712091
-0.0671151
-0.0759251
-0.0741786
-0.0759699
-0.0764719
-0.0727909
-0.0746471
-0.0686645
-0.0707012
-0.0657014
-0.066933
-0.0652769
-0.0651189
-0.0680306
-0.0662387
-0.0741755
-0.0706741
-0.0838419
-0.0785561
-0.0973939
-0.0900937
-0.115647
-0.105868
-0.139619
-0.12687
-0.169615
-0.153897
-0.204361
-0.186583
-0.240287
-0.222506
-0.272192
-0.257014
-0.265965
-0.275121
-0.275332
-0.265383
-0.271744
-0.244846
-0.25633
-0.215839
-0.231231
-0.181385
-0.199084
-0.144555
-0.163107
-0.107541
-0.125905
-0.0728156
-0.0898093
-0.0418121
-0.0568707
-0.0239202
-0.0282046
-0.0261217
-0.0203779
-0.0219058
-0.0185282
-0.0192032
-0.018931
-0.0184315
-0.0217627
-0.0200402
-0.0272107
-0.0241364
-0.035815
-0.0310735
-0.0484395
-0.0415622
-0.0662107
-0.0566088
-0.0902344
-0.0773967
-0.120619
-0.104714
-0.154639
-0.137509
-0.18541
-0.170993
-0.204056
-0.196723
-0.205035
-0.206854
-0.189523
-0.199131
-0.162442
-0.176998
-0.130639
-0.146715
-0.0999913
-0.114896
-0.0737493
-0.0862352
-0.0524744
-0.0625274
-0.0354235
-0.0434757
-0.0219214
-0.0282497
-0.0118363
-0.0164435
-0.0053291
-0.00812868
-0.00238886
-0.00342959
-0.00252218
-0.00213227
-0.00446253
-0.00337219
-0.00606229
-0.00546736
-0.00511432
-0.00601823
-0.00324763
-0.228475
-0.231844
-0.00937949
0.00656782
-0.180123
-0.16689
-0.240619
-0.203829
-0.17024
-0.229302
-0.245681
-0.0441701
-0.030068
-0.230782
-0.166959
-0.1565
-0.139107
-0.116
-0.0892263
-0.224935
-0.196853
-0.203742
-0.230704
-0.250298
-0.262085
-0.26624
-0.0555498
-0.0280935
0.00955521
-0.00540036
-0.17538
-0.172706
-0.185997
-0.141113
-0.157639
-0.108042
-0.124226
-0.0801807
-0.0933415
-0.0585971
-0.0686223
-0.0426265
-0.0499686
-0.0314752
-0.0364952
-0.0243316
-0.0274589
-0.0203838
-0.0220001
-0.019072
-0.0194251
-0.0200347
-0.0192853
-0.0231837
-0.0213226
-0.0288753
-0.0256841
-0.0371728
-0.0327464
-0.0466138
-0.041907
-0.0545501
-0.0509316
-0.058924
-0.0572455
-0.0594171
-0.0596037
-0.0573009
-0.0585654
-0.0545748
-0.0558874
-0.0530796
-0.0535827
-0.0540057
-0.0531945
-0.0579006
-0.0555672
-0.0649427
-0.0610241
-0.0752503
-0.0696762
-0.0891769
-0.0817239
-0.107506
-0.0977289
-0.131214
-0.118642
-0.160592
-0.145246
-0.194315
-0.177159
-0.211893
-0.286623
-0.271812
-0.280735
-0.288384
-0.289206
-0.277243
-0.284305
-0.255013
-0.267389
-0.224114
-0.240456
-0.1878
-0.206417
-0.149391
-0.168666
-0.111438
-0.130237
-0.0758069
-0.0932057
-0.0595042
-0.0119331
-0.0155558
-0.0136539
-0.0092108
-0.010433
-0.00805715
-0.00839598
-0.00898496
-0.00825331
-0.0120741
-0.0102574
-0.0175008
-0.0144727
-0.0257736
-0.0212401
-0.0376866
-0.0312177
-0.0542808
-0.0453303
-0.076612
-0.0646835
-0.104896
-0.0900748
-0.136803
-0.120696
-0.166019
-0.152279
-0.184004
-0.176888
-0.185239
-0.186809
-0.170567
-0.17964
-0.14503
-0.158752
-0.115083
-0.130217
-0.0862016
-0.100259
-0.0613246
-0.0731891
-0.0409144
-0.0505963
-0.0242751
-0.0321733
-0.010795
-0.0171583
-0.00036963
-0.00519176
0.00683179
0.00364237
0.0107827
0.00920007
0.0119243
0.011649
0.0114169
0.0117757
0.01111
0.0111111
0.0127653
0.0116198
0.0164863
0.0144789
0.0209653
0.0187923
0.0113396
0.0232206
0.0225803
-0.247641
-0.254942
-0.200008
-0.183715
-0.260347
-0.0171435
-0.261469
-0.226083
-0.184941
-0.25259
-0.178292
-0.163721
-0.142082
-0.115278
-0.0855859
-0.204582
-0.176595
-0.17309
0.0335082
0.0321298
0.0228623
-0.19937
-0.23016
-0.253939
-0.270331
-0.279039
-0.0494714
-0.0230945
-0.00257273
0.0119177
-0.193815
-0.167751
-0.174542
-0.144819
-0.15711
-0.116881
-0.131395
-0.0888889
-0.102505
-0.0651182
-0.0763821
-0.0464431
-0.0551462
-0.0325072
-0.0389303
-0.0226087
-0.027095
-0.0160795
-0.0189663
-0.012285
-0.0138747
-0.0107547
-0.0112606
-0.0111579
-0.0107309
-0.0133695
-0.0120297
-0.0176786
-0.0152336
-0.0242848
-0.0207208
-0.0321454
-0.0281849
-0.0390241
-0.0358519
-0.0430549
-0.0414555
-0.0439049
-0.0438337
-0.0426746
-0.0434448
-0.0411186
-0.0418264
-0.0408464
-0.0407431
-0.0428925
-0.0415407
-0.0477236
-0.0449479
-0.0554812
-0.0512338
-0.0662619
-0.0604827
-0.0803935
-0.0728739
-0.0986097
-0.0889334
-0.121826
-0.109552
-0.150352
-0.135468
-0.18286
-0.166288
-0.216412
-0.199836
-0.246681
-0.232241
-0.284057
-0.258541
-0.272691
-0.29821
-0.292665
-0.29892
-0.300332
-0.28659
-0.294286
-0.262873
-0.276018
-0.230415
-0.247531
-0.19264
-0.211969
-0.152982
-0.172845
-0.114276
-0.133379
-0.0782198
-0.095844
-0.0459529
-0.061527
-0.0185723
-0.0316957
-0.00385446
-0.00650225
-0.0052769
-0.000909546
-0.00231595
0.00115287
0.000227709
0.00172935
0.00166981
0.000402601
0.00130394
-0.00283077
-0.000974307
-0.00813531
-0.00520274
-0.0159792
-0.0117026
-0.0270768
-0.0210698
-0.0423691
-0.0341362
-0.0628401
-0.0519117
-0.0887922
-0.075179
-0.118307
-0.103363
-0.145741
-0.132775
-0.163004
-0.15611
-0.164532
-0.165841
-0.150864
-0.159347
-0.126933
-0.139791
-0.0988939
-0.113061
-0.0718391
-0.0850145
-0.048426
-0.0596141
-0.029022
-0.0382574
-0.0129665
-0.0206214
0.000293875
-0.0060024
0.0108336
0.0059134
0.018471
0.0150245
0.0231563
0.021171
0.025282
0.0244895
0.0258848
0.0256828
0.0265364
0.0261031
0.028551
0.0273344
0.0315839
0.0300634
0.0338189
0.0329168
0.0339685
-0.263947
-0.274924
0.0215035
0.0301827
-0.22037
-0.200377
-0.278958
-0.247432
-0.198299
-0.230898
-0.242413
-0.0198621
-0.00786311
-0.272082
-0.187328
-0.168041
-0.142012
-0.111758
-0.0799278
-0.163989
-0.137078
-0.12603
-0.149585
-0.187721
-0.2225
-0.250891
-0.271864
-0.285134
-0.0430885
-0.0187863
-0.000831984
0.0113761
0.0276613
0.0193986
-0.212316
-0.146583
-0.144209
-0.138006
-0.144456
-0.117518
-0.128544
-0.0939891
-0.105936
-0.0707454
-0.0820979
-0.0507347
-0.0602409
-0.0348366
-0.042274
-0.0227998
-0.0283702
-0.0140837
-0.0180603
-0.0081659
-0.0108079
-0.00455602
-0.00610017
-0.00286572
-0.00349131
-0.00280226
-0.00264626
-0.00421609
-0.00332158
-0.00732263
-0.00553104
-0.0124092
-0.00962626
-0.0188123
-0.0155435
-0.0247022
-0.021949
-0.0283897
-0.0268798
-0.0295118
-0.0292365
-0.0290031
-0.0293695
-0.0284017
-0.0286166
-0.029121
-0.0285271
-0.0320654
-0.0302814
-0.0376331
-0.0345119
-0.0459292
-0.041439
-0.0570217
-0.0511168
-0.0712003
-0.0636937
-0.0891323
-0.0796448
-0.111654
-0.0997813
-0.139061
-0.124781
-0.170211
-0.154309
-0.202099
-0.186377
-0.21725
-0.293034
-0.267374
-0.281824
-0.306468
-0.301297
-0.306266
-0.308074
-0.292938
-0.301177
-0.268029
-0.281775
-0.234421
-0.252097
-0.195651
-0.215454
-0.155187
-0.175425
-0.115944
-0.135272
-0.079744
-0.0974009
-0.0473969
-0.0630177
-0.0330845
0.00678999
0.00412548
0.00555875
0.00915435
0.00804589
0.0107159
0.0100876
0.0107969
0.0109662
0.00918112
0.0101975
0.00590008
0.00775018
0.000799108
0.00359685
-0.00654305
-0.00255898
-0.0167547
-0.0112449
-0.0306674
-0.0231928
-0.0491748
-0.0393029
-0.0726385
-0.0603197
-0.0995444
-0.0858786
-0.124995
-0.112895
-0.141478
-0.134813
-0.14337
-0.144377
-0.130832
-0.138672
-0.10855
-0.120533
-0.0824161
-0.0956198
-0.0571857
-0.0694777
-0.0352778
-0.0457615
-0.0169817
-0.0257125
-0.00166154
-0.00899221
0.0111924
0.00506024
0.0216318
0.0167243
0.0294641
0.0258843
0.0346248
0.0323679
0.0374724
0.0362926
0.0389308
0.0382965
0.0402815
0.0395449
0.0423282
0.041218
0.0443816
0.0434584
0.0447661
0.0448842
0.0424141
0.0438983
0.0377653
0.0402684
0.0245003
0.031293
0.0347241
-0.277132
-0.291438
-0.239784
-0.215732
-0.251265
0.00299001
-0.290994
-0.266272
-0.209224
-0.288223
-0.193165
-0.168895
-0.138743
-0.105686
-0.0727893
-0.110029
-0.0878055
-0.0709207
0.0372495
0.0330063
0.0272311
-0.090037
-0.130285
-0.170277
-0.2077
-0.240686
-0.266633
-0.283766
-0.0371128
-0.0155699
-0.000327068
0.00997184
0.0165966
0.0206855
-0.22966
-0.110258
-0.100895
-0.116421
-0.115132
-0.108829
-0.114406
-0.0920503
-0.101022
-0.0727338
-0.0825019
-0.0537326
-0.0630351
-0.0372024
-0.0450797
-0.0238725
-0.0301387
-0.0135883
-0.018372
-0.00598163
-0.00947527
-0.000664055
-0.00306142
0.00273768
0.00125441
0.00453636
0.00382037
0.00498236
0.0049142
0.00423548
0.00475693
0.0021542
0.00338496
-0.00158881
0.000496604
-0.00665566
-0.00402588
-0.0116185
-0.00926008
-0.0149647
-0.0135515
-0.0162803
-0.0158493
-0.0163443
-0.0163891
-0.0165014
-0.0163255
-0.0179986
-0.0170214
-0.0216336
-0.0195195
-0.0277487
-0.024374
-0.0364148
-0.0317636
-0.0476675
-0.041711
-0.0617482
-0.0543269
-0.0792446
-0.070023
-0.100902
-0.0895182
-0.12699
-0.113419
-0.156526
-0.141451
-0.186759
-0.171798
-0.213864
-0.200959
-0.233652
-0.224935
-0.273296
-0.239455
-0.257409
-0.298274
-0.287165
-0.310941
-0.306256
-0.31006
-0.312196
-0.295926
-0.304586
-0.270201
-0.284342
-0.235923
-0.253909
-0.196698
-0.2167
-0.155922
-0.176279
-0.116566
-0.135937
-0.0804599
-0.0980282
-0.0484578
-0.0639251
-0.0209342
-0.0341104
0.00190454
-0.00898787
0.0139891
0.0116952
0.0128313
0.0163241
0.0151612
0.0183486
0.0173871
0.0194424
0.0190461
0.0191277
0.0194739
0.0173185
0.0184033
0.0140694
0.0158757
0.00923457
0.011868
0.00244385
0.00611194
-0.00684307
-0.00184863
-0.0193435
-0.0126433
-0.0358467
-0.0270542
-0.0567425
-0.045765
-0.0808926
-0.0685863
-0.104184
-0.0930341
-0.119814
-0.113394
-0.122155
-0.122804
-0.110856
-0.118007
-0.0902563
-0.101357
-0.0659845
-0.0782534
-0.0425199
-0.0539555
-0.0221013
-0.0318807
-0.00496685
-0.0131572
0.00949924
0.00255917
0.0217814
0.0159007
0.0319246
0.0271306
0.0397379
0.036133
0.0451538
0.0427356
0.0485057
0.0470466
0.0505987
0.0496454
0.0523816
0.0514845
0.054141
0.0532953
0.0549775
0.0547596
0.0537015
0.0546553
0.0499824
0.0521176
0.0443537
0.0473506
0.0409537
-0.285796
-0.302646
0.0225766
0.0283318
-0.256745
-0.228591
-0.295395
-0.281038
-0.216691
-0.214822
-0.220341
0.000860667
0.0105553
-0.3
-0.195133
-0.166023
-0.132407
-0.0976218
-0.064938
-0.050775
-0.033762
-0.0153288
-0.0291203
-0.0669135
-0.106905
-0.147581
-0.187057
-0.22367
-0.254671
-0.277537
-0.0321643
-0.0136996
-0.000891534
0.00765497
0.0131105
0.0161357
0.0231008
0.0173445
-0.244525
-0.0642856
-0.0499069
-0.0834209
-0.0757568
-0.0877204
-0.0871019
-0.0816952
-0.0859756
-0.0686344
-0.0756712
-0.0532607
-0.0610469
-0.0381057
-0.0455397
-0.0247146
-0.0311316
-0.0136766
-0.018896
-0.00497
-0.00904381
0.00162211
-0.00142659
0.00637036
0.0042087
0.00955208
0.00814007
0.0114149
0.0106344
0.0121677
0.0119176
0.0119682
0.012183
0.0107419
0.011502
0.00816426
0.00963759
0.00431227
0.0063543
0.000223296
0.00220613
-0.00277813
-0.00147077
-0.00422125
-0.00367637
-0.00472779
-0.00452311
-0.00546934
-0.00499346
-0.00755237
-0.00628876
-0.0116885
-0.0093378
-0.0181752
-0.0146327
-0.0270539
-0.022318
-0.0383264
-0.0323868
-0.0521793
-0.0449074
-0.0691119
-0.0602206
-0.0897692
-0.0789444
-0.11439
-0.101608
-0.142103
-0.127976
-0.170498
-0.156438
-0.195994
-0.183895
-0.206505
-0.27564
-0.241852
-0.260063
-0.299603
-0.288889
-0.311504
-0.307167
-0.31005
-0.312473
-0.295357
-0.304282
-0.269249
-0.283553
-0.234827
-0.252854
-0.195686
-0.215621
-0.155231
-0.175425
-0.116236
-0.13542
-0.080522
-0.0978876
-0.0490229
-0.0642327
-0.0218577
-0.0348749
-0.00998275
0.0228857
0.0206702
0.0218036
0.0249841
0.0239068
0.0266325
0.0258861
0.0273325
0.0271321
0.0267176
0.0271945
0.0247987
0.0259126
0.0216451
0.0233784
0.0171216
0.0195702
0.0109108
0.0142508
0.00255887
0.00703514
-0.00853753
-0.00260552
-0.0230538
-0.0153322
-0.0413777
-0.0317493
-0.0626971
-0.0517992
-0.0836829
-0.0735599
-0.0983602
-0.0922188
-0.101203
-0.101449
-0.0912731
-0.0976747
-0.0723894
-0.0826083
-0.0499145
-0.0612894
-0.0281153
-0.0387446
-0.00911638
-0.018219
0.00685619
-0.000783951
0.0203949
0.0138904
0.0319755
0.0264169
0.0416582
0.0370629
0.0492748
0.0457341
0.0547703
0.052278
0.0584477
0.0568007
0.0609507
0.0598004
0.0628473
0.0619609
0.0639975
0.0635614
0.0635462
0.0640283
0.0608749
0.0624956
0.0561719
0.0587413
0.0499823
0.0532366
0.0424511
0.0463828
0.0334215
0.0381073
0.0171722
0.0224461
0.0282035
-0.288036
-0.310088
-0.269832
-0.237795
-0.223119
0.0193194
-0.288155
-0.290087
-0.219905
-0.307556
-0.192847
-0.159544
-0.123532
-0.0883673
-0.0572199
0.00496306
0.0164467
0.0338599
0.0253032
-0.00535204
-0.0413518
-0.0804445
-0.121279
-0.162094
-0.201218
-0.235844
-0.264585
-0.0286498
-0.0131197
-0.00245952
0.00454795
0.00880856
0.0108694
0.0112755
0.0272392
0.0160163
0.0211559
-0.255616
-0.0151019
0.000224807
-0.0413043
-0.029602
-0.057341
-0.0508082
-0.0612952
-0.0606239
-0.0572006
-0.0600934
-0.0476117
-0.0528807
-0.035827
-0.0418213
-0.0240262
-0.0298437
-0.0133384
-0.0184969
-0.00429516
-0.00859921
0.00301311
-0.000428429
0.00868811
0.00604441
0.0129041
0.0109659
0.0158606
0.0145269
0.0177498
0.0169274
0.0187425
0.0183478
0.0189838
0.0189514
0.0184542
0.0188288
0.0168646
0.0178124
0.0141033
0.0156095
0.0108422
0.0124642
0.00819389
0.00938548
0.00668019
0.00730381
0.0058413
0.00623415
0.00466535
0.00536257
0.00216484
0.0036297
-0.00230301
0.000200243
-0.00900173
-0.00536962
-0.0179488
-0.0131983
-0.0291133
-0.0232525
-0.0426241
-0.0355574
-0.0588878
-0.0503786
-0.0784452
-0.0682291
-0.101496
-0.089555
-0.127282
-0.114149
-0.153735
-0.140611
-0.177489
-0.166234
-0.195254
-0.187371
-0.203809
-0.200752
-0.241417
-0.203716
-0.223151
-0.273995
-0.258668
-0.29689
-0.286794
-0.308083
-0.304059
-0.306139
-0.308787
-0.291203
-0.300208
-0.265193
-0.279405
-0.231197
-0.248973
-0.192748
-0.21231
-0.153149
-0.172908
-0.115013
-0.133772
-0.0800624
-0.097065
-0.0492301
-0.0641075
-0.0226589
-0.0354204
-0.00025759
-0.0109867
0.0180637
0.00924769
0.0284429
0.0258029
0.0271815
0.0307205
0.0296319
0.032664
0.0317454
0.0340372
0.0334474
0.0344127
0.0343716
0.0335783
0.0341448
0.0316202
0.0327304
0.0286109
0.0302494
0.024428
0.0266795
0.018807
0.0218167
0.0113759
0.0153444
0.00164077
0.00682962
-0.0109569
-0.00426963
-0.0267749
-0.018466
-0.0452643
-0.0357872
-0.0638337
-0.0548057
-0.077425
-0.07162
-0.0807695
-0.0805923
-0.0723285
-0.0779027
-0.0552322
-0.0645503
-0.0344944
-0.0450182
-0.0142378
-0.0241253
0.00345457
-0.00502285
0.0183198
0.0112116
0.0309128
0.0248618
0.0417123
0.0365219
0.0508159
0.0464819
0.0581014
0.0546929
0.0635355
0.0610409
0.0673641
0.065624
0.0700098
0.0688111
0.0716636
0.0709704
0.0719546
0.072021
0.0702934
0.0713922
0.0665668
0.0686708
0.0611964
0.064052
0.0546378
0.0580512
0.0469486
0.0509463
0.0378776
0.0425859
0.0327639
-0.287301
-0.314168
0.0104705
-0.277789
-0.242413
-0.286534
-0.291927
-0.218404
-0.183607
-0.183987
0.0165729
0.0242745
-0.304937
-0.186402
-0.14997
-0.112955
-0.0788794
-0.0504096
0.051514
0.0585588
0.0730149
0.00891056
0.0144445
0.0692774
0.0459539
0.0178004
-0.0152591
-0.0530367
-0.093045
-0.13437
-0.174562
-0.212219
-0.245126
-0.0266483
-0.0137298
-0.00497867
0.000599448
0.00367516
0.00474844
0.00435062
-0.261843
0.0291957
0.0434373
0.00174549
0.0148834
-0.0200327
-0.0101552
-0.0334474
-0.0278205
-0.038007
-0.0367763
-0.0357627
-0.0375551
-0.0291373
-0.0328555
-0.0204759
-0.0249271
-0.0114873
-0.0159551
-0.00307965
-0.0071709
0.00424923
0.000735564
0.0103349
0.0074488
0.0151922
0.0129119
0.0189189
0.0171886
0.0216517
0.0204
0.0235366
0.0226912
0.0247105
0.0242039
0.0253
0.0250721
0.0253243
0.0253913
0.02455
0.0250584