/*--------------------------------*- C++ -*----------------------------------*\
  =========                 |
  \\      /  F ield         | OpenFOAM: The Open Source CFD Toolbox
   \\    /   O peration     | Website:  https://openfoam.org
    \\  /    A nd           | Version:  10
     \\/     M anipulation  |
\*---------------------------------------------------------------------------*/
FoamFile
{
    format      ascii;
    class       volVectorField;
    location    "23";
    object      U;
}
// * * * * * * * * * * * * * * * * * * * * * * * * * * * * * * * * * * * * * //

dimensions      [0 1 -1 0 0 0 0];

internalField   nonuniform List<vector> 
28942
(
(-0.0944953 0.0441181 -3.40897e-20)
(-0.0940239 0.0311093 -7.17535e-21)
(0.515695 -0.357013 7.55084e-20)
(1.01556 0.0428183 -1.13386e-19)
(0.993838 0.0525471 3.7254e-20)
(0.22889 0.00680411 0)
(0.276566 0.0239667 3.03667e-22)
(0.312361 0.00473356 -2.76526e-22)
(1.22858 -0.102321 3.99006e-21)
(1.21506 -0.090111 -9.13042e-21)
(-0.0447074 -0.214533 -1.77483e-19)
(0.010335 -0.181264 8.13872e-20)
(-0.0782753 -0.16118 0)
(-0.100231 -0.186773 0)
(0.697448 -0.00972717 -3.35469e-22)
(0.687927 -0.00683501 -9.63685e-23)
(0.930026 0.0785737 3.23608e-20)
(0.91417 0.0625518 5.12496e-20)
(0.350099 -0.48324 2.22856e-20)
(0.664644 -0.765969 -7.01262e-21)
(0.978891 0.219754 4.57379e-20)
(0.980153 0.204136 0)
(0.0701919 -0.00691286 1.63348e-19)
(-0.0772567 -0.0461832 9.06714e-20)
(0.79877 -0.16725 1.81224e-19)
(1.18948 -0.270442 -1.64694e-19)
(0.201826 -0.503299 4.53351e-19)
(0.210025 -0.421474 -1.78991e-19)
(0.787267 -0.568275 -1.99914e-20)
(0.481905 -0.33265 -8.4018e-21)
(0.24612 -0.0171083 0)
(0.318954 -0.0231103 2.28285e-22)
(0.401663 -4.16996e-05 8.55281e-21)
(0.554116 -0.0136101 -1.22359e-21)
(0.42958 0.458545 4.36858e-20)
(0.359244 0.501254 -4.70601e-20)
(0.574015 0.65273 -1.45361e-19)
(0.373466 0.578476 -5.40638e-20)
(0.121727 0.0118572 -2.96115e-22)
(0.198296 0.452479 -9.72572e-20)
(0.657083 -0.0597656 0)
(0.856049 -0.0778817 0)
(1.14447 -0.346791 1.17628e-22)
(1.11917 -0.348013 -1.63916e-22)
(1.13863 -0.323671 -2.78644e-22)
(0.441382 0.00439798 2.95766e-22)
(0.412353 0.0146244 -4.86622e-22)
(0.568376 0.000130632 -2.23276e-21)
(0.547989 0.000755791 6.29651e-22)
(0.452558 0.00201263 -4.87354e-21)
(0.362766 -0.00436952 3.01683e-21)
(1.12275 0.0137808 3.94685e-24)
(1.12241 0.00983072 -9.65323e-23)
(1.22866 -0.121798 -2.49063e-22)
(1.21312 -0.10928 -1.29916e-21)
(1.42797 -0.12616 1.45231e-19)
(1.60595 -0.192633 7.73268e-20)
(-0.0894516 -0.0949217 -1.06688e-19)
(-0.0602157 -0.123156 0)
(-0.0636 -0.0767765 3.85725e-20)
(-0.0826171 -0.0695767 9.35e-20)
(-0.0429351 -0.0354736 -7.52103e-20)
(-0.0452892 -0.0410029 -7.86609e-20)
(1.40764 -0.572762 0)
(1.56628 -0.480438 3.01769e-20)
(1.42916 -0.415073 -1.35174e-20)
(1.35166 -0.420694 0)
(0.948716 -0.248567 -2.66905e-20)
(0.969904 -0.266706 -1.69668e-20)
(-0.055929 0.0355357 1.13218e-19)
(-0.0717528 0.0427165 -3.62506e-20)
(-0.0953543 0.063043 9.16575e-20)
(0.957972 -0.339068 0)
(0.966409 -0.298539 8.94447e-20)
(0.905708 -0.45937 2.10244e-20)
(1.40559 0.313027 3.10926e-20)
(1.43476 0.295017 -3.41968e-20)
(1.41397 0.259225 -1.8638e-20)
(0.161003 -0.0905063 3.89744e-21)
(0.231826 -0.14327 -7.48509e-20)
(1.06697 -0.656887 -1.68686e-20)
(0.803933 -0.541088 2.17133e-20)
(-0.0759808 0.0436266 1.96639e-19)
(-0.0805281 0.0455374 -7.57429e-20)
(1.2266 0.575356 -1.71905e-21)
(1.15885 0.539552 -2.84949e-20)
(1.05409 0.63789 2.37838e-20)
(0.903245 0.632321 -8.0869e-20)
(0.864008 0.611735 5.58361e-20)
(0.645924 0.444156 -2.86578e-21)
(0.708184 0.529222 -1.78737e-20)
(0.748424 0.606797 2.76555e-20)
(-0.168676 -0.289817 -2.23355e-20)
(-0.0684183 -0.256131 -5.93643e-21)
(-0.159717 -0.262443 1.18835e-20)
(-0.21158 -0.311301 -1.52606e-19)
(-0.212367 -0.338197 1.95136e-19)
(0.361582 0.28537 -1.05828e-19)
(0.406344 0.346647 2.41992e-20)
(-0.0181895 0.018421 0)
(1.00707 0.00433853 0)
(0.96534 0.0535872 -8.51236e-20)
(0.889593 0.135702 6.18198e-20)
(1.0799 0.118542 0)
(1.38976 0.100678 0)
(1.39497 0.0976981 0)
(1.40763 0.105976 2.38824e-20)
(1.07445 0.162735 -8.70105e-21)
(1.0707 0.173284 8.9339e-20)
(1.06493 0.152928 4.73265e-20)
(-0.0988712 -0.117967 2.14942e-19)
(-0.105148 -0.128862 -2.4112e-19)
(0.0104366 0.0120515 -6.17851e-20)
(-0.0417619 -0.0308242 5.70423e-20)
(-0.0939061 -0.020389 1.14859e-19)
(0.162079 0.195659 8.35816e-20)
(0.376636 0.193569 2.01603e-19)
(0.289262 0.405967 1.4544e-20)
(0.128202 0.312243 -4.90329e-19)
(1.2482 0.451918 2.60003e-21)
(1.10702 0.426928 4.71502e-20)
(1.14386 0.410881 -8.13396e-20)
(0.869421 -0.675047 -4.55529e-21)
(0.591568 -0.429966 9.94176e-21)
(0.157299 -0.0422751 -2.44633e-19)
(0.150131 -0.117157 0)
(0.309174 -0.0928696 1.33539e-19)
(0.551029 -0.425271 -1.27736e-22)
(0.782794 -0.666622 1.17923e-20)
(0.538711 0.00317525 1.80975e-21)
(0.573601 0.00141578 -1.3776e-21)
(0.502609 0.00259196 -6.96812e-23)
(0.535522 -0.827877 0)
(0.561309 -0.649105 0)
(1.06182 -0.13298 -1.84954e-20)
(1.04805 -0.114628 1.08855e-19)
(1.03215 -0.081039 0)
(0.878469 -0.786967 0)
(0.871044 -0.722806 -1.88344e-20)
(0.718707 0.688821 9.34442e-20)
(-0.113985 -0.142979 1.46417e-19)
(-0.100541 -0.117926 -1.09089e-19)
(0.599218 -0.557469 -2.74874e-22)
(1.15306 -0.296372 -2.00475e-21)
(1.13695 -0.294643 -3.30115e-23)
(1.54991 -0.12271 -2.2037e-20)
(1.55889 -0.0837461 2.94855e-20)
(1.54148 -0.0621377 9.90808e-20)
(-0.0961362 -0.101791 5.08551e-20)
(0.827431 0.677138 1.27848e-19)
(0.959957 0.656419 -3.58831e-20)
(1.03819 0.704409 -3.79653e-24)
(0.384365 -0.0112876 -1.82743e-23)
(0.382491 -0.012754 -4.99573e-22)
(0.418684 -0.016875 -4.61355e-23)
(0.459496 -0.0139391 -1.92182e-23)
(0.777609 0.666702 1.57569e-20)
(0.421871 0.396947 0)
(0.0616682 -0.198693 7.89993e-20)
(0.0522707 -0.127663 -8.67067e-20)
(-0.0419271 -0.139136 5.90801e-20)
(0.475713 0.0691154 -1.38076e-19)
(0.997705 0.235385 -6.57159e-20)
(0.525413 -0.0142727 1.48753e-22)
(1.39117 -0.484768 3.22003e-20)
(1.34387 -0.566624 8.50669e-20)
(0.959674 0.241405 1.05752e-19)
(0.939659 0.277514 7.41474e-21)
(0.923994 0.161689 5.89564e-20)
(0.940218 0.16836 -4.25925e-20)
(0.983583 0.244082 0)
(1.13188 0.0240756 4.18465e-21)
(1.13687 0.0209505 7.63653e-21)
(1.16593 -0.0622725 1.07716e-21)
(1.17525 -0.0634703 -2.43059e-21)
(1.08619 0.152821 1.03445e-20)
(1.09821 0.161096 -2.91514e-20)
(1.08628 0.163051 0)
(1.07461 0.15288 6.32428e-21)
(1.08402 0.173265 0)
(1.08678 0.225091 -2.36215e-20)
(1.08008 0.23807 -1.32e-20)
(1.0572 0.260451 -2.46702e-20)
(1.07015 0.250183 0)
(1.08941 0.270927 7.93858e-20)
(1.07262 0.283883 2.66437e-21)
(1.04065 0.275671 -1.43903e-20)
(0.987707 0.327138 -6.31721e-20)
(0.987623 0.270244 -1.0974e-20)
(-0.065261 0.099539 2.31828e-20)
(0.0347165 0.0991262 -9.4201e-21)
(-0.084718 -0.0238075 -8.39441e-20)
(0.481073 0.00132748 -1.39462e-21)
(0.606309 -0.000788638 0)
(0.0371405 -0.0329541 7.84312e-20)
(0.0251842 -0.0195492 3.81944e-20)
(0.551912 0.0023461 4.83257e-22)
(0.642288 9.16914e-05 1.45385e-22)
(0.636617 7.54179e-05 0)
(0.540809 0.00446388 2.04807e-22)
(1.1208 0.650894 7.54354e-21)
(1.10291 0.661447 -3.45242e-20)
(1.1021 0.64786 -1.39366e-20)
(-0.111809 -0.128653 9.22369e-20)
(-0.0448632 -0.0446854 -1.19294e-19)
(-0.0516915 -0.0520692 1.14323e-19)
(-0.07369 -0.0504835 0)
(-0.0347848 -0.0211627 1.59735e-19)
(-0.0330109 -0.0231649 -1.38596e-19)
(-0.074146 -0.0240498 -1.42829e-19)
(-0.111869 -0.0491121 -1.42067e-19)
(-0.0676157 -0.033922 0)
(0.0543269 0.197544 0)
(0.0243374 0.119756 0)
(0.0096212 0.0661979 0)
(1.37969 0.0893086 -2.77187e-21)
(1.36525 0.0763416 0)
(1.38375 0.0827552 3.04203e-21)
(0.930841 -0.11518 1.9389e-19)
(0.944381 -0.121004 -7.03972e-20)
(0.940889 -0.104208 0)
(0.90001 0.0617549 1.17672e-21)
(0.902821 -0.0509632 -2.39015e-21)
(0.898534 0.171124 7.80754e-22)
(0.907432 -0.163087 0)
(0.913963 -0.27076 1.39423e-21)
(0.921594 -0.369396 0)
(0.952828 -0.37516 0)
(0.931511 -0.456348 -5.1112e-21)
(0.961642 -0.46195 0)
(0.945776 -0.275564 1.5508e-21)
(0.939253 -0.166545 0)
(0.934837 -0.0528073 -8.56984e-22)
(0.932068 0.0620842 1.22115e-21)
(0.930382 0.172692 -7.79752e-22)
(0.942571 -0.528863 4.88923e-21)
(0.970198 -0.534197 1.68483e-22)
(0.899147 0.27427 -1.82741e-23)
(0.929563 0.277946 1.1234e-21)
(0.901604 0.367471 -5.29663e-21)
(0.952802 -0.585812 -4.11539e-24)
(0.978209 -0.591804 1.47533e-22)
(0.930909 0.372238 -2.10129e-21)
(0.96232 -0.62796 -3.87801e-21)
(0.97056 -0.656033 3.87467e-21)
(0.985602 -0.633705 -3.18435e-22)
(0.991653 -0.661028 -5.49382e-22)
(0.905164 0.445126 5.15188e-21)
(0.933481 0.452171 1.34931e-21)
(0.977393 -0.672171 0)
(0.996102 -0.676018 5.41782e-22)
(0.911972 0.508587 -5.70769e-25)
(0.937513 0.517189 5.73044e-25)
(0.982482 -0.678768 0)
(0.99873 -0.681213 0)
(0.919952 0.554593 0)
(0.943028 0.56417 0)
(0.985843 -0.678431 0)
(0.999603 -0.67935 -2.16977e-22)
(0.929764 0.583493 1.81376e-21)
(0.949912 0.594041 4.76544e-25)
(0.987413 -0.67344 -1.11347e-23)
(0.998737 -0.672839 2.31412e-22)
(0.940671 0.597522 -1.82247e-21)
(0.957896 0.608549 0)
(0.987393 -0.665681 0)
(0.996348 -0.663624 0)
(0.952381 0.60047 1.00399e-22)
(0.966628 0.611583 -1.6765e-21)
(0.985884 -0.656598 -1.30132e-21)
(0.992538 -0.653216 0)
(0.964283 0.59717 -1.75994e-23)
(0.975652 0.607932 1.58364e-21)
(0.983055 -0.647225 1.94377e-21)
(0.987501 -0.64245 5.42247e-22)
(0.975944 0.592721 -1.42118e-21)
(0.984377 0.602498 0)
(0.978982 -0.638471 -6.38431e-22)
(0.981205 -0.632368 -3.63494e-22)
(0.986396 0.590078 6.44856e-22)
(0.992345 0.59889 -1.31819e-21)
(0.97352 -0.631537 2.53488e-21)
(0.973541 -0.62382 -2.85178e-21)
(0.995919 0.592338 -6.04844e-22)
(0.999326 0.59975 -1.92852e-23)
(0.966813 -0.627165 0)
(0.964463 -0.617936 -1.32536e-21)
(1.00406 0.598384 1.18286e-21)
(1.00504 0.604748 -2.37157e-21)
(0.958443 -0.625527 0)
(0.954056 -0.614903 0)
(0.993044 0.582221 5.98352e-22)
(1.00353 0.589505 2.22845e-21)
(1.01129 0.608065 0)
(1.00986 0.61345 1.15637e-21)
(0.968328 0.579691 4.0889e-22)
(0.981456 0.578681 -7.98647e-23)
(0.939809 0.585823 0)
(0.954401 0.583126 1.51433e-21)
(0.91167 0.569367 3.95106e-24)
(0.925335 0.582853 0)
(0.888925 0.49688 0)
(0.899306 0.541591 0)
(0.87434 0.357782 0)
(0.880296 0.435731 0)
(0.868995 0.168381 -1.45041e-21)
(0.870497 0.268439 -3.51066e-22)
(0.8728 -0.0493189 1.438e-21)
(0.869938 0.0603709 1.38429e-21)
(0.885524 -0.262797 -2.63817e-21)
(0.878243 -0.158037 -3.20891e-21)
(0.904698 -0.444804 0)
(0.894064 -0.358901 0)
(0.929074 -0.573873 9.54921e-24)
(0.916804 -0.516766 0)
(0.95127 -0.64585 0)
(0.940722 -0.616528 0)
(0.967974 -0.6722 0)
(0.960439 -0.663651 0)
(0.977747 -0.670799 0)
(0.973746 -0.673852 0)
(0.980911 -0.657382 0)
(0.980083 -0.664839 0)
(0.978496 -0.642385 0)
(0.980355 -0.649595 0)
(0.970448 -0.633766 1.14158e-21)
(0.975243 -0.636961 0)
(0.964234 -0.633702 3.99742e-22)
(0.948518 -0.625807 -3.66084e-22)
(0.942108 -0.613953 3.62968e-22)
(0.974633 -0.614997 0)
(0.951278 -0.602896 1.31851e-21)
(0.963665 -0.607524 7.07191e-22)
(0.992462 -0.635901 -1.802e-22)
(0.98407 -0.624829 6.66486e-22)
(1.00551 -0.659386 -5.98088e-24)
(0.999521 -0.647758 0)
(1.01355 -0.678215 0)
(1.01023 -0.670042 0)
(1.01528 -0.678684 0)
(1.01528 -0.68193 0)
(1.0099 -0.640032 0)
(1.01348 -0.665639 -1.09085e-27)
(0.998543 -0.542459 -1.14159e-23)
(1.00476 -0.599436 0)
(0.98541 -0.380313 0)
(0.992022 -0.468486 0)
(0.973605 -0.170678 0)
(0.979353 -0.279447 0)
(0.965691 0.0602111 0)
(0.968797 -0.0557322 8.5652e-22)
(0.961451 0.278095 -1.76806e-22)
(0.963696 0.172847 1.06304e-21)
(0.962342 0.454621 0)
(0.961601 0.372557 7.93271e-22)
(0.966576 0.568504 0)
(0.963814 0.520317 0)
(0.975415 0.614714 0)
(0.970458 0.599343 0)
(0.987283 0.614791 0)
(0.981167 0.618287 0)
(0.998631 0.604682 3.54779e-22)
(0.993179 0.608967 0)
(1.00643 0.608266 1.21695e-21)
(1.00302 0.604372 3.33647e-22)
(1.00869 0.615747 -1.18225e-21)
(1.01301 0.599782 -2.17779e-21)
(0.956548 -0.635389 -8.17737e-22)
(0.937401 -0.600404 1.39333e-21)
(1.01345 0.6241 0)
(1.00959 0.625104 0)
(1.02182 0.611797 0)
(1.01756 0.619565 0)
(0.990876 0.569894 0)
(1.01469 0.588489 -5.01747e-22)
(1.00311 0.577935 -5.67403e-22)
(0.962649 0.565094 -8.09609e-22)
(0.977502 0.565371 1.57797e-22)
(0.929715 0.570233 -2.88286e-24)
(0.946518 0.56776 0)
(0.896564 0.555673 0)
(0.912788 0.567836 0)
(0.868956 0.487285 0)
(0.881749 0.529667 0)
(0.850586 0.353044 0)
(0.858466 0.428151 0)
(0.843143 0.166053 0)
(0.845456 0.264789 0)
(0.84621 -0.0452975 5.87865e-24)
(0.843437 0.0619942 -1.48658e-21)
(0.860186 -0.254011 5.22296e-24)
(0.851958 -0.152501 2.97432e-21)
(0.882215 -0.432465 0)
(0.870385 -0.348345 0)
(0.90945 -0.560898 -4.6454e-24)
(0.89555 -0.503684 0)
(0.93552 -0.63467 0)
(0.922964 -0.604192 0)
(0.956375 -0.664289 0)
(0.946746 -0.653992 0)
(0.970343 -0.666466 0)
(0.964244 -0.667754 0)
(0.977655 -0.656205 0)
(0.974765 -0.662157 0)
(0.97928 -0.644033 0)
(0.979147 -0.649835 0)
(0.975392 -0.638325 -7.76006e-22)
(0.978079 -0.639993 0)
(0.937247 -0.626224 0)
(0.947606 -0.636746 -9.22148e-22)
(0.965935 -0.642544 0)
(0.97137 -0.639561 -7.94242e-22)
(0.950439 -0.589534 -1.2237e-21)
(0.934983 -0.585569 -2.99202e-22)
(0.922004 -0.598681 -2.7348e-21)
(0.928572 -0.613277 0)
(0.977078 -0.604562 0)
(0.964557 -0.595761 1.86239e-21)
(0.998307 -0.627451 -5.14764e-24)
(0.9881 -0.615481 -6.70514e-22)
(1.0155 -0.652935 5.98091e-24)
(1.00734 -0.64022 0)
(1.02827 -0.674396 0)
(1.02252 -0.664818 0)
(1.0352 -0.678097 0)
(1.03255 -0.679666 0)
(1.03522 -0.642883 0)
(1.0361 -0.666787 1.09086e-27)
(1.02878 -0.548151 2.28684e-23)
(1.03269 -0.60384 0)
(1.01875 -0.386722 0)
(1.02393 -0.475388 0)
(1.00884 -0.174465 -4.4744e-22)
(1.0136 -0.285131 0)
(1.00058 0.0572041 0)
(1.00418 -0.0592242 4.45558e-22)
(0.994448 0.276227 -8.29082e-22)
(0.997467 0.170589 -8.67301e-22)
(0.991027 0.454792 0)
(0.992778 0.372286 0)
(0.990198 0.570429 0)
(0.990212 0.52126 0)
(0.993168 0.618398 0)
(0.991191 0.60217 0)
(0.999238 0.619308 0)
(0.99597 0.622571 0)
(1.0054 0.608337 -5.42487e-24)
(1.00252 0.613232 0)
(1.0083 0.609573 4.70094e-24)
(1.00736 0.606942 0)
(1.00625 0.623652 1.15622e-21)
(1.00797 0.615701 -1.15544e-21)
(1.02586 0.600801 -1.03133e-21)
(1.00912 0.635145 0)
(1.00313 0.632216 2.24229e-21)
(1.01576 0.635362 0)
(0.959595 -0.645093 0)
(0.917938 -0.582857 3.03234e-22)
(1.02989 0.624837 -2.81218e-21)
(1.03662 0.614338 -1.11833e-21)
(1.00696 0.644856 -6.27743e-22)
(0.998211 0.640274 -2.84587e-21)
(1.02285 0.631988 0)
(0.976595 -0.646991 -3.41994e-21)
(0.97253 -0.650552 1.75009e-21)
(0.905809 -0.594849 7.03814e-22)
(0.899683 -0.578172 -3.4605e-21)
(1.04295 0.601203 -3.68478e-21)
(1.04683 0.628729 2.16608e-21)
(1.06722 0.631205 1.00011e-20)
(1.05568 0.616059 2.10011e-21)
(1.01666 0.575168 -9.7328e-22)
(1.0299 0.587488 3.07938e-21)
(0.989327 0.555929 1.06101e-21)
(1.00325 0.564416 7.6063e-22)
(0.957894 0.548971 3.15284e-22)
(0.974355 0.550432 2.72559e-22)
(0.921018 0.552371 2.88286e-24)
(0.939923 0.550518 0)
(0.883427 0.538906 0)
(0.901902 0.550119 0)
(0.851541 0.474404 0)
(0.866418 0.51454 0)
(0.829989 0.345587 0)
(0.839299 0.4178 0)
(0.820603 0.165045 0)
(0.823732 0.260337 0)
(0.823551 -0.0409827 0)
(0.820654 0.0633238 0)
(0.838329 -0.244653 -4.29027e-25)
(0.82949 -0.145062 0)
(0.862492 -0.418959 0)
(0.849481 -0.336672 0)
(0.892294 -0.54636 -4.05929e-24)
(0.877016 -0.489242 0)
(0.921786 -0.621806 0)
(0.907434 -0.590227 0)
(0.946444 -0.654595 0)
(0.934889 -0.642601 0)
(0.964346 -0.660269 0)
(0.95627 -0.659831 0)
(0.975633 -0.653093 0)
(0.970758 -0.65757 0)
(0.981232 -0.643646 0)
(0.979112 -0.648096 0)
(0.981497 -0.64063 -3.9796e-22)
(0.982055 -0.640944 1.9818e-22)
(0.979658 -0.64298 1.68223e-21)
(0.925177 -0.623469 4.16542e-22)
(0.952307 -0.643785 -1.94349e-21)
(0.937913 -0.634787 1.31125e-21)
(0.914124 -0.609678 0)
(0.951056 -0.574908 8.69885e-22)
(0.915653 -0.565736 2.64908e-21)
(0.934254 -0.56954 -1.99909e-21)
(0.980362 -0.592386 0)
(0.96653 -0.582459 0)
(1.00489 -0.617001 3.47939e-25)
(0.992934 -0.604178 0)
(1.02624 -0.644263 0)
(1.01595 -0.630571 0)
(1.04381 -0.668172 6.40493e-24)
(1.03559 -0.657266 0)
(1.05609 -0.675086 0)
(1.05073 -0.674962 0)
(1.0615 -0.643376 0)
(1.05972 -0.665554 0)
(1.05988 -0.551265 -1.14527e-23)
(1.06149 -0.605829 0)
(1.05321 -0.391235 -1.29996e-23)
(1.05699 -0.47927 0)
(1.04468 -0.178996 0)
(1.049 -0.289797 0)
(1.03621 0.0535983 0)
(1.04043 -0.0630537 0)
(1.02798 0.273334 0)
(1.03204 0.167004 0)
(1.02043 0.452521 0)
(1.02419 0.369632 0)
(1.01445 0.569647 9.6206e-24)
(1.01718 0.519682 0)
(1.01157 0.619395 0)
(1.01257 0.60229 0)
(1.01179 0.621297 0)
(1.0114 0.624237 0)
(1.01265 0.609652 1.51585e-25)
(1.01236 0.615114 0)
(1.01066 0.608727 -1.99738e-25)
(1.01218 0.607271 0)
(1.00364 0.619809 -4.11229e-24)
(1.00782 0.613383 0)
(0.990464 0.633118 2.14008e-21)
(0.997944 0.626838 -5.11776e-22)
(0.991256 0.646689 -5.62496e-22)
(0.980879 0.637514 -1.06995e-21)
(1.03725 0.638533 1.06862e-21)
(1.01646 0.646671 1.17071e-21)
(0.967783 -0.650457 -4.87798e-22)
(0.895937 -0.560208 -2.10381e-21)
(1.05572 0.644022 -1.03592e-22)
(1.00264 0.653133 0)
(1.08068 0.65001 -1.69545e-20)
(0.968687 0.638559 -1.77859e-21)
(0.981804 0.64995 -2.53669e-21)
(1.10314 0.64176 2.80803e-20)
(1.1256 0.647995 -5.44091e-21)
(1.02688 0.644523 0)
(1.07667 0.614846 -2.30683e-21)
(1.09074 0.628442 -1.33123e-21)
(1.04877 0.585922 -2.01713e-21)
(1.06312 0.60044 3.13436e-21)
(1.01889 0.560165 9.79011e-22)
(1.03394 0.572341 4.57916e-22)
(0.988183 0.540122 -5.06631e-22)
(1.00372 0.549245 -4.95635e-22)
(0.953927 0.530963 0)
(0.971814 0.533738 -1.74143e-23)
(0.913926 0.532472 0)
(0.934538 0.531311 0)
(0.872385 0.520219 -2.83587e-24)
(0.892889 0.530365 0)
(0.836659 0.460024 0)
(0.853386 0.497695 0)
(0.81218 0.337216 0)
(0.822812 0.406252 0)
(0.801213 0.163171 0)
(0.804977 0.255172 0)
(0.804008 -0.0365606 -4.52746e-24)
(0.800961 0.0647066 0)
(0.81963 -0.234355 -4.54211e-25)
(0.810271 -0.137432 0)
(0.845639 -0.404625 0)
(0.831601 -0.324169 0)
(0.877709 -0.530518 7.78364e-24)
(0.861239 -0.473751 0)
(0.910136 -0.607283 0)
(0.894234 -0.574755 0)
(0.938193 -0.643061 0)
(0.9249 -0.629446 0)
(0.959736 -0.652142 0)
(0.949817 -0.650017 0)
(0.974799 -0.648003 0)
(0.968024 -0.651025 0)
(0.984267 -0.641213 0)
(0.980188 -0.644358 0)
(0.988634 -0.640664 2.00897e-22)
(0.98706 -0.639767 0)
(0.988335 -0.648911 0)
(0.988929 -0.644039 4.11663e-22)
(0.984308 -0.654085 -3.73151e-24)
(0.986689 -0.653217 0)
(0.944326 -0.635627 1.97081e-21)
(0.981383 -0.648301 -1.30099e-22)
(0.962393 -0.642904 -1.08719e-21)
(0.912698 -0.614018 -6.77115e-22)
(0.927622 -0.625931 4.76204e-22)
(0.889421 -0.585131 2.26538e-22)
(0.899729 -0.600107 -1.90997e-22)
(0.875921 -0.550281 0)
(0.881284 -0.568061 1.49404e-21)
(0.915075 -0.547284 5.50044e-22)
(0.873106 -0.531346 1.10964e-21)
(0.894514 -0.541025 -2.45917e-21)
(0.952649 -0.558923 2.71777e-22)
(0.934776 -0.55219 0)
(0.984373 -0.578664 0)
(0.969255 -0.567709 0)
(1.01213 -0.604686 3.93938e-25)
(0.998573 -0.591146 0)
(1.03749 -0.633389 0)
(1.02514 -0.61891 0)
(1.05979 -0.659354 -6.40493e-24)
(1.04911 -0.647318 0)
(1.07748 -0.669248 0)
(1.06934 -0.667509 0)
(1.08848 -0.641288 0)
(1.08393 -0.661542 0)
(1.09169 -0.55261 0)
(1.09104 -0.605592 0)
(1.08835 -0.394497 2.11021e-25)
(1.09068 -0.481779 0)
(1.08119 -0.183016 0)
(1.08508 -0.293538 0)
(1.07213 0.0492322 0)
(1.07686 -0.0672667 0)
(1.06158 0.268783 0)
(1.06702 0.16248 0)
(1.05003 0.447977 0)
(1.0559 0.364973 0)
(1.03889 0.565978 -9.6206e-24)
(1.04431 0.515463 0)
(1.0302 0.61731 0)
(1.03415 0.599378 0)
(1.02464 0.620385 0)
(1.0271 0.622874 0)
(1.02022 0.608371 5.27164e-24)
(1.02251 0.614254 0)
(1.01334 0.605466 -4.5229e-24)
(1.01729 0.605147 0)
(1.00141 0.613795 4.06575e-24)
(1.00807 0.608778 0)
(0.983342 0.623539 -4.87053e-22)
(0.993269 0.619164 9.87521e-22)
(0.956489 0.624453 4.53112e-22)
(0.97121 0.625877 -1.04583e-21)
(0.953408 0.634305 -1.44517e-22)
(0.93866 0.617657 -1.0759e-21)
(1.04308 0.652377 1.2234e-21)
(1.01555 0.656736 0)
(1.06423 0.657562 1.19236e-20)
(0.996295 0.65875 0)
(1.00198 -0.654898 5.3165e-22)
(1.00159 -0.649544 -3.96074e-22)
(0.856167 -0.532564 1.37902e-21)
(0.852006 -0.514348 1.34647e-21)
(1.08505 0.667015 1.2611e-20)
(0.969159 0.648082 2.56204e-21)
(1.13233 0.659641 0)
(1.12187 0.626118 3.46055e-21)
(0.934585 0.622683 1.12633e-21)
(0.917525 0.603425 -1.73661e-21)
(1.14147 0.638758 -6.42878e-21)
(1.02932 0.65668 0)
(1.08768 0.598297 0)
(1.10425 0.61241 2.57816e-21)
(1.05525 0.569415 0)
(1.07162 0.583584 0)
(1.02172 0.544114 0)
(1.03857 0.556247 -4.74454e-22)
(0.98801 0.523315 0)
(1.00499 0.533013 0)
(0.951222 0.511774 0)
(0.970267 0.515931 0)
(0.908538 0.510993 0)
(0.930575 0.510737 0)
(0.863582 0.499629 2.83587e-24)
(0.885863 0.508829 0)
(0.824403 0.443926 0)
(0.8428 0.478977 0)
(0.797276 0.327723 0)
(0.809093 0.393287 0)
(0.784923 0.160882 0)
(0.78921 0.249258 0)
(0.78756 -0.031908 4.91197e-25)
(0.784424 0.0659734 0)
(0.803989 -0.223413 -4.68382e-25)
(0.794149 -0.129439 0)
(0.83158 -0.389345 0)
(0.816662 -0.310805 0)
(0.865646 -0.51347 -3.54685e-25)
(0.848135 -0.45721 0)
(0.900579 -0.591245 0)
(0.883351 -0.557912 0)
(0.931628 -0.629808 0)
(0.91679 -0.614658 0)
(0.956501 -0.642184 0)
(0.944882 -0.638417 0)
(0.975114 -0.641026 0)
(0.96654 -0.642614 0)
(0.988288 -0.636822 0)
(0.982323 -0.638708 0)
(0.996693 -0.63846 0)
(0.992998 -0.63653 0)
(1.00087 -0.648483 -4.34803e-22)
(0.999156 -0.642787 -4.17946e-22)
(1.00175 -0.653535 9.58508e-22)
(0.935768 -0.618046 1.07885e-21)
(0.978068 -0.632157 0)
(0.956152 -0.625547 1.10001e-21)
(0.900111 -0.595793 0)
(0.91706 -0.607873 -1.10102e-21)
(0.873153 -0.567013 -1.26816e-21)
(0.885382 -0.582126 4.55982e-22)
(0.863181 -0.54992 2.27208e-21)
(0.915992 -0.527583 -2.09083e-22)
(0.872284 -0.511327 -9.11586e-22)
(0.895001 -0.520686 0)
(0.95531 -0.541763 4.54595e-22)
(0.936562 -0.533768 -4.55863e-22)
(0.989049 -0.563423 0)
(0.97278 -0.551639 0)
(1.01993 -0.590571 4.32216e-25)
(1.00474 -0.576512 0)
(1.04907 -0.620388 0)
(1.03473 -0.605312 0)
(1.07596 -0.648028 0)
(1.06287 -0.635054 0)
(1.099 -0.660624 0)
(1.08811 -0.657383 0)
(1.11564 -0.636459 0)
(1.10829 -0.654712 0)
(1.1238 -0.551809 -1.0729e-23)
(1.12083 -0.602831 0)
(1.12369 -0.396696 1.27886e-23)
(1.12465 -0.482667 0)
(1.11772 -0.18688 0)
(1.12128 -0.296686 0)
(1.1079 0.0441238 0)
(1.11324 -0.0717565 0)
(1.09486 0.262592 0)
(1.10176 0.156791 0)
(1.0793 0.441164 0)
(1.08732 0.35836 0)
(1.06307 0.559549 0)
(1.07113 0.508696 0)
(1.04867 0.612256 0)
(1.05551 0.593557 0)
(1.03746 0.616625 5.85254e-24)
(1.04271 0.61857 0)
(1.02786 0.604494 -4.72686e-24)
(1.03268 0.61067 0)
(1.01625 0.599745 3.9083e-24)
(1.02254 0.600524 0)
(0.999695 0.605321 0)
(1.00869 0.601741 0)
(0.976765 0.611619 0)
(0.989124 0.609054 0)
(0.945633 0.608041 -3.0689e-24)
(0.962386 0.611804 -4.52679e-22)
(0.90293 0.582536 2.48597e-21)
(0.925996 0.598993 0)
(0.89236 0.578969 1.65686e-21)
(0.876231 0.556386 1.4482e-22)
(1.04707 0.664236 -3.89633e-21)
(1.01259 0.664606 0)
(1.00054 -0.634967 2.40412e-21)
(0.84985 -0.494815 1.82796e-21)
(1.06617 0.671012 2.30434e-21)
(1.11405 0.674722 -3.56855e-22)
(1.09279 0.678195 -7.28803e-21)
(0.987383 0.659813 0)
(0.953747 0.639556 -7.33644e-22)
(1.15388 0.651647 6.73557e-21)
(1.15604 0.660952 -7.68744e-21)
(1.1315 0.675062 6.54123e-21)
(0.912206 0.601453 1.96534e-21)
(0.864309 0.543354 -1.38915e-21)
(0.846107 0.518102 -8.11398e-22)
(1.02966 0.666728 0)
(1.13739 0.608753 -1.49373e-22)
(1.17577 0.636675 2.1761e-22)
(1.15834 0.622915 -1.2998e-21)
(1.09797 0.579929 -1.04721e-21)
(1.11716 0.594314 1.0534e-21)
(1.06116 0.551469 -1.5588e-24)
(1.07968 0.565354 0)
(1.02454 0.526651 0)
(1.04276 0.538612 0)
(0.988205 0.505341 0)
(1.00644 0.515476 0)
(0.949379 0.491452 0)
(0.969381 0.497008 0)
(0.904699 0.488077 -1.81919e-24)
(0.927801 0.488913 0)
(0.856986 0.477368 0)
(0.88074 0.485692 0)
(0.814793 0.426371 0)
(0.834663 0.458646 0)
(0.785303 0.317271 0)
(0.798181 0.379097 0)
(0.771696 0.158256 0)
(0.776458 0.242711 0)
(0.774196 -0.0270138 4.03626e-24)
(0.770997 0.0672038 0)
(0.791338 -0.211912 -4.73573e-25)
(0.78107 -0.121065 0)
(0.820221 -0.373203 0)
(0.804585 -0.296691 0)
(0.855996 -0.495363 -6.37196e-24)
(0.83759 -0.439719 0)
(0.893064 -0.573908 0)
(0.874707 -0.539891 0)
(0.926724 -0.615047 0)
(0.910525 -0.598462 0)
(0.954607 -0.630566 0)
(0.941438 -0.625226 0)
(0.976521 -0.632296 0)
(0.966265 -0.632492 0)
(0.993205 -0.630577 0)
(0.985453 -0.631259 0)
(1.00544 -0.63427 -5.92866e-24)
(0.999796 -0.631355 0)
(1.01421 -0.645594 4.3671e-22)
(1.01022 -0.639278 0)
(1.02026 -0.653508 -5.03291e-22)
(1.01756 -0.651291 0)
(1.02401 -0.635461 -5.76618e-22)
(1.02251 -0.649223 5.35318e-22)
(0.973507 -0.604755 -1.26293e-21)
(1.02467 -0.610702 0)
(0.998767 -0.608222 -1.80971e-21)
(0.926848 -0.589641 0)
(0.949367 -0.597741 0)
(0.887526 -0.567346 0)
(0.906114 -0.579167 0)
(0.857635 -0.538694 0)
(0.871347 -0.553733 0)
(0.837596 -0.505057 -1.40568e-21)
(0.846073 -0.521821 -4.26486e-22)
(0.828912 -0.469783 -2.44018e-22)
(0.832037 -0.487755 -2.49587e-21)
(0.873149 -0.489935 -9.73162e-22)
(0.828348 -0.451298 -1.55763e-22)
(0.850095 -0.474735 3.778e-22)
(0.918352 -0.507002 -1.80804e-22)
(0.896214 -0.499589 1.20031e-21)
(0.958722 -0.52352 5.10574e-25)
(0.939277 -0.51444 0)
(0.994421 -0.546858 0)
(0.976937 -0.53441 0)
(1.0281 -0.57482 4.62418e-25)
(1.01141 -0.560419 0)
(1.06076 -0.605366 0)
(1.04456 -0.589894 0)
(1.09202 -0.634247 0)
(1.07663 -0.620552 0)
(1.12029 -0.649238 0)
(1.1067 -0.644615 0)
(1.14253 -0.628945 0)
(1.13238 -0.645094 0)
(1.15565 -0.548926 2.09548e-23)
(1.15037 -0.597624 0)
(1.15875 -0.397809 0)
(1.15839 -0.481935 0)
(1.15376 -0.190724 0)
(1.1571 -0.299302 0)
(1.14297 0.0381502 0)
(1.14901 -0.0766861 0)
(1.1273 0.254717 0)
(1.13572 0.14982 0)
(1.10773 0.432051 1.05324e-23)
(1.1179 0.349735 0)
(1.0865 0.550439 0)
(1.09715 0.499407 0)
(1.06662 0.604408 0)
(1.07623 0.584965 0)
(1.04999 0.61021 -5.85254e-24)
(1.0579 0.611518 0)
(1.03544 0.598186 3.79492e-25)
(1.04266 0.604542 0)
(1.01935 0.591712 -7.41368e-24)
(1.02783 0.593551 0)
(0.998464 0.594472 0)
(1.00964 0.592382 0)
(0.970971 0.597173 0)
(0.985645 0.596538 0)
(0.935066 0.588725 5.89223e-25)
(0.954203 0.595021 0)
(0.888618 0.55823 0)
(0.913252 0.576994 0)
(0.830362 0.491041 1.354e-21)
(0.860816 0.530183 0)
(0.813832 0.46763 1.81241e-22)
(0.797546 0.439807 -2.37501e-21)
(1.04722 0.673761 0)
(1.18875 0.648004 -9.87864e-21)
(1.07089 0.678142 -1.62831e-21)
(1.04798 -0.634089 5.75615e-22)
(1.05147 -0.610995 0)
(0.809282 -0.434385 -2.08867e-22)
(0.80788 -0.417678 5.08873e-22)
(1.0071 0.668583 0)
(0.975652 0.654542 0)
(1.10029 0.678482 0)
(0.934853 0.622013 7.2249e-22)
(0.88619 0.568388 1.37499e-21)
(0.833211 0.494202 0)
(0.78003 0.404537 -3.16749e-21)
(0.763736 0.377164 1.97502e-21)
(1.02732 0.673324 0)
(1.19358 0.614657 6.35967e-25)
(1.20009 0.652769 -3.43688e-21)
(1.22875 0.627275 1.23361e-20)
(1.21218 0.623872 -3.15277e-21)
(1.14946 0.588913 6.61059e-22)
(1.17196 0.602977 1.28725e-21)
(1.10628 0.559886 0)
(1.12743 0.574313 0)
(1.06607 0.532245 1.55894e-24)
(1.08605 0.545691 0)
(1.02711 0.507954 0)
(1.04645 0.519706 0)
(0.988775 0.486361 0)
(1.00796 0.496808 0)
(0.948483 0.470341 0)
(0.969147 0.477215 0)
(0.902477 0.464185 1.81919e-24)
(0.926292 0.466267 0)
(0.852661 0.453768 0)
(0.877584 0.461374 0)
(0.80786 0.407526 0)
(0.829031 0.436937 0)
(0.776235 0.305954 0)
(0.790078 0.363804 0)
(0.761468 0.15532 0)
(0.766676 0.235575 0)
(0.763811 -0.0219454 -3.05112e-24)
(0.760578 0.0683723 0)
(0.781533 -0.199948 -4.70588e-25)
(0.770912 -0.112362 0)
(0.811442 -0.356367 0)
(0.795239 -0.281983 0)
(0.848622 -0.476381 3.73107e-25)
(0.829472 -0.421447 0)
(0.887488 -0.55548 0)
(0.868176 -0.52089 0)
(0.923408 -0.598972 0)
(0.906022 -0.581062 0)
(0.953989 -0.617449 0)
(0.93942 -0.61062 0)
(0.97894 -0.621933 0)
(0.967129 -0.620796 0)
(0.998934 -0.622555 0)
(0.989493 -0.622114 0)
(1.01489 -0.628064 1.16072e-23)
(1.00733 -0.62432 0)
(1.02813 -0.640412 6.52608e-24)
(1.02174 -0.633747 0)
(1.03929 -0.64942 -9.50292e-22)
(1.03394 -0.646526 9.5521e-22)
(1.04396 -0.64622 -1.03691e-21)
(0.968307 -0.565893 -3.45479e-22)
(1.02486 -0.574375 -8.70497e-23)
(0.995925 -0.569947 1.01932e-21)
(0.917511 -0.550148 0)
(0.942094 -0.558785 0)
(0.874818 -0.527801 9.2309e-27)
(0.894964 -0.539719 0)
(0.842445 -0.499845 0)
(0.857325 -0.51441 0)
(0.820245 -0.467392 -7.75798e-22)
(0.829913 -0.483771 8.52265e-22)
(0.81347 -0.450968 -2.91891e-23)
(0.875865 -0.467944 3.7494e-23)
(0.829847 -0.431985 3.98022e-22)
(0.852356 -0.453644 -7.92996e-23)
(0.921611 -0.485867 1.62092e-22)
(0.899147 -0.477753 -1.62372e-22)
(0.962756 -0.504474 2.86112e-24)
(0.942834 -0.494362 0)
(1.00027 -0.529143 2.58942e-24)
(0.981825 -0.516165 0)
(1.03646 -0.557571 4.84194e-25)
(1.01844 -0.542993 0)
(1.07233 -0.588459 0)
(1.05444 -0.572797 0)
(1.10768 -0.618119 0)
(1.09013 -0.603936 0)
(1.14095 -0.635135 0)
(1.12476 -0.62929 0)
(1.1687 -0.618726 0)
(1.15579 -0.632699 0)
(1.18679 -0.543967 -1.02258e-23)
(1.17917 -0.589948 0)
(1.19304 -0.397923 -1.12717e-23)
(1.19138 -0.479639 0)
(1.18884 -0.194655 0)
(1.19206 -0.30148 0)
(1.17684 0.0312204 0)
(1.1837 -0.0821642 0)
(1.15845 0.245137 0)
(1.1684 0.141505 0)
(1.13488 0.420659 -1.05324e-23)
(1.14718 0.339095 0)
(1.1088 0.538718 8.17206e-24)
(1.12195 0.48764 0)
(1.0837 0.593884 0)
(1.09593 0.573692 0)
(1.06198 0.601293 0)
(1.07239 0.601855 0)
(1.0428 0.58963 4.38944e-25)
(1.05227 0.596041 0)
(1.02256 0.581576 6.55756e-24)
(1.03308 0.584429 0)
(0.997658 0.581433 0)
(1.01086 0.580904 0)
(0.965979 0.580419 0)
(0.982763 0.581751 0)
(0.925908 0.567316 6.12328e-25)
(0.947098 0.576039 0)
(0.875935 0.531552 0)
(0.902203 0.552957 0)
(0.816235 0.461353 -7.22817e-22)
(0.847209 0.501618 0)
(0.750304 0.348497 -7.40266e-22)
(0.783562 0.41053 1.49237e-21)
(1.13688 0.676998 1.41273e-20)
(1.16866 0.655167 9.93486e-21)
(0.729533 0.302137 9.51817e-22)
(0.717486 0.276293 -9.51264e-22)
(1.04746 0.677368 0)
(1.05389 -0.576176 -1.26249e-21)
(0.808785 -0.400417 1.61873e-21)
(1.24299 0.622169 -2.06181e-21)
(0.999036 0.666266 0)
(1.20983 0.64685 -9.52022e-22)
(1.07224 0.676587 0)
(0.960488 0.640833 0)
(1.10246 0.67307 0)
(0.912728 0.593464 0)
(0.858209 0.523423 0)
(0.800949 0.433322 3.01864e-22)
(0.745914 0.329364 1.02498e-21)
(0.69688 0.217386 0)
(0.68598 0.194128 1.73465e-21)