/*--------------------------------*- C++ -*----------------------------------*\
  =========                 |
  \\      /  F ield         | OpenFOAM: The Open Source CFD Toolbox
   \\    /   O peration     | Website:  https://openfoam.org
    \\  /    A nd           | Version:  10
     \\/     M anipulation  |
\*---------------------------------------------------------------------------*/
FoamFile
{
    format      ascii;
    class       volScalarField;
    location    "38.5";
    object      p;
}
// * * * * * * * * * * * * * * * * * * * * * * * * * * * * * * * * * * * * * //

dimensions      [0 2 -2 0 0 0 0];

internalField   nonuniform List<scalar> 
8711
(
0.0117015
0.0101167
0.0129658
0.0444783
0.0391883
0.0327
0.0462069
0.0439269
0.684309
0.701184
0.404811
0.0787678
-0.0729036
-0.0778146
-0.0316153
-0.0546831
0.000788965
-0.002195
-0.00339591
0.0226835
0.0232189
0.0184606
0.0176138
0.0122253
-0.391222
-0.325362
-0.474582
-0.525245
0.0026524
0.00345784
0.00498041
-0.312289
-0.355095
-0.181828
-0.199419
0.17421
0.165585
0.240644
0.247262
0.239589
0.28444
0.258191
-0.600645
-0.608466
0.420357
0.299261
-0.310068
-0.306539
-0.329666
0.0293432
0.0282232
0.0275831
0.0282531
0.0892464
0.0951223
0.101047
-0.0658829
-0.0686271
-0.0730337
-0.0734261
-0.0462683
-0.0434087
-0.0529516
-0.0564564
0.0614056
0.0567935
0.0491539
0.0140882
0.0146135
0.0162037
-0.0762425
-0.0699054
-0.0762616
-0.0798271
0.134424
0.134422
0.127167
0.127194
0.0157702
0.0147359
0.012438
-0.016914
-0.00758806
0.0152462
0.0145202
0.0139799
-0.0727286
-0.0778366
-0.166544
-0.185161
0.105043
0.100256
0.108175
-0.0480064
-0.0316624
0.1403
0.154377
0.155443
0.143252
0.122908
0.124046
0.304266
0.288897
-0.0832181
-0.0943813
-0.112715
-0.13585
-0.160086
-0.179611
-0.191169
-0.191895
-0.181576
-0.164246
-0.143688
-0.12408
-0.107148
-0.0942125
-0.0855322
-0.0855728
-0.0808087
-0.0791862
-0.111133
-0.0962912
-0.153245
-0.130592
-0.197266
-0.176998
-0.210519
-0.209853
-0.175931
-0.198626
-0.122354
-0.149038
-0.086628
-0.100905
-0.0779583
-0.0858492
-0.0772164
-0.11981
-0.100364
-0.157653
-0.140357
-0.168439
-0.167267
-0.146379
-0.161161
-0.114045
-0.129918
-0.0893606
-0.0999677
-0.080229
-0.0830475
-0.0815478
-0.0750056
-0.0822314
-0.0712508
-0.0860995
-0.0774592
-0.0726337
-0.0828368
-0.0751259
-0.111276
-0.0950445
-0.157612
-0.132694
-0.207055
-0.184097
-0.223074
-0.221585
-0.186099
-0.209799
-0.127429
-0.156161
-0.0872776
-0.103721
-0.0687526
-0.076263
-0.0879401
-0.0932706
-0.0656402
-0.0668041
-0.07497
-0.0684501
-0.10112
-0.0857008
-0.133248
-0.119255
-0.142401
-0.141357
-0.126531
-0.137872
-0.0996019
-0.112888
-0.0816323
-0.0895291
-0.0768385
-0.077932
-0.0858367
-0.0798346
-0.0702342
-0.0787772
-0.0797234
-0.0947694
-0.076394
-0.085471
-0.0545099
-0.0617696
-0.0651415
-0.0718756
-0.0617267
-0.0885322
-0.0838456
-0.0638375
-0.0616455
-0.0772219
-0.0687535
-0.107362
-0.0902725
-0.156611
-0.130109
-0.210018
-0.185411
-0.227278
-0.22506
-0.187792
-0.213309
-0.126309
-0.156438
-0.0828262
-0.101367
-0.0612056
-0.0706596
-0.0551758
-0.0822515
-0.0931576
-0.0648584
-0.1012
-0.0931549
-0.0762006
-0.0560225
-0.0586329
-0.0618836
-0.0579481
-0.0817026
-0.0698372
-0.106317
-0.095753
-0.116579
-0.115231
-0.104437
-0.11238
-0.0840309
-0.0948067
-0.0714188
-0.0764525
-0.0704126
-0.0700424
-0.074765
-0.0956585
-0.0855851
-0.106765
-0.102636
-0.0897576
-0.0864773
-0.0743768
-0.087241
-0.0642582
-0.0514291
-0.107479
-0.105327
-0.0979231
-0.0821946
-0.116663
-0.104543
-0.125236
-0.101922
-0.0726636
-0.0976956
-0.0797247
-0.0576256
-0.0609393
-0.0546308
-0.0517248
-0.0692373
-0.0600364
-0.0995117
-0.0822203
-0.149105
-0.12226
-0.204074
-0.178068
-0.221413
-0.21966
-0.181572
-0.207344
-0.119237
-0.150013
-0.0740669
-0.0935898
-0.0492551
-0.0602574
-0.0387174
-0.0423653
-0.0435213
-0.0391774
-0.0507246
-0.0550197
-0.0660331
-0.0453149
-0.0483703
-0.0477494
-0.045343
-0.0616875
-0.0538658
-0.0815186
-0.072042
-0.0908801
-0.0890955
-0.0816165
-0.087516
-0.0672656
-0.0742381
-0.0595346
-0.0623367
-0.0618293
-0.0596713
-0.0757666
-0.067115
-0.103878
-0.0881792
-0.0792035
-0.0624849
-0.104067
-0.0926376
-0.121055
-0.113912
-0.122309
-0.124106
-0.10404
-0.147954
-0.133128
-0.0972738
-0.115393
-0.128191
-0.115231
-0.0298508
-0.0300176
-0.155757
-0.11918
-0.107645
-0.0823161
-0.0399457
-0.0406396
-0.0443526
-0.0408748
-0.0591119
-0.0501024
-0.0884103
-0.0716743
-0.136286
-0.110354
-0.189744
-0.164333
-0.207436
-0.205166
-0.167795
-0.193195
-0.106599
-0.136787
-0.0616053
-0.08147
-0.0353615
-0.046653
-0.0222485
-0.0276253
-0.0207753
-0.0195871
-0.0270428
-0.114563
-0.199094
-0.186161
-0.147209
-0.0693796
-0.08934
-0.043781
-0.0541164
-0.0336386
-0.0373337
-0.0336604
-0.0326384
-0.0431767
-0.0374132
-0.0586296
-0.0508802
-0.0652198
-0.0640024
-0.0598704
-0.0637758
-0.0503736
-0.0548771
-0.0464063
-0.047526
-0.051631
-0.0478984
-0.0667894
-0.0576165
-0.0799144
-0.0515794
-0.0848991
-0.0687716
-0.113958
-0.0998316
-0.136699
-0.126792
-0.141801
-0.141953
-0.135656
-0.125048
-0.0335472
-0.0369558
-0.214901
-0.0301722
-0.157484
-0.137593
-0.193362
-0.136368
-0.140189
-0.224528
-0.116208
-0.228271
-0.0817572
-0.0276922
-0.123498
-0.0280457
-0.0274266
-0.0334192
-0.0299246
-0.0476826
-0.0393085
-0.0745763
-0.0591947
-0.118625
-0.0947281
-0.168445
-0.144645
-0.185364
-0.183079
-0.147359
-0.171542
-0.0895927
-0.118091
-0.0466361
-0.0658287
-0.0200457
-0.0316862
-0.0049722
-0.0116531
-0.000203843
-0.00152724
-0.0042041
-0.00344531
-0.00737635
-0.00553861
-0.160472
-0.214954
-0.0916548
-0.120067
-0.0534722
-0.0702185
-0.0311604
-0.040694
-0.0217623
-0.025924
-0.0203048
-0.0202368
-0.0262534
-0.0223666
-0.0375091
-0.0317571
-0.0433509
-0.0416741
-0.0399844
-0.0425154
-0.0340526
-0.036808
-0.0330822
-0.0328148
-0.0397983
-0.035751
-0.0558559
-0.0472024
-0.0863921
-0.0695468
-0.106265
-0.0376372
-0.00444127
-0.0555495
-0.0267384
-0.0378153
-0.0906075
-0.0733638
-0.12414
-0.107281
-0.15171
-0.139526
-0.16037
-0.158941
-0.155484
-0.151028
-0.191183
-0.161578
-0.157041
-0.112208
-0.134746
-0.23113
-0.15168
-0.254213
-0.122343
-0.239838
-0.0786041
-0.227245
-0.00266815
-0.0340617
-0.0173502
-0.0280703
0.0165143
-0.0167406
-0.0183672
-0.0167703
-0.0162426
-0.0224297
-0.019076
-0.0354621
-0.0282826
-0.059219
-0.0457446
-0.0977896
-0.0768517
-0.142003
-0.120779
-0.157072
-0.15516
-0.121821
-0.144064
-0.0694362
-0.0952238
-0.0301568
-0.0478251
-0.00461831
-0.0161163
0.0114821
0.00438826
0.0178541
0.015855
0.01779
0.017973
0.0161193
0.0168916
0.0197782
0.0186689
-0.00280203
0.0139105
0.0186767
-0.124891
-0.17885
-0.158043
-0.0668408
-0.0908206
-0.0369915
-0.0499625
-0.0190613
-0.0272882
-0.0105452
-0.0140214
-0.00815801
-0.00877451
-0.011257
-0.00900699
-0.0190038
-0.0148816
-0.0239701
-0.0222796
-0.0221927
-0.0237026
-0.0188665
-0.0203185
-0.0200742
-0.0187963
-0.0279666
-0.0232691
-0.043693
-0.0351039
-0.0722515
-0.0575794
-0.0917048
-0.0579965
-0.0416503
-0.0949926
-0.0764981
-0.132655
-0.113687
-0.163553
-0.149769
-0.17558
-0.172612
-0.171987
-0.180382
-0.00797775
-0.0974358
-0.112681
-0.225449
-0.18347
-0.260066
-0.161727
-0.2722
-0.121557
-0.24567
-0.172344
-0.211922
-0.0712505
-0.0300677
-0.00426919
0.00650705
0.0291434
0.0252178
0.0112634
-0.00647034
-0.00767167
-0.00675175
-0.00599605
-0.0122847
-0.00897785
-0.0233959
-0.0171057
-0.0432942
-0.0320867
-0.0753155
-0.0579182
-0.112556
-0.094564
-0.125373
-0.123789
-0.0931313
-0.113109
-0.0471798
-0.0696743
-0.012816
-0.0283389
0.0102129
-0.000337526
0.0261905
0.0190258
0.0335023
0.0308278
0.0359298
0.0349431
0.034703
0.033177
0.0354115
0.0356718
0.0332787
-0.125955
-0.145993
-0.109195
-0.126112
-0.0896452
-0.112353
-0.0441577
-0.0646162
-0.0217143
-0.0321002
-0.0076707
-0.0143004
-0.000209228
-0.00322185
0.00253873
0.00156403
0.00154171
0.00253099
-0.00330792
-0.000569976
-0.00726145
-0.00575436
-0.00664643
-0.00740061
-0.00521738
-0.00570667
-0.00787067
-0.00592094
-0.0162429
-0.0113301
-0.0315493
-0.0230377
-0.0578515
-0.0432766
-0.0755595
-0.0298763
-0.00667782
-0.0171725
-0.0598255
-0.0442673
-0.0975477
-0.0783522
-0.137664
-0.117617
-0.170575
-0.155705
-0.184918
-0.180859
-0.168808
-0.181917
-0.123308
-0.146257
-0.20876
-0.251911
-0.198176
-0.275185
-0.162538
-0.130227
-0.0991579
-0.104791
-0.2636
-0.236868
-0.175639
-0.0757454
-0.102649
-0.111138
-0.0615811
-0.0263843
-0.00483282
0.00191382
0.00164922
0.0194385
0.00338331
0.0116564
-0.00611623
0.00241829
0.00146897
0.00108487
0.0027447
0.00204241
0.00218018
0.00277121
-0.00280544
-2.25996e-05
-0.0118716
-0.00674505
-0.0277716
-0.0188705
-0.0529179
-0.0392638
-0.082387
-0.0680909
-0.091557
-0.0912168
-0.0636689
-0.0812132
-0.0242825
-0.0433816
0.00459457
-0.00846829
0.024277
0.0151899
0.0386788
0.0321027
0.0464823
0.0432846
0.0499048
0.0485068
0.0498255
0.0512648
0.0458004
0.0481467
0.0370913
0.0421199
0.0253938
0.0319569
-0.0695206
-0.0318552
-0.0111967
-0.0452045
-0.0778356
-0.079994
-0.0536246
-0.0680327
-0.0241429
-0.0380118
-0.00783901
-0.0154104
0.00285343
-0.00200189
0.00898868
0.00642235
0.0117409
0.0106405
0.0121092
0.0122302
0.00958924
0.0111634
0.00670156
0.00792884
0.0065477
0.00632632
0.00667114
0.00683144
0.00320835
0.00549836
-0.00506848
-0.00029014
-0.0198977
-0.0113532
-0.0432104
-0.0298874
-0.0746072
-0.0582087
-0.0886685
-0.0297209
-0.0166813
-0.0590753
-0.0440514
-0.0976547
-0.0790404
-0.138239
-0.118115
-0.171561
-0.156392
-0.18654
-0.182064
-0.173231
-0.18421
-0.153691
-0.228481
0.0170265
0.00372354
0.00706131
-0.267143
-0.200514
-0.129433
-0.103395
-0.267062
-0.245016
-0.194797
-0.127
-0.0524242
0.0264001
0.0130867
-0.0965468
-0.0519332
-0.0226271
-0.00906314
-0.00575065
-0.00495643
-0.00414103
0.00464066
0.00859982
-0.0792826
-0.0737119
0.00720987
-0.152877
0.00977316
0.00906201
0.0108756
0.0103159
0.00958856
0.0104323
0.00574118
0.00796066
-0.00133278
0.00265192
-0.0133501
-0.00666311
-0.0319174
-0.0218628
-0.0536728
-0.0430893
-0.0602608
-0.0601987
-0.0360766
-0.0512754
-0.00233487
-0.0185605
0.0214156
0.0107405
0.0376232
0.0301106
0.0496891
0.0441244
0.0570849
0.0538749
0.0602247
0.0591539
0.0588727
0.0602846
0.0526736
0.0560112
0.0432953
0.0481449
0.0306834
0.0375214
-0.00228464
0.0120885
0.0224862
0.0126203
0.0618526
0.0683808
0.040515
-0.0301197
-0.0124277
-0.037808
-0.03726
-0.0244304
-0.032664
-0.00770766
-0.01588
0.00407414
-0.00129246
0.0119684
0.00837862
0.0169245
0.0147695
0.019537
0.0184304
0.020661
0.0202671
0.0198758
0.0205297
0.0180327
0.0189293
0.0173991
0.0175516
0.0166788
0.0172319
0.012913
0.0152669
0.00498344
0.00950454
-0.00766668
-0.000770735
-0.0279766
-0.0170279
-0.0517384
-0.0396571
-0.0637557
-0.0282527
-0.0144761
-0.0580045
-0.0422122
-0.0951134
-0.0761169
-0.134124
-0.114808
-0.166127
-0.151636
-0.180291
-0.17604
-0.169161
-0.178336
-0.151877
-0.230747
-0.0793138
-0.254388
-0.241787
-0.20478
-0.147098
-0.07615
-0.00599131
-0.0809153
-0.044613
-0.0238841
-0.0156263
0.0523844
0.0935307
0.0927086
-0.0139427
-0.0144726
-3.87807e-06
0.0103393
-0.191121
-0.012982
-0.134047
-0.0446579
0.0156218
0.01449
0.0165689
0.0163011
0.0174739
0.0171315
0.0161028
0.0169278
0.0132014
0.0148674
0.00799309
0.0109206
-0.000541096
0.0041689
-0.0132632
-0.00641552
-0.0279315
-0.0208002
-0.0320542
-0.0322803
-0.0120077
-0.0246487
0.017029
0.00297941
0.0369474
0.028131
0.0499716
0.0439672
0.0594768
0.0551025
0.0653583
0.0628275
0.0670025
0.0667345
0.0644785
0.0662159
0.0570732
0.0610574
0.047657
0.0524418
0.0354257
0.0418883
0.0184786
0.0275353
-0.0147236
-0.00316575
0.00822741
0.0753121
0.113308
0.107863
0.093363
0.0340975
0.0549999
0.00326327
0.0157711
-0.00717118
-0.00587847
-0.00214856
-0.0067547
0.00602647
0.00123343
0.0141008
0.0103995
0.0197346
0.0171342
0.0236243
0.0218718
0.0259911
0.0249506
0.027432
0.0267945
0.0277916
0.027788
0.0269344
0.0274584
0.0260837
0.0264697
0.0248177
0.025612
0.0210819
0.0233408
0.0139045
0.0179612
0.00293789
0.00902557
-0.0120111
-0.0044786
-0.0314978
-0.0224974
-0.0486912
-0.0416437
-0.0528901
-0.0551161
-0.00226111
0.00603264
-0.0253437
-0.0126681
-0.0548623
-0.0392701
-0.0901095
-0.072099
-0.126308
-0.108499
-0.155384
-0.142328
-0.167537
-0.164034
-0.156837
-0.165291
-0.121683
-0.1416
-0.0762717
-0.0989159
-0.055711
-0.225192
-0.22779
-0.203398
-0.159229
-0.0994473
-0.033141
-0.0689051
-0.0423551
-0.0283792
0.032187
0.0844711
0.116271
-0.024278
-0.0260749
-0.0287774
0.117824
0.126806
-0.0288242
-0.0158886
-0.0297628
-0.0208529
0.020281
0.0204123
-0.0399214
-0.170013
-0.0262468
-0.112337
0.0207713
0.0204476
0.0221141
0.0216939
0.0226117
0.0225914
0.0216492
0.0222931
0.0195878
0.0207661
0.0160111
0.0180126
0.0104034
0.0134662
0.00249174
0.00669771
-0.00609978
-0.00198983
-0.00760406
-0.00835365
0.00820517
-0.00171091
0.0326173
0.0205499
0.0498722
0.0423024
0.0602578
0.0555868
0.0672014
0.0640712
0.0710036
0.0694822
0.0709431
0.0714577
0.0681729
0.0696175
0.0599661
0.0640329
0.050797
0.0555152
0.0394418
0.0453476
0.0242577
0.0322853
0.00566609
0.0152341
-0.0280693
-0.0142595
-0.00429048
0.101933
0.122568
0.110391
0.108178
0.079328
0.0921141
0.0491711
0.0643832
0.0248986
0.0360315
0.0136023
0.01752
0.0132901
0.0124633
0.0173494
0.0149838
0.0223181
0.0199382
0.0262049
0.0243737
0.0291729
0.0277924
0.0312488
0.0303041
0.0327472
0.0320415
0.0337116
0.0333244
0.033671
0.033826
0.0328846
0.0333402
0.0313143
0.032242
0.0278048
0.0298663
0.0216188
0.0250964
0.0126125
0.0176161
0.000718111
0.00719069
-0.0142491
-0.00685691
-0.0278806
-0.0215993
-0.0348688
-0.0326899
-0.0345274
-0.000853667
0.00788948
-0.0229973
-0.0110223
-0.0512029
-0.036374
-0.0837664
-0.0672308
-0.116121
-0.100357
-0.141124
-0.130051
-0.150216
-0.148065
-0.139076
-0.147183
-0.108731
-0.125715
-0.071472
-0.0898122
-0.0553666
-0.202072
-0.191591
-0.161667
-0.116594
-0.060462
-0.0625144
-0.0441092
0.00153013
0.0621904
0.10954
-0.036686
-0.0378556
-0.0428519
0.133296
-0.0452393
0.134802
-0.0463554
0.108179
0.12197
-0.0453546
-0.0234106
-0.0400138
-0.00853
0.0245836
0.0250822
-0.0270902
-0.143318
0.0201135
0.0153567
-0.0163218
-0.0941905
0.0253861
0.025279
0.0265777
0.0259481
0.0267486
0.0267919
0.0262253
0.0266099
0.0249345
0.0256909
0.0227193
0.023955
0.0194449
0.0212088
0.0152368
0.0174183
0.0114114
0.0131134
0.0125581
0.0110226
0.0249995
0.0174904
0.0444681
0.0346506
0.0591934
0.0526752
0.0675258
0.0639067
0.0723049
0.0702417
0.0742605
0.0736264
0.0728264
0.0739568
0.0674622
0.0707718
0.0615323
0.0650376
0.0529429
0.0574441
0.042508
0.0478818
0.0290932
0.0361163
0.0132434
0.021236
-0.00290993
0.00511301
-0.0315279
-0.0164174
-0.0101404
0.0991196
0.101936
0.0891848
0.0957437
0.0953505
0.0989057
0.0795676
0.0889691
0.0576574
0.0687778
0.0385797
0.0468881
0.0279428
0.0323151
0.0249317
0.0257149
0.0261977
0.0252821
0.0288863
0.0275024
0.0314612
0.0302113
0.0336746
0.0326136
0.0354486
0.0346135
0.0368816
0.036192
0.0380633
0.0375151
0.0385631
0.0384315
0.0380671
0.0384387
0.0364739
0.0374116
0.0333144
0.0351126
0.0281692
0.0310179
0.0209852
0.0249196
0.011855
0.0168239
0.00062317
0.00659254
-0.0105138
-0.00452055
-0.0174652
-0.0129514
-0.0162541
-4.47445e-05
0.00863431
-0.0214919
-0.0100539
-0.0478584
-0.0341091
-0.0771759
-0.0624106
-0.1051
-0.0916693
-0.125374
-0.116613
-0.131069
-0.130361
-0.119161
-0.127227
-0.0926643
-0.107257
-0.0602263
-0.0768584
-0.0442078
-0.170583
0.0239315
-0.154712
-0.124323
-0.0817852
-0.0611893
-0.0297818
0.0289293
0.0866557
-0.0508962
-0.0507679
-0.0569688
0.129308
-0.0632863
0.14429
-0.0660361
0.136541
-0.0657068
0.116693
-0.060277
0.0798427
0.0919085
-0.0504491
-0.0220748
-0.0379678
0.000463726
-0.0133733
-0.118656
0.00454851
-0.000456128
-0.0824276
0.028445
0.0269126
0.0276681
0.0290795
0.0287037
0.0297845
0.0292915
0.0301023
0.0300136
0.029952
0.0300976
0.0293245
0.0297114
0.0282059
0.0288293
0.0267
0.0274909
0.0251573
0.0258959
0.0247031
0.024694
0.0280233
0.0257298
0.038404
0.0323654
0.0534029
0.0458242
0.0652775
0.0599411
0.0719043
0.0690941
0.0751227
0.0738239
0.0757833
0.0757555
0.0735859
0.0750172
0.0685908
0.0714204
0.0624429
0.0657788
0.0544151
0.058629
0.0447726
0.0497641
0.0332624
0.0391602
0.0195916
0.0264425
0.00627262
0.012792
-0.00440646
0.000570448
-0.0264853
-0.0137534
-0.00920123
-0.0160062
0.0788848
0.0678094
0.0588389
0.0699519
0.0890028
0.0851971
0.0884622
0.0904375
0.0778104
0.0843159
0.0620467
0.0701933
0.0471258
0.0540762
0.037507
0.0416553
0.0333777
0.0348952
0.0328959
0.0328609
0.0340547
0.0333716
0.0356557
0.0348417
0.0372655
0.0364697
0.0387414
0.038024
0.0400569
0.0394159
0.0412424
0.04067
0.0420058
0.0417051
0.0418488
0.0420615
0.0404946
0.0413146
0.0377985
0.0393072
0.03364
0.0359024
0.0280671
0.0310458
0.0213474
0.0248868
0.0135001
0.0175044
0.00420161
0.00897996
-0.00112873
0.00161312
-0.00136359
0.0230233
0.0143057
0.0191915
-0.000535188
0.0077069
-0.0209319
-0.0101358
-0.0452884
-0.0327127
-0.0712191
-0.0582899
-0.0946044
-0.0835539
-0.110015
-0.103639
-0.112265
-0.11299
-0.0995098
-0.107652
-0.0752775
-0.0884207
-0.0453292
-0.0606365
-0.0292102
-0.139637
0.0260571
0.00870338
-0.123435
-0.0951294
-0.0770226
-0.0554023
-0.00567604
0.0512879
-0.0656331
-0.0642965
-0.0711822
0.107094
-0.0812705
0.144051
-0.0887284
0.148458
-0.0904294
0.1321
-0.0857699
0.106384
-0.0742329
0.078454
-0.0591009
0.0464133
0.0535611
-0.0424251
-0.0271185
-0.00860014
-0.000101748
-0.00101932
0.0285475
0.0294942
-0.100572
0.053001
0.0424111
0.0308413
0.030271
0.0317417
0.031271
0.0323709
0.0320834
0.0327786
0.0326059
0.0329399
0.0328942
0.0328543
0.0329345
0.0325924
0.0327416
0.0323761
0.0324656
0.0326456
0.032418
0.0343342
0.0332513
0.039047
0.0362449
0.0482036
0.04314
0.0598592
0.0540341
0.0690869
0.0649155
0.0742295
0.0720742
0.0763551
0.0755784
0.0761599
0.0765213
0.0735947
0.0751404
0.0689041
0.0714722
0.0628798
0.066061
0.0554166
0.0593127
0.0466167
0.051175
0.0364599
0.0416616
0.0252128
0.0307882
0.013898
0.0193969
0.00494352
0.0089285
-0.000398516
0.0015539
-0.000321576
0.0707521
0.0626053
0.0807168
0.0767865
0.0820954
0.082728
0.075111
0.0793403
0.0637881
0.0697174
0.052128
0.057703
0.0437572
0.0474848
0.0393243
0.0411317
0.0378586
0.0383362
0.0380399
0.037824
0.0389324
0.038441
0.0400728
0.0394881
0.041276
0.0406743
0.0424496
0.0418703
0.0435541
0.0430158
0.0443855
0.0440237
0.0444827
0.0445476
0.0434962
0.0441211
0.0413589
0.0425563
0.0381364
0.0398743
0.0340037
0.0361801
0.0292255
0.0317194
0.0234964
0.026474
0.0156481
0.0193866
0.0114852
0.0124591
0.0126684
0.011905
0.0162517
0.0138797
0.0272387
0.0216266
0.0248129
0.012175
0.0174479
-0.00225596
0.00561067
-0.0214156
-0.0112943
-0.0438057
-0.0323593
-0.0665173
-0.0553426
-0.0855845
-0.076793
-0.0963938
-0.0922735
-0.0953103
-0.0974418
-0.0816503
-0.0899281
-0.058644
-0.0709924
-0.0312208
-0.0451067
-0.00356128
-0.016897
0.0124942
0.00592257
0.0190561
-0.114975
0.0325337
0.0312642
-0.100399
-0.0899066
-0.0738046
-0.0352136
0.0136088
-0.0773314
-0.0855241
0.0699705
-0.0993632
0.123865
-0.112851
0.152619
-0.119917
0.146352
-0.11792
0.121861
-0.105471
0.0914862
-0.0866506
0.061853
-0.0651795
0.0371966
-0.0244082
-0.0445287
0.0290391
0.025723
0.0275362
0.0259425
0.018404
-0.00720501
0.00378285
0.0192357
0.0312677
0.0302987
0.0326489
0.0320496
0.0335852
0.0331381
0.0343131
0.0339832
0.0348567
0.034598
0.03529
0.0350883
0.0356354
0.0354723
0.0360206
0.0358153
0.0367087
0.0363129
0.0381436
0.0373075
0.041058
0.039381
0.0463948
0.0434056
0.0545911
0.0502013
0.0639326
0.0593282
0.0711726
0.0679075
0.0751398
0.0734971
0.0765024
0.076076
0.0757805
0.076371
0.0730817
0.0746428
0.0686637
0.0710525
0.0629591
0.0659493
0.0560823
0.0596525
0.048128
0.052231
0.039127
0.0437371
0.0296742
0.0342998
0.0203553
0.0247211
0.0123682
0.0158079
0.00970866
0.0102299
0.00947308
0.0097688
0.00854457
0.0293164
0.00998185
0.0201092
0.0483444
0.0387507
0.0644475
0.0570801
0.0739715
0.070064
0.0762264
0.0759524
0.0719219
0.0746788
0.0637615
0.0681052
0.0547596
0.0591651
0.0476743
0.0509098
0.0433832
0.0452237
0.0414494
0.0421957
0.0410346
0.0411152
0.0414312
0.0411711
0.0422163
0.0417947
0.0431832
0.0426874
0.0442099
0.0436963
0.0452063
0.0447189
0.0460078
0.0456461
0.0462503
0.0462133
0.0456226
0.0460442
0.044062
0.0449427
0.0417161
0.0429716
0.038811
0.0403263
0.0354157
0.0372074
0.0306148
0.0332987
0.024246
0.0274078
0.0202371
0.0216918
0.020615
0.0205088
0.0225945
0.0211158
0.0242532
0.0196967
0.0231799
0.00948087
0.0151321
-0.00474066
0.00291584
-0.0229864
-0.0134024
-0.0436277
-0.033193
-0.0634205
-0.0538488
-0.0785427
-0.0718109
-0.0851924
-0.0831065
-0.0810233
-0.0844831
-0.0664166
-0.0748743
-0.0445671
-0.0561067
-0.0200411
-0.0323422
0.00245239
-0.00811708
0.015966
0.00986917
0.0217698
-0.0982754
-0.0851144
-0.0590071
0.0297309
0.00622346
-0.0781602
-0.0204361
-0.0980999
0.0286151
-0.116597
0.0856745
-0.137296
0.137021
-0.152777
0.154242
-0.156525
-0.0128055
0.136924
-0.145837
-0.0076911
0.105672
-0.122835
0.00368198
0.00542201
-0.00726313
0.0725415
-0.0954237
0.0193813
-0.0231907
0.0422336
-0.0676684
0.00741104
0.028889
0.0191425
0.0167149
0.0304195
0.0273481
-0.0864435
0.0111458
-0.0870796
0.0288252
0.0238832
0.025911
0.0324421
0.0314452
0.0339643
0.0331239
0.03488
0.0344057
0.0356988
0.0352966
0.0364218
0.0360735
0.0370908
0.0367624
0.0377754
0.0374262
0.0386344
0.0381742
0.0399336
0.039216
0.0420736
0.0408803
0.0455989
0.0436459
0.0510301
0.0480839
0.0583249
0.0544965
0.0660066
0.0622614
0.0718567
0.0692236
0.0750085
0.0737204
0.0758848
0.0756735
0.0748959
0.0755917
0.0722194
0.0737345
0.0680926
0.07031
0.0628002
0.0655653
0.0565219
0.059768
0.0493867
0.0530502
0.0414872
0.0455131
0.0333789
0.0373929
0.0256263
0.0294099
0.019079
0.0220203
0.0171515
0.017463
0.0154204
0.0165695
0.0148882
0.0281017
0.0198422
0.0452552
0.0367094
0.0591769
0.0529171
0.0682215
0.0645063
0.0710156
0.0702598
0.0685799
0.070307
0.0627466
0.0659613
0.0558378
0.0592795
0.049966
0.0527058
0.0460418
0.0477772
0.0439604
0.044818
0.0432128
0.0434675
0.0432811
0.0431789
0.043805
0.043506
0.0445761
0.0441714
0.0454603
0.045013
0.0463458
0.0459106
0.0470814
0.046745
0.0473942
0.0472996
0.0470482
0.0473025
0.0459894
0.0465927
0.0443757
0.045234
0.042385
0.0434208
0.0398283
0.0412034
0.0357822
0.0380067
0.0306508
0.0331992
0.0271859
0.0285832
0.0264941
0.0263237
0.0271937
0.0264755
0.0279375
0.0171827
0.0209823
0.00649167
0.0123724
-0.00790006
-0.000247795
-0.025709
-0.016449
-0.0449075
-0.0353359
-0.0620941
-0.0539675
-0.0736462
-0.0687769
-0.0765662
-0.0762983
-0.0696186
-0.0742862
-0.0540973
-0.0627461
-0.0334279
-0.0441312
-0.0118994
-0.0225308
0.00671835
-0.00193261
0.0190786
0.0133804
0.0239468
-0.0891652
-0.0770008
-0.0436084
0.0309898
0.0287665
-0.0509636
-0.105846
-0.0114738
-0.130359
0.0395792
-0.159837
0.0991312
-0.186713
0.145552
-0.200966
-0.0100683
-0.020284
0.147248
-0.195364
-0.0201487
0.0208512
0.00870363
0.120243
-0.170804
-0.0114748
-0.00613287
0.0839415
-0.13594
0.000946585
-0.0217854
0.0506587
-0.0995875
-0.0910122
0.0212777
-0.0178513
-0.00282119
-0.0086952
0.0272367
0.031305
0.0301037
0.0331888
0.0322698
0.0345498
0.0338967
0.0357225
0.0351631
0.0366719
0.0362038
0.037557
0.0371233
0.0384268
0.0379926
0.0393747
0.0388848
0.0405702
0.0399325
0.0422642
0.0413437
0.0447961
0.0434133
0.048552
0.0465155
0.0537875
0.0510038
0.0602353
0.0569002
0.0666729
0.0635531
0.0715353
0.0693462
0.0741464
0.0730877
0.0747517
0.0746532
0.073679
0.0743936
0.0711289
0.0725584
0.0673198
0.0693576
0.0624758
0.0650028
0.0567923
0.0597221
0.0504241
0.0536807
0.0435445
0.0470246
0.0366529
0.0400646
0.0302833
0.0333838
0.0252529
0.0275015
0.023568
0.0239255
0.0224056
0.0230295
0.0254055
0.0232509
0.0304156
0.0279902
0.0224732
0.0136019
0.00520755
0.0286734
0.0214756
0.0432496
0.036045
0.0552911
0.049584
0.0633414
0.0598588
0.0664666
0.0654367
0.0652898
0.0663085
0.0611774
0.0634385
0.0559192
0.0585795
0.0511288
0.0534043
0.0476709
0.0492332
0.0456345
0.0465044
0.0447319
0.0450764
0.0445963
0.0445963
0.0449335
0.0447247
0.0455473
0.0452181
0.0463016
0.0459161
0.047081
0.0466965
0.0477422
0.0474354
0.0480842
0.0479605
0.0479352
0.0480684
0.0472591
0.0476505
0.0461781
0.0467545
0.0447775
0.045517
0.0427331
0.0438541
0.0393562
0.0411909
0.0350707
0.0372223
0.0317446
0.033197
0.0303178
0.0307755
0.0302191
0.0301767
0.031082
0.0306331
0.0256821
0.021738
0.0241164
0.0141882
0.0184222
0.00295099
0.00907521
-0.0119454
-0.00406979
-0.0297388
-0.0206023
-0.0478137
-0.0389553
-0.0626509
-0.0558448
-0.0709079
-0.0677602
-0.0703965
-0.0717969
-0.0609034
-0.0666798
-0.0444736
-0.0533463
-0.0247052
-0.0347519
-0.00544259
-0.0148226
0.0106712
0.00316073
0.0217357
0.0166719
0.0258597
-0.0878633
-0.0415773
0.026937
0.0324459
-0.0773066
-0.1057
-0.0673993
-0.0508476
-0.136831
-0.00844111
-0.176343
0.0478211
-0.216664
-0.0132568
-0.0228318
0.037454
0.110133
-0.246717
-0.0279648
0.0266178
0.146324
-0.253346
-0.0313511
0.0112017
0.131584
-0.231294
-0.0268098
-0.00422822
0.0963155
-0.189577
-0.0173927
-0.0204123
0.0582593
-0.143329
-0.000966515
-0.0395408
0.0244171
-0.0159992
-0.0051326
0.0273069
0.0271187
-0.0071061
0.0319614
0.0313607
0.0335518
0.0328367
0.0349883
0.0343391
0.0362288
0.0356282
0.0373145
0.0367762
0.0383394
0.0378287
0.0393741
0.0388512
0.0405228
0.0399273
0.0419506
0.0411932
0.0438855
0.0428455
0.0466043
0.0451396
0.0503702
0.048358
0.0552724
0.0527027
0.0609642
0.0580566
0.0664492
0.0638043
0.0705824
0.0687165
0.07283
0.0719198
0.0733047
0.0732516
0.0722614
0.0729429
0.069903
0.0712199
0.0664304
0.0682815
0.0620417
0.064329
0.0569352
0.0595615
0.0512797
0.054162
0.0453007
0.0483062
0.0394375
0.0423299
0.0341815
0.0367061
0.0304022
0.0320466
0.0288897
0.0294297
0.0289081
0.0285239
0.0325675
0.0304489
0.0364582
0.0345515
0.00355219
-0.00138548
0.0165246
0.00960059
0.0293535
0.0231116
0.0415988
0.0354968
0.0520786
0.0471533
0.059231
0.0560621
0.0625002
0.0613091
0.0621996
0.0627104
0.059361
0.0609859
0.0553786
0.057422
0.051519
0.0533795
0.0485503
0.0499141
0.0466642
0.0474889
0.0457221
0.0461003
0.0454727
0.0455337
0.0456817
0.045537
0.0461722
0.0459037
0.0468139
0.0464831
0.0474927
0.0471567
0.048083
0.0478063
0.0484279
0.0482919
0.0484097
0.0484617
0.0479985
0.0482436
0.0472669
0.0476629
0.0462134
0.0467836
0.0444934
0.0454492
0.0416142
0.0431779
0.0379503
0.0398002
0.0347909
0.0362456
0.0329324
0.0337009
0.0323006
0.0324972
0.0325605
0.0324001
0.0328963
0.0332646
0.032913
0.0255814
0.0239163
0.0253449
0.0191038
0.0219703
0.0107978
0.0154213
-0.00133723
0.00524043
-0.0171864
-0.00885511
-0.0353431
-0.026149
-0.0525924
-0.0443111
-0.0652566
-0.0596941
-0.0703496
-0.0688615
-0.066521
-0.0695351
-0.0545436
-0.061409
-0.0370933
-0.0462785
-0.0177904
-0.0274454
7.63817e-06
-0.00855476
0.014358
0.0077031
0.0241119
0.0196789
0.0302321
0.0277056
0.0319628
-0.0962201
-0.0994145
0.025978
-0.0875801
-0.132538
-0.0655674
0.0295336
0.0275918
0.0332739
0.0335179
-0.0585979
-0.181789
-0.00709335
-0.0164788
-0.0094631
-0.236609
-0.0259621
0.0505697
0.0442105
0.0552386
-0.284522
-0.0343431
0.0309378
0.117532
-0.310617
-0.0403677
0.0152945
0.137855
-0.301279
-0.0407516
-0.00143223
0.110145
-0.258928
-0.0356768
-0.0181521
0.0676873
-0.200645
-0.0235541
-0.0371496
0.0283917
-0.143378
-0.00267267
0.0244269
-0.00507053
0.00110584
0.00298539
0.0253135
0.0321525
0.03112
0.0337278
0.0330245
0.035176
0.0344833
0.0364768
0.0358358
0.0376782
0.0370784
0.0388262
0.0382501
0.0399969
0.0394025
0.0412968
0.0406237
0.0428813
0.0420458
0.0449516
0.0438486
0.0477289
0.0462482
0.051386
0.0494531
0.0559143
0.053565
0.0609534
0.0584048
0.0656906
0.0634124
0.0692746
0.0676498
0.0712642
0.0704542
0.07169
0.0716434
0.0707409
0.0713601
0.068611
0.0697994
0.0654766
0.0671474
0.061539
0.0635891
0.0569854
0.0593228
0.0519987
0.0545314
0.0468307
0.0494151
0.041866
0.0443034
0.0375616
0.0396001
0.0347139
0.0359251
0.0335727
0.0339848
0.0346186
0.0336402
0.0381595
0.0360036
0.0420606
0.0399489
0.0504149
0.0456816
0.0576072
0.0621867
0.0557896
0.0658849
0.0702358
0.00202195
0.000710302
0.00896017
0.00504677
0.0192375
0.0136938
0.0300234
0.0246949
0.0403711
0.0352098
0.0494427
0.045126
0.0558196
0.0529759
0.0590597
0.0578003
0.0593463
0.0594988
0.0574547
0.0585887
0.0544651
0.0560235
0.051387
0.0528903
0.0488856
0.0500505
0.0472014
0.04795
0.0462921
0.0466677
0.0459916
0.0460841
0.0461163
0.0460158
0.0465122
0.0462916
0.0470577
0.0467749
0.047645
0.0473533
0.048168
0.0479212
0.0485009
0.0483565
0.0485627
0.0485646
0.048319
0.0484723
0.0477947
0.0480863
0.0469251
0.0474074
0.0453917
0.0462503
0.0428517
0.0442299
0.0396227
0.0412642
0.0366212
0.0380518
0.0345307
0.0354693
0.0334953
0.0339285
0.0332191
0.0332601
0.0333754
0.0332628
0.0216875
0.0233763
0.0161942
0.0194707
0.00690963
0.0120535
-0.0066128
0.000682133
-0.0239004
-0.0148779
-0.042822
-0.0333782
-0.0595344
-0.0517054
-0.0701369
-0.0657825
-0.0720572
-0.0722442
-0.0648467
-0.0695121
-0.0502599
-0.0582858
-0.0315473
-0.0411864
-0.0122843
-0.021784
0.00461401
-0.00341891
0.0176383
0.0116608
0.026257
0.0223849
0.0313739
0.0293008
0.0326666
-0.116
0.00539675
-0.00105526
-0.0618598
0.0272186
0.0263633
0.0334583
-0.107521
-0.172419
-0.0142927
-0.0962368
0.0232054
0.0243959
0.0827729
0.0753583
0.0121283
0.0084382
0.015954
-0.0717275
-0.240358
0.013054
-0.00202062
0.00435078
-0.0275998
0.0515194
-0.0111216
-0.306612
-0.0390384
0.0365611
0.0631158
-0.353871
-0.0480906
0.0209638
0.117284
-0.365569
-0.0536608
0.00304386
0.115528
-0.335277
-0.0531926
-0.0146025
0.0774271
-0.273007
-0.0460355
-0.0338522
0.0335308
-0.201026
-0.0303409
-0.0573608
-0.00394068
0.0822541
0.089688
0.0294221
0.0281725
0.0285119
0.0318134
0.0306447
0.0336507
0.0327661
0.035106
0.034404
0.0365067
0.0358249
0.0378081
0.0371619
0.0390647
0.0384354
0.0403488
0.0396978
0.0417634
0.0410337
0.0434517
0.0425669
0.0455882
0.0444585
0.0483482
0.0468891
0.05184
0.0500102
0.0560034
0.0538593
0.0604874
0.0582386
0.06463
0.0626357
0.0677887
0.0663511
0.0695869
0.0688481
0.0700058
0.069946
0.0691829
0.0697255
0.0672911
0.0683485
0.0644957
0.0659863
0.06099
0.0628137
0.0569587
0.0590245
0.0525916
0.0548019
0.0481489
0.0503603
0.0439731
0.0460105
0.0404963
0.0421188
0.0383549
0.0392469
0.0377319
0.0378653
0.0392422
0.0381851
0.042668
0.0408085
0.0474501
0.0447782
0.0558568
0.0511102