/*--------------------------------*- C++ -*----------------------------------*\
  =========                 |
  \\      /  F ield         | OpenFOAM: The Open Source CFD Toolbox
   \\    /   O peration     | Website:  https://openfoam.org
    \\  /    A nd           | Version:  10
     \\/     M anipulation  |
\*---------------------------------------------------------------------------*/
FoamFile
{
    format      ascii;
    class       surfaceScalarField;
    location    "66.5";
    object      phi;
}
// * * * * * * * * * * * * * * * * * * * * * * * * * * * * * * * * * * * * * //

dimensions      [0 3 -1 0 0 0 0];

internalField   nonuniform List<scalar> 
57492
(
0.000235581
-1.05884e-05
-4.36926e-05
-0.0001813
-0.000162423
0.000267295
0.00013071
-2.87537e-05
8.08323e-05
0.000323281
-0.00037536
0.00315984
0.0033864
-0.000272112
-0.00627413
-0.00862824
0.00404527
0.00774282
0.00071429
-0.000657252
-0.000344722
0.000287684
-0.00127291
0.000219727
-7.60816e-05
0.00112926
0.000273135
-0.000831752
0.00159062
-0.00463323
0.00442556
-0.00138295
0.0013425
0.00424899
-0.00400087
-0.000611012
-0.000206315
0.000683564
0.000133763
-0.000122335
-0.00083151
0.000342832
0.000231572
-0.000324936
-2.89698e-05
-5.32044e-05
7.84615e-05
0.00169564
-0.00163651
-0.000613445
0.000554316
0.000243929
0.00136838
8.33255e-05
-0.00032462
0.000788479
0.00333523
-0.00379909
-0.000660773
0.00326111
-0.00292496
0.00013543
-0.000288499
0.000153069
-0.00166304
0.00121975
0.000578716
-0.00465981
0.000189479
0.00333554
0.00113479
0.00122823
-0.00472997
-0.00115807
-0.000132952
-0.000196166
-0.00070162
0.00103074
-0.000286803
0.000175864
-2.20134e-05
-0.00254425
0.0021596
0.00073405
-0.000349408
-0.00304774
0.000925665
-0.00042217
-0.00112723
0.000596138
0.000456587
7.44999e-05
-0.000778652
-0.000362103
1.35304e-05
-0.000367074
-0.00113323
0.00129006
0.000210243
-0.00041582
0.000116314
-6.75685e-05
0.000743764
-0.000494957
-0.000461176
0.000212369
-0.000641707
0.000516228
0.000869243
-0.000879448
-0.00168562
0.00163374
0.000931329
-0.0020044
-0.000478798
0.00160375
-0.000707288
-0.000152008
0.000859296
-0.000271218
-0.00043607
-0.00137445
0.00189184
-0.000788615
0.000203043
-0.000767219
-0.00081027
-0.000563564
0.000783291
-0.000233026
-0.00190187
0.00115084
0.000751022
-0.00432173
0.00241986
0.00487825
-0.000817556
0.000345686
-0.00440638
0.00358752
-8.42198e-05
0.00137495
-0.00072529
0.00489145
-0.00498371
0.00139868
0.000301953
-0.0014275
0.00141058
-8.79822e-05
0.00170944
-0.000640828
-0.00127317
0.000204559
0.00191378
9.76176e-05
0.000871628
-0.000542568
0.00108152
0.00084762
0.00115327
-0.00475552
-0.000634786
0.000546156
0.00484415
-0.00488869
-0.000298539
0.000431709
0.00121859
0.00451289
-0.00443759
-0.00129389
0.000890265
-0.00430491
-0.00277657
0.00252815
0.00253324
-0.00228481
-0.000272542
0.00320209
-0.00570612
1.48361e-05
-0.000116513
-8.02796e-07
0.00010248
-0.000320744
1.0644e-05
6.69191e-05
-0.000135792
-0.000251872
-5.62472e-05
6.65348e-06
1.11077e-05
-1.19104e-05
8.83973e-06
2.26792e-06
0.00730158
0.00378543
-0.00587821
-0.0052088
0.00233717
-0.000701848
0.00566625
-0.00785156
0.00309888
0.00708985
0.00229289
-0.00635902
0.00162398
-0.00286551
0.00213337
-0.000891844
0.00235594
-0.0029141
0.00218214
-2.98335e-05
2.18048e-05
-2.55972e-06
-7.01203e-05
-3.40573e-06
-0.000222461
-2.89595e-05
-0.00293792
0.00534702
0.00339266
-0.00580176
0.0043628
-0.00494478
0.00298426
0.00474686
-0.0023841
0.0100833
-0.00148045
-0.00179047
-0.00681236
0.00224316
0.00541837
0.00242175
0.00160622
-0.0050046
0.00564154
4.67765e-05
-7.55302e-05
0.000127609
0.000815814
0.00175696
-0.000626112
-0.00194666
0.00103951
9.95843e-05
-9.56282e-05
2.62759e-05
6.93523e-05
-0.000297742
0.000202114
-0.00660363
0.00342318
-0.002013
0.00519345
-0.00574074
-0.00249577
0.00163287
-0.00262463
0.00208782
-0.00520393
0.00195127
-2.66036e-05
-0.000943995
-0.00098067
-0.000711391
0.00222689
0.000435772
-0.000834365
-8.52235e-05
0.000208198
-0.000771319
-8.96498e-05
-0.000271398
-0.00144392
-0.000237065
-6.24702e-05
1.86798e-05
0.000280855
-0.000215153
-0.000521181
0.000499269
0.000137492
1.68828e-05
-0.000369527
7.92423e-05
-4.22096e-06
0.000100562
-2.63988e-06
-0.00064093
0.000369532
8.34439e-05
-0.000724374
0.00017225
-0.000469992
0.00427362
0.00333162
-0.000178526
0.00212863
-0.00648325
-1.03899e-05
0.00226399
-0.00179749
-0.000456113
0.000291707
0.00316417
-0.00346627
0.00326894
0.00184068
-0.000499587
-0.00461004
-0.00103315
0.000501222
0.00380087
0.00398849
-0.00318096
-0.00164261
-0.00303451
0.00125135
0.00342578
-0.00118481
0.00350484
-0.00396264
0.000423437
-0.00464277
8.23495e-05
3.37209e-05
-4.57575e-06
0.00104434
-0.000615889
-0.000590876
7.66792e-05
-0.000323854
0.00129152
0.00036308
-1.91066e-05
-0.000187176
0.000331806
6.83219e-05
-0.000212952
0.000991706
-0.00121523
3.6347e-05
-0.000357635
0.000830853
0.000518488
-0.000125112
9.92829e-05
-0.00611237
0.0036513
0.00588426
0.00772167
-0.00200603
-0.0082114
-0.00285515
0.00446444
-9.7091e-05
-0.000874055
-0.000162084
-0.000522034
9.12293e-06
4.78418e-05
-0.000129984
3.73094e-05
4.48323e-05
-0.000129979
0.00014444
3.33809e-05
-0.000299261
3.92991e-05
-0.000265199
-0.00031265
5.58148e-05
-0.000803422
-0.000335832
-0.000804017
-0.000862564
0.000985587
0.000680995
3.29268e-05
0.000425663
-0.00126261
-0.0011248
0.000295164
-0.00293358
0.00133053
-5.99859e-05
-0.00350224
0.000809488
-0.000240825
0.000875955
-0.00334737
0.00256419
-9.27758e-05
0.000678991
-0.00272849
0.00292546
0.00252817
-0.0101973
-0.00176531
0.00218164
0.00302123
-0.00345601
0.00206066
-0.000320822
3.48865e-07
1.65339e-05
-3.4418e-06
3.79067e-06
0.000284173
-4.12895e-05
0.00558882
-0.00341322
-0.00248994
0.000314343
0.00483752
2.60078e-05
0.0046413
0.000167022
-0.00508087
0.00137917
0.0032961
-3.3963e-05
0.000550418
-0.00291215
0.0037409
5.33845e-06
-8.78026e-06
0.000759142
-0.00211961
-0.00284615
0.00123164
0.00308306
0.000838589
-4.78472e-05
-0.000881602
9.08604e-05
0.000278562
-8.16804e-05
-0.00107957
0.000238621
0.00135718
0.000196278
-0.000997286
-0.000134922
7.59647e-05
-7.23656e-06
1.03259e-05
-2.76571e-06
-3.23677e-07
1.09266e-05
-2.45903e-07
-1.79173e-05
4.65784e-05
-0.000103848
6.81965e-05
-0.00171599
0.00264931
-0.000761069
0.00291632
-0.00378276
-0.000849561
6.53925e-06
-0.00148368
0.00171576
-0.00399071
0.00024112
-0.0027358
-0.0018307
0.000575787
0.00269118
0.00291139
-0.0054131
0.00260526
0.00429286
-0.00420693
0.00224039
-0.00308406
0.00160604
-0.000762377
0.00245563
-0.0030232
0.00280797
0.00437037
0.00187657
0.00500141
-0.000231025
-0.00496704
0.000196651
0.00554212
-0.000659465
0.000118753
0.00552892
-0.00090501
8.43172e-05
-0.00470823
0.00396836
-0.00137712
0.00293767
0.0043076
-0.00140524
0.00114218
-0.00404454
0.00127088
0.00438757
-0.00135085
-0.00387587
-0.00166675
0.00413737
0.00106783
-0.00369236
-0.00186096
0.00362
-0.00237954
-0.00323889
0.00215543
0.003463
-0.00239547
-0.00326695
0.00328289
0.00223534
0.00304573
-0.00147489
-0.00380617
0.00301951
-0.00317964
-0.00258964
0.0026142
0.00299494
-0.00204107
0.00249716
-0.00406866
0.00361472
-0.00102096
-0.00506509
0.00105374
0.00537437
-0.00136302
0.00191054
-0.000264876
0.000990702
-0.00105663
0.000330804
-0.000108184
0.00127007
-0.00142676
-5.29776e-05
0.000305257
0.000110801
-0.00108274
-0.00169588
0.0011037
-1.68441e-07
-7.74618e-08
3.09955e-07
-4.78394e-07
-0.000100082
-0.00187171
0.00142923
-0.0016688
-6.73035e-05
0.00163603
4.59191e-05
-0.00174907
3.43504e-05
-0.000243884
0.00157128
0.000269127
-0.00159652
0.00161566
0.000452951
-0.00231249
0.00160411
0.00158283
-2.44987e-06
5.00049e-07
3.56707e-05
-4.7577e-06
2.30782e-06
-4.25765e-06
-5.54272e-06
4.23129e-06
-5.49358e-05
1.02569e-06
-6.56841e-06
5.25697e-06
-4.39158e-05
2.12797e-05
-0.000264167
2.21654e-05
-6.60812e-05
4.34451e-05
5.32015e-05
-5.34007e-06
-0.000172973
-1.69084e-05
7.011e-05
-2.22485e-05
0.00142649
0.00327916
-0.00420443
0.00132524
-0.00446368
0.00456492
0.00471418
-0.000109776
-0.00118218
-0.00244423
0.00115803
0.00246837
-0.000710437
0.00272164
-0.00319338
0.000157297
-0.00331196
0.00379751
-0.00380865
-1.70412e-05
2.81832e-05
0.00382016
2.93297e-05
-5.19834e-05
-2.862e-05
-0.0037779
-2.13104e-06
0.00387293
-6.28811e-06
-4.64817e-05
0.00396619
5.16201e-05
-0.000144874
2.3094e-05
0.00408941
-0.00014632
0.00403943
-0.00399179
-2.45476e-05
-0.000196172
0.00430537
-1.97897e-05
0.00395003
-0.000106764
-0.00384608
-9.40928e-05
-0.00380905
-4.33222e-05
-0.00377949
-2.29369e-07
-0.00383553
3.90049e-05
-0.00374786
-0.000116293
-0.000192229
0.00451733
-1.97282e-05
0.00378718
-2.93804e-05
-2.35197e-05
-0.0037207
-3.36789e-05
-0.00375304
-1.83423e-05
-3.10463e-05
-0.00390918
0.000219527
-6.57479e-06
0.00454314
-1.92337e-05
0.00380956
-2.89572e-05
-0.00386428
8.01979e-05
0.00456856
-6.38405e-06
-1.9036e-05
-6.37641e-06
0.00459334
-1.84076e-05
0.00383134
-2.81616e-05
0.00385277
-2.78055e-05
-2.64206e-05
-0.00385868
-2.40828e-05
-0.00385778
-3.292e-05
-6.03706e-06
0.00461759
-1.82058e-05
0.00387368
-2.69498e-05
-4.31503e-06
-0.00382979
-2.45727e-05
-0.00382886
-3.32419e-05
-5.85827e-06
0.004641
-1.75557e-05
0.00389438
-2.65581e-05
-3.98513e-06
-0.00380054
-2.52693e-05
-0.00379968
-3.31601e-05
-5.23577e-06
0.00466359
-1.73591e-05
0.00391478
-2.56383e-05
-3.83909e-06
-0.00377104
-2.56601e-05
-0.00377013
-3.33905e-05
-4.54695e-06
0.00468483
-1.66898e-05
0.00393545
-2.52135e-05
-3.48053e-06
-0.00374127
-2.62883e-05
-0.00374038
-3.32262e-05
-2.91804e-06
0.00470425
-1.64969e-05
0.00395676
-2.42279e-05
5.37789e-06
-0.00372
-2.66412e-05
-0.00370168
-3.33273e-05
-2.394e-07
0.00472029
-1.58048e-05
0.00398028
-2.37584e-05
2.12059e-05
-0.00358591
-0.000155297
-0.00360932
-7.11507e-05
5.33419e-06
0.00473056
-1.56047e-05
0.00399005
-4.44151e-06
2.097e-05
-0.00357405
-3.28386e-05
-0.0035535
-3.48547e-05
1.58612e-05
0.00472959
-1.48859e-05
0.00397899
2.6921e-05
4.81042e-05
-0.00341899
-0.000203163
-0.0034224
-8.29901e-05
0.000198926
0.00454532
-1.46639e-05
0.00411696
6.09627e-05
5.52593e-05
-0.00337462
-9.96304e-05
-0.00335651
-1.06304e-05
0.000176623
0.00422741
0.000141291
0.00420159
9.19925e-05
8.87043e-05
-0.000155621
-0.0033077
-0.00331469
4.68853e-05
9.52974e-06
2.73982e-05
0.00419048
0.0041904
2.07143e-05
-0.00339618
0.0034789
-0.000182355
-0.00338625
-0.000165554
0.000151559
-0.000161332
-0.00329793
4.58875e-05
-0.00320902
-0.00343232
0.0034908
-9.13129e-05
-0.000156582
-0.00339045
0.00341794
-5.41254e-05
-5.49531e-05
-0.00344501
0.00347192
-5.25661e-05
-5.33603e-05
-0.00349842
0.00352479
-5.09389e-05
-5.17741e-05
-0.00355081
0.00381969
-4.93555e-05
-5.01074e-05
-0.00383466
0.00380753
2.49949e-05
-4.86431e-05
-0.00395577
0.00395002
-4.62347e-05
-0.00012005
-0.00384705
0.00381428
-0.000112104
5.6488e-05
-0.00374652
0.00376953
-4.28003e-05
-7.85601e-05
-0.00379188
0.00381387
-4.12248e-05
-4.20822e-05
-0.0038353
0.00385642
-3.95247e-05
-4.04659e-05
-0.00387695
0.00389713
-3.77429e-05
-3.87337e-05
-0.00391671
0.00393592
-3.58968e-05
-3.69322e-05
-0.00395449
0.00397267
-3.39895e-05
-3.50705e-05
-0.00399021
0.00400732
-3.19951e-05
-3.31428e-05
-0.0040004
0.00411049
3.1197e-05
-7.74445e-06
0.00411579
2.2105e-05
-2.82055e-05
6.85364e-05
0.00415015
-2.21926e-05
0.00418439
0.00410985
-0.00402599
-2.28988e-05
-0.00416631
0.00417334
1.36886e-05
3.55343e-05
0.00400861
-0.00397271
-4.03411e-05
9.53769e-06
0.00395467
-0.00393594
-4.29561e-05
-4.17962e-05
0.00391688
-0.00389714
-4.53767e-05
-4.42782e-05
0.00387708
-0.00385637
-4.76647e-05
-4.66134e-05
0.00383536
-0.0038137
-4.98205e-05
-4.88199e-05
0.00379175
-0.00376927
-5.18684e-05
-5.08996e-05
0.00382315
-0.00379403
-5.36733e-05
-5.28787e-05
0.00383363
-0.00376787
-0.000109081
-5.44892e-05
0.00371889
-0.00367017
-9.71864e-06
-4.92077e-05
0.00369099
-0.00368936
-1.99758e-05
-9.54719e-05
0.00355067
-0.00352464
-5.89503e-05
-5.84852e-05
0.00349846
-0.00347181
-5.98058e-05
-5.94245e-05
0.00344504
-0.00341782
-6.0442e-05
-6.01641e-05
0.00339046
-0.00340071
-6.08918e-05
-6.06961e-05
0.00337449
-0.00339623
-6.12448e-05
-6.10819e-05
0.00334538
-0.00326895
-2.95493e-05
-6.14813e-05
-0.0032064
-1.66635e-05
-0.00338258
-0.000164997
0.00414411
4.02149e-05
-3.33236e-05
0.00418447
8.81338e-05
-0.000105067
-0.00319209
3.60509e-05
-0.00315431
0.000138339
-0.000160986
-0.00335993
-0.00326465
-0.00339539
0.00336776
-0.000154727
0.00340636
-0.00340615
-0.000165213
-0.000154582
-0.00335175
0.00337929
-0.000118855
-0.000140571
-0.0034064
0.0034334
-8.11247e-05
-8.20629e-05
-0.00345999
0.00348642
-7.89965e-05
-7.99484e-05
-0.00351245
0.00353833
-7.68183e-05
-7.77997e-05
-0.00356382
0.00358909
-7.46275e-05
-7.56026e-05
-0.0036139
0.00371137
-7.24757e-05
-7.34451e-05
-0.0036626
0.00368656
-7.02045e-05
-7.12772e-05
-0.00381207
0.00376791
-6.79425e-05
-6.90168e-05
-0.00375591
0.00377848
-6.53688e-05
-6.65585e-05
-0.00380045
0.00382211
-6.28772e-05
-6.40608e-05
-0.00384318
0.00386395
-6.029e-05
-6.15428e-05
-0.00388413
0.00390397
-5.7588e-05
-5.89107e-05
-0.00392321
0.00394209
-5.47796e-05
-5.61694e-05
-0.00396035
0.00397823
-5.18707e-05
-5.33274e-05
-0.00399547
0.0040123
-4.88249e-05
-5.0381e-05
-0.00402824
0.00407608
-1.66423e-05
-2.36879e-05
-2.52099e-06
-2.12233e-05
0.0041739
-2.42585e-05
0.00416585
-0.00407887
0.00413391
-1.4825e-05
1.93111e-05
0.00412175
-0.00410741
-6.5139e-07
0.00410317
-1.47396e-05
1.51842e-05
1.61528e-05
0.00415313
0.00417835
0.0040923
-0.00404685
-6.83419e-05
2.04182e-05
0.00399577
-0.00397835
-5.77669e-05
-4.15411e-05
0.0039606
-0.00394218
-6.13729e-05
-5.95452e-05
0.00392345
-0.00390404
-6.47779e-05
-6.30156e-05
0.00388434
-0.00386399
-6.80172e-05
-6.63184e-05
0.00384335
-0.00382209
-7.10789e-05
-6.9454e-05
0.00380059
-0.0037785
-7.39491e-05
-7.24087e-05
0.00375623
-0.00373335
-7.65526e-05
-7.51542e-05
0.00371023
-0.00374037
-7.89424e-05
-7.76104e-05
0.00370971
-0.0036384
-8.10227e-05
-7.98663e-05
0.00365199
-0.00358899
-8.29803e-05
-8.18808e-05
0.00356384
-0.00353822
-8.45748e-05
-8.36321e-05
0.00351248
-0.00348628
-8.60008e-05
-8.51668e-05
0.00345996
-0.00343319
-8.7212e-05
-8.64873e-05
0.00340628
-0.00337892
-8.82494e-05
-8.76079e-05
0.00335141
-0.00332346
-8.9193e-05
-8.85919e-05
0.0032954
-0.00323485
-9.01071e-05
-8.95393e-05
0.00318879
-0.00311869
-3.4055e-05
-6.2717e-05
-0.00340102
-0.000166109
2.23175e-05
-9.8784e-05
-0.00307785
-0.00307233
-2.4041e-05
-0.00017485
-0.00311602
-1.43135e-05
0.00412397
0.00412411
-4.79264e-06
-0.000106709
9.59276e-05
-0.00334915
-0.000133676
-0.00337406
-1.26796e-08
-9.47309e-05
-0.0029831
-4.73057e-05
-0.00302503
-0.00334358
0.0041495
-0.00412359
-4.07432e-05
0.00412094
1.42485e-05
4.25279e-05
-1.48887e-05
0.00412549
3.80217e-06
0.00416284
-0.00336911
0.00343413
-0.000198697
-0.000180607
0.000132801
-0.00332625
0.00341896
2.06733e-05
0.000168141
-0.00360778
-0.000130755
-0.00345826
0.0034583
-0.000165255
-0.000190241
-0.00344042
0.00341123
-0.000125534
-0.000136703
-0.00341211
0.00340334
-0.000110087
-0.000141452
-0.00342978
0.00345605
-0.000107395
-0.000108501
-0.00348191
0.00350761
-0.000104697
-0.000105807
-0.00353292
0.00355807
-0.000101974
-0.000103104
-0.00358283
0.00360742
-9.9214e-05
-0.000100362
-0.00363156
0.0036555
-9.64143e-05
-9.7591e-05
-0.00367899
0.00370229
-9.35114e-05
-9.47612e-05
-0.00372509
0.00374766
-9.05098e-05
-9.18122e-05
-0.00376979
0.00379171
-8.72833e-05
-8.86966e-05
-0.00381309
0.00383418
-8.39721e-05
-8.54418e-05
-0.00385472
0.00387496
-8.05268e-05
-8.20803e-05
-0.00389462
0.00391396
-7.69304e-05
-7.85738e-05
-0.00393271
0.00395112
-7.31879e-05
-7.49196e-05
-0.00396892
0.00398636
-6.93081e-05
-7.11267e-05
-0.00400317
0.00401961
-6.52639e-05
-6.7196e-05
-0.0040465
0.00406813
-3.82743e-05
-5.05696e-05
-3.61471e-05
1.54961e-05
-1.23232e-05
0.00417072
-1.80646e-05
-2.76828e-05
0.00416972
0.00416328
0.00415114
0.00411621
-0.00409735
-1.95043e-05
-0.00412435
0.00411513
4.42812e-06
-2.28874e-05
0.00403591
-0.00403421
-7.00341e-05
-4.10293e-05
0.00400354
-0.00398654
-7.4765e-05
-7.22142e-05
0.00396924
-0.00395129
-7.93249e-05
-7.68466e-05
0.00393303
-0.00391412
-8.36825e-05
-8.12759e-05
0.00389493
-0.00387511
-8.78389e-05
-8.55133e-05
0.00385502
-0.00383433
-9.17702e-05
-8.95426e-05
0.0038134
-0.0037919
-9.54484e-05
-9.33377e-05
0.00377019
-0.00374791
-9.88296e-05
-9.68637e-05
0.00372543
-0.00370244
-0.000101937
-0.000100092
0.00367925
-0.00365554
-0.000104733
-0.000103048
0.0036317
-0.0036074
-0.000107277
-0.000105723
0.00358293
-0.003558
-0.000109508
-0.000108105
0.00353294
-0.00350743
-0.000111505
-0.000110227
0.0034818
-0.00345573
-0.000113281
-0.000112118
0.00342953
-0.00340289
-0.000114885
-0.000113811
0.00337612
-0.00334892
-0.000116395
-0.000115368
0.00332158
-0.00329381
-0.000117879
-0.000116875
0.00323814
-0.00315271
-0.000119481
-0.00011839
0.00309315
-0.00307488
-6.55747e-05
-8.36045e-05
-3.56765e-05
1.04914e-05
-0.00299985
-0.00303426
-7.62938e-05
0.000122853
-0.00333921
-7.22932e-05
-0.00313846
-1.24183e-05
0.00410568
0.00414278
-2.3848e-05
0.000171604
-0.00347718
3.89529e-05
-0.00301156
0.0007665
-0.00277821
0.00361581
4.07295e-05
-8.52696e-05
-0.00298972
-1.44607e-05
-0.00294466
-0.00223511
0.00342266
0.000395289
-0.00169844
-0.000267552
-0.00329302
-0.0032733
0.00343642
5.02023e-06
0.000157398
-8.03454e-06
-0.00342688
0.00342066
-0.000192476
-0.000121216
-0.00341841
0.00339591
-0.000142751
-0.000187999
-0.00339983
0.00341352
-0.000139232
-0.000140617
-0.0034092
0.00343496
-0.000135839
-0.000137132
-0.00346033
0.00348557
-0.000132629
-0.000133877
-0.00351043
0.00353516
-0.000129426
-0.000130673
-0.00355952
0.00358373
-0.000126191
-0.00012746
-0.00360757
0.00363124
-0.000122891
-0.000124195
-0.00365451
0.0036776
-0.000119501
-0.000120856
-0.00370024
0.00372271
-0.000115978
-0.00011741
-0.00374472
0.0037665
-0.000112297
-0.000113817
-0.00378784
0.00380896
-0.000108401
-0.000110035
-0.00382958
0.00384993
-0.000104329
-0.00010606
-0.00386976
0.0038893
-0.00010007
-0.000101908
-0.0039083
0.00392698
-9.56172e-05
-9.75669e-05
-0.0039451
0.00396289
-9.0979e-05
-9.30377e-05
-0.0039801
0.00399696
-8.61686e-05
-8.83327e-05
-0.00401323
0.00402914
-8.11784e-05
-8.34609e-05
-0.00405696
0.0040947
-7.60103e-05
-7.83939e-05
-0.00409897
0.00410981
-5.15893e-05
-4.04157e-05
-0.0041393
0.00414619
-1.93143e-05
-1.52341e-05
2.00505e-05
-7.7986e-06
0.00415746
1.61296e-05
-5.69854e-05
0.00418705
0.00414186
2.95385e-05
1.41667e-05
0.00412702
0.00418502
-1.24038e-05
-9.71776e-06
0.00414761
0.0041529
1.88122e-05
-5.29235e-05
0.00417689
0.00417193
0.00416031
-0.00413256
-2.33172e-05
-0.00423676
0.00413826
4.55842e-05
-0.000100302
0.00410901
-0.00408615
-4.23579e-05
-4.64444e-05
0.00404492
-0.00402944
-8.55113e-05
-8.22664e-05
0.00401364
-0.00399721
-9.11892e-05
-8.80166e-05
0.00398049
-0.00396314
-9.66716e-05
-9.35676e-05
0.0039455
-0.00392725
-0.000101941
-9.89166e-05
0.00390871
-0.00388958
-0.000106974
-0.000104048
0.00387019
-0.00385022
-0.000111736
-0.000108931
0.00383003
-0.00380928
-0.000116194
-0.000113531
0.00378833
-0.00376684
-0.000120321
-0.000117818
0.00374516
-0.00372297
-0.00012412
-0.000121774
0.00370062
-0.00367777
-0.00012758
-0.000125405
0.00365478
-0.00363134
-0.000130722
-0.000128709
0.00360775
-0.00358372
-0.000133542
-0.000131694
0.00355956
-0.00353497
-0.000136093
-0.000134386
0.00351026
-0.00348513
-0.00013841
-0.000136828
0.00345988
-0.00343422
-0.000140549
-0.000139062
0.00340843
-0.00338224
-0.000142586
-0.000141157
0.00335592
-0.0033292
-0.000144597
-0.00014319
0.00330236
-0.00327517
-0.000146674
-0.000145233
0.0032114
-0.00312808
-0.000148896
-0.000147373
0.00310772
-0.00307153
-0.000121458
-9.66508e-05
-7.92243e-05
5.62412e-05
-0.00296674
-0.00302514
-0.000125617
0.000117924
-0.00328553
-1.66619e-05
-0.00308285
0.000295523
-0.0030062
3.96579e-05
-0.00306568
0.00415827
-0.00415115
-2.64379e-05
0.00415434
-5.30551e-05
-2.07547e-06
5.58159e-06
0.00417339
-5.16057e-05
0.00418779
0.000314041
-0.0026393
7.12464e-05
-0.00295966
-0.00148849
-0.00180647
-0.00267661
0.00310891
-3.70071e-05
-5.90932e-05
5.16795e-05
-0.00295932
-0.0001021
-0.00298213
-0.00245524
-0.000488923
-0.00319175
-0.00327017
0.00333682
-6.16295e-05
-3.87149e-06
-0.00338935
0.00336872
-0.00017184
-0.000173744
-0.00334997
0.00337496
-0.000167749
-0.000169249
-0.00339973
0.00342444
-0.000163942
-0.00016538
-0.00344892
0.00347332
-0.000160239
-0.000161613
-0.00349741
0.0035214
-0.00015662
-0.00015797
-0.00354507
0.00356862
-0.000152977
-0.000154338
-0.00359183
0.00361491
-0.000149275
-0.000150669
-0.00363763
0.00366022
-0.000145474
-0.00014692
-0.00368242
0.00370446
-0.00014154
-0.000143056
-0.00372609
0.00374755
-0.000137435
-0.000139043
-0.00376857
0.0037894
-0.000133125
-0.000134844
-0.00380979
0.00382996
-0.000128577
-0.000130422
-0.00384967
0.00386913
-0.000123792
-0.000125765
-0.0038881
0.0039068
-0.000118768
-0.000120873
-0.00392497
0.00394286
-0.000113507
-0.000115745
-0.00396021
0.00397725
-0.00010802
-0.000110387
-0.00399374
0.0040099
-0.000102327
-0.000104818
-0.00402549
0.00404076
-9.64443e-05
-9.90556e-05
-0.00405547
0.00406983
-9.03733e-05
-9.31052e-05
-0.0041164
0.0041158
-5.099e-05
-8.69835e-05
-5.05798e-05
8.31117e-06
-4.78274e-05
0.00419698
2.9755e-05
-3.00572e-05
0.00418735
0.00417992
-1.0305e-05
-2.49525e-06
0.00413982
0.00412689
-2.49629e-05
3.15459e-05
0.00414103
0.00412544
0.00420906
0.00417165
-0.00414697
-4.7996e-05
-0.00413298
0.00418422
-5.6589e-06
-6.16379e-05
0.00412144
-0.00407018
-9.36193e-05
-7.19689e-05
0.00405592
-0.00404108
-0.00010035
-9.6527e-05
0.00402595
-0.00401022
-0.000106915
-0.000103148
0.00399421
-0.0039776
-0.000113282
-0.000109581
0.00396071
-0.00394324
-0.000119416
-0.000115805
0.0039255
-0.0039072
-0.000125277
-0.000121782
0.00388866
-0.00386957
-0.000130825
-0.000127472
0.00385026
-0.00383043
-0.000136027
-0.000132837
0.0038104
-0.00378986
-0.000140857
-0.000137846
0.00376915
-0.00374796
-0.000145312
-0.000142487
0.00372661
-0.0037048
-0.000149391
-0.000146756
0.00368285
-0.00366046
-0.000153109
-0.000150659
0.00363794
-0.003615
-0.000156483
-0.000154212
0.00359194
-0.00356848
-0.000159558
-0.000157445
0.0035449
-0.00352093
-0.000162382
-0.000160405
0.00349685
-0.00347238
-0.000165015
-0.000163144
0.00344781
-0.00342286
-0.000167531
-0.00016573
0.00339781
-0.00337241
-0.000170004
-0.000168239
0.0033469
-0.00332107
-0.000172504
-0.000170738
0.00329516
-0.00326898
-0.000175079
-0.000173281
0.00318965
-0.00313338
-0.000177733
-0.000175976
0.0030803
-0.00303373
-0.000148664
-0.000178699
-7.21564e-05
7.38564e-05
-0.00298383
-0.00299564
-0.000110248
9.17424e-05
-0.00308175
8.2281e-06
-0.00305142
-2.2715e-05
0.004147
0.00418093
-4.83071e-05
0.000188471
-0.00288063
-0.00028784
-0.00351314
1.81576e-05
-0.00294529
4.03212e-05
-0.00303476
7.17769e-05
-0.00297976
-0.00349382
-0.000767893
0.000259572
-0.000518775
-0.00323462
-0.000150007
-0.00310356
5.21825e-05
-0.00293765
-0.000103716
3.29239e-05
-0.00291304
-9.41576e-05
-0.0030052
-0.00309178
-0.00298203
0.00313949
-0.000194463
0.00311269
-0.00338824
-0.000492342
-0.000358266
-0.00326031
0.00333082
-0.000132144
-0.000124691
-0.00335446
0.00337814
-0.000195525
-0.00019738
-0.00340168
0.00342517
-0.000191239
-0.000192783
-0.00344845
0.00347169
-0.000187187
-0.00018866
-0.00349471
0.00351766
-0.000183192
-0.000184628
-0.00354034
0.00356293
-0.000179216
-0.000180647
-0.00358524
0.00360744
-0.000175185
-0.000176642
-0.00362934
0.00365112
-0.00017106
-0.000172563
-0.00367258
0.0036939
-0.000166801
-0.000168372
-0.00371487
0.0037357
-0.000162368
-0.000164029
-0.00375615
0.00377644
-0.000157724
-0.000159495
-0.00379634
0.00381605
-0.000152835
-0.000154735
-0.00383534
0.00385443
-0.00014767
-0.000149715
-0.00387309
0.00389151
-0.000142222
-0.000144418
-0.00390948
0.0039272
-0.000136486
-0.000138837
-0.00394443
0.00396139
-0.000130469
-0.000132976
-0.00397785
0.00399402
-0.000124188
-0.000126844
-0.00400966
0.004025
-0.000117669
-0.000120464
-0.00403981
0.00405431
-0.00011094
-0.000113865
-0.00406828
0.00408193
-0.000104028
-0.000107073
-0.00409506
0.00414104
-9.69657e-05
-0.000100112
-0.00415559
0.00417654
-4.73955e-05
-6.51304e-05
-0.00413229
0.00416007
-5.04965e-05
-8.79724e-06
1.18656e-05
-5.49967e-06
0.00418099
5.59275e-05
-8.86862e-05
0.00419283
0.00421479
1.79141e-05
2.20253e-05
0.00415704
0.00419234
-9.89467e-06
-2.3864e-06
0.0041521
0.00413902
1.46056e-05
-2.67283e-05
0.00415315
0.00413766
8.32644e-06
-2.6758e-05
0.00419182
0.00419066
4.55286e-05
-5.10116e-05
0.00418641
0.00420656
0.00420796
-0.00414931
-6.43083e-05
-0.0041988
0.00418581
-3.80265e-05
-3.91463e-05
0.00414709
-0.00412606
-6.90227e-05
-6.38582e-05
0.00409555
-0.00408231
-0.000106858
-0.000102487
0.00406878
-0.0040547
-0.00011443
-0.000110056
0.00404034
-0.00402542
-0.000121837
-0.000117505
0.00401023
-0.00399447
-0.000129037
-0.000124774
0.00397846
-0.00396189
-0.000135981
-0.000131819
0.00394509
-0.00392775
-0.000142617
-0.000138588
0.00391018
-0.00389211
-0.000148902
-0.000145034
0.00387383
-0.00385506
-0.000154798
-0.000151114
0.00383611
-0.00381668
-0.000160284
-0.0001568
0.00379709
-0.00377705
-0.000165354
-0.000162077
0.00375686
-0.00373624
-0.000170009
-0.000166943
0.00371549
-0.00369434
-0.000174266
-0.000171406
0.00367306
-0.00365139
-0.000178153
-0.000175488
0.00362961
-0.00360745
-0.000181716
-0.000179225
0.00358519
-0.00356257
-0.000185006
-0.000182665
0.00353985
-0.00351677
-0.000188088
-0.000185866
0.00349361
-0.0034701
-0.000191034
-0.000188897
0.00344652
-0.00342261
-0.000193914
-0.000191828
0.00339862
-0.00337434
-0.000196787
-0.000194725
0.00334998
-0.00332535
-0.000199708
-0.000197638
0.0033007
-0.00327577
-0.000202662
-0.000200623
0.00325082
-0.00319369
-0.000205798
-0.000203651
0.00313873
-0.00306405
-0.000168836
-0.000165206
-0.000138416
8.72615e-05
-0.00295405
-0.00304126
-0.000161209
6.66978e-05
-0.00295997
-0.00339753
-0.000509482
6.62984e-05
-0.00292877
0.00422194
-0.00422309
-4.93397e-05
0.00422813
-9.4878e-05
-2.70506e-05
2.1108e-05
0.00419235
-2.57004e-05
0.00418446
8.8003e-06
-0.0030199
4.07363e-05
-0.00300372
-1.33965e-05
-0.0030819
7.20355e-05
-0.00299961
0.000103106
-0.00300783
0.000133938
-0.00295972
-0.000124719
0.000126469
-0.0029558
-0.000181035
-0.00298494
-0.00301629
-0.00339653
0.00326726
-0.000363065
-0.000445015
0.00052301
-0.00347553
0.00350889
-0.00361823
-0.000335675
-0.000397126
-0.00316976
0.00324619
-0.000270887
-0.000260773
-0.00333278
0.00339243
-0.000191798
-0.000211285
-0.00341469
0.00343692
-0.000217761
-0.000219634
-0.00345896
0.00348095
-0.000213221
-0.000214824
-0.0035027
0.00352439
-0.000208884
-0.000210409
-0.00354586
0.00356726
-0.000204597
-0.000206094
-0.00358842
0.0036095
-0.000200295
-0.0002018
-0.00363031
0.00365104
-0.000195913
-0.000197454
-0.00367148
0.00369183
-0.000191406
-0.000193007
-0.00371187
0.0037318
-0.000186731
-0.000188414
-0.0037514
0.00377088
-0.000181846
-0.000183635
-0.00379001
0.003809
-0.00017671
-0.000178627
-0.00382762
0.00384608
-0.00017129
-0.000173354
-0.00386414
0.00388203
-0.000165556
-0.000167784
-0.00389951
0.00391678
-0.000159496
-0.000161896
-0.00393363
0.00395024
-0.000153104
-0.000155681
-0.00396641
0.00398233
-0.000146391
-0.000149143
-0.00399779
0.00401297
-0.000139375
-0.000142296
-0.00402768
0.0040421
-0.00013209
-0.000135167
-0.00405602
0.00406965
-0.000124572
-0.00012779
-0.00408279
0.00409563
-0.000116865
-0.000120208
-0.00410797
0.00412001
-0.000109002
-0.000112459
-0.00415946
0.00418551
-7.34458e-05
-0.000104582
-4.63801e-05
-3.46444e-05
-2.55859e-06
0.00421819
3.19932e-05
-7.35692e-05
0.0042344
0.00421214
-3.25289e-05
2.10795e-05
0.00416849
0.00415725
-9.46653e-06
-2.27767e-06
0.00416384
0.00415063
1.39689e-05
-2.55886e-05
0.00416477
0.00414935
-1.16043e-05
-1.23606e-05
0.00421578
0.00415347
0.0042153
0.00421265
-0.00420449
-7.24702e-05
-0.00421365
0.00420407
-2.84374e-05
-4.01484e-05
0.00416229
-0.00412044
-0.000110877
-0.000106058
0.00410851
-0.00409606
-0.000119308
-0.00011441
0.00408336
-0.00407012
-0.000127661
-0.000122763
0.00405663
-0.00404262
-0.000135856
-0.000130995
0.00402834
-0.00401355
-0.000143831
-0.000139045
0.00399852
-0.00398298
-0.000151524
-0.000146851
0.00396721
-0.00395095
-0.000158877
-0.000154353
0.00393449
-0.00391755
-0.000165841
-0.000161496
0.00390043
-0.00388285
-0.000172379
-0.000168238
0.0038651
-0.00384691
-0.000178469
-0.000174548
0.00382858
-0.00380983
-0.000184104
-0.000180411
0.00379095
-0.00377167
-0.000189289
-0.000185826
0.00375227
-0.00373249
-0.000194044
-0.000190805
0.0037126
-0.00369236
-0.000198402
-0.000195374
0.00367201
-0.00365131
-0.00020241
-0.000199571
0.00363053
-0.00360941
-0.000206124
-0.00020345
0.00358821
-0.00356669
-0.000209611
-0.000207069
0.00354509
-0.00352318
-0.000212939
-0.000210497
0.00350121
-0.00347894
-0.000216177
-0.000213803
0.00345662
-0.00343402
-0.000219383
-0.000217051
0.00341136
-0.00338846
-0.000222613
-0.000220294
0.0033655
-0.00334228
-0.000225885
-0.000223581
0.00331899
-0.00329547
-0.000229316
-0.00022694
0.00323022
-0.00316629
-0.000232763
-0.000230461
0.00312771
-0.00311176
-0.000196979
-0.000199791
-0.000315974
0.000125315
-0.0029129
-0.00302758
-0.000147952
0.000152485
-0.00298948
-0.00304461
-0.000215106
2.23706e-05
-0.00291604
-3.78779e-05
0.00419244
0.00424873
-7.03614e-05
0.000271336
-0.003564
-0.000325564
9.27239e-06
-0.00298843
0.00034026
-0.00354445
2.21359e-05
-0.00296431
4.08054e-05
-0.00297249
4.53072e-05
-0.00300189
7.22795e-05
-0.00296879
0.000103764
-0.00297766
0.000134937
-0.00296819
0.000134349
-0.00293766
-0.000174663
0.000150597
-0.00296541
-0.000192872
-0.0030264
-0.00298464
-0.0036585
0.00353622
-0.000213393
-0.00040974
-0.00348323
0.00032897
0.00373218
-0.00361349
-0.000528427
-0.000251889
-0.00346078
0.00340876
-0.000311038
-0.00032169
-0.00339692
0.00337379
-0.000247758
-0.00024894
-0.00340775
0.00345958
-0.000243635
-0.000245238
-0.00348022
0.00350085
-0.000238388
-0.000240277
-0.00352127
0.00354162
-0.000233572
-0.000235245
-0.00356175
0.0035818
-0.000228941
-0.000230532
-0.00360164
0.0036214
-0.000224364
-0.000225926
-0.00364093
0.0036604
-0.000219758
-0.000221331
-0.00367961
0.00369875
-0.000215054
-0.000216671
-0.00371764
0.00373643
-0.000210201
-0.000211888
-0.00375495
0.00377337