/*--------------------------------*- C++ -*----------------------------------*\
  =========                 |
  \\      /  F ield         | OpenFOAM: The Open Source CFD Toolbox
   \\    /   O peration     | Website:  https://openfoam.org
    \\  /    A nd           | Version:  10
     \\/     M anipulation  |
\*---------------------------------------------------------------------------*/
FoamFile
{
    format      ascii;
    class       volVectorField;
    location    "66.5";
    object      U;
}
// * * * * * * * * * * * * * * * * * * * * * * * * * * * * * * * * * * * * * //

dimensions      [0 1 -1 0 0 0 0];

internalField   nonuniform List<vector> 
28942
(
(0.00443666 -0.00226099 -3.43841e-22)
(0.00600465 -0.00234547 -6.39365e-23)
(0.0179412 -0.0123898 -8.20212e-22)
(0.103305 0.0182363 -5.24714e-21)
(0.102343 0.0222787 1.71811e-21)
(0.0149217 0.000466347 0)
(0.0177388 4.30322e-05 1.15756e-23)
(0.0205588 0.000602278 -1.02649e-23)
(0.135248 -0.0183879 -2.5326e-22)
(0.133902 -0.0167527 7.21034e-22)
(0.00980711 0.00401617 -6.78042e-22)
(0.0160874 0.00563375 2.57412e-22)
(0.00714564 0.00315504 0)
(0.00471272 0.00207012 0)
(0.046415 0.00204462 -1.58587e-23)
(0.0445589 0.00264099 -6.23134e-24)
(0.0893168 0.0158806 6.66221e-22)
(0.0870047 0.0138492 1.07227e-21)
(0.0121668 -0.0151153 2.90455e-21)
(0.029336 -0.0304731 -7.64386e-22)
(0.0981208 0.0373858 9.49623e-22)
(0.0972989 0.0344224 0)
(0.0187545 0.00463267 1.17e-21)
(0.00787046 0.00236617 5.52041e-22)
(0.0378208 0.00721947 9.47411e-22)
(0.0575615 0.00291985 -8.63694e-22)
(0.00764834 -0.0184964 8.49241e-21)
(0.00669399 -0.0165605 -3.12822e-21)
(0.0355171 -0.0253272 5.68524e-22)
(0.0193042 -0.0136844 1.96174e-22)
(0.0153073 -0.00141026 0)
(0.0191384 -0.00123169 -1.43554e-23)
(0.0242939 0.00436808 2.95821e-22)
(0.0349554 0.00193692 -4.7073e-23)
(0.0188261 0.0180093 1.30995e-21)
(0.0157202 0.0191187 -1.29933e-21)
(0.0321703 0.0376146 -3.04562e-21)
(0.0186697 0.0305324 -1.06676e-21)
(0.00819344 4.17321e-06 -9.69956e-24)
(0.00864892 0.0161959 -2.60947e-21)
(0.0306489 -0.00620321 0)
(0.0513421 -0.0109695 0)
(0.112099 -0.0120946 -2.69001e-23)
(0.11161 -0.0121101 7.93984e-23)
(0.116095 -0.0120006 6.91206e-23)
(0.0289657 0.000210395 1.21556e-23)
(0.0269731 -0.000596227 -1.95992e-23)
(0.0384895 -0.000497364 -8.88095e-23)
(0.0368884 -0.00056641 2.52805e-23)
(0.0300047 -0.0027662 -2.17951e-22)
(0.022352 -0.00333165 1.41328e-22)
(0.128629 0.00138161 -3.97572e-22)
(0.127947 0.000905962 -3.71478e-22)
(0.134567 -0.0211599 -3.77588e-24)
(0.133018 -0.0194329 1.37722e-22)
(0.0825503 0.00637649 7.19546e-22)
(0.101807 -0.000740117 2.51936e-22)
(0.0030618 0.00162198 -5.67788e-22)
(0.00895223 0.00368248 0)
(0.0082655 0.00329192 2.38194e-22)
(0.00288572 0.00148938 4.90001e-22)
(0.000362655 0.00022645 -4.07305e-22)
(0.000193039 0.000122688 -3.91573e-22)
(0.109804 -0.0426101 0)
(0.104941 -0.0256099 1.28023e-22)
(0.121813 -0.0331081 -4.4269e-23)
(0.123453 -0.043765 0)
(0.0901134 -0.0328065 -6.36987e-22)
(0.093618 -0.0352725 -4.18593e-22)
(0.00188878 -0.0011318 1.13689e-21)
(0.00249355 -0.00202065 -3.58222e-22)
(0.00488071 -0.00316109 8.88801e-22)
(0.0848867 -0.0457661 0)
(0.0912114 -0.0396275 2.16181e-21)
(0.080557 -0.0530335 5.83946e-22)
(0.114179 0.0123796 2.41014e-22)
(0.112783 0.0068716 -2.67198e-22)
(0.125148 0.0109699 -1.1584e-22)
(0.0046851 -0.00286288 -5.31843e-23)
(0.00634085 -0.00442745 4.43257e-22)
(0.0510263 -0.0311553 1.24289e-22)
(0.033167 -0.0205437 -2.56489e-22)
(0.00211402 -0.000597849 3.21417e-21)
(0.0051624 -0.00207572 -1.25237e-21)
(0.101005 0.0482458 1.23045e-23)
(0.0970476 0.0552128 -7.60719e-22)
(0.0807342 0.0540119 6.93781e-22)
(0.0472122 0.0345129 -2.66846e-21)
(0.0444409 0.0316097 1.88973e-21)
(0.0294966 0.0205979 -1.12819e-22)
(0.0327172 0.0232506 -6.38748e-22)
(0.0379586 0.0283601 8.65708e-22)
(0.00441344 0.00271693 -5.97055e-23)
(0.00777248 0.00397172 -1.7198e-23)
(0.00319112 0.00201758 3.44629e-23)
(0.0019227 0.00163894 -4.61034e-22)
(0.00144874 0.00156036 5.65564e-22)
(0.0157442 0.0115448 -3.24086e-21)
(0.017497 0.0136364 7.42051e-22)
(0.00881182 -0.00385105 0)
(0.101389 0.00515959 0)
(0.0984003 0.0156836 -3.95101e-21)
(0.0604405 0.0104756 1.93512e-21)
(0.08868 0.0178814 0)
(0.135497 -0.00118563 0)
(0.134936 -0.00190302 0)
(0.133252 -0.00239412 -2.43257e-22)
(0.114976 0.0265887 -2.11087e-22)
(0.114068 0.0279925 2.08734e-21)
(0.113269 0.0254529 1.12011e-21)
(0.00229634 0.00129996 1.05936e-21)
(0.00151266 0.000777117 -1.18902e-21)
(0.0190704 -0.00554628 -5.53454e-22)
(0.0201549 -0.00507791 4.73022e-22)
(0.00911421 -0.00293611 9.34948e-22)
(0.00647663 0.0111448 1.47626e-21)
(0.0189683 0.0181535 3.45045e-21)
(0.0134654 0.0227952 2.72184e-22)
(0.00492085 0.0143029 -8.60683e-21)
(0.117011 0.047742 5.50143e-23)
(0.107877 0.0582314 1.06212e-21)
(0.11834 0.054866 -1.83171e-21)
(0.0390964 -0.0294213 7.27713e-22)
(0.0240124 -0.0172671 -4.6454e-22)
(0.00532172 -0.000746341 -4.09542e-21)
(0.00453871 -0.00359636 0)
(0.0124967 -0.00167854 1.99873e-21)
(0.0219669 -0.0161323 7.75119e-22)
(0.0342594 -0.0277876 -1.94595e-21)
(0.0364121 -1.88077e-05 6.1796e-23)
(0.0387047 0.000143022 -4.47756e-23)
(0.0342019 0.000167117 -1.91035e-24)
(0.0280583 -0.0419545 0)
(0.0296075 -0.0428467 0)
(0.089622 -0.0186534 -4.61385e-22)
(0.0995898 -0.0220913 3.13554e-21)
(0.087034 -0.0252787 0)
(0.047123 -0.0401929 0)
(0.0581844 -0.0513902 -7.79462e-22)
(0.0413135 0.0393361 2.0798e-21)
(-3.605e-06 0.00021278 5.18286e-22)
(-0.00019555 0.000129957 -3.41964e-22)
(0.0223294 -0.0192429 -7.87672e-22)
(0.120437 -0.0118645 3.89717e-22)
(0.119816 -0.0118246 -7.54174e-23)
(0.115503 -0.00568977 -6.77096e-23)
(0.108437 0.00101427 9.02326e-23)
(0.117702 -0.000276586 1.86563e-22)
(8.14861e-05 0.000258707 1.99849e-22)
(0.0437483 0.0344195 3.19243e-21)
(0.0618802 0.046308 -7.84945e-22)
(0.0593174 0.0393672 -2.99923e-24)
(0.0238076 -0.000873943 5.95756e-24)
(0.0234587 -0.00086352 3.14212e-23)
(0.0254484 -0.000648613 1.3036e-24)
(0.0284063 -0.000639052 -1.54526e-23)
(0.0454219 0.0380893 1.33788e-22)
(0.0189626 0.0160591 0)
(0.000142353 -3.52309e-05 3.72746e-22)
(0.000426122 -0.000261101 -4.13534e-22)
(0.00186668 -0.0010215 2.88842e-22)
(0.0365762 -0.00773134 -1.85068e-21)
(0.0648968 -0.00211332 -7.55713e-22)
(0.0330058 -0.000241473 -2.24598e-24)
(0.0745069 -0.00764116 2.72274e-22)
(0.0707143 -0.0157296 6.54861e-23)
(0.0943075 0.0399087 2.13704e-21)
(0.0914088 0.0454443 9.92823e-23)
(0.0887505 0.029078 1.21237e-21)
(0.0914759 0.0307945 -8.78593e-22)
(0.0987 0.0410689 0)
(0.126095 -0.000382722 1.48232e-22)
(0.126864 -0.000818916 2.7987e-22)
(0.128094 -0.012296 -2.92906e-22)
(0.129557 -0.0120981 5.01246e-22)
(0.117055 0.0241297 2.58746e-22)
(0.119114 0.0250286 -7.32646e-22)
(0.117102 0.0261427 0)
(0.115136 0.0248818 1.52598e-22)
(0.116674 0.0280658 0)
(0.117178 0.0360877 -5.48757e-22)
(0.115716 0.0381405 -2.99697e-22)
(0.111343 0.0419554 -5.38499e-22)
(0.113737 0.0400866 0)
(0.116427 0.0430611 1.78038e-21)
(0.113704 0.044985 4.73883e-23)
(0.108336 0.0441672 -3.02611e-22)
(0.0996348 0.0502724 -1.28257e-21)
(0.0984239 0.0454843 -2.26004e-22)
(0.0249991 -0.00851453 6.15493e-23)
(0.0328663 -0.00937517 -2.45585e-23)
(0.00629581 -0.00249611 -6.98513e-22)
(0.0323879 -7.93511e-05 -3.96897e-23)
(0.0414423 -0.000281904 0)
(-2.05338e-06 -4.12717e-05 4.38011e-22)
(1.3942e-05 -4.79617e-05 2.23026e-22)
(0.037516 -0.00187924 1.84727e-23)
(0.0442855 -0.00182676 7.50471e-24)
(0.0438153 -0.00125194 0)
(0.0362929 -0.000853064 8.1418e-24)
(0.0879882 0.00383878 -1.12064e-22)
(0.0872679 0.00346604 5.29737e-22)
(0.0881684 0.00358295 2.44986e-22)
(0.000670578 0.000271061 3.96295e-22)
(-0.000159839 -0.000129609 -5.73611e-22)
(-0.000201572 -0.00016935 4.89444e-22)
(0.00150185 0.000618141 0)
(8.01689e-05 8.79689e-05 1.14494e-21)
(0.000172253 -3.89239e-05 -8.26425e-22)
(0.00745378 0.00367619 -9.96645e-22)
(0.00145317 0.000782126 -1.18873e-21)
(0.0017221 0.00086141 0)
(0.00157198 0.00754157 0)
(0.000576951 0.00328026 0)
(0.000313296 0.00197617 0)
(0.136663 -0.00120302 5.481e-23)
(0.137667 -0.00104163 0)
(0.136038 -0.00199101 -6.39547e-23)
(0.0881136 -0.0148572 4.4146e-21)
(0.0901203 -0.0152658 -1.60247e-21)
(0.0890355 -0.0128816 0)
(0.101859 0.000216956 -6.7029e-24)
(0.102556 0.000210881 1.34152e-23)
(0.101155 0.000224087 -4.53226e-24)
(0.103244 0.000208082 0)
(0.103925 0.000214445 -8.55539e-24)
(0.104593 0.000214856 0)
(0.10459 -0.000493479 0)
(0.105247 0.000202467 3.17507e-23)
(0.105235 -0.0005047 0)
(0.10393 -0.000495148 -8.61697e-24)
(0.103249 -0.000502017 0)
(0.102561 -0.000507692 4.48508e-24)
(0.10186 -0.000516666 -6.69965e-24)
(0.10116 -0.000522723 4.52659e-24)
(0.105882 0.000188168 -3.03828e-23)
(0.105871 -0.000507833 -1.0623e-24)
(0.100439 0.000236984 1.9997e-28)
(0.100439 -0.000520813 -6.91405e-24)
(0.0997072 0.000248809 3.67554e-23)
(0.106501 0.000182046 2.83762e-26)
(0.106506 -0.00050022 -1.06219e-24)
(0.0997122 -0.000526751 1.36204e-23)
(0.107115 0.00017529 2.85582e-23)
(0.107718 0.000171496 -2.85347e-23)
(0.107124 -0.00049271 2.13983e-24)
(0.107727 -0.000482588 4.2245e-24)
(0.0989939 0.000274556 -3.57612e-23)
(0.0989913 -0.000530381 -8.96362e-24)
(0.108307 0.000166128 0)
(0.108318 -0.000473047 -4.16677e-24)
(0.0982539 0.000288794 4.41895e-27)
(0.0982536 -0.000526107 -4.43003e-27)
(0.108884 0.000163174 0)
(0.108894 -0.000461312 0)
(0.097506 0.000299341 0)
(0.097506 -0.000524855 0)
(0.109447 0.000158327 0)
(0.109457 -0.000450418 1.99685e-24)
(0.096751 0.000310572 -1.85005e-23)
(0.0967507 -0.000521214 -4.51666e-27)
(0.109996 0.00015566 1.04624e-25)
(0.110006 -0.000437463 -2.13257e-24)
(0.0959888 0.000320168 1.8589e-23)
(0.0959886 -0.000518457 0)
(0.110531 0.000150966 0)
(0.110541 -0.000425288 0)
(0.0952209 0.000331009 -1.1744e-24)
(0.0952204 -0.000512123 2.01442e-23)
(0.111052 0.000148278 1.29012e-23)
(0.111061 -0.000410839 0)
(0.0944485 0.000340014 -9.44186e-26)
(0.0944465 -0.000505068 -1.90654e-23)
(0.111557 0.000143705 -1.92899e-23)
(0.111567 -0.000397142 -5.59498e-24)
(0.093655 0.000341582 1.94215e-23)
(0.0936565 -0.000497167 0)
(0.112049 0.000141865 6.34887e-24)
(0.112061 -0.000378307 3.73071e-24)
(0.0928598 0.000351552 -9.81331e-24)
(0.0928614 -0.000491826 1.98956e-23)
(0.112523 0.000142043 -2.53098e-23)
(0.112544 -0.000352696 2.85265e-23)
(0.0920313 0.000344803 1.01054e-23)
(0.0920426 -0.000491546 3.19575e-25)
(0.11299 0.000144148 0)
(0.113009 -0.000328612 1.35776e-23)
(0.091196 0.000339481 -2.03011e-23)
(0.0912146 -0.000498714 4.06045e-23)
(0.113457 0.000138455 0)
(0.113463 -0.000310778 0)
(0.0922756 0.00117559 -9.99918e-24)
(0.0914372 0.00117624 -4.0405e-23)
(0.0903364 0.00032769 0)
(0.0903729 -0.000518134 -2.06581e-23)
(0.0939009 0.00116466 -6.29177e-24)
(0.0930911 0.00117126 1.2352e-24)
(0.0954573 0.00113534 0)
(0.0946766 0.00114983 -2.03459e-23)
(0.0969781 0.00110104 -3.93935e-26)
(0.0962216 0.00111867 0)
(0.0984681 0.00106334 0)
(0.0977269 0.00108257 0)
(0.0999299 0.00101655 0)
(0.0992019 0.00104226 0)
(0.101332 0.000969914 8.94994e-24)
(0.100629 0.000991948 2.25519e-24)
(0.102717 0.000936106 -8.63372e-24)
(0.102035 0.000952439 -8.9346e-24)
(0.104061 0.00090785 1.53333e-23)
(0.103388 0.000915222 1.95889e-23)
(0.10538 0.000883205 0)
(0.104724 0.000899281 0)
(0.106637 0.00085286 -6.72945e-26)
(0.106016 0.000868081 0)
(0.107842 0.000818375 0)
(0.107245 0.000835917 0)
(0.108997 0.000781822 0)
(0.108426 0.000800191 0)
(0.110098 0.000744072 0)
(0.109554 0.000763006 0)
(0.111143 0.000705184 0)
(0.110628 0.000724704 0)
(0.112131 0.000664668 0)
(0.111644 0.000685078 0)
(0.113067 0.000608311 -1.03246e-23)
(0.112602 0.000642998 0)
(0.11352 0.000579506 -3.3286e-24)
(0.113904 0.000128764 3.2481e-24)
(0.113908 -0.000297053 -3.22108e-24)
(0.112617 -0.000818981 0)
(0.113528 -0.000751604 -1.32261e-23)
(0.113079 -0.000783939 -6.82755e-24)
(0.111649 -0.000888892 1.87582e-24)
(0.112139 -0.000855415 -7.33174e-24)
(0.110631 -0.000949116 6.08876e-26)
(0.111147 -0.00092064 0)
(0.109557 -0.00100248 0)
(0.110101 -0.000976158 0)
(0.108427 -0.00105264 0)
(0.108999 -0.00102787 0)
(0.107244 -0.00109975 0)
(0.107842 -0.00107648 8.04821e-30)
(0.106009 -0.0011447 6.79999e-26)
(0.106632 -0.00112228 0)
(0.104733 -0.00117827 0)
(0.105374 -0.00116389 0)
(0.103408 -0.00120513 0)
(0.104074 -0.00119181 0)
(0.102038 -0.0012338 0)
(0.102727 -0.00121698 -4.53369e-24)
(0.100631 -0.00126421 1.19104e-24)
(0.101337 -0.00125354 -5.84282e-24)
(0.0991992 -0.00129252 0)
(0.0999243 -0.00127677 -4.75181e-24)
(0.0977261 -0.00130856 0)
(0.098467 -0.00130152 0)
(0.0962203 -0.00131804 0)
(0.0969771 -0.00131399 0)
(0.0946799 -0.00132007 0)
(0.0954554 -0.00132002 0)
(0.0931019 -0.0013166 -5.14371e-24)
(0.0938973 -0.00131735 0)
(0.0914911 -0.0013292 -2.07717e-23)
(0.0923014 -0.00131739 -5.16215e-24)
(0.0906621 -0.00134526 2.1119e-23)
(0.0905852 0.00117915 4.00381e-23)
(0.113962 0.000553893 6.50772e-24)
(0.113966 -0.000719755 -1.2696e-23)
(0.0895086 -0.000548868 0)
(0.0898247 -0.00137668 0)
(0.0897211 0.00118261 0)
(0.089464 0.000308362 0)
(0.0927695 0.00198903 0)
(0.0911279 0.00202589 1.00299e-23)
(0.0919538 0.00200521 1.01435e-23)
(0.0943683 0.00194943 1.29179e-23)
(0.0935746 0.00197077 -2.58093e-24)
(0.0958971 0.00189884 4.00151e-26)
(0.0951382 0.00192448 0)
(0.0973916 0.00184716 0)
(0.0966482 0.00187319 0)
(0.0988547 0.00179402 0)
(0.098127 0.00182079 0)
(0.100288 0.00174135 0)
(0.0995747 0.00176693 0)
(0.101682 0.00168623 0)
(0.100989 0.00171499 0)
(0.103039 0.00163504 -3.61826e-26)
(0.102361 0.00166201 9.33104e-24)
(0.10435 0.00157954 -3.47127e-26)
(0.103704 0.00160582 -1.82175e-23)
(0.105636 0.00152018 0)
(0.104997 0.00154927 0)
(0.106872 0.00146269 3.36e-26)
(0.106261 0.00149144 0)
(0.108058 0.00140291 0)
(0.107471 0.00143316 0)
(0.109193 0.00134033 0)
(0.108632 0.00137192 0)
(0.110276 0.00127535 0)
(0.109741 0.0013081 0)
(0.111303 0.00120813 0)
(0.110797 0.001242 0)
(0.112274 0.00113762 0)
(0.111796 0.00117348 0)
(0.113194 0.00105291 7.05304e-24)
(0.112739 0.0010978 0)
(0.114336 0.000122783 0)
(0.114386 0.000528884 6.34433e-24)
(0.114069 0.000967849 0)
(0.113637 0.00101004 6.86317e-24)
(0.113648 -0.00118559 1.36669e-23)
(0.114075 -0.00113832 3.34974e-24)
(0.114388 -0.000692296 2.61303e-23)
(0.114337 -0.000281746 0)
(0.112751 -0.00128334 0)
(0.113205 -0.00123403 -2.06387e-23)
(0.111802 -0.00137923 5.90246e-26)
(0.112284 -0.00133067 7.37633e-24)
(0.110801 -0.00146595 -6.08873e-26)
(0.111308 -0.00142347 0)
(0.109746 -0.00154726 0)
(0.110281 -0.00150711 0)
(0.108636 -0.00162448 0)
(0.109197 -0.00158636 0)
(0.107474 -0.00169752 0)
(0.108061 -0.00166151 -8.04818e-30)
(0.106262 -0.0017663 -1.35903e-25)
(0.106874 -0.00173246 0)
(0.105008 -0.00182766 0)
(0.10564 -0.00179824 0)
(0.103706 -0.00188271 2.28677e-24)
(0.104363 -0.00185565 0)
(0.102367 -0.00192996 0)
(0.10304 -0.00190455 -2.27723e-24)
(0.100988 -0.00197704 4.76236e-24)
(0.101677 -0.001955 4.73452e-24)
(0.0995737 -0.00201446 0)
(0.100286 -0.00199672 0)
(0.0981255 -0.00204645 0)
(0.0988537 -0.00203122 0)
(0.0966448 -0.00207248 0)
(0.0973892 -0.00206015 0)
(0.0951313 -0.00209348 0)
(0.0958923 -0.00208344 0)
(0.0935843 -0.00211185 8.21207e-26)
(0.0943623 -0.0021028 0)
(0.0920031 -0.00213068 -8.30695e-26)
(0.0927992 -0.00212136 0)
(0.0903869 -0.00218002 -2.16923e-23)
(0.0911979 -0.00215226 2.16824e-23)
(0.0902884 0.00204677 2.03628e-23)
(0.0889828 -0.00141949 0)
(0.0895676 -0.00222059 -4.39957e-23)
(0.0886456 -0.00058599 0)
(0.114485 0.000931908 0)
(0.114491 -0.00109142 -3.24513e-24)
(0.0888518 0.00118741 5.15031e-23)
(0.0894437 0.00206899 2.05865e-23)
(0.088126 -0.00146376 1.11317e-23)
(0.0887395 -0.00226806 5.55952e-23)
(0.0885799 0.000285815 0)
(0.114228 0.0013786 2.67876e-23)
(0.114632 0.00132485 -1.32219e-23)
(0.114794 -0.000662508 -6.41862e-24)
(0.114891 -0.00104308 3.18924e-23)
(0.0903417 0.00291961 7.22635e-23)
(0.0885784 0.00209118 -4.0569e-23)
(0.0886534 0.00298613 -1.80628e-22)
(0.0894949 0.00294758 -4.12515e-23)
(0.0919514 0.00284746 2.01681e-23)
(0.0911522 0.00288501 -6.15283e-23)
(0.0935148 0.00277609 -2.06541e-23)
(0.0927395 0.00281187 -1.55479e-23)
(0.0950526 0.00270996 -5.16504e-24)
(0.0942903 0.00274451 -5.16028e-24)
(0.0965424 0.00264422 -4.00151e-26)
(0.0958041 0.00267764 0)
(0.0979959 0.00257642 0)
(0.097273 0.00261043 0)
(0.0994185 0.00250768 0)
(0.098711 0.0025422 0)
(0.100811 0.00243824 0)
(0.100118 0.00247292 0)
(0.102168 0.00236858 0)
(0.101493 0.0024033 0)
(0.103489 0.00229616 0)
(0.102832 0.00233275 0)
(0.104771 0.00222183 7.31809e-29)
(0.104136 0.00225987 0)
(0.106016 0.00214147 0)
(0.105398 0.00218183 0)
(0.107219 0.00205987 3.35011e-26)
(0.106623 0.0021009 0)
(0.108374 0.00197534 0)
(0.107802 0.00201805 0)
(0.109481 0.00188721 0)
(0.108934 0.00193172 0)
(0.110536 0.0017956 0)
(0.110015 0.00184183 0)
(0.111538 0.0017007 0)
(0.111043 0.00174856 0)
(0.112484 0.00160154 0)
(0.112018 0.00165187 0)
(0.113379 0.00149125 3.5909e-24)
(0.112938 0.00154765 -1.80791e-24)
(0.11381 0.00143514 -1.36745e-23)
(0.114744 0.000120289 -3.04125e-24)
(0.114885 0.000894647 1.27012e-23)
(0.114791 0.000509075 -9.73152e-24)
(0.114744 -0.000273572 0)
(0.113821 -0.00160981 -1.01571e-23)
(0.11464 -0.00148159 -2.92465e-23)
(0.114237 -0.00154621 2.35908e-23)
(0.112948 -0.00174 0)
(0.113391 -0.0016738 0)
(0.112025 -0.00185809 -7.91338e-29)
(0.112494 -0.00179785 0)
(0.11105 -0.001972 0)
(0.111544 -0.00191584 0)
(0.110021 -0.00208045 -6.25313e-26)
(0.110542 -0.00202684 0)
(0.10894 -0.00218387 0)
(0.109487 -0.00213282 0)
(0.107809 -0.00228173 0)
(0.10838 -0.00223354 0)
(0.10663 -0.0023734 6.79134e-26)
(0.107225 -0.0023284 0)
(0.105408 -0.00245727 6.95081e-26)
(0.106024 -0.0024164 0)
(0.104142 -0.00253415 0)
(0.10478 -0.00249647 0)
(0.102837 -0.00260323 0)
(0.103495 -0.00256966 0)
(0.101496 -0.00266601 0)
(0.10217 -0.00263542 0)
(0.100119 -0.00272011 0)
(0.100812 -0.00269376 0)
(0.0987089 -0.00276836 -7.75631e-26)
(0.0994178 -0.00274502 0)
(0.0972671 -0.00281061 0)
(0.097992 -0.00279018 0)
(0.0957935 -0.00284809 0)
(0.0965343 -0.00282983 0)
(0.0942878 -0.00288287 -1.89161e-28)
(0.0950446 -0.00286568 0)
(0.0927504 -0.00291714 2.08845e-28)
(0.0935233 -0.00290003 0)
(0.0911839 -0.00296255 8.55477e-26)
(0.0919679 -0.00293555 0)
(0.0895921 -0.0030405 -4.4867e-23)
(0.0903899 -0.00299647 1.10478e-23)
(0.0879029 -0.00231444 1.12861e-23)
(0.0887998 -0.00309156 2.24434e-23)
(0.0879733 0.0011856 -2.01882e-23)
(0.0877659 -0.000625878 -2.15559e-23)
(0.115022 0.00127166 3.22964e-24)
(0.115031 -0.00142158 2.29783e-23)
(0.0876747 0.00209204 2.52382e-24)
(0.0872613 -0.00151546 0)
(0.0875649 0.00288334 2.76717e-22)
(0.0880035 -0.00314373 3.43926e-23)
(0.0870745 -0.00236483 4.59394e-23)
(0.0890719 0.00400545 -4.55821e-22)
(0.0887147 0.00415605 8.35577e-23)
(0.0877058 0.000266921 0)
(0.090041 0.00383573 4.63003e-23)
(0.0894475 0.00394584 2.35974e-23)
(0.0914982 0.00372129 4.18513e-23)
(0.0907299 0.00376648 -6.3743e-23)
(0.0930208 0.00362566 -2.08737e-23)
(0.0922691 0.00367575 -1.03976e-23)
(0.0945007 0.00353539 1.04805e-23)
(0.0937644 0.00357941 1.05976e-23)
(0.0959581 0.00344807 0)
(0.09523 0.00349039 -1.55382e-26)
(0.0973841 0.00336487 0)
(0.0966749 0.00340655 0)
(0.0987819 0.00328168 3.91002e-26)
(0.0980865 0.00332327 0)
(0.100151 0.00319791 0)
(0.0994701 0.00323996 0)
(0.101491 0.00311273 0)
(0.100825 0.0031555 0)
(0.102799 0.00302578 0)
(0.102149 0.00306953 0)
(0.104073 0.00293559 3.5958e-26)
(0.10344 0.00298113 0)
(0.105311 0.00284157 8.21395e-29)
(0.104697 0.00288929 0)
(0.106511 0.00274207 0)
(0.105915 0.00279235 0)
(0.10767 0.00263851 -6.69296e-26)
(0.107096 0.00269081 0)
(0.108786 0.00253052 0)
(0.108234 0.00258511 0)
(0.109855 0.00241781 0)
(0.109326 0.00247476 0)
(0.110874 0.00230052 0)
(0.110371 0.00235973 0)
(0.111843 0.00217897 0)
(0.111365 0.00224028 0)
(0.112758 0.0020526 0)
(0.112307 0.00211653 0)
(0.113624 0.00191961 -1.79278e-24)
(0.113197 0.00198582 0)
(0.114439 0.00177995 0)
(0.114037 0.00184997 -3.46911e-24)
(0.115204 0.00163846 -2.39286e-27)
(0.114829 0.00170949 0)
(0.115267 0.000858383 -1.28777e-23)
(0.115571 0.00157346 7.75236e-25)
(0.1154 0.00122193 6.294e-24)
(0.115131 0.000114437 4.63196e-24)
(0.115178 0.000488132 -3.19717e-24)
(0.115182 -0.000633385 -1.61027e-24)
(0.115134 -0.000261378 1.60676e-24)
(0.115405 -0.00136423 0)
(0.115273 -0.00100215 -1.4631e-23)
(0.114838 -0.00186727 -6.57534e-24)
(0.115577 -0.00172061 -1.25661e-23)
(0.115215 -0.00179217 2.88593e-23)
(0.114049 -0.0020236 -3.45958e-24)
(0.11445 -0.00194544 0)
(0.113207 -0.00217758 0)
(0.113634 -0.00210019 0)
(0.112316 -0.00232297 -1.00215e-28)
(0.112768 -0.00225095 0)
(0.111374 -0.00246315 0)
(0.111852 -0.00239377 0)
(0.11038 -0.00259773 6.25313e-26)
(0.110883 -0.00253116 0)
(0.109336 -0.00272629 0)
(0.109864 -0.00266282 0)
(0.108244 -0.002848 0)
(0.108796 -0.00278807 0)
(0.107107 -0.002962 0)
(0.107681 -0.00290603 0)
(0.105927 -0.00306735 -1.55226e-28)
(0.106522 -0.0030158 0)
(0.104706 -0.00316427 0)
(0.105322 -0.00311685 0)
(0.103448 -0.00325237 0)
(0.104082 -0.0032094 0)
(0.102155 -0.00333232 0)
(0.102805 -0.0032934 0)
(0.100827 -0.0034036 0)
(0.101495 -0.00336889 0)
(0.0994681 -0.00346783 7.75631e-26)
(0.100152 -0.00343658 0)
(0.0980781 -0.00352576 0)
(0.0987769 -0.00349752 0)
(0.0966579 -0.00357889 0)
(0.0973718 -0.00355281 0)
(0.0952078 -0.00362933 -8.19237e-26)
(0.0959365 -0.00360431 0)
(0.0937282 -0.00367907 8.32773e-26)
(0.0944717 -0.00365423 0)
(0.0922193 -0.00373143 -8.45811e-26)
(0.092977 -0.00370457 0)
(0.0906917 -0.0037969 1.10904e-23)
(0.0914536 -0.00375948 -2.18888e-23)
(0.0891716 -0.00389303 -1.11435e-23)
(0.0899278 -0.00384008 2.26596e-23)
(0.0871972 -0.00319177 2.63254e-25)
(0.088404 -0.00394498 2.28041e-23)
(0.0870785 0.00116416 -2.06339e-23)
(0.0868881 -0.00065311 0)
(0.0867655 0.00203792 -1.99061e-22)
(0.0863942 -0.00154769 0)
(0.115433 0.00200026 -3.21784e-24)
(0.115781 0.00191608 2.35699e-24)
(0.115763 -0.00130788 -1.23105e-23)
(0.115927 -0.00164388 -1.39384e-23)
(0.0865231 0.00280515 -1.9373e-22)
(0.0862387 -0.00241048 -4.63888e-23)
(0.0877739 0.00411434 0)
(0.0903975 0.00475497 -5.27339e-23)
(0.0863928 -0.00324004 -2.27559e-23)
(0.0876294 -0.00399369 3.44346e-23)
(0.0897288 0.00473731 1.05973e-22)
(0.0868208 0.000246545 0)
(0.091499 0.00458879 0)
(0.0909167 0.00467718 -4.70651e-23)
(0.092868 0.00446236 0)
(0.092164 0.00452292 0)
(0.0942866 0.00435149 0)
(0.0935786 0.0044045 1.0772e-23)
(0.0956767 0.00424905 0)
(0.0949834 0.00429999 0)
(0.097052 0.00414952 0)
(0.0963662 0.00419838 0)
(0.0984061 0.00405316 0)
(0.097732 0.00410135 0)
(0.0997363 0.00395667 -3.91002e-26)
(0.0990743 0.00400498 0)
(0.101041 0.00385906 0)
(0.100392 0.0039081 0)
(0.102319 0.0037592 0)
(0.101683 0.00380947 0)
(0.103567 0.00365625 0)
(0.102947 0.00370819 0)
(0.104783 0.00354909 -1.02354e-28)
(0.104179 0.00360328 0)
(0.105966 0.00343688 9.69992e-29)
(0.105379 0.00349372 0)
(0.107113 0.00331849 0)
(0.106544 0.00337843 0)
(0.108221 0.0031943 8.67089e-29)
(0.107672 0.00325714 0)
(0.109288 0.00306417 0)
(0.10876 0.00312999 0)
(0.110311 0.00292809 0)
(0.109805 0.00299687 0)
(0.111287 0.00278633 0)
(0.110805 0.0028579 0)
(0.112215 0.00263938 0)
(0.111757 0.00271349 0)
(0.113093 0.00248737 0)
(0.11266 0.00256404 0)
(0.113921 0.00233035 0)
(0.113513 0.00240947 0)
(0.114701 0.00216665 3.43312e-24)
(0.114317 0.00224743 3.52179e-24)
(0.115074 0.00208242 -6.57856e-24)
(0.115631 0.000822791 -6.30631e-24)
(0.115922 0.00151018 0)
(0.115758 0.00116928 -6.36746e-24)
(0.115501 0.000109862 0)
(0.115543 0.000469149 6.436e-24)
(0.115549 -0.00060712 9.60874e-24)
(0.115502 -0.000250097 -3.24849e-24)
(0.115637 -0.000959684 -1.88883e-23)
(0.115084 -0.00224136 3.30757e-24)
(0.11579 -0.00205819 1.22518e-23)
(0.115444 -0.00215422 0)
(0.114329 -0.00242173 -6.8724e-24)
(0.114713 -0.00233231 6.89509e-24)
(0.113524 -0.0025992 0)
(0.113932 -0.00251172 0)
(0.112671 -0.00277006 -1.20242e-28)
(0.113104 -0.00268527 0)
(0.111769 -0.00293559 0)
(0.112226 -0.00285355 0)
(0.110817 -0.00309506 0)
(0.111299 -0.00301615 0)
(0.109818 -0.00324754 0)
(0.110324 -0.00317226 0)
(0.108774 -0.00339196 0)
(0.109302 -0.00332083 0)
(0.107687 -0.00352739 6.74798e-26)
(0.108236 -0.00346087 0)
(0.106559 -0.00365312 -6.93529e-26)
(0.107128 -0.0035915 0)
(0.105393 -0.00376911 0)
(0.105981 -0.00371234 0)
(0.104191 -0.00387519 0)
(0.104797 -0.00382338 0)
(0.102956 -0.00397181 0)
(0.103578 -0.0039247 0)
(0.101689 -0.00405923 0)
(0.102326 -0.00401659 0)
(0.100392 -0.00413875 0)
(0.101044 -0.00409993 0)
(0.0990656 -0.00421154 0)
(0.0997322 -0.00417591 0)
(0.0977112 -0.00427926 -8.00343e-26)
(0.0983918 -0.00424592 0)
(0.0963293 -0.004344 8.14224e-26)
(0.0970236 -0.00431188 0)
(0.0949209 -0.00440783 -8.27577e-26)
(0.0956284 -0.00437595 0)
(0.0934874 -0.00447278 0)
(0.0942071 -0.00444002 0)
(0.0920305 -0.00454069 0)
(0.0927612 -0.00450609 0)
(0.090567 -0.00461761 8.75072e-26)
(0.091301 -0.00457734 1.11337e-23)
(0.089099 -0.0047154 -5.77205e-23)
(0.089828 -0.00466317 0)
(0.0868695 -0.00405139 -3.42338e-23)
(0.0883712 -0.00477105 -2.57704e-25)
(0.0861863 0.00113988 6.4428e-23)
(0.0860043 -0.000674312 0)
(0.11612 0.00183554 -1.2229e-23)
(0.116126 -0.00197295 -2.36323e-23)
(0.0857718 0.0019696 -3.39731e-23)
(0.0866546 0.00360667 9.39612e-25)
(0.0856133 0.00273702 9.6622e-23)
(0.0855312 -0.00156882 0)
(0.085391 -0.00243605 1.15767e-23)
(0.0886284 0.00469486 -9.89132e-23)
(0.0876271 0.0045839 8.45162e-23)
(0.0861439 0.00371705 -8.32936e-23)
(0.0855787 -0.00327715 -3.47271e-23)
(0.0860921 -0.00410182 2.3118e-23)
(0.0876553 -0.00483983 2.27076e-23)
(0.0859292 0.000226423 0)
(0.0918866 0.00541728 2.95253e-24)
(0.0902591 0.00542266 4.74409e-25)
(0.0911325 0.00540754 2.30277e-23)
(0.0930899 0.00528521 2.28331e-23)
(0.092492 0.00535871 -2.29516e-23)
(0.0943904 0.0051462 4.23534e-26)
(0.093722 0.00521275 0)
(0.0957143 0.00502955 0)
(0.0950547 0.00508575 0)
(0.0970221 0.0049194 0)
(0.0963699 0.0049743 0)
(0.0983154 0.00481125 0)
(0.0976708 0.00486492 0)
(0.0995901 0.00470428 3.95741e-26)
(0.0989553 0.00475786 0)
(0.100844 0.00459624 0)
(0.10022 0.00465046 0)
(0.102075 0.0044861 0)
(0.101462 0.00454152 0)
(0.103281 0.00437273 0)
(0.102681 0.0044299 0)
(0.10446 0.0042551 0)
(0.103874 0.00431453 0)
(0.10561 0.00413215 -3.58557e-26)
(0.105039 0.00419437 0)
(0.106729 0.00400297 1.11827e-28)
(0.106173 0.00406842 0)
(0.107814 0.00386668 0)
(0.107275 0.00393574 0)
(0.108863 0.00372315 6.65838e-26)
(0.108343 0.00379584 0)
(0.109874 0.0035723 0)
(0.109373 0.00364865 0)
(0.110843 0.00341427 0)
(0.110364 0.00349418 0)
(0.111769 0.00324948 0)
(0.111312 0.0033327 0)
(0.11265 0.00307858 0)
(0.112215 0.00316476 0)
(0.113484 0.0029022 0)
(0.113073 0.00299105 0)
(0.11427 0.00272087 5.59695e-26)
(0.113883 0.00281211 0)
(0.11501 0.00253418 -3.44811e-24)
(0.114646 0.00262856 0)
(0.115703 0.00234095 3.27557e-24)
(0.115362 0.00243775 0)
(0.116352 0.00214715 3.10712e-24)
(0.116032 0.00224445 -3.1869e-24)
(0.116253 0.00144427 6.15096e-24)
(0.116661 0.00205281 0)
(0.116444 0.00175678 9.1522e-24)
(0.115974 0.000788328 0)
(0.116096 0.00111993 0)
(0.115852 0.000105547 0)
(0.115893 0.000448737 0)
(0.115897 -0.000580742 0)
(0.115854 -0.00023884 0)
(0.116103 -0.00125234 1.25464e-23)
(0.115981 -0.000920261 3.11652e-24)
(0.116445 -0.00188874 3.07401e-24)
(0.116258 -0.00157478 2.45503e-23)
(0.116044 -0.00239076 1.60071e-23)
(0.116666 -0.00219183 3.05112e-24)
(0.11636 -0.00228946 -6.21653e-24)
(0.115374 -0.00259755 3.29166e-24)
(0.115713 -0.00249369 -1.97403e-23)
(0.114658 -0.0028019 -1.08901e-28)
(0.115022 -0.0026996 0)
(0.113895 -0.00300118 0)
(0.114282 -0.00290187 0)
(0.113086 -0.00319626 -1.39873e-28)
(0.113496 -0.00309935 0)
(0.11223 -0.00338587 0)
(0.112664 -0.00329184 0)
(0.111327 -0.0035688 0)
(0.111784 -0.00347826 0)
(0.110381 -0.00374377 0)
(0.11086 -0.00365737 0)
(0.109392 -0.00390957 0)
(0.109891 -0.0038279 0)
(0.108362 -0.00406522 -1.34759e-25)
(0.108882 -0.00398873 0)
(0.107295 -0.00421008 0)
(0.107833 -0.00413903 0)
(0.106192 -0.00434398 0)
(0.106748 -0.00427841 0)
(0.105056 -0.00446691 0)
(0.105628 -0.00440681 0)
(0.103889 -0.0045793 0)
(0.104476 -0.00452441 0)
(0.102691 -0.0046818 -7.5339e-26)
(0.103294 -0.00463173 0)
(0.101466 -0.00477564 0)
(0.102082 -0.00472974 0)
(0.100214 -0.00486223 0)
(0.100843 -0.00481976 0)
(0.0989363 -0.00494331 8.00343e-26)
(0.0995784 -0.00490335 0)
(0.0976336 -0.00502091 -3.0822e-28)
(0.0982879 -0.00498243 0)
(0.0963073 -0.00509702 1.65198e-25)
(0.0969733 -0.00505906 0)
(0.094959 -0.00517334 0)
(0.0956358 -0.00513508 0)
(0.0935901 -0.00525117 0)
(0.0942768 -0.00521183 0)
(0.0922037 -0.00533033 -3.52796e-28)
(0.0928995 -0.0052914 0)
(0.0908017 -0.00541609 0)
(0.0915034 -0.0053715 0)
(0.0894259 -0.00552846 -3.42245e-23)
(0.0901094 -0.0054684 0)
(0.0869245 -0.00490226 -2.49817e-25)
(0.0887477 -0.00559695 5.79999e-23)
(0.0852544 0.00109759 0)
(0.0893795 0.00541252 1.33479e-22)
(0.0848442 0.00190654 2.32068e-23)
(0.11662 0.00244809 -3.10127e-24)
(0.11691 0.00234436 0)
(0.116752 -0.00180782 2.98675e-24)
(0.116958 -0.00209281 -5.92959e-24)
(0.0851206 -0.00069232 0)
(0.0846615 -0.00158097 0)
(0.0848486 0.00281169 0)
(0.0845395 -0.00245356 -1.1402e-23)
(0.0847593 -0.00331607 -2.28766e-23)
(0.0853112 -0.00415693 0)
(0.0861836 -0.00496669 5.87139e-23)
(0.0880531 -0.00566585 -4.67805e-23)
(0.0850279 0.000202697 0)
(0.0921763 0.00611058 -1.1071e-26)
(0.0884549 0.00536081 4.18083e-23)
(0.0906004 0.0061644 -1.4893e-22)
(0.0913867 0.00615411 4.36999e-23)
(0.0936102 0.00604645 -1.42568e-23)
(0.0929074 0.00606022 -2.28315e-23)
(0.094828 0.00593286 0)
(0.0942325 0.00600077 0)
(0.0960597 0.00578874 -4.23496e-26)
(0.0954329 0.00585753 0)
(0.0972995 0.0056653 0)
(0.0966823 0.00572551 0)
(0.0985216 0.0055475 0)
(0.0979125 0.00560616 0)
(0.099728 0.00543111 0)
(0.0991268 0.00548917 0)
(0.100917 0.00531464 -3.95741e-26)
(0.100325 0.00537305 0)
(0.102087 0.00519623 0)
(0.101504 0.00525576 0)
(0.103236 0.00507477 0)
(0.102664 0.00513597 0)
(0.104363 0.0049491 0)
(0.103802 0.00501254 0)
(0.105465 0.00481808 0)
(0.104917 0.00488434 0)
(0.106541 0.00468064 3.56064e-26)
(0.106006 0.00475024 0)
(0.107588 0.00453583 1.25328e-28)
(0.107068 0.00460922 0)
(0.108604 0.00438286 0)
(0.1081 0.0044604 0)
(0.109588 0.0042214 -1.12076e-28)
(0.1091 0.00430321 0)
(0.110535 0.00405136 0)