/*--------------------------------*- C++ -*----------------------------------*\
  =========                 |
  \\      /  F ield         | OpenFOAM: The Open Source CFD Toolbox
   \\    /   O peration     | Website:  https://openfoam.org
    \\  /    A nd           | Version:  10
     \\/     M anipulation  |
\*---------------------------------------------------------------------------*/
FoamFile
{
    format      ascii;
    class       volScalarField;
    location    "38";
    object      p;
}
// * * * * * * * * * * * * * * * * * * * * * * * * * * * * * * * * * * * * * //

dimensions      [0 2 -2 0 0 0 0];

internalField   nonuniform List<scalar> 
14667
(
0.259987
0.270052
-0.00545434
-0.00463204
-0.00199466
0.267186
0.254423
-0.00579969
0.00288088
0.00192502
0.270533
0.284207
0.365698
0.297716
-0.0075057
0.251365
0.258508
0.0214428
0.0127991
0.260313
0.213881
0.294031
0.229706
0.221361
-0.596214
-0.613121
-0.647912
-0.624463
-0.61425
0.56298
0.527696
0.510627
-0.389549
-0.418811
-0.421378
-0.369981
-0.384456
0.00969522
-0.000377474
0.0100228
0.019018
0.0281033
0.670305
0.699692
0.801987
0.757311
0.642281
-0.0405837
-0.0330581
-0.0241514
-0.0348704
0.629597
0.574598
0.531093
-0.208496
-0.253442
-0.24469
-0.196063
-0.204446
-0.166423
-0.626145
-0.629765
0.198929
0.272369
0.377905
0.291795
0.133399
0.408653
0.273741
0.485678
0.468499
0.464398
0.884995
0.790526
-0.0292839
-0.0364106
-0.0377667
-0.038254
0.476716
0.483201
0.0129912
0.00843262
0.009397
-0.0010763
-0.000933648
-0.751303
-0.719151
-0.109979
-0.102685
-0.53756
-0.539035
0.005705
0.0116892
-0.102617
-0.103913
-0.120731
-0.118299
-0.269115
-0.277693
-0.284318
-0.300237
-0.414124
-0.324216
0.43558
0.467263
0.449649
0.425776
0.418917
0.408554
-0.00554117
-0.00862353
-0.00389803
-0.00308225
0.000898079
-0.00199231
-0.0562659
-0.0702157
-0.0622838
-0.00339918
-0.00671747
-0.00231091
-0.109776
-0.111243
-0.12244
-0.135933
-0.1342
-0.120491
-0.153631
-0.173078
-0.164113
-0.148181
-0.193177
-0.211893
-0.193519
-0.17967
-0.226395
-0.239845
-0.199543
-0.202286
-0.233372
-0.223016
-0.196047
-0.20269
-0.206989
-0.18713
-0.169343
-0.184247
-0.165367
-0.144265
-0.136996
-0.152972
-0.126505
-0.112982
-0.111461
-0.122986
-0.102673
-0.0960931
-0.0952537
-0.101974
-0.0920212
-0.0903208
-0.0906698
-0.0915809
-0.0912866
-0.0952118
-0.0978364
-0.0927191
-0.106179
-0.102254
-0.0980923
-0.0989348
-0.112879
-0.0952754
-0.0935651
-0.0957586
-0.104431
-0.0982357
-0.0958166
-0.0876608
-0.0902567
-0.0907513
-0.08789
-0.105756
-0.0961966
-0.133787
-0.118152
-0.174045
-0.152789
-0.213325
-0.195176
-0.232658
-0.225977
-0.221961
-0.228404
-0.192023
-0.209082
-0.154953
-0.173212
-0.124734
-0.138735
-0.113418
-0.0944381
-0.0959541
-0.105612
-0.0991819
-0.127109
-0.11509
-0.153408
-0.139797
-0.178941
-0.16683
-0.197517
-0.188805
-0.184346
-0.191811
-0.158668
-0.172975
-0.127596
-0.142951
-0.103508
-0.114187
-0.0908483
-0.0957682
-0.0887338
-0.088537
-0.0977718
-0.0917811
-0.107265
-0.0954439
-0.0939493
-0.104817
-0.134741
-0.0908245
-0.0880585
-0.0924384
-0.138763
-0.087012
-0.082193
-0.0832853
-0.0887706
-0.0840643
-0.108509
-0.0969605
-0.139749
-0.122806
-0.181196
-0.159488
-0.22262
-0.202924
-0.245836
-0.237828
-0.238058
-0.247369
-0.203819
-0.223116
-0.161688
-0.182555
-0.12641
-0.142631
-0.102959
-0.113291
-0.0956667
-0.0949114
-0.0904655
-0.090394
-0.089386
-0.0979244
-0.0931702
-0.114726
-0.105337
-0.136972
-0.125508
-0.157963
-0.14818
-0.166906
-0.164773
-0.160593
-0.166398
-0.138801
-0.150953
-0.113325
-0.125719
-0.0942859
-0.102717
-0.0844386
-0.0881559
-0.0844515
-0.0832077
-0.0950638
-0.0883165
-0.119617
-0.105498
-0.161021
-0.162011
-0.138724
-0.0938809
-0.127397
-0.155565
-0.092322
-0.186929
-0.1893
-0.0871032
-0.0853351
-0.0852753
-0.0818537
-0.0893442
-0.0938239
-0.103868
-0.117109
-0.0881791
-0.0761929
-0.0807574
-0.0749582
-0.0742623
-0.0849457
-0.0784854
-0.105852
-0.0940983
-0.137691
-0.120228
-0.181764
-0.158539
-0.225664
-0.205034
-0.249278
-0.24108
-0.24017
-0.248848
-0.203866
-0.224322
-0.159602
-0.181492
-0.123008
-0.139827
-0.0986554
-0.109359
-0.0907506
-0.0971055
-0.0956918
-0.0964473
-0.0832933
-0.0834097
-0.0881618
-0.0848154
-0.100597
-0.0935295
-0.118383
-0.10911
-0.135674
-0.127567
-0.144292
-0.141557
-0.138544
-0.14327
-0.120503
-0.130627
-0.0989082
-0.109469
-0.0831001
-0.0899254
-0.076196
-0.0785669
-0.077994
-0.0759663
-0.0900728
-0.0825685
-0.115448
-0.100812
-0.157966
-0.134457
-0.217293
-0.186044
-0.146351
-0.11719
-0.0985911
-0.0995276
-0.0957166
-0.179702
-0.219615
-0.215545
-0.250454
-0.0802108
-0.249297
-0.13349
-0.111184
-0.0873446
-0.0707344
-0.0781968
-0.063296
-0.0656897
-0.0656477
-0.063236
-0.0775644
-0.0704237
-0.0984444
-0.0868021
-0.131395
-0.113133
-0.176322
-0.15292
-0.220283
-0.199527
-0.245087
-0.236197
-0.237041
-0.245452
-0.200685
-0.221319
-0.155546
-0.177933
-0.117847
-0.135218
-0.092544
-0.103675
-0.07822
-0.0841954
-0.0719616
-0.0742185
-0.0800785
-0.0940587
-0.087848
-0.100845
-0.098389
-0.101267
-0.0900576
-0.0786316
-0.0832753
-0.0747288
-0.0758554
-0.0773823
-0.0752402
-0.0863319
-0.0811397
-0.099909
-0.0927564
-0.113516
-0.107114
-0.12024
-0.11817
-0.115716
-0.119569
-0.100804
-0.109154
-0.0834099
-0.0918299
-0.0712194
-0.076404
-0.0666021
-0.0679648
-0.0698308
-0.0671782
-0.0824975
-0.0748307
-0.107948
-0.0933625
-0.149724
-0.126511
-0.208831
-0.177423
-0.240538
-0.0710905
-0.168413
-0.133253
-0.206361
-0.0976084
-0.124618
-0.244852
-0.0826588
-0.0918479
-0.0992184
-0.278084
-0.29833
-0.0626453
-0.0612105
-0.290374
-0.152727
-0.10717
-0.0773903
-0.063904
-0.0709194
-0.052713
-0.0575581
-0.0491549
-0.0498326
-0.0543578
-0.050717
-0.0672832
-0.0598699
-0.0885662
-0.0766713
-0.121872
-0.103588
-0.165664
-0.142891
-0.209489
-0.188614
-0.23469
-0.225639
-0.227256
-0.235282
-0.191379
-0.211826
-0.146572
-0.168789
-0.109272
-0.126446
-0.0841378
-0.0952306
-0.069571
-0.0757054
-0.0653305
-0.0814323
-0.0613377
-0.0717249
-0.0975872
-0.0902136
-0.106896
-0.103206
-0.107787
-0.108525
-0.104656
-0.0704612
-0.075668
-0.0651402
-0.0670161
-0.0658041
-0.0647485
-0.0719133
-0.0682426
-0.0819613
-0.0766178
-0.0923253
-0.087427
-0.0975158
-0.0959106
-0.0938129
-0.0969196
-0.0817988
-0.0885225
-0.0679678
-0.0746172
-0.0587941
-0.0625808
-0.0561623
-0.0566721
-0.0603098
-0.0573212
-0.0730471
-0.065434
-0.0975612
-0.0836183
-0.137608
-0.115385
-0.194306
-0.164266
-0.253055
-0.225329
-0.273954
-0.192198
-0.150366
-0.111048
-0.103622
-0.233368
-0.137387
-0.271624
-0.0827889
-0.114691
-0.298374
-0.307765
-0.0506974
-0.295296
-0.280226
-0.0626097
-0.0513167
-0.173242
-0.0855538
-0.0549858
-0.0502429
-0.0536451
-0.0412206
-0.0457842
-0.0346975
-0.0373084
-0.0345548
-0.0337211
-0.0416894
-0.0372611
-0.0553771
-0.0476846
-0.076983
-0.0649963
-0.109268
-0.0917151
-0.151236
-0.129356
-0.193361
-0.173324
-0.217893
-0.20893
-0.211504
-0.218864
-0.177494
-0.196958
-0.134599
-0.155892
-0.0987461
-0.115277
-0.074381
-0.0851744
-0.0599216
-0.0660638
-0.0526467
-0.0555665
-0.0510662
-0.0844562
-0.0737732
-0.103208
-0.0944482
-0.115449
-0.110266
-0.118612
-0.118375
-0.116121
-0.0942802
-0.0738414
-0.0830001
-0.0611465
-0.0666008
-0.0548184
-0.0572828
-0.0537612
-0.0536546
-0.0574807
-0.055076
-0.0646714
-0.0607858
-0.0724013
-0.0687253
-0.0763312
-0.0751128
-0.0731979
-0.0757457
-0.063585
-0.0689326
-0.0529241
-0.0579786
-0.0463852
-0.0489829
-0.0452941
-0.0451646
-0.0499839
-0.0468468
-0.0622238
-0.0549979
-0.0849322
-0.072079
-0.121956
-0.10143
-0.174614
-0.146525
-0.231015
-0.204021
-0.262564
-0.251784
-0.262378
-0.242591
-0.260055
-0.216118
-0.166661
-0.257711
-0.14792
-0.290761
-0.118937
-0.307515
-0.0542685
-0.0847515
-0.303171
-0.276998
-0.214729
-0.235133
-0.0398652
-0.185011
-0.0835786
-0.0648822
-0.0526602
-0.0963223
-0.107987
-0.149013
-0.040043
-0.193546
-0.0507997
-0.0246784
-0.0283643
-0.0276024
-0.0256878
-0.0276874
-0.0204355
-0.0230242
-0.0174139
-0.018403
-0.0198475
-0.0178643
-0.0283229
-0.0233559
-0.0425716
-0.0346835
-0.063848
-0.0521918
-0.0943431
-0.07784
-0.133543
-0.113161
-0.172742
-0.154042
-0.196247
-0.187503
-0.191018
-0.197555
-0.159569
-0.177645
-0.119607
-0.139447
-0.0862162
-0.101613
-0.0634547
-0.0735585
-0.0496481
-0.0555968
-0.0423876
-0.0453715
-0.0407062
-0.089116
-0.0771704
-0.110808
-0.100432
-0.126405
-0.119624
-0.131873
-0.130622
-0.125245
-0.130106
-0.1177
-0.0637757
-0.0727739
-0.0511137
-0.0566431
-0.0441254
-0.0470136
-0.0417261
-0.0423806
-0.043485
-0.0421241
-0.0483733
-0.0456532
-0.0540182
-0.0513081
-0.0569019
-0.0560293
-0.0542433
-0.0563357
-0.0466563
-0.0508365
-0.0386808
-0.0423897
-0.0343191
-0.0359438
-0.0343944
-0.0338084
-0.0392767
-0.0361632
-0.0505912
-0.0439912
-0.0709824
-0.0594537
-0.103825
-0.0856744
-0.151332
-0.125918
-0.204618
-0.178655
-0.234413
-0.224315
-0.215952
-0.232981
-0.185049
-0.236996
-0.180449
-0.123386
-0.110708
-0.129118
-0.274093
-0.154021
-0.299271
-0.118514
-0.302538
-0.0800655
-0.28472
-0.0206625
-0.0447099
-0.248653
-0.201558
-0.148173
-0.040713
-0.210707
-0.0164759
0.00203724
-0.00269312
-0.000198081
-0.00561012
-0.00467083
-0.00435348
-0.00526695
-0.00177915
-0.00302796
-0.00132251
-0.00109738
-0.00549987
-0.00275685
-0.0148624
-0.00954482
-0.0292721
-0.0214112
-0.0496181
-0.0385927
-0.0777985
-0.0626274
-0.113406
-0.0949409
-0.149103
-0.132009
-0.171079
-0.162752
-0.166993
-0.172644
-0.138786
-0.155045
-0.102759
-0.120649
-0.0726218
-0.0865284
-0.0519508
-0.0611522
-0.0391944
-0.0447232
-0.0321045
-0.0350616
-0.029169
-0.0302099
-0.0293115
-0.0290035
-0.041831
-0.0678568
-0.0545675
-0.0949017
-0.0813951
-0.120253
-0.108001
-0.139351
-0.130917
-0.147218
-0.144938
-0.141382
-0.146005
-0.133765
-0.0966108
-0.0716037
-0.0834362
-0.0530201
-0.0615293
-0.0407514
-0.0461704
-0.0334086
-0.0365483
-0.0300495
-0.0312595
-0.0302984
-0.0297518
-0.0333734
-0.0315723
-0.0373724
-0.0354266
-0.0393949
-0.0388182
-0.0371188
-0.0388435
-0.0312314
-0.0344254
-0.025517
-0.0280996
-0.0228949
-0.0237604
-0.0237899
-0.0229057
-0.0286057
-0.0256403
-0.0387364
-0.0328966
-0.0563143
-0.0464293
-0.0842464
-0.0688005
-0.125017
-0.103025
-0.171991
-0.149033
-0.199498
-0.190344
-0.183556
-0.196495
-0.16003
-0.0299399
-0.250762
-0.189029
0.00321288
-0.0132917
-0.278965
-0.154247
-0.292637
-0.113063
-0.28427
-0.0724197
-0.255836
-0.0381024
-0.214223
-0.163473
-0.0983795
-0.112764
-0.059844
-0.0186309
-0.0817598
-0.0940316
-0.0189191
-0.110551
-0.2217
0.00305236
0.0156305
0.0173997
0.0169415
0.0158103
0.0168793
0.0137271
0.0146197
0.0138477
0.0135861
0.0146464
0.0143164
0.0134166
0.0144481
0.00809761
0.0113301
-0.00174298
0.00372888
-0.0158731
-0.00826584
-0.0348753
-0.0246731
-0.0603324
-0.0467119
-0.0919936
-0.0755957
-0.123816
-0.108536
-0.143928
-0.136175
-0.140956
-0.145672
-0.116344
-0.13058
-0.0847816
-0.100447
-0.0583998
-0.0705788
-0.0402007
-0.0483268
-0.0287494
-0.0337579
-0.0220987
-0.0249058
-0.0190434
-0.0201455
-0.0186088
-0.0117506
0.00187141
0.0135815
-0.0433018
-0.0196298
-0.0308556
-0.0713079
-0.0568985
-0.101483
-0.0862968
-0.130808
-0.116573
-0.15349
-0.143357
-0.163956
-0.16054
-0.158964
-0.16342
-0.139725
-0.15098
-0.125913
-0.059127
-0.0699218
-0.0419576
-0.0498105
-0.030358
-0.0355703
-0.022934
-0.0261905
-0.0189422
-0.0205312
-0.0180988
-0.0181485
-0.0198084
-0.0187051
-0.0225308
-0.0211833
-0.0238507
-0.0235221
-0.0218926
-0.0233106
-0.0174465
-0.0198032
-0.0136003
-0.015265
-0.0123129
-0.0126126
-0.01373
-0.012681
-0.0182852
-0.0155549
-0.027135
-0.022088
-0.0419185
-0.0336608
-0.0648096
-0.0522094
-0.0979237
-0.0800276
-0.137451
-0.117801
-0.161744
-0.153266
-0.153049
-0.161858
-0.110699
-0.136186
-0.0426719
-0.0784709
-0.0112751
-0.00265835
0.0201351
-0.254316
-0.190056
-0.124356
-0.106329
-0.273661
-0.148001
-0.274159
-0.103373
-0.255026
-0.0632502
-0.220781
-0.0325511
-0.176549
-0.126705
-0.0799396
-0.0279733
-0.0117414
0.0108462
-0.000270473
0.00721015
-0.00951226
0.0175462
-0.0203431
0.0396393
-0.00989807
-0.223921
0.0203397
0.0164564
0.0260447
0.0234408
0.0296955
0.0281554
0.0305418
0.0304901
0.0297045
0.0301981
0.029198
0.0293626
0.0288376
0.0291092
0.0265423
0.0280717
0.0205888
0.0240735
0.0106907
0.0161107
-0.00277622
0.00439578
-0.0201503
-0.0109026
-0.0427068
-0.0307077
-0.0703529
-0.0560566
-0.0981925
-0.0847782
-0.116324
-0.10922
-0.114293
-0.118138
-0.0933822
-0.105502
-0.06659
-0.0798721
-0.0442233
-0.0545577
-0.0286693
-0.0356412
-0.0186895
-0.0230896
-0.0126782
-0.0152636
-0.00964624
-0.010785
-0.00890521
-0.00901743
-0.00906778
-0.0451026
-0.0320151
-0.0750404
-0.0594315
-0.108384
-0.0914042
-0.141519
-0.12538
-0.167799
-0.155925
-0.180982
-0.17638
-0.176909
-0.181191
-0.156264
-0.168474
-0.141265
-0.0879721
-0.0665294
-0.0774481
-0.0464876
-0.0561127
-0.0310419
-0.0381488
-0.0202184
-0.0251381
-0.0129236
-0.0161869
-0.00856746
-0.0103934
-0.00697735
-0.00744141
-0.00770451
-0.00710941
-0.00946186
-0.00857329
-0.0102227
-0.0100942
-0.00855278
-0.0096989
-0.00534921
-0.00699085
-0.00301316
-0.0039524
-0.00269835
-0.00260192
-0.0043977
-0.00328773
-0.00855139
-0.00611745
-0.0160628
-0.0118242
-0.0281434
-0.021442
-0.0463307
-0.0363766
-0.0721606
-0.0582324
-0.103139
-0.0876616
-0.123874
-0.115949
-0.122413
-0.126143
-0.0865472
-0.109463
-0.0241241
-0.0554263
0.0319804
0.00326561
0.0595286
0.0729648
0.056726
-0.247774
-0.183117
-0.255944
-0.136137
-0.246201
-0.0912134
-0.220246
-0.0546428
-0.183724
-0.028894
-0.142215
-0.0970603
-0.0476549
-0.00312407
0.0381383
0.0861898
0.0749072
0.00731709
-0.0130292
-0.00350616
0.00238817
-0.0208905
-0.000388929
-0.0702162
-0.0782715
-0.0976552
-0.000665684
-0.01017
-0.216912
0.0195496
0.013952
0.0282878
0.0243103
0.0345313
0.03163
0.0391703
0.037027
0.0419186
0.0408533
0.0424331
0.0423948
0.0418811
0.0422111
0.0407859
0.041453
0.0378588
0.0396616
0.0317145
0.0352313
0.0221627
0.0273375
0.00966578
0.0162658
-0.00591527
0.00231453
-0.0255872
-0.015177
-0.0493506
-0.0370844
-0.0733975
-0.0617581
-0.0896269
-0.0831026
-0.0882393
-0.0913326
-0.0709372
-0.0809614
-0.0489101
-0.0598109
-0.0305524
-0.0390441
-0.0176639
-0.0234657
-0.00922918
-0.0129753
-0.00398598
-0.00627464
-0.00108078
-0.00227087
-0.000165007
-0.000395241
-0.000226011
-0.0467601
-0.0330892
-0.0785093
-0.0619514
-0.114854
-0.0962787
-0.151365
-0.133506
-0.181104
-0.167528
-0.196919
-0.19117
-0.193806
-0.197866
-0.171926
-0.184977
-0.137108
-0.155689
-0.117642
-0.0515636
-0.0610724
-0.0341336
-0.042426
-0.0205119
-0.0268169
-0.0105694
-0.0151311
-0.00355698
-0.00673862
0.000941946
-0.00100205
0.00299946
0.00226665
0.00295511
0.00318997
0.00191974
0.00245846
0.00158951
0.00156744
0.00296188
0.00207633
0.00508817
0.00405234
0.00624847
0.0058564
0.00590152
0.00625344
0.00409604
0.00519493
0.000414348
0.00252822
-0.0057985
-0.00233232
-0.0153578
-0.0101023
-0.0292245
-0.0216928
-0.0483792
-0.0381061
-0.0709957
-0.0597003
-0.0873906
-0.0806596
-0.0889114
-0.0904643
-0.0596079
-0.0797259
-0.00535924
-0.0327345
0.0420622
0.0188362
0.0819751
0.0655158
-0.230984
-0.169198
-0.105686
-0.0849251
-0.229601
-0.12084
-0.21321
-0.0791083
-0.185248
-0.0481339
-0.15033
-0.0271859
-0.111451
-0.0690496
-0.0250798
0.0178372
0.0540804
0.0996217
0.0874329
0.111311
0.115694
0.00802609
0.0149198
-0.000503567
-0.0156104
-0.00814287
-0.0037062
-0.0014523
-0.000788264
-0.201387
0.0262413
0.0210129
0.0347872
0.0308418
0.0412123
0.0382043
0.0464388
0.0439534
0.0503267
0.0486006
0.0521895
0.051527
0.0520807
0.0523211
0.0506364
0.0515291
0.0473728
0.0492996
0.0413705
0.0447481
0.0324893
0.0372648
0.0211837
0.0271184
0.00745509
0.0146611
-0.00947923
-0.000557922
-0.0297063
-0.0192719
-0.0503317
-0.0403086
-0.0641597
-0.058721
-0.0636904
-0.0660596
-0.0498167
-0.0578437
-0.0323432
-0.0409709
-0.0177958
-0.0245376
-0.00745266
-0.0121319
-0.000534688
-0.00362901
0.00389672
0.00194115
0.0065056
0.00539707
0.00763025
0.00722746
0.00761081
0.00766375
0.00734676
0.00740189
-0.000631309
-0.0211487
-0.0101545
-0.0479023
-0.0336983
-0.0813271
-0.0637798
-0.120056
-0.10025
-0.159365
-0.140051
-0.192134
-0.177063
-0.21028
-0.203499
-0.208099
-0.211907
-0.185297
-0.199042
-0.147999
-0.167881
-0.127031
-0.0656651
-0.053101
-0.0602615
-0.0372458
-0.0452758
-0.0224498
-0.0295159
-0.0105764
-0.0161196
-0.00157646
-0.00574778
0.00503839
0.00200301
0.00950155
0.00753639
0.0118025
0.0109163
0.0122165
0.0122003
0.0117236
0.0119946
0.0117041
0.0115856
0.0127427
0.0121191
0.0139484
0.0134119
0.0142417
0.0142363
0.0134874
0.0139839
0.0117038
0.0127409
0.0085255
0.0103163
0.0035035
0.00627356
-0.00387548
0.00014112
-0.0141204
-0.00861105
-0.0276253
-0.0204715
-0.0427313
-0.0352733
-0.0539858
-0.0491716
-0.0552779
-0.0565338
-0.0321596
-0.047572
0.0117878
-0.011148
0.0544725
0.0339003
0.0910656
0.0741943
0.101588
0.00753516
-0.206998
-0.150858
-0.199387
-0.105004
-0.180483
-0.0690865
-0.153707
-0.0440934
-0.121896
-0.0271723
-0.086069
-0.0454767
-0.0043518
0.0329364
0.0680286
0.0991955
0.122844
0.120447
0.12081
0.127232
0.123867
0.000274399
-0.00940282
-0.00842068
0.00864296
0.0011724
-0.0198485
-0.0144509
-0.0113577
-0.0100647
0.0143585
-0.0480976
-0.0515276
0.0144576
-0.0694979
-0.180118
0.0215102
0.0154441
0.0318871
0.0269864
0.0399813
0.0361753
0.0464415
0.0433689
0.0519074
0.0492792
0.056387
0.0543006
0.0593468
0.0580784
0.059919
0.0598666
0.0585815
0.0594866
0.0552683
0.0571939
0.0496221
0.0527551
0.0416087
0.045891
0.0316152
0.0368388
0.0196977
0.0259262
0.00522371
0.0128271
-0.0119869
-0.00309953
-0.0296968
-0.021068
-0.0416446
-0.0369217
-0.0413384
-0.0431839
-0.0306114
-0.0367881
-0.0173141
-0.0238669
-0.00622007
-0.0113774
0.00180171
-0.00184912
0.00730045
0.00482234
0.010931
0.0093139
0.0131879
0.0122069
0.0143421
0.0138908
0.0144932
0.0145381
0.0143841
-0.000310262
0.0145116
0.00778105
-0.0209658
-0.00984917
-0.0483352
-0.0337348
-0.0830575
-0.0648174
-0.123334
-0.102716
-0.164653
-0.144269
-0.199661
-0.183495
-0.219637
-0.212025
-0.218266
-0.221824
-0.194984
-0.20913
-0.156012
-0.176839
-0.111441
-0.133844
-0.0895123
-0.037199
-0.0433218
-0.0239988
-0.0306036
-0.0116537
-0.0175832
-0.00140811
-0.00623641
0.00664651
0.00287654
0.0127806
0.00993999
0.0170696
0.0151586
0.0194448
0.0184915
0.020157
0.0199668
0.0200708
0.0201399
0.0202396
0.0200834
0.0209067
0.0205436
0.0213577
0.0212116
0.0210604
0.0213042
0.0200904
0.0206521
0.018412
0.0193557
0.0157386
0.0172172
0.0117869
0.0139397
0.00627399
0.00924002
-0.000996127
0.0028662
-0.010005
-0.00531811
-0.0191985
-0.014779
-0.0254121
-0.0228447
-0.0243307
-0.0263299
-0.00612824
-0.0177407
0.0271015
0.0094
0.0629343
0.0453819
0.0922307
0.0792102
0.110847
0.101906
0.117808
-0.180028
-0.131298
-0.0714746
-0.0529309
-0.169838
-0.0912356
-0.151602
-0.0621393
-0.127322
-0.0423042
-0.0981298
-0.0288085
-0.0640602
-0.0264893
0.0113473
0.0468367
0.0804273
0.110073
0.126348
0.123952
0.129099
0.11764
0.122358
0.115235
-0.0193823
-0.00679429
-0.0178765
0.00272986
-0.0046355
-0.0151664
-0.0260043
-0.0224803
-0.0207934
-0.0202823
0.0201476
0.0146718
0.0202356
-0.156792
0.0158597
0.00944731
0.0271671
0.0218089
0.03646
0.0320623
0.0440746
0.0404558
0.050459
0.0473918
0.0559787
0.0533147
0.0606688
0.0584467
0.0639859
0.0625638
0.0655433
0.0650802
0.0647261
0.0654184
0.0617208
0.0634912
0.0566075
0.0594246
0.0495466
0.0533013
0.0408681
0.0453936
0.0305984
0.0359579
0.018184
0.0247008
0.00341003
0.0110468
-0.0117547
-0.00439245
-0.0217097
-0.0178206
-0.0215487
-0.0229321
-0.0136868
-0.018187
-0.00407453
-0.00880993
0.00401893
0.000237702
0.0100075
0.00726205
0.0142311
0.0123118
0.0171105
0.0158154
0.0189828
0.0181548
0.0200523
0.0196111
0.0203634
0.0202973
0.0201941
0.0202755
0.0201248
6.88411e-05
0.00804601
-0.0204523
-0.00937601
-0.0482083
-0.0333667
-0.0833769
-0.0649249
-0.124312
-0.103325
-0.166587
-0.145648
-0.202756
-0.186015
-0.223858
-0.215719
-0.223098
-0.226428
-0.199858
-0.214049
-0.160225
-0.181505
-0.114458
-0.13748
-0.0921178
-0.0364722
-0.0320002
-0.0349224
-0.022881
-0.0278667
-0.0120905
-0.017525
-0.00187034
-0.00682463
0.00688723
0.002716
0.0140247
0.0106534
0.0196232
0.0170132
0.0236363
0.0218347
0.0259712
0.0250081
0.0268764
0.0265638
0.0270841
0.0270116
0.0273144
0.0271701
0.0275961
0.0274775
0.0274746
0.0276068
0.0268211
0.0272045
0.0257709
0.0263435
0.0242502
0.0250822
0.0220596
0.0232489
0.0190377
0.0206614
0.0150648
0.0171725
0.0101536
0.0127195
0.00459343
0.00740553
-0.000255937
0.00194629
-0.00242325
-0.00178377
0.00133244
-0.00167393
0.0169249
0.00748059
0.0417489
0.0285626
0.0694975
0.0556674
0.0931365
0.0823666
0.109581
0.102058
0.117478
0.114783
0.118578
-0.154219
-0.113584
-0.144221
-0.0809253
-0.128004
-0.058128
-0.106183
-0.0426071
-0.0787604
-0.0323482
-0.0462178
-0.0106405
0.0248536
0.058874
0.0918493
0.11799
0.130257
0.128069
0.110452
0.118231
0.102503
0.104034
0.0961412
-0.011991
-0.00150653
-0.00745864
-0.0189614
-0.0305412
-0.027931
-0.0241773
-0.0344552
-0.0325829
-0.0321535
-0.0318503
0.014859
0.0248894
-0.0211729
-0.0213118
-0.0357283
0.0248737
0.0203297
-0.135004
0.0107052
0.00448895
0.0220278
0.016587
0.0318599
0.0271527
0.0401582
0.0361725
0.0473039
0.0438615
0.0535157
0.0505143
0.0589612
0.0563281
0.0636584
0.0614136
0.0672757
0.0656415
0.0693061
0.0685466
0.0691503
0.0695137
0.0667657
0.0682275
0.0623713
0.0648023
0.056288
0.0595193
0.0488209
0.0527175
0.0399368
0.0445805
0.0291539
0.0348155
0.0163755
0.022963
0.00359891
0.0097316
-0.0043872
-0.00131214
-0.00448878
-0.0053819
0.000787784
-0.0022331
0.00727925
0.00406902
0.0128708
0.0102377
0.0171422
0.0151663
0.0202573
0.0188289
0.0224545
0.021457
0.0239393
0.0232745
0.0248525
0.0244621
0.0252202
0.0251009
0.0250507
0.0251678
0.0248801
0.000469697
0.00838232
-0.0198627
-0.00884469
-0.0474613
-0.0327268
-0.0822636
-0.0640056
-0.122827
-0.102016
-0.164866
-0.144035
-0.201007
-0.184246
-0.222328
-0.214055
-0.221965
-0.225079
-0.199242
-0.213168
-0.160005
-0.181131
-0.114248
-0.137246
-0.0710217
-0.0920304
-0.0522879
-0.0176443
-0.0201639
-0.0102546
-0.0142306
-0.00159492
-0.00598497
0.00682191
0.00270752
0.0142567
0.0106814
0.0205189
0.0175374
0.0255511
0.0231938
0.0292252
0.0275662
0.0314562
0.0305143
0.0324875
0.0320887
0.0328847
0.032728
0.0330639
0.0329948
0.0329788
0.0330688
0.0324743
0.0327786
0.0316445
0.0320886
0.0306027
0.0311516
0.0292683
0.0299806
0.0275218
0.0284517
0.0252889
0.026469
0.0225605
0.0239818
0.019471
0.0210455
0.0164416
0.0178971
0.0146077
0.0152838
0.0153179
0.0145631
0.0208835
0.0172418
0.0353064
0.0267583
0.0540445
0.0438677
0.0753437
0.0647533
0.0938271
0.0852011
0.106693
0.101027
0.112674
0.110639
0.110671
0.112553
0.107206
-0.132382
-0.0995907
-0.0336532
-0.0197445
-0.12391
-0.0742187
-0.109673
-0.056792
-0.0894608
-0.045227
-0.0632576
-0.038197
-0.0319292
0.00204252
0.0363515
0.0699484
0.101291
0.124149
0.13071
0.124767
0.111882
0.0884358
0.0814207
0.0791138
0.0729612
-0.0108523
-0.0131226
0.0957202
-0.0182216
-0.0254841
-0.0427409
-0.0384975
-0.0327116
-0.0455297
-0.0453044
-0.0457627
-0.0449892
0.0248761
-0.117116
-0.00249514
-0.00694027
0.00723645
0.00222198
0.0174255
0.0123183
0.0271245
0.0224509
0.0355865
0.0314859
0.0431402
0.0394684
0.049862
0.0466035
0.0558151
0.0529283
0.0610897
0.0585347
0.0656747
0.0634752
0.0693426
0.0676536
0.0716423
0.0707022
0.0720606
0.0721088
0.0704066
0.07149
0.0668472
0.068846
0.0617263
0.0644606
0.0553175
0.058677
0.0475632
0.051629
0.0381204
0.0430703
0.0271563
0.0327614
0.0166851
0.021638
0.010383
0.0128146
0.00979252
0.00944702
0.0128133
0.0110423
0.0167811
0.0147941
0.0203672
0.0186571
0.0232347
0.0218927
0.0254133
0.0244038
0.0270077
0.026277
0.0281225
0.027619
0.0288408
0.0285289
0.0291606
0.0290541
0.0290948
0.0291589
0.0288658
0.0289592
0.028615
0.0287278
0.0248705
0.0150957
0.0204732
0.000875332
0.00863355
-0.0191696
-0.00832014
-0.0460779
-0.0317453
-0.0798488
-0.0621409
-0.119089
-0.0989688
-0.159677
-0.139587
-0.194539
-0.178362
-0.215116
-0.207124
-0.214856
-0.217808
-0.193008
-0.206414
-0.15514
-0.175547
-0.110643
-0.133066
-0.0684792
-0.0889795
-0.0499606
-0.00803517
-0.00893368
-0.00917864
-0.00542128
-0.00769959
0.000531932
-0.00264261
0.0074984
0.0039605
0.0144086
0.0110079
0.020687
0.0176436
0.026126
0.0235193
0.0305854
0.0284878
0.0338988
0.0323933
0.0360013
0.0350942
0.0371
0.0366515
0.0375768
0.0373944
0.0376242
0.0376602
0.0372452
0.0374846
0.0365302
0.0369196
0.0356483
0.0361013
0.0346698
0.0351737
0.033534
0.0341262
0.0321839
0.0328875
0.0306046
0.0314216
0.0288569
0.029743
0.027138
0.0279747
0.0259015
0.0264128
0.0260502
0.0257385
0.0285804
0.0269521
0.0349776
0.0311698
0.0459003
0.040069
0.062608
0.0541709
0.0794067
0.0711504
0.0935961
0.086977
0.103172
0.0990529
0.106891
0.105832
0.103966
0.106253
0.0952391
0.100264
0.0889041
0.0284771
-0.115609
-0.0897921
-0.108758
-0.0708146
-0.0959938
-0.0581878
-0.0768713
-0.0505768
-0.0515216
-0.0468313
-0.0211336
0.0121097
0.0461135
0.0794084
0.109328
0.127322
0.128616
0.118535
0.103527
0.085352
0.0633158
0.0685943
-0.00101617
-0.00367078
-0.0140983
0.0588141
0.0526729
0.0491449
-0.0226702
-0.0316759
-0.0558118
-0.0491747
-0.0408551
-0.0598287
-0.061153
-0.061584
-0.0600131
0.0316235
0.00183463
0.00347971
0.0313652
-0.00584966
-0.103919
0.00622116
0.00236766
0.0145237
0.0103273
0.0229601
0.0187677
0.0311765
0.0271737
0.0386799
0.0349996
0.0456102
0.0422225
0.0518843
0.0488313
0.0575166
0.0547769
0.0625522
0.0601089
0.0669592
0.0648409
0.0705452
0.068877
0.0729583
0.0719262
0.0737839
0.0735922
0.0727855
0.0735159
0.070038
0.0716163
0.0658116
0.0680924
0.060327
0.0632222
0.0535578
0.0571152
0.0453613
0.0496371
0.0361679
0.040813
0.0277649
0.0317042
0.0226246
0.0246793
0.0213611
0.0215731
0.022534
0.0217561
0.024561
0.0235106
0.0265984
0.0256052
0.0283505
0.0275169
0.029757
0.0290968
0.0308317
0.0303341
0.0316073
0.0312545
0.0321195
0.0318953
0.0323662
0.0322784
0.0323252
0.0323827
0.0320226
0.0321974
0.0318266
0.0247628
0.0310294
0.0282578
0.0152155
0.0204479
0.00120312
0.00881962
-0.0183615
-0.00781774
-0.0442334
-0.0304844
-0.0764474
-0.0595879
-0.113545
-0.0945645
-0.151604
-0.132811
-0.184035
-0.169017
-0.202968
-0.195655
-0.202439
-0.205335
-0.181738
-0.194411
-0.146035
-0.16527
-0.10392
-0.125197
-0.0636746
-0.0831995
-0.0304289
-0.0460326
-0.0169292
0.00156765
0.00113988
0.00471252
0.00282618
0.00956377
0.00698088
0.0152218
0.0123461
0.0209107
0.0180978
0.0261966
0.0236185
0.0308806
0.0286238
0.0347897
0.032943
0.0377534
0.0363966
0.0397147
0.038854
0.0408085
0.0403548
0.0412652
0.0411024
0.0411592
0.0413126
0.0405878
0.0409117
0.0397978
0.040209
0.0389408
0.0393722
0.0380582
0.0385044
0.0371205
0.0375978
0.0361151
0.0366258
0.0350681
0.0355929
0.03408
0.0345561
0.0333715
0.0336712
0.0333682
0.0332432
0.0347589
0.0338443
0.038276
0.0362014
0.044879
0.0411303
0.0548711
0.0495136
0.0680942
0.0613364
0.0813488
0.0748726
0.0922467
0.0872104
0.0991968
0.0962931
0.101121
0.100826
0.0975659
0.100026
0.0888708
0.0938555
0.0758316
0.0829523
0.0677162
-0.103707
-0.0838947
-0.00294088
0.00589011
-0.0981789
-0.0706078
-0.0865654
-0.0627439
-0.0683935
-0.0592797
-0.0437728
-0.0588614
-0.0137215
0.019661
0.0540578
0.0875543
0.115234
0.127506
0.123139
0.10994
0.0929382
0.0740286
-0.00542796
0.00353981
0.00277575
-0.00594437
0.0567674
-0.0161199
0.0387443
0.0410163
-0.0263067
-0.0369192
0.0369503
0.0277487
0.02723
-0.0694627
-0.0597115
-0.0482903
-0.0781303
-0.0802764
-0.0799405
-0.0765123
0.0332278
0.0305697
0.032707
-0.0951534
0.00739817
0.00508785
0.0135805
0.0103219
0.020437
0.0169842
0.0275201
0.0239489
0.0345826
0.0310827
0.0413268
0.0379994
0.0476549
0.0445512
0.0534651
0.0506274
0.0587465
0.0561709
0.0635054
0.0611928
0.06769
0.0656765
0.0711314
0.06952
0.0735575
0.0724923
0.0746432
0.0742874
0.0741622
0.0746049
0.0721165
0.0733268
0.0686836
0.070561
0.0640347
0.0665062
0.0582046
0.06127
0.0512377
0.0548491
0.0436767
0.0474625
0.0368842
0.040077
0.032378
0.0342902
0.0304215
0.031119
0.0302003
0.0301567
0.0308087
0.030444
0.0316897
0.0312366
0.0325777
0.0321421
0.0333611
0.0329861
0.0339968
0.0336988
0.0344699
0.034254
0.0347804
0.0346454
0.0349205
0.0348733
0.034853
0.034916
0.0345436
0.034733
0.0340108
0.0342968
0.0336276
0.0244817
0.0278756
0.0150641
0.020227
0.00134772
0.0088035
-0.0175566
-0.00741171
-0.042191
-0.0291375
-0.0724635
-0.056674
-0.106821
-0.0893062
-0.141547
-0.124466
-0.170659
-0.157246
-0.187199
-0.180908
-0.186003
-0.188986
-0.166545
-0.178375
-0.133507
-0.151279
-0.0945493
-0.114261
-0.0570738
-0.0752472
-0.0260682
-0.0406348
-0.013492
0.0132017
0.0101304
0.0113036
0.0102593
0.00974858
0.0129606
0.0113913
0.0169893
0.0148554
0.0216492
0.0192809
0.0263745
0.0240306
0.0308337
0.0286497
0.0348507
0.0329073
0.038257
0.0366407
0.0408927
0.0396777
0.0426879
0.0418938
0.0436955
0.0432825
0.044063
0.043944
0.0438336
0.0441472
0.0431814
0.0435283
0.0424093
0.0428029
0.0416212
0.0420135
0.0408519
0.0412343
0.0401024
0.0404743
0.0393897
0.0397394
0.038766
0.0390614
0.0383511
0.0385215
0.0383648
0.0382859
0.0391792
0.0386415
0.0413109
0.0400487
0.0452791
0.0430312
0.0516631
0.0481406
0.0605177
0.055821
0.0712133
0.0657858
0.081655
0.0765824
0.0900134
0.0861914
0.0949609
0.0929761
0.0956024
0.0958533
0.0916477
0.0941866
0.0833232
0.0880141
0.0708312
0.0775827
0.05512
0.063375
0.0462959
-0.0961913
-0.0816598
-0.0919948
-0.0739798
-0.0816462
-0.0711809
-0.0644105
-0.07206
-0.0400921
-0.0749281
-0.00952361
0.0249661
0.0605853
0.0943663
0.118547
0.12386
0.114637
0.0985449
0.00307227
0.0104387
0.010993
0.00410259
0.0798657
-0.0054783
0.0607679
-0.0165848
0.0436413
-0.0287541
0.0284956
-0.0411848
0.0172001
0.0162413
-0.0829035
-0.0690921
-0.0548652
-0.100926
-0.102906
-0.100751
-0.094049
0.0299432
0.0348879
0.0191946
0.00704768
0.0184531
0.00971512
0.0210076
0.0155774
0.0343254
0.0320451
-0.0904603
0.0112033
0.010392
0.0146757
0.0126856
0.0196274
0.0170427
0.0253042
0.022431
0.0313115
0.0282674
0.0375052
0.0344055
0.0435715
0.0405692
0.0493282
0.0464955
0.0546862
0.0520605
0.0596085
0.0572032
0.0640709
0.0618999
0.0680063
0.0661117
0.0712759
0.0697377
0.0736502
0.0725905
0.0748872
0.0744266
0.0747902
0.0750129
0.073319
0.0742229
0.0705762
0.0720981
0.0666951
0.068772
0.0617631
0.0643561
0.0559314
0.0589408
0.0496995
0.0528139
0.0440137
0.046722
0.0398041