/*--------------------------------*- C++ -*----------------------------------*\
  =========                 |
  \\      /  F ield         | OpenFOAM: The Open Source CFD Toolbox
   \\    /   O peration     | Website:  https://openfoam.org
    \\  /    A nd           | Version:  10
     \\/     M anipulation  |
\*---------------------------------------------------------------------------*/
FoamFile
{
    format      ascii;
    class       volScalarField;
    location    "67";
    object      p;
}
// * * * * * * * * * * * * * * * * * * * * * * * * * * * * * * * * * * * * * //

dimensions      [0 2 -2 0 0 0 0];

internalField   nonuniform List<scalar> 
28942
(
-0.00378533
-0.00315925
0.00201365
0.00947581
0.00977577
9.07686e-05
0.000290623
2.54138e-05
0.0026975
0.00278542
-0.0023283
-0.00259718
-0.00298004
-0.00289751
0.000193832
0.000503043
0.00986494
0.0101349
0.00556556
0.007126
0.00813697
0.00812863
-0.00523491
-0.00506015
-0.00358892
-0.00381271
0.0138631
0.0138121
0.00351903
0.00346175
1.91341e-05
5.41019e-05
0.000771995
0.000315809
0.00712865
0.00833437
0.0108717
0.0128302
-5.96016e-06
0.015025
0.00907739
0.0115753
0.00172996
0.00164291
0.00170445
0.000292586
0.000156718
0.000233332
0.000269578
0.000376492
0.00071924
0.00277056
0.0028416
0.00283008
0.00298518
-0.00235926
-0.00105707
-0.00338693
-0.0032326
-0.00350342
-0.00357657
-0.00357733
-0.00347541
-0.000123513
-0.00182353
-0.000369817
0.000960929
0.00940829
0.00891188
-0.0033768
-0.00358664
-0.00332179
0.00897377
0.00882543
0.00911759
-0.0014891
-0.00110154
-0.000762896
0.0023474
0.00274674
0.00183813
0.000743507
-0.00632569
-0.00755377
0.00106874
0.00379415
0.00483567
0.00562317
0.00400766
0.00413072
0.00609755
0.00547659
-0.00141022
-0.00170035
-0.00197818
-0.00181722
-0.00164356
0.00531927
0.00661019
-0.00786506
0.0112731
0.010474
0.00576796
0.00936489
0.000885887
0.000792522
0.000703209
0.00545716
0.00564988
0.00564398
-0.00323051
-0.00315122
-0.00314213
-0.0026255
-0.00274838
0.0158171
0.013812
0.0132536
0.0148847
0.00162885
0.00470846
0.00340675
0.00505799
0.00473486
0.0154896
0.0157849
0.0144441
0.00589949
0.00697848
0.000193313
0.000294324
0.000111101
0.0104843
0.0109873
0.00765472
0.00730684
0.0127639
0.0066842
0.00797464
0.00903662
-0.00191702
-0.00242527
0.00734381
0.00164744
0.00173582
-0.00118329
-0.00144595
-0.000988251
-0.00252461
0.00657896
0.00570625
0.00369966
0.000268447
0.000212735
8.47328e-05
0.000214701
0.00751546
0.00677937
-0.00187496
-0.00199211
-0.00188737
-0.0041508
-0.0036958
6.57283e-05
-0.00286267
-0.000510011
0.00837915
0.0084881
0.00958219
0.00911752
0.00769527
0.00306583
0.00298325
0.00323747
0.00311326
0.00502696
0.0048048
0.00513987
0.00536037
0.00529832
0.0053693
0.00558045
0.00613446
0.00582851
0.00542644
0.00575657
0.00646227
0.00721607
0.00750807
-0.000590734
-0.000571531
-0.00248391
0.000217782
6.28323e-05
-0.00200464
-0.0020931
0.000294272
0.000356983
0.000320126
0.000251724
0.00180703
0.00176025
0.00174008
-0.00292874
-0.00311564
-0.00278044
-0.00434753
-0.00482942
-0.00414131
-0.00472837
-0.00649348
-0.00519218
0.0160109
0.016721
0.0164885
0.000920115
0.001065
0.000953498
0.0103363
0.00990841
0.0099887
0.00146822
0.00145186
0.00148455
0.00143502
0.00141871
0.00140182
0.00140252
0.00138481
0.00138539
0.00141924
0.00143551
0.00145178
0.00146828
0.00148504
0.00136814
0.00136776
0.0015002
0.00150038
0.00151539
0.00135099
0.00135047
0.00151576
0.00133332
0.00131563
0.00133333
0.00131596
0.00153231
0.00153242
0.001298
0.00129836
0.00154745
0.00154779
0.00128026
0.0012807
0.00156264
0.00156296
0.00126248
0.00126289
0.00157766
0.00157804
0.00124459
0.00124506
0.00159253
0.0015929
0.00122667
0.00122711
0.00160733
0.0016077
0.00120861
0.00120918
0.00162221
0.00162246
0.00119062
0.00119089
0.00163627
0.00163659
0.0011725
0.0011724
0.0016514
0.00165142
0.00115411
0.00115367
0.00166505
0.00166492
0.0011348
0.00113503
0.00167925
0.00167893
0.00111574
0.00111639
0.00166428
0.00167849
0.00169341
0.00169291
0.00163445
0.00165005
0.00160521
0.00162033
0.00157625
0.00159092
0.001546
0.00156128
0.0015145
0.00153044
0.00148314
0.00150014
0.00145135
0.0014676
0.00141779
0.00143384
0.00138335
0.00140072
0.00134919
0.00136643
0.00131443
0.00133191
0.0012792
0.0012969
0.00124362
0.00126148
0.00120775
0.00122574
0.0011717
0.00118977
0.0011345
0.0011535
0.00111569
0.00109686
0.00109719
0.00115369
0.0011161
0.00113483
0.00119062
0.00117202
0.00122672
0.00120882
0.00126245
0.00124464
0.00129787
0.00128023
0.00133291
0.00131547
0.00136723
0.00135025
0.00140156
0.00138461
0.00143533
0.00141863
0.0014673
0.00145126
0.00149997
0.00148461
0.00153139
0.00151537
0.00156201
0.00154685
0.00159176
0.00157704
0.00162088
0.00160633
0.00164965
0.001635
0.00167704
0.00166361
0.00169104
0.00169326
0.00109658
0.00109721
0.0017062
0.00170397
0.00170767
0.00170713
0.00166216
0.00169154
0.00167664
0.00163236
0.00164764
0.00160357
0.00161771
0.00157437
0.00158913
0.00154416
0.00155938
0.00151314
0.00152874
0.0014811
0.00149744
0.00144887
0.00146581
0.00141652
0.00143207
0.00138196
0.00139928
0.00134772
0.00136492
0.00131303
0.00133045
0.00127789
0.00129552
0.00124239
0.00126019
0.00120663
0.00122455
0.00117073
0.0011887
0.00113388
0.00115238
0.0010777
0.00107782
0.00109597
0.00111496
0.00111557
0.00109704
0.00107822
0.00107804
0.00115345
0.00113438
0.00118987
0.00117142
0.00122571
0.00120782
0.00126136
0.00124358
0.00129669
0.00127908
0.00133166
0.00131424
0.00136613
0.001349
0.00140007
0.00138316
0.00143365
0.00141682
0.001466
0.00144988
0.00149802
0.00148263
0.0015295
0.00151393
0.00156007
0.00154491
0.00158981
0.00157506
0.00161874
0.0016044
0.00164687
0.00163293
0.0016742
0.00166059
0.00170027
0.00168771
0.00170604
0.00171728
0.00171368
0.00171886
0.00107734
0.00107789
0.00172035
0.00171883
0.00173028
0.00172715
0.00172028
0.00109564
0.00107661
0.00105917
0.0010589
0.0017166
0.00173361
0.0017547
0.00173736
0.00168826
0.00170282
0.00165881
0.00167331
0.00162952
0.00164465
0.0016008
0.0016148
0.00157167
0.00158641
0.00154154
0.00155671
0.00151059
0.00152617
0.00147889
0.00149482
0.00144657
0.00146286
0.00141363
0.00143012
0.00137998
0.00139695
0.00134577
0.00136293
0.00131115
0.00132852
0.00127611
0.00129368
0.00124073
0.00125846
0.00120508
0.00122294
0.0011693
0.0011872
0.00113279
0.00115102
0.00111413
0.0010591
0.00105851
0.00105882
0.00105925
0.00111516
0.00107747
0.00109655
0.00115253
0.00113385
0.00118847
0.00117036
0.00122421
0.00120637
0.00125974
0.00124202
0.00129495
0.0012774
0.00132976
0.00131241
0.00136412
0.00134702
0.00139795
0.00138109
0.00143113
0.00141465
0.00146375
0.00144753
0.00149557
0.00147979
0.0015268
0.00151131
0.00155723
0.00154212
0.00158686
0.00157216
0.00161565
0.00160138
0.0016435
0.00162974
0.00167037
0.001657
0.0016964
0.00168347
0.00172246
0.00170884
0.00173897
0.00173476
0.00173338
0.00173158
0.00105788
0.00105884
0.00174445
0.00174237
0.0017427
0.00174676
0.00175026
0.00167719
0.00175361
0.00173355
0.00173758
0.0017337
0.00171485
0.00173091
0.00168306
0.00169881
0.00165443
0.00166828
0.0016258
0.00164071
0.00159732
0.00161155
0.00156811
0.00158285
0.00153806
0.0015532
0.00150723
0.00152275
0.0014757
0.00149156
0.0014435
0.00145967
0.00141061
0.00142714
0.00137717
0.001394
0.00134314
0.00136022
0.00130866
0.00132596
0.00127378
0.00129127
0.00123855
0.00125621
0.00120305
0.00122083
0.0011674
0.00118524
0.0011313
0.00114931
0.00109464
0.00111294
0.00105715
0.00107572
0.00103995
0.00103837
0.00103927
0.00104058
0.00104028
0.00104074
0.00104071
0.00104026
0.00104053
0.0010769
0.00103956
0.00105869
0.00111398
0.00109558
0.00115088
0.00113271
0.00118663
0.00116879
0.00122224
0.00120447
0.00125761
0.00123997
0.00129265
0.00127518
0.00132729
0.00131003
0.00136146
0.00134445
0.00139512
0.00137837
0.00142814
0.00141174
0.00146057
0.00144445
0.00149227
0.00147652
0.0015233
0.00150789
0.00155356
0.00153854
0.00158303
0.00156841
0.00161165
0.00159746
0.00163933
0.00162564
0.00166589
0.00165275
0.00169142
0.00167883
0.00171666
0.00170387
0.00174129
0.00172814
0.00175804
0.00175262
0.00174502
0.00174443
0.00175829
0.00175196
0.00105627
0.00103792
0.00102156
0.00102118
0.00175068
0.00176171
0.00178612
0.00170532
0.00176702
0.00176276
0.00174596
0.00174521
0.00172463
0.00172059
0.00170865
0.00172126
0.00167701
0.0016927
0.00164965
0.00166332
0.00162151
0.00163579
0.00159292
0.00160726
0.00156374
0.00157844
0.00153381
0.00154888
0.00150313
0.00151857
0.00147175
0.00148754
0.00143971
0.00145582
0.00140702
0.00142344
0.00137374
0.00139047
0.00133991
0.00135689
0.00130562
0.00132283
0.00127092
0.00128833
0.00123588
0.00125345
0.00120057
0.00121826
0.00116505
0.00118284
0.00112945
0.00114727
0.00109293
0.00111121
0.00107448
0.00102148
0.00102
0.00102104
0.00102247
0.00102213
0.00102239
0.00102258
0.00102199
0.00107583
0.00103834
0.00105804
0.00111265
0.00109429
0.00114876
0.00113099
0.00118437
0.0011666
0.00121981
0.00120212
0.00125498
0.00123744
0.00128982
0.00127246
0.00132426
0.00130711
0.00135823
0.00134132
0.00139167
0.00137503
0.0014245
0.00140818
0.00145671
0.0014407
0.00148823
0.00147257
0.00151905
0.00150374
0.00154912
0.0015342
0.00157839
0.00156387
0.00160682
0.00159273
0.00163432
0.00162071
0.00166076
0.00164769
0.00168603
0.00167357
0.00171051
0.00169853
0.00173368
0.0017208
0.00175687
0.00174674
0.00177191
0.00176557
0.00175744
0.00175452
0.00101878
0.00102009
0.00175974
0.00171881
0.00174349
0.00176336
0.00177017
0.00178888
0.00177371
0.00178033
0.00177635
0.00178094
0.00177681
0.00175572
0.00171939
0.00177866
0.00175259
0.00171421
0.00171347
0.00169928
0.00171223
0.00167112
0.00168501
0.00164395
0.00165761
0.00161609
0.00163013
0.00158764
0.00160194
0.0015586
0.00157322
0.00152882
0.00154381
0.00149832
0.00151367
0.00146713
0.00148282
0.00143528
0.00145129
0.0014028
0.00141912
0.00136974
0.00138635
0.00133613
0.00135301
0.00130207
0.00131916
0.00126759
0.00128488
0.00123276
0.00125022
0.00119766
0.00121525
0.00116235
0.00118003
0.00112692
0.00114466
0.00109116
0.00110922
0.00105433
0.00107282
0.00101748
0.00103605
0.00100175
0.000998885
0.0010005
0.00100369
0.00100269
0.00100469
0.00100434
0.0010046
0.00100475
0.00100346
0.00100414
0.00100191
0.00100275
0.00103751
0.0010009
0.00101906
0.00107425
0.00105607
0.00111083
0.00109268
0.00114628
0.00112858
0.00118171
0.00116402
0.00121693
0.00119935
0.00125188
0.00123445
0.0012865
0.00126925
0.0013207
0.00130367
0.00135443
0.00133764
0.00138763
0.00137111
0.00142023
0.00140402
0.00145221
0.00143632
0.0014835
0.00146796
0.0015141
0.00149891
0.00154395
0.00152914
0.00157301
0.0015586
0.00160123
0.00158725
0.00162853
0.00161502
0.00165481
0.00164182
0.00167999
0.00166757
0.00170399
0.00169225
0.00172694
0.00171531
0.00174837
0.00173848
0.00176904
0.00175688
0.00178737
0.0017807
0.00176345
0.00177097
0.00176152
0.00101572
0.000997755
0.000983618
0.000982443
0.00176419
0.0017727
0.00176827
0.00177916
0.00178464
0.00179233
0.00179615
0.00179029
0.00176425
0.00176552
0.0017774
0.00176935
0.00176894
0.00172281
0.00174554
0.00170616
0.00171067
0.00169025
0.00170221
0.001664
0.00167709
0.00163732
0.00165079
0.00160981
0.00162368
0.00158161
0.0015958
0.00155274
0.00156728
0.00152316
0.00153805
0.00149286
0.00150811
0.00146189
0.00147747
0.00143026
0.00144616
0.00139802
0.00141422
0.0013652
0.00138169
0.00133184
0.00134859
0.00129803
0.001315
0.00126379
0.00128097
0.00122921
0.00124655
0.00119435
0.00121182
0.00115927
0.00117684
0.00112405
0.00114168
0.00108885
0.00110646
0.00105238
0.00107075
0.00103391
0.000983865
0.000980719
0.000982679
0.000986037
0.000985028
0.000986955
0.000986624
0.000986837
0.00098702
0.000985556
0.000986333
0.000984607
0.00103615
0.000999441
0.00101773
0.00107243
0.00105438
0.00110817
0.00109052
0.00114346
0.00112582
0.00117865
0.00116109
0.00121363
0.00119618
0.00124834
0.00123104
0.0012827
0.00126558
0.00131665
0.00129974
0.00135011
0.00133346
0.00138305
0.00136666
0.00141539
0.00139931
0.00144711
0.00143135
0.00147816
0.00146274
0.00150851
0.00149344
0.00153812
0.00152343
0.00156695
0.00155265
0.00159494
0.00158107
0.00162203
0.00160863
0.00164813
0.00163523
0.00167317
0.00166081
0.00169704
0.0016853
0.00171973
0.00170852
0.0017405
0.00173054
0.00176147
0.00174984
0.0017814
0.00177056
0.00179607
0.00178458
0.00179887
0.00179145
0.00176883
0.00097941
0.000981133
0.00177192
0.00177336
0.00178431
0.00177433
0.00178214
0.00179068
0.00178949
0.00179612
0.00180066
0.00180444
0.00180771
0.00180112
0.00177231
0.00175795
0.00178919
0.00178699
0.00176427
0.00175285
0.0017612
0.00172076
0.00173489
0.00169926
0.0017079
0.00168116
0.00169234
0.00165613
0.00166879
0.00162997
0.00164321
0.00160283
0.00161652
0.0015749
0.00158897
0.00154625
0.00156068
0.00151688
0.00153167
0.00148682
0.00150195
0.00145608
0.00147154
0.0014247
0.00144048
0.00139271
0.00140879
0.00136016
0.00137652
0.00132708
0.00134369
0.00129353
0.00131037
0.00125957
0.00127661
0.00122526
0.00124247
0.00119066
0.001208
0.00115584
0.00117328
0.00112086
0.00113837
0.00108583
0.00110335
0.0010504
0.00106834
0.00101398
0.00103206
0.000977816
0.000996226
0.000963109
0.000959682
0.000961578
0.000966306
0.000964658
0.000968359
0.000967511
0.000969271
0.000968938
0.000969144
0.000969339
0.000967952
0.000968683
0.00096599
0.000966831
0.000963195
0.00096474
0.000997805
0.000961727
0.000979816
0.0010345
0.00101576
0.00107008
0.00105258
0.00110521
0.00108766
0.00114029
0.00112277
0.00117523
0.00115779
0.00120995
0.00119263
0.00124438
0.00122722
0.00127847
0.00126149
0.00131213
0.00129537
0.00134531
0.0013288
0.00137796
0.00136172
0.00141003
0.00139409
0.00144147
0.00142585
0.00147225
0.00145697
0.00150234
0.0014874
0.0015317
0.00151713
0.00156028
0.00154611
0.00158804
0.00157429
0.00161491
0.00160161
0.00164081
0.00162801
0.00166568
0.00165341
0.0016894
0.00167772
0.00171193
0.00170084
0.00173276
0.00172264
0.00175274
0.00174281
0.00177161
0.00176143
0.00179144
0.0017825
0.00179804
0.00179627
0.00180532
0.00179491
0.0017792
0.00178312
0.00179153
0.00179929
0.00179255
0.00178848
0.00179198
0.000976128
0.000957994
0.000945163
0.000943865
0.00180038
0.0017992
0.00180502
0.0018084
0.00181194
0.00181238
0.00179438
0.00179141
0.00179373
0.00181194
0.00180818
0.00180745
0.0017823
0.00178166
0.00177921
0.00174928
0.0017603
0.00174043
0.00174942
0.0017137
0.00172571
0.00169269
0.00170271
0.00167206
0.00168309
0.00164778
0.00166016
0.00162205
0.00163508
0.00159524
0.00160878
0.00156759
0.00158153
0.00153919
0.0015535
0.00151006
0.00152473
0.00148025
0.00149526
0.00144976
0.0014651
0.00141865
0.0014343
0.00138694
0.00140288
0.00135467
0.00137088
0.00132188
0.00133835
0.00128863
0.00130532
0.00125496
0.00127185
0.00122094
0.001238
0.00118662
0.00120382
0.00115207
0.00116938
0.00111736
0.00113474
0.00108256
0.00109997
0.00104781
0.00106519
0.00101183
0.00102995
0.00099405
0.000945807
0.00094207
0.000944207
0.000948856
0.000947347
0.000950745
0.000949934
0.000951648
0.000951321
0.00095153
0.000951716
0.00095044
0.000951097
0.00094828
0.000949449
0.000946915
0.000996029
0.000960166
0.000978121
0.00103231
0.00101409
0.0010671
0.00104971
0.00110198
0.00108455
0.0011368
0.00111941
0.00117146
0.00115416
0.0012059
0.00118872
0.00124004
0.00122303
0.00127383
0.001257
0.00130719
0.00129058
0.00134008
0.00132371
0.00137242
0.00135634
0.0014042
0.0013884
0.00143535
0.00141987
0.00146585
0.0014507
0.00149566
0.00148086
0.00152475
0.00151032
0.00155308
0.00153904
0.00158059
0.00156697
0.00160724
0.00159405
0.00163294
0.00162024
0.00165762
0.00164544
0.00168119
0.00166958
0.00170358
0.00169256
0.00172451
0.00171428
0.00174421
0.00173456
0.00176285
0.00175357
0.00177939
0.00177196
0.0017989
0.00178472
0.00180121
0.00181031
0.00182106
0.00181597
0.00180931
0.00179671
0.00180311
0.00180171
0.00179087
0.00179309
0.000940372
0.000942301
0.00181195
0.00180006
0.00180157
0.00180706
0.00180833
0.00181329
0.00181695
0.00181692
0.0018158
0.00179939
0.00179009
0.00179228
0.00179842
0.00180722
0.00181666
0.00180302
0.00181272
0.00181917
0.00182018
0.0018216
0.00179279
0.00178596
0.0017818
0.00176691
0.00177045
0.00174327
0.00175518
0.00172851
0.00173705
0.00170593
0.00171729
0.0016846
0.00169511
0.00166298
0.00167413
0.00163903
0.00165124
0.00161363
0.0016265
0.00158715
0.00160053
0.00155978
0.00157358
0.00153163
0.00154581
0.00150276
0.0015173
0.00147321
0.00148808
0.001443
0.0014582
0.00141216
0.00142767
0.00138074
0.00139654
0.00134877
0.00136484
0.00131629
0.0013326
0.00128334
0.00129988
0.00124998
0.00126672
0.00121626
0.00123318
0.00118225
0.0011993
0.00114799
0.00116516
0.00111357
0.00113081
0.00107904
0.00109632
0.0010445
0.00106176
0.00100956
0.00102725
0.000974337
0.000991772
0.000938707
0.000956231
0.000924611
0.000921223
0.000922814
0.000928555
0.00092655
0.000931394
0.000930143
0.000933215
0.000932417
0.00093409
0.000933775
0.00093398
0.000934158
0.000932911
0.000933559
0.000930662
0.000931964
0.000927726
0.000929229
0.000924661
0.000926201
0.0009581
0.000922467
0.000940818
0.000994218
0.000975928
0.00102927
0.00101201
0.00106384
0.00104654
0.00109847
0.00108117
0.001133
0.00111576
0.00116737
0.00115022
0.00120151
0.00118449
0.00123535
0.00121849
0.00126883
0.00125215
0.00130188
0.00128542
0.00133444
0.00131824
0.00136648
0.00135055
0.00139794
0.0013823
0.00142879
0.00141347
0.001459
0.001444
0.00148853
0.00147387
0.00151735
0.00150305
0.00154541
0.0015315
0.00157268
0.00155918
0.0015991
0.00158603
0.00162459
0.00161199
0.00164909
0.001637
0.0016725
0.00166097
0.00169475
0.00168381
0.00171567
0.00170541
0.00173532
0.00172569
0.00175369
0.00174471
0.00176973
0.0017622
0.00178488
0.00177739
0.00178571
0.00181411
0.00181941
0.00181874
0.00181133
0.0018019
0.00180282
0.00180781
0.00180866
0.0018107
0.00093657
0.000919442
0.00090715
0.000904973
0.00181685
0.00181689
0.00182134
0.0018237
0.00182447
0.00182563
0.00180038
0.0017918
0.00180634
0.00180929
0.00181742
0.00181291
0.00182284
0.00182771
0.00182168
0.001813
0.00182236
0.00180292
0.00178415
0.001772
0.00177124
0.00177876
0.00175318
0.00176195
0.00173567
0.00174491
0.00171827
0.00172734
0.00169713
0.00170795
0.00167571
0.00168641
0.0016537
0.00166494
0.00162993
0.00164203
0.00160481
0.00161754
0.00157861
0.00159185
0.00155152
0.00156519
0.00152364
0.00153769
0.00149504
0.00150945
0.00146576
0.0014805
0.00143583
0.00145089
0.00140529
0.00142065
0.00137417
0.00138982
0.00134251
0.00135842
0.00131034
0.0013265
0.00127772
0.0012941
0.00124468
0.00126126
0.00121128
0.00122803
0.00117758
0.00119447
0.00114363
0.00116064
0.00110951
0.00112659
0.00107527
0.0010924
0.00104097
0.00105812
0.00100675
0.00102387
0.000971798
0.00098914
0.000953987
0.000907334
0.000903721
0.000905757
0.000911376
0.000909461
0.000913999
0.000912805
0.000915764
0.000914994
0.000916603
0.000916301
0.000916505
0.000916672
0.00091548
0.000916105
0.000913591
0.000914639
0.000910427
0.000912134
0.00090856
0.000955984
0.00092062
0.000938909
0.000991793
0.000973787
0.001026
0.0010089
0.00106035
0.00104318
0.00109469
0.00107754
0.00112892
0.00111183
0.00116299
0.00114599
0.00119682
0.00117995
0.00123034
0.00121363
0.00126349
0.00124698
0.00129621
0.00127992
0.00132846
0.00131241
0.00136017
0.0013444
0.00139132
0.00137584
0.00142186
0.00140669
0.00145177
0.00143692
0.00148101
0.0014665
0.00150955
0.0014954
0.00153735
0.00152357
0.00156437
0.00155099
0.00159056
0.0015776
0.00161584
0.00160334
0.00164015
0.00162815
0.00166341
0.00165195
0.00168552
0.00167464
0.00170636
0.00169614
0.00172592
0.00171634
0.00174409
0.00173523
0.00176025
0.00175252
0.00177425
0.00176774
0.00178541
0.00177944
0.00180158
0.00179493
0.00181598
0.00180835
0.00179785
0.0018211
0.00181753
0.00181097
0.00181199
0.000901671
0.00090319
0.00182385
0.0018174
0.00181932
0.00182554
0.0018249
0.00182862
0.00183057
0.00183118
0.0018298
0.00180877
0.00179654
0.00179473
0.00179782
0.00179617
0.00181145
0.00180666
0.00182228
0.00181647
0.00182714
0.00182103
0.00183133
0.00182902
0.00182386
0.00181751
0.00181212
0.00178772
0.00179645
0.00177128
0.00176577
0.00175774
0.00176843
0.00174328
0.00175077
0.00172624
0.00173505
0.00170816
0.00171747
0.00168766
0.00169814
0.00166633
0.00167707
0.00164414
0.00165542
0.00162052
0.00163252
0.00159564
0.00160824
0.00156972
0.00158282
0.0015429
0.00155643
0.00151529
0.0015292
0.00148696
0.00150123
0.00145795
0.00147255
0.00142832
0.00144323
0.00139808
0.00141329
0.00136727
0.00138276
0.00133592
0.00135167
0.00130408
0.00132008
0.00127178
0.001288
0.00123907
0.00125549
0.001206
0.00122259
0.00117263
0.00118936
0.001139
0.00115585
0.00110519
0.00112212
0.00107125
0.00108824
0.00103725
0.00105426
0.00100326
0.00102025
0.000969392
0.000986293
0.000934051
0.000951585
0.000899519
0.00091694
0.00088644
0.000881674
0.000884362
0.000890634
0.000888395
0.000894186
0.000892641
0.000896696
0.000895531
0.000898389
0.000897653
0.000899194
0.000898903
0.000899107
0.000899263
0.000898135
0.00089873
0.000896337
0.000897332
0.000893712
0.000895123
0.000889787
0.000891762
0.000885963
0.000887841
0.000918672
0.000884254
0.000901659
0.000953524
0.000936381
0.000988613
0.000971229
0.00102255
0.00100555
0.00105662
0.0010396
0.00109066
0.00107366
0.00112458
0.00110765
0.00115833
0.0011415
0.00119184
0.00117513
0.00122503
0.00120849
0.00125785
0.0012415
0.00129024
0.00127412
0.00132215
0.00130628
0.00135354
0.00133794
0.00138437
0.00136905
0.0014146
0.00139959
0.00144421
0.00142951
0.00147316
0.00145879
0.00150142
0.00148741
0.00152896
0.00151531
0.00155573
0.00154247
0.00158168
0.00156884
0.00160676
0.00159436
0.00163088
0.00161897
0.00165398
0.0016426
0.00167595
0.00166514
0.0016967
0.00168652
0.00171615
0.00170663
0.00173417
0.00172539
0.00175035
0.00174255
0.00176447
0.00175776
0.00177667
0.00177057
0.00178777
0.00178342
0.00178676
0.00182961
0.00182978
0.00181429
0.00180757
0.00181965
0.00182066
0.00182886
0.00182568
0.0018274
0.000897192
0.000879843
0.00086892
0.000867281
0.00183368
0.0018323
0.00183542
0.00183689
0.00183671
0.00183489
0.00179299
0.00178432
0.00178294
0.00179446
0.0018067
0.00181947
0.00182986
0.0018243
0.00183196
0.00183577
0.00183129
0.00182338
0.00181868
0.00179765
0.00180387
0.00182083
0.00178743
0.00178053
0.00177282
0.00178522
0.00175872
0.00176363
0.00174772
0.00175465
0.00173308
0.00174063
0.00171615
0.00172487
0.00169789
0.00170725
0.00167777
0.00168804
0.00165655
0.00166728
0.00163433
0.00164561
0.00161084
0.00162276
0.00158619
0.00159867
0.00156051
0.00157349
0.00153396
0.00154736
0.00150662
0.0015204
0.00147857
0.0014927
0.00144985
0.0014643
0.0014205
0.00143527
0.00139057
0.00140562
0.00136007
0.0013754
0.00132905
0.00134464
0.00129754
0.00131337
0.00126558
0.00128162
0.0012332
0.00124945
0.00120047
0.00121689
0.00116742
0.00118399
0.00113413
0.00115081
0.00110064
0.00111741
0.00106701
0.00108385
0.00103332
0.00105018
0.000999613
0.00101647
0.000966081
0.000982821
0.000931443
0.000948888
0.000914001
0.000869667
0.000864713
0.000867637
0.000873952
0.000871805
0.000877056
0.0008756
0.000879479
0.000878362
0.000881093
0.000880391
0.000881866
0.000881586
0.000881788
0.000881933
0.000880862
0.00088143
0.000879112
0.000880087
0.000876609
0.000877952
0.000872904
0.000874898
0.000870787
0.00091668
0.000882114
0.000899877
0.000951079
0.000933771
0.000985161
0.000968338
0.00101889
0.00100202
0.00105267
0.00103579
0.00108639
0.00106955
0.00112
0.00110323
0.00115343
0.00113675
0.0011866
0.00117006
0.00121945
0.00120308
0.00125194
0.00123576
0.00128399
0.00126804
0.00131557
0.00129986
0.00134663
0.00133119
0.00137714
0.00136198
0.00140706
0.0013922
0.00143637
0.00142182
0.00146503
0.0014508
0.00149301
0.00147913
0.00152029
0.00150677
0.00154682
0.00153368
0.00157254
0.00155981
0.00159741
0.00158511
0.00162135
0.00160953
0.00164428
0.00163298
0.00166612
0.00165538
0.00168677
0.00167664
0.00170612
0.00169665
0.00172402
0.0017153
0.00174018
0.00173237
0.0017544
0.00174759
0.00176683
0.00176074
0.00177675
0.00177252
0.00178392
0.00178008
0.00179485
0.00178497
0.0018002
0.00179138
0.00178656
0.00183652
0.00183626
0.00182784
0.00182879
0.000862865
0.000864983
0.00183173
0.00183353
0.00183489
0.00184081
0.00183916
0.0018417
0.00184248
0.00184165
0.00183923
0.00178519
0.00177478
0.00176833
0.00178252
0.00177581
0.00178714
0.00178268
0.0017978
0.00180512
0.00182006
0.00182724
0.00183604
0.00183549
0.00183853
0.00183221
0.00182353
0.00181533
0.00180441
0.001796
0.00182901
0.00178314
0.00178231
0.00177476
0.00176314
0.00175937
0.00177321
0.00174905
0.00175369
0.00173729
0.00174379
0.00172249
0.00173014
0.00170574
0.00171436
0.00168746
0.00169682
0.00166756
0.00167771
0.00164646
0.00165716
0.00162428
0.00163554
0.00160094
0.00161278
0.00157649
0.00158886
0.00155106
0.00156391
0.00152476
0.00153803
0.00149769
0.00151134
0.00146991
0.0014839
0.00144148
0.00145579
0.00141243
0.00142705
0.0013828
0.0013977
0.00135262
0.00136779
0.00132193
0.00133735
0.00129075
0.00130641
0.00125912
0.001275
0.00122709
0.00124317
0.00119469
0.00121095
0.00116199
0.00117839
0.00112903
0.00114555
0.00109587
0.00111248
0.00106257
0.00107924
0.00102919
0.00104589
0.000995785
0.00101249
0.000962458
0.000979105
0.00092888
0.000945853
0.000894952
0.000911569
0.000860749
0.00087788
0.000848331
0.000843625
0.000846342
0.00085311
0.000850587
0.000857012
0.000855243
0.000860016
0.000858585
0.000862339
0.000861273
0.000863881
0.000863209
0.000864621
0.000864352
0.000864551
0.000864688
0.000863672
0.000864212
0.000861996
0.000862932
0.000859562
0.000860867
0.000856473
0.000858105
0.000852269
0.000854364
0.000848288
0.000850237
0.000879989
0.000846336
0.000863108
0.000914171
0.000896938
0.000948202
0.000931097
0.00098157
0.000964895
0.00101504
0.000998306
0.0010485
0.00103178
0.00108191
0.00106523
0.0011152
0.00109859
0.00114829
0.00113178
0.00118112
0.00116476
0.00121364
0.00119744
0.00124578
0.00122978
0.0012775
0.00126172
0.00130875
0.0012932
0.00133948
0.0013242
0.00136967
0.00135467
0.00139928
0.00138457
0.00142828
0.00141388
0.00145666
0.00144258
0.00148437
0.00147063
0.00151139
0.001498
0.00153768
0.00152466
0.00156318
0.00155056
0.00158784
0.00157565
0.0016116
0.00159987
0.00163438
0.00162315
0.00165609
0.00164541
0.00167663
0.00166654
0.00169588
0.00168646
0.0017137
0.00170502
0.00172984
0.00172203
0.00174411
0.00173726
0.00175653
0.00175055
0.00176654
0.00176202
0.0017736
0.00177045
0.00177891
0.00177648
0.00177598
0.00184248
0.00184184
0.00178979
0.00178315
0.00183553
0.00183634
0.0018378
0.00184062
0.00184179
0.000858529
0.000841558
0.000831571
0.000829464
0.00184708
0.00184545
0.00184729
0.00184742
0.0018459
0.00184293
0.00177223
0.00176553
0.00175272
0.00175927
0.00178801
0.0017936
0.00181022
0.00181112
0.00182756
0.00183492
0.00184034
0.00184007
0.00183249
0.0018238
0.00181063
0.0018042
0.00179317
0.00177426
0.0017811
0.00183663
0.00176852
0.00175124
0.00177138
0.00177535
0.00176023
0.0017562
0.0017493
0.00175857
0.00173889
0.00174384
0.00172657
0.00173317
0.00171177
0.00171942
0.00169511
0.00170368
0.00167687
0.00168621
0.00165713
0.0016672
0.00163614
0.00164679
0.00161405
0.00162526
0.00159085
0.00160261
0.0015666
0.00157887
0.0015414
0.00155413
0.00151535
0.00152849
0.00148854
0.00150205
0.00146104
0.00147489
0.00143289
0.00144706
0.00140414
0.0014186
0.00137481
0.00138956
0.00134495
0.00135996
0.00131458
0.00132984
0.00128374
0.00129923
0.00125245
0.00126816
0.00122076
0.00123666
0.00118871
0.00120479
0.00115635
0.00117257
0.00112372
0.00114007
0.0010909
0.00110734
0.00105793
0.00107443
0.00102487
0.00104141
0.000991778
0.00100833
0.000958725
0.000975247
0.000925814
0.000942269
0.000892193
0.00090887
0.000875394
0.000832067
0.000826976
0.000829943
0.000836562
0.000834269
0.000840137
0.000838451
0.000843061
0.000841681
0.000845279
0.000844262
0.000846753
0.000846111
0.000847463
0.000847205
0.0008474
0.000847529
0.000846566
0.000847079
0.000844974
0.000845864
0.000842646
0.000843899
0.00083968
0.000841241
0.000835652
0.000837791
0.00083349
0.000877878
0.000844645
0.000861153
0.000911706
0.000894638
0.000944712
0.000928189
0.000977821
0.00096126
0.00101099
0.000994413
0.00104415
0.00102758
0.00107723
0.00106071
0.00111018
0.00109374
0.00114294
0.0011266
0.00117544
0.00115924
0.00120761
0.00119158
0.00123941
0.00122358
0.00127079
0.00125518
0.0013017
0.00128633
0.00133211
0.00131699
0.00136198
0.00134714
0.00139129
0.00137673
0.00142
0.00140574
0.00144809
0.00143415
0.00147554
0.00146192
0.0015023
0.00148903
0.00152835
0.00151545
0.00155364
0.00154112
0.0015781
0.00156601
0.00160169
0.00159004
0.00162432
0.00161316
0.0016459
0.00163528
0.00166634
0.0016563
0.00168551
0.00167612
0.00170326
0.00169461
0.0017194
0.00171158
0.00173373
0.00172684
0.00174615
0.00174021
0.00175625
0.00175159
0.00176368
0.0017603
0.00176816
0.00176652
0.00176905
0.00176866
0.00177306
0.0017655
0.00176543
0.00175999
0.00176564
0.00184763
0.00184594
0.00184255
0.00184329
0.000825055
0.000827562
0.00184312
0.00184695
0.00184808
0.00185266
0.00185104
0.00185221
0.00185162
0.00184942
0.00184557
0.00174251
0.00174543
0.0017431
0.00175919
0.00176602
0.0017763
0.0017986
0.00180225
0.00181765
0.00182292
0.0018333
0.00184042
0.00184058
0.00183212
0.00182187
0.00181207
0.00179986
0.00178585
0.00177179
0.00175279
0.00176321
0.00175205
0.00184361
0.00176254
0.00173777
0.00175527
0.00175044
0.0017573
0.00175935
0.00174741
0.00175121
0.00173953
0.00174485
0.00172848
0.00173403
0.00171579
0.00172246
0.00170097
0.00170864
0.00168436
0.0016929
0.00166616
0.00167547
0.00164653
0.00165653
0.00162565
0.00163625
0.00160366
0.00161481
0.0015806
0.00159228
0.00155654
0.00156871
0.00153156
0.00154418
0.00150576
0.00151877
0.00147921
0.00149259
0.00145197
0.00146569
0.00142411
0.00143813
0.00139565
0.00140997
0.00136663
0.00138122
0.00133709
0.00135194
0.00130704
0.00132214
0.00127653
0.00129185
0.00124558
0.00126112
0.00121423
0.00122997
0.00118253
0.00119843
0.00115051
0.00116657
0.00111823
0.00113441
0.00108575
0.00110202
0.00105311
0.00106945
0.00102037
0.00103675
0.000987602
0.00100399
0.000954851
0.000971227
0.000922216
0.000938517
0.000889152
0.000905633
0.000856274
0.00087278
0.000822975
0.000839538
0.000810896
0.000806118
0.000808889
0.000815834
0.000813245
0.000819959
0.000818037
0.000823384
0.000821741
0.000826188
0.00082487