/*--------------------------------*- C++ -*----------------------------------*\
  =========                 |
  \\      /  F ield         | OpenFOAM: The Open Source CFD Toolbox
   \\    /   O peration     | Website:  https://openfoam.org
    \\  /    A nd           | Version:  10
     \\/     M anipulation  |
\*---------------------------------------------------------------------------*/
FoamFile
{
    format      ascii;
    class       volScalarField;
    location    "3.5";
    object      p;
}
// * * * * * * * * * * * * * * * * * * * * * * * * * * * * * * * * * * * * * //

dimensions      [0 2 -2 0 0 0 0];

internalField   nonuniform List<scalar> 
28942
(
-0.000661788
0.00109679
0.0072791
0.0157138
0.015984
0.000442414
0.00106859
0.000131955
0.00857654
0.00861169
0.00293062
0.00278668
0.00193993
0.0019002
0.000597454
0.000860645
0.0154928
0.01577
0.0113642
0.0128761
0.0137112
0.0137239
-0.00234566
-0.00150787
-0.000596545
-0.000693108
0.0198644
0.0197969
0.00906074
0.00912587
3.58199e-05
4.64442e-05
0.00249962
0.00109143
0.0129026
0.0141215
0.0166939
0.0187357
0.000189179
0.0211121
0.0153719
0.0178014
0.00639848
0.00635266
0.00641002
0.000729031
0.000704736
0.000644252
0.000689844
0.00122216
0.00207234
0.00848723
0.00856535
0.00869071
0.00881741
0.00245374
0.00377204
0.00117726
0.00136
0.000842066
0.000907226
0.00118376
0.00109697
0.00455226
0.00204312
0.00502509
0.00660023
0.0150515
0.0145531
0.00138384
0.000543384
0.000679423
0.0146443
0.0144709
0.0148876
0.00350526
0.00425032
0.00472769
0.00789342
0.00839005
0.00699502
0.00553394
-0.00389629
-0.00582168
0.00607493
0.00895408
0.01012
0.0110541
0.00922002
0.00961336
0.011803
0.0109012
0.00490814
0.00417765
0.00374566
0.00381852
0.00435131
0.01099
0.0124151
-0.00612297
0.0175559
0.0167224
0.0121754
0.0155735
0.00713284
0.00711309
0.00701393
0.0110547
0.0112668
0.0112202
0.00125391
0.00123708
0.000900518
0.00189183
0.0020046
0.0217987
0.0197377
0.0191621
0.0208496
0.006835
0.0102739
0.00880827
0.0107437
0.0104904
0.0214822
0.0217694
0.0203705
0.0117243
0.0128114
0.000679528
0.00073722
0.000569616
0.0164367
0.0169351
0.014112
0.0135215
0.0190419
0.0123375
0.0137246
0.0147861
0.00350427
0.00234008
0.0132193
0.006449
0.00642547
0.00429156
0.00466567
0.00501693
0.00225658
0.0121911
0.0112867
0.00870233
0.000565616
0.000459374
0.000393201
0.000518216
0.0132128
0.0125785
0.00284228
0.00299196
0.00347974
-0.00187574
-0.000461435
0.000405933
0.000624233
0.00323622
0.013982
0.0141048
0.0151795
0.0147126
0.0132975
0.00878831
0.00870479
0.00901084
0.00892142
0.0106554
0.0104352
0.0107519
0.0109599
0.0108947
0.0109735
0.0111773
0.011728
0.0114252
0.0110243
0.0113569
0.0120638
0.0128317
0.0131269
0.00609968
0.00611253
0.00227546
0.000658434
0.000565477
0.00182398
0.00248172
0.000890322
0.00073515
0.000705549
0.000742787
0.00517546
0.0051694
0.00514431
0.001493
0.0011377
0.00216843
-0.000561397
-0.00158101
0.000208531
-0.00125491
-0.00357483
-0.00121292
0.0220096
0.022767
0.0225006
0.0072
0.00725856
0.00719088
0.0159773
0.0155569
0.0156436
0.00420287
0.00415693
0.00424844
0.00411078
0.00406462
0.0040185
0.00401995
0.00397238
0.00397466
0.00406548
0.00411171
0.00415769
0.00420392
0.00424922
0.00392667
0.00392905
0.00429414
0.00429519
0.00434042
0.00388111
0.00388267
0.00434128
0.00383504
0.00378892
0.00383648
0.0037903
0.00438513
0.00438648
0.00374276
0.00374404
0.00443008
0.00443222
0.00369659
0.00369775
0.0044754
0.00447773
0.00365038
0.00365141
0.00452068
0.00452318
0.00360412
0.00360504
0.00456612
0.00456837
0.00355781
0.00355862
0.00461171
0.00461322
0.00351142
0.00351215
0.00465672
0.00465811
0.00346493
0.00346556
0.00470242
0.00470343
0.00341829
0.00341856
0.00474759
0.0047485
0.00337184
0.00337079
0.0047938
0.00479423
0.00332426
0.00332308
0.00483978
0.00484004
0.00327479
0.00327481
0.00479302
0.00483914
0.00488622
0.00488596
0.00470145
0.00474747
0.00461077
0.00465657
0.00452028
0.00456553
0.0044295
0.00447496
0.00433797
0.0043839
0.00424776
0.00429331
0.00415634
0.00420163
0.00406466
0.00411074
0.00397209
0.00401858
0.00387994
0.00392608
0.00378769
0.00383388
0.00369533
0.00374156
0.00360283
0.00364913
0.00351025
0.00355658
0.00341757
0.00346395
0.00332323
0.00337103
0.00327496
0.0032258
0.00322587
0.00337141
0.00327571
0.00332385
0.00346587
0.00341889
0.00355891
0.00351251
0.00365156
0.00360525
0.00374408
0.00369784
0.00383643
0.00379029
0.0039287
0.00388257
0.00402078
0.00397511
0.00411225
0.00406674
0.00420408
0.00415811
0.00429569
0.00425011
0.00438685
0.00434088
0.00447789
0.00443242
0.00456865
0.00452331
0.00465911
0.00461389
0.00474939
0.00470414
0.00483955
0.00479432
0.00488532
0.00488528
0.0032261
0.00322689
0.00493245
0.00493128
0.00493121
0.00493246
0.00479262
0.00488373
0.00483816
0.00470125
0.00474701
0.00461081
0.00465601
0.00452039
0.00456564
0.00442962
0.00447505
0.00433857
0.00438413
0.00424715
0.00429303
0.00415578
0.00420181
0.00406447
0.00410975
0.00397212
0.00401836
0.00388013
0.00392615
0.00378793
0.00383405
0.00369558
0.00374177
0.0036031
0.00364934
0.00351048
0.00355679
0.00341774
0.00346411
0.00332356
0.00337096
0.00317658
0.00317724
0.00322737
0.00327587
0.00327735
0.00322944
0.00317864
0.00317685
0.00337252
0.00332531
0.00346619
0.00341928
0.00355899
0.00351262
0.00365164
0.00360533
0.00374416
0.00369792
0.00383654
0.00379037
0.00392876
0.00388267
0.00402085
0.00397487
0.00411285
0.00406685
0.00420423
0.00415851
0.00429578
0.00425032
0.00438707
0.00434144
0.00447805
0.00443259
0.00456877
0.00452345
0.00465918
0.00461402
0.00474922
0.00470423
0.00483908
0.00479413
0.00492975
0.00488442
0.00492927
0.00497712
0.00497553
0.00497823
0.00317927
0.00318043
0.00497679
0.00497446
0.0050229
0.00502128
0.00497857
0.00322914
0.00318132
0.00312992
0.00313149
0.00497221
0.00501985
0.00506217
0.00501799
0.0048823
0.00492733
0.00479204
0.00483716
0.00470142
0.00474671
0.00461106
0.00465616
0.0045206
0.00456588
0.00442982
0.00447525
0.00433877
0.00438433
0.00424742
0.00429314
0.0041559
0.00420174
0.00406423
0.00411004
0.00397224
0.00401826
0.00388024
0.00392626
0.00378802
0.00383415
0.00369565
0.00374185
0.00360315
0.00364941
0.00351051
0.00355684
0.00341775
0.00346414
0.00332415
0.00337102
0.00327682
0.00312831
0.00313048
0.00312904
0.00312866
0.00327871
0.00318258
0.00323094
0.00337329
0.00332616
0.00346631
0.0034197
0.0035591
0.00351272
0.00365176
0.00360545
0.0037443
0.00369805
0.00383669
0.00379051
0.00392893
0.00388283
0.00402098
0.00397498
0.0041129
0.00406696
0.00420455
0.00415875
0.00429604
0.00425036
0.00438728
0.0043417
0.00447827
0.00443281
0.00456899
0.00452367
0.00465939
0.00461424
0.00474943
0.00470446
0.00483912
0.00479431
0.00492874
0.00488392
0.00501951
0.00497401
0.00506675
0.00506469
0.00502205
0.0050241
0.00313284
0.00313392
0.00506575
0.00506846
0.00511696
0.00510975
0.00511166
0.00513372
0.0051774
0.00502347
0.00505756
0.00509632
0.00497125
0.00501567
0.00488158
0.00492646
0.00479163
0.00483656
0.00470153
0.0047467
0.00461136
0.00465647
0.00452086
0.00456615
0.00443005
0.00447549
0.00433896
0.00438454
0.00424764
0.00429333
0.00415609
0.0042019
0.00406434
0.00411024
0.00397241
0.0040184
0.00388034
0.00392639
0.0037881
0.00383424
0.00369572
0.00374193
0.0036032
0.00364948
0.00351056
0.0035569
0.00341779
0.00346419
0.00332461
0.00337119
0.00323057
0.00327779
0.00313478
0.0031828
0.00308232
0.00308609
0.003084
0.00308057
0.00308101
0.00308153
0.00308072
0.00308538
0.00308319
0.00318448
0.00308867
0.00313649
0.00327974
0.00323231
0.00337354
0.00332675
0.00346645
0.00342
0.00355925
0.00351287
0.00365192
0.0036056
0.00374446
0.00369821
0.00383686
0.00379068
0.00392912
0.00388301
0.00402119
0.00397518
0.00411309
0.00406716
0.00420479
0.00415897
0.00429628
0.00425057
0.00438755
0.00434195
0.00447856
0.00443309
0.00456931
0.00452398
0.00465974
0.00461456
0.00474982
0.00470483
0.0048395
0.00479472
0.00492881
0.0048842
0.00501816
0.0049734
0.00510802
0.00506314
0.00515479
0.00515296
0.00506712
0.00506888
0.00511083
0.00511317
0.00313642
0.00308831
0.00303703
0.00303903
0.00516097
0.00515642
0.00520438
0.00513989
0.0051996
0.00519793
0.005184
0.00506808
0.00505811
0.00509951
0.00497126
0.00501538
0.0048815
0.00492648
0.00479188
0.00483671
0.00470195
0.00474697
0.00461174
0.00465689
0.00452118
0.0045665
0.00443033
0.0044758
0.00433922
0.00438481
0.00424787
0.00429358
0.0041563
0.00420212
0.00406454
0.00411044
0.00397259
0.00401859
0.00388049
0.00392656
0.00378823
0.00383438
0.00369583
0.00374205
0.0036033
0.00364959
0.00351065
0.00355699
0.00341788
0.00346428
0.00332497
0.00337143
0.00323149
0.00327819
0.003184
0.00303442
0.00303753
0.00303563
0.00303318
0.00303388
0.00303404
0.00303361
0.00303511
0.00318604
0.00309008
0.0031386
0.00328034
0.00323338
0.00337371
0.00332716
0.00346662
0.00342018
0.00355943
0.00351304
0.00365211
0.00360579
0.00374466
0.0036984
0.00383707
0.00379089
0.00392934
0.00388323
0.00402143
0.00397541
0.00411335
0.00406741
0.00420507
0.00415923
0.00429659
0.00425086
0.00438788
0.00434226
0.00447892
0.00443343
0.00456969
0.00452435
0.00466016
0.00461497
0.00475029
0.00470527
0.00484004
0.00479522
0.00492935
0.00488475
0.00501828
0.00497386
0.00510711
0.00506253
0.00519642
0.00515177
0.00524298
0.00524137
0.00511112
0.00511312
0.00303936
0.00304155
0.00515684
0.00520895
0.00520626
0.00515711
0.00520069
0.00522614
0.00526448
0.0052534
0.00524414
0.00528755
0.00528644
0.00511228
0.00514578
0.0052346
0.005191
0.00505968
0.00510256
0.00497164
0.00501622
0.00488214
0.00492691
0.00479249
0.00483736
0.0047025
0.00474754
0.00461219
0.00465739
0.00452158
0.00456693
0.00443069
0.00447617
0.00433954
0.00438515
0.00424816
0.00429388
0.00415656
0.00420238
0.00406477
0.00411068
0.0039728
0.0040188
0.00388067
0.00392675
0.0037884
0.00383455
0.00369598
0.00374221
0.00360344
0.00364973
0.00351077
0.00355712
0.00341798
0.00346439
0.00332509
0.00337155
0.00323187
0.00327856
0.00313747
0.00318486
0.00304089
0.00308973
0.00298915
0.00299187
0.00299016
0.00298738
0.00298804
0.00298679
0.00298682
0.00298697
0.00298692
0.002989
0.00298788
0.00299326
0.00299082
0.00309184
0.0029957
0.00304391
0.00318707
0.00313981
0.00328083
0.00323404
0.00337389
0.00332739
0.00346681
0.00342036
0.00355963
0.00351324
0.00365232
0.003606
0.00374489
0.00369863
0.00383731
0.00379112
0.00392959
0.00388347
0.00402171
0.00397567
0.00411365
0.0040677
0.0042054
0.00415955
0.00429694
0.0042512
0.00438826
0.00434263
0.00447934
0.00443384
0.00457015
0.00452478
0.00466066
0.00461545
0.00475084
0.0047058
0.00484066
0.0047958
0.00493007
0.00488542
0.00501903
0.00497461
0.00510755
0.00506331
0.00519579
0.00515172
0.00528484
0.00524023
0.00533087
0.00532954
0.00515596
0.00527429
0.00520225
0.00304279
0.00299463
0.00294477
0.00294677
0.00515694
0.00520079
0.00524849
0.00524465
0.00528857
0.00533208
0.00537503
0.00537379
0.00515637
0.00523747
0.00531608
0.0053218
0.00527968
0.00514899
0.00519387
0.00506098
0.00510471
0.00497242
0.00501706
0.00488294
0.0049277
0.00479318
0.0048381
0.0047031
0.00474818
0.00461272
0.00465795
0.00452205
0.00456742
0.00443111
0.00447661
0.00433991
0.00438554
0.00424849
0.00429423
0.00415686
0.0042027
0.00406504
0.00411097
0.00397304
0.00401906
0.00388089
0.00392698
0.00378859
0.00383476
0.00369616
0.00374239
0.00360359
0.00364989
0.00351091
0.00355727
0.00341811
0.00346452
0.0033252
0.00337167
0.00323218
0.00327872
0.00313833
0.00318533
0.00309072
0.00294129
0.0029436
0.00294221
0.0029404
0.00294094
0.00294043
0.00294037
0.00294053
0.0029405
0.00294156
0.00294102
0.00294291
0.00309357
0.00299766
0.00304579
0.00318762
0.00314073
0.00328105
0.00323446
0.00337409
0.00332759
0.00346703
0.00342058
0.00355986
0.00351346
0.00365257
0.00360623
0.00374515
0.00369887
0.00383759
0.00379139
0.00392989
0.00388376
0.00402202
0.00397598
0.00411399
0.00406803
0.00420577
0.00415991
0.00429735
0.00425159
0.00438871
0.00434306
0.00447983
0.0044343
0.00457068
0.00452529
0.00466124
0.004616
0.00475148
0.0047064
0.00484136
0.00479647
0.00493086
0.00488616
0.00501994
0.00497546
0.00510853
0.0050643
0.00519659
0.00515263
0.00528454
0.00524047
0.00537292
0.00532876
0.00529827
0.00530736
0.00541801
0.00541683
0.0052006
0.00294662
0.0029488
0.00536321
0.00520061
0.00535939
0.00524586
0.00524437
0.00528917
0.00528816
0.00533195
0.00537551
0.00541871
0.00546175
0.00546087
0.00520041
0.00532549
0.00540489
0.00540982
0.00536794
0.00523885
0.00528243
0.00515073
0.00519484
0.0050621
0.00510633
0.00497329
0.00501791
0.00488376
0.00492856
0.00479393
0.00483889
0.00470377
0.00474889
0.00461332
0.00465858
0.00452258
0.00456798
0.00443158
0.00447711
0.00434034
0.00438599
0.00424887
0.00429463
0.0041572
0.00420306
0.00406535
0.0041113
0.00397332
0.00401935
0.00388114
0.00392725
0.00378882
0.003835
0.00369636
0.00374261
0.00360378
0.00365009
0.00351108
0.00355744
0.00341826
0.00346468
0.00332534
0.00337182
0.00323233
0.00327885
0.00313895
0.00318575
0.00304445
0.00309177
0.0029484
0.00299699
0.00289615
0.00289959
0.00289758
0.0028944
0.00289499
0.00289394
0.00289404
0.00289402
0.00289397
0.0028941
0.00289407
0.00289469
0.00289421
0.00289648
0.00289536
0.00290028
0.00289792
0.00299932
0.00290268
0.00295124
0.00309449
0.0030471
0.00318811
0.00314148
0.00328127
0.00323471
0.00337432
0.00332781
0.00346728
0.00342082
0.00356012
0.00351371
0.00365284
0.00360649
0.00374543
0.00369915
0.0038379
0.00379168
0.00393022
0.00388408
0.00402238
0.00397632
0.00411438
0.0040684
0.00420619
0.00416031
0.00429781
0.00425203
0.00438921
0.00434354
0.00448037
0.00443482
0.00457128
0.00452586
0.0046619
0.00461663
0.0047522
0.00470709
0.00484216
0.00479723
0.00493174
0.004887
0.00502092
0.00497639
0.00510964
0.00506534
0.00519783
0.00515381
0.00528549
0.00524172
0.00537282
0.00532912
0.00546006
0.00541648
0.00534434
0.00535349
0.00550478
0.00550409
0.00524461
0.00524414
0.00545145
0.00544674
0.00540148
0.00528811
0.00528775
0.00295013
0.00290226
0.00285195
0.00285417
0.0053309
0.00533139
0.00537501
0.00541864
0.00546208
0.0055052
0.00549259
0.00549736
0.00553871
0.00554831
0.00554783
0.00553404
0.00524406
0.00541454
0.00545675
0.00532722
0.00537064
0.00524017
0.0052841
0.00515182
0.00519591
0.0050633
0.00510761
0.00497423
0.00501886
0.00488466
0.00492949
0.00479474
0.00483975
0.00470451
0.00474967
0.00461398
0.00465928
0.00452318
0.00456861
0.00443211
0.00447768
0.00434082
0.00438649
0.0042493
0.00429509
0.00415759
0.00420347
0.0040657
0.00411166
0.00397364
0.00401969
0.00388143
0.00392755
0.00378908
0.00383527
0.00369659
0.00374285
0.00360399
0.00365031
0.00351127
0.00355764
0.00341844
0.00346487
0.00332551
0.00337199
0.00323248
0.003279
0.00313935
0.00318595
0.00304548
0.00309249
0.00299806
0.00284841
0.00285126
0.00284948
0.00284756
0.00284804
0.00284751
0.00284752
0.00284755
0.00284752
0.00284767
0.00284761
0.00284787
0.00284773
0.0028492
0.00284849
0.00285033
0.00300077
0.00290501
0.00295306
0.00309507
0.00304795
0.00318836
0.00314176
0.00328151
0.00323495
0.00337458
0.00332806
0.00346754
0.00342108
0.0035604
0.00351399
0.00365313
0.00360678
0.00374575
0.00369946
0.00383823
0.00379201
0.00393058
0.00388443
0.00402277
0.0039767
0.0041148
0.00406881
0.00420665
0.00416075
0.00429831
0.00425251
0.00438976
0.00434407
0.00448098
0.0044354
0.00457194
0.0045265
0.00466263
0.00461732
0.00475301
0.00470786
0.00484305
0.00479808
0.00493273
0.00488794
0.005022
0.00497742
0.00511083
0.00506648
0.00519917
0.00515507
0.00528693
0.00524313
0.0053741
0.00533058
0.0054607
0.00541749
0.0055475
0.00550378
0.00548843
0.00559158
0.00559192
0.00563499
0.00563494
0.00559116
0.00538713
0.0054007
0.00528797
0.00528751
0.00285398
0.0028561
0.0054448
0.00533082
0.00533096
0.00537364
0.00537441
0.00541791
0.0054614
0.00550499
0.00554863
0.00557965
0.00558485
0.00562604
0.00563508
0.00567854
0.00567862
0.00562056
0.00557494
0.0055302
0.00563461
0.00567824
0.00528748
0.00550215
0.00554354
0.00541663
0.00545924
0.00532901
0.00537292
0.00524139
0.00528532
0.00515315
0.0051973
0.00506448
0.00510888
0.00497529
0.00501995
0.00488564
0.00493052
0.00479564
0.00484069
0.00470532
0.00475052
0.00461471
0.00466005
0.00452383
0.0045693
0.0044327
0.0044783
0.00434134
0.00438705
0.00424978
0.00429559
0.00415802
0.00420392
0.00406608
0.00411207
0.00397399
0.00402006
0.00388174
0.00392788
0.00378936
0.00383557
0.00369685
0.00374312
0.00360423
0.00365056
0.00351148
0.00355787
0.00341864
0.00346508
0.00332569
0.00337218
0.00323265
0.00327918
0.00313953
0.0031861
0.00304608
0.00309291
0.0029518
0.00299903
0.00285594
0.00290399
0.00280362
0.00280746
0.00280538
0.00280149
0.00280211
0.00280104
0.00280114
0.00280103
0.00280104
0.00280107
0.00280104
0.0028012
0.00280113
0.00280138
0.00280128
0.00280209
0.00280176
0.00280401
0.00280284
0.00280729
0.00280554
0.00290628
0.00280949
0.00285821
0.00300167
0.00295424
0.00309536
0.00304865
0.0031886
0.00314199
0.00328178
0.0032352
0.00337486
0.00332833
0.00346783
0.00342136
0.0035607
0.00351428
0.00365346
0.00360709
0.00374609
0.00369979
0.0038386
0.00379237
0.00393098
0.00388481
0.0040232
0.00397711
0.00411527
0.00406926
0.00420716
0.00416124
0.00429887
0.00425304
0.00439037
0.00434465
0.00448164
0.00443604
0.00457267
0.00452719
0.00466343
0.00461809
0.00475389
0.0047087
0.00484403
0.004799
0.00493381
0.00488897
0.00502319
0.00497855
0.00511215
0.00506773
0.00520062
0.00515645
0.00528856
0.00524466
0.0053759
0.00533231
0.00546254
0.00541931
0.00554861
0.00550563
0.00559123
0.00542928
0.0054431
0.00572147
0.00572143
0.005331
0.00533073
0.00548689
0.00537387
0.00537398
0.00285739
0.0028093
0.00275872
0.00276049
0.00541649
0.00541726
0.00546057
0.00550396
0.00554746
0.00559095
0.00566662
0.00567251
0.00571267
0.00570673
0.00566175
0.00561629
0.00557211
0.0056766
0.00572032
0.00576433
0.00576369
0.00533072
0.00559014
0.00563205
0.00550505
0.00554757
0.00541811
0.00546168
0.00533079
0.00537453
0.00524299
0.00528697
0.00515462
0.00519887
0.00506577
0.00511026
0.00497646
0.00502118
0.00488671
0.00493164
0.00479662
0.00484171
0.0047062
0.00475145
0.0046155
0.00466089
0.00452454
0.00457006
0.00443334
0.00447897
0.00434192
0.00438766
0.0042503
0.00429614
0.00415849
0.00420442
0.00406651
0.00411252
0.00397437
0.00402046
0.00388209
0.00392825
0.00378968
0.0038359
0.00369714
0.00374343
0.00360449
0.00365083
0.00351172
0.00355812
0.00341886
0.00346531
0.0033259
0.00337239
0.00323284
0.00327938
0.0031397
0.00318628
0.00304646
0.00309311
0.00295269
0.00299955
0.00290534
0.00275593
0.00275891
0.00275731
0.00275466
0.00275525
0.00275456
0.00275459
0.00275453
0.00275454
0.00275457
0.00275454
0.0027547
0.00275462
0.00275488
0.00275479
0.0027552
0.00275502
0.00275628
0.00275571
0.00275725
0.00290751
0.00281146
0.00285986
0.00300224
0.00295495
0.00309562
0.00304896
0.00318888
0.00314226
0.00328206
0.00323549
0.00337515
0.00332862
0.00346814
0.00342166
0.00356103
0.0035146
0.0036538
0.00360743
0.00374647
0.00370015
0.003839
0.00379275
0.00393141
0.00388522
0.00402367
0.00397756
0.00411577
0.00406974
0.00420771
0.00416176
0.00429947
0.00425361
0.00439102
0.00434527
0.00448236
0.00443672
0.00457346
0.00452795
0.0046643
0.00461892
0.00475485
0.00470962
0.00484509
0.00480001
0.00493498
0.00489008
0.00502449
0.00497979
0.00511358
0.00506909
0.0052022
0.00515795
0.00529031
0.00524632
0.00537785
0.00533416
0.00546474
0.00542139
0.00555088
0.00550792
0.00563632
0.00559363
0.00572192
0.0056792
0.00580666
0.00580746
0.00576478
0.00547173
0.00548647
0.00537403
0.00537376
0.00276071
0.00276276
0.00552912
0.00541669
0.00541682
0.00545921
0.0054599
0.00550304
0.00554625
0.00558958
0.00563299
0.00575272
0.00575938
0.00579927
0.00580857
0.00585122
0.00585006
0.00579289
0.00574742
0.00570236
0.00565821
0.00561433
0.00571821
0.0057617
0.00580525
0.00584843
0.00537376
0.00567834
0.00571936
0.00559358
0.00563543
0.00550713
0.00555068
0.00542021
0.00546374
0.00533276
0.00537656
0.00524475
0.00528883
0.0051562
0.00520054
0.00506719
0.00511175
0.00497773
0.00502251
0.00488787
0.00493285
0.00479766
0.00484281
0.00470715
0.00475244
0.00461636
0.00466179
0.00452532
0.00457087
0.00443404
0.00447971
0.00434255
0.00438832
0.00425086
0.00429673
0.004159
0.00420495
0.00406697
0.004113
0.00397479
0.0040209
0.00388247
0.00392865
0.00379002
0.00383626
0.00369745
0.00374375
0.00360477
0.00365113
0.00351199
0.00355839
0.0034191
0.00346556
0.00332612
0.00337262
0.00323305
0.0032796
0.0031399
0.00318649
0.00304667
0.0030933
0.00295334
0.00300001
0.00285858
0.00290602
0.00276204
0.00281084
0.00271067
0.00271334
0.00271164
0.00270884
0.00270957
0.00270808
0.0027082
0.00270803
0.00270806
0.002708
0.00270801
0.00270805
0.00270802
0.00270818
0.0027081
0.00270838
0.00270827
0.00270865
0.00270851
0.0027091
0.00270884
0.00271102
0.00270996
0.00271464
0.00271256
0.00281314
0.00271706
0.00276548
0.00290849
0.00286108
0.00300254
0.00295559
0.0030959
0.00304923
0.00318918
0.00314255
0.00328237
0.00323579
0.00337547
0.00332893
0.00346847
0.00342199
0.00356138
0.00351494
0.00365418
0.00360779
0.00374686
0.00370054
0.00383943
0.00379316
0.00393187
0.00388567
0.00402416
0.00397804
0.00411631
0.00407026
0.0042083
0.00416233
0.00430011
0.00425423
0.00439173
0.00434595
0.00448314
0.00443747
0.00457432
0.00452876
0.00466524
0.00461981
0.00475589
0.0047106
0.00484623
0.0048011
0.00493624
0.00489128
0.00502588
0.00498111
0.00511512
0.00507056
0.0052039
0.00515957
0.00529219
0.00524811
0.00537993
0.00533613
0.00546705
0.00542357
0.00555348
0.00551036
0.00563909
0.00559639
0.005724
0.00568166
0.00576596
0.00551392
0.00552881
0.00589238
0.00589392
0.00541684
0.00541658
0.00557137
0.00545928
0.00545944
0.00276396
0.00271594
0.00266633
0.00266812
0.00550172
0.00550234
0.00554529
0.00558832
0.00563146
0.00567473
0.00583896
0.00584624
0.00588532
0.00587891
0.00583333
0.0057879
0.00574381
0.00570012
0.00565615
0.00575947
0.00580284
0.00584641
0.00588993
0.00593585
0.00593365
0.00541658
0.00576561
0.00580647
0.00568203
0.00572419
0.0055961
0.00563917
0.00550961
0.00555297
0.00542255
0.00546616
0.00533486
0.00537878
0.00524663
0.00529082
0.00515789
0.00520232
0.0050687
0.00511335
0.0049791
0.00502395
0.00488911
0.00493415
0.00479879
0.00484399
0.00470816
0.00475351
0.00461728
0.00466275
0.00452614
0.00457174
0.00443478
0.00448049
0.00434322
0.00438903
0.00425147
0.00429737
0.00415955
0.00420553
0.00406746
0.00411352
0.00397524
0.00402137
0.00388288
0.00392907
0.00379039
0.00383665
0.00369779
0.00374411
0.00360508
0.00365145
0.00351227
0.00355869
0.00341936
0.00346583
0.00332636
0.00337288
0.00323328
0.00327983
0.00314011
0.00318671
0.00304687
0.0030935
0.00295356
0.00300023
0.0028595
0.00290659
0.00281184
0.00266275
0.00266493
0.00266364
0.00266177
0.00266233
0.00266156
0.0026616
0.00266148
0.00266152
0.00266146
0.00266146
0.00266151
0.00266147
0.00266164
0.00266156
0.00266185
0.00266173
0.00266214
0.00266198
0.0026625
0.0026623
0.00266353
0.002663
0.00266456
0.00281457
0.00271884
0.00276719
0.00290913
0.00286204
0.00300283
0.00295608
0.0030962
0.00304953
0.00318949
0.00314286
0.00328269
0.0032361
0.00337581
0.00332926
0.00346883
0.00342233
0.00356175
0.0035153
0.00365457
0.00360818
0.00374729
0.00370095
0.00383988
0.0037936
0.00393236
0.00388614
0.0040247
0.00397855
0.00411689
0.00407081
0.00420893
0.00416293
0.0043008
0.00425489
0.00439249
0.00434667
0.00448397
0.00443826
0.00457523
0.00452963
0.00466625
0.00462077
0.004757
0.00471166
0.00484746
0.00480227
0.00493759
0.00489257
0.00502737
0.00498253
0.00511676
0.00507212
0.00520572
0.0051613
0.0052942
0.00525003
0.00538215
0.00533825
0.00546951
0.00542591
0.00555621
0.00551295
0.00564217
0.00559929
0.00572728
0.00568484
0.00581154
0.0057695
0.00589577
0.00585341
0.00597765
0.00597983
0.00593776
0.00555596
0.00557103
0.00545944
0.0054592
0.00266778
0.0026704
0.00561379
0.00550165
0.00550186
0.00554405
0.00554456
0.00558731
0.00563015
0.00567309
0.00571619
0.00592487
0.00593292
0.00597241
0.00598273
0.00602471
0.00602179
0.00596475
0.00591886
0.00587346
0.00582928
0.00578524
0.00574149
0.00569803
0.00580046
0.00584371
0.00588721
0.00593094
0.00597447
0.00601873
0.00545919
0.00585394
0.00589385
0.00577054
0.00581222
0.00568504
0.00572811
0.00559904
0.00564214
0.00551236
0.00555578
0.00542502
0.00546877
0.00533709
0.00538112
0.00524863
0.00529292
0.00515969
0.00520422
0.00507032
0.00511506
0.00498056
0.00502549
0.00489043
0.00493554
0.00479998
0.00484524
0.00470924
0.00475465
0.00461825
0.00466378
0.00452702
0.00457266
0.00443558
0.00448132
0.00434394
0.00438978
0.00425211
0.00429805
0.00416013
0.00420614
0.00406799
0.00411408
0.00397572
0.00402187
0.00388331
0.00392953
0.00379079
0.00383706
0.00369815
0.00374448
0.00360541
0.0036518
0.00351257
0.00355901
0.00341964
0.00346612
0.00332663
0.00337315
0.00323353
0.00328009
0.00314034
0.00318695
0.00304708
0.00309373
0.00295376
0.00300043
0.00286012
0.00290703
0.0027655
0.00281283
0.00266929
0.00271783
0.00261748
0.00262011
0.0026187
0.00261575
0.00261638
0.00261515
0.00261534
0.00261501
0.00261507
0.00261492
0.00261496
0.0026149
0.0026149
0.00261495
0.00261491
0.00261508
0.00261501
0.00261529
0.00261518
0.00261558
0.00261543
0.00261593
0.00261576
0.00261641
0.00261614
0.00261839
0.00261726
0.00262233
0.00262008
0.00272055
0.0026246
0.00267272
0.00281565
0.00276847
0.00290966
0.00286265
0.00300314
0.00295643
0.00309652
0.00304984
0.00318982
0.00314318
0.00328303
0.00323644
0.00337616
0.00332961
0.0034692
0.00342269
0.00356215
0.00351569
0.00365499
0.00360858
0.00374774
0.00370138
0.00384037
0.00379407
0.00393288
0.00388664
0.00402526
0.00397909
0.0041175
0.0040714
0.0042096
0.00416357
0.00430153
0.00425559
0.00439329
0.00434744
0.00448485
0.0044391
0.0045762
0.00453055
0.00466731
0.00462179
0.00475817
0.00471278
0.00484875
0.0048035
0.00493902
0.00489393
0.00502896
0.00498404
0.00511851
0.00507379
0.00520766
0.00516314
0.00529634
0.00525206
0.00538451
0.00534049
0.00547212
0.00542839
0.0055591
0.0055157
0.00564539
0.00560234
0.00573089
0.00568825
0.00581548
0.00577332
0.0058992
0.00585745
0.00594065
0.00559779
0.00561292
0.00606337
0.00606682
0.00550182
0.0055016
0.00565539
0.00554382
0.00554406
0.00267098
0.00262323
0.00257408
0.00257629
0.00558617
0.00558655
0.0056291
0.00567173
0.00571448
0.00575737
0.00601188
0.00602009
0.00605952
0.00605066
0.00600445
0.00595882
0.00591437
0.00587019
0.00582614
0.00578257
0.00573922
0.00584116
0.00588426
0.00592761
0.00597131
0.00601523
0.00605942
0.00610791
0.00610394
0.00550159
0.00594131
0.0059809
0.00585938
0.00590102
0.0057745
0.00581644
0.00568854
0.00573177
0.00560225
0.00564547
0.00551525
0.00555884
0.00542762
0.00547151
0.00533943
0.00538359
0.00525074
0.00529515
0.00516159
0.00520622
0.00507204
0.00511687
0.0049821
0.00502711
0.00489182
0.004937
0.00480124
0.00484657
0.00471038
0.00475584
0.00461928
0.00466486
0.00452795
0.00457364
0.00443641
0.00448221
0.00434469
0.00439058
0.0042528
0.00429877
0.00416075
0.00420679
0.00406855
0.00411467
0.00397622
0.00402241
0.00388377
0.00393001
0.00379121
0.0038375
0.00369853
0.00374489
0.00360576
0.00365216
0.0035129
0.00355934
0.00341995
0.00346643
0.00332691
0.00337344
0.00323379
0.00328036
0.00314059
0.0031872
0.00304732
0.00309397
0.00295398
0.00300066
0.00286056
0.00290729
0.00276644
0.00281345
0.00271891
0.0025698
0.00257193
0.00257073
0.00256887
0.00256936
0.00256859
0.0025687
0.00256843
0.0025685
0.00256833
0.00256837
0.00256831
0.00256832
0.00256837
0.00256833
0.0025685
0.00256843
0.00256872
0.0025686
0.00256901
0.00256885
0.00256937
0.00256918
0.0025698
0.00256957
0.00257096
0.00257034
0.00257224
0.00272211
0.0026267
0.00267449
0.00281644
0.00276926
0.00291002
0.00286324
0.00300347
0.00295675
0.00309686
0.00305018
0.00319016
0.00314352
0.00328339
0.00323679
0.00337653
0.00332997
0.00346959
0.00342308
0.00356256
0.00351609
0.00365543
0.00360901
0.00374821
0.00370184
0.00384087
0.00379456
0.00393342
0.00388717
0.00402585
0.00397966
0.00411815
0.00407202
0.0042103
0.00416425
0.0043023
0.00425633
0.00439413
0.00434824
0.00448578
0.00443998
0.00457722
0.00453153
0.00466844
0.00462286
0.00475941
0.00471396
0.00485012
0.00480481
0.00494054
0.00489537
0.00503063
0.00498563
0.00512036
0.00507554
0.0052097
0.00516508
0.0052986
0.00525421
0.00538701
0.00534287
0.00547489
0.00543102
0.00556216
0.0055186
0.00564877
0.00560556
0.00573465
0.00569181
0.00581968
0.00577728
0.00590376
0.00586186
0.00598689
0.00594543
0.00607
0.00602808
0.00614877
0.00615302
0.00611156
0.00563937
0.00565485
0.00554398
0.00554378
0.00257483
0.00257797
0.0056969
0.00558576
0.00558602
0.00562806
0.00562829
0.00567063
0.00571305
0.00575558
0.00579828
0.00609867
0.00610796
0.00614708
0.00613751
0.00609089
0.00604462
0.00599941
0.00595479
0.0059107
0.00586707
0.00582357
0.00578038
0.00588155
0.00592446
0.00596766
0.0060112
0.00605507
0.00609936
0.00614416
0.00615706
0.00619427
0.00619851
0.00554376
0.00603011
0.00606922
0.00594779
0.00598849
0.00586388
0.00590618
0.00577828
0.00582115
0.00569228
0.00573539
0.00560562
0.00564903
0.00551828
0.00556203
0.00543035
0.00547439
0.00534189
0.00538619
0.00525296
0.00529749
0.0051636
0.00520833
0.00507384
0.00511877
0.00498373
0.00502883
0.00489329
0.00493855
0.00480257
0.00484796
0.00471158
0.0047571
0.00462036
0.004666
0.00452893
0.00457467
0.0044373
0.00448314
0.00434549
0.00439141
0.00425352
0.00429952
0.0041614
0.00420748
0.00406914
0.00411529
0.00397676
0.00402297
0.00388426
0.00393053
0.00379165
0.00383797
0.00369894
0.00374531
0.00360614
0.00365255
0.00351324
0.0035597
0.00342026
0.00346677
0.0033272
0.00337375
0.00323407
0.00328065
0.00314085
0.00318747
0.00304757
0.00309422
0.00295422
0.0030009
0.0028608
0.00290752
0.00276701
0.00281388
0.0026725
0.00271996
0.00257608
0.00262466
0.00252456
0.00252725
0.00252577
0.00252283
0.00252349
0.00252221
0.0025224
0.002522
0.0025221
0.00252183
0.0025219
0.00252173
0.00252177
0.00252171
0.00252171
0.00252177
0.00252173
0.00252191
0.00252183
0.00252212
0.002522
0.00252241
0.00252226
0.00252278
0.00252259
0.00252319
0.00252299
0.002524
0.00252346
0.00252598
0.00252475
0.00252967
0.00252749
0.00262792
0.00253167
0.0025799
0.00272296
0.00267563
0.00281683
0.00277
0.00291035
0.0028636
0.00300381
0.00295709
0.00309721
0.00305052
0.00319052
0.00314388
0.00328376
0.00323716
0.00337692