/*--------------------------------*- C++ -*----------------------------------*\
  =========                 |
  \\      /  F ield         | OpenFOAM: The Open Source CFD Toolbox
   \\    /   O peration     | Website:  https://openfoam.org
    \\  /    A nd           | Version:  10
     \\/     M anipulation  |
\*---------------------------------------------------------------------------*/
FoamFile
{
    format      ascii;
    class       surfaceScalarField;
    location    "3.5";
    object      phi;
}
// * * * * * * * * * * * * * * * * * * * * * * * * * * * * * * * * * * * * * //

dimensions      [0 3 -1 0 0 0 0];

internalField   nonuniform List<scalar> 
57492
(
0.000861379
-2.10727e-05
-0.000166737
-0.000673569
-0.000826352
0.000983422
0.000704309
-3.44267e-05
9.90411e-05
0.000389695
-0.000454309
0.00318921
0.00337059
-0.000282006
-0.0062778
-0.00862379
0.00400378
0.00780923
0.00230093
-0.00223389
-0.0011793
0.00111225
-0.00424227
0.00110874
-0.000514027
0.00364756
0.000707747
-0.00264908
0.000805358
-0.00422764
0.00401586
-0.00059358
0.000759098
0.00389534
-0.00384908
-0.00281311
-0.000898138
0.00271766
0.00099359
-0.000130924
-0.00266356
-1.86247e-05
0.00138659
-0.00151015
-7.36511e-06
-0.000276816
0.000765266
0.0037078
-0.00345347
-0.00129679
0.00104247
0.000405549
0.00296255
0.000339697
-0.000323089
0.000782654
0.00330186
-0.00376142
-0.000654775
0.00322452
-0.00289283
0.00013996
-0.000304047
0.000164087
-0.00178565
0.00129988
0.000625728
-0.00464901
0.000314609
0.00336739
0.000967004
0.0010944
-0.00470964
-0.00103377
-5.1109e-05
-0.00101714
-0.00143272
0.00250097
-0.000735676
0.000720111
-3.55441e-05
-0.00446449
0.00334713
0.00161625
-0.000498881
-0.00436274
0.00037772
-0.000479467
-0.00112758
0.000588504
0.000464182
7.48903e-05
-0.000781339
-0.000359878
1.36406e-05
-0.000404704
-0.00126403
0.00147407
0.000194665
-0.000463473
0.000132807
-7.40384e-05
0.00247926
-0.00166301
-0.00157224
0.000755994
-0.00208843
0.00144756
0.00312013
-0.00249771
-0.00507533
0.00402711
0.00354594
-0.00497995
-0.00130917
0.00379141
-0.000750035
-0.000172877
0.000922912
-0.000291565
-0.00045847
-0.00143673
0.00199609
-0.000850927
0.000215016
-0.000800072
-0.000851671
-0.00214933
0.00325807
-0.000243453
-0.00193731
0.00117137
0.000765936
-0.0044178
0.00248049
0.00444664
-0.00043361
2.24371e-05
-0.00403547
0.00326486
-0.000380842
0.00156262
-0.000343179
0.00434567
-0.0044361
0.00405161
0.000692974
-0.00403684
0.00392523
-0.000387645
0.00426497
-0.00158189
-0.00309191
0.000408822
0.00480907
0.000148875
0.0028019
-0.00155285
0.00267618
0.00200683
0.00444263
-0.00410825
-0.000615056
0.000581048
0.00414226
-0.0042428
-0.000339897
0.000474441
0.000481689
0.00412867
-0.00409215
-0.000518212
0.000195007
-0.00394096
-0.00568547
0.00316784
0.00437326
-0.00185562
-0.0022327
0.003886
-0.00733878
-0.000110457
-0.000656103
3.56891e-05
0.000730871
-0.00119914
-0.000421466
0.000422425
-0.000424673
-0.00119689
-0.000309797
7.61189e-05
0.00019875
-0.000163061
5.15485e-05
0.000147201
0.00891838
0.0035381
-0.00679771
-0.00565878
0.00174531
-0.000288819
0.00746189
-0.00879681
0.00225608
0.00828605
0.00159983
-0.00685854
0.00148752
-0.00288712
0.0021992
-0.00079961
0.00244309
-0.00294838
0.00199281
-0.000128044
0.000119366
-1.23945e-05
-0.000264682
-3.00991e-05
-0.000813094
-0.000125157
-0.0030852
0.00562019
0.00319833
-0.00573332
0.00416679
-0.00480889
0.00275139
0.005071
-0.00220221
0.0116413
-0.00317118
-0.000398847
-0.00807124
0.000442604
0.00645688
0.00474178
0.000525836
-0.00612396
0.00604073
5.68736e-05
-9.13003e-05
0.000155915
0.00102494
0.00200493
-0.00071589
-0.00231398
0.00128625
0.000128389
-0.000245366
8.76941e-05
0.000157672
-0.000595815
0.000350449
-0.00736933
0.00316255
-0.00206237
0.00626916
-0.00614344
-0.00326007
0.00203418
-0.00278766
0.00242624
-0.00578202
0.00220272
-1.77684e-05
-0.00104257
-0.00114238
-0.000797669
0.00249652
0.00050387
-0.000943057
-9.36852e-05
0.000239074
-0.000864746
-9.60797e-05
-0.000295943
-0.00161137
-0.00164312
-0.000614174
5.81169e-05
0.00219918
-0.0014211
-0.00267641
0.00245439
0.00136437
0.000217616
-0.00300309
0.00086491
-0.000114712
0.00107248
-0.000149449
-0.000706972
0.000411029
8.30712e-05
-0.000790043
0.000242164
-0.000837979
0.00426456
0.00333691
-0.00017475
0.00213002
-0.00648925
-7.93093e-05
0.00233802
-0.00181205
-0.000446667
0.000144546
0.00327166
-0.00349552
0.0026946
0.00183187
-0.000745657
-0.00378082
-0.000637052
0.000144884
0.00318677
0.00357729
-0.00238247
-0.00147562
-0.00300381
0.000979639
0.00349979
-0.00135533
0.00348944
-0.00360973
0.000206743
-0.00456589
0.000775054
0.000526474
-2.82361e-05
0.00284423
-0.00147379
-0.00219679
0.000988169
-0.00190267
0.00375873
0.00183887
0.000132724
-0.000190862
0.000344931
7.02275e-05
-0.000224296
0.00103062
-0.00125628
3.48007e-05
-0.000372008
0.000867871
0.000534752
-0.000130202
0.000103125
-0.00696904
0.00316443
0.00696716
0.00769479
-0.00252766
-0.0084272
-0.00338788
0.00411362
-9.79161e-05
-0.000953481
-0.000212636
-0.000573316
1.19271e-05
4.3289e-05
-0.000135758
4.63532e-05
4.6116e-05
-0.000129929
0.000139043
3.41742e-05
-0.000291155
2.54682e-05
-0.000295952
-0.000339563
6.21987e-05
-0.000889907
-0.000359526
-0.00202379
-0.00222156
0.00262485
0.00162049
0.000110008
0.000968507
-0.0031023
-0.00297423
0.000862681
-0.00311
0.00137678
-5.2434e-05
-0.00364243
0.000772375
-0.000239945
0.000666975
-0.00338425
0.00270257
1.47056e-05
0.000499618
-0.00295572
0.00312308
0.00241539
-0.0102174
-0.00195169
0.00236167
0.003161
-0.00373591
0.00220562
-0.000382412
-0.000365166
0.000582782
-0.000406564
4.13984e-05
0.000309491
-4.32884e-05
0.00473114
-0.00290766
-0.002315
0.000491531
0.00414102
0.000246941
0.00581315
-0.00171631
-0.00632954
0.000169323
0.00403254
0.00161129
-0.000243525
-0.00392899
0.00434183
2.32291e-05
-0.000429794
0.00079532
-0.00232362
-0.00313472
0.00144287
0.00347989
0.00262157
-0.00015701
-0.00275209
0.000287532
0.000779832
-0.000246697
-0.00322038
0.000478675
0.00418927
0.000451468
-0.00289202
-0.000132868
1.48703e-05
-0.000311968
0.000253305
7.40098e-05
-1.53464e-05
0.000112451
3.611e-06
-0.00042803
0.000160271
-0.0012
0.00115218
-0.00342413
0.00492346
-0.00125717
0.00332438
-0.00571106
-0.00103745
-0.000106947
-0.00392716
0.00451278
-0.00514744
0.00049588
-0.00343888
-0.00253798
0.000829419
0.0028809
0.00277682
-0.00534312
0.00238875
0.00449303
-0.00400087
0.00214565
-0.003074
0.00163906
-0.000710714
0.00234067
-0.00301881
0.00282379
0.00446405
0.00168017
0.00440597
-0.000272127
-0.00440923
0.000275391
0.00483943
-0.000640064
0.000206606
0.00515166
-0.000487353
-0.00029292
-0.00437139
0.00369615
-0.000924086
0.0023796
0.00425023
-0.00108954
0.000834185
-0.00399488
0.000912242
0.00432905
-0.000991063
-0.00386201
-0.00136313
0.0041356
0.000792275
-0.00367464
-0.00146476
0.00360143
-0.00194842
-0.00328268
0.00170277
0.00352834
-0.00201592
-0.00333319
0.00340069
0.00189409
0.00315
-0.00118842
-0.00385568
0.00312768
-0.00324951
-0.00220629
0.00216255
0.00317142
-0.00176404
0.00270775
-0.0040985
0.00365976
-0.000749667
-0.00517761
0.00074601
0.00545653
-0.00102494
0.00167518
-0.000939236
0.00295746
-0.00315769
0.00113946
-0.000506988
0.00311699
-0.00354924
-0.000149619
0.00109112
0.000897367
-0.00299387
-0.0039073
0.00243589
-6.37742e-05
6.73852e-05
4.41141e-06
-6.81857e-05
-0.000337688
-0.00462944
0.00341428
-0.00371612
-0.000248958
0.00362739
0.000208017
-0.00390504
-1.90957e-05
-0.000403975
0.00182794
0.000431713
-0.00185568
0.00196445
0.000404553
-0.00277298
0.00181215
0.00198024
-3.95155e-05
7.56801e-05
0.00049031
7.94496e-05
-0.000118965
0.00015513
-2.61007e-05
6.0949e-05
-0.000344645
2.59927e-05
-5.20934e-05
8.69417e-05
-0.000111455
6.40051e-05
-0.000688226
7.28384e-05
-0.000184293
0.000136844
5.50627e-05
-5.60037e-06
-0.000179664
-1.74676e-05
7.25302e-05
-2.3068e-05
0.000967148
0.00273682
-0.00355909
0.00134655
-0.00386758
0.00348818
0.00382562
0.000257753
-0.00117128
-0.00241647
0.0011495
0.00243825
-0.000702859
0.00268946
-0.00315788
0.00015626
-0.00327559
0.00386603
-0.0039036
-1.19766e-05
4.95416e-05
0.0038634
3.51586e-05
-3.2523e-05
-2.39399e-05
-0.00389882
1.9162e-05
0.00389138
-9.91145e-07
-2.69866e-05
0.00395963
5.67098e-05
-0.000124963
2.79126e-05
0.00405734
-0.000125625
0.00400857
-0.00398577
5.10724e-06
-0.000188501
0.00424589
-4.7165e-08
0.0038962
-7.61265e-05
-0.00386465
-6.44114e-05
-0.00385228
-1.33566e-05
-0.00384791
3.07873e-05
-0.00393151
7.16172e-05
-0.00386832
-8.71263e-05
-0.000182746
0.00442897
-3.29736e-07
0.00371342
3.80912e-08
-1.90738e-05
-0.00386716
-1.25883e-05
-0.00390094
1.35433e-05
-2.71932e-05
-0.00409154
0.000251577
9.84205e-08
0.00442886
1.03522e-08
0.00371391
-4.00786e-07
-0.00404527
0.000117136
0.00442887
2.69995e-07
-2.8127e-07
1.57874e-07
0.00442865
6.42845e-08
0.00371411
7.69088e-08
0.00371464
-3.73953e-07
-2.29634e-05
-0.00406798
-5.96475e-07
-0.00406806
-1.70024e-07
3.87064e-07
0.0044285
-2.44572e-07
0.00371492
1.11002e-07
3.86532e-10
-0.00406761
-3.76956e-07
-0.00406742
-6.36636e-07
3.8297e-07
0.00442801
1.09107e-07
0.00371565
-3.51524e-07
9.1531e-08
-0.00406698
-7.16486e-07
-0.00406706
-2.65356e-07
8.44371e-07
0.00442738
-2.1389e-07
0.00371636
1.38624e-07
-5.36796e-09
-0.00406648
-4.98909e-07
-0.00406633
-7.36966e-07
1.2911e-06
0.00442594
1.45779e-07
0.00371798
-3.35552e-07
1.15728e-07
-0.00406576
-8.35357e-07
-0.00406582
-3.97104e-07
2.6693e-06
0.00442347
-1.90306e-07
0.00372049
1.61072e-07
9.42296e-06
-0.00407455
-6.33089e-07
-0.00405551
-8.90954e-07
4.93231e-06
0.00441836
1.76212e-07
0.00372574
-3.16923e-07
2.65619e-05
-0.0039596
-0.000141512
-0.00398633
-4.26113e-05
9.94661e-06
0.00440858
-1.67341e-07
0.00371826
1.74294e-05
2.63434e-05
-0.00397871
-7.23177e-06
-0.00395682
-3.1687e-06
1.94069e-05
0.00438896
2.11813e-07
0.00369208
4.55822e-05
5.66098e-05
-0.00383903
-0.000196288
-0.0038431
-5.71131e-05
0.000188238
0.00420085
-1.28987e-07
0.00380429
7.60331e-05
6.52414e-05
-0.00382241
-8.18603e-05
-0.00380168
2.38243e-05
0.000166211
0.00389104
0.000143599
0.00386691
0.000103585
0.000104068
-0.000145887
-0.00378059
-0.00378755
8.99388e-05
1.16918e-05
3.76004e-05
0.00384175
0.00384166
3.69489e-05
-0.00383612
0.00389571
-0.000141452
-0.00385859
-0.000123424
0.000177832
-0.000153641
-0.00380478
9.07852e-05
-0.00370051
-0.00381178
0.00384462
-4.00716e-05
-0.000112351
-0.00370491
0.00370572
-1.43933e-06
-1.80347e-06
-0.00370647
0.00370717
-1.19689e-06
-1.58847e-06
-0.00370781
0.00370842
-9.82634e-07
-1.36371e-06
-0.003709
0.00396141
-8.26229e-07
-1.18092e-06
-0.00394984
0.00389527
7.37323e-05
-1.02575e-06
-0.00402014
0.00398818
-5.58771e-07
-7.53235e-05
-0.00386008
0.00380327
-6.81563e-05
0.000101112
-0.00371259
0.00371293
-3.87121e-07
-3.49407e-05
-0.00371326
0.00371357
-3.00058e-07
-6.67203e-07
-0.00371388
0.00371417
-2.20849e-07
-5.91279e-07
-0.00371445
0.00371471
-1.51499e-07
-5.25586e-07
-0.00371497
0.0037152
-9.33253e-08
-4.69695e-07
-0.00371544
0.00371566
-4.63015e-08
-4.25676e-07
-0.00371588
0.0037161
-1.10723e-09
-3.88908e-07
-0.00369432
0.00378117
5.67455e-05
2.16481e-05
0.00377163
4.71434e-05
-2.29615e-05
7.43474e-05
0.00379036
-2.90221e-06
0.0038216
0.00379596
-0.00373348
1.35582e-05
-0.0038328
0.00382453
4.52225e-05
6.67421e-05
0.00373318
-0.00371571
-4.15296e-08
4.52793e-05
0.00371547
-0.00371523
-8.00069e-08
-5.50496e-07
0.00371499
-0.00371473
-1.19387e-07
-5.80936e-07
0.00371446
-0.00371418
-1.70098e-07
-6.18977e-07
0.00371389
-0.00371358
-2.31437e-07
-6.68364e-07
0.00371325
-0.00371292
-2.99234e-07
-7.26112e-07
0.00378826
-0.00378276
-3.88056e-07
-7.85496e-07
0.0038463
-0.00380475
-5.49123e-05
-8.72124e-07
0.00377995
-0.00375529
4.69559e-05
5.99447e-06
0.00380243
-0.00382724
3.83558e-05
-3.9987e-05
0.00370899
-0.00370842
-7.44973e-07
-1.11711e-06
0.00370782
-0.00370717
-9.06547e-07
-1.23663e-06
0.00370649
-0.00370577
-1.12494e-06
-1.41755e-06
0.003705
-0.00374623
-1.38407e-06
-1.65382e-06
0.00374749
-0.00380296
-1.64183e-06
-1.90864e-06
0.00377698
-0.00372305
3.60104e-05
-2.15447e-06
-0.00368344
5.1171e-05
-0.00388934
-0.000122889
0.00378316
6.28184e-05
8.38593e-07
0.00382079
0.00014181
-0.000126679
-0.00371564
0.000114376
-0.00365601
0.000128895
-0.000118975
-0.00389926
-0.00380257
-0.00381379
0.00375132
-7.89893e-05
0.00385817
-0.00389154
-8.95173e-05
-7.90403e-05
-0.00370337
0.00370409
-4.07882e-05
-6.4398e-05
-0.00370495
0.00370574
-2.23523e-06
-2.66272e-06
-0.00370649
0.00370718
-1.89332e-06
-2.33144e-06
-0.00370783
0.00370844
-1.59019e-06
-2.01041e-06
-0.003709
0.00370953
-1.35152e-06
-1.74709e-06
-0.00371004
0.00378494
-1.16352e-06
-1.54086e-06
-0.00371098
0.00371142
-9.95418e-07
-1.36346e-06
-0.00381377
0.00374645
-8.4059e-07
-1.23882e-06
-0.0037126
0.00371295
-7.34845e-07
-1.09534e-06
-0.00371328
0.0037136
-6.19225e-07
-9.99165e-07
-0.00371391
0.0037142
-5.11478e-07
-8.92863e-07
-0.00371447
0.00371473
-4.15868e-07
-7.98184e-07
-0.00371498
0.00371522
-3.35349e-07
-7.16688e-07
-0.00371545
0.00371567
-2.70416e-07
-6.51155e-07
-0.00371588
0.00371609
-2.11146e-07
-5.98254e-07
-0.003716
0.00374605
2.67017e-05
2.17339e-05
8.84701e-06
-1.6668e-05
0.00379818
2.24912e-06
0.00378976
-0.00373478
0.00377167
2.59299e-05
5.84117e-05
0.0037741
-0.00377509
4.62067e-05
0.00374366
3.12814e-05
-2.40572e-06
4.49358e-05
0.00377826
0.00380252
0.00377577
-0.00374825
-1.39587e-05
6.74247e-05
0.00371594
-0.00371571
-2.67426e-07
1.29667e-05
0.00371549
-0.00371525
-3.16105e-07
-7.78512e-07
0.00371501
-0.00371475
-3.74776e-07
-8.23859e-07
0.00371449
-0.00371421
-4.50203e-07
-8.84004e-07
0.00371391
-0.00371361
-5.40198e-07
-9.60216e-07
0.00371328
-0.00371294
-6.39615e-07
-1.04842e-06
0.00371258
-0.00371221
-7.57634e-07
-1.14761e-06
0.00371182
-0.00376587
-8.70346e-07
-1.25937e-06
0.00375849
-0.00371053
-1.00707e-06
-1.37801e-06
0.00374903
-0.00370952
-1.14772e-06
-1.49122e-06
0.00370899
-0.00370842
-1.31711e-06
-1.64873e-06
0.00370782
-0.00370719
-1.54077e-06
-1.83451e-06
0.00370652
-0.00370582
-1.82997e-06
-2.08248e-06
0.00370508
-0.0037043
-2.16737e-06
-2.39184e-06
0.00370348
-0.00370261
-2.51034e-06
-2.72732e-06
0.0037017
-0.00366285
-2.84048e-06
-3.0584e-06
0.0036414
-0.00359116
6.41326e-05
2.97201e-05
-0.00391996
-9.05577e-05
0.000101697
-0.000157127
-0.00360058
-0.00356853
7.90705e-05
-0.000210765
-0.003662
2.48241e-05
0.00374909
0.0037492
3.93939e-05
-5.64864e-05
8.15616e-05
-0.00392433
-5.22105e-05
-0.00392424
7.74791e-05
-0.000155895
-0.00352216
5.47894e-05
-0.00354584
-0.00393177
0.00378119
-0.00377015
1.48923e-05
0.00374237
6.36413e-05
6.73785e-05
-2.90994e-05
0.00373998
4.44103e-05
0.00377217
-0.00387864
0.00391968
-9.32511e-05
-0.000104158
8.6625e-05
-0.0039067
0.00396564
-8.80307e-05
0.000318866
-0.00419647
-1.71585e-05
-0.00391411
0.00388235
-5.77596e-05
-8.49897e-05
-0.00383146
0.00377011
-1.76386e-05
-2.81522e-05
-0.00374172
0.0037043
-3.36651e-06
-3.60058e-05
-0.00370509
0.00370585
-2.99401e-06
-3.45251e-06
-0.00370656
0.00370724
-2.57181e-06
-3.04648e-06
-0.00370788
0.00370848
-2.19312e-06
-2.64702e-06
-0.00370905
0.00370958
-1.8882e-06
-2.31287e-06
-0.00371009
0.00371057
-1.63981e-06
-2.04695e-06
-0.00371103
0.00371146
-1.42941e-06
-1.8265e-06
-0.00371187
0.00371227
-1.2434e-06
-1.64161e-06
-0.00371265
0.003713
-1.08523e-06
-1.47156e-06
-0.00371333
0.00371365
-9.37325e-07
-1.33049e-06
-0.00371395
0.00371423
-7.99296e-07
-1.19327e-06
-0.0037145
0.00371477
-6.76282e-07
-1.06964e-06
-0.00371501
0.00371525
-5.71404e-07
-9.6231e-07
-0.00371547
0.00371568
-4.8553e-07
-8.74007e-07
-0.00371589
0.00371609
-4.10251e-07
-8.02354e-07
-0.00372653
0.00373291
2.03157e-05
1.12961e-05
2.11717e-05
2.46242e-05
-8.74571e-06
0.0037823
-4.00345e-05
1.14106e-05
0.00377772
0.00377435
0.00376468
0.00376349
-0.00375952
4.22357e-05
-0.00375805
0.00373755
5.98978e-05
3.67244e-05
0.00371632
-0.00372986
-4.27192e-07
2.42265e-05
0.00371594
-0.00371572
-4.83006e-07
-9.538e-07
0.0037155
-0.00371527
-5.46036e-07
-9.97519e-07
0.00371503
-0.00371478
-6.26645e-07
-1.06197e-06
0.00371452
-0.00371424
-7.28024e-07
-1.14603e-06
0.00371395
-0.00371365
-8.47346e-07
-1.24978e-06
0.00371332
-0.00371298
-9.80089e-07
-1.36889e-06
0.00371263
-0.00371226
-1.12984e-06
-1.50177e-06
0.00371187
-0.00371145
-1.2884e-06
-1.64904e-06
0.00371102
-0.00371056
-1.46415e-06
-1.80957e-06
0.00371007
-0.00370956
-1.65907e-06
-1.98183e-06
0.00370902
-0.00370845
-1.88767e-06
-2.18685e-06
0.00370785
-0.00370723
-2.16944e-06
-2.43046e-06
0.00370657
-0.00370589
-2.51712e-06
-2.73631e-06
0.00370517
-0.00370442
-2.91665e-06
-3.10488e-06
0.00370364
-0.00370282
-3.33167e-06
-3.50743e-06
0.00370197
-0.00370107
-3.74145e-06
-3.9117e-06
0.00366704
-0.00359876
-4.14271e-06
-4.3079e-06
0.00355907
-0.00356638
6.21028e-05
3.93735e-05
6.97118e-05
-6.80089e-05
-0.00354755
-0.00354936
5.26928e-05
0.000114325
-0.00395203
-9.29427e-05
-0.00372495
3.74949e-05
0.00371629
0.00375033
3.16326e-05
0.000135226
-0.00412996
1.80178e-06
-0.00359197
0.000804569
-0.00331773
0.00432532
-6.64721e-05
4.51746e-05
-0.00352806
-9.99807e-05
-0.00351404
-0.00262075
0.00398638
0.000614613
-0.00204923
-0.000139806
-0.00391039
-0.00377731
0.00393473
0.000161452
0.000337913
-0.000128844
-0.00389514
0.00385834
-5.64574e-05
2.243e-05
-0.00382534
0.00377207
-4.49215e-06
-5.19884e-05
-0.00374861
0.00373536
-4.38395e-06
-4.68905e-06
-0.00370387
0.00370462
-4.12123e-06
-4.51598e-06
-0.00370534
0.00370605
-3.69662e-06
-4.17572e-06
-0.00370672
0.00370737
-3.22037e-06
-3.71939e-06
-0.00370799
0.00370858
-2.78434e-06
-3.26414e-06
-0.00370914
0.00370967
-2.42152e-06
-2.87235e-06
-0.00371017
0.00371065
-2.12057e-06
-2.55088e-06
-0.00371111
0.00371154
-1.86293e-06
-2.28134e-06
-0.00371195
0.00371234
-1.63516e-06
-2.04965e-06
-0.00371271
0.00371306
-1.43482e-06
-1.84103e-06
-0.00371339
0.00371371
-1.252e-06
-1.65945e-06
-0.003714
0.00371429
-1.08387e-06
-1.49064e-06
-0.00371456
0.00371481
-9.33287e-07
-1.3383e-06
-0.00371506
0.00371529
-8.02928e-07
-1.20467e-06
-0.0037155
0.00371571
-6.93579e-07
-1.09192e-06
-0.00371591
0.0037161
-6.00381e-07
-9.98655e-07
-0.00372832
0.00374915
-5.17547e-07
-9.22062e-07
-0.00374016
0.00373795
1.71098e-05
3.01576e-05
-0.00375263
0.00374843
4.16955e-05
4.89547e-05
5.26402e-05
-2.93603e-05
0.00375444
-3.2833e-05
7.87736e-06
0.00377339
0.0037361
3.6694e-05
1.51619e-05
0.00373045
0.00378168
-2.59614e-05
1.80671e-05
0.00374787
0.00375388
-2.25164e-05
3.85393e-06
0.00376899
0.00376772
0.00377195
-0.0037587
4.66464e-05
-0.00383018
0.00372793
0.000106098
-2.65939e-05
0.00374941
-0.00374161
3.44313e-05
2.74369e-05
0.00371631
-0.00371612
-6.11731e-07
-1.07234e-06
0.00371594
-0.00371573
-6.85325e-07
-1.13924e-06
0.00371552
-0.0037153
-7.69134e-07
-1.20752e-06
0.00371507
-0.00371482
-8.74316e-07
-1.29478e-06
0.00371456
-0.00371429
-1.00262e-06
-1.4045e-06
0.003714
-0.0037137
-1.15163e-06
-1.5364e-06
0.00371338
-0.00371304
-1.31729e-06
-1.68651e-06
0.00371269
-0.00371232
-1.50112e-06
-1.85314e-06
0.00371193
-0.00371152
-1.70171e-06
-2.03756e-06
0.00371109
-0.00371063
-1.92417e-06
-2.24155e-06
0.00371014
-0.00370963
-2.17218e-06
-2.46594e-06
0.00370909
-0.00370852
-2.4563e-06
-2.72363e-06
0.00370793
-0.00370731
-2.79216e-06
-3.02277e-06
0.00370666
-0.00370599
-3.19022e-06
-3.38066e-06
0.0037053
-0.00370457
-3.64081e-06
-3.79866e-06
0.00370382
-0.00370304
-4.1173e-06
-4.25646e-06
0.00370222
-0.00370136
-4.60229e-06
-4.72897e-06
0.00370046
-0.0036995
-5.10198e-06
-5.20926e-06
0.00365441
-0.00358669
-5.62109e-06
-5.71202e-06
0.0035896
-0.0035766
3.21663e-05
5.56074e-05
5.4186e-05
-5.06922e-05
-0.00353156
-0.00355253
3.01212e-05
0.000110633
-0.00392744
-2.83977e-05
-0.00369475
0.000286186
-0.00361158
1.79919e-06
-0.00369375
0.00374966
-0.00375523
4.72626e-05
0.00373656
2.09847e-05
4.75247e-05
-3.24296e-05
0.00375389
1.29151e-05
0.00376254
0.000274031
-0.00318721
3.08759e-06
-0.00356782
-0.00192532
-0.00197959
-0.00310849
0.0035696
0.000153496
8.31359e-05
-5.73709e-05
-0.00355732
5.92295e-05
-0.00352863
-0.0028944
-0.000353895
-0.00382815
-0.0037218
0.0037695
0.000113744
0.000185722
-0.00379813
0.00374738
-5.70474e-06
-6.19746e-06
-0.00370114
0.00370204
-5.39655e-06
-5.75033e-06
-0.00370287
0.00370363
-5.14709e-06
-5.51082e-06
-0.00370435
0.00370503
-4.80325e-06
-5.23267e-06
-0.00370569
0.00370633
-4.3403e-06
-4.83345e-06
-0.00370695
0.00370757
-3.83211e-06
-4.34464e-06
-0.00370816
0.00370873
-3.35631e-06
-3.85429e-06
-0.00370927
0.0037098
-2.94579e-06
-3.41843e-06
-0.0037103
0.00371077
-2.59578e-06
-3.04811e-06
-0.00371122
0.00371165
-2.29147e-06
-2.73063e-06
-0.00371205
0.00371244
-2.021e-06
-2.45314e-06
-0.0037128
0.00371315
-1.78025e-06
-2.20466e-06
-0.00371347
0.00371378
-1.56262e-06
-1.9845e-06
-0.00371408
0.00371436
-1.36452e-06
-1.78401e-06
-0.00371462
0.00371488
-1.18668e-06
-1.6033e-06
-0.00371511
0.00371534
-1.03015e-06
-1.4432e-06
-0.00371555
0.00371576
-8.95688e-07
-1.30488e-06
-0.00371595
0.00371613
-7.80524e-07
-1.18745e-06
-0.00371629
0.00371645
-6.76327e-07
-1.08706e-06
-0.0037476
0.00373465
3.00624e-05
-9.92187e-07
2.8372e-05
4.04762e-05
-6.42618e-05
0.00377822
-1.71212e-05
2.92981e-05
0.00376121
0.00375945
4.2974e-08
-8.94753e-08
0.0037305
0.00371746
-3.62806e-05
5.40616e-05
0.00373009
0.00371751
0.00378935
0.00377397
-0.00376283
3.5511e-05
-0.00372702
0.00376488
6.82387e-05
2.03536e-05
0.00375158
-0.00371646
-6.89133e-07
1.61882e-05
0.0037163
-0.00371613
-7.82989e-07
-1.23071e-06
0.00371595
-0.00371576
-8.76833e-07
-1.3168e-06
0.00371556
-0.00371534
-9.85802e-07
-1.4095e-06
0.00371512
-0.00371487
-1.11738e-06
-1.52237e-06
0.00371462
-0.00371435
-1.2735e-06
-1.65897e-06
0.00371406
-0.00371376
-1.45206e-06
-1.81928e-06
0.00371345
-0.00371312
-1.65032e-06
-2.00023e-06
0.00371277
-0.0037124
-1.86929e-06
-2.20064e-06
0.00371202
-0.00371161
-2.11105e-06
-2.42266e-06
0.00371118
-0.00371072
-2.38009e-06
-2.66987e-06
0.00371024
-0.00370974
-2.68012e-06
-2.94467e-06
0.0037092
-0.00370864
-3.01865e-06
-3.25491e-06
0.00370806
-0.00370744
-3.40682e-06
-3.60803e-06
0.00370681
-0.00370615
-3.85187e-06
-4.01552e-06
0.00370547
-0.00370476
-4.34812e-06
-4.47876e-06
0.00370403
-0.00370327
-4.87921e-06
-4.98519e-06
0.00370248
-0.00370164
-5.43688e-06
-5.52029e-06
0.00370077
-0.00369984
-6.03239e-06
-6.08504e-06
0.00369885
-0.00369779
-6.68396e-06
-6.69689e-06
0.0036348
-0.00359522
-7.40895e-06
-7.3807e-06
0.00355698
-0.00352883
3.10785e-05
-8.12647e-06
0.000100776
-6.50064e-05
-0.0035644
-0.00350819
8.01376e-05
8.16367e-05
-0.00372289
5.73126e-07
-0.00369353
4.64669e-05
0.00371939
0.00375074
2.705e-05
0.000162235
-0.00349978
-0.000475451
-0.00422285
-7.62551e-05
-0.00358641
1.76245e-06
-0.00369242
3.16206e-06
-0.00362835
-0.00416607
-0.000707919
0.000135012
-0.000421759
-0.00387933
-0.000312656
-0.00377518
-5.81349e-05
-0.00356419
6.33833e-05
-0.000119291
-0.00350849
0.000104325
-0.00354913
-0.00374594
-0.00338968
0.00353977
3.41123e-06
0.0035652
-0.00392845
-0.00034467
-0.000178375
-0.00364797
0.00369849
6.32211e-05
7.7524e-05
-0.00369968
0.00370078
-6.81052e-06
-7.38335e-06
-0.00370178
0.00370266
-6.28359e-06
-6.74412e-06
-0.00370346
0.00370418
-5.86867e-06
-6.30363e-06
-0.00370484
0.00370547
-5.43296e-06
-5.89685e-06
-0.00370608
0.00370667
-4.93421e-06
-5.43792e-06
-0.00370725
0.00370783
-4.40704e-06
-4.92635e-06
-0.00370839
0.00370893
-3.90465e-06
-4.41477e-06
-0.00370946
0.00370997
-3.45532e-06
-3.94588e-06
-0.00371046
0.00371092
-3.06062e-06
-3.53312e-06
-0.00371136
0.00371178
-2.71156e-06
-3.17065e-06
-0.00371218
0.00371256
-2.3995e-06
-2.84929e-06
-0.00371291
0.00371325
-2.12005e-06
-2.56148e-06
-0.00371357
0.00371388
-1.8685e-06
-2.30459e-06
-0.00371417
0.00371444
-1.64082e-06
-2.07281e-06
-0.0037147
0.00371495
-1.43586e-06
-1.8641e-06
-0.00371519
0.00371541
-1.25329e-06
-1.67768e-06
-0.00371562
0.00371582
-1.09279e-06
-1.51343e-06
-0.003716
0.00371617
-9.52753e-07
-1.3705e-06
-0.00371633
0.00371648
-8.29251e-07
-1.24658e-06
-0.00371663
0.00374739
-7.0614e-07
-1.13264e-06
-0.00375022
0.00375896
3.85222e-05
2.5543e-05
-0.00370878
0.00372466
3.05853e-05
7.11675e-05
6.35793e-05
-4.7034e-05
0.00374467
-1.45035e-05
-6.97102e-06
0.00374614
0.00376846
4.71408e-05
-3.57573e-08
0.00373112
0.00375956
6.84741e-08
-9.44419e-08
0.00373052
0.0037175
1.15244e-07
-1.52284e-07
0.00373013
0.00371753
-2.77281e-05
2.23805e-05
0.00375924
0.00376147
-1.62426e-05
2.1173e-05
0.00374581
0.00376868
0.0037773
-0.00373469
2.56268e-05
-0.00375986
0.0037378
4.32358e-05
4.44862e-05
0.00374217
-0.00373407
2.74094e-05
2.78377e-05
0.00371661
-0.00371647
-8.30422e-07
-1.27117e-06
0.00371632
-0.00371616
-9.42909e-07
-1.38029e-06
0.00371599
-0.00371581
-1.06104e-06
-1.48632e-06
0.00371561
-0.0037154
-1.19702e-06
-1.60524e-06
0.00371518
-0.00371494
-1.35596e-06
-1.74514e-06
0.00371469
-0.00371442
-1.53993e-06
-1.90909e-06
0.00371414
-0.00371385
-1.74791e-06
-2.09768e-06
0.00371354
-0.00371321
-1.97816e-06
-2.30909e-06
0.00371287
-0.0037125
-2.23243e-06
-2.54296e-06
0.00371212
-0.00371172
-2.51441e-06
-2.80233e-06
0.0037113
-0.00371085
-2.82863e-06
-3.09181e-06
0.00371038
-0.00370988
-3.17886e-06
-3.41481e-06
0.00370936
-0.00370881
-3.57049e-06
-3.77646e-06
0.00370823
-0.00370763
-4.01027e-06
-4.1824e-06
0.00370701
-0.00370636
-4.50277e-06
-4.63941e-06
0.00370569
-0.00370499
-5.04437e-06
-5.14816e-06
0.00370427
-0.00370352
-5.62785e-06
-5.70208e-06
0.00370275
-0.00370193
-6.25506e-06
-6.29688e-06
0.00370107
-0.00370016
-6.9441e-06
-6.9426e-06
0.0036992
-0.00369816
-7.71762e-06
-7.66162e-06
0.00369707
-0.00369589
-8.58874e-06
-8.47442e-06
0.00369463
-0.00365398
-9.56843e-06
-9.38765e-06
0.00361423
-0.00354786
3.79637e-05
4.03824e-05
5.27547e-05
-8.47541e-05
-0.00351713
-0.00354676
5.16523e-05
5.33686e-05
-0.00361402
-0.00398435
-0.000365867
1.76471e-05
-0.00359368
0.00377265
-0.00378198
3.99216e-05
0.00376935
-3.67226e-06
4.13364e-05
-3.53597e-05
0.00373983
5.12896e-05
0.00372785
4.47754e-07
-0.00369221
1.73252e-06
-0.003691
-0.00011344
-0.00378562
3.26698e-06
-0.00368975
5.02483e-06
-0.00368851
6.97837e-06
-0.00360022
7.23777e-05
-3.83732e-05
-0.00355113
2.99277e-05
-0.00350431
-0.00369213
-0.00384036
0.00365654
-0.000160853
-0.000298874
0.000413824
-0.0040993
0.004006
-0.00416955
-0.000135321
-0.000200227
-0.0035262
0.00358774
-5.81282e-05
-4.80298e-05
-0.00365878
0.00369901
2.29905e-05
6.48257e-06
-0.0037002
0.0037013
-7.91051e-06
-8.57645e-06
-0.00370229
0.00370317
-7.16642e-06
-7.73248e-06
-0.00370395
0.00370466
-6.57181e-06
-7.08458e-06
-0.0037053
0.0037059
-6.03377e-06
-6.53658e-06
-0.00370647
0.00370703
-5.4952e-06
-6.0107e-06
-0.00370758
0.00370813
-4.95173e-06
-5.47591e-06
-0.00370866
0.00370918
-4.42861e-06
-4.94793e-06
-0.00370969
0.00371018
-3.94649e-06
-4.45225e-06
-0.00371065
0.0037111
-3.51158e-06
-4.00225e-06
-0.00371153
0.00371194
-3.12084e-06
-3.59835e-06
-0.00371232
0.00371269
-2.76916e-06
-3.23598e-06
-0.00371304
0.00371338
-2.4531e-06
-2.91042e-06
-0.00371369
0.00371399
-2.16882e-06
-2.61875e-06
-0.00371427
0.00371455
-1.91216e-06
-2.35642e-06
-0.0037148
0.00371505
-1.68053e-06
-2.12018e-06
-0.00371528
0.00371549
-1.47218e-06
-1.90782e-06
-0.0037157
0.00371589
-1.28593e-06
-1.71797e-06
-0.00371607
0.00371624
-1.12075e-06
-1.54954e-06
-0.00371639
0.00371654
-9.75232e-07
-1.40168e-06
-0.00371668
0.00371681
-8.40515e-07
-1.27072e-06
-0.0037435
0.00375698
2.50409e-05
-1.14615e-06
4.61688e-05
1.88233e-05
-4.19682e-05
0.00376781
-2.9472e-05
3.33701e-06
0.00377227
0.00375781
2.71267e-08
-7.04577e-08
0.00373116
0.00371762
9.18988e-08
-9.91784e-08
0.00373053
0.00371752
1.04866e-07
-1.28781e-07
0.00373015
0.00371753
-4.36861e-05
3.2766e-05
0.00377016
0.00371766
0.00376609
0.00377178
-0.00377414
2.79855e-05
-0.00376363
0.00374723
5.96283e-05
5.26459e-05
0.00374503
-0.00371678
-8.44673e-07
-1.27438e-06
0.00371665
-0.00371651
-9.68606e-07
-1.40338e-06
0.00371636
-0.00371621
-1.09707e-06
-1.52265e-06
0.00371605
-0.00371587
-1.24047e-06
-1.6508e-06
0.00371568
-0.00371547
-1.40375e-06
-1.79641e-06
0.00371525
-0.00371502
-1.58998e-06
-1.96347e-06
0.00371477
-0.00371451
-1.80142e-06
-2.15453e-06
0.00371424
-0.00371395
-2.03821e-06
-2.37093e-06
0.00371364
-0.00371332
-2.29996e-06
-2.61219e-06
0.00371298
-0.00371263
-2.58885e-06
-2.87891e-06
0.00371226
-0.00371186
-2.90975e-06
-3.17483e-06
0.00371145
-0.00371101
-3.26734e-06
-3.50511e-06
0.00371055
-0.00371006
-3.66558e-06
-3.87383e-06
0.00370955
-0.00370902
-4.10825e-06
-4.28497e-06
0.00370846
-0.00370787
-4.59957e-06
-4.7425e-06
0.00370726
-0.00370662
-5.1414e-06
-5.24992e-06
0.00370596
-0.00370527
-5.73163e-06
-5.80702e-06
0.00370456
-0.00370382
-6.36948e-06
-6.41133e-06
0.00370305
-0.00370224
-7.06504e-06
-7.06639e-06
0.00370139
-0.0037005
-7.84217e-06
-7.78967e-06
0.00369955
-0.00369854
-8.72647e-06
-8.60792e-06
0.00369747
-0.00369633
-9.73104e-06
-9.54208e-06
0.00369512
-0.00369383
-1.08633e-05
-1.05982e-05
0.00364166
-0.00359157
-1.21197e-05
-1.17858e-05
0.0035683
-0.00357242
3.40444e-05
2.83773e-05
-0.000199465
2.9425e-05
-0.00360514
-0.00366497
7.45459e-05
-4.09334e-05
-0.00353792
-0.0035138
1.59274e-05
1.0925e-06
-0.00359747
4.47756e-05
0.00372791
0.00377873
1.9793e-05
9.24485e-05
-0.00413815
-0.000123855
3.18415e-07
-0.0036908
0.000203777
-0.00421062
-3.58632e-05
-0.00367126
1.73799e-06
-0.00368947
-4.48105e-05
-0.00371139
3.40175e-06
-0.00368813
5.28679e-06
-0.00368682
7.37533e-06
-0.00364597
-2.99182e-05
-0.00356215
4.4058e-05
-4.4652e-05
-0.00353733
4.66383e-05
-0.00351638
-0.00369072
-0.00409694
0.00392892
3.26941e-05
-0.000219955
-0.00407967
0.000161475
0.00421567
-0.00411802
-0.000317606
-5.1193e-06
-0.00381667
0.00373142
-7.56024e-05
-8.79741e-05
-0.00369563
0.00364889
-1.13903e-05
-1.22397e-05
-0.00366633
0.00369946
-1.01416e-05
-1.09557e-05
-0.00370063
0.00370171
-8.99215e-06
-9.74532e-06
-0.00370269
0.00370357
-8.04469e-06
-8.70947e-06
-0.00370435
0.00370505
-7.27495e-06
-7.86482e-06
-0.00370569
0.00370628
-6.6291e-06
-7.17439e-06
-0.00370684
0.00370739
-6.04131e-06
-6.57333e-06
-0.00370792
0.00370845
-5.47572e-06
-6.00714e-06
-0.00370896
0.00370946
-4.93094e-06
-5.45942e-06
-0.00370995
0.00371042
-4.41856e-06
-4.93806e-06
-0.00371087
0.0037113
-3.94686e-06
-4.45402e-06
-0.00371172
0.00371211
-3.51761e-06
-4.01206e-06
-0.00371249
0.00371285