/*--------------------------------*- C++ -*----------------------------------*\
  =========                 |
  \\      /  F ield         | OpenFOAM: The Open Source CFD Toolbox
   \\    /   O peration     | Website:  https://openfoam.org
    \\  /    A nd           | Version:  10
     \\/     M anipulation  |
\*---------------------------------------------------------------------------*/
FoamFile
{
    format      ascii;
    class       volScalarField;
    location    "33";
    object      p;
}
// * * * * * * * * * * * * * * * * * * * * * * * * * * * * * * * * * * * * * //

dimensions      [0 2 -2 0 0 0 0];

internalField   nonuniform List<scalar> 
28942
(
-0.00362711
-0.00298762
0.00221704
0.00975258
0.010053
0.000139054
0.00039904
4.99766e-05
0.0029602
0.00304835
-0.00215015
-0.00242133
-0.00281194
-0.00272884
0.000261613
0.000630128
0.0101076
0.0103774
0.00579922
0.00735789
0.00837769
0.00837063
-0.00510841
-0.00492471
-0.00345452
-0.00367082
0.0141109
0.0140596
0.00373646
0.00368286
3.58191e-05
7.74452e-05
0.00101983
0.000432103
0.0073591
0.008567
0.0111095
0.0130727
1.81761e-05
0.0152726
0.00935527
0.011853
0.00234347
0.00229898
0.00231976
0.00038966
0.000233612
0.000312286
0.000360257
0.000509786
0.000940509
0.00308068
0.00314831
0.00308817
0.00324646
-0.00220194
-0.000900086
-0.00322655
-0.00307073
-0.00334833
-0.00342013
-0.00342105
-0.00331738
5.74696e-05
-0.00166544
-0.000180639
0.00116568
0.00965007
0.0091534
-0.00321114
-0.00342477
-0.00315544
0.00921174
0.00906483
0.00935622
-0.00131485
-0.000922375
-0.000569122
0.00255783
0.00295782
0.00203913
0.000933888
-0.0061984
-0.00743932
0.00126853
0.00400508
0.00505086
0.00584179
0.00421894
0.00434819
0.00632215
0.00569561
-0.00118049
-0.00148706
-0.00177712
-0.0016063
-0.00142113
0.00554377
0.00683942
-0.00775122
0.0115501
0.0107512
0.00604507
0.00964277
0.00114751
0.0010768
0.000967431
0.00570718
0.00589965
0.00589304
-0.00306711
-0.00298636
-0.00297575
-0.00244913
-0.00256578
0.0160663
0.0140595
0.0134985
0.0151322
0.00183562
0.00493328
0.00362553
0.00528215
0.00496047
0.0157397
0.0160342
0.0146905
0.00612868
0.00720897
0.000268618
0.000388516
0.000166163
0.0107245
0.0112293
0.00793241
0.00758474
0.0130414
0.00691148
0.00820683
0.00926983
-0.00170391
-0.00223435
0.00757706
0.0022724
0.0023325
-0.00101283
-0.00127796
-0.000801074
-0.00233771
0.00680401
0.00592918
0.00390564
0.000344863
0.000277806
0.000127734
0.000282705
0.00774457
0.00700939
-0.00166155
-0.00178429
-0.00167494
-0.00400952
-0.00354467
0.000105969
-0.0027103
-0.000346333
0.00861917
0.008727
0.00982441
0.00935923
0.00793466
0.00336414
0.00328466
0.00350785
0.00338773
0.00528023
0.00505774
0.00539112
0.00561167
0.00554758
0.00561303
0.00582284
0.0063748
0.00606981
0.00566568
0.00599524
0.00670158
0.00745266
0.00774653
-0.000329595
-0.000317946
-0.00229673
0.000294271
0.000112412
-0.00180022
-0.00189327
0.00039944
0.000458436
0.000415481
0.000344185
0.00221862
0.00219794
0.00217245
-0.00275725
-0.00295028
-0.00260261
-0.00420488
-0.00469611
-0.00399379
-0.00459136
-0.00637115
-0.00505626
0.0162603
0.0169719
0.0167387
0.00120872
0.00135603
0.00123454
0.0105783
0.0101508
0.0102312
0.00169782
0.00167644
0.00171923
0.00165513
0.001634
0.00161303
0.00161377
0.00159221
0.00159327
0.00163446
0.00165556
0.00167679
0.00169833
0.00171966
0.00157177
0.00157272
0.0017408
0.00174135
0.00176285
0.00155152
0.00155205
0.00176332
0.00153111
0.00151082
0.00153168
0.00151142
0.0017846
0.00178527
0.00149065
0.00149126
0.00180652
0.00180743
0.00147058
0.0014712
0.00182878
0.00182979
0.0014506
0.00145126
0.00185127
0.00185233
0.00143078
0.00143133
0.00187399
0.00187507
0.00141105
0.0014115
0.00189707
0.00189784
0.00139137
0.00139177
0.00192016
0.00192088
0.00137174
0.00137208
0.00194373
0.00194427
0.00135215
0.00135231
0.00196746
0.00196797
0.00133269
0.00133232
0.00199175
0.00199199
0.00131283
0.00131245
0.00201632
0.00201653
0.00129232
0.00129243
0.00199103
0.00201564
0.00204143
0.00204137
0.00194274
0.00196686
0.00189603
0.00191948
0.00185053
0.00187317
0.00180574
0.00182806
0.00176145
0.00178355
0.00171859
0.00174025
0.00167595
0.00169702
0.00163374
0.00165483
0.00159185
0.00161278
0.00155081
0.00157128
0.00151018
0.00153045
0.00147001
0.00149005
0.00143024
0.00145008
0.00139082
0.0014105
0.00135174
0.00137125
0.00131229
0.00133224
0.00129227
0.00127209
0.00127221
0.00133253
0.00129275
0.00131271
0.00137217
0.00135239
0.00141155
0.00139186
0.00145122
0.00143134
0.00149125
0.00147119
0.00153168
0.00151142
0.00157259
0.00155207
0.00161399
0.00159335
0.00165575
0.0016349
0.00169823
0.00167687
0.00174149
0.00171991
0.00178518
0.00176305
0.00182972
0.00180738
0.00187495
0.00185225
0.00192098
0.00189783
0.00196802
0.00194427
0.00201596
0.00199183
0.00204077
0.00204076
0.00127209
0.00127263
0.00206666
0.00206578
0.00206609
0.00206675
0.00198985
0.00203909
0.0020143
0.00194169
0.00196566
0.00189525
0.00191829
0.00184982
0.00187244
0.00180511
0.00182738
0.00176112
0.00178302
0.00171774
0.00173941
0.00167511
0.00169654
0.00163323
0.00165391
0.00159143
0.00161227
0.00155039
0.00157086
0.00150982
0.00153005
0.00146967
0.00148969
0.00142993
0.00144975
0.00139054
0.00141019
0.00135149
0.00137097
0.00131219
0.00133193
0.00125183
0.00125199
0.00127237
0.0012924
0.00129325
0.00127342
0.00125273
0.00125199
0.00133286
0.00131315
0.00137213
0.00135241
0.00141143
0.00139175
0.00145105
0.0014312
0.00149106
0.00147101
0.00153148
0.00151122
0.00157235
0.00155186
0.00161373
0.00159299
0.00165567
0.00163461
0.00169799
0.00167675
0.00174109
0.0017196
0.00178485
0.00176289
0.00182928
0.00180698
0.00187445
0.00185178
0.00192038
0.00189732
0.0019671
0.00194364
0.00201483
0.00199082
0.00206396
0.00203932
0.00206414
0.00209117
0.00208927
0.00209185
0.0012526
0.00125331
0.00209123
0.0020891
0.00211673
0.0021149
0.00209229
0.0012728
0.00125311
0.00123271
0.00123326
0.00208603
0.00211518
0.00214094
0.00211401
0.00203675
0.00206129
0.00198811
0.00201229
0.00194052
0.00196419
0.00189424
0.00191716
0.00184891
0.00187149
0.0018043
0.00182652
0.0017604
0.00178226
0.00171712
0.00173867
0.00167448
0.00169574
0.00163245
0.00165339
0.00159092
0.00161163
0.00154994
0.00157037
0.0015094
0.00152961
0.00146929
0.00148929
0.00142957
0.00144938
0.00139021
0.00140985
0.00135117
0.00137065
0.00131212
0.00133163
0.00129248
0.00123205
0.00123261
0.00123221
0.00123223
0.00129363
0.001254
0.00127389
0.00133296
0.00131332
0.00137195
0.00135237
0.0014112
0.00139154
0.0014508
0.00143096
0.00149078
0.00147075
0.00153117
0.00151092
0.001572
0.00155153
0.00161332
0.0015926
0.00165516
0.00163417
0.00169757
0.0016763
0.00174057
0.001719
0.00178423
0.00176233
0.00182858
0.00180632
0.00187365
0.00185102
0.00191946
0.00189647
0.00196603
0.00194266
0.00201345
0.00198961
0.00206194
0.00203752
0.00211225
0.00208675
0.00214024
0.00213763
0.00211667
0.00211748
0.00123326
0.00123405
0.00214131
0.00214224
0.00215994
0.00216304
0.00216568
0.00214216
0.00219728
0.0021177
0.00213004
0.00214514
0.00208305
0.00210828
0.00203375
0.00205822
0.00198578
0.00200953
0.00193886
0.0019623
0.00189293
0.00191579
0.00184773
0.00187024
0.00180323
0.00182539
0.00175942
0.00178124
0.00171626
0.00173776
0.0016737
0.0016949
0.00163171
0.00165264
0.00159027
0.00161093
0.00154933
0.00156974
0.00150884
0.00152903
0.00146877
0.00148876
0.0014291
0.00144889
0.00138977
0.00140939
0.00135076
0.00137023
0.00131192
0.0013313
0.00127303
0.00129251
0.00123372
0.00125338
0.00121293
0.00121385
0.00121335
0.00121253
0.00121258
0.00121296
0.00121263
0.00121415
0.00121353
0.00125453
0.00121544
0.0012349
0.00129378
0.0012742
0.00133276
0.00131329
0.00137167
0.00135218
0.00141089
0.00139124
0.00145046
0.00143063
0.00149039
0.00147038
0.00153073
0.00151051
0.00157152
0.00155107
0.00161278
0.00159209
0.00165455
0.0016336
0.00169689
0.00167565
0.00173982
0.00171828
0.00178339
0.00176152
0.00182763
0.00180542
0.00187258
0.00185002
0.00191826
0.00189533
0.00196468
0.00194138
0.00201182
0.00198816
0.00205974
0.00203569
0.00210878
0.00208408
0.00215926
0.00213375
0.00218839
0.00218447
0.00214213
0.00214307
0.00216605
0.00216713
0.00123402
0.00121441
0.00119457
0.0011952
0.00219095
0.00219118
0.00221847
0.00216123
0.00221333
0.0022098
0.00219368
0.00214283
0.00212477
0.00214411
0.00207954
0.00210325
0.00203068
0.002055
0.00198353
0.00200701
0.00193708
0.00196023
0.00189133
0.00191412
0.00184628
0.00186872
0.00180192
0.00182402
0.00175823
0.00178
0.00171518
0.00173663
0.00167273
0.00169388
0.00163083
0.00165171
0.00158946
0.00161009
0.00154859
0.00156897
0.00150816
0.00152832
0.00146815
0.00148811
0.00142852
0.00144829
0.00138924
0.00140884
0.00135028
0.00136973
0.0013116
0.00133091
0.00127297
0.00129224
0.00125347
0.00119342
0.00119413
0.00119369
0.00119326
0.00119338
0.00119361
0.00119342
0.00119396
0.00125486
0.00121565
0.00123547
0.0012937
0.00127432
0.00133244
0.0013131
0.00137131
0.00135184
0.00141049
0.00139086
0.00145001
0.00143021
0.00148989
0.0014699
0.00153018
0.00150998
0.0015709
0.00155048
0.00161209
0.00159143
0.00165379
0.00163287
0.00169603
0.00167484
0.00173886
0.00171738
0.00178232
0.00176051
0.00182644
0.0018043
0.00187124
0.00184875
0.00191675
0.00189391
0.00196298
0.00193978
0.00200991
0.00198636
0.00205748
0.00203362
0.0021057
0.00208157
0.00215479
0.00212974
0.00220571
0.00218046
0.00223494
0.00223074
0.0021678
0.00216808
0.0011945
0.00119591
0.00219231
0.00219096
0.00221015
0.00219243
0.00221584
0.0022175
0.00224117
0.00223442
0.00223835
0.00225975
0.00225644
0.00216812
0.002168
0.00222189
0.0021974
0.00212178
0.0021433
0.00207586
0.00209991
0.00202809
0.00205182
0.00198123
0.00200459
0.001935
0.00195803
0.00188945
0.00191214
0.00184459
0.00186694
0.0018004
0.00182241
0.00175685
0.00177855
0.00171393
0.00173531
0.00167158
0.00169269
0.00162979
0.00165062
0.00158852
0.00160909
0.00154772
0.00156806
0.00150737
0.00152749
0.00146743
0.00148735
0.00142786
0.0014476
0.00138864
0.00140821
0.00134973
0.00136915
0.00131111
0.00133039
0.00127265
0.00129188
0.00123397
0.00125335
0.00119472
0.00121453
0.00117453
0.0011749
0.00117461
0.00117433
0.00117437
0.00117438
0.00117431
0.00117454
0.00117447
0.00117511
0.00117477
0.00117636
0.00117564
0.00121601
0.00117703
0.00119653
0.0012549
0.00123557
0.00129349
0.00127421
0.00133205
0.00131274
0.00137087
0.00135142
0.00141
0.0013904
0.00144946
0.00142969
0.00148928
0.00146933
0.0015295
0.00150934
0.00157014
0.00154977
0.00161125
0.00159064
0.00165286
0.00163199
0.001695
0.00167386
0.00173771
0.00171629
0.00178104
0.0017593
0.001825
0.00180294
0.00186963
0.00184724
0.00191495
0.00189221
0.00196095
0.00193786
0.00200762
0.0019842
0.00205491
0.0020312
0.00210271
0.00207878
0.00215092
0.00212674
0.00219951
0.00217527
0.00224944
0.00222388
0.00228129
0.0022751
0.00219286
0.00224332
0.00221601
0.00119497
0.00117553
0.00115678
0.00115729
0.00219311
0.00221729
0.00223822
0.00224067
0.00226299
0.00228518
0.0023056
0.00229991
0.00219312
0.00221814
0.00226605
0.00226205
0.00224068
0.0021668
0.0021937
0.00211867
0.00214157
0.00207239
0.00209619
0.00202514
0.00204865
0.00197857
0.00200179
0.00193261
0.00195551
0.0018873
0.00190987
0.00184265
0.0018649
0.00179865
0.00182057
0.00175527
0.00177688
0.00171249
0.00173381
0.00167028
0.00169132
0.0016286
0.00164938
0.00158743
0.00160796
0.00154673
0.00156703
0.00150646
0.00152655
0.0014666
0.00148649
0.0014271
0.00144681
0.00138794
0.00140748
0.00134909
0.00136848
0.00131053
0.00132978
0.00127221
0.00129135
0.00123379
0.00125301
0.00121441
0.0011552
0.00115537
0.00115525
0.00115536
0.00115531
0.00115561
0.00115548
0.00115571
0.00115568
0.00115593
0.00115581
0.00115628
0.00121632
0.00117746
0.00119692
0.00125471
0.00123554
0.00129309
0.00127392
0.00133158
0.0013123
0.00137035
0.00135093
0.00140942
0.00138985
0.00144881
0.00142908
0.00148856
0.00146864
0.0015287
0.00150858
0.00156926
0.00154893
0.00161027
0.00158971
0.00165177
0.00163096
0.00169379
0.00167272
0.00173637
0.00171501
0.00177954
0.00175788
0.00182333
0.00180136
0.00186777
0.00184547
0.00191285
0.00189023
0.00195859
0.00193565
0.00200497
0.00198171
0.00205192
0.00202838
0.00209936
0.0020756
0.00214711
0.00212322
0.00219489
0.00217101
0.00224346
0.00221887
0.00229241
0.00226759
0.00226101
0.00226417
0.00232409
0.0023169
0.00221705
0.00115618
0.00115777
0.00228325
0.002218
0.0022903
0.00224124
0.00224234
0.00226588
0.0022659
0.00228833
0.00230938
0.00232947
0.00234784
0.00234108
0.00221787
0.00225544
0.00230757
0.00230346
0.00227779
0.00221166
0.00223499
0.00216313
0.00218729
0.00211496
0.00213856
0.00206855
0.00209202
0.00202178
0.00204509
0.00197556
0.0019986
0.00192992
0.00195267
0.00188489
0.00190733
0.00184048
0.00186261
0.00179668
0.00181851
0.00175349
0.00177501
0.00171088
0.00173211
0.00166881
0.00168978
0.00162727
0.00164798
0.00158622
0.00160669
0.00154562
0.00156587
0.00150545
0.00152549
0.00146567
0.00148552
0.00142625
0.00144592
0.00138717
0.00140667
0.00134839
0.00136774
0.00130988
0.0013291
0.00127163
0.00129073
0.00123349
0.00125258
0.0011951
0.00121429
0.00115639
0.0011759
0.00113631
0.0011368
0.00113648
0.00113631
0.00113622
0.00113659
0.00113643
0.00113686
0.00113675
0.00113694
0.00113693
0.00113702
0.00113694
0.00113735
0.00113711
0.00113826
0.00113767
0.00117771
0.00113883
0.00115834
0.00121626
0.00119701
0.0012544
0.00123538
0.0012926
0.00127348
0.00133105
0.00131179
0.00136975
0.00135037
0.00140875
0.00138922
0.00144807
0.00142837
0.00148774
0.00146786
0.00152779
0.00150772
0.00156825
0.00154797
0.00160915
0.00158864
0.00165053
0.00162978
0.00169241
0.00167141
0.00173484
0.00171356
0.00177784
0.00175627
0.00182144
0.00179957
0.00186565
0.00184347
0.00191048
0.00188799
0.00195594
0.00193314
0.00200197
0.00197889
0.00204855
0.0020252
0.00209555
0.00207201
0.00214283
0.00211917
0.00219011
0.00216649
0.00223721
0.00221377
0.0022842
0.00226045
0.00233182
0.00230837
0.00228419
0.00229203
0.00236308
0.0023536
0.00224216
0.00224314
0.0023249
0.0023306
0.00231328
0.00226612
0.00226754
0.00115654
0.00113732
0.00111888
0.0011194
0.00229242
0.00229088
0.00231292
0.00233334
0.00235273
0.00236977
0.00234567
0.00234033
0.00235944
0.00238511
0.00237788
0.00236889
0.00224306
0.00229881
0.00231804
0.00224935
0.002273
0.002205
0.00222829
0.00215758
0.00218102
0.00211078
0.00213417
0.00206434
0.00208756
0.00201807
0.00204116
0.00197226
0.00199511
0.00192696
0.00194954
0.00188223
0.00190452
0.00183808
0.00186008
0.00179451
0.00181622
0.00175152
0.00177295
0.00170909
0.00173024
0.00166719
0.00168808
0.00162579
0.00164643
0.00158487
0.00160527
0.00154439
0.00156458
0.00150433
0.00152431
0.00146465
0.00148444
0.00142532
0.00144494
0.00138631
0.00140578
0.00134761
0.00136693
0.00130917
0.00132836
0.00127099
0.00129005
0.00123302
0.00125198
0.00119495
0.001214
0.00117582
0.00111718
0.00111746
0.00111722
0.00111751
0.00111736
0.0011179
0.00111771
0.00111816
0.00111805
0.00111824
0.00111822
0.0011182
0.00111822
0.00111835
0.00111826
0.00111856
0.00117783
0.00113935
0.00115863
0.00121599
0.0011969
0.00125393
0.00123495
0.00129206
0.00127297
0.00133044
0.00131122
0.00136908
0.00134973
0.001408
0.0013885
0.00144723
0.00142758
0.00148681
0.00146698
0.00152676
0.00150674
0.00156711
0.00154688
0.00160789
0.00158744
0.00164913
0.00162845
0.00169087
0.00166994
0.00173313
0.00171194
0.00177594
0.00175447
0.00181932
0.00179756
0.00186329
0.00184124
0.00190785
0.0018855
0.00195299
0.00193035
0.00199866
0.00197576
0.00204482
0.00202169
0.00209134
0.00206805
0.00213808
0.0021147
0.00218479
0.00216146
0.00223114
0.00220806
0.00227676
0.00225408
0.0023211
0.00229925
0.00236682
0.00234259
0.00235242
0.00239735
0.00240725
0.00241733
0.00240807
0.00238519
0.00230766
0.00232151
0.00226763
0.0022684
0.00111801
0.00111978
0.00234035
0.00229199
0.00229269
0.00231758
0.00231577
0.00233738
0.00235744
0.0023751
0.00239056
0.00237932
0.00236916
0.00238737
0.002395
0.00241548
0.00242832
0.0023987
0.0023898
0.00237793
0.00242463
0.0024357
0.00226844
0.00233256
0.00234904
0.00228892
0.00230941
0.00224275
0.00226629
0.00219783
0.00222039
0.00215193
0.00217498
0.00210581
0.00212887
0.00205983
0.0020828
0.00201406
0.00203691
0.00196867
0.00199131
0.00192374
0.00194614
0.00187932
0.00190146
0.00183546
0.00185732
0.00179214
0.00181373
0.00174937
0.00177069
0.00170714
0.00172819
0.00166541
0.00168622
0.00162417
0.00164474
0.00158339
0.00160373
0.00154305
0.00156317
0.0015031
0.00152303
0.00146352
0.00148327
0.00142429
0.00144387
0.00138538
0.0014048
0.00134676
0.00136603
0.0013084
0.00132755
0.00127028
0.00128931
0.00123239
0.00125131
0.00119458
0.00121351
0.00115667
0.00117562
0.00111829
0.00113748
0.00109843
0.00109896
0.00109865
0.00109841
0.00109827
0.00109883
0.00109859
0.00109924
0.00109905
0.00109948
0.00109938
0.00109958
0.00109955
0.00109953
0.00109957
0.00109947
0.00109952
0.00109971
0.00109953
0.00110032
0.00109999
0.0011394
0.00110075
0.00112021
0.00117772
0.00115862
0.00121554
0.00119666
0.00125339
0.00123444
0.00129146
0.0012724
0.00132976
0.00131058
0.00136832
0.00134901
0.00140716
0.00138771
0.0014463
0.00142669
0.00148578
0.001466
0.00152562
0.00150565
0.00156585
0.00154568
0.00160649
0.00158612
0.00164759
0.00162699
0.00168916
0.00166832
0.00173124
0.00171014
0.00177385
0.00175248
0.001817
0.00179536
0.0018607
0.00183878
0.00190496
0.00188277
0.00194976
0.0019273
0.00199505
0.00197235
0.00204076
0.00201786
0.00208678
0.00206374
0.00213294
0.00210986
0.002179
0.002156
0.00222467
0.00220192
0.00226949
0.00224724
0.00231274
0.00229137
0.00235423
0.00233395
0.00237251
0.00232917
0.00234763
0.00244518
0.00243303
0.00229312
0.0022937
0.00236089
0.00231701
0.00231774
0.00111831
0.00109921
0.00108099
0.00108128
0.00234249
0.00234048
0.00236164
0.00238088
0.00239806
0.00241336
0.00240582
0.00239492
0.00241544
0.00242496
0.00242091
0.00240867
0.00239909
0.00244482
0.00245146
0.00244828
0.00246064
0.00229386
0.00236093
0.00237272
0.00232174
0.00234238
0.00227854
0.00230041
0.00223536
0.00225725
0.00219104
0.00221327
0.00214593
0.00216859
0.00210045
0.0021232
0.00205503
0.00207773
0.00200976
0.00203237
0.00196481
0.00198724
0.00192026
0.00194248
0.00187619
0.00189817
0.00183263
0.00185435
0.00178958
0.00181104
0.00174705
0.00176825
0.00170503
0.00172598
0.00166349
0.0016842
0.00162242
0.0016429
0.0015818
0.00160206
0.00154159
0.00156164
0.00150177
0.00152163
0.00146231
0.001482
0.00142318
0.00144271
0.00138437
0.00140374
0.00134583
0.00136507
0.00130756
0.00132666
0.00126952
0.00128851
0.00123169
0.00125058
0.00119406
0.00121286
0.0011564
0.00117518
0.00113743
0.00107943
0.00107969
0.00107955
0.00107972
0.00107956
0.00108022
0.00107997
0.00108061
0.00108044
0.00108085
0.00108075
0.00108095
0.00108092
0.0010809
0.00108094
0.00108074
0.00108083
0.00108067
0.0010807
0.00108074
0.0011394
0.00110109
0.00112039
0.00117739
0.00115839
0.00121501
0.00119619
0.0012528
0.00123388
0.0012908
0.00127177
0.00132902
0.00130988
0.00136749
0.00134823
0.00140624
0.00138683
0.00144528
0.00142572
0.00148465
0.00146493
0.00152437
0.00150447
0.00156447
0.00154437
0.00160497
0.00158467
0.00164591
0.00162538
0.0016873
0.00166655
0.00172918
0.00170818
0.00177156
0.00175031
0.00181447
0.00179295
0.00185789
0.00183612
0.00190183
0.0018798
0.00194627
0.00192399
0.00199115
0.00196866
0.00203639
0.00201373
0.00208188
0.00205912
0.00212744
0.00210467
0.00217282
0.00215017
0.00221772
0.00219537
0.00226172
0.00223988
0.0023042
0.0022832
0.00234437
0.00232475
0.00238148
0.00236327
0.00241885
0.00240094
0.00246209
0.00244903
0.00243147
0.00235188
0.00236909
0.00231813
0.00231884
0.00107989
0.00108179
0.00238613
0.00234188
0.0023426
0.00236704
0.00236492
0.00238549
0.00240403
0.00242024
0.00243381
0.00243052
0.00241742
0.00242927
0.00243304
0.00244367
0.00246214
0.00244366
0.00244552
0.00243693
0.00243125
0.00241796
0.00246287
0.00246957
0.00247402
0.00247397
0.00231901
0.00238712
0.0024041
0.00234954
0.00236406
0.00231028
0.00233164
0.00226978
0.00229027
0.00222751
0.00224887
0.00218396
0.00220585
0.00213958
0.00216186
0.00209479
0.00211721
0.00204994
0.00207237
0.00200519
0.00202755
0.0019607
0.00198291
0.00191656
0.00193858
0.00187285
0.00189465
0.0018296
0.00185117
0.00178683
0.00180816
0.00174456
0.00176564
0.00170276
0.0017236
0.00166142
0.00168204
0.00162054
0.00164093
0.00158008
0.00160026
0.00154002
0.00156
0.00150033
0.00152013
0.001461
0.00148063
0.00142199
0.00144146
0.00138328
0.0014026
0.00134484
0.00136403
0.00130665
0.00132572
0.0012687
0.00128765
0.00123095
0.0012498
0.00119339
0.00121215
0.00115599
0.00117467
0.00111817
0.00113708
0.00107985
0.00109921
0.00106057
0.00106059
0.00106048
0.00106071
0.00106058
0.00106113
0.00106087
0.00106165
0.00106141
0.00106202
0.00106185
0.00106225
0.00106215
0.00106235
0.00106232
0.00106232
0.00106235
0.00106215
0.00106225
0.00106192
0.00106203
0.00106202
0.00106193
0.00106268
0.00106226
0.00110125
0.00106317
0.00108228
0.00113923
0.00112034
0.0011769
0.00115808
0.00121443
0.00119564
0.00125215
0.00123327
0.00129007
0.00127109
0.00132821
0.00130911
0.00136659
0.00134737
0.00140524
0.00138588
0.00144417
0.00142467
0.00148342
0.00146376
0.00152301
0.00150318
0.00156297
0.00154295
0.00160332
0.00158309
0.00164408
0.00162365
0.00168529
0.00166463
0.00172696
0.00170607
0.00176911
0.00174797
0.00181174
0.00179037
0.00185487
0.00183325
0.00189848
0.00187662
0.00194253
0.00192045
0.00198698
0.00196471
0.00203174
0.00200933
0.00207667
0.0020542
0.00212161
0.00209916
0.0021663
0.00214401
0.00221041
0.00218846
0.00225353
0.00223213
0.00229508
0.00227455
0.00233439
0.0023151
0.00237065
0.00235296
0.00240315
0.00238772
0.00241599
0.00237519
0.00239391
0.00247266
0.00245917
0.00234296
0.00234378
0.00240806
0.00236644
0.0023672
0.00108003
0.00106103
0.00104357
0.00104388
0.00239121
0.002389
0.00240888
0.00242654
0.00244165
0.00245393
0.00243965
0.0024241
0.00243284
0.00245057
0.00245643
0.00245907
0.00245754
0.00244764
0.00244001
0.00248044
0.0024847
0.00248539
0.00248442
0.00246263
0.00247519
0.00234394
0.00240414
0.00241288
0.00237226
0.00239047
0.00233679
0.00235471
0.00230016
0.00231907
0.00226075
0.00228073
0.00221931
0.00224025
0.00217656
0.00219807
0.00213294
0.00215484
0.00208885
0.00211093
0.00204459
0.00206673
0.00200038
0.00202247
0.00195635
0.00197834
0.00191264
0.00193446
0.0018693
0.00189092
0.00182638
0.00184779
0.00178391
0.00180509
0.0017419
0.00176285
0.00170034
0.00172107
0.00165922
0.00167973
0.00161853
0.00163883
0.00157824
0.00159834
0.00153834
0.00155825
0.0014988
0.00151853
0.0014596
0.00147916
0.00142071
0.00144012
0.00138211
0.00140138
0.00134378
0.00136292
0.00130569
0.00132471
0.00126782
0.00128673
0.00123016
0.00124897
0.00119267
0.00121139
0.00115536
0.001174
0.00111788
0.00113664
0.00109896
0.00104161
0.00104154
0.00104152
0.00104207
0.00104186
0.00104262
0.00104234
0.00104311
0.00104289
0.00104346
0.0010433
0.00104369
0.00104359
0.00104379
0.00104375
0.00104377
0.00104379
0.00104363
0.00104371
0.00104338
0.00104351
0.0010432
0.00104329
0.00104326
0.00110133
0.00106343
0.00108259
0.00113893
0.00112017
0.00117635
0.00115766
0.00121381
0.00119506
0.00125145
0.00123261
0.00128929
0.00127035
0.00132734
0.00130829
0.00136562
0.00134645
0.00140416
0.00138486
0.00144298
0.00142353
0.0014821
0.0014625
0.00152155
0.00150179
0.00156136
0.00154141
0.00160154
0.0015814
0.00164213
0.00162179
0.00168313
0.00166258
0.00172458
0.0017038
0.00176648
0.00174547
0.00180883
0.0017876
0.00185165
0.00183019
0.0018949
0.00187323
0.00193856
0.00191669
0.00198257
0.00196053
0.00202682
0.00200467
0.00207119
0.00204901
0.00211549
0.00209337
0.00215947
0.00213755
0.00220279
0.00218124
0.00224502
0.00222408
0.00228563
0.00226557
0.00232395
0.00230513
0.00235931
0.00234204
0.00239048
0.00237557
0.00241668
0.00240424
0.00244124
0.00242755
0.00246964
0.00245324
0.00244507
0.00239805
0.00241675
0.00236756
0.00236847
0.001042
0.00104431
0.00242909
0.00239067
0.00239146
0.00241486
0.00241265
0.00243174
0.00244835
0.0024622
0.00247299
0.00244228
0.00242699
0.00242991
0.00243762
0.00243837
0.00245525
0.00244878
0.00246106
0.00246695
0.00247244
0.00247166
0.00246841
0.00245913
0.00249641
0.0024982
0.00249601
0.00249135
0.00248161
0.00247109
0.00236864
0.00241512
0.00242339
0.00238957
0.00239595
0.00235795
0.00237664
0.00232553
0.00234204
0.00228991
0.00230816
0.00225137
0.00227094
0.00221083
0.00223132
0.0021689
0.00219001
0.00212605
0.00214757
0.00208264
0.0021044
0.002039
0.00206084
0.00199533
0.00201716
0.00195179
0.00197354
0.00190851
0.00193012
0.00186556
0.00188699
0.00182299
0.00184423
0.00178083
0.00180186
0.00173909
0.00175991
0.00169778
0.00171839
0.00165689
0.00167728
0.0016164
0.0016366
0.0015763
0.0015963
0.00153657
0.00155639
0.00149718
0.00151683
0.00145812
0.00147761
0.00141936
0.00143871
0.00138088
0.00140009
0.00134266
0.00136174
0.00130467
0.00132364
0.00126689
0.00128576
0.00122932
0.00124808
0.00119191
0.0012106
0.00115467
0.00117327
0.00111747
0.00113609
0.00108004
0.00109872
0.00104211
0.00106121
0.00102279
0.0010229
0.00102279
0.00102305
0.00102284
0.00102358
0.00102329
0.00102414
0.00102387
0.00102459
0.00102438
0.00102493
0.00102478
0.00102515
0.00102505
0.00102526
0.00102522
0.00102525
0.00102526
0.00102512
0.0010252
0.00102488
0.00102502
0.00102458
0.00102473
0.00102465
0.00102456
0.0010254
0.00102493
0.00106359
0.00102582
0.00104475
0.0011012
0.00108251
0.00113852
0.00111983
0.00117576
0.00115713
0.00121315
0.00119444
0.00125071
0.00123191
0.00128845
0.00126955
0.0013264
0.0013074
0.00136458
0.00134546
0.001403
0.00138376
0.0014417
0.00142232
0.00148069
0.00146116
0.00152
0.0015003
0.00155964
0.00153978
0.00159965
0.0015796
0.00164004
0.0016198
0.00168084
0.00166039
0.00172205
0.00170139
0.00176368
0.00174281
0.00180575
0.00178467
0.00184824
0.00182695
0.00189113
0.00186964
0.00193438
0.00191272
0.00197792
0.00195613
0.00202166
0.00199978
0.00206546
0.00204357
0.00210911
0.00208732
0.00215237
0.00213082
0.0021949
0.00217376
0.00223627
0.00221577
0.00227594
0.00225636
0.00231327
0.00229495
0.00234759
0.00233086
0.0023779
0.00236334
0.00240309
0.00239127
0.00242261
0.00241375
0.00242849
0.00242049
0.00243883
0.00245885
0.00244445
0.00239186
0.00239283
0.0024502
0.00241444
0.00241529
0.00104212
0.00102332
0.00100643
0.00100686
0.00243796
0.00243577
0.00245391
0.00246934
0.00248176
0.0024909
0.00243565
0.00242042
0.00241668
0.00243221
0.00245713
0.00246673
0.00247858
0.00247993
0.00248534
0.00248324
0.00247769
0.00251079
0.00251004
0.00250564
0.00249567
0.0024861
0.0024715
0.0024398
0.00245417
0.00239301
0.00241346
0.00240938
0.00239977
0.00241017
0.00237412
0.00238343
0.00234555
0.00236166
0.00231422
0.0023302
0.00227941
0.00229725
0.00224179
0.0022609
0.00220214
0.00222219
0.00216103
0.00218174
0.00211893
0.00214009
0.00207621
0.00209763
0.00203319
0.00205473
0.00199007
0.00201163
0.00194703
0.00196853
0.00190419
0.00192558
0.00186164
0.00188288
0.00181942
0.00184049
0.00177758
0.00179846
0.00173614
0.00175681
0.00169508
0.00171556
0.00165443
0.00167471
0.00161415
0.00163424
0.00157425
0.00159416
0.00153469
0.00155443
0.00149547
0.00151504
0.00145655
0.00147597
0.00141793
0.00143721
0.00137958
0.00139872
0.00134147
0.00136049
0.00130359
0.0013225
0.00126591
0.00128473
0.00122843
0.00124715
0.00119111
0.00120975
0.00115395
0.00117251
0.00111692
0.00113543
0.00107974
0.00109829
0.00106101
0.00100405
0.00100399
0.00100397
0.00100456
0.00100431
0.00100516
0.00100486
0.00100569
0.00100543
0.00100611
0.00100591
0.00100643
0.00100628
0.00100664
0.00100655
0.00100675
0.00100671
0.00100675
0.00100676
0.00100665
0.00100671
0.00100644
0.00100656
0.00100614
0.00100629
0.00100597
0.00100605
0.0010061
0.00106369
0.00102621
0.00104496
0.00110092
0.00108228
0.00113798
0.00111944
0.00117513
0.00115654
0.00121244
0.00119377
0.00124991
0.00123115
0.00128755
0.00126871
0.0013254
0.00130645
0.00136347
0.00134441
0.00140177
0.00138259
0.00144034
0.00142102
0.00147919
0.00145973
0.00151834
0.00149873
0.00155782
0.00153804
0.00159764
0.00157769
0.00163783
0.0016177
0.00167841
0.00165807
0.00171937
0.00169884
0.00176074
0.00174001
0.0018025
0.00178157
0.00184465
0.00182353
0.00188717
0.00186587
0.00193
0.00190855
0.00197307
0.00195152
0.00201629
0.00199468
0.0020595
0.00203791
0.00210251
0.00208105
0.00214505
0.00212386
0.0021868
0.00216606
0.00222731
0.00220725
0.00226608
0.00224696
0.00230246
0.00228462
0.00233577
0.00231956
0.00236511
0.00235101
0.00238957
0.00237801
0.00240801
0.00239973
0.00241942
0.00241462
0.00242773
0.0024214
0.00243304
0.00241942
0.00242425
0.00244228
0.00245981
0.00241574
0.00241677
0.00100439
0.0010071
0.00247024
0.00243766
0.0024386
0.00246041
0.00245823
0.00247527
0.00248935
0.00250018
0.00250741
0.00241153
0.0024022
0.00239942
0.00242193
0.00243788
0.00245512
0.00247519
0.00248265
0.00249275
0.00249534
0.00249667
0.00249356
0.00252339
0.00252012
0.00251262
0.00250186
0.00248679
0.00246791
0.00244675
0.00240436
0.00241775
0.00240073
0.00241697
0.00240863
0.0023972
0.00239622
0.00239924
0.00238289
0.00239162
0.00235923
0.00237141
0.0023333
0.00234709
0.00230276
0.00231847
0.0022688
0.00228618
0.00223208
0.00225074
0.00219329
0.00221291
0.00215298
0.0021733
0.00211163
0.00213242
0.00206959
0.00209068
0.00202718
0.00204842
0.00198462
0.00200591
0.00194208
0.00196334
0.0018997
0.00192087
0.00185755
0.00187859
0.0018157
0.00183659
0.00177419
0.00179491
0.00173304
0.00175357
0.00169226
0.00171261
0.00165185
0.00167201
0.00161179
0.00163178
0.00157209
0.0015919
0.00153272
0.00155236
0.00149366
0.00151315
0.00145491
0.00147425
0.00141643
0.00143564
0.00137821
0.00139729
0.00134022
0.00135919
0.00130245
0.00132131
0.00126488
0.00128365
0.0012275
0.00124617
0.00119027
0.00120887
0.0011532
0.00117172
0.00111625
0.00113471
0.00107929
0.00109774
0.00104222
0.0010608
0.00100445
0.00102342
0.000985349
0.000985408
0.000985329
0.000985605
0.0009854
0.000986164
0.000985856
0.000986755
0.000986472
0.000987249
0.000987014
0.00098765
0.000987461
0.000987955
0.000987814
0.000988161
0.00098807
0.00098827
0.000988228
0.00098828
0.000988287
0.000988195
0.000988249
0.000988015
0.000988117
0.000987732
0.000987888
0.000987486
0.000987575
0.000987567
0.000987436
0.000988197
0.000987773
0.00102618
0.000988543
0.00100738