/*--------------------------------*- C++ -*----------------------------------*\
  =========                 |
  \\      /  F ield         | OpenFOAM: The Open Source CFD Toolbox
   \\    /   O peration     | Website:  https://openfoam.org
    \\  /    A nd           | Version:  10
     \\/     M anipulation  |
\*---------------------------------------------------------------------------*/
FoamFile
{
    format      ascii;
    class       volScalarField;
    location    "26";
    object      p;
}
// * * * * * * * * * * * * * * * * * * * * * * * * * * * * * * * * * * * * * //

dimensions      [0 2 -2 0 0 0 0];

internalField   nonuniform List<scalar> 
33313
(
0.000244543
-0.00126078
-0.00264329
-0.00518372
0.00572742
0.00527242
0.00374127
0.0122918
0.0117326
-0.000208103
0.00356191
-0.400348
-0.389561
-0.397756
-0.100029
-0.125637
-0.0971022
-0.348266
-0.468319
-0.393996
-0.289206
0.808513
0.734387
0.87368
0.863917
0.269157
0.274442
0.276806
0.241654
0.232501
0.243926
0.292336
0.276064
-0.598132
-0.612967
-0.59919
-0.576101
0.030713
0.0262256
-0.200886
-0.172567
0.283058
0.26873
-0.578567
-0.465691
-0.484493
0.783156
0.850601
0.000478709
0.00300489
0.240381
0.269035
0.295977
0.34285
0.235195
0.267
0.482817
0.59975
0.368595
0.272811
0.511882
0.838998
0.910538
0.941279
-0.000448359
-0.0177096
-0.00129991
-0.162283
-0.15945
-0.744019
-0.734778
-0.712001
-0.528693
-0.241365
-0.693791
-0.694291
-0.599383
-0.637996
-0.113883
-0.165649
0.565401
0.555631
0.574269
-0.313708
-0.364237
-0.434505
-0.526506
-0.508263
-0.504555
0.927243
-0.561901
-0.558583
-0.549416
-0.544786
-0.561776
0.228571
0.217744
0.00929247
0.00712771
-0.258214
-0.243586
-0.320372
-0.354619
-0.359108
-0.396595
-0.623265
-0.671331
-0.655936
-0.618604
-0.159722
0.0499241
-0.0293154
-0.175988
-0.855259
-0.979338
-0.785674
0.924149
0.894424
-0.343495
-0.327727
-0.544645
-0.553086
-0.553337
-0.00034961
0.00119732
-0.0148691
0.398133
0.0438399
0.043635
-0.399008
-0.372082
-0.60946
-0.594055
0.161624
0.132503
0.00815251
0.0902122
-0.209312
-0.12025
0.121337
-0.000340994
0.242773
0.0478132
0.0485691
0.0437978
0.0686407
0.0652019
0.0634107
0.0606023
0.307368
0.287332
0.319401
0.303808
0.456621
0.462153
0.433826
0.438474
-0.684256
-0.733665
-0.731845
-0.58999
0.169118
0.210914
0.320318
0.232541
-0.471488
-0.428173
-0.422488
-0.523534
0.0034504
0.00454395
0.0839444
0.0823649
0.1222
0.120814
0.269551
0.252992
-0.296732
-0.268691
0.132159
0.130578
0.0957352
0.0931864
0.18727
0.188547
-0.578966
-0.553656
-0.241671
-0.210228
-0.304014
-0.715616
0.560006
0.535297
-0.313083
-0.315048
0.450171
0.471769
0.477385
0.345976
0.361414
0.343154
0.57906
0.556442
0.224506
0.230198
-0.42695
-0.450136
-0.265788
-0.386837
0.243603
0.238766
0.0047895
0.0074072
0.00484402
0.00298089
-0.0976589
-0.390136
-0.387964
0.378162
0.380995
0.361711
0.357125
-0.300273
-0.297331
-0.271862
0.213123
0.233403
0.205364
-0.474689
-0.469564
-0.475819
-0.227393
-0.179867
0.0862584
0.123931
0.122613
-0.645135
0.242556
-0.0874088
-0.0816182
-0.0780243
-0.0761229
-0.0752677
-0.0754533
-0.0768774
-0.0794944
-0.0832488
-0.0881515
-0.0943136
-0.101816
-0.110745
-0.12104
-0.132611
-0.145113
-0.158201
-0.171235
-0.183703
-0.194825
-0.20412
-0.210906
-0.214949
-0.215769
-0.213716
-0.208615
-0.200911
-0.190981
-0.180124
-0.167216
-0.154177
-0.141313
-0.0843569
-0.0934185
-0.0905258
-0.094212
-0.117684
-0.128769
-0.163093
-0.136288
-0.149368
-0.190793
-0.176942
-0.214861
-0.203774
-0.229197
-0.223605
-0.230169
-0.231477
-0.217739
-0.225519
-0.194913
-0.207319
-0.166875
-0.181187
-0.139049
-0.152635
-0.1154
-0.126545
-0.0975908
-0.105748
-0.0854588
-0.0908687
-0.0781864
-0.0812577
-0.0756566
-0.0762893
-0.0779059
-0.0762003
-0.0803473
-0.101135
-0.0979973
-0.125331
-0.102747
-0.112067
-0.107804
-0.11047
-0.106636
-0.115668
-0.11162
-0.113002
-0.102515
-0.117083
-0.125118
-0.121626
-0.0940081
-0.11391
-0.102978
-0.0814476
-0.0869294
-0.0745574
-0.0772506
-0.0728968
-0.073166
-0.0758563
-0.0738094
-0.083239
-0.0789973
-0.0953602
-0.0886648
-0.112751
-0.103397
-0.134772
-0.123303
-0.158721
-0.146757
-0.180201
-0.170074
-0.194577
-0.188527
-0.198583
-0.197997
-0.191324
-0.196299
-0.175282
-0.183666
-0.154499
-0.16514
-0.131806
-0.143165
-0.121088
-0.104236
-0.094424
-0.0998259
-0.142236
-0.118454
-0.129803
-0.169632
-0.155296
-0.198845
-0.184577
-0.223802
-0.212094
-0.238673
-0.232856
-0.239453
-0.240901
-0.226181
-0.234444
-0.201966
-0.215125
-0.172263
-0.187421
-0.142833
-0.157198
-0.117846
-0.129624
-0.0989713
-0.107631
-0.0859798
-0.0917965
-0.0779658
-0.0814053
-0.0745281
-0.0756482
-0.0759716
-0.0747357
-0.0813377
-0.0780541
-0.0934415
-0.0866502
-0.11105
-0.101856
-0.10743
-0.126896
-0.129098
-0.122083
-0.0885118
-0.0885062
-0.0831283
-0.139087
-0.120273
-0.109176
-0.110191
-0.14179
-0.134804
-0.113431
-0.142028
-0.126736
-0.0926915
-0.101945
-0.0795752
-0.0853356
-0.072129
-0.0751754
-0.0697552
-0.0703613
-0.0718595
-0.0702671
-0.0782265
-0.0745133
-0.0890699
-0.0830572
-0.104802
-0.0963254
-0.124822
-0.114387
-0.146615
-0.135728
-0.166111
-0.156928
-0.179043
-0.173623
-0.182431
-0.182025
-0.175537
-0.1802
-0.160456
-0.168565
-0.141345
-0.150987
-0.121345
-0.131308
-0.103484
-0.112023
-0.0954652
-0.0971596
-0.0932603
-0.101373
-0.099973
-0.145188
-0.13216
-0.174166
-0.159308
-0.204687
-0.189565
-0.230425
-0.218537
-0.245436
-0.239599
-0.245817
-0.247538
-0.231664
-0.240395
-0.206414
-0.220105
-0.175603
-0.191319
-0.145061
-0.159979
-0.119029
-0.131318
-0.0992145
-0.108332
-0.0853682
-0.0916028
-0.0765664
-0.0803939
-0.0722406
-0.0738401
-0.072616
-0.0718566
-0.0774439
-0.0744892
-0.0878416
-0.0818564
-0.103686
-0.0952511
-0.134183
-0.124354
-0.113489
-0.158213
-0.159074
-0.154708
-0.14255
-0.101826
-0.13605
-0.147365
-0.0839455
-0.0789573
-0.0819539
-0.17562
-0.177536
-0.0771872
-0.149398
-0.140391
-0.176576
-0.157674
-0.111187
-0.124795
-0.0900873
-0.099652
-0.0764798
-0.0824697
-0.0686171
-0.0719001
-0.0656703
-0.0665784
-0.0670096
-0.065829
-0.0723832
-0.0691966
-0.0819329
-0.0766116
-0.0959988
-0.0884014
-0.11403
-0.104622
-0.133678
-0.123868
-0.151159
-0.142944
-0.162602
-0.157835
-0.165406
-0.16516
-0.159065
-0.163293
-0.145521
-0.152884
-0.128306
-0.137094
-0.110441
-0.119288
-0.094738
-0.102301
-0.0879172
-0.0913806
-0.0881056
-0.0947759
-0.093665
-0.120552
-0.101241
-0.110005
-0.146147
-0.132674
-0.176418
-0.160865
-0.207766
-0.192239
-0.234194
-0.222042
-0.249246
-0.243449
-0.249224
-0.251191
-0.23432
-0.243459
-0.208214
-0.222331
-0.176616
-0.192713
-0.145373
-0.160634
-0.118664
-0.131291
-0.0981618
-0.107626
-0.0835963
-0.0901955
-0.0740479
-0.0782501
-0.0688937
-0.0709345
-0.0681724
-0.0679658
-0.0720745
-0.0695498
-0.0809438
-0.075844
-0.0950203
-0.0874601
-0.113435
-0.103797
-0.147883
-0.133981
-0.12364
-0.0948787
-0.196385
-0.196136
-0.171207
-0.157163
-0.0733931
-0.143826
-0.118511
-0.127142
-0.193482
-0.160842
-0.159457
-0.21474
-0.0994642
-0.0939102
-0.0919183
-0.21547
-0.16532
-0.173205
-0.213635
-0.193284
-0.136677
-0.154173
-0.107367
-0.120999
-0.0862081
-0.0958203
-0.0723135
-0.07845
-0.0641718
-0.0676063
-0.0607543
-0.0619217
-0.0614058
-0.0606004
-0.065828
-0.0631519
-0.0741015
-0.069465
-0.0864944
-0.0797831
-0.102515
-0.0941442
-0.120023
-0.111281
-0.135555
-0.128268
-0.145617
-0.141447
-0.147941
-0.147806
-0.142239
-0.14601
-0.130255
-0.136817
-0.115019
-0.122841
-0.0993743
-0.10709
-0.0856298
-0.0921775
-0.0748824
-0.0798348
-0.0673082
-0.0706916
-0.0803245
-0.0705372
-0.0757531
-0.0868909
-0.084066
-0.0895346
-0.0887446
-0.0879898
-0.089315
-0.119312
-0.108541
-0.14534
-0.131575
-0.176328
-0.160396
-0.208292
-0.192545
-0.234941
-0.222715
-0.249841
-0.244163
-0.249399
-0.251596
-0.233977
-0.243381
-0.207357
-0.221725
-0.175318
-0.191625
-0.14371
-0.159147
-0.116643
-0.129454
-0.0957148
-0.105403
-0.0806163
-0.087497
-0.070419
-0.0749586
-0.064491
-0.0669416
-0.0627124
-0.0630744
-0.0653673
-0.0634651
-0.0728172
-0.0684769
-0.0849702
-0.0783808
-0.100876
-0.0926135
-0.109666
-0.152692
-0.134655
-0.0648127
-0.233625
-0.23205
-0.188488
-0.172165
-0.0857435
-0.211145
-0.173918
-0.232204
-0.169771
-0.140703
-0.159738
-0.248549
-0.0608012
-0.0586986
-0.247681
-0.181539
-0.20789
-0.243573
-0.227021
-0.167583
-0.187755
-0.130968
-0.148436
-0.101989
-0.115486
-0.0810703
-0.0905645
-0.067204
-0.0733529
-0.0589177
-0.0624456
-0.0551357
-0.056515
-0.0551797
-0.0547105
-0.0587123
-0.0565187
-0.0657572
-0.0617822
-0.0765259
-0.0706757
-0.0905912
-0.0832288
-0.106028
-0.0983183
-0.119692
-0.113291
-0.128458
-0.124842
-0.130381
-0.130323
-0.125298
-0.128641
-0.114788
-0.120554
-0.101482
-0.108312
-0.0879532
-0.0946097
-0.0761582
-0.0817457
-0.0671137
-0.0712287
-0.0636404
-0.0685146
-0.0571711
-0.0630821
-0.077644
-0.0734205
-0.0835589
-0.0810496
-0.0854911
-0.0850353
-0.0833899
-0.084948
-0.0809137
-0.0965355
-0.0825668
-0.0888549
-0.116486
-0.105728
-0.142716
-0.128837
-0.173968
-0.157903
-0.20612
-0.190305
-0.232648
-0.22052
-0.247183
-0.24171
-0.246304
-0.248716
-0.230552
-0.2401
-0.203788
-0.218205
-0.171745
-0.188043
-0.140161
-0.15559
-0.113043
-0.125893
-0.0919237
-0.101728
-0.0764665
-0.0835483
-0.065734
-0.070563
-0.0590908
-0.0619233
-0.0563484
-0.0572308
-0.0577011
-0.0564899
-0.0635369
-0.0600451
-0.0737833
-0.0681581
-0.0875038
-0.0802853
-0.102657
-0.0950894
-0.116209
-0.109836
-0.144666
-0.123709
-0.12106
-0.259825
-0.255428
-0.205494
-0.186764
-0.124497
-0.147013
-0.22803
-0.185712
-0.24686
-0.177998
-0.0566332
-0.0510846
-0.0507095
-0.260367
-0.164083
-0.266518
-0.077557
-0.262168
-0.197473
-0.235405
-0.255273
-0.247852
-0.199725
-0.219042
-0.159372
-0.179377
-0.123382
-0.140551
-0.0951471
-0.108235
-0.074856
-0.0840745
-0.0612712
-0.0673203
-0.0529871
-0.0565452
-0.048946
-0.0504876
-0.0484676
-0.0482933
-0.0511865
-0.0494387
-0.0570721
-0.053724
-0.0662886
-0.061263
-0.0784799
-0.0720835
-0.0919484
-0.0852161
-0.103866
-0.0982897
-0.111449
-0.108335
-0.113029
-0.113028
-0.108544
-0.111478
-0.0994273
-0.104425
-0.08797
-0.0938413
-0.0764117
-0.0820863
-0.0663975
-0.0711361
-0.0588551
-0.0622648
-0.0538931
-0.0560604
-0.0522009
-0.0673756
-0.0621818
-0.0758914
-0.0719731
-0.0812132
-0.0790104
-0.082572
-0.0824115
-0.0799579
-0.0817503
-0.0784693
-0.0733769
-0.0736847
-0.077236
-0.0924263
-0.0847665
-0.112217
-0.101531
-0.138335
-0.124516
-0.169438
-0.153457
-0.201311
-0.185656
-0.227372
-0.2155
-0.241347
-0.236152
-0.24004
-0.242636
-0.224158
-0.233729
-0.197587
-0.211871
-0.165959
-0.182033
-0.134811
-0.150032
-0.107973
-0.12071
-0.086896
-0.0967093
-0.0712432
-0.0784512
-0.0600921
-0.0651578
-0.0528059
-0.0559884
-0.0491774
-0.0505363
-0.0493094
-0.0487577
-0.0535013
-0.0508846
-0.061767
-0.0571555
-0.0732611
-0.0672111
-0.0859542
-0.0795805
-0.0968597
-0.0919264
-0.102509
-0.100318
-0.121948
-0.0998599
-0.10246
-0.262673
-0.258687
-0.144072
-0.117128
-0.0955045
-0.221427
-0.2
-0.24231
-0.195205
-0.0568391
-0.0510924
-0.258285
-0.183395
-0.26731
-0.164308
-0.267998
-0.069411
-0.253544
-0.259959
-0.139055
-0.110639
-0.0894646
-0.244125
-0.243763
-0.0446957
-0.0445679
-0.23434
-0.212202
-0.244721
-0.247559
-0.224067
-0.23675
-0.188481
-0.207482
-0.148807
-0.168416
-0.114083
-0.130549
-0.0871447
-0.099617
-0.0677584
-0.0765801
-0.0546571
-0.0605125
-0.046514
-0.0500399
-0.0423184
-0.0439728
-0.0414055
-0.0414834
-0.043395
-0.0420511
-0.048209
-0.045443
-0.0559719
-0.05172
-0.066401
-0.0609128
-0.0780297
-0.0722083
-0.0883415
-0.0835189
-0.0948593
-0.0921933
-0.096153
-0.0961891
-0.0922439
-0.0947888
-0.0844249
-0.088704
-0.0746794
-0.0796642
-0.0649264
-0.0697032
-0.0565604
-0.0605072
-0.0503586
-0.0531547
-0.0465679
-0.0481868
-0.0453959
-0.0671381
-0.0622219
-0.0751253
-0.0714702
-0.0798448
-0.0779456
-0.0806855
-0.0807646
-0.0775815
-0.0796223
-0.0709305
-0.0746709
-0.0689121
-0.0823009
-0.0628931
-0.0664726
-0.0734736
-0.0644459
-0.0684274
-0.0871686
-0.0796646
-0.106612
-0.0961136
-0.132286
-0.118702
-0.162831
-0.147143
-0.194014
-0.178721
-0.219282
-0.207813
-0.23253
-0.227674
-0.230818
-0.233562
-0.21501
-0.224482
-0.188961
-0.202936
-0.158125
-0.173784
-0.127786
-0.142617
-0.101543
-0.11402
-0.0807432
-0.0904593
-0.0650585
-0.0723179
-0.0536092
-0.0588555
-0.0457705
-0.0492612
-0.0413293
-0.0431278
-0.0403423
-0.0403945
-0.0430013
-0.0412075
-0.0493151
-0.0457229
-0.0585869
-0.0536721
-0.0690099
-0.0637902
-0.0777903
-0.0738234
-0.0819077
-0.0806644
-0.0785571
-0.0811338
-0.074345
-0.234987
-0.210961
-0.0450224
-0.253309
-0.20171
-0.264805
-0.185216
-0.269864
-0.16372
-0.2643
-0.251138
-0.220557
-0.23008
-0.131526
-0.102416
-0.0562959
-0.0745127
-0.0614248
-0.203087
-0.208549
-0.0588109
-0.0558116
-0.191318
-0.224538
-0.231116
-0.222408
-0.230929
-0.234029
-0.209474
-0.222345
-0.174362
-0.19295
-0.136326
-0.155035
-0.103533
-0.11904
-0.0782158
-0.089935
-0.0599588
-0.0682787
-0.0475139
-0.0530953
-0.0396373
-0.0430733
-0.0353855
-0.0371056
-0.0341254
-0.0344122
-0.0354746
-0.034489
-0.0393167
-0.0370812
-0.0457412
-0.0422035
-0.0545378
-0.0498912
-0.0644704
-0.0594863
-0.0733244
-0.0691826
-0.0789001
-0.0766262
-0.0799667
-0.0800199
-0.0766004
-0.0787828
-0.0699629
-0.0735876
-0.0617655
-0.0659494
-0.0536432
-0.0576093
-0.0467759
-0.05
-0.041822
-0.0440325
-0.0389611
-0.0401321
-0.0380432
-0.0382868
-0.0387552
-0.038171
-0.0577307
-0.0460523
-0.0520774
-0.0677526
-0.0629896
-0.0752913
-0.0718803
-0.0794615
-0.0778392
-0.0797756
-0.0801105
-0.0762138
-0.078469
-0.069161
-0.0730809
-0.0593332
-0.0645416
-0.0676141
-0.0627159
-0.0809021
-0.0736108
-0.0998038
-0.0896089
-0.124719
-0.11154
-0.154328
-0.139128
-0.18445
-0.169699
-0.208642
-0.197701
-0.221029
-0.216559
-0.218948
-0.221802
-0.203408
-0.212666
-0.178185
-0.19169
-0.148483
-0.163556
-0.119275
-0.13356
-0.0939026
-0.105988
-0.0735927
-0.0831122
-0.0580348
-0.0652721
-0.0464103
-0.0517789
-0.0381232
-0.041872
-0.0329593
-0.0351538
-0.0309548
-0.0315554
-0.0322372
-0.031181
-0.0367756
-0.0341187
-0.043978
-0.0401191
-0.0522961
-0.0481289
-0.0592558
-0.0561239
-0.062309
-0.0614265
-0.0588764
-0.0613198
-0.0502368
-0.0549671
-0.0393892
-0.0447422
-0.0498761
-0.0341457
-0.0398418
-0.245113
-0.218768
-0.0535991
-0.25948
-0.204688
-0.265413
-0.184068
-0.265389
-0.159054
-0.255367
-0.237396
-0.212654
-0.171792
-0.183148
-0.122156
-0.0931838
-0.0666243
-0.0441312
-0.0295541
-0.150726
-0.158826
-0.0323344
-0.0334437
-0.137847
-0.233515
-0.195221
-0.178372
-0.215964
-0.208055
-0.214202
-0.218097
-0.192158
-0.205341
-0.158148
-0.176037
-0.122445
-0.139923
-0.0919991
-0.106372
-0.0685801
-0.0794195
-0.0516456
-0.0593758
-0.0399956
-0.0452388
-0.0324917
-0.0357879
-0.0282724
-0.0300151
-0.0267493
-0.0272031
-0.0275491
-0.0268749
-0.0305263
-0.0287655
-0.0357391
-0.0328499
-0.0430447
-0.0391676
-0.0514314
-0.0472088
-0.0589772
-0.0554427
-0.0637304
-0.0617951
-0.0646222
-0.0646768
-0.0617572
-0.0636092
-0.0561766
-0.0592169
-0.0493562
-0.0528277
-0.0426853
-0.0459299
-0.0371532
-0.0397336
-0.033293
-0.0349945
-0.0312826
-0.0320467
-0.031058
-0.0309391
-0.0315415
-0.0475814
-0.0349825
-0.041337
-0.059281
-0.0535981
-0.0691507
-0.0644665
-0.076348
-0.0731453
-0.0800475
-0.0786658
-0.079858
-0.0804476
-0.0758125
-0.078297
-0.0683316
-0.0724663
-0.0581131
-0.0635156
-0.0161351
-0.0258764
-0.0134989
-0.0522314
-0.0525802
-0.0474736
-0.0496509
-0.0609996
-0.0563112
-0.0738117
-0.0667961
-0.091953
-0.0821747
-0.115825
-0.1032
-0.144164
-0.129621
-0.172906
-0.158849
-0.195793
-0.18548
-0.207224
-0.203168
-0.204823
-0.207745
-0.189725
-0.198669
-0.165587
-0.178487
-0.13731
-0.151651
-0.109507
-0.123113
-0.0852333
-0.0968187
-0.065597
-0.0748337
-0.0503111
-0.0574578
-0.0386305
-0.0440641
-0.0300039
-0.0339567
-0.0242239
-0.0267612
-0.021317
-0.0224058
-0.0213829
-0.0209761
-0.0243702
-0.02253
-0.0297489
-0.0268245
-0.036187
-0.0329539
-0.0415243
-0.0391445
-0.043422
-0.0430567
-0.0402495
-0.0425042
-0.0327427
-0.0369334
-0.0236742
-0.0282148
-0.0195439
-0.250594
-0.222619
-0.260379
-0.203913
-0.262339
-0.179266
-0.0370825
-0.0285831
-0.0306045
-0.256292
-0.15132
-0.241542
-0.219739
-0.192605
-0.161877
-0.11688
-0.129328
-0.111642
-0.0836644
-0.0591542
-0.039055
-0.0116351
-0.0229293
-0.0459979
-0.0964469
-0.103545
-0.0409343
-0.0394799
-0.0831942
-0.238147
-0.144868
-0.124511
-0.17925
-0.163553
-0.198129
-0.191152
-0.195173
-0.199484
-0.172715
-0.185846
-0.140379
-0.157134
-0.107555
-0.123567
-0.0797945
-0.0928832
-0.0584843
-0.0683513
-0.0430066
-0.0500861
-0.0322523
-0.0371096
-0.0252053
-0.028321
-0.0210959
-0.0228228
-0.0193884
-0.0199689
-0.0197281
-0.0193186
-0.02195
-0.020606
-0.0260836
-0.0237741
-0.0320453
-0.0288632
-0.0390364
-0.0355002
-0.0454171
-0.0424202
-0.04946
-0.047813
-0.0502205
-0.0502653
-0.0478124
-0.0493671
-0.0431641
-0.0456904
-0.0375511
-0.0403983
-0.0321516
-0.0347642
-0.0277896
-0.0298058
-0.0248971
-0.0261447
-0.0236111
-0.024049
-0.0239286
-0.023561
-0.025696
-0.0246785
-0.0269998
-0.0497426
-0.043496
-0.0615173
-0.0558146
-0.0713676
-0.0667374
-0.0782913
-0.0752497
-0.0815899
-0.0804194
-0.0809263
-0.081761
-0.0763445
-0.0791015
-0.0683736
-0.0727378
-0.0576929
-0.0633104
-0.0452229
-0.0516201
-0.0458058
-0.043018
-0.0538652
-0.0493737
-0.0660536
-0.0593913
-0.0832418
-0.0739819
-0.105824
-0.0938836
-0.132613
-0.118869
-0.159718
-0.146475
-0.18113
-0.171517
-0.191548
-0.187922
-0.188887
-0.191831
-0.174382
-0.182929
-0.151536
-0.163721
-0.12491
-0.138406
-0.098725
-0.111549
-0.0757338
-0.0867317
-0.0569234
-0.0658046
-0.0420369
-0.0490319
-0.0304115
-0.0358558
-0.0215525
-0.0256554
-0.0152714
-0.0180925
-0.0115926
-0.0131017
-0.0106061
-0.0107608
-0.0122616
-0.0111208
-0.0160826
-0.0139574
-0.0209029
-0.0184718
-0.0248635
-0.0231195
-0.0259754
-0.0258905
-0.0229904
-0.0250037
-0.0166791
-0.0201298
-0.00944713
-0.0130601
-0.0039737
-0.00642004
-0.00116033
-0.00228939
-0.0103419
-0.000547115
-0.251021
-0.222193
-0.256333
-0.199148
-0.039757
-0.033127
-0.253385
-0.171203
-0.242254
-0.141306
-0.223883
-0.199397
-0.170934
-0.140212
-0.108561
-0.0385742
-0.064247
-0.0770932
-0.100665
-0.0745377
-0.052606
-0.0348432
-0.0206903
-0.00966395
-0.000513688
-0.0466973
-0.0510424
-0.0220934
-0.0241303
-0.033633
-0.23809
-0.0900698
-0.0701021
-0.129525
-0.110204
-0.161759
-0.14711
-0.178181
-0.172454
-0.173528
-0.178458
-0.151623
-0.164189
-0.121729
-0.137082
-0.0921022
-0.106505
-0.067242
-0.0789533
-0.0481591
-0.0570026
-0.0342163
-0.0406086
-0.0244233
-0.0288626
-0.0178956
-0.0207997
-0.0139603
-0.0156388
-0.0121397
-0.0128102
-0.0121048
-0.011915
-0.0136797
-0.0126951
-0.016868
-0.0150685
-0.0216339
-0.0190722
-0.027375
-0.0244534
-0.0327226
-0.0301998
-0.0361553
-0.0347525
-0.0368211
-0.0368475
-0.0348253
-0.0361154
-0.0309899
-0.0330695
-0.0264204
-0.0287287
-0.0221177
-0.0241851
-0.0187671
-0.0202949
-0.0167181
-0.0175688
-0.0160747
-0.0162194
-0.0168271
-0.0162752
-0.0189969
-0.0177744
-0.0204451
-0.0526727
-0.0462758
-0.0645974
-0.0588224
-0.0744499
-0.0698629
-0.0811565
-0.0782413
-0.0841002
-0.0831234
-0.082973
-0.0840505
-0.0778306
-0.0808815
-0.0692253
-0.0739049
-0.0580389
-0.0639005
-0.0450781
-0.051746
0.00812216
-0.000943291
0.00715177
-0.0382166
-0.0340798
-0.0317229
-0.0326559
-0.038657
-0.0360336
-0.046319
-0.0420646
-0.0577844
-0.0515291
-0.0738661
-0.065208
-0.0949597
-0.083808
-0.119974
-0.107141
-0.145249
-0.132911
-0.165077
-0.156206
-0.174469
-0.171268
-0.171609
-0.174538
-0.157816
-0.165899
-0.136416
-0.147807
-0.111601
-0.124173
-0.0871815
-0.0991506
-0.0656063
-0.0759519
-0.0477413
-0.0562089
-0.0333629
-0.040153
-0.0218944
-0.0272991
-0.0129063
-0.0171068
-0.00624073
-0.00928498
-0.00192974
-0.0037858
-6.19077e-05
-0.000688224
-0.000597156
-4.44613e-05
-0.003113
-0.00165697
-0.00658254
-0.00481941
-0.00940247
-0.00818471
-0.00988319
-0.0100247
-0.00713146
-0.00890326
-0.00199564
-0.00473792
0.00335285
0.000783408
0.00695868
0.00544796
0.0085133
0.00793922
0.0085124
-0.246484
-0.217396
-0.0265022
-0.24705
-0.190639
-0.239563
-0.160465
-0.224521
-0.129813
-0.203279
-0.177667
-0.148973
-0.119003
-0.0888686
-0.0592547
-0.0177957
-0.0306055
-0.0900929
-0.0664521
-0.0471334
-0.0315274
-0.0192134
-0.00956488
0.00573731
-0.00197775
-0.0312788
-0.00341612
-0.00510182
-0.0247598
-0.024284
0.00917362
-0.233347
-0.0382583
-0.0209031
-0.075736
-0.0567441
-0.113151
-0.0948848
-0.142834
-0.129556
-0.156347
-0.151965
-0.150526
-0.155745
-0.129781
-0.141499
-0.102711
-0.116509
-0.0764789
-0.0891848
-0.0546268
-0.0649179
-0.0378141
-0.0456172
-0.0254338
-0.0311252
-0.0166346
-0.0206387
-0.0106675
-0.0133382
-0.00695719
-0.0085605
-0.00508611
-0.00581358
-0.00475587
-0.00474355
-0.00578771
-0.00510708
-0.00816217
-0.00680384
-0.0118779
-0.0098633
-0.0165073
-0.0141332
-0.0209401
-0.0188352
-0.0238481
-0.022652
-0.0244494
-0.0244504
-0.022822
-0.0238787
-0.019688
-0.0213838
-0.0160087
-0.0178579
-0.0126384
-0.0142423
-0.0101492
-0.0112606
-0.00882258
-0.00933241
-0.00873591
-0.00862357
-0.00988549
-0.00915195
-0.0122484
-0.0109179
-0.0156141
-0.0138302
-0.0199141
-0.0176307
-0.0429508
-0.0292274
-0.0360909
-0.0563144
-0.04971
-0.0685346
-0.0626246
-0.0784315
-0.0738516
-0.0849921
-0.0821714
-0.0876125
-0.0868192
-0.0860129
-0.0873415
-0.0802913
-0.0836447
-0.0709843
-0.0760293
-0.0591219
-0.0653003
-0.045558
-0.0524756
-0.0313143
-0.0384844
-0.0269807
-0.0256588
-0.0313482
-0.0288495
-0.0385234
-0.034551
-0.0491679
-0.0433684
-0.0640268
-0.0560328
-0.0834821
-0.0731978
-0.106559
-0.0947179
-0.129873
-0.118496
-0.148064
-0.13995
-0.156456
-0.153658
-0.153454
-0.15634
-0.140462
-0.148031
-0.120605
-0.131154
-0.0976933
-0.109295
-0.0751257
-0.0861981
-0.0550502
-0.0647015
-0.0382166
-0.0462272
-0.0244346
-0.0309753
-0.0132144
-0.0185332
-0.00419635
-0.00844338
0.00273811
-0.000468845
0.00753967
0.00541115
0.010115
0.00910817
0.0104933
0.0105653
0.00904818
0.00995476
0.00668634
0.00790239
0.00479618
0.0055868
0.00479083
0.00448964
0.00725034
0.0057361
0.0112309
0.00916313
0.0148787
0.0132063
0.0168682
0.0161037
0.0171463
0.0172121
0.015884
0.0167325
0.012943
0.0146187
0.00375088
0.0107514
-0.022404
-0.237156
-0.208493
-0.0241514
-0.233242
-0.179034
-0.221977
-0.147875
-0.204252
-0.117655
-0.181496
-0.155491
-0.127754
-0.0991226
-0.0706619
-0.0428709
-0.0160127
0.0221101
0.00969292
-0.0805127
-0.0596391
-0.0427133
-0.029114
-0.0184806
-0.0100926
-0.00363008
0.00120095
0.00811228
0.0338731
0.0340152
-0.0133677
-0.0156897
0.0456551
-0.224154
0.00697464
0.0211223
-0.0251439
-0.00847907
-0.0610496
-0.0428132
-0.0962113
-0.0791765
-0.122734
-0.111072
-0.133531
-0.130356
-0.126911
-0.132224
-0.107715
-0.118395
-0.0837745
-0.0958841
-0.0610553
-0.0720271
-0.0422109
-0.0510902
-0.0276366
-0.0344154
-0.0167992
-0.0217968
-0.00899603
-0.0125611
-0.00361108
-0.00603548
-0.000163418
-0.00167077
0.00170475
0.000949041
0.00225845
0.00213189
0.00167243
0.00210139
-1.3854e-05
0.0009693
-0.00282026
-0.0012821
-0.00646811
-0.00457928
-0.0100895
-0.00835455
-0.0125427
-0.0115233
-0.0131016
-0.0130734
-0.0118014
-0.0126536
-0.00926808
-0.0106369
-0.00633931
-0.0078024
-0.0037505
-0.00496631
-0.00198301
-0.00274523
-0.00126297
-0.00148609
-0.00164257
-0.00131523
-0.00309815
-0.00223417
-0.00560382
-0.00420744
-0.00906422
-0.00722339
-0.0111258
-0.0322573
-0.0182374
-0.0251852
-0.0466145
-0.0394187
-0.0606505
-0.0537544
-0.0733095
-0.0672334
-0.0833456
-0.0787207
-0.0898388
-0.0870797
-0.0921649
-0.0915465
-0.0900734
-0.0916688
-0.0837291
-0.0874062
-0.073683
-0.0791162
-0.0609634
-0.0675747
-0.0467188
-0.0539871
-0.0319042
-0.0393306
0.0145732
0.00481735
0.0112871
-0.0245169
-0.0177535
-0.0171099
-0.017278
-0.0198145
-0.0185757
-0.0239543
-0.0215994
-0.0306047
-0.0269351
-0.0403651
-0.0350553
-0.0539219
-0.0466342
-0.0716402
-0.0622748
-0.0926736
-0.0818764
-0.113953
-0.103568
-0.130504
-0.12314
-0.137946
-0.135524
-0.134874
-0.137678
-0.122732
-0.129768
-0.104458
-0.114146
-0.0834802
-0.0940979
-0.0627931
-0.0729539
-0.0442554
-0.0531915
-0.0285068
-0.0360316
-0.0153894
-0.0216452
-0.00449788
-0.00968905
0.00445588
0.000211416
0.0115459
0.00823567
0.0166993
0.0143712
0.0198135
0.0185142
0.0209085
0.0206013
0.0203197
0.0207852
0.0188529
0.0196263
0.0177107
0.0181602
0.0180386
0.0176426
0.0201326
0.0189002
0.0230022
0.0215692
0.0251523
0.0242438
0.0257898
0.0256645
0.0250616
0.0255837
0.0230207
0.0242115
0.0196054
0.0215205
0.0173774
-0.223673
-0.196129
-0.216064
-0.165238
-0.202016
-0.134332
-0.0211276
-0.0115499
-0.0141145
-0.182771
-0.105637
-0.159735
-0.134313
-0.107795
-0.0809826
-0.0542175
-0.0280175
-0.0026587
0.0216652
0.0563392
0.0447473
-0.072281
-0.0541216
-0.0393996
-0.027693
-0.0185352
-0.0113504
-0.0059637
-0.00199493
0.00738522
0.000907615
-0.0172665
0.0661628
0.0669743
-0.0101392
-0.0102387
0.0767244
-0.211162
0.044919
0.056414
0.0187014
0.0323504
-0.0122879
0.00372615
-0.0465547
-0.0292508
-0.0789454
-0.0634371
-0.102071
-0.0921026
-0.110288
-0.108214
-0.103212
-0.108434
-0.0859644
-0.0954117
-0.0653792
-0.0757219
-0.046155
-0.0554235
-0.0302126
-0.0377352
-0.0177822
-0.0235801
-0.00842961
-0.0127576
-0.00159962
-0.00473324
0.00319895
0.0010259
0.00635848
0.00496221
0.00817971
0.00742005
0.0088933
0.00866233
0.00866448
0.00888964
0.00754871
0.00821888
0.00551736
0.00664666
0.00272889
0.0041903
-0.000170822
0.00123464
-0.00222346
-0.00135801
-0.00275297
-0.002695
-0.0017421
-0.00241542
0.000279629
-0.00081239
0.00258155
0.0014398
0.00452452
0.00362893
0.00569827
0.00522312
0.00592035
0.00593246
0.00516235
0.00566278
0.0034662
0.0044308
0.000880735
0.0022879
-0.00256557
-0.000733162
-0.00685122
-0.00464204
-0.00915192
-0.0357665
-0.0283163
-0.0509352
-0.0433389
-0.0657442
-0.058449
-0.0789166
-0.0726234
-0.0892127
-0.0844853
-0.0957153
-0.0929858
-0.0977752
-0.0973237
-0.0951685
-0.097049
-0.0881334
-0.0921716
-0.0772941
-0.0831363
-0.0636483
-0.0707402
-0.048559
-0.0562022
-0.0330217
-0.0407848
-0.0178718
-0.0253518
-0.0107564
-0.0103107
-0.0127513
-0.0115267
-0.0166039
-0.0144234
-0.022686
-0.0193386
-0.0315268
-0.0267254
-0.0437395
-0.03718
-0.0596704
-0.0512503
-0.0786083
-0.0688801
-0.0978294
-0.0884412
-0.112776
-0.106136
-0.119347
-0.117259
-0.116272
-0.118965
-0.105002
-0.111499
-0.0882989
-0.0971338
-0.0692282
-0.0788761
-0.0503981
-0.0596574
-0.0333957
-0.0416146
-0.0187575
-0.0257804
-0.00635443
-0.0122977
0.00413919
-0.000887443
0.0129404
0.00874506
0.0200768
0.0167206
0.0254494
0.0229911
0.028945
0.027435
0.0305775
0.0299829
0.0306554
0.0307749
0.0299014
0.030321
0.0293488
0.0295333
0.0298761
0.0294487
0.0315206
0.0306021
0.0333205
0.0324811
0.0341789
0.0339118
0.0337345
0.0341096
0.0321898
0.0330911
0.0295785
0.0310238
0.0258572
0.0278624
0.0206545
0.0234809
0.013569
0.0173577
0.00288927
0.00928658
-0.207076
-0.181242
-0.196734
-0.150267
-0.0243524
-0.0170402
-0.18111
-0.120784
-0.161414
-0.0945078
-0.138954
-0.114807
-0.0898004
-0.0645805
-0.0394723
-0.014645
0.00953616
0.0327515
0.0547656
-0.0105608
0.0854705
0.075154
-0.0654659
-0.0498071
-0.0371737
-0.0271941
-0.0193887
-0.0134628
-0.00912251
-0.00597084
-0.00381312
-0.00505789
-0.00744549
0.0934495
0.0943104
-0.00235204
0.00444729
0.102208
-0.195339
0.0763924
0.085842
0.0550173
0.0661825
0.0294035
0.0428932
-0.000366422
0.0150384
-0.0324983
-0.0163568
-0.0616301
-0.04788
-0.0811714
-0.0729419
-0.0870288
-0.0858903
-0.079978
-0.0848585
-0.065066
-0.0731201
-0.0479059
-0.0564864
-0.0320287
-0.039682
-0.0188031
-0.0250587
-0.00837465
-0.0132557
-0.000419059
-0.00411498
0.0054807
0.00276184
0.00970308
0.00777976
0.0125601
0.0112848
0.0142994
0.0135557
0.015118
0.0148127
0.0151673
0.0152316
0.0145144
0.0149289
0.0131318
0.0139161
0.0110877
0.0121757
0.0088313
0.00994129
0.0071395
0.00786644
0.00663531
0.00672053
0.00739271
0.00687504
0.00897974
0.00812136
0.0107618
0.0098852
0.0121781
0.0115428
0.0128729
0.0126288
0.0126968
0.0128965
0.0116407
0.0122764
0.00976066
0.0108009
0.00711891
0.00853408
0.00374083
0.00552668
-0.00045048
0.00175267
-0.00274433
-0.0398508
-0.0320026
-0.0559367
-0.0478526
-0.071568
-0.0638773
-0.0853465
-0.0787768
-0.0960195
-0.0911364
-0.102602
-0.0998726
-0.104419
-0.104129
-0.101272
-0.103457
-0.0934703
-0.0979135
-0.0817491
-0.0880404
-0.0671391
-0.0747286
-0.0509864
-0.0591594
-0.034641
-0.0427881
-0.0187839
-0.0266276
0.0107389
-0.00102273
0.00566946
-0.0112052
-0.00330781
-0.00357795
-0.00334187
-0.00389044
-0.00345542
-0.00583503
-0.00467231
-0.00938501
-0.00739129
-0.0148804
-0.011865
-0.0227898
-0.0185019
-0.0336519
-0.0278235
-0.0477897
-0.0403178
-0.0646281
-0.0559701
-0.081806
-0.073403
-0.095213
-0.0892572
-0.101012
-0.099208
-0.0979994
-0.100557
-0.0875975
-0.0935665
-0.072412
-0.0804256
-0.055172
-0.063889
-0.038131
-0.04652
-0.0226265
-0.0301422
-0.00909918
-0.0156154
0.00255623
-0.0030543
0.0125928
0.00776314
0.0211599
0.0170572
0.0282399
0.0248918
0.0337082
0.031184
0.0374429
0.0357956
0.0394566
0.038654
0.0400408
0.0398942
0.0398469
0.0399875
0.0397413
0.0397313
0.0403354
0.0399401
0.0414554
0.0408755
0.042254
0.0419526
0.0420352
0.0422899
0.0407412
0.0415073
0.0385824
0.0397639
0.0355526
0.0371845
0.0315381
0.0336754
0.0262258
0.0290593
0.0193658
0.0229879
0.015306
-0.188577
-0.164939
-0.00994031
-0.176602
-0.135167
-0.160446
-0.108071
-0.141216
-0.0847522
-0.119887
-0.0972503
-0.0738407
-0.0500374
-0.0261918
-0.00254917
0.0206399
0.0429831
0.0640384
0.0833942
0.109042
0.100673
-0.0600402
-0.0466928
-0.0360289
-0.0276826
-0.0212504
-0.0165536
-0.0132408
-0.0108886
-0.00944384
-0.00826556
-2.09992e-05
-0.00722713
-0.00400528
0.115357
0.11557
0.00311418
0.00281287
0.12147
-0.177854
0.101442
0.109027
0.084427
0.0934382
0.0637228
0.0746637
0.0389435
0.0518706
0.0105852
0.0251426
-0.0188995
-0.00428298
-0.0443051
-0.0324822
-0.0602941
-0.0537327
-0.0642339
-0.0637636
-0.0577835
-0.0620508
-0.0454698
-0.0520524
-0.0316382
-0.0385378
-0.0188577
-0.0250275
-0.00810718
-0.0132097
0.000494117
-0.00354844
0.0071612
0.00405045
0.0121886
0.00986087
0.0158566
0.0141759
0.0184061
0.0172573
0.020037
0.019325
0.0209143
0.0205603
0.0211728
0.0211139
0.0208863
0.0210968
0.0200355
0.0205345
0.0186269
0.0193925
0.0169435
0.0177874
0.015585
0.0161825
0.0151111
0.0152175
0.0156499
0.0152666
0.016868
0.0162067
0.0182207
0.0175616
0.0192127