/*--------------------------------*- C++ -*----------------------------------*\
  =========                 |
  \\      /  F ield         | OpenFOAM: The Open Source CFD Toolbox
   \\    /   O peration     | Website:  https://openfoam.org
    \\  /    A nd           | Version:  10
     \\/     M anipulation  |
\*---------------------------------------------------------------------------*/
FoamFile
{
    format      ascii;
    class       surfaceScalarField;
    location    "2.5";
    object      phi;
}
// * * * * * * * * * * * * * * * * * * * * * * * * * * * * * * * * * * * * * //

dimensions      [0 3 -1 0 0 0 0];

internalField   nonuniform List<scalar> 
17221
(
0.0824009
-0.0250394
-0.0686489
0.0112874
0.00166397
0.0750327
0.00570425
0.0641885
-0.0189408
-0.0702872
0.0824024
-0.00884084
-0.0748966
0.001335
0.0148583
0.0733514
-0.00580723
0.0691409
0.0177774
-0.07206
0.00128648
-0.0049216
0.0686413
-0.0650062
-0.00646717
-0.0670241
0.0747778
0.00126168
-0.0427646
0.00883219
0.0326708
-0.0427834
0.00783824
0.0362069
0.00164656
0.0452801
-0.0530403
0.00611364
-0.0510855
0.052732
-0.000536016
0.0624607
-0.0635177
0.00159304
0.062403
0.00428266
-0.0672217
0.0402907
0.0487065
-0.0164062
-0.0725909
0.0349215
-0.0283394
0.0337086
0.0159577
0.0564657
-0.0675186
-0.00490484
0.007604
0.0484039
-0.0400502
-0.042176
-0.00749784
0.0572778
-0.0282311
-0.0591316
0.0712511
0.0161115
-0.0644734
0.00231703
0.0339253
0.042962
0.0437916
-0.0493532
-0.0374003
0.0972977
-0.0634421
0.00910632
-0.0286651
0.0111141
0.0817395
-0.117958
-0.0570927
0.092802
0.0822483
-0.0432962
0.0235112
-0.0981726
0.109208
-0.101867
-0.0506373
0.100119
-0.0480034
-0.0299504
-0.0586343
0.0153149
0.0732699
-0.0127687
-0.0584312
0.0412495
-0.060672
0.00329364
0.0446096
-0.111223
-0.00256115
0.0802322
0.0335514
0.0214402
-0.104496
-0.028167
0.121855
0.0196226
-0.120037
0.00987309
0.10942
0.0664876
-7.16193e-05
-0.0190841
-0.047332
0.0116149
0.067252
-0.0123793
-0.0418117
0.0410339
0.063925
-0.0631473
0.102403
-0.0792904
-0.0248361
0.00172334
0.0712725
-0.010681
0.0348753
0.0938417
-0.0376805
0.0238383
0.0317673
-0.0237345
-0.00803282
0.0156622
-0.0160694
0.0321745
0.0904633
-0.0426576
-0.0478057
-0.0593236
0.0473466
0.10244
0.00770676
-0.00447746
-0.00732788
0.00409857
-0.00447203
0.000266192
0.0119126
-0.00665689
-0.0022926
0.0422611
0.0664305
-0.0640722
-0.0446195
0.052829
-0.0708236
0.0602557
-0.0313719
0.045513
0.038688
-0.0213249
0.0563836
-0.0817158
0.0156688
0.0673226
-0.00127559
-0.0724844
-0.00886963
-0.00036172
-0.00941544
-0.0647521
0.00168312
-0.0676856
0.00279433
0.0694829
-0.00459159
0.00756936
-0.0733935
-0.0018615
-0.0567101
0.0609248
-0.00930651
0.00509178
0.0171717
-0.0710875
-0.0734465
-0.00795177
0.0682537
0.0131445
-0.0090234
-0.0720728
0.00764966
0.0734017
-0.0142525
-0.0654021
0.00625288
-0.00972041
0.0740987
0.00752608
-0.0575764
0.00235407
0.0476962
0.0623814
0.00102589
-0.0558812
0.0688338
-0.0113739
-0.0944769
0.00217088
0.0340701
0.0582359
-0.00239067
-0.100848
0.0087617
-0.000517961
0.095425
-0.00941324
-0.0572484
0.00639368
0.060268
-0.0617724
0.0594777
-0.00711852
0.0118074
-0.0632076
-0.00584828
-0.0625679
0.00676085
0.0676145
0.0136334
0.0588471
-0.0129814
-0.0594991
0.0576875
-0.0611408
0.0170867
-0.0137699
0.0600125
0.0126045
-0.0118676
0.0582816
-0.0601839
0.0242081
-0.0812645
-0.0672567
-0.000903533
-0.000222086
0.0683823
-0.0734962
0.0123203
-0.00608082
-0.00268776
-0.0561558
0.000561728
0.0582818
-0.0554422
0.0582162
-0.00546176
0.0852201
-0.0715201
0.0105081
0.0881768
0.00580495
0.071407
-0.00783517
0.05942
-0.0576405
0.00605558
0.0582613
-0.00828062
-0.0578159
0.000450743
0.0559549
-0.0577763
0.00137064
0.0574945
0.000232855
-0.0572766
0.0813045
-0.0508163
-0.0399036
0.0701363
0.00229861
0.000413976
-0.0027522
-0.0624139
0.0216652
0.0753457
-0.026267
-0.070744
0.0173428
0.0734783
-0.0691558
-0.0477137
-0.019372
0.0539018
0.0131838
-0.00783468
0.0408061
-0.0806851
0.0583479
0.00312066
-0.0693033
0.0428111
-0.00383509
-0.0118859
-0.0616562
0.0701515
0.00339056
-0.0381319
0.0801478
0.0675795
0.0048652
-0.00716425
-0.0652805
0.00684679
0.0695149
-0.00878221
0.063581
-0.00161281
0.000434868
0.0626739
-0.000353459
0.00126049
0.0634045
6.5317e-05
-0.000795874
0.0617948
0.00167182
-6.20948e-05
0.0636617
-0.00206788
0.000200903
0.0628261
0.000860156
-2.45649e-05
0.06382
-0.00123176
0.000237897
0.0633834
-0.000212804
0.000649416
0.0639531
-0.000484758
-8.49866e-05
0.0627145
0.000407492
0.000831112
0.0636022
-0.000326165
-0.000561492
0.0640123
0.00050121
-0.000911354
0.0635138
-0.000347993
0.000846528
0.0634592
-0.000328989
0.000383597
-0.00130843
0.0643448
0.000422823
0.0636376
-0.0631704
-0.00177565
-0.00233079
0.00410767
-0.00190077
0.0638929
-0.0637081
-0.000532833
0.000393499
0.0638074
-0.0641773
4.3746e-05
0.000600503
0.0636402
-0.0635863
-0.000538682
-0.000129536
0.063771
-0.0647876
-0.000215098
-2.81375e-05
0.0636257
-0.0653095
-0.000384054
-0.000301775
0.0634651
-0.0633567
-4.30944e-05
-0.000172614
0.0637754
-0.066417
0.0010288
6.52048e-05
-0.00120951
-0.0627417
0.0630443
0.000957925
0.000153898
-0.0633229
0.063396
-0.000135178
-0.00107452
-0.0628687
0.0624433
0.000400757
0.000728238
-0.0635104
0.063169
0.000990796
-0.000829164
-0.0628471
0.0632594
0.000418852
0.000236915
-0.0642498
0.0633675
-2.90258e-05
-0.00155197
-0.0631967
0.063767
-0.000186673
0.00101737
-0.064307
0.0661572
0.00225743
-0.000117191
0.0655139
0.00740416
0.0139683
-0.0589265
0.0621299
0.00858333
0.0654249
-0.0629245
-0.0046962
0.0697389
0.00435834
0.00861414
-0.0721322
0.00871194
0.0632369
-0.0646891
-0.00032342
-0.00158839
0.0643941
-0.0647446
-0.000182272
9.84446e-05
0.0642567
-0.0640164
-0.00019661
0.000112617
0.0648089
-0.0647862
-0.00056137
0.000663011
0.0644318
-0.0646428
-4.05466e-06
-0.000382594
0.0646385
-0.0648639
-0.000158591
-0.000306124
0.0649065
-0.0646665
-0.000283051
-0.000130076
0.0650841
-0.063855
-0.000200353
0.000482798
0.0633164
-0.00314001
-0.00174812
0.00672813
-0.00897529
0.067672
0.00596447
0.0705026
-0.0640015
0.0629843
0.00261026
0.0041305
-0.0626735
0.0644133
-0.000781831
0.000464657
-0.0633656
0.063161
6.94214e-05
-2.68691e-05
-0.0640316
0.0647358
-0.000303374
-0.000142402
-0.0637512
0.0645146
0.000227446
0.000155402
-0.0648139
0.0652803
-4.75067e-05
-6.24415e-05
-0.0642042
0.0637292
0.000446001
-0.000475916
-0.0647439
0.064542
1.51664e-05
2.69818e-06
-0.0643385
0.0667282
-0.000132307
8.63205e-05
-0.0711168
0.0709682
0.00450694
0.00301557
0.0220794
0.0436566
-0.00625823
0.0733721
-0.058593
0.00696136
0.0699713
0.00818831
-0.0121043
-0.0694774
0.00210891
-0.0660528
-0.0684618
0.0696226
-0.00302224
-0.0765493
-0.00401685
0.0748849
-0.0454808
-0.00288921
0.0680537
-0.0592546
0.00751554
0.00649068
-0.00853306
-0.0557735
-0.0567126
0.00556281
0.0611548
-0.0638505
-0.00200044
-0.00521834
0.0650622
-0.0653327
-5.28873e-05
-0.000376699
0.0651839
-0.0653045
-6.16472e-05
-5.04059e-05
0.065138
-0.0652724
-6.21236e-05
-5.39302e-05
0.0645396
-0.0649875
-0.000113413
-6.98504e-05
0.0652259
-0.0650592
-0.000170754
-0.000144232
0.0651575
-0.0651189
-0.000197253
-0.000207807
0.0650825
-0.0651606
-0.000204971
-0.000166431
0.0644791
-0.0644413
-0.000238148
-0.000198659
0.0659749
-0.0672768
-0.00183812
-0.000214581
-0.00224578
0.0678964
-0.0665937
0.00320417
0.0704174
0.00444039
-0.0566434
0.0603488
0.00235021
0.00441263
-0.00428616
-0.056839
0.056959
0.00425256
-0.0567989
0.00587843
-0.0619399
0.0647501
-0.000199899
0.00253936
-0.0653908
0.0647526
-0.000143689
-0.000176036
-0.0648774
0.065109
-0.000162162
-0.000151695
-0.0650284
0.0648285
-0.000103431
-6.18074e-05
-0.0649822
0.0652861
-7.64316e-05
1.64847e-06
-0.0652974
0.0653128
-6.29399e-05
-7.36767e-05
-0.0648726
0.0653286
-9.98591e-06
-3.57369e-05
-0.0653326
0.0653466
1.14283e-06
-1.29062e-06
-0.0654483
0.065337
-2.09516e-05
-1.54152e-05
0.00175889
-0.00304299
0.00266412
0.0680509
0.0674399
-0.0036049
0.00513846
0.0684378
0.0695618
-0.0650172
-0.0146469
0.00560146
-0.060432
-0.0491503
-0.0420459
0.00910839
0.0021464
-0.0604051
-0.0554979
0.0225603
-0.0580651
0.000178455
0.0051899
0.070366
-1.74598e-05
-0.0600422
0.00401182
-0.0644632
-0.0543646
0.0582429
0.000374333
0.00437046
-0.00577109
-0.0553983
-0.0552139
0.00521977
-0.00291362
-0.0596965
0.00291542
-0.061201
-0.000938245
-0.0569788
0.00241918
-0.00150593
-0.0598374
-0.00226894
0.000464857
-0.0551747
-0.0499711
0.0570083
-0.0093061
-0.00575181
-0.00929785
0.0649572
-0.065696
-0.00126161
0.00167381
0.0654118
-0.0652935
-0.000171152
-0.000660975
0.0652665
-0.0652375
-9.06704e-05
-7.73583e-05
0.0652166
-0.0652044
-7.43881e-05
-7.48273e-05
0.0652026
-0.0652093
-0.000106749
-7.15699e-05
0.0652191
-0.0651925
-0.000197353
-0.000134404
0.0651967
-0.0651518
-0.000242157
-0.000203686
0.0651021
-0.0650504
-0.000256671
-0.000216037
0.0650106
-0.0649604
-0.000288332
-0.000238547
0.0649171
-0.0664406
-0.000314537
-0.000257903
0.0672925
-0.0692828
-0.00103197
-0.00139387
0.0731925
-0.055653
0.00502084
-0.00010715
0.00377444
-0.0618283
0.0632549
0.000923599
0.00229296
-0.0650075
0.0648936
-8.60145e-05
0.000786813
-0.0649292
0.0650242
-0.000238658
-0.000211629
-0.0650602
0.0650785
-0.000180498
-0.000187704
-0.0651416
0.065157
-0.000118867
-0.000124867
-0.0652581
0.065292
-0.000110371
-9.94142e-05
-0.0653089
0.0653238
-7.77761e-05
-9.05951e-05
-0.0653316
0.0653408
-1.91056e-05
-4.36279e-05
-0.0653488
0.0653538
-3.81612e-06
-9.32714e-06
-0.0653553
0.065075
0.000259405
-1.69947e-05
-0.0667012
0.0688184
0.00108702
0.000132622
-0.069553
0.0697163
0.00502653
0.00370583
0.00226605
-0.00129427
0.0670819
0.068413
0.00047907
0.000923308
0.0666485
0.0666247
-0.00248222
0.00297584
0.0679441
0.0680029
-0.00487678
0.00467306
0.06992
0.0684651
-0.0610228
0.00312504
-0.00102883
0.003866
0.0710904
-0.0686749
0.00261108
0.070421
0.0053425
-0.00246323
-0.0604926
2.82804e-05
-0.061576
-0.0690417
0.0586233
0.00111235
0.00407551
-0.0244107
-0.00323313
-0.0574922
-0.00137451
-0.0613324
-0.00219268
-0.0571799
-0.00809545
-0.0528311
0.0653982
-0.065165
-5.47591e-05
-0.000421724
0.0636883
-0.0652005
0.00025063
0.000197111
0.065232
-0.0652939
-0.000109226
-0.000629504
0.065266
-0.0652325
-0.000124194
-0.000105237
0.0652088
-0.0651894
-9.37983e-05
-9.85509e-05
0.065183
-0.0651902
-9.95472e-05
-7.79803e-05
0.0652011
-0.0652077
-0.000190808
-0.000123437
0.0651979
-0.0651647
-0.000275382
-0.000213432
0.0651271
-0.0650853
-0.000298543
-0.000253608
0.0650528
-0.0650119
-0.000329189
-0.000271018
0.0649636
-0.0648935
-0.000384705
-0.000306181
0.0659031
-0.066547
-0.000388018
-0.00038429
0.0661663
-0.0625555
0.00141006
-0.000487857
-0.000157834
-0.0563246
0.0580028
0.00218774
0.0174911
-0.00447081
-0.0707966
0.0567345
-0.0374403
-0.00180304
0.00178055
-0.0619553
0.0615559
0.000773765
0.0012673
-0.0634947
0.0641241
0.00029413
0.000354175
-0.0647132
0.0649262
-0.000299078
0.000197756
-0.0649606
0.064992
-0.000270088
-0.000245999
-0.0650172
0.0650547
-0.000217939
-0.000212887
-0.065098
0.0651559
-0.000176731
-0.000168232
-0.065202
0.0652438
-0.000152215
-0.000145511
-0.0652691
0.0652929
-0.000101556
-0.000115862
-0.0653109
0.065332
-4.01793e-05
-6.16584e-05
-0.0653478
0.0653623
-1.82588e-05
-2.51807e-05
-0.0653705
0.0654507
0.000179138
-2.51756e-05
-0.0655381
0.066722
-9.68817e-05
4.5266e-05
0.00175287
-0.00297046
0.00474901
0.0664752
0.000291865
0.000396878
0.0663932
0.0657344
-0.00162539
0.000705103
0.0675688
0.0653962
-0.00177806
0.00253221
0.06719
0.0669299
-0.00286217
0.00400491
0.0687773
0.0681351
0.0059176
0.0685083
-0.0634578
0.0570166
-0.0793514
0.0354794
-0.0162128
0.0779785
0.0247424
-0.0279685
-0.0342142
-0.0676386
-0.00406318
-0.000801396
-0.0629243
4.17126e-05
-0.0629923
0.00173945
-0.0589988
-0.00104007
-0.062485
-0.0692881
-0.00247571
0.0697679
0.00199593
-0.00106645
-0.060681
-0.0012627
-0.0640127
-0.000465345
-0.0455889
-0.00380164
-0.0773688
0.0376575
-0.0183909
-0.0754144
0.0120439
0.066362
-0.0651001
-0.00131665
-0.00169834
0.0654477
-0.0648934
-0.000303697
0.000544782
0.0652185
-0.0653213
-6.4455e-06
-0.000304382
0.0653041
-0.0652796
-0.000148647
-0.000122477
0.0652585
-0.0652299
-0.000122474
-0.000119635
0.0652075
-0.0651905
-0.000116598
-0.000100306
0.0651819
-0.0651781
-0.000194606
-0.000132065
0.0651737
-0.0651637
-0.00028541
-0.000217774
0.0651509
-0.0651333
-0.000316189
-0.000266357
0.0651145
-0.0650803
-0.000363427
-0.000289789
0.0650318
-0.0649527
-0.000463769
-0.000354697
0.0648852
-0.0646779
-0.000595268
-0.000451819
0.0645746
-0.0623739
-0.000790611
-0.000591171
0.0630138
-0.0628733
0.00097182
0.000482052
0.0569764
-0.0675405
-0.00584215
-0.00182135
-0.0532005
0.057598
-0.00620047
-0.0730554
-0.00811365
-0.0583752
0.0599631
0.00059983
0.00100334
-0.0617794
0.0632848
-0.000731649
-0.000549003
-0.063619
0.0643418
-0.000428716
2.00314e-05
-0.0648892
0.0649652
-0.000375128
-0.000349598
-0.0650084
0.0650426
-0.00030434
-0.000289184
-0.0650625
0.065086
-0.000241388
-0.000232763
-0.0651109
0.0651452
-0.000211059
-0.000193155
-0.0651759
0.0652078
-0.000184117
-0.000176231
-0.0652329
0.0652606
-0.000129265
-0.000140943
-0.0652855
0.065317
-7.16137e-05
-8.65566e-05
-0.0653393
0.065362
-4.09607e-05
-4.75444e-05
-0.0653748
0.0655887
-3.4776e-05
-3.79558e-05
-0.0656722
0.0653919
0.000183453
-3.82471e-05
-0.0667724
0.0700443
-0.000660882
0.000372415
-2.76296e-05
-0.0100185
0.0073133
-0.0698857
-0.0694216
-0.00813733
-0.000435501
0.000115029
0.0667957
-0.0190148
-0.00194312
0.0586153
0.0585282
-0.000255526
0.000896183
0.0657525
0.0655939
-1.21588e-05
1.09841e-05
0.06757
0.0662802
-0.0015459
0.00116201
0.0675739
0.065395
-0.00149657
0.00258629
0.0676876
0.0678005
0.0686189
-0.0642174
9.00948e-05
-0.061275
5.11637e-05
-0.0640835
0.00138986
-0.00042904
0.0688071
-0.0642697
0.01061
0.0657036
0.000124582
0.0689648
-0.0676995
0.000146826
-0.0602121
0.000211682
-0.0639594
-0.0019767
-0.0591696
-0.0011245
-0.0666898
-0.00770112
-0.072102
-0.00158296
-0.0684726
-0.00449034
-0.000382591
-0.0681825
0.00724832
-0.00459026
-0.0720797
0.00693989
-0.0695773
-0.0527949
-0.00530397
0.000598854
0.0585782
0.00641675
-0.00529174
-0.0581137
0.0569887
0.0636573
-0.0646411
-0.00307932
-0.00752859
0.0656817
-0.0660191
-0.000979331
-0.000657724
0.0650696
-0.0652763
-9.70221e-05
-0.000404688
0.0654801
-0.0653529
-0.000133643
-0.000100548
0.0653448
-0.0653315
-0.000161932
-0.000130582
0.0653148
-0.0652835
-0.000153813
-0.000136299
0.0652527
-0.0652162
-0.000153093
-0.000131131
0.0651903
-0.0651722
-0.000212693
-0.000157985
0.0651659
-0.0651661
-0.000285203
-0.000224097
0.0651672
-0.0651647
-0.000318725
-0.000265236
0.0651538
-0.0651223
-0.000394921
-0.000300685
0.0650722
-0.0649879
-0.000548013
-0.000404769
0.0649022
-0.0648059
-0.000691643
-0.000537525
0.0647344
-0.0646628
-0.000862208
-0.000662605
0.0643295
-0.0626007
-0.000756993
0.000148716
0.0620156
-0.0647297
-0.00312812
-0.0024064
0.069099
-0.0701701
-0.00351913
-0.00376806
-0.00749898
0.00655978
-0.0711405
0.0823704
0.0133716
-0.0551348
-0.0406072
0.00470136
-0.0634172
0.0602706
-0.00305383
0.067307
-0.0683628
-0.00343456
-0.0042239
-0.0631453
0.0645742
-0.000829097
-0.00187137
-0.0644447
0.0643338
-0.000620759
-0.000419501
-0.0647865
0.0648914
-0.000533675
-0.000432609
-0.064945
0.0650034
-0.000433538
-0.000403172
-0.0650481
0.0650897
-0.000345923
-0.000333918
-0.0651162
0.0651421
-0.000267286
-0.000259234
-0.0651604
0.0651784
-0.000229106
-0.000211417
-0.0651931
0.0652089
-0.000199949
-0.000190931
-0.0652272
0.065251
-0.000153001
-0.00015922
-0.0652757
0.0653086
-0.000104511
-0.000111331
-0.0653317
0.0653579
-6.71628e-05
-7.06265e-05
-0.0653733
0.0653843
-4.5798e-05
-5.33024e-05
-0.0653916
0.0656149
-3.98148e-05
-4.55967e-05
-0.0660255
0.0655764
-0.000211773
-3.81999e-05
0.00127911
0.00341418
0.000778722
0.0626028
0.0625412
-0.000961339
-0.000867827
0.0675817
0.0654113
-1.1028e-05
5.87516e-06
0.0675751
0.0654013
-4.01112e-06
-8.512e-07
0.0675788
0.0653969
-0.000828623
0.00154103
0.0669752
0.0669711
0.0697308
-0.0640762
-0.0587408
-0.00200537
0.069622
-0.064756
0.00574397
0.0675865
0.00216002
0.000112669
-0.0612408
5.02209e-05
-0.063922
-0.00113996
-0.0610488
0.000231151
-0.0653151
-0.00244236
-0.0644284
0.00199546
-0.0702682
-0.00377855
-0.068706
0.00309481
-0.0682517
-0.00320587
0.00401872
-0.0691064
0.00462945
-0.0661621
0.00419297
-0.0672105
0.00714183
-0.0649107
0.00836571
-0.0570838
-0.0534292
0.0662309
0.0035798
-0.0163815
-0.0575013
-0.00121966
0.00493761
-0.0048959
-0.0581554
0.063601
-0.0646783
-0.00200203
-0.00266842
0.064761
-0.0652158
-0.000524526
-0.000575017
0.0653837
-0.0653779
-0.000102902
-0.000236759
0.0653756
-0.0653725
-0.000136743
-0.00010278
0.0653698
-0.0653635
-0.000168254
-0.00013326
0.0653523
-0.0653272
-0.000178967
-0.000147486
0.0653005
-0.0652624
-0.000191144
-0.000157847
0.0652327
-0.0652058
-0.000239644
-0.000187663
0.0651915
-0.0651821
-0.000294567
-0.000238399
0.0651744
-0.0651604
-0.000332781
-0.000272939
0.0651392
-0.0650998
-0.000434318
-0.000321876
0.0650511
-0.0649793
-0.000619836
-0.00045341
0.0649113
-0.0648355
-0.000767396
-0.000605572
0.0647828
-0.0647331
-0.000911821
-0.000715356
0.063714
-0.0633469
-0.00112412
-0.000870386
0.0647044
-0.0658525
-0.00198006
-0.00104891
0.0670965
-0.0700016
-0.000614061
-0.00252398
0.000930681
-0.0676919
0.0668874
-0.00263001
-0.00401903
0.00399447
-0.0682271
0.0687632
-0.0682579
-0.00452431
-0.00213463
-0.06544
0.0642669
-0.00188072
-0.0027765
-0.0641853
0.0644575
-0.00110121
-0.00178985
-0.0646273
0.0647695
-0.000762989
-0.000589332
-0.0648999
0.0649513
-0.000585062
-0.000563007
-0.0649928
0.0650381
-0.00047885
-0.000444651
-0.0650749
0.0651174
-0.00038841
-0.000370754
-0.0651495
0.0651812
-0.000298919
-0.000291371
-0.0652
0.0652141
-0.00024321
-0.00023028
-0.065223
0.0652326
-0.000209579
-0.000199756
-0.0652458
0.065265
-0.000172115
-0.000172464
-0.0652853
0.0653129
-0.000132066
-0.000131671
-0.0653324
0.065356
-9.07565e-05
-9.01802e-05
-0.065371
0.0653836
-5.83481e-05
-6.83303e-05
-0.0653907
0.0653983
-4.73703e-05
-5.27131e-05
-0.0654328
0.0645078
0.000713165
-7.27085e-05
0.00103096
-0.00452853
0.00240581
0.0607009
0.00643728
-0.00534653
0.0571255
0.0601905
-0.00106516
1.07536e-05
0.0636572
0.0638819
-1.18686e-05
1.37972e-05
0.0675798
0.0654102
-1.35214e-05
1.0087e-05
0.0675786
0.0654016
-7.25831e-06
3.07087e-06
0.0675829
0.0653997
-0.00032638
0.000753967
0.0665476
0.0666478
-0.00131405
0.00157477
0.0685464
0.0691708
-0.00234472
0.0681794
0.00175191
0.0681949
-0.0639133
0.00012992
-0.0625107
5.10937e-05
-0.063742
-0.000908015
-0.0625832
0.000266982
-0.0635866
0.00302129
-0.00250163
0.0676597
0.0678734
-0.0689267
0.00280527
0.0675572
0.0033375
-0.000434873
-0.0677721
0.00149589
-0.0661832
0.00246676
-0.0675787
0.00475072
-0.0676011
-0.00540745
0.00391961
-0.067396
-0.0649475
-0.000691299
0.00351978
-0.0654889
0.00329057
-0.0633592
0.00337409
-0.0599191
0.0038749
-0.0560211
0.0557899
-0.0602373
-0.00089913
-0.0585473
-0.00384986
-0.00486034
0.00197354
-0.0552686
-0.0023839
-0.0610238
-0.00809249
0.00561991
0.0595981
0.0553541
-0.00765664
0.0625491
-0.0621968
-0.00235761
-0.00315001
0.0629279
-0.0643406
-0.000589317
-0.00193741
0.0647855
-0.0652329
-7.71006e-05
-0.00013011
0.0653954
-0.0653903
-0.000108088
-7.42249e-05
0.0653872
-0.0653858
-0.000138139
-0.000105843
0.0653835
-0.0653794
-0.000172368
-0.00013551
0.0653726
-0.065356
-0.00019555
-0.000154302
0.0653384
-0.0653106
-0.000218957
-0.000175479
0.0652873
-0.0652611
-0.000265792
-0.000210997
0.0652411
-0.0652165
-0.000319089
-0.000258446
0.0651898
-0.0651493
-0.000373298
-0.000299703
0.0651065
-0.0650514
-0.000489403
-0.000364641
0.0650045
-0.0649543
-0.00067009
-0.000500281
0.064916
-0.0648776
-0.000805841
-0.000643843
0.0648509
-0.0648229
-0.00093976
-0.000742037
0.0647909
-0.0647416
-0.00117345
-0.00090241
0.064676
-0.0652364
-0.00141968
-0.00111447
0.0662417
-0.0652749
-0.00158087
-0.00151868
0.063324
-0.0598359
9.16709e-05
-0.00102017
0.0596567
-0.0598602
-0.00364639
-0.00139888
-0.0682421
0.0671682
-0.00345043
-0.00418013
0.00523803
-0.068659
0.0682888
-0.0680071
-0.00446181
-0.00536073
-0.0664907
0.0664096
-0.0025489
-0.00145712
-0.0657956
0.0655526
-0.00163769
-0.00216252
-0.0647585
0.0646838
-0.00102644
-0.00099583
-0.0648669
0.064917
-0.000813112
-0.000772451
-0.0649591
0.0650031
-0.000629052
-0.000605089
-0.0650356
0.065071
-0.000514226
-0.000477197
-0.0651016
0.0651413
-0.00042814
-0.000401351
-0.0651742
0.065208
-0.000332728
-0.000324278
-0.0652288
0.0652451
-0.000259494
-0.000251077
-0.0652543
0.0652643
-0.000219558
-0.000208914
-0.0652744
0.0652894
-0.000187072
-0.000182636
-0.0653045
0.0653237
-0.00015131
-0.000146742
-0.065339
0.0653585
-0.00011023
-0.000105509
-0.0653695
0.0653841
-7.2908e-05
-7.93636e-05
-0.0653943
0.0655411
-0.000194181
-6.29413e-05
-0.0650318
0.0651132
0.000631762
0.000436608
-0.0654804
0.0686304
0.00259389
0.000663831
0.00186371
-0.00440875
0.00351529
0.0615944
0.0614017
-0.00155425
-3.08882e-06
0.0652145
0.0658429
-1.25887e-06
9.11852e-06
0.0675719
0.0654058
-1.58011e-05
1.64715e-05
0.0675779
0.0653949
-1.32368e-05
9.99866e-06
0.0675862
0.0654029
-0.000257794
0.00090477
0.0659006
0.0664
-0.00172215
0.00318103
0.0670875
0.0683534
0.0688743
-0.0637323
-0.0573523
-0.00489172
-0.0094712
-0.00445402
-0.0470986
-0.0393545
-0.027469
0.000140825
-0.0635595
6.29665e-05
-0.063538
0.00282282
-0.00201537
0.0668523
0.00450147
0.0658785
0.000389757
-0.0634078
-6.50967e-05
-0.0662111
0.00219056
-0.065907
0.00356344
-0.0672225
0.00501964
-0.0671776
0.00525825
-0.0683816
-0.00488376
0.00462894
-0.0680297
-0.0632344
0.0018067
0.000952146
-0.0631505
0.00134744
-0.0613326
0.00327867
-0.0593229
0.00285538
-0.0569029
-0.00182141
-0.0579012
-0.0125398
0.00724069
0.0648971
-0.0240375
0.0668518
0.0616104
-0.0624712
-3.83657e-05
-0.0679479
0.0676393
0.00364606
-0.0688105
0.0036679
0.0455659
0.0083879
0.000301273
-0.0645791
0.0633344
-0.0643775
-0.00131451
-0.00228681
0.0648149
-0.0653482
-5.59799e-05
-0.00149997
0.0654166
-0.0654098
-8.39609e-05
-6.17243e-05
0.0654063
-0.065403
-0.000111392
-7.7696e-05
0.0653985
-0.0653967
-0.000139955
-0.000110357
0.0653942
-0.0653899
-0.000176686
-0.000137946
0.0653851
-0.0653748
-0.000205887
-0.000159069
0.0653638
-0.0653469
-0.000235833
-0.000186525
0.0653315
-0.0653121
-0.000285211
-0.000226371
0.0652934
-0.0652654
-0.000347134
-0.000277127
0.0652323
-0.0651827
-0.000422883
-0.00033276
0.0651335
-0.065076
-0.000546884
-0.000413886
0.0650341
-0.064998
-0.000706219
-0.000542147
0.0649764
-0.0649574
-0.000824874
-0.000665404
0.064942
-0.0649204
-0.000961432
-0.000757404
0.0648951
-0.0648516
-0.00121692
-0.000927717
0.064798
-0.0647021
-0.00151555
-0.00116807
0.0647724
-0.0644466
-0.00190671
-0.00144839
0.0637602
-0.0623247
-0.00134384
-0.00170653
0.0618197
-0.0622112
-0.00325491
-0.00190391
-0.0115995
-0.0748535
0.0583546
-0.0752164
-0.0106072
-0.00874827
-0.0686004
0.0680839
-0.00394532
-0.0052756
0.0058476
-0.0689536
0.0686209
-0.0689318
-0.00496476
-0.00486322
-0.0663998
0.0653167
-0.00236731
-0.00367661
-0.0662248
0.065776
-0.00210009
-0.00236523
-0.0649306
0.0648928
-0.00159986
-0.00131719
-0.0648579
0.0649044
-0.00107295
-0.000960964
-0.064937
0.0649715
-0.000847652
-0.000805
-0.0650028
0.0650421
-0.000668405
-0.000636314
-0.0650743
0.0651105
-0.000550445
-0.000509392
-0.0651402
0.0651759
-0.000463774
-0.000431075
-0.0652046
0.065235
-0.000363121
-0.000352999
-0.0652556
0.0652745
-0.000278366
-0.000271677
-0.0652856
0.0652972
-0.000231139
-0.000220067
-0.0653055
0.0653164
-0.000197987
-0.000190924
-0.0653273
0.065339
-0.000162956
-0.000157647
-0.0653517
0.065366
-0.000124544
-0.000118242
-0.0653745
0.065389
-8.74477e-05
-8.78296e-05
-0.0653955
0.0652585
-5.72458e-05
-6.93843e-05
-0.0657556
0.0659427
0.000444632
-6.04495e-05
-0.0663546
0.0681727
0.000775759
0.000251975
0.00122589
-0.00448102
0.00187167
0.0642037
0.0641614
-0.00113168
0.000881288
0.0654649
0.0665829
-4.41143e-06
7.37869e-06
0.0675689
0.0662827
-1.29037e-05
1.44854e-05
0.0675763
0.0653894
-1.09037e-05
9.10812e-06
0.067588
0.0654065
-0.000995612
-0.000691498
0.0675877
0.0654135
-0.000705825
0.00124711
0.0665462
0.066956
0.068106
-0.0635285
0.0076854
0.0644554
0.000163437
-0.0633332
0.000448484
-0.0639214
0.00154436
-0.0655649
0.00287939
-0.0652229
0.00365021
-0.065853
0.00481885
-0.0673676
-0.0629684
0.000686217
0.00109922
-0.0629023
0.00156066
-0.0596146
0.00173341
-0.0582009
0.00535959
-0.0675417
0.00572479
-0.069302
-0.00535452
0.00747414
-0.070703
-0.000255984
-0.0584683
-0.0039882
-0.0655126
0.00222931
-0.07031
-0.00713578
-0.0519678
7.01536e-05
-0.0633069
-0.00275518
-0.0698691
0.000344455
-0.0631169
-0.0112504
0.0508642
0.00423313
-0.043847
0.0624807
-0.0632506
0.000731535
0.0189008
0.0641705
-0.0646047
-0.000880326
-0.00136688
0.0654315
-0.0654263
-6.1255e-05
-0.000673114
0.0654273
-0.0654217
-8.95396e-05
-6.06855e-05
0.065417
-0.0654156
-0.000112803
-8.2409e-05
0.065411
-0.065408
-0.000142977
-0.000114985
0.0654057
-0.0654006
-0.000181835
-0.000140203
0.065396
-0.0653881
-0.000213707
-0.00016366
0.0653792
-0.0653672
-0.000247849
-0.000195488
0.0653553
-0.0653401
-0.000300349
-0.000238259
0.0653246
-0.0653014
-0.000370357
-0.000292623
0.0652748
-0.0652362
-0.000461522
-0.000359389
0.065199
-0.0651571
-0.00058875
-0.000451043
0.0651278
-0.0651027
-0.000731304
-0.000571517
0.0650862
-0.0650665
-0.000844503
-0.000681901
0.0650452
-0.065015
-0.000991666
-0.000778767
0.0649873
-0.064952
-0.00125224
-0.000955344
0.0649179
-0.0648819
-0.0015516
-0.00120216
0.0648547
-0.064837
-0.00192438
-0.0014756
0.0646908
-0.0636991
-0.00233552
-0.00185276
0.0630817
-0.0627916
-0.00354504
-0.00252126
0.0664803
-0.0709972
-0.00609025
-0.00505959
-0.00638498
0.00695834
-0.0708833
0.070874
-0.070506
-0.006753
-0.00725898
-0.0698778
0.0684923
-0.00357922
-0.00637435
0.00775654
-0.0706842
0.0701569
-0.0700844
-0.00644681
-0.00507542
-0.0678791
0.0676802
-0.00374638
-0.00425006
-0.0661554
0.0660199
-0.00223187
-0.00215183
-0.0653364
0.0650253
-0.00178892
-0.00168173
-0.0650477
0.0648607
-0.00141281
-0.00133966
-0.0649483
0.0649761
-0.0011008
-0.00104854
-0.0649967
0.0650227
-0.000873594
-0.000825593
-0.0650495
0.0650883
-0.000707241
-0.000663155
-0.0651234
0.065163
-0.000589996
-0.000544493
-0.0651921
0.0652218
-0.000493506
-0.000460178
-0.0652436
0.065267
-0.000386539
-0.000374811
-0.0652845
0.0653032
-0.000297109
-0.000289097
-0.0653152
0.0653281
-0.000244034
-0.000232058
-0.0653358
0.0653445
-0.000206632
-0.000198648
-0.0653532
0.0653593
-0.000169063
-0.000166338
-0.0653707
0.0653785
-0.000132345
-0.00012966
-0.0653863
0.0653989
-0.000100064
-9.56248e-05
-0.0654026
0.0654096
-6.42429e-05
-7.31054e-05
-0.0654142
0.0658987
-3.99389e-05
-6.50087e-05
-0.0661212
0.0662391
0.000657838
2.95447e-05
-0.0677992
0.0681453
0.00332176
-0.00033417
-0.0674991
0.059873
0.0153115
0.00429225
-0.00746069
0.00455122
0.0678066
0.0717114
-0.00200565
0.000100863
0.0661085
0.0667069
-0.00126629
-0.000860534
0.0675917
0.0654175
-1.26832e-05
5.21551e-06
0.0675764
0.0654095
-1.90858e-06
4.25848e-07
0.0675778
0.0653927
2.01007e-06
-1.39392e-06
0.0675874
0.0654089
-1.66814e-06
3.70229e-06
0.0675857
0.0654104
-0.00155245
0.000509415
0.0675892
0.0654073
-0.001603
0.00223985
0.0662154
0.0670124
-0.00305444
0.00745282
0.060057
0.0650639
0.0560755
-0.0632949
0.000190542
-0.0630753
0.000520106
-0.0628971
0.000918301
-0.0636038
0.00222192
-0.0637946
0.00299141
-0.0640256
-0.0626697
0.000800501
0.0012647
-0.0626063
0.0018066
-0.0596878
0.00369745
-0.0657054
0.00493276
-0.0650003
0.00546233
-0.0684087
0.000841432
-0.0592983
-0.000180092
-0.0622765
0.000671303
-0.0689391
0.00698079
-0.0706232
-0.00644199
0.00438429
-0.0680877
0.00568376
-0.0685945
0.00737611
-0.071653
-0.00622906
0.00558648
-0.0690937
0.0209664
-0.0522184
0.0772635
-0.0460114
-0.0691565
0.000445335
0.0678077
-0.0756499
0.000412581
0.00620513
0.0656255
7.77306e-05
-0.0630401
-0.0493822
0.00139694
0.000393842
-0.0628245
0.0633666
-0.0636497
0.00101466
0.0066175
0.0641129
-0.065315
0.000321832
-0.000903754
0.0654393
-0.0654371
-6.34882e-05
-0.000548837
0.0654367
-0.0654328
-9.35295e-05
-6.1005e-05
0.0654288
-0.0654272
-0.00011446
-8.63222e-05
0.0654238
-0.0654199
-0.000146816
-0.000118411
0.0654176
-0.0654126
-0.00018683
-0.000142514
0.0654074
-0.0654006
-0.000220504
-0.000168827
0.0653921
-0.0653816
-0.000258379
-0.000204003
0.0653709
-0.0653575
-0.000313781
-0.000248953
0.0653444
-0.0653264
-0.000388341
-0.000305721
0.065308
-0.0652839
-0.000485661
-0.000377757
0.0652628
-0.0652412
-0.000610323
-0.000472121
0.0652272
-0.0652145
-0.000744066
-0.000585509
0.0652021
-0.06518
-0.000866653
-0.000694235
0.0651524
-0.0651151
-0.00102898
-0.000806353
0.0650864
-0.0650607
-0.00127789
-0.000984055
0.0650449
-0.065031
-0.00156549
-0.00121798
0.0650228
-0.0650203
-0.00192696
-0.00148377
0.0650195
-0.0649224
-0.00243257
-0.00185354
0.0650529
-0.065594
-0.00300401
-0.00239077
0.0675332
-0.0703267
-0.00329669
-0.00312037
0.0710072
-0.0716982
-0.00606196
-0.00657856
-0.00539149
0.00499816
-0.0712597
0.072153
-0.0717238
-0.00582075
-0.00577425
-0.0693567
0.0685394
-0.0056295
-0.00757746
0.00584359
-0.0688894
0.0713194
-0.0719861
-0.00691069
-0.00447937
-0.0677658
0.0671872
-0.00300053
-0.00430185
-0.0656987
0.0648651
-0.00291287
-0.00276155
-0.0648911
0.0649086
-0.0022494
-0.00217778
-0.064937
0.0649662
-0.00181816
-0.00171011
-0.0649889
0.0650068
-0.00143071
-0.00136233
-0.0650243
0.0650428
-0.00111937
-0.00106602
-0.0650618
0.0650901
-0.000901873
-0.000844534
-0.0651191
0.0651585
-0.00074668
-0.000692182
-0.065192
0.065227
-0.000624935
-0.000577991
-0.0652498
0.0652703
-0.000514009
-0.000483023
-0.0652846
0.065301
-0.000403015
-0.000389063
-0.0653148
0.0653317
-0.000314017
-0.000302865
-0.0653431
0.0653559
-0.000256802
-0.000243418
-0.0653626
0.0653701
-0.000214118
-0.000205442
-0.0653766
0.0653802
-0.000172713
-0.000172795
-0.0653895
0.065393
-0.000135785
-0.000138936
-0.0654004
0.0654089
-0.000108597
-0.000103036
-0.0654107
0.0654201
-7.36559e-05
-7.48956e-05
-0.0654216
0.065424
-4.23393e-05
-6.65268e-05
-0.0655663
0.0663415
-0.000117291
-0.000112775
-0.065165
0.0670076
0.00147909
0.000842324