/*--------------------------------*- C++ -*----------------------------------*\
  =========                 |
  \\      /  F ield         | OpenFOAM: The Open Source CFD Toolbox
   \\    /   O peration     | Website:  https://openfoam.org
    \\  /    A nd           | Version:  10
     \\/     M anipulation  |
\*---------------------------------------------------------------------------*/
FoamFile
{
    format      ascii;
    class       volVectorField;
    location    "2.5";
    object      U;
}
// * * * * * * * * * * * * * * * * * * * * * * * * * * * * * * * * * * * * * //

dimensions      [0 1 -1 0 0 0 0];

internalField   nonuniform List<vector> 
8711
(
(1.03634 0.0053664 0)
(1.03607 0.00606338 7.01576e-23)
(1.03553 0.00510031 1.18065e-21)
(1.12291 -0.0104865 -4.12708e-21)
(1.12049 -0.0164939 -6.80079e-22)
(1.12746 -0.0205519 -4.99338e-21)
(1.06646 0.00912361 3.17822e-22)
(1.06823 0.0058917 5.29016e-21)
(0.614915 -0.0487078 -1.22463e-21)
(0.615758 0.0453327 9.60202e-21)
(0.806756 -0.507249 0)
(0.459637 -0.728163 -3.19785e-20)
(1.02448 0.000799736 -1.26489e-21)
(1.02456 -0.000267287 2.12174e-23)
(1.01415 -0.0143163 5.14925e-21)
(1.01377 -0.0120685 0)
(1.11606 0.042885 3.41021e-21)
(1.11787 0.0512621 -3.29886e-21)
(1.12084 0.0549938 -1.85223e-21)
(1.03469 0.00249308 9.32091e-22)
(1.03482 0.00236516 -1.35937e-21)
(1.03483 0.00350308 -6.97856e-22)
(1.03499 0.00303607 0)
(1.0354 0.00479185 -5.1309e-22)
(1.50567 -0.213302 8.33806e-20)
(1.47492 -0.237859 -2.02878e-20)
(1.58195 -0.339372 3.54212e-20)
(1.39823 -0.216757 -6.79751e-20)
(1.02972 -0.0141919 6.29936e-22)
(1.03265 -0.0123653 -8.42356e-22)
(1.03348 -0.0104316 1.03242e-23)
(1.21069 0.180897 1.34733e-19)
(1.04263 0.236611 3.21307e-20)
(1.45366 0.237711 4.97191e-21)
(1.48133 0.1642 -4.0914e-20)
(1.03895 0.0577688 -4.70212e-20)
(1.04707 0.0693487 1.37141e-20)
(1.03894 -0.0763138 0)
(1.02306 -0.0448722 -6.53596e-20)
(1.0278 -0.0476503 9.18393e-20)
(1.01527 -0.0336712 0)
(1.0083 -0.0180724 0)
(-0.331055 -0.127419 1.01218e-20)
(-0.312249 -0.214488 1.37868e-19)
(0.496985 0.690638 4.29485e-20)
(0.802782 0.699754 2.29521e-20)
(-0.0074344 0.116948 -1.32594e-19)
(0.180624 0.11187 4.65191e-20)
(-0.108731 0.138974 -6.76645e-20)
(1.03473 0.000693269 2.65778e-21)
(1.03497 0.000762261 5.60915e-21)
(1.03497 0.000844857 1.81606e-21)
(1.0347 0.000807202 0)
(1.09168 0.00256005 0)
(1.08895 0.00324117 2.55698e-21)
(1.08562 0.00397635 -2.96687e-21)
(1.02313 -0.0022344 1.99449e-21)
(1.02208 -0.00263289 -4.07102e-21)
(1.02394 -0.00129665 0)
(1.023 -0.00137991 4.44798e-21)
(1.03344 -0.000176736 -2.3655e-21)
(1.03336 -0.000332938 -1.20625e-21)
(1.03339 -0.000281131 2.86469e-21)
(1.03349 -0.000225375 1.22577e-21)
(1.05615 0.0104124 -8.97419e-21)
(1.05858 0.0100765 0)
(1.0649 0.0130741 5.02723e-21)
(1.03536 0.00385933 0)
(1.03563 0.00405064 1.51003e-21)
(1.0348 0.00332698 -8.1942e-23)
(1.03328 -0.000103223 4.68062e-21)
(1.03338 -0.000256505 -2.31786e-21)
(1.03322 -0.000269216 8.54793e-22)
(1.03287 -0.000381628 0)
(1.05321 -0.00976918 -8.15094e-21)
(1.05391 -0.013919 0)
(1.05823 -0.0117489 7.4625e-21)
(1.05844 -0.00735506 -5.76181e-21)
(1.03588 0.00373515 -1.43523e-21)
(1.03403 0.000100011 -8.70532e-23)
(1.03414 -6.52858e-05 1.45512e-21)
(1.03364 -0.000495534 4.00737e-22)
(1.03371 -0.000624601 0)
(1.03616 0.0042192 -3.73e-22)
(1.03583 0.00427604 -1.35683e-21)
(1.03538 0.00434243 1.82266e-21)
(1.02247 0.00198338 3.07898e-21)
(1.02213 0.00115673 -1.04223e-20)
(1.01577 0.00804142 1.21368e-21)
(1.01498 0.00613086 9.90414e-24)
(1.07917 -0.000819066 -3.74274e-21)
(1.08115 -0.00132546 2.25979e-21)
(1.08172 0.00622562 1.6061e-21)
(1.18691 -0.0491748 -3.8171e-21)
(1.16425 -0.0385454 3.75683e-21)
(1.10102 0.0712455 1.67032e-20)
(1.08772 0.0771214 -4.09895e-22)
(1.07815 0.0673342 -6.80164e-21)
(1.09004 0.0648438 -2.63397e-21)
(1.12406 0.0749643 3.27447e-23)
(1.11022 0.0558831 0)
(0.989564 -0.16392 -6.36928e-21)
(0.991206 -0.229001 1.59248e-20)
(1.02553 -0.00050047 1.15972e-21)
(1.02673 -0.000537039 5.47672e-22)
(1.02761 -0.000768747 5.25225e-23)
(1.02831 -0.00107793 0)
(1.02854 -0.00152147 7.48272e-22)
(1.02903 -0.00125193 -7.91188e-22)
(1.02962 -0.000794827 -4.79618e-23)
(1.03045 -0.000220856 -4.65807e-23)
(1.03113 0.000155015 3.28186e-22)
(1.0314 -1.13106e-06 -4.46587e-22)
(1.03165 -7.83673e-05 -1.66634e-22)
(1.03172 -0.000152037 -3.18804e-22)
(1.03186 -0.000281885 4.04955e-22)
(1.03215 -0.000130019 1.56057e-22)
(1.03236 -0.000107092 2.93023e-22)
(1.03307 -0.000300421 -5.99024e-22)
(1.03266 -0.000246476 5.68368e-22)
(1.03329 -0.00027162 -1.00989e-21)
(1.0326 -0.000489445 8.05869e-23)
(1.03288 -0.000378682 3.07483e-22)
(1.03216 -0.000227466 -2.11336e-23)
(1.03239 -0.000315709 1.6183e-22)
(1.03138 -0.000311726 1.80435e-22)
(1.0318 -0.000226638 8.66538e-23)
(1.02955 -0.0015733 0)
(1.03051 -0.000920578 4.62525e-23)
(1.02839 -0.00181646 9.85155e-23)
(1.02891 -0.00181478 0)
(1.02759 -0.00130269 -2.65477e-23)
(1.02828 -0.0013644 0)
(1.02566 -0.00133873 -4.53047e-22)
(1.02683 -0.00132621 -5.31129e-23)
(1.02477 -0.00113121 -2.00687e-21)
(1.02668 0.00058763 8.62655e-22)
(1.02553 0.000767216 2.36193e-22)
(1.02841 -0.000584873 7.56865e-22)
(1.02761 0.000104658 -4.18097e-22)
(1.02944 -0.000780431 -7.82691e-22)
(1.02892 -0.0010721 -7.58964e-22)
(1.03042 0.000359498 -7.50459e-22)
(1.02987 -0.000208506 1.21162e-21)
(1.03114 0.000273381 8.50567e-22)
(1.03088 0.0005963 -6.78808e-23)
(1.03152 -1.48068e-05 -2.1086e-23)
(1.03145 0.000137848 -6.65431e-22)
(1.03175 -4.43508e-06 2.74158e-22)
(1.0316 -0.000170748 -4.71216e-22)
(1.03206 -9.06071e-05 0)
(1.03178 8.73e-05 0)
(1.03239 -0.000187639 -2.59806e-22)
(1.02311 8.53202e-05 3.84269e-21)
(1.03302 -0.000381559 1.04269e-21)
(1.0331 -0.000143284 -1.0953e-21)
(1.03261 -0.000129236 -7.67298e-22)
(1.02196 -0.00132554 -2.00548e-21)
(1.02336 0.000754755 -3.61262e-21)
(1.03299 -0.000334656 5.8449e-22)
(1.03327 -0.000274259 5.12283e-22)
(1.03276 -0.000525801 -3.09682e-22)
(1.03296 -0.000484706 -1.89504e-22)
(1.03231 -0.000485045 3.46546e-22)
(1.03261 -0.000475144 -2.92935e-22)
(1.03131 -0.00100271 -1.78672e-22)
(1.03189 -0.000626992 0)
(1.02964 -0.00217647 -1.11864e-21)
(1.03047 -0.00165902 7.47082e-22)
(1.02862 -0.00205905 6.7354e-22)
(1.02914 -0.00227933 3.80793e-22)
(1.02756 -0.00189575 1.30784e-22)
(1.0284 -0.00172718 -8.07563e-22)
(1.02592 -0.00207639 9.02215e-22)
(1.02691 -0.00205112 -1.54694e-22)
(1.02404 -0.00198233 0)
(1.02506 -0.00190249 -9.23278e-22)
(1.03327 -0.000372422 -3.1121e-21)
(1.03285 -0.000116192 9.84256e-22)
(1.02449 0.00155108 4.50811e-22)
(1.02357 0.00158793 -2.84415e-21)
(1.02651 0.0015111 4.18544e-22)
(1.02547 0.00163238 2.17877e-22)
(1.02839 8.1796e-05 1.00366e-22)
(1.02743 0.00091417 2.07009e-23)
(1.03001 -0.000433817 -4.01747e-22)
(1.02927 -0.00050891 3.9304e-22)
(1.03079 0.000641671 1.0523e-21)
(1.03043 4.75107e-05 0)
(1.03128 0.000561015 -1.58751e-22)
(1.03105 0.000880791 -6.5956e-22)
(1.03178 0.000118721 -3.34863e-22)
(1.03163 0.000289713 3.32016e-22)
(1.03195 8.53638e-05 -6.33133e-22)
(1.03188 -3.71518e-05 6.44331e-22)
(1.03198 0.000191117 -3.38143e-23)
(1.03186 0.000208573 -1.82361e-23)
(1.03238 0.000162414 -9.9843e-22)
(1.03224 0.00012539 -4.98686e-22)
(1.03311 -3.41623e-08 -5.31324e-21)
(1.03343 -0.000312696 4.79963e-22)
(1.02203 -5.47295e-05 0)
(1.03254 9.43742e-05 0)
(1.02096 -0.00281354 4.18427e-21)
(1.0208 -0.00134015 -1.05508e-21)
(1.02251 -0.00364441 -3.92088e-21)
(1.02138 -0.00434596 3.65009e-21)
(1.03353 -0.000196759 1.85338e-20)
(1.03359 -0.000309684 -8.06157e-21)
(1.03313 -0.00055515 2.91905e-21)
(1.0209 0.00129542 -2.25908e-21)
(1.02121 0.00251833 -2.19889e-21)
(1.03289 -0.000394851 -1.52213e-22)
(1.03316 -0.000255061 1.21032e-21)
(1.03235 -0.000600629 0)
(1.03275 -0.000366061 1.4423e-22)
(1.03193 -0.000756722 5.79413e-22)
(1.03219 -0.00068196 -6.95955e-22)
(1.03146 -0.000888509 6.1269e-22)
(1.0317 -0.000769705 -7.38611e-22)
(1.03088 -0.00165788 2.03708e-21)
(1.03119 -0.00113097 -1.45883e-21)
(1.03007 -0.0026978 -3.08518e-22)
(1.03052 -0.00227442 -3.65126e-22)
(1.02919 -0.00249486 0)
(1.02979 -0.00267931 -4.89424e-23)
(1.02773 -0.00254308 -1.62946e-21)
(1.0287 -0.00230356 8.65543e-22)
(1.02632 -0.00293115 6.59803e-24)
(1.02715 -0.00282055 8.67708e-22)
(1.0243 -0.00284948 1.01082e-21)
(1.02541 -0.00276092 3.98981e-22)
(1.0234 -0.0031511 -9.26128e-22)
(1.03245 0.000352013 -5.29878e-22)
(1.03249 0.000214897 0)
(1.02288 0.00283056 2.09762e-21)
(1.0197 0.00324164 -2.49824e-23)
(1.02014 0.0044634 3.37463e-21)
(1.0216 0.00355429 -1.1086e-21)
(1.02467 0.00237487 -8.8584e-22)
(1.02388 0.00240064 2.95513e-21)
(1.02621 0.00238585 8.27546e-22)
(1.02541 0.00249292 -1.10405e-21)
(1.0281 0.00105667 -4.75729e-23)
(1.02706 0.00184535 -2.59692e-23)
(1.03031 0.00021155 0)
(1.02925 0.00036812 0)
(1.0314 0.000890327 0)
(1.03097 0.000484752 0)
(1.03181 0.000854739 0)
(1.03164 0.00106871 0)
(1.03216 0.000143136 -1.24026e-21)
(1.03206 0.000475602 1.36529e-21)
(1.03231 5.84311e-05 -4.38925e-24)
(1.03223 -4.62793e-05 0)
(1.03226 0.000345529 3.49837e-23)
(1.03223 0.000231156 1.91589e-23)
(1.03241 0.000403786 1.04824e-21)
(1.03335 -0.000389732 0)
(1.03356 -0.000239518 4.8113e-22)
(1.0327 -0.000100029 0)
(1.03302 -0.000247019 0)
(1.02073 6.42391e-05 5.47619e-21)
(1.0196 -0.00280176 0)
(1.01991 -0.00498113 -1.00589e-20)
(1.01808 -0.00402112 -2.31245e-21)
(1.01901 -0.0061897 1.05871e-20)
(1.03313 -0.000456986 -4.20153e-21)
(1.03258 2.30088e-05 -9.71422e-22)
(1.01939 0.00191862 6.29528e-22)
(1.01938 -0.00128159 0)
(1.02065 0.00567129 5.76154e-22)
(1.01855 0.00490531 0)
(1.01916 0.00617472 -5.06404e-22)
(1.01797 0.00358521 -3.02445e-22)
(1.0179 -0.0027416 5.77941e-22)
(1.01741 -0.0074037 -1.98604e-21)
(1.01668 -0.00584344 6.34729e-22)
(1.01542 -0.0079714 5.42525e-21)
(1.01642 -0.00956836 -5.11256e-21)
(1.01464 -0.0106685 0)
(1.03271 -0.000521152 1.34917e-22)
(1.03297 -0.000485297 -3.13432e-22)
(1.03184 -0.000849649 0)
(1.03237 -0.000623356 1.43154e-22)
(1.03099 -0.000969719 0)
(1.03146 -0.000951811 0)
(1.03031 -0.000957437 1.19519e-24)
(1.03054 -0.000969412 0)
(1.03025 -0.00166057 -2.52552e-24)
(1.03017 -0.00112289 0)
(1.03046 -0.0027904 -2.72135e-24)
(1.03044 -0.00225285 0)
(1.02981 -0.00309203 0)
(1.03041 -0.0030557 0)
(1.02809 -0.00322561 6.47049e-27)
(1.0291 -0.00301598 0)
(1.0268 -0.00372081 0)
(1.02751 -0.00348092 0)
(1.02498 -0.00383151 0)
(1.026 -0.00373765 0)
(1.02319 -0.00487986 2.79484e-22)
(1.02406 -0.00420764 1.88183e-21)
(1.02025 -0.00664875 -1.97392e-21)
(1.02207 -0.00574314 -1.74847e-21)
(1.01838 -0.00884526 2.28006e-21)
(1.02323 0.0037386 -1.57561e-23)
(1.02199 0.00463904 1.60663e-23)
(1.02496 0.00312267 -1.6168e-24)
(1.02424 0.00322991 0)
(1.02617 0.00309274 0)
(1.02558 0.0031063 0)
(1.02766 0.00209365 0)
(1.02683 0.00273804 0)
(1.02986 0.00124686 0)
(1.02874 0.00152874 0)
(1.03142 0.00129743 1.2822e-24)
(1.03077 0.00121796 0)
(1.03201 0.00100568 0)
(1.0318 0.00128035 0)
(1.03232 0.000281369 0)
(1.03221 0.000608086 0)
(1.0326 0.000104046 0)
(1.03245 8.33243e-05 0)
(1.03263 0.000382857 6.33657e-23)
(1.03261 0.000253376 0)
(1.03265 0.000439525 1.25193e-22)
(1.03268 0.000454218 1.31258e-22)
(1.03271 0.00021829 9.86482e-22)
(1.03264 0.000351327 -9.93333e-22)
(1.03353 -0.000317607 4.12019e-22)
(1.03353 -0.000206074 -2.91229e-22)
(1.03328 -0.000428 2.22336e-24)
(1.03341 -0.000268239 -2.69984e-22)
(1.03285 -0.000294853 0)
(1.03309 -0.000416052 -1.22486e-22)
(1.03282 9.69322e-05 -9.5911e-22)
(1.03272 -0.000137703 8.4915e-22)
(1.01932 0.00027266 -3.492e-23)
(1.0169 0.0053506 1.23135e-21)
(1.01757 0.00684541 -1.29252e-21)
(1.03299 0.000419176 0)
(1.03306 0.000284559 0)
(1.01763 0.00198472 -5.88543e-22)
(1.01772 -0.00127494 -1.13425e-21)
(1.01727 -0.0109728 4.45228e-21)
(1.0157 -0.0117615 -1.02473e-20)
(1.01631 0.00390591 9.11873e-22)
(1.01613 -0.00344731 1.22277e-21)
(1.01469 -0.00583205 -6.64986e-22)
(1.01358 -0.0087053 -2.75083e-21)
(1.03311 -0.000464854 1.94249e-24)
(1.03328 -0.000421969 -1.36975e-21)
(1.03266 -0.000864191 0)
(1.03295 -0.000607264 0)
(1.03185 -0.00133975 3.42145e-23)
(1.03232 -0.00111009 1.07325e-22)
(1.03095 -0.00148152 0)
(1.03146 -0.00147991 0)
(1.03014 -0.00117721 -1.19178e-24)
(1.03045 -0.0013844 0)
(1.0299 -0.00145973 5.04703e-24)
(1.0299 -0.00113173 0)
(1.03021 -0.00273924 2.67037e-24)
(1.03013 -0.00199099 0)
(1.02992 -0.00369441 0)
(1.03035 -0.00332804 0)
(1.02859 -0.00392372 5.93859e-24)
(1.02938 -0.00379959 0)
(1.02754 -0.00432022 0)
(1.02812 -0.00407712 0)
(1.0259 -0.00484865 0)
(1.02687 -0.00450498 0)
(1.02368 -0.00624155 -3.2511e-23)
(1.02483 -0.00540871 -2.45752e-22)
(1.02094 -0.00850161 1.30471e-21)
(1.02244 -0.0073497 2.45856e-22)
(1.01919 -0.00997906 -1.49734e-21)
(1.01836 0.00806935 8.71823e-22)
(1.0137 0.00966177 -9.25649e-21)
(1.01473 0.0109181 0)
(1.01656 0.0093366 -1.77844e-21)
(1.02122 0.00667861 5.18234e-22)
(1.01992 0.00728477 8.00266e-22)
(1.02348 0.00476251 0)
(1.02238 0.00575288 0)
(1.02543 0.00371467 -1.63866e-24)
(1.02453 0.00407032 0)
(1.02666 0.00345452 1.50208e-24)
(1.02613 0.00357063 0)
(1.02752 0.00279962 0)
(1.02709 0.0032122 0)
(1.02901 0.00212195 0)
(1.02818 0.00241402 0)
(1.03057 0.00181569 -1.28192e-24)
(1.02987 0.00196567 0)
(1.03146 0.00123423 0)
(1.03111 0.001593 0)
(1.03209 0.000424307 0)
(1.03179 0.000787506 0)
(1.03266 0.000188054 0)
(1.03238 0.000223412 0)
(1.03288 0.000434688 -3.38811e-23)
(1.03281 0.000312309 1.52128e-25)
(1.03293 0.000494169 -2.59583e-22)
(1.03294 0.00049425 -1.66623e-23)
(1.03293 0.000454923 9.93058e-22)
(1.03351 1.42537e-05 -1.07775e-21)
(1.03346 -0.000228637 1.92655e-22)
(1.03357 -0.000109009 4.4183e-22)
(1.03322 -0.000344025 2.48491e-22)
(1.03329 -0.000232782 -5.19776e-22)
(1.03306 -0.00031565 2.41039e-22)
(1.03318 -0.000374698 1.21738e-22)
(1.03297 4.91115e-05 0)
(1.03294 -0.000147761 -3.5423e-22)
(1.03311 0.000118792 0)
(1.01753 0.000320644 0)
(1.03355 -0.000369089 -2.42453e-21)
(1.03342 -0.000144036 -2.73537e-21)
(1.0123 0.0124981 0)
(1.0332 -0.000709418 3.95725e-21)
(1.01587 0.00221954 -1.19555e-21)
(1.01583 -0.00157142 0)
(1.01437 0.00449097 6.32104e-22)
(1.01412 -0.00392417 -6.27255e-22)
(1.03329 8.18442e-06 -1.73204e-21)
(1.01265 0.00732539 -1.34455e-21)
(1.01263 -0.00685081 6.23495e-22)
(1.01195 0.0113172 1.27711e-20)
(1.01168 -0.00997011 0)
(1.03322 -0.000112995 3.3009e-21)
(1.03329 0.000171849 -1.01504e-21)
(1.033 -0.000650655 7.22599e-22)
(1.03335 -0.000499246 -2.43679e-21)
(1.03269 -0.00108679 -2.05124e-22)
(1.03301 -0.000730435 2.98449e-22)
(1.0322 -0.00164458 -3.58157e-23)
(1.03249 -0.00140418 -3.61366e-23)
(1.03163 -0.00188095 0)
(1.03198 -0.00184377 0)
(1.03089 -0.00148755 1.19178e-24)
(1.03125 -0.00173076 0)
(1.0301 -0.00147294 -5.03777e-24)
(1.03045 -0.00133574 0)
(1.02976 -0.00268036 2.65885e-24)
(1.02996 -0.00191836 0)
(1.02966 -0.00397597 0)
(1.02987 -0.00341881 0)
(1.02919 -0.00435112 -5.92106e-24)
(1.02955 -0.00420566 0)
(1.02862 -0.00480232 0)
(1.02902 -0.00449048 0)
(1.02695 -0.00580028 0)
(1.028 -0.00521493 0)
(1.02423 -0.00747409 2.87039e-23)
(1.02562 -0.00651888 1.94252e-24)
(1.02161 -0.0101291 9.77741e-22)
(1.02291 -0.008749 -1.0409e-21)
(1.01874 -0.0125589 0)
(1.02016 -0.0114512 2.67021e-22)
(1.01552 -0.0153999 0)
(1.01723 -0.0137758 0)
(1.01586 0.0135105 1.13477e-21)
(1.01317 0.0154821 -7.02314e-21)
(1.0194 0.00988369 5.56765e-22)
(1.01771 0.0114994 -1.12603e-21)
(1.02204 0.00790818 -2.55055e-21)
(1.02087 0.0088214 1.68662e-23)
(1.02395 0.00589754 -1.36056e-21)
(1.02298 0.00686686 5.03812e-22)
(1.02601 0.00459948 1.61014e-24)
(1.02497 0.00515504 1.90658e-21)
(1.02746 0.00385544 -1.5021e-24)
(1.02685 0.00421837 0)
(1.02815 0.00313944 1.76172e-28)
(1.02789 0.00350199 -2.09736e-28)
(1.02899 0.00273814 0)
(1.02856 0.00291299 0)
(1.03003 0.00238136 0)
(1.02958 0.00262796 0)
(1.03091 0.00162697 0)
(1.03051 0.00205559 0)
(1.03178 0.000816031 0)
(1.03131 0.00115894 0)
(1.03258 0.00047546 0)
(1.0322 0.000562781 0)
(1.03301 0.000481306 -1.57265e-23)
(1.03287 0.000459384 -6.13815e-22)
(1.03316 0.000466674 0)
(1.0331 0.00054146 5.87732e-22)
(1.0332 0.000480982 -4.72923e-22)
(1.03318 0.000483136 0)
(1.03324 0.000466994 1.40079e-21)
(1.01141 -0.0135959 -2.0974e-21)
(1.01348 -0.016804 -4.59001e-21)
(1.03345 -0.000203935 1.15294e-21)
(1.03343 -0.000217953 0)
(1.03348 -0.000185504 -1.02807e-21)
(1.03337 -0.000271719 -1.22224e-22)
(1.03348 -0.000214111 -2.79123e-22)
(1.03321 -0.000173039 0)
(1.03324 -0.000197887 1.21465e-22)
(1.03325 -0.000164485 -4.72503e-22)
(1.03325 -0.000183627 2.41859e-22)
(1.0331 0.000109556 0)
(1.03316 -2.12465e-05 2.33465e-22)
(1.03315 9.9582e-05 0)
(1.01572 0.000305555 0)
(1.01391 0.00252894 -3.08317e-22)
(1.01373 -0.00187817 6.02565e-22)
(1.03322 9.9488e-05 1.55676e-21)
(1.03317 0.000448689 0)
(1.03345 0.000319173 4.95915e-21)
(1.01201 0.00528344 -6.16285e-22)
(1.01183 -0.00455472 0)
(1.01042 0.00817792 2.00431e-21)
(1.01025 -0.00776805 -6.25932e-22)
(1.0096 0.0114754 -7.35126e-22)
(1.00973 -0.0123705 3.82884e-21)
(1.01052 0.0162913 4.78708e-21)
(1.0113 -0.0190135 -2.26489e-21)
(1.00894 -0.0169471 2.31408e-21)
(1.03362 -0.000502163 0)
(1.03355 -0.000440115 -1.36536e-22)
(1.00904 -0.0321353 1.66055e-21)
(1.03336 -0.00064665 1.49553e-21)
(1.03352 -0.00059098 0)
(1.03313 -0.000809163 2.81967e-22)
(1.03327 -0.000872675 2.57366e-22)
(1.03283 -0.00124557 -2.00816e-27)
(1.03305 -0.000946288 -1.51016e-22)
(1.03264 -0.00179788 3.4314e-23)
(1.03273 -0.00156623 -3.71821e-23)
(1.03238 -0.00214373 0)
(1.03253 -0.00203076 0)
(1.03178 -0.00195037 -1.18694e-24)
(1.03214 -0.00204907 0)
(1.03069 -0.00190991 5.02681e-24)
(1.03126 -0.00183339 0)
(1.02977 -0.00284101 -2.65886e-24)
(1.0302 -0.00225803 0)
(1.02959 -0.00396909 -2.79489e-24)
(1.0297 -0.00347268 0)
(1.02961 -0.00441018 1.07943e-26)
(1.02967 -0.00421082 0)
(1.02929 -0.005206 0)
(1.02959 -0.00466419 0)
(1.02757 -0.00692246 0)
(1.02867 -0.00598608 0)
(1.02465 -0.00881759 0)
(1.02613 -0.00783225 0)
(1.02224 -0.011324 2.46817e-26)
(1.02336 -0.00997415 0)
(1.02023 -0.0138832 1.39044e-22)
(1.02122 -0.0126876 -5.34818e-22)
(1.01734 -0.0166062 1.11992e-21)
(1.01893 -0.0150702 -1.37035e-22)
(1.01388 -0.0212986 -1.10729e-21)
(1.01566 -0.018861 0)
(1.00866 -0.0214686 0)
(1.00939 -0.0268267 2.84043e-20)
(1.01182 -0.0239548 -8.6376e-21)
(1.01747 0.0147468 -4.21382e-21)
(1.01317 0.0187292 2.16706e-21)
(1.01538 0.0165432 5.32597e-21)
(1.02068 0.0111648 -4.96725e-22)
(1.01922 0.0127766 1.53317e-21)
(1.02302 0.00891045 0)
(1.02195 0.00996808 9.36924e-23)
(1.02478 0.00674181 -1.67469e-24)
(1.02388 0.00779439 0)
(1.02664 0.00546168 0)
(1.02571 0.00599039 0)
(1.02812 0.00437004 0)
(1.02746 0.00494035 0)
(1.02905 0.00342824 0)
(1.02869 0.00385244 0)
(1.02965 0.00302102 0)
(1.02944 0.00319593 0)
(1.03014 0.0026701 0)
(1.02999 0.00293733 0)
(1.03077 0.00197937 0)
(1.03046 0.00240111 0)
(1.03164 0.00126641 2.2736e-24)
(1.03115 0.00157902 0)
(1.03245 0.000805876 0)
(1.03208 0.000942455 0)
(1.03301 0.00062916 0)
(1.03283 0.000708997 0)
(1.03323 0.000607516 -1.91436e-24)
(1.03314 0.000644206 0)
(1.03323 0.00056428 5.04753e-22)
(1.03336 0.000588981 0)
(1.03338 0.00044644 -7.38454e-22)
(1.03348 -0.000373826 -7.78786e-24)
(1.0336 -0.000525758 2.08842e-21)
(1.03337 -0.000323004 -1.16927e-22)
(1.03346 -0.000337967 -2.45814e-22)
(1.03323 -0.000116893 3.43933e-27)
(1.03328 -0.000215543 1.17796e-22)
(1.03332 -4.79844e-05 2.45301e-28)
(1.03325 -7.15167e-05 0)
(1.03321 0.000181556 -2.02316e-24)
(1.03331 6.95537e-05 1.14684e-22)
(1.03317 0.000235685 -8.76992e-22)
(1.01365 0.000321183 0)
(1.0337 -0.000614875 0)
(1.03341 0.000293681 4.09763e-22)
(1.03356 0.000155937 -1.49544e-21)
(1.01149 0.00301664 -4.86195e-23)
(1.01131 -0.00208367 0)
(1.00946 0.00582477 6.60936e-22)
(1.00923 -0.00502685 6.18806e-22)
(1.00795 0.00909719 0)
(1.0076 -0.00919281 -3.08278e-21)
(1.008 0.0146205 1.80905e-21)
(1.01092 0.021281 6.08572e-22)
(1.00791 0.0194 2.31302e-21)
(1.00654 -0.0133766 1.84979e-21)
(1.00574 -0.0180972 0)
(1.00585 -0.0237692 -2.65623e-21)
(1.00562 -0.0282686 3.06794e-21)
(1.01369 -0.0296635 0)
(1.01271 -0.0347571 -7.93129e-22)
(1.0072 -0.0358889 -1.24633e-20)
(1.03347 -0.000703556 -1.00137e-21)
(1.03357 -0.000531705 0)
(1.03326 -0.000911773 1.33452e-22)
(1.03336 -0.000854252 0)
(1.033 -0.00134311 3.99203e-27)
(1.03315 -0.00104738 -1.35974e-22)
(1.03293 -0.00182364 0)
(1.03296 -0.00160124 -1.44483e-28)
(1.03284 -0.00224232 0)
(1.03287 -0.00208925 0)
(1.03243 -0.00233194 1.18708e-24)
(1.03268 -0.00225863 -1.67338e-28)
(1.03147 -0.0024531 -6.70261e-27)
(1.03199 -0.00231114 0)
(1.03042 -0.00315781 -2.6429e-24)
(1.03089 -0.002735 -1.86851e-28)
(1.02993 -0.00396736 2.79489e-24)
(1.03014 -0.00361047 0)
(1.02966 -0.00442342 2.94485e-24)
(1.02984 -0.00417239 2.07406e-28)
(1.02897 -0.00565018 3.08363e-24)
(1.02943 -0.00483899 2.18142e-28)
(1.02729 -0.00806017 0)
(1.02828 -0.00679186 0)
(1.02498 -0.0100875 0)
(1.02612 -0.00916258 0)
(1.02313 -0.0121703 2.92408e-26)
(1.02397 -0.0110127 0)
(1.02179 -0.0148369 -1.02682e-21)
(1.02245 -0.0135559 1.09381e-21)
(1.01936 -0.01803 -1.49508e-21)
(1.02068 -0.0161682 2.76601e-22)
(1.01659 -0.0234672 3.31161e-21)
(1.01793 -0.0205857 1.34088e-22)
(1.01521 -0.0262306 -2.22831e-21)
(1.0159 0.0201707 5.47381e-22)
(1.00847 0.0243818 -3.42273e-21)
(1.01194 0.0262099 1.69256e-21)
(1.01397 0.0229466 -2.12893e-21)
(1.01939 0.0157845 1.03982e-21)
(1.0177 0.0178207 0)
(1.02218 0.0122938 -6.27486e-23)
(1.02087 0.0138893 -2.61493e-22)
(1.02416 0.00977373 9.06698e-22)
(1.0232 0.0110045 -1.27225e-22)
(1.02583 0.00751434 1.65084e-24)
(1.025 0.0085772 -1.01742e-21)
(1.02727 0.0061784 0)
(1.02659 0.00674374 0)
(1.02852 0.00495018 0)
(1.02791 0.00560209 0)
(1.02964 0.00382184 0)
(1.02915 0.00433578 0)
(1.03027 0.00321415 0)
(1.03008 0.00348637 0)
(1.03056 0.00280167 1.26859e-24)
(1.03051 0.00309414 0)
(1.03102 0.00225025 0)
(1.03079 0.00263088 0)
(1.03174 0.0016838 -4.54156e-24)
(1.03134 0.00193838 0)
(1.03245 0.00115594 0)
(1.03212 0.00128847 0)
(1.03298 0.000782941 0)
(1.03278 0.000978609 0)
(1.03324 0.00067554 1.88717e-24)
(1.03314 0.000785736 0)
(1.03335 0.000529725 2.26986e-22)
(1.03336 0.000638261 -5.21225e-22)
(1.03331 0.000613694 1.27e-23)
(1.03358 -0.00035214 5.12278e-22)
(1.03362 -0.000504153 1.03819e-21)
(1.03358 -0.0003939 -1.28356e-21)
(1.03362 -0.00020796 -4.80548e-22)
(1.0337 -0.000418458 -9.62379e-22)
(1.0334 -0.000217645 0)
(1.03352 -0.000151404 0)
(1.03333 -0.000192728 -3.4393e-27)
(1.03337 -0.000221987 0)
(1.03338 -9.112e-05 2.4364e-28)
(1.03329 -0.000131131 0)
(1.03335 9.74422e-05 5.27054e-23)
(1.03344 -1.29826e-05 0)
(1.03319 8.32042e-05 -8.22487e-22)
(1.03325 0.000167346 5.44962e-22)
(1.0334 8.89325e-05 1.99445e-21)
(1.03323 0.000203973 -2.6389e-21)
(1.01119 0.000526644 -2.89963e-28)
(1.0088 0.00338533 9.63451e-22)
(1.00864 -0.00223004 0)
(1.00675 0.00656041 -6.52187e-22)
(1.00639 -0.00585622 -6.33173e-22)
(1.03337 0.000117547 -7.39157e-22)
(1.03354 -2.89567e-05 3.83398e-22)
(1.0335 0.000124714 3.59328e-22)
(1.00533 0.0111888 -2.61666e-21)
(1.00471 0.0161103 0)
(1.00495 0.0217303 -2.36645e-21)
(1.00979 0.0298679 0)
(1.00579 0.0278337 0)
(1.00464 -0.0102814 -2.48773e-23)
(1.0033 -0.0152147 -1.96701e-22)
(1.00269 -0.0208585 4.01921e-21)
(1.00272 -0.0261782 6.99159e-22)
(1.00361 -0.0334105 1.5753e-21)
(1.03369 -0.000508109 2.56523e-22)
(1.01114 -0.0387611 1.45184e-21)
(1.00512 -0.0408365 6.62409e-21)
(1.01009 -0.0440213 0)
(1.03369 -0.000313824 9.8797e-22)
(1.03369 -0.000328946 -2.63372e-22)
(1.03377 -0.000624236 4.9191e-22)
(1.03377 -0.000601408 -5.09836e-22)
(1.0336 -0.000766481 5.0212e-22)
(1.03365 -0.000588328 -2.5147e-22)
(1.03339 -0.000993656 -4.88553e-22)
(1.03346 -0.000908726 7.37918e-22)
(1.03318 -0.00142966 -3.86224e-27)
(1.03331 -0.00111658 0)
(1.03312 -0.00184971 -5.13124e-28)
(1.03316 -0.00164212 0)
(1.03308 -0.00231073 0)
(1.03307 -0.002124 0)
(1.03283 -0.00262462 0)
(1.03294 -0.00240261 0)
(1.03218 -0.00293665 -2.50377e-24)
(1.03249 -0.00267699 0)
(1.03134 -0.00356714 2.64306e-24)
(1.0317 -0.00319717 0)
(1.03064 -0.0042252 -1.67362e-28)
(1.03097 -0.00392401 1.96245e-28)
(1.02972 -0.00479156 0)
(1.03024 -0.00445842 0)
(1.02827 -0.00628375 -1.57598e-26)
(1.02906 -0.00534224 0)
(1.02665 -0.00885261 0)
(1.02745 -0.00753204 0)
(1.02537 -0.0108296 3.37867e-24)
(1.02595 -0.00997058 0)
(1.02441 -0.0126699 3.57488e-24)
(1.02487 -0.0116189 0)
(1.02343 -0.0156455 3.89743e-26)
(1.024 -0.0140922 0)
(1.02128 -0.0191525 2.66755e-22)
(1.02246 -0.0172246 0)
(1.01903 -0.0247912 3.4531e-23)
(1.02001 -0.0217694 -2.69449e-22)
(1.01702 -0.0309133 -1.25651e-21)
(1.01818 -0.0277893 1.15427e-21)
(1.01483 -0.0398145 0)
(1.01587 -0.0352364 -6.56213e-22)
(1.01532 0.0277281 1.67181e-21)
(1.00757 0.034147 -1.21451e-21)
(1.01213 0.0355059 -1.72467e-21)
(1.01367 0.0313152 -5.49162e-22)
(1.0186 0.0215244 -1.02319e-21)
(1.01695 0.024418 0)
(1.02146 0.0169021 1.28289e-22)
(1.02009 0.0190527 7.90069e-22)
(1.02374 0.0134222 5.88818e-23)
(1.02268 0.0150414 -2.67599e-22)
(1.0253 0.0106543 -1.72182e-24)
(1.02455 0.0120151 -2.47185e-28)
(1.02672 0.00817744 0)
(1.02602 0.00932484 0)
(1.02786 0.00668724 1.55076e-24)
(1.02734 0.00731454 -2.28965e-28)
(1.02891 0.00551846 0)
(1.02837 0.00612754 0)
(1.03005 0.00427373 0)
(1.02952 0.00488258 0)
(1.03076 0.00340311 0)
(1.03051 0.00379751 0)
(1.03107 0.00292951 -4.25664e-27)
(1.03099 0.00322301 0)
(1.03142 0.0024904 0)
(1.03128 0.00282363 0)
(1.03196 0.00199833 2.26795e-24)
(1.03171 0.00222555 0)
(1.03253 0.00143774 0)
(1.03224 0.00156245 0)
(1.03295 0.000954326 0)
(1.03278 0.00118278 0)
(1.03325 0.000792202 -5.38734e-22)
(1.03318 0.000919505 5.72288e-22)
(1.03348 0.000468051 1.20773e-22)
(1.03333 0.000683149 3.97928e-24)
(1.03351 0.000324795 -4.22164e-22)
(1.03342 0.000463729 -1.14319e-22)
(1.03367 -1.10257e-05 0)
(1.03361 -0.000107732 0)
(1.03362 -0.000179629 -9.60681e-22)
(1.03365 3.90033e-05 0)
(1.03373 -0.000121672 0)
(1.0333 -8.71861e-05 0)
(1.03346 4.75018e-05 0)
(1.03337 -0.000289899 0)
(1.03332 -0.000201329 0)
(1.03345 -0.000173277 6.63281e-27)
(1.03337 -0.000238375 0)
(1.03347 -8.57919e-05 -5.51448e-23)
(1.03353 -0.000150578 1.32646e-23)
(1.03329 -0.000133341 6.25655e-22)
(1.03338 -6.7385e-05 0)
(1.03324 4.9355e-05 7.83715e-22)
(1.00848 0.00064082 0)
(1.01408 -0.0445894 -7.07386e-22)
(1.00908 -0.0486625 4.1266e-21)
(1.01327 -0.0494621 1.01314e-20)
(1.00591 0.00375085 6.52946e-22)
(1.00566 -0.00259534 3.07571e-28)
(1.03354 -1.37245e-05 7.83598e-22)
(1.03359 7.02735e-05 -7.64296e-22)
(1.00369 0.00779797 -6.63176e-22)
(1.00216 0.0128457 0)
(1.00166 0.0187717 -1.30603e-21)
(1.00177 0.0250739 -1.26492e-21)
(1.00286 0.0320092 2.51926e-21)
(1.01081 0.0404696 3.79685e-23)
(1.00544 0.0391618 -1.26931e-21)
(1.00115 -0.0115791 -2.02203e-26)
(0.99972 -0.0170964 -1.18985e-21)
(0.99935 -0.0231368 -3.4671e-22)
(0.999724 -0.0302687 7.57744e-22)
(1.00063 -0.0377283 0)
(1.00359 -0.0460175 3.4786e-21)
(1.03383 -0.00025197 1.11922e-21)
(1.03398 -0.000389757 3.78624e-21)
(1.03381 -0.000493499 1.91941e-24)
(1.03362 0.000133498 1.50514e-21)
(1.03362 7.62477e-06 -7.55652e-22)
(1.0337 -9.30507e-05 -1.23901e-21)
(1.00307 -0.00657858 3.16965e-28)
(1.03388 -0.00062027 -4.74204e-22)
(1.03382 -0.00044696 4.95828e-22)
(1.03373 -0.000737992 0)
(1.03374 -0.000569089 2.38502e-22)
(1.03356 -0.00110223 3.61338e-27)
(1.03359 -0.000896202 1.58793e-23)
(1.03337 -0.00148304 4.78025e-30)
(1.03347 -0.00119528 0)
(1.03327 -0.0018646 5.13124e-28)
(1.03336 -0.00170529 0)
(1.03325 -0.00235663 0)
(1.03325 -0.00215958 0)
(1.0331 -0.00278274 0)
(1.03309 -0.00247653 0)
(1.03268 -0.00320592 0)
(1.0328 -0.00287091 0)
(1.03213 -0.00386307 -2.62418e-24)
(1.03233 -0.00347411 -1.8562e-28)
(1.03147 -0.00462741 0)
(1.03179 -0.00424376 0)
(1.03034 -0.0055056 1.75439e-28)
(1.03097 -0.00501329 -2.05633e-28)
(1.02865 -0.0071353 -3.06825e-24)
(1.02952 -0.00618301 2.1599e-28)
(1.0272 -0.00942176 1.93518e-28)
(1.02784 -0.00827979 -2.2666e-28)
(1.02649 -0.0111059 -3.37846e-24)
(1.02677 -0.0103719 -2.37576e-28)
(1.02593 -0.0128931 0)
(1.02623 -0.0118293 0)
(1.02508 -0.0162529 4.16306e-26)
(1.02559 -0.0144455 -2.60448e-28)
(1.02335 -0.0201724 0)
(1.02429 -0.018123 0)
(1.02175 -0.0257388 0)
(1.02237 -0.0227098 0)
(1.02059 -0.0325949 8.9579e-22)
(1.02123 -0.0290873 -5.87267e-22)
(1.01942 -0.0417375 -6.12573e-22)
(1.01984 -0.0368107 9.14193e-22)
(1.00948 -0.054972 -6.42966e-21)
(1.01838 -0.0531084 3.37273e-21)
(1.01906 -0.04694 -6.93148e-21)
(1.01659 0.0362713 5.83223e-22)
(1.00956 0.0460404 -3.77842e-23)
(1.01573 0.0464352 -1.1521e-21)
(1.01606 0.0410117 0)
(1.01863 0.0287085 5.66893e-22)
(1.01748 0.032318 -1.09094e-21)
(1.02124 0.0225818 5.27023e-22)
(1.01994 0.025464 0)
(1.02353 0.0177643 -1.31416e-22)
(1.02244 0.0200378 3.23363e-22)
(1.02521 0.0140524 0)
(1.02444 0.0158072 0)
(1.02628 0.0111197 1.69149e-24)
(1.02578 0.0125153 0)
(1.02736 0.00866848 2.00495e-28)
(1.02679 0.00981889 -2.38521e-28)
(1.02848 0.00709991 -9.64157e-27)
(1.02793 0.00776477 0)
(1.0295 0.00599377 1.82132e-28)
(1.02899 0.00655606 -2.16777e-28)
(1.03049 0.00470617 0)
(1.03003 0.00536548 0)
(1.0312 0.00364068 1.32791e-24)
(1.03092 0.00413441 -1.9615e-28)
(1.03158 0.00306083 -1.26433e-24)
(1.03147 0.0033778 0)
(1.03186 0.00264323 1.4809e-28)
(1.03182 0.00294712 -1.76446e-28)
(1.03223 0.00219248 -2.25506e-24)
(1.03214 0.00240965 0)
(1.03268 0.00167231 0)
(1.03247 0.00177149 0)
(1.03301 0.00116965 -1.99908e-24)
(1.03287 0.00132683 0)
(1.03331 0.000805945 4.84202e-23)
(1.03327 0.00102347 -5.70731e-22)
(1.03363 0.000547849 -1.24285e-22)
(1.03338 0.000834104 5.13974e-22)
(1.03356 0.000493259 1.27359e-21)
(1.03353 0.00044883 0)
(1.03372 0.000153764 -8.29408e-22)
(1.03367 -9.7416e-05 0)
(1.03372 -0.000167848 -1.01248e-21)
(1.03357 -5.70382e-05 1.06638e-22)
(1.03368 -8.97921e-05 0)
(1.03317 -8.34097e-05 0)
(1.03337 -5.31276e-05 -1.0518e-22)
(1.03332 -0.000253822 0)
(1.03318 -0.000152345 0)
(1.03349 -0.000128048 6.15176e-27)
(1.0334 -0.000211134 0)
(1.03352 -0.000149866 1.0337e-22)
(1.03356 -0.000165451 -1.34013e-23)
(1.03347 -0.00025515 2.05792e-22)
(1.03346 -0.000181709 -2.00365e-22)
(1.03346 -0.00011498 0)
(1.0055 0.000638788 0)
(1.03369 0.000241599 0)
(1.00261 0.00439153 0)
(1.00012 0.00903857 -2.0442e-26)
(0.998575 0.0149153 0)
(0.997858 0.0213389 1.98619e-21)