/*--------------------------------*- C++ -*----------------------------------*\
  =========                 |
  \\      /  F ield         | OpenFOAM: The Open Source CFD Toolbox
   \\    /   O peration     | Website:  https://openfoam.org
    \\  /    A nd           | Version:  10
     \\/     M anipulation  |
\*---------------------------------------------------------------------------*/
FoamFile
{
    format      ascii;
    class       volScalarField;
    location    "4.5";
    object      p;
}
// * * * * * * * * * * * * * * * * * * * * * * * * * * * * * * * * * * * * * //

dimensions      [0 2 -2 0 0 0 0];

internalField   nonuniform List<scalar> 
33313
(
-0.0124084
-0.013464
-0.00459762
-0.0124359
-0.00042999
0.00110138
0.00123644
0.0103231
0.00890134
-0.00979434
-0.00610639
-0.392684
-0.392073
-0.395113
-0.00915248
-0.0276282
-0.00566833
-0.289002
-0.389345
-0.336585
-0.244987
0.78534
0.706761
0.850049
0.850879
0.204086
0.209221
0.211435
0.204804
0.195921
0.207563
0.227063
0.23943
-0.479424
-0.493716
-0.482949
-0.463003
-0.00524267
-0.0106374
-0.244995
-0.231606
0.279323
0.264837
-0.466493
-0.410845
-0.431761
0.745784
0.822119
-0.0202032
-0.0194051
0.204416
0.232908
0.230197
0.277109
0.160867
0.187326
0.427919
0.548868
0.437097
0.343256
0.44619
0.839386
0.905745
0.935031
-0.0307663
-0.0559069
-0.199263
-0.138999
-0.140124
-0.643183
-0.630556
-0.621301
-0.417882
-0.273208
-0.596365
-0.593639
-0.542442
-0.571461
-0.147936
-0.20102
0.555449
0.544518
0.566619
-0.327978
-0.349437
-0.378565
-0.477257
-0.457044
-0.454631
0.923261
-0.470637
-0.493591
-0.442798
-0.427573
-0.433879
0.192472
0.181799
-0.00172561
-0.00412659
-0.23202
-0.212888
-0.281156
-0.329089
-0.325832
-0.356856
-0.498994
-0.542183
-0.531538
-0.499123
-0.0859501
0.102463
0.041367
-0.0963795
-0.7023
-0.816747
-0.644303
0.912341
0.8731
-0.314352
-0.309599
-0.440927
-0.448515
-0.445986
-0.0296639
-0.0253716
-0.0479815
0.346213
-0.0498943
-0.0460244
-0.474461
-0.497402
-0.430075
-0.433816
0.115461
0.0956624
-0.0273284
0.0451366
-0.123355
-0.0363805
0.184327
0.0730695
0.300923
-0.0448415
-0.0462244
-0.0538395
0.0324976
0.0284903
0.0276506
0.0241998
0.30633
0.286859
0.316263
0.300683
0.434233
0.439275
0.409122
0.413617
-0.595721
-0.630043
-0.632249
-0.439019
0.10891
0.148785
0.271081
0.166073
-0.365621
-0.377133
-0.379253
-0.469505
-0.00980029
-0.0084677
0.0483862
0.047247
0.0545209
0.0533026
0.203874
0.187414
-0.46489
-0.489608
0.0450593
0.0429732
0.019757
0.0166181
0.14742
0.147756
-0.572063
-0.558917
-0.508479
-0.528748
-0.509505
-0.600631
0.543301
0.518117
-0.546505
-0.554537
0.423062
0.443499
0.446962
0.352064
0.372842
0.361106
0.565514
0.541898
0.159023
0.164862
-0.399393
-0.39534
-0.188053
-0.302443
0.178227
0.173298
-0.00483277
-0.0014711
-0.0043221
-0.00673006
-0.012087
-0.339615
-0.362687
0.349779
0.352862
0.332524
0.327718
-0.287962
-0.290944
-0.266441
0.181324
0.201622
0.17257
-0.425973
-0.423692
-0.426111
-0.139081
-0.0942823
0.0505225
0.0544064
0.0529898
-0.518244
0.238627
0.0460421
0.0450272
0.0440615
0.0432179
0.0423374
0.0414971
0.0406565
0.0398334
0.0390349
0.0382586
0.0375035
0.0367668
0.0360487
0.0353471
0.0346625
0.0339928
0.0333385
0.0326976
0.0320706
0.0314559
0.0308539
0.0302631
0.0296841
0.0291159
0.0285598
0.0280157
0.0274866
0.0269474
0.0264369
0.0258959
0.0253769
0.0248694
0.0461007
0.0472206
0.0471721
0.0470893
0.023868
0.0243566
0.0253972
0.0243851
0.0248949
0.0264191
0.0258981
0.0275003
0.0269597
0.0285909
0.0280425
0.0297187
0.0291496
0.0308904
0.0302989
0.0321091
0.0314936
0.0333789
0.0327373
0.034705
0.0340346
0.0360929
0.0353909
0.0375492
0.0368121
0.0390804
0.0383052
0.0406911
0.039875
0.0424355
0.0415395
0.044192
0.0432937
0.0450884
0.0482098
0.0482196
0.0239146
0.0481345
0.0234408
0.0234057
0.049235
0.0492431
0.0234593
0.0238815
0.0491969
0.0233943
0.0503278
0.0502817
0.0502939
0.0469494
0.0491077
0.048015
0.0450206
0.0459505
0.0431499
0.0440911
0.0414094
0.042266
0.0397476
0.0405686
0.0381765
0.0389504
0.0366897
0.0374236
0.0352751
0.0359739
0.0339256
0.0345927
0.0326349
0.0332733
0.0313973
0.0320098
0.030208
0.030797
0.0290624
0.0296302
0.0279515
0.028504
0.0268881
0.0274005
0.0258665
0.0263694
0.0248538
0.025358
0.0243654
0.0229916
0.0229187
0.0229581
0.0244379
0.0234713
0.0239637
0.0254034
0.0249076
0.0264286
0.0259182
0.0274978
0.0269571
0.0285933
0.0280421
0.0297229
0.0291533
0.0308946
0.0303032
0.0321128
0.0314976
0.033382
0.0327408
0.0347072
0.0340373
0.0360941
0.0353926
0.0375493
0.0368127
0.0390797
0.038305
0.0406878
0.0398733
0.0424163
0.0415321
0.0442451
0.0433268
0.0460765
0.0451536
0.0481736
0.0471084
0.050329
0.0492643
0.0230003
0.0502258
0.0514456
0.0514431
0.0224698
0.0228903
0.0224375
0.0514
0.0234693
0.022994
0.0229896
0.0513654
0.0514249
0.0489928
0.0512501
0.0501111
0.046855
0.0478924
0.0449509
0.0458891
0.0430688
0.044009
0.0413155
0.0421726
0.039668
0.0404818
0.038106
0.0388761
0.0366256
0.0373564
0.0352164
0.0359126
0.0338716
0.0345364
0.032585
0.0332214
0.031351
0.0319618
0.0301648
0.0307523
0.0290212
0.0295882
0.0279136
0.0284635
0.0268528
0.0273736
0.0258335
0.0263338
0.0248331
0.0253291
0.0238565
0.0243427
0.0233659
0.0225262
0.0225022
0.0225315
0.0225364
0.0244413
0.0239599
0.0254114
0.0249243
0.0264332
0.0259163
0.027491
0.0269565
0.0285848
0.0280338
0.0297141
0.0291447
0.0308846
0.030294
0.0321011
0.0314869
0.0333682
0.0327281
0.0346908
0.0340223
0.0360747
0.0353748
0.0375265
0.0367917
0.0390532
0.0382802
0.0406597
0.039846
0.0423688
0.041499
0.0442011
0.0432725
0.0461043
0.0451465
0.0481388
0.047092
0.0503268
0.0492198
0.0526154
0.0526139
0.0514587
0.0525376
0.0524272
0.0525801
0.0526269
0.0225247
0.0538113
0.0538422
0.0220258
0.02199
0.0228616
0.0537497
0.0536447
0.0224037
0.0526069
0.0510816
0.0534581
0.052243
0.0488357
0.0499463
0.0467456
0.0477734
0.0448178
0.0457693
0.0429453
0.043874
0.0412058
0.0420579
0.0395715
0.0403785
0.0380194
0.0387851
0.0365467
0.0372737
0.0351444
0.0358372
0.0338056
0.0344675
0.0325243
0.0331582
0.0312951
0.0319036
0.030113
0.0306985
0.0289734
0.0295383
0.0278728
0.0284185
0.0268141
0.027338
0.0257923
0.0262992
0.0247933
0.0252893
0.0238199
0.0243061
0.0233383
0.0220706
0.0220525
0.0220765
0.0220797
0.0234605
0.0225204
0.0229833
0.0244274
0.0239429
0.0254097
0.0249162
0.0264246
0.02591
0.0274787
0.0269472
0.0285687
0.0280192
0.0296959
0.0291275
0.0308641
0.0302747
0.0320778
0.0314651
0.0333415
0.0327032
0.0346602
0.0339937
0.0360395
0.035342
0.0374859
0.0367539
0.0390066
0.0382366
0.040609
0.039797
0.0423063
0.0414448
0.0441163
0.0431966
0.0460383
0.0450648
0.0480681
0.0470371
0.0502517
0.0491426
0.0525498
0.0513889
0.0550667
0.0549839
0.0537413
0.0220697
0.0548765
0.0547034
0.0538018
0.05386
0.0219528
0.0562797
0.054858
0.0561455
0.0549914
0.0551197
0.0563831
0.0561557
0.0225073
0.022061
0.0220484
0.0559876
0.0538571
0.0532097
0.0557663
0.0544597
0.0508601
0.0520144
0.0486478
0.0497363
0.0465779
0.0475978
0.0446367
0.0455934
0.042797
0.0437038
0.0410747
0.0419213
0.039452
0.0402528
0.0379115
0.0386717
0.0364486
0.0371709
0.035055
0.0357436
0.0337239
0.0343821
0.0324494
0.03308
0.0312263
0.0318318
0.0300496
0.0306325
0.0289155
0.0294775
0.0278209
0.0283634
0.0267646
0.0272881
0.0257426
0.02625
0.0247483
0.0252421
0.0237804
0.0242609
0.0228334
0.0233019
0.0219153
0.0223708
0.0215829
0.0215123
0.02155
0.0216279
0.0216091
0.0216308
0.0216342
0.0216073
0.0216223
0.0234476
0.0229733
0.0244075
0.0239243
0.0253921
0.0248968
0.0264063
0.0258944
0.0274573
0.0269275
0.0285436
0.027996
0.0296675
0.0291007
0.0308323
0.0302446
0.032042
0.0314314
0.0333011
0.0326652
0.0346144
0.0339507
0.0359875
0.0352932
0.0374267
0.0366985
0.0389391
0.0381734
0.0405331
0.0397253
0.0422198
0.0413644
0.0440092
0.0431008
0.0459164
0.0449474
0.0479479
0.0469165
0.0501193
0.049016
0.0524237
0.0512587
0.0536214
0.057632
0.0574825
0.0214693
0.0573287
0.0570693
0.0550826
0.0551571
0.0215956
0.056294
0.056465
0.0575119
0.0577646
0.0588702
0.0590477
0.0586915
0.0218773
0.0214292
0.058424
0.0551469
0.0554197
0.0580993
0.0567399
0.0529212
0.054151
0.0505939
0.0517371
0.0484107
0.0494887
0.0463553
0.0473664
0.0444321
0.0453782
0.0426229
0.0435143
0.0409185
0.0417578
0.0393099
0.0401034
0.0377835
0.0385369
0.0363326
0.0370492
0.0349496
0.0356331
0.0336277
0.0342814
0.0323614
0.032988
0.0311455
0.0317475
0.0299755
0.0305551
0.0288475
0.0294065
0.0277584
0.0282983
0.0267058
0.0272277
0.0256866
0.0261924
0.0246963
0.0251882
0.0237324
0.0242112
0.0227965
0.023259
0.0223352
0.0210762
0.0209842
0.0210301
0.0211473
0.0211169
0.0211912
0.0211754
0.0211896
0.0211935
0.0211679
0.0211797
0.0211524
0.0224901
0.021578
0.0220312
0.0234259
0.0229561
0.0243827
0.0239013
0.025366
0.0248709
0.0263793
0.0258686
0.0274266
0.0268987
0.0285091
0.0279634
0.0296289
0.0290642
0.0307892
0.0302038
0.0319937
0.0313857
0.0332469
0.032614
0.0345534
0.0338932
0.0359187
0.0352284
0.0373488
0.0366253
0.0388507
0.0380904
0.0404328
0.0396311
0.0421054
0.0412573
0.0438767
0.0429782
0.04576
0.0448033
0.047771
0.0467489
0.0499249
0.0488295
0.0522145
0.0510511
0.054655
0.0534154
0.0572606
0.0559355
0.0603114
0.0600584
0.0586342
0.0598059
0.0594134
0.0564198
0.056519
0.0615404
0.0618252
0.0576789
0.0578782
0.0589285
0.0592152
0.020553
0.0209381
0.0205054
0.0601128
0.06053
0.0612464
0.0211302
0.0608111
0.0564989
0.0576388
0.060318
0.0589618
0.0550386
0.0563358
0.052572
0.0537797
0.0502772
0.0514081
0.0481183
0.0491813
0.0460954
0.0470899
0.0442023
0.0451337
0.0424203
0.0432987
0.0407373
0.0415667
0.0391465
0.0399312
0.0376365
0.038382
0.0361995
0.0369093
0.0348287
0.0355063
0.0335176
0.0341661
0.0322608
0.0328828
0.0310533
0.0316512
0.0298909
0.0304668
0.0287697
0.0293254
0.0276866
0.0282236
0.0266389
0.0271585
0.0256239
0.0261276
0.024638
0.0251276
0.0236787
0.0241552
0.022748
0.0232087
0.0218374
0.0222893
0.0213849
0.020646
0.0206026
0.0207164
0.0206835
0.0207539
0.0207398
0.020755
0.0207589
0.0207353
0.0207466
0.0215548
0.021107
0.0206927
0.020714
0.0224673
0.0220087
0.0233972
0.0229287
0.0243517
0.0238713
0.0253327
0.0248387
0.0263436
0.0258343
0.0273871
0.0268612
0.0284651
0.0279217
0.02958
0.0290178
0.0307348
0.0301523
0.0319332
0.0313284
0.0331792
0.03255
0.0344775
0.0338216
0.0358334
0.035148
0.0372526
0.0365347
0.038742
0.0379882
0.0403094
0.0395154
0.0419644
0.0411255
0.0437158
0.0428276
0.0455742
0.0446308
0.0475551
0.0465484
0.0496759
0.0485971
0.0519422
0.0507912
0.0543521
0.0531266
0.0569472
0.0556246
0.0597124
0.0583038
0.0630686
0.0626294
0.0611541
0.0622996
0.0617736
0.0634059
0.0646405
0.0641618
0.0578232
0.0579371
0.0591297
0.0593572
0.0201315
0.0200824
0.0604008
0.0607425
0.0616394
0.0620912
0.0627917
0.0206691
0.063298
0.0638772
0.0650589
0.0662945
0.0657516
0.0648533
0.0626618
0.0208889
0.0204556
0.0641715
0.0579192
0.0597643
0.0611803
0.0571302
0.0584244
0.0545762
0.055835
0.0521581
0.0533463
0.0499002
0.0510107
0.0477853
0.0488256
0.0458042
0.0467788
0.0439445
0.0448602
0.0421909
0.0430554
0.0405326
0.0413503
0.0389625
0.0397373
0.0374707
0.0382074
0.0360496
0.0367518
0.0346927
0.0353636
0.0333938
0.0340364
0.0321477
0.0327645
0.0309498
0.0315431
0.0297959
0.0303676
0.0286823
0.0292343
0.0276059
0.0281396
0.0265641
0.0270808
0.0255541
0.0260553
0.0245729
0.0250601
0.0236186
0.0240925
0.0226918
0.0231515
0.0217867
0.0222365
0.0213368
0.0202208
0.0201772
0.020286
0.0202579
0.0203193
0.0203058
0.0203271
0.0203266
0.0203051
0.0203204
0.0202624
0.0202872
0.0651252
0.0674003
0.0667323
0.020234
0.0215272
0.0206393
0.0210809
0.0224347
0.0219795
0.0233619
0.0228954
0.0243138
0.0238348
0.0252921
0.0247996
0.0262997
0.0257921
0.0273389
0.0268153
0.0284119
0.0278711
0.0295211
0.0289619
0.0306695
0.0300903
0.0318606
0.0312596
0.0330983
0.0324734
0.0343871
0.0337361
0.0357319
0.0350522
0.0371385
0.0364272
0.0386133
0.037867
0.0401637
0.0393786
0.0417984
0.04097
0.0435262
0.0426501
0.0453571
0.0444282
0.0473037
0.0463151
0.0493812
0.0483253
0.0516017
0.0504733
0.0539698
0.052767
0.0565001
0.055214
0.0592428
0.0578473
0.0620936
0.060648
0.0635866
0.0593022
0.0594217
0.0200308
0.0606591
0.0609019
0.0619786
0.0623427
0.063248
0.0637298
0.0644214
0.0655019
0.0657219
0.0664854
0.0667992
0.0680297
0.0683937
0.0691437
0.0202056
0.0673231
0.0648898
0.0206079
0.0201732
0.066431
0.0594016
0.0619537
0.0633823
0.0591382
0.0605034
0.0565338
0.0578056
0.0540425
0.0552724
0.0516833
0.0528432
0.0494818
0.0505639
0.0474197
0.0484344
0.0454827
0.0464364
0.0436589
0.0445575
0.0419364
0.0427858
0.0403056
0.0411101
0.0387586
0.0395222
0.037287
0.0380139
0.0358835
0.0365772
0.0345419
0.0352054
0.0332566
0.0338926
0.0320225
0.0326335
0.0308352
0.0314233
0.0296907
0.0302578
0.0285855
0.0291334
0.0275166
0.0280467
0.0264812
0.0269949
0.0254769
0.0259754
0.0245011
0.0249856
0.0235519
0.0240232
0.0226284
0.0230871
0.0217277
0.0221748
0.0208413
0.0212802
0.0199771
0.0204054
0.0197178
0.0196132
0.0196661
0.0198016
0.0197631
0.0198592
0.0198348
0.0198903
0.0198772
0.0199002
0.0198981
0.0198824
0.0198957
0.0198394
0.0198642
0.0197792
0.0198116
0.0214943
0.0210495
0.0223957
0.0219414
0.0233204
0.0228552
0.0242693
0.0237918
0.0252443
0.0247535
0.0262479
0.0257424
0.0272822
0.0267611
0.0283496
0.0278117
0.0294524
0.0288964
0.0305935
0.030018
0.0317763
0.0311795
0.0330045
0.0323845
0.0342824
0.033637
0.0356148
0.0349416
0.0370071
0.0363032
0.0384653
0.0377276
0.0399965
0.0392214
0.0416084
0.0407919
0.0433097
0.0424474
0.0451097
0.0441968
0.0470192
0.0460501
0.0490505
0.048019
0.0512153
0.0501156
0.0535242
0.0523514
0.0559899
0.054736
0.0586469
0.0572953
0.0614428
0.0600251
0.0644103
0.0629001
0.0675693
0.0659605
0.0701285
0.0692214
0.0195586
0.0608562
0.0609748
0.0197466
0.0622754
0.0625187
0.063642
0.0640155
0.0649268
0.0654497
0.0661391
0.0672167
0.0681845
0.0680137
0.0690067
0.0686222
0.0698614
0.0709915
0.0719576
0.0709248
0.0696503
0.0669486
0.0199229
0.0195021
0.0685122
0.0609589
0.0639465
0.065435
0.061138
0.06255
0.0584116
0.0597631
0.0558708
0.0571259
0.0534527
0.0546498
0.0511662
0.0522901
0.0490295
0.0500805
0.0470223
0.0480108
0.0451314
0.046063
0.0433468
0.0442265
0.0416584
0.0424912
0.0400571
0.0408474
0.0385354
0.0392868
0.0370858
0.0378021
0.0357016
0.0363859
0.0343769
0.0350322
0.0331064
0.0337352
0.0318855
0.0324901
0.0307098
0.0312923
0.0295756
0.0301378
0.0284796
0.029023
0.0274188
0.027945
0.0263907
0.0269009
0.0253927
0.0258881
0.0244226
0.0249043
0.0234785
0.0239474
0.0225588
0.0230158
0.0216612
0.0221075
0.0207856
0.0212187
0.0203524
0.0192015
0.0190834
0.0191441
0.0193074
0.0192585
0.0193881
0.0193526
0.0194378
0.0194159
0.0194676
0.0194551
0.0194773
0.0194751
0.0194646
0.0194745
0.0194228
0.0194453
0.0193634
0.0193943
0.0698208
0.0726984
0.0714974
0.0193274
0.020571
0.0197115
0.0201381
0.0214531
0.021011
0.0223512
0.0218989
0.0232728
0.0228092
0.0242182
0.0237425
0.0251894
0.0247005
0.0261884
0.0256853
0.0272173
0.026699
0.0282783
0.0277437
0.029374
0.0288217
0.030507
0.0299357
0.0316805
0.0310885
0.0328981
0.0322836
0.0341639
0.0335248
0.0354825
0.0348164
0.0368588
0.0361631
0.0382986
0.0375704
0.0398085
0.0390444
0.0413955
0.0405919
0.0430676
0.0422204
0.0448334
0.0439383
0.0467028
0.0457546
0.0486859
0.0476796
0.0507928
0.0497233
0.0530344
0.0518962
0.0554248
0.0542097
0.0579867
0.0566839
0.0607001
0.0593281
0.0635826
0.0621239
0.0666166
0.0650842
0.0681918
0.0624854
0.0626018
0.0639641
0.06421
0.0653773
0.0657644
0.0186772
0.0190237
0.0186161
0.0666795
0.0672511
0.0679211
0.0690239
0.0699698
0.0707416
0.0701246
0.0714317
0.0705501
0.0718167
0.0729416
0.0738627
0.0732326
0.0745602
0.0192873
0.0717297
0.0687799
0.0196689
0.0192479
0.0703104
0.0625912
0.0657964
0.0672766
0.0629593
0.0643511
0.0602332
0.061596
0.0576218
0.0589066
0.0551525
0.056371
0.0528148
0.053968
0.0506123
0.0516961
0.0485437
0.0495623
0.0465939
0.0475548
0.0447522
0.0456601
0.0430098
0.0438692
0.0413578
0.0421731
0.0397881
0.0405632
0.0382937
0.039032
0.0368679
0.0375727
0.0355045
0.0361788
0.0341981
0.0348446
0.0329438
0.0335648
0.031737
0.0323347
0.0305739
0.0311503
0.0294509
0.0300076
0.0283648
0.0289035
0.0273129
0.0278348
0.0262925
0.0267989
0.0253014
0.0257935
0.0243375
0.0248163
0.023399
0.0238652
0.022484
0.0229387
0.0215909
0.0220349
0.0207205
0.0211518
0.0198665
0.0202907
0.019444
0.0187979
0.0187349
0.0188997
0.0188529
0.0189737
0.018941
0.0190216
0.0190001
0.0190508
0.0190386
0.0190597
0.0190578
0.0190496
0.0190573
0.0190113
0.0190345
0.0189527
0.0189843
0.0188744
0.0189142
0.0205297
0.0200981
0.0214054
0.0209642
0.0223011
0.0218507
0.0232192
0.0227573
0.0241608
0.023687
0.0251275
0.0246409
0.0261213
0.0256209
0.0271442
0.0266291
0.0281984
0.0276673
0.0292862
0.028738
0.0304102
0.0298435
0.0315735
0.0309868
0.0327796
0.032171
0.0340321
0.0333998
0.0353354
0.0346772
0.0366943
0.0360076
0.038114
0.0373962
0.0396006
0.0388486
0.0411605
0.040371
0.0428011
0.0419703
0.04453
0.0436541
0.046356
0.0454304
0.048288
0.0473083
0.0503346
0.0492965
0.0525053
0.0514039
0.0548124
0.0536408
0.0572713
0.0560223
0.059886
0.0585596
0.0626552
0.0612541
0.0655617
0.064103
0.0686214
0.0670723
0.0718332
0.0702157
0.0750316
0.0734808
0.0641823
0.0643043
0.065722
0.0659801
0.0182783
0.0182168
0.0671879
0.0675984
0.0685487
0.0691378
0.069786
0.0708988
0.0718396
0.0725052
0.0731441
0.018833
0.0718533
0.0734067
0.072565
0.0738703
0.0749851
0.0758671
0.0765218
0.0769003
0.075184
0.0733578
0.070225
0.0189607
0.0185522
0.071708
0.0642956
0.067362
0.0687867
0.0645791
0.0659546
0.0618757
0.0632259
0.0592574
0.0605527
0.0567496
0.0579866
0.0543792
0.0555474
0.05214
0.053244
0.0500241
0.0510669
0.0480262
0.0490111
0.0461367
0.0470686
0.044347
0.0452299
0.0426493
0.0434872
0.0410359
0.0418326
0.0394998
0.0402587
0.0380345
0.0387587
0.0366341
0.0373266
0.035293
0.0359565
0.0340061
0.0346431
0.032769
0.0333817
0.0315775
0.0321679
0.0304279
0.0309977
0.0293169
0.0298678
0.0282415
0.028775
0.027199
0.0277163
0.026187
0.0266894
0.0252034
0.0256919
0.0242462
0.0247216
0.0233135
0.0237769
0.0224039
0.0228559
0.021516
0.0219573
0.0206505
0.02108
0.0198012
0.0202246
0.0193772
0.0183966
0.01834
0.0184946
0.0184487
0.0185627
0.0185319
0.0186104
0.0185889
0.0186391
0.0186272
0.0186476
0.0186458
0.0186377
0.0186448
0.0186057
0.0186251
0.0185463
0.0185784
0.0184678
0.0185091
0.073402
0.0769284
0.0750007
0.0184265
0.0196243
0.0187895
0.0192041
0.020481
0.0200518
0.0213526
0.0209138
0.0222454
0.0217965
0.0231597
0.0226998
0.024097
0.0236254
0.0250588
0.0245748
0.026047
0.0255495
0.0270634
0.0265516
0.02811
0.0275828
0.0291892
0.0286455
0.0303035
0.0297419
0.0314558
0.0308748
0.0326492
0.0320472
0.0338873
0.0332625
0.0351742
0.0345245
0.0365142
0.0358373
0.0379122
0.0372057
0.0393738
0.0386348
0.0409047
0.0401303
0.0425116
0.0416983
0.0442013
0.0433457
0.0459812
0.0450795
0.0478591
0.0469075
0.0498426
0.0488373
0.0519393
0.0508764
0.0541591
0.0530333
0.0565115
0.0553184
0.0590048
0.05774
0.0616482
0.0603077
0.0644287
0.0630266
0.067328
0.0658503
0.0703259
0.0688345
0.0718556
0.0659565
0.0660859
0.0181528
0.0675627
0.0678354
0.0690851
0.0695223
0.0704967
0.0711129
0.0717688
0.0728654
0.0737714
0.0744816
0.0749612
0.075139
0.0731356
0.0749975
0.0746847
0.0760254
0.0771444
0.0779976
0.0785883
0.0788439
0.0766116
0.0787341
0.0183782
0.0745768
0.0711667
0.0187415
0.0183288
0.0724769
0.0660781
0.0684967
0.0698695
0.065887
0.0671945
0.063274
0.0645867
0.0607024
0.0619799
0.0582055
0.0594406
0.0558258
0.0570002
0.0535715
0.0546833
0.0514341
0.052489
0.0494048
0.0504062
0.0474801
0.0484298
0.0456534
0.046555
0.0439179
0.0447747
0.0422669
0.0430823
0.0406941
0.0414712
0.0391932
0.0399351
0.0377587
0.0384681
0.0363852
0.0370647
0.0350676
0.0357197
0.0338015
0.0344284
0.0325827
0.0331865
0.0314074
0.0319899
0.0302722
0.0308351
0.029174
0.0297187
0.0281099
0.0286379
0.0270775
0.0275899
0.0260745
0.0265725
0.0250988
0.0255834
0.0241486
0.0246207
0.0232223
0.0236826
0.0223184
0.0227676
0.0214358
0.0218745
0.020574
0.0210024
0.01973
0.0201495
0.0188942
0.019309
0.0180845
0.018486
0.0178881
0.0177572
0.0178239
0.0180015
0.0179485
0.0180917
0.0180503
0.0181569
0.0181268
0.0182041
0.0181828
0.0182321
0.0182205
0.0182404
0.0182387
0.0182301
0.0182375
0.018201
0.0182181
0.018145
0.018177
0.0180694
0.0181118
0.017975
0.0180228
0.019576
0.0191575
0.0204263
0.0199979
0.0212951
0.0208583
0.0221842
0.0217372
0.0230945
0.0226367
0.0240271
0.0235579
0.0249836
0.0245023
0.0259656
0.0254713
0.0269749
0.0264667
0.0280134
0.0274904
0.0290834
0.0285444
0.0301873
0.029631
0.0313276
0.0307527
0.0325075
0.0319125
0.0337302
0.0331133
0.0349994
0.0343588
0.0363192
0.0356528
0.0376942
0.0369996
0.0391291
0.0384038
0.0406293
0.0398707
0.0422005
0.0414057
0.0438488
0.0430147
0.0455805
0.0447039
0.0474021
0.0464797
0.0493197
0.0483486
0.0513399
0.0503167
0.0534697
0.0523907
0.0557149
0.0545777
0.0580805
0.0568823
0.0605747
0.0593111
0.063197
0.0618714
0.0659183
0.064547
0.0687303
0.0673188
0.0715733
0.0701408
0.0744684
0.0730226
0.078254
0.0759113
0.0176876
0.0678164
0.0679536
0.0179245
0.0694935
0.0697831
0.0710761
0.0715394
0.0725367
0.073183
0.0738412
0.074953
0.0758263
0.0764972
0.0768768
0.0769311
0.0766846
0.0737834
0.0760092
0.076916
0.0782779
0.0793872
0.0802205
0.0807304
0.0808556
0.0806093
0.079928
0.077318
0.0750551
0.0714574
0.0180174
0.0176181
0.0725402
0.0679475
0.0691782
0.0703394
0.0667793
0.0679769
0.0643322
0.0655557
0.061882
0.063105
0.0594519
0.060659
0.0571092
0.0582679
0.0548703
0.0559767
0.0527353
0.0537901
0.0506993
0.0517054
0.0487576
0.0497168
0.046908
0.0478216
0.0451462
0.0460165
0.0434667
0.0442965
0.0418642
0.0426562
0.0403336
0.0410903
0.0388696
0.0395936
0.0374672
0.038161
0.0361219
0.0367878
0.0348291
0.0354692
0.0335849
0.0342012
0.0323854
0.0329798
0.0312272
0.0318014
0.0301072
0.0306627
0.0290224
0.0295606
0.0279703
0.0284925
0.0269486
0.0274558
0.025955
0.0264484
0.0249878
0.0254683
0.0240451
0.0245135
0.0231255
0.0235826
0.0222275
0.0226739
0.0213502
0.0217864
0.0204923
0.0209189
0.0196521
0.0200701
0.0188252
0.019237
0.0184187
0.0173685
0.0172264
0.0173016
0.0175023
0.0174368
0.0176098
0.017558
0.0176927
0.0176541
0.0177565
0.0177267
0.0178026
0.0177819
0.0178298
0.0178186
0.017838
0.0178363
0.0178274
0.017835
0.0177989
0.0178153
0.0177496
0.0177776
0.0176747
0.017714
0.0175797
0.0176285
0.07472
0.078734
0.0759064
0.0175265
0.0186899
0.0178719
0.0182789
0.0195204
0.0191039
0.0203668
0.0199408
0.0212326
0.0207974
0.0221178
0.0216727
0.0230236
0.0225681
0.0239512
0.0234846
0.0249019
0.0244236
0.0258773
0.0253864
0.026879
0.0263748
0.0279089
0.0273904
0.0289691
0.0284352
0.0300618
0.0295113
0.0311894
0.0306211
0.0323549
0.0317673
0.0335612
0.0329528
0.0348117
0.0341808
0.0361102
0.0354548
0.0374606
0.0367787
0.0388675
0.0381568
0.0403354
0.0395935
0.0418693
0.0410938
0.0434744
0.0426627
0.045156
0.0443054
0.0469193
0.0460272
0.0487692
0.0478332
0.0507106
0.0497282
0.0527482
0.0517172
0.0548856
0.0538044
0.0571246
0.0559924
0.0594672
0.0582829
0.0619142
0.0606778
0.0644564
0.0631753
0.0670496
0.065752
0.0696835
0.0683657
0.0722684
0.0709758
0.0734921
0.0697687
0.0699139
0.071519
0.0718279
0.0731681
0.0736561
0.0168428
0.0171526
0.0167667
0.0746763
0.0753617
0.0760132
0.0771356
0.0780102
0.0785887
0.0788763
0.0787833
0.0783592
0.0774514
0.0735501
0.0762151
0.0792574
0.0806335
0.0817391
0.0825446
0.0829738
0.0829671
0.0825232
0.0815927
0.0770687
0.0801406
0.0174723
0.0744805
0.0709036
0.017819
0.0174171
0.0716344
0.0699095
0.0691645
0.0700779
0.0671323
0.0681497
0.0649359
0.0660262
0.0627004
0.0638132
0.0604172
0.0615613
0.0581651
0.0592828
0.0559877
0.0570667
0.0538894
0.0549285
0.0518729
0.0528708
0.0499387
0.0508956
0.0480857
0.0490021
0.0463128
0.0471894
0.0446173
0.0454556
0.0429953
0.0437974
0.0414429
0.0422107
0.0399559
0.0406915
0.03853
0.0392356
0.0371611
0.0378388
0.0358452
0.0364968
0.0345783
0.0352059
0.0333569
0.0339622
0.0321776
0.0327622
0.0310374
0.0316029
0.0299332
0.030481
0.0288626
0.0293939
0.0278231
0.0283391
0.0268126
0.0273144
0.025829
0.0263176
0.0248707
0.0253468
0.0239359
0.0244005
0.0230233
0.0234769
0.0221316
0.0225749
0.0212596
0.0216932
0.0204064
0.0208308
0.0195704
0.0199864
0.0187508
0.0191583
0.0179476
0.0183476
0.0175494
0.0169871
0.0169147
0.0171152
0.0170533
0.0172183
0.0171699
0.017298
0.0172604
0.0173608
0.0173316
0.0174058
0.0173856
0.0174323
0.0174213
0.0174402
0.0174386
0.0174297
0.0174373
0.0174011
0.0174175
0.0173547
0.0173805
0.0172835
0.0173225
0.0171907
0.0172398
0.01708
0.0171376
0.0186322
0.0182244
0.0194595
0.0190441
0.020303
0.0198791
0.0211651
0.0207318
0.0220462
0.0216033
0.0229473
0.0224942
0.0238695
0.0234057
0.024814
0.0243389
0.0257824
0.0252952
0.0267761
0.026276
0.0277968
0.027283
0.0288466
0.028318
0.0299274
0.029383
0.0310417
0.0304803
0.0321919
0.0316122
0.0333809
0.0327814
0.0346118
0.033991
0.0358878
0.035244
0.0372126
0.0365439
0.0385901
0.0378946
0.0400243
0.0392999
0.0415194
0.0407641
0.0430798
0.0422913
0.0447098
0.0438859
0.0464132
0.0455521
0.0481938
0.0472937
0.0500548
0.0491142
0.051999
0.0510165
0.0540275
0.0530027
0.0561399
0.0550734
0.0583335
0.0572269
0.0606032
0.0594592
0.0629416
0.0617653
0.0653188
0.064127
0.0677192
0.06652
0.0699935
0.0688871
0.0721165
0.0710767
0.0740616
0.0731258
0.0781629
0.0749089
0.0718189
0.0719733
0.07365
0.073977
0.0164681
0.0163907
0.0753642
0.0758841
0.0769263
0.0776567
0.078292
0.0794221
0.0802738
0.0808006
0.0809391
0.0807208
0.0800657
0.0789599
0.0773991
0.0170233
0.0722849
0.0753641
0.0817159
0.0831097
0.0842072
0.0849524
0.0852686
0.0851242
0.084473
0.0832844
0.0815365
0.0170778
0.0166912
0.0728669
0.069293
0.0792276
0.0756503
0.0696527
0.0719709
0.0682524
0.0688053
0.0668082
0.0675779
0.0650074
0.0659431
0.0630453
0.0640416
0.0610123
0.0620407
0.0589246
0.0599692
0.0568622
0.057888
0.0548467
0.0558482
0.0528858
0.0538589
0.0509875
0.0519286
0.0491559
0.0500633
0.0473924
0.0482657
0.0456971
0.0465363
0.0440689
0.0448748
0.0425056
0.0432794
0.0410045
0.0417475
0.0395623
0.0402763
0.0381758
0.0388624
0.0368414
0.0375023
0.0355559
0.0361928
0.0343158
0.0349304
0.0331182
0.0337119
0.03196
0.0325344
0.0308384
0.0313948
0.0297508
0.0302905
0.0286949
0.0292191
0.0276686
0.0281782
0.0266698
0.0271659
0.0256967
0.0261801
0.0247476
0.0252193
0.0238211
0.0242816
0.0229158
0.0233659
0.0220306
0.0224708
0.0211644
0.0215952
0.0203162
0.0207381
0.0194851
0.0198986
0.018671
0.0190759
0.0178731
0.0182712
0.0174737
0.0166074
0.0165389
0.0167297
0.0166722
0.0168292
0.0167825
0.0169079
0.0168706
0.0169696
0.0169409
0.0170135
0.0169938
0.0170393
0.0170287
0.017047
0.0170455
0.0170366
0.0170441
0.017008
0.0170245
0.0169624
0.0169874
0.0168975
0.0169327
0.0168055
0.0168546
0.0166971
0.0167533
0.072185
0.0762895
0.0725423
0.0166379
0.0177603
0.0169668
0.0173624
0.0185701
0.0181643
0.019394
0.0189799
0.0202346
0.0198122
0.0210929
0.0206615
0.0219696
0.0215289
0.0228657
0.0224152
0.0237822
0.0233214
0.0247202
0.0242485
0.0256811
0.0251978
0.0266663
0.0261706
0.0276774
0.0271685
0.0287162
0.0281932
0.0297846
0.0292466
0.0308848
0.0303306
0.0320191
0.0314476
0.03319
0.0325998
0.0344002
0.03379
0.0356528
0.0350211
0.036951
0.0362961
0.038298
0.0376182
0.0396973
0.038991
0.0411525
0.0404178
0.0426669
0.0419021
0.0442438
0.0434474
0.0458863
0.0450568
0.0475965
0.0467329
0.0493762
0.0484777
0.0512261
0.0502925
0.0531454
0.0521773
0.0551313
0.0541304
0.0571779
0.0561476
0.0592755
0.0582211
0.0614094
0.0603394
0.0635542
0.0624818
0.0656889
0.0646258
0.0676946
0.0667215
0.0695265
0.0686376
0.0710688
0.0703607
0.0716819
0.0739756
0.0741396
0.0163119
0.0758908
0.0762397
0.0776768
0.078231
0.0792898
0.0800721
0.0806866
0.0818156
0.0826317
0.0830821
0.0831156
0.0826917
0.081821
0.0804556
0.0785894
0.0762289
0.0699433
0.0733619
0.0843034
0.0857113
0.0867825
0.0874465
0.087642
0.0873393
0.0864783
0.0849902
0.0829007
0.0801723
0.0727688
0.0768123
0.0165739
0.0700231
0.0666438
0.0169061
0.0165141
0.0665108
0.0741396
0.0663691
0.0666015
0.0655921
0.0660427
0.0643981
0.0650608
0.0628553
0.0636597
0.0611349
0.0620172
0.0593024
0.0602276
0.0574259
0.0583664
0.0555481
0.0564856
0.0536893
0.0546154
0.0518641
0.0527717
0.0500837
0.0509678
0.0483547
0.0492125
0.0466806
0.0475107
0.0450634
0.0458649
0.0435033
0.0442763
0.0419996
0.0427446
0.0405507
0.0412685
0.0391543
0.0398461
0.037808
0.0384751
0.0365091
0.0371528
0.0352549
0.0358766
0.0340425
0.0346437
0.0328694
0.0334513
0.031733
0.0322968
0.0306307
0.0311777
0.0295604
0.0300917
0.0285199
0.0290366
0.0275072
0.0280102
0.0265205
0.0270107
0.0255583
0.0260365
0.0246189
0.0250858
0.023701
0.0241574
0.0228034
0.0232497
0.0219249
0.0223618
0.0210647
0.0214926
0.0202218
0.0206412
0.0193956
0.0198067
0.0185856
0.0189886
0.01779
0.0181862
0.0170046
0.0173959
0.0162347
0.0166164
0.0160967
0.0159424
0.0160192
0.0162332
0.0161685
0.0163503
0.0162956
0.0164445
0.0163995
0.0165222
0.0164853
0.0165828
0.0165547
0.0166257
0.0166065
0.0166509
0.0166405
0.0166583
0.0166569
0.0166479
0.0166553
0.0166197
0.016636
0.0165742
0.016599
0.0165122
0.0165453
0.0164259
0.016473
0.0163181
0.0163753
0.0161934
0.0162555
0.017698
0.0173019
0.0185037
0.0180991
0.0193244
0.0189121
0.0201616
0.019741
0.021016
0.0205867
0.0218882
0.0214498
0.022779
0.0223313
0.0236895
0.0232318
0.0246207
0.0241525
0.0255737
0.0250944
0.02655
0.0260589
0.027551
0.0270473
0.0285783
0.0280613
0.0296337
0.0291024
0.0307192
0.0301726
0.0318369
0.0312739
0.0329889
0.0324085
0.0341778
0.0335787
0.0354062
0.034787
0.0366767
0.0360361
0.0379923
0.0373288
0.0393558
0.0386679
0.0407699
0.0400564
0.0422373
0.0414968
0.0437604
0.0429918
0.0453409
0.0445434
0.0469801
0.0461532
0.048678
0.0478218
0.0504336
0.0495488
0.0522441
0.0513323
0.0541045
0.0531686
0.0560061
0.0550509
0.0579362
0.0569687
0.0598748
0.0589062
0.0617937
0.0608384
0.0636613
0.062737
0.0654035
0.0645545
0.0669269
0.0662007
0.0681129
0.0675883
0.0687914
0.068537
0.0689144
0.0689586
0.0728302
0.0687051
0.0158583
0.0762459
0.076421
0.0161268
0.0782516
0.0786242
0.0801112
0.0807049
0.0817782
0.0826156
0.0831994
0.0843235
0.0850899
0.0854461
0.0853443
0.0847423
0.0835953
0.0819494
0.0797611
0.0769845
0.0737075
0.0661547
0.0699026
0.0870263
0.0884395
0.0894678
0.0900386
0.0900944
0.0895832
0.08844
0.0866379