/*--------------------------------*- C++ -*----------------------------------*\
  =========                 |
  \\      /  F ield         | OpenFOAM: The Open Source CFD Toolbox
   \\    /   O peration     | Website:  https://openfoam.org
    \\  /    A nd           | Version:  10
     \\/     M anipulation  |
\*---------------------------------------------------------------------------*/
FoamFile
{
    format      ascii;
    class       volScalarField;
    location    "6";
    object      p;
}
// * * * * * * * * * * * * * * * * * * * * * * * * * * * * * * * * * * * * * //

dimensions      [0 2 -2 0 0 0 0];

internalField   nonuniform List<scalar> 
33313
(
-0.0131998
-0.014065
-0.00744918
-0.0146167
-0.0012269
-2.31526e-05
-0.000630489
0.0096351
0.008328
-0.0109567
-0.00686849
-0.388481
-0.387751
-0.391294
0.0215204
0.00376275
0.0252694
-0.250442
-0.341076
-0.294761
-0.21153
0.782394
0.701698
0.845342
0.849483
0.186478
0.191586
0.193775
0.199974
0.191153
0.202857
0.209423
0.234661
-0.417975
-0.429943
-0.419656
-0.401801
-0.0133757
-0.0196184
-0.256241
-0.243575
0.286888
0.272261
-0.404074
-0.414158
-0.434255
0.73793
0.816142
-0.0182327
-0.0176099
0.199817
0.228269
0.212467
0.259386
0.145663
0.1717
0.41597
0.538211
0.45805
0.365305
0.433185
0.842348
0.906986
0.935737
-0.0265122
-0.0489603
-0.230493
-0.114487
-0.116516
-0.568194
-0.589256
-0.584779
-0.360038
-0.283602
-0.49496
-0.481301
-0.43217
-0.45603
-0.16043
-0.213195
0.557185
0.545732
0.569239
-0.336658
-0.357376
-0.384353
-0.479631
-0.459577
-0.457247
0.92471
-0.394126
-0.401773
-0.379191
-0.37121
-0.379169
0.187831
0.177198
-0.00182887
-0.00384632
-0.202415
-0.183023
-0.245911
-0.289881
-0.284532
-0.310996
-0.434378
-0.475336
-0.466174
-0.43601
-0.0527555
0.127106
0.0693283
-0.0639952
-0.627564
-0.737265
-0.573693
0.910886
0.869115
-0.276453
-0.275072
-0.383626
-0.387371
-0.386447
-0.0256916
-0.0223134
-0.0420563
0.334107
-0.0919994
-0.0886755
-0.445296
-0.459399
-0.375206
-0.377017
0.1028
0.0838579
-0.0389421
0.032552
-0.0902158
-0.00553278
0.207595
0.100312
0.321274
-0.0844259
-0.0849232
-0.0953863
0.0255136
0.0210628
0.0207297
0.0167977
0.314431
0.295388
0.323416
0.308087
0.430039
0.434774
0.403684
0.407975
-0.477425
-0.540803
-0.531859
-0.380751
0.0947551
0.13459
0.258832
0.151622
-0.353703
-0.36879
-0.371434
-0.471792
-0.0105211
-0.00914869
0.0423302
0.0413359
0.0351398
0.0339942
0.186162
0.169716
-0.4455
-0.460133
0.010174
0.004968
-0.00254839
-0.00587137
0.134714
0.134943
-0.545338
-0.55573
-0.471401
-0.484707
-0.471397
-0.513296
0.541936
0.516624
-0.495242
-0.503197
0.416045
0.436166
0.43899
0.361898
0.384072
0.374126
0.565597
0.541603
0.141334
0.1472
-0.399142
-0.399514
-0.150772
-0.260621
0.16056
0.155616
-0.00542649
-0.00180735
-0.00499619
-0.00757168
0.0184182
-0.340192
-0.360361
0.342105
0.345443
0.324609
0.319545
-0.257491
-0.261778
-0.240105
0.170276
0.190817
0.161267
-0.428315
-0.425997
-0.428567
-0.105711
-0.0602305
0.0444894
0.0345035
0.0330078
-0.454472
0.246497
0.04917
0.0477722
0.0464831
0.0453082
0.0440924
0.0429431
0.0418083
0.0407117
0.0396587
0.0386442
0.0376665
0.0367217
0.0358096
0.0349271
0.0340741
0.0332477
0.0324478
0.031672
0.0309201
0.0301899
0.0294813
0.0287924
0.0281233
0.0274724
0.0268408
0.0262282
0.0256373
0.0250396
0.0244791
0.0238901
0.0233295
0.0227856
0.0492442
0.0508808
0.0508058
0.0506945
0.0217231
0.0222405
0.0233415
0.0222609
0.0228031
0.0244496
0.0238829
0.0256413
0.0250434
0.0268639
0.0262469
0.0281506
0.0274985
0.0295117
0.0288215
0.0309536
0.0302221
0.0324845
0.0317075
0.0341133
0.0332861
0.0358502
0.0349676
0.037707
0.0367629
0.0396956
0.0386844
0.041823
0.0407408
0.0441829
0.04296
0.0466159
0.0453767
0.0478475
0.0523223
0.0523076
0.021766
0.0522075
0.0212733
0.0212417
0.0538224
0.0538144
0.0212852
0.0217432
0.0537567
0.0212335
0.055381
0.0553455
0.055367
0.0504657
0.0535926
0.0520063
0.0477599
0.0490562
0.045189
0.0464994
0.0428093
0.0439764
0.0405908
0.0416802
0.0385346
0.0395431
0.0366237
0.0375625
0.0348394
0.0357167
0.0331691
0.0339909
0.0316012
0.0323731
0.0301258
0.0308526
0.0287338
0.02942
0.027417
0.0280668
0.0261621
0.0267838
0.0249824
0.0255487
0.0238637
0.0244119
0.0227741
0.0233144
0.0222545
0.0208043
0.0207394
0.0207772
0.0223028
0.0212852
0.0218028
0.023333
0.022802
0.0244448
0.0238892
0.0256229
0.0250248
0.02685
0.0262301
0.0281376
0.0274855
0.0294973
0.028808
0.0309374
0.0302069
0.0324658
0.0316901
0.0340916
0.033266
0.0358249
0.0349443
0.0376774
0.0367355
0.0396619
0.0386528
0.0417848
0.0407051
0.0441139
0.0429151
0.046633
0.0453711
0.0491992
0.047902
0.05219
0.0506528
0.0553399
0.0537898
0.0208044
0.0552209
0.0570548
0.0570112
0.0202746
0.0207099
0.0202417
0.0569845
0.0212668
0.020786
0.0207663
0.05688
0.0570356
0.053357
0.0566261
0.0549841
0.0502906
0.0517785
0.0476302
0.0489349
0.0450399
0.0463333
0.042655
0.0438145
0.0404635
0.0415396
0.0384246
0.0394254
0.0365269
0.0374594
0.0347538
0.0356257
0.0330931
0.0339102
0.0315335
0.0323014
0.0300653
0.0307886
0.0286794
0.0293627
0.027367
0.0280148
0.0261176
0.0267356
0.0249413
0.0255171
0.023828
0.0243724
0.0227526
0.0232837
0.0217183
0.0222314
0.0212044
0.0203228
0.0203046
0.0203066
0.0203239
0.0222884
0.0217809
0.023323
0.0228016
0.02443
0.0238676
0.0255941
0.0250034
0.0268177
0.0261987
0.0281029
0.0274521
0.029459
0.0287717
0.0308943
0.0301664
0.032417
0.0316443
0.0340359
0.0332139
0.0357609
0.0348846
0.0376037
0.0366669
0.0395774
0.0385736
0.041693
0.0406165
0.0439893
0.0428145
0.0465024
0.0452245
0.0491586
0.0478185
0.0520826
0.0505761
0.0552426
0.0536434
0.0587532
0.0586433
0.0569015
0.0586112
0.0583621
0.0587299
0.0588019
0.0202848
0.0604512
0.0606044
0.0198178
0.0197819
0.0206775
0.0604339
0.0601912
0.0202045
0.0587883
0.0562778
0.0597714
0.0579709
0.0530362
0.0546436
0.0500677
0.0515264
0.0473759
0.0486979
0.0448091
0.046078
0.0424631
0.0436072
0.0402988
0.0413634
0.0382806
0.0392716
0.0364
0.0373242
0.0346417
0.0355065
0.0329938
0.0338048
0.0314454
0.0322079
0.0299868
0.0307055
0.0286091
0.0292884
0.0273042
0.0279482
0.0260652
0.0266769
0.0248928
0.0254708
0.023779
0.0243294
0.0227067
0.0232371
0.021677
0.0221895
0.021173
0.0198541
0.0198416
0.019839
0.0198543
0.0212376
0.0202628
0.0207414
0.0222525
0.021742
0.0232985
0.0227711
0.0243964
0.0238376
0.0255542
0.0249681
0.0267712
0.0261552
0.0280514
0.0274031
0.0294016
0.0287173
0.0308298
0.0301056
0.032344
0.0315757
0.0339529
0.0331362
0.035666
0.0347959
0.0374946
0.0365652
0.0394518
0.0384564
0.0415526
0.0404831
0.0438227
0.0426646
0.0462933
0.0450321
0.048969
0.0476071
0.0518694
0.0503905
0.0550222
0.0534224
0.0584137
0.0566876
0.0623556
0.0620844
0.0601989
0.0198172
0.0620189
0.0616235
0.0605671
0.0606765
0.0197418
0.0640618
0.0616927
0.0636458
0.0622962
0.0625404
0.0643775
0.0639647
0.0202285
0.0197911
0.0197582
0.0635675
0.0606743
0.0592316
0.063033
0.0610844
0.0558158
0.057487
0.0526507
0.054206
0.0497296
0.051164
0.047037
0.0483576
0.0445306
0.0457607
0.0422249
0.0433534
0.0400889
0.0411386
0.0380966
0.0390753
0.036238
0.0371516
0.0344987
0.0353543
0.0328671
0.0336702
0.0313328
0.0320885
0.0298864
0.0305992
0.0285194
0.0291935
0.0272243
0.0278634
0.0259953
0.0266019
0.0248283
0.0254043
0.0237167
0.0242665
0.0226514
0.0231784
0.0216291
0.0221349
0.0206428
0.0211291
0.0196987
0.0201656
0.0193654
0.0192925
0.0193328
0.0194015
0.0193885
0.0193836
0.019399
0.019328
0.0193603
0.0212009
0.0207092
0.0222066
0.0216984
0.0232532
0.0227249
0.0243476
0.0237932
0.0254994
0.0249166
0.0267092
0.0260968
0.0279821
0.0273375
0.0293243
0.0286442
0.030743
0.0300237
0.032246
0.0314835
0.0338417
0.0330318
0.0355394
0.0346773
0.0373499
0.0364299
0.0392858
0.0383014
0.0413638
0.0403059
0.0436057
0.0424631
0.0460325
0.0447947
0.0486736
0.0473243
0.0515576
0.0500852
0.0546809
0.0530929
0.0580575
0.056343
0.0598377
0.0661388
0.0656864
0.0192443
0.0655591
0.0649648
0.0625074
0.0626524
0.0192967
0.0642933
0.0646148
0.0660115
0.066521
0.0678263
0.0683402
0.0676593
0.0196526
0.0191968
0.0670599
0.0626437
0.0622705
0.0662806
0.0642413
0.0586146
0.0604104
0.0552604
0.0569036
0.0521653
0.05369
0.0492895
0.050698
0.0466461
0.0479406
0.0442025
0.0454013
0.0419388
0.0430489
0.0398367
0.0408693
0.0378757
0.0388394
0.0360433
0.0369443
0.0343267
0.0351713
0.0327147
0.0335084
0.0311972
0.0319448
0.0297655
0.0304712
0.0284113
0.0290792
0.0271276
0.0277611
0.0259086
0.0265104
0.024749
0.0253216
0.0236433
0.0241899
0.0225848
0.0231086
0.0215691
0.0220719
0.0205961
0.0210753
0.0201212
0.0188506
0.0187468
0.0187998
0.0189234
0.0188935
0.0189578
0.0189481
0.0189354
0.0189512
0.0188826
0.0189112
0.0188478
0.0201866
0.0192568
0.0197176
0.0211518
0.0206657
0.022152
0.021647
0.0231947
0.0226678
0.0242851
0.0237335
0.0254295
0.0248504
0.0266312
0.026023
0.0278951
0.0272551
0.029227
0.0285522
0.0306339
0.0299207
0.0321231
0.0313678
0.0337027
0.0329012
0.0353816
0.0345292
0.0371702
0.0362616
0.0390807
0.0381094
0.0411292
0.0400866
0.0433362
0.0422119
0.04572
0.044505
0.0483076
0.0469861
0.0511356
0.0496902
0.0542178
0.0526459
0.0575441
0.0558443
0.0611555
0.0593097
0.0650747
0.0630717
0.070044
0.0693384
0.0671711
0.069019
0.0681206
0.064565
0.0647561
0.0716151
0.0724092
0.0664103
0.066817
0.0681941
0.0687888
0.0183136
0.0186916
0.0182575
0.0697639
0.070662
0.0712042
0.0188038
0.0702205
0.0647296
0.065251
0.0691005
0.0671185
0.0614502
0.0633539
0.0578746
0.0596184
0.0546072
0.0562123
0.0515777
0.0530642
0.0487807
0.05015
0.0462066
0.0474678
0.043823
0.0449932
0.0416071
0.0426949
0.0395455
0.0405584
0.03762
0.0385667
0.0358179
0.0367044
0.0341274
0.0349595
0.0325378
0.0333206
0.0310398
0.031778
0.0296249
0.0303225
0.0282854
0.0289462
0.0270147
0.0276419
0.0258067
0.0264032
0.0246565
0.0252247
0.0235587
0.0241014
0.0225078
0.0230278
0.0214995
0.0219986
0.0205343
0.0210105
0.0196018
0.0200632
0.0191424
0.0184173
0.0183697
0.0184886
0.0184565
0.0185163
0.0185085
0.0184968
0.0185123
0.0184467
0.0184745
0.0192083
0.0187567
0.0183642
0.0184067
0.0201356
0.0196686
0.0210922
0.0206087
0.0220873
0.0215849
0.0231244
0.0226004
0.0242088
0.0236605
0.0253451
0.0247703
0.0265375
0.0259341
0.0277907
0.0271562
0.0291105
0.028442
0.0305034
0.0297975
0.0319763
0.0312294
0.0335369
0.0327452
0.0351939
0.0343529
0.036957
0.0360616
0.0388381
0.0378821
0.0408521
0.0398275
0.0430178
0.0419149
0.0453538
0.0441635
0.0478829
0.0465925
0.0506359
0.0492297
0.0536402
0.0521058
0.0569002
0.0552384
0.0604255
0.0586206
0.0642847
0.0623156
0.0684319
0.066292
0.0739714
0.072818
0.0705956
0.07247
0.0712541
0.0748776
0.0763809
0.075128
0.0667343
0.0669669
0.0686608
0.0691406
0.0178928
0.0178357
0.0704405
0.0712037
0.0721095
0.0731281
0.0735992
0.0183174
0.0735184
0.0748964
0.0774843
0.0789446
0.0775336
0.0758136
0.0720485
0.0186308
0.0181971
0.0742076
0.066938
0.0678616
0.0698952
0.0641148
0.0659288
0.0604677
0.0622695
0.0570156
0.058706
0.0538457
0.0553988
0.0509185
0.0523532
0.0482158
0.0495403
0.0457169
0.0469426
0.0433959
0.0445358
0.041234
0.0422959
0.0392178
0.0402088
0.0373316
0.0382594
0.0355632
0.0364335
0.0339018
0.0347198
0.0323373
0.0331081
0.0308611
0.0315888
0.0294652
0.0301537
0.0281422
0.028795
0.0268859
0.0275061
0.0256905
0.0262809
0.024551
0.0251141
0.0234625
0.0240008
0.0224201
0.0229359
0.0214201
0.021915
0.0204614
0.0209354
0.0195372
0.0199951
0.0190817
0.0179915
0.0179442
0.0180568
0.0180299
0.0180801
0.0180729
0.0180676
0.0180785
0.0180159
0.0180471
0.0179343
0.0179797
0.0759077
0.0799949
0.0782409
0.0178834
0.0191525
0.0182622
0.018704
0.0200716
0.0196092
0.0210227
0.0205426
0.022012
0.0215125
0.0230427
0.022522
0.0241195
0.0235751
0.0252466
0.0246766
0.0264284
0.0258305
0.0276694
0.0270412
0.0289753
0.028314
0.030352
0.0296545
0.0318063
0.0310691
0.0333455
0.0325649
0.0349776
0.0341495
0.036712
0.0358315
0.0385598
0.037621
0.0405349
0.0395306
0.0426542
0.0415756
0.0449357
0.0437736
0.0474001
0.0461438
0.0500711
0.0487084
0.0529736
0.0514921
0.056126
0.0545185
0.0595401
0.057798
0.0632348
0.0613551
0.0672871
0.0652184
0.0714758
0.0693449
0.0736633
0.0690428
0.0693017
0.0177743
0.0710336
0.0715897
0.072914
0.0737444
0.0746514
0.0757252
0.0761717
0.0773486
0.0764472
0.0782534
0.0802322
0.0816192
0.0806162
0.0825813
0.0178306
0.0787132
0.0745126
0.0182028
0.0177717
0.0766372
0.0692658
0.0704453
0.0724305
0.0664773
0.0683899
0.0628325
0.0645951
0.0593526
0.0610737
0.0560509
0.0576702
0.0530124
0.0545006
0.0502032
0.0515812
0.0475982
0.0488765
0.0451789
0.0463667
0.0429257
0.0440328
0.0408224
0.0418562
0.0388557
0.0398229
0.0370123
0.0379195
0.0352807
0.0361333
0.0336511
0.0344539
0.0321143
0.0328717
0.0306621
0.0313782
0.029287
0.0299654
0.0279822
0.0286262
0.0267418
0.0273543
0.0255603
0.026144
0.0244328
0.0249901
0.0233548
0.0238879
0.0223218
0.022833
0.0213305
0.0218212
0.0203785
0.0208498
0.0194612
0.0199153
0.0185692
0.0190096
0.0177085
0.0181339
0.017482
0.0173608
0.0174231
0.0175741
0.0175325
0.0176311
0.0176082
0.017652
0.0176452
0.017642
0.0176511
0.0175951
0.017624
0.0175144
0.0175591
0.0174087
0.0174647
0.019088
0.018643
0.0199982
0.0195381
0.0209436
0.0204665
0.0219262
0.0214301
0.0229495
0.0224326
0.0240176
0.0234778
0.0251344
0.0245697
0.0263043
0.0257125
0.0275317
0.0269105
0.0288219
0.0281687
0.0301806
0.0294924
0.0316142
0.0308877
0.0331294
0.0323612
0.034734
0.0339201
0.0364366
0.0355725
0.0382477
0.037328
0.04018
0.039198
0.0422485
0.0411964
0.0444698
0.0433391
0.0468627
0.0456438
0.0494468
0.0481299
0.052241
0.0508166
0.0552639
0.0537231
0.0585316
0.0568665
0.0620588
0.0602611
0.0658923
0.0639419
0.0698962
0.0678654
0.0741074
0.0719651
0.0785103
0.0762747
0.0830591
0.0807571
0.0172951
0.071485
0.0717634
0.0173506
0.0735979
0.0741653
0.075564
0.0764205
0.0773225
0.0784694
0.0788102
0.0799673
0.0807484
0.0788047
0.0810461
0.0830927
0.0844216
0.0852963
0.0856215
0.0830157
0.0809411
0.0763353
0.0176404
0.0172255
0.0782914
0.0717276
0.0723967
0.0743704
0.0686497
0.0705483
0.0649141
0.0667711
0.061439
0.0631505
0.0581402
0.0597767
0.055014
0.0565482
0.0521222
0.0535405
0.0494349
0.0507548
0.0469312
0.0481611
0.0445967
0.0457439
0.0424161
0.0434883
0.0403751
0.0413791
0.0384616
0.0394032
0.036664
0.037549
0.0349721
0.0358055
0.0333768
0.0341629
0.0318698
0.0326128
0.0304435
0.031147
0.029091
0.0297584
0.027806
0.0284405
0.0265829
0.0271871
0.0254165
0.025993
0.0243023
0.0248532
0.0232358
0.0237633
0.0222131
0.0227193
0.021231
0.0217172
0.0202862
0.0207542
0.0193752
0.0198268
0.0184968
0.01893
0.0180657
0.0169554
0.0168148
0.0168875
0.0170767
0.017021
0.0171646
0.0171265
0.0172131
0.0171929
0.0172327
0.0172264
0.0172229
0.0172315
0.0171817
0.0172069
0.0171034
0.0171452
0.017
0.0170539
0.0802761
0.0853187
0.0823382
0.0169391
0.0181353
0.0172879
0.0177076
0.0190126
0.0185718
0.0199164
0.0194599
0.0208551
0.0203814
0.0218303
0.021338
0.0228451
0.0223326
0.0239034
0.0233687
0.0250089
0.02445
0.0261656
0.0255806
0.027378
0.0267646
0.028651
0.0280066
0.0299899
0.0293119
0.0314007
0.030686
0.0328898
0.0321351
0.0344644
0.033666
0.0361325
0.0352863
0.0379037
0.0370047
0.0397896
0.0388317
0.0418033
0.0407797
0.0439598
0.0428629
0.0462754
0.0450968
0.0487667
0.0474983
0.0514487
0.0500832
0.0543357
0.0528659
0.0574415
0.0558609
0.0607791
0.0590795
0.0643734
0.0625462
0.0681502
0.0662457
0.0721177
0.0701208
0.0761746
0.0741477
0.0782153
0.0740819
0.0743614
0.0763032
0.076879
0.0783272
0.0792268
0.0164187
0.0167413
0.0163449
0.0800956
0.0813355
0.0815801
0.0826719
0.083335
0.0835392
0.0802346
0.0830979
0.0861118
0.0873836
0.088114
0.0882226
0.084413
0.0876705
0.0168727
0.0821392
0.0772759
0.0172155
0.0168051
0.0789629
0.0743331
0.0737611
0.0755429
0.0702181
0.071977
0.0667036
0.0684701
0.0632437
0.0649541
0.0599614
0.0615797
0.056853
0.0583882
0.0539184
0.0553614
0.051179
0.0525253
0.0486173
0.0498771
0.0462195
0.0473987
0.0439747
0.0450788
0.0418704
0.0429058
0.0398949
0.0408673
0.0380375
0.0389521
0.0362885
0.0371501
0.0346387
0.0354518
0.03308
0.0338485
0.0316048
0.0323325
0.0302063
0.0308964
0.0288781
0.0295338
0.0276143
0.0282385
0.0264098
0.027005
0.0252597
0.0258283
0.0241598
0.0247038
0.0231059
0.0236273
0.0220943
0.0225951
0.021122
0.0216035
0.0201857
0.0206495
0.0192825
0.0197303
0.0184122
0.0188423
0.0175676
0.0179861
0.0171524
0.0165601
0.0164876
0.016676
0.016623
0.0167565
0.0167215
0.0168027
0.0167831
0.0168214
0.0168156
0.0168113
0.01682
0.0167735
0.0167961
0.0166997
0.0167415
0.0165984
0.0166523
0.0164706
0.0165359
0.0180603
0.017636
0.0189283
0.0184897
0.0198262
0.0193733
0.0207575
0.0202876
0.0217244
0.0212364
0.0227299
0.0222222
0.0237774
0.0232482
0.0248704
0.024318
0.0260129
0.0254353
0.0272089
0.026604
0.0284632
0.0278286
0.0297807
0.0291138
0.031167
0.030465
0.0326279
0.0318878
0.0341702
0.0333885
0.0358012
0.0349742
0.0375297
0.0366528
0.0393659
0.0384338
0.0413214
0.0403281
0.0434091
0.042348
0.0456427
0.0445069
0.0480358
0.0468186
0.0506005
0.0492962
0.0533471
0.0519506
0.0562839
0.0547915
0.0594194
0.057826
0.0627611
0.0610656
0.0662856
0.0645025
0.069958
0.0681116
0.0736769
0.0718399
0.0774142
0.0755478
0.0810958
0.0792813
0.0864811
0.0828571
0.0768059
0.0770956
0.0791203
0.0797275
0.0160319
0.0159585
0.0812115
0.0821647
0.0830376
0.0843329
0.0844629
0.0855119
0.0859554
0.0860001
0.0853106
0.0164021
0.0806111
0.0840389
0.089213
0.0904247
0.0910022
0.0908818
0.0900595
0.0885365
0.0846028
0.0821631
0.0771664
0.0166628
0.0162667
0.0784812
0.0770703
0.0742703
0.0757666
0.0711307
0.0727131
0.0678983
0.0695295
0.0646511
0.0662714
0.0614501
0.0630354
0.0584043
0.0599067
0.0555144
0.0569413
0.052773
0.0541245
0.0501888
0.0514614
0.0477566
0.0489543
0.0454685
0.0465951
0.0433166
0.0443762
0.0412917
0.042289
0.0393844
0.040324
0.0375859
0.0384721
0.0358878
0.0367248
0.0342823
0.035074
0.0327621
0.033512
0.0313206
0.032032
0.0299514
0.0306274
0.0286489
0.0292922
0.0274077
0.028021
0.026223
0.0268087
0.0250904
0.0256505
0.0240058
0.0245424
0.0229654
0.0234803
0.0219658
0.0224607
0.0210039
0.0214804
0.0200771
0.0205363
0.0191828
0.019626
0.0183205
0.0187473
0.0174837
0.0178998
0.0170688
0.0161694
0.0161039
0.0162801
0.0162287
0.0163539
0.0163212
0.0163993
0.0163799
0.0164175
0.0164119
0.0164073
0.0164159
0.0163705
0.0163921
0.0163038
0.0163414
0.016203
0.0162566
0.0160767
0.0161427
0.0806504
0.0862788
0.0820496
0.0160091
0.0171388
0.0163297
0.0167308
0.0179756
0.0175555
0.0188363
0.0184018
0.0197277
0.0192782
0.0206509
0.0201852
0.0216089
0.0211255
0.0226041
0.0221017
0.0236399
0.0231168
0.0247195
0.0241741
0.0258466
0.025277
0.0270251
0.0264293
0.0282593
0.0276351
0.0295539
0.0288988
0.0309139
0.0302255
0.0323448
0.0316202
0.0338528
0.0330889
0.0354445
0.0346378
0.0371277
0.0362742
0.0389114
0.0380065
0.0408056
0.0398441
0.0428211
0.0417976
0.044969
0.0438779
0.0472601
0.0460961
0.0497032
0.0484623
0.052305
0.0509841
0.0550691
0.0536668
0.0579979
0.0565129
0.0610867
0.0595234
0.0643228
0.062687
0.0676896
0.0659921
0.0711089
0.0694062
0.0744896
0.0727854
0.077708
0.0761619
0.0792247
0.0796594
0.0799677
0.0158811
0.0820698
0.0827167
0.0842496
0.0852457
0.0860954
0.0874571
0.0875342
0.0884232
0.0887972
0.0885281
0.0875695
0.085946
0.079684
0.0836701
0.0924143
0.0935554
0.0939881
0.093615
0.0924769
0.0905727
0.0833218
0.0878917
0.0159333
0.0807678
0.075778
0.0162509
0.0158547
0.0765976
0.0799437
0.0737091
0.0748287
0.0711916
0.0724994
0.0684125
0.0698449
0.0654766
0.0669538
0.0625024
0.0639858
0.0595971
0.0610372
0.0568083
0.0581872
0.0541394
0.0554596
0.0515866
0.052848
0.0491589
0.0503568
0.0468588
0.0479932
0.0446827
0.0457555
0.0426263
0.04364
0.0406831
0.041641
0.0388463
0.0397519
0.0371088
0.0379656
0.0354637
0.0362752
0.0339043
0.0346737
0.0324244
0.0331549
0.0310181
0.0317125
0.0296798
0.0303408
0.0284044
0.0290346
0.0271871
0.0277888
0.0260233
0.0265988
0.0249091
0.0254603
0.0238407
0.0243694
0.0228147
0.0233226
0.0218278
0.0223166
0.0208772
0.0213482
0.0199604
0.0204148
0.0190753
0.0195141
0.0182205
0.0186442
0.0173917
0.0178027
0.0165789
0.0169815
0.015798
0.0161844
0.0156554
0.015501
0.0155801
0.0157866
0.0157254
0.0158886
0.015842
0.0159585
0.0159269
0.0160028
0.015984
0.0160203
0.0160149
0.0160103
0.0160187
0.0159738
0.0159952
0.0159109
0.0159459
0.0158147
0.0158674
0.0156925
0.0157589
0.0155464
0.0156209
0.0170557
0.0166515
0.0178831
0.0174652
0.0187374
0.0183067
0.019621
0.0191755
0.0205358
0.0200744
0.021484
0.0210056
0.0224683
0.0219715
0.0234915
0.0229749
0.0245567
0.0240187
0.0256674
0.0251062
0.0268272
0.026241
0.0280401
0.0274268
0.0293104
0.0286679
0.0306426
0.0299685
0.0320419
0.0313336
0.0335136
0.0327684
0.0350639
0.0342786
0.0366996
0.0358707
0.0384283
0.0375519
0.0402586
0.0393303
0.0421991
0.0412146
0.0442586
0.0432136
0.046445
0.0453357
0.0487639
0.0475877
0.0512184
0.0499743
0.0538079
0.0524965
0.0565292
0.0551526
0.0593711
0.0579363
0.0623171
0.060832
0.0653498
0.0638242
0.0684219
0.0668866
0.0714297
0.0699416
0.0742617
0.0728797
0.0767565
0.0755436
0.078868
0.0778801
0.0844922
0.079715
0.0154176
0.0826564
0.0829839
0.015468
0.0851719
0.0858512
0.0874123
0.0884581
0.0892982
0.0906845
0.0906959
0.0915186
0.0916552
0.0911257
0.0898394
0.0878272
0.085121
0.0772441
0.0817312
0.0957299
0.0967484
0.0969629
0.0963315
0.0948616
0.092542
0.0894316
0.0855393
0.0803452
0.0776883
0.0729145
0.0157145
0.0153329
0.0730836
0.0829627
0.0719246
0.0725226
0.0702131
0.0711335
0.0680857
0.0692042
0.0656236
0.0668845
0.0629818
0.0643116
0.0603295
0.061652
0.0577241
0.0590193
0.0551893
0.0564469
0.0527353
0.0539521
0.0503672
0.0515399
0.0480963
0.049219
0.0459292
0.0469997
0.0438666
0.0448849
0.0419073
0.0428743
0.0400477
0.0409654
0.0382832
0.039154
0.0366085
0.037435
0.035018
0.0358031
0.0335064
0.0342528
0.0320683
0.0327785
0.0306986
0.0313753
0.0293925
0.030038
0.0281454
0.0287619
0.0269529
0.0275426
0.0258111
0.026376
0.0247163
0.0252581
0.0236651
0.0241855
0.0226542
0.0231548
0.0216807
0.022163
0.0207421
0.0212073
0.0198359
0.0202851
0.0189602
0.0193944
0.0181128
0.0185331
0.0172913
0.017699
0.0164903
0.0168883
0.0160992
0.0151291
0.0149601
0.0150493
0.0152848
0.015209
0.015409
0.0153496
0.0155027
0.0154595
0.0155703
0.0155395
0.0156131
0.0155949
0.0156297
0.0156247
0.0156199
0.0156281
0.0155839
0.0156051
0.0155228
0.0155564
0.015434
0.0154825
0.0153142
0.0153766
0.0151693
0.0152436
0.0753585
0.0808281
0.0754941
0.0150893
0.0161663
0.0153863
0.0157739
0.0169634
0.0165631
0.0177836
0.0173697
0.0186311
0.0182041
0.0195066
0.0190653
0.0204122
0.0199556
0.0213501
0.020877
0.0223226
0.0218319
0.0233324
0.0228227
0.0243825
0.0238523
0.0254758
0.0249236
0.0266159
0.0260399
0.0278063
0.0272046
0.029051
0.0284217
0.0303541
0.029695
0.0317202
0.0310291
0.0331541
0.0324284
0.0346613
0.0338983
0.0362474
0.0354442
0.0379192
0.0370723
0.0396833
0.0387893
0.0415467
0.0406022
0.0435158
0.0425178
0.0455957
0.0445417
0.047789
0.0466782
0.0500955
0.0489284
0.0525106
0.0512899
0.0550265
0.0537567
0.0576285
0.056318
0.060297
0.0589558
0.0630076
0.0616491
0.0657213
0.064367
0.0683709
0.0670614
0.0708022
0.0696265
0.0729236
0.0719131
0.0745071
0.0737736
0.074989
0.0858027
0.0861471
0.0884176
0.0891271
0.0907293
0.0917987
0.0145971
0.0148713
0.014507
0.0926158
0.09404
0.0939784
0.0946699
0.0946204
0.0937338
0.0921006
0.0896646
0.0864685
0.0825544
0.0729836
0.0779125
0.0991277
0.0999751
0.0999564
0.0990503
0.0972317
0.0944595
0.0908129
0.0863476
0.0754375
0.0810807
0.0150071
0.0726309
0.0683155
0.0153023
0.0149228
0.0676685
0.0861301
0.068726
0.0686658
0.0680826
0.0684894
0.0667158
0.0674438
0.064943
0.0658693
0.0627919
0.0639015
0.060495
0.061651
0.0581685
0.0593327
0.0558472
0.0570056
0.0535554
0.0546963
0.0513099
0.0524262
0.0491228
0.0502083
0.0470073
0.0480554
0.044973
0.0459796
0.0430244
0.0439878
0.0411632
0.0420829
0.0393885
0.0402652
0.0376976
0.0385329
0.0360871
0.0368826
0.0345527
0.0353107
0.0330901
0.0338127
0.0316951
0.0323845
0.0303632
0.0310216
0.0290904
0.0297198
0.0278727
0.028475
0.0267061
0.0272833
0.0255873
0.026141
0.0245127
0.0250447
0.0234794
0.0239911
0.0224844
0.0229773
0.021525
0.0220004
0.0205989
0.021058
0.0197038
0.0201476
0.0188378
0.0192673
0.0179989
0.0184151
0.0171851
0.0175891
0.0163944
0.0167866
0.0156265
0.0160083
0.0152475
0.0147662
0.014682
0.0149148
0.0148433
0.0150334
0.0149779
0.0151229
0.0150812
0.0151887
0.0151587
0.0152299
0.0152124
0.0152457
0.0152409
0.0152359
0.015244
0.0152007
0.0152215
0.0151407
0.0151737
0.015056
0.0151018
0.0149411
0.0150026
0.0148001
0.0148739
0.0146368
0.0147212
0.0160736
0.0156864
0.0168642
0.0164664
0.0176779
0.017268
0.0185177
0.0180946
0.0193847
0.0189478
0.0202806
0.019829
0.0212075
0.0207401
0.0221676
0.0216833
0.0231633
0.0226609
0.0241973
0.0236754
0.0252725
0.0247296
0.0263918
0.0258265
0.0275588
0.0269692
0.0287767
0.0281612
0.0300495
0.0294061
0.0313811
0.0307078
0.0327759
0.0320704
0.0342383
0.0334984
0.0357733
0.0349965
0.0373863
0.0365698
0.0390826
0.0382238
0.0408672
0.0399636
0.0427445
0.0417942
0.044717
0.0437189
0.0467846
0.0457391
0.0489437
0.0478532
0.0511866
0.0500554
0.0535012
0.0523359
0.0558706
0.0546804
0.0582733
0.0570693
0.0606807
0.0594788
0.063051
0.0618734
0.0653221
0.0642053
0.0673778
0.0663831
0.0691177
0.0682994
0.0702182
0.0697732
0.0705789
0.0704939
0.0701156
0.0704784
0.0750711
0.0694674
0.0890997
0.0894583
0.0918177
0.0925449
0.0142442
0.0141539
0.0941802
0.0952743
0.0960741
0.0975137
0.0973473
0.0978926
0.0975882
0.0964038
0.0943085
0.0914171
0.0876912
0.0831753
0.0779327
0.0145521
0.0667578
0.0720366
0.102596
0.103253
0.102973
0.101724
0.0994603
0.0962057
0.0920218
0.0869786
0.0810727
0.0147802
0.0144165
0.065573
0.0618344
0.0744654
0.0684887
0.0603808
0.0894486
0.0638005
0.0629562
0.0645681
0.064331
0.0642529
0.0645253
0.0632518
0.0638243
0.0617998
0.0625818
0.0600013
0.0609297
0.0580515
0.0590382
0.0560301
0.0570472
0.0539748
0.0550046
0.0519149
0.0529439
0.0498715
0.0508901
0.0478606
0.048861
0.0458977
0.0468723
0.0439949
0.0449382
0.0421602
0.0430688
0.0403975
0.0412697
0.0387084
0.0395438
0.0370921
0.0378913
0.0355467
0.0363107
0.0340694
0.0347998
0.032657
0.0333553
0.0313061
0.0319741
0.0300131
0.0306526
0.0287746
0.0293873
0.0275871
0.0281747
0.0264474
0.0270116
0.0253523
0.0258945
0.0242988
0.0248206
0.0232841
0.0237868
0.0223057
0.0227906
0.021361
0.0218293
0.020448
0.0209007
0.0195645
0.0200027
0.0187087
0.0191333
0.0178789
0.0182907
0.0170735
0.0174733
0.0162916
0.0166796
0.0155322
0.0159102
0.015154
0.0144067
0.0143271
0.0145481
0.0144816
0.0146619
0.0146087
0.0147492
0.0147084
0.0148132
0.0147842
0.0148529
0.0148361
0.014868
0.0148635
0.0148583
0.0148662
0.0148239
0.0148442
0.0147649
0.0147974
0.0146825
0.0147267
0.0145749
0.0146321
0.0144362
0.0145091
0.0142771
0.0143592
0.0628856
0.0671887
0.0612808
0.014191
0.0152107
0.0144663
0.014837
0.0159748
0.0155915
0.0167587
0.0163638
0.0175658
0.0171594
0.0183976
0.0179785
0.0192555
0.0188232
0.0201413
0.0196949
0.0210567
0.0205952
0.0220037
0.0215261
0.0229846
0.0224898
0.0240018
0.0234885
0.0250579
0.0245249
0.0261557
0.0256015
0.0272982
0.0267213
0.0284885
0.0278873
0.0297299
0.0291027
0.0310259
0.030371
0.0323802
0.0316956
0.0337966
0.0330805
0.0352792
0.0345294
0.0368321
0.0360467
0.0384593
0.0376362
0.0401641
0.0393019
0.0419489
0.0410465
0.0438138
0.0428714
0.0457563
0.0447757
0.04777
0.0467548
0.0498442
0.0488004
0.0519638
0.0508995
0.0541095
0.0530348
0.0562583
0.0551852
0.05838
0.057325
0.0604307
0.0594175
0.062343
0.06141
0.0640162
0.0632153
0.0653425
0.0647332
0.0660554
0.0657976
0.0660411
0.0661511
0.0650577
0.0657104
0.0641315
0.0925514
0.092919
0.014061
0.0953645
0.0961049
0.0977765
0.0988775
0.0996424
0.101092
0.10082
0.101156
0.100575
0.0990198
0.0965049
0.0930373
0.088739
0.0835876
0.0777126
0.0711886
0.0586792
0.0640533
0.10613
0.106562
0.105972
0.104313
0.101569
0.0978024
0.0930694
0.0873427
0.0807416
0.07344
0.0593203
0.065482
0.0140991
0.0564739
0.0536994
0.0143748
0.0140104
0.0513032
0.0929204
0.057231
0.0556847
0.0594374
0.0584985
0.0604672
0.0601002
0.0605026
0.060591
0.0598583
0.0602579
0.0587271
0.05934
0.0572859
0.0580364
0.0556588
0.0564898
0.0539199
0.0548001
0.0521151
0.0530235
0.0502765
0.0511984
0.0484274
0.049352
0.046587
0.047505
0.0447729
0.0456757
0.0429997
0.0438805
0.0412778
0.0421319
0.0396134
0.0404382
0.0380101
0.0388041
0.0364689
0.0372318
0.0349894
0.0357216
0.03357
0.0342723
0.0322086
0.0328822
0.0309026
0.0315489
0.0296494
0.0302696
0.028446
0.0290417
0.0272897
0.0278622
0.0261776
0.0267283
0.025107
0.0256373
0.0240752
0.0245864
0.0230798
0.0235731
0.0221185
0.0225951
0.0211891
0.02165
0.0202896
0.0207358
0.0194182
0.0198506
0.0185731
0.0189925
0.0177529
0.01816
0.0169561
0.0173517
0.0161819
0.0165663
0.0154277
0.0158026
0.0146888
0.0150564
0.0139686
0.0143251
0.0138958
0.0137161
0.0138062
0.0140542
0.0139789
0.014189
0.0141259
0.0142963
0.0142455
0.0143815
0.0143417
0.0144436
0.0144155
0.014482
0.0144658
0.0144964
0.0144922
0.0144868
0.0144946
0.0144531
0.0144729
0.0143954
0.0144272
0.0143145
0.0143578
0.0142113
0.0142657
0.0140793
0.0141495
0.0139224
0.0140046
0.0137453
0.0138342
0.0151137
0.0147437
0.0158703
0.0154896
0.0166476
0.0162562
0.0174474
0.0170446
0.0182709
0.0178561
0.0191194
0.018692
0.0199945
0.0195536
0.0208978
0.0204426
0.0218312
0.0213607
0.0227967
0.0223099
0.0237965
0.0232922
0.0248329
0.02431
0.0259084
0.0253656
0.0270256
0.0264617
0.0281873
0.0276008
0.0293964
0.0287858
0.0306559
0.0300197
0.0319687
0.0313055
0.0333381
0.0326462
0.0347671
0.034045
0.0362589
0.0355051
0.0378162
0.0370293
0.0394406
0.03862
0.0411326
0.0402782
0.0428905
0.0420036
0.0447094
0.0437928
0.0465806
0.0456392
0.0484909
0.0475319
0.0504229
0.0494555
0.0523552
0.0513905
0.0542633
0.053314
0.056116
0.0551989
0.0578689
0.0570084
0.0594526
0.0586875
0.0607706
0.0601511
0.0617037
0.0612951
0.0620654
0.061968
0.0616673
0.0619761
0.0602641
0.0611276
0.0576088
0.0591256
0.0536126
0.0558307
0.0569264
0.0510266
0.0136183
0.0961553
0.0965285
0.0136512
0.0990606
0.0998029
0.101502
0.102601
0.103326
0.104764
0.104359
0.104469
0.10355
0.101584
0.0985703
0.0945524
0.0895649
0.08377
0.0772176
0.0699249
0.062088
0.0484112
0.0537768
0.109712
0.109877
0.108924
0.106813
0.103547
0.0991829
0.0937519
0.0872971
0.080002
0.0719697
0.0632602
0.0480032
0.0540116
0.0448987