/*--------------------------------*- C++ -*----------------------------------*\
  =========                 |
  \\      /  F ield         | OpenFOAM: The Open Source CFD Toolbox
   \\    /   O peration     | Website:  https://openfoam.org
    \\  /    A nd           | Version:  10
     \\/     M anipulation  |
\*---------------------------------------------------------------------------*/
FoamFile
{
    format      ascii;
    class       volVectorField;
    location    "6";
    object      U;
}
// * * * * * * * * * * * * * * * * * * * * * * * * * * * * * * * * * * * * * //

dimensions      [0 1 -1 0 0 0 0];

internalField   nonuniform List<vector> 
33313
(
(0.442156 0.0230302 -6.24709e-21)
(0.620078 0.0142201 3.35574e-21)
(0.570943 0.033278 0)
(0.258237 0.0183493 0)
(0.937819 0.0270959 -5.69789e-23)
(0.908105 0.028002 0)
(0.809417 0.0309688 -1.15997e-21)
(0.826157 0.0260549 0)
(0.911277 0.0213073 2.68232e-22)
(0.797554 0.0243114 1.51658e-21)
(0.872204 0.0294431 0)
(-0.0626879 0.0514664 -2.26748e-20)
(-0.0239578 0.0172963 -8.05634e-20)
(-0.0222116 0.0171861 -1.69318e-19)
(0.43133 -0.353411 -6.45952e-23)
(0.164528 -0.121844 1.83047e-21)
(0.145486 -0.115577 5.3469e-21)
(1.41944 -0.44092 0)
(1.42592 -0.326241 0)
(1.40335 -0.294042 0)
(1.43925 -0.365412 2.81294e-20)
(0.525821 0.0181066 0)
(0.444485 0.319975 -1.25899e-19)
(0.293295 0.275676 3.81493e-19)
(0.400197 0.00891298 -8.19808e-20)
(1.00473 -0.0199939 -4.9346e-20)
(1.00459 -0.0390388 3.42519e-20)
(1.00493 -0.0783737 0)
(0.963656 0.105056 -4.71243e-20)
(1.0364 0.100161 3.74869e-20)
(1.01606 0.0815614 2.56456e-20)
(0.996622 -0.0191814 -3.08081e-20)
(0.882213 0.0570668 -1.82589e-20)
(-0.0586858 -0.0693924 7.18639e-20)
(-0.067215 -0.0425182 -1.49712e-19)
(-0.0674437 -0.0380679 9.31419e-20)
(-0.105102 -0.0627061 1.28993e-20)
(1.14661 -0.0377662 3.20441e-23)
(1.15396 -0.0379158 2.27476e-21)
(1.46529 0.267033 -1.74526e-20)
(1.44812 0.246845 3.24133e-20)
(1.01358 -0.190519 -5.50221e-20)
(1.02037 -0.186926 -4.52225e-21)
(-0.0653763 -0.0335718 -6.17023e-20)
(-0.0764918 0.0734061 3.12685e-20)
(-0.0890809 0.0658083 -1.25885e-19)
(0.195774 0.491279 8.99749e-20)
(0.176556 0.355669 3.32465e-20)
(0.644416 -0.0628879 2.78277e-21)
(0.774229 -0.0336936 -3.53056e-21)
(1.04195 0.0679221 -3.30606e-20)
(1.05975 0.0624898 1.80883e-20)
(1.06418 -0.0973004 -4.52465e-20)
(1.01914 -0.0606008 1.22618e-19)
(0.471382 0.535371 1.32459e-19)
(0.408758 0.591384 -6.10859e-20)
(0.627105 0.726929 -8.86895e-20)
(0.371905 0.668702 2.07443e-19)
(0.222492 -0.37464 4.20475e-20)
(0.355644 -0.695548 -3.35197e-21)
(0.212023 0.529912 -5.93734e-20)
(0.407436 -0.272216 2.33956e-19)
(0.228418 -0.202442 -7.04538e-20)
(0.0980833 -0.144665 0)
(0.139644 -0.00593452 0)
(0.184741 -0.018645 2.53173e-20)
(1.44 0.0250301 4.93488e-20)
(1.35514 -0.313407 0)
(1.3544 -0.306218 0)
(0.0943609 -0.135869 4.45227e-20)
(0.126702 -0.0835039 0)
(0.295477 -0.0633013 0)
(0.180595 -0.0478507 8.6749e-21)
(1.47901 0.311701 6.26233e-20)
(-0.226918 -0.183957 9.52873e-20)
(-0.0776231 -0.196964 6.61835e-20)
(0.319086 -0.162123 0)
(0.299195 -0.173881 3.76159e-20)
(1.38896 0.34668 5.72953e-20)
(1.41646 0.296572 -3.50607e-20)
(0.820071 -0.0583026 1.46697e-19)
(0.835152 -0.0383184 -4.91998e-20)
(0.794772 -0.0940925 0)
(1.29274 0.215621 1.74165e-20)
(1.14916 0.230607 -3.56834e-21)
(0.540736 0.0680451 -1.38885e-20)
(0.046727 0.033896 0)
(-0.052545 0.0647223 1.50351e-20)
(-0.0704789 0.0558493 8.52011e-20)
(0.0382515 -0.13485 2.82429e-19)
(-0.192471 -0.189926 6.5169e-21)
(-0.111015 -0.220484 -2.65118e-21)
(-0.11627 -0.179695 -4.32311e-19)
(-0.147268 -0.166937 0)
(-0.166036 -0.152361 4.61762e-20)
(1.04234 0.0624854 0)
(1.01588 0.0599667 -3.92701e-21)
(0.71568 -0.0682029 -5.15583e-21)
(0.855028 -0.0469075 1.2752e-21)
(1.45613 -0.30625 0)
(1.45232 -0.342259 -6.17735e-20)
(1.4494 -0.276928 0)
(1.46852 -0.231551 3.0059e-20)
(1.48988 -0.243943 4.98084e-21)
(1.41132 -0.228991 -3.34544e-20)
(0.236355 -0.0248374 -1.54756e-21)
(0.161937 -0.0540076 -8.18242e-20)
(-0.0293776 -0.0531529 -5.77021e-20)
(-0.0273504 -0.0519199 -2.8921e-22)
(0.903488 -0.613263 -1.52234e-21)
(1.09778 -0.781828 1.45699e-20)
(0.925641 -0.729871 3.82671e-20)
(0.71304 -0.499409 0)
(0.709416 -0.215154 7.13064e-20)
(0.259553 -0.0457103 3.49427e-20)
(0.624408 -0.0995641 -3.17125e-20)
(0.206731 0.0616507 -4.32593e-19)
(0.171665 0.207903 4.93838e-20)
(1.48187 -0.231411 1.49609e-21)
(1.47937 -0.223893 0)
(-0.0808501 -0.0807568 0)
(-0.0514044 -0.0430426 9.69368e-20)
(-0.0700096 -0.0644014 0)
(0.550314 -0.0213707 -6.09104e-21)
(0.62916 -0.0169308 4.59698e-21)
(0.327234 -0.0538 -1.17753e-20)
(0.768244 0.7192 1.54773e-19)
(1.23719 -0.0649222 1.2689e-21)
(1.2337 -0.0722294 0)
(-0.146478 0.114219 2.56801e-20)
(-0.180007 0.0745853 -3.40793e-20)
(-0.0712874 -0.0799832 -1.53705e-19)
(-0.0609749 -0.0675712 2.82309e-19)
(0.878046 0.681223 2.64013e-20)
(1.03606 0.697883 3.6652e-20)
(0.899643 0.645868 0)
(0.746264 0.584985 0)
(0.488322 -0.339904 -6.19728e-21)
(0.613313 -0.435134 0)
(0.855524 -0.761826 -1.05176e-19)
(0.857184 -0.727388 -3.92863e-20)
(0.725627 -0.774815 1.16287e-19)
(1.22554 -0.0562136 2.52813e-21)
(1.22593 -0.0500621 2.21942e-20)
(1.24171 -0.0595916 -3.10553e-22)
(1.0904 -0.0149353 0)
(1.09495 -0.0145558 -1.24566e-21)
(1.09711 -0.017972 2.072e-21)
(1.10131 -0.0201 1.00185e-21)
(0.996125 -0.230827 4.15076e-20)
(1.0097 -0.236492 0)
(0.99323 -0.186814 -7.16633e-20)
(1.00085 -0.202112 4.0996e-20)
(0.938741 0.101303 2.92139e-20)
(0.931459 0.12062 -4.51689e-20)
(0.952129 0.129529 2.76905e-20)
(0.945407 0.140585 1.61364e-19)
(0.0984025 -0.185729 2.75492e-20)
(-0.116641 -0.173044 0)
(0.0355816 -0.175728 -3.72788e-20)
(-0.0528324 -0.0542275 -2.38085e-19)
(0.439929 0.359029 5.89183e-21)
(0.469512 0.424148 -1.32256e-20)
(0.846535 0.70792 -3.86847e-20)
(0.476956 0.47554 -5.33785e-20)
(-0.0825569 0.0561108 0)
(-0.0939507 0.096059 7.61135e-20)
(-0.154509 0.105663 -5.15343e-20)
(0.395273 0.0766658 0)
(0.957318 0.0222718 0)
(0.989262 0.021767 -5.78674e-22)
(1.07225 -0.0032144 2.12273e-21)
(1.07357 -0.00693585 -1.29387e-21)
(1.09345 0.0392607 5.50765e-22)
(1.09706 0.0441512 1.08365e-23)
(1.01332 -0.0912949 1.01574e-20)
(1.02512 -0.0755855 -4.37322e-20)
(0.314659 0.0930932 1.13107e-19)
(0.249751 0.089427 -9.14512e-20)
(1.1117 0.166735 0)
(1.1191 0.172956 0)
(1.12808 0.0262395 3.78035e-23)
(1.13337 0.029497 1.00414e-21)
(1.10258 0.198772 -2.81731e-20)
(1.09796 0.192065 1.01997e-20)
(0.821153 -0.022765 0)
(0.831589 0.00152994 -1.65985e-20)
(0.212397 0.0797212 2.2681e-20)
(0.201899 0.0733882 2.71197e-20)
(0.0271825 0.0941333 -1.83916e-22)
(-0.32562 -0.155307 -2.50922e-19)
(0.836576 0.0416882 -5.23999e-20)
(0.866932 0.0409501 2.2307e-20)
(-0.128459 0.0670212 8.60362e-21)
(-0.179915 0.0505686 0)
(0.921126 0.24686 0)
(0.895877 0.278845 -4.7322e-21)
(0.863342 0.371265 -5.65055e-20)
(0.961317 -0.280234 2.57049e-20)
(0.932894 -0.308621 0)
(0.928822 -0.465005 3.10204e-20)
(0.812331 -0.00249833 -4.40442e-20)
(0.841016 0.00440105 5.33894e-20)
(1.04062 -0.0676353 3.80562e-21)
(1.03374 -0.0606979 -8.39159e-21)
(-0.100529 0.145548 0)
(-0.0878174 0.109207 -4.49439e-20)
(1.22121 -0.659907 -1.80067e-20)
(1.15887 -0.666161 8.67976e-21)
(1.02906 -0.0570612 -2.96561e-20)
(1.03407 -0.0659615 3.53654e-20)
(0.916985 0.0288003 7.90043e-24)
(0.960902 0.0258874 -9.16025e-24)
(0.959724 0.0253318 -9.34572e-22)
(0.924125 0.0267698 -5.78475e-22)
(0.558503 -0.429878 4.89862e-21)
(-0.0419439 0.0291778 7.43042e-20)
(-0.039563 0.0285613 -4.03185e-20)
(0.980991 0.194597 1.20781e-20)
(0.980026 0.176857 -5.65393e-21)
(0.991919 0.176531 5.67801e-21)
(0.99486 0.194992 0)
(1.48692 -0.224642 -2.53727e-20)
(1.48948 -0.206732 1.43212e-21)
(1.47942 -0.198997 2.4678e-20)
(1.10261 0.299618 0)
(1.0866 0.294417 -3.11121e-20)
(1.10564 0.297586 0)
(-0.061282 0.0433008 -5.09544e-20)
(-0.0219071 0.0145852 -1.15102e-19)
(-0.026764 0.0180189 0)
(0.193172 -0.131746 -3.79453e-20)
(0.159495 -0.114841 1.18221e-20)
(1.07018 -0.0017736 1.51883e-21)
(1.08303 0.0104317 -2.4082e-21)
(1.08525 0.0138596 -1.02304e-21)
(1.25897 -0.409469 0)
(1.03559 -0.194877 0)
(1.01753 -0.00411919 1.38456e-21)
(1.02016 -0.00405065 1.21343e-21)
(1.02298 -0.00425261 -1.67935e-21)
(1.02532 -0.00429826 1.23558e-22)
(1.02776 -0.00473218 0)
(1.02997 -0.00490132 8.59298e-22)
(1.03212 -0.00506474 -8.59202e-22)
(1.03416 -0.00520068 -8.15288e-22)
(1.03608 -0.00531129 8.14785e-22)
(1.03789 -0.00537188 7.74139e-22)
(1.03957 -0.00539124 -7.73628e-22)
(1.04114 -0.00535701 -7.35831e-22)
(1.04259 -0.00528503 7.35312e-22)
(1.04392 -0.00517082 0)
(1.04514 -0.00503281 0)
(1.04625 -0.00487061 0)
(1.04724 -0.00470162 -6.5003e-22)
(1.04814 -0.00452596 6.50576e-22)
(1.04894 -0.00435725 0)
(1.04965 -0.0041937 0)
(1.05029 -0.00404466 0)
(1.05085 -0.00390515 -5.77539e-22)
(1.05134 -0.00378279 1.33881e-23)
(1.05178 -0.00366675 1.11586e-21)
(1.05216 -0.00357241 -5.51681e-22)
(1.05249 -0.0034685 5.25883e-22)
(1.05281 -0.00341631 -1.63139e-21)
(1.05308 -0.00333043 -4.31054e-24)
(1.05332 -0.00325331 0)
(1.05356 -0.00315978 -1.54643e-22)
(1.05376 -0.00308679 0)
(1.05394 -0.00299638 3.01268e-22)
(1.01802 -0.00720061 0)
(1.01408 -0.00559205 -2.93567e-21)
(1.0155 -0.00820837 -8.38378e-22)
(1.01479 -0.00295712 -7.77526e-22)
(1.05424 -0.00277822 3.03878e-22)
(1.05411 -0.00296196 -2.87339e-22)
(1.05389 -0.00329782 0)
(1.05421 -0.00307963 1.42635e-22)
(1.05407 -0.00321872 1.48911e-22)
(1.05351 -0.00351637 0)
(1.05372 -0.00341149 0)
(1.053 -0.00377933 0)
(1.05327 -0.00366397 0)
(1.05237 -0.00407481 -1.42212e-28)
(1.0527 -0.00392644 0)
(1.05158 -0.00442343 0)
(1.052 -0.0042402 0)
(1.05055 -0.00485403 1.67769e-24)
(1.0511 -0.0046277 0)
(1.04924 -0.0053728 0)
(1.04994 -0.00510322 0)
(1.04759 -0.00595974 1.84778e-24)
(1.04847 -0.00566059 0)
(1.04554 -0.00656369 1.94098e-24)
(1.04662 -0.00626435 0)
(1.04305 -0.00710874 2.04037e-24)
(1.04435 -0.00684925 2.45141e-28)
(1.04008 -0.00751559 0)
(1.04163 -0.00733419 0)
(1.03663 -0.00773125 0)
(1.03842 -0.00764929 0)
(1.0327 -0.00776111 0)
(1.03473 -0.00776628 0)
(1.0282 -0.00767835 0)
(1.03054 -0.00773051 0)
(1.02324 -0.00736954 -6.39452e-22)
(1.0258 -0.00738664 -1.5379e-22)
(1.02064 -0.00698926 -7.57546e-24)
(1.01122 -0.00546716 6.14099e-24)
(1.01242 -0.00821957 -4.39867e-22)
(1.05438 -0.00313271 0)
(1.01189 -0.00268402 2.55265e-21)
(1.05437 -0.00285747 0)
(1.05432 -0.00271365 -3.44115e-22)
(1.00806 -0.0055161 -2.39173e-25)
(1.0095 -0.00861288 4.51112e-22)
(1.05449 -0.00304823 6.49657e-22)
(1.05414 -0.00266237 0)
(1.0088 -0.00245731 4.37432e-22)
(1.05427 -0.0025964 3.15617e-22)
(1.00603 -0.0086553 4.67516e-22)
(1.00556 -0.00240185 -4.5291e-22)
(1.00474 -0.00558151 0)
(1.01696 -0.000387963 -1.73361e-23)
(1.01154 0.000428277 -7.54792e-22)
(1.01437 3.84818e-05 -1.63348e-21)
(1.02178 -0.00126555 -4.08178e-23)
(1.0194 -0.000984889 7.30381e-22)
(1.0267 -0.00160694 1.29672e-24)
(1.02429 -0.00130571 1.37379e-21)
(1.03103 -0.00232617 0)
(1.02892 -0.00197227 0)
(1.03495 -0.00294209 0)
(1.03304 -0.00265226 0)
(1.03844 -0.00339186 0)
(1.03675 -0.00318987 0)
(1.0415 -0.00365036 0)
(1.04002 -0.00354492 0)
(1.04414 -0.00373353 0)
(1.04287 -0.00371115 0)
(1.04635 -0.00369094 0)
(1.04529 -0.00372412 0)
(1.04816 -0.00358176 0)
(1.0473 -0.0036412 0)
(1.04961 -0.00345396 0)
(1.04893 -0.00351806 0)
(1.05077 -0.00333428 0)
(1.05023 -0.00339274 0)
(1.05168 -0.00322955 -1.35603e-27)
(1.05125 -0.00328212 0)
(1.0524 -0.00313462 1.40074e-27)
(1.05206 -0.00319001 0)
(1.05297 -0.00306113 9.00159e-23)
(1.05272 -0.00312501 1.25407e-21)
(1.05344 -0.00297371 3.09073e-22)
(1.05323 -0.00304012 -5.55742e-22)
(1.05383 -0.00282793 -3.04041e-22)
(1.05364 -0.00290149 1.54024e-22)
(1.05399 -0.00275781 0)
(1.05448 -0.0027931 8.26261e-23)
(1.05438 -0.00256387 1.60743e-23)
(1.05443 -0.00267334 0)
(1.05433 -0.00329934 1.931e-23)
(1.0546 -0.00314927 -6.31892e-22)
(1.05447 -0.00323487 0)
(1.05405 -0.00350052 0)
(1.0542 -0.00339405 -7.87554e-23)
(1.05367 -0.00375083 8.94702e-23)
(1.05387 -0.00363025 0)
(1.0532 -0.00405344 0)
(1.05345 -0.00389534 -8.96782e-23)
(1.0526 -0.00441559 1.31098e-27)
(1.05291 -0.00422594 0)
(1.05184 -0.00486129 0)
(1.05224 -0.00462632 0)
(1.05087 -0.00541552 -1.67439e-24)
(1.05139 -0.00512391 0)
(1.04964 -0.00608652 0)
(1.05029 -0.00573712 0)
(1.04809 -0.00685395 -1.84415e-24)
(1.04891 -0.00646105 0)
(1.04618 -0.00766328 -1.93717e-24)
(1.04719 -0.00725832 0)
(1.04385 -0.00843271 -2.03636e-24)
(1.04507 -0.00805893 -2.44657e-28)
(1.04109 -0.00907577 0)
(1.04253 -0.00877506 0)
(1.03788 -0.00953362 0)
(1.03954 -0.00932987 0)
(1.03424 -0.00980225 0)
(1.03612 -0.00968974 0)
(1.03014 -0.00994997 -2.48736e-24)
(1.03225 -0.00988249 0)
(1.02555 -0.0100284 0)
(1.02789 -0.0100083 0)
(1.02077 -0.010209 0)
(1.02316 -0.0100299 0)
(1.0156 -0.0109392 2.13209e-22)
(1.01831 -0.0106394 9.51233e-22)
(1.00974 -0.0116873 3.09142e-22)
(1.01283 -0.0114479 -1.26822e-21)
(1.05459 -0.0029395 -2.40519e-22)
(1.00857 0.000689666 8.06483e-22)
(1.00281 -0.00913328 -4.69859e-22)
(1.00688 -0.0123692 6.60301e-22)
(1.05448 -0.00251399 -1.75645e-22)
(1.05434 -0.00245095 -2.38068e-22)
(1.05444 -0.00240765 -1.17717e-22)
(1.00215 -0.00244491 0)
(1.05473 -0.00323038 -3.15073e-22)
(1.05471 -0.00304264 -7.78177e-23)
(1.05483 -0.00312669 -3.51542e-22)
(1.00542 0.000874648 1.38348e-23)
(1.00123 -0.00581016 0)
(1.01589 0.00298489 2.12016e-22)
(1.01081 0.00380181 1.11847e-21)
(1.01347 0.00342821 -4.31004e-22)
(1.02061 0.00212903 7.60965e-22)
(1.01838 0.00257546 0)
(1.02485 0.0012849 -2.14244e-23)
(1.02274 0.00169461 -3.52001e-22)
(1.02907 0.000505875 8.12102e-23)
(1.02701 0.000919382 -1.02576e-22)
(1.03286 -0.000384213 0)
(1.03101 5.60128e-05 0)
(1.03632 -0.00118171 0)
(1.03462 -0.000799533 0)
(1.03945 -0.00182224 0)
(1.03792 -0.00152363 0)
(1.04222 -0.00228053 0)
(1.04088 -0.00207423 0)
(1.04463 -0.0025666 0)
(1.04347 -0.00244287 0)
(1.04667 -0.00272068 9.39842e-25)
(1.04569 -0.00265688 0)
(1.04835 -0.00279225 0)
(1.04755 -0.00276379 0)
(1.04971 -0.00282193 0)
(1.04906 -0.00281045 0)
(1.0508 -0.00283291 0)
(1.05028 -0.00282923 0)
(1.05167 -0.00283252 -1.6026e-27)
(1.05126 -0.00283503 0)
(1.05237 -0.00281793 1.37638e-27)
(1.05204 -0.00283011 0)
(1.05292 -0.00278492 1.2519e-23)
(1.05267 -0.00280454 0)
(1.05337 -0.00273828 3.94164e-23)
(1.05316 -0.00276797 3.35744e-22)
(1.05376 -0.00266077 -8.0353e-23)
(1.05357 -0.00270371 -4.07723e-23)
(1.05408 -0.00255599 7.98579e-23)
(1.05392 -0.00261026 1.5848e-22)
(1.05422 -0.00249836 -8.10998e-23)
(1.0546 -0.00272829 9.89262e-23)
(1.05454 -0.00262317 0)
(1.05481 -0.00294099 -2.19381e-22)
(1.0547 -0.00284837 4.04352e-23)
(1.05447 -0.00344534 -8.62104e-24)
(1.0546 -0.00333308 0)
(1.0542 -0.00368412 -2.09985e-23)
(1.05435 -0.00356531 3.02821e-23)
(1.05386 -0.00397422 -1.38489e-24)
(1.05404 -0.00382046 -2.12787e-23)
(1.05342 -0.00430936 0)
(1.05365 -0.00413052 0)
(1.05286 -0.00473421 2.23559e-27)
(1.05316 -0.00450996 0)
(1.05216 -0.00526719 1.59286e-24)
(1.05253 -0.00498564 0)
(1.05128 -0.00593266 0)
(1.05175 -0.00558238 0)
(1.05017 -0.00673984 0)
(1.05076 -0.0063192 0)
(1.04878 -0.00766792 0)
(1.04951 -0.00719173 0)
(1.04708 -0.00865947 1.93103e-24)
(1.04797 -0.00816095 0)
(1.04502 -0.00962736 0)
(1.0461 -0.00915269 0)
(1.04259 -0.0104778 0)
(1.04385 -0.0100727 0)
(1.03977 -0.0111445 0)
(1.04123 -0.0108365 0)
(1.03659 -0.0116154 0)
(1.03823 -0.0114032 0)
(1.03304 -0.0119478 2.50616e-24)
(1.03486 -0.0117908 0)
(1.02912 -0.0123123 0)
(1.03112 -0.0121157 0)
(1.02494 -0.0127944 -3.64854e-22)
(1.02706 -0.012536 0)
(1.02046 -0.0135092 3.01921e-24)
(1.02273 -0.0130957 3.71123e-22)
(1.01565 -0.0146112 8.05355e-23)
(1.01815 -0.0140419 -8.15935e-22)
(1.00359 -0.0129199 9.08554e-22)
(1.01059 -0.0161455 0)
(1.01323 -0.0153502 6.33851e-22)
(1.00227 0.00118093 -2.35468e-21)
(1.00822 0.00430242 1.18233e-21)
(0.998566 -0.00232605 -9.92544e-22)
(0.999104 -0.0094135 0)
(1.05492 -0.00302181 3.45011e-22)
(1.00782 -0.0170542 0)
(1.00028 -0.0137614 -2.10595e-21)
(1.05457 -0.00246572 7.79015e-23)
(1.05453 -0.00236867 -1.12552e-22)
(1.0543 -0.00234426 -3.5807e-22)
(0.998972 0.00151441 0)
(1.00564 0.00487719 7.2744e-22)
(1.05441 -0.00230363 0)
(0.997475 -0.00584889 0)
(1.01784 0.00626019 -9.21347e-22)
(1.01401 0.00744356 -7.21741e-22)
(1.01594 0.00682175 7.38274e-22)
(1.02172 0.00522252 1.51827e-22)
(1.01987 0.00575976 -4.67071e-22)
(1.02549 0.00430665 5.58886e-22)
(1.02365 0.00476657 -9.15271e-23)
(1.02894 0.00330422 1.27543e-22)
(1.02722 0.00381045 0)
(1.03229 0.00227515 7.23953e-27)
(1.03064 0.00279237 -8.5097e-23)
(1.03537 0.00127429 0)
(1.03386 0.00177 0)
(1.03825 0.000347846 0)
(1.03684 0.000797374 0)
(1.0409 -0.000440175 0)
(1.03961 -6.58588e-05 0)
(1.04329 -0.00106009 0)
(1.04213 -0.000771438 0)
(1.04539 -0.00151599 -9.83487e-25)
(1.04438 -0.00130686 0)
(1.04718 -0.00183839 -9.39842e-25)
(1.04632 -0.00169125 0)
(1.04868 -0.00206687 0)
(1.04797 -0.00196191 0)
(1.04991 -0.00223446 0)
(1.04933 -0.00215667 0)
(1.05091 -0.00236055 0)
(1.05044 -0.00230208 0)
(1.05172 -0.00245204 -2.02675e-27)
(1.05134 -0.00241079 0)
(1.05238 -0.0025079 1.73786e-27)
(1.05207 -0.00248481 0)
(1.05291 -0.00252659 7.06139e-25)
(1.05266 -0.00251858 0)
(1.05335 -0.00252018 1.35217e-24)
(1.05314 -0.00252411 0)
(1.05372 -0.0024901 8.28335e-23)
(1.05354 -0.00250959 0)
(1.05404 -0.00242925 8.20585e-23)
(1.05389 -0.00246316 -1.62987e-22)
(1.05418 -0.00239197 1.20736e-22)
(1.0547 -0.00266181 -1.87687e-23)
(1.05463 -0.00256325 -7.48307e-23)
(1.05489 -0.00284972 -3.07456e-22)
(1.05479 -0.00276724 -3.69956e-23)
(1.05486 -0.00331062 3.76872e-22)
(1.05504 -0.0030958 -3.07511e-22)
(1.05496 -0.00320284 2.01218e-23)
(1.05463 -0.00355911 -2.30768e-27)
(1.05475 -0.00342612 -7.95497e-23)
(1.05438 -0.00384068 8.32964e-23)
(1.05451 -0.00369734 0)
(1.05406 -0.00416262 1.38117e-24)
(1.05423 -0.00399271 0)
(1.05366 -0.00454734 0)
(1.05387 -0.00434417 0)
(1.05315 -0.00502952 3.07546e-27)
(1.05342 -0.00477456 0)
(1.05253 -0.0056376 -1.59286e-24)
(1.05286 -0.00531615 0)
(1.05175 -0.00639754 0)
(1.05216 -0.00599757 0)
(1.05079 -0.00731919 0)
(1.05129 -0.0068388 0)
(1.0496 -0.00838142 0)
(1.05022 -0.00783577 0)
(1.04817 -0.00952471 -1.93103e-24)
(1.04892 -0.00894831 0)
(1.04645 -0.0106578 0)
(1.04734 -0.0100992 0)
(1.04443 -0.0116805 0)
(1.04548 -0.0111888 0)
(1.04211 -0.0125188 0)
(1.04331 -0.0121255 0)
(1.03949 -0.0131545 0)
(1.04083 -0.0128608 0)
(1.0366 -0.0136404 -2.48689e-24)
(1.03808 -0.0134094 0)
(1.03346 -0.0141242 0)
(1.03506 -0.0138706 0)
(1.03013 -0.014756 -1.38178e-26)
(1.03182 -0.0144153 0)
(1.02665 -0.0156121 0)
(1.02841 -0.0151458 0)
(1.023 -0.0168871 -2.0621e-22)
(1.02485 -0.0162048 0)
(1.01924 -0.0186275 1.58343e-21)
(1.02117 -0.0177086 -1.06291e-22)
(1.00488 -0.0180669 1.95061e-21)
(1.01512 -0.0208287 -1.88102e-21)
(1.01725 -0.0196633 1.69908e-22)
(1.055 -0.00292367 4.97286e-24)
(1.00277 0.00532063 0)
(1.01195 0.00808884 1.9975e-23)
(0.994817 -0.00223684 9.78591e-22)
(0.995362 -0.00998059 4.74497e-22)
(1.0545 -0.00226968 3.03491e-22)
(1.01293 -0.0221362 -3.02979e-23)
(1.02627 -0.0227527 -1.83601e-21)
(1.0249 -0.0241311 3.83523e-21)
(0.995375 0.0017769 1.0454e-21)
(0.996565 -0.0145348 9.35052e-22)
(1.00178 -0.0192305 -1.888e-21)
(0.999929 0.00589079 0)
(1.05517 -0.00316476 2.87662e-22)
(1.05512 -0.00299189 3.78798e-23)
(1.05524 -0.00305279 2.95244e-22)
(1.00979 0.00877554 -1.0201e-21)
(0.993483 -0.00606489 -4.89109e-22)
(1.02325 0.00931483 -4.71106e-22)
(1.0205 0.0108795 0)
(1.02192 0.0100656 1.44859e-21)
(1.0258 0.00803397 -2.14645e-22)
(1.02454 0.00865464 2.16922e-22)
(1.02848 0.00691514 -1.94414e-22)
(1.02715 0.00745593 4.05458e-22)
(1.03109 0.00586696 0)
(1.0298 0.00639067 0)
(1.03357 0.00476782 0)
(1.03234 0.00532611 0)
(1.03599 0.00365922 2.53565e-24)
(1.03479 0.00420701 0)
(1.03831 0.00259186 0)
(1.03716 0.00312172 0)
(1.04054 0.00158551 0)
(1.03944 0.00207705 0)
(1.04265 0.000699099 0)
(1.04161 0.00112494 0)
(1.04459 -3.72214e-05 0)
(1.04364 0.000311681 0)
(1.04633 -0.00062233 9.83487e-25)
(1.04549 -0.000347603 0)
(1.04784 -0.00107747 0)
(1.04711 -0.000864139 0)
(1.04913 -0.00143258 0)
(1.04851 -0.00126561 0)
(1.0502 -0.00171317 0)
(1.04969 -0.0015809 0)
(1.05109 -0.00193461 0)
(1.05066 -0.00183068 0)
(1.05182 -0.00210318 -2.5085e-27)
(1.05147 -0.00202536 0)
(1.05243 -0.00222055 2.22489e-27)
(1.05214 -0.00216808 0)
(1.05293 -0.00229061 -7.06092e-25)
(1.05269 -0.0022603 0)
(1.05336 -0.00232431 0)
(1.05315 -0.00231114 0)
(1.05371 -0.00232564 0)
(1.05354 -0.00232989 0)
(1.05402 -0.00229918 -1.60942e-22)
(1.05387 -0.00231981 0)
(1.05428 -0.00223987 3.92019e-22)
(1.05416 -0.00227714 -7.7937e-23)
(1.05449 -0.00218047 -6.24727e-22)
(1.05439 -0.00220922 1.89718e-23)
(1.05466 -0.00241438 7.41795e-23)
(1.05459 -0.00223379 -7.29147e-23)
(1.05462 -0.00232642 0)
(1.05478 -0.00259858 0)
(1.05471 -0.00250484 0)
(1.05497 -0.00276008 3.58018e-23)
(1.05487 -0.00268914 -1.45281e-22)
(1.05518 -0.00288715 -1.84492e-22)
(1.05507 -0.002825 2.87148e-22)
(1.055 -0.00339515 1.21495e-24)
(1.05509 -0.00327995 3.30203e-22)
(1.0548 -0.00366795 -2.84482e-27)
(1.0549 -0.00352501 0)
(1.05456 -0.00397845 2.63449e-24)
(1.05469 -0.00381819 0)
(1.05427 -0.00433262 -3.15397e-27)
(1.05442 -0.00414908 0)
(1.05391 -0.00476042 0)
(1.0541 -0.00453577 0)
(1.05346 -0.00529214 3.9689e-27)
(1.05369 -0.00501132 0)
(1.05292 -0.00596097 0)
(1.0532 -0.00560757 0)
(1.05226 -0.00679502 0)
(1.0526 -0.00635627 0)
(1.05146 -0.00780487 0)
(1.05188 -0.0072786 0)
(1.0505 -0.00896941 0)
(1.051 -0.00837086 0)
(1.04936 -0.0102281 0)
(1.04996 -0.00959246 0)
(1.04802 -0.0114868 2.01493e-24)
(1.04872 -0.0108643 0)
(1.04646 -0.0126407 0)
(1.04727 -0.0120831 0)
(1.04469 -0.0136083 2.22782e-24)
(1.0456 -0.0131511 0)
(1.04271 -0.0143638 0)
(1.04372 -0.0140115 0)
(1.04055 -0.0149562 2.48689e-24)
(1.04165 -0.0146743 0)
(1.03826 -0.015512 0)
(1.03941 -0.0152283 0)
(1.03588 -0.0162005 -1.88244e-26)
(1.03708 -0.0158294 0)
(1.03346 -0.0171718 0)
(1.03467 -0.0166413 0)
(1.03102 -0.0185468 -2.44039e-24)
(1.03224 -0.0178048 0)
(1.0287 -0.0204123 6.58341e-22)
(1.02983 -0.0194201 3.11801e-22)
(1.02748 -0.0215183 -5.57822e-22)
(1.01052 -0.0235631 -2.03437e-21)
(1.02347 -0.025676 -2.06032e-21)
(1.05457 -0.00214827 0)
(1.00718 0.00944659 3.27639e-21)
(1.01898 0.0117065 -1.03167e-21)
(0.990737 -0.00208299 -1.05014e-21)
(0.991175 -0.010537 -2.34915e-22)
(1.0553 -0.0029465 2.88409e-22)
(0.991827 0.00225968 0)
(0.992738 -0.015537 0)
(0.996599 0.00643477 1.09813e-21)
(0.998483 -0.0205325 0)
(1.02191 -0.0273932 0)
(1.008 -0.0251751 2.05656e-21)
(1.00542 0.0104366 -3.90244e-21)
(1.05448 -0.00209607 1.20435e-21)
(1.05456 -0.00207818 -3.67319e-22)
(1.01796 0.012744 2.77986e-23)
(0.989206 -0.00623613 -2.43763e-22)
(1.03131 0.012066 9.77672e-22)
(1.03015 0.0141003 5.25868e-22)
(1.03062 0.0130253 -1.00274e-21)
(1.03256 0.0104764 -6.64324e-24)
(1.03194 0.0112321 2.27298e-22)
(1.03391 0.00914529 1.58264e-24)
(1.03323 0.00978543 -2.1592e-22)
(1.03536 0.00797394 0)
(1.03463 0.00855037 0)
(1.03683 0.00684987 0)
(1.0361 0.00740688 0)
(1.03832 0.00573829 0)
(1.03757 0.00629502 0)
(1.03985 0.00463202 -2.51693e-24)
(1.03908 0.00518262 0)
(1.04141 0.00354875 0)
(1.04063 0.00408717 0)
(1.04298 0.00251558 0)
(1.0422 0.00302278 0)
(1.04453 0.00158141 0)
(1.04376 0.00203388 0)
(1.04601 0.000775484 1.02241e-24)
(1.04528 0.00116169 0)
(1.04737 0.000103913 -9.73724e-25)
(1.0467 0.000423482 0)
(1.04858 -0.000446003 0)
(1.04799 -0.000184866 0)
(1.04964 -0.000895049 0)
(1.04913 -0.000681728 0)
(1.05055 -0.00126162 0)
(1.05011 -0.00108767 0)
(1.05131 -0.00155718 0)
(1.05095 -0.00141776 0)
(1.05197 -0.00178732 -2.97844e-27)
(1.05165 -0.00168014 0)
(1.05252 -0.00195581 2.67788e-27)
(1.05225 -0.00187888 0)
(1.05299 -0.00206872 7.0161e-25)
(1.05276 -0.00201854 0)
(1.05339 -0.00213611 0)
(1.05319 -0.00210757 0)
(1.05373 -0.00216625 0)
(1.05356 -0.00215565 0)
(1.05402 -0.00216769 1.22592e-24)
(1.05388 -0.00217076 0)
(1.05427 -0.00214032 4.74147e-24)
(1.05415 -0.00216118 0)
(1.05438 -0.00212324 1.47071e-22)
(1.05467 -0.00220754 7.23823e-23)
(1.05465 -0.0020589 -7.09847e-23)
(1.05465 -0.00212723 0)
(1.05473 -0.00236801 0)
(1.05469 -0.00228837 6.99419e-23)
(1.05485 -0.00253073 0)
(1.05479 -0.00245251 0)
(1.05503 -0.00267424 -2.10909e-22)
(1.05494 -0.0026091 0)
(1.05524 -0.00278986 -3.18355e-22)
(1.05513 -0.00273213 1.59951e-22)
(1.05535 -0.00284132 3.8176e-23)
(1.0553 -0.00322213 3.83127e-23)
(1.05542 -0.00299331 -6.69466e-25)
(1.05536 -0.00310584 -2.97493e-22)
(1.05515 -0.0034747 -3.08386e-27)
(1.05523 -0.00334347 -3.79302e-23)
(1.05497 -0.00376953 -3.3762e-27)
(1.05506 -0.00361874 0)
(1.05475 -0.00410279 -3.64858e-27)
(1.05487 -0.00393076 0)
(1.05449 -0.00448713 -3.93263e-27)
(1.05463 -0.00428752 0)
(1.05416 -0.00494882 0)
(1.05433 -0.00470653 0)
(1.05378 -0.00551962 4.86945e-27)
(1.05398 -0.00521857 0)
(1.05332 -0.00623372 1.57958e-24)
(1.05356 -0.00585683 0)
(1.05278 -0.00712023 0)
(1.05306 -0.0066543 0)
(1.05215 -0.00819031 0)
(1.05248 -0.00763292 0)
(1.05143 -0.00942322 0)
(1.0518 -0.00878945 0)
(1.05059 -0.0107583 1.90975e-24)
(1.05102 -0.0100835 0)
(1.04964 -0.0121004 -2.01493e-24)
(1.05013 -0.0114355 0)
(1.04855 -0.0133413 0)
(1.04911 -0.01274 0)
(1.04734 -0.014393 -2.22782e-24)
(1.04796 -0.0138946 0)
(1.046 -0.0152217 0)
(1.04668 -0.0148346 0)
(1.04458 -0.0158694 2.45633e-24)
(1.0453 -0.0155625 0)
(1.04312 -0.0164512 0)
(1.04385 -0.0161592 0)
(1.04167 -0.0171301 -5.49785e-24)
(1.04239 -0.0167675 0)
(1.04029 -0.0180837 0)
(1.04097 -0.017562 0)
(1.03901 -0.0194542 -3.07086e-24)
(1.03963 -0.018711 0)
(1.03793 -0.0213174 2.23125e-22)
(1.03844 -0.0203129 2.09933e-22)
(1.03698 -0.0237679 8.41348e-22)
(1.03741 -0.0224627 -1.34477e-21)
(1.03592 -0.0268779 1.90894e-21)
(1.03649 -0.0252268 -1.90084e-21)
(1.02023 -0.0292951 2.02416e-21)
(1.03474 -0.0308271 0)
(1.03525 -0.0287472 0)
(1.01597 0.0137403 -2.89644e-21)
(1.0293 0.015247 1.63689e-21)
(0.986465 -0.00190212 1.01025e-21)
(0.98674 -0.01119 0)
(1.03381 -0.0331586 0)
(1.01852 -0.0314479 -2.13302e-21)
(0.98774 0.00265208 2.12496e-23)
(0.988558 -0.0166216 -2.53554e-22)
(0.993495 0.00723727 1.1157e-21)
(0.994938 -0.0219698 -3.22115e-23)
(1.05472 -0.00204031 2.12706e-22)
(1.05464 -0.00198822 1.82352e-23)
(1.05471 -0.00197673 0)
(1.0027 0.0113345 1.14809e-21)
(1.00521 -0.0269484 1.32945e-22)
(1.01571 0.0152044 -1.18522e-21)
(1.05547 -0.00287933 6.91428e-25)
(1.02989 0.0167255 0)
(0.984598 -0.00646743 8.08991e-24)
(1.04137 0.0146079 7.54957e-22)
(1.04236 0.0173935 0)
(1.04154 0.0159266 -1.56862e-21)
(1.0412 0.0125343 -2.3378e-22)
(1.04118 0.0134979 2.38844e-22)
(1.04122 0.0109152 0)
(1.04121 0.0116737 0)
(1.0414 0.00959232 -1.56561e-24)
(1.0413 0.0102304 0)
(1.04173 0.0084111 -1.46032e-24)
(1.04155 0.00898646 0)
(1.0422 0.00732169 0)
(1.04195 0.00785867 0)
(1.0428 0.00626453 0)
(1.04248 0.00679238 0)
(1.04354 0.00520773 1.14847e-26)
(1.04315 0.00573619 0)
(1.04442 0.00415944 0)
(1.04397 0.00468143 0)
(1.04538 0.0031472 0)
(1.04489 0.00364644 0)
(1.0464 0.00221076 0)
(1.04589 0.00266742 0)
(1.04743 0.00137887 -1.02241e-24)
(1.04692 0.0017808 0)
(1.04843 0.000661832 9.73724e-25)
(1.04794 0.00100619 0)
(1.04935 5.43654e-05 9.2261e-25)
(1.0489 0.000345237 0)
(1.05018 -0.000456153 0)
(1.04978 -0.000212072 0)
(1.05092 -0.000881745 0)
(1.05056 -0.000678878 0)
(1.05157 -0.00123019 0)
(1.05126 -0.0010652 0)
(1.05214 -0.00150612 -3.43484e-27)
(1.05186 -0.00137689 0)
(1.05263 -0.00171409 3.09765e-27)
(1.05239 -0.00161815 0)
(1.05306 -0.0018611 -7.0161e-25)
(1.05286 -0.00179458 0)
(1.05344 -0.00195725 -1.33517e-24)
(1.05326 -0.00191489 0)
(1.05376 -0.00201283 0)
(1.0536 -0.00198966 0)
(1.05404 -0.00203707 -1.21807e-24)
(1.0539 -0.00202865 0)
(1.05427 -0.00203602 7.54712e-23)
(1.05416 -0.00204072 0)
(1.05447 -0.0020121 -8.9192e-22)
(1.05438 -0.00203008 -1.87164e-22)
(1.05456 -0.00199965 2.76916e-22)
(1.05474 -0.00217764 0)
(1.05472 -0.0021098 0)
(1.0548 -0.00232743 0)
(1.05477 -0.002253 -6.93852e-23)
(1.05492 -0.0024649 0)
(1.05486 -0.00239871 0)
(1.05509 -0.00259029 1.02497e-22)
(1.055 -0.00253056 0)
(1.05529 -0.00269617 1.05276e-22)
(1.05519 -0.00264503 -8.62414e-23)
(1.05554 -0.00303301 -5.7869e-22)
(1.05559 -0.00291884 2.81347e-22)
(1.05551 -0.0027754 -2.7714e-22)
(1.0554 -0.00273957 -1.05643e-22)
(1.05543 -0.00327354 1.15513e-24)
(1.05549 -0.00315264 1.48706e-22)
(1.0553 -0.00354991 -2.38801e-24)
(1.05537 -0.00340513 0)
(1.05514 -0.00386272 -3.96444e-27)
(1.05523 -0.00370175 0)
(1.05495 -0.00421628 -4.30407e-27)
(1.05505 -0.00403372 0)
(1.05471 -0.00462507 -1.37419e-24)
(1.05483 -0.00441258 0)
(1.05442 -0.00511324 0)
(1.05457 -0.00485747 0)
(1.05409 -0.00571221 5.7527e-27)
(1.05426 -0.00539686 0)
(1.05372 -0.00645602 -1.57958e-24)
(1.05391 -0.00606408 0)
(1.0533 -0.00737369 1.64819e-24)
(1.05351 -0.00689199 0)
(1.05284 -0.00847655 0)
(1.05307 -0.00790253 0)
(1.05233 -0.00974447 0)
(1.05259 -0.00909284 0)
(1.05179 -0.0111178 -1.01451e-26)
(1.05207 -0.0104234 0)
(1.05121 -0.0125016 0)
(1.05151 -0.0118154 0)
(1.05058 -0.0137864 0)
(1.0509 -0.0131631 0)
(1.04989 -0.0148799 0)
(1.05024 -0.0143612 0)
(1.04917 -0.0157408 0)
(1.04954 -0.0153392 0)
(1.04843 -0.0164022 -2.45633e-24)
(1.0488 -0.0160912 0)
(1.04771 -0.0169716 0)
(1.04806 -0.0166894 0)
(1.04709 -0.0176059 5.44952e-24)
(1.04739 -0.0172696 0)
(1.0466 -0.0184867 0)
(1.04682 -0.0180042 0)
(1.04632 -0.0197831 3.07142e-24)
(1.04644 -0.0190742 0)
(1.04629 -0.0216082 0)
(1.04627 -0.0206257 0)
(1.04655 -0.0240533 1.10141e-22)
(1.04637 -0.0227436 -1.09958e-22)
(1.04692 -0.0272826 -3.48583e-22)
(1.04672 -0.0255641 4.56569e-22)
(1.04738 -0.0314015 9.98113e-22)
(1.04714 -0.0291924 -1.00546e-21)
(1.0329 -0.0357764 2.28115e-21)
(1.04734 -0.0366773 -2.24291e-21)
(1.04723 -0.0338885 0)
(1.02999 0.0184326 -2.3451e-21)
(1.04289 0.0192158 0)
(1.01638 -0.0338424 0)
(1.03173 -0.0386285 -2.13061e-21)
(1.04703 -0.0398064 1.95814e-21)
(0.981752 -0.00179361 -5.32397e-22)
(0.981962 -0.0119118 0)
(0.983531 0.00319287 -1.61132e-21)
(0.984057 -0.0177891 2.51437e-22)
(1.05477 -0.00202318 2.04227e-22)
(1.05477 -0.00196321 -2.74131e-22)
(0.98989 0.00803502 0)
(0.991098 -0.0235671 0)
(1.00075 0.0127087 1.18278e-21)
(1.00237 -0.0289572 -1.37452e-22)
(1.01487 0.0168299 2.34279e-21)
(1.05562 -0.00280689 2.80006e-22)