/*--------------------------------*- C++ -*----------------------------------*\
  =========                 |
  \\      /  F ield         | OpenFOAM: The Open Source CFD Toolbox
   \\    /   O peration     | Website:  https://openfoam.org
    \\  /    A nd           | Version:  10
     \\/     M anipulation  |
\*---------------------------------------------------------------------------*/
FoamFile
{
    format      ascii;
    class       surfaceScalarField;
    location    "40";
    object      phi;
}
// * * * * * * * * * * * * * * * * * * * * * * * * * * * * * * * * * * * * * //

dimensions      [0 3 -1 0 0 0 0];

internalField   nonuniform List<scalar> 
17221
(
0.0861264
-0.0275609
-0.071005
0.0124394
0.00041975
0.0789209
0.00678581
0.0674049
-0.0209658
-0.074
0.0830551
-0.00952089
-0.0753582
0.00182401
0.0138053
0.0743654
-0.00511552
0.0702851
0.0168078
-0.0732877
0.000914963
-0.004736
0.0694475
-0.0656265
-0.00693747
-0.0676401
0.0754926
0.00231211
-0.042675
0.00789752
0.0324654
-0.0428823
0.00874467
0.0364497
0.00167182
0.0444087
-0.0522441
0.00616356
-0.0495491
0.0512209
-0.0192177
0.0555638
-0.0538954
0.0175493
0.0535627
-0.00886809
-0.0639124
0.0715256
0.0512213
-0.048792
-0.0739549
0.0440421
0.00167372
0.0258099
0.0203137
0.05896
-0.0710451
-0.00822861
0.01026
0.0509725
-0.0409188
-0.0452598
-0.00521423
0.060734
-0.0290719
-0.0613394
0.0733192
0.0170921
-0.067147
0.00258005
0.0354951
0.0439803
0.0473109
-0.0523133
-0.0389779
0.102759
-0.0667407
0.00796148
-0.0313291
0.0109414
0.0877926
-0.114257
-0.0600351
0.0870381
0.0872544
-0.0476858
0.0295514
-0.096123
0.102612
-0.0979274
-0.0523708
0.0894367
-0.0468593
-0.025544
-0.0451823
0.0118131
0.0589133
-0.0121002
-0.04985
0.0364062
-0.0564129
0.00272098
0.0415917
-0.116746
-0.006469
0.0820196
0.0411953
0.018787
-0.107762
-0.0277706
0.122153
0.0174515
-0.120818
0.00728545
0.108399
0.0664809
-3.52872e-05
-0.0191075
-0.0473382
0.011671
0.0672489
-0.012439
-0.0417269
0.0411208
0.0638487
-0.0632426
0.102479
-0.0793005
-0.0249759
0.00179704
0.0713454
-0.010593
0.0349176
0.0938309
-0.037712
0.0238707
0.0223382
-0.00549327
-0.0168449
0.0147136
-0.00560068
0.0132252
0.0925545
-0.0433907
-0.0491638
-0.0602163
0.0482049
0.104566
0.00874941
0.00146638
-0.014077
0.00386117
0.000811224
-0.00738086
0.015319
-0.00220483
0.00448243
0.0416768
0.0711673
-0.063472
-0.0493722
0.0563152
-0.0751392
0.0605008
-0.0291178
0.0473516
0.0380814
-0.0159256
0.0579751
-0.0821928
0.0155948
0.0676873
-0.00108931
-0.0729071
-0.00864834
-0.000637293
-0.0091259
-0.0650683
0.00128705
-0.0526191
0.0302077
0.0531252
-0.0307138
0.035578
-0.0566332
-0.0315639
-0.0445945
0.0476972
-0.0293059
0.0262032
0.0389297
-0.0533166
-0.0856184
0.00769338
0.0800491
-0.0021241
0.00207913
-0.0831317
-0.00456578
0.0808171
-0.00945971
-0.0709759
-0.000381446
0.000383369
0.0825128
0.00749206
-0.0579764
0.00234938
0.048135
0.062999
0.000800435
-0.0563074
0.0695977
-0.0113347
-0.10034
0.00334445
0.0349419
0.062054
-0.00401752
-0.106644
0.0103209
-0.00238561
0.101128
0.000716851
-0.0551123
-0.00262113
0.0570165
-0.0615515
0.0590726
0.00319574
-0.0087681
-0.0602529
0.0139087
-0.057237
-0.0123071
0.060776
0.0135535
0.059001
-0.0129424
-0.0596121
0.0578482
-0.0612646
0.0169699
-0.0139112
0.0602091
0.012703
-0.0120426
0.0584644
-0.060333
0.0265263
-0.0858591
-0.0696343
-0.0188233
0.018684
0.0697736
-0.0738127
0.0308045
-0.0266261
-0.0292773
-0.0640901
0.0269353
0.066432
-0.0662862
0.0670374
-0.0300284
0.0902492
-0.0756368
0.0119139
0.0933604
0.00720967
0.075739
-0.0451716
0.052688
-0.0504552
0.0429388
0.0465555
-0.0439896
-0.0477375
-0.037578
0.0543126
-0.0567063
0.0399718
0.0558452
-0.0374563
-0.0559669
0.0818785
-0.0511296
-0.0398748
0.070546
0.00268422
-6.1167e-05
-0.00234289
-0.0626642
0.0244526
0.077182
-0.0295689
-0.0720657
0.0195733
0.0752684
-0.0703891
-0.0477839
-0.0193915
0.0539577
0.0132177
-0.00805257
0.0411319
-0.0808632
0.0584654
0.00294588
-0.0694638
0.0429275
-0.00385363
-0.0117092
-0.0617398
0.0702164
0.00323252
-0.0380254
0.0802739
0.0670159
0.00466202
-0.00683942
-0.0648385
0.00670228
0.0687117
-0.00839808
0.0548108
-0.00360541
0.00235731
0.0554893
0.0101131
-0.0107915
0.0582253
0.0213215
-0.0240575
0.058658
0.0306645
-0.0310971
0.0613135
0.0321819
-0.0348375
0.0619799
0.0371678
-0.0378341
0.0630337
0.0360935
-0.0371473
0.0624248
0.0367431
-0.0361342
0.0635892
0.0359718
-0.0371362
0.0618461
0.0362803
-0.0345373
0.0626697
0.0361148
-0.0369384
0.0618321
0.038057
-0.0372194
0.0606806
0.0371421
-0.0359907
0.059495
0.0366689
-0.0354832
0.0325135
0.0596101
-0.0326286
0.0611745
-0.061705
0.033044
0.0258275
-0.0234544
0.0267491
0.0625529
-0.0624121
0.0370013
0.0375168
0.0634143
-0.0637258
0.0364264
0.0390592
0.0636491
-0.0627094
0.0350321
0.0362036
0.0622695
-0.0613675
0.0351915
0.0363032
0.0601082
-0.0595547
0.0316283
0.0359085
0.0560964
-0.0536352
0.0188603
0.0272062
0.0524782
-0.0539353
-0.00214837
0.00895608
-0.0151061
-0.0570738
0.0590085
-0.0127262
0.000847282
-0.0608373
0.0619604
-0.0322202
-0.0258864
-0.0634825
0.0624526
-0.0368041
-0.0363596
-0.0640668
0.0643057
-0.0363731
-0.0387615
-0.06236
0.0644902
-0.0366675
-0.0351905
-0.063242
0.0599984
-0.0339759
-0.0356901
-0.0587695
0.0577707
-0.0344844
-0.0347617
-0.0573215
0.0579653
-0.0240982
-0.0321793
0.0572831
-0.011625
0.0445207
-0.0433002
0.0377092
-0.000788887
0.0589438
-0.0622285
0.0145857
0.0604978
-0.00400355
0.0399675
-0.0577061
0.0371808
0.0626802
-0.065786
0.0361499
0.0272007
0.0643606
-0.0672734
0.0399141
0.0360914
0.0642791
-0.0657681
0.0379153
0.0360649
0.0650465
-0.0642456
0.0342312
0.035482
0.0620201
-0.0625452
0.0357167
0.0340777
0.0584124
-0.0592098
0.0324258
0.0317756
0.0554218
-0.0532921
0.0167306
0.0234182
0.0517304
-0.0494959
-0.00438296
0.00739443
0.0483466
-0.0245273
-0.0162554
0.00818985
-0.0109127
0.0616666
0.0068931
0.0617945
-0.0581645
0.0592395
0.0164744
0.0317042
-0.0606393
0.0639571
-0.016044
-0.000552529
-0.0637691
0.0662879
-0.034739
-0.0256984
-0.066046
0.0658244
-0.0365825
-0.0361177
-0.06521
0.0674818
-0.0386449
-0.0381471
-0.0646935
0.0652994
-0.0372735
-0.0324021
-0.0633734
0.0629082
-0.0335107
-0.0337641
-0.0588032
0.0584606
-0.0341418
-0.0306568
-0.0552702
0.0567948
-0.0256228
-0.0289889
-0.0598442
0.059741
-0.0039004
-0.0146744
0.0242279
0.0420877
-0.00724297
0.0703318
-0.0473223
0.00708076
0.0595534
0.0381318
-0.0381076
-0.0566574
0.0369137
-0.0564879
-0.0526103
0.052688
-0.0316417
-0.0548211
-0.0358967
0.0806827
-0.0480548
0.0101239
0.0709423
-0.0620092
0.00671152
0.0477048
-0.0469584
-0.0484839
-0.0499967
0.0472463
0.0634778
-0.0664186
0.0175264
0.00466432
0.0665495
-0.0678544
0.0374547
0.0273317
0.0662077
-0.0675641
0.0412705
0.0344447
0.0657345
-0.066581
0.0387618
0.0342354
0.0629793
-0.0656267
0.0368785
0.0318803
0.0626032
-0.0612877
0.0344011
0.0310542
0.0595149
-0.0569925
0.0299035
0.0300028
0.0538628
-0.0526605
0.0155283
0.0202884
0.0498091
-0.0485387
-0.00565339
0.00454304
0.0502407
-0.0512169
-0.0235511
-0.0145533
-0.0292427
0.0559675
-0.0548406
-0.0050273
0.0585818
0.00446642
-0.0521294
0.0573455
0.0377227
0.0469321
-0.0453442
-0.0515846
0.0520647
0.0475112
-0.0526438
0.0471815
-0.0613068
0.0647135
0.0130677
0.027743
-0.0671198
0.0686054
-0.0175296
-0.00295885
-0.0698334
0.0706497
-0.0355553
-0.0269264
-0.0680815
0.070702
-0.039203
-0.0335495
-0.0678311
0.0680465
-0.0388603
-0.0352762
-0.0669531
0.0655488
-0.0358691
-0.0313088
-0.0610696
0.0620946
-0.0345356
-0.029285
-0.0601688
0.0592161
-0.0331892
-0.028731
-0.0555507
0.0549255
-0.0249976
-0.0253235
-0.0145894
-0.0147864
0.0136374
0.0628157
0.0656692
-0.0133641
0.0138676
0.0590499
0.0620678
-0.0573669
-0.0419714
0.0369661
-0.0516522
-0.0396297
-0.0571628
-0.0147705
0.0338999
-0.0587591
-0.0587851
-0.0131481
-0.0627604
-0.00150399
0.0127379
0.0597115
-0.0389323
-0.0548959
0.0394843
-0.059006
-0.052137
0.0570092
0.042639
0.0465027
-0.0462695
-0.0528769
-0.053451
0.0478167
-0.0414133
-0.0564408
0.0381362
-0.0558885
0.0286298
-0.0586187
-0.0287962
0.0302547
-0.060384
-0.0331096
0.0334076
-0.0589167
-0.0465933
0.056328
-0.0428443
0.0261719
-0.0287231
0.0702273
-0.0716199
0.0189191
0.0121312
0.0717662
-0.0703629
0.0360515
0.0274779
0.0698287
-0.0690572
0.040499
0.0339105
0.0682726
-0.0672119
0.0377011
0.0334508
0.066139
-0.0645704
0.0353099
0.0308074
0.0629741
-0.0620785
0.0335055
0.0294579
0.0586504
-0.055921
0.0271741
0.0265747
0.0535728
-0.0510752
0.0130306
0.0179403
0.0495035
-0.0486374
-0.00651954
0.0029714
0.0496138
-0.0500694
-0.0230954
-0.0135769
0.0533646
-0.0571246
-0.0278818
-0.0259475
0.0651648
-0.0549909
-0.023322
-0.0278565
-0.0274591
-0.0615325
0.0643667
0.0348885
0.0426583
-0.0669343
0.0696248
0.0103772
0.0251754
-0.071455
0.0740389
-0.0201136
-0.00478903
-0.072719
0.0737647
-0.036601
-0.0256064
-0.0731345
0.0734542
-0.0395228
-0.0329192
-0.070595
0.0689545
-0.0372198
-0.0324169
-0.0675362
0.0657965
-0.0341294
-0.0298905
-0.0641546
0.0619863
-0.0323673
-0.0276431
-0.0599935
0.0576709
-0.0308665
-0.0267382
-0.0559178
0.0537379
-0.0228177
-0.0235705
-0.0544091
0.0560618
-0.00667999
-0.0152606
-0.0571167
0.0581638
0.0116907
0.00341155
-0.0150078
0.0180923
0.0678578
0.0751984
-0.0185813
0.0191171
0.0622798
0.0651802
-0.0196436
0.0187286
0.0599649
0.0615413
-0.0191511
0.0176028
0.0597121
0.059289
-0.056815
0.0428775
-0.0399092
0.0437391
0.0589065
-0.0560474
0.00883162
0.0599251
0.0165842
-0.0396462
-0.0566629
0.0363816
-0.0572514
-0.0741305
0.0581769
-0.0268907
-0.0258224
0.00291326
-0.0408034
-0.0555466
0.0334905
-0.0591244
0.0316994
-0.0586758
0.0273377
-0.0600825
0.0741373
-0.0741775
-0.00146379
-0.00937589
0.0723413
-0.073941
0.0205188
0.010295
0.073658
-0.072783
0.0351765
0.0271949
0.0718141
-0.0705236
0.0392085
0.0329416
0.0693424
-0.0678621
0.0362208
0.0322696
0.0664839
-0.0646178
0.0334439
0.0294292
0.0627712
-0.0603114
0.0310457
0.0276113
0.0580122
-0.0552001
0.0243619
0.0242755
0.0528672
-0.0505144
0.0106778
0.0156074
0.0491068
-0.0484748
-0.00715155
0.00156385
0.049017
-0.0507572
-0.0213552
-0.0130348
0.0545539
-0.0576735
-0.0247622
-0.0221508
0.0603175
-0.059128
-0.0245115
-0.0252126
-0.0284102
-0.0547469
0.0571363
0.0413497
0.0556347
-0.0391129
-0.0732282
0.0540203
-0.033836
0.0354505
0.0392451
-0.0631055
0.0637648
0.0419796
0.0418476
-0.0665962
0.0689465
0.0325383
0.0398269
-0.0712737
0.0740625
0.00758839
0.0228481
-0.0759463
0.0772559
-0.0214232
-0.00667276
-0.0774074
0.0766624
-0.0358561
-0.025758
-0.0754305
0.073563
-0.0376553
-0.0316873
-0.071822
0.0697607
-0.0351585
-0.030676
-0.0680883
0.0661239
-0.032165
-0.0282181
-0.0643796
0.0620845
-0.0300723
-0.0258988
-0.0599996
0.0574958
-0.0283627
-0.0246533
-0.05655
0.0538668
-0.0201345
-0.0226247
-0.0531476
0.0540293
-0.00756168
-0.0145414
0.00139352
0.0207513
-0.0164594
0.0757572
-0.0249075
0.024643
0.0681222
0.0710422
-0.0260267
0.0245323
0.0637742
0.0637966
-0.0245365
0.0240625
0.060439
0.0615371
-0.0227593
0.0217449
0.0607265
0.0605922
0.0213978
0.0602722
-0.0600796
0.0717199
-0.100563
0.026719
-0.0341184
0.0893789
0.000632088
0.0195536
-0.0540217
-0.0813727
-0.0237561
-0.0375854
-0.0598809
0.0362779
-0.0600388
-0.0362258
-0.0567772
0.0344924
-0.0619174
-0.0618861
-0.0218736
0.0665134
0.0172462
-0.0384967
-0.0565831
0.0351453
-0.0664834
-0.0349251
-0.037671
0.0303624
-0.0887713
0.043486
-0.0508853
-0.0639035
0.0234152
0.0784594
-0.0775176
-0.00240554
-0.0122892
0.0777085
-0.0767649
0.0195752
0.0104859
0.0761706
-0.0749627
0.0339686
0.0266006
0.0736152
-0.0718505
0.0374438
0.0315941
0.0703264
-0.0684851
0.0343795
0.0307454
0.0668463
-0.0647174
0.0313149
0.0277904
0.0626891
-0.0600477
0.0284043
0.0255831
0.0576386
-0.0547825
0.0215059
0.0218665
0.0525016
-0.0502966
0.0084728
0.0133264
0.0490768
-0.0487179
-0.00751042
0.000344002
0.0495148
-0.0516776
-0.0191924
-0.0122379
0.0550808
-0.0564126
-0.0234304
-0.0187476
0.0603825
-0.0583548
-0.0265392
-0.0212427
0.0628791
-0.0645887
-0.0251811
-0.0238859
0.0606248
-0.0738446
-0.0355722
-0.0297864
-0.0489678
0.0541463
0.030272
-0.0537236
0.0243094
-0.0559305
0.0599297
0.0373505
0.0374609
-0.0638214
0.0671006
0.0387004
0.0379559
-0.0693168
0.0701077
0.0317473
0.0376108
-0.0758628
0.0784797
0.00497154
0.017093
-0.0802456
0.0810695
-0.022247
-0.00843871
-0.0806382
0.0790927
-0.0343105
-0.0253267
-0.0772938
0.0748985
-0.03526
-0.0298885
-0.072854
0.0704906
-0.0327951
-0.0286314
-0.0686185
0.0664966
-0.030043
-0.026346
-0.0646883
0.0623465
-0.0277305
-0.0240905
-0.0602428
0.0577547
-0.0258746
-0.0225495
-0.0550599
0.0550126
-0.0200872
-0.0199299
-0.0529038
0.0530457
-0.00770353
-0.0124327
-0.0546946
0.0578537
0.0056725
-0.000255372
0.0105344
-0.0426896
0.046183
-0.0774484
-0.0780624
-0.0384717
-0.0249372
0.0278685
0.0728259
0.00430415
-0.0287976
0.0679795
0.0687458
-0.0289345
0.0299487
0.067108
0.0699762
-0.0284235
0.0275937
0.064604
0.0653218
-0.0280835
0.0265432
0.0619793
0.0610472
-0.0253282
0.024535
0.0615197
0.0618072
0.0629337
-0.0613872
-0.0375444
-0.0585623
0.0371682
-0.0627146
0.0233979
-0.0231615
0.0662769
-0.0537269
0.0274567
0.0496854
0.0227572
0.0675723
-0.0669316
-0.038326
-0.0569479
0.0381342
-0.0649063
-0.0386739
-0.0528343
0.0364375
-0.0725585
-0.038839
-0.0528537
0.0336393
-0.0762275
0.0234306
-0.0283183
-0.048836
0.041537
-0.0360303
-0.0835691
0.0452405
-0.081152
-0.0602404
-0.0326472
0.0280932
0.0668216
0.0332964
-0.0276221
-0.0788873
0.073213
0.0787387
-0.0801491
-0.0223457
-0.0323871
0.0812712
-0.0815595
-0.00211722
-0.0111672
0.0796315
-0.0804175
0.0203612
0.0085579
0.0777134
-0.0767884
0.0330436
0.0238964
0.075111
-0.0729733
0.0353062
0.0299166
0.0711577
-0.0690273
0.0322491
0.0289298
0.0671752
-0.0648501
0.0289899
0.0259383
0.062689
-0.0599322
0.0256474
0.0234219
0.0574692
-0.0546115
0.0186482
0.0194035
0.0524048
-0.0503669
0.00643489
0.0111197
0.0493746
-0.0493662
-0.00751885
-0.000648213
0.0504784
-0.0528881
-0.0167826
-0.0111257
0.0554074
-0.0581958
-0.0206421
-0.0162283
0.06036
-0.0627139
-0.0241853
-0.0190784
0.0642926
-0.0652068
-0.0242669
-0.0223072
0.0668596
-0.0726616
-0.0297702
-0.0281336
0.0796201
-0.0845853
-0.0310651
-0.0315132
-0.0378545
0.0418398
-0.0875543
0.100017
0.0456105
-0.0666797
-0.0789483
-0.0224223
-0.0536431
0.0556653
0.0282498
0.0530753
-0.0498411
0.0201965
0.0237416
-0.0606371
0.0650787
0.0329089
0.0324891
-0.0664373
0.0677555
0.0373822
0.0365973
-0.0729302
0.075923
0.0287545
0.0324361
-0.0792613
0.0825188
0.00171403
0.0137546
-0.0841176
0.0842854
-0.0224148
-0.0100375
-0.0832091
0.0809589
-0.0320603
-0.0242505
-0.078695
0.0759055
-0.0324705
-0.0276246
-0.0736367
0.0710789
-0.0302373
-0.0263627
-0.0690787
0.0668512
-0.0278156
-0.0243457
-0.0650151
0.0627202
-0.0254355
-0.0222544
-0.0606547
0.0581428
-0.0233628
-0.020484
-0.0562459
0.0545281
-0.0183693
-0.018033
-0.0536156
0.0537258
-0.0078137
-0.0115202
-0.0545477
0.0553162
0.00490395
-0.00107727
0.0121238
-0.0261153
0.0304056
0.0685356
0.0707238
-0.0318572
0.0301848
0.0687804
0.0685246
-0.0307709
0.0300491
0.0653258
0.0647357
-0.0290622
0.0277981
0.0632433
0.0620342
-0.0272932
0.0264929
0.0623199
0.0623122
0.0662651
-0.0617633
-0.0726703
-0.0262632
0.0636956
-0.0560335
0.0197946
0.0658858
0.0205671
-0.0386477
-0.0582406
0.0387082
-0.0632885
-0.0396659
-0.0559559
0.0393332
-0.067802
-0.0378359
-0.0538374
0.0416653
-0.0805844
-0.0316034
-0.0495686
-0.0182873
-0.0465554
0.0150016
-0.0206573
-0.046466
0.0459211
-0.0769081
0.0437212
-0.0830334
0.0426763
-0.0846201
0.0420711
-0.0754544
-0.0735749
0.0856432
-0.0178036
0.00573526
-0.0789883
-0.0222087
0.0292413
-0.0266549
-0.0814737
0.07962
-0.0824187
-0.019547
-0.0254374
0.0825129
-0.0830746
-0.00155553
-0.011073
0.0827193
-0.0815737
0.0192156
0.00820263
0.0802338
-0.0781588
0.0309686
0.0225565
0.0762158
-0.0738019
0.0328923
0.0279736
0.0717752
-0.0694391
0.0299131
0.0269031
0.0674406
-0.0649892
0.0265385
0.0239398
0.0627484
-0.0599345
0.0228335
0.0211812
0.0574594
-0.054646
0.0158348
0.0169284
0.0525494
-0.050747
0.00463249
0.00902309
0.050054
-0.050476
-0.00709688
-0.00134119
0.0518789
-0.0543475
-0.014314
-0.00972277
0.0566285
-0.0590908
-0.0181798
-0.0139473
0.0610074
-0.063249
-0.0219437
-0.0171618
0.0654968
-0.0651017
-0.024662
-0.0200593
0.070369
-0.0745164
-0.0256228
-0.0228663
0.0789873
-0.0849284
-0.0251241
-0.0270423
-0.0217076
-0.04996
0.0524025
0.017754
0.00792973
-0.0105348
-0.0439504
0.0482108
-0.0461345
0.00585344
0.0132523
-0.054868
0.0579806
0.0251371
0.0212761
-0.0634016
0.063389
0.0329215
0.0270682
-0.0679226
0.0690692
0.0362356
0.0320637
-0.0743285
0.0791847
0.0238982
0.0271768
-0.0829352
0.0861469
-0.00149772
0.0100042
-0.0872415
0.086668
-0.0218413
-0.0111321
-0.0850016
0.0822008
-0.0292595
-0.022584
-0.0796128
0.0765742
-0.029432
-0.0250366
-0.0741816
0.0715328
-0.0275884
-0.0239701
-0.0694742
0.0671985
-0.0255399
-0.0222872
-0.065374
0.0631605
-0.0232221
-0.0204298
-0.0611871
0.0587651
-0.0209407
-0.0185106
-0.0568833
0.0551367
-0.0166228
-0.0161511
-0.0542463
0.0539005
-0.00746785
-0.0106299
-0.0543152
0.0545051
0.00471401
-0.00149198
0.0105954
-0.0316341
0.0306616
0.0677941
0.0322888
-0.0295939
0.0643425
0.0670867
-0.0313424
0.0312687
0.0686093
0.070043
-0.031866
0.0320713
0.0685751
0.0679273
-0.0318673
0.0313115
0.0658816
0.0649397
-0.0304835
0.0293649
0.0643619
0.0628622
-0.0283617
0.0274769
0.0632047
0.0633154
-0.0267025
0.0256488
0.0673307
0.0670396
-0.0253437
0.0682061
0.0230233
0.0678775
-0.0617028
-0.0394055
-0.058501
0.0397415
-0.0636968
-0.0387824
-0.0550094
0.0406295
-0.0667662
0.0265663
-0.0277575
0.0693973
0.0675649
-0.0663199
0.0217784
0.0696067
0.0245245
-0.0334452
-0.0519956
-0.024687
-0.0455388
-0.0141499
-0.0428508
-0.00101011
-0.0458359
0.000711526
-0.00267302
-0.0422875
-0.0734612
0.0387979
0.0450701
-0.078257
0.0405789
-0.0809359
0.0372427
-0.0797917
0.0312548
-0.077468
0.0635982
-0.0715066
-0.0216856
-0.0829356
-0.0227076
-0.0218412
0.0207475
-0.08038
-0.0167165
-0.0880603
-0.0318711
0.030963
0.0652506
0.0616859
-0.0299588
0.0764407
-0.0778641
-0.0248398
-0.0250943
0.0805054
-0.0833999
-0.0166525
-0.0227961
0.0845561
-0.0849396
-0.00117202
-0.0099168
0.0842174
-0.0828175
0.0178157
0.00748039
0.0812295
-0.0789721
0.0287112
0.0209685
0.0768584
-0.0742795
0.0303134
0.02586
0.0721416
-0.0696954
0.0274668
0.0247652
0.0676266
-0.0651101
0.024022
0.021871
0.0628301
-0.0599974
0.0200008
0.0189011
0.0575449
-0.0548342
0.0131241
0.0144759
0.052924
-0.0514801
0.00318861
0.00711285
0.0511866
-0.0520448
-0.00623866
-0.00163476
0.0536112
-0.0559151
-0.0120102
-0.00815633
0.0578486
-0.0599218
-0.0161067
-0.0120137
0.0616439
-0.0637973
-0.0197903
-0.0154398
0.0657967
-0.0681815
-0.0222772
-0.0180599
0.0711539
-0.0734636
-0.023313
-0.019894
0.0779443
-0.0797118
-0.0233566
-0.0225616
0.0794621
-0.0784904
-0.0187753
-0.0219573
0.0810173
-0.0835863
-0.0201386
-0.0196818
-0.0502185
0.0491152
0.00695677
-0.0022327
0.00513941
-0.0487426
0.0516816
-0.0537072
-0.000207125
0.00217458
-0.0502862
0.0525763
0.015464
0.0120813
-0.0545677
0.0576308
0.0220739
0.0192847
-0.0606549
0.0628561
0.0307203
0.0240441
-0.0678037
0.0725668
0.0314725
0.0271161
-0.0770381
0.0824375
0.0184989
0.0227054
-0.0862637
0.0889963
-0.00423035
0.006178
-0.0894493
0.0880898
-0.0204817
-0.0115851
-0.0859124
0.082729
-0.026076
-0.0204066
-0.0799723
0.0768523
-0.026312
-0.0222799
-0.0744496
0.0718194
-0.0249583
-0.0215674
-0.0697779
0.0675157
-0.0232777
-0.0202457
-0.0657318
0.0636292
-0.0211195
-0.0186459
-0.0617996
0.0595324
-0.0186735
-0.0166811
-0.0577121
0.0559115
-0.0148222
-0.0143309
-0.0553292
0.0546878
-0.00682647
-0.0100475
-0.0547585
0.0559047
0.00356782
-0.00156268
-0.0579971
0.0630801
0.0147116
0.00850291
0.0173272
-0.03053
0.0311818
0.0671423
0.0675197
-0.0309377
0.0308532
0.0686938
0.0702871
-0.0316533
0.0320662
0.0681621
0.0671272
-0.0320823
0.0317511
0.0662128
0.0649235
-0.0311396
0.0302443
0.0652572
0.0634737
-0.0294636
0.0288468
0.0638215
0.064096
-0.0287061
0.0296501
0.0663866
0.0671803
0.0697701
-0.0613668
-0.081588
-0.0187147
-0.0201677
0.00357768
-0.0714703
-0.0535302
-0.0482255
-0.0396651
-0.0576183
0.0405651
-0.0636324
0.0272988
-0.027676
0.0697744
0.0277694
0.0691361
-0.0360807
-0.0523739
-0.0290507
-0.047632
-0.0174691
-0.0422196
-0.00491836
-0.0406055
0.00582436
-0.0429724
0.0057615
-0.0562285
-0.00324015
0.00849263
-0.0514737
-0.0710476
0.0426564
0.0384699
-0.0761481
0.0349631
-0.0786564
0.0314133
-0.0799501
0.0236433
-0.0803637
0.00863799
-0.0854403
-0.0353468
0.0310218
0.0695756
-0.0445924
0.0709315
0.0729084
-0.0754861
-0.0191079
-0.0671143
0.0690338
0.022605
-0.0656769
0.020341
0.0471995
-0.00424994
0.0409361
-0.0689044
0.0781882
-0.081246
-0.021782
-0.0223921
0.0837667
-0.0851862
-0.0152329
-0.0202754
0.086341
-0.0859773
-0.0015357
-0.00876203
0.0850489
-0.0833763
0.0161432
0.00655196
0.0816166
-0.0792532
0.0263479
0.0192087
0.0770758
-0.0744417
0.0276793
0.0236826
0.0722552
-0.0697545
0.0249661
0.0225787
0.0676417
-0.0650766
0.0214569
0.0197582
0.0627736
-0.0599622
0.0171894
0.0165981
0.0576057
-0.0551379
0.0106563
0.0121195
0.0535692
-0.0526476
0.002267
0.00554415
0.0527987
-0.0539593
-0.005078
-0.00148368
0.0554675
-0.0573863
-0.0100913
-0.00664818
0.0589274
-0.0606712
-0.0143629
-0.0104726
0.0622459
-0.0642676
-0.0177686
-0.013865
0.0661034
-0.068348
-0.0200326
-0.0162241
0.0704001
-0.0722024
-0.0215107
-0.0178419
0.0760288
-0.0773916
-0.0219938
-0.0187353
0.0802373
-0.0805868
-0.0184257
-0.0191116
0.0827056
-0.0855342
-0.01731
-0.017563
-0.0126314
-0.112369
0.0817862
-0.108875
-0.021137
-0.0224627
-0.0586846
0.056949
0.00152851
-0.00658824
0.00887
-0.0585103
0.0596368
-0.0607734
-0.00545164
-0.00228796
-0.0542868
0.0531003
0.00814329
0.00483679
-0.053587
0.0547745
0.0142765
0.0115945
-0.0562226
0.0589259
0.0193706
0.0178366
-0.0614615
0.0655417
0.0266401
0.0215085
-0.0695821
0.0751246
0.02593
0.0230758
-0.0801253
0.0856182
0.0130061
0.0177046
-0.0889913
0.0907946
-0.0060337
0.00280491
-0.0904568
0.0883888
-0.0184137
-0.0112473
-0.0858832
0.0825772
-0.02277
-0.017901
-0.0798467
0.0768181
-0.0232834
-0.0195494
-0.0745028
0.0719734
-0.0224289
-0.0192521
-0.0700044
0.0678048
-0.0210781
-0.0182767
-0.0660811
0.064099
-0.0191374
-0.0169222
-0.0624297
0.0603668
-0.0166106
-0.0150118
-0.0586768
0.0569679
-0.0131133
-0.0126409
-0.0556034
0.0554846
-0.00670771
-0.00868295
-0.0560698
0.0573708
0.00226678
-0.0021479
-0.0592738
0.0631229
0.0108625
0.00659994
0.0147731
-0.0296934
0.028736
0.0680997
0.0688481
-0.0295998
0.0309615
0.067332
0.0694234
-0.0309286
0.0315688
0.067522
0.0671601
-0.0318422
0.0317864
0.0662687
0.0646501
-0.0314385
0.03081
0.0658857
0.0638216
-0.0309536
0.0283029
0.0664723
0.0639524
-0.0286906
0.0282209
0.0668562
0.0667925
0.070315
-0.0604667
0.0294176
0.0673857
-0.038414
-0.0552851
-0.0322
-0.0492246
-0.0213864
-0.0437147
-0.00794697
-0.039191
0.0043767
-0.0391578
0.0115571
-0.0460369
-0.0703658
0.0377882
0.0340231
-0.075208
0.028347
-0.0755901
0.0212494
-0.0775562
0.0116401
-0.0542439
0.00987321
-0.0621104
-0.00853621
0.0129396
-0.0615766
0.00994506
-0.0816708
-0.00237627
-0.0956954
0.00569162
-0.102266
-0.0123003
-0.0712055
0.0400855
-0.0627819
-0.00436406
-0.102313
0.0397954
-0.0660435
-0.0350244
0.0499972
0.020152
-0.0351248
0.0756969
-0.0768197
-0.017985
0.000241409
0.079064
-0.081876
-0.0189701
-0.0201478
0.0852653
-0.085931
-0.0145672
-0.0168861
0.0868765
-0.0864508
-0.00196137
-0.00781653
0.0852849
-0.0833191
0.0141774
0.00538601
0.0813786
-0.0789459
0.0239152
0.0172682
0.076779
-0.0741742
0.0250745
0.0215156
0.071971
-0.0694203
0.0224154
0.0203756
0.0672557
-0.06466
0.0188612
0.0175936
0.0623952
-0.0597498
0.0145441
0.0143333
0.0576715
-0.0556946
0.0086793
0.0100412
0.0546437
-0.0543125
0.00193587
0.00449325
0.0547842
-0.0559593
-0.00390284
-0.00101205
0.0571834
-0.0586267
-0.00864809
-0.0054241
0.0598371
-0.0613487
-0.0128513
-0.00926215
0.062787
-0.0646211
-0.0159344
-0.0124267
0.066267
-0.0682886
-0.0180111
-0.0145781
0.0701166
-0.0723742
-0.0192531
-0.0160139
0.0744384
-0.0769369
-0.0194953
-0.0166711
0.0796657
-0.0801853
-0.0179061
-0.0163827
0.0818724
-0.0836523
-0.0155301
-0.015876
0.0908836
-0.0985278
-0.0134928
-0.0152314
-0.00585918
0.00524251
-0.101649
0.0992106
-0.0979609
-0.00710884
-0.0116176
-0.0633981
0.0616874
-0.00374093
-0.0118076
0.0143489
-0.0646518
0.0644555
-0.0654397
-0.0108233
-0.00747886
-0.0608468
0.0604129
0.00196236
-0.00144733
-0.059469
0.0579418
0.00967053
0.00578072
-0.0590422
0.0582892
0.0150295
0.0104941
-0.0614851
0.0613382
0.0195174
0.0146407
-0.0649279
0.0689916
0.0225764
0.0179189
-0.073158
0.0788073
0.0202807
0.0189094
-0.0835773
0.0882742
0.00830917
0.0129346
-0.0906488
0.0912462
-0.0066311
0.000430349
-0.0901796
0.087685
-0.0159192
-0.0101807
-0.0851188
0.0819448
-0.019596
-0.0153347
-0.0793852
0.0765552
-0.0204534
-0.0169898
-0.0743825
0.0720001
-0.0200465
-0.0170793
-0.0701401
0.0680475
-0.0189854
-0.0164168
-0.0664047
0.0645465
-0.0172792
-0.0152794
-0.0630354
0.0612114
-0.0147866
-0.0135006
-0.0596893
0.0580486
-0.0114726
-0.0111188
-0.0570152
0.0565099
-0.00620243
-0.0076495
-0.0565265
0.0574565
0.00133678
-0.00216453
-0.0593864
0.0611729
0.00907608
0.00467005
-0.0648582
0.0671437
0.0180555
0.0110879
-0.0688068
0.0597618
0.0384626
0.0209419
-0.0282159
0.0268105
0.0709809
0.0735202
-0.0259896
0.0259194
0.06817
0.069669
-0.0287861
0.0280975
0.0680207
0.0665566
-0.0301464
0.0310045
0.0666638
0.0651113
-0.0315396
0.0317782
0.0660301
0.0641151
-0.0317111
0.0313622
0.0662346
0.0638886
-0.0307562
0.0298549
0.0673736
0.0645584
-0.0305819
0.0282567
0.0691814
0.0660655
-0.0286246
0.0282061
0.070193
0.0699472
-0.0278958
0.0316773
0.0636042
0.0694464
0.0564146
-0.0587952
-0.0353794
-0.0521056
-0.0257503
-0.0448607
-0.0124967
-0.039165
0.00182231
-0.0366366
0.012103
-0.0397037
-0.0682182
0.0318754
0.0258886
-0.0727497
0.0188437
-0.0731844
0.0145112
-0.048908
0.0133362
-0.0546405
0.0142039
-0.0614316
0.00884905
-0.0764602
0.000344163
-0.0843912
-0.00313179
-0.0969277
0.0142482
-0.0672753
-0.0124125
0.0137485
-0.0641522
0.000859558
-0.0979305
0.00303127
-0.0981927
-0.00279949
-0.00191977
-0.0966982
0.00724103
-0.059319
0.0926802
-0.0406022
-0.0739648
-0.0156817
0.0708232
-0.0843958
-0.0161951
-0.01361
0.0708482
0.0379778
-0.0609642
-0.0539491
0.0147822
0.0359305
-0.0641857
0.0748647
-0.0767625
-0.0160873
-0.00928973
0.0786613
-0.082675
-0.0149563
-0.018249
0.0846828
-0.0863426
-0.0129075
-0.0148783
0.086946
-0.086482
-0.00242539
-0.00721315
0.0851416
-0.0828323
0.0118681
0.00404569
0.0806139
-0.077993
0.0212943
0.0150498
0.075801
-0.0732458
0.0225193
0.0193237
0.0710756
-0.0685428
0.0198825
0.0182054
0.0664076
-0.0639297
0.0163833
0.0154584
0.0618847
-0.0596668
0.0123262
0.0122882
0.0580869
-0.0567809
0.00737324
0.00846133
0.0562582
-0.0563323
0.00200996
0.00397062
0.0568499
-0.0577567
-0.00299602
-0.000494458
0.0586152
-0.0596751
-0.00758825
-0.00456561
0.0606783
-0.0620373
-0.0114923
-0.0082589
0.0633459
-0.0649989
-0.0142814
-0.0111182
0.0664843
-0.0683177
-0.0161777
-0.0130927
0.0699686
-0.0719972
-0.0172245
-0.014363
0.0738034
-0.0759935
-0.0173052
-0.0148649
0.0779311
-0.0796755
-0.0161617
-0.0144451
0.082196
-0.0845889
-0.0131372
-0.0133555
0.088894
-0.0935013
-0.00888549
-0.0109263
0.0949663
-0.0955671
-0.00650804
-0.0101526
0.00173915
-0.00448837
-0.0954435
0.0952427
-0.0929155
-0.000588079
-0.00312391
-0.0658429
0.0642054
-0.00918576
-0.0148654
0.0148436
-0.0672536
0.0686696
-0.0705626
-0.0129724
-0.00958585
-0.0629663
0.0620464
-0.00282107
-0.00623979
-0.0608
0.0603317
0.00243066
-0.000200837
-0.0608597
0.0616098
0.00892047
0.00525262
-0.0624085
0.0636431
0.0137949
0.00969541
-0.0650627
0.0673106
0.0172695
0.0132211
-0.0698174
0.0736235
0.0187702
0.0154121
-0.0774684
0.082424
0.0153251
0.0150645
-0.0862456
0.0894919
0.00506287
0.00911304
-0.090672
0.0902521
-0.00621116
-0.000749772
-0.0887755
0.0862366
-0.0133802
-0.00870419
-0.0838452
0.0809769
-0.0167277
-0.0129433
-0.0786753
0.0761135
-0.0178915
-0.0146883
-0.0741248
0.0719266
-0.0178483
-0.0150906
-0.0702024
0.0682521
-0.0170351
-0.0146925
-0.0667099
0.0649764
-0.0155456
-0.0137373
-0.0636033
0.062008
-0.0131913
-0.0121275
-0.0606837
0.0592286
-0.0100175
-0.00979454
-0.0582079
0.0575381
-0.00553263
-0.00662879
-0.0574378
0.0581118
0.000662768
-0.00206418
-0.0591751
0.0614746
0.00677653
0.00360678
-0.0622758
0.0661038
0.0142275
0.0102867
-0.0681439
0.0939964
0.01261
0.0189018
0.00492253
-0.0214012
0.021591
0.0707911
0.0708029
-0.0248704
0.0251878
0.0678525
0.0663896
-0.0267712
0.0282643
0.0665275
0.0649733
-0.0295233
0.0305971
0.06559
0.0638523
-0.0313806
0.031895
0.0655156
0.0633316
-0.0320904
0.0319916
0.0663335
0.0636932
-0.0316019
0.0308971
0.0680785
0.0649481
-0.0299535
0.0286645
0.0704704
0.0670091
-0.0278564
0.027153
0.0708964
0.0707552
-0.0249817
0.022551
0.0660348
0.0716177
0.0653557
-0.0561968
-0.0296316
-0.0482243
-0.0165708
-0.0407866
-0.00137534
-0.0359674
0.0115739
-0.0361075
-0.0646841
0.0223545
0.0145771
-0.068483
0.0172884
-0.0424809
0.0156492
-0.051221
0.0152942
-0.0557307
0.00627732
-0.0706127
-0.00201236
-0.0741037
-0.00659618
-0.0809268
0.0146506
-0.0623336
-0.00719063
-0.0888775
0.0167432
-0.0660518
-0.00591647
-0.0939338
0.01364
-0.0701396
-0.014063
0.0160996
-0.0697132
-0.0068269
-0.0943597
-0.00495324
-0.090206
0.00224378
-0.00650806
-0.0938887
-0.0033787
0.0844037
0.0116552
-0.0765827
0.0715818
-0.0106809
-0.0781543
-0.0146235
-0.0111924
0.0786619
0.0331205
-0.0581542
0.0139076
-0.0123859
0.0693015
0.0152112
0.06847
-0.0623792
0.0365592
0.0287657
-0.061076
0.0753712
-0.0766464
-0.014812
-0.0120729
0.0806212
-0.0814028
-0.0141747
-0.0142743
0.0841563
-0.0858883
-0.0111755
-0.0121248
0.0866003
-0.0862531
-0.0027726
-0.00650114
0.0848997
-0.0823662
0.00933463
0.00269226
0.0798325
-0.0768645
0.0183262
0.0125161
0.0745131
-0.0719461
0.0199523
0.0169723
0.0698648
-0.0675079
0.0175256
0.0161242
0.0655863
-0.0634684
0.0142653
0.0135369
0.0618399
-0.0602216
0.0107079
0.0106597
0.0591829
-0.058433
0.00662327
0.00742264
0.058202
-0.0583269
0.00213492
0.00373961
0.0586595
-0.0592065
-0.00244899
-0.000161911
0.0597752
-0.0605978
-0.00676563
-0.00399692
0.0614687
-0.0626839
-0.010277
-0.00738806
0.0638482
-0.0653171
-0.0128125
-0.00995387
0.0666477