/*--------------------------------*- C++ -*----------------------------------*\
  =========                 |
  \\      /  F ield         | OpenFOAM: The Open Source CFD Toolbox
   \\    /   O peration     | Website:  https://openfoam.org
    \\  /    A nd           | Version:  10
     \\/     M anipulation  |
\*---------------------------------------------------------------------------*/
FoamFile
{
    format      ascii;
    class       surfaceScalarField;
    location    "25.5";
    object      phi;
}
// * * * * * * * * * * * * * * * * * * * * * * * * * * * * * * * * * * * * * //

dimensions      [0 3 -1 0 0 0 0];

internalField   nonuniform List<scalar> 
57492
(
-0.0192225
-0.0013798
0.00403282
0.0165694
0.0178904
-0.0135711
-0.0235418
-0.00302059
0.00994001
0.0307406
-0.03766
0.098993
0.0723335
-0.0164155
-0.154911
-0.209939
0.0849856
0.223946
0.0520872
-0.0511201
-0.0265647
0.0255976
-0.0954272
0.0232799
-0.0140694
0.0862167
0.0169832
-0.0603231
0.0281788
-0.10386
0.0990704
-0.023389
0.0246503
0.0952171
-0.0916887
0.0457047
0.0176574
-0.0399381
-0.023424
0.00520012
0.0417643
-0.00125968
-0.0200928
0.0209099
0.004383
0.00663118
-0.00906662
0.101222
-0.0865616
-0.0375888
0.0229288
0.00302682
0.0764963
0.0216984
-0.00259129
0.0137492
0.086851
-0.0980089
-0.0123364
0.0856675
-0.0759224
0.0172399
-0.0350813
0.0178414
-0.0961734
0.0653349
0.0480783
-0.116506
0.0158998
0.0855557
0.0150504
0.0187486
-0.118164
-0.01709
0.00915715
0.0122824
0.0141152
-0.0355547
0.0130744
-0.00601492
0.00209767
-0.114058
0.138384
-0.00418043
-0.020146
-0.166472
0.0898382
-0.0374245
-0.0750088
0.026561
0.0384456
0.0100021
-0.053933
-0.0243124
0.0032366
-0.0276679
-0.0744512
0.0916528
0.0104663
-0.0338516
0.0113829
-0.00519922
0.0589004
-0.0373279
-0.0358959
0.0143233
-0.0471333
0.0393526
0.0666812
-0.0713177
-0.123457
0.0731774
0.121598
-0.125169
-0.0397014
0.093553
-0.0586766
-0.011215
0.0698916
-0.0172998
-0.0413768
-0.0700666
0.0895295
-0.0367628
0.0156193
-0.0442585
-0.0414274
-0.049228
0.0725078
-0.0257576
-0.113167
0.0549356
0.0582316
-0.204513
0.091346
0.153854
-0.0375766
0.0247286
-0.141006
0.11344
0.0138023
0.0266111
-0.0310536
0.142193
-0.148716
0.0947953
0.0150437
-0.0928559
0.092681
-0.0119551
0.10344
-0.0358921
-0.0758193
0.00827151
0.116854
0.00162955
0.0783719
-0.0434112
0.0577203
0.0279929
0.136596
-0.101763
-0.0149888
0.0143234
0.102429
-0.10507
-0.00798553
0.0112925
0.0193662
0.101162
-0.0994488
-0.0210794
0.0116414
-0.0961354
-0.0768802
0.126135
0.111584
-0.160838
0.0116399
0.136948
-0.225468
-0.00254047
0.0059872
0.00156455
-0.00501128
0.0152011
0.00316833
-0.00239543
0.0056176
0.011979
0.00286926
0.000722516
0.00270122
-0.00113667
-0.00205676
0.00475798
0.255205
0.0986174
-0.172401
-0.181422
0.0892129
-0.0652255
0.231218
-0.218877
0.0842309
0.223859
0.0456297
-0.16589
0.0294915
-0.0787972
0.0628243
-0.0135186
0.0675949
-0.0794865
0.0413831
0.00462459
-0.00607175
6.73565e-05
0.00743979
0.00121761
0.0201333
0.0038759
-0.0865539
0.156997
0.0723649
-0.142808
0.0960378
-0.114997
0.0568819
0.148696
-0.0485813
0.345843
-0.0518818
-0.0768936
-0.217068
0.0641899
0.187228
0.094425
0.0370109
-0.140215
0.167394
0.00601499
-0.00903557
0.015955
0.0531681
0.0902063
-0.0415623
-0.101812
0.0741817
0.00972694
0.0140449
-0.00492217
-0.00912269
0.0156594
-0.00161456
-0.188455
0.0816478
-0.0660357
0.172843
-0.153117
-0.101305
0.0659672
-0.0846052
0.0913908
-0.159903
0.106439
-0.00101697
-0.0517324
-0.05369
-0.0477314
0.118876
0.0352945
-0.0598399
-0.00717933
0.0192878
-0.0519447
-0.00891221
-0.0195288
-0.0841483
0.133597
-0.0079799
-0.0419374
-0.08368
0.00315899
0.0914307
0.0390077
-0.0589812
-0.0066422
0.0687824
-0.0556149
-0.0113462
-0.0850355
-0.0125168
-0.0562278
0.0366991
0.00544441
-0.0616722
0.00995769
0.00570173
0.117916
0.0764425
-0.00869109
0.0422194
-0.134242
-0.0154171
0.0956766
-0.0672059
-0.0130536
-0.0229702
0.10086
-0.093307
0.0714133
0.0416934
-0.0121821
-0.100925
-0.0224273
0.010569
0.0832715
0.0896727
-0.0704065
-0.0326289
-0.0721085
0.0195531
0.0851842
-0.0360711
0.0834088
-0.0799667
0.000919133
-0.109099
-0.00268504
0.00215149
0.00179465
0.0210594
-0.0062499
0.00308096
-0.0116732
-0.00298659
0.0357191
-0.0204168
-0.00482753
-0.0125686
0.0203424
0.00486821
-0.012642
0.0402842
-0.0324032
-0.0204496
-0.0195322
0.0490988
0.0107175
-0.0101164
0.0109266
-0.16777
0.0803459
0.169072
0.169078
-0.0708324
-0.199551
-0.0841595
0.085468
-0.00793559
-0.057409
-0.00910663
-0.0421892
0.00040202
0.00138333
-0.0101161
0.00415902
0.00457377
-0.0110759
0.00694735
0.00551183
-0.0213525
0.00016052
-0.0171606
-0.0292578
0.00422925
-0.0459795
-0.0285902
-0.0486224
-0.0511498
0.0621362
0.037636
0.00342145
0.0219813
-0.0740251
-0.0682614
0.020533
-0.135599
0.0497597
-0.0103342
-0.132011
0.0117312
-0.0153192
-0.00515428
-0.0858996
0.0791041
0.0119498
-0.00039789
-0.0890202
0.0842639
-0.00961135
-0.280801
-0.0761946
0.09555
0.0912635
-0.117698
0.0983286
-0.0200141
-0.0118753
0.00523315
-0.0124076
0.000532245
0.0253393
-0.00585115
0.159685
-0.0962363
-0.0669726
0.00352345
0.134738
-0.00610593
0.155611
0.0153789
-0.15935
0.0616324
0.121236
-0.0272571
0.0234679
-0.0854236
0.123588
0.000880303
-0.0132879
0.0309518
-0.109656
-0.107343
0.0743727
0.135894
0.0592982
-0.00325858
-0.061905
0.00586546
0.018963
-0.00679811
-0.0757603
0.0138878
0.101225
0.010378
-0.0671753
-0.00821938
-0.0031077
-0.00950284
-0.0160489
0.021713
0.00383874
-0.0097366
0.00152015
-0.00128639
-0.037791
0.00373376
0.0243207
-0.075435
0.121467
-0.036074
0.185296
-0.180245
-0.0804858
-0.00272389
-0.0949665
0.111578
-0.213909
-0.0177882
-0.160701
-0.0811114
0.0279036
0.0836474
0.0615494
-0.129297
0.0446564
0.12405
-0.0850591
0.0438354
-0.0824145
0.0495231
-0.0109439
0.0478582
-0.0795633
0.0755404
0.114671
0.0324346
0.106695
-0.00358021
-0.106451
0.00333551
0.11775
-0.0124946
0.00144
0.124869
-0.0156698
-0.00306306
-0.106136
0.0894688
-0.0264191
0.0618188
0.101154
-0.0229198
0.0171758
-0.0954096
0.0195552
0.10287
-0.0212719
-0.0926264
-0.0292911
0.0989977
0.01543
-0.0885032
-0.0301872
0.0860803
-0.0405409
-0.0792748
0.0349783
0.0848374
-0.0425952
-0.0810092
0.0830635
0.0392334
0.0770995
-0.0218436
-0.0944893
0.0763345
-0.0796963
-0.0454581
0.0452971
0.0764955
-0.0360203
0.0676617
-0.0998006
0.0880507
-0.0100937
-0.129134
0.00651221
0.129567
-0.00694456
0.0301926
-0.0881074
-0.00679676
-0.0205991
0.115503
-0.0542794
0.0258804
-0.0597084
0.00697513
-0.020358
-0.00703392
-0.0666118
-0.0964738
0.0582905
0.00203748
-0.000517328
-0.000954777
0.00299226
-0.0132047
-0.113261
0.0830546
-0.0941762
-0.0115447
0.0925163
0.00836228
-0.0983898
-0.0041487
0.0250463
0.0560852
-0.0223621
-0.0587694
0.0300468
0.063244
-0.0682445
0.0818605
0.00427149
0.000391308
0.00334369
-0.00158351
0.00694393
-0.00655262
0.0102876
0.000788818
0.000436173
0.00164427
-2.20177e-05
0.000810836
0.000414155
0.00636465
0.000428448
0.00628131
-0.0045839
0.0109485
-0.00415545
0.00707861
-0.000837583
-0.0163574
-0.00291205
0.00999066
-0.00374963
0.0303418
0.0702565
-0.0900293
0.0284171
-0.0939244
0.0958491
0.100809
-0.00213507
-0.034466
-0.0634407
0.0342008
0.0637059
-0.0149767
0.067012
-0.0865014
0.00789589
-0.0863133
0.086882
-0.0882004
0.0579365
-0.0566181
0.0858568
0.0515986
-0.0505734
0.063754
-0.0889651
-0.0629893
0.0860745
0.0410193
-0.041237
0.0871571
0.0311656
-0.0322482
0.0182176
0.0888652
-0.0199257
0.0970174
-0.0966227
0.0178229
0.000255621
0.0929834
-0.00437378
0.0943707
0.00290232
-0.093549
0.0280919
-0.0929383
0.0404085
-0.0927454
0.0514056
-0.0951004
0.0602916
-0.0935164
0.06217
-0.0125323
0.0969716
0.00854409
0.0900765
-0.00823818
0.0680762
-0.0891219
-0.0679194
-0.0937132
0.068273
0.070069
-0.0957472
-0.0634437
-0.0208446
0.0965937
0.0212226
0.0901042
-0.0208723
-0.0972775
0.0736332
0.0967119
-0.0330723
0.0329541
-0.0438853
0.0966386
0.0439586
0.0901916
-0.0331597
0.0900586
-0.0437523
0.0705438
-0.0956405
-0.0706506
-0.0987198
0.0719861
-0.0534147
0.0971828
0.0528705
0.0901424
-0.0534985
0.0718476
-0.0961013
-0.0713868
-0.0984308
0.0715586
-0.060878
0.0972277
0.0608332
0.0897747
-0.0605103
0.0714644
-0.096772
-0.0707937
-0.0985129
0.0715465
-0.0669014
0.0979063
0.0662228
0.0896366
-0.0667634
0.0708674
-0.0969996
-0.0706398
-0.0980496
0.0704041
-0.0708542
0.0978351
0.0709254
0.088926
-0.0701435
0.070184
-0.0973935
-0.0697901
-0.0979425
0.0700769
-0.0737763
0.0984626
0.0731488
0.0885064
-0.0733567
0.0698115
-0.0974976
-0.0697075
-0.0971142
0.0689833
-0.0750683
0.0982886
0.0752422
0.0874435
-0.0740054
0.0701577
-0.0945043
-0.0731509
-0.0948887
0.0679322
-0.0759414
0.0989624
0.0752676
0.0870712
-0.0755691
0.0707119
-0.0953321
-0.0698841
-0.0928916
0.0687148
-0.0758054
0.0990109
0.0757569
0.08582
-0.0745543
0.0722018
-0.0904294
-0.0771046
-0.0888791
0.0681894
-0.0722603
0.0965611
0.0747101
0.0872036
-0.0736439
0.0735043
-0.0890257
-0.074908
-0.0862956
0.0709208
-0.0726289
0.0874555
0.0817345
0.0875921
-0.0730174
0.0762568
-0.0783928
-0.0868896
-0.083714
0.0736752
-0.0758476
0.0783253
0.0849778
0.0854592
-0.0737146
-0.0907385
0.092052
-0.0762215
-0.0919242
-0.0772071
0.0794313
-0.0803673
-0.0859536
0.0753624
-0.0796452
-0.0887717
0.0901724
-0.0712849
-0.0738242
-0.085802
0.0852637
-0.0691691
-0.0687806
-0.0845609
0.0837059
-0.0697847
-0.0690873
-0.0826892
0.0815607
-0.0702583
-0.069777
-0.0804925
0.0858599
-0.0688111
-0.0695823
-0.0837983
0.0818121
-0.0610031
-0.0658578
-0.0829
0.0813979
-0.0490712
-0.057706
-0.0776177
0.0756395
-0.0302701
-0.0374568
-0.073562
0.0736558
-0.00446754
-0.0178482
-0.074057
0.0745628
0.0207167
0.00814287
-0.075239
0.0760727
0.0431249
0.0322779
-0.0770016
0.0779781
0.0598566
0.0519416
-0.0789161
0.07978
0.0700614
0.0652849
-0.0805189
0.0811361
0.074625
0.07241
-0.0815978
0.0818937
0.075461
0.0748058
-0.0802869
0.0839034
0.078118
0.076317
0.0845407
0.077688
-0.0766454
0.0778882
0.083735
-0.0747325
0.0835463
0.0874911
-0.0884433
-0.0726918
-0.0866388
0.0847944
-0.0718702
-0.072165
0.0898885
-0.0916423
-0.0738153
-0.073109
0.0928599
-0.0940214
-0.0721952
-0.0727878
0.0950726
-0.0959903
-0.0658456
-0.0690923
0.09674
-0.09731
-0.0529286
-0.0597607
0.0976817
-0.0978728
-0.0329686
-0.0433806
0.0979213
-0.0978682
-0.00829126
-0.0208238
0.0996815
-0.0992726
0.017414
0.00471566
0.100476
-0.0988897
0.0388225
0.029295
0.0975963
-0.0961745
0.0588698
0.0501122
0.0964788
-0.0967503
0.0685445
0.0624743
0.0926887
-0.0919351
0.0712326
0.0695716
0.0912634
-0.0905721
0.0708552
0.0708868
0.0898525
-0.0890584
0.0692828
0.0696845
0.0882078
-0.0882562
0.0679806
0.0681326
0.0868143
-0.0863221
0.0676971
0.0672729
0.0830712
-0.0802024
0.0708064
0.0676699
-0.0759026
0.0710625
-0.0931653
-0.0791263
0.0837368
0.0786921
-0.071681
0.0817429
0.0769325
-0.0785028
-0.0780749
0.0733188
-0.0722888
0.0800398
-0.0798567
-0.0933483
-0.0844166
-0.0917385
0.0893799
-0.0738629
0.0939859
-0.0955133
-0.077599
-0.0749597
-0.087191
0.0862809
-0.0703748
-0.0716353
-0.0855247
0.0845082
-0.0681525
-0.0680244
-0.0833409
0.0820014
-0.0684452
-0.0679201
-0.0805069
0.078856
-0.0686074
-0.0682825
-0.0770514
0.0751304
-0.0668901
-0.0677777
-0.0734463
0.073115
-0.0606718
-0.0641737
-0.0701852
0.0689641
-0.0478501
-0.0547762
-0.0700333
0.0680502
-0.028287
-0.0385259
-0.066929
0.0669957
-0.00453418
-0.016727
-0.0673764
0.068066
0.0200271
0.00776218
-0.0690251
0.0702164
0.0419336
0.0313188
-0.0715585
0.0729985
0.0584166
0.0505995
-0.0744405
0.0758435
0.0686584
0.0638429
-0.0771373
0.078308
0.0734543
0.0711162
-0.0793105
0.0801303
0.0746412
0.0738033
-0.0809836
0.0834756
0.075626
0.0754637
0.0757872
-0.0757766
0.0837244
0.0746812
0.0848429
-0.0843368
0.0864135
0.0766154
0.0768268
0.0843339
-0.0866921
-0.069512
0.0812046
-0.0685517
0.0720427
-0.0705189
0.0802191
0.0798124
0.089128
-0.0913228
-0.0704969
-0.0697291
0.0931677
-0.0949722
-0.0720109
-0.0712641
0.0967668
-0.098511
-0.0704509
-0.0709932
0.100134
-0.101619
-0.0643609
-0.0674694
0.102911
-0.104006
-0.051833
-0.0584685
0.104843
-0.105393
-0.0324188
-0.0425438
0.105652
-0.105666
-0.00827718
-0.0205644
0.105433
-0.104941
0.0169219
0.00448259
0.104148
-0.104866
0.0395403
0.028502
0.103193
-0.100776
0.0564529
0.048439
0.1002
-0.0980189
0.066363
0.0618989
0.0967364
-0.0954244
0.0699206
0.0682891
0.09417
-0.0929566
0.0696418
0.0696324
0.0917487
-0.0904983
0.0680324
0.0684766
0.0891833
-0.0877333
0.0665306
0.0668176
0.0861771
-0.0844423
0.0659623
0.0657167
0.0825317
-0.0781194
0.0663941
0.0657593
0.0749773
-0.0702102
0.0685517
0.0679205
-0.0969424
-0.0784276
0.0726271
-0.0763206
-0.0685954
-0.0661096
0.0685265
-0.0791026
-0.0752929
0.0760323
0.0850623
0.0795876
-0.0689018
-0.0782999
0.0768892
-0.0919376
-0.0780178
-0.0972244
0.0688585
-0.0739694
-0.0634845
0.0656386
-0.0628897
-0.08663
0.0865623
-0.0843387
0.0743918
0.086228
0.0763666
-0.0688356
0.0706536
0.0784011
-0.0661419
0.0768939
-0.0994017
0.0997463
-0.0783624
-0.0792801
0.0781573
-0.0961015
0.104793
0.0738007
-0.0550772
-0.123516
-0.0738892
-0.0987545
0.0967347
-0.0755791
-0.0774359
-0.0944001
0.0910412
-0.070504
-0.0726252
-0.089159
0.0865376
-0.0677534
-0.0697531
-0.0852901
0.0838702
-0.0667326
-0.0667769
-0.08229
0.0805302
-0.0666854
-0.0663399
-0.0786004
0.0764738
-0.0664808
-0.0663527
-0.0742249
0.0718773
-0.0645425
-0.0655289
-0.0695677
0.0673664
-0.0584706
-0.0618641
-0.0654313
0.0637027
-0.0461215
-0.0528411
-0.0624201
0.0615432
-0.0274101
-0.0372433
-0.0610214
0.0610092
-0.00452206
-0.0162052
-0.06142
0.0622642
0.0191829
0.00735142
-0.0634731
0.0649896
0.0404172
0.0301098
-0.0667115
0.0685762
0.0565519
0.0488776
-0.0704803
0.0723753
0.0667633
0.0619388
-0.074177
0.0758562
0.0717751
0.0693145
-0.0773553
0.0786664
0.07333
0.0723042
-0.0802954
0.0823075
0.0736139
0.0738348
0.0747956
0.0741119
-0.0713583
0.0809708
-0.0756808
0.075473
0.0852702
0.0832739
0.0791076
0.0859896
-0.0889357
-0.066566
-0.0829774
0.0789833
-0.0649077
-0.0655395
0.0913696
-0.0932765
-0.06859
-0.0672953
0.0958554
-0.0981711
-0.0696951
-0.0686852
0.100489
-0.102801
-0.0681392
-0.0686751
0.104996
-0.107043
-0.0623147
-0.0652741
0.10884
-0.110381
-0.0502921
-0.0566711
0.111605
-0.11249
-0.0315329
-0.0413203
0.112977
-0.113057
-0.0081974
-0.0200773
0.112739
-0.11208
0.0162625
0.00416468
0.111086
-0.109748
0.0382022
0.0275081
0.10817
-0.106419
0.0547018
0.0468611
0.104531
-0.102603
0.0644344
0.0600113
0.100722
-0.0988674
0.068066
0.0664086
0.097073
-0.0953348
0.0679036
0.067838
0.0936319
-0.0919213
0.0663218
0.0667737
0.0901767
-0.0883583
0.0647122
0.0650731
0.0864667
-0.084451
0.0639466
0.0638251
0.0822879
-0.0799048
0.064011
0.0635963
0.0755666
-0.0703623
0.0633474
0.0635823
0.0654403
-0.0613141
0.0615125
0.0636045
0.0610724
-0.0644638
-0.0594982
-0.0579884
0.0577467
0.0763733
-0.0901537
-0.0740373
-0.075225
0.0755474
0.0861536
0.0767069
-0.0638655
0.0743349
-0.0966357
-0.0635494
-0.0643989
0.085409
-0.0757076
0.0721592
-0.0550907
0.052153
-0.0550508
-0.0583653
-0.0562236
-0.0673206
0.103647
-0.0320549
-0.0426999
-0.0469828
-0.084294
-0.101162
0.10644
-0.060355
-0.0488725
0.0513569
-0.103332
0.10047
-0.0755002
-0.0707808
-0.0983232
0.0950034
-0.0722594
-0.0752892
-0.0926827
0.0910765
-0.0688977
-0.0703045
-0.0884438
0.0869178
-0.0662274
-0.0671204
-0.0852592
0.0834697
-0.0649431
-0.0651183
-0.0815332
0.0794121
-0.0645643
-0.0644034
-0.0771085
0.0745965
-0.0639688
-0.0640491
-0.0719316
0.0691477
-0.0617586
-0.0628639
-0.0663978
0.0637577
-0.0558304
-0.0591142
-0.0613955
0.0593556
-0.0440816
-0.0504789
-0.057738
0.0566182
-0.0262903
-0.0356258
-0.0560006
0.0559246
-0.00444606
-0.0155876
-0.056374
0.0573385
0.0182185
0.006902
-0.0587473
0.0605327
0.0386318
0.028701
-0.0625769
0.0648088
0.05432
0.0468334
-0.0671123
0.069436
0.0644397
0.0596353
-0.0716766
0.0738037
0.069648
0.0670739
-0.0757388
0.0774961
0.0715728
0.0703692
-0.080007
0.0816238
0.0719971
0.0713239
-0.0830673
0.0848763
0.0725827
0.0733521
-0.0865458
0.0892147
0.0728785
0.0746971
0.0742356
-0.073131
0.0841656
-0.0754678
0.0743825
0.0903001
0.0849214
0.0722649
-0.0700532
0.0787591
0.0824078
0.0686785
-0.0667993
0.0765219
0.077733
0.0655086
-0.0637141
0.0749124
0.0756031
0.0815991
-0.0845434
-0.0619634
-0.0789918
0.0759101
-0.0606325
-0.0612582
0.0875466
-0.0901998
-0.0639128
-0.0625363
0.0931552
-0.0957341
-0.0660112
-0.0643398
0.0983759
-0.101124
-0.0669473
-0.0660434
0.103888
-0.10668
-0.0653481
-0.0659104
0.109375
-0.11194
-0.0597499
-0.0625787
0.114233
-0.116217
-0.0483088
-0.0543777
0.117795
-0.118957
-0.0303711
-0.0397418
0.119638
-0.119814
-0.00802168
-0.0193958
0.11947
-0.118666
0.0154578
0.00382106
0.117444
-0.115806
0.0365644
0.0262865
0.113871
-0.111669
0.0525001
0.0449254
0.109326
-0.10689
0.061998
0.0576683
0.104485
-0.102108
0.065689
0.0640039
0.099818
-0.0975958
0.0656814
0.065548
0.0954408
-0.0933232
0.0642043
0.0646187
0.0912281
-0.0891138
0.0625978
0.062978
0.0869669
-0.0847113
0.061691
0.0616783
0.0823011
-0.0796515
0.0613614
0.0611861
0.0767542
-0.073579
0.0601722
0.0606849
0.068331
-0.0629635
0.056145
0.0583565
0.0588478
-0.0555283
0.0488335
0.053631
0.044578
-0.0468516
-0.0527771
-0.0528817
0.0419314
0.0720655
-0.0878844
-0.067374
-0.0714004
0.0706944
-0.0819212
-0.0573486
-0.0654156
0.0871329
-0.086846
0.0725916
0.0897827
0.0717326
-0.0609793
0.0629258
0.0729659
-0.0579024
0.0728332
0.0621354
-0.074599
-0.0467302
-0.056345
-0.0153163
-0.0861529
-0.0834402
0.0981814
-0.046796
0.0362788
-0.0367402
-0.0523156
0.0334785
-0.0500814
-0.0768771
-0.0535459
-0.0796025
-0.103164
0.1037
-0.0608915
-0.0538551
-0.103644
0.100283
-0.0721385
-0.0707247
-0.0964595
0.0946543
-0.0704542
-0.0714662
-0.092875
0.0910911
-0.0671138
-0.0685252
-0.0892722
0.0873713
-0.0643266
-0.0653015
-0.0853799
0.0832519
-0.0628151
-0.0631269
-0.0809906
0.078551
-0.0621247
-0.0621422
-0.0759401
0.0731194
-0.0611481
-0.0614382
-0.0701479
0.0670515
-0.0586622
-0.0598924
-0.0639562
0.060965
-0.0528392
-0.0560189
-0.0582507
0.0559041
-0.0417351
-0.0477646
-0.0540417
0.052724
-0.0249726
-0.0337634
-0.0519877
0.0518628
-0.00432119
-0.0148512
-0.0523316
0.0533781
0.017172
0.00643317
-0.054931
0.0569219
0.0366408
0.0271482
-0.0592217
0.0617545
0.0517872
0.0445336
-0.0643869
0.067067
0.0617596
0.0570029
-0.0696712
0.0721745
0.0671447
0.0644696
-0.0744813
0.0766039
0.0694501
0.0680624
-0.0784978
0.0802243
0.0702706
0.06943
-0.0837197
0.0846087
0.0716937
0.0698567
0.0724599
0.0720609
-0.0713666
0.0834713
-0.0708556
0.0725297
0.088626
0.0861267
0.068008
-0.0669391
0.0776901
0.0790492
0.0653225
-0.0641818
0.0753811
0.0761164
0.0743472
0.0832544
-0.0864467
-0.0587711
-0.0800308
0.0755974
-0.0561991
-0.0580345
0.0892183
-0.0919964
-0.0611347
-0.0597647
0.0947929
-0.0977146
-0.0630894
-0.0615433
0.100693
-0.103801
-0.0638399
-0.0630647
0.106949
-0.110148
-0.0621488
-0.0627623
0.113257
-0.116242
-0.0567654
-0.0594693
0.118943
-0.121313
-0.0459395
-0.0516762
0.12322
-0.124631
-0.0289596
-0.0378347
0.125475
-0.125737
-0.0077595
-0.0185521
0.125389
-0.124482
0.0145506
0.00347309
0.123072
-0.121167
0.03466
0.0248761
0.118907
-0.116328
0.0499216
0.0426649
0.11357
-0.1107
0.0591281
0.0549096
0.107841
-0.105013
0.062861
0.0611453
0.102302
-0.0996814
0.0630604
0.0628372
0.0971695
-0.0947309
0.0617657
0.0621067
0.0923594
-0.0899982
0.0602366
0.0606065
0.08762
-0.0851354
0.0592063
0.0593001
0.0825025
-0.0796471
0.058506
0.0585532
0.0765812
-0.0733026
0.0568936
0.057619
0.0699108
-0.0664737
0.0527079
0.0549647
0.0617093
-0.0569474
0.0440716
0.0488665
0.0525458
-0.0499009
0.0308336
0.0375299
0.0242057
-0.0241842
-0.050103
-0.0480749
0.0223797
0.0636293
-0.0808193
-0.0595861
-0.0691629
0.0717615
0.0905509
0.0729768
-0.0552818
0.0586398
-0.0784255
0.0269873
-0.110548
0.0385668
-0.0861785
-0.0490211
-0.0631248
-0.0366438
-0.0564415
-0.113739
-0.049291
0.0260054
-0.0290462
-0.110698
0.0161038
-0.100647
-0.0251001
-0.0513998
0.0116062
-0.0129266
-0.0487826
0.0121296
-0.0485983
-0.0755592
-0.100356
0.103503
-0.049943
0.108014
-0.119457
-0.0378477
-0.0458881
-0.10547
0.106066
-0.0614873
-0.0558219
-0.103651
0.101288
-0.0697761
-0.0683097
-0.0989863
0.0967305
-0.0681985
-0.0691639
-0.0945181
0.0923248
-0.0649205
-0.0663127
-0.0901501
0.0879358
-0.0621122
-0.0631268
-0.0856553
0.0832517
-0.0604114
-0.0608464
-0.0807312
0.0780447
-0.0594382
-0.0596217
-0.0751993
0.0721458
-0.0580946
-0.0585928
-0.0689364
0.0655928
-0.0553186
-0.056683
-0.0622469
0.0589972
-0.0495895
-0.052673
-0.0560198
0.0534252
-0.0391405
-0.0447872
-0.0513568
0.0498711
-0.0234869
-0.031695
-0.0490283
0.0488537
-0.00414662
-0.0140084
-0.0493204
0.0504133
0.0160791
0.00596643
-0.0520584
0.0541916
0.0345076
0.0255031
-0.0566774
0.0594389
0.0490256
0.0420479
-0.0623265
0.0652852
0.0588009
0.0541153
-0.0681785
0.0709804
0.0643428
0.0615763
-0.0735945
0.0760302
0.0670143
0.0654484
-0.0782559
0.0803178
0.0682086
0.0672044
-0.0822079
0.0852151
0.0686865
0.0679667
-0.0877931
0.0902476
0.0701371
0.0698819
-0.0906657
0.0936604
0.0687668
0.0713145
0.0692667
-0.0688533
0.0882126
-0.0687221
0.0646304
0.0977521
0.0910954
0.0683259
-0.0660289
0.0811744
0.0855993
0.0654457
-0.0643922
0.0766366
0.078466
0.0629302
-0.0610795
0.0735305
0.0746544
0.0594046
-0.0579211
0.0714823
0.0726723
0.0557308
-0.0526922
0.0699382
0.070643
0.0777671
-0.0801766
-0.0537896
-0.0739225
0.0712167
-0.0499865
-0.0514372
0.0840809
-0.0870162
-0.0558359
-0.0541302
0.0903102
-0.0933014
-0.0581435
-0.0564707
0.0963261
-0.0994738
-0.0599417
-0.0585186
0.102698
-0.106076
-0.0604616
-0.0598407
0.109518
-0.113043
-0.0586243
-0.05932
0.116497
-0.119833
-0.0534293
-0.0560155
0.122867
-0.125542
-0.0432642
-0.0486421
0.127715
-0.129344
-0.0273309
-0.0356616
0.130337
-0.130677
-0.00741968
-0.0175587
0.130336
-0.129357
0.0135717
0.00313198
0.127805
-0.125692
0.0325472
0.0233237
0.123165
-0.120278
0.0470346
0.0401375
0.117182
-0.113954
0.0559009
0.0518135
0.110732
-0.107549
0.0596779
0.057923
0.104509
-0.101581
0.060133
0.0597971
0.0987988
-0.0961072
0.059074
0.0593241
0.0935045
-0.0909203
0.0576523
0.0580039
0.0883289
-0.0856451
0.0565225
0.0567088
0.0828479
-0.0798748
0.0555329
0.055756
0.0767506
-0.0734668
0.0536098
0.0544948
0.0700862
-0.0666316
0.0492533
0.0515841
0.0632147
-0.0599985
0.0408554
0.0454496
0.057132
-0.0537851
0.0274867
0.0346634
0.0512866
-0.0492231
0.010066
0.0198811
-0.000159227
0.000285962
-0.048725
-0.0493995
1.7165e-05
0.0543313
-0.0765109
-0.12206
-0.0264437
0.0416083
-0.081467
0.0979467
-0.0950893
0.0659094
0.100184
0.0623933
-0.0506466
0.0520398
0.0685449
-0.0473424
0.0679126
-0.0510091
-0.0671749
-0.0383818
-0.0613868
0.0230844
-0.0931591
-0.0249823
-0.0565593
-0.0110814
-0.053245
0.00191742
-0.050414
-0.011315
0.0129493
-0.0503593
-0.0107378
-0.0499766
-0.072237
-0.123587
0.116677
-0.0309382
-0.0112287
0.0150516
-0.125883
0.130167
-0.136456
-0.00493977
-0.0198631
-0.109867
0.109954
-0.0500298
-0.039078
-0.110442
0.109943
-0.0609877
-0.0563103
-0.107179
0.104353
-0.0669502
-0.0655456
-0.101551
0.0987954
-0.0654425
-0.0663628
-0.0961373
0.0935616
-0.0623449
-0.0636546
-0.0910664
0.0885781
-0.0596239
-0.0606316
-0.0860609
0.0834375
-0.0577879
-0.0583293
-0.0807058
0.0778194
-0.0565518
-0.05689
-0.0747954
0.0715847
-0.054884
-0.0555688
-0.0682299
0.0647452
-0.0518339
-0.0533282
-0.0612442
0.0578263
-0.0461716
-0.0491721
-0.0546718
0.0519002
-0.0363688
-0.0416327
-0.0496734
0.0480507
-0.0218642
-0.0294682
-0.0471195
0.0468848
-0.00391192
-0.0130772
-0.0473294
0.0484364
0.0149721
0.00552185
-0.0501289
0.0523453
0.0322912
0.0238106
-0.0549498
0.057864
0.0461114
0.0394434
-0.0609307
0.0640881
0.0556435
0.0510487
-0.0671957
0.0702236
0.0613149
0.0584687
-0.0730803
0.0757765
0.0643182
0.0625916
-0.0782808
0.0806408
0.0658486
0.0647
-0.0828585
0.0850067
0.0665382
0.065749
-0.0889045
0.0914512
0.0675904
0.0659841
0.0676764
0.062985
-0.0637768
0.0890043
-0.0607879
0.0604347
0.0981053
0.0932926
0.0622028
-0.0621753
0.0811468
0.0840254
0.0616837
-0.0607622
0.0757151
0.0779744
0.0594345
-0.057748
0.0718439
0.0733268
0.0553909
-0.0539542
0.0700456
0.0703152
0.0687287
0.0791669
-0.082407
-0.0505495
-0.0758454
0.0719243
-0.0460654
-0.0481157
0.0854373
-0.0883442
-0.0529289
-0.0511
0.0913764
-0.0945144
-0.0550055
-0.0534385
0.0976922
-0.101007
-0.0566272
-0.0553408
0.104411
-0.107976
-0.0568969
-0.0564361
0.111615
-0.115356
-0.0548836
-0.0556809
0.119047
-0.122641
-0.0498356
-0.0523245
0.12593
-0.128839
-0.0403546
-0.0453529
0.131208
-0.132997
-0.025542
-0.0332929
0.134111
-0.134526
-0.00700528
-0.0164445
0.134204
-0.133182
0.0125503
0.00281028
0.13153
-0.129274
0.0302909
0.0216714
0.126559
-0.123451
0.0439268
0.0374228
0.120115
-0.116631
0.0524176
0.048477
0.113153
-0.10972
0.0562444
0.0544449
0.106436
-0.103276
0.0569738
0.056513
0.100276
-0.0973733
0.0561709
0.0563241
0.0945705
-0.0917982
0.05488
0.0552011
0.0890412
-0.0862249
0.0537062
0.0539517
0.08334
-0.080329
0.0525219
0.0528711
0.0772106
-0.0739602
0.0503594
0.0513765
0.0706295
-0.0672421
0.0458659
0.0482535
0.0639123
-0.0607645
0.0377076
0.0421198
0.0579439
-0.0555647
0.0251075
0.0318428
0.0527592
-0.0510225
0.00832937
0.0170756
0.0506105
-0.0514265
-0.00992183
-0.000394829
-0.0116161
0.0112587
-0.100289
-0.107263
-0.0206773
0.0228393
-0.0521386
-0.052459
-0.0196448
0.0405264
-0.075429
0.0604442
0.100174
0.0693419
-0.04476
-0.00902222
-0.135478
0.0080443
-0.0397089
-0.0658478
-0.00537416
-0.129531
0.0264583
-0.0848409
-0.0262148
-0.0601542
0.0115742
-0.0934746
-0.0118189
-0.0558217
0.00193653
-0.0532641
0.014518
-0.0519828
0.0245647
-0.0520847
-0.0305608
0.032825
-0.0544028
-0.0282941
-0.0547257
-0.0714195
-0.13918
0.132561
0.00167889
0.0171315
-0.133198
-0.0194123
0.143624
-0.139318
0.0128254
0.0124884
-0.127649
0.123673
-0.0269624
-0.0149508
-0.120727
0.117017
-0.0463204
-0.0361318
-0.114626
0.113095
-0.0594568
-0.0539194
-0.109872
0.106614
-0.0636919
-0.062322
-0.103437
0.100366
-0.0623709
-0.0631865
-0.097441
0.0946283
-0.0595322
-0.0607298
-0.0919211
0.0892411
-0.056944
-0.0579243
-0.0865484
0.0837603
-0.0549998
-0.0556365
-0.080872
0.0778491
-0.0535288
-0.0540018
-0.0747099
0.0714179
-0.0515919
-0.0524297
-0.0679986
0.0644578
-0.048293
-0.0499089
-0.0608996
0.0574088
-0.0426808
-0.0456139
-0.054163
0.0512864
-0.0334922
-0.0383869
-0.048954
0.0472281
-0.0201383
-0.0271359
-0.0462193
0.0459184
-0.00361107
-0.0120684
-0.0463232
0.0474134
0.0138818
0.00511713
-0.0491121
0.0513573
0.030046
0.0221119
-0.0540155
0.0570087
0.0431182
0.0367851
-0.0601778
0.0634566
0.0523648
0.0478795
-0.0667058
0.0698931
0.0581276
0.0552195
-0.0729297
0.0758324
0.0614155
0.059555
-0.0785634
0.0811781
0.0632339
0.061969
-0.0836717
0.0861182
0.0640918
0.0632554
-0.0885153
0.0923373
0.0637684
0.063587
-0.0962256
0.0992481
0.0628869
0.0637882
-0.100791
0.103697
0.0575382
0.0608502
0.0562945
-0.0559032
0.0977139
-0.0543405
0.0509791
0.107059
0.102128
0.0566966
-0.0563166
0.0886243
0.0940861
0.0568289
-0.0569071
0.081225
0.0845377
0.0565702
-0.055819
0.0749639
0.0776374
0.0546803
-0.0531969
0.0703605
0.0721881
0.0514033
-0.0490055
0.0676478
0.0685217
0.0473657
-0.0453641
0.0665433
0.0670889
0.0445152
-0.0409007
0.0657274
0.0670637
0.0740041
-0.0766817
-0.0433878
-0.0700463
0.0677062
-0.0385606
-0.0408022
0.0798482
-0.0831738
-0.0472239
-0.0449491
0.0861545
-0.0892656
-0.0498179
-0.0481192
0.0923905
-0.0956028
-0.0517932
-0.0503135
0.098865
-0.102274
-0.0532183
-0.0520786
0.105776
-0.109446
-0.0532264
-0.0529343
0.113194
-0.117058
-0.0510203
-0.0519326
0.120887
-0.124639
-0.0460837
-0.0484955
0.128095
-0.131168
-0.0372819
-0.041896
0.133675
-0.135571
-0.0236458
-0.0307864
0.136764
-0.137234
-0.00653539
-0.015251
0.136939
-0.135908
0.0115191
0.00251479
0.134197
-0.131866
0.0279596
0.0199608
0.129047
-0.125813
0.0406927
0.0346041
0.122338
-0.118706
0.0487853
0.0450022
0.115076
-0.111487
0.0526552
0.0508151
0.108039
-0.104713
0.0536474
0.0530653
0.101544
-0.0984762
0.0531029
0.0531557
0.095521
-0.0926187
0.0519777
0.0522459
0.0897625
-0.0868835
0.0508271
0.0510956
0.0839716
-0.0809685
0.0495188
0.0499592
0.0778854
-0.0746936
0.0471676
0.0482934
0.0714474
-0.0681714
0.0425899
0.0450072
0.064979
-0.0619552
0.0346838
0.0389274
0.0592313
-0.0569096
0.0227858
0.0291188
0.0551546
-0.0540662
0.00724099
0.0153205
0.0530687
-0.0527554
-0.0102352
-0.00139227
0.0535853
-0.0549588
-0.0269207
-0.0188148
0.00417232
-0.00248016
-0.101981
-0.108465
-0.0363251
0.0391164
-0.0575169
-0.0582326
-0.0330513
0.0275368
-0.0765075
-0.027112
-0.0649506
-0.0277877
-0.13548
0.0239498
-0.128663
-0.0323219
-0.0292817
-0.119661
0.0120401
-0.0853067
-0.0123953
-0.0595778
0.10853
-0.10398
0.0529885
0.110086
0.0494226
-0.0364952
0.0375941
0.0646284
-0.0342483
0.0654594
-0.0022322
-0.0937226
0.001985
-0.0558702
0.0152785
-0.0540246
0.0265405
-0.0539586
0.0354778
-0.0547376
0.041499
-0.0567855
0.0360793
-0.131277
-0.0402818
-0.133489
0.139631
0.029938
-0.0426225
-0.131669
0.0408018
-0.0424704
-0.0602315
0.045185
-0.0397176
-0.0609853
-0.128862
-0.0450374
-0.0709947
-0.132522
0.127469
0.0178778
0.0310586
-0.131002
0.132823
-0.000141969
0.00895562
-0.129568
0.12589
-0.0232844
-0.011696
-0.123818
0.121227
-0.0437295
-0.0340599
-0.118401
0.115358
-0.0564141
-0.0510931
-0.112078
0.108652
-0.0602664
-0.0590415
-0.105253
0.101945
-0.0590635
-0.0597867
-0.0987926
0.0957627
-0.0565023
-0.0575773
-0.0928498
0.0899809
-0.0540751
-0.0550114
-0.087123
0.0841985
-0.0520753
-0.0527786
-0.0812014
0.0780946
-0.050422
-0.0510047
-0.0749038
0.0715905
-0.0482786
-0.0492389
-0.0681795
0.0646593
-0.0447728
-0.0464979
-0.0611258
0.0576504
-0.0392053
-0.0420805
-0.0543989
0.0514908
-0.0305841
-0.0351354
-0.0491139
0.0473251
-0.0183495
-0.0247589
-0.0462485
0.0458849
-0.00324747
-0.0109918
-0.0462365
0.0472824
0.0128359
0.0047655
-0.0489484
0.0511718
0.0278227
0.0204459
-0.0538235
0.0568263
0.0401154
0.0341334
-0.0600254
0.0633538
0.0490364
0.0446804
-0.066674
0.0699585
0.054843
0.0518993
-0.0731157
0.0761691
0.0583622
0.0563978
-0.0790775
0.081898
0.0604134
0.0590605
-0.0846205
0.087319
0.0613933
0.0605329
-0.089996
0.0927125
0.0610519
0.06091
-0.096958
0.10019
0.0596548
0.0595427
0.0570599
0.0472261
-0.0489681
0.0994559
-0.0452853
0.0431187
0.109225
0.104069
0.048387
-0.0493624
0.0895997
0.093505
0.0499566
-0.0501741
0.0814425
0.0851318
0.0500037
-0.0494565