/*--------------------------------*- C++ -*----------------------------------*\
  =========                 |
  \\      /  F ield         | OpenFOAM: The Open Source CFD Toolbox
   \\    /   O peration     | Website:  https://openfoam.org
    \\  /    A nd           | Version:  10
     \\/     M anipulation  |
\*---------------------------------------------------------------------------*/
FoamFile
{
    format      ascii;
    class       surfaceScalarField;
    location    "61.5";
    object      phi;
}
// * * * * * * * * * * * * * * * * * * * * * * * * * * * * * * * * * * * * * //

dimensions      [0 3 -1 0 0 0 0];

internalField   nonuniform List<scalar> 
57492
(
0.000235774
-1.05962e-05
-4.373e-05
-0.000181447
-0.000162586
0.000267517
0.000130843
-2.87603e-05
8.08523e-05
0.000323356
-0.000375448
0.00315981
0.00338641
-0.000272098
-0.00627413
-0.00862824
0.00404527
0.00774278
0.000733984
-0.000675687
-0.000354347
0.00029605
-0.00130856
0.000227111
-7.92654e-05
0.00116071
0.00028026
-0.000854835
0.00158921
-0.00463338
0.00442578
-0.00138161
0.00134138
0.00424925
-0.00400142
-0.000611564
-0.000206529
0.000684261
0.000133831
-0.000122459
-0.000832226
0.000343122
0.000231766
-0.000325218
-2.90069e-05
-5.3262e-05
7.84986e-05
0.00173853
-0.00167732
-0.000628827
0.000567618
0.000249577
0.0014028
8.61487e-05
-0.000324475
0.000788334
0.00333524
-0.0037991
-0.000660646
0.00326111
-0.00292494
0.000135452
-0.000288544
0.000153092
-0.00166329
0.00121993
0.000578804
-0.00465986
0.000189664
0.00333564
0.00113456
0.00122802
-0.00473001
-0.00115788
-0.000133003
-0.000196413
-0.000702034
0.00103145
-0.000286996
0.000176019
-2.2026e-05
-0.00254552
0.00216058
0.000734491
-0.000349552
-0.00304884
0.000925601
-0.000422278
-0.00112746
0.000596281
0.000456667
7.45127e-05
-0.000778799
-0.000362194
1.35312e-05
-0.000367133
-0.00113342
0.0012903
0.000210251
-0.000415891
0.000116337
-6.7579e-05
0.000764261
-0.000508684
-0.00047393
0.000218353
-0.000659473
0.000529799
0.000893935
-0.000903364
-0.00173137
0.0016757
0.000959041
-0.00205642
-0.000491869
0.00164493
-0.0007073
-0.000152028
0.000859328
-0.000271232
-0.000436068
-0.00137441
0.00189185
-0.000788673
0.000203049
-0.000767171
-0.000810288
-0.00057983
0.000806941
-0.000233019
-0.00190185
0.00115084
0.000751017
-0.0043217
0.00241985
0.00488619
-0.000828928
0.00035552
-0.00441278
0.00359482
-7.46395e-05
0.00136601
-0.000736506
0.00489555
-0.00498797
0.00143681
0.000309686
-0.00146623
0.00144849
-9.0952e-05
0.00175452
-0.00065769
-0.00130653
0.000209695
0.0019643
9.99039e-05
0.000896457
-0.000557628
0.00110967
0.00086932
0.00118785
-0.00475436
-0.000636016
0.000547846
0.00484253
-0.00488748
-0.000299932
0.000433057
0.00121734
0.0045131
-0.00443776
-0.00129269
0.000888924
-0.00430496
-0.00277906
0.00252944
0.00253501
-0.0022854
-0.000274049
0.00320352
-0.00570852
1.48548e-05
-0.000116619
-8.05343e-07
0.00010257
-0.000321013
1.06496e-05
6.6976e-05
-0.000135903
-0.000252087
-5.63028e-05
6.65938e-06
1.11216e-05
-1.19269e-05
8.8507e-06
2.27087e-06
0.00730343
0.00378563
-0.00587945
-0.00520961
0.00233706
-0.000701715
0.00566809
-0.00785318
0.00309858
0.00709166
0.00229254
-0.00636009
0.00162402
-0.00286565
0.00213351
-0.000891875
0.00235612
-0.00291426
0.00218216
-2.98602e-05
2.1827e-05
-2.56305e-06
-7.01768e-05
-3.41341e-06
-0.000222635
-2.89896e-05
-0.00293817
0.00534753
0.00339282
-0.00580218
0.00436299
-0.00494505
0.00298439
0.00474743
-0.00238429
0.0100856
-0.00148185
-0.00178995
-0.00681378
0.00224217
0.00542001
0.0024234
0.00160553
-0.00500622
0.00564286
4.67879e-05
-7.55482e-05
0.00012764
0.000816027
0.00175729
-0.000626229
-0.00194708
0.00103977
9.96127e-05
-9.56987e-05
2.63009e-05
6.93978e-05
-0.000297902
0.000202203
-0.00660422
0.00342301
-0.00201303
0.00519425
-0.00574099
-0.0024964
0.00163317
-0.0026247
0.00208806
-0.00520435
0.00195144
-2.65954e-05
-0.000944055
-0.000980785
-0.000711448
0.00222706
0.00043582
-0.000834439
-8.52291e-05
0.00020822
-0.000771381
-8.96537e-05
-0.000271413
-0.00144402
-0.00023691
-6.25455e-05
1.85748e-05
0.000280881
-0.000215391
-0.000521515
0.000499996
0.000137461
1.68593e-05
-0.000369711
7.91552e-05
-4.23945e-06
0.000100382
-2.65169e-06
-0.000640974
0.000369561
8.34409e-05
-0.000724415
0.000172301
-0.000470203
0.00427362
0.00333162
-0.000178522
0.00212864
-0.00648326
-1.0376e-05
0.00226397
-0.00179748
-0.000456113
0.000291732
0.00316414
-0.00346625
0.00326952
0.00184223
-0.000501038
-0.00461071
-0.00103245
0.00050013
0.00380184
0.00399042
-0.00318063
-0.0016424
-0.00303455
0.00125095
0.00342601
-0.00118513
0.00350493
-0.00396221
0.000423069
-0.00464275
8.24138e-05
3.37341e-05
-4.58228e-06
0.00104508
-0.000616271
-0.000591392
7.68503e-05
-0.00032431
0.00129254
0.000363463
-1.90963e-05
-0.000187206
0.000331768
6.83222e-05
-0.000212884
0.000991625
-0.00121501
3.61834e-05
-0.000357581
0.000830811
0.000518396
-0.00012509
9.92767e-05
-0.00611319
0.003651
0.0058852
0.00772174
-0.00200654
-0.0082116
-0.00285569
0.00446424
-9.71013e-05
-0.00087419
-0.000162129
-0.000522117
9.12556e-06
4.78892e-05
-0.000129954
3.72371e-05
4.48272e-05
-0.000130002
0.000144512
3.33792e-05
-0.000299395
3.94388e-05
-0.000265243
-0.000312698
5.58241e-05
-0.000803551
-0.000335883
-0.000825256
-0.00088552
0.00101197
0.000698806
3.37893e-05
0.000436796
-0.00129584
-0.0011549
0.000303172
-0.002934
0.00133071
-5.9999e-05
-0.00350273
0.000809603
-0.000240872
0.000875983
-0.00334735
0.00256416
-9.27905e-05
0.000679014
-0.00272845
0.00292542
0.0025282
-0.0101973
-0.00176558
0.00218196
0.00302162
-0.00345648
0.00206071
-0.000320892
3.92556e-07
1.64667e-05
-3.41082e-06
3.80339e-06
0.000284217
-4.12956e-05
0.00559439
-0.00341489
-0.0024852
0.000305703
0.00484095
1.69298e-05
0.0046438
0.000165307
-0.00508315
0.00137838
0.00329801
-3.25972e-05
0.000549651
-0.00291429
0.00374302
5.35325e-06
-8.76407e-06
0.00075915
-0.00211973
-0.00284634
0.00123179
0.00308333
0.000861607
-4.90485e-05
-0.000905849
9.32911e-05
0.000286044
-8.39104e-05
-0.00110894
0.000244433
0.00139431
0.000201405
-0.0010243
-0.000134913
7.58939e-05
-7.31938e-06
1.03183e-05
-2.67876e-06
-3.20166e-07
1.09219e-05
-2.42037e-07
-1.79992e-05
4.65169e-05
-0.000104078
6.84826e-05
-0.00171687
0.00265053
-0.000761358
0.00291685
-0.00378399
-0.000849725
6.42225e-06
-0.00152305
0.00176106
-0.00399184
0.000241282
-0.00273651
-0.00183132
0.000575996
0.00269147
0.00291125
-0.00541305
0.00260502
0.00429311
-0.00420667
0.0022402
-0.0030841
0.00160615
-0.000762247
0.00245542
-0.00302326
0.00280804
0.00437054
0.00187634
0.00500068
-0.000232121
-0.00496639
0.000197832
0.00554111
-0.000660503
0.000120069
0.00552917
-0.00090402
8.31223e-05
-0.00470827
0.00396864
-0.00137615
0.00293667
0.00430769
-0.00140479
0.0011417
-0.0040446
0.00127034
0.0043877
-0.00135035
-0.00387599
-0.00166634
0.00413754
0.0010674
-0.00369243
-0.00186045
0.00362011
-0.00237909
-0.00323906
0.00215494
0.00346321
-0.0023951
-0.00326714
0.00328314
0.00223501
0.00304592
-0.0014746
-0.00380633
0.00301972
-0.00317981
-0.0025893
0.00261379
0.00299522
-0.00204082
0.00249745
-0.00406878
0.00361485
-0.00102067
-0.00506528
0.00105342
0.00537452
-0.00136266
0.00191028
-0.000265466
0.000991784
-0.00105775
0.000331432
-0.000108607
0.00127146
-0.00142832
-5.30163e-05
0.000305516
0.000110964
-0.00111195
-0.00173973
0.00113201
-1.74823e-07
-6.7214e-08
3.10523e-07
-4.85346e-07
-0.000103155
-0.00192085
0.00146638
-0.00171149
-6.94575e-05
0.00167779
4.74983e-05
-0.00179386
3.48664e-05
-0.000245352
0.00160045
0.000270407
-0.00162551
0.00164412
0.000464811
-0.00235428
0.00163669
0.00160789
-2.45258e-06
4.95399e-07
3.56913e-05
-4.764e-06
2.31142e-06
-4.26859e-06
-5.54901e-06
4.23852e-06
-5.49924e-05
1.02902e-06
-6.57802e-06
5.26754e-06
-4.39488e-05
2.12943e-05
-0.000264342
2.21858e-05
-6.61346e-05
4.34801e-05
5.31956e-05
-5.3383e-06
-0.000172947
-1.6906e-05
7.01016e-05
-2.22443e-05
0.00142575
0.00327995
-0.00420557
0.00132679
-0.00446537
0.00456433
0.00471486
-0.000108114
-0.00118218
-0.00244429
0.00115803
0.00246844
-0.000710479
0.00272173
-0.00319343
0.000157255
-0.00331202
0.00389424
-0.00390648
-1.70649e-05
2.93069e-05
0.00391646
3.06488e-05
-5.28682e-05
-2.91053e-05
-0.00387558
-1.80199e-06
0.00396936
-5.71584e-06
-4.71823e-05
0.0040635
5.37504e-05
-0.000147892
2.46312e-05
0.0041881
-0.000149232
0.0041369
-0.00408969
-2.25747e-05
-0.000199738
0.00440739
-1.95491e-05
0.00404356
-0.000106395
-0.00394177
-9.41743e-05
-0.00390499
-4.24942e-05
-0.00387568
1.33756e-06
-0.00393398
4.12312e-05
-0.0038447
-0.000118381
-0.000195436
0.0046222
-1.9381e-05
0.00387498
-2.68595e-05
-2.40627e-05
-0.00381736
-3.41526e-05
-0.00385047
-1.82945e-05
-3.19686e-05
-0.00401099
0.000225594
-5.28731e-06
0.00464624
-1.87497e-05
0.00389587
-2.61818e-05
-0.00396487
8.24351e-05
0.00466967
-4.98488e-06
-1.84394e-05
-4.90024e-06
0.00469224
-1.76694e-05
0.00391596
-2.5074e-05
0.00393556
-2.45006e-05
-2.74116e-05
-0.00395927
-2.42992e-05
-0.00395831
-3.39724e-05
-4.48031e-06
0.00471406
-1.73485e-05
0.00395445
-2.33672e-05
-4.92413e-06
-0.00392956
-2.47873e-05
-0.00392857
-3.46701e-05
-4.25324e-06
0.00473486
-1.65476e-05
0.003973
-2.28063e-05
-4.77891e-06
-0.0038993
-2.54798e-05
-0.00389839
-3.49539e-05
-3.57309e-06
0.00475467
-1.62287e-05
0.00399108
-2.1649e-05
-4.82272e-06
-0.00386864
-2.58457e-05
-0.00386768
-3.55368e-05
-2.85476e-06
0.00477292
-1.54037e-05
0.00400933
-2.11062e-05
-4.64706e-06
-0.00383754
-2.64524e-05
-0.0038366
-3.57207e-05
-1.17421e-06
0.00478919
-1.50904e-05
0.00402808
-1.99273e-05
4.2496e-06
-0.00381502
-2.67667e-05
-0.00379621
-3.61446e-05
1.52713e-06
0.0048019
-1.42411e-05
0.00404901
-1.93981e-05
2.02827e-05
-0.0036767
-0.000158602
-0.00370068
-7.52466e-05
7.19451e-06
0.00480864
-1.393e-05
0.00405578
4.23029e-07
1.98348e-05
-0.00366356
-3.29719e-05
-0.00364251
-3.83298e-05
1.78387e-05
0.00480386
-1.30612e-05
0.00404134
3.22838e-05
4.74423e-05
-0.00350362
-0.000207389
-0.00350713
-8.79465e-05
0.000203581
0.00461302
-1.27428e-05
0.0041781
6.68154e-05
5.45626e-05
-0.00345701
-0.000101165
-0.00343849
-1.40724e-05
0.000180629
0.00428679
0.000145608
0.00426049
9.82386e-05
8.85878e-05
-0.000158361
-0.00338724
-0.00339444
4.45413e-05
1.09997e-05
3.00542e-05
0.00424573
0.00424562
2.58716e-05
-0.00347789
0.00356374
-0.000187014
-0.0034665
-0.000169754
0.000152702
-0.000164036
-0.00337591
4.31968e-05
-0.00328494
-0.00351701
0.00357783
-9.37953e-05
-0.00016066
-0.00347573
0.00350455
-5.55848e-05
-5.65038e-05
-0.00353282
0.00356078
-5.38107e-05
-5.47199e-05
-0.00358819
0.00361531
-5.19046e-05
-5.28885e-05
-0.00364192
0.00391748
-4.99645e-05
-5.09107e-05
-0.00393239
0.00390398
2.66152e-05
-4.90653e-05
-0.00405513
0.00404822
-4.59581e-05
-0.000121844
-0.00394156
0.0039066
-0.000112941
5.94792e-05
-0.00383568
0.00385758
-4.14414e-05
-7.83103e-05
-0.00387864
0.00389915
-3.92636e-05
-4.04432e-05
-0.00391893
0.00393822
-3.69555e-05
-3.82226e-05
-0.00395676
0.00397479
-3.45771e-05
-3.58905e-05
-0.00399207
0.00400883
-3.21629e-05
-3.35091e-05
-0.00402485
0.00404034
-2.97325e-05
-3.11043e-05
-0.0040551
0.00406932
-2.72817e-05
-2.86878e-05
-0.00405903
0.00416742
3.72268e-05
-2.46051e-06
0.00416938
2.80908e-05
-2.72707e-05
7.17029e-05
0.0042013
-1.75817e-05
0.00423593
0.00417013
-0.0040882
-1.51115e-05
-0.004224
0.00422766
2.22118e-05
4.43654e-05
0.00407372
-0.00404025
-3.3046e-05
1.78075e-05
0.00402488
-0.00400873
-3.60831e-05
-3.477e-05
0.00399208
-0.00397465
-3.90821e-05
-3.77483e-05
0.00395673
-0.00393802
-4.20836e-05
-4.07239e-05
0.00391882
-0.00389882
-4.50725e-05
-4.36973e-05
0.00387835
-0.00385715
-4.8054e-05
-4.66542e-05
0.00391395
-0.00388564
-5.08784e-05
-4.96023e-05
0.00392755
-0.00386135
-0.000108698
-5.22632e-05
0.00381211
-0.00376292
-7.96442e-06
-4.78983e-05
0.0037849
-0.00378365
-1.95454e-05
-9.64035e-05
0.00364165
-0.00361504
-6.05794e-05
-5.95616e-05
0.00358813
-0.00356059
-6.24929e-05
-6.15857e-05
0.00353278
-0.00350438
-6.41194e-05
-6.33463e-05
0.0034757
-0.00348548
-6.54715e-05
-6.48208e-05
0.00345776
-0.00347908
-6.66189e-05
-6.6051e-05
0.00342597
-0.0033465
-3.49294e-05
-6.71818e-05
-0.00328128
-2.20235e-05
-0.00346141
-0.000169119
0.00419451
4.65696e-05
-2.54378e-05
0.00423551
8.61448e-05
-0.000104882
-0.0032662
3.15256e-05
-0.00322666
0.000140353
-0.000164945
-0.00343682
-0.00334044
-0.00347468
0.00344746
-0.000159794
0.00348474
-0.00348324
-0.000170616
-0.000159692
-0.00343201
0.00346108
-0.000122867
-0.00014521
-0.00348961
0.00351792
-8.38931e-05
-8.50337e-05
-0.00354568
0.00357314
-8.12771e-05
-8.24787e-05
-0.00360005
0.00362666
-7.85157e-05
-7.97976e-05
-0.00365272
0.0036784
-7.5641e-05
-7.69706e-05
-0.00370342
0.00380276
-7.27172e-05
-7.40905e-05
-0.00375203
0.00377568
-6.96046e-05
-7.11204e-05
-0.00390313
0.00385663
-6.6438e-05
-6.79746e-05
-0.00384293
0.00386441
-6.29227e-05
-6.46088e-05
-0.00388513
0.00390533
-5.94675e-05
-6.11592e-05
-0.00392479
0.00394376
-5.59262e-05
-5.76855e-05
-0.00396199
0.00397973
-5.23077e-05
-5.41218e-05
-0.00399672
0.0040132
-4.86464e-05
-5.04998e-05
-0.00402895
0.00404419
-4.49724e-05
-4.68528e-05
-0.0040587
0.0040727
-4.12795e-05
-4.32017e-05
-0.00408574
0.00413112
-8.15152e-06
-1.54993e-05
-1.83722e-07
-2.02573e-05
0.00422174
-1.8773e-05
0.0042131
-0.00413071
0.00418314
-5.85661e-06
2.84963e-05
0.00417406
-0.00416281
1.09625e-05
0.00415194
-3.31779e-06
1.06522e-05
2.46649e-05
0.0042002
0.00422633
0.00415071
-0.00410765
-5.81743e-05
3.22684e-05
0.00405878
-0.0040441
-4.773e-05
-3.10563e-05
0.00402896
-0.00401307
-5.19805e-05
-4.99078e-05
0.0039967
-0.00397955
-5.62277e-05
-5.41153e-05
0.00396194
-0.00394354
-6.0482e-05
-5.83382e-05
0.00392468
-0.00390504
-6.47098e-05
-6.25554e-05
0.00388497
-0.00386415
-6.8872e-05
-6.673e-05
0.00384295
-0.00382096
-7.28661e-05
-7.08081e-05
0.00379854
-0.00383052
-7.67136e-05
-7.46808e-05
0.00380003
-0.00372772
-8.02756e-05
-7.83957e-05
0.00374222
-0.00367806
-8.37118e-05
-8.18948e-05
0.00365253
-0.00362635
-8.67531e-05
-8.50929e-05
0.00359991
-0.00357285
-8.95506e-05
-8.80331e-05
0.00354552
-0.00351761
-9.20333e-05
-9.06704e-05
0.00348943
-0.00346069
-9.42189e-05
-9.29972e-05
0.00343168
-0.00340214
-9.61645e-05
-9.50536e-05
0.0033724
-0.00330942
-9.79112e-05
-9.69176e-05
0.00326113
-0.00318823
-4.13711e-05
-7.03147e-05
-0.00347665
-0.000171537
1.71422e-05
-9.6786e-05
-0.00314702
-0.00313954
-3.15517e-05
-0.000176089
-0.0031869
-5.24804e-06
0.00416961
0.00416966
6.93759e-06
-0.000109391
9.68773e-05
-0.00342431
-0.000138419
-0.00344762
-5.85292e-06
-9.23887e-05
-0.00304878
-5.56058e-05
-0.00308979
-0.00341965
0.00419698
-0.00417383
-2.90081e-05
0.00416485
2.68858e-05
5.11792e-05
-1.97027e-05
0.00416872
1.52755e-05
0.00420557
-0.00343935
0.00350713
-0.000206202
-0.000186391
0.000136027
-0.00339726
0.00348882
2.32817e-05
0.000167962
-0.00368006
-0.000136922
-0.00353309
0.00353437
-0.0001719
-0.000197497
-0.00351726
0.00348845
-0.000130981
-0.000142579
-0.00349029
0.00348217
-0.000114747
-0.000147055
-0.00350998
0.00353751
-0.000111423
-0.000112843
-0.0035645
0.0035912
-0.000107976
-0.000109465
-0.00361735
0.00364321
-0.000104377
-0.000105953
-0.00366852
0.00369349
-0.000100615
-0.000102276
-0.00371785
0.00374184
-9.67033e-05
-9.84517e-05
-0.00376519
0.00378818
-9.25984e-05
-9.44695e-05
-0.00381049
0.00383238
-8.83259e-05
-9.0283e-05
-0.00385366
0.00387452
-8.37911e-05
-8.58875e-05
-0.00389469
0.00391438
-7.91606e-05
-8.13216e-05
-0.00393335
0.00395185
-7.44239e-05
-7.66597e-05
-0.00396963
0.00398692
-6.95996e-05
-7.18988e-05
-0.00400349
0.00401957
-6.47268e-05
-6.70711e-05
-0.00403494
0.00404981
-5.98454e-05
-6.22177e-05
-0.00406398
0.00407766
-5.49634e-05
-5.73708e-05
-0.0041019
0.00412082
-2.70776e-05
-3.97341e-05
-2.4511e-05
1.80489e-05
-1.13529e-05
0.00421505
-2.41577e-05
-1.86344e-05
0.0042124
0.00420699
0.00419527
0.00416622
-0.00415021
-5.0494e-06
-0.00417135
0.00415897
1.93154e-05
-8.44896e-06
0.00409084
-0.0040923
-5.6717e-05
-2.70948e-05
0.00406404
-0.0040497
-6.20674e-05
-5.93156e-05
0.00403493
-0.00401942
-6.74915e-05
-6.46785e-05
0.00400346
-0.00398674
-7.29486e-05
-7.00797e-05
0.00396956
-0.00395163
-7.84135e-05
-7.551e-05
0.00393326
-0.00391414
-8.38342e-05
-8.09268e-05
0.00389459
-0.00387431
-8.91501e-05
-8.6274e-05
0.00385364
-0.00383223
-9.42795e-05
-9.14821e-05
0.00381042
-0.00378793
-9.92032e-05
-9.64838e-05
0.00376507
-0.00374151
-0.00010384
-0.000101257
0.00371764
-0.00369315
-0.000108208
-0.00010576
0.00366831
-0.00364286
-0.000112207
-0.000109927
0.00361713
-0.00359081
-0.000115875
-0.000113762
0.00356422
-0.00353707
-0.00011919
-0.000117253
0.00350966
-0.0034817
-0.000122176
-0.000120402
0.00345351
-0.00342479
-0.000124886
-0.000123247
0.00339586
-0.0033664
-0.000127368
-0.00012585
0.00330846
-0.00322006
-0.000129766
-0.000128258
0.00315805
-0.00313819
-7.5473e-05
-9.35609e-05
-4.38888e-05
1.68035e-05
-0.0030627
-0.00309537
-8.67087e-05
0.000124303
-0.00341258
-7.10207e-05
-0.00320827
6.46831e-08
0.00414615
0.00418364
-9.39702e-06
0.000175606
-0.00354958
4.42459e-05
-0.00307622
0.000783989
-0.00283229
0.00368498
4.92335e-05
-9.60845e-05
-0.00304851
-8.55273e-06
-0.00300491
-0.00227404
0.0034848
0.000397121
-0.0017262
-0.000277433
-0.00336637
-0.00333462
0.00350248
1.03771e-07
0.000155104
-4.92495e-06
-0.00349411
0.00348904
-0.000201123
-0.000128555
-0.00348799
0.00346618
-0.000150095
-0.000196447
-0.00347127
0.0034863
-0.000146009
-0.000147666
-0.0034828
0.00350996
-0.000141909
-0.000143554
-0.00353664
0.00356306
-0.000137852
-0.00013952
-0.003589
0.00361467
-0.000133651
-0.000135399
-0.00363984
0.00366472
-0.000129263
-0.000131115
-0.00368907
0.00371312
-0.000124658
-0.000126626
-0.00373659
0.00375972
-0.000119832
-0.000121921
-0.00378224
0.0038044
-0.000114765
-0.00011699
-0.00382594
0.00384708
-0.000109464
-0.000111819
-0.00386759
0.00388771
-0.000103909
-0.000106404
-0.00390716
0.00392618
-9.81757e-05
-0.000100774
-0.00394451
0.00396238
-9.23001e-05
-9.499e-05
-0.00397957
0.00399629
-8.63194e-05
-8.90833e-05
-0.00401232
0.00402787
-8.02826e-05
-8.30979e-05
-0.00404274
0.00405713
-7.42411e-05
-7.70852e-05
-0.00407085
0.00408412
-6.82255e-05
-7.1091e-05
-0.00410951
0.00414469
-6.22604e-05
-6.5123e-05
-0.00414603
0.00415408
-3.70507e-05
-2.58561e-05
-0.0041808
0.00418503
-4.16351e-06
1.63411e-07
2.94705e-05
-1.37095e-05
0.00419664
3.50202e-06
-4.14571e-05
0.00422298
0.00417912
3.22304e-05
1.53554e-05
0.00416746
0.00422551
-1.70352e-05
-1.92875e-06
0.00418768
0.00419359
7.59195e-06
-3.86806e-05
0.00421473
0.00421123
0.00420194
-0.0041769
-5.7221e-06
-0.00427627
0.00417321
6.4377e-05
-8.37266e-05
0.00415599
-0.00413586
-2.51802e-05
-2.93555e-05
0.00409683
-0.00408407
-6.94749e-05
-6.61283e-05
0.00407089
-0.00405702
-7.59384e-05
-7.25012e-05
0.00404272
-0.00402772
-8.24978e-05
-7.89717e-05
0.00401227
-0.00399611
-8.91158e-05
-8.55203e-05
0.00397951
-0.00396218
-9.57397e-05
-9.21078e-05
0.00394444
-0.00392597
-0.000102302
-9.86723e-05
0.0039071
-0.00388752
-0.000108728
-0.000105143
0.00386756
-0.0038469
-0.000114944
-0.000111445
0.00382587
-0.00380417
-0.000120903
-0.000117514
0.00378212
-0.00375942
-0.000126542
-0.000123303
0.00373641
-0.00371279
-0.000131834
-0.000128764
0.00368887
-0.00366435
-0.000136727
-0.000133849
0.00363956
-0.00361421
-0.000141228
-0.000138546
0.00358861
-0.00356247
-0.000145335
-0.000142851
0.00353609
-0.0035092
-0.000149074
-0.000146776
0.00348208
-0.00345447
-0.000152497
-0.000150359
0.00342666
-0.00339837
-0.000155661
-0.000153658
0.0033699
-0.00334101
-0.000158656
-0.000156734
0.00327489
-0.0031888
-0.00016157
-0.000159673
0.00316689
-0.0031287
-0.000134272
-0.000108618
-9.00478e-05
6.52147e-05
-0.00302368
-0.00308006
-0.000138688
0.000119148
-0.00335612
-1.40791e-05
-0.00314994
0.000301967
-0.00306756
4.5045e-05
-0.00312982
0.00419358
-0.00418953
-8.2165e-06
0.004187
-3.48724e-05
1.24564e-05
-5.50315e-06
0.00420778
-3.4652e-05
0.00422032
0.000322119
-0.00268959
7.88717e-05
-0.00301857
-0.00151063
-0.00184108
-0.00271982
0.00316125
-4.43073e-05
-6.98151e-05
6.06023e-05
-0.00301447
-0.000114833
-0.00303504
-0.00249355
-0.000503699
-0.0032613
-0.00332694
0.00339618
-6.913e-05
-1.05897e-05
-0.00345097
0.00343114
-0.000181295
-0.000183344
-0.00341312
0.0034397
-0.000176673
-0.00017843
-0.00346598
0.00349215
-0.00017218
-0.000173949
-0.00351801
0.00354372
-0.000167614
-0.000169414
-0.00356902
0.00359411
-0.00016295
-0.000164818
-0.00361877
0.0036432
-0.000158081
-0.000160057
-0.00366716
0.00369087
-0.000152968
-0.000155073
-0.00371407
0.00373699
-0.000147581
-0.000149831
-0.00375938
0.00378145
-0.000141906
-0.000144309
-0.00380296
0.00382413
-0.000135937
-0.000138499
-0.00384471
0.00386493
-0.000129677
-0.000132399
-0.00388454
0.00390377
-0.000123138
-0.000126014
-0.00392237
0.00394056
-0.000116368
-0.000119376
-0.00395811
0.00397523
-0.000109419
-0.000112536
-0.00399169
0.00400771
-0.000102343
-0.000105546
-0.00402308
0.00403799
-9.52002e-05
-9.84622e-05
-0.00405226
0.00406607
-8.80558e-05
-9.13476e-05
-0.00407924
0.00409198
-8.0963e-05
-8.4263e-05
-0.00410411
0.0041158
-7.39555e-05
-7.72485e-05
-0.00416029
0.0041567
-3.34654e-05
-7.03416e-05
-3.26669e-05
1.75738e-05
-5.40425e-05
0.00423311
1.76801e-05
-1.44267e-05
0.00421973
0.00421438
-8.02823e-06
-1.57331e-06
0.00417706
0.00416344
-2.94938e-05
3.956e-05
0.00417762
0.00416252
0.00424529
0.00421007
-0.00418793
-2.78583e-05
-0.00416792
0.00421738
1.4918e-05
-4.15777e-05
0.00416499
-0.00411579
-7.43792e-05
-5.23e-05
0.00410415
-0.0040919
-8.17266e-05
-7.77612e-05
0.00407925
-0.00406595
-8.92425e-05
-8.51482e-05
0.00405224
-0.00403785
-9.68893e-05
-9.26823e-05
0.00402305
-0.00400755
-0.00010461
-0.000100324
0.00399165
-0.00397506
-0.000112332
-0.000108009
0.00395807
-0.0039404
-0.000119975
-0.000115661
0.00392234
-0.00390361
-0.000127456
-0.000123197
0.00388452
-0.00386477
-0.000134697
-0.000130537
0.00384467
-0.00382394
-0.000141635
-0.00013761
0.00380289
-0.00378122
-0.00014821
-0.000144355
0.00375926
-0.00373672
-0.00015438
-0.000150722
0.0037139
-0.00369052
-0.000160109
-0.000156667
0.00366689
-0.00364272
-0.000165393
-0.000162174
0.00361833
-0.00359343
-0.000170237
-0.000167242
0.00356832
-0.00354272
-0.000174671
-0.000171886
0.00351694
-0.00349069
-0.000178743
-0.000176145
0.00346428
-0.00343743
-0.00018251
-0.000180074
0.00341043
-0.00338305
-0.000186039
-0.000183733
0.00335555
-0.00332773
-0.000189384
-0.000187172
0.00324585
-0.00318758
-0.000192541
-0.000190499
0.00313266
-0.00308412
-0.000163368
-0.000193613
-8.46759e-05
8.47313e-05
-0.0030351
-0.00304425
-0.000124545
9.23196e-05
-0.00314648
1.13867e-05
-0.00311628
-4.01743e-06
0.00417659
0.00421089
-2.81641e-05
0.000192558
-0.002938
-0.000290181
-0.00357473
2.01778e-05
-0.00299995
4.57643e-05
-0.00309671
7.94591e-05
-0.00303743
-0.00354856
-0.00078607
0.000269085
-0.000532894
-0.00328475
-0.000149724
-0.00315592
6.11432e-05
-0.00299088
-0.000116596
4.32489e-05
-0.00296175
-0.000108372
-0.00305248
-0.00315759
-0.0030267
0.00318797
-0.000205572
0.00315845
-0.00343712
-0.000507401
-0.000371955
-0.00331208
0.00338506
-0.000142115
-0.000134696
-0.00341015
0.00343529
-0.000206433
-0.000208433
-0.00346025
0.00348516
-0.000201577
-0.000203397
-0.0035098
0.00353436
-0.000196738
-0.000198592
-0.00355862
0.00358274
-0.000191743
-0.000193671
-0.00360651
0.00363011
-0.00018655
-0.000188585
-0.00365331
0.00367632
-0.000181086
-0.00018326
-0.00369889
0.00372124
-0.000175316
-0.000177648
-0.00374313
0.00376476
-0.000169212
-0.000171717
-0.0037859
0.00380675
-0.000162759
-0.000165447
-0.00382708
0.0038471
-0.000155955
-0.00015883
-0.00386657
0.0038857
-0.00014881
-0.000151869
-0.00390427
0.00392248
-0.000141346
-0.00014458
-0.0039401
0.00395734
-0.000133609
-0.000136996
-0.00397398
0.00399021
-0.000125657
-0.000129173
-0.00400584
0.00402105
-0.000117555
-0.00012117
-0.00403564
0.00404982
-0.000109375
-0.000113056
-0.00406338
0.00407651
-0.000101193
-0.000104906
-0.00408904
0.00410116
-9.30794e-05
-9.6793e-05
-0.00411269
0.00412383
-8.50925e-05
-8.87819e-05
-0.00413441
0.00417822
-7.72797e-05
-8.09202e-05
-0.00419035
0.00420885
-2.67224e-05
-4.47887e-05
-0.00416145
0.0041869
-2.94591e-05
1.25251e-05
2.74454e-05
-1.78231e-05
0.00421011
3.73744e-05
-6.80487e-05
0.00421757
0.00424141
2.70528e-05
1.65584e-05
0.0041895
0.00422361
-7.56799e-06
-1.53097e-06
0.00418616
0.00417243
1.05853e-05
-1.95735e-05
0.00418661
0.00417158
-2.36586e-06
-1.28787e-05
0.00422302
0.00422335
2.86273e-05
-3.12638e-05
0.00421353
0.00423607
0.00423764
-0.00418126
-4.1472e-05
-0.00422586
0.00420975
-1.51582e-05
-1.63789e-05
0.00418144
-0.0041629
-4.63962e-05
-4.13923e-05
0.00413449
-0.00412379
-8.50735e-05
-8.0716e-05
0.00411273
-0.00410108
-9.3377e-05
-8.882e-05
0.00408906
-0.00407641
-0.000101892
-9.71726e-05
0.00406338
-0.0040497
-0.000110565
-0.000105716
0.00403564
-0.00402093
-0.000119321
-0.000114385
0.00400584
-0.00399009
-0.000128073
-0.0001231
0.00397398
-0.00395723
-0.000136729
-0.000131771
0.00394012
-0.00392238
-0.000145196
-0.000140305
0.00390431
-0.00388561
-0.000153391
-0.000148614
0.0038666
-0.00384699
-0.000161242
-0.00015662
0.00382709
-0.00380662
-0.000168684
-0.000164256
0.00378588
-0.00376459
-0.00017567
-0.000171465
0.00374305
-0.00372099
-0.00018217
-0.000178206
0.0036987
-0.00367592
-0.000188175
-0.00018446
0.00365293
-0.00362948
-0.000193694
-0.000190228
0.00360584
-0.00358175
-0.000198757
-0.000195527
0.0035575
-0.00353283
-0.00020341
-0.000200396
0.00350802
-0.00348282
-0.000207708
-0.000204886
0.0034575
-0.00343183
-0.000211708
-0.000209053
0.00340606
-0.00337998
-0.000215467
-0.000212947
0.00335385
-0.00332742
-0.000218975
-0.000216625
0.00330095
-0.00324193
-0.000222389
-0.000220075
0.00318509
-0.00310843
-0.000185034
-0.000181383
-0.000153093
9.97898e-05
-0.00299917
-0.00308411
-0.000177412
6.66858e-05
-0.00302061
-0.00344544
-0.000524571
6.77614e-05
-0.00298558
0.00424586
-0.00424932
-2.60013e-05
0.00424954
-7.17308e-05
-6.92395e-06
4.38339e-06
0.00421607
-2.93394e-06
0.00420576
1.19977e-05
-0.00308252
4.62247e-05
-0.00306348
-1.20912e-05
-0.00313759
7.97322e-05
-0.00305602
0.000112876
-0.00306051
0.000145616
-0.00300758
-0.000139129
0.00013942
-0.00299947
-0.000197292
-0.00302595
-0.00307891
-0.00344056
0.00331073
-0.000377573
-0.000458923
0.000537622
-0.00352414
0.00355329
-0.00366286
-0.000349358
-0.000411838
-0.00321276
0.00329133
-0.000284141
-0.000273984
-0.00338034
0.00344204
-0.000203807
-0.000223709
-0.00346558
0.0034891
-0.000229948
-0.000231977
-0.00351239
0.00353561
-0.000224793
-0.000226693
-0.00355855
0.0035814
-0.000219587
-0.000221535
-0.00360396
0.0036264
-0.000214183
-0.00021623
-0.00364851
0.00367048
-0.000208515
-0.000210697
-0.00369208
0.00371352
-0.000202519
-0.000204866
-0.00373456
0.0037554
-0.000196158
-0.000198691
-0.00377582
0.00379602
-0.000189406
-0.00019214
-0.00381576
0.00383525
-0.000182248
-0.000185192
-0.00385426
0.00387299
-0.000174684
-0.000177842
-0.00389122
0.00390914
-0.000166729
-0.000170095
-0.00392653
0.0039436
-0.000158413
-0.000161974
-0.00396012
0.00397629
-0.000149784
-0.00015352
-0.00399191
0.00400716
-0.000140907
-0.000144788
-0.00402184
0.00403614
-0.000131856
-0.000135849
-0.00404987
0.0040632
-0.000122714
-0.000126782
-0.00407597
0.00408834
-0.000113566
-0.00011767
-0.00410015
0.00411157
-0.000104499
-0.0001086
-0.00412244
0.00413293
-9.55875e-05
-9.96516e-05
-0.00414291
0.00415251
-8.68876e-05
-9.08929e-05
-0.0041901
0.0042138
-5.04232e-05
-8.23729e-05
-2.29965e-05
-1.97626e-05
-1.45756e-05
0.00424444
1.45551e-05
-5.30476e-05
0.00425606
0.0042362
-2.39998e-05
1.56098e-05
0.00419789
0.00418503
-7.10646e-06
-1.49122e-06
0.00419476
0.00418094
1.00514e-05
-1.8564e-05
0.00419512
0.00418014
-2.21279e-05
1.23607e-06
0.00424391
0.00418266
0.00424169
0.00423835
-0.00423269
-4.71332e-05
-0.00423688
0.004225
-3.28305e-06
-1.4905e-05
0.00419242
-0.00415253
-8.62843e-05
-8.1668e-05
0.00414299
-0.0041329
-9.5156e-05
-9.02583e-05
0.00412249
-0.00411151
-0.000104354
-9.92352e-05
0.00410018
-0.00408827
-0.000113806
-0.000108501
0.004076
-0.00406313
-0.000123435
-0.000117987
0.0040499
-0.00403607
-0.000133151
-0.000127612
0.00402189
-0.00400711
-0.000142856
-0.000137281
0.00399198
-0.00397626
-0.000152447
-0.000146894
0.00396022
-0.00394359
-0.000161825
-0.000156349
0.00392665
-0.00390915
-0.000170897
-0.000165551
0.00389136
-0.00387301
-0.000179584
-0.000174414
0.0038544
-0.00383527
-0.000187818
-0.000182864
0.00381589
-0.00379601
-0.000195551
-0.000190843
0.00377591
-0.00375533
-0.000202751
-0.000198309
0.00373455
-0.00371331
-0.000209408
-0.000205242
0.0036919
-0.00367006
-0.000215534
-0.000211642
0.00364806
-0.00362565
-0.000221158
-0.000217528
0.00360311
-0.0035802
-0.000226326
-0.000222939
0.00355716
-0.00353378
-0.00023109
-0.000227924
0.00351029
-0.00348649
-0.000235508
-0.000232537
0.00346261
-0.00343844
-0.000239635
-0.000236832
0.0034142
-0.00338967
-0.000243502
-0.000240864
0.00336507
-0.00334023
-0.000247232
-0.000244673
0.00327326
-0.00320757
-0.000250719
-0.000248354
0.00316762
-0.0031505
-0.000214409
-0.000217369
-0.000326451
0.000130412
-0.00295988
-0.00307358
-0.000163788
0.000167062
-0.00302922
-0.00308173
-0.00023256
2.13873e-05
-0.00297423
-1.42798e-05
0.00421078
0.00426744
-4.53679e-05
0.000282988
-0.0036069
-0.00033895
1.25181e-05
-0.00304881
0.000351829
-0.00359298
2.26324e-05
-0.00302031
4.63143e-05
-0.00303006
4.77391e-05
-0.00305491
7.99531e-05
-0.00302309
0.000113468
-0.00302836
0.000146512
-0.00301467
0.000147213
-0.00297962
-0.000190489
0.00016487
-0.0030036
-0.000209987
-0.00306223
-0.003045
-0.00369796
0.00357559
-0.000226986
-0.000423904
-0.00352411
0.000341113
0.00377105
-0.00365026
-0.000544699
-0.000265855
-0.00350026
0.00344862
-0.000325931
-0.000336515
-0.00343764
0.00341522
-0.000261721
-0.000263
-0.00345051
0.00350402
-0.000257316
-0.000259005
-0.0035258
0.00354753
-0.000251685
-0.000253752
-0.00356904
0.00359044
-0.000246201
-0.000248194
-0.00361158
0.00363263
-0.000240628
-0.000242677
-0.00365339
0.00367404
-0.000234834
-0.000236994
-0.00369439
0.00371461
-0.000228734
-0.000231048
-0.00373451
0.00375425
-0.000222261
-0.000224762
-0.00377364
0.00379286
-0.000215374
-0.000218084
-0.00381169
0.00383033
-0.000208042
-0.000210978