/*--------------------------------*- C++ -*----------------------------------*\
  =========                 |
  \\      /  F ield         | OpenFOAM: The Open Source CFD Toolbox
   \\    /   O peration     | Website:  https://openfoam.org
    \\  /    A nd           | Version:  10
     \\/     M anipulation  |
\*---------------------------------------------------------------------------*/
FoamFile
{
    format      ascii;
    class       volScalarField;
    location    "32.5";
    object      p;
}
// * * * * * * * * * * * * * * * * * * * * * * * * * * * * * * * * * * * * * //

dimensions      [0 2 -2 0 0 0 0];

internalField   nonuniform List<scalar> 
6397
(
3.23313
2.87038
1.2306
1.12368
0.756385
0.958751
6.17512
2.80542
-10.2967
-10.7969
5.37777
2.78144
-0.183857
-0.10645
-0.171475
-8.51261
-10.2905
-9.42188
12.2869
11.7141
11.1325
-15.8081
-15.5422
-14.6741
-0.0578536
4.66811e-05
0.0275877
-2.65102
-2.3162
-2.35065
-2.14759
0.851855
1.05516
0.954283
0.546508
0.798473
0.731784
0.954782
0.531731
0.398145
0.391152
0.62951
-2.53894
0.38568
0.459969
1.07261
0.665231
0.809277
0.352021
0.480165
0.396862
0.555239
0.51856
5.23513
4.81488
2.3813
2.41946
1.11733
-2.4229
-2.09609
-2.80445
-3.17383
-3.39029
-3.38963
-3.16267
-2.8268
-2.49677
-2.2765
-1.5486
-1.89156
-1.50239
-1.67998
-1.86092
-2.02838
-2.15534
-2.12998
-2.03846
-1.90058
-1.80465
-1.80218
-1.56619
-1.80976
-2.23117
-1.96353
-1.74912
-1.86617
-2.37152
-2.28686
-2.04914
-2.03826
-2.67332
-2.78481
-2.46156
-2.92571
-3.15325
-3.49948
-1.83419
-2.96766
-2.34795
-1.16342
-1.43931
-0.922929
-0.99343
-0.977477
-0.925807
-1.07767
-1.04045
-1.08108
-1.09162
-1.11825
-1.07527
-1.55233
-1.26592
-2.64434
-1.99934
-3.53558
-2.28228
-2.62063
-2.3592
-2.68975
-2.37837
-3.8097
-3.19982
-4.75085
-4.41171
-4.37494
-4.74021
-3.15894
-3.80256
-2.1871
-2.60341
-1.80541
-1.91987
-1.95321
-1.82048
-3.42532
-2.9949
-3.65061
-4.67045
-4.40932
-1.99801
-3.05992
-2.20312
-5.89278
-4.49938
-5.81685
-1.59864
-2.81877
-3.65691
-1.66711
-3.83322
-1.46896
-2.08224
-0.645457
-0.994248
-0.279606
-0.414068
-0.205082
-0.220467
-0.244118
-0.218341
-0.30667
-0.276968
-0.484948
-0.364946
-1.04951
-0.706326
-2.26723
-1.55017
-3.25089
-2.10714
-1.96085
-3.04006
-2.45682
-4.75359
-3.82286
-6.07836
-5.55079
-5.5946
-6.03472
-3.86307
-4.76189
-2.39812
-3.04281
-1.64762
-1.93949
-1.4611
-1.50197
-1.5252
-3.93093
-3.33265
-4.38239
-4.31011
-2.49663
-3.5804
-5.42775
-3.86902
-5.11142
-6.83354
-6.86839
-1.47074
-2.7444
-1.59263
-2.68889
-1.72522
-4.83197
-4.1459
-4.58694
-0.848316
-0.854713
-4.60791
-2.54501
-3.43172
-1.01964
-1.70793
-0.135847
-0.504688
0.274325
0.110788
0.391266
0.353739
0.37127
0.38532
0.297728
0.336547
0.0637045
0.208689
-0.51792
-0.178343
-1.71362
-1.01888
-2.67718
-1.35244
-1.35958
-1.85426
-1.5108
-3.21593
-2.41338
-5.43429
-4.25474
-7.11371
-6.47181
-6.5493
-7.13603
-4.35197
-5.51902
-2.4459
-3.29344
-1.38645
-1.8245
-0.963672
-1.11958
-0.884038
-4.28718
-3.58322
-4.72887
-6.03157
-4.02589
-6.26571
-1.60988
-2.84996
-7.17719
-7.25233
-4.93263
-4.68418
-2.73731
-1.77189
-0.236027
-0.150193
-3.65859
-4.08195
-6.27205
-5.76829
-6.67188
-0.831537
-5.26615
-2.12821
-2.99417
-0.611212
-1.31183
0.282941
-0.0915639
0.689036
0.534329
0.816478
0.77788
0.815833
0.824668
0.747386
0.791689
0.523671
0.661509
-0.00520926
0.308064
-1.06604
-0.456042
-2.88394
-1.88151
-4.71563
-3.93396
-4.37722
-4.88586
-0.610689
-0.705322
-0.65709
-0.748142
-0.618686
-1.50966
-1.04109
-3.15984
-2.20777
-5.7201
-4.37757
-7.65442
-6.91429
-7.02189
-7.69132
-4.50764
-5.84753
-2.30092
-3.28298
-1.05482
-1.574
-0.459393
-0.690117
-0.324778
-4.38996
-3.6398
-4.83925
-1.64284
-0.716344
-4.73555
-3.43874
-4.18384
-6.59891
-4.12649
-0.86374
0.288035
0.390999
-2.80525
-6.77788
-0.653637
-1.52178
-5.55125
-3.51964
-2.38981
-0.0869045
-5.58923
-2.9513
-3.36928
-3.35085
-1.5692
-2.32878
-0.227248
-0.853347
0.601606
0.255646
0.98386
0.838013
1.11425
1.07156
1.13042
1.13178
1.07523
1.11527
0.88583
1.0054
0.437563
0.702917
-0.403957
0.0758997
-1.78075
-1.03384
-3.18298
-2.59792
-2.85286
-3.31337
-1.19633
-2.05529
0.0248758
0.0397425
0.0122969
0.0484921
0.0535955
-0.222306
-0.0303352
-1.10488
-0.580354
-2.85456
-1.85181
-5.50946
-4.11948
-7.55056
-6.76001
-6.89496
-7.61396
-4.26662
-5.66151
-1.97683
-2.99721
-0.670337
-1.22462
-0.0103565
-0.280441
0.164332
-0.571338
0.0609269
-1.47263
-0.457705
-0.104747
0.478908
-0.944229
-0.227895
-2.65156
-1.77902
-4.17317
-3.49135
-4.63728
-4.57791
-3.7876
-4.37523
-3.02911
-4.06164
-6.25427
-2.53784
-5.70708
-1.32754
-4.17755
0.0275473
-0.533003
-2.36568
0.086782
-0.747819
-2.50099
-2.21371
-5.30363
-2.09525
-2.47258
-0.914573
-1.55029
0.169848
-0.347248
0.861967
0.565253
1.19091
1.06213
1.31194
1.27017
1.33195
1.33212
1.29216
1.32441
1.1444
1.24093
0.806015
1.00614
0.186021
0.541403
-0.803146
-0.269235
-1.68585
-1.33416
-1.3021
-1.68094
-0.179236
-0.762969
0.740973
0.349285
0.53224
0.458871
0.520885
0.53666
0.528601
0.524712
0.545133
0.209858
0.417459
-0.638908
-0.134897
-2.30465
-1.35421
-4.82842
-3.50485
-6.79726
-6.02437
-6.16666
-6.88829
-3.65929
-4.98002
-1.49557
-2.46038
-0.261189
-0.782753
0.383842
0.114136
0.68554
0.565998
0.852097
0.786208
0.859873
-1.00885
0.216333
-0.368574
-2.45444
-1.71074
-3.70666
-3.15659
-3.99609
-4.00931
-3.10885
-3.69065
-0.079893
0.334825
0.461584
1.00668
-1.67552
-2.40999
-3.61036
-5.35829
-2.17238
-4.40423
-1.18226
-2.92758
-0.590137
-1.48627
0.157223
-0.254457
-0.22125
1.17341
0.6957
0.460856
-0.077938
0.281092
1.30114
1.51193
1.60167
-0.970765
-1.04627
-0.493034
-4.61275
-1.64072
-1.40002
-1.22711
-1.54905
-0.319178
-0.799062
0.529082
0.129303
1.07177
0.834495
1.33535
1.22816
1.43461
1.39845
1.46128
1.45868
1.43899
1.46191
1.32261
1.40093
1.07051
1.21751
0.649269
0.887234
0.0403075
0.363821
-0.438051
-0.265842
-0.0538099
-0.347882
0.613708
0.280081
1.19317
0.932542
1.38723
0.746433
0.61743
0.857842
0.825672
0.882986
0.86509
0.856874
0.885705
0.593179
0.767537
-0.138434
0.298681
-1.59969
-0.764964
-3.77748
-2.64323
-5.47779
-4.79982
-4.95133
-5.593
-2.81133
-3.93536
-0.950378
-1.7825
0.134712
-0.323895
0.706767
0.46871
0.985768
0.869409
1.0524
1.05279
1.11166
0.0158156
0.436686
-0.994576
-0.457386
-2.1589
-1.57394
-3.07729
-2.69017
-3.16009
-3.24539
-2.29661
-2.82284
-1.67691
-3.01276
-4.23579
-1.85328
-3.22552
-1.14718
-1.99892
-0.753758
-0.878389
-0.507617
0.146219
0.0534186
-0.394847
0.868501
1.67442
1.41217
0.505387
-0.224943
0.313116
1.74083
1.85631
1.9144
-0.412444
0.0259243
-0.34891
-0.00521931
-3.74034
-0.73474
-0.631447
-0.47727
-0.69783
0.179136
-0.164917
0.807165
0.520889
1.21451
1.04337
1.41945
1.339
1.50481
1.47324
1.53929
1.531
1.52521
1.54095
1.43934
1.49291
1.28666
1.37101
1.05735
1.18523
0.703676
0.896669
0.437411
0.51948
0.770542
0.539115
1.189
1.003
1.51075
1.34704
1.74292
1.64771
1.8009
0.768411
0.655458
0.954865
0.859651
1.07008
1.0267
1.10033
1.08842
1.10167
1.11156
0.914173
1.04314
0.333796
0.685089
-0.84518
-0.173762
-2.54814
-1.6641
-3.83163
-3.33513
-3.46392
-3.75466
-1.85291
-2.71736
-0.402783
-1.05764
0.475462
0.0950212
0.955714
0.749675
1.19609
1.09408
1.27757
1.25358
1.26709
0.468701
0.698968
-0.185742
0.166876
-0.99442
-0.567462
-1.83942
-1.43213
-2.39007
-2.18014
-2.26552
-2.42581
-1.45112
-1.92193
-0.925327
-2.47327
-3.22263
-1.69115
-2.37037
-1.24959
-1.39291
-1.03625
-0.456126
-0.887398
0.395163
-0.819968
0.997641
0.0856065
-0.574539
1.51214
1.94893
1.79532
0.33165
-2.94938
0.154475
0.650408
0.422766
-0.10953
-0.0199453
0.0940492
-0.0508222
0.551259
0.319795
1.00665
0.801832
1.30469
1.18286
1.46424
1.40204
1.5476
1.51345
1.59553
1.57333
1.60449
1.60342
1.56521
1.5885
1.47192
1.52406
1.31678
1.40096
1.128
1.22158
1.05294
1.0593
1.29832
1.14192
1.5655
1.45654
1.71892
1.64344
1.85458
1.79427
1.93849
1.89882
1.96095
1.96758
0.82054
0.564017
0.699133
1.02253
0.928291
1.17259
1.10197
1.25971
1.22589
1.26937
1.27053
1.25896
1.26792
1.1391
1.22352
0.720444
0.978961
-0.158131
0.341598
-1.40155
-0.757484
-2.33039
-1.96872
-2.07381
-2.33875
-0.929218
-1.5415
0.095966
-0.373896
0.749205
0.455607
1.13373
0.962332
1.3277
1.24607
1.38219
1.36947
1.3129
1.36308
1.20185
0.077267
0.554749
0.331918
-0.492183
-0.190849
-1.0969
-0.796154
-1.58252
-1.36889
-1.74733
-1.719
-1.44275
-1.65843
-0.690834
-1.1092
0.143005
-0.251688
0.730531
0.485736
-0.160884
0.44208
1.94828
1.90249
-2.13876
-2.50492
1.12982
-1.71036
-1.8309
0.931685
1.09012
1.17287
-1.52373
-0.998692
-1.48923
-0.169191
-1.46502
0.562722
-1.39837
1.09007
-1.02547
1.64244
0.371648
-0.384965
1.7526
1.85943
1.80747
-2.40812
0.545568
0.722802
0.385181
0.429371
0.507617
0.406855
0.816558
0.646377
1.1345
0.985992
1.35695
1.26233
1.49013
1.43279
1.57581
1.53447
1.62835
1.61473
1.64541
1.63753
1.62093
1.63705
1.55194
1.58883
1.47733
1.51234
1.42652
1.44851
1.44566
1.41957
1.63369
1.52407
1.80067
1.73611
1.85803
1.83575
1.90868
1.87964
1.96717
1.93877
1.9625
1.98027
1.81472
1.91141
0.912517
0.902503
0.886153
1.03193
0.966492
1.16491
1.09201
1.30676
1.23864
1.3864
1.35526
1.39855
1.40002
1.37131
1.38687
1.28055
1.34001
0.995546
1.17367
0.387384
0.73342
-0.449202
-0.0211564
-1.0324
-0.809269
-0.873253
-1.05138
-0.156849
-0.543516
0.505298
0.194465
0.955343
0.746899
1.24562
1.11409
1.39735
1.33657
1.44402
1.43118
1.37016
1.42192
1.26479
0.112514
0.380256
-0.462961
-0.183366
-0.958479
-0.71257
-1.3227
-1.16515
-1.43719
-1.41921
-1.22517
-1.3762
-0.716139
-0.999138
-0.027232
-0.383801
0.610638
0.314849
0.868272
0.390622
0.967017
1.68012
1.68734
-2.04712
-2.09483
1.0645
1.18727
-1.92616
-1.50517
-2.03486
-0.749479
-2.208
-0.00142561
-2.32801
0.667258
-2.1786
1.13402
-1.55653
1.82414
-0.529136
1.67594
1.10044
0.545626
1.73901
1.39898
1.55733
1.31185
0.201874
1.52362
1.52995
-2.1591
0.806243
0.934305
0.701838
0.728681
0.770542
0.710592
0.974938
0.858989
1.20187
1.09485
1.37476
1.30067
1.48977
1.44009
1.56362
1.53044
1.61192
1.57772
1.63473
1.62461
1.63748
1.63631
1.63001
1.63355
1.61528
1.62341
1.60599
1.60726
1.66237
1.62099
1.81159
1.72984
1.92433
1.88266
1.94097
1.93975
1.94157
1.93962
1.96044
1.95154
1.92916
1.95774
1.78839
1.86712
1.55115
1.68082
1.16276
1.2594
1.14293
1.12551
1.24027
1.18976
1.30715
1.27523
1.3745
1.34028
1.42857
1.4032
1.45343
1.44642
1.43681
1.45149
1.36712
1.41206
1.17466
1.29458
0.777833
1.00322
0.278775
0.52495
-0.0186315
0.0908801
0.0569494
-0.0311774
0.411589
0.208296
0.802875
0.610406
1.10062
0.9597
1.30862
1.21282
1.42471
1.37956
1.45047
1.44669
1.38918
1.43259
1.17541
1.30833
1.00696
-0.454609
-0.0963845
-1.11968
-0.805262
-1.56162
-1.37805
-1.64054
-1.64655
-1.37554
-1.55067
-0.836564
-1.13701
-0.139443
-0.492162
0.517567
0.200597
1.01634
0.796264
1.29628
1.18387
1.28028
1.3027
-2.17077
-1.91685
1.40576
1.35241
1.24041
1.37618
1.30765
1.56113
1.4411
-2.40928
-1.36046
-2.88348
-0.652529
-3.32677
0.0739377
-3.57207
0.690765
-3.2123
1.07667
-2.05584
1.78785
-0.43601
1.49121
1.73927
1.76919
1.87522
1.90821
0.851436
1.53781
1.63243
1.44731
0.8292
1.41656
-2.15394
1.10258
1.17101
0.960057
1.03819
0.883866
0.912187
0.925848
0.892083
1.06588
0.98505
1.23655
1.14979
1.37942
1.31207
1.48403
1.4354
1.55961
1.5234
1.6158
1.59085
1.65332
1.63605
1.66776
1.66298
1.66189
1.66624
1.66277
1.65912
1.70133
1.6767
1.78395
1.73766
1.8944
1.84036
1.96704
1.93913
1.97354
1.97624
1.95944
1.96677
1.94935
1.95528
1.89641
1.93204
1.76917
1.83871
1.67479
1.52689
1.6364
1.38367
1.44259
1.32427
1.34401
1.33116
1.32038
1.37964
1.35152
1.44908
1.41438
1.49113
1.4745
1.50005
1.49967
1.47864
1.49376
1.41603
1.45511
1.27286
1.35938
1.01521
1.15714
0.766411
0.879056
0.634174
0.687714
0.624092
0.612355
0.792763
0.692198
1.01851
0.905084
1.20392
1.11637
1.33945
1.27585
1.42043
1.38735
1.43218
1.43403
1.3732
1.42205
1.18259
1.30562
1.03338
-0.196433
0.130392
-1.06927
-0.612418
-1.89543
-1.50776
-2.27229
-2.16414
-2.03366
-2.22023
-1.37187
-1.74343
-0.531175
-0.9604
0.309456
-0.0986847
0.941779
0.661252
1.31133
1.16057
1.43677
1.39536
1.45023
1.33764
1.36504
1.2706
1.33158
-2.54915
-1.9444
-3.27209
-1.41898
-4.20774
-0.716969
1.18808
-4.98906
0.0775182
-5.25115
0.617429
-4.35272
1.08264
1.93345
1.85805
1.85087
1.93887
-2.21056
1.68602
2.02368
0.0184644
1.31107
1.92889
1.38318
1.23426
1.40453
0.526096
0.221575
1.15436
1.23497
0.439049
-2.37847
1.21745
1.33183
1.27649
1.12493
1.16745
1.04111
1.08028
0.995718
1.01109
1.02385
0.999638
1.12374
1.06436
1.2545
1.18524
1.37404
1.31592
1.46915
1.42489
1.53925
1.50771
1.59403
1.56291
1.63628
1.61693
1.6647
1.65111
1.69012
1.67744
1.7156
1.70274
1.7531
1.73194
1.82568
1.78381
1.92
1.87417
1.97426
1.95449
1.97417
1.97907
1.95477
1.96485
1.93162
1.94514
1.87083
1.90821
1.75453
1.81827
1.58003
1.67482
1.38638
1.47943
1.14385
1.23501
1.30541
1.76175
1.82094
1.62397
1.69211
1.48216
1.55105
1.40934
1.43242
1.42853
1.41209
1.45921
1.44629
1.48929
1.47351
1.5124
1.50288
1.51556
1.5167
1.49345
1.50853
1.43858
1.47143
1.32671
1.39164
1.16172
1.24601
1.04981
1.09485
0.995066
1.02072
0.96651
0.975837
1.03001
0.989766
1.15014
1.08756
1.269
1.21311
1.35745
1.31745
1.40631
1.38557
1.40083
1.4092
1.33234
1.37736
1.17829
1.26975
0.885165
1.04384
0.695956
-0.624151
-0.152519
-1.7477
-1.171
-2.75206
-2.29389
-3.05186
-3.01838
-2.48804
-2.86207
-1.42571
-1.99176
-0.295364
-0.846471
0.642366
0.205341
1.26899
1.00176
1.55882
1.45187
1.57923
1.58885
1.51294
1.55305
1.45987
-3.2931
-2.23061
1.17415
1.31956
1.28162
-4.63784
-1.6868
1.12369
-6.16438
-0.870519
-7.25021
0.040283
1.04607
1.79364
1.73939
1.64881
1.6822
-7.07653
0.449686
1.87887
-4.97514
1.01603
1.04763
1.03303
2.06273
-1.57722
1.41552
2.1294
0.816413
1.10094
1.87714
1.2834
1.35629
1.29803
1.4321
0.620395
0.556711
1.36175
-2.90617
1.20296
1.24716
1.13566
1.16447
1.08502
1.10617
1.062
1.0683
1.08713
1.06875
1.16358
1.11959
1.26719
1.21255
1.36966
1.31926
1.45674
1.41546
1.52656
1.49436
1.5837
1.55575
1.62923
1.60815
1.66135
1.64633
1.6881
1.67439
1.72323
1.70366
1.77832
1.74864
1.84952
1.81158
1.91452
1.88243
1.95558
1.93949
1.95904
1.96162
1.93857
1.95037
1.90818
1.92516
1.84908
1.88398
1.74384
1.8019
1.59803
1.67516
1.44014
1.5172
1.37314
1.79501
1.78648
1.7483
1.78083
1.64268
1.69989
1.54419
1.58704
1.49648
1.51559
1.48389
1.48668
1.48977
1.48536
1.5102
1.4986
1.52702
1.52083
1.52525
1.52825
1.5017
1.51603
1.45257
1.47986
1.36835
1.41456
1.26942
1.31556
1.21843
1.23633
1.19152
1.20678
1.16083
1.17338
1.17439
1.16248
1.2306
1.19992
1.29749
1.26718
1.35198
1.33091
1.3787
1.37076
1.36246
1.37397
1.29473
1.32666
1.15953
1.2207
0.928744
1.03998
0.785031
-0.0179768
0.485004
0.288164
-1.01815
-0.46701
-2.37734
-1.66472
-3.61001
-3.06279
-3.85271
-3.88805
-2.9637
-3.52274
-1.52616
-2.27063
-0.130415
-0.796862
0.906805
0.442277
1.50061
1.25981
1.71538
1.64222
1.6891
1.72363
1.58822
1.63742
1.52059
1.11274
1.25571
-4.49559
-2.79736
0.91485
-6.63498
-2.06208
1.52926
1.54443
1.43931
1.39337
-8.75861
-1.02022
0.91106
1.52722
-9.65853
-0.0207395
1.7395
-8.09032
0.277149
0.936461
0.886306
2.00028
-4.32585
0.945056
0.882598
2.21974
-0.40843
0.974271
2.23389
1.65954
1.2974
0.575072
1.05432
1.23572
-3.80016
1.23421
1.24728
1.24733
1.18674
1.2116
1.14167
1.16123
1.11014
1.12217
1.10257
1.10166
1.12931
1.11169
1.19219
1.15689
1.27719
1.23274
1.36573
1.32153
1.44488
1.40683
1.51165
1.48027
1.56824
1.5414
1.61553
1.59319
1.65491
1.63565
1.69079
1.67271
1.72737
1.7084
1.77383
1.74867
1.83343
1.80345
1.89782
1.8698
1.93013
1.9177
1.93342
1.93504
1.91565
1.92635
1.88389
1.90175
1.8287
1.86038
1.73753
1.78755
1.61737
1.67976
1.49104
1.55242
1.40016
1.43822
1.37405
1.3788
1.23172
1.39981
1.38091
1.70376
1.63554
1.75394
1.74198
1.72087
1.74685
1.65609
1.68891
1.58918
1.62376
1.53169
1.55661
1.51419
1.51758
1.51853
1.51557
1.52723
1.5225
1.53382
1.53195
1.52727
1.5324
1.50339
1.5175
1.46196
1.48465
1.40229
1.43366
1.34383
1.36953
1.31631
1.32531
1.29485
1.30635
1.26536
1.27681
1.25773
1.25758
1.27897
1.26459
1.31119
1.29761
1.33551
1.32988
1.34054
1.34555
1.31391
1.33234
1.24145
1.28138
1.11223
1.18753
0.926592
1.04044
0.70824
0.83949
0.633495
-0.261654
0.0873992
-1.37125
-0.754725
-2.939
-2.10202
-4.34946
-3.73911
-4.52264
-4.62313
-3.3666
-4.07587
-1.6257
-2.5123
-0.0340849
-0.783431
1.08316
0.592143
1.67711
1.44076
1.84433
1.80058
1.77088
1.82883
1.62855
1.69571
1.43886
1.54803
1.28841
1.35519
0.794965
-6.21124
-3.5595
1.23129
0.221375
1.32694
1.25068
-9.18795
-2.38433
1.43302
1.27071
0.666792
1.34928
-11.4386
-1.16264
1.027
1.53953
-10.9781
-0.0966714
0.833198
0.699341
1.83191
-7.25188
0.0685241
0.715146
2.1906
-2.31821
0.802271
0.68594
2.43828
1.0619
0.493068
2.28636
1.48916
1.59513
1.6293
1.2239
1.14997
-5.04211
1.20695
1.14715
1.19322
1.18856
1.1991
1.1621
1.17283
1.13885
1.14919
1.12427
1.12924
1.12768
1.12265
1.15632
1.1391
1.21128
1.18161
1.2842
1.24657
1.36197
1.32322
1.43473
1.39943
1.49851
1.46799
1.55372
1.52746
1.60073
1.57838
1.64129
1.62126
1.68012
1.66028
1.7225
1.70029
1.77009
1.74579
1.82138
1.79529
1.8695
1.84669
1.90009
1.88763
1.90528
1.90583
1.88933
1.89933
1.85922
1.87599
1.8102
1.83791
1.7335
1.7752
1.63626
1.68636
1.53662
1.58441
1.47283
1.49823
1.46711
1.46246
1.51622
1.48569
1.55364
1.39669
1.2541
1.31599
1.56435
1.48208
1.6822
1.63234
1.7201
1.71105
1.7007
1.71469
1.6603
1.68348
1.5992
1.63055
1.55541
1.57323
1.53823
1.54458
1.53235
1.53479
1.53208
1.53153
1.5332
1.53335
1.52421
1.53013
1.50214
1.51484
1.46786
1.48622
1.42518
1.44707
1.38615
1.40378
1.36615
1.37408
1.34551
1.357
1.31668
1.3303
1.29762
1.30163
1.29826
1.29624
1.30979
1.30502
1.31791
1.31689
1.30853
1.31762
1.27142
1.29474
1.19689
1.24089
1.08178
1.14624
0.929336
1.01147
0.757408
0.840117
0.571965
0.658097
-0.406017
-0.0453456
-1.58657
-0.921856
-3.28188
-2.38228
-4.77942
-4.13595
-4.93021
-5.05747
-3.61032
-4.41678
-1.67204
-2.65101
0.037511
-0.760466
1.19902
0.694254
1.76597
1.54898
1.89132
1.86953
1.79984
1.86306
1.63243
1.71665
1.42721
1.54259
1.26494
1.33785
1.20278
1.11834
-8.3278
-4.35471
1.55417
1.61161
1.6716
0.501029
1.08203
1.36008
0.465074
1.16406
-11.6683
-2.45431
1.07378
1.31005
-12.9121
-1.07554
0.78968
0.416106
1.58046
-10.1294
-0.316372
0.570828
2.00589
-4.55535
-0.145771
0.430384
0.456843
2.46816
0.166794
0.372458
2.63845
2.22876
1.24223
0.960817
1.01533
-6.48691
1.15077
1.13977
1.15001
1.15128
1.13875
1.14226
1.13022
1.13414
1.12862
1.12859
1.14125
1.1333
1.1731
1.15545
1.22405
1.19735
1.28844
1.25549
1.35798
1.32336
1.42498
1.39213
1.48558
1.45613
1.53938
1.51333
1.5864
1.56373
1.62813
1.60755
1.66741
1.64767
1.70815
1.68706
1.75343
1.73023
1.80064
1.77725
1.84237
1.82357
1.86719
1.85698
1.87419
1.8729
1.86331
1.871
1.83608
1.85143
1.79363
1.81717
1.7312
1.76478
1.65434
1.69399
1.57963
1.61438
1.53999
1.55373
1.54676
1.53759
1.60155
1.56936
1.66398
1.63526
1.57107
1.65104
1.7471
1.69422
1.45174
1.35767
1.39341
1.58146
1.51761
1.67099
1.63441
1.69462
1.68931
1.68385
1.69202
1.65098
1.67039
1.60438
1.62758
1.56929
1.58499
1.54787
1.55726
1.53709
1.54158
1.53267
1.53439
1.52932
1.5314
1.51844
1.52476
1.4982
1.5093
1.46948
1.48448
1.43685
1.45326
1.40808
1.4212
1.39051
1.39832
1.36816
1.38057
1.33772
1.35329
1.31471
1.3248
1.30524
1.31025
1.30326
1.30578
1.29728
1.30124
1.2763
1.28698
1.23051
1.25469
1.15526
1.19537
1.04981
1.10786
0.916985
0.985048
0.764056
0.837577
0.603874
0.678621
0.205378
0.403082
-0.397071
-0.0290109
-1.63495
-0.934779
-3.34968
-2.46755
-4.8781
-4.20849
-4.97645
-5.13134
-3.59827
-4.43887
-1.62945
-2.61637
0.0835378
-0.714892
1.24692
0.739394
1.81804
1.60121
1.92024
1.91763
1.77764
1.86384
1.58424
1.67825
1.39299
1.5045
1.23572
1.31513
1.15944
1.48419
0.0777635
0.984235
-10.2606
-4.93397
1.02075
1.35492
1.20227
1.06716
-12.9776
-2.62699
0.923212
1.74734
1.83864
0.845295
1.14091
0.988951
0.13423
1.28149
-11.9985
-1.104
0.500842
1.66239
-7.12254
-0.774538
0.0922768
0.236031
2.24999
-1.26667
-0.357995
0.111102
2.7398
2.16592
-0.331117
1.49444
1.58541
2.89012
1.67938
0.759825
0.834307
-7.70328
1.09942
1.07334
1.11347
1.10965
1.11609
1.11469
1.11941
1.11783
1.12855
1.12401
1.14837
1.13778
1.18247
1.16421
1.23117
1.20574
1.29027
1.26004
1.35369
1.32192
1.41573
1.38507
1.47314
1.44497
1.52494
1.49968
1.57114
1.54862
1.61314
1.59247
1.65306
1.63314
1.69306
1.67279
1.73432
1.71354
1.77618
1.75541
1.8135
1.7963
1.83672
1.82723
1.84342
1.84203
1.83606
1.84139
1.81465
1.82713
1.77918
1.79861
1.73024
1.75626
1.67101
1.70142
1.61799
1.64177
1.5987
1.6032
1.615
1.60161
1.67054
1.63877
1.7269
1.70142
1.81534
1.75522
1.38851
1.28117
1.48013
1.44135
1.44787
1.50309
1.46376
1.59754
1.54997
1.66397
1.63694
1.67811
1.67647
1.66501
1.67315
1.64059
1.65444
1.60383
1.62321
1.57138
1.5861
1.55024
1.55987
1.53685
1.54279
1.52876
1.53231
1.52176
1.52541
1.5098
1.51628
1.49132
1.5011
1.46692
1.47939
1.44065
1.45379
1.41679
1.42814
1.3975
1.40692
1.37411
1.38684
1.34554
1.36038
1.32081
1.33324
1.30254
1.31202
1.28919
1.29611
1.27268
1.2808
1.24349
1.25802
1.19352
1.2197
1.11968
1.15889
1.02073
1.07298
0.899822
0.961289
0.762886
0.830378
0.631204
0.694577
0.535154
0.587462
0.287942
0.473253
0.437355
-0.259753
0.096844
-1.47831
-0.791268
-3.11947
-2.28765
-4.46276
-3.88664
-4.5962
-4.71416
-3.35174
-4.11543
-1.51919
-2.44435
0.106912
-0.654045
1.22133
0.734915
1.76887
1.56146
1.87627
1.86641
1.73886
1.82551
1.53287
1.63361
1.35457
1.44288
1.19577
1.27858
1.01546
1.10193
0.964301
1.36434
0.82986
-11.0451
-5.02056
0.966816
1.90008
0.485508
0.994146
1.47301
1.35305
1.22775
1.07448
-0.346779
0.950488
-11.8925
-2.55098
0.551357
1.24567
-8.96152
-1.36193
-0.2448
1.59131
0.120623
1.78168
-3.48797
-1.33381
-0.168449
2.53961
1.40186
-0.790981
-0.260596
3.15365
3.30373
1.88012
0.498105
0.778328
0.509973
1.80759
0.613526
-8.06183
1.04599
1.00912
1.07865
1.06605
1.09327
1.08643
1.10638
1.09972
1.12426
1.11522
1.1506
1.13689
1.18732
1.16816
1.23442
1.21011
1.28958
1.26149
1.34834
1.31891
1.40646
1.37771
1.46113
1.43423
1.51106
1.48663
1.55613
1.53404
1.59748
1.57712
1.63673
1.61719
1.67554
1.65606
1.71435
1.69496
1.75193
1.73351
1.78423
1.76921
1.80611
1.79679
1.81468
1.81212
1.80991
1.81388
1.79343
1.803
1.76589
1.78099
1.72883
1.74843
1.68501
1.70718
1.65124
1.66538
1.64496
1.64446
1.66985
1.65292
1.72753
1.69594
1.78422
1.75689
1.87591
1.81906
1.99515
2.03469
1.94972
1.94787
1.45294
1.35344
1.5554
1.60452
1.53495
1.51554
1.52534
1.54889
1.52509
1.61184
1.57967
1.6592
1.63995
1.66473
1.66677
1.6498
1.65778
1.62975
1.64111
1.5977
1.61481
1.56819
1.58171
1.54767
1.55728
1.53205
1.53928
1.52121
1.52603
1.51173
1.51644
1.49905
1.50565
1.48239
1.49096
1.46081
1.47179
1.43794
1.44947
1.41615
1.42674
1.39622
1.40619
1.3724
1.38537
1.34369
1.35899
1.31613
1.33038
1.29314
1.30455
1.27313
1.28265
1.24867
1.26051
1.21257
1.23123
1.15928
1.18816
1.08682
1.12575
0.993957
1.0421
0.882409
0.938788
0.761049
0.821309
0.647521
0.703061
0.545199
0.597762
0.498698
0.440523
0.468976
0.454413
0.355739
0.425237
-0.0759479
0.222766
-1.13737
-0.54021
-2.5583
-1.83783
-3.74348
-3.22804
-3.91808
-3.99136
-2.89835
-3.52804
-1.34985
-2.13991
0.0879222
-0.59271
1.1214
0.663058
1.66876
1.45535
1.79333
1.77514
1.67318
1.74839
1.48834
1.58058
1.30898
1.39817
1.14357
1.22753
0.971794
1.05028
0.8807
0.920441
1.18655
0.884131
0.171073
0.327582
0.637449
-1.05327
0.186442
0.626392
-10.0599
-4.593
0.715866
0.801638
-9.13689
-2.5242
2.09997
2.12746
-0.895481
1.73968
2.01524
1.96362
1.61951
1.66341
0.452634
0.47888
0.450395
0.84297
0.837907
0.796
0.165607
1.23019
-5.50448
-1.96356
1.15621
1.31812
-0.340048
1.97365
-0.551075
-1.90541
-0.715955
-0.633373
-0.277601
-0.0806706
3.01764
3.0362
-1.63697
3.75899
0.358619
-7.27738
0.925757
0.885753
0.996843
0.962875
1.04224
1.02332
1.06981
1.05701
1.09263
1.08129
1.11767
1.10488
1.14881
1.13267
1.18795
1.16771
1.23474
1.21078
1.28736
1.26068
1.34256
1.31492
1.39726
1.37017
1.44934
1.42366
1.49756
1.47392
1.54146
1.51992
1.58192
1.56201
1.62001
1.60111
1.65703
1.6386
1.69306
1.67516
1.72745
1.71062
1.7567
1.74302
1.77666
1.76801
1.78648
1.78284
1.78536
1.7874
1.77346
1.78052
1.75385
1.76451
1.72731
1.74143
1.69729
1.71199
1.67972
1.68593
1.68318
1.67894
1.71406
1.69422
1.77323
1.7419
1.83728
1.80469
1.93051
1.87748
2.07039
1.99525
2.06194
1.34126
1.04471
1.20496
1.53555
1.44855
1.66726
1.60722
1.57598
1.58954
1.59058
1.57787
1.62657
1.60768
1.65537
1.64358
1.65453
1.6586
1.63795
1.6467
1.61768
1.62867
1.58902
1.60427
1.56103
1.57408
1.54078
1.55033
1.52375
1.53183
1.51103
1.51674
1.5001
1.50547
1.48684
1.49369
1.46947
1.47881
1.45142
1.4611
1.43117
1.44141
1.41093
1.42102
1.38984
1.40072
1.36477
1.37813
1.33605
1.35116
1.3079
1.32218
1.28143
1.29443
1.25534
1.26797
1.22457
1.24
1.18375
1.20532
1.12878
1.15847
1.05759
1.09535
0.969145
1.01477
0.866062
0.918373
0.756319
0.811112
0.650368
0.702604
0.553451
0.600109
0.512707
0.438027
0.448402
0.393381
0.421755
0.114928
0.323012
-0.683289
-0.230642
-1.7946
-1.22194
-2.77964
-2.34503
-3.00376
-3.01078
-2.32605
-2.75885
-1.16053
-1.77134
0.0171212
-0.549963
0.91866
0.512318
1.43708
1.22541
1.62731
1.56654
1.58655
1.62642
1.44191
1.5199
1.25731
1.35369
1.08336
1.16579
0.937436
1.0038
0.883677
0.949632
0.8333
-0.23618
0.355346
-7.91228
-4.08452
2.15218
-1.77806
1.91133
1.71728
0.479538
0.443941
0.803268
0.755552
0.341832
0.662198
-6.32005
-2.81365
1.47115
-0.361823
1.23766
-2.93823
-2.9024
0.907007
1.11788
-1.53953
-0.955597
-0.870334
-0.617562
2.36742
1.29267
-2.8127
-1.26185
3.68204
4.01518
0.601606
0.266788
-0.00369028
-5.94768
0.888652
0.847856
0.958206
0.926016
1.00885
0.985268
1.04598
1.02844
1.0776
1.06204
1.10933
1.09325
1.14492
1.12666
1.186
1.16491
1.23258
1.20881
1.28342
1.2577
1.33615
1.30974
1.38828
1.36246
1.43795
1.41348
1.48439
1.46159
1.52699
1.5061
1.56635
1.54698
1.60316
1.58496
1.63834
1.62091
1.67185
1.6553
1.70321
1.68788
1.73003
1.71742
1.74912
1.74068
1.75976
1.75551
1.76135
1.76174
1.75462
1.75884
1.74211
1.74898
1.72488
1.73402
1.70745
1.71543
1.70291
1.703
1.71558
1.70716
1.75113
1.72979
1.81121
1.77918
1.8832
1.8457
1.97716
1.9266
2.10417
2.03688
2.23895
2.25676
2.17882
2.20345
2.22207
2.14774
2.18003
-2.61485
2.08399
2.11499
1.46542
1.23807
1.3591
1.62523
1.55287
1.73442
1.68552
1.76138
1.81601
1.77781
1.67351
1.7132
1.62745
1.64452
1.62508
1.622
1.64088
1.63238
1.65301
1.64839
1.64685
1.65253
1.62722
1.63763
1.60551
1.61671
1.57834
1.59269
1.55135
1.56408
1.53078
1.54054
1.51305
1.52152
1.49895
1.5054
1.4869
1.49282
1.47318
1.48028
1.4574
1.46554
1.4406
1.44937
1.42192
1.43144
1.40188
1.41205
1.37992
1.39127
1.35471
1.36805
1.32606
1.34099
1.29635
1.31136
1.26706
1.28153
1.23663
1.25172
1.20154
1.21964
1.15764
1.18102
1.10157
1.13145
1.03132
1.06794
0.946489
0.990046
0.849937
0.8993
0.748083
0.799238
0.648216
0.697305
0.558883
0.601145
0.519138
0.439
0.413649
0.425249
0.45825
0.450391
0.452033
0.453097
0.315754
0.42303
-0.178197
0.114684
-0.972838
-0.549109
-1.77218
-1.40579
-2.08189
-2.00786
-1.7453
-1.98605
-0.974977
-1.39242
-0.105954
-0.535266
0.64174
0.292496
1.14158
0.925199
1.38353
1.29126
1.43273
1.426
1.35817
1.40829
1.19181
1.28322
1.02204
1.10044
0.895295
0.954099
0.791799
0.840803
0.70539
0.746141
0.616443
1.08716
-0.805981
0.0664716
-5.97691
-3.94603
1.64596
-0.174263
0.483073
-4.55068
-3.62986
1.29836
2.32746
2.33672
1.80014
1.85071
-2.71939
0.391859
0.403659
0.374512
0.668275
0.651202
0.613721
-1.05611
-0.121753
1.38789
-1.4023
-4.26861
0.54755
0.819167
-1.7445
-2.20661
3.01762
2.39613
-4.40352
-1.71384
-1.37429
4.3204
2.0495
2.25404
2.24502
0.908109
0.679928
-0.468104
-5.00041
1.84574
0.766089
0.718717
0.852718
0.810688
0.923989
0.890653
0.979025
0.953674
1.02325
1.00208
1.06198
1.04303
1.09941
1.08064
1.13902
1.11888
1.18216
1.16018
1.22895
1.2052
1.27847
1.25352
1.32913
1.30378
1.37916
1.35434
1.42701
1.40343
1.47174
1.44979
1.51302
1.4928
1.55099
1.53234
1.58643
1.56897
1.61973
1.60332
1.65097
1.63559
1.67984
1.66576
1.7044
1.69282
1.72271
1.71434
1.73449
1.72949
1.73855
1.73747
1.73645
1.73807
1.73044
1.73386
1.72144
1.72616
1.71523
1.7173
1.72123
1.71647
1.74208
1.72963
1.78298
1.75978
1.84387
1.81132
1.92121
1.8805
2.01767
1.96684
2.13706
2.07422
2.27546
2.20475
2.30769
2.31741
2.2777
2.29381
2.26487
1.44149
1.23774
1.34654
1.59838
1.52486
1.71847
1.66251
1.80548
1.7645
1.87412
1.84159
1.7193
1.75582
1.67225
1.69136
1.65598
1.66125
1.65385
1.65412
1.65246
1.65381
1.64026
1.64817
1.61758
1.62945
1.59352
1.60569
1.5666
1.58048
1.5399
1.55275
1.51854
1.52857
1.50044
1.50918
1.48504
1.49223
1.47216
1.47843
1.45867
1.46561
1.44404
1.45152
1.42823
1.43642
1.41039
1.4195
1.39077
1.40076
1.36889
1.38027
1.34325
1.35677
1.31413
1.32916
1.28342
1.29884
1.25198
1.26764
1.21853
1.23545
1.18022
1.20015
1.13392
1.15838
1.07677
1.10684
1.00733
1.04325
0.92563
0.967643
0.8341
0.880923
0.738201
0.786423
0.643102
0.689713
0.557692
0.599188
0.476013
0.516819
0.438133
0.439043
0.413122
0.505052
0.470241
0.551839
0.524412
0.519918
0.555529
0.268989
0.431122
-0.243062
0.0416243
-0.834788
-0.553153
-1.1898
-1.05247
-1.17547
-1.23163
-0.821667
-1.02969
-0.300473
-0.571686
0.241537
-0.0232504
0.707387
0.482948
1.06265
0.905754
1.22515
1.16707
1.22073
1.24148
1.09673
1.16774
0.953388
1.02217
0.835372
0.891345
0.735675
0.784157
0.691608
0.174529
1.11529
-1.64428
-0.291367
-5.03687
-4.40996
1.50074
2.23951
1.99813
2.34759
1.90334
-3.77405
0.393257
0.358624
0.633549
0.579972
-0.891878
0.410822
0.429552
-3.73073
-5.23584
1.02806
-2.01952
-3.5015
1.71971
-0.430116
-6.39976
-0.747353
-2.87599
3.21394
2.99625
2.24575
0.318626
1.56076
1.52679
-0.0419735
2.46028
2.50954
-1.10798
-4.8284
1.7432
0.732664
0.685172
0.818562
0.776992
0.892538
0.857488
0.952267
0.924017
1.00209
0.97812
1.04652
1.02477
1.08886
1.06778
1.13182
1.11016
1.17677
1.15402
1.22396
1.20013
1.27277
1.24826
1.32194
1.29738
1.37014
1.34622
1.41629
1.39352
1.45951
1.4383
1.49948
1.4799
1.53615
1.51819
1.57009
1.55341
1.60154
1.5861
1.63063
1.61634
1.65732
1.6443
1.68003
1.66928
1.69757
1.68939
1.71008
1.70452
1.71648
1.71399
1.7185
1.71786
1.71833
1.71861
1.71707
1.71766
1.72054
1.71766
1.7353
1.72643
1.76351
1.74747
1.80961
1.78428
1.87272
1.8392
1.95335
1.91069
2.05252
2.00095
2.16617
2.10721
2.29406
2.22888
2.42104
2.4291
2.36129
2.41357
2.41618
2.40956
2.41163
2.40685
2.40774
2.41882
2.40948
2.43268
1.64733
1.60157
1.73511
1.69211