/*--------------------------------*- C++ -*----------------------------------*\
  =========                 |
  \\      /  F ield         | OpenFOAM: The Open Source CFD Toolbox
   \\    /   O peration     | Website:  https://openfoam.org
    \\  /    A nd           | Version:  10
     \\/     M anipulation  |
\*---------------------------------------------------------------------------*/
FoamFile
{
    format      ascii;
    class       volScalarField;
    location    "23";
    object      p;
}
// * * * * * * * * * * * * * * * * * * * * * * * * * * * * * * * * * * * * * //

dimensions      [0 2 -2 0 0 0 0];

internalField   nonuniform List<scalar> 
6397
(
0.219958
0.201252
-0.0722234
-0.080274
-0.119849
-0.112873
0.401993
0.117484
-0.51836
-0.558373
0.410522
0.297813
0.00191181
0.00282959
-0.00333758
-0.278248
-0.267845
-0.287439
0.843439
0.77594
0.74605
-0.690906
-0.617912
-0.628478
0.00297385
0.00347612
0.00310572
-0.0825388
-0.0770219
-0.0970718
-0.0859066
-0.0530623
-0.0527152
-0.0847103
0.00610457
0.00122889
-0.0228914
-0.0257559
0.0338405
0.0358914
0.0245554
0.0210244
-0.111368
-0.153124
-0.134636
-0.102303
-0.143343
-0.130151
0.0455466
0.0452285
0.0462042
0.0453562
0.0452681
0.368533
0.358688
0.160681
0.172247
-0.00364855
-0.129794
-0.112216
-0.144888
-0.153189
-0.152209
-0.140312
-0.120964
-0.0994238
-0.0811979
-0.0680606
-0.122338
-0.0960203
-0.103067
-0.14335
-0.161865
-0.173156
-0.172056
-0.158716
-0.135861
-0.110699
-0.0890833
-0.0733079
-0.0882495
-0.0840597
-0.0603062
-0.0635549
-0.07847
-0.0771605
-0.0573752
-0.058826
-0.0735378
-0.0752078
-0.0594786
-0.0590951
-0.0726856
-0.0757143
-0.0676319
-0.0650719
-0.0680006
-0.0660935
-0.0649929
-0.0870308
-0.0752166
-0.126173
-0.104294
-0.171601
-0.150262
-0.184392
-0.184723
-0.144355
-0.169717
-0.0912933
-0.115874
-0.0611243
-0.0731629
-0.0523468
-0.0544253
-0.0553948
-0.0509651
-0.0643202
-0.0544853
-0.0580108
-0.0521286
-0.083927
-0.0686439
-0.118209
-0.101592
-0.129567
-0.128051
-0.110852
-0.122554
-0.0846279
-0.0967447
-0.0723142
-0.0759489
-0.0778595
-0.0730948
-0.0820309
-0.091384
-0.0704679
-0.0641546
-0.0775095
-0.0566221
-0.08194
-0.0740718
-0.0782667
-0.0449202
-0.0545425
-0.0995086
-0.0542835
-0.0569518
-0.116236
-0.083453
-0.0588852
-0.0547916
-0.0800304
-0.0671173
-0.121831
-0.0986026
-0.172322
-0.148126
-0.188318
-0.187771
-0.145697
-0.172919
-0.0876123
-0.114923
-0.0537169
-0.0675058
-0.0398777
-0.044867
-0.0396961
-0.0417722
-0.0464349
-0.0447516
-0.0413219
-0.0648914
-0.052622
-0.0939161
-0.0802896
-0.105371
-0.10399
-0.090627
-0.100898
-0.0707255
-0.0801701
-0.0646142
-0.0655788
-0.074831
-0.067732
-0.085616
-0.0908342
-0.103004
-0.0624071
-0.0776577
-0.100057
-0.108141
-0.0967366
-0.0213151
-0.0267259
-0.0664981
-0.0959366
-0.0848672
-0.134828
-0.117344
-0.128335
-0.135808
-0.0705353
-0.0462351
-0.0521914
-0.115281
-0.0963711
-0.107251
-0.0411664
-0.0427347
-0.0471464
-0.0424652
-0.0687856
-0.0555611
-0.110287
-0.0871685
-0.161948
-0.136909
-0.180615
-0.178845
-0.13866
-0.165608
-0.0793255
-0.107644
-0.0422379
-0.0578217
-0.0235151
-0.0313082
-0.0201037
-0.0454851
-0.0612631
-0.0310489
-0.0359046
-0.0312471
-0.0298028
-0.0454019
-0.0365112
-0.0691643
-0.0573028
-0.080273
-0.077631
-0.0697252
-0.0769106
-0.0559111
-0.0619993
-0.0543988
-0.0534125
-0.0682122
-0.0595414
-0.0806305
-0.104215
-0.117843
-0.0881754
-0.0336901
-0.142236
-0.120651
-0.156643
-0.175725
-0.0772112
-0.113267
-0.0794696
-0.0589539
-0.148196
-0.156927
-0.0874067
-0.107581
-0.0308513
-0.0349493
-0.0392809
-0.0404389
-0.0831444
-0.136345
-0.13718
-0.0272483
-0.0279455
-0.0338559
-0.0291796
-0.0544711
-0.042282
-0.0934413
-0.0715849
-0.143364
-0.118783
-0.163113
-0.160352
-0.122825
-0.148853
-0.0654368
-0.0927625
-0.0276631
-0.0438762
-0.00549431
-0.0152163
0.00309869
0.000932876
-0.00155729
0.00171659
-0.00233942
-0.00355219
-0.0656895
-0.127091
-0.0927075
-0.0325524
-0.0459913
-0.0194677
-0.0242158
-0.0182123
-0.0178592
-0.0271721
-0.0211888
-0.0451432
-0.0358331
-0.0553188
-0.0522088
-0.0484258
-0.0531489
-0.0398326
-0.0433366
-0.0420736
-0.0393215
-0.0573476
-0.0479357
-0.0704149
-0.11885
-0.135183
-0.0998837
-0.197327
-0.164945
-0.0363864
0.00235489
-0.180574
-0.145311
-0.039394
-0.157733
-0.0735861
-0.0933408
-0.215416
-0.124887
-0.196688
-0.228432
-0.0800957
-0.0276679
0.00834835
-0.128776
-0.169613
-0.015414
-0.0218197
-0.0183398
-0.0134117
-0.0132076
-0.0201936
-0.0155445
-0.0383067
-0.0275781
-0.0722945
-0.0531793
-0.117493
-0.0948541
-0.13752
-0.13389
-0.100201
-0.124644
-0.0464425
-0.0719315
-0.0109131
-0.0264099
0.0121694
0.00167776
0.0248866
0.0201364
0.0262061
0.0260301
0.0295827
0.0266352
0.0343074
0.0329311
-0.0931168
-0.151734
-0.123755
-0.0454072
-0.0663442
-0.0191255
-0.0301784
-0.00818259
-0.0122491
-0.00602546
-0.00637615
-0.0107825
-0.00732844
-0.0231817
-0.016502
-0.0306868
-0.0285667
-0.0277308
-0.0304292
-0.0232396
-0.0247684
-0.0277399
-0.0242934
-0.0436332
-0.0342912
-0.0567467
-0.210549
-0.166979
0.0113553
0.0320224
-0.149557
-0.114334
-0.178273
-0.169393
-0.167591
-0.176866
-0.131366
-0.151427
-0.0864812
-0.109287
-0.0427835
-0.0639468
-0.0240537
-0.215223
-0.163864
-0.241792
-0.125056
-0.236633
-0.0688802
-0.158736
-0.198257
-0.0180239
0.0267323
0.0103287
-0.00607262
-0.00799116
-0.197532
-0.0010106
-0.00340566
-0.000357277
0.000214385
-0.00690838
-0.0028473
-0.021804
-0.0130033
-0.0495319
-0.0339412
-0.0873761
-0.0681568
-0.106176
-0.102067
-0.073479
-0.0957412
-0.023859
-0.0472407
0.00776408
-0.00598122
0.0290862
0.0191728
0.0430798
0.0372324
0.0487339
0.0465013
0.052984
0.050793
0.050349
0.0531997
0.0375734
0.044746
-0.10264
-0.114662
-0.116567
-0.0598521
-0.0816336
-0.0257525
-0.0410022
-0.006515
-0.0148163
0.00250396
-0.000928673
0.00494616
0.00423952
0.00311642
0.00468403
-0.00448011
-0.000143137
-0.0104933
-0.00840748
-0.00908678
-0.0105501
-0.00750833
-0.0076353
-0.0137692
-0.0095607
-0.0289516
-0.0203492
-0.0575246
-0.0414639
-0.095821
-0.0755956
-0.114127
-0.19424
-0.169004
-0.185208
-0.180179
-0.191865
-0.139376
-0.161762
-0.0903941
-0.115022
-0.0443713
-0.066548
-0.128804
-0.0953353
0.0190163
0.0290007
-0.00855523
-0.0248621
-0.235442
-0.166994
-0.243621
-0.113999
-0.215841
-0.0539942
-0.155017
-0.0126428
-0.0551622
-0.0786847
0.00507437
0.0185301
0.00881769
-0.0233056
-0.00745592
0.0111217
0.0051586
0.0255039
0.0129401
0.00454606
-0.0073094
0.0057639
-0.213264
0.0073847
0.00559674
0.0113879
0.00969044
0.010882
0.0118365
0.0055283
0.00877949
-0.00596997
0.000771666
-0.0268846
-0.0151561
-0.0560063
-0.0410232
-0.0727106
-0.068191
-0.0457137
-0.065491
0.00033367
-0.0215243
0.0288446
0.0167343
0.0470209
0.0385761
0.0600042
0.0542323
0.0668864
0.0641215
0.0674891
0.0681671
0.0594904
0.0644586
0.0449409
0.0528378
0.036066
-0.0637196
-0.0479023
-0.0570697
-0.0656037
-0.030756
-0.0445775
-0.00884457
-0.0189516
0.00490776
-0.00108138
0.0120661
0.00922337
0.0144718
0.0136443
0.0144484
0.0147805
0.0106492
0.0130471
0.00623507
0.00803056
0.00639573
0.00582632
0.00608997
0.00682558
-0.000858098
0.00351055
-0.0151296
-0.00707616
-0.0398515
-0.0262585
-0.0729491
-0.0556366
-0.0889289
-0.177487
-0.151493
-0.20056
-0.192451
-0.18392
-0.197731
-0.14129
-0.164362
-0.0907447
-0.116159
-0.0441835
-0.0665444
-0.0242539
-0.230703
-0.159237
-0.217399
-0.0939885
-0.169887
-0.0413046
-0.0980484
-0.013256
-0.021386
-0.00407385
0.0478079
0.0410419
-0.0047243
-0.0020781
-0.0115881
0.0581719
0.0821412
0.0823789
-0.0196759
0.0057666
-0.00945304
-0.00548088
0.011099
0.0150496
0.0131271
-0.201741
0.0187448
0.0170916
0.0215207
0.0205556
0.0205569
0.0215184
0.016514
0.0188985
0.00822554
0.0130403
-0.00622614
0.00180545
-0.0262605
-0.0158822
-0.0394223
-0.0351562
-0.0188307
-0.0372642
0.0227018
0.00245662
0.0498129
0.0384545
0.0649857
0.0582218
0.0748692
0.0705402
0.0787666
0.0776363
0.0753953
0.0780773
0.0650005
0.0707898
0.0501854
0.0579902
0.0310512
0.0412908
0.0192261
0.00796506
0.0321261
-0.0216761
-0.0104868
-0.0219384
-0.0251619
-0.00806172
-0.0155041
0.00536189
-0.000969617
0.0147413
0.0105711
0.0202238
0.0179303
0.0224884
0.0216431
0.0233554
0.0230355
0.0222728
0.0231656
0.0195314
0.0208646
0.0186148
0.0188037
0.0171053
0.0182961
0.0104494
0.0145051
-0.00193822
0.00499429
-0.021642
-0.0107694
-0.0475896
-0.0342307
-0.0616676
-0.119681
-0.0851303
-0.171706
-0.148714
-0.193352
-0.186657
-0.178487
-0.190344
-0.137815
-0.160163
-0.0885557
-0.113317
-0.0427766
-0.0647317
-0.023083
-0.202376
-0.135402
-0.172047
-0.0736462
-0.114143
-0.0355353
-0.039693
-0.0198038
0.0329236
-0.0174806
0.0849213
-0.0232199
0.102137
0.110958
-0.0323773
-0.0263018
-0.0402202
0.00652674
-0.173687
0.0248231
0.0206025
0.0232599
0.0278226
0.0263126
0.0295199
0.0290104
0.0286003
0.0293977
0.0258684
0.0274674
0.0203558
0.0235157
0.0113749
0.0162897
-0.000383293
0.00562649
-0.00644384
-0.00526366
0.00854076
0.00101917
0.0407592
0.0238547
0.0658882
0.0551866
0.0785037
0.0732823
0.0845498
0.0821859
0.0848074
0.0854297
0.0788863
0.0826079
0.0678923
0.0738673
0.0533828
0.061013
0.0351666
0.0447969
0.0126314
0.0245101
-0.0141456
-0.000246674
0.0656573
0.0948812
0.0819544
0.0309703
0.0478936
0.00822292
0.0173822
0.00320761
0.0036646
0.00903698
0.00552146
0.016697
0.0129221
0.0228809
0.0200493
0.0269622
0.0251717
0.0290628
0.0282183
0.0302523
0.0296886
0.0307598
0.0306732
0.029683
0.0303833
0.0282431
0.0289128
0.0260052
0.0274051
0.0201937
0.0236353
0.0102592
0.0157591
-0.00404736
0.00369705
-0.0236164
-0.0133663
-0.0427283
-0.0341814
-0.0485874
-0.107712
-0.0483892
-0.0786304
-0.153472
-0.132723
-0.175437
-0.168499
-0.164264
-0.173685
-0.128933
-0.14869
-0.0839272
-0.106769
-0.040781
-0.0615891
-0.00551802
-0.0220265
0.0140684
0.00839091
0.115789
0.102746
-0.0445907
-0.0283738
-0.160825
-0.107243
-0.0256191
-0.122867
-0.0604663
0.0278621
0.0159476
0.0274657
-0.0630804
-0.0378994
0.0105494
-0.0325099
0.0790477
-0.0369544
0.120973
-0.0475025
0.13187
-0.0580019
0.104604
0.121723
-0.0636189
-0.0630711
-0.0423458
-0.137949
0.031654
0.0295602
0.034617
0.033236
0.0357713
0.0353779
0.035196
0.0354986
0.033544
0.0345073
0.0302672
0.0321084
0.0254633
0.0280253
0.020069
0.0226806
0.0190609
0.0184564
0.0307236
0.0235896
0.0547828
0.0419726
0.0755741
0.0664652
0.0857244
0.0817676
0.0889194
0.0879886
0.0869412
0.0885506
0.0800323
0.0840557
0.0692843
0.0750708
0.0555264
0.0627324
0.0387665
0.0474876
0.0187692
0.029116
-0.00375746
0.00776426
-0.0257553
-0.0149737
0.0871589
0.0905878
0.091155
0.0684592
0.0792844
0.0447051
0.0563831
0.0268443
0.0345046
0.0202015
0.022243
0.0215031
0.0202444
0.025521
0.0234074
0.0294473
0.0275823
0.0324057
0.0310528
0.034304
0.0334781
0.0356028
0.0349702
0.0367852
0.0362352
0.0370149
0.0370771
0.0359544
0.0366195
0.0335853
0.0349791
0.0288288
0.0315523
0.0213571
0.0254174
0.0117917
0.0167766
-0.000999185
0.0055388
-0.0178496
-0.00948418
-0.0234997
-0.0383309
-0.0157976
-0.0868359
-0.0633487
-0.128599
-0.109202
-0.150824
-0.14312
-0.144742
-0.151096
-0.116702
-0.13278
-0.0780129
-0.0979585
-0.0388364
-0.0579528
-0.00599686
-0.0214314
0.00707397
0.100204
0.0852243
-0.0553007
-0.0355924
-0.120369
-0.0853093
0.0351074
0.034386
-0.0830406
-0.0572084
-0.02421
-0.0482158
0.0499857
-0.0529458
0.11604
-0.0646472
0.147274
-0.0788794
0.14276
-0.0886039
0.119426
-0.0889706
0.0751785
0.0896254
-0.080755
0.0643894
0.0521031
0.0606342
0.0121642
-0.0660187
-0.0434881
-0.106637
0.0370323
0.0355943
0.039616
0.0385032
0.0405222
0.0402157
0.040407
0.0404525
0.0396476
0.0400932
0.0380813
0.0389317
0.0361966
0.0371399
0.0350383
0.035403
0.0376795
0.0356161
0.0480676
0.0419062
0.0656543
0.0564402
0.0810091
0.0741704
0.0885711
0.0857105
0.090025
0.0899108
0.0869047
0.0889896
0.0797963
0.08379
0.0695889
0.075046
0.0568606
0.0634989
0.0417629
0.0496047
0.0242887
0.0332571
0.00529471
0.0147393
-0.0123821
-0.00385982
-0.0258914
-0.0197755
0.0791552
0.0735417
0.0795036
0.0810238
0.0680716
0.0748996
0.0516016
0.0602335
0.0380084
0.0440165
0.0313896
0.0338682
0.0304203
0.0303952
0.0321718
0.0311237
0.0345578
0.0333648
0.0366918
0.0356742
0.0383694
0.0375896
0.0397192
0.0390563
0.0411149
0.0404118
0.042095
0.0417129
0.0419232
0.0421812
0.0402063
0.0412641
0.0367492
0.0386936
0.0316982
0.0343797
0.0258849
0.0288875
0.0173147
0.0221502
0.00448775
0.0107912
-0.00294909
-0.000196067
-0.00164408
-0.0240487
-0.00500033
-0.0642753
-0.0438064
-0.101986
-0.084287
-0.124295
-0.115806
-0.123831
-0.12685
-0.10384
-0.11581
-0.072452
-0.0889952
-0.0381882
-0.0552147
-0.00773911
-0.0221847
0.015906
0.005557
0.0327782
0.0237793
-0.0912632
-0.0746889
-0.0299569
-0.0492279
0.0395226
0.0309888
0.0358768
-0.0118754
-0.0147903
-0.0568889
-0.0634978
0.00295895
-0.0684729
0.0804467
-0.0840598
0.144472
-0.102779
0.162128
-0.118121
0.142873
-0.123091
0.108208
-0.114512
0.0369502
0.0335002
0.0193817
0.0195399
0.0728813
-0.0961808
0.0424692
0.0257597
0.018806
0.0278462
-0.0871242
0.0409461
0.0398763
0.0418853
0.0409101
0.043393
0.0426256
0.044175
0.0438459
0.0444479
0.0443112
0.0443582
0.044438
0.0440395
0.0441972
0.0440611
0.043972
0.0454083
0.0444789
0.0500169
0.0471754
0.0596389
0.0542139
0.0729092
0.0661394
0.0838805
0.0790211
0.0890816
0.087184
0.0893246
0.0897268
0.0856674
0.0879361
0.0787458
0.082561
0.0692236
0.0742777
0.0576232
0.0636529
0.044183
0.0511284
0.0289956
0.0367698
0.0130424
0.0209507
-0.00135597
0.00541725
-0.00717473
0.0565441
0.0460914
0.0699727
0.0645586
0.0724006
0.0725418
0.0657544
0.0699518
0.0546514
0.0602807
0.0444893
0.049204
0.0385239
0.0409479
0.0365831
0.0371536
0.037044
0.0366262
0.0384364
0.0376894
0.0399871
0.0392153
0.0414471
0.0407333
0.0428139
0.0421319
0.0442629
0.043524
0.0456134
0.0449858
0.0462019
0.046045
0.0455846
0.0460445
0.0437632
0.0448052
0.0410752
0.0424849
0.0379314
0.0396256
0.0315393
0.0354229
0.0210189
0.0262471
0.01608
0.017188
0.0164529
0.0187851
0.0285448
-0.00911238
0.00603654
-0.0434581
-0.025575
-0.0770186
-0.061047
-0.0995765
-0.0902441
-0.104611
-0.104375
-0.0925819
-0.100466
-0.0686331
-0.0816747
-0.0395168
-0.0543256
-0.0113973
-0.0249533
0.0121623
0.00135761
0.0192362
-0.0742239
0.032227
-0.0320565
-0.0160076
-0.0751014
-0.0751191
-0.0417241
-0.0810009
0.0219098
-0.102059
-0.0524549
0.104327
-0.128883
0.164747
-0.153111
0.164293
-0.164792
0.00446976
0.00807862
-0.00378991
-0.010384
0.131719
-0.158884
0.001015
0.0887529
-0.137499
0.021163
0.0510138
-0.108007
0.0287431
0.0416488
0.0377994
-0.0323578
-0.0159664
0.0417087
-0.0796717
0.0417805
0.0356024
0.0387678
0.0446024
0.0436727
0.0454375
0.0448102
0.0462437
0.0457302
0.0469587
0.0466042
0.0475047
0.0472485
0.0479089
0.047719
0.0484419
0.0481383
0.0496285
0.0489231
0.0522932
0.0507149
0.0576286
0.0545684
0.066245
0.0615656
0.0765246
0.0714024
0.0845669
0.0810452
0.0880972
0.0868859
0.087569
0.0882745
0.0837512
0.0860286
0.0772178
0.0807783
0.0684863
0.0730966
0.058024
0.0634424
0.0461403
0.0522451
0.0330746
0.0397274
0.0196812
0.0263062
0.00786973
0.0134533
-0.00033527
0.00313294
-0.00302745
-0.00245648
-0.0143849
-0.000777715
-0.00253425
0.0315193
0.0200769
0.0507279
0.0419088
0.0626803
0.057723
0.066293
0.0654912
0.0628809
0.0652827
0.0554364
0.0593807
0.0479311
0.0514989
0.0429143
0.0450539
0.0407294
0.0415202
0.0405104
0.0404458
0.0412877
0.0408249
0.0424452
0.0418426
0.0437271
0.0430775
0.0450764
0.0443917
0.0465419
0.0457934
0.048061
0.0473099
0.0491596
0.0486864
0.0495338
0.0494373
0.0492454
0.0494504
0.0485285
0.0489312
0.0469264
0.0479572
0.0416021
0.0449023
0.033271
0.0373675
0.0296932
0.0308013
0.0305166
0.0297636
0.0321061
0.0252461
0.0329034
0.00323973
0.0153753
-0.0257122
-0.0105576
-0.0555761
-0.0410277
-0.078678
-0.0684555
-0.088751
-0.0855441
-0.0841089
-0.088179
-0.067245
-0.0769246
-0.0431407
-0.0557345
-0.0176017
-0.0300841
0.00494656
-0.00589551
0.0190168
0.0128632
0.0240231
-0.0693228
-0.0869871
0.00261463
0.0105434
0.0140161
-0.0348252
-0.113674
-0.0793619
0.03519
-0.151739
0.122927
-0.189766
-0.0533592
-0.014792
-0.00634119
-0.0135258
-0.0241782
0.175716
-0.21494
-0.0244178
0.152688
-0.215258
-0.0111536
-0.0307561
-0.0176183
0.108936
-0.191962
-0.00184571
0.0628272
-0.15479
0.0249027
0.0389975
0.0325284
0.0360774
0.0245989
0.0403688
0.0432351
0.029329
-0.0830769
0.043996
0.0415498
0.0467864
0.04579
0.0477288
0.0472311
0.0483607
0.0479671
0.0490413
0.0486715
0.0497567
0.0494042
0.0505085
0.0501222
0.0515824
0.0509894
0.0534253
0.0523826
0.0566706
0.0548341
0.0620186
0.0590598
0.0695088
0.0655466
0.0775782
0.0736204
0.0836432
0.0810068
0.0861174
0.0853284
0.0852097
0.0860409
0.0814868
0.0836623
0.0754268
0.0787182
0.0675548
0.0717055
0.0582055
0.0630354
0.0477578
0.0530959
0.0365819
0.0422311
0.0254048
0.0309165
0.0158523
0.0202699
0.00936639
0.0120295
0.00767538
0.00792876
0.0084666
0.0116248
0.00220964
0.0304875
0.0212222
0.0463942
0.0390068
0.0569306
0.0524101
0.0611089
0.0598189
0.059626
0.0609799
0.0548774
0.05753
0.0494792
0.0521049
0.0454537
0.0472333
0.0433811
0.0441926
0.042871
0.0429751
0.0433022
0.0430062
0.0442094
0.0437173
0.0453576
0.0447611
0.0466692
0.0459955
0.0481353
0.0473831
0.0497039
0.0489202
0.0511168
0.0504508
0.052166
0.0516838
0.0529377
0.0525714
0.0534467
0.0532474
0.0526872
0.0533494
0.0484529
0.0510617
0.0420997
0.0452107
0.0386638
0.0401152
0.0382503
0.0382223
0.0391031
0.0401704
0.044198
0.0432051
0.0306299
0.0363372
0.0130172
0.0228684
-0.0113082
0.00152989
-0.0383114
-0.0248158
-0.0620817
-0.0510228
-0.0766033
-0.0707665
-0.0786961
-0.0792532
-0.0685696
-0.0750092
-0.0493929
-0.0597856
-0.0262672
-0.0379006
-0.00458941
-0.0152515
0.011804
0.00460611
0.0183087
0.00698471
0.0187569
-0.0738739
-0.113942
-0.115347
-0.0356015
-0.163831
-0.0188799
-0.00835579
-0.0104704
-0.022315
0.0445291
-0.218764
-0.0810486
-0.0313979
0.135894
-0.264344
-0.0366711
0.174108
-0.281985
-0.00697274
-0.0517868
-0.0353824
0.125288
-0.262754
-0.0278322
-0.0253849
0.0779684
-0.217117
-0.00379927
0.0308313
0.0334588
0.0445088
0.012212
0.024217
-0.0997072
0.0419032
0.0374706
0.039245
0.0458134
0.0438097
0.047995
0.047147
0.0490683
0.0485866
0.0497906
0.0493937
0.0505274
0.0501398
0.0513526
0.0509296
0.0523356
0.0518169
0.0537258
0.0529662
0.0558909
0.0546916
0.0592899
0.0574134
0.0643037
0.0615922
0.0707117
0.0673857
0.0771183
0.0740055
0.0818072
0.0797796
0.0836073
0.0830748
0.082565
0.08341
0.0790911
0.0810994
0.073605
0.0765709
0.0665341
0.0702432
0.0582426
0.0625159
0.049106
0.0537532
0.0395702
0.0443547
0.0303109
0.0348473
0.0225518
0.0261452
0.0176811
0.0196994
0.0167454
0.0166774
0.0201016
0.0178004
0.0283143
0.023627
0.0303719
0.0407852
0.0339243
0.0008087
-0.004609
0.0149957
0.00752572
0.030142
0.0226651
0.0432314
0.0370769
0.0524105
0.0483824
0.0567141
0.055203
0.0565931
0.0571829
0.0536572
0.0553723
0.0498516
0.0517441
0.0467416
0.0481532
0.0449579
0.0456849
0.0443851
0.0445465
0.0446455
0.0444374
0.0454037
0.0449798
0.0464585
0.0459024
0.047725
0.0470687
0.0491801
0.0484309
0.0507617
0.049966
0.0523305
0.05156
0.053765
0.0530622
0.0551045
0.0544404
0.0561898
0.0557122
0.0559249
0.0563246
0.0527517
0.0546992
0.0477995
0.0502764
0.044326
0.0456585
0.0428518
0.0432461
0.0433777
0.0428084
0.0436072
0.0425949
0.0449494
0.0349036
0.03938
0.0207475
0.0287399
2.55654e-05
0.0111079
-0.0248658
-0.0121413
-0.0493277
-0.0375076
-0.067874
-0.0596402
-0.0763282
-0.0735265
-0.0728875
-0.0760739
-0.0586939
-0.0669058
-0.0376253
-0.0487078
-0.0155488
-0.0265201
0.00408557
-0.00500967
0.0194484
0.0119133
0.0302776
0.0255093
-0.164383
-0.0902702
-0.158094
0.0346614
0.0463631
-0.0115581
-0.0242365
-0.0424716
-0.230488
0.0483826
0.0380441
-0.11708
-0.0364121
0.0512702
-0.298665
0.0181265
-0.0465699
0.140038
-0.342425
-0.0021018
-0.0792192
-0.05135
0.158207
-0.342878
-0.0237949
-0.0480567
0.094316
-0.297974
-0.0484981
-0.0337151
0.0395383
-0.231277
-0.00478163
0.0567807
0.0652423
0.0716394
-0.0114808
-0.00914453
-0.131837
0.0396382
0.0355058
0.0366565
0.0440062
0.0418971
0.0469738
0.045571
0.0487763
0.0480444
0.0498686
0.0494412
0.0506825
0.05028
0.0515036
0.051087
0.0524163
0.0519426
0.0535425
0.0529436
0.0550967
0.0542534
0.0573742
0.0561294
0.0606941
0.0588914
0.065235
0.0628184
0.0706712
0.0678911
0.0758372
0.0733451
0.079543
0.0779473
0.0808967
0.0805238
0.0798476
0.0806507
0.0766909
0.0785058
0.0717796
0.0744292
0.0654885
0.0687799
0.058185
0.0619394
0.0502416
0.054266
0.0421279
0.0461713
0.0344985
0.0382029
0.0283038
0.0311546
0.0248173
0.0261263
0.0245176
0.0241906
0.0282727
0.0258398
0.0365207
0.0319282
0.0486876
0.0419834
0.0567537
-0.000863959
0.00123577
-0.000591137
0.000496315
-0.000660111
0.00708874
0.00300249
0.0180446
0.012165
0.0301883
0.0241419
0.0410006
0.0358699
0.0488957
0.0454247
0.0531383
0.0515086
0.0538169
0.0538606
0.0521233
0.0531736
0.0495148
0.0508443
0.0471959
0.0482703
0.0457595
0.0463587
0.0452493
0.0454028
0.0454523
0.0452798
0.0461324
0.0457466
0.0471242
0.0465972
0.048348
0.0477108
0.0497723
0.0490382
0.0513447
0.0505474
0.0529721
0.0521587
0.0545845
0.0537798
0.0561565
0.0553778
0.0574173
0.0568613
0.0573778
0.0576348
0.054919
0.0564489
0.0508166
0.0529302
0.0473069
0.0487603
0.0453778
0.0462
0.0445792
0.0448807
0.0451813
0.044715
0.044536
0.046042
0.0385072
0.042082
0.0269623
0.0335596
0.00889435
0.01871
-0.0144885
-0.00229898
-0.0398085
-0.0271926
-0.0622956
-0.0517186
-0.0771125
-0.0709207
-0.0806308
-0.0804084
-0.0716437
-0.0776296
-0.0523856
-0.063076
-0.0283859
-0.0405497
-0.00500776
-0.0161647
0.0136527
0.00470837
0.027452
0.0213206
0.0323631
-0.0244532
-0.116535
-0.216859
0.0645906
0.0717872
0.0788057
0.0448788
0.0345933
0.0474171
-0.165894
-0.0392474
-0.0515834
-0.30754
0.0259381
-0.0535176
0.0554458
-0.378584
0.00388382
-0.114012
-0.0645599
0.133282
-0.407906
-0.0189836
-0.0687432
0.115087
-0.383196
-0.0746123
-0.044014
-0.062941
0.0490865
-0.31432
-0.0425218
-0.00460672
0.00688367
-0.0170371
-0.0224231
-0.176623
0.0416502
0.0397642
0.0452255
0.0438055
0.0476882
0.0467509
0.0491936
0.048613
0.0502902
0.049841
0.0511772
0.050752
0.0520627
0.0516119
0.0530483
0.0525347
0.0542571
0.0536141
0.055878
0.0550041
0.0581444
0.0569184
0.0612716
0.0595945
0.0653087
0.0631887
0.0698723
0.0675751
0.074155
0.072125
0.0771352
0.0758558
0.0781796
0.0779109
0.0771871
0.0779236
0.0743626
0.0759818
0.0700052
0.0723504
0.0644547
0.0673547
0.0580604
0.0613395
0.0511961
0.0546603
0.0443237
0.0477272
0.0380682
0.0410748
0.0332306
0.0354191
0.0307457
0.0316501
0.0312703
0.0305633
0.0353345
0.0327884
0.0435423
0.038954
0.055425
0.0490063
0.0700337
0.0627423
0.0683762
0.0796388
0.0850068
0.0770586
0.00735835
0.0109535
0.00817066
0.00798589
0.00734004
0.012485
0.00967101
0.0208171
0.0162861
0.0305001
0.0256505
0.0394399
0.0351581
0.0462177
0.0431626
0.0501562
0.0485483
0.0513045
0.051033
0.0504792
0.0510662
0.0487633
0.049665
0.0470963
0.0478818
0.0460082
0.046467
0.045623
0.0457342
0.0458342
0.0456664
0.0464803
0.0461138
0.0474308
0.0469246
0.0486133
0.0479967
0.0499917
0.0492806
0.0515356
0.0507479
0.0531586
0.052343
0.0548103
0.0539819
0.0564082
0.0556251
0.0576161
0.0570961
0.0576024
0.0578187
0.0555792
0.0568395
0.0521233
0.053931
0.048811
0.0503332
0.0465431
0.0475463
0.0452876
0.0457948
0.045188
0.0451728
0.0469416
0.0461964
0.046093
0.0469667
0.0416233
0.0443904
0.0319982
0.0375852
0.0158156
0.0247366
-0.00664895
0.00527493
-0.0331807
-0.019628
-0.059745
-0.0467682
-0.0811511
-0.0714271
-0.0920899
-0.0882155
-0.0887016
-0.0922952
-0.0711656
-0.0815385
-0.0442615
-0.0583423
-0.0158917
-0.0296532
0.00734372
-0.00351832
0.024355
0.0167309
0.0301306
0.0586714
-0.2316
-0.040349
-0.146828
-0.283311
0.0387341
0.0163983
0.0368401
-0.0574833
-0.0578635
-0.381612
0.0391639
0.0911224
0.0954894
0.0125047
0.00551752
-0.0058159
-0.160333
-0.0744463
0.0530783
-0.440813
-0.0126852
-0.0863556
0.105998
-0.444553
-0.107504
-0.0389002
-0.0897578
0.0608996
-0.394768
-0.0685186
-0.0802195
-0.00544797
-0.309944
0.0633607
0.0759865
-0.0525062
0.0877451
-0.0332842
-0.0392688
-0.226909
0.0428161
0.0409507
0.0459753
0.044624
0.0480495
0.0470977
0.0493872
0.0487701
0.0504256
0.0499382
0.0513488
0.0508923
0.0522848
0.0518054
0.0533267
0.0527841
0.0545827
0.0539178
0.0562141
0.0553408
0.0584051
0.0572307
0.0612961
0.0597615
0.0648617
0.0630089
0.0687565
0.0668054
0.0723098
0.0706521
0.0747424
0.0736993
0.0755625
0.0753652
0.0746511
0.0753138
0.0721478
0.0735804
0.0683097
0.0703739
0.0634438
0.0659832
0.057878
0.0607253
0.0519813
0.0549455
0.0461955
0.049043
0.0410997
0.0435218
0.0373977
0.0390312
0.0358093
0.0363074
0.0369233
0.0359985
0.041349
0.0386684
0.0492552
0.0448188
0.0606235
0.0545141
0.0740602
0.0673108
0.0893418
0.0809268
0.0240429
0.0158899
0.0310456
0.0188057
0.0240502
0.0144621
0.0158288
0.0142251
0.0139803
0.0170652
0.0151411
0.0233418
0.0198933
0.0310216
0.0271367
0.0383375
0.0348083
0.0440937
0.0414588
0.0476754
0.0461619
0.0490723
0.0486161
0.0488381
0.049105
0.0477819
0.0483607
0.0466392
0.0471861
0.0458684
0.0461933
0.0456276
0.0456834
0.0458792
0.0456999
0.0465158
0.0461578
0.0474367
0.0469468
0.0485773
0.0479831
0.0499043
0.0492196
0.0513986
0.0506335
0.0529772
0.052187
0.0545836
0.053779
0.0560932
0.0553644
0.0571443
0.0567089
0.0570616
0.0572863
0.0553123
0.0563903
0.0523343
0.0539073
0.049246
0.0507392
0.0468364
0.0479294
0.0453653
0.0459503
0.0446406
0.0449329
0.0434802
0.04399
0.0469425
0.0442073
0.0456011
0.0472763
0.0475751
0.0441555
0.0462203
0.0359784
0.0408287
0.0210689
0.0294116
-0.00105072
0.0108745
-0.0291236
-0.0145073
-0.0598746
-0.0444518
-0.0880854
-0.0746905
-0.106912
-0.0991264
-0.109653
-0.110593
-0.0938923
-0.103982
-0.0637054
-0.0799964
-0.0290132
-0.0461719
-0.00028605
-0.0136204
0.0205052
0.011159
0.0334335
0.0279108
0.0369426
0.0498118
-0.0592836
-0.173506
-0.345436
0.0410221
0.0991624
0.042817
0.0244796
0.0689412
0.0548072
0.0184613
0.00819349
-0.219162
-0.0810212
-0.0652296
-0.436031
-0.00345523
-0.100064
0.0363712
-0.470701
-0.14962
0.0824123
-0.0323487
-0.112905
0.0546093
-0.445385
-0.0621986
-0.115502
-0.00481032
-0.377451
-0.0987051
-0.101545
-0.0652509
0.103885
-0.0535144
-0.0215095
-0.0403113
0.100219
-0.0591612
-0.27264
0.0436067
0.0424504
0.0462087
0.0450879
0.0480303
0.0472194
0.0492856
0.048702
0.050301
0.0498122
0.0512491
0.0507728
0.0522301
0.0517277
0.053316
0.0527524
0.0546009
0.053925
0.0562169
0.0553585
0.0583077
0.0571965
0.0609609
0.0595649
0.0641113
0.0624882
0.0674444
0.0657861
0.0704302
0.0690009
0.0724439
0.0715834
0.0730967
0.0729511
0.0722686
0.0728607
0.0700627
0.0713226
0.0666997
0.0685068
0.0624556
0.0646674
0.0576402
0.0600975
0.0526079
0.0551269
0.0477762
0.0501381
0.0436708
0.0455976
0.0409112
0.0420869
0.0400914
0.0402312
0.0417309
0.0405786
0.0463066
0.0436377
0.0539945
0.0497583
0.0647946
0.0590281
0.0773072
0.0709172
0.0923592
0.0843117
0.109275
0.110914
0.101382
0.107004
0.0337405
0.0268423
0.036785
0.0445068
0.0395953
0.025521
0.0304167
0.0203927
0.0222603
0.0192144
0.0194485
0.0209569
0.0196947
0.0255772
0.0229918
0.0316019
0.0285195
0.0375547
0.0346594
0.0424108
0.0401612
0.0456161
0.0442274
0.0471116
0.0465574
0.0472689
0.0473176
0.046693
0.0470322
0.0459594
0.0463167
0.0454573
0.0456656
0.0453546
0.0453548
0.0456556
0.0454597
0.0462919
0.0459383
0.0471865
0.046712
0.0482847
0.0477133
0.049558
0.0489013
0.0509873
0.0502552
0.0524976
0.0517552
0.0540202
0.0532614
0.055396
0.0547423
0.0562676
0.0559236
0.0560988
0.0563428
0.0545279
0.0554813
0.0518976
0.0532901
0.049014
0.0504538
0.0465474
0.0476996
0.0447941
0.0455854
0.0435363
0.0441461
0.0419919
0.0427789
0.0411623
0.0436621
0.040203
0.0420758
0.0467284
0.0452249
0.0479964
0.0477598
0.045964
0.047488
0.0388231
0.0431574
0.0247199
0.0327186
0.0025923
0.0146677
-0.0271002
-0.0114176
-0.0619088
-0.0441126
-0.0968707
-0.0798052
-0.123831
-0.111966
-0.133151
-0.131205
-0.119388
-0.129128
-0.0859828
-0.104472
-0.04489
-0.0654814
-0.00977375
-0.0261869
0.0154771
0.004072
0.0309587
0.024498
0.03678
0.0346483
0.0390701
-0.00456299
-0.0635357
-0.0403767
-0.0206595
-0.289323
-0.0777379
-0.0844391
-0.190858
-0.389356
0.0094434
-0.109954
-0.0766094
-0.45942
0.119891
0.120836
-0.20034
0.09669
0.116282
0.113986
0.0415715
0.0486108
0.0391976
0.0382704
0.037122
0.038027
0.0334654
0.0351949
-0.0229972
-0.131664
-0.00292836
-0.463651
0.043275
0.059106
-0.0553202
-0.146188
-0.0198975
-0.41651
-0.135973
-0.0898367
-0.0934114
-0.065446
-0.14789
-0.0792066
-0.340196
-0.126728
-0.0839362
-0.303749
0.0421298
0.0403209
0.0442827
0.0433311
0.0462596
0.0453787
0.047798
0.0471141
0.0489622
0.0484126
0.0499593
0.0494684
0.0509232
0.0504354
0.0519416
0.0514192
0.0530668
0.0524853
0.0543746
0.0536911
0.0559702
0.0551294
0.0579618
0.0569122
0.0603989
0.0591272
0.0631964
0.061766
0.0660756
0.0646507
0.0685911
0.0674071
0.0702823
0.0695669
0.0708006
0.0706959
0.0700479
0.0705766
0.0681074
0.0692134
0.0651682
0.0667455
0.0614829
0.0634001
0.0573422
0.059449
0.0530805
0.0552038
0.0490883
0.0510245
0.0458381
0.0473399
0.0438695
0.0446632
0.0436965
0.0435339
0.045773
0.044433
0.0504654
0.0477825
0.0579982
0.0538742
0.0682171
0.0628275
0.0802606
0.0740283
0.0948769
0.0871959
0.112198
0.103243
0.118366
0.0324028
0.0148869
0.0241184
0.0446397
0.0390832
0.0531464
0.0492252
0.0308986
0.0355841
0.0253372
0.0275393
0.023349
0.0239695
0.0241971
0.0234393
0.0275076
0.0256071
0.0321811
0.0297587
0.0369983
0.0346347
0.0410707
0.0391641
0.0439032
0.0426515
0.0453994
0.0448052
0.0458055
0.0457094
0.0455705
0.0457367
0.0451455
0.0453575
0.0448582
0.0449717
0.0448717
0.0448244
0.0452154
0.0450052
0.0458487
0.0455006
0.0467146
0.0462567
0.0477689
0.0472208
0.0489862
0.0483591
0.0503353
0.0496484
0.0517726
0.0510227
0.0532127
0.0525033
0.0544526
0.0538729
0.055167
0.0548995
0.0549271
0.0551868
0.0534797
0.0543463
0.051102
0.0523615
0.048387
0.049807
0.0458804
0.0470757
0.043891
0.0448083
0.0422409
0.043034
0.0404279
0.0413599
0.0393575
0.0432465
0.0412802
0.0466446
0.0450914
0.0484296
0.0478191
0.0471594
0.048318
0.0407063
0.0447004
0.0271098
0.0349018
0.00486081
0.017112
-0.0262708
-0.00965199
-0.0646943
-0.0447685
-0.105928
-0.0854124
-0.140852
-0.124938
-0.156995
-0.151987
-0.145751
-0.154884
-0.109679
-0.130093
-0.0627098
-0.0864517
-0.0209286
-0.0406583
0.0088209
-0.00443686
0.0263934
0.0192555
0.0307418
0.0260294
0.00294428