/*--------------------------------*- C++ -*----------------------------------*\
  =========                 |
  \\      /  F ield         | OpenFOAM: The Open Source CFD Toolbox
   \\    /   O peration     | Website:  https://openfoam.org
    \\  /    A nd           | Version:  10
     \\/     M anipulation  |
\*---------------------------------------------------------------------------*/
FoamFile
{
    format      ascii;
    class       surfaceScalarField;
    location    "16";
    object      phi;
}
// * * * * * * * * * * * * * * * * * * * * * * * * * * * * * * * * * * * * * //

dimensions      [0 3 -1 0 0 0 0];

internalField   nonuniform List<scalar> 
57492
(
0.000272731
-1.20686e-05
-5.08304e-05
-0.000209832
-0.000203421
0.000316036
0.000160116
-2.93963e-05
8.2853e-05
0.000330649
-0.000384106
0.00315997
0.00338631
-0.00027216
-0.00627412
-0.00862823
0.00404514
0.00774307
0.00123361
-0.00115132
-0.000602082
0.000519797
-0.00222643
0.000442423
-0.000181942
0.00196595
0.00044858
-0.0014414
0.001437
-0.004601
0.00439423
-0.00123023
0.00122549
0.00422326
-0.00401175
-0.000822359
-0.000262633
0.000877956
0.000207036
-0.000124001
-0.0010041
0.000305739
0.000318304
-0.000414096
-2.82088e-05
-6.87138e-05
0.000124385
0.00270968
-0.00257997
-0.000972764
0.000843055
0.000356675
0.00217881
0.000174194
-0.000322998
0.000786014
0.00334374
-0.00380675
-0.000661631
0.0032695
-0.00293086
0.000136069
-0.000290629
0.000154561
-0.00167817
0.00122963
0.000584611
-0.00468221
0.000203515
0.0033571
0.0011216
0.00121707
-0.00474949
-0.00114979
-0.000133946
-0.000257168
-0.000767378
0.00115849
-0.000320971
0.000210696
-2.36712e-05
-0.00272664
0.00228566
0.000807395
-0.000366415
-0.00318212
0.000886789
-0.00043131
-0.0011264
0.000594123
0.000457645
7.46341e-05
-0.000778792
-0.000361228
1.3618e-05
-0.000371638
-0.00114855
0.00131115
0.000209043
-0.000421542
0.000118282
-6.83787e-05
0.00129076
-0.00086335
-0.000803531
0.000376123
-0.00111588
0.000859726
0.00154691
-0.0014999
-0.00288451
0.0026645
0.00171991
-0.00328468
-0.000818034
0.00260281
-0.000716006
-0.000154723
0.000870729
-0.000274726
-0.000441281
-0.00139002
0.00191367
-0.000798371
0.000205429
-0.000776558
-0.000818894
-0.00101213
0.00145456
-0.000235851
-0.0019019
0.00115087
0.000751024
-0.0043219
0.00242
0.00461096
-0.000709763
0.000267187
-0.00416839
0.00340172
-0.000165031
0.00137428
-0.000617331
0.0044932
-0.00458563
0.0023827
0.000485625
-0.00241975
0.00237772
-0.000176961
0.00281943
-0.00105245
-0.00208625
0.000319271
0.00316186
0.000143189
0.0015352
-0.000932383
0.0017749
0.00137663
0.00212451
-0.00458428
-0.00065362
0.000597262
0.00464063
-0.00472538
-0.000333493
0.000474596
0.00108562
0.00448842
-0.00441605
-0.001158
0.000758868
-0.00427425
-0.00322401
0.0026594
0.00282684
-0.00226223
-0.000595443
0.00336735
-0.00599592
8.26816e-06
-0.000148949
8.01935e-07
0.000139879
-0.000386002
-1.98255e-05
8.80135e-05
-0.000157236
-0.000316779
-7.09215e-05
9.98626e-06
1.95607e-05
-1.87588e-05
1.14123e-05
8.14842e-06
0.00749387
0.00377276
-0.00599758
-0.00526904
0.00228379
-0.000666261
0.00587634
-0.00799922
0.00301394
0.00726906
0.00222336
-0.00644982
0.0016102
-0.00288026
0.00215113
-0.00088107
0.00237718
-0.00293107
0.00216409
-3.47174e-05
2.58161e-05
-3.16733e-06
-8.07838e-05
-4.76396e-06
-0.000256117
-3.44988e-05
-0.00296665
0.00539564
0.00338455
-0.00581353
0.00435658
-0.00494605
0.00297101
0.0047948
-0.00237017
0.0104231
-0.0017355
-0.00165357
-0.00703406
0.00197975
0.00566899
0.00277439
0.00143323
-0.00526687
0.00581339
4.79172e-05
-7.73134e-05
0.00013077
0.00083809
0.00178513
-0.000636457
-0.00198676
0.00106609
0.000102651
-0.000107626
3.04803e-05
7.71453e-05
-0.000325069
0.000217444
-0.00671651
0.00341597
-0.00202818
0.00532872
-0.00581195
-0.0025844
0.00167984
-0.00265504
0.0021307
-0.0052876
0.00198568
-2.60195e-05
-0.000958668
-0.001001
-0.000723535
0.00226459
0.000444631
-0.000849326
-8.65274e-05
0.000212318
-0.000784521
-9.08251e-05
-0.000275341
-0.00146785
-0.000443372
-0.000101184
4.13702e-05
0.000503186
-0.000317465
-0.000836633
0.000710725
0.000242926
3.45969e-05
-0.000594988
0.000150475
-8.733e-06
0.000201371
-9.52533e-06
-0.000651073
0.000375732
8.39889e-05
-0.000735062
0.000180605
-0.000505674
0.00427364
0.0033316
-0.000178528
0.00212859
-0.00648319
-1.05409e-05
0.00226419
-0.00179754
-0.000456104
0.000291383
0.00316446
-0.00346639
0.00318947
0.0020563
-0.000759787
-0.00448598
-0.000821609
0.000253696
0.00375738
0.00413724
-0.00290255
-0.00162466
-0.00304246
0.00121422
0.00345291
-0.00121668
0.00351984
-0.00392783
0.000388214
-0.00464735
0.000123082
6.04966e-05
-6.12827e-06
0.00120937
-0.000691493
-0.000721302
0.000138001
-0.000471267
0.00154264
0.00046605
-1.2012e-05
-0.000187861
0.000336202
6.89328e-05
-0.000217274
0.00100371
-0.00123246
4.08874e-05
-0.000362697
0.000840851
0.000525558
-0.00012699
0.000100495
-0.00624523
0.0036232
0.00603799
0.00777389
-0.00207149
-0.00828679
-0.00293205
0.00446071
-9.73361e-05
-0.000883651
-0.000167566
-0.000528313
9.43487e-06
4.62672e-05
-0.000132201
4.05615e-05
4.53721e-05
-0.000130004
0.00014257
3.37012e-05
-0.000296088
3.38832e-05
-0.000268856
-0.000316051
5.65941e-05
-0.000813664
-0.000338843
-0.00132773
-0.00143094
0.00164911
0.00110956
5.81858e-05
0.000687813
-0.00207373
-0.00187646
0.000503699
-0.00295565
0.00133664
-5.91694e-05
-0.00352056
0.000805608
-0.000240698
0.000875395
-0.00334751
0.00256463
-9.25202e-05
0.000678427
-0.00272922
0.00292619
0.00252793
-0.0101973
-0.00178723
0.0022032
0.00304016
-0.00349075
0.00208667
-0.000327727
-1.82196e-05
5.28165e-05
-2.31793e-05
4.95974e-06
0.00028735
-4.15817e-05
0.0049982
-0.00304166
-0.00224523
0.000288685
0.0043333
4.75762e-05
0.00494806
-0.000188968
-0.00535453
0.00112323
0.00353249
0.000292337
0.000354204
-0.00322268
0.00399171
5.58394e-06
-2.87632e-05
0.000767094
-0.00215095
-0.00288895
0.00125817
0.00313712
0.00144459
-8.18952e-05
-0.00151875
0.000156053
0.000467301
-0.000138587
-0.00184449
0.000369054
0.00233516
0.000316995
-0.00169418
-0.000135667
7.13872e-05
-2.29187e-05
2.67487e-05
-2.43958e-06
-1.39037e-06
1.63708e-05
2.5289e-07
-3.95424e-05
4.93179e-05
-0.000174127
0.00014118
-0.0018763
0.00286791
-0.000811003
0.00299194
-0.00399352
-0.000874719
-1.04044e-05
-0.0024718
0.00285126
-0.00411359
0.000265215
-0.00281067
-0.0019044
0.000601476
0.00272392
0.00291429
-0.0054347
0.00260135
0.00433677
-0.00421421
0.00223955
-0.00309648
0.00161704
-0.000760108
0.0024525
-0.00303621
0.00282326
0.00440482
0.00186657
0.00486511
-0.000257816
-0.00484758
0.000240279
0.00536844
-0.000672938
0.000169613
0.00549391
-0.000820244
-1.40567e-06
-0.00467226
0.00394693
-0.00128475
0.00283173
0.00431874
-0.00136301
0.00109726
-0.00405298
0.0012213
0.00440185
-0.00130441
-0.00389096
-0.00162996
0.0041579
0.00102702
-0.00370375
-0.00181382
0.00363677
-0.00234224
-0.00326366
0.00211172
0.00349418
-0.00236636
-0.00329471
0.00331883
0.00221117
0.00307731
-0.00145345
-0.00383504
0.00305195
-0.00320714
-0.00256555
0.00258111
0.00303639
-0.00202567
0.00253743
-0.00409703
0.00364345
-0.000999875
-0.00510722
0.00103116
0.00541805
-0.00134199
0.00189896
-0.000604763
0.00142021
-0.00148081
0.000665367
-0.000384451
0.0017366
-0.00195691
-5.90863e-05
0.000363882
0.000161254
-0.00182308
-0.00274274
0.00176605
-3.12032e-06
3.37321e-06
1.96238e-07
-3.31656e-06
-0.000185637
-0.00308031
0.00233356
-0.00267883
-0.000131012
0.0026242
9.54024e-05
-0.00280817
3.39473e-05
-0.000409479
0.00190069
0.00043807
-0.00192928
0.00203559
0.000431809
-0.00287688
0.00188978
0.00204651
-4.36297e-06
3.91163e-06
6.09479e-05
-2.34281e-06
-2.02016e-06
1.56881e-06
-6.8773e-06
6.71641e-06
-7.07606e-05
2.05614e-06
-8.93344e-06
8.77255e-06
-4.95062e-05
2.40467e-05
-0.000295512
2.58584e-05
-7.53647e-05
4.99051e-05
5.39135e-05
-5.44534e-06
-0.000175458
-1.71491e-05
7.10626e-05
-2.25945e-05
0.00120542
0.00323509
-0.00418681
0.00153607
-0.00452628
0.00419562
0.00454434
0.000226826
-0.00118837
-0.0024464
0.00116415
0.00247062
-0.000706609
0.00272073
-0.00320249
0.00016321
-0.00331622
0.00405028
-0.00408876
-1.28915e-05
5.13732e-05
0.00404834
3.65062e-05
-3.45654e-05
-2.54288e-05
-0.00408283
1.94944e-05
0.00407845
-1.39277e-06
-2.87145e-05
0.00415074
5.91406e-05
-0.000131437
2.8971e-05
0.0042539
-0.000132132
0.00420276
-0.00417812
4.33493e-06
-0.000198006
0.00445232
-4.08785e-07
0.00408561
-8.08525e-05
-0.0040504
-6.85818e-05
-0.00403668
-1.51147e-05
-0.00403127
3.10965e-05
-0.00411797
7.38139e-05
-0.00405085
-9.25517e-05
-0.000192006
0.00464502
-6.91935e-07
0.00389453
-9.25322e-07
-2.03123e-05
-0.00404868
-1.38392e-05
-0.00408403
1.28657e-05
-2.88055e-05
-0.00428256
0.000262689
-2.5248e-07
0.00464557
-3.04726e-07
0.00389562
-1.34275e-06
-0.00423409
0.000121252
0.00464622
-5.04209e-08
-6.006e-07
-1.68396e-07
0.00464661
-2.13107e-07
0.00389637
-8.03054e-07
0.00389743
-1.23402e-06
-2.4332e-05
-0.00425679
-1.43806e-06
-0.00425678
-1.63586e-06
9.09224e-08
0.00464704
-5.20528e-07
0.00389822
-6.9247e-07
-3.25974e-07
-0.00425519
-1.27791e-06
-0.00425495
-2.15488e-06
9.59282e-08
0.00464707
-1.30646e-07
0.00389945
-1.13648e-06
-1.87858e-07
-0.0042533
-1.70187e-06
-0.00425333
-1.81192e-06
5.85699e-07
0.00464693
-4.46074e-07
0.00390063
-5.95522e-07
-2.85717e-07
-0.00425146
-1.54786e-06
-0.00425129
-2.32941e-06
1.06417e-06
0.00464592
-5.38167e-08
0.00390275
-1.05356e-06
-1.18457e-07
-0.00424937
-1.97141e-06
-0.0042494
-2.00771e-06
2.51638e-06
0.00464378
-3.7594e-07
0.00390577
-5.08649e-07
9.65739e-06
-0.00425719
-1.8367e-06
-0.0042372
-2.53638e-06
4.90009e-06
0.00463886
2.18071e-08
0.00391165
-9.76674e-07
2.75945e-05
-0.00413565
-0.000149142
-0.00416346
-4.61506e-05
1.01683e-05
0.004629
-3.06886e-07
0.00390414
1.76762e-05
2.73731e-05
-0.00415412
-8.89572e-06
-0.00413111
-4.97005e-06
2.01015e-05
0.00460879
1.05672e-07
0.00387697
4.72753e-05
5.9009e-05
-0.00400666
-0.00020647
-0.00401077
-6.13371e-05
0.000197436
0.00441158
-2.30576e-07
0.00399511
7.92941e-05
6.80212e-05
-0.0039876
-8.70828e-05
-0.00396584
2.30905e-05
0.000174313
0.0040865
0.000150767
0.00406116
0.000108262
0.000108545
-0.000154056
-0.00394209
-0.00394924
9.19466e-05
1.20166e-05
3.94574e-05
0.00403503
0.00403491
3.82694e-05
-0.00400206
0.00406599
-0.000151016
-0.00402362
-0.000132492
0.00018544
-0.000162318
-0.00396521
9.26433e-05
-0.00385644
-0.00397992
0.00401572
-4.46955e-05
-0.000120396
-0.00387107
0.0038732
-3.96107e-06
-4.4965e-06
-0.0038752
0.0038771
-3.45151e-06
-3.97316e-06
-0.0038789
0.00388061
-2.98999e-06
-3.497e-06
-0.00388224
0.00414752
-2.59108e-06
-3.06909e-06
-0.00413637
0.00408014
7.57301e-05
-2.69258e-06
-0.00421185
0.00417919
-1.90858e-06
-8.03334e-05
-0.0040457
0.00398688
-7.26171e-05
0.000104769
-0.00389248
0.00389348
-1.41202e-06
-3.77285e-05
-0.00389443
0.00389534
-1.21085e-06
-1.64161e-06
-0.0038962
0.00389702
-1.03204e-06
-1.4598e-06
-0.0038978
0.00389854
-8.70804e-07
-1.29831e-06
-0.00389924
0.00389991
-7.22146e-07
-1.15133e-06
-0.00390055
0.00390115
-5.8195e-07
-1.01503e-06
-0.00390173
0.00390228
-4.44743e-07
-8.84699e-07
-0.00387971
0.00397122
5.92551e-05
2.23397e-05
0.00396147
4.92098e-05
-2.43971e-05
7.80891e-05
0.00398134
-3.60701e-06
0.00401412
0.00398637
-0.00392045
1.33767e-05
-0.00402536
0.00401694
4.66865e-05
6.92762e-05
0.00391982
-0.00390113
-1.01062e-06
4.6641e-05
0.00390053
-0.00389988
-1.1515e-06
-1.58292e-06
0.00389921
-0.0038985
-1.30541e-06
-1.72277e-06
0.00389776
-0.00389698
-1.47761e-06
-1.87719e-06
0.00389616
-0.00389529
-1.67103e-06
-2.05208e-06
0.00389439
-0.00389343
-1.88521e-06
-2.24761e-06
0.00397182
-0.00396536
-2.12488e-06
-2.46193e-06
0.00403124
-0.00398692
-5.94358e-05
-2.7014e-06
0.00396014
-0.00393346
4.71394e-05
4.31747e-06
0.00398195
-0.00400699
3.79036e-05
-4.40622e-05
0.00388221
-0.00388059
-3.25765e-06
-3.5263e-06
0.00387889
-0.00387708
-3.61892e-06
-3.85396e-06
0.00387519
-0.00387317
-4.02594e-06
-4.22684e-06
0.00387105
-0.00391271
-4.48982e-06
-4.65247e-06
0.00391255
-0.00396887
-5.01563e-06
-5.13667e-06
0.00394009
-0.00388197
3.38329e-05
-5.69097e-06
-0.00383873
4.94039e-05
-0.00405362
-0.000132325
0.00397386
6.5703e-05
5.32096e-08
0.00401328
0.00014559
-0.000132044
-0.00386999
0.000114884
-0.00380803
0.00013667
-0.000128627
-0.00406166
-0.00396059
-0.0039789
0.00391541
-8.75279e-05
0.00402337
-0.00405613
-9.95666e-05
-8.80222e-05
-0.00386688
0.00386907
-4.68897e-05
-7.18634e-05
-0.00387131
0.00387343
-6.0784e-06
-6.73263e-06
-0.00387542
0.00387732
-5.34674e-06
-5.96645e-06
-0.0038791
0.0038808
-4.69134e-06
-5.28326e-06
-0.00388241
0.00388393
-4.1105e-06
-4.67431e-06
-0.00388537
0.0039647
-3.6012e-06
-4.13754e-06
-0.00388803
0.00388927
-3.14677e-06
-3.66319e-06
-0.0039973
0.00392744
-2.75041e-06
-3.26136e-06
-0.0038926
0.0038936
-2.41355e-06
-2.8923e-06
-0.00389455
0.00389545
-2.11413e-06
-2.58739e-06
-0.0038963
0.00389712
-1.84807e-06
-2.31325e-06
-0.00389789
0.00389863
-1.60862e-06
-2.06952e-06
-0.00389933
0.00389999
-1.38971e-06
-1.84888e-06
-0.00390063
0.00390123
-1.18668e-06
-1.64636e-06
-0.0039018
0.00390235
-9.93283e-07
-1.45708e-06
-0.00390257
0.00393442
2.74035e-05
2.21198e-05
9.26855e-06
-1.77805e-05
0.00398985
2.05035e-06
0.00398107
-0.00392287
0.0039619
2.66665e-05
6.07651e-05
0.00396406
-0.00396481
4.744e-05
0.00393233
3.17778e-05
-1.98086e-06
4.63819e-05
0.00396888
0.00399436
0.00396522
-0.00393603
-1.58228e-05
6.96923e-05
0.00390177
-0.00390119
-1.5928e-06
1.23865e-05
0.00390058
-0.00389994
-1.7919e-06
-2.18842e-06
0.00389928
-0.00389857
-2.01156e-06
-2.38875e-06
0.00389784
-0.00389706
-2.25757e-06
-2.61281e-06
0.00389624
-0.00389538
-2.53262e-06
-2.86482e-06
0.00389448
-0.00389353
-2.83708e-06
-3.14605e-06
0.00389253
-0.00389148
-3.17542e-06
-3.45791e-06
0.00389038
-0.00394628
-3.53998e-06
-3.80087e-06
0.00393779
-0.0038867
-3.94258e-06
-4.17637e-06
0.00392619
-0.0038839
-4.38425e-06
-4.58116e-06
0.00388239
-0.00388077
-4.86892e-06
-5.03796e-06
0.00387909
-0.00387729
-5.41476e-06
-5.54321e-06
0.0038754
-0.0038734
-6.03158e-06
-6.11295e-06
0.00387129
-0.00386905
-6.73212e-06
-6.76007e-06
0.00386669
-0.00386418
-7.5263e-06
-7.49495e-06
0.00386154
-0.00381928
-8.42697e-06
-8.33236e-06
0.00379499
-0.00374064
6.05277e-05
2.5118e-05
-0.00408354
-0.000101212
0.000101203
-0.000161245
-0.00374799
-0.0037149
7.54642e-05
-0.000219514
-0.00381172
2.55101e-05
0.00393844
0.00393843
4.02855e-05
-6.39064e-05
8.74613e-05
-0.00408521
-6.18842e-05
-0.00408557
7.55464e-05
-0.000159558
-0.00366398
4.95502e-05
-0.0036889
-0.00409264
0.00397203
-0.00396015
1.47921e-05
0.00393151
6.60269e-05
6.99458e-05
-3.00245e-05
0.00392896
4.55632e-05
0.00396281
-0.00403843
0.00408351
-0.000106959
-0.000116687
9.56906e-05
-0.00406457
0.00412686
-8.23634e-05
0.00032157
-0.00436607
-2.82581e-05
-0.00407987
0.00404876
-6.84525e-05
-9.75757e-05
-0.00399753
0.00393516
-2.51565e-05
-3.6794e-05
-0.00390711
0.00386947
-9.25177e-06
-4.38133e-05
-0.00387168
0.00387378
-8.17809e-06
-8.94268e-06
-0.00387576
0.00387763
-7.22473e-06
-7.94188e-06
-0.0038794
0.00388109
-6.37604e-06
-7.05279e-06
-0.00388268
0.00388419
-5.62315e-06
-6.26281e-06
-0.00388562
0.00388697
-4.95701e-06
-5.56423e-06
-0.00388826
0.00388948
-4.37031e-06
-4.94852e-06
-0.00389063
0.00389174
-3.85636e-06
-4.41018e-06
-0.00389278
0.00389377
-3.40689e-06
-3.93587e-06
-0.00389471
0.00389561
-3.01047e-06
-3.525e-06
-0.00389645
0.00389726
-2.65724e-06
-3.15932e-06
-0.00389803
0.00389876
-2.33992e-06
-2.83352e-06
-0.00389945
0.00390011
-2.05155e-06
-2.53966e-06
-0.00390073
0.00390133
-1.78676e-06
-2.27182e-06
-0.0039019
0.00390245
-1.53941e-06
-2.0249e-06
-0.00391373
0.00392074
2.03969e-05
1.08389e-05
2.13481e-05
2.58453e-05
-9.44302e-06
0.00397345
-4.17518e-05
1.139e-05
0.00396881
0.00396517
0.00395489
0.00395303
-0.00394858
4.29918e-05
-0.00394757
0.00392627
6.15871e-05
3.72336e-05
0.00390292
-0.00391679
-1.94373e-06
2.40262e-05
0.00390185
-0.00390127
-2.17177e-06
-2.55814e-06
0.00390067
-0.00390004
-2.42691e-06
-2.78806e-06
0.00389938
-0.00389868
-2.71159e-06
-3.04906e-06
0.00389795
-0.00389717
-3.03024e-06
-3.34162e-06
0.00389637
-0.00389552
-3.38588e-06
-3.66967e-06
0.00389463
-0.00389368
-3.78044e-06
-4.03552e-06
0.0038927
-0.00389166
-4.21788e-06
-4.44165e-06
0.00389057
-0.00388941
-4.69779e-06
-4.89048e-06
0.0038882
-0.00388692
-5.22642e-06
-5.38506e-06
0.00388557
-0.00388414
-5.81208e-06
-5.92986e-06
0.00388264
-0.00388105
-6.46308e-06
-6.53756e-06
0.00387937
-0.0038776
-7.1937e-06
-7.21623e-06
0.00387573
-0.00387374
-8.01857e-06
-7.98139e-06
0.00387165
-0.00386943
-8.95292e-06
-8.84826e-06
0.00386709
-0.00386461
-1.00116e-05
-9.83132e-06
0.00386199
-0.00385921
-1.12128e-05
-1.09475e-05
0.00382188
-0.00374877
-1.2581e-05
-1.22153e-05
0.00370537
-0.00371084
5.5021e-05
3.20685e-05
6.44776e-05
-6.51147e-05
-0.00368826
-0.00369076
4.43972e-05
0.000121684
-0.00411121
-9.66791e-05
-0.0038746
3.85446e-05
0.00390436
0.00393995
3.18854e-05
0.000146338
-0.00429327
4.77024e-06
-0.00373386
0.000845204
-0.00344546
0.00449003
-6.03633e-05
3.56889e-05
-0.00366609
-9.77739e-05
-0.00365085
-0.00272157
0.00414293
0.000625152
-0.00212294
-0.000160562
-0.00406763
-0.00392878
0.00409508
0.000155268
0.000338115
-0.000123963
-0.00405601
0.00401978
-7.0728e-05
1.0809e-05
-0.00398746
0.00393379
-1.47779e-05
-6.52547e-05
-0.00391109
0.003899
-1.30661e-05
-1.41022e-05
-0.0038677
0.00387001
-1.15651e-05
-1.25105e-05
-0.00387219
0.00387426
-1.0246e-05
-1.11188e-05
-0.00387621
0.00387806
-9.07696e-06
-9.88918e-06
-0.0038798
0.00388147
-8.03849e-06
-8.79858e-06
-0.00388303
0.00388453
-7.11677e-06
-7.83062e-06
-0.00388594
0.00388728
-6.30017e-06
-6.97306e-06
-0.00388855
0.00388976
-5.57966e-06
-6.21582e-06
-0.0038909
0.00389199
-4.94579e-06
-5.55052e-06
-0.00389301
0.003894
-4.38869e-06
-4.96472e-06
-0.00389492
0.00389581
-3.89588e-06
-4.45129e-06
-0.00389664
0.00389744
-3.45661e-06
-3.99514e-06
-0.0038982
0.00389892
-3.0622e-06
-3.58816e-06
-0.0038996
0.00390026
-2.70521e-06
-3.2219e-06
-0.00390087
0.00390147
-2.37959e-06
-2.88968e-06
-0.00390203
0.00390257
-2.08032e-06
-2.58623e-06
-0.00391572
0.00393793
-1.81037e-06
-2.31024e-06
-0.00392878
0.00392673
1.68494e-05
3.04888e-05
-0.00394242
0.00393823
4.27419e-05
5.03316e-05
5.46998e-05
-3.05124e-05
0.00394462
-3.36114e-05
7.13774e-06
0.0039647
0.00392544
3.85141e-05
1.56707e-05
0.00391926
0.00397317
-2.67033e-05
1.81158e-05
0.00393754
0.00394386
-2.24989e-05
2.62467e-06
0.00395982
0.00395843
0.00396257
-0.0039484
4.74121e-05
-0.00402399
0.00391681
0.000109802
-2.95269e-05
0.00393838
-0.00392988
3.44955e-05
2.72118e-05
0.00390301
-0.00390249
-2.46432e-06
-2.84122e-06
0.00390195
-0.00390138
-2.74306e-06
-3.0953e-06
0.00390079
-0.00390016
-3.05448e-06
-3.38059e-06
0.00389951
-0.00389882
-3.40329e-06
-3.70158e-06
0.0038981
-0.00389734
-3.79327e-06
-4.06152e-06
0.00389654
-0.0038957
-4.22837e-06
-4.46443e-06
0.00389482
-0.00389389
-4.71171e-06
-4.91371e-06
0.00389292
-0.00389189
-5.24783e-06
-5.41308e-06
0.00389081
-0.00388967
-5.83997e-06
-5.96666e-06
0.00388848
-0.00388721
-6.49552e-06
-6.57963e-06
0.00388588
-0.00388447
-7.22398e-06
-7.25914e-06
0.00388298
-0.00388141
-8.03699e-06
-8.01803e-06
0.00387976
-0.003878
-8.94982e-06
-8.86786e-06
0.00387616
-0.0038742
-9.97953e-06
-9.82557e-06
0.00387214
-0.00386995
-1.11441e-05
-1.09088e-05
0.00386764
-0.00386519
-1.24628e-05
-1.21358e-05
0.00386261
-0.00385987
-1.39581e-05
-1.35273e-05
0.00385697
-0.00385389
-1.56592e-05
-1.51078e-05
0.00380492
-0.0037323
-1.7601e-05
-1.69092e-05
0.00373318
-0.00371721
1.97239e-05
4.52815e-05
4.41683e-05
-4.31549e-05
-0.0036671
-0.00368957
1.65222e-05
0.000117802
-0.00408267
-2.9364e-05
-0.00384046
0.000303242
-0.00375131
5.08641e-06
-0.00383672
0.00393969
-0.00394528
4.83328e-05
0.00392611
2.0721e-05
4.84855e-05
-3.28896e-05
0.00394423
1.19174e-05
0.00395338
0.000293509
-0.00330716
9.73211e-06
-0.00370374
-0.00198421
-0.00206802
-0.00322752
0.00371027
0.000142407
7.30074e-05
-4.93498e-05
-0.00369076
4.56845e-05
-0.00366225
-0.00300148
-0.000386607
-0.00397919
-0.00387136
0.0039233
0.000103335
0.000177017
-0.00395539
0.00390451
-1.9852e-05
-2.12835e-05
-0.00385812
0.00386091
-1.75748e-05
-1.88581e-05
-0.00386356
0.00386607
-1.55798e-05
-1.67437e-05
-0.00386844
0.0038707
-1.38231e-05
-1.48851e-05
-0.00387283
0.00387486
-1.22716e-05
-1.3248e-05
-0.00387677
0.00387858
-1.08954e-05
-1.17992e-05
-0.0038803
0.00388193
-9.67254e-06
-1.05137e-05
-0.00388348
0.00388495
-8.58637e-06
-9.37231e-06
-0.00388633
0.00388765
-7.62287e-06
-8.35989e-06
-0.0038889
0.00389009
-6.77084e-06
-7.46406e-06
-0.00389122
0.00389229
-6.01887e-06
-6.67419e-06
-0.0038933
0.00389427
-5.35557e-06
-5.97752e-06
-0.00389518
0.00389605
-4.76773e-06
-5.36351e-06
-0.00389688
0.00389766
-4.24353e-06
-4.81806e-06
-0.00389841
0.00389912
-3.77336e-06
-4.33112e-06
-0.00389979
0.00390043
-3.3487e-06
-3.89355e-06
-0.00390104
0.00390163
-2.96338e-06
-3.49799e-06
-0.00390218
0.00390271
-2.6125e-06
-3.13884e-06
-0.00390321
0.0039037
-2.29372e-06
-2.81298e-06
-0.00393671
0.00392339
3.01664e-05
-2.52048e-06
2.844e-05
4.1877e-05
-6.7163e-05
0.0039699
-1.70895e-05
2.96427e-05
0.00395215
0.00395023
-1.90469e-08
-3.57575e-07
0.00391964
0.00390599
-3.75404e-05
5.59149e-05
0.00391917
0.00390596
0.00398145
0.00396485
-0.0039529
3.54564e-05
-0.00391578
0.00395571
6.98726e-05
1.95408e-05
0.0039408
-0.00390361
-2.68773e-06
1.51127e-05
0.00390313
-0.00390262
-2.97738e-06
-3.32474e-06
0.00390209
-0.00390152
-3.30511e-06
-3.62604e-06
0.00390094
-0.00390032
-3.67272e-06
-3.96422e-06
0.00389968
-0.003899
-4.08442e-06
-4.34435e-06
0.00389829
-0.00389754
-4.54464e-06
-4.7704e-06
0.00389676
-0.00389593
-5.05766e-06
-5.24685e-06
0.00389506
-0.00389415
-5.62832e-06
-5.77818e-06
0.00389319
-0.00389218
-6.26196e-06
-6.36938e-06
0.00389112
-0.00388999
-6.96446e-06
-7.02615e-06
0.00388882
-0.00388757
-7.74466e-06
-7.75568e-06
0.00388626
-0.00388487
-8.61376e-06
-8.56743e-06
0.00388341
-0.00388186
-9.58561e-06
-9.47492e-06
0.00388024
-0.00387851
-1.06772e-05
-1.04927e-05
0.0038767
-0.00387477
-1.19074e-05
-1.16391e-05
0.00387274
-0.00387059
-1.32973e-05
-1.29341e-05
0.00386833
-0.00386592
-1.48697e-05
-1.43994e-05
0.00386339
-0.00386069
-1.66511e-05
-1.60595e-05
0.00385786
-0.00385484
-1.86736e-05
-1.79434e-05
0.00385167
-0.00384829
-2.09765e-05
-2.00855e-05
0.00378048
-0.00373716
-2.36004e-05
-2.25314e-05
0.00369531
-0.00366358
1.39597e-05
-2.53268e-05
8.7215e-05
-5.33832e-05
-0.00369608
-0.00363969
6.33257e-05
8.75166e-05
-0.00386695
9.36189e-07
-0.00383631
4.74854e-05
0.00390826
0.00394107
2.65634e-05
0.000174223
-0.00363202
-0.000481959
-0.00437913
-7.04691e-05
-0.00371865
5.40291e-06
-0.00383239
1.03415e-05
-0.00376343
-0.00431712
-0.000752369
0.000156647
-0.000455752
-0.00401802
-0.000312322
-0.00391016
-4.93467e-05
-0.00369479
4.73483e-05
-0.000108297
-0.00363513
8.66237e-05
-0.00367897
-0.00389074
-0.00352182
0.00368051
-1.62796e-05
0.00370181
-0.00407505
-0.000379129
-0.000206619
-0.00379549
0.00385038
4.84441e-05
6.20395e-05
-0.00385349
0.00385647
-2.28362e-05
-2.43941e-05
-0.00385931
0.00386201
-2.02792e-05
-2.16922e-05
-0.00386457
0.00386701
-1.80198e-05
-1.9303e-05
-0.00386932
0.00387152
-1.60204e-05
-1.71912e-05
-0.00387359
0.00387557
-1.42481e-05
-1.53226e-05
-0.00387743
0.00387921
-1.26734e-05
-1.36649e-05
-0.00388089
0.00388249
-1.12728e-05
-1.21921e-05
-0.003884
0.00388544
-1.00271e-05
-1.08829e-05
-0.0038868
0.0038881
-8.92062e-06
-9.72001e-06
-0.00388932
0.00389049
-7.93999e-06
-8.68912e-06
-0.0038916
0.00389265
-7.07238e-06
-7.77745e-06
-0.00389364
0.00389459
-6.3048e-06
-6.97166e-06
-0.00389549
0.00389634
-5.62359e-06
-6.25908e-06
-0.00389715
0.00389792
-5.0159e-06
-5.62576e-06
-0.00389865
0.00389935
-4.47118e-06
-5.06028e-06
-0.00390001
0.00390064
-3.98035e-06
-4.55271e-06
-0.00390124
0.00390181
-3.53623e-06
-4.095e-06
-0.00390235
0.00390287
-3.13363e-06
-3.68097e-06
-0.00390337
0.00390384
-2.76979e-06
-3.30663e-06
-0.00390429
0.0039369
-2.44083e-06
-2.96892e-06
-0.00394013
0.00394954
3.89163e-05
2.52132e-05
-0.00389702
0.00391388
3.06263e-05
7.32466e-05
6.56557e-05
-4.84968e-05
0.00393499
-1.38536e-05
-8.84661e-06
0.00393658
0.00396007
4.88643e-05
3.58665e-07
0.00392068
0.0039506
-1.6808e-09
-3.6136e-07
0.00392
0.00390634
7.20539e-07
-1.08345e-06
0.00391953
0.00390632
-2.79191e-05
2.20373e-05
0.00395011
0.00395245
-1.53701e-05
2.03751e-05
0.00393606
0.00396004
0.00396892
-0.00392393
2.48785e-05
-0.00395077
0.00392777
4.33729e-05
4.47215e-05
0.00393159
-0.00392281
2.6676e-05
2.71992e-05
0.0039042
-0.00390374
-3.14427e-06
-3.4932e-06
0.00390327
-0.00390277
-3.47998e-06
-3.80039e-06
0.00390225
-0.00390169
-3.8569e-06
-4.14715e-06
0.00390112
-0.00390051
-4.27981e-06
-4.53732e-06
0.00389988
-0.00389921
-4.75317e-06
-4.97548e-06
0.00389852
-0.00389778
-5.28205e-06
-5.46624e-06
0.00389701
-0.0038962
-5.87163e-06
-6.01475e-06
0.00389535
-0.00389445
-6.52771e-06
-6.62651e-06
0.00389351
-0.00389252
-7.25726e-06
-7.30779e-06
0.00389148
-0.00389037
-8.06797e-06
-8.06585e-06
0.00388922
-0.00388799
-8.97016e-06
-8.90969e-06
0.00388671
-0.00388535
-9.97689e-06
-9.85074e-06
0.00388392
-0.0038824
-1.1104e-05
-1.09037e-05
0.00388081
-0.00387912
-1.23697e-05
-1.20854e-05
0.00387734
-0.00387545
-1.37956e-05
-1.34157e-05
0.00387347
-0.00387136
-1.54046e-05
-1.4917e-05
0.00386915
-0.00386679
-1.72231e-05
-1.66139e-05
0.00386432
-0.00386169
-1.92812e-05
-1.85342e-05
0.00385892
-0.00385598
-2.16146e-05
-2.07107e-05
0.00385288
-0.00384959
-2.42658e-05
-2.3182e-05
0.00384613
-0.00384245
-2.72844e-05
-2.59947e-05
0.00383856
-0.00379387
-3.07385e-05
-2.92078e-05
0.00375005
-0.00367888
1.5451e-05
1.9513e-05
3.17769e-05
-6.81489e-05
-0.0036426
-0.00367471
2.76096e-05
5.79946e-05
-0.00375072
-0.00412887
-0.000401936
2.39145e-05
-0.00372641
0.00396438
-0.00397403
4.02737e-05
0.00396109
-5.55028e-06
4.14964e-05
-3.54439e-05
0.00393001
5.18168e-05
0.00391745
1.01324e-06
-0.00383192
5.74532e-06
-0.00382779
-0.000108896
-0.00392208
1.09697e-05
-0.00382375
1.67431e-05
-0.00381983
2.31165e-05
-0.00372639
5.0278e-05
-1.88147e-05
-0.00367406
3.35181e-06
-0.00362779
-0.00383173
-0.00398624
0.00379894
-0.000191823
-0.000332903
0.000449934
-0.0042459
0.00415435
-0.00431985
-0.000167405
-0.000233829
-0.00366553
0.00373175
-8.25012e-05
-7.32106e-05
-0.0038079
0.00385191
4.43619e-06
-1.41096e-05
-0.00385495
0.00385785
-2.57369e-05
-2.74363e-05
-0.0038606
0.00386322
-2.29013e-05
-2.44399e-05
-0.0038657
0.00386807
-2.0386e-05
-2.1784e-05
-0.00387031
0.00387244
-1.81538e-05
-1.94286e-05
-0.00387446
0.00387638
-1.61707e-05
-1.73388e-05
-0.0038782
0.00387993
-1.44058e-05
-1.54814e-05
-0.00388156
0.00388313
-1.28342e-05
-1.38287e-05
-0.0038846
0.00388601
-1.14345e-05
-1.23577e-05
-0.00388734
0.00388861
-1.01894e-05
-1.10492e-05
-0.0038898
0.00389095
-9.08373e-06
-9.88712e-06
-0.00389203
0.00389306
-8.10315e-06
-8.85692e-06
-0.00389403
0.00389496
-7.23367e-06
-7.94436e-06
-0.00389584
0.00389667
-6.461e-06
-7.13546e-06
-0.00389746
0.00389822
-5.77159e-06
-6.41604e-06
-0.00389893
0.00389962
-5.15395e-06
-5.77366e-06
-0.00390026
0.00390088
-4.59829e-06
-5.19761e-06
-0.00390146
0.00390202
-4.0967e-06
-4.67911e-06
-0.00390255
0.00390306
-3.64332e-06
-4.2113e-06
-0.00390355
0.00390401
-3.23413e-06
-3.78934e-06
-0.00390445
0.00390487
-2.86428e-06
-3.40943e-06
-0.00393316
0.00394756
2.45072e-05
-3.06857e-06
4.67799e-05
1.86166e-05
-4.31606e-05
0.00395953
-2.9661e-05
1.98826e-06
0.00396425
0.00394902
-6.65893e-07
3.22962e-07
0.00392102
0.00390677
2.06722e-08
-3.68237e-07
0.00392035
0.00390669
7.14853e-07
-1.0627e-06
0.00391988
0.00390666
-4.46843e-05
3.29432e-05
0.00396185
0.0039067
0.00395754
0.00396326
-0.00396552
2.71369e-05
-0.00395487
0.00393776
6.04736e-05
5.31153e-05
0.00393471
-0.00390477
-3.26025e-06
-3.61161e-06
0.00390435
-0.0039039
-3.59378e-06
-3.91728e-06
0.00390343
-0.00390294
-3.97173e-06
-4.26507e-06
0.00390243
-0.00390189
-4.39706e-06
-4.6572e-06
0.00390133
-0.00390074
-4.87401e-06
-5.09828e-06
0.00390012
-0.00389946
-5.40759e-06
-5.59315e-06
0.00389878
-0.00389806
-6.00352e-06
-6.14709e-06
0.00389731
-0.00389651
-6.66784e-06
-6.766e-06
0.00389568
-0.0038948
-7.40757e-06
-7.45637e-06
0.00389389
-0.00389291
-8.23076e-06
-8.22571e-06
0.0038919
-0.00389082
-9.14714e-06
-9.08278e-06
0.00388969
-0.00388849
-1.01684e-05
-1.00382e-05
0.00388723
-0.0038859
-1.13093e-05
-1.11052e-05
0.00388451
-0.00388302
-1.25872e-05
-1.22999e-05
0.00388147
-0.00387981
-1.40223e-05
-1.36408e-05
0.00387808
-0.00387624
-1.56377e-05
-1.51497e-05
0.0038743
-0.00387225
-1.74589e-05
-1.68509e-05
0.00387009
-0.0038678
-1.95152e-05
-1.87716e-05
0.00386539
-0.00386283
-2.18399e-05
-2.0943e-05
0.00386014
-0.00385729
-2.44723e-05
-2.34011e-05
0.00385428
-0.00385109
-2.74593e-05
-2.61888e-05
0.00384772
-0.00384415
-3.08566e-05
-2.93574e-05
0.00384039
-0.00383639
-3.47331e-05
-3.29686e-05
0.00377979
-0.00372517
-3.91681e-05
-3.70908e-05
0.0036984
-0.0036997
4.65334e-06
8.35512e-07
-0.000224706
4.21971e-05
-0.00372765
-0.00379279
4.70787e-05
-1.60003e-05
-0.00365887
-0.00363632
-1.63019e-05
3.54235e-06
-0.00373035
4.53842e-05
0.00391769
0.003971
1.85804e-05
0.000120747
-0.00428363
-0.000156963
1.11507e-06
-0.00382729
0.000232791
-0.00435794
-3.1535e-05
-0.00380377
6.09905e-06
-0.00382292
-3.7047e-05
-0.00384283
1.16358e-05
-0.00381864
1.77867e-05
-0.0038145
2.4602e-05
-0.00376981
-8.64294e-06
-0.00368142
1.35304e-05
-1.79997e-05
-0.0036544
1.27079e-05
-0.0036355
-0.00382708
-0.00424764
0.00407722
3.01499e-06
-0.000258122
-0.0042189
0.000193389
0.00436608
-0.00426054
-0.000363664
-3.85274e-05
-0.00396385
0.00387821
-0.000106177
-0.000120458
-0.0038434
0.00379697
-3.60692e-05
-3.84034e-05
-0.00381699
0.00385352
-3.20907e-05
-3.41314e-05
-0.00385649
0.00385932
-2.85633e-05
-3.04094e-05
-0.00386199
0.00386453
-2.54452e-05
-2.711e-05
-0.00386694
0.00386923
-2.2679e-05
-2.4189e-05
-0.0038714
0.00387346
-2.02219e-05
-2.15969e-05
-0.00387542
0.00387729
-1.80361e-05
-1.92941e-05
-0.00387905
0.00388073
-1.60888e-05
-1.72449e-05
-0.00388232
0.00388384
-1.43526e-05
-1.54194e-05
-0.00388528
0.00388665
-1.28045e-05
-1.37927e-05
-0.00388794
0.00388918
-1.14254e-05
-1.23436e-05
-0.00389034
0.00389146
-1.01985e-05
-1.10545e-05