/*--------------------------------*- C++ -*----------------------------------*\
  =========                 |
  \\      /  F ield         | OpenFOAM: The Open Source CFD Toolbox
   \\    /   O peration     | Website:  https://openfoam.org
    \\  /    A nd           | Version:  10
     \\/     M anipulation  |
\*---------------------------------------------------------------------------*/
FoamFile
{
    format      ascii;
    class       volVectorField;
    location    "16";
    object      U;
}
// * * * * * * * * * * * * * * * * * * * * * * * * * * * * * * * * * * * * * //

dimensions      [0 1 -1 0 0 0 0];

internalField   nonuniform List<vector> 
28942
(
(0.00514143 -0.00269145 -2.77117e-22)
(0.00694257 -0.00296882 -4.76007e-23)
(0.0183819 -0.012672 -1.02415e-21)
(0.103305 0.0182342 -5.89463e-21)
(0.102344 0.0222763 1.9242e-21)
(0.026187 0.00102105 0)
(0.0312127 0.000707905 2.37675e-23)
(0.0357436 0.00130389 -2.10763e-23)
(0.13424 -0.014872 -3.61564e-22)
(0.132726 -0.0133846 1.02059e-21)
(0.0124738 0.00648429 -4.44465e-22)
(0.0194087 0.0083793 1.41513e-22)
(0.00890531 0.00468703 0)
(0.0062304 0.00342884 0)
(0.0732405 0.0025061 -2.98934e-23)
(0.0710521 0.00358332 -9.63528e-24)
(0.0895311 0.015828 7.35028e-22)
(0.0872134 0.0138414 1.17957e-21)
(0.0122778 -0.0152327 3.39158e-21)
(0.0296226 -0.0307012 -8.94556e-22)
(0.0987038 0.0370341 1.06476e-21)
(0.0978081 0.0340905 0)
(0.0207363 0.00583757 1.0332e-21)
(0.00884962 0.00290912 4.63589e-22)
(0.0403019 0.00851445 8.03118e-22)
(0.0606009 0.00404993 -7.32147e-22)
(0.00770072 -0.0184968 9.15696e-21)
(0.00673809 -0.0165552 -3.35874e-21)
(0.0360874 -0.0256358 7.11449e-22)
(0.0195991 -0.0138613 2.48798e-22)
(0.0267874 -0.0026104 0)
(0.033472 -0.0025732 -2.42761e-23)
(0.0416205 0.00644012 5.38066e-22)
(0.057615 0.00224905 -1.01682e-22)
(0.0190802 0.0182242 1.47486e-21)
(0.0159203 0.0193427 -1.5232e-21)
(0.0325637 0.0380288 -3.3368e-21)
(0.0188809 0.0308887 -1.142e-21)
(0.0147896 0.000347154 -1.93297e-23)
(0.00875394 0.016389 -2.82401e-21)
(0.030649 -0.0062029 0)
(0.051343 -0.0109689 0)
(0.105962 -0.00980573 -5.25044e-23)
(0.105905 -0.00920889 1.54585e-22)
(0.10669 -0.00982217 1.34643e-22)
(0.0492171 0.000771655 2.30999e-23)
(0.0459816 -0.00030945 -3.86806e-23)
(0.0632232 -0.000384599 -1.57482e-22)
(0.0609081 -0.000432122 4.40572e-23)
(0.0507077 -0.0038006 -3.9271e-22)
(0.0390488 -0.00497769 2.49371e-22)
(0.124145 0.00295995 -6.04127e-22)
(0.123965 0.0024332 -5.47932e-22)
(0.133929 -0.0179325 -4.09713e-24)
(0.132215 -0.0163649 1.90414e-22)
(0.0887236 0.0107587 5.82153e-22)
(0.108011 0.00377838 1.59787e-22)
(0.00389632 0.00228273 -4.45449e-22)
(0.0107071 0.00504781 0)
(0.00964792 0.00426627 2.00088e-22)
(0.00357148 0.00199671 3.82212e-22)
(0.000570617 0.000383655 -3.1952e-22)
(0.000389947 0.000280607 -2.93781e-22)
(0.11254 -0.042303 0)
(0.108441 -0.0248072 7.5774e-23)
(0.125008 -0.0315497 -1.4296e-23)
(0.125919 -0.0426339 0)
(0.0904807 -0.032426 -7.0496e-22)
(0.0940152 -0.0348364 -4.65508e-22)
(0.00221923 -0.0013181 9.09834e-22)
(0.00292563 -0.00231508 -2.89968e-22)
(0.00561542 -0.00364287 7.23047e-22)
(0.0854211 -0.0454666 0)
(0.0916895 -0.0392319 2.40434e-21)
(0.0811701 -0.0528393 6.52748e-22)
(0.119079 0.00937396 1.22062e-22)
(0.118354 0.00282688 -1.41338e-22)
(0.129817 0.00623566 8.75575e-24)
(0.00479838 -0.00293004 -6.56246e-23)
(0.00649535 -0.00452998 6.03618e-22)
(0.0522275 -0.0316261 1.82373e-22)
(0.0340547 -0.0209951 -2.94619e-22)
(0.00236846 -0.000753111 3.01118e-21)
(0.00565372 -0.00236707 -1.17704e-21)
(0.103374 0.0483419 4.75489e-23)
(0.0989508 0.0554491 -9.08828e-22)
(0.0822028 0.0544825 8.40635e-22)
(0.0480917 0.0349927 -3.13965e-21)
(0.0453156 0.0320959 2.22527e-21)
(0.0300512 0.0209313 -1.38509e-22)
(0.0333046 0.0236078 -7.35539e-22)
(0.0386192 0.0287613 1.00315e-21)
(0.00715343 0.00517117 -1.74442e-23)
(0.0112679 0.00722876 -7.30039e-24)
(0.00491519 0.0037232 1.46291e-23)
(0.00339012 0.00312469 -1.70925e-22)
(0.00291237 0.00299549 1.92676e-22)
(0.016007 0.0117203 -3.75832e-21)
(0.017774 0.0138277 8.69675e-22)
(0.00949871 -0.00423647 0)
(0.101389 0.00515945 0)
(0.0984001 0.015683 -4.33455e-21)
(0.0604442 0.0104754 2.25308e-21)
(0.0886855 0.0178798 0)
(0.133449 -0.0127868 0)
(0.132642 -0.0138636 0)
(0.132082 -0.0144909 -7.53009e-22)
(0.115259 0.0254407 -2.52115e-22)
(0.114409 0.0269144 2.47158e-21)
(0.113534 0.024391 1.32663e-21)
(0.00311566 0.00200751 7.96604e-22)
(0.00224365 0.0014073 -8.9411e-22)
(0.0215707 -0.00703551 -4.34612e-22)
(0.0234374 -0.00727418 3.44771e-22)
(0.0108918 -0.00413117 6.44034e-22)
(0.00653232 0.0113213 1.5765e-21)
(0.0191167 0.0184189 3.70225e-21)
(0.0135966 0.0230897 2.7524e-22)
(0.00496916 0.0144926 -9.21874e-21)
(0.119521 0.0472237 7.28656e-23)
(0.109567 0.0580262 1.30075e-21)
(0.12025 0.0543028 -2.24583e-21)
(0.0396334 -0.0297241 8.43574e-22)
(0.0243349 -0.017465 -5.62154e-22)
(0.00534409 -0.00065075 -4.3798e-21)
(0.00455732 -0.00352194 0)
(0.0125632 -0.00154446 2.15227e-21)
(0.0222343 -0.0163025 8.80684e-22)
(0.0346721 -0.0280443 -2.24898e-21)
(0.0603098 0.000233592 1.15783e-22)
(0.0635764 0.000384652 -7.6483e-23)
(0.0570618 0.000463935 -3.53337e-24)
(0.0283235 -0.0421891 0)
(0.0298686 -0.0429995 0)
(0.0896316 -0.0186478 -5.40541e-22)
(0.0996001 -0.0220828 3.63174e-21)
(0.0870354 -0.0252777 0)
(0.0476794 -0.0404834 0)
(0.0588303 -0.0516215 -8.93517e-22)
(0.0418653 0.0397646 2.28308e-21)
(0.00043117 0.000651174 2.7886e-22)
(0.000140694 0.000481025 -1.59925e-22)
(0.0225667 -0.0194176 -9.00415e-22)
(0.107608 -0.0102302 7.8168e-22)
(0.107409 -0.0097413 -1.45208e-22)
(0.121031 -0.000375138 -2.59605e-23)
(0.114681 0.00753898 3.45967e-23)
(0.123191 0.00679977 -4.4301e-23)
(0.000413444 0.000566448 1.23358e-22)
(0.0444736 0.0348563 3.61765e-21)
(0.0629527 0.0468113 -8.97333e-22)
(0.0605549 0.0399159 -3.70457e-24)
(0.0409796 -0.00148572 9.53452e-24)
(0.0404441 -0.00164444 5.31351e-23)
(0.0436256 -0.0017931 3.08779e-24)
(0.0483187 -0.00135892 -2.66929e-23)
(0.0461068 0.0385248 1.37563e-22)
(0.0192404 0.0162636 0)
(0.000540818 -0.000340862 1.74275e-22)
(0.000909099 -0.000777789 -1.93772e-22)
(0.00315456 -0.00210788 1.07274e-22)
(0.0391574 -0.00896166 -1.68598e-21)
(0.0685933 -0.00347279 -6.62662e-22)
(0.0551373 -0.00101836 -1.75097e-24)
(0.0773686 -0.00709194 2.50093e-22)
(0.0731309 -0.015689 -5.51704e-23)
(0.0949214 0.0396642 2.38715e-21)
(0.0921155 0.0452797 9.85286e-23)
(0.0891383 0.0289611 1.34323e-21)
(0.0918867 0.0306308 -9.7342e-22)
(0.0993617 0.0407258 0)
(0.122978 -0.00154198 2.10331e-22)
(0.123317 -0.00202536 4.07699e-22)
(0.126772 -0.00984458 -4.04598e-22)
(0.128042 -0.00937652 6.97785e-22)
(0.11721 0.0228132 3.14805e-22)
(0.119279 0.0235866 -8.94266e-22)
(0.117344 0.0248524 0)
(0.115352 0.0236957 1.82259e-22)
(0.117005 0.0268316 0)
(0.117825 0.0349324 -6.54437e-22)
(0.116431 0.0370958 -3.52547e-22)
(0.112148 0.0411629 -6.26793e-22)
(0.114503 0.039167 0)
(0.117354 0.0420708 2.10878e-21)
(0.114663 0.0441421 4.72735e-23)
(0.109185 0.043513 -3.47408e-22)
(0.100549 0.0499558 -1.46449e-21)
(0.0991848 0.0451603 -2.57014e-22)
(0.0349004 -0.0162538 -8.41729e-23)
(0.043731 -0.018419 3.17047e-23)
(0.00792238 -0.00384037 -4.88003e-22)
(0.0544485 0.000199381 -7.90937e-23)
(0.0672846 -0.000176384 0)
(0.000147258 -0.000174102 2.31697e-22)
(0.000144694 -0.000163469 1.16933e-22)
(0.0616765 -0.00240393 3.44624e-23)
(0.0708648 -0.00228735 1.21353e-23)
(0.070231 -0.00142843 0)
(0.0599431 -0.000826299 1.46745e-23)
(0.107553 0.000551678 -1.69342e-22)
(0.107532 0.000486341 8.12133e-22)
(0.10762 0.000498985 3.9566e-22)
(0.0012155 0.000745984 2.72791e-22)
(-5.35515e-05 -3.63534e-05 -4.24839e-22)
(-0.000101155 -9.328e-05 3.28264e-22)
(0.0018694 0.000870381 0)
(0.000157983 0.000155677 1.00217e-21)
(0.00027343 1.77697e-05 -6.76457e-22)
(0.0082674 0.00412484 -8.73682e-22)
(0.0016959 0.00091904 -1.09116e-21)
(0.00196306 0.000989266 0)
(0.00158709 0.00764753 0)
(0.000583088 0.00332574 0)
(0.000316411 0.00200483 0)
(0.133334 -0.0127787 1.42238e-22)
(0.133306 -0.012467 0)
(0.1325 -0.0139177 -1.62986e-22)
(0.0882794 -0.0146377 4.85927e-21)
(0.0902779 -0.015033 -1.76472e-21)
(0.0891858 -0.0126777 0)
(0.108997 9.0197e-06 -9.88518e-24)
(0.109032 8.18455e-06 1.97857e-23)
(0.108959 1.05919e-05 -6.68455e-24)
(0.109067 7.58606e-06 0)
(0.109099 7.53845e-06 -1.26272e-23)
(0.10913 6.99108e-06 0)
(0.109129 -2.57745e-05 0)
(0.109159 5.68016e-06 4.68732e-23)
(0.109157 -2.62445e-05 0)
(0.109099 -2.6441e-05 -1.27084e-23)
(0.109067 -2.73309e-05 0)
(0.109032 -2.82881e-05 6.61859e-24)
(0.108996 -2.93751e-05 -9.88293e-24)
(0.108959 -3.04154e-05 6.67619e-24)
(0.109186 4.66658e-06 -4.48538e-23)
(0.109185 -2.61409e-05 -1.57042e-24)
(0.108919 1.20967e-05 8.49486e-28)
(0.108919 -3.09944e-05 -1.02078e-23)
(0.108877 1.37139e-05 5.42859e-23)
(0.109212 4.29512e-06 4.19537e-26)
(0.109211 -2.52158e-05 -1.57236e-24)
(0.108877 -3.17072e-05 2.01168e-23)
(0.109237 3.75417e-06 4.22658e-23)
(0.10926 3.31603e-06 -4.22311e-23)
(0.109236 -2.43469e-05 3.16544e-24)
(0.10926 -2.34139e-05 6.25995e-24)
(0.108833 1.69915e-05 -5.28176e-23)
(0.108833 -3.3001e-05 -1.32404e-23)
(0.109283 2.82761e-06 0)
(0.109283 -2.25762e-05 -6.17443e-24)
(0.108786 1.91402e-05 6.53118e-27)
(0.108787 -3.37775e-05 -6.54756e-27)
(0.109304 2.4361e-06 0)
(0.109304 -2.16879e-05 0)
(0.108737 2.11675e-05 0)
(0.108737 -3.48074e-05 0)
(0.109324 2.03435e-06 0)
(0.109324 -2.08593e-05 2.96966e-24)
(0.108686 2.33918e-05 -2.7406e-23)
(0.108685 -3.57089e-05 -6.68801e-27)
(0.109344 1.6471e-06 1.55707e-25)
(0.109344 -2.00065e-05 -3.17164e-24)
(0.108631 2.56731e-05 2.75369e-23)
(0.10863 -3.67432e-05 0)
(0.109362 1.18275e-06 0)
(0.109362 -1.92497e-05 0)
(0.108573 2.83222e-05 -1.74286e-24)
(0.108572 -3.7597e-05 2.99122e-23)
(0.10938 6.59241e-07 1.92767e-23)
(0.10938 -1.84254e-05 0)
(0.108512 3.08092e-05 -1.49612e-25)
(0.108512 -3.8879e-05 -2.83113e-23)
(0.109396 -1.81865e-08 -2.88383e-23)
(0.109396 -1.77803e-05 -8.37217e-24)
(0.108446 3.22517e-05 2.88763e-23)
(0.108446 -4.01709e-05 0)
(0.109412 -7.88052e-07 9.50206e-24)
(0.109412 -1.71062e-05 5.58402e-24)
(0.108378 3.45495e-05 -1.4619e-23)
(0.108378 -4.21845e-05 2.96495e-23)
(0.109427 -1.56943e-06 -3.79937e-23)
(0.109428 -1.59118e-05 4.28224e-23)
(0.108303 3.47545e-05 1.50861e-23)
(0.108304 -4.42724e-05 4.77554e-25)
(0.109442 -2.38041e-06 0)
(0.109442 -1.51974e-05 2.04276e-23)
(0.108223 3.56055e-05 -3.03608e-23)
(0.108225 -4.74321e-05 6.07446e-23)
(0.109457 -2.58622e-06 0)
(0.109457 -1.52654e-05 0)
(0.108306 0.00011245 -1.49276e-23)
(0.108227 0.000118177 -6.0469e-23)
(0.108138 3.58731e-05 0)
(0.10814 -5.20337e-05 -3.09717e-23)
(0.10845 0.000100691 -9.37573e-24)
(0.10838 0.000106761 1.84044e-24)
(0.108576 8.88035e-05 0)
(0.108514 9.48751e-05 -3.0241e-23)
(0.108689 7.79208e-05 -5.83455e-26)
(0.108634 8.32405e-05 0)
(0.10879 6.78743e-05 0)
(0.108741 7.28143e-05 0)
(0.108881 5.81699e-05 0)
(0.108837 6.29858e-05 0)
(0.108961 5.08316e-05 1.3206e-23)
(0.108922 5.45304e-05 3.32786e-24)
(0.109034 4.46192e-05 -1.27349e-23)
(0.108999 4.76232e-05 -1.31913e-23)
(0.109101 3.93015e-05 2.2621e-23)
(0.109068 4.14544e-05 2.8929e-23)
(0.109161 3.48472e-05 0)
(0.109131 3.71569e-05 0)
(0.109214 3.05667e-05 -9.95428e-26)
(0.109188 3.266e-05 0)
(0.109262 2.69478e-05 0)
(0.109239 2.87009e-05 0)
(0.109306 2.37018e-05 0)
(0.109285 2.52995e-05 0)
(0.109345 2.06421e-05 0)
(0.109326 2.21475e-05 0)
(0.109381 1.78085e-05 0)
(0.109364 1.9212e-05 0)
(0.109413 1.51515e-05 0)
(0.109398 1.64673e-05 0)
(0.109443 1.18552e-05 -1.55456e-23)
(0.109429 1.38561e-05 0)
(0.109457 1.02588e-05 -5.02916e-24)
(0.10947 -3.17371e-06 4.90685e-24)
(0.10947 -1.50871e-05 -4.86602e-24)
(0.109428 -3.06362e-05 0)
(0.109457 -2.81152e-05 -1.99624e-23)
(0.109443 -2.9072e-05 -1.02659e-23)
(0.109397 -3.41529e-05 2.80543e-24)
(0.109413 -3.22827e-05 -1.09926e-23)
(0.109363 -3.74727e-05 9.08185e-26)
(0.10938 -3.59411e-05 0)
(0.109325 -4.06332e-05 0)
(0.109345 -3.90106e-05 0)
(0.109284 -4.4186e-05 0)
(0.109305 -4.23365e-05 0)
(0.109237 -4.824e-05 0)
(0.109261 -4.61603e-05 1.19297e-29)
(0.109186 -5.27499e-05 1.00565e-25)
(0.109213 -5.0449e-05 0)
(0.10913 -5.78259e-05 0)
(0.109159 -5.53748e-05 0)
(0.109068 -6.22425e-05 0)
(0.1091 -6.0124e-05 0)
(0.108999 -6.72975e-05 0)
(0.109034 -6.44724e-05 -6.68933e-24)
(0.108921 -7.34307e-05 1.75578e-24)
(0.108961 -7.08664e-05 -8.62643e-24)
(0.108836 -8.07145e-05 0)
(0.10888 -7.65312e-05 -7.01857e-24)
(0.10874 -8.80764e-05 0)
(0.10879 -8.43483e-05 0)
(0.108634 -9.63158e-05 0)
(0.108689 -9.20497e-05 0)
(0.108514 -0.000105849 0)
(0.108576 -0.000100966 0)
(0.108381 -0.000116457 -7.65715e-24)
(0.10845 -0.000110743 0)
(0.10823 -0.000129624 -3.10843e-23)
(0.108308 -0.000122329 -7.70679e-24)
(0.108147 -0.000138087 3.16628e-23)
(0.108142 0.000124375 5.9961e-23)
(0.109471 9.01769e-06 9.84513e-24)
(0.10947 -2.74018e-05 -1.92482e-23)
(0.108049 -5.79113e-05 0)
(0.108058 -0.000148525 0)
(0.108051 0.00013083 0)
(0.108047 3.5261e-05 0)
(0.108314 0.000188856 0)
(0.108153 0.000211598 1.50337e-23)
(0.108236 0.000199728 1.51646e-23)
(0.108457 0.000167582 1.92648e-23)
(0.108388 0.000178049 -3.85015e-24)
(0.108583 0.000148104 5.95471e-26)
(0.108522 0.00015739 0)
(0.108695 0.000131022 0)
(0.108641 0.000139355 0)
(0.108795 0.000115632 0)
(0.108747 0.000123115 0)
(0.108886 0.000102178 0)
(0.108842 0.000108594 0)
(0.108966 8.97434e-05 0)
(0.108927 9.57823e-05 0)
(0.109039 7.95056e-05 -5.34114e-26)
(0.109004 8.4705e-05 1.37719e-23)
(0.109104 7.07071e-05 -5.13183e-26)
(0.109073 7.46654e-05 -2.69055e-23)
(0.109164 6.28079e-05 0)
(0.109135 6.65715e-05 0)
(0.109217 5.5965e-05 4.97259e-26)
(0.109191 5.92808e-05 0)
(0.109265 4.99626e-05 0)
(0.109242 5.28663e-05 0)
(0.109308 4.45729e-05 0)
(0.109287 4.71935e-05 0)
(0.109348 3.96436e-05 0)
(0.109329 4.20416e-05 0)
(0.109383 3.50542e-05 0)
(0.109366 3.72966e-05 0)
(0.109415 3.0621e-05 0)
(0.1094 3.28192e-05 0)
(0.109445 2.56791e-05 1.06172e-23)
(0.109431 2.82222e-05 0)
(0.109483 -4.04289e-06 0)
(0.109484 8.00551e-06 9.64142e-24)
(0.109472 2.09113e-05 0)
(0.109459 2.31248e-05 1.0354e-23)
(0.109458 -4.14673e-05 2.06054e-23)
(0.109471 -4.00133e-05 5.06831e-24)
(0.109483 -2.66132e-05 3.95258e-23)
(0.109483 -1.47848e-05 0)
(0.10943 -4.59273e-05 0)
(0.109444 -4.34416e-05 -3.11011e-23)
(0.109399 -5.06968e-05 8.84025e-26)
(0.109415 -4.82428e-05 1.10595e-23)
(0.109365 -5.52525e-05 -9.08182e-26)
(0.109382 -5.29355e-05 0)
(0.109327 -6.02522e-05 0)
(0.109346 -5.76831e-05 0)
(0.109286 -6.58779e-05 0)
(0.109307 -6.29743e-05 0)
(0.10924 -7.2216e-05 0)
(0.109263 -6.896e-05 -1.19296e-29)
(0.109189 -7.92315e-05 -2.01099e-25)
(0.109215 -7.56487e-05 0)
(0.109133 -8.71823e-05 0)
(0.109162 -8.30391e-05 0)
(0.109071 -9.55799e-05 3.37813e-24)
(0.109103 -9.12923e-05 0)
(0.109003 -0.000104505 0)
(0.109038 -9.97951e-05 -3.36403e-24)
(0.108926 -0.000114678 7.03647e-24)
(0.108965 -0.000109541 6.99056e-24)
(0.108841 -0.000125848 0)
(0.108885 -0.000120199 0)
(0.108746 -0.000138272 0)
(0.108795 -0.000131874 0)
(0.10864 -0.000152368 0)
(0.108694 -0.00014509 0)
(0.108521 -0.000168444 0)
(0.108582 -0.000160167 0)
(0.108389 -0.000186663 1.22817e-25)
(0.108457 -0.000177264 0)
(0.10824 -0.000207842 -1.24699e-25)
(0.108317 -0.000196811 0)
(0.108071 -0.000235051 -3.26356e-23)
(0.108158 -0.000220817 3.26205e-23)
(0.108064 0.000224154 3.05861e-23)
(0.107963 -0.000160783 0)
(0.107978 -0.00025202 -6.64983e-23)
(0.107954 -6.42655e-05 0)
(0.109485 1.94789e-05 0)
(0.109484 -3.83275e-05 -4.92146e-24)
(0.107956 0.000137491 7.75533e-23)
(0.10797 0.000237675 3.10188e-23)
(0.107862 -0.000173877 1.67968e-23)
(0.107878 -0.000270464 8.40358e-23)
(0.10795 3.50371e-05 0)
(0.109474 3.41518e-05 4.05562e-23)
(0.109487 3.13662e-05 -2.00411e-23)
(0.109496 -2.61263e-05 -9.74771e-24)
(0.109497 -3.67247e-05 4.8486e-23)
(0.107992 0.000335928 1.08682e-22)
(0.107869 0.000252608 -6.10907e-23)
(0.107785 0.000382715 -2.76655e-22)
(0.107892 0.000357551 -6.20561e-23)
(0.10817 0.000297722 3.02874e-23)
(0.108084 0.000316254 -9.25146e-23)
(0.108328 0.000263756 -3.09462e-23)
(0.108251 0.000280331 -2.33472e-23)
(0.108469 0.000233678 -7.70746e-24)
(0.1084 0.000248393 -7.72275e-24)
(0.108593 0.000207178 -5.95471e-26)
(0.108533 0.000219923 0)
(0.108704 0.000183817 0)
(0.10865 0.00019517 0)
(0.108804 0.000163 0)
(0.108755 0.000173103 0)
(0.108893 0.000144593 0)
(0.10885 0.000153497 0)
(0.108973 0.000128267 0)
(0.108934 0.000136103 0)
(0.109045 0.000113909 0)
(0.10901 0.000120791 0)
(0.10911 0.000101405 6.55312e-30)
(0.109079 0.000107576 0)
(0.109169 9.06441e-05 0)
(0.10914 9.57733e-05 0)
(0.109222 8.11499e-05 4.97196e-26)
(0.109196 8.57644e-05 0)
(0.109269 7.27044e-05 0)
(0.109246 7.68034e-05 0)
(0.109312 6.51269e-05 0)
(0.109291 6.88173e-05 0)
(0.109351 5.82408e-05 0)
(0.109332 6.16033e-05 0)
(0.109386 5.18974e-05 0)
(0.109369 5.50058e-05 0)
(0.109418 4.59151e-05 0)
(0.109403 4.88767e-05 0)
(0.109447 3.98828e-05 5.41197e-24)
(0.109433 4.28793e-05 -2.72253e-24)
(0.109461 3.69525e-05 -2.06795e-23)
(0.109496 -4.33048e-06 -4.61557e-24)
(0.109497 1.80797e-05 1.93162e-23)
(0.109496 6.67958e-06 -1.475e-23)
(0.109496 -1.45457e-05 0)
(0.109459 -5.53273e-05 -1.53597e-23)
(0.109486 -5.00466e-05 -4.43892e-23)
(0.109473 -5.24746e-05 3.57119e-23)
(0.109432 -6.13157e-05 0)
(0.109446 -5.83402e-05 0)
(0.109401 -6.68336e-05 4.40541e-31)
(0.109417 -6.39134e-05 0)
(0.109367 -7.29553e-05 0)
(0.109384 -6.98115e-05 0)
(0.10933 -7.98018e-05 -9.32437e-26)
(0.109349 -7.62815e-05 0)
(0.109289 -8.74874e-05 0)
(0.10931 -8.35332e-05 0)
(0.109244 -9.60928e-05 0)
(0.109267 -9.16734e-05 0)
(0.109193 -0.000105645 1.00549e-25)
(0.109219 -0.000100753 0)
(0.109138 -0.000116256 1.02992e-25)
(0.109166 -0.000110793 0)
(0.109077 -0.000127865 0)
(0.109108 -0.000121919 0)
(0.109009 -0.000140699 0)
(0.109044 -0.000134167 0)
(0.108933 -0.000154818 0)
(0.108972 -0.000147476 0)
(0.108849 -0.000170476 0)
(0.108892 -0.000162452 0)
(0.108754 -0.000188091 -1.15311e-25)
(0.108803 -0.000179017 0)
(0.108649 -0.000208024 0)
(0.108703 -0.000197745 0)
(0.108532 -0.000230648 0)
(0.108592 -0.000218984 0)
(0.1084 -0.000256307 -8.5208e-30)
(0.108468 -0.00024308 0)
(0.108253 -0.000285529 1.30775e-29)
(0.108329 -0.000270442 0)
(0.108088 -0.000320278 1.29298e-25)
(0.108173 -0.000301834 0)
(0.107899 -0.000364044 -6.81298e-23)
(0.107997 -0.000340837 1.67404e-23)
(0.107773 -0.000289661 1.71447e-23)
(0.107797 -0.000389298 3.4022e-23)
(0.107854 0.000144335 -3.03209e-23)
(0.107851 -7.176e-05 -3.25588e-23)
(0.109499 2.92213e-05 4.91543e-24)
(0.109498 -4.80744e-05 3.4894e-23)
(0.107758 0.000266382 3.72307e-24)
(0.107755 -0.00018832 0)
(0.107654 0.00039495 4.22422e-22)
(0.107688 -0.00041597 5.25376e-23)
(0.107662 -0.000310623 7.006e-23)
(0.107672 0.000547724 -7.12188e-22)
(0.107579 0.000595845 1.26674e-22)
(0.107849 3.50477e-05 0)
(0.107835 0.000486645 6.99709e-23)
(0.107748 0.000521684 3.6434e-23)
(0.108022 0.000430032 6.30512e-23)
(0.107928 0.000456772 -9.62393e-23)
(0.108194 0.000380384 -3.13859e-23)
(0.10811 0.00040476 -1.56842e-23)
(0.108347 0.000336758 1.57289e-23)
(0.108273 0.000357685 1.59368e-23)
(0.108485 0.000298701 0)
(0.108418 0.00031711 -3.86467e-26)
(0.108607 0.000265421 0)
(0.108548 0.000281553 0)
(0.108716 0.00023592 5.82951e-26)
(0.108663 0.000250234 0)
(0.108815 0.000209726 0)
(0.108767 0.000222436 0)
(0.108903 0.000186508 0)
(0.10886 0.000197762 0)
(0.108982 0.000165995 0)
(0.108943 0.000175916 0)
(0.109053 0.000147917 5.33742e-26)
(0.109019 0.000156633 0)
(0.109117 0.000132043 4.94221e-30)
(0.109086 0.000139775 0)
(0.109175 0.00011821 0)
(0.109147 0.000124873 0)
(0.109227 0.000105987 -9.94351e-26)
(0.109202 0.000111922 0)
(0.109274 9.51113e-05 0)
(0.109251 0.000100393 0)
(0.109317 8.53651e-05 0)
(0.109296 9.01115e-05 0)
(0.109355 7.65433e-05 0)
(0.109336 8.08493e-05 0)
(0.10939 6.84886e-05 0)
(0.109373 7.24287e-05 0)
(0.109422 6.10364e-05 0)
(0.109406 6.47035e-05 0)
(0.10945 5.39559e-05 -2.7042e-24)
(0.109436 5.73609e-05 0)
(0.109477 4.73948e-05 0)
(0.109464 5.06673e-05 -5.25165e-24)
(0.109501 4.06191e-05 2.45038e-27)
(0.109489 4.39405e-05 0)
(0.109509 1.6612e-05 -1.95845e-23)
(0.109512 3.78656e-05 1.18392e-24)
(0.109511 2.7559e-05 9.60226e-24)
(0.109508 -4.34748e-06 7.04567e-24)
(0.109508 5.86933e-06 -4.86331e-24)
(0.109508 -2.57848e-05 -2.44794e-24)
(0.109508 -1.47301e-05 2.44402e-24)
(0.109509 -4.67935e-05 0)
(0.109508 -3.57696e-05 -2.22105e-23)
(0.109487 -6.27764e-05 -9.98242e-24)
(0.10951 -5.81836e-05 -1.91078e-23)
(0.109499 -6.02184e-05 4.39711e-23)
(0.109462 -6.89459e-05 -5.22878e-24)
(0.109475 -6.56845e-05 0)
(0.109434 -7.59474e-05 0)
(0.109448 -7.24495e-05 0)
(0.109404 -8.28035e-05 -5.94416e-31)
(0.109419 -7.9332e-05 0)
(0.109371 -9.05052e-05 0)
(0.109388 -8.65404e-05 0)
(0.109334 -9.91528e-05 9.32437e-26)
(0.109353 -9.47061e-05 0)
(0.109293 -0.000108849 0)
(0.109314 -0.000103864 0)
(0.109248 -0.000119687 0)
(0.109271 -0.000114122 0)
(0.109199 -0.000131744 0)
(0.109224 -0.00012556 0)
(0.109144 -0.000145123 -3.32772e-30)
(0.109172 -0.000138261 0)
(0.109084 -0.00015988 0)
(0.109115 -0.000152318 0)
(0.109016 -0.000176236 0)
(0.109051 -0.000167864 0)
(0.108942 -0.000194378 0)
(0.10898 -0.000185031 0)
(0.108858 -0.000214626 0)
(0.108901 -0.000204219 0)
(0.108765 -0.000237387 1.15311e-25)
(0.108813 -0.000225668 0)
(0.108662 -0.000263099 0)
(0.108715 -0.000249847 0)
(0.108546 -0.000292234 0)
(0.108605 -0.000277214 0)
(0.108416 -0.00032527 -1.22796e-25)
(0.108483 -0.000308235 0)
(0.108271 -0.000362742 1.2531e-25)
(0.108346 -0.000343422 0)
(0.108109 -0.000405475 -1.27837e-25)
(0.108192 -0.000383368 0)
(0.107926 -0.00045618 1.68463e-23)
(0.10802 -0.000429307 -3.32082e-23)
(0.10772 -0.000518146 -1.70211e-23)
(0.107826 -0.000485673 3.45436e-23)
(0.107573 -0.000444307 6.76136e-25)
(0.107607 -0.000552611 3.50424e-23)
(0.107746 0.000150348 -3.1202e-23)
(0.107744 -7.85239e-05 0)
(0.107645 0.000278809 -3.02773e-22)
(0.107642 -0.000200214 0)
(0.109503 5.33918e-05 -4.92395e-24)
(0.109514 5.02482e-05 3.60716e-24)
(0.10952 -4.53385e-05 -1.88196e-23)
(0.109522 -5.6145e-05 -2.1331e-23)
(0.107529 0.000396518 -2.97242e-22)
(0.107544 -0.000332744 -7.07455e-23)
(0.107483 0.000602377 0)
(0.107704 0.000656628 -8.23671e-23)
(0.10745 -0.000474739 -3.47372e-23)
(0.107488 -0.00058959 5.32666e-23)
(0.107597 0.000689031 1.65226e-22)
(0.107742 3.49197e-05 0)
(0.10788 0.00058481 0)
(0.107792 0.000621728 -7.32484e-23)
(0.108057 0.000519171 0)
(0.107969 0.000551149 0)
(0.108223 0.000459559 0)
(0.108142 0.000488409 1.62491e-23)
(0.108371 0.000407885 0)
(0.108299 0.000432849 0)
(0.108505 0.000362561 0)
(0.10844 0.000384468 0)
(0.108624 0.000322603 0)
(0.108566 0.000341985 0)
(0.108732 0.00028718 -5.82951e-26)
(0.108679 0.000304362 0)
(0.108828 0.000255747 0)
(0.108781 0.000270998 0)
(0.108915 0.000227865 0)
(0.108873 0.000241387 0)
(0.108993 0.000203183 0)
(0.108955 0.000215142 0)
(0.109063 0.000181404 -5.83428e-30)
(0.109029 0.000191945 0)
(0.109126 0.000162236 5.37638e-30)
(0.109095 0.000171526 0)
(0.109183 0.000145384 0)
(0.109155 0.000153536 0)
(0.109234 0.00013048 4.7349e-30)
(0.109209 0.000137714 0)
(0.109281 0.000117215 0)
(0.109258 0.00012366 0)
(0.109323 0.000105333 0)
(0.109302 0.000111118 0)
(0.10936 9.46094e-05 0)
(0.109342 9.9839e-05 0)
(0.109395 8.48728e-05 0)
(0.109378 8.96274e-05 0)
(0.109426 7.59967e-05 0)
(0.10941 8.03329e-05 0)
(0.109454 6.79724e-05 0)
(0.10944 7.19055e-05 0)
(0.10948 6.00031e-05 5.21697e-24)
(0.109467 6.38347e-05 5.33139e-24)
(0.109492 5.64846e-05 -1.00208e-23)
(0.10952 1.53688e-05 -9.61919e-24)
(0.109523 3.59532e-05 0)
(0.109522 2.59881e-05 -9.71432e-24)
(0.109519 -4.57419e-06 0)
(0.109519 5.50389e-06 9.817e-24)
(0.109519 -2.55359e-05 1.46518e-23)
(0.109519 -1.50899e-05 -4.95164e-24)
(0.109519 -3.51099e-05 -2.8792e-23)
(0.10949 -7.54934e-05 5.03558e-24)
(0.109513 -6.87435e-05 1.87793e-23)
(0.109501 -7.26136e-05 0)
(0.109465 -8.26331e-05 -1.04189e-23)
(0.109478 -7.88884e-05 1.04533e-23)
(0.109438 -9.02864e-05 0)
(0.109452 -8.65234e-05 0)
(0.109408 -9.85384e-05 -1.23039e-30)
(0.109423 -9.43091e-05 0)
(0.109375 -0.000107819 0)
(0.109392 -0.000103043 0)
(0.109339 -0.000118237 0)
(0.109357 -0.000112881 0)
(0.109299 -0.000129906 0)
(0.109319 -0.000123909 0)
(0.109255 -0.000142941 0)
(0.109277 -0.000136248 0)
(0.109206 -0.000157454 1.0054e-25)
(0.109231 -0.000150007 0)
(0.109152 -0.000173582 -1.02988e-25)
(0.10918 -0.000165309 0)
(0.109092 -0.000191457 0)
(0.109123 -0.00018229 0)
(0.109026 -0.000211305 0)
(0.10906 -0.000201123 0)
(0.108953 -0.000233415 0)
(0.10899 -0.000222051 0)
(0.108871 -0.000258152 0)
(0.108913 -0.000245433 0)
(0.108779 -0.00028596 0)
(0.108826 -0.000271645 0)
(0.108677 -0.000317345 0)
(0.10873 -0.000301175 0)
(0.108563 -0.000352857 -1.20272e-25)
(0.108622 -0.000334554 0)
(0.108436 -0.000393088 1.22774e-25)
(0.108501 -0.000372345 0)
(0.108294 -0.000438719 -1.25285e-25)
(0.108367 -0.000415188 0)
(0.108134 -0.000490553 0)
(0.108216 -0.000463802 0)
(0.107956 -0.000549652 0)
(0.108048 -0.000519097 0)
(0.107756 -0.000618786 1.3454e-25)
(0.107859 -0.000582443 1.70165e-23)
(0.10753 -0.000702005 -8.92569e-23)
(0.107646 -0.00065861 0)
(0.10736 -0.000630919 -5.28043e-23)
(0.107407 -0.000749255 -6.8251e-25)
(0.107633 0.000156362 9.76333e-23)
(0.107631 -8.4729e-05 0)
(0.109525 4.68208e-05 -1.87518e-23)
(0.109523 -6.6025e-05 -3.61585e-23)
(0.107518 0.0002824 -5.20249e-23)
(0.107427 0.000522321 7.02465e-25)
(0.1074 0.000402274 1.51595e-22)
(0.107524 -0.000212528 0)
(0.10742 -0.000353493 1.78044e-23)
(0.107473 0.000719679 -1.51403e-22)
(0.107353 0.000730361 1.31236e-22)
(0.10732 0.000577559 -1.30035e-22)
(0.107321 -0.000506098 -5.35384e-23)
(0.107225 -0.000673514 3.58796e-23)
(0.107275 -0.000801984 3.51576e-23)
(0.107628 3.4436e-05 0)
(0.107737 0.000761857 4.59905e-24)
(0.107503 0.000853205 -7.41019e-25)
(0.107624 0.000805681 3.5644e-23)
(0.107923 0.000679348 3.52168e-23)
(0.107834 0.000719586 -3.53998e-23)
(0.108096 0.000603799 6.45201e-26)
(0.10801 0.000640832 0)
(0.108255 0.000536461 0)
(0.108177 0.000569023 0)
(0.108399 0.000477174 0)
(0.108329 0.0005059 0)
(0.108528 0.000424821 0)
(0.108465 0.000450177 0)
(0.108645 0.000378497 5.95162e-26)
(0.108588 0.000400966 0)
(0.10875 0.000337401 0)
(0.108699 0.00035734 0)
(0.108844 0.000300902 0)
(0.108798 0.000318614 0)
(0.108929 0.00026849 0)
(0.108888 0.000284215 0)
(0.109006 0.000239749 0)
(0.108968 0.000253685 0)
(0.109074 0.000214331 -5.33684e-26)
(0.109041 0.000226647 0)
(0.109136 0.000191897 6.11947e-30)
(0.109106 0.000202768 0)
(0.109192 0.0001721 0)
(0.109165 0.000181691 0)
(0.109243 0.000154566 9.94162e-26)
(0.109218 0.000163076 0)
(0.109288 0.00013895 0)
(0.109266 0.000146538 0)
(0.109329 0.000124967 0)
(0.109309 0.000131772 0)
(0.109366 0.000112375 0)
(0.109348 0.000118511 0)
(0.1094 0.000100983 0)
(0.109384 0.000106539 0)
(0.10943 9.06572e-05 0)
(0.109416 9.56928e-05 0)
(0.109458 8.13523e-05 8.49022e-26)
(0.109445 8.58892e-05 0)
(0.109483 7.26864e-05 -5.23976e-24)
(0.109471 7.70475e-05 0)
(0.109506 6.41816e-05 4.98962e-24)
(0.109495 6.83591e-05 0)
(0.109528 5.67689e-05 4.7733e-24)
(0.109517 6.03954e-05 -4.87468e-24)
(0.109534 3.4097e-05 9.43346e-24)
(0.109538 5.30725e-05 0)
(0.109536 4.43194e-05 1.40407e-23)
(0.109531 1.47213e-05 0)
(0.109532 2.42212e-05 0)
(0.109529 -5.00239e-06 0)
(0.10953 5.10004e-06 0)
(0.109529 -2.54156e-05 0)
(0.109529 -1.52205e-05 0)
(0.109531 -4.43324e-05 1.91802e-23)
(0.10953 -3.47291e-05 4.76902e-24)
(0.109534 -6.37584e-05 4.72144e-24)
(0.109532 -5.4093e-05 3.76132e-23)
(0.109515 -7.98399e-05 2.44807e-23)
(0.109536 -7.37544e-05 4.70394e-24)
(0.109525 -7.65545e-05 -9.54562e-24)
(0.109493 -8.74912e-05 5.03072e-24)
(0.109504 -8.34869e-05 -3.01551e-23)
(0.109469 -9.5874e-05 3.55024e-30)
(0.109481 -9.16175e-05 0)
(0.109442 -0.000104373 0)
(0.109455 -9.99965e-05 0)
(0.109412 -0.00011401 -1.87943e-30)
(0.109427 -0.000109052 0)
(0.10938 -0.000124847 0)
(0.109397 -0.000119272 0)
(0.109345 -0.000137003 0)
(0.109363 -0.000130753 0)
(0.109305 -0.000150608 0)
(0.109325 -0.000143617 0)
(0.109262 -0.000165799 0)
(0.109284 -0.000157998 0)
(0.109214 -0.000182723 -2.01075e-25)
(0.109239 -0.000174037 0)
(0.109161 -0.000201553 0)
(0.109189 -0.00019189 0)
(0.109103 -0.000222482 0)
(0.109133 -0.000211742 0)
(0.109038 -0.000245776 0)
(0.109071 -0.000233818 0)
(0.108966 -0.000271778 0)
(0.109003 -0.000258414 0)
(0.108885 -0.000300903 -1.12809e-25)
(0.108927 -0.000285924 0)
(0.108796 -0.000333645 0)
(0.108842 -0.000316791 0)
(0.108696 -0.000370571 0)
(0.108747 -0.000351551 0)
(0.108584 -0.0004123 1.20272e-25)
(0.108642 -0.000390798 0)
(0.10846 -0.000459524 -1.56536e-29)
(0.108524 -0.000435182 0)
(0.108321 -0.000513041 2.50552e-25)
(0.108392 -0.000485446 0)
(0.108165 -0.00057379 0)
(0.108245 -0.000542452 0)
(0.107991 -0.000642843 0)
(0.10808 -0.000607197 0)
(0.107796 -0.000721508 -3.16646e-29)
(0.107896 -0.000680894 0)
(0.107578 -0.000812066 0)
(0.10769 -0.000765117 0)
(0.107332 -0.000922188 -5.34203e-23)
(0.107459 -0.000864194 0)
(0.107136 -0.000857177 -6.79404e-25)
(0.107197 -0.000986385 9.10445e-23)
(0.10751 0.000160286 0)
(0.107384 0.000887049 2.06523e-22)
(0.107386 0.000286835 3.56425e-23)
(0.109531 6.65975e-05 -4.76432e-24)
(0.109541 6.30485e-05 0)
(0.109544 -6.18974e-05 4.60501e-24)
(0.109546 -7.10832e-05 -9.12699e-24)
(0.107511 -9.03276e-05 0)
(0.107399 -0.000225735 0)
(0.107276 0.000435009 0)
(0.107288 -0.00037526 -1.75358e-23)
(0.107182 -0.000540202 -3.5505e-23)
(0.107081 -0.000720895 0)
(0.106988 -0.000916566 9.19172e-23)
(0.107054 -0.00105382 -7.34265e-23)
(0.107507 3.44835e-05 0)
(0.107549 0.000973878 -1.7155e-26)
(0.107252 0.000924229 6.55627e-23)
(0.107303 0.00107706 -2.34562e-22)
(0.107429 0.00102551 6.80581e-23)
(0.107776 0.000864481 -2.22026e-23)
(0.107665 0.000916857 -3.53406e-23)
(0.107966 0.000770459 0)
(0.107875 0.000816001 0)
(0.108135 0.000686009 -6.45141e-26)
(0.108052 0.000727169 0)
(0.10829 0.000610894 0)
(0.108215 0.00064731 0)
(0.108429 0.000544299 0)
(0.108361 0.000576597 0)
(0.108555 0.000485287 0)
(0.108494 0.000513904 0)
(0.108668 0.000432936 -5.95162e-26)
(0.108613 0.000458338 0)
(0.10877 0.000386414 0)
(0.108721 0.000408995 0)
(0.108862 0.000345038 0)
(0.108818 0.000365123 0)
(0.108945 0.000308244 0)
(0.108905 0.000326102 0)