/*--------------------------------*- C++ -*----------------------------------*\
  =========                 |
  \\      /  F ield         | OpenFOAM: The Open Source CFD Toolbox
   \\    /   O peration     | Website:  https://openfoam.org
    \\  /    A nd           | Version:  10
     \\/     M anipulation  |
\*---------------------------------------------------------------------------*/
FoamFile
{
    format      ascii;
    class       volScalarField;
    location    "38.5";
    object      p;
}
// * * * * * * * * * * * * * * * * * * * * * * * * * * * * * * * * * * * * * //

dimensions      [0 2 -2 0 0 0 0];

internalField   nonuniform List<scalar> 
28942
(
-2.50486
-2.55413
-3.63649
0.710979
0.760491
-0.062355
-0.053089
-0.0621118
-0.592345
-0.524583
-6.6193
-6.55746
-6.45854
-6.46442
-0.0333249
-0.0215389
2.62509
2.72412
-1.1406
-0.0572393
2.1898
2.17869
-6.93946
-6.94252
-7.13288
-6.49811
3.67586
4.00368
-1.94231
-1.91379
-0.147965
-0.14404
0.0245878
-0.0414942
1.46366
1.74979
3.21547
3.83088
-0.0805893
2.99319
1.7825
1.74244
0.167554
0.192491
0.229378
-0.0469878
-0.0417168
-0.0330432
-0.0336416
-0.0312274
-0.0179084
-0.067795
-0.080504
-0.593961
-0.513055
-4.72859
-3.95644
-6.63453
-6.51558
-6.63676
-6.68564
-6.67196
-6.65917
-2.82192
-3.35722
-2.16914
-1.7434
1.85512
1.6577
-2.45497
-2.50199
-2.60116
1.61177
1.61334
1.53555
-0.924393
-0.919311
-0.491173
-3.47391
-4.1249
-3.14429
-4.26008
-2.4796
-2.5149
0.361932
0.839228
1.26874
1.15749
0.788254
0.887381
1.09527
1.34703
-7.05464
-6.92736
-6.36036
-6.34155
-6.47164
1.21478
1.39018
-2.65373
0.803844
0.819197
0.876603
0.809116
0.0576106
0.0475288
0.020615
1.36027
1.39964
1.40397
-6.59516
-6.57569
-2.78151
-2.72873
-2.59657
5.05013
4.69583
4.59385
4.88449
0.514766
1.30822
0.954713
-1.38816
-1.63208
5.21605
5.30395
5.06834
-1.49462
-1.13339
-0.0331803
-0.0271937
-0.0375831
1.42329
2.27717
1.46316
1.42829
1.63235
-0.345689
0.809732
2.64424
-7.02909
-6.9212
-1.15354
0.273872
0.281288
-3.35315
-3.41476
-3.06312
-6.82697
1.72269
1.5944
0.507432
-0.104932
-0.115892
-0.110169
-0.107615
2.15375
1.44431
-5.15458
-4.28138
-3.97766
-2.1463
-1.92735
-0.0769119
-6.07902
-5.92957
2.32493
2.42843
2.58862
2.49648
2.19393
0.692324
0.67438
-0.317744
-0.351251
1.2407
1.18237
1.28146
1.33151
1.32829
1.39606
1.46592
1.65863
1.55445
1.4695
1.58546
1.77646
2.10657
2.16928
-1.712
-0.921388
-2.72239
-0.0454723
-0.0279762
-4.61974
-4.16994
-0.0264255
-0.0199634
-0.0215634
-0.0308394
-1.47538
-1.55191
-1.57151
-6.55338
-6.66426
-6.72243
-6.80125
-6.8082
-6.76032
-7.05362
-7.31117
-7.12025
5.00075
4.84183
5.04434
0.0884414
0.124957
0.0860659
2.28525
2.1848
2.25502
-1.9371
-1.79751
-2.11431
-1.69399
-1.62353
-1.5838
-1.54539
-1.57355
-1.52427
-1.59391
-1.67313
-1.78555
-1.93601
-2.12363
-1.59125
-1.53067
-2.33147
-2.35708
-2.59391
-1.63363
-1.56353
-2.63131
-1.70079
-1.7941
-1.61989
-1.70052
-2.87991
-2.93075
-1.91261
-1.80405
-3.18705
-3.251
-2.05324
-1.92823
-3.49974
-3.57747
-2.20713
-2.06553
-3.79835
-3.89026
-2.36441
-2.20737
-4.06243
-4.16665
-2.51145
-2.34171
-4.27097
-4.38374
-2.6371
-2.45824
-4.40514
-4.52336
-2.72817
-2.54453
-4.45464
-4.57568
-2.77765
-2.59472
-4.41649
-4.53053
-2.77891
-2.60231
-4.28826
-4.39227
-2.73618
-2.56478
-4.08087
-4.16939
-2.64367
-2.48518
-4.09347
-3.90154
-3.80496
-3.87902
-4.24017
-4.21005
-4.06001
-4.18958
-3.6155
-3.86301
-3.04269
-3.33581
-2.48181
-2.75432
-2.05713
-2.25322
-1.77142
-1.89516
-1.61989
-1.68005
-1.58957
-1.59009
-1.67012
-1.61697
-1.85666
-1.74969
-2.14538
-1.99033
-2.47947
-2.31223
-2.76528
-2.63456
-2.90886
-2.85948
-2.85539
-2.90808
-2.75517
-2.51123
-2.36759
-2.40058
-2.2959
-2.36645
-2.34578
-2.39243
-2.15743
-2.26413
-1.90834
-2.03553
-1.67726
-1.78614
-1.51886
-1.58743
-1.44954
-1.47278
-1.47875
-1.45099
-1.61956
-1.53475
-1.89293
-1.73772
-2.32474
-2.08893
-2.90099
-2.5948
-3.55905
-3.22728
-4.15889
-3.87717
-4.52618
-4.38115
-4.53583
-4.58024
-4.1685
-4.39616
-3.86778
-3.6453
-2.61491
-2.19261
-3.54166
-3.52376
-3.34562
-3.48357
-3.81412
-3.40553
-3.63864
-3.94714
-3.91997
-3.78127
-3.89905
-3.37562
-3.60198
-2.85133
-3.11945
-2.34764
-2.58932
-1.9612
-2.13838
-1.71051
-1.82042
-1.5868
-1.63243
-1.5791
-1.56911
-1.68009
-1.61642
-1.88849
-1.77063
-2.19483
-2.03198
-2.54015
-2.36779
-2.83424
-2.69993
-2.97948
-2.93049
-2.91971
-2.97608
-2.35023
-2.44535
-2.67113
-2.81547
-2.08402
-1.99578
-2.0602
-2.22116
-2.17279
-2.14448
-2.11845
-2.16282
-1.94892
-2.04453
-1.72926
-1.84068
-1.53092
-1.62367
-1.39866
-1.45525
-1.34858
-1.36274
-1.39098
-1.35753
-1.53951
-1.45098
-1.81621
-1.66005
-2.24522
-2.01272
-2.81743
-2.51534
-3.46814
-3.13994
-4.06256
-3.78299
-4.42735
-4.28366
-4.43692
-4.48061
-4.07812
-4.29958
-3.44419
-3.78301
-3.13965
-3.16891
-3.09016
-3.19197
-2.49953
-1.88319
-3.03777
-2.87358
-2.82781
-2.74994
-3.14554
-2.68114
-2.50739
-1.91718
-1.76013
-2.64567
-2.62454
-2.14672
-2.4056
-3.10239
-2.87452
-3.47154
-3.30929
-3.59605
-3.56971
-3.45045
-3.5543
-3.09116
-3.29217
-2.62544
-2.86328
-2.18256
-2.39428
-1.84177
-1.99716
-1.62607
-1.71878
-1.5296
-1.56323
-1.54302
-1.52318
-1.66122
-1.58914
-1.884
-1.75956
-2.19955
-2.03255
-2.55344
-2.37674
-2.85309
-2.71682
-2.99704
-2.9495
-2.93253
-2.99125
-2.82647
-2.17782
-2.31028
-2.26289
-2.05917
-1.85687
-1.69217
-1.78438
-1.92405
-1.90594
-1.87601
-1.91582
-1.72725
-1.81057
-1.5385
-1.63366
-1.3718
-1.4493
-1.26447
-1.3095
-1.23214
-1.23832
-1.28507
-1.24732
-1.4367
-1.34747
-1.7105
-1.55652
-2.12754
-1.90102
-2.68061
-2.3894
-3.30755
-2.99133
-3.88181
-3.61137
-4.23611
-4.09649
-4.24372
-4.28782
-3.89866
-4.11074
-3.30437
-3.62337
-2.63346
-2.9658
-2.43993
-2.32978
-2.76107
-2.85466
-2.31624
-1.58682
-2.37965
-2.51575
-1.855
-2.06431
-2.16972
-1.49269
-1.40052
-2.8351
-1.87949
-1.66459
-2.35843
-2.12404
-2.76124
-2.56464
-3.08718
-2.94258
-3.20492
-3.1787
-3.08378
-3.17195
-2.77396
-2.94766
-2.37159
-2.57689
-1.98968
-2.17232
-1.69822
-1.83041
-1.51939
-1.59472
-1.44937
-1.47132
-1.48049
-1.45265
-1.61107
-1.53324
-1.84275
-1.71436
-2.16412
-1.9944
-2.52141
-2.34357
-2.81941
-2.68449
-2.95997
-2.914
-2.89298
-2.95262
-2.64093
-2.78698
-2.27793
-2.46649
-2.11903
-2.08498
-2.12126
-2.00451
-2.07873
-1.77716
-1.90067
-1.48084
-1.63652
-1.48666
-1.31304
-1.4018
-1.62108
-1.5618
-1.67435
-1.66116
-1.62728
-1.66298
-1.49948
-1.57066
-1.34115
-1.42045
-1.20474
-1.26771
-1.12103
-1.15522
-1.10422
-1.10366
-1.16454
-1.12408
-1.31581
-1.22765
-1.58023
-1.43237
-1.97668
-1.76164
-2.49754
-2.22382
-3.08635
-2.78933
-3.62646
-3.37196
-3.9618
-3.82901
-3.96918
-4.01168
-3.64342
-3.84272
-3.09813
-3.38851
-2.48257
-2.79109
-1.93583
-2.19245
-1.84092
-1.71889
-2.51639
-2.55961
-2.12172
-2.24564
-2.20193
-2.01572
-1.38012
-1.22839
-1.68295
-1.94061
-1.39996
-1.36336
-1.65729
-1.54051
-1.31318
-2.56442
-1.64303
-1.46818
-2.05276
-1.84652
-2.40908
-2.23979
-2.68816
-2.5629
-2.79576
-2.76868
-2.697
-2.77034
-2.43588
-2.58236
-2.09712
-2.26982
-1.77642
-1.92968
-1.53485
-1.64374
-1.39249
-1.45115
-1.34665
-1.35793
-1.39287
-1.35836
-1.53311
-1.45091
-1.77069
-1.63991
-2.09256
-1.92335
-2.44465
-2.26999
-2.73546
-2.60405
-2.87098
-2.82708
-2.80311
-2.86265
-2.55368
-2.69705
-2.38438
-1.93725
-1.89872
-1.9349
-1.84262
-1.90635
-1.64741
-1.75524
-1.52126
-1.2768
-1.13964
-1.20904
-1.38548
-1.33707
-1.42472
-1.41522
-1.38153
-1.4129
-1.27417
-1.33355
-1.14499
-1.2093
-1.03639
-1.08612
-0.973575
-0.998335
-0.969402
-0.96354
-1.03415
-0.992521
-1.1812
-1.09629
-1.43074
-1.29188
-1.79915
-1.59983
-2.27809
-2.02689
-2.81712
-2.54522
-3.31238
-3.0789
-3.62031
-3.4982
-3.62745
-3.66664
-3.32797
-3.51104
-2.83301
-3.09489
-2.28416
-2.55836
-1.78662
-2.02404
-1.40732
-1.58032
-1.39744
-1.27004
-2.27575
-2.29816
-1.83244
-1.06809
-1.87024
-1.44685
-1.55114
-2.01815
-1.75441
-1.27796
-1.24048
-1.36479
-1.51145
-1.29014
-1.16396
-2.31788
-1.23391
-1.14105
-1.1887
-1.42641
-1.30419
-1.75978
-1.5883
-2.06015
-1.91789
-2.29133
-2.18728
-2.3843
-2.3594
-2.30577
-2.36527
-2.09132
-2.21165
-1.81374
-1.95511
-1.55238
-1.67702
-1.35866
-1.44533
-1.2501
-1.29357
-1.22592
-1.22769
-1.28533
-1.24504
-1.43308
-1.34777
-1.67198
-1.54148
-1.98709
-1.82223
-2.32732
-2.15887
-2.606
-2.48039
-2.73392
-2.69302
-2.66652
-2.72478
-2.42675
-2.56391
-2.09041
-2.26538
-1.73895
-1.91261
-1.72896
-1.57778
-1.66372
-1.77427
-1.76633
-1.70066
-1.75082
-1.53347
-1.6277
-1.2905
-1.41931
-1.00565
-1.15181
-0.96131
-0.857229
-0.906387
-1.0713
-1.01877
-1.15523
-1.11891
-1.1835
-1.17765
-1.14532
-1.17223
-1.05735
-1.10557
-0.954643
-1.00548
-0.870933
-0.908835
-0.826242
-0.842935
-0.832054
-0.82223
-0.898535
-0.857072
-1.03826
-0.958266
-1.26889
-1.14113
-1.60373
-1.42318
-2.03366
-1.80871
-2.51456
-2.27213
-2.95672
-2.7481
-3.23276
-3.12304
-3.239
-3.27595
-2.9711
-3.13433
-2.52719
-2.76217
-2.04454
-2.28382
-1.60845
-1.81776
-1.26346
-1.42167
-1.03436
-1.13482
-1.0855
-0.956353
-2.02479
-1.11029
-1.69147
-1.62302
-1.4727
-0.952504
-0.817455
-2.06938
-1.82906
-1.4705
-1.6037
-1.3979
-1.20713
-1.02686
-0.898684
-2.08478
-0.992397
-1.09717
-0.954538
-0.961867
-1.08417
-1.03977
-1.22443
-1.13825
-1.48018
-1.34517
-1.72335
-1.60808
-1.90937
-1.82556
-1.98661
-1.96513
-1.92594
-1.97278
-1.75505
-1.85098
-1.53412
-1.64654
-1.32751
-1.42576
-1.17733
-1.24389
-1.09888
-1.12891
-1.09373
-1.08716
-1.1641
-1.11918
-1.31569
-1.22942
-1.55018
-1.42298
-1.85271
-1.69498
-2.17554
-2.01609
-2.43743
-2.31971
-2.55628
-2.51866
-2.49117
-2.54668
-2.26517
-2.39442
-1.94915
-2.11331
-1.78359
-1.58121
-1.43476
-1.51838
-1.6334
-1.62099
-1.58017
-1.61902
-1.43535
-1.51852
-1.2148
-1.33253
-1.08703
-0.78934
-0.71181
-0.747693
-0.874446
-0.833467
-0.937624
-0.910182
-0.956767
-0.953718
-0.924083
-0.946491
-0.853992
-0.892083
-0.774718
-0.81365
-0.712356
-0.740248
-0.682538
-0.692698
-0.695789
-0.683199
-0.761718
-0.721578
-0.891738
-0.817863
-1.10085
-0.985525
-1.39905
-1.23888
-1.77624
-1.57948
-2.19448
-1.98387
-2.57839
-2.39723
-2.81852
-2.72285
-2.82408
-2.85915
-2.59124
-2.7323
-2.20447
-2.4104
-1.78222
-1.99071
-1.40717
-1.58663
-1.10805
-1.24638
-0.900338
-0.993749
-0.768346
-0.825995
-1.31813
-1.21334
-0.855919
-0.725821
-1.81877
-1.33785
-0.68187
-0.968306
-1.87629
-1.10216
-1.57921
-1.67521
-1.42145
-1.48854
-1.31495
-1.14832
-0.985445
-0.826751
-0.692857
-1.88252
-0.811305
-0.997206
-0.863719
-0.830214
-0.839925
-0.816193
-0.916736
-0.875299
-1.03074
-0.966299
-1.21973
-1.11817
-1.41036
-1.31973
-1.55508
-1.48994
-1.61678
-1.59913
-1.57101
-1.60688
-1.43902
-1.51316
-1.26837
-1.35515
-1.10993
-1.18501
-0.997628
-1.04677
-0.945036
-0.963572
-0.955746
-0.942337
-1.03383
-0.986021
-1.18494
-1.1
-1.41042
-1.28877
-1.69595
-1.54763
-1.99656
-1.84856
-2.2383
-2.12984
-2.34709
-2.31282
-2.28598
-2.33771
-2.077
-2.19643
-1.78744
-1.93733
-1.4877
-1.63488
-1.22595
-1.35088
-1.31541
-1.11622
-1.22123
-1.4589
-1.3954
-1.51805
-1.50051
-1.48043
-1.51108
-1.35332
-1.42725
-1.15463
-1.26116
-0.913969
-1.03738
-0.659809
-0.786924
-0.569976
-0.534273
-0.549331
-0.628183
-0.596938
-0.689744
-0.659344
-0.736487
-0.716561
-0.74863
-0.747581
-0.721507
-0.739599
-0.66731
-0.696496
-0.608149
-0.636954
-0.563492
-0.583134
-0.545539
-0.550586
-0.563875
-0.549614
-0.627469
-0.589491
-0.746195
-0.679219
-0.932442
-0.830193
-1.19304
-1.05366
-1.5169
-1.34863
-1.87159
-1.69333
-2.19583
-2.0429
-2.39639
-2.31741
-2.40011
-2.42526
-2.20547
-2.32423
-1.87943
-2.05369
-1.51592
-1.69605
-1.19456
-1.34734
-0.942573
-1.05925
-0.761396
-0.843863
-0.6394
-0.694005
-0.562558
-0.596417
-1.31354
-1.22046
-0.670736
-0.53722
-1.67569
-1.72204
-0.906418
-1.03913
-1.12585
-1.50909
-1.55855
-1.10429
-1.00331
-0.646109
-0.527351
-1.3896
-1.40351
-1.25572
-1.10825
-0.95935
-0.809023
-0.961237
-0.817388
-0.88251
-0.660491
-0.521226
-1.03231
-1.72806
-0.727185
-0.766117
-0.683398
-0.699241
-0.695892
-0.682185
-0.755096
-0.721447
-0.845488
-0.795719
-0.982413
-0.90855
-1.12681
-1.0577
-1.23604
-1.18701
-1.28346
-1.26952
-1.2499
-1.27652
-1.15095
-1.20659
-1.02296
-1.088
-0.905109
-0.960708
-0.824395
-0.859062
-0.793033
-0.80219
-0.81598
-0.797475
-0.898237
-0.849339
-1.04541
-0.96346
-1.25861
-1.14413
-1.52355
-1.3865
-1.79878
-1.66366
-2.01805
-1.91985
-2.11621
-2.08515
-2.06056
-2.1077
-1.87136
-1.97919
-1.61084
-1.74565
-1.34097
-1.47416
-1.21722
-1.21847
-1.02335
-1.12626
-1.36121
-1.29762
-1.42654
-1.40503
-1.40042
-1.42484
-1.28903
-1.35449
-1.1102
-1.20653
-0.88832
-1.00279
-0.768245
-0.43678
-0.415139
-0.422925
-0.477834
-0.456364
-0.521932
-0.500335
-0.554543
-0.540776
-0.56149
-0.561749
-0.539731
-0.553855
-0.499258
-0.520831
-0.456734
-0.477246
-0.42621
-0.43933
-0.41731
-0.418525
-0.438782
-0.423739
-0.498626
-0.463457
-0.605244
-0.545489
-0.768604
-0.679328
-0.992648
-0.873392
-1.26538
-1.12437
-1.55894
-1.41188
-1.82518
-1.69975
-1.98672
-1.92456
-1.98803
-1.99862
-1.83177
-1.92902
-1.56317
-1.70659
-1.25862
-1.41062
-0.985156
-1.11498
-0.773771
-0.871465
-0.619913
-0.690581
-0.510156
-0.560218
-0.433809
-0.468095
-0.388612
-0.408483
-1.09731
-0.513407
-0.658787
-0.513281
-0.368874
-0.375645
-1.32797
-1.23844
-1.58235
-1.60748
-0.917198
-0.413815
-1.16414
-1.4607
-1.47648
-1.38178
-1.34646
-1.21832
-1.08676
-0.948512
-0.804897
-0.966115
-0.80741
-0.901756
-0.235723
-0.232122
-0.371468
-1.0764
-1.12297
-1.17398
-0.670082
-0.522292
-1.61952
-0.678917
-0.734849
-0.599154
-0.634224
-0.555951
-0.573492
-0.558682
-0.550682
-0.601858
-0.576555
-0.671451
-0.63345
-0.769911
-0.717186
-0.875751
-0.824694
-0.955677
-0.919979
-0.990566
-0.980086
-0.966731
-0.985867
-0.894677
-0.935259
-0.801339
-0.848727
-0.71634
-0.756202
-0.661012
-0.684082
-0.646342
-0.648206
-0.677993
-0.656084
-0.761406
-0.712871
-0.902092
-0.824371
-1.10044
-0.99448
-1.34238
-1.21774
-1.59039
-1.46894
-1.78618
-1.69865
-1.87346
-1.84601
-1.82371
-1.86561
-1.65661
-1.75177
-1.42701
-1.5458
-1.18954
-1.30665
-0.977796
-1.07879
-0.807184
-0.885982
-0.951109
-0.741863
-0.846723
-1.14358
-1.05114
-1.2871
-1.22316
-1.35642
-1.33224
-1.33997
-1.35884
-1.24322
-1.30089
-1.08103
-1.16902
-0.873752
-0.981751
-0.643444
-0.759716
-0.418729
-0.529637
-0.303973
-0.314831
-0.306785
-0.315373
-0.30673
-0.341542
-0.327092
-0.371463
-0.356785
-0.393037
-0.384043
-0.396314
-0.397315
-0.379517
-0.390119
-0.350485
-0.365784
-0.321239
-0.33519
-0.301594
-0.309741
-0.299293
-0.297792
-0.322297
-0.307176
-0.377516
-0.345513
-0.47184
-0.419299
-0.613128
-0.536262
-0.803043
-0.702455
-1.02901
-0.912866
-1.2669
-1.14829
-1.48004
-1.37978
-1.60951
-1.55942
-1.60984
-1.62302
-1.48354
-1.56184
-1.26577
-1.38186
-1.01787
-1.14226
-0.789404
-0.898602
-0.610819
-0.693396
-0.480077
-0.540351
-0.382932
-0.428107
-0.309642
-0.343396
-0.260017
-0.281951
-0.244878
-1.36374
-1.27269
-0.37839
-0.233353
-1.52016
-1.53002
-1.22022
-1.43489
-1.42475
-0.697485
-0.637144
-0.432735
-0.32843
-1.4043
-1.31522
-1.20231
-1.0832
-0.954709
-0.816199
-1.0192
-0.836563
-0.956001
-1.16085
-1.21358
-1.23917
-1.27163
-0.694888
-0.545363
-0.241413
-0.395712
-1.54771
-0.654399
-0.734582
-0.545909
-0.594123
-0.477131
-0.507388
-0.441369
-0.455664
-0.433726
-0.433766
-0.458439
-0.44206
-0.509771
-0.481435
-0.58065
-0.543077
-0.656674
-0.619819
-0.713742
-0.688446
-0.738503
-0.730944
-0.722026
-0.735397
-0.671025
-0.699806
-0.604871
-0.638413
-0.54564
-0.573166
-0.510133
-0.524177
-0.508075
-0.504529
-0.54532
-0.521467
-0.627481
-0.580435
-0.759594
-0.687124
-0.941214
-0.844674
-1.1589
-1.04715
-1.37905
-1.27154
-1.55146
-1.47456
-1.62783
-1.60396
-1.58482
-1.621
-1.44064
-1.52277
-1.24245
-1.34503
-1.03663
-1.13836
-0.850231
-0.93998
-0.768951
-0.896896
-0.688997
-0.793982
-1.08853
-0.996134
-1.23313
-1.16872
-1.3061
-1.27939
-1.29933
-1.31267
-1.21594
-1.26671
-1.06704
-1.14857
-0.872255
-0.974127
-0.651797
-0.763407
-0.54094
-0.201986
-0.2177
-0.207178
-0.205371
-0.201821
-0.220095
-0.211691
-0.238711
-0.229472
-0.252007
-0.246559
-0.252898
-0.254222
-0.240503
-0.248102
-0.220689
-0.230993
-0.201646
-0.210611
-0.19005
-0.194551
-0.192342
-0.189017
-0.215656
-0.200984
-0.265686
-0.237038
-0.34804
-0.302424
-0.468826
-0.403397
-0.628007
-0.544124
-0.812721
-0.718437
-1.0019
-0.908152
-1.16869
-1.0904
-1.26999
-1.23058
-1.26998
-1.28254
-1.16871
-1.23096
-0.994598
-1.08764
-0.796747
-0.896035
-0.610949
-0.700614
-0.460008
-0.530397
-0.346888
-0.399293
-0.260648
-0.301168
-0.192185
-0.224385
-0.140239
-0.163945
-0.111336
-0.122187
-0.102339
-0.104787
-0.254238
-0.112628
-0.105218
-1.42572
-1.3305
-1.4847
-1.48337
-0.587501
-0.231688
-1.29916
-1.43601
-1.40037
-1.45406
-1.30756
-1.20764
-1.09843
-0.976748
-0.841319
-1.09106
-0.865828
-0.990941
0.00992476
0.00119546
-0.123528
-1.2496
-1.32393
-1.37397
-1.38683
-1.39825
-0.731936
-0.575971
-0.420056
-0.271759
-1.50572
-0.660561
-0.7565
-0.512572
-0.576923
-0.423181
-0.463653
-0.36353
-0.390035
-0.329134
-0.343368
-0.318737
-0.320755
-0.333275
-0.323104
-0.367938
-0.34852
-0.416561
-0.390874
-0.468936
-0.443399
-0.508289
-0.490966
-0.525171
-0.519942
-0.513989
-0.523114
-0.478931
-0.498735
-0.433582
-0.456513
-0.39412
-0.412185
-0.373656
-0.380897
-0.380621
-0.37333
-0.420817
-0.39624
-0.499735
-0.455111
-0.621669
-0.55521
-0.785554
-0.698835
-0.978713
-0.879897
-1.17157
-1.07765
-1.32134
-1.25469
-1.38759
-1.36673
-1.35187
-1.3823
-1.2302
-1.29951
-1.06264
-1.14948
-0.886965
-0.974147
-0.72611
-0.803665
-0.590729
-0.654968
-0.490318
-0.535532
-0.651072
-0.453253
-0.54908
-0.859583
-0.755743
-1.05161
-0.959565
-1.19685
-1.13176
-1.27508
-1.24497
-1.2786
-1.28638
-1.2069
-1.25185
-1.06843
-1.14501
-0.882848
-0.980145
-0.670857
-0.778809
-0.452757
-0.560848
-0.251702
-0.34906
-0.128362
-0.162106
-0.143113
-0.110384
-0.117484
-0.1076
-0.107807
-0.11344
-0.109558
-0.123418
-0.118313
-0.130679
-0.12776
-0.13018
-0.131542
-0.12154
-0.126658
-0.108883
-0.115368
-0.0973427
-0.102685
-0.0914266
-0.0933815
-0.0967059
-0.0922609
-0.119424
-0.105575
-0.164047
-0.138767
-0.235084
-0.19594
-0.337291
-0.282141
-0.469662
-0.400225
-0.619491
-0.543603
-0.767647
-0.694891
-0.895048
-0.835429
-0.972422
-0.942199
-0.971709
-0.982383
-0.891702
-0.940604
-0.754822
-0.828279
-0.597726
-0.676502
-0.449521
-0.52143
-0.323795
-0.383346
-0.224642
-0.271084
-0.146657
-0.183514
-0.0830539
-0.113298
-0.0320804
-0.0558099
0.00132251
-0.0127083
0.0156333
0.0108253
0.0148325
-1.51556
-1.41215
-0.135769
-0.00711618
-1.47421
-1.46376
-1.40242
-1.4628
-1.40067
-0.396716
-0.362
-0.278464
-0.187865
-1.5331
-1.32315
-1.23443
-1.13285
-1.0152
-0.880545
-1.13312
-0.863119
-0.976066
-1.28145
-1.42248
-1.50819
-1.56438
-1.56764
-1.55855
-0.778444
-0.61365
-0.447658
-0.291252
-0.0137384
-0.148118
-1.48974
-0.662989
-0.758327
-0.505599
-0.580257
-0.3859
-0.439847
-0.310619
-0.344158
-0.260393
-0.28296
-0.228928
-0.242498
-0.214168
-0.219411
-0.218188
-0.213711
-0.240248
-0.227312
-0.273642
-0.256003
-0.309257
-0.291908
-0.335712
-0.324197
-0.346771
-0.343193
-0.339417
-0.34546
-0.316165
-0.329289
-0.286441
-0.301387
-0.261838
-0.272809
-0.252391
-0.254713
-0.265355
-0.255709
-0.306358
-0.282036
-0.380491
-0.339001
-0.491289
-0.431243
-0.637208
-0.56031
-0.806437
-0.720169
-0.973365
-0.892308
-1.10196
-1.0448
-1.15929
-1.14086
-1.13102
-1.15575
-1.03085
-1.08794
-0.892025
-0.964136
-0.744338
-0.817934
-0.606457
-0.673396
-0.487906
-0.544645
-0.438533
-0.626931
-0.424958
-0.524318
-0.837904
-0.732409
-1.0301
-0.938144
-1.17754
-1.11073
-1.26349
-1.2289
-1.27762
-1.28001
-1.21582
-1.25602
-1.0853
-1.15821
-0.905376
-1
-0.698063
-0.803939
-0.481553
-0.589484
-0.377268
-0.0485368
-0.0825226
-0.0631557
-0.0294241
-0.0373846
-0.0213281
-0.024224
-0.0209567
-0.020316
-0.0246626
-0.022568
-0.0276627
-0.0264969
-0.0264955
-0.0276905
-0.0209591
-0.0241187
-0.0136075
-0.01731
-0.00730959
-0.0101548
-0.00520374
-0.00546852
-0.0122819
-0.00723022
-0.0337782
-0.0209983
-0.0730312
-0.0510024
-0.133657
-0.100414
-0.219305
-0.173258
-0.328578
-0.271468
-0.449707
-0.388784
-0.56508
-0.509077
-0.660402
-0.616144
-0.717555
-0.695224
-0.715808
-0.724689
-0.653514
-0.691412
-0.547674
-0.604608
-0.423468
-0.486094
-0.305074
-0.362616
-0.201866
-0.251429
-0.115204
-0.156488
-0.0435581
-0.0777085
0.016145
-0.0123611
0.0648271
0.0419858
0.0996218
0.0841802
0.118085
0.111093
0.116856
0.120072
0.103723
0.110295
-0.0197821
0.092468
0.097729
-1.6358
-1.5222
-1.48867
-1.46943
-0.334296
-0.104429
-1.53759
-1.51947
-1.42536
-1.64244
-1.36238
-1.28334
-1.18726
-1.07098
-0.933422
-1.08354
-0.788799
-0.856582
0.186777
0.181697
0.0889643
-1.17602
-1.41823
-1.5956
-1.71364
-1.77931
-1.77885
-1.75847
-0.832593
-0.654908
-0.477297
-0.309368
-0.158119
-0.0235309
-1.49917
-0.632584
-0.71022
-0.475879
-0.549337
-0.358979
-0.414475
-0.269531
-0.310322
-0.208139
-0.235977
-0.164869
-0.184623
-0.136401
-0.148839
-0.121422
-0.127295
-0.119831
-0.118921
-0.131328
-0.124068
-0.152125
-0.140944
-0.17514
-0.16391
-0.192131
-0.184812
-0.199056
-0.196383
-0.194448
-0.198289
-0.179768
-0.188024
-0.161524
-0.170595
-0.147804
-0.153599
-0.146165
-0.145059
-0.162828
-0.151871
-0.203055
-0.179703
-0.271393
-0.233474
-0.370686
-0.317147
-0.499012
-0.431647
-0.645597
-0.571131
-0.788551
-0.719306
-0.898014
-0.84932
-0.947741
-0.931471
-0.926675
-0.945889
-0.846558
-0.892411
-0.73376
-0.792589
-0.611136
-0.672615
-0.493488
-0.550976
-0.390942
-0.439951
-0.309013
-0.346868
-0.251564
-0.277276
-0.408697
-0.23212
-0.316008
-0.614621
-0.509172
-0.82833
-0.722244
-1.02235
-0.92919
-1.17564
-1.10525
-1.2717
-1.23174
-1.29627
-1.29361
-1.24277
-1.27914
-1.11801
-1.1884
-0.940632
-1.03434
-0.734025
-0.839619
-0.518723
-0.626413
-0.311573
-0.41247
-0.131232
-0.217578
-0.00995583
-0.0541717
-0.0304104
0.0215973
0.00722354
0.0420706
0.0328373
0.0536147
0.0487503
0.0582837
0.0566346
0.0589037
0.058893
0.0587942
0.0587596
0.0601435
0.0592531
0.0632073
0.0614976
0.0668597
0.0650561
0.0697284
0.068494
0.0694306
0.0702207
0.0614212
0.0667
0.0415774
0.0531357
0.00749282
0.0264613
-0.0437469
-0.015776
-0.114977
-0.0767977
-0.204797
-0.157983
-0.302686
-0.253757
-0.392483
-0.34946
-0.462991
-0.430656
-0.503686
-0.488004
-0.500597
-0.508102
-0.452671
-0.481782
-0.370947
-0.414903
-0.273717
-0.323145
-0.178045
-0.224821
-0.0928853
-0.134079
-0.0178762
-0.0542037
0.0478701
0.0161391
0.104356
0.0772926
0.150668
0.128901
0.184755
0.169368
0.204424
0.196583
0.207531
0.208059
0.198599
0.20399
0.19246
-1.79024
-1.66591
0.085793
0.176458
-1.53111
-1.50089
-1.70752
-1.60664
-1.47556
-0.175089
-0.155151
-0.162799
-0.0822056
-1.78583
-1.42638
-1.35568
-1.26248
-1.14352
-0.998713
-0.895769
-0.607417
-0.616985
-0.904111
-1.22585
-1.51812
-1.75248
-1.91972
-2.00758
-2.01897
-1.99539
-0.890773
-0.696608
-0.504326
-0.323703
-0.163163
-0.0252508
0.169294
0.0821703
-1.5354
-0.532465
-0.574835
-0.428673
-0.484758
-0.317945
-0.369654
-0.234783
-0.274472
-0.167382
-0.19893
-0.116894
-0.140129
-0.0803598
-0.0971471
-0.0547
-0.0662656
-0.03863
-0.045508
-0.032362
-0.0341987
-0.0364357
-0.0331501
-0.048521
-0.0418024
-0.0629488
-0.05586
-0.0736167
-0.0690307
-0.0778464
-0.0761409
-0.0750238
-0.0773401
-0.0664591
-0.0712324
-0.0564524
-0.0613055
-0.0505262
-0.0526219
-0.0543224
-0.0508726
-0.0730765
-0.0615298
-0.111481
-0.0895575
-0.173512
-0.139348
-0.26141
-0.214234
-0.37302
-0.314646
-0.498735
-0.435079
-0.620083
-0.561408
-0.712927
-0.671531
-0.756279
-0.741722
-0.741998
-0.75611
-0.679849
-0.715696
-0.58985
-0.637109
-0.488881
-0.539936
-0.388984
-0.438115
-0.300222
-0.342748
-0.227877
-0.261723
-0.198946
-0.402548
-0.218393
-0.307146
-0.612535
-0.504738
-0.829022
-0.721648
-1.02859
-0.932057
-1.19201
-1.11606
-1.30009
-1.25416
-1.33482
-1.32743
-1.28839
-1.32164
-1.16744
-1.23637
-0.989905
-1.08418
-0.780315
-0.887587
-0.562379
-0.671287
-0.350691
-0.454522
-0.252764
0.0536336
0.013783
0.0352193
0.0830326
0.0690204
0.104164
0.0945562
0.117825
0.111781
0.125362
0.122199
0.128829
0.127435
0.130498
0.129753
0.131815
0.131172
0.133038
0.132411
0.134319
0.133685
0.135144
0.134859
0.133407
0.13483
0.125074
0.130305
0.107122
0.117403
0.077853
0.0940189
0.0349546
0.0582658
-0.0237392
0.00763351
-0.0971718
-0.0589419
-0.17662
-0.137042
-0.24723
-0.213876
-0.299051
-0.275771
-0.326703
-0.316363
-0.323142
-0.329207
-0.285617
-0.308331
-0.222174
-0.256349
-0.145899
-0.18485
-0.068068
-0.106574
0.00373333
-0.0312147
0.0687225
0.0369476
0.128223
0.0991658
0.181198
0.155668
0.225144
0.204467
0.25763
0.242942
0.27674
0.268972
0.281982
0.28095
0.277638
0.280638
0.267069
0.273458
0.250028
0.25877
0.1567
0.223924
0.238804
-1.98526
-1.85043
-1.6029
-1.55949
-0.140348
-0.0114612
-1.91642
-1.72864
-1.5534
-1.96812
-1.51705
-1.45262
-1.35833
-1.23167
-1.07325
-0.60251
-0.360608
-0.323909
-0.561719
-0.870857
-1.21701
-1.5625
-1.86316
-2.0992
-2.23971
-2.28113
-2.26584
-0.94766
-0.73339
-0.524367
-0.332748
-0.164188
-0.0269672
0.0734717
0.279715
0.206792
0.26277
-1.59991
-0.362788
-0.367864
-0.320557
-0.347024
-0.256921
-0.291196
-0.184153
-0.220059
-0.124234
-0.152497
-0.0746138
-0.0982939
-0.0347816
-0.0534143
-0.00447774
-0.0185639
0.0178808
0.00764373
0.0331528
0.0263403
0.0418379
0.0383416
0.0433971
0.0435378
0.0382603
0.0414907
0.0301613
0.0342959
0.0234966
0.0264843
0.0210354
0.0209022
0.0228196
0.0215581
0.0270539
0.0247482
0.0312204
0.0293596
0.0316123
0.0321423
0.0240632
0.0290949
0.00431527
0.0159687
-0.0316712
-0.0114149
-0.0873237
-0.0568805
-0.16435
-0.123191
-0.26054
-0.210407
-0.367476
-0.313483
-0.469891
-0.420418
-0.548467
-0.51332
-0.586669
-0.57333
-0.578609
-0.588222
-0.531918
-0.559185
-0.461161
-0.498695
-0.378371
-0.420656
-0.293702
-0.335634
-0.216965
-0.253869
-0.153313
-0.18342
-0.105416
-0.127551
-0.0720843
-0.0862553
-0.213038
-0.0616049
-0.132203
-0.403564
-0.30411
-0.618835
-0.509245
-0.8403
-0.729928
-1.05012
-0.947811
-1.22752
-1.14435
-1.34909
-1.29673
-1.39398
-1.38197
-1.35389
-1.38449
-1.23485
-1.30339
-1.05447
-1.15073
-0.83834
-0.949234
-0.61312
-0.725447
-0.395518
-0.502826
-0.199482
-0.293625
-0.0389405
-0.115148
0.0725154
0.0269465
0.0510384
0.108216
0.0916183
0.136271
0.12313
0.157462
0.147717
0.172223
0.16557
0.18151
0.177445
0.186724
0.184507
0.189369
0.188274
0.190484
0.190071
0.190619
0.190624
0.190547
0.190571
0.190308
0.19052
0.187768
0.189545
0.179549
0.184535
0.163617
0.172612
0.138747
0.152394
0.10313
0.1224
0.055138
0.0807225
-0.00453431
0.0265216
-0.0691447
-0.0369555
-0.12573
-0.0992691
-0.164346
-0.147526
-0.182344
-0.176032
-0.177675
-0.183063
-0.148118
-0.165873
-0.098438
-0.125292
-0.0376719
-0.0688335
0.0260963
-0.00579482
0.0877809
0.0574295
0.145085
0.116965
0.198505
0.172263
0.247236
0.223615
0.28831
0.268941
0.318715
0.304988
0.336739
0.329311
0.343138
0.341198
0.341193
0.343047
0.33109
0.337416
0.309927
0.32161
0.295662
-2.22085
-2.07648
0.140534
-1.70907
-1.6483
-2.1672
-1.88919
-1.66119
-0.0106199
0.000799256
-0.0704606
-1.16959e-05
-2.1925
-1.63643
-1.57417
-1.47324
-1.33142
-1.15243
-0.271672
-0.0857937
-0.0373515
0.189742
0.244984
-0.199747
-0.473566
-0.79312
-1.15227
-1.53523
-1.90504
-2.22293
-2.43972
-2.54514
-2.55771
-0.996773
-0.759862
-0.534712
-0.333215
-0.163028
-0.0323955
0.0585194
-1.69684
-0.152596
-0.126266
-0.170392
-0.168219
-0.150777
-0.165359
-0.114112
-0.133076
-0.0717288
-0.0934851
-0.0306629
-0.0505038
0.0055394
-0.0120135
0.0364989
0.0217753
0.0614425
0.0496813
0.0810738
0.0718923
0.0957908
0.089019
0.105878
0.101418
0.111008
0.109103
0.110792
0.111521
0.107239
0.109234
0.103565
0.105236
0.102149
0.102241
0.102736
0.102317
0.103872
0.103316
0.103906
0.104165
0.100373
0.102763
0.0902662
0.0963429
0.0702305
0.0817006
0.0368709
0.0554152
-0.0126967
0.0142401
-0.0797246
-0.0440672
-0.162074
-0.119304
-0.252542
-0.206965
-0.338706
-0.297111
-0.405196
-0.375307
-0.439326
-0.426838
-0.436654
-0.442453
-0.402757
-0.422953
-0.347645
-0.377292
-0.279709
-0.314777
-0.207901
-0.243688
-0.141493
-0.173604
-0.0860417
-0.112247
-0.0427265
-0.0631123
-0.025074
-0.214584
-0.0549452
-0.130389
-0.411161
-0.308269
-0.632536
-0.519883
-0.863552
-0.74765
-1.08842
-0.978072
-1.28283
-1.19119
-1.41914
-1.35986
-1.47481
-1.45794
-1.44063
-1.46899
-1.32147
-1.39082
-1.13524
-1.23508
-0.909072
-1.02541
-0.67219
-0.790248
-0.446033
-0.557112
-0.241184
-0.339521
-0.150447
0.123403
0.0837294
0.104803
0.155412
0.139981
0.182014
0.169504
0.202712
0.19311
0.217843
0.210948
0.228032
0.223499
0.23419
0.231544
0.237293
0.236061
0.238179
0.237957
0.237814
0.23808
0.237221
0.237494
0.236506
0.236965
0.23355
0.235495
0.225745
0.230358
0.21184
0.219598
0.190908
0.202328
0.161588
0.177381
0.122706
0.143376
0.0746156
0.0996524
0.0221186
0.0483611
-0.0241691
-0.00256802
-0.0541935
-0.0415348
-0.0655564
-0.0621342
-0.0592342
-0.0646073
-0.0351612
-0.0493759
0.00432602
-0.0170403
0.0535913
0.0281614
0.10658
0.0798896
0.15992
0.133356
0.211298
0.18597
0.259475
0.235819
0.303499
0.282127
0.340893
0.323217
0.368837
0.356177
0.386007
0.37876
0.393322
0.390777
0.391825
0.39373
0.380103
0.387137
0.357706
0.370114
0.327002
0.343088
0.292027
0.309883
0.250296
0.226504
0.272134
-2.49686
-2.34709
0.124099
-1.8533
-1.77011
0.00922724
0.0606373
-2.45353
0.173321
-2.09342
-1.80181
0.209016
-2.46038
-1.78473
-1.71874
-1.60233
-1.43638
-1.22891
0.0139938
-0.115826
-0.364559
-0.68207
-1.0411
-1.44692
-1.86966
-2.26531
-2.57597
-2.77427
-2.84483
-1.03133
-0.771872
-0.533211
-0.326997
-0.161945
-0.0421612
0.0434121
-1.82968
0.145059
0.0755169
0.244989
0.185621
0.0688489
0.108705
0.00441473
0.0318231
-0.0185237
-0.0119025
-0.0164671
-0.0196996
-0.00135634
-0.00998348
0.0223555
0.0095087
0.0498865
0.03616
0.0758194
0.0631255
0.0991765
0.0878804
0.119177
0.10961
0.135834
0.127912
0.1493
0.142952
0.159793
0.154909
0.167149
0.163902
0.170592
0.169411
0.17052
0.170858
0.169073
0.169829
0.168215
0.168416
0.167807
0.16804
0.166735
0.167415
0.163856
0.16561
0.157561
0.161255
0.14574
0.15249
0.125815
0.136962
0.0950116
0.111936
0.0509834
0.0747497
-0.00714205
0.023639
-0.0773877
-0.0410276
-0.153761
-0.115344
-0.226159
-0.191218
-0.282622
-0.257095
-0.313472
-0.301566
-0.315207
-0.317929
-0.291437
-0.306061
-0.248538
-0.272032
-0.192458
-0.221694
-0.131449
-0.161992
-0.0741433
-0.101944
-0.025577
-0.0486877
0.013153
-0.00505954
0.0432057
0.0291619
0.0638125
0.0548796
-0.053858
0.0699877