/*--------------------------------*- C++ -*----------------------------------*\
  =========                 |
  \\      /  F ield         | OpenFOAM: The Open Source CFD Toolbox
   \\    /   O peration     | Website:  https://openfoam.org
    \\  /    A nd           | Version:  10
     \\/     M anipulation  |
\*---------------------------------------------------------------------------*/
FoamFile
{
    format      ascii;
    class       surfaceScalarField;
    location    "38.5";
    object      phi;
}
// * * * * * * * * * * * * * * * * * * * * * * * * * * * * * * * * * * * * * //

dimensions      [0 3 -1 0 0 0 0];

internalField   nonuniform List<scalar> 
57492
(
-0.0200838
0.00282996
0.00437731
0.0128765
-0.00445453
-0.0167729
0.00114366
-0.00371392
0.0124805
0.0358753
-0.0446419
0.0989029
0.0723748
-0.0163821
-0.154896
-0.209933
0.0849965
0.223839
0.0525607
-0.0515928
-0.0269025
0.0259346
-0.096235
0.0235596
-0.0141156
0.086791
0.0171457
-0.06082
0.0223805
-0.103665
0.0986082
-0.017324
0.0205583
0.0948319
-0.0930098
0.0163894
-0.00143774
0.0107445
-0.0256961
-0.00749716
-8.46361e-05
0.0239711
-0.0160161
0.0114135
-0.00289451
0.00213665
-0.0195905
0.100212
-0.085417
-0.0372804
0.0224853
0.00264256
0.0755448
0.0220247
0.00184002
0.00957069
0.0851538
-0.0965645
-0.0081543
0.0840208
-0.0740265
0.0194373
-0.0393829
0.0199456
-0.103276
0.0702038
0.0525096
-0.112416
0.0167356
0.0826401
0.0130398
0.0164987
-0.114354
-0.0145599
-0.00123108
0.010496
-0.0211987
0.0119338
0.015759
-0.0183036
0.00131343
-0.16902
0.184004
0.0110008
-0.0259842
-0.197579
0.077412
-0.0488529
-0.0869357
0.0318958
0.043577
0.0114629
-0.0598329
-0.0306239
0.00352103
-0.0303141
-0.0809004
0.101331
0.00988353
-0.03792
0.0134256
-0.00581966
0.0585664
-0.0371292
-0.0355994
0.0141623
-0.0468852
0.039122
0.0663295
-0.0710543
-0.122802
0.0718787
0.121977
-0.123901
-0.0395225
0.0923691
-0.0532144
-0.00998603
0.0632004
-0.0158872
-0.0373272
-0.0639234
0.0823807
-0.0343445
0.014443
-0.0394771
-0.0388893
-0.0500142
0.0735737
-0.0228842
-0.113279
0.0549755
0.0583034
-0.20468
0.0914015
0.102794
-0.0358802
0.0268455
-0.0937592
0.0753655
0.0170514
0.0103771
-0.031552
0.0973859
-0.101714
0.0955459
0.015195
-0.0935952
0.0934194
-0.011989
0.104291
-0.0361689
-0.0764267
0.00830458
0.117861
0.00162522
0.0788338
-0.0436966
0.0582822
0.0286846
0.13694
-0.099166
-0.0140967
0.0132955
0.0999672
-0.102478
-0.00750111
0.010813
0.0138321
0.101147
-0.0997424
-0.0152365
0.00624218
-0.0960748
-0.117663
0.126615
0.134019
-0.142971
-0.0206435
0.132976
-0.229996
0.0028576
0.012725
-0.000593819
-0.0149888
0.00854401
0.00572707
-0.00366491
0.0100212
0.00218772
0.0101037
-0.00104366
-0.00642312
0.0058293
-0.00105508
-0.00536804
0.269717
0.0917383
-0.187394
-0.174062
0.0738036
-0.0540196
0.249933
-0.228406
0.0712454
0.230964
0.0382683
-0.174936
0.0333288
-0.0803791
0.0633967
-0.0163464
0.0686568
-0.08122
0.045892
0.00247154
-0.000561097
0.00091951
0.00556581
0.00128304
0.0156044
0.00283797
-0.0885941
0.162619
0.0781046
-0.15213
0.101466
-0.121403
0.0597019
0.157723
-0.0548054
0.342163
-0.0292756
-0.104492
-0.208396
0.0949253
0.188023
0.0592153
0.0536978
-0.128766
0.169993
0.00774392
-0.0114578
0.0202245
0.0631009
0.0939496
-0.0449061
-0.112144
0.0855154
0.0134607
0.0054057
-0.00198221
-0.00342348
0.0122195
-0.00681378
-0.178047
0.0851927
-0.0665309
0.159385
-0.147486
-0.0901893
0.0596279
-0.0806362
0.0826136
-0.149463
0.098383
-0.00152671
-0.0482671
-0.0485891
-0.0436923
0.110799
0.0312763
-0.0540995
-0.00642805
0.0168353
-0.047449
-0.00817729
-0.0181021
-0.0776139
0.0534828
0.000249853
-0.0319701
-0.0217625
-0.00687335
0.00521242
0.0551437
-0.0633686
-0.0147819
0.0712771
-0.0570416
-0.00607707
-0.0829255
-0.0060863
-0.0500053
0.0319032
0.00540499
-0.0554103
0.00630557
0.00591391
0.117893
0.0764593
-0.00868459
0.0422642
-0.134304
-0.0153589
0.0956057
-0.0671776
-0.0130691
-0.0228797
0.100791
-0.0932699
0.0823079
0.0418075
-0.00785455
-0.116261
-0.0299391
0.0162498
0.0959972
0.100098
-0.0882294
-0.0321789
-0.0703829
0.0199937
0.0825681
-0.0346693
0.0809899
-0.0784995
0.00165891
-0.106711
-0.0189383
-0.0172468
0.000445137
-0.0266859
0.0195911
0.00264029
0.0273685
-0.0154008
-0.0386536
-0.00430491
0.0149006
-0.0144274
0.0175235
0.00506084
-0.00815688
0.0354887
-0.0240421
-0.025874
-0.0159308
0.044334
0.00708546
-0.0080853
0.009678
-0.15534
0.0856566
0.154876
0.163239
-0.0648886
-0.188539
-0.0765778
0.0844763
-0.00787861
-0.0619494
-0.0110724
-0.0464264
0.000627784
0.00454146
-0.00834766
-0.000392212
0.00419842
-0.0117357
0.0113424
0.00493473
-0.0261878
0.00610444
-0.0191303
-0.0321725
0.00487643
-0.0499806
-0.0310991
-0.0490052
-0.0515288
0.0626395
0.0378945
0.00347788
0.0220757
-0.0745588
-0.0687741
0.0207233
-0.144682
0.0539697
-0.0125637
-0.141984
0.0152648
-0.0179628
-0.00528809
-0.0859451
0.0791807
0.0120524
-0.000492468
-0.0891824
0.0843868
-0.00975505
-0.28087
-0.0817254
0.101949
0.0961785
-0.123934
0.0911934
-0.0187988
0.0200525
-0.0348345
0.0175097
0.00254286
0.0279353
-0.00652472
0.116922
-0.0700868
-0.0404182
-0.00641663
0.0968806
-0.0115111
0.159041
-0.015068
-0.164616
0.0328443
0.11895
0.00724617
0.00788264
-0.0965171
0.121479
0.00182423
0.0156854
0.0296539
-0.101863
-0.0995714
0.0666209
0.126792
0.0589157
-0.00329692
-0.0614927
0.00587393
0.0187406
-0.00671008
-0.0752379
0.0137023
0.100658
0.0101719
-0.0666693
-0.00779011
-0.00287926
-0.0389227
-0.00660592
0.0458925
-0.000363895
-0.00593541
0.00146018
-0.0344475
-0.0251331
-0.0279923
0.04719
-0.0265836
0.0548197
-0.0219304
0.178965
-0.143186
-0.0623628
-0.00278853
-0.0940422
0.110533
-0.240395
-0.0112041
-0.184641
-0.0983622
0.0426086
0.0818287
0.0581232
-0.123216
0.0410769
0.118521
-0.0777691
0.0393376
-0.0804413
0.0493523
-0.00824862
0.0434043
-0.0780049
0.0739381
0.110511
0.0302525
0.109399
-0.00337085
-0.108929
0.00290071
0.120868
-0.0126552
0.00118644
0.124608
-0.0126978
-0.00620198
-0.105708
0.0892995
-0.0234204
0.058729
0.098758
-0.0238548
0.0183775
-0.0932806
0.0210693
0.100256
-0.0225673
-0.0902627
-0.0298214
0.0962293
0.016213
-0.086482
-0.0308812
0.0836279
-0.0401717
-0.0763446
0.0350469
0.0814694
-0.0417961
-0.0779032
0.0795276
0.0382068
0.0736843
-0.0211263
-0.0907648
0.0730124
-0.0766017
-0.044703
0.0452307
0.0724847
-0.0350335
0.0640148
-0.095753
0.0842734
-0.0096468
-0.123356
0.00592121
0.122899
-0.00546512
0.0282322
0.0372941
-0.0275664
0.0324776
-0.0422053
0.0293444
-0.0092691
0.0172188
0.0117308
-0.0292772
0.0132415
-0.0671247
-0.0971687
0.0586366
-0.0120227
0.0134828
-0.000247841
-0.0117748
-0.0132619
-0.114271
0.0838366
-0.0949929
-0.0116261
0.0933571
0.00839952
-0.0992052
-0.0041872
0.042231
0.0451534
-0.0386908
-0.0486935
0.0135127
0.0785979
-0.0498796
0.0762379
-0.0175718
0.0014308
-0.00280203
-0.0158756
-0.00349211
0.0049229
-0.00629413
0.00201734
-0.00274469
0.0108311
-0.00204096
0.0040583
-0.00478564
0.00568469
-0.00185991
0.0119343
-0.00606053
0.0117452
-0.00792044
0.0060205
-0.000529964
-0.0135758
-0.0023288
0.0083493
-0.00285877
0.0372282
0.0803092
-0.101288
0.0290407
-0.104078
0.112265
0.117468
-0.0081182
-0.0329835
-0.0651625
0.0326644
0.0654817
-0.0172748
0.0701691
-0.0858778
0.00494133
-0.0873787
0.0833862
-0.0838822
-0.0792516
0.0797476
0.0841231
-0.0780133
0.0772764
-0.0801072
-0.0828944
0.0791194
0.0847232
-0.0774023
0.0768021
0.0856022
-0.0749962
0.0741171
-0.0745993
0.0871308
0.0730707
0.0863015
-0.0869419
-0.0739588
-0.0774177
0.0894337
0.0751149
0.0837785
-0.0748947
-0.0855653
-0.0763728
-0.0862675
-0.0767001
-0.0867474
-0.0775334
-0.0883877
-0.0776112
-0.0871365
-0.0813585
-0.0770199
0.0924476
0.0740059
0.0794399
-0.0726814
-0.0795531
-0.081514
0.0781727
-0.0886136
-0.078076
-0.0774455
-0.0843663
0.0802977
-0.0726297
0.0913205
0.0737568
0.0779488
-0.0711386
-0.0919704
-0.0740887
0.0907172
-0.0715817
0.072185
-0.0696133
0.0893973
0.0709332
0.0767398
-0.0703726
0.0750617
-0.0679352
-0.0731835
-0.0835625
0.0723797
-0.0918574
-0.0732964
-0.067241
0.0887892
0.0678491
0.073751
-0.0659304
-0.0678104
-0.0832209
0.0674688
-0.0922861
-0.0673817
-0.0633753
0.087692
0.0644726
0.0721428
-0.0617671
-0.0604859
-0.0827192
0.0599842
-0.0923198
-0.0604523
-0.0584843
0.0874524
0.058724
0.0710755
-0.057417
-0.0513153
-0.0826247
0.0512209
-0.0927267
-0.0509084
-0.0516768
0.0869418
0.0521874
0.0699628
-0.0505641
-0.0403844
-0.0825121
0.0402718
-0.0929119
-0.0401993
-0.043578
0.0871835
0.0433363
0.0694909
-0.0431061
-0.0278168
-0.0830645
0.0283692
-0.0932134
-0.0275153
-0.0338441
0.0872691
0.0337585
0.0691516
-0.0335048
-0.0141137
-0.0813158
0.012365
-0.0920659
-0.0152612
-0.0231346
0.0878029
0.0226007
0.0693199
-0.0233029
-0.000177851
-0.0825023
0.00136437
-0.0920188
-0.000224973
-0.0114596
0.0881739
0.0110886
0.0693452
-0.0114849
0.0146792
-0.0805346
-0.0166469
-0.0898525
0.012513
0.00395286
0.0850843
-0.000863298
0.0724496
0.000848414
0.0291761
-0.0811774
-0.0285333
-0.0891533
0.0284769
0.0155945
0.0797798
-0.0102899
0.0746976
0.0133465
0.0436978
-0.0434743
-0.0814009
-0.0889532
0.0434977
0.0242815
-0.0245643
0.0800626
0.075574
0.0234051
-0.073162
0.0729648
-0.0283361
-0.0757435
-0.0408928
0.0576622
-0.0558597
-0.0832034
0.0558868
-0.0871778
-0.0703431
0.0707082
0.000999251
-0.0140252
-0.0682475
0.0688366
0.0277801
0.0148257
-0.0695981
0.0705627
0.0502563
0.0395102
-0.0716884
0.0729223
0.0662348
0.0588586
-0.0742043
0.079363
0.0751391
0.0710977
-0.0809356
0.0806333
0.0794217
0.0766002
-0.0846228
0.0846257
0.0772735
0.0757581
-0.083542
0.0832294
0.0744297
0.0778858
-0.0812518
0.0811992
0.0751675
0.0750483
-0.0809609
0.0806496
0.074068
0.0742442
-0.0802857
0.0798795
0.0713393
0.0725489
-0.0795022
0.0792027
0.0647721
0.0682264
-0.0790207
0.0789614
0.0522467
0.058906
-0.0790432
0.0792934
0.0335084
0.0432544
-0.0797202
0.0803198
0.0104891
0.0221739
-0.0805948
0.0829151
-0.0126102
-0.00113839
0.0829499
-0.0245991
0.034708
-0.0342645
0.0796191
0.0335591
0.0767229
0.0681303
-0.0660801
-0.00120179
-0.0702471
0.0717508
0.0219014
0.0112297
0.0656863
-0.0656537
-0.0233354
-0.0118787
0.0662246
-0.067218
-0.0421127
-0.0329339
0.0685967
-0.0702447
-0.055769
-0.0491855
0.0720614
-0.0739838
-0.064008
-0.0599504
0.0758922
-0.0777585
-0.0685063
-0.0660268
0.0795392
-0.0811344
-0.0710862
-0.0693579
0.0845171
-0.0853117
-0.0731641
-0.071512
0.0878576
-0.0878542
-0.0767035
-0.0738269
0.0884363
-0.0890511
-0.0769964
-0.0769514
0.0910921
-0.0923315
-0.0768366
-0.0793175
0.0909536
-0.0918499
-0.0724001
-0.0754667
0.0926568
-0.0933474
-0.0597617
-0.0665747
0.0939007
-0.0943338
-0.0397662
-0.050355
0.0946513
-0.0960301
-0.0138824
-0.0271979
0.0963398
-0.0978629
0.0140361
8.47019e-05
0.0967182
-0.0952433
0.0420229
0.0273322
-0.0928823
0.0535257
-0.0792669
-0.0523363
0.0841633
-0.0354779
0.0311415
0.0741684
0.0669794
-0.0660599
-0.0880973
0.0652776
-0.0911805
0.0645359
-0.0611695
-0.0826332
-0.0847275
-0.0652685
0.0626407
-0.0257083
0.0685499
-0.0721806
-0.0487056
-0.0376113
-0.0610464
0.060963
0.00108273
-0.0124309
-0.0612313
0.0619647
0.0270468
0.0145573
-0.0630736
0.0644952
0.0488347
0.0384013
-0.066157
0.0679906
0.0644013
0.0571967
-0.0699296
0.0720212
0.0730475
0.0691586
-0.0739403
0.0773059
0.0760561
0.074681
-0.0773114
0.0786886
0.0758964
0.0757526
-0.0814789
0.0807082
0.0752004
0.0750956
-0.0812792
0.0817287
0.074718
0.0744773
-0.0820286
0.0822367
0.07386
0.0739444
-0.082391
0.0825275
0.0712028
0.0723946
-0.0826853
0.0829017
0.0645557
0.0680686
-0.0831912
0.083567
0.0518709
0.0586165
-0.084033
0.0845888
0.0329526
0.0427884
-0.0852012
0.0858255
0.00986472
0.0215616
-0.0863738
0.0872775
-0.013514
-0.00168662
-0.0451353
0.0444419
0.0803125
-0.0449674
0.0839954
-0.0869844
0.0874144
-0.035908
-0.024306
0.0675346
-0.0656964
0.0200632
0.0691938
0.0294823
-0.0419724
0.041514
0.0746269
0.0791924
0.0642071
-0.0629019
-0.00250699
0.00974048
0.0622544
-0.0626096
-0.0229802
-0.0125262
0.063479
-0.0647904
-0.0408012
-0.0320645
0.0664768
-0.0685043
-0.0537416
-0.047499
0.070698
-0.0729861
-0.0617199
-0.0577566
0.0752461
-0.0774492
-0.0663032
-0.0637669
0.0795427
-0.0815632
-0.0690657
-0.0672644
0.0834424
-0.0852419
-0.0713647
-0.0696328
0.0869136
-0.0894439
-0.0741732
-0.0721552
0.0913298
-0.0916135
-0.0767127
-0.0750655
0.0943646
-0.0948074
-0.0763937
-0.0765664
0.0963861
-0.0979856
-0.0708006
-0.073888
0.0994638
-0.100794
-0.0584312
-0.0650966
0.101917
-0.102817
-0.0388666
-0.0492319
0.103468
-0.103918
-0.0134326
-0.0265469
0.104189
-0.104304
0.0141508
0.000356228
0.104139
-0.101649
0.0395334
0.0271669
0.0999464
-0.0965741
0.0619054
0.0518229
-0.0763304
-0.0570197
0.0724191
-0.0740876
-0.0895121
-0.094107
0.0699521
-0.0740691
-0.0881158
-0.0449446
0.0873916
0.0714132
0.0392945
-0.0666569
0.0687205
-0.0846968
-0.0632337
-0.0797536
0.0756502
-0.0787719
-0.0863903
0.0741098
-0.0925666
-0.090076
0.0931643
-0.0936457
-0.0354266
0.09174
-0.0435204
0.0496398
-0.0501947
0.0751817
0.0460952
0.0749578
-0.0734079
0.0701554
-0.0599812
-0.0699772
0.0723386
-0.082115
0.081356
0.0722833
-0.0524059
-0.101233
-0.0620292
-0.0664987
0.0627082
-0.0449151
-0.0533631
-0.0594573
0.0567121
-0.0229632
-0.0343604
-0.0553543
0.05467
0.001767
-0.0110731
-0.0551002
0.0560322
0.0261149
0.0141271
-0.0574516
0.0592965
0.0469899
0.0369819
-0.061455
0.0638507
0.0620056
0.0550382
-0.0663683
0.0689356
0.0704802
0.066641
-0.0714024
0.0737439
0.0737146
0.0722142
-0.075815
0.0776338
0.0740776
0.0736815
-0.0791822
0.0805065
0.073876
0.0735471
-0.0816104
0.0825486
0.0737798
0.0733734
-0.0833564
0.0840767
0.0731396
0.0731366
-0.084748
0.0854166
0.0705342
0.0717233
-0.0861034
0.086844
0.0638151
0.0673818
-0.0876313
0.0884532
0.0510491
0.0578291
-0.0892857
0.0901055
0.0321328
0.0419558
-0.0908529
0.0915378
0.00917977
0.0208142
-0.0923463
0.092712
-0.0138797
-0.00249505
-0.0252397
-0.0516229
0.0498971
0.0820384
0.0521537
-0.053019
0.0882569
0.0845261
0.0788948
0.0642666
-0.062241
0.0180376
-0.0665331
0.0693047
0.0365229
0.0272159
0.0601687
-0.0598589
-0.00281674
0.00766811
0.0597364
-0.0603253
-0.0223912
-0.0126487
0.0614136
-0.0630296
-0.0391853
-0.0309762
0.0650354
-0.0673621
-0.0514148
-0.0454932
0.0698653
-0.0724479
-0.0591372
-0.0552535
0.0749925
-0.077491
-0.0638047
-0.0612223
0.0798778
-0.0822059
-0.0667376
-0.0648776
0.0844424
-0.086628
-0.069179
-0.0673963
0.0887354
-0.0908076
-0.072101
-0.0700478
0.0928788
-0.0950191
-0.0745724
-0.0729943
0.0972189
-0.0994614
-0.0741513
-0.0743666
0.101722
-0.103961
-0.0685617
-0.0716275
0.106046
-0.107928
-0.0565497
-0.0630114
0.109527
-0.11084
-0.0375538
-0.0476322
0.111826
-0.112468
-0.0127905
-0.0255607
0.112753
-0.112732
0.0141297
0.000641432
0.112298
-0.111446
0.0386818
0.0267322
0.10839
-0.10395
0.0574657
0.048767
0.099934
-0.0969292
0.071105
0.0659356
0.0762686
-0.0782503
-0.0905849
-0.094477
0.0738164
0.0742472
-0.0866055
-0.0754638
-0.0914239
-0.051734
0.0904551
0.072179
0.043221
0.0755163
-0.0853479
-0.0745202
-0.0901204
0.0901715
-0.0602947
0.046361
-0.0771654
0.0748893
-0.0922009
-0.079405
-0.0883452
-0.0468058
0.0753415
-0.0461075
-0.020816
-0.0646806
-0.0912926
-0.0721812
0.0740878
-0.0543125
-0.0517121
0.0548723
-0.0684913
0.0634233
-0.0549131
-0.0564327
-0.0594959
0.0555561
-0.0409752
-0.0494357
-0.0528631
0.0511254
-0.0212254
-0.0316675
-0.0498376
0.0496593
0.00194531
-0.00978539
-0.0501429
0.051255
0.0250028
0.0136435
-0.0529393
0.0551339
0.0447952
0.0352976
-0.0577037
0.0605548
0.0591545
0.0524684
-0.0635238
0.0665396
0.0674644
0.063672
-0.0694544
0.0722171
0.0709519
0.0692995
-0.0747149
0.0769478
0.0718448
0.0711838
-0.0789162
0.0806541
0.0721381
0.0715787
-0.0821871
0.0835826
0.0723843
0.0718404
-0.0848631
0.0860821
0.0719206
0.0718562
-0.0872617
0.0884594
0.0693364
0.0705438
-0.0896863
0.0909436
0.0625577
0.066155
-0.0922027
0.0934499
0.0498018
0.05657
-0.0946078
0.0956666
0.031074
0.0407979
-0.0965886
0.0973156
0.00845277
0.0198922
-0.0981327
0.0990059
-0.0147529
-0.00331213
-0.0985845
0.0978443
-0.0346864
-0.0248183
-0.0973592
0.0950193
-0.0493941
-0.0430353
-0.0570677
0.0574034
0.0879212
0.0585056
-0.0581824
0.094696
0.0918929
-0.0564658
0.0565082
0.0819961
0.0854637
-0.0555593
0.0533821
0.0773589
0.0798436
-0.0520101
0.0492218
0.0749672
0.0763298
0.0671325
-0.0641331
0.0335235
-0.0717402
0.0711155
0.0498464
0.0386133
0.0616394
-0.059802
0.0162002
0.0247221
0.0581859
-0.0578007
-0.00320192
0.00605195
0.0579637
-0.0587471
-0.0216078
-0.0124857
0.0600693
-0.0619011
-0.0373534
-0.0296541
0.0641495
-0.0667041
-0.0488603
-0.0432448
0.0694106
-0.0722104
-0.0563373
-0.052547
0.0749674
-0.0777057
-0.0610664
-0.0584653
0.0803633
-0.082991
-0.0641099
-0.06222
0.085545
-0.0880664
-0.0666575
-0.0648424
0.0905395
-0.0930377
-0.0696028
-0.0675747
0.0955687
-0.0982095
-0.0719316
-0.0704632
0.100931
-0.103758
-0.0713246
-0.0716452
0.106612
-0.109455
-0.0657196
-0.0687726
0.112139
-0.114577
-0.0541115
-0.0603274
0.116646
-0.118319
-0.035881
-0.045563
0.119548
-0.120323
-0.0120148
-0.0243319
0.120627
-0.120403
0.013906
0.000944814
0.119722
-0.1185
0.0374596
0.0260515
0.116801
-0.114707
0.0553719
0.0470681
0.109874
-0.104402
0.0656324
0.0611024
0.100621
-0.0975274
0.0717957
0.0700357
0.0747192
-0.0766414
-0.0902788
-0.094845
0.0720368
0.0768822
-0.0879714
-0.0755579
-0.0903862
0.0799441
-0.0751205
-0.0754116
-0.0941139
0.101852
-0.102603
-0.0486423
0.0988735
-0.0552041
0.0550221
-0.0564546
0.0763998
0.0506001
0.0755375
0.0798572
-0.061554
-0.0744955
-0.0904911
0.024509
-0.0940186
-0.052943
0.0640735
-0.057238
0.0757397
-0.0750851
-0.0909333
0.0717581
-0.0908634
-0.0461754
-0.0714481
-0.0899683
-0.0669337
0.0655275
-0.0529063
-0.0545724
-0.0631617
0.0584958
-0.0502473
-0.0540669
-0.0538967
0.0509705
-0.038049
-0.0448366
-0.0486466
0.046988
-0.0195668
-0.0293435
-0.0460788
0.045909
0.00211516
-0.00887619
-0.0464817
0.047748
0.0237365
0.0130708
-0.0496365
0.0520862
0.0423455
0.0334091
-0.0549552
0.0581383
0.0559714
0.0495994
-0.0614549
0.0648247
0.0640946
0.0603554
-0.0680866
0.0711901
0.0678483
0.0660376
-0.0740339
0.076618
0.0692607
0.06834
-0.0789416
0.0810561
0.0700236
0.0692551
-0.082984
0.0847989
0.0705693
0.0699126
-0.0865218
0.0882139
0.0702285
0.0701333
-0.0898898
0.0915962
0.06763
0.0688678
-0.0933225
0.0950653
0.0608149
0.0644287
-0.0967579
0.0983875
0.0481723
0.0548774
-0.0998699
0.10116
0.0297835
0.0393155
-0.102205
0.102987
0.00767063
0.0188474
-0.103481
0.103696
-0.0149681
-0.00380551
-0.104
0.103186
-0.0338719
-0.0251224
-0.0424531
-0.0615393
0.06021
0.0892506
0.0611693
-0.0614798
0.0950065
0.0915229
-0.0600206
0.0590458
0.082971
0.0856531
-0.0589806
0.0585933
0.0777462
0.0799088
0.0784685
0.0651524
-0.0622943
0.0306654
-0.0665823
0.0721309
0.0442978
0.0371834
0.0600459
-0.0577619
0.0139162
0.0224738
0.0569189
-0.0566344
-0.00348645
0.00520896
0.0569652
-0.0578962
-0.0206769
-0.0121549
0.0593998
-0.0614269
-0.0353263
-0.0281504
0.0638373
-0.0665753
-0.0461223
-0.0408345
0.0694348
-0.0723794
-0.0533927
-0.0496875
0.0752825
-0.0781805
-0.0581684
-0.0555622
0.0810307
-0.0838847
-0.0612559
-0.0593698
0.0866935
-0.0895033
-0.0638478
-0.0620335
0.0922959
-0.0951628
-0.0667359
-0.0647821
0.0980998
-0.101177
-0.0688548
-0.0675262
0.104353
-0.107657
-0.0680201
-0.068469
0.110996
-0.114326
-0.0623888
-0.0654345
0.117487
-0.120389
-0.0512089
-0.0571669
0.122879
-0.124899
-0.0338605
-0.0430737
0.126364
-0.127249
-0.0111295
-0.0228674
0.127534
-0.127133
0.0135055
0.00122976
0.126171
-0.124601
0.0358898
0.0250887
0.122484
-0.119927
0.0528156
0.044951
0.11716
-0.114174
0.0626464
0.0583347
0.108864
-0.103195
0.0661267
0.0647263
0.0972321
-0.0931642
0.0676902
0.0660735
0.0729394
-0.0723807
-0.0914221
-0.0889461
0.0687214
0.0765539
-0.0845811
-0.075355
-0.0904428
-0.0595121
0.0969058
0.0742488
0.0484822
0.0787387
-0.074002
0.0591053
-0.0844759
0.0709247
-0.0733735
-0.07525
-0.0933593
-0.0732697
-0.0923065
-0.0692628
-0.0709313
0.0708128
-0.0668451
-0.0732305
0.0594335
-0.0730966
-0.0733674
-0.0899467
0.0693757
-0.0732455
-0.0875523
0.0689078
-0.0884782
-0.0887694
-0.063215
0.0642673
-0.0582903
0.0709988
-0.0781192
-0.0638109
-0.0636643
-0.0643018
0.0630032
-0.0516076
-0.0546068
-0.0593671
0.0556421
-0.0465223
-0.0504308
-0.052017
0.048844
-0.0348761
-0.0412115
-0.0463678
0.0446412
-0.0178402
-0.0268673
-0.043684
0.0435273
0.00227183
-0.00791904
-0.0441521
0.0455219
0.0223666
0.0124461
-0.0475506
0.0501653
0.0397308
0.0313804
-0.0532235
0.056617
0.0525779
0.0465413
-0.060163
0.063771
0.0604867
0.0568093
-0.0672775
0.0706327
0.0644931
0.0625311
-0.0737439
0.0766171
0.0663874
0.0652289
-0.0792467
0.0816947
0.0675755
0.0666255
-0.0839807
0.0861844
0.0683656
0.0676266
-0.0883149
0.090443
0.0681004
0.0680028
-0.092574
0.0947393
0.0654647
0.0667369
-0.0969118
0.099092
0.0586348
0.0622562
-0.101183
0.103153
0.0462023
0.0527867
-0.104913
0.106408
0.0282884
0.037555
-0.107559
0.108369
0.00686029
0.0176969
-0.108789
0.108816
-0.0149952
-0.00422526
-0.108495
0.108466
-0.0338423
-0.0248018
-0.106945
0.105285
-0.046982
-0.0409329
-0.102091
0.0998207
-0.0572423
-0.0520096
-0.0625732
0.063435
0.0941447
0.0639134
-0.0607443
0.0966516
0.0982459
-0.0633061
0.0634093
0.0891474
0.0916518
-0.0629536
0.0620554
0.0838692
0.0861087
-0.0607492
0.0590888
0.0794067
0.0812149
-0.0586964
0.0570706
0.0780256
0.0788609
-0.0545659
0.0516575
0.0771573
0.0780422
0.0704361
-0.0665407
0.0404024
-0.0735996
0.0754676
0.0497894
0.0453187
0.0635011
-0.0609201
0.0280844
0.0341438
0.0584166
-0.0570994
0.012599
0.0199702
0.0563711
-0.0562027
-0.00365483
0.00448064
0.0566519
-0.0577285
-0.0196003
-0.0117056
0.0593525
-0.0615179
-0.033161
-0.0265264
0.0640375
-0.0668583
-0.0433016
-0.0383148
0.0697916
-0.0728071
-0.0503772
-0.0467541
0.0758085
-0.0788358
-0.0551411
-0.0525608
0.0818406
-0.0848703
-0.0582263
-0.056365
0.087871
-0.0909009
-0.0608178
-0.0590328
0.0939439
-0.097096
-0.0635838
-0.0617391
0.100348
-0.103769
-0.0654346
-0.0642739
0.107306
-0.110993
-0.0643335
-0.0649315
0.114727
-0.118468
-0.0586472
-0.0617004
0.122035
-0.125317
-0.0479262
-0.0536006
0.128132
-0.130407
-0.0315858
-0.0402592
0.132042
-0.133006
-0.0101657
-0.0212317
0.133275
-0.132773
0.0130032
0.00149858
0.131527
-0.129671
0.034034
0.023843
0.127223
-0.124304
0.0498967
0.0425032
0.121085
-0.117659
0.0592204
0.0551157
0.114208
-0.110782
0.0627006
0.0612749
0.107372
-0.102207
0.0625252
0.0626638
0.0972141
-0.0909075
0.0626012
0.0637281
0.0656218
-0.0684002
-0.0856998
-0.0881422
0.0628565
0.0766551
-0.0824976
-0.0794323
-0.0655319
0.0750769
-0.0781541
0.103676
-0.107125
-0.053793
0.100925
-0.0579936
0.0563347
-0.0573157
0.0781383
0.0532857
0.0785166
-0.0753985
-0.0902944
-0.0740696
-0.0925594
0.066671
-0.0806109
-0.0718835
-0.0937904
-0.0692367
-0.0939555
-0.0664872
-0.0894653
0.0654976
-0.0658365
-0.0853609
0.0613106
-0.0839552
-0.0875128
-0.0812267
0.0761092
-0.0586935
-0.063854
0.073261
-0.0888393
0.0869015
-0.0922631
-0.0584924
-0.0598571
-0.0686325
0.0660761
-0.055734
-0.0561876
-0.0642837
0.0620669
-0.0493908
-0.0528144
-0.0584044
0.0547156
-0.0428335
-0.0467683
-0.05117
0.0479748
-0.0316809
-0.0376659
-0.0454102
0.0436334
-0.0160633
-0.0243027
-0.0426465
0.0424812
0.00243716
-0.00693217
-0.0431158
0.0445238
0.0209586
0.0118115
-0.0466184
0.0493143
0.0370349
0.0292857
-0.0524646
0.0559599
0.0490826
0.0433911
-0.0596193
0.0633509
0.056755
0.05315
-0.0669969
0.0705116
0.0609783
0.0588852
-0.07381
0.0769086
0.0632888
0.0619305
-0.0797934
0.0825323
0.0648366
0.0637407
-0.0851376
0.0876859
0.0658173
0.0650213
-0.0901882
0.0927017
0.0655868
0.0655005
-0.0952248
0.0978029
0.0628866
0.0642138
-0.100361
0.10291
0.0560857
0.0596981
-0.105353
0.107608
0.0439475
0.0503435
-0.109592
0.111261
0.0266189
0.0355713
-0.1125
0.113301
0.00605984
0.016458
-0.113644
0.113519
-0.01487
-0.00456848
-0.112944
0.111963
-0.0328616
-0.0242271
-0.110715
0.109229
-0.0454953
-0.039685
-0.0499061
-0.0644782
0.0644688
0.0941541
0.0614769
-0.0619329
0.0971076
0.0952447
-0.0650794
0.0651844
0.0890424
0.0910413
-0.0648349
0.0640536
0.0846504
0.0864583
-0.0628598
0.0612859
0.0809805
0.0824088
-0.0608834
0.0591661
0.0797429
0.0792634
0.0798926
0.0694073
-0.0664986
0.0374936
-0.0723755
0.0757843
0.0463806
0.0423505
0.0630078
-0.060017
0.0250936
0.030653
0.0583186
-0.0571146
0.0113949
0.0182719
0.0564732
-0.0564152
-0.00371285
0.00383922
0.0569712
-0.0581557
-0.0184158
-0.0111496
0.0598787
-0.0621077
-0.030932
-0.0248034
0.0646781
-0.0675136
-0.0404661
-0.0357444
0.0704578
-0.0734887
-0.0473463
-0.0438099
0.0765263
-0.0796239
-0.0520436
-0.0495232
0.0827288
-0.0858839
-0.0550713
-0.05326
0.0890274
-0.0922256
-0.0576196
-0.0558893
0.0954636
-0.0988371
-0.0602103
-0.0585011
0.102325
-0.10599
-0.0617691
-0.0607861
0.109773
-0.113706
-0.0604006
-0.0611485
0.117689
-0.121696
-0.0546403
-0.0577173
0.125548
-0.129128
-0.0443455
-0.0497491
0.132217
-0.134703
-0.0290991
-0.037171
0.136462
-0.137456
-0.00917168
-0.0194733
0.137691
-0.137085
0.0123969
0.00173402
0.135691
-0.133565
0.0319086
0.0224488
0.130883
-0.127677
0.0466907
0.039821
0.124142
-0.120401
0.0554799
0.0515806
0.116638
-0.112889
0.0589513
0.0575118
0.109226
-0.105674
0.0589733
0.0590006
0.100034
-0.0950717
0.0576386
0.0580885
0.0907549
-0.0877193
0.058275
0.0585397
-0.0736445
0.0608796
-0.0603316
-0.073614
0.0628396
-0.0639216
-0.0828732
-0.0824587
0.057579
0.0743966
-0.0818173
-0.0593058
0.0982982
0.0797833
0.0492868
0.0613196
-0.0947407
-0.058842
-0.074387
-0.0899769
0.0690398
-0.0965595
0.0711149
-0.0825981
-0.0727113
-0.0917317
0.0668313
-0.0865627
-0.0705837
-0.0924434
-0.0681912
-0.0922514
-0.0656966
-0.0896052
-0.0649038
-0.0843788
0.0612957
-0.0635139
-0.0806551
0.0587181
-0.0798811
-0.0875032
-0.0922945
0.0862851
-0.052483
-0.0620634
-0.0960888
0.0634116
0.0965893
-0.0967539
-0.0618988
-0.0545472
-0.0809556
0.0765393
-0.0542771
-0.0545277
-0.0723888
0.067932
-0.0512772
-0.0520371
-0.0644771
0.0618769
-0.0467906
-0.0493595
-0.0582848
0.0546916
-0.0392402
-0.0431762
-0.0512454
0.0481333
-0.0285688
-0.0342198
-0.0455751
0.0437702
-0.0142585
-0.0217445
-0.042796
0.0426222
0.00261098
-0.00595794
-0.04325
0.0446462
0.0195625
0.0111836
-0.0467322
0.0494239
0.0343432
0.0271997
-0.0525741
0.056076
0.0455807
0.0402408
-0.0597511
0.0635109
0.0529952
0.0494749
-0.067207
0.0707999
0.0573853
0.0551891
-0.0742117
0.0774685
0.060032
0.0585188
-0.08055
0.0835271
0.0618595
0.0606592
-0.0863996
0.0892433
0.0629737
0.0621488
-0.0920612
0.0949087
0.0627393
0.0626826
-0.0977705
0.100683
0.0599742
0.061352
-0.103581
0.10643
0.0532367
0.0568
-0.109131
0.111644
0.0414344
0.0476423
-0.113792
0.11557
0.0248405
0.0334237
-0.116892
0.117658
0.00529372
0.0151359
-0.117921
0.117646
-0.0145943
-0.00483147
-0.116855
0.115575
-0.0315811
-0.0234367
-0.113919
0.112222
-0.0437984
-0.038029
-0.110167
0.107325
-0.0509513
-0.047851
-0.103005
0.100149
-0.0564493
-0.0536736
-0.0615359
0.0628153
0.0958282
0.0612618
-0.0577756
0.0966625
0.0980241
-0.0637715
0.0652786
0.092647
0.0942885
-0.0659253
0.0661241
0.0888435
0.0903946
-0.0658878
0.0652243
0.085314
0.0866946
-0.0641503
0.0627031
0.0824278
0.0834828
-0.0609303
0.060244
0.0804293
0.0810361
-0.0584498
0.0560798
0.0805083
0.0816868
-0.0531857
0.0510931
0.0818759
0.0814106
0.075773
-0.07211
0.0427176
-0.079165
0.0820814
0.0481767
0.0458948
0.0687905
-0.0647685
0.0334716
0.0390311
0.0624031
-0.0603683
0.0230588
0.0282876
0.0588021
-0.0576923
0.0102851
0.0167058
0.0571518
-0.0571936
-0.00367105
0.00329869
0.0578458
-0.059098
-0.0171636
-0.0104973
0.0608748
-0.063115
-0.0286919
-0.0230266
0.0656683
-0.0684628
-0.0376716
-0.0331911
0.0713588
-0.0743594
-0.0443458
-0.0409138
0.077397
-0.0805257
-0.0489149
-0.0464856
0.0836826
-0.0869065
-0.0518474
-0.0501031
0.0901345
-0.093438
-0.0543161
-0.0526613
0.0968034
-0.100324
-0.0566895
-0.0551357
0.103969
-0.107794
-0.057944
-0.0571412
0.111731
-0.115811
-0.0563208
-0.0572114
0.119933
-0.12408
-0.0504932
-0.053595
0.128081
-0.131823
-0.0406034
-0.045749
0.135072
-0.1377
-0.0264717
-0.0339213
0.139552
-0.140582
-0.0081414
-0.0176208
0.140748
-0.140068
0.0117171
0.00189916
0.138564
-0.136295
0.0296387
0.0209455
0.133403
-0.130025
0.0433121
0.0369296
0.126294
-0.122354
0.0515394
0.0478502
0.118365
-0.114405
0.0549922
0.0535227
0.11057
-0.106884
0.0552875
0.0551654
0.103457
-0.100208
0.0543896
0.0546606
0.0953895
-0.0906944
0.0535799
0.0537217
0.0863313
-0.0808578
0.0532446
0.053216
-0.0846434
0.0677164
-0.0434046
-0.0892176
0.0598106
-0.0616495
-0.0780422
-0.0782448
0.0571976
0.0729021
-0.0836044
-0.0730017
-0.0896865
0.0633532
-0.0996085
-0.0604987
-0.0985237
0.0657881
0.060782
-0.0939298
0.0685013
-0.084268
-0.0713995
-0.0909158
0.103454
-0.10651
-0.053394
0.0995519
-0.0538731
0.0527523
-0.0547205
0.083844
0.0507506
0.0840832
0.0673547
-0.086201
-0.0695385
-0.0910962
-0.0674606
-0.0904874
-0.0654383
-0.0890707
-0.0632925
-0.0846002
-0.0632508
-0.0790538
-0.0609531
-0.101601
0.0629452
-0.104144
0.10289
-0.0596989
0.0623983
-0.108121
-0.0584215
0.0582208
-0.0731457
-0.0631173
0.0541723
-0.0741963
-0.105628
0.0664254
-0.0876028
-0.0962497
0.0897911
-0.0554402
-0.0538585
-0.0887264
0.08708
-0.0508366
-0.0534825
-0.0823471
0.0773451
-0.0492751
-0.0497948
-0.0736664
0.0698078
-0.0474186
-0.0483584
-0.0659813
0.0623394
-0.0431487
-0.0455329
-0.0588214
0.0553641
-0.0357829
-0.0396582
-0.0520921
0.0491232
-0.0255999
-0.0309478
-0.046679
0.0448924
-0.0124719
-0.0193002
-0.043917
0.0437393
0.00278862
-0.00498254
-0.0443548
0.0457158
0.0182016
0.0105681
-0.0477428
0.0503594
0.0317266
0.0251726
-0.0534266
0.0568478
0.0421595
0.0371736
-0.0604542
0.0641633
0.049286
0.0458685
-0.0678377
0.0714442
0.0537789
0.0515147
-0.0749096
0.0782649
0.0566767
0.0550533
-0.081487
0.0846434
0.0587031
0.0574371
-0.0877275
0.0908109
0.0598903
0.0590647
-0.0938838
0.0970101
0.059613
0.0596097
-0.100146
0.103329
0.0567912
0.0582164
-0.106483
0.109571
0.0501486
0.0536456
-0.112472
0.115135
0.0387714
0.0447417
-0.117434
0.119269
0.0230053
0.0311248
-0.120585
0.121375
0.00450394
0.0138195
-0.121533
0.121107
-0.0141682
-0.00498937
-0.120123
0.118613
-0.0300712
-0.0224525
-0.116676
0.114407
-0.0415296
-0.0360918
-0.111817
0.109366
-0.0485006
-0.045261
-0.0508173
-0.0619639
0.0627412
0.0950508
0.059359
-0.058987
0.0962905
0.0954192
-0.0643577
0.0654712
0.0915335
0.092672