/*--------------------------------*- C++ -*----------------------------------*\
  =========                 |
  \\      /  F ield         | OpenFOAM: The Open Source CFD Toolbox
   \\    /   O peration     | Website:  https://openfoam.org
    \\  /    A nd           | Version:  10
     \\/     M anipulation  |
\*---------------------------------------------------------------------------*/
FoamFile
{
    format      ascii;
    class       surfaceScalarField;
    location    "5.5";
    object      phi;
}
// * * * * * * * * * * * * * * * * * * * * * * * * * * * * * * * * * * * * * //

dimensions      [0 3 -1 0 0 0 0];

internalField   nonuniform List<scalar> 
57492
(
0.000584727
-1.73621e-05
-0.000112002
-0.000455364
-0.000553642
0.000685194
0.000453176
-3.1661e-05
9.04192e-05
0.00035767
-0.000416428
0.00316743
0.00338198
-0.000274952
-0.00627445
-0.00862821
0.00403566
0.00775998
0.00192621
-0.00184458
-0.000966533
0.000884904
-0.00353841
0.00084961
-0.000393515
0.00308232
0.000629929
-0.00224213
0.000924677
-0.00435631
0.00414614
-0.000714506
0.000845764
0.00401139
-0.00393248
-0.0020709
-0.000626462
0.0019982
0.000699159
-0.000106768
-0.00199817
3.40408e-05
0.000945028
-0.001043
-8.79487e-06
-0.000182696
0.000501262
0.00352735
-0.0032958
-0.00124601
0.00101446
0.000400682
0.00282055
0.000306112
-0.000342038
0.000806069
0.00331857
-0.0037826
-0.000672072
0.00324197
-0.00291194
0.000135326
-0.000291929
0.000156602
-0.00170257
0.00124286
0.000595031
-0.00465823
0.000242647
0.00335181
0.00106377
0.0011797
-0.00472446
-0.00111347
-9.38477e-05
-0.000679922
-0.00113555
0.00190932
-0.000543297
0.000480021
-3.05719e-05
-0.00369281
0.00288541
0.00124824
-0.000440834
-0.00382251
0.000586086
-0.000456381
-0.00110576
0.000580683
0.000451843
7.32359e-05
-0.000765468
-0.000353616
1.33216e-05
-0.000382432
-0.00118994
0.00137658
0.000195798
-0.000436349
0.000124044
-7.01267e-05
0.00205103
-0.00137882
-0.00129067
0.000618456
-0.00175775
0.00125681
0.00255198
-0.00222182
-0.00438763
0.00368141
0.00292803
-0.00455013
-0.00119266
0.00352097
-0.000720905
-0.000162097
0.000883003
-0.000278886
-0.000442019
-0.00138859
0.00192304
-0.00081333
0.000206803
-0.000773563
-0.000821834
-0.00171121
0.00256082
-0.000235215
-0.00190805
0.0011547
0.000753351
-0.00434275
0.0024347
0.00448236
-0.000466219
4.92451e-05
-0.00406538
0.0032934
-0.000358995
0.00154796
-0.000375999
0.00437877
-0.00446899
0.003548
0.00064422
-0.00356229
0.00347492
-0.000320435
0.00390837
-0.00144878
-0.00285443
0.000394844
0.00439841
0.000154187
0.00240077
-0.00138031
0.00245446
0.00186829
0.0036148
-0.00420775
-0.000640291
0.000608847
0.00423919
-0.00434537
-0.000357506
0.000495124
0.000605431
0.0042573
-0.00420939
-0.000653346
0.000304359
-0.00405524
-0.00499764
0.00303487
0.00393491
-0.00197214
-0.00183241
0.00378857
-0.00695381
-6.371e-05
-0.000421533
2.10238e-05
0.000464219
-0.000838202
-0.000268509
0.000270579
-0.000300891
-0.00080789
-0.00019615
4.51956e-05
0.000114253
-9.32291e-05
3.20783e-05
8.21746e-05
0.00826732
0.00357598
-0.00642898
-0.00541431
0.00191581
-0.000428788
0.0067803
-0.00846246
0.00248961
0.00788865
0.00179571
-0.00668219
0.00157046
-0.00286649
0.00215372
-0.000857683
0.00238898
-0.00292201
0.00210349
-8.29812e-05
7.36681e-05
-8.04893e-06
-0.000176922
-1.8061e-05
-0.000549858
-8.24278e-05
-0.00300069
0.00546615
0.00328403
-0.00574948
0.00426534
-0.00487705
0.00284154
0.00489439
-0.00226978
0.011327
-0.00276579
-0.000836912
-0.00772427
0.000840421
0.0063095
0.00417706
0.000740431
-0.0059859
0.00608589
5.20368e-05
-8.36978e-05
0.000142456
0.000929841
0.00187525
-0.000668508
-0.00213658
0.00117192
0.000115595
-0.0001833
6.12805e-05
0.00012202
-0.000476855
0.000293555
-0.00701522
0.00320291
-0.00200838
0.00582069
-0.00591583
-0.00296357
0.00186418
-0.00268408
0.00226508
-0.00549683
0.00207138
-2.07456e-05
-0.00098751
-0.00106312
-0.000751546
0.00235324
0.000469687
-0.000885868
-8.89165e-05
0.000223238
-0.000814586
-9.20272e-05
-0.000281571
-0.00152053
-0.00131335
-0.000411512
7.49748e-05
0.00164988
-0.000995955
-0.0021727
0.00185531
0.000947197
0.000152004
-0.00209516
0.000604214
-6.85287e-05
0.000771719
-9.25301e-05
-0.000669904
0.000388333
8.17833e-05
-0.000751688
0.000215595
-0.00069245
0.00427347
0.00333167
-0.000178418
0.00212772
-0.00648246
-2.85431e-05
0.00228286
-0.00180056
-0.000453755
0.000253462
0.00319234
-0.00347434
0.00280149
0.00195064
-0.000819312
-0.00393282
-0.00062803
0.00011074
0.00331878
0.00375991
-0.00243729
-0.00155074
-0.00302435
0.00109459
0.0034805
-0.00128166
0.00350588
-0.00377497
0.000306954
-0.00461296
0.000487502
0.000322198
-1.73922e-05
0.00216958
-0.00113196
-0.00159126
0.000652502
-0.00138796
0.00290504
0.00126229
7.54054e-05
-0.000185734
0.000333997
6.82147e-05
-0.000216477
0.000998887
-0.00122346
3.88399e-05
-0.000360205
0.000838618
0.000520474
-0.000126034
9.98252e-05
-0.00666478
0.00329576
0.00657193
0.00767974
-0.00233472
-0.00830859
-0.00320888
0.00422385
-9.54063e-05
-0.00090431
-0.000190227
-0.000542428
1.06726e-05
4.38982e-05
-0.000131215
4.25263e-05
4.47903e-05
-0.00012731
0.000137974
3.32344e-05
-0.000287595
2.90695e-05
-0.000278553
-0.000322453
5.85773e-05
-0.000839803
-0.00034306
-0.00184822
-0.00201156
0.00235948
0.00150031
9.50766e-05
0.000908185
-0.00285148
-0.00267165
0.000755167
-0.00298081
0.00133243
-5.41898e-05
-0.00351896
0.000773635
-0.000235486
0.000809184
-0.00335699
0.00260773
-5.99262e-05
0.0006183
-0.00280261
0.00299349
0.002501
-0.0102007
-0.00184501
0.00224807
0.00305468
-0.00356725
0.00211373
-0.000352792
-0.000222986
0.000374989
-0.000244782
2.17963e-05
0.000293612
-4.16408e-05
0.00477847
-0.0029329
-0.00231462
0.000469052
0.00417821
0.000224264
0.00571881
-0.0014049
-0.00614632
0.000322912
0.00402249
0.00137341
-0.000171695
-0.00391355
0.00440816
1.08617e-05
-0.000255644
0.000768434
-0.00220718
-0.00297877
0.00134066
0.00327766
0.00222973
-0.000134497
-0.00234031
0.000245073
0.000679652
-0.000207673
-0.00278812
0.000454697
0.00359023
0.000416399
-0.00252487
-0.000131315
3.78713e-05
-0.000201344
0.000167045
4.4109e-05
-9.80985e-06
7.00356e-05
3.31473e-06
-0.000274695
9.0526e-05
-0.000802132
0.000781641
-0.00275368
0.00403083
-0.00106156
0.00318378
-0.00497679
-0.000960667
-7.6034e-05
-0.00352832
0.00405905
-0.00464693
0.000395624
-0.00312183
-0.00224908
0.000723984
0.00277769
0.00285182
-0.00538687
0.00249799
0.00439247
-0.00411277
0.0022187
-0.00307489
0.00160953
-0.00075334
0.00242624
-0.00301671
0.00280918
0.00441949
0.00178414
0.00451177
-0.000284167
-0.00451428
0.000286672
0.00495546
-0.000662583
0.000218901
0.0052757
-0.000548809
-0.000250373
-0.00447652
0.00378885
-0.000992204
0.00247906
0.00428665
-0.00120853
0.000948046
-0.00402617
0.00103219
0.00436845
-0.00111399
-0.00387918
-0.00148152
0.00415217
0.000906537
-0.00369113
-0.00162269
0.00362167
-0.00211772
-0.00327657
0.00187413
0.00352017
-0.00217106
-0.00331671
0.00337004
0.00203815
0.0031167
-0.00131178
-0.00384306
0.00309613
-0.00322904
-0.00235764
0.00233375
0.00312001
-0.00187739
0.00263644
-0.00409271
0.00364889
-0.000867961
-0.00512826
0.000881333
0.00542414
-0.00117721
0.00178922
-0.00108886
0.00263181
-0.00278373
0.00124077
-0.000673301
0.0028651
-0.00328066
-0.000101416
0.000764713
0.000598993
-0.0026516
-0.00365623
0.0023021
-3.94945e-05
4.28092e-05
1.7813e-06
-4.12758e-05
-0.000296596
-0.00425341
0.0031697
-0.00351258
-0.000218356
0.00343434
0.000175442
-0.0036864
-1.62801e-06
-0.000406365
0.00184563
0.000434337
-0.0018736
0.0019824
0.000410138
-0.0027989
0.00183054
0.00199748
-2.34245e-05
4.39743e-05
0.000301649
4.13579e-05
-6.47824e-05
8.53322e-05
-1.6922e-05
3.41022e-05
-0.00021333
1.39313e-05
-3.08533e-05
4.80335e-05
-8.32716e-05
4.48115e-05
-0.000504837
5.08133e-05
-0.000134085
9.56248e-05
5.3383e-05
-5.4112e-06
-0.000174005
-1.69521e-05
7.03351e-05
-2.23633e-05
0.000975795
0.00285035
-0.00371541
0.00143916
-0.00404734
0.00358398
0.00396238
0.000327129
-0.00117018
-0.00243164
0.00114706
0.00245477
-0.000713225
0.00271317
-0.00317013
0.000149521
-0.00329439
0.00390707
-0.00394491
-1.21182e-05
4.99509e-05
0.00390453
3.55236e-05
-3.29789e-05
-2.42126e-05
-0.00393993
1.92393e-05
0.00393292
-1.0216e-06
-2.73681e-05
0.00400201
5.73113e-05
-0.000126401
2.82055e-05
0.00410087
-0.000127065
0.00405158
-0.00402842
5.05133e-06
-0.000190558
0.00429154
-1.15527e-07
0.00393809
-7.70688e-05
-0.00390589
-6.52188e-05
-0.00389329
-1.3626e-05
-0.00388875
3.09826e-05
-0.0039731
7.22362e-05
-0.0039091
-8.82167e-05
-0.000184748
0.00447669
-3.98584e-07
0.00375341
-7.42867e-08
-1.92931e-05
-0.00390777
-1.28646e-05
-0.0039419
1.35131e-05
-2.75023e-05
-0.00413436
0.000254084
6.75676e-08
0.00447666
-4.40478e-08
0.003754
-5.16167e-07
-0.00408759
0.000118181
0.00447676
2.38001e-07
-3.36767e-07
1.23389e-07
0.00447663
1.3448e-08
0.00375427
-3.29398e-08
0.00375488
-4.83668e-07
-2.32226e-05
-0.00411037
-7.60674e-07
-0.00411043
-3.82813e-07
3.53818e-07
0.00447656
-2.88384e-07
0.00375522
5.61158e-09
-4.08019e-08
-0.00410979
-5.36755e-07
-0.0041096
-8.62657e-07
3.49197e-07
0.00447614
7.12172e-08
0.00375603
-4.55083e-07
5.73045e-08
-0.00410898
-8.701e-07
-0.00410905
-4.96449e-07
8.15183e-07
0.00447557
-2.47105e-07
0.0037568
4.28417e-08
-6.91842e-08
-0.00410829
-6.26114e-07
-0.00410814
-9.80042e-07
1.26644e-06
0.00447418
1.21111e-07
0.0037585
-4.30736e-07
4.9435e-08
-0.00410741
-9.30641e-07
-0.00410745
-6.41155e-07
2.65893e-06
0.00447173
-2.09647e-07
0.00376108
7.61123e-08
9.42736e-06
-0.00411616
-6.74233e-07
-0.00409688
-1.14596e-06
4.94579e-06
0.00446662
1.68066e-07
0.00376643
-4.02945e-07
2.6711e-05
-0.00399992
-0.000142952
-0.00402686
-4.33036e-05
1.00141e-05
0.00445678
-1.7102e-07
0.0037589
1.75428e-05
2.64499e-05
-0.00401914
-7.23067e-06
-0.00399694
-3.47266e-06
1.95747e-05
0.00443698
2.18345e-07
0.00373246
4.60113e-05
5.70017e-05
-0.00387794
-0.000198194
-0.00388195
-5.79845e-05
0.000190265
0.00424684
-1.22339e-07
0.00384592
7.68042e-05
6.57105e-05
-0.00386106
-8.25965e-05
-0.00384001
2.37645e-05
0.000167992
0.00393365
0.000145197
0.00390925
0.000104662
0.000104958
-0.000147336
-0.00381868
-0.0038256
9.055e-05
1.17716e-05
3.80303e-05
0.00388385
0.00388374
3.72829e-05
-0.00387498
0.0039353
-0.000142913
-0.00389752
-0.000124795
0.000179532
-0.000155287
-0.00384293
9.14224e-05
-0.00373749
-0.0038506
0.00388387
-4.05024e-05
-0.000113496
-0.00374283
0.00374376
-1.60737e-06
-1.90536e-06
-0.00374465
0.00374551
-1.48093e-06
-1.82408e-06
-0.00374632
0.00374709
-1.31082e-06
-1.68056e-06
-0.00374784
0.00400306
-1.14007e-06
-1.50829e-06
-0.00399152
0.00393651
7.42497e-05
-1.32555e-06
-0.00406284
0.00403066
-7.92408e-07
-7.6377e-05
-0.0039013
0.00384398
-6.90869e-05
0.000101991
-0.00375242
0.00375285
-5.50647e-07
-3.54974e-05
-0.00375327
0.00375367
-4.41074e-07
-8.20765e-07
-0.00375406
0.00375441
-3.44251e-07
-7.2447e-07
-0.00375477
0.0037551
-2.56637e-07
-6.40825e-07
-0.00375541
0.00375571
-1.77418e-07
-5.65705e-07
-0.003756
0.00375627
-1.04424e-07
-4.97951e-07
-0.00375654
0.00375679
-3.41112e-08
-4.34093e-07
-0.0037348
0.00382264
5.73604e-05
2.18665e-05
0.00381301
4.76521e-05
-2.32668e-05
7.51803e-05
0.00383194
-3.02303e-06
0.0038635
0.00383751
-0.00377432
1.36145e-05
-0.00387478
0.00386644
4.56258e-05
6.73918e-05
0.00377399
-0.00375629
-1.57687e-07
4.56774e-05
0.00375601
-0.00375572
-2.16138e-07
-6.7986e-07
0.00375542
-0.0037551
-2.76842e-07
-7.32505e-07
0.00375477
-0.00375442
-3.44545e-07
-7.88982e-07
0.00375405
-0.00375366
-4.19057e-07
-8.52707e-07
0.00375325
-0.00375283
-5.00677e-07
-9.23504e-07
0.0038289
-0.00382324
-6.03248e-07
-9.98926e-07
0.00388736
-0.00384525
-5.57361e-05
-1.10187e-06
0.00382008
-0.00379503
4.71895e-05
5.80979e-06
0.00384254
-0.00386747
3.84466e-05
-4.07089e-05
0.00374782
-0.00374709
-1.11816e-06
-1.46793e-06
0.00374632
-0.0037455
-1.31318e-06
-1.63128e-06
0.00374465
-0.00374375
-1.5428e-06
-1.83428e-06
0.00374282
-0.00378431
-1.80628e-06
-2.07474e-06
0.00378545
-0.00384135
-2.08438e-06
-2.34042e-06
0.00381497
-0.00376034
3.59156e-05
-2.61207e-06
-0.00372014
5.12239e-05
-0.00392839
-0.000124423
0.0038247
6.34901e-05
7.21866e-07
0.0038627
0.000142992
-0.00012795
-0.00375253
0.00011505
-0.0036922
0.000130446
-0.000120688
-0.00393815
-0.00384043
-0.00385242
0.00378947
-7.99636e-05
0.00389707
-0.00393056
-9.0936e-05
-8.01408e-05
-0.00374115
0.00374199
-4.13429e-05
-6.51765e-05
-0.00374297
0.0037439
-2.53268e-06
-2.88415e-06
-0.00374478
0.00374562
-2.32387e-06
-2.70437e-06
-0.00374642
0.00374718
-2.07292e-06
-2.47884e-06
-0.0037479
0.00374857
-1.81309e-06
-2.22676e-06
-0.00374922
0.00382504
-1.56996e-06
-1.9779e-06
-0.00375041
0.00375096
-1.34422e-06
-1.74404e-06
-0.00385452
0.00378657
-1.14226e-06
-1.56211e-06
-0.00375245
0.00375289
-9.90933e-07
-1.37606e-06
-0.00375331
0.00375371
-8.42569e-07
-1.23954e-06
-0.00375409
0.00375445
-7.08545e-07
-1.10467e-06
-0.0037548
0.00375513
-5.87801e-07
-9.85135e-07
-0.00375544
0.00375574
-4.78737e-07
-8.77568e-07
-0.00375603
0.0037563
-3.79866e-07
-7.80972e-07
-0.00375656
0.00375681
-2.86679e-07
-6.93064e-07
-0.00375676
0.00378718
2.69488e-05
2.19153e-05
8.93799e-06
-1.69004e-05
0.0038399
2.2159e-06
0.00383143
-0.00377582
0.00381315
2.61538e-05
5.90104e-05
0.00381552
-0.00381648
4.65895e-05
0.00378476
3.14768e-05
-2.33334e-06
4.52904e-05
0.00381974
0.00384427
0.00381714
-0.00378929
-1.42381e-05
6.80486e-05
0.00375658
-0.00375631
-4.25727e-07
1.29726e-05
0.00375604
-0.00375575
-5.06591e-07
-9.56513e-07
0.00375545
-0.00375513
-5.95163e-07
-1.03341e-06
0.0037548
-0.00375445
-6.94893e-07
-1.12031e-06
0.00375408
-0.00375369
-8.05762e-07
-1.21835e-06
0.00375329
-0.00375286
-9.27692e-07
-1.32746e-06
0.00375241
-0.00375194
-1.07099e-06
-1.45058e-06
0.00375145
-0.00380597
-1.22066e-06
-1.59184e-06
0.00379841
-0.00374981
-1.40349e-06
-1.75104e-06
0.0037886
-0.00374855
-1.60647e-06
-1.92179e-06
0.00374787
-0.00374715
-1.84127e-06
-2.14203e-06
0.00374639
-0.00374559
-2.11459e-06
-2.38762e-06
0.00374476
-0.00374387
-2.42525e-06
-2.67131e-06
0.00374296
-0.003742
-2.76845e-06
-2.99085e-06
0.003741
-0.00373995
-3.13118e-06
-3.336e-06
0.00373887
-0.00369945
-3.50287e-06
-3.69847e-06
0.00367758
-0.0036266
6.40755e-05
2.93522e-05
-0.003959
-9.22465e-05
0.000102229
-0.000158494
-0.00363593
-0.00360348
7.91101e-05
-0.000212967
-0.00369806
2.50054e-05
0.00379036
0.00379041
3.9647e-05
-5.77955e-05
8.27928e-05
-0.00396314
-5.3789e-05
-0.00396301
7.77478e-05
-0.000157253
-0.00355642
5.45313e-05
-0.00358027
-0.0039706
0.00382284
-0.00381164
1.49533e-05
0.00378363
6.42168e-05
6.79456e-05
-2.93082e-05
0.0037811
4.46801e-05
0.00381367
-0.0039168
0.00395855
-9.55327e-05
-0.000106514
8.84363e-05
-0.00394493
0.0040044
-8.73278e-05
0.000320346
-0.00423742
-1.89168e-05
-0.00395319
0.00392137
-5.91083e-05
-8.68934e-05
-0.00387019
0.00380842
-1.81881e-05
-2.89645e-05
-0.00377991
0.00374227
-3.69572e-06
-3.66735e-05
-0.00374321
0.00374412
-3.43842e-06
-3.82853e-06
-0.00374497
0.00374579
-3.14456e-06
-3.56221e-06
-0.00374657
0.00374731
-2.81582e-06
-3.25617e-06
-0.00374802
0.00374869
-2.48255e-06
-2.92894e-06
-0.00374932
0.00374992
-2.16818e-06
-2.61078e-06
-0.00375049
0.00375104
-1.8874e-06
-2.31982e-06
-0.00375154
0.00375204
-1.64129e-06
-2.06845e-06
-0.00375251
0.00375295
-1.43174e-06
-1.84433e-06
-0.00375337
0.00375377
-1.24268e-06
-1.65665e-06
-0.00375415
0.00375451
-1.07087e-06
-1.48291e-06
-0.00375485
0.00375518
-9.16062e-07
-1.32737e-06
-0.00375549
0.00375579
-7.76695e-07
-1.18767e-06
-0.00375607
0.00375634
-6.51557e-07
-1.06275e-06
-0.0037566
0.00375685
-5.36777e-07
-9.50863e-07
-0.00376745
0.00377395
2.04485e-05
1.13163e-05
2.13157e-05
2.48737e-05
-8.88606e-06
0.00382391
-4.03927e-05
1.1397e-05
0.00381936
0.00381591
0.00380607
0.00380486
-0.00380081
4.25401e-05
-0.00379938
0.00377868
6.03497e-05
3.69492e-05
0.00375709
-0.00377073
-6.02072e-07
2.43341e-05
0.00375661
-0.00375634
-6.91339e-07
-1.14591e-06
0.00375607
-0.00375578
-7.94086e-07
-1.229e-06
0.00375549
-0.00375517
-9.11119e-07
-1.33176e-06
0.00375484
-0.00375449
-1.04331e-06
-1.44907e-06
0.00375413
-0.00375374
-1.19065e-06
-1.58137e-06
0.00375334
-0.00375292
-1.35401e-06
-1.72897e-06
0.00375247
-0.003752
-1.53955e-06
-1.89473e-06
0.00375151
-0.00375099
-1.74373e-06
-2.0818e-06
0.00375045
-0.00374988
-1.97699e-06
-2.29279e-06
0.00374927
-0.00374863
-2.24407e-06
-2.53063e-06
0.00374796
-0.00374725
-2.55093e-06
-2.81133e-06
0.00374651
-0.00374572
-2.89928e-06
-3.12969e-06
0.0037449
-0.00374404
-3.2875e-06
-3.48959e-06
0.00374315
-0.0037422
-3.70996e-06
-3.88696e-06
0.00374123
-0.0037402
-4.1592e-06
-4.31431e-06
0.00373913
-0.003738
-4.63195e-06
-4.76672e-06
0.00370341
-0.00363422
-5.11953e-06
-5.23841e-06
0.00359387
-0.00360097
6.16388e-05
3.87612e-05
6.95301e-05
-6.81231e-05
-0.00358167
-0.00358349
5.20436e-05
0.000116012
-0.00399072
-9.40365e-05
-0.00376128
3.77362e-05
0.00375729
0.00379163
3.17276e-05
0.000137596
-0.00416986
2.00662e-06
-0.00362655
0.000813826
-0.00334922
0.00436594
-6.61586e-05
4.43421e-05
-0.00356167
-0.000100319
-0.00354751
-0.00264551
0.00402445
0.000618548
-0.00206792
-0.000143255
-0.00394863
-0.00381377
0.003973
0.000161112
0.000339195
-0.000128517
-0.00393327
0.00389636
-5.86298e-05
2.08167e-05
-0.00386331
0.00380978
-5.57607e-06
-5.38373e-05
-0.00378634
0.00377322
-5.05835e-06
-5.53296e-06
-0.00374164
0.00374261
-4.67079e-06
-5.09553e-06
-0.00374353
0.00374441
-4.31469e-06
-4.74654e-06
-0.00374524
0.00374603
-3.93687e-06
-4.39087e-06
-0.00374678
0.0037475
-3.53523e-06
-4.00727e-06
-0.00374818
0.00374883
-3.13524e-06
-3.61111e-06
-0.00374945
0.00375004
-2.76034e-06
-3.22948e-06
-0.00375061
0.00375114
-2.42433e-06
-2.88129e-06
-0.00375165
0.00375214
-2.12835e-06
-2.57549e-06
-0.0037526
0.00375304
-1.87015e-06
-2.30498e-06
-0.00375345
0.00375385
-1.63894e-06
-2.07043e-06
-0.00375422
0.00375458
-1.42962e-06
-1.85762e-06
-0.00375492
0.00375524
-1.24078e-06
-1.66635e-06
-0.00375555
0.00375584
-1.07107e-06
-1.49463e-06
-0.00375612
0.00375639
-9.19263e-07
-1.34128e-06
-0.00375664
0.00375689
-7.83494e-07
-1.20504e-06
-0.0037693
0.00379041
-6.68688e-07
-1.08866e-06
-0.00378138
0.00377917
1.71554e-05
3.03529e-05
-0.00379406
0.00378983
4.19645e-05
4.93333e-05
5.30421e-05
-2.95631e-05
0.00379588
-3.29698e-05
7.71229e-06
0.00381509
0.00377736
3.70565e-05
1.52852e-05
0.00377157
0.0038234
-2.61116e-05
1.80515e-05
0.00378916
0.00379524
-2.24862e-05
3.57527e-06
0.00381054
0.00380924
0.00381354
-0.00380011
4.69223e-05
-0.00387243
0.00376907
0.000106933
-2.71686e-05
0.00379068
-0.00378275
3.46049e-05
2.75237e-05
0.00375712
-0.00375688
-8.39274e-07
-1.29129e-06
0.00375664
-0.00375638
-9.50559e-07
-1.38682e-06
0.00375612
-0.00375583
-1.07778e-06
-1.49714e-06
0.00375554
-0.00375523
-1.2238e-06
-1.62666e-06
0.0037549
-0.00375455
-1.38843e-06
-1.77456e-06
0.00375419
-0.00375381
-1.57221e-06
-1.94111e-06
0.00375342
-0.00375299
-1.77646e-06
-2.12704e-06
0.00375255
-0.00375209
-2.00552e-06
-2.33515e-06
0.0037516
-0.00375108
-2.26036e-06
-2.56868e-06
0.00375054
-0.00374997
-2.54846e-06
-2.83162e-06
0.00374937
-0.00374874
-2.8761e-06
-3.12867e-06
0.00374808
-0.00374739
-3.24842e-06
-3.47078e-06
0.00374666
-0.00374589
-3.66668e-06
-3.85696e-06
0.00374509
-0.00374425
-4.1286e-06
-4.28844e-06
0.00374338
-0.00374246
-4.6298e-06
-4.76136e-06
0.0037415
-0.00374049
-5.16762e-06
-5.27162e-06
0.00373944
-0.00373833
-5.74343e-06
-5.81897e-06
0.00373716
-0.00373592
-6.36084e-06
-6.40453e-06
0.00369012
-0.00362146
-7.02506e-06
-7.03583e-06
0.00362412
-0.00361069
3.09057e-05
5.47094e-05
5.33197e-05
-5.01054e-05
-0.00356489
-0.00358608
2.87113e-05
0.000112334
-0.00396546
-2.88713e-05
-0.0037304
0.00029001
-0.00364604
2.05597e-06
-0.00372893
0.00379112
-0.00379672
4.75677e-05
0.00377787
2.09625e-05
4.76842e-05
-3.24681e-05
0.00379533
1.26767e-05
0.00380408
0.000278039
-0.00321712
3.8214e-06
-0.00360144
-0.00194153
-0.00199999
-0.00313771
0.00360363
0.00015262
8.23802e-05
-5.67284e-05
-0.00359054
5.79607e-05
-0.00356166
-0.00292119
-0.000359775
-0.00386517
-0.00375759
0.00380599
0.000112714
0.000185241
-0.00383513
0.00378411
-7.60953e-06
-8.32797e-06
-0.00373766
0.00373886
-6.7774e-06
-7.38799e-06
-0.00373999
0.00374107
-6.13005e-06
-6.66415e-06
-0.00374207
0.00374302
-5.61858e-06
-6.10268e-06
-0.00374391
0.00374475
-5.15925e-06
-5.63637e-06
-0.00374555
0.00374631
-4.69817e-06
-5.18771e-06
-0.00374704
0.00374773
-4.22836e-06
-4.72947e-06
-0.00374839
0.00374902
-3.76864e-06
-4.27036e-06
-0.00374962
0.0037502
-3.33913e-06
-3.8321e-06
-0.00375075
0.00375128
-2.95172e-06
-3.43121e-06
-0.00375178
0.00375226
-2.60742e-06
-3.07475e-06
-0.00375271
0.00375314
-2.30294e-06
-2.75831e-06
-0.00375355
0.00375394
-2.03012e-06
-2.47908e-06
-0.00375431
0.00375467
-1.78358e-06
-2.2274e-06
-0.003755
0.00375532
-1.56126e-06
-2.00089e-06
-0.00375563
0.00375592
-1.36121e-06
-1.79742e-06
-0.00375619
0.00375645
-1.18249e-06
-1.61557e-06
-0.0037567
0.00375694
-1.02388e-06
-1.45417e-06
-0.00375717
0.00375738
-8.84304e-07
-1.31313e-06
-0.00378893
0.00377588
3.02068e-05
-1.19212e-06
2.84873e-05
4.06967e-05
-6.48204e-05
0.00382001
-1.70408e-05
2.93302e-05
0.0038028
0.00380102
-1.88946e-08
-1.36774e-07
0.00377173
0.00375856
-3.65303e-05
5.44153e-05
0.00377128
0.00375858
0.00383118
0.00381564
-0.00380435
3.56316e-05
-0.0037682
0.00380647
6.86608e-05
2.02747e-05
0.00379293
-0.00375737
-9.54144e-07
1.61083e-05
0.00375716
-0.00375693
-1.06985e-06
-1.50602e-06
0.00375669
-0.00375644
-1.20343e-06
-1.62467e-06
0.00375617
-0.00375589
-1.35699e-06
-1.76032e-06
0.0037556
-0.0037553
-1.53221e-06
-1.91734e-06
0.00375497
-0.00375463
-1.72944e-06
-2.09593e-06
0.00375428
-0.0037539
-1.94924e-06
-2.29654e-06
0.00375351
-0.00375309
-2.19379e-06
-2.52041e-06
0.00375265
-0.00375219
-2.46673e-06
-2.77051e-06
0.00375171
-0.0037512
-2.77103e-06
-3.05031e-06
0.00375067
-0.0037501
-3.11294e-06
-3.36438e-06
0.00374951
-0.00374889
-3.49864e-06
-3.71808e-06
0.00374824
-0.00374756
-3.93284e-06
-4.11921e-06
0.00374685
-0.0037461
-4.41689e-06
-4.56914e-06
0.00374532
-0.0037445
-4.94913e-06
-5.06831e-06
0.00374364
-0.00374275
-5.52802e-06
-5.61456e-06
0.00374181
-0.00374082
-6.15518e-06
-6.20752e-06
0.00373979
-0.0037387
-6.83681e-06
-6.85151e-06
0.00373755
-0.00373633
-7.58129e-06
-7.55348e-06
0.00373504
-0.00373366
-8.4023e-06
-8.32357e-06
0.00366976
-0.00362953
-9.32781e-06
-9.18817e-06
0.00359066
-0.00356195
2.92508e-05
-1.01603e-05
9.97023e-05
-6.39652e-05
-0.0035974
-0.00354084
7.85896e-05
8.30234e-05
-0.00375847
4.18126e-07
-0.00372876
4.6689e-05
0.00376051
0.00379218
2.69681e-05
0.000164746
-0.00353275
-0.000478363
-0.00426207
-7.57573e-05
-0.00361973
2.10459e-06
-0.00372721
4.00444e-06
-0.00366217
-0.00420434
-0.000716842
0.000138334
-0.000427927
-0.00391474
-0.000314086
-0.00380965
-5.73769e-05
-0.00359713
6.18266e-05
-0.00011858
-0.00354064
0.000102791
-0.0035818
-0.00378172
-0.00342184
0.00357361
8.54051e-07
0.00359881
-0.00396507
-0.000350584
-0.000182806
-0.00368306
0.00373428
6.1496e-05
7.57856e-05
-0.00373564
0.00373696
-8.92614e-06
-9.69023e-06
-0.00373821
0.00373939
-7.96172e-06
-8.63651e-06
-0.00374051
0.00374156
-7.18223e-06
-7.7787e-06
-0.00374254
0.00374346
-6.54176e-06
-7.08489e-06
-0.00374433
0.00374514
-5.97387e-06
-6.49808e-06
-0.00374591
0.00374664
-5.4294e-06
-5.95416e-06
-0.00374733
0.003748
-4.89537e-06
-5.42337e-06
-0.00374863
0.00374925
-4.38152e-06
-4.90622e-06
-0.00374983
0.0037504
-3.90242e-06
-4.41684e-06
-0.00375093
0.00375145
-3.46724e-06
-3.96765e-06
-0.00375194
0.00375241
-3.077e-06
-3.56391e-06
-0.00375285
0.00375328
-2.72829e-06
-3.20299e-06
-0.00375368
0.00375406
-2.41497e-06
-2.88104e-06
-0.00375443
0.00375477
-2.13191e-06
-2.59117e-06
-0.0037551
0.00375542
-1.8765e-06
-2.33007e-06
-0.00375572
0.003756
-1.64661e-06
-2.09529e-06
-0.00375627
0.00375653
-1.44062e-06
-1.88503e-06
-0.00375677
0.00375701
-1.25727e-06
-1.69785e-06
-0.00375723
0.00375744
-1.09577e-06
-1.53289e-06
-0.00375763
0.00378879
-9.4943e-07
-1.387e-06
-0.00379168
0.00380054
3.87099e-05
2.55927e-05
-0.00374981
0.00376585
3.06415e-05
7.16988e-05
6.39554e-05
-4.7251e-05
0.00378609
-1.43247e-05
-7.36621e-06
0.00378754
0.00381014
4.74093e-05
1.44891e-07
0.00377245
0.00380118
-6.12328e-09
-1.39568e-07
0.00377187
0.0037587
2.80044e-07
-4.27385e-07
0.00377142
0.00375872
-2.76817e-05
2.22228e-05
0.00380079
0.00380308
-1.5997e-05
2.09879e-05
0.00378719
0.00381031
0.00381908
-0.00377598
2.55678e-05
-0.00380143
0.00377911
4.33076e-05
4.46109e-05
0.00378354
-0.00377531
2.74035e-05
2.78276e-05
0.00375761
-0.00375741
-1.15165e-06
-1.58854e-06
0.00375721
-0.00375698
-1.29244e-06
-1.71556e-06
0.00375675
-0.0037565
-1.45065e-06
-1.85678e-06
0.00375625
-0.00375597
-1.63116e-06
-2.01826e-06
0.00375569
-0.00375538
-1.83572e-06
-2.20315e-06
0.00375507
-0.00375473
-2.0652e-06
-2.4123e-06
0.00375438
-0.00375401
-2.3207e-06
-2.6466e-06
0.00375362
-0.00375321
-2.60472e-06
-2.90785e-06
0.00375278
-0.00375233
-2.92119e-06
-3.19927e-06
0.00375185
-0.00375135
-3.27386e-06
-3.52471e-06
0.00375082
-0.00375027
-3.66814e-06
-3.88885e-06
0.00374969
-0.00374908
-4.10983e-06
-4.29705e-06
0.00374844
-0.00374777
-4.60333e-06
-4.75527e-06
0.00374708
-0.00374634
-5.15009e-06
-5.26596e-06
0.00374558
-0.00374478
-5.75048e-06
-5.83007e-06
0.00374395
-0.00374307
-6.4057e-06
-6.44787e-06
0.00374215
-0.00374119
-7.12173e-06
-7.12271e-06
0.00374018
-0.0037391
-7.90898e-06
-7.86314e-06
0.00373798
-0.00373678
-8.77982e-06
-8.68059e-06
0.00373551
-0.00373417
-9.74979e-06
-9.58824e-06
0.00373275
-0.00373123
-1.08414e-05
-1.06063e-05
0.00372963
-0.0036883
-1.20859e-05
-1.17597e-05
0.00364787
-0.00358062
3.55423e-05
3.81586e-05
5.0584e-05
-8.32317e-05
-0.00354915
-0.00357916
4.9128e-05
5.43955e-05
-0.00364812
-0.00402099
-0.000372001
1.86331e-05
-0.00362714
0.00381439
-0.00382384
4.00909e-05
0.00381104
-4.01921e-06
4.13338e-05
-3.5303e-05
0.00378115
5.14181e-05
0.00376903
3.70634e-07
-0.00372703
2.17825e-06
-0.00372539
-0.000113401
-0.00382041
4.21194e-06
-0.00372376
6.46153e-06
-0.00372217
8.92737e-06
-0.0036328
7.01785e-05
-3.6278e-05
-0.00358305
2.70114e-05
-0.00353599
-0.00372696
-0.00387647
0.00369129
-0.000165405
-0.00030437
0.000420124
-0.00413675
0.00404323
-0.00420782
-0.00013978
-0.000205236
-0.00355986
0.00362218
-6.1463e-05
-5.13806e-05
-0.00369408
0.00373487
2.07052e-05
3.88644e-06
-0.00373622
0.00373752
-1.02253e-05
-1.1046e-05
-0.00373876
0.00373993
-9.1317e-06
-9.86813e-06
-0.00374102
0.00374205
-8.21483e-06
-8.87574e-06
-0.00374302
0.00374392
-7.44192e-06
-8.04559e-06
-0.00374475
0.00374554
-6.76299e-06
-7.33546e-06
-0.00374628
0.00374699
-6.13475e-06
-6.69466e-06
-0.00374766
0.0037483
-5.53846e-06
-6.09223e-06
-0.00374891
0.00374951
-4.97414e-06
-5.52004e-06
-0.00375007
0.00375062
-4.44924e-06
-4.98331e-06
-0.00375114
0.00375164
-3.96949e-06
-4.48925e-06
-0.00375212
0.00375258
-3.53551e-06
-4.04122e-06
-0.00375301
0.00375343
-3.14464e-06
-3.63761e-06
-0.00375382
0.0037542
-2.79217e-06
-3.27488e-06
-0.00375456
0.0037549
-2.47356e-06
-2.94785e-06
-0.00375522
0.00375553
-2.18585e-06
-2.65301e-06
-0.00375582
0.0037561
-1.92651e-06
-2.38755e-06
-0.00375637
0.00375662
-1.69345e-06
-2.14921e-06
-0.00375686
0.00375709
-1.48506e-06
-1.93615e-06
-0.0037573
0.00375751
-1.2998e-06
-1.74701e-06
-0.0037577
0.00375788
-1.13192e-06
-1.57909e-06
-0.0037849
0.00379856
2.50534e-05
-1.42744e-06
4.64156e-05
1.86834e-05
-4.2113e-05
0.00380952
-2.94565e-05
3.03038e-06
0.00381397
0.00379937
-2.42291e-07
1.11409e-07
0.00377258
0.00375882
1.58682e-08
-1.43395e-07
0.003772
0.00375883
2.70826e-07
-4.0446e-07
0.00377156
0.00375885
-4.38098e-05
3.27091e-05
0.00381189
0.00375886
0.00380771
0.00381354
-0.00381591
2.79416e-05
-0.00380528
0.00378868
5.99076e-05
5.28679e-05
0.00378645
-0.00375785
-1.20095e-06
-1.63137e-06
0.00375767
-0.00375747
-1.34679e-06
-1.77055e-06
0.00375727
-0.00375705
-1.50896e-06
-1.91818e-06
0.00375682
-0.00375658
-1.6923e-06
-2.08321e-06
0.00375633
-0.00375606
-1.89986e-06
-2.27074e-06
0.00375578
-0.00375548
-2.13356e-06
-2.48348e-06
0.00375517
-0.00375484
-2.39481e-06
-2.72284e-06
0.0037545
-0.00375414
-2.6853e-06
-2.99027e-06
0.00375375
-0.00375335
-3.00805e-06
-3.28811e-06
0.00375293
-0.00375248
-3.36704e-06
-3.61996e-06
0.00375202
-0.00375153
-3.76674e-06
-3.98998e-06
0.00375101
-0.00375047
-4.21197e-06
-4.40289e-06
0.0037499
-0.0037493
-4.70801e-06
-4.86372e-06
0.00374868
-0.00374803
-5.25873e-06
-5.37743e-06
0.00374735
-0.00374663
-5.86656e-06
-5.94698e-06
0.00374588
-0.0037451
-6.53355e-06
-6.57439e-06
0.00374429
-0.00374343
-7.26406e-06
-7.26249e-06
0.00374253
-0.00374159
-8.06777e-06
-8.01815e-06
0.0037406
-0.00373955
-8.95865e-06
-8.85351e-06
0.00373844
-0.00373727
-9.95202e-06
-9.78348e-06
0.00373604
-0.00373472
-1.10645e-05
-1.08237e-05
0.00373334
-0.00373186
-1.23163e-05
-1.19927e-05
0.00373031
-0.00372866
-1.3734e-05
-1.33125e-05
0.00367569
-0.00362482
-1.53328e-05
-1.48096e-05
0.00360101
-0.00360482
3.082e-05
2.53235e-05
-0.000203434
3.10689e-05
-0.00363728
-0.00369805
7.17594e-05
-3.82578e-05
-0.0035695
-0.00354536
1.23017e-05
1.49801e-06
-0.00363099
4.49486e-05
0.00376913
0.0038205
1.95968e-05
9.61877e-05
-0.00417567
-0.000128336
3.45994e-07
-0.00372519
0.000208133
-0.00424869
-3.54849e-05
-0.00370505
2.28056e-06
-0.00372346
-4.41298e-05
-0.00374521
4.43975e-06
-0.00372174
6.82747e-06
-0.00372007
9.45276e-06
-0.00367853
-2.75901e-05
-0.00359372
4.07833e-05
-4.18109e-05
-0.00356847
4.29914e-05
-0.00354757
-0.00372511
-0.00413491
0.00396577
2.93537e-05
-0.000225479
-0.00411614
0.000165945
0.00425418
-0.00415508
-0.000324572
-9.06503e-06
-0.00385281
0.00376704
-7.96364e-05
-9.22717e-05
-0.00373112
0.00368411
-1.44534e-05
-1.54603e-05
-0.00370185
0.00373548
-1.29166e-05
-1.38588e-05
-0.00373681
0.00373809
-1.15054e-05
-1.23832e-05
-0.0037393
0.00374045
-1.02814e-05
-1.10797e-05
-0.00374153
0.00374254
-9.22679e-06
-9.95234e-06
-0.00374348
0.00374436
-8.3219e-06
-8.98587e-06
-0.00374518
0.00374595
-7.5316e-06
-8.15273e-06
-0.00374667
0.00374735
-6.81942e-06
-7.41465e-06
-0.003748
0.00374862
-6.16132e-06
-6.74058e-06
-0.00374922
0.00374979
-5.54808e-06
-6.11436e-06
-0.00375034
0.00375087
-4.97946e-06
-5.53215e-06
-0.00375138
0.00375187
-4.45734e-06
-4.99541e-06
-0.00375233