/*--------------------------------*- C++ -*----------------------------------*\
  =========                 |
  \\      /  F ield         | OpenFOAM: The Open Source CFD Toolbox
   \\    /   O peration     | Website:  https://openfoam.org
    \\  /    A nd           | Version:  10
     \\/     M anipulation  |
\*---------------------------------------------------------------------------*/
FoamFile
{
    format      ascii;
    class       surfaceScalarField;
    location    "6.5";
    object      phi;
}
// * * * * * * * * * * * * * * * * * * * * * * * * * * * * * * * * * * * * * //

dimensions      [0 3 -1 0 0 0 0];

internalField   nonuniform List<scalar> 
12623
(
0.0963483
0.0238464
-0.0369904
-0.0832043
0.0750802
-0.0391875
0.0604556
0.087291
-0.0091652
-0.0807537
0.00262786
-0.00911775
0.0879619
0.00844682
-0.0875261
0.00774136
-0.00617031
0.085955
-0.0860688
-0.010575
-0.00243971
0.0447326
-0.0509854
0.00869248
-0.0523389
0.0498992
0.0157751
-0.0158925
0.000117424
0.00796068
-0.0122441
0.0200585
0.0893608
-0.0398517
-0.0495091
-0.0593312
0.0491871
0.0995049
-0.0411471
-0.0279891
0.0302076
0.0389285
0.00443276
0.00743121
-0.0530111
-0.0369865
0.0134302
0.00394438
-0.00306274
-0.00482847
0.00394683
-0.00359399
-0.00133517
0.00887353
-0.0050621
-0.00159462
0.000337479
-0.0128582
4.67272e-05
0.012474
-0.0279983
0.00839056
0.0199452
-0.0259316
-0.0149249
3.71152e-05
0.0105534
-0.00883538
-0.00175514
0.0038654
-0.00366643
-0.000161854
-0.0140858
0.0285046
-0.0582348
0.00628576
0.0593803
0.00919065
-0.0654913
-0.00193417
-0.0682012
0.00613864
0.0683483
-0.0833686
0.00618241
-0.00720196
0.0843882
-0.0825366
-0.00565914
0.00482717
-0.0868844
0.0868901
-0.00540517
0.00539945
-0.0842462
0.00354416
-0.0885168
0.0108874
-0.00764302
0.0852724
-0.00905335
-0.0858783
0.00641478
0.0866499
-0.0888341
0.0080036
-0.00631805
0.0871486
-0.00838363
-0.0865856
0.00613507
-0.0907182
-0.00574619
0.0880808
-0.0864446
0.00661379
0.0864757
-0.0106245
-0.090916
0.0150649
-0.00591741
0.0159765
0.0764167
-0.0883911
-0.00812642
0.0858929
-0.0875479
0.00716042
0.0055184
-0.00584757
0.0872193
-0.0879912
0.0113421
-0.0105968
0.0872458
-0.0121473
-0.084916
0.00907216
-0.0101595
-0.0850745
-0.0866114
-0.00836646
0.0844028
-0.0854288
-0.00911836
-0.069566
0.0057121
0.0729723
0.0542559
0.00888824
-0.0722625
-0.0566906
0.0190001
0.0919464
-0.0213406
0.08656
-0.0711725
0.00595311
-0.069143
0.0727106
0.0155419
-0.0136391
-0.0746134
0.0186476
0.0704703
-0.0164073
-0.0106907
0.00716567
0.080812
-0.0772869
-0.0830677
0.0827968
-0.0104199
0.082189
-0.00778158
0.00882696
-0.0832344
0.0794043
-0.0797395
0.00024426
9.09197e-05
0.000180448
0.0799332
-0.000709301
-0.0798136
0.000142821
-6.87223e-05
-0.0794568
0.000386117
-0.000742911
-0.0788591
9.16723e-05
-0.000689343
-0.0783972
0.000426796
-0.000888685
-0.0779566
0.000606282
-0.00104695
-0.0774189
0.000823525
-0.00136114
-0.0768456
0.00124795
-0.00182134
0.00120371
-0.0758903
-0.00215895
0.0794982
-0.0795475
0.000229741
0.000666269
0.080116
-0.000849137
0.0803833
-0.000218888
-0.079834
0.000530772
-0.0797879
9.67561e-05
-0.078996
-0.000405816
-0.0787462
-0.000158077
-0.0782423
-7.71488e-05
-0.0776345
-1.50442e-06
-0.0769569
0.000145939
-0.075969
0.000259982
-0.0753703
0.000605045
0.000419616
0.080415
-0.000451326
0.0807629
-0.000227225
0.00114766
-0.0757193
-0.00131868
-0.0749532
0.000730547
0.00143517
0.0807019
-0.00172199
0.0815632
0.000634845
0.0012151
-0.0747457
-0.00218868
-0.0741387
0.000400621
0.00344162
0.0808172
-0.00355698
0.00246817
0.00120022
-0.0741685
-0.00177744
-0.0728434
-9.50353e-05
0.0814649
-0.00630685
-0.00872511
0.0829881
0.000340913
-0.00278134
-0.0717281
0.000222347
-0.0727249
0.0791806
-0.0800696
-0.00266795
-0.075617
0.0772187
-0.0103268
-0.00274326
0.0808918
-0.0806813
-0.000661847
-0.000899794
0.0804453
-0.080169
-4.65619e-05
-0.000454901
0.0802597
-0.0794929
-0.000670044
0.000621512
0.0797092
-0.0789472
-0.000920012
-0.000189583
0.0790413
-0.0781259
-0.000916896
1.6923e-05
0.0781275
-0.0769795
-0.000887939
0.000147484
0.0762984
-0.0760772
0.000509258
-7.6048e-05
0.0757205
-0.0745366
-0.00127894
4.40036e-05
-0.0737049
-0.000609415
-0.078292
0.0781442
-0.00204096
0.0766482
-0.00399551
-0.075434
-0.00342122
-0.0788483
0.0786322
-0.00194283
-0.00202279
-0.0798914
0.0788815
-0.00035123
-0.00308053
-0.0800927
0.079294
-9.00005e-05
-0.00225815
-0.0804152
0.0796185
5.37784e-05
-0.00181047
-0.0809644
0.0800553
0.000999993
-0.00141464
-0.0812625
0.0798752
0.000538173
-0.00191646
-0.0807787
0.0813583
5.52535e-05
-0.00113073
-0.0828486
0.0034296
0.000977837
0.00679915
-0.00851053
0.0846995
0.0857821
-0.00522475
0.073933
-0.000579669
-0.0724621
-0.000663065
-0.0034318
-0.0698727
-0.0793262
0.0796965
-0.0043658
-0.00475519
0.00445183
-0.0751306
-0.0798791
-0.00420232
-0.000913023
-0.00140664
-0.0701425
-0.077198
0.0776526
-0.00111765
-0.00175582
-0.0763552
0.089355
-0.0864982
0.00254269
0.0742645
-0.0792475
-0.00534388
0.0762486
-0.00720881
0.0882298
0.00664361
-0.070708
0.0787485
-0.0797453
-0.0016711
-0.00324223
0.0804001
-0.0801965
-0.00086542
-0.000245026
0.0808678
-0.0799897
-0.000924721
0.000216409
0.0794238
-0.0795177
-0.000576134
5.5664e-05
0.0792135
-0.079432
-0.000701496
-0.00049383
0.0789329
-0.0791336
-0.000716245
-0.000482149
0.0785496
-0.0786547
-0.000782838
-0.000436538
0.0782261
-0.0776476
-6.92274e-05
-0.0005046
0.0772907
-0.0779774
-0.000592269
-0.000312883
-0.000934263
-0.0800502
0.0806229
-0.00261359
-0.00377494
-0.0808271
0.0809419
-0.00205764
-0.00222701
-0.0794993
0.0804739
-0.00132586
-0.00163792
-0.0793155
0.080246
-0.00102045
-0.00109977
-0.079286
0.0801256
-0.000785791
-0.000850503
-0.0793579
0.080938
-0.000580116
-0.00064696
-0.0794881
0.080431
-0.00040468
-0.000466573
-0.0796873
0.0799925
-0.000249996
-0.000387013
-0.0807714
0.0843615
-0.000160449
0.000198953
0.00140742
0.00617342
0.000301637
0.0782244
0.086108
0.00245096
0.0748188
-0.00102121
0.0766856
0.00572553
-0.00615689
-0.0794477
0.00528332
-0.0746884
-0.00397232
-0.0673071
-0.0814943
0.0805923
-0.000215676
-0.0808169
-0.00243316
0.000907365
-0.00225302
-0.0750095
-0.00102834
-0.0682068
-0.081972
0.081883
-0.00606786
-0.00721664
0.00716723
-0.0793983
-0.082473
-0.00671565
0.00834518
-0.00420933
0.0830834
0.0869643
0.00961068
-0.00508006
0.00433703
0.0755618
0.073261
-0.0723454
-0.00193681
0.0756112
-0.00743019
-0.0872785
0.00614033
0.0877818
-0.0840267
-0.000709092
-0.069397
0.0752739
-0.0768389
-0.00377882
-0.00428038
0.0785297
-0.0800329
-0.000167854
-0.00155149
0.0798588
-0.0804241
-0.000300106
-0.000419114
0.0798584
-0.0803795
-0.000403614
-0.000349364
0.0798778
-0.0799572
-0.000496724
-0.000445984
0.0799296
-0.0800764
-0.000554671
-0.000521513
0.0800078
-0.0801706
-0.000553446
-0.000550713
0.0800914
-0.0803895
-0.000484716
-0.000515799
0.0804685
-0.0801487
-0.000389074
-0.000425537
0.0800882
-0.0802438
-0.000436648
-0.000373414
-0.000585733
-0.0825865
0.0819833
-0.00376262
-0.00490586
-0.0816292
0.0816747
-0.00265905
-0.00342083
-0.0813035
0.0808511
-0.00160516
-0.00185587
-0.0804701
0.0802719
-0.00112773
-0.00125692
-0.0801061
0.0799594
-0.000873735
-0.000933928
-0.0798587
0.0797814
-0.000708469
-0.000749842
-0.0797402
0.0797198
-0.000559712
-0.00060582
-0.0797206
0.0797322
-0.000416307
-0.000467298
-0.0796849
0.0797282
-0.000293234
-0.000339752
-0.0801618
0.0809527
-0.00095137
-0.000234644
-0.00166664
0.00374557
-0.00346376
0.0779426
0.0856442
0.0775588
-0.0802782
-0.00279175
0.00600088
-0.0735221
-0.00352665
-0.0648088
0.00845078
-0.00848745
-0.0824363
0.0077075
-0.0786551
0.00147916
-0.00333819
-0.0731505
-0.000623565
-0.066104
-0.00480669
0.00402371
0.0763448
-0.00653477
0.0773393
0.00917678
-0.00505429
0.078961
0.00987381
0.0862672
0.0795019
-0.0799474
-0.000263553
0.0020372
0.083605
0.0756072
-0.074081
-0.00346301
0.0755029
-0.00732582
-0.079746
-0.00387044
0.00359669
-0.00557145
-0.0777712
0.00199591
-0.0715497
0.0876601
0.00973241
-0.0669228
0.0755389
-0.0784447
-0.000872995
-0.00282251
0.079832
-0.0797999
-0.000199978
-0.00016416
0.0799812
-0.0800052
-0.000276067
-0.000237869
0.08004
-0.0800896
-0.000354047
-0.000314583
0.0801522
-0.0802339
-0.000414997
-0.000383336
0.0803284
-0.0804435
-0.00043952
-0.000427043
0.0805683
-0.0807124
-0.000409394
-0.000425935
0.0808614
-0.0810256
-0.000320562
-0.000366748
0.0811838
-0.0813385
-0.000234365
-0.000267321
0.0814599
-0.0815342
-0.000362253
-0.000252071
0.0817269
-0.0812004
-0.000742134
-0.000393093
0.0815424
-0.0823223
-0.00201185
-0.00209119
0.0812808
-0.0816541
-0.00519816
-0.00491191
-0.0832446
0.0826863
-0.0055095
0.0828176
-0.08331
-0.00799502
-0.00714269
-0.0825652
0.0825306
-0.00372807
-0.00478476
-0.0817611
0.0812946
-0.00219257
-0.00265129
-0.0810694
0.0808417
-0.00137746
-0.00163066
-0.0806584
0.0804845
-0.000953823
-0.0010736
-0.0803421
0.0802108
-0.0007425
-0.000791513
-0.0801061
0.0800167
-0.000619015
-0.000645175
-0.0799526
0.0799051
-0.000512162
-0.000541763
-0.0798771
0.0798623
-0.000401542
-0.000439303
-0.0798617
0.0799053
-0.000336823
-0.000339144
-0.0797606
0.0796684
-0.000859092
-8.99836e-05
-0.00194571
0.000376262
-0.00197585
0.0795422
0.0809662
0.0796067
-0.0101853
0.00997562
-0.0822267
-0.0837994
-0.00969595
-0.00520944
0.00452969
-0.0770914
-0.0808363
-0.00602724
0.00594183
-0.0717564
-0.00353372
-0.0618986
-0.00574547
0.0747135
0.0123064
0.0852275
0.0802071
-0.0793939
-0.00107676
0.0813342
0.000910148
0.00887262
-0.0775521
-0.000450983
-0.0636572
0.0114325
-0.0108654
-0.0843665
0.0112925
-0.0820866
0.00292528
-0.0699453
-0.0075677
0.00617532
-0.0756991
-0.00774544
-0.0806586
0.0867026
0.00663482
-0.0645147
0.0779119
-0.0781632
-0.00321171
-0.0755713
0.0753572
-0.00553142
-0.00498523
0.0796904
-0.0802329
-0.000330491
-0.00129529
0.0800152
-0.0800311
-0.00018415
-0.000381804
0.080054
-0.0800875
-0.000242533
-0.000214966
0.0801323
-0.0801932
-0.000293119
-0.00026978
0.080267
-0.0803608
-0.000321251
-0.000309544
0.0804676
-0.0805956
-0.00031148
-0.000320244
0.0807346
-0.0808942
-0.000249811
-0.000286975
0.0810602
-0.0812408
-0.00013994
-0.00020076
0.0814143
-0.0815811
-6.76416e-05
-9.37667e-05
0.0817117
-0.0817946
-0.00027943
-0.000121387
0.0815979
-0.0812104
-0.00112965
-0.000589771
0.0814947
-0.0806982
-0.00280839
-0.0018068
0.0815813
-0.081878
-0.00490148
-0.00402879
0.0817918
-0.0815732
-0.00796409
-0.00611342
-0.0830343
0.0831149
-0.00807564
0.0834413
-0.0842577
-0.010049
-0.0092889
-0.0825073
0.0824626
-0.00546476
-0.00653516
-0.081763
0.0813678
-0.00333289
-0.00408512
-0.0811305
0.0809004
-0.00196246
-0.00241403
-0.0807248
0.0805714
-0.00122407
-0.00145506
-0.0804539
0.0803504
-0.000850322
-0.000956119
-0.0802666
0.0801884
-0.000664334
-0.000707651
-0.0801231
0.0800632
-0.000559099
-0.000579884
-0.0800161
0.0799769
-0.000472991
-0.000494645
-0.0799498
0.0799307
-0.000382417
-0.000412225
-0.0799182
0.0798741
-0.000292729
-0.000326598
-0.079978
0.0799037
-0.000784857
-0.000193899
-0.00143589
-0.0121947
0.0128323
-0.0850041
-0.0850273
-0.011425
-0.00922549
0.00815196
-0.0795851
-0.0811059
-0.00969276
0.0868617
0.00305297
0.00755415
-0.00633505
0.0840084
0.0838191
-5.2366e-05
-0.00220539
0.0812187
0.0798798
0.00111439
-0.00106524
0.079493
0.0798752
0.00173668
-0.00310095
0.0777091
0.0802781
0.00420754
-0.00469926
0.0752053
0.0784459
-0.00457821
0.0752362
0.00624625
-0.06913
-0.00332816
-0.0590214
0.00916491
-0.0754245
0.000417419
-0.0611493
0.0117969
-0.0810512
0.00442552
-0.0681955
0.013412
-0.0120712
-0.0863681
0.0135713
-0.0851635
0.00746107
-0.0750082
0.0109849
-0.0114515
-0.0806393
0.0100286
-0.0786287
0.0750276
-0.0758481
-0.00471091
0.0748896
-0.00444026
-0.0615966
0.0771366
-0.0784007
-0.00194769
-0.00369668
0.0796049
-0.0798198
-0.000115645
-9.10204e-05
0.0800579
-0.0800765
-0.000165556
-0.000143719
0.0801003
-0.080134
-0.000208808
-0.000191117
0.080177
-0.0802346
-0.000235431
-0.000226859
0.0803039
-0.080391
-0.000234102
-0.000240298
0.0804896
-0.0806068
-0.000194265
-0.000221686
0.0807329
-0.0808756
-0.000107067
-0.000160896
0.0810211
-0.0811736
1.25542e-05
-5.52504e-05
0.0813139
-0.0814404
5.88776e-05
4.64826e-05
0.0815298
-0.081573
-0.000236214
-3.20163e-05
0.0815522
-0.0814657
-0.00121609
-0.000610613
0.0813177
-0.0811235
-0.00300259
-0.0019548
0.0811679
-0.0809749
-0.00509452
-0.0039844
0.0805417
-0.0811638
-0.00734193
-0.00654664
0.0816982
-0.0825539
-0.0105958
-0.00915839
-0.0837363
0.0834791
-0.00979179
0.0844697
-0.0855461
-0.0109948
-0.0106916
-0.0828832
0.0823506
-0.00754307
-0.00869299
-0.0819096
0.081585
-0.00514018
-0.00609411
-0.0812914
0.0810243
-0.00306572
-0.00379158
-0.0808184
0.0806357
-0.00177979
-0.00220816
-0.0804966
0.0803809
-0.00110836
-0.0013159
-0.0802964
0.0802269
-0.000780905
-0.000871608
-0.0801744
0.0801278
-0.000617749
-0.000655116
-0.0800896
0.0800539
-0.000523394
-0.000541672
-0.0800247
0.0799989
-0.000447186
-0.000465421
-0.07998
0.079966
-0.000368411
-0.000393336
-0.0799569
0.0799517
-0.000287569
-0.000317464
-0.0800028
0.0794635
-0.000245535
-0.000245011
-0.0786684
0.0786872
-0.00109559
-0.000640803
-0.0798526
0.0817646
0.00114101
-0.000255244
0.00540798
0.00270127
5.64968e-05
0.0812506
-0.0066055
0.0854849
0.0799148
-4.68519e-05
3.35759e-05
0.081232
0.0798895
-2.09951e-05
-0.00172944
0.0812434
0.0798878
0.00136308
-0.00384871
0.0801947
0.0799118
0.00321068
-0.00469677
0.0766914
0.0778078
-0.0131692
0.0142944
-0.0874933
-0.0867079
-0.0120075
-0.0121331
0.0125572
-0.0810634
-0.0831852
-0.0115019
0.00394901
-0.00303607
0.0739767
0.0744884
0.00632114
-0.0662863
-0.00284543
-0.0557586
0.00960885
-0.0732365
0.00159199
-0.0583158
0.0125361
-0.080016
0.00574219
-0.0664766
0.0145083
-0.0853773
0.00901123
-0.0739908
0.0141815
-0.0129661
-0.0879232
0.0153181
-0.0886299
0.0122025
-0.0782741
0.0138965
-0.0831681
-0.0139135
0.0144016
-0.0815685
-0.0875373
0.0860521
-0.0114809
-0.0136628
0.0151366
-0.089397
-0.0886693
-0.0125307
-0.0152874
0.0163308
-0.0842115
-0.0840343
0.0828275
-0.0127068
-0.0848708
-0.0144508
0.0749851
-0.0750344
-0.00298674
-0.00461733
0.00363844
0.0749556
0.0716462
-0.00127845
-0.0581209
0.0754098
-0.0778055
-0.00231518
-0.00406489
0.078908
-0.0800469
-0.000808857
-0.00259418
0.0800588
-0.0800737
-0.000100695
-7.91249e-05
0.0800898
-0.0801093
-0.000146035
-0.000127622
0.0801323
-0.0801631
-0.000178049
-0.000168154
0.0802004
-0.0802496
-0.000186272
-0.000189479
0.0803077
-0.0803802
-0.000161644
-0.00018215
0.0804611
-0.0805555
-9.98144e-05
-0.000140829
0.0806544
-0.0807622
7.24186e-07
-6.20059e-05
0.0808662
-0.080969
0.00011537
4.87434e-05
0.0810548
-0.081121
0.000125136
0.000132252
0.0811539
-0.0811501
-0.00024008
8.7812e-07
0.0811066
-0.081024
-0.00129874
-0.000654021
0.0809177
-0.080795
-0.00312533
-0.00206104
0.0806818
-0.0803817
-0.00539455
-0.00409762
0.0805378
-0.0807371
-0.00714261
-0.0063906
0.0810188
-0.0825314
-0.0090832
-0.00887674
-0.0112057
-0.084996
0.0847173
-0.0107161
-0.0109514
-0.0837972
0.0833746
-0.00936921
-0.00977155
-0.0825628
0.0821938
-0.0071741
-0.00788112
-0.0817322
0.0813641
-0.00477214
-0.0056325
-0.0810909
0.0808558
-0.00283062
-0.00351828
-0.0806767
0.080525
-0.00162804
-0.00202912
-0.0804107
0.0803159
-0.00101357
-0.00120164
-0.0802466
0.0801901
-0.000724345
-0.000802309
-0.0801482
0.0801124
-0.000581885
-0.000613288
-0.0800838
0.0800575
-0.000497117
-0.000513131
-0.0800359
0.0800165
-0.000427731
-0.000443818
-0.0800017
0.07999
-0.000356655
-0.000378588
-0.0799826
0.0799785
-0.000283504
-0.000310083
-0.079976
0.0799442
-0.000213676
-0.000242496
-0.0794847
0.0791804
-0.000791269
-0.000181326
-0.0790628
0.0803553
-0.000151528
-0.000137651
0.000688809
0.00448132
5.94038e-05
0.0809442
0.0827138
-5.63688e-05
5.1673e-05
0.0812553
0.0799179
-4.32309e-05
3.34333e-05
0.0812418
0.0798979
-2.35426e-05
1.38271e-05
0.0812532
0.0798977
-6.16166e-06
0.000417957
0.0797829
0.0799195
0.000404859
-0.00221768
0.0785042
0.0786306
0.0759092
0.00613072
-0.0628081
-0.00206274
-0.0521039
0.00977839
-0.0704788
0.00308383
-0.0556574
0.0130488
-0.0785566
0.00769222
-0.0651576
0.0152966
-0.0853558
0.0114948
-0.073283
0.0162417
-0.089735
0.014689
-0.0785614
0.0147208
-0.0126336
-0.0907566
0.01598
-0.0906561
0.0170427
-0.0822804
0.0170453
-0.0866681
-0.015248
0.0180399
-0.0852061
-0.0895509
0.0883487
-0.0114314
-0.013524
0.014769
-0.0920016
-0.0909093
-0.0121655
-0.0163908
0.0179244
-0.0882017
-0.0867989
0.0859925
-0.0144416
-0.0883025
-0.0148873
-0.0062935
0.00431338
0.0769357
-0.00773494
0.0730877
0.0752817
-0.0763188
-0.00194962
0.0758091
-0.00180585
-0.0540529
0.0771263
-0.0784287
-0.00101281
-0.00325736
0.079531
-0.0800529
-0.000286945
-0.00149186
0.0800715
-0.0800906
-8.15972e-05
-6.05314e-05
0.0801103
-0.0801324
-0.000123877
-0.000107962
0.0801556
-0.0801835
-0.000150152
-0.000144957
0.0802151
-0.0802545
-0.000146877
-0.000157868
0.0802995
-0.0803541
-0.000107045
-0.000137145
0.0804135
-0.0804807
-3.27102e-05
-8.14285e-05
0.0805472
-0.0806152
6.86899e-05
4.57674e-06
0.0806744
-0.0807238
0.000164815
0.000107905
0.080754
-0.0807625
0.000133667
0.000162461
0.0807464
-0.0807045
-0.000282034
-1.52571e-05
0.0806446
-0.080571
-0.00137229
-0.0007139
0.0805012
-0.0804462
-0.00318032
-0.0021309
0.0804331
-0.0804856
-0.005342
-0.00411075
0.0806875
-0.0804022
-0.00742793
-0.00618869
0.0811909
-0.0812173
-0.0090568
-0.00808801
0.0823945
-0.0840249
-0.0110764
-0.0100285
-0.0124833
-0.0870825
0.086112
-0.0105103
-0.0112646
-0.0851556
0.0844215
-0.00998198
-0.00999502
-0.0835863
0.0828849
-0.00866782
-0.00893634
-0.0823222
0.0818128
-0.00666473
-0.0073184
-0.0814234
0.0810946
-0.00444338
-0.00524308
-0.0808545
0.0806625
-0.0026386
-0.00327815
-0.080525
0.0804143
-0.00151733
-0.00189163
-0.0803337
0.0802675
-0.00094736
-0.00112104
-0.0802186
0.0801778
-0.00068352
-0.000753439
-0.0801466
0.080119
-0.000554269
-0.000582159
-0.0800962
0.0800745
-0.000475395
-0.000490351
-0.080056
0.0800387
-0.000410457
-0.00042531
-0.0800251
0.0800137
-0.000345315
-0.000364925
-0.0800061
0.0800007
-0.000278066
-0.000302456
-0.0799976
0.0799966
-0.000212676
-0.000239428
-0.0799967
0.0796149
-0.00040951
-0.000181417
-0.0800344
0.0797856
9.73222e-05
-0.000557124
-0.000279291
0.00578487
-0.00222986
0.0824
0.0847918
0.000247964
5.06237e-05
0.0806456
0.0807319
-4.90451e-05
4.57928e-05
0.0812586
0.0799194
-4.03675e-05
3.33958e-05
0.0812488
0.0799033
-2.61132e-05
1.94435e-05
0.0812598
0.079905
-1.47809e-05
-0.000657942
0.0804556
0.0799241
0.00202238
-0.00298728
0.0794691
0.0799951
0.0772353
0.00561301
-0.0586428
-0.000942633
-0.0480774
0.00965024
-0.0670802
0.00487632
-0.0528415
0.013316
-0.076576
0.00990645
-0.0635693
0.015887
-0.0850011
0.0141056
-0.0726997
0.0169735
-0.0907285
0.0175393
-0.0790581
0.0166031
-0.0924902
0.0194859
-0.0837263
0.0137332
-0.0123673
-0.0922753
0.0147944
-0.0930627
0.0201474
-0.087429
0.0173193
-0.0156057
-0.090016
0.0192946
-0.090177
0.0103158
0.0577584
-0.0493825
0.0748747
-0.0764922
-0.000332087
-0.0698325
0.0508388
0.0293095
0.00323634
0.0786878
-0.0789125
-0.000788076
-0.0010618
0.0798812
-0.0801831
1.48962e-05
-0.000523127
0.0800747
-0.0800981
-5.81245e-05
-0.000168957
0.0801219
-0.0801471
-9.87149e-05
-8.41525e-05
0.0801722
-0.0801991
-0.000123242
-0.000119863
0.0802267
-0.0802577
-0.00011588
-0.000130239
0.0802904
-0.0803274
-7.00202e-05
-0.000104451
0.0803655
-0.0804054
7.15857e-06
-4.33958e-05
0.0804417
-0.080473
9.99558e-05
4.09574e-05
0.0804921
-0.0804962
0.000168834
0.000127042
0.0804812
-0.0804451
9.75321e-05
0.00014751
0.0803925
-0.0803242
-0.000350291
-6.78515e-05
0.0802548
-0.0801912
-0.0014358
-0.00078336
0.0801523
-0.080151
-0.00318157
-0.00216989
0.0802027
-0.0803191
-0.00522553
-0.00405908
0.0805065
-0.0808101
-0.00712436
-0.00600129
0.0812417
-0.0816432
-0.00865532
-0.00765644
0.0818243
-0.0830165
-0.00988418
-0.00984733
0.0843319
-0.0867859
-0.0119876
-0.011168
0.0884717
-0.0904101
-0.0136674
-0.0132015
-0.0885094
0.087275
-0.0101969
0.0889284
-0.0916839
-0.00961183
-0.0117465
-0.0860757
0.0854311
-0.00986572
-0.0100653
-0.0846049
0.083887
-0.00926406
-0.00916885
-0.0831962
0.0825427
-0.00801427
-0.0082456
-0.0820019
0.0815202
-0.006183
-0.00677765
-0.0811528
0.0808542
-0.00414477
-0.00487567
-0.0806458
0.0804893
-0.00248213
-0.00306971
-0.0803863
0.0803106
-0.0014416
-0.00178868
-0.0802599
0.0802206
-0.000908083
-0.00107033
-0.0801923
0.0801682
-0.000659448
-0.000725108
-0.0801488
0.0801302
-0.00053559
-0.000562772
-0.0801133
0.0800957
-0.000457855
-0.000473454
-0.0800797
0.0800638
-0.000394553
-0.000409251
-0.0800504
0.0800387
-0.000333617
-0.000351606
-0.0800301
0.0800235
-0.000271426
-0.000293812
-0.0800191
0.0800158
-0.000209335
-0.000235068
-0.0800144
0.0797026
-9.7707e-05
-0.000180021
-0.0795678
0.0801664
-0.000501277
-0.000422373
-0.0798913
0.0813036
0.00121565
-4.23001e-06
0.00387211
0.0020376
-0.000122015
0.0804844
-0.00407944
0.0836057
0.0827499
-0.000672324
4.13085e-05
0.0812766
0.0799376
-4.20438e-05
4.0745e-05
0.0812599
0.0799187
-3.7718e-05
3.33522e-05
0.0812531
0.0799064
-2.86154e-05
2.42367e-05
0.0812642
0.0799097
-2.1606e-05
-0.000805301
0.0812825
0.0799267
0.000752387
-0.00122242
0.0799391
0.0799422
0.00430225
-0.0066193
0.0792527
0.0803151
0.0159733
0.0926239
0.0824416
-0.0117036
0.0135273
-0.094099
-0.0925514
-0.0108361
-0.0144564
0.0174539
-0.0930135
-0.0923627
-0.0125038
0.00477636
-0.0537689
0.000473227
-0.0436743
-0.08437
0.00434016
0.00921736
-0.0629815
0.00694528
-0.0498803
0.090064
-0.0721233
0.0113688
0.000450192
0.00741264
0.0847611
0.00492044
0.0855938
0.0133187
-0.0740077
0.0123919
-0.0618556
0.0162197
-0.0842472
0.0169768
-0.0721373
0.0174304
-0.0915558
0.0205476
-0.0801198
0.0169466
-0.0946424
0.0223358
-0.0859147
0.0154543
-0.0949897
0.0218677
-0.0900022
0.0120341
-0.010906
-0.0936795
0.0134813
-0.0955461
0.0204403
-0.0931634
-0.014433
0.0172027
-0.0957832
-0.0122723
-0.0945234
-0.0441329
0.0762273
-0.0778784
0.00131897
0.00734033
0.0785638
-0.0793917
3.9849e-05
-0.000376432
0.0799341
-0.0799249
5.68012e-06
1.9312e-05
0.0800766
-0.0801023
-3.24628e-05
-1.72736e-05
0.0801283
-0.0801563
-7.07077e-05
-5.80942e-05
0.0801839
-0.0802118
-9.5423e-05
-9.22415e-05
0.0802376
-0.0802628
-9.06451e-05
-0.000104393
0.0802856
-0.0803075
-4.81952e-05
-8.16692e-05
0.0803263
-0.0803422
2.29771e-05
-2.45179e-05
0.0803519
-0.0803522
0.000100323
5.06594e-05
0.0803395
-0.0803093
0.000138652
0.000114343
0.080262
-0.0801948
3.03196e-05
0.000100187
0.0801176
-0.0800326
-0.000435283
-0.000145099
0.0799579
-0.0799025
-0.00149118
-0.000858064
0.0798855
-0.0799201
-0.00314694
-0.00218684
0.0800142
-0.0801812
-0.00505854
-0.00396499
0.0804197
-0.0807594
-0.00678471
-0.00576281
0.0811374
-0.0815515
-0.00824118
-0.00727844
0.0827483
-0.0829106
-0.00972181
-0.00865056
0.08398
-0.0851047
-0.0108629
-0.0100986
0.0869008
-0.0894684
-0.0110997
-0.0114054
0.0909673
-0.0929338
-0.0103058
-0.0110049
-0.0893501
0.0895532
-0.00981493
0.0910058
-0.0927061
-0.0092057
-0.00918038
-0.0875121
0.0867711
-0.00945598
-0.00970537
-0.0856933
0.0849601
-0.00913254
-0.00898742
-0.0842457
0.0834831
-0.00850149
-0.00845447
-0.0828366
0.0822275
-0.00740512
-0.0075991
-0.0817226
0.081274
-0.00573438
-0.00627279
-0.0809356
0.0806667
-0.00387588
-0.00453723
-0.0804864
0.0803589
-0.00235464
-0.00288944
-0.0802824
0.0802329
-0.00139211
-0.00171213
-0.0802046
0.0801859
-0.00088944
-0.00104206
-0.0801738
0.0801635
-0.000649084
-0.000712998
-0.0801541
0.0801433
-0.000524848
-0.00055337
-0.0801319
0.0801186
-0.000444484
-0.000462065
-0.0801052
0.0800909
-0.000380314
-0.000395864
-0.0800782
0.0800663
-0.000321673
-0.00033891
-0.0800568
0.0800487
-0.000263372
-0.000284303
-0.0800428
0.0800378
-0.00020439
-0.000229093
-0.0800324
0.0800823
-0.000147601
-0.000174634
-0.0797826
0.0793777
-9.64353e-05
-0.000122633
-0.0793697
0.0807932
-0.000207835
3.83488e-06
0.000295321
0.00307047
-0.00153936
0.0820746
0.0848332
-0.00083019
2.2281e-05
0.0812923
0.0803804
-2.83835e-05
3.24336e-05
0.0812725
0.0799315
-3.49484e-05
3.58579e-05
0.081259
0.0799162
-3.51988e-05
3.32967e-05
0.081255
0.079907
-3.07602e-05
2.82842e-05
0.0812667
0.0799122
-2.73075e-05
2.94637e-05
0.0812804
0.0799277
-3.66204e-05
-0.000428472
0.0804042
0.079935
0.000918432
-0.00294659
0.0812809
0.0808051
0.0869077
-0.009544
0.0110336
-0.0951691
-0.09381
-0.00844012
-0.0112377
0.0132286
-0.0965143
-0.094999
-0.0091726
0.00361434
-0.0481659
0.00222118
-0.0389502
0.0860224
-0.0804201
0.00576654
0.0847087
0.00623409
0.00850287
-0.0581658
0.0092329
-0.0467213
0.0130521
-0.0708402
0.0150606
-0.0599394
0.0162574
-0.0830742
0.0199782
-0.071568
0.0175798
-0.0921891
0.0234995
-0.0812834
0.0170051
-0.0961932
0.0247912
-0.0888383
0.0153165
-0.0968249
0.0241154
-0.0936772
0.012889
-0.0974015
0.0206288
-0.0965895
0.00915245
-0.00852365
-0.0944388
0.0109718
-0.0969885
0.0159994
-0.098554
-0.0925863
0.0911067
-0.00704406
0.00635725
-0.092248
-0.00669553
0.00827318
-0.0963547
-0.00413954
0.0831617
-0.00904776
0.0117217
-0.0991882
-0.00849058
-0.0955562
-0.0382974
0.0784676
-0.079193
0.00204432
0.00538782
0.0800312
-0.0800387
4.73279e-05
0.000461771
0.08005
-0.0800652
2.08967e-05
3.06492e-05
0.0800845
-0.0801079
-9.09456e-06
2.02134e-06
0.0801345
-0.080164
-4.12259e-05
-3.14678e-05
0.0801932
-0.0802222
-6.6401e-05
-6.30504e-05
0.0802474
-0.0802691
-6.89685e-05
-7.91683e-05
0.0802846
-0.0802945
-3.83749e-05
-6.61345e-05
0.0802975
-0.0802932
1.87013e-05
-2.14882e-05
0.0802807
-0.0802567
7.63675e-05
3.81507e-05
0.0802207
-0.080167
8.49449e-05
7.8267e-05
0.0800989
-0.0800135
-5.50651e-05
3.21002e-05
0.0799217
-0.0798271
-0.000529952
-0.000236843
0.0797495
-0.0796994
-0.00154135
-0.000935592
0.0796959
-0.0797521
-0.00309069
-0.00219035
0.0798726
-0.0800707
-0.00486044
-0.0038445
0.0803356
-0.0806894
-0.00643095
-0.0054979
0.0811235
-0.0816941
-0.00767061
-0.00684434
0.082381
-0.0832713
-0.00883147
-0.00796364
0.0842331
-0.0850428
-0.0100533
-0.00913678
0.086257
-0.0870372
-0.0103195
-0.0101912
0.0881404
-0.0900854
-0.0083607
-0.00990171
0.0918537
-0.0931878
-0.00715646
-0.00740436
-0.0903426
0.0894058
-0.00826898
-0.00767596
-0.0891288
0.0880621
-0.0087482
-0.00890334
-0.08689
0.0860663
-0.0086323
-0.0085333
-0.0853559
0.0845769
-0.00835353
-0.00827698
-0.0837996
0.0831099
-0.00781183
-0.00767715
-0.082516
0.0819518
-0.00684099
-0.00700517
-0.0814857
0.0810742
-0.00532286
-0.0058067
-0.0807676
0.080529
-0.00363726
-0.00423064
-0.0803747
0.0802718
-0.00225177
-0.00273513
-0.0802159
0.0801857
-0.00136186
-0.00165625
-0.0801732
0.0801687
-0.000884969
-0.00102958
-0.0801677
0.0801669
-0.000648238
-0.000711984
-0.0801647
0.0801601
-0.000520223
-0.000551173
-0.0801534
0.080144
-0.000435113
-0.00045536
-0.0801335
0.0801215
-0.000368242
-0.000385423
-0.0801099
0.0800981
-0.000309895
-0.000327334
-0.080088
0.0800785
-0.000253885
-0.000274169
-0.0800709
0.0800642
-0.000197672
-0.000221519
-0.0800582
0.080053
-0.000142342
-0.000168666
-0.0800489
0.0800438
-9.13645e-05
-0.000118506
-0.0801684
0.0805916
-0.000631052
-0.000120768
-0.0802961
0.0837166
0.000919659
0.000590813
0.00374482
0.00165264
-0.000421706
0.0808437
0.0823463
-8.56809e-06
1.36816e-05
0.0812872
0.0799501
-1.90547e-05
2.39633e-05
0.0812676
0.0799261
-2.79219e-05
3.09037e-05
0.081256
0.0799122
-3.25858e-05
3.30526e-05
0.0812546
0.0799053
-3.25693e-05
3.20336e-05
0.0812672
0.0799127
-3.32515e-05
3.828e-05
0.0812754
0.0799265
-4.76118e-05
-0.000815596
0.0812674
0.0799257
-6.99093e-05
-0.000655743
0.0820066
0.0799196
-0.00481287
0.00352044
0.0860535
0.0814391
0.000967897
-0.0122663
0.0960071
0.0900821
0.00219948
-0.0418625
0.00418135
-0.0338986
0.00713346
-0.00663906
-0.0936822
0.00772324
-0.0961459
0.0854051
-0.0916774
-0.00599401
-0.0183711
0.0591281
0.0552502
0.0754216
-0.00838759
-0.0895654
0.0878245
-0.00541553
-0.0895566
-0.00664791
0.00756245
-0.0526761
0.0116256
-0.0432863
0.0125392
-0.0671221
0.0177774
-0.0577386
0.0160152
-0.0815096
0.0228827
-0.0709512
0.0174493
-0.0926333
0.026152
-0.0826441
0.0168007
-0.0976774
0.0267846
-0.0915075
0.0149388
-0.0988747
0.0247034
-0.0977519
0.0122835
-0.0987132
0.0201365
-0.100727
-0.0062561
-0.0932794
0.00728747
-0.0920011
0.0909441
-0.00519912
0.00505167
-0.0926856
-0.00436716
-0.0946375
0.00640972
0.00983699
-0.0985523
0.0145666
-0.101399
-0.0973968
0.00832949
0.0109059
-0.0234025
0.0716247
-0.0844656
0.00305275
-0.0108161
0.0769721
-0.0319166
0.0855551
-0.0831612
0.00337268
0.000111741
0.08119
-0.0799542
0.000808571
0.00341661
0.0800576
-0.080063
5.27545e-05
0.000565121
0.0800716
-0.0800834
3.26804e-05
3.92781e-05
0.0800992
-0.0801197
1.13981e-05
1.77852e-05
0.0801436
-0.0801714
-1.34196e-05
-7.55683e-06
0.0801996
-0.0802279
-3.81071e-05
-3.48085e-05
0.0802518
-0.0802706
-5.02148e-05
-5.52671e-05
0.0802809
-0.080282
-3.72184e-05
-5.58506e-05
0.0802734
-0.0802543
-3.97129e-07
-3.01072e-05
0.0802257
-0.0801847
3.54034e-05
9.53043e-06
0.0801335
-0.0800665
1.79447e-05
2.70648e-05
0.0799884
-0.0798944
-0.000149015
-4.60455e-05
0.0797969
-0.0796985
-0.00062832
-0.000334407
0.0796204
-0.0795735
-0.00158815
-0.00101374
0.0795776
-0.0796458
-0.00302248
-0.00218628
0.0797808
-0.0799945
-0.00464671
-0.00370956
0.0802713
-0.0806324
-0.00606992
-0.00522105
0.081061
-0.0816018
-0.00712979
-0.00641571
0.0822377
-0.0830295
-0.00803966
-0.00732777
0.083936
-0.0850119
-0.00897737
-0.00823028
0.0861567
-0.0868979
-0.00957841
-0.00904634
0.0875237
-0.0876424
-0.00824201
-0.00927589
-0.00722225
-0.0906328
0.0901235
-0.00653474
-0.00638421
-0.0899088
0.0892461
-0.00760627
-0.00746134
-0.0882118
0.0874395
-0.00797589
-0.00786906
-0.0864645
0.0855757
-0.00774346
-0.00755826
-0.0847989
0.0840509
-0.00760551
-0.00750027
-0.083409
0.0827857
-0.00718848
-0.00703523
-0.0822423
0.0817241
-0.00632282
-0.00646178
-0.0812977
0.0809246
-0.00494972
-0.00538033
-0.0806502
0.0804408
-0.0034278
-0.00395626
-0.0803095
0.0802267
-0.00216891
-0.00260389
-0.080186
0.0801686
-0.00134445
-0.0016156
-0.0801657
0.0801694
-0.000888646
-0.00102673
-0.0801747
0.0801794
-0.000652996
-0.000717249
-0.0801819
0.0801817
-0.000520063
-0.000553612
-0.0801789
0.0801733
-0.000429482
-0.000452553
-0.0801659
0.0801562
-0.000358589
-0.000377997
-0.080146
0.0801346
-0.000298469
-0.000317106
-0.0801238
0.0801127
-0.000242841