/*--------------------------------*- C++ -*----------------------------------*\
  =========                 |
  \\      /  F ield         | OpenFOAM: The Open Source CFD Toolbox
   \\    /   O peration     | Website:  https://openfoam.org
    \\  /    A nd           | Version:  10
     \\/     M anipulation  |
\*---------------------------------------------------------------------------*/
FoamFile
{
    format      ascii;
    class       volVectorField;
    location    "28.5";
    object      U;
}
// * * * * * * * * * * * * * * * * * * * * * * * * * * * * * * * * * * * * * //

dimensions      [0 1 -1 0 0 0 0];

internalField   nonuniform List<vector> 
8711
(
(1.11489 0.00887675 0)
(1.11426 0.00934569 3.501e-22)
(1.14003 0.0078413 3.85217e-21)
(1.17218 -0.0223387 -3.58767e-21)
(1.17277 -0.0347786 -1.27338e-22)
(1.18904 -0.0348456 -3.16697e-21)
(1.07056 0.00751261 1.73087e-22)
(1.0727 0.00402858 2.90992e-21)
(0.618787 -0.0795704 -1.16834e-21)
(0.612798 0.0148188 9.44558e-21)
(0.833316 -0.530798 0)
(0.473665 -0.765114 -1.60835e-20)
(0.907365 0.54768 2.18609e-21)
(0.916107 0.56724 1.44138e-22)
(0.753843 0.28595 -1.13645e-21)
(0.785199 0.368123 0)
(1.1319 0.0139959 1.37739e-21)
(1.13634 0.0163267 -1.1903e-21)
(1.13823 0.0142593 -8.74059e-22)
(1.17903 0.0462077 2.07825e-21)
(1.16957 0.0437664 -3.03544e-21)
(1.17175 0.0161215 -1.6952e-21)
(1.17672 0.0161951 0)
(1.14947 0.00692162 -1.60941e-21)
(1.50732 -0.176703 1.15199e-19)
(1.49008 -0.211401 -2.84927e-20)
(1.61181 -0.29746 5.22517e-20)
(1.41726 -0.166683 -9.40618e-20)
(0.849915 -0.0238645 -1.32599e-21)
(0.929955 -0.023567 1.77287e-21)
(1.0126 -0.0275484 -4.84979e-23)
(1.00709 0.221089 7.95932e-20)
(0.928167 0.249325 2.13832e-20)
(1.3674 0.299622 1.68445e-21)
(1.37055 0.251566 -2.28746e-20)
(1.03844 0.058908 -3.95332e-20)
(1.04661 0.0710114 1.13962e-20)
(1.03908 -0.0769275 0)
(1.02328 -0.0455222 -7.31663e-20)
(1.02834 -0.048621 1.02854e-19)
(1.01552 -0.0336962 0)
(1.00837 -0.0182306 0)
(-0.142497 -0.112268 1.03774e-20)
(-0.150089 -0.143741 1.64673e-19)
(0.482313 0.65343 4.92071e-20)
(0.772701 0.666718 3.62593e-20)
(-0.0409389 0.0138828 -7.89493e-20)
(0.0573099 0.00623433 2.79291e-20)
(-0.0717487 -0.0360581 -4.15823e-20)
(1.08932 0.131948 4.52193e-21)
(1.10907 0.118692 1.00682e-20)
(1.11136 0.134069 3.30594e-21)
(1.10106 0.149266 0)
(1.11474 0.00823347 0)
(1.11023 0.0133868 3.1387e-21)
(1.10368 0.0173864 -3.6779e-21)
(0.981798 0.58745 -2.58805e-21)
(0.990071 0.569577 4.75616e-21)
(0.955735 0.588587 0)
(0.967686 0.575665 -6.25539e-21)
(0.856106 -0.152652 3.96436e-21)
(0.864295 -0.219935 2.44555e-21)
(0.882062 -0.299733 -5.44704e-21)
(0.872634 -0.242783 -2.48501e-21)
(1.05855 0.0122969 -5.69122e-21)
(1.06139 0.0105503 0)
(1.06895 0.0121358 2.94581e-21)
(1.17005 0.0092127 0)
(1.17199 0.0106831 3.95688e-21)
(1.17662 0.0127371 -2.17269e-22)
(0.946835 -0.46677 -1.24978e-20)
(0.937581 -0.456262 5.77249e-21)
(0.971737 -0.489665 -1.85778e-21)
(0.985357 -0.509546 0)
(1.06095 -0.00683659 -9.72936e-21)
(1.06165 -0.0124022 0)
(1.0679 -0.00691477 8.92092e-21)
(1.0682 -0.000895752 -6.88257e-21)
(1.16831 0.0130544 -3.74001e-21)
(1.00586 0.21726 -6.25966e-23)
(0.978359 0.184441 7.24584e-22)
(0.876847 0.0717943 -3.00931e-22)
(0.881711 0.0572171 0)
(1.15616 0.00999772 -1.04524e-21)
(1.15887 0.00835581 -3.88363e-21)
(1.15856 0.00745416 5.30642e-21)
(0.972285 0.500532 -3.49373e-21)
(0.972839 0.526846 1.1459e-20)
(1.15408 0.549904 -1.15293e-21)
(1.12983 0.580781 -1.10836e-23)
(1.09562 0.0105714 -4.58428e-21)
(1.09965 0.00757533 2.70731e-21)
(1.09731 0.0223637 1.99402e-21)
(1.19123 -0.0513052 4.63043e-21)
(1.16919 -0.0413998 -4.56528e-21)
(1.10132 0.0921723 2.20378e-20)
(1.08544 0.0916155 -4.36271e-22)
(1.07729 0.0801198 -8.57024e-21)
(1.09076 0.0830834 -3.34416e-21)
(1.12468 0.104624 4.27312e-23)
(1.1131 0.0812508 0)
(0.998164 -0.178972 -5.52345e-21)
(1.00586 -0.243461 1.30572e-20)
(0.891543 0.523071 -1.99574e-21)
(0.875592 0.427257 -1.42925e-21)
(0.873183 0.275573 -1.86298e-22)
(0.879847 0.094655 0)
(0.901294 -0.095138 -2.73697e-21)
(0.927551 -0.258871 2.88571e-21)
(0.958131 -0.3854 1.47634e-22)
(0.984804 -0.467928 1.39207e-22)
(1.00625 -0.515379 -7.82529e-22)
(1.0208 -0.535468 1.05627e-21)
(1.02997 -0.536494 3.23647e-22)
(1.03407 -0.526127 5.77497e-22)
(1.03482 -0.513818 -7.39793e-22)
(1.02942 -0.507836 -2.89987e-22)
(1.02009 -0.509773 -5.61795e-22)
(1.01581 -0.495153 1.08623e-21)
(1.00339 -0.519943 -1.20276e-21)
(0.993059 -0.503635 1.98508e-21)
(1.04083 -0.508394 -1.34827e-22)
(1.02916 -0.498484 -5.51193e-22)
(1.04884 -0.539498 4.2935e-23)
(1.04544 -0.525137 -3.03229e-22)
(1.03965 -0.529712 -4.83742e-22)
(1.04687 -0.543462 -1.97186e-22)
(1.0039 -0.41063 0)
(1.02435 -0.48907 -1.38232e-22)
(0.953598 -0.120096 -4.16767e-22)
(0.979191 -0.288393 0)
(0.920287 0.268305 8.56987e-23)
(0.931608 0.0746193 0)
(0.924561 0.539415 1.21443e-21)
(0.916378 0.432477 1.46443e-22)
(0.9401 0.587148 3.97691e-21)
(0.845461 0.422813 -2.12105e-21)
(0.869417 0.512935 -1.84719e-22)
(0.842388 0.109385 -2.44969e-21)
(0.837885 0.280932 1.10895e-21)
(0.887313 -0.23039 2.36644e-21)
(0.859671 -0.0698429 2.42711e-21)
(0.950374 -0.443075 1.94672e-21)
(0.918979 -0.356171 -3.56393e-21)
(0.998111 -0.522459 -1.68553e-21)
(0.977307 -0.496647 1.42711e-22)
(1.02474 -0.52135 3.91181e-23)
(1.01418 -0.52804 1.32505e-21)
(1.0316 -0.512534 -5.00046e-22)
(1.03083 -0.513734 8.59004e-22)
(1.01786 -0.533698 0)
(1.02764 -0.520231 0)
(1.00464 -0.526603 7.8945e-22)
(0.948724 0.562298 -5.00723e-21)
(0.96514 -0.485227 -3.64061e-21)
(0.964019 -0.467793 2.39769e-21)
(0.988537 -0.497785 2.23893e-21)
(0.985159 0.560203 2.42474e-21)
(0.943726 0.538167 5.48624e-21)
(1.0145 -0.477809 -1.00442e-21)
(0.987851 -0.482509 -9.83648e-22)
(1.04786 -0.498776 5.28237e-22)
(1.03153 -0.485484 3.23418e-22)
(1.06893 -0.535493 -6.65729e-22)
(1.05846 -0.518473 5.67392e-22)
(1.07586 -0.53709 4.79065e-22)
(1.07447 -0.544355 0)
(1.05552 -0.434026 3.9898e-21)
(1.06861 -0.504458 -2.54675e-21)
(1.01391 -0.14537 -2.92732e-21)
(1.03561 -0.313092 -1.47454e-21)
(0.974254 0.256873 -4.97673e-22)
(0.98966 0.0566765 3.49809e-21)
(0.961407 0.5436 -2.33008e-21)
(0.962177 0.429696 5.52421e-22)
(0.976449 0.600637 0)
(0.967795 0.593256 2.16849e-21)
(0.946537 -0.419433 1.07764e-20)
(0.973885 -0.433645 -3.65541e-21)
(0.893329 0.510406 -6.78858e-22)
(0.934339 0.508228 2.88646e-21)
(0.824075 0.403816 -9.35104e-22)
(0.854736 0.481077 -3.31962e-22)
(0.812278 0.119897 -2.65378e-22)
(0.810183 0.278737 -2.19151e-22)
(0.856461 -0.199928 1.08693e-21)
(0.829784 -0.0499932 -1.06335e-21)
(0.922572 -0.415049 -2.35594e-21)
(0.887984 -0.322594 0)
(0.979774 -0.503933 3.11405e-22)
(0.954017 -0.473549 1.40924e-21)
(1.01832 -0.51071 5.68204e-22)
(1.00118 -0.51369 -5.6346e-22)
(1.03623 -0.510769 1.11735e-21)
(1.0296 -0.507562 -1.13425e-21)
(1.03518 -0.539646 7.89495e-23)
(1.03672 -0.52323 3.63873e-23)
(1.01905 -0.510446 3.37099e-21)
(1.02755 -0.53883 1.42335e-21)
(0.905039 -0.382961 1.33264e-20)
(0.923086 -0.398675 -2.08236e-21)
(0.982368 0.54758 0)
(1.00823 -0.44681 0)
(0.991117 0.566447 -4.70624e-21)
(0.991709 0.559105 1.16445e-21)
(0.997823 0.571006 3.88708e-21)
(0.990319 0.560082 -3.61644e-21)
(0.893189 -0.342023 -4.7879e-20)
(0.885405 -0.290921 2.08313e-20)
(0.904583 -0.378635 -5.83294e-21)
(0.998769 0.532373 2.35617e-21)
(1.00103 0.510923 1.9614e-21)
(0.958959 -0.446652 2.48876e-22)
(0.92833 -0.428949 -2.11583e-21)
(1.01544 -0.457565 0)
(0.986 -0.456863 -2.3581e-22)
(1.05635 -0.484672 -8.70603e-22)
(1.03659 -0.467618 1.04809e-21)
(1.08956 -0.524426 -1.09408e-21)
(1.07282 -0.505588 1.31706e-21)
(1.11319 -0.536208 -5.26229e-21)
(1.10348 -0.536623 3.53396e-21)
(1.11071 -0.446971 1.0205e-21)
(1.11499 -0.510811 8.67889e-22)
(1.07716 -0.165878 0)
(1.09723 -0.333289 1.90843e-22)
(1.03252 0.24275 6.54163e-21)
(1.05315 0.0380013 -3.68572e-21)
(1.00472 0.542956 -1.84761e-23)
(1.01293 0.420917 -3.27705e-21)
(1.00345 0.609408 -1.57114e-21)
(1.00122 0.600366 -8.96579e-22)
(0.999765 0.596001 1.41685e-21)
(1.05312 -0.515574 1.67609e-21)
(1.0483 -0.45413 0)
(0.973358 0.472243 -1.83893e-21)
(1.02606 0.534282 -1.30151e-22)
(1.03364 0.509518 -2.70641e-21)
(1.00419 0.486663 8.35804e-22)
(0.887505 0.471989 8.66315e-22)
(0.933227 0.472763 -2.94144e-21)
(0.810359 0.386227 -1.21661e-21)
(0.845853 0.45048 1.63484e-21)
(0.792354 0.127665 1.13038e-22)
(0.792064 0.274349 5.58483e-23)
(0.832074 -0.166553 0)
(0.807348 -0.0262412 0)
(0.902255 -0.384111 0)
(0.866437 -0.290366 0)
(0.966203 -0.479845 0)
(0.935382 -0.445241 0)
(1.01353 -0.495759 1.83354e-21)
(0.991947 -0.494226 -2.01893e-21)
(1.04305 -0.504274 7.71465e-24)
(1.02977 -0.496873 0)
(1.05387 -0.538515 -8.14583e-23)
(1.04853 -0.519937 -3.82294e-23)
(1.05437 -0.540715 -3.15313e-21)
(0.929704 -0.327948 0)
(0.904398 -0.31531 -1.80532e-21)
(0.99849 -0.350753 0)
(0.960458 -0.339276 0)
(0.992334 0.548222 -5.79403e-21)
(0.990067 0.576058 0)
(0.980911 0.567205 7.78929e-21)
(0.966212 0.580968 2.00704e-21)
(0.965584 0.556312 -8.18964e-21)
(0.898632 -0.355177 8.03214e-21)
(1.04212 -0.3577 4.74612e-21)
(1.01739 0.55386 -6.39849e-22)
(0.999878 0.576377 0)
(1.04116 0.483348 -3.74873e-22)
(1.06334 0.535538 0)
(1.07516 0.507486 3.21434e-22)
(1.05039 0.560533 3.09249e-22)
(0.982377 0.588447 -5.48877e-22)
(0.935108 0.547858 1.21151e-21)
(0.950526 0.572986 -6.05316e-22)
(0.895818 0.527654 -3.51419e-21)
(0.880164 0.487583 1.38371e-21)
(0.84226 0.447697 0)
(0.95522 -0.418537 -2.1792e-22)
(0.925629 -0.401634 5.41764e-22)
(1.01679 -0.433878 0)
(0.985866 -0.427821 -1.88964e-22)
(1.0647 -0.465636 0)
(1.0414 -0.446208 0)
(1.10955 -0.507304 -2.16448e-24)
(1.08684 -0.487002 0)
(1.14927 -0.526656 5.89221e-24)
(1.13113 -0.522248 0)
(1.16572 -0.453777 9.12579e-24)
(1.16159 -0.508468 0)
(1.14431 -0.185981 0)
(1.15971 -0.346201 0)
(1.09203 0.2228 -5.10491e-25)
(1.11872 0.0141471 0)
(1.04616 0.533666 0)
(1.06596 0.406188 0)
(1.02324 0.606715 0)
(1.03227 0.595739 0)
(1.00503 0.556586 2.39715e-22)
(1.01286 0.587226 -1.97959e-21)
(0.960765 0.537075 7.79608e-22)
(0.98753 0.539697 1.4035e-21)
(0.927307 0.51623 -6.94727e-22)
(0.976561 0.441002 9.2563e-24)
(1.00889 0.460641 -9.43916e-24)
(0.890469 0.430507 1.49462e-24)
(0.937461 0.434635 0)
(0.80609 0.359613 0)
(0.844171 0.411427 0)
(0.778962 0.134834 0)
(0.783992 0.264287 0)
(0.817733 -0.141761 0)
(0.791991 -0.00530228 0)
(0.88891 -0.352576 -1.57259e-24)
(0.852135 -0.26047 0)
(0.957526 -0.452544 0)
(0.923733 -0.415117 0)
(1.01349 -0.476639 0)
(0.98698 -0.470063 0)
(1.05152 -0.494212 0)
(1.03372 -0.482112 0)
(1.07424 -0.532047 -1.29063e-22)
(1.06355 -0.51111 0)
(1.08951 -0.513434 -4.3883e-22)
(1.08302 -0.537335 -3.99635e-22)
(1.09093 -0.359448 -4.81997e-21)
(1.09211 -0.453778 4.01494e-21)
(0.879812 -0.200994 -1.29294e-21)
(0.8658 -0.174672 8.35538e-22)
(0.91831 -0.216295 -2.53115e-23)
(0.893064 -0.209048 8.20701e-22)
(0.991151 -0.229353 0)
(0.950986 -0.223223 5.60679e-22)
(1.08898 -0.235504 5.26884e-21)
(1.03718 -0.234681 -4.64253e-21)
(1.00892 0.568235 3.56062e-23)
(1.0985 0.556643 -1.10692e-21)
(1.1148 0.527122 1.15178e-21)
(1.14203 -0.351529 0)
(1.14388 -0.232804 0)
(1.03431 0.580637 5.98176e-22)
(0.99957 0.59294 1.15728e-21)
(0.865251 0.446376 -1.19875e-21)
(0.810124 0.395395 2.20553e-21)
(1.07665 0.581299 -9.46738e-22)
(0.968677 0.596554 -1.2218e-21)
(0.919838 0.556604 6.19418e-22)
(0.847705 0.476155 1.79759e-21)
(0.895279 -0.333061 -2.27205e-24)
(0.874143 -0.279055 2.4645e-21)
(0.958035 -0.390059 0)
(0.923891 -0.372289 0)
(1.02177 -0.408332 -3.31599e-23)
(0.989797 -0.398559 -8.39337e-23)
(1.07433 -0.443119 0)
(1.04791 -0.422888 0)
(1.12904 -0.48398 1.60528e-24)
(1.10079 -0.463904 0)
(1.18292 -0.508231 -1.1016e-23)
(1.15698 -0.500362 0)
(1.21849 -0.4479 -8.95395e-24)
(1.20454 -0.495314 0)
(1.20953 -0.203329 0)
(1.22058 -0.351992 0)
(1.15266 0.196917 -2.21391e-23)
(1.18429 -0.0094219 0)
(1.08818 0.512967 0)
(1.11857 0.382189 0)
(1.04325 0.591622 0)
(1.06274 0.579609 0)
(1.01349 0.539915 1.17301e-23)
(1.02759 0.56984 2.03929e-22)
(0.960061 0.505554 -6.10205e-22)
(0.990945 0.519535 -8.95822e-23)
(0.921619 0.482913 5.4894e-22)
(1.12815 0.497223 -6.19952e-22)
(1.1957 0.56967 1.40916e-20)
(1.21487 0.53806 0)
(1.1691 0.519365 1.58321e-21)
(1.05018 0.456561 -1.85983e-22)
(1.08725 0.477913 -3.12536e-22)
(0.982532 0.409962 0)
(1.01582 0.432621 0)
(0.89719 0.386767 5.81988e-25)
(0.944741 0.395148 0)
(0.80874 0.328022 -8.83766e-25)
(0.850342 0.371002 0)
(0.774063 0.138588 0)
(0.782249 0.250008 0)
(0.808974 -0.116793 0)
(0.784706 0.0109338 0)
(0.878932 -0.318247 1.57234e-24)
(0.841646 -0.228231 0)
(0.952425 -0.422051 0)
(0.91606 -0.381847 0)
(1.01509 -0.453654 0)
(0.985497 -0.442589 0)
(1.06096 -0.478885 0)
(1.04006 -0.462243 0)
(1.09641 -0.518413 7.78865e-23)
(1.07977 -0.497924 -2.1411e-25)
(1.12647 -0.504709 8.49166e-22)
(1.11168 -0.526568 3.87512e-23)
(1.13733 -0.447163 -4.01421e-21)
(0.856054 -0.0740952 2.25128e-21)
(0.876251 -0.0936203 -6.17871e-22)
(0.863751 -0.0865467 -1.20676e-21)
(0.915104 -0.0915882 -1.15828e-21)
(0.890272 -0.0922679 2.00933e-21)
(0.988168 -0.0922092 -1.47418e-21)
(0.948033 -0.0918673 -7.174e-22)
(1.08754 -0.0930678 0)
(1.03493 -0.0927852 2.04513e-21)
(1.14251 -0.0909223 0)
(1.0162 0.591524 0)
(0.855941 -0.139193 2.66756e-21)
(0.85782 -0.0664521 3.62899e-21)
(1.27082 0.544147 0)
(0.86902 -0.187663 -5.65979e-21)
(1.05152 0.598341 1.34915e-21)
(0.996308 0.606291 0)
(1.09914 0.601792 -7.64079e-22)
(0.948381 0.58284 7.49233e-22)
(1.19527 0.0396973 9.45578e-21)
(1.15951 0.598153 2.32309e-21)
(0.878104 0.513666 -5.80889e-22)
(1.24107 0.562613 -1.94764e-20)
(0.787275 0.386511 0)
(0.857472 -0.0754403 -4.36606e-21)
(1.19201 -0.0948905 5.18251e-21)
(0.898572 -0.308422 -8.02251e-22)
(0.870151 -0.262667 2.57349e-21)
(0.962565 -0.35859 1.52567e-22)
(0.925367 -0.343037 -2.15504e-22)
(1.02685 -0.381331 2.02583e-23)
(0.994424 -0.368749 4.93927e-23)
(1.08323 -0.417075 0)
(1.05407 -0.397525 0)
(1.1459 -0.455688 -1.60527e-24)
(1.11324 -0.436572 0)
(1.21203 -0.483194 9.33867e-24)
(1.17913 -0.472761 0)
(1.26561 -0.437779 -6.79799e-24)
(1.2422 -0.475857 0)
(1.27137 -0.21881 0)
(1.27657 -0.35409 0)
(1.21164 0.1655 1.98002e-23)
(1.24758 -0.0357794 0)
(1.12983 0.484106 0)
(1.16943 0.350812 0)
(1.06596 0.570813 0)
(1.09489 0.554844 0)
(1.02014 0.520658 -1.58955e-23)
(1.04205 0.551498 -1.62963e-24)
(0.957895 0.468384 -1.12819e-22)
(0.993395 0.493598 1.19251e-22)
(0.856157 0.399199 0)
(0.912125 0.440131 1.32495e-22)
(0.742859 0.232508 0)
(0.801005 0.336853 0)
(1.24547 0.498734 -5.62075e-22)
(1.30631 0.508019 1.05331e-20)
(1.14343 0.461889 -2.1443e-22)
(1.19044 0.482394 6.39366e-22)
(1.05948 0.423175 7.50591e-22)
(1.10021 0.442552 1.37954e-22)
(0.987967 0.376828 2.59623e-22)
(1.02195 0.402088 -1.42337e-22)
(0.908122 0.344952 -5.71912e-25)
(0.952904 0.358249 -3.69589e-22)
(0.818004 0.295896 8.83752e-25)
(0.861484 0.329429 0)
(0.775878 0.137743 -1.01197e-28)
(0.788137 0.232074 1.20482e-28)
(0.804345 -0.0911908 0)
(0.782639 0.0254932 0)
(0.873009 -0.283555 0)
(0.835782 -0.196308 0)
(0.95011 -0.389083 0)
(0.911704 -0.347086 0)
(1.01836 -0.426996 0)
(0.985927 -0.412626 0)
(1.07217 -0.457785 0)
(1.04656 -0.439493 0)
(1.11734 -0.500416 2.8333e-22)
(1.09475 -0.480434 8.83818e-22)
(1.15883 -0.49201 0)
(1.13964 -0.509435 -1.13204e-21)
(1.18783 -0.342393 2.1957e-21)
(1.17793 -0.439283 0)
(1.20184 -0.219307 -6.93231e-21)
(0.709201 0.224298 1.77746e-21)
(0.69217 0.151863 3.37701e-22)
(0.863005 0.0140007 -2.39915e-21)
(0.85867 0.0106895 0)
(0.858538 0.0020338 1.63143e-21)
(0.879428 0.0205622 4.59948e-22)
(0.868148 0.016255 7.60798e-22)
(0.919148 0.0366322 0)
(0.89495 0.0294663 -4.57094e-22)
(0.989949 0.0491004 2.70379e-21)
(0.950863 0.0428147 -1.33746e-21)
(1.08876 0.0537141 0)
(1.03679 0.0528858 -1.38081e-21)
(1.1429 0.05448 0)
(1.02402 0.606662 0)
(1.06369 0.612763 4.7142e-22)
(0.985508 0.605365 -7.19585e-22)
(1.19571 0.175471 -8.52488e-21)
(1.25384 -0.0372861 0)
(1.23802 0.14574 -2.36322e-20)
(1.1156 0.613767 1.14813e-21)
(0.916922 0.553557 0)
(1.18506 0.59418 -3.50104e-21)
(0.829425 0.446483 8.14778e-22)
(1.24276 0.562545 1.35459e-21)
(0.743927 0.279814 -2.77614e-21)
(1.33354 0.504397 -8.21443e-21)
(0.648456 0.0252877 3.19152e-22)
(0.657533 0.081946 -3.26075e-22)
(0.865851 -0.00887247 0)
(0.871163 0.0877476 1.22562e-22)
(0.783054 -0.166709 8.53156e-22)
(0.861621 -0.17525 -1.2579e-21)
(0.860266 -0.0989549 0)
(0.901934 -0.285252 -2.0398e-22)
(0.878642 -0.23986 -2.19287e-22)
(0.968098 -0.327958 5.38501e-28)
(0.933091 -0.311831 9.41285e-23)
(1.03222 -0.353467 -1.93131e-23)
(1.00132 -0.339631 2.0346e-23)
(1.09125 -0.388698 0)
(1.06061 -0.370811 0)
(1.15925 -0.423482 9.05241e-25)
(1.12385 -0.40627 0)
(1.23479 -0.450859 -7.44761e-24)
(1.19644 -0.43979 0)
(1.30425 -0.418392 6.7979e-24)
(1.2723 -0.447576 0)
(1.32601 -0.230399 7.59093e-24)
(1.32409 -0.348853 0)
(1.26657 0.128412 -1.65535e-24)
(1.30538 -0.0631053 0)
(1.16748 0.446938 0)
(1.21655 0.311149 0)
(1.08618 0.543405 0)
(1.12358 0.522363 0)
(1.02424 0.495928 0)
(1.05372 0.527538 0)
(0.954345 0.428865 -9.03774e-25)
(0.992672 0.461773 0)
(0.850488 0.34411 6.46044e-23)
(0.905429 0.391322 -1.17786e-22)
(0.736044 0.18182 6.46767e-22)
(0.792571 0.27374 -6.36646e-23)
(0.663906 -0.00954833 -6.65219e-22)
(0.691741 0.0942108 0)
(0.631059 -0.0812163 0)
(0.703325 -0.147935 1.42658e-20)
(0.668087 -0.0938547 -3.89752e-21)
(1.24955 0.455049 3.3755e-21)
(1.36924 0.460577 -3.36927e-21)
(1.31079 0.467162 -6.28286e-21)
(1.14335 0.421808 1.91853e-22)
(1.19099 0.439274 -7.67618e-22)
(1.06274 0.38741 0)
(1.10205 0.404625 -2.78554e-24)
(0.991681 0.345989 -1.26699e-25)
(1.02644 0.36956 0)
(0.920549 0.305333 0)
(0.958915 0.323291 0)
(0.833276 0.261026 0)
(0.876823 0.288311 0)
(0.7837 0.133116 0)
(0.800425 0.210521 0)
(0.804091 -0.0677089 0)
(0.785981 0.0366989 0)
(0.870294 -0.248536 0)
(0.833637 -0.165167 0)
(0.949773 -0.354283 0)
(0.909841 -0.311049 0)
(1.02237 -0.398091 -4.73858e-25)
(0.987661 -0.380376 0)
(1.08201 -0.433933 0)
(1.05353 -0.413423 0)
(1.13581 -0.478042 0)
(1.10975 -0.456621 0)
(1.18835 -0.469638 4.05436e-24)
(1.16387 -0.486978 0)
(1.22837 -0.325667 -2.04112e-21)
(1.214 -0.422388 0)
(1.24698 -0.220904 3.00806e-21)
(0.873427 0.10428 -1.15155e-22)
(0.871131 0.09177 -3.435e-21)
(0.890027 0.131861 4.37948e-22)
(0.879337 0.11744 6.89405e-22)
(0.928988 0.15893 -1.58681e-26)
(0.90558 0.146022 -4.41193e-22)
(0.996725 0.180509 -2.56442e-27)
(0.9592 0.170457 0)
(1.09066 0.191098 2.65816e-23)
(1.0414 0.18765 -6.90387e-22)
(1.14295 0.191116 5.03961e-21)
(1.02436 0.614365 0)
(0.869533 -0.0187313 0)
(1.28625 -0.028554 -1.59907e-21)
(1.28515 0.125476 5.85446e-21)
(1.0668 0.616715 1.8886e-22)
(0.965209 0.586098 0)
(1.12437 0.605389 -1.36464e-21)
(0.874815 0.494116 -8.05512e-22)
(1.18819 0.57222 0)
(0.774012 0.342838 3.60598e-21)
(1.2939 0.503411 -4.88839e-21)
(1.41184 0.42893 -1.6118e-21)
(1.37164 0.439373 -5.66988e-21)
(0.679269 0.149234 -2.21893e-21)
(0.622025 -0.0473832 0)
(0.637435 -0.177883 4.29352e-22)
(0.706401 -0.203164 1.30864e-21)
(0.787272 -0.0995222 0)
(0.840924 -0.128631 -4.66098e-22)
(0.824361 -0.200836 -5.42042e-21)
(0.870194 -0.161233 3.44399e-22)
(0.865112 -0.0925297 0)
(0.911452 -0.257318 -2.1849e-23)
(0.885908 -0.21757 0)
(0.976147 -0.297435 -5.48629e-28)
(0.942114 -0.280959 2.22578e-23)
(1.03725 -0.3263 0)
(1.00787 -0.310794 1.99409e-29)
(1.09772 -0.358995 0)
(1.06662 -0.34307 0)
(1.16825 -0.389022 -9.05314e-25)
(1.13172 -0.374146 8.8135e-29)
(1.24962 -0.413692 9.88138e-25)
(1.20769 -0.403482 0)
(1.33194 -0.39147 3.98754e-24)
(1.29265 -0.412918 2.95919e-28)
(1.37079 -0.236828 -7.59085e-24)
(1.36058 -0.336195 0)
(1.31598 0.0865073 -7.55956e-24)
(1.35543 -0.0897784 -4.91293e-28)
(1.1993 0.400017 -3.35784e-24)
(1.25899 0.262759 -3.50471e-28)
(1.09827 0.507077 0)
(1.14474 0.480665 0)
(1.02011 0.464867 0)
(1.05751 0.495392 0)
(0.9408 0.387614 -8.52705e-25)
(0.98231 0.426966 0)
(0.836633 0.288509 -6.56274e-22)
(0.891759 0.342946 6.98665e-22)
(0.741312 0.142198 -9.17411e-22)
(0.784312 0.220668 1.95507e-22)
(0.710409 -0.00787449 2.28078e-21)
(0.714069 0.0683046 9.64568e-23)
(0.736142 -0.0613041 -1.6321e-21)
(1.36499 0.41108 -7.42932e-22)
(1.43971 0.355244 6.25586e-21)
(1.46938 0.341325 -2.68838e-21)
(1.42365 0.389099 2.58362e-21)
(1.24698 0.409143 -6.13918e-22)
(1.30487 0.414666 0)
(1.14793 0.384457 1.2283e-24)
(1.19409 0.399126 1.44281e-22)
(1.06994 0.353352 8.55897e-23)
(1.10852 0.369548 1.13282e-23)
(0.999902 0.316864 1.2488e-25)
(1.03411 0.337583 -9.5938e-23)
(0.934696 0.270364 0)
(0.968524 0.292898 0)
(0.854263 0.225797 0)
(0.895898 0.250081 0)
(0.797953 0.124438 0)
(0.819331 0.186125 0)
(0.808798 -0.0472317 0)
(0.795125 0.0438832 0)
(0.870612 -0.213747 2.78432e-25)
(0.835425 -0.135603 0)
(0.950691 -0.318043 0)
(0.910025 -0.274239 0)
(1.02621 -0.36696 3.09671e-25)
(0.989857 -0.346332 0)
(1.09036 -0.406532 0)
(1.05955 -0.38497 0)
(1.15091 -0.450754 0)
(1.12144 -0.429981 0)
(1.2109 -0.446355 -3.99736e-24)
(1.18392 -0.459762 0)
(1.26157 -0.31123 -4.7256e-22)
(1.24376 -0.400954 1.46022e-21)
(1.28585 -0.195141 3.01351e-23)
(0.89144 0.159657 -6.81148e-22)
(0.900928 0.120106 -4.8643e-22)
(0.89639 0.13976 6.55526e-22)
(0.891713 0.192613 1.02445e-21)
(0.890432 0.17301 1.40302e-21)
(0.906277 0.230391 0)
(0.89641 0.209851 0)
(0.943222 0.265848 1.5868e-26)
(0.921286 0.249002 0)
(1.00617 0.29289 -3.51622e-27)
(0.971276 0.280669 0)
(1.09314 0.306215 -2.58846e-22)
(1.04735 0.301642 0)
(1.19219 0.295959 3.9086e-21)
(1.14202 0.306966 -3.23049e-21)
(1.27703 0.252673 -7.88002e-21)
(1.23466 0.273782 1.15248e-20)
(1.01536 0.607397 4.79622e-28)
(1.06048 0.597527 -1.91744e-21)
(0.931778 0.541553 0)
(1.12017 0.564814 1.32702e-21)
(0.821797 0.398234 9.43454e-22)
(1.26082 0.34042 2.32441e-21)
(1.31151 0.229714 -1.00066e-21)
(1.29068 0.312891 -9.32559e-22)
(1.20179 0.497976 6.68745e-21)
(1.28075 0.438209 0)
(1.35656 0.341839 5.80109e-21)
(1.49005 0.262761 0)
(1.42404 0.243781 0)
(0.716628 0.204897 -4.57072e-22)
(0.632278 -0.0119437 1.69312e-22)
(0.604981 -0.183764 -1.24305e-21)
(0.653903 -0.24299 -6.75333e-23)
(0.776682 -0.239563 6.03989e-22)
(0.905771 0.0999015 1.46711e-23)
(0.858978 -0.178367 1.04879e-21)
(0.857564 -0.242525 2.74823e-21)
(0.891227 -0.220161 0)
(0.92374 0.177241 -4.09654e-22)
(0.927121 0.157321 -1.50676e-23)
(0.8764 -0.0233375 6.03272e-23)
(0.888085 0.0426958 -6.15825e-23)
(0.880098 -0.148947 -9.15217e-23)
(0.873557 -0.0890786 1.39385e-24)
(0.923338 -0.230435 -4.26755e-23)
(0.897084 -0.195869 5.04268e-23)
(0.98543 -0.268447 -4.16866e-28)
(0.953562 -0.251937 0)
(1.04287 -0.299674 -7.85587e-29)
(1.01457 -0.283652 0)
(1.10321 -0.328848 0)
(1.0719 -0.315261 0)
(1.17357 -0.353705 0)
(1.13713 -0.34156 0)
(1.25655 -0.373126 2.24515e-24)
(1.21335 -0.365253 0)
(1.34653 -0.357284 -3.98775e-24)
(1.30227 -0.372922 0)
(1.40267 -0.23625 2.7242e-28)
(1.38296 -0.31528 -3.19451e-28)
(1.35991 0.0416169 0)
(1.39591 -0.113527 0)
(1.2285 0.342237 1.44996e-24)
(1.29879 0.206048 0)
(1.10246 0.461499 0)
(1.16074 0.428498 0)
(1.00612 0.427296 1.95083e-24)
(1.0518 0.455018 0)
(0.918147 0.345976 2.13536e-24)
(0.962184 0.388604 0)
(0.826124 0.244857 -7.04905e-25)
(0.871968 0.298236 0)
(0.763831 0.121999 2.49393e-22)
(0.78775 0.182714 0)
(0.772584 0.0140718 3.15058e-23)
(0.75808 0.0664082 -2.51962e-22)
(0.838479 -0.0660232 -1.08636e-21)
(0.803728 -0.0270789 9.96304e-22)
(0.885893 -0.158661 0)
(0.867006 -0.107824 -4.62655e-22)
(1.459 0.303577 -1.39963e-21)
(1.47142 0.150513 2.26114e-21)
(1.51211 0.170663 1.39546e-21)
(1.49804 0.250398 4.78849e-22)
(1.34678 0.357539 2.71904e-22)
(1.4057 0.33946 0)
(1.23792 0.362158 -1.21407e-23)
(1.29012 0.363609 -4.07043e-22)
(1.14796 0.345401 -1.15252e-24)
(1.19132 0.356248 4.21737e-23)
(1.07345 0.319252 -2.41612e-25)
(1.10998 0.333048 -4.30148e-29)
(1.00564 0.287276 0)
(1.03866 0.304836 0)
(0.946649 0.239752 6.75151e-25)
(0.975866 0.264678 -8.05482e-29)
(0.878018 0.191373 0)
(0.914514 0.215728 0)
(0.818648 0.111164 0)
(0.843693 0.159064 0)
(0.818469 -0.0303881 0)
(0.810211 0.0463928 0)
(0.873944 -0.179971 3.23368e-25)
(0.841196 -0.108331 0)
(0.952636 -0.28117 0)
(0.912256 -0.237586 0)
(1.02918 -0.33432 1.64188e-25)
(0.992173 -0.311346 0)
(1.09603 -0.377106 0)
(1.06385 -0.354661 0)
(1.16124 -0.42123 0)
(1.12942 -0.400284 0)
(1.22927 -0.4173 6.0851e-22)
(1.19769 -0.42978 -6.47352e-22)
(1.28534 -0.294461 -3.20012e-22)
(1.26251 -0.376329 -8.70702e-24)
(1.31995 -0.0296317 1.17433e-21)
(1.30981 -0.178406 3.02901e-22)
(1.32141 0.112241 0)
(0.915029 0.221635 0)
(0.91921 0.198814 3.98299e-22)
(0.91437 0.267531 0)
(0.913693 0.242288 0)
(0.92662 0.311701 0)
(0.917744 0.288071 0)
(0.960004 0.351499 0)
(0.940224 0.332539 0)
(1.01686 0.380443 -3.47489e-26)
(0.985378 0.367686 0)
(1.0937 0.393001 3.01507e-22)
(1.05358 0.389009 -6.58089e-23)
(1.18235 0.382834 -3.16471e-21)
(1.13735 0.393163 0)
(1.2228 0.363858 -3.33814e-21)
(0.995393 0.574513 0)
(0.910229 -0.201399 -4.08729e-22)
(0.915175 -0.256804 1.66424e-21)
(0.937433 -0.239104 3.57458e-21)
(1.042 0.540241 -1.60944e-21)
(0.885963 0.454793 -5.77572e-28)
(1.23692 0.390148 -2.46415e-21)
(1.26159 0.360277 1.85271e-21)
(1.10553 0.475532 1.7755e-21)
(1.17352 0.398586 0)
(1.2479 0.289976 4.02534e-21)
(1.3173 0.187467 3.3126e-21)
(1.37183 0.0936391 -5.2876e-21)
(1.49446 0.0719251 -2.68242e-23)
(1.4159 0.0213797 2.05394e-21)
(0.654868 0.0329401 2.77875e-26)
(0.596672 -0.172101 6.71547e-22)
(0.614674 -0.284243 -1.50999e-23)
(0.71751 -0.2913 -3.20835e-23)
(0.819757 -0.27045 0)
(0.888424 -0.286466 8.01972e-22)
(0.950498 0.220153 -3.27523e-22)
(0.954432 0.192638 1.07479e-21)
(0.914733 0.0797746 8.38418e-25)
(1.31309 0.28345 -2.7559e-21)
(1.3364 0.209017 1.75977e-21)
(0.929972 0.137852 -5.1473e-22)
(0.762183 0.260142 -6.61952e-28)
(0.886308 -0.0290607 -5.81562e-23)
(0.895536 0.033855 5.98924e-23)
(0.892715 -0.136633 0)
(0.884173 -0.0838096 9.87202e-23)
(0.937546 -0.204778 8.36214e-28)
(0.91126 -0.17446 3.09763e-24)
(0.994327 -0.241865 -3.78115e-28)
(0.96611 -0.224572 0)
(1.04813 -0.273712 7.85588e-29)
(1.02126 -0.258177 0)
(1.10738 -0.299025 0)
(1.0767 -0.287731 0)
(1.17586 -0.318983 0)
(1.14044 -0.309598 0)
(1.25726 -0.33221 0)
(1.21474 -0.327369 0)
(1.34912 -0.31848 1.36113e-24)
(1.30299 -0.330981 1.16791e-28)
(1.41911 -0.226402 0)
(1.39062 -0.286683 0)
(1.39752 -0.00119917 -1.96703e-28)
(1.42377 -0.12974 2.3054e-28)
(1.264 0.273317 1.90836e-24)
(1.33978 0.143765 -1.29689e-28)
(1.11269 0.404308 2.72088e-29)
(1.18413 0.36349 -3.1862e-29)
(0.997934 0.382175 -1.95072e-24)
(1.05104 0.405021 -1.49952e-28)
(0.908531 0.305446 0)
(0.950725 0.346305 0)
(0.839873 0.212938 -5.83346e-25)
(0.870841 0.26031 -2.72896e-28)
(0.816928 0.118909 0)
(0.821253 0.163564 0)
(0.844389 0.0365679 0)
(0.825716 0.0769948 0)
(0.884496 -0.0483374 8.55668e-22)
(0.864994 -0.00464831 -5.62691e-22)
(0.918354 -0.1438 -4.75871e-22)
(0.898756 -0.0953964 7.33949e-22)
(0.949252 -0.286037 -3.14817e-21)
(0.970817 -0.224433 2.01025e-21)
(0.94103 -0.184437 -3.99765e-21)
(1.49302 0.161594 -6.77558e-22)
(1.44528 -0.0301709 2.66936e-23)
(1.48085 0.00861195 -3.26025e-23)
(1.49904 0.0881061 0)
(1.42255 0.262812 -1.46818e-22)
(1.46502 0.219086 4.97654e-22)
(1.32118 0.309956 -1.97308e-22)
(1.37248 0.292809 0)
(1.22533 0.320432 1.2437e-23)
(1.27153 0.318485 -5.98814e-23)
(1.14427 0.310426 0)
(1.18405 0.317547 0)
(1.07516 0.288688 6.66067e-25)
(1.10856 0.300631 0)
(1.01231 0.259431 8.21701e-29)
(1.04329 0.275203 -9.7764e-29)
(0.957683 0.214343 1.88209e-25)
(0.983904 0.239095 0)
(0.902103 0.161156 9.91933e-29)
(0.93154 0.187753 -1.18072e-28)
(0.845518 0.0938459 0)
(0.871742 0.131814 0)
(0.833379 -0.0184397 8.89024e-25)
(0.831775 0.0434608 -1.12679e-28)
(0.879263 -0.148151 -6.01796e-25)
(0.850493 -0.0844652 0)
(0.954501 -0.244602 8.63088e-29)
(0.915286 -0.201864 -1.02823e-28)
(1.03079 -0.3012 -1.25607e-24)
(0.993601 -0.276219 0)
(1.09922 -0.346263 0)
(1.06579 -0.32362 0)
(1.1677 -0.388607 4.8206e-26)
(1.13322 -0.369633 0)
(1.23757 -0.387731 1.50877e-22)
(1.20426 -0.398718 3.71231e-22)
(1.30048 -0.271494 1.67044e-22)
(1.27394 -0.346913 -5.40622e-22)
(1.34205 -0.0287749 -3.18798e-21)
(1.32665 -0.164318 0)
(1.34795 0.100043 1.95812e-21)
(0.94118 0.271979 0)
(0.945475 0.24583 3.58291e-22)
(0.939304 0.325011 -2.3505e-22)
(0.938823 0.297398 0)
(0.948857 0.373217 0)
(0.941846 0.348218 2.3186e-22)
(0.977425 0.41383 0)
(0.960453 0.39456 0)
(1.02689 0.441355 -2.70116e-26)
(0.999497 0.429603 0)
(1.09392 0.449861 -4.70504e-22)
(1.0585 0.448203 6.64886e-23)
(1.16962 0.43389 -9.00452e-22)
(1.132 0.445881 8.74222e-22)
(1.20434 0.415296 0)
(0.961265 0.503342 0)
(1.27973 0.327672 0)
(1.00714 0.435602 0)
(1.05817 0.344464 6.22708e-26)
(1.12193 0.224426 0)
(1.18151 0.112867 -6.06142e-21)
(1.23067 0.00812185 1.19163e-21)
(1.27635 -0.0657344 -1.04489e-21)
(0.610953 -0.148397 -4.64085e-26)
(0.592499 -0.309809 -3.4153e-25)
(0.66367 -0.347949 1.17923e-22)
(0.775652 -0.313241 9.13205e-23)
(1.32937 -0.103469 0)
(1.43983 -0.0674959 -3.42145e-23)
(1.37302 -0.123106 0)
(0.861545 -0.315058 -7.53026e-22)
(0.92637 -0.321298 -2.03337e-21)
(0.994456 -0.258394 1.14107e-22)
(0.955023 0.156211 1.026e-21)
(0.828708 0.3229 1.4261e-27)
(0.987579 -0.289087 3.1781e-22)
(0.700592 0.0861413 1.40831e-27)
(1.24118 0.28709 3.0138e-22)
(0.917414 0.0686379 4.8751e-22)
(0.950208 0.126021 -6.70776e-21)
(0.895652 -0.0316117 0)
(0.908168 0.02416 3.81625e-22)
(0.907506 -0.123272 9.06473e-27)
(0.899241 -0.0782981 -2.17648e-23)
(0.9521 -0.180495 -2.28022e-27)
(0.928351 -0.155062 8.92355e-28)
(1.0027 -0.217768 -3.18187e-28)
(0.978128 -0.2 0)
(1.05296 -0.248656 1.15295e-28)
(1.02756 -0.234428 -1.35388e-28)
(1.10989 -0.270261 0)
(1.08059 -0.260973 0)
(1.17481 -0.285538 0)
(1.14126 -0.278826 0)
(1.25176 -0.292332 4.83514e-30)
(1.21158 -0.290689 -5.67517e-30)
(1.34029 -0.277631 -1.36123e-24)
(1.29522 -0.289126 0)
(1.41825 -0.207113 -8.10581e-29)
(1.38352 -0.252527 9.50559e-29)
(1.42343 -0.0343378 -7.72657e-25)
(1.43461 -0.134331 0)
(1.30949 0.1999 -5.40484e-25)
(1.37921 0.0847763 0)
(1.14811 0.336893 0)
(1.22705 0.288916 0)
(1.02199 0.332717 3.53908e-24)
(1.07904 0.347161 0)
(0.938621 0.270834 -2.33986e-28)
(0.975417 0.304334 2.73847e-28)
(0.893203 0.19712 8.83865e-24)
(0.911146 0.234185 0)
(0.887723 0.124282 2.80706e-28)