/*--------------------------------*- C++ -*----------------------------------*\
  =========                 |
  \\      /  F ield         | OpenFOAM: The Open Source CFD Toolbox
   \\    /   O peration     | Website:  https://openfoam.org
    \\  /    A nd           | Version:  10
     \\/     M anipulation  |
\*---------------------------------------------------------------------------*/
FoamFile
{
    format      ascii;
    class       volScalarField;
    location    "32.5";
    object      p;
}
// * * * * * * * * * * * * * * * * * * * * * * * * * * * * * * * * * * * * * //

dimensions      [0 2 -2 0 0 0 0];

internalField   nonuniform List<scalar> 
33313
(
-0.00387181
-0.00502969
-0.0048661
-0.00800655
0.00370382
0.00348057
0.00183266
0.01181
0.0110637
-0.00342658
0.000514609
-0.71113
-0.73582
-0.711717
0.126234
0.116353
0.130322
-0.187616
-0.283382
-0.219773
-0.138764
0.756687
0.656858
0.809486
0.836934
0.191364
0.19682
0.199335
0.281111
0.272143
0.2837
0.214728
0.315648
-0.405796
-0.415364
-0.404089
-0.387991
0.0840775
0.0795888
-0.404636
-0.37365
0.326585
0.314085
-0.384667
-0.712456
-0.746103
0.672987
0.770374
-0.00657543
-0.00574363
0.280401
0.308951
0.219021
0.265876
-0.0442975
-0.0195983
0.291716
0.434191
0.548536
0.4583
0.290046
0.857523
0.917176
0.943701
-0.00871468
-0.0238537
-0.17092
-0.0385674
-0.0373087
-0.19648
-0.176915
-0.125036
-0.354397
-0.453405
-0.363545
-0.297844
-0.209904
-0.186243
-0.290787
-0.354996
0.556567
0.542685
0.57313
-0.545011
-0.595663
-0.675382
-0.802099
-0.785066
-0.776859
0.936358
-0.414416
-0.361584
-0.380455
-0.414072
-0.453931
0.268513
0.257784
0.00234183
0.00041017
-0.112931
-0.10174
-0.161872
-0.166139
-0.171063
-0.198195
-0.420045
-0.460434
-0.451922
-0.420034
0.0205513
0.197161
0.154418
0.0206742
-0.602788
-0.717838
-0.549411
0.905387
0.846445
-0.160965
-0.146769
-0.366198
-0.361973
-0.365453
-0.00870096
-0.00741233
-0.019919
0.204135
0.00383571
0.0100211
-0.804727
-0.841264
-0.391804
-0.378305
-0.0659872
-0.076572
-0.238794
-0.155269
0.000976836
0.0892858
0.290938
0.189325
0.402177
0.00222435
-0.00241679
-0.00231129
0.113398
0.109764
0.109628
0.106505
0.352602
0.335871
0.359095
0.345705
0.402479
0.40439
0.370037
0.371986
-0.224713
-0.292605
-0.235668
-0.371468
-0.0910784
-0.0452758
0.121393
-0.0291994
-0.705137
-0.711989
-0.699369
-0.805795
-0.00132237
-0.000140303
0.127147
0.126309
0.0347563
0.0323164
0.192435
0.175712
-0.774204
-0.796469
0.0157363
0.0111864
0.0110744
0.0072451
0.0832914
0.086639
-0.0632673
-0.067319
-0.812525
-0.811951
-0.837029
-0.41321
0.524627
0.499654
-0.839773
-0.825621
0.36337
0.376257
0.369093
0.400065
0.424506
0.41969
0.555699
0.530359
0.147
0.152568
-0.686709
-0.68123
-0.0849155
-0.199507
0.16608
0.161311
0.00187458
0.00505079
0.00198558
-0.000266102
0.11629
-0.798263
-0.769227
0.296363
0.302866
0.281241
0.272968
-0.127689
-0.121244
-0.106856
0.093377
0.119232
0.0881666
-0.736151
-0.732388
-0.737278
-0.0116955
0.02717
0.12898
0.0434593
0.0411777
-0.420778
0.291482
-0.107612
-0.113652
-0.121212
-0.12919
-0.139463
-0.150879
-0.163972
-0.178449
-0.193598
-0.208705
-0.22285
-0.235313
-0.245214
-0.25204
-0.255376
-0.254325
-0.249717
-0.241792
-0.230975
-0.218113
-0.203992
-0.189496
-0.175327
-0.162055
-0.150117
-0.139621
-0.131012
-0.123356
-0.117576
-0.112815
-0.109618
-0.107678
-0.106085
-0.10275
-0.102201
-0.102936
-0.10701
-0.106865
-0.109492
-0.107954
-0.108126
-0.115769
-0.111958
-0.127868
-0.121168
-0.145377
-0.135896
-0.168209
-0.156194
-0.194166
-0.181028
-0.218637
-0.206944
-0.235752
-0.228457
-0.24064
-0.239935
-0.231824
-0.23791
-0.211493
-0.222815
-0.184779
-0.198557
-0.157721
-0.170932
-0.134595
-0.145605
-0.117817
-0.12566
-0.111387
-0.100254
-0.0998256
-0.108956
-0.0997859
-0.10963
-0.107963
-0.0988074
-0.0987328
-0.110564
-0.104333
-0.0978036
-0.105062
-0.0987909
-0.0969615
-0.0983592
-0.102264
-0.0958507
-0.0983978
-0.113499
-0.107405
-0.130049
-0.120845
-0.15326
-0.140859
-0.182489
-0.167248
-0.214018
-0.198335
-0.241545
-0.228687
-0.25869
-0.251773
-0.261312
-0.261535
-0.24859
-0.25679
-0.223856
-0.237339
-0.193709
-0.209015
-0.164619
-0.178715
-0.140565
-0.151868
-0.123225
-0.131005
-0.111957
-0.116918
-0.105799
-0.108244
-0.104493
-0.112086
-0.106565
-0.109826
-0.107241
-0.110525
-0.108322
-0.108035
-0.107123
-0.113338
-0.110123
-0.124001
-0.118018
-0.139936
-0.13132
-0.160732
-0.149796
-0.184406
-0.172418
-0.206835
-0.196098
-0.222713
-0.215909
-0.227566
-0.226708
-0.21959
-0.225119
-0.200899
-0.211331
-0.17616
-0.188934
-0.151004
-0.163303
-0.129534
-0.139692
-0.113531
-0.120893
-0.10359
-0.107825
-0.0984158
-0.100366
-0.0982268
-0.0976613
-0.113547
-0.0945047
-0.100042
-0.100018
-0.109225
-0.102253
-0.104404
-0.0971441
-0.10963
-0.114037
-0.113526
-0.0942584
-0.099047
-0.0927688
-0.0901748
-0.0909369
-0.0999643
-0.0957844
-0.111575
-0.105165
-0.129132
-0.119432
-0.153419
-0.140498
-0.183367
-0.167818
-0.215462
-0.19949
-0.243725
-0.230474
-0.261776
-0.254385
-0.264922
-0.265392
-0.252126
-0.260403
-0.226782
-0.240645
-0.195552
-0.21144
-0.165232
-0.179939
-0.14009
-0.151879
-0.121674
-0.130006
-0.109547
-0.114859
-0.102709
-0.105511
-0.100522
-0.101063
-0.100931
-0.115992
-0.113079
-0.118861
-0.117949
-0.105362
-0.10692
-0.105446
-0.104912
-0.109798
-0.107051
-0.118929
-0.113741
-0.133052
-0.125381
-0.151694
-0.141881
-0.173022
-0.162211
-0.193356
-0.183603
-0.207888
-0.201642
-0.21245
-0.21159
-0.205353
-0.210322
-0.188351
-0.197857
-0.165747
-0.177424
-0.142699
-0.153979
-0.123123
-0.132334
-0.108584
-0.115183
-0.0997474
-0.103477
-0.0957587
-0.0971978
-0.0964305
-0.0954593
-0.103136
-0.102272
-0.0986643
-0.0951247
-0.0906453
-0.0985365
-0.102726
-0.11868
-0.107337
-0.107698
-0.113146
-0.107746
-0.0969153
-0.0972949
-0.0923371
-0.0987092
-0.1011
-0.0850381
-0.0861177
-0.0849527
-0.0884559
-0.0862202
-0.0960699
-0.0917397
-0.108286
-0.101525
-0.126711
-0.116657
-0.151449
-0.138321
-0.181675
-0.165998
-0.214167
-0.197963
-0.243032
-0.22947
-0.26167
-0.253998
-0.265193
-0.265496
-0.252432
-0.260739
-0.226725
-0.240818
-0.194829
-0.211076
-0.163752
-0.178835
-0.137934
-0.15004
-0.118852
-0.127542
-0.106086
-0.111743
-0.0986333
-0.101751
-0.095812
-0.0967061
-0.0958966
-0.121179
-0.117643
-0.124934
-0.123605
-0.107732
-0.117289
-0.111933
-0.102615
-0.104617
-0.101797
-0.101714
-0.105141
-0.102936
-0.112826
-0.108421
-0.12508
-0.11839
-0.141493
-0.132837
-0.160409
-0.150806
-0.17857
-0.169842
-0.191673
-0.186021
-0.195908
-0.195061
-0.189703
-0.19409
-0.174486
-0.183016
-0.1541
-0.164644
-0.133233
-0.143453
-0.11557
-0.123854
-0.10274
-0.108513
-0.0950209
-0.0982669
-0.091941
-0.0929269
-0.0934708
-0.0921073
-0.100152
-0.0961197
-0.114012
-0.11273
-0.105633
-0.125068
-0.0950928
-0.088363
-0.101323
-0.106762
-0.101501
-0.121642
-0.109885
-0.119254
-0.100849
-0.113953
-0.122535
-0.0992871
-0.114786
-0.123954
-0.121627
-0.0919318
-0.104597
-0.0787708
-0.0835363
-0.080553
-0.0787559
-0.0781954
-0.0828716
-0.080335
-0.091038
-0.0864346
-0.103932
-0.09681
-0.122702
-0.112562
-0.147501
-0.134352
-0.177724
-0.162053
-0.210239
-0.194015
-0.239209
-0.225583
-0.258107
-0.250281
-0.261996
-0.262113
-0.249528
-0.257704
-0.223902
-0.237989
-0.191825
-0.208189
-0.160422
-0.175676
-0.134265
-0.146538
-0.114821
-0.123705
-0.101655
-0.107521
-0.0937481
-0.0971087
-0.0902824
-0.091521
-0.0907593
-0.0900861
-0.0944788
-0.0921842
-0.118217
-0.105119
-0.11208
-0.127474
-0.123403
-0.132284
-0.130462
-0.132021
-0.132809
-0.10471
-0.10919
-0.0989761
-0.101321
-0.0972887
-0.0976512
-0.0995454
-0.0979178
-0.105837
-0.102179
-0.116267
-0.110543
-0.130463
-0.122956
-0.146971
-0.138575
-0.162944
-0.155251
-0.174586
-0.169547
-0.178472
-0.177647
-0.173097
-0.176931
-0.159635
-0.167198
-0.141471
-0.150876
-0.122844
-0.131965
-0.107151
-0.114491
-0.0959567
-0.10096
-0.0893947
-0.0921226
-0.0871703
-0.0877462
-0.089387
-0.0877026
-0.0966173
-0.0923427
-0.102419
-0.13268
-0.130687
-0.0974804
-0.0967278
-0.0873916
-0.105741
-0.112511
-0.129758
-0.105914
-0.122031
-0.10497
-0.133126
-0.144467
-0.146033
-0.102496
-0.0868869
-0.0893677
-0.0924789
-0.109725
-0.0738462
-0.0814869
-0.0772242
-0.070536
-0.0716739
-0.0714376
-0.0704856
-0.0762755
-0.073398
-0.0850585
-0.0801419
-0.098432
-0.0911203
-0.117186
-0.107102
-0.141783
-0.128747
-0.171656
-0.156184
-0.203711
-0.187716
-0.232371
-0.218865
-0.251304
-0.243415
-0.255517
-0.255459
-0.243524
-0.251453
-0.218323
-0.232215
-0.186501
-0.202759
-0.15522
-0.170425
-0.129099
-0.141364
-0.109595
-0.118526
-0.0962487
-0.102219
-0.0880307
-0.091565
-0.0840762
-0.0855738
-0.0838612
-0.0835512
-0.0850005
-0.109588
-0.0925123
-0.101367
-0.124195
-0.117232
-0.13491
-0.130062
-0.140954
-0.138602
-0.14128
-0.141894
-0.139199
-0.111139
-0.126315
-0.118112
-0.100669
-0.10534
-0.094426
-0.0970458
-0.0919735
-0.092744
-0.0931887
-0.0921237
-0.0981189
-0.0951857
-0.106792
-0.101998
-0.118851
-0.112453
-0.133032
-0.125804
-0.146876
-0.140193
-0.157079
-0.152643
-0.160585
-0.159807
-0.155978
-0.159286
-0.144208
-0.150839
-0.12821
-0.136501
-0.111791
-0.119824
-0.0980631
-0.104463
-0.0884366
-0.0927132
-0.0830001
-0.0852143
-0.0815681
-0.0817827
-0.0843553
-0.0824066
-0.09199
-0.0875084
-0.105582
-0.0979775
-0.126713
-0.115077
-0.160664
-0.156817
-0.140733
-0.0980973
-0.0857119
-0.111789
-0.120127
-0.175683
-0.179185
-0.112696
-0.132195
-0.112073
-0.146035
-0.0965054
-0.0836329
-0.0868594
-0.109563
-0.161929
-0.104472
-0.135838
-0.0908189
-0.116642
-0.0692165
-0.0766902
-0.0725903
-0.0634499
-0.0660049
-0.0613934
-0.0619115
-0.0632724
-0.0618792
-0.0688291
-0.0655944
-0.0781786
-0.0730095
-0.0917646
-0.0844041
-0.110318
-0.100371
-0.134465
-0.121686
-0.163608
-0.148535
-0.194804
-0.179234
-0.222803
-0.209586
-0.241497
-0.233662
-0.245962
-0.245755
-0.234592
-0.242171
-0.210161
-0.223668
-0.179036
-0.194961
-0.14831
-0.163257
-0.122589
-0.134674
-0.103305
-0.11215
-0.0899873
-0.0959668
-0.0816072
-0.0852463
-0.0772714
-0.078985
-0.0764368
-0.0764552
-0.0788004
-0.0772744
-0.0808804
-0.114922
-0.105838
-0.131102
-0.123418
-0.143588
-0.137891
-0.150845
-0.147952
-0.151758
-0.152137
-0.121772
-0.131167
-0.1465
-0.149922
-0.106433
-0.113535
-0.0957239
-0.100552
-0.0890598
-0.0919228
-0.085945
-0.0870784
-0.0862021
-0.0856563
-0.0898379
-0.0875965
-0.0968454
-0.092931
-0.106887
-0.101535
-0.118875
-0.112746
-0.130704
-0.124978
-0.139522
-0.135673
-0.142641
-0.141919
-0.138742
-0.141566
-0.128558
-0.134309
-0.114622
-0.121849
-0.100338
-0.107317
-0.0885089
-0.0940024
-0.0803715
-0.0839608
-0.0759903
-0.0777253
-0.0752681
-0.0751666
-0.0784775
-0.0763499
-0.0862916
-0.0817557
-0.0997732
-0.0922319
-0.120652
-0.109181
-0.150392
-0.13424
-0.196679
-0.18973
-0.169102
-0.0969367
-0.0817933
-0.200133
-0.219437
-0.212422
-0.119714
-0.129747
-0.121212
-0.1447
-0.101062
-0.0906513
-0.120687
-0.16155
-0.117963
-0.1803
-0.112279
-0.141696
-0.0872729
-0.103938
-0.223127
-0.243476
-0.236319
-0.0927658
-0.0709552
-0.0744985
-0.0771824
-0.0751145
-0.125574
-0.0624065
-0.0665374
-0.0563781
-0.0590327
-0.0523572
-0.0540161
-0.051593
-0.0515268
-0.0544316
-0.0525791
-0.0607018
-0.0571423
-0.0704575
-0.0651299
-0.0840713
-0.0767449
-0.102287
-0.0925515
-0.125731
-0.113352
-0.153816
-0.139308
-0.183814
-0.16884
-0.210804
-0.198048
-0.228986
-0.221328
-0.23363
-0.233276
-0.223037
-0.23017
-0.199672
-0.21263
-0.169632
-0.185024
-0.139861
-0.154352
-0.114884
-0.126627
-0.0960907
-0.104723
-0.0830036
-0.0888988
-0.0746116
-0.0782858
-0.070027
-0.0718928
-0.06867
-0.0689824
-0.0703572
-0.0691991
-0.072141
-0.121139
-0.111315
-0.139092
-0.130435
-0.153365
-0.146837
-0.161802
-0.1584
-0.163476
-0.16349
-0.158249
-0.161656
-0.225639
-0.260534
-0.249668
-0.153309
-0.116118
-0.135724
-0.125363
-0.100856
-0.107904
-0.0900181
-0.0949141
-0.0830155
-0.0860775
-0.0793247
-0.0807781
-0.0787172
-0.0786424
-0.0811582
-0.0795577
-0.0866179
-0.0835213
-0.0947928
-0.0904071
-0.104756
-0.0996431
-0.114723
-0.109883
-0.122248
-0.11895
-0.124988
-0.124327
-0.121723
-0.124112
-0.112994
-0.117936
-0.100985
-0.107214
-0.0887209
-0.0947003
-0.0786882
-0.0833262
-0.0719429
-0.0748912
-0.0685353
-0.0698314
-0.0684375
-0.0680636
-0.0719566
-0.0697134
-0.0797579
-0.0752682
-0.092906
-0.0855803
-0.112926
-0.101961
-0.141835
-0.126144
-0.179979
-0.159824
-0.202193
-0.12958
-0.141581
-0.080226
-0.131566
-0.159624
-0.131101
-0.179678
-0.127807
-0.20126
-0.121015
-0.111065
-0.078927
-0.0979871
-0.24753
-0.268021
-0.272669
-0.283937
-0.146948
-0.081966
-0.0610091
-0.128549
-0.139423
-0.0629051
-0.136503
-0.055139
-0.0582843
-0.0480855
-0.0513571
-0.0433494
-0.045289
-0.0408962
-0.0417877
-0.0413919
-0.0407388
-0.0451576
-0.0428782
-0.0520323
-0.0482124
-0.0620427
-0.0566325
-0.0755567
-0.0683244
-0.0932869
-0.083847
-0.115799
-0.103943
-0.142557
-0.128752
-0.171059
-0.156834
-0.196746
-0.184593
-0.214145
-0.206804
-0.218908
-0.218179
-0.209243
-0.215856
-0.187182
-0.199456
-0.158561
-0.173245
-0.130101
-0.143961
-0.106179
-0.117433
-0.0881189
-0.0964257
-0.0754466
-0.081172
-0.067184
-0.0708265
-0.0624712
-0.0644301
-0.0607412
-0.0612647
-0.0617104
-0.0609357
-0.0651863
-0.0632344
-0.0699507
-0.0674319
-0.105994
-0.0834829
-0.0947762
-0.127976
-0.117144
-0.147942
-0.138269
-0.16395
-0.156613
-0.173673
-0.169684
-0.176024
-0.17579
-0.170874
-0.174332
-0.158982
-0.165662
-0.109404
-0.118492
-0.0944616
-0.101414
-0.0836636
-0.0885798
-0.0764267
-0.0796383
-0.0722466
-0.0739771
-0.070871
-0.0712169
-0.0722323
-0.0712122
-0.0762853
-0.073932
-0.0827673
-0.0792575
-0.0908997
-0.0867047
-0.0991809
-0.0951435
-0.105529
-0.102734
-0.107909
-0.107314
-0.105196
-0.107201
-0.0977764
-0.101985
-0.0875359
-0.0928449
-0.0771498
-0.0821986
-0.0687848
-0.0726306
-0.0633163
-0.0656788
-0.0607843
-0.0616891
-0.0612153
-0.0606177
-0.0649375
-0.0626341
-0.0725901
-0.0682212
-0.0851797
-0.0781903
-0.104144
-0.0937606
-0.131393
-0.116627
-0.167697
-0.148403
-0.211826
-0.188951
-0.257811
-0.235055
-0.29307
-0.278059
-0.0725401
-0.141465
-0.155716
-0.150895
-0.143826
-0.177055
-0.143058
-0.200201
-0.138461
-0.224328
-0.129989
-0.117681
-0.102364
-0.0641119
-0.0841135
-0.272315
-0.291691
-0.304973
-0.3095
-0.293968
-0.0639977
-0.0456604
-0.0599321
-0.0619391
-0.0451149
-0.149615
-0.0439229
-0.0452021
-0.0392882
-0.0418598
-0.0338532
-0.0364765
-0.0304252
-0.0318071
-0.0293913
-0.0296128
-0.0310425
-0.0298485
-0.0356226
-0.0329788
-0.0429682
-0.038955
-0.0531148
-0.0476781
-0.066417
-0.0593368
-0.0835147
-0.0744496
-0.104908
-0.0936716
-0.130125
-0.117133
-0.1569
-0.143539
-0.181069
-0.169621
-0.197604
-0.190588
-0.202417
-0.201611
-0.19366
-0.199724
-0.17307
-0.184562
-0.146135
-0.159968
-0.119283
-0.132364
-0.0966813
-0.107319
-0.0795645
-0.0874473
-0.0674684
-0.0729487
-0.0594622
-0.0630132
-0.0547282
-0.0567297
-0.052712
-0.0534083
-0.0531173
-0.052637
-0.0557754
-0.0542261
-0.0577549
-0.0868134
-0.0640783
-0.0751441
-0.111029
-0.0988525
-0.135004
-0.123068
-0.157222
-0.146492
-0.174994
-0.166824
-0.186086
-0.181471
-0.189143
-0.188669
-0.184008
-0.187603
-0.171394
-0.178576
-0.274158
-0.304391
-0.284445
-0.162792
-0.120389
-0.141733
-0.130759
-0.101861
-0.110655
-0.0874183
-0.0941415
-0.0767857
-0.0816608
-0.0694186
-0.07273
-0.0648412
-0.0668035
-0.0627968
-0.0635118
-0.0632002
-0.062696
-0.0660007
-0.0643093
-0.0709781
-0.0682462
-0.0774878
-0.0741059
-0.0842744
-0.0809491
-0.0895725
-0.0872273
-0.0916148
-0.0910886
-0.0893726
-0.0910443
-0.0831132
-0.086669
-0.0744743
-0.0789466
-0.0658069
-0.070003
-0.0589639
-0.0620885
-0.0546465
-0.056483
-0.0528861
-0.0534494
-0.0537517
-0.0529771
-0.0575784
-0.0552653
-0.0649666
-0.06078
-0.076838
-0.0702717
-0.0945154
-0.084852
-0.119728
-0.10608
-0.153504
-0.135559
-0.195228
-0.173621
-0.239143
-0.217553
-0.25851
-0.155281
-0.172126
-0.157543
-0.196691
-0.155762
-0.22266
-0.0662886
-0.053562
-0.0552638
-0.14929
-0.248731
-0.13843
-0.123506
-0.105204
-0.0847489
-0.0436193
-0.0627771
-0.296162
-0.313121
-0.321832
-0.320478
-0.288643
-0.308589
-0.153051
-0.0410275
-0.026405
-0.131696
-0.142331
-0.0239345
-0.164804
-0.0290877
-0.0282389
-0.0274926
-0.0287457
-0.0238965
-0.0259394
-0.0200065
-0.0218097
-0.017888
-0.0186613
-0.0180628
-0.0176851
-0.0207305
-0.0190698
-0.0259757
-0.0230413
-0.0336672
-0.0295195
-0.0438467
-0.0384339
-0.0568286
-0.0499572
-0.0731683
-0.0645423
-0.0933078
-0.0827599
-0.116833
-0.104731
-0.141721
-0.129306
-0.16423
-0.153554
-0.179804
-0.173155
-0.184605
-0.183707
-0.176755
-0.18226
-0.157738
-0.168383
-0.132686
-0.145562
-0.107676
-0.119861
-0.0866088
-0.096528
-0.0706074
-0.0779857
-0.0592215
-0.0643936
-0.0515805
-0.0549879
-0.04692
-0.0489185
-0.04471
-0.045535
-0.0446415
-0.0444264
-0.0465359
-0.0453768
-0.04995
-0.0481591
-0.0517597
-0.090227
-0.0779903
-0.116068
-0.102996
-0.142263
-0.129208
-0.166577
-0.154843
-0.186143
-0.17711
-0.198652
-0.193392
-0.202502
-0.20173
-0.197313
-0.200974
-0.183929
-0.191531
-0.164341
-0.174804
-0.111261
-0.121211
-0.0937224
-0.102077
-0.0798785
-0.0863347
-0.0695148
-0.0742951
-0.0621128
-0.0654768
-0.0572297
-0.0593776
-0.0546179
-0.0556492
-0.0541885
-0.0541338
-0.0558957
-0.054782
-0.0595624
-0.0575076
-0.0646614
-0.0619862
-0.0701478
-0.0674427
-0.0745245
-0.0725761
-0.076257
-0.0757999
-0.074406
-0.0757959
-0.0691624
-0.0721431
-0.0619577
-0.0656777
-0.0548424
-0.0582684
-0.0493655
-0.0518448
-0.0460668
-0.0474401
-0.0449711
-0.0452436
-0.0461796
-0.0452728
-0.0500224
-0.047744
-0.057051
-0.0530959
-0.0680894
-0.0620067
-0.0843113
-0.0754658
-0.107206
-0.0948343
-0.138007
-0.121578
-0.176394
-0.156441
-0.21749
-0.197323
-0.251216
-0.236077
-0.265901
-0.261626
-0.286203
-0.263675
-0.170646
-0.190552
-0.17214
-0.218069
-0.0684659
-0.0568545
-0.168688
-0.246317
-0.159853
-0.273247
-0.14583
-0.127744
-0.106516
-0.0834787
-0.0601877
-0.15286
-0.0210901
-0.0377226
-0.317171
-0.330116
-0.332887
-0.324878
-0.305897
-0.27721
-0.2554
-0.0179852
-0.00645537
-0.0435506
-0.0449801
-0.00401517
-0.181782
-0.0112389
-0.00902278
-0.0130708
-0.0125869
-0.0119611
-0.012868
-0.00940487
-0.0107855
-0.0068565
-0.00799361
-0.00591613
-0.00613114
-0.00712713
-0.00624589
-0.0106117
-0.00858104
-0.0163657
-0.0132131
-0.0242852
-0.0200583
-0.0343969
-0.0290574
-0.0469605
-0.0403467
-0.0624495
-0.0543078
-0.081248
-0.0714322
-0.102995
-0.0918263
-0.125911
-0.114483
-0.146682
-0.136815
-0.161225
-0.154977
-0.165962
-0.16498
-0.158993
-0.163947
-0.141593
-0.151357
-0.118552
-0.130398
-0.0955541
-0.106757
-0.0761798
-0.0853048
-0.0614232
-0.068236
-0.0508519
-0.0556662
-0.0436651
-0.0468858
-0.0391605
-0.0411151
-0.0368431
-0.0377531
-0.0364115
-0.036408
-0.0376715
-0.0368548
-0.0404452
-0.0389584
-0.042083
-0.0937154
-0.0807532
-0.121202
-0.107257
-0.149444
-0.135379
-0.175676
-0.162997
-0.197023
-0.187128
-0.210936
-0.205039
-0.215593
-0.214502
-0.210286
-0.214153
-0.196168
-0.204209
-0.175158
-0.186381
-0.231533
-0.241357
-0.218165
-0.162884
-0.120819
-0.140594
-0.130774
-0.101549
-0.110943
-0.0851249
-0.0929418
-0.0719934
-0.0781449
-0.0619814
-0.066626
-0.0546262
-0.0580017
-0.0495239
-0.051813
-0.0464453
-0.0477403
-0.0453088
-0.0456371
-0.0460817
-0.0454618
-0.0486292
-0.0471524
-0.0525253
-0.0504528
-0.0568999
-0.0547258
-0.06048
-0.0588766
-0.0619297
-0.0615412
-0.0603996
-0.0615537
-0.0560373
-0.058515
-0.0501062
-0.0531559
-0.0443758
-0.0471155
-0.0401061
-0.0420173
-0.0376923
-0.0386655
-0.0371561
-0.0371874
-0.0386214
-0.0376239
-0.0424035
-0.0401976
-0.0489975
-0.0453114
-0.0591251
-0.0535655
-0.0737995
-0.0658205
-0.0942801
-0.0832361
-0.121722
-0.107082
-0.156218
-0.138186
-0.194169
-0.175257
-0.226436
-0.211556
-0.241318
-0.236985
-0.239612
-0.187169
-0.210517
-0.0461484
-0.18717
-0.240424
-0.181111
-0.269878
-0.169088
-0.296297
-0.151697
-0.130018
-0.105874
-0.0807028
-0.0561834
-0.0339571
-0.00196678
-0.014984
-0.333498
-0.340918
-0.337144
-0.322141
-0.296315
-0.262314
-0.200027
-0.222378
-0.149923
-0.000288375
0.00933127
-0.127811
-0.136431
0.0102243
-0.200102
0.00625258
0.00799913
0.00315357
0.00450286
0.00177642
0.00214885
0.00232655
0.00184081
0.00394978
0.00308913
0.00535446
0.00477475
0.00530345
0.0055596
0.00327328
0.00454402
-0.000820341
0.00148373
-0.00693321
-0.00363163
-0.0149647
-0.0107137
-0.0249121
-0.0196923
-0.0369768
-0.0306587
-0.0515539
-0.0439247
-0.0689682
-0.059904
-0.0889084
-0.0786857
-0.109837
-0.0994017
-0.128856
-0.119805
-0.142337
-0.136512
-0.146954
-0.145913
-0.140812
-0.145242
-0.125021
-0.133899
-0.104062
-0.114833
-0.0831818
-0.0933476
-0.0656037
-0.0738847
-0.0521786
-0.0583845
-0.0424957
-0.0469164
-0.0358307
-0.0388313
-0.0315508
-0.0334266
-0.0292036
-0.0301581
-0.0285094
-0.0286633
-0.0293134
-0.0287372
-0.0313933
-0.0302491
-0.0340834
-0.0327718
-0.0361796
-0.0352684
-0.0703297
-0.0470474
-0.0581812
-0.0969106
-0.083227
-0.126081
-0.111237
-0.156131
-0.141172
-0.184158
-0.170579
-0.207208
-0.19649
-0.222457
-0.215955
-0.227872
-0.226479
-0.222575
-0.226551
-0.207625
-0.216117
-0.185194
-0.197119
-0.158424
-0.172245
-0.109264
-0.118613
-0.0915191
-0.100184
-0.0762509
-0.0835249
-0.0639027
-0.0697131
-0.0543082
-0.0587852
-0.0470684
-0.0504203
-0.0418256
-0.0442147
-0.0383769
-0.0398844
-0.0366565
-0.0373025
-0.0366498
-0.0364422
-0.038262
-0.0372682
-0.0411512
-0.0395835
-0.0445899
-0.0428638
-0.0474894
-0.0461828
-0.0486827
-0.0483615
-0.0474124
-0.0483707
-0.043812
-0.0458516
-0.0390055
-0.041462
-0.0344968
-0.0366325
-0.0312768
-0.0326964
-0.0296171
-0.0302515
-0.0295402
-0.029377
-0.031184
-0.0301327
-0.0348415
-0.0327385
-0.0409478
-0.0375561
-0.0501203
-0.045105
-0.0632086
-0.0561144
-0.0812609
-0.071548
-0.105278
-0.0924799
-0.13544
-0.119655
-0.169245
-0.152222
-0.19918
-0.185384
-0.214253
-0.209224
-0.2063
-0.213235
-0.177009
-0.193937
-0.178542
-0.156772
-0.0367903
-0.204182
-0.231264
-0.144138
-0.201743
-0.262594
-0.192345
-0.291862
-0.17638
-0.316316
-0.155126
-0.130147
-0.10322
-0.0764836
-0.0515222
-0.0298503
-0.0124525
0.0105418
0.000796563
-0.343551
-0.344426
-0.33377
-0.311886
-0.280366
-0.242351
-0.199669
-0.155065
-0.134378
0.0104486
0.0190443
-0.0269497
-0.0273341
0.0183936
-0.219049
0.0191772
0.019234
0.0179008
0.0186343
0.0161217
0.0169499
0.0150544
0.0154438
0.015172
0.014971
0.0160188
0.0155727
0.0165172
0.0163826
0.0156826
0.0163081
0.0130465
0.014599
0.00853034
0.011021
0.00219956
0.005584
-0.00583157
-0.00160947
-0.0155267
-0.0104674
-0.0270302
-0.0210357
-0.040661
-0.0335578
-0.0566871
-0.0483727
-0.074847
-0.0655536
-0.0938325
-0.0843674
-0.111141
-0.102888
-0.123562
-0.118165
-0.128005
-0.126937
-0.122605
-0.126553
-0.108377
-0.116383
-0.0895177
-0.0992
-0.0708057
-0.0799084
-0.0550739
-0.0624865
-0.0430253
-0.0486024
-0.0342746
-0.0382798
-0.0281784
-0.0309347
-0.024177
-0.025946
-0.0218662
-0.0228306
-0.0209917
-0.0212609
-0.0214108
-0.0210483
-0.0229551
-0.0220634
-0.0251331
-0.0240299
-0.0261681
-0.047593
-0.0274542
-0.0371528
-0.0717691
-0.0591723
-0.0996043
-0.0852643
-0.130344
-0.11471
-0.161963
-0.146212
-0.191642
-0.177232
-0.216244
-0.204778
-0.232705
-0.225654
-0.238796
-0.237139
-0.233564
-0.23759
-0.217788
-0.226845
-0.194146
-0.206812
-0.165882
-0.180422
-0.113826
-0.111299
-0.0915699
-0.150877
-0.114627
-0.129765
-0.122628
-0.0975185
-0.106137
-0.0813288
-0.0892035
-0.0672663
-0.0739877
-0.0557364
-0.0611848
-0.0466067
-0.0508918
-0.0395382
-0.0428373
-0.0342252
-0.036677
-0.0304978
-0.0321691
-0.0283111
-0.0292123
-0.0276716
-0.0277994
-0.0285198
-0.027921
-0.0305818
-0.0294296
-0.0332438
-0.0318909
-0.0355669
-0.0345139
-0.0365293
-0.036273
-0.0354686
-0.0362643
-0.032528
-0.0341855
-0.0287107
-0.0306452
-0.0252673
-0.0268785
-0.0229449
-0.0239466
-0.0219151
-0.0222688
-0.0222046
-0.0218899
-0.0239574
-0.0228845
-0.0274391
-0.0254624
-0.033024
-0.0299412
-0.0412286
-0.0367613
-0.052744
-0.0465239
-0.0684158
-0.0600062
-0.0890763
-0.0780845
-0.114933
-0.101402
-0.14419
-0.129376
-0.1712
-0.158526
-0.186041
-0.1808
-0.180757
-0.186211
-0.154106
-0.169609
-0.134814
-0.220785
-0.251734
-0.214902
-0.283179
-0.201398
-0.310735
-0.0276269
-0.0189231
-0.0188381
-0.181151
-0.331658
-0.155861
-0.127725
-0.0988202
-0.0711434
-0.0465899
-0.0261986
-0.0103686
0.00130099
0.0174889
0.00997029
-0.346356
-0.340241
-0.322768
-0.294881
-0.25917
-0.218269
-0.174378
-0.130319
-0.0697603
-0.0882014
-0.135755
0.0162357
0.0240305
-0.115286
-0.120877
0.0225009
-0.237639
0.0263497
0.0252699
0.0278277
0.0271941
0.0281206
0.0281043
0.0274549
0.0278627
0.0267035
0.0270305
0.0265623
0.0265551
0.0267896
0.0266751
0.0265904
0.0267977
0.0251763
0.0260713
0.0221225
0.0238644
0.0173472
0.0199469
0.0109305
0.0143353
0.00300484
0.00714882
-0.00636108
-0.00149714
-0.017257
-0.0116053
-0.0299304
-0.023354
-0.0445992
-0.0370135
-0.0610514
-0.0526466
-0.0781903
-0.069646
-0.0938727
-0.0863801
-0.10526
-0.100289
-0.10947
-0.108414
-0.104708
-0.108227
-0.0919729
-0.0991348
-0.0751917
-0.0837908
-0.0586461
-0.0666857
-0.0447621
-0.0513054
-0.0340968
-0.0390406
-0.0262942
-0.0298745
-0.0207937
-0.0232908
-0.0171102
-0.0187511
-0.0148894
-0.0158349
-0.0139026
-0.0142522
-0.0140193
-0.0138302
-0.0150951
-0.0144527
-0.0167557
-0.0158893
-0.0183357
-0.0176462
-0.0187639
-0.0480705
-0.037347
-0.072866
-0.0599282
-0.10177
-0.0868346
-0.133735
-0.117488
-0.166661
-0.150235
-0.197757
-0.182637
-0.223686
-0.211581
-0.241185
-0.233664
-0.247848
-0.245969
-0.242684
-0.246737
-0.226391
-0.235804
-0.201654
-0.214846
-0.172071
-0.187246
-0.140701
-0.156405
-0.101298
-0.108688
-0.0858212
-0.0935557
-0.0711682
-0.0783041
-0.0583112
-0.0644771
-0.0476116
-0.0526898
-0.0389751
-0.0430521
-0.0321222
-0.0353443
-0.0268014
-0.0292823
-0.0228797
-0.0246696
-0.0203368
-0.021435
-0.0192005
-0.0195928
-0.0194405
-0.0191572
-0.0208355
-0.0200195
-0.0228609
-0.0218155
-0.0246989
-0.0238614
-0.0254549
-0.0252598
-0.0245658
-0.0252246
-0.0222008
-0.0235234
-0.0192505
-0.0207285
-0.0167246
-0.0178869
-0.0151561
-0.0158091
-0.0146412
-0.0147674
-0.0152129
-0.0147854
-0.0170151
-0.0159478
-0.0202823
-0.0184487
-0.0253305
-0.0225611
-0.032581
-0.0286505
-0.0425795
-0.0371992
-0.0559787
-0.0488125
-0.0734205
-0.0641645
-0.0950964
-0.0837604
-0.119726
-0.107219
-0.143049
-0.131975
-0.157237
-0.151824
-0.154519
-0.158372
-0.131418
-0.145384
-0.0941384
-0.113927
-0.0522672
-0.0732524
-0.0483649
-0.03193
-0.235901
-0.270631
-0.225639
-0.30068
-0.0275818
-0.0187386
-0.207429
-0.324962
-0.18276
-0.340889
-0.153799
-0.123005
-0.0928315
-0.0652816
-0.0418085
-0.023171
-0.0090477
0.00142175
0.0090489
-0.125157
0.0207098
0.0146447
-0.341637
-0.328686
-0.305084
-0.272605
-0.233997
-0.191676
-0.148245
-0.105974
-0.0658187
-0.01118
-0.0111206
0.0184846
0.0259986
-0.028499
-0.0128279
0.0236753
-0.254687
0.0297785
0.0280545
0.0328986
0.031444
0.0353658
0.0342282
0.0368282
0.0362352
0.0371198
0.0371032
0.0368172
0.0369934
0.0365413
0.0366603
0.0363037
0.0364417
0.0355883
0.0360472
0.0337657
0.0348468
0.0304512
0.0323053
0.0255591
0.028199
0.0191768
0.0225449
0.0114514
0.0154732
0.00248059
0.00712001
-0.0077754
-0.00247811
-0.0195006
-0.0134404
-0.0328726
-0.0259787
-0.0477263
-0.0401501
-0.063154
-0.0554619
-0.0773255
-0.070542
-0.0877154
-0.0831635
-0.0916299
-0.0906282
-0.0873948
-0.0905389
-0.0760697
-0.0824233
-0.0613168
-0.0688558
-0.0468921
-0.0538914
-0.0348147
-0.040508
-0.0255052
-0.0298273
-0.0186419
-0.0217994
-0.0137462
-0.0159775
-0.0104059
-0.011904
-0.00831661
-0.00922052
-0.00727624
-0.00767473
-0.00716738
-0.00711122
-0.007876
-0.0074304
-0.00914736
-0.00846111
-0.0105149
-0.00983808
-0.0109918
-0.0483935
-0.0374496
-0.0737212
-0.0605003
-0.103307
-0.0880109
-0.136085
-0.119412
-0.169994
-0.153056
-0.202179
-0.186513
-0.229141
-0.216536
-0.247452
-0.239562
-0.254567
-0.252511
-0.249466
-0.253532
-0.232892
-0.242495
-0.207283
-0.221002
-0.176609
-0.192318
-0.144187
-0.160487
0.000841745
0.00460186
0.0178093
-0.128183
-0.100879
-0.109975
-0.106014
-0.0881144
-0.094837
-0.0743534
-0.0812471
-0.0611921
-0.0676296
-0.0495062
-0.0551315
-0.0396284
-0.0443386
-0.0314982
-0.0353579
-0.0248948
-0.0280204
-0.0196207
-0.0221006
-0.0155819
-0.0174489
-0.0127839
-0.0140255
-0.0112736
-0.0118664
-0.0110435
-0.0110053
-0.0119111
-0.0113624
-0.01342
-0.012626
-0.0148511
-0.0141965
-0.015425
-0.0152856
-0.0146822
-0.0152223
-0.012825
-0.0138517
-0.0106313
-0.0117131
-0.00888424
-0.00966857
-0.00793666
-0.00830481
-0.00783243
-0.00777919
-0.00861228
-0.00810561
-0.0104137
-0.00937432
-0.0134394
-0.0117594
-0.0179503
-0.0154909
-0.0242818
-0.0208652
-0.0328513
-0.0282588
-0.044141
-0.0381262
-0.0586081
-0.0509571
-0.0763808
-0.0671034
-0.0965408
-0.0862919
-0.115923
-0.106646
-0.128557
-0.123522
-0.127525
-0.130143
-0.108552
-0.120194
-0.0758042
-0.0934807
-0.0367925
-0.0565709
-0.0174323
-0.24838
-0.286558
-0.010848
-0.233008
-0.313662
-0.209808
-0.333249
-0.180917
-0.343075
-0.148882
-0.116377
-0.0858928
-0.0593349
-0.0376644
-0.0208826
-0.0083562
0.000945394
0.00780039
0.0126326
0.0209962
0.0159322
-0.329715
-0.310646
-0.282187
-0.24664
-0.206638
-0.164512
-0.122649
-0.0825342
-0.0446393
-0.0100614
0.0332232
0.0206915
-0.112546
0.0180663
0.0256047
-0.095219
-0.097714
0.0226651
-0.268914
0.0306922
0.0283118
0.0349845
0.0329877
0.0386891
0.0369114
0.0418306
0.0403414
0.0440899
0.0430927
0.0452157
0.0447965
0.0454245
0.0454057
0.045168
0.0453318
0.0446338
0.0449428
0.0435527
0.0441903
0.0414551
0.0426571
0.0380064
0.0399099
0.033118
0.0357392
0.0268749
0.0301562
0.0194323
0.0232938
0.0109115
0.0153029
0.00131461
0.00625298
-0.00948995
-0.00392571
-0.0216488
-0.0153977
-0.0350403
-0.0282192
-0.0489173
-0.0419968
-0.0617085
-0.0555767
-0.0711378
-0.0670021
-0.0746849
-0.0737827
-0.070874
-0.0736938
-0.0608811
-0.0664624
-0.0480847
-0.0546009
-0.0356986
-0.0416996
-0.0253501
-0.0302304
-0.0173406
-0.0210657
-0.0113867
-0.0141332
-0.00708913
-0.0090553
-0.00410498
-0.00545164
-0.00217795
-0.00302273
-0.00113279
-0.00155349
-0.000866179
-0.000906975
-0.00129378
-0.00100061
-0.00224046
-0.00171808
-0.00334823
-0.00280583
-0.00401715
-0.00379839
-0.00376291
-0.00400039
-0.0273799
-0.010444
-0.0184094
-0.0484576
-0.037335
-0.074054
-0.0606772
-0.104028
-0.0885424
-0.137266
-0.120342
-0.171781
-0.154526
-0.204654
-0.188637
-0.232295
-0.21936