/*--------------------------------*- C++ -*----------------------------------*\
  =========                 |
  \\      /  F ield         | OpenFOAM: The Open Source CFD Toolbox
   \\    /   O peration     | Website:  https://openfoam.org
    \\  /    A nd           | Version:  10
     \\/     M anipulation  |
\*---------------------------------------------------------------------------*/
FoamFile
{
    format      ascii;
    class       volVectorField;
    location    "32.5";
    object      U;
}
// * * * * * * * * * * * * * * * * * * * * * * * * * * * * * * * * * * * * * //

dimensions      [0 1 -1 0 0 0 0];

internalField   nonuniform List<vector> 
33313
(
(0.302676 0.0145983 -1.87499e-21)
(0.438624 0.00935415 1.07775e-21)
(0.383366 0.0292496 0)
(0.172007 0.0121248 0)
(0.754412 0.0283066 5.08409e-22)
(0.709764 0.0292313 0)
(0.593401 0.0323768 -6.05608e-22)
(0.628664 0.0229957 0)
(0.727405 0.0215549 4.4892e-22)
(0.599092 0.0207083 2.62811e-22)
(0.672156 0.0276706 0)
(-0.0920633 0.0625193 -4.23018e-20)
(-0.0186811 0.00768266 -1.53652e-19)
(-0.0231175 0.0163676 -3.07271e-19)
(0.418705 -0.337941 -3.3483e-21)
(0.162673 -0.119451 2.90648e-20)
(0.14445 -0.113176 2.39106e-20)
(1.39066 -0.391148 0)
(1.41989 -0.272932 0)
(1.37592 -0.23482 0)
(1.40058 -0.312021 1.685e-20)
(0.555531 0.089145 0)
(0.470271 0.398207 -1.19762e-19)
(0.312697 0.359317 3.65103e-19)
(0.411957 0.0821969 -7.94591e-20)
(1.00478 -0.0205053 -5.06656e-20)
(1.00446 -0.0399022 3.51643e-20)
(1.00481 -0.0791324 0)
(0.963233 0.105219 -6.66351e-20)
(1.03614 0.100476 5.30078e-20)
(1.01595 0.0817168 3.43961e-20)
(0.996747 -0.0193681 -3.15966e-20)
(0.882042 0.0570375 -2.50562e-20)
(-0.0304848 -0.051774 7.00334e-20)
(-0.0592915 -0.0384971 -1.44306e-19)
(-0.0616146 -0.0336984 9.03938e-20)
(-0.0874438 -0.0383098 1.23261e-20)
(1.12653 -0.0319671 -2.6972e-22)
(1.13315 -0.0324836 -8.24768e-21)
(1.57244 0.111818 -2.70894e-20)
(1.53746 0.0926625 5.02567e-20)
(1.00328 -0.153947 -6.24358e-20)
(1.01002 -0.151581 -5.31364e-21)
(-0.0566256 -0.0243314 -5.88344e-20)
(-0.0641606 0.0909661 5.38475e-20)
(-0.102971 0.0809769 -2.15165e-19)
(0.216358 0.584165 8.35431e-20)
(0.190691 0.440214 3.40684e-20)
(0.422799 -0.0455432 3.47588e-22)
(0.53564 -0.0258696 -1.23457e-21)
(1.04197 0.0682599 -4.66392e-20)
(1.05972 0.0627442 2.46369e-20)
(1.06362 -0.0981559 -4.65018e-20)
(1.01876 -0.0611442 1.25652e-19)
(0.524605 0.619381 -2.97008e-20)
(0.45511 0.689 4.07108e-20)
(0.690845 0.836991 -5.83617e-20)
(0.411829 0.774367 1.75289e-19)
(0.204838 -0.332075 5.6238e-20)
(0.335701 -0.61667 -4.10363e-21)
(0.234541 0.619146 -2.7624e-20)
(0.387824 -0.181934 2.38346e-19)
(0.225652 -0.120464 -7.21542e-20)
(0.0976316 -0.0818247 0)
(0.0877808 -0.00445005 0)
(0.11931 -0.0143877 1.22262e-20)
(1.29534 -0.175627 3.57306e-20)
(1.3157 -0.261443 0)
(1.31284 -0.257484 0)
(-0.164667 -0.217037 1.39125e-20)
(-0.128292 -0.298689 0)
(0.00160707 -0.276693 0)
(0.246165 0.00113398 8.43234e-21)
(1.61761 0.181239 1.01654e-19)
(-0.301205 0.0021929 7.39424e-20)
(-0.23328 0.00737639 4.19165e-20)
(0.0923456 0.0843157 0)
(0.0210322 0.0489602 1.40424e-20)
(1.47838 0.263626 1.00653e-19)
(1.52577 0.179942 -6.08452e-20)
(0.821623 -0.00427701 1.46038e-19)
(0.838381 0.0104519 -4.93468e-20)
(0.796148 -0.0385133 0)
(1.53345 0.0721934 2.70049e-20)
(1.42216 0.128209 -5.97559e-21)
(0.898319 0.0467714 -2.39647e-20)
(0.129041 0.0290106 0)
(-0.0151648 0.0631488 2.55883e-20)
(-0.0675702 0.061262 1.45794e-19)
(0.0367177 -0.0976017 2.86704e-19)
(-0.129835 0.253626 6.51799e-21)
(-0.169609 0.142855 -2.65878e-21)
(-0.0325135 0.163932 -4.33255e-19)
(0.00512446 0.236165 0)
(0.00266838 0.308689 5.51065e-20)
(1.04219 0.0629905 0)
(1.01568 0.0605271 -5.77063e-21)
(0.492548 -0.0504975 -7.94555e-22)
(0.628572 -0.0344446 -4.8063e-22)
(1.40623 -0.251787 0)
(1.40539 -0.289282 -3.69891e-20)
(1.4078 -0.222653 0)
(1.40945 -0.173898 1.83857e-20)
(1.4321 -0.186556 2.92119e-21)
(1.36871 -0.168595 -2.03139e-20)
(0.285263 -0.00372845 -2.37242e-21)
(0.20062 -0.0363415 -7.93313e-20)
(-0.00783009 -0.0418503 -5.59983e-20)
(0.000315193 -0.0379051 -2.79562e-22)
(0.880715 -0.584475 -1.55981e-20)
(1.06401 -0.718096 2.67045e-20)
(0.891928 -0.682684 7.5598e-20)
(0.694288 -0.482455 0)
(0.736404 -0.207208 6.76856e-20)
(0.279438 -0.0381804 3.37876e-20)
(0.657228 -0.0871352 -3.0676e-20)
(0.216868 0.134584 -4.29968e-19)
(0.184479 0.288997 4.79702e-20)
(1.42068 -0.179691 8.37593e-22)
(1.41269 -0.172096 0)
(-0.0466306 0.0167328 0)
(-0.0262572 -0.00293399 9.01763e-20)
(-0.0283981 0.0131594 0)
(0.350344 -0.0151144 -2.12854e-21)
(0.41256 -0.0110668 1.56984e-21)
(0.214071 -0.0349461 -6.66236e-21)
(0.844256 0.815677 9.46878e-20)
(1.09299 -0.0658513 -2.73894e-23)
(1.08722 -0.0619567 0)
(0.203774 0.180377 4.60121e-20)
(0.269437 0.00229625 -6.1414e-20)
(0.0555058 0.115115 -1.58392e-19)
(0.0387059 0.0811359 2.84272e-19)
(0.979876 0.75752 -4.94154e-21)
(1.14262 0.75995 -4.04935e-20)
(1.01452 0.713052 0)
(0.839177 0.65139 0)
(0.479188 -0.334371 1.64774e-21)
(0.596581 -0.420399 0)
(0.819418 -0.692278 -1.35035e-19)
(0.82269 -0.670656 -8.14051e-20)
(0.69664 -0.692737 1.46544e-19)
(1.09581 -0.0647703 -9.21504e-25)
(1.10019 -0.0666966 1.50979e-21)
(1.09874 -0.069414 -1.38717e-23)
(1.08029 -0.0088675 0)
(1.0843 -0.00871911 -6.19995e-21)
(1.08556 -0.0120367 9.68264e-21)
(1.0892 -0.0139181 6.12352e-21)
(0.984429 -0.188828 4.65652e-20)
(0.997154 -0.194564 0)
(0.983834 -0.148798 -7.99906e-20)
(0.99087 -0.163305 4.55441e-20)
(0.949324 0.128334 2.72597e-20)
(0.944272 0.15013 -4.19328e-20)
(0.965945 0.157462 2.57636e-20)
(0.961329 0.167253 1.47461e-19)
(-0.131289 0.00102747 1.10746e-20)
(-0.277777 -0.128096 0)
(-0.199882 -0.10042 -1.91201e-20)
(0.0266383 0.057845 -2.3244e-19)
(0.491683 0.406114 1.98965e-20)
(0.520604 0.480968 1.49462e-20)
(0.933549 0.793338 -2.17593e-20)
(0.52851 0.543726 1.33226e-20)
(-0.164791 0.382818 0)
(-0.187717 0.283713 1.45492e-19)
(-0.196431 0.430172 -9.7892e-20)
(0.583811 0.082543 0)
(0.775669 0.0244683 0)
(0.832831 0.025445 -4.71331e-24)
(1.06538 0.00204465 6.43042e-21)
(1.06606 -0.00141544 -4.06086e-21)
(1.08022 0.00452247 5.34286e-22)
(1.08421 0.007842 -3.31929e-23)
(1.01245 -0.0926538 1.05286e-20)
(1.02425 -0.0773373 -4.53443e-20)
(0.897191 -0.133364 1.98795e-19)
(0.830088 -0.154419 -1.59964e-19)
(1.10425 0.285656 0)
(1.12252 0.289583 0)
(1.09872 -0.0147711 -8.27239e-23)
(1.10335 -0.0137503 -7.94657e-22)
(1.13008 0.179092 -1.77818e-20)
(1.12244 0.171427 6.42085e-21)
(0.502321 -0.142637 0)
(0.519276 -0.175422 -2.13493e-21)
(0.840384 -0.223269 3.9668e-20)
(0.873691 -0.303139 4.43607e-20)
(0.547815 -0.116676 5.61644e-22)
(-0.319726 -0.121229 -2.06316e-19)
(0.846368 0.089851 -5.09886e-20)
(0.875847 0.084321 2.17993e-20)
(0.477893 -0.252485 1.40369e-20)
(0.485481 -0.341972 0)
(0.954185 0.281918 0)
(0.934245 0.325276 -6.71783e-21)
(0.911746 0.421564 -4.81974e-20)
(0.945461 -0.230303 2.78134e-20)
(0.912828 -0.252417 0)
(0.906714 -0.400959 3.40077e-20)
(0.818266 0.0492616 -4.35279e-20)
(0.847807 0.0527083 5.19835e-20)
(1.03958 -0.0702986 3.94454e-21)
(1.03296 -0.0630741 -8.69297e-21)
(-0.11006 0.20495 0)
(-0.0762108 0.141165 -7.72004e-20)
(1.19919 -0.619405 -6.3126e-21)
(1.14484 -0.633974 6.68952e-21)
(1.02839 -0.0589416 -3.06982e-20)
(1.03325 -0.068053 3.66278e-20)
(0.722194 0.028786 -7.88566e-24)
(0.789336 0.0268046 9.13138e-24)
(0.787319 0.0268944 1.94238e-22)
(0.73159 0.0276432 1.39568e-22)
(0.540772 -0.410228 1.37489e-20)
(-0.0438198 0.0617839 1.74268e-19)
(-0.0272309 0.028914 -8.22781e-20)
(1.00369 0.214621 1.03843e-20)
(0.999425 0.196253 -4.92867e-21)
(1.01133 0.192572 4.94958e-21)
(1.01765 0.211343 0)
(1.41615 -0.175646 -1.19179e-20)
(1.41345 -0.163247 6.99168e-22)
(1.40638 -0.158038 1.16027e-20)
(1.15432 0.296484 0)
(1.13372 0.297275 -2.02452e-20)
(1.15412 0.292892 0)
(-0.0757101 0.0554617 -8.75463e-20)
(-0.028087 0.0191318 -1.97873e-19)
(-0.0339103 0.0231114 0)
(0.192241 -0.132344 4.48159e-21)
(0.159757 -0.114715 -3.14222e-21)
(1.0639 0.00345704 4.35667e-21)
(1.06666 -0.0159611 -2.95564e-21)
(1.06866 -0.0140526 -1.31421e-21)
(1.27677 -0.381373 0)
(1.02377 -0.159689 0)
(1.00809 -0.566635 -2.89623e-21)
(1.00578 -0.567963 -2.94055e-21)
(1.00137 -0.570502 4.3107e-21)
(0.997191 -0.573008 -3.46883e-22)
(0.99093 -0.572067 0)
(0.985732 -0.565409 -3.19244e-21)
(0.980606 -0.549767 3.19198e-21)
(0.975947 -0.5229 3.77416e-21)
(0.971464 -0.483604 -3.77179e-21)
(0.967427 -0.43133 -4.37796e-21)
(0.963627 -0.366538 4.37502e-21)
(0.960499 -0.290304 4.87492e-21)
(0.957764 -0.20455 -4.87144e-21)
(0.955843 -0.111684 0)
(0.954537 -0.0145457 0)
(0.954812 0.0839238 0)
(0.956581 0.180432 4.9826e-21)
(0.960084 0.271901 -4.98673e-21)
(0.964926 0.355078 0)
(0.971274 0.427617 0)
(0.978413 0.487482 0)
(0.986229 0.534156 3.70178e-21)
(0.993839 0.567728 -2.7832e-22)
(1.00127 0.589549 -6.59437e-21)
(1.00737 0.601458 3.17052e-21)
(1.0134 0.605549 -2.74347e-21)
(1.01616 0.604186 8.40924e-21)
(1.01944 0.598941 2.12665e-23)
(1.02068 0.592273 0)
(1.02165 0.584434 7.28269e-22)
(1.02169 0.576804 0)
(1.02065 0.570075 -1.41158e-21)
(1.00122 -0.560314 0)
(1.00892 -0.565504 5.93252e-21)
(1.00522 -0.561557 1.6788e-21)
(1.01279 -0.568037 1.66182e-21)
(1.01593 0.561059 -1.53093e-21)
(1.01838 0.564762 1.38636e-21)
(1.0182 0.576385 0)
(1.01905 0.566603 -6.9363e-22)
(1.01938 0.570837 -7.14237e-22)
(1.01291 0.58903 0)
(1.01623 0.582588 0)
(1.003 0.598184 0)
(1.00843 0.594541 0)
(0.988104 0.592711 -2.65547e-25)
(0.996451 0.598194 0)
(0.968999 0.556997 0)
(0.979079 0.579595 0)
(0.948388 0.476696 -1.07984e-23)
(0.958654 0.523039 0)
(0.930546 0.34641 0)
(0.938854 0.417584 0)
(0.919222 0.174906 -1.30594e-23)
(0.923921 0.264727 0)
(0.915614 -0.0176337 -1.33239e-23)
(0.916552 0.0797484 0)
(0.918599 -0.20597 -1.28338e-23)
(0.916296 -0.113909 -1.62249e-27)
(0.927476 -0.366204 0)
(0.922391 -0.290915 0)
(0.940584 -0.481075 0)
(0.933634 -0.429953 0)
(0.956123 -0.544859 0)
(0.948126 -0.519194 0)
(0.97249 -0.56536 0)
(0.96437 -0.559441 0)
(0.988803 -0.563795 1.55024e-21)
(0.981197 -0.565982 4.30456e-22)
(0.996167 -0.561659 -2.7482e-23)
(1.01213 -0.569927 1.25425e-23)
(1.0106 -0.566432 8.41694e-22)
(1.01881 0.563984 0)
(1.01423 -0.571866 -4.90901e-21)
(1.01375 0.560853 0)
(1.01043 0.55773 1.7244e-21)
(1.01474 -0.575832 3.85258e-24)
(1.01456 -0.572793 -8.28423e-22)
(1.01762 0.562916 -3.3694e-21)
(1.01409 0.5555 0)
(1.01536 -0.577306 -7.78691e-22)
(1.00757 0.552115 -1.59276e-21)
(1.01827 -0.581505 -8.32849e-22)
(1.01531 -0.584525 7.84161e-22)
(1.01669 -0.583716 0)
(1.01778 -0.569485 4.62513e-24)
(1.01628 -0.576765 1.36712e-21)
(1.01705 -0.572044 3.10469e-21)
(1.01512 -0.570912 1.01595e-22)
(1.01615 -0.568926 -1.58358e-21)
(1.01346 -0.576634 -3.72806e-24)
(1.01455 -0.573742 -3.57751e-21)
(1.00975 -0.56951 0)
(1.0115 -0.576042 0)
(1.00666 -0.527169 0)
(1.00812 -0.553996 0)
(1.00379 -0.4349 0)
(1.00525 -0.487638 0)
(1.00078 -0.292004 0)
(1.00228 -0.369304 0)
(0.99844 -0.110301 0)
(0.999428 -0.204883 0)
(0.998441 0.0894495 0)
(0.9981 -0.0111352 0)
(1.00175 0.281415 0)
(0.999582 0.188102 0)
(1.00893 0.439254 0)
(1.00492 0.36601 0)
(1.01833 0.545201 0)
(1.01353 0.499206 0)
(1.02699 0.597753 -3.83599e-26)
(1.02293 0.577579 0)
(1.03246 0.609989 4.17768e-27)
(1.03003 0.607792 0)
(1.03287 0.599964 -4.65341e-22)
(1.03248 0.606663 -6.41485e-21)
(1.02928 0.582821 -1.47047e-21)
(1.03104 0.591687 2.62318e-21)
(1.02322 0.566744 1.42391e-21)
(1.0267 0.574306 -7.18612e-22)
(1.01919 0.560644 0)
(1.00982 0.561009 -4.38097e-22)
(0.999616 0.549964 -8.40218e-23)
(1.0044 0.55662 0)
(1.02052 0.565911 -9.21372e-23)
(1.02279 0.563463 3.28026e-21)
(1.02193 0.563841 0)
(1.01571 0.573899 0)
(1.01892 0.569251 3.66377e-22)
(1.00666 0.58446 -4.1838e-22)
(1.01182 0.579189 0)
(0.992957 0.591145 0)
(1.00044 0.588805 4.19399e-22)
(0.974056 0.583234 -3.49489e-25)
(0.984222 0.589892 0)
(0.95094 0.546023 0)
(0.962946 0.569199 0)
(0.9266 0.466095 1.07421e-23)
(0.938669 0.51196 0)
(0.905541 0.33839 0)
(0.91537 0.408003 0)
(0.891742 0.170951 1.30174e-23)
(0.897568 0.258614 0)
(0.886818 -0.0170266 1.32981e-23)
(0.888179 0.078033 0)
(0.890366 -0.201435 1.28251e-23)
(0.887571 -0.111266 1.62037e-27)
(0.901547 -0.358417 0)
(0.895108 -0.284623 0)
(0.918176 -0.471486 0)
(0.909354 -0.421053 0)
(0.938021 -0.534822 0)
(0.927794 -0.509253 0)
(0.959117 -0.555752 7.1288e-24)
(0.948604 -0.549493 0)
(0.978753 -0.555127 0)
(0.969262 -0.556778 0)
(0.995458 -0.553822 0)
(0.987389 -0.55378 0)
(1.00917 -0.561241 -3.92279e-22)
(1.00274 -0.556201 -1.89358e-21)
(1.02044 -0.577357 -5.65721e-22)
(1.01519 -0.568371 2.30164e-21)
(1.01572 0.563649 1.32034e-21)
(1.01405 -0.583348 -1.372e-21)
(1.0213 -0.590946 8.25026e-22)
(1.02561 -0.587616 -1.15679e-21)
(0.991134 0.548405 9.68291e-22)
(0.996463 0.541964 1.19921e-21)
(0.986228 0.539534 6.03927e-22)
(1.01428 -0.592811 0)
(1.02867 0.562437 1.61112e-21)
(1.02289 0.564675 4.40953e-22)
(1.03088 0.564122 1.91792e-21)
(1.01102 -0.59107 -2.51919e-24)
(1.01762 -0.592691 0)
(1.01725 -0.574594 -3.59204e-22)
(1.00798 -0.587241 -1.75088e-21)
(1.01307 -0.580288 7.14268e-22)
(1.023 -0.56856 -1.52507e-21)
(1.02037 -0.570391 0)
(1.02531 -0.570759 4.65725e-23)
(1.02437 -0.568567 8.00576e-22)
(1.02812 -0.576992 -2.20738e-22)
(1.02675 -0.574067 2.73592e-22)
(1.03022 -0.570037 0)
(1.02918 -0.57659 0)
(1.03239 -0.527596 0)
(1.0313 -0.55445 0)
(1.03412 -0.435317 0)
(1.03337 -0.488037 0)
(1.03483 -0.292597 0)
(1.0346 -0.369776 0)
(1.03486 -0.111068 0)
(1.03489 -0.205591 0)
(1.03502 0.0891263 -7.53894e-24)
(1.03486 -0.0118209 0)
(1.03651 0.282009 0)
(1.03553 0.188188 0)
(1.04006 0.440993 0)
(1.03804 0.367187 0)
(1.04478 0.547476 0)
(1.04241 0.501344 0)
(1.04825 0.599356 1.23271e-26)
(1.04684 0.579662 0)
(1.0484 0.60995 -3.73685e-26)
(1.04882 0.60865 0)
(1.04454 0.598101 -6.01392e-23)
(1.04687 0.60571 0)
(1.03689 0.579045 -1.79727e-22)
(1.04097 0.588797 -1.59206e-21)
(1.02647 0.561364 3.5543e-22)
(1.03198 0.569682 1.859e-22)
(1.01354 0.54866 -3.74652e-22)
(1.02033 0.554414 -7.0488e-22)
(1.00562 0.54487 3.80638e-22)
(1.00536 0.561484 -5.55519e-22)
(0.997746 0.555901 0)
(1.02257 0.566452 1.29588e-21)
(1.01345 0.564908 -2.12841e-22)
(1.02281 0.563191 4.22902e-23)
(1.02591 0.562044 0)
(1.01428 0.569501 8.73233e-23)
(1.01916 0.565761 -1.44344e-22)
(1.00164 0.577949 6.32312e-24)
(1.00863 0.573806 9.58347e-23)
(0.984322 0.582105 0)
(0.993645 0.581102 0)
(0.961827 0.571656 -4.21264e-25)
(0.973733 0.579509 0)
(0.935212 0.532996 -8.31651e-24)
(0.948911 0.556705 0)
(0.907631 0.453666 0)
(0.921271 0.498932 0)
(0.883725 0.328907 0)
(0.894916 0.396773 0)
(0.867666 0.165951 0)
(0.874528 0.251259 0)
(0.861499 -0.0173147 -1.15983e-23)
(0.863305 0.0754249 0)
(0.865438 -0.197277 0)
(0.862237 -0.109259 0)
(0.878413 -0.350835 0)
(0.870938 -0.278583 0)
(0.897913 -0.46172 0)
(0.887518 -0.412256 0)
(0.921614 -0.523639 0)
(0.909366 -0.498692 0)
(0.94711 -0.544162 -7.18591e-24)
(0.934346 -0.537941 0)
(0.97095 -0.544624 0)
(0.959427 -0.545388 0)
(0.991464 -0.545459 7.20423e-22)
(0.981656 -0.544215 0)
(1.00882 -0.554502 -2.43276e-24)
(1.00052 -0.548855 -7.19271e-22)
(1.02375 -0.571569 -1.60906e-22)
(1.01652 -0.56206 1.43836e-21)
(1.03014 -0.599497 -1.60547e-21)
(1.03742 -0.594925 0)
(1.03075 -0.582457 -1.10181e-21)
(1.00672 -0.59963 3.76294e-21)
(1.00172 -0.594695 -1.93951e-21)
(1.01217 -0.602305 1.66254e-21)
(1.02369 -0.602225 0)
(1.03259 0.566265 -2.01154e-21)
(1.04362 -0.608618 0)
(1.03426 -0.612535 3.75295e-21)
(0.98209 0.546606 -4.41478e-22)
(0.975303 0.536698 5.52561e-22)
(0.993685 0.532019 1.62969e-21)
(1.00094 -0.608164 0)
(0.994012 -0.601847 -1.06892e-21)
(0.982106 0.529 0)
(1.01778 -0.603056 0)
(1.00539 -0.58114 1.42612e-21)
(0.987434 -0.593347 1.08174e-21)
(0.997139 -0.587415 -1.12616e-21)
(1.01855 -0.570114 -2.36062e-22)
(1.01246 -0.575057 7.19265e-22)
(1.02844 -0.56498 -1.07188e-21)
(1.02377 -0.566504 1.81299e-22)
(1.03578 -0.56809 -3.03092e-22)
(1.03233 -0.565556 0)
(1.04314 -0.574689 -9.14275e-26)
(1.0394 -0.571708 2.04893e-22)
(1.05072 -0.567584 0)
(1.04692 -0.574243 0)
(1.05823 -0.525213 0)
(1.05452 -0.551946 0)
(1.0648 -0.433685 0)
(1.06171 -0.485952 0)
(1.06941 -0.292014 0)
(1.06739 -0.368679 0)
(1.07175 -0.111118 7.39357e-24)
(1.07086 -0.205401 0)
(1.0723 0.0890585 7.53894e-24)
(1.0722 -0.0119436 0)
(1.0722 0.282765 0)
(1.07225 0.188443 0)
(1.0725 0.442661 0)
(1.07229 0.368471 0)
(1.07265 0.548976 0)
(1.0727 0.503106 0)
(1.07083 0.599378 6.83421e-26)
(1.07211 0.580551 0)
(1.06557 0.607891 -8.27389e-26)
(1.06867 0.607629 0)
(1.05672 0.594051 -3.31819e-24)
(1.06157 0.602616 0)
(1.04484 0.573292 -6.11857e-24)
(1.05113 0.583855 0)
(1.03043 0.554139 -3.66586e-22)
(1.03791 0.563229 0)
(1.01378 0.540198 -3.38555e-22)
(1.02238 0.546591 7.25236e-22)
(1.00417 0.535909 -5.45546e-22)
(1.00019 0.561257 9.96924e-23)
(0.990487 0.554823 4.20637e-22)
(1.02195 0.567447 1.93613e-21)
(1.01054 0.565383 2.33915e-22)
(1.0352 0.559567 -1.91086e-21)
(1.0431 0.564118 1.76244e-21)
(1.03943 0.561682 -1.3557e-22)
(1.02584 0.558847 1.80159e-25)
(1.0307 0.558545 3.93042e-22)
(1.01372 0.56334 -3.7051e-22)
(1.02027 0.560539 0)
(0.997819 0.569673 -5.79987e-24)
(1.00639 0.566661 0)
(0.977216 0.57133 0)
(0.988181 0.571641 0)
(0.95154 0.558423 -4.75972e-25)
(0.965004 0.567444 0)
(0.921933 0.518388 8.31651e-24)
(0.937088 0.542586 0)
(0.891607 0.439766 0)
(0.906584 0.484378 0)
(0.865236 0.318105 0)
(0.877621 0.384147 0)
(0.847136 0.159927 0)
(0.854946 0.242704 0)
(0.839806 -0.0179362 1.15983e-23)
(0.842045 0.0720776 0)
(0.843903 -0.192665 0)
(0.840456 -0.107203 0)
(0.858254 -0.34195 0)
(0.849954 -0.271665 0)
(0.880251 -0.449949 0)
(0.868469 -0.401766 0)
(0.907375 -0.510267 0)
(0.893335 -0.485949 0)
(0.93669 -0.530749 6.33526e-24)
(0.921991 -0.524343 0)
(0.96451 -0.532495 0)
(0.950996 -0.532454 0)
(0.988598 -0.535264 2.95029e-25)
(0.977049 -0.533038 0)
(1.00915 -0.545758 0)
(0.999253 -0.539515 0)
(1.0277 -0.563709 3.43815e-22)
(1.01864 -0.553868 0)
(1.04525 -0.588083 -2.75756e-21)
(1.03659 -0.575109 1.77249e-22)
(1.04934 -0.623162 -3.63972e-21)
(1.06171 -0.617579 3.35996e-21)
(1.05361 -0.602344 -3.88946e-22)
(1.03444 0.567589 -3.78376e-23)
(0.98456 -0.608219 0)
(0.975992 -0.598178 -9.13304e-23)
(1.00877 -0.612038 -1.63997e-21)
(1.02536 -0.614286 -8.41704e-22)
(0.969626 0.525107 -1.60649e-21)
(1.06939 -0.633195 5.76019e-23)
(1.07459 -0.609168 3.36073e-21)
(1.08478 -0.625532 -7.21427e-21)
(0.993802 -0.616139 -1.73046e-21)
(1.0374 -0.6263 -1.68314e-21)
(1.05432 -0.63795 3.52295e-21)
(0.9732 -0.61247 0)
(1.0541 0.559865 -1.65397e-21)
(1.04724 0.565667 -2.71041e-22)
(1.06017 0.56163 -1.83382e-21)
(0.962567 -0.60063 1.4685e-21)
(1.01685 -0.614152 8.50681e-22)
(0.981505 -0.582865 6.23531e-22)
(0.953152 -0.586943 0)
(0.968336 -0.586182 -1.96833e-21)
(1.00314 -0.573008 2.972e-22)
(0.99305 -0.578194 -3.00338e-22)
(1.0201 -0.563518 3.15177e-22)
(1.01209 -0.567839 -6.20387e-22)
(1.034 -0.559364 0)
(1.02734 -0.560479 0)
(1.0461 -0.563262 0)
(1.04021 -0.560382 0)
(1.05808 -0.569793 -6.96736e-24)
(1.05201 -0.566982 0)
(1.07079 -0.562372 0)
(1.06437 -0.569154 0)
(1.08361 -0.520317 0)
(1.07727 -0.546777 0)
(1.09506 -0.429888 0)
(1.08962 -0.481532 0)
(1.10362 -0.289633 0)
(1.09977 -0.365578 0)
(1.10849 -0.110172 -7.39357e-24)
(1.10653 -0.203746 0)
(1.10971 0.0888936 0)
(1.10952 -0.0116266 0)
(1.10828 0.2821 0)
(1.10924 0.187959 0)
(1.10539 0.44173 0)
(1.10699 0.367692 0)
(1.10093 0.547276 0)
(1.10342 0.501887 0)
(1.09373 0.596196 1.21225e-25)
(1.09774 0.57818 0)
(1.08306 0.602978 -1.25491e-25)
(1.08883 0.603577 0)
(1.06925 0.587625 3.3184e-24)
(1.0765 0.59692 0)
(1.05302 0.56568 0)
(1.06139 0.576804 0)
(1.03489 0.545429 0)
(1.04416 0.555081 0)
(1.01476 0.530233 6.91541e-22)
(1.02498 0.537229 0)
(0.991914 0.520632 -1.76487e-21)
(1.00356 0.525279 3.37557e-22)
(0.965278 0.51212 2.88076e-21)
(0.978992 0.516999 -8.88562e-23)
(0.972149 0.542389 -4.38012e-22)
(0.956427 0.519258 4.10326e-22)
(0.963581 0.531545 0)
(0.99424 0.558656 0)
(0.982403 0.551463 0)
(1.02075 0.56619 -2.45512e-22)
(1.00704 0.563534 9.84371e-22)
(1.05068 0.565041 1.25174e-21)
(1.03542 0.566727 -1.96693e-21)
(1.04226 0.55478 -5.89082e-24)
(1.04845 0.557187 -1.76386e-21)
(1.02952 0.552813 2.31904e-25)
(1.03614 0.553205 0)
(1.01413 0.555629 -1.10012e-23)
(1.02222 0.553733 0)
(0.995139 0.559854 3.38701e-25)
(1.00518 0.557907 0)
(0.971625 0.559059 0)
(0.984019 0.560619 0)
(0.943229 0.543821 -5.18583e-25)
(0.958019 0.553943 0)
(0.911138 0.50253 0)
(0.927499 0.527157 0)
(0.878552 0.424713 0)
(0.894635 0.468626 0)
(0.850096 0.306251 0)
(0.863503 0.370414 0)
(0.830205 0.153102 0)
(0.838854 0.233194 0)
(0.821815 -0.0188597 0)
(0.824455 0.068156 0)
(0.825891 -0.18773 -9.34933e-24)
(0.822334 -0.105106 0)
(0.841226 -0.33228 0)
(0.832308 -0.264186 0)
(0.865259 -0.43689 -7.66652e-24)
(0.852326 -0.390246 0)
(0.895361 -0.495144 0)
(0.87974 -0.471669 0)
(0.928072 -0.515425 -6.33526e-24)
(0.911666 -0.508855 0)
(0.959215 -0.518699 0)
(0.944061 -0.517761 0)
(0.986427 -0.523364 3.42121e-25)
(0.973341 -0.520203 0)
(1.01024 -0.535311 0)
(0.998649 -0.528428 0)
(1.03229 -0.553966 -2.09137e-24)
(1.02142 -0.543844 0)
(1.05369 -0.578832 -1.11183e-21)
(1.04305 -0.565701 -5.13648e-22)
(1.06417 -0.593503 9.46845e-22)
(1.07623 -0.648279 4.21618e-21)
(1.09461 -0.641535 3.98575e-21)
(0.950777 0.505713 0)
(0.946838 -0.599913 -4.71605e-21)
(0.935789 -0.584068 1.50795e-21)
(1.00392 -0.621833 1.73118e-21)
(1.0259 -0.627115 4.1773e-22)
(1.06624 0.561068 -1.91462e-21)
(0.984698 -0.622389 0)
(1.03966 -0.639965 0)
(0.959529 -0.613785 -1.80479e-21)
(1.05824 -0.651723 0)
(1.10357 -0.655888 0)
(1.08196 -0.66117 -4.264e-21)
(0.928495 -0.59296 5.95751e-21)
(0.962271 0.497939 -5.31889e-21)
(0.946513 0.491222 1.65665e-21)
(0.915867 -0.574746 -1.06153e-22)
(1.01468 -0.625558 3.97796e-22)
(0.944453 -0.57095 -1.16693e-21)
(0.904065 -0.554626 -6.53753e-22)
(0.925583 -0.565963 1.19688e-21)
(0.976269 -0.570393 2.25501e-24)
(0.961373 -0.57206 -2.71392e-22)
(1.00141 -0.562864 -1.94026e-24)
(0.98956 -0.567021 2.63458e-22)
(1.022 -0.55495 0)
(1.01217 -0.558571 0)
(1.0397 -0.551908 0)
(1.03111 -0.55255 0)
(1.05609 -0.556272 0)
(1.04798 -0.553254 0)
(1.07259 -0.562447 6.65539e-24)
(1.06424 -0.559898 0)
(1.09017 -0.5546 0)
(1.08126 -0.561534 0)
(1.10805 -0.512908 0)
(1.09919 -0.539062 0)
(1.12428 -0.423771 0)
(1.11651 -0.474667 0)
(1.13685 -0.285492 -6.47605e-24)
(1.13113 -0.360378 0)
(1.14442 -0.108371 7.00984e-24)
(1.14133 -0.200767 0)
(1.14648 0.0885495 0)
(1.14611 -0.0109661 0)
(1.14392 0.280351 0)
(1.14569 0.186812 0)
(1.13808 0.439043 0)
(1.14136 0.365468 0)
(1.12919 0.543324 0)
(1.13405 0.498641 0)
(1.11672 0.590502 1.72088e-25)
(1.12343 0.57339 0)
(1.10068 0.595583 -1.65849e-25)
(1.10911 0.596991 0)
(1.08198 0.57896 -3.02341e-24)
(1.0916 0.588834 0)
(1.06155 0.556119 0)
(1.07194 0.567657 0)
(1.03983 0.535069 0)
(1.05084 0.545112 0)
(1.01654 0.518802 -4.9495e-24)
(1.02839 0.526301 0)
(0.990988 0.507719 -1.96681e-23)
(1.00388 0.512986 0)
(0.976902 0.503624 -5.938e-22)
(0.942506 0.510607 -4.07329e-22)
(0.930262 0.481221 3.84587e-22)
(0.935605 0.49648 0)
(0.961525 0.534884 0)
(0.951211 0.523488 -4.50498e-22)
(0.987608 0.552358 0)
(0.973639 0.544489 0)
(1.01913 0.561137 1.57549e-21)
(1.00287 0.557904 0)
(1.05389 0.560645 2.38141e-21)
(1.03614 0.562091 -1.20248e-21)
(1.0719 0.556875 -3.31341e-22)
(1.06537 0.553627 -2.0298e-22)
(1.08166 0.555009 6.04949e-23)
(1.07334 0.555452 1.74969e-21)
(1.04989 0.548079 2.54904e-25)
(1.05771 0.550833 2.00955e-22)
(1.03377 0.545102 2.80807e-25)
(1.04212 0.545995 0)
(1.01537 0.546421 3.21342e-25)
(1.02494 0.545346 0)
(0.993595 0.548648 3.78115e-25)
(1.00498 0.54775 0)
(0.967528 0.54549 0)
(0.981157 0.548243 0)
(0.936858 0.528055 -5.50719e-25)
(0.952745 0.539204 0)
(0.902764 0.48564 -6.40327e-24)
(0.920092 0.510632 0)
(0.868372 0.408711 0)
(0.885341 0.45189 0)
(0.838211 0.293515 0)
(0.85246 0.355759 0)
(0.816823 0.145599 0)
(0.826176 0.222877 0)
(0.807468 -0.0200338 -8.61227e-24)
(0.810525 0.0637465 0)
(0.811356 -0.182627 9.34933e-24)
(0.807775 -0.103056 0)
(0.827334 -0.321966 0)
(0.817985 -0.256314 0)
(0.853006 -0.422666 7.66652e-24)
(0.839123 -0.377813 0)
(0.885651 -0.478532 0)
(0.868674 -0.456023 0)
(0.921271 -0.498542 -5.307e-24)
(0.903405 -0.491821 0)
(0.95518 -0.503428 0)
(0.938677 -0.501532 0)
(0.98501 -0.510014 9.43153e-24)
(0.970612 -0.505954 0)
(1.01161 -0.523121 0)
(0.998589 -0.515772 0)
(1.03685 -0.542176 4.63631e-24)
(1.02431 -0.531919 0)
(1.06185 -0.567225 -3.71823e-22)
(1.04929 -0.553929 -3.32357e-22)
(1.08732 -0.597902 -1.41796e-21)
(1.07448 -0.582041 2.24438e-21)
(1.11276 -0.631208 -3.60814e-21)
(1.10012 -0.614561 3.58765e-21)
(1.11117 -0.666418 -4.8409e-21)
(1.13642 -0.657787 0)
(1.12493 -0.646431 0)
(0.892744 -0.559478 3.92078e-21)
(0.880149 -0.537776 -2.24964e-21)
(0.997298 -0.630385 -1.73064e-21)
(1.02514 -0.639439 0)
(1.14538 -0.663695 0)
(1.11674 -0.670386 5.08759e-21)
(0.973395 -0.626076 -1.31367e-22)
(1.0404 -0.652292 5.1628e-22)
(0.943195 -0.609911 -1.76288e-21)
(1.06054 -0.662832 6.86008e-23)
(0.913916 0.467448 -1.10942e-21)
(0.92675 0.465581 -7.92941e-23)
(0.909408 0.451193 0)
(0.907305 -0.579721 -1.77268e-21)
(1.08579 -0.669686 -3.04813e-22)
(0.867323 -0.533913 1.77378e-21)
(1.08957 0.551083 -6.1011e-23)
(0.853589 -0.509707 0)
(1.01087 -0.636194 -2.9863e-23)
(0.894048 -0.532882 -7.83874e-22)
(0.841562 -0.483724 0)
(0.868759 -0.513496 1.59549e-21)
(0.936943 -0.552979 2.42379e-22)
(0.916536 -0.545849 -2.47606e-22)
(0.971867 -0.555852 0)
(0.955362 -0.555905 0)
(1.0003 -0.550789 1.91986e-24)
(0.986791 -0.553814 0)
(1.02423 -0.544611 1.8455e-24)
(1.01271 -0.547466 0)
(1.04546 -0.542612 0)
(1.03508 -0.542831 0)
(1.06568 -0.54714 0)
(1.0556 -0.544147 0)
(1.08643 -0.552783 -2.12155e-25)
(1.0759 -0.550556 0)
(1.10858 -0.544413 0)
(1.09734 -0.551546 0)
(1.13122 -0.503054 0)
(1.11997 -0.5289 0)
(1.15204 -0.41542 0)
(1.14202 -0.465421 0)
(1.16859 -0.279659 6.47605e-24)
(1.161 -0.35318 0)
(1.17884 -0.105665 -7.00984e-24)
(1.1746 -0.196457 0)
(1.18187 0.0881976 -6.82043e-24)
(1.18125 -0.00985142 0)
(1.17845 0.277656 0)
(1.18087 0.185189 0)
(1.16997 0.434506 0)
(1.17479 0.361833 0)
(1.15689 0.536854 0)
(1.16401 0.493165 0)
(1.13929 0.582054 2.18217e-25)
(1.14863 0.565907 0)
(1.11805 0.585595 -2.0192e-25)
(1.12904 0.587694 0)
(1.09464 0.568053 3.02341e-24)
(1.10653 0.578317 0)
(1.07023 0.544675 4.91206e-24)
(1.08252 0.556456 0)
(1.04517 0.523105 0)
(1.05778 0.533428 0)
(1.01906 0.505974 4.18036e-24)
(1.03227 0.513945 0)
(0.991041 0.493583 -2.76445e-22)
(1.00519 0.499391 0)
(0.960448 0.482784 3.64467e-21)
(0.975848 0.488832 7.46716e-22)
(0.943813 0.475931 -1.23136e-21)
(0.92831 0.4973 0)
(0.920156 0.482845 0)
(0.950359 0.52236 0)
(0.938385 0.510522 4.46891e-22)
(0.980496 0.540881 0)
(0.964406 0.532473 0)
(1.01677 0.550857 -8.26273e-22)
(0.998067 0.547106 0)
(1.05689 0.551244 -8.18669e-22)
(1.03657 0.552256 7.01169e-22)
(1.09668 0.546927 3.6588e-21)
(1.107 0.542927 -2.00194e-21)
(1.09796 0.541987 2.17756e-21)
(1.0775 0.547688 8.23986e-22)
(1.07673 0.545511 -5.95445e-24)
(1.08658 0.547268 -9.10429e-22)
(1.05792 0.53948 1.08174e-23)
(1.06731 0.542558 0)
(1.03856 0.535817 3.23119e-25)
(1.04843 0.537137 0)
(1.01737 0.535832 3.58312e-25)
(1.02829 0.53549 0)
(0.99313 0.536199 5.08347e-24)
(1.00571 0.536292 0)
(0.964876 0.530816 0)
(0.979553 0.534696 0)
(0.93234 0.511332 -5.72079e-25)
(0.949117 0.523432 0)
(0.896677 0.46792 6.40327e-24)
(0.914757 0.493218 0)
(0.860891 0.391939 -6.34556e-24)
(0.878545 0.434361 0)
(0.829395 0.280048 0)
(0.844308 0.340349 0)
(0.806799 0.137515 0)
(0.816727 0.211884 0)
(0.796604 -0.0214839 1.01101e-24)
(0.800016 0.0588931 0)
(0.800164 -0.1775 0)
(0.796686 -0.101151 0)
(0.816494 -0.311188 0)
(0.806865 -0.248214 0)
(0.843467 -0.407476 0)
(0.828808 -0.364661 0)
(0.87825 -0.460633 0)
(0.86013 -0.439212 0)
(0.916267 -0.480374 5.307e-24)
(0.897209 -0.473469 0)
(0.95241 -0.486956 0)
(0.934815 -0.484067 0)
(0.984429 -0.495477 -8.63834e-24)
(0.968919 -0.490525 0)
(1.01349 -0.509625 0)
(0.999195 -0.50188 0)
(1.04155 -0.528918 -4.63691e-24)
(1.02755 -0.518622 0)
(1.06993 -0.553768 0)
(1.05565 -0.54061 0)
(1.09942 -0.58402 -1.77662e-22)
(1.08447 -0.568311 1.7737e-22)
(1.13019 -0.617227 6.21255e-22)
(1.11473 -0.600591 -8.29339e-22)
(1.16028 -0.645209 -2.10814e-21)
(1.14536 -0.632602 2.12378e-21)
(1.15227 -0.660034 -6.31369e-21)
(1.1842 -0.651754 6.09733e-21)
(1.17298 -0.652916 0)
(0.825432 -0.471397 3.35941e-21)
(0.812975 -0.44419 0)
(1.11905 -0.664511 0)
(1.15524 -0.644627 5.88173e-21)
(1.19178 -0.639258 -5.30332e-21)
(0.988684 -0.636613 9.78178e-22)
(1.02265 -0.65006 0)
(0.959635 -0.625197 2.83495e-21)
(1.03918 -0.661483 -5.11959e-22)
(0.897578 0.447914 -1.0892e-21)
(0.892428 0.43157 1.4707e-21)
(0.924244 -0.599548 0)
(1.06068 -0.669035 0)
(0.883466 -0.557229 -2.03082e-21)
(1.08742 -0.67101 3.36895e-22)
(0.840332 -0.498021 -3.28039e-21)
(1.11737 0.53423 -2.19998e-21)
(0.783746 -0.394164 4.23119e-21)
(0.79681 -0.423042 1.92109e-22)
(1.11757 -0.645313 7.38144e-21)
(1.15425 -0.613614 8.3091e-21)
(1.19552 -0.612091 -7.6627e-21)
(0.755029 -0.335768 -1.5805e-21)
(0.774155 -0.36677 -1.26511e-21)
(0.924647 0.448954 -2.31228e-21)
(0.906794 0.434666 1.4581e-22)
(0.744932 -0.307267 1.25856e-21)
(1.00519 -0.644834 4.49691e-22)
(0.832087 -0.457269 -9.30092e-22)
(0.803117 -0.417212 1.45314e-21)
(0.885475 -0.5094 2.35183e-22)
(0.859509 -0.488334 -1.00896e-21)
(0.930758 -0.533226 0)
(0.909109 -0.524217 0)
(0.968405 -0.539513 1.32517e-24)
(0.950502 -0.537945 0)
(0.999764 -0.537064 -1.41917e-24)
(0.984757 -0.5389 0)
(1.02674 -0.532657 -1.8455e-24)
(1.01368 -0.534741 0)
(1.05117 -0.531556 0)
(1.03917 -0.531437 0)
(1.07482 -0.53604 0)
(1.06298 -0.533181 0)
(1.09943 -0.540983 -2.42515e-25)
(1.08692 -0.539154 0)
(1.1258 -0.531971 0)
(1.11242 -0.539358 0)
(1.15284 -0.490911 0)
(1.13938 -0.516447 0)
(1.178 -0.40495 0)
(1.16584 -0.453939 0)
(1.19829 -0.272155 0)
(1.18894 -0.344048 0)
(1.21113 -0.102022 0)
(1.20577 -0.190807 0)
(1.21521 0.0879336 6.82043e-24)
(1.21426 -0.00820928 0)
(1.21124 0.274169 0)
(1.21414 0.183213 0)
(1.20048 0.428339 0)
(1.20666 0.356976 0)
(1.18351 0.528113 0)
(1.19275 0.4857 0)
(1.16105 0.571077 2.58711e-25)
(1.17289 0.55597 0)
(1.13485 0.573196 -2.33092e-25)
(1.14829 0.57589 0)