/*--------------------------------*- C++ -*----------------------------------*\
  =========                 |
  \\      /  F ield         | OpenFOAM: The Open Source CFD Toolbox
   \\    /   O peration     | Website:  https://openfoam.org
    \\  /    A nd           | Version:  10
     \\/     M anipulation  |
\*---------------------------------------------------------------------------*/
FoamFile
{
    format      ascii;
    class       surfaceScalarField;
    location    "19.5";
    object      phi;
}
// * * * * * * * * * * * * * * * * * * * * * * * * * * * * * * * * * * * * * //

dimensions      [0 3 -1 0 0 0 0];

internalField   nonuniform List<scalar> 
57492
(
-0.0287091
0.00244591
0.00627707
0.0199861
0.00472143
-0.0246115
-0.00881905
-0.00311127
0.010125
0.0298124
-0.0368261
0.0989746
0.0723299
-0.0164023
-0.154902
-0.209888
0.0849609
0.223902
0.0519993
-0.0509493
-0.0265144
0.0254643
-0.0950099
0.0230135
-0.0137503
0.0857466
0.0172103
-0.0602208
0.0270086
-0.0993448
0.0942763
-0.0219401
0.0240322
0.0908873
-0.0879109
0.00735512
0.0121782
-0.0277028
0.0081695
0.000509374
0.00650194
0.000343806
-0.00333182
0.00230529
0.0015359
0.00298023
0.0058661
0.101412
-0.0857756
-0.0378291
0.0221926
0.00212724
0.0763837
0.0229012
-0.00596118
0.0168679
0.0878714
-0.0987781
-0.0158781
0.0870226
-0.0771057
0.0132661
-0.0289032
0.0156371
-0.0830788
0.0549881
0.0413568
-0.11924
0.0127383
0.0871355
0.0193666
0.0225654
-0.120453
-0.0213526
0.00598599
0.00171223
-0.0131547
0.00545649
0.00937754
-0.00515962
0.00176808
-0.131743
0.14287
0.0103616
-0.0214882
-0.166358
0.0718765
-0.0372623
-0.055523
0.0174465
0.0300358
0.00804063
-0.0389102
-0.0193216
0.00270885
-0.025098
-0.0666713
0.0846145
0.00715474
-0.0313345
0.0112076
-0.00497109
0.0598066
-0.0379288
-0.036495
0.0146172
-0.0478229
0.0396039
0.0680256
-0.0723619
-0.125155
0.0729771
0.12454
-0.125278
-0.0404997
0.0934159
-0.0680335
-0.00952996
0.0775635
-0.0174168
-0.0506167
-0.0885741
0.106073
-0.034916
0.0175842
-0.0605208
-0.0456376
-0.0491788
0.0721923
-0.0330325
-0.113173
0.0549375
0.0582353
-0.204533
0.0913604
0.0875075
0.00852014
-0.0158709
-0.0801567
0.0617026
-0.0260513
0.0518562
0.00933138
0.0937617
-0.0945729
0.0946837
0.0153202
-0.0927936
0.0926466
-0.0117132
0.103753
-0.0361457
-0.0761028
0.00849502
0.117218
0.00185587
0.0778918
-0.0431712
0.057926
0.0285224
0.135116
-0.102513
-0.011137
0.00904038
0.10461
-0.105789
-0.00390375
0.00717997
0.0177698
0.0964396
-0.0952717
-0.0189376
0.0107962
-0.0923713
-0.0871945
0.111941
0.108539
-0.133285
-0.000893722
0.119579
-0.20588
-0.00248801
-0.00168437
0.000953409
0.00321897
0.00131817
-0.00150089
0.00574469
0.00623767
-0.0106642
0.00242469
0.00163563
0.00155675
-0.000603341
-9.17643e-05
0.00164851
0.236578
0.0830971
-0.163401
-0.156274
0.0711287
-0.0510234
0.216472
-0.203194
0.0685216
0.205802
0.0356493
-0.155747
0.024326
-0.0786645
0.0639269
-0.00958831
0.0685964
-0.0797426
0.0354722
0.00419689
-0.0027994
0.00104842
0.00809421
0.00237976
0.0226097
0.00547063
-0.0869524
0.156292
0.0635845
-0.132925
0.0878305
-0.106187
0.0438834
0.142853
-0.0304442
0.381139
-0.043718
-0.102721
-0.234699
0.0867673
0.206981
0.0873903
0.0482905
-0.148082
0.186559
0.0063737
-0.00948497
0.0164987
0.0528745
0.081138
-0.0385276
-0.0954848
0.0721754
0.0105114
0.0160597
-0.00594336
-0.0101164
0.0217297
-0.00566998
-0.20316
0.0996042
-0.0783373
0.181893
-0.17275
-0.0974841
0.0670736
-0.0982794
0.0964436
-0.170914
0.117001
-0.00270166
-0.0582588
-0.0560406
-0.0517696
0.131341
0.0374294
-0.0638558
-0.0076357
0.0197219
-0.0564754
-0.010082
-0.0219917
-0.0927424
-0.1126
0.0184332
0.0445126
0.0496546
0.021664
-0.0696449
-0.0646195
0.0342599
0.0154623
-0.0280582
0.0431377
0.00955544
0.0767568
0.0108935
-0.0585452
0.0365535
0.00748401
-0.0660292
0.00953774
0.012192
0.117898
0.0764525
-0.00868241
0.0422184
-0.134209
-0.0154286
0.0956964
-0.0672154
-0.0130525
-0.0229887
0.100856
-0.0932962
0.0803557
0.0519783
-0.0192499
-0.113084
-0.0211501
0.00617967
0.0953261
0.107
-0.0761722
-0.0345455
-0.0729192
0.0221059
0.0853588
-0.0346781
0.0846127
-0.08448
0.00315577
-0.110753
0.00466311
0.00713148
0.000511859
-0.0241116
0.0179899
0.0108431
0.0122517
-0.00490389
-0.0314594
-0.0244953
0.0121355
-0.0144255
0.0300418
0.00695861
-0.022575
0.0539882
-0.0594144
-0.00899927
-0.0315967
0.064109
0.0214759
-0.0164675
0.0149127
-0.173521
0.0967893
0.176336
0.186284
-0.0672832
-0.216485
-0.0833121
0.0960747
-0.0056478
-0.0496474
-0.011376
-0.0376917
0.00070933
-0.00307345
-0.0185055
0.0137909
0.00778801
-0.0117225
0.0016267
0.00702237
-0.011047
-0.019181
-0.0164917
-0.025412
0.00421205
-0.0423617
-0.0237774
-0.0487473
-0.0513555
0.0621832
0.0379196
0.0033213
0.0222733
-0.0743419
-0.0684837
0.0204495
-0.114252
0.0390799
-0.0079067
-0.107576
0.00520993
-0.0118861
-0.00514238
-0.0858995
0.0791228
0.0119191
-0.0003877
-0.0890347
0.08428
-0.00963801
-0.280795
-0.0712024
0.0838287
0.0771957
-0.109318
0.114081
-0.0175378
-0.0200713
0.0355336
-0.015773
-0.00429829
0.0222947
-0.00471522
0.100263
-0.0635486
-0.0587782
0.0220635
0.0910783
0.0185163
0.139031
0.00462484
-0.14455
0.0471984
0.105523
-0.0136899
0.0177672
-0.0783667
0.107798
-0.00437499
-0.011398
0.0381856
-0.123444
-0.116134
0.0787605
0.149024
0.0598715
-0.00356053
-0.0624022
0.00609126
0.0187657
-0.00671712
-0.0764044
0.013529
0.102479
0.0099142
-0.0675529
-0.0115343
0.00217145
0.0156167
0.0332633
-0.0414216
-0.00745843
0.0178144
-0.00124866
-0.000949033
0.0687285
0.0466258
-0.0975399
-0.050285
0.0873864
-0.0275637
0.201871
-0.174055
-0.0781014
-0.00324828
-0.0950636
0.111841
-0.206821
-0.0105597
-0.156965
-0.0827924
0.0329357
0.0807474
0.0669235
-0.134933
0.052517
0.125895
-0.0976649
0.0494091
-0.0833258
0.0481259
-0.0142092
0.053405
-0.0801033
0.0761074
0.116486
0.0375726
0.107688
-0.00670744
-0.107632
0.00665173
0.118209
-0.0158018
0.00528084
0.120618
-0.0158588
-0.00186735
-0.102892
0.0860458
-0.0262959
0.0608682
0.102606
-0.0256236
0.0195951
-0.096577
0.0222358
0.104559
-0.024189
-0.0935677
-0.0322111
0.100155
0.017874
-0.0893359
-0.0342544
0.0874021
-0.0458013
-0.0801423
0.0397033
0.0862404
-0.0479868
-0.0818211
0.0840066
0.0445811
0.0782792
-0.0265768
-0.0962835
0.077275
-0.0806808
-0.0517712
0.0516441
0.0774021
-0.0412339
0.0677419
-0.102425
0.0908774
-0.0150292
-0.132891
0.0130063
0.13543
-0.0155455
0.0361122
0.0190684
0.0737199
-0.0544012
-0.0383872
0.00768826
0.093197
-0.0818168
0.0119196
-0.0259334
-0.0104815
-0.0667561
-0.0969873
0.0588042
-0.00808194
0.00683327
0.000177361
-0.0082593
-0.0129236
-0.113596
0.0833484
-0.0946314
-0.0112228
0.0929306
0.00809148
-0.098878
-0.00384484
-0.0600623
0.0217688
0.0567538
-0.0184603
0.0615743
-0.0670231
-0.0546134
-0.009745
0.0930881
2.96919e-05
0.00225251
0.00484927
0.00219006
-0.00216037
0.00444258
0.00164473
-0.000128821
0.000908783
-0.000903471
0.0025482
-0.00103229
0.00436906
-0.00122151
0.00622999
-0.0050816
0.00945066
-0.00630311
0.0102124
-0.00148819
-0.0251917
-0.00431916
0.0145315
-0.00580736
0.0292369
0.0798434
-0.102901
0.0380954
-0.109101
0.100243
0.111949
0.00599015
-0.03564
-0.0624438
0.0355742
0.0625095
-0.0133956
0.0648511
-0.0870954
0.00996185
-0.0858012
0.0771701
-0.0773753
-0.00948461
0.00968975
0.0779914
0.0041311
-0.00495238
-0.0220292
-0.0770042
0.0216581
0.0795299
0.0157172
-0.0172557
0.0823636
0.0286436
-0.0314773
0.0384909
0.0857724
-0.0418997
0.0789614
-0.0768314
0.0363609
0.042005
0.0918146
-0.0480472
0.0774427
0.0435237
-0.072836
0.0246482
-0.07151
0.0143911
-0.0706232
0.00324431
-0.0717657
-0.00834205
-0.070728
-0.023067
0.0498139
0.0972716
-0.0552709
0.0747321
0.0525246
-0.0336847
-0.0763149
0.0329955
-0.0721293
-0.0322834
-0.0438665
-0.080463
0.0480146
0.0598671
0.0989055
-0.061501
0.0766549
0.0579442
-0.0754677
-0.0405281
0.0999043
0.0642643
-0.0652632
0.0669088
0.101404
-0.0684088
0.0781331
0.0627861
0.0799176
0.0651242
-0.0520604
-0.0808215
0.0524188
-0.0764754
-0.0510526
0.0687429
0.102111
-0.0694491
0.081211
0.0674495
-0.059269
-0.081623
0.0600705
-0.0780973
-0.0576471
0.0692554
0.103324
-0.0704692
0.0827985
0.0676679
-0.0647291
-0.0822458
0.0653518
-0.0794428
-0.0633836
0.0695758
0.103649
-0.0699
0.0838268
0.0685476
-0.0687377
-0.0832934
0.0697853
-0.0812684
-0.0669121
0.0691589
0.104443
-0.0699537
0.0851735
0.0678122
-0.0713821
-0.0840089
0.0720977
-0.082569
-0.0700815
0.0691198
0.104249
-0.0689251
0.0860003
0.068293
-0.0728614
-0.0851749
0.0740274
-0.0839369
-0.0714935
0.0687779
0.104426
-0.0689554
0.0872863
0.0674919
-0.0737293
-0.0838632
0.0724176
-0.08393
-0.0737362
0.0692686
0.10334
-0.0681821
0.0870947
0.0694602
-0.0745608
-0.0841497
0.0748474
-0.0849727
-0.0735181
0.0699567
0.102035
-0.0686526
0.0867357
0.0703157
-0.0744958
-0.0830019
0.073348
-0.0840653
-0.0754032
0.0750244
0.0952582
-0.0682472
0.0897822
0.0719779
-0.07487
-0.0832168
0.0750849
-0.08441
-0.0745253
0.0756639
0.0893933
-0.0697989
0.091406
0.0740401
-0.0756838
0.0749848
-0.0825178
-0.0854912
-0.0746026
0.0731732
-0.0723397
0.0885598
0.0913931
0.0731861
-0.0831363
0.0848856
0.0733355
-0.0819721
0.0738206
-0.0759114
0.076385
-0.0829914
-0.0770666
-0.0843361
-0.0845666
0.0841492
0.0752648
0.073667
-0.0818809
0.0816127
0.0742956
0.0746859
-0.0813108
0.0809875
0.0701085
0.0723996
-0.0806631
0.0804224
0.0603112
0.0656762
-0.0802468
0.0846518
0.0436096
0.0525945
-0.0849678
0.084076
0.0225499
0.0326795
-0.0875556
0.0875723
-0.00496906
0.00621018
-0.0851126
0.0844343
-0.030799
-0.014796
-0.0831457
0.0837587
-0.0486602
-0.0406111
-0.0842676
0.0847183
-0.0619517
-0.0557798
-0.0851864
0.0856292
-0.0688516
-0.0657312
-0.0860058
0.0862889
-0.0707523
-0.0698258
-0.0864599
0.0865073
-0.0700011
-0.070071
-0.0864276
0.0862239
-0.0687516
-0.0688455
-0.0858851
0.0854095
-0.068177
-0.0678433
-0.0855442
0.0852012
-0.0694559
-0.0683819
0.083261
-0.0703995
0.0733636
-0.0712198
0.0864161
0.0733847
0.091372
0.0925908
-0.0894062
0.0687933
-0.0943472
0.0950211
0.0725121
0.0722837
0.0884386
-0.0862193
0.0672409
0.0693481
0.0851297
-0.0838726
0.0670359
0.0664024
0.0824579
-0.0808515
0.0669412
0.0663975
0.0790859
-0.0771562
0.0655198
0.0659024
0.0751339
-0.0730407
0.0606929
0.0631019
0.0709986
-0.0690928
0.0506188
0.0559021
0.0685947
-0.0669926
0.0347587
0.0430256
0.0668456
-0.0652267
0.0127721
0.0245012
0.06425
-0.0636867
-0.00890529
0.00226763
0.0650129
-0.0662754
-0.0310209
-0.0217409
0.0657191
-0.067277
-0.0494947
-0.0410844
0.0691338
-0.0711568
-0.0613605
-0.0557903
0.0731745
-0.0751009
-0.0681551
-0.0648944
0.0769013
-0.0793759
-0.0712616
-0.0696931
0.0813255
-0.0842999
-0.0724287
-0.0715685
0.0861021
-0.0858189
-0.0748858
-0.0727231
-0.0872514
-0.075634
-0.0805661
0.074979
0.0833676
-0.0713264
0.0713304
0.0970754
-0.0780659
0.0784811
-0.0847513
-0.077173
-0.0881444
-0.0777449
0.0758565
-0.0786777
-0.0822551
-0.0825643
0.0826152
0.0732846
0.0813741
-0.0798472
0.0734521
0.0726304
-0.0828732
0.0836556
0.0744824
0.073409
-0.0841355
0.0844736
0.0739574
0.074206
-0.0847497
0.0850137
0.0698446
0.0721236
-0.0852714
0.0855763
0.0600063
0.0654184
-0.0859145
0.0862612
0.0432629
0.0522562
-0.086678
0.0888783
0.0203496
0.0322627
-0.087579
0.0879706
-0.00536068
0.00750948
-0.0909575
0.0897514
-0.029593
-0.0177829
-0.0888574
0.089012
-0.0488148
-0.0397171
-0.0890363
0.0889733
-0.0618887
-0.0558041
-0.0888679
0.0887346
-0.0687183
-0.0656258
-0.0885614
0.0883277
-0.0705186
-0.0696525
-0.0880201
0.0876183
-0.0695992
-0.0697634
-0.0871224
0.086514
-0.0681433
-0.0683496
-0.0857973
0.0849622
-0.0673419
-0.0671266
-0.0838337
0.0820958
-0.067718
-0.0672534
-0.0718572
0.0727244
0.0855489
-0.0698239
0.0813343
-0.0798564
0.078196
-0.0696661
-0.0681601
0.0969585
-0.0953526
0.0709062
0.0979318
0.070357
-0.0708683
0.072319
0.0956247
0.0932281
0.0936734
-0.0907259
0.0658458
0.0706046
0.0879086
-0.0865179
0.0658503
0.0665308
0.0850533
-0.083426
0.0654086
0.0649378
0.0816556
-0.079682
0.0649676
0.064627
0.0775475
-0.0752398
0.0632121
0.0637678
0.0728437
-0.0703947
0.0582439
0.0607058
0.068016
-0.0657635
0.0483663
0.0535234
0.0637264
-0.0618632
0.0328956
0.0409885
0.0604177
-0.0603863
0.0127408
0.0230557
0.0597399
-0.0590687
-0.00957655
0.00162123
0.0604571
-0.0609047
-0.0305733
-0.0203525
0.0625251
-0.0645647
-0.0474551
-0.039464
0.0668211
-0.0692061
-0.0589755
-0.0535339
0.0715869
-0.0739249
-0.0658171
-0.0625136
0.0761547
-0.0782581
-0.0691582
-0.0674633
0.0802284
-0.0820096
-0.0706475
-0.0695983
0.0835842
-0.0856624
-0.0728076
-0.0711485
0.0869157
-0.0882493
-0.0758394
-0.0743807
-0.0776246
0.0736339
-0.0802179
0.0794648
-0.0873912
-0.0898057
-0.0786616
0.0775498
-0.0828364
-0.0688841
0.0772562
0.0990138
0.0712371
0.0782223
-0.0782275
-0.0786724
0.075593
-0.0749953
-0.0818339
0.0813601
-0.0869174
-0.0813799
-0.0902597
-0.0829328
0.0769412
-0.0797737
-0.0668336
0.0743292
-0.0662721
0.0706233
-0.069587
0.0945884
0.0677495
0.101888
-0.0737385
0.0774771
0.0718544
0.0766052
-0.0791757
-0.0724249
0.0694876
-0.0833362
0.0718499
-0.0580013
0.0723543
-0.0798875
0.081732
0.0716076
0.0712235
-0.0826415
0.0838443
0.0720818
0.0717209
-0.0847303
0.0857206
0.073492
0.072523
-0.0866883
0.0875894
0.0730564
0.0732383
-0.0884374
0.0892728
0.0690092
0.0712755
-0.0901022
0.0909192
0.0591893
0.0645891
-0.0917251
0.0924848
0.0425032
0.0514503
-0.0932108
0.0938277
0.0197327
0.0315367
-0.0942953
0.0946769
-0.0057422
0.00704188
-0.0948921
0.0948453
-0.0295462
-0.0179981
-0.0946521
0.0943228
-0.0484855
-0.0395239
-0.0938461
0.0932529
-0.0612955
-0.0553274
-0.092602
0.0919201
-0.0680364
-0.0649748
-0.0912211
0.0904843
-0.0697818
-0.0689535
-0.0897024
0.0888507
-0.0687475
-0.0689816
-0.0879314
0.0869199
-0.0671318
-0.0674302
-0.0858305
0.0846243
-0.0661357
-0.0660372
-0.083265
0.081071
-0.0655241
-0.0658941
-0.0668628
-0.068405
0.0675121
0.0864418
0.0679839
-0.0676096
0.0768818
0.0809133
0.0911532
0.0984545
-0.0958439
0.0682956
-0.100695
0.103152
0.0687799
0.0681167
0.0919293
-0.0912637
0.0651802
0.06669
0.0886765
-0.0869331
0.0641069
0.0639435
0.0851375
-0.0831826
0.0634537
0.0631421
0.0811008
-0.0788128
0.0626796
0.0625453
0.0763762
-0.0737611
0.060597
0.0613312
0.0710723
-0.0683323
0.0555039
0.058017
0.065675
-0.0631416
0.045833
0.0508661
0.0608591
-0.0588997
0.0309362
0.038706
0.0574127
-0.0564113
0.0117394
0.0215687
0.0559697
-0.0562179
-0.00932835
0.00117956
0.0570561
-0.0584282
-0.0292012
-0.0195142
0.0603591
-0.0626516
-0.0451627
-0.037533
0.0652038
-0.0678817
-0.0562976
-0.0509817
0.070545
-0.0731785
-0.0631835
-0.0598503
0.075714
-0.078167
-0.0667052
-0.0649279
0.0804771
-0.0826206
-0.068504
-0.0672882
0.0845711
-0.0863926
-0.0709861
-0.069198
0.0883405
-0.0893547
-0.0748251
-0.0724328
0.091286
-0.0946003
-0.0780655
-0.0767303
-0.0812905
0.0833656
-0.0923348
-0.0960965
-0.0797943
-0.079397
-0.0784512
0.0812553
-0.0827316
-0.0652349
0.0719546
0.105216
0.0656857
-0.0780447
-0.0777163
0.0826444
-0.0861962
-0.0646
-0.0669092
0.121764
0.0810623
-0.0799381
-0.0972207
0.0815949
-0.0928674
-0.0508746
0.073252
0.0707107
-0.0546934
0.0605725
-0.0810745
-0.0677146
0.0714457
0.0681188
0.0693003
-0.0637628
-0.0747084
0.0775759
0.0689869
0.0690915
-0.0794589
0.0812574
0.0698091
0.0693406
-0.0832072
0.0846649
0.0706242
0.0697711
-0.0861879
0.0878101
0.0718698
0.071
-0.0893173
0.0907834
0.0715903
0.0717311
-0.0922053
0.0936153
0.0675992
0.0698535
-0.0949781
0.0963035
0.0578639
0.0632263
-0.0975607
0.0986895
0.0413744
0.0501931
-0.0996826
0.100467
0.018948
0.0305436
-0.100969
0.10123
-0.00600405
0.00654068
-0.10121
0.100915
-0.0292515
-0.0179778
-0.100356
0.0995644
-0.0476934
-0.0389649
-0.0985921
0.097481
-0.0601844
-0.0543551
-0.0963041
0.0950896
-0.0668219
-0.063798
-0.0938745
0.0926424
-0.0685496
-0.0677384
-0.0914012
0.0901205
-0.0674669
-0.0677404
-0.0888012
0.087415
-0.0657456
-0.0661109
-0.0859642
0.0844161
-0.0645876
-0.0645865
-0.0823845
0.0810935
-0.064233
-0.0638624
-0.0784216
0.0755411
-0.063953
-0.0641909
-0.0733153
0.0695489
-0.0614685
-0.0640463
-0.0624973
0.0636173
0.0757618
0.0629603
-0.0616148
0.0682034
0.0724176
-0.0636766
0.0648947
0.0852237
0.080854
-0.0652168
0.0640527
0.0957525
0.0908311
-0.0640002
0.0621148
0.107101
0.10194
0.105999
-0.102829
0.065609
-0.110997
0.108282
0.0648299
0.0606883
0.099699
-0.097152
0.0657486
0.0649871
0.0934276
-0.0914287
0.0631813
0.0629657
0.0894637
-0.0874529
0.0620962
0.0619785
0.0853651
-0.0831436
0.0612322
0.0610543
0.080796
-0.0782573
0.060141
0.0601977
0.0755805
-0.0727335
0.05775
0.0586544
0.0698245
-0.0668684
0.0525477
0.0551081
0.06401
-0.061294
0.0431169
0.0480078
0.058875
-0.0568364
0.0288976
0.036287
0.0553077
-0.0543273
0.010759
0.02004
0.0539978
-0.0543166
-0.00900961
0.000850065
0.0553055
-0.0568964
-0.0276103
-0.0185253
0.0590105
-0.0615141
-0.042659
-0.035419
0.0642497
-0.0671127
-0.0534346
-0.048246
0.0699728
-0.0728192
-0.0603371
-0.0569902
0.0756032
-0.078343
-0.0639654
-0.0621439
0.080972
-0.0834776
-0.0659984
-0.0646592
0.0858213
-0.0880643
-0.068743
-0.0668543
0.0902655
-0.0924891
-0.0726016
-0.0702317
0.0948742
-0.0964073
-0.0765324
-0.0743452
0.100238
-0.102637
-0.0775388
-0.0759639
-0.076899
0.0791278
-0.0994495
-0.104232
-0.0753043
-0.0803073
-0.0761886
0.082362
-0.0824492
-0.0745649
-0.0677515
0.0822653
-0.0868666
0.0703358
-0.0723058
-0.0594985
0.0664087
-0.0576877
0.0582934
-0.0584763
0.107284
0.0543205
0.112255
-0.0723979
-0.0615344
0.0797
-0.0934396
-0.0928798
0.019726
-0.0606669
0.0661205
0.0652571
-0.0718838
0.0731396
-0.100705
-0.0689878
-0.107128
-0.0570894
0.056995
-0.0790197
-0.0687803
0.0715412
0.065358
0.0666404
-0.0741419
0.0761949
0.0669339
0.0664908
-0.0787551
0.0812726
0.0672915
0.0667805
-0.0835618
0.0857434
0.0684426
0.0674819
-0.0878471
0.0898959
0.069821
0.0688963
-0.0919057
0.0939054
0.0695906
0.0697212
-0.0958775
0.0978321
0.0656446
0.0678815
-0.0997113
0.101526
0.0560493
0.0613471
-0.103209
0.104712
0.0398711
0.04851
-0.105934
0.106829
0.0180531
0.0293214
-0.107374
0.107514
-0.00614403
0.00599561
-0.107294
0.106709
-0.0286662
-0.0177574
-0.105778
0.104544
-0.0464593
-0.0380345
-0.103097
0.101496
-0.058583
-0.0529083
-0.0998285
0.0981249
-0.0651184
-0.0621307
-0.0964371
0.0947518
-0.0668643
-0.0660506
-0.093089
0.0914106
-0.0657884
-0.0660776
-0.0897236
0.0879854
-0.0640075
-0.0644238
-0.0861955
0.0843036
-0.0626957
-0.0627965
-0.0822965
0.080174
-0.0621105
-0.0618553
-0.077445
0.0749087
-0.0614167
-0.061462
-0.0614434
-0.0575054
0.0571583
0.0761089
0.0563248
-0.0560196
0.0678982
0.071237
-0.0578495
0.0578854
0.0851878
0.0801628
-0.058915
0.0596105
0.095057
0.0898014
0.103074
0.107911
-0.104477
0.0621748
-0.108562
0.114661
0.0587305
0.060038
0.101404
-0.09717
0.0615148
0.0619137
0.0948417
-0.0925669
0.0609064
0.0606374
0.0903188
-0.088058
0.0598353
0.0597304
0.0857305
-0.0832906
0.0587923
0.0587268
0.0807329
-0.0780053
0.0574134
0.0576399
0.0751519
-0.0721476
0.0547457
0.055801
0.0690922
-0.0660043
0.0494598
0.0520527
0.0630303
-0.0602226
0.0403092
0.0450338
0.0577444
-0.0556727
0.0268258
0.0338089
0.0541415
-0.0532073
0.0098248
0.0185088
0.0529619
-0.0533811
-0.00859035
0.000604671
0.0544913
-0.0562202
-0.0258814
-0.0174151
0.0584484
-0.0610625
-0.0400449
-0.0331908
0.063886
-0.0668508
-0.0504698
-0.0454225
0.0698343
-0.0728374
-0.057334
-0.0540068
0.0758116
-0.0787618
-0.0610152
-0.0591697
0.0816136
-0.0843636
-0.0632484
-0.0618074
0.0869891
-0.0895624
-0.0661698
-0.0642288
0.0921153
-0.0947213
-0.0699955
-0.0676788
0.0974236
-0.100284
-0.0736715
-0.071643
0.101937
-0.105196
-0.0742797
-0.0743117
0.108895
-0.111463
-0.0664197
-0.071605
-0.0606871
0.0629249
-0.109366
-0.114476
-0.0576738
-0.0792926
-0.0714609
0.0818481
-0.082032
-0.0537194
0.0641085
0.115864
0.053118
-0.0753393
-0.0648101
-0.0753135
-0.0721796
-0.0728476
-0.0640003
0.0800838
-0.0872504
0.0748049
-0.095105
-0.0764982
0.0391349
-0.0559074
0.0414425
-0.0620333
-0.0641718
-0.0639152
0.0648966
-0.102677
-0.0503788
0.0512887
-0.110275
-0.047048
-0.117807
-0.0764642
-0.0568907
0.0624696
0.0596782
0.0537963
-0.058543
0.0438815
0.0539007
-0.0665814
0.0692998
0.0626395
0.0625286
-0.0727341
0.0760323
0.0636357
0.0630566
-0.0790898
0.0819346
0.0644468
0.0637229
-0.0845927
0.0871356
0.0658996
0.0648238
-0.0896016
0.0920551
0.0673675
0.0664303
-0.094501
0.0969691
0.0671225
0.0672753
-0.099425
0.101868
0.0632019
0.0654256
-0.104225
0.106485
0.0537894
0.0589895
-0.108552
0.110372
0.0380517
0.046443
-0.111778
0.11277
0.0170616
0.027915
-0.113292
0.113329
-0.00618122
0.00547337
-0.112899
0.112018
-0.0277853
-0.0173274
-0.110739
0.109112
-0.0448331
-0.036755
-0.107247
0.10521
-0.056546
-0.0510433
-0.103107
0.100969
-0.0629806
-0.0600274
-0.0988613
0.0967703
-0.0647733
-0.0639425
-0.0947257
0.0926877
-0.0637504
-0.0640331
-0.0906686
0.088615
-0.0619539
-0.0624047
-0.0865301
0.0843556
-0.0605212
-0.0607116
-0.0820826
0.0796528
-0.0596808
-0.0595823
-0.0770965
0.074594
-0.0589142
-0.0589056
-0.0711958
0.068169
-0.0564716
-0.0580453
-0.0646922
0.0619723
-0.0509995
-0.0542109
-0.0482066
0.0494368
0.066668
0.048435
-0.0457547
0.059292
0.0643369
-0.0499207
0.0508049
0.0752248
0.0707531
-0.0512423
0.0512618
0.0851683
0.0797253
-0.0508682
0.0500366
0.0958886
0.090195
-0.0506215
0.0498521
0.108054
0.102489
-0.048246
0.0463878
0.117722
0.113861
0.116753
-0.112508
0.0544856
-0.119316
0.120208
0.0454953
0.050555
0.108943
-0.105625
0.0588567
0.056473
0.101462
-0.0987637
0.0588169
0.0577508
0.0961954
-0.0936716
0.0583827
0.0580691
0.0912108
-0.0887298
0.0573543
0.0572696
0.0862195
-0.0836046
0.0561774
0.0562165
0.0808978
-0.0780375
0.0545532
0.054933
0.0750741
-0.0719795
0.0516511
0.0528376
0.068852
-0.0657111
0.0463189
0.0489251
0.0627003
-0.0598771
0.037486
0.042023
0.0574024
-0.0553519
0.0247753
0.0313342
0.0538611
-0.052993
0.00895678
0.017018
0.0528198
-0.0533334
-0.00807672
0.000431448
0.0545184
-0.0563114
-0.0240885
-0.0162302
0.0585792
-0.0612174
-0.0374067
-0.030923
0.0640607
-0.0670546
-0.0474759
-0.0425792
0.0700969
-0.0732002
-0.0542307
-0.0509645
0.0763105
-0.0794239
-0.0579018
-0.0560593
0.0824592
-0.0854298
-0.0602778
-0.0587721
0.0883315
-0.0912541
-0.0632471
-0.0613271
0.0942181
-0.0972875
-0.0669261
-0.0647148
0.100454
-0.103757
-0.0703693
-0.0684761
0.107172
-0.110752
-0.0707005
-0.070896
0.114415
-0.117482
-0.0633529
-0.0679413
0.120335
-0.122101
-0.045282
-0.0548208
-0.0362905
0.0371429
-0.11866
-0.1244
-0.0339918
-0.0781436
-0.0686565
-0.056407
0.0393064
-0.073835
-0.0638227
0.0609923
-0.0644631
-0.0475287
0.0585434
-0.0433058
0.0404184
-0.040654
0.117957
0.03865
0.121976
0.0797781
-0.0817263
0.0754921
-0.0879375
-0.0645633
-0.0636088
0.0671471
-0.0973556
0.0554229
-0.106811
0.0412211
-0.114354
-0.0224551
0.024831
-0.121035
-0.0221808
-0.124674
-0.0748298
-0.0534505
0.0525932
0.0447389
0.0326788
-0.0380708
-0.051015
0.0528003
-0.0524923
0.0323707
0.0386562
-0.0558075
0.0612562
0.0542296
0.0506863
-0.0658988
0.0694503
0.059088
0.057886
-0.0729598
0.0763222
0.0602733
0.0595471
-0.0795367
0.082629
0.0613544
0.0605085
-0.0855966
0.0884987
0.0629975
0.0618563
-0.0913501
0.0942071
0.0645105
0.063579
-0.0970643
0.0999493
0.0642375
0.0644181
-0.102822
0.105681
0.0603437
0.0625524
-0.108445
0.111069
0.0511653
0.0562254
-0.113442
0.115483
0.0360109
0.0440699
-0.117029
0.118072
0.0160178
0.0263692
-0.118556
0.118475
-0.00610038
0.00498952
-0.117853
0.116716
-0.0266486
-0.0167048
-0.115132
0.113161
-0.0428619
-0.0351714
-0.110929
0.108515
-0.0541317
-0.0488112
-0.106039
0.103533
-0.0604743
-0.0575518
-0.101067
0.0986277
-0.0623338
-0.0614767
-0.0962536
0.0939044
-0.0614012
-0.061659
-0.0915972
0.089272
-0.0596287
-0.0600975
-0.0869351
0.0845195
-0.0581056
-0.0583747
-0.082023
0.0793806
-0.0570384
-0.0570858
-0.0766189
0.0737359
-0.0560312
-0.056144
-0.0703636
0.0675461
-0.0536541
-0.0546729
-0.0511279
-0.0404631
0.0409692
0.0661618
0.0382468
-0.0382794
0.0593245
0.0621206
-0.0421117
0.0428041
0.0745324
0.0696106
-0.0431274
0.0430915
0.0852042
0.079402
-0.0426876
0.0419163
0.0966599
0.090599
-0.0425098
0.0415157
0.109048
0.101896
0.114722
0.118435
-0.115381
0.0514317
-0.121146
0.123752
0.0428897
0.0478439
0.110678
-0.106112
0.0542906
0.0517701
0.103136
-0.100228
0.0559088
0.0547745
0.0974587
-0.0947417
0.0556656
0.0553
0.092109
-0.0894599
0.0547053
0.0546369
0.0868107
-0.0840711
0.0534378
0.0535673
0.081266
-0.0783275
0.0516146
0.052128
0.0753128
-0.0721876
0.0485259
0.0498229
0.0690544
-0.0659272
0.0431917
0.0457919
0.0629478
-0.0601729
0.034711
0.0390437
0.0577583
-0.0557789
0.0227959
0.0289196
0.054365
-0.0535762
0.008168
0.0156041
0.0534699
-0.0540432
-0.00750347
0.000325151
0.0552573
-0.0570509
-0.0222948
-0.0150161
0.0592814
-0.0618678
-0.0348203
-0.0286925
0.0646568
-0.0676082
-0.0445246
-0.0397902
0.0706439
-0.073789
-0.0510856
-0.0479288
0.0769815
-0.0802013
-0.054682
-0.0528669
0.0833505
-0.0864441
-0.0571842
-0.0556229
0.0894867
-0.0925902
-0.0601437
-0.0582845
0.0957908
-0.0991615
-0.0635554
-0.0615142
0.102683
-0.106391
-0.0666614
-0.0649541
0.110234
-0.114203
-0.0667317
-0.067053
0.118171
-0.122075
-0.0594489
-0.0639737
0.124692
-0.126562
-0.0434119
-0.0522036
0.12885
-0.131021
-0.0200105
-0.0317034
0.0470056
-0.0459704
-0.0649504
-0.0530985
-0.00727127
0.00927185
-0.126675
-0.129815
-0.00847723
-0.0743883
-0.0681032
-0.0364802
0.0567442
0.127027
0.0353748
-0.0286231
-0.0489739
0.0251047
0.0754329
-0.0816671
-0.030841
-0.0487971
-0.0671064
-0.0612796
0.0681433
-0.0889337
-0.0550461
-0.0545331
0.0569724
-0.098905
0.0431142
-0.108704
0.0276746
-0.117197
0.010525
-0.122289
0.0058788
-0.00578442
-0.126769
0.00585767
-0.129794
-0.0737852
-0.0512135
0.0512632
0.032321
0.014852
-0.0462302
-0.0175957
0.0506832
-0.0475853
0.0117542
0.0245744
-0.0528818
0.054839
0.0427817
0.0370376
-0.0580683
0.0613853
0.0509126
0.047457
-0.0660734
0.0700161
0.0551453
0.053198
-0.0735855
0.0769794
0.0568794
0.0559777
-0.0802431
0.0834474
0.0581501
0.0572448
-0.0866046
0.0897712
0.0598308
0.0586991
-0.0929434
0.0961573
0.0612965
0.0604068
-0.0993844
0.102642
0.0609796
0.061191
-0.10588
0.109089
0.0571348
0.0593146
-0.112176
0.115079
0.0482628
0.0531383
-0.117665
0.119846
0.0338301
0.0414836
-0.121493
0.122555
0.0149557
0.0247221
-0.123001
0.122822
-0.00592172
0.00454366
-0.122041
0.120683
-0.0252908
-0.0159233
-0.118832
0.116569
-0.0405982
-0.0333209
-0.114042
0.111335
-0.0514249
-0.0462843
-0.108572
0.105778
-0.0576797
-0.0547891
-0.103026
0.100304
-0.059612
-0.0587253
-0.0976593
0.0950522
-0.058794
-0.059014
-0.0925049
0.0899568
-0.0570806
-0.0575502
-0.0874163
0.0848107
-0.0555
-0.0558342
-0.0821429
0.0793406
-0.054236
-0.054418
-0.0764232
0.0733516
-0.0529596
-0.0532266
-0.0702427
0.0670495
-0.0504609
-0.0515641
-0.0639673
0.0609277
-0.0444891
-0.0480457
-0.0575627
0.0556008
-0.0345182
-0.0399408
-0.0291298
0.0301049
0.0583494
0.028871
-0.0273152
0.0540449
0.0564855
-0.030805
0.0321625
0.0648042
0.0614205
-0.0329246
0.0334209
0.0740361
0.0688486
-0.0336234
0.0335243
0.0853033
0.0791994
-0.0331241
0.0324484
0.0973355
0.0909991
-0.0315378
0.0319359
0.10865
0.102807
-0.0310467
0.0296725
0.119331
0.115612
-0.0270726
0.0271948
0.126905
0.124576
0.126399
-0.122805
0.0392955
-0.128418
0.130117
0.0254958
0.033356
0.119307
-0.114113
0.0462381
0.0443453
0.1109
-0.107695
0.0510856
0.0485572
0.104593
-0.101535
0.0528507
0.0516729
0.0986241
-0.0957642
0.0528057
0.0523887
0.093003
-0.0902362
0.0519386
0.0518757
0.0874866
-0.0846679
0.0506191
0.0508177
0.0818067
-0.0788381
0.0486461
0.0492668
0.0758203
-0.0727185
0.0454241
0.0468051
0.0696346
-0.0665779
0.040135
0.042708
0.0636867
-0.0610123
0.0320365
0.0361526
0.0587041
-0.056832
0.0209238
0.0266114
0.0555173
-0.0548118
0.00746253
0.0142894
0.0547617
-0.0553611
-0.00690409
0.000275099
0.0565589
-0.058295
-0.0205587
-0.0138183
0.0604319
-0.0629084
-0.0323439
-0.0265556
0.0655935
-0.0684683
-0.0416498
-0.037105
0.0714765
-0.074642
-0.0479201
-0.0449206
0.077883
-0.081165
-0.0514
-0.0496258
0.0843928
-0.0875988
-0.0539782
-0.0523951
0.0907936
-0.0940784
-0.0568589
-0.0550897
0.0974764
-0.101065
-0.0599671
-0.0581161
0.104834
-0.108821
-0.0626745
-0.0611848
0.112946
-0.11716
-0.062518
-0.0629279
0.121312
-0.125324
-0.0554371
-0.0598216
0.129117
-0.132622
-0.0399072
-0.0484101
0.134367
-0.134855
-0.0195225
-0.029958
0.134896
-0.13233
0.00329154
-0.00843668
0.039912
-0.0430659
-0.0617965
-0.0440275
0.0203627
-0.0204256
-0.129731
-0.132189
0.0202217
-0.0676804
-0.0675291
0.0682823
-0.081806
-0.00532974
-0.0459601
0.00370456
-0.0442582
-0.00730177
-0.0236217
-0.042771
-0.0575021
-0.0588236
0.0580954
-0.0900568
0.0558891
-0.0580537
-0.0323536
0.0539455
-0.0253716
0.0184936
-0.019581
0.127992
0.0181598
0.130451
-0.0442633
-0.0533357
0.0445645
-0.100355
0.0292168
-0.110246
0.0129419
-0.119614
-0.00321057
-0.124863
-0.0204867
-0.126708
-0.00414777
-0.0452524
0.00344005
-0.047105
0.048267
-0.00530985
0.0132166
-0.0484389
-0.0118827
0.0320698
-0.12525
-0.0365503
0.0285646
-0.128684
-0.0464946
0.0144588
-0.0731834
-0.0458279
0.044724
0.0128581
0.00614365
-0.0478877
0.0509896
0.0292191
0.0214107
-0.05303
0.0558094
0.0400023
0.0349972
-0.0594408
0.0632193
0.047134
0.0438256
-0.0670515
0.0708572
0.0513395
0.0493658
-0.0744615
0.077891
0.0534499
0.0523734
-0.0811873
0.0844445
0.0548928
0.0539485
-0.0876947
0.0910067
0.0565188
0.0554489
-0.0943776
0.0978379
0.0578362
0.057036
-0.101342
0.104893
0.0574281
0.0576872
-0.108421
0.111901
0.0536543
0.0557873
-0.115225
0.118323
0.0451655
0.0498139
-0.12105
0.123326
0.0315538
0.0387566
-0.12504
0.126118
0.013878
0.0230078
-0.126537
0.126279
-0.00566429
0.00412498
-0.125364
0.123824
-0.023751
-0.0150077
-0.121766
0.119289
-0.0381212
-0.0312634
-0.116555
0.113643
-0.0485131
-0.0435501
-0.110675
0.107668
-0.0546725
-0.0518207
-0.1047
0.101759
-0.0566704
-0.0557577
-0.0988999
0.0960873
-0.0559814
-0.0561552
-0.0933504
0.090627
-0.0543572
-0.0548133
-0.0879287
0.085181
-0.0527523
-0.0531359
-0.0823915
0.0794808
-0.0513253
-0.0516285
-0.0764683
0.0733105
-0.0498018
-0.0502141
-0.0700944
0.0668595
-0.047226
-0.048348
-0.0634166
0.0606773
-0.0417498
-0.0446028
-0.0373173
-0.0201261
0.0204535
0.058022
0.0192179
-0.0194487
0.0542757
0.0555773
-0.0216081
0.0222195
0.0641928
0.0602659
-0.0226611
0.0229108
0.0737865
0.0684069
-0.0229532
0.022793
0.0854635
0.079157
-0.0224321