/*--------------------------------*- C++ -*----------------------------------*\
  =========                 |
  \\      /  F ield         | OpenFOAM: The Open Source CFD Toolbox
   \\    /   O peration     | Website:  https://openfoam.org
    \\  /    A nd           | Version:  10
     \\/     M anipulation  |
\*---------------------------------------------------------------------------*/
FoamFile
{
    format      ascii;
    class       volVectorField;
    location    "19.5";
    object      U;
}
// * * * * * * * * * * * * * * * * * * * * * * * * * * * * * * * * * * * * * //

dimensions      [0 1 -1 0 0 0 0];

internalField   nonuniform List<vector> 
28942
(
(-0.596238 0.172694 -4.4877e-19)
(-0.632746 0.0740997 -9.69261e-20)
(1.78828 -1.25638 2.73094e-19)
(2.53014 0.0494723 -7.0872e-19)
(2.49205 0.0787976 2.35712e-19)
(1.14673 0.0588338 0)
(1.33922 0.0823507 -2.39861e-21)
(1.49635 0.0524132 2.70804e-21)
(2.87807 -0.222648 -2.19187e-20)
(2.85596 -0.204995 6.7905e-20)
(-0.537745 0.288503 -1.1494e-18)
(-0.0602406 -0.250529 5.16495e-19)
(-0.152592 0.00646896 0)
(-0.262708 0.150263 0)
(2.51644 -0.120587 1.00899e-21)
(2.54829 -0.120628 9.33126e-23)
(2.36025 0.331523 1.69063e-19)
(2.32678 0.29028 2.68682e-19)
(0.998432 -1.54121 6.50396e-19)
(1.57864 -1.651 -1.89755e-19)
(2.56379 0.658399 2.11097e-19)
(2.57905 0.631644 0)
(0.182602 0.375906 1.02634e-18)
(-0.261355 0.0116584 5.46059e-19)
(2.68499 -0.682603 1.09453e-18)
(3.34346 -0.841256 -9.90543e-19)
(0.699008 -1.09459 2.79164e-18)
(0.706961 -0.859488 -1.10504e-18)
(2.04671 -1.45079 2.64739e-20)
(1.54831 -1.03335 6.80393e-21)
(1.13945 -0.0459134 0)
(1.55256 -0.0794909 8.5718e-21)
(1.92318 -0.125981 2.09657e-20)
(2.25628 -0.108049 9.62595e-21)
(1.53193 2.13308 -1.93368e-19)
(1.10979 2.29783 2.87825e-19)
(1.73268 2.09798 -5.80077e-19)
(1.35972 2.13116 -2.46673e-19)
(0.525178 0.0559505 2.91762e-21)
(0.62357 2.12447 -1.29422e-19)
(2.03881 -0.0240743 0)
(2.36018 -0.0744357 0)
(2.06568 0.406695 -1.03235e-20)
(2.02771 0.469892 2.98702e-20)
(2.15998 0.397225 2.64014e-20)
(1.91855 0.0672358 -1.19017e-21)
(1.88239 0.0846797 2.26868e-21)
(2.28858 0.0792821 2.85084e-21)
(2.231 0.0800683 -7.20055e-22)
(1.98847 0.0781756 6.77567e-21)
(1.83612 0.091566 -3.8873e-21)
(2.74441 -0.0432152 -8.39221e-20)
(2.73842 -0.0499895 -7.12449e-20)
(2.88066 -0.250531 -1.46544e-21)
(2.85439 -0.231145 1.27012e-20)
(3.4533 -0.197993 8.46162e-19)
(3.74264 -0.346439 4.28172e-19)
(0.0141907 0.111128 -6.47381e-19)
(-0.0924639 0.0750244 0)
(-0.138805 0.226804 2.37918e-19)
(-0.0707623 0.144706 5.70384e-19)
(0.0206627 0.0342387 -4.44422e-19)
(0.038693 0.0417506 -4.54875e-19)
(3.16298 -1.11714 0)
(3.63032 -0.928571 1.24371e-19)
(3.18092 -0.787144 -5.28488e-20)
(3.09589 -0.781635 0)
(2.29916 -0.408364 -1.62413e-19)
(2.36012 -0.44765 -1.05748e-19)
(-0.302995 0.15232 1.46947e-18)
(-0.411297 0.233044 -4.63735e-19)
(-0.567746 0.342359 1.15893e-18)
(2.33384 -0.54644 0)
(2.31009 -0.490014 5.62484e-19)
(2.16403 -0.789804 1.48792e-19)
(3.99546 0.694664 3.97782e-19)
(4.10489 0.540628 -4.42034e-19)
(3.90198 0.386492 -2.70229e-19)
(0.609636 -0.32779 1.30119e-20)
(0.919193 -0.536709 -2.93561e-19)
(2.66554 -1.59921 -4.89735e-20)
(2.48576 -1.58411 1.15929e-19)
(-0.489078 0.182773 2.25456e-18)
(-0.627415 0.182119 -8.72313e-19)
(3.50571 1.55 -6.14895e-20)
(2.95151 1.27168 2.01363e-20)
(2.97441 1.83256 -5.51968e-20)
(2.88071 1.95691 2.60577e-19)
(2.85325 1.98887 -1.77986e-19)
(2.43349 1.76241 3.01423e-20)
(2.4786 1.93708 5.11462e-20)
(2.50978 2.04717 -4.09251e-20)
(-0.868395 1.68276 -1.40935e-19)
(-0.665061 1.26765 -3.49464e-20)
(-0.271497 0.91353 6.99943e-20)
(0.0147978 1.18354 -9.61342e-19)
(-0.199886 1.64483 1.21453e-18)
(1.22963 1.43301 3.7164e-19)
(1.48336 1.68347 -1.20169e-19)
(-0.606826 -0.124044 0)
(2.51608 -0.00103039 0)
(2.43013 0.0781578 -4.88874e-19)
(2.40046 0.177362 4.07903e-19)
(2.60744 0.149457 0)
(3.36039 -0.313887 0)
(3.34988 -0.342943 0)
(3.40733 -0.34884 3.21251e-19)
(2.75459 0.393394 -3.36856e-20)
(2.74566 0.427717 3.52341e-19)
(2.73118 0.377693 1.90322e-19)
(0.0410158 0.0969319 1.28339e-18)
(0.045543 0.165967 -1.44249e-18)
(-0.454208 0.184886 -8.08846e-19)
(-0.443046 -0.135437 7.4038e-19)
(-0.702834 -0.144678 1.59049e-18)
(0.609508 0.980345 4.6032e-19)
(1.07609 0.809875 1.13414e-18)
(0.924925 1.57698 1.06151e-19)
(0.449455 1.50248 -2.59767e-18)
(3.59104 1.24112 -6.22186e-22)
(3.15221 1.22159 5.72979e-20)
(3.07741 1.09523 -1.06157e-19)
(2.33812 -1.70212 8.69838e-20)
(1.74176 -1.25041 -4.09469e-20)
(0.691427 0.272024 -1.46728e-18)
(0.656464 0.0759907 0)
(1.07153 0.187667 8.11198e-19)
(1.5904 -1.19655 9.8568e-20)
(1.95236 -1.55687 -2.36402e-19)
(2.20938 0.0744241 -1.93954e-21)
(2.28303 0.0726933 -1.94534e-21)
(2.07119 0.0672437 -4.14362e-23)
(1.23663 -1.57999 0)
(1.3287 -1.09283 0)
(2.5724 -0.165537 -8.26007e-20)
(2.52954 -0.15586 4.75417e-19)
(2.53208 -0.0456891 0)
(2.04966 -1.59181 0)
(2.05745 -1.31651 -1.94696e-19)
(2.4692 2.15445 2.99752e-19)
(0.256868 0.623015 8.03122e-19)
(0.250536 0.403185 -5.86847e-19)
(1.76618 -1.53792 -1.28807e-19)
(2.24771 0.287851 1.51197e-19)
(2.26607 0.354648 -2.87978e-20)
(3.49571 -0.162026 -9.90758e-20)
(3.48371 -0.0563338 1.33282e-19)
(3.43441 -0.0578993 4.01119e-19)
(0.168472 0.3223 2.82452e-19)
(2.79612 2.11204 2.28439e-19)
(2.82561 1.84749 -7.93344e-20)
(3.32771 2.22825 1.14129e-21)
(1.69465 -0.0598092 -1.54859e-21)
(1.68936 -0.0602871 -1.87562e-20)
(1.90896 -0.0687248 -1.34453e-21)
(1.91674 -0.0868586 4.87539e-21)
(2.37226 2.0128 1.21696e-19)
(1.4493 1.83219 0)
(0.296142 1.4154 1.02263e-18)
(0.00513213 0.231311 -1.16574e-18)
(0.070035 2.3329 8.32156e-19)
(2.36197 0.653914 -1.5707e-18)
(3.54627 0.999712 -7.82881e-19)
(2.14411 -0.0940031 1.82618e-21)
(3.65615 -1.45711 1.62098e-19)
(3.5409 -1.4736 4.10664e-19)
(2.55657 0.728973 4.86324e-19)
(2.40221 0.864129 4.0345e-20)
(2.40446 0.53653 2.91487e-19)
(2.44847 0.556 -2.09366e-19)
(2.60626 0.730261 0)
(2.72652 -0.0665742 1.53385e-20)
(2.72809 -0.0811723 2.86502e-20)
(2.78065 -0.152908 -3.78756e-20)
(2.79402 -0.16092 6.59763e-20)
(2.77309 0.346782 3.82632e-20)
(2.8101 0.362061 -1.05039e-19)
(2.78102 0.378207 0)
(2.74701 0.357319 2.47154e-20)
(2.78435 0.417356 0)
(2.81266 0.554423 -8.65655e-20)
(2.8086 0.626294 -5.0672e-20)
(2.78562 0.710129 -9.63527e-20)
(2.80423 0.685856 0)
(2.88415 0.690658 2.7603e-19)
(2.83521 0.757346 1.54187e-20)
(2.75301 0.774643 -6.04795e-20)
(2.62808 0.945256 -2.5881e-19)
(2.61057 0.788338 -4.78364e-20)
(1.77413 0.345164 5.85696e-19)
(2.34698 -0.078357 -2.22473e-19)
(-0.735443 0.0805285 -1.14226e-18)
(2.01442 0.0709901 2.78225e-21)
(2.37426 0.0763888 0)
(0.425763 -0.193751 1.33117e-18)
(0.397999 -0.239231 6.11371e-19)
(2.26504 0.0875284 -8.02295e-22)
(2.45679 0.0922935 -3.31248e-23)
(2.45944 0.0896369 0)
(2.24346 0.0850684 -3.34846e-22)
(1.69107 -1.91358 1.23593e-19)
(1.65926 -1.92204 -6.3818e-19)
(1.75503 -1.95622 -2.33529e-19)
(0.112848 0.239078 5.42274e-19)
(0.0556143 0.0825005 -6.88762e-19)
(0.0730756 0.128402 6.46711e-19)
(-0.162645 0.00464847 0)
(-0.112627 -0.0302226 9.64312e-19)
(-0.0756882 -0.0232231 -8.23814e-19)
(-0.301713 -0.104707 -8.85444e-19)
(-0.346519 -0.19731 -8.33835e-19)
(-0.248837 -0.16924 0)
(0.198161 1.1901 0)
(0.0944983 0.784582 0)
(0.006694 0.483805 0)
(3.29485 -0.337338 -3.90265e-20)
(3.22676 -0.337903 0)
(3.26879 -0.359177 4.01463e-20)
(2.32543 -0.122219 1.12955e-18)
(2.3556 -0.136072 -4.14637e-19)
(2.35 -0.0935023 0)
(2.07004 -0.251607 1.40938e-20)
(2.08716 0.10495 -2.75838e-20)
(2.06952 -0.598778 8.78666e-21)
(2.10434 0.451653 0)
(2.12844 0.77747 1.84564e-20)
(2.159 1.07156 0)
(2.00125 1.03181 0)
(2.18535 1.3244 -5.51936e-20)
(2.0368 1.2797 0)
(1.96453 0.744026 1.67289e-20)
(1.93784 0.423901 0)
(1.91599 0.0841225 -7.99188e-21)
(1.90335 -0.265618 1.31073e-20)
(1.90734 -0.602799 -8.77151e-21)
(2.21238 1.53143 5.28328e-20)
(2.07419 1.48676 1.62165e-21)
(2.06997 -0.924508 2.58298e-22)
(1.91633 -0.920828 1.21817e-20)
(2.08129 -1.21196 -6.32504e-20)
(2.24044 1.69259 -4.48738e-23)
(2.11736 1.65135 1.36298e-21)
(1.9355 -1.20072 -2.23062e-20)
(2.26735 1.81034 -3.89794e-20)
(2.29503 1.88874 3.89476e-20)
(2.16159 1.77055 -3.01145e-21)
(2.2061 1.85076 -5.06457e-21)
(2.10127 -1.45263 6.16312e-20)
(1.96236 -1.44222 1.42982e-20)
(2.32219 1.93301 0)
(2.24917 1.89765 4.99286e-21)
(2.11985 -1.65795 -6.45061e-24)
(2.0001 -1.63774 6.43737e-24)
(2.34758 1.95144 0)
(2.289 1.91966 0)
(2.14565 -1.81176 0)
(2.04116 -1.78958 0)
(2.36956 1.95188 0)
(2.32511 1.92437 -2.01658e-21)
(2.17167 -1.92582 2.18917e-20)
(2.0858 -1.8995 5.41106e-24)
(2.38706 1.94297 -1.04987e-22)
(2.35594 1.92017 2.15373e-21)
(2.19815 -2.00137 -2.20036e-20)
(2.12841 -1.97564 0)
(2.40082 1.9307 0)
(2.38206 1.91278 0)
(2.22283 -2.04936 1.18712e-21)
(2.16921 -2.02477 -1.9222e-20)
(2.4093 1.92068 -1.29074e-20)
(2.40422 1.90721 0)
(2.24504 -2.07462 -5.7682e-22)
(2.20656 -2.05263 1.8143e-20)
(2.41429 1.91498 1.94301e-20)
(2.41951 1.90681 5.57021e-21)
(2.26256 -2.08481 -1.81574e-20)
(2.24059 -2.06543 0)
(2.41624 1.91597 -6.4872e-21)
(2.43501 1.91203 -3.7595e-21)
(2.2773 -2.08865 8.49525e-21)
(2.26914 -2.07182 -1.68815e-20)
(2.41099 1.92281 2.7376e-20)
(2.44317 1.92396 -3.09685e-20)
(2.28604 -2.09485 -8.69988e-21)
(2.29267 -2.08295 -2.72407e-22)
(2.40601 1.93268 0)
(2.44955 1.93805 -1.55879e-20)
(2.28803 -2.11177 1.75373e-20)
(2.31027 -2.10593 -3.465e-20)
(2.39853 1.94256 0)
(2.45565 1.94864 0)
(2.28773 -2.09022 8.61702e-21)
(2.27729 -2.09924 3.46925e-20)
(2.28347 -2.14289 0)
(2.32222 -2.14317 1.80663e-20)
(2.29389 -2.09262 5.75539e-21)
(2.29497 -2.09057 -1.11171e-21)
(2.28709 -2.06582 0)
(2.29278 -2.08627 1.9768e-20)
(2.27044 -1.95002 4.99262e-23)
(2.28175 -2.02255 0)
(2.25188 -1.67957 0)
(2.26559 -1.83667 0)
(2.24433 -1.21988 0)
(2.25425 -1.47321 0)
(2.25072 -0.587567 -1.91165e-20)
(2.24609 -0.921378 -4.41751e-21)
(2.27802 0.128624 1.87724e-20)
(2.25882 -0.229609 1.92085e-20)
(2.30491 0.805325 -3.12532e-20)
(2.28531 0.476272 -4.26367e-20)
(2.34182 1.35376 0)
(2.32551 1.10006 0)
(2.37083 1.72639 1.07159e-22)
(2.35744 1.56266 0)
(2.39523 1.91876 0)
(2.38328 1.84369 0)
(2.4157 1.97147 0)
(2.40631 1.95852 0)
(2.4255 1.95189 0)
(2.42217 1.96644 0)
(2.42075 1.91937 0)
(2.42509 1.93456 0)
(2.40163 1.90624 0)
(2.41376 1.90934 0)
(2.3705 1.91822 1.18457e-20)
(2.38711 1.90921 0)
(2.3478 1.92672 4.15519e-21)
(2.39167 1.94258 -4.55989e-21)
(2.46447 1.94749 4.52403e-21)
(2.47738 1.91124 0)
(2.51574 1.94227 1.74302e-20)
(2.49656 1.92978 8.07284e-21)
(2.43028 1.88599 -1.81195e-21)
(2.45566 1.8956 7.05882e-21)
(2.36946 1.8843 -5.41917e-23)
(2.40379 1.88238 0)
(2.29049 1.88713 0)
(2.33332 1.88705 0)
(2.19111 1.85277 0)
(2.24312 1.87816 0)
(2.07753 1.72141 0)
(2.1351 1.80313 -8.84997e-27)
(1.96638 1.44107 -9.4178e-23)
(2.02043 1.60186 0)
(1.86784 0.995159 0)
(1.91613 1.23953 0)
(1.79512 0.399846 0)
(1.82533 0.709674 0)
(1.76442 -0.268072 0)
(1.77142 0.0686231 8.43481e-21)
(1.78677 -0.895509 -2.14807e-21)
(1.77171 -0.594356 9.44996e-21)
(1.85908 -1.3992 0)
(1.81755 -1.16586 7.43512e-21)
(1.96385 -1.73567 0)
(1.9086 -1.58842 0)
(2.07696 -1.92459 0)
(2.02088 -1.84585 0)
(2.17992 -2.00951 0)
(2.13022 -1.97749 0)
(2.26727 -2.03964 4.39068e-21)
(2.22564 -2.02754 0)
(2.33313 -2.08443 1.7498e-20)
(2.30276 -2.05639 4.19614e-21)
(2.35868 -2.1264 -1.84673e-20)
(2.25893 -2.12215 -3.46845e-20)
(2.32437 1.92399 -9.42236e-21)
(2.53919 1.94152 2.08568e-20)
(2.3284 -2.19299 0)
(2.38003 -2.17801 0)
(2.23336 -2.15686 0)
(2.27125 -2.18606 0)
(2.29869 -2.07188 0)
(2.23852 -2.08629 -7.75446e-21)
(2.27344 -2.07262 -8.3884e-21)
(2.33653 -2.08827 -1.1709e-20)
(2.32159 -2.07981 2.29808e-21)
(2.35969 -2.0714 -4.26318e-23)
(2.35039 -2.0881 0)
(2.3753 -1.9572 0)
(2.37095 -2.03022 0)
(2.38938 -1.68202 0)
(2.38641 -1.84275 0)
(2.4107 -1.2144 0)
(2.40344 -1.47385 0)
(2.43735 -0.574399 0)
(2.42768 -0.91247 0)
(2.46824 0.144096 7.98804e-23)
(2.45293 -0.218253 -2.04395e-20)
(2.48713 0.819872 7.40339e-23)
(2.47479 0.496855 3.97295e-20)
(2.49694 1.36098 0)
(2.49378 1.11046 0)
(2.49713 1.72734 -5.4401e-23)
(2.49804 1.56688 0)
(2.49035 1.91777 0)
(2.49442 1.84308 0)
(2.47968 1.96926 0)
(2.48556 1.95724 0)
(2.4626 1.94566 0)
(2.47226 1.96255 0)
(2.43473 1.90739 0)
(2.44995 1.92546 0)
(2.39365 1.88768 0)
(2.41589 1.89423 0)
(2.33719 1.89327 -7.97222e-21)
(2.36855 1.88806 0)
(2.38442 1.91806 0)
(2.30024 1.90018 -1.14771e-20)
(2.26351 1.89316 0)
(2.30235 1.8977 -8.37602e-21)
(2.57715 1.91661 -1.56069e-20)
(2.61161 1.91725 -4.34221e-21)
(2.56331 1.91635 -3.86187e-20)
(2.47287 1.92333 0)
(2.51524 1.88081 0)
(2.54594 1.90184 2.33279e-20)
(2.44534 1.85185 -5.0642e-23)
(2.48055 1.86461 -7.10693e-21)
(2.36226 1.84343 5.41901e-23)
(2.40632 1.84573 0)
(2.26257 1.83695 0)
(2.31618 1.84154 0)
(2.14275 1.79379 0)
(2.20565 1.82305 0)
(2.00829 1.65842 0)
(2.07645 1.74116 8.84977e-27)
(1.87665 1.38238 1.77704e-22)
(1.94078 1.53976 0)
(1.76106 0.947635 0)
(1.81637 1.18533 0)
(1.68078 0.373718 -3.61413e-21)
(1.7149 0.672942 0)
(1.6536 -0.266131 0)
(1.65802 0.0562348 3.59788e-21)
(1.68698 -0.86646 -7.28015e-21)
(1.66428 -0.577762 -7.61057e-21)
(1.77801 -1.34763 0)
(1.72668 -1.12784 0)
(1.90399 -1.67446 0)
(1.83867 -1.53068 0)
(2.03839 -1.86536 0)
(1.97157 -1.78471 0)
(2.16435 -1.95646 0)
(2.1031 -1.92131 0)
(2.27424 -1.99466 -5.96737e-23)
(2.22178 -1.97771 0)
(2.36441 -2.0512 6.26688e-23)
(2.32189 -2.01716 0)
(2.43991 -2.15241 1.83949e-20)
(2.40341 -2.09718 -1.83845e-20)
(2.19689 -2.11158 -1.72671e-20)
(2.39844 -2.23226 0)
(2.47727 -2.20991 4.42657e-20)
(2.3289 -2.24658 0)
(2.22445 1.86916 0)
(2.65062 1.89219 4.74422e-21)
(2.20029 -2.19627 -5.19335e-20)
(2.14491 -2.14237 -2.05854e-20)
(2.41082 -2.27962 -1.26129e-20)
(2.51383 -2.26138 -5.67402e-20)
(2.2529 -2.23244 0)
(2.21556 1.85586 -3.3556e-20)
(2.16324 1.83282 1.73434e-20)
(2.58763 1.85666 1.11601e-20)
(2.68614 1.83291 -5.74213e-20)
(2.11788 -2.07232 -6.34645e-20)
(2.08123 -2.1675 3.90722e-20)
(1.96991 -2.0928 1.81652e-19)
(2.05283 -2.08786 3.6457e-20)
(2.22868 -2.03719 -1.54592e-20)
(2.17705 -2.05208 5.17993e-20)
(2.317 -2.04076 1.65105e-20)
(2.27696 -2.03344 1.22966e-20)
(2.38641 -2.06856 4.66552e-21)
(2.35489 -2.05532 4.22575e-21)
(2.44007 -2.05792 4.26319e-23)
(2.41551 -2.07227 0)
(2.48716 -1.94352 0)
(2.46584 -2.01746 0)
(2.53384 -1.66756 0)
(2.51232 -1.82828 0)
(2.58181 -1.19968 0)
(2.55906 -1.45827 0)
(2.62497 -0.560808 0)
(2.60543 -0.897542 0)
(2.65459 0.15548 0)
(2.64239 -0.205353 0)
(2.66578 0.824303 -1.04752e-24)
(2.66339 0.501841 0)
(2.65328 1.35866 0)
(2.66197 1.11228 0)
(2.62465 1.71966 -5.35639e-23)
(2.64065 1.56119 0)
(2.58718 1.90856 0)
(2.6065 1.83456 0)
(2.54708 1.95684 0)
(2.56742 1.94676 0)
(2.50317 1.92805 0)
(2.52595 1.94775 0)
(2.4516 1.88409 0)
(2.47853 1.90522 0)
(2.38964 1.85829 0)
(2.42179 1.86792 0)
(2.31186 1.85706 -3.72283e-21)
(2.35291 1.8551 1.87909e-21)
(2.26624 1.85998 1.63447e-20)
(2.37949 1.85944 5.29944e-21)
(2.18816 1.81606 -2.21984e-20)
(2.27926 1.84499 1.54309e-20)
(2.48502 1.86624 0)
(2.63965 1.87096 1.24526e-20)
(2.73431 1.84816 4.2992e-20)
(2.68325 1.87126 -2.96103e-20)
(2.55339 1.8368 0)
(2.59596 1.85642 0)
(2.46251 1.80727 4.48504e-24)
(2.50711 1.82175 0)
(2.36052 1.79241 0)
(2.41243 1.79924 0)
(2.24253 1.77642 4.69983e-23)
(2.30473 1.78631 0)
(2.10539 1.72406 0)
(2.17734 1.75757 0)
(1.95446 1.58514 0)
(2.0313 1.66858 0)
(1.80617 1.31407 -8.36103e-23)
(1.87888 1.46789 0)
(1.67868 0.892857 -8.33357e-23)
(1.73854 1.1221 0)
(1.59428 0.345593 0)
(1.63007 0.630977 0)
(1.57088 -0.262247 0)
(1.57315 0.043112 0)
(1.61492 -0.83086 0)
(1.58468 -0.556354 0)
(1.72097 -1.28809 0)
(1.66168 -1.07691 0)
(1.86322 -1.60404 6.74829e-23)
(1.78939 -1.46362 0)
(2.01365 -1.79663 0)
(1.93888 -1.71414 0)
(2.15669 -1.89405 0)
(2.08649 -1.8554 0)
(2.2867 -1.94059 5.90983e-24)
(2.22393 -1.91925 0)
(2.3966 -2.0056 -5.41637e-24)
(2.34414 -1.96759 0)
(2.49397 -2.10982 -6.75388e-23)
(2.44609 -2.05433 0)
(2.59281 -2.21599 4.79117e-20)
(2.5417 -2.16722 -9.58127e-21)
(2.54808 -2.29197 -1.3119e-20)
(2.64549 -2.24297 -2.25899e-20)
(2.15881 -2.23223 1.86966e-20)
(2.32508 -2.29441 2.37655e-20)
(2.11083 1.78071 -4.78309e-21)
(2.78037 1.79328 -3.46083e-20)
(2.00538 -2.17818 -8.39363e-22)
(2.42057 -2.30664 0)
(1.87683 -2.08451 -3.37701e-19)
(2.70155 -2.22905 -4.91643e-20)
(2.58366 -2.28223 -6.66007e-20)
(1.70714 -1.90564 4.74418e-19)
(1.66095 -1.84831 -8.66783e-20)
(2.22922 -2.27196 0)
(1.92392 -1.99561 -3.88544e-20)
(1.81092 -1.96413 -2.29973e-20)
(2.10517 -1.99418 -3.38394e-20)
(2.0262 -2.00023 5.25343e-20)
(2.2327 -1.97949 1.57137e-20)
(2.17328 -1.98468 7.41061e-21)
(2.34156 -1.99824 -8.01385e-21)
(2.28983 -1.98424 -7.90705e-21)
(2.43823 -2.03384 0)
(2.39204 -2.01744 -1.96152e-22)
(2.52219 -2.02543 0)
(2.48208 -2.03906 0)
(2.60114 -1.91184 -4.8329e-23)
(2.56264 -1.98541 0)
(2.67895 -1.63848 0)
(2.64106 -1.79782 0)
(2.75173 -1.17395 0)
(2.71653 -1.43039 0)
(2.81009 -0.542243 0)
(2.78349 -0.874255 0)
(2.84109 0.161793 -7.69367e-23)
(2.82949 -0.191348 0)
(2.83969 0.81954 -2.53455e-24)
(2.84465 0.502847 0)
(2.80722 1.34139 0)
(2.82712 1.10086 0)
(2.75058 1.69421 1.05164e-22)
(2.78113 1.53918 0)
(2.68341 1.88003 0)
(2.71759 1.80701 0)
(2.61444 1.92776 0)
(2.64895 1.91785 0)
(2.54457 1.8976 0)
(2.57979 1.9181 0)
(2.47051 1.85031 0)
(2.50838 1.87327 0)
(2.3884 1.8195 0)
(2.4308 1.83202 0)
(2.29159 1.81268 1.85497e-21)
(2.34217 1.81372 0)
(2.17521 1.80522 0)
(2.23588 1.81252 3.5649e-21)
(2.04719 1.73141 4.12125e-22)
(2.11149 1.78168 0)
(2.15555 1.72468 2.25222e-20)
(1.98488 1.64253 -1.17499e-21)
(2.06291 1.68981 -1.15935e-20)
(2.37739 1.76277 -9.24894e-21)
(2.2615 1.74981 6.32847e-21)
(2.61509 1.75319 3.32222e-21)
(2.49681 1.76808 -3.22693e-21)
(2.83563 1.69413 0)
(2.72801 1.73153 2.39159e-20)
(2.81382 1.78876 8.94809e-21)
(2.9343 1.64381 1.94816e-20)
(2.87298 1.73537 -4.52747e-20)
(2.69954 1.81274 3.7223e-21)
(2.75284 1.81223 0)
(2.59107 1.7848 0)
(2.64359 1.80064 0)
(2.48153 1.75497 5.0403e-24)
(2.5344 1.76984 0)
(2.36393 1.7339 0)
(2.42212 1.74469 0)
(2.23094 1.70852 -4.69984e-23)
(2.29903 1.72377 0)
(2.07987 1.6471 0)
(2.15809 1.68502 0)
(1.91634 1.50482 0)
(1.99954 1.58902 0)
(1.75623 1.23968 0)
(1.835 1.38935 0)
(1.62114 0.835312 1.33202e-23)
(1.68409 1.05442 0)
(1.5349 0.316335 0)
(1.57088 0.58686 0)
(1.51545 -0.25482 0)
(1.51592 0.0314847 0)
(1.56897 -0.789199 0)
(1.533 -0.531201 0)
(1.68624 -1.22075 0)
(1.62133 -1.02059 0)
(1.83952 -1.52595 -6.74829e-23)
(1.76047 -1.38888 0)
(2.00065 -1.71863 0)
(1.92043 -1.63518 0)
(2.15748 -1.8196 0)
(2.07984 -1.77885 0)
(2.30554 -1.87496 5.37991e-23)
(2.23326 -1.84834 0)
(2.43741 -1.9499 -5.75827e-23)
(2.3736 -1.90757 0)
(2.5606 -2.05921 6.67727e-23)
(2.49913 -2.00145 0)
(2.68919 -2.17019 -9.78579e-21)
(2.62363 -2.11841 1.91463e-20)
(2.83619 -2.18658 1.12731e-20)
(2.75961 -2.19953 -2.65844e-20)
(2.76066 -2.15554 -9.28954e-21)
(2.91358 -2.11487 -3.35862e-20)
(2.10893 -2.25452 2.51642e-20)
(2.31687 -2.3228 0)
(1.93571 -2.16969 2.34458e-19)
(2.42728 -2.29661 0)
(1.99599 1.67242 4.31397e-21)
(1.92557 1.59282 -3.069e-21)
(2.88468 1.55236 2.66166e-20)
(2.99685 1.50318 2.76209e-20)
(1.79834 -2.06392 2.36554e-19)
(2.6218 -2.21831 6.72361e-20)
(1.55401 -1.75433 0)
(1.67455 -1.80365 5.14003e-20)
(2.82532 -2.0107 3.11756e-20)
(2.99575 -1.96606 -5.97436e-20)
(1.60167 -1.719 -9.47505e-20)
(2.19547 -2.29158 0)
(1.89308 -1.89932 0)
(1.77826 -1.86395 3.9286e-20)
(2.09448 -1.91203 0)
(2.00233 -1.91032 0)
(2.24398 -1.91574 0)
(2.17446 -1.91216 -7.67458e-21)
(2.37279 -1.94567 0)
(2.31064 -1.92712 0)
(2.49075 -1.98447 0)
(2.43302 -1.96717 0)
(2.60199 -1.97671 0)
(2.54722 -1.99002 0)
(2.71219 -1.86518 4.83291e-23)
(2.65739 -1.93744 0)
(2.81922 -1.59542 0)
(2.76683 -1.75298 0)
(2.91587 -1.13753 0)
(2.86958 -1.3901 0)
(2.98795 -0.5194 0)
(2.9564 -0.843862 0)
(3.01943 0.167092 4.09758e-24)
(3.0092 -0.177361 0)
(3.0067 0.807023 -3.86777e-24)
(3.01841 0.499663 0)
(2.95318 1.31261 0)
(2.98472 1.07949 0)
(2.87011 1.6561 -2.8696e-24)
(2.9142 1.50476 0)
(2.77529 1.83946 0)
(2.82329 1.76703 0)
(2.67979 1.88729 0)
(2.72732 1.87736 0)
(2.58617 1.85625 0)
(2.63287 1.87748 0)
(2.49134 1.8064 0)
(2.5392 1.83081 0)
(2.39041 1.77087 0)
(2.44203 1.78588 0)
(2.27708 1.75661 0)
(2.33551 1.76159 0)
(2.14373 1.74314 -3.46106e-21)
(2.21291 1.75278 -3.61918e-21)
(2.07044 1.72001 8.06793e-21)
(2.12837 1.58797 1.3491e-20)
(1.9286 1.51215 0)
(2.02179 1.55812 1.17298e-20)
(2.37767 1.62289 0)
(2.2481 1.61205 -1.37781e-20)
(2.6395 1.60671 -2.13305e-20)
(2.50947 1.62416 7.33144e-21)
(2.76536 1.58491 3.95912e-20)
(2.88467 1.72076 -3.68481e-21)
(3.02708 1.57711 -2.01085e-20)
(2.96136 1.66332 0)
(2.75349 1.74668 6.77522e-21)
(2.82172 1.74134 -6.79268e-21)
(2.62578 1.72616 0)
(2.69035 1.73729 0)
(2.50139 1.69623 5.43687e-24)
(2.56328 1.71016 0)
(2.37121 1.66955 0)
(2.43595 1.68288 0)
(2.22698 1.6353 0)
(2.29966 1.65504 0)
(2.06596 1.56534 0)
(2.14793 1.6072 0)
(1.894 1.42007 0)
(1.98075 1.50482 0)
(1.72707 1.16206 -5.01203e-23)
(1.80894 1.30681 0)
(1.58832 0.777016 7.00155e-23)
(1.65274 0.984886 0)
(1.50218 0.288362 0)
(1.53749 0.542626 0)
(1.48717 -0.244114 0)
(1.48527 0.0224672 0)
(1.54818 -0.743086 0)
(1.50827 -0.502276 0)
(1.67233 -1.14996 0)
(1.60412 -0.960192 0)
(1.83109 -1.44618 0)
(1.74934 -1.31163 0)
(1.99896 -1.63972 0)
(1.91496 -1.55521 0)
(2.16633 -1.74276 3.96864e-23)
(2.08298 -1.70096 0)
(2.32692 -1.80224 -4.03164e-23)
(2.24822 -1.7731 0)
(2.47457 -1.88205 4.45626e-23)
(2.40215 -1.83774 0)
(2.61779 -1.98979 0)
(2.54599 -1.93364 0)
(2.76872 -2.09532 0)
(2.69173 -2.04632 0)
(2.93967 -2.10843 -9.153e-23)
(2.84994 -2.12313 -1.12537e-20)
(3.12842 -1.88791 8.7691e-20)
(3.03354 -2.03355 0)
(3.08186 -1.74183 5.50933e-20)
(3.229 -1.66521 8.267e-21)
(2.0497 -2.24895 -8.01106e-20)
(2.30353 -2.31868 0)
(1.85703 1.46907 2.07896e-20)
(3.09755 1.44652 3.80279e-20)
(1.85576 -2.10077 4.7475e-20)
(1.55082 -1.76952 2.87591e-21)
(1.67802 -1.94078 -1.29731e-19)
(2.44017 -2.23026 0)
(2.66251 -2.08653 -2.15347e-20)
(1.46335 -1.58297 9.59707e-20)
(1.39393 -1.44695 -1.16851e-19)
(1.49484 -1.59394 1.08317e-19)
(2.89479 -1.79435 6.22611e-20)
(3.16671 -1.45422 -4.63608e-20)
(3.33146 -1.38087 -3.10901e-20)
(2.15607 -2.27583 0)
(1.66193 -1.70898 -2.00236e-21)
(1.43852 -1.48897 -3.14081e-21)
(1.56509 -1.61228 -1.70777e-20)
(1.88185 -1.80723 -1.54088e-20)
(1.76969 -1.77171 1.54966e-20)
(2.09017 -1.82765 -2.38489e-23)
(1.99284 -1.82133 0)
(2.25822 -1.84442 0)
(2.17817 -1.83404 0)
(2.40752 -1.88215 0)
(2.33493 -1.86085 0)
(2.54538 -1.9217 0)
(2.47739 -1.90446 0)
(2.68101 -1.91413 -3.34507e-23)
(2.61313 -1.92716 0)
(2.81909 -1.80445 0)
(2.75011 -1.87559 0)
(2.95256 -1.53903 0)
(2.88709 -1.69397 0)
(3.07082 -1.09166 0)
(3.01474 -1.33783 0)
(3.15385 -0.493219 0)
(3.11836 -0.806907 0)
(3.18427 0.169059 7.2839e-23)
(3.17595 -0.163433 0)
(3.16005 0.785183 -4.99415e-24)
(3.17891 0.48942 0)
(3.08673 1.27183 0)
(3.12877 1.04735 0)
(2.98044 1.60451 -9.38395e-23)
(3.03646 1.45742 0)
(2.86108 1.7851 0)
(2.92135 1.71327 0)
(2.74198 1.83391 0)
(2.80111 1.82324 0)
(2.62687 1.80395 0)
(2.68402 1.82473 0)
(2.51327 1.75335 0)
(2.57021 1.77845 0)
(2.39583 1.71437 0)
(2.45549 1.73157 0)
(2.26737 1.69374 -4.36988e-23)
(2.33356 1.70222 0)
(2.1215 1.6751 3.47553e-21)
(2.19665 1.68666 0)
(1.95844 1.60294 -4.45946e-21)
(2.04142 1.65062 0)
(1.80252 1.40671 -4.12732e-21)
(1.87784 1.52276 4.32158e-21)
(1.88258 1.34162 -1.16523e-20)
(1.73568 1.24631 0)
(1.79899 1.29853 -1.4972e-20)
(2.10625 1.4088 0)
(1.98685 1.3805 0)
(2.37831 1.43905 0)
(2.23807 1.43155 0)
(2.66551 1.4163 0)
(2.5218 1.43653 0)
(2.9356 1.36431 -2.71267e-20)
(2.80506 1.39499 -7.86363e-21)
(3.16359 1.27329 -5.57277e-21)
(3.05531 1.32187 -5.1793e-20)
(3.11171 1.50309 -2.03423e-20)
(3.25965 1.21639 -4.23314e-21)
(3.18524 1.3806 8.89859e-21)
(2.9541 1.64034 -3.70596e-21)
(3.03362 1.5882 2.40912e-20)
(2.80318 1.6732 6.28685e-24)
(2.88165 1.66395 0)
(2.65952 1.65894 0)
(2.73263 1.66856 0)
(2.52222 1.63019 5.68838e-24)
(2.59214 1.64407 0)
(2.38175 1.59943 0)
(2.45307 1.61495 0)
(2.22957 1.55766 0)
(2.30663 1.5812 0)
(2.06263 1.48032 0)
(2.14702 1.52546 0)
(1.88659 1.33294 0)
(1.97463 1.41769 0)
(1.71741 1.08314 8.96671e-23)
(1.79984 1.22229 0)
(1.57857 0.718932 0)
(1.64269 0.914811 0)
(1.49474 0.262409 0)
(1.52848 0.499385 0)
(1.48421 -0.23112 0)
(1.47988 0.0158122 0)
(1.54998 -0.694336 0)
(1.50798 -0.470494 0)
(1.67669 -1.0768 4.20261e-23)
(1.60744 -0.897455 0)
(1.83656 -1.36241 0)
(1.75427 -1.23172 0)
(2.00767 -1.55254 0)
(1.92152 -1.46929 0)
(2.18266 -1.65595 -3.96864e-23)
(2.09505 -1.61323 0)
(2.35351 -1.72159 7.11041e-24)
(2.26933 -1.68898 0)
(2.51667 -1.80537 -8.19888e-23)
(2.43555 -1.75978 0)
(2.68308 -1.91208 0)
(2.59886 -1.85697 0)
(2.86072 -2.01408 0)
(2.77019 -1.96688 0)
(3.05416 -2.03135 1.10007e-23)
(2.9556 -2.0411 0)
(3.25988 -1.82565 0)
(3.15682 -1.96433 0)
(3.47029 -1.32866 5.52199e-20)
(3.36366 -1.6109 0)
(3.42116 -1.05569 6.13292e-21)
(3.56816 -1.00507 -9.99044e-20)
(1.9959 -2.20542 0)
(1.34857 -1.34909 -1.40092e-19)
(1.7926 -1.98303 -3.36764e-20)
(1.76316 1.34305 4.12074e-21)
(1.68982 1.19696 0)
(3.22592 1.05956 -5.33672e-21)
(3.32384 1.01201 1.18842e-20)
(2.29572 -2.2644 0)
(2.4556 -2.09544 0)
(1.59125 -1.77875 0)
(2.70944 -1.87624 2.12074e-20)
(2.96578 -1.51234 4.58973e-20)
(3.24629 -1.11564 0)
(3.49669 -0.692815 -1.17019e-19)
(3.64916 -0.655338 8.20694e-20)
(2.11686 -2.21127 0)
(1.45023 -1.38478 7.77668e-24)
(1.25168 -1.13376 -4.05958e-20)
(1.25208 -1.03187 1.32532e-19)
(1.35349 -1.23614 -3.89027e-20)
(1.66753 -1.59939 8.1966e-21)
(1.56249 -1.5021 1.69952e-20)
(1.8867 -1.70769 0)
(1.77714 -1.66671 0)
(2.09559 -1.73786 2.3832e-23)
(1.99623 -1.72699 0)
(2.27441 -1.7636 0)
(2.18766 -1.74874 0)
(2.44086 -1.807 0)
(2.35886 -1.78354 0)
(2.59984 -1.84775 0)
(2.52095 -1.83025 0)
(2.75886 -1.84007 3.34507e-23)
(2.67897 -1.85317 0)
(2.92073 -1.73099 0)
(2.83989 -1.80162 0)
(3.07654 -1.47077 0)
(3.00013 -1.62216 0)
(3.21177 -1.03799 0)
(3.14816 -1.2753 0)
(3.3022 -0.464777 0)
(3.26421 -0.764834 0)
(3.33053 0.16799 -6.1196e-23)
(3.32444 -0.149643 0)
(3.29539 0.757023 -5.85227e-24)
(3.32066 0.474291 0)
(3.20511 1.2217 0)
(3.25625 1.00731 0)
(3.07835 1.54216 4.19448e-24)
(3.14482 1.39977 0)
(2.93812 1.72004 0)
(3.00875 1.64869 0)
(2.79891 1.77057 0)
(2.86797 1.75881 0)
(2.66524 1.74275 0)
(2.73139 1.76262 0)
(2.53542 1.69227 0)
(2.60017 1.71764 0)
(2.40383 1.65021 0)
(2.47028 1.66928 0)
(2.26295 1.62258 8.15345e-23)
(2.33508 1.63473 0)
(2.10652 1.59662 4.17325e-23)
(2.18683 1.61126 0)
(1.93437 1.52561 -6.80847e-21)
(2.02199 1.57083 6.42356e-21)
(1.84694 1.45237 -6.48095e-21)
(1.84694 1.12891 -3.19638e-21)
(1.67852 1.04942 -6.17242e-22)
(1.75407 1.09354 9.04769e-21)
(2.08899 1.18903 0)
(1.95965 1.16299 0)
(2.37894 1.21057 1.3606e-25)
(2.22957 1.20665 0)
(2.69009 1.18739 0)
(2.53345 1.20676 0)
(2.98055 1.13617 -1.53504e-20)
(2.8402 1.16556 1.60162e-20)
(3.11076 1.10007 -1.39634e-21)
(3.18282 1.42115 5.53685e-22)
(3.33951 1.15123 9.7607e-21)
(3.26108 1.30382 -1.22432e-21)
(3.01514 1.55373 3.26414e-21)
(3.09793 1.50114 -3.26847e-21)
(2.84812 1.59477 4.18824e-23)
(2.93164 1.58145 0)
(2.69233 1.58535 2.86461e-23)
(2.7708 1.59287 0)
(2.54448 1.55808 5.75859e-24)
(2.61986 1.57198 0)
(2.39582 1.52441 0)
(2.47208 1.54188 0)
(2.23824 1.4766 0)
(2.31881 1.50338 0)
(2.06863 1.39337 0)
(2.15455 1.44117 0)
(1.89235 1.24515 0)
(1.98021 1.3293 0)
(1.72489 1.00457 -3.95468e-23)
(1.80602 1.13758 0)
(1.58926 0.662187 -3.36575e-23)
(1.65147 0.845544 0)
(1.50971 0.238725 0)
(1.54113 0.457994 0)
(1.50321 -0.216327 0)
(1.49692 0.0112918 0)
(1.57091 -0.644768 0)
(1.52844 -0.437191 0)
(1.696 -1.0046 -4.20261e-23)
(1.62789 -0.83476 0)
(1.85276 -1.28087 2.82621e-23)
(1.772 -1.15348 0)
(2.02345 -1.46806 0)
(1.93685 -1.38605 0)
(2.20304 -1.57026 0)
(2.11265 -1.52775 0)
(2.38028 -1.63823 7.07152e-24)
(2.29284 -1.60423 0)
(2.55136 -1.72095 6.76212e-23)
(2.46587 -1.67688 0)
(2.73101 -1.8198 0)
(2.63928 -1.76915 0)
(2.92893 -1.90997 0)
(2.82752 -1.86919 0)
(3.14603 -1.91264 1.16937e-23)
(3.03546 -1.92974 0)
(3.37028 -1.70957 0)
(3.25846 -1.84288 0)
(3.58368 -1.25207 -3.33167e-20)
(3.47867 -1.51051 0)
(3.76753 -0.617057 -3.54009e-20)
(3.68061 -0.94967 7.01275e-20)
(1.38733 -1.2947 2.21063e-19)
(1.28786 -1.2001 1.51359e-19)
(3.70771 -0.279118 4.06081e-20)
(3.82795 -0.266022 -4.05989e-20)
(1.9428 -2.09845 0)
(1.62753 1.01187 -7.64896e-21)
(3.40633 0.959127 4.26135e-20)
(1.18498 -0.812043 -2.35613e-20)
(2.29021 -2.14271 0)
(1.19474 -0.90374 -1.0577e-20)
(1.7173 -1.78192 0)
(2.48253 -1.88377 0)
(1.56573 -1.60735 0)
(2.75886 -1.58952 0)
(3.03263 -1.1741 0)
(3.30378 -0.7435 1.15062e-20)
(3.54561 -0.305301 3.60921e-20)
(3.73698 0.110821 0)
(3.86254 0.104366 7.53691e-20)
(2.08577 -2.08424 0)
(1.27922 -0.929787 -5.06389e-20)
(1.14076 -0.536206 -1.1537e-19)
(1.18242 -0.46343 -4.91254e-20)
(1.21751 -0.712386 5.55675e-20)
(1.47858 -1.26871 -3.23857e-21)
(1.37925 -1.11889 1.56695e-20)
(1.68847 -1.47927 -6.10564e-21)
(1.58164 -1.38535 5.92739e-24)
(1.90574 -1.59644 -1.62838e-23)
(1.79853 -1.5492 0)
(2.11224 -1.64091 -1.54455e-23)
(2.01253 -1.62375 0)
(2.29569 -1.67393 0)
(2.20595 -1.6561 0)
(2.47242 -1.72041 0)
(2.38423 -1.69578 0)
(2.64935 -1.76195 0)
(2.56071 -1.74424 0)
(2.82959 -1.75395 0)
(2.73895 -1.76728 0)
(3.01185 -1.64568 0)
(2.92098 -1.7155 0)
(3.18566 -1.39281 0)
(3.10073 -1.53931 0)
(3.33289 -0.978796 0)
(3.26421 -1.2051 0)
(3.42768 -0.435061 0)
(3.38825 -0.719388 0)
(3.45389 0.164501 6.9174e-24)
(3.44977 -0.136528 0)
(3.40974 0.722027 -5.70057e-23)
(3.44034 0.454658 0)
(3.30461 1.1619 0)
(3.36369 0.958567 0)
(3.16142 1.47004 7.72562e-23)
(3.23605 1.33221 0)
(3.00515 1.64563 0)
(3.0838 1.57454 0)
(2.84989 1.69832 0)
(2.92695 1.68517 0)
(2.70097 1.67346 0)
(2.77457 1.69191 0)
(2.55765 1.62423 0)
(2.62891 1.64933 0)
(2.41459 1.58037 0)
(2.48657 1.60093 0)
(2.26414 1.54743 -3.78357e-23)
(2.34089 1.56274 0)
(2.09926 1.51466 -6.85763e-24)
(2.18382 1.53267 0)
(1.9218 1.44473 -3.10687e-21)
(2.01148 1.48816 0)
(1.74283 1.27373 0)
(1.83071 1.37506 7.94951e-21)
(1.59823 0.963538 8.26501e-21)
(1.66486 1.13787 0)
(1.6361 0.82407 1.04724e-20)
(1.54401 0.755173 0)
(1.5788 0.789341 -1.03076e-20)
(1.81908 0.884788 0)
(1.71806 0.855643 1.33122e-20)
(2.07477 0.930313 0)
(1.93898 0.911396 0)