/*--------------------------------*- C++ -*----------------------------------*\
  =========                 |
  \\      /  F ield         | OpenFOAM: The Open Source CFD Toolbox
   \\    /   O peration     | Website:  https://openfoam.org
    \\  /    A nd           | Version:  10
     \\/     M anipulation  |
\*---------------------------------------------------------------------------*/
FoamFile
{
    format      ascii;
    class       volScalarField;
    location    "20.5";
    object      p;
}
// * * * * * * * * * * * * * * * * * * * * * * * * * * * * * * * * * * * * * //

dimensions      [0 2 -2 0 0 0 0];

internalField   nonuniform List<scalar> 
28942
(
-6.2226
-6.28277
-0.730079
1.38415
1.43073
-0.0833709
-0.068991
-0.0818481
0.490188
0.521147
-2.98408
-2.80866
-3.07718
-3.18069
0.00293412
0.00470864
2.29966
2.46805
0.751303
1.56541
1.39686
1.41928
-2.84069
-2.74741
-3.0029
-2.95752
4.40543
4.63843
0.223448
0.236905
-0.0889583
-0.0896474
0.0513253
-0.00170086
-0.0929109
0.298735
2.22263
2.99095
-0.0977187
1.8395
1.21704
1.17537
-0.0536791
-0.037045
0.103136
-0.0664918
-0.0584733
-0.053851
-0.0528191
-0.0457302
-0.0303234
0.531288
0.538335
0.537462
0.572749
-2.23961
-1.68493
-2.99317
-2.98033
-2.90427
-2.93475
-2.97189
-3.02253
-0.459163
-0.918694
-0.165161
0.135353
2.58014
2.44936
-6.27345
-6.25359
-6.20591
2.57351
2.47919
2.58896
-3.1646
-3.15682
-2.48344
-0.680723
-1.00791
-0.486173
-1.12898
-6.55244
-6.90599
-1.59533
-0.944433
-0.371974
-0.595482
-1.14078
-0.954241
-0.662031
-0.305875
-3.43333
-3.11999
-3.47611
-3.59339
-3.65421
-0.477682
-0.248806
-6.90163
1.47691
1.4908
1.54137
1.47511
-0.607592
-0.531509
-0.626238
0.412701
0.450422
0.483194
-3.08418
-3.15048
-6.34923
-6.65501
-6.48403
4.79019
4.41618
4.08589
4.45755
-1.27386
-0.169754
-0.575028
0.602535
0.425365
5.26187
5.47746
5.18726
0.504229
0.772933
-0.0570852
-0.0524767
-0.0624727
2.7215
3.33132
0.89618
0.860858
1.06274
1.36193
2.2062
1.45956
-3.74063
-3.64428
0.737103
0.298451
0.239523
-1.32183
-1.45546
-1.29722
-3.62333
0.202346
0.0328716
-1.52369
-0.0316635
-0.0500908
-0.0567832
-0.042553
0.789914
-0.15807
-4.41826
-5.01355
-5.32803
-6.27846
-5.3818
-0.0215256
-2.45863
-2.16007
1.52967
1.58691
2.04164
1.8988
1.34698
0.119788
0.124162
0.622982
0.581868
0.286176
0.196413
0.313834
0.394512
0.349969
0.335068
0.40209
0.612443
0.496901
0.333879
0.46557
0.740466
1.08961
1.25184
-4.6409
-3.92335
-6.42003
-0.0672729
-0.0507603
-4.60518
-4.93756
-0.0411797
-0.0346233
-0.0389544
-0.0480192
-3.65591
-3.65867
-3.49951
-3.27178
-3.24773
-3.43833
-2.83859
-2.81834
-2.87086
-2.78481
-2.97195
-2.81781
4.62682
4.35902
4.68476
-0.463937
-0.369662
-0.381866
2.67636
2.60302
2.62763
-2.53545
-2.80439
-2.28617
-3.07722
-3.33911
-3.5678
-3.61583
-3.74274
-3.79426
-3.3874
-3.12173
-2.84193
-2.56587
-2.31309
-3.85596
-3.91433
-2.06294
-2.08301
-1.87257
-3.89838
-3.96466
-1.88577
-3.87147
-3.76863
-3.92606
-3.81704
-1.72221
-1.72786
-3.6014
-3.64254
-1.60055
-1.60203
-3.38286
-3.41462
-1.50829
-1.50398
-3.13056
-3.15199
-1.44338
-1.43289
-2.8626
-2.87437
-1.40537
-1.38786
-2.59604
-2.59893
-1.39317
-1.36821
-2.34336
-2.33943
-1.4062
-1.37376
-2.11353
-2.10354
-1.44562
-1.40495
-1.91083
-1.89481
-1.51068
-1.46166
-1.73987
-1.71556
-1.60747
-1.54711
-1.59669
-1.5685
-1.73709
-1.66334
-1.48318
-1.45125
-1.63553
-1.77802
-1.90728
-1.81362
-1.45706
-1.53107
-1.38981
-1.41088
-1.42425
-1.39411
-1.56566
-1.48097
-1.82574
-1.67996
-2.20938
-1.9998
-2.70518
-2.45093
-3.21312
-2.96277
-3.60314
-3.43357
-3.75677
-3.71142
-3.62988
-3.72848
-3.2628
-3.4699
-2.77214
-3.02457
-2.28269
-2.52088
-1.87786
-2.06669
-1.58835
-1.7191
-1.4904
-1.40507
-1.36489
-1.66517
-1.39635
-1.51641
-2.05324
-1.84418
-2.55077
-2.29019
-3.10689
-2.82758
-3.60271
-3.37169
-3.89242
-3.7808
-3.88647
-3.92972
-3.58473
-3.76655
-3.09346
-3.35423
-2.54104
-2.81618
-2.05389
-2.28279
-1.6935
-1.8578
-1.46229
-1.56321
-1.33891
-1.38825
-1.31254
-1.31379
-1.38329
-1.3355
-1.55552
-1.45578
-1.687
-1.96332
-1.42353
-1.30536
-1.99898
-1.84665
-2.18894
-2.11515
-1.63455
-1.9806
-1.78632
-1.44093
-1.52152
-1.36261
-1.38927
-1.38305
-1.36042
-1.50736
-1.4317
-1.74241
-1.61047
-2.09708
-1.9038
-2.55518
-2.31512
-3.03077
-2.79901
-3.40392
-3.24126
-3.5506
-3.5083
-3.43548
-3.52654
-3.09388
-3.28654
-2.63896
-2.87279
-2.18707
-2.40666
-1.81749
-1.98904
-1.55929
-1.67412
-1.35799
-1.38616
-1.41777
-1.47433
-1.32014
-1.22761
-1.24183
-1.30926
-1.58677
-1.44005
-1.96751
-1.76186
-2.45775
-2.20087
-3.00534
-2.73034
-3.49368
-3.26596
-3.78137
-3.67015
-3.77908
-3.81873
-3.48837
-3.66611
-3.00205
-3.26105
-2.46513
-2.73305
-1.98409
-2.21003
-1.62691
-1.78908
-1.39394
-1.49547
-1.26658
-1.31843
-1.22947
-1.23729
-1.27944
-1.24347
-1.4221
-1.33828
-1.66562
-1.53123
-2.21446
-2.03045
-1.82327
-2.20987
-1.38838
-1.1595
-2.44161
-2.47425
-2.23304
-1.99686
-2.35342
-1.38541
-1.36254
-1.20646
-1.11794
-2.4708
-2.7478
-3.02823
-2.76008
-1.96077
-2.19953
-1.60505
-1.7621
-1.40042
-1.48585
-1.31221
-1.34364
-1.31986
-1.30434
-1.4252
-1.35996
-1.63475
-1.5165
-1.95451
-1.78071
-2.37024
-2.15288
-2.80673
-2.59296
-3.15106
-2.99898
-3.29119
-3.25012
-3.18824
-3.26981
-2.8801
-3.0541
-2.46897
-2.68031
-2.06139
-2.2592
-1.7306
-1.88364
-1.50453
-1.60373
-1.4318
-1.33983
-1.38339
-1.37486
-1.28181
-1.22617
-1.06545
-1.13435
-1.48386
-1.34253
-1.85036
-1.65266
-2.32173
-2.07474
-2.84853
-2.58381
-3.31976
-3.09976
-3.60026
-3.49111
-3.60086
-3.63798
-3.32794
-3.49486
-2.86474
-3.11208
-2.34789
-2.60506
-1.88512
-2.10425
-1.53738
-1.69611
-1.30676
-1.40788
-1.17683
-1.23044
-1.1306
-1.14402
-1.16112
-1.13641
-1.2715
-1.20573
-1.4683
-1.35947
-1.74417
-1.59891
-2.17379
-1.8909
-2.7075
-2.44274
-1.3636
-1.01901
-3.03699
-2.4362
-3.41045
-2.02861
-2.33397
-3.31517
-3.52979
-2.60616
-2.96382
-3.15248
-2.42577
-2.71731
-1.90117
-2.14394
-1.54506
-1.70232
-1.33587
-1.42461
-1.2405
-1.27575
-1.23668
-1.22772
-1.32314
-1.2682
-1.50538
-1.40212
-1.78782
-1.6341
-2.15674
-1.96404
-2.54798
-2.35593
-2.85775
-2.71983
-2.98926
-2.94942
-2.90072
-2.97135
-2.63066
-2.78351
-2.26815
-2.45463
-1.90844
-2.08292
-1.61772
-1.7519
-1.42252
-1.50768
-1.32499
-1.36221
-1.31831
-1.3099
-1.40259
-1.35003
-1.38898
-1.34719
-1.38847
-1.19833
-1.28213
-0.993923
-1.10026
-0.96064
-0.881464
-0.91234
-1.11744
-1.02865
-1.36251
-1.22845
-1.70817
-1.52202
-2.1518
-1.91944
-2.64693
-2.3981
-3.09055
-2.88326
-3.35727
-3.25267
-3.36248
-3.39491
-3.1097
-3.26426
-2.68085
-2.91012
-2.19662
-2.43799
-1.7623
-1.96843
-1.43088
-1.583
-1.20678
-1.3061
-1.07571
-1.13066
-1.02165
-1.03988
-1.03488
-1.02016
-1.11524
-1.06636
-1.26702
-1.18206
-1.48631
-1.37037
-1.72266
-1.60797
-2.14488
-1.82131
-2.98443
-2.6759
-3.34467
-2.62516
-1.2491
-1.28771
-0.991863
-0.872981
-3.68088
-2.4677
-3.64558
-3.19949
-2.22445
-1.89171
-3.38139
-2.86356
-2.81447
-3.01212
-2.30914
-2.57892
-1.80287
-2.03948
-1.45832
-1.61096
-1.25049
-1.33951
-1.15029
-1.18847
-1.13661
-1.13346
-1.20488
-1.1602
-1.35943
-1.27118
-1.60295
-1.47023
-1.92274
-1.75553
-2.26478
-2.09624
-2.5381
-2.41594
-2.65839
-2.62074
-2.58525
-2.64455
-2.35438
-2.48546
-2.04187
-2.20279
-1.7312
-1.88184
-1.48105
-1.59628
-1.31683
-1.38766
-1.2402
-1.26831
-1.23382
-1.44606
-1.40674
-1.43958
-1.37883
-1.42582
-1.21458
-1.30699
-1.10745
-0.848864
-0.768726
-0.800055
-0.998522
-0.914409
-1.22651
-1.10168
-1.54648
-1.37466
-1.95481
-1.74103
-2.41036
-2.18138
-2.8193
-2.62807
-3.06652
-2.96921
-3.07571
-3.10272
-2.84707
-2.98759
-2.4569
-2.66545
-2.01406
-2.23523
-1.61485
-1.80463
-1.30685
-1.44864
-1.09461
-1.18956
-0.965384
-1.02054
-0.905257
-0.927455
-0.903941
-0.897604
-0.959229
-0.924399
-1.07175
-1.00836
-1.23728
-1.14891
-1.42769
-1.33241
-1.56672
-1.50982
-1.92202
-1.59663
-3.25401
-2.88884
-1.3493
-0.751874
-3.60543
-3.75011
-3.82535
-2.78641
-2.5652
-3.51135
-3.5395
-3.80378
-2.26419
-1.92178
-1.59664
-3.10267
-2.99533
-3.25787
-3.16977
-2.59954
-2.79654
-2.14354
-2.38636
-1.67716
-1.8977
-1.34836
-1.49455
-1.14692
-1.23383
-1.04515
-1.08493
-1.02352
-1.02522
-1.0751
-1.03999
-1.20278
-1.12936
-1.40737
-1.29558
-1.67821
-1.53636
-1.97016
-1.82595
-2.20583
-2.10013
-2.31219
-2.27825
-2.25472
-2.30291
-2.06188
-2.17179
-1.79829
-1.93416
-1.53602
-1.66312
-1.32633
-1.42259
-1.19233
-1.24939
-1.13764
-1.1552
-1.16157
-1.13972
-1.27113
-1.20472
-1.48794
-1.35997
-1.43533
-1.51275
-1.51362
-1.43222
-1.48558
-1.25473
-1.3546
-1.01179
-1.13718
-0.753703
-0.882883
-0.654087
-0.628449
-0.634134
-0.733838
-0.687357
-0.872808
-0.79558
-1.08232
-0.967948
-1.37301
-1.21734
-1.74102
-1.5486
-2.15072
-1.94478
-2.51925
-2.34671
-2.74368
-2.65503
-2.75527
-2.77751
-2.55385
-2.67831
-2.20545
-2.39192
-1.80841
-2.00693
-1.4479
-1.61977
-1.167
-1.29659
-0.970556
-1.05895
-0.8468
-0.900479
-0.783208
-0.808188
-0.770282
-0.770747
-0.805111
-0.781723
-0.886255
-0.840099
-1.00692
-0.94251
-1.14835
-1.07682
-1.26204
-1.21278
-1.29895
-1.29143
-1.57044
-1.28018
-3.48577
-3.2702
-3.76186
-1.17477
-1.26269
-0.772084
-0.639471
-3.071
-2.90341
-3.90791
-2.6156
-2.25981
-1.88397
-1.51768
-1.24325
-3.30666
-2.96582
-3.20764
-2.85578
-2.97571
-2.72803
-2.88663
-2.36089
-2.54534
-1.9461
-2.16426
-1.52416
-1.72525
-1.21894
-1.35514
-1.0294
-1.11172
-0.929214
-0.969327
-0.901396
-0.90711
-0.938197
-0.911685
-1.04081
-0.98127
-1.20871
-1.1168
-1.43236
-1.31504
-1.67538
-1.55504
-1.87369
-1.78447
-1.96412
-1.93522
-1.92187
-1.95963
-1.76459
-1.85466
-1.54728
-1.6594
-1.33122
-1.4358
-1.16047
-1.23843
-1.05556
-1.09928
-1.02168
-1.02973
-1.05903
-1.03177
-1.10682
-1.59146
-1.46761
-1.54321
-1.60148
-1.61012
-1.5047
-1.56569
-1.31339
-1.42039
-1.05151
-1.18725
-0.911581
-0.541591
-0.510255
-0.519783
-0.617874
-0.574275
-0.74495
-0.67436
-0.93452
-0.83135
-1.19386
-1.05538
-1.51912
-1.34931
-1.88003
-1.69865
-2.20486
-2.05269
-2.40407
-2.32501
-2.41717
-2.43508
-2.24347
-2.35117
-1.93937
-2.10251
-1.59048
-1.76517
-1.27089
-1.42376
-1.01857
-1.1354
-0.839231
-0.920314
-0.723024
-0.774056
-0.658396
-0.684927
-0.636657
-0.642475
-0.654631
-0.640735
-0.710264
-0.677975
-0.796642
-0.750389
-0.898063
-0.846846
-0.983209
-0.945079
-1.0207
-1.01016
-0.989459
-1.01333
-3.73548
-3.47197
-1.18881
-0.952633
-3.66161
-1.36922
-0.513429
-2.73208
-3.209
-3.08185
-3.81776
-2.96268
-3.86461
-2.6161
-2.21963
-1.81857
-1.44738
-1.12293
-0.90162
-3.46554
-2.46179
-2.56679
-2.20531
-2.34779
-2.57842
-2.52305
-2.42117
-2.53196
-2.10427
-2.2743
-1.72583
-1.92076
-1.35411
-1.532
-1.07787
-1.20203
-0.902784
-0.979282
-0.80656
-0.845869
-0.774469
-0.783256
-0.798549
-0.779582
-0.878424
-0.831557
-1.01256
-0.938935
-1.1927
-1.09806
-1.39005
-1.29208
-1.55273
-1.47932
-1.62689
-1.60351
-1.59812
-1.62666
-1.47297
-1.54503
-1.29812
-1.3884
-1.12477
-1.20849
-0.990094
-1.05108
-0.9121
-0.943504
-0.896514
-0.896399
-0.945131
-0.912661
-1.06171
-0.994501
-1.25224
-1.14764
-1.59384
-1.37235
-1.4946
-1.71229
-1.66776
-1.70913
-1.72584
-1.59361
-1.66407
-1.38622
-1.50063
-1.10767
-1.25316
-0.808398
-0.95745
-0.528009
-0.663888
-0.398395
-0.402518
-0.395955
-0.433142
-0.411056
-0.503279
-0.463109
-0.618918
-0.55493
-0.788069
-0.696384
-1.01564
-0.894562
-1.29758
-1.15068
-1.60901
-1.45254
-1.88957
-1.75807
-2.06255
-1.99363
-2.07634
-2.09036
-1.92935
-2.02078
-1.66961
-1.8092
-1.36933
-1.52
-1.09148
-1.22482
-0.868728
-0.972382
-0.707022
-0.780583
-0.599091
-0.64701
-0.534965
-0.562159
-0.506716
-0.516658
-0.510894
-0.504849
-0.545467
-0.524561
-0.605094
-0.57276
-0.677042
-0.640674
-0.739416
-0.710848
-0.771827
-0.760709
-0.759073
-0.771691
-0.700705
-0.734924
-3.54914
-3.32014
-0.846842
-0.661614
-3.73953
-3.27826
-2.03458
-2.35829
-2.85795
-3.80486
-2.95876
-1.11999
-1.23118
-0.553222
-0.419562
-3.74206
-2.56228
-2.13858
-1.72988
-1.36318
-1.05109
-1.84855
-1.52482
-1.36122
-0.79758
-0.624288
-1.64869
-3.54053
-1.85862
-1.68763
-2.09948
-2.00356
-2.2004
-2.16053
-2.11005
-2.18335
-1.83605
-1.98872
-1.49731
-1.66903
-1.17428
-1.3292
-0.929205
-1.0401
-0.770839
-0.840382
-0.680852
-0.718264
-0.646282
-0.657279
-0.659806
-0.647193
-0.719984
-0.684162
-0.824404
-0.76693
-0.96575
-0.891384
-1.12177
-1.04412
-1.25184
-1.19294
-1.31179
-1.29286
-1.29269
-1.31379
-1.19543
-1.25171
-1.05824
-1.12909
-0.922941
-0.988072
-0.820301
-0.866256
-0.76588
-0.786579
-0.765493
-0.758751
-0.821894
-0.786403
-0.937559
-0.872366
-1.02075
-1.73338
-1.50108
-1.63067
-1.84729
-1.80573
-1.83167
-1.85541
-1.69636
-1.77748
-1.46893
-1.59257
-1.17513
-1.32839
-0.854887
-1.01425
-0.700103
-0.294281
-0.289376
-0.287786
-0.328745
-0.308577
-0.393441
-0.356668
-0.497421
-0.44014
-0.646588
-0.566135
-0.843362
-0.739115
-1.08351
-0.958735
-1.34697
-1.21468
-1.5845
-1.47306
-1.73189
-1.67293
-1.74557
-1.75637
-1.62349
-1.69967
-1.40581
-1.52301
-1.15219
-1.27975
-0.914814
-1.02911
-0.721512
-0.811917
-0.578058
-0.643768
-0.479204
-0.523587
-0.416748
-0.443943
-0.383808
-0.396871
-0.376989
-0.37725
-0.39452
-0.38283
-0.432863
-0.411504
-0.482815
-0.457262
-0.528677
-0.507248
-0.55511
-0.54525
-0.551092
-0.557386
-0.514045
-0.535768
-0.464525
-0.490889
-2.10802
-0.590813
-0.751733
-0.57142
-0.433166
-0.444033
-3.36874
-3.07837
-3.72573
-3.27217
-1.35237
-0.299832
-2.58395
-3.69041
-2.88979
-3.53429
-2.46023
-2.02552
-1.62587
-1.27392
-0.983632
-1.20717
-0.937421
-0.826898
-0.306869
-0.31002
-0.432259
-1.07121
-1.44479
-1.84935
-0.722064
-0.562637
-3.52916
-1.22369
-1.06943
-1.54017
-1.3875
-1.75684
-1.66919
-1.85225
-1.81648
-1.78635
-1.84467
-1.56043
-1.68696
-1.27052
-1.41833
-0.992629
-1.12596
-0.779053
-0.87626
-0.638301
-0.700445
-0.555756
-0.590612
-0.520199
-0.53263
-0.525178
-0.517823
-0.568602
-0.542206
-0.6476
-0.603944
-0.755617
-0.698696
-0.875714
-0.815814
-0.977033
-0.930941
-1.02561
-1.00964
-1.01202
-1.0276
-0.938014
-0.980985
-0.832981
-0.887207
-0.730275
-0.779494
-0.654921
-0.688104
-0.620284
-0.632048
-0.632152
-0.620167
-0.693858
-0.656534
-0.808391
-0.74438
-0.978733
-0.88656
-1.19396
-1.08195
-1.6334
-1.30929
-1.4771
-1.87439
-1.76819
-1.98775
-1.9485
-1.96227
-1.99193
-1.80841
-1.8999
-1.55779
-1.69282
-1.24636
-1.40772
-0.907516
-1.07706
-0.587548
-0.743287
-0.315919
-0.44515
-0.188101
-0.202794
-0.193041
-0.198723
-0.190122
-0.230874
-0.211855
-0.290282
-0.25676
-0.383022
-0.332204
-0.513108
-0.443277
-0.681096
-0.592538
-0.882397
-0.77818
-1.10116
-0.991426
-1.29834
-1.20575
-1.42163
-1.37208
-1.43477
-1.44284
-1.3352
-1.39754
-1.15593
-1.25265
-0.945153
-1.05145
-0.74531
-0.841896
-0.57985
-0.657622
-0.454454
-0.51227
-0.365399
-0.405808
-0.305842
-0.332371
-0.269911
-0.28517
-0.254704
-0.259816
-0.258994
-0.254478
-0.28073
-0.267931
-0.313956
-0.296509
-0.347627
-0.331497
-0.369595
-0.360792
-0.369797
-0.372922
-0.346958
-0.360448
-0.317186
-0.331876
-0.309472
-3.15383
-2.84454
-0.437743
-0.318189
-3.62157
-3.19052
-2.29908
-3.50129
-2.76466
-1.03185
-1.13588
-0.339201
-0.217326
-3.26297
-2.32097
-1.89341
-1.51402
-1.19077
-0.930538
-0.733064
-0.520251
-0.456898
-0.656072
-0.942502
-1.25445
-1.60785
-0.709332
-0.569093
-0.3332
-0.453321
-3.43208
-0.700878
-0.595445
-0.967567
-0.827773
-1.23956
-1.10955
-1.43151
-1.34875
-1.51805
-1.4886
-1.47452
-1.51401
-1.29891
-1.40116
-1.05019
-1.17778
-0.812992
-0.926373
-0.630454
-0.713893
-0.507857
-0.5623
-0.433809
-0.4655
-0.398703
-0.411825
-0.397079
-0.393897
-0.426774
-0.408144
-0.484711
-0.452511
-0.564961
-0.522604
-0.654834
-0.609916
-0.731533
-0.696491
-0.769935
-0.756747
-0.759819
-0.771333
-0.704534
-0.736694
-0.62596
-0.666474
-0.550171
-0.586249
-0.497317
-0.519984
-0.478812
-0.483348
-0.500223
-0.484306
-0.565223
-0.527109
-0.677359
-0.615404
-0.836174
-0.751797
-0.930169
-1.76094
-1.41881
-1.59779
-2.00981
-1.90002
-2.12361
-2.08466
-2.09121
-2.1255
-1.92178
-2.02208
-1.64884
-1.79548
-1.31736
-1.48779
-0.964226
-1.14123
-0.626699
-0.790869
-0.475628
-0.0977007
-0.103734
-0.0980325
-0.110695
-0.102282
-0.141001
-0.123234
-0.195077
-0.164785
-0.277125
-0.232417
-0.389625
-0.329553
-0.531603
-0.457177
-0.698026
-0.612265
-0.876517
-0.787136
-1.03719
-0.961676
-1.13835
-1.09751
-1.15053
-1.15636
-1.07082
-1.12096
-0.925512
-1.00409
-0.752812
-0.840162
-0.586701
-0.667323
-0.446646
-0.512829
-0.338135
-0.388506
-0.258734
-0.295117
-0.202909
-0.228245
-0.165626
-0.182167
-0.144502
-0.153108
-0.138993
-0.139807
-0.148302
-0.141923
-0.16896
-0.157601
-0.193398
-0.181298
-0.211734
-0.2039
-0.214802
-0.215604
-0.201442
-0.209641
-0.185991
-0.192371
-0.188917
-0.185104
-0.206951
-0.196452
-0.356668
-0.245125
-0.222545
-2.90583
-2.60388
-3.43975
-3.04494
-1.23525
-0.112018
-2.04257
-3.25858
-2.59725
-2.9601
-2.15937
-1.75372
-1.40657
-1.11905
-0.889835
-0.394503
-0.222168
-0.17101
-0.14209
-0.168435
-0.273147
-0.33958
-0.579621
-0.828161
-1.0935
-1.4004
-0.710373
-0.585126
-0.478941
-0.387724
-3.26502
-0.346243
-0.280262
-0.508906
-0.420203
-0.73659
-0.61732
-0.962157
-0.854364
-1.13022
-1.05484
-1.21484
-1.18461
-1.19038
-1.2179
-1.04606
-1.1313
-0.838533
-0.944834
-0.641291
-0.735585
-0.488292
-0.558541
-0.383314
-0.430269
-0.317743
-0.346185
-0.283945
-0.297217
-0.27748
-0.277475
-0.296167
-0.283811
-0.337023
-0.314111
-0.394776
-0.364226
-0.460005
-0.427335
-0.516213
-0.490445
-0.545097
-0.534969
-0.537578
-0.546055
-0.49692
-0.520568
-0.439428
-0.46899
-0.385229
-0.410761
-0.350412
-0.364668
-0.344616
-0.343526
-0.373076
-0.354382
-0.439636
-0.401474
-0.547662
-0.488458
-0.695328
-0.616977
-0.870999
-0.78166
-1.05266
-0.962888
-1.51712
-1.1275
-1.32283
-1.87319
-1.70348
-2.12872
-2.0176
-2.2448
-2.20517
-2.20776
-2.24549
-2.02623
-2.13338
-1.73533
-1.89154
-1.38408
-1.56407
-1.01744
-1.20044
-0.667822
-0.838738
-0.362766
-0.507356
-0.123676
-0.235187
-0.0169562
-0.0280011
-0.0214946
-0.0174456
-0.0153227
-0.0312526
-0.0230458
-0.0597691
-0.0432181
-0.108632
-0.0814747
-0.180703
-0.141651
-0.277349
-0.226007
-0.396469
-0.334404
-0.532582
-0.462853
-0.67593
-0.60435
-0.804454
-0.74401
-0.88588
-0.852903
-0.896649
-0.900761
-0.833876
-0.873594
-0.717717
-0.780664
-0.57794
-0.648882
-0.441413
-0.507983
-0.324027
-0.379813
-0.230841
-0.274423
-0.160336
-0.192986
-0.108364
-0.132321
-0.0709303
-0.0880147
-0.0460789
-0.0569697
-0.0337857
-0.038328
-0.0342729
-0.0324685
-0.0458543
-0.0389167
-0.0633479
-0.0543308
-0.0784472
-0.0716396
-0.0828751
-0.0823303
-0.0763006
-0.080449
-0.0717691
-0.0725842
-0.0816981
-0.0748818
-0.103863
-0.0913183
-0.12107
-2.62497
-2.36544
-0.307522
-0.1986
-3.20213
-2.85185
-1.81962
-2.98051
-2.40462
-0.87042
-0.93429
-0.137839
-0.0384694
-2.65703
-1.98987
-1.61939
-1.31203
-1.06263
-0.865554
-0.127298
0.0150363
0.0504871
-0.0890486
-0.288847
-0.507293
-0.72976
-0.962261
-1.24249
-0.723954
-0.610963
-0.51344
-0.427824
-0.232839
-0.349411
-3.04784
-0.0806872
-0.0286889
-0.201828
-0.138958
-0.342462
-0.267279
-0.527869
-0.431123
-0.714384
-0.624056
-0.86374
-0.79566
-0.941722
-0.91344
-0.926551
-0.946696
-0.814127
-0.88116
-0.645324
-0.732561
-0.48199
-0.560141
-0.354689
-0.413303
-0.265897
-0.305851
-0.208868
-0.233877
-0.177315
-0.190202
-0.167487
-0.169833
-0.177578
-0.170151
-0.204988
-0.189383
-0.245018
-0.223783
-0.290674
-0.267745
-0.33034
-0.312122
-0.350834
-0.343646
-0.345077
-0.351348
-0.315554
-0.332679
-0.274409
-0.29546
-0.237038
-0.25435
-0.216186
-0.223955
-0.219946
-0.214672
-0.25317
-0.23269
-0.319529
-0.282059
-0.421675
-0.366073
-0.558072
-0.485935
-0.715018
-0.63619
-0.795252
-1.59547
-1.18286
-1.39276
-1.96217
-1.7874
-2.22129
-2.10773
-2.3414
-2.30039
-2.30187
-2.34175
-2.11192
-2.22388
-1.8085
-1.9714
-1.44182
-1.62978
-1.06124
-1.25055
-0.703155
-0.877997
-0.387847
-0.538245
-0.254593
0.0574379
0.0514956
0.0560758
0.0530502
0.0566016
0.0394399
0.0475937
0.0126007
0.0279526
-0.0312101
-0.00704746
-0.0941124
-0.0601972
-0.176744
-0.133058
-0.276259
-0.224734
-0.386788
-0.330568
-0.500418
-0.443924
-0.601412
-0.553922
-0.665664
-0.639577
-0.674553
-0.677525
-0.625694
-0.656739
-0.533863
-0.583746
-0.421883
-0.478936
-0.310671
-0.365171
-0.213016
-0.259705
-0.133451
-0.170953
-0.0710378
-0.10028
-0.0227323
-0.045323
0.0142292
-0.00295966
0.0411538
0.0289302
0.0577198
0.0507926
0.0630635
0.0618175
0.0577229
0.0615813
0.0453642
0.0520471
0.0333271
0.0386123
0.0286693
0.0298816
0.0303245
0.0292558
0.0270126
0.0300192
0.0127779
0.0211698
-0.0111458
0.00209096
-0.0474579
-0.027746
-0.0972987
-0.071322
-0.274869
-0.161789
-0.127292
-2.35073
-2.13203
-2.92766
-2.6292
-0.983288
0.0465296
-1.6248
-2.6887
-2.20471
-2.37624
-1.8264
-1.50062
-1.23633
-1.02521
-0.857599
0.0849585
0.202406
0.235057
-0.0602957
-0.0927062
-0.201741
0.11544
-0.0546718
-0.243713
-0.442574
-0.646849
-0.861611
-1.11673
-0.749208
-0.648046
-0.559408
-0.477546
-0.401108
-0.323859
-2.80037
0.128317
0.167741
0.0392567
0.0870425
-0.0712707
-0.0146462
-0.194168
-0.129695
-0.343825
-0.266238
-0.500451
-0.423217
-0.629722
-0.570904
-0.70043
-0.673418
-0.695807
-0.708761
-0.605303
-0.660317
-0.466057
-0.53776
-0.333737
-0.396804
-0.230772
-0.278342
-0.157381
-0.190673
-0.108552
-0.13023
-0.0796636
-0.0918446
-0.0677465
-0.0717056
-0.0713534
-0.0676891
-0.0884234
-0.0784317
-0.114873
-0.100776
-0.145343
-0.130009
-0.172042
-0.159775
-0.18564
-0.180951
-0.180841
-0.185606
-0.159565
-0.171822
-0.130756
-0.145373
-0.10609
-0.117206
-0.0956316
-0.0985972
-0.106188
-0.0979874
-0.142147
-0.120788
-0.206737
-0.170686
-0.301961
-0.25045
-0.426021
-0.360778
-0.566213
-0.495645
-0.698192
-0.634453
-0.798302
-0.753983
-1.22197
-0.826497
-1.02032
-1.64649
-1.43351
-2.01655
-1.84276
-2.27995
-2.16334
-2.40451
-2.36176
-2.3649
-2.40542
-2.1709
-2.28529
-1.86068
-2.02724
-1.48524
-1.67787
-1.09365
-1.28869
-0.728887
-0.906153
-0.410821
-0.563257
-0.151911
-0.272746
0.0399174
-0.0482994
0.119871
0.113468
0.117297
0.120667
0.121153
0.114911
0.118522
0.101306
0.109285
0.0762845
0.0903929
0.0372681
0.0586217
-0.0173235
0.0119757
-0.0877185
-0.0506594
-0.170724
-0.128003
-0.260224
-0.215074
-0.349445
-0.305369
-0.427518
-0.390866
-0.477152
-0.456983
-0.48392
-0.486248
-0.446101
-0.470152
-0.373995
-0.413264
-0.28494
-0.330513
-0.194829
-0.239216
-0.113912
-0.152851
-0.0460969
-0.0783241
0.00905126
-0.0170757
0.0537964
0.032583
0.0898974
0.0728666
0.117798
0.104893
0.136751
0.12847
0.145583
0.14248
0.144322
0.146109
0.135964
0.1407
0.126804
0.130971
0.122334
0.123905
0.120026
0.121452
0.111431
0.116845
0.0947652
0.103974
0.0707567
0.0838036
0.0376941
0.0554068
-0.00506027
0.0174638
-0.0313386
-2.10296
-1.91526
-0.247054
-0.127746
-2.64288
-2.39727
-1.46337
-2.40733
-2.01313
-0.625779
-0.646064
0.033244
0.108705
-2.12537
-1.68045
-1.40464
-1.18318
-1.00725
-0.865215
0.265509
0.365398
0.393226
0.291245
0.142947
-0.0227446
-0.203233
-0.390199
-0.580144
-0.782807
-1.02114
-0.788072
-0.698992
-0.617695
-0.539974
-0.462385
-0.381769
-0.165889
-0.296977
-2.54488
0.302238
0.336407
0.224684
0.264484
0.142974
0.185196
0.0443982
0.0949482
-0.0626826
-0.00760851
-0.186004
-0.122084
-0.318108
-0.252674
-0.428142
-0.377738
-0.492701
-0.467062
-0.491349
-0.501635
-0.417127
-0.461884
-0.306757
-0.363304
-0.202126
-0.252155
-0.119352
-0.157799
-0.0589992
-0.0865751
-0.0175386
-0.0361513
0.00848992
-0.00277641
0.0215036
0.0165173
0.0226729
0.0235199
0.013417
0.0191751
-0.00290126
0.0058833
-0.0219652
-0.0123808
-0.0387308
-0.0310147
-0.0468876
-0.0442262
-0.0425244
-0.0462939
-0.0271978
-0.0359161
-0.0074388
-0.0173304
0.00792348
0.00133137
0.0109353
0.0113753
-0.00412445
0.00593018
-0.0411104
-0.0196835
-0.102757
-0.0687031
-0.190473
-0.143355
-0.301856
-0.24366
-0.425682
-0.363434
-0.540636
-0.485743
-0.58887
-1.23765
-0.832483
-1.04268
-1.66796
-1.44235
-2.03223
-1.86067
-2.29951
-2.18033
-2.42793
-2.38352
-2.39064
-2.43018
-2.19755
-2.31166
-1.88675
-2.05376
-1.50978
-1.70324
-1.11266
-1.31194
-0.744481
-0.923117
-0.426173
-0.578577
-0.164285
-0.287345
-0.0575713
0.176725
0.174187
0.176151
0.174648
0.175958
0.168081
0.172
0.154686
0.162399
0.131653
0.144499
0.0971666
0.115917
0.0500304
0.0752253
-0.00977215
0.0215971
-0.079039
-0.0435743
-0.151635
-0.115333
-0.221377
-0.18723
-0.280876
-0.253054
-0.318265
-0.303145
-0.322911
-0.324823
-0.293647
-0.312205
-0.237255
-0.268119
-0.166529
-0.202857
-0.0936169
-0.129712
-0.0265517
-0.0590576
0.0314062
0.00361591
0.0802759
0.0568922
0.121567
0.10177
0.156372
0.139764
0.184425
0.171306
0.204452
0.195535
0.215117
0.211003
0.21642
0.216838
0.211183
0.214317
0.204644
0.207704
0.200399
0.202288
0.194852
0.198218
0.183038
0.18979
0.165414
0.174854
0.142341
0.154646
0.112673
0.128359
0.07619
0.0953385
0.0312864
0.0547699
-0.0227397
0.00474061
-0.210709
-0.0853756
-0.0524904
-1.88893
-1.72313
-2.37217
-2.17411
-0.650067
0.1707
-1.33015
-2.1528
-1.84227
-1.912
-1.56089
-1.33498
-1.1529
-1.00775
-0.887976
0.416712
0.499654
0.520332
0.434011
0.313717
0.169349
0.00555213
-0.169343
-0.348695
-0.530219
-0.723367
-0.946261
-0.842905
-0.765084
-0.690955
-0.615895
-0.535916
-0.449149
-0.355482
0.023242
-0.118937
0.00154664
-2.29962
0.449716
0.47747
0.38484
0.418232
0.308041
0.347392
0.230492
0.26972
0.144102
0.188303
0.0512446
0.0986501
-0.0535994
0.000595976
-0.163948
-0.109511
-0.25726
-0.213961
-0.314668
-0.291319
-0.313827
-0.322646
-0.252831
-0.289239
-0.16527
-0.209866
-0.0834271
-0.122506
-0.0184705
-0.0487448
0.0299016
0.00762539
0.0643226
0.0486879
0.0872218
0.0770784
0.100457
0.0949581
0.104967
0.103779
0.101541
0.104131
0.0926709
0.0975753
0.081815
0.0872632
0.0725088
0.0767547
0.0685359
0.0696161
0.072701
0.0695925
0.0838048
0.0776119
0.0970655
0.0905679
0.105792
0.102413
0.103681
0.106421
0.0859517
0.0969985
0.0492704
0.0701439
-0.00862932
0.0230736
-0.0885478
-0.0458947
-0.187659
-0.136114
-0.296539
-0.241752
-0.396252
-0.349293
-0.468013
-0.437134
-0.497694
-0.487003
-0.830396
-0.488438
-0.649546
-1.23206
-1.02948
-1.6428
-1.43708
-2.00747
-1.83435
-2.27748
-2.15696
-2.40896
-2.36299
-2.37631
-2.41329
-2.18914
-2.30022
-1.88425
-2.04836
-1.51301
-1.70348
-1.11398
-1.31969
-0.750417
-0.92804
-0.433392
-0.584942
-0.173116
-0.296077
0.0266378
-0.0655501
0.167597
0.103031
0.223192
0.219497
0.221626
0.223132
0.223671
0.220097
0.222023
0.213117
0.217175
0.200228
0.207561
0.179275
0.190847
0.149011
0.165361
0.108515
0.130076
0.0578572
0.084351
-3.20867e-05
0.0294902
-0.0592595
-0.0298897
-0.113888
-0.0874489
-0.158754
-0.137934
-0.186013
-0.175199
-0.188757
-0.190062
-0.165966
-0.180493
-0.12173
-0.146049
-0.065348
-0.0943799
-0.00616844
-0.0356446
0.0496844
0.0224131
0.0995264
0.0754078
0.143114
0.122062
0.181203
0.162792
0.214292
0.198382
0.241717
0.228801
0.261856
0.252804
0.273294
0.268702
0.276227
0.275709
0.273504
0.275298
0.26916
0.271291
0.264725
0.267115
0.256653
0.261373
0.243224
0.250527
0.225786
0.234966
0.204204
0.215565
0.178002
0.191681
0.146954
0.163131
0.110642
0.129449
0.0694314
0.0904466
0.0465856
-1.71343
-1.56628
-0.257292
-2.13258
-1.97513
-1.22489
-1.93997
-1.70082
-0.347535
-0.341855
0.163526
0.21654
-1.7403
-1.47213
-1.29144
-1.14457
-1.02644
-0.927473
0.5365
0.604151
0.61804
-0.146061
-0.0168815
0.551127
0.453062
0.331952
0.190877
0.0299469
-0.141403
-0.317618
-0.494136
-0.680737
-0.893109
-0.916022
-0.84905
-0.781271
-0.707085
-0.623099
-0.527839
-0.420794
-2.07912
0.566646
0.586432
0.514399
0.542706
0.449453
0.482891
0.377508
0.414271
0.304777
0.340975
0.229474
0.267788
0.147851
0.189643
0.0576127
0.103683
-0.0343586
0.0110546
-0.114842
-0.0769916
-0.163275
-0.145208
-0.158703
-0.167978
-0.10853
-0.13758
-0.0420307
-0.0755948
0.0195653
-0.00994924
0.0696099
0.046091
0.108178
0.0902383
0.136756
0.123616
0.15683
0.147766
0.169753
0.164108
0.176395
0.17384
0.177162
0.177451
0.17368
0.175792
0.168602
0.171178
0.164557
0.166305
0.16375
0.163644
0.167799
0.165154
0.175911
0.171513
0.184556
0.180466
0.188652
0.187497
0.183196
0.187389
0.164193
0.175585
0.128787
0.148678
0.0751588
0.104321
0.00306115
0.041346
-0.0845448
-0.0391393
-0.179346
-0.131769
-0.265884
-0.2248
-0.32641
-0.300976
-0.342255
-0.808682
-0.46892
-0.63303
-1.19598
-0.998147
-1.58957
-1.39417
-1.94691
-1.77603
-2.21527
-2.09525
-2.34865
-2.30112
-2.32279
-2.3558
-2.14599
-2.25157
-1.85284
-2.01106
-1.49186
-1.67765
-1.10799
-1.30096
-0.747389
-0.923046
-0.433804
-0.583678
-0.177795
-0.29863
0.0206368
-0.0709439
0.0988822
0.263084
0.261409
0.262803
0.261498
0.262378
0.257873
0.260019
0.250838
0.254867
0.238672
0.245508
0.219816
0.230134
0.193435
0.207605
0.158822
0.177183
0.116064
0.138373
0.0676399
0.0922768
0.018909
0.0429146
-0.0243127
-0.00367234
-0.0580116
-0.0425766
-0.0773176
-0.0699438
-0.0782857
-0.0780226
-0.0602558
-0.0719244
-0.0249072
-0.044247
0.0203814
-0.00304924
0.0688241
0.0445507
0.115785
0.0926852
0.159028
0.137923
0.198142
0.179089
0.233309
0.21621
0.264413
0.249402
0.290534
0.278189
0.310021
0.301212
0.321569
0.316811
0.325646
0.324414
0.325048
0.325689
0.322189
0.323762
0.317018
0.320068
0.307285
0.312765
0.293474
0.300772
0.276826
0.285499
0.25713
0.267381
0.234316
0.246095
0.208405
0.221776
0.179064
0.194155
0.147348
0.163364
0.116121
0.131257
0.0916825
0.102901
0.0612269
-0.0301612
0.0789291
-1.57221
-1.44037
-0.298808
-1.93353
-1.81068
-0.326248
0.259014
-1.14468
-0.164347
-1.77246
-1.59289
-0.0366697
-1.60923
-1.41399
-1.2728
-1.15772
-1.06463
-0.985531
0.626169
0.561262
0.467734
0.3483
0.208213
0.0495747
-0.121172
-0.295054
-0.470698
-0.654576
-0.857244
-1.01061
-0.95391
-0.891093
-0.815643
-0.724472
-0.615505
-0.485635
-1.89395
0.672875
0.628723
0.66721
0.672681
0.65341
0.666552
0.614157
0.636021
0.562391
0.590145
0.50062
0.532209
0.435021
0.468205
0.369034
0.401824
0.301727
0.335952
0.228752
0.265987
0.150996
0.190267
0.0727055
0.111519
0.00480378
0.0362629
-0.0314424
-0.0186875
-0.0240949
-0.0329278
0.014698
-0.00724605
0.0637582
0.0390592
0.109439
0.0874504
0.147399
0.129435
0.177486
0.163377
0.20059
0.189843
0.217724
0.209842
0.229857
0.224356
0.23771
0.234301
0.24144
0.240076
0.241827
0.241941
0.240838
0.241379
0.240338
0.240423
0.24165
0.240716
0.245653
0.243319
0.251624
0.248511
0.25699
0.254603
0.257908
0.258257
0.250393
0.255426
0.231115
0.242392
0.197647
0.216265
0.148585
0.175107
0.0840936
0.118181
0.00715159
0.0468656
-0.0747595
-0.0338093
-0.149194
-0.113752
-0.201389
-0.178886
-0.218848
-0.215029
-0.203276
-0.214618
-0.442326
-0.18511
-0.3047
-0.768196