/*--------------------------------*- C++ -*----------------------------------*\
  =========                 |
  \\      /  F ield         | OpenFOAM: The Open Source CFD Toolbox
   \\    /   O peration     | Website:  https://openfoam.org
    \\  /    A nd           | Version:  10
     \\/     M anipulation  |
\*---------------------------------------------------------------------------*/
FoamFile
{
    format      ascii;
    class       volVectorField;
    location    "20.5";
    object      U;
}
// * * * * * * * * * * * * * * * * * * * * * * * * * * * * * * * * * * * * * //

dimensions      [0 1 -1 0 0 0 0];

internalField   nonuniform List<vector> 
28942
(
(-0.35917 0.38841 -6.23432e-19)
(-0.413448 0.502035 -1.37048e-19)
(1.74634 -1.24099 1.34602e-19)
(2.53034 0.0490131 -7.54266e-19)
(2.49228 0.0783852 2.50828e-19)
(1.15175 0.0608001 0)
(1.34584 0.0856197 -5.18446e-21)
(1.49821 0.055253 5.81542e-21)
(3.00687 -0.255571 -4.69005e-20)
(2.97561 -0.224121 1.32865e-19)
(-0.58929 -0.633323 -7.86233e-19)
(-0.659311 -0.557904 3.71998e-19)
(-0.534955 -0.139712 0)
(-0.440152 -0.19328 0)
(2.52934 -0.103886 -5.02258e-22)
(2.56434 -0.103211 -8.51501e-23)
(2.35917 0.270044 1.55227e-19)
(2.31923 0.226321 2.52047e-19)
(1.1185 -1.82154 4.42172e-19)
(1.74473 -1.96946 -1.31658e-19)
(2.53818 0.53552 1.67987e-19)
(2.55687 0.526723 0)
(-0.589414 0.186148 6.76465e-19)
(-0.331933 0.0061832 3.66548e-19)
(2.36153 -1.00565 7.62435e-19)
(3.26163 -1.12887 -6.90059e-19)
(0.876942 -1.39496 2.74919e-18)
(0.843178 -1.08121 -1.108e-18)
(2.15226 -1.58761 6.18886e-20)
(1.59419 -1.09009 1.2661e-20)
(1.12537 -0.0427565 0)
(1.53125 -0.0750349 5.73895e-21)
(1.90037 -0.116201 2.45831e-20)
(2.25155 -0.0953586 3.56896e-21)
(1.46173 1.80524 -4.29035e-20)
(1.07053 1.91887 1.13617e-19)
(1.68128 1.72795 -5.82088e-19)
(1.26943 1.6915 -2.61358e-19)
(0.523366 0.0523922 6.07047e-21)
(0.59542 1.74802 -2.58035e-19)
(2.03843 -0.0246685 0)
(2.3599 -0.0748771 0)
(3.69613 -0.602135 -1.35032e-21)
(3.64526 -0.703658 -1.73736e-21)
(3.5852 -0.553814 3.92073e-21)
(1.91598 0.0713341 -3.26002e-21)
(1.88512 0.0887935 5.53094e-21)
(2.27662 0.084531 2.04521e-20)
(2.22127 0.0856076 -5.60499e-21)
(1.98895 0.0834417 1.6645e-20)
(1.84756 0.0969189 -9.44212e-21)
(2.75802 0.0817527 -7.83688e-20)
(2.76184 0.0636729 -6.99896e-20)
(3.00268 -0.302997 -8.1464e-22)
(2.96667 -0.270779 2.65886e-20)
(3.58071 -0.57907 5.96297e-19)
(4.06768 -0.647014 3.01872e-19)
(-0.182657 0.0481158 -4.83043e-19)
(-0.483812 -0.137378 0)
(-0.310086 -0.157253 1.65007e-19)
(-0.116031 0.0207177 4.25554e-19)
(0.0295591 0.0920568 -3.38456e-19)
(0.0699856 0.139695 -3.74158e-19)
(3.28865 -1.37585 0)
(3.80938 -1.28738 6.29532e-20)
(3.36617 -1.05458 -2.17321e-20)
(3.20339 -1.01023 0)
(2.32454 -0.516413 -1.70502e-19)
(2.38575 -0.557142 -1.12902e-19)
(-0.251907 0.242379 2.05128e-18)
(-0.28171 0.219962 -6.39908e-19)
(-0.347277 0.329302 1.57858e-18)
(2.40571 -0.681132 0)
(2.34266 -0.631974 6.01011e-19)
(2.20402 -1.01699 1.60477e-19)
(3.77141 0.378247 5.65147e-19)
(3.81558 0.225109 -6.27658e-19)
(3.60584 0.122725 -4.05247e-19)
(0.549543 -0.299466 5.90519e-21)
(0.842378 -0.510027 -1.60434e-19)
(2.68884 -1.78805 -1.0596e-20)
(2.47116 -1.64297 6.82711e-20)
(-0.525531 0.131878 3.17589e-18)
(-0.615249 0.107116 -1.22493e-18)
(3.4152 1.31977 -1.01363e-19)
(2.88031 1.00409 1.07349e-19)
(2.85504 1.59696 -1.49261e-19)
(2.74495 1.70298 4.36882e-19)
(2.75271 1.83156 -2.97497e-19)
(2.36696 1.65285 3.13494e-20)
(2.37198 1.74993 7.04734e-20)
(2.40445 1.83812 -7.1834e-20)
(-0.211854 -1.65497 -1.25464e-19)
(-0.133561 -1.44733 -3.03675e-20)
(-0.137432 -1.22294 6.10068e-20)
(-0.184594 -1.35003 -9.24671e-19)
(-0.297114 -1.35059 1.18492e-18)
(1.30922 1.30857 2.66234e-19)
(1.48896 1.4859 -8.43939e-20)
(-0.473732 -0.184665 0)
(2.51608 -0.00127314 0)
(2.43026 0.0778782 -5.1632e-19)
(2.40031 0.177492 4.30426e-19)
(2.60764 0.149553 0)
(2.95077 -0.117892 0)
(2.92654 -0.127745 0)
(2.95398 -0.161287 2.44605e-19)
(2.72942 0.320814 -1.54977e-20)
(2.71393 0.352867 1.76422e-19)
(2.71517 0.308475 9.71594e-20)
(-0.174223 0.100588 1.03683e-18)
(-0.115494 0.146495 -1.16482e-18)
(0.392479 0.368288 -1.15994e-18)
(0.595735 0.0261824 1.17776e-18)
(-0.321564 0.403393 2.28041e-18)
(0.431069 0.668678 4.48761e-19)
(0.992963 0.545357 1.1135e-18)
(0.829451 1.16533 9.77629e-20)
(0.38016 1.09057 -2.57142e-18)
(3.42865 0.982772 -1.40576e-20)
(3.04744 1.02003 -1.06011e-19)
(2.99481 0.893915 1.73603e-19)
(2.52203 -1.96087 8.23094e-20)
(1.84641 -1.37809 -3.79152e-20)
(0.487923 0.0901456 -1.42645e-18)
(0.561766 -0.0829867 0)
(0.860265 -0.190665 7.74445e-19)
(1.71918 -1.34774 8.73355e-20)
(2.09829 -1.79711 -2.12426e-19)
(2.20037 0.0785904 -1.81638e-20)
(2.27154 0.0763892 7.65931e-21)
(2.0651 0.071327 5.28135e-22)
(1.38302 -1.95088 0)
(1.47639 -1.39643 0)
(2.57176 -0.165638 -6.52233e-20)
(2.52888 -0.15606 3.68223e-19)
(2.53166 -0.0461663 0)
(2.11831 -1.89745 0)
(2.17361 -1.61586 -2.11527e-19)
(2.29291 1.80485 3.36089e-19)
(0.0306086 0.280862 8.38432e-19)
(0.0503431 0.389862 -6.44289e-19)
(2.02199 -1.82458 -9.63206e-20)
(3.49317 -0.370374 6.4631e-20)
(3.47352 -0.440584 -8.52159e-21)
(3.86036 -0.399999 -7.18376e-20)
(3.94918 -0.314367 9.67466e-20)
(3.89595 -0.263142 3.1279e-19)
(0.0833126 0.38572 2.86485e-19)
(2.60832 1.81855 1.87759e-19)
(2.66471 1.60655 -4.80259e-20)
(3.23219 2.02873 1.64007e-21)
(1.68531 -0.0541375 -5.9208e-22)
(1.67807 -0.0543949 -1.25567e-20)
(1.89492 -0.0615128 -5.96533e-22)
(1.91113 -0.0777744 2.41749e-21)
(2.25968 1.74333 1.08801e-19)
(1.43607 1.59216 0)
(-0.181758 -0.202319 9.27311e-19)
(-0.19918 0.134455 -1.01931e-18)
(-0.484585 -0.356111 9.04833e-19)
(2.73657 0.342362 -2.31185e-18)
(3.84923 0.617054 -1.11183e-18)
(2.14213 -0.0829151 1.29014e-21)
(3.47082 -1.72399 9.91684e-20)
(3.46395 -1.64068 2.43064e-19)
(2.52101 0.604645 3.96269e-19)
(2.37914 0.684104 4.81301e-20)
(2.38036 0.438041 2.54271e-19)
(2.43783 0.444791 -1.8271e-19)
(2.56318 0.597998 0)
(2.68547 0.0130573 5.70077e-21)
(2.68773 0.00827595 1.2176e-20)
(2.86082 -0.141745 -5.57568e-20)
(2.88874 -0.148308 9.64302e-20)
(2.74318 0.277605 1.27045e-20)
(2.77261 0.286199 -3.00538e-20)
(2.74985 0.301565 0)
(2.72242 0.288973 1.13705e-20)
(2.7523 0.332025 0)
(2.76388 0.451074 -3.24591e-20)
(2.75904 0.508432 -2.43748e-20)
(2.74004 0.583733 -5.19779e-20)
(2.75849 0.5615 0)
(2.82924 0.55405 9.91797e-20)
(2.77709 0.607973 1.78918e-20)
(2.7024 0.634611 -3.9134e-20)
(2.56915 0.768426 -1.74603e-19)
(2.57904 0.638143 -3.44791e-20)
(0.591676 -1.87253 4.47234e-19)
(1.24883 -1.79883 -2.03605e-19)
(-0.423106 0.155999 -1.70766e-18)
(2.00937 0.0752194 1.69789e-20)
(2.35938 0.0816273 0)
(-0.26558 0.0395187 1.00851e-18)
(-0.286949 0.128039 5.43208e-19)
(2.2573 0.0939531 -2.75235e-21)
(2.44151 0.098585 -7.18321e-22)
(2.44446 0.0958643 0)
(2.23517 0.0909451 -1.56692e-21)
(2.9286 0.694263 2.30564e-19)
(2.76822 0.811192 -1.0877e-18)
(2.82855 0.993573 -4.5876e-19)
(0.047628 0.192053 4.79577e-19)
(0.195183 0.241677 -5.99031e-19)
(0.243445 0.312348 6.02259e-19)
(-0.0589955 0.036076 0)
(-0.00673801 0.0150583 6.68853e-19)
(0.0109506 0.0483087 -6.02498e-19)
(-0.43537 0.0135717 -5.68626e-19)
(-0.375098 -0.129631 -5.42302e-19)
(-0.217487 -0.0662659 0)
(0.15734 0.8417 0)
(0.0836027 0.578251 0)
(0.00915582 0.350185 0)
(2.90749 -0.112092 -2.5282e-20)
(2.88347 -0.0855296 0)
(2.88543 -0.100352 2.42094e-20)
(2.33059 -0.188384 1.14695e-18)
(2.36563 -0.190701 -4.2095e-19)
(2.35405 -0.146285 0)
(2.33702 1.87135 1.24421e-20)
(2.32205 1.74357 -2.50185e-20)
(2.34789 1.95096 7.00732e-21)
(2.31238 1.56438 0)
(2.30335 1.33177 1.91865e-20)
(2.29326 1.05036 0)
(2.50159 1.06043 0)
(2.28955 0.730048 -8.73397e-20)
(2.51432 0.742614 0)
(2.50237 1.3389 2.03897e-20)
(2.48885 1.57237 0)
(2.48608 1.7527 -8.31421e-21)
(2.48114 1.88301 1.21356e-20)
(2.47863 1.96179 -7.00225e-21)
(2.29902 0.385176 8.35926e-20)
(2.53192 0.400227 3.07805e-21)
(2.3665 1.98885 -6.29702e-23)
(2.47458 2.00235 9.23935e-21)
(2.38117 2.00203 -4.32331e-20)
(2.30435 0.0239976 -8.01624e-23)
(2.53675 0.0393158 3.16338e-21)
(2.4695 2.01669 -1.6737e-20)
(2.31114 -0.342818 -8.22425e-20)
(2.31819 -0.69684 8.21727e-20)
(2.53948 -0.322136 -6.27397e-21)
(2.54289 -0.67222 -1.2011e-20)
(2.3901 1.99781 4.20116e-20)
(2.47053 2.00785 1.06362e-20)
(2.32814 -1.02448 0)
(2.54607 -0.999466 1.18354e-20)
(2.4068 1.98481 -4.54977e-24)
(2.46702 1.99186 4.58734e-24)
(2.33942 -1.31487 0)
(2.54706 -1.29146 0)
(2.41273 1.96827 0)
(2.4585 1.97127 0)
(2.35171 -1.5597 0)
(2.54536 -1.53847 -4.76943e-21)
(2.41836 1.9541 1.65403e-20)
(2.45079 1.95323 4.11886e-24)
(2.36238 -1.75482 -2.40818e-22)
(2.53998 -1.73533 5.07798e-21)
(2.41931 1.94597 -1.66188e-20)
(2.43658 1.94086 0)
(2.37147 -1.90069 0)
(2.53158 -1.8824 0)
(2.41588 1.9467 1.00375e-21)
(2.42167 1.9366 -1.71185e-20)
(2.37689 -2.00186 -2.39385e-20)
(2.51868 -1.98483 0)
(2.40925 1.95805 2.0335e-22)
(2.40149 1.94274 1.61834e-20)
(2.37895 -2.06422 3.48139e-20)
(2.50343 -2.04763 9.49653e-21)
(2.39654 1.97956 -1.69461e-20)
(2.37576 1.95821 0)
(2.37854 -2.09411 -1.08025e-20)
(2.48313 -2.0786 -6.26649e-21)
(2.37809 2.00706 8.81013e-21)
(2.34326 1.97931 -1.75017e-20)
(2.37127 -2.10072 3.78577e-20)
(2.45823 -2.08501 -4.24179e-20)
(2.35065 2.03439 -9.82507e-21)
(2.30189 2.00021 -3.06312e-22)
(2.36085 -2.0903 0)
(2.43039 -2.07304 -1.83808e-20)
(2.31611 2.05193 2.05313e-20)
(2.25267 2.01169 -3.9987e-20)
(2.34837 -2.07099 0)
(2.40187 -2.04996 0)
(2.40406 2.05254 9.71377e-21)
(2.38536 2.07536 4.38033e-20)
(2.27338 2.04833 0)
(2.19536 2.00215 2.13407e-20)
(2.42266 1.98634 5.59091e-21)
(2.41681 2.0196 -1.11983e-21)
(2.41734 1.9431 0)
(2.4224 1.95967 1.76e-20)
(2.39229 1.94063 3.5618e-23)
(2.4078 1.93712 0)
(2.35037 1.96193 0)
(2.37475 1.94966 0)
(2.29542 1.97349 0)
(2.32349 1.97002 0)
(2.22652 1.91963 -1.40905e-20)
(2.25915 1.96014 -3.04146e-21)
(2.16395 1.71596 1.52011e-20)
(2.19535 1.84103 1.28144e-20)
(2.11636 1.31075 -3.56403e-20)
(2.13955 1.54057 -3.96072e-20)
(2.08471 0.719405 0)
(2.09807 1.0347 0)
(2.08235 0.0224113 1.86127e-22)
(2.07902 0.378197 0)
(2.10422 -0.681047 0)
(2.09139 -0.33499 0)
(2.14336 -1.2894 0)
(2.12159 -1.00271 0)
(2.19422 -1.72919 0)
(2.16826 -1.53291 0)
(2.24251 -1.98274 0)
(2.21934 -1.87796 0)
(2.27907 -2.08448 0)
(2.26173 -2.04962 0)
(2.29993 -2.09149 1.42706e-20)
(2.29021 -2.09639 0)
(2.30344 -2.07835 4.2917e-21)
(2.3338 -2.04721 -4.09997e-21)
(2.37199 -2.02226 4.06338e-21)
(2.54049 -2.05683 0)
(2.45603 -2.01782 1.61144e-20)
(2.4993 -2.0421 9.63931e-21)
(2.61695 -2.02498 -3.26717e-21)
(2.57871 -2.05415 1.12681e-20)
(2.6788 -1.87122 -1.24198e-22)
(2.64902 -1.96723 0)
(2.72533 -1.53919 0)
(2.70415 -1.73034 0)
(2.75242 -1.00613 0)
(2.74174 -1.29639 0)
(2.75654 -0.326508 0)
(2.7571 -0.678036 -2.27681e-26)
(2.74696 0.392593 -1.90442e-22)
(2.75356 0.0344069 0)
(2.71177 1.04945 0)
(2.73314 0.735306 0)
(2.66836 1.55943 0)
(2.6974 1.32838 0)
(2.62588 1.86956 0)
(2.64952 1.74188 8.82472e-21)
(2.58054 1.99333 -1.49382e-21)
(2.60929 1.94926 8.76807e-21)
(2.5497 1.99288 0)
(2.56703 2.00317 6.16417e-21)
(2.50837 1.95335 0)
(2.52809 1.97607 0)
(2.46012 1.91844 0)
(2.48578 1.93408 0)
(2.39961 1.91173 0)
(2.43304 1.91073 0)
(2.31648 1.93595 4.45357e-21)
(2.36169 1.92131 0)
(2.2032 1.95719 1.99056e-20)
(2.2639 1.9512 4.42089e-21)
(2.1364 1.94446 -2.18201e-20)
(2.36111 2.07589 -4.54689e-20)
(2.30288 -2.06088 -8.4097e-21)
(2.4124 -1.98693 1.41856e-20)
(2.12987 1.95618 0)
(2.06057 1.89879 0)
(2.3326 2.03856 0)
(2.22474 2.00767 0)
(2.46438 2.05747 0)
(2.45891 2.09368 -1.07252e-20)
(2.46334 2.08683 -9.5804e-21)
(2.45405 1.98124 -1.13886e-20)
(2.46161 2.01919 2.32426e-21)
(2.42398 1.92901 -3.33261e-23)
(2.44132 1.95019 0)
(2.37388 1.91706 0)
(2.40081 1.91845 0)
(2.30624 1.92932 0)
(2.34224 1.92195 0)
(2.21856 1.93555 0)
(2.26661 1.93554 0)
(2.1202 1.87363 0)
(2.16978 1.91677 0)
(2.0246 1.67266 6.52922e-23)
(2.07007 1.7949 -1.50899e-20)
(1.94988 1.28089 7.13812e-23)
(1.98455 1.50037 3.64767e-20)
(1.90428 0.709721 0)
(1.92435 1.01514 0)
(1.89419 0.0284174 -9.08901e-23)
(1.89323 0.376526 0)
(1.92187 -0.659507 0)
(1.90447 -0.321248 0)
(1.97737 -1.25531 0)
(1.94634 -0.974142 0)
(2.05232 -1.69133 0)
(2.01343 -1.49565 0)
(2.12981 -1.94987 0)
(2.09148 -1.84185 0)
(2.19709 -2.06113 0)
(2.16452 -2.02097 0)
(2.24762 -2.08002 -9.77479e-21)
(2.22402 -2.07869 0)
(2.31536 -2.02403 0)
(2.29789 -2.04203 -8.20158e-21)
(2.27769 -2.0617 0)
(2.26507 -2.07309 -9.10997e-21)
(2.51386 -1.97158 -1.6741e-20)
(2.45899 -1.93988 -3.59943e-21)
(2.36645 -1.95689 -3.0566e-20)
(2.3385 -1.99501 0)
(2.6238 -2.00993 0)
(2.57004 -1.9964 2.57681e-20)
(2.7282 -1.97946 -9.45672e-23)
(2.67545 -2.00699 -1.13347e-20)
(2.82271 -1.82903 1.24201e-22)
(2.77674 -1.92282 0)
(2.89947 -1.5049 0)
(2.8638 -1.69136 0)
(2.95188 -0.987403 0)
(2.92921 -1.26876 0)
(2.97068 -0.325487 0)
(2.96615 -0.668898 2.27682e-26)
(2.95715 0.382082 3.73596e-22)
(2.96708 0.0293888 0)
(2.91392 1.02937 0)
(2.93992 0.71975 0)
(2.84583 1.53051 -4.54384e-21)
(2.88347 1.30261 0)
(2.77069 1.83609 0)
(2.80818 1.70953 4.52338e-21)
(2.69106 1.95936 -6.40422e-21)
(2.73287 1.91707 -7.15682e-21)
(2.62336 1.96212 0)
(2.66232 1.96891 0)
(2.5574 1.92138 0)
(2.59136 1.94368 0)
(2.48618 1.88291 0)
(2.52282 1.90085 0)
(2.40187 1.86761 0)
(2.44687 1.87189 0)
(2.29656 1.87929 -6.08116e-23)
(2.35282 1.87107 0)
(2.16653 1.88855 6.68275e-23)
(2.23479 1.88802 0)
(2.00589 1.82219 2.04425e-20)
(2.09052 1.87065 -2.04229e-20)
(2.45042 2.06007 -2.63102e-20)
(1.97969 1.8044 0)
(1.91712 1.72714 4.87816e-20)
(2.05987 1.85998 0)
(2.28515 -2.04901 0)
(2.40162 -1.90906 3.3451e-21)
(2.29965 1.94853 -7.60005e-20)
(2.43805 1.9689 -3.2661e-20)
(1.89789 1.64625 -1.63929e-20)
(1.8256 1.57422 -6.28459e-20)
(2.17041 1.91342 0)
(2.2583 -2.04877 -3.39912e-20)
(2.27744 -2.04057 1.67094e-20)
(2.31855 -1.92939 7.0438e-21)
(2.34108 -1.87796 -3.39489e-20)
(2.57904 1.98096 -1.04098e-19)
(2.42458 1.8086 6.12845e-20)
(2.58681 1.59873 3.17631e-19)
(2.5852 1.82547 6.23013e-20)
(2.55973 2.09228 -2.20571e-20)
(2.57123 2.06494 8.2345e-20)
(2.5285 2.04732 2.0819e-20)
(2.54543 2.08052 1.829e-20)
(2.48804 1.96345 4.49081e-21)
(2.51023 2.00501 4.56129e-21)
(2.43186 1.90227 3.3326e-23)
(2.46214 1.9281 0)
(2.35901 1.88094 0)
(2.39767 1.88691 0)
(2.26915 1.88376 0)
(2.31616 1.88095 0)
(2.15805 1.87791 0)
(2.21571 1.88474 0)
(2.03118 1.81444 0)
(2.09611 1.85697 0)
(1.90746 1.6208 0)
(1.96769 1.73792 0)
(1.80609 1.24146 -5.9813e-24)
(1.85243 1.4568 0)
(1.74393 0.691026 0)
(1.77008 0.98454 0)
(1.72644 0.0324746 -7.81171e-23)
(1.72844 0.369171 0)
(1.75873 -0.634737 0)
(1.7372 -0.306274 0)
(1.82939 -1.21515 0)
(1.78981 -0.940883 0)
(1.926 -1.64428 0)
(1.87545 -1.45078 0)
(2.02994 -1.90537 0)
(1.97782 -1.79512 0)
(2.12543 -2.02484 0)
(2.07897 -1.98007 0)
(2.20289 -2.05563 -4.7587e-21)
(2.16681 -2.04793 2.45798e-21)
(2.2338 -2.05417 1.74063e-20)
(2.29179 -2.00324 3.90059e-21)
(2.28797 -2.03405 -1.68631e-20)
(2.28731 -2.02459 1.26074e-20)
(2.30133 -1.96968 0)
(2.57035 -1.91476 1.08778e-20)
(2.43646 -1.85276 2.90292e-20)
(2.50559 -1.88359 -2.43674e-20)
(2.70262 -1.9531 0)
(2.63788 -1.93863 0)
(2.8338 -1.92544 6.4275e-24)
(2.76746 -1.95041 0)
(2.95978 -1.78359 0)
(2.89823 -1.87214 0)
(3.06636 -1.47085 1.36322e-22)
(3.01658 -1.65158 0)
(3.14046 -0.96482 0)
(3.10808 -1.24006 0)
(3.17308 -0.320488 0)
(3.16272 -0.654281 0)
(3.15802 0.367317 -1.83252e-22)
(3.17113 0.0243659 0)
(3.10297 0.999607 -1.59905e-22)
(3.13553 0.696606 0)
(3.01369 1.48938 0)
(3.06185 1.26662 0)
(2.90884 1.78997 0)
(2.96244 1.66389 0)
(2.80068 1.91219 0)
(2.85391 1.87061 0)
(2.69951 1.91872 0)
(2.75207 1.92457 0)
(2.60683 1.87866 6.253e-23)
(2.65535 1.90056 0)
(2.51274 1.83689 0)
(2.56168 1.85677 0)
(2.40772 1.81389 0)
(2.46274 1.82255 0)
(2.28573 1.81503 6.08923e-24)
(2.34993 1.81237 0)
(2.14137 1.81064 -7.64704e-24)
(2.21705 1.8172 0)
(1.96843 1.73385 -6.8944e-23)
(2.05882 1.78696 0)
(1.77945 1.49724 4.70632e-20)
(1.87378 1.6403 -9.59724e-21)
(1.74279 1.36464 -1.31751e-20)
(1.69415 1.30414 -2.26654e-20)
(2.26466 1.78786 2.70484e-20)
(1.98975 1.69719 2.90816e-20)
(2.29135 -2.03225 -4.09309e-21)
(2.3678 -1.81902 -2.26127e-20)
(2.41156 1.5661 -4.74728e-21)
(1.81995 1.41936 0)
(2.65567 1.1898 -5.47729e-19)
(1.62 1.05976 -4.21646e-20)
(1.67364 1.10286 -6.26971e-20)
(2.81264 1.11445 8.96696e-19)
(2.97615 0.749859 -1.69188e-19)
(2.11663 1.7514 0)
(2.78071 1.63489 -7.51859e-20)
(2.80566 1.38097 -4.36323e-20)
(2.73212 1.97237 -6.08645e-20)
(2.76032 1.83407 1.00677e-19)
(2.66455 2.07168 2.30937e-20)
(2.69942 2.04791 1.27738e-20)
(2.59623 2.02187 -9.8155e-21)
(2.63027 2.05788 -1.16633e-20)
(2.52444 1.93203 0)
(2.56147 1.97675 9.44468e-23)
(2.44457 1.86398 0)
(2.48571 1.89327 0)
(2.35099 1.83553 -2.95634e-23)
(2.39993 1.84523 0)
(2.24012 1.82958 0)
(2.29808 1.83156 0)
(2.10848 1.81448 0)
(2.17734 1.82526 0)
(1.95816 1.74608 0)
(2.03461 1.79131 0)
(1.80894 1.55678 -5.07747e-23)
(1.88182 1.67078 0)
(1.68568 1.19416 -6.74382e-24)
(1.74293 1.39824 0)
(1.60816 0.666496 0)
(1.64047 0.947949 0)
(1.58427 0.0353461 1.48363e-22)
(1.58869 0.358322 0)
(1.61972 -0.606723 0)
(1.59509 -0.290218 0)
(1.70304 -1.16866 0)
(1.65622 -0.902597 0)
(1.818 -1.58834 0)
(1.75765 -1.39827 0)
(1.94456 -1.84954 0)
(1.88087 -1.73803 0)
(2.06478 -1.97594 0)
(2.00639 -1.92689 0)
(2.16639 -2.01703 2.31459e-21)
(2.11891 -2.00379 0)
(2.24517 -2.02125 0)
(2.20855 -2.02181 4.09876e-21)
(2.3016 -2.01324 1.76269e-22)
(2.27549 -2.01818 0)
(2.28587 -2.0172 1.71042e-20)
(2.32284 -2.00655 -9.8348e-22)
(2.30282 -2.01753 -8.6394e-21)
(2.26549 -1.98006 -6.01593e-21)
(2.27267 -2.00618 4.20495e-21)
(2.27018 -1.90107 2.0602e-21)
(2.26429 -1.9444 -1.80004e-21)
(2.29968 -1.78525 0)
(2.28097 -1.84506 1.53609e-20)
(2.47414 -1.78722 6.17642e-21)
(2.32452 -1.71865 1.1486e-20)
(2.40079 -1.75258 -2.48168e-20)
(2.62436 -1.84772 3.62949e-21)
(2.55093 -1.81725 0)
(2.77606 -1.88151 0)
(2.70055 -1.86942 0)
(2.93063 -1.85158 7.53297e-24)
(2.85277 -1.87689 0)
(3.08365 -1.71439 0)
(3.00849 -1.79932 0)
(3.21764 -1.41729 -1.36322e-22)
(3.15431 -1.58889 0)
(3.31327 -0.93383 0)
(3.27134 -1.19743 0)
(3.35728 -0.313743 0)
(3.34224 -0.635255 0)
(3.34313 0.349778 0)
(3.35772 0.0187871 0)
(3.27649 0.960687 1.19444e-23)
(3.31577 0.66773 0)
(3.16887 1.43631 0)
(3.22694 1.21964 0)
(3.03779 1.73106 0)
(3.10509 1.6069 0)
(2.90302 1.85459 0)
(2.96954 1.81139 0)
(2.77457 1.86511 0)
(2.83836 1.86952 0)
(2.65568 1.82693 -6.25301e-23)
(2.71644 1.84855 0)
(2.53956 1.78267 0)
(2.59965 1.80412 0)
(2.41826 1.75401 0)
(2.48116 1.76575 0)
(2.28421 1.74605 5.46772e-23)
(2.3543 1.74851 0)
(2.12774 1.72707 -5.94429e-23)
(2.20987 1.74147 0)
(1.94327 1.63575 6.81627e-23)
(2.03871 1.6948 0)
(1.75105 1.40814 -9.23558e-21)
(1.84605 1.54299 1.86171e-20)
(1.58605 1.00049 9.3675e-21)
(1.66347 1.22953 -2.34668e-20)
(1.56041 0.764359 -2.55543e-21)
(1.52243 0.724513 -2.40365e-20)
(2.23243 1.54182 3.48858e-20)
(1.92973 1.47098 0)
(2.43704 1.22126 3.79691e-19)
(1.75542 1.13822 0)
(2.31646 -1.98201 3.755e-21)
(2.35145 -1.97588 -2.77442e-21)
(2.22982 -1.74962 1.21822e-20)
(2.24709 -1.68074 1.19842e-20)
(2.55945 0.906342 3.95239e-19)
(1.6198 0.786376 6.3321e-20)
(2.90613 0.413101 0)
(3.04475 0.944624 1.0523e-19)
(1.5157 0.429121 2.7519e-20)
(1.47748 0.413996 -3.65075e-20)
(3.1013 0.558626 -2.0354e-19)
(2.06733 1.51093 0)
(2.96316 1.54221 0)
(3.00223 1.26443 8.49403e-20)
(2.87224 1.91902 0)
(2.92314 1.76564 0)
(2.76061 2.03012 0)
(2.81566 2.00309 -1.32387e-20)
(2.66102 1.97948 0)
(2.71011 2.01631 0)
(2.56173 1.88783 0)
(2.6115 1.93366 0)
(2.46015 1.81601 0)
(2.51164 1.84756 0)
(2.34777 1.78027 2.95634e-23)
(2.40585 1.79403 0)
(2.21902 1.76391 0)
(2.28553 1.77148 0)
(2.07004 1.73768 0)
(2.1473 1.75408 0)
(1.90225 1.66263 0)
(1.988 1.70931 0)
(1.73283 1.48065 5.95595e-24)
(1.81608 1.58924 0)
(1.59073 1.13792 -7.19021e-24)
(1.65673 1.33097 0)
(1.49949 0.637229 0)
(1.53766 0.904363 0)
(1.47036 0.0373523 -8.42155e-24)
(1.47672 0.344599 0)
(1.50739 -0.575195 0)
(1.48091 -0.272865 0)
(1.6002 -1.11509 0)
(1.54788 -0.858781 0)
(1.72995 -1.5229 0)
(1.66181 -1.33739 0)
(1.87516 -1.78224 0)
(1.802 -1.67047 0)
(2.01627 -1.91472 0)
(1.94736 -1.86199 0)
(2.13959 -1.96597 0)
(2.0804 -1.94777 0)
(2.23784 -1.98106 -3.73148e-21)
(2.19153 -1.97647 -4.16182e-21)
(2.27898 -1.98334 7.65812e-21)
(2.27965 -1.99598 8.86254e-21)
(2.3449 -1.98752 0)
(2.31093 -1.99493 8.74312e-21)
(2.23672 -1.95395 0)
(2.25501 -1.98109 -9.04387e-21)
(2.21888 -1.87093 -1.12402e-20)
(2.22433 -1.91822 4.00903e-21)
(2.21932 -1.81124 2.06447e-20)
(2.51202 -1.71341 -2.43033e-21)
(2.35059 -1.64642 -8.34704e-21)
(2.43383 -1.67927 0)
(2.67504 -1.77144 5.94586e-21)
(2.59427 -1.74308 -5.96574e-21)
(2.84171 -1.80215 0)
(2.75734 -1.79225 0)
(3.01761 -1.77038 8.30832e-24)
(2.9288 -1.79604 0)
(3.19357 -1.63828 0)
(3.10663 -1.71982 0)
(3.34976 -1.3546 0)
(3.27554 -1.51837 0)
(3.46425 -0.894374 0)
(3.41357 -1.14517 0)
(3.5189 -0.304245 0)
(3.49986 -0.610365 0)
(3.50609 0.3296 -1.4479e-22)
(3.52112 0.0130624 0)
(3.43053 0.914455 1.47961e-22)
(3.47554 0.633829 0)
(3.3066 1.37155 0)
(3.37353 1.16276 0)
(3.15374 1.65847 0)
(3.23238 1.53707 0)
(2.99475 1.78336 0)
(3.07378 1.73845 0)
(2.84309 1.79919 0)
(2.91763 1.80089 0)
(2.70224 1.765 0)
(2.77254 1.78514 0)
(2.56812 1.7209 0)
(2.63627 1.7426 0)
(2.43416 1.68901 4.20287e-23)
(2.50296 1.70275 0)
(2.28991 1.67254 -4.16859e-23)
(2.36507 1.68007 0)
(2.12368 1.63967 4.39418e-23)
(2.21058 1.66135 0)
(1.93322 1.53686 0)
(2.03094 1.6005 0)
(1.73871 1.31301 0)
(1.8345 1.44277 0)
(1.57576 0.935764 -6.50533e-23)
(1.65064 1.1459 -9.4753e-21)
(1.46729 0.402927 5.27151e-20)
(1.51416 0.687281 0)
(1.45232 0.0757601 3.57102e-20)
(1.44125 0.0912736 3.90523e-22)
(2.21675 1.22618 -1.18601e-19)
(1.87744 1.18595 0)
(2.38365 -1.96191 1.68568e-20)
(2.26605 -1.60634 1.73702e-20)
(2.36736 0.90793 6.9349e-20)
(2.76058 0.340743 7.17467e-22)
(2.57697 0.483244 -2.10569e-19)
(1.71278 0.815042 0)
(1.58264 0.43521 -1.68709e-20)
(3.08765 0.152181 1.89979e-19)
(2.98029 -0.0911429 -1.71639e-19)
(2.89628 -0.0553521 1.79994e-19)
(1.49383 0.0686949 4.28993e-20)
(1.45377 -0.268571 -2.70251e-20)
(1.44082 -0.234651 -1.90854e-20)
(2.02968 1.21026 0)
(3.21529 0.9157 -4.91905e-21)
(3.25421 0.176926 -6.48805e-21)
(3.26817 0.556006 -3.98445e-20)
(3.09682 1.51027 -3.58171e-20)
(3.15337 1.23374 3.60765e-20)
(2.98476 1.87633 -5.09629e-23)
(3.04683 1.72691 0)
(2.85081 1.97703 0)
(2.91715 1.95521 0)
(2.72361 1.92352 0)
(2.78674 1.96078 0)
(2.59995 1.83229 0)
(2.66134 1.8779 0)
(2.47862 1.75815 -2.45988e-23)
(2.53942 1.79144 0)
(2.35034 1.71634 0)
(2.41612 1.73343 0)
(2.20715 1.6921 0)
(2.28087 1.7038 0)
(2.04483 1.65617 0)
(2.12877 1.67741 0)
(1.86305 1.57537 0)
(1.95576 1.62427 0)
(1.67883 1.39775 4.48187e-23)
(1.76962 1.50233 0)
(1.52182 1.07447 -7.33426e-24)
(1.59506 1.25591 0)
(1.41923 0.603898 0)
(1.46245 0.855207 0)
(1.38522 0.0387193 -1.15014e-22)
(1.39336 0.32841 0)
(1.42254 -0.540752 0)
(1.39527 -0.25441 0)
(1.5217 -1.05527 0)
(1.46559 -0.810313 0)
(1.66268 -1.44891 0)
(1.58854 -1.26909 0)
(1.8225 -1.70506 0)
(1.74173 -1.59369 0)
(1.98013 -1.84334 0)
(1.90261 -1.78686 0)
(2.1206 -1.905 -5.58379e-23)
(2.05276 -1.88114 0)
(2.23858 -1.92971 3.74812e-21)
(2.18263 -1.91988 0)
(2.33627 -1.93999 -4.02395e-21)
(2.28956 -1.93667 0)
(2.427 -1.92194 -3.73301e-21)
(2.38151 -1.93665 3.82342e-21)
(2.36505 -1.95141 -8.98027e-21)
(2.47159 -1.89058 0)
(2.41717 -1.92725 -1.25109e-20)
(2.2727 -1.96036 0)
(2.31686 -1.96019 0)
(2.20655 -1.91929 0)
(2.23644 -1.9442 0)
(2.16842 -1.83231 0)
(2.1841 -1.88208 0)
(2.16122 -1.70735 -1.24219e-20)
(2.15904 -1.7705 -3.64309e-21)
(2.1851 -1.56082 -2.11938e-21)
(2.17051 -1.63551 -2.17259e-20)
(2.37787 -1.56862 -1.00388e-20)
(2.20782 -1.48447 -1.36556e-21)
(2.29174 -1.52999 3.51828e-21)
(2.54891 -1.63352 -1.96188e-21)
(2.46353 -1.6027 1.28063e-20)
(2.71997 -1.68791 6.26754e-24)
(2.63353 -1.66258 0)
(2.89899 -1.71236 0)
(2.80755 -1.70593 0)
(3.09038 -1.67619 8.74102e-24)
(2.99332 -1.70351 0)
(3.2849 -1.54891 0)
(3.18843 -1.6265 0)
(3.45992 -1.28235 0)
(3.37668 -1.43614 0)
(3.5893 -0.848576 0)
(3.53176 -1.08513 0)
(3.65364 -0.29179 0)
(3.63061 -0.580601 0)
(3.64254 0.307218 2.73227e-22)
(3.65766 0.00781053 0)
(3.56079 0.862186 0)
(3.60988 0.595626 0)
(3.42354 1.29738 0)
(3.49786 1.09821 0)
(3.25304 1.5739 0)
(3.34088 1.45625 0)
(3.0739 1.69901 0)
(3.16329 1.65293 0)
(2.90303 1.72062 5.4355e-23)
(2.98689 1.71908 0)
(2.74563 1.69264 0)
(2.82316 1.70992 0)
(2.59825 1.65177 0)
(2.67198 1.67221 0)
(2.45368 1.61842 -4.20287e-23)
(2.52726 1.63352 0)
(2.30023 1.59399 6.65501e-24)
(2.37965 1.60629 0)
(2.12791 1.5497 -8.02975e-23)
(2.21717 1.57706 0)
(1.93762 1.44025 0)
(2.03447 1.50605 0)
(1.74587 1.22081 0)
(1.84041 1.34678 0)
(1.58128 0.859179 1.32622e-23)
(1.65788 1.05897 0)
(1.47246 0.367606 0)
(1.51858 0.627502 0)
(1.44891 -0.211382 2.60962e-20)
(1.44744 0.0842105 0)
(1.46321 -0.551446 -1.02894e-21)
(1.46965 -0.504452 -4.02112e-20)
(2.17256 0.889746 0)
(3.20401 -0.206958 -2.56546e-19)
(2.40947 0.450508 -4.83605e-20)
(2.47103 -1.87397 3.72732e-21)
(2.52737 -1.84243 0)
(2.10256 -1.50708 -1.73265e-21)
(2.12112 -1.43054 4.25583e-21)
(1.83721 0.847231 0)
(1.68708 0.451681 0)
(2.62635 0.0909364 0)
(1.56482 0.0636816 1.66104e-20)
(1.4943 -0.296827 2.67497e-20)
(1.48142 -0.604978 0)
(1.50667 -0.846926 -5.12475e-20)
(1.50866 -0.781523 3.30025e-20)
(1.99356 0.866985 0)
(3.41311 0.102794 1.84205e-23)
(3.18173 -0.585981 -7.15658e-20)
(3.34331 -0.597444 2.38954e-19)
(3.38648 -0.239322 -7.7009e-20)
(3.32733 0.797212 2.17989e-20)
(3.38333 0.445877 3.94737e-20)
(3.22385 1.41284 0)
(3.27357 1.12689 0)
(3.09868 1.79135 5.09904e-23)
(3.16904 1.63725 0)
(2.9383 1.9002 0)
(3.01956 1.8744 0)
(2.78187 1.85281 0)
(2.85869 1.88723 0)
(2.63657 1.76612 0)
(2.70796 1.80975 0)
(2.49866 1.69267 2.45988e-23)
(2.56721 1.72628 0)
(2.35704 1.64632 0)
(2.42921 1.66626 0)
(2.20194 1.61377 0)
(2.28139 1.63007 0)
(2.02999 1.56744 0)
(2.11837 1.59392 0)
(1.84011 1.47946 0)
(1.93696 1.53081 0)
(1.64639 1.30741 -3.26724e-23)
(1.74213 1.40723 0)
(1.47882 1.00529 -7.2187e-24)
(1.55733 1.17435 0)
(1.36725 0.567085 0)
(1.41462 0.801236 0)
(1.32854 0.0392334 8.52382e-24)
(1.33848 0.310043 0)
(1.36504 -0.504606 0)
(1.33779 -0.23553 0)
(1.46765 -0.991198 0)
(1.40929 -0.758901 0)
(1.61621 -1.36875 0)
(1.5378 -1.1955 0)
(1.78648 -1.62063 0)
(1.70006 -1.51007 0)
(1.95636 -1.76415 0)
(1.87235 -1.70404 0)
(2.11087 -1.83566 1.04715e-22)
(2.03573 -1.80656 0)
(2.24599 -1.86929 4.76295e-23)
(2.18047 -1.85582 0)
(2.36239 -1.88595 -6.84279e-21)
(2.30605 -1.87957 6.61979e-21)
(2.41619 -1.8864 -6.42644e-21)
(2.38573 -1.89295 -2.43821e-21)
(2.51894 -1.83138 -5.50934e-22)
(2.45213 -1.86548 7.10058e-21)
(2.26685 -1.9034 0)
(2.32376 -1.9024 0)
(2.17576 -1.86618 7.54792e-26)
(2.21727 -1.88965 0)
(2.11746 -1.78049 0)
(2.14291 -1.82923 0)
(2.09275 -1.6556 -6.56029e-21)
(2.09959 -1.71982 7.24451e-21)
(2.09368 -1.58199 -2.96825e-23)
(2.40751 -1.48765 3.38953e-22)
(2.23296 -1.40611 3.46896e-21)
(2.32033 -1.45033 -6.85324e-22)
(2.58131 -1.54989 1.87156e-21)
(2.49417 -1.52051 -1.8743e-21)
(2.75845 -1.59984 4.00746e-23)
(2.66919 -1.57688 0)
(2.9473 -1.61785 4.26865e-23)
(2.85143 -1.61474 0)
(3.1496 -1.57683 8.85896e-24)
(3.0472 -1.60605 0)
(3.35681 -1.45233 0)
(3.25377 -1.52704 0)
(3.54584 -1.2025 0)
(3.4556 -1.3461 0)
(3.68662 -0.797704 0)
(3.6239 -1.01862 0)
(3.75836 -0.277072 0)
(3.73205 -0.547174 0)
(3.74964 0.28358 -1.28437e-22)
(3.76437 0.00321963 0)
(3.66395 0.805045 -1.03649e-22)
(3.7157 0.554258 0)
(3.51734 1.21619 0)
(3.59696 1.02767 0)
(3.33393 1.48073 0)
(3.42857 1.36746 0)
(3.14013 1.60559 0)
(3.23697 1.55848 0)
(2.95508 1.63339 -5.43551e-23)
(3.04589 1.62831 0)
(2.78548 1.61261 3.84666e-23)
(2.86862 1.62648 0)
(2.62785 1.57618 0)
(2.70606 1.59486 0)
(2.47426 1.54219 0)
(2.55178 1.55827 0)
(2.31415 1.51125 6.56245e-24)
(2.39618 1.52736 0)
(2.14007 1.4586 6.53837e-23)
(2.22935 1.48996 0)
(1.95355 1.34526 0)
(2.04796 1.4121 0)
(1.7672 1.13122 0)
(1.85916 1.25307 0)
(1.60561 0.789064 1.17474e-23)
(1.68118 0.976676 0)
(1.49863 0.330132 0)
(1.54368 0.572443 0)
(1.47161 -0.202671 -1.40735e-20)
(1.47392 0.0688645 0)
(1.52549 -0.7283 -1.30502e-20)
(1.487 -0.470478 2.70305e-20)
(2.80534 -0.545065 2.87543e-19)
(3.04621 -0.594411 2.58572e-19)
(1.56621 -1.03433 1.39596e-20)
(1.57779 -0.963146 -1.3956e-20)
(2.19635 0.471754 0)
(2.58548 -1.78478 -7.44309e-21)
(2.14479 -1.35082 1.32158e-20)
(3.29487 -0.939465 -5.16551e-20)
(1.82377 0.463127 0)
(3.14662 -0.961857 -1.66097e-20)
(2.41094 0.0285209 0)
(1.67246 0.0676004 0)
(2.62742 -0.267967 0)
(1.57179 -0.314778 0)
(1.52316 -0.645536 0)
(1.52371 -0.910465 5.04369e-21)
(1.56682 -1.11245 1.31574e-20)
(1.63706 -1.24825 0)
(1.64602 -1.16509 2.29385e-20)
(1.99618 0.46476 0)
(3.47534 -0.593966 -1.04562e-19)
(3.25413 -1.24214 -1.77182e-19)
(3.36678 -1.18012 -9.32731e-20)
(3.42857 -0.904938 1.08083e-19)
(3.52012 0.104126 -8.00099e-21)
(3.5106 -0.251478 3.75964e-20)
(3.45589 0.818669 -1.6618e-20)
(3.49133 0.471179 1.59216e-23)
(3.34458 1.38786 -4.95506e-23)
(3.40778 1.12812 0)
(3.1849 1.72682 -4.01868e-23)
(3.26977 1.58956 0)
(3.0038 1.82135 0)
(3.09484 1.80011 0)
(2.82999 1.77438 0)
(2.91511 1.80742 0)
(2.67019 1.69278 0)
(2.74857 1.73383 0)
(2.51943 1.62103 0)
(2.59423 1.65459 0)
(2.36704 1.5701 0)
(2.44429 1.59292 0)
(2.20345 1.53068 0)
(2.28688 1.55047 0)
(2.02578 1.47655 0)
(2.11665 1.50705 0)
(1.83228 1.38246 0)
(1.93078 1.43622 0)
(1.63446 1.21419 5.80755e-24)
(1.73248 1.31027 0)
(1.46066 0.932253 -3.81451e-23)
(1.54249 1.08916 0)
(1.34255 0.527335 0)
(1.39309 0.743691 0)
(1.2994 0.0383526 8.12172e-23)
(1.31119 0.289489 0)
(1.334 -0.4681 0)
(1.30744 -0.217126 0)
(1.43743 -0.92508 0)
(1.37823 -0.706304 0)
(1.58987 -1.28505 0)
(1.50904 -1.11901 0)
(1.76647 -1.53168 0)
(1.67649 -1.42229 0)
(1.94466 -1.67962 0)
(1.85622 -1.61624 0)
(2.10987 -1.76017 -4.88771e-23)
(2.02915 -1.72619 0)
(2.25823 -1.80248 -6.36215e-24)
(2.18594 -1.78475 0)
(2.39295 -1.82168 -3.19783e-21)
(2.32715 -1.8144 0)
(2.51866 -1.8119 0)
(2.45633 -1.82287 7.97757e-21)
(2.65157 -1.72431 7.99112e-21)
(2.58435 -1.78112 0)
(2.56694 -1.73964 9.52802e-21)
(2.71981 -1.63474 0)
(2.64513 -1.69224 -9.38473e-21)
(2.40794 -1.80296 0)
(2.48746 -1.77481 1.08842e-20)
(2.26177 -1.81936 0)