/*--------------------------------*- C++ -*----------------------------------*\
  =========                 |
  \\      /  F ield         | OpenFOAM: The Open Source CFD Toolbox
   \\    /   O peration     | Website:  https://openfoam.org
    \\  /    A nd           | Version:  10
     \\/     M anipulation  |
\*---------------------------------------------------------------------------*/
FoamFile
{
    format      ascii;
    class       volScalarField;
    location    "44.5";
    object      p;
}
// * * * * * * * * * * * * * * * * * * * * * * * * * * * * * * * * * * * * * //

dimensions      [0 2 -2 0 0 0 0];

internalField   nonuniform List<scalar> 
28942
(
-0.00373184
-0.00310167
0.0020748
0.00956777
0.00986799
0.000116976
0.000348399
3.9222e-05
0.00278009
0.0028682
-0.00227645
-0.00254624
-0.00293196
-0.00284918
0.000230238
0.000573354
0.00994473
0.0102145
0.00563694
0.00719778
0.0082169
0.0082089
-0.00520085
-0.00502324
-0.00355195
-0.00377315
0.0139431
0.0138921
0.00358529
0.00352917
2.88783e-05
6.75054e-05
0.000903201
0.000377414
0.00720717
0.00841347
0.0109514
0.012911
6.8223e-06
0.0151074
0.00917238
0.0116702
0.00193494
0.00186678
0.00191161
0.000345568
0.000197468
0.000276751
0.000319211
0.000447347
0.000837232
0.00287034
0.00294026
0.00291121
0.00306754
-0.00231598
-0.00100886
-0.00334151
-0.00318659
-0.00345968
-0.00353247
-0.00353352
-0.003431
-6.9854e-05
-0.00177805
-0.000313258
0.00102307
0.00948581
0.00898917
-0.00332081
-0.00353184
-0.00326563
0.00904939
0.00890174
0.00919326
-0.0014298
-0.00104081
-0.000697735
0.00241098
0.00281057
0.00189855
0.00080004
-0.00628114
-0.00751311
0.00113668
0.00386556
0.00490846
0.00569734
0.00407951
0.00420477
0.00617373
0.00555094
-0.0013415
-0.00163748
-0.00191875
-0.0017543
-0.00157687
0.00539581
0.00668817
-0.00782452
0.0113652
0.0105662
0.00586009
0.00945748
0.000968283
0.000881825
0.000786621
0.0055404
0.005733
0.00572692
-0.00318405
-0.00310422
-0.00308578
-0.00256624
-0.00268772
0.0158991
0.0138927
0.0133345
0.0149665
0.00169892
0.00478442
0.00348059
0.00512681
0.00480401
0.0155707
0.0158663
0.0145256
0.00597003
0.00704977
0.000234222
0.00034621
0.000140875
0.01056
0.011064
0.0077496
0.00740185
0.0128587
0.00675452
0.00804714
0.00911515
-0.0018548
-0.00237078
0.00741599
0.00185903
0.00193638
-0.00113571
-0.00140334
-0.000935089
-0.0024709
0.00665516
0.00578175
0.00376973
0.000311095
0.000248876
0.000107942
0.000252305
0.0075929
0.00685768
-0.00180723
-0.00192548
-0.00181975
-0.00410179
-0.00364353
8.73416e-05
-0.00281947
-0.000462652
0.00845887
0.00856755
0.00966219
0.00919749
0.00777483
0.00316451
0.00308276
0.00332341
0.00320032
0.00511128
0.00488899
0.00522352
0.00544404
0.00538131
0.00545052
0.00566123
0.00621453
0.00590891
0.00550617
0.00583614
0.00654202
0.00729484
0.00758738
-0.000507368
-0.000489719
-0.00242208
0.000259675
8.9058e-05
-0.00193691
-0.00202714
0.000350629
0.000412852
0.0003726
0.000301638
0.00209518
0.00206111
0.00203
-0.00287929
-0.00306862
-0.00272981
-0.00430811
-0.00479324
-0.0041004
-0.00469081
-0.0064612
-0.00515519
0.0160931
0.0168036
0.016571
0.00101089
0.00115651
0.00104145
0.0104145
0.00998668
0.0100671
0.00159201
0.00157022
0.00161388
0.00154847
0.00152705
0.00150574
0.00150657
0.00148465
0.00148566
0.00152756
0.00154891
0.0015705
0.00159245
0.00161432
0.00146404
0.00146472
0.00163573
0.00163619
0.00165801
0.00144358
0.00144387
0.00165844
0.00142297
0.00140255
0.0014234
0.00140307
0.00168048
0.00168103
0.00138234
0.00138288
0.00170259
0.00170341
0.00136229
0.00136285
0.00172504
0.00172589
0.00134241
0.00134299
0.00174761
0.00174848
0.00132269
0.00132327
0.00177029
0.00177112
0.00130318
0.00130363
0.00179309
0.00179377
0.00128377
0.00128419
0.0018158
0.0018165
0.0012645
0.00126482
0.00183856
0.00183912
0.00124531
0.00124543
0.0018616
0.00186211
0.00122628
0.00122591
0.0018844
0.00188461
0.00120688
0.00120659
0.00190735
0.00190756
0.00118701
0.00118719
0.00188348
0.00190641
0.00193042
0.00193037
0.00183714
0.00186051
0.00179142
0.00181453
0.00174641
0.00176894
0.00170139
0.00172391
0.00165655
0.00167889
0.00161297
0.00163524
0.00156969
0.00159114
0.00152659
0.00154798
0.00148403
0.00150526
0.00144257
0.00146324
0.00140174
0.00142208
0.00136158
0.00138158
0.00132206
0.00134175
0.00128316
0.00130255
0.00124482
0.00126392
0.00120633
0.00122578
0.00118692
0.00116748
0.00116762
0.00122605
0.00118739
0.00120674
0.00126482
0.00124541
0.00130359
0.00128418
0.00134287
0.00132317
0.00138277
0.00136275
0.00142332
0.00140297
0.0014645
0.00144385
0.00150652
0.00148553
0.00154904
0.0015278
0.00159213
0.00157044
0.00163636
0.00161439
0.00168061
0.00165815
0.00172559
0.00170311
0.00177073
0.00174817
0.00181605
0.00179334
0.00186157
0.00183864
0.00190653
0.00188418
0.00192935
0.00192972
0.0011674
0.00116797
0.0019529
0.00195156
0.00195282
0.00195323
0.00188148
0.00192753
0.00190447
0.00183527
0.00185846
0.00179007
0.00181251
0.00174508
0.00176759
0.00170022
0.00172263
0.00165577
0.00167792
0.00161163
0.00163368
0.00156824
0.00159016
0.0015258
0.00154669
0.00148332
0.00150446
0.00144186
0.00146251
0.0014011
0.0014214
0.001361
0.00138097
0.00132153
0.00134119
0.00128267
0.00130203
0.00124438
0.00126346
0.00120608
0.00122528
0.00114795
0.00114806
0.00116748
0.00118685
0.00118767
0.00116849
0.00114875
0.00114813
0.00122622
0.00120699
0.00126462
0.00124528
0.00130327
0.00128388
0.0013425
0.00132282
0.00138236
0.00136236
0.00142287
0.00140254
0.00146404
0.00144339
0.00150593
0.00148489
0.00154855
0.00152711
0.0015916
0.00157
0.00163544
0.0016136
0.00167981
0.0016576
0.0017246
0.00170217
0.00176964
0.00174711
0.00181473
0.00179221
0.00185967
0.00183727
0.0019044
0.00188206
0.00194857
0.00192675
0.00195038
0.00197386
0.00197079
0.00197477
0.00114842
0.00114913
0.00197479
0.00197226
0.00199568
0.0019928
0.00197565
0.0011677
0.0011487
0.0011295
0.00112988
0.00196819
0.00199558
0.00202078
0.00199562
0.00192397
0.00194629
0.00187851
0.00190123
0.00183301
0.00185587
0.00178805
0.00181032
0.00174329
0.00176569
0.00169863
0.00172093
0.00165431
0.00167642
0.00161041
0.00163227
0.00156707
0.00158866
0.00152439
0.00154567
0.00148237
0.00150331
0.00144101
0.00146161
0.00140032
0.00142058
0.00136028
0.00138022
0.00132088
0.0013405
0.00128207
0.0013014
0.00124382
0.00126288
0.00120578
0.00122474
0.00118672
0.00112895
0.00112923
0.00112902
0.00112913
0.00118784
0.00114958
0.00116876
0.00122609
0.00120696
0.00126418
0.00124502
0.00130277
0.00128341
0.00134195
0.00132229
0.00138174
0.00136177
0.00142218
0.00140188
0.00146327
0.00144265
0.00150505
0.00148407
0.00154748
0.0015262
0.00159061
0.00156899
0.00163426
0.00161234
0.00167845
0.00165632
0.00172305
0.00170072
0.00176789
0.00174546
0.00181276
0.00179035
0.00185736
0.00183514
0.00190154
0.00187948
0.00194512
0.00192338
0.00198846
0.00196651
0.00201341
0.00200931
0.00199681
0.00199665
0.00112965
0.00113046
0.00201684
0.00201659
0.00202067
0.0020296
0.00203353
0.00197668
0.00205359
0.00199774
0.00200347
0.00200883
0.00196412
0.00198709
0.00191886
0.00194142
0.00187443
0.00189645
0.00182989
0.00185239
0.00178546
0.00180767
0.00174093
0.00176321
0.00169651
0.00171869
0.00165239
0.0016744
0.00160871
0.00163048
0.00156556
0.00158705
0.00152299
0.00154421
0.00148111
0.00150197
0.00143987
0.00146041
0.00139928
0.0014195
0.00135934
0.00137923
0.00132001
0.0013396
0.00128128
0.00130058
0.00124309
0.00126212
0.00120529
0.00122412
0.00116766
0.00118647
0.00112981
0.00114869
0.00111041
0.00111075
0.0011106
0.00111024
0.00111022
0.00111059
0.00111034
0.00111154
0.00111101
0.00114983
0.00111219
0.001131
0.0011877
0.00116879
0.00122559
0.00120667
0.00126357
0.00124452
0.0013021
0.00128277
0.0013412
0.00132158
0.0013809
0.00136098
0.00142124
0.001401
0.00146224
0.00144166
0.00150389
0.00148298
0.00154619
0.00152497
0.00158914
0.0015676
0.00163263
0.00161081
0.00167663
0.00165458
0.001721
0.00169878
0.00176559
0.00174328
0.00181016
0.0017879
0.00185445
0.00183237
0.00189809
0.00187637
0.00194081
0.0019196
0.00198272
0.00196181
0.00202362
0.00200293
0.00204889
0.00204279
0.0020177
0.00201825
0.00203543
0.00203565
0.00112985
0.00111115
0.0010927
0.00109302
0.00204849
0.00205309
0.00207806
0.00200716
0.00206636
0.002061
0.00204355
0.0020184
0.00199285
0.00200286
0.00195784
0.00197799
0.00191325
0.00193554
0.00187017
0.00189178
0.0018264
0.00184838
0.00178228
0.00180436
0.00173805
0.00176017
0.00169391
0.00171596
0.00165006
0.00167194
0.00160661
0.00162828
0.00156367
0.00158507
0.0015213
0.00154241
0.00147957
0.00150036
0.00143847
0.00145894
0.00139801
0.00141816
0.00135818
0.00137802
0.00131896
0.0013385
0.00128032
0.00129957
0.00124222
0.0012612
0.00120463
0.00122337
0.00116725
0.00118587
0.00114848
0.00109177
0.001092
0.00109186
0.00109185
0.00109186
0.0010921
0.00109199
0.0010923
0.00114986
0.00111223
0.00113128
0.00118733
0.00116858
0.0012249
0.00120614
0.0012628
0.00124379
0.00130124
0.00128196
0.00134025
0.00132068
0.00137985
0.00135997
0.00142007
0.00139988
0.00146093
0.00144042
0.00150244
0.00148161
0.00154457
0.00152343
0.00158732
0.00156588
0.00163061
0.0016089
0.00167436
0.00165244
0.00171846
0.00169638
0.00176273
0.00174059
0.00180695
0.00178487
0.00185085
0.00182897
0.00189406
0.00187257
0.00193616
0.00191529
0.00197691
0.00195686
0.00201597
0.00199587
0.00205431
0.00203615
0.00207793
0.00207092
0.00203855
0.00203771
0.00109207
0.00109348
0.00205348
0.00202485
0.00205466
0.00205532
0.00207032
0.00206768
0.00208115
0.0020793
0.00208345
0.00209395
0.00208835
0.00203839
0.00201581
0.00206684
0.00204523
0.00198512
0.00199804
0.00195027
0.0019706
0.00190805
0.00192915
0.00186551
0.0018869
0.00182222
0.00184394
0.00177851
0.0018004
0.00173466
0.0017566
0.00169087
0.00171275
0.00164732
0.00166906
0.00160414
0.00162568
0.00156144
0.00158273
0.0015193
0.0015403
0.00147775
0.00149845
0.00143682
0.00145721
0.00139652
0.0014166
0.00135683
0.0013766
0.00131773
0.00133721
0.00127919
0.00129839
0.0012412
0.00126013
0.00120371
0.0012224
0.00116659
0.00118514
0.00112939
0.001148
0.00109193
0.00111082
0.00107338
0.00107313
0.00107318
0.00107361
0.00107346
0.00107385
0.00107372
0.00107395
0.00107393
0.00107418
0.00107404
0.00107487
0.00107445
0.00111227
0.00107517
0.00109371
0.00114953
0.00113097
0.00118675
0.00116815
0.00122406
0.00120536
0.00126188
0.00124291
0.00130021
0.00128098
0.0013391
0.00131959
0.00137858
0.00135877
0.00141866
0.00139855
0.00145936
0.00143894
0.00150069
0.00147995
0.00154263
0.00152159
0.00158515
0.00156383
0.00162819
0.00160662
0.00167166
0.00164988
0.00171544
0.00169353
0.00175934
0.00173739
0.00180316
0.00178129
0.0018466
0.00182495
0.00188932
0.00186808
0.00193092
0.00191029
0.00197091
0.00195121
0.00200898
0.00199011
0.00204461
0.00202742
0.00207836
0.00206068
0.00210427
0.00209518
0.00205605
0.00207666
0.00206737
0.00109175
0.00107329
0.00105629
0.00105645
0.00205653
0.00207312
0.00208042
0.00208731
0.00209915
0.00211076
0.00211842
0.00210996
0.00205674
0.00205741
0.00209025
0.00208078
0.00207039
0.00201338
0.00203725
0.00197812
0.00199368
0.00194296
0.0019626
0.00190203
0.00192257
0.00186014
0.00188122
0.00181741
0.00183886
0.00177421
0.00179585
0.0017308
0.00175252
0.0016874
0.00170909
0.00164419
0.00166576
0.00160132
0.00162271
0.0015589
0.00158005
0.001517
0.00153788
0.00147567
0.00149626
0.00143494
0.00145523
0.00139481
0.0014148
0.00135527
0.00137497
0.00131631
0.00133572
0.00127791
0.00129704
0.00124003
0.0012589
0.00120264
0.00122128
0.00116572
0.00118413
0.0011288
0.00114726
0.00111025
0.00105506
0.00105467
0.00105487
0.00105561
0.00105538
0.001056
0.00105583
0.00105606
0.00105607
0.00105599
0.00105605
0.00105609
0.00111219
0.00107518
0.00109369
0.00114895
0.00113057
0.00118587
0.00116743
0.00122309
0.00120442
0.00126079
0.00124188
0.00129901
0.00127984
0.00133777
0.00131832
0.0013771
0.00135737
0.00141702
0.00139699
0.00145754
0.00143721
0.00149867
0.00147803
0.00154038
0.00151946
0.00158265
0.00156145
0.0016254
0.00160397
0.00166855
0.00164694
0.00171196
0.00169024
0.00175546
0.00173372
0.00179881
0.00177718
0.00184174
0.00182036
0.00188391
0.00186295
0.00192492
0.00190459
0.00196432
0.00194487
0.00200165
0.00198329
0.00203617
0.00201934
0.00206893
0.00205223
0.00209882
0.00208357
0.00210126
0.00209613
0.00212318
0.00211284
0.00207153
0.00105487
0.00105651
0.00209127
0.00207432
0.00210427
0.00208601
0.00209051
0.00210411
0.00210453
0.00211628
0.00212495
0.00213151
0.00213568
0.00212578
0.00207385
0.00206811
0.00210909
0.00210147
0.00208057
0.00204547
0.00206035
0.00200741
0.00202608
0.00197092
0.00198831
0.00193519
0.00195418
0.00189531
0.00191542
0.00185416
0.00187489
0.00181206
0.00183321
0.00176941
0.00179079
0.00172648
0.00174797
0.00168351
0.00170499
0.00164068
0.00166207
0.00159816
0.00161938
0.00155604
0.00157705
0.00151442
0.00153517
0.00147333
0.00149381
0.00143282
0.00145301
0.00139288
0.00141278
0.00135352
0.00137313
0.00131472
0.00133405
0.00127646
0.00129553
0.00123871
0.00125752
0.00120144
0.00122002
0.00116463
0.00118298
0.00112809
0.00114638
0.00109146
0.00110972
0.00105473
0.00107324
0.0010366
0.00103616
0.00103637
0.0010372
0.00103683
0.00103782
0.00103752
0.00103823
0.00103806
0.00103826
0.00103829
0.00103809
0.00103817
0.00103796
0.00103796
0.0010381
0.00103796
0.00107501
0.00103817
0.00105668
0.00111173
0.00109333
0.00114819
0.00113
0.00118486
0.00116648
0.00122197
0.00120336
0.00125956
0.00124071
0.00129764
0.00127854
0.00133625
0.00131688
0.00137542
0.00135577
0.00141515
0.00139522
0.00145547
0.00143524
0.00149637
0.00147586
0.00153783
0.00151704
0.00157981
0.00155876
0.00162225
0.00160098
0.00166504
0.00164361
0.00170805
0.00168653
0.00175109
0.00172958
0.00179395
0.00177257
0.00183633
0.00181523
0.00187789
0.00185725
0.00191825
0.00189826
0.00195697
0.00193786
0.0019936
0.00197559
0.00202748
0.00201094
0.00205861
0.00204347
0.00208666
0.0020725
0.00211295
0.00210082
0.00211514
0.00211398
0.00213418
0.00212078
0.00208935
0.00209194
0.00211133
0.00212228
0.00211751
0.00210451
0.00210758
0.00105451
0.00103646
0.00101986
0.00101997
0.00212155
0.00212065
0.00213103
0.00213804
0.00214322
0.0021444
0.00211962
0.00211087
0.00211704
0.00214317
0.00213422
0.00213332
0.00209158
0.00209178
0.00209731
0.00205724
0.00207191
0.00203331
0.00204814
0.00199825
0.00201542
0.00196335
0.0019809
0.00192703
0.00194562
0.00188808
0.00190778
0.00184766
0.00186803
0.00180622
0.00182705
0.00176415
0.00178525
0.00172174
0.00174297
0.00167923
0.00170049
0.00163682
0.00165801
0.00159467
0.00161571
0.00155289
0.00157373
0.00151156
0.00153217
0.00147074
0.00149109
0.00143047
0.00145054
0.00139075
0.00141054
0.00135158
0.0013711
0.00131296
0.0013322
0.00127485
0.00129384
0.00123725
0.00125599
0.00120011
0.00121863
0.00116342
0.00118171
0.00112715
0.00114524
0.00109085
0.00110901
0.00107271
0.00101859
0.00101808
0.00101831
0.00101945
0.00101905
0.00102014
0.00101983
0.00102053
0.00102038
0.00102058
0.0010206
0.00102032
0.00102047
0.00102003
0.00102017
0.00101993
0.00107469
0.00103842
0.00105655
0.00111101
0.00109282
0.00114718
0.00112906
0.00118373
0.0011654
0.00122072
0.00120217
0.00125817
0.00123939
0.0012961
0.00127707
0.00133455
0.00131526
0.00137353
0.00135397
0.00141307
0.00139323
0.00145316
0.00143305
0.00149381
0.00147342
0.00153499
0.00151434
0.00157666
0.00155578
0.00161875
0.00159766
0.00166115
0.00163992
0.00170372
0.00168243
0.00174629
0.00172503
0.00178861
0.0017675
0.0018304
0.0018096
0.00187133
0.00185101
0.00191101
0.00189136
0.001949
0.00193026
0.00198487
0.00196724
0.0020181
0.00200186
0.00204832
0.00203366
0.00207526
0.0020622
0.0020981
0.00208755
0.00212042
0.00210677
0.00213065
0.00213872
0.00215279
0.00214494
0.00213322
0.00212218
0.00212976
0.00212975
0.00210736
0.00210913
0.00101817
0.00101992
0.00213668
0.00212211
0.00212386
0.00213607
0.00213583
0.00214477
0.00215093
0.00215262
0.00215129
0.00212489
0.00211054
0.00211501
0.0021178
0.00212525
0.00213968
0.00213092
0.00214154
0.00214778
0.00215455
0.00214986
0.00210907
0.00209944
0.00210135
0.00207595
0.00208442
0.0020473
0.00206223
0.00202095
0.00203492
0.00198871
0.00200523
0.00195454
0.00197183
0.00191856
0.00193685
0.0018804
0.00189971
0.0018407
0.00186072
0.00179994
0.00182044
0.00175847
0.00177928
0.0017166
0.00173757
0.00167459
0.00169561
0.00163262
0.00165359
0.00159087
0.00161172
0.00154945
0.00157012
0.00150844
0.00152889
0.00146791
0.00148812
0.0014279
0.00144784
0.00138841
0.00140809
0.00134946
0.00136887
0.00131102
0.00133018
0.0012731
0.001292
0.00123565
0.00125432
0.00119866
0.0012171
0.0011621
0.00118033
0.00112594
0.00114397
0.00109002
0.001108
0.00105413
0.00107204
0.00101803
0.00103606
0.00100022
0.000999992
0.000999951
0.00100096
0.00100048
0.00100185
0.0010014
0.00100254
0.00100224
0.00100291
0.00100277
0.00100297
0.00100298
0.00100271
0.00100287
0.00100225
0.00100252
0.00100187
0.00100202
0.00100167
0.00100176
0.00103791
0.00100158
0.00101985
0.00107415
0.00105603
0.00111001
0.00109211
0.00114605
0.00112798
0.00118248
0.00116422
0.00121934
0.00120086
0.00125663
0.00123793
0.0012944
0.00127546
0.00133267
0.00131347
0.00137145
0.001352
0.00141077
0.00139105
0.00145062
0.00143063
0.001491
0.00147075
0.00153188
0.00151138
0.00157321
0.0015525
0.00161492
0.00159403
0.00165691
0.00163589
0.00169902
0.00167796
0.00174107
0.00172007
0.00178283
0.00176201
0.00182401
0.00180352
0.00186427
0.00184429
0.00190324
0.00188396
0.0019405
0.00192212
0.0019756
0.00195836
0.00200808
0.00199221
0.00203756
0.00202324
0.00206364
0.00205108
0.00208539
0.00207518
0.00210353
0.00209507
0.00210698
0.00214274
0.00214845
0.00214139
0.00212838
0.00212459
0.00212563
0.00214165
0.00213712
0.00213923
0.00101756
0.000999705
0.000983591
0.000983293
0.00215082
0.00214997
0.00215763
0.00216187
0.00216294
0.00216211
0.00212252
0.00210805
0.00211959
0.00213046
0.00214325
0.00214538
0.00215516
0.00216168
0.00215042
0.00212867
0.00214317
0.00212589
0.00209846
0.00209255
0.00208253
0.00209182
0.00206034
0.00207171
0.00203633
0.00204903
0.00200947
0.00202335
0.00197853
0.00199445
0.00194512
0.00196207
0.00190973
0.0019277
0.0018723
0.00189125
0.00183334
0.00185299
0.00179325
0.00181341
0.0017524
0.00177291
0.0017111
0.0017318
0.00166961
0.00169037
0.00162811
0.00164885
0.00158678
0.00160742
0.00154574
0.00156622
0.00150507
0.00152536
0.00146486
0.00148491
0.00142512
0.00144493
0.00138588
0.00140544
0.00134716
0.00136646
0.00130893
0.00132798
0.00127119
0.00129
0.00123391
0.0012525
0.00119708
0.00121544
0.00116066
0.00117882
0.00112463
0.0011426
0.00108896
0.00110676
0.00105338
0.0010711
0.00103549
0.000982441
0.0009818
0.000982159
0.000983423
0.00098295
0.000984353
0.000983911
0.000985015
0.000984723
0.000985373
0.000985231
0.000985431
0.00098544
0.000985183
0.000985345
0.000984669
0.000984952
0.000984027
0.000984369
0.000983724
0.00103743
0.00100149
0.00101963
0.00107331
0.00105534
0.00110889
0.00109107
0.00114481
0.00112681
0.00118111
0.00116292
0.00121782
0.00119942
0.00125495
0.00123633
0.00129254
0.00127369
0.00133062
0.00131152
0.00136919
0.00134984
0.00140827
0.00138867
0.00144786
0.001428
0.00148794
0.00146784
0.0015285
0.00150817
0.00156947
0.00154894
0.00161079
0.0015901
0.00165233
0.00163154
0.00169396
0.00167315
0.00173547
0.00171475
0.00177665
0.00175613
0.00181719
0.00179703
0.00185678
0.00183714
0.00189502
0.0018761
0.00193153
0.00191353
0.00196586
0.00194901
0.00199757
0.00198208
0.00202626
0.00201233
0.00205153
0.00203937
0.00207273
0.0020627
0.00208944
0.00208185
0.00210115
0.00209553
0.00211344
0.00210867
0.00212901
0.00211569
0.00210965
0.00215429
0.00215456
0.00213994
0.00214111
0.000981723
0.000983557
0.00215778
0.00215151
0.00215356
0.00216418
0.002163
0.0021692
0.00217207
0.00217179
0.00216797
0.00212185
0.00210461
0.00210284
0.00210006
0.0020961
0.0021153
0.00212035
0.00214062
0.00214415
0.00215769
0.00215808
0.00216497
0.00215548
0.00214263
0.00212748
0.00214142
0.00209708
0.00210409
0.00208215
0.00208062
0.00206635
0.00207731
0.00204746
0.00205742
0.00202432
0.00203642
0.00199786
0.00201152
0.00196787
0.00198328
0.00193527
0.00195186
0.00190055
0.00191818
0.00186385
0.00188243
0.0018256
0.0018449
0.0017862
0.00180603
0.00174599
0.00176618
0.00170527
0.00172568
0.00166431
0.00168481
0.0016233
0.0016438
0.00158241
0.00160283
0.00154177
0.00156205
0.00150147
0.00152157
0.00146157
0.00148147
0.00142213
0.0014418
0.00138317
0.00140259
0.00134468
0.00136387
0.00130668
0.00132562
0.00126914
0.00128785
0.00123204
0.00125054
0.00119538
0.00121366
0.00115911
0.0011772
0.00112322
0.00114113
0.00108769
0.00110541
0.00105246
0.00107004
0.00101689
0.00103463
0.000981136
0.000999161
0.000964043
0.000963049
0.000963547
0.000964984
0.000964465
0.000966007
0.000965481
0.000966928
0.000966503
0.000967556
0.000967278
0.000967902
0.000967765
0.000967963
0.000967968
0.000967739
0.000967887
0.000967239
0.000967522
0.000966515
0.000966889
0.000965877
0.000966167
0.000965605
0.000965647
0.00100113
0.000965595
0.000983446
0.00103673
0.00101902
0.00107224
0.0010545
0.00110768
0.00108992
0.00114348
0.00112554
0.00117963
0.00116151
0.00121617
0.00119785
0.00125313
0.0012346
0.00129054
0.00127178
0.0013284
0.00130941
0.00136674
0.00134751
0.00140557
0.00138609
0.00144488
0.00142516
0.00148465
0.00146471
0.00152487
0.00150472
0.00156547
0.00154513
0.00160636
0.00158589
0.00164744
0.00162689
0.00168856
0.00166802
0.00172953
0.00170909
0.0017701
0.00174989
0.00181
0.00179016
0.00184889
0.0018296
0.00188641
0.00186786
0.00192217
0.00190455
0.00195573
0.00193926
0.00198667
0.00197157
0.0020146
0.00200106
0.00203909
0.00202731
0.00205965
0.00204991
0.0020759
0.0020684
0.00208779
0.00208227
0.00209567
0.00209295
0.00209383
0.00216666
0.00216889
0.00211393
0.00210148
0.00215433
0.00215557
0.00216619
0.00216482
0.00216679
0.000980735
0.000963107
0.000947821
0.000947582
0.00217644
0.00217487
0.00217962
0.00218102
0.00217903
0.0021737
0.00210016
0.00208477
0.00208171
0.00209912
0.00211928
0.00213847
0.0021545
0.00215765
0.00216858
0.00216819
0.00215591
0.00213974
0.00212494
0.00208926
0.00210129
0.0021559
0.00208951
0.00208355
0.00207872
0.002088
0.002066
0.00207142
0.00205276
0.00206066
0.00203439
0.00204407
0.00201189
0.00202363
0.00198603
0.00199938
0.00195689
0.00197185
0.00192508
0.00194129
0.00189105
0.00190834
0.00185508
0.00187329
0.00181755
0.00183649
0.00177883
0.00179832
0.00173926
0.00175913
0.00169914
0.00171925
0.00165872
0.00167896
0.00161821
0.00163847
0.00157778
0.00159798
0.00153755
0.00155764
0.00149763
0.00151755
0.00145808
0.00147781
0.00141895
0.00143847
0.00138027
0.00139956
0.00134204
0.0013611
0.00130427
0.0013231
0.00126694
0.00128555
0.00123005
0.00124845
0.00119356
0.00121176
0.00115746
0.00117547
0.00112172
0.00113955
0.00108632
0.00110398
0.00105124
0.00106875
0.00101606
0.00103367
0.000998354
0.000946434
0.000945439
0.000945957
0.000947613
0.000947051
0.000948694
0.000948163
0.000949565
0.000949165
0.000950166
0.000949899
0.000950499
0.000950366
0.000950564
0.000950565
0.000950361
0.000950495
0.000949894
0.000950161
0.000949183
0.000949562
0.000948347
0.000948787
0.000947977
0.00100069
0.000965317
0.000983201
0.00103591
0.00101831
0.00107106
0.00105351
0.00110639
0.00108869
0.00114204
0.00112417
0.00117803
0.00115999
0.00121441
0.00119617
0.00125118
0.00123274
0.00128838
0.00126973
0.00132602
0.00130715
0.00136412
0.00134501
0.00140267
0.00138334
0.00144169
0.00142213
0.00148114
0.00146137
0.001521
0.00150103
0.0015612
0.00154107
0.00160166
0.00158141
0.00164227
0.00162196
0.00168287
0.00166259
0.00172326
0.00170311
0.00176322
0.00174332
0.00180246
0.00178296
0.00184067
0.00182173
0.00187747
0.00185928
0.00191248
0.00189523
0.00194529
0.0019292
0.00197549
0.00196076
0.00200268
0.0019895
0.00202646
0.00201504
0.0020464
0.00203695
0.00206218
0.00205487
0.00207377
0.00206845
0.00208052
0.00207803
0.00208236
0.0020817
0.00208445
0.00208044
0.00208619
0.00207242
0.00207365
0.00217736
0.00217857
0.00216768
0.00216893
0.000945355
0.00094738
0.00217246
0.00217706
0.00217887
0.00218726
0.00218555
0.00218883
0.00218861
0.00218497
0.00217799
0.00208047
0.00206452
0.00205581
0.00205917
0.00204822
0.00206327
0.00207503
0.0020988
0.00211594
0.00213777
0.00215262
0.00216721
0.00217313
0.00216931
0.00215455
0.00213663
0.00211806
0.00209671
0.00207698
0.00216931
0.00207598
0.0020731
0.00207245
0.00206262
0.00206179
0.00207186
0.00205231
0.00205707
0.00203907
0.00204644
0.0020211
0.00203059
0.00199928
0.00201066
0.00197405
0.00198708
0.00194568
0.00196025
0.00191462
0.00193046
0.0018813
0.00189823
0.00184604
0.00186389
0.00180921
0.00182781
0.00177117
0.00179033
0.00173224
0.0017518
0.00169272
0.00171254
0.00165286
0.00167283
0.00161287
0.00163287
0.0015729
0.00159288
0.00153311
0.00155298
0.00149358
0.00151331
0.00145439
0.00147394
0.00141559
0.00143494
0.0013772
0.00139634
0.00133924
0.00135817
0.00130172
0.00132043
0.00126462
0.00128312
0.00122793
0.00124623
0.00119163
0.00120974
0.00115571
0.00117363
0.00112013
0.00113788
0.00108487
0.00110246
0.00104991
0.00106736
0.00101511
0.00103253
0.000980162
0.00099758
0.000944985
0.000962721
0.000928079
0.000927221
0.000927623
0.000929195
0.00092857
0.000930383
0.000929794
0.000931443
0.000930938
0.000932266
0.000931886
0.000932839
0.000932583
0.00093316
0.000933031
0.000933228
0.000933225
0.000933044
0.000933167
0.000932611
0.000932858
0.000931927
0.000932301
0.000931051
0.000931498
0.00093029
0.000930637
0.0009302
0.000929963
0.000965066
0.000930094
0.000947854
0.00100005
0.000982598
0.00103493
0.00101744
0.00106982
0.00105235
0.001105
0.00108738
0.0011405
0.00112271
0.00117633
0.00115837
0.00121252
0.00119438
0.0012491
0.00123076
0.00128608
0.00126754
0.00132349
0.00130473
0.00136133
0.00134235
0.0013996
0.00138041
0.00143831
0.00141891
0.00147742
0.00145782
0.00151691
0.00149713
0.0015567
0.00153677
0.00159671
0.00157669
0.00163683
0.00161677
0.00167689
0.00165689
0.00171671
0.00169686
0.00175606
0.00173647
0.00179464
0.00177547
0.00183215
0.00181356
0.00186824
0.00185041
0.00190253
0.00188565
0.00193461
0.00191888
0.0019641
0.00194972
0.0019906
0.00197777
0.00201374
0.00200263
0.00203313
0.00202394
0.00204846
0.00204134
0.00205964
0.00205457
0.0020662
0.00206362
0.00206779
0.00206765
0.00206535
0.00206712
0.00205892
0.00218672
0.00218676
0.00205927
0.00204807
0.00217994
0.00218114
0.00217995
0.00218802
0.00218975
0.000944495
0.000927037
0.000912583
0.000912495
0.00219673
0.00219499
0.0021967
0.00219487
0.00218953
0.00218096
0.00205456
0.00204207
0.00202683
0.00203921
0.0020751
0.00209176
0.0021168
0.00212885
0.00215189
0.00216641
0.00217786
0.00216867
0.00215184
0.00213292
0.00210937
0.00209083
0.00206843
0.00203409
0.00204532
0.00218159
0.00205219
0.0020347
0.0020599
0.00206057
0.00205475
0.00205044
0.00204776
0.00205431
0.00203856
0.00204333
0.00202533
0.00203257
0.00200782
0.00201707
0.00198659
0.00199767
0.00196198
0.0019747
0.0019343
0.00194851
0.00190395
0.00191944
0.00187132
0.00188791
0.00183677
0.00185427
0.00180063
0.00181888
0.00176326
0.00178208
0.00172497
0.00174422
0.00168606
0.00170558
0.00164676
0.00166645
0.00160729
0.00162704
0.0015678
0.00158754
0.00152845
0.00154811
0.00148933
0.00150886
0.00145051
0.00146988
0.00141204
0.00143123
0.00137397
0.00139296
0.00133629
0.00135508
0.00129902
0.00131761
0.00126216
0.00128055
0.00122569
0.00124388
0.00118959
0.0012076
0.00115385
0.00117168
0.00111844
0.00113611
0.00108334
0.00110086
0.00104853
0.0010659
0.00101398
0.00103123
0.000979379
0.000996615
0.00096196
0.000910753
0.000909745
0.000910254
0.000912043
0.00091141
0.000913239
0.000912658
0.000914247
0.000913771
0.000915026
0.000914665
0.000915572
0.000915328
0.000915881
0.000915756
0.000915952
0.000915946
0.000915786
0.000915898
0.000915385
0.000915614
0.000914753
0.000915098
0.000913909
0.00091435
0.000913011
0.000913474
0.000912679
0.000964642
0.000929922
0.000947311
0.000999234
0.000981882
0.00103375
0.00101647
0.0010685
0.00105109
0.00110353
0.00108598
0.00113886
0.00112116
0.00117452
0.00115665
0.00121052
0.00119247
0.00124689
0.00122866
0.00128364
0.00126522
0.0013208
0.00130218
0.00135837
0.00133954
0.00139636
0.00137732
0.00143474
0.0014155
0.0014735
0.00145408
0.0015126
0.00149302
0.00155197
0.00153226
0.00159152
0.00157174
0.00163114
0.00161134
0.00167067
0.00165093
0.00170991
0.00169034
0.00174863
0.00172936
0.00178656
0.00176772
0.0018234
0.00180515
0.00185879
0.00184131
0.00189237
0.00187584
0.00192376
0.00190838
0.00195258
0.00193853
0.00197844
0.00196592
0.002001
0.00199017
0.0020199
0.00201094
0.00203486
0.00202791
0.00204571
0.00204082
0.00205212
0.00204954
0.00205388
0.00205358
0.00205083
0.00205313
0.00204258
0.00204707
0.0020347
0.00203449
0.00201963
0.00201053
0.00202218
0.00219469
0.00219312
0.00219098
0.00219215
0.00090958
0.000912231
0.00218587
0.00219766
0.00219936
0.00220488
0.00220309
0.00220321
0.00219969
0.00219268
0.00218227
0.00201301
0.00200953
0.00200198
0.00202163
0.00203927
0.00206049
0.00209144
0.00210676
0.00213105
0.00214627
0.00216431
0.00217809
0.00216639
0.00214784
0.00212668
0.00210514
0.00208114
0.00205564
0.00203033
0.00200065
0.00200605
0.001993
0.00219264
0.00203305
0.00200821
0.00203517
0.00202769
0.00204272
0.00204163
0.00203882
0.00204024
0.00203428
0.00203782
0.00202489
0.00202994
0.00201175
0.00201886
0.00199464
0.00200367
0.00197391
0.00198472
0.00194987
0.00196229
0.00192282
0.00193671
0.00189313
0.00190829
0.00186118
0.00187743
0.0018273
0.00184447
0.00179184
0.00180976
0.00175513
0.00177363
0.00171748
0.00173641
0.00167916
0.00169839
0.00164043
0.00165984
0.00160149
0.00162098
0.00156249
0.00158199
0.00152359
0.00154303
0.00148488
0.00150421
0.00144645
0.00146563
0.00140833
0.00142735
0.00137057
0.00138941
0.00133319
0.00135184
0.0012962
0.00131465
0.00125958
0.00127784
0.00122334
0.00124142
0.00118745
0.00120535
0.0011519
0.00116964
0.00111667
0.00113425
0.00108174
0.00109917
0.00104707
0.00106437
0.00101266
0.00102984
0.000978317
0.00099545
0.000943937
0.000961194
0.000909183
0.00092664
0.000892566
0.000891702
0.000892091
0.000893722
0.00089308
0.000894989
0.000894353
0.000896151
0.000895595
0.000897102
0.000896653
0.000897841
0.000897499
0.000898362
0.000898129
0.000898659
0.000898538
0.000898733
0.000898724
0.000898584
0.000898686