/*--------------------------------*- C++ -*----------------------------------*\
  =========                 |
  \\      /  F ield         | OpenFOAM: The Open Source CFD Toolbox
   \\    /   O peration     | Website:  https://openfoam.org
    \\  /    A nd           | Version:  10
     \\/     M anipulation  |
\*---------------------------------------------------------------------------*/
FoamFile
{
    format      ascii;
    class       surfaceScalarField;
    location    "44.5";
    object      phi;
}
// * * * * * * * * * * * * * * * * * * * * * * * * * * * * * * * * * * * * * //

dimensions      [0 3 -1 0 0 0 0];

internalField   nonuniform List<scalar> 
57492
(
0.000237145
-1.06675e-05
-4.39942e-05
-0.000182483
-0.00016364
0.000269145
0.00013164
-2.88101e-05
8.10069e-05
0.000323925
-0.000376122
0.00315964
0.00338647
-0.000272017
-0.0062741
-0.00862821
0.00404531
0.00774255
0.000824096
-0.000760309
-0.00039847
0.000334683
-0.00147226
0.000261896
-9.47049e-05
0.00130507
0.000312437
-0.000960603
0.00157684
-0.00463336
0.0044263
-0.00136978
0.00133167
0.00425013
-0.00400496
-0.000617779
-0.000208696
0.000691318
0.000135156
-0.000123412
-0.000839232
0.000344866
0.000234103
-0.000328229
-2.92868e-05
-5.3863e-05
7.92698e-05
0.00193164
-0.00186021
-0.000697969
0.000626536
0.000274212
0.00155764
9.97854e-05
-0.000324026
0.000787842
0.00333561
-0.00379942
-0.000660344
0.00326145
-0.00292513
0.000135538
-0.000288767
0.000153228
-0.0016647
0.0012209
0.000579334
-0.00466098
0.000190806
0.00333685
0.00113332
0.00122694
-0.00473095
-0.00115697
-0.000133381
-0.000198894
-0.000705783
0.00103806
-0.000288823
0.00017758
-2.21381e-05
-0.00255665
0.00216888
0.000738526
-0.000350757
-0.00305799
0.000924435
-0.000423089
-0.00112802
0.000596545
0.000456924
7.45516e-05
-0.000779173
-0.000362385
1.35374e-05
-0.00036752
-0.0011347
0.00129201
0.000210211
-0.000416367
0.000116495
-6.76478e-05
0.000858213
-0.000571686
-0.000532432
0.000245905
-0.000740979
0.000591462
0.00100773
-0.00101274
-0.0019407
0.00186554
0.0010879
-0.00229199
-0.000551758
0.001831
-0.000707709
-0.000152201
0.00085991
-0.000271421
-0.000436288
-0.001375
0.00189283
-0.000789255
0.000203168
-0.000767453
-0.000810712
-0.00065481
0.000916706
-0.00023312
-0.00190178
0.0011508
0.000750985
-0.00432154
0.00241976
0.00491266
-0.000924457
0.000444661
-0.00443286
0.00362444
1.42583e-05
0.00127396
-0.0008277
0.00488731
-0.00498406
0.00161097
0.000344422
-0.00164295
0.00162131
-0.000105041
0.00195885
-0.000733912
-0.00145744
0.000232503
0.00219345
0.000109823
0.00101075
-0.00062663
0.00123719
0.000967377
0.00134844
-0.00474293
-0.000644425
0.00055983
0.00482752
-0.00487585
-0.000309741
0.000442667
0.00120644
0.0045137
-0.00443806
-0.00128208
0.000877418
-0.00430434
-0.00280167
0.00254032
0.00255069
-0.00228933
-0.000288344
0.00321482
-0.00572815
1.49375e-05
-0.00011778
-8.12644e-07
0.000103655
-0.000323692
1.04007e-05
6.76224e-05
-0.000136971
-0.000254344
-5.68975e-05
6.74027e-06
1.13258e-05
-1.21384e-05
8.96703e-06
2.35875e-06
0.00731788
0.00378601
-0.00588881
-0.00521508
0.00233505
-0.000700093
0.00568292
-0.00786525
0.00309465
0.00710565
0.00228856
-0.00636781
0.0016234
-0.00286672
0.00213473
-0.000891401
0.00235763
-0.00291549
0.00218126
-3.00363e-05
2.19552e-05
-2.58639e-06
-7.05692e-05
-3.46132e-06
-0.000223855
-2.91976e-05
-0.00294029
0.00535133
0.00339271
-0.00580375
0.00436306
-0.00494571
0.00298394
0.00475137
-0.00238397
0.0101081
-0.00149444
-0.00178596
-0.00682769
0.00223376
0.00543587
0.00243846
0.00159957
-0.00502162
0.00565581
4.68757e-05
-7.56858e-05
0.000127883
0.000817696
0.00175959
-0.000627069
-0.00195022
0.00104178
9.98389e-05
-9.6251e-05
2.6484e-05
6.9767e-05
-0.00029923
0.000202979
-0.00661093
0.00342259
-0.00201394
0.00520229
-0.00574493
-0.00250202
0.00163602
-0.00262627
0.0020906
-0.00520926
0.00195341
-2.65471e-05
-0.000944865
-0.000981998
-0.000712138
0.00222921
0.000436339
-0.000835296
-8.53013e-05
0.00020846
-0.000772128
-8.9715e-05
-0.000271625
-0.00144537
-0.000240082
-6.31995e-05
1.88727e-05
0.000284409
-0.000217944
-0.000528252
0.000506113
0.00013881
1.69555e-05
-0.000373709
7.98979e-05
-4.28778e-06
0.000101405
-2.63445e-06
-0.000641535
0.00036991
8.34556e-05
-0.00072499
0.000172775
-0.000472005
0.00427357
0.00333165
-0.000178502
0.00212869
-0.00648333
-1.0299e-05
0.00226385
-0.00179744
-0.000456115
0.000291875
0.003164
-0.00346617
0.00327459
0.00185745
-0.000515361
-0.00461668
-0.00102525
0.000489108
0.00381073
0.00400891
-0.00317671
-0.00164088
-0.00303508
0.00124789
0.00342808
-0.00118761
0.00350595
-0.00395922
0.000420232
-0.00464292
8.3335e-05
3.41264e-05
-4.65442e-06
0.00105116
-0.000619472
-0.000595326
7.7566e-05
-0.000327518
0.00130111
0.000365908
-1.9196e-05
-0.00018731
0.000331861
6.83494e-05
-0.000212901
0.000991952
-0.00121524
3.59828e-05
-0.000357664
0.00083114
0.000518475
-0.000125115
9.93125e-05
-0.00612141
0.00364946
0.00589453
0.00772451
-0.00201088
-0.00821565
-0.00286071
0.00446381
-9.71392e-05
-0.000875032
-0.000162532
-0.000522655
9.14872e-06
4.7941e-05
-0.000129974
3.71956e-05
4.48375e-05
-0.000130063
0.000144616
3.3388e-05
-0.000299585
3.95482e-05
-0.000265546
-0.000312997
5.58885e-05
-0.000804411
-0.000336166
-0.000921526
-0.000989565
0.00113197
0.00077912
3.78806e-05
0.000486766
-0.00144617
-0.00129154
0.000339853
-0.0029362
0.00133149
-5.99893e-05
-0.00350489
0.000809674
-0.000240982
0.000876145
-0.00334727
0.002564
-9.28761e-05
0.000679146
-0.0027282
0.00292519
0.00252835
-0.0101972
-0.00176741
0.0021839
0.00302356
-0.00345948
0.00206201
-0.000321385
5.25496e-07
1.643e-05
-3.36311e-06
3.88861e-06
0.000284494
-4.13262e-05
0.005597
-0.00340301
-0.00242358
0.000229596
0.00482754
-5.824e-05
0.0046648
0.000148975
-0.00510211
0.00136978
0.00331406
-1.90456e-05
0.000541987
-0.00293279
0.00376058
5.46437e-06
-8.82747e-06
0.000759526
-0.00212144
-0.00284875
0.00123335
0.00308646
0.000966966
-5.46237e-05
-0.00101679
0.000104452
0.000320043
-9.40556e-05
-0.00124318
0.000270322
0.00156432
0.000224446
-0.00114758
-0.00013492
7.5496e-05
-7.22658e-06
1.02924e-05
-2.74638e-06
-3.19417e-07
1.09869e-05
-2.48076e-07
-1.79654e-05
4.70392e-05
-0.000104472
6.84198e-05
-0.00172445
0.00266113
-0.000763913
0.00292217
-0.00379528
-0.00085134
5.425e-06
-0.00170192
0.00196682
-0.00400084
0.000242755
-0.00274211
-0.00183649
0.000577758
0.0026937
0.00291096
-0.00541385
0.00260417
0.00429578
-0.00420625
0.00223963
-0.00308474
0.00160691
-0.000761801
0.00245469
-0.00302396
0.0028089
0.00437259
0.00187523
0.00499289
-0.000240461
-0.00495949
0.000207069
0.00553067
-0.000668209
0.000130428
0.00552961
-0.000895726
7.35321e-05
-0.00470742
0.00396972
-0.00136781
0.0029277
0.00430864
-0.00140125
0.00113788
-0.00404528
0.00126611
0.00438899
-0.00134647
-0.00387714
-0.00166328
0.00413918
0.00106401
-0.00369326
-0.00185657
0.00362136
-0.002376
-0.00324074
0.00215137
0.00346537
-0.00239261
-0.00326899
0.0032856
0.00223289
0.00304794
-0.00147274
-0.00380809
0.00302187
-0.00318159
-0.0025872
0.00261106
0.00299801
-0.00203938
0.00250012
-0.0040704
0.00361651
-0.00101885
-0.00506774
0.00105142
0.005377
-0.00136069
0.00190902
-0.00026877
0.00100329
-0.00106885
0.000334332
-0.000111235
0.00128618
-0.00144372
-5.34082e-05
0.000307725
0.000111591
-0.0012449
-0.00193738
0.00125906
-1.49479e-07
-9.85975e-08
3.11029e-07
-4.60509e-07
-0.000117552
-0.00214354
0.00163446
-0.00190374
-7.97449e-05
0.00186593
5.51285e-05
-0.00199549
3.66235e-05
-0.000282828
0.00178611
0.000308477
-0.00181176
0.00184423
0.000511865
-0.00263893
0.00182692
0.00180342
-2.49998e-06
4.92075e-07
3.61343e-05
-4.79566e-06
2.29568e-06
-4.30358e-06
-5.61455e-06
4.32788e-06
-5.56108e-05
1.07027e-06
-6.68482e-06
5.39815e-06
-4.42643e-05
2.14355e-05
-0.000265994
2.23884e-05
-6.66527e-05
4.3824e-05
5.32104e-05
-5.33821e-06
-0.000172987
-1.69098e-05
7.01202e-05
-2.2248e-05
0.00141804
0.00328707
-0.00421601
0.00134188
-0.00448105
0.00455722
0.00472034
-9.13916e-05
-0.00118245
-0.00244455
0.00115828
0.00246872
-0.000710432
0.0027219
-0.00319392
0.000157386
-0.00331237
0.00417046
-0.00419895
-1.35464e-05
4.20356e-05
0.00417881
3.738e-05
-4.57306e-05
-2.6401e-05
-0.004181
8.45486e-06
0.00421968
-1.67928e-06
-3.91933e-05
0.00430386
6.10995e-05
-0.000145279
2.98946e-05
0.00441975
-0.000145783
0.00436625
-0.00433196
-4.39687e-06
-0.000206366
0.0046346
-8.48664e-06
0.0042525
-9.26085e-05
-0.00419048
-8.03865e-05
-0.00416661
-2.55451e-05
-0.00415065
2.14142e-05
-0.00422864
6.44505e-05
-0.00414789
-0.000107155
-0.000200767
0.00484357
-8.19479e-06
0.00406075
-9.02291e-06
-2.10458e-05
-0.00413337
-2.6587e-05
-0.0041692
2.6963e-07
-2.96667e-05
-0.00435836
0.000254654
-1.11556e-06
0.004852
-7.31318e-06
0.00406852
-8.88356e-06
-0.00430847
0.000109598
0.00485999
-9.39022e-07
-7.05249e-06
-1.06538e-06
0.00486724
-6.18735e-06
0.00407552
-7.94264e-06
0.00408238
-7.91969e-06
-2.49555e-05
-0.00431734
-1.60677e-05
-0.00431665
-1.67759e-05
-8.13895e-07
0.00487406
-6.00288e-06
0.00408859
-7.02885e-06
-5.35608e-07
-0.00429989
-1.69098e-05
-0.00429904
-1.81456e-05
-8.12999e-07
0.00488005
-5.18507e-06
0.00409486
-7.07965e-06
-4.462e-07
-0.00428129
-1.81515e-05
-0.00428058
-1.88992e-05
-3.01248e-07
0.00488543
-5.07495e-06
0.00410079
-6.22853e-06
-6.01841e-07
-0.00426172
-1.89744e-05
-0.00426085
-2.03346e-05
2.0452e-07
0.00488953
-4.30146e-06
0.00410734
-6.34291e-06
-5.36401e-07
-0.00424099
-2.0195e-05
-0.00424019
-2.11952e-05
1.719e-06
0.00489207
-4.25668e-06
0.00411458
-5.52749e-06
9.11008e-06
-0.00422907
-2.10282e-05
-0.00420841
-2.26728e-05
4.23813e-06
0.00489135
-3.52111e-06
0.00412451
-5.69388e-06
2.67153e-05
-0.00408791
-0.000167872
-0.00411468
-6.70164e-05
9.79797e-06
0.00488509
-3.53748e-06
0.00412015
1.41595e-05
2.60955e-05
-0.00408477
-2.92311e-05
-0.00406137
-2.72139e-05
2.03111e-05
0.00486761
-2.83626e-06
0.00409475
4.57169e-05
5.67043e-05
-0.00391724
-0.000224236
-0.00392097
-8.36935e-05
0.000207776
0.00466273
-2.89728e-06
0.00422267
7.98505e-05
6.46042e-05
-0.00387514
-0.000106709
-0.00385401
-2.35936e-06
0.000183571
0.00432222
0.000156948
0.00429548
0.000110762
0.00010273
-0.000171638
-0.00380623
-0.00381365
6.23767e-05
1.20023e-05
3.96017e-05
0.00427061
0.00427049
3.69918e-05
-0.00389251
0.00397833
-0.000192535
-0.00388908
-0.000175066
0.000174912
-0.000178942
-0.0038022
6.00795e-05
-0.00369882
-0.00391559
0.00397196
-8.55979e-05
-0.000161496
-0.00384743
0.00386748
-4.10784e-05
-4.33406e-05
-0.00388638
0.00390435
-3.6943e-05
-3.91002e-05
-0.00392126
0.00393732
-3.29702e-05
-3.50616e-05
-0.00395245
0.00423635
-2.92401e-05
-3.1201e-05
-0.00423745
0.00419164
5.4266e-05
-2.76877e-05
-0.00433823
0.00431516
-2.2653e-05
-0.000104561
-0.00418665
0.00413457
-9.32025e-05
8.93156e-05
-0.00404482
0.00405345
-1.71162e-05
-5.6036e-05
-0.00406145
0.00406896
-1.48241e-05
-1.61925e-05
-0.00407595
0.00408253
-1.27633e-05
-1.40391e-05
-0.00408864
0.00409439
-1.09346e-05
-1.21136e-05
-0.00409972
0.00410475
-9.32352e-06
-1.04132e-05
-0.00410941
0.0041138
-7.90843e-06
-8.91917e-06
-0.00411787
0.00412169
-6.66239e-06
-7.60854e-06
-0.00410092
0.00420051
5.73563e-05
1.78795e-05
0.00419288
4.72292e-05
-2.65721e-05
8.08087e-05
0.00421638
-7.1858e-06
0.00425111
0.00421356
-0.00414088
7.17075e-06
-0.00425773
0.00425157
4.31533e-05
6.65975e-05
0.00413692
-0.00411376
-9.00421e-06
4.17569e-05
0.0041094
-0.00410469
-1.024e-05
-1.00551e-05
0.00409969
-0.00409429
-1.1627e-05
-1.13422e-05
0.00408856
-0.00408238
-1.32105e-05
-1.28058e-05
0.00407582
-0.00406874
-1.50205e-05
-1.44793e-05
0.00406123
-0.00405316
-1.70968e-05
-1.63949e-05
0.00412717
-0.00411214
-1.94316e-05
-1.85967e-05
0.0041715
-0.00411613
-8.09144e-05
-2.10259e-05
0.00407841
-0.0040403
2.63415e-05
-1.63012e-05
0.00407862
-0.00409192
1.35642e-05
-6.88354e-05
0.003952
-0.00393684
-3.19326e-05
-3.03184e-05
0.00392087
-0.00390386
-3.5917e-05
-3.41149e-05
0.00388596
-0.00386695
-4.02126e-05
-3.82277e-05
0.00384698
-0.00386919
-4.48065e-05
-4.26409e-05
0.00384906
-0.00388306
-4.96925e-05
-4.73441e-05
0.00383304
-0.00375291
-1.77519e-05
-5.23821e-05
-0.00368741
-5.41896e-06
-0.00389208
-0.000175938
0.00420859
6.51e-05
-5.84302e-06
0.00425022
0.000107528
-0.000121178
-0.00368517
5.30154e-05
-0.0036329
0.000153224
-0.000172923
-0.00387238
-0.00377015
-0.00387661
0.00383674
-0.000152667
0.00389666
-0.00390331
-0.000169281
-0.000155021
-0.00380964
0.00383143
-0.000107387
-0.000134389
-0.00385211
0.00387185
-6.08198e-05
-6.40239e-05
-0.00389046
0.00390814
-5.46287e-05
-5.77058e-05
-0.00392478
0.00394057
-4.8763e-05
-5.16991e-05
-0.00395541
0.00396945
-4.32779e-05
-4.604e-05
-0.00398258
0.00407509
-3.82478e-05
-4.08151e-05
-0.00400656
0.00401753
-3.36233e-05
-3.60313e-05
-0.00413849
0.00407474
-2.94556e-05
-3.1642e-05
-0.00404636
0.00405486
-2.56172e-05
-2.76568e-05
-0.00406276
0.00407018
-2.22461e-05
-2.4088e-05
-0.00407708
0.00408357
-1.92549e-05
-2.09363e-05
-0.0040896
0.00409527
-1.66102e-05
-1.81439e-05
-0.00410054
0.0041055
-1.42836e-05
-1.56829e-05
-0.00411011
0.00411444
-1.22429e-05
-1.35231e-05
-0.00411846
0.00412225
-1.04468e-05
-1.16303e-05
-0.00412546
0.00416187
2.09491e-05
1.46696e-05
8.16034e-06
-1.95862e-05
0.0042278
-1.79959e-06
0.00421855
-0.00415224
0.00419602
2.13216e-05
5.68519e-05
0.00419586
-0.00419399
4.12753e-05
0.0041647
2.53189e-05
1.00147e-06
4.35915e-05
0.00420563
0.00423252
0.00419158
-0.0041578
-2.66061e-05
6.41873e-05
0.00411847
-0.00411439
-1.30845e-05
2.4327e-06
0.00411008
-0.00410541
-1.49021e-05
-1.43738e-05
0.00410047
-0.00409514
-1.69631e-05
-1.62836e-05
0.00408948
-0.00408337
-1.93176e-05
-1.84637e-05
0.00407689
-0.00406991
-2.20046e-05
-2.09552e-05
0.00406251
-0.00405454
-2.50635e-05
-2.37974e-05
0.00404611
-0.00403703
-2.85128e-05
-2.70261e-05
0.0040274
-0.00407591
-3.24071e-05
-3.06518e-05
0.00405748
-0.00399441
-3.67256e-05
-3.47321e-05
0.00402395
-0.00396881
-4.15809e-05
-3.92987e-05
0.00395481
-0.00393986
-4.68797e-05
-4.43162e-05
0.00392413
-0.00390736
-5.26837e-05
-4.98501e-05
0.00388973
-0.003871
-5.89497e-05
-5.58539e-05
0.00385133
-0.00383048
-6.5654e-05
-6.23072e-05
0.00380864
-0.00378557
-7.27633e-05
-6.91825e-05
0.00376151
-0.00369906
-8.02e-05
-7.64478e-05
0.00365246
-0.00357704
-2.24017e-05
-5.20195e-05
-0.00390351
-0.000172727
3.50753e-05
-0.000118646
-0.00354933
-0.00352795
-1.40149e-05
-0.00020161
-0.00360221
2.06747e-05
0.00417355
0.00417356
3.47323e-05
-0.000111991
0.000105081
-0.00386547
-0.000137829
-0.00387767
6.98865e-06
-0.000112748
-0.00344357
-4.39324e-05
-0.00347703
-0.00386668
0.00420714
-0.00419224
6.42417e-06
0.0041665
6.1313e-05
6.89507e-05
-2.88725e-05
0.00416555
4.10238e-05
0.00420149
-0.00384793
0.00391735
-0.000207253
-0.000193736
0.000143466
-0.0038274
0.00390803
1.23607e-05
0.000202446
-0.00412284
-0.000133634
-0.00393915
0.00393284
-0.000162977
-0.00019452
-0.00390551
0.00386494
-0.000112099
-0.000127689
-0.00385748
0.00383881
-8.87112e-05
-0.000126931
-0.00385902
0.00387827
-8.00697e-05
-8.42331e-05
-0.00389641
0.00391366
-7.18754e-05
-7.58478e-05
-0.00392988
0.00394528
-6.41653e-05
-6.79246e-05
-0.00395975
0.00397345
-5.69827e-05
-6.05051e-05
-0.00398628
0.00399841
-5.03739e-05
-5.3642e-05
-0.00400973
0.00402045
-4.43359e-05
-4.73586e-05
-0.00403043
0.00403985
-3.88708e-05
-4.16295e-05
-0.00404865
0.00405695
-3.39221e-05
-3.64574e-05
-0.00406468
0.00407196
-2.95208e-05
-3.1815e-05
-0.00407872
0.00408508
-2.5621e-05
-2.76982e-05
-0.004091
0.00409657
-2.21788e-05
-2.40586e-05
-0.00410174
0.00410661
-1.91529e-05
-2.08543e-05
-0.00411113
0.00411539
-1.65009e-05
-1.80438e-05
-0.00411934
0.00412307
-1.41731e-05
-1.55832e-05
-0.0041379
0.00414795
1.08922e-05
-1.59733e-07
1.2564e-05
2.59419e-05
-1.07401e-05
0.0042126
-4.05893e-05
6.20634e-06
0.00420793
0.0042039
0.00419291
0.00418472
-0.00417748
3.40384e-05
-0.00418131
0.0041609
5.51369e-05
2.87291e-05
0.00412657
-0.00413817
-1.50025e-05
1.32713e-05
0.00411933
-0.00411532
-1.70993e-05
-1.64049e-05
0.00411107
-0.00410649
-1.94853e-05
-1.86193e-05
0.00410163
-0.00409639
-2.22055e-05
-2.11395e-05
0.00409083
-0.00408484
-2.53126e-05
-2.40197e-05
0.00407849
-0.00407164
-2.88538e-05
-2.73087e-05
0.00406438
-0.00405657
-3.2875e-05
-3.10531e-05
0.0040483
-0.0040394
-3.74129e-05
-3.52954e-05
0.00402998
-0.00401987
-4.25184e-05
-4.00738e-05
0.00400917
-0.00399768
-4.82098e-05
-4.54318e-05
0.00398557
-0.00397262
-5.45371e-05
-5.14084e-05
0.00395894
-0.00394433
-6.14836e-05
-5.79962e-05
0.00392896
-0.00391258
-6.90612e-05
-6.52235e-05
0.00389537
-0.00387708
-7.72406e-05
-7.30654e-05
0.00385789
-0.00383756
-8.59853e-05
-8.14928e-05
0.00381628
-0.00379381
-9.5242e-05
-9.04618e-05
0.00377034
-0.00374562
-0.000104926
-9.99099e-05
0.00368789
-0.00359526
-0.000115028
-0.00010975
0.00353105
-0.00351308
-6.18998e-05
-7.82269e-05
-3.40046e-05
7.47819e-06
-0.0034505
-0.00346882
-7.82649e-05
0.000136769
-0.00385877
-8.2749e-05
-0.00363221
3.28729e-05
0.00413983
0.00417753
2.43979e-05
0.000190139
-0.00400518
4.32865e-05
-0.00347937
0.000873017
-0.00318644
0.00414034
4.30886e-05
-9.26366e-05
-0.00341927
-1.89037e-05
-0.00338851
-0.00253077
0.00388163
0.000452567
-0.00192469
-0.000297606
-0.00381266
-0.0037123
0.0038965
1.8246e-05
0.000186835
-1.75063e-05
-0.00388293
0.00387182
-0.000196141
-0.000120066
-0.00386425
0.00383352
-0.000132245
-0.000186958
-0.00383191
0.00384037
-0.000120555
-0.000126075
-0.00382806
0.00384864
-0.000109293
-0.000114627
-0.00386811
0.00388667
-9.86251e-05
-0.000103701
-0.00390417
0.00392083
-8.85319e-05
-9.33549e-05
-0.00393651
0.0039514
-7.90577e-05
-8.3605e-05
-0.00396539
0.00397866
-7.02453e-05
-7.44955e-05
-0.00399108
0.00400284
-6.21327e-05
-6.60689e-05
-0.00401383
0.00402423
-5.47281e-05
-5.83503e-05
-0.00403393
0.00404308
-4.80233e-05
-5.1332e-05
-0.00405162
0.00405969
-4.19852e-05
-4.50004e-05
-0.0040672
0.00407427
-3.65981e-05
-3.93248e-05
-0.00408086
0.00408706
-3.18223e-05
-3.42813e-05
-0.00409282
0.00409825
-2.7608e-05
-2.98227e-05
-0.0041033
0.00410805
-2.39042e-05
-2.58983e-05
-0.00411246
0.00411662
-2.0659e-05
-2.24567e-05
-0.00412048
0.00412412
-1.78167e-05
-1.94454e-05
-0.00414077
0.00416698
-1.53231e-05
-1.68037e-05
-0.00415978
0.00415985
6.3512e-06
1.97674e-05
-0.00417867
0.00417607
3.54739e-05
4.24956e-05
5.26971e-05
-2.90664e-05
0.0041843
-2.81845e-05
-1.91759e-06
0.00420617
0.00416435
3.95788e-05
1.5875e-05
0.00415715
0.00421441
-2.55452e-05
1.44472e-05
0.00417665
0.00418324
-1.69871e-05
-6.14314e-06
0.00420066
0.00419895
0.00420003
-0.00418285
3.79529e-05
-0.00426707
0.00415567
0.000105258
-4.26406e-05
0.00416996
-0.00415845
2.25234e-05
1.58446e-05
0.00412753
-0.00412409
-1.84427e-05
-1.76441e-05
0.00412046
-0.00411653
-2.10224e-05
-2.00421e-05
0.00411238
-0.00410791
-2.39636e-05
-2.27687e-05
0.00410316
-0.00409804
-2.73239e-05
-2.58824e-05
0.00409262
-0.00408677
-3.11603e-05
-2.94419e-05
0.00408058
-0.00407391
-3.55287e-05
-3.35032e-05
0.00406684
-0.00405923
-4.0483e-05
-3.81213e-05
0.00405118
-0.00404251
-4.60735e-05
-4.33487e-05
0.00403335
-0.00402352
-5.23521e-05
-4.9236e-05
0.00401312
-0.00400198
-5.93552e-05
-5.58289e-05
0.00399022
-0.00397764
-6.71152e-05
-6.31658e-05
0.00396438
-0.00395023
-7.56372e-05
-7.12579e-05
0.00393533
-0.00391948
-8.49187e-05
-8.01164e-05
0.00390282
-0.00388513
-9.49296e-05
-8.97208e-05
0.00386659
-0.00384695
-0.000105621
-0.000100034
0.00382642
-0.00380474
-0.000116923
-0.000110996
0.00378212
-0.00375831
-0.00012874
-0.000122527
0.00373353
-0.00370757
-0.00014099
-0.000134527
0.00363889
-0.0035472
-0.000153596
-0.000146902
0.00352584
-0.00348594
-0.000132535
-9.96258e-05
-9.0021e-05
6.43179e-05
-0.00339357
-0.00343371
-0.000142246
0.000131718
-0.00380035
-1.79157e-05
-0.00357101
0.000334758
-0.00346692
4.56441e-05
-0.00354392
0.0041787
-0.0041825
3.92794e-05
0.00416596
1.08177e-05
4.31031e-05
-2.85076e-05
0.00418607
2.65292e-06
0.00419612
0.000355429
-0.00303001
8.24829e-05
-0.00340668
-0.001697
-0.00203945
-0.00300712
0.0034945
-3.48182e-05
-7.14229e-05
6.25566e-05
-0.0033847
-0.000120719
-0.00338442
-0.00276004
-0.000544685
-0.00369886
-0.00367574
0.00374953
-5.55431e-05
5.59936e-06
-0.00380554
0.00377884
-0.000169437
-0.000176082
-0.00375388
0.00377712
-0.000155478
-0.000162001
-0.00379935
0.00382074
-0.000141942
-0.000148307
-0.00384112
0.00386067
-0.000128842
-0.000135014
-0.00387921
0.00389691
-0.000116325
-0.000122235
-0.00391363
0.00392956
-0.000104464
-0.00011008
-0.00394458
0.00395885
-9.33295e-05
-9.86191e-05
-0.00397227
0.003985
-8.29747e-05
-8.79127e-05
-0.00399693
0.00400824
-7.34384e-05
-7.80076e-05
-0.00401882
0.00402883
-6.4734e-05
-6.89305e-05
-0.00403818
0.004047
-5.68522e-05
-6.06808e-05
-0.00405524
0.00406302
-4.9764e-05
-5.32402e-05
-0.00407027
0.00407711
-4.34359e-05
-4.65749e-05
-0.00408348
0.00408948
-3.78222e-05
-4.06465e-05
-0.00409506
0.00410032
-3.28673e-05
-3.54032e-05
-0.0041052
0.00410981
-2.85116e-05
-3.0787e-05
-0.00411409
0.00411813
-2.46954e-05
-2.67381e-05
-0.00412188
0.00412542
-2.13571e-05
-2.31962e-05
-0.00412871
0.00413182
-1.84331e-05
-2.00979e-05
-0.00416898
0.0041572
1.81232e-05
-1.73838e-05
1.71977e-05
3.95614e-05
-6.82912e-05
0.00421303
-1.14759e-05
2.2752e-05
0.0041949
0.00419243
-1.12042e-06
-1.10999e-06
0.00415938
0.004145
-3.72528e-05
5.48509e-05
0.00415905
0.00414487
0.00422529
0.00420328
-0.00418855
2.32154e-05
-0.00415339
0.0041972
6.14509e-05
7.25019e-06
0.00417347
-0.00413183
-1.91165e-05
7.6805e-07
0.00412872
-0.00412538
-2.17882e-05
-2.07519e-05
0.00412184
-0.00411803
-2.48331e-05
-2.35762e-05
0.004114
-0.00410965
-2.83126e-05
-2.67996e-05
0.00410505
-0.00410008
-3.22896e-05
-3.04862e-05
0.00409482
-0.00408916
-3.68278e-05
-3.46997e-05
0.00408316
-0.00407669
-4.19908e-05
-3.95034e-05
0.00406986
-0.0040625
-4.78415e-05
-4.4961e-05
0.00405471
-0.00404635
-5.44397e-05
-5.1134e-05
0.0040375
-0.00402801
-6.18417e-05
-5.8081e-05
0.00401799
-0.00400725
-7.00914e-05
-6.58528e-05
0.00399593
-0.00398382
-7.92198e-05
-7.44893e-05
0.00397107
-0.00395747
-8.92369e-05
-8.40091e-05
0.00394317
-0.00392796
-0.000100134
-9.44167e-05
0.00391199
-0.00389504
-0.000111875
-0.000105689
0.0038773
-0.00385852
-0.000124398
-0.000117779
0.0038389
-0.00381821
-0.000137615
-0.000130612
0.00379665
-0.00377398
-0.000151411
-0.000144088
0.00375042
-0.00372576
-0.000165654
-0.000158083
0.00370022
-0.00367363
-0.000180185
-0.000172443
0.00358626
-0.00352406
-0.000194728
-0.000186999
0.0034648
-0.00341197
-0.000173549
-0.000201512
-9.21502e-05
9.24684e-05
-0.00338474
-0.0033678
-0.000136316
0.000101983
-0.00356758
1.14571e-05
-0.00353682
3.99123e-05
0.0041488
0.00418355
1.63064e-05
0.000212817
-0.00332431
-0.00033367
-0.00400225
1.68548e-05
-0.00338053
4.79422e-05
-0.00350938
8.57403e-05
-0.00342986
-0.00393726
-0.00086223
0.000295885
-0.000586441
-0.0036467
-0.000173801
-0.00353257
6.66218e-05
-0.00335886
-0.000132518
5.02601e-05
-0.00330248
-0.000124125
-0.0033762
-0.00358542
-0.00331763
0.00349345
-0.000210634
0.00346434
-0.00377518
-0.000551385
-0.000397979
-0.00362774
0.00370485
-0.000132654
-0.000128692
-0.00372865
0.00375187
-0.000192664
-0.000199878
-0.00377432
0.00379607
-0.000177229
-0.000184446
-0.00381692
0.00383701
-0.000162036
-0.000169153
-0.00385618
0.00387459
-0.00014725
-0.000154184
-0.00389207
0.00390879
-0.000133049
-0.000139718
-0.00392462
0.00393972
-0.000119561
-0.000125908
-0.00395396
0.00396752
-0.000106884
-0.000112863
-0.00398027
0.00399239
-9.50882e-05
-0.000100668
-0.00400376
0.00401454
-8.42181e-05
-8.938e-05
-0.00402464
0.0040342
-7.42917e-05
-7.9029e-05
-0.00404313
0.00405158
-6.53009e-05
-6.96186e-05
-0.00405947
0.00406692
-5.72164e-05
-6.11298e-05
-0.00407387
0.00408043
-4.99963e-05
-5.35254e-05
-0.00408655
0.00409231
-4.35875e-05
-4.67581e-05
-0.00409768
0.00410274
-3.79279e-05
-4.07693e-05
-0.00410745
0.00411189
-3.2951e-05
-3.54944e-05
-0.00411601
0.00411991
-2.85888e-05
-3.08658e-05
-0.00412353
0.00412694
-2.47739e-05
-2.68159e-05
-0.00413012
0.00413313
-2.1439e-05
-2.32772e-05
-0.00413593
0.00417257
-1.85179e-05
-2.01823e-05
-0.00417792
0.00418975
2.7447e-05
1.18474e-05
-0.00413585
0.00415531
2.0454e-05
6.47133e-05
6.18065e-05
-4.53298e-05
0.00417842
-4.9217e-06
-2.0519e-05
0.00418075
0.00420569
4.74656e-05
3.03722e-06
0.00416253
0.00419457
-9.67725e-07
-1.12035e-06
0.00416146
0.00414707
3.19843e-06
-5.26968e-06
0.00416112
0.00414695
-2.37332e-05
1.57066e-05
0.00419409
0.00419629
-6.89939e-06
1.05943e-05
0.00417985
0.00420493
0.00421215
-0.00416261
1.19166e-05
-0.00419447
0.0041718
3.32593e-05
3.39842e-05
0.00416901
-0.00415766
1.18649e-05
1.36437e-05
0.00413597
-0.00413313
-2.19592e-05
-2.09179e-05
0.00413013
-0.0041269
-2.50191e-05
-2.37526e-05
0.00412348
-0.0041198
-2.8513e-05
-2.6989e-05
0.00411591
-0.00411171
-3.25092e-05
-3.06911e-05
0.00410727
-0.00410249
-3.70759e-05
-3.49264e-05
0.00409742
-0.00409197
-4.22837e-05
-3.97644e-05
0.0040862
-0.00407998
-4.82037e-05
-4.52761e-05
0.00407341
-0.00406635
-5.49067e-05
-5.15327e-05
0.00405888
-0.00405085
-6.24603e-05
-5.86036e-05
0.00404238
-0.0040333
-7.09254e-05
-6.6554e-05
0.00402371
-0.00401345
-8.03506e-05
-7.54395e-05
0.00400264
-0.00399109
-9.07679e-05
-8.53021e-05
0.00397894
-0.00396599
-0.000102188
-9.6163e-05
0.00395238
-0.00393792
-0.000114596
-0.000108023
0.00392276
-0.00390668
-0.000127949
-0.000120852
0.00388987
-0.00387209
-0.000142171
-0.000134595
0.00385355
-0.003834
-0.000157155
-0.000149159
0.00381367
-0.00379232
-0.000172763
-0.000164424
0.00377016
-0.00374699
-0.000188823
-0.000180236
0.00372303
-0.00369809
-0.000205133
-0.000196406
0.00367238
-0.00364569
-0.000221414
-0.000212705
0.00361832
-0.0035544
-0.000237472
-0.00022888
0.00349193
-0.00340723
-0.000208827
-0.000198788
-0.000178766
0.000118689
-0.00331612
-0.00337933
-0.000206663
7.34717e-05
-0.00342823
-0.00378751
-0.000574118
7.27364e-05
-0.00338019
0.00420958
-0.00421834
2.9217e-05
0.0042076
-1.85382e-05
3.34768e-05
-2.88607e-05
0.00417524
4.30067e-05
0.00416227
1.26961e-05
-0.00350157
5.01459e-05
-0.00347379
-1.82286e-05
-0.0035361
8.8708e-05
-0.00345195
0.000128359
-0.00343695
0.000168776
-0.00335256
-0.000168713
0.00016721
-0.00331462
-0.000233953
-0.00331409
-0.00349925
-0.003739
0.00359545
-0.00040783
-0.000506687
0.00059589
-0.00387671
0.00386353
-0.00398361
-0.00038661
-0.000449585
-0.00348777
0.00357206
-0.000294924
-0.000290301
-0.00366719
0.00373172
-0.000197186
-0.000223823
-0.00375404
0.00377574
-0.000214364
-0.000222196
-0.00379665
0.00381691
-0.000197486
-0.000205359
-0.00383633
0.00385506
-0.000180767
-0.000188573
-0.00387295
0.00389013
-0.000164439
-0.000172068
-0.00390648
0.00392214
-0.000148708
-0.000156065
-0.00393698
0.00395115
-0.000133733
-0.000140746
-0.00396454
0.00397729
-0.00011964
-0.000126252
-0.00398931
0.00400074
-0.000106514
-0.000112686
-0.00401148
0.00402167
-9.4408e-05
-0.000100118
-0.00403122
0.00404028
-8.33457e-05
-8.85853e-05
-0.00404875
0.00405677
-7.33204e-05
-7.80939e-05
-0.00406427
0.00407135
-6.43023e-05
-6.86253e-05
-0.00407797
0.00408422
-5.62446e-05
-6.01398e-05
-0.00409004
0.00409554
-4.9088e-05
-5.2584e-05
-0.00410067
0.0041055
-4.27641e-05
-4.58933e-05
-0.00411
0.00411425
-3.71998e-05
-3.99965e-05
-0.00411821
0.00412194
-3.23203e-05
-3.48191e-05
-0.00412541
0.00412869
-2.80519e-05
-3.02871e-05
-0.00413174
0.00413462
-2.43225e-05
-2.63275e-05
-0.00413731
0.00413985
-2.10606e-05
-2.28692e-05
-0.00417154
0.00418867
1.03206e-05
-1.98424e-05
3.50376e-05
1.2586e-05
-4.02375e-05
0.00420607
-2.29806e-05
-8.18148e-06
0.00421192
0.00419529
-4.68835e-06
2.76472e-06
0.00416445
0.00414964
-8.25748e-07
-1.13089e-06
0.00416342
0.00414901
3.07937e-06
-5.02253e-06
0.00416307
0.0041489
-4.19523e-05
2.78479e-05
0.0042082
0.00414931
0.00420391
0.00420714
-0.00420778
1.25602e-05
-0.00419983
0.00418303
5.00631e-05
4.1293e-05
0.00417345
-0.00413989
-2.16926e-05
-2.06865e-05
0.00413736
-0.00413462
-2.46915e-05
-2.34563e-05
0.00413174
-0.00412864
-2.81212e-05
-2.66323e-05
0.00412537
-0.00412183
-3.20445e-05
-3.02653e-05
0.0041181
-0.00411408
-3.65321e-05
-3.44238e-05
0.00410983
-0.00410524
-4.16579e-05
-3.918e-05
0.0041004
-0.00409518
-4.74989e-05
-4.46095e-05
0.00408967
-0.00408374
-5.41333e-05
-5.07899e-05
0.00407747
-0.00407074
-6.16387e-05
-5.77996e-05
0.00406363
-0.004056
-7.00885e-05
-6.57145e-05
0.00404795
-0.00403933
-7.95484e-05
-7.46051e-05
0.00403024
-0.00402052
-9.007e-05
-8.4531e-05
0.00401028
-0.00399936
-0.000101686
-9.55358e-05
0.00398789
-0.00397567
-0.000114406
-0.000107641
0.00396285
-0.00394924
-0.000128208
-0.000120844
0.00393498
-0.00391989
-0.000143042
-0.000135108
0.00390412
-0.00388747
-0.000158817
-0.000150365
0.00387012
-0.00385187
-0.000175408
-0.000166508
0.0038329
-0.00381301
-0.000192652
-0.000183394
0.0037924
-0.00377087
-0.000210349
-0.000200844
0.00374864
-0.00372551
-0.000228263
-0.000218639
0.00370169
-0.00367699
-0.000246115
-0.000236524
0.00365165
-0.00362547
-0.000263649
-0.000254225
0.00355282
-0.00348111
-0.000280541
-0.000271437
0.00343679
-0.00341678
-0.00025396
-0.000250984
-0.000363204
0.000143592
-0.00331295
-0.00341402
-0.000203257
0.000204414
-0.00331525
-0.00334064
-0.00027939
2.23078e-05
-0.0033778
3.63338e-05
0.00416308
0.00421973
6.30427e-06
0.00031826
-0.00392234
-0.000379528
1.40321e-05
-0.00346546
0.000394129
-0.00395258
2.2156e-05
-0.00342058
5.20852e-05
-0.00343716
5.04749e-05
-0.00344299
9.15788e-05
-0.00341517
0.000132283
-0.00340046
0.000173669
-0.00335902
0.000180177
-0.00329038
-0.000237403
0.000206673
-0.00328452
-0.000261021
-0.00331703
-0.00346291
-0.00397444
0.0038438
-0.00025597
-0.000475357
-0.00383199
0.000385005
0.0040514
-0.00392197
-0.000604786
-0.00030257
-0.00376218
0.00370561
-0.000351264
-0.000367963
-0.00369317
0.00366823
-0.000269985
-0.000277856
-0.00370508
0.00376053
-0.000252632
-0.000260678
-0.00378125
0.00380136
-0.00023447
-0.000242918
-0.00382069
0.00383941
-0.0002162
-0.000224695
-0.00385734
0.00387465
-0.000198074
-0.00020651
-0.00389119
0.00390709
-0.000180344
-0.000188602
-0.00392223
0.00393675
-0.000163228
-0.000171206
-0.00395053
0.0039637
-0.000146909
-0.000154523
-0.00397617
0.00398806
-0.000131529
-0.000138715
-0.00399927
0.00400995
-0.00011719
-0.000123902
-0.00402
0.00402954
-0.000103953
-0.000110165
-0.0040385
0.00404701