/*--------------------------------*- C++ -*----------------------------------*\
  =========                 |
  \\      /  F ield         | OpenFOAM: The Open Source CFD Toolbox
   \\    /   O peration     | Website:  https://openfoam.org
    \\  /    A nd           | Version:  10
     \\/     M anipulation  |
\*---------------------------------------------------------------------------*/
FoamFile
{
    format      ascii;
    class       volVectorField;
    location    "58";
    object      U;
}
// * * * * * * * * * * * * * * * * * * * * * * * * * * * * * * * * * * * * * //

dimensions      [0 1 -1 0 0 0 0];

internalField   nonuniform List<vector> 
28942
(
(0.00444353 -0.00226484 -3.43305e-22)
(0.00601358 -0.00235023 -6.38063e-23)
(0.0179497 -0.0123953 -8.21504e-22)
(0.103305 0.0182372 -5.25386e-21)
(0.102343 0.0222794 1.72024e-21)
(0.015665 0.000496561 0)
(0.0186268 6.972e-05 1.24271e-23)
(0.0215735 0.000641011 -1.10443e-23)
(0.135256 -0.0183222 -2.54144e-22)
(0.133906 -0.0166862 7.23504e-22)
(0.00982727 0.00402181 -6.77237e-22)
(0.0161175 0.00564419 2.56949e-22)
(0.00715931 0.00316013 0)
(0.00472227 0.00207239 0)
(0.0484653 0.00211226 -1.68357e-23)
(0.0465499 0.00273976 -6.51375e-24)
(0.0893184 0.0158738 6.66898e-22)
(0.0870064 0.0138426 1.07332e-21)
(0.0121702 -0.0151196 2.90789e-21)
(0.0293443 -0.0304817 -7.65274e-22)
(0.0981258 0.0373735 9.50802e-22)
(0.0973032 0.0344106 0)
(0.0187781 0.00464252 1.17003e-21)
(0.00788144 0.00237084 5.51945e-22)
(0.0378563 0.007233 9.47341e-22)
(0.057608 0.00293201 -8.6363e-22)
(0.00764948 -0.0185027 8.49845e-21)
(0.00669475 -0.0165662 -3.13034e-21)
(0.0355296 -0.0253347 5.69444e-22)
(0.0193107 -0.0136886 1.96515e-22)
(0.0160627 -0.00148442 0)
(0.0200837 -0.00130709 -1.52011e-23)
(0.0254648 0.0045423 3.11611e-22)
(0.0365747 0.00199353 -5.06097e-23)
(0.0188279 0.01801 1.31185e-21)
(0.0157213 0.019119 -1.30194e-21)
(0.032173 0.0376139 -3.04875e-21)
(0.0186711 0.0305309 -1.06753e-21)
(0.00861608 1.76597e-05 -1.04218e-23)
(0.00864947 0.0161956 -2.6118e-21)
(0.0306486 -0.00620325 0)
(0.0513417 -0.0109696 0)
(0.112397 -0.012678 -2.73681e-23)
(0.111921 -0.0127171 8.09225e-23)
(0.116302 -0.0125839 7.03277e-23)
(0.0303629 0.000234591 1.29474e-23)
(0.0282772 -0.000597325 -2.09271e-23)
(0.0402816 -0.000509102 -9.41797e-23)
(0.0386141 -0.000577038 2.67797e-23)
(0.0314418 -0.00286374 -2.29824e-22)
(0.0234637 -0.00346521 1.48779e-22)
(0.128586 0.00146906 -3.9957e-22)
(0.127908 0.000989635 -3.7313e-22)
(0.134578 -0.0211003 -3.78252e-24)
(0.133025 -0.0193728 1.38156e-22)
(0.0826415 0.00641189 7.19472e-22)
(0.101901 -0.000700656 2.51694e-22)
(0.0030678 0.00162477 -5.67525e-22)
(0.00896796 0.00368875 0)
(0.00827909 0.00329766 2.3815e-22)
(0.00289132 0.00149213 4.89756e-22)
(0.000363721 0.00022705 -4.07147e-22)
(0.000193697 0.000122994 -3.91357e-22)
(0.109856 -0.0426121 0)
(0.105003 -0.0256051 1.27861e-22)
(0.121874 -0.0330938 -4.41497e-23)
(0.123503 -0.043755 0)
(0.0901222 -0.0328072 -6.37588e-22)
(0.0936276 -0.0352718 -4.19003e-22)
(0.00189209 -0.00113373 1.13508e-21)
(0.0024979 -0.00202361 -3.5766e-22)
(0.00488805 -0.0031658 8.87407e-22)
(0.0848999 -0.0457693 0)
(0.0912232 -0.0396281 2.16389e-21)
(0.0805722 -0.0530389 5.84506e-22)
(0.114239 0.0123532 2.39895e-22)
(0.112851 0.00683917 -2.66002e-22)
(0.125211 0.0109294 -1.14666e-22)
(0.0046873 -0.00286419 -5.32662e-23)
(0.00634385 -0.00442946 4.44197e-22)
(0.0510496 -0.0311659 1.24614e-22)
(0.0331836 -0.0205526 -2.56784e-22)
(0.00211702 -0.00059952 3.21254e-21)
(0.00516799 -0.00207888 -1.25176e-21)
(0.101033 0.0482442 1.26732e-23)
(0.0970692 0.0552112 -7.62298e-22)
(0.0807501 0.054013 6.95345e-22)
(0.0472215 0.0345166 -2.6736e-21)
(0.0444504 0.0316141 1.89338e-21)
(0.0295025 0.0206011 -1.13106e-22)
(0.0327232 0.0232537 -6.39813e-22)
(0.0379652 0.0283631 8.67212e-22)
(0.00442273 0.00271399 -5.94931e-23)
(0.00779146 0.0039729 -1.71533e-23)
(0.00319714 0.00201668 3.43734e-23)
(0.00192441 0.0016358 -4.59627e-22)
(0.0014491 0.00155569 5.63717e-22)
(0.0157468 0.0115463 -3.24671e-21)
(0.0174995 0.0136379 7.43505e-22)
(0.00881964 -0.00385537 0)
(0.101389 0.00515976 0)
(0.0984002 0.0156839 -3.955e-21)
(0.0604396 0.0104757 1.93842e-21)
(0.088679 0.0178816 0)
(0.135554 -0.00129858 0)
(0.134995 -0.00202055 0)
(0.133322 -0.00250703 -2.4716e-22)
(0.114978 0.0265651 -2.11515e-22)
(0.114071 0.0279702 2.09136e-21)
(0.113272 0.0254313 1.12226e-21)
(0.00230102 0.0013019 1.05868e-21)
(0.00151572 0.000777782 -1.18826e-21)
(0.0190937 -0.00555664 -5.52427e-22)
(0.0201829 -0.00509027 4.71937e-22)
(0.00912877 -0.00294316 9.32685e-22)
(0.00647688 0.0111413 1.47727e-21)
(0.0189695 0.0181481 3.45287e-21)
(0.0134662 0.0227917 2.72192e-22)
(0.00492107 0.0143005 -8.61303e-21)
(0.117041 0.0477322 5.52019e-23)
(0.107896 0.0582224 1.06465e-21)
(0.118362 0.054853 -1.83609e-21)
(0.0391089 -0.0294296 7.28529e-22)
(0.02402 -0.0172721 -4.65201e-22)
(0.0053225 -0.000750411 -4.09818e-21)
(0.00453942 -0.00360053 0)
(0.012498 -0.00168441 2.00028e-21)
(0.0219736 -0.016137 7.75884e-22)
(0.0342697 -0.0277953 -1.94809e-21)
(0.0381239 -1.52156e-05 6.58374e-23)
(0.0405101 0.000148341 -4.73311e-23)
(0.0358226 0.000176544 -2.0339e-24)
(0.0280658 -0.0419662 0)
(0.0296146 -0.0428584 0)
(0.0896207 -0.0186539 -4.62315e-22)
(0.0995884 -0.022092 3.14137e-21)
(0.0870335 -0.0252789 0)
(0.0471368 -0.0402033 0)
(0.0582004 -0.0514021 -7.80291e-22)
(0.0413177 0.0393364 2.08201e-21)
(-4.79401e-06 0.00021122 5.17452e-22)
(-0.000196935 0.00012886 -3.41225e-22)
(0.0223358 -0.0192484 -7.88482e-22)
(0.120538 -0.0124196 3.96712e-22)
(0.119928 -0.0123999 -7.6718e-23)
(0.115601 -0.00564164 -6.76089e-23)
(0.108545 0.00106363 9.00984e-23)
(0.117808 -0.000213269 1.8563e-22)
(8.10429e-05 0.000258364 1.99598e-22)
(0.0437552 0.0344221 3.19709e-21)
(0.0618913 0.0463103 -7.86169e-22)
(0.0593312 0.0393717 -3.00687e-24)
(0.0249672 -0.000912312 6.26869e-24)
(0.0246016 -0.000908814 3.32721e-23)
(0.0266793 -0.000703209 1.44277e-24)
(0.0297719 -0.000676008 -1.63538e-23)
(0.0454279 0.0380908 1.33816e-22)
(0.0189649 0.0160602 0)
(0.000144529 -3.99443e-05 3.71361e-22)
(0.000428944 -0.000264578 -4.11996e-22)
(0.00187156 -0.00102926 2.87616e-22)
(0.036605 -0.00774359 -1.84922e-21)
(0.064939 -0.00212642 -7.54829e-22)
(0.0345608 -0.000271546 -2.28575e-24)
(0.0745547 -0.00763641 2.72316e-22)
(0.0707561 -0.015732 6.50162e-23)
(0.0943129 0.0398973 2.13961e-21)
(0.0914151 0.0454335 9.92751e-23)
(0.0887537 0.029069 1.21369e-21)
(0.0914792 0.0307849 -8.79545e-22)
(0.0987059 0.0410562 0)
(0.126066 -0.000447521 1.48887e-22)
(0.126831 -0.000887008 2.81209e-22)
(0.128088 -0.0122341 -2.93869e-22)
(0.129551 -0.0120323 5.02932e-22)
(0.117057 0.0241025 2.59333e-22)
(0.119116 0.024999 -7.34337e-22)
(0.117105 0.0261163 0)
(0.115138 0.0248575 1.52908e-22)
(0.116678 0.0280406 0)
(0.117185 0.0360639 -5.49859e-22)
(0.115724 0.0381183 -3.00247e-22)
(0.111351 0.0419367 -5.39418e-22)
(0.113745 0.0400662 0)
(0.116437 0.0430399 1.78381e-21)
(0.113714 0.0449659 4.73883e-23)
(0.108345 0.0441502 -3.03076e-22)
(0.0996439 0.0502596 -1.28446e-21)
(0.098431 0.0454716 -2.26324e-22)
(0.0250515 -0.00854 6.05204e-23)
(0.0329349 -0.00940583 -2.41538e-23)
(0.00630765 -0.00250298 -6.96862e-22)
(0.0339338 -7.44986e-05 -4.25736e-23)
(0.0433484 -0.000291205 0)
(-1.51434e-06 -4.20759e-05 4.36262e-22)
(1.43736e-05 -4.83834e-05 2.22224e-22)
(0.0392591 -0.00193939 1.95953e-23)
(0.0462828 -0.00188577 7.88429e-24)
(0.0457973 -0.00128937 0)
(0.0379895 -0.000871725 8.63584e-24)
(0.0910726 0.00418082 -1.1776e-22)
(0.0904326 0.00376062 5.57083e-22)
(0.0913468 0.00390822 2.57896e-22)
(0.000671661 0.000270652 3.95861e-22)
(-0.000160159 -0.000129968 -5.73229e-22)
(-0.00020208 -0.000169881 4.88987e-22)
(0.00150502 0.000619778 0)
(8.07641e-05 8.84194e-05 1.14496e-21)
(0.000173016 -3.8625e-05 -8.26223e-22)
(0.00746359 0.0036811 -9.96631e-22)
(0.00145597 0.000783631 -1.18892e-21)
(0.00172488 0.000862845 0)
(0.00157204 0.00753993 0)
(0.000576978 0.0032796 0)
(0.000313302 0.00197569 0)
(0.136711 -0.00132364 5.5494e-23)
(0.137705 -0.0011677 0)
(0.136089 -0.00211645 -6.47295e-23)
(0.0881171 -0.0148599 4.41863e-21)
(0.0901237 -0.015268 -1.60395e-21)
(0.0890385 -0.0128844 0)
(0.106423 0.000230871 -6.93575e-24)
(0.107079 0.00022609 1.38818e-23)
(0.105752 0.000236758 -4.70022e-24)
(0.107715 0.000223997 0)
(0.108334 0.000229335 -8.82415e-24)
(0.108931 0.000228631 0)
(0.108926 -0.000399579 0)
(0.109506 0.000215998 3.26343e-23)
(0.109492 -0.000400202 0)
(0.108336 -0.000411003 -8.88724e-24)
(0.107717 -0.000427618 0)
(0.10708 -0.000443983 4.64319e-24)
(0.106421 -0.000464026 -6.93643e-24)
(0.105753 -0.000481511 4.69434e-24)
(0.110055 0.000201502 -3.12283e-23)
(0.11004 -0.000394028 -1.09072e-24)
(0.105058 0.000247118 5.06284e-28)
(0.105055 -0.000492168 -7.18373e-24)
(0.104339 0.000256273 3.82426e-23)
(0.110579 0.000194017 2.91118e-26)
(0.110578 -0.0003788 -1.08767e-24)
(0.10434 -0.000510581 1.41667e-23)
(0.111089 0.000185674 2.92427e-23)
(0.11158 0.000179453 -2.92186e-23)
(0.111091 -0.000364416 2.19415e-24)
(0.111583 -0.000348667 4.32091e-24)
(0.103627 0.000279501 -3.72082e-23)
(0.103622 -0.000527411 -9.32694e-24)
(0.112051 0.000171716 0)
(0.112055 -0.000334133 -4.26184e-24)
(0.102881 0.000290642 4.60558e-27)
(0.102878 -0.000536532 -4.61713e-27)
(0.112503 0.000165651 0)
(0.112506 -0.000318631 0)
(0.102118 0.000297654 0)
(0.102115 -0.00054887 0)
(0.112934 0.00015794 0)
(0.112938 -0.000304517 2.03569e-24)
(0.101338 0.000305037 -1.9332e-23)
(0.101336 -0.0005588 -4.71754e-27)
(0.113347 0.000151705 1.06604e-25)
(0.113351 -0.000289596 -2.17399e-24)
(0.100543 0.000310425 1.94244e-23)
(0.100541 -0.000569647 0)
(0.11374 0.000143838 0)
(0.113744 -0.000275964 0)
(0.0997329 0.000316813 -1.2289e-24)
(0.099731 -0.000576722 2.10875e-23)
(0.114115 0.000137507 1.31173e-23)
(0.114119 -0.000261247 0)
(0.0989111 0.000320862 -1.06285e-25)
(0.0989078 -0.000582945 -1.99587e-23)
(0.114472 0.000129666 -1.96082e-23)
(0.114476 -0.000247852 -5.68531e-24)
(0.0980601 0.000316239 2.03445e-23)
(0.0980605 -0.000587931 0)
(0.114811 0.000123608 6.45042e-24)
(0.114817 -0.000231684 3.79049e-24)
(0.0972003 0.000320458 -1.02896e-23)
(0.0972009 -0.000595368 2.0863e-23)
(0.115132 0.000118979 -2.5693e-23)
(0.115144 -0.000211494 2.89583e-23)
(0.0962992 0.000306147 1.06011e-23)
(0.0963099 -0.000607536 3.35383e-25)
(0.11544 0.000115452 0)
(0.115452 -0.000193359 1.37775e-23)
(0.0953847 0.000293618 -2.13089e-23)
(0.0954025 -0.000627313 4.26231e-23)
(0.115743 0.00010705 0)
(0.115746 -0.00018027 0)
(0.0964911 0.0012144 -1.04897e-23)
(0.0955755 0.00121372 -4.2404e-23)
(0.0944389 0.000274042 0)
(0.0944747 -0.000659761 -2.16936e-23)
(0.0982492 0.00120325 -6.59356e-24)
(0.0973761 0.00121066 1.29473e-24)
(0.0999103 0.00116874 0)
(0.0990807 0.00118656 -2.1305e-23)
(0.101505 0.00112562 -4.11429e-26)
(0.100716 0.00114797 0)
(0.103035 0.00107662 0)
(0.102279 0.00110181 0)
(0.104502 0.00101543 0)
(0.103775 0.00104886 0)
(0.105872 0.000953897 9.27531e-24)
(0.105191 0.000983766 2.34169e-24)
(0.107185 0.000902461 -8.93524e-24)
(0.106543 0.000927653 -9.26568e-24)
(0.108418 0.000854756 1.58127e-23)
(0.107806 0.000872629 2.02356e-23)
(0.109585 0.000808691 0)
(0.10901 0.000835357 0)
(0.11066 0.000756419 -6.90453e-26)
(0.110134 0.000782655 0)
(0.111652 0.000700874 0)
(0.111165 0.000728816 0)
(0.112565 0.000644552 0)
(0.112118 0.000672641 0)
(0.113402 0.000588773 0)
(0.112993 0.000616489 0)
(0.114163 0.000534037 0)
(0.113791 0.000561238 0)
(0.114852 0.000480529 0)
(0.114516 0.000507061 0)
(0.115479 0.000419104 -1.04764e-23)
(0.115171 0.000453896 0)
(0.115773 0.000389303 -3.37627e-24)
(0.116026 9.62568e-05 3.29323e-24)
(0.116027 -0.000170242 -3.26582e-24)
(0.115178 -0.000523458 0)
(0.115776 -0.000462514 -1.34132e-23)
(0.115484 -0.000491413 -6.92665e-24)
(0.114516 -0.000591416 1.90655e-24)
(0.114855 -0.000557784 -7.44855e-24)
(0.113789 -0.000657537 6.19977e-26)
(0.114161 -0.00062508 0)
(0.112989 -0.000723884 0)
(0.113399 -0.000690359 0)
(0.112113 -0.000792784 0)
(0.112561 -0.00075796 0)
(0.111157 -0.000864173 0)
(0.111645 -0.000828112 8.23887e-30)
(0.110121 -0.000938446 6.98794e-26)
(0.110649 -0.000900798 0)
(0.10901 -0.00100713 0)
(0.109572 -0.00097455 0)
(0.107815 -0.00107298 0)
(0.10842 -0.00104003 0)
(0.106537 -0.00114334 0)
(0.107185 -0.00110543 -4.68997e-24)
(0.105184 -0.00121739 1.23882e-24)
(0.105867 -0.00118478 -6.06149e-24)
(0.103766 -0.00129137 0)
(0.104489 -0.00125222 -4.9388e-24)
(0.102272 -0.00135351 0)
(0.103028 -0.00132349 0)
(0.100709 -0.00140813 0)
(0.101499 -0.00138169 0)
(0.0990805 -0.00145335 0)
(0.0999041 -0.001432 0)
(0.0973845 -0.00148961 -5.39231e-24)
(0.0982426 -0.00147077 0)
(0.0956278 -0.00153837 -2.18058e-23)
(0.0965151 -0.00150853 -5.41556e-24)
(0.0947146 -0.00157186 2.21776e-23)
(0.09464 0.00121491 4.20243e-23)
(0.116053 0.000362406 6.59778e-24)
(0.116053 -0.000434997 -1.28678e-23)
(0.0935171 -0.00070384 0)
(0.0937862 -0.00162067 0)
(0.0936865 0.00121661 0)
(0.0934746 0.000246565 0)
(0.096881 0.00210389 0)
(0.0950851 0.00215108 1.05207e-23)
(0.0959914 0.00212558 1.06415e-23)
(0.0986091 0.00204865 1.35366e-23)
(0.0977537 0.00207868 -2.70504e-24)
(0.100242 0.00197704 4.18669e-26)
(0.0994344 0.00201391 0)
(0.101809 0.00190016 0)
(0.101033 0.00193924 0)
(0.103311 0.0018182 0)
(0.102568 0.00185981 0)
(0.104748 0.00173295 0)
(0.104038 0.00177536 0)
(0.106109 0.00164266 0)
(0.105437 0.00168947 0)
(0.107394 0.00155437 -3.74247e-26)
(0.106758 0.00160029 9.66358e-24)
(0.108599 0.00146085 -3.58124e-26)
(0.108011 0.00150585 -1.88206e-23)
(0.10974 0.00136337 0)
(0.109178 0.00141168 0)
(0.110798 0.00126818 3.44773e-26)
(0.110279 0.00131564 0)
(0.111774 0.00117273 0)
(0.111296 0.00122049 0)
(0.112673 0.00107761 0)
(0.112233 0.00112503 0)
(0.113496 0.000984023 0)
(0.113094 0.00103054 0)
(0.114245 0.000892837 0)
(0.113879 0.000938096 0)
(0.114923 0.000804017 0)
(0.114593 0.000848223 0)
(0.11554 0.000710579 7.15739e-24)
(0.115238 0.000758361 0)
(0.116294 8.79457e-05 0)
(0.116316 0.00033701 6.4295e-24)
(0.116102 0.000622403 0)
(0.115827 0.000665539 6.96219e-24)
(0.11583 -0.000741066 1.38705e-23)
(0.116102 -0.000698116 3.39788e-24)
(0.116315 -0.000411444 2.64922e-23)
(0.116293 -0.000159666 0)
(0.115241 -0.000834901 0)
(0.115542 -0.000786806 -2.09464e-23)
(0.11459 -0.000934457 6.00183e-26)
(0.114924 -0.000883302 7.49386e-24)
(0.113875 -0.00103455 -6.19974e-26)
(0.114241 -0.000984241 0)
(0.113088 -0.0011381 0)
(0.113491 -0.00108581 0)
(0.112226 -0.00124563 0)
(0.112667 -0.00119139 0)
(0.111287 -0.00135662 0)
(0.111766 -0.00130073 -8.23884e-30)
(0.110269 -0.00147033 -1.39679e-25)
(0.110787 -0.0014132 0)
(0.109175 -0.0015832 0)
(0.109731 -0.00152726 0)
(0.107999 -0.00169517 2.36465e-24)
(0.108597 -0.00163914 0)
(0.10675 -0.00180288 0)
(0.107384 -0.00174692 -2.35479e-24)
(0.105424 -0.00191281 4.94716e-24)
(0.106092 -0.00185952 4.91111e-24)
(0.104025 -0.00201474 0)
(0.104734 -0.00196461 0)
(0.102557 -0.00211049 0)
(0.103299 -0.00206354 0)
(0.101022 -0.00219835 0)
(0.101797 -0.00215544 0)
(0.0994225 -0.00227787 0)
(0.10023 -0.00223905 0)
(0.0977612 -0.00235001 8.61352e-26)
(0.0985997 -0.00231469 0)
(0.0960406 -0.00241625 -8.72123e-26)
(0.0969094 -0.00238407 0)
(0.0942573 -0.00250891 -2.27851e-23)
(0.0951548 -0.00246025 2.27747e-23)
(0.0941599 0.00217592 2.13713e-23)
(0.0928474 -0.00168024 0)
(0.0933445 -0.00257001 -4.62266e-23)
(0.0925565 -0.00075335 0)
(0.11636 0.000584875 0)
(0.116361 -0.000656984 -3.29135e-24)
(0.0927224 0.00122034 5.40941e-23)
(0.0932242 0.00220182 2.16193e-23)
(0.0918892 -0.00173996 1.16951e-23)
(0.0924184 -0.00263654 5.84138e-23)
(0.0924934 0.000216691 0)
(0.116174 0.000881355 2.71801e-23)
(0.116425 0.00082727 -1.34145e-23)
(0.116562 -0.00038748 -6.50671e-24)
(0.116605 -0.00061652 3.23258e-23)
(0.093986 0.00315006 7.5838e-23)
(0.092262 0.00222779 -4.25992e-23)
(0.0921047 0.00323761 -1.89537e-22)
(0.0930468 0.00318693 -4.32853e-23)
(0.0957636 0.00305962 2.11573e-23)
(0.0948827 0.0031069 -6.45696e-23)
(0.0974761 0.00296409 -2.16641e-23)
(0.0966287 0.00301277 -1.63171e-23)
(0.0991392 0.0028677 -5.41186e-24)
(0.0983169 0.00291832 -5.40855e-24)
(0.100729 0.00276599 -4.18669e-26)
(0.0999441 0.00281804 0)
(0.102253 0.00265712 0)
(0.101499 0.0027123 0)
(0.103713 0.00254247 0)
(0.102991 0.00260052 0)
(0.105109 0.0024227 0)
(0.104419 0.00248307 0)
(0.106434 0.00229938 0)
(0.10578 0.00236137 0)
(0.107686 0.00217144 0)
(0.107069 0.0022361 0)
(0.108865 0.00204073 6.34114e-29)
(0.108286 0.00210668 0)
(0.10997 0.00190495 0)
(0.109426 0.00197294 0)
(0.111 0.00176981 3.43956e-26)
(0.110495 0.00183726 0)
(0.111953 0.00163529 0)
(0.111486 0.00170246 0)
(0.11283 0.00150212 0)
(0.112401 0.00156846 0)
(0.113633 0.00137155 0)
(0.11324 0.00143643 0)
(0.114364 0.00124472 0)
(0.114007 0.00130762 0)
(0.115027 0.0011218 0)
(0.114704 0.00118287 0)
(0.115628 0.000998548 3.64627e-24)
(0.115335 0.00106004 -1.83584e-24)
(0.115908 0.000939059 -1.38761e-23)
(0.116541 8.22068e-05 -3.08237e-24)
(0.116604 0.000547732 1.28757e-23)
(0.116562 0.000315573 -9.86462e-24)
(0.116541 -0.000153756 0)
(0.115909 -0.0010146 -1.03049e-23)
(0.116426 -0.000898035 -2.96639e-23)
(0.116174 -0.000955608 2.39357e-23)
(0.115334 -0.00114197 0)
(0.115629 -0.00107638 0)
(0.1147 -0.00126997 -5.50986e-29)
(0.115025 -0.00120391 0)
(0.114002 -0.00140432 0)
(0.114359 -0.00133653 0)
(0.113233 -0.00154415 -6.38417e-26)
(0.113626 -0.00147354 0)
(0.112392 -0.00168926 0)
(0.112822 -0.00161612 0)
(0.111476 -0.00183851 0)
(0.111943 -0.00176346 0)
(0.110484 -0.00199039 6.98094e-26)
(0.110989 -0.00191424 0)
(0.109417 -0.00214224 7.16682e-26)
(0.10996 -0.0020665 0)
(0.108274 -0.00229332 0)
(0.108855 -0.00221789 0)
(0.107055 -0.002441 0)
(0.107674 -0.00236761 0)
(0.105765 -0.00258503 0)
(0.106418 -0.00251382 0)
(0.104404 -0.00272142 0)
(0.105093 -0.00265392 0)
(0.102975 -0.0028506 -8.09787e-26)
(0.103697 -0.00278708 0)
(0.101482 -0.00297077 0)
(0.102236 -0.00291187 0)
(0.0999265 -0.00308145 0)
(0.100712 -0.00302728 0)
(0.0983122 -0.00318305 -1.96355e-28)
(0.0991265 -0.00313332 0)
(0.0966422 -0.00327625 2.22047e-28)
(0.0974842 -0.00323071 0)
(0.0949205 -0.00337267 8.9857e-26)
(0.0957853 -0.00332097 0)
(0.0931493 -0.00349589 -4.71327e-23)
(0.0940394 -0.00342996 1.16058e-23)
(0.0914813 -0.00269949 1.18565e-23)
(0.0922612 -0.00356695 2.35777e-23)
(0.0917449 0.00121728 -2.12016e-23)
(0.0915742 -0.00080503 -2.26475e-23)
(0.116664 0.000775408 3.27629e-24)
(0.116665 -0.000845695 2.33053e-23)
(0.0912538 0.00223113 2.63384e-24)
(0.0909195 -0.00180646 0)
(0.0909167 0.00312903 2.90375e-22)
(0.0913668 -0.0036361 3.61173e-23)
(0.0905498 -0.00276444 4.82557e-23)
(0.0921821 0.00438086 -4.7943e-22)
(0.091713 0.00454338 8.7752e-23)
(0.0915197 0.000191619 0)
(0.0933373 0.00418843 4.85647e-23)
(0.0926546 0.00431277 2.47703e-23)
(0.0949667 0.00404456 4.38977e-23)
(0.0941146 0.00410385 -6.6856e-23)
(0.0966458 0.00391951 -2.18977e-23)
(0.0958171 0.00398524 -1.0905e-23)
(0.0982672 0.00379274 1.09887e-23)
(0.0974627 0.00385578 1.1118e-23)
(0.0998444 0.0036618 0)
(0.0990594 0.00372692 -1.71684e-26)
(0.101366 0.00352844 0)
(0.100612 0.00359592 0)
(0.10283 0.00338894 4.08374e-26)
(0.102105 0.00345947 0)
(0.104236 0.00324289 0)
(0.103541 0.00331678 0)
(0.105579 0.00309028 0)
(0.104915 0.00316735 0)
(0.106856 0.00293211 0)
(0.106226 0.00301187 0)
(0.108065 0.0027686 3.72197e-26)
(0.107469 0.00285102 0)
(0.109203 0.00260081 7.09994e-29)
(0.108643 0.00268524 0)
(0.110269 0.00242908 0)
(0.109745 0.00251523 0)
(0.111264 0.00225646 -6.87318e-26)
(0.110776 0.00234277 0)
(0.112185 0.00208451 0)
(0.111734 0.00217033 0)
(0.113034 0.00191459 0)
(0.112618 0.00199921 0)
(0.113811 0.00174827 0)
(0.113431 0.0018309 0)
(0.114519 0.00158698 0)
(0.114174 0.00166694 0)
(0.115162 0.00143132 0)
(0.114849 0.0015085 0)
(0.115744 0.00128041 -1.82038e-24)
(0.11546 0.00135446 0)
(0.11627 0.0011348 0)
(0.116013 0.00120654 -3.52281e-24)
(0.116744 0.000997728 -1.0082e-27)
(0.116514 0.00106512 0)
(0.116831 0.000512663 -1.30546e-23)
(0.116963 0.00093619 7.86684e-25)
(0.116889 0.000727626 6.38189e-24)
(0.116772 7.48612e-05 4.69386e-24)
(0.116792 0.00029444 -3.23999e-24)
(0.116793 -0.000364847 -1.63172e-24)
(0.116772 -0.000145907 1.62814e-24)
(0.116888 -0.000797296 0)
(0.116832 -0.000582756 -1.48307e-23)
(0.116514 -0.00113733 -6.67156e-24)
(0.116962 -0.00100886 -1.27472e-23)
(0.116745 -0.00107084 2.92827e-23)
(0.116013 -0.00128225 -3.51185e-24)
(0.11627 -0.00120844 0)
(0.115457 -0.00143677 0)
(0.115742 -0.00135784 0)
(0.114844 -0.00159644 -7.07034e-29)
(0.115158 -0.00151562 0)
(0.114167 -0.00176398 0)
(0.114513 -0.00167929 0)
(0.113423 -0.0019389 6.38417e-26)
(0.113803 -0.00185058 0)
(0.112609 -0.00212023 0)
(0.113024 -0.00202888 0)
(0.111723 -0.00230635 0)
(0.112175 -0.00221283 0)
(0.110764 -0.00249525 0)
(0.111253 -0.00240061 0)
(0.109733 -0.00268451 -1.27405e-28)
(0.110258 -0.00259 0)
(0.108629 -0.0028724 0)
(0.10919 -0.00277876 0)
(0.107454 -0.00305647 0)
(0.10805 -0.00296499 0)
(0.106209 -0.00323511 0)
(0.10684 -0.00314672 0)
(0.104897 -0.00340562 0)
(0.105561 -0.00332137 0)
(0.103521 -0.00356712 8.09787e-26)
(0.104217 -0.00348762 0)
(0.102083 -0.00371823 0)
(0.102809 -0.00364404 0)
(0.100586 -0.00385846 0)
(0.101342 -0.00378971 0)
(0.0990347 -0.00398811 -8.59306e-26)
(0.0998172 -0.00392457 0)
(0.0974309 -0.00410767 8.74276e-26)
(0.0982391 -0.00404915 0)
(0.0957783 -0.00421974 -8.88417e-26)
(0.0966101 -0.00416432 0)
(0.0940884 -0.00433543 1.1649e-23)
(0.0949344 -0.0042737 -2.29928e-23)
(0.0923886 -0.00447288 -1.17021e-23)
(0.0932364 -0.00440056 2.37973e-23)
(0.0904603 -0.00369899 2.65943e-25)
(0.0915277 -0.00454126 2.39337e-23)
(0.0907474 0.0011932 -2.16741e-23)
(0.0905924 -0.000841529 0)
(0.0902464 0.00217494 -2.08842e-22)
(0.0899472 -0.00184922 0)
(0.116845 0.00121809 -3.26714e-24)
(0.117055 0.00114093 2.39345e-24)
(0.117099 -0.000750754 -1.24825e-23)
(0.117168 -0.00094635 -1.41384e-23)
(0.089801 0.00303238 -2.03616e-22)
(0.0896083 -0.00282327 -4.87278e-23)
(0.09075 0.00447757 0)
(0.0933346 0.00520339 -5.54561e-23)
(0.0895533 -0.00376001 -2.38977e-23)
(0.090658 -0.00460352 3.61217e-23)
(0.0925766 0.00518819 1.11452e-22)
(0.0905308 0.000165697 0)
(0.0946074 0.00502303 0)
(0.0939428 0.0051211 -4.95018e-23)
(0.0961275 0.00486843 0)
(0.0953488 0.00494456 0)
(0.0976901 0.00471911 0)
(0.0969113 0.00479247 1.12977e-23)
(0.099211 0.00457005 0)
(0.0984545 0.00464524 0)
(0.100698 0.00441552 0)
(0.0999587 0.00449306 0)
(0.10214 0.00425605 0)
(0.101425 0.00433674 0)
(0.103532 0.00408892 -4.08374e-26)
(0.102843 0.00417348 0)
(0.10487 0.00391361 0)
(0.104208 0.00400232 0)
(0.106151 0.00373014 0)
(0.105518 0.00382286 0)
(0.10737 0.00353928 0)
(0.106768 0.00363559 0)
(0.108525 0.00334193 -9.18909e-29)
(0.107956 0.00344139 0)
(0.109613 0.00313936 8.42075e-29)
(0.109077 0.00324122 0)
(0.110634 0.00293276 0)
(0.110132 0.00303642 0)
(0.111586 0.00272462 7.11011e-29)
(0.111118 0.00282875 0)
(0.112468 0.00251708 0)
(0.112036 0.00262067 0)
(0.113282 0.00231208 0)
(0.112884 0.00241415 0)
(0.114028 0.00211155 0)
(0.113664 0.00221115 0)
(0.114709 0.00191725 0)
(0.114377 0.00201353 0)
(0.115327 0.00173041 0)
(0.115025 0.00182287 0)
(0.115886 0.00155162 0)
(0.115613 0.00163998 0)
(0.11639 0.00137982 3.48701e-24)
(0.116144 0.00146348 3.57631e-24)
(0.116624 0.00129671 -6.67862e-24)
(0.117044 0.000479472 -6.39157e-24)
(0.117169 0.00087836 0)
(0.117098 0.000680194 -6.45638e-24)
(0.116987 6.83941e-05 0)
(0.117005 0.00027546 6.52301e-24)
(0.117007 -0.000345132 9.7375e-24)
(0.116987 -0.000139124 -3.29164e-24)
(0.117045 -0.000548928 -1.91421e-23)
(0.116623 -0.00137025 3.3592e-24)
(0.117055 -0.00121044 1.24382e-23)
(0.116845 -0.00129178 0)
(0.116143 -0.00154049 -6.97993e-24)
(0.116389 -0.00145424 7.003e-24)
(0.115609 -0.00172164 0)
(0.115882 -0.00163037 0)
(0.115019 -0.00191138 -8.59722e-29)
(0.115321 -0.00181526 0)
(0.114369 -0.00211094 0)
(0.114702 -0.00201 0)
(0.113655 -0.00231944 0)
(0.11402 -0.00221417 0)
(0.112873 -0.00253536 0)
(0.113272 -0.00242661 0)
(0.112024 -0.00275668 0)
(0.112457 -0.00264551 0)
(0.111106 -0.00298103 6.94634e-26)
(0.111574 -0.00286865 0)
(0.110119 -0.00320583 -7.15408e-26)
(0.110621 -0.00309355 0)
(0.109063 -0.00342879 0)
(0.109599 -0.00331771 0)
(0.107939 -0.00364724 0)
(0.108509 -0.00353872 0)
(0.106751 -0.00385897 0)
(0.107353 -0.00375416 0)
(0.105499 -0.0040616 0)
(0.106132 -0.00396152 0)
(0.104186 -0.00425366 0)
(0.10485 -0.00415907 0)
(0.102816 -0.00443386 0)
(0.103508 -0.00434531 0)
(0.101392 -0.00460163 -8.3859e-26)
(0.102111 -0.00451932 0)
(0.0999171 -0.00475711 8.54039e-26)
(0.100661 -0.00468088 0)
(0.0983947 -0.00490085 -8.68656e-26)
(0.0991615 -0.00483043 0)
(0.0968295 -0.00503404 0)
(0.0976171 -0.00496866 0)
(0.0952263 -0.00515818 0)
(0.0960318 -0.00509693 0)
(0.0936037 -0.00527886 9.18417e-26)
(0.0944191 -0.00521805 1.16925e-23)
(0.0919651 -0.00540901 -6.05414e-23)
(0.0927811 -0.00534188 0)
(0.0897985 -0.00467339 -3.59181e-23)
(0.0911471 -0.00547678 -2.47701e-25)
(0.0897513 0.00116465 6.76541e-23)
(0.089602 -0.000870127 0)
(0.117254 0.00106849 -1.24128e-23)
(0.117253 -0.001139 -2.39902e-23)
(0.0891544 0.00209965 -3.56978e-23)
(0.0897034 0.00391059 7.93432e-25)
(0.0887852 0.00295141 1.01643e-22)
(0.0889783 -0.00187852 0)
(0.0886555 -0.00285848 1.21562e-23)
(0.0914315 0.00513789 -1.03409e-22)
(0.0903947 0.00501557 8.86655e-23)
(0.0890829 0.00404292 -8.74576e-23)
(0.088636 -0.00380672 -3.6447e-23)
(0.0889229 -0.00473179 2.42471e-23)
(0.0903377 -0.00555546 2.38226e-23)
(0.0895323 0.000140131 0)
(0.0946169 0.00593555 3.10069e-24)
(0.0928504 0.00596019 3.51323e-25)
(0.0937841 0.00593543 2.41374e-23)
(0.0959758 0.00579068 2.39703e-23)
(0.0953032 0.00587186 -2.40947e-23)
(0.097412 0.00562335 4.44023e-26)
(0.0966774 0.00570623 0)
(0.0988646 0.00546283 0)
(0.0981416 0.00554261 0)
(0.10029 0.00529805 0)
(0.0995806 0.0053815 0)
(0.101683 0.00512499 0)
(0.100991 0.00521244 0)
(0.103037 0.00494323 4.13983e-26)
(0.102365 0.00503536 0)
(0.104347 0.0047514 0)
(0.103698 0.0048486 0)
(0.105608 0.00454933 0)
(0.104984 0.00465165 0)
(0.106816 0.00433729 0)
(0.106219 0.00444452 0)
(0.107968 0.00411618 0)
(0.107399 0.00422781 0)
(0.10906 0.00388725 -3.71278e-26)
(0.108522 0.00400262 0)
(0.110091 0.0036521 9.73916e-29)
(0.109583 0.00377035 0)
(0.111058 0.00341252 0)
(0.110582 0.00353273 0)
(0.111961 0.00317096 6.84481e-26)
(0.111518 0.00329184 0)
(0.112799 0.00292992 0)
(0.112388 0.00305024 0)
(0.113573 0.00269178 0)
(0.113194 0.00281036 0)
(0.114283 0.00245886 0)
(0.113935 0.00257455 0)
(0.114931 0.00223326 0)
(0.114614 0.00234504 0)
(0.115519 0.00201667 0)
(0.115232 0.00212377 0)
(0.116052 0.00181017 5.69272e-26)
(0.115792 0.00191211 0)
(0.116532 0.00161353 -3.50225e-24)
(0.116298 0.00171089 0)
(0.116965 0.00142583 3.32416e-24)
(0.116755 0.00151811 0)
(0.117355 0.00125111 3.15669e-24)
(0.117164 0.00133724 -3.23564e-24)
(0.117359 0.000821384 6.24107e-24)
(0.117534 0.00116996 0)
(0.117441 0.00100004 9.29151e-24)
(0.11724 0.000448642 0)
(0.117292 0.000636653 0)
(0.117187 6.23032e-05 0)
(0.117205 0.000256465 0)
(0.117206 -0.000326103 0)
(0.117188 -0.000132544 0)
(0.117294 -0.000707078 1.27217e-23)
(0.117242 -0.000518387 3.15856e-24)
(0.117438 -0.00107113 3.11964e-24)
(0.117359 -0.000891028 2.4902e-23)
(0.117165 -0.00141058 1.62582e-23)
(0.117531 -0.00124705 3.10371e-24)
(0.117354 -0.00132614 -6.31619e-24)
(0.116754 -0.00159304 3.344e-24)
(0.116964 -0.00149987 -2.00495e-23)
(0.116295 -0.00178817 -7.59604e-29)
(0.116531 -0.00168874 0)
(0.115787 -0.0019943 0)
(0.116048 -0.00188962 0)
(0.115226 -0.00221275 -1.01025e-28)
(0.115513 -0.00210203 0)
(0.114606 -0.00244279 0)
(0.114923 -0.00232641 0)
(0.113926 -0.00268308 0)
(0.114274 -0.00256178 0)
(0.113183 -0.0029317 0)
(0.113563 -0.00280651 0)
(0.112377 -0.00318626 0)
(0.112788 -0.00305842 0)
(0.111505 -0.00344408 -1.38764e-25)
(0.111949 -0.00331496 0)
(0.110569 -0.0037023 0)
(0.111045 -0.00357334 0)
(0.109569 -0.00395816 0)
(0.110077 -0.00383072 0)
(0.108506 -0.00420878 0)
(0.109045 -0.0040843 0)
(0.107382 -0.00445153 0)
(0.107952 -0.00433133 0)
(0.1062 -0.00468403 -7.8559e-26)
(0.106798 -0.00456919 0)
(0.104962 -0.00490447 0)
(0.105588 -0.00479587 0)
(0.103671 -0.00511152 0)
(0.104323 -0.00500974 0)
(0.102331 -0.00530448 8.3859e-26)
(0.103007 -0.00520979 0)
(0.100945 -0.00548332 -3.2563e-28)
(0.101643 -0.00539566 0)
(0.0995163 -0.00564846 1.73388e-25)
(0.100235 -0.00556758 0)
(0.0980501 -0.00580064 0)
(0.0987876 -0.00572614 0)
(0.0965506 -0.00594057 0)
(0.0973041 -0.00587194 0)
(0.0950236 -0.00606767 -4.0495e-28)
(0.0957908 -0.00600636 0)
(0.0934738 -0.00618715 0)
(0.0942502 -0.00612762 0)
(0.0919373 -0.00632128 -3.58514e-23)
(0.0927026 -0.00625159 0)
(0.0895155 -0.00562457 -2.28942e-25)
(0.0911753 -0.00639725 6.06852e-23)
(0.0887111 0.00111928 0)
(0.0919225 0.00594221 1.39876e-22)
(0.0881179 0.00202727 2.4393e-23)
(0.11747 0.00142894 -3.15076e-24)
(0.11764 0.00133929 0)
(0.117612 -0.00100808 3.03429e-24)
(0.117698 -0.00116964 -6.0202e-24)
(0.0886098 -0.000893714 0)
(0.0880008 -0.0018978 0)
(0.0879162 0.00302838 0)
(0.0876978 -0.00288324 -1.19728e-23)
(0.087712 -0.00385326 -2.39938e-23)
(0.0880422 -0.00479336 0)
(0.0886836 -0.0056926 6.14687e-23)
(0.0903994 -0.00646941 -4.8945e-23)
(0.0885208 0.000112625 0)
(0.0945351 0.00672723 -1.15928e-26)
(0.0909384 0.00588529 4.37916e-23)
(0.0928481 0.00677858 -1.55956e-22)
(0.0936924 0.00676936 4.5767e-23)
(0.096103 0.0066367 -1.49562e-23)
(0.0953297 0.00666523 -2.39317e-23)
(0.0974599 0.00650294 0)
(0.0967969 0.00658086 0)
(0.0988131 0.00632795 -4.43983e-26)
(0.0981275 0.0064146 0)
(0.100165 0.00615645 0)
(0.0994929 0.00624256 0)
(0.10149 0.00597728 0)
(0.100831 0.00606816 0)
(0.102784 0.00578732 0)
(0.102141 0.00588368 0)
(0.104043 0.00558577 -4.13983e-26)
(0.103418 0.00568809 0)
(0.105262 0.0053718 0)
(0.104658 0.00548035 0)
(0.106438 0.00514551 0)
(0.105856 0.00526019 0)
(0.107565 0.00490743 0)
(0.107008 0.0050279 0)
(0.108642 0.00465863 0)
(0.10811 0.00478429 0)
(0.109664 0.00440064 3.69035e-26)
(0.10916 0.00453068 0)
(0.11063 0.00413539 1.09519e-28)
(0.110154 0.0042688 0)
(0.111537 0.00386512 0)
(0.111091 0.00400074 0)
(0.112385 0.00359247 -9.25519e-29)
(0.111969 0.00372893 0)
(0.113173 0.00332022 0)