/*--------------------------------*- C++ -*----------------------------------*\
  =========                 |
  \\      /  F ield         | OpenFOAM: The Open Source CFD Toolbox
   \\    /   O peration     | Website:  https://openfoam.org
    \\  /    A nd           | Version:  10
     \\/     M anipulation  |
\*---------------------------------------------------------------------------*/
FoamFile
{
    format      ascii;
    class       surfaceScalarField;
    location    "16.5";
    object      phi;
}
// * * * * * * * * * * * * * * * * * * * * * * * * * * * * * * * * * * * * * //

dimensions      [0 3 -1 0 0 0 0];

internalField   nonuniform List<scalar> 
12623
(
0.382994
0.0854005
-0.139534
-0.32886
0.295225
-0.119151
0.206921
0.296642
-0.11107
-0.275666
0.0900937
-0.132136
0.311341
0.117436
-0.278744
0.137007
-0.142178
0.283915
-0.270132
-0.140747
-0.00312505
0.169529
-0.192328
0.0259233
-0.215403
0.212278
-0.314585
0.0154969
0.299088
-0.19443
-0.0262518
-0.093903
0.426209
-0.172603
-0.253606
-0.28131
0.231597
0.475922
-0.203447
-0.146221
0.149646
0.200022
0.0188018
0.0339395
-0.256189
-0.192278
0.0648593
0.0397575
-0.0601776
-0.0204387
0.0408589
-0.00824708
-0.0192049
0.0672095
-0.110608
0.0421829
-0.0174857
-0.0536138
0.0217285
0.0493709
-0.0952611
0.00393639
0.0738391
-0.0740496
-0.0748253
0.0173637
0.0743646
-0.0828709
-0.00885747
-0.0245281
0.00894963
0.0329422
-0.187997
0.237833
-0.272448
0.0260168
0.28037
0.0409954
-0.303964
-0.00947907
-0.310165
0.0246777
0.311504
-0.242766
-0.0830475
0.0912645
0.234549
-0.25111
0.133355
-0.125011
-0.226088
0.214667
0.0408944
-0.0294733
-0.229514
-0.079622
-0.343032
0.1443
-0.144901
0.343633
-0.13608
-0.322841
0.11589
0.312268
-0.40789
0.119188
-0.128437
0.41714
-0.131354
-0.377648
0.101111
-0.371668
-0.136757
0.377071
-0.348303
0.120935
0.429145
-0.109879
-0.432332
0.113067
-0.0844761
0.121656
0.391965
-0.427437
-0.117352
0.434909
-0.404895
0.096646
0.0100692
-0.00376612
0.208364
-0.231557
0.12485
-0.124003
0.23071
-0.102394
-0.221746
0.0925826
-0.118165
-0.263036
-0.249468
-0.138587
0.247308
-0.242784
-0.0287038
-0.357391
0.0149573
0.371137
0.26293
0.0539205
-0.345555
-0.251691
0.0827186
0.431903
-0.11368
0.381685
-0.310391
0.0423857
-0.31145
0.303983
0.0668227
-0.0756329
-0.295173
0.0748334
0.282254
-0.0531037
-0.0284884
0.0173903
0.31416
-0.303062
-0.325176
0.322378
-0.0256906
0.308614
-0.0293881
0.0343585
-0.313585
0.250952
-0.240295
0.180627
-0.191285
0.197398
0.254744
-0.20119
-0.228721
0.158579
-0.170153
-0.208203
0.126518
-0.147036
-0.191567
0.0854142
-0.10205
-0.178689
0.0343911
-0.0472694
-0.174166
-0.0252537
0.0207312
-0.178795
-0.085629
0.0902576
-0.186525
-0.13905
0.14678
-0.180485
-0.198117
0.192078
0.264023
-0.252018
0.185393
0.205972
0.260978
-0.212205
0.271204
0.198791
-0.240662
0.169271
-0.222087
0.140003
-0.205391
0.109822
-0.189801
0.0698247
-0.179554
0.0241437
-0.176696
-0.0281113
-0.180288
-0.0820374
-0.191769
-0.127568
-0.203152
-0.169102
-0.201338
0.271827
0.200715
0.259571
-0.199931
-0.209005
-0.212185
0.223073
-0.222949
-0.189208
-0.191458
0.269573
0.193712
0.261331
-0.193219
-0.222997
-0.226956
0.237768
-0.234504
-0.211442
-0.169306
0.266572
0.172306
-0.159085
-0.230176
-0.234315
0.237535
-0.249119
-0.215561
0.260785
0.139143
0.098833
0.253217
-0.234416
0.237284
-0.237182
-0.225045
-0.25849
0.275435
-0.286455
0.183326
-0.255074
0.258928
0.094979
0.159504
0.286892
-0.279324
0.193147
0.194149
0.267502
-0.253448
0.171338
0.18697
0.239138
-0.222402
0.123267
0.154962
0.207594
-0.194883
0.0571132
0.095014
0.188614
-0.187009
-0.0297169
0.0178752
0.195179
-0.20494
-0.117807
-0.0738671
0.222632
-0.236427
-0.175413
-0.151411
0.255634
-0.266688
-0.204507
-0.192235
-0.279147
-0.212585
-0.224338
0.221181
0.240925
0.235029
0.239145
-0.23689
0.248225
-0.206853
0.198714
0.200217
0.237401
-0.188344
0.185869
0.0927327
0.15715
-0.193247
0.198943
-0.0529656
0.0133532
-0.221886
0.22956
-0.154709
-0.124994
-0.253826
0.251038
-0.188497
-0.194419
-0.261695
0.246256
-0.196766
-0.211847
-0.249866
0.237696
-0.181049
-0.203542
-0.24016
-0.114365
-0.161548
-0.04769
0.0500215
0.250885
0.227753
0.064714
0.244236
0.225364
-0.285536
-0.218975
0.226608
-0.259734
-0.243109
0.248793
0.233462
0.22736
-0.230487
-0.233764
-0.234648
0.218899
-0.216146
0.216528
-0.285918
-0.310631
0.298414
-0.206758
-0.207387
-0.319391
0.215817
-0.215607
-0.0296835
0.279933
-0.295828
0.110874
0.284787
0.0598599
0.206424
0.0194618
-0.24106
0.290986
-0.289515
0.181855
0.154661
0.285757
-0.278416
0.185806
0.190391
0.269478
-0.253092
0.154951
0.178032
0.235773
-0.223103
0.110597
0.137644
0.210814
-0.203037
0.0493357
0.0827253
0.197853
-0.198918
-0.0286517
0.0126915
0.204944
-0.217476
-0.105275
-0.0678411
0.233543
-0.2506
-0.158356
-0.135344
0.268803
-0.285837
-0.187473
-0.174032
-0.200008
-0.252632
0.245466
0.248091
0.244386
-0.239995
0.225861
0.214351
0.242871
-0.216648
0.210376
0.0990044
0.166363
-0.207639
0.217819
-0.0631457
0.0160901
-0.216622
0.239158
-0.177246
-0.123796
-0.235507
0.256074
-0.209064
-0.190768
-0.241199
0.248001
-0.203568
-0.196971
-0.232941
0.225265
-0.173373
-0.188482
-0.215969
0.223172
-0.121568
-0.152252
-0.0720568
-0.00181332
0.0267292
0.225969
0.222174
-0.0197981
0.279128
0.025457
0.251167
-0.209376
0.191887
-0.217158
-0.214835
-0.228305
0.216144
-0.25935
-0.340861
0.321479
-0.187377
-0.35683
-0.191417
0.189936
-0.181864
-0.327463
0.19075
-0.286732
-0.223665
0.240989
0.174563
0.157079
-0.164474
-0.209763
-0.207606
0.14102
0.0560822
-0.0446614
0.196943
0.199989
0.0625174
-0.0485716
0.0460685
0.281632
0.307958
-0.306734
0.024233
0.315774
-0.0563871
-0.213794
0.0229983
0.210258
-0.210101
-0.0333767
-0.239752
0.311993
-0.313195
0.112075
0.0651188
0.31369
-0.308601
0.176766
0.155156
0.304311
-0.295456
0.176951
0.186102
0.276773
-0.268194
0.146373
0.159348
0.25031
-0.23973
0.100017
0.11976
0.226647
-0.21885
0.0415387
0.0696425
0.212897
-0.212912
-0.0286366
0.0067387
0.219329
-0.229751
-0.0948535
-0.0614241
0.247191
-0.262574
-0.142973
-0.117904
0.283609
-0.299751
-0.171331
-0.152997
-0.178279
-0.258404
0.266857
0.225008
0.201484
-0.271272
0.270857
0.248507
0.239971
-0.272118
0.258052
0.228417
0.24161
-0.254972
0.247141
0.106835
0.169443
-0.243405
0.243473
-0.0632143
0.0198262
-0.246318
0.251506
-0.182433
-0.126641
-0.25574
0.257924
-0.211248
-0.195003
-0.254904
0.248065
-0.196729
-0.193951
-0.234574
0.230521
-0.169321
-0.17499
-0.217612
0.208065
-0.11202
-0.139343
-0.0740927
0.0439715
-0.0429535
0.224951
0.221484
0.254282
-0.370561
-0.168133
-0.177623
-0.215156
0.185886
-0.254486
-0.10173
0.092075
-0.197951
-0.113083
-0.198409
0.132595
-0.12756
-0.332498
0.133725
-0.287861
-0.0946812
0.0946468
0.281666
-0.096994
0.318087
0.102063
-0.0983779
0.193258
0.0975368
0.204515
0.203709
-0.209442
-0.0276437
0.0158391
0.210868
0.350453
-0.343668
0.0174479
0.347191
-0.0531248
-0.383304
-0.114818
0.0416512
-0.0370836
-0.387871
0.0463514
-0.337199
0.206805
0.0659696
-0.231489
0.345494
-0.353263
0.119845
0.0669443
0.346967
-0.340663
0.170461
0.14886
0.319969
-0.30781
0.164792
0.165409
0.293164
-0.278168
0.131377
0.144702
0.264597
-0.251075
0.0864947
0.106189
0.239838
-0.230716
0.032417
0.0584054
0.226241
-0.227211
-0.0276665
0.00226286
0.233006
-0.24354
-0.0843195
-0.0556286
0.257218
-0.274925
-0.125266
-0.104226
0.294137
-0.315192
-0.150276
-0.133784
0.335683
-0.358451
-0.164609
-0.157788
0.381277
-0.406907
-0.142504
-0.168591
0.417541
-0.429664
-0.0249603
-0.104184
-0.240496
0.256881
0.158178
0.221374
-0.207202
0.0779031
0.121898
-0.272118
0.286721
0.210405
0.186246
-0.299102
0.297124
0.250484
0.227591
-0.302368
0.301601
0.229184
0.236367
-0.298624
0.294331
0.111129
0.172419
-0.290422
0.288184
-0.0609757
0.0237351
-0.286368
0.284242
-0.180307
-0.124825
-0.281506
0.276962
-0.206703
-0.192267
-0.269822
0.258756
-0.185663
-0.186812
-0.248865
0.233425
-0.15388
-0.165099
-0.224102
0.2138
-0.101718
-0.13002
-0.0697348
0.0857622
-0.0895266
0.228716
0.208868
0.259402
0.0306646
-0.0351618
-0.193454
-0.199558
0.0230202
0.0635959
-0.056737
-0.39473
-0.427328
0.0612598
-0.121242
-0.206998
0.128847
-0.249608
-0.0879149
0.338112
0.100631
0.203711
0.216553
-0.218083
-0.0261144
0.216609
0.0157833
-0.039121
-0.19445
0.0473821
-0.288892
0.0363329
-0.0355316
-0.200359
0.0389617
-0.196083
-0.0547863
-0.339149
0.13566
-0.148604
-0.381785
0.132483
-0.424151
0.214813
0.0620249
-0.223883
0.391635
-0.392073
0.0178861
-0.375391
0.366549
-0.0790722
-0.0368809
0.396784
-0.388374
0.111435
0.0716547
0.376144
-0.360291
0.154608
0.136631
0.343253
-0.325651
0.14719
0.148371
0.308279
-0.291636
0.114733
0.12733
0.27607
-0.262047
0.072471
0.0906237
0.250816
-0.243079
0.0246802
0.0471748
0.239749
-0.241099
-0.0263168
-0.00106684
0.246675
-0.256862
-0.0741325
-0.0500524
0.271181
-0.288949
-0.107498
-0.0899072
0.30777
-0.327947
-0.130099
-0.114964
0.351265
-0.370318
-0.145555
-0.13447
0.400732
-0.418161
-0.125075
-0.138178
0.441127
-0.452604
-0.0134825
-0.0812179
0.454789
-0.445547
0.123242
0.0634442
-0.21909
0.234608
0.0623849
0.209835
-0.209331
-0.0360348
0.0137649
-0.251884
0.272283
0.137779
0.104623
-0.292026
0.301123
0.201308
0.166503
-0.317416
0.329681
0.238219
0.211298
-0.338828
0.344762
0.22325
0.22722
-0.346829
0.345369
0.112589
0.170352
-0.341317
0.336212
-0.0558705
0.0277868
-0.329698
0.320516
-0.171125
-0.118312
-0.31041
0.298985
-0.195279
-0.182161
-0.287388
0.273682
-0.171957
-0.175215
-0.257791
0.246568
-0.142657
-0.149208
-0.234326
0.225665
-0.0930574
-0.117779
-0.0621524
-0.0903862
0.0987415
-0.208715
-0.215956
-0.0837622
0.176444
-0.200521
-0.400075
-0.425161
0.156057
0.21305
0.0568884
0.127358
-0.12911
0.205463
0.216405
0.122253
-0.131142
0.202147
0.197658
0.130609
-0.129011
0.227117
0.208336
0.126847
-0.125449
0.280268
0.257238
0.122211
-0.114027
0.329928
0.314849
-0.100807
0.353329
-0.0436269
-0.202492
0.0467431
-0.248969
0.0409445
-0.196433
-0.0520063
-0.291672
0.107028
-0.20437
-0.14794
-0.339814
0.130462
-0.11444
-0.231977
0.143774
-0.222026
-0.211802
-0.370503
-0.191971
0.166564
-0.399753
-0.222456
-0.36959
0.384308
-0.397106
-0.0662736
0.368963
-0.0854629
-0.220767
0.409578
-0.416346
0.0246541
-0.0244094
0.416307
-0.410934
0.106062
0.0716161
0.394058
-0.375564
0.136114
0.119755
0.355762
-0.336298
0.127726
0.128569
0.316956
-0.299671
0.0974476
0.107988
0.283737
-0.271091
0.059825
0.0746905
0.261189
-0.255171
0.0186629
0.037272
0.252653
-0.254107
-0.0248629
-0.00358538
0.260408
-0.271311
-0.0632289
-0.0437515
0.286399
-0.303295
-0.0906031
-0.074819
0.321185
-0.340032
-0.111252
-0.0970728
0.361018
-0.384454
-0.122119
-0.113484
0.408534
-0.429697
-0.103911
-0.114098
0.444395
-0.447932
-0.00994555
-0.0665207
0.44418
-0.440584
0.119645
0.0596932
0.428228
-0.408714
0.14705
0.143702
-0.220839
0.223129
-0.0383245
0.229196
-0.246446
-0.0971908
-0.0754052
-0.231595
0.246827
0.0471528
0.00529886
-0.267356
0.282251
0.122884
0.0840936
-0.303068
0.32249
0.181886
0.145687
-0.339935
0.357322
0.220832
0.193852
-0.372114
0.384831
0.210534
0.212428
-0.392505
0.394665
0.110429
0.162678
-0.390833
0.382954
-0.0479921
0.0316192
-0.371359
0.355236
-0.155002
-0.106717
-0.3376
0.318893
-0.176572
-0.164525
-0.302396
0.285704
-0.155265
-0.158717
-0.270749
0.256794
-0.128702
-0.134253
-0.243706
0.236182
-0.0855336
-0.10469
-0.229103
0.225962
-0.0229734
-0.0550732
-0.228381
0.23628
0.04899
0.0133638
0.0860783
0.140667
-0.14739
0.212186
-0.136946
0.229069
0.220126
0.151061
-0.15325
0.204336
0.201329
0.154441
-0.157732
0.230409
0.209527
0.150724
-0.150986
0.280531
0.25023
0.137777
-0.132851
0.325002
0.301639
-0.129662
0.149867
-0.252183
-0.268279
-0.107829
0.16123
-0.190984
-0.369999
-0.38021
0.132726
0.116067
-0.095963
0.34886
0.336544
0.0446457
-0.206193
-0.0483702
-0.252606
0.117794
-0.207199
-0.147298
-0.292314
0.159225
-0.219821
-0.221084
-0.330532
0.168996
-0.241155
-0.244976
-0.347984
0.134365
-0.115841
-0.286803
0.155777
-0.273595
-0.220932
-0.339641
-0.140347
-0.349
0.109137
-0.174402
-0.335945
-0.299795
0.281898
-0.0979433
-0.12526
0.140361
-0.301904
-0.314057
-0.110998
0.0952616
-0.128733
-0.315528
-0.323475
0.350212
0.0824008
-0.297916
0.0697028
0.363406
-0.379789
-0.0795795
-0.105738
0.120275
0.334323
0.327508
-0.0698399
-0.224492
0.395862
-0.419925
-0.0422105
-0.0693907
0.432133
-0.437896
0.0304178
-0.0122016
0.43104
-0.417487
0.0925092
0.0647595
0.400774
-0.381147
0.116486
0.103042
0.360343
-0.340448
0.107831
0.107765
0.321023
-0.304927
0.0813521
0.0885629
0.28997
-0.279324
0.0491789
0.0597336
0.269945
-0.264952
0.0136699
0.0278926
0.262355
-0.264751
-0.0224668
-0.00618266
0.271445
-0.28191
-0.0527635
-0.0370574
0.294903
-0.3088
-0.076707
-0.0618256
0.324605
-0.342948
-0.0929093
-0.0812675
0.363906
-0.386495
-0.0995306
-0.0925255
0.40798
-0.427187
-0.0847053
-0.0926125
0.439165
-0.437907
-0.0112037
-0.0545425
0.424303
-0.404122
0.0994642
0.0460892
0.38948
-0.371835
0.129404
0.12906
0.111103
-0.262028
0.244522
-0.0796843
-0.0879591
-0.232814
0.233445
-0.0389546
-0.0636979
-0.241454
0.253371
0.0352355
-0.00271055
-0.270834
0.291468
0.10225
0.0666305
-0.312318
0.335043
0.15916
0.124837
-0.356926
0.379775
0.197984
0.171969
-0.399978
0.418103
0.192408
0.192225
-0.429963
0.434917
0.105475
0.150818
-0.432018
0.421031
-0.037005
0.0345183
-0.404937
0.383626
-0.133691
-0.0906222
-0.361627
0.338801
-0.153745
-0.142526
-0.31904
0.300316
-0.136541
-0.138957
-0.28392
0.268258
-0.11304
-0.117857
-0.256844
0.249662
-0.0783511
-0.0932763
-0.243907
0.241843
-0.0209095
-0.0493183
-0.243424
0.250928
0.041486
0.0117828
0.0739702
0.150851
-0.158722
0.23694
0.25598
0.163194
-0.166252
0.215244
0.224598
0.169163
-0.170547
0.20572
0.20424
0.170029
-0.167036
0.227415
0.209009
0.160963
-0.150198
0.269766
0.244157
0.140762
-0.131847
0.316087
0.292202
0.324972
0.128932
-0.217331
-0.13935
-0.260554
0.175626
-0.223599
-0.218502
-0.294896
0.187748
-0.238573
-0.255397
-0.320111
0.176564
-0.261941
-0.24818
-0.320736
0.15903
-0.292264
-0.203468
-0.310576
0.133786
-0.114386
-0.333458
0.149286
-0.317404
-0.150112
-0.314566
-0.0812955
-0.279225
0.0626042
-0.112356
-0.284468
-0.323893
0.308073
-0.0985666
-0.119987
0.136356
-0.349827
-0.340076
-0.103803
0.0596722
-0.0761681
-0.262729
-0.29464
0.303667
0.0535775
-0.285832
0.050864
-0.118049
0.124257
0.328115
-0.10757
0.317029
0.367378
-0.38937
-0.0575876
0.358511
-0.0609728
-0.234909
0.406659
-0.426696
-0.0221733
-0.052102
0.43758
-0.439984
0.0328218
-0.00131745
0.431265
-0.417792
0.0790361
0.0560402
0.400949
-0.381006
0.0965433
0.0861988
0.361629
-0.341962
0.088164
0.0883879
0.324685
-0.308864
0.0655313
0.0712865
0.295693
-0.284735
0.0382205
0.0465628
0.276858
-0.272185
0.00899732
0.0200155
0.271798
-0.274957
-0.0193082
-0.00656999
0.28182
-0.289675
-0.0449094
-0.0301937
0.298941
-0.309202
-0.0664458
-0.0525594
0.322123
-0.338112
-0.0769204
-0.0683465
0.356091
-0.376788
-0.0788329
-0.0745466
0.398225
-0.419256
-0.063674
-0.0711762
0.432211
-0.431347
-0.012068
-0.0415876
0.414162
-0.388278
0.0735804
0.0289048
0.359631
-0.335383
0.105156
0.100412
0.317279
-0.311973
0.0770949
0.0929995
0.0613964
-0.292608
0.282326
-0.087661
-0.0955326
-0.269711
0.255382
-0.0653549
-0.0753446
-0.242938
0.240711
-0.0367273
-0.0512541
-0.248037
0.262327
0.020946
-0.0100374
-0.278638
0.297717
0.0831705
0.0503198
-0.317845
0.341503
0.135502
0.104709
-0.365539
0.39172
0.171802
0.147933
-0.415552
0.437553
0.170407
0.168394
-0.452315
0.459617
0.0981738
0.136055
-0.458041
0.446166
-0.0251302
0.0360941
-0.428167
0.404291
-0.109815
-0.0726233
-0.380679
0.355891
-0.128957
-0.118914
-0.334995
0.314693
-0.116238
-0.118061
-0.297663
0.281037
-0.0964142
-0.100828
-0.26906
0.260221
-0.069512
-0.0812996
-0.257291
0.256451
-0.0200696
-0.0463876
-0.261167
0.263405
0.0392473
0.00706663
0.0617095
0.148906
-0.152008
0.287017
0.316273
0.163343
-0.17417
0.247767
0.267315
0.177383
-0.178399
0.216261
0.227811
0.178727
-0.178102
0.205095
0.204567
0.17562
-0.170663
0.222458
0.206527
0.162887
-0.153588
0.260467
0.236381
0.144644
-0.133588
0.305031
0.283258
0.315642
0.192475
-0.23418
-0.20758
-0.271476
0.207311
-0.243163
-0.254327
-0.295965
0.196468
-0.258478
-0.25683
-0.311461
0.17903
-0.281941
-0.225372
-0.298832
0.168056
-0.311034
-0.173469
-0.287218
0.157277
-0.338324
-0.135575
-0.291347
0.122931
-0.106342
-0.356665
0.139436
-0.366332
-0.103716
-0.25692
-0.0542831
0.0466901
-0.278239
-0.0664667
-0.250545
0.00181726
0.249124
-0.250014
0.361951
-0.385313
-0.0342256
-0.32993
0.258767
0.0729801
-0.0289518
0.409893
-0.422418
-0.00964849
-0.0275216
0.433083
-0.432442
0.0321809
0.00934785
0.42641
-0.411855
0.0644812
0.0500082
0.396442
-0.376693
0.0767947
0.0707853
0.359092
-0.339353
0.0684251
0.0707869
0.323927
-0.307705
0.0493091
0.0558606
0.296589
-0.285741
0.0273723
0.0354464
0.280607
-0.276936
0.00532554
0.0148823
0.278334
-0.280685
-0.0169573
-0.00517175
0.28508
-0.290406
-0.0395833
-0.0257982
0.297597
-0.30811
-0.0559325
-0.0453686
0.320711
-0.336271
-0.0613607
-0.0557456
0.352516
-0.371323
-0.0600258
-0.0583021
0.389918
-0.407566
-0.0460263
-0.052581
0.419273
-0.421915
-0.00942597
-0.0298797
0.411449
-0.387782
0.049914
0.0184379
0.360297
-0.336482
0.0813413
0.0729269
0.32102
-0.312065
0.06814
0.077537
0.309459
-0.306351
0.0504695
0.0587905
0.298227
-0.287704
0.0361671
0.0427398
-0.314473
0.298259
-0.0823525
0.328539
-0.354279
-0.0806023
-0.0897369
-0.284532
0.274629
-0.0777585
-0.0818054
-0.26743
0.260361
-0.0582864
-0.0681451
-0.251554
0.246284
-0.0314576
-0.0424471
-0.249618
0.262181
0.00838245
-0.0133707
-0.279501
0.300674
0.061998
0.0329998
-0.322028
0.346179
0.111352
0.0833546
-0.370221
0.396654
0.145369
0.12389
-0.421102
0.444158
0.147351
0.143946
-0.460836
0.470478
0.0885323
0.119377
-0.469988
0.457619
-0.0127618
0.0365846
-0.438149
0.412893
-0.0845582
-0.0531533
-0.389016
0.364434
-0.104375
-0.0950373
-0.344509
0.325036
-0.0967658
-0.0981356
-0.309293
0.293108
-0.0802284
-0.085085
-0.280614
0.27124
-0.060138
-0.0688056
-0.26729
0.267899
-0.0206783
-0.0424383
-0.271504
0.282906
0.0278451
0.00346205
-0.291542
0.305504
0.0761318
0.0530729
0.100099
0.154222
-0.168917
0.301711
-0.143832
0.350708
0.326664
0.177059
-0.183918
0.254626
0.275457
0.184728
-0.183496
0.215028
0.228621
0.180758
-0.177378
0.201715
0.201829
0.172808
-0.166278
0.215928
0.201958
0.157562
-0.148547
0.251453
0.227665
0.134046
-0.11906
0.290045
0.268756
0.113806
-0.106544
0.320853
0.310388
0.130754
0.377137
0.341239
-0.101769
0.121557
-0.376453
-0.372748
-0.0832996
0.0349893
-0.043095
-0.270133
-0.279099
0.0263844
0.226494
-0.253363
-0.243022
-0.282782
-0.334019
0.101605
0.215852
-0.262547
-0.257749
-0.295047
0.388171
-0.32879
0.0135987
-0.0551356
0.0888936
0.343379
-0.0178497
0.350885
0.198039
-0.277487
-0.236227
-0.300606
0.18788
-0.301765
-0.196091
-0.27621
0.18017
-0.333928
-0.151944
-0.270849
0.165972
-0.36486
-0.128555
-0.266508
0.147026
-0.391801
-0.0897137
-0.233673
0.0995957
-0.0800714
-0.392273
0.120015
-0.396873
-0.0500362
-0.243604
0.0175785
-0.0235532
-0.264159
0.0119571
-0.273477
-0.266541
0.360938
-0.380152
-0.0150118
0.00319649
0.396063
-0.40983
0.00411819
-0.0116103
0.417636
-0.417944
0.0324885
0.017154
0.410039
-0.399255
0.0536971
0.0421037
0.3846
-0.367282
0.0594768
0.0561305
0.350607
-0.333131
0.0509489
0.0541119
0.319258
-0.306028
0.0360783
0.0419881
0.297705
-0.291006
0.0206728
0.0271239
0.288784
-0.288391
0.00493319
0.0126602
0.290161
-0.293676
-0.013443
-0.00340156
0.29832
-0.306055
-0.0318481
-0.0211536
0.314917
-0.326319
-0.0445301
-0.0365072
0.336489
-0.347131
-0.0507184
-0.0455757
0.356911
-0.368083
-0.0488546
-0.0485222
0.37928
-0.390843
-0.0344627
-0.0413839
0.4
-0.404298
-0.00512796
-0.0207233
0.399985
-0.385669
0.0355976
0.0141253
0.364266
-0.345702
0.062777
0.0515242
0.328891
-0.318006
0.0572544
0.0607268
0.308562
-0.300721
0.0426289
0.0493465
0.295966
-0.289955
0.0301561
0.0379844
0.283206
-0.280401
0.00915251
0.0196352
-0.352142
0.346693
-0.0751534
0.36504
-0.378917
-0.0661945
-0.0704013
-0.333074
0.324703
-0.0739815
-0.0761183
-0.310774
0.298508
-0.0654923
-0.0678764
-0.286369
0.276683
-0.0486009
-0.0560057
-0.268383
0.260944
-0.0240183
-0.034147
-0.258138
0.263239
0.00328138
-0.0105653
-0.27575
0.295613
0.0421357
0.0204889
-0.317939
0.343854
0.0854363
0.0610286
-0.369342
0.396308
0.118403
0.0984027
-0.420879
0.443658
0.124571
0.119375
-0.460267
0.469187
0.079612
0.102768
-0.467967
0.455083
0.000121398
0.0378053
-0.436068
0.411817
-0.060307
-0.0341378
-0.389347
0.366849
-0.0818775
-0.0725678
-0.348718
0.331712
-0.0797592
-0.0800042
-0.317878
0.303927
-0.0662769
-0.0712519
-0.29165
0.281974
-0.0504627
-0.0565282
-0.276253
0.277961
-0.0223868
-0.0367168
-0.281808
0.287416
0.0222373
-0.000384828
-0.294785
0.308639
0.0622779
0.0457036
0.0747194
0.140594
-0.149859
0.359973
0.389229
0.161572
-0.176476
0.316615
0.338377
0.182997
-0.18536
0.256988
0.281978
0.184297
-0.180853
0.211584
0.227559
0.175693
-0.169527
0.195549
0.196669
0.162686
-0.154499
0.207741
0.195117
0.144895
-0.133099
0.239657
0.21806
0.120002
-0.107335
0.277377
0.255659
0.0933712
-0.0861567
0.313638
0.296425
0.343975
-0.0676871
0.0875437
-0.412129
-0.390434
-0.05617
-0.00272443
0.00203446
-0.272787
-0.280846
-0.00227955
0.233792
-0.271303
-0.248616
-0.291915
0.371468
-0.358335
0.000465934
0.350831
0.00278737
0.215028
-0.279535
-0.240827
-0.290447
0.20617
-0.295777
-0.211486
-0.285211
0.203079
-0.324674
-0.174254
-0.2539
0.192906
-0.360862
-0.140894
-0.25851
0.176787
-0.394621
-0.11919
-0.237032
0.148758
-0.420544
-0.0618365
-0.221873
0.114161
-0.42349
-0.0264702
-0.240687
0.055947
-0.0464457
-0.399935
0.0738035
-0.429986
-0.00140625
-0.260718
-0.38584
0.376447
-0.037053
0.0253929
-0.384192
-0.0270403
0.0384286
-0.412971
-0.115246
0.415034
-0.0115709
0.0166245
-0.277841
-0.0119835
-0.280433
-0.281366
0.361535
-0.37432
-0.00222728
0.00639646
0.386345
-0.392176
0.0099487
0.000415264
0.394827
-0.394263
0.031925
0.0198051
0.389274
-0.380229
0.0446524
0.0371142
0.368136
-0.354084
0.0454252
0.0440376
0.340391
-0.327026
0.0375845
0.0404183
0.316474
-0.307557
0.0271615
0.0314352
0.301921
-0.297899
0.0166514
0.0214878
0.295863
-0.294945
0.0040155
0.0106241
0.294999
-0.296502
-0.0119398
-0.00334846
0.298907
-0.303717
-0.0270374
-0.0187486
0.309247
-0.316691
-0.0370856
-0.0309779
0.324363
-0.333906
-0.0411751
-0.0379042
0.343984
-0.355494
-0.0373449
-0.0384444
0.3663
-0.37629
-0.0244729
-0.0305772
0.38328
-0.386442
-0.0019664
-0.0137329
0.384183
-0.375457
0.0268716
0.0118661
0.361922
-0.345975
0.0468303
0.037989
0.33222
-0.320897
0.0459313
0.0469719
0.311059
-0.30378
0.03535
0.0395085
0.293999
-0.286467
0.0226247
0.0282032
0.281413
-0.281031
0.00877058
0.0145805
0.283521
-0.285934
-0.00956975
0.000210315
-0.366985
0.354887
-0.0540969
-0.0467077
-0.345273
0.332283
-0.0621629
-0.0607875
-0.319185
0.309078
-0.0638743
-0.0630202
-0.300794
0.292753
-0.0574515
-0.0595926
-0.284791
0.278976
-0.0427854
-0.048044
-0.274821
0.271463
-0.0206597
-0.0299925
-0.268845
0.269756
0.00237057
-0.00794777
-0.275853
0.289459
0.0285299
0.0143918
-0.308102
0.332423
0.0611154
0.0423859
-0.357467
0.384194
0.0916761
0.0733585
-0.407888
0.428918
0.103541
0.0956813
-0.443202
0.449706
0.0731078
0.0884843
-0.448211
0.438241
0.010092
0.0393001
-0.42345
0.403931
-0.0407884
-0.0193467
-0.385304
0.366133
-0.0627066
-0.0539406
-0.35007
0.335304
-0.0649929
-0.0639416
-0.323252
0.31221
-0.0552345
-0.0591999
-0.301364
0.292191
-0.0412896
-0.0456828
-0.285122
0.284482
-0.0217465
-0.0296482
-0.287585
0.297589
0.0122328
-0.00348712
-0.309888
0.326026
0.0461399
0.0334042
-0.328381
0.355909
0.0740774
0.0723651
0.0991962
0.125997
-0.143011
0.376987
0.399979
0.159139
-0.170088
0.327564
0.354506
0.176393
-0.177834
0.25843
0.288283
0.175117
-0.169611
0.206078
0.224842
0.162393
-0.154404
0.18756
0.18945
0.146351
-0.137719
0.199109
0.187064
0.12866
-0.117902
0.228899
0.209002
0.105291
-0.0937578
0.265844
0.243048
0.0761452
-0.0638919
0.301385
0.278812
0.0318453
-0.0265905
0.338124
0.311929
0.0384147
-0.0710288
0.383445
0.362709
0.228413
-0.284689
-0.237762
-0.294979
0.0192977
-0.0176676
-0.287564
0.0216514
-0.282787
0.355717
-0.386182
-0.0405645
-0.0892456
0.252298
0.220392
0.312788
-0.0463162
-0.284933
0.280556
-0.00519269
-0.285205
-0.017396
0.220733
-0.294099
-0.222568
-0.279365
0.223129
-0.315827
-0.195593
-0.263872
0.21896
-0.350728
-0.162265
-0.232529
0.208099
-0.392174
-0.133217
-0.244483
0.184043
-0.429906
-0.0954554
-0.203413
0.145252
-0.451636
-0.0254212
-0.222922
0.0994949
-0.449181
0.00706406
-0.249157
-0.0144798
-0.385303
0.0155906
-0.373297
0.371423
-0.0126058
0.000517481
-0.370957
-0.00285661
-0.384777
-8.28292e-06
0.0485448
-0.440102
0.0199449
-0.264038
-0.416618
0.0192379
0.0312208
-0.0640371
0.285114
-0.384626
0.0808417
-0.0577297
0.309343
-0.290715
0.368972
-0.367806
-0.00070026
-0.0144219
0.366134
-0.366291
-0.00207056
0.00472443
0.371565
-0.373264
0.0116473
0.0056894
0.373833
-0.3708
0.0288919
0.0203742
0.366724
-0.359377
0.0373062
0.0330383
0.351195
-0.341434
0.0356643
0.0358548
0.332303
-0.323706
0.0289873
0.0312876
0.316728
-0.311234
0.0216677
0.0244574
0.307035
-0.304067
0.0136829
0.0172885
0.301648
-0.300488
0.0028558
0.00820543
0.299977
-0.301498
-0.0104186
-0.00385985
0.304127
-0.308902
-0.0222621
-0.0161197
0.314281
-0.321273
-0.0300933
-0.0255991
0.328536
-0.336905
-0.0328056
-0.0306417
0.344802
-0.35248
-0.0296668
-0.0305482
0.358841
-0.364362
-0.0189521
-0.0242154
0.368201
-0.369797
-0.000369903
-0.00989459
0.367983
-0.361991
0.0208792
0.010052
0.352673
-0.341161
0.0353183
0.028671
0.330146
-0.320213
0.0359976
0.0359575
0.312233
-0.305108
0.0282247
0.0315291
0.298994
-0.292939
0.0165699
0.0220895
0.287155
-0.282519
0.00413443
0.0087967
-0.00175288
-0.369191
0.364032
-0.0318938
-0.0248087
-0.359173
0.352286
-0.0472105
-0.0418486
-0.343579
0.335824
-0.0544075
-0.0520807
-0.3268
0.316833
-0.0539074
-0.0539967
-0.307889
0.299162
-0.0487253
-0.0506476
-0.291767
0.285571
-0.0365893
-0.0406489
-0.281548
0.279371
-0.0184823
-0.0259696
-0.278506
0.279127
0.00174961
-0.00708266
-0.282026
0.289425
0.0211312
0.0114923
-0.301201
0.318473
0.0438433
0.0306095
-0.337882
0.359523
0.0700345
0.0539501
-0.379234
0.397322
0.0854535
0.0759706
-0.410756
0.419398
0.0644651
0.0750502
-0.421725
0.417202
0.0146145
0.0369739
-0.407586
0.393299
-0.0265015
-0.00973079
-0.378388
0.362445
-0.0467634
-0.0390292
-0.348268
0.334944
-0.0516692
-0.0497649
-0.324171
0.315219
-0.0462824
-0.0484273
-0.307122
0.300146
-0.0343133
-0.0375855
-0.29347
0.291194
-0.0194701
-0.0229729
-0.29178
0.299376
0.00463673
-0.0040734
-0.30899
0.318487
0.0366427
0.0237902
-0.337531
0.352659
0.0589489
0.0533215
0.0672295
0.0964077
-0.10748
0.426106
0.446841
0.118556
-0.133896
0.392327
0.411054
0.145405
-0.152952
0.335111
0.366015
0.15651
-0.156186
0.258106
0.291841
0.152483
-0.146026
0.19962
0.221139
0.138204
-0.12976
0.179115
0.181629
0.121457
-0.112904
0.190556
0.178762
0.104444
-0.0956478
0.220103
0.200542
0.0864374
-0.0765791
0.255986
0.233837
0.0665259
-0.0535218
0.288381
0.268759
0.0377297
-0.0111108
0.311505
0.296137
0.287561
0.0250946
-0.281284
0.290317
-0.0352589
-0.0187689
0.0224801
-0.291276
-0.293718
-0.0102555
0.228043
-0.291999
-0.228964
-0.288583
0.235822
-0.306791
-0.214574
-0.260384
0.240218
-0.337085
-0.188397
-0.23774
0.0286156
-0.288922
0.236204
-0.378834
-0.152609
-0.213138
0.220265
-0.428395
-0.112412
-0.227526
0.183469
-0.468123
-0.0524271
-0.176407
0.00593216
-0.366198
-0.0106917
-0.357332
0.358734
0.00453025
-0.0125073
-0.354315
0.00948999
-0.36177
-0.016935
0.130949
-0.483089
0.0157623
-0.23162
-0.381254
-0.0142154
0.0719529
-0.472589
0.0322996
-0.261512
-0.411791
-0.00483536
0.0207334
-0.441597
0.0396219
-0.278566
0.0236221
-0.0410945
0.30779
0.286368
-0.440421
0.275709
0.0902244
-0.10012
0.40186
-0.020249
0.02487
-0.295897
-0.301302
-0.0126655
-0.0217125
0.398305
-0.291636
0.340466
-0.36628
-0.0147506
-0.317826
-0.0315226
0.31409
-0.0236763
0.365295
-0.361513
-0.00448288
-0.015407
0.359965
-0.361005
-0.00103073
0.00317667
0.361117
-0.361401
0.0119306
0.00580222
0.359635
-0.355745
0.0250019
0.0186085
0.350802
-0.344815
0.031319
0.0280952
0.338677
-0.332481
0.0294675
0.0297175
0.326696
-0.321564
0.0238549
0.0255033
0.316984
-0.313152
0.0178357
0.0198771
0.309699
-0.306924
0.0109083
0.0138354
0.304711
-0.303555
0.00170029
0.00599204
0.303556
-0.305039
-0.00893532
-0.00385911
0.30754
-0.311414
-0.0183876
-0.0136191
0.315808
-0.321082
-0.0248199
-0.021205
0.326388
-0.332248
-0.0269456
-0.0253356
0.338045
-0.344268
-0.0234433
-0.024751
0.349943
-0.354813
-0.0140819
-0.0185409
0.357627
-0.358046
4.95449e-05
-0.00708106
0.35587
-0.350913
0.0159223
0.00787595
0.343919
-0.335417
0.026817
0.0216767
0.326991
-0.318968
0.0279743
0.0275309
0.312213
-0.306224
0.0222355
0.0247744
0.301326
-0.29735
0.0125937
0.0171919
0.294899
-0.292196
0.00143099
0.00634589
0.290159
-0.28751
-0.0078413
-0.00378974
0.291571
-0.293564
-0.00826247
-0.0133357
-0.0241404
-0.297411
0.0202502
0.291763
-0.298982
-0.0169215
-0.0144662
-0.361495
0.363208
-0.0143181
-0.00561792
-0.362115
0.359433
-0.0292122
-0.0237161
-0.354185
0.34603
-0.0390557
-0.0366001
-0.338945
0.330713
-0.0461755
-0.0449957
-0.32292
0.314579
-0.0455665
-0.0462032
-0.308074
0.301434
-0.042086
-0.0441423
-0.29577
0.290677
-0.0314968
-0.0349846
-0.287214
0.285218
-0.0164857
-0.0225066
-0.284865
0.285891
0.000724017
-0.00672991
-0.288222
0.292506
0.0168472
0.00916071
-0.298991
0.308875
0.0339588
0.0241253
-0.320868
0.335811
0.0550912
0.0419573
-0.351133
0.367728
0.0688594
0.0606483
-0.381914
0.393186
0.053193
0.0608641
-0.398248
0.397761
0.0151017
0.0319118
-0.392118
0.382886
-0.01727
-0.00408757
-0.371861
0.359568
-0.0344699
-0.0280042
-0.3477
0.335812
-0.0397809
-0.0378974
-0.32593
0.317065
-0.0374174
-0.0385458
-0.310853
0.304838
-0.0282978
-0.0313734
-0.300614
0.29708
-0.0159354
-0.0187495
-0.296715
0.300337
0.00101412
-0.00370829
-0.308151
0.320196
0.0245974
0.0159762
-0.335617
0.349512
0.0450537
0.0379011
-0.362937
0.390475
0.0533032
0.0538049
0.0547887
0.0716466
-0.0758759
0.430336
0.418368
0.0909258
-0.103772
0.405173
0.426104
0.112485
-0.119264
0.341891
0.374728
0.122528
-0.12225
0.257827
0.295105
0.118625
-0.11244