/*--------------------------------*- C++ -*----------------------------------*\
  =========                 |
  \\      /  F ield         | OpenFOAM: The Open Source CFD Toolbox
   \\    /   O peration     | Website:  https://openfoam.org
    \\  /    A nd           | Version:  10
     \\/     M anipulation  |
\*---------------------------------------------------------------------------*/
FoamFile
{
    format      ascii;
    class       volVectorField;
    location    "2.5";
    object      U;
}
// * * * * * * * * * * * * * * * * * * * * * * * * * * * * * * * * * * * * * //

dimensions      [0 1 -1 0 0 0 0];

internalField   nonuniform List<vector> 
28942
(
(-0.325218 0.301614 -2.367e-19)
(-0.296759 0.427362 -5.04494e-20)
(1.60879 -1.15204 1.90076e-19)
(2.53082 0.0469912 -2.79571e-19)
(2.49332 0.0769153 9.37059e-20)
(1.59466 0.0827546 0)
(1.80959 0.0961972 -8.76353e-21)
(1.97245 0.0809617 9.99699e-21)
(3.06498 -0.444998 4.483e-20)
(3.03921 -0.407329 -1.12351e-19)
(-0.0650792 -1.08826 -8.17756e-19)
(0.0281101 -0.997547 4.0546e-19)
(-0.26085 -0.90136 0)
(-0.336448 -0.979887 0)
(2.54911 -0.0888113 4.73273e-21)
(2.56398 -0.0857783 5.70563e-22)
(2.32514 0.248683 1.69077e-19)
(2.28655 0.201467 2.67493e-19)
(1.08212 -1.77283 3.3799e-19)
(1.69368 -1.93577 -1.01925e-19)
(2.45936 0.589478 2.20555e-19)
(2.48669 0.560998 0)
(-0.236014 0.205533 6.38969e-19)
(-0.272085 -0.0431202 3.47584e-19)
(1.96089 -0.866345 7.03426e-19)
(2.72823 -1.08143 -6.3621e-19)
(0.823803 -1.39012 2.62886e-18)
(0.802705 -1.09876 -1.07249e-18)
(2.05861 -1.53844 1.22353e-20)
(1.50472 -1.03387 -2.88098e-21)
(1.46889 -0.0513114 0)
(2.00283 -0.0813426 1.96163e-20)
(2.31838 -0.138727 1.43684e-20)
(2.4766 -0.0951455 2.67663e-20)
(1.32382 1.6805 1.14253e-19)
(0.989703 1.79343 -1.19608e-19)
(1.54942 1.67138 -7.77171e-19)
(1.17041 1.63923 -2.87232e-19)
(0.715647 0.0473678 1.12073e-20)
(0.548061 1.63918 -4.09363e-19)
(2.05393 -0.0387263 0)
(2.37642 -0.088091 0)
(2.75902 -0.530766 -1.00954e-23)
(2.74 -0.525924 4.50139e-21)
(2.76226 -0.509608 -4.06076e-22)
(2.32161 0.0796132 -5.85215e-21)
(2.33555 0.0937569 9.4331e-21)
(2.5216 0.0728245 3.93607e-20)
(2.49526 0.0792335 -1.07524e-20)
(2.34517 0.0821252 3.03449e-20)
(2.35092 0.114424 -1.74624e-20)
(2.89098 -0.0410222 8.85341e-20)
(2.8879 -0.0627939 7.30312e-20)
(3.04551 -0.483787 -6.09763e-22)
(3.01662 -0.446931 -1.5882e-20)
(3.28624 -0.896612 5.79392e-19)
(3.76367 -1.0319 3.59734e-19)
(-0.245158 -0.417931 -4.34125e-19)
(-0.228359 -0.666306 0)
(-0.168661 -0.333763 1.51118e-19)
(-0.171533 -0.211141 3.80848e-19)
(-0.0662547 -0.0616467 -3.11815e-19)
(-0.0941426 -0.118365 -3.32278e-19)
(3.16055 -1.42536 0)
(3.57665 -1.41528 9.93309e-20)
(3.22492 -1.21323 -4.37147e-20)
(3.12055 -1.11884 0)
(2.31086 -0.571867 -1.53315e-19)
(2.36169 -0.622132 -9.8982e-20)
(-0.170439 0.133228 7.83528e-19)
(-0.192672 0.153195 -2.42769e-19)
(-0.268012 0.256351 5.99279e-19)
(2.35483 -0.739618 0)
(2.33466 -0.67988 5.27668e-19)
(2.1771 -1.04214 1.38397e-19)
(3.4695 1.03618 3.01508e-19)
(3.59518 1.04453 -3.09942e-19)
(3.54658 0.891576 -2.42963e-19)
(0.507424 -0.278112 9.64644e-21)
(0.772782 -0.471285 -2.04502e-19)
(2.5725 -1.71598 -3.53643e-20)
(2.25335 -1.55207 7.33804e-20)
(-0.189027 0.0481691 1.12701e-18)
(-0.346168 0.0402096 -4.33614e-19)
(3.01471 1.42804 -1.87191e-20)
(2.71602 1.2197 -1.11851e-19)
(2.60888 1.57268 8.34766e-20)
(2.45801 1.67425 -3.12612e-19)
(2.45122 1.72561 1.99676e-19)
(2.04906 1.48844 -6.82636e-21)
(2.1243 1.64539 -6.92857e-20)
(2.15632 1.73101 1.2497e-19)
(-0.960765 -0.939612 -1.30251e-19)
(-0.44886 -1.14857 -3.2855e-20)
(-0.721061 -1.09614 6.54024e-20)
(-1.17901 -1.12698 -8.30061e-19)
(-1.27689 -1.11486 1.09478e-18)
(1.11514 1.16759 -3.83796e-19)
(1.2967 1.35648 8.09263e-20)
(-0.336952 -0.0123774 0)
(2.51619 -0.00137182 0)
(2.42984 0.0769637 -2.26889e-19)
(2.40329 0.176276 1.85264e-19)
(2.60994 0.148013 0)
(3.63652 0.261194 0)
(3.65272 0.255826 0)
(3.69215 0.294223 7.44326e-19)
(2.68799 0.45749 -2.84998e-20)
(2.66219 0.481932 3.1947e-19)
(2.68238 0.439699 1.66491e-19)
(-0.312714 -0.581372 8.97837e-19)
(-0.354999 -0.639475 -1.0051e-18)
(-0.319798 0.342124 -4.18348e-19)
(-0.0333886 0.653898 4.30838e-19)
(-0.400545 0.743611 8.57092e-19)
(0.447072 0.642889 4.68055e-19)
(0.96799 0.499126 1.1454e-18)
(0.789292 1.13151 8.41778e-20)
(0.364928 1.06452 -2.70817e-18)
(3.1977 1.21386 4.78559e-21)
(2.7975 1.13229 1.71348e-19)
(2.76867 1.0703 -2.93556e-19)
(2.41104 -1.89138 4.86663e-20)
(1.76069 -1.31701 -1.10584e-20)
(0.518247 0.0421009 -1.43043e-18)
(0.576092 -0.129713 0)
(0.891367 -0.200817 7.94912e-19)
(1.64255 -1.29114 5.85444e-20)
(2.03869 -1.75021 -1.24518e-19)
(2.50994 0.0684983 -3.70865e-20)
(2.53175 0.0642416 1.86152e-20)
(2.44828 0.0672995 1.2049e-21)
(1.3216 -1.91393 0)
(1.42147 -1.3859 0)
(2.57881 -0.165927 -4.52725e-20)
(2.53618 -0.149343 2.49573e-19)
(2.5428 -0.0635527 0)
(2.07283 -1.8551 0)
(2.08965 -1.58586 -1.70477e-19)
(2.10721 1.7723 4.81259e-19)
(-0.667999 -0.937817 6.66861e-19)
(-0.495205 -0.821985 -4.98569e-19)
(1.92379 -1.75516 -6.63092e-20)
(2.79236 -0.506074 -3.12835e-20)
(2.7647 -0.485974 1.4692e-21)
(3.66742 -0.771193 -1.17326e-19)
(3.75802 -0.786785 1.57896e-19)
(3.77089 -0.706325 5.87221e-19)
(-0.394603 -0.748783 2.23398e-19)
(2.37711 1.78566 6.64834e-19)
(2.45991 1.61237 -1.70071e-19)
(2.79005 1.91428 1.21929e-22)
(2.12961 -0.0551661 -4.80761e-21)
(2.12273 -0.0585224 -4.29337e-20)
(2.34556 -0.0693438 -3.54843e-21)
(2.2817 -0.0806448 1.28469e-20)
(2.07414 1.68658 8.29338e-20)
(1.2806 1.4686 0)
(-0.447901 -0.053922 4.03377e-19)
(-0.491427 0.339656 -4.3927e-19)
(-1.07048 0.217547 4.51624e-19)
(1.24136 0.40746 -8.27612e-19)
(2.48016 0.918253 -3.9217e-19)
(2.43761 -0.0848705 4.10398e-21)
(3.22369 -1.60213 1.05839e-19)
(3.14723 -1.6029 2.79857e-19)
(2.42695 0.642244 5.22223e-19)
(2.29631 0.728493 4.78519e-20)
(2.326 0.449433 2.9689e-19)
(2.37553 0.456902 -2.13361e-19)
(2.47615 0.654524 0)
(2.84355 0.0972468 -1.58202e-20)
(2.85675 0.0897678 -3.75319e-20)
(2.93211 -0.293271 3.5859e-20)
(2.96504 -0.309403 -6.91795e-20)
(2.72279 0.436718 2.89364e-20)
(2.75419 0.461283 -7.90299e-20)
(2.72109 0.45956 0)
(2.69153 0.432146 2.08988e-20)
(2.71648 0.489035 0)
(2.67328 0.606915 -8.39791e-20)
(2.67946 0.660194 -5.10408e-20)
(2.64174 0.702856 -1.04419e-19)
(2.67517 0.694196 0)
(2.71261 0.715351 3.10926e-19)
(2.66194 0.755235 1.66839e-20)
(2.59874 0.739398 -6.53122e-20)
(2.46034 0.848109 -2.98922e-19)
(2.46486 0.697272 -5.14599e-20)
(-0.504507 0.412447 5.06195e-19)
(0.164579 0.413083 -1.96279e-19)
(-0.400049 0.857751 -6.33045e-19)
(2.42063 0.0737127 3.44358e-20)
(2.55256 0.0685476 0)
(-0.277838 0.11583 3.87182e-19)
(-0.309567 0.183303 2.19223e-19)
(2.50472 0.0850099 -4.86363e-21)
(2.54954 0.0793189 -1.44363e-21)
(2.55763 0.0782843 0)
(2.48974 0.0825434 -2.99156e-21)
(2.65237 0.00761319 -1.94431e-20)
(2.63676 0.0059225 9.25689e-20)
(2.64355 0.00660227 4.1919e-20)
(-0.425354 -0.637394 3.9678e-19)
(-0.131226 -0.196202 -5.09903e-19)
(-0.15922 -0.288439 4.9841e-19)
(-0.131089 -0.0620092 0)
(-0.0506584 -0.0170698 6.3169e-19)
(-0.0297417 0.00291398 -5.61695e-19)
(-0.372024 -0.0583281 -5.48931e-19)
(-0.337032 -0.140445 -5.28099e-19)
(-0.206645 -0.084435 0)
(0.152294 0.816213 0)
(0.0792485 0.545806 0)
(0.0113189 0.329082 0)
(3.60275 0.228851 -1.07567e-19)
(3.5518 0.17631 0)
(3.60806 0.20068 1.15588e-19)
(2.31736 -0.237088 1.07864e-18)
(2.35271 -0.246273 -3.94918e-19)
(2.34898 -0.201162 0)
(2.57239 -0.000719772 -5.77401e-22)
(2.57445 -0.00139936 1.15544e-21)
(2.57041 0.000395663 -4.07217e-22)
(2.57657 -0.00183122 0)
(2.57863 -0.00199295 -6.94639e-22)
(2.5805 -0.00190312 0)
(2.58253 -0.00392748 0)
(2.58227 -0.00182151 2.42703e-21)
(2.58406 -0.00369173 0)
(2.58097 -0.00411932 -6.99526e-22)
(2.57912 -0.00396916 0)
(2.57729 -0.0035762 3.87679e-22)
(2.57547 -0.0027935 -5.81999e-22)
(2.57381 -0.00158255 4.06578e-22)
(2.58385 -0.00168951 -2.32163e-21)
(2.58542 -0.00334108 -7.95528e-23)
(2.56865 0.00170867 1.04645e-25)
(2.57211 0.000148963 -6.44103e-22)
(2.56716 0.0034206 3.53622e-21)
(2.58516 -0.00141809 2.09449e-24)
(2.58657 -0.00284596 -7.57273e-23)
(2.57096 0.00218374 1.29851e-21)
(2.58629 -0.00112756 2.03868e-21)
(2.58723 -0.000855105 -2.03698e-21)
(2.58751 -0.00233547 1.56402e-22)
(2.58826 -0.00186167 2.94827e-22)
(2.56614 0.00542718 -3.44153e-21)
(2.5702 0.00456544 -8.61873e-22)
(2.58799 -0.000619653 0)
(2.58884 -0.00144012 -2.90775e-22)
(2.56569 0.00744732 4.42646e-25)
(2.56983 0.00726281 -4.43797e-25)
(2.58858 -0.000430068 0)
(2.58929 -0.00108625 0)
(2.56575 0.00975529 0)
(2.57013 0.0100851 0)
(2.58901 -0.000284187 0)
(2.58962 -0.00079136 1.30279e-22)
(2.5664 0.0119146 -1.99454e-21)
(2.57095 0.0129251 -4.79455e-25)
(2.58933 -0.000175146 6.74879e-24)
(2.58986 -0.000554843 -1.39038e-22)
(2.56757 0.0140899 2.004e-21)
(2.5724 0.0155865 0)
(2.58955 -9.88148e-05 0)
(2.59 -0.000371138 0)
(2.56924 0.015963 -1.32522e-22)
(2.57432 0.0179227 2.30585e-21)
(2.5897 -6.29536e-05 7.88339e-22)
(2.59007 -0.000238689 0)
(2.57132 0.0176011 -4.90113e-23)
(2.57671 0.0198172 -2.18449e-21)
(2.58977 -5.37095e-05 -1.17035e-21)
(2.59008 -0.00014079 -3.35558e-22)
(2.57368 0.0188985 2.30001e-21)
(2.57928 0.0211953 0)
(2.5898 -7.69134e-05 3.79734e-22)
(2.59006 -8.49756e-05 2.23026e-22)
(2.57612 0.0197511 -1.21838e-21)
(2.58215 0.0219886 2.46735e-21)
(2.58977 -0.000113706 -1.46537e-21)
(2.58999 -4.66374e-05 1.65003e-21)
(2.57858 0.0202867 1.29788e-21)
(2.58476 0.0222463 4.17531e-23)
(2.58974 -0.000182517 0)
(2.58991 -2.51301e-05 7.6766e-22)
(2.58066 0.0203695 -2.70066e-21)
(2.58745 0.0218756 5.39539e-21)
(2.5897 -0.000235159 0)
(2.58983 -4.70019e-05 0)
(2.57803 0.0183232 -1.28433e-21)
(2.5802 0.0188794 -5.41535e-21)
(2.58244 0.0200236 0)
(2.58979 0.0210149 -2.8371e-21)
(2.57314 0.0163859 -7.58224e-22)
(2.57558 0.0174534 1.5095e-22)
(2.56882 0.0137492 0)
(2.57081 0.0151711 -2.36974e-21)
(2.56605 0.0106146 -4.17916e-24)
(2.5672 0.0122693 0)
(2.56536 0.00735434 0)
(2.56542 0.00905626 0)
(2.56686 0.00436099 0)
(2.56586 0.00592058 0)
(2.56989 0.00214594 7.93967e-22)
(2.56822 0.00317854 2.07859e-22)
(2.57392 0.000760195 -7.46511e-22)
(2.57187 0.00129834 -8.01225e-22)
(2.57804 3.07828e-05 1.24342e-21)
(2.57597 0.000262485 1.62907e-21)
(2.58176 -0.000116424 0)
(2.57998 -5.03923e-05 0)
(2.58467 -0.000116556 -4.96565e-24)
(2.58332 -0.000131203 0)
(2.58679 -3.41293e-05 0)
(2.58583 -8.02219e-05 0)
(2.58818 3.11133e-05 0)
(2.58757 5.38569e-06 0)
(2.58901 2.02868e-05 0)
(2.58866 3.76331e-05 0)
(2.58944 -6.2272e-05 0)
(2.58927 -1.15655e-05 0)
(2.5896 -0.000192952 0)
(2.58955 -0.00012013 0)
(2.58961 -0.000343428 -5.79694e-22)
(2.58962 -0.000266073 0)
(2.58957 -0.000405844 -1.8127e-22)
(2.58963 -0.000262193 1.75434e-22)
(2.58973 -7.1467e-05 -1.73964e-22)
(2.59021 5.88981e-05 0)
(2.58995 0.000125891 -7.23014e-22)
(2.59008 0.000106391 -3.86491e-22)
(2.59038 -0.000125056 1.13192e-22)
(2.59031 -1.33178e-05 -4.32317e-22)
(2.59044 -0.000434085 3.83369e-24)
(2.59043 -0.000255546 0)
(2.59031 -0.000980269 0)
(2.59041 -0.000669353 0)
(2.5899 -0.00186097 0)
(2.59015 -0.00137837 0)
(2.5891 -0.00305308 0)
(2.58956 -0.00242311 5.66641e-28)
(2.58774 -0.00441396 5.13633e-24)
(2.5885 -0.00372853 0)
(2.58578 -0.00552579 0)
(2.58684 -0.00506239 0)
(2.58337 -0.00573599 0)
(2.58467 -0.00580696 0)
(2.58079 -0.00450455 0)
(2.58204 -0.00533946 -3.86823e-22)
(2.57841 -0.00116481 1.14746e-22)
(2.57968 -0.00317072 -5.24767e-22)
(2.57756 0.00405701 0)
(2.57793 0.00115683 -4.43275e-22)
(2.57823 0.0106619 0)
(2.57763 0.00726122 0)
(2.58115 0.0172702 0)
(2.5794 0.0140667 0)
(2.58614 0.0223247 0)
(2.58342 0.020078 0)
(2.59235 0.0246745 -6.27609e-22)
(2.58908 0.0238648 0)
(2.59874 0.0240296 -2.75622e-21)
(2.5954 0.0247029 -6.50131e-22)
(2.6018 0.0226477 2.90055e-21)
(2.58202 0.0191103 5.4604e-21)
(2.58952 -0.000454866 3.47128e-22)
(2.58982 0.000118418 -6.61795e-22)
(2.59175 0.0195364 0)
(2.60464 0.0206257 0)
(2.58331 0.0189637 0)
(2.58362 0.0192263 0)
(2.58271 0.0153847 0)
(2.58848 0.0166883 1.31896e-21)
(2.58566 0.0161008 1.29541e-21)
(2.5768 0.0135802 1.55222e-21)
(2.5797 0.0144814 -3.14252e-22)
(2.57184 0.0116559 4.48878e-24)
(2.57411 0.0126298 0)
(2.56872 0.00965514 0)
(2.57002 0.0106835 0)
(2.56784 0.00758782 0)
(2.568 0.00864117 0)
(2.56906 0.00564556 0)
(2.56823 0.00659694 0)
(2.57183 0.00397821 0)
(2.57032 0.00481333 0)
(2.5755 0.00279885 -3.08683e-24)
(2.57359 0.00332119 8.16374e-22)
(2.57919 0.0019255 -2.81073e-24)
(2.57736 0.00225862 -1.51587e-21)
(2.58252 0.00143192 0)
(2.58093 0.00165707 0)
(2.58511 0.00109026 2.47753e-24)
(2.58392 0.00124915 0)
(2.58698 0.000830576 0)
(2.58613 0.000953956 0)
(2.58821 0.000601761 0)
(2.58766 0.000716211 0)
(2.58896 0.000372619 0)
(2.58864 0.000488122 0)
(2.58937 0.000140172 0)
(2.5892 0.000256269 0)
(2.58954 -9.56791e-05 0)
(2.58948 2.1247e-05 0)
(2.58958 -0.000331067 3.97642e-22)
(2.58958 -0.000217683 0)
(2.58953 -0.000288882 0)
(2.58945 -0.00045588 3.22699e-22)
(2.5895 -0.000515168 0)
(2.58955 -0.000433348 3.78324e-22)
(2.59009 0.000257476 7.6351e-22)
(2.58993 0.000278667 1.80703e-22)
(2.58969 0.000112433 1.39671e-21)
(2.58962 -9.41959e-05 0)
(2.59042 0.000149695 0)
(2.59026 0.000212096 -1.15595e-21)
(2.59069 -4.43723e-05 3.54584e-24)
(2.59056 6.86049e-05 4.35079e-22)
(2.59089 -0.00039872 -3.83368e-24)
(2.59079 -0.000191832 0)
(2.59103 -0.0010201 0)
(2.59097 -0.000667177 0)
(2.59104 -0.00200937 0)
(2.59105 -0.00146371 0)
(2.59086 -0.00336904 0)
(2.59098 -0.00264834 -5.66639e-28)
(2.5904 -0.00493356 -1.02475e-23)
(2.59067 -0.00414263 0)
(2.5896 -0.00631818 0)
(2.59004 -0.0056861 0)
(2.58856 -0.00675878 1.92205e-22)
(2.58911 -0.00670646 0)
(2.58745 -0.0054656 0)
(2.58795 -0.00636183 -1.91354e-22)
(2.58661 -0.00184506 4.37702e-22)
(2.58701 -0.00396696 4.23987e-22)
(2.58679 0.00418774 0)
(2.58667 0.000875154 0)
(2.58843 0.0118274 0)
(2.58744 0.00787245 0)
(2.59196 0.0195354 0)
(2.58997 0.0157803 0)
(2.59734 0.0255047 0)
(2.59446 0.0228408 0)
(2.60399 0.0282946 1.00734e-23)
(2.60057 0.027348 0)
(2.61102 0.0273646 -1.08881e-23)
(2.6075 0.0282734 0)
(2.61796 0.0232678 -3.00779e-21)
(2.61457 0.0256765 3.00522e-21)
(2.59103 0.0170422 2.88547e-21)
(2.60734 0.0181094 0)
(2.6214 0.0203223 -6.55308e-21)
(2.59308 0.0175529 0)
(2.58944 -0.000554048 0)
(2.58979 0.000291049 -1.71138e-22)
(2.58401 0.0183935 7.72754e-21)
(2.59338 0.0171636 3.13671e-21)
(2.60945 0.0151014 1.71212e-21)
(2.62439 0.0169292 8.3124e-21)
(2.58397 0.0179345 0)
(2.58959 -0.000531487 1.44048e-21)
(2.58952 -0.000605263 -7.0336e-22)
(2.58957 0.000107659 -3.3119e-22)
(2.58964 0.000299834 1.62996e-21)
(2.60881 0.014087 1.05655e-20)
(2.59573 0.0170296 -6.08366e-21)
(2.61897 0.0145622 -2.81602e-20)
(2.61375 0.0144399 -6.11486e-21)
(2.59972 0.0129807 2.69335e-21)
(2.60423 0.0135708 -8.79995e-21)
(2.59101 0.0117516 -2.67322e-21)
(2.59531 0.0123446 -2.14272e-21)
(2.58334 0.0105906 -6.17138e-22)
(2.58702 0.0111173 -6.32908e-22)
(2.57739 0.00964175 -4.48878e-24)
(2.5801 0.0100995 0)
(2.57375 0.00875056 0)
(2.57527 0.00920722 0)
(2.57252 0.00775955 0)
(2.57285 0.0082728 0)
(2.57334 0.00668388 0)
(2.57271 0.00722544 0)
(2.5756 0.00556392 0)
(2.57434 0.00611584 0)
(2.57858 0.00449227 0)
(2.57704 0.00501364 0)
(2.58162 0.00356327 1.39944e-26)
(2.58013 0.00401954 0)
(2.58429 0.00277089 0)
(2.58302 0.00314451 0)
(2.58633 0.00210961 2.45829e-24)
(2.58539 0.00242955 0)
(2.58776 0.00153298 0)
(2.58712 0.00181131 0)
(2.5887 0.0010398 0)
(2.58829 0.00127653 0)
(2.58925 0.000620492 0)
(2.58901 0.000821779 0)
(2.58954 0.000259148 0)
(2.58942 0.000431368 0)
(2.58966 -5.7753e-05 0)
(2.58962 9.25003e-05 0)
(2.58968 -0.000332278 2.02587e-22)
(2.58968 -0.000206389 -1.02714e-22)
(2.58965 -0.000451965 -7.42964e-22)
(2.58942 -0.000298042 -1.57007e-22)
(2.58938 -0.000557793 6.46441e-22)
(2.58937 -0.000457843 -5.09293e-22)
(2.5895 -8.57514e-05 0)
(2.59025 0.000368091 -5.5173e-22)
(2.5899 0.000445847 -1.53393e-21)
(2.59007 0.000417028 1.27079e-21)
(2.59063 0.000272211 0)
(2.59044 0.000324477 0)
(2.59097 9.48382e-05 -1.60189e-26)
(2.5908 0.000199742 0)
(2.59132 -0.000261301 0)
(2.59114 -5.40614e-05 0)
(2.59169 -0.000902346 -4.09277e-24)
(2.5915 -0.000539068 0)
(2.5921 -0.00192181 0)
(2.59189 -0.00136058 0)
(2.59253 -0.00333237 0)
(2.59231 -0.00258298 0)
(2.59296 -0.00496913 5.11311e-24)
(2.59275 -0.00414187 0)
(2.59338 -0.00640885 5.46723e-24)
(2.59317 -0.00575177 0)
(2.59382 -0.0069084 0)
(2.59359 -0.00683224 0)
(2.59438 -0.005556 0)
(2.59407 -0.00652097 0)
(2.59524 -0.00168026 0)
(2.59475 -0.00395198 0)
(2.59672 0.00486425 0)
(2.59589 0.00129373 0)
(2.59918 0.0132592 -7.88218e-24)
(2.59782 0.00891912 0)
(2.60291 0.0218381 0)
(2.60089 0.0176539 0)
(2.60797 0.0285763 0)
(2.60529 0.0255576 0)
(2.61408 0.0318515 -9.80829e-26)
(2.61092 0.0307127 0)
(2.62076 0.0310559 1.23048e-25)
(2.61738 0.0319471 0)
(2.62765 0.0267241 1.18819e-23)
(2.62418 0.0292518 0)
(2.63449 0.0200067 -6.86321e-21)
(2.63109 0.023601 1.58965e-21)
(2.62713 0.0131487 1.76802e-21)
(2.63774 0.0160528 3.37007e-21)
(2.5842 0.0176624 -2.92927e-21)
(2.59403 0.0149642 -3.29655e-21)
(2.58945 -0.000634587 1.6588e-22)
(2.58974 0.000472039 1.19946e-21)
(2.59729 0.0168281 3.58527e-22)
(2.61113 0.0117779 0)
(2.62229 0.0149191 4.70615e-20)
(2.64091 0.0116902 5.73331e-21)
(2.62964 0.00901883 7.67333e-21)
(2.65164 0.00241009 -7.74721e-20)
(2.66174 0.00271048 1.43126e-20)
(2.58385 0.0162201 0)
(2.63853 0.004915 7.00485e-21)
(2.64659 0.00339938 3.80328e-21)
(2.62446 0.00578534 6.12804e-21)
(2.63127 0.00554099 -9.55384e-21)
(2.61213 0.0058134 -2.80864e-21)
(2.61818 0.00581163 -1.45434e-21)
(2.60099 0.00586085 1.32517e-21)
(2.60641 0.00579466 1.42465e-21)
(2.5917 0.00622379 0)
(2.59609 0.00599693 -1.07568e-23)
(2.5848 0.00679989 0)
(2.58793 0.00650776 0)
(2.58056 0.00728622 4.09761e-24)
(2.58236 0.00707107 0)
(2.5788 0.00747619 0)
(2.5794 0.00742767 0)
(2.579 0.00727268 0)
(2.57869 0.00742564 0)
(2.5805 0.00668466 0)
(2.57963 0.00702009 0)
(2.58263 0.00581071 3.03985e-24)
(2.58153 0.00627322 0)
(2.58482 0.00479993 1.76169e-26)
(2.58375 0.00531781 0)
(2.5867 0.00377643 0)
(2.58581 0.00428037 0)
(2.58809 0.00283533 -4.90232e-24)
(2.58746 0.00329422 0)
(2.58901 0.00200709 0)
(2.5886 0.00240468 0)
(2.58956 0.0013211 0)
(2.58932 0.00164568 0)
(2.58984 0.000769673 0)
(2.58973 0.00102975 0)
(2.58996 0.000325176 0)
(2.58992 0.000535007 0)
(2.58997 -4.0862e-05 0)
(2.58997 0.000132362 0)
(2.58991 -0.000343524 -1.00481e-22)
(2.58995 -0.000201667 0)
(2.58979 -0.000555927 0)
(2.58985 -0.000462885 -1.89541e-22)
(2.58962 -0.000684939 -7.14262e-25)
(2.58971 -0.000633912 0)
(2.58931 -0.000537827 -6.5584e-22)
(2.58953 -0.000711512 3.87711e-23)
(2.58939 -0.00063534 3.1263e-22)
(2.58933 -0.000271311 2.3323e-22)
(2.58928 -0.00043605 -1.61078e-22)
(2.58943 0.000105317 -8.11021e-23)
(2.58938 -6.54582e-05 8.09606e-23)
(2.58956 0.000471618 0)
(2.58949 0.00031162 -7.59707e-22)
(2.59004 0.000594902 -3.45871e-22)
(2.58964 0.000625552 -6.46725e-22)
(2.58984 0.000612836 1.46762e-21)
(2.59043 0.000524961 -1.90068e-22)
(2.59023 0.00056594 0)
(2.59081 0.000434793 0)
(2.59062 0.000480169 0)
(2.59121 0.000285661 -1.96198e-26)
(2.59101 0.000372733 0)
(2.59166 -3.77875e-05 0)
(2.59143 0.000148852 0)
(2.59222 -0.000635876 4.09277e-24)
(2.59193 -0.000297247 0)
(2.59294 -0.00160134 0)
(2.59256 -0.00106977 0)
(2.59387 -0.00294654 0)
(2.59337 -0.00223157 0)
(2.59508 -0.00451008 0)
(2.59444 -0.00372101 0)
(2.59659 -0.00585824 -3.71274e-26)
(2.59579 -0.0052503 0)
(2.5984 -0.00625855 0)
(2.59746 -0.00623228 0)
(2.60051 -0.00479447 0)
(2.59942 -0.00581664 0)
(2.60287 -0.000729792 0)
(2.60166 -0.00311273 0)
(2.60547 0.00609095 0)
(2.60414 0.00236451 0)
(2.60839 0.014873 7.88218e-24)
(2.60689 0.0103263 0)
(2.61174 0.0239269 0)
(2.61001 0.0194979 0)
(2.61568 0.031149 0)
(2.61363 0.0278934 0)
(2.62029 0.0348459 -9.97425e-24)
(2.6179 0.0335076 0)
(2.62558 0.0344025 1.08138e-23)
(2.62285 0.0351288 0)
(2.63149 0.0303746 -1.17471e-23)
(2.62848 0.0327721 0)
(2.63775 0.023763 1.61399e-21)
(2.63459 0.0273256 -3.167e-21)
(2.64383 0.0150958 -1.70129e-21)
(2.64086 0.0196764 3.57815e-21)
(2.64384 0.00673372 3.55386e-22)
(2.64665 0.00971468 3.86407e-21)
(2.58357 0.0166724 -3.29248e-21)
(2.59389 0.0119839 0)
(2.59853 0.0167524 -3.26621e-20)
(2.61162 0.00806653 0)
(2.58981 -0.000743507 -1.59994e-22)
(2.58969 -0.000748717 1.17148e-22)
(2.58939 0.000482307 -5.98793e-22)
(2.58947 0.000629407 -6.77726e-22)
(2.6123 0.0170699 -3.31349e-20)
(2.63207 0.00447205 -7.75e-21)
(2.6634 0.00346432 0)
(2.66799 -0.00157438 -9.31007e-21)
(2.64648 0.00100942 -3.74541e-21)
(2.64905 0.00333215 6.17763e-21)
(2.67742 0.000329556 1.8149e-20)
(2.58265 0.0140445 0)
(2.65144 -0.00100826 0)
(2.65983 -0.00156513 -7.73932e-21)
(2.63587 -0.000770633 0)
(2.64346 -0.000840065 0)
(2.6222 -0.000473876 0)
(2.62886 -0.000700699 1.5067e-21)
(2.61009 0.000552484 0)
(2.61594 -5.88424e-05 0)
(2.60013 0.00217291 0)
(2.6048 0.00130218 0)
(2.59282 0.00405674 0)
(2.59614 0.00311133 0)
(2.58814 0.00577702 -4.09761e-24)
(2.59017 0.00495952 0)
(2.58579 0.00701688 0)
(2.58671 0.00647298 0)
(2.58521 0.00757763 0)
(2.58531 0.00738817 0)
(2.58578 0.00743247 0)
(2.58539 0.0075885 0)
(2.58694 0.00670879 -2.39322e-26)
(2.58632 0.00713013 0)
(2.58819 0.00562703 2.14943e-26)
(2.58758 0.00619807 0)
(2.58926 0.00441847 0)
(2.58876 0.00502546 0)
(2.59 0.00326118 1.76025e-26)
(2.58967 0.00382603 0)
(2.59041 0.002253 0)
(2.59024 0.00273446 0)
(2.59058 0.00143758 0)
(2.59052 0.00182071 0)
(2.59059 0.000804619 0)
(2.5906 0.0011005 0)
(2.59051 0.000313129 0)
(2.59056 0.000544228 0)
(2.59038 -7.73738e-05 0)
(2.59045 0.00010756 0)
(2.59023 -0.000379387 0)
(2.59031 -0.000239976 0)
(2.59004 -0.000614587 1.82536e-22)
(2.59014 -0.000501862 1.92443e-22)
(2.58993 -0.000692116 -3.39647e-22)
(2.58923 -0.000503729 -3.10144e-22)
(2.58943 -0.00069967 0)
(2.58931 -0.000592662 -3.16355e-22)
(2.58923 -0.000225422 0)
(2.5892 -0.000387229 3.16638e-22)
(2.58929 0.000109699 4.73035e-22)
(2.58926 -5.12562e-05 -1.59868e-22)
(2.58933 0.000315247 -9.37392e-22)
(2.59016 0.000744588 1.72524e-22)
(2.58975 0.000781441 5.98058e-22)
(2.58995 0.000752743 0)
(2.59058 0.00069109 -3.70933e-22)
(2.59037 0.000713891 3.72259e-22)
(2.59097 0.00063222 0)
(2.59078 0.0006622 0)
(2.5914 0.000506748 -2.35054e-26)
(2.59118 0.000578067 0)
(2.59191 0.000236623 0)
(2.59164 0.000393442 0)
(2.59257 -0.000273628 0)
(2.59222 1.62863e-05 0)
(2.59349 -0.00110892 0)
(2.59299 -0.000648 0)
(2.59478 -0.00228045 0)
(2.59408 -0.00165769 0)
(2.59656 -0.00363277 5.01464e-24)
(2.59561 -0.00295323 0)
(2.59891 -0.00475116 -5.4301e-24)
(2.59767 -0.00425868 0)
(2.6018 -0.00493796 0)
(2.6003 -0.00501343 0)
(2.60509 -0.00332925 0)
(2.60341 -0.00441081 0)
(2.60852 0.000796235 0)
(2.60681 -0.00160857 0)
(2.61178 0.00760441 0)
(2.61019 0.00388887 0)
(2.61465 0.0163621 0)
(2.61327 0.0118248 0)
(2.61712 0.0254462 0)
(2.61593 0.0209908 0)
(2.61943 0.0328064 -9.00483e-24)
(2.61827 0.0294666 0)
(2.622 0.0367691 9.73046e-24)
(2.62065 0.0352804 0)
(2.62531 0.0367305 -1.05216e-23)
(2.62354 0.0372394 0)
(2.62965 0.0332032 0)
(2.62735 0.0353437 0)
(2.63483 0.0270083 0)
(2.63217 0.0304136 0)
(2.63995 0.0180802 1.36159e-23)
(2.63749 0.0229328 1.69944e-21)
(2.64399 0.00531287 -9.9734e-21)
(2.64221 0.0122596 0)
(2.65084 -0.00427422 -5.98194e-21)
(2.64498 -0.00317033 -3.75089e-22)
(2.58211 0.015286 1.05181e-20)
(2.59266 0.0087276 0)
(2.58956 -0.000757144 -5.89694e-22)
(2.58956 0.000816144 -1.17223e-21)
(2.59218 0.0141743 -5.89274e-21)
(2.65079 0.0028662 3.56253e-22)
(2.61792 0.0156027 1.76147e-20)
(2.61225 0.00375308 0)
(2.63353 -0.000808574 2.10205e-21)
(2.68236 0.00497451 -1.75521e-20)
(2.67959 0.00554573 1.65709e-20)
(2.65867 0.00228785 -1.53983e-20)
(2.64862 -0.00576861 -6.25246e-21)
(2.65166 -0.013517 4.37723e-21)
(2.64495 -0.0133957 3.77912e-21)
(2.58072 0.0115457 0)
(2.67488 -0.00869532 4.84227e-22)
(2.68864 -0.00536016 -2.34011e-22)
(2.68264 -0.00785406 3.87762e-21)
(2.65853 -0.00885586 3.5686e-21)
(2.66674 -0.00896561 -3.59221e-21)
(2.64318 -0.00866144 6.01011e-24)
(2.65068 -0.00884106 0)
(2.62967 -0.00748818 0)
(2.63621 -0.00824553 0)
(2.61787 -0.00517276 0)
(2.62353 -0.006441 0)
(2.60824 -0.00220542 0)
(2.61276 -0.00374786 0)
(2.60106 0.00098845 4.33308e-24)
(2.60435 -0.000605077 0)
(2.59615 0.00390362 0)
(2.59834 0.00251009 0)
(2.59318 0.00611676 0)
(2.59446 0.00511866 0)
(2.59168 0.00737037 0)
(2.59228 0.00687071 0)
(2.59117 0.00763434 0)
(2.59133 0.00761931 0)
(2.59121 0.00707921 -3.01592e-24)
(2.59114 0.00744282 0)
(2.59146 0.00599466 2.54346e-26)
(2.59132 0.00658305 0)
(2.59169 0.00468834 0)
(2.59159 0.00535203 0)
(2.5918 0.00340442 4.83205e-24)
(2.59177 0.00403217 0)
(2.59175 0.00228928 0)
(2.5918 0.00282045 0)
(2.59159 0.00140002 0)
(2.59168 0.00181593 0)
(2.59134 0.000725328 0)
(2.59147 0.00103879 0)
(2.59107 0.000215587 0)
(2.59121 0.000453781 0)
(2.5908 -0.00017834 0)
(2.59093 7.31427e-06 0)
(2.59054 -0.00048168 3.09452e-24)
(2.59067 -0.000338713 0)
(2.59028 -0.000700573 -1.8332e-22)
(2.59041 -0.000599709 0)
(2.58999 -0.000845849 1.67768e-22)
(2.59014 -0.000783562 0)
(2.58969 -0.000908286 1.50388e-22)
(2.58984 -0.000892973 -1.58666e-22)
(2.58933 -0.000665868 2.93799e-22)
(2.58954 -0.000920953 0)
(2.58943 -0.000750522 4.41592e-22)
(2.58915 -0.000441115 0)
(2.58922 -0.0005478 0)
(2.58912 -0.000174352 0)
(2.58912 -0.000310625 0)
(2.58916 0.000114564 0)
(2.58913 -2.86846e-05 0)
(2.58923 0.000498839 6.10409e-22)
(2.58918 0.000321054 1.48193e-22)
(2.58938 0.000841515 1.46602e-22)
(2.5893 0.000655954 1.17758e-21)
(2.58987 0.000971807 8.03602e-22)
(2.58946 0.00102272 1.44116e-22)
(2.58966 0.00100055 -3.01947e-22)
(2.59029 0.000906851 1.6706e-22)
(2.59007 0.000940995 -1.0013e-21)
(2.5907 0.000869988 -2.27422e-26)
(2.5905 0.000887289 0)
(2.5911 0.000832565 0)
(2.5909 0.00085886 0)
(2.59153 0.000739273 -2.74592e-26)
(2.59131 0.000797116 0)
(2.59206 0.000533403 0)
(2.59178 0.000655421 0)
(2.59277 0.000138017 0)
(2.59238 0.000364347 0)
(2.59379 -0.000514808 0)
(2.59323 -0.000153677 0)
(2.5953 -0.00142932 0)
(2.59447 -0.000943763 0)
(2.59744 -0.00246365 -9.98364e-24)
(2.59628 -0.00194864 0)
(2.60032 -0.0032458 0)
(2.59879 -0.00291962 0)
(2.60389 -0.0031517 0)
(2.60203 -0.00335504 0)
(2.60787 -0.00140861 0)
(2.60585 -0.00253329 0)
(2.61183 0.00263862 0)
(2.60989 0.000301257 0)
(2.61523 0.00915872 -7.1032e-24)
(2.61364 0.00560939 0)
(2.61766 0.0175186 0)
(2.61658 0.0131845 0)
(2.61902 0.0262607 0)
(2.61846 0.0219581 0)
(2.61964 0.033506 9.00483e-24)
(2.61939 0.0301865 0)
(2.62022 0.037672 -1.48662e-25)
(2.61989 0.0360406 0)
(2.62155 0.0381318 2.08695e-23)
(2.62075 0.0383604 0)
(2.62414 0.0352441 0)
(2.62267 0.0370617 0)
(2.6279 0.0295931 0)
(2.62591 0.032751 0)
(2.63193 0.0209027 -3.09682e-25)
(2.62996 0.0256989 0)
(2.63492 0.00750516 0)
(2.63364 0.0149268 0)
(2.63496 -0.012835 -6.16312e-21)
(2.63545 -0.00167176 0)
(2.64398 -0.0254845 -4.176e-22)
(2.63364 -0.0260317 1.09787e-20)
(2.57851 0.0131196 0)
(2.69399 -0.00255734 2.43126e-20)
(2.59238 0.0122034 4.09733e-21)
(2.5898 -0.00108443 -1.50164e-22)
(2.58962 -0.00109633 0)
(2.58921 0.000864873 1.38748e-22)
(2.58927 0.00104081 -2.76249e-22)
(2.59084 0.00505336 0)
(2.61155 -0.00122406 0)
(2.61901 0.0157531 0)
(2.63495 -0.00711109 -2.06976e-21)
(2.64991 -0.0139981 -4.33395e-21)
(2.65142 -0.0245524 0)
(2.6419 -0.0395046 1.15568e-20)
(2.63143 -0.0410854 -8.91762e-21)
(2.57757 0.00869446 0)
(2.68785 -0.00971807 -1.88562e-24)
(2.69839 -9.63868e-05 7.95031e-21)
(2.69792 -0.00238137 -2.84333e-20)
(2.69349 -0.00620575 7.94265e-21)
(2.67532 -0.0140228 -2.29894e-21)
(2.68195 -0.0123151 -3.846e-21)
(2.66095 -0.0154968 0)
(2.66825 -0.0150616 0)
(2.64702 -0.0153592 -6.00955e-24)
(2.6538 -0.0156482 0)
(2.63482 -0.013448 0)
(2.64071 -0.0146177 0)
(2.62437 -0.0101895 0)
(2.62937 -0.0119459 0)
(2.61583 -0.00617899 0)
(2.61985 -0.00824712 0)
(2.60924 -0.00195854 -4.33308e-24)
(2.6123 -0.00405831 0)
(2.60434 0.00187767 0)
(2.6066 4.24467e-05 0)
(2.60081 0.0048308 0)
(2.60242 0.00348763 0)
(2.59832 0.00662356 0)
(2.59945 0.00587883 0)
(2.59661 0.00724124 0)
(2.59739 0.00707055 0)
(2.59542 0.00688695 2.95498e-24)
(2.59596 0.00716673 0)
(2.59459 0.00588908 2.92533e-26)
(2.59498 0.00644595 0)
(2.59397 0.0045945 0)
(2.59426 0.00525912 0)
(2.59344 0.0032857 -2.3882e-26)
(2.5937 0.00392817 0)
(2.59295 0.0021396 0)
(2.59319 0.00268567 0)
(2.59248 0.00122827 0)
(2.59271 0.00165357 0)
(2.59201 0.000545066 0)
(2.59224 0.000860788 0)
(2.59158 4.0296e-05 0)
(2.59179 0.000274027 0)
(2.59117 -0.000339688 0)
(2.59137 -0.000162809 0)
(2.59082 -0.00062857 -6.16109e-24)
(2.59099 -0.000494864 0)
(2.59049 -0.000836117 -2.8393e-24)
(2.59065 -0.000743273 0)
(2.59016 -0.000988134 3.38986e-22)
(2.59032 -0.000916287 -3.43312e-22)
(2.58998 -0.00104404 3.11172e-22)
(2.58921 -0.000622615 7.13377e-23)
(2.58937 -0.000928274 1.75987e-23)
(2.58929 -0.000723705 -2.17401e-22)
(2.58907 -0.000365392 0)
(2.58913 -0.000492344 0)
(2.58899 -0.000122575 -2.2132e-27)
(2.58902 -0.000242613 0)
(2.58902 0.000135792 0)
(2.589 7.93516e-06 0)
(2.58908 0.000516041 2.88517e-22)
(2.58905 0.0003312 -2.96936e-22)
(2.58914 0.000681542 -2.46323e-23)
(2.58998 0.00114425 -1.34693e-24)
(2.58955 0.0011925 -2.89526e-22)
(2.58976 0.00116595 2.49209e-24)
(2.59041 0.00108732 -1.70921e-22)
(2.5902 0.00111486 1.71167e-22)
(2.59081 0.00106389 -2.97866e-24)
(2.59061 0.00107601 0)
(2.5912 0.00103543 -3.18428e-24)
(2.59101 0.00105283 0)
(2.59163 0.00097229 -3.12932e-26)
(2.59141 0.00101076 0)
(2.59215 0.000834379 0)
(2.59187 0.000915975 0)
(2.59286 0.000568492 0)
(2.59247 0.000720938 0)
(2.59392 0.000128734 0)
(2.59334 0.000371899 0)
(2.59552 -0.000479409 0)
(2.59464 -0.000158219 0)
(2.59784 -0.00113402 4.969e-24)
(2.59658 -0.000815084 0)
(2.60096 -0.00152604 5.27788e-24)
(2.5993 -0.00139049 0)
(2.6048 -0.00113476 0)
(2.60281 -0.00146745 0)
(2.60901 0.000692961 0)
(2.60689 -0.000440733 0)
(2.61302 0.00452727 0)
(2.61108 0.00233612 0)
(2.61618 0.0105414 7.1032e-24)
(2.61474 0.00727645 0)
(2.61798 0.0182312 -7.53993e-24)
(2.61727 0.0142397 0)
(2.61832 0.0263662 0)
(2.61832 0.0223434 0)
(2.61758 0.0333077 0)
(2.61804 0.0300893 0)
(2.61661 0.0376144 -1.65624e-25)
(2.61706 0.0358559 0)
(2.61634 0.038591 -2.05025e-23)
(2.61633 0.0385263 0)