/*--------------------------------*- C++ -*----------------------------------*\
  =========                 |
  \\      /  F ield         | OpenFOAM: The Open Source CFD Toolbox
   \\    /   O peration     | Website:  https://openfoam.org
    \\  /    A nd           | Version:  10
     \\/     M anipulation  |
\*---------------------------------------------------------------------------*/
FoamFile
{
    format      ascii;
    class       volVectorField;
    location    "83";
    object      U;
}
// * * * * * * * * * * * * * * * * * * * * * * * * * * * * * * * * * * * * * //

dimensions      [0 1 -1 0 0 0 0];

internalField   nonuniform List<vector> 
28942
(
(0.00442939 -0.00225667 -3.41145e-22)
(0.00599534 -0.00233988 -6.33554e-23)
(0.0179343 -0.0123853 -8.26228e-22)
(0.103306 0.0182355 -5.25877e-21)
(0.102344 0.022278 1.72181e-21)
(0.0138145 0.000421978 0)
(0.0164167 6.71983e-06 1.02672e-23)
(0.019046 0.00054525 -9.05438e-24)
(0.135237 -0.0184382 -2.55448e-22)
(0.133893 -0.0168042 7.2703e-22)
(0.00979465 0.00401529 -6.70189e-22)
(0.0160675 0.00562902 2.53884e-22)
(0.00713723 0.00315299 0)
(0.0047074 0.00207016 0)
(0.0433122 0.00193852 -1.43644e-23)
(0.0415514 0.0024882 -5.79615e-24)
(0.0893156 0.0158884 6.67783e-22)
(0.0870036 0.013857 1.07471e-21)
(0.0121635 -0.015111 2.91753e-21)
(0.0293282 -0.0304645 -7.67859e-22)
(0.0981175 0.0373989 9.5226e-22)
(0.0972962 0.0344348 0)
(0.0187379 0.00462656 1.16254e-21)
(0.00786309 0.00236334 5.48005e-22)
(0.0377944 0.00721045 9.39488e-22)
(0.0575261 0.00291185 -8.56471e-22)
(0.00764728 -0.0184888 8.50749e-21)
(0.00669333 -0.0165534 -3.13338e-21)
(0.0355063 -0.0253204 5.72712e-22)
(0.0192985 -0.0136807 1.97688e-22)
(0.0141819 -0.0013001 0)
(0.0177302 -0.00112098 -1.30015e-23)
(0.022545 0.00410147 2.72301e-22)
(0.0325228 0.00184663 -4.17314e-23)
(0.0188251 0.0180095 1.31379e-21)
(0.0157197 0.0191196 -1.30471e-21)
(0.032169 0.0376176 -3.05237e-21)
(0.0186689 0.0305361 -1.06841e-21)
(0.00756532 -1.44094e-05 -8.5657e-24)
(0.00864876 0.0161972 -2.61425e-21)
(0.0306493 -0.00620318 0)
(0.0513426 -0.0109694 0)
(0.111824 -0.011737 -2.7066e-23)
(0.111318 -0.0117359 7.98063e-23)
(0.115876 -0.0116329 6.95462e-23)
(0.0268771 0.000175432 1.09383e-23)
(0.0250238 -0.000590988 -1.75731e-23)
(0.0357974 -0.000479087 -8.04127e-23)
(0.0342978 -0.000548939 2.29308e-23)
(0.0278539 -0.00261535 -2.00159e-22)
(0.0206961 -0.00312796 1.30148e-22)
(0.128655 0.00130244 -4.00594e-22)
(0.12797 0.000830576 -3.74262e-22)
(0.134554 -0.021205 -3.77049e-24)
(0.133008 -0.0194789 1.38808e-22)
(0.0824809 0.00635308 7.12912e-22)
(0.101733 -0.000766316 2.47765e-22)
(0.00305834 0.0016207 -5.62931e-22)
(0.00894207 0.00367925 0)
(0.00825658 0.0032887 2.36423e-22)
(0.00288239 0.00148797 4.85744e-22)
(0.000362206 0.000226245 -4.03889e-22)
(0.000192883 0.000122684 -3.88008e-22)
(0.109762 -0.0426061 0)
(0.104893 -0.0256115 1.25737e-22)
(0.121763 -0.0331161 -4.30891e-23)
(0.123411 -0.0437696 0)
(0.0901052 -0.0328031 -6.38567e-22)
(0.0936091 -0.0352701 -4.19689e-22)
(0.00188515 -0.00112963 1.12788e-21)
(0.00248887 -0.00201748 -3.55398e-22)
(0.0048731 -0.00315602 8.81759e-22)
(0.0848744 -0.0457596 0)
(0.0912006 -0.0396236 2.16757e-21)
(0.080543 -0.053025 5.85638e-22)
(0.114129 0.0124044 2.36453e-22)
(0.112727 0.00690177 -2.62232e-22)
(0.125096 0.0110068 -1.11833e-22)
(0.00468331 -0.00286181 -5.3539e-23)
(0.00633841 -0.0044258 4.48248e-22)
(0.0510071 -0.0311462 1.26191e-22)
(0.0331536 -0.0205363 -2.57362e-22)
(0.00211103 -0.000596048 3.20013e-21)
(0.00515704 -0.00207257 -1.24702e-21)
(0.100983 0.048249 1.35175e-23)
(0.097031 0.0552165 -7.64832e-22)
(0.0807221 0.0540131 6.97941e-22)
(0.0472052 0.0345108 -2.68125e-21)
(0.0444335 0.0316067 1.89885e-21)
(0.0294921 0.0205957 -1.13496e-22)
(0.0327128 0.0232485 -6.41233e-22)
(0.0379538 0.0283583 8.69325e-22)
(0.00440829 0.00272825 -5.87395e-23)
(0.00776097 0.00397997 -1.69456e-23)
(0.00318856 0.00202184 3.39571e-23)
(0.0019233 0.00164591 -4.54059e-22)
(0.00145006 0.0015699 5.56787e-22)
(0.0157423 0.0115437 -3.25357e-21)
(0.0174951 0.0136356 7.45189e-22)
(0.00880453 -0.00384693 0)
(0.101389 0.00515942 0)
(0.0984003 0.0156832 -3.95788e-21)
(0.0604413 0.0104756 1.94081e-21)
(0.0886811 0.0178812 0)
(0.135455 -0.00109435 0)
(0.134893 -0.00180845 0)
(0.1332 -0.00230267 -2.51506e-22)
(0.114974 0.0266102 -2.11957e-22)
(0.114066 0.028013 2.09559e-21)
(0.113268 0.0254729 1.12452e-21)
(0.00229394 0.00129939 1.04956e-21)
(0.00151143 0.000777429 -1.17803e-21)
(0.0190481 -0.00553494 -5.48506e-22)
(0.0201281 -0.0050636 4.68194e-22)
(0.00909922 -0.00292747 9.25466e-22)
(0.00647662 0.0111501 1.47844e-21)
(0.0189678 0.0181617 3.45606e-21)
(0.013465 0.022801 2.72184e-22)
(0.00492083 0.0143069 -8.62022e-21)
(0.116987 0.0477527 5.54725e-23)
(0.107863 0.058242 1.06838e-21)
(0.118323 0.05488 -1.84252e-21)
(0.0390853 -0.0294136 7.30859e-22)
(0.0240057 -0.0172625 -4.67238e-22)
(0.00532087 -0.000740856 -4.10166e-21)
(0.00453794 -0.00359086 0)
(0.0124956 -0.00167057 2.00212e-21)
(0.021961 -0.0161281 7.77925e-22)
(0.0342501 -0.0277802 -1.95412e-21)
(0.0338444 -2.47902e-05 5.54682e-23)
(0.0359934 0.000133231 -4.07507e-23)
(0.0317739 0.000151965 -1.71544e-24)
(0.0280512 -0.0419421 0)
(0.0296007 -0.0428334 0)
(0.0896233 -0.0186529 -4.62726e-22)
(0.0995912 -0.0220905 3.14395e-21)
(0.0870345 -0.0252785 0)
(0.0471105 -0.0401824 0)
(0.05817 -0.0513772 -7.82533e-22)
(0.0413112 0.0393379 2.08449e-21)
(-2.30003e-06 0.000214493 5.11698e-22)
(-0.000194192 0.000131007 -3.37124e-22)
(0.0223233 -0.0192377 -7.90651e-22)
(0.12029 -0.0115049 3.92199e-22)
(0.119656 -0.0114504 -7.58917e-23)
(0.115425 -0.0057223 -6.62097e-23)
(0.108352 0.000980647 8.82338e-23)
(0.117617 -0.000319865 1.79232e-22)
(8.22548e-05 0.000259125 1.97558e-22)
(0.0437434 0.0344185 3.20293e-21)
(0.0618721 0.0463079 -7.87753e-22)
(0.0593066 0.0393643 -3.01973e-24)
(0.0220783 -0.000815119 5.45979e-24)
(0.021754 -0.000795524 2.84578e-23)
(0.0236104 -0.000569962 1.07611e-24)
(0.0263659 -0.000583692 -1.403e-23)
(0.0454179 0.0380896 1.33768e-22)
(0.018961 0.0160587 0)
(0.000138538 -2.79734e-05 3.67782e-22)
(0.000421588 -0.00025552 -4.08039e-22)
(0.00185935 -0.00100903 2.84674e-22)
(0.0365503 -0.00771956 -1.84002e-21)
(0.0648597 -0.0021006 -7.50398e-22)
(0.0306756 -0.000198413 -2.15686e-24)
(0.0744696 -0.00764365 2.70868e-22)
(0.0706814 -0.0157269 6.06467e-23)
(0.0943042 0.0399213 2.14282e-21)
(0.0914048 0.0454569 9.92837e-23)
(0.0887486 0.0290885 1.21535e-21)
(0.0914739 0.0308053 -8.80748e-22)
(0.0986961 0.0410825 0)
(0.126116 -0.000324343 1.49183e-22)
(0.126886 -0.000757613 2.81758e-22)
(0.128094 -0.0123454 -2.95031e-22)
(0.129557 -0.0121506 5.04972e-22)
(0.117054 0.0241543 2.59913e-22)
(0.119112 0.0250553 -7.36025e-22)
(0.1171 0.0261667 0)
(0.115135 0.0249039 1.53227e-22)
(0.116672 0.0280889 0)
(0.117173 0.0361101 -5.51105e-22)
(0.115711 0.0381616 -3.00883e-22)
(0.111337 0.0419738 -5.40528e-22)
(0.113731 0.0401063 0)
(0.11642 0.0430817 1.788e-21)
(0.113698 0.045004 4.73871e-23)
(0.108331 0.0441845 -3.03641e-22)
(0.0996286 0.0502867 -1.28689e-21)
(0.0984192 0.0454983 -2.26719e-22)
(0.0249537 -0.00847491 5.91369e-23)
(0.032809 -0.0093321 -2.35853e-23)
(0.00628281 -0.00248691 -6.91533e-22)
(0.030074 -8.63332e-05 -3.51424e-23)
(0.0385739 -0.000268805 0)
(-3.05047e-06 -3.99474e-05 4.32598e-22)
(1.31364e-05 -4.72455e-05 2.20321e-22)
(0.0348966 -0.00178541 1.67697e-23)
(0.0412707 -0.00173469 6.91558e-24)
(0.0408249 -0.00119334 0)
(0.0337457 -0.000822589 7.37975e-24)
(0.0856975 0.00344535 -1.08713e-22)
(0.0849298 0.00312093 5.13582e-22)
(0.085794 0.00320613 2.37653e-22)
(0.000670649 0.000271955 3.9215e-22)
(-0.000159418 -0.000129265 -5.68185e-22)
(-0.000201068 -0.000168996 4.8429e-22)
(0.00150002 0.000617337 0)
(7.98999e-05 8.77716e-05 1.13757e-21)
(0.000171898 -3.89963e-05 -8.20114e-22)
(0.00744711 0.00367295 -9.90295e-22)
(0.00145141 0.00078119 -1.18288e-21)
(0.00172031 0.000860506 0)
(0.00157199 0.00754411 0)
(0.000576947 0.00328128 0)
(0.000313307 0.0019769 0)
(0.136628 -0.00110628 5.60884e-23)
(0.13764 -0.000941074 0)
(0.136001 -0.00189098 -6.53935e-23)
(0.0881104 -0.0148528 4.42489e-21)
(0.0901172 -0.0152622 -1.60623e-21)
(0.0890326 -0.0128775 0)
(0.0966317 0.000328942 -6.4046e-24)
(0.0972229 0.000318044 1.28179e-23)
(0.0960389 0.000339432 -4.33078e-24)
(0.0978093 0.000309109 0)
(0.0983945 0.000308472 -8.17949e-24)
(0.0989736 0.00030241 0)
(0.0989713 -0.000312821 0)
(0.0995449 0.000284919 3.03804e-23)
(0.0995357 -0.000334841 0)
(0.098399 -0.000302896 -8.23684e-24)
(0.0978136 -0.000298299 0)
(0.0972261 -0.000292928 4.28481e-24)
(0.096632 -0.000291562 -6.40094e-24)
(0.0960409 -0.000289136 4.32537e-24)
(0.100103 0.00026575 -2.90715e-23)
(0.100098 -0.000350589 -1.01665e-24)
(0.0954374 0.000355204 -6.94932e-29)
(0.095434 -0.000280341 -6.6078e-24)
(0.0948258 0.000369057 3.51364e-23)
(0.100654 0.000253394 2.71723e-26)
(0.100666 -0.000358011 -1.0179e-24)
(0.0948256 -0.000279578 1.30199e-23)
(0.101207 0.000240191 2.73743e-23)
(0.101758 0.000229606 -2.73517e-23)
(0.101224 -0.00036597 2.04922e-24)
(0.101776 -0.000371938 4.05199e-24)
(0.0942323 0.000393573 -3.41859e-23)
(0.0942244 -0.000277382 -8.56931e-24)
(0.102304 0.000217602 0)
(0.102323 -0.000378748 -3.99662e-24)
(0.0936164 0.000408024 4.22728e-27)
(0.0936095 -0.000269755 -4.23787e-27)
(0.102846 0.000207941 0)
(0.102866 -0.000383753 0)
(0.0929949 0.000418848 0)
(0.0929877 -0.000265761 0)
(0.103384 0.000196621 0)
(0.103404 -0.00038973 1.921e-24)
(0.0923682 0.000429589 -1.77215e-23)
(0.09236 -0.000260883 -4.32531e-27)
(0.103918 0.000187603 1.00711e-25)
(0.103938 -0.000393808 -2.05164e-24)
(0.0917358 0.000438286 1.78062e-23)
(0.0917271 -0.000257771 0)
(0.104447 0.000176838 0)
(0.104467 -0.000398674 0)
(0.0910984 0.000447369 -1.12614e-24)
(0.0910889 -0.000252645 1.93247e-23)
(0.104972 0.000168403 1.24558e-23)
(0.104992 -0.000401201 0)
(0.0904565 0.000454442 -9.77572e-26)
(0.0904454 -0.000247842 -1.82902e-23)
(0.105493 0.000158582 -1.86319e-23)
(0.105514 -0.000404195 -5.40762e-24)
(0.0897956 0.000454835 1.86453e-23)
(0.0897873 -0.000243592 0)
(0.106011 0.00015216 6.13758e-24)
(0.106032 -0.000401372 3.60657e-24)
(0.0891323 0.000461686 -9.43428e-24)
(0.0891239 -0.00024241 1.91285e-23)
(0.106521 0.000148279 -2.45134e-23)
(0.106552 -0.000391252 2.76289e-23)
(0.088438 0.000453529 9.72343e-24)
(0.0884386 -0.000247081 3.07675e-25)
(0.107035 0.000147151 0)
(0.107063 -0.000381468 1.31662e-23)
(0.0877363 0.000445511 -1.95539e-23)
(0.0877439 -0.000259155 3.91134e-23)
(0.107564 0.000137377 0)
(0.107575 -0.000377464 0)
(0.0887306 0.00114886 -9.62126e-24)
(0.0880236 0.00114838 -3.89303e-23)
(0.0870109 0.000430911 0)
(0.0870355 -0.000283061 -1.99222e-23)
(0.0900952 0.00114005 -6.04359e-24)
(0.0894163 0.00114546 1.18685e-24)
(0.0913923 0.00111508 0)
(0.090742 0.00112722 -1.95252e-23)
(0.0926553 0.00108543 -3.77248e-26)
(0.0920272 0.00110085 0)
(0.0938931 0.00105161 0)
(0.0932771 0.00106898 0)
(0.0951086 0.00101007 0)
(0.0945038 0.0010326 0)
(0.0962801 0.000966664 8.5528e-24)
(0.0956907 0.00098735 2.15547e-24)
(0.0974505 0.000934181 -8.25075e-24)
(0.0968718 0.00095021 -8.53931e-24)
(0.0986007 0.000906005 1.46588e-23)
(0.0980216 0.00091422 1.87191e-23)
(0.0997525 0.000881621 0)
(0.0991784 0.000896826 0)
(0.100867 0.000854135 -6.44406e-26)
(0.100314 0.000867723 0)
(0.101962 0.000824323 0)
(0.101417 0.000839343 0)
(0.103039 0.000794085 0)
(0.102503 0.000809082 0)
(0.1041 0.000764548 0)
(0.103572 0.000779126 0)
(0.105145 0.000736073 0)
(0.104625 0.000750089 0)
(0.106171 0.000708404 0)
(0.10566 0.000722069 0)
(0.107187 0.000665231 -1.00159e-23)
(0.106679 0.00069373 0)
(0.107697 0.000642593 -3.23443e-24)
(0.108082 0.000123576 3.1586e-24)
(0.108091 -0.000377507 -3.13231e-24)
(0.106703 -0.000898891 0)
(0.107718 -0.000882011 -1.28519e-23)
(0.107211 -0.000889314 -6.62201e-24)
(0.105675 -0.000915822 1.81222e-24)
(0.10619 -0.00090899 -7.09084e-24)
(0.104637 -0.000922212 5.86639e-26)
(0.105157 -0.000920639 0)
(0.103582 -0.00092215 0)
(0.104112 -0.000922428 0)
(0.102509 -0.000920345 0)
(0.103048 -0.000921317 0)
(0.101418 -0.000917983 0)
(0.101966 -0.000919084 7.71516e-30)
(0.100308 -0.000916732 6.50598e-26)
(0.100865 -0.000917006 0)
(0.0991843 -0.000909353 0)
(0.0997452 -0.000914478 0)
(0.0980364 -0.000900926 0)
(0.0986108 -0.000904357 0)
(0.0968685 -0.000899231 0)
(0.0974534 -0.000897272 -4.33157e-24)
(0.0956805 -0.00090458 1.13855e-24)
(0.096276 -0.000904879 -5.58431e-24)
(0.094484 -0.000913457 0)
(0.095089 -0.000907322 -4.54195e-24)
(0.0932553 -0.000917876 0)
(0.0938728 -0.000915721 0)
(0.0920014 -0.000922789 0)
(0.0926316 -0.000920194 0)
(0.0907174 -0.000927022 0)
(0.0913643 -0.000925037 0)
(0.0893971 -0.000932544 -4.94286e-24)
(0.0900632 -0.000928269 0)
(0.0880445 -0.000958207 -2.00105e-23)
(0.088725 -0.000939951 -4.96634e-24)
(0.0873461 -0.000981765 2.03667e-23)
(0.0873026 0.00114928 3.85974e-23)
(0.108208 0.000623848 6.33291e-24)
(0.108224 -0.000874413 -1.23703e-23)
(0.0863053 -0.000318254 0)
(0.0866394 -0.00102025 0)
(0.0865686 0.00114972 0)
(0.0862714 0.00040862 0)
(0.0893094 0.00182962 0)
(0.0879202 0.00186301 9.66639e-24)
(0.0886199 0.00184442 9.76132e-24)
(0.0906538 0.00179423 1.24105e-23)
(0.089988 0.00181305 -2.4805e-24)
(0.091928 0.00175 3.83851e-26)
(0.0912964 0.00177211 0)
(0.0931706 0.00170523 0)
(0.0925527 0.0017278 0)
(0.0943875 0.0016594 0)
(0.093782 0.00168243 0)
(0.0955831 0.00161518 0)
(0.0949875 0.00163636 0)
(0.0967511 0.00156941 0)
(0.0961698 0.00159292 0)
(0.0979002 0.00152827 -3.458e-26)
(0.0973244 0.00154963 8.91836e-24)
(0.0990212 0.00148526 -3.3194e-26)
(0.0984663 0.00150577 -1.74084e-23)
(0.100142 0.00144113 0)
(0.0995825 0.00146218 0)
(0.101239 0.00140127 3.21756e-26)
(0.100694 0.00142088 0)
(0.102317 0.00136219 0)
(0.10178 0.00138169 0)
(0.103377 0.0013235 0)
(0.102849 0.00134275 0)
(0.10442 0.00128555 0)
(0.103901 0.0013044 0)
(0.105447 0.00124847 0)
(0.104936 0.00126689 0)
(0.106456 0.00121093 0)
(0.105954 0.00123001 0)
(0.107455 0.00116037 6.84083e-24)
(0.106956 0.00118808 0)
(0.108597 0.000114867 0)
(0.108713 0.00060577 6.19166e-24)
(0.108452 0.00111024 0)
(0.107952 0.00113479 6.66481e-24)
(0.107984 -0.00137773 1.32583e-23)
(0.108479 -0.00136512 3.2561e-24)
(0.108729 -0.000870856 2.54249e-23)
(0.108602 -0.000374661 0)
(0.106986 -0.00140397 0)
(0.107486 -0.00139082 -2.00175e-23)
(0.105977 -0.00142618 5.70031e-26)
(0.106484 -0.00141458 7.13396e-24)
(0.104956 -0.00143946 -5.86636e-26)
(0.105468 -0.00143362 0)
(0.103917 -0.00144838 0)
(0.104439 -0.00144421 0)
(0.102861 -0.00145566 0)
(0.103391 -0.00145212 0)
(0.101787 -0.00146254 0)
(0.102326 -0.00145906 -7.71513e-30)
(0.100696 -0.00147001 -1.30027e-25)
(0.101244 -0.00146617 0)
(0.0995891 -0.0014764 0)
(0.100144 -0.0014735 0)
(0.098459 -0.00148317 2.18515e-24)
(0.0990271 -0.00147932 0)
(0.0973133 -0.00149051 0)
(0.0978869 -0.00148462 -2.17603e-24)
(0.0961465 -0.00150452 4.55177e-24)
(0.0967288 -0.00149739 4.52511e-24)
(0.0949585 -0.00151736 0)
(0.0955564 -0.00151098 0)
(0.0937466 -0.00153345 0)
(0.0943555 -0.00152509 0)
(0.0925097 -0.00155196 0)
(0.0931315 -0.00154237 0)
(0.0912444 -0.00157343 0)
(0.0918809 -0.0015622 0)
(0.0899471 -0.00159981 7.90181e-26)
(0.0906001 -0.0015859 0)
(0.0886144 -0.00163415 -8.0087e-26)
(0.0892863 -0.00161611 0)
(0.0872489 -0.00170212 -2.09413e-23)
(0.0879349 -0.00166446 2.09317e-23)
(0.0872058 0.00188159 1.96637e-23)
(0.0859271 -0.0010705 0)
(0.0865553 -0.00175265 -4.25728e-23)
(0.0855734 -0.000360658 0)
(0.108946 0.00109226 0)
(0.108974 -0.00135208 -3.15813e-24)
(0.085828 0.00114995 4.97836e-23)
(0.0864849 0.00190082 1.99129e-23)
(0.0851987 -0.00112368 1.07648e-23)
(0.0858512 -0.0018111 5.38004e-23)
(0.085519 0.000381864 0)
(0.108812 0.00159156 2.6041e-23)
(0.109292 0.00156592 -1.28604e-23)
(0.109225 -0.000863268 -6.25694e-24)
(0.109462 -0.00133598 3.11054e-23)
(0.0874759 0.00262391 6.98663e-23)
(0.0857437 0.00191927 -3.92255e-23)
(0.0860269 0.00268139 -1.75219e-22)
(0.0867481 0.00264944 -3.9911e-23)
(0.0888489 0.00255537 1.94512e-23)
(0.0881688 0.00259097 -5.9446e-23)
(0.0901705 0.00248904 -1.9895e-23)
(0.0895167 0.00252203 -1.50038e-23)
(0.0914638 0.0024291 -4.96245e-24)
(0.0908242 0.00246006 -4.96486e-24)
(0.0927083 0.00237086 -3.83851e-26)
(0.0920925 0.0024003 0)
(0.0939195 0.00231203 0)
(0.0933172 0.00234136 0)
(0.0951052 0.00225416 0)
(0.0945153 0.00228297 0)
(0.0962688 0.00219819 0)
(0.0956896 0.00222577 0)
(0.09741 0.00214457 0)
(0.0968419 0.0021708 0)
(0.0985298 0.00209128 0)
(0.0979719 0.0021176 0)
(0.0996301 0.00203982 6.48202e-29)
(0.0990832 0.00206633 0)
(0.100716 0.00198726 0)
(0.100174 0.00201303 0)
(0.101785 0.00193758 3.20883e-26)
(0.101252 0.00196215 0)
(0.102836 0.00188946 0)
(0.102312 0.00191338 0)
(0.10387 0.00184231 0)
(0.103355 0.00186577 0)
(0.104888 0.00179602 0)
(0.104381 0.00181907 0)
(0.10589 0.0017504 0)
(0.105391 0.00177316 0)
(0.106875 0.00170373 0)
(0.106385 0.00172749 0)
(0.107846 0.00164816 3.48145e-24)
(0.107363 0.00167695 -1.75234e-24)
(0.108331 0.00162009 -1.32862e-23)
(0.109098 0.000110777 -2.96567e-24)
(0.109436 0.00107343 1.23931e-23)
(0.109209 0.000594543 -9.48127e-24)
(0.109102 -0.00037968 0)
(0.10837 -0.00186213 -9.86654e-24)
(0.109328 -0.00182162 -2.84654e-23)
(0.108851 -0.00184299 2.29229e-23)
(0.107401 -0.00190066 0)
(0.107887 -0.00188085 0)
(0.106417 -0.00192533 -9.6566e-29)
(0.10691 -0.00191191 0)
(0.105419 -0.00194675 0)
(0.10592 -0.00193671 0)
(0.104405 -0.00196444 -6.00884e-26)
(0.104914 -0.00195589 0)
(0.103374 -0.00198054 0)
(0.103892 -0.00197261 0)
(0.102325 -0.00199612 0)
(0.102851 -0.00198835 0)
(0.101259 -0.00201191 6.49769e-26)
(0.101794 -0.00200398 0)
(0.100177 -0.00202776 6.64568e-26)
(0.10072 -0.00201982 0)
(0.0990751 -0.00204507 0)
(0.0996282 -0.00203606 0)
(0.0979546 -0.00206414 0)
(0.0985176 -0.00205454 0)
(0.096814 -0.00208642 0)
(0.097386 -0.00207453 0)
(0.095652 -0.00211006 0)
(0.096236 -0.00209776 0)
(0.0944671 -0.00213799 -7.43149e-26)
(0.0950625 -0.00212355 0)
(0.0932575 -0.00216981 0)
(0.0938655 -0.00215339 0)
(0.0920202 -0.0022063 0)
(0.0926425 -0.00218739 0)
(0.0907526 -0.00224902 -1.36772e-28)
(0.0913903 -0.00222679 0)
(0.0894524 -0.00229963 1.52884e-28)
(0.0901069 -0.00227335 0)
(0.0881219 -0.00236787 8.27026e-26)
(0.0887879 -0.00232905 0)
(0.0867669 -0.00247188 -4.34896e-23)
(0.0874466 -0.00241451 1.06924e-23)
(0.085136 -0.00187 1.09427e-23)
(0.0860902 -0.00253712 2.17416e-23)
(0.0850762 0.00114349 -1.94955e-23)
(0.0848241 -0.000406818 -2.08553e-23)
(0.109768 0.0015408 3.14702e-24)
(0.109807 -0.00180498 2.23695e-23)
(0.0849665 0.00191743 2.45656e-24)
(0.0844602 -0.00118417 0)
(0.0850605 0.00259201 2.68601e-22)
(0.0854071 -0.00260522 3.34177e-23)
(0.0844259 -0.00193397 4.46051e-23)
(0.0867288 0.00357131 -4.4207e-22)
(0.0864755 0.00371555 8.10993e-23)
(0.0847722 0.000357237 0)
(0.0875048 0.00341007 4.48651e-23)
(0.0870093 0.00351341 2.28986e-23)
(0.0887496 0.00330442 4.04996e-23)
(0.0880894 0.00334687 -6.17488e-23)
(0.090051 0.00321201 -2.01399e-23)
(0.0894113 0.00326007 -1.00511e-23)
(0.0913025 0.00312686 1.00952e-23)
(0.0906809 0.00316819 1.02247e-23)
(0.0925283 0.00304683 0)
(0.0919164 0.00308526 -1.84028e-26)
(0.093722 0.00297254 0)
(0.0931287 0.0030096 0)
(0.0948903 0.0029004 3.7493e-26)
(0.0943092 0.00293612 0)
(0.0960354 0.00283094 0)
(0.0954656 0.00286538 0)
(0.0971592 0.00276411 0)
(0.0965998 0.00279717 0)
(0.0982624 0.00269988 0)
(0.0977132 0.00273166 0)
(0.099346 0.00263729 3.43915e-26)
(0.0988064 0.00266828 0)
(0.100411 0.00257639 7.09618e-29)
(0.0998811 0.00260699 0)
(0.101461 0.00251625 0)
(0.100938 0.002546 0)
(0.102494 0.0024582 -6.41111e-26)
(0.10198 0.00248701 0)
(0.103512 0.00240172 0)
(0.103005 0.0024298 0)
(0.104513 0.00234643 0)
(0.104014 0.00237395 0)
(0.105498 0.00229204 0)
(0.105008 0.00231915 0)
(0.106468 0.00223814 0)
(0.105985 0.00226508 0)
(0.107422 0.00218311 0)
(0.106947 0.002211 0)
(0.108362 0.00212489 -1.73861e-24)
(0.107893 0.00215327 0)
(0.10929 0.00206097 0)
(0.108827 0.0020931 -3.36745e-24)
(0.110207 0.00199457 -3.66464e-27)
(0.109752 0.00202858 0)
(0.109917 0.00105561 -1.25652e-23)
(0.110668 0.00196808 7.56128e-25)
(0.110244 0.00151997 6.14823e-24)
(0.109586 0.00010286 4.52413e-24)
(0.109697 0.000581862 -3.12258e-24)
(0.109714 -0.000855043 -1.57305e-24)
(0.109593 -0.000378715 1.56905e-24)
(0.110278 -0.00178835 0)
(0.109944 -0.00132674 -1.42547e-23)
(0.109798 -0.00228571 -6.39573e-24)
(0.110714 -0.00224154 -1.22443e-23)
(0.110258 -0.0022633 2.81205e-23)
(0.108875 -0.00233501 -3.35649e-24)
(0.109338 -0.00231083 0)
(0.107938 -0.00237734 0)
(0.108408 -0.00235608 0)
(0.106987 -0.0024109 -1.19735e-28)
(0.107465 -0.00239491 0)
(0.106021 -0.00244023 0)
(0.106506 -0.00242607 0)
(0.105039 -0.00246644 6.00884e-26)
(0.105532 -0.00245362 0)
(0.10404 -0.0024911 0)
(0.104541 -0.00247891 0)
(0.103024 -0.00251519 0)
(0.103534 -0.00250318 0)
(0.101991 -0.00253942 0)
(0.102509 -0.00252727 0)
(0.100941 -0.00256432 -1.41277e-28)
(0.101468 -0.00255176 0)
(0.0998734 -0.002591 0)
(0.10041 -0.00257737 0)
(0.0987871 -0.00261988 0)
(0.0993327 -0.00260519 0)
(0.0976814 -0.00265195 0)
(0.0982365 -0.0026354 0)
(0.096555 -0.002687 0)
(0.0971209 -0.00266898 0)
(0.0954063 -0.00272664 7.43149e-26)
(0.0959835 -0.00270624 0)
(0.0942338 -0.00277133 0)
(0.0948231 -0.00274833 0)
(0.0930351 -0.00282201 0)
(0.0936378 -0.00279585 0)
(0.0918081 -0.00288016 -7.88738e-26)
(0.0924252 -0.00285007 0)
(0.0905513 -0.00294699 8.03358e-26)
(0.0911836 -0.00291251 0)
(0.0892632 -0.00302445 -8.17682e-26)
(0.0899109 -0.00298414 0)
(0.087954 -0.00312082 1.07437e-23)
(0.0886067 -0.00306775 -2.11947e-23)
(0.0866489 -0.0032518 -1.0818e-23)
(0.0872985 -0.00318097 2.19969e-23)
(0.0847118 -0.0026705 3.07186e-25)
(0.0859858 -0.00332329 2.21976e-23)
(0.0843061 0.00111877 -1.99808e-23)
(0.084072 -0.000443169 0)
(0.0841725 0.00186594 -1.93197e-22)
(0.0837141 -0.00122909 0)
(0.110756 0.00244126 -3.13661e-24)
(0.111189 0.00240293 2.2974e-24)
(0.110743 -0.00177158 -1.20393e-23)
(0.111164 -0.00221258 -1.36194e-23)
(0.0841109 0.00253338 -1.8791e-22)
(0.0837062 -0.0019941 -4.50415e-23)
(0.0855779 0.00369999 0)
(0.088161 0.00423787 -5.12081e-23)
(0.0840163 -0.00273685 -2.21093e-23)
(0.0853138 -0.00339307 3.35818e-23)
(0.0875861 0.00423004 1.02819e-22)
(0.0840127 0.000330098 0)
(0.0890787 0.00406412 0)
(0.0885879 0.00415436 -4.56256e-23)
(0.0902577 0.00393647 0)
(0.0896508 0.00399712 0)
(0.0914724 0.00382736 0)
(0.0908676 0.00387925 1.04131e-23)
(0.092651 0.00372891 0)
(0.092064 0.00377762 0)
(0.0938117 0.00363608 0)
(0.0932336 0.00368113 0)
(0.0949503 0.00354923 0)
(0.0943838 0.00359233 0)
(0.0960672 0.00346571 -3.7493e-26)
(0.0955114 0.00350703 0)
(0.0971634 0.00338562 0)
(0.0966178 0.00342527 0)
(0.09824 0.00330871 0)
(0.0977041 0.00334678 0)
(0.0992977 0.00323473 0)
(0.0987711 0.00327139 0)
(0.100337 0.00316313 -8.59165e-29)
(0.0998196 0.00319864 0)
(0.10136 0.00309366 8.37184e-29)
(0.100851 0.00312826 0)
(0.102367 0.00302572 0)
(0.101865 0.00305943 0)
(0.103358 0.00295977 7.92271e-29)
(0.102864 0.00299253 0)
(0.104335 0.00289542 0)
(0.103848 0.00292742 0)
(0.105296 0.00283235 0)
(0.104817 0.00286376 0)
(0.106242 0.00277017 0)
(0.105771 0.00280118 0)
(0.107173 0.00270839 0)
(0.106709 0.00273929 0)
(0.108088 0.00264581 0)
(0.107632 0.00267732 0)
(0.10899 0.00258188 0)
(0.108541 0.00261408 0)
(0.109878 0.00251326 3.33543e-24)
(0.109435 0.00254644 3.41858e-24)
(0.110318 0.00247649 -6.40227e-24)
(0.110388 0.0010383 -6.1677e-24)
(0.111124 0.00194224 0)
(0.110706 0.00149441 -6.21998e-24)
(0.110066 9.73259e-05 0)
(0.110171 0.000571548 6.29454e-24)
(0.110191 -0.000848759 9.39663e-24)
(0.110072 -0.000377583 -3.17745e-24)
(0.110416 -0.00131384 -1.84583e-23)
(0.110374 -0.00273547 3.21414e-24)
(0.111244 -0.0026712 1.19504e-23)
(0.110815 -0.00270924 0)
(0.109492 -0.00278978 -6.66882e-24)
(0.109936 -0.00276401 6.6908e-24)
(0.108594 -0.00283752 0)
(0.109045 -0.00281494 0)
(0.107681 -0.00287901 -1.40853e-28)
(0.10814 -0.00285895 0)
(0.106753 -0.0029163 0)
(0.107219 -0.00289811 0)
(0.10581 -0.00295079 0)
(0.106284 -0.00293382 0)
(0.104849 -0.00298373 0)
(0.105331 -0.0029674 0)
(0.103873 -0.00301611 0)
(0.104363 -0.00299996 0)
(0.10288 -0.00304872 6.45659e-26)
(0.103379 -0.00303236 0)
(0.101871 -0.00308236 -6.63156e-26)
(0.102378 -0.00306537 0)
(0.100845 -0.00311804 0)
(0.10136 -0.00309989 0)
(0.0998001 -0.00315633 0)
(0.100325 -0.00313684 0)
(0.098737 -0.00319812 0)
(0.0992709 -0.00317675 0)
(0.0976542 -0.00324388 0)
(0.0981982 -0.00322044 0)
(0.0965503 -0.00329478 0)
(0.0971049 -0.00326865 0)
(0.0954238 -0.00335163 0)
(0.0959899 -0.00332243 0)
(0.0942732 -0.00341545 -7.70171e-26)
(0.0948516 -0.00338261 0)
(0.0930969 -0.00348755 7.8505e-26)
(0.0936884 -0.0034504 0)
(0.091894 -0.00356901 -7.99591e-26)
(0.0924989 -0.00352711 0)
(0.0906642 -0.00366054 0)
(0.0912824 -0.00361346 0)
(0.0894076 -0.00376241 0)
(0.0900387 -0.00371005 0)
(0.0881402 -0.00387971 8.51277e-26)
(0.0887764 -0.00381857 1.08084e-23)
(0.0868636 -0.00402232 -5.62866e-23)
(0.0874973 -0.00394739 0)
(0.0846562 -0.00347165 -3.336e-23)
(0.0862305 -0.00410182 -3.05685e-25)
(0.0835339 0.00109232 6.24591e-23)
(0.0833107 -0.000475049 0)
(0.111627 0.00236875 -1.19466e-23)
(0.111679 -0.00264348 -2.3038e-23)
(0.0832909 0.00180263 -3.29671e-23)
(0.0844284 0.00325371 1.08644e-24)
(0.0833125 0.00247834 9.38221e-23)
(0.082968 -0.00126474 0)
(0.0829703 -0.00203672 1.12648e-23)
(0.0865511 0.0042051 -9.65242e-23)
(0.085602 0.00411228 8.23412e-23)
(0.084018 0.00334816 -8.10267e-23)
(0.0833081 -0.00279382 -3.38274e-23)
(0.0839773 -0.00354502 2.25592e-23)
(0.0856086 -0.00419462 2.21418e-23)
(0.083244 0.000302897 0)
(0.0897807 0.00482344 2.86853e-24)
(0.0883117 0.00484041 5.07756e-25)
(0.0891135 0.00482102 2.24206e-23)
(0.090811 0.00467338 2.21521e-23)
(0.0902983 0.00475495 -2.22671e-23)
(0.0919384 0.00452507 4.10351e-26)
(0.0913576 0.00459532 0)
(0.0930782 0.00440622 0)
(0.0925119 0.00446285 0)
(0.0941948 0.00429762 0)
(0.0936387 0.00435133 0)
(0.0952933 0.00419494 0)
(0.0947464 0.00424531 0)
(0.0963719 0.00409772 3.80468e-26)
(0.0958351 0.00414588 0)
(0.0974312 0.00400428 0)
(0.0969039 0.00405053 0)
(0.098472 0.00391458 0)
(0.0979539 0.00395898 0)
(0.0994948 0.00382843 0)
(0.0989856 0.00387109 0)
(0.1005 0.00374554 0)
(0.0999996 0.00378661 0)
(0.101489 0.0036655 -3.43056e-26)
(0.100997 0.00370519 0)
(0.102462 0.00358796 9.72008e-29)
(0.101978 0.00362649 0)
(0.10342 0.00351249 0)
(0.102943 0.00354996 0)
(0.104364 0.00343906 6.3795e-26)
(0.103894 0.00347555 0)
(0.105293 0.00336729 0)
(0.10483 0.003403 0)
(0.106208 0.00329683 0)
(0.105752 0.00333193 0)
(0.107108 0.00322724 0)
(0.10666 0.00326196 0)
(0.107994 0.00315797 0)
(0.107553 0.00319262 0)
(0.108866 0.00308814 0)
(0.108432 0.0031232 0)
(0.109723 0.00301695 5.42198e-26)
(0.109296 0.00305277 0)
(0.110567 0.00294325 -3.35e-24)
(0.110147 0.00298096 0)
(0.111396 0.00286204 3.19014e-24)
(0.110983 0.00290324 0)
(0.112215 0.00277633 3.03058e-24)
(0.111805 0.00281964 -3.10683e-24)
(0.111564 0.00191179 6.01619e-24)
(0.112624 0.00273499 0)
(0.112059 0.00233541 8.93859e-24)
(0.110847 0.00102121 0)
(0.111158 0.00147187 0)
(0.110536 9.27855e-05 0)
(0.110638 0.000559425 0)
(0.110657 -0.000840538 0)
(0.110543 -0.00037553 0)
(0.111196 -0.00175304 1.22701e-23)
(0.110876 -0.00130226 3.0546e-24)
(0.112104 -0.00261344 3.00263e-24)
(0.111606 -0.00218969 2.40101e-23)
(0.111874 -0.00309306 1.55814e-23)
(0.112687 -0.00302096 2.97495e-24)
(0.112281 -0.00305623 -6.05853e-24)
(0.11105 -0.00316328 3.20235e-24)
(0.111462 -0.00312794 -1.92075e-23)
(0.110212 -0.00322415 -1.35172e-28)
(0.110633 -0.00319409 0)
(0.109358 -0.00327744 0)
(0.109787 -0.00325111 0)
(0.10849 -0.00332656 -1.61934e-28)
(0.108926 -0.00330261 0)
(0.107606 -0.00337171 0)
(0.10805 -0.00334956 0)
(0.106707 -0.00341419 0)
(0.107158 -0.00339322 0)
(0.105792 -0.00345513 0)
(0.106251 -0.0034348 0)
(0.104862 -0.00349553 0)
(0.105329 -0.00347536 0)
(0.103915 -0.00353629 -1.28944e-25)
(0.10439 -0.00351583 0)
(0.102953 -0.00357832 0)
(0.103436 -0.0035571 0)
(0.101975 -0.0036226 0)
(0.102466 -0.00360014 0)
(0.100979 -0.00366987 0)
(0.101479 -0.00364583 0)
(0.0999656 -0.00372101 0)
(0.100474 -0.00369492 0)
(0.0989336 -0.00377678 -7.22115e-26)
(0.099452 -0.00374827 0)
(0.0978819 -0.00383825 0)
(0.0984103 -0.00380677 0)
(0.0968095 -0.00390635 0)
(0.0973484 -0.00387143 0)
(0.0957152 -0.00398208 7.70171e-26)
(0.0962652 -0.00394321 0)
(0.094598 -0.00406657 -2.32146e-28)
(0.0951595 -0.00402319 0)
(0.0934574 -0.00416068 1.59682e-25)
(0.0940306 -0.00411242 0)
(0.0922934 -0.00426478 0)
(0.0928783 -0.0042115 0)
(0.091106 -0.00437878 0)
(0.0917024 -0.0043204 0)
(0.089897 -0.00450125 -2.63477e-28)
(0.0905045 -0.00443997 0)
(0.0886669 -0.00463606 0)
(0.0892834 -0.00456618 0)
(0.0874621 -0.00480122 -3.34655e-23)
(0.0880603 -0.00471457 0)
(0.084968 -0.0042819 -2.98663e-25)
(0.0868681 -0.00489626 5.68265e-23)
(0.0827214 0.00104622 0)
(0.0874914 0.00484674 1.30089e-22)
(0.0824779 0.00174555 2.25217e-23)
(0.11289 0.00316822 -3.02488e-24)
(0.113276 0.00312551 0)
(0.112527 -0.00258496 2.91824e-24)
(0.113085 -0.00298117 -5.79947e-24)
(0.0825465 -0.000505119 0)
(0.0822127 -0.00129202 0)
(0.0826499 0.00255002 0)
(0.0822278 -0.00207249 -1.10949e-23)
(0.0825926 -0.00285299 -2.23236e-23)
(0.0832932 -0.00362278 0)
(0.084315 -0.00437187 5.74766e-23)
(0.0862542 -0.00499297 -4.58358e-23)
(0.0824636 0.000270538 0)
(0.0903697 0.00544801 -1.07936e-26)
(0.0866337 0.00480958 4.08224e-23)
(0.0889172 0.00552795 -1.45503e-22)
(0.0896411 0.00550501 4.26404e-23)
(0.0916546 0.00537423 -1.38666e-23)
(0.0910303 0.00539308 -2.22295e-23)
(0.0927136 0.00524157 0)
(0.0921969 0.00531932 0)
(0.0937886 0.00508307 -4.10314e-26)
(0.0932406 0.00515792 0)
(0.0948649 0.00495325 0)
(0.0943305 0.00501585 0)
(0.0959172 0.00483451 0)
(0.0953935 0.00489303 0)
(0.0969504 0.00472236 0)
(0.0964361 0.00477761 0)
(0.0979649 0.00461568 -3.80468e-26)
(0.0974599 0.00466848 0)
(0.0989616 0.00451322 0)
(0.0984654 0.00456395 0)
(0.0999414 0.00441481 0)
(0.0994536 0.00446353 0)
(0.100905 0.00432023 0)
(0.100425 0.00436706 0)
(0.101853 0.0042292 0)
(0.101381 0.0042743 0)
(0.102785 0.00414134 3.40934e-26)
(0.102321 0.0041849 0)
(0.103703 0.00405629 1.09842e-28)