/*--------------------------------*- C++ -*----------------------------------*\
  =========                 |
  \\      /  F ield         | OpenFOAM: The Open Source CFD Toolbox
   \\    /   O peration     | Website:  https://openfoam.org
    \\  /    A nd           | Version:  10
     \\/     M anipulation  |
\*---------------------------------------------------------------------------*/
FoamFile
{
    format      ascii;
    class       surfaceScalarField;
    location    "24";
    object      phi;
}
// * * * * * * * * * * * * * * * * * * * * * * * * * * * * * * * * * * * * * //

dimensions      [0 3 -1 0 0 0 0];

internalField   nonuniform List<scalar> 
57492
(
0.000247502
-1.12337e-05
-4.59738e-05
-0.000190295
-0.00017284
0.000282373
0.000137969
-2.90951e-05
8.19009e-05
0.000327187
-0.000379993
0.00315947
0.00338651
-0.000271931
-0.00627405
-0.00862818
0.00404532
0.00774233
0.00104517
-0.000969912
-0.000507625
0.000432365
-0.00187716
0.000354328
-0.000138099
0.00166093
0.000388261
-0.00122025
0.00150751
-0.0046275
0.00442267
-0.00130268
0.00127796
0.00424831
-0.00401876
-0.000672402
-0.000224688
0.000745794
0.000151296
-0.000127084
-0.000890349
0.000345031
0.000255127
-0.000351993
-3.02182e-05
-5.82138e-05
8.86525e-05
0.00237419
-0.0022739
-0.000855099
0.000754808
0.000325327
0.00191173
0.000137135
-0.000323931
0.000787339
0.00333902
-0.00380243
-0.000661231
0.00326483
-0.00292753
0.000135759
-0.000289619
0.00015386
-0.00167114
0.00122503
0.000581867
-0.00467076
0.000197311
0.00334648
0.00112698
0.00122171
-0.00473935
-0.00115312
-0.000135228
-0.000216409
-0.000729485
0.00108112
-0.000300496
0.000188085
-2.28166e-05
-0.00262564
0.00221943
0.000764212
-0.000358001
-0.00311326
0.000915378
-0.000427754
-0.00112667
0.000595011
0.000457097
7.45577e-05
-0.00077862
-0.000361617
1.35713e-05
-0.000369534
-0.0011415
0.00130143
0.000209609
-0.000418903
0.000117373
-6.80041e-05
0.00109031
-0.000727823
-0.000677456
0.000314966
-0.00094227
0.000739078
0.0012935
-0.00127805
-0.00245185
0.00231149
0.00141841
-0.0028458
-0.000696865
0.00226461
-0.000711673
-0.000153432
0.000865105
-0.000273008
-0.000438665
-0.00138222
0.00190288
-0.000793664
0.000204245
-0.000771849
-0.00081462
-0.000843749
0.00119808
-0.00023442
-0.00190169
0.00115075
0.000750944
-0.00432135
0.00241966
0.00473216
-0.000960624
0.000496847
-0.00426839
0.0035028
5.4214e-05
0.00117515
-0.000860781
0.00461195
-0.0047118
0.00203251
0.000424485
-0.00206873
0.00203662
-0.000142213
0.00243937
-0.000912347
-0.00181015
0.000283126
0.00273343
0.000130431
0.00129317
-0.000793791
0.00153725
0.00119681
0.00175729
-0.00467626
-0.000656123
0.000583416
0.00474897
-0.00481037
-0.000329974
0.000464083
0.00114408
0.00451163
-0.00443516
-0.00122055
0.00081288
-0.0042963
-0.00294878
0.00259812
0.00265291
-0.00230224
-0.000387693
0.00328804
-0.00584913
1.44013e-05
-0.000126379
-6.75946e-07
0.000112654
-0.000342728
5.13625e-06
7.2795e-05
-0.000143949
-0.000271573
-6.10292e-05
7.44515e-06
1.30612e-05
-1.37372e-05
9.74104e-06
3.32017e-06
0.00740236
0.0037847
-0.00594258
-0.00524448
0.00231969
-0.000688856
0.00577153
-0.00793405
0.00306656
0.00718717
0.00226131
-0.00641066
0.00161602
-0.00287293
0.00214268
-0.000885767
0.00236721
-0.00292276
0.00217157
-3.13034e-05
2.28308e-05
-2.76112e-06
-7.34727e-05
-3.80453e-06
-0.000233036
-3.07316e-05
-0.00295338
0.00537321
0.00338706
-0.00580689
0.00435807
-0.00494423
0.00297593
0.00477294
-0.00237567
0.0102673
-0.00158643
-0.00175272
-0.00692814
0.00216369
0.00554707
0.00255653
0.0015517
-0.00513063
0.00574262
4.73816e-05
-7.64767e-05
0.000129282
0.000827448
0.00177237
-0.00063172
-0.0019681
0.00105346
0.000101173
-0.000100301
2.78083e-05
7.24927e-05
-0.000309045
0.000208744
-0.00666344
0.00342282
-0.00202214
0.00526276
-0.00577831
-0.00254229
0.00165716
-0.00264045
0.00211019
-0.00524805
0.00196914
-2.62846e-05
-0.00095158
-0.000991281
-0.000717677
0.00224646
0.000440366
-0.000842114
-8.58937e-05
0.000210331
-0.000778152
-9.02467e-05
-0.000273421
-0.00145631
-0.000292249
-7.04671e-05
2.62034e-05
0.000336513
-0.000241728
-0.000609006
0.000558486
0.00016129
2.03457e-05
-0.000423364
9.5426e-05
-4.60325e-06
0.00012469
-3.0606e-06
-0.000646136
0.000372715
8.37043e-05
-0.00072984
0.00017627
-0.000485315
0.00427351
0.00333168
-0.000178479
0.00212875
-0.00648341
-1.02386e-05
0.00226375
-0.00179739
-0.000456116
0.000291981
0.00316388
-0.0034661
0.00327209
0.00194817
-0.000611283
-0.00460897
-0.000958516
0.000404292
0.00382631
0.00409566
-0.00310601
-0.00163143
-0.00303911
0.00122819
0.00344236
-0.00120402
0.00351355
-0.00394096
0.000401905
-0.00464503
9.21764e-05
3.91043e-05
-5.14167e-06
0.00110125
-0.000644389
-0.000629698
8.74016e-05
-0.000361292
0.00137514
0.000389036
-1.92618e-05
-0.000187504
0.000333972
6.86198e-05
-0.000215087
0.000997675
-0.0012238
3.86186e-05
-0.000360127
0.000835821
0.000521981
-0.000126032
9.98769e-05
-0.00618255
0.00364154
0.00596384
0.00775047
-0.0020415
-0.00825125
-0.00289654
0.00446445
-9.72134e-05
-0.000879219
-0.000165072
-0.000525409
9.29279e-06
4.7045e-05
-0.000131075
3.89354e-05
4.50941e-05
-0.000129969
0.00014348
3.35339e-05
-0.000297597
3.65537e-05
-0.000267175
-0.000314469
5.62348e-05
-0.000808958
-0.000337436
-0.00114813
-0.00123518
0.00141787
0.000965438
4.85054e-05
0.000601206
-0.00179784
-0.00161573
0.000429063
-0.00294535
0.00133373
-5.95198e-05
-0.00351183
0.000807204
-0.000240721
0.00087628
-0.00334718
0.00256385
-9.29523e-05
0.000679242
-0.00272795
0.00292499
0.00252852
-0.010197
-0.0017772
0.00219327
0.00303138
-0.00347485
0.00207397
-0.000324526
-1.64206e-06
2.19878e-05
-5.79289e-06
4.15083e-06
0.000285874
-4.14422e-05
0.0052376
-0.00316591
-0.00219619
0.000124495
0.00450176
-0.000124942
0.00478691
3.97586e-05
-0.00521436
0.00130267
0.00340955
7.46954e-05
0.000485564
-0.00304653
0.00386363
5.76018e-06
-1.15531e-05
0.000763214
-0.00213582
-0.00286851
0.00124539
0.00311126
0.00122511
-6.87741e-05
-0.00128837
0.000132034
0.000401351
-0.000118514
-0.00156986
0.000328114
0.00198082
0.000277401
-0.00144591
-0.000135265
7.34178e-05
-7.21747e-06
1.25206e-05
-4.8038e-06
-4.99279e-07
1.20642e-05
-2.77946e-07
-1.90037e-05
5.03908e-05
-0.000112943
7.4616e-05
-0.00178144
0.00274066
-0.000782943
0.00296069
-0.00387893
-0.0008632
-3.07496e-07
-0.00212758
0.002456
-0.00405403
0.000251917
-0.00277484
-0.00186757
0.000588382
0.00270863
0.00291189
-0.00542321
0.00260189
0.00431596
-0.00420922
0.0022394
-0.00308993
0.00161152
-0.000760999
0.00245335
-0.00302941
0.00281546
0.00438823
0.00187014
0.00493774
-0.000263233
-0.00490995
0.000235443
0.00546106
-0.000683781
0.000160461
0.00552306
-0.000851315
2.47733e-05
-0.00469651
0.00396808
-0.00132291
0.00287789
0.00431543
-0.00137833
0.0011131
-0.0040502
0.00123868
0.004398
-0.00132125
-0.00388537
-0.00164362
0.00415065
0.00104208
-0.00369926
-0.00183167
0.00363041
-0.00235687
-0.00325304
0.00212883
0.00348109
-0.00237769
-0.00328253
0.00330336
0.00222052
0.00306305
-0.00146192
-0.00382165
0.00303761
-0.00319479
-0.00257505
0.00259446
0.0030182
-0.00203156
0.00251957
-0.00408352
0.00362998
-0.00100838
-0.00508702
0.00104034
0.00539708
-0.0013504
0.00190309
-0.000362241
0.0011318
-0.00119341
0.00042385
-0.00018897
0.00143458
-0.00160785
-5.60745e-05
0.000325518
0.000119593
-0.00156321
-0.00239342
0.00154871
-1.66077e-07
-1.11871e-07
2.83018e-07
-4.49093e-07
-0.00015386
-0.00266693
0.002027
-0.00234478
-0.000106578
0.0022975
7.57147e-05
-0.00245793
3.7434e-05
-0.000398637
0.00191732
0.000427223
-0.00194591
0.00204399
0.000450684
-0.00289331
0.00191351
0.0020478
-2.92471e-06
9.13259e-07
4.11158e-05
-4.74621e-06
1.8215e-06
-3.83295e-06
-6.03837e-06
4.94958e-06
-5.99404e-05
1.34242e-06
-7.38078e-06
6.292e-06
-4.62514e-05
2.23394e-05
-0.000276584
2.36629e-05
-6.99143e-05
4.60023e-05
5.35467e-05
-5.3914e-06
-0.000174188
-1.70243e-05
7.0571e-05
-2.24157e-05
0.00134856
0.00329666
-0.00424093
0.0014293
-0.00453548
0.00445474
0.00469561
3.03551e-05
-0.00118504
-0.00244506
0.00116089
0.00246921
-0.000708568
0.00272098
-0.00319745
0.000160094
-0.00331372
0.00412397
-0.00416217
-1.32273e-05
5.14329e-05
0.0041229
3.70675e-05
-3.59997e-05
-2.59829e-05
-0.00415509
1.89009e-05
0.00415442
-1.53582e-06
-2.99871e-05
0.00422889
6.0132e-05
-0.000134601
2.93904e-05
0.00433478
-0.000135281
0.00428265
-0.00425678
3.51554e-06
-0.000201959
0.00453774
-1.00102e-06
0.00416398
-8.32862e-05
-0.00412585
-7.07954e-05
-0.00411102
-1.63625e-05
-0.0041046
3.06458e-05
-0.00419189
7.40661e-05
-0.00412252
-9.53515e-05
-0.000195913
0.00473488
-1.22989e-06
0.00396987
-1.80533e-06
-2.076e-05
-0.00411922
-1.51108e-05
-0.00415518
1.18905e-05
-2.93925e-05
-0.00435596
0.000266136
-4.902e-07
0.00473615
-7.80415e-07
0.00397158
-2.19654e-06
-0.00430662
0.000122051
0.00473748
-3.04618e-07
-1.02491e-06
-4.33899e-07
0.00473849
-5.78041e-07
0.0039729
-1.63104e-06
0.00397451
-2.04172e-06
-2.48222e-05
-0.00432844
-2.69981e-06
-0.00432838
-3.06341e-06
-1.81846e-07
0.00473952
-8.42999e-07
0.0039758
-1.47551e-06
-4.04045e-07
-0.0043254
-2.6389e-06
-0.00432511
-3.66967e-06
-1.86826e-07
0.00474011
-3.9986e-07
0.00397752
-1.90162e-06
-2.62485e-07
-0.00432197
-3.16052e-06
-0.00432195
-3.42589e-06
3.08893e-07
0.00474048
-6.82722e-07
0.00397916
-1.33574e-06
-3.58517e-07
-0.0043185
-3.11475e-06
-0.00431827
-4.04155e-06
7.89455e-07
0.00473993
-2.42792e-07
0.00398173
-1.77651e-06
-1.89616e-07
-0.00431466
-3.64749e-06
-0.00431462
-3.83244e-06
2.2657e-06
0.00473821
-5.42211e-07
0.0039852
-1.20752e-06
9.74355e-06
-0.00432077
-3.63699e-06
-0.00430041
-4.46753e-06
4.69746e-06
0.00473362
-1.05156e-07
0.00399156
-1.65743e-06
2.79451e-05
-0.00419548
-0.00015324
-0.00422362
-4.88417e-05
1.00737e-05
0.00472396
-4.1855e-07
0.00398425
1.7387e-05
2.77015e-05
-0.00421216
-1.10168e-05
-0.00418876
-7.16768e-06
2.02154e-05
0.00470373
1.97237e-08
0.00395684
4.7624e-05
5.9756e-05
-0.00406042
-0.000211494
-0.00406456
-6.4444e-05
0.000201225
0.00450281
-3.02463e-07
0.00407773
8.03341e-05
6.88272e-05
-0.00403874
-9.05053e-05
-0.0040167
2.09734e-05
0.00017765
0.00417131
0.000153847
0.00414545
0.000109931
0.000109779
-0.00015842
-0.0039901
-0.00399739
9.04633e-05
1.1997e-05
4.02534e-05
0.00411906
0.00411893
3.85109e-05
-0.00405359
0.00412073
-0.000157645
-0.00407291
-0.000139097
0.000187436
-0.000166829
-0.00401071
9.0824e-05
-0.00390077
-0.00403561
0.00407396
-4.93633e-05
-0.000126373
-0.00392897
0.0039328
-7.47141e-06
-8.25322e-06
-0.0039364
0.00393979
-6.51255e-06
-7.23956e-06
-0.00394298
0.003946
-5.662e-06
-6.34764e-06
-0.00394886
0.00421992
-4.92284e-06
-5.5565e-06
-0.00420968
0.00415348
7.50958e-05
-4.86986e-06
-0.00428855
0.00425623
-3.67581e-06
-8.36365e-05
-0.00412111
0.00406197
-7.54615e-05
0.000105135
-0.00396651
0.00396821
-2.70056e-06
-3.98208e-05
-0.0039698
0.00397132
-2.2977e-06
-2.82576e-06
-0.00397275
0.00397411
-1.93797e-06
-2.45392e-06
-0.00397539
0.00397661
-1.61923e-06
-2.12417e-06
-0.00397776
0.00397885
-1.3372e-06
-1.83281e-06
-0.00397989
0.00398087
-1.08765e-06
-1.57605e-06
-0.0039818
0.00398268
-8.63142e-07
-1.34833e-06
-0.00395995
0.00405365
6.01448e-05
2.24277e-05
0.00404398
4.99286e-05
-2.51749e-05
7.97121e-05
0.00406452
-4.2275e-06
0.00409798
0.00406881
-0.00400123
1.27546e-05
-0.0041089
0.00410059
4.68275e-05
6.98407e-05
0.00400026
-0.00398086
-2.01628e-06
4.66533e-05
0.00397988
-0.00397884
-2.2473e-06
-2.63392e-06
0.00397775
-0.0039766
-2.49455e-06
-2.86399e-06
0.00397538
-0.00397409
-2.76797e-06
-3.11469e-06
0.00397274
-0.00397129
-3.07379e-06
-3.39501e-06
0.00396978
-0.00396817
-3.41772e-06
-3.70959e-06
0.00404739
-0.00404007
-3.8088e-06
-4.06546e-06
0.00410639
-0.00406041
-6.23505e-05
-4.46705e-06
0.00403224
-0.00400415
4.59666e-05
2.48455e-06
0.00405249
-0.00407688
3.62799e-05
-4.70038e-05
0.00394882
-0.00394596
-5.91699e-06
-6.0145e-06
0.00394296
-0.00393975
-6.63613e-06
-6.67529e-06
0.00393636
-0.00393274
-7.45195e-06
-7.42877e-06
0.00392892
-0.00396938
-8.38299e-06
-8.28829e-06
0.00396728
-0.00402227
-9.44792e-06
-9.27017e-06
0.00399089
-0.00392958
2.91532e-05
-1.04059e-05
-0.00388328
4.45227e-05
-0.00410052
-0.000139222
0.00405689
6.67971e-05
-7.64615e-07
0.00409712
0.000143975
-0.000133196
-0.00391155
0.000110154
-0.00384946
0.000140897
-0.000135756
-0.00410566
-0.00400301
-0.00403053
0.00396845
-9.55621e-05
0.00407316
-0.00410365
-0.000108731
-9.64675e-05
-0.00392129
0.00392543
-5.34998e-05
-7.92114e-05
-0.00392946
0.00393327
-1.12817e-05
-1.22884e-05
-0.00393684
0.00394021
-9.88619e-06
-1.08067e-05
-0.00394337
0.00394637
-8.6591e-06
-9.51061e-06
-0.00394919
0.00395184
-7.58095e-06
-8.37089e-06
-0.00395435
0.00403608
-6.63718e-06
-7.37306e-06
-0.00395894
0.00396106
-5.79478e-06
-6.49303e-06
-0.00407191
0.0040015
-5.05197e-06
-5.72165e-06
-0.0039667
0.00396839
-4.39104e-06
-5.02093e-06
-0.00396998
0.00397149
-3.8075e-06
-4.41363e-06
-0.00397291
0.00397426
-3.29034e-06
-3.87376e-06
-0.00397554
0.00397675
-2.83222e-06
-3.3966e-06
-0.00397789
0.00397898
-2.42653e-06
-2.97466e-06
-0.00398001
0.00398099
-2.06707e-06
-2.60193e-06
-0.00398191
0.00398279
-1.74395e-06
-2.27127e-06
-0.00398332
0.00401611
2.73483e-05
2.19005e-05
9.46363e-06
-1.8412e-05
0.00407347
1.84377e-06
0.00406451
-0.00400459
0.0040447
2.66835e-05
6.1451e-05
0.00404663
-0.00404712
4.73175e-05
0.00401449
3.13837e-05
-1.52005e-06
4.65941e-05
0.00405205
0.00407805
0.00404726
-0.00401717
-1.73382e-05
6.99759e-05
0.0039819
-0.00398097
-2.94841e-06
1.13842e-05
0.00397999
-0.00397896
-3.28119e-06
-3.60655e-06
0.00397788
-0.00397673
-3.64516e-06
-3.94418e-06
0.00397552
-0.00397424
-4.05084e-06
-4.31867e-06
0.0039729
-0.00397147
-4.50556e-06
-4.73847e-06
0.00396997
-0.00396837
-5.01638e-06
-5.21043e-06
0.00396669
-0.0039649
-5.59413e-06
-5.74347e-06
0.00396303
-0.00401913
-6.24313e-06
-6.3443e-06
0.00400962
-0.00395668
-6.97634e-06
-7.02501e-06
0.00399589
-0.0039518
-7.81223e-06
-7.79226e-06
0.00394915
-0.00394631
-8.75163e-06
-8.66691e-06
0.00394333
-0.00394014
-9.82431e-06
-9.66085e-06
0.00393678
-0.00393318
-1.10465e-05
-1.07927e-05
0.00392938
-0.00392532
-1.24439e-05
-1.20859e-05
0.00392103
-0.00391643
-1.40445e-05
-1.35664e-05
0.00391157
-0.00386653
-1.58805e-05
-1.52695e-05
0.00383947
-0.00378191
5.25938e-05
1.74562e-05
-0.00412852
-0.000110891
9.56268e-05
-0.000159321
-0.00378577
-0.00375307
6.67917e-05
-0.000221334
-0.00384954
2.55444e-05
0.004021
0.00402097
4.01095e-05
-7.06734e-05
9.11617e-05
-0.00412615
-7.17784e-05
-0.00412741
6.90863e-05
-0.00015705
-0.0036978
3.97037e-05
-0.00372369
-0.00413318
0.00405507
-0.0040427
1.43092e-05
0.00401395
6.66634e-05
7.06912e-05
-3.01735e-05
0.00401153
4.55744e-05
0.00404609
-0.00408084
0.00412942
-0.000120357
-0.000128006
0.000103235
-0.00410264
0.00416735
-7.16279e-05
0.000311782
-0.0044075
-4.14986e-05
-0.00412854
0.00409962
-7.98045e-05
-0.000110017
-0.0040501
0.003989
-3.44588e-05
-4.69519e-05
-0.00396258
0.00392623
-1.71473e-05
-5.27924e-05
-0.00393021
0.00393398
-1.50461e-05
-1.62736e-05
-0.0039375
0.00394083
-1.3218e-05
-1.43298e-05
-0.00394396
0.00394691
-1.16177e-05
-1.26338e-05
-0.00394969
0.00395232
-1.02128e-05
-1.11473e-05
-0.00395479
0.00395713
-8.97668e-06
-9.84259e-06
-0.00395933
0.00396142
-7.88499e-06
-8.6942e-06
-0.00396338
0.00396525
-6.92011e-06
-7.67977e-06
-0.00396701
0.00396868
-6.06233e-06
-6.77937e-06
-0.00397025
0.00397175
-5.30308e-06
-5.98466e-06
-0.00397315
0.00397449
-4.63008e-06
-5.27995e-06
-0.00397575
0.00397695
-4.03404e-06
-4.65683e-06
-0.00397808
0.00397916
-3.50617e-06
-4.1057e-06
-0.00398018
0.00398115
-3.03848e-06
-3.61848e-06
-0.00398207
0.00398294
-2.62028e-06
-3.18667e-06
-0.00399476
0.00400219
1.99188e-05
1.00874e-05
2.09409e-05
2.63971e-05
-9.88123e-06
0.00405695
-4.24004e-05
1.11615e-05
0.00405224
0.00404851
0.004038
0.00403542
-0.00403062
4.25174e-05
-0.00403009
0.00400857
6.16299e-05
3.67106e-05
0.00398374
-0.0039976
-3.4824e-06
2.30972e-05
0.00398204
-0.00398112
-3.87278e-06
-4.16989e-06
0.00398016
-0.00397913
-4.30471e-06
-4.5687e-06
0.00397806
-0.00397693
-4.78399e-06
-5.0134e-06
0.00397573
-0.00397446
-5.32016e-06
-5.50998e-06
0.00397314
-0.00397172
-5.92193e-06
-6.06749e-06
0.00397024
-0.00396865
-6.59864e-06
-6.69476e-06
0.00396699
-0.00396523
-7.36247e-06
-7.40235e-06
0.00396337
-0.00396139
-8.22407e-06
-8.20161e-06
0.00395931
-0.00395709
-9.19721e-06
-9.10567e-06
0.00395475
-0.00395226
-1.03019e-05
-1.01296e-05
0.00394963
-0.00394683
-1.15531e-05
-1.12918e-05
0.00394388
-0.00394073
-1.2977e-05
-1.26131e-05
0.0039374
-0.00393385
-1.46002e-05
-1.41187e-05
0.00393009
-0.00392608
-1.6456e-05
-1.58392e-05
0.00392184
-0.0039173
-1.85827e-05
-1.78096e-05
0.0039125
-0.00390735
-2.10269e-05
-2.00732e-05
0.00386721
-0.00379076
-2.38598e-05
-2.26815e-05
0.00374425
-0.00374699
4.2441e-05
2.02858e-05
5.39226e-05
-5.7779e-05
-0.00371983
-0.00372356
3.04937e-05
0.000125822
-0.00414874
-9.70068e-05
-0.00390958
3.86554e-05
0.00398646
0.00402277
3.13777e-05
0.000154587
-0.00432886
9.09648e-06
-0.00376468
0.000863591
-0.00346965
0.00451958
-4.87144e-05
2.03897e-05
-0.00369524
-8.99362e-05
-0.00367861
-0.00274106
0.00417687
0.000611983
-0.00213106
-0.000182771
-0.00410437
-0.00396515
0.00413644
0.000140496
0.000323791
-0.000112073
-0.00409983
0.00406594
-8.64765e-05
-4.88577e-06
-0.00403591
0.00398392
-2.78136e-05
-7.99817e-05
-0.00396313
0.003953
-2.43248e-05
-2.61629e-05
-0.00392315
0.00392732
-2.13227e-05
-2.29458e-05
-0.00393123
0.00393492
-1.87378e-05
-2.01806e-05
-0.00393838
0.00394165
-1.64903e-05
-1.7788e-05
-0.00394472
0.00394763
-1.45254e-05
-1.57025e-05
-0.00395036
0.00395295
-1.28009e-05
-1.38764e-05
-0.00395538
0.00395768
-1.1283e-05
-1.22724e-05
-0.00395985
0.00396191
-9.94345e-06
-1.086e-05
-0.00396384
0.00396568
-8.75894e-06
-9.61349e-06
-0.00396741
0.00396906
-7.70897e-06
-8.50965e-06
-0.00397061
0.00397208
-6.77785e-06
-7.53308e-06
-0.00397347
0.00397479
-5.9522e-06
-6.66717e-06
-0.00397603
0.00397722
-5.22047e-06
-5.90068e-06
-0.00397834
0.0039794
-4.57234e-06
-5.22242e-06
-0.00398041
0.00398137
-3.99814e-06
-4.62252e-06
-0.00398227
0.00398314
-3.48762e-06
-4.09142e-06
-0.00399685
0.0040198
-3.03616e-06
-3.62076e-06
-0.00401074
0.00400888
1.61646e-05
3.00071e-05
-0.00402514
0.00402107
4.2733e-05
5.03992e-05
5.54245e-05
-3.09489e-05
0.00402777
-3.36575e-05
6.39905e-06
0.00404833
0.00400822
3.93399e-05
1.57665e-05
0.00400185
0.0040569
-2.68084e-05
1.78232e-05
0.00402052
0.00402696
-2.20658e-05
1.54945e-06
0.00404329
0.00404185
0.0040457
-0.00403099
4.69282e-05
-0.00410861
0.00399943
0.000110728
-3.15324e-05
0.00402053
-0.00401159
3.35824e-05
2.62425e-05
0.00398391
-0.00398309
-4.30603e-06
-4.58173e-06
0.00398223
-0.00398132
-4.78368e-06
-5.02515e-06
0.00398037
-0.00397936
-5.31442e-06
-5.51775e-06
0.00397831
-0.00397719
-5.90735e-06
-6.06814e-06
0.00397601
-0.00397476
-6.57183e-06
-6.68488e-06
0.00397345
-0.00397205
-7.31847e-06
-7.37798e-06
0.00397059
-0.00396903
-8.15868e-06
-8.15825e-06
0.00396739
-0.00396565
-9.10655e-06
-9.03838e-06
0.00396382
-0.00396187
-1.01765e-05
-1.00328e-05
0.00395981
-0.00395762
-1.13864e-05
-1.11575e-05
0.00395532
-0.00395287
-1.27573e-05
-1.24313e-05
0.00395028
-0.00394752
-1.43123e-05
-1.3877e-05
0.00394462
-0.00394151
-1.60808e-05
-1.55202e-05
0.00393824
-0.00393474
-1.80967e-05
-1.73922e-05
0.00393105
-0.00392711
-2.04006e-05
-1.95306e-05
0.00392294
-0.00391848
-2.30408e-05
-2.19791e-05
0.00391376
-0.00390871
-2.60769e-05
-2.47914e-05
0.00390336
-0.00389763
-2.95876e-05
-2.8034e-05
0.00384555
-0.00376943
-3.36746e-05
-3.17933e-05
0.0037675
-0.00374811
9.98121e-07
2.85617e-05
2.76018e-05
-3.02084e-05
-0.00369263
-0.00371662
-3.89167e-06
0.000121936
-0.00411608
-2.89235e-05
-0.00387156
0.000312983
-0.00377825
9.77388e-06
-0.00386439
0.00402266
-0.00402813
4.82054e-05
0.00400898
2.00754e-05
4.8432e-05
-3.27285e-05
0.00402758
1.09089e-05
0.00403695
0.000307572
-0.00332654
1.89305e-05
-0.00372775
-0.00197708
-0.00209989
-0.00325028
0.00374178
0.000120484
5.47841e-05
-3.53346e-05
-0.00371208
2.37848e-05
-0.00368562
-0.00301735
-0.000415708
-0.00401135
-0.00390822
0.0039638
8.49212e-05
0.000157351
-0.00399932
0.00395052
-3.76688e-05
-4.04127e-05
-0.00390587
0.00391099
-3.29399e-05
-3.5333e-05
-0.00391581
0.00392037
-2.88828e-05
-3.0979e-05
-0.00392465
0.0039287
-2.53754e-05
-2.72277e-05
-0.0039325
0.0039361
-2.23354e-05
-2.39819e-05
-0.00393948
0.00394267
-1.96869e-05
-2.11627e-05
-0.00394567
0.00394852
-1.73697e-05
-1.87025e-05
-0.00395119
0.00395372
-1.53354e-05
-1.65473e-05
-0.0039561
0.00395836
-1.35439e-05
-1.46532e-05
-0.00396049
0.00396251
-1.19629e-05
-1.29846e-05
-0.00396441
0.00396621
-1.05645e-05
-1.15115e-05
-0.00396791
0.00396953
-9.32571e-06
-1.0208e-05
-0.00397105
0.0039725
-8.22683e-06
-9.05389e-06
-0.00397386
0.00397516
-7.25192e-06
-8.03055e-06
-0.00397638
0.00397755
-6.38757e-06
-7.12391e-06
-0.00397865
0.0039797
-5.62143e-06
-6.3211e-06
-0.00398069
0.00398163
-4.94282e-06
-5.61066e-06
-0.00398252
0.00398337
-4.34114e-06
-4.98198e-06
-0.00398418
0.00398495
-3.80679e-06
-4.42523e-06
-0.00401889
0.00400555
2.9506e-05
-3.93304e-06
2.78146e-05
4.23634e-05
-6.83951e-05
0.0040538
-1.68501e-05
2.94424e-05
0.00403573
0.00403374
3.52334e-11
-5.87809e-07
0.00400243
0.00398851
-3.79048e-05
5.64548e-05
0.00400197
0.00398846
0.00406557
0.0040481
-0.00403567
3.44997e-05
-0.00399824
0.00403916
6.98e-05
1.83312e-05
0.00402308
-0.00398488
-4.61309e-06
1.36507e-05
0.00398412
-0.00398331
-5.11587e-06
-5.34393e-06
0.00398247
-0.00398158
-5.67834e-06
-5.86689e-06
0.00398064
-0.00397965
-6.3071e-06
-6.45067e-06
0.00397861
-0.00397751
-7.01146e-06
-7.10504e-06
0.00397635
-0.00397512
-7.80206e-06
-7.83966e-06
0.00397384
-0.00397246
-8.69074e-06
-8.66582e-06
0.00397103
-0.00396949
-9.69142e-06
-9.59626e-06
0.00396789
-0.00396617
-1.082e-05
-1.06458e-05
0.00396437
-0.00396246
-1.20943e-05
-1.18315e-05
0.00396044
-0.00395829
-1.35353e-05
-1.31723e-05
0.00395603
-0.00395362
-1.51673e-05
-1.46907e-05
0.00395109
-0.00394838
-1.70184e-05
-1.64132e-05
0.00394553
-0.00394249
-1.91228e-05
-1.83704e-05
0.00393928
-0.00393586
-2.15204e-05
-2.05992e-05
0.00393224
-0.00392839
-2.42593e-05
-2.31434e-05
0.00392431
-0.00391995
-2.73965e-05
-2.60552e-05
0.00391535
-0.00391042
-3.10021e-05
-2.93977e-05
0.00390521
-0.00389963
-3.51631e-05
-3.32485e-05
0.00389372
-0.00388741
-3.99865e-05
-3.77023e-05
0.00381598
-0.00376939
-4.55838e-05
-4.28752e-05
0.00372438
-0.00368901
-1.15837e-05
-4.89067e-05
6.30767e-05
-3.37074e-05
-0.00371499
-0.00366154
3.56107e-05
9.14232e-05
-0.00389452
1.72146e-06
-0.00386351
4.74586e-05
0.00399097
0.00402442
2.56508e-05
0.000183107
-0.00365378
-0.000468729
-0.00440166
-5.86497e-05
-0.00373662
1.04768e-05
-0.00385594
2.02731e-05
-0.00378336
-0.00433536
-0.000781883
0.00018141
-0.000484535
-0.00403223
-0.000296579
-0.00392367
-3.40853e-05
-0.0037117
2.11496e-05
-8.66771e-05
-0.00364946
5.61557e-05
-0.00369655
-0.00391821
-0.00355015
0.00371388
-4.32415e-05
0.00372828
-0.0040986
-0.000411563
-0.00023758
-0.00383332
0.00389195
2.6286e-05
3.79085e-05
-0.00389769
0.00390316
-4.31397e-05
-4.61441e-05
-0.00390833
0.00391325
-3.78582e-05
-4.05084e-05
-0.00391788
0.00392227
-3.32756e-05
-3.561e-05
-0.0039264
0.00393032
-2.92925e-05
-3.13587e-05
-0.003934
0.00393749
-2.5824e-05
-2.76621e-05
-0.00394077
0.00394388
-2.27942e-05
-2.44395e-05
-0.00394679
0.00394956
-2.01397e-05
-2.16216e-05
-0.00395217
0.00395464
-1.78068e-05
-1.915e-05
-0.00395696
0.00395917
-1.57512e-05
-1.69762e-05
-0.00396124
0.00396322
-1.39361e-05
-1.50598e-05
-0.00396507
0.00396684
-1.23304e-05
-1.33671e-05
-0.0039685
0.00397008
-1.09076e-05
-1.18692e-05
-0.00397157
0.00397299
-9.64539e-06
-1.05423e-05
-0.00397432
0.0039756
-8.52513e-06
-9.36566e-06
-0.0039768
0.00397794
-7.53133e-06
-8.32249e-06
-0.00397902
0.00398004
-6.65016e-06
-7.39816e-06
-0.00398101
0.00398194
-5.8692e-06
-6.57966e-06
-0.00398281
0.00398365
-5.17714e-06
-5.85522e-06
-0.00398444
0.0039852
-4.564e-06
-5.21411e-06
-0.00398591
0.00401943
-4.01868e-06
-4.64588e-06
-0.00402295
0.00403277
3.83791e-05
2.43004e-05
-0.00397935
0.00399675
3.00582e-05
7.34999e-05
6.62835e-05
-4.89607e-05
0.00401841
-1.31675e-05
-1.01771e-05
0.00402009
0.00404408
4.95338e-05
5.36113e-07
0.00400373
0.00403431
2.08956e-08
-5.84788e-07
0.004003
0.00398906
1.14403e-06
-1.70566e-06
0.00400253
0.00398902
-2.77069e-05
2.14961e-05
0.00403379
0.00403616
-1.449e-05
1.94152e-05
0.0040195
0.00404396
0.00405274
-0.0040066
2.36538e-05
-0.00403438
0.0040111
4.26954e-05
4.40121e-05
0.00401423
-0.00400504
2.53118e-05
2.5962e-05
0.00398583
-0.00398512
-5.32963e-06
-5.55506e-06
0.00398437
-0.00398358
-5.9079e-06
-6.09079e-06
0.00398275
-0.00398188
-6.55465e-06
-6.69123e-06
0.00398096
-0.00397999
-7.27964e-06
-7.36465e-06
0.00397897
-0.00397789
-8.09305e-06
-8.12084e-06
0.00397676
-0.00397556
-9.00682e-06
-8.9707e-06
0.0039743
-0.00397295
-1.00345e-05
-9.92694e-06
0.00397154
-0.00397004
-1.11918e-05
-1.10041e-05
0.00396847
-0.00396679
-1.2497e-05
-1.22192e-05
0.00396503
-0.00396316
-1.39706e-05
-1.35914e-05
0.00396119
-0.00395909
-1.56363e-05
-1.51429e-05
0.00395688
-0.00395452
-1.75223e-05
-1.68993e-05
0.00395205
-0.0039494
-1.96609e-05
-1.88907e-05
0.00394662
-0.00394365
-2.20906e-05
-2.11525e-05
0.00394053
-0.00393719
-2.48572e-05
-2.37264e-05
0.00393367
-0.00392991
-2.80152e-05
-2.66624e-05
0.00392595
-0.00392172
-3.16297e-05
-3.00199e-05
0.00391724
-0.00391247
-3.57794e-05
-3.38704e-05
0.00390741
-0.00390202
-4.05601e-05
-3.83006e-05
0.0038963
-0.0038902
-4.60868e-05
-4.34148e-05
0.00388374
-0.00387683
-5.24918e-05
-4.93371e-05
0.00386952
-0.00382116
-5.99471e-05
-5.62225e-05
0.00377359
-0.00369882
-1.86166e-05
-1.19533e-05
-1.36293e-06
-3.97549e-05
-0.00365543
-0.00369044
-9.74271e-06
6.17685e-05
-0.00377319
-0.00414691
-0.000436221
3.20036e-05
-0.00374444
0.00404838
-0.00405806
3.97336e-05
0.0040452
-6.99169e-06
4.10196e-05
-3.50543e-05
0.00401353
5.13904e-05
0.00400073
1.89486e-06
-0.00385493
1.12379e-05
-0.0038469
-9.66268e-05
-0.00393657
2.16746e-05
-0.00383912
3.33466e-05
-0.00383173
4.63583e-05
-0.00373557
1.41489e-05
1.20176e-05
-0.0036816
-3.70712e-05
-0.00363922
-0.00385455
-0.00401341
0.00382965
-0.00022781
-0.000367981
0.000482702
-0.00426163
0.00417742
-0.00433816
-0.000207233
-0.000272213
-0.00369793
0.00376783
-0.000113138
-0.000105856
-0.00384781
0.00389522
-2.11244e-05
-4.2072e-05
-0.00390077
0.00390603
-4.84084e-05
-5.16914e-05
-0.003911
0.00391573
-4.25823e-05
-4.54793e-05
-0.00392018
0.0039244
-3.75005e-05
-4.00601e-05
-0.00392838
0.00393215
-3.3067e-05
-3.53354e-05
-0.00393571
0.00393907
-2.91937e-05
-3.12126e-05
-0.00394224
0.00394525
-2.58021e-05
-2.76081e-05
-0.00394808
0.00395077
-2.28255e-05
-2.44498e-05
-0.00395329
0.00395569
-2.02066e-05
-2.16757e-05
-0.00395795
0.00396009
-1.78972e-05
-1.92333e-05
-0.00396211
0.00396403
-1.58566e-05
-1.70785e-05
-0.00396584
0.00396756
-1.40504e-05
-1.5174e-05
-0.00396918
0.00397072
-1.24495e-05
-1.3488e-05
-0.00397217
0.00397356
-1.10289e-05
-1.19937e-05
-0.00397486
0.0039761
-9.7677e-06
-1.06683e-05
-0.00397727
0.00397839
-8.64823e-06
-9.49256e-06
-0.00397944
0.00398044
-7.65506e-06
-8.45011e-06
-0.00398139
0.0039823
-6.77442e-06
-7.52643e-06
-0.00398315
0.00398397
-5.99392e-06
-6.70849e-06
-0.00398474
0.00398548
-5.30234e-06
-5.98459e-06
-0.00398617
0.00398684
-4.68749e-06
-5.34355e-06
-0.00401592
0.00403084
2.34532e-05
-4.77483e-06
4.6286e-05
1.83053e-05
-4.35548e-05
0.00404366
-2.94258e-05
9.63527e-07
0.00404856
0.00403296
-1.01657e-06
4.85212e-07
0.00400426
0.00398974
4.74981e-08
-5.85467e-07
0.00400354
0.0039896
1.12142e-06
-1.65776e-06
0.00400306
0.00398956
-4.48735e-05
3.26925e-05
0.00404597
0.00398963
0.0040416
0.00404705
-0.00404916
2.57598e-05
-0.00403867
0.00402136
6.0001e-05
5.23983e-05
0.00401751
-0.00398675
-5.4536e-06
-5.68179e-06
0.00398609
-0.00398539
-6.03103e-06
-6.21567e-06
0.00398466
-0.00398389
-6.68071e-06
-6.81863e-06
0.00398308
-0.00398223
-7.41015e-06
-7.49586e-06
0.00398133
-0.00398038
-8.22902e-06
-8.2569e-06
0.00397939
-0.00397834
-9.14866e-06
-9.11237e-06
0.00397723
-0.00397606
-1.01824e-05
-1.00745e-05
0.00397483
-0.00397352
-1.13452e-05
-1.11573e-05
0.00397214
-0.00397068
-1.26549e-05
-1.23773e-05
0.00396915
-0.00396751
-1.41316e-05
-1.37532e-05
0.0039658
-0.00396397
-1.57985e-05
-1.53066e-05
0.00396205
-0.00396
-1.76821e-05
-1.70623e-05
0.00395785
-0.00395556
-1.98138e-05
-1.9049e-05
0.00395315
-0.00395058
-2.22296e-05
-2.13003e-05
0.00394788
-0.003945
-2.49726e-05
-2.38556e-05
0.00394196
-0.00393873
-2.80937e-05
-2.67615e-05
0.00393532
-0.00393168
-3.16531e-05
-3.00733e-05
0.00392784
-0.00392375
-3.57229e-05
-3.38569e-05
0.00391943
-0.00391482
-4.03897e-05
-3.81911e-05
0.00390995
-0.00390475
-4.57576e-05
-4.31708e-05
0.00389925
-0.00389339
-5.19509e-05
-4.89096e-05
0.00388718
-0.00388056
-5.91169e-05
-5.55429e-05
0.00387355
-0.00386606
-6.74317e-05
-6.32331e-05
0.00380586
-0.00374737
-7.71114e-05
-7.21572e-05
0.00371693
-0.00371421
-3.97904e-05
-4.01815e-05
-0.000252088
5.97323e-05
-0.00373131
-0.00380162
2.63885e-06
2.325e-05
-0.00366511
-0.003647
-6.45655e-05
7.04729e-06
-0.00374823
4.50895e-05
0.00400107
0.00405547
1.72812e-05
0.00015798
-0.00429679
-0.000199357
2.11999e-06
-0.00384581
0.000265917
-0.00436957
-2.32929e-05
-0.00381777
1.20257e-05
-0.00383725
-2.31461e-05
-0.00385369
2.31833e-05
-0.00382895
3.57258e-05
-0.00382109
4.9745e-05
-0.0037733
2.47405e-05
-0.00368309
-3.44761e-05
2.45064e-05
-0.00365514
-4.01022e-05
-0.00364138
-0.00384538
-0.00427074
0.00410446
-4.09531e-05
-0.000303775
-0.00422606
0.000233049
0.00438353
-0.00427161
-0.000415694
-8.65633e-05
-0.00399449
0.00391206
-0.000145381
-0.000162243
-0.00388015
0.00383621
-6.91932e-05
-7.39457e-05
-0.00385897
0.00389864
-6.07947e-05
-6.48364e-05
-0.00390401
0.00390909
-5.34886e-05
-5.7057e-05
-0.00391387
0.0039184
-4.7119e-05
-5.02597e-05
-0.00392268
0.00392673
-4.15568e-05
-4.43321e-05
-0.00393055
0.00393418
-3.66943e-05
-3.91548e-05
-0.00393759
0.00394084
-3.24369e-05
-3.46271e-05
-0.00394389
0.00394679
-2.87021e-05
-3.06605e-05
-0.00394952
0.00395211
-2.54191e-05
-2.71788e-05
-0.00395455
0.00395687
-2.25273e-05
-2.41164e-05
-0.00395906
0.00396113
-1.99749e-05
-2.14174e-05
-0.00396309
0.00396495