/*--------------------------------*- C++ -*----------------------------------*\
  =========                 |
  \\      /  F ield         | OpenFOAM: The Open Source CFD Toolbox
   \\    /   O peration     | Website:  https://openfoam.org
    \\  /    A nd           | Version:  10
     \\/     M anipulation  |
\*---------------------------------------------------------------------------*/
FoamFile
{
    format      ascii;
    class       volScalarField;
    location    "28";
    object      p;
}
// * * * * * * * * * * * * * * * * * * * * * * * * * * * * * * * * * * * * * //

dimensions      [0 2 -2 0 0 0 0];

internalField   nonuniform List<scalar> 
28942
(
-3.67599
-3.73441
-2.04996
1.13142
1.17973
-0.0293158
-0.0326232
-0.0323898
-0.0538126
0.00791052
-5.2647
-5.31315
-4.99589
-4.87964
-0.0191937
-0.0107254
2.55019
2.67675
0.766974
1.38814
1.92968
1.93269
-5.2285
-5.17283
-5.31688
-4.85924
4.29898
4.52082
-0.451191
-0.35038
-0.128009
-0.125657
0.0372065
-0.0256681
-0.202964
0.055258
2.45319
3.11029
-0.0607556
1.71222
1.58936
1.54855
0.599596
0.610076
0.629626
-0.0190524
-0.0204884
-0.00271872
-0.00671246
-0.0162684
-0.00790438
0.400601
0.390209
-0.0550755
0.0158057
-3.75256
-3.01609
-4.89971
-4.94454
-4.92541
-4.92438
-4.86291
-4.82317
-1.73572
-2.28269
-1.33871
-0.936733
2.25281
2.0773
-3.61962
-3.67542
-3.78655
2.14803
2.08532
2.14975
-1.76016
-1.73974
-1.21818
-1.88714
-2.45723
-1.6629
-2.61328
-3.80923
-3.9821
-0.436955
0.0336973
0.437155
0.0990133
-0.293102
-0.347791
-0.112184
0.226843
-4.46526
-4.76907
-4.53657
-4.22459
-4.09459
-0.183352
-0.0365524
-4.05038
1.22421
1.2393
1.29402
1.22724
-0.597445
-0.59584
-0.676316
1.07328
1.11006
1.12418
-4.84772
-4.76766
-3.8091
-3.54934
-3.6512
4.99521
4.56673
4.24634
4.65933
-0.145802
0.712242
0.378553
0.0944778
-0.0498741
5.45434
5.56931
5.21042
0.144149
0.408012
0.00420028
0.0137653
0.00271483
2.52676
3.16174
1.26822
1.23302
1.4369
0.955231
1.82141
1.81055
-4.04413
-4.21647
0.555305
0.625279
0.644111
-2.4097
-2.45106
-2.11103
-4.37304
0.688946
0.684652
-0.512522
-0.080302
-0.0935546
-0.0912028
-0.0853928
1.23453
-0.0716001
-4.37228
-4.28881
-4.34383
-3.52245
-3.19505
-0.0570414
-4.40229
-4.1786
2.0538
2.11381
2.42248
2.31306
1.90875
0.447137
0.43242
0.191726
0.163015
0.951115
0.881837
0.989418
1.04876
1.03275
1.06421
1.12807
1.31313
1.21199
1.09262
1.20598
1.42532
1.72676
1.84894
-4.71857
-4.48638
-3.79557
-0.0124948
0.00653624
-4.69017
-4.50168
-0.00919952
-0.002315
0.00133594
-0.00863083
-2.67345
-2.84171
-2.62706
-4.67041
-4.67115
-4.56984
-5.01268
-5.02166
-4.95785
-5.30477
-5.50317
-5.32671
4.87288
4.57651
4.94548
-0.506931
-0.423073
-0.492243
2.53322
2.44487
2.4953
-2.67241
-2.8202
-2.49859
-2.93072
-2.98691
-2.98167
-2.78395
-2.92239
-2.72996
-2.78699
-2.7336
-2.63018
-2.49225
-2.33327
-2.81216
-2.62834
-2.30889
-2.15617
-2.11444
-2.65762
-2.48234
-1.98126
-2.47022
-2.27062
-2.31167
-2.1311
-1.94218
-1.82785
-2.07164
-1.95036
-1.79007
-1.69472
-1.88361
-1.77899
-1.66361
-1.58508
-1.71297
-1.62322
-1.5656
-1.50192
-1.56505
-1.48868
-1.4976
-1.44715
-1.44193
-1.37737
-1.46052
-1.42167
-1.34462
-1.29057
-1.45434
-1.42495
-1.27185
-1.22677
-1.47836
-1.45729
-1.22245
-1.18539
-1.53354
-1.51975
-1.19447
-1.16507
-1.62486
-1.61865
-1.188
-1.16683
-1.75687
-1.7581
-1.20477
-1.19192
-1.58856
-1.70926
-1.93592
-1.9444
-1.46202
-1.50886
-1.46694
-1.44889
-1.59881
-1.51715
-1.85336
-1.71107
-2.21997
-2.024
-2.61634
-2.41745
-2.95712
-2.80297
-3.12107
-3.06734
-3.04619
-3.11288
-2.76369
-2.92729
-2.35846
-2.56844
-1.94809
-2.14803
-1.60829
-1.76654
-1.37033
-1.47607
-1.23425
-1.29027
-1.18839
-1.20057
-1.19816
-1.24697
-1.24152
-1.11882
-1.15834
-1.12719
-1.16449
-1.1311
-1.29494
-1.2187
-1.51475
-1.39396
-1.80876
-1.65471
-2.13079
-1.97023
-2.40867
-2.28111
-2.54017
-2.49752
-2.48929
-2.53861
-2.27483
-2.39729
-1.97198
-2.12847
-1.68803
-1.82485
-1.47717
-1.57117
-1.36634
-1.40853
-1.3635
-1.35146
-1.47345
-1.40349
-1.71941
-1.57693
-1.90916
-1.87237
-1.23223
-1.21338
-2.18485
-2.1496
-2.07886
-2.16381
-1.51543
-1.75963
-1.61772
-1.41823
-1.45024
-1.45049
-1.41874
-1.60588
-1.51302
-1.88099
-1.72878
-2.25974
-2.06054
-2.67408
-2.46629
-3.02486
-2.86407
-3.18943
-3.13729
-3.10471
-3.17785
-2.80872
-2.97811
-2.39391
-2.60917
-1.97033
-2.17707
-1.61785
-1.78224
-1.36904
-1.48003
-1.22406
-1.28433
-1.16956
-1.18625
-1.3175
-1.29414
-1.20001
-1.17363
-1.10108
-1.15805
-1.29269
-1.31841
-1.05187
-1.06599
-1.08069
-1.0565
-1.18943
-1.12489
-1.38002
-1.27482
-1.63757
-1.50247
-1.91883
-1.77892
-2.15741
-2.04851
-2.27082
-2.23368
-2.21857
-2.26564
-2.03033
-2.13804
-1.76924
-1.90209
-1.52744
-1.64297
-1.35092
-1.42901
-1.26512
-1.29598
-1.27852
-1.25927
-1.39873
-1.32427
-1.65057
-1.50578
-2.07413
-1.83878
-1.94217
-2.44042
-2.36148
-2.47273
-1.25093
-1.2377
-2.32712
-2.16066
-2.78067
-2.69819
-2.44108
-1.15094
-1.19217
-1.3987
-1.34231
-1.95321
-2.41094
-2.35942
-2.16616
-1.61166
-1.76518
-1.41511
-1.49498
-1.35245
-1.36828
-1.40778
-1.36561
-1.57764
-1.47843
-1.86227
-1.70588
-2.24689
-2.04501
-2.67066
-2.45961
-3.02579
-2.86481
-3.1886
-3.1369
-3.09984
-3.17549
-2.79736
-2.9698
-2.37911
-2.5957
-1.95285
-2.16108
-1.59636
-1.76289
-1.34266
-1.45617
-1.19228
-1.25534
-1.13164
-1.15157
-1.13118
-1.41749
-1.33169
-1.38558
-1.42351
-1.02108
-1.15538
-1.07777
-0.965438
-0.984763
-0.980119
-0.964158
-1.06672
-1.01428
-1.22657
-1.13788
-1.44601
-1.33063
-1.68639
-1.56692
-1.88742
-1.7962
-1.98169
-1.95125
-1.93464
-1.97598
-1.77124
-1.86425
-1.55289
-1.66344
-1.35107
-1.44685
-1.20759
-1.27025
-1.14475
-1.16529
-1.17226
-1.14684
-1.30026
-1.22261
-1.55341
-1.409
-1.96749
-1.73853
-2.5713
-2.24619
-3.07172
-2.92767
-2.615
-2.80449
-1.26004
-1.25565
-2.69532
-3.15729
-2.76378
-3.29762
-3.45631
-2.33574
-2.48927
-2.75076
-2.04158
-2.16997
-1.72657
-1.89562
-1.44478
-1.56995
-1.29518
-1.35335
-1.26432
-1.2669
-1.33498
-1.28686
-1.51144
-1.40945
-1.80097
-1.64219
-2.18918
-1.98546
-2.61347
-2.40297
-2.96396
-2.80588
-3.12236
-3.07295
-3.03191
-3.10771
-2.73095
-2.90229
-2.31881
-2.53178
-1.89943
-2.10454
-1.54646
-1.71167
-1.29303
-1.40676
-1.14018
-1.20477
-1.07468
-1.0976
-1.08452
-1.07048
-1.17532
-1.11832
-1.44359
-1.25763
-1.35777
-1.54814
-1.50871
-1.53121
-1.55769
-1.37885
-1.46952
-1.05362
-1.26422
-1.14856
-0.924046
-0.979003
-0.865502
-0.887703
-0.867896
-0.858905
-0.933743
-0.892864
-1.06329
-0.990983
-1.24472
-1.14908
-1.44467
-1.34531
-1.6103
-1.5355
-1.68619
-1.66215
-1.64524
-1.68018
-1.50781
-1.5858
-1.32924
-1.41952
-1.16576
-1.24293
-1.05294
-1.10148
-1.0108
-1.02225
-1.04967
-1.01964
-1.18108
-1.10263
-1.43014
-1.28887
-1.83062
-1.60958
-2.39949
-2.09546
-3.07967
-2.73505
-3.65521
-3.40954
-2.93616
-3.16169
-3.01158
-3.54341
-1.07564
-1.14535
-1.52732
-1.40884
-3.05245
-3.82636
-2.67112
-2.01273
-3.96719
-3.70101
-2.21369
-3.0884
-1.76543
-1.87752
-1.5009
-1.6376
-1.27301
-1.37409
-1.1646
-1.20426
-1.15599
-1.14952
-1.23507
-1.18395
-1.41533
-1.31159
-1.70683
-1.54752
-2.0907
-1.88996
-2.50478
-2.29977
-2.84332
-2.69101
-2.99414
-2.94735
-2.90542
-2.9795
-2.61304
-2.77916
-2.2155
-2.42068
-1.81153
-2.00921
-1.46975
-1.63006
-1.22189
-1.33351
-1.0695
-1.13443
-1.00085
-1.02558
-1.00321
-0.99414
-1.02987
-1.58564
-1.36798
-1.48683
-1.70697
-1.66018
-1.68661
-1.71624
-1.62234
-0.940334
-1.14102
-1.0287
-0.818138
-0.870085
-0.756149
-0.780247
-0.748604
-0.745571
-0.795654
-0.765262
-0.896821
-0.839856
-1.042
-0.965261
-1.20324
-1.12311
-1.33598
-1.27625
-1.39526
-1.3769
-1.36046
-1.38945
-1.24914
-1.31181
-1.10722
-1.1789
-0.978766
-1.03911
-0.893216
-0.929351
-0.868401
-0.87244
-0.915228
-0.882312
-1.04597
-0.968954
-1.2851
-1.15001
-1.66459
-1.45563
-2.19313
-1.91241
-2.8109
-2.49648
-3.3729
-3.11175
-3.92554
-3.58265
-3.26207
-3.53489
-1.23921
-1.27065
-3.32648
-2.93923
-3.28493
-3.91168
-4.15176
-2.43597
-2.60564
-3.04791
-4.21014
-4.06881
-3.71519
-3.43898
-1.7187
-2.03515
-1.88243
-1.49742
-1.59937
-1.28109
-1.39235
-1.10193
-1.17989
-1.02448
-1.05118
-1.03012
-1.01802
-1.11531
-1.06175
-1.29817
-1.19361
-1.58514
-1.42935
-1.95487
-1.76216
-2.35004
-2.15479
-2.67039
-2.52661
-2.81181
-2.76808
-2.72668
-2.79732
-2.45007
-2.60701
-2.07552
-2.26871
-1.69495
-1.88134
-1.37074
-1.52321
-1.13281
-1.24037
-0.983624
-1.0477
-0.912842
-0.939202
-0.909524
-0.903386
-0.966844
-0.93039
-1.10186
-1.02239
-1.50696
-1.20261
-1.35906
-1.75226
-1.64025
-1.88607
-1.83728
-1.86277
-1.89432
-1.69754
-1.79564
-1.42037
-1.57027
-1.00625
-1.25839
-1.12409
-0.822364
-0.905722
-0.705713
-0.756953
-0.641652
-0.667389
-0.625596
-0.627686
-0.656081
-0.634953
-0.731769
-0.688557
-0.843968
-0.78442
-0.969772
-0.907224
-1.07301
-1.02669
-1.11793
-1.10438
-1.0894
-1.11266
-1.0024
-1.0511
-0.892994
-0.948156
-0.795186
-0.840917
-0.732766
-0.758418
-0.722086
-0.720191
-0.77394
-0.739651
-0.90026
-0.826699
-1.12356
-0.997992
-1.47299
-1.281
-1.95515
-1.69954
-2.50506
-2.22892
-2.99315
-2.76499
-3.3059
-3.17924
-3.75166
-3.34424
-3.58555
-2.13825
-3.61447
-0.959109
-1.03976
-1.58475
-1.41
-3.90013
-4.24323
-3.48117
-4.40959
-4.36688
-4.0968
-3.69269
-3.29144
-3.79033
-1.62444
-2.23129
-1.73262
-1.69312
-1.40871
-1.5245
-1.22764
-1.31155
-1.06164
-1.14592
-0.928412
-0.985847
-0.875267
-0.892205
-0.892183
-0.875396
-0.983115
-0.927271
-1.16499
-1.06209
-1.43973
-1.29149
-1.78834
-1.60701
-2.15775
-1.97564
-2.45463
-2.32171
-2.58511
-2.545
-2.5057
-2.57112
-2.25086
-2.3954
-1.90604
-2.08388
-1.55492
-1.72711
-1.25339
-1.39561
-1.02924
-1.131
-0.885825
-0.947927
-0.814227
-0.841742
-0.80521
-0.802398
-0.851611
-0.822218
-0.896712
-1.66569
-1.31782
-1.49956
-1.9385
-1.81338
-2.07813
-2.02852
-2.05435
-2.08603
-1.88381
-1.98627
-1.74698
-0.867291
-1.09311
-0.972426
-0.70207
-0.778162
-0.590222
-0.639889
-0.525157
-0.552144
-0.501914
-0.508416
-0.518199
-0.5051
-0.571866
-0.540579
-0.655333
-0.610758
-0.750203
-0.702982
-0.827991
-0.793163
-0.861072
-0.85135
-0.838791
-0.856658
-0.773256
-0.809808
-0.691703
-0.732741
-0.619687
-0.65318
-0.576318
-0.593414
-0.576545
-0.570252
-0.630631
-0.596344
-0.749596
-0.681006
-0.953618
-0.83942
-1.26685
-1.09546
-1.69279
-1.46748
-2.1736
-1.93328
-2.58906
-2.39621
-2.85324
-2.7467
-2.84918
-2.8921
-3.1518
-2.73631
-3.1453
-2.73056
-3.89612
-1.13607
-1.22682
-1.74759
-4.23234
-2.24969
-3.85443
-4.51026
-3.61673
-4.5801
-4.43482
-4.05069
-3.53589
-2.92485
-2.5339
-4.11529
-1.30987
-1.73737
-1.31173
-1.31297
-1.24987
-1.29388
-1.10084
-1.17969
-0.963682
-1.02877
-0.844904
-0.903834
-0.753397
-0.792661
-0.721302
-0.729723
-0.748802
-0.727524
-0.843668
-0.786852
-1.01923
-0.920978
-1.27629
-1.1381
-1.59907
-1.43159
-1.93753
-1.77104
-2.20719
-2.08665
-2.32567
-2.28927
-2.25445
-2.31318
-2.02546
-2.15537
-1.7154
-1.87537
-1.39827
-1.5541
-1.12309
-1.25332
-0.915491
-1.01018
-0.779817
-0.839043
-0.708752
-0.736818
-0.694296
-0.694862
-0.731206
-0.706704
-0.816198
-0.767358
-0.96088
-0.880439
-1.4482
-1.05235
-1.24773
-1.83222
-1.64774
-2.12899
-1.99595
-2.27577
-2.22317
-2.25579
-2.28629
-2.07708
-2.18634
-1.75864
-1.93159
-1.36558
-1.56744
-0.92598
-1.16116
-1.04109
-0.729801
-0.821712
-0.57908
-0.648442
-0.47442
-0.521602
-0.409753
-0.437433
-0.380809
-0.39097
-0.385221
-0.378915
-0.420429
-0.399194
-0.479781
-0.447783
-0.548707
-0.514314
-0.605382
-0.580034
-0.629147
-0.622276
-0.61261
-0.625722
-0.565173
-0.59157
-0.506515
-0.535995
-0.455236
-0.478947
-0.426846
-0.43727
-0.434895
-0.425655
-0.488603
-0.455574
-0.598054
-0.535463
-0.780831
-0.678965
-1.05665
-0.906307
-1.42424
-1.23095
-1.83011
-1.62782
-2.18104
-2.01844
-2.39083
-2.30839
-2.38909
-2.4215
-2.13626
-2.29389
-3.23199
-2.78183
-2.28894
-1.9287
-4.1527
-4.50033
-1.28515
-1.69005
-2.22709
-4.01204
-4.6856
-0.790085
-0.860952
-1.50242
-1.28101
-3.64741
-4.6454
-4.36695
-3.89427
-3.29984
-2.65289
-1.23814
-0.890348
-0.836476
-2.02798
-1.70109
-1.16929
-4.37986
-0.951472
-0.923561
-0.958679
-0.96226
-0.922813
-0.94967
-0.821155
-0.875191
-0.722834
-0.769492
-0.641558
-0.680648
-0.583557
-0.608028
-0.569415
-0.570432
-0.60564
-0.580906
-0.700764
-0.645078
-0.865571
-0.774076
-1.10199
-0.975215
-1.3954
-1.24364
-1.69943
-1.55027
-1.94012
-1.83257
-2.0465
-2.01351
-1.98515
-2.03635
-1.78454
-1.89837
-1.51221
-1.65288
-1.23147
-1.3698
-0.984674
-1.10194
-0.795442
-0.882172
-0.66907
-0.72467
-0.599732
-0.62779
-0.580492
-0.584202
-0.607238
-0.588308
-0.675662
-0.636896
-0.726701
-1.58467
-1.14697
-1.3654
-1.99874
-1.79846
-2.31273
-2.1726
-2.47225
-2.4135
-2.45621
-2.48681
-2.26693
-2.38236
-1.92715
-2.11162
-1.72162
-0.763567
-0.963242
-0.860496
-0.593574
-0.675401
-0.458004
-0.520762
-0.361149
-0.405174
-0.298203
-0.325841
-0.265226
-0.278177
-0.26004
-0.25929
-0.280151
-0.267164
-0.319848
-0.298104
-0.367738
-0.343721
-0.407493
-0.389698
-0.424146
-0.419332
-0.412611
-0.421723
-0.379796
-0.398048
-0.339181
-0.359602
-0.303975
-0.320126
-0.286996
-0.292381
-0.300413
-0.289335
-0.352022
-0.321054
-0.450427
-0.394599
-0.610569
-0.521693
-0.848419
-0.719184
-1.16037
-0.997119
-1.49529
-1.3298
-1.77961
-1.64787
-1.94455
-1.88156
-1.92907
-1.96134
-1.72587
-1.84833
-1.38257
-1.57091
-1.61328
-1.46643
-1.75786
-1.24538
-0.998726
-1.18585
-3.21291
-2.70921
-4.32275
-4.67758
-0.938373
-1.0666
-2.14794
-4.07965
-4.75057
-3.61899
-4.58618
-4.20099
-3.65142
-3.00999
-2.35556
-0.775069
-0.521143
-0.480958
-0.771161
-0.630806
-0.83322
-0.716317
-1.08532
-1.51373
-1.50772
-1.04819
-4.55416
-0.601392
-0.562352
-0.656893
-0.633882
-0.6691
-0.669767
-0.64438
-0.6617
-0.579677
-0.614988
-0.512298
-0.544448
-0.459304
-0.483974
-0.426059
-0.439361
-0.426051
-0.421234
-0.467815
-0.441316
-0.559478
-0.506766
-0.710791
-0.627246
-0.924455
-0.810214
-1.186
-1.05115
-1.45408
-1.32285
-1.66558
-1.5711
-1.76035
-1.73033
-1.70965
-1.75292
-1.53845
-1.63568
-1.30464
-1.42566
-1.06084
-1.18141
-0.843023
-0.946988
-0.67299
-0.751322
-0.556862
-0.608358
-0.490294
-0.51782
-0.467245
-0.473643
-0.484191
-0.470864
-0.538807
-0.507037
-0.627043
-0.578435
-0.744108
-0.682263
-1.24079
-0.808086
-1.01598
-1.71114
-1.4752
-2.15077
-1.9405
-2.48239
-2.3333
-2.65745
-2.59207
-2.64194
-2.67462
-2.43957
-2.56211
-2.08099
-2.27645
-1.63011
-1.86286
-1.16225
-1.3943
-0.778409
-0.944666
-0.864518
-0.611067
-0.692158
-0.46195
-0.53341
-0.34135
-0.397446
-0.252633
-0.29319
-0.192384
-0.2193
-0.157061
-0.171841
-0.144578
-0.148122
-0.152734
-0.1463
-0.176853
-0.163237
-0.208192
-0.19232
-0.234799
-0.222843
-0.246098
-0.242789
-0.238739
-0.244634
-0.217234
-0.229228
-0.190248
-0.203859
-0.167007
-0.177546
-0.158367
-0.160117
-0.1749
-0.16303
-0.22286
-0.194622
-0.309613
-0.260731
-0.447446
-0.371282
-0.648655
-0.539726
-0.908267
-0.772979
-1.1806
-1.04712
-1.40247
-1.30083
-1.52831
-1.48061
-1.50437
-1.53742
-1.33231
-1.43268
-1.06784
-1.20974
-0.920104
-3.08023
-2.59415
-0.685093
-0.505546
-4.38624
-4.74455
-2.03452
-4.02357
-4.69577
-0.564656
-0.614561
-1.2469
-1.01138
-3.49029
-4.41691
-3.94341
-3.34204
-2.69192
-2.06577
-0.449602
-0.254841
-0.243991
-0.425827
-0.659548
-0.994582
-1.38596
-1.28941
-0.885492
-0.396744
-0.563016
-4.62099
-0.29806
-0.26804
-0.36775
-0.3355
-0.412209
-0.394547
-0.426016
-0.422685
-0.411423
-0.421875
-0.372749
-0.394265
-0.330123
-0.350543
-0.298632
-0.312698
-0.283565
-0.28854
-0.29421
-0.285089
-0.338559
-0.311779
-0.424211
-0.375629
-0.560491
-0.485582
-0.749975
-0.649001
-0.978827
-0.86115
-1.2115
-1.09777
-1.3947
-1.31286
-1.47839
-1.45124
-1.43847
-1.47371
-1.2962
-1.37719
-1.0999
-1.20181
-0.891882
-0.995265
-0.702318
-0.793263
-0.551432
-0.621317
-0.445993
-0.493113
-0.382954
-0.409533
-0.357211
-0.3657
-0.365488
-0.357225
-0.406386
-0.382022
-0.474835
-0.438132
-0.517301
-1.32516
-0.864993
-1.08864
-1.82074
-1.57124
-2.27839
-2.05944
-2.6297
-2.47069
-2.81712
-2.7473
-2.79952
-2.83496
-2.58405
-2.71392
-2.21125
-2.41428
-1.73987
-1.98304
-1.49098
-0.606984
-0.742654
-0.676697
-0.467157
-0.537071
-0.337305
-0.399854
-0.230968
-0.280823
-0.150508
-0.187613
-0.0935688
-0.119362
-0.0572888
-0.0730665
-0.0396868
-0.046316
-0.0388197
-0.0373641
-0.0510048
-0.0436256
-0.0697144
-0.0600519
-0.0864165
-0.0788375
-0.0938405
-0.0915729
-0.0897157
-0.0931633
-0.0765552
-0.0839671
-0.0593932
-0.0681151
-0.0447008
-0.0512271
-0.0419377
-0.0411758
-0.0599296
-0.0479952
-0.103446
-0.0782297
-0.178551
-0.136511
-0.295132
-0.230981
-0.462615
-0.372247
-0.675427
-0.564984
-0.893448
-0.787498
-1.06217
-0.986401
-1.15187
-1.11848
-1.12752
-1.15612
-0.983233
-1.06739
-0.775528
-0.883646
-0.554153
-0.664342
-0.340204
-0.443564
-0.302131
-0.164964
-0.246149
-2.8743
-2.42624
-4.34467
-4.69287
-0.660813
-0.795146
-1.89974
-3.88007
-4.52726
-3.28529
-4.15021
-3.61493
-2.99478
-2.36631
-1.78751
-0.230848
-0.0883823
-0.0869765
-0.0393008
0.0253426
-0.0915253
-0.22339
-0.398669
-0.610614
-0.903114
-1.25418
-1.10099
-0.747634
-0.458552
-0.222168
-4.56974
-0.0999638
-0.0929325
-0.126752
-0.110183
-0.178451
-0.153624
-0.211213
-0.197733
-0.223169
-0.220009
-0.216303
-0.221681
-0.195321
-0.207187
-0.171606
-0.18285
-0.156584
-0.162686
-0.15496
-0.153761
-0.173218
-0.161157
-0.218003
-0.191915
-0.296589
-0.252502
-0.41773
-0.35146
-0.583228
-0.495353
-0.780574
-0.679335
-0.97978
-0.882544
-1.1365
-1.06635
-1.20966
-1.18536
-1.18003
-1.20755
-1.06515
-1.13082
-0.903901
-0.988008
-0.729101
-0.816515
-0.566043
-0.644714
-0.43356
-0.495254
-0.338852
-0.381499
-0.27992
-0.30521
-0.252459
-0.262509
-0.253524
-0.249556
-0.28188
-0.26442
-0.334529
-0.305722
-0.402365
-0.367903
-0.47843
-0.439667
-0.914118
-0.50893
-0.699669
-1.39282
-1.14673
-1.90393
-1.6492
-2.37585
-2.14875
-2.74331
-2.57704
-2.93744
-2.86553
-2.9171
-2.95497
-2.69026
-2.82678
-2.30513
-2.5138
-1.82395
-2.07287
-1.30777
-1.56343
-0.83593
-1.06291
-0.558094
-0.633225
-0.601097
-0.45012
-0.506579
-0.333428
-0.392944
-0.221519
-0.275574
-0.128391
-0.172355
-0.0560316
-0.0897055
-0.00279542
-0.0272097
0.03344
0.0172723
0.0543718
0.0456715
0.0617123
0.0595679
0.0583182
0.061092
0.0489244
0.05401
0.0394408
0.0438431
0.0347406
0.0363056
0.0365073
0.0348256
0.0438679
0.0396138
0.0543383
0.0489343
0.0631714
0.0594218
0.0619864
0.0643717
0.043859
0.0552777
0.00537551
0.0273757
-0.0584066
-0.0229195
-0.155267
-0.10218
-0.292451
-0.21863
-0.464884
-0.375641
-0.638281
-0.554684
-0.764993
-0.709584
-0.823348
-0.803195
-0.799378
-0.822953
-0.684703
-0.752081
-0.519106
-0.604326
-0.349117
-0.433674
-0.183268
-0.264482
-0.108879
-2.62281
-2.241
-0.0243743
0.086123
-4.19502
-4.52648
-1.73644
-3.65624
-4.25832
-0.312788
-0.335788
-0.862621
-0.655702
-3.02567
-3.80939
-3.24455
-2.63754
-2.05342
-1.53477
-0.0915521
0.024022
0.00997982
-0.100112
-0.221174
-0.372765
-0.569455
-0.818486
-1.13708
-0.93993
-0.629886
-0.368703
-0.151391
0.14185
0.0344021
-4.40918
0.0382975
0.0340685
0.0322701
0.0367082
0.0143497
0.0246232
-0.0198179
-0.0020222
-0.0444091
-0.0341555
-0.0546957
-0.0510788
-0.0533752
-0.0552362
-0.0442844
-0.0495291
-0.0343907
-0.0388319
-0.0315448
-0.0318078
-0.0394996
-0.0339481
-0.0627105
-0.0488646
-0.106727
-0.081743
-0.178465
-0.138616
-0.285338
-0.227241
-0.428184
-0.352635
-0.596299
-0.510268
-0.76471
-0.682605
-0.897299
-0.83782
-0.960826
-0.939111
-0.940739
-0.961126
-0.85081
-0.902584
-0.72095
-0.78916
-0.575836
-0.648954
-0.436841
-0.504297
-0.321554
-0.375526
-0.237256
-0.275501
-0.182752
-0.206521
-0.154493
-0.165557
-0.149845
-0.14934
-0.167587
-0.155982
-0.206275
-0.184602
-0.257406
-0.231751
-0.285144
-0.95036
-0.529241
-0.731266
-1.44024
-1.18766
-1.95515
-1.69827
-2.43701
-2.20433
-2.81254
-2.64311
-3.0084
-2.93629
-2.98494
-3.02484
-2.74968
-2.89113
-2.35547
-2.56819
-1.8697
-2.12057
-1.34588
-1.60683
-1.09541
-0.394669
-0.456507
-0.429273
-0.308834
-0.354049
-0.210479
-0.260499
-0.115489
-0.161678
-0.0345391
-0.0730156
0.0300697
-0.000226847
0.0793167
0.0564998
0.114723
0.0986349
0.137605
0.127619
0.149381
0.144747
0.152222
0.151724
0.14946
0.151292
0.145059
0.147233
0.142235
0.143322
0.142428
0.141908
0.146059
0.143837
0.152274
0.14897
0.157199
0.155339
0.153519
0.15685
0.136187
0.14671
0.10281
0.121682
0.0494034
0.0789403
-0.0298214
0.0133994
-0.140219
-0.0809755
-0.278001
-0.206756
-0.415378
-0.349468
-0.511011
-0.470316
-0.546363
-0.536353
-0.520434
-0.541065
-0.433255
-0.484192
-0.302914
-0.370913
-0.167143
-0.234319
-0.0383841
-0.101562
0.0784597
0.0215544
0.18617
0.132734
0.191894
0.282704
0.23674
-2.34758
-2.04374
-3.9541
-4.25928
-0.351748
-0.468408
-1.56052
-3.37825
-3.91279
-2.72997
-3.42433
-2.86232
-2.29385
-1.76973
-1.31659
-0.00454588
0.0959146
0.0778865
0.36153
0.39948
0.323968
-0.0236436
-0.113277
-0.224766
-0.355169
-0.533036
-0.747261
-1.03186
-0.806211
-0.529313
-0.292418
-0.0890329
0.0854706
0.235405
-4.15271
0.121547
0.110448
0.138985
0.132449
0.13928
0.140162
0.131051
0.136525
0.110973
0.122153
0.0929856
0.100757
0.0841063
0.0874876
0.0816898
0.0822824
0.0826214
0.0819475
0.0825512
0.083062
0.0765723
0.080508
0.0620067
0.0705049
0.0357515
0.0506052
-0.00697564
0.0167949
-0.0722074
-0.0363714
-0.165544
-0.115178
-0.287439
-0.223216
-0.429087
-0.356788
-0.56995
-0.501327
-0.68114
-0.631122
-0.73639
-0.716843
-0.724701
-0.738803
-0.656613
-0.696282
-0.553809
-0.608348
-0.434311
-0.495049
-0.316574
-0.374039
-0.216979
-0.263839
-0.142555
-0.176564
-0.0926399
-0.114727
-0.0643046
-0.0759577
-0.0552646
-0.0574833
-0.0643683
-0.0576011
-0.0906018
-0.0755322
-0.128425
-0.108759
-0.167268
-0.147937
-0.200128
-0.18526
-0.543859
-0.21117
-0.363745
-0.968717
-0.74701
-1.45913
-1.20815
-1.9728
-1.71558
-2.4565
-2.22304
-2.83117
-2.66254
-3.02412
-2.95369
-2.99696
-3.03867
-2.7575
-2.90119
-2.35909
-2.57393
-1.87155
-2.12217
-1.35563
-1.61333
-0.870848
-1.10468
-0.469357
-0.659483
-0.297707
-0.30697
-0.3069
-0.25217
-0.279001
-0.18183
-0.219634
-0.0997451
-0.14144
-0.0197329
-0.058883
0.0501856
0.016732
0.107535
0.0804591
0.152662
0.131578
0.186605
0.170972
0.210342
0.19968
0.224965
0.218699
0.232049
0.229316
0.233841
0.233444
0.232899
0.233562
0.231362
0.232104
0.230689
0.23082
0.232173
0.231119
0.235934
0.233871
0.238287
0.237686
0.233207
0.236974
0.217339
0.226704
0.189034
0.204891
0.145115
0.169275
0.0812674
0.115965
-0.0064609
0.0404945
-0.115293
-0.0590237
-0.223792
-0.171809
-0.296648
-0.266428
-0.317463
-0.313539
-0.289728
-0.309103
-0.222707
-0.260694
-0.124338
-0.176576
-0.0139107
-0.0690866
0.0900975
0.0392674
0.186479
0.139044
0.27816
0.232969
0.321121
-2.07244
-1.84127
0.360948
0.433408
-3.64601
-3.91595
-1.39536
-3.06863
-3.52082
-0.0662006
-0.0721828
-0.458949
-0.296816
-2.42216
-3.02583
-2.49496
-1.98262
-1.52399
-1.13321
0.0570686
0.146149
0.124351
0.0314049
-0.0457123
-0.13071
-0.233086
-0.349602
-0.505929
-0.690328
-0.943585
-0.694658
-0.44553
-0.227143
-0.0351996
0.130908
0.273736
0.462022
0.391773
-3.82371
0.181284
0.165655
0.20466
0.193288
0.22362
0.215348
0.230374
0.228061
0.229215
0.230912
0.218694
0.225048
0.206055
0.211895
0.198063
0.201346
0.192939
0.195322
0.188136
0.19065
0.180974
0.185036
0.168718
0.175612
0.149684
0.160138
0.121654
0.137009
0.0806587
0.103065
0.0219286
0.0538122
-0.0588042
-0.0155266
-0.162038
-0.107855
-0.280433
-0.220167
-0.397418
-0.340447
-0.490183
-0.448286
-0.53854
-0.520767
-0.533967
-0.542748
-0.484244
-0.513776
-0.403805
-0.447071
-0.305688
-0.356017
-0.206353
-0.255076
-0.120849
-0.161264
-0.0555947
-0.0856259
-0.0102493
-0.0305881
0.0175658
0.00569718
0.0297933
0.0255315
0.0275286
0.0304182
0.0116578
0.021179
-0.0144142
-0.000546894
-0.0421519
-0.0287161
-0.0552049
-0.550454
-0.212542
-0.372153
-0.969677
-0.749798
-1.45046
-1.2045
-1.9571
-1.70339
-2.43181
-2.20309
-2.79717
-2.63304
-2.98285
-2.91575
-2.95168
-2.99487
-2.71252
-2.85565
-2.31582
-2.52975
-1.83239
-2.08007
-1.33094
-1.58068
-0.857728
-1.08772
-0.646391
-0.161841
-0.167956
-0.16797
-0.127509
-0.148815
-0.0697138
-0.100605
-0.00166985
-0.0361537
0.065577
0.0325477
0.125737
0.0967775
0.176407
0.152318
0.217457
0.198123
0.249507
0.234579
0.273256
0.262379
0.289491
0.282252
0.299291
0.295112
0.304065
0.302207
0.305386
0.305061
0.304797
0.30523
0.303813
0.304211
0.304387
0.303813
0.306834
0.305519
0.307526
0.307727
0.301852
0.305676
0.287823
0.295925
0.264219
0.277344
0.228621
0.248092
0.178046
0.205402
0.109629
0.146162
0.0248668
0.0687778
-0.061012
-0.0196427
-0.118284
-0.0949759
-0.130174
-0.129764
-0.102817
-0.120693
-0.0480977
-0.0781144
0.0253118
-0.0135149
0.112436
0.0678833
0.199619
0.156742
0.28155
0.241109
0.35984
0.321241
0.431609
0.396981
0.492549
0.463578
0.484948
0.538866
0.518319
-1.82418
-1.64939
-3.30098
-3.52729
-0.0743382
-0.15908
-1.24544
-2.74851
-3.11446
-2.12606
-2.6418
-2.16192
-1.71411
-1.3195
-0.982166
0.0972304
0.182869
0.161547
0.0661517
-0.000170296
-0.0726319
-0.154166
-0.247516
-0.354913
-0.490606
-0.651052
-0.870083
-0.602972
-0.374951
-0.171193
0.0101099
0.169135
0.305031
0.416879
0.580822
0.554086
0.595356
-3.45165
0.224419
0.205164
0.254241
0.240239
0.275104
0.265322
0.293172
0.284431
0.304935
0.300005
0.3097
0.308214
0.30649
0.309147
0.298435
0.302562
0.291233
0.294528
0.284238
0.287858
0.275563
0.280207
0.263654
0.270104
0.247189
0.256057
0.225245
0.236957
0.196308
0.211813
0.157355
0.178304
0.104713
0.132981
0.0349159
0.0720996
-0.0523055
-0.00673538
-0.150841
-0.100826
-0.247655
-0.200513
-0.324939
-0.289831
-0.367559
-0.351268
-0.368811
-0.373257
-0.333767
-0.35524
-0.271006
-0.305346
-0.190302
-0.232047
-0.106704
-0.147865
-0.0336908
-0.0683473
0.0231757
-0.00317842
0.0640701
0.0454965
0.0909199
0.0791249
0.105347
0.0996037
0.108331
0.108217
0.100647
0.105744
0.0842851
0.0932702
0.0655798
0.0744279
0.0496735
0.0567414
0.0414347
0.0456073
-0.211604
0.0407335
-0.074848
-0.545124
-0.368937
-0.952633
-0.740177
-1.41855
-1.17985
-1.90932
-1.66399
-2.3657
-2.14626
-2.71411
-2.55801
-2.88802
-2.82598
-2.85268
-2.89692
-2.61736
-2.75772
-2.22915
-2.43837
-1.75794
-1.99908
-1.27374
-1.51393
-0.821748
-1.04205
-0.435757
-0.617508
-0.14095
-0.277968
-0.047965
-0.0248085
-0.0395595
-0.0469298
-0.0506283
-0.018877
-0.035902
0.0282076
0.00293623
0.0842768
0.0557454
0.140711
0.112843
0.192356
0.167323
0.236969
0.2156
0.2741
0.256468
0.30403
0.289946
0.327206
0.316435
0.344144
0.336416
0.355503
0.350473
0.362078
0.359334
0.364797
0.363851
0.36502
0.365103
0.364148
0.364508
0.364675
0.364162
0.36645
0.365579
0.366094
0.366788
0.360417
0.364015
0.348424
0.355242
0.329143
0.339796
0.300769
0.316211
0.261251
0.282535
0.208692
0.236662
0.143928
0.177526
0.0766956
0.10946
0.0295185
0.0489732
0.0210515
0.0202912
0.0459648
0.0302807
0.0925966
0.0672479
0.150975
0.120707
0.218186
0.183473
0.290692
0.254322
0.361756
0.326599
0.429033
0.395986
0.490315
0.46067
0.541837
0.517684
0.563338
-1.61286
-1.47223
0.501514
-2.94913
-3.12521
-1.12164
-2.43545
-2.72256
0.141565
0.141361
-0.116882
-0.00449208
-1.86087
-2.29304
-1.87441
-1.49105
-1.15339
-0.859936
0.136309
0.21956
0.199753
0.566204
0.606395
0.108933
0.0382482
-0.0345639
-0.10605
-0.18265
-0.269394
-0.369406
-0.487886
-0.629504
-0.814011
-0.527876
-0.316207
-0.123997
0.0483352
0.20038
0.329402
0.433392
-3.0681
0.25581
0.23769
0.288733
0.273001
0.314516
0.301876
0.335053
0.325496
0.352486
0.343988
0.366645
0.360162
0.375551
0.371818
0.377597
0.377564
0.37332
0.375945
0.367002
0.370217
0.358949
0.363296
0.347908
0.353856
0.333062
0.340999
0.313918
0.324049
0.290127
0.302629
0.260812
0.276266
0.223872
0.24346
0.17644
0.201657
0.115835
0.147877
0.0421318
0.0804415
-0.0398385
0.00165787
-0.119886
-0.0809172
-0.184498
-0.154919
-0.222295
-0.207289
-0.228003
-0.229112
-0.204025
-0.219451
-0.154642
-0.182172
-0.0878785
-0.122629
-0.0176474
-0.0523096
0.0443776
0.0148246
0.0936588
0.0706598
0.130314
0.113469
0.15587
0.144377
0.171664
0.164919
0.178533
0.17617
0.177095
0.178785
0.168686
0.173568
0.156887
0.162852
0.146619
0.150847
0.143356
-0.207034
0.0436714
-0.0736037
-0.529902
-0.358905
-0.921296
-0.717657
-1.36737
-1.13903
-1.83387
-1.60121
-2.2639
-2.05761
-2.5888
-2.44376
-2.74712
-2.69164
-2.70721
-2.75228
-2.47848
-2.61427
-2.10551
-2.30622
-1.65415
-1.88518
-1.19163
-1.42049
-0.765733
-0.97261
-0.401103
-0.573262
-0.247626
0.0528843
0.0725722
0.0605546
0.0518886
0.0488699
0.0746195
0.0608455
0.112761
0.0922142
0.158851
0.135271
0.206203
0.182693
0.250503
0.228895
0.2897
0.270795
0.323151
0.307148
0.350877
0.337716
0.373104
0.36266
0.390107
0.38224
0.402186
0.39674
0.409698
0.406485
0.413207
0.411896
0.414189
0.413845
0.413788
0.41388
0.414775
0.414091
0.416174
0.415586
0.415188
0.416147
0.409936
0.413131
0.399979
0.405576
0.384504
0.393005
0.362273
0.374309
0.331947
0.348208
0.292297
0.313325
0.24379
0.268968
0.192321
0.217703
0.153076
0.169919
0.143429
0.144005
0.163231
0.150683
0.202416
0.180981
0.251604
0.226225
0.305699
0.278074
0.364725
0.334672
0.425679
0.395273
0.483933
0.455373
0.536492
0.511066
0.58094
0.559932
0.614547
0.599537
0.635888
0.626941
0.638438
0.613393
0.639945
-1.44241
-1.31786
0.513094
-2.61395
-2.73821
0.142923
0.0891477
-1.02716
0.574317
-2.14322
-2.36646
0.615404
-1.64045
-1.99128
-1.63585
-1.31148
-1.02088
-0.761363
0.172939
0.075878
0.00515734
-0.0701135
-0.145149
-0.218977
-0.299806
-0.392837
-0.496771
-0.623536
-0.777265
-0.467287
-0.268171
-0.0854497
0.0797097
0.224658
0.347033
0.444482
-2.70149
0.257561
0.141294
0.211884
0.234984
0.287991
0.274073
0.315862
0.301346
0.343177
0.329907
0.365478
0.35481
0.38482
0.375512
0.401918
0.393574
0.416947
0.409772
0.428508
0.423264
0.434447
0.432357
0.433442
0.434698
0.42818
0.43105
0.419714
0.424407
0.407374
0.414053
0.390815
0.399631
0.370041
0.380944
0.345169
0.358117
0.315888
0.331137
0.280827
0.299206
0.237794
0.260448
0.184932
0.212644
0.122403
0.154736
0.0539584
0.0885164
-0.0124585
0.0198756
-0.066853
-0.0417627
-0.100525
-0.0866592
-0.109321
-0.108091
-0.0930234
-0.104255
-0.0533289
-0.0758204
0.0022822
-0.0267423
0.0611098
0.0320464
0.113517
0.0884528
0.156017
0.136041
0.188705
0.173516
0.212751
0.201727
0.229233
0.221882
0.238843
0.234861
0.242038
0.241198
0.239675
0.241453
0.233797
0.236947
0.228127
0.23064
0.225592
0.226229
0.224977
0.225285
0.0467668
0.224759
0.144088
-0.197672
-0.0676283
-0.507115
-0.344164
-0.879781
-0.686033
-1.30127
-1.08607
-1.73729
-1.52041
-2.13488
-1.94473
-2.43117
-2.29954
-2.57086
-2.52313