/*--------------------------------*- C++ -*----------------------------------*\
  =========                 |
  \\      /  F ield         | OpenFOAM: The Open Source CFD Toolbox
   \\    /   O peration     | Website:  https://openfoam.org
    \\  /    A nd           | Version:  10
     \\/     M anipulation  |
\*---------------------------------------------------------------------------*/
FoamFile
{
    format      ascii;
    class       volScalarField;
    location    "18";
    object      p;
}
// * * * * * * * * * * * * * * * * * * * * * * * * * * * * * * * * * * * * * //

dimensions      [0 2 -2 0 0 0 0];

internalField   nonuniform List<scalar> 
14667
(
0.252103
0.261925
-0.00769953
-0.00662087
-0.00351123
0.245516
0.232802
-0.00719302
0.00222879
0.000732726
0.249052
0.262827
0.344211
0.276091
-0.0091938
0.230143
0.237282
0.0209059
0.0118723
0.238877
0.206031
0.286223
0.222102
0.21372
-0.5855
-0.599483
-0.626053
-0.596756
-0.571354
0.565604
0.530001
0.513982
-0.32382
-0.348953
-0.348609
-0.299349
-0.316409
0.00508066
-0.00531095
0.00504498
0.0143553
0.0233123
0.679204
0.706258
0.806065
0.767932
0.658968
-0.340644
-0.358158
-0.377686
-0.340431
0.633103
0.578399
0.535113
-0.20169
-0.242896
-0.234399
-0.207737
-0.305033
-0.290989
-0.574794
-0.538757
0.21843
0.286083
0.393588
0.316588
0.16944
0.382178
0.263675
0.488587
0.471296
0.46704
0.88414
0.805836
-0.418463
-0.449192
-0.407499
-0.391107
0.479792
0.486816
0.00918444
0.00535021
0.00465468
-0.00386737
-0.00310241
-0.521377
-0.47301
-0.317973
-0.315085
-0.514127
-0.508935
0.0814837
0.087882
-0.0747875
-0.0668376
-0.110309
-0.127717
-0.0970361
-0.108427
-0.126397
-0.140635
-0.395828
-0.309977
0.437347
0.469154
0.45152
0.427496
0.420961
0.410208
-0.0118221
-0.0143347
-0.0112074
-0.0105736
-0.0048352
-0.00859439
-0.0573845
-0.0703966
-0.0629683
-0.00772523
-0.0113853
-0.00768721
-0.0734513
-0.0668933
-0.0672519
-0.0686031
-0.0737549
-0.0725994
-0.0714223
-0.0765377
-0.0809142
-0.0765245
-0.0832802
-0.092199
-0.0952887
-0.0870079
-0.103503
-0.117622
-0.118664
-0.10576
-0.134725
-0.154917
-0.151563
-0.133997
-0.177799
-0.202557
-0.190453
-0.170733
-0.227569
-0.250555
-0.225256
-0.209166
-0.268908
-0.284315
-0.238502
-0.236512
-0.281843
-0.270907
-0.233836
-0.242132
-0.252993
-0.230974
-0.201261
-0.21872
-0.206359
-0.181985
-0.158735
-0.180163
-0.140945
-0.161044
-0.0770926
-0.0678943
-0.14432
-0.0860907
-0.0917321
-0.0808754
-0.0583061
-0.0581462
-0.179708
-0.229868
-0.203488
-0.274819
-0.255057
-0.286918
-0.287277
-0.267412
-0.278098
-0.229045
-0.250725
-0.180793
-0.20499
-0.137456
-0.157958
-0.104834
-0.119722
-0.0827797
-0.0926101
-0.06892
-0.0749855
-0.0614
-0.0643217
-0.0593551
-0.0589241
-0.069889
-0.0792848
-0.0819958
-0.0778226
-0.0775352
-0.0834334
-0.0800122
-0.0954701
-0.0885021
-0.115557
-0.10446
-0.143389
-0.128643
-0.174985
-0.159151
-0.202221
-0.1897
-0.223188
-0.212455
-0.202682
-0.213368
-0.171438
-0.188542
-0.135334
-0.152825
-0.120592
-0.0855819
-0.0983465
-0.159606
-0.118129
-0.0481021
-0.0486887
-0.0603591
-0.103251
-0.196271
-0.250064
-0.222275
-0.294767
-0.275257
-0.311456
-0.307423
-0.293646
-0.307306
-0.247609
-0.273089
-0.192176
-0.219877
-0.142757
-0.166127
-0.10554
-0.12254
-0.0801445
-0.091524
-0.0637968
-0.0710026
-0.0542841
-0.0582452
-0.049584
-0.0514599
-0.0484542
-0.0728131
-0.110879
-0.0946932
-0.102369
-0.0849376
-0.0890788
-0.0804306
-0.081803
-0.0824975
-0.0807831
-0.0907998
-0.0858351
-0.106145
-0.0975623
-0.128137
-0.116441
-0.153127
-0.14065
-0.173291
-0.164438
-0.175002
-0.178012
-0.16812
-0.175767
-0.141083
-0.15603
-0.111826
-0.125574
-0.092734
-0.100552
-0.100185
-0.0865923
-0.0879567
-0.173297
-0.131936
-0.112746
-0.0626525
-0.100599
-0.0889291
-0.0499696
-0.123059
-0.03813
-0.0378073
-0.132896
-0.119117
-0.154823
-0.144466
-0.162437
-0.2095
-0.183867
-0.267435
-0.238217
-0.314032
-0.293469
-0.32923
-0.326811
-0.305779
-0.322313
-0.253682
-0.282037
-0.193731
-0.223467
-0.141582
-0.166122
-0.102709
-0.120459
-0.0760354
-0.0880287
-0.0585262
-0.0663119
-0.0475789
-0.0523456
-0.0412179
-0.0439274
-0.0393085
-0.0905807
-0.0763094
-0.104889
-0.103629
-0.11291
-0.0902407
-0.0962186
-0.0825012
-0.0855697
-0.0804798
-0.0808052
-0.084419
-0.0817033
-0.0946455
-0.0887491
-0.110582
-0.102016
-0.129092
-0.119854
-0.143474
-0.137327
-0.145196
-0.146376
-0.134608
-0.142041
-0.110956
-0.123691
-0.0880478
-0.0986514
-0.0746271
-0.0800157
-0.0727264
-0.0723057
-0.0832806
-0.0764134
-0.123818
-0.140947
-0.145348
-0.126195
-0.140972
-0.111085
-0.0946214
-0.104716
-0.104214
-0.0381348
-0.0938966
-0.133598
-0.132645
-0.130499
-0.166461
-0.146208
-0.219495
-0.191019
-0.280859
-0.250462
-0.327683
-0.307531
-0.340225
-0.339128
-0.312623
-0.331138
-0.256874
-0.286994
-0.193823
-0.225015
-0.139461
-0.164995
-0.0990627
-0.117515
-0.0712203
-0.0837682
-0.0526978
-0.0609835
-0.0406995
-0.0460175
-0.0331359
-0.036454
-0.0288257
-0.030613
-0.0272828
-0.0277393
-0.0388784
-0.0651937
-0.0515299
-0.0951403
-0.0797253
-0.110809
-0.154593
-0.134742
-0.145623
-0.112285
-0.123194
-0.0946991
-0.102727
-0.0835242
-0.0883084
-0.0777959
-0.0800193
-0.0774577
-0.0769456
-0.0827693
-0.0794263
-0.093015
-0.0873859
-0.10546
-0.099245
-0.114629
-0.110871
-0.114271
-0.115917
-0.102646
-0.109944
-0.0823506
-0.0929751
-0.0643396
-0.0724205
-0.0564437
-0.0591205
-0.0586008
-0.0563105
-0.071165
-0.0633928
-0.082146
-0.0273204
-0.119992
-0.131509
-0.113361
-0.118653
-0.124107
-0.11292
-0.16657
-0.172011
-0.160086
-0.118167
-0.127741
-0.0176542
-0.0170809
-0.116223
-0.127164
-0.110261
-0.098583
-0.125077
-0.110292
-0.166502
-0.143582
-0.224745
-0.193882
-0.287974
-0.257058
-0.334126
-0.314593
-0.344292
-0.344489
-0.313207
-0.333513
-0.253869
-0.285697
-0.188693
-0.220714
-0.133737
-0.159431
-0.0933576
-0.111778
-0.065492
-0.0780776
-0.0466942
-0.055157
-0.0341331
-0.0397729
-0.0257761
-0.0295275
-0.0204338
-0.0227632
-0.0187551
-0.0398427
-0.0173462
-0.0279317
-0.0673033
-0.0530525
-0.0985806
-0.0826132
-0.130814
-0.114821
-0.146063
-0.145367
-0.157218
-0.119749
-0.132512
-0.0979956
-0.108077
-0.0831349
-0.0897233
-0.0739226
-0.0779033
-0.0696618
-0.0711765
-0.070454
-0.0694479
-0.0755731
-0.0725772
-0.0826297
-0.0790931
-0.0872162
-0.0855578
-0.0845195
-0.0869958
-0.0727544
-0.0797274
-0.055475
-0.0642646
-0.0422469
-0.0477598
-0.0388179
-0.0393584
-0.0440305
-0.0404108
-0.0581708
-0.0498148
-0.0842324
-0.0694959
-0.102928
-0.12023
-0.126245
-0.161013
-0.172524
-0.119735
-0.119195
-0.125749
-0.0899923
-0.105276
-0.137111
-0.152638
-0.00804754
-0.170783
-0.15466
-0.0177618
-0.00811159
-0.124827
-0.0844573
-0.0643093
-0.084898
-0.0733106
-0.116384
-0.0991702
-0.162339
-0.137251
-0.224011
-0.191684
-0.288215
-0.257045
-0.333561
-0.314652
-0.341209
-0.342878
-0.306878
-0.328783
-0.245503
-0.278081
-0.18032
-0.212144
-0.126272
-0.151475
-0.0867362
-0.104776
-0.0593173
-0.0717316
-0.0405881
-0.0490595
-0.0277956
-0.0335852
-0.0189719
-0.0229881
-0.0128987
-0.015616
-0.00917992
-0.0107763
-0.00831386
-0.040763
-0.0286366
-0.0687269
-0.0542238
-0.100111
-0.0841122
-0.132218
-0.116273
-0.14733
-0.181717
-0.176579
-0.181795
-0.154348
-0.166913
-0.125565
-0.140091
-0.0998996
-0.111934
-0.0813676
-0.089752
-0.0687715
-0.0744391
-0.0608929
-0.0642642
-0.0576098
-0.0586977
-0.0582432
-0.0575318
-0.0607331
-0.0594486
-0.0615398
-0.0616026
-0.0568962
-0.0600718
-0.0454433
-0.0519336
-0.0311396
-0.0381383
-0.0223079
-0.0256103
-0.0224448
-0.0213531
-0.0298567
-0.0253314
-0.0450595
-0.0362584
-0.0710625
-0.0565445
-0.111101
-0.0892476
-0.188061
-0.16637
-0.136752
-0.124419
-0.124658
-0.130745
-0.118004
-0.143762
-0.103699
-0.161827
-0.0579252
-0.0818747
-0.183242
-0.206324
-0.201068
-0.225217
5.14732e-05
-0.235827
-0.18816
-0.0181803
-0.00831516
-0.181594
-0.176254
-0.218752
0.000330094
-0.126257
-0.0539803
-0.027486
-0.0439617
-0.0347769
-0.0691537
-0.0553964
-0.104418
-0.0853418
-0.153892
-0.127064
-0.217655
-0.184522
-0.282388
-0.251164
-0.326243
-0.30835
-0.330926
-0.33407
-0.293982
-0.317014
-0.232143
-0.26464
-0.168519
-0.19939
-0.116685
-0.140783
-0.0789822
-0.0961868
-0.0527079
-0.0646351
-0.0345259
-0.042788
-0.0218458
-0.0276245
-0.0128791
-0.0169874
-0.00641979
-0.00939068
-0.00202388
-0.00399524
-0.000797391
-0.0413811
-0.029214
-0.0688845
-0.054622
-0.0994613
-0.0839392
-0.130194
-0.115017
-0.15742
-0.144577
-0.168031
-0.184169
-0.189036
-0.160997
-0.174391
-0.129387
-0.14549
-0.100194
-0.114012
-0.0782599
-0.0883069
-0.0625511
-0.0697631
-0.051425
-0.0564578
-0.0445436
-0.04747
-0.0413467
-0.0425657
-0.0400954
-0.0406371
-0.0379184
-0.0393271
-0.0318164
-0.0354902
-0.0209711
-0.0268597
-0.00967851
-0.0149052
-0.00485508
-0.00619368
-0.0078543
-0.00553786
-0.016584
-0.0115344
-0.0322741
-0.0234181
-0.0577108
-0.0435853
-0.0948793
-0.0747167
-0.146616
-0.11878
-0.180094
-0.133056
-0.127042
-0.165987
-0.169854
-0.201656
-0.147302
-0.120487
-0.167435
-0.105435
-0.192295
-0.0816889
-0.220063
-0.0219893
-0.0514381
-0.245651
-0.263092
-0.261431
0.000385764
-0.132015
-0.0172483
0.0126107
-0.00288665
0.00524383
-0.0232726
-0.0121864
-0.0513386
-0.036189
-0.0892964
-0.0688837
-0.141302
-0.113314
-0.206581
-0.172839
-0.271103
-0.240283
-0.3125
-0.296054
-0.313894
-0.318684
-0.275119
-0.29873
-0.214467
-0.245996
-0.154153
-0.18323
-0.105792
-0.128231
-0.0706523
-0.0867094
-0.0459508
-0.057201
-0.0286157
-0.0365274
-0.0163052
-0.0219462
-0.00741855
-0.0115105
-0.000860849
-0.00389315
0.00395946
0.00176092
0.00685584
0.0056411
0.00778655
0.00751369
0.000253931
-0.0183903
-0.00854543
-0.0411877
-0.0292758
-0.0676858
-0.05401
-0.0966006
-0.0819821
-0.125298
-0.111166
-0.149971
-0.138458
-0.159213
-0.17064
-0.191304
-0.183538
-0.188579
-0.193038
-0.164812
-0.17875
-0.130899
-0.148299
-0.0986771
-0.114042
-0.0737662
-0.0852648
-0.0553886
-0.0639126
-0.0415518
-0.04797
-0.0316579
-0.0361248
-0.0252962
-0.0280982
-0.0210682
-0.0230478
-0.0165917
-0.0190317
-0.00943477
-0.0134327
0.000515738
-0.00463215
0.00868726
0.00523751
0.0100072
0.0102968
0.0050059
0.00811702
-0.00452954
0.000829743
-0.019965
-0.0113769
-0.0433824
-0.030574
-0.07681
-0.0588347
-0.122317
-0.0973312
-0.155546
0.00777532
-0.147024
-0.133603
0.019674
-0.0123777
-0.169257
-0.12664
-0.197165
-0.109851
-0.228474
-0.0834647
-0.260446
-0.0499538
-0.286467
-0.298895
-0.244515
-0.287105
-0.275468
0.0139085
-0.168272
-0.151536
0.0141569
-0.154594
-0.142458
0.0269482
0.0563155
0.0398309
0.0482243
0.0213594
0.0309856
-0.00165749
0.0106236
-0.0314956
-0.0155469
-0.0713023
-0.0498932
-0.125381
-0.0963869
-0.191733
-0.157681
-0.254901
-0.225101
-0.292897
-0.27829
-0.290799
-0.297186
-0.251194
-0.274738
-0.193455
-0.223127
-0.137932
-0.164547
-0.0939603
-0.114345
-0.0619297
-0.0765979
-0.0391633
-0.0495715
-0.0229395
-0.0303775
-0.0112127
-0.016614
-0.00258096
-0.00657606
0.00392922
0.00089562
0.00892463
0.00661895
0.0123074
0.0108623
0.0133224
-0.00662827
0.0348237
0.0639015
7.96687e-06
0.0139418
0.00752129
-0.0182549
-0.00869356
-0.0401625
-0.0287859
-0.0651105
-0.0523124
-0.0917391
-0.0783405
-0.117729
-0.104997
-0.139446
-0.12942
-0.152503
-0.147253
-0.154931
-0.190372
-0.181831
-0.189148
-0.19294
-0.165399
-0.179581
-0.129877
-0.14824
-0.0952153
-0.111845
-0.0678418
-0.0805379
-0.0473249
-0.0568857
-0.0314142
-0.0388866
-0.0192072
-0.0248635
-0.0103814
-0.0144162
-0.00385466
-0.00694121
0.00239832
-0.000842058
0.0102682
0.00613326
0.0189467
0.0147276
0.0239629
0.0222187
0.0224321
0.0239676
0.0161084
0.0197167
0.00614889
0.0116367
-0.00873181
-0.000576258
-0.0302221
-0.018557
-0.058685
-0.0436956
-0.0970873
-0.0758858
-0.16419
-0.126375
-0.222928
-0.201576
-0.225491
-0.261775
-0.230066
-0.165962
-0.144316
-0.13717
-0.133674
-0.196586
-0.13597
-0.232182
-0.116237
-0.269055
-0.0859
-0.301931
-0.0482798
-0.325736
-0.330978
-0.319855
-0.297126
0.000206743
0.0702316
0.0428543
0.0740811
0.0191434
-0.268897
0.0134904
-0.22914
0.0188834
-0.157591
0.0903181
0.0907891
0.0806712
0.0864441
0.0648336
0.0732876
0.0449759
0.055431
0.0207717
0.0335423
-0.0102454
0.0063051
-0.0517554
-0.0293824
-0.107712
-0.0778692
-0.17411
-0.140382
-0.234536
-0.206411
-0.268149
-0.255876
-0.262546
-0.270347
-0.223406
-0.246116
-0.170244
-0.197252
-0.120687
-0.144333
-0.0817317
-0.0998003
-0.0531395
-0.0662776
-0.0325166
-0.0419871
-0.0175692
-0.0244541
-0.00657631
-0.0116638
0.00166199
-0.00217026
0.00797971
0.00502133
0.0129353
0.0106174
0.0165803
0.0149638
0.0186873
0.0178404
0.0191026
-0.000348716
0.00707103
-0.0178087
-0.00865056
-0.0383547
-0.0277189
-0.0613304
-0.0496098
-0.0853511
-0.0733242
-0.108256
-0.0971175
-0.126805
-0.118326
-0.137212
-0.133206
-0.13851
-0.127605
-0.162732
-0.145809
-0.185559
-0.176465
-0.185771
-0.188846
-0.162589
-0.176664
-0.126227
-0.145175
-0.0897826
-0.107372
-0.0604901
-0.0741187
-0.0383826
-0.0486972
-0.0210494
-0.0292359
-0.00726008
-0.0137372
0.00333307
-0.00159717
0.0115884
0.00765975
0.0191722
0.0153522
0.0273087
0.0231251
0.0342474
0.031177
0.0362392
0.0360192
0.0325957
0.0349894
0.0254714
0.0293703
0.0153548
0.0208459
0.00117497
0.00884657
-0.0183986
-0.00786587
-0.0434331
-0.0303208
-0.0769457
-0.0583028
-0.129595
-0.101264
-0.165697
-0.154147
-0.184699
-0.174299
-0.219928
-0.188594
-0.188249
-0.189951
-0.158767
-0.228787
-0.147677
-0.270458
-0.123305
-0.310353
-0.0877401
-0.341978
-0.0451536
-0.358526
-0.356168
-0.335963
-0.308104
-0.268016
-0.180221
-0.214414
0.0776753
0.00851805
0.049713
0.0743114
0.0129081
0.0231705
-0.120016
-0.103487
-0.110424
0.0230995
0.0183639
-0.177132
0.0954791
0.0876853
0.102875
0.100706
0.099008
0.102292
0.0859099
0.0933822
0.0668754
0.0770424
0.0424143
0.0554013
0.0105249
0.0276081
-0.0326564
-0.0093786
-0.089714
-0.0595434
-0.154544
-0.122003
-0.210807
-0.184967
-0.23906
-0.229817
-0.230343
-0.239149
-0.193205
-0.214248
-0.146057
-0.169759
-0.103205
-0.123596
-0.0695373
-0.0851895
-0.0445027
-0.0560581
-0.0261206
-0.0346045
-0.0125499
-0.0188311
-0.00239436
-0.00711585
0.0053444
0.00172807
0.0113617
0.00853347
0.0161339
0.0138839
0.0198326
0.0181187
0.0222463
0.0212132
0.022842
-0.000598916
0.00655388
-0.0169985
-0.00846247
-0.0359309
-0.0261742
-0.0566984
-0.0461523
-0.0779907
-0.0673885
-0.097758
-0.0882253
-0.113229
-0.106226
-0.121291
-0.118375
-0.120048
-0.121753
-0.116062
-0.153217
-0.136972
-0.176563
-0.167019
-0.178439
-0.180616
-0.156432
-0.170044
-0.120027
-0.139157
-0.0824875
-0.100715
-0.0517941
-0.0661107
-0.028585
-0.0394015
-0.010413
-0.0190076
0.00429393
-0.00266817
0.0160341
0.0105044
0.0255367
0.0209893
0.0340216
0.0298418
0.0417404
0.0380254
0.0464227
0.0446675
0.0457717
0.0467795
0.0407249
0.0436468
0.03315
0.0372092
0.0230654
0.0284676
0.00969907
0.0168453
-0.0078823
0.00147721
-0.0297297
-0.0183025
-0.0587177
-0.0427258
-0.0992686
-0.0786682
-0.128187
-0.116273
-0.144332
-0.137048
-0.15502
-0.148773
-0.218013
-0.176072
-0.094783
-0.0884853
-0.263652
-0.160173
-0.309218
-0.129519
-0.348395
-0.0877367
-0.374471
-0.0399181
-0.381342
-0.36867
-0.342628
-0.301229
-0.252534
-0.165122
-0.199887
-0.142156
-0.101995
0.0692785
0.0806982
0.0658446
0.0174682
0.0537012
0.0705917
0.0721424
0.0227556
-0.200077
0.0988395
0.0906565
0.109157
0.105094
0.110099
0.110884
0.101388
0.106853
0.0847832
0.0939942
0.0610198
0.0738369
0.0285974
0.0460807
-0.0156508
0.0081321
-0.0723268
-0.0426731
-0.133668
-0.103284
-0.184161
-0.161282
-0.206674
-0.201692
-0.195681
-0.204833
-0.162181
-0.180755
-0.122071
-0.14207
-0.0861825
-0.103257
-0.0577556
-0.0710267
-0.0362201
-0.0462163
-0.0200726
-0.0275666
-0.00791402
-0.0135699
0.00134593
-0.002978
0.00851148
0.00515004
0.0141517
0.0114937
0.0186588
0.0165273
0.0222185
0.0205518
0.0247711
0.0236188
0.0260377
0.0255502
0.0259984
0.0261563
0.0221707
0.0122412
0.0176812
-0.000710475
0.00607499
-0.0159027
-0.00803413
-0.033093
-0.0242807
-0.0515983
-0.0422412
-0.0701982
-0.0609903
-0.0869939
-0.0789644
-0.0996311
-0.0939863
-0.105748
-0.103642
-0.103788
-0.105791
-0.0999963
-0.0815224
-0.110247
-0.0952166
-0.140929
-0.125777
-0.163947
-0.154182
-0.167423
-0.168676
-0.147181
-0.159968
-0.111547
-0.130449
-0.073604
-0.0921528
-0.0419691
-0.0567688
-0.0180154
-0.029155
0.000567484
-0.00820693
0.0156685
0.00848998
0.0280291
0.0221581
0.0382618
0.0333612
0.0469509
0.0427945
0.0534223
0.0505962
0.0556231
0.0551876
0.0529557
0.0548134
0.0471112
0.0503112
0.0393372
0.0434553
0.029459
0.034691
0.0169576
0.0235745
0.00123063
0.00951464
-0.0177795
-0.00785092
-0.0421054
-0.0289849
-0.0722277
-0.0570755
-0.0958379
-0.0854404
-0.11087
-0.103932
-0.12897
-0.119055
-0.131669
0.0255473
-0.248198
-0.194589
-0.29825
-0.171593
-0.343978
-0.133019
-0.378503
-0.0844417
-0.395082
-0.0320245
-0.391177
-0.369861
-0.332474
-0.285008
-0.231491
-0.178771
-0.0872257
-0.118224
-0.0574196
-0.066379
-0.0433272
0.0564074
0.0524559
0.042086
0.05884
0.0454333
0.0249977
0.0534174
0.062898
0.0604158
0.0281933
-0.0736393
-0.0631086
0.0278606
-0.0694777
-0.224644
0.0817013
0.0709178
0.0993356
0.0912099
0.110843
0.105942
0.114854
0.113883
0.110197
0.113645
0.0967111
0.104552
0.0744596
0.0867161
0.0422762
0.0597482
-0.00170041
0.0218169
-0.0560319
-0.0279214
-0.111848
-0.0846207
-0.153756
-0.135609
-0.170666
-0.163789
-0.160286
-0.168716
-0.131924
-0.147401
-0.0992952
-0.115495
-0.0701537
-0.0840593
-0.0466605
-0.0576951
-0.0284308
-0.0369482
-0.0144362
-0.02097
-0.00367612
-0.00870726
0.00466543
0.000753673
0.0112146
0.00813176
0.0164275
0.0139652
0.0206188
0.018635
0.0239663
0.0223913
0.026461
0.0253263
0.0279064
0.027326
0.0281797
0.0213318
0.0271684
0.0248037
0.0115342
0.0168442
-0.000684297
0.0056592
-0.0146309
-0.00745218
-0.030059
-0.0221865
-0.0463717
-0.0381613
-0.0624285
-0.0545271
-0.0765351
-0.0698488
-0.0867217
-0.0822399
-0.0912575
-0.089785
-0.0890676
-0.0910259
-0.0810497
-0.0856783
-0.0755477
-0.0988339
-0.0856101
-0.126375
-0.112685
-0.148315
-0.138732
-0.153177
-0.153483
-0.135247
-0.146851
-0.10123
-0.119487
-0.0635843
-0.0821336
-0.0314242
-0.0465353
-0.00694094
-0.0183072
0.0118212
0.00299558
0.0269602
0.0197595
0.0394587
0.0335044
0.0497479
0.0448636
0.0577146
0.0540683
0.0622305
0.0605005
0.0621802
0.0628983
0.0582146
0.060567
0.0519885
0.0553091
0.0441904
0.0482889
0.034643
0.0396524
0.0230065
0.0291129
0.00891341
0.0162717
-0.00772684
0.000941545
-0.028058
-0.0173446
-0.0506371
-0.0394855
-0.0684333
-0.060446
-0.0824195
-0.0753756
-0.0931475
-0.0898615
-0.0802635
-0.0878513
-0.070325
-0.277567
-0.211949
-0.0593192
-0.0538918
-0.328529
-0.179757
-0.370447
-0.132441
-0.396579
-0.0773945
-0.402485
-0.0219431
-0.388473
-0.357018
-0.312237
-0.25802
-0.202476
-0.145021
-0.088529
-0.0261448
-0.0433938
-0.011923
-0.00882465
0.00078864
0.0375369
0.0308463
0.0263777
0.0344051
0.0198754
0.0150375
0.0291366
0.0486756
0.0520362
0.0466363
0.0285681
0.0262737
0.0277857
-0.248127
0.0600151
0.0477265
0.0812119
0.0712013
0.0980483
0.0902229
0.109791
0.104624
0.11526
0.113402
0.113096
0.115209
0.102289
0.108829
0.0820097
0.0933979
0.0511731
0.0679893
0.00928138
0.0315494
-0.0405773
-0.0150737
-0.0892005
-0.0658359
-0.123574
-0.10895
-0.135672
-0.132155
-0.126224
-0.133315
-0.103822
-0.115927
-0.0784657
-0.0910663
-0.0554803
-0.0665176
-0.0364383
-0.045452
-0.0212322
-0.0283892
-0.00925347
-0.0148817
0.00016012
-0.00426473
0.00758998
0.00409105
0.0135054
0.010712
0.0182616
0.0160101
0.0221073
0.0202855
0.0251902
0.0237373
0.0275204
0.0264503
0.0289718
0.0283632
0.0293949
0.0293017
0.029121
0.0202598
0.0237912
0.0107537
0.0158355
-0.000645267
0.00522527
-0.0132983
-0.00682155
-0.0270303
-0.0200522
-0.0412896
-0.0341482
-0.0550243
-0.0483065
-0.0667752
-0.0612503
-0.0749395
-0.0714004
-0.0782566
-0.0772584
-0.0761385
-0.0778865
-0.0691917
-0.0731154
-0.0644815
-0.0484027
-0.0653718
-0.0563616
-0.0866737
-0.0755422
-0.110477
-0.0985147
-0.130471
-0.121543
-0.136174
-0.13574
-0.121137
-0.131249
-0.0895867
-0.106754
-0.0530154
-0.0712097
-0.0207708
-0.0360185
0.00409243
-0.00744959
0.0229442
0.0141205
0.0378794
0.0308051
0.050008
0.0442625
0.0595348
0.0551117
0.065901
0.063173
0.0682122
0.0676007
0.0665175
0.067699
0.0619143
0.0644913
0.0555776
0.0589173
0.0478962
0.0519072
0.0387783
0.0435259
0.0280095
0.0336175
0.0153882
0.0219299
0.000831717
0.00837775
-0.0161708
-0.00736584
-0.0338241
-0.0252069
-0.0478403
-0.0414179
-0.0589759
-0.0535383
-0.0634693
-0.0632514
-0.0547295
-0.0602409
-0.0356231
-0.0463033
-0.0245522
-0.30254
-0.225466
-0.350546
-0.182741
-0.385366
-0.126938
-0.401398
-0.066815
-0.396576
-0.0113925
-0.37245
-0.332635
-0.280529
-0.223102
-0.164448
-0.107839
-0.0581314
-0.0189019
0.0137506
0.00894044
0.0176285
0.0255236
0.0256058
0.00455817
0.0104726
-0.00382241
-0.0112286
0.0209421
0.00938394
-0.00189732
0.0283482
0.0398585
0.0386005
0.0312755
0.0251261
0.0291935
-0.0428517
-0.0369629
-0.0415237
0.02849
0.0267065
-0.267393
0.0370791
0.0240952
0.0601199
0.0490956
0.0796785
0.0703415
0.0955683
0.0881017
0.107093
0.101948
0.113119
0.110879
0.112275
0.113644
0.103303
0.10888
0.0850722
0.0954191
0.0566814
0.072177
0.0186321
0.0387264
-0.025019
-0.0029353
-0.0656322
-0.0463749
-0.0932316
-0.0815563
-0.10228
-0.10002
-0.0951706
-0.10038
-0.0788344
-0.0876742
-0.0600007
-0.0694283
-0.0423494
-0.0509064
-0.0271877
-0.0344311
-0.0146768
-0.0206125
-0.00454434
-0.00933677
0.00360145
-0.00024813
0.0101484
0.00705237
0.0154323
0.0129297
0.0197198
0.0176866
0.0232016
0.0215515
0.0259919
0.0246779
0.0281095
0.0271328
0.0294727
0.0288862
0.0298889
0.0297953
0.0296373
0.0189927
0.0225769
0.00984757
0.0146741
-0.000650537
0.00470942
-0.0120208
-0.00622387
-0.0241658
-0.0180196
-0.0365453
-0.0303769
-0.0482135
-0.0425406
-0.0579469
-0.0534048
-0.0644796
-0.0616856
-0.0668942
-0.0662354
-0.0649186
-0.0664495
-0.059006
-0.0623763
-0.0506934
-0.055088
-0.0461279
-0.0569806
-0.0495057
-0.0743976
-0.0652565
-0.0941538
-0.0841817
-0.111421
-0.103573
-0.117501
-0.116442
-0.105331
-0.11383
-0.0771023
-0.0926987
-0.042492
-0.0599167
-0.010734
-0.0258804
0.0142848
0.00264522
0.0331382
0.0243617
0.0476427
0.0408392
0.0588833
0.0536437
0.0669531
0.0633369
0.0713904
0.0696546
0.0719581
0.0721422
0.0692872
0.0709325
0.0643684
0.0670272
0.0580757
0.0613718
0.0506188
0.0544903
0.0419876
0.0464544
0.0320622
0.0371955
0.0207622
0.0265805
0.00807282
0.0146027
-0.00606088
0.00115007
-0.0200733
-0.0132698
-0.0314591
-0.0261513
-0.0399683
-0.0361162
-0.041973
-0.0421822
-0.0351136
-0.0395238
-0.0208879
-0.0288477
-0.00119206
-0.0112082
0.00869902
-0.319719
-0.232717
-0.0356536
-0.0318699
-0.36143
-0.179369
-0.38774
-0.116589
-0.392569
-0.0542591
-0.377649
-0.00289868
-0.344919
-0.297146
-0.24056
-0.179762
-0.121783
-0.068486
-0.0258871
0.00535383
0.0256335
0.0322491
0.0293665
0.0370535
0.0321662
-0.0370659
-0.0185301
0.0355728
-0.0334175
-0.027526
0.00278457
-0.00894151
-0.0194578
0.0224568
0.0274258
0.0228565
0.0140829
0.0275018
-0.279597
-0.0102748
-0.0236054
0.0153003
0.0026606
0.0387789
0.0273388
0.0595688
0.0495574
0.0775006
0.0688918
0.0923636
0.085341
0.103422
0.0984342
0.109593
0.1072
0.109564
0.110442
0.102049
0.106819
0.0859848
0.0951433
0.0608686
0.0745485
0.0278402
0.0451697
-0.00887178
0.00954173
-0.041982
-0.0263856
-0.064203
-0.0548116
-0.0721873
-0.069952
-0.0682729
-0.0714282
-0.0573979
-0.0633913
-0.0440221
-0.0508139
-0.0308082
-0.0372948
-0.0189412
-0.0246706
-0.00878474
-0.013645
-0.000312413
-0.00434748
0.00666144
0.00334755
0.0123706
0.00965949
0.0170401
0.0148223
0.0208605
0.0190462
0.0239724
0.0224979
0.0264586
0.0252903
0.0283372
0.0274749
0.0295216
0.029022
0.0298931
0.0298126
0.0293272
0.0297475
0.0277331
0.028667
0.0262846
0.0237441
0.0254389
0.0175605
0.0210986
0.00883684
0.0133811
-0.000732995
0.00411596
-0.0108922
-0.00573091
-0.0215742
-0.0161918
-0.0322595
-0.0269623
-0.0421199
-0.0373538
-0.0501496
-0.0464291
-0.0553716
-0.0531652
-0.0571279
-0.0567043
-0.05532
-0.0566545
-0.0504093
-0.0531969
-0.0434234
-0.0470994
-0.0395568
-0.0281453
-0.0373531
-0.0324919
-0.048741
-0.0427724
-0.0626353
-0.0553737
-0.0782727
-0.0703751
-0.0922227
-0.0858062
-0.0978065
-0.0965501
-0.088339
-0.0951452
-0.0640633
-0.0776997
-0.0323904
-0.0485525
-0.00192378
-0.0166076
0.0228047
0.011248
0.0414401
0.0328081
0.05528
0.0488776
0.0653012
0.0607381
0.0717288
0.0689678
0.0745203
0.0735726
0.0739515
0.0746181
0.0707482
0.0726218
0.0658227
0.0684674
0.0596754
0.062881
0.0525268
0.056221
0.0444133
0.0485922
0.0352857
0.039979
0.0251406
0.0303353
0.0140306
0.0197048
0.00217726
0.00814796
-0.00912021
-0.00366207
-0.0183555
-0.014029
-0.0247957
-0.0220408
-0.0258437
-0.0261416
-0.0204109
-0.0239045
-0.00934641
-0.0155043
0.00535894
-0.00217192
0.0194308
0.0127552
0.0250715
0.0265483
-0.326744
-0.231982
-0.359613
-0.169816
-0.376112
-0.102685
-0.371527
-0.0421737
-0.347791
0.00118642
-0.307265
-0.254133
-0.193729
-0.132534
-0.0759652
-0.0298618
0.00473946
0.0276856
0.0401732
0.0431691
0.0332155
0.0395983
-0.0270639
-0.0384839
-0.0503883
0.0283027
0.0323706
0.0268639
-0.0485615
-0.0444363
-0.0171329
-0.0285838
-0.037793
0.0119639
0.0119127
0.00499099
-0.00541332
0.0275695
-0.0245907
-0.0214568
0.0264449
-0.0244281
-0.282965
-0.00355588
-0.0152801
0.0189142
0.00786504
0.0397359
0.0295774
0.0584802
0.049421
0.0749337
0.0669914
0.0887759
0.0822215
0.0992339
0.0944853
0.105342
0.102903
0.105936
0.106408
0.09984
0.103794
0.0861732
0.0939909
0.0647818
0.0764083
0.0370792
0.0515433
0.00690128
0.0219683
-0.0200853
-0.00735765
-0.0386825
-0.0306846
-0.0467147
-0.0439733
-0.0459165
-0.0472354
-0.0394834
-0.0431973
-0.0304388
-0.0351365
-0.0208076
-0.0256104
-0.0116826
-0.0161408
-0.00354978
-0.00747779
0.00345198
9.30263e-05
0.00935885
0.00653614
0.0142858
0.0119364
0.0183688
0.0164244
0.0217344
0.0201343
0.0244801
0.0231801
0.0266634
0.0256401
0.0282919
0.0275495
0.0293037
0.028881
0.029591
0.0295456
0.0290529
0.029437
0.0284296
0.0247127
0.0251064
0.0251
0.0221176
0.0238137
0.0159838
0.019453
0.00774784
0.0119819
-0.000931842
0.00343885
-0.00997355
-0.00539838
-0.019319
-0.0146312
-0.0284921
-0.0239672
-0.0367852
-0.0327991
-0.0433849
-0.0403478
-0.0475494
-0.0458103
-0.0488202
-0.0485595
-0.047188
-0.0483496
-0.04309
-0.0454037
-0.0372723
-0.0403475
-0.0307484
-0.0340084
-0.0275238
-0.0320469
-0.0281196
-0.0410605
-0.0363424
-0.0517613
-0.0462042
-0.0635085
-0.0576007
-0.0738954
-0.069113
-0.0781241
-0.0771493
-0.0707436
-0.0760856
-0.050532
-0.062029
-0.0226711
-0.0370794
0.00551953
-0.00822877
0.029246
0.0180841
0.0472769
0.0389484
0.0602772
0.0543433
0.0690885
0.0651682
0.0741801
0.0720788
0.0758827
0.0754291
0.0746944
0.0756074
0.0713258
0.0732359
0.0664714
0.0690573
0.0605523
0.0636274
0.0537667
0.0572608
0.0461844
0.0500741
0.0378117
0.0420954
0.0286985
0.0333412
0.018952
0.0238952
0.00890615
0.0139192
-0.000415594
0.00407422
-0.00797765
-0.00445315
-0.0129054
-0.0108698
-0.0135731
-0.01384
-0.00938702
-0.0120756
-0.000985128
-0.00561836
0.00974328
0.00420568
0.0199478
0.0150769
0.0267127
0.0239318
0.0282622
-0.322436
-0.224019
-0.0212257
-0.0186882
-0.347213
-0.155012
-0.353695
-0.0876222
-0.340622
-0.0334418
-0.309547
-0.000653745
-0.263188
-0.206037
-0.143828
-0.0834666
-0.0317291
0.00725819
0.0326717
0.0466695
0.0509608
0.0477293
-0.0492314
-0.0374508
-0.0459066
-0.0586414
0.0397083
-0.0628522
0.023863
0.0294645
-0.0636336
-0.06149
0.0198094
0.0193733
0.0156967
-0.0389627
-0.0495155
-0.0568063
-0.00257724
-0.0064482
-0.0155166
-0.0270902
0.0248646
0.0235433
0.0234278
-0.276199
-0.0182364
-0.028168
0.00223054
-0.00797873
0.0217596
0.0121421
0.0402186
0.0311277
0.0571603
0.048913
0.0722619
0.0649587
0.0850544
0.0789891
0.0948265
0.0903678
0.100748
0.0983288
0.101837
0.101964
0.0971005
0.100254
0.0858479
0.0923128
0.0681255
0.0777504
0.0453425
0.0572109
0.020677
0.0329859
-0.00159466
0.00897867
-0.0177649
-0.0106196
-0.0262019
-0.0229351
-0.0278596
-0.0277651
-0.0247737
-0.0267716
-0.0190399
-0.0221249
-0.01224
-0.0156991
-0.00536319
-0.00876905
0.00105273
-0.00207737
0.00676795
0.0040051
0.0117157
0.00933754
0.0159223
0.013908
0.0194538
0.0177678
0.0223844
0.02099
0.0247757
0.0236446
0.026663
0.0257815
0.0280456
0.0274187
0.0288811
0.0285366
0.0290716
0.0290588
0.0285421
0.0288997
0.0271495
0.0279486
0.0260958
0.0229763
0.0234199
0.0202494
0.0219914
0.0142703
0.0176264
0.00657525
0.0104905
-0.00128192
0.00265158
-0.00929692
-0.00526075
-0.0174268
-0.0133677
-0.0252563
-0.0214134
-0.032194
-0.0288777
-0.0375928
-0.0351251
-0.0408971
-0.0395343
-0.0417982
-0.0416551
-0.040334
-0.0413455
-0.0368888
-0.0388231
-0.0320636
-0.03461
-0.0266025
-0.0293423
-0.0238599
-0.0162834
-0.0211533
-0.0185998
-0.0270635
-0.0239797
-0.0340308
-0.0304065
-0.041986
-0.0379041
-0.0503069
-0.0461747
-0.0572665
-0.0541225
-0.0595931
-0.0592597
-0.053352
-0.0577199
-0.0366583
-0.0461379
-0.0129979
-0.0253687
0.0120558
-0.000303103
0.0339677
0.0235773
0.0509099
0.0430792
0.0629634
0.0575064
0.0707869
0.067362
0.0749714
0.0733012
0.0760274
0.0758559
0.0745404
0.0755594
0.0711732
0.0730518
0.0664907
0.0689723
0.0608543
0.0637748
0.0544645
0.0577461
0.0474096
0.0510168
0.0397381
0.0436468
0.0315365
0.0356956
0.0229553
0.0272795
0.0143607
0.0186188
0.00653503
0.0102967
0.000253559
0.0031618
-0.00366355
-0.00207041
-0.00421678
-0.0043967
-0.00109868
-0.00310555
0.00515957
0.00171685
0.012974
0.00898214
0.0200797
0.016716
0.0245005
0.022769
0.0245816
0.0251663
0.0228097
-0.308185
-0.208823
-0.324559
-0.137405
-0.323013
-0.0745922
-0.30333
-0.0305082
-0.26683
-0.00831978
-0.216402
-0.156616
-0.0941116
-0.0363446
0.0096999
0.040316
0.0563772
0.0613686
-0.0525901
-0.0406212
-0.0455161
-0.0576453
0.0582256
-0.0663772
0.0490278
-0.0736393
0.0370867
-0.0781347
0.0245962
-0.0785764
0.010479
0.0134052
-0.0624944
-0.0711332
-0.0764319
-0.0209114
-0.0279724
-0.0389334
-0.0512076
0.0217683
0.0244264
-0.0139808
0.00435222
0.00878299
0.00357987
-0.0122367
-0.0141824
0.0231142
0.0217863
-0.261035
-0.0272543
-0.0346007
-0.0106215
-0.0191416
0.00681584
-0.00189611
0.023979
0.0155003
0.0404235
0.0323008
0.0557891
0.0482741
0.0695982
0.0629165
0.0813441
0.0757672
0.0903993
0.086251
0.0960551
0.0937028
0.0974989
0.0973585
0.0939306
0.0963868
0.0848333
0.0900871
0.0703563
0.0782222
0.0517424
0.0614392
0.0314934
0.0416255
0.0128212
0.0217634
-0.00151904
0.00498154
-0.010182