/*--------------------------------*- C++ -*----------------------------------*\
  =========                 |
  \\      /  F ield         | OpenFOAM: The Open Source CFD Toolbox
   \\    /   O peration     | Website:  https://openfoam.org
    \\  /    A nd           | Version:  10
     \\/     M anipulation  |
\*---------------------------------------------------------------------------*/
FoamFile
{
    format      ascii;
    class       volVectorField;
    location    "18";
    object      U;
}
// * * * * * * * * * * * * * * * * * * * * * * * * * * * * * * * * * * * * * //

dimensions      [0 1 -1 0 0 0 0];

internalField   nonuniform List<vector> 
14667
(
(1.03728 0.0668805 -1.17336e-19)
(0.887174 0.0445744 -4.95289e-20)
(0.497214 0.0227522 -2.04732e-21)
(0.611729 0.0193279 3.68547e-22)
(0.597046 0.0206663 5.93662e-22)
(0.990545 -0.0895984 -3.21142e-20)
(1.03254 -0.0824839 7.08624e-20)
(0.387787 0.0350924 -1.10928e-21)
(0.469196 0.0238828 0)
(0.581897 0.0233634 -1.39205e-22)
(1.03698 -0.0669626 -3.01811e-20)
(1.02556 -0.0394298 1.62385e-20)
(0.986131 -0.0231094 -3.9712e-20)
(0.886077 -0.075233 1.17764e-19)
(0.432988 0.0212634 -1.6526e-21)
(1.01849 -0.0309707 0)
(1.01884 -0.029214 0)
(0.537765 0.00733963 -8.79936e-22)
(0.317165 0.011894 0)
(1.03994 -0.0586401 0)
(1.05569 0.0855171 -8.56835e-20)
(0.885634 -0.00312709 6.14465e-20)
(0.997472 0.0159995 0)
(1.0013 0.0408085 4.28134e-21)
(0.0731414 -0.0861689 8.49733e-20)
(0.474656 -0.0766762 2.83449e-19)
(0.0170035 -0.046854 8.44411e-20)
(-0.10807 -0.116929 -3.24484e-19)
(-0.126036 -0.0994977 6.03485e-21)
(0.808891 0.0723067 1.60236e-20)
(0.859284 0.0439524 -1.48177e-21)
(0.874563 0.0164395 -4.4593e-20)
(-0.0401486 0.0195951 1.3353e-20)
(-0.059186 0.0151222 7.35188e-20)
(-0.159826 -0.00117016 7.49142e-20)
(0.0054784 0.00882452 -1.14843e-19)
(0.0292177 0.0580641 -1.58281e-21)
(0.40239 -0.0482811 1.28715e-21)
(0.400492 -0.0302083 8.11496e-22)
(0.522889 -0.018316 -1.62321e-22)
(0.510453 -0.0137633 0)
(0.412789 0.0088091 -1.23895e-20)
(0.551384 -0.216562 5.10256e-19)
(0.612448 -0.0953557 -1.67833e-19)
(0.429758 -0.0602817 -1.18234e-19)
(0.352772 -0.273955 7.97758e-20)
(0.584758 -0.435475 -9.15617e-21)
(1.16913 0.0849823 -8.61394e-20)
(1.2253 0.0703667 2.72067e-20)
(0.870799 0.11538 0)
(0.826421 0.121839 0)
(0.736305 0.0143017 0)
(0.796128 -0.00649782 0)
(0.853097 -0.0067857 -7.73345e-20)
(1.37994 -0.222237 2.90015e-20)
(1.41462 -0.186176 1.65022e-20)
(1.3318 0.239512 3.13348e-20)
(1.40026 0.230128 2.01032e-20)
(0.23309 0.224248 -2.79173e-20)
(0.376811 0.160156 2.20003e-20)
(-0.1221 -0.0932141 2.42514e-19)
(-0.116761 -0.0795275 0)
(1.00676 -0.47619 2.15046e-21)
(1.01237 -0.394164 -4.82666e-20)
(0.932019 -0.351505 -4.70687e-21)
(0.881185 -0.632302 -8.09149e-21)
(0.964637 -0.551384 3.79798e-20)
(0.474708 0.677856 5.95445e-20)
(0.778877 0.706669 -2.88915e-20)
(0.903753 0.0233217 4.02524e-20)
(0.922097 0.00729215 -3.6483e-20)
(0.926338 0.0313772 -4.02159e-20)
(0.14477 -0.0291873 0)
(0.146072 -0.265785 3.9511e-20)
(0.938877 0.0834456 3.81257e-20)
(1.18396 -0.0113633 5.28009e-20)
(1.29954 -0.000178384 -1.68706e-19)
(1.19769 0.0350792 1.01513e-19)
(0.912024 -0.010488 2.09527e-19)
(0.898016 -0.0419363 -3.33586e-22)
(0.603273 -0.0100263 -6.76883e-22)
(0.681274 -0.00991879 0)
(0.612562 -0.0138831 1.27497e-21)
(0.809947 0.0169403 -1.22504e-22)
(0.808655 0.0180338 0)
(-0.117098 0.231339 0)
(-0.203895 0.280294 -1.05681e-19)
(0.466518 0.188129 1.48581e-20)
(0.671103 0.138239 -8.75473e-20)
(1.17222 -0.102402 -5.10092e-20)
(1.36372 -0.105488 6.83578e-20)
(0.800666 -0.089586 -2.15856e-21)
(0.750327 -0.0648017 4.43001e-21)
(0.844584 -0.443244 4.42227e-21)
(0.852329 -0.421253 -2.01053e-21)
(0.77574 0.591814 6.5716e-21)
(0.763445 0.625266 5.70156e-21)
(1.01906 0.636848 1.38808e-21)
(0.991685 0.662802 -3.38868e-21)
(1.11786 0.652952 5.08932e-21)
(1.08496 0.682676 -2.20252e-21)
(1.50768 -0.250112 8.38897e-21)
(1.46887 -0.180712 5.46919e-20)
(0.930273 0.11603 7.06507e-21)
(0.910999 0.0905887 -2.52807e-20)
(0.937502 0.0737927 3.28976e-21)
(0.957203 0.095489 3.17924e-21)
(0.960937 0.158518 2.2191e-20)
(0.94837 0.130091 4.41812e-22)
(0.343282 -0.014032 4.33926e-22)
(0.205921 -0.00929898 -4.77177e-23)
(0.222772 -0.00449966 -7.46488e-22)
(0.362561 -0.00838351 0)
(0.450568 -0.0214203 1.018e-21)
(0.465654 -0.0146716 -4.29311e-22)
(1.21928 -0.0862399 -1.19433e-20)
(1.23824 -0.0931507 3.04596e-20)
(1.22455 -0.0846634 0)
(0.305436 -0.0301769 -9.05773e-22)
(0.233493 -0.0283669 -3.46233e-22)
(0.352629 -0.0222178 -1.51157e-22)
(0.86681 -0.450354 -1.91305e-21)
(0.874235 -0.431681 8.51666e-21)
(0.888695 -0.451367 -4.49852e-21)
(0.902197 -0.47055 5.41713e-21)
(0.894545 -0.483074 0)
(0.881878 -0.464869 1.10305e-21)
(0.912743 -0.493629 -1.5476e-20)
(0.919692 -0.516164 7.90987e-21)
(0.9088 -0.525273 0)
(0.904839 -0.502903 0)
(0.924815 -0.536048 0)
(0.927153 -0.554377 -1.04619e-20)
(0.91219 -0.560796 0)
(0.91242 -0.543713 0)
(0.925829 -0.568533 1.05142e-20)
(0.920561 -0.576195 0)
(0.900243 -0.578042 0)
(0.90853 -0.57284 0)
(0.9108 -0.573508 -1.55834e-20)
(0.89596 -0.556592 1.54727e-20)
(0.868873 -0.551115 0)
(0.887149 -0.572064 0)
(0.875922 -0.521697 0)
(0.850878 -0.465684 2.29767e-20)
(0.818338 -0.449822 5.02996e-24)
(0.84561 -0.511273 0)
(0.822487 -0.387975 -2.31309e-20)
(0.793055 -0.290391 0)
(0.760918 -0.262393 0)
(0.789179 -0.366168 0)
(0.765922 -0.178227 2.81854e-23)
(0.745353 -0.0579416 0)
(0.71372 -0.0110817 0)
(0.736286 -0.142765 0)
(0.730986 0.0778126 4.18827e-20)
(0.71987 0.216556 -3.68685e-20)
(0.673653 0.256796 -2.97151e-21)
(0.691733 0.125494 0)
(0.699582 0.354979 0)
(0.692694 0.467778 0)
(0.665729 0.47669 -4.24561e-21)
(0.661884 0.373724 3.2016e-21)
(0.691532 0.557337 6.41804e-21)
(0.702535 0.61987 5.06411e-21)
(0.695116 0.607375 -4.40904e-21)
(0.674698 0.555297 5.73292e-21)
(0.726279 0.626105 8.03868e-21)
(0.725645 0.650219 -9.3338e-21)
(0.818177 -0.437238 -2.01561e-22)
(0.826239 -0.413754 1.7368e-21)
(0.756078 0.655744 8.67278e-23)
(0.812431 -0.459224 1.94951e-21)
(0.789863 -0.445127 -3.81677e-21)
(0.79316 -0.424647 5.98624e-23)
(0.86015 -0.39855 0)
(0.836768 -0.387888 -1.53231e-21)
(0.730596 0.670628 -2.57116e-21)
(0.713837 0.554107 -1.59548e-20)
(0.716304 0.630349 6.12709e-21)
(0.731362 0.321025 1.60962e-20)
(0.720974 0.448731 -1.6578e-20)
(0.755565 0.0233841 0)
(0.748061 0.177728 0)
(0.816626 -0.269073 -2.83335e-23)
(0.782323 -0.129302 0)
(0.88136 -0.484091 1.23192e-23)
(0.850965 -0.389896 0)
(0.924327 -0.588186 0)
(0.906047 -0.549554 0)
(0.943788 -0.604759 1.4261e-23)
(0.936674 -0.604791 0)
(0.945754 -0.574677 -6.47242e-26)
(0.94661 -0.593288 0)
(0.935344 -0.528342 0)
(0.942002 -0.552253 0)
(0.916593 -0.478822 2.19491e-25)
(0.927336 -0.503764 0)
(0.892681 -0.432467 0)
(0.90673 -0.454021 0)
(0.880436 -0.411466 -4.30223e-21)
(0.811848 -0.377 -1.80224e-21)
(0.800421 -0.401936 1.85895e-21)
(0.859175 -0.4672 -8.90061e-22)
(0.837696 -0.463207 0)
(0.886096 -0.491156 -9.9788e-23)
(0.874193 -0.477252 -9.37811e-22)
(0.895361 -0.530091 0)
(0.892959 -0.509889 -3.28934e-23)
(0.892682 -0.561178 0)
(0.896054 -0.546816 0)
(0.874239 -0.571184 0)
(0.885958 -0.56979 0)
(0.83668 -0.536286 0)
(0.857854 -0.561148 0)
(0.783546 -0.430248 0)
(0.811475 -0.493216 0)
(0.726722 -0.246484 0)
(0.754728 -0.34732 0)
(0.679536 -0.00554425 0)
(0.700781 -0.131051 0)
(0.650926 0.252882 -2.6439e-21)
(0.66318 0.125621 0)
(0.65114 0.472574 1.22121e-21)
(0.646054 0.371446 2.16763e-22)
(0.693982 0.58182 -3.54779e-21)
(0.665916 0.542166 0)
(0.733 0.594692 -8.80219e-21)
(0.772847 -0.400789 -1.47078e-21)
(0.773296 -0.415233 1.83769e-22)
(0.753558 0.682164 1.85815e-21)
(0.800634 0.619494 -3.58209e-21)
(0.828165 -0.35127 0)
(0.800922 -0.33733 3.03395e-22)
(0.786581 -0.360898 4.311e-22)
(0.814275 0.589617 0)
(0.741834 0.681576 -2.68704e-21)
(0.741823 0.542211 -3.54901e-21)
(0.736024 0.628609 0)
(0.771126 0.295268 -1.73376e-20)
(0.75332 0.42657 1.67139e-20)
(0.815185 0.00614433 0)
(0.790947 0.150167 7.15194e-21)
(0.873702 -0.263416 2.99341e-23)
(0.843704 -0.134725 0)
(0.922045 -0.460107 6.35294e-25)
(0.900129 -0.373059 0)
(0.954007 -0.565449 -9.94799e-24)
(0.939991 -0.523897 0)
(0.969431 -0.592527 1.06345e-25)
(0.963878 -0.58717 0)
(0.968792 -0.569699 5.47362e-26)
(0.970896 -0.58546 0)
(0.955876 -0.52481 0)
(0.963617 -0.548584 0)
(0.934594 -0.474848 2.67573e-25)
(0.945818 -0.500124 0)
(0.910196 -0.422291 0)
(0.922761 -0.448374 0)
(0.87667 -0.379093 5.19436e-24)
(0.896414 -0.397947 2.60011e-22)
(0.854083 -0.363978 2.2739e-21)
(0.777078 -0.382367 -4.33527e-24)
(0.778663 -0.425282 7.53264e-22)
(0.809083 -0.478403 1.95925e-21)
(0.790352 -0.461333 1.45908e-21)
(0.852407 -0.484287 5.03983e-22)
(0.831781 -0.482894 -6.11047e-22)
(0.878784 -0.497473 2.07096e-24)
(0.867781 -0.489102 3.45489e-23)
(0.884177 -0.529006 0)
(0.883498 -0.512447 0)
(0.875833 -0.553721 0)
(0.881914 -0.543007 0)
(0.851729 -0.554709 0)
(0.866226 -0.558051 0)
(0.809673 -0.511401 0)
(0.832821 -0.540125 0)
(0.755317 -0.40179 0)
(0.783399 -0.465688 0)
(0.699848 -0.220761 0)
(0.726988 -0.319626 0)
(0.654698 0.0155021 0)
(0.675294 -0.107606 0)
(0.631933 0.260639 0)
(0.639816 0.140496 0)
(0.642604 0.458036 1.00828e-21)
(0.632395 0.369749 -9.87253e-22)
(0.699911 0.551739 5.06774e-21)
(0.665 0.519564 0)
(0.789498 0.555678 -2.97142e-21)
(0.743201 0.559126 4.21182e-21)
(0.84594 0.59913 -2.74624e-21)
(0.861552 0.574374 2.33699e-21)
(0.828039 0.559301 -6.57678e-22)
(0.756466 0.702758 3.06488e-22)
(0.790266 0.648179 -3.95529e-21)
(0.831133 0.622822 1.85356e-22)
(0.765831 -0.333746 -5.36319e-22)
(0.870985 0.620546 0)
(0.887877 0.600709 -2.68893e-21)
(0.777193 -0.314508 -7.88905e-22)
(0.789239 -0.431888 0)
(0.844162 -0.323322 -4.65126e-22)
(0.817133 -0.309741 -1.0947e-22)
(0.790717 -0.36842 0)
(0.775052 -0.368911 -7.7985e-22)
(0.778126 0.699624 8.18874e-21)
(0.782817 0.676348 0)
(0.777479 0.718202 -2.19717e-21)
(0.758271 0.687689 2.9486e-21)
(0.764029 0.716694 9.05205e-22)
(0.775468 0.531118 -3.99433e-22)
(0.762659 0.624861 2.99925e-21)
(0.818373 0.275158 -1.44602e-22)
(0.794537 0.411157 1.27936e-22)
(0.874268 -0.0222617 0)
(0.845586 0.128139 1.05018e-21)
(0.930686 -0.298545 4.89493e-25)
(0.903104 -0.166537 0)
(0.977524 -0.499625 -1.29265e-23)
(0.955858 -0.411456 0)
(1.00564 -0.59567 9.94799e-24)
(0.994481 -0.560687 0)
(1.01059 -0.604304 -8.49434e-26)
(1.01084 -0.608439 0)
(0.998089 -0.566176 1.66874e-25)
(1.00598 -0.588704 0)
(0.97636 -0.512528 0)
(0.988054 -0.540004 0)
(0.949467 -0.458455 3.14903e-24)
(0.963538 -0.485116 0)
(0.920727 -0.40531 0)
(0.935308 -0.431749 0)
(0.888903 -0.356529 -1.12462e-22)
(0.906161 -0.379157 4.6287e-22)
(0.868353 -0.337921 -1.23359e-22)
(0.759302 -0.359561 -1.32433e-21)
(0.759682 -0.349007 0)
(0.764594 -0.366684 5.92601e-22)
(0.810322 -0.496034 -1.3046e-21)
(0.79609 -0.474143 0)
(0.84781 -0.502274 0)
(0.82909 -0.5025 0)
(0.873496 -0.504772 -2.07195e-24)
(0.863103 -0.501685 0)
(0.876287 -0.526184 0)
(0.877361 -0.514317 0)
(0.862595 -0.543429 0)
(0.871279 -0.536632 0)
(0.833667 -0.535445 0)
(0.850353 -0.543459 0)
(0.788346 -0.484258 0)
(0.812881 -0.516503 0)
(0.732962 -0.371678 -2.9863e-24)
(0.761282 -0.436309 0)
(0.678327 -0.193848 -3.28687e-24)
(0.704827 -0.290324 0)
(0.636675 0.0313969 0)
(0.655059 -0.0849875 0)
(0.620895 0.262045 0)
(0.624846 0.149433 0)
(0.641857 0.440496 0)
(0.626048 0.362123 0)
(0.71163 0.514886 5.18875e-22)
(0.670851 0.491601 0)
(0.804586 0.517756 0)
(0.757737 0.518632 -2.51477e-21)
(0.87649 0.548638 2.83505e-21)
(0.842608 0.527512 -5.21851e-22)
(0.934293 0.607488 -1.31996e-21)
(0.905494 0.577896 0)
(0.818838 0.645872 -3.3619e-21)
(0.799727 0.688334 -4.76442e-21)
(0.79364 0.704903 2.66387e-21)
(0.780721 -0.293699 0)
(0.800665 -0.286236 -9.61967e-22)
(0.855635 0.638169 4.93611e-21)
(0.913733 0.629758 1.37058e-21)
(0.893411 0.647697 0)
(0.939035 0.657094 0)
(0.792208 -0.291266 7.18442e-22)
(0.964272 0.635094 1.32745e-21)
(0.808779 0.668146 -1.70353e-21)
(0.807055 0.690243 -2.60563e-21)
(0.79902 0.697585 -2.36453e-21)
(0.781626 0.72856 9.22197e-22)
(0.790475 0.716615 -1.96973e-21)
(0.782737 0.682242 1.94849e-21)
(0.778397 0.719719 -3.81413e-21)
(0.81777 0.512201 -2.81286e-23)
(0.796892 0.612215 0)
(0.873498 0.248546 1.65572e-23)
(0.843914 0.388462 0)
(0.936454 -0.0520936 0)
(0.905019 0.0989055 0)
(0.994374 -0.32462 1.916e-25)
(0.966602 -0.195949 0)
(1.03617 -0.510866 0)
(1.01821 -0.43104 0)
(1.05181 -0.591739 -9.86056e-24)
(1.04734 -0.563569 0)
(1.0447 -0.593192 -7.24242e-24)
(1.05054 -0.599906 0)
(1.02394 -0.553465 5.1979e-24)
(1.0355 -0.576397 0)
(0.996801 -0.499695 0)
(1.01086 -0.527238 0)
(0.966762 -0.445092 2.5587e-24)
(0.982081 -0.472103 0)
(0.935755 -0.391335 0)
(0.951291 -0.418308 -1.34516e-28)
(0.903976 -0.33857 -3.09013e-23)
(0.920686 -0.364031 0)
(0.862588 -0.298802 2.56609e-22)
(0.885186 -0.316478 -2.74118e-22)
(0.811564 -0.266725 -8.38709e-22)
(0.837195 -0.283521 -2.65446e-22)
(0.772231 -0.264855 -4.63943e-22)
(0.75303 -0.292722 4.19526e-22)
(0.76046 -0.281125 3.60161e-22)
(0.75546 -0.301753 0)
(0.751128 -0.299681 0)
(0.76564 -0.299369 7.2739e-22)
(0.825981 -0.275677 2.29987e-21)
(0.805555 -0.434256 5.04997e-22)
(0.811698 -0.36437 1.07258e-21)
(0.816446 -0.509741 0)
(0.807325 -0.482691 4.25865e-22)
(0.846449 -0.518504 0)
(0.830576 -0.519486 0)
(0.870487 -0.511916 0)
(0.860608 -0.513962 0)
(0.87154 -0.52232 0)
(0.873933 -0.515589 0)
(0.853163 -0.531726 0)
(0.864313 -0.528787 0)
(0.819967 -0.515716 0)
(0.83849 -0.527857 0)
(0.772378 -0.457748 0)
(0.7978 -0.492972 0)
(0.716452 -0.343069 2.9863e-24)
(0.744842 -0.408051 0)
(0.663117 -0.169183 3.28687e-24)
(0.688682 -0.26287 0)
(0.625508 0.0451297 0)
(0.641498 -0.0649341 0)
(0.616381 0.258891 0)
(0.616654 0.155396 0)
(0.648453 0.414859 0)
(0.626375 0.34794 0)
(0.727968 0.470306 -5.05723e-22)
(0.683371 0.454829 0)
(0.821991 0.478503 0)
(0.776833 0.473408 0)
(0.891737 0.522049 0)
(0.859643 0.495106 3.42672e-22)
(0.954356 0.581508 -1.94306e-21)
(0.922737 0.552201 -8.50092e-22)
(0.987621 0.608495 2.50724e-21)
(0.788736 -0.245415 1.04271e-21)
(0.841549 0.65448 8.39462e-22)
(0.8169 0.68112 4.19145e-21)
(0.874264 0.662114 -1.60043e-21)
(0.801448 0.681965 1.57408e-21)
(0.811695 0.684325 0)
(0.913658 0.674415 1.76738e-21)
(0.856999 -0.261117 -4.26036e-21)
(0.881249 -0.155991 1.15749e-21)
(0.847231 -0.17514 -2.60112e-21)
(0.961784 0.683839 3.36522e-21)
(1.01991 0.687343 -1.87079e-21)
(0.833675 -0.24044 0)
(0.809116 -0.222214 0)
(1.05221 0.662155 3.28796e-21)
(0.828768 0.668899 1.35512e-23)
(0.793904 0.67359 2.06552e-23)
(0.784627 0.65982 -2.06272e-23)
(0.793929 0.701111 4.46639e-23)
(0.793495 0.678173 0)
(0.791073 0.731325 1.36729e-21)
(0.791357 0.722477 0)
(0.813541 0.670173 0)
(0.798413 0.715831 -2.93695e-22)
(0.86601 0.486567 0)
(0.836898 0.592607 0)
(0.933957 0.21608 0)
(0.898998 0.358607 0)
(1.00325 -0.0838232 1.76876e-23)
(0.969298 0.0659871 0)
(1.06113 -0.349344 -3.21378e-23)
(1.03445 -0.224986 0)
(1.09464 -0.524773 0)
(1.08159 -0.450511 0)
(1.09903 -0.594558 3.48082e-25)
(1.10025 -0.57187 0)
(1.08107 -0.586392 6.70038e-24)
(1.09219 -0.597592 0)
(1.05124 -0.540408 -4.63944e-24)
(1.06705 -0.565986 0)
(1.01756 -0.483803 0)
(1.03455 -0.512432 0)
(0.983567 -0.428151 -2.55871e-24)
(1.00057 -0.455516 0)
(0.950144 -0.374986 0)
(0.966669 -0.401517 1.34516e-28)
(0.918484 -0.320785 0)
(0.934337 -0.347801 0)
(0.88147 -0.274554 -1.11284e-22)
(0.901416 -0.29571 0)
(0.858352 -0.25685 1.99745e-22)
(0.758063 -0.227734 0)
(0.787806 -0.198637 8.88012e-23)
(0.770549 -0.215647 -3.86448e-22)
(0.748318 -0.23832 4.44295e-22)
(0.750777 -0.235439 -3.5285e-22)
(0.76017 -0.230104 0)
(0.751386 -0.236355 0)
(0.793445 -0.20716 0)
(0.774435 -0.219958 0)
(0.817584 -0.192305 3.03172e-21)
(0.827708 -0.430838 0)
(0.838683 -0.354676 0)
(0.827595 -0.518617 0)
(0.824269 -0.485318 0)
(0.848635 -0.532082 2.51592e-24)
(0.836546 -0.532318 0)
(0.869531 -0.518266 0)
(0.860668 -0.525037 0)
(0.869288 -0.516943 0)
(0.872526 -0.515837 0)
(0.847272 -0.517994 0)
(0.860489 -0.518909 0)
(0.810346 -0.49504 0)
(0.830477 -0.51066 0)
(0.761221 -0.431413 0)
(0.787125 -0.469109 0)
(0.705552 -0.315472 0)
(0.733614 -0.380392 0)
(0.654294 -0.14652 0)
(0.678555 -0.2369 0)
(0.620894 0.0561115 0)
(0.634527 -0.0473157 0)
(0.618326 0.251926 -1.50584e-24)
(0.614932 0.158206 -2.06451e-28)
(0.661107 0.383619 0)
(0.633165 0.329359 0)
(0.750378 0.422842 5.36848e-25)
(0.701712 0.412652 0)
(0.841824 0.439421 0)
(0.799442 0.427436 0)
(0.908301 0.493196 7.88913e-23)
(0.877068 0.462905 -3.21871e-22)
(0.973924 0.551326 1.80649e-21)
(0.940437 0.523206 6.97461e-22)
(1.04346 0.606261 -3.22583e-21)
(1.00918 0.578371 -1.4401e-21)
(1.07979 0.632098 -5.01269e-21)
(0.855945 0.673311 -1.6653e-21)
(0.824254 0.684532 -2.44385e-21)
(0.872315 -0.070539 -1.52133e-21)
(0.909747 -0.0468315 -1.16926e-21)
(0.888661 0.687178 0)
(0.806296 0.686321 -1.50672e-21)
(0.931549 0.698984 2.19648e-22)
(0.766023 0.643976 7.73513e-23)
(0.776383 0.667447 -7.72069e-23)
(0.985236 0.705978 3.89505e-21)
(1.0464 0.706271 2.43547e-21)
(0.809679 -0.178327 2.75226e-23)
(1.11346 0.696049 5.7036e-21)
(1.15248 0.668378 9.43956e-22)
(0.773664 -0.166485 1.25957e-22)
(0.792087 -0.152761 0)
(0.839161 0.681106 0)
(0.738682 0.624141 -2.56588e-21)
(0.731044 0.592574 4.68936e-22)
(0.77656 0.64671 9.9696e-22)
(0.758273 0.620992 -1.00756e-21)
(0.791933 0.700183 4.18947e-22)
(0.786955 0.673284 0)
(0.806681 0.723192 2.87339e-22)
(0.797251 0.720006 0)
(0.849959 0.646515 0)
(0.824457 0.700172 -2.89053e-22)
(0.919365 0.451902 0)
(0.882347 0.562298 0)
(0.998832 0.179011 -1.70296e-23)
(0.9589 0.321808 0)
(1.07326 -0.116472 -1.76876e-23)
(1.03753 0.0303329 0)
(1.12879 -0.371512 3.14937e-23)
(1.10435 -0.253135 0)
(1.15294 -0.531384 1.23168e-23)
(1.14523 -0.465312 0)
(1.14459 -0.58623 9.51249e-24)
(1.15235 -0.570435 0)
(1.11466 -0.56972 -4.39433e-25)
(1.13144 -0.584146 0)
(1.07622 -0.521564 3.70326e-25)
(1.09588 -0.547668 0)
(1.03717 -0.465619 0)
(1.05651 -0.493755 0)
(1.00025 -0.410835 0)
(1.01844 -0.437849 0)
(0.965251 -0.358583 0)
(0.982512 -0.384561 0)
(0.933151 -0.304913 0)
(0.948835 -0.332071 0)
(0.900355 -0.253833 1.11926e-22)
(0.917498 -0.278145 0)
(0.857669 -0.214977 1.07217e-22)
(0.880066 -0.233093 -2.68866e-22)
(0.832321 -0.198664 0)
(0.752969 -0.179916 0)
(0.760715 -0.175768 2.00867e-22)
(0.752382 -0.172868 -2.04808e-22)
(0.750273 -0.17876 2.06785e-22)
(0.772313 -0.149359 0)
(0.75969 -0.162892 0)
(0.812322 -0.113677 0)
(0.789916 -0.132666 0)
(0.839738 -0.0931536 1.8108e-21)
(0.951748 -0.0229774 1.20491e-21)
(0.893667 -0.24262 -1.21643e-21)
(0.921053 -0.133932 -1.19623e-21)
(0.855875 -0.421234 0)
(0.871379 -0.340478 0)
(0.843844 -0.52193 0)
(0.846679 -0.482445 0)
(0.854461 -0.542241 -2.51592e-24)
(0.847081 -0.540326 0)
(0.870457 -0.523596 0)
(0.863363 -0.534209 0)
(0.868986 -0.51042 0)
(0.87275 -0.515317 0)
(0.844574 -0.502131 0)
(0.859255 -0.507211 0)
(0.804582 -0.472931 0)
(0.8261 -0.491495 0)
(0.754347 -0.404818 0)
(0.780497 -0.44444 0)
(0.699639 -0.288519 -1.28374e-24)
(0.726992 -0.352928 0)
(0.651108 -0.125509 -1.26657e-24)
(0.673789 -0.212068 0)
(0.621993 0.0644932 0)
(0.633299 -0.0318157 0)
(0.626291 0.240541 1.50584e-24)
(0.618959 0.157709 2.06451e-28)
(0.680141 0.34667 0)
(0.646356 0.305254 0)
(0.775112 0.37379 4.76555e-25)
(0.7253 0.366221 0)
(0.860485 0.401952 0)
(0.821699 0.382765 0)
(0.924768 0.462119 0)
(0.893381 0.430669 0)
(0.993 0.51872 3.54321e-22)
(0.958092 0.491141 0)
(1.06573 0.573357 0)
(1.02892 0.546153 1.78158e-22)
(1.14448 0.619869 5.34951e-22)
(1.10358 0.599558 -1.50613e-21)
(1.18553 0.669826 -8.06724e-21)
(1.22256 0.639434 -2.86482e-21)
(1.18382 0.634886 3.71522e-21)
(0.86433 0.695571 8.24146e-22)
(0.822358 0.695224 8.05687e-22)
(0.900453 0.708747 0)
(0.791964 0.6884 7.29623e-22)
(0.947745 0.71811 -8.64007e-22)
(0.751149 0.65491 -1.32675e-21)
(1.00385 0.721971 -1.06358e-21)
(0.696022 0.55576 0)
(0.704011 0.593153 2.09906e-21)
(1.06819 0.714996 0)
(1.13784 0.693344 -5.63231e-21)
(1.2599 0.627819 -5.85647e-21)
(1.21352 0.652755 5.28131e-21)
(0.835505 -0.15617 -1.12323e-22)
(1.28802 0.597271 1.76778e-20)
(0.999 0.00358416 0)
(0.767475 -0.12645 -2.52371e-22)
(0.781199 -0.120316 -5.84995e-23)
(1.03212 0.109905 -4.76161e-21)
(0.984943 0.0843188 3.61811e-21)
(1.32081 0.588611 7.11435e-20)
(0.815853 -0.135037 -2.48643e-24)
(0.841969 0.698507 0)
(0.656025 0.504239 1.07284e-21)
(0.651458 0.464406 -5.47827e-23)
(0.724405 0.563229 4.93823e-22)
(0.690922 0.51986 -4.98566e-22)
(0.769048 0.633102 8.88962e-22)
(0.750429 0.599498 -3.28102e-22)
(0.793679 0.692751 3.60767e-22)
(0.782477 0.665011 -4.97571e-22)
(0.828248 0.705042 0)
(0.808058 0.708783 0)
(0.892146 0.61293 0)
(0.856573 0.67404 0)
(0.977747 0.410387 0)
(0.933344 0.523445 0)
(1.0672 0.138365 1.70296e-23)
(1.02311 0.279863 0)
(1.14501 -0.149611 0)
(1.10846 -0.00738834 0)
(1.19603 -0.390345 -8.19198e-25)
(1.17488 -0.279958 0)
(1.20865 -0.532202 -8.00315e-25)
(1.20735 -0.4751 0)
(1.18661 -0.573174 0)
(1.20111 -0.563424 0)
(1.1455 -0.550093 -5.27755e-25)
(1.16741 -0.566954 0)
(1.09955 -0.500583 4.14341e-25)
(1.12253 -0.526916 0)
(1.05585 -0.445609 0)
(1.07722 -0.473101 0)
(1.01632 -0.39227 0)
(1.03558 -0.418596 0)
(0.980226 -0.341367 0)
(0.997908 -0.366623 0)
(0.947747 -0.289405 5.22163e-25)
(0.963423 -0.315837 0)
(0.917739 -0.236031 -1.72875e-23)
(0.932831 -0.262322 0)
(0.881024 -0.191852 -4.77022e-23)
(0.900595 -0.212259 1.74361e-23)
(0.857389 -0.174317 9.59335e-24)
(0.756194 -0.123137 1.19216e-22)
(0.759366 -0.127302 -3.17732e-22)
(0.764007 -0.100893 0)
(0.757752 -0.114177 0)
(0.790513 -0.0652772 0)
(0.774929 -0.0844443 0)
(0.83566 -0.0200582 0)
(0.81067 -0.0437043 0)
(0.901799 0.0323328 1.0002e-21)
(0.866188 0.00571912 -7.59866e-22)
(0.941408 0.0585229 1.10808e-21)
(0.936333 -0.219414 2.37847e-21)
(0.965834 -0.109398 1.29291e-21)
(0.889879 -0.406292 0)
(0.910392 -0.320097 0)
(0.865264 -0.519138 0)
(0.874407 -0.473637 0)
(0.863974 -0.548058 0)
(0.862124 -0.542815 0)
(0.87312 -0.527434 0)
(0.868669 -0.540558 0)
(0.87008 -0.503411 0)
(0.874244 -0.514187 0)
(0.844624 -0.48492 0)
(0.860011 -0.494599 0)
(0.802555 -0.449607 0)
(0.825107 -0.470837 0)
(0.75151 -0.378123 0)
(0.777786 -0.419084 0)
(0.698166 -0.262477 5.05011e-25)
(0.724586 -0.3259 0)
(0.652654 -0.106189 5.72402e-25)
(0.673664 -0.188567 0)
(0.627887 0.0703061 0)
(0.636799 -0.0183519 0)
(0.640214 0.224371 0)
(0.628163 0.153701 0)
(0.705473 0.305118 0)
(0.666194 0.275576 0)
(0.80149 0.327093 2.80527e-25)
(0.753255 0.318369 0)
(0.878302 0.368049 0)
(0.843618 0.342406 0)
(0.940807 0.429996 6.60095e-23)
(0.909257 0.399425 0)
(1.01054 0.484621 -6.90537e-25)
(0.975006 0.457782 -6.68132e-23)
(1.08568 0.538429 -8.06907e-22)
(1.04721 0.511818 6.93081e-22)
(1.166 0.584117 1.54274e-21)
(1.125 0.562977 9.23085e-22)
(1.24805 0.608062 4.79324e-21)
(1.20687 0.600397 -3.46174e-21)
(1.28711 0.606274 -1.50117e-20)
(0.869154 0.713413 -2.32387e-22)
(0.813234 0.703662 7.97246e-22)
(1.01673 0.17914 1.61098e-21)
(1.06334 0.203385 -1.08805e-21)
(1.37369 0.533509 1.03759e-20)
(0.908023 0.724194 -2.06814e-21)
(0.771684 0.681931 0)
(0.957436 0.730119 -2.30224e-21)
(0.719651 0.628728 1.32722e-21)
(1.01698 0.725577 1.08846e-22)
(0.664373 0.544791 0)
(1.08341 0.706673 3.45222e-21)
(0.608482 0.394527 3.10562e-22)
(0.611859 0.43509 -1.32964e-21)
(1.15644 0.669727 0)
(1.22829 0.616979 6.46927e-21)
(1.30063 0.549874 3.95529e-22)
(0.800939 -0.109335 2.49276e-24)
(0.839348 0.712027 0)
(0.565797 0.307535 0)
(0.564872 0.271763 8.22156e-23)
(0.645323 0.427068 -7.31962e-23)
(0.605104 0.356128 -4.22011e-23)
(0.714291 0.534901 1.14303e-22)
(0.682225 0.485666 -1.145e-22)
(0.761835 0.616632 0)
(0.740462 0.577926 -7.52478e-23)
(0.80031 0.676489 -4.26332e-25)
(0.780782 0.65073 0)
(0.856054 0.675629 0)
(0.824763 0.687092 0)
(0.940251 0.569919 0)
(0.895004 0.636994 0)
(1.04054 0.362858 0)
(0.989635 0.47694 0)
(1.13806 0.094655 -1.56253e-23)
(1.09073 0.233384 0)
(1.21705 -0.182116 1.56025e-23)
(1.18091 -0.0464483 0)
(1.2607 -0.404251 -2.82557e-23)
(1.2443 -0.303922 0)
(1.25968 -0.525827 -9.97637e-25)
(1.26561 -0.478474 0)
(1.22383 -0.553148 -7.52942e-24)
(1.24492 -0.549078 0)
(1.17252 -0.525195 -5.73319e-24)
(1.199 -0.543532 0)
(1.12023 -0.476363 4.39295e-25)
(1.14596 -0.50193 0)
(1.07293 -0.423921 0)
(1.09584 -0.450072 0)
(1.03148 -0.373065 0)
(1.05152 -0.398227 0)
(0.994792 -0.324007 0)
(1.01266 -0.34838 0)
(0.962154 -0.274239 -5.22163e-25)
(0.977943 -0.2995 0)
(0.93391 -0.221081 0)
(0.947804 -0.247891 0)
(0.902892 -0.172148 -4.73204e-26)
(0.919922 -0.195173 0)
(0.863654 -0.133744 6.49915e-23)
(0.884685 -0.151816 0)
(0.82656 -0.0938195 -5.39972e-23)
(0.844059 -0.114822 -1.44473e-22)
(0.792041 -0.0782755 -5.606e-23)
(0.768961 -0.0798779 3.29555e-23)
(0.777474 -0.0818453 1.50139e-22)
(0.766965 -0.0613743 0)
(0.76573 -0.0730902 9.75534e-23)
(0.781809 -0.0273073 0)
(0.772277 -0.0459697 0)
(0.813226 0.0170765 0)
(0.795432 -0.00618309 0)
(0.862285 0.06873 0)
(0.83537 0.0421321 0)
(0.931073 0.124687 0)
(0.894337 0.0965389 0)
(0.972365 0.153014 -2.06908e-21)
(1.11218 0.22585 4.53141e-21)
(1.05076 0.0316016 -1.29725e-21)
(1.08224 0.135807 0)
(0.984871 -0.190973 0)
(1.01652 -0.079631 -1.21649e-21)
(0.929016 -0.385903 0)
(0.955109 -0.294912 0)
(0.891642 -0.509834 0)
(0.90752 -0.458494 0)
(0.877214 -0.548582 2.46503e-24)
(0.881693 -0.539065 0)
(0.877514 -0.529008 0)
(0.876697 -0.543051 0)
(0.871985 -0.496217 0)
(0.876747 -0.512162 0)
(0.846611 -0.467297 0)
(0.861952 -0.481854 0)
(0.803896 -0.425621 0)
(0.826865 -0.449492 0)
(0.75256 -0.351592 0)
(0.778803 -0.393393 0)
(0.700625 -0.23754 7.7873e-25)
(0.726125 -0.299549 0)
(0.657906 -0.0885471 6.94169e-25)
(0.677378 -0.166483 0)
(0.637947 0.073102 0)
(0.644019 -0.00699797 0)
(0.660552 0.20243 0)
(0.642564 0.145259 0)
(0.736156 0.260176 0)
(0.692816 0.240143 0)
(0.827167 0.284465 4.79099e-25)
(0.783551 0.271162 0)
(0.893849 0.336857 0)
(0.863296 0.306826 0)
(0.955351 0.396869 0)
(0.923563 0.368289 0)
(1.0244 0.448433 3.02589e-25)
(0.989175 0.422951 0)
(1.1008 0.498055 0)
(1.06142 0.473768 0)
(1.18771 0.53971 1.3026e-22)
(1.14353 0.520179 -4.50981e-22)
(1.27958 0.558801 1.50713e-21)
(1.23286 0.553348 -1.49223e-21)
(1.3271 0.553915 -2.3593e-21)
(0.813422 -0.0691786 1.10438e-22)
(0.868818 0.723779 2.32255e-22)
(0.799087 0.702654 0)
(0.528053 0.176843 -5.41206e-23)
(0.525311 0.206824 3.58539e-25)
(0.909773 0.730535 2.18413e-21)
(0.74529 0.661057 0)
(0.961475 0.727479 2.05673e-21)
(0.682903 0.584403 0)
(1.023 0.709896 -3.05016e-21)
(0.620838 0.476618 0)
(1.09198 0.675072 -3.4082e-21)
(0.567368 0.34671 0)
(1.16279 0.622749 -1.02282e-20)
(1.23666 0.555698 4.42836e-21)
(1.38822 0.515101 2.49075e-21)
(1.3438 0.498522 -5.73787e-20)
(1.40785 0.429813 7.95071e-21)
(0.85664 -0.0758344 -9.71292e-23)
(1.16163 0.245364 -8.94389e-21)
(1.18066 0.309221 -1.83758e-21)
(0.840943 -0.0554173 2.96032e-22)
(1.13484 0.295244 0)
(0.83199 0.716697 0)
(0.500458 0.0754256 1.63706e-22)
(0.522121 0.0663748 1.19066e-21)
(0.565902 0.24036 -5.29495e-22)
(0.537278 0.153826 -1.27499e-21)
(0.636725 0.391363 -2.54e-22)
(0.600023 0.320635 4.40859e-22)
(0.703524 0.506456 -2.95462e-23)
(0.671581 0.453038 1.32599e-22)
(0.757949 0.594582 0)
(0.731825 0.553545 0)
(0.813857 0.649403 -4.85011e-25)
(0.784459 0.627844 0)
(0.891557 0.634596 0)
(0.849184 0.653459 0)
(0.994686 0.518273 0)
(0.940687 0.589567 0)
(1.10732 0.310092 0)
(1.05113 0.423566 0)
(1.21051 0.0490732 1.56253e-23)
(1.16112 0.183257 0)
(1.28761 -0.212426 -1.56025e-23)
(1.25357 -0.0854763 0)
(1.3204 -0.412007 2.58181e-23)
(1.31041 -0.323506 0)
(1.30405 -0.512129 -1.14036e-24)
(1.31774 -0.474677 0)
(1.25495 -0.527454 8.62688e-25)
(1.28212 -0.528004 0)
(1.19512 -0.496924 4.52755e-24)
(1.22528 -0.515641 0)
(1.1381 -0.450292 4.5115e-25)
(1.16582 -0.474445 0)
(1.0883 -0.401184 0)
(1.11225 -0.425658 0)
(1.04561 -0.353352 0)
(1.06615 -0.377077 0)
(1.00869 -0.306606 0)
(1.02655 -0.329902 0)
(0.97636 -0.259195 0)
(0.991976 -0.283185 0)
(0.949205 -0.208002 0)
(0.962232 -0.234112 0)
(0.923854 -0.156318 5.62011e-25)
(0.937203 -0.181484 0)
(0.891942 -0.113502 -1.03227e-22)
(0.909617 -0.133343 3.87471e-23)
(0.874332 -0.0945189 -7.10805e-23)
(0.491088 0.0958157 -3.22187e-23)
(0.48655 -0.0237271 0)
(0.524052 -0.0126801 5.94382e-23)
(0.789957 -0.0426062 -1.17566e-24)
(0.829244 -0.0322005 -4.6735e-24)
(0.805868 -0.0402429 5.0435e-23)
(0.777609 -0.0296813 0)
(0.781014 -0.0387438 0)
(0.783481 0.000960792 0)
(0.778712 -0.0162017 -9.64716e-23)
(0.803877 0.043412 0)
(0.79188 0.0210043 0)
(0.838873 0.0934154 0)
(0.819466 0.067643 0)
(0.890401 0.148258 0)
(0.862393 0.120385 0)
(0.959774 0.204338 0)
(0.923006 0.176519 0)
(1.04412 0.25586 -5.30749e-22)
(1.00057 0.231371 -1.28007e-22)
(1.08935 0.277413 1.09346e-21)
(1.10586 0.0615434 9.69434e-22)
(1.13483 0.160886 6.26042e-22)
(1.03797 -0.159057 0)
(1.07174 -0.0475824 -3.16639e-22)
(0.973124 -0.359813 0)
(1.00426 -0.265347 0)
(0.922866 -0.493695 0)
(0.945562 -0.436991 0)
(0.894319 -0.542959 -2.46503e-24)
(0.905766 -0.528513 0)
(0.883818 -0.52737 1.63196e-24)
(0.88768 -0.540669 0)
(0.874203 -0.488706 0)
(0.88018 -0.508599 0)
(0.849265 -0.450004 0)
(0.864128 -0.469383 0)
(0.807343 -0.401619 0)
(0.83001 -0.428268 0)
(0.756459 -0.325388 8.97184e-26)
(0.782442 -0.367762 0)
(0.705721 -0.213567 0)
(0.730491 -0.273857 0)
(0.665627 -0.0726484 0)
(0.683523 -0.145661 0)
(0.65252 0.0716367 0)
(0.654328 0.00164751 0)
(0.688401 0.174019 6.7769e-25)
(0.663324 0.130883 0)
(0.770842 0.214898 0)
(0.726217 0.200147 0)
(0.851451 0.247991 2.87889e-25)
(0.814458 0.228074 0)
(0.909262 0.308033 -5.3003e-25)
(0.881722 0.276198 0)
(0.96892 0.364596 0)
(0.938007 0.338033 0)
(1.03465 0.41315 2.6957e-25)
(1.00121 0.389225 0)
(1.108 0.45776 0)
(1.07004 0.436136 0)
(1.19125 0.495721 4.49321e-22)
(1.14849 0.477896 0)
(1.28587 0.5181 -1.83904e-22)
(1.23707 0.509451 -5.81247e-22)
(1.39306 0.509088 -7.16988e-21)
(1.33922 0.519694 -3.46683e-21)
(1.45684 0.431201 3.36189e-20)
(1.43673 0.479028 7.3688e-21)
(1.46028 0.364796 -5.49933e-20)
(1.43735 0.35363 -7.63673e-21)
(1.50013 0.306675 9.31741e-21)
(0.862841 0.723539 0)
(0.778657 0.688157 0)
(1.15124 0.343673 1.81237e-21)
(1.19186 0.351202 -1.83686e-21)
(0.904865 0.721095 0)
(0.712626 0.621834 0)
(0.957786 0.703509 8.1958e-22)
(0.641577 0.519374 0)