/*--------------------------------*- C++ -*----------------------------------*\
  =========                 |
  \\      /  F ield         | OpenFOAM: The Open Source CFD Toolbox
   \\    /   O peration     | Website:  https://openfoam.org
    \\  /    A nd           | Version:  10
     \\/     M anipulation  |
\*---------------------------------------------------------------------------*/
FoamFile
{
    format      ascii;
    class       volScalarField;
    location    "38";
    object      p;
}
// * * * * * * * * * * * * * * * * * * * * * * * * * * * * * * * * * * * * * //

dimensions      [0 2 -2 0 0 0 0];

internalField   nonuniform List<scalar> 
33313
(
-0.00483494
-0.00597624
-0.00555732
-0.00887615
0.00286884
0.00274835
0.00116056
0.0114138
0.0105195
-0.00435256
-0.000448519
-0.49659
-0.516698
-0.492247
0.0114917
0.001897
0.0143308
-0.346597
-0.469059
-0.381964
-0.283173
0.780505
0.699039
0.845852
0.851868
0.242436
0.247763
0.25015
0.247973
0.238878
0.250299
0.265631
0.282368
-0.650376
-0.668553
-0.655199
-0.631861
0.0482241
0.0450516
-0.242982
-0.223555
0.278607
0.265201
-0.626346
-0.465463
-0.486407
0.728788
0.814644
-0.00318947
-0.00142495
0.246765
0.275404
0.269482
0.31637
0.0843641
0.10591
0.385123
0.513398
0.471438
0.376764
0.389067
0.847192
0.912724
0.940922
-0.00423837
-0.0199
-0.148818
-0.160268
-0.155557
-0.294579
-0.250217
-0.175963
-0.59731
-0.277274
-0.455516
-0.432035
-0.439498
-0.399486
-0.145764
-0.200436
0.55551
0.544815
0.566853
-0.342104
-0.378023
-0.428665
-0.53957
-0.519312
-0.515024
0.929511
-0.509498
-0.528405
-0.528625
-0.508981
-0.494333
0.234971
0.224152
0.00515575
0.00322131
-0.245313
-0.236246
-0.307428
-0.310081
-0.321886
-0.359463
-0.675398
-0.725721
-0.710378
-0.668826
-0.114226
0.0920072
0.042098
-0.108372
-0.887096
-1.02042
-0.822236
0.918234
0.87047
-0.304301
-0.279978
-0.579836
-0.583337
-0.571483
-0.00422753
-0.00297681
-0.0166167
0.305623
0.00283061
0.00676141
-0.509061
-0.565023
-0.483484
-0.500359
0.0679831
0.0589416
-0.0799919
-0.00936889
-0.128153
-0.0300892
0.197312
0.0822505
0.32183
0.00733389
0.00568977
-0.00119289
0.0798656
0.0769553
0.0752965
0.072875
0.304557
0.284783
0.31573
0.299983
0.437777
0.442384
0.413447
0.417626
-0.393761
-0.396068
-0.356932
-0.513267
0.0447335
0.0854684
0.231455
0.0989201
-0.543169
-0.524051
-0.516
-0.527369
-0.00263234
-0.00150197
0.0934671
0.0920213
0.091666
0.0901891
0.242984
0.226348
-0.449812
-0.488585
0.00463161
0.00192984
0.0611829
0.0579804
0.164406
0.165839
-0.047103
-0.0112236
-0.539742
-0.593072
-0.547084
-0.477939
0.543504
0.518767
-0.653138
-0.696956
0.423208
0.440215
0.439465
0.348777
0.369185
0.357883
0.565403
0.542076
0.19772
0.203415
-0.445058
-0.438756
-0.234974
-0.366346
0.21689
0.212042
0.000873612
0.00408223
0.000933176
-0.00133303
-0.000425513
-0.586405
-0.556637
0.35549
0.359102
0.339798
0.334509
-0.25183
-0.240112
-0.221882
0.18657
0.207853
0.179819
-0.479499
-0.476535
-0.479233
-0.140693
-0.106461
0.0955701
0.0940041
0.092203
-0.664439
0.238768
-0.148674
-0.13666
-0.125346
-0.116798
-0.108971
-0.103142
-0.0986413
-0.0953558
-0.0933396
-0.0925388
-0.0929328
-0.0944761
-0.0971939
-0.10112
-0.106337
-0.112932
-0.120976
-0.130508
-0.141437
-0.153608
-0.166645
-0.180131
-0.193429
-0.205916
-0.216881
-0.225603
-0.231751
-0.234732
-0.234295
-0.230659
-0.224219
-0.215482
-0.160198
-0.171324
-0.1771
-0.16211
-0.194336
-0.205058
-0.214079
-0.194088
-0.205639
-0.222959
-0.219899
-0.220144
-0.222969
-0.206173
-0.21427
-0.184641
-0.19608
-0.160002
-0.172404
-0.136737
-0.147965
-0.117864
-0.126643
-0.104479
-0.110483
-0.0963722
-0.0998012
-0.0930848
-0.094145
-0.0945352
-0.0932052
-0.101075
-0.0971391
-0.113552
-0.106455
-0.132208
-0.121855
-0.144747
-0.186657
-0.195136
-0.181423
-0.176285
-0.176123
-0.180006
-0.202537
-0.2124
-0.170362
-0.197437
-0.191254
-0.183083
-0.230469
-0.20601
-0.218592
-0.150631
-0.178256
-0.164215
-0.128166
-0.138297
-0.110056
-0.118873
-0.0976444
-0.102937
-0.0912565
-0.0938312
-0.0896882
-0.0898868
-0.0927207
-0.0906409
-0.100405
-0.0959602
-0.113278
-0.106149
-0.131969
-0.121879
-0.156228
-0.143486
-0.183895
-0.16986
-0.210729
-0.197754
-0.231481
-0.222232
-0.241496
-0.238471
-0.238022
-0.241392
-0.222263
-0.231488
-0.21116
-0.16361
-0.169366
-0.167406
-0.183901
-0.162676
-0.173927
-0.201377
-0.193406
-0.210507
-0.207315
-0.208565
-0.211118
-0.195908
-0.203347
-0.176025
-0.186617
-0.153134
-0.164671
-0.131469
-0.141924
-0.113959
-0.122088
-0.101704
-0.107171
-0.0945397
-0.0975172
-0.0920852
-0.0927375
-0.0943486
-0.0926101
-0.101804
-0.0973831
-0.115457
-0.107774
-0.136549
-0.124912
-0.16501
-0.149958
-0.201681
-0.182594
-0.240686
-0.221567
-0.157979
-0.19167
-0.246729
-0.258441
-0.15644
-0.170265
-0.156449
-0.219268
-0.152518
-0.15063
-0.141721
-0.203604
-0.233534
-0.163815
-0.186557
-0.175935
-0.138632
-0.150888
-0.118792
-0.127902
-0.102773
-0.110496
-0.0919727
-0.0965145
-0.086887
-0.0888392
-0.0863568
-0.0860675
-0.0902293
-0.0877472
-0.0986384
-0.0938413
-0.112166
-0.104717
-0.131454
-0.121073
-0.156253
-0.143248
-0.184441
-0.170145
-0.211881
-0.198583
-0.233421
-0.223749
-0.244065
-0.24054
-0.241149
-0.244449
-0.225123
-0.234497
-0.199527
-0.213268
-0.184857
-0.151279
-0.15483
-0.139453
-0.146055
-0.172032
-0.162862
-0.187699
-0.18055
-0.196252
-0.193174
-0.194844
-0.196868
-0.183646
-0.190321
-0.165566
-0.175224
-0.144622
-0.155188
-0.124775
-0.134351
-0.108797
-0.116199
-0.0977603
-0.102654
-0.0915649
-0.0940834
-0.0899264
-0.0901837
-0.0929414
-0.0908303
-0.101176
-0.0963548
-0.115706
-0.107571
-0.138022
-0.125807
-0.168474
-0.152284
-0.206972
-0.186812
-0.248837
-0.228078
-0.273649
-0.284243
-0.267897
-0.213693
-0.195381
-0.230996
-0.261228
-0.131626
-0.296746
-0.285667
-0.144144
-0.143631
-0.169134
-0.221374
-0.20141
-0.154833
-0.246685
-0.167647
-0.180752
-0.175195
-0.14755
-0.158303
-0.12585
-0.136545
-0.108143
-0.116442
-0.09419
-0.100741
-0.0853437
-0.0890407
-0.0815488
-0.0829003
-0.0819854
-0.0812494
-0.0865739
-0.0837591
-0.0955215
-0.0904739
-0.109449
-0.101815
-0.129023
-0.118511
-0.154046
-0.140932
-0.182499
-0.168058
-0.210333
-0.196816
-0.232299
-0.222405
-0.243365
-0.239511
-0.240593
-0.243802
-0.224607
-0.234044
-0.198909
-0.212763
-0.184213
-0.13993
-0.142929
-0.129629
-0.135442
-0.141047
-0.12291
-0.131717
-0.158814
-0.150196
-0.17298
-0.166548
-0.180845
-0.177945
-0.179767
-0.181471
-0.169958
-0.175845
-0.153787
-0.162453
-0.134887
-0.144435
-0.116936
-0.125595
-0.102554
-0.1092
-0.0927773
-0.0970813
-0.0875587
-0.0896187
-0.0867023
-0.0865872
-0.0903886
-0.0879509
-0.0992609
-0.0941206
-0.114456
-0.10598
-0.137489
-0.124915
-0.169294
-0.152272
-0.20948
-0.188537
-0.253329
-0.231531
-0.290664
-0.273457
-0.304642
-0.311763
-0.303676
-0.122646
-0.204426
-0.183453
-0.239864
-0.272037
-0.141579
-0.31433
-0.315091
-0.317238
-0.225714
-0.293316
-0.307158
-0.204782
-0.113342
-0.114868
-0.106373
-0.183557
-0.256628
-0.159545
-0.161731
-0.162071
-0.147966
-0.154649
-0.130459
-0.139766
-0.112059
-0.121111
-0.0965031
-0.103802
-0.0848615
-0.0901721
-0.0778628
-0.080759
-0.0752822
-0.0760699
-0.076618
-0.0754698
-0.0818327
-0.0787348
-0.0911894
-0.0859619
-0.105339
-0.0976166
-0.124971
-0.114449
-0.149938
-0.136861
-0.178299
-0.163902
-0.206063
-0.192572
-0.228006
-0.218103
-0.239236
-0.23522
-0.236819
-0.239791
-0.221178
-0.230496
-0.195874
-0.209426
-0.166335
-0.181316
-0.138167
-0.151763
-0.132854
-0.129611
-0.131993
-0.129945
-0.132173
-0.12107
-0.126171
-0.107756
-0.114834
-0.128925
-0.12097
-0.144603
-0.136919
-0.15739
-0.151572
-0.164455
-0.161771
-0.163749
-0.165131
-0.15525
-0.160382
-0.140978
-0.148648
-0.124152
-0.132663
-0.108142
-0.115861
-0.0953903
-0.101266
-0.0868827
-0.0905962
-0.0826174
-0.0842349
-0.0824839
-0.082031
-0.0867362
-0.0840312
-0.0960767
-0.0907111
-0.111693
-0.10301
-0.135125
-0.122345
-0.167602
-0.150189
-0.208881
-0.187304
-0.254143
-0.231584
-0.293312
-0.275282
-0.306976
-0.310931
-0.313289
-0.125879
-0.180401
-0.158554
-0.24501
-0.279269
-0.100123
-0.226148
-0.295976
-0.201468
-0.304145
-0.303581
-0.301888
-0.173924
-0.133409
-0.121058
-0.152976
-0.262804
-0.139732
-0.131724
-0.137174
-0.13789
-0.140026
-0.127749
-0.133681
-0.112995
-0.120761
-0.0974466
-0.105084
-0.0843282
-0.0904554
-0.0749586
-0.079155
-0.0696384
-0.0717887
-0.0682162
-0.0684668
-0.0703948
-0.0688634
-0.0761649
-0.0728222
-0.0858287
-0.0804773
-0.100049
-0.092321
-0.119512
-0.109104
-0.144089
-0.131231
-0.171921
-0.157797
-0.199166
-0.18592
-0.220786
-0.211002
-0.232031
-0.227943
-0.230045
-0.232747
-0.215037
-0.224028
-0.190309
-0.203606
-0.161439
-0.176054
-0.147109
-0.119153
-0.110107
-0.115195
-0.123054
-0.121847
-0.121247
-0.122926
-0.113693
-0.118085
-0.101917
-0.108214
-0.0949597
-0.103147
-0.0919415
-0.0972324
-0.11642
-0.10963
-0.129942
-0.123272
-0.141237
-0.136058
-0.147581
-0.145161
-0.147186
-0.148274
-0.139937
-0.144345
-0.127504
-0.134206
-0.112717
-0.120206
-0.0986289
-0.105416
-0.0874909
-0.092605
-0.0802255
-0.0833636
-0.0768686
-0.0780687
-0.077385
-0.076635
-0.0820882
-0.0791798
-0.0917193
-0.0862264
-0.107493
-0.0987474
-0.130985
-0.118178
-0.163587
-0.146099
-0.20508
-0.183374
-0.250944
-0.227992
-0.290723
-0.272335
-0.312971
-0.304648
-0.310523
-0.314932
-0.288862
-0.285433
-0.300371
-0.143823
-0.12361
-0.24593
-0.281698
-0.266416
-0.270257
-0.222455
-0.293348
-0.194633
-0.295659
-0.100911
-0.10419
-0.0949151
-0.164138
-0.28785
-0.132748
-0.0874388
-0.113953
-0.264506
-0.110542
-0.0951859
-0.103352
-0.117769
-0.115377
-0.116105
-0.117946
-0.107736
-0.112621
-0.0954561
-0.101893
-0.0826127
-0.0889009
-0.0719459
-0.0768976
-0.0646242
-0.0678506
-0.0608353
-0.0622862
-0.0605124
-0.0602565
-0.0634647
-0.0615854
-0.0697102
-0.066165
-0.0795718
-0.074156
-0.0937
-0.0860561
-0.112752
-0.102591
-0.136614
-0.124147
-0.163543
-0.149881
-0.18992
-0.177086
-0.210947
-0.20141
-0.222058
-0.217965
-0.220499
-0.222923
-0.20632
-0.214859
-0.18256
-0.195351
-0.154537
-0.168741
-0.127339
-0.140635
-0.115045
-0.110129
-0.10605
-0.114713
-0.113058
-0.113794
-0.114959
-0.107584
-0.111286
-0.0972279
-0.10284
-0.0832672
-0.0795416
-0.0839542
-0.0908548
-0.0924577
-0.0876237
-0.103599
-0.0978699
-0.115169
-0.109452
-0.124961
-0.120443
-0.130604
-0.128427
-0.130473
-0.131305
-0.12438
-0.128116
-0.113683
-0.119468
-0.100846
-0.107355
-0.0886155
-0.0945015
-0.0790379
-0.0834165
-0.0729595
-0.0755505
-0.0704453
-0.0712628
-0.0715252
-0.0705247
-0.0765577
-0.0735122
-0.0863026
-0.0807792
-0.101974
-0.0933069
-0.125166
-0.112528
-0.157371
-0.140088
-0.198466
-0.176952
-0.244104
-0.221218
-0.284252
-0.265659
-0.306556
-0.298235
-0.304372
-0.308667
-0.27826
-0.293886
-0.244896
-0.237089
-0.258877
-0.103688
-0.0865297
-0.248852
-0.222173
-0.214403
-0.242584
-0.279027
-0.215167
-0.285337
-0.0931481
-0.0871232
-0.184225
-0.282098
-0.15205
-0.269789
-0.121406
-0.0766846
-0.0778905
-0.0938772
-0.225915
-0.199149
-0.191751
-0.0701506
-0.0628713
-0.0973129
-0.0881821
-0.0561194
-0.261598
-0.0771846
-0.0700299
-0.089785
-0.083929
-0.0961825
-0.0939707
-0.0950856
-0.0964839
-0.0882974
-0.0922737
-0.07829
-0.0835173
-0.0679586
-0.0729972
-0.059539
-0.0634208
-0.0540296
-0.0564011
-0.0516378
-0.0524424
-0.0523258
-0.0516078
-0.0559626
-0.0537798
-0.0625901
-0.0588908
-0.0725333
-0.0671154
-0.0864113
-0.0789369
-0.10484
-0.0950379
-0.12772
-0.115783
-0.153448
-0.140401
-0.178652
-0.166382
-0.198827
-0.189657
-0.209664
-0.205624
-0.208522
-0.210654
-0.195322
-0.203318
-0.172793
-0.184953
-0.145906
-0.159559
-0.11975
-0.132568
-0.107962
-0.102608
-0.0983538
-0.107689
-0.105767
-0.107673
-0.10832
-0.102736
-0.105783
-0.093599
-0.0986173
-0.0814377
-0.0878342
-0.181129
-0.16989
-0.159523
-0.0746235
-0.0742255
-0.0691004
-0.0713435
-0.0815831
-0.0776476
-0.0907649
-0.0859973
-0.100527
-0.0956885
-0.108904
-0.10502
-0.113863
-0.111922
-0.11395
-0.11456
-0.108899
-0.112025
-0.0998039
-0.104739
-0.0887927
-0.0943805
-0.0783153
-0.0833487
-0.0702118
-0.0738965
-0.0652415
-0.0673245
-0.0634895
-0.0639655
-0.0650385
-0.0638373
-0.0702772
-0.0671607
-0.0799641
-0.0745037
-0.0952873
-0.0868329
-0.117825
-0.105551
-0.149105
-0.132313
-0.189143
-0.16816
-0.233821
-0.211388
-0.273414
-0.255028
-0.295786
-0.287398
-0.293424
-0.297837
-0.267747
-0.283228
-0.226632
-0.248381
-0.203835
-0.235044
-0.271213
-0.0804356
-0.204185
-0.272407
-0.171617
-0.26444
-0.13982
-0.248625
-0.110632
-0.0849295
-0.050335
-0.0631868
-0.202593
-0.176728
-0.139275
-0.149163
-0.0675501
-0.0457087
-0.0383137
-0.0612592
-0.0602524
-0.0345114
-0.253992
-0.0486568
-0.043234
-0.0599752
-0.0543078
-0.0702013
-0.0653848
-0.075768
-0.073746
-0.0751638
-0.0761856
-0.0697852
-0.0729502
-0.0618239
-0.0659717
-0.0537063
-0.0576489
-0.0472595
-0.0501995
-0.0433572
-0.0449689
-0.042217
-0.0424414
-0.0438028
-0.0426773
-0.0480231
-0.045586
-0.0549352
-0.0511308
-0.0648511
-0.0594878
-0.0783449
-0.0711107
-0.0959809
-0.0866278
-0.117671
-0.106373
-0.141949
-0.129644
-0.165724
-0.154145
-0.184833
-0.176128
-0.195277
-0.191338
-0.194538
-0.196369
-0.18242
-0.189807
-0.161319
-0.172742
-0.135811
-0.148798
-0.110902
-0.123062
-0.0897291
-0.0997873
-0.0732372
-0.0808347
-0.0867153
-0.0738924
-0.0806214
-0.0964338
-0.092041
-0.102019
-0.0998052
-0.10289
-0.103048
-0.099071
-0.101548
-0.0910603
-0.0955279
-0.079917
-0.0858139
-0.0668284
-0.0735355
-0.064941
-0.0628641
-0.0706639
-0.0675511
-0.0781416
-0.0742418
-0.0862445
-0.0822103
-0.0933252
-0.0900245
-0.0976394
-0.0959246
-0.0978923
-0.0983168
-0.0937631
-0.0963461
-0.0861129
-0.0902788
-0.0767751
-0.0815161
-0.0679214
-0.0721643
-0.0611825
-0.0642259
-0.0572242
-0.0588461
-0.0561434
-0.0563234
-0.0580638
-0.0567124
-0.0633891
-0.0602652
-0.0728591
-0.0675475
-0.0876123
-0.0794905
-0.109175
-0.0974415
-0.139071
-0.123018
-0.177459
-0.157317
-0.220575
-0.198887
-0.259026
-0.241143
-0.280866
-0.272667
-0.278665
-0.282871
-0.253517
-0.268653
-0.213008
-0.234447
-0.168094
-0.190415
-0.126989
-0.146641
-0.120805
-0.109035
-0.0667976
-0.22374
-0.258817
-0.0598715
-0.19098
-0.255436
-0.158367
-0.243851
-0.127762
-0.225699
-0.1002
-0.0767649
-0.0575486
-0.0315843
-0.0419204
-0.18
-0.155656
-0.130106
-0.104317
-0.0929781
-0.0293721
-0.0218361
-0.0656756
-0.0593766
-0.0201882
-0.242251
-0.0272369
-0.0241347
-0.0349276
-0.0307894
-0.0437284
-0.0392954
-0.0519339
-0.0480857
-0.0567495
-0.0549458
-0.0565527
-0.0572344
-0.0524285
-0.0548774
-0.0462373
-0.0494596
-0.0400091
-0.0430155
-0.035268
-0.0373891
-0.0327741
-0.03372
-0.0327256
-0.0324447
-0.0350848
-0.0336107
-0.039785
-0.0371436
-0.046888
-0.043025
-0.0566816
-0.0514213
-0.0696836
-0.0627458
-0.0863961
-0.0775609
-0.106733
-0.0961605
-0.129375
-0.117908
-0.151532
-0.140736
-0.16942
-0.161252
-0.179367
-0.175571
-0.179005
-0.180539
-0.168027
-0.174767
-0.148492
-0.159102
-0.124605
-0.136783
-0.101103
-0.11258
-0.0812309
-0.0906256
-0.0729296
-0.0685103
-0.0541287
-0.0614188
-0.0814583
-0.0752965
-0.0914851
-0.0869031
-0.0976414
-0.0950911
-0.0993705
-0.0990756
-0.0965557
-0.0985172
-0.0895699
-0.0935419
-0.0793254
-0.0847874
-0.0669232
-0.0733337
-0.0801651
-0.0788289
-0.0662763
-0.060219
-0.0532423
-0.0527758
-0.0527316
-0.0555891
-0.0541954
-0.0599401
-0.0575257
-0.0658978
-0.0627698
-0.0725143
-0.0692019
-0.0784272
-0.0756533
-0.0821459
-0.080645
-0.082518
-0.0827925
-0.0791838
-0.0812945
-0.0728123
-0.0762941
-0.0649817
-0.0689571
-0.0576053
-0.0611283
-0.0521057
-0.0545681
-0.0490518
-0.0502644
-0.0485457
-0.0484773
-0.0507402
-0.0492881
-0.0560409
-0.0529678
-0.0651518
-0.060065
-0.0791412
-0.0714572
-0.0994481
-0.0884087
-0.127551
-0.11246
-0.163739
-0.144728
-0.204683
-0.18404
-0.241539
-0.224358
-0.262607
-0.254687
-0.260495
-0.264562
-0.236127
-0.250744
-0.197031
-0.217758
-0.153466
-0.175236
-0.113257
-0.132635
-0.095774
-0.209768
-0.242821
-0.176564
-0.235704
-0.144758
-0.221759
-0.0499429
-0.0467043
-0.0426185
-0.11585
-0.202519
-0.0907793
-0.0698178
-0.0528051
-0.0390901
-0.0192257
-0.027881
-0.158953
-0.136375
-0.113015
-0.0895762
-0.0540003
-0.0661392
-0.0533564
-0.0188548
-0.0110582
-0.045525
-0.046411
-0.0110023
-0.227328
-0.0128531
-0.0117096
-0.0164188
-0.0143718
-0.0218183
-0.0188693
-0.028609
-0.0251433
-0.0351859
-0.0320578
-0.0392618
-0.0376834
-0.0394082
-0.0398115
-0.0363441
-0.0381901
-0.0316366
-0.0340844
-0.0269976
-0.0292142
-0.0237102
-0.0251311
-0.022422
-0.0227987
-0.0233007
-0.0225916
-0.0263071
-0.0245434
-0.0313853
-0.0285882
-0.0385918
-0.0347126
-0.0481809
-0.0430646
-0.0606056
-0.0540078
-0.0762992
-0.0680312
-0.0951754
-0.0853831
-0.116064
-0.105494
-0.136482
-0.12653
-0.153041
-0.145464
-0.162414
-0.158794
-0.162398
-0.163647
-0.152574
-0.158651
-0.134683
-0.144434
-0.112557
-0.123859
-0.0906409
-0.101342
-0.0720396
-0.0808292
-0.0575827
-0.0643443
-0.0517113
-0.064254
-0.0571659
-0.077251
-0.0710013
-0.0876768
-0.0828632
-0.0944828
-0.0915808
-0.0970276
-0.0963089
-0.0951322
-0.096625
-0.089078
-0.0925918
-0.0796012
-0.0846933
-0.0677599
-0.0739057
-0.0545923
-0.0612777
-0.0450761
-0.0450944
-0.046408
-0.0455208
-0.0495469
-0.0477582
-0.0541651
-0.0517136
-0.0594772
-0.0567988
-0.0643565
-0.0620504
-0.0675352
-0.066232
-0.0679839
-0.0681416
-0.0653194
-0.0670286
-0.0600601
-0.0629434
-0.0535669
-0.0568604
-0.0475134
-0.0503911
-0.0431191
-0.0450649
-0.0408562
-0.0417138
-0.0408269
-0.0405576
-0.0432028
-0.0416965
-0.0483791
-0.0454084
-0.0570112
-0.0522125
-0.0700798
-0.0629181
-0.0889098
-0.0786852
-0.114898
-0.100944
-0.148441
-0.130799
-0.186682
-0.167354
-0.221495
-0.205212
-0.241631
-0.234029
-0.23969
-0.24355
-0.216441
-0.230363
-0.17923
-0.198975
-0.137559
-0.158389
-0.0987581
-0.117525
-0.0665468
-0.0817989
-0.0408318
-0.0529894
-0.042869
-0.0299136
-0.194073
-0.224322
-0.161476
-0.214605
-0.0466505
-0.0393234
-0.131372
-0.199431
-0.104932
-0.180291
-0.0825555
-0.064141
-0.0491277
-0.0369751
-0.027161
-0.0477848
-0.0115661
-0.0191278
-0.140163
-0.11936
-0.0980835
-0.0765366
-0.0546751
-0.0328012
-0.0201594
-0.012691
-0.00439976
-0.0391593
-0.0353239
-0.00565685
-0.210227
-0.00350122
-0.00370416
-0.00412756
-0.00363119
-0.00612543
-0.00495739
-0.00974228
-0.00773086
-0.0147528
-0.0121351
-0.0199498
-0.0174457
-0.023368
-0.0219973
-0.0237709
-0.0239516
-0.0215779
-0.0229276
-0.0180961
-0.0199036
-0.0147764
-0.0163364
-0.012702
-0.0135382
-0.0124185
-0.0123218
-0.0140634
-0.0130015
-0.017593
-0.0155979
-0.0229514
-0.0200449
-0.0301805
-0.0263239
-0.0394952
-0.0345568
-0.0512797
-0.0450526
-0.0658967
-0.0582241
-0.083259
-0.0742732
-0.10234
-0.0926951
-0.120965
-0.111884
-0.136136
-0.129177
-0.144886
-0.141466
-0.145171
-0.146154
-0.13648
-0.141902
-0.120255
-0.129129
-0.0999674
-0.110349
-0.0797665
-0.0896365
-0.0625349
-0.0706893
-0.0492035
-0.0554589
-0.0438218
-0.060985
-0.0539122
-0.0741594
-0.0677836
-0.0850183
-0.0799532
-0.0924709
-0.0892252
-0.0958013
-0.0946755
-0.0947655
-0.0958253
-0.0895488
-0.0926524
-0.0807245
-0.0855311
-0.0693402
-0.0752788
-0.0564065
-0.0630111
-0.00700574
-0.0113064
0.00160624
-0.0496777
-0.0381995
-0.0409157
-0.039355
-0.0369601
-0.0374023
-0.0374504
-0.0369906
-0.0395753
-0.0383208
-0.0430407
-0.0411722
-0.0472284
-0.0450969
-0.0512093
-0.0493114
-0.0539041
-0.052782
-0.054392
-0.054463
-0.0522799
-0.0536541
-0.0479734
-0.0503405
-0.0426517
-0.0453456
-0.0377662
-0.0400743
-0.0343403
-0.0358353
-0.0327542
-0.0333111
-0.0331063
-0.032682
-0.0355782
-0.0340599
-0.0405445
-0.0377196
-0.048602
-0.0441412
-0.0606309
-0.0540548
-0.0778207
-0.0684999
-0.101456
-0.0887694
-0.132011
-0.115922
-0.167125
-0.149328
-0.199526
-0.184308
-0.218583
-0.211342
-0.216932
-0.220482
-0.194996
-0.208111
-0.159933
-0.178559
-0.120456
-0.140222
-0.0835047
-0.101382
-0.0525552
-0.0672094
-0.0273779
-0.039359
-0.0167365
-0.177428
-0.204543
-0.0321002
-0.14652
-0.193406
-0.118988
-0.178079
-0.0953766
-0.159938
-0.0757225
-0.0595827
-0.0464535
-0.0357436
-0.0270688
-0.0201309
-0.00751493
-0.0144445
-0.12374
-0.104703
-0.0851274
-0.064997
-0.0444164
-0.0237696
0.00950111
-0.00331552
-0.0429165
-0.00988774
-0.000927414
-0.0340584
-0.0361443
-0.00325483
-0.19197
0.00230731
0.000938405
0.00386834
0.00324492
0.00421951
0.00415755
0.00337319
0.00394353
0.0011956
0.00245667
-0.00229869
-0.000421622
-0.00623205
-0.00429874
-0.00905246
-0.00787898
-0.00962478
-0.00963746
-0.008139
-0.00908347
-0.00566012
-0.00694394
-0.0034173
-0.00444165
-0.00233029
-0.00269089
-0.00286049
-0.00238107
-0.00511806
-0.00377547
-0.00905161
-0.00688088
-0.0145971
-0.0116249
-0.0217762
-0.0179762
-0.0307601
-0.0260259
-0.0418641
-0.0360257
-0.055382
-0.0483137
-0.0712245
-0.0630464
-0.0885025
-0.0797792
-0.105334
-0.0971257
-0.119111
-0.112776
-0.127206
-0.124006
-0.127745
-0.128486
-0.120136
-0.124929
-0.105546
-0.113553
-0.0871209
-0.0965629
-0.0687002
-0.0777035
-0.0529446
-0.0604047
-0.0407087
-0.0464165
-0.0315863
-0.0358127
-0.0249617
-0.0280166
-0.0440713
-0.0294727
-0.0366934
-0.0585683
-0.0513933
-0.072065
-0.0655058
-0.0834354
-0.078094
-0.0915474
-0.0879537
-0.0956609
-0.0941323
-0.0954461
-0.0960975
-0.0909906
-0.0937257
-0.0827691
-0.0873049
-0.0717253
-0.0775095
-0.0589159
-0.0654572
-0.0454092
-0.0522109
-0.0308362
-0.0322854
-0.029064
-0.029775
-0.028838
-0.0287547
-0.0300983
-0.0292948
-0.0325911
-0.0312155
-0.035826
-0.0341585
-0.0390382
-0.0374913
-0.0413042
-0.0403463
-0.0417986
-0.0418099
-0.0401326
-0.0412323
-0.0366329
-0.0385596
-0.0323267
-0.034499
-0.0284586
-0.030271
-0.0258666
-0.0269754
-0.024846
-0.0251548
-0.0254898
-0.024953
-0.0279817
-0.0264882
-0.0326679
-0.0300235
-0.0400805
-0.0359932
-0.0509917
-0.0450418
-0.0664423
-0.0580786
-0.0875788
-0.0762409
-0.114917
-0.100509
-0.146586
-0.130486
-0.176272
-0.162256
-0.194137
-0.187284
-0.192708
-0.196021
-0.172435
-0.18464
-0.139687
-0.157089
-0.102687
-0.121247
-0.0678387
-0.0847191
-0.0384211
-0.0523743
-0.0142122
-0.0257342
0.0057116
-0.00374243
0.0221082
0.0142987
0.0165279
0.0291004
-0.0224066
-0.160799
-0.184704
-0.0386308
-0.132532
-0.1732
-0.107992
-0.158572
-0.0873295
-0.141853
-0.0702213
-0.0561865
-0.044683
-0.0353738
-0.0278357
-0.0217568
-0.0169406
-0.00619974
-0.0129754
-0.109661
-0.0921979
-0.0739086
-0.0548768
-0.0354038
-0.0157541
0.00380177
0.0227631
0.0353882
-0.00965714
0.000251262
-0.0180027
-0.0155371
-0.00302143
-0.173685
0.0053424
0.00298095
0.00881166
0.00725533
0.0109039
0.0099789
0.0119547
0.0115522
0.0119995
0.0120996
0.0109513
0.0116188
0.00877182
0.00999012
0.00597121
0.00738662
0.00372925
0.00469881
0.00307072
0.00317596
0.00399109
0.00337381
0.00565897
0.004798
0.00703888
0.00644264
0.00734262
0.00735827
0.00617475
0.00695281
0.00344809
0.00500357
-0.000776529
0.00151696
-0.00642284
-0.00342509
-0.013488
-0.00977396
-0.0220982
-0.017587
-0.0325017
-0.0270589
-0.0449274
-0.0384565
-0.0592839
-0.0518935
-0.0748102
-0.0669818
-0.0899021
-0.0825403
-0.102313
-0.0965913
-0.109749
-0.106775
-0.110498
-0.111026
-0.103887
-0.108095
-0.0908607
-0.0980329
-0.0742719
-0.0827813
-0.0576429
-0.0657729
-0.0433777
-0.0501348
-0.032269
-0.0374348
-0.0240166
-0.0278298
-0.0207899
-0.0273299
-0.0134588
-0.0203026
-0.0420952
-0.0346403
-0.0569033
-0.0495402
-0.0708881
-0.06407
-0.0828478
-0.0771977
-0.0916752
-0.0877076
-0.096597
-0.0946584
-0.0971855
-0.0974423
-0.0934346
-0.0958341
-0.0857553
-0.0900448
-0.0749355
-0.0806686
-0.0621547
-0.0687335
-0.0485046
-0.0553875
0.0471709
0.0407988
0.052617
-0.0416332
-0.0272073
-0.0319601
-0.029418
-0.0236073
-0.0252621
-0.0214219
-0.0223325
-0.0206316
-0.0208551
-0.0211713
-0.0207434
-0.0228569
-0.0218904
-0.0252978
-0.0240176
-0.0278609
-0.0266119
-0.0297498
-0.0289401
-0.0302229
-0.0301979
-0.0289101
-0.0297881
-0.0260877
-0.0276414
-0.0226544
-0.024377
-0.0196614
-0.0210485
-0.0177745
-0.018559
-0.0172142
-0.0173244
-0.0180679
-0.0174571
-0.0205146
-0.0190767
-0.024867
-0.0224288
-0.0315892
-0.0278972
-0.0413431
-0.0360387
-0.0550151
-0.0476287
-0.0735968
-0.0636394
-0.0976068
-0.0849449
-0.125628
-0.111339
-0.152364
-0.139662
-0.168949
-0.162498
-0.168043
-0.170888
-0.149428
-0.160674
-0.119055
-0.135213
-0.0846353
-0.101914
-0.0520774
-0.0678717
-0.0242886
-0.0375238
-0.00122705
-0.0122358
0.0179515
0.00878854
0.0340348
0.0264111
0.0410982
-0.145122
-0.165857
-0.119988
-0.154781
-0.0986148
-0.141321
-0.0119949
-0.00707733
-0.00554332
-0.0807568
-0.126143
-0.0659861
-0.0538446
-0.0439329
-0.0358704
-0.0294516
-0.0243072
-0.020134
-0.016771
-0.006745
-0.0137652
-0.0977104
-0.0815227
-0.0642851
-0.0462135
-0.0276203
-0.0086938
0.0101403
0.0283703
0.0570962
0.0454495
-0.0348428
-0.0110838
-0.000187321
-0.0253243
-0.0282164
-0.00411661
-0.156369
0.0062778
0.00321693
0.0113123
0.00897081
0.0149975
0.0133229
0.0174645
0.0163668
0.0190171
0.0183434
0.0197207
0.0194709
0.0195746
0.0197601
0.0184928
0.0191503
0.0167067
0.0176488
0.0150401
0.0157938
0.014375
0.0145513
0.014855
0.0144969
0.0158759
0.0153518
0.0165766
0.0163158
0.0162759
0.0165803
0.0146286
0.0156293
0.0115647
0.0132706
0.00715363
0.00952091
0.00148541
0.00447233
-0.00541083
-0.00180736
-0.0136165
-0.00934057
-0.0233164
-0.018267
-0.0346803
-0.0287872
-0.0476164
-0.0409769
-0.0614813
-0.0545007
-0.0749239
-0.0683653
-0.0860354
-0.0808981
-0.0928304
-0.0900817
-0.0937373
-0.0940869
-0.0880236
-0.0917009
-0.0764581
-0.0828429
-0.0616436
-0.0692463
-0.0467795
-0.0540478
-0.0340048
-0.0400604
-0.0239995
-0.0286583
-0.0165508
-0.0199824
-0.011166
-0.0136701
-0.00897358
-0.0258062
-0.0187107
-0.0407222
-0.0331672
-0.055994
-0.0483634
-0.070574
-0.0634511
-0.0832129
-0.0772075
-0.0928417
-0.0884607
-0.0986175
-0.0962518
-0.100011
-0.0998775
-0.0969251
-0.0990143
-0.0897113
-0.0937951
-0.079083
-0.0847653
-0.0661891
-0.0728277
-0.0522661
-0.0592759
-0.0382706
-0.0452263
-0.020413
-0.022749
-0.0166212
-0.0183582
-0.0141189
-0.0152032
-0.012873
-0.0133416
-0.0128293
-0.0127062
-0.0138571
-0.0132243
-0.0156467
-0.0146853
-0.0176677
-0.0166695
-0.0192259
-0.0185496
-0.0196552
-0.0196134
-0.0186174
-0.0193183
-0.0163615
-0.0176004
-0.0136736
-0.0150117
-0.0114234
-0.012451
-0.0101211
-0.0106391
-0.00992451
-0.00988121
-0.0109155
-0.0102643
-0.0132632
-0.0119058
-0.017244
-0.015029
-0.0232536
-0.019966
-0.0318458
-0.0271867
-0.0437546
-0.0373356
-0.0598079
-0.0512179
-0.0804912
-0.0695816
-0.104779
-0.092358
-0.128395
-0.117096
-0.143602
-0.137579
-0.143294
-0.145623
-0.126528
-0.136737
-0.0985817
-0.11349
-0.0666805
-0.082712
-0.0363923
-0.0511016
-0.0103109
-0.0227802
0.0114963
0.00108361
0.0297289
0.0209933
0.0452892
0.0378319
0.0581147
0.0520677
0.0678905
0.0633471
0.0609746
0.0717942
-0.131002
-0.148736
-0.109187
-0.138574
-0.0108264
-0.00440408
-0.0908456
-0.126448
-0.0755888
-0.112744
-0.0629514
-0.0525772
-0.0441664
-0.0374126
-0.0319908
-0.0277332
-0.0242777
-0.0212823
-0.0186552
-0.0313892
-0.00848938
-0.0160788
-0.0876317
-0.072492
-0.0561709
-0.0388998
-0.0209184
-0.00260705
0.0155174
0.0329911
0.0492994
-0.00100953
0.000431105
-0.0135676
-0.00148004
0.0641173
0.0750681
-0.00593484
-0.140701
0.00598917
0.00250239
0.0120668
0.00919947
0.0170116
0.0146665
0.0207647
0.0190136
0.0234743
0.0222279
0.0253698
0.0245139
0.0265741
0.0260527
0.0271277
0.0269359
0.0269385
0.0271322
0.0260459
0.026561
0.0249507
0.0254766
0.0243616
0.0245603
0.024513
0.024354
0.025026
0.0247665
0.0252008
0.0251979
0.0244481
0.024966
0.02246
0.0236163
0.0191772
0.020977
0.0146746
0.0170712
0.00905562
0.0119991
0.00237525
0.00584776
-0.00540494
-0.00137125
-0.0144116
-0.00974596
-0.0247628
-0.0194177
-0.0363677
-0.0304297
-0.0486892
-0.0424953
-0.0606046
-0.0547894
-0.0705113
-0.065917
-0.0766949
-0.0741664
-0.0777073
-0.0779149
-0.0727746
-0.0759834
-0.0625508
-0.0682049
-0.0494243
-0.0561589
-0.0362709
-0.0427014
-0.0249564
-0.0303239
-0.0160543
-0.0202055
-0.00939851
-0.0124648
-0.00459752
-0.00678833
-0.00268035
-0.0248486
-0.0176618
-0.0401097
-0.0323604
-0.0558805
-0.0479797
-0.0711
-0.0636409
-0.0845236
-0.0781069
-0.0950522
-0.0902126
-0.101742
-0.0989245
-0.103959
-0.103432
-0.101512
-0.10331
-0.0946879
-0.0986098
-0.0841817
-0.0898387
-0.0710402
-0.0778583
-0.0566638
-0.0639212
-0.0421467
-0.0493847
0.0845297
0.0776354
0.0871529
-0.0350305
-0.0187816
-0.0247386
-0.0216272
-0.0137763
-0.0161775
-0.00991546
-0.0117107
-0.00719539
-0.00841473
-0.00559365
-0.00625528
-0.00508978
-0.00520783
-0.00559339
-0.00522726
-0.00685686
-0.0061541
-0.00842835
-0.00764014
-0.00969616
-0.00914049
-0.0100646
-0.0100211
-0.00923926
-0.00979896
-0.00745739
-0.00843077
-0.00540222
-0.00641427
-0.00377376
-0.00450233
-0.00294566
-0.00324984
-0.00302607
-0.00286937
-0.00409175
-0.00342864
-0.00629837
-0.00504013
-0.00988425
-0.00790162
-0.0151798
-0.0122944
-0.0226366
-0.0186057
-0.0328437
-0.0273564
-0.0464662
-0.0391911
-0.0639262
-0.0547206
-0.0845111
-0.0739574
-0.104901
-0.095073
-0.118603
-0.113061
-0.118932
-0.120703
-0.104187
-0.113277
-0.0787511
-0.0923853
-0.0493037
-0.0641372
-0.0211564
-0.0348432
0.0032127
-0.00845608
0.0236751
0.0138961
0.0408847
0.0326291
0.0556364
0.0485496
0.0678423
0.0620448
0.077484
0.0729627
0.0813276
-0.118766
-0.133745
0.00164357
-0.100171
-0.12469
-0.0846306
-0.113859
-0.0717262
-0.101458
-0.0610999
-0.0524349
-0.0454792
-0.0399916
-0.0356586
-0.0321588
-0.0293441
-0.026823
-0.0243371
-0.0218883
-0.0108628
-0.0191848
-0.0792604
-0.0650136
-0.0494745
-0.032857
-0.0154284
0.0023175
0.0198486
0.0367726
0.0524708
0.0668057
0.0891187
0.079731
-0.0281323
-0.0161025
-0.00312738
-0.0182446
-0.0214861
-0.0075997
-0.127052
0.00503093
0.001107
0.0118757
0.00864206
0.0176096
0.0148537
0.0223313
0.0201
0.0260459
0.0243004
0.0288955
0.0275727
0.031031
0.0300406
0.032609
0.031883
0.0336922
0.0332138
0.0342054
0.0340286
0.034075
0.0342162
0.0335358
0.0338269
0.0331139
0.0332764
0.0330348
0.0330193
0.0331594
0.033104
0.0329338
0.0331255
0.0318548
0.0325238
0.0296438
0.0308981
0.0262452
0.0280896
0.0217359
0.0241219
0.0162294
0.0191006
0.00980476
0.0131295
0.00246292
0.00625161
-0.00587127
-0.00157435
-0.0152717
-0.0104381
-0.0256508
-0.0203566
-0.0365665
-0.0310877
-0.0470981
-0.041956
-0.0559098
-0.0518105
-0.0615204
-0.0592027
-0.0625835
-0.0626887
-0.0583105
-0.0611153
-0.0493042
-0.0542873
-0.0377659
-0.0436791
-0.0262466
-0.0318749
-0.016338
-0.0210415
-0.00850846