/*--------------------------------*- C++ -*----------------------------------*\
  =========                 |
  \\      /  F ield         | OpenFOAM: The Open Source CFD Toolbox
   \\    /   O peration     | Website:  https://openfoam.org
    \\  /    A nd           | Version:  10
     \\/     M anipulation  |
\*---------------------------------------------------------------------------*/
FoamFile
{
    format      ascii;
    class       volVectorField;
    location    "38";
    object      U;
}
// * * * * * * * * * * * * * * * * * * * * * * * * * * * * * * * * * * * * * //

dimensions      [0 1 -1 0 0 0 0];

internalField   nonuniform List<vector> 
33313
(
(0.298868 0.0142854 -2.32441e-21)
(0.434215 0.00918317 1.31479e-21)
(0.37937 0.0293556 0)
(0.169207 0.0114277 0)
(0.74744 0.0292974 3.9408e-22)
(0.703762 0.0300026 0)
(0.588572 0.0325806 -6.76562e-22)
(0.62391 0.0236839 0)
(0.721573 0.0227696 4.06972e-22)
(0.59378 0.0211311 4.55756e-22)
(0.666123 0.0282939 0)
(-0.024901 0.0124624 -2.96667e-20)
(0.00323596 -0.00672363 -1.07973e-19)
(0.000829288 -0.00052722 -2.12244e-19)
(0.444213 -0.358962 3.87359e-22)
(0.17346 -0.127155 9.90212e-22)
(0.154686 -0.120711 3.01768e-21)
(1.45088 -0.342904 0)
(1.50829 -0.207073 0)
(1.43835 -0.152015 0)
(1.44319 -0.243453 3.68653e-20)
(0.543209 0.0645204 0)
(0.457507 0.367116 -1.25833e-19)
(0.310524 0.32594 3.81494e-19)
(0.415611 0.0530994 -8.21234e-20)
(1.00476 -0.0203097 -6.39928e-20)
(1.00451 -0.0396 4.43685e-20)
(1.00486 -0.0788935 0)
(0.962861 0.105345 -5.86449e-20)
(1.03588 0.100735 4.66517e-20)
(1.01583 0.0818595 3.07856e-20)
(0.996713 -0.0192823 -3.95679e-20)
(0.881875 0.0570194 -2.22547e-20)
(-0.00291624 -0.0610803 1.12844e-19)
(-0.0637834 -0.0423951 -2.33262e-19)
(-0.0705658 -0.0430613 1.45398e-19)
(-0.085337 -0.0561412 2.00658e-20)
(1.11315 -0.0243094 -1.55572e-22)
(1.11775 -0.0249638 -4.53797e-21)
(1.55033 0.208017 -1.62419e-20)
(1.52301 0.183596 3.0145e-20)
(1.01658 -0.165672 -5.3563e-20)
(1.02303 -0.162133 -4.399e-21)
(-0.0710616 -0.0417396 -9.57818e-20)
(-0.0998791 0.0820205 3.51258e-20)
(-0.110038 0.0801426 -1.41384e-19)
(0.209326 0.546865 8.93573e-20)
(0.187905 0.404882 3.40202e-20)
(0.418163 -0.0436273 -7.29687e-22)
(0.532035 -0.0241303 -3.6116e-22)
(1.04197 0.0685719 -4.09531e-20)
(1.05969 0.0629687 2.18828e-20)
(1.06382 -0.0978946 -5.62236e-20)
(1.01891 -0.0609693 1.49561e-19)
(0.497675 0.583555 8.02773e-20)
(0.432311 0.64683 -2.67353e-20)
(0.661318 0.793993 -8.15672e-20)
(0.392988 0.731819 2.00571e-19)
(0.2194 -0.359771 4.41522e-20)
(0.353655 -0.662692 -3.4396e-21)
(0.223403 0.579864 -4.89582e-20)
(0.396025 -0.218493 2.3507e-19)
(0.227844 -0.159648 -7.09404e-20)
(0.0991765 -0.116951 0)
(0.0879892 -0.00432667 0)
(0.118817 -0.0140698 1.01996e-20)
(1.4111 -0.12619 3.12307e-20)
(1.34794 -0.207476 0)
(1.34132 -0.203411 0)
(-0.220008 0.449121 2.1991e-20)
(-0.234761 0.39372 0)
(-0.125906 0.364196 0)
(0.404861 0.0514783 1.39148e-20)
(1.57667 0.265647 6.19689e-20)
(-0.274114 0.553227 8.82068e-20)
(-0.209945 0.5133 6.05233e-20)
(0.351269 0.327365 0)
(0.234726 0.36872 3.02728e-20)
(1.44812 0.316948 5.24595e-20)
(1.49251 0.254567 -3.24187e-20)
(0.824366 -0.0331443 1.46399e-19)
(0.83991 -0.0165339 -4.90038e-20)
(0.799324 -0.066968 0)
(1.43588 0.172058 1.69105e-20)
(1.28973 0.21032 -3.79416e-21)
(0.678412 0.0864337 -1.50516e-20)
(0.0373622 0.0404531 0)
(-0.0671627 0.0781341 1.69522e-20)
(-0.0869632 0.0705528 9.54903e-20)
(0.0375303 -0.121662 2.84036e-19)
(-0.16437 0.316358 8.52275e-21)
(-0.154273 0.274104 -3.43582e-21)
(-0.094157 0.12827 -6.12353e-19)
(-0.0804242 0.195303 0)
(-0.0688797 0.255305 5.85407e-20)
(1.04203 0.0634526 0)
(1.01547 0.0610517 -4.99911e-21)
(0.488639 -0.0478511 1.12502e-21)
(0.625555 -0.0312205 -1.64937e-21)
(1.42829 -0.168581 0)
(1.43227 -0.21413 -8.0924e-20)
(1.446 -0.137884 0)
(1.43826 -0.0582959 3.36373e-20)
(1.45768 -0.0749569 5.47464e-21)
(1.43342 -0.0599211 -3.72206e-20)
(0.392784 0.0205561 -3.6282e-21)
(0.269054 -0.0236833 -1.23865e-19)
(0.00996599 -0.0400707 -8.73614e-20)
(0.0289209 -0.0355884 -4.41723e-22)
(0.926635 -0.611091 8.89298e-21)
(1.10951 -0.746067 5.9808e-21)
(0.936807 -0.713845 2.74274e-20)
(0.736806 -0.509157 0)
(0.842361 -0.224634 9.8438e-20)
(0.330022 -0.0378988 4.90542e-20)
(0.767098 -0.0853397 -4.45237e-20)
(0.21849 0.104078 -4.35639e-19)
(0.183046 0.25324 4.95357e-20)
(1.44058 -0.0717737 1.60668e-21)
(1.4243 -0.0576728 0)
(-0.0560905 -0.0380731 0)
(-0.0556436 -0.0434138 1.45399e-19)
(-0.0600777 -0.0476366 0)
(0.34724 -0.0144374 -1.11625e-21)
(0.409497 -0.0098384 6.82225e-22)
(0.212806 -0.0341146 -6.20588e-21)
(0.809495 0.77976 1.41501e-19)
(1.13647 -0.125556 9.32582e-24)
(1.12683 -0.128441 0)
(0.0823635 0.508732 2.76888e-20)
(0.194098 0.431545 -4.23709e-20)
(-0.0322941 0.0307059 -2.00756e-19)
(-0.0406709 -0.000370954 3.7387e-19)
(0.930959 0.728491 2.00649e-20)
(1.09413 0.739226 2.5674e-20)
(0.95585 0.683003 0)
(0.791543 0.621503 0)
(0.510813 -0.353548 -1.00458e-20)
(0.632078 -0.443691 0)
(0.857146 -0.724237 -1.0131e-19)
(0.863572 -0.702722 -2.92642e-20)
(0.727595 -0.73295 1.1497e-19)
(1.13508 -0.114794 -1.95992e-22)
(1.14031 -0.110921 -4.76895e-22)
(1.14518 -0.12376 -1.54758e-23)
(1.07438 -0.00555945 0)
(1.07754 -0.00558245 -4.37847e-21)
(1.07905 -0.00826148 6.67048e-21)
(1.08182 -0.010083 4.19259e-21)
(0.999147 -0.20353 4.03102e-20)
(1.01284 -0.207692 0)
(0.9964 -0.164829 -6.98586e-20)
(1.00382 -0.178113 4.01138e-20)
(0.94385 0.106942 2.97319e-20)
(0.937659 0.12755 -4.60352e-20)
(0.957787 0.13487 2.83276e-20)
(0.952463 0.146547 1.65025e-19)
(-0.0608627 0.446514 2.1391e-20)
(-0.280007 0.517996 0)
(-0.198665 0.496943 -2.8385e-20)
(-0.0468323 -0.0224908 -3.21703e-19)
(0.460707 0.382298 9.59171e-21)
(0.491576 0.455191 -5.09805e-21)
(0.894106 0.762743 -3.45072e-20)
(0.500834 0.514413 -3.28215e-20)
(-0.0977051 0.261688 0)
(-0.0936916 0.164815 1.07044e-19)
(-0.104232 0.343782 -7.20704e-20)
(0.437639 0.0889954 0)
(0.767277 0.0249596 0)
(0.823278 0.026061 -8.8336e-23)
(1.06147 0.00477826 4.70605e-21)
(1.06206 0.00167864 -2.9738e-21)
(1.08428 0.0117356 1.44883e-21)
(1.08817 0.0157563 -4.02321e-24)
(1.01274 -0.0922412 1.34479e-20)
(1.02456 -0.0768176 -5.88462e-20)
(0.555331 0.168858 1.1357e-19)
(0.532404 0.206453 -9.62723e-20)
(1.32126 0.248129 0)
(1.33978 0.236349 0)
(1.10978 -0.0107824 -5.37169e-22)
(1.11505 -0.00902102 -7.10335e-21)
(1.11424 0.184905 -3.45116e-20)
(1.10832 0.177271 1.1985e-20)
(0.487959 0.233701 0)
(0.416087 0.2145 -9.21401e-22)
(0.573827 0.180967 2.61674e-20)
(0.64583 0.138848 3.40226e-20)
(0.369241 0.30511 4.25022e-22)
(-0.316575 0.513277 -2.38259e-19)
(0.843519 0.0615595 -5.25042e-20)
(0.872841 0.0570536 2.23487e-20)
(0.393798 0.296981 1.13063e-20)
(0.429429 0.235694 0)
(0.937503 0.261214 0)
(0.913866 0.301081 -5.01838e-21)
(0.890554 0.399411 -5.68261e-20)
(0.96517 -0.249538 2.49723e-20)
(0.937449 -0.273532 0)
(0.931572 -0.425084 3.02058e-20)
(0.818238 0.0212183 -4.40013e-20)
(0.846968 0.0247022 5.34841e-20)
(1.03997 -0.0695446 5.32332e-21)
(1.03326 -0.0623678 -1.16435e-20)
(-0.147534 0.135438 0)
(-0.130031 0.0865785 -5.02371e-20)
(1.26869 -0.629347 -3.11263e-20)
(1.21171 -0.646748 1.29851e-20)
(1.02864 -0.058367 -4.02289e-20)
(1.03355 -0.0674389 4.78249e-20)
(0.715504 0.0296027 -5.68739e-24)
(0.781456 0.0279628 6.58562e-24)
(0.77924 0.0278749 2.27722e-23)
(0.724581 0.0283858 3.60982e-23)
(0.57228 -0.433554 3.15925e-21)
(-0.0057914 0.0325044 1.28006e-19)
(0.00414101 0.00582591 -5.94193e-20)
(0.990814 0.198218 1.25466e-20)
(0.988162 0.17961 -5.89757e-21)
(0.999786 0.177661 5.92265e-21)
(1.00443 0.196801 0)
(1.41541 -0.0651702 -2.41062e-20)
(1.40486 -0.0504947 1.35515e-21)
(1.39207 -0.0480769 2.34899e-20)
(1.12844 0.297863 0)
(1.10942 0.294848 -3.38404e-20)
(1.12978 0.294115 0)
(-0.0748106 0.0499309 -5.70497e-20)
(-0.0260887 0.0164324 -1.28753e-19)
(-0.0327233 0.0212982 0)
(0.206401 -0.14168 -5.23915e-20)
(0.17541 -0.123728 1.91728e-20)
(1.06013 0.00622138 3.2381e-21)
(1.07164 -0.0129506 -6.31389e-21)
(1.07382 -0.0106639 -2.98403e-21)
(1.42184 -0.381103 0)
(1.03797 -0.167708 0)
(0.962522 -0.609373 -4.27776e-21)
(0.975912 -0.618672 -3.47554e-21)
(0.988271 -0.620402 4.4932e-21)
(0.996774 -0.616171 -3.26248e-22)
(1.00436 -0.608599 0)
(1.0096 -0.599131 -2.0459e-21)
(1.01351 -0.589177 2.04564e-21)
(1.01628 -0.579606 1.91415e-21)
(1.01821 -0.571022 -1.91296e-21)
(1.01944 -0.563798 -1.88153e-21)
(1.02 -0.558307 1.88029e-21)
(1.01996 -0.554811 1.9445e-21)
(1.01925 -0.553503 -1.94313e-21)
(1.01796 -0.554195 0)
(1.01605 -0.556274 0)
(1.0137 -0.558353 0)
(1.01087 -0.55862 2.54959e-21)
(1.00783 -0.554692 -2.55175e-21)
(1.00439 -0.544414 0)
(1.00088 -0.525658 0)
(0.996935 -0.497143 0)
(0.993108 -0.457862 3.79061e-21)
(0.988703 -0.407977 2.6153e-22)
(0.985016 -0.347484 -8.3471e-21)
(0.980055 -0.27835 4.29453e-21)
(0.977661 -0.200058 -4.63808e-21)
(0.971395 -0.119056 1.48061e-20)
(0.969247 -0.0299112 4.10951e-23)
(0.965561 0.0557764 0)
(0.965718 0.145116 1.51762e-21)
(0.967491 0.231476 0)
(0.970684 0.311055 -2.89463e-21)
(0.990173 -0.628122 0)
(0.961095 -0.600767 9.5788e-21)
(0.98409 -0.612891 2.97844e-21)
(0.942894 -0.589307 1.96082e-21)
(0.982193 0.439042 -2.65901e-21)
(0.976166 0.385426 2.57623e-21)
(0.933848 0.230451 0)
(0.943699 0.377367 -1.29411e-21)
(0.937175 0.307614 -1.32116e-21)
(0.930617 0.0593545 0)
(0.930956 0.147336 0)
(0.934124 -0.116192 0)
(0.930969 -0.0294366 0)
(0.942852 -0.276186 -5.38942e-25)
(0.938097 -0.198841 0)
(0.955008 -0.405348 0)
(0.948785 -0.345279 0)
(0.968508 -0.493799 -8.87396e-24)
(0.961738 -0.45493 0)
(0.981959 -0.540333 0)
(0.975313 -0.521947 0)
(0.99453 -0.554184 -6.57109e-24)
(0.9884 -0.550362 0)
(1.0054 -0.552402 -5.84621e-24)
(1.00024 -0.554077 0)
(1.01366 -0.551057 -5.41497e-24)
(1.00989 -0.550972 -6.89358e-28)
(1.01906 -0.557525 0)
(1.0167 -0.553204 0)
(1.02179 -0.57191 0)
(1.02074 -0.56384 0)
(1.02161 -0.592139 0)
(1.02212 -0.581457 0)
(1.01741 -0.61479 0)
(1.02009 -0.603461 0)
(1.00639 -0.631098 1.87115e-21)
(1.01274 -0.62409 4.0452e-22)
(0.997913 -0.632438 2.99536e-23)
(0.945792 -0.570376 -1.01691e-22)
(0.969768 -0.584026 1.60608e-21)
(0.946069 0.436363 0)
(0.923332 -0.55521 -8.35807e-21)
(0.974053 0.493744 0)
(0.991797 0.495755 2.99915e-21)
(0.928167 -0.526539 8.79534e-23)
(0.955973 -0.541871 -1.74028e-21)
(0.953734 0.486278 -5.07821e-21)
(1.01332 0.44845 0)
(0.902624 -0.508594 -1.40978e-21)
(1.01826 0.499454 -2.65056e-21)
(0.937893 -0.48224 -1.98928e-21)
(0.882355 -0.44763 1.62845e-21)
(0.908944 -0.466477 0)
(0.923167 -0.572669 -2.88869e-22)
(0.880765 -0.490964 2.60213e-21)
(0.902618 -0.538256 5.33735e-21)
(0.95874 -0.604793 1.07086e-22)
(0.942983 -0.594385 -1.9888e-21)
(0.982623 -0.605225 -3.24689e-24)
(0.971608 -0.607608 -3.60657e-21)
(0.999947 -0.591612 0)
(0.99207 -0.599455 0)
(1.01165 -0.574727 0)
(1.00641 -0.583067 0)
(1.01944 -0.56093 0)
(1.01592 -0.567205 0)
(1.02457 -0.553649 0)
(1.0223 -0.556312 0)
(1.02754 -0.554576 0)
(1.02629 -0.553139 0)
(1.02887 -0.559934 0)
(1.02836 -0.557297 0)
(1.02919 -0.557121 0)
(1.02912 -0.560631 0)
(1.02863 -0.528822 0)
(1.02901 -0.547186 0)
(1.02684 -0.461584 0)
(1.02782 -0.500585 0)
(1.02368 -0.351287 -7.24709e-26)
(1.02509 -0.411671 0)
(1.02005 -0.203761 9.5973e-26)
(1.02052 -0.281245 0)
(1.01318 -0.0297865 -8.3188e-22)
(1.01403 -0.117359 -1.15024e-20)
(1.0068 0.149203 -3.04767e-21)
(1.00801 0.0609093 5.54022e-21)
(1.00738 0.314626 2.9204e-21)
(1.00654 0.2346 -1.53255e-21)
(1.00905 0.385312 0)
(0.979187 0.530322 -6.44511e-22)
(1.02246 0.53941 -6.08327e-23)
(0.998028 0.534979 0)
(0.916434 0.370179 -1.54114e-22)
(0.93281 0.476407 4.94336e-21)
(0.923505 0.428157 0)
(0.904388 0.227148 0)
(0.909109 0.303094 6.4565e-22)
(0.900691 0.0598069 -7.62284e-22)
(0.901048 0.144615 0)
(0.905017 -0.112026 0)
(0.90185 -0.0270001 7.64302e-22)
(0.915371 -0.269246 -6.38766e-25)
(0.90946 -0.193398 0)
(0.93028 -0.396893 0)
(0.922436 -0.337499 0)
(0.94745 -0.485025 8.88526e-24)
(0.938727 -0.446193 0)
(0.965149 -0.532069 0)
(0.95632 -0.513356 0)
(0.982206 -0.546884 6.58221e-24)
(0.973832 -0.542532 0)
(0.997397 -0.546419 5.85603e-24)
(0.990117 -0.547396 0)
(1.00967 -0.546548 5.42399e-24)
(1.00393 -0.545728 6.90517e-28)
(1.01893 -0.55435 0)
(1.01465 -0.549389 0)
(1.02563 -0.569967 0)
(1.02257 -0.561277 0)
(1.02976 -0.591704 0)
(1.02805 -0.580207 0)
(1.03039 -0.616397 6.52272e-24)
(1.0306 -0.604007 0)
(1.02581 -0.636197 0)
(1.02884 -0.627622 0)
(1.01496 -0.636889 0)
(1.02122 -0.640132 0)
(0.997305 -0.596579 -8.68138e-22)
(1.00713 -0.623238 -3.3945e-21)
(0.971358 -0.497619 -1.28393e-21)
(0.985547 -0.554615 5.27728e-21)
(0.961149 0.523418 1.83173e-21)
(0.859028 -0.429207 -2.88896e-21)
(0.922504 -0.410075 2.08091e-21)
(0.957699 -0.424074 -2.96646e-21)
(1.02611 0.566203 1.32595e-21)
(1.04556 0.539049 1.96797e-21)
(1.04694 0.566488 9.20466e-22)
(0.862943 -0.374183 0)
(0.915201 0.464981 2.17599e-21)
(0.94291 0.513795 5.49183e-22)
(0.926983 0.501733 2.31853e-21)
(0.838329 -0.355445 -8.98763e-23)
(0.891005 -0.392884 0)
(0.860771 -0.470318 -6.64486e-22)
(0.817414 -0.336796 -3.5346e-21)
(0.838783 -0.40968 1.37538e-21)
(0.904756 -0.553054 -2.34213e-21)
(0.883233 -0.517987 0)
(0.943652 -0.589244 5.00798e-23)
(0.925305 -0.576369 9.66858e-22)
(0.971998 -0.593516 -1.89714e-22)
(0.95896 -0.593918 2.41697e-22)
(0.993194 -0.583411 0)
(0.983331 -0.589565 0)
(1.00877 -0.569039 0)
(1.00162 -0.576258 0)
(1.02023 -0.55692 0)
(1.0149 -0.562429 0)
(1.02903 -0.550882 0)
(1.0249 -0.552959 0)
(1.03598 -0.552748 0)
(1.03269 -0.550878 0)
(1.04184 -0.558681 -3.15166e-24)
(1.039 -0.55579 0)
(1.04716 -0.556228 0)
(1.04455 -0.559549 0)
(1.05178 -0.528398 0)
(1.04959 -0.546483 0)
(1.05491 -0.461851 0)
(1.05352 -0.500454 0)
(1.05591 -0.352385 5.62234e-27)
(1.05549 -0.412281 0)
(1.05494 -0.205457 1.16083e-26)
(1.05504 -0.282655 0)
(1.05169 -0.0323059 -1.2377e-22)
(1.05265 -0.120299 0)
(1.04692 0.148301 -3.97772e-22)
(1.04881 0.0589144 -3.34483e-21)
(1.04349 0.315032 7.94516e-22)
(1.04494 0.235067 4.11435e-22)
(1.0435 0.449174 -7.14995e-22)
(1.04265 0.387532 -1.51919e-21)
(1.04415 0.499811 7.26365e-22)
(0.985311 0.556792 -7.49539e-22)
(1.00394 0.562378 0)
(0.95325 0.540524 1.43514e-21)
(0.968874 0.549751 -3.13726e-22)
(0.89462 0.362617 7.10552e-23)
(0.904414 0.418719 0)
(0.880136 0.222994 1.4498e-22)
(0.885921 0.296222 -2.60759e-22)
(0.874882 0.0593836 1.15223e-23)
(0.876147 0.142967 1.71748e-22)
(0.879071 -0.10806 0)
(0.875851 -0.0251348 0)
(0.890815 -0.262304 -7.35838e-25)
(0.884101 -0.187842 0)
(0.907982 -0.388229 -9.05871e-24)
(0.898866 -0.329581 0)
(0.928327 -0.475608 0)
(0.917898 -0.437068 0)
(0.949945 -0.522521 0)
(0.939083 -0.503808 0)
(0.971233 -0.537837 0)
(0.960738 -0.533144 0)
(0.990496 -0.538605 -5.41168e-24)
(0.98122 -0.538886 0)
(1.00654 -0.540322 0)
(0.998944 -0.538704 0)
(1.01944 -0.549525 0)
(1.01333 -0.543905 0)
(1.02994 -0.56632 0)
(1.02495 -0.557047 0)
(1.03825 -0.589425 0)
(1.03439 -0.57719 0)
(1.04372 -0.616022 -6.57515e-24)
(1.04142 -0.602613 0)
(1.04501 -0.63857 0)
(1.045 -0.628526 0)
(1.03991 -0.642083 1.29989e-21)
(1.04343 -0.643861 0)
(1.02701 -0.605313 -2.74629e-23)
(1.03428 -0.630343 -1.35844e-21)
(1.00721 -0.507235 -1.64398e-22)
(1.01814 -0.56491 3.57616e-21)
(0.942578 -0.335564 -4.25845e-21)
(0.982804 -0.342802 0)
(0.995543 -0.432916 -2.91795e-21)
(0.818741 -0.26858 8.28826e-21)
(0.79779 -0.251945 -4.38816e-21)
(0.844078 -0.286937 3.91706e-21)
(0.905843 -0.322707 0)
(0.939344 0.528797 -2.30336e-21)
(0.96988 -0.240467 0)
(0.929024 -0.233613 9.86367e-21)
(1.02836 0.582882 -6.11714e-22)
(1.04731 0.583177 7.93586e-22)
(1.07068 0.538426 2.92079e-21)
(0.802544 -0.172682 0)
(0.780853 -0.157993 -2.28015e-21)
(1.06919 0.56526 0)
(0.87318 -0.306322 0)
(0.799375 -0.318128 2.88457e-21)
(0.762122 -0.144119 2.33833e-21)
(0.779134 -0.235292 -2.38054e-21)
(0.843851 -0.449528 -4.01669e-22)
(0.821193 -0.389487 1.28463e-21)
(0.889133 -0.532181 -1.46294e-21)
(0.866702 -0.496574 2.23225e-22)
(0.930567 -0.571643 -2.91715e-22)
(0.9108 -0.556961 0)
(0.962897 -0.579962 -2.54601e-25)
(0.947881 -0.578442 1.90251e-22)
(0.987746 -0.57339 0)
(0.976095 -0.57786 0)
(1.00684 -0.561592 0)
(0.997935 -0.56766 0)
(1.02174 -0.551122 0)
(1.0147 -0.555897 0)
(1.03406 -0.54614 0)
(1.02815 -0.547746 0)
(1.04486 -0.548599 2.65587e-24)
(1.03959 -0.546484 0)
(1.0551 -0.554714 3.15166e-24)
(1.05 -0.551766 0)
(1.06533 -0.552362 0)
(1.06022 -0.555603 0)
(1.07511 -0.525037 0)
(1.07034 -0.542789 0)
(1.08326 -0.459611 0)
(1.07944 -0.49757 0)
(1.08861 -0.351663 8.26637e-26)
(1.08625 -0.410789 0)
(1.09062 -0.205975 -7.69131e-26)
(1.0899 -0.282785 0)
(1.08914 -0.0342691 -6.85394e-24)
(1.09024 -0.122197 0)
(1.08476 0.14575 -1.36806e-23)
(1.08723 0.055917 0)
(1.07902 0.313672 -8.19277e-22)
(1.0819 0.232553 0)
(1.07414 0.448689 -7.62152e-22)
(1.07589 0.38632 1.56288e-21)
(1.07148 0.499595 -1.05998e-21)
(0.991849 0.574268 1.50333e-22)
(1.00903 0.579702 5.50021e-22)
(0.963599 0.558275 1.95897e-21)
(0.977082 0.567304 2.538e-22)
(0.900553 0.452338 -2.60029e-21)
(0.927726 0.515308 1.79448e-21)
(0.913917 0.488324 -2.83766e-22)
(0.876773 0.352679 7.73326e-25)
(0.888102 0.407371 5.39069e-22)
(0.859868 0.217074 -6.45043e-22)
(0.867066 0.288443 0)
(0.853248 0.059015 -9.78432e-24)
(0.855201 0.139953 0)
(0.856965 -0.103849 0)
(0.853883 -0.0229096 0)
(0.869455 -0.254542 -8.05213e-25)
(0.862237 -0.181745 0)
(0.888444 -0.37804 9.0587e-24)
(0.878291 -0.320464 0)
(0.911545 -0.46413 0)
(0.899628 -0.426108 0)
(0.936636 -0.510723 0)
(0.923969 -0.492058 0)
(0.961716 -0.526647 0)
(0.949316 -0.521532 0)
(0.984675 -0.528846 5.41168e-24)
(0.973579 -0.528334 0)
(1.00421 -0.532244 0)
(0.994887 -0.529802 0)
(1.0206 -0.542784 0)
(1.01273 -0.536554 0)
(1.03482 -0.560575 0)
(1.02793 -0.550824 0)
(1.04729 -0.584746 0)
(1.04128 -0.57194 0)
(1.0576 -0.612937 6.43278e-24)
(1.05278 -0.598635 0)
(1.06447 -0.637958 0)
(1.06159 -0.626578 0)
(1.06558 -0.644791 2.47694e-26)
(1.06591 -0.644904 0)
(1.05908 -0.611691 0)
(1.06333 -0.634704 0)
(1.04483 -0.515628 9.53998e-22)
(1.0529 -0.572445 0)
(1.0247 -0.349523 -7.93415e-21)
(1.0354 -0.44078 5.16036e-22)
(0.95802 -0.129085 -9.42041e-21)
(1.00174 -0.132125 9.46464e-21)
(1.01322 -0.245493 -9.01194e-22)
(0.951541 0.546823 -1.39638e-22)
(0.767074 -0.0597974 0)
(0.748886 -0.0487163 -1.72296e-22)
(0.828794 -0.191736 -3.86275e-21)
(0.891571 -0.223688 -2.1514e-21)
(1.06751 0.581309 -2.18982e-21)
(0.991217 -0.013973 1.46599e-22)
(1.04752 -0.134935 9.25858e-21)
(1.03638 -0.0153264 -1.90185e-20)
(0.789627 -0.0725041 -3.94294e-21)
(0.916484 -0.123699 -4.39633e-21)
(0.947578 -0.0121422 9.11401e-21)
(0.757915 0.0405504 0)
(0.918634 0.501016 -1.6799e-21)
(0.941536 0.533853 -3.36345e-22)
(0.933711 0.519888 -1.65215e-21)
(0.740233 0.0496977 2.99089e-21)
(0.858164 -0.208993 2.06056e-21)
(0.747148 -0.129866 1.25923e-21)
(0.72614 0.0580225 0)
(0.734582 -0.0372761 -4.0116e-21)
(0.78386 -0.297905 5.73183e-22)
(0.763778 -0.217705 -5.79299e-22)
(0.829175 -0.426671 5.11668e-22)
(0.805971 -0.367656 -1.11086e-21)
(0.876203 -0.510063 0)
(0.852859 -0.47389 0)
(0.919604 -0.552334 0)
(0.898664 -0.53581 0)
(0.955281 -0.564847 -4.82534e-24)
(0.938495 -0.561299 0)
(0.983471 -0.561708 0)
(0.970196 -0.564561 0)
(1.00578 -0.552439 0)
(0.995265 -0.557366 0)
(1.02391 -0.543591 0)
(1.01525 -0.547653 0)
(1.03955 -0.53954 0)
(1.03196 -0.540755 0)
(1.05402 -0.542349 -2.65587e-24)
(1.04685 -0.540127 0)
(1.06846 -0.548374 0)
(1.06119 -0.545502 0)
(1.08343 -0.545957 0)
(1.0759 -0.549184 0)
(1.09826 -0.519163 0)
(1.09095 -0.536547 0)
(1.11136 -0.455074 0)
(1.10513 -0.492272 0)
(1.12102 -0.348986 1.58656e-25)
(1.11668 -0.40717 0)
(1.12613 -0.205252 -1.63535e-25)
(1.12416 -0.281182 0)
(1.12624 -0.0356288 6.85344e-24)
(1.12683 -0.122662 0)
(1.12158 0.142789 0)
(1.12442 0.0536716 0)
(1.11374 0.310121 0)
(1.11784 0.229154 0)
(1.10488 0.445732 1.46728e-21)
(1.10884 0.383437 0)
(1.09607 0.53497 -3.20024e-21)
(1.09941 0.496917 6.48796e-22)
(1.08778 0.577005 4.31852e-21)
(1.09158 0.561605 -1.37981e-22)
(1.03049 0.591115 -5.24311e-22)
(1.06545 0.588221 4.75461e-22)
(1.04752 0.590819 0)
(0.998209 0.583999 0)
(1.01357 0.588782 0)
(0.973456 0.568737 -2.60904e-22)
(0.985046 0.577325 9.26362e-22)
(0.954959 0.545953 1.05902e-21)
(0.963293 0.558116 -1.69976e-21)
(0.888761 0.438913 -7.03837e-24)
(0.903547 0.474172 -2.00565e-21)
(0.862431 0.341438 8.17586e-25)
(0.874981 0.394832 0)
(0.843662 0.210675 -1.78179e-23)
(0.851833 0.279544 0)
(0.835552 0.0581424 9.42599e-25)
(0.838136 0.136113 0)
(0.838667 -0.0996493 0)
(0.835789 -0.0211213 0)
(0.851507 -0.246269 -8.513e-25)
(0.844003 -0.17536 0)
(0.871834 -0.366923 0)
(0.860896 -0.310617 0)
(0.897186 -0.45134 0)
(0.884035 -0.414021 0)
(0.925283 -0.497306 0)
(0.911038 -0.478823 0)
(0.95373 -0.513727 0)
(0.939633 -0.508218 0)
(0.979997 -0.517414 0)
(0.96727 -0.516072 0)
(1.00271 -0.522536 -4.53115e-24)
(0.991805 -0.51926 0)
(1.02236 -0.534349 0)
(1.01284 -0.527554 0)
(1.04012 -0.552965 -4.79936e-24)
(1.03141 -0.542835 0)
(1.05663 -0.577896 0)
(1.04852 -0.564692 0)
(1.07172 -0.607222 -6.43278e-24)
(1.0644 -0.592273 0)
(1.08428 -0.634295 0)
(1.07844 -0.621739 0)
(1.0919 -0.644492 1.62423e-25)
(1.08889 -0.642775 0)
(1.09199 -0.614658 0)
(1.09301 -0.636236 0)
(1.08327 -0.520788 4.05786e-23)
(1.08872 -0.576801 0)
(1.06771 -0.354607 -3.33529e-21)
(1.076 -0.445884 -1.49615e-21)
(1.05785 -0.249405 2.83978e-21)
(0.981615 0.104348 9.27144e-21)
(1.02591 0.104516 1.00324e-20)
(1.08314 0.583311 0)
(0.735678 0.14652 -8.58583e-21)
(0.721967 0.149556 2.93605e-21)
(0.81566 -0.0882466 3.7667e-21)
(0.878899 -0.114819 1.05012e-21)
(0.948375 0.532434 -1.43625e-21)
(0.780074 0.0301272 0)
(0.906719 -0.00825711 0)
(0.752781 0.140653 -3.51257e-21)
(0.939248 0.105128 0)
(1.01593 0.220301 0)
(0.973606 0.218545 -9.36603e-21)
(0.736239 0.2377 1.00823e-20)
(1.1082 0.570382 -8.15787e-21)
(1.10059 0.576456 2.25683e-21)
(0.723793 0.237846 -2.10037e-24)
(0.845323 -0.103247 8.9107e-22)
(0.714872 0.0641521 -2.13988e-21)
(0.714085 0.236371 -9.99038e-22)
(0.711984 0.15246 2.1948e-21)
(0.735321 -0.114955 1.20078e-23)
(0.722904 -0.0260472 -5.3072e-22)
(0.771521 -0.277088 -3.3927e-24)
(0.751748 -0.199575 5.07549e-22)
(0.817427 -0.403186 0)
(0.79379 -0.345141 0)
(0.865585 -0.486786 0)
(0.841607 -0.450233 0)
(0.910673 -0.531752 0)
(0.888777 -0.513565 0)
(0.949067 -0.548247 4.26333e-24)
(0.930827 -0.542742 0)
(0.980208 -0.548468 0)
(0.965467 -0.549735 0)
(1.00548 -0.541713 0)
(0.993476 -0.545497 0)
(1.02664 -0.534478 0)
(1.01646 -0.537838 0)
(1.04541 -0.531268 -2.07545e-24)
(1.03623 -0.532152 0)
(1.06332 -0.534229 2.35274e-24)
(1.05438 -0.53201 0)
(1.08173 -0.539917 0)
(1.07241 -0.537246 0)
(1.10117 -0.537233 0)
(1.09134 -0.54054 0)
(1.12078 -0.51088 0)
(1.11106 -0.527927 0)
(1.13858 -0.448216 0)
(1.13005 -0.484584 0)
(1.15238 -0.344375 2.29361e-25)
(1.14609 -0.401369 0)
(1.16056 -0.203398 -2.42326e-25)
(1.15724 -0.27794 0)
(1.16224 -0.0367353 -6.44854e-24)
(1.16225 -0.122331 0)
(1.15745 0.139145 0)
(1.16059 0.0511951 0)
(1.14766 0.304998 0)
(1.15301 0.224594 0)
(1.13514 0.440432 -1.09612e-23)
(1.14148 0.377729 0)
(1.12177 0.529395 -3.59401e-23)
(1.12777 0.49167 0)
(1.11424 0.555725 -1.05164e-21)
(1.06162 0.588659 -4.7199e-22)
(1.09266 0.575411 3.74723e-22)
(1.07716 0.583061 0)
(1.03145 0.592879 0)
(1.04619 0.591921 -4.398e-22)
(1.00378 0.587479 0)
(1.01701 0.591463 0)
(0.982594 0.573592 1.24774e-21)
(0.992412 0.581475 0)
(0.967508 0.552542 1.66514e-21)
(0.974276 0.563883 -9.34004e-22)
(0.962257 0.539903 -2.97358e-22)
(0.911685 0.485578 -1.99506e-22)
(0.943557 0.517859 1.27668e-22)
(0.927824 0.504746 1.39645e-21)
(0.879847 0.424442 7.18599e-25)
(0.895544 0.458922 1.97506e-22)
(0.851468 0.32936 8.33511e-25)
(0.864957 0.381114 0)
(0.831104 0.20343 9.18627e-25)
(0.84006 0.269728 0)
(0.821748 0.0567418 9.59241e-25)
(0.824931 0.131761 0)
(0.824108 -0.0956007 0)
(0.821519 -0.0197258 0)
(0.836972 -0.237683 -8.75377e-25)
(0.829357 -0.168896 0)
(0.858182 -0.355015 -6.84147e-24)
(0.846694 -0.300218 0)
(0.885321 -0.437307 0)
(0.871167 -0.400906 0)
(0.915972 -0.482351 0)
(0.900376 -0.46417 0)
(0.947324 -0.499222 0)
(0.931761 -0.493314 0)
(0.976464 -0.504464 -4.35078e-24)
(0.962314 -0.502257 0)
(1.00201 -0.511304 4.53115e-24)
(0.989681 -0.507212 0)
(1.02465 -0.524273 0)
(1.01361 -0.516984 0)
(1.04575 -0.543517 4.79936e-24)
(1.03533 -0.533118 0)
(1.0661 -0.568899 0)
(1.056 -0.555468 0)
(1.08584 -0.598914 -5.95823e-24)
(1.07608 -0.583558 0)
(1.10405 -0.62754 0)
(1.09525 -0.614048 0)
(1.11839 -0.640865 1.85607e-23)
(1.11191 -0.637361 0)
(1.12551 -0.615719 0)
(1.12306 -0.634807 0)
(1.12298 -0.526338 1.40953e-23)
(1.12552 -0.580304 0)
(1.11108 -0.362225 -1.16423e-21)
(1.11799 -0.453363 -1.04251e-21)
(1.09276 -0.139958 -4.31443e-21)
(1.10231 -0.256141 6.8809e-21)
(1.06987 0.103505 -9.31992e-21)
(1.08179 -0.018408 9.27636e-21)
(1.00677 0.327426 -7.92355e-21)
(1.04748 0.32663 0)
(1.05783 0.2203 0)
(0.728225 0.316859 5.79415e-21)
(0.719342 0.30827 -3.231e-21)
(0.805714 0.018591 -3.90344e-21)
(0.869266 -0.00122923 0)
(1.03623 0.422303 0)
(0.99895 0.422615 8.37441e-21)
(0.773982 0.133869 -1.13439e-22)
(0.899112 0.108313 1.07932e-21)
(0.752167 0.236329 -3.02532e-21)
(0.932706 0.218725 1.40364e-22)
(1.08368 0.56995 -1.18761e-21)
(1.10763 0.565746 -1.05674e-22)
(1.09673 0.559729 0)
(0.740127 0.321391 -2.82297e-21)
(0.966725 0.324722 -5.44887e-22)
(0.738647 0.382571 2.08004e-21)
(0.958547 0.526185 -1.17092e-22)
(0.731525 0.370674 0)
(0.835339 0.00763127 2.22196e-24)
(0.707246 0.23142 -1.20357e-21)
(0.72735 0.357331 0)
(0.714049 0.300079 2.3184e-21)
(0.707136 0.0705706 4.36673e-22)
(0.704625 0.154375 -4.46184e-22)
(0.726663 -0.100707 0)
(0.714567 -0.0157197 0)
(0.762561 -0.256326 3.35653e-24)
(0.742946 -0.181615 0)
(0.808353 -0.379195 2.47547e-24)
(0.784669 -0.322452 0)
(0.857207 -0.462843 0)
(0.832786 -0.42591 0)
(0.903631 -0.510265 0)
(0.880985 -0.490606 0)
(0.94414 -0.530339 -2.98018e-25)
(0.92475 -0.523029 0)
(0.977831 -0.533813 0)
(0.961789 -0.53353 0)
(1.00582 -0.529547 0)
(0.992439 -0.532197 0)
(1.02978 -0.523905 0)
(1.01819 -0.526577 0)
(1.05148 -0.521445 2.07545e-24)
(1.04081 -0.522054 0)
(1.07262 -0.524366 -2.35274e-24)
(1.06202 -0.522258 0)
(1.09467 -0.529467 -2.56143e-24)
(1.08347 -0.527126 0)
(1.11821 -0.526286 0)
(1.10629 -0.52978 0)
(1.14221 -0.500266 0)
(1.13028 -0.517007 0)
(1.16437 -0.439154 0)
(1.15369 -0.474593 0)
(1.18205 -0.337985 2.91468e-25)
(1.17392 -0.393531 0)
(1.19315 -0.20042 -3.11916e-25)
(1.18853 -0.273202 0)
(1.1964 -0.0374753 6.44854e-24)
(1.1958 -0.121218 0)
(1.19163 0.13506 1.21821e-23)
(1.19496 0.0486802 0)
(1.18027 0.298619 0)
(1.18661 0.219213 0)
(1.16473 0.432832 1.0085e-23)
(1.17281 0.370651 0)
(1.14701 0.521182 -5.51019e-22)
(1.1557 0.483532 0)
(1.12823 0.561393 5.82898e-21)
(1.13697 0.547246 1.34492e-21)
(1.11792 0.567211 -1.71202e-21)
(1.05723 0.584344 0)
(1.07044 0.578233 0)
(1.03141 0.590105 0)
(1.04399 0.588335 4.36267e-22)
(1.00834 0.586495 0)
(1.01937 0.589512 0)
(0.990904 0.574502 -5.90976e-22)
(0.998865 0.581418 0)
(0.979053 0.555293 -5.36506e-22)
(0.984303 0.565686 4.90119e-22)
(0.940426 0.502547 2.5064e-21)
(0.9564 0.511516 -1.25141e-21)
(0.972825 0.530603 1.21351e-21)
(0.975317 0.543577 5.48298e-22)
(0.9069 0.46934 -5.00039e-24)
(0.923962 0.488892 -7.69601e-22)
(0.873528 0.408751 1.17303e-23)
(0.890031 0.442852 0)
(0.843742 0.316603 8.32975e-25)
(0.857877 0.366582 0)
(0.822097 0.195553 9.15924e-25)
(0.831681 0.259229 0)
(0.811614 0.054793 7.88303e-24)
(0.815355 0.126806 0)
(0.813137 -0.0918071 0)
(0.810908 -0.0187383 0)
(0.825734 -0.228986 -8.80118e-25)
(0.818169 -0.162518 0)
(0.847436 -0.342562 6.84147e-24)
(0.835598 -0.289492 0)
(0.875938 -0.422303 -5.38102e-24)
(0.860994 -0.387027 0)
(0.908699 -0.466136 0)
(0.891977 -0.448373 0)
(0.942486 -0.483388 0)
(0.925696 -0.477092 0)
(0.974051 -0.490209 4.25578e-25)
(0.958696 -0.487127 0)
(1.00206 -0.498718 0)
(0.988482 -0.493848 0)
(1.02741 -0.5127 0)
(1.01497 -0.504995 0)
(1.05158 -0.532356 0)
(1.03957 -0.521807 0)
(1.07554 -0.557863 0)
(1.06355 -0.544386 0)
(1.09967 -0.588093 5.95823e-24)
(1.08759 -0.572585 0)
(1.12334 -0.617681 0)
(1.11166 -0.603561 0)
(1.14427 -0.633503 -1.78574e-23)
(1.13437 -0.628523 0)
(1.15856 -0.612648 0)
(1.15253 -0.629387 0)
(1.1623 -0.52834 -1.40973e-23)
(1.16191 -0.579808 0)
(1.15437 -0.367529 0)
(1.15972 -0.457155 0)
(1.13725 -0.146781 -5.5957e-22)
(1.14666 -0.262623 5.58656e-22)
(1.1141 0.0968933 1.6986e-21)
(1.12617 -0.025053 -2.20901e-21)
(1.08809 0.32169 -4.2398e-21)
(1.10125 0.213329 4.27098e-21)
(1.02636 0.501448 -7.08587e-21)
(1.0613 0.49577 6.84373e-21)
(1.07357 0.417098 0)
(0.748786 0.41872 3.61478e-21)
(0.74622 0.401643 0)
(0.991256 0.503339 0)
(1.01707 0.56416 6.64604e-21)
(1.04868 0.557514 -6.04321e-21)
(0.798979 0.126459 1.87295e-21)
(0.862007 0.1135 0)
(0.77199 0.233447 5.0891e-21)
(0.893603 0.221707 -1.07035e-21)
(1.07446 0.561608 -1.00839e-21)
(1.08563 0.550896 1.38297e-21)
(0.755025 0.32403 0)
(0.927677 0.325608 0)
(0.748937 0.392469 -2.63721e-21)
(0.961399 0.41974 4.9997e-22)
(0.754171 0.434565 -3.85189e-21)
(0.971527 0.51687 -1.22599e-21)
(0.769494 0.432121 3.67879e-21)
(0.770386 0.452574 5.69001e-23)
(0.984934 0.566605 6.74402e-21)
(1.00893 0.609357 6.14992e-21)
(1.03778 0.601728 -5.586e-21)
(0.794573 0.451251 -1.38745e-21)
(0.771128 0.410623 -1.12542e-21)
(1.12238 0.554011 -3.0785e-21)
(1.10951 0.547714 1.78325e-22)
(0.7973 0.427919 8.69754e-22)
(0.828192 0.11983 9.76043e-22)
(0.726613 0.342961 -1.10502e-21)
(0.74642 0.383286 1.57761e-21)
(0.703831 0.22657 3.75293e-22)
(0.71181 0.290042 -1.43639e-21)
(0.702536 0.0754998 0)
(0.700451 0.153924 0)
(0.721315 -0.0868125 2.42642e-24)
(0.709598 -0.0059781 0)
(0.756421 -0.235651 -2.25271e-24)
(0.737173 -0.164062 0)
(0.801822 -0.355084 -2.47547e-24)
(0.778259 -0.299651 0)
(0.85094 -0.438549 0)
(0.826299 -0.401347 0)
(0.898279 -0.488083 0)
(0.875097 -0.467153 0)
(0.940395 -0.51135 -3.0283e-25)
(0.920113 -0.502394 0)
(0.976239 -0.517918 0)
(0.959076 -0.516148 0)
(1.00665 -0.516066 0)
(0.992035 -0.517612 0)
(1.03319 -0.511966 0)
(1.0203 -0.513977 0)
(1.0576 -0.510161 0)
(1.04555 -0.510553 0)
(1.08168 -0.512869 0)
(1.06957 -0.510968 0)
(1.10704 -0.517163 2.56143e-24)
(1.09414 -0.515264 0)
(1.13424 -0.513292 0)
(1.12044 -0.51706 0)