/*--------------------------------*- C++ -*----------------------------------*\
  =========                 |
  \\      /  F ield         | OpenFOAM: The Open Source CFD Toolbox
   \\    /   O peration     | Website:  https://openfoam.org
    \\  /    A nd           | Version:  10
     \\/     M anipulation  |
\*---------------------------------------------------------------------------*/
FoamFile
{
    format      ascii;
    class       surfaceScalarField;
    location    "33";
    object      phi;
}
// * * * * * * * * * * * * * * * * * * * * * * * * * * * * * * * * * * * * * //

dimensions      [0 3 -1 0 0 0 0];

internalField   nonuniform List<scalar> 
29080
(
0.0906886
-0.145242
-0.0152863
0.06984
0.0509605
0.0397282
0.0108896
0.0269356
-0.0241018
-0.0137234
0.0385852
0.00528535
-0.0329809
0.0354296
-0.00153727
0.00469287
0.0315195
-0.0585104
0.0476278
-0.0206369
-0.0485258
0.0291345
0.0509108
0.0312086
0.00450854
-0.0428948
0.00717765
-0.0289821
0.0654776
-0.0052869
0.010956
-0.103354
-0.0159693
0.0608133
-0.0838252
0.0553251
0.0822572
0.0662878
-0.0174965
-0.107384
0.0377431
0.0652041
0.00443652
0.000801637
0.0349208
-0.0119804
-0.0210489
0.0500305
0.0265062
0.0535056
-0.0882815
0.00826974
0.020019
0.0748211
0.0204148
0.063589
-0.00405417
-0.000539463
-0.00357502
-0.00813331
0.0122478
-0.0160809
-0.0258804
0.0414219
-0.0063985
-0.00888547
-0.000796937
-0.00866046
-0.00131306
-0.00732388
-0.00946989
-0.0696331
0.0073234
0.00297661
0.0593331
-0.0320311
-0.0488199
0.0112178
0.0436743
-0.039647
-0.0360583
0.00646008
-0.00229812
-0.00302867
-0.00113329
0.0028815
0.00357858
-0.00454418
0.00742568
0.00160013
-0.00844243
-0.00154507
0.000116532
-0.0244567
-0.00283491
0.0203812
0.00691042
0.00145401
-0.0190983
-0.00681251
0.0240449
0.00126656
-0.0238574
0.0154758
0.00573412
0.016069
0.0197881
-0.0405454
0.0115744
0.0335683
-0.00459726
0.0246345
-0.0481634
-0.0170166
0.0227443
0.0116226
-0.0097324
0.0243682
0.0099505
0.0237623
0.0341741
0.0701481
0.00141848
-0.0348901
-0.0366764
-0.00451577
0.0660905
0.00857333
-0.0371924
0.0423172
-0.0096405
-0.0262324
-0.00954155
-0.0578437
-0.00769022
0.0182708
0.0472631
-0.0661865
0.0156662
-0.0445288
0.0220166
0.0802103
0.0243088
-0.0391836
-0.0653354
-0.0239012
0.0201053
0.0840061
0.0668568
-0.101221
0.0650999
-0.0307354
-0.0376781
0.0535389
0.050996
0.00132472
0.00276462
-0.00143821
-0.00265113
0.0114992
-0.00104613
-0.00912839
-0.00876034
0.00744729
-0.0160842
-0.0644009
-0.0416356
0.00906843
0.0969681
-0.0299084
0.025647
-0.0601395
0.0575321
-0.0608826
-0.0265579
0.0572331
-0.0413366
0.0741836
-0.00788205
0.082311
-0.0391172
-0.0431938
-0.0582667
0.0470425
0.0935353
-0.0277412
-0.0303171
0.0184112
-0.00482712
0.01852
-0.0414341
0.0116334
-0.0467776
0.0106128
0.00100986
0.0205632
0.0122749
0.0448524
-0.0148101
-0.0279581
0.0436014
0.0139817
-0.0296251
-0.0756366
0.00183283
0.0458457
0.00272879
0.0231703
-0.0407086
0.0212852
-0.0426437
0.00427946
-0.0261756
0.0276303
-0.0342065
6.21693e-05
0.0384238
-0.0268262
0.00191715
0.0407234
-0.0396766
-0.00216951
0.00112273
-0.00115212
-0.000948744
0.0428243
0.0062649
0.0119132
-0.00842587
-0.00975225
0.00235823
0.00532491
-0.00141825
0.00202451
0.0159267
-0.006452
0.0277528
0.000258304
-0.0259866
0.0901309
-0.0137643
-0.101291
0.0249242
-0.0130814
0.0630044
0.0402078
0.0481089
-0.0160586
0.0177113
-0.0497615
0.0472675
0.0152712
-0.0144298
-0.0268159
-0.0478898
0.0471114
0.0275943
-0.0476939
0.0479879
-0.0271099
0.0282811
0.0443173
-0.0453382
-0.0272603
0.0448219
0.0275049
-0.0440456
0.0270267
0.0520688
-0.0532092
-0.0258863
0.0509406
0.0269773
-0.0508911
0.0237804
0.0542091
-0.054102
-0.0238875
0.053541
0.0222927
-0.0520532
0.0269215
0.09239
-0.133076
-0.0817209
0.0847412
-0.010296
-0.0512025
0.00795683
0.0535417
-0.0485284
-0.0152216
0.0534539
0.0102008
-0.0107978
-0.0479314
0.0078323
-0.048834
-0.0520724
0.00557439
0.0515747
-0.00507675
0.00837375
-0.0524893
-0.000678289
-0.019398
0.00195246
0.0181238
-0.011491
0.0108514
-3.86658e-05
0.0011854
-0.0124195
-0.000256894
0.00251473
-0.0207273
-0.0185649
-0.00301966
0.0024863
0.0109283
-0.0275407
0.0207043
0.0403929
-0.0184773
-0.0426199
0.0213236
0.0579053
-0.0585247
0.00271278
0.0590037
-0.00889636
-0.0120292
0.0141131
-0.00307497
0.00503002
-0.0290466
-0.0468821
0.0280389
-0.0438328
-0.0329078
-0.0445707
0.028767
-0.0280291
0.0179504
-0.034
-0.0285212
0.044845
-0.0522912
0.0253967
0.0267299
-0.0339466
0.0287711
-0.0288245
0.0288493
-0.0338771
-0.0289188
0.0504738
-0.0498545
0.02823
0.0269537
-0.0332678
0.0277057
-0.0283149
0.0261972
-0.0324284
-0.0270366
0.049095
-0.0482101
0.0253123
0.0269462
-0.0309539
0.0230257
-0.0245002
0.0189875
-0.0291345
-0.020807
0.0472804
-0.0464003
0.0181074
0.022096
-0.0268169
0.0133189
-0.0156365
0.00680278
-0.0242221
-0.00939756
0.0457025
-0.0453637
0.00646402
0.012621
-0.021747
-7.06906e-05
-0.00240444
-0.0072085
-0.0192397
0.00470124
0.0448406
-0.0447372
-0.00731184
-0.000593817
-0.0168695
-0.0136641
0.0112939
-0.0195443
-0.0147244
0.0173991
0.0448949
-0.0452901
-0.0191491
-0.0135063
-0.0131537
-0.0239106
0.0223399
-0.0272433
-0.01206
0.0261496
0.0458801
-0.0466452
-0.0264782
-0.0233207
-0.0272623
-0.0287812
0.0439835
-0.0296045
-0.0309949
0.0333372
0.0476106
-0.0507734
-0.0264417
-0.0278159
-0.0389635
-0.019797
0.0277655
-0.0246751
-0.0414514
0.0271631
0.0449558
-0.0427344
-0.0268965
-0.0256146
-0.0437809
-0.0240418
0.0263712
-0.025138
-0.0426329
0.02399
0.042783
-0.04524
-0.022681
-0.0239933
0.0260809
-0.026499
-0.0447089
0.0281569
-0.0280319
0.0269134
0.0482298
-0.0265484
0.0465045
0.0272338
-0.0444378
0.049013
-0.047425
0.0253254
-0.0271595
0.0490859
0.0270865
-0.0281398
0.0492102
0.0478698
-0.0484333
-0.0265464
0.0500139
-0.0286925
0.0470609
-0.0458843
0.0269803
-0.0440501
0.0427471
0.0276743
0.0270008
-0.0402567
0.0382938
0.0297283
0.0296535
-0.0334786
0.0488373
0.0286249
0.0381524
-0.0485031
0.0480966
0.0227464
0.0264838
-0.0477012
0.0475335
0.0114616
0.0177945
-0.0479974
0.0485693
-0.00297634
0.00423731
-0.0492084
0.0498618
-0.0162898
-0.0100367
-0.050503
0.0510721
-0.0250692
-0.0214482
-0.0515225
0.0518248
-0.0286173
-0.027487
-0.0519709
0.051979
-0.0288327
-0.0290649
-0.0518867
0.0521163
-0.0282587
-0.0284288
-0.0292247
0.0297047
-0.0275402
0.0478494
0.0480694
0.0456306
-0.0463236
0.0287319
0.0258
0.046293
-0.0489702
0.0280739
0.0266993
0.0497109
-0.0489139
0.027433
0.0276944
0.0479786
-0.0469195
0.0242532
0.0260108
0.0458288
-0.0447803
0.0170589
0.0210054
0.0438997
-0.0432465
0.0058109
0.0117404
0.0432714
-0.043443
-0.00714025
-0.000568929
0.0437848
-0.0443271
-0.0186068
-0.0131645
0.0450507
-0.0459036
-0.0256253
-0.0225971
0.0468285
-0.0460181
-0.0272521
-0.0268909
0.0450268
-0.0467739
-0.0251494
-0.0266059
0.04666
-0.0441922
-0.0251487
-0.0241072
-0.0263739
0.0275773
-0.0272915
0.0489243
0.0263091
0.0503541
0.0286549
-0.0473054
-0.0292337
0.0295586
-0.0443705
0.048433
-0.0486837
-0.0272896
0.0276876
0.0468486
-0.0261032
0.0279408
0.0475962
-0.0468812
-0.0276907
0.0463633
-0.0474566
0.0280736
-0.0459065
0.043529
0.0300517
0.0274576
-0.044157
0.0428533
0.031032
0.0290256
-0.0508321
0.0506686
0.0287883
0.0301736
-0.0505252
0.0504489
0.0228228
0.0266272
-0.0504808
0.0505712
0.0113712
0.0177626
-0.0505005
0.0507335
-0.00320934
0.00430799
-0.0510996
0.0515174
-0.0167076
-0.0104027
-0.0519431
0.0523212
-0.0254473
-0.021874
-0.0526038
0.0527523
-0.0287657
-0.0277696
-0.0527553
0.0526256
-0.028703
-0.0290679
-0.0523846
0.0515945
-0.0274687
-0.0281878
-0.0496457
0.0500745
-0.0269753
-0.0272759
-0.0273017
0.0487187
-0.0500864
0.0265271
0.0498685
0.0493495
-0.0502135
0.0261894
0.0263496
0.0514978
-0.0501166
0.0273507
0.0270843
0.0505383
-0.0498763
0.0274119
0.027121
0.0490721
-0.048116
0.0264768
0.0268903
0.0470401
-0.0458651
0.0230782
0.024935
0.0446983
-0.0436216
0.0159822
0.0198385
0.0427652
-0.0422151
0.00526073
0.010884
0.0419066
-0.0419553
-0.00709155
-0.000877359
0.0423069
-0.0429431
-0.0179706
-0.0128129
0.0438322
-0.0449467
-0.0245108
-0.021708
0.0461645
-0.0470503
-0.0263663
-0.0256731
0.0474445
-0.0473326
-0.0252613
-0.0262117
0.0462152
-0.0438757
-0.0274883
-0.0252246
0.0451996
-0.0449298
-0.02753
-0.02505
-0.0272549
0.0270562
-0.0466824
0.0474213
-0.048132
-0.0265442
-0.0251992
-0.0473891
0.0285874
0.029634
-0.0445132
0.0284075
-0.0457218
-0.026909
0.0268065
0.0476986
-0.027077
0.0268283
-0.0464337
-0.0275982
-0.0476108
-0.0271054
0.047045
0.0516836
-0.0509834
0.0258269
0.0477213
-0.0488575
-0.0261533
0.0475296
-0.0259114
-0.0262046
0.051998
0.0258902
-0.0269756
0.0506396
-0.0302473
0.0297194
-0.0468611
-0.0479187
0.0491941
-0.0485583
0.0290836
-0.0497432
0.0493783
0.0284385
0.0280383
-0.0491481
0.0503168
0.028883
0.0276878
-0.0501854
0.0517563
0.0294611
0.029157
-0.0522807
0.052485
0.028584
0.0296493
-0.0526614
0.0528052
0.0226789
0.0264508
-0.0529079
0.053005
0.0112741
0.0176599
-0.053231
0.0534432
-0.00342163
0.004082
-0.0537439
0.0540641
-0.0170278
-0.0107034
-0.0543351
0.0544869
-0.0255991
-0.022145
-0.0544822
0.0543152
-0.0285987
-0.027765
-0.0540046
0.0535777
-0.0282761
-0.0287573
-0.0530654
0.0524793
-0.0268825
-0.0276755
-0.0514865
0.0501179
-0.0256067
-0.0262831
-0.0260413
-0.0269834
0.0259806
0.0499271
0.0485419
0.0493591
0.0511609
-0.0521427
0.0271712
0.0265271
0.0516644
-0.0510764
0.0267627
0.026606
0.0503839
-0.0495558
0.0265838
0.0264285
0.0485999
-0.0475118
0.0253886
0.0259344
0.0463248
-0.0450676
0.021821
0.023748
0.0438453
-0.0427305
0.0148674
0.0186162
0.041841
-0.041231
0.00465071
0.00999452
0.0409493
-0.0410042
-0.00703658
-0.00115905
0.0413939
-0.0421185
-0.017246
-0.0124232
0.043129
-0.0443747
-0.0232651
-0.0206976
0.0457297
-0.047105
-0.024991
-0.0243181
0.0483863
-0.0482902
-0.0253575
-0.0249303
0.0478826
-0.0497864
-0.0255845
-0.0256321
0.0491075
-0.0497845
-0.0268529
-0.025729
0.0490734
-0.0488944
-0.0267232
-0.0259104
0.0490828
0.0286367
-0.0493687
-0.0283508
-0.0274099
0.0298879
-0.0459937
0.0301821
-0.030277
-0.0467662
-0.0467984
0.0284222
0.0259048
-0.026756
0.0514907
0.025756
0.0521468
0.0279778
-0.0468713
0.0289244
-0.0478984
0.0290812
-0.0465906
-0.0299363
0.0298647
-0.0478268
-0.0256943
0.0461185
-0.0283644
-0.0483078
0.0290524
-0.0298524
-0.0459984
0.046951
-0.0451306
0.0272321
-0.0481241
0.0497515
0.0274561
0.0272491
-0.050434
0.0513525
0.0275201
0.0273558
-0.0513062
0.0522323
0.0279569
0.027734
-0.0527479
0.0532222
0.0289868
0.0286413
-0.0537344
0.0542338
0.0280846
0.0291371
-0.05468
0.0550667
0.0222922
0.0260047
-0.0554012
0.055688
0.0109873
0.0173255
-0.0559215
0.0561583
-0.00365847
0.00384854
-0.0563599
0.056481
-0.0171488
-0.010905
-0.0564777
0.0563266
-0.025448
-0.0221417
-0.0560254
0.0555888
-0.0281621
-0.0274638
-0.055038
0.0543995
-0.0276376
-0.0282065
-0.0537
0.0529518
-0.0261344
-0.026976
-0.0520872
0.0511959
-0.0247154
-0.0254185
-0.0494848
0.047798
-0.0244665
-0.0243302
-0.0468495
0.0460791
-0.024924
-0.0249629
0.0259639
-0.0248904
0.045045
-0.0264841
0.0268129
0.0473699
0.0465247
-0.0269859
0.0273749
0.0495381
0.0483689
0.049978
-0.0526619
0.0251725
0.0532454
0.0526777
-0.0529213
0.0260705
0.0259059
0.0531392
-0.0525549
0.0265869
0.026745
0.0519077
-0.0511678
0.0260227
0.0259589
0.0503352
-0.0493733
0.0256219
0.0255959
0.0482997
-0.0471077
0.0241967
0.0248608
0.0458401
-0.0445279
0.0205089
0.0224804
0.0432684
-0.042125
0.013724
0.0173567
0.0412067
-0.040567
0.00401103
0.00907628
0.0402547
-0.0403111
-0.00698021
-0.00147138
0.040739
-0.041532
-0.016453
-0.0119953
0.0426391
-0.044001
-0.0219032
-0.0195905
0.0454798
-0.0469687
-0.0235021
-0.0228393
0.0483365
-0.0495799
-0.0241142
-0.0235624
0.0507209
-0.0508802
-0.0254252
-0.0244912
0.0505534
-0.0511042
-0.0263022
-0.0260557
0.0502192
-0.050172
-0.0267704
-0.0267954
0.049885
-0.0514921
-0.0267437
-0.0276969
-0.0277877
-0.0233171
0.0445059
0.0298365
-0.0478524
-0.0298767
-0.0467419
0.029982
-0.0477721
-0.0276673
-0.0433296
0.0258662
-0.0289824
-0.0446832
0.0301707
-0.0468966
0.0549116
-0.0547502
0.0250112
-0.024259
0.0548623
0.0243082
-0.0249125
0.0538989
0.0277739
-0.0486235
-0.0244195
0.024453
-0.0509247
0.045395
-0.047504
-0.022815
0.0446353
-0.0225574
-0.0240877
-0.0483479
0.0240594
-0.0256621
-0.041727
0.0425559
-0.0406695
0.022173
-0.0447224
0.0467634
0.025191
0.0236998
-0.0481228
0.0493414
0.0262375
0.0258897
-0.0503531
0.0512997
0.0265735
0.0263441
-0.0521328
0.0528926
0.0271971
0.026901
-0.0536244
0.0543598
0.0282514
0.0279096
-0.055132
0.0558943
0.0273223
0.0283648
-0.0566198
0.0572743
0.0216376
0.0252792
-0.0578344
0.0582708
0.010551
0.0167654
-0.0585907
0.0588161
-0.00388386
0.00352859
-0.0589248
0.0588926
-0.0171167
-0.0110137
-0.0586908
0.0583042
-0.0250614
-0.0219399
-0.0577401
0.0570323
-0.0274542
-0.0268997
-0.0562178
0.0553373
-0.0267571
-0.027392
-0.0544176
0.0534783
-0.025195
-0.0260564
-0.0525228
0.0515309
-0.0237234
-0.024463
-0.0504903
0.0491808
-0.023157
-0.0232896
-0.0232861
-0.0225271
0.0234069
0.0441652
0.0215112
-0.0198926
0.0430167
0.04349
-0.0243459
0.0251293
0.0465865
0.0455857
-0.0256204
0.0261457
0.0490128
0.0478778
-0.0260688
0.0258585
0.0517011
0.0500549
0.0530928
0.0538148
-0.0544982
0.0267538
0.0249705
0.053773
-0.0530133
0.0258273
0.0260198
0.052213
-0.051336
0.0251457
0.0251586
0.0503785
-0.0493071
0.0245506
0.0246384
0.0481439
-0.0468777
0.0229304
0.0236975
0.0455581
-0.0442131
0.0191639
0.0211608
0.0429321
-0.0417711
0.012563
0.0160756
0.0408325
-0.0401682
0.00334678
0.00813761
0.0398507
-0.0399083
-0.00692262
-0.00178894
0.0403623
-0.0412121
-0.0156032
-0.0115413
0.0423984
-0.0438484
-0.0204532
-0.0184042
0.0454047
-0.0469559
-0.0219509
-0.021283
0.0483851
-0.0497027
-0.0227965
-0.0221332
0.0509301
-0.0521506
-0.0242047
-0.0232638
0.0533888
-0.0544421
-0.0252489
-0.0248175
0.0552591
-0.0556616
-0.0263679
-0.0259783
0.0565654
-0.0560627
-0.0272464
-0.026793
0.0563734
-0.0552338
-0.027026
-0.027477
-0.0251123
0.0298365
-0.047707
-0.0292398
-0.0464846
0.0223502
-0.0234001
0.0549489
0.0212322
0.0559803
0.0300716
-0.047673
-0.0273412
-0.0430041
0.029835
-0.0489577
-0.0208194
-0.0389599
0.0191098
-0.0227219
-0.0398245
0.0256663
-0.0498367
0.0219942
-0.0506262
0.042932
-0.0423073
-0.0205173
-0.0187774
0.0186074
-0.0518833
-0.0536325
-0.019247
-0.0191239
0.0199444
0.0421962
0.0421262
-0.0183181
-0.0477512
0.0142691
-0.0162668
-0.0369621
0.0384945
-0.0368388
0.0126134
-0.0408361
0.0431033
0.0199058
0.0167681
-0.0449221
0.0466942
0.023419
0.0218809
-0.0483353
0.0495463
0.0250264
0.0242486
-0.0504827
0.0515811
0.0254752
0.0254077
-0.0525793
0.0535204
0.026256
0.0259028
-0.0544608
0.0554259
0.0272863
0.0269691
-0.0564355
0.0574532
0.0263046
0.0273553
-0.0584413
0.059336
0.0207429
0.0242911
-0.0600971
0.0606856
0.00996249
0.0160043
-0.0611038
0.0613475
-0.00412753
0.00311033
-0.0613996
0.0612264
-0.0169435
-0.0110658
-0.0608057
0.0601501
-0.0244058
-0.0215191
-0.0592999
0.0583197
-0.026474
-0.0260496
-0.0572623
0.0561748
-0.0256696
-0.0263346
-0.0550803
0.0539961
-0.0241108
-0.0249619
-0.0529175
0.0518229
-0.0226288
-0.0233844
-0.0505734
0.0490493
-0.0216329
-0.0220402
-0.0472471
0.0458478
-0.0214157
-0.0214839
-0.019017
-0.0205402
0.0213929
0.0433125
0.0428942
-0.0220028
0.0228179
0.0457715
0.0449758
-0.023542
0.0241006
0.0484541
0.0471536
-0.0238064
0.0234547
0.0520528
0.0503491
0.0531473
-0.0576304
0.0217312
0.0571314
0.0562732
-0.0554381
0.024176
0.022951
0.0562292
-0.0553128
0.0258375
0.0257616
0.0544102
-0.0534932
0.0249103
0.0251172
0.052558
-0.0515597
0.0241473
0.0242234
0.0504969
-0.049337
0.0233907
0.0235756
0.048105
-0.0467873
0.0216127
0.0224655
0.0454367
-0.0440749
0.0178021
0.0198103
0.0427854
-0.0416186
0.0113962
0.0147861
0.0406717
-0.04
0.00267506
0.00719075
0.0396763
-0.0397451
-0.00685381
-0.00211264
0.04023
-0.0411326
-0.0147006
-0.0110564
0.0423821
-0.0438909
-0.0189444
-0.0171547
0.0454849
-0.047054
-0.0203817
-0.019689
0.0484987
-0.0498499
-0.0214454
-0.0206886
0.0511415
-0.0524538
-0.0228924
-0.0219721
0.0537958
-0.0545711
-0.0244736
-0.0234755
0.0553632
-0.0563006
-0.0254305
-0.0251862
0.0566244
-0.0568289
-0.027042
-0.0264692
0.0570271
-0.0557368
-0.0283163
-0.0272788
0.0563628
-0.0584193
-0.021831
-0.0244863
-0.0113352
0.0110217
-0.053319
0.0591954
-0.0571021
-0.0134285
-0.0184708
0.0302788
-0.0479142
-0.0289116
-0.0449143
0.0296326
-0.0474706
-0.0240842
-0.0416418
0.0257292
-0.0490206
-0.0181891
-0.0379022
0.0224729
-0.0503155
-0.00944344
-0.0349219
0.00752658
-0.0108104
-0.0355952
0.0173021
-0.0493209
0.00969865
-0.0505603
0.00522146
-0.0549305
-0.00739306
0.00284684
-0.0509444
0.0435972
-0.045831
-0.0182834
-0.00613608
-0.00772329
-0.0410711
0.0596994
-0.0578515
0.0198833
-0.0164882
0.0171642
0.0415202
-0.0161635
0.0418016
-0.0179341
0.0598133
0.0178202
-0.0190493
0.0582466
0.0553928
-0.0193496
-0.0421793
0.0425032
-0.0172242
-0.0463839
0.00170465
-0.00278516
-0.0338414
0.0351873
-0.0342445
0.000761867
-0.0369421
0.039041
0.0105145
0.00577181
-0.0409777
0.0432219
0.0176617
0.0148313
-0.0448842
0.0465259
0.0217772
0.0202186
-0.047781
0.0492794
0.023528
0.0229936
-0.0506364
0.0518643
0.0242472
0.0240507
-0.0530079
0.054108
0.0251559
0.0247592
-0.0552285
0.0563922
0.0261226
0.0258486
-0.0576165
0.0588616
0.0250595
0.0261309
-0.0600795
0.0611841
0.0196383
0.0230733
-0.0621276
0.0628665
0.00922358
0.0150608
-0.0633818
0.0636558
-0.00440147
0.002595
-0.0636526
0.0633408
-0.0166317
-0.0110626
-0.062717
0.0618241
-0.0235128
-0.0208954
-0.0607278
0.0595139
-0.0252601
-0.0249533
-0.0582461
0.0569767
-0.0244002
-0.0250667
-0.055726
0.0545086
-0.0228933
-0.0237113
-0.0533186
0.052143
-0.0214532
-0.0221945
-0.0509474
0.049561
-0.0202464
-0.0208446
-0.0478373
0.0456277
-0.019206
-0.0197603
-0.0192203
-0.0175932
0.0181924
0.0427133
0.0424652
-0.0190863
0.0199056
0.0449521
0.0440818
-0.0206197
0.0211903
0.0478836
0.0464395
-0.0215931
0.0218058
0.0518401
0.0499462
-0.0207122
0.019411
0.0562501
0.054241
0.0563419
0.0576331
-0.0582424
0.0247854
0.0227326
0.0571611
-0.0560724
0.0247488
0.0246803
0.0550183
-0.0539666
0.0238586
0.024063
0.0529162
-0.0518179
0.0230491
0.023173
0.0506716
-0.0494436
0.0221626
0.0224293
0.0481603
-0.0468075
0.0202599
0.0211823
0.0454389
-0.0440703
0.0164334
0.0184417
0.0427817
-0.0416184
0.0102329
0.0134976
0.0406747
-0.0400078
0.00200814
0.00624701
0.0396937
-0.0397861
-0.00676149
-0.00242667
0.0403125
-0.0412685
-0.0137446
-0.01053
0.0425709
-0.0441101
-0.0174052
-0.0158523
0.0457049
-0.0472552
-0.0188314
-0.0180943
0.0486852
-0.0500457
-0.020085
-0.0192585
0.0513753
-0.0527444
-0.0215234
-0.0206425
0.0541518
-0.0556335
-0.0229918
-0.022068
0.0571921
-0.0579578
-0.0246649
-0.0236277
0.059086
-0.0598161
-0.026312
-0.0253409
0.0604009
-0.06321
-0.0255072
-0.0266939
0.0625256
-0.0608091
-0.0235476
-0.0251706
0.0607223
-0.0591251
-0.0150257
-0.0185576
-0.0111253
0.0279957
-0.0462773
-0.0263147
-0.0426838
0.01519
-0.0167901
0.0598467
0.0143069
0.0606964
0.0597189
-0.0689942
-0.0100743
0.0250937
-0.0468351
-0.0202947
-0.0395362
0.0209894
-0.0475371
-0.0123334
-0.0363791
0.0162231
-0.0492364
-0.00434722
-0.0340332
0.0101865
-0.0498087
0.00370664
-0.033678
-0.00427315
0.00325851
-0.0333933
0.00157037
-0.0492838
-0.0071156
-0.0515521
-0.0188552
-0.0643952
-0.014909
0.0412487
-0.0447029
-0.00856
-0.0344177
0.00929972
0.0350962
-0.0360102
-0.00764602
-0.0347893
0.0356004
-4.92369e-05
-0.00396628
-0.0367513
0.0383249
0.00894092
0.00462098
-0.0403435
0.0422298
0.0157753
0.0128127
-0.0441761
0.0460216
0.0199318
0.0182724
-0.0477524
0.0493388
0.0219416
0.0212627
-0.0507964
0.0521314
0.0229123
0.0225931
-0.053395
0.054629
0.0239219
0.0234956
-0.0558998
0.0572292
0.0247933
0.0245778
-0.058637
0.0600707
0.0236258
0.0247231
-0.0614762
0.0627606
0.0183539
0.0216678
-0.0638662
0.0647328
0.00835698
0.0139551
-0.0653577
0.0656686
-0.00471237
0.00197013
-0.0656254
0.0651932
-0.0161995
-0.0110194
-0.0643849
0.0632734
-0.0224013
-0.0200871
-0.0619526
0.0605316
-0.0238391
-0.0236326
-0.0590844
0.0576673
-0.0229832
-0.0236195
-0.0562965
0.0549821
-0.0215789
-0.0223405
-0.0537129
0.0524776
-0.0202178
-0.0209253
-0.0512443
0.0499872
-0.0189894
-0.0196113
-0.0486805
0.0473346
-0.0178601
-0.0184537
-0.0455775
0.0438765
-0.0165825
-0.0174631
-0.0426751
0.041671
-0.0139049
-0.0160227
0.0125106
-0.0120134
0.0407515
-0.012997
0.0134436
0.0410736
0.0413151
-0.0142932
0.0146503
0.0423562
0.0416157
-0.0154497
0.0161972
0.0442046
0.0432825
-0.0168669
0.0174217
0.0473288
0.0457698
-0.0178424
0.0181032
0.0515794
0.0495256
-0.018187
0.0180783
0.0563588
0.0541572
0.0576302
-0.0612112
0.0133827
0.0621355
0.0610281
-0.0612373
0.0200924
0.0176372
0.0604207
-0.0591942
0.0235589
0.0219159
0.0579639
-0.0567446
0.0235294
0.02345
0.055569
-0.0544094
0.022699
0.0228874
0.0532667
-0.0520911
0.0218734
0.0220303
0.0508825
-0.0496056
0.0208858
0.0212208
0.0482868
-0.0469116
0.0188847
0.0198634
0.0455336
-0.0441648
0.0150646
0.0170637
0.0428837
-0.0417316
0.00908071
0.0122165
0.0408016
-0.0401529
0.00135948
0.005317
0.0398685
-0.0400041
-0.00662594
-0.00271102
0.0405856
-0.0416003
-0.0127299
-0.00994844
0.0429395
-0.0444786
-0.0158661
-0.0145131
0.0460361
-0.047533
-0.0173344
-0.0165368
0.0489224
-0.0502694
-0.0187379
-0.0178692
0.0516084
-0.0529957
-0.0201361
-0.0193035
0.0544249
-0.0559382
-0.0214786
-0.0206388
0.0575415
-0.059286
-0.0229203
-0.0220244
0.0611578
-0.0631615
-0.0243083
-0.0234691
0.0652115
-0.0657111
-0.0250076
-0.0246439
0.0664328
-0.0682353
-0.0217451
-0.024449
0.0669266
-0.0640313
-0.017921
-0.0198663
-0.0154377
-0.0112123
0.0408699
0.0241739
-0.0453575
-0.022295
-0.0406835
0.0114943
-0.0374891
-0.0100153
-0.0361562
0.0132327
0.0206497
-0.0464955
-0.0147103
-0.0371593
0.0156122
-0.0469261
-0.00590227
-0.0348241
0.00810651
-0.0471564
0.00253021
-0.0333049
0.000657857
-0.0488962
0.0094988
-0.0335923
-0.00687222
-0.0495272
-0.0160554
-0.0543519
-0.0104431
-0.0613156
0.00276444
-0.0186055
-0.0562328
0.0143949
-0.0176779
-0.0580325
0.0417841
-0.0431233
-0.0125656
0.0629488
-0.0622456
0.0126795
-0.0102114
0.0638765
0.00928372
0.0409008
-0.010329
-0.0109627
0.0628867
-0.042824
-0.0120679
0.0140569
-0.0394781
0.0392692
-0.0410325
-0.0103045
-0.0372977
0.0362965
-0.00664482
-0.00804391
-0.0357862
0.0361819
-0.000444841
-0.003456
-0.0369832
0.0384393
0.00748485
0.00381964
-0.040276
0.0421958
0.0138555
0.010976
-0.0441333
0.0460027
0.0180623
0.0163349
-0.0477803
0.0494251
0.0202968
0.0194852
-0.0509519
0.0523652
0.0214989
0.0210663
-0.0537203
0.0550585
0.0225837
0.0221405
-0.0564477
0.0579105
0.0233304
0.0231887
-0.0594607
0.0610435
0.022043
0.0231729
-0.0625925
0.0640182
0.0169283
0.0201187
-0.0652589
0.066266
0.00734992
0.0127144
-0.0669917
0.0673511
-0.00507171
0.00124435
-0.0672711
0.0667211
-0.0156495
-0.0109394
-0.0657396
0.0644354
-0.0210971
-0.0191057
-0.0629297
0.0613477
-0.0222571
-0.0221268
-0.0597675
0.0582443
-0.02146
-0.0220393
-0.0567891
0.0554071
-0.0201968
-0.0208853
-0.0540844
0.0528102
-0.0189436
-0.0196027
-0.0515557
0.0502934
-0.017727
-0.0183568
-0.0489986
0.0476729
-0.0165344
-0.0171589
-0.0461229
0.0444669
-0.0149265
-0.0159132
-0.0146792
-0.0381079
0.0160086
-0.0130938
0.0154711
-0.0418554
-0.0430243
-0.011102
-0.00834728
0.00882092
0.0402779
0.00814993
-0.00777705
0.0405279
0.0406725
-0.00923814
0.0097239
0.0405878
0.0408979
-0.00989502
0.0105278
0.0417235
0.0414445
-0.0111712
0.0117911
0.0435847
0.0426391
-0.0123682
0.0128703
0.0468267
0.0451927
-0.0132806
0.0135753
0.0512847
0.0491153
-0.0137341
0.0137482
0.0563446
0.0539984
-0.012952
0.0119182
0.0608804
0.0584264
0.061652
0.0622867
-0.0618789
0.0196847
0.0176783
0.0612963
-0.0599542
0.0222168
0.0213333
0.0586223
-0.0573063
0.0222134
0.022118
0.0560438
-0.054806
0.0214611
0.021625
0.0535965
-0.0523649
0.0206418
0.0208208
0.0511125
-0.0498023
0.0195755
0.0199684
0.0484603
-0.0470722
0.0174966
0.0185215
0.0456909
-0.0443272
0.013701
0.0156824
0.0430588
-0.0419257
0.00794756
0.0109481
0.0410219
-0.0404104
0.000747944
0.00441323
0.0401784
-0.0403815
-0.00642283
-0.00294303
0.0410354
-0.0421066
-0.0116586
-0.00929452
0.0434615
-0.0449655
-0.0143621
-0.0131582
0.0464516
-0.0478718
-0.0159143
-0.0150507
0.0492079
-0.0505311
-0.0174147
-0.0165331
0.0518634
-0.0532455
-0.0187539
-0.0179713
0.0546655
-0.0561649
-0.0199792
-0.0192189
0.0577502
-0.0594761
-0.0211944
-0.0204391
0.0613384
-0.0633713
-0.0222755
-0.0216067
0.065516
-0.067714
-0.0228096
-0.0224991
0.0697844
-0.0699391
-0.0215905
-0.0223786
0.0702521
-0.070439
-0.0177341
-0.0195533
0.0705765
-0.0717797
-0.0088712
-0.0153001
0.0676242
-0.0652238
0.0119944
-0.001391
-0.0494723
-0.0387213
0.0229698
0.00845911
-0.00874282
-0.0491886
-0.0508814
0.0206191
0.0187567
-0.0434645
-0.0167489
-0.0386448
0.00541771
-0.00709154
0.0645605
0.00550208
0.0637921
0.0137008
-0.044584
-0.00788826
-0.0351733
0.00726055
-0.0460802
0.00106698
-0.0333608
-2.82954e-05
-0.0464703
0.00920286
-0.0330089
-0.00872456
-0.0470439
0.0145547
-0.0349144
-0.0156157
-0.0499669
-0.0205121
-0.0524453
-0.0222903
-0.0516204
-0.0208779
-0.0458975
-0.0402509
0.0176141
0.0144486
-0.0448235
-0.0126494
0.016402
-0.0438088
-0.0143849
0.0158969
-0.0463355
0.0415547
-0.0413001
-0.0080317
0.0234193
-0.0260468
-0.046561
-0.00526522
0.00485599
0.0409371
-0.0445506
0.0170885
-0.00478816
0.0410777
-0.0408162
-0.0456363
0.0441217
-0.0111349
-0.0127537
-0.0426417
0.0405572
-0.00822001
-0.00962194
-0.0392045
0.0377538
-0.00519409
-0.00669124
-0.0369128
0.0365132
-4.52327e-05
-0.00261496
-0.037359
0.0387057
0.00613823
0.00297377
-0.0403984
0.0422496
0.0120043
0.00928329
-0.0441642
0.0460379
0.0161887
0.0144203
-0.0478382
0.0495162
0.0186188
0.0176848
-0.0510858
0.0525507
0.020034
0.0194967
-0.0539687
0.0553812
0.0211713
0.0207224
-0.0568583
0.0584188
0.0217699
0.0217115
-0.0600734
0.0617574
0.020359
0.0215183
-0.0634117
0.0649436
0.0153964
0.0184644
-0.0663132
0.0674607
0.00620249
0.0113448
-0.0682947
0.0686923
-0.00546933
0.000410308
-0.0685628
0.0678913
-0.014978
-0.0108099
-0.0667509
0.0652858
-0.019632
-0.0179653
-0.0636384
0.0619431
-0.0205617
-0.0204794
-0.0602761
0.0586888
-0.0198727
-0.0203724
-0.0571866
0.0557697
-0.01878
-0.019383
-0.054421
0.0531302
-0.0176528
-0.018254
-0.0518727
0.0506244
-0.0164788
-0.0170993
-0.0493591
0.0480715
-0.0152467
-0.0158936
-0.0466968
0.0455812
-0.0138109
-0.0145385
-0.0436701
0.0426504
-0.011546
-0.012768
-0.00897869
-0.00514592
0.00501103
0.0404128
0.0403826
-0.00533715
0.005158
0.040767
0.0405718
-0.00554074
0.00595227
0.0413119
0.0410618
-0.00639072
0.00683812
0.0431373
0.0422006
-0.00727889
0.00769136
0.0464142
0.044752
-0.00805793
0.00836333
0.0509793
0.0487487
-0.00858613
0.00871716
0.0562136
0.0537756
-0.0080826
0.0077146
0.0612484
0.059061
0.0622751
-0.0636341
0.00417561
0.0649606
0.0647896
-0.06539
0.0132799
0.0104393
0.0639485
-0.0633166
0.0190527
0.0162368
0.0619462
-0.0605259
0.0207965
0.0199629
0.059128
-0.0577516
0.020837
0.0207202
0.0564359
-0.0551488
0.0201739
0.0203094
0.0538966
-0.0526281
0.0193734
0.0195686
0.0513467
-0.0500142
0.018243
0.0186871
0.0486574
-0.0472621
0.0161013
0.0171646
0.0458816
-0.0445276
0.0123469
0.014302
0.0432782
-0.0421752
0.00684454
0.00969868
0.0413156
-0.0407666
0.000199016
0.00355363
0.0406155
-0.0409109
-0.00612746
-0.0030941
0.0416459
-0.0427594
-0.0105452
-0.00855953
0.0440959
-0.0455242
-0.0129339
-0.0118217
0.0469075
-0.0482336
-0.0145882
-0.0136673
0.0495078
-0.0507975
-0.016125
-0.0152589
0.05211
-0.0534753
-0.0173886
-0.0166587
0.05488
-0.0563652
-0.018494
-0.0178142
0.0579328
-0.0596293
-0.019498
-0.0188715
0.0614464
-0.0634222
-0.0202997
-0.0197896
0.0655224
-0.0677394
-0.0205926
-0.0203989
0.0699368
-0.0719483
-0.019579
-0.0201812
0.0734567
-0.0753011
-0.0158898
-0.0180449
0.0760565
-0.0759211
-0.00900661
-0.0145446
0.0762727
-0.0690346
0.00475639
-0.00103948
0.058857
-0.0532316
0.0149938
0.0127922
0.0299077
-0.0270393
-0.047419
0.0518796
-0.0327858
0.0108139
0.0157364
0.0117225
-0.0414863
-0.00976936
-0.0367637
0.00532243
-0.0426459
-0.000237217
-0.0338691
-0.00200224
-0.0441062
0.00837813
-0.0325361
-0.00962756
-0.0455673
0.014638
-0.0330922
-0.0166501
-0.0460095
0.0174991
-0.0364049
-0.0230889
-0.0473901
-0.0264624
-0.0482732
-0.0271079
-0.0453904
-0.0283284
-0.0436159
-0.0292807
-0.0443196
-0.0287159
0.0497701
-0.0538401
-0.0276673
-0.0484675
0.0501777
-0.0159578
-0.0515619
0.0173421
-0.0425551
0.0187062
0.0175497
-0.0454616
0.0174002
-0.0484645
-0.00219507
0.00212035
0.0410119
0.0417921
-0.0428086
-0.00701516
0.065014
-0.0658726
0.00503416
-0.000645984
0.0642302
0.00142978
-0.00134501
0.0656596
0.0421564
-0.00515242
-0.00285541
0.041738
-0.0388631
-0.0488608
0.047652
-0.0132211
-0.0147418
-0.0464889
0.0452134
-0.00985942
-0.0115905
-0.043937
0.0425336
-0.00681653
-0.00834556
-0.0407747
0.0389713
-0.00339069
-0.00493235
-0.0381037
0.0378191
0.000239331
-0.00174739
-0.0382071
0.0391883
0.00515704
0.00258584
-0.0406242
0.0423262
0.0103023
0.00784738
-0.0441681
0.0460183
0.0143385
0.0125784
-0.0478239
0.0495231
0.0169196
0.0158792
-0.0511247
0.0526296
0.0185291
0.0178952
-0.0540966
0.0555667
0.0197012
0.0192555
-0.0571088
0.0587374
0.0201413
0.0201694
-0.060458
0.0622061
0.0186109
0.0197977
-0.063933
0.0655706
0.0137588
0.0167375
-0.0670823
0.0683688
0.004916
0.0098331
-0.0692992
0.069701
-0.00587112
-0.000520075
-0.0694896
0.068684
-0.0141724
-0.0105985
-0.0673984
0.0658086
-0.0180422
-0.0166797
-0.0640689
0.0623129
-0.0188057
-0.0187398
-0.0606088
0.0590001
-0.018264
-0.0186682
-0.0574865
0.0560647
-0.0173581
-0.0178695
-0.0547155
0.053429
-0.0163663
-0.0169048
-0.0521854
0.0509658
-0.0152592
-0.0158557
-0.0497453
0.0485138
-0.0140152
-0.014673
-0.0472873
0.0459118
-0.0124354
-0.0133121
-0.0444661
0.0431604
-0.0102403
-0.0113223
-0.00862689
-0.00152673
0.00119019
0.0407493
0.0409762
-0.000766038
0.000839622
0.0406934
0.0409959
-0.000953187
0.00111504
0.0411501
0.0409482
-0.00131198
0.00155307
0.0428962
0.0420037
-0.00181963
0.00210052
0.0461333
0.0444854
-0.00239808
0.00268738
0.05069
0.0484511
-0.00295676
0.00319696
0.0559734
0.0535062
-0.003398
0.00355224
0.0610942
0.0588599
-0.0022509
0.00281857
0.0639929
0.0635764
0.0652657
0.0656993
-0.0655115
0.0130921
0.010266
0.0651284
-0.06378
0.0177044
0.0158536
0.0623674
-0.0609134
0.0193425
0.0185503
0.0594875