/*--------------------------------*- C++ -*----------------------------------*\
  =========                 |
  \\      /  F ield         | OpenFOAM: The Open Source CFD Toolbox
   \\    /   O peration     | Website:  https://openfoam.org
    \\  /    A nd           | Version:  10
     \\/     M anipulation  |
\*---------------------------------------------------------------------------*/
FoamFile
{
    format      ascii;
    class       volVectorField;
    location    "13";
    object      U;
}
// * * * * * * * * * * * * * * * * * * * * * * * * * * * * * * * * * * * * * //

dimensions      [0 1 -1 0 0 0 0];

internalField   nonuniform List<vector> 
28942
(
(-0.104014 0.0591801 -3.36927e-20)
(-0.103861 0.0597661 -7.03979e-21)
(0.449295 -0.315539 3.7064e-20)
(1.01582 0.0416776 -9.54062e-20)
(0.99418 0.0516034 3.14605e-20)
(0.299233 0.0118096 0)
(0.366393 0.0351487 -4.17946e-22)
(0.407544 0.00894127 5.56142e-22)
(1.22605 -0.179231 2.76654e-21)
(1.21587 -0.164982 -6.3094e-21)
(-0.0935256 -0.154521 -1.07691e-19)
(-0.0597145 -0.147541 4.9116e-20)
(-0.0903767 -0.120827 0)
(-0.100052 -0.128787 0)
(0.792158 -0.0147827 -1.25734e-23)
(0.787092 -0.0118412 -5.44157e-23)
(0.930302 0.102244 3.12357e-20)
(0.914009 0.0865535 4.99197e-20)
(0.321568 -0.439528 7.77649e-20)
(0.618189 -0.707111 -2.19378e-20)
(0.982241 0.248954 4.21503e-20)
(0.983887 0.232939 0)
(0.0175468 -0.0316159 9.94531e-20)
(-0.0667229 -0.0399733 5.53879e-20)
(0.5827 -0.154294 1.08042e-19)
(0.946306 -0.273461 -9.81986e-20)
(0.190311 -0.447195 4.73472e-19)
(0.197912 -0.372252 -1.83083e-19)
(0.72405 -0.528497 3.44741e-22)
(0.439095 -0.306247 -8.2953e-22)
(0.29843 -0.0192791 0)
(0.390529 -0.0265844 1.07562e-21)
(0.493307 -0.00826352 9.25756e-21)
(0.65784 -0.0184789 2.47768e-22)
(0.434747 0.473811 3.28983e-20)
(0.365185 0.522306 -3.2067e-20)
(0.580313 0.686347 -1.32086e-19)
(0.376322 0.614311 -5.14077e-20)
(0.154823 0.0148092 5.44958e-22)
(0.201234 0.475465 -8.57421e-20)
(0.657969 -0.0596858 0)
(0.856917 -0.0777146 0)
(1.45196 -0.292121 3.89572e-21)
(1.43102 -0.310117 -1.1439e-20)
(1.43529 -0.276611 -9.89455e-21)
(0.56581 0.0123387 -1.94991e-22)
(0.535651 0.0249874 2.89177e-22)
(0.70047 0.0133099 1.72121e-21)
(0.681633 0.0127581 -4.83613e-22)
(0.583967 0.0120175 -3.80792e-21)
(0.486219 0.00518237 2.48954e-21)
(1.17113 -0.0408144 8.36639e-21)
(1.16729 -0.0449653 6.30424e-21)
(1.21986 -0.193671 -1.18296e-22)
(1.20813 -0.179407 -4.55815e-22)
(1.22047 -0.238316 8.91232e-20)
(1.4634 -0.331454 4.92404e-20)
(-0.0774612 -0.0742828 -6.53329e-20)
(-0.0782096 -0.101073 0)
(-0.0702024 -0.072147 2.35845e-20)
(-0.0693703 -0.0580731 5.72744e-20)
(-0.0341254 -0.0285132 -4.58616e-20)
(-0.0350671 -0.0311126 -4.77199e-20)
(1.31105 -0.593591 0)
(1.44008 -0.530522 1.83001e-20)
(1.3416 -0.471724 -7.91228e-21)
(1.28001 -0.464747 0)
(0.930383 -0.235696 -2.8256e-20)
(0.94955 -0.25687 -1.8272e-20)
(-0.061942 0.0419413 1.11935e-19)
(-0.0775226 0.0481783 -3.57184e-20)
(-0.102496 0.0722249 9.01096e-20)
(0.924501 -0.321575 0)
(0.94126 -0.285283 9.72418e-20)
(0.873167 -0.435504 2.50127e-20)
(1.38925 0.355629 3.81727e-20)
(1.41537 0.342652 -4.12342e-20)
(1.40794 0.310718 -2.67778e-20)
(0.138451 -0.0790115 1.71133e-21)
(0.19654 -0.124848 -4.08689e-20)
(0.965404 -0.614024 -6.76605e-21)
(0.704296 -0.486108 1.31148e-20)
(-0.0731874 0.044262 1.93375e-19)
(-0.0780788 0.0464737 -7.44327e-20)
(1.21953 0.60209 -3.35805e-21)
(1.16192 0.572271 -2.15469e-20)
(1.05553 0.664048 1.67864e-20)
(0.903727 0.646692 -5.80055e-20)
(0.860534 0.618138 4.00669e-20)
(0.642299 0.445436 -1.5084e-21)
(0.707877 0.53522 -1.29856e-20)
(0.750011 0.618309 2.05638e-20)
(-0.159789 -0.152473 -1.357e-20)
(-0.129074 -0.158174 -3.54932e-21)
(-0.133125 -0.149576 7.10925e-21)
(-0.147795 -0.15362 -9.42311e-20)
(-0.14755 -0.151006 1.19715e-19)
(0.359543 0.285554 -7.59546e-20)
(0.406426 0.350989 1.65809e-20)
(-0.0237268 0.0228932 0)
(1.00712 0.00413773 0)
(0.965145 0.0530203 -7.42337e-20)
(0.891114 0.135072 5.23258e-20)
(1.08116 0.11758 0)
(1.40704 0.168442 0)
(1.41205 0.167531 0)
(1.42222 0.175337 6.10786e-20)
(1.08056 0.191309 -6.74896e-21)
(1.07667 0.202207 7.19647e-20)
(1.07046 0.180244 3.76825e-20)
(-0.0820947 -0.085603 1.31024e-19)
(-0.0829424 -0.0884901 -1.47012e-19)
(-0.0118753 0.0408968 -6.07876e-20)
(-0.0444364 0.0283923 5.7018e-20)
(-0.102811 0.0426086 1.1235e-19)
(0.16304 0.234283 8.17151e-20)
(0.377966 0.232423 1.99042e-19)
(0.28955 0.448355 1.52523e-20)
(0.128847 0.34791 -4.76555e-19)
(1.2442 0.482552 1.73626e-21)
(1.10814 0.458041 3.63272e-20)
(1.14744 0.444018 -6.25882e-20)
(0.800339 -0.626749 1.006e-20)
(0.542298 -0.3968 -3.21403e-21)
(0.157376 -0.00550728 -2.44082e-19)
(0.145734 -0.0799101 0)
(0.305866 -0.0490088 1.31668e-19)
(0.506786 -0.392024 1.26765e-20)
(0.724149 -0.618027 -2.69665e-20)
(0.669057 0.0151462 -1.92843e-21)
(0.703332 0.0136748 7.22761e-22)
(0.627725 0.0136294 5.84179e-23)
(0.502951 -0.767838 0)
(0.530335 -0.599984 0)
(1.06269 -0.132142 -1.26957e-20)
(1.04897 -0.113332 7.28027e-20)
(1.03258 -0.0809425 0)
(0.821281 -0.734616 0)
(0.822029 -0.678974 -2.90927e-20)
(0.727023 0.719209 8.33096e-20)
(-0.0744391 -0.0783333 8.71675e-20)
(-0.0662278 -0.0682609 -6.45795e-20)
(0.550567 -0.510917 -1.42747e-20)
(1.42546 -0.235937 -5.53571e-20)
(1.41526 -0.246913 9.78236e-21)
(1.44711 -0.271705 -1.49991e-20)
(1.44828 -0.256706 2.00609e-20)
(1.46203 -0.240444 7.12212e-20)
(-0.0648624 -0.0628691 3.04387e-20)
(0.832351 0.696579 1.05239e-19)
(0.963816 0.679644 -3.06127e-20)
(1.03298 0.715162 2.73496e-23)
(0.466413 -0.0130839 -2.70342e-22)
(0.465033 -0.0145096 -2.35374e-21)
(0.510093 -0.0184968 -2.43908e-22)
(0.553944 -0.0170741 6.32391e-22)
(0.78445 0.691349 1.63218e-20)
(0.423877 0.405849 0)
(-0.0137785 -0.0246671 6.04183e-20)
(-0.0261558 0.00670003 -6.67592e-20)
(-0.0853948 0.00422057 5.06107e-20)
(0.419564 0.0748836 -1.3637e-19)
(0.935858 0.249726 -6.58221e-20)
(0.626056 -0.0177995 3.0591e-22)
(1.20705 -0.453377 2.0366e-20)
(1.16906 -0.529501 4.98402e-20)
(0.962893 0.272025 9.81945e-20)
(0.94399 0.308564 7.73783e-21)
(0.925726 0.189436 5.58494e-20)
(0.942606 0.196343 -4.03443e-20)
(0.98719 0.274252 0)
(1.15518 0.0599504 -2.71296e-22)
(1.16163 0.05852 -1.63063e-21)
(1.17431 -0.125732 1.32485e-21)
(1.18602 -0.130585 -3.0889e-21)
(1.09318 0.182215 7.48554e-21)
(1.10574 0.191922 -2.0891e-20)
(1.09306 0.192697 0)
(1.08075 0.181116 4.90531e-21)
(1.09043 0.203109 0)
(1.09242 0.25718 -1.88163e-20)
(1.08546 0.269997 -1.09204e-20)
(1.06189 0.291919 -2.10718e-20)
(1.07518 0.281843 0)
(1.09402 0.303613 6.52388e-20)
(1.07704 0.316417 2.83512e-21)
(1.04506 0.307175 -1.26799e-20)
(0.99146 0.359393 -5.63844e-20)
(0.99186 0.301047 -9.88774e-21)
(-0.0496607 0.0483158 2.86516e-20)
(0.0336309 0.0527958 -1.14567e-20)
(-0.0987803 0.0509796 -8.27414e-20)
(0.606168 0.0119161 1.95976e-21)
(0.736739 0.013112 0)
(-0.0114605 0.00407487 6.39818e-20)
(-0.0132037 0.00780815 3.24074e-20)
(0.690165 0.0138521 1.55808e-22)
(0.776427 0.0136497 2.27902e-23)
(0.770221 0.0141617 0)
(0.677236 0.0162987 -6.32862e-23)
(0.82964 0.180606 -1.11569e-21)
(0.777135 0.163873 7.32332e-21)
(0.827873 0.182634 2.69434e-21)
(-0.0806518 -0.0845298 5.62126e-20)
(-0.0316271 -0.0305275 -7.21422e-20)
(-0.0364503 -0.0349529 6.89741e-20)
(-0.0561079 -0.0397937 0)
(-0.025115 -0.0159259 9.73143e-20)
(-0.0246651 -0.0177971 -8.46377e-20)
(-0.0654726 -0.0156403 -8.71268e-20)
(-0.0894418 -0.0366711 -8.81673e-20)
(-0.052731 -0.0242034 0)
(0.0551219 0.225044 0)
(0.0250515 0.134563 0)
(0.00953929 0.0761626 0)
(1.3993 0.159132 -8.95038e-21)
(1.38786 0.146352 0)
(1.40392 0.15419 9.99718e-21)
(0.922904 -0.0991819 1.99434e-19)
(0.936687 -0.106213 -7.24083e-20)
(0.933601 -0.0874671 0)
(0.889425 0.138203 -2.56036e-22)
(0.89067 0.131937 5.10759e-22)
(0.888849 0.144347 -1.77816e-22)
(0.890611 0.125471 0)
(0.891055 0.118869 -3.15745e-22)
(0.891936 0.112122 0)
(0.858629 0.111502 0)
(0.890985 0.105247 1.07475e-21)
(0.860564 0.104329 0)
(0.855597 0.118122 -3.0885e-22)
(0.853316 0.124654 0)
(0.850833 0.130738 1.6738e-22)
(0.847497 0.136492 -2.55209e-22)
(0.844361 0.141854 1.77587e-22)
(0.889801 0.0981999 -1.02839e-21)
(0.863122 0.0967313 -3.38166e-23)
(0.88682 0.150245 2.29929e-25)
(0.841058 0.146919 -2.7793e-22)
(0.883607 0.155958 1.49958e-21)
(0.889808 0.0910662 9.32008e-25)
(0.867227 0.0888 -3.15868e-23)
(0.835832 0.151546 5.55267e-22)
(0.890391 0.0836425 8.86056e-22)
(0.891696 0.0759664 -8.85295e-22)
(0.871934 0.0805664 6.5897e-23)
(0.877355 0.0720335 1.21517e-22)
(0.881904 0.161482 -1.45896e-21)
(0.829852 0.15556 -3.67388e-22)
(0.893689 0.0680455 0)
(0.883498 0.0632256 -1.19819e-22)
(0.875209 0.166274 1.8381e-25)
(0.823007 0.158917 -1.84359e-25)
(0.896496 0.0599267 0)
(0.890344 0.054239 0)
(0.868842 0.170621 0)
(0.814663 0.161617 0)
(0.900087 0.0516296 0)
(0.897881 0.0451065 5.18002e-23)
(0.860169 0.17417 -7.74004e-22)
(0.804806 0.163388 -1.90684e-25)
(0.904503 0.0432273 2.73167e-24)
(0.906005 0.0359519 -5.53407e-23)
(0.850235 0.176846 7.77677e-22)
(0.793342 0.164178 0)
(0.909642 0.0347631 0)
(0.914671 0.0268082 0)
(0.83841 0.178471 -4.97657e-23)
(0.780178 0.163777 8.65381e-22)
(0.915539 0.0263006 3.20194e-22)
(0.923738 0.0178137 0)
(0.824647 0.1788 -1.43981e-23)
(0.765072 0.16194 -8.1969e-22)
(0.92193 0.0179715 -4.741e-22)
(0.933135 0.00898082 -1.27944e-22)
(0.807109 0.177138 8.04121e-22)
(0.747956 0.158491 0)
(0.929065 0.00966602 1.52948e-22)
(0.942775 0.000410316 8.55939e-23)
(0.789734 0.17435 -4.09672e-22)
(0.728741 0.15324 8.49989e-22)
(0.936195 0.0019225 -5.70531e-22)
(0.952169 -0.00761791 6.42838e-22)
(0.765914 0.168155 3.94888e-22)
(0.706671 0.145595 1.35014e-23)
(0.943594 -0.00569537 0)
(0.961023 -0.0150511 2.86287e-22)
(0.74255 0.160544 -8.28626e-22)
(0.682291 0.135789 1.71107e-21)
(0.951722 -0.0132018 0)
(0.970238 -0.0222603 0)
(0.828406 0.189484 -3.90716e-22)
(0.805939 0.183915 -1.46382e-21)
(0.713822 0.149413 0)
(0.654122 0.122598 -8.93102e-22)
(0.866199 0.193799 -2.44448e-22)
(0.849605 0.192939 4.84906e-23)
(0.893117 0.190778 0)
(0.881066 0.193114 -8.31171e-22)
(0.911767 0.182954 -1.62868e-24)
(0.903344 0.187328 0)
(0.924256 0.171968 0)
(0.919041 0.177747 0)
(0.930909 0.158924 0)
(0.929663 0.165666 0)
(0.933832 0.1453 3.48573e-22)
(0.933257 0.152256 8.98543e-23)
(0.934174 0.131284 -3.31042e-22)
(0.933862 0.138295 -3.49101e-22)
(0.931097 0.117318 5.56616e-22)
(0.932017 0.124344 7.28257e-22)
(0.927929 0.103299 0)
(0.930178 0.110261 0)
(0.923191 0.0894021 -2.2261e-24)
(0.925517 0.0963874 0)
(0.919449 0.0752997 0)
(0.921132 0.0823789 0)
(0.917699 0.0608475 0)
(0.918271 0.0681292 0)
(0.918719 0.0459602 0)
(0.917826 0.0534559 0)
(0.922838 0.0308002 0)
(0.920367 0.0384084 0)
(0.929911 0.0157182 0)
(0.925967 0.0232721 0)
(0.939543 0.000925582 -2.43529e-22)
(0.934345 0.0084758 0)
(0.945157 -0.00625451 -7.75547e-23)
(0.960199 -0.020387 6.85212e-23)
(0.979779 -0.0291489 -6.79492e-23)
(0.976286 -0.0178945 0)
(0.996527 -0.0320673 -2.65927e-22)
(0.986462 -0.0252086 -1.49694e-22)
(0.954307 -0.00151543 4.26065e-23)
(0.96525 -0.00987339 -1.54771e-22)
(0.931509 0.0165701 1.39299e-24)
(0.942817 0.00740748 0)
(0.909135 0.0356055 0)
(0.92019 0.0260222 0)
(0.888065 0.054851 0)
(0.898377 0.0452549 0)
(0.869064 0.0735258 0)
(0.878268 0.0643062 2.19318e-28)
(0.852546 0.0909701 2.07733e-24)
(0.860494 0.0824306 0)
(0.838676 0.106815 0)
(0.845236 0.0991366 0)
(0.826623 0.12054 0)
(0.832213 0.113884 0)
(0.814834 0.132105 0)
(0.820894 0.126653 -1.68189e-22)
(0.802741 0.14148 4.98047e-23)
(0.808371 0.136948 -2.2516e-22)
(0.786637 0.147862 0)
(0.795193 0.145022 -1.90627e-22)
(0.767802 0.151262 0)
(0.777965 0.150024 0)
(0.743581 0.150539 0)
(0.75643 0.151467 0)
(0.713059 0.144506 0)
(0.729153 0.148269 0)
(0.67604 0.131957 -2.19502e-22)
(0.695681 0.139235 0)
(0.631565 0.111327 -9.02891e-22)
(0.655259 0.122934 -2.30881e-22)
(0.605731 0.0968566 9.13025e-22)
(0.779776 0.175706 1.42508e-21)
(0.951347 -0.013245 1.43467e-22)
(1.00638 -0.0384092 -2.47371e-22)
(0.623528 0.106315 0)
(0.578204 0.079773 0)
(0.75129 0.164616 0)
(0.682909 0.135166 0)
(0.888782 0.207971 0)
(0.847341 0.199887 3.09285e-22)
(0.869265 0.20499 3.79262e-22)
(0.920188 0.207625 4.88777e-22)
(0.905854 0.20871 -9.67854e-23)
(0.941667 0.200847 1.53968e-24)
(0.931864 0.204822 0)
(0.956811 0.190051 0)
(0.949959 0.195858 0)
(0.966859 0.176528 0)
(0.96249 0.18351 0)
(0.972595 0.16147 0)
(0.970407 0.169034 0)
(0.974337 0.145685 0)
(0.974372 0.153645 0)
(0.974002 0.129999 -1.37161e-24)
(0.97443 0.137889 3.59013e-22)
(0.969829 0.114863 -1.26013e-24)
(0.971623 0.122336 -6.77649e-22)
(0.964424 0.100239 0)
(0.96741 0.107444 0)
(0.957647 0.0862958 1.11984e-24)
(0.961126 0.0932147 0)
(0.950819 0.0727287 0)
(0.954171 0.079475 0)
(0.945019 0.0593018 0)
(0.947732 0.0660164 0)
(0.941183 0.0457916 0)
(0.942803 0.0525662 0)
(0.939974 0.03216 0)
(0.940209 0.0389929 0)
(0.941668 0.0185572 0)
(0.940409 0.025356 0)
(0.946017 0.00509122 1.68032e-22)
(0.943485 0.0118375 0)
(0.968598 -0.0269814 0)
(0.957785 -0.0196851 1.33714e-22)
(0.952931 -0.00803657 0)
(0.949097 -0.0015097 1.59297e-22)
(1.02776 -0.0420075 2.69166e-22)
(1.03728 -0.0476758 6.36893e-23)
(1.01594 -0.0441143 5.17515e-22)
(0.988899 -0.035339 0)
(1.00736 -0.0289401 0)
(1.01778 -0.0357486 -4.10118e-22)
(0.984181 -0.013391 1.21993e-24)
(0.99565 -0.0213429 1.55728e-22)
(0.958943 0.00427571 -1.39298e-24)
(0.97151 -0.00472436 0)
(0.932806 0.0233895 0)
(0.945883 0.0137064 0)
(0.906632 0.0431823 0)
(0.919655 0.0332555 0)
(0.881319 0.0627857 0)
(0.893817 0.0530612 -2.19317e-28)
(0.857566 0.0813629 -4.05962e-24)
(0.869222 0.0722485 0)
(0.835737 0.0981607 0)
(0.846403 0.0900216 0)
(0.815655 0.112683 8.06097e-23)
(0.825488 0.10571 0)
(0.796786 0.124432 0)
(0.806203 0.118986 -8.02667e-23)
(0.777965 0.133238 1.87857e-22)
(0.787215 0.12915 1.81676e-22)
(0.757349 0.138399 0)
(0.767719 0.136194 0)
(0.734322 0.139755 0)
(0.746294 0.139618 0)
(0.707382 0.136426 0)
(0.721416 0.138728 0)
(0.675698 0.127442 0)
(0.692158 0.132698 0)
(0.639054 0.111813 3.91086e-24)
(0.658029 0.120538 0)
(0.59781 0.0886812 -4.05174e-24)
(0.619055 0.101303 0)
(0.552041 0.0562629 -1.04256e-21)
(0.575163 0.0734976 1.04201e-21)
(0.822486 0.192077 6.1882e-22)
(0.549152 0.0597868 0)
(0.528295 0.0362563 -2.14644e-21)
(0.591549 0.0875547 0)
(0.957217 -0.0141186 0)
(1.04629 -0.0526788 -6.11203e-23)
(0.720582 0.150789 1.66734e-21)
(0.795023 0.181464 5.80324e-22)
(0.519744 0.0371608 4.27433e-22)
(0.505403 0.0142932 2.69057e-21)
(0.650121 0.118324 0)
(0.964601 -0.00480997 6.32921e-22)
(0.966707 -0.0104378 -3.08544e-22)
(1.02426 -0.0489892 -1.22806e-22)
(1.05378 -0.0568526 6.02374e-22)
(0.867892 0.207936 2.00634e-21)
(0.765336 0.167866 -1.18335e-21)
(0.815515 0.184824 -3.69515e-21)
(0.841809 0.197409 -1.08171e-21)
(0.911635 0.220364 6.13114e-22)
(0.891341 0.215568 -1.77689e-21)
(0.944119 0.22305 -6.85622e-22)
(0.929206 0.22275 -4.79024e-22)
(0.968472 0.218645 -1.91596e-22)
(0.957441 0.221667 -1.76534e-22)
(0.985223 0.208882 -1.53968e-24)
(0.977636 0.214298 0)
(0.996625 0.195518 0)
(0.991507 0.202557 0)
(1.00389 0.179876 0)
(1.00073 0.187894 0)
(1.00776 0.163041 0)
(1.00623 0.171527 0)
(1.00881 0.145798 0)
(1.00864 0.154411 0)
(1.00742 0.128734 0)
(1.00837 0.137235 0)
(1.00378 0.112421 2.13642e-26)
(1.00585 0.120499 0)
(0.998332 0.0969672 0)
(1.00127 0.104551 0)
(0.991413 0.0825477 1.11558e-24)
(0.995028 0.0896431 0)
(0.983717 0.0689739 0)
(0.987613 0.0756645 0)
(0.976108 0.0560371 0)
(0.97985 0.0624438 0)
(0.969483 0.0434716 0)
(0.972617 0.0497232 0)
(0.964657 0.0310983 0)
(0.966793 0.0372697 0)
(0.962205 0.0188857 0)
(0.963069 0.0249716 0)
(0.962137 0.00689029 9.01141e-23)
(0.96183 0.012848 -4.55117e-23)
(0.962959 0.000978374 -3.26992e-22)
(0.976533 -0.032787 -6.39818e-23)
(0.96196 -0.0198811 2.76262e-22)
(0.964291 -0.0256155 -2.11761e-22)
(0.997589 -0.0407958 0)
(1.06109 -0.0514276 -1.91812e-22)
(1.07717 -0.0603809 -5.43601e-22)
(1.06963 -0.0562926 4.4142e-22)
(1.04218 -0.0398754 0)
(1.05205 -0.0459836 0)
(1.01949 -0.0256152 -5.10506e-26)
(1.03087 -0.0329895 0)
(0.994007 -0.00899109 0)
(1.00692 -0.0175593 0)
(0.96637 0.00950161 -1.37742e-24)
(0.98038 6.28666e-05 0)
(0.937321 0.0291401 0)
(0.951962 0.0192282 0)
(0.907742 0.0490418 0)
(0.922545 0.0391147 0)
(0.878475 0.0682586 1.98281e-24)
(0.893029 0.0587929 0)
(0.850183 0.0858501 2.10518e-24)
(0.86418 0.0773065 0)
(0.823179 0.101078 0)
(0.836522 0.093798 0)
(0.797273 0.113253 0)
(0.810127 0.107583 0)
(0.771929 0.121911 0)
(0.784563 0.118041 0)
(0.746222 0.126478 0)
(0.759122 0.124682 0)
(0.719222 0.126538 -3.34689e-24)
(0.732947 0.127104 0)
(0.690053 0.121463 0)
(0.704958 0.124683 0)
(0.658207 0.110538 0)
(0.674473 0.116769 0)
(0.623779 0.0930913 1.34522e-25)
(0.641287 0.102665 0)
(0.587609 0.0686543 -1.87941e-25)
(0.60584 0.0817844 0)
(0.551516 0.0369001 4.51512e-24)
(0.569379 0.053721 0)
(0.518838 -0.00222671 -2.37811e-21)
(0.534289 0.0181333 5.913e-22)
(0.483879 -0.00884907 5.78516e-22)
(0.5055 -0.0234581 1.18819e-21)
(0.687972 0.134278 -6.86006e-22)
(0.557448 0.0654059 -9.18785e-22)
(0.969473 -0.0158235 7.32578e-23)
(1.08393 -0.0638848 4.26481e-22)
(0.730259 0.14974 -1.71781e-23)
(0.490784 0.0125803 0)
(0.773656 0.16333 5.75098e-21)
(0.49459 -0.045347 1.83959e-21)
(0.464338 -0.0329666 2.27993e-21)
(0.866259 0.197392 -5.73247e-21)
(0.865113 0.192059 8.5743e-22)
(0.616164 0.0990469 0)
(0.894931 0.215391 9.40269e-22)
(0.8804 0.207495 4.07688e-22)
(0.934835 0.230048 1.02513e-21)
(0.914119 0.223172 -1.35505e-21)
(0.969742 0.236862 -6.14984e-22)
(0.953943 0.23475 -2.62342e-22)
(0.994296 0.235093 3.33056e-22)
(0.983082 0.236867 3.12387e-22)
(1.01182 0.227144 0)
(1.0039 0.231808 8.22708e-24)
(1.0236 0.214737 0)
(1.01833 0.221405 0)
(1.03108 0.199278 1.42171e-24)
(1.0278 0.207303 0)
(1.03538 0.182005 0)
(1.03358 0.1908 0)
(1.03725 0.163855 0)
(1.03658 0.172989 0)
(1.03717 0.145523 0)
(1.03743 0.154676 0)
(1.03544 0.127521 1.28811e-24)
(1.0365 0.136459 0)
(1.0322 0.110279 3.16747e-26)
(1.03401 0.118791 0)
(1.02751 0.0940359 0)
(1.03003 0.102013 0)
(1.02152 0.0789738 -2.21204e-24)
(1.02467 0.0863583 0)
(1.01449 0.0650534 0)
(1.01811 0.0718755 0)
(1.00696 0.0521527 0)
(1.01076 0.0584886 0)
(0.999579 0.0400475 0)
(1.0032 0.0460164 0)
(0.993109 0.028514 0)
(0.996177 0.0342225 0)
(0.988232 0.0174075 0)
(0.990393 0.0229141 0)
(0.985292 0.00668867 -4.48562e-23)
(0.986395 0.0119929 0)
(0.984414 -0.00363446 0)
(0.984452 0.0014819 -8.55104e-23)
(0.985571 -0.0134797 7.81642e-25)
(0.984728 -0.00863626 0)
(0.966861 -0.0252111 -2.80161e-22)
(0.987172 -0.0181192 1.73759e-23)
(0.972693 -0.0209095 1.37041e-22)
(0.984168 -0.0379645 9.46048e-23)
(0.970855 -0.0310307 -6.59535e-23)
(1.03227 -0.0532788 -3.21248e-23)
(1.00563 -0.0455846 3.03948e-23)
(1.09033 -0.0667736 0)
(1.06132 -0.0604911 -2.77141e-22)
(1.10697 -0.066957 -1.20859e-22)
(1.11743 -0.0718586 -2.29346e-22)
(1.11267 -0.0697392 5.22186e-22)
(1.09395 -0.059717 -6.46152e-23)
(1.10116 -0.0637272 0)
(1.07741 -0.0498462 0)
(1.08631 -0.0551411 0)
(1.05708 -0.0372647 -4.14553e-26)
(1.06768 -0.0438858 0)
(1.0333 -0.022155 0)
(1.04559 -0.0300144 0)
(1.00639 -0.004884 1.37742e-24)
(1.0202 -0.0137593 0)
(0.976922 0.0139216 0)
(0.991937 0.00437227 0)
(0.945634 0.0334297 0)
(0.961458 0.0236437 0)
(0.913375 0.0526694 0)
(0.92958 0.0431445 0)
(0.880959 0.0706156 -9.70825e-26)
(0.897148 0.0618624 0)
(0.849004 0.0863292 0)
(0.864904 0.078804 0)
(0.817825 0.0989566 0)
(0.833317 0.0930702 0)
(0.787397 0.107812 0)
(0.802535 0.103896 0)
(0.757432 0.112292 0)
(0.77238 0.110611 0)
(0.727467 0.111875 3.34689e-24)
(0.742477 0.112717 0)
(0.697146 0.106066 0)
(0.712369 0.109671 0)
(0.666429 0.094397 0)
(0.681824 0.100984 0)
(0.635831 0.0765389 -4.04484e-24)
(0.65106 0.0862471 0)
(0.606597 0.0524557 4.25941e-24)
(0.620938 0.0652627 0)
(0.580806 0.0226081 -4.46409e-24)
(0.593116 0.0381956 0)
(0.561908 -0.0120782 6.13997e-22)
(0.570091 0.00579856 -1.19166e-21)
(0.553758 -0.049865 -6.47787e-22)
(0.556057 -0.0306987 1.25707e-21)
(0.48638 -0.0676369 2.77632e-23)
(0.553703 -0.0691609 1.31233e-21)
(0.651195 0.113733 -6.69036e-22)
(0.524955 0.0419128 0)
(0.693674 0.129577 -4.56872e-21)
(0.463892 -0.0121937 0)
(1.00796 -0.0126047 -7.17454e-23)
(1.00829 -0.0166677 5.29806e-23)
(1.0956 -0.0689943 -2.25256e-22)
(1.1213 -0.073381 -2.50717e-22)
(0.712362 0.136024 -3.17678e-21)
(0.446847 -0.0580205 -2.30226e-21)
(0.818619 0.172444 0)
(0.932235 0.221136 -2.24837e-22)
(0.481704 -0.0899206 -1.23238e-21)
(0.556909 -0.0884809 1.99635e-21)
(0.91244 0.207591 7.47216e-22)
(0.580787 0.0768719 0)
(0.963089 0.237807 0)
(0.948351 0.230729 -4.62688e-22)
(0.995437 0.247529 0)
(0.979574 0.243601 0)
(1.02123 0.249299 0)
(1.00954 0.249435 2.71799e-22)
(1.03856 0.243855 0)
(1.03079 0.247359 0)
(1.04983 0.232978 0)
(1.04484 0.238979 0)
(1.05663 0.218362 0)
(1.05371 0.226051 0)
(1.06019 0.201302 -1.42171e-24)
(1.05875 0.210063 0)
(1.06153 0.182876 0)
(1.06109 0.192203 0)
(1.06134 0.163875 0)
(1.06159 0.173408 0)
(1.06006 0.144875 0)
(1.06082 0.154348 0)
(1.05791 0.126295 -4.6376e-26)
(1.05909 0.135511 0)
(1.05497 0.108469 4.03027e-26)
(1.05655 0.117269 0)
(1.05118 0.0916524 0)
(1.05319 0.0999216 0)
(1.04649 0.0760291 2.8452e-26)
(1.04896 0.0836852 0)
(1.04091 0.0616659 0)
(1.04381 0.0686894 0)
(1.03463 0.0485352 0)
(1.03784 0.054953 0)
(1.02803 0.0365032 0)
(1.03134 0.0423938 0)
(1.02164 0.0253822 0)
(1.02477 0.0308424 0)
(1.01606 0.0149948 0)
(1.0187 0.020109 0)
(1.01185 0.00523859 0)
(1.01369 0.010043 0)
(1.00906 -0.00395826 8.26472e-23)
(1.01016 0.000570245 8.68125e-23)
(1.00828 -0.00836444 -1.53247e-22)
(0.97201 -0.0301056 -1.31416e-22)
(0.989428 -0.0224322 0)
(0.976302 -0.0255799 -1.38652e-22)
(0.991368 -0.0424931 0)
(0.977182 -0.0358156 1.34135e-22)
(1.03914 -0.0567761 1.82538e-22)
(1.01292 -0.0496641 -6.26324e-23)
(1.0675 -0.0633606 -3.54351e-22)
(1.13382 -0.0720838 5.86232e-23)
(1.14084 -0.0754837 2.15323e-22)
(1.13827 -0.074129 0)
(1.12414 -0.0664356 -1.23773e-22)
(1.12975 -0.0695989 1.24187e-22)
(1.11091 -0.0583089 0)
(1.11818 -0.0627053 0)
(1.09403 -0.0475635 -3.2082e-26)
(1.10299 -0.0532658 0)
(1.07341 -0.0342448 0)
(1.08421 -0.0412145 0)
(1.04913 -0.0186176 0)
(1.06172 -0.0266952 0)
(1.0215 -0.00118332 0)
(1.03571 -0.0100871 0)
(0.991069 0.0173234 0)
(1.0066 0.00798806 0)
(0.958574 0.0359803 1.70637e-24)
(0.975036 0.026694 0)
(0.92485 0.0537535 -2.0081e-24)
(0.941821 0.0450399 0)
(0.890696 0.069605 0)
(0.907789 0.0619794 0)
(0.85678 0.0825647 0)
(0.873684 0.0764965 0)
(0.823552 0.091798 0)
(0.840068 0.087692 0)
(0.791274 0.0966161 0)
(0.807293 0.0947872 0)
(0.760078 0.0964663 0)
(0.775538 0.0971828 0)
(0.730167 0.0909395 0)
(0.744949 0.09439 0)
(0.701996 0.0797765 -3.88573e-24)
(0.715827 0.0860655 0)
(0.676464 0.0629532 4.18225e-24)
(0.688831 0.0720564 0)
(0.655013 0.0407892 -4.46754e-24)
(0.665125 0.0524984 0)
(0.639551 0.0140586 0)
(0.646414 0.0279264 0)
(0.632119 -0.0159939 0)
(0.634709 -0.000665064 0)
(0.634945 -0.0480748 5.19712e-24)
(0.631959 -0.0317766 6.39902e-22)
(0.647928 -0.081374 -3.41918e-21)
(0.640016 -0.064658 0)
(0.564557 -0.107709 -1.99123e-21)
(0.658603 -0.0984604 4.08662e-24)
(0.613223 0.0905108 1.78694e-21)
(0.492775 0.0170396 0)
(1.00908 -0.0205775 -2.65565e-22)
(1.14351 -0.076398 -4.19243e-22)
(0.63975 0.0992153 -7.2189e-22)
(0.750713 0.144256 -3.13522e-22)
(0.675589 0.109399 1.16158e-21)
(0.43855 -0.0380741 0)
(0.431752 -0.0825994 5.75373e-22)
(0.866896 0.185148 -1.61672e-22)
(0.817038 0.157999 7.87235e-23)
(0.743332 0.13108 -7.28883e-22)
(0.48051 -0.111933 -1.90626e-21)
(0.574109 -0.126611 1.28451e-21)
(0.672342 -0.115795 1.37276e-21)
(0.544516 0.0520931 0)
(0.997184 0.240302 1.38258e-23)
(0.943387 0.211879 3.49437e-22)
(0.974683 0.227726 3.63371e-23)
(1.02634 0.254979 2.45708e-22)
(1.01348 0.249187 -2.47129e-22)
(1.0499 0.260234 7.62833e-25)
(1.03885 0.258675 0)
(1.06674 0.257834 0)
(1.05923 0.259882 0)
(1.07688 0.249249 0)
(1.07254 0.254226 0)
(1.08216 0.236038 0)
(1.08002 0.243114 0)
(1.08416 0.219768 1.24999e-24)
(1.0835 0.228203 0)
(1.08399 0.201623 0)
(1.08428 0.210867 0)
(1.08254 0.182511 0)
(1.08338 0.192142 0)
(1.0804 0.163083 0)
(1.08153 0.172804 0)
(1.07793 0.143801 0)
(1.0792 0.153402 0)
(1.07528 0.124997 -1.24173e-24)
(1.07662 0.134322 0)
(1.07248 0.106931 4.69043e-26)
(1.07391 0.115856 0)
(1.06944 0.0898216 0)
(1.071 0.0982457 0)
(1.066 0.0738445 2.10029e-24)
(1.06778 0.0816826 0)
(1.06204 0.0591175 0)
(1.06409 0.0663204 0)
(1.05751 0.0456877 0)
(1.05984 0.0522412 0)
(1.05254 0.0335161 0)
(1.05507 0.0394509 0)
(1.0474 0.0224906 0)
(1.04997 0.0278701 0)
(1.0425 0.012465 0)
(1.04489 0.0173642 0)
(1.0383 0.00330597 1.39436e-24)
(1.04029 0.00778732 0)
(1.03517 -0.00505854 -8.30051e-23)
(1.03664 -0.000971223 0)
(1.03306 -0.0127524 7.58335e-23)
(1.034 -0.00898736 0)
(1.03253 -0.0197672 6.76824e-23)
(1.03262 -0.0163454 -7.15869e-23)
(0.991761 -0.0264341 1.31726e-22)
(1.03301 -0.0229606 0)
(1.01045 -0.0242154 1.9926e-22)
(0.977089 -0.0344165 0)
(0.980091 -0.0298461 0)
(0.998129 -0.0464454 0)
(0.983343 -0.0400365 0)
(1.04567 -0.0597292 0)
(1.0198 -0.0531858 0)
(1.10031 -0.0706368 2.29597e-22)
(1.07333 -0.0656744 5.78755e-23)
(1.14555 -0.0768261 5.39934e-23)
(1.12471 -0.0743787 4.41531e-22)
(1.16038 -0.0776657 2.80051e-22)
(1.16224 -0.0780126 5.19641e-23)
(1.16143 -0.0780523 -1.07743e-22)
(1.15653 -0.0755422 5.73786e-23)
(1.15881 -0.0768445 -3.4631e-22)
(1.15016 -0.0713426 -1.63075e-26)
(1.15381 -0.073704 0)
(1.14066 -0.0648719 0)
(1.14583 -0.0683928 0)
(1.12782 -0.0559434 -2.41456e-26)
(1.1347 -0.0607139 0)
(1.11132 -0.0445218 0)
(1.12005 -0.0505365 0)
(1.09102 -0.0307618 0)
(1.10166 -0.0379154 0)
(1.067 -0.0150416 0)
(1.07947 -0.0231142 0)
(1.03959 0.00202498 0)
(1.0537 -0.00663057 0)
(1.00935 0.0196112 -3.33808e-24)
(1.02479 0.0108099 0)
(0.977041 0.0367368 0)
(0.993409 0.028294 0)
(0.943523 0.0523565 0)
(0.960387 0.0447974 0)
(0.909666 0.0654497 0)
(0.926594 0.0592748 0)
(0.87627 0.0751034 0)
(0.892874 0.0707542 0)
(0.844045 0.0805679 -2.89502e-24)
(0.859981 0.0783935 0)
(0.813638 0.0812814 0)
(0.828584 0.0815392 0)
(0.785736 0.076897 0)
(0.799337 0.079734 0)
(0.761184 0.0673059 3.88573e-24)
(0.77299 0.0727436 0)
(0.741076 0.0526844 -2.50109e-26)
(0.750508 0.0605959 0)
(0.726728 0.0335308 8.92278e-24)
(0.733107 0.043626 0)
(0.719472 0.0106544 0)
(0.722153 0.0224959 0)
(0.72014 -0.0150079 0)
(0.718801 -0.00188218 0)
(0.728701 -0.0425827 -2.30659e-26)
(0.723499 -0.0285997 0)
(0.743473 -0.0722367 0)
(0.735433 -0.0571065 0)
(0.765078 -0.104803 -2.00038e-21)
(0.753439 -0.0881371 0)
(0.685361 -0.133396 4.92395e-23)
(0.776636 -0.122516 3.27809e-21)
(0.569953 0.0616925 0)
(0.90573 0.191413 -7.35823e-23)
(0.602684 0.0734793 4.73879e-22)
(1.05676 -0.019475 -6.75649e-23)
(1.05711 -0.022224 0)
(1.14706 -0.0768099 5.15624e-23)
(1.16234 -0.0775862 -1.03999e-22)
(0.461072 -0.0094162 0)
(0.414414 -0.0644155 0)
(0.643915 0.089841 0)
(0.419817 -0.107316 -5.66665e-22)
(0.482858 -0.133422 -1.27122e-21)
(0.586638 -0.145187 0)
(0.698449 -0.151865 3.31387e-21)
(0.786736 -0.141439 -2.64233e-21)
(0.507738 0.0247969 0)
(1.02176 0.234222 1.8039e-26)
(0.867475 0.168434 -3.6762e-22)
(0.964658 0.200106 1.70996e-21)
(0.994293 0.218486 -2.40919e-22)
(1.05989 0.255614 -4.41178e-23)
(1.04245 0.245963 -3.60519e-23)
(1.08248 0.266758 0)
(1.07291 0.262571 0)
(1.09699 0.268159 -7.62827e-25)
(1.09056 0.268522 0)
(1.10543 0.262432 0)
(1.10193 0.266049 0)
(1.10872 0.251366 0)
(1.10762 0.257476 0)
(1.10849 0.236466 0)
(1.10895 0.244299 0)
(1.10614 0.219132 -1.24999e-24)
(1.10751 0.22803 0)
(1.10267 0.200402 0)
(1.1045 0.209889 0)
(1.09878 0.181027 0)
(1.10074 0.190757 0)
(1.09492 0.161539 0)
(1.09682 0.171271 0)
(1.09135 0.142303 0)
(1.09309 0.151872 0)
(1.08817 0.123578 1.13219e-24)
(1.08971 0.132864 0)
(1.08537 0.105565 5.15079e-26)
(1.08673 0.114471 0)
(1.08284 0.0884366 0)
(1.08408 0.0968806 0)
(1.08041 0.0723489 -4.10146e-26)
(1.08162 0.080254 0)
(1.07788 0.0574329 0)
(1.07917 0.0647381 0)
(1.07511 0.0437804 0)
(1.07654 0.0504455 0)
(1.07202 0.0314248 0)
(1.0736 0.0374416 0)
(1.06867 0.0203329 0)
(1.07037 0.0257259 0)
(1.06529 0.01042 0)
(1.06697 0.0152364 0)
(1.06218 0.00157901 -2.75786e-24)
(1.06367 0.00587176 0)
(1.05971 -0.00628536 -1.26704e-24)
(1.0608 -0.00247385 0)
(1.05791 -0.0132714 1.53075e-22)
(1.05866 -0.00988644 -1.54353e-22)
(1.05718 -0.0164741 1.39003e-22)
(0.994597 -0.030022 3.20631e-23)
(1.03427 -0.0258266 7.91754e-24)
(1.01213 -0.0274703 -9.78642e-23)
(0.982195 -0.0382321 0)
(0.984068 -0.0336091 0)
(1.00452 -0.0498679 -9.27963e-28)
(0.989273 -0.0437455 0)
(1.05154 -0.0620916 0)
(1.02615 -0.05614 0)
(1.10413 -0.0717034 1.12217e-22)
(1.07824 -0.067374 -1.16176e-22)
(1.12746 -0.0748694 -5.24192e-24)
(1.17517 -0.0784547 -8.35971e-25)
(1.17447 -0.0780303 -1.0554e-22)
(1.17498 -0.0784311 1.72514e-24)
(1.1741 -0.0773186 -5.80104e-23)
(1.17484 -0.0780934 5.81077e-23)
(1.17093 -0.0743761 -9.71729e-25)
(1.17286 -0.0760838 0)
(1.16527 -0.0693832 -1.00205e-24)
(1.16846 -0.0721474 0)
(1.15665 -0.0621382 -1.79062e-26)
(1.16137 -0.0660475 0)
(1.1447 -0.0525518 0)
(1.15112 -0.0576355 0)
(1.12912 -0.040692 0)
(1.13738 -0.0468935 0)
(1.10981 -0.0268251 0)
(1.11993 -0.033984 0)
(1.0869 -0.0114399 0)
(1.09879 -0.0192835 0)
(1.06078 0.00475781 1.63171e-24)
(1.07422 -0.00339196 0)
(1.03206 0.0208874 1.75567e-24)
(1.04671 0.0128889 0)
(1.00157 0.0359606 0)
(1.01699 0.0286169 0)
(0.970229 0.0489748 0)
(0.985951 0.0427822 0)
(0.939047 0.0590034 0)
(0.954567 0.0544112 0)
(0.909016 0.0652763 2.89502e-24)
(0.923838 0.0626455 0)
(0.88112 0.0672315 -3.10771e-24)
(0.894752 0.0668144 0)
(0.856353 0.0645552 0)
(0.868295 0.0664768 0)
(0.83574 0.0572034 0)
(0.845475 0.0614512 0)
(0.820319 0.045408 -8.69542e-26)
(0.827332 0.0518326 0)
(0.811012 0.0296385 -8.82253e-24)
(0.814869 0.0379803 0)
(0.808362 0.0104935 0)
(0.80886 0.0204478 0)
(0.8122 -0.0115509 0)
(0.809538 -0.000174345 0)
(0.821294 -0.0363654 -1.29475e-25)
(0.816208 -0.0236065 0)
(0.833688 -0.0644136 0)
(0.827229 -0.0499426 0)
(0.848043 -0.0964327 1.31061e-21)
(0.840408 -0.0798817 0)
(0.86221 -0.133737 1.2753e-21)
(0.854862 -0.114451 -2.57389e-21)
(0.700773 0.107378 -5.33664e-22)
(0.780821 0.134685 -2.54164e-22)
(0.796605 -0.161625 -1.2289e-21)
(0.868277 -0.154311 1.22832e-21)
(0.532619 0.0355222 0)