/*--------------------------------*- C++ -*----------------------------------*\
  =========                 |
  \\      /  F ield         | OpenFOAM: The Open Source CFD Toolbox
   \\    /   O peration     | Website:  https://openfoam.org
    \\  /    A nd           | Version:  10
     \\/     M anipulation  |
\*---------------------------------------------------------------------------*/
FoamFile
{
    format      ascii;
    class       volScalarField;
    location    "34.5";
    object      p;
}
// * * * * * * * * * * * * * * * * * * * * * * * * * * * * * * * * * * * * * //

dimensions      [0 2 -2 0 0 0 0];

internalField   nonuniform List<scalar> 
14667
(
0.327043
0.33677
0.000550182
0.00114493
0.00308634
0.221467
0.20858
-0.00140024
0.00590482
0.00614385
0.224427
0.237901
0.319629
0.251939
-0.00232204
0.204749
0.211903
0.0233698
0.0147404
0.214108
0.280931
0.361209
0.297228
0.288821
-0.276818
-0.301482
-0.350777
-0.317409
-0.324462
0.553541
0.517573
0.515778
-0.637181
-0.632506
-0.709924
-0.656935
-0.669206
0.00826347
-0.00190572
0.00842659
0.0176113
0.0270421
0.720886
0.730763
0.821383
0.803789
0.714786
-0.195351
-0.133641
-0.182797
-0.267616
0.637883
0.586642
0.54747
-0.0378221
-0.0729446
-0.473565
-0.405824
-0.563533
-0.537872
-0.316489
-0.34877
0.33589
0.388842
0.480838
0.421599
0.299979
0.27502
0.128146
0.485329
0.472474
0.461901
0.892541
0.844145
-0.0998874
-0.00515387
-0.0293451
-0.0790867
0.487418
0.503047
0.0117337
0.00725977
0.00780843
0.00619718
0.00539298
-0.353361
-0.403616
-0.433887
-0.386715
-0.249385
-0.240653
-0.0814448
-0.0678575
-0.158329
-0.170288
-0.187883
-0.178796
-0.0587412
-0.0687725
-0.0274081
-0.0409752
-0.175426
-0.116689
0.403876
0.444572
0.429501
0.397404
0.376499
0.369791
-0.00722762
-0.0101698
-0.00559395
-0.00487396
-0.00079162
-0.0038014
0.0511962
0.0410518
0.0437618
-0.0047942
-0.00814945
-0.00388704
-0.145232
-0.15436
-0.138229
-0.122701
-0.118913
-0.132564
-0.107991
-0.0973761
-0.0965052
-0.106259
-0.0893711
-0.084529
-0.0846997
-0.0892973
-0.082105
-0.0819956
-0.0826927
-0.0824918
-0.0840633
-0.088541
-0.0907201
-0.0853718
-0.0955037
-0.105032
-0.110424
-0.0989972
-0.116946
-0.130932
-0.143176
-0.125164
-0.146082
-0.161074
-0.186368
-0.1641
-0.177515
-0.193806
-0.224077
-0.206504
-0.206888
-0.213244
-0.238693
-0.236155
-0.21158
-0.201808
-0.221137
-0.233711
-0.201885
-0.184838
-0.170721
-0.184004
-0.164858
-0.154964
-0.161716
-0.179097
-0.180308
-0.195226
-0.165149
-0.187804
-0.179089
-0.187085
-0.189943
-0.164667
-0.178131
-0.135064
-0.150208
-0.107177
-0.120209
-0.0886909
-0.0966428
-0.0801151
-0.0832307
-0.0807176
-0.0792808
-0.0909986
-0.0845916
-0.112478
-0.100309
-0.144847
-0.127242
-0.162544
-0.205113
-0.193705
-0.133608
-0.144896
-0.110155
-0.122506
-0.0905474
-0.0991219
-0.0814107
-0.0847322
-0.0815809
-0.0803944
-0.0911892
-0.0850988
-0.112482
-0.100217
-0.147531
-0.128246
-0.194714
-0.170073
-0.23846
-0.218768
-0.256168
-0.251322
-0.236697
-0.251223
-0.21407
-0.182548
-0.164319
-0.14698
-0.155078
-0.211753
-0.216395
-0.210421
-0.161933
-0.141958
-0.162871
-0.154704
-0.163786
-0.166137
-0.14312
-0.156044
-0.116323
-0.129766
-0.0929119
-0.103643
-0.0789616
-0.0846758
-0.0745772
-0.075637
-0.0789726
-0.0756917
-0.0925098
-0.0845021
-0.116478
-0.103097
-0.14961
-0.131966
-0.186236
-0.168052
-0.201218
-0.19808
-0.144581
-0.137257
-0.142843
-0.119007
-0.128692
-0.0983554
-0.108589
-0.0829688
-0.0897288
-0.0761292
-0.078471
-0.0779786
-0.0759607
-0.0895156
-0.0824064
-0.113307
-0.0997017
-0.151785
-0.130663
-0.202502
-0.176218
-0.249503
-0.228094
-0.267155
-0.263224
-0.244917
-0.261011
-0.192739
-0.220552
-0.139078
-0.139721
-0.164739
-0.12653
-0.143622
-0.13367
-0.208773
-0.119287
-0.118699
-0.215441
-0.124602
-0.213391
-0.218618
-0.122514
-0.142794
-0.110465
-0.128181
-0.0911308
-0.117917
-0.10456
-0.137003
-0.129266
-0.136906
-0.139535
-0.119448
-0.129426
-0.0981368
-0.108799
-0.0800652
-0.0882705
-0.0700685
-0.0739738
-0.0684715
-0.0682623
-0.0747243
-0.0706103
-0.08945
-0.0808946
-0.114415
-0.100509
-0.149137
-0.130717
-0.186687
-0.168286
-0.202271
-0.1811
-0.196766
-0.162702
-0.118347
-0.123082
-0.103199
-0.111378
-0.085877
-0.0943689
-0.0734176
-0.0787356
-0.0688458
-0.0701265
-0.0723376
-0.0695645
-0.0850658
-0.0774003
-0.109944
-0.0957749
-0.150054
-0.127999
-0.203384
-0.175688
-0.253254
-0.230442
-0.272284
-0.268051
-0.247199
-0.264899
-0.192876
-0.222136
-0.137079
-0.163936
-0.0956697
-0.114299
-0.12382
-0.0955945
-0.0791191
-0.137288
-0.117489
-0.115115
-0.101126
-0.10268
-0.0870082
-0.217248
-0.0807304
-0.110802
-0.0693493
-0.0545533
-0.0712718
-0.0618833
-0.0929375
-0.0819226
-0.108613
-0.102219
-0.108862
-0.110751
-0.0962892
-0.103604
-0.0799516
-0.08811
-0.0664889
-0.0725351
-0.0596633
-0.0621656
-0.059974
-0.0589425
-0.0672961
-0.0627201
-0.0827215
-0.0738359
-0.108452
-0.094158
-0.143971
-0.125234
-0.182162
-0.163393
-0.20982
-0.1982
-0.213672
-0.215589
-0.209127
-0.201429
-0.207823
-0.174785
-0.190083
-0.156692
-0.0979323
-0.103734
-0.1022
-0.0984645
-0.102389
-0.0860851
-0.0928231
-0.0722627
-0.0789279
-0.0628525
-0.0667663
-0.0602694
-0.0606882
-0.0649404
-0.0616478
-0.0784337
-0.0704246
-0.103828
-0.0894219
-0.144422
-0.122114
-0.198424
-0.170354
-0.249239
-0.225938
-0.268895
-0.264465
-0.243019
-0.261362
-0.187297
-0.217019
-0.130516
-0.157753
-0.0874232
-0.10695
-0.0716028
-0.205263
-0.106958
-0.0833787
-0.0999398
-0.0495561
-0.0624984
-0.0895743
-0.0791224
-0.0742976
-0.0918155
-0.0759264
-0.0594434
-0.204047
-0.195793
-0.0485406
-0.0962292
-0.0467741
-0.0343645
-0.0396161
-0.0361669
-0.0518017
-0.0447855
-0.0685811
-0.0600262
-0.0813719
-0.0761015
-0.082507
-0.083505
-0.0735258
-0.0789069
-0.0612509
-0.0673551
-0.051581
-0.0558376
-0.0474738
-0.0487543
-0.0495715
-0.0477431
-0.0580338
-0.0529555
-0.0741334
-0.0649739
-0.0999709
-0.0857287
-0.135077
-0.116592
-0.172842
-0.15434
-0.200118
-0.188652
-0.206157
-0.195601
-0.182209
-0.191412
-0.189269
-0.194894
-0.164593
-0.178807
-0.129185
-0.147596
-0.110374
-0.0833095
-0.0823355
-0.0792242
-0.0821716
-0.0694554
-0.0748192
-0.0585811
-0.0637947
-0.0516084
-0.0544026
-0.0506281
-0.0503455
-0.0561497
-0.0525185
-0.0698099
-0.0618012
-0.0947368
-0.0806349
-0.134444
-0.112609
-0.187601
-0.159911
-0.237988
-0.214857
-0.257277
-0.253067
-0.231429
-0.249697
-0.175986
-0.20549
-0.119611
-0.14653
-0.0767326
-0.0962136
-0.0468408
-0.060384
-0.0358284
-0.0938536
-0.0745381
-0.0852679
-0.0688849
-0.088481
-0.0584405
-0.0797215
-0.0345487
-0.046166
-0.0678163
-0.0529633
-0.168753
-0.0358329
-0.0210267
-0.164802
-0.15222
-0.0852336
-0.0367608
-0.0251905
-0.0219799
-0.0227442
-0.0249377
-0.0227408
-0.0334381
-0.0284845
-0.0460638
-0.0395094
-0.0564095
-0.0520419
-0.0580051
-0.0584325
-0.051624
-0.0555234
-0.0427376
-0.0471196
-0.0362719
-0.0390001
-0.0346169
-0.0347724
-0.038408
-0.0358235
-0.047853
-0.0423761
-0.0641411
-0.055005
-0.0892501
-0.0754908
-0.122986
-0.105252
-0.158909
-0.141373
-0.184694
-0.173909
-0.189148
-0.189066
-0.18188
-0.178273
-0.173692
-0.17351
-0.17814
-0.15182
-0.164481
-0.119711
-0.136532
-0.102427
-0.0533391
-0.0611996
-0.0575658
-0.0640979
-0.0634673
-0.060935
-0.0632061
-0.0532718
-0.0574804
-0.0449422
-0.0488861
-0.0401078
-0.0419254
-0.0404017
-0.0395947
-0.0463665
-0.0426093
-0.0596893
-0.0519514
-0.0833893
-0.0700194
-0.120935
-0.100287
-0.1715
-0.14509
-0.220054
-0.197686
-0.238667
-0.234654
-0.213453
-0.231161
-0.159819
-0.188375
-0.105057
-0.13126
-0.0631797
-0.0823114
-0.0334358
-0.0470555
-0.0127831
-0.0219795
-0.0168993
0.000360439
-0.00535856
-0.0843011
-0.0689392
-0.0804575
-0.056935
-0.0732902
-0.0479375
-0.0628535
-0.0296388
-0.0412898
-0.0492578
-0.0331949
0.00353374
-0.0148019
-0.152111
0.00392021
-0.0387011
-0.145396
-0.133359
-0.0356637
-0.049148
0.0208084
-0.136641
-0.0777395
-0.0365127
-0.0242076
-0.0137658
-0.0181297
-0.0099977
-0.011183
-0.0111485
-0.0100117
-0.0166
-0.0133015
-0.0258095
-0.0209215
-0.0339563
-0.0304366
-0.0356996
-0.0357638
-0.0313423
-0.0340522
-0.0252567
-0.0282151
-0.0214366
-0.0228981
-0.0218237
-0.0210473
-0.0269206
-0.0237786
-0.0368927
-0.0312566
-0.0528345
-0.0439924
-0.0766284
-0.0636571
-0.108068
-0.0916001
-0.141336
-0.125097
-0.16551
-0.155331
-0.170449
-0.170796
-0.163791
-0.159006
-0.154115
-0.156093
-0.159669
-0.137835
-0.148597
-0.109886
-0.124674
-0.0785983
-0.0942989
-0.0635157
-0.0442806
-0.0418107
-0.0463714
-0.0458638
-0.0440077
-0.0457502
-0.0380845
-0.041332
-0.0318628
-0.0347599
-0.028725
-0.0297838
-0.0299191
-0.0287641
-0.0359857
-0.0322768
-0.0485288
-0.0413039
-0.0703209
-0.0580623
-0.104651
-0.0857696
-0.15117
-0.126808
-0.196504
-0.175518
-0.214044
-0.210302
-0.189894
-0.206775
-0.139336
-0.166248
-0.087457
-0.112295
-0.0475409
-0.0658831
-0.0186128
-0.0320711
0.00222513
-0.00726441
0.0167643
0.0101786
0.0213257
-0.0782853
-0.0661883
-0.0453789
-0.0329033
0.039719
-0.0758011
-0.058022
-0.070152
-0.0523034
-0.0610193
-0.0484837
-0.0483593
-0.0327049
-0.0460309
-0.0329029
-0.0140234
0.00382358
-0.118873
-0.0734364
-0.0439525
-0.0290648
-0.0124915
-0.0197961
-0.00302203
-0.00700598
0.00106671
-0.000343167
0.00129248
0.00158573
-0.00172603
0.000216768
-0.00790546
-0.00451428
-0.0140844
-0.0113254
-0.0158548
-0.0156579
-0.0130953
-0.014864
-0.00921052
-0.0110545
-0.00742509
-0.00791867
-0.00931875
-0.0078682
-0.0152619
-0.0117826
-0.0253779
-0.0197638
-0.0406334
-0.0322553
-0.0626346
-0.0507176
-0.0911602
-0.0762559
-0.121246
-0.106539
-0.143328
-0.133947
-0.148155
-0.148329
-0.132562
-0.142795
-0.102324
-0.118555
-0.100673
-0.125725
-0.114254
-0.139465
-0.134317
-0.138563
-0.140931
-0.124028
-0.132756
-0.10036
-0.113024
-0.0725715
-0.0867042
-0.0586121
-0.0211719
-0.0251379
-0.0230872
-0.0288302
-0.0271421
-0.0303844
-0.0299663
-0.0285834
-0.0299228
-0.02404
-0.0265155
-0.019532
-0.0215757
-0.0177376
-0.018207
-0.0195225
-0.0181704
-0.0253918
-0.0218822
-0.0368138
-0.0302823
-0.0562146
-0.0453358
-0.0865445
-0.069869
-0.127877
-0.106166
-0.168877
-0.149781
-0.185079
-0.181583
-0.162569
-0.178319
-0.115684
-0.140601
-0.0675521
-0.0906528
-0.0302018
-0.0473931
-0.00270406
-0.0155064
0.0181884
0.00847797
0.0328561
0.0263926
0.0375193
-0.0855729
-0.0754085
-0.06627
-0.040795
-0.0583492
-0.0746299
-0.0618986
-0.0705204
-0.0597526
-0.0625442
-0.0590341
-0.0507081
-0.0589811
-0.0352546
-0.0157218
0.0351359
0.00927767
0.0328821
-0.0845913
-0.0104783
-0.00976127
-0.0696581
-0.0199729
-0.0721524
-0.0554326
-0.0361695
-0.0151432
-0.0246536
-0.00141529
-0.00752549
0.0068768
0.00333423
0.0110644
0.00943398
0.0122828
0.0119644
0.0111913
0.0120499
0.00753759
0.00965287
0.00314684
0.00519865
0.00146875
0.00183194
0.00302268
0.00196361
0.00527806
0.00425389
0.00560603
0.00579842
0.00268338
0.00458604
-0.00375734
-0.000100369
-0.0137556
-0.00828688
-0.0280609
-0.0202847
-0.047952
-0.0372495
-0.0732454
-0.0600661
-0.0997678
-0.0867914
-0.119484
-0.111029
-0.124343
-0.124116
-0.111119
-0.119876
-0.0989023
-0.0762327
-0.0730971
-0.0498838
-0.0837735
-0.055771
-0.0699445
-0.107233
-0.0963781
-0.121195
-0.115628
-0.12233
-0.123423
-0.111473
-0.118231
-0.0918549
-0.102517
-0.0675152
-0.0800252
-0.0426324
-0.0549102
-0.0309021
-0.0127171
-0.0115324
-0.0150597
-0.0139623
-0.0161758
-0.0158815
-0.0147538
-0.015804
-0.0113042
-0.0131608
-0.00816997
-0.00953456
-0.0073747
-0.00742279
-0.00947001
-0.00805109
-0.0149206
-0.0117171
-0.024998
-0.0192761
-0.0417151
-0.0323755
-0.0675839
-0.0533747
-0.10298
-0.0843322
-0.138824
-0.121996
-0.153531
-0.150241
-0.133171
-0.14751
-0.090439
-0.113125
-0.046644
-0.0676998
-0.0122069
-0.0281274
0.0135063
0.00149106
0.0338089
0.024261
0.0479802
0.0418033
0.0541309
0.0521446
0.0565417
0.0543717
0.0610571
0.050381
0.0683088
-0.0759551
-0.069352
-0.0196018
-0.00987849
-0.0771128
-0.0691308
-0.074717
-0.070737
-0.0680074
-0.0733671
-0.0563545
-0.0759744
-0.0404392
-0.0201557
0.00693743
0.032169
-0.0980767
-0.0657796
-0.0937419
-0.083534
-0.0412418
0.0498905
-0.0433246
0.0672302
-0.0303518
-0.0741189
-0.0412254
-0.0543001
-0.0190333
-0.0294266
-0.00260079
-0.0100718
0.0085968
0.0035868
0.0158498
0.012695
0.0199645
0.018236
0.0218872
0.0211459
0.0221817
0.0222449
0.0205692
0.0216249
0.0177997
0.0191831
0.0163543
0.0167799
0.0170531
0.0165028
0.0181489
0.017705
0.017474
0.0181328
0.0138915
0.0160741
0.00723642
0.0109387
-0.00241762
0.00279792
-0.0155835
-0.00849797
-0.0332274
-0.023801
-0.0551632
-0.0437763
-0.0780106
-0.066825
-0.0952471
-0.0877784
-0.100015
-0.0995276
-0.0890293
-0.0963474
-0.0664271
-0.0786669
-0.0534911
-0.0689026
-0.0562979
-0.0908737
-0.0805766
-0.105047
-0.0991986
-0.108258
-0.108074
-0.100785
-0.10576
-0.0848204
-0.0936711
-0.0637236
-0.0746898
-0.041035
-0.0523868
-0.0300305
-0.00100785
-0.000546284
-0.000618682
-0.00146303
-0.000862245
-0.00298425
-0.00224468
-0.00370098
-0.00353717
-0.00251788
-0.00336337
6.93916e-05
-0.00129272
0.00212241
0.00128554
0.00220888
0.00244297
2.438e-05
0.00140935
-0.00485158
-0.0020258
-0.0134697
-0.00861036
-0.0274108
-0.0196563
-0.0486819
-0.0370204
-0.0778109
-0.0624268
-0.10798
-0.0936807
-0.121068
-0.117955
-0.103231
-0.115975
-0.0648584
-0.085255
-0.0254939
-0.0444185
0.00564285
-0.00879616
0.0291466
0.0181279
0.0479895
0.0390818
0.0611271
0.0554531
0.0673591
0.0651257
0.0717205
0.0694098
0.0773989
0.0735796
0.0678667
0.0774922
0.0788693
-0.0802157
-0.0759701
-0.0836573
-0.0802519
-0.0830514
-0.0860066
-0.0771949
-0.0922524
-0.065402
-0.0970943
-0.0474436
-0.0224482
0.00637355
0.0319269
0.0526365
0.0761871
0.0662996
-0.0556195
-0.123727
-0.116878
-0.102566
-0.0326439
-0.0271694
0.00705775
0.00577492
-0.00208514
-0.0178408
-0.0208956
-0.0797675
-0.0391438
-0.0481039
-0.020314
-0.0295388
-0.00418799
-0.0118234
0.00835188
0.00251187
0.0175353
0.0133764
0.0237664
0.0209643
0.0277892
0.0260206
0.030161
0.0291429
0.0313928
0.0309106
0.0313235
0.0315501
0.0299983
0.0307492
0.0289165
0.0293188
0.029076
0.0288731
0.0293599
0.0293201
0.0280254
0.0289818
0.0240932
0.026406
0.0174794
0.0211076
0.00835403
0.0132339
-0.00356885
0.00278534
-0.0189519
-0.0107976
-0.0376143
-0.027964
-0.0569229
-0.0474682
-0.0717217
-0.0652474
-0.0762592
-0.0755985
-0.0672997
-0.0733945
-0.0484607
-0.05871
-0.0375368
-0.0562764
-0.0445944
-0.077131
-0.0672801
-0.09154
-0.0853599
-0.0967198
-0.0953657
-0.0922242
-0.0956362
-0.0794827
-0.086732
-0.0612492
-0.0708611
-0.0405367
-0.0510241
-0.0201754
-0.0301626
-0.0107927
0.00844489
0.00794487
0.00838394
0.0085835
0.00751505
0.00797698
0.00714443
0.00718878
0.00817178
0.00747798
0.0100682
0.0091042
0.0112908
0.0108495
0.0109188
0.0113169
0.00881363
0.010092
0.00459995
0.00701272
-0.00254312
0.00145586
-0.0137871
-0.00756504
-0.0306218
-0.0214224
-0.0535616
-0.0414308
-0.077822
-0.066205
-0.0890743
-0.0862002
-0.0741128
-0.0849163
-0.0402149
-0.0583629
-0.00492338
-0.0219054
0.0229647
0.0100425
0.043953
0.0341251
0.0607352
0.0527929
0.0727636
0.0674874
0.0797036
0.076687
0.0841514
0.0821199
0.086225
0.0855263
0.080943
0.0846356
-0.0886804
-0.0867039
-0.00391702
0.00391325
-0.0946136
-0.095985
-0.0955871
-0.106403
-0.0895916
-0.116282
-0.0758675
-0.122786
-0.0541738
-0.0244633
0.00727851
0.0336908
0.0529673
0.0744971
0.0622983
0.0677623
0.0716402
-0.0286737
-0.0264738
-0.060189
-0.151883
-0.141138
-0.120404
-0.0922956
-0.00973633
-0.0896368
-0.0159884
-0.0218407
-0.00312181
-0.00945777
0.00824338
0.00279609
0.0178516
0.0133111
0.025271
0.0218331
0.0307105
0.0282122
0.034561
0.0328141
0.0371834
0.0359986
0.039003
0.0381765
0.0400091
0.0396357
0.0399131
0.0400864
0.0393571
0.0396189
0.0392038
0.0392274
0.0389256
0.0391635
0.037198
0.0383167
0.033178
0.0354937
0.0268161
0.0302736
0.0183557
0.0228418
0.00771938
0.0133343
-0.00549706
0.00145386
-0.0211432
-0.0130847
-0.0372145
-0.0293425
-0.0497491
-0.0442115
-0.0540059
-0.0532082
-0.0468388
-0.0518459
-0.0311593
-0.0396476
-0.0138474
-0.0224203
0.00078765
-0.00611228
-0.00263831
-0.0237037
-0.0128778
-0.0458059
-0.034819
-0.0658775
-0.0562932
-0.0807513
-0.0741624
-0.0877271
-0.085335
-0.0858383
-0.0878814
-0.0759165
-0.0817681
-0.0601354
-0.0685974
-0.0411481
-0.0508679
-0.0217002
-0.0313177
-0.0125293
0.0110803
0.0146069
0.0130004
0.0164972
0.0157734
0.0169291
0.0168757
0.0165537
0.0167787
0.0164846
0.0164217
0.0173944
0.0168218
0.0187304
0.0180862
0.019339
0.0191789
0.0187121
0.0191812
0.0168037
0.017928
0.0132877
0.0152794
0.00756107
0.0107434
-0.00118853
0.00362381
-0.0139706
-0.00701978
-0.0311588
-0.0220772
-0.0495923
-0.0406853
-0.0587619
-0.0562367
-0.0469027
-0.0556783
-0.0176647
-0.0335309
0.0139336
-0.00135642
0.0391076
0.0274614
0.057799
0.0490937
0.0724221
0.0655332
0.0831497
0.0783447
0.0897852
0.0868646
0.0935181
0.092019
0.093032
0.0939958
0.086711
0.090346
0.0831595
0.00688988
-0.101826
-0.102304
-0.110205
-0.117097
-0.111834
-0.132337
-0.104079
-0.145363
-0.0860229
-0.152715
-0.0585523
-0.0242246
0.00946493
0.0352169
0.0504352
0.058592
0.0641091
0.059906
0.067278
0.0562014
0.0598718
-0.0272238
-0.0595904
-0.0216081
-0.00241191
0.00258979
-0.180431
-0.16355
-0.1345
-0.0985216
0.0103671
0.0176173
0.0151612
0.0155145
0.00866114
-0.104374
-0.00380592
-0.00427404
0.00234815
-0.00137311
0.0105981
0.00641673
0.018602
0.0146576
0.0259219
0.0223899
0.0319844
0.0291265
0.0367195
0.0345078
0.0403302
0.0386512
0.0430611
0.041788
0.0452202
0.0441946
0.0468985
0.0461365
0.0477558
0.0474481
0.0478127
0.0478526
0.04758
0.0477146
0.0469356
0.0473575
0.0450051
0.0461895
0.0410916
0.0433145
0.035145
0.038356
0.0274514
0.0315025
0.0180969
0.0229923
0.00687111
0.0127313
-0.00610455
0.000551253
-0.0193463
-0.0128517
-0.0298836
-0.0251788
-0.0338222
-0.0329452
-0.0281578
-0.0321919
-0.0154168
-0.0223049
-0.00155272
-0.00830076
0.00473382
0.00333939
0.0197219
0.0120123
-0.016261
-0.00615019
-0.0371841
-0.0266982
-0.05694
-0.0473974
-0.0724702
-0.0654208
-0.0811138
-0.0777757
-0.0815652
-0.0823836
-0.0741285
-0.078756
-0.0604581
-0.0679351
-0.0429367
-0.0520148
-0.0242098
-0.03355
-0.00653775
-0.0151466
0.00145752
0.0213215
0.0196325
0.0234869
0.0226269
0.0242517
0.0240316
0.0242574
0.0242951
0.0244449
0.0242755
0.025248
0.0247849
0.0261277
0.0257365
0.0263111
0.0263332
0.0255894
0.0260594
0.02395
0.0248947
0.0211243
0.0227088
0.0167003
0.0191397
0.0101587
0.0137309
0.000897871
0.0058987
-0.0112435
-0.00485658
-0.0242239
-0.0179271
-0.0309702
-0.0290252
-0.0220112
-0.0287798
0.0022063
-0.011178
0.0300959
0.0164298
0.0530258
0.0423835
0.0699103
0.0621072
0.0826029
0.0766937
0.0917271
0.0876307
0.0971706
0.0948779
0.0991283
0.0986121
0.096864
0.0985845
0.089624
0.0938682
0.0793611
0.0842394
0.0741087
-0.120032
-0.123381
0.00561448
0.0123427
-0.130145
-0.144076
-0.130642
-0.163805
-0.118649
-0.178831
-0.0941987
-0.18535
-0.0602879
-0.0217997
0.0120203
0.0347831
0.0465986
0.0524542
0.0513308
0.0517639
0.0477127
0.0545695
0.0429948
0.0464254
-0.0526487
0.011063
-0.0112694
0.027098
0.035458
0.0231162
-0.20519
-0.179528
-0.141623
-0.0978736
0.0265352
0.0232601
0.0295006
-0.124475
0.0159923
0.0202967
0.0135484
0.013922
0.0163556
0.0145446
0.0214451
0.0187675
0.0271609
0.0242701
0.0327837
0.0300275
0.0377347
0.0353641
0.0418367
0.0398898
0.0451783
0.0435935
0.0479157
0.0466118
0.050247
0.0491187
0.0522894
0.051311
0.0537897
0.0531341
0.0544506
0.0542265
0.0543561
0.0544844
0.0535333
0.0540559
0.0515261
0.0527166
0.0478387
0.0499083
0.0424223
0.0453319
0.0355626
0.0391549
0.0274462
0.0316622
0.0179948
0.0228958
0.00730341
0.0127675
-0.00357148
0.0017762
-0.0124437
-0.00843902
-0.0159706
-0.0151154
-0.011536
-0.0147367
-0.00140131
-0.00687197
0.00962044
0.00425584
0.0189376
0.0144815
0.0230149
0.00820323
0.0161556
-0.0101172
-0.000605285
-0.0303412
-0.0201173
-0.0500824
-0.0404566
-0.0664018
-0.0588486
-0.0766783
-0.0724283
-0.0793178
-0.0790011
-0.0741269
-0.0776574
-0.0622987
-0.0689251
-0.0459848
-0.0545466
-0.0277267
-0.0369343
-0.00997949
-0.0186874
-0.00181579
0.0184157
0.0234555
0.0210846
0.0271961
0.0254878
0.0294746
0.0285157
0.0304609
0.0301034
0.0307733
0.0306532
0.0311585
0.0309229
0.0318399
0.031482
0.0323589
0.0321578
0.0322812
0.0324028
0.031582
0.0320047
0.0302482
0.031004
0.0280759
0.029282
0.0248089
0.0265954
0.0201527
0.0226737
0.0138194
0.0172062
0.00585933
0.0100057
-0.00235023
0.00159994
-0.00636749
-0.00530146
0.000513901
-0.00460604
0.0196398
0.00888789
0.0433748
0.0315345
0.063971
0.0543184
0.0793069
0.072254
0.0903579
0.0852988
0.0978116
0.0945238
0.101761
0.100222
0.102134
0.102403
0.0987302
0.100921
0.091212
0.0954772
0.0807779
0.0861388
0.0688935
0.0751548
0.0620826
-0.143205
-0.15026
-0.153326
-0.176562
-0.149975
-0.199516
-0.130999
-0.214439
-0.0985595
-0.217184
-0.0581583
-0.0175568
0.0139844
0.0325069
0.0414003
0.0442964
0.0423563
0.0383084
0.0375912
0.0334006
0.040683
0.027891
0.0321154
0.0459193
0.052035
0.0605699
0.0571439
-0.0394405
0.00360245
0.0366285
-0.22162
-0.185208
-0.138634
-0.0885031
0.0263374
0.0324446
0.0237857
0.0209927
0.0154404
0.0349391
0.0321555
-0.150048
0.0380958
0.0443873
0.0294792
0.0330748
0.0264017
0.0273487
0.0270662
0.0263619
0.030103
0.028372
0.0342143
0.0320898
0.0385384
0.0363867
0.0425817
0.0406151
0.0461345
0.0444225
0.0492025
0.0477245
0.0518738
0.0505814
0.0542645
0.053096
0.0564657
0.0553903
0.0583212
0.0574601
0.0594764
0.0590002
0.0596635
0.059689
0.0588647
0.0593942
0.0568951
0.0580454
0.0534987
0.0553846
0.0486688
0.0512504
0.0426646
0.0457951
0.0357071
0.0393008
0.02779
0.0318738
0.0189794
0.0234714
0.00999565
0.0144311
0.00250438
0.00590673
-0.000528801
0.000225887
0.00293246
0.000422789
0.0107862
0.00655555
0.0192918
0.0151307
0.0265093
0.0230286
0.0296667
0.0121554
0.019672
-0.0053052
0.00381083
-0.0251292
-0.0150406
-0.0450433
-0.0352451
-0.0622975
-0.0541756
-0.0742677
-0.0690882
-0.079049
-0.0776343
-0.0759642
-0.078477
-0.0657744
-0.0716598
-0.0504078
-0.0585875
-0.0323651
-0.0415583
-0.0142872
-0.0231716
0.00196515
-0.00585484
0.00910444
0.0286436
0.0263434
0.0322598
0.0306137
0.0345185
0.0335412
0.0356646
0.0352023
0.0362249
0.0359779
0.0367392
0.0364686
0.0372847
0.0370261
0.0375417
0.0374685
0.0373408
0.0374963
0.0367423
0.0370881
0.0357242
0.0362933
0.0341491
0.0350149
0.0318796
0.0331091
0.0287832
0.0304415
0.0247923
0.0268963
0.0201165
0.0225048
0.015768
0.0177829
0.0144606
0.014485
0.020373
0.0162853
0.0351643
0.0268055
0.0544583
0.044674
0.0722357
0.0637931
0.0858537
0.079587
0.0954198
0.0911044
0.101403
0.0988395
0.104031
0.10313
0.103295
0.104084
0.0991783
0.101661
0.0917232
0.0958255
0.0817592
0.0869852
0.0700963
0.0761419
0.0563262
0.0634581
0.0487661
-0.170327
-0.182305
0.012026
0.0179255
-0.177582
-0.212901
-0.16704
-0.236626
-0.138761
-0.24812
-0.0979254
-0.243472
-0.0526725
-0.012765
0.0142646
0.0280911
0.0344345
0.0352286
0.0321729
0.0277809
0.0226576
0.022976
0.0277908
0.0134948
0.019555
0.0774969
0.0687041
0.0175124
0.0760763
0.0683411
-0.0204579
0.0216886
0.0511877
-0.224923
-0.177972
-0.125049
-0.0710391
0.0371424
-0.180237
0.0681401
0.0733699
0.0562708
0.0623993
0.0458837
0.0507669
0.0390031
0.0419902
0.035564
0.0368676
0.0351926
0.0350368
0.0370172
0.0358994
0.0399591
0.0384043
0.0432949
0.0416075
0.0466141
0.044975
0.0496989
0.048192
0.0525015
0.0511342
0.0550594
0.0538076
0.057432
0.0562649
0.0596664
0.0585672
0.061664
0.0607118
0.0631006
0.0624773
0.0636328
0.063503
0.0630402
0.0634821
0.0612457
0.0622988
0.0581921
0.0598766
0.0539564
0.0562099
0.0487759
0.0514678
0.0428567
0.0459035
0.0362149
0.0396298
0.0288901
0.0326217
0.0213766
0.0250988
0.0150851
0.0179339
0.0126003
0.0132038
0.0152541
0.0133417
0.0211238
0.0179759
0.0274814
0.0243556
0.0330487
0.0303649
0.0375771
0.0353654
0.0413871
0.0395599
0.0391834
0.0289802
0.034498
0.0154222
0.0226298
-0.00161859
0.00731486
-0.0212911
-0.0112313
-0.0415977
-0.0315161
-0.0599982
-0.0512057
-0.0738088
-0.0676377
-0.0807802
-0.078256
-0.0797512
-0.0812836
-0.0710479
-0.0762816
-0.0563729
-0.0643099
-0.03826
-0.0475767
-0.0194796
-0.0287758
-0.00232788
-0.0106452
0.00527813
0.0231055
0.0285147
0.0259027
0.033107
0.0309249
0.0364967
0.0349618
0.0387082
0.0377385
0.0399743
0.0394342
0.0407206
0.0403832
0.0412962
0.0410208
0.0417094
0.0415343
0.041806
0.0418023
0.041588
0.04173
0.041136
0.0413899
0.0404259
0.0408182
0.0393813
0.0399491
0.0379495
0.038716
0.0361081
0.0370787
0.0339278
0.035049
0.0317084
0.0327892
0.0302471
0.0308035
0.031224
0.0302883
0.0370098
0.0333833
0.0487594
0.0422006
0.0640255
0.056224
0.0787011
0.0716469
0.0903181
0.0849506
0.0984085
0.0947937
0.103147
0.101182
0.104726
0.104323
0.103232
0.104358
0.0987566
0.101361
0.0915217
0.095448
0.0821086
0.0870558
0.0708649
0.0767026
0.0579548
0.0646048
0.0435936
0.0509324
0.0358422
0.0430998
-0.199191
-0.217585
-0.199745
-0.249771
-0.178793
-0.270497
-0.140079
-0.27447
-0.0921326
-0.259274
-0.0452014
-0.00927316
0.0119428
0.0220658
0.0257404
0.024657
0.0207757
0.0159757
0.0108717
0.0064549
0.0111622
0.0037138
0.073442
0.0747508
0.0799764
0.0176997
0.00287663
0.0105994
0.0820649
0.0785479
0.00308739
0.0415882
0.0661277
-0.211209
-0.15967
-0.101681
-0.0460603
0.0449025
0.0275811
0.0248833
0.0463053
0.0201046
-0.212919
0.0673828
0.0708091
0.05913
0.0633752
0.0511499
0.0549513
0.0454956
0.0480172
0.0422435
0.0435565
0.0414448
0.0415594
0.0424886
0.0417894
0.0445818
0.0434439
0.047179
0.0458424
0.0499274
0.0485509
0.0526167
0.0512869
0.0551701
0.0539115
0.0575875
0.0563945
0.0598898
0.0587518
0.0620849
0.0610024
0.0640976
0.0631253
0.0656689
0.0649615
0.0664552
0.066185
0.0661548
0.0664515
0.0646637
0.0655594
0.062015
0.0634777
0.05836
0.0603
0.0539285
0.0562274
0.0488933
0.0514821
0.0432722
0.0461585
0.0370934
0.040241
0.0307609
0.0338935
0.0255724
0.0278953
0.0236084
0.0240803
0.0255185
0.0241454
0.0296943
0.0274578
0.0342834
0.032014
0.0384094
0.036426
0.0418792
0.0402137
0.0434435
0.0409971
0.0475206
0.0445972
0.0313384
0.0365911
0.0180996
0.0251757
0.00118898
0.0100774
-0.0185974
-0.00843103
-0.0395865
-0.0290746
-0.0594138
-0.0498152
-0.0752827
-0.0680212
-0.0845759
-0.0808881
-0.0856251
-0.0861816
-0.0782965
-0.0829521
-0.064063
-0.0718984
-0.0455525
-0.0551571
-0.0257496
-0.0356243
-0.00734049
-0.0162544
0.00810474
0.000788421
0.0145557
0.0325937
0.0301657
0.036823
0.0348226
0.0399868
0.0385388
0.0421408
0.0411797
0.0434942
0.0428973
0.0443583
0.0439688
0.044939
0.0446794
0.0452508
0.045132
0.0452815
0.0452974
0.0451198
0.0452182
0.0448358
0.0449927
0.0444146
0.0446447
0.0438299
0.0441431
0.0430859
0.0434762
0.0422303
0.042666
0.0414083
0.0418002
0.0409482
0.0411024
0.0414898
0.0410383
0.0441034
0.0424568
0.0500593
0.0465979
0.0599038
0.0545401
0.0720478
0.065854
0.0838631
0.0781472
0.0934153
0.0889873
0.100026
0.0970959
0.103652
0.102205
0.104398
0.104378
0.102387
0.103727
0.0977819
0.100396
0.0908531
0.0945814
0.0820201
0.0866524
0.0714978
0.0769621
0.0595478
0.0656733
0.0463318
0.0530849
0.0322045
0.039317
0.024942
-0.22634
-0.252517
0.0167795
0.0219507
-0.216212
-0.282232
-0.182525
-0.295537
-0.13453
-0.28836
-0.0824258
-0.26098
-0.038034
-0.00841818
0.00720587
0.0139898
0.0151624
0.0124092
0.00793477
0.00297704
-0.00162546
-0.00496674
0.074429
0.0696701
0.0673628
0.0721268
-0.00625788
0.0804151
0.00377917
-0.00524852
0.0860498
0.0869536
0.0117641
-0.00264078
0.00639397
0.0291457
0.0617453
0.0800559
-0.189249
-0.129108
-0.0696242
-0.0156762
0.0498486
0.048662
0.0508117
-0.24448
0.0699673
0.0704825
0.0661701
0.0684373
0.0604633
0.0634477
0.0545727
0.0574305
0.0499666
0.0520589
0.0471498
0.048319
0.0462066
0.0464578
0.0467484
0.0463255
0.0482543
0.0474092
0.0503093
0.0492343
0.0526121
0.0514442
0.0549712
0.0537922
0.0572964
0.0561407
0.0595613
0.0584368
0.0617603
0.0606696
0.063875
0.0628308
0.0658294
0.0648813
0.0674259
0.0666916
0.0683637
0.0679996
0.0683413
0.0684864
0.0672133
0.0679178
0.0650157
0.0662402
0.0619211
0.0635669
0.0581482
0.0601075
0.0538436
0.0560587
0.0490329
0.0515024
0.0437655
0.0464445
0.0384531
0.0410621
0.0342675
0.0361178
0.032677
0.0330897
0.0338618
0.0329814
0.0366293
0.035135
0.0397922
0.0382115
0.0427708
0.041323
0.0453906
0.0441376
0.0477502
0.0466015
0.0488523
0.04254
0.0459397
0.0332395
0.0383264
0.0202086
0.0272329
0.00326108
0.0121947
-0.0169026
-0.00648514
-0.0388971
-0.027791
-0.0604644
-0.0499072
-0.0786599
-0.0701809
-0.0904732
-0.0855339
-0.0936798
-0.0932387
-0.0876446
-0.0917845
-0.0736076
-0.0814823
-0.0543375
-0.0644194
-0.0331625
-0.0437829
-0.0131249
-0.0228451
0.00372314
-0.00426635
0.0107179
0.0263865
0.0314303
0.0289637
0.0360258
0.0337906
0.0398644
0.0380427
0.0428127
0.0414464
0.0449088
0.0439577
0.0463125
0.0456825
0.0472288
0.0468202
0.0477869
0.0475481
0.0480464
0.0479506
0.0480892
0.0480874
0.0480276
0.0480662
0.0479169
0.0479779
0.047759
0.0478439
0.0475642
0.0476644
0.0473731
0.0474642
0.0472738
0.0473036
0.0474429
0.0473092
0.0481946
0.0477197
0.0500332
0.048939
0.0536508
0.0515741
0.0596982
0.056345
0.0682679
0.0637113
0.0781687
0.0731571
0.0876841
0.0830808
0.0953882
0.091818
0.100633
0.0983332
0.103278
0.102278
0.103375
0.103638
0.101042
0.102501
0.0964597
0.0990177
0.0898897
0.0934028
0.0816514
0.0859604
0.071947
0.0769755
0.0609813
0.0666007
0.0489731
0.0550965
0.0362922
0.0426637
0.0236385
0.0298966
0.0175384
-0.247568
-0.282163
-0.223914
-0.304781
-0.178048
-0.30681
-0.122981
-0.28628
-0.0714305
-0.249084
-0.0332431
-0.0108462
-6.11404e-05
0.00368489
0.00248512
-0.0016306
-0.0065684
-0.0112689
0.0634052
0.0600535
0.0552952
0.0580265
-0.0150839
0.0680131
-0.0168748
0.0784687
-0.0162501
0.0876651
-0.0132348
0.0930444
0.00154845
-0.00863535
0.0558314
0.0805635
0.0919611
-0.15303
-0.0899302
-0.0316504
0.0176106
0.0497129
0.0516551
0.0300564
-0.00267961
0.0103234
0.00702992
0.0277059
0.0237362
0.0524341
0.0517044
-0.270238
0.0659092
0.06365
0.0670327
0.066972
0.0648937
0.0662826
0.0609903
0.063065
0.0566649
0.0588065
0.0530376
0.0547082
0.0507077
0.0516969
0.0497649
0.0500682
0.0500187
0.0497615
0.0511361
0.0504904
0.0527974
0.0519158
0.054755
0.0537514
0.0568406
0.0557891
0.0589604
0.0578998
0.0610711
0.0600185
0.0631487
0.0621158
0.0651573
0.064165
0.0670208
0.066115
0.0685794
0.0678537
0.0695819
0.0691678
0.0697734
0.0697931
0.0689914
0.0695083
0.0672422
0.0682313
0.0646734
0.0660482
0.0614769
0.0631432
0.0577846
0.0596886
0.0536452