/*--------------------------------*- C++ -*----------------------------------*\
  =========                 |
  \\      /  F ield         | OpenFOAM: The Open Source CFD Toolbox
   \\    /   O peration     | Website:  https://openfoam.org
    \\  /    A nd           | Version:  10
     \\/     M anipulation  |
\*---------------------------------------------------------------------------*/
FoamFile
{
    format      ascii;
    class       volScalarField;
    location    "9.5";
    object      p;
}
// * * * * * * * * * * * * * * * * * * * * * * * * * * * * * * * * * * * * * //

dimensions      [0 2 -2 0 0 0 0];

internalField   nonuniform List<scalar> 
6397
(
0.26681
0.256075
0.0135077
0.0129548
0.0130404
0.0136198
0.485119
0.255201
-0.315409
-0.310409
0.315303
0.202257
-0.00837414
-0.0103554
-0.018235
-0.400665
-0.395
-0.388483
0.840651
0.785413
0.748685
-0.334468
-0.297398
-0.289395
-0.00845167
-0.0103211
-0.00682468
0.0235615
0.0250422
0.0221763
0.023432
0.0113361
0.0117996
0.0124207
0.00928901
0.00972882
0.0103068
0.0107335
0.0078169
0.00742404
0.00832948
0.00873765
0.0209432
0.0156515
0.016366
0.0142165
0.0142927
0.0149253
0.00559855
0.00540827
0.00490644
0.00461448
0.00504353
0.312334
0.297193
0.153078
0.163864
-0.00791625
0.0357126
0.0336068
0.0380598
0.0405847
0.0436313
0.0471194
0.0509113
0.0552761
0.0602425
0.0653017
0.0345096
0.0316586
0.0322935
0.0369951
0.0397264
0.0427985
0.0460547
0.0498385
0.0539479
0.0584098
0.0630107
0.0676131
0.0302748
0.0298481
0.0705551
0.0720193
0.0283871
0.0281552
0.0755974
0.0760378
0.0266101
0.0265563
0.0803285
0.0794625
0.0249682
0.0234316
0.0843601
0.0819674
0.0265186
0.0231021
0.0247229
0.0304656
0.0284075
0.0351145
0.0326897
0.0406715
0.0377602
0.047168
0.0437547
0.0547517
0.0508669
0.0627591
0.0587554
0.0701543
0.0665999
0.0756667
0.0733031
0.0769827
0.0727291
0.0846429
0.0787548
0.0610092
0.0667603
0.0510894
0.0557957
0.043436
0.0470504
0.0383408
0.040752
0.0343316
0.0362602
0.0309095
0.0326047
0.0276969
0.0292616
0.024788
0.0261771
0.0220235
0.0222293
0.0216022
0.0770323
0.0833544
0.0823796
0.0904533
0.0899582
0.075382
0.0686387
0.0658084
0.0216701
0.0226008
0.0209756
0.020511
0.0877487
0.0260932
0.0242759
0.0301024
0.0280217
0.0347626
0.0323557
0.0401204
0.0373251
0.0462039
0.0430617
0.0528323
0.0494505
0.0595503
0.0562001
0.065589
0.0626877
0.069313
0.0679316
0.069614
0.0681605
0.0750856
0.0564637
0.0619114
0.0474029
0.0515884
0.0410465
0.0440668
0.0366452
0.038781
0.0331612
0.0349313
0.0300053
0.0316473
0.0269615
0.0284977
0.024075
0.0254853
0.0228854
0.0206717
0.0209517
0.0194725
0.020156
0.0975541
0.0958448
0.0835064
0.0591668
0.0555696
0.0606305
0.0716005
0.0932644
0.10446
0.100966
0.0197745
0.0193889
0.0181489
0.0188353
0.017569
0.0198058
0.0208434
0.0903753
0.0218702
0.0203705
0.0252479
0.0235066
0.0291017
0.0271118
0.0334495
0.0312274
0.0382886
0.0358205
0.0435776
0.0408928
0.0491331
0.0463697
0.0545666
0.051919
0.0592754
0.0571397
0.0614239
0.060859
0.061028
0.0771388
0.0851184
0.0629591
0.0696445
0.0518428
0.0570938
0.0445407
0.047969
0.0392665
0.0416865
0.0353794
0.0372086
0.0321066
0.0337037
0.0290122
0.0305507
0.0259955
0.0274895
0.0232215
0.024588
0.0219562
0.0193246
0.0197197
0.0187768
0.0494152
0.100429
0.0818352
0.107416
0.110816
0.0525616
0.0652101
0.0169771
0.0164942
0.0184892
0.0182399
0.019958
0.0189093
0.0182429
0.0170942
0.0404117
0.0283746
0.0412555
0.0187554
0.0915904
0.021016
0.0196047
0.0241303
0.022531
0.0277093
0.025898
0.0316302
0.029623
0.0358892
0.0337249
0.040373
0.0381058
0.0449336
0.0426686
0.0491818
0.0471244
0.052492
0.0510242
0.0533648
0.053351
0.0499218
0.0522649
0.0392035
0.0456665
0.018191
0.0301884
0.0843854
0.0961523
0.0907445
0.0706437
0.0775229
0.0580858
0.0640986
0.0488484
0.0531536
0.0424694
0.0453818
0.037871
0.0400156
0.0342047
0.0359611
0.0309598
0.0325513
0.0278611
0.0293967
0.0249084
0.02635
0.022226
0.0235021
0.0210387
0.0180801
0.0184514
0.0175255
0.112479
0.0998855
0.0130114
0.00321486
0.104125
0.0780339
0.0160493
0.0177823
0.0190481
0.0180876
0.115689
0.0559472
0.100795
0.115187
0.026901
-0.00500358
-0.0147463
0.0179466
0.0911932
0.0176286
0.0155425
0.0165508
0.0200436
0.0187835
0.0228542
0.0213953
0.026044
0.0244142
0.0295204
0.0277514
0.0331706
0.03133
0.0369263
0.0350424
0.0406038
0.0387937
0.0438335
0.0423043
0.0459433
0.0450877
0.0457208
0.0462105
0.0413197
0.0442003
0.0306338
0.0370146
0.0106577
0.0220041
-0.0196271
-0.00320974
0.0825382
0.0832543
0.0842319
0.0746243
0.079131
0.0639534
0.0694542
0.0541116
0.0588833
0.046393
0.0499713
0.0407792
0.0433764
0.0364954
0.0385221
0.0329256
0.0346503
0.0297023
0.0312884
0.0266357
0.0281528
0.0237491
0.0251633
0.0212088
0.022425
0.020086
0.0981218
0.0790593
-0.0349536
-0.0381052
0.0171169
0.0171582
0.0168222
0.0163227
0.01722
0.0171496
0.016822
0.017128
0.0158723
0.0163775
0.0150375
0.0154549
0.0145788
0.10703
0.0718306
0.118735
0.0439339
0.11368
0.00954574
0.0710079
0.0908884
-0.0259946
-0.0578608
-0.0565745
0.014975
0.0140816
0.0888326
0.0168839
0.0159113
0.0189835
0.0179014
0.0214723
0.0201871
0.0242732
0.0228389
0.0273007
0.025772
0.0304229
0.0288656
0.0335115
0.0319775
0.0364013
0.0349975
0.0387376
0.037669
0.0398589
0.0395029
0.0387206
0.0396461
0.0338307
0.0368405
0.0234012
0.0294455
0.00494945
0.015275
-0.0219208
-0.00746103
-0.0553016
-0.0380733
0.0665138
0.0522843
0.0611904
0.069092
0.0689686
0.0645875
0.0674836
0.0575003
0.0613021
0.050062
0.0536979
0.0437894
0.0467518
0.0388453
0.0411767
0.0348605
0.0367614
0.031458
0.0331091
0.0283425
0.0298785
0.0253757
0.0268413
0.0226209
0.0239627
0.0202078
0.0213636
0.0181885
0.0191644
0.0163792
0.0172355
0.0155741
0.0158645
0.0149389
0.0154821
0.0160613
0.0160402
0.0156522
0.0159267
0.0148673
0.0152854
0.0140987
0.0145039
0.0582395
0.0394515
-0.0781553
-0.072759
0.0132566
0.0136885
0.109602
0.063278
0.117569
0.0296913
0.107371
-0.00984695
0.0784253
-0.0479482
0.0222377
0.0400881
-0.0786972
-0.0896922
-0.0978372
0.00814916
0.000261637
-0.0118141
-0.105955
-0.0812148
-0.0948222
0.0127861
0.012433
0.0120479
0.083147
0.0143715
0.0135379
0.0160365
0.0151886
0.0178947
0.0169255
0.0200511
0.0189335
0.0224911
0.0212405
0.0251068
0.0237871
0.0277333
0.0264285
0.0302264
0.0290049
0.0324147
0.0313728
0.0339676
0.0332994
0.0342722
0.0343225
0.0324165
0.0336762
0.0272128
0.0303057
0.0171533
0.0228966
0.000487887
0.00966843
-0.0230266
-0.0104534
-0.0518262
-0.0370059
-0.0667152
0.036552
0.0240875
0.0517079
0.0456761
0.0566376
0.0553172
0.0553911
0.0566437
0.0510067
0.0534286
0.0457008
0.0483638
0.0407531
0.043145
0.036534
0.0385558
0.0329639
0.0346819
0.0298265
0.0313581
0.026898
0.0283463
0.0240942
0.0254785
0.0215027
0.0227642
0.0192475
0.0203283
0.017317
0.0182486
0.0156313
0.0164412
0.0148518
0.0141799
0.013637
0.0148305
0.0145553
0.0149751
0.0149712
0.0145885
0.0148376
0.0139113
0.0142608
0.0132093
0.0135677
0.0128249
0.105294
0.0536132
0.112035
0.0131827
0.0949722
-0.0305062
0.059446
-0.0699791
0.0157222
-0.0996913
-0.0358999
-0.0269588
-0.115863
-0.107196
-0.120231
-0.0418863
-0.0640573
-0.0659176
-0.118045
-0.0964171
-0.106051
0.0116499
0.0113163
0.0122502
0.0115466
0.0800061
0.0136664
0.0129184
0.0151523
0.0143908
0.0167776
0.0159265
0.0186406
0.0176763
0.0207433
0.0196661
0.0229667
0.0218507
0.0251403
0.0240695
0.0271036
0.0261572
0.0286779
0.0279527
0.0295543
0.0292293
0.0291843
0.0295655
0.0267841
0.0282884
0.0214
0.0245229
0.0118374
0.0172163
-0.00305745
0.00507628
-0.0235532
-0.0126729
-0.0482936
-0.0356164
-0.0737772
-0.0612498
-0.0856219
-0.00293215
-0.0207714
0.0236541
0.0118217
0.0391532
0.0327612
0.0457501
0.0433197
0.0467716
0.0467925
0.0446003
0.0459417
0.0411035
0.0429291
0.0373919
0.0392333
0.0339462
0.0356252
0.030869
0.0323657
0.0280654
0.0294443
0.0253848
0.026716
0.0227933
0.0240739
0.0203951
0.0215623
0.018302
0.019309
0.016511
0.0173651
0.0149262
0.0156938
0.0142029
0.012428
0.0118913
0.013319
0.0129047
0.0138291
0.013617
0.0139502
0.0139478
0.0136064
0.0138282
0.0130133
0.0133172
0.0124039
0.0127133
0.0120413
0.0989183
0.0421484
0.100235
-0.00563817
0.0750266
-0.0510919
0.0326794
-0.0908405
-0.0156322
-0.118173
-0.0601125
-0.130966
-0.0926938
-0.0963508
-0.131961
-0.114609
-0.127389
0.0110517
0.0721783
0.0115794
0.0103887
0.0109346
0.0129319
0.0122605
0.0142603
0.0135902
0.0156676
0.0149284
0.0172648
0.0164387
0.0190486
0.0181373
0.0209063
0.0199788
0.0226627
0.0218073
0.0241503
0.0234491
0.0251892
0.0247386
0.0254893
0.0254547
0.0245675
0.0252155
0.0217624
0.0234413
0.0162945
0.0194076
0.007263
0.0122721
-0.00609767
0.00114452
-0.0239623
-0.0145228
-0.0452175
-0.0343418
-0.0673733
-0.0563595
-0.0875375
-0.077775
-0.104456
-0.0963817
-0.0452721
-0.0881274
-0.0657173
-0.011057
-0.0270186
0.0132506
0.00225172
0.0285349
0.0219461
0.0362591
0.0331526
0.0389296
0.0380801
0.0384925
0.0389825
0.0364828
0.0376075
0.0338739
0.0352111
0.0311908
0.032523
0.028642
0.0298973
0.0262148
0.0274195
0.0238245
0.0250177
0.0214797
0.0226409
0.0192964
0.0203603
0.0173776
0.0183027
0.0157193
0.016514
0.0142468
0.0149732
0.0128687
0.0135403
0.012289
0.0117491
0.0108345
0.0113131
0.0124541
0.0121226
0.0128859
0.0127111
0.0129832
0.0129824
0.0126913
0.0128799
0.0121861
0.0124464
0.0116514
0.0119309
0.0109105
0.011306
0.0102455
0.0105012
-0.12163
-0.111475
-0.122513
-0.111693
0.0875842
0.0288453
0.0111961
0.0802353
-0.0231862
0.00972461
0.00945085
0.00888146
0.0460926
-0.0708419
-0.003045
-0.109068
-0.0546898
-0.133021
-0.0992798
-0.142533
-0.132369
-0.140978
-0.135266
-0.151733
-0.135385
-0.129686
-0.118381
0.0602984
0.0110169
0.0104098
0.0121881
0.0116059
0.0133483
0.0127755
0.0145807
0.0139618
0.015933
0.0152365
0.0174201
0.0166645
0.0189336
0.0181834
0.020305
0.0196472
0.0213659
0.0208833
0.0219376
0.0217251
0.0217498
0.0219591
0.0203809
0.0212417
0.0172798
0.0190799
0.0118132
0.0148783
0.00331102
0.00797203
-0.00871955
-0.00225377
-0.0243421
-0.0161144
-0.0427131
-0.0333218
-0.0619496
-0.0524149
-0.0800634
-0.0713546
-0.0954255
-0.0880249
-0.108256
-0.102021
-0.0827381
-0.120982
-0.10187
-0.0467379
-0.0642488
-0.0169674
-0.0308999
0.00513853
-0.00495372
0.0197172
0.0132597
0.0280716
0.0245534
0.0318977
0.0304298
0.0327819
0.0326124
0.0319754
0.0325237
0.0303282
0.0312159
0.0283654
0.0293639
0.026346
0.0273566
0.0243129
0.0253335
0.0222366
0.0232798
0.0201604
0.021192
0.0182059
0.0191608
0.0164698
0.0173093
0.0149447
0.0156837
0.0135709
0.0142601
0.0122938
0.0129242
0.0117157
0.0102841
0.00983365
0.0110306
0.0106814
0.0116275
0.0113449
0.011997
0.0118483
0.012075
0.012076
0.0118328
0.0119891
0.0114055
0.0116294
0.0109141
0.0111711
0.0102362
0.0106123
0.00984426
-0.15858
-0.13923
-0.124751
-0.114237
0.068815
0.00998299
0.00903744
0.00841613
0.0502568
-0.0428698
0.00673597
-0.0892394
-0.048674
-0.123799
-0.101869
-0.144058
-0.143931
-0.150702
-0.170859
-0.147924
-0.181908
-0.142311
-0.155725
-0.180459
-0.136438
-0.135612
-0.146741
-0.169986
0.00881795
-0.130879
-0.119658
0.0423725
0.0103772
0.00975122
0.0114378
0.0109195
0.0124583
0.0119481
0.0135159
0.0129822
0.0146479
0.0140701
0.0158581
0.0152474
0.0170497
0.0164651
0.0180661
0.0175894
0.0187439
0.0184562
0.0189086
0.0189018
0.0183098
0.0187226
0.0165816
0.0176107
0.0132672
0.0151492
0.00785961
0.0108522
-0.000136153
0.00420478
-0.0110253
-0.00521945
-0.0247562
-0.0175623
-0.0406752
-0.0325261
-0.0574902
-0.0490668
-0.0736254
-0.0658033
-0.0876308
-0.081061
-0.0992071
-0.0936278
-0.109213
-0.104349
-0.108262
-0.122733
-0.0771387
-0.0927645
-0.0468874
-0.0617117
-0.0211058
-0.0333496
-0.0012594
-0.0103984
0.0124727
0.00628814
0.0210528
0.0173252
0.0256527
0.0237558
0.0275222
0.0268511
0.0276759
0.0277567
0.0268493
0.0273465
0.0255423
0.0262324
0.0240299
0.0248031
0.0223909
0.0232253
0.020639
0.0215263
0.0188428
0.0197394
0.0171244
0.0179671
0.0155745
0.0163267
0.0141956
0.0148667
0.0129321
0.0135556
0.0117132
0.0123176
0.0106333
0.011131
0.0101564
0.00968719
0.00928901
0.0103265
0.0100233
0.0108409
0.010599
0.0111587
0.0110303
0.0112247
0.0112255
0.0110236
0.0111538
0.0106546
0.0108519
0.0101962
0.0104371
0.00957994
0.00992177
0.00871056
0.0091827
0.00787783
0.00824142
0.0406416
-0.0119611
-0.113358
-0.124636
0.00753689
0.00738362
0.00717657
-0.0997103
-0.103011
0.00893459
-0.0639701
-0.0441166
-0.106258
-0.10456
-0.135422
-0.156837
-0.151896
-0.192792
-0.156242
-0.210041
-0.153695
-0.210295
-0.148918
-0.155478
-0.134165
-0.13801
-0.160921
-0.199245
-0.143262
-0.181459
0.00731821
0.0091442
0.00702256
0.0174259
0.00848626
0.00798915
0.0096592
0.00908323
0.0106673
0.0101885
0.0115726
0.0111243
0.0124744
0.0120224
0.0134052
0.0129353
0.014359
0.0138827
0.0152512
0.0148207
0.0159409
0.0156302
0.0162743
0.0161607
0.0160837
0.0162552
0.0151393
0.0157214
0.013125
0.0142855
0.00966368
0.0115962
0.00435464
0.00726007
-0.00316528
0.000883396
-0.0130836
-0.00782979
-0.0252678
-0.0189217
-0.0391278
-0.0320462
-0.0537589
-0.0464063
-0.0680617
-0.0610417
-0.080658
-0.0746699
-0.0911264
-0.0861962
-0.095631
-0.118934
-0.127676
-0.0970175
-0.108561
-0.0715556
-0.0845117
-0.0462367
-0.0586773
-0.024028
-0.0346916
-0.00631938
-0.0145804
0.00651294
0.000662811
0.0150486
0.0112561
0.0201326
0.0179505
0.022719
0.0216748
0.0236286
0.0233349
0.0234934
0.0236562
0.0227711
0.0231828
0.0217311
0.0222809
0.0204748
0.0211267
0.0190475
0.0197781
0.0175338
0.0182941
0.0160526
0.0167827
0.0146882
0.0153541
0.0134482
0.0140555
0.0122894
0.0128627
0.0111583
0.0117207
0.0100938
0.0106179
0.00961186
0.00830155
0.00788309
0.00906292
0.00870512
0.00964166
0.00936657
0.0100924
0.00988278
0.0103679
0.0102561
0.0104266
0.0104261
0.0102579
0.0103679
0.00993369
0.0101096
0.00950659
0.00973371
0.00891711
0.00924205
0.0081476
0.00853066
0.00777316
-0.137107
0.00675143
-0.116864
-0.105517
0.00141625
-0.03869
-0.0444653
-0.086975
-0.106635
-0.122009
-0.129373
-0.169945
-0.144069
-0.21805
-0.157798
-0.243486
-0.160517
-0.138916
-0.119059
-0.116718
-0.136568
-0.247517
-0.159473
-0.162624
-0.235583
-0.156163
-0.188938
-0.214249
-0.150865
0.00629959
0.00694917
0.00700722
-0.119776
-0.107355
0.00664982
-0.016139
0.00719022
0.00637828
0.00681188
0.00799318
0.0075688
0.00896619
0.00847568
0.00989316
0.00945355
0.0106967
0.0103043
0.0114564
0.0110802
0.0122007
0.0118302
0.012918
0.0125658
0.0135335
0.0132452
0.0139233
0.0137645
0.0139467
0.0139888
0.0134456
0.0137717
0.0122109
0.0129336
0.00997104
0.0112327
0.00641708
0.00837469
0.00123732
0.00404467
-0.00582894
-0.00205289
-0.0148899
-0.010117
-0.0257842
-0.0201365
-0.0379751
-0.0317648
-0.0507269
-0.0443282
-0.0632236
-0.0570651
-0.0744209
-0.0690489
-0.0837347
-0.0793037
-0.0910091
-0.0877182
-0.0951111
-0.093526
-0.108249
-0.0962423
-0.0960925
-0.116547
-0.119034
-0.104691
-0.111549
-0.0871685
-0.0964764
-0.0663962
-0.0769769
-0.0451673
-0.055665
-0.0259991
-0.0352778
-0.0102789
-0.0176847
0.00160732
-0.00387355
0.00992199
0.0061659
0.0152664
0.0129117
0.018358
0.0170429
0.0198566
0.0192653
0.0202972
0.0201776
0.0200868
0.0202521
0.0194779
0.0198216
0.0185848
0.0190619
0.0174745
0.0180513
0.0162395
0.0168653
0.0149922
0.0156114
0.0138102
0.0143912
0.0127068
0.0132504
0.0116517
0.0121758
0.0106168
0.0111315
0.00958555
0.0100945
0.00863293
0.00908479
0.00819201
0.00776474
0.00739736
0.00844342
0.00812012
0.00897568
0.00872407
0.00937869
0.00919305
0.0096212
0.00952261
0.0096744
0.00967269
0.00953165
0.00962563
0.00924414
0.00940214
0.00884574
0.00905984
0.00829929
0.00859525
0.00766061
0.00796734
0.00704244
0.00736599
0.00669965
-0.0496304
-0.0713344
-0.0950309
-0.0855762
-0.0837048
-0.109579
-0.112173
-0.143595
-0.179487
-0.137309
-0.242521
-0.151464
-0.133911
-0.111961
-0.0953369
-0.0883894
-0.104519
-0.282158
-0.162276
-0.131425
-0.292738
-0.165467
-0.108019
-0.12189
-0.160727
-0.280531
-0.166674
-0.191996
-0.255278
-0.164806
-0.224196
0.00595834
0.00590942
0.00552137
0.00585941
0.00724998
0.00644155
0.00544833
-0.0592871
0.00674161
0.0063652
0.00749332
0.00710875
0.00833219
0.00790925
0.00913253
0.00874418
0.00983462
0.0094958
0.0104609
0.0101556
0.0110315
0.0107531
0.0115302
0.0112925
0.0118909
0.0117334
0.0120063
0.0119861
0.0117503
0.011932
0.0109769
0.0114373
0.00949752
0.0103372
0.00708046
0.00841921
0.00347566
0.00543898
-0.00155518
0.00114829
-0.00819262
-0.00467
-0.0164823
-0.0121392
-0.0262538
-0.0212079
-0.0370452
-0.0315621
-0.0482127
-0.0426245
-0.0590655
-0.053722
-0.0688656
-0.0641395
-0.07687
-0.0731558
-0.08292
-0.0802688
-0.0858146
-0.0847713
-0.086193
-0.102786
-0.100264
-0.101514
-0.103206
-0.0925331
-0.0978809
-0.0785837
-0.0860123
-0.0616781
-0.0704025
-0.0438242
-0.0527031
-0.0273241
-0.0353794
-0.0133778
-0.0200006
-0.00244785
-0.00753993
0.00553473
0.00188111
0.010976
0.00853258
0.0144101
0.0129034
0.0163612
0.0155366
0.0172764
0.0169208
0.0175087
0.0174586
0.0172886
0.0174445
0.016736
0.0170479
0.0159302
0.0163587
0.0149656
0.0154607
0.0139456
0.0144569
0.0129415
0.0134394
0.0119718
0.0124531
0.0110204
0.0114952
0.0100718
0.0105444
0.00909541
0.00957876
0.00815064
0.00862262
0.00769473
0.00659324
0.00603804
0.006294
0.0072315
0.00691003
0.00784654
0.00755432
0.00833219
0.00810277
0.0086972
0.00853006
0.00891403
0.00882592
0.00896301
0.00896017
0.00884164
0.00892228
0.00858592
0.00872805
0.00821999
0.00841703
0.00773719
0.00799316
0.00719953
0.00746009
0.00663209
0.0069514
0.00627325
-0.0927514
-0.0804691
-0.111854
-0.11003
-0.159322
-0.18458
-0.139598
-0.0796788
-0.0668219
-0.057228
-0.0695621
-0.259416
-0.152958
-0.150095
-0.0948686
-0.31799
-0.160462
-0.123602
-0.344273
-0.167958
-0.106821
-0.137715
-0.155247
-0.336657
-0.173058
-0.123026
-0.190347
-0.306974
-0.176057
-0.228544
-0.268403
0.0050636
0.00576059
-0.0892904
-0.0762154
-0.111792
0.00552587
0.00473887
0.00515243
0.00625289
0.00589377
0.00697871
0.00661337
0.00771534
0.00734961
0.0083975
0.00806667
0.00899031
0.00870637
0.00948821
0.00925045
0.00989575
0.00970348
0.0101921
0.0100602
0.0103184
0.0102812
0.0101828
0.0102892
0.00967467
0.0099818
0.00866161
0.00923943
0.00697531
0.00791263
0.00441957
0.00581648
0.000795127
0.00275009
-0.0040759
-0.00147821
-0.0103124
-0.00702334
-0.0179118
-0.0139512
-0.0266953
-0.0221775
-0.0362697
-0.0314172
-0.0460742
-0.0411819
-0.0554872
-0.0508665
-0.0639272
-0.0598597
-0.0707826
-0.0675972
-0.0755184
-0.0734285
-0.0774916
-0.0769009
-0.0761259
-0.0773507
-0.0701458
-0.0737788
-0.0709159
-0.0591314
-0.0654233
-0.0816424
-0.0751267
-0.0888489
-0.0861584
-0.0887373
-0.0897247
-0.0822332
-0.08618
-0.0711892
-0.0771506
-0.0573098
-0.0645807
-0.0423796
-0.0499046
-0.0281438
-0.0351205
-0.0157884
-0.0216935
-0.00580451
-0.0104987
0.00177158
-0.00173451
0.00718961
0.00472043
0.0108399
0.00920383
0.0131325
0.0121274
0.0144355
0.0138841
0.0150484
0.014811
0.0151766
0.0151627
0.0149398
0.0150973
0.0144228
0.0147101
0.0137169
0.0140869
0.0129155
0.013323
0.0120837
0.012501
0.0112449
0.0116649
0.0103951
0.0108217
0.00951728
0.00996039
0.00861552
0.00907571
0.00772048
0.00816798
0.00676214
0.00725913
0.00623485
0.00614983
0.00584303
0.00672151
0.00644403
0.00727147
0.00701349
0.00771456
0.00750511
0.00804673
0.00789516
0.00824277
0.00816306
0.00828876
0.00828481
0.00818529
0.00825476
0.00795797
0.00808543
0.00762702
0.00780498
0.00720101
0.00742479
0.00671333
0.0069582
0.00614539
0.00646342
0.00540287
0.00579152
0.00461176
0.00500566
-0.174901
-0.183058
-0.153717
0.00425601
0.00510416
-0.0470471
-0.0585405
-0.26581
-0.168636
-0.0518239
-0.0637968
-0.167879
-0.0839502
-0.34106
-0.169746
-0.0847477
-0.113563
-0.390046
-0.171396
-0.104562
-0.15598
-0.146804
-0.398913
-0.176769
-0.123159
-0.184079
-0.37148
-0.184079
-0.140534
-0.227108
-0.32499
-0.18824
-0.274473
-0.0435211
-0.033579
-0.0272662
-0.0361705
-0.0233917
-0.171998
0.00442048
0.00350739
0.00405906
0.00508097
0.00475194
0.00576649
0.00542166
0.00645125
0.00611683
0.00710388
0.0067832
0.00768437
0.00740555
0.00816703
0.00793874
0.00853966
0.00836724
0.00879285
0.00868189
0.0089015
0.00886755
0.00881182
0.00888525
0.0084464
0.00866835
0.00771012
0.00813026
0.00648511
0.00716594
0.00462292
0.00564211
0.00195925
0.00339931
-0.00166108
0.00027507
-0.00636594
-0.00387428
-0.0122265
-0.00915369
-0.0192055
-0.0155864
-0.0271188
-0.0230651
-0.0356214
-0.0313247
-0.0442293
-0.0399462
-0.0523841
-0.0483964
-0.0595677
-0.0561239
-0.0652832
-0.0626417
-0.0688162
-0.0673866
-0.0699873
-0.069781
-0.0677632
-0.0693719
-0.0611121
-0.0649688
-0.0499498
-0.0562613
-0.042062
-0.037239
-0.0160074
-0.0274432
-0.055881
-0.0467663
-0.0698055
-0.0637845
-0.0769845
-0.0743237
-0.077812
-0.0782155
-0.0735043
-0.0763925
-0.0647409
-0.0696624
-0.0534098
-0.0593654
-0.0408459
-0.0471772
-0.0285942
-0.0346156
-0.0176811
-0.0229322
-0.0086046
-0.012907
-0.0014766
-0.00480746
0.003835
0.00138478
0.00760617
0.0058884
0.0101526
0.0090092
0.011771
0.011058
0.0127103
0.0123106
0.0131496
0.0129825
0.0132038
0.0132181
0.0129584
0.0131125
0.0124981
0.0127491
0.0119053
0.0122135
0.0112394
0.0115788
0.010528
0.0108883
0.00977573
0.0101566
0.00898049
0.00938266
0.00814947
0.00856917
0.00728555
0.00772207
0.00639356
0.00684349
0.00546988
0.00593864
0.00568265
0.00537575
0.00623112
0.00597271
0.00671999
0.00648498
0.00712324
0.00693233
0.00742584
0.00728807
0.0076043
0.00753155
0.0076482
0.00764317
0.00755963
0.00761978
0.00735734
0.00747151
0.0070578
0.00721905
0.0066693
0.00687393
0.00620282
0.00644364
0.00563404
0.00594506
0.00494555
0.00530202
0.00417933
0.00456477
0.00380399
-0.0463753
-0.259354
-0.200268
-0.0354958
-0.0275756
-0.0194501
0.00399166
0.00296206
-0.0545049
-0.186124
-0.0718466
-0.347546
-0.198361
-0.077843
-0.101576
-0.417366
-0.187869
-0.100674
-0.176218
-0.135763
-0.451593
-0.185629
-0.122214
-0.174466
-0.441134
-0.189663
-0.160727
-0.142222
-0.220017
-0.394188
-0.199618
-0.273127
-0.333119
-0.00162945
-0.0167865
-0.0327982
-0.236479
0.00394118
0.00363229
0.00464225
0.00429595
0.00529162
0.00496938
0.00592754
0.00561518
0.00650256
0.00622395
0.00699009
0.00675894
0.00736667
0.00719293
0.00761725
0.00750823
0.00772402
0.00768987
0.00765686
0.00771424
0.00736733
0.00754298
0.00679059
0.00711867
0.00584665
0.00636929
0.00443246
0.00520462
0.00241891
0.00350762
-0.000329258
0.00114264
-0.00392868
-0.0020185
-0.00846541
-0.00607838
-0.0139729
-0.0111012
-0.0203898
-0.0170781
-0.0275314
-0.0238881
-0.0350862
-0.0312817
-0.0426332
-0.0388901
-0.0496794
-0.0462488
-0.0557436
-0.0528595
-0.060368
-0.058264
-0.0630133
-0.0619636
-0.0632034
-0.0634823
-0.0602906
-0.0622341
-0.0533123
-0.0572769
-0.0422535
-0.0483453
-0.0276293
-0.0350175
-0.0318209
-0.0191758
-0.011962
-0.0203987
-0.0295586
-0.00911601
-0.0202705
-0.0464074
-0.0381952
-0.0596609
-0.0536196
-0.0670735
-0.0641932
-0.0688311
-0.0685576
-0.0659587
-0.0679478
-0.0591364
-0.0629542
-0.0498477
-0.0547231
-0.0393313
-0.0446586
-0.0288167
-0.0340112
-0.0191964
-0.0238585
-0.010969
-0.0148976
-0.00430459
-0.00744594
0.000845614
-0.00155499
0.00466757
0.00290372
0.00739907
0.00615096
0.00927411
0.00842737
0.0104939
0.00995311
0.0112114
0.0109063
0.0115333
0.0114151
0.0115419
0.0115711
0.0113133
0.0114519
0.0109186
0.0111323
0.0104116
0.0106763
0.00982323
0.0101261
0.0091678
0.00950322
0.00845144
0.00881654
0.00768219
0.00807297
0.00686987
0.00728013
0.00603919
0.00645276
0.00514049
0.005611
0.00462672
0.00430593
0.00520217
0.00490729
0.00573398
0.00548162
0.00618531
0.00596841
0.00655688
0.00638142
0.00683331
0.00670777
0.00699645
0.00692972
0.00703861
0.00703267
0.00696222
0.00701472
0.00678094
0.00688388
0.00650606
0.00665472
0.00614074
0.00633441
0.00568818
0.00592461
0.00512941
0.00542717
0.00448487
0.00481959
0.00376804
0.00412808
0.00338469
-0.0426152
-0.203024
-0.058923
-0.33514
-0.246818
0.00254918
0.00417631
-0.0671001
-0.0881038
-0.422644
-0.227576
0.00180761
-0.0063913
-0.000402075
-0.0934553
0.00961864
0.00319411
-0.197852
-0.122696
-0.480736
-0.207472
-0.119125
-0.162004
-0.496686
-0.202728
-0.183571
-0.142807
-0.20855
-0.467123
-0.207997
-0.164235
-0.263873
-0.403115
-0.21936
-0.0382376
-0.0241541
-0.330769
-0.0110169
-0.0272334
-0.0447128
-0.300316
0.0035359
0.00310505
0.00421289
0.00388837
0.004836
0.00453252
0.0054122
0.00513075
0.00591605
0.00567565
0.00631616
0.00613044
0.00659099
0.00647004
0.00672312
0.0066756
0.00668986
0.00672946
0.00645742
0.00660038
0.00598179
0.0062525
0.00520927
0.00563553
0.00407441
0.00469103
0.00248896
0.00334334
0.000342571
0.00149153
-0.00247309
-0.000977455
-0.00604058
-0.00416079
-0.0104107
-0.00812553
-0.0155872
-0.0129026
-0.0214916
-0.0184588
-0.0279424
-0.0246652
-0.0346556
-0.0312879
-0.0412595
-0.0379966
-0.0473228
-0.0443851
-0.0524022
-0.0500099
-0.0560601
-0.0544335
-0.0578598
-0.0572125
-0.0573489
-0.0579229
-0.0537926
-0.0560271
-0.0467432
-0.0507651
-0.0360659
-0.0418867
-0.0224929
-0.029426
-0.00651519
-0.0153608
0.0183397
0.0143624
0.0213728
-0.00354481
0.00854625
-0.0230471
-0.0141236
-0.0385549
-0.031084
-0.0511798
-0.0454316
-0.0586391
-0.0555695
-0.0611191
-0.0604279
-0.0594145
-0.0607414
-0.0542335
-0.0571842
-0.0466998
-0.0506819
-0.0379181
-0.0423965
-0.0288986
-0.0333825
-0.020429
-0.0245608
-0.0129915
-0.0165673
-0.0067909
-0.00973686
-0.00183764
-0.00416792
0.00198414
0.000200568
0.00484799
0.00352115
0.00693265
0.00597466
0.00839554
0.00773112
0.00936309
0.00893296
0.00993165
0.00969088
0.0101773
0.0100896
0.0101665
0.0101993
0.00995906
0.0100834
0.009604
0.00979699
0.00913522
0.00938183
0.00857459
0.0088652
0.00793408
0.00826349
0.00722393
0.00758694
0.00645945
0.00684713
0.00565916
0.00606027
0.00475131
0.00523565
0.00369966
0.00421213
0.0041102
0.0034702
0.00375487
0.00471618
0.00441602
0.00523553
0.00498878
0.00566665
0.00546149
0.00601282
0.00585014
0.00626677
0.00615178
0.00641648
0.00635506
0.0064569
0.00645034
0.00639028
0.00643659
0.00622603
0.00631985
0.00597049
0.00610939
0.00562356
0.00580834
0.00518686
0.00541584
0.00465325
0.00493474
0.00402956
0.00435214
0.0033446
0.00370026
0.00247298
0.00292416
0.00212254
-0.0533069
-0.0738948
-0.403877
-0.290093
0.00219078
0.00409921
0.00323328
-0.0818258
-0.0330628
-0.0489242
0.0280169
0.02351
-0.219777
-0.108279
-0.483899
-0.255411
-0.112
-0.147436
-0.525002
-0.230611
-0.209066
-0.0178086
-0.140953
-0.193499
-0.521197
-0.225268
-0.166518
-0.250241
-0.475137
-0.231657
-0.189449
-0.320266
-0.397874
0.00802209
-0.0392932
-0.00612455
-0.016118
0.00320254
-0.0584457
-0.358158
0.0030723
0.00262312
0.00378955
0.00345971
0.00438476
0.00409475
0.0049135
0.00465924
0.00534986
0.00514521
0.00566646
0.00552434
0.00584266
0.00577293
0.00585907
0.00587176
0.0056912
0.00579865
0.00530306
0.00552667
0.00465266
0.00501253
0.00369686
0.00421499
0.00238383
0.00308802
0.000640043
0.00157014
-0.0016263
-0.000423491
-0.00449813
-0.00298407
-0.00802738
-0.00618025
-0.0122349
-0.0100479
-0.0171008
-0.0145907
-0.0225353
-0.0197572
-0.0283621
-0.0254147
-0.034322
-0.0313447
-0.0400843
-0.0372499
-0.0452704
-0.0427725
-0.0494799
-0.0475201
-0.0523044
-0.051087
-0.0533559
-0.0530709
-0.0522139
-0.0530848
-0.0483199
-0.0506391
-0.0412715
-0.0452043
-0.0308889
-0.0364845
-0.0183701
-0.0248463
-0.00255231
-0.0110798
0.0151959
0.0174878
0.00713666
0.0123491
0.0331661
0.0308385
0.0237217
0.036121
0.0347735
0.000946658
0.0119539
-0.0175398
-0.00890116
-0.0322301
-0.0251946
-0.0440123
-0.0385599
-0.0514845
-0.0483159
-0.0545308
-0.0535067
-0.0538065
-0.0545884
-0.0499804
-0.0522222
-0.0439337
-0.0471663
-0.0366195
-0.0403763
-0.0288955
-0.0327599
-0.0214559
-0.0251082
-0.0147518
-0.0179966
-0.00900521
-0.011756
-0.00426939
-0.00651646
-0.000483152
-0.00226777
0.00247393
0.00108783
0.00473218
0.00368028
0.00640869
0.00563447
0.00760374
0.00705911
0.00840074
0.00804607
0.00886785
0.00867069
0.00906136
0.00899471
0.00903057
0.00907032
0.00882027
0.00894467
0.00846726
0.00865914
0.00799905
0.0082459
0.00743199
0.00772678
0.0067787
0.00711506
0.00605385
0.00642426
0.00525708
0.00566487
0.00438228
0.00484373
0.00342712
0.00389743
0.00296703
0.00307023
0.00251959
0.00281168
0.00362653
0.00332681
0.00424705
0.00394491
0.00475326
0.00451453
0.00516554
0.00497029
0.00549009
0.00533837
0.00572469
0.00561877
0.0058626
0.00580589
0.00590112
0.00589425
0.00584227
0.0058836
0.00569212
0.00577833
0.00545379
0.00558378
0.00512657
0.00530119
0.00471306
0.00492987
0.00420858
0.00447474
0.00360945
0.00392007
0.0029265
0.00328261
0.00212193
0.00251554
0.00146713
0.00179603
-0.0663626
0.0174921
-0.0284864
0.00117185
0.0102541
-0.242181
-0.0539062
-0.0928306
-0.459355
-0.327141
-0.0997526
-0.13183
-0.525682
-0.282254
0.0269543
0.0283441
-0.236853
-0.00143644
0.0221273
0.018978
0.0257675
0.0372563
0.00210207
0.0022001
0.00177487
0.00110855
0.00115035
0.000761173
-0.134661
-0.176804
-0.546262
-0.255037
-0.0630679
-0.0451419
-0.166455
-0.231603
-0.524761
-0.252988
-0.218685
-0.193843
-0.0450159
-0.0109869
-0.300129
-0.465826
-0.259479
-0.381444
-0.0750988
-0.405137
0.00184475
0.00146793
0.00263253
0.00223101
0.00335645
0.00301829
0.00394572
0.00366347
0.00443519
0.00420368
0.00480895
0.00463777
0.00504529
0.00494523
0.00512526
0.00510551
0.00502939
0.00510017
0.00473141
0.00490695
0.00419418
0.00449455
0.00337825
0.00382251
0.0022486
0.00285392
0.000765857
0.0015535
-0.00112865
-0.000126639
-0.00350762
-0.00225459
-0.00642961
-0.00489988
-0.00991856
-0.00810445
-0.0139694
-0.0118765
-0.0185441
-0.0161969
-0.0235455
-0.0210013
-0.0288042
-0.0261564
-0.0340847
-0.0314587
-0.0390931
-0.0366422
-0.0434949
-0.04139
-0.0469332
-0.0453549
-0.0490386
-0.0481719
-0.0494538
-0.0494756
-0.0477948
-0.0489054
-0.0436315
-0.0460445
-0.0366032
-0.0404876
-0.0266618
-0.0319565
-0.0145054
-0.0208417
0.00072544
-0.00734894
0.0192905
0.00963983
0.025001
0.0455828
0.0408812
0.0433532
0.047944
0.0469809
0.0486897
0.0482774
0.00463774
0.0147887
-0.0128202
-0.00458778
-0.0269018
-0.0202092
-0.0380255
-0.0328585
-0.0454299
-0.0422171
-0.0489235
-0.0476258
-0.0490165
-0.0493473
-0.0463068
-0.0479622
-0.0415175
-0.0441147
-0.0354577
-0.0385949
-0.0288659
-0.0321856
-0.0223492
-0.0255688
-0.0163217
-0.0192586
-0.0110109
-0.0135717
-0.00650074
-0.00865815
-0.00277236
-0.00454584
0.000250726
-0.00118092
0.00265657
0.00152329
0.00452504
0.00365122
0.00593058
0.00527942
0.00694174
0.00648009
0.00761658
0.00731683
0.00800151
0.0078417
0.0081368