/*--------------------------------*- C++ -*----------------------------------*\
  =========                 |
  \\      /  F ield         | OpenFOAM: The Open Source CFD Toolbox
   \\    /   O peration     | Website:  https://openfoam.org
    \\  /    A nd           | Version:  10
     \\/     M anipulation  |
\*---------------------------------------------------------------------------*/
FoamFile
{
    format      ascii;
    class       volVectorField;
    location    "9.5";
    object      U;
}
// * * * * * * * * * * * * * * * * * * * * * * * * * * * * * * * * * * * * * //

dimensions      [0 1 -1 0 0 0 0];

internalField   nonuniform List<vector> 
6397
(
(1.03737 -0.191524 1.0451e-20)
(1.04007 -0.207083 -4.87905e-20)
(1.08623 -0.00761151 0)
(1.08546 -0.00807653 -3.03746e-23)
(1.0887 -0.00623134 3.30076e-22)
(1.09008 -0.00606671 6.59198e-22)
(0.765656 -0.490837 -4.74843e-20)
(0.460209 -0.696078 1.0776e-19)
(-0.115316 -0.0514196 1.40039e-20)
(-0.122974 -0.0988374 -5.04858e-21)
(0.496993 0.700294 6.69521e-20)
(0.798346 0.712712 -8.21724e-21)
(0.612545 0.0324707 -1.42159e-21)
(0.681787 0.0173017 -6.98784e-22)
(0.443134 0.0311509 2.49819e-21)
(-0.0113026 0.0357469 -1.00487e-19)
(0.1311 0.0402342 -5.78076e-20)
(-0.0657426 0.0508346 4.77814e-20)
(0.323444 0.00535088 5.46448e-20)
(0.438969 -0.173247 -1.66494e-19)
(0.541 -0.0239681 -8.65524e-20)
(0.0906603 -0.0431931 -6.59525e-20)
(-0.0712246 -0.0542044 2.91516e-21)
(0.286622 -0.045048 -4.4904e-20)
(0.817599 0.0191248 0)
(0.823862 0.0142197 5.27739e-22)
(0.925052 0.0191555 1.31404e-22)
(1.0573 0.0445393 -2.27538e-21)
(1.05756 0.0485619 5.60608e-22)
(1.08681 0.0391012 -1.15772e-21)
(1.09057 0.0438211 1.59761e-21)
(1.08079 -0.00901197 8.42125e-22)
(1.08114 -0.00933582 6.17628e-22)
(1.08467 -0.00812869 -2.24167e-21)
(1.07585 -0.00873867 2.14339e-22)
(1.07591 -0.00928584 0)
(1.07789 -0.008996 -2.59212e-22)
(1.07813 -0.0095162 -5.45915e-22)
(1.07347 -0.00818036 4.10568e-22)
(1.07359 -0.00772111 -1.93426e-22)
(1.07451 -0.00825282 0)
(1.07439 -0.00880216 0)
(1.08257 0.0346043 5.03088e-22)
(1.10298 0.00184587 7.49697e-22)
(1.10587 0.00339568 -8.11853e-22)
(1.09132 -0.00549795 1.49498e-21)
(1.09519 -0.00314191 7.34145e-22)
(1.0972 -0.00238323 -2.24108e-21)
(1.07253 -0.00655586 3.07869e-22)
(1.07224 -0.00661631 -4.86016e-23)
(1.07203 -0.0062236 5.2043e-22)
(1.07174 -0.0066103 -1.73727e-22)
(1.07173 -0.00647775 -1.37809e-21)
(0.977113 0.199747 -7.85385e-21)
(1.02763 0.234705 5.19584e-21)
(1.03286 0.0495705 3.50446e-21)
(1.03844 0.062805 3.58391e-21)
(1.16677 -0.0639966 7.3314e-22)
(1.00106 0.0441066 1.63817e-21)
(1.01766 0.0509249 -1.63998e-21)
(0.982041 0.0341552 -1.76484e-21)
(0.961045 0.0212436 1.7378e-21)
(0.938439 0.00534853 2.07024e-21)
(0.914867 -0.0124242 -2.03483e-21)
(0.890304 -0.0321461 0)
(0.865884 -0.0523858 -2.56878e-21)
(0.842334 -0.0727736 2.69378e-21)
(0.819426 -0.0921839 0)
(0.985316 0.0347772 1.49364e-21)
(1.03231 0.0549198 -1.92095e-24)
(0.999218 0.0413025 -1.42021e-21)
(0.970407 0.0255125 0)
(0.954783 0.0135596 0)
(0.9394 -0.000620341 0)
(0.924561 -0.0165283 8.32673e-24)
(0.911017 -0.0337079 -1.06581e-24)
(0.8992 -0.0519379 0)
(0.889426 -0.0706841 3.21188e-25)
(0.881455 -0.0893034 0)
(0.874547 -0.107708 0)
(1.01086 0.0450526 1.42831e-21)
(1.04302 0.0559386 -9.68137e-23)
(0.797445 -0.109585 0)
(0.867341 -0.125038 0)
(1.02045 0.0464342 -8.51216e-23)
(1.0511 0.0548799 0)
(0.774171 -0.124041 0)
(0.85815 -0.141202 0)
(1.0277 0.0459186 -2.51455e-21)
(1.05551 0.0521919 3.09384e-22)
(0.749265 -0.135026 0)
(0.844174 -0.155302 0)
(1.03327 0.0438881 1.84287e-21)
(1.03695 0.0409513 1.10449e-21)
(0.720347 -0.140678 0)
(0.824734 -0.166717 -4.56911e-22)
(1.02623 0.0378987 0)
(1.0394 0.0350472 -2.14934e-21)
(1.03256 0.0373003 -1.47542e-22)
(1.00979 0.0339127 1.40016e-21)
(1.01796 0.0370172 0)
(0.990531 0.0214703 7.72009e-22)
(1.00005 0.0288389 -1.40379e-21)
(0.97302 0.000499807 -9.60507e-22)
(0.980988 0.011977 -6.00442e-22)
(0.961041 -0.0261472 -8.34046e-24)
(0.965585 -0.0121534 1.01464e-21)
(0.957758 -0.0573813 8.9439e-23)
(0.957616 -0.0412234 1.3311e-21)
(0.960337 -0.0921987 1.2098e-21)
(0.957646 -0.0743165 -2.48142e-21)
(0.960899 -0.130562 0)
(0.960119 -0.11096 0)
(0.9499 -0.169495 0)
(0.956833 -0.15032 0)
(0.936185 -0.187054 8.87157e-22)
(0.767787 -0.0914436 3.42332e-21)
(0.692394 -0.105366 2.00604e-21)
(0.732686 -0.100694 -3.37506e-21)
(0.838771 -0.0600743 -2.90716e-21)
(0.806204 -0.0766466 2.84153e-21)
(0.908926 -0.0199719 -1.87312e-23)
(0.878632 -0.0388902 -8.06661e-23)
(0.971348 0.017827 0)
(0.944983 0.00072134 0)
(1.02184 0.0463183 -1.66695e-21)
(1.00112 0.034179 -2.22556e-22)
(1.05799 0.062077 -2.88021e-22)
(1.04433 0.056223 1.65704e-21)
(1.08199 0.0657544 -7.58989e-22)
(1.07303 0.0654923 9.14496e-23)
(1.09346 0.0596209 1.26507e-21)
(1.08989 0.0635545 6.90708e-22)
(1.09353 0.0491256 0)
(1.0953 0.054444 -1.40061e-21)
(1.04089 0.0369667 1.03786e-21)
(1.05711 0.0402622 3.52916e-23)
(1.04573 0.0318698 -5.46911e-22)
(0.919338 -0.202331 1.35414e-21)
(0.797569 -0.173871 -3.37739e-22)
(0.770307 -0.0637173 2.83165e-23)
(0.652205 -0.102601 -2.01043e-21)
(0.730688 -0.0608727 0)
(0.89402 -0.213297 -8.88776e-22)
(1.01135 -0.218986 1.56633e-21)
(0.999872 -0.236557 -1.5573e-21)
(1.11304 0.0335473 -5.404e-22)
(1.05888 0.0302397 1.12479e-21)
(1.06541 0.0280002 5.23558e-22)
(1.10748 0.0289104 -4.94003e-22)
(0.684843 -0.141272 -1.15699e-22)
(1.04809 0.0310814 0)
(1.05332 0.0314848 2.8275e-22)
(1.03657 0.025849 -4.1631e-23)
(1.04192 0.0294089 0)
(1.02524 0.0140031 2.27058e-22)
(1.03005 0.0208263 -4.71008e-22)
(1.01785 -0.0038634 0)
(1.02012 0.00581823 -1.12348e-22)
(1.01593 -0.0266854 0)
(1.01521 -0.0144942 -6.23967e-23)
(1.01945 -0.0552425 0)
(1.01633 -0.0400924 -1.43885e-22)
(1.02389 -0.0906912 5.92041e-24)
(1.02073 -0.072006 -1.26151e-22)
(1.02519 -0.132658 -9.14977e-23)
(1.02384 -0.110989 1.67479e-22)
(1.0227 -0.177119 4.54805e-23)
(1.02425 -0.154922 4.97972e-23)
(1.01791 -0.198697 -4.24987e-22)
(0.852411 -0.0501923 -4.69429e-23)
(0.81236 -0.0595475 -5.4119e-23)
(0.930811 -0.0199023 2.61047e-24)
(0.893047 -0.0363195 0)
(1.00201 0.0160729 0)
(0.969493 -0.00136969 3.47609e-23)
(1.05771 0.0462895 0)
(1.03281 0.0325092 0)
(1.09537 0.0657148 1.59881e-24)
(1.07955 0.057562 2.25801e-22)
(1.11662 0.0735315 1.90439e-22)
(1.10871 0.0711916 0)
(1.12667 0.070665 6.59885e-22)
(1.12341 0.0734702 0)
(1.12814 0.0596661 -3.98855e-23)
(1.12845 0.0659675 -6.61107e-22)
(1.12265 0.0454883 -1.08011e-24)
(1.12623 0.0526992 -1.47905e-22)
(1.11811 0.0391093 5.50067e-22)
(1.04364 0.03324 -2.45903e-22)
(1.05629 0.0359575 0)
(1.06806 0.025441 -2.38708e-22)
(1.0499 0.0288022 2.15003e-22)
(0.693397 -0.0503825 0)
(0.608695 -0.0930594 0)
(0.765297 -0.176982 4.78196e-22)
(1.07252 -0.222227 1.89551e-22)
(1.07457 -0.24342 0)
(0.982694 -0.249725 1.91948e-22)
(0.862545 -0.219008 -8.11578e-23)
(0.863624 -0.0212124 0)
(0.65788 -0.0326595 0)
(0.841113 -0.00905014 2.38165e-21)
(1.07888 0.030455 -4.89442e-22)
(1.10173 0.02504 0)
(1.07095 0.0223846 4.71732e-22)
(1.08842 0.0243525 3.72173e-24)
(1.08973 0.0217498 -1.11974e-21)
(1.11949 0.0218214 0)
(1.125 0.0266832 4.54132e-22)
(0.6468 -0.136582 0)
(1.08392 0.027787 -1.40593e-22)
(1.08786 0.0263887 0)
(1.07756 0.0273452 -4.52763e-24)
(1.08128 0.0282143 -1.24486e-23)
(1.07015 0.0215948 8.48351e-23)
(1.07421 0.0251787 0)
(1.06271 0.0106387 -1.44825e-24)
(1.06604 0.0167613 9.20225e-23)
(1.05734 -0.00484754 1.65291e-24)
(1.05894 0.00352469 1.05814e-22)
(1.05515 -0.0257027 -2.56607e-22)
(1.05523 -0.0144758 0)
(1.05531 -0.0536345 0)
(1.05451 -0.0386665 2.61518e-22)
(1.05634 -0.0894342 8.12816e-23)
(1.05524 -0.07062 -3.92796e-23)
(1.05899 -0.131204 0)
(1.05683 -0.109797 1.08005e-23)
(1.06528 -0.176325 8.16956e-23)
(1.06143 -0.153475 -1.78642e-22)
(1.06896 -0.199539 -3.50032e-22)
(0.919657 -0.0278386 3.85287e-22)
(0.889572 -0.0276427 -1.80357e-24)
(0.986835 -0.0125415 1.49013e-22)
(0.953075 -0.0224086 -6.02242e-22)
(1.04958 0.0149634 -2.81093e-23)
(1.01836 3.40327e-05 3.10279e-22)
(1.10056 0.0435073 0)
(1.07682 0.0297136 -3.24684e-22)
(1.13435 0.0642511 0)
(1.1198 0.0549925 0)
(1.15074 0.074999 -3.06822e-24)
(1.14456 0.0707523 0)
(1.15435 0.0767199 0)
(1.15376 0.0768563 0)
(1.15109 0.0701973 0)
(1.15325 0.074448 0)
(1.14446 0.0567472 -2.87479e-22)
(1.14797 0.0641714 0)
(1.1354 0.0406039 1.06971e-24)
(1.14004 0.0487888 2.93728e-22)
(1.13017 0.033283 -5.24161e-22)
(1.0467 0.0289615 -2.43708e-22)
(1.05608 0.0315531 4.58478e-22)
(1.05384 0.0251348 -4.84653e-22)
(1.07348 -0.2621 -1.03928e-21)
(0.563445 -0.0745642 0)
(0.723509 -0.173382 -5.95948e-22)
(0.828112 0.00907419 -2.5525e-21)
(0.626496 -0.00822233 0)
(0.958558 -0.256755 -1.73144e-22)
(0.820344 -0.216648 -5.38618e-22)
(1.07374 0.019126 -6.62772e-24)
(1.0906 0.0189915 -5.86681e-24)
(1.07406 0.0265359 -4.14114e-22)
(1.0947 0.0219625 -4.21902e-22)
(1.12405 0.0206527 -4.46552e-22)
(1.11919 0.0153565 0)
(1.10351 0.0248181 -1.22315e-22)
(1.10309 0.022722 -1.9757e-22)
(1.06838 -0.27603 1.04239e-21)
(1.05575 -0.283368 1.01623e-22)
(0.924471 -0.255342 6.96902e-22)
(1.11396 0.0180236 3.89903e-24)
(0.599555 -0.12356 0)
(1.10289 0.0268589 -1.19211e-22)
(1.10413 0.0263736 4.90415e-22)
(1.09941 0.0248207 1.38652e-22)
(1.10167 0.02653 -3.38099e-22)
(1.09292 0.0179387 0)
(1.09656 0.0219868 0)
(1.08484 0.00707283 8.66589e-26)
(1.08893 0.0129962 8.57315e-29)
(1.0774 -0.00752337 -1.63811e-24)
(1.08084 0.00030366 0)
(1.07207 -0.0272774 0)
(1.07438 -0.0165987 1.02439e-28)
(1.06894 -0.0543373 0)
(1.07015 -0.039822 0)
(1.06871 -0.0885462 0)
(1.06829 -0.0706845 0)
(1.07349 -0.127487 0)
(1.07027 -0.107547 0)
(1.08537 -0.169869 0)
(1.07845 -0.148251 0)
(1.10433 -0.214506 2.31583e-22)
(1.09415 -0.192166 0)
(1.12736 -0.256935 0)
(1.11596 -0.236333 -1.88246e-23)
(1.14558 -0.287284 0)
(1.13833 -0.274184 1.49442e-22)
(1.03057 -0.00500465 4.97231e-22)
(1.00733 0.0150877 7.0745e-22)
(1.01683 0.00224338 -4.99375e-22)
(1.06816 -0.00403334 -1.42915e-22)
(1.04834 -0.00683766 1.8029e-24)
(1.11041 0.0125385 8.50084e-23)
(1.08885 0.00264095 2.03116e-22)
(1.14628 0.0361112 1.18248e-25)
(1.12933 0.0239323 0)
(1.17015 0.057339 0)
(1.16 0.0474987 0)
(1.17948 0.070183 0)
(1.17657 0.0649192 0)
(1.17678 0.0746438 5.31649e-26)
(1.17933 0.0732762 0)
(1.16735 0.0730896 0)
(1.17254 0.074548 0)
(1.15605 0.0655824 0)
(1.1617 0.0701539 0)
(1.14506 0.0519081 -1.4389e-22)
(1.15042 0.0593936 1.49656e-22)
(1.13451 0.0352636 -1.27362e-22)
(1.13968 0.0436011 1.66662e-23)
(1.12915 0.0275595 6.30027e-22)
(1.04975 0.0247237 3.03219e-22)
(1.05609 0.0271457 4.43154e-22)
(1.0575 0.0213338 0)
(0.818595 0.0322765 0)
(1.00094 0.0337609 -6.27263e-22)
(1.03497 -0.281938 -9.44833e-23)
(1.14795 -0.293183 0)
(0.51624 -0.0479234 0)
(0.670327 -0.160871 0)
(1.1021 0.0204543 0)
(1.10807 0.0154734 9.16665e-22)
(1.11692 0.0153633 -3.49205e-22)
(1.11282 0.0100284 0)
(0.601427 0.0232026 -1.61095e-22)
(0.768229 -0.204774 7.07989e-22)
(0.997744 0.0583909 -4.43379e-22)
(0.816659 0.0607941 1.69574e-22)
(0.881126 -0.244113 -8.05122e-22)
(1.00528 -0.270319 4.61722e-22)
(1.14492 -0.291296 0)
(1.11471 0.0113218 -9.14979e-22)
(0.545068 -0.101862 0)
(1.10985 0.0260594 4.36998e-22)
(1.10632 0.0227517 2.79324e-22)
(1.10841 0.0246311 1.03557e-21)
(1.11056 0.0265052 1.94729e-22)
(1.11076 0.0268663 -4.44625e-22)
(1.1074 0.0224117 0)
(1.1096 0.025128 -1.20579e-22)
(1.10029 0.0140061 -6.7914e-29)
(1.10429 0.018698 7.06186e-29)
(1.09106 0.00271711 9.55707e-26)
(1.0958 0.00866807 0)
(1.08217 -0.0112441 0)
(1.08644 -0.00382814 0)
(1.07527 -0.0298638 1.55603e-24)
(1.0784 -0.0197963 -1.02438e-28)
(1.07135 -0.0553778 -1.07046e-28)
(1.07287 -0.0417168 1.11142e-28)
(1.07171 -0.0871479 0)
(1.07088 -0.0706572 0)
(1.07822 -0.122527 -1.89743e-24)
(1.07408 -0.104513 0)
(1.09269 -0.160532 1.86807e-24)
(1.08437 -0.141196 0)
(1.11662 -0.200664 6.5928e-23)
(1.10342 -0.18054 0)
(1.15012 -0.239886 -3.04211e-22)
(1.13222 -0.220771 -1.20631e-22)
(1.19011 -0.271612 -4.34813e-23)
(1.17004 -0.257172 1.53301e-22)
(1.22586 -0.284414 6.7244e-22)
(1.20943 -0.281032 4.3362e-23)
(1.10558 0.0239561 -4.74968e-22)
(1.08816 0.0627555 8.30969e-23)
(1.09611 0.0403566 5.32204e-22)
(1.12964 0.00813527 -6.9143e-22)
(1.11717 0.0134554 4.37261e-22)
(1.15651 0.0107785 2.97821e-22)
(1.14276 0.00743241 1.82519e-22)
(1.17962 0.025537 0)
(1.16869 0.0170197 -3.6942e-22)
(1.19418 0.044406 4.02047e-24)
(1.1882 0.0349451 1.35098e-28)
(1.19763 0.0596109 0)
(1.1973 0.0528485 0)
(1.19103 0.0670768 1.54644e-24)
(1.19539 0.0643049 0)
(1.17815 0.0684414 1.45447e-24)
(1.18509 0.0683029 0)
(1.16336 0.0661547 0)
(1.17078 0.0677507 0)
(1.14948 0.0591923 0)
(1.15625 0.0634283 0)
(1.13736 0.0462174 0)
(1.14324 0.0534287 0)
(1.12674 0.0299848 0)
(1.13187 0.0381819 -8.62956e-24)
(1.12176 0.022277 2.32493e-22)
(0.997081 0.0895679 5.75785e-22)
(1.08356 0.0909433 0)
(1.13052 -0.279497 1.70102e-22)
(1.23699 -0.280132 -8.98717e-22)
(1.11042 0.00896306 0)
(1.10885 0.00578362 2.03076e-22)
(1.10206 0.0130981 3.97219e-22)
(1.1059 0.0070913 -3.87127e-22)
(1.0716 0.0223192 -2.26844e-22)
(1.08954 0.01878 1.67445e-23)
(1.05231 0.0205926 -5.04653e-24)
(1.05656 0.0227388 1.9939e-22)
(1.07492 0.0158614 3.97045e-22)
(1.06004 0.0176687 -5.15488e-23)
(1.10021 0.0178715 0)
(1.09004 0.0160684 -3.84741e-22)
(1.10377 0.0204978 -4.6245e-22)
(0.469737 -0.012358 1.62415e-22)
(0.607905 -0.138556 3.58063e-28)
(0.581958 0.059042 -1.7024e-22)
(0.705641 -0.182401 0)
(0.819988 0.0937283 0)
(0.826411 -0.221965 0)
(1.082 0.124027 -8.24796e-23)
(0.998673 0.126573 -7.947e-24)
(0.962581 -0.247595 -3.22837e-22)
(1.24061 -0.267607 3.40238e-22)
(1.10897 -0.257761 1.2758e-21)
(1.10461 0.0249935 -3.84965e-22)
(1.10213 0.0230578 3.68583e-22)
(0.483941 -0.0702141 4.81651e-28)
(1.10816 0.0273012 8.56232e-25)
(1.10667 0.0264983 2.03137e-22)
(1.10843 0.0259193 9.8967e-23)
(1.1088 0.0271919 0)
(1.10462 0.0196749 -5.60568e-29)
(1.10709 0.0233911 -1.14306e-22)
(1.0972 0.00971663 0)
(1.10129 0.0150332 0)
(1.08793 -0.00201209 1.25429e-24)
(1.09265 0.00399445 0)
(1.07914 -0.0153145 0)
(1.08335 -0.00837286 0)
(1.07256 -0.0325354 -2.96405e-24)
(1.07548 -0.0232372 0)
(1.06948 -0.0560827 -1.52075e-24)
(1.0705 -0.0434877 0)
(1.07122 -0.0851637 0)
(1.06967 -0.0701157 0)
(1.07914 -0.117056 2.58094e-25)
(1.07432 -0.100892 0)
(1.09472 -0.150714 -2.94308e-25)
(1.08588 -0.133659 0)
(1.11964 -0.18581 -1.35088e-24)
(1.10593 -0.168198 9.90461e-29)
(1.15508 -0.219492 2.9898e-25)
(1.136 -0.203053 0)
(1.20115 -0.247187 6.81565e-23)
(1.17703 -0.234436 -5.90307e-23)
(1.25283 -0.261465 -5.31037e-22)
(1.22682 -0.256527 -1.85224e-22)
(1.29776 -0.25339 1.09134e-21)
(1.27712 -0.260459 -2.81355e-22)
(1.11792 0.0696957 -1.16915e-22)
(1.11045 0.122941 8.98621e-23)
(1.11209 0.0943988 0)
(1.13767 0.0349724 6.02437e-23)
(1.12683 0.0497712 -1.32897e-22)
(1.16136 0.0198469 4.90303e-23)
(1.14938 0.0250043 1.11476e-23)
(1.18214 0.0207876 -1.17732e-24)
(1.17227 0.0186062 2.3844e-23)
(1.19573 0.0315818 0)
(1.19004 0.0253389 0)
(1.19964 0.0454036 -1.95569e-24)
(1.19892 0.0385377 2.53838e-28)
(1.19425 0.0558913 -2.11932e-28)
(1.19798 0.0513497 2.24325e-28)
(1.18211 0.0603297 -7.65357e-26)
(1.18879 0.0588069 0)
(1.16705 0.060751 0)
(1.17472 0.0608449 0)
(1.15218 0.0589115 -1.19652e-24)
(1.15948 0.0601667 0)
(1.13882 0.052856 0)
(1.14531 0.0566089 0)
(1.12718 0.0407829 -9.55073e-25)
(1.13283 0.0475481 0)
(1.11723 0.0251611 1.76652e-24)
(1.12202 0.0330949 -7.95523e-24)
(1.10853 0.0109397 3.24803e-22)
(1.1127 0.0175855 0)
(1.10163 0.00153244 1.37854e-21)
(1.10491 0.00557523 -1.03084e-21)
(1.09911 -0.0010402 3.38281e-25)
(1.09691 0.0108083 0)
(1.09978 0.000816386 3.76748e-22)
(1.1014 0.00557972 1.73191e-23)
(1.06982 0.0186279 0)
(1.08538 0.0156348 0)
(1.05486 0.0166779 1.81045e-22)
(1.0575 0.0187628 4.42255e-29)
(1.07621 0.0127744 -9.51862e-23)
(1.06247 0.0141322 -3.19014e-22)
(1.09821 0.0154563 0)
(1.08964 0.0133795 2.73622e-22)
(1.08584 0.161126 1.56543e-24)
(1.11422 0.154505 -4.63797e-23)
(1.2358 -0.246322 -2.08722e-21)
(1.3127 -0.239216 -3.6164e-21)
(1.0996 0.0207807 3.5075e-22)
(1.10108 0.0181801 -1.77541e-22)
(0.423093 0.0301308 9.55124e-27)
(0.53551 -0.105692 0)
(0.571661 0.0992528 0)
(0.631142 -0.148416 2.91598e-27)
(0.827153 0.131391 1.72909e-24)
(0.757558 -0.187507 -1.1928e-22)
(1.00282 0.168821 -2.5618e-24)
(0.912117 -0.215253 0)
(1.1239 0.187995 -1.3391e-22)
(1.09514 0.201142 5.76327e-25)
(1.07536 -0.227317 -1.95374e-21)
(1.32213 -0.218747 3.89275e-21)
(1.2242 -0.217771 8.29411e-22)
(1.13859 0.175771 1.83948e-22)
(1.14046 0.222084 1.32245e-22)
(1.15522 0.203279 -2.8208e-22)
(1.32476 -0.192852 2.93607e-21)
(1.34457 -0.201204 -4.01925e-21)
(1.35808 -0.181763 -8.26666e-22)
(1.09558 0.0228801 1.60523e-22)
(1.09689 0.0184704 0)
(1.09344 0.020756 -1.87904e-22)
(0.417545 -0.0288903 4.32211e-28)
(1.09941 0.0266453 9.02817e-23)
(1.09746 0.0250361 3.40184e-22)
(1.10168 0.0279163 -1.93017e-22)
(1.10068 0.0277791 -8.92818e-23)
(1.10068 0.0248059 0)
(1.10155 0.0270329 0)
(1.09637 0.0167776 0)
(1.09892 0.0213463 0)
(1.08931 0.00560861 0)
(1.09309 0.0114171 0)
(1.08101 -0.0063622 0)
(1.08519 -0.000364142 0)
(1.07332 -0.0189428 -1.45933e-28)
(1.07698 -0.0124707 1.51628e-28)
(1.06787 -0.0346801 1.40786e-24)
(1.07021 -0.0262131 1.65832e-28)
(1.06609 -0.0560893 1.52075e-24)
(1.06644 -0.0446391 0)
(1.06917 -0.0824633 0)
(1.06696 -0.0688357 0)
(1.07811 -0.111068 2.3606e-25)
(1.07284 -0.0966295 0)
(1.09415 -0.140691 -2.64049e-25)
(1.08516 -0.125752 0)
(1.11879 -0.171002 1.35078e-24)
(1.10533 -0.155865 0)
(1.15316 -0.199435 1.53936e-24)
(1.13471 -0.185689 5.61751e-29)
(1.1977 -0.221862 -3.05868e-23)
(1.17426 -0.211706 0)
(1.25019 -0.233072 1.75683e-22)
(1.22339 -0.229215 3.55623e-23)
(1.30308 -0.227272 -1.04216e-21)
(1.27715 -0.232421 7.53154e-22)
(1.32576 -0.216341 3.54209e-21)
(1.1227 0.122001 1.80089e-22)
(1.12804 0.14834 -3.16156e-22)
(1.126 0.0765029 9.96719e-25)
(1.12233 0.0977609 2.81733e-23)
(1.14146 0.0453185 3.03621e-22)
(1.13272 0.0588098 -3.24898e-22)
(1.16062 0.0301564 1.10841e-24)
(1.15096 0.0357629 -1.13223e-23)
(1.17671 0.0281381 1.17638e-24)
(1.16936 0.0277708 5.85419e-28)
(1.18555 0.0344821 0)
(1.18216 0.0305769 0)
(1.18586 0.0437966 4.44496e-28)
(1.18675 0.0391176 -4.70371e-28)
(1.17861 0.0507916 0)
(1.18304 0.0478191 0)
(1.16641 0.0534263 -8.6504e-26)
(1.17291 0.0525769 0)
(1.15263 0.0536485 0)
(1.15954 0.0536837 0)
(1.13947 0.0523922 1.19652e-24)
(1.14591 0.0533091 0)
(1.12753 0.0470629 0)
(1.13335 0.0504424 0)
(1.11693 0.0357594 4.79472e-26)
(1.12206 0.0421231 2.48188e-28)
(1.10796 0.0209199 -1.71747e-24)
(1.11226 0.028501 0)
(1.10068 0.00731292 0)
(1.10412 0.013651 -1.00275e-25)
(1.09511 -0.00162054 -3.72943e-22)
(1.09758 0.00217027 -7.38595e-25)
(1.09265 -0.00424677 -3.74848e-22)
(1.0964 -4.06654e-06 6.55806e-22)
(1.09296 -0.00353561 -3.57178e-22)
(1.0923 0.00883475 0)
(1.09696 0.00410974 0)
(1.06846 0.0154462 2.03553e-26)
(1.08178 0.0130402 4.19356e-29)
(1.05704 0.0132511 2.12847e-26)
(1.05851 0.0152708 4.12101e-29)
(1.07638 0.00995147 2.01578e-23)
(1.06426 0.0109878 7.88944e-29)
(1.0956 0.0129249 1.56316e-22)
(1.08808 0.0107394 -1.05082e-22)
(1.09817 0.0157476 -1.054e-23)
(0.381013 0.0784435 -1.92589e-26)
(0.454081 -0.0615004 1.46979e-27)
(0.570724 0.141625 0)
(0.545902 -0.103951 -3.84494e-27)
(0.836306 0.173796 -2.11603e-24)
(0.681003 -0.144685 1.1947e-22)
(1.01002 0.214597 6.50924e-24)
(0.849633 -0.174856 1.08875e-22)
(1.11128 0.242721 -7.15264e-25)
(1.03386 -0.18982 0)
(1.17794 0.229703 3.39946e-22)
(1.16418 0.255115 0)
(1.20506 -0.184677 1.25432e-21)
(1.36687 -0.158856 -5.34154e-21)
(1.32238 -0.16299 -2.6896e-21)
(1.18221 0.204953 6.8483e-24)
(1.20676 0.253348 1.88306e-21)
(1.20842 0.222741 1.20324e-23)
(1.37058 -0.13421 -3.84409e-22)
(1.35942 -0.145172 -4.26858e-21)
(1.36784 -0.125908 -4.90873e-21)
(1.0942 0.0161424 0)
(1.09146 0.0183544 -5.75591e-22)
(1.09065 0.024215 2.99634e-22)
(1.08854 0.0223293 -3.13141e-22)
(0.347822 0.0210457 -2.6187e-27)
(1.09271 0.0275011 -1.54129e-22)
(1.09138 0.0262221 -1.642e-22)
(1.09315 0.0277863 2.12898e-23)
(1.09289 0.0282091 -8.3142e-23)
(1.09098 0.0233098 -3.5809e-25)
(1.09224 0.0262494 3.66278e-28)
(1.08647 0.0139855 0)
(1.08894 0.0191634 0)
(1.08021 0.00201381 0)
(1.08348 0.00814092 0)
(1.07331 -0.0100405 9.68465e-25)
(1.07675 -0.00410062 0)
(1.06707 -0.02191 0)
(1.07001 -0.015888 0)
(1.06294 -0.0361957 0)
(1.06464 -0.0285458 0)
(1.06238 -0.0554934 0)
(1.06213 -0.0451701 0)
(1.06649 -0.0792871 0)
(1.06381 -0.0669976 0)
(1.07599 -0.104868 1.40328e-24)
(1.07052 -0.0920084 0)
(1.09189 -0.130796 -2.35979e-25)
(1.08307 -0.117799 3.08654e-28)
(1.11549 -0.156768 0)
(1.10266 -0.143853 0)
(1.14773 -0.180626 -2.18919e-25)
(1.13051 -0.169183 -5.61751e-29)
(1.18875 -0.19861 -5.6763e-26)
(1.16721 -0.190604 1.21241e-29)
(1.2368 -0.206853 -1.6971e-22)
(1.21222 -0.20421 -6.58929e-26)
(1.28688 -0.200678 1.23625e-22)
(1.26222 -0.205745 4.9769e-23)
(1.33025 -0.17888 1.36739e-21)
(1.31002 -0.19146 -8.80696e-22)
(1.34694 -0.163313 4.80035e-21)
(1.14485 0.162331 3.78967e-24)
(1.16098 0.184243 4.02963e-24)
(1.12729 0.118102 -5.34288e-24)
(1.13383 0.139908 0)
(1.12626 0.0797675 -9.85663e-25)
(1.12491 0.0977675 -2.85298e-23)
(1.13625 0.0524572 0)
(1.13033 0.0644979 0)
(1.15007 0.03758 -1.78589e-25)
(1.14307 0.0435132 0)
(1.16183 0.033211 0)
(1.15649 0.0342794 0)
(1.16794 0.0360236 0)
(1.16569 0.0339476 0)
(1.16732 0.0417952 -1.54527e-24)
(1.16846 0.0388399 0)
(1.16056 0.0460335 0)
(1.1646 0.0442938 0)
(1.14991 0.0473484 -1.3834e-24)
(1.15553 0.046964 0)
(1.1382 0.047535 -1.17605e-24)
(1.14404 0.0474757 0)
(1.12701 0.0467195 -1.06588e-24)
(1.13251 0.0473988 7.24523e-29)
(1.11659 0.0418958 -9.58185e-25)
(1.1217 0.0450104 -5.25512e-28)
(1.10722 0.0312656 4.77618e-26)
(1.11175 0.0372593 0)
(1.09945 0.0172656 0)
(1.10312 0.0244196 0)
(1.09353 0.00450883 0)
(1.09625 0.0104198 1.00447e-25)
(1.08924 -0.00387485 3.34395e-22)
(1.09115 -0.000317293 7.25466e-25)
(1.08743 -0.0063018 -2.90958e-22)
(1.08718 -0.0061268 0)
(1.0838 -0.00786135 9.21565e-22)
(1.09293 -0.000533657 -3.44436e-22)
(1.09054 -0.0037008 -9.74191e-23)
(1.0882 0.00734563 -3.75998e-26)
(1.09278 0.00315788 -7.68628e-29)
(1.06755 0.012727 -3.93117e-26)
(1.07881 0.0109027 -7.81346e-29)
(1.05907 0.0102957 7.55734e-29)
(1.05964 0.0122622 -7.68419e-29)
(1.07643 0.00748469 3.78197e-23)
(1.06579 0.0082787 -7.37438e-29)
(1.0931 0.0107 -1.55612e-22)
(1.08659 0.00843319 -3.85385e-23)
(1.09528 0.0134955 -1.56892e-22)
(0.344857 0.129673 0)
(0.365868 -0.00838334 -5.36384e-28)
(0.576424 0.184906 0)
(0.45284 -0.0514262 -1.03328e-26)
(0.844164 0.220294 2.39516e-24)
(0.594024 -0.0950142 -6.94486e-25)
(1.02112 0.261946 -4.22551e-24)
(0.77904 -0.12967 4.13621e-24)
(1.13394 0.28372 -1.76334e-26)
(0.984377 -0.149464 1.04601e-23)
(1.19558 0.285765 0)
(1.17879 -0.149385 1.62194e-21)
(1.23927 0.236943 2.5232e-21)
(1.24171 0.272744 -4.57458e-21)
(1.31432 -0.133 -9.1978e-23)
(1.37228 -0.106068 5.1971e-21)
(1.37112 -0.10963 5.9389e-21)
(1.08848 0.0199761 2.9342e-23)
(0.276367 0.0769396 4.67298e-27)
(1.08501 0.0247306 -3.07981e-22)
(1.08351 0.0201084 1.74574e-21)
(1.08463 0.0229732 -1.07302e-21)
(1.08555 0.0275694 4.12007e-23)
(1.08548 0.026591 2.8649e-22)
(1.08442 0.0270133 -2.12624e-23)
(1.08513 0.0278732 3.83724e-23)
(1.08144 0.0215514 -8.66372e-23)
(1.08305 0.0249504 7.78801e-23)
(1.07697 0.0114415 -7.32654e-25)
(1.07929 0.0169535 3.77433e-28)
(1.07163 -0.000958385 -8.04317e-25)
(1.07434 0.00531854 -4.16408e-28)
(1.06614 -0.0129615 -8.90275e-26)
(1.06885 -0.0071202 0)
(1.06135 -0.024186 0)
(1.06358 -0.0185711 0)
(1.0585 -0.0371142 -1.00549e-24)
(1.05959 -0.030234 0)
(1.05899 -0.0544122 5.38652e-28)
(1.05825 -0.0451538 -5.59265e-28)
(1.06385 -0.0758209 5.49894e-28)
(1.06083 -0.0647569 -5.70738e-28)
(1.07363 -0.0987081 -5.3768e-28)
(1.06809 -0.0872445 5.57872e-28)
(1.08905 -0.121401 -1.93806e-24)
(1.08057 -0.110101 5.06779e-28)
(1.11118 -0.143591 6.21586e-25)
(1.09922 -0.132614 4.00619e-28)
(1.14069 -0.1635 -1.88728e-25)
(1.12501 -0.154029 0)
(1.1774 -0.177887 -3.28017e-25)
(1.1582 -0.171577 -5.40403e-29)
(1.21993 -0.18371 -1.05243e-24)
(1.19813 -0.182075 0)
(1.26416 -0.177796 -1.55907e-22)
(1.24234 -0.182406 0)
(1.30391 -0.158977 -8.29444e-22)
(1.28502 -0.170002 8.63175e-22)
(1.33257 -0.13037 0)
(1.31966 -0.145396 -1.0903e-22)
(1.34811 -0.0981304 -4.64865e-21)
(1.34189 -0.11424 4.41952e-21)
(1.18021 0.182947 -6.33365e-23)
(1.23051 0.206535 -9.16557e-22)
(1.20347 0.196205 8.84577e-22)
(1.14571 0.149386 -5.04654e-24)
(1.16092 0.166984 -1.07401e-24)
(1.12762 0.113549 0)
(1.13479 0.131424 0)
(1.12332 0.0813185 -5.23671e-25)
(1.12394 0.0966407 0)
(1.12866 0.0573702 0)
(1.12515 0.0681492 0)
(1.13783 0.0429627 -9.29758e-25)
(1.1331 0.0490233 0)
(1.14598 0.0369156 0)
(1.14226 0.0390133 0)
(1.15021 0.0370667 0)
(1.14868 0.0363893 0)
(1.14931 0.0399845 1.53164e-25)
(1.15042 0.0384392 0)
(1.14348 0.041957 0)
(1.14693 0.0412236 0)
(1.13456 0.0422599 -1.2397e-27)
(1.13924 0.042216 1.31254e-27)
(1.12487 0.0424427 1.17492e-24)
(1.12971 0.0423093 1.2026e-27)
(1.11549 0.0418905 2.06254e-24)
(1.12014 0.0424355 1.02276e-27)
(1.10652 0.0373891 5.70124e-26)
(1.11095 0.0403217 0)
(1.09838 0.0273663 8.6005e-25)
(1.1023 0.0330095 -8.89316e-28)
(1.09183 0.0142577 7.54518e-28)
(1.09487 0.0209461 -8.00126e-28)
(1.08722 0.00237083 0)
(1.08928 0.0078892 0)
(1.08416 -0.00543142 -5.36511e-23)
(1.0855 -0.00211147 8.41544e-23)
(1.08215 -0.00888757 0)
(1.08309 -0.0076346 -1.02718e-23)
(1.08165 -0.00934509 0)
(1.08551 -0.00579259 0)
(1.08022 -0.00850917 -1.34753e-23)
(1.08277 -0.00738991 -2.7852e-22)
(1.0897 -0.000745117 3.76303e-23)
(1.08806 -0.00362204 7.43406e-23)
(1.08468 0.00622148 2.58373e-27)
(1.08907 0.00258744 0)
(1.06707 0.0104256 1.8992e-26)
(1.07645 0.0091384 0)
(1.06097 0.00782513 0)
(1.06089 0.00972161 0)
(1.07634 0.00544193 -4.18351e-27)
(1.06707 0.00603469 0)
(1.09057 0.00873221 0)
(1.08505 0.00647882 0)
(1.09147 0.0141655 0)
(1.09241 0.0115119 -6.67243e-23)
(1.0855 0.0184831 0)
(1.08889 0.0163918 1.27748e-22)
(1.27405 0.245594 -5.72887e-21)
(1.25985 0.21124 0)
(1.37392 -0.0872694 -3.81812e-22)
(1.35122 -0.0826025 -3.18641e-22)
(0.317052 0.181454 -1.12132e-25)
(0.272884 0.0503588 0)
(1.07823 -0.00986568 0)
(0.585745 0.22826 -3.38394e-25)
(0.352104 0.00591891 9.14961e-27)
(1.08112 0.0205408 3.70883e-22)
(1.0842 0.0168151 0)
(1.08109 0.018272 0)
(0.850395 0.269034 -5.52543e-25)
(0.499737 -0.0422101 9.18113e-25)
(1.03607 0.307883 0)
(0.700755 -0.0834217 -1.04412e-23)
(1.16317 0.321601 0)
(0.92879 -0.110014 0)
(1.2342 0.311572 0)
(1.14982 -0.116074 -7.41003e-22)
(1.28229 0.285552 -8.72847e-22)
(1.30442 -0.104344 -1.97045e-22)
(1.29142 0.211327 0)
(1.31171 0.247437 3.41607e-21)
(1.36854 -0.0871626 3.63861e-21)
(1.37316 -0.0701793 -6.25746e-21)
(1.35198 -0.0682595 5.73964e-21)
(0.206875 0.135443 -2.96814e-27)
(1.08019 0.0247637 1.43408e-22)
(1.08018 0.022916 0)
(1.0791 0.0270084 -3.58943e-23)
(1.07973 0.0262762 -6.62442e-23)
(1.07667 0.0257073 0)
(1.07806 0.0269192 3.43573e-23)
(1.07301 0.0196025 0)
(1.07499 0.023288 1.04405e-23)
(1.0687 0.00914231 7.32291e-25)
(1.07094 0.0148113 0)
(1.06421 -0.00335734 1.53904e-24)
(1.06646 0.0029425 0)
(1.05997 -0.0151862 -8.51316e-26)
(1.06204 -0.00947053 0)
(1.05652 -0.0258085 -8.46473e-25)
(1.0581 -0.0205622 -8.94917e-28)
(1.05482 -0.0374953 1.00458e-24)
(1.05537 -0.031322 9.4646e-28)
(1.05617 -0.0529293 -9.03595e-25)
(1.05504 -0.0446647 9.21354e-28)
(1.06155 -0.0721302 -9.43692e-28)
(1.05832 -0.0621949 9.22491e-28)
(1.07139 -0.092595 -8.1829e-25)
(1.0659 -0.0823764 9.32984e-28)
(1.08619 -0.112467 1.5394e-24)
(1.07813 -0.102638 0)
(1.10676 -0.131432 -1.87227e-25)
(1.09572 -0.122099 5.99319e-28)
(1.13352 -0.148061 -3.04328e-25)
(1.11938 -0.140212 0)
(1.16605 -0.159549 3.27834e-25)
(1.14913 -0.154605 2.43284e-28)
(1.20303 -0.163504 0)
(1.18413 -0.162611 0)
(1.24125 -0.157729 -2.10442e-22)
(1.22236 -0.161931 2.2191e-22)
(1.27585 -0.141659 0)
(1.25948 -0.150908 1.40163e-28)
(1.30188 -0.11763 -1.40365e-22)
(1.29032 -0.130354 2.17898e-22)
(1.31713 -0.0907025 -2.15479e-21)
(1.3108 -0.104335 2.14931e-21)
(1.32255 -0.06499 0)
(1.32077 -0.0774351 3.17154e-22)
(1.21845 0.179578 -4.27923e-22)
(1.2697 0.180632 3.81765e-22)
(1.24344 0.182095 1.3038e-21)
(1.17487 0.162411 -4.47524e-22)
(1.19544 0.172522 4.21574e-22)
(1.14369 0.136656 -1.35165e-22)
(1.15767 0.150227 5.86926e-22)
(1.12569 0.107704 -4.21127e-26)
(1.13311 0.122273 -1.38793e-24)
(1.11929 0.0808984 5.23671e-25)
(1.12125 0.0937824 0)
(1.12104 0.0600423 2.22641e-27)
(1.11941 0.0695941 -2.35399e-27)
(1.12649 0.0463636 -2.63959e-27)
(1.12357 0.0523312 2.79138e-27)
(1.13177 0.0393381 -6.54094e-25)
(1.12933 0.0420788 0)
(1.13451 0.0376241 2.73284e-27)
(1.13355 0.0379568 -2.89124e-27)
(1.13341 0.0383362 1.3895e-24)
(1.13447 0.0378985 2.75925e-27)
(1.12841 0.0385262 0)
(1.13133 0.0385782 0)
(1.12105 0.0380762 1.09176e-24)
(1.12489 0.0382781 -7.30488e-29)
(1.11311 0.0382392 -2.10213e-27)
(1.11708 0.0380696 2.22624e-27)
(1.10526 0.0377943 -6.89968e-26)
(1.10917 0.0382873 0)
(1.09757 0.0334947 9.01669e-25)
(1.10138 0.0362937 0)
(1.09059 0.0240479 -7.64805e-25)
(1.09394 0.0293442 0)
(1.0852 0.0118526 1.4287e-27)
(1.08767 0.0180527 -1.51493e-27)
(1.08176 0.000859027 0)
(1.08327 0.00598143 0)
(1.07984 -0.00635831 5.10594e-23)
(1.08068 -0.0032832 8.07101e-23)
(1.0788 -0.00948919 -2.97225e-22)
(1.07928 -0.00838172 1.40648e-22)
(1.07851 -0.00989426 0)
(1.07948 -0.00784796 -6.37709e-23)
(1.07754 -0.00835294 2.3333e-22)
(1.08373 -0.00530184 0)
(1.08158 -0.00677941 6.2621e-23)
(1.08679 -0.000701673 -1.3585e-25)
(1.0857 -0.00329739 0)
(1.08174 0.00534389 3.4829e-26)
(1.08584 0.00225177 2.67122e-28)
(1.06695 0.0084926 0)
(1.07464 0.00766877 0)
(1.06272 0.00581487 0)
(1.0622 0.00761504 0)
(1.07606 0.00380936 4.15899e-27)
(1.06815 0.00423964 0)
(1.08808 0.00700358 0)
(1.08341 0.00485774 0)
(1.08897 0.0122301 -1.20109e-22)
(1.0897 0.00966006 6.44491e-23)
(1.08677 0.0145178 -1.52493e-24)
(1.3236 0.204585 0)
(1.29615 0.17393 -1.12706e-21)
(1.35144 -0.0554772 -4.2268e-21)
(1.32303 -0.0534776 5.59305e-21)
(0.2975 0.230373 5.26889e-27)
(0.177672 0.1104 1.2719e-27)
(1.0776 0.0208158 -5.88949e-22)
(1.07806 0.0190202 3.32282e-22)
(0.594335 0.270938 1.23158e-24)
(0.247573 0.0626102 0)