/*--------------------------------*- C++ -*----------------------------------*\
  =========                 |
  \\      /  F ield         | OpenFOAM: The Open Source CFD Toolbox
   \\    /   O peration     | Website:  https://openfoam.org
    \\  /    A nd           | Version:  10
     \\/     M anipulation  |
\*---------------------------------------------------------------------------*/
FoamFile
{
    format      ascii;
    class       volScalarField;
    location    "7.5";
    object      p;
}
// * * * * * * * * * * * * * * * * * * * * * * * * * * * * * * * * * * * * * //

dimensions      [0 2 -2 0 0 0 0];

internalField   nonuniform List<scalar> 
6397
(
0.242796
0.229592
0.0149131
0.0142567
0.0140511
0.0146922
0.450663
0.203821
-0.367186
-0.386601
0.356549
0.245182
-0.0100268
-0.0122012
-0.0207235
-0.324017
-0.317401
-0.322394
0.840477
0.778393
0.745289
-0.432706
-0.392456
-0.392046
-0.00948748
-0.0112652
-0.00729329
0.0224236
0.023672
0.0211272
0.0221978
0.0126541
0.0132067
0.0136399
0.0107158
0.0112398
0.011696
0.012205
0.00933483
0.00886738
0.00977056
0.0102662
0.0201285
0.0162412
0.0169913
0.0153722
0.0151232
0.0158155
0.00688955
0.00672953
0.00615362
0.00596768
0.00638292
0.331939
0.319654
0.139503
0.15048
-0.0255571
0.0344125
0.0321399
0.0368651
0.039493
0.0423451
0.0454967
0.0489678
0.0527494
0.0568654
0.0612893
0.0322736
0.030076
0.0302645
0.0345156
0.0369232
0.0395228
0.0423785
0.0455411
0.0490387
0.0528841
0.0570926
0.0616719
0.0284922
0.0281943
0.0660173
0.0666148
0.0267715
0.0266131
0.0709706
0.0718321
0.025219
0.0250776
0.0760426
0.0772559
0.0238265
0.0225664
0.0812212
0.0830141
0.0252306
0.0225843
0.0238587
0.028424
0.0267363
0.0321404
0.0302051
0.0365726
0.0342562
0.0418706
0.0390985
0.0483837
0.0449501
0.0564142
0.052199
0.0660252
0.061011
0.0770221
0.0714086
0.0827506
0.0689678
0.0781769
0.0735055
0.0598875
0.0643142
0.0518127
0.0557229
0.0448
0.0481363
0.0389195
0.0416995
0.0339644
0.0363151
0.0298039
0.0317741
0.0262592
0.027903
0.0234211
0.0247746
0.0214341
0.0213257
0.0213828
0.0888404
0.0889188
0.0740003
0.0830467
0.0782438
0.0949502
0.0853472
0.0908356
0.0208368
0.0224481
0.0211609
0.0198526
0.086646
0.0250649
0.0237083
0.028093
0.0265111
0.0316649
0.0298153
0.0358731
0.033668
0.0409152
0.0382652
0.0471212
0.0438406
0.054815
0.0507559
0.0640985
0.0592398
0.0744809
0.0692518
0.079809
0.0655559
0.0698153
0.057415
0.0614535
0.049972
0.0536893
0.0435001
0.0466999
0.0379992
0.0407063
0.0332868
0.0356133
0.0292732
0.0312651
0.0259369
0.0275512
0.0231099
0.0244598
0.0219252
0.0203611
0.0203018
0.0199692
0.0201945
0.0825056
0.08804
0.0950832
0.0792387
0.0836692
0.0961554
0.101176
0.0759717
0.0863912
0.0791585
0.0191728
0.0188995
0.0188624
0.0196708
0.0185926
0.0195206
0.020514
0.0923363
0.0221317
0.0208951
0.0247419
0.0234073
0.0276665
0.0261443
0.0310562
0.0292984
0.0350292
0.0329574
0.0397595
0.0372949
0.0454984
0.0424979
0.052521
0.0488495
0.0609678
0.0566284
0.0700298
0.0655123
0.0746947
0.0688209
0.0724441
0.0614448
0.0651458
0.0542938
0.0578587
0.0477796
0.0510123
0.0420257
0.0448188
0.0370065
0.039442
0.0326294
0.0347526
0.0288393
0.030675
0.0255858
0.0271515
0.0228128
0.0241464
0.0215916
0.0192679
0.0192982
0.019099
0.0876495
0.0930173
0.101631
0.0819232
0.0902474
0.101029
0.107109
0.0178425
0.01761
0.0181702
0.0179646
0.0201706
0.0191282
0.0193806
0.0183447
0.0910028
0.0934434
0.105096
0.0185813
0.0980578
0.0217582
0.0205476
0.0242871
0.0229998
0.0271295
0.0256769
0.0303482
0.0286832
0.0340758
0.0321422
0.0384428
0.0361715
0.0436208
0.0409231
0.0497951
0.0465757
0.0569782
0.0532954
0.0645747
0.0607737
0.0719045
0.0683028
0.0778475
0.0751115
0.0807898
0.0798333
0.069079
0.0735997
0.0715421
0.0633225
0.0663048
0.0570365
0.0602464
0.0509607
0.0539927
0.0453256
0.0480791
0.0402794
0.0427325
0.0357781
0.0379678
0.031772
0.0337179
0.0282367
0.0299492
0.0251473
0.0266334
0.022448
0.0237393
0.021258
0.0181992
0.0182698
0.0180525
0.0842368
0.0750385
0.0945068
0.0802443
0.0978095
0.107748
0.0173658
0.017714
0.0197515
0.0187484
0.0937498
0.112474
0.0756076
0.0860424
0.107937
0.0938384
0.0775924
0.0182035
0.103995
0.0190746
0.0170696
0.0180521
0.0213142
0.0201721
0.0237539
0.0224953
0.0264731
0.0250752
0.0295149
0.0279478
0.0329739
0.0311891
0.036933
0.0348858
0.0414982
0.0391351
0.0467763
0.0440454
0.0526904
0.0496661
0.0588101
0.0557601
0.064227
0.0617169
0.0680993
0.0665354
0.0684136
0.0689695
0.062567
0.0663832
0.0654551
0.0658665
0.0661228
0.0624025
0.0641601
0.0578977
0.0603361
0.0527956
0.0554223
0.0476381
0.050195
0.0428137
0.0451736
0.0384152
0.0405644
0.0344114
0.0363678
0.0307795
0.0325511
0.0275169
0.0291036
0.0245999
0.0260171
0.022018
0.0232626
0.0208508
0.0753103
0.0646687
0.0724412
0.0562358
0.017388
0.0178096
0.0168554
0.0166118
0.0171385
0.0170381
0.0171694
0.0172094
0.0168683
0.0170533
0.0164116
0.0166593
0.0161293
0.102458
0.113616
0.0966885
0.116677
0.0868958
0.108516
0.0623736
0.0739764
0.0899196
0.0467732
0.063759
0.0167396
0.0158241
0.109612
0.0187053
0.0177063
0.0208264
0.0197496
0.02316
0.0219665
0.0257261
0.0244117
0.0285691
0.0271109
0.0317346
0.0301101
0.0352627
0.0334518
0.0392035
0.0371788
0.043616
0.0413515
0.0483839
0.0459712
0.0531097
0.050791
0.0569786
0.0552121
0.0590563
0.0583195
0.0572124
0.0588598
0.0493676
0.0541488
0.0323998
0.0422738
0.0567399
0.0516963
0.0548393
0.0577298
0.0576647
0.0559785
0.0571509
0.0527901
0.0545789
0.0486943
0.0508046
0.0444126
0.0465441
0.0403239
0.0423349
0.0365146
0.0383856
0.0329758
0.0347132
0.0297028
0.0313067
0.026705
0.0281701
0.0239871
0.0253108
0.0215329
0.0227251
0.0193474
0.0204081
0.0173989
0.0183401
0.0165412
0.0159956
0.0155074
0.0158125
0.0161731
0.0160966
0.0161784
0.016211
0.0159364
0.0160965
0.0154993
0.0157501
0.0587409
0.0472312
0.0337547
0.0194412
0.0149572
0.0152365
0.106698
0.118528
0.0990234
0.118792
0.0869641
0.10614
0.0715576
0.0822221
0.041237
0.053573
0.0504848
0.00298225
0.0162476
0.0307004
0.0334471
0.0224464
-0.0178966
-0.00704205
-0.0257163
0.0146527
0.0141159
0.0138728
0.114452
0.0163925
0.015493
0.0182785
0.0173215
0.0202971
0.0192641
0.0225004
0.0213748
0.0249038
0.0236768
0.0275277
0.0261876
0.0303884
0.0289289
0.0334873
0.0319089
0.0368317
0.035128
0.0404447
0.0386062
0.0441954
0.0423172
0.0476909
0.0460159
0.0501628
0.049105
0.0506368
0.0507263
0.047315
0.049579
0.0383341
0.0437332
0.0208269
0.0307202
0.00823169
0.0421358
0.0371225
0.0483296
0.0458546
0.0505125
0.0498962
0.0500701
0.0505907
0.0478942
0.0491474
0.044738
0.0463895
0.0412677
0.0430105
0.0378533
0.0395438
0.034592
0.0362032
0.0314909
0.0330218
0.0285601
0.0300036
0.0258259
0.0271674
0.0233023
0.0245374
0.0210026
0.022123
0.0188918
0.0199243
0.0169805
0.0179076
0.0161117
0.0147644
0.0144324
0.0151077
0.0149761
0.0152543
0.0151933
0.0152493
0.0152751
0.0150391
0.0151757
0.0146239
0.0148565
0.0143699
0.110093
0.121734
0.100361
0.117731
0.0858472
0.0994122
0.0675682
0.0690712
0.0464354
0.031405
0.0121329
0.0233769
-0.00751589
-0.0482191
-0.0440042
0.00327483
-0.000555545
-0.00884505
-0.0741428
-0.0503981
-0.0719188
0.0132978
0.0130779
0.0143107
0.0135525
0.118112
0.0160031
0.0151336
0.0178048
0.016896
0.0197175
0.0187363
0.0217878
0.0207342
0.0240179
0.0228829
0.0264136
0.0251957
0.0289683
0.0276729
0.0316563
0.030298
0.0344533
0.0330421
0.0373382
0.0358898
0.0402088
0.038796
0.0426473
0.0415192
0.043939
0.0434849
0.0431175
0.0438635
0.0388178
0.0414816
0.0290876
0.0348157
0.0120836
0.0216282
-0.0142683
0.000220489
-0.0310453
0.0217665
0.0134855
0.0338053
0.0284835
0.0408668
0.0379475
0.0439761
0.0428069
0.0445043
0.0445058
0.0432515
0.0440464
0.040953
0.0421878
0.0382238
0.0396118
0.0354251
0.0368222
0.0326684
0.0340399
0.0299751
0.0313129
0.0273688
0.0286598
0.0248885
0.0261108
0.0225694
0.0237096
0.0204117
0.0214727
0.0184066
0.0193797
0.0165567
0.0174577
0.0157107
0.013402
0.0130428
0.0139609
0.0137059
0.0142364
0.0141276
0.0143723
0.0143189
0.0143578
0.0143852
0.0141637
0.0142885
0.0138001
0.0140022
0.0135538
0.112063
0.122139
0.100144
0.11222
0.082993
0.0865868
0.0614275
0.0485159
0.0367391
0.00487647
0.0103202
-0.0380475
-0.0231383
-0.0160589
-0.0753426
-0.0951689
-0.103205
0.0128923
0.119621
0.0139415
0.0124422
0.0131587
0.0155819
0.0147566
0.0172937
0.0164336
0.0191036
0.0181741
0.0210314
0.0200509
0.0230836
0.022043
0.0252492
0.0241536
0.0275049
0.0263685
0.0298073
0.0286536
0.032111
0.0309611
0.034369
0.0332509
0.0364525
0.0354479
0.0379849
0.0373217
0.0383006
0.0383412
0.036501
0.0377248
0.0314664
0.0344592
0.0216378
0.0272466
0.00539296
0.0143818
-0.0186141
-0.0055824
-0.0503624
-0.0336192
-0.0874834
-0.068401
-0.00328086
-0.0277487
-0.0146338
0.014577
0.00637726
0.0266213
0.0212232
0.0341346
0.0308892
0.037999
0.036432
0.0393401
0.0389261
0.0389055
0.0392959
0.0373722
0.0382341
0.0353102
0.0363784
0.0330667
0.0341992
0.0307668
0.0319207
0.0284494
0.0296081
0.0261519
0.0272961
0.0239223
0.0250261
0.0217977
0.0228462
0.0197895
0.0207784
0.0178971
0.0188199
0.0161297
0.0169999
0.0145037
0.015295
0.0138008
0.0127062
0.0120856
0.0124199
0.0131485
0.012947
0.0133982
0.0132985
0.0135234
0.0134758
0.0135032
0.0135325
0.0133302
0.0134378
0.0130121
0.0131938
0.0125248
0.0127788
0.0120956
0.0122579
-0.039698
-0.0423969
-0.119593
-0.106692
0.111845
0.118451
0.0127722
0.097674
0.100648
0.0118976
0.0111876
0.0109078
0.0776962
0.0659963
0.0523705
0.0193846
0.0236973
-0.0304059
-0.00626226
-0.075992
-0.0346366
-0.111869
-0.0586656
-0.0585613
-0.13456
-0.143821
-0.125256
0.11793
0.0135727
0.0127876
0.015135
0.0143486
0.0167526
0.0159413
0.0184534
0.0175985
0.0202425
0.0193354
0.0221162
0.0211702
0.0240548
0.0230792
0.0260242
0.0250388
0.0279697
0.0270038
0.0298304
0.0289139
0.0315363
0.0307089
0.0329417
0.0322905
0.0337034
0.0334332
0.0332215
0.0336599
0.0307014
0.0322655
0.0252035
0.0283842
0.0155375
0.0209596
0.000354326
0.00870169
-0.0210485
-0.00953109
-0.0484986
-0.0341397
-0.0795459
-0.0637795
-0.109623
-0.0949039
-0.0303033
-0.0573306
-0.0432557
-0.00812857
-0.0186122
0.00867805
0.00100359
0.0205192
0.0151734
0.0281841
0.024789
0.0326048
0.0307389
0.0345981
0.0338504
0.0348549
0.0348994
0.0339897
0.0345236
0.032524
0.033305
0.0307818
0.0316751
0.0288976
0.0298529
0.0269274
0.0279199
0.0249214
0.0259263
0.0229313
0.0239216
0.0209981
0.0219561
0.0191438
0.0200603
0.0173692
0.0182487
0.0156804
0.0165239
0.0141067
0.014871
0.0134049
0.0114823
0.0111515
0.0119833
0.0117593
0.0123603
0.0121836
0.0125925
0.0124965
0.0127068
0.0126649
0.0126842
0.0127134
0.0125287
0.0126228
0.0122357
0.0124015
0.011792
0.012033
0.0115181
-0.0764213
-0.0722496
-0.142412
-0.123063
0.108361
0.109202
0.0114233
0.010669
0.0920883
0.081375
0.0689753
0.0360646
0.0394084
-0.0196144
0.00646329
-0.075065
-0.0268953
-0.121396
-0.0565245
-0.152258
-0.0796787
-0.166569
-0.0876743
-0.0953362
-0.166632
-0.0802573
-0.0931487
-0.103475
0.0101719
-0.157025
-0.134215
0.111746
0.0131448
0.0123111
0.0146606
0.0139066
0.0161901
0.0154182
0.0177852
0.0169806
0.0194326
0.0186016
0.0211288
0.0202761
0.022847
0.0219874
0.0245452
0.023702
0.0261624
0.0253681
0.0276262
0.0269176
0.0288495
0.028275
0.0296762
0.0293257
0.0297919
0.0298492
0.0286698
0.0294219
0.0256297
0.0274302
0.0198936
0.0231452
0.0105474
0.0157243
-0.00334712
0.00419808
-0.0222911
-0.0121874
-0.0459433
-0.0336566
-0.0719417
-0.0589586
-0.0963752
-0.0845563
-0.115665
-0.106805
-0.0548746
-0.067457
-0.031452
-0.0427488
-0.0115701
-0.0210329
0.00397197
-0.00328098
0.0153241
0.0101618
0.0229833
0.0195412
0.0277549
0.0256839
0.0302554
0.0292424
0.0310895
0.0308407
0.0308064
0.0310525
0.0298706
0.0303956
0.028579
0.0292567
0.0270726
0.0278468
0.0254219
0.026261
0.0236888
0.0245607
0.0219271
0.0228086
0.0201797
0.0210497
0.0184743
0.0193209
0.0168235
0.0176417
0.0152359
0.0160229
0.0137074
0.0144599
0.0123623
0.0129907
0.0117705
0.0108398
0.0105439
0.0112723
0.011071
0.0116022
0.0114448
0.0118185
0.0117266
0.0119222
0.0118854
0.0118987
0.0119266
0.0117515
0.0118404
0.0114733
0.0116294
0.0110509
0.011286
0.0103867
0.0107666
0.00998191
0.0100936
0.100396
0.0928783
-0.122184
-0.142873
0.00987892
0.00942842
0.00935175
-0.100426
-0.105313
0.0823111
0.0528238
0.0556211
-0.00445145
0.0214365
-0.0691157
-0.0158276
-0.128571
-0.051916
-0.172154
-0.0816577
-0.19423
-0.102658
-0.197164
-0.105735
-0.093738
-0.102679
-0.117218
-0.114851
-0.186461
-0.11917
0.00918922
0.0107743
0.00893178
0.0996933
0.0111158
0.010437
0.0126646
0.0118755
0.0141579
0.0134213
0.0156114
0.0148813
0.0170979
0.0163505
0.0186098
0.0178514
0.0201331
0.0193714
0.0216396
0.0208909
0.0230828
0.0223725
0.0243986
0.023761
0.0255074
0.0249837
0.0263084
0.0259527
0.0266438
0.0265469
0.026225
0.0265514
0.0245971
0.0255926
0.0211902
0.0231492
0.0153693
0.0186177
0.00643284
0.0113271
-0.00622123
0.0005844
-0.0228587
-0.0140473
-0.0431335
-0.0326338
-0.0649475
-0.0540824
-0.0850268
-0.0754849
-0.0934231
-0.073146
-0.0837222
-0.0518503
-0.0624336
-0.0316593
-0.0415096
-0.0140056
-0.0224647
0.000163613
-0.00652539
0.0108728
0.00593098
0.0184263
0.0149954
0.0234017
0.0211975
0.0262913
0.0250687
0.027604
0.0271091
0.0278215
0.0278186
0.0273508
0.0276499
0.026462
0.0269462
0.0252987
0.0259079
0.0239435
0.0246401
0.022465
0.0232149
0.0209194
0.0216974
0.0193515
0.020136
0.0177927
0.0185697
0.0162604
0.0170227
0.0147655
0.0155083
0.0133137
0.0140301
0.0119658
0.0126248
0.011355
0.00958484
0.00924881
0.0101734
0.00990157
0.0105731
0.0103848
0.0108742
0.0107313
0.0110744
0.0109882
0.0111683
0.0111357
0.0111441
0.0111711
0.0110017
0.0110879
0.0107352
0.0108845
0.0103176
0.0105481
0.00976185
0.0100481
0.00947147
-0.168819
0.00876515
-0.126458
-0.108216
0.086753
0.0680734
0.0669214
0.0139093
0.036332
-0.0558313
-0.148695
-0.00268602
-0.128165
-0.0438703
-0.18862
-0.0813745
-0.225281
-0.110056
-0.0955336
-0.0992723
-0.115233
-0.109623
-0.234824
-0.126885
-0.127039
-0.22422
-0.133842
-0.134437
-0.20211
0.00819884
0.00842503
0.00835968
-0.12851
-0.109545
0.00804871
0.0804416
0.00967283
0.00849541
0.00910204
0.0108424
0.010239
0.0122175
0.0115108
0.0136412
0.0129353
0.0150235
0.0143336
0.0164043
0.0157136
0.0177822
0.0170945
0.019139
0.0184648
0.0204436
0.0198003
0.0216485
0.021062
0.0226882
0.0221933
0.0234794
0.02312
0.0239132
0.023748
0.0238329
0.023949
0.0229778
0.0235214
0.0209611
0.0221396
0.0173133
0.0193677
0.0115249
0.0147145
0.00306431
0.0076526
-0.0084447
-0.00230558
-0.0230588
-0.0153806
-0.0403351
-0.0314345
-0.0586193
-0.0495217
-0.0752181
-0.0673
-0.0875135
-0.0821283
-0.0931856
-0.0912888
-0.108797
-0.0925872
-0.0936512
-0.0831898
-0.0900667
-0.0664533
-0.075131
-0.0486486
-0.0575648
-0.0313557
-0.0398327
-0.0157852
-0.0232868
-0.00291037
-0.00903956
0.00709437
0.0024305
0.0144452
0.0110719
0.0195109
0.0172321
0.0226843
0.0213023
0.0243856
0.023688
0.0250279
0.0248121
0.0249629
0.0250639
0.0244333
0.024744
0.0235818
0.0240404
0.022499
0.0230637
0.0212584
0.0218937
0.0199173
0.0205972
0.0185215
0.0192237
0.0171046
0.0178143
0.0156878
0.0163954
0.0142861
0.0149846
0.012915
0.0135953
0.0115794
0.0122338
0.010373
0.0109505
0.00982495
0.0089788
0.00868763
0.00951062
0.00926158
0.00988832
0.00971031
0.0101717
0.0100396
0.0103581
0.0102779
0.0104436
0.0104143
0.0104185
0.010445
0.0102812
0.0103642
0.0100263
0.0101691
0.00963861
0.00984899
0.00919565
0.00941304
0.00878205
0.00897842
0.00852857
0.0665695
0.0338378
-0.0893812
-0.0789589
-0.0755292
0.0446711
-0.0354377
-0.177091
0.00982965
-0.11669
-0.0339442
-0.193913
-0.152106
-0.100897
-0.086182
-0.0845299
-0.0998857
-0.0780137
-0.251258
-0.118014
-0.114972
-0.276224
-0.1059
-0.12819
-0.134234
-0.139639
-0.270812
-0.146726
-0.15163
-0.245742
-0.153159
0.00819096
0.00789696
0.00760229
0.00765669
0.00882572
0.00786847
0.0073188
0.0531752
0.00935032
0.00877142
0.0105244
0.0099334
0.0118095
0.011152
0.0131301
0.0124684
0.0144333
0.0137851
0.0157111
0.0150753
0.0169582
0.0163393
0.018155
0.0175645
0.0192687
0.0187246
0.0202514
0.0197797
0.021038
0.0206734
0.0215444
0.0213316
0.0216588
0.0216576
0.0212286
0.0215225
0.0200212
0.0207382
0.0177131
0.0190248
0.0139244
0.0160246
0.00825537
0.0113456
0.000317178
0.00458467
-0.0101165
-0.00459041
-0.0229617
-0.0162636
-0.0376705
-0.0301455
-0.0529539
-0.0453585
-0.0665207
-0.0601534
-0.0764428
-0.0721699
-0.0806247
-0.0792594
-0.0806117
-0.0832066
-0.0857156
-0.0737837
-0.0791512
-0.0603155
-0.0674015
-0.0454841
-0.0529498
-0.03074
-0.0380503
-0.0170574
-0.0236875
-0.00541439
-0.0109896
0.00388552
-0.000485348
0.0109588
0.0076817
0.0160313
0.0137208
0.0194037
0.0179039
0.0214172
0.0205541
0.0224178
0.0220208
0.0227051
0.0226329
0.0224949
0.0226504
0.0219263
0.0222476
0.0210946
0.0215374
0.0200759
0.0206037
0.0189284
0.0195152
0.0176965
0.0183202
0.0164165
0.0170607
0.0151123
0.0157663
0.0138018
0.0144572
0.0125017
0.013147
0.0112074
0.0118453
0.00997202
0.0105883
0.00938923
0.00786253
0.00740551
0.00762411
0.00838144
0.00812633
0.00886258
0.0086363
0.00922262
0.00905332
0.00949237
0.00936785
0.00966724
0.00959214
0.00974561
0.0097191
0.00972044
0.00974608
0.00958999
0.00966856
0.0093528
0.00948475
0.00901384
0.00919417
0.00865164
0.00882659
0.00825625
0.00847563
0.00799125
-0.0846666
-0.0703737
0.0389837
-0.00984631
-0.213105
0.0145028
-0.0937558
-0.0808662
-0.0679436
-0.0622681
-0.0753448
-0.0249593
-0.183911
-0.181429
-0.0962969
-0.072923
-0.261699
-0.118056
-0.118099
-0.310943
-0.101466
-0.152247
-0.138645
-0.151895
-0.320636
-0.125757
-0.156917
-0.17061
-0.298702
-0.170065
-0.175474
0.0070146
0.00717828
-0.0785558
-0.064095
0.0175875
0.00786945
0.00677411
0.00732653
0.00899813
0.008426
0.0101686
0.00957563
0.0113953
0.0107736
0.0126318
0.0120141
0.0138484
0.0132441
0.0150243
0.014442
0.0161453
0.0155926
0.0171892
0.0166784
0.0181228
0.0176721
0.0188987
0.0185336
0.0194534
0.0192077
0.0197038
0.019622
0.0195401
0.0196804
0.0188161
0.0192578
0.0173266
0.0181803
0.0148051
0.0162106
0.0109502
0.0130601
0.00545609
0.00842261
-0.00194844
0.00200052
-0.0113803
-0.00641785
-0.0226693
-0.0168226
-0.0352167
-0.0288437
-0.0479404
-0.0416443
-0.0590955
-0.053851
-0.0668383
-0.0634645
-0.0698268
-0.0689976
-0.0673754
-0.0694066
-0.0586669
-0.0637809
-0.05679
-0.044429
-0.0523578
-0.0739625
-0.071977
-0.0725005
-0.0740353
-0.0654599
-0.0695926
-0.0548274
-0.0604645
-0.0425348
-0.0487875
-0.029904
-0.0362428
-0.0179468
-0.0237836
-0.00744369
-0.012492
0.00116641
-0.00290594
0.00790929
0.00475806
0.0129231
0.0106147
0.0164242
0.0148417
0.018683
0.0176871
0.0199828
0.019433
0.0205744
0.0203516
0.0206477
0.0206647
0.0203359
0.020532
0.0197358
0.0200658
0.0189236
0.0193513
0.0179589
0.0184572
0.016883
0.0174317
0.0157342
0.0163156
0.0145385
0.0151407
0.0133161
0.0139293
0.0120767
0.0126974
0.01084
0.0114623
0.00963812
0.0102323
0.00841221
0.00903376
0.00775805
0.00734023
0.00708816
0.00780693
0.00758335
0.00823869
0.00803614
0.00857914
0.00841881
0.00883525
0.00871747
0.00900012
0.00892944
0.00907282
0.00904842
0.00904847
0.00907281
0.00892655
0.00899972
0.00871027
0.00882962
0.00841336
0.00857015
0.00808214
0.00824737
0.00766959
0.00790388
0.0070907
0.00739685
0.00643538
0.00676139
-0.260112
0.00345524
-0.0617997
0.00615625
0.00630606
-0.0557415
-0.0684276
-0.0243444
-0.158167
-0.0355213
-0.0476677
-0.218587
-0.0907201
-0.0685549
-0.25271
-0.0713662
-0.115343
-0.11957
-0.325613
-0.0956982
-0.182214
-0.140031
-0.163282
-0.361902
-0.121487
-0.16349
-0.19081
-0.354563
-0.149923
-0.184086
-0.201089
-0.316373
-0.19747
-0.0257315
-0.0158105
-0.00839098
-0.0482289
-0.0383971
-0.0259378
0.00651465
0.00532282
0.00598951
0.00753537
0.00701398
0.0086422
0.00807625
0.00979745
0.00921908
0.0109735
0.0103818
0.0121418
0.0115608
0.013274
0.0127134
0.0143502
0.0138201
0.01535
0.0148608
0.0162488
0.0158136
0.0170129
0.0166499
0.0175964
0.0173301
0.0179385
0.0178014
0.0179587
0.0179939
0.0175523
0.0178152
0.0165818
0.0171462
0.0148684
0.0158288
0.0121961
0.0136641
0.00833175
0.0104244
0.00304902
0.0058773
-0.00383039
-0.00018823
-0.0123398
-0.00789147
-0.0222551
-0.0171522
-0.0329809
-0.0275701
-0.0435528
-0.0383586
-0.0526191
-0.0483692
-0.0584999
-0.0560775
-0.0605136
-0.0600989
-0.057443
-0.0596791
-0.0486294
-0.0536652
-0.0348609
-0.0425013
-0.0256235
-0.0449107
-0.0295616
-0.0381182
-0.0569879
-0.0513264
-0.0634189
-0.0611809
-0.0633053
-0.0641868
-0.0581803
-0.0613066
-0.0499772
-0.0544744
-0.039764
-0.0450747
-0.0289741
-0.0344116
-0.0184938
-0.0236398
-0.00908518
-0.0136315
-0.0011516
-0.0049284
0.00523349
0.00222625
0.0101402
0.00785932
0.0137147
0.0120776
0.0161639
0.0150623
0.0177128
0.0170344
0.0185671
0.0182132
0.0188922
0.0187854
0.0188135
0.0188954
0.018427
0.0186526
0.0178075
0.0181416
0.0170151
0.0174289
0.0160867
0.0165641
0.0150632
0.0155847
0.0139709
0.0145239
0.0128303
0.0134053
0.0116592
0.0122463
0.010476
0.0110676
0.00929153
0.00988156
0.00811377
0.00869754
0.00692989
0.00752622
0.00679299
0.00653266
0.00724895
0.00703806
0.00764099
0.00745407
0.00795816
0.00780781
0.00819981
0.0080888
0.00835546
0.0082887
0.00842349
0.00840074
0.0084007
0.0084234
0.0082878
0.0083554
0.00808994
0.00819881
0.00781843
0.00796244
0.00749201
0.00766065
0.00706697
0.00730352
0.00652321
0.00680502
0.0058814
0.00620609
0.00557136
-0.0599159
-0.0405898
-0.120033
-0.0165845
-0.00805558
0.000259289
0.00520547
0.00462101
-0.0365956
-0.266476
-0.0832639
-0.0718982
-0.224305
-0.0619025
-0.109753
-0.120715
-0.317221
-0.0882635
-0.219346
-0.138042
-0.172935
-0.379822
-0.115735
-0.166323
-0.211983
-0.399298
-0.179445
-0.14536
-0.193883
-0.229959
-0.375478
-0.216374
-0.229692
-0.0175174
-0.0363763
-0.0496473
-0.0754744
0.00610407
0.00560189
0.00719424
0.00664355
0.00829102
0.00773698
0.00942302
0.00885428
0.0105538
0.0099894
0.0116598
0.0111116
0.0127138
0.0121944
0.0136944
0.0132144
0.0145787
0.0141498
0.0153401
0.0149763
0.015945
0.0156642
0.0163495
0.016175
0.0164961
0.0164585
0.0163089
0.0164487
0.0156899
0.0160593
0.0145123
0.0151785
0.0126216
0.0136647
0.00984632
0.0113532
0.0060131
0.00806979
0.0009629
0.00364582
-0.00541102
-0.00205929
-0.0130796
-0.00909602
-0.0217841
-0.0173319
-0.0309609
-0.0263614
-0.0397429
-0.0354642
-0.0470087
-0.0436383
-0.0515255
-0.0496704
-0.052381
-0.0525006
-0.0488061
-0.0512434
-0.0401147
-0.0450312
-0.0268619
-0.0340803
-0.0100889
-0.0185116
-0.0118632
0.0014688
0.00755361
-0.00187962
-0.0366604
-0.0213038
-0.0300152
-0.0476107
-0.0424236
-0.0544235
-0.0516725
-0.0555332
-0.0557103
-0.0520779
-0.0542401
-0.0456312
-0.0491747
-0.0371913
-0.0415778
-0.0279811
-0.032629
-0.0188445
-0.0233575
-0.01044
-0.0145246
-0.00315416
-0.00664725
0.00286917
1.23253e-05
0.00763866
0.00540237
0.0112458
0.00957516
0.0138413
0.0126561
0.0155975
0.0148109
0.0166789
0.0162108
0.0172279
0.0170103
0.0173612
0.0173387
0.0171719
0.0173008
0.0167322
0.0169787
0.016097
0.0164357
0.0153127
0.0157219
0.0144086
0.0148731
0.0134145
0.0139209
0.0123526
0.0128905
0.0112432
0.0118025
0.010104
0.0106762
0.00895407
0.00952828
0.00781757
0.00837828
0.00663508
0.00724625
0.0057373
0.00544408
0.00623542
0.00598121
0.00668758
0.0064766
0.0070579
0.00688124
0.00735815
0.0072161
0.00758581
0.00748138
0.00773263
0.00766956
0.00779653
0.00777516
0.00777544
0.00779652
0.0076706
0.00773336
0.00748604
0.00758783
0.00722686
0.00736545
0.00689933
0.00707118
0.00647156
0.0067032
0.00595366
0.00622489
0.00535691
0.00565813
0.00502014
-0.0233858
-0.322824
-0.0744945
-0.0918078
-0.181037
0.00430212
-0.0101553
-0.0489032
-0.101633
-0.12762
-0.286881
0.00341605
0.0149777
0.0199482
-0.0776546
-0.0100046
-0.0182687
-0.265936
-0.132795
-0.180124
-0.371814
-0.107846
-0.165193
-0.231116
-0.419087
-0.215859
-0.139406
-0.198598
-0.261875
-0.420903
-0.174102
-0.230537
-0.267434
-0.382669
-0.0174632
-0.0024016
-0.254974
0.0115653
-0.0492205
-0.0639988
-0.130079
0.0057306
0.0050781
0.00684546
0.0063012
0.00794292
0.00739397
0.00904778
0.00849489
0.0101401
0.0095979
0.0111897
0.0106718
0.0121714
0.0116904
0.0130618
0.0126292
0.0138368
0.013465
0.0144686
0.0141721
0.0149241
0.0147203
0.0151617
0.0150726
0.015128
0.0151819
0.0147531
0.0149873
0.0139468
0.0144093
0.0125937
0.0133451
0.0105617
0.0116692
0.00771862
0.00924742
0.00394321
0.00595213
-0.000866745
0.00167015
-0.00676289
-0.00368225
-0.0136713
-0.0101046
-0.0213133
-0.0174287
-0.0291649
-0.0252552
-0.0364558
-0.0329352
-0.0422249
-0.0395895
-0.0455189
-0.044225
-0.0455499
-0.0459837
-0.041463
-0.0440953
-0.0330566
-0.037842
-0.0205493
-0.0273171
-0.00519297
-0.0129902
0.0125073
0.00280373
0.00237016
-0.00318666
0.0068855
-0.0146527
-0.00445509
-0.0294806
-0.0229514
-0.0398615
-0.0350357
-0.046884
-0.0439774
-0.0488637
-0.0484669
-0.0467367
-0.0482097
-0.0417531
-0.0445363
-0.0348593
-0.0384755
-0.0270445
-0.0310111
-0.0190904
-0.0230446
-0.0115823
-0.0152543
-0.00490065
-0.00812561
0.000767114
-0.00193877
0.00538116
0.00320071
0.00899038
0.0073024
0.0116974
0.0104461
0.0136267
0.0127487
0.0149052
0.0143373
0.0156539
0.0153368
0.0159804
0.0158624
0.0159736
0.0160128
0.0157022
0.0158665
0.0152191
0.0154836
0.0145665
0.0149121
0.0137751
0.0141857
0.012874
0.0133364
0.0118866
0.0123894
0.0108338
0.011367
0.00973515
0.010289
0.00861286
0.00917568
0.00748505
0.0080449
0.00627459
0.0069104
0.00494192
0.00559087
0.00513111
0.00454847
0.00480291
0.00567391
0.0054069
0.00612518
0.00591336
0.00648843
0.00631661
0.00677651
0.00664096
0.00699171
0.00689328
0.00713007
0.00707059
0.00719015
0.00717003
0.00717059
0.00719023
0.00707226
0.0071312
0.0068969
0.00699399
0.00664514
0.00678054
0.0063186
0.00649086
0.00590173
0.00612434
0.00538851
0.00565631
0.00480933
0.00511236
0.00399081
0.00442244
0.00368731
-0.0335353
-0.0918649
-0.149135
-0.239784
0.0039923
0.0238377
0.00434175
-0.0631791
-0.0100178
-0.0269762
0.00751621
0.000983074
-0.319867
-0.12483
-0.189801
-0.341399
-0.0962933
-0.160259
-0.244487
-0.412488
-0.260172
0.0061035
-0.131129
-0.198249
-0.290762
-0.440748
-0.167237
-0.238346
-0.309984
-0.426689
-0.20884
-0.275035
-0.301133
0.0299127
-0.0645824
-0.0299493
-0.0432337
0.0262237
-0.0803812
-0.188477
0.00529349
0.00462315
0.00648347
0.00591363
0.00758608
0.00703567
0.00867772
0.00813509
0.00973661
0.00921321
0.0107359
0.0102453
0.0116509
0.0112054
0.0124571
0.0120689
0.0131293
0.0128113
0.0136392
0.013406
0.0139544
0.0138229
0.0140361
0.0140265
0.0138353
0.0139737
0.0132893
0.013609
0.012316
0.0128608
0.010812
0.0116359
0.00866589
0.00982417
0.00577941
0.00731854
0.00207724
0.00403221
-0.00249485
-9.99067e-05
-0.00794588
-0.00511548
-0.0141704
-0.0109763
-0.0208809
-0.0174914
-0.0275924
-0.0242738
-0.0336275
-0.0307416
-0.0381644
-0.0361317
-0.0404159
-0.0396132
-0.0397037
-0.0404638
-0.0353883
-0.0380187
-0.0272364
-0.0317887
-0.0153525
-0.0217297
-0.00127432
-0.00851493
0.0160073
0.00677421
0.035471
0.0371824
0.0263222
0.0333098
0.0160728
0.0120695
0.0104649
0.0216929
0.0191181
-0.0091449
0.000132359
-0.0235062
-0.0170115
-0.0336568
-0.0289505
-0.0405305
-0.0375642
-0.0431891
-0.0423729
-0.0421295
-0.043045
-0.0383804
-0.0405271
-0.0327961
-0.0357612
-0.0261899
-0.0295699
-0.0192676
-0.0227314
-0.0125608
-0.0158619
-0.00644009
-0.009413
-0.00111745
-0.00367476
0.00333191
0.00121381
0.00692225
0.00522833
0.0097146
0.00841068
0.0117899
0.0108339
0.0132407
0.0125849
0.0141686
0.0137618
0.0146722
0.0144662
0.0148348
0.0147904
0.0147212
0.0148082
0.0143807
0.0145759
0.0138523
0.0141378
0.0131674
0.013527
0.0123538
0.0127747
0.0114357
0.0119061
0.0104351
0.0109442
0.00937276
0.00991027
0.00826894
0.00882509
0.00712693
0.00770177
0.00593809
0.00655341
0.00469428
0.00530508
0.00409692
0.00403681
0.0035171
0.00379463
0.00455631
0.00427997
0.00512641
0.00484909
0.00557785
0.00536753
0.00593466
0.00576661
0.00621246
0.00608249
0.00641665
0.00632355
0.0065471
0.00649106
0.0066035
0.00658461
0.00658503
0.00660354
0.00649199
0.00654783
0.00632444
0.00641744
0.00608112
0.0062123
0.00576287
0.00593087
0.00535929
0.00557462
0.00485484
0.00511887
0.00425661
0.00457009
0.00350185
0.00387301
0.00289659
0.00319877
-0.0457364
-0.00732655
-0.0596464
-0.0301454
-0.0177994
-0.377806
-0.0829666
-0.114574
-0.210162
-0.294784
-0.0804137
-0.152503
-0.255792
-0.383414
0.04762
0.0484447
-0.31096
0.0229388
0.0443064
0.0421958
0.0134993
0.0238285
0.00297941
0.00320504
0.0026551
0.00255311
0.00241471
0.00202942
-0.119047
-0.193786
-0.309538
-0.435569
-0.0396131
-0.0205109
-0.15838
-0.239325
-0.347768
-0.444706
-0.250519
-0.199957
-0.0807141
-0.0463661
-0.28683
-0.35314
-0.417365
-0.328045
-0.101006
-0.246411
0.00367757
0.00310195
0.00489192
0.0042707
0.00610397
0.00551391
0.00723031
0.00667247
0.00831582
0.00777888
0.0093475
0.00883974
0.0103026
0.00983602
0.0111567
0.0107436
0.0118848
0.0115377
0.0124607
0.0121931
0.0128562
0.0126824
0.0130398
0.012976
0.0129751
0.0130403
0.0126185
0.0128356
0.0119146
0.012313
0.0107902
0.0114091
0.00915392
0.0100407
0.00691255
0.00811231
0.00399779
0.00554047
0.00037447
0.0022742
-0.00397057
-0.00170966
-0.00901299
-0.00641085
-0.0146257
-0.0117632
-0.0205201
-0.0175625
-0.0262474
-0.0234375
-0.031215
-0.028866
-0.0347266
-0.0331929
-0.0361124
-0.0357178
-0.0347855
-0.0358155
-0.0302666
-0.0329375
-0.0223092
-0.0267177
-0.0111026
-0.0170505
0.00238621
-0.00461802
0.0189076
0.0102111
0.0385116
0.0283813
0.0463541
0.0246024
0.0157645
0.0204281
0.0301567
0.0276594
0.0333378
0.0317157
-0.00468505
0.00388959
-0.0184514
-0.0121301
-0.0284716
-0.0238586
-0.0352463
-0.0322737
-0.0383925
-0.0372658
-0.0381972
-0.0386522
-0.035483
-0.0370974
-0.0309994
-0.033414
-0.0254362
-0.0283079
-0.0194185
-0.0224501
-0.0134299
-0.0163963
-0.00782516
-0.0105644
-0.00282949
-0.00524487
0.00145586
-0.000598448
0.0050159
0.00332279
0.00787548
0.00652843
0.0100761
0.00905247
0.0116796
0.0109455
0.0127698
0.0122812
0.0134368
0.0131493
0.0137578
0.0136351
0.0137925
0.0138067
0.0135858
0.013716
0.0131745
0.0134019
0.01259
0.0129017
0.0118582
0.0122403
0.0110042
0.0114446
0.010051
0.0105383
0.00901965
0.00954361
0.00792792
0.00848048
0.00679129
0.00736102
0.00561785
0.00620596
0.00440132
0.00501025
0.00379143
0.00357158
0.003289
0.00407487
0.00382902
0.0046122
0.00434422
0.00505297
0.0048479
0.00539884
0.00523623
0.00566541
0.00554117
0.00585904
0.00577097
0.00598188
0.00592918
0.00603469
0.00601702
0.00601718
0.00603466
0.00592912