/*--------------------------------*- C++ -*----------------------------------*\
  =========                 |
  \\      /  F ield         | OpenFOAM: The Open Source CFD Toolbox
   \\    /   O peration     | Website:  https://openfoam.org
    \\  /    A nd           | Version:  10
     \\/     M anipulation  |
\*---------------------------------------------------------------------------*/
FoamFile
{
    format      ascii;
    class       volVectorField;
    location    "51.5";
    object      U;
}
// * * * * * * * * * * * * * * * * * * * * * * * * * * * * * * * * * * * * * //

dimensions      [0 1 -1 0 0 0 0];

internalField   nonuniform List<vector> 
28942
(
(0.00445164 -0.00226905 -3.41734e-22)
(0.00602435 -0.00235505 -6.3441e-23)
(0.0179605 -0.0124023 -8.25575e-22)
(0.103305 0.0182381 -5.26812e-21)
(0.102343 0.0222802 1.72478e-21)
(0.0163542 0.000525364 0)
(0.0194507 9.67385e-05 1.31993e-23)
(0.0225135 0.000678036 -1.17446e-23)
(0.135259 -0.0182327 -2.56273e-22)
(0.133904 -0.0165961 7.29411e-22)
(0.00985752 0.00403403 -6.73373e-22)
(0.0161613 0.00566243 2.55051e-22)
(0.00717996 0.00316943 0)
(0.00473737 0.00207797 0)
(0.0503397 0.00217027 -1.77302e-23)
(0.0483737 0.0028269 -6.76928e-24)
(0.0893214 0.0158685 6.6842e-22)
(0.0870094 0.0138379 1.07568e-21)
(0.0121738 -0.0151239 2.91764e-21)
(0.0293532 -0.0304902 -7.67878e-22)
(0.098135 0.0373612 9.53401e-22)
(0.097311 0.034399 0)
(0.0188114 0.00465736 1.16761e-21)
(0.00789728 0.00237796 5.5046e-22)
(0.0379049 0.00725266 9.44614e-22)
(0.0576707 0.00294981 -8.61143e-22)
(0.00765081 -0.018507 8.51266e-21)
(0.00669571 -0.0165702 -3.13529e-21)
(0.0355448 -0.0253435 5.72308e-22)
(0.0193187 -0.0136936 1.97568e-22)
(0.016763 -0.00155376 0)
(0.0209602 -0.00137848 -1.59403e-23)
(0.0265487 0.00469971 3.26283e-22)
(0.0380654 0.00204166 -5.38663e-23)
(0.0188315 0.0180125 1.31579e-21)
(0.015724 0.0191212 -1.30736e-21)
(0.0321785 0.0376173 -3.05549e-21)
(0.0186741 0.0305332 -1.06921e-21)
(0.00900912 3.10857e-05 -1.10668e-23)
(0.00865082 0.0161972 -2.61675e-21)
(0.0306482 -0.00620328 0)
(0.0513412 -0.0109697 0)
(0.112655 -0.0135054 -2.82538e-23)
(0.112182 -0.0135679 8.37458e-23)
(0.116425 -0.013393 7.25829e-23)
(0.0316536 0.000258882 1.36656e-23)
(0.0294828 -0.000595564 -2.21387e-23)
(0.041929 -0.000517196 -9.89713e-23)
(0.040202 -0.0005841 2.81138e-23)
(0.0327691 -0.00295054 -2.40808e-22)
(0.0244951 -0.0035862 1.55664e-22)
(0.128516 0.00157528 -4.03774e-22)
(0.127845 0.00109142 -3.76701e-22)
(0.134586 -0.0210188 -3.79114e-24)
(0.133028 -0.019291 1.39203e-22)
(0.0827652 0.00646386 7.17192e-22)
(0.102025 -0.00064266 2.49934e-22)
(0.00307715 0.00162962 -5.65502e-22)
(0.00899117 0.00369919 0)
(0.00829897 0.00330678 2.37497e-22)
(0.00289992 0.00149669 4.87961e-22)
(0.000365581 0.000228167 -4.05764e-22)
(0.000195004 0.000123712 -3.8983e-22)
(0.109923 -0.0426117 0)
(0.105083 -0.0255959 1.26846e-22)
(0.121952 -0.0330709 -4.35692e-23)
(0.123567 -0.0437378 0)
(0.0901321 -0.0328033 -6.39029e-22)
(0.0936385 -0.0352663 -4.19994e-22)
(0.00189584 -0.00113582 1.12979e-21)
(0.00250294 -0.00202706 -3.56012e-22)
(0.00489694 -0.00317122 8.83309e-22)
(0.0849149 -0.0457677 0)
(0.0912364 -0.0396238 2.169e-21)
(0.0805895 -0.05304 5.85937e-22)
(0.114326 0.0123183 2.36922e-22)
(0.11295 0.00679553 -2.62807e-22)
(0.125304 0.0108742 -1.11744e-22)
(0.0046901 -0.00286585 -5.35154e-23)
(0.00634767 -0.00443201 4.47371e-22)
(0.0510791 -0.0311786 1.25766e-22)
(0.0332049 -0.0205639 -2.5755e-22)
(0.0021208 -0.00060147 3.20633e-21)
(0.00517529 -0.0020829 -1.24943e-21)
(0.101075 0.0482451 1.35685e-23)
(0.0971026 0.0552129 -7.65866e-22)
(0.0807755 0.0540184 6.989e-22)
(0.0472363 0.0345237 -2.68499e-21)
(0.0444653 0.0316217 1.9015e-21)
(0.0295118 0.0206064 -1.1373e-22)
(0.0327329 0.0232593 -6.42135e-22)
(0.037976 0.0283691 8.70517e-22)
(0.00443738 0.00272167 -5.88382e-23)
(0.00781986 0.0039859 -1.69986e-23)
(0.00320778 0.00202065 3.40633e-23)
(0.00192936 0.00163823 -4.55082e-22)
(0.00145192 0.00155797 5.5788e-22)
(0.0157511 0.011549 -3.25914e-21)
(0.0175039 0.0136406 7.4658e-22)
(0.00883008 -0.00386104 0)
(0.101389 0.00515996 0)
(0.0984002 0.0156843 -3.96346e-21)
(0.0604387 0.0104757 1.94544e-21)
(0.0886779 0.0178819 0)
(0.135636 -0.00146494 0)
(0.13508 -0.00219421 0)
(0.133421 -0.00267396 -2.55671e-22)
(0.114984 0.0265355 -2.12434e-22)
(0.114077 0.0279425 2.09999e-21)
(0.113276 0.0254041 1.12689e-21)
(0.00230869 0.00130574 1.05437e-21)
(0.00152121 0.000779887 -1.18343e-21)
(0.0191243 -0.00556847 -5.49457e-22)
(0.02022 -0.00510348 4.68891e-22)
(0.00914667 -0.00294985 9.26471e-22)
(0.00647758 0.0111405 1.47949e-21)
(0.0189716 0.018147 3.45837e-21)
(0.013468 0.0227921 2.72223e-22)
(0.00492167 0.0143005 -8.62666e-21)
(0.117087 0.0477221 5.56203e-23)
(0.107925 0.0582148 1.07032e-21)
(0.118396 0.0548393 -1.8459e-21)
(0.0391237 -0.0294387 7.30874e-22)
(0.0240289 -0.0172779 -4.67162e-22)
(0.00532323 -0.000752315 -4.10439e-21)
(0.00454007 -0.00360271 0)
(0.0124994 -0.00168714 2.0037e-21)
(0.0219812 -0.0161421 7.78032e-22)
(0.0342815 -0.0278035 -1.95423e-21)
(0.0396991 -9.84605e-06 6.94342e-23)
(0.0421691 0.000155115 -4.95939e-23)
(0.0373152 0.000186938 -2.14328e-24)
(0.028074 -0.0419768 0)
(0.0296225 -0.0428682 0)
(0.0896192 -0.0186545 -4.64142e-22)
(0.0995869 -0.0220928 3.15284e-21)
(0.087033 -0.0252791 0)
(0.0471527 -0.0402137 0)
(0.0582187 -0.0514128 -7.82619e-22)
(0.0413258 0.0393407 2.08674e-21)
(-5.61504e-06 0.000210285 5.13856e-22)
(-0.000198162 0.000128036 -3.38366e-22)
(0.022343 -0.0192541 -7.90767e-22)
(0.120521 -0.0131845 4.09793e-22)
(0.119913 -0.0131867 -7.91211e-23)
(0.11573 -0.00557162 -6.69627e-23)
(0.108688 0.00113453 8.92373e-23)
(0.117946 -0.000121622 1.81701e-22)
(8.11313e-05 0.000258354 1.98422e-22)
(0.043767 0.034428 3.20718e-21)
(0.0619093 0.0463168 -7.88834e-22)
(0.0593526 0.0393802 -3.02419e-24)
(0.02604 -0.000948138 6.53941e-24)
(0.0256594 -0.000951519 3.48902e-23)
(0.0278181 -0.000756227 1.56273e-24)
(0.0310335 -0.00071147 -1.71502e-23)
(0.0454386 0.0380961 1.33869e-22)
(0.0189691 0.016063 0)
(0.000144517 -4.07009e-05 3.67716e-22)
(0.000429644 -0.000265097 -4.07957e-22)
(0.00187465 -0.00103144 2.84449e-22)
(0.0366444 -0.00775958 -1.84411e-21)
(0.0649981 -0.00214332 -7.52043e-22)
(0.0359943 -0.000301951 -2.30643e-24)
(0.074618 -0.00762867 2.71913e-22)
(0.070811 -0.0157339 6.26589e-23)
(0.0943225 0.0398868 2.14528e-21)
(0.0914264 0.0454243 9.92621e-23)
(0.0887594 0.0290615 1.21661e-21)
(0.0914852 0.0307766 -8.81662e-22)
(0.0987165 0.0410438 0)
(0.12602 -0.000529921 1.50201e-22)
(0.12678 -0.000973689 2.83888e-22)
(0.128074 -0.0121524 -2.961e-22)
(0.129537 -0.0119452 5.06843e-22)
(0.117061 0.0240676 2.60585e-22)
(0.11912 0.0249608 -7.37947e-22)
(0.11711 0.0260826 0)
(0.115142 0.0248266 1.53572e-22)
(0.116684 0.0280087 0)
(0.117197 0.0360345 -5.5225e-22)
(0.115737 0.0380915 -3.01445e-22)
(0.111364 0.0419151 -5.41429e-22)
(0.113758 0.040042 0)
(0.116454 0.0430147 1.79131e-21)
(0.113731 0.0449437 4.73886e-23)
(0.108359 0.0441312 -3.04094e-22)
(0.0996596 0.0502472 -1.28861e-21)
(0.0984436 0.0454592 -2.27029e-22)
(0.0251304 -0.00856455 5.817e-23)
(0.0330391 -0.00943984 -2.32206e-23)
(0.00632123 -0.0025084 -6.92318e-22)
(0.0353595 -6.80664e-05 -4.51287e-23)
(0.0450971 -0.000297274 0)
(-1.70333e-06 -4.21183e-05 4.32056e-22)
(1.42431e-05 -4.8389e-05 2.20221e-22)
(0.0408628 -0.00199161 2.06257e-23)
(0.0481126 -0.00193639 8.22618e-24)
(0.047613 -0.0013203 0)
(0.039551 -0.000886064 9.08206e-24)
(0.094843 0.00440359 -1.23818e-22)
(0.0943107 0.00395327 5.86025e-22)
(0.0951968 0.00411131 2.71888e-22)
(0.000674304 0.00027106 3.93805e-22)
(-0.000160319 -0.000130293 -5.7083e-22)
(-0.000202542 -0.00017055 4.86523e-22)
(0.00150994 0.000622487 0)
(8.17653e-05 8.91869e-05 1.14258e-21)
(0.00017429 -3.8052e-05 -8.23812e-22)
(0.00747766 0.00368823 -9.9451e-22)
(0.00146013 0.000785884 -1.18728e-21)
(0.00172897 0.000864978 0)
(0.00157222 0.00753977 0)
(0.000577052 0.00327955 0)
(0.000313335 0.00197561 0)
(0.136777 -0.0015013 5.69547e-23)
(0.137756 -0.00135323 0)
(0.13616 -0.00230196 -6.63821e-23)
(0.088121 -0.0148599 4.42815e-21)
(0.0901275 -0.0152675 -1.60742e-21)
(0.0890421 -0.0128845 0)
(0.10978 0.000221966 -7.081e-24)
(0.110299 0.000213467 1.41728e-23)
(0.109239 0.000231619 -4.80688e-24)
(0.110794 0.000207 0)
(0.111268 0.000206003 -8.99103e-24)
(0.111716 0.000200293 0)
(0.111711 -0.000268268 0)
(0.112142 0.000185666 3.31889e-23)
(0.112129 -0.000266253 0)
(0.111267 -0.00027989 -9.0538e-24)
(0.110794 -0.000295979 0)
(0.110298 -0.000312697 4.74195e-24)
(0.109776 -0.000333061 -7.08451e-24)
(0.109238 -0.000352066 4.80087e-24)
(0.11254 0.00017006 -3.1759e-23)
(0.112528 -0.000259522 -1.10886e-24)
(0.10867 0.000244476 6.56918e-28)
(0.108666 -0.000366422 -7.35928e-24)
(0.108071 0.000256394 3.92326e-23)
(0.112915 0.000159952 2.95868e-26)
(0.112912 -0.000246492 -1.10469e-24)
(0.10807 -0.000387802 1.45282e-23)
(0.113274 0.000149353 2.97016e-23)
(0.113613 0.000140421 -2.96772e-23)
(0.113273 -0.000234579 2.22958e-24)
(0.113613 -0.000222223 4.38766e-24)
(0.107468 0.000280412 -3.81714e-23)
(0.107461 -0.000409015 -9.56876e-24)
(0.113933 0.000130698 0)
(0.113934 -0.000211142 -4.32768e-24)
(0.106825 0.000293895 4.73385e-27)
(0.106821 -0.000424404 -4.74572e-27)
(0.114236 0.000122356 0)
(0.114237 -0.000199823 0)
(0.106157 0.00030358 0)
(0.106153 -0.000443353 0)
(0.11452 0.000113197 0)
(0.114521 -0.000189788 2.06634e-24)
(0.105464 0.000313302 -1.99409e-23)
(0.10546 -0.000460936 -4.86268e-27)
(0.114788 0.000105293 1.08206e-25)
(0.114789 -0.000179543 -2.20672e-24)
(0.104746 0.000320899 2.00361e-23)
(0.104742 -0.000480087 0)
(0.11504 9.67146e-05 0)
(0.115041 -0.000170346 0)
(0.104004 0.000328976 -1.27042e-24)
(0.104 -0.000496587 2.18154e-23)
(0.115276 8.92767e-05 1.33176e-23)
(0.115278 -0.000160798 0)
(0.103239 0.000334299 -1.24628e-25)
(0.103234 -0.000513096 -2.06485e-23)
(0.115498 8.11377e-05 -1.99087e-23)
(0.1155 -0.000152339 -5.77317e-24)
(0.102436 0.000330515 2.10777e-23)
(0.102434 -0.00052907 0)
(0.115707 7.43428e-05 6.55004e-24)
(0.115709 -0.000142423 3.84919e-24)
(0.101614 0.000334487 -1.06836e-23)
(0.101612 -0.000548076 2.16638e-23)
(0.115901 6.87101e-05 -2.61013e-23)
(0.115908 -0.000130145 2.94185e-23)
(0.100741 0.000319567 1.10237e-23)
(0.100749 -0.000572032 3.49034e-25)
(0.116086 6.38846e-05 0)
(0.116092 -0.000119512 1.40018e-23)
(0.0998438 0.000305764 -2.21913e-23)
(0.0998575 -0.000604121 4.43921e-23)
(0.116265 5.66382e-05 0)
(0.116267 -0.000112247 0)
(0.10088 0.00120617 -1.09079e-23)
(0.0999829 0.00121526 -4.41721e-23)
(0.0989046 0.000284056 0)
(0.0989349 -0.000649426 -2.26273e-23)
(0.10257 0.0011732 -6.83846e-24)
(0.101736 0.00119215 1.34346e-24)
(0.104126 0.00111541 0)
(0.103355 0.00114542 -2.20574e-23)
(0.105577 0.00104823 -4.24089e-26)
(0.104864 0.00108257 0)
(0.106928 0.0009759 0)
(0.106265 0.00101261 0)
(0.108181 0.000893524 0)
(0.107565 0.00093714 0)
(0.109315 0.000813982 9.48166e-24)
(0.108756 0.000852932 2.39766e-24)
(0.110364 0.000744401 -9.12406e-24)
(0.109856 0.000778318 -9.47736e-24)
(0.111316 0.000680263 1.61092e-23)
(0.110848 0.000707425 2.06381e-23)
(0.112186 0.000619928 0)
(0.11176 0.000652538 0)
(0.11296 0.00055801 -7.01789e-26)
(0.112584 0.000588628 0)
(0.113652 0.000497418 0)
(0.113316 0.000527368 0)
(0.114269 0.000439991 0)
(0.11397 0.000468199 0)
(0.114817 0.000386549 0)
(0.114551 0.000412719 0)
(0.115301 0.000337204 0)
(0.115066 0.000361327 0)
(0.115727 0.000291911 0)
(0.115521 0.000314035 0)
(0.116106 0.000244701 -1.06485e-23)
(0.115921 0.000270493 0)
(0.11628 0.000222703 -3.43392e-24)
(0.116431 4.82344e-05 3.34928e-24)
(0.116432 -0.000106782 -3.32141e-24)
(0.115925 -0.000318399 0)
(0.116281 -0.00027832 -1.36397e-23)
(0.116108 -0.000297093 -7.03846e-24)
(0.11552 -0.000365024 1.9359e-24)
(0.115728 -0.000341564 -7.56602e-24)
(0.115064 -0.00041318 6.29425e-26)
(0.115299 -0.000389162 0)
(0.114547 -0.000464409 0)
(0.114813 -0.000438124 0)
(0.113964 -0.000520962 0)
(0.114265 -0.000491965 0)
(0.113308 -0.00058327 0)
(0.113646 -0.000551328 8.36867e-30)
(0.112572 -0.00065213 7.10706e-26)
(0.11295 -0.00061675 0)
(0.111757 -0.000721983 0)
(0.112173 -0.000687791 0)
(0.110849 -0.000794535 0)
(0.111312 -0.000757759 0)
(0.109845 -0.000875985 0)
(0.110359 -0.000832371 -4.78714e-24)
(0.108744 -0.000966003 1.27037e-24)
(0.109305 -0.000924088 -6.20118e-24)
(0.107551 -0.00106218 0)
(0.108165 -0.00101122 -5.06098e-24)
(0.106253 -0.0011537 0)
(0.106915 -0.00110822 0)
(0.104852 -0.00124348 0)
(0.105565 -0.0011988 0)
(0.103348 -0.00132907 0)
(0.104114 -0.00128693 0)
(0.101737 -0.00140936 -5.5949e-24)
(0.102557 -0.00136811 0)
(0.100023 -0.00150338 -2.27125e-23)
(0.100895 -0.00145074 -5.6289e-24)
(0.0991155 -0.00156047 2.31321e-23)
(0.099055 0.0012251 4.3805e-23)
(0.116444 0.000203171 6.71188e-24)
(0.116444 -0.000260832 -1.30964e-23)
(0.0979713 -0.000707159 0)
(0.0981804 -0.00163317 0)
(0.0980983 0.00123463 0)
(0.097936 0.000253574 0)
(0.101162 0.00207497 0)
(0.0993916 0.00216155 1.09557e-23)
(0.100291 0.00211686 1.10678e-23)
(0.102824 0.00197689 1.40406e-23)
(0.102006 0.00202869 -2.80721e-24)
(0.104354 0.00186206 4.32964e-26)
(0.103603 0.00192059 0)
(0.105781 0.00174259 0)
(0.10508 0.00180278 0)
(0.107108 0.00162008 0)
(0.106457 0.00168163 0)
(0.108336 0.00149708 0)
(0.107734 0.00155809 0)
(0.109463 0.00137346 0)
(0.108911 0.00143625 0)
(0.11049 0.0012563 -3.82023e-26)
(0.109985 0.00131592 9.8737e-24)
(0.111422 0.00114024 -3.65015e-26)
(0.110971 0.00119588 -1.91962e-23)
(0.112274 0.00102674 0)
(0.111858 0.00108249 0)
(0.113037 0.000920998 3.50468e-26)
(0.112666 0.000973005 0)
(0.113719 0.000821312 0)
(0.113387 0.0008704 0)
(0.114326 0.000727987 0)
(0.114031 0.000773803 0)
(0.114865 0.000641599 0)
(0.114604 0.000683901 0)
(0.115342 0.000562299 0)
(0.115111 0.00060106 0)
(0.115763 0.000489618 0)
(0.115559 0.000525229 0)
(0.116136 0.000418519 7.2747e-24)
(0.115954 0.0004542 0)
(0.116586 4.14363e-05 0)
(0.116597 0.000185166 6.54635e-24)
(0.116468 0.000354635 0)
(0.116306 0.00038552 7.07906e-24)
(0.116307 -0.000442764 1.41022e-23)
(0.116467 -0.000414488 3.45694e-24)
(0.116596 -0.000246089 2.69509e-23)
(0.116586 -0.000100964 0)
(0.115955 -0.000506754 0)
(0.116136 -0.000473572 -2.12942e-23)
(0.115557 -0.000577723 6.09599e-26)
(0.115762 -0.000540868 7.61204e-24)
(0.115107 -0.000653265 -6.29423e-26)
(0.115339 -0.000614745 0)
(0.114598 -0.000736039 0)
(0.11486 -0.000693629 0)
(0.114023 -0.000827245 0)
(0.114319 -0.000780561 0)
(0.113377 -0.000927247 0)
(0.113709 -0.000876127 -8.36864e-30)
(0.112653 -0.00103623 -1.42076e-25)
(0.113025 -0.000980627 0)
(0.111849 -0.00115232 0)
(0.112262 -0.00109365 0)
(0.110955 -0.00127571 2.41316e-24)
(0.111413 -0.001213 0)
(0.109972 -0.00140363 0)
(0.110475 -0.00133694 -2.40308e-24)
(0.108892 -0.00154149 5.06704e-24)
(0.109441 -0.00147317 5.02379e-24)
(0.107714 -0.00168095 0)
(0.108316 -0.00161094 0)
(0.106437 -0.0018222 0)
(0.107088 -0.00175152 0)
(0.10506 -0.00196297 0)
(0.105761 -0.00189275 0)
(0.103581 -0.0021016 0)
(0.104333 -0.00203256 0)
(0.102003 -0.00223728 8.9497e-26)
(0.102805 -0.00216973 0)
(0.100325 -0.00236936 -9.08803e-26)
(0.101177 -0.00230402 0)
(0.0985408 -0.00252918 -2.37909e-23)
(0.0994443 -0.00244695 2.378e-23)
(0.0984637 0.00220466 2.23106e-23)
(0.097223 -0.00171691 0)
(0.0976098 -0.00262451 -4.8394e-23)
(0.0969935 -0.000770447 0)
(0.116618 0.000328266 0)
(0.116618 -0.000387984 -3.35013e-24)
(0.0971196 0.00124575 5.65863e-23)
(0.0975144 0.0022481 2.26281e-23)
(0.096236 -0.0018012 1.22469e-23)
(0.0966551 -0.00272523 6.11591e-23)
(0.0969396 0.000220464 0)
(0.116502 0.00050655 2.76527e-23)
(0.116648 0.000468861 -1.36507e-23)
(0.116738 -0.000231565 -6.62494e-24)
(0.116759 -0.000362486 3.29252e-23)
(0.0981126 0.00321738 7.92568e-23)
(0.0965279 0.0022915 -4.45598e-23)
(0.0961727 0.00336345 -1.98801e-22)
(0.0971512 0.00328285 -4.52557e-23)
(0.0999063 0.00307079 2.20491e-23)
(0.099022 0.00314651 -6.7432e-23)
(0.101598 0.00291527 -2.2548e-23)
(0.100765 0.00299436 -1.70219e-23)
(0.103199 0.0027561 -5.61303e-24)
(0.102412 0.00283825 -5.61808e-24)
(0.10469 0.00259146 -4.32964e-26)
(0.103959 0.00267474 0)
(0.106079 0.00242178 0)
(0.105397 0.00250703 0)
(0.10737 0.0022498 0)
(0.106737 0.00233598 0)
(0.108565 0.0020776 0)
(0.107979 0.00216352 0)
(0.109663 0.00190806 0)
(0.109125 0.00199236 0)
(0.110665 0.0017417 0)
(0.110175 0.00182458 0)
(0.111577 0.00158084 4.93205e-29)
(0.111133 0.00166063 0)
(0.112404 0.00142454 0)
(0.112001 0.00150172 0)
(0.113149 0.00127734 3.49847e-26)
(0.112786 0.00134977 0)
(0.113815 0.00113933 0)
(0.113491 0.00120719 0)
(0.114409 0.00101078 0)
(0.114121 0.00107384 0)
(0.114936 0.000892123 0)
(0.114681 0.000950205 0)
(0.115403 0.00078348 0)
(0.115177 0.000836564 0)
(0.115815 0.000684243 0)
(0.115615 0.000732804 0)
(0.116179 0.000590923 3.70687e-24)
(0.116002 0.000636766 -1.86607e-24)
(0.116345 0.000547595 -1.41143e-23)
(0.116728 3.65267e-05 -3.13765e-24)
(0.116758 0.000303035 1.31117e-23)
(0.116738 0.000169805 -1.00388e-23)
(0.116728 -9.78543e-05 0)
(0.116345 -0.000604954 -1.04831e-23)
(0.116649 -0.000527775 -3.01997e-23)
(0.116502 -0.00056543 2.43546e-23)
(0.116001 -0.00069291 0)
(0.116178 -0.00064724 0)
(0.115611 -0.000786138 -3.91719e-29)
(0.115812 -0.000737546 0)
(0.115171 -0.000889278 0)
(0.115398 -0.000836514 0)
(0.114673 -0.00100291 -6.48484e-26)
(0.114929 -0.000944714 0)
(0.11411 -0.00112794 0)
(0.1144 -0.00106399 0)
(0.113479 -0.00126455 0)
(0.113803 -0.00119481 0)
(0.112772 -0.00141255 7.10158e-26)
(0.113135 -0.00133717 0)
(0.111986 -0.00157071 7.30259e-26)
(0.112389 -0.00149047 0)
(0.111114 -0.00173884 0)
(0.111561 -0.00165354 0)
(0.110154 -0.00191496 0)
(0.110646 -0.0018259 0)
(0.109101 -0.0020986 0)
(0.109638 -0.00200623 0)
(0.107953 -0.00228609 0)
(0.108539 -0.00219172 0)
(0.106709 -0.00247646 -8.34333e-26)
(0.107343 -0.00238114 0)
(0.105368 -0.00266685 0)
(0.10605 -0.00257181 0)
(0.103929 -0.00285509 0)
(0.10466 -0.00276135 0)
(0.102394 -0.00303939 -1.74613e-28)
(0.103173 -0.00294782 0)
(0.100765 -0.00321794 2.04024e-28)
(0.101591 -0.00312952 0)
(0.0990445 -0.00340033 9.39204e-26)
(0.0999143 -0.0033057 0)
(0.0972304 -0.00361018 -4.94101e-23)
(0.0981475 -0.00350094 1.21465e-23)
(0.0956807 -0.00282193 1.24357e-23)
(0.0963055 -0.00372375 2.47022e-23)
(0.0961175 0.00124965 -2.21525e-23)
(0.0959833 -0.000836863 -2.3719e-23)
(0.116786 0.000433782 3.33725e-24)
(0.116787 -0.000493992 2.37292e-23)
(0.0954845 0.00231217 2.7471e-24)
(0.0952272 -0.00189287 0)
(0.0949522 0.00328192 3.04722e-22)
(0.0953656 -0.00383412 3.79493e-23)
(0.094702 -0.00291981 5.06946e-23)
(0.0959266 0.00460317 -5.04612e-22)
(0.0953697 0.00479385 9.22141e-23)
(0.0959403 0.000191611 0)
(0.0971944 0.00435016 5.08211e-23)
(0.0964658 0.00450614 2.60025e-23)
(0.0988811 0.00413319 4.58767e-23)
(0.0980075 0.00423005 -6.99347e-23)
(0.100576 0.00393178 -2.2829e-23)
(0.0997427 0.00403616 -1.13842e-23)
(0.102179 0.00372474 1.14313e-23)
(0.101389 0.00382818 1.15911e-23)
(0.103701 0.00351189 0)
(0.102949 0.00361827 -2.23833e-26)
(0.10513 0.0032971 0)
(0.104427 0.003405 0)
(0.106467 0.00307918 4.21385e-26)
(0.10581 0.00318845 0)
(0.107711 0.00285957 0)
(0.1071 0.0029695 0)
(0.108862 0.00264022 0)
(0.108298 0.00274969 0)
(0.109922 0.00242385 0)
(0.109404 0.00253155 0)
(0.110892 0.00221224 3.80364e-26)
(0.110418 0.00231739 0)
(0.111774 0.00200735 5.48678e-29)
(0.111344 0.00210886 0)
(0.112574 0.00181031 0)
(0.112184 0.00190769 0)
(0.113295 0.00162373 -6.99244e-26)
(0.112944 0.00171562 0)
(0.11394 0.0014488 0)
(0.113626 0.00153478 0)
(0.114517 0.00128615 0)
(0.114237 0.00136592 0)
(0.115029 0.00113622 0)
(0.11478 0.00120959 0)
(0.115482 0.000999123 0)
(0.115262 0.00106609 0)
(0.115882 0.000874303 0)
(0.115688 0.000935283 0)
(0.116236 0.0007601 -1.85091e-24)
(0.116064 0.00081541 0)
(0.116548 0.000655769 0)
(0.116397 0.000706549 -3.5844e-24)
(0.116824 0.000561764 -4.82446e-28)
(0.116691 0.000607449 0)
(0.116888 0.000279455 -1.32939e-23)
(0.11695 0.000520869 8.01791e-25)
(0.116915 0.000401883 6.50341e-24)
(0.11686 3.11279e-05 4.78036e-24)
(0.116869 0.000155408 -3.29969e-24)
(0.11687 -0.000218128 -1.66133e-24)
(0.11686 -9.38315e-05 1.65827e-24)
(0.116915 -0.000463515 0)
(0.116889 -0.000341304 -1.51017e-23)
(0.116691 -0.000667413 -6.792e-24)
(0.11695 -0.000585159 -1.29783e-23)
(0.116825 -0.000624286 2.98292e-23)
(0.116396 -0.00076418 -3.57216e-24)
(0.116548 -0.000714384 0)
(0.116061 -0.000872176 0)
(0.116234 -0.000816463 0)
(0.115683 -0.000989583 -5.07559e-29)
(0.115878 -0.000929397 0)
(0.115255 -0.00111957 0)
(0.115475 -0.00105296 0)
(0.114771 -0.00126313 6.48484e-26)
(0.11502 -0.00118961 0)
(0.114225 -0.00142088 0)
(0.114506 -0.00134023 0)
(0.113612 -0.00159291 0)
(0.113927 -0.00150515 0)
(0.112927 -0.0017788 0)
(0.113279 -0.00168419 0)
(0.112165 -0.00197756 -9.58871e-29)
(0.112556 -0.00187667 0)
(0.111321 -0.00218828 0)
(0.111754 -0.00208153 0)
(0.110392 -0.00240911 0)
(0.110868 -0.0022975 0)
(0.109375 -0.00263834 0)
(0.109894 -0.00252296 0)
(0.108266 -0.00287298 0)
(0.108832 -0.00275506 0)
(0.107065 -0.00311079 8.34333e-26)
(0.107677 -0.00299171 0)
(0.105772 -0.00334879 0)
(0.10643 -0.00322996 0)
(0.104386 -0.00358435 0)
(0.10509 -0.00346704 0)
(0.102909 -0.00381512 -8.93139e-26)
(0.103658 -0.00370047 0)
(0.101344 -0.00403877 9.11319e-26)
(0.102137 -0.003928 0)
(0.0996931 -0.0042552 -9.28592e-26)
(0.100528 -0.00414775 0)
(0.097967 -0.00447382 1.21998e-23)
(0.0988367 -0.00436073 -2.40719e-23)
(0.096191 -0.00471097 -1.22773e-23)
(0.0970818 -0.00458954 2.49755e-23)
(0.0944056 -0.00393783 3.31236e-25)
(0.09528 -0.00482718 2.51689e-23)
(0.0950859 0.00123177 -2.27178e-23)
(0.0949648 -0.000887828 0)
(0.094439 0.00227177 -2.19025e-22)
(0.094209 -0.00195907 0)
(0.116873 0.000689856 -3.33135e-24)
(0.116994 0.000639108 2.44051e-24)
(0.117035 -0.000434942 -1.2726e-23)
(0.117068 -0.000546408 -1.4417e-23)
(0.0938194 0.00318842 -2.1411e-22)
(0.0937044 -0.00301185 -5.11905e-23)
(0.0944262 0.00472459 0)
(0.0968545 0.00546081 -5.8457e-23)
(0.0934367 -0.00403873 -2.51068e-23)
(0.0943529 -0.00493579 3.80389e-23)
(0.0960437 0.00547893 1.17383e-22)
(0.0949158 0.000161522 0)
(0.0982236 0.0052144 0)
(0.0975175 0.00534823 -5.20904e-23)
(0.0997902 0.00497586 0)
(0.0989926 0.00509574 0)
(0.101368 0.00473214 0)
(0.100585 0.00485363 1.17942e-23)
(0.102873 0.00448462 0)
(0.102129 0.00460931 0)
(0.104309 0.00423004 0)
(0.1036 0.0043578 0)
(0.105666 0.00397138 0)
(0.104998 0.00410132 0)
(0.106938 0.00370889 -4.21385e-26)
(0.106312 0.00384051 0)
(0.108125 0.00344446 0)
(0.107542 0.0035768 0)
(0.109225 0.00318048 0)
(0.108685 0.00331225 0)
(0.110238 0.0029198 0)
(0.109742 0.00304958 0)
(0.111167 0.002665 -7.26537e-29)
(0.110713 0.00279156 0)
(0.112013 0.00241844 6.54019e-29)
(0.1116 0.00254055 0)
(0.11278 0.00218198 0)
(0.112406 0.00229882 0)
(0.113472 0.00195787 5.39527e-29)
(0.113136 0.00206828 0)
(0.114093 0.00174768 0)
(0.113792 0.00185099 0)
(0.114648 0.00155233 0)
(0.114379 0.00164812 0)
(0.115141 0.00137236 0)
(0.114902 0.00146042 0)
(0.115578 0.00120792 0)
(0.115366 0.00128822 0)
(0.115964 0.00105859 0)
(0.115777 0.00113143 0)
(0.116305 0.000923421 0)
(0.11614 0.000989316 0)
(0.116607 0.000800231 3.5505e-24)
(0.116461 0.000859524 3.63883e-24)
(0.116744 0.000742916 -6.80322e-24)
(0.117008 0.000257678 -6.51302e-24)
(0.117068 0.000483474 0)
(0.117034 0.000371257 -6.57931e-24)
(0.116981 2.63633e-05 0)
(0.11699 0.000142782 6.64697e-24)
(0.116991 -0.000206405 9.92242e-24)
(0.116982 -9.03976e-05 -3.3538e-24)
(0.117009 -0.000320909 -1.9507e-23)
(0.116744 -0.000804042 3.42165e-24)
(0.116995 -0.00070116 1.26887e-23)
(0.116873 -0.000752984 0)
(0.116459 -0.000918541 -7.10395e-24)
(0.116606 -0.000859879 7.12743e-24)
(0.116136 -0.00104607 0)
(0.116303 -0.000981039 0)
(0.115771 -0.00118663 -6.20917e-29)
(0.115959 -0.00111451 0)
(0.115358 -0.0013426 0)
(0.115571 -0.00126264 0)
(0.114891 -0.00151492 0)
(0.115131 -0.00142669 0)
(0.114365 -0.00170408 0)
(0.114636 -0.0016074 0)
(0.113775 -0.00191007 0)
(0.114078 -0.00180502 0)
(0.113116 -0.00213236 7.07584e-26)
(0.113455 -0.00201925 0)
(0.112384 -0.0023699 -7.293e-26)
(0.11276 -0.00224932 0)
(0.111575 -0.00262138 0)
(0.111989 -0.00249403 0)
(0.110684 -0.00288472 0)
(0.11114 -0.0027517 0)
(0.109709 -0.00315757 0)
(0.110207 -0.0030202 0)
(0.108649 -0.00343689 0)
(0.10919 -0.00329659 0)
(0.107501 -0.00371969 0)
(0.108086 -0.00357808 0)
(0.106266 -0.00400267 0)
(0.106895 -0.00386138 0)
(0.104945 -0.00428266 -8.69834e-26)
(0.105617 -0.00414325 0)
(0.10354 -0.00455676 8.88394e-26)
(0.104253 -0.00442063 0)
(0.102053 -0.00482229 -9.06099e-26)
(0.102806 -0.00469078 0)
(0.100489 -0.00507733 0)
(0.10128 -0.00495122 0)
(0.0988545 -0.00532051 0)
(0.0996798 -0.00520025 0)
(0.0971674 -0.00555451 9.64652e-26)
(0.0980193 -0.00543756 1.22684e-23)
(0.095432 -0.00579107 -6.37205e-23)
(0.0963011 -0.00567169 0)
(0.0934251 -0.00505121 -3.78007e-23)
(0.0945525 -0.00590923 -2.97848e-25)
(0.0940466 0.00120731 7.09648e-23)
(0.0939288 -0.000930608 0)
(0.117108 0.000592059 -1.26619e-23)
(0.117109 -0.000656533 -2.44629e-23)
(0.0933056 0.00220451 -3.75382e-23)
(0.0934994 0.00412532 6.77936e-25)
(0.0927451 0.00311432 1.07177e-22)
(0.0931862 -0.0020113 0)
(0.0926901 -0.00307865 1.27972e-23)
(0.0949019 0.00545228 -1.08442e-22)
(0.0938699 0.00534561 9.34002e-23)
(0.0927915 0.00429564 -9.20856e-23)
(0.0924511 -0.00412353 -3.83714e-23)
(0.0924778 -0.00515154 2.55537e-23)
(0.0936726 -0.00603625 2.50752e-23)
(0.0938718 0.000130839 0)
(0.0978737 0.00623075 3.26249e-24)
(0.0960424 0.00634358 1.31312e-25)
(0.0969995 0.00627685 2.53707e-23)
(0.0993138 0.00600703 2.51622e-23)
(0.0986057 0.00612853 -2.52929e-23)
(0.10079 0.0057454 4.64295e-26)
(0.10004 0.0058779 0)
(0.102256 0.00547603 0)
(0.10153 0.00561147 0)
(0.103665 0.00519652 0)
(0.102968 0.00533775 0)
(0.105011 0.00490659 0)
(0.104347 0.00505261 0)
(0.106286 0.00460902 4.28762e-26)
(0.105658 0.00475868 0)
(0.107485 0.0043059 0)
(0.106896 0.004458 0)
(0.108606 0.00399999 0)
(0.108056 0.00415312 0)
(0.109646 0.00369435 0)
(0.109136 0.00384695 0)
(0.110607 0.00339226 0)
(0.110136 0.00354267 0)
(0.111488 0.00309687 -3.79637e-26)
(0.111057 0.00324357 0)
(0.112292 0.00281104 7.60267e-29)
(0.111899 0.00295261 0)
(0.113021 0.00253717 0)
(0.112666 0.00267248 0)
(0.11368 0.00227757 6.9709e-26)
(0.113359 0.00240548 0)
(0.114272 0.002034 0)
(0.113984 0.00215371 0)
(0.114802 0.00180762 0)
(0.114544 0.00191862 0)
(0.115273 0.00159908 0)
(0.115044 0.00170111 0)
(0.115691 0.00140857 0)
(0.115488 0.0015016 0)
(0.116061 0.00123576 0)
(0.115882 0.00132001 0)
(0.116388 0.00107978 5.79483e-26)
(0.116229 0.00115574 0)
(0.116676 0.000938825 -3.56601e-24)
(0.116536 0.00100772 0)
(0.116931 0.000810694 3.38618e-24)
(0.116808 0.000872967 0)
(0.117156 0.000696737 3.22134e-24)
(0.117047 0.000752319 -3.29888e-24)
(0.117176 0.000447557 6.36673e-24)
(0.117259 0.000645261 0)
(0.117215 0.0005488 9.47889e-24)
(0.117119 0.000238073 0)
(0.117144 0.00034351 0)
(0.117094 2.19401e-05 0)
(0.117102 0.000130548 0)
(0.117103 -0.000195377 0)
(0.117094 -8.70479e-05 0)
(0.117145 -0.000408598 1.29699e-23)
(0.11712 -0.000302799 3.22098e-24)
(0.117214 -0.000615113 3.18523e-24)
(0.117176 -0.000512426 2.53992e-23)
(0.117047 -0.000817021 1.65764e-23)
(0.117258 -0.000714965 3.16975e-24)
(0.117156 -0.000763808 -6.44572e-24)
(0.116807 -0.000935274 3.40885e-24)
(0.116931 -0.000874358 -2.04368e-23)
(0.116534 -0.00106728 -5.44653e-29)
(0.116675 -0.000999301 0)
(0.116225 -0.00121335 0)
(0.116384 -0.0011383 0)
(0.115875 -0.00137615 -7.332e-29)
(0.116055 -0.00129258 0)
(0.115479 -0.00155695 0)
(0.115683 -0.00146425 0)
(0.115032 -0.00175666 0)
(0.115262 -0.00165443 0)
(0.11453 -0.00197569 0)
(0.114788 -0.00186378 0)
(0.113967 -0.00221393 0)
(0.114256 -0.00209246 0)
(0.113339 -0.00247075 -1.41394e-25)
(0.113661 -0.0023401 0)
(0.112641 -0.00274497 0)
(0.112999 -0.0026058 0)
(0.111871 -0.00303493 0)
(0.112266 -0.00288814 0)
(0.111025 -0.00333828 0)
(0.111458 -0.00318511 0)
(0.110101 -0.0036522 0)
(0.110573 -0.00349415 0)
(0.109096 -0.00397335 -8.08549e-26)
(0.109608 -0.0038121 0)
(0.108011 -0.0042982 0)
(0.108564 -0.00413557 0)
(0.106845 -0.004623 0)
(0.107438 -0.00446086 0)
(0.105599 -0.00494404 8.69834e-26)
(0.106232 -0.00478423 0)
(0.104277 -0.00525785 -2.96616e-28)
(0.104948 -0.00510207 0)
(0.102881 -0.00556124 1.80898e-25)
(0.103588 -0.00541106 0)
(0.101415 -0.00585133 0)
(0.102156 -0.00570813 0)
(0.0998871 -0.00612538 0)
(0.100659 -0.0059904 0)
(0.0983035 -0.00637947 -4.12392e-28)
(0.0991024 -0.00625553 0)
(0.0966721 -0.0066156 0)
(0.0974923 -0.00649938 0)
(0.0950218 -0.0068565 -3.77696e-23)
(0.0958479 -0.00673456 0)
(0.0927779 -0.00615038 -2.61296e-25)
(0.0941925 -0.00698241 6.39589e-23)
(0.092954 0.00116568 0)
(0.0950998 0.00634677 1.47123e-22)
(0.0922087 0.00213613 2.56695e-23)
(0.117212 0.000799215 -3.21528e-24)
(0.11731 0.000742361 0)
(0.117312 -0.00057666 3.09956e-24)
(0.117354 -0.000667962 -6.14721e-24)
(0.0928818 -0.000967964 0)
(0.0921467 -0.00205386 0)
(0.091806 0.00320577 0)
(0.0916639 -0.00313375 -1.26041e-23)
(0.0914516 -0.00420667 -2.52869e-23)
(0.0915188 -0.00525366 0)
(0.0918698 -0.0062599 6.48086e-23)
(0.0933482 -0.00709935 -5.15872e-23)
(0.0928051 9.85073e-05 0)
(0.0974163 0.00716436 -1.21811e-26)
(0.0940879 0.00631451 4.61271e-23)
(0.0956704 0.00727781 -1.6431e-22)
(0.0965485 0.00723779 4.81547e-23)
(0.0990568 0.00697298 -1.57255e-23)
(0.0982453 0.00705556 -2.51545e-23)
(0.100484 0.00674275 0)
(0.0997893 0.0068684 0)
(0.101873 0.00646192 -4.64253e-26)
(0.101174 0.00660407 0)
(0.103236 0.00616887 0)
(0.102561 0.00631715 0)
(0.104545 0.00586058 0)
(0.103897 0.00601662 0)
(0.105795 0.0055386 0)
(0.105178 0.0057011 0)
(0.106982 0.00520608 -4.28762e-26)
(0.106397 0.00537349 0)
(0.1081 0.0048661 0)
(0.10755 0.00503681 0)
(0.109147 0.00452227 0)
(0.108633 0.00469445 0)
(0.110121 0.00417828 0)
(0.109643 0.00435007 0)
(0.111022 0.00383795 0)
(0.110581 0.00400744 0)
(0.11185 0.00350492 3.77851e-26)
(0.111445 0.00367032 0)
(0.112606 0.00318253 8.59387e-29)
(0.112237 0.00334222 0)
(0.113294 0.00287366 0)
(0.112959 0.00302626 0)
(0.113916 0.00258082 -7.07773e-29)
(0.113613 0.00272512 0)
(0.114475 0.00230595 0)
(0.114203 0.00244106 0)
(0.114976 0.00205042 0)