/*--------------------------------*- C++ -*----------------------------------*\
  =========                 |
  \\      /  F ield         | OpenFOAM: The Open Source CFD Toolbox
   \\    /   O peration     | Website:  https://openfoam.org
    \\  /    A nd           | Version:  10
     \\/     M anipulation  |
\*---------------------------------------------------------------------------*/
FoamFile
{
    format      ascii;
    class       volScalarField;
    location    "19";
    object      p;
}
// * * * * * * * * * * * * * * * * * * * * * * * * * * * * * * * * * * * * * //

dimensions      [0 2 -2 0 0 0 0];

internalField   nonuniform List<scalar> 
6397
(
2.83121
2.42957
0.428515
0.690773
0.63288
0.388481
4.76576
-0.242903
-18.0582
-16.697
7.70527
4.83031
-0.181225
-0.101421
-0.16598
-5.6401
-4.94131
-6.76472
12.1943
11.5301
11.1021
-23.2465
-22.1861
-19.9315
-0.0535819
0.00357127
0.0350603
-2.17029
-2.39919
-2.71077
-3.10552
1.18997
1.06479
0.891766
1.32203
1.28928
1.32495
1.25817
1.20129
1.18322
1.29037
1.27619
-2.35793
-0.792449
-1.29418
0.0655534
0.016094
-0.341163
0.954982
0.889833
0.82348
0.762909
0.821651
5.73715
5.49806
1.73872
1.77743
0.117032
-2.02094
-2.1404
-2.03009
-2.17772
-2.4732
-2.91765
-3.49016
-4.09424
-4.59685
-4.80326
-1.47804
-2.3444
-1.48721
-1.5492
-1.74692
-2.08326
-2.58562
-3.25612
-4.07157
-4.92854
-5.59519
-5.8255
-1.5283
-2.54381
-4.75549
-5.7146
-1.54496
-2.63397
-4.30721
-5.09103
-1.53746
-2.55117
-3.65167
-4.21141
-1.43194
-1.31073
-2.99289
-3.35142
-0.619675
-0.578579
-0.580626
-0.691376
-0.659439
-0.84424
-0.741885
-1.3532
-1.0375
-2.45577
-1.81807
-4.29338
-3.293
-6.20921
-5.34394
-6.31137
-6.72818
-4.42545
-5.47952
-3.41388
-3.32116
-2.42879
-2.8706
-3.59771
-3.59413
-3.09328
-3.41207
-2.39241
-2.70102
-2.13168
-2.18237
-2.46474
-2.22249
-3.28611
-2.84904
-3.86824
-3.69149
-3.49887
-3.80487
-1.19977
-1.93861
-0.549245
-2.57413
-2.65508
-1.80034
-2.12151
-1.67774
-1.97985
-2.23787
-1.58785
-3.39899
0.0208294
0.00827517
-2.86181
-2.47654
0.0458055
0.0447601
-0.0150036
0.0337189
-0.278564
-0.116129
-0.901031
-0.533709
-2.12708
-1.42232
-4.13522
-3.04312
-6.15864
-5.25228
-6.22456
-6.56464
-4.19954
-5.33291
-3.12763
-2.29594
-2.04257
-2.4521
-2.46275
-2.10118
-2.33145
-1.82078
-1.92944
-2.04646
-1.86567
-2.91098
-2.38792
-4.25727
-3.54094
-5.10985
-4.81575
-4.61118
-5.01822
-3.99215
-1.11564
-1.74264
-0.0579415
-0.551317
-1.72847
-2.02175
-2.18857
-1.6893
-1.05376
-1.17298
-1.62946
-1.34873
-1.96038
-1.64837
-2.04041
-2.3665
-0.240683
0.327502
0.108889
-3.13687
-3.88364
-2.19668
0.500741
0.422969
0.563265
0.552183
0.48884
0.556962
0.196206
0.36966
-0.442447
-0.0725111
-1.66432
-0.965499
-3.64376
-2.57705
-5.57285
-4.72257
-5.62347
-5.93391
-3.62775
-4.75327
-2.56016
-1.2018
-1.20731
-1.38669
-1.28165
-1.42089
-1.4548
-1.26656
-1.36062
-1.33228
-1.24829
-1.92783
-1.5567
-3.22242
-2.48393
-5.03422
-4.11059
-6.18163
-5.78744
-5.49011
-6.04657
-4.69949
-1.11237
-1.59359
-0.649588
-0.618081
-2.12832
-1.97259
-2.12148
-2.37762
-0.930421
-1.47935
-0.552303
-0.24277
-1.77687
-1.93162
-4.0378
-3.0849
0.626831
0.390353
-0.331931
-0.162652
-0.810735
-2.47774
-2.14912
0.871301
0.761547
0.950353
0.931337
0.85507
0.9167
0.578024
0.74116
-0.0093542
0.330974
-1.11558
-0.482083
-2.88345
-1.93145
-4.57346
-3.8338
-4.5493
-4.83817
-2.8323
-3.79695
-1.07769
-1.86758
-0.0633391
-0.477915
0.40747
0.222702
-0.920641
-1.70298
-1.23264
-0.652217
-0.733756
-0.624909
-0.633292
-0.593923
-0.626219
-0.564026
-0.561151
-0.85513
-0.653975
-1.70478
-1.20084
-3.31667
-2.41294
-5.4868
-4.38961
-6.83362
-6.38221
-6.04594
-6.69862
-5.08581
-1.21637
-1.52956
-0.87799
-2.85045
-2.40442
-0.0717015
0.533053
-2.42783
-1.95453
0.0596792
-1.92396
-3.87711
-2.81704
-3.04198
-1.47649
-3.43827
-3.94058
-0.803344
-0.057661
0.60254
-2.30749
-2.29203
0.867621
0.320326
0.636697
1.14366
1.03459
1.20821
1.19877
1.11855
1.17214
0.873814
1.01295
0.376734
0.658176
-0.522916
-0.0115831
-1.96373
-1.18689
-3.32216
-2.74297
-3.21527
-3.4911
-1.86916
-2.61092
-0.46167
-1.12007
0.400174
0.0353158
0.84983
0.660716
1.0584
0.978184
-1.1991
-2.70914
-1.81448
-0.482045
-0.777835
-0.164595
-0.286815
-0.0466205
-0.101579
0.0432143
0.00175394
0.0150761
0.0591197
-0.384492
-0.126036
-1.37184
-0.794409
-3.15811
-2.16173
-5.51063
-4.32507
-6.96887
-6.47381
-6.13895
-6.85021
-5.06552
-4.91784
-3.99105
0.633939
1.11424
-1.69746
-1.93967
-1.47473
-1.20389
-1.64444
-1.61977
-1.44752
-1.58545
-0.98457
-1.23642
-0.378859
-0.699669
-0.0633645
-2.95291
-2.10874
-4.05434
-1.61221
-5.46266
-0.878446
-5.66117
-6.83511
-0.0807551
1.15207
0.651139
0.553127
0.205472
-2.6263
1.06865
0.8525
1.316
1.22514
1.36676
1.35743
1.29778
1.33971
1.09997
1.20962
0.714986
0.928193
0.0296892
0.415641
-1.05443
-0.475055
-2.04245
-1.62953
-1.92858
-2.15231
-0.931287
-1.47109
0.0832175
-0.395052
0.767774
0.475234
1.15126
0.989059
1.33549
1.26102
1.4503
1.39225
-1.84398
-4.0731
-2.82583
-0.656573
-1.14769
-0.05894
-0.314437
0.237462
0.114583
0.388936
0.32057
0.504422
0.45348
0.472083
0.522008
0.0503865
0.320623
-0.962172
-0.371722
-2.75836
-1.75913
-5.07839
-3.90948
-6.53769
-6.03159
-5.71472
-6.42374
-3.46606
-4.65778
-1.4702
-2.35657
-0.808159
-1.19229
-0.403006
-0.826042
-1.69512
-1.4866
-1.82948
-1.81105
-1.53024
-1.72536
-0.916257
-1.2462
-7.40837
-5.38786
1.17815
1.45757
-0.232804
-0.562535
-3.77961
-2.44488
-5.46774
-1.86781
-7.39864
-1.02847
-8.83275
-0.129243
-6.20822
-8.57795
0.657172
1.43696
1.19124
-3.81649
-6.04783
-3.51596
1.35124
1.6049
1.55731
0.049514
-0.677558
-0.280054
-3.20173
0.753476
0.451983
1.21579
1.03487
1.41361
1.3419
1.46049
1.44904
1.41783
1.44612
1.27329
1.3563
0.984512
1.14509
0.481862
0.760594
-0.248088
0.131114
-0.858276
-0.60968
-0.784803
-0.926156
-0.140498
-0.491045
0.536767
0.214731
1.03614
0.817028
1.33836
1.21032
1.5077
1.43282
1.57814
1.56429
1.62167
-2.47699
-3.32799
-0.972157
-1.6531
-0.125014
-0.485829
0.32761
0.127967
0.584141
0.475852
0.72492
0.662599
0.825943
0.780433
0.802622
0.84418
0.421725
0.668376
-0.512276
0.0336588
-2.15952
-1.24581
-4.27201
-3.2109
-5.60562
-5.14049
-4.88343
-5.5138
-2.79612
-3.89797
-0.975293
-1.79273
-0.355729
-0.134646
0.285739
-1.05112
-0.587623
-1.8424
-1.4762
-2.29747
-2.12812
-2.18982
-2.31919
-1.55782
-1.926
-1.11902
-4.93818
-2.95737
-7.20877
-2.19812
-9.3753
-1.1874
-10.1614
-0.146198
-8.4777
0.659894
-2.51937
-4.89105
1.17738
1.49644
1.2045
-0.646934
-1.33175
0.258358
1.42659
1.7158
1.58426
-1.18829
-0.671962
0.350985
0.0244945
-4.03514
0.933251
0.651346
1.30835
1.14532
1.46389
1.39587
1.50857
1.48908
1.49283
1.50631
1.39419
1.45513
1.18978
1.30699
0.846901
1.03749
0.384877
0.622808
0.0773787
0.181906
0.157625
0.0632131
0.498277
0.314351
0.900865
0.699986
1.243
1.08709
1.48031
1.37317
1.66312
1.57695
1.80651
1.73623
1.83753
1.83212
1.80108
-1.79145
-1.4751
-1.14234
-1.59525
-0.27565
-0.689497
0.306196
0.0526905
0.648853
0.497136
0.862425
0.770996
0.971372
0.926264
1.04636
1.01031
1.02363
1.05604
0.713197
0.91554
-0.0751869
0.387069
-1.47514
-0.701466
-3.23659
-2.35931
-4.35511
-3.95684
-3.75659
-4.29554
-2.01022
-2.91516
-0.48422
-1.16806
0.0418171
0.816901
1.05579
0.0543405
0.47703
-0.941366
-0.42609
-2.00142
-1.47578
-2.79949
-2.46045
-2.91409
-2.96301
-2.24399
-2.65964
-1.73238
-6.3408
-3.57404
-8.93475
-2.50345
-10.6571
-1.26762
-10.0601
-0.113284
-7.09372
0.650077
-3.3221
1.07125
0.933129
-0.343341
1.05422
1.4501
1.3295
-0.234681
-5.02874
0.611084
0.0776604
0.296447
1.06368
0.813016
1.34759
1.20317
1.47609
1.41333
1.53266
1.51
1.53817
1.5442
1.47293
1.51802
1.32626
1.41427
1.08922
1.22112
0.819649
0.953047
0.725735
0.730187
0.792704
0.726861
0.952176
0.869427
1.16899
1.04767
1.40342
1.29145
1.57689
1.49438
1.72186
1.65145
1.80351
1.77593
1.79716
1.81452
1.7211
1.76657
1.6142
1.67043
0.597533
1.70645
1.24419
-0.300525
0.00736237
-0.124216
-0.290796
0.259583
0.0680689
0.600669
0.43916
0.863305
0.742302
1.05054
0.968676
1.14162
1.1079
1.18309
1.16408
1.16159
1.18571
0.925935
1.07916
0.305083
0.668807
-0.793386
-0.191287
-2.147
-1.47519
-3.00541
-2.69692
-2.54961
-2.95513
-1.20956
-1.90772
-0.0428329
-0.568002
0.688155
0.379324
0.916767
0.955108
1.28445
1.1715
0.255234
0.651107
-0.821963
-0.237745
-2.15223
-1.47703
-3.27992
-2.77595
-3.59933
-3.57309
-2.87552
-3.35035
-1.6128
-2.27158
-0.392616
-0.96075
1.364
1.94428
1.33028
1.53586
-7.69426
-4.12222
1.15988
-10.0304
-2.64148
0.370598
-0.353879
0.280666
-10.5084
-1.24842
-8.51917
-0.074019
-5.10494
0.602611
-1.89079
0.874813
0.365194
0.943718
2.013
1.61578
1.17119
1.20191
1.42336
-5.95114
0.754771
0.537491
1.11565
0.944191
1.34041
1.24419
1.46581
1.41717
1.52941
1.51004
1.53976
1.54375
1.49348
1.52443
1.39881
1.45428
1.26849
1.33915
1.12996
1.20034
1.02831
1.07454
1.16149
1.09514
1.24211
1.2078
1.35154
1.28207
1.51248
1.431
1.64893
1.58208
1.77573
1.71263
1.8726
1.83204
1.88482
1.88596
1.81155
1.86298
1.66412
1.74115
1.51908
1.59426
2.02747
2.13229
2.14445
1.32454
1.7428
0.670002
0.918011
0.556238
0.55464
0.708404
0.623034
0.874446
0.795193
1.01564
0.948943
1.14672
1.08311
1.23556
1.19987
1.26255
1.25347
1.23935
1.25918
1.07094
1.17914
0.612304
0.881031
-0.194626
0.24702
-1.17343
-0.689144
-1.7695
-1.56081
-1.44777
-1.69252
-0.504103
-0.999687
0.32713
-0.0540861
0.86422
0.633064
1.04338
1.3715
1.39231
1.09049
1.27291
0.435493
0.822236
-0.752658
-0.0962841
-2.28414
-1.49944
-3.65959
-3.03416
-4.15109
-4.05566
-3.39563
-3.91977
-1.91813
-2.68961
-1.13159
1.98552
2.0441
1.29519
1.44103
-8.555
-4.35084
0.682454
0.635247
-9.83533
-2.64496
-8.96524
-1.1234
-6.28406
-0.0752563
-3.22772
0.494771
-0.808669
0.60681
0.862962
0.872925
1.73605
0.938156
1.91269
1.8989
1.03263
1.87056
1.70388
1.74689
1.36873
1.20172
1.38363
-6.50237
0.873271
0.735425
1.14111
1.0158
1.32507
1.25158
1.44113
1.39919
1.50681
1.48246
1.52733
1.52227
1.51186
1.52238
1.4688
1.49448
1.39971
1.43884
1.32152
1.36068
1.28362
1.29677
1.38254
1.33185
1.43588
1.41749
1.48521
1.45167
1.58551
1.53115
1.69517
1.63981
1.79956
1.74872
1.86979
1.84128
1.88132
1.88187
1.8402
1.86754
1.75953
1.80468
1.62371
1.6997
1.51816
1.55614
2.11293
2.0099
2.10768
2.15195
1.69889
1.94632
1.20094
1.42988
0.983191
1.05273
0.999475
0.974613
1.08637
1.04242
1.16762
1.13016
1.23965
1.20407
1.2955
1.271
1.31466
1.30762
1.28245
1.30772
1.15593
1.23189
0.836051
1.02282
0.268646
0.579368
-0.398349
-0.0730738
-0.774849
-0.646951
-0.553764
-0.72943
0.0483683
-0.263226
0.594791
0.347093
0.972849
0.810595
1.18973
1.10786
1.25522
1.41044
1.41655
1.18102
1.32688
0.524208
0.930218
-0.727272
-0.0382844
-2.36188
-1.5205
-3.86268
-3.17402
-4.44327
-4.31474
-3.66989
-4.21469
-2.01157
-2.89264
-0.229734
-1.0879
0.563434
0.316064
-8.30851
-4.36462
1.51115
1.36341
0.712822
0.525935
0.66636
1.63213
1.62387
-8.4449
-2.41752
-6.75655
-0.982109
-4.16611
-0.152644
-1.79517
0.288116
-0.0337176
0.335114
1.21706
0.718648
1.76675
0.672659
1.50721
1.47046
1.27198
1.28167
1.76825
0.852539
1.53928
0.422548
1.25906
0.580247
-6.35005
0.845658
0.799973
0.968126
0.897408
1.15621
1.06704
1.31097
1.2466
1.41918
1.37707
1.48876
1.46367
1.52433
1.51278
1.52551
1.52861
1.4972
1.51352
1.45992
1.47734
1.44022
1.44661
1.45355
1.44175
1.51551
1.48327
1.55338
1.53958
1.57825
1.56208
1.64097
1.60505
1.72715
1.6823
1.81639
1.7731
1.87538
1.85273
1.88977
1.88813
1.85182
1.87707
1.78942
1.82154
1.70798
1.75208
1.66413
1.80416
1.64843
2.04086
1.93705
2.08519
2.09544
1.83185
1.9913
1.48242
1.64887
1.26278
1.35246
1.19108
1.21315
1.20267
1.19095
1.25447
1.22596
1.31035
1.28405
1.34155
1.32881
1.34575
1.34444
1.30491
1.34342
1.20023
1.25861
0.977166
1.10528
0.591734
0.799249
0.173188
0.370869
-0.033095
0.0324368
0.106319
0.000384095
0.437932
0.262719
0.780051
0.620921
1.03266
0.920876
1.19079
1.12477
1.23324
1.37169
1.28824
1.41106
1.41235
1.21408
1.35408
0.522135
0.941049
-0.713143
-0.0323019
-2.33257
-1.5002
-3.81878
-3.13613
-4.41423
-4.27472
-3.66317
-4.19973
-1.86738
-2.84284
-0.222191
-0.976423
0.236031
1.14064
0.707017
1.52355
1.6349
-7.18318
-3.93091
-6.49537
-2.1076
-4.68516
-0.924172
1.37635
-2.55879
-0.321109
-0.776311
-0.0297976
0.549689
0.0391363
1.05088
1.06752
0.86095
0.809212
1.44941
0.375625
1.03915
1.71969
0.462515
1.27687
1.57274
0.724492
0.770688
1.09948
1.18218
1.54474
1.6529
1.09021
-5.58867
0.79964
0.789616
0.771156
0.905282
0.856482
1.02568
0.964882
1.16549
1.09426
1.29402
1.23456
1.39136
1.34884
1.45786
1.42996
1.49659
1.48143
1.51401
1.50666
1.5167
1.51525
1.51207
1.51407
1.51085
1.50951
1.53532
1.51993
1.58809
1.56182
1.6205
1.60845
1.6391
1.62856
1.68121
1.65669
1.74688
1.71194
1.81932
1.78407
1.87054
1.84886
1.88931
1.88398
1.86949
1.88406
1.82322
1.84884
1.75919
1.79171
1.71704
1.73301
1.7217
1.71246
1.66784
1.76591
1.74135
1.43271
1.25967
1.73195
1.59049
1.94819
1.85356
2.00877
2.00375
1.8567
1.95529
1.60034
1.73466
1.39865
1.48755
1.31978
1.34419
1.31111
1.31269
1.31734
1.31253
1.3337
1.32457
1.34545
1.34113
1.3325
1.34301
1.29215
1.29918
1.21028
1.25976
1.04497
1.13846
0.789845
0.922528
0.54665
0.655569
0.439812
0.471574
0.495474
0.452905
0.681229
0.582419
0.886601
0.782804
1.05601
0.977363
1.16486
1.12445
1.21382
1.20586
1.22112
1.3272
1.26647
1.35348
1.35653
1.14222
1.29665
0.468581
0.865952
-0.691142
-0.0513525
-2.19155
-1.42319
-3.52583
-2.92051
-4.01124
-3.91292
-3.2624
-3.78337
-1.67704
-2.51777
-0.2848
-0.910998
0.389012
0.126273
0.60372
-5.66537
-3.33336
1.79037
1.84528
1.88213
-4.69929
-1.86988
1.09356
-3.14143
-1.01756
-1.42981
-0.613044
1.39008
0.652986
0.733033
0.561491
0.447701
-0.0294742
-0.488015
0.565497
0.982916
-0.363179
1.67472
1.54917
0.75935
1.54152
-0.148964
1.01939
1.60237
0.309141
1.27094
0.846727
0.836236
0.873783
0.813889
1.13031
1.02734
0.876989
-4.57446
0.858836
0.844029
0.936086
0.893386
1.04656
0.989628
1.16667
1.10631
1.27855
1.22457
1.36926
1.32629
1.43616
1.40626
1.48042
1.46173
1.5049
1.49476
1.51506
1.51046
1.52448
1.51834
1.54673
1.53332
1.58312
1.56345
1.62396
1.60395
1.65304
1.64095
1.67455
1.66307
1.70947
1.68982
1.76106
1.7334
1.8194
1.79078
1.86377
1.84358
1.88373
1.87707
1.87594
1.88284
1.84897
1.86444
1.80867
1.8292
1.78174
1.79071
1.79272
1.7826
1.81354
1.07985
0.906459
1.39578
1.24457
1.65757
1.53352
1.85257
1.76595
1.91989
1.90711
1.82147
1.88922
1.64441
1.73432
1.49462
1.56371
1.3985
1.43888
1.35573
1.37171
1.34854
1.34849
1.35599
1.352
1.35427
1.35718
1.33074
1.34614
1.28541
1.30781
1.20758
1.25443
1.07415
1.1498
0.898868
0.988797
0.756934
0.817385
0.70017
0.714652
0.7285
0.700771
0.822517
0.764123
0.943255
0.880645
1.05348
1.0063
1.13126
1.10198
1.1659
1.15206
1.14829
1.1402
0.9997
1.08457
1.22773
1.18312
1.2489
1.25481
1.00161
1.17304
0.362702
0.732394
-0.680268
-0.112518
-1.95734
-1.30964
-3.04043
-2.55787
-3.36464
-3.32632
-2.64138
-3.12526
-1.32469
-2.00201
-0.213479
-0.71753
0.4661
0.180828
0.660855
1.81242
1.91972
-4.31303
-2.83146
0.68625
-3.40344
-1.80538
0.399043
0.528643
0.406769
0.250124
-2.08108
-1.32301
1.08335
0.250245
-0.613977
-1.06092
0.3229
0.503744
-1.13031
1.67604
1.37758
0.470949
1.27137
-0.92754
1.52738
0.692573
1.47727
-0.675382
1.01614
1.44052
0.907333
0.949105
1.84232
1.96312
-3.68615
0.88139
0.916395
0.895614
0.90083
0.885884
0.960214
0.926693
1.05572
1.00516
1.16241
1.10901
1.26218
1.2131
1.34588
1.30491
1.4109
1.37979
1.45817
1.43676
1.49149
1.4765
1.51582
1.5042
1.53614
1.52575
1.5613
1.54707
1.59834
1.57995
1.63926
1.61928
1.66978
1.6567
1.69289
1.68096
1.72477
1.70719
1.769
1.74536
1.8177
1.79373
1.8568
1.83851
1.87841
1.87018
1.88037
1.88144
1.8668
1.87534
1.8462
1.85613
1.8364
1.83906
1.85366
1.84094
1.91076
1.87595
2.00312
1.955
2.02151
2.12796
2.05789
0.800036
0.659636
1.09189
0.945515
1.36145
1.23249
1.5913
1.48101
1.7609
1.68657
1.82405
1.80864
1.77051
1.81162
1.64786
1.71475
1.51795
1.58109
1.42962
1.46611
1.39287
1.40733
1.37445
1.38207
1.36368
1.36827
1.35048
1.35794
1.32189
1.33846
1.27577
1.30079
1.20217
1.24443
1.09375
1.15453
0.967374
1.03235
0.875341
0.916012
0.839085
0.851427
0.848092
0.838999
0.895616
0.870383
0.970633
0.936108
1.04599
1.01183
1.10077
1.06821
1.11605
1.08906
1.08036
1.07924
1.016
1.04856
1.02543
1.11073
1.08228
1.05526
1.10724
0.7438
0.932042
0.159855
0.49059
-0.718442
-0.250454
-1.69541
-1.21265
-2.43568
-2.12009
-2.54099
-2.58516
-1.87821
-2.2969
-0.821477
-1.35672
0.0812638
-0.332811
0.647595
0.419543
0.873636
0.78039
0.934786
0.915585
0.146513
-3.38744
-2.5604
0.935354
0.861127
0.286703
0.109207
-2.5851
-1.99624
2.20093
2.09775
0.731043
0.068027
-1.36257
-1.87091
1.89295
0.0801347
-0.0620479
-1.79038
1.69456
1.10956
0.179772
0.790146
-1.97915
1.50777
0.344395
1.37416
-1.62495
1.34386
0.650642
1.26161
-1.03127
1.04184
2.26354
2.32432
2.34832
0.182029
0.119773
-3.11753
0.920802
0.934237
0.935374
0.899475
0.906655
0.924623
0.907491
0.980592
0.949355
1.06244
1.01793
1.1569
1.10848
1.24711
1.20219
1.3256
1.28693
1.38929
1.35856
1.43807
1.41553
1.4748
1.45806
1.50459
1.49033
1.53382
1.51891
1.56803
1.54986
1.60537
1.59202
1.64127
1.6234
1.67287
1.6582
1.70052
1.68653
1.73184
1.71526
1.77086
1.75015
1.81347
1.79227
1.84942
1.83263
1.87234
1.86268
1.88196
1.8786
1.88095
1.88264
1.87494
1.87771
1.87958
1.87487
1.90633
1.88931
1.96884
1.93188
2.0719
2.01716
2.198
2.13136
2.26773
0.441925
0.28966
0.350939
0.63721
0.537932
0.859673
0.742606
1.10169
0.980453
1.32975
1.21871
1.53015
1.43505
1.67423
1.6118
1.73992
1.71917
1.71108
1.73593
1.62081
1.67036
1.52418
1.57018
1.45223
1.48499
1.40623
1.4265
1.3782
1.39038
1.3608
1.36875
1.34214
1.35236
1.31124
1.32836
1.26506
1.29029
1.19848
1.23521
1.11028
1.15781
1.01661
1.06297
0.949576
0.978958
0.918433
0.930677
0.916104
0.914146
0.940298
0.925802
0.981643
0.95962
1.02654
1.00444
1.05432
1.04041
1.04949
1.05341
1.00227
1.03836
0.900888
0.962622
0.893997
0.896715
0.900259
0.907269
0.745912
0.851967
0.37916
0.581423
-0.15039
0.138516
-0.825356
-0.478746
-1.46401
-1.16425
-1.83003
-1.69524
-1.70413
-1.83842
-1.05826
-1.43614
-0.19712
-0.620979
0.480572
0.175783
0.856073
0.716868
0.956655
0.924001
0.957899
0.963412
0.945564
-0.0141703
-2.89028
-2.56118
2.29802
2.31782
2.35534
0.673177
0.919711
2.17354
0.0296954
-0.10028
-2.14458
-2.54847
1.9731
-0.147362
-0.955491
-2.6952
1.74646
0.789352
-0.120515
0.166922
-3.04872
1.52504
-0.00332486
0.811489
-3.1305
1.13609
1.30843
0.230901
1.14328
-2.35151
0.598873
0.888663
0.298929
-0.108677
-0.0960745
-2.90019
0.913831
0.92316
0.909195
0.9073
0.938178
0.919329
0.993052
0.962127
1.06675
1.02679
1.15053
1.1069
1.23272
1.19177
1.30655
1.27051
1.36887
1.33897
1.41946
1.39586
1.46007
1.44122
1.49443
1.4782
1.52619
1.51053
1.55945
1.54272
1.59814
1.57222
1.63867
1.61939
1.67086
1.65571
1.70005
1.68531
1.73199
1.71534
1.76898
1.74976
1.80768
1.78836
1.84161
1.82555
1.8665
1.85529
1.88222
1.87542
1.89186
1.88754
1.89902
1.89549
1.91427
1.90451
1.95184
1.92978
2.01937
1.98064
2.12757
2.06923
2.24855
2.1887
2.33969
2.3015
2.28774
2.36576
2.42392
2.36607
0.565225
0.450714
0.491651
0.728418
0.646167
0.911419
0.816084
1.11079
1.01069
1.30232
1.20843
1.47335
1.39113
1.6027
1.5454
1.66106
1.64166
1.64765
1.6612
1.59042
1.62443
1.51458
1.55259
1.44849
1.47911
1.4054
1.4243
1.37681
1.38999
1.35467
1.36539
1.33116
1.34366
1.29856
1.31649
1.25337
1.27835
1.19427
1.22666
1.12202
1.15985
1.0497
1.08417
0.995459
1.01842
0.963626
0.976566
0.952381
0.956188
0.960358
0.954984
0.982513
0.969732
1.00515
0.992648
1.01173
1.00936
0.992253
1.00922
0.941813
0.982068
0.846784
0.909882
0.71966
0.703435
0.714058
0.719929
0.6401
0.700229
0.329922
0.51712
-0.133224
0.100802
-0.590434
-0.361379
-1.01555
-0.812516
-1.2855
-1.1793
-1.26846
-1.31874
-0.912572
-1.13259
-0.299504
-0.627156
0.375658
0.0494619
0.84442
0.645453
1.03896
0.979116
1.03448
1.05157
0.978625
1.01124
0.95098
2.24181
-1.10394
-0.257732
-2.75311
-2.90356
0.873074
0.460252
2.06956
-0.359757
-2.04578
-3.52793
0.81447
2.46736
2.51734
1.8327
0.191451
-0.0069992
0.0869261
-0.414189
-0.86577
-4.06417
1.57416
-0.369711
0.0959572
-4.92279
0.8181
1.32857
-0.196647
0.693585
-4.57066
1.15613
0.0535969
0.790208
-2.85719
2.25
2.33911
0.418602
2.42909
-0.393249
-0.377865
-3.00454
0.903665
0.895587
0.913429
0.905687
0.944841
0.9256
0.99815
0.968753
1.0672
1.0307
1.14363
1.10435
1.2196
1.18202
1.28941
1.25566
1.35026
1.32123
1.40143
1.37736
1.4443
1.42405
1.48231
1.46405
1.51796
1.50042
1.55336
1.5357
1.59078
1.57086
1.62995
1.6107
1.66459
1.64783
1.69625
1.68058
1.72816
1.71187
1.76341
1.74528
1.80017
1.78176
1.83342
1.8175
1.86039
1.84777
1.88132
1.87149
1.89953
1.89057
1.91729
1.90836
1.94293
1.92804
1.98934
1.96353
2.06162
2.02121
2.16864
2.11094
2.2832
2.22847
2.36261
2.3267
2.47458
2.40539
0.518581
0.375447
0.646479
0.584058
0.596097
0.672364
0.615577
0.807174
0.738251
0.954668
0.877314
1.12042
1.0372
1.28002
1.20132
1.42687
1.35566
1.53793
1.48909
1.59024
1.57103
1.59022
1.59576
1.54863
1.5726
1.48942
1.51928
1.43725
1.46171
1.39832
1.41643
1.3682
1.38252
1.34324
1.35552
1.31732
1.33097
1.28482
1.3026
1.24214
1.26543
1.18953
1.21774
1.12873
1.15981
1.06875
1.09704
1.02138
1.04193
0.98935
1.00292
0.972135
0.978996
0.968625
0.96879
0.973521
0.970102
0.97799
0.976198
0.971386
0.978139
0.944667
0.966064
0.89276
0.929599
0.794948
0.853608
0.646666
0.719347
0.57586
0.579657
0.579706
0.504418
0.552888
0.262436
0.418283
-0.228309
0.0382929
-0.768047
-0.50928
-1.14192
-0.979246
-1.28611
-1.24514
-1.16995
-1.26087
-0.806061
-1.01759
-0.251326
-0.547001
0.367857
0.0626175
0.865651
0.641494
1.12124
1.02514
1.16717
1.1662
1.08747
1.13947
0.993611
1.04808
0.890564
0.943231
0.846963
2.16184
-0.558718
-2.94893
-3.74988
0.836212
2.55886
0.573111
1.94123
2.27038
2.16826
0.343394
0.153444
-0.845497
-0.693773
-2.23118
-4.9848
1.66281
-0.741425
-0.965164
-6.21327
0.249928
2.37386
1.36963
-0.644128
-0.0971128
-6.91052
1.13015
-0.499723
0.432267
-5.56965
0.863221
-0.138099
0.364689
2.58021
-0.757619
-0.283019
-0.630828
2.53637
-0.720289
-3.49075
0.883023
0.861829
0.910684
0.897005
0.946892
0.926356
0.999497
0.970897
1.06492
1.03061
1.13626
1.0998
1.20744
1.17207
1.27404
1.2417
1.33353
1.30498
1.38492
1.36051
1.42933
1.40814
1.46912
1.4499
1.50661
1.48815
1.54394
1.52534
1.58232
1.56262
1.62042
1.60167
1.65521
1.63814
1.68837
1.67183
1.72169
1.70491
1.75605
1.73871
1.79088
1.77346
1.82433
1.80806
1.85353
1.83952
1.87918
1.86663
1.90457
1.89188
1.93053
1.91726
1.96592
1.94621
2.01949
1.99048
2.09536
2.05398
2.20016
2.14478
2.30735
2.2565
2.39135
2.3496
2.51083
2.44424
2.65035
2.67308
2.58815
2.62282
0.620171
0.494718
0.755042
0.821663
0.728678
0.701865
0.713386
0.765317
0.722193
0.871381
0.817103
0.991668
0.928377
1.12947
1.06019
1.26274
1.19762
1.38572
1.32611
1.48042
1.43796
1.52947
1.51073
1.53416
1.5365
1.50595
1.52288
1.46238
1.48483
1.41961
1.44036
1.38389
1.4009
1.35478
1.36876
1.32916
1.34195
1.30247
1.31654
1.27054
1.28783
1.23084
1.25228
1.18334
1.20811
1.13061
1.1569
1.07875
1.10317
1.03544
1.05535
1.0026
1.01783
0.980154
0.990258
0.967658
0.972268
0.960977
0.963391
0.953319
0.957924
0.936578
0.948223
0.902003
0.924833
0.843527
0.877224
0.751293
0.803004
0.620658
0.687345
0.550465
0.494698
0.463145
0.479369
0.458446
0.489621
0.26794
0.392013
-0.174741
0.0862419
-0.865839
-0.50515
-1.53041
-1.22355
-1.81823
-1.73288
-1.6418
-1.78245
-1.1205
-1.41513
-0.417524
-0.78148
0.298962
-0.0501586
0.877346
0.611419
1.23028
1.08367
1.33215
1.31146
1.26543
1.30923
1.12916
1.20609
1.00419
1.07909
0.868779
0.931684
0.797652
0.829046
2.05619
-0.0718085
-1.06834
-0.745621
-0.368573
-2.71627
-1.2005
-0.950969
-3.47736
-5.15731
1.78452
-1.10096
-2.46067
-6.98636
2.74865
2.76249
-0.409336
2.4931
2.69491
2.66109
0.848577
0.902277
0.376907
0.454453
0.382417
0.766876
0.783011
0.743648
1.4564
-1.1288
-1.03735
-8.37645
2.05032
2.16812
1.1512
-1.05073
-0.317883
-7.95744
0.518018
0.904585
-1.63732
-1.23686
-0.761825
-0.0352711
-5.12334
-0.29602
-1.14376
-4.46609
0.811596
0.788683
0.859483
0.835578
0.90087
0.881057
0.943816
0.92099
0.997287
0.969011
1.06048
1.02782
1.12839
1.09397
1.19595
1.16232
1.25993
1.22862
1.31808
1.28993
1.36953
1.34483
1.41509
1.39313
1.45639
1.43635
1.49522
1.4761
1.53323
1.51433
1.57166
1.55225
1.60975
1.59091
1.64523
1.62779
1.67875
1.6621
1.71235
1.69541
1.74677
1.72946
1.78143
1.76416
1.8148
1.79837
1.84615
1.83072
1.87635
1.86127
1.9076
1.89188
1.9405
1.92352
1.98429
1.96046
2.04331
2.01197
2.12243
2.07972
2.22544
2.1718
2.32823
2.27899
2.42258
2.37409
2.54223
2.4787
2.69154
2.61323
2.72634
0.513374
0.182962
0.355653
0.744381
0.640097
0.904749
0.830001
0.801578
0.813296
0.845213
0.814462
0.925211
0.883021
1.02303
0.971543
1.13683
1.07918
1.24787
1.19351
1.34986
1.3001
1.4313
1.39439
1.4749
1.45807
1.48287
1.48235
1.46545
1.47675
1.43194
1.44979
1.39672
1.41399
1.36574
1.38076
1.33862
1.35187
1.31333
1.32602
1.28685
1.30076
1.25582
1.27233
1.21891
1.23849
1.17577
1.19782
1.12909
1.15217
1.08271
1.10497
1.04149
1.06118
1.00781
1.02398
0.981654
0.993867
0.962388
0.970916
0.946692
0.954051
0.929437
0.938982
0.904104
0.919271
0.863597
0.887275
0.801976
0.83565
0.713302
0.760545
0.593128
0.657656
0.52613
0.387248
0.375864
0.334925
0.386389
0.00523427
0.214105
-0.679851
-0.291234
-1.61626
-1.13857
-2.39618
-2.05611
-2.56265
-2.5697
-2.05798
-2.38296
-1.13994
-1.62849
-0.13423
-0.630818
0.730223
0.32567
1.3076
1.05942
1.53877
1.46451
1.50883
1.54841
1.35925
1.4378
1.17423
1.2742
1.01897
1.10821
0.866969
0.934268
0.822149
1.92247
-0.042319
-1.78662
-1.45163
-4.18347
-6.88415
2.77403
-1.94597
2.62598
0.970109
0.445909
0.380773
0.734101
0.704728
1.58356
-1.624
-2.29605
-8.9121
2.2884
1.20758
-1.66479
-1.11626
-9.24954
1.89606
2.03086
0.00576378
0.923717
-2.40062
-1.8704
-1.46354
-0.730665
-7.15066
0.681032
-1.19248
-0.7656
-0.325859
-0.687286
-1.70689
-5.72774
0.789243
0.762425
0.839363
0.814843
0.887675
0.863419
0.93701
0.911734
0.992369
0.963808
1.05428
1.02265
1.11979
1.08675
1.18489
1.15249
1.24681
1.21636
1.30384
1.27604
1.35517
1.33031
1.40138
1.37894
1.4437
1.42303
1.48356
1.46389
1.52223
1.50306
1.56054
1.54137
1.59815
1.57953
1.63395
1.61625
1.66829
1.65125
1.70194
1.68513
1.73575
1.71874
1.77049
1.75301
1.80469
1.78773
1.83792
1.82135
1.87215
1.85478
1.90843
1.89015
1.94786
1.92734
1.99883
1.97157
2.06278
2.02929
2.14428
2.10074
2.24523
2.19322
2.34781
2.29736
2.45034
2.39782
2.5686
2.50736
2.7092
2.63631
2.85857
2.86527
2.78666
2.8445
2.8514
2.80815
2.83057
-3.47867
2.76629
2.78699
0.69159
0.447897
0.57527
0.870025
0.78884
0.995487
0.937038
1.03074
1.09815
1.04912
0.929077
0.973412
0.886526
0.899456
0.911934
0.891988
0.971078
0.939181
1.04923
1.00779
1.14252
1.09496
1.23495
1.18962
1.3196
1.27838
1.38712
1.35659
1.4266
1.41106
1.43661
1.43448
1.42556
1.43336
1.40022
1.41396
1.37188
1.38597
1.34538
1.35842
1.32041
1.33279
1.29613
1.30837
1.27047
1.28387
1.24101
1.25646
1.20659
1.22449
1.16711
1.18712
1.12463
1.14578
1.08193
1.10291
1.0428
1.0619
1.00862
1.02527
0.979174
0.993115
0.953998
0.965859
0.931118
0.942494
0.906578
0.919763
0.874677
0.892335
0.829234
0.854302
0.764713
0.799632
0.679613
0.724983
0.566682
0.626779
0.507211
0.303306
0.311209
0.312331
0.271369
0.28675
0.170847
0.246995
-0.282716
0.00068151
-1.18792
-0.685658
-2.33898
-1.75611
-3.25276
-2.86516
-3.32863
-3.4164
-2.49271
-3.00373
-1.19209
-1.86382
0.0826773
-0.530227
1.05029
0.615444
1.59101
1.37301
1.75854
1.71678
1.65865
1.73284
1.4517
1.55704
1.22744
1.34411
1.03877
1.13447
0.879016
0.951927
0.769076
0.820636
0.674326
0.718863
1.73769
0.290704
-2.58386
-2.08623
-4.69702
-8.2923
2.42483
1.32067
-2.26596
-2.20654
-9.59142
2.1589
2.94178
2.94342
1.08507
1.14352
-0.839585
0.24317
0.309616
0.248659
0.635408
0.642592
0.598745
0.924796
-1.15548
-2.1988
-1.39794
-8.15886
1.6683
1.82006
0.699962
0.37826
-2.18427
-1.52754
-4.70439
-3.46569
-2.76161
-1.68573
2.73878
2.91216
2.90713
0.0998324
-0.131395
-2.44042
-6.61959
2.57582
0.703049
0.669934
0.765656
0.734995
0.820579
0.793824
0.873235
0.846994
0.927625
0.900018
0.985443
0.956035
1.04704
1.01587
1.11077
1.07879
1.17399
1.14257
1.23442
1.20465
1.29061
1.26311
1.34183
1.31685
1.38846
1.36572
1.43141
1.41036
1.47186
1.45191
1.51089
1.49152
1.54922
1.53012
1.58648
1.56804
1.62208
1.60446
1.6566
1.63941
1.69051
1.67362
1.72412
1.70726
1.75861
1.74123
1.79359
1.77607
1.82886
1.81111
1.86647
1.84725
1.9071
1.88649
1.95255
1.92881
2.00939
1.9794
2.07838
2.04239
2.16237
2.11823
2.26134
2.2106
2.36508
2.313
2.47351
2.41835
2.59269
2.53146
2.7273
2.65816
2.87275
2.79938
2.93941
2.93891
2.92299
2.93074
2.91773
0.715755
0.510175
0.621057
0.871867
0.797755
0.995916
0.937513
1.09114
1.04576
1.17092
1.13261
0.998503
1.03627
0.958554
0.972251
0.968774
0.95808
1.01023
0.986932
1.07149
1.0386
1.14698
1.10826
1.2236
1.18588
1.29327
1.2594
1.35144
1.32429
1.38403
1.37049
1.39426
1.39153
1.38758
1.39273
1.36888
1.3793
1.34593
1.35747
1.3234
1.3346
1.30082
1.31215
1.27811
1.2896
1.25386
1.26646
1.22606
1.24052
1.19385
1.21045
1.15736
1.17581
1.1183
1.13792
1.07869
1.09842
1.04104
1.05971
1.00583
1.02312
0.973627
0.98913
0.944105
0.958449
0.915823
0.930094
0.885323
0.901401
0.847872
0.867812
0.798215
0.824821
0.732465
0.767557
0.64739
0.692691
0.544985
0.598885
0.434448
0.49068
0.373633
0.229198
0.23992
0.156123
0.201253
-0.0299018
0.0883027
-0.567797
-0.233553
-1.63373
-1.04359
-3.00091
-2.30776
-4.04296
-3.61483
-4.01391
-4.1862
-2.87282
-3.54886
-1.25233
-2.07215
0.22508
-0.474234
1.29037
0.817847
1.83931
1.6313
1.93248
1.9309
1.77747
1.87386
1.53169
1.65701
1.26765
1.40478
1.0528
1.15593
0.885681
0.96397
0.750439
0.815423
0.691815
1.48605
0.392987
-3.75901
-2.84122
-4.14797
-8.54018
2.31155
2.90487
2.69848
2.94591
1.20637
-1.43263
0.306902
0.251508
0.59977
0.560332
0.974148
-0.423962
-2.99646
-2.13413
-8.4847
1.95676
0.601286
0.0713265
-3.21642
-2.36659
-5.90857
-1.87005
0.50231
-2.96096
-2.40312
2.91428
1.47397
0.910803
0.892862
1.30038
3.1074
3.1576
-3.443
-6.43583
2.49486
0.674299
0.638484
0.740752
0.708362
0.801646
0.771933
0.858913
0.830359
0.916845
0.887601
0.97682
0.946553
1.03878
1.00764
1.10158
1.07023
1.16345
1.13275
1.2227
1.19349
1.27815
1.25095
1.32931
1.30426
1.37627
1.35329
1.4197
1.39836
1.46057
1.44041
1.49967
1.48027
1.53777
1.51882
1.57471
1.55643
1.61008
1.59257
1.64437
1.62732
1.67796
1.66124
1.71147
1.69462
1.74603
1.72863
1.78144