/*--------------------------------*- C++ -*----------------------------------*\
  =========                 |
  \\      /  F ield         | OpenFOAM: The Open Source CFD Toolbox
   \\    /   O peration     | Website:  https://openfoam.org
    \\  /    A nd           | Version:  10
     \\/     M anipulation  |
\*---------------------------------------------------------------------------*/
FoamFile
{
    format      ascii;
    class       volVectorField;
    location    "19";
    object      U;
}
// * * * * * * * * * * * * * * * * * * * * * * * * * * * * * * * * * * * * * //

dimensions      [0 1 -1 0 0 0 0];

internalField   nonuniform List<vector> 
6397
(
(4.27003 -0.819378 1.05117e-19)
(4.43528 -0.791169 -4.61995e-19)
(4.12891 1.45886 0)
(3.87432 1.34124 1.27606e-20)
(3.52801 1.44365 1.97648e-20)
(3.68208 1.59071 2.67879e-20)
(3.54313 -2.75083 -5.23605e-20)
(1.64785 -4.40083 1.01548e-18)
(-0.464694 -2.27696 7.04507e-19)
(-2.17781 -2.21171 -2.74227e-19)
(1.75554 2.31711 1.48291e-18)
(3.51997 3.03801 -1.88438e-19)
(3.72604 0.107138 -2.6803e-20)
(3.71567 0.0963761 -1.05203e-20)
(2.57062 0.11385 1.90657e-20)
(0.123948 -0.912155 -1.42182e-18)
(0.442984 -1.6067 -5.93826e-19)
(-0.913937 -0.877072 7.83622e-19)
(1.24504 -0.646307 7.99145e-19)
(2.16551 -1.10468 -2.44941e-18)
(1.67902 -0.653992 -1.23948e-18)
(2.10986 -0.959392 -4.61556e-18)
(0.235853 -0.153187 2.08964e-19)
(4.22146 0.238166 -2.95943e-18)
(4.08276 0.138743 0)
(4.3442 0.0829159 -1.82634e-21)
(4.45357 0.137367 -2.60117e-21)
(2.45806 1.25862 2.0932e-19)
(2.32528 0.717214 -6.31763e-20)
(2.61938 1.86472 1.53632e-19)
(2.49176 1.47213 -1.8959e-19)
(3.71466 0.882958 9.79524e-20)
(3.91654 1.01208 4.99112e-20)
(3.73915 1.23414 -1.61722e-19)
(3.83762 0.337123 3.34313e-20)
(3.89713 0.413303 0)
(3.77825 0.565017 -3.1935e-20)
(3.87143 0.698761 -6.05275e-20)
(3.99869 0.0365967 6.38128e-20)
(4.00932 0.0179902 -3.00456e-20)
(3.8921 0.0702145 0)
(3.94788 0.26857 0)
(2.72781 2.1392 -6.3303e-20)
(3.39981 2.15328 -2.76677e-20)
(3.58341 2.23984 5.33114e-20)
(3.91982 1.71275 -1.40053e-20)
(3.46967 1.83026 -8.20286e-21)
(3.66042 1.95541 4.35391e-20)
(4.21669 -0.330003 5.18316e-20)
(4.23071 -0.22607 -8.01044e-21)
(4.32833 -0.242607 8.36142e-20)
(4.34928 -0.17968 -2.88564e-20)
(4.27436 -0.216565 -2.2675e-19)
(4.12506 0.783756 -1.46622e-19)
(3.56581 0.400194 9.51676e-20)
(4.03615 0.0531831 3.90003e-20)
(4.05279 0.0669214 3.79531e-20)
(4.36743 0.105797 2.31246e-21)
(2.78479 -2.52398 -9.8726e-20)
(2.62417 -2.2363 9.98459e-20)
(2.92626 -2.70501 9.44007e-20)
(3.01024 -2.7845 -9.29329e-20)
(3.05553 -2.77697 -1.22912e-19)
(3.04122 -2.65589 1.20837e-19)
(2.99035 -2.37879 0)
(2.92638 -1.86459 1.93428e-19)
(2.90038 -1.09364 -2.02138e-19)
(2.9017 -0.127924 0)
(2.70536 -2.13148 -6.63121e-20)
(2.43675 -1.81428 -2.49745e-21)
(2.52452 -1.73896 6.15598e-20)
(2.88434 -2.42561 0)
(3.03589 -2.62701 0)
(3.15033 -2.73732 0)
(3.21866 -2.76785 -4.50277e-22)
(3.23671 -2.68274 6.78719e-23)
(3.23174 -2.40793 0)
(3.20988 -1.8645 -2.81613e-23)
(3.22957 -1.03085 0)
(3.25812 0.0237032 0)
(2.37884 -1.23989 -7.61994e-20)
(2.29773 -1.26516 6.95939e-21)
(2.96122 0.897047 0)
(3.3371 1.10217 0)
(2.30395 -0.651926 -2.08378e-22)
(2.22058 -0.610937 0)
(3.06262 1.79085 0)
(3.41246 2.01363 0)
(2.31167 -0.0219277 1.42867e-19)
(2.22662 0.0751413 -3.72964e-20)
(3.20531 2.44632 0)
(3.5018 2.63886 0)
(2.41195 0.565934 -1.17486e-19)
(2.54788 1.07149 -4.42625e-20)
(3.34048 2.82617 0)
(3.56524 2.96058 1.94453e-20)
(2.46238 -0.110971 0)
(2.68413 0.940216 5.68163e-20)
(2.5368 0.436528 3.57746e-21)
(2.55395 -1.19227 -3.22653e-20)
(2.46153 -0.67523 0)
(2.8587 -2.01293 -2.04076e-20)
(2.68746 -1.64328 3.17306e-20)
(3.22386 -2.50702 3.60408e-20)
(3.03944 -2.29426 1.65186e-20)
(3.48933 -2.70068 4.50945e-22)
(3.36524 -2.64131 -3.80628e-20)
(3.60613 -2.33602 -2.32476e-20)
(3.5364 -2.62292 -9.44151e-20)
(3.70475 -0.868398 -1.14009e-19)
(3.6265 -1.7474 2.23346e-19)
(3.86035 1.28651 0)
(3.75463 0.203946 0)
(3.91649 2.73394 0)
(3.89413 2.16995 0)
(3.88559 3.00473 -3.86517e-20)
(2.83207 1.55308 -1.39899e-19)
(3.17563 2.60553 -5.21363e-20)
(2.9974 2.19884 1.38445e-19)
(2.70111 -0.255343 1.63721e-19)
(2.73207 0.686471 -1.60047e-19)
(2.7924 -1.82514 1.266e-21)
(2.72876 -1.13286 5.56946e-21)
(2.95611 -2.58701 0)
(2.87681 -2.29646 0)
(2.97673 -2.78861 9.73664e-20)
(2.98937 -2.73829 1.13261e-20)
(2.79685 -2.59348 2.14126e-20)
(2.91142 -2.73864 -9.66746e-20)
(2.48038 -1.91122 8.58064e-20)
(2.63878 -2.32969 -6.88557e-21)
(2.30615 -0.559841 -1.81158e-19)
(2.3485 -1.30636 -8.00365e-20)
(2.39285 0.904611 0)
(2.30705 0.214346 1.88717e-19)
(2.70145 1.49356 -6.51584e-20)
(2.58993 1.68498 -5.26926e-21)
(2.85952 1.34467 6.99484e-21)
(3.83311 3.04734 -4.17416e-20)
(3.59443 3.03803 1.1332e-20)
(3.14596 2.39766 -5.33479e-22)
(3.36719 2.77902 5.2269e-20)
(3.38908 2.59284 0)
(3.7345 2.927 2.65563e-20)
(4.12929 2.95108 -4.45825e-20)
(3.9383 2.7845 4.43247e-20)
(2.77231 2.05927 7.5305e-20)
(2.83432 0.818944 -1.37823e-20)
(3.00788 1.22137 -6.69123e-21)
(2.84728 2.29466 6.21504e-20)
(3.46922 2.95849 3.50013e-21)
(2.67602 -0.142573 0)
(2.7311 0.370227 3.56135e-21)
(2.75428 -1.09973 -1.18925e-21)
(2.661 -0.639949 0)
(3.05824 -1.84981 -7.39525e-22)
(2.86983 -1.50425 1.8775e-21)
(3.45007 -2.32746 0)
(3.22863 -2.12335 3.00411e-21)
(3.78104 -2.56726 0)
(3.613 -2.47718 2.3261e-21)
(4.02606 -2.23666 0)
(3.89162 -2.51756 9.0826e-21)
(4.26768 -0.762935 -2.02447e-22)
(4.13738 -1.64963 1.16239e-20)
(4.42644 1.36723 9.1181e-21)
(4.35255 0.303891 -1.70333e-20)
(4.38694 2.73206 -2.24436e-21)
(4.43499 2.20731 -3.4541e-21)
(4.27186 2.96093 1.8968e-20)
(2.74487 1.36625 1.31854e-21)
(2.93412 1.9776 1.72827e-21)
(2.60143 -0.253966 -1.34455e-22)
(2.63188 0.5898 0)
(2.74837 -1.69002 0)
(2.65796 -1.04076 -1.2869e-21)
(2.96757 -2.48188 0)
(2.87355 -2.16457 0)
(3.0551 -2.78351 -8.82295e-23)
(3.03691 -2.68583 -1.14965e-20)
(2.93708 -2.69594 -1.51778e-20)
(3.01627 -2.78886 0)
(2.70022 -1.99688 -1.02357e-19)
(2.80183 -2.44344 0)
(2.56912 -0.521826 6.56284e-21)
(2.59058 -1.32129 1.02595e-19)
(2.61631 1.1019 2.31047e-22)
(2.54837 0.34401 2.52887e-20)
(2.66603 1.66632 -8.44083e-20)
(2.79915 1.84694 1.34283e-20)
(2.71551 1.99536 0)
(3.10019 1.58688 1.90889e-21)
(2.94765 1.70667 -6.33062e-21)
(3.61416 2.63762 0)
(3.52872 2.79136 0)
(3.5911 2.95167 -1.20297e-20)
(4.39388 2.74968 -8.28186e-21)
(4.17684 2.56581 0)
(3.77175 2.55051 -4.06766e-21)
(3.62807 2.72206 1.46486e-21)
(3.70113 2.43032 0)
(3.77039 2.67865 0)
(3.90826 2.52191 -4.31036e-20)
(2.79292 2.30851 4.50447e-20)
(2.87947 2.41513 0)
(3.26272 1.86967 -7.08179e-21)
(3.27828 1.45792 4.4637e-23)
(3.44072 1.75694 -1.20231e-20)
(3.10486 2.36949 0)
(3.08434 2.16508 -9.1355e-20)
(3.56001 2.92591 0)
(2.99588 0.725254 -3.26196e-21)
(3.18273 1.09533 0)
(2.85462 -0.142988 -1.38635e-22)
(2.92749 0.296241 3.99814e-21)
(2.95222 -0.996865 6.79422e-22)
(2.87981 -0.580542 0)
(3.2464 -1.68504 -1.72257e-23)
(3.0842 -1.36794 3.71184e-22)
(3.67545 -2.14401 -1.00804e-23)
(3.46388 -1.93039 -8.74788e-22)
(4.07805 -2.42735 1.21221e-20)
(3.89832 -2.31503 0)
(4.44946 -2.09977 0)
(4.28099 -2.3784 -1.23513e-20)
(4.79113 -0.645284 -8.35747e-21)
(4.64051 -1.51085 3.62348e-21)
(4.95536 1.3987 0)
(4.91835 0.388206 -1.12668e-21)
(4.77222 2.64099 -6.42554e-21)
(4.90256 2.18025 1.22547e-20)
(4.59169 2.79951 1.23757e-20)
(3.17504 2.16013 -6.46669e-21)
(3.44099 2.34959 2.15314e-23)
(2.76088 1.21939 -3.67252e-21)
(2.93622 1.78591 1.07935e-20)
(2.61994 -0.232833 3.12012e-22)
(2.65313 0.523719 -8.18659e-21)
(2.79603 -1.56314 0)
(2.68703 -0.946663 9.38001e-21)
(3.07335 -2.40191 0)
(2.94273 -2.04259 0)
(3.23493 -2.79888 1.64802e-22)
(3.17516 -2.64517 0)
(3.2017 -2.80229 0)
(3.23156 -2.86056 0)
(3.07985 -2.10961 0)
(3.13207 -2.56759 0)
(2.98516 -0.561039 6.95054e-20)
(3.00896 -1.41753 0)
(2.97544 1.15606 -2.28816e-22)
(2.94987 0.337253 -7.10438e-20)
(2.99932 1.79038 1.05138e-19)
(2.91584 2.10997 1.73526e-20)
(2.81396 2.20585 -4.22309e-20)
(3.07286 1.98651 1.86328e-20)
(3.96586 2.35389 1.09857e-20)
(3.6399 2.76216 0)
(3.55035 2.79378 1.48015e-20)
(4.03878 2.68909 4.62931e-20)
(3.84055 2.79274 0)
(3.56666 2.35788 3.54239e-21)
(3.48242 2.55225 1.38134e-20)
(3.38565 2.10982 4.66622e-21)
(3.62761 1.99491 3.27193e-21)
(2.82177 2.41858 3.68927e-20)
(2.86393 2.46679 4.23536e-20)
(3.48016 2.18377 1.01089e-19)
(3.44514 2.38454 0)
(3.48075 1.3145 -7.33134e-21)
(3.62084 1.60824 -1.97751e-20)
(3.74069 2.16458 -1.10154e-20)
(3.51059 2.00043 -1.42252e-21)
(3.36054 2.21177 -1.75009e-20)
(3.09079 2.44717 -9.47084e-21)
(3.60757 2.82785 0)
(3.1687 0.643917 -5.25513e-21)
(3.3202 0.970225 2.08333e-20)
(3.04411 -0.129363 5.55094e-21)
(3.10923 0.242999 -1.25965e-20)
(3.13299 -0.895862 0)
(3.1044 -0.53219 0)
(3.42728 -1.48699 -1.49609e-23)
(3.3003 -1.21814 1.85215e-27)
(3.86411 -1.90888 9.98983e-24)
(3.68563 -1.70458 0)
(4.3444 -2.19809 0)
(4.13902 -2.08246 -6.91343e-28)
(4.84566 -1.89221 0)
(4.6261 -2.1636 0)
(5.26605 -0.500969 0)
(5.09804 -1.32581 0)
(5.40505 1.40788 0)
(5.40077 0.464285 0)
(5.15514 2.52459 0)
(5.32517 2.12615 0)
(4.69361 2.53896 -5.16979e-21)
(4.93369 2.62624 0)
(4.17514 2.10659 0)
(4.44144 2.33354 1.6232e-21)
(3.60974 1.67223 0)
(3.9081 1.86776 2.53963e-21)
(3.72411 2.21849 -6.11525e-21)
(4.12 2.55961 -1.45087e-20)
(3.93879 2.35563 6.14111e-21)
(3.23027 1.92907 1.5292e-21)
(3.47548 2.11009 -2.15237e-23)
(2.83912 1.09307 -1.41385e-21)
(3.00863 1.59871 -1.89831e-21)
(2.7454 -0.21847 -3.17709e-23)
(2.75665 0.471823 0)
(2.93774 -1.45592 0)
(2.81782 -0.872399 0)
(3.23905 -2.29732 0)
(3.08909 -1.93034 0)
(3.47111 -2.76168 -1.20468e-23)
(3.37152 -2.57319 0)
(3.56372 -2.83551 0)
(3.52412 -2.87006 0)
(3.5738 -2.16869 0)
(3.56522 -2.62535 0)
(3.53975 -0.596697 3.70488e-20)
(3.56327 -1.47304 -3.85487e-20)
(3.47928 1.17297 3.27638e-20)
(3.51641 0.340743 -4.92072e-21)
(3.47891 1.79728 -1.44766e-19)
(2.99372 2.30861 -2.0002e-20)
(2.87302 2.35933 -3.9329e-20)
(3.1675 2.22023 0)
(4.12544 2.89741 0)
(4.30502 2.76882 1.32662e-20)
(3.23803 1.81248 1.52665e-21)
(3.31179 1.43642 0)
(3.66778 2.79565 0)
(3.45482 2.6715 0)
(3.87205 1.83998 0)
(3.01207 2.46738 -1.10207e-19)
(3.92873 2.14225 7.63101e-20)
(3.8466 2.30281 0)
(3.8351 2.96748 4.33573e-21)
(3.29963 2.43761 -1.72675e-20)
(4.51293 2.91606 1.97664e-20)
(4.199 3.03716 -5.79255e-21)
(3.11759 2.04937 1.90768e-20)
(2.96342 1.51368 1.07247e-22)
(3.01726 1.11856 0)
(3.38846 2.42306 1.1932e-19)
(3.55966 2.78168 0)
(3.67846 1.17917 2.0502e-20)
(4.08784 1.65019 5.83502e-21)
(3.79996 1.45799 3.14236e-20)
(3.37193 0.576836 1.06452e-20)
(3.46411 0.88593 -2.1928e-20)
(3.23682 -0.12675 0)
(3.27966 0.208563 -6.81953e-21)
(3.30476 -0.79164 -3.08648e-27)
(3.27939 -0.492589 3.2094e-27)
(3.59106 -1.2969 -1.1521e-23)
(3.4827 -1.07 0)
(4.01052 -1.69313 0)
(3.8468 -1.50331 0)
(4.53307 -1.94739 -1.08949e-23)
(4.30253 -1.8546 6.91388e-28)
(5.13783 -1.63512 4.22946e-27)
(4.87013 -1.89997 -4.39203e-27)
(5.59571 -0.356289 0)
(5.42975 -1.11836 0)
(5.69306 1.36663 1.13752e-22)
(5.71986 0.527041 0)
(5.39739 2.29552 -6.19722e-23)
(5.60317 1.97491 0)
(4.83981 2.24376 -1.11214e-21)
(5.14582 2.35572 0)
(4.22634 1.78071 -6.14298e-21)
(4.53002 2.02842 6.44725e-22)
(3.62516 1.34952 -1.06932e-20)
(3.92094 1.53783 3.57248e-21)
(3.13017 0.893376 -2.52449e-20)
(3.36678 1.13832 1.06746e-20)
(4.24323 2.3421 8.58821e-21)
(4.80019 2.65672 -2.13054e-21)
(4.5071 2.52471 -9.92502e-21)
(3.79271 1.99512 4.86718e-21)
(4.01893 2.14904 -3.58277e-21)
(3.30779 1.71168 -4.58269e-22)
(3.54759 1.8796 -1.0671e-21)
(2.96845 0.975998 0)
(3.10857 1.42322 8.39895e-22)
(2.91101 -0.186945 -6.66861e-26)
(2.90359 0.421343 6.13282e-29)
(3.12268 -1.32979 0)
(2.99324 -0.785207 0)
(3.46102 -2.17066 -7.24139e-24)
(3.28647 -1.7941 0)
(3.7707 -2.68882 -6.66632e-23)
(3.61941 -2.46773 0)
(3.99255 -2.80807 0)
(3.87626 -2.81793 0)
(4.14678 -2.17751 0)
(4.06879 -2.61767 0)
(4.17536 -0.640472 0)
(4.18475 -1.50546 0)
(4.06753 1.10983 0)
(4.15099 0.284826 2.484e-21)
(4.01593 1.75426 -5.31214e-20)
(4.70656 2.92688 -2.41811e-20)
(5.10627 2.69369 0)
(2.77957 0.690762 -4.73858e-21)
(2.96624 0.562785 3.08004e-20)
(3.26536 2.40337 0)
(3.73589 2.30118 -2.06574e-20)
(2.94047 2.40698 -3.61258e-20)
(3.14473 2.32444 2.46739e-20)
(2.81193 2.46982 2.1378e-20)
(2.82427 2.45315 -5.37771e-21)
(3.03826 2.4444 -6.49114e-23)
(2.88635 2.45753 -1.87561e-20)
(3.51394 2.2935 -2.52703e-20)
(3.2557 2.39393 3.57335e-21)
(4.00265 2.02446 0)
(3.76819 2.17603 1.79564e-20)
(4.23221 1.84023 -2.64421e-21)
(3.61413 2.88842 -4.37163e-21)
(3.29727 2.61047 -1.00478e-26)
(3.79294 3.07755 5.8169e-21)
(3.06579 2.32069 0)
(4.23418 2.99029 0)
(2.85666 1.77434 0)
(5.39456 2.45689 6.52044e-21)
(4.85382 2.62157 6.10089e-22)
(2.66917 1.04375 -2.04907e-21)
(2.84537 0.135215 -5.35696e-21)
(2.64184 0.135676 -1.02706e-20)
(4.25451 1.47794 -1.10193e-20)
(4.45844 1.62591 1.83845e-21)
(3.43264 2.80472 -1.63235e-26)
(3.84463 1.04226 2.19979e-21)
(3.98511 1.3031 1.18974e-20)
(3.55304 0.468466 6.82802e-21)
(3.62046 0.797692 0)
(3.4162 -0.159027 -3.66678e-27)
(3.42081 0.173285 -7.80352e-21)
(3.48554 -0.710505 0)
(3.41906 -0.439012 0)
(3.74108 -1.13068 4.35678e-23)
(3.61697 -0.929958 0)
(4.12559 -1.45342 0)
(3.94798 -1.30041 0)
(4.6665 -1.64015 -4.04758e-25)
(4.40078 -1.58045 0)
(5.3226 -1.36959 2.87815e-23)
(5.02314 -1.59939 0)
(5.78758 -0.231703 0)
(5.62362 -0.925208 0)
(5.79057 1.30025 -5.37489e-23)
(5.87432 0.555827 0)
(5.40993 2.05129 3.8243e-23)
(5.65209 1.8069 0)
(4.83497 1.91616 -1.37176e-23)
(5.15412 2.04796 -4.48847e-28)
(4.23569 1.46767 -1.41086e-23)
(4.53032 1.6967 0)
(3.71678 1.08074 1.18696e-22)
(3.96631 1.24942 -6.2385e-21)
(3.29101 0.652409 1.67278e-20)
(3.49291 0.883609 2.31118e-20)
(3.05338 -0.0792945 -3.3224e-20)
(3.14484 0.322276 -3.00844e-21)
(4.99967 2.35641 4.36153e-21)
(5.75254 2.20618 -7.09128e-21)
(5.37843 2.39504 0)
(4.30667 2.10168 -7.11654e-22)
(4.63381 2.24464 2.52483e-21)
(3.80932 1.78002 -1.90674e-22)
(4.03691 1.93992 -1.66331e-23)
(3.3772 1.51009 -8.91375e-24)
(3.58671 1.65487 -3.10527e-23)
(3.09207 0.896912 0)
(3.19799 1.27108 0)
(3.0914 -0.135398 -1.18775e-23)
(3.05182 0.41153 2.67897e-27)
(3.32776 -1.18286 -2.63456e-27)
(3.1801 -0.678317 2.78823e-27)
(3.69655 -1.99518 1.74741e-23)
(3.49179 -1.62093 0)
(4.0841 -2.54605 0)
(3.88123 -2.30304 0)
(4.43036 -2.71068 1.0653e-22)
(4.25768 -2.69676 0)
(4.71816 -2.13726 0)
(4.59581 -2.53864 0)
(4.83419 -0.679118 2.62761e-22)
(4.81887 -1.49854 0)
(4.69362 1.03828 -4.74678e-22)
(4.80056 0.209665 2.41373e-21)
(4.41426 2.03746 -5.70829e-20)
(4.57747 1.65866 0)
(4.06095 2.16239 -1.26178e-19)
(4.2408 2.1808 1.28188e-19)
(3.87174 2.06225 3.94138e-21)
(2.86994 2.28956 0)
(3.23843 2.02341 -1.53318e-20)
(3.01328 2.1954 -9.98303e-21)
(2.793 2.4378 0)
(2.78675 2.38029 0)
(3.05848 2.48201 -2.07994e-20)
(2.88498 2.47051 -5.10005e-27)
(3.61441 2.37861 5.37496e-21)
(3.30028 2.46356 3.50407e-20)
(4.26368 2.08288 0)
(3.94801 2.24991 -2.19354e-20)
(5.60185 1.71279 -1.85979e-22)
(6.06643 1.59217 6.36124e-21)
(2.82081 -0.337091 2.9406e-20)
(3.07175 -0.51316 6.44455e-20)
(4.70921 1.70126 -1.03453e-20)
(4.5118 1.89219 -5.71822e-22)
(3.48853 2.94861 -4.79475e-25)
(3.08453 2.53424 0)
(3.7208 2.9895 0)
(2.8026 2.06934 -3.10733e-25)
(4.22011 2.60372 -1.37001e-22)
(2.59018 1.28205 -6.54912e-21)
(4.93039 1.75118 2.90635e-22)
(2.45329 0.403867 0)
(6.15897 0.44869 7.22015e-20)
(5.63138 0.394517 -2.48436e-22)
(2.61388 -0.460784 1.86959e-20)
(3.20589 -0.907235 -6.93353e-20)
(2.87057 -0.824022 -1.41941e-20)
(6.41361 0.457714 -3.76011e-20)
(5.95793 -1.0797 -7.24186e-20)
(6.19968 -0.841748 -3.55657e-20)
(3.4479 -1.19225 -3.40955e-20)
(3.12551 -0.496978 8.77052e-20)
(3.19634 -0.72336 1.41694e-20)
(4.87121 1.47529 -1.52655e-21)
(4.93663 1.67883 0)
(5.09139 1.46534 2.39964e-21)
(3.22512 2.79568 -2.42134e-26)
(4.37595 1.27747 5.46634e-21)
(4.60636 1.43437 1.41665e-20)
(3.94976 0.877378 -1.33796e-20)
(4.1185 1.13869 -5.40329e-21)
(3.6744 0.359261 0)
(3.75008 0.674137 0)
(3.5628 -0.171073 0)
(3.54796 0.131536 0)
(3.63574 -0.622666 0)
(3.54952 -0.377273 0)
(3.8704 -0.971526 0)
(3.7328 -0.791896 0)
(4.23778 -1.23471 -5.74856e-27)
(4.04877 -1.11174 5.97362e-27)
(4.77427 -1.33702 1.12962e-23)
(4.50247 -1.32568 3.49503e-27)
(5.38737 -1.07769 -2.87816e-23)
(5.10794 -1.29005 0)
(5.82753 -0.12228 0)
(5.66717 -0.715451 0)
(5.80627 1.18394 -4.6136e-23)
(5.90497 0.535956 0)
(5.3528 1.81969 3.16263e-23)
(5.63026 1.61244 0)
(4.77223 1.63514 1.37204e-23)
(5.08384 1.7802 0)
(4.19177 1.20798 9.03851e-23)
(4.4835 1.42116 2.6663e-27)
(3.68763 0.838058 6.97992e-21)
(3.93421 1.00842 0)
(3.26875 0.480623 -8.98934e-21)
(3.46234 0.66752 -8.99876e-21)
(3.05905 -0.0120421 3.68301e-20)
(3.12504 0.2505 -2.34003e-20)
(3.06872 -0.26141 -7.75801e-20)
(5.91841 1.81837 -1.70589e-20)
(6.27242 1.36183 5.19195e-20)
(5.08065 1.92049 -1.3703e-23)
(5.4867 1.9583 -8.40241e-22)
(4.38466 1.7537 -1.66521e-21)
(4.70972 1.83757 1.79006e-21)
(3.88993 1.54576 1.05951e-23)
(4.11157 1.65676 1.68944e-23)
(3.48056 1.32174 8.90527e-24)
(3.67391 1.44262 5.92129e-27)
(3.2085 0.827548 0)
(3.30268 1.13111 0)
(3.23842 -0.0575355 8.49731e-27)
(3.17202 0.422044 -8.99141e-27)
(3.51519 -1.02273 0)
(3.34172 -0.549995 0)
(3.91285 -1.79554 1.43661e-23)
(3.69529 -1.4376 0)
(4.35725 -2.33835 0)
(4.13454 -2.09678 0)
(4.81559 -2.51988 -1.06533e-22)
(4.59937 -2.49509 0)
(5.23061 -2.01956 0)
(5.05267 -2.37251 0)
(5.42097 -0.687206 -4.71898e-23)
(5.36974 -1.44312 -6.01204e-26)
(5.26397 0.898597 4.61191e-22)
(5.37227 0.137448 0)
(4.84008 1.8633 0)
(5.06423 1.48743 1.92211e-23)
(4.3544 1.9664 1.62712e-20)
(4.58542 1.98822 6.82039e-23)
(4.12645 1.82578 -8.99236e-21)
(3.09116 1.82274 8.71301e-22)
(3.30124 1.6478 -2.00136e-21)
(2.79731 2.10174 0)
(2.91321 1.98793 0)
(2.76748 2.26861 -2.70591e-24)
(2.73739 2.2033 -4.6429e-27)
(3.08913 2.36159 -2.90256e-24)
(2.88609 2.33109 -6.19539e-27)
(3.69521 2.3315 -3.01724e-21)
(3.36522 2.3756 -1.26291e-26)
(4.38289 2.08848 -2.32198e-20)
(4.03877 2.23801 1.25931e-20)
(4.69218 1.89174 -7.48642e-21)
(3.32011 2.79933 7.81287e-25)
(2.83366 2.30397 -9.06443e-26)
(3.60923 2.55039 0)
(2.52487 1.58262 3.64367e-25)
(4.16811 1.67961 2.21562e-22)
(2.37992 0.548605 6.56094e-21)
(4.90231 0.297912 -1.35747e-21)
(2.34261 -0.315378 -3.71983e-22)
(5.44924 -1.27532 -2.18948e-21)
(2.69761 -1.09573 0)
(5.72435 -2.12822 3.78841e-20)
(5.59161 -2.50602 0)
(3.05973 -1.15076 -1.39211e-20)
(3.30599 -0.958728 6.93429e-20)
(3.67308 -1.40976 3.03685e-20)
(5.80816 -1.57772 -2.27646e-21)
(5.18667 -2.89903 1.96718e-20)
(5.16268 -2.27363 -1.37503e-22)
(3.48724 -1.16006 -4.85109e-21)
(3.80231 -1.01541 8.24506e-20)
(4.01506 -1.04522 6.68524e-20)
(5.14719 1.5617 0)
(5.30496 1.3982 2.26561e-20)
(4.9123 1.30818 4.65242e-21)
(5.19062 1.14516 -4.88476e-21)
(2.99023 2.60913 1.42073e-25)
(4.42367 1.09115 -9.17899e-21)
(4.68619 1.16794 -3.87931e-21)
(4.01545 0.689096 1.92229e-21)
(4.20072 0.942865 -6.16127e-21)
(3.75937 0.229079 -3.24495e-23)
(3.84959 0.555511 3.20455e-26)
(3.67092 -0.205665 0)
(3.66955 0.0985423 0)
(3.76059 -0.569466 0)
(3.68391 -0.332436 0)
(4.00616 -0.845437 6.32867e-23)
(3.87544 -0.678786 0)
(4.36529 -1.01887 0)
(4.18746 -0.934261 0)
(4.83754 -1.04166 0)
(4.60946 -1.05508 0)
(5.34928 -0.81348 0)
(5.10972 -0.996366 0)
(5.72685 -0.0148082 0)
(5.591 -0.511829 0)
(5.67598 1.03283 -1.387e-23)
(5.7707 0.514438 0)
(5.24823 1.50841 2.41689e-23)
(5.51196 1.34964 4.53286e-27)
(4.655 1.31021 0)
(4.97391 1.4459 0)
(4.07441 0.916482 8.13019e-24)
(4.36774 1.0992 -2.6663e-27)
(3.63508 0.605761 6.24011e-23)
(3.84106 0.744209 1.59723e-26)
(3.39614 0.33635 9.73224e-21)
(3.49102 0.484987 8.5725e-24)
(3.37023 -0.11569 -5.21344e-21)
(3.36274 0.151826 -4.71144e-21)
(3.49029 -0.70215 -3.46903e-20)
(3.40755 -0.404001 2.38865e-20)
(3.61754 -0.909243 -9.23579e-20)
(6.43492 0.482127 -4.05526e-21)
(6.30247 -0.503603 4.85084e-22)
(5.87591 1.46122 3.21521e-22)
(6.22594 1.13361 0)
(5.11572 1.59518 1.35489e-23)
(5.47687 1.59135 8.50958e-22)
(4.5153 1.49849 0)
(4.79381 1.54929 0)
(4.05555 1.34416 5.81112e-24)
(4.26113 1.43975 0)
(3.64044 1.14584 0)
(3.8454 1.24466 0)
(3.33132 0.772519 0)
(3.44712 1.0042 0)
(3.34685 0.0375912 -4.83439e-23)
(3.29342 0.439406 0)
(3.6363 -0.827304 0)
(3.46796 -0.399102 0)
(4.07286 -1.56427 -2.45991e-23)
(3.85385 -1.21979 0)
(4.58161 -2.09622 -4.98164e-24)
(4.33947 -1.85631 0)
(5.13294 -2.2863 4.91427e-23)
(4.86997 -2.24712 -1.25012e-27)
(5.62537 -1.86377 1.16526e-22)
(5.39606 -2.16987 6.24027e-26)
(5.87287 -0.682081 -5.62878e-23)
(5.7773 -1.35979 0)
(5.70896 0.749254 0)
(5.81241 0.0494263 0)
(5.20366 1.6041 0)
(5.43836 1.27925 -1.92482e-23)
(4.60628 1.70531 -5.12025e-21)
(4.84853 1.71776 -6.69547e-23)
(4.30963 1.57128 4.91014e-21)
(3.34181 1.23722 0)
(3.52697 1.05425 7.86013e-20)
(2.99178 1.55547 9.13278e-22)
(3.16146 1.4115 -3.86711e-21)
(2.70281 1.79029 2.48306e-24)
(2.82765 1.69422 3.81706e-27)
(2.68873 1.96543 5.62987e-24)
(2.64942 1.8854 9.72623e-27)
(3.05177 2.10115 -1.44807e-26)
(2.81671 2.05086 1.47235e-26)
(3.77868 2.12073 -8.19295e-21)
(3.3821 2.14036 1.64643e-26)
(4.58996 1.90677 2.31237e-20)
(4.19632 2.04488 8.34923e-21)
(4.90935 1.73204 1.79993e-20)
(3.11396 2.31115 0)
(2.57462 1.79097 3.6584e-26)
(3.46088 1.61001 0)
(2.30207 0.801375 -1.84437e-24)
(4.08446 0.218697 -2.89101e-22)
(2.24477 -0.353049 -8.10601e-24)
(4.75919 -1.42938 9.27488e-22)
(2.38847 -1.01323 5.127e-24)
(5.16804 -2.77627 2.8541e-21)
(2.85527 -1.61951 -2.64981e-23)
(5.19808 -3.35998 0)
(3.38436 -1.32641 -1.15568e-20)
(4.58578 -2.39478 -2.71088e-20)
(4.67345 -3.02403 -1.94694e-20)
(3.78892 -1.57315 9.12476e-22)
(4.20129 -1.08648 -7.14001e-20)
(3.77286 -1.27551 -6.61585e-20)
(5.33421 1.25162 -2.34969e-20)
(2.73532 2.10524 -3.47542e-25)
(4.93141 0.931699 -1.84032e-20)
(5.44914 0.814555 1.58955e-20)
(5.1213 1.11545 -1.88501e-20)
(4.42997 0.799719 2.6603e-21)
(4.66277 1.07106 1.71166e-20)
(4.03279 0.499193 -1.91997e-21)
(4.23626 0.814475 3.56185e-21)
(3.79783 0.146289 -8.18045e-21)
(3.92489 0.447361 7.32063e-21)
(3.75192 -0.17131 -6.75764e-23)
(3.77687 0.0606433 3.40903e-26)
(3.88092 -0.429124 -6.7882e-23)
(3.82075 -0.271679 -3.45346e-26)
(4.12226 -0.646717 2.19166e-24)
(4.01248 -0.535466 0)
(4.45495 -0.795933 0)
(4.29406 -0.740712 0)
(4.85615 -0.835486 -5.20806e-23)
(4.66051 -0.846596 0)
(5.27171 -0.627806 1.91543e-26)
(5.06678 -0.793947 -1.98894e-26)
(5.52289 0.0344035 1.57163e-26)
(5.43296 -0.366129 -1.63126e-26)
(5.38579 0.898279 -1.63956e-26)
(5.49204 0.479246 1.70101e-26)
(4.98112 1.23558 -8.06517e-23)
(5.19828 1.15686 2.03897e-26)
(4.46186 0.991815 5.5755e-23)
(4.72293 1.15035 2.48072e-26)
(3.99476 0.667021 5.9651e-24)
(4.2088 0.817003 0)
(3.71284 0.486489 7.13923e-23)
(3.83018 0.570096 3.43902e-26)
(3.5706 0.320679 7.49868e-23)
(3.63253 0.433824 0)
(3.49598 -0.0202206 5.60576e-21)
(3.51952 0.187627 0)
(3.56764 -0.424644 2.38364e-20)
(3.50918 -0.219622 -2.61274e-20)
(3.77666 -0.725726 0)
(3.66403 -0.574157 2.65307e-21)
(3.99612 -1.0012 7.60236e-20)
(3.88849 -0.878425 -7.23963e-20)
(5.87276 -1.07753 -3.58469e-23)
(4.70753 -1.82005 1.74992e-20)
(5.28242 -1.65289 -1.70552e-20)
(6.2294 0.384534 6.612e-23)
(6.21604 -0.311975 -3.29607e-23)
(5.66641 1.1395 0)
(5.98457 0.868185 0)
(5.04687 1.30378 -1.05042e-23)
(5.32925 1.26624 0)
(4.60709 1.25195 0)
(4.806 1.28785 0)
(4.20373 1.13857 -1.64037e-23)
(4.39545 1.21167 0)
(3.82846 0.929624 0)
(4.01915 1.0356 0)
(3.46942 0.675881 0)
(3.63235 0.825804 0)
(3.42232 0.117872 -4.68774e-24)
(3.40523 0.439177 0)
(3.70478 -0.63688 0)
(3.54864 -0.254969 0)
(4.1646 -1.30866 -4.25345e-26)
(3.93855 -0.990434 4.50229e-26)
(4.71859 -1.80326 4.96086e-24)
(4.44538 -1.57941 2.20543e-26)
(5.32168 -1.99704 -7.05263e-23)
(5.01847 -1.95349 -2.04207e-26)
(5.86393 -1.64836 -4.46796e-23)
(5.59173 -1.91405 0)
(6.13606 -0.652963 -1.59456e-22)
(6.01805 -1.23499 1.27566e-25)
(5.96674 0.591538 -1.16487e-25)
(6.06811 -0.0295916 1.2362e-25)
(5.42843 1.31792 0)
(5.67343 1.02411 0)
(4.80116 1.42943 1.77447e-21)
(5.04226 1.41088 -1.75773e-21)
(4.30534 1.22218 0)
(4.46239 1.32536 -1.56396e-22)
(4.03927 1.10199 0)
(3.28399 0.981392 0)
(3.64099 0.719856 1.50832e-21)
(3.47146 0.851962 -3.08166e-20)
(2.86427 1.17544 4.51643e-22)
(3.06969 1.09078 3.33148e-21)
(2.58209 1.3435 -2.66133e-25)
(2.69241 1.26727 0)
(2.59448 1.52996 -2.92896e-24)
(2.5407 1.44012 0)
(3.01213 1.68725 0)
(2.74283 1.62224 0)
(3.7884 1.75172 1.37396e-24)
(3.36634 1.74213 0)
(4.69667 1.62432 0)
(4.24778 1.71903 0)
(5.37144 1.28999 0)
(5.08705 1.46714 1.50717e-20)
(5.52304 0.942584 0)
(5.51676 1.11249 -1.31098e-20)
(4.07635 -2.0926 6.19955e-20)
(4.26189 -1.61655 0)
(4.33906 -1.17416 3.70248e-21)
(4.15427 -1.04948 4.6654e-21)
(2.88713 1.37701 1.165e-23)
(2.34172 0.936227 0)
(4.04776 0.790687 0)
(3.33089 0.174968 4.60021e-23)
(2.1619 -0.19148 1.21769e-24)
(5.29428 0.793919 2.0723e-20)
(5.61882 0.781808 0)
(5.50447 0.61966 0)
(3.98303 -1.49198 1.16666e-22)
(2.26235 -1.25727 1.36031e-23)
(4.57846 -2.91227 0)
(2.55443 -1.61532 3.79866e-23)
(4.86919 -3.64922 0)
(3.12524 -1.90611 0)
(4.80791 -3.54805 0)
(3.71053 -1.4521 7.055e-21)
(4.15575 -2.69534 1.41442e-20)
(3.88366 -1.6801 1.66889e-21)
(3.9647 -1.29452 0)
(3.66549 -1.6323 -3.6493e-20)
(4.08833 -1.33471 -2.84465e-20)
(4.4672 -1.23042 5.25519e-20)
(4.36342 -1.03797 -6.41698e-20)
(2.50419 1.21246 2.46004e-25)
(4.83326 0.814001 1.05663e-20)
(5.07054 0.830013 0)
(4.38455 0.651825 -3.67646e-21)
(4.61163 0.803898 -4.97619e-21)
(4.04596 0.385578 0)
(4.22283 0.597916 3.31507e-21)
(3.8722 0.10876 0)
(3.97299 0.309468 1.0231e-21)
(3.88371 -0.133689 6.75434e-23)
(3.89559 0.0227007 0)
(4.01821 -0.365027 1.35592e-22)
(3.96745 -0.234489 0)
(4.21771 -0.575854 8.59392e-25)
(4.1236 -0.472189 0)
(4.48152 -0.68905 -6.32601e-23)
(4.34604 -0.641864 -6.39544e-26)
(4.78637 -0.677069 5.20249e-23)
(4.62619 -0.695095 5.8461e-26)
(5.12349 -0.471185 -5.42227e-23)
(4.94826 -0.601454 4.86597e-26)
(5.32622 0.0397256 -4.54156e-26)
(5.2543 -0.254626 4.38174e-26)
(5.13444 0.730662 -5.63106e-23)
(5.27719 0.394823 5.05346e-26)
(4.69587 1.02523 1.07788e-22)
(4.91495 0.959336 0)
(4.29688 0.800081 6.94101e-24)
(4.47691 0.946862 5.89781e-26)
(4.02536 0.539144 -1.3312e-22)
(4.13796 0.652183 0)
(3.86519 0.41657 -7.1355e-23)
(3.93431 0.474577 -7.23671e-26)
(3.72355 0.250137 0)
(3.7952 0.363351 0)
(3.61662 -0.0913938 1.03198e-20)
(3.65889 0.110962 -1.08196e-20)
(3.66193 -0.454626 0)
(3.61886 -0.275312 -5.20408e-27)
(3.85477 -0.669851 3.38903e-21)
(3.74721 -0.576373 -5.29155e-21)
(4.14213 -0.768555 3.9958e-20)
(3.9917 -0.722498 -3.98782e-20)
(4.40674 -0.844712 0)
(4.28626 -0.810338 -4.64455e-21)
(4.85843 -1.3418 1.09663e-20)
(4.19365 -1.06107 -2.48248e-21)
(4.45616 -1.2588 -2.50382e-20)
(5.74662 -0.72452 1.29296e-20)
(5.33254 -1.14987 -1.08053e-20)
(5.90654 0.249668 4.63535e-21)
(5.93624 -0.211332 -1.75393e-20)
(5.44941 0.811975 -1.67198e-23)
(5.70974 0.588442 1.45179e-22)
(4.90334 1.06534 1.05043e-23)
(5.16045 0.960479 0)
(4.48765 1.11549 7.06704e-26)
(4.6706 1.11964 -7.47323e-26)
(4.15677 1.01559 -8.31707e-26)
(4.31298 1.08199 8.79653e-26)
(3.89922 0.790059 -2.58824e-23)
(4.02294 0.919824 0)
(3.62249 0.551803 1.03117e-25)
(3.77107 0.674896 -1.09105e-25)
(3.49841 0.176091 5.29237e-23)
(3.52912 0.405708 1.12747e-25)
(3.73218 -0.440247 0)
(3.58658 -0.107039 0)
(4.19573 -1.05126 4.82671e-23)
(3.9529 -0.755641 -3.37621e-27)
(4.76038 -1.50361 -6.35298e-26)
(4.46496 -1.30292 6.7262e-26)
(5.37024 -1.6864 2.3007e-23)
(5.04777 -1.64796 0)
(5.91605 -1.42084 -7.1907e-23)
(5.63927 -1.63243 0)
(6.19067 -0.618525 5.50789e-23)
(6.06684 -1.09778 0)
(6.04965 0.418657 -1.32982e-25)
(6.14101 -0.0975566 1.4106e-25)
(5.52042 1.02248 0)
(5.76729 0.7776 0)
(4.89375 1.14633 4.49985e-21)
(5.14597 1.10636 7.79064e-22)
(4.4009 0.994113 -1.7708e-20)
(4.5663 1.07269 1.19484e-20)
(4.16663 0.880425 0)
(3.53408 0.469693 -8.02814e-21)
(3.70373 0.39947 3.3098e-20)
(3.14309 0.603496 0)
(3.33861 0.531743 7.88326e-21)
(2.77072 0.70511 -3.8936e-24)
(2.95372 0.6645 0)
(2.48735 0.839302 -2.21138e-24)
(2.60558 0.776342 -9.449e-27)
(2.48868 0.997422 0)
(2.43577 0.922566 0)
(2.95758 1.13125 0)
(2.6553 1.07416 0)
(3.84845 1.20806 -1.36607e-24)
(3.36878 1.18345 0)
(4.7915 1.16427 0)
(4.34373 1.20497 0)
(5.47649 0.985873 1.83107e-20)
(5.17795 1.08822 -1.45588e-20)
(5.6363 0.883834 -5.66347e-21)
(3.77217 -1.02053 0)
(4.00453 -0.859782 1.83009e-20)
(4.58215 -1.03142 5.07516e-20)
(4.52743 -0.841981 -6.7512e-20)
(2.72944 0.0356065 1.67486e-24)
(2.1937 -0.190801 1.01719e-24)
(5.09354 0.574787 -3.68901e-20)
(5.2346 0.561094 2.44442e-20)
(3.2523 -1.47524 -3.26368e-22)
(2.15787 -1.23305 0)
(3.89366 -2.96198 -7.2121e-22)
(2.41522 -1.96617 -2.73383e-23)
(4.39429 -3.77823 0)
(2.80135 -2.07808 0)
(4.60553 -3.81388 -4.35242e-21)
(3.5239 -1.90688 1.43382e-22)
(4.41782 -3.26276 0)
(3.92103 -1.72517 4.31603e-21)
(3.65946 -2.14659 -1.24976e-20)
(4.08452 -1.6997 0)
(3.39997 -1.20399 3.64423e-20)
(4.36113 -1.40198 2.46745e-20)
(3.8827 -0.666471 -4.23432e-20)
(3.67662 -0.791228 4.21003e-20)
(4.64935 -1.1959 -3.88954e-20)
(3.98776 -0.5464 -1.12277e-20)
(3.88289 -0.385862 -9.87706e-21)
(3.76664 -0.475519 5.13601e-20)
(3.7842 0.0975634 -6.92624e-20)
(4.74397 -1.0078 -3.16291e-21)
(4.659 -0.801392 1.49036e-19)
(2.35124 -0.0237273 0)
(4.69966 0.604584 -4.56012e-21)
(4.90799 0.66015 1.52028e-20)
(4.32932 0.484041 0)
(4.5164 0.604255 0)
(4.07395 0.295398 0)
(4.19449 0.439687 0)
(3.96054 0.102857 0)
(4.01505 0.2383 0)
(3.9624 -0.0829286 6.60771e-23)
(3.97222 0.0419761 4.1258e-27)
(4.02601 -0.270353 -6.78089e-23)
(4.00474 -0.161868 1.36659e-25)
(4.15671 -0.422411 -6.647e-23)
(4.08451 -0.354059 1.35985e-25)
(4.37817 -0.507103 6.31941e-23)
(4.24903 -0.480134 1.3282e-25)
(4.68145 -0.499041 0)
(4.50801 -0.526505 -4.08402e-27)
(4.99982 -0.32106 5.41727e-23)
(4.83361 -0.439673 3.58664e-27)
(5.16206 0.0555701 0)
(5.09997 -0.158449 3.32088e-27)
(4.99635 0.552033 -7.82898e-24)
(5.11544 0.304789 0)
(4.58166 0.814698 -1.25375e-22)
(4.78954 0.739657 0)
(4.2491 0.67504 -6.29015e-23)
(4.38542 0.779461 1.31577e-25)
(4.07852 0.471781 1.39994e-22)
(4.14511 0.56348 0)
(3.94898 0.350286 0)
(4.01325 0.410497 0)
(3.79968 0.188445 0)
(3.8749 0.288782 0)
(3.70972 -0.0767849 0)
(3.741 0.0736872 0)
(3.76691 -0.351353 -8.35768e-23)
(3.72494 -0.2133 5.27649e-27)