/*--------------------------------*- C++ -*----------------------------------*\
  =========                 |
  \\      /  F ield         | OpenFOAM: The Open Source CFD Toolbox
   \\    /   O peration     | Website:  https://openfoam.org
    \\  /    A nd           | Version:  10
     \\/     M anipulation  |
\*---------------------------------------------------------------------------*/
FoamFile
{
    format      ascii;
    class       volVectorField;
    location    "18.5";
    object      U;
}
// * * * * * * * * * * * * * * * * * * * * * * * * * * * * * * * * * * * * * //

dimensions      [0 1 -1 0 0 0 0];

internalField   nonuniform List<vector> 
33313
(
(0.26317 0.0107915 -4.59612e-21)
(0.388316 0.00567404 2.5029e-21)
(0.339506 0.0266375 0)
(0.146433 0.00665722 0)
(0.688081 0.0241274 8.59092e-24)
(0.645566 0.0254302 0)
(0.536663 0.028348 -1.00726e-21)
(0.567271 0.0193858 0)
(0.660326 0.0172663 2.85668e-22)
(0.542574 0.0177047 1.22798e-21)
(0.612195 0.0236786 0)
(-0.080149 0.0607904 -3.29526e-20)
(-0.022268 0.0135708 -1.18818e-19)
(-0.0233396 0.017681 -2.41733e-19)
(0.422467 -0.342981 -2.27793e-21)
(0.163095 -0.120174 2.01497e-20)
(0.144571 -0.113864 1.78623e-20)
(1.39499 -0.412492 0)
(1.40925 -0.294001 0)
(1.37413 -0.258445 0)
(1.40863 -0.336263 2.00671e-20)
(0.543598 0.061724 0)
(0.459669 0.368304 -1.23221e-19)
(0.305945 0.32484 3.74587e-19)
(0.406843 0.0533224 -8.10569e-20)
(1.00476 -0.0203012 -5.10612e-20)
(1.00451 -0.039545 3.54371e-20)
(1.00486 -0.0788062 0)
(0.96352 0.105096 -6.018e-20)
(1.0363 0.100249 4.78726e-20)
(1.01601 0.0816159 3.15048e-20)
(0.996691 -0.0192999 -3.18343e-20)
(0.882149 0.0570553 -2.28101e-20)
(-0.0403519 -0.0599546 6.96872e-20)
(-0.0620788 -0.0405734 -1.43973e-19)
(-0.0640111 -0.0360526 9.0022e-20)
(-0.0942462 -0.0487711 1.23138e-20)
(1.1387 -0.0465045 -1.70303e-22)
(1.14606 -0.0478542 -4.76853e-21)
(1.53296 0.200649 -2.33211e-20)
(1.50725 0.179064 4.32872e-20)
(1.00693 -0.169315 -6.05785e-20)
(1.01369 -0.166523 -5.10368e-21)
(-0.0606351 -0.0293439 -5.88162e-20)
(-0.0764752 0.0852388 4.26656e-20)
(-0.0965303 0.0733148 -1.70481e-19)
(0.20837 0.546762 8.68515e-20)
(0.186014 0.405457 3.3893e-20)
(0.391975 -0.042021 6.79439e-22)
(0.503099 -0.0240053 -1.46618e-21)
(1.04194 0.0680486 -4.21686e-20)
(1.05973 0.0625786 2.24823e-20)
(1.06385 -0.0977841 -4.66775e-20)
(1.01891 -0.060912 1.26104e-19)
(0.500949 0.584024 4.4373e-20)
(0.434917 0.648274 -5.60473e-21)
(0.662856 0.792827 -7.24759e-20)
(0.394605 0.732045 1.90604e-19)
(0.211013 -0.347409 5.16331e-20)
(0.342543 -0.645303 -3.86393e-21)
(0.224909 0.582181 -4.21639e-20)
(0.394365 -0.216238 2.38127e-19)
(0.226319 -0.151442 -7.19115e-20)
(0.0976695 -0.105609 0)
(0.0782432 -0.00413708 0)
(0.107467 -0.0136894 1.17378e-20)
(1.37435 -0.0890939 4.43801e-20)
(1.32571 -0.286622 0)
(1.32309 -0.281742 0)
(-0.0905805 -0.106433 1.71669e-20)
(-0.0715203 -0.15783 0)
(0.0320299 -0.150916 0)
(0.222987 -0.016326 8.40783e-21)
(1.5615 0.259433 8.4848e-20)
(-0.214395 0.0232824 6.41719e-20)
(-0.149261 0.0230009 4.1188e-20)
(0.130524 0.064531 0)
(0.0689316 0.0467359 1.8294e-20)
(1.44212 0.313016 8.19346e-20)
(1.4811 0.24832 -4.97115e-20)
(0.820454 -0.0254701 1.47814e-19)
(0.836625 -0.00866581 -4.97607e-20)
(0.795046 -0.0603448 0)
(1.42152 0.161581 2.31393e-20)
(1.28476 0.19906 -4.87231e-21)
(0.693587 0.0675855 -1.90119e-20)
(0.0703757 0.03186 0)
(-0.0437704 0.0666896 2.02811e-20)
(-0.0721899 0.0593897 1.15548e-19)
(0.0372174 -0.111731 2.86591e-19)
(-0.116374 0.136576 5.95034e-21)
(-0.132865 0.0731676 -2.41693e-21)
(-0.0559998 0.068426 -4.11676e-19)
(-0.0337783 0.117315 0)
(-0.033031 0.162364 4.73957e-20)
(1.04227 0.0626583 0)
(1.01578 0.0601621 -5.1638e-21)
(0.460887 -0.0464836 -1.36074e-21)
(0.593922 -0.0308077 -8.93869e-23)
(1.41714 -0.278469 0)
(1.41685 -0.315337 -4.40565e-20)
(1.41389 -0.247399 0)
(1.41175 -0.198877 2.14526e-20)
(1.43707 -0.212748 3.46308e-21)
(1.36353 -0.19146 -2.37571e-20)
(0.266001 -0.0112739 -2.10795e-21)
(0.185986 -0.0421955 -7.91083e-20)
(-0.0149889 -0.0459306 -5.57908e-20)
(-0.00921209 -0.0439509 -2.7883e-22)
(0.886379 -0.594534 -1.12488e-20)
(1.07384 -0.741918 2.29776e-20)
(0.902147 -0.698971 6.36233e-20)
(0.699009 -0.487525 0)
(0.72139 -0.208596 6.80242e-20)
(0.270245 -0.0403274 3.3749e-20)
(0.639921 -0.0906097 -3.06382e-20)
(0.212237 0.107057 -4.33407e-19)
(0.178866 0.255921 4.88092e-20)
(1.42942 -0.205751 1.01343e-21)
(1.42029 -0.197719 0)
(-0.0602054 -0.0187127 0)
(-0.0377472 -0.0209178 9.03412e-20)
(-0.0456491 -0.0180111 0)
(0.321104 -0.0139942 -2.31792e-21)
(0.381953 -0.0101467 1.75528e-21)
(0.194976 -0.0311456 -6.24522e-21)
(0.810794 0.777303 1.22673e-19)
(1.15617 -0.0423282 3.42696e-22)
(1.15139 -0.0406522 0)
(0.0152777 0.211046 3.61491e-20)
(0.0377907 0.120696 -4.86358e-20)
(0.0085028 0.0464636 -1.46471e-19)
(0.000438942 0.0271116 2.66362e-19)
(0.933171 0.725851 9.70131e-21)
(1.09397 0.736316 -4.12802e-21)
(0.95971 0.683664 0)
(0.795717 0.622269 0)
(0.481128 -0.335699 -8.51208e-22)
(0.601208 -0.425001 0)
(0.831187 -0.717549 -1.25613e-19)
(0.83377 -0.690852 -6.78646e-20)
(0.706226 -0.722829 1.36989e-19)
(1.15408 -0.0404718 7.48729e-22)
(1.15709 -0.0408082 7.88403e-21)
(1.16147 -0.0440319 -1.02309e-22)
(1.08677 -0.0175573 0)
(1.09128 -0.0178065 -4.56301e-21)
(1.09287 -0.0214082 7.18073e-21)
(1.09698 -0.0238423 4.43133e-21)
(0.988462 -0.206327 4.53217e-20)
(1.00145 -0.212172 0)
(0.987173 -0.164536 -7.79894e-20)
(0.994386 -0.179484 4.44763e-20)
(0.944728 0.118349 2.84109e-20)
(0.9387 0.139269 -4.38059e-20)
(0.960015 0.147287 2.68982e-20)
(0.954463 0.15771 1.55159e-19)
(-0.0635372 0.0219316 1.33942e-20)
(-0.184964 -0.0478216 0)
(-0.11206 -0.0376972 -1.9743e-20)
(-0.0063088 0.0140123 -2.22002e-19)
(0.467024 0.3847 1.33544e-20)
(0.496862 0.456116 1.96344e-21)
(0.89479 0.759417 -2.96081e-20)
(0.505055 0.514657 -1.7241e-20)
(-0.136533 0.257553 0)
(-0.151291 0.212268 1.11684e-19)
(-0.17569 0.297929 -7.53257e-20)
(0.470871 0.0807883 0)
(0.710662 0.0191811 0)
(0.764887 0.019487 -4.60096e-22)
(1.06964 -0.00433267 5.02016e-21)
(1.0706 -0.00812367 -3.15351e-21)
(1.08747 0.0222699 5.74091e-22)
(1.09144 0.0263427 -1.89394e-23)
(1.01281 -0.0920622 1.05845e-20)
(1.02461 -0.0765694 -4.5645e-20)
(0.567855 0.0399723 1.61932e-19)
(0.504068 0.0356131 -1.30556e-19)
(1.20037 0.297737 0)
(1.22261 0.298837 0)
(1.11379 0.00766504 -5.13484e-23)
(1.1189 0.00980835 -2.98336e-22)
(1.1193 0.191699 -2.26694e-20)
(1.11302 0.18431 8.20701e-21)
(0.453989 -0.0781432 0)
(0.452888 -0.104055 -4.09786e-21)
(0.493966 -7.62096e-05 3.26352e-20)
(0.513782 -0.0443739 3.89779e-20)
(0.258275 0.0684587 -4.64791e-22)
(-0.264457 -0.0348703 -1.75563e-19)
(0.841971 0.0712072 -5.21031e-20)
(0.871851 0.0675458 2.2242e-20)
(0.1801 0.00349902 1.22109e-20)
(0.174491 -0.0527686 0)
(0.93979 0.269631 0)
(0.917562 0.308171 -5.86912e-21)
(0.890357 0.403209 -5.23373e-20)
(0.950889 -0.250712 2.73278e-20)
(0.9199 -0.275218 0)
(0.913687 -0.426015 3.32129e-20)
(0.815356 0.0290877 -4.41856e-20)
(0.844634 0.0339284 5.31047e-20)
(1.04 -0.0691156 3.98538e-21)
(1.03327 -0.0620343 -8.77852e-21)
(-0.112497 0.184437 0)
(-0.0918028 0.133434 -6.16325e-20)
(1.20234 -0.634293 -9.80993e-21)
(1.14551 -0.645353 7.23121e-21)
(1.02866 -0.0581257 -3.09471e-20)
(1.03358 -0.0671339 3.69057e-20)
(0.658883 0.0246058 2.65702e-24)
(0.720751 0.0223619 -3.07533e-24)
(0.720156 0.0219648 -6.40475e-22)
(0.668102 0.02338 -3.69694e-22)
(0.546065 -0.416693 1.08923e-20)
(-0.0491547 0.0518933 1.2663e-19)
(-0.0354736 0.0318269 -6.21295e-20)
(0.993963 0.208409 1.12522e-20)
(0.991127 0.190117 -5.30637e-21)
(1.00307 0.187904 5.32892e-21)
(1.00794 0.206765 0)
(1.42762 -0.202298 -1.55007e-20)
(1.42504 -0.189261 8.8995e-22)
(1.41974 -0.184679 1.50858e-20)
(1.13213 0.302722 0)
(1.11352 0.300499 -2.54295e-20)
(1.13348 0.299802 0)
(-0.0677193 0.0485566 -6.93935e-20)
(-0.0242971 0.0162854 -1.57133e-19)
(-0.0296069 0.0201221 0)
(0.192057 -0.131847 -9.1598e-21)
(0.159097 -0.114454 1.62339e-21)
(1.06788 -0.00275651 3.42724e-21)
(1.07465 -0.0020571 -2.94134e-21)
(1.07683 0.000631509 -1.29702e-21)
(1.26052 -0.389731 0)
(1.02798 -0.174893 0)
(0.86738 -0.634623 -3.05867e-21)
(0.860721 -0.621198 -2.70708e-21)
(0.853674 -0.6065 3.89761e-21)
(0.842966 -0.595645 -2.79762e-22)
(0.831553 -0.58597 0)
(0.81563 -0.582314 -2.28023e-21)
(0.796831 -0.582664 2.27982e-21)
(0.77621 -0.585055 2.49567e-21)
(0.755112 -0.585823 -2.4941e-21)
(0.735175 -0.580683 -2.82751e-21)
(0.71796 -0.565762 2.82555e-21)
(0.704644 -0.538537 3.23829e-21)
(0.695615 -0.498297 -3.23588e-21)
(0.691034 -0.44572 0)
(0.690421 -0.382651 0)
(0.693593 -0.311269 0)
(0.699886 -0.234066 4.06328e-21)
(0.709225 -0.15322 -4.06662e-21)
(0.720948 -0.0710654 0)
(0.735169 0.0105145 0)
(0.751301 0.0895043 0)
(0.76932 0.164349 3.83085e-21)
(0.788109 0.233102 -1.76419e-22)
(0.807996 0.29487 -7.10926e-21)
(0.827001 0.347912 3.454e-21)
(0.847398 0.393311 -2.99852e-21)
(0.863301 0.426741 9.38724e-21)
(0.880867 0.454424 2.33253e-23)
(0.894351 0.47192 0)
(0.908334 0.484079 7.23637e-22)
(0.920567 0.489699 0)
(0.931041 0.489968 -1.21568e-21)
(0.881407 -0.628377 0)
(0.880722 -0.648432 6.51224e-21)
(0.892804 -0.643429 1.80083e-21)
(0.86823 -0.650037 1.78876e-21)
(0.946024 0.479106 -1.01738e-21)
(0.938991 0.485416 1.02528e-21)
(0.901872 0.477503 0)
(0.923452 0.477585 -5.05485e-22)
(0.912933 0.479971 -5.35692e-22)
(0.87328 0.4559 0)
(0.888402 0.469861 0)
(0.83883 0.405965 0)
(0.856431 0.434546 0)
(0.800186 0.324049 -7.42035e-25)
(0.820353 0.369846 0)
(0.761169 0.209237 0)
(0.780759 0.270609 0)
(0.725654 0.0678703 -9.55162e-24)
(0.742786 0.141263 0)
(0.697298 -0.0887688 0)
(0.710406 -0.00941075 0)
(0.679297 -0.246012 -9.36713e-24)
(0.686839 -0.168325 0)
(0.674639 -0.386634 -8.644e-24)
(0.6751 -0.319606 0)
(0.686744 -0.491479 -7.69341e-24)
(0.678414 -0.444651 -1.0081e-27)
(0.717324 -0.54714 0)
(0.699826 -0.525668 0)
(0.761525 -0.559978 0)
(0.738404 -0.557455 0)
(0.806691 -0.558722 0)
(0.784879 -0.558992 0)
(0.842004 -0.569718 0)
(0.825845 -0.561973 0)
(0.864912 -0.596726 1.36884e-21)
(0.853697 -0.582159 3.47223e-22)
(0.872318 -0.613003 4.55858e-23)
(0.882377 -0.662328 -1.88829e-23)
(0.897252 -0.659727 9.8875e-22)
(0.927714 0.472164 0)
(0.868245 -0.66316 -5.76402e-21)
(0.944942 0.465926 0)
(0.954186 0.468726 1.14735e-21)
(0.883824 -0.674804 7.4273e-26)
(0.901141 -0.673552 -1.04722e-21)
(0.932869 0.463287 -1.9571e-21)
(0.962926 0.482829 0)
(0.86751 -0.674183 -1.00205e-21)
(0.967232 0.471321 -1.01829e-21)
(0.901202 -0.686151 -1.13931e-21)
(0.863888 -0.682076 1.07214e-21)
(0.882112 -0.684876 0)
(0.8563 -0.6516 6.29007e-23)
(0.852516 -0.671668 1.73811e-21)
(0.855361 -0.662572 3.69568e-21)
(0.852124 -0.627151 9.61777e-23)
(0.856288 -0.63888 -1.67232e-21)
(0.835903 -0.607944 -3.16857e-24)
(0.845263 -0.6164 -3.22835e-21)
(0.809551 -0.602479 0)
(0.824466 -0.602774 0)
(0.773437 -0.609401 0)
(0.792078 -0.605718 0)
(0.738588 -0.601547 0)
(0.755107 -0.609442 0)
(0.715638 -0.550049 0)
(0.725166 -0.582371 0)
(0.708884 -0.446604 0)
(0.710253 -0.504419 0)
(0.716827 -0.302684 0)
(0.711194 -0.37859 0)
(0.736753 -0.136724 0)
(0.725432 -0.22131 0)
(0.766429 0.0333909 0)
(0.750572 -0.0511389 0)
(0.802413 0.191086 0)
(0.783807 0.114729 0)
(0.841239 0.322281 -3.36893e-25)
(0.821702 0.2607 0)
(0.878836 0.417973 2.654e-25)
(0.860133 0.374731 0)
(0.910045 0.475032 -5.47339e-22)
(0.894565 0.450839 -7.23233e-21)
(0.933069 0.498573 -1.55277e-21)
(0.921844 0.490108 2.852e-21)
(0.950529 0.498389 1.22629e-21)
(0.942709 0.501025 -7.15095e-22)
(0.957038 0.492348 0)
(0.947744 0.454925 -2.46346e-22)
(0.96948 0.458121 -2.15266e-23)
(0.95748 0.456974 0)
(0.908005 0.468494 -6.12477e-23)
(0.921451 0.457448 1.90505e-21)
(0.915434 0.464347 0)
(0.884997 0.4646 0)
(0.897201 0.46881 2.63479e-22)
(0.855184 0.439768 -3.82299e-22)
(0.870561 0.455071 0)
(0.819917 0.387711 0)
(0.838012 0.417328 3.83526e-22)
(0.780832 0.304584 -7.66423e-25)
(0.800718 0.3504 0)
(0.742095 0.190677 0)
(0.761309 0.251278 0)
(0.707705 0.0523503 9.52736e-24)
(0.724157 0.123961 0)
(0.681348 -0.0993848 0)
(0.693337 -0.0226641 0)
(0.666226 -0.250227 9.3631e-24)
(0.67219 -0.175955 0)
(0.665692 -0.382681 8.6486e-24)
(0.663925 -0.319942 0)
(0.68304 -0.478192 7.70316e-24)
(0.671986 -0.436069 1.00905e-27)
(0.71902 -0.525786 0)
(0.698905 -0.507939 0)
(0.767033 -0.535751 0)
(0.742307 -0.533804 0)
(0.813767 -0.537922 0)
(0.791385 -0.535861 0)
(0.849933 -0.554618 4.90889e-24)
(0.833317 -0.544058 0)
(0.875627 -0.585053 0)
(0.864085 -0.568854 0)
(0.895741 -0.619731 0)
(0.885967 -0.602211 0)
(0.913244 -0.654626 -4.97116e-22)
(0.905412 -0.637359 -2.02609e-21)
(0.922615 -0.68509 -6.989e-22)
(0.919442 -0.670876 2.9567e-21)
(0.936892 0.452654 7.00055e-22)
(0.846717 -0.677386 -1.92079e-21)
(0.901431 -0.694518 1.21189e-21)
(0.925611 -0.695947 -1.70485e-21)
(0.9703 0.444162 5.04414e-22)
(0.9811 0.458524 7.54939e-22)
(0.98111 0.443417 3.52877e-22)
(0.858292 -0.685565 0)
(0.911199 0.450412 8.46597e-22)
(0.926479 0.448517 2.12366e-22)
(0.917129 0.443209 9.0904e-22)
(0.838628 -0.678477 -7.01795e-23)
(0.87911 -0.690937 0)
(0.838464 -0.667371 -4.80871e-22)
(0.820499 -0.66929 -2.55819e-21)
(0.830812 -0.670611 9.86488e-22)
(0.845804 -0.652011 -1.71051e-21)
(0.843317 -0.660628 0)
(0.844172 -0.631768 5.05676e-23)
(0.8465 -0.641882 8.07594e-22)
(0.830988 -0.617836 -2.05346e-22)
(0.838964 -0.623354 2.57277e-22)
(0.806361 -0.618246 0)
(0.820266 -0.615955 0)
(0.773494 -0.627062 0)
(0.790246 -0.623106 0)
(0.744097 -0.61521 0)
(0.757661 -0.625782 0)
(0.727486 -0.556029 0)
(0.733856 -0.592389 0)
(0.726469 -0.444755 0)
(0.725098 -0.50634 0)
(0.739128 -0.294478 -6.7828e-24)
(0.731269 -0.373349 0)
(0.762701 -0.123701 0)
(0.74972 -0.210512 0)
(0.794436 0.0498415 0)
(0.777717 -0.0362494 0)
(0.831349 0.209329 0)
(0.81247 0.13232 0)
(0.869667 0.340372 -3.08543e-25)
(0.850587 0.279114 0)
(0.905422 0.433867 2.40546e-25)
(0.888084 0.392106 0)
(0.93532 0.48855 -7.08967e-23)
(0.921172 0.46578 0)
(0.956697 0.5091 -1.90944e-22)
(0.946891 0.502408 -1.78324e-21)
(0.970305 0.505063 3.50646e-22)
(0.964362 0.509492 1.97909e-22)
(0.978165 0.48596 -2.82475e-22)
(0.974728 0.496848 -6.37459e-22)
(0.980103 0.472922 2.86978e-22)
(0.949454 0.442862 -2.85773e-22)
(0.959088 0.444064 0)
(0.930368 0.43832 5.64801e-22)
(0.939706 0.441224 -1.19466e-22)
(0.89469 0.458239 2.79059e-23)
(0.903919 0.455679 0)
(0.870393 0.451237 6.03534e-23)
(0.883134 0.456837 -1.04721e-22)
(0.839128 0.423141 5.49843e-24)
(0.855438 0.440251 7.43972e-23)
(0.803009 0.368935 0)
(0.821526 0.399507 0)
(0.763916 0.285058 -7.83187e-25)
(0.783594 0.33083 0)
(0.725821 0.172507 -7.14785e-24)
(0.744538 0.232122 0)
(0.692798 0.0375252 0)
(0.708458 0.107232 0)
(0.668545 -0.109207 0)
(0.679375 -0.0351965 0)
(0.656421 -0.253462 0)
(0.660763 -0.182678 0)
(0.659944 -0.377707 -6.56824e-24)
(0.65601 -0.319275 0)
(0.682381 -0.463818 0)
(0.668676 -0.426453 0)
(0.723588 -0.503362 0)
(0.700959 -0.489098 0)
(0.774942 -0.510942 0)
(0.748896 -0.509279 0)
(0.822413 -0.517021 0)
(0.799904 -0.512462 0)
(0.858849 -0.539001 -4.94835e-24)
(0.841983 -0.52596 0)
(0.887099 -0.572515 0)
(0.873675 -0.554955 0)
(0.910737 -0.609796 7.25494e-22)
(0.89941 -0.591001 0)
(0.930847 -0.647507 -2.24278e-23)
(0.921166 -0.628792 -7.40292e-22)
(0.945876 -0.681193 -5.82945e-23)
(0.939254 -0.665205 1.90798e-21)
(0.925443 -0.702211 -2.60016e-21)
(0.954367 -0.702422 0)
(0.951136 -0.693967 -1.56602e-21)
(0.826515 -0.673425 5.78037e-21)
(0.806694 -0.661914 -3.00527e-21)
(0.848617 -0.683532 2.63102e-21)
(0.897934 -0.698576 0)
(0.921878 0.434438 -9.0216e-22)
(0.95498 -0.704888 0)
(0.923309 -0.702132 6.23081e-21)
(0.969744 0.429664 -2.31576e-22)
(0.979841 0.427971 3.08392e-22)
(0.993559 0.457526 1.15222e-21)
(0.811794 -0.660733 0)
(0.7899 -0.646549 -1.74224e-21)
(0.99226 0.441603 0)
(0.872347 -0.692072 0)
(0.803947 -0.657985 2.1008e-21)
(0.769709 -0.629837 1.76112e-21)
(0.788228 -0.647847 -1.72934e-21)
(0.825742 -0.660978 -3.23808e-22)
(0.816164 -0.66176 1.00518e-21)
(0.836548 -0.650302 -1.25537e-21)
(0.832426 -0.656721 2.06497e-22)
(0.837587 -0.63473 -3.11117e-22)
(0.838495 -0.642447 0)
(0.827202 -0.626678 7.7483e-26)
(0.83386 -0.629033 2.09751e-22)
(0.804877 -0.632619 0)
(0.817513 -0.627978 0)
(0.775905 -0.642081 0)
(0.790448 -0.638534 0)
(0.752418 -0.625412 0)
(0.762829 -0.638945 0)
(0.742392 -0.558791 0)
(0.745498 -0.598963 0)
(0.747258 -0.440473 6.6241e-24)
(0.743082 -0.505419 0)
(0.764602 -0.284516 6.7828e-24)
(0.754564 -0.36606 0)
(0.791498 -0.109246 0)
(0.777031 -0.198165 0)
(0.825235 0.0673839 0)
(0.80768 -0.0200176 0)
(0.86281 0.228358 0)
(0.843761 0.150813 0)
(0.90051 0.35897 -2.64237e-25)
(0.881895 0.298182 0)
(0.93437 0.450069 1.99233e-25)
(0.91815 0.409694 0)
(0.961273 0.500732 -4.37298e-24)
(0.948841 0.480132 0)
(0.979689 0.517326 -6.94463e-24)
(0.971562 0.512663 0)
(0.989938 0.509537 -3.61637e-22)
(0.985706 0.515857 0)
(0.993943 0.487237 -3.23225e-22)
(0.992363 0.499719 6.55839e-22)
(0.993856 0.473096 -4.24342e-22)
(0.950411 0.430146 5.55009e-23)
(0.959569 0.430444 2.08446e-22)
(0.933018 0.427342 7.80688e-22)
(0.941529 0.429246 9.78022e-23)
(0.901781 0.442862 -1.01215e-21)
(0.914177 0.429909 7.3152e-22)
(0.90866 0.437197 -9.85825e-23)
(0.883027 0.447216 3.14241e-25)
(0.893321 0.446454 2.10709e-22)
(0.857205 0.436873 -2.70905e-22)
(0.870873 0.444184 0)
(0.825094 0.406069 -4.4751e-24)
(0.84189 0.424509 0)
(0.78836 0.349948 0)
(0.807175 0.381405 0)
(0.749478 0.265708 -7.86403e-25)
(0.76894 0.311357 0)
(0.712283 0.154835 7.14785e-24)
(0.730429 0.213323 0)
(0.680795 0.0235039 0)
(0.695596 0.0911507 0)
(0.658727 -0.117832 0)
(0.668372 -0.0467316 0)
(0.649636 -0.25493 0)
(0.65234 -0.187953 0)
(0.657281 -0.370174 6.56824e-24)
(0.651138 -0.31646 0)
(0.684865 -0.446309 0)
(0.668503 -0.413909 0)
(0.730871 -0.478378 0)
(0.706036 -0.467222 0)
(0.784499 -0.485201 0)
(0.757707 -0.482971 0)
(0.831878 -0.496127 0)
(0.809564 -0.488782 0)
(0.868487 -0.522973 3.97182e-24)
(0.851345 -0.507788 0)
(0.898579 -0.558954 0)
(0.884041 -0.540376 0)
(0.925541 -0.597906 3.54798e-25)
(0.912408 -0.578196 0)
(0.949363 -0.637599 0)
(0.937913 -0.617857 0)
(0.969351 -0.674206 4.80151e-22)
(0.96003 -0.656721 0)
(0.983575 -0.699444 -4.60928e-21)
(0.977378 -0.688877 2.68779e-22)
(0.953069 -0.699583 -6.51403e-21)
(0.98884 -0.701443 5.89132e-21)
(0.987493 -0.704256 -9.48325e-22)
(0.925187 0.42462 -3.92178e-23)
(0.770497 -0.62267 0)
(0.748773 -0.6034 -1.77581e-22)
(0.836911 -0.674538 -2.59546e-21)
(0.892573 -0.695699 -1.4037e-21)
(0.99024 0.425393 -8.40945e-22)
(0.987255 -0.68934 1.05471e-22)
(1.02507 -0.699141 6.23065e-21)
(1.0267 -0.689977 -1.35298e-20)
(0.794675 -0.639992 -2.91504e-21)
(0.917626 -0.693918 -2.86218e-21)
(0.94774 -0.684393 6.3034e-21)
(0.748855 -0.589114 0)
(0.907245 0.424622 -6.84977e-22)
(0.918234 0.421317 -1.20655e-22)
(0.912057 0.417361 -6.92782e-22)
(0.725775 -0.567145 2.47886e-21)
(0.863613 -0.686273 1.41791e-21)
(0.751798 -0.611181 1.02677e-21)
(0.706087 -0.545053 0)
(0.729933 -0.582856 -3.27331e-21)
(0.788767 -0.644125 4.5259e-22)
(0.771545 -0.631412 -4.57381e-22)
(0.814149 -0.652304 4.1801e-22)
(0.80285 -0.650564 -8.70566e-22)
(0.828668 -0.646467 0)
(0.822745 -0.650505 0)
(0.832584 -0.636252 0)
(0.832058 -0.641188 0)
(0.824558 -0.634312 -6.95552e-24)
(0.830102 -0.633545 0)
(0.804993 -0.645226 0)
(0.816043 -0.63856 0)
(0.780711 -0.65439 0)
(0.792659 -0.651748 0)
(0.763604 -0.632339 0)
(0.77068 -0.64902 0)
(0.760314 -0.558449 0)
(0.760106 -0.60228 0)
(0.771053 -0.433554 -6.6241e-24)
(0.764089 -0.501621 0)
(0.792991 -0.272426 0)
(0.780823 -0.356379 0)
(0.823135 -0.0933671 0)
(0.807211 -0.184008 0)
(0.858748 0.0856366 0)
(0.840433 -0.00277286 0)
(0.896782 0.24731 0)
(0.877681 0.169652 0)
(0.933476 0.376616 -2.14859e-25)
(0.915548 0.316736 0)
(0.964934 0.464605 1.55081e-25)
(0.95007 0.425978 0)
(0.988373 0.511122 4.37317e-24)
(0.977753 0.492701 0)
(1.00289 0.523451 0)
(0.996719 0.520914 0)
(1.00942 0.512082 0)
(1.00701 0.520059 0)
(1.00989 0.487068 6.07541e-22)
(1.01008 0.500777 0)
(1.00633 0.455582 -1.26813e-21)
(1.00802 0.471871 2.6144e-22)
(1.00078 0.42207 1.71409e-21)
(1.00363 0.438987 -5.42964e-23)
(0.968679 0.414749 -1.99688e-22)
(0.987835 0.409231 1.83409e-22)
(0.97814 0.41236 0)
(0.950571 0.416926 0)
(0.959257 0.416297 0)
(0.934596 0.41594 -9.70868e-23)
(0.942338 0.416856 3.6813e-22)
(0.921204 0.412029 4.43651e-22)
(0.927505 0.414303 -7.01577e-22)
(0.89323 0.434707 -2.80285e-24)
(0.900971 0.430504 -8.00918e-22)
(0.872776 0.435621 3.26662e-25)
(0.883863 0.436645 0)
(0.845799 0.422125 -7.34528e-24)
(0.860065 0.430992 0)
(0.812901 0.388647 5.33091e-25)
(0.829976 0.408206 0)
(0.775906 0.330923 0)
(0.794789 0.363034 0)
(0.737484 0.246711 -7.79265e-25)
(0.756639 0.292097 0)
(0.701383 0.137829 0)
(0.718895 0.195056 0)
(0.671555 0.0104377 0)
(0.68545 0.0758782 0)
(0.651773 -0.12514 0)
(0.660185 -0.0571417 0)
(0.645814 -0.254615 0)
(0.646828 -0.19169 0)
(0.657721 -0.36035 0)
(0.649296 -0.311599 0)
(0.690439 -0.426398 -3.99817e-24)
(0.671476 -0.398918 0)
(0.7406 -0.451927 0)
(0.713976 -0.443275 0)
(0.795411 -0.459362 -3.30035e-24)
(0.768421 -0.455931 0)
(0.842028 -0.475454 0)
(0.820151 -0.465348 0)
(0.878705 -0.506441 -3.97182e-24)
(0.861309 -0.48953 0)
(0.910546 -0.544229 0)
(0.894962 -0.524937 0)
(0.940308 -0.584284 3.86761e-25)
(0.925657 -0.564033 0)
(0.968084 -0.625428 0)
(0.95448 -0.604863 0)
(0.992882 -0.66401 1.98987e-23)
(0.980968 -0.64542 0)
(1.01304 -0.69234 -1.85884e-21)
(1.00365 -0.680151 -7.61456e-22)
(1.02016 -0.699285 1.60993e-21)
(0.981829 -0.666065 7.89973e-21)
(1.02503 -0.669876 7.56316e-21)
(0.997465 0.405341 0)
(0.701206 -0.521488 -8.07032e-21)
(0.680883 -0.498486 2.6012e-21)
(0.821783 -0.657003 2.94662e-21)
(0.883623 -0.684307 7.02327e-22)
(0.915562 0.409259 -6.46533e-22)
(0.774919 -0.609565 0)
(0.90909 -0.675308 0)
(0.725318 -0.545241 -3.12671e-21)
(0.938933 -0.657433 0)
(1.01909 -0.637264 0)
(0.972527 -0.629823 -7.98829e-21)
(0.67528 -0.465089 1.01305e-20)
(1.01149 0.417966 -3.28189e-21)
(1.00705 0.400975 9.14077e-22)
(0.654907 -0.440669 -1.56915e-22)
(0.851578 -0.672017 6.83558e-22)
(0.688754 -0.521305 -1.98488e-21)
(0.637041 -0.414909 -1.08344e-21)
(0.663371 -0.47352 2.03582e-21)
(0.736263 -0.590814 1.75461e-23)
(0.713407 -0.560535 -4.48547e-22)
(0.775541 -0.628205 -2.94415e-24)
(0.757092 -0.613125 4.2179e-22)
(0.804273 -0.641572 0)
(0.791276 -0.637243 0)
(0.822213 -0.640894 0)
(0.814588 -0.642331 0)
(0.828948 -0.636605 0)
(0.827099 -0.638481 0)
(0.823077 -0.640751 7.00796e-24)
(0.827569 -0.636997 0)
(0.806687 -0.655811 0)
(0.815872 -0.647571 0)
(0.787827 -0.663778 0)
(0.796819 -0.662469 0)
(0.777524 -0.635899 0)
(0.781108 -0.655868 0)
(0.781061 -0.554916 -6.42476e-24)
(0.777518 -0.602258 0)
(0.79766 -0.423968 7.26943e-24)
(0.787919 -0.494867 0)
(0.824156 -0.258374 0)
(0.80988 -0.344368 0)
(0.857463 -0.0762768 0)
(0.840135 -0.168271 0)
(0.894788 0.104386 0)
(0.875803 0.0153323 0)
(0.932996 0.266021 0)
(0.914006 0.188617 0)
(0.968258 0.39333 -1.60022e-25)
(0.951245 0.334693 0)
(0.996821 0.477636 1.07167e-25)
(0.983568 0.441018 0)
(1.01635 0.519623 -4.54018e-24)
(1.00778 0.503515 0)
(1.02661 0.527587 0)
(1.02257 0.527162 0)
(1.02907 0.512766 0)
(1.02867 0.522336 0)
(1.02596 0.485303 -4.67103e-24)
(1.02801 0.500123 0)
(1.01947 0.452414 -1.46498e-23)
(1.02267 0.469257 0)
(1.01524 0.435461 -4.3255e-22)
(0.984383 0.393396 -1.8207e-22)
(1.00246 0.38422 1.48514e-22)
(0.993415 0.389073 0)
(0.966709 0.399901 0)
(0.975489 0.397058 -1.68663e-22)
(0.949917 0.403465 0)
(0.95802 0.402102 0)
(0.935164 0.404222 5.16036e-22)
(0.942282 0.404176 0)
(0.922986 0.402379 7.45655e-22)
(0.928739 0.403567 -3.89575e-22)
(0.917876 0.400724 -1.07764e-22)
(0.900996 0.418663 -8.32474e-23)
(0.91058 0.405959 3.10188e-23)
(0.906489 0.412761 6.26738e-22)
(0.885589 0.425849 2.53641e-25)
(0.894022 0.423139 8.24118e-23)
(0.863819 0.4235 3.35525e-25)
(0.875477 0.426137 0)
(0.835886 0.406927 4.29699e-25)
(0.850596 0.417299 0)
(0.802519 0.371049 5.3557e-25)
(0.819772 0.391675 0)
(0.765558 0.31201 0)
(0.78434 0.344596 0)
(0.727825 0.228159 -7.64236e-25)
(0.746566 0.273132 0)
(0.692981 0.121555 -4.4852e-24)
(0.709797 0.177393 0)
(0.664929 -0.00162456 0)
(0.677867 0.0614724 0)
(0.647536 -0.131092 0)
(0.654664 -0.0663884 0)
(0.644852 -0.252434 0)
(0.644094 -0.19384 0)
(0.661233 -0.34808 -3.64684e-24)
(0.65042 -0.304568 0)
(0.699021 -0.404058 3.99817e-24)
(0.677563 -0.381352 0)
(0.752523 -0.424298 0)
(0.724611 -0.417388 0)
(0.80739 -0.4338 3.30035e-24)
(0.780739 -0.428538 0)
(0.852697 -0.455161 0)
(0.831433 -0.442439 0)
(0.889396 -0.489433 -2.97788e-24)
(0.871752 -0.47125 0)
(0.922804 -0.52839 0)
(0.9063 -0.50865 0)
(0.95501 -0.569169 8.66991e-24)
(0.939039 -0.548557 0)
(0.986161 -0.611147 0)
(0.970732 -0.590126 0)
(1.01567 -0.651219 6.59092e-24)
(1.00122 -0.631747 0)
(1.04151 -0.682485 -6.77635e-22)
(1.02916 -0.668565 -5.33449e-22)
(1.06049 -0.693311 -2.57218e-21)
(1.05201 -0.691396 4.0067e-21)
(1.06743 -0.669344 -6.96509e-21)
(1.06586 -0.686666 6.9352e-21)
(1.00898 -0.591601 -8.91194e-21)
(1.05852 -0.596566 0)
(1.06468 -0.639361 0)
(0.627254 -0.374434 6.46535e-21)
(0.610158 -0.350911 -3.68914e-21)
(0.804217 -0.629405 -2.96143e-21)
(0.871831 -0.662512 0)
(1.04562 -0.539751 0)
(0.994396 -0.532256 9.37114e-21)
(0.752908 -0.568235 -2.29399e-22)
(0.89699 -0.644569 9.37606e-22)
(0.700137 -0.490551 -3.01435e-21)
(0.926366 -0.617422 1.27454e-22)
(0.997381 0.368119 -4.72043e-22)
(1.01135 0.378936 -4.34923e-23)
(1.0058 0.362513 0)
(0.648362 -0.399141 -2.98335e-21)
(0.958863 -0.579884 -5.66067e-22)
(0.600306 -0.299553 2.72794e-21)
(0.913407 0.398631 -2.37594e-23)
(0.584134 -0.276134 0)
(0.83664 -0.647349 -6.7415e-23)
(0.623128 -0.390315 -1.29966e-21)
(0.571926 -0.252467 0)
(0.596706 -0.325953 2.60393e-21)
(0.674696 -0.496576 4.13168e-22)
(0.648936 -0.447678 -4.22105e-22)
(0.723303 -0.568993 0)
(0.699694 -0.537005 0)
(0.76468 -0.610655 2.91321e-24)
(0.745095 -0.593244 0)
(0.796249 -0.629107 2.63363e-24)
(0.781759 -0.622195 0)
(0.817213 -0.633885 0)
(0.808099 -0.632543 0)
(0.826446 -0.635849 0)
(0.823424 -0.634502 0)
(0.822761 -0.645948 -2.70423e-26)
(0.826129 -0.639396 0)
(0.809964 -0.664117 0)
(0.817044 -0.654877 0)
(0.797094 -0.669928 0)
(0.802846 -0.670371 0)
(0.793957 -0.635921 0)
(0.793908 -0.659238 0)
(0.804428 -0.548163 6.42477e-24)
(0.797517 -0.5988 0)
(0.82689 -0.411794 -7.26943e-24)
(0.814377 -0.485189 0)
(0.857891 -0.242445 -8.12247e-24)
(0.841541 -0.330124 0)
(0.894241 -0.0580252 0)
(0.875574 -0.15101 0)
(0.93309 0.12355 0)
(0.913543 0.0342336 0)
(0.971158 0.284335 0)
(0.952454 0.207598 0)
(1.00454 0.408828 -1.00983e-25)
(0.988682 0.351835 0)
(1.0297 0.488787 5.68149e-26)
(1.01831 0.454478 0)
(1.04487 0.525919 4.54018e-24)
(1.03855 0.512232 0)
(1.05054 0.529549 7.32415e-24)
(1.04879 0.531174 0)
(1.04878 0.511496 0)
(1.05043 0.522527 0)
(1.04208 0.481955 4.62768e-24)
(1.04587 0.497666 0)
(1.03267 0.44793 -2.35409e-22)
(1.03742 0.465224 0)
(1.02224 0.413049 2.40403e-21)
(1.02714 0.430613 5.55811e-22)
(1.01675 0.395928 -6.94962e-22)
(0.980644 0.37779 0)
(0.989027 0.373277 0)
(0.964032 0.385162 0)
(0.972256 0.381785 1.67315e-22)
(0.948477 0.389911 0)
(0.955992 0.387862 0)
(0.934889 0.392353 -2.4873e-22)
(0.941444 0.391431 0)
(0.923618 0.39266 -2.46943e-22)
(0.928913 0.392736 2.0853e-22)
(0.906242 0.402172 1.20605e-21)
(0.909456 0.396198 -6.17491e-22)
(0.914806 0.391272 6.2825e-22)
(0.918951 0.39208 2.47825e-22)
(0.89549 0.41211 -2.22157e-24)
(0.90162 0.407596 -3.33731e-22)
(0.878847 0.416309 4.76152e-24)
(0.887925 0.415157 0)
(0.856105 0.410905 3.42772e-25)
(0.868221 0.415069 0)
(0.827473 0.39145 4.32443e-25)
(0.842484 0.403218 0)
(0.793878 0.3534 3.40668e-24)
(0.811189 0.374989 0)
(0.75721 0.29334 0)
(0.775768 0.326249 0)
(0.720355 0.210131 -7.42287e-25)
(0.738591 0.254555 0)
(0.686905 0.106064 4.4852e-24)
(0.702964 0.16039 0)
(0.660741 -0.0126375 -3.69036e-24)
(0.67267 0.0479774 0)
(0.645866 -0.135626 0)
(0.651638 -0.0744207 0)
(0.646693 -0.248278 0)
(0.644027 -0.194317 0)
(0.667835 -0.333309 8.8117e-25)
(0.654506 -0.295251 0)
(0.710487 -0.379602 0)
(0.686742 -0.361305 0)
(0.766281 -0.396139 0)
(0.737687 -0.390091 0)
(0.820101 -0.408959 0)
(0.794272 -0.401406 0)
(0.863744 -0.435317 0)
(0.84318 -0.420285 0)
(0.900445 -0.472008 2.97788e-24)
(0.88257 -0.45297 0)
(0.935206 -0.511606 0)
(0.917914 -0.491639 0)
(0.969554 -0.552705 -7.83427e-24)
(0.952412 -0.531943 0)
(1.00376 -0.595035 0)
(0.986676 -0.573813 0)
(1.0375 -0.635923 -6.59167e-24)
(1.02076 -0.615948 0)
(1.06897 -0.669136 0)
(1.05372 -0.654046 0)
(1.09449 -0.683673 -3.28626e-22)
(1.0827 -0.679624 3.28088e-22)
(1.10905 -0.66474 1.22885e-21)
(1.1035 -0.67932 -1.63944e-21)
(1.1074 -0.599793 -4.16353e-21)
(1.11052 -0.638969 4.19432e-21)
(1.02984 -0.471246 -1.08521e-20)
(1.085 -0.483516 1.07474e-20)
(1.09765 -0.547475 0)
(0.560557 -0.194293 4.99437e-21)
(0.549806 -0.172429 0)
(0.975405 -0.460157 0)
(1.00951 -0.393539 1.01357e-20)
(1.06682 -0.408833 -9.36479e-21)
(0.78424 -0.590749 1.70992e-21)
(0.856934 -0.629005 0)
(0.729195 -0.515896 4.88855e-21)
(0.881583 -0.600934 -9.29773e-22)
(0.992273 0.352338 -4.03544e-22)
(1.00026 0.346577 5.51709e-22)
(0.673958 -0.425913 0)
(0.910194 -0.56355 0)
(0.621184 -0.324088 -3.25915e-21)
(0.942041 -0.516762 5.95814e-22)
(0.575852 -0.217265 -5.04444e-21)
(0.911171 0.390258 -6.34722e-22)
(0.530965 -0.0883976 5.59806e-21)
(0.540297 -0.108696 1.9104e-22)
(0.952858 -0.377306 1.17103e-20)
(0.986207 -0.307101 1.26167e-20)
(1.04538 -0.325872 -1.19225e-20)
(0.515437 -0.00425369 -2.14757e-21)
(0.526486 -0.0713419 -1.67576e-21)
(1.02031 0.372954 -1.33899e-21)
(1.0142 0.356546 7.57259e-23)
(0.512264 0.0111353 1.40399e-21)
(0.81902 -0.611199 7.91522e-22)
(0.564383 -0.230153 -1.39436e-21)
(0.543333 -0.152515 2.08317e-21)
(0.612947 -0.365286 3.94419e-22)
(0.587517 -0.30199 -1.63729e-21)
(0.664038 -0.471468 0)
(0.638332 -0.422355 0)
(0.713251 -0.546169 2.25282e-24)
(0.689221 -0.512768 0)
(0.756173 -0.591784 -2.26534e-24)
(0.735691 -0.572217 0)
(0.790119 -0.615253 -2.63363e-24)
(0.774376 -0.605761 0)
(0.813562 -0.625637 0)
(0.803241 -0.621413 0)
(0.824901 -0.634004 0)
(0.820857 -0.629374 0)
(0.823567 -0.649756 -6.27429e-26)
(0.825653 -0.640666 0)
(0.814829 -0.669891 0)
(0.819567 -0.660279 0)