/*--------------------------------*- C++ -*----------------------------------*\
  =========                 |
  \\      /  F ield         | OpenFOAM: The Open Source CFD Toolbox
   \\    /   O peration     | Website:  https://openfoam.org
    \\  /    A nd           | Version:  10
     \\/     M anipulation  |
\*---------------------------------------------------------------------------*/
FoamFile
{
    format      ascii;
    class       surfaceScalarField;
    location    "72.5";
    object      phi;
}
// * * * * * * * * * * * * * * * * * * * * * * * * * * * * * * * * * * * * * //

dimensions      [0 3 -1 0 0 0 0];

internalField   nonuniform List<scalar> 
57492
(
0.000235406
-1.05818e-05
-4.36584e-05
-0.000181166
-0.00016227
0.000267093
0.000130583
-2.87484e-05
8.08161e-05
0.000323221
-0.000375288
0.00315987
0.0033864
-0.000272124
-0.00627414
-0.00862825
0.00404526
0.00774285
0.000693332
-0.000637651
-0.000334482
0.000278801
-0.001235
0.000211944
-7.27615e-05
0.00109582
0.000265526
-0.000807199
0.00159172
-0.00463308
0.00442534
-0.00138399
0.00134337
0.00424874
-0.0040004
-0.00061065
-0.000206165
0.000683074
0.000133741
-0.000122234
-0.000830994
0.000342578
0.000231451
-0.000324745
-2.89401e-05
-5.31653e-05
7.84516e-05
0.00164978
-0.00159281
-0.000596992
0.000540022
0.000237828
0.00133157
8.03822e-05
-0.000324763
0.000788621
0.00333523
-0.00379909
-0.000660902
0.00326112
-0.00292498
0.00013541
-0.000288458
0.000153048
-0.00166282
0.00121959
0.000578638
-0.00465979
0.000189313
0.00333548
0.001135
0.00122842
-0.00472995
-0.00115825
-0.000132909
-0.000195992
-0.000701308
0.00103021
-0.000286662
0.000175757
-2.20037e-05
-0.00254327
0.00215884
0.000733721
-0.000349295
-0.00304687
0.000925687
-0.000422081
-0.00112698
0.00059599
0.000456508
7.44872e-05
-0.000778504
-0.000362011
1.35296e-05
-0.000367025
-0.00113307
0.00128986
0.000210232
-0.000415761
0.000116296
-6.75596e-05
0.000721961
-0.000480361
-0.00044761
0.000206009
-0.000622816
0.000501759
0.000843018
-0.000854001
-0.00163693
0.00158894
0.000901998
-0.00194887
-0.000464898
0.00155977
-0.000707288
-0.000151991
0.000859279
-0.000271209
-0.000436079
-0.00137451
0.00189187
-0.00078857
0.000203041
-0.000767282
-0.000810264
-0.000546283
0.000758227
-0.000233038
-0.00190188
0.00115085
0.000751027
-0.00432175
0.00241988
0.00487147
-0.000809473
0.000338893
-0.00440089
0.00358142
-9.0746e-05
0.00138079
-0.000717228
0.00488737
-0.00497962
0.00135809
0.000293683
-0.00138625
0.00137019
-8.48603e-05
0.00166135
-0.000622831
-0.00123757
0.000199052
0.00185988
9.51505e-05
0.000845266
-0.000526557
0.00105148
0.000824433
0.00111666
-0.00475638
-0.000633722
0.000544712
0.00484539
-0.00488959
-0.000297348
0.000430561
0.00121956
0.00451268
-0.00443743
-0.00129481
0.000891315
-0.00430483
-0.00277468
0.00252712
0.00253187
-0.00228431
-0.000271424
0.00320095
-0.00570421
1.48186e-05
-0.000116442
-8.00254e-07
0.000102424
-0.000320554
1.06274e-05
6.68824e-05
-0.000135712
-0.000251724
-5.62101e-05
6.65037e-06
1.11011e-05
-1.19013e-05
8.83246e-06
2.2686e-06
0.00730007
0.00378522
-0.00587718
-0.00520811
0.00233721
-0.00070193
0.00566479
-0.00785022
0.00309905
0.00708838
0.00229311
-0.00635811
0.00162392
-0.0028654
0.00213327
-0.000891792
0.0023558
-0.00291397
0.00218208
-2.98088e-05
2.17836e-05
-2.55667e-06
-7.00687e-05
-3.39845e-06
-0.000222303
-2.89317e-05
-0.00293772
0.0053466
0.00339247
-0.00580135
0.0043626
-0.00494451
0.00298409
0.00474638
-0.00238387
0.0100815
-0.00147929
-0.00179094
-0.00681124
0.00224403
0.00541707
0.00242037
0.00160682
-0.0050033
0.00564051
4.67673e-05
-7.55157e-05
0.000127583
0.000815642
0.00175669
-0.000626014
-0.00194632
0.0010393
9.95617e-05
-9.55659e-05
2.62533e-05
6.93126e-05
-0.000297605
0.000202039
-0.0066032
0.00342337
-0.00201299
0.00519282
-0.0057406
-0.00249525
0.00163264
-0.0026246
0.00208764
-0.00520364
0.00195115
-2.66112e-05
-0.000943954
-0.00098058
-0.000711349
0.00222676
0.000435735
-0.000834311
-8.52195e-05
0.000208181
-0.000771275
-8.96474e-05
-0.000271389
-0.00144384
-0.000237384
-6.2413e-05
1.88116e-05
0.000280985
-0.000214992
-0.000521095
0.000498704
0.000137581
1.6912e-05
-0.000369485
7.937e-05
-4.20253e-06
0.000100808
-2.62587e-06
-0.000640899
0.00036951
8.34478e-05
-0.000724347
0.000172208
-0.000469813
0.00427363
0.00333161
-0.000178529
0.00212862
-0.00648323
-1.04022e-05
0.00226401
-0.0017975
-0.000456112
0.000291684
0.00316419
-0.00346628
0.00326852
0.00183946
-0.000498443
-0.00460954
-0.00103371
0.000502088
0.00380014
0.00398701
-0.00318126
-0.00164279
-0.00303449
0.00125169
0.00342559
-0.00118455
0.00350477
-0.00396301
0.00042375
-0.00464279
8.23162e-05
3.37225e-05
-4.57159e-06
0.0010437
-0.000615558
-0.000590412
7.65017e-05
-0.000323428
0.00129063
0.000362717
-1.91224e-05
-0.000187146
0.000331851
6.83224e-05
-0.000213027
0.000991805
-0.00121547
3.65219e-05
-0.000357697
0.00083091
0.000518593
-0.000125137
9.92909e-05
-0.00611174
0.00365159
0.00588352
0.00772169
-0.00200562
-0.00821132
-0.0028547
0.00446465
-9.70809e-05
-0.000873937
-0.00016205
-0.000521963
9.12091e-06
4.77914e-05
-0.000130017
3.73877e-05
4.48383e-05
-0.000129955
0.000144363
3.33831e-05
-0.00029912
3.91484e-05
-0.000265162
-0.000312608
5.5807e-05
-0.000803312
-0.000335787
-0.00078136
-0.000838083
0.000957471
0.000661973
3.20126e-05
0.000413763
-0.00122714
-0.00109271
0.00028664
-0.0029332
0.00133035
-5.9971e-05
-0.00350178
0.000809362
-0.000240778
0.00087593
-0.00334738
0.00256421
-9.27627e-05
0.00067897
-0.00272853
0.00292549
0.00252815
-0.0101973
-0.00176508
0.00218135
0.00302087
-0.0034556
0.00206064
-0.000320761
3.07176e-07
1.66048e-05
-3.4733e-06
3.78048e-06
0.000284135
-4.12838e-05
0.0055837
-0.00341138
-0.00249278
0.000320449
0.00483399
3.24832e-05
0.00463933
0.000168294
-0.00507905
0.00137971
0.00329458
-3.49558e-05
0.000550973
-0.00291049
0.00373922
5.3271e-06
-8.8004e-06
0.000759146
-0.00211954
-0.00284603
0.00123153
0.00308287
0.0008141
-4.65671e-05
-0.000855806
8.82727e-05
0.000270591
-7.93063e-05
-0.00104831
0.000232392
0.00131768
0.000190802
-0.000968522
-0.000134932
7.60306e-05
-7.13997e-06
1.03314e-05
-2.86373e-06
-3.27679e-07
1.09331e-05
-2.50376e-07
-1.78227e-05
4.66679e-05
-0.000103593
6.78578e-05
-0.00171525
0.00264829
-0.000760828
0.00291592
-0.00378174
-0.000849432
6.63925e-06
-0.00144171
0.00166746
-0.0039898
0.000240998
-0.00273522
-0.0018302
0.000575623
0.00269094
0.00291154
-0.00541317
0.0026055
0.00429266
-0.00420722
0.00224059
-0.00308403
0.00160594
-0.000762505
0.00245584
-0.00302316
0.00280791
0.00437024
0.00187678
0.00500197
-0.0002301
-0.00496753
0.000195661
0.0055429
-0.000658583
0.000117651
0.00552866
-0.000905792
8.52768e-05
-0.00470815
0.00396809
-0.00137788
0.00293845
0.00430753
-0.00140563
0.00114259
-0.0040445
0.00127133
0.00438748
-0.00135127
-0.00387578
-0.00166709
0.00413724
0.0010682
-0.0036923
-0.00186141
0.00361991
-0.00237992
-0.00323877
0.00215586
0.00346284
-0.00239581
-0.00326681
0.00328269
0.00223565
0.00304558
-0.00147516
-0.00380606
0.00301934
-0.0031795
-0.00258994
0.00261457
0.00299471
-0.0020413
0.00249693
-0.00406858
0.00361464
-0.00102121
-0.00506497
0.00105404
0.00537429
-0.00136337
0.00191077
-0.000264184
0.000989821
-0.00105568
0.000330044
-0.000107687
0.00126895
-0.00142545
-5.29461e-05
0.000305032
0.000110631
-0.00105161
-0.00164903
0.00107343
-1.60534e-07
-8.98426e-08
3.09284e-07
-4.69818e-07
-9.68398e-05
-0.00181929
0.00138957
-0.00162318
-6.50453e-05
0.00159138
4.42673e-05
-0.00170121
3.37599e-05
-0.00024348
0.00154858
0.000268903
-0.001574
0.00159402
0.000443008
-0.00228051
0.00157837
0.00156424
-2.44896e-06
5.04965e-07
3.56665e-05
-4.75194e-06
2.30298e-06
-4.24698e-06
-5.53847e-06
4.22714e-06
-5.48988e-05
1.0238e-06
-6.56228e-06
5.25094e-06
-4.38918e-05
2.12693e-05
-0.000264039
2.2151e-05
-6.60429e-05
4.34203e-05
5.32085e-05
-5.34201e-06
-0.000173003
-1.69112e-05
7.01198e-05
-2.22532e-05
0.00142708
0.00327856
-0.00420356
0.00132403
-0.00446236
0.00456541
0.00471368
-0.000111084
-0.00118218
-0.00244417
0.00115804
0.00246831
-0.000710391
0.00272156
-0.00319335
0.000157346
-0.00331191
0.00370328
-0.00371477
-1.52883e-05
2.67694e-05
0.00372489
2.97419e-05
-5.13513e-05
-2.63955e-05
-0.00368552
-2.85188e-06
0.003776
-5.20037e-06
-4.59092e-05
0.00386674
5.10554e-05
-0.000141795
2.30472e-05
0.00398684
-0.000143148
0.00393819
-0.00389178
-2.33646e-05
-0.000190923
0.0041975
-1.97355e-05
0.00385116
-0.000103895
-0.0037499
-9.08306e-05
-0.00371411
-4.09833e-05
-0.00368576
1.38657e-06
-0.00374105
4.00026e-05
-0.00365624
-0.000111199
-0.000187286
0.00440445
-1.96575e-05
0.00369268
-2.88007e-05
-2.12334e-05
-0.00363057
-3.3716e-05
-0.00366213
-1.535e-05
-2.8417e-05
-0.00381554
0.000213392
-6.48512e-06
0.00443011
-1.91757e-05
0.00371494
-2.87502e-05
-0.00377169
8.11453e-05
0.00445559
-6.50257e-06
-1.89851e-05
-6.68693e-06
0.00448067
-1.83895e-05
0.00373679
-2.8344e-05
0.00375845
-2.8348e-05
-2.37642e-05
-0.00376735
-2.4432e-05
-0.00376647
-2.89846e-05
-6.5419e-06
0.00450543
-1.8214e-05
0.00377979
-2.78812e-05
-2.01774e-06
-0.00374035
-2.49743e-05
-0.00373942
-2.90709e-05
-6.53812e-06
0.00452958
-1.76191e-05
0.00380108
-2.78301e-05
-1.55117e-06
-0.00371309
-2.57137e-05
-0.00371223
-2.87411e-05
-6.0973e-06
0.00455315
-1.74701e-05
0.00382227
-2.72897e-05
-1.2752e-06
-0.00368565
-2.61627e-05
-0.00368472
-2.87863e-05
-5.57165e-06
0.0045756
-1.68789e-05
0.00384388
-2.71776e-05
-8.03449e-07
-0.00365802
-2.68303e-05
-0.0036571
-2.84202e-05
-4.12427e-06
0.00459648
-1.67536e-05
0.00386631
-2.65539e-05
7.95902e-06
-0.00363875
-2.72321e-05
-0.00362075
-2.83892e-05
-1.63436e-06
0.00461427
-1.61608e-05
0.00389103
-2.63621e-05
2.35538e-05
-0.0035091
-0.000153197
-0.00353194
-6.52524e-05
3.70798e-06
0.00462662
-1.60491e-05
0.00390256
-7.81542e-06
2.34381e-05
-0.0034991
-3.34364e-05
-0.00347887
-2.96393e-05
1.39211e-05
0.00462815
-1.54529e-05
0.00389383
2.26454e-05
5.01065e-05
-0.00334884
-0.000200365
-0.00335208
-7.66816e-05
0.000193078
0.0044504
-1.533e-05
0.00403115
5.57611e-05
5.72183e-05
-0.003307
-9.90668e-05
-0.00328912
-5.73569e-06
0.000171358
0.00414172
0.000137325
0.00411654
8.59696e-05
9.01217e-05
-0.000154063
-0.00324305
-0.00324975
5.07424e-05
7.69829e-06
2.57438e-05
0.00410827
0.00410826
1.59822e-05
-0.00332915
0.00340861
-0.000178527
-0.00332106
-0.000162154
0.000151884
-0.000159791
-0.00323515
4.99039e-05
-0.00314776
-0.00336142
0.00341716
-8.91764e-05
-0.00015317
-0.00331751
0.00334301
-5.2737e-05
-5.35484e-05
-0.00336817
0.00339321
-5.12021e-05
-5.19835e-05
-0.00341792
0.00344257
-4.96185e-05
-5.04295e-05
-0.00346696
0.00372846
-4.81161e-05
-4.88214e-05
-0.00374219
0.00371495
2.43885e-05
-4.74419e-05
-0.00385895
0.00385285
-4.52516e-05
-0.000117229
-0.00375205
0.00371994
-0.000109686
5.48899e-05
-0.00365385
0.00367641
-4.22929e-05
-7.70589e-05
-0.00369848
0.00372035
-4.1048e-05
-4.17261e-05
-0.00374183
0.00376319
-3.97418e-05
-4.04702e-05
-0.00378413
0.00380492
-3.84099e-05
-3.91578e-05
-0.00382528
0.00384546
-3.70621e-05
-3.7828e-05
-0.00386519
0.00388472
-3.56914e-05
-3.64811e-05
-0.00390377
0.00392258
-3.42586e-05
-3.5101e-05
-0.00391803
0.00402825
2.71008e-05
-1.07817e-05
0.00403602
1.79779e-05
-2.93585e-05
6.60558e-05
0.00407158
-2.63167e-05
0.00410521
0.0040253
-0.00394101
-2.85354e-05
-0.00408305
0.00409255
6.4811e-06
2.82271e-05
0.00392193
-0.00388495
-4.47928e-05
3.5681e-06
0.00386559
-0.0038457
-4.64431e-05
-4.57267e-05
0.00382566
-0.00380513
-4.78215e-05
-4.72117e-05
0.00378447
-0.00376333
-4.90209e-05
-4.84891e-05
0.00374208
-0.00372035
-5.00674e-05
-4.96038e-05
0.00369852
-0.00367631
-5.10089e-05
-5.05828e-05
0.00372874
-0.00370036
-5.17387e-05
-5.14727e-05
0.00373915
-0.00367532
-0.00010482
-5.2038e-05
0.003628
-0.00358105
-6.94048e-06
-4.59328e-05
0.00360204
-0.00360129
-1.61032e-05
-9.02101e-05
0.0034668
-0.00344238
-5.34058e-05
-5.33404e-05
0.00341788
-0.00339301
-5.36182e-05
-5.35718e-05
0.00336806
-0.00334274
-5.37387e-05
-5.37337e-05
0.00331731
-0.00332876
-5.38042e-05
-5.3818e-05
0.00330451
-0.00332729
-5.39059e-05
-5.38881e-05
0.00327892
-0.00320559
-2.25839e-05
-5.4101e-05
-0.00314574
-9.94844e-06
-0.00331916
-0.000161691
0.00406659
3.54817e-05
-3.99225e-05
0.00410615
9.14412e-05
-0.000106378
-0.00313283
4.19106e-05
-0.00309621
0.000137318
-0.00015783
-0.00329865
-0.00320421
-0.00333031
0.00330169
-0.000149908
0.00334264
-0.00334405
-0.000160282
-0.00014982
-0.00328453
0.00331006
-0.000114707
-0.00013601
-0.0033352
0.00336026
-7.77985e-05
-7.8691e-05
-0.00338498
0.00340958
-7.58097e-05
-7.66968e-05
-0.00343386
0.00345807
-7.38209e-05
-7.47098e-05
-0.00348198
0.00350575
-7.18863e-05
-7.2733e-05
-0.00352917
0.00362361
-7.0058e-05
-7.086e-05
-0.00357543
0.00359836
-6.81849e-05
-6.90457e-05
-0.00372049
0.00367721
-6.6404e-05
-6.72404e-05
-0.00366545
0.00368757
-6.4414e-05
-6.52993e-05
-0.00370927
0.00373081
-6.25844e-05
-6.34231e-05
-0.00375194
0.00377294
-6.07389e-05
-6.1603e-05
-0.00379352
0.00381396
-5.88471e-05
-5.97432e-05
-0.00383397
0.00385381
-5.69017e-05
-5.78345e-05
-0.00387319
0.00389239
-5.48898e-05
-5.58683e-05
-0.00391111
0.0039296
-5.27479e-05
-5.382e-05
-0.00394736
0.0039965
-2.20385e-05
-2.85459e-05
-3.73587e-06
-2.25408e-05
0.00409785
-2.79073e-05
0.00409076
-0.00400168
0.00405829
-2.11319e-05
1.28021e-05
0.00404396
-0.00402742
-1.00601e-05
0.0040283
-2.42628e-05
1.94862e-05
8.28683e-06
0.00407838
0.00410216
0.00401032
-0.00396372
-7.51319e-05
1.11224e-05
0.00391176
-0.00389285
-6.37088e-05
-4.8387e-05
0.0038738
-0.00385424
-6.59984e-05
-6.47794e-05
0.00383455
-0.00381437
-6.80022e-05
-6.69002e-05
0.00379407
-0.0037733
-6.97937e-05
-6.87883e-05
0.00375242
-0.0037311
-7.13949e-05
-7.04794e-05
0.00370969
-0.00368787
-7.28225e-05
-7.19916e-05
0.00366602
-0.00364372
-7.40354e-05
-7.33269e-05
0.00362132
-0.00365104
-7.5107e-05
-7.44377e-05
0.00362153
-0.00355249
-7.59803e-05
-7.54393e-05
0.0035664
-0.00350566
-7.68435e-05
-7.62951e-05
0.00348197
-0.00345789
-7.74822e-05
-7.70369e-05
0.00343377
-0.00340928
-7.81057e-05
-7.76928e-05
0.00338472
-0.00335979
-7.8675e-05
-7.82935e-05
0.00333475
-0.00330932
-7.92337e-05
-7.88552e-05
0.00328376
-0.00325781
-7.98633e-05
-7.94435e-05
0.00323175
-0.0031737
-8.06314e-05
-8.01592e-05
0.00312999
-0.0030626
-2.54793e-05
-5.36562e-05
-0.00334066
-0.000161223
2.85036e-05
-0.000101949
-0.00302277
-0.00301856
-1.55369e-05
-0.000174925
-0.00305985
-2.09846e-05
0.00405137
0.00405171
-1.51211e-05
-0.00010457
9.56923e-05
-0.00328977
-0.00012938
-0.00331585
6.50093e-06
-9.80289e-05
-0.00293124
-3.84209e-05
-0.00297364
-0.00328344
0.00407639
-0.00404852
-4.90068e-05
0.00405098
4.42264e-06
3.40107e-05
-9.9061e-06
0.00405427
-6.79842e-06
0.00409252
-0.00331338
0.00337571
-0.000191709
-0.000175515
0.000130217
-0.00327055
0.00336397
1.80637e-05
0.00016914
-0.00355117
-0.000124927
-0.00339784
0.00339632
-0.000158756
-0.000183359
-0.00337722
0.0033471
-0.000119788
-0.000130726
-0.00334653
0.00333653
-0.000104707
-0.000135431
-0.00336107
0.00338547
-0.000102207
-0.000103232
-0.00340953
0.00343348
-9.97579e-05
-0.000100753
-0.00345711
0.00348065
-9.73655e-05
-9.83366e-05
-0.00350389
0.00352703
-9.50321e-05
-9.59702e-05
-0.00354985
0.00357255
-9.27617e-05
-9.36744e-05
-0.00359493
0.00361724
-9.04974e-05
-9.14232e-05
-0.00363917
0.00366102
-8.82498e-05
-8.91727e-05
-0.00368258
0.00370406
-8.58969e-05
-8.68611e-05
-0.00372517
0.00374616
-8.35691e-05
-8.45328e-05
-0.00376675
0.00378722
-8.12029e-05
-8.21972e-05
-0.00380728
0.0038272
-7.87655e-05
-7.98046e-05
-0.00384669
0.00386603
-7.62391e-05
-7.73324e-05
-0.00388493
0.00390364
-7.36051e-05
-7.47647e-05
-0.00392189
0.00393995
-7.08003e-05
-7.2072e-05
-0.00396836
0.00399173
-4.54034e-05
-5.69623e-05
-4.39848e-05
1.38684e-05
-1.37499e-05
0.00409773
-1.33779e-05
-3.45236e-05
0.00409927
0.00409125
0.0040785
0.0040416
-0.00402083
-3.08249e-05
-0.00405203
0.00404544
-8.53009e-06
-3.46974e-05
0.00395849
-0.00395466
-7.89658e-05
-5.12181e-05
0.00392274
-0.0039043
-8.21563e-05
-8.03014e-05
0.00388573
-0.00386667
-8.5057e-05
-8.33473e-05
0.00384749
-0.00382782
-8.7666e-05
-8.60854e-05
0.00380805
-0.00378781
-9.00287e-05
-8.85641e-05
0.00376748
-0.00374671
-9.21618e-05
-9.08094e-05
0.00372587
-0.00370462
-9.40755e-05
-9.28341e-05
0.0036833
-0.00366158
-9.57641e-05
-9.46408e-05
0.00363978
-0.0036176
-9.72801e-05
-9.62363e-05
0.00359537
-0.00357273
-9.86169e-05
-9.76764e-05
0.00355006
-0.00352705
-9.98531e-05
-9.89687e-05
0.00350395
-0.00348049
-0.000100945
-0.000100136
0.00345696
-0.00343308
-0.000101989
-0.000101213
0.00340913
-0.0033848
-0.000103002
-0.00010225
0.00336038
-0.00333557
-0.000104038
-0.000103278
0.00331065
-0.00328534
-0.000105173
-0.000104364
0.00325991
-0.00323407
-0.000106474
-0.000105591
0.00318071
-0.00309813
-0.000108065
-0.000107011
0.00304093
-0.00302429
-5.50568e-05
-7.27361e-05
-2.71528e-05
3.84802e-06
-0.00295034
-0.00298579
-6.56537e-05
0.000122169
-0.00328172
-7.42546e-05
-0.00308363
-2.2293e-05
0.00403875
0.00407539
-3.67464e-05
0.000168407
-0.00342089
3.35582e-05
-0.00296095
0.000752433
-0.00273651
0.00356244
3.22307e-05
-7.46031e-05
-0.00294342
-2.05703e-05
-0.00289753
-0.002205
0.00337426
0.000394981
-0.00167737
-0.000258729
-0.00323553
-0.00322516
0.00338417
1.01232e-05
0.00016037
-1.12681e-05
-0.0033733
0.00336573
-0.000184134
-0.000114057
-0.00336205
0.00333848
-0.000135188
-0.000179675
-0.0033409
0.00335292
-0.000131811
-0.000133148
-0.00334732
0.00337123
-0.00012862
-0.000129828
-0.00339481
0.00341828
-0.000125679
-0.000126811
-0.00344144
0.00346452
-0.00012283
-0.000123914
-0.00348729
0.00350998
-0.000120059
-0.000121107
-0.00353237
0.00355469
-0.000117348
-0.000118365
-0.00357669
0.00359861
-0.000114682
-0.000115679
-0.00362021
0.00364174
-0.000112024
-0.000113023
-0.00366293
0.00368404
-0.000109353
-0.000110366
-0.00370483
0.00372555
-0.000106611
-0.000107657
-0.00374591
0.00376617
-0.000103827
-0.000104899
-0.00378606
0.00380583
-0.000100969
-0.000102085
-0.0038252
0.00384445
-9.80084e-05
-9.91838e-05
-0.00386329
0.00388197
-9.49244e-05
-9.6171e-05
-0.00390023
0.00391832
-9.16946e-05
-9.3026e-05
-0.00393597
0.00395344
-8.82673e-05
-8.97193e-05
-0.00398265
0.00402187
-8.46152e-05
-8.61802e-05
-0.00402828
0.00404122
-6.19545e-05
-5.03946e-05
-0.00407269
0.00408182
-3.14218e-05
-2.70462e-05
1.21888e-05
-3.16021e-06
0.00409024
2.65447e-05
-6.96608e-05
0.00412494
0.00407749
2.76041e-05
1.22734e-05
0.00405786
0.0041157
-7.43504e-06
-1.73315e-05
0.00407904
0.00408334
2.94184e-05
-6.59499e-05
0.00411192
0.00410461
0.0040937
-0.00406401
-3.82207e-05
-0.00417137
0.0040776
2.78198e-05
-0.000114413
0.0040386
-0.00401394
-5.54892e-05
-6.01117e-05
0.00397151
-0.00395433
-9.61476e-05
-9.36393e-05
0.00393699
-0.00391918
-9.99747e-05
-9.76401e-05
0.00390124
-0.00388282
-0.000103469
-0.000101287
0.00386429
-0.0038453
-0.000106658
-0.000104618
0.0038262
-0.00380666
-0.000109568
-0.000107662
0.00378703
-0.00376698
-0.000112211
-0.000110438
0.00374686
-0.00372633
-0.000114601
-0.000112958
0.00370574
-0.00368476
-0.00011675
-0.000115233
0.00366371
-0.00364229
-0.000118698
-0.000117285
0.00362081
-0.00359896
-0.000120466
-0.000119154
0.00357707
-0.00355483
-0.000122097
-0.000120862
0.00353252
-0.00350986
-0.000123608
-0.000122443
0.00348713
-0.00346406
-0.000125063
-0.000123937
0.00344091
-0.00341741
-0.000126506
-0.000125396
0.00339382
-0.00336986
-0.000127992
-0.000126869
0.00334581
-0.00332138
-0.000129596
-0.000128421
0.00329685
-0.00327193
-0.000131387
-0.000130128
0.0032469
-0.00322152
-0.000133438
-0.000132047
0.00316001
-0.00307926
-0.000135807
-0.000134252
0.00306044
-0.00302615
-0.00010889
-8.44713e-05
-6.88523e-05
4.76281e-05
-0.00292219
-0.00298184
-0.000113169
0.000117359
-0.00323067
-1.95171e-05
-0.00303055
0.000290432
-0.00295889
3.43689e-05
-0.00301589
0.00409859
-0.00408894
-4.10728e-05
0.00409703
-6.81037e-05
-1.62891e-05
1.65748e-05
0.00411164
-6.7655e-05
0.00412897
0.000307326
-0.00260082
6.40515e-05
-0.00291396
-0.00147249
-0.00177889
-0.00264311
0.00306794
-2.98488e-05
-4.90615e-05
4.33709e-05
-0.0029165
-9.02488e-05
-0.00294065
-0.00242586
-0.00047598
-0.00313768
-0.0032254
0.00328967
-5.41497e-05
2.91271e-06
-0.00334001
0.00331833
-0.000162451
-0.000164395
-0.00329858
0.00332183
-0.000158444
-0.000159925
-0.00334486
0.00336783
-0.000154785
-0.000156174
-0.0033906
0.0034133
-0.000151319
-0.000152597
-0.00343573
0.00345809
-0.000148036
-0.00014924
-0.00348017
0.00350219
-0.000144844
-0.000145999
-0.00352392
0.00354559
-0.000141728
-0.000142844
-0.00356698
0.0035883
-0.000138668
-0.000139754
-0.00360933
0.00363029
-0.000135639
-0.00013671
-0.00365095
0.00367154
-0.00013261
-0.000133682
-0.00369181
0.00371201
-0.00012955
-0.000130641
-0.0037319
0.0037517
-0.000126418
-0.000127545
-0.00377118
0.00379056
-0.000123206
-0.000124376
-0.00380959
0.00382851
-0.000119886
-0.000121115
-0.00384706
0.00386548
-0.000116431
-0.000117735
-0.00388352
0.00390141
-0.000112818
-0.000114209
-0.0039189
0.00393623
-0.000109025
-0.000110517
-0.00395315
0.0039699
-0.000105016
-0.000106633
-0.00398623
0.00400236
-0.000100751
-0.000102512
-0.0040501
0.00405182
-6.36687e-05
-9.81338e-05
-6.41684e-05
3.89346e-07
-4.24125e-05
0.00413227
4.00131e-05
-4.35592e-05
0.00412848
0.00411789
-1.16367e-05
-4.04304e-06
0.00407354
0.00406165
-1.98412e-05
2.31266e-05
0.00407576
0.00405946
0.00414431
0.00410961
-0.00408308
-6.47482e-05
-0.00407416
0.00412655
-2.45752e-05
-7.89643e-05
0.00405576
-0.0040034
-0.00010785
-8.74293e-05
0.0039874
-0.00397093
-0.000112611
-0.000109646
0.00395434
-0.00393729
-0.000117026
-0.000114234
0.00392011
-0.00390249
-0.000121095
-0.000118461
0.00388475
-0.00386657
-0.000124836
-0.000122358
0.00384829
-0.00382959
-0.000128265
-0.00012594
0.00381081
-0.00379163
-0.000131395
-0.000129221
0.00377237
-0.00375273
-0.000134243
-0.000132215
0.00373302
-0.00371294
-0.000136831
-0.00013494
0.0036928
-0.0036723
-0.000139196
-0.000137425
0.00365175
-0.00363085
-0.000141368
-0.000139706
0.00360989
-0.0035886
-0.000143389
-0.000141814
0.00356726
-0.00354557
-0.000145294
-0.000143791
0.00352382
-0.00350174
-0.000147144
-0.000145682
0.0034796
-0.00345711
-0.00014899
-0.000147544
0.00343455
-0.00341165
-0.000150893
-0.000149431
0.00338866
-0.00336533
-0.000152922
-0.000151409
0.00334191
-0.00331816
-0.000155139
-0.000153547
0.00329431
-0.00327015
-0.000157599
-0.000155898
0.00324591
-0.00322138
-0.00016033
-0.000158497
0.00314441
-0.00308998
-0.000163324
-0.00016144
0.00303858
-0.00299381
-0.000135016
-0.00016457
-6.07535e-05
6.40187e-05
-0.00294392
-0.00295733
-9.72398e-05
9.16062e-05
-0.00303185
5.06349e-06
-0.00300125
-3.90611e-05
0.00409253
0.00412618
-6.72767e-05
0.000185189
-0.00283676
-0.000286816
-0.00346618
1.61189e-05
-0.00290376
3.51679e-05
-0.002987
6.47584e-05
-0.00293535
-0.00345212
-0.000752624
0.000251203
-0.000506739
-0.00319659
-0.000151003
-0.00306398
4.40976e-05
-0.00289658
-9.23579e-05
2.3766e-05
-0.00287532
-8.15231e-05
-0.00296816
-0.00304101
-0.00294706
0.00310126
-0.000184045
0.0030771
-0.00335055
-0.000479174
-0.000345948
-0.00321919
0.00328742
-0.000122376
-0.000115018
-0.00330957
0.00333173
-0.000184614
-0.000186546
-0.00335372
0.00337564
-0.000180367
-0.000181915
-0.00339736
0.00341904
-0.000176464
-0.00017789
-0.00344051
0.00346192
-0.000172734
-0.000174064
-0.00348309
0.00350421
-0.000169151
-0.000170412
-0.00352508
0.00354589
-0.000165655
-0.000166867
-0.00356644
0.00358694
-0.000162228
-0.000163401
-0.00360718
0.00362736
-0.000158847
-0.000159994
-0.00364727
0.00366712
-0.000155485
-0.000156621
-0.00368669
0.00370619
-0.000152111
-0.000153251
-0.0037254
0.00374454
-0.000148689
-0.000149853
-0.00376339
0.00378215
-0.000145184
-0.00014639
-0.00380061
0.00381897
-0.000141571
-0.000142833
-0.00383701
0.00385495
-0.00013782
-0.000139154
-0.00387254
0.00389001
-0.000133903
-0.000135325
-0.00390712
0.0039241
-0.000129794
-0.00013132
-0.00394069
0.00395714
-0.000125472
-0.000127114
-0.00397319
0.00398909
-0.00012091
-0.000122686
-0.00400458
0.00401991
-0.000116082
-0.000118008
-0.00403483
0.00408214
-0.00011098
-0.000113052
-0.00409855
0.00412141
-6.39361e-05
-8.05728e-05
-0.00408016
0.00410989
-6.87881e-05
-2.68565e-05
-2.42318e-06
5.65875e-06
0.00412525
7.25948e-05
-0.000107137
0.00414443
0.00416271
9.70736e-06
2.64233e-05
0.00409614
0.00413325
-1.13521e-05
-3.90935e-06
0.0040888
0.00407672
1.90924e-05
-3.41485e-05
0.00409081
0.00407464
1.92878e-05
-4.06442e-05
0.00413299
0.00412945
6.21752e-05
-7.03082e-05
0.00413431
0.0041505
0.00415528
-0.00409508
-8.47794e-05
-0.00414853
0.00413855
-6.03343e-05
-6.05226e-05
0.00409088
-0.00406801
-8.76118e-05
-8.31638e-05
0.00403611
-0.00402108
-0.000122873
-0.000119335
0.00400591
-0.0039903
-0.000128219
-0.000124821
0.00397457
-0.0039584
-0.000133196
-0.000129966
0.00394211
-0.0039254
-0.000137809
-0.000134749
0.00390858
-0.00389134
-0.00014207
-0.000139179
0.00387402
-0.00385629
-0.000145988
-0.000143267
0.00383849
-0.00382031
-0.000149578
-0.000147025
0.00380205
-0.00378344
-0.000152861
-0.000150468
0.00376476
-0.00374572
-0.000155864
-0.00015362
0.00372664
-0.00370721
-0.000158623
-0.000156513
0.00368773
-0.00366792
-0.000161177
-0.000159184
0.00364806
-0.00362788
-0.000163569
-0.000161673
0.00360765
-0.0035871
-0.000165846
-0.000164024
0.00356649
-0.00354557
-0.000168065
-0.000166289
0.00352459
-0.00350329
-0.000170285
-0.000168527
0.00348193
-0.00346025
-0.000172567
-0.000170795
0.00343851
-0.00341645
-0.000174976
-0.000173157
0.00339432
-0.00337189
-0.000177568
-0.000175676
0.00334939
-0.0033266
-0.000180386
-0.000178401
0.00330374
-0.0032806
-0.000183466
-0.000181365
0.00325743
-0.00323399
-0.000186773
-0.000184605
0.00321049
-0.00315507
-0.000190435
-0.000188066
0.00310179
-0.00302885
-0.000154472
-0.000150515
-0.000125746
7.64711e-05
-0.00291888
-0.00300744
-0.000147155
6.69364e-05
-0.0029136
-0.00336088
-0.000496407
6.49987e-05
-0.00288564
0.00417617
-0.00417525
-6.97056e-05
0.00418469
-0.000115652
-4.75906e-05
3.83252e-05
0.00414357
-4.88014e-05
0.00413976
5.74283e-06
-0.00297182
3.57283e-05
-0.00295797
-1.49065e-05
-0.00303985
6.52235e-05
-0.00295647
9.46599e-05
-0.00296748
0.000124039
-0.00292289
-0.000112553
0.000115632
-0.00292196
-0.000167257
-0.00295273
-0.00296833
-0.00336218
0.00323306
-0.000350053
-0.000432989
0.000510581
-0.00343847
0.00347449
-0.00358389
-0.000323592
-0.000384095
-0.00313575
0.00321026
-0.000258548
-0.000248642
-0.00329466
0.0033524
-0.000180112
-0.000199427
-0.00337332
0.00339421
-0.000205497
-0.00020747
-0.00341488
0.00343548
-0.000200967
-0.000202592
-0.00345585
0.00347617
-0.000196779
-0.000198261
-0.00349627
0.00351631
-0.00019278
-0.000194164
-0.00353613
0.0035559
-0.00018892
-0.000190233
-0.00357545
0.00359494
-0.000185146
-0.000186409
-0.0036142
0.0036334
-0.000181435
-0.00018266
-0.00365237
0.00367129
-0.000177761
-0.000178962
-0.00368995
0.00370856
-0.000174095
-0.000175287
-0.00372691
0.00374521
-0.000170401
-0.000171604
-0.00376323
0.00378119
-0.000166646
-0.000167877
-0.00379887
0.00381647
-0.000162792
-0.000164071
-0.00383379
0.00385103
-0.000158805
-0.000160151
-0.00386796
0.00388479
-0.000154654
-0.000156084
-0.00390131
0.00391771
-0.000150308
-0.00015184
-0.00393378
0.00394972
-0.000145739
-0.000147389
-0.00396532
0.00398077
-0.000140925
-0.000142706
-0.00399586
0.00401079
-0.000135845
-0.000137772
-0.00402535
0.00403975
-0.00013048
-0.000132566
-0.00405377
0.00406759
-0.000124807
-0.000127068
-0.00410829
0.00413613
-9.17731e-05
-0.000121272
-6.59819e-05
-4.85003e-05
8.70584e-06
0.00416504
4.83965e-05
-9.27333e-05
0.00418877
0.0041626
-4.01012e-05
2.56776e-05
0.00411056
0.00410186
-1.10402e-05
-3.76412e-06
0.0041036
0.00409136
1.84994e-05
-3.31367e-05
0.00410545
0.00408938
-3.18794e-07
-2.65388e-05
0.00415985
0.00409599
0.00416229
0.00416581
-0.00415555
-9.50371e-05
-0.00416901
0.00416155
-5.28841e-05
-6.37157e-05
0.00411203
-0.00406888
-0.00013076
-0.000126692
0.0040552
-0.00404109
-0.000136987
-0.000133014
0.00402685
-0.0040122
-0.000142872
-0.000139058
0.00399742
-0.00398224
-0.000148377
-0.000144737
0.00396695
-0.00395126
-0.0001535
-0.00015004
0.00393547
-0.0039193
-0.000158244
-0.000154969
0.00390303
-0.0038864
-0.000162619
-0.000159529
0.0038697
-0.00385263
-0.00016664
-0.000163731
0.00383551
-0.00381804
-0.00017033
-0.000167595
0.00380051
-0.00378265
-0.000173721
-0.000171147
0.00376474
-0.00374652
-0.000176851
-0.000174422
0.00372824
-0.00370966
-0.000179762
-0.00017746
0.00369102
-0.00367209
-0.000182503
-0.000180305
0.00365311
-0.00363383
-0.000185125
-0.000183007
0.0036145
-0.00359487
-0.000187687
-0.00018562
0.0035752
-0.00355523
-0.000190249
-0.000188203
0.00353521
-0.00351491
-0.000192872
-0.000190817
0.00349454
-0.0034739
-0.000195617
-0.000193523
0.0034532
-0.00343223
-0.000198538
-0.00019638
0.00341119
-0.0033899
-0.000201676
-0.000199433
0.00336855
-0.00334695
-0.000205063
-0.000202718
0.0033253
-0.00330337
-0.000208698
-0.000206263
0.00328136
-0.00325912
-0.000212676
-0.000210072
0.00319542
-0.00313307
-0.000216821
-0.000214219
0.00309574
-0.00308088
-0.000182115
-0.000184486
-0.000306892
0.000120711
-0.0028778
-0.0029929
-0.000134793
0.000140476
-0.00295842
-0.00301515
-0.000200526
2.32645e-05
-0.00287186
-6.02147e-05
0.00415217
0.00420812
-9.53655e-05
0.000261093
-0.00353116
-0.000313817
6.31466e-06
-0.00294241
0.000330251
-0.00350763
2.15155e-05
-0.00292206
3.59617e-05
-0.00292871
4.28972e-05
-0.00296204
6.5697e-05
-0.00292751
9.56027e-05
-0.00293904
0.000125367
-0.00293263
0.000123844
-0.00290533
-0.000161796
0.000139091
-0.00293571
-0.000178846
-0.0029981
-0.00293876
-0.00362768
0.00350528
-0.000201188
-0.000397488
-0.00345211
0.000318436
0.00370201
-0.00358512
-0.00051437
-0.000239495
-0.00342956
0.00337702
-0.000297512
-0.000308381
-0.00336432
0.00334042
-0.000234648
-0.000235936
-0.00337309
0.00342332
-0.000230345
-0.000232097
-0.00344279
0.00346223
-0.000224942
-0.000226938
-0.00348147
0.00350063
-0.000220125
-0.000221831
-0.00351957
0.00353843
-0.000215646
-0.000217195
-0.00355709
0.00357569
-0.000211379
-0.000212819
-0.00359407
0.00361241
-0.000207256
-0.00020862
-0.00363054
0.00364861
-0.000203225
-0.000204535
-0.00366648
0.0036843
-0.000199253
-0.000200525
-0.00370189