/*--------------------------------*- C++ -*----------------------------------*\
  =========                 |
  \\      /  F ield         | OpenFOAM: The Open Source CFD Toolbox
   \\    /   O peration     | Website:  https://openfoam.org
    \\  /    A nd           | Version:  10
     \\/     M anipulation  |
\*---------------------------------------------------------------------------*/
FoamFile
{
    format      ascii;
    class       volVectorField;
    location    "39";
    object      U;
}
// * * * * * * * * * * * * * * * * * * * * * * * * * * * * * * * * * * * * * //

dimensions      [0 1 -1 0 0 0 0];

internalField   nonuniform List<vector> 
6397
(
(1.04401 -0.18882 1.10477e-20)
(1.05181 -0.200175 -5.18538e-20)
(1.04519 -0.26985 0)
(1.07561 -0.302135 1.11409e-22)
(1.09098 -0.365039 2.01041e-23)
(1.06329 -0.336827 2.91403e-22)
(0.791533 -0.522509 -4.20675e-20)
(0.470705 -0.743695 1.04958e-19)
(-0.0698886 -0.295436 1.97729e-20)
(-0.0960286 -0.269808 -6.41777e-21)
(0.503746 0.680754 6.83478e-20)
(0.816714 0.697919 -7.5194e-21)
(0.465492 0.027717 4.81268e-22)
(0.531564 0.0156419 2.58283e-22)
(0.342812 0.0267743 2.65828e-22)
(0.0827685 -0.0388222 -1.36235e-19)
(0.268434 -0.0736591 -7.41092e-20)
(-0.0185108 -0.0838569 6.29611e-20)
(0.326916 -0.0273969 5.50896e-20)
(0.444945 -0.210806 -1.67736e-19)
(0.544816 -0.0522465 -8.70437e-20)
(0.0741912 -0.0746584 -8.07087e-20)
(-0.125473 -0.101025 3.64027e-21)
(0.342274 -0.0858988 -5.68802e-20)
(0.670698 0.0144226 0)
(0.670832 0.0129256 -3.2612e-22)
(0.804141 0.0158205 -1.73447e-22)
(0.939137 -0.104275 1.25429e-20)
(0.928162 0.0412904 -2.90963e-21)
(0.930574 -0.22839 5.33333e-21)
(0.911795 -0.109946 -7.64406e-21)
(1.1427 -0.323111 8.13746e-22)
(1.11374 -0.294229 5.02378e-22)
(1.1041 -0.33164 -1.08359e-21)
(1.2095 -0.294498 3.0041e-22)
(1.17889 -0.275393 0)
(1.18147 -0.312035 -1.53919e-22)
(1.15002 -0.28642 -6.20272e-22)
(1.19232 -0.241144 1.57399e-21)
(1.22048 -0.240945 -1.04076e-21)
(1.2205 -0.273338 0)
(1.1909 -0.259008 0)
(0.952296 -0.323128 -2.06562e-21)
(1.01165 -0.370986 -5.8708e-22)
(0.984199 -0.335868 5.10848e-22)
(1.03461 -0.304625 3.04441e-22)
(1.05005 -0.368545 -3.82532e-22)
(1.02304 -0.33838 1.00022e-21)
(1.28796 -0.0962516 1.51595e-21)
(1.27307 -0.0848313 -2.98287e-22)
(1.27424 -0.0498054 3.92916e-21)
(1.24382 -0.0477236 -1.32587e-21)
(1.25484 -0.0545641 -8.93107e-21)
(0.985366 0.181798 -7.89998e-21)
(1.02688 0.210083 5.20061e-21)
(1.03229 0.0516991 4.68552e-21)
(1.0378 0.064428 4.73293e-21)
(1.14867 -0.0128063 -2.67095e-21)
(1.01451 0.51142 -3.30134e-21)
(0.989833 0.515317 3.33777e-21)
(1.03439 0.503495 2.77033e-21)
(1.04662 0.508327 -2.72998e-21)
(1.05216 0.524468 -3.17754e-21)
(1.05271 0.541494 3.12312e-21)
(1.04831 0.545197 0)
(1.03584 0.525333 5.39175e-21)
(1.01166 0.469102 -5.67377e-21)
(0.975883 0.364556 0)
(1.01057 0.537677 -3.99635e-21)
(0.96435 0.493377 3.12874e-23)
(0.991845 0.520279 3.78415e-21)
(1.02746 0.528727 0)
(1.03971 0.515999 0)
(1.0443 0.51521 0)
(1.04091 0.525945 -1.10363e-23)
(1.03091 0.536483 1.59997e-24)
(1.01477 0.531151 0)
(0.990764 0.497687 -5.11107e-25)
(0.957385 0.42629 0)
(0.915121 0.307847 0)
(0.976039 0.459067 -6.05978e-21)
(0.94354 0.430395 3.50128e-22)
(0.93466 0.202206 0)
(0.871559 0.14103 0)
(0.964941 0.353542 -7.09062e-22)
(0.929183 0.32568 0)
(0.894408 -0.00680036 0)
(0.834192 -0.0613631 0)
(0.960387 0.212498 1.36859e-20)
(0.924393 0.189797 -1.38763e-21)
(0.862679 -0.233806 0)
(0.813158 -0.268394 0)
(0.964495 0.0554681 -1.06128e-20)
(0.976713 -0.102548 -7.44345e-21)
(0.850099 -0.428057 0)
(0.811379 -0.437121 6.83402e-22)
(1.0056 0.233383 0)
(1.02324 -0.101353 1.50289e-20)
(1.00992 0.0673389 1.02086e-21)
(1.01252 0.484187 -4.9546e-21)
(1.0045 0.380374 0)
(1.03374 0.552332 -1.6096e-21)
(1.02226 0.540631 4.99542e-21)
(1.0466 0.518763 1.37257e-21)
(1.04277 0.537372 1.32392e-21)
(1.0302 0.515771 1.10549e-23)
(1.04244 0.511615 -1.43895e-21)
(0.98497 0.505815 -2.54382e-22)
(1.01065 0.519271 -1.68981e-21)
(0.914517 0.382052 -1.87555e-21)
(0.95328 0.463265 3.66816e-21)
(0.826267 0.0900695 0)
(0.870336 0.257857 0)
(0.780408 -0.286904 0)
(0.793916 -0.102345 0)
(0.789018 -0.427852 -1.18702e-21)
(0.970603 0.0540074 -9.76099e-21)
(0.903925 -0.405385 -3.92631e-21)
(0.93299 -0.183483 9.62351e-21)
(1.046 0.413813 8.46646e-21)
(1.01199 0.263249 -8.27551e-21)
(1.08235 0.539983 3.85042e-23)
(1.07255 0.501385 1.89336e-22)
(1.07412 0.534751 0)
(1.08253 0.546291 0)
(1.04914 0.4922 2.4798e-21)
(1.06326 0.511702 3.22095e-22)
(1.00466 0.486042 4.65924e-22)
(1.02998 0.482302 -2.46515e-21)
(0.943913 0.463121 2.04027e-21)
(0.974535 0.484942 -1.92467e-22)
(0.901975 0.298027 -4.83053e-21)
(0.918435 0.400051 -1.86993e-21)
(0.89931 0.0263039 0)
(0.894956 0.16594 5.58913e-21)
(0.997678 -0.241483 -6.35244e-21)
(0.957932 -0.232775 -2.28088e-22)
(1.04189 -0.24613 3.89992e-21)
(0.821034 -0.507973 -1.41967e-21)
(0.831442 -0.540015 3.76623e-22)
(0.969068 -0.373318 -7.12688e-23)
(0.893166 -0.561965 3.93224e-21)
(0.942114 -0.551082 0)
(0.870088 -0.527925 8.60679e-22)
(0.823314 -0.461464 -1.12719e-21)
(0.87941 -0.473339 1.1207e-21)
(0.910765 -0.216643 2.26565e-21)
(1.07501 -0.109367 -8.14423e-21)
(1.0935 -0.2616 -3.73416e-21)
(0.933393 -0.304474 2.0284e-21)
(0.855969 -0.558329 1.64652e-22)
(1.05684 0.238133 0)
(1.06223 0.0645513 -2.02592e-21)
(1.05589 0.490332 1.71542e-22)
(1.05421 0.386363 0)
(1.05871 0.55452 -7.25051e-22)
(1.05598 0.545896 1.29044e-21)
(1.05432 0.512593 0)
(1.05803 0.536421 1.44746e-22)
(1.02343 0.495808 0)
(1.0425 0.498946 7.7995e-23)
(0.963225 0.473588 0)
(0.996236 0.492906 1.62452e-22)
(0.882952 0.33958 -4.63005e-23)
(0.925212 0.425873 1.77642e-22)
(0.797665 0.0527381 1.28143e-22)
(0.838568 0.214676 -2.30786e-22)
(0.762815 -0.286663 -3.38548e-23)
(0.769714 -0.125244 -6.37206e-23)
(0.78076 -0.40251 4.96014e-22)
(1.05877 0.112183 1.59485e-22)
(1.01177 -0.133138 1.5455e-22)
(1.123 0.451864 -7.61339e-24)
(1.09789 0.315557 0)
(1.12869 0.54301 0)
(1.13315 0.521155 -9.13918e-23)
(1.09488 0.518751 0)
(1.11471 0.53774 0)
(1.05297 0.469165 -1.89722e-24)
(1.07446 0.493412 -3.26766e-22)
(0.997346 0.453425 -2.93396e-22)
(1.02841 0.455515 0)
(0.929096 0.428026 -1.44329e-21)
(0.963534 0.450079 0)
(0.882252 0.277446 1.29754e-22)
(0.900997 0.371206 1.44585e-21)
(0.877533 0.0180903 3.44717e-24)
(0.87419 0.154245 5.49136e-22)
(0.891394 -0.108552 -2.29797e-21)
(1.01375 -0.346979 1.61984e-21)
(0.978289 -0.334232 0)
(1.09929 -0.369906 1.53941e-21)
(1.05345 -0.357789 -1.35313e-21)
(0.933116 -0.636283 0)
(0.901562 -0.631523 0)
(0.87085 -0.574862 -4.54073e-22)
(0.835759 -0.4085 -1.44389e-22)
(0.895146 -0.416074 0)
(0.933139 -0.473445 -1.30571e-22)
(0.921616 -0.522061 4.10314e-23)
(0.97584 -0.623582 0)
(0.939052 -0.641314 0)
(0.963236 -0.639678 -1.44923e-21)
(0.974336 -0.393807 2.32266e-21)
(0.95797 -0.372585 0)
(1.10314 -0.438251 -2.87336e-21)
(1.1442 -0.373616 -2.3395e-23)
(1.14323 -0.434373 6.28049e-21)
(0.923102 -0.281877 0)
(0.897978 -0.197468 -1.31524e-21)
(0.881464 -0.610393 0)
(1.13346 -0.117774 1.04163e-21)
(1.14574 -0.265136 0)
(1.11424 0.234436 2.87478e-23)
(1.12362 0.0580638 5.59234e-23)
(1.10084 0.491994 -3.47392e-22)
(1.10759 0.38678 0)
(1.0855 0.549881 2.96703e-24)
(1.09347 0.543703 -2.79833e-22)
(1.06286 0.499639 -1.75728e-24)
(1.07483 0.528575 -1.75658e-22)
(1.01899 0.46897 1.96081e-22)
(1.04371 0.479712 0)
(0.947071 0.434441 0)
(0.985479 0.459358 -1.99843e-22)
(0.859458 0.294622 -9.05422e-23)
(0.903965 0.382715 3.93947e-23)
(0.778541 0.0216111 0)
(0.815616 0.172778 -1.30182e-23)
(0.757563 -0.274364 -6.19487e-23)
(0.756649 -0.13669 1.60963e-22)
(0.784936 -0.368138 1.97675e-22)
(1.04567 -0.331798 -1.12343e-21)
(1.00232 -0.523151 3.39154e-24)
(1.15049 0.155328 -4.90288e-22)
(1.10023 -0.0851408 1.82582e-21)
(1.19529 0.462799 2.06953e-22)
(1.18292 0.343934 -1.01788e-21)
(1.17069 0.526869 0)
(1.18905 0.516586 9.22868e-22)
(1.11588 0.494218 0)
(1.14487 0.515088 0)
(1.06086 0.444355 3.24045e-24)
(1.08744 0.469301 0)
(0.999484 0.419761 0)
(1.03262 0.426832 0)
(0.923239 0.396561 0)
(0.96125 0.415136 0)
(0.869134 0.262724 6.83764e-22)
(0.890768 0.34677 0)
(0.8647 0.0235905 -3.41401e-24)
(0.86084 0.149659 -6.9857e-22)
(0.877071 -0.0954939 1.48612e-21)
(1.02832 -0.423319 1.35074e-21)
(0.997421 -0.409567 -2.17513e-21)
(1.0635 -0.432497 2.947e-21)
(0.946066 -0.425826 4.38933e-22)
(0.924201 -0.628713 0)
(0.916464 -0.566109 5.49845e-22)
(0.95899 -0.606721 1.52381e-21)
(0.946523 -0.61021 0)
(0.975338 -0.488728 1.1986e-22)
(0.962994 -0.525224 4.35029e-22)
(1.10214 -0.469472 1.17375e-22)
(1.13489 -0.4587 7.83916e-23)
(0.994314 -0.441345 1.85637e-21)
(0.982152 -0.420952 1.44386e-21)
(0.893915 -0.176236 8.62397e-22)
(0.920031 -0.255908 0)
(1.19161 -0.367892 8.42421e-22)
(1.18323 -0.420801 6.59004e-22)
(0.985711 -0.451947 -4.40252e-22)
(1.02153 -0.486638 -8.41491e-23)
(1.00787 -0.521672 -8.2081e-22)
(0.949401 -0.34722 3.6232e-22)
(0.91753 -0.603056 0)
(1.1928 -0.126351 8.4933e-22)
(1.19789 -0.269398 -3.3576e-21)
(1.17241 0.225212 -9.21731e-22)
(1.18431 0.0471497 2.35547e-21)
(1.14593 0.481538 0)
(1.16011 0.377131 0)
(1.11219 0.536538 -5.68395e-25)
(1.12968 0.53191 -2.01629e-28)
(1.07277 0.481297 1.74157e-24)
(1.09314 0.512979 0)
(1.01724 0.437947 0)
(1.04751 0.455296 -5.07328e-29)
(0.936274 0.391773 0)
(0.979033 0.421198 0)
(0.843081 0.249926 0)
(0.889308 0.336764 0)
(0.767644 -0.00451578 0)
(0.799963 0.132771 0)
(0.762389 -0.254494 0)
(0.752648 -0.141934 0)
(0.855312 -0.351841 -7.02128e-23)
(0.799275 -0.324381 0)
(0.956776 -0.383931 0)
(0.912212 -0.362653 2.66548e-23)
(1.03383 -0.446686 0)
(0.994691 -0.415452 7.34652e-24)
(1.018 -0.600224 -4.64877e-22)
(0.970344 -0.595318 -1.88559e-22)
(0.988742 -0.626458 4.66886e-22)
(1.12825 -0.278258 4.3601e-22)
(1.06581 -0.482391 -3.39037e-24)
(1.2416 0.195435 -2.95406e-22)
(1.19189 -0.0328044 -5.95549e-22)
(1.26101 0.459897 -1.05147e-24)
(1.26444 0.362117 0)
(1.20729 0.500205 0)
(1.23901 0.499016 0)
(1.13461 0.4623 0)
(1.17148 0.483751 0)
(1.06806 0.415632 -5.03127e-25)
(1.0997 0.439149 0)
(1.00303 0.384394 0)
(1.03722 0.39584 0)
(0.923669 0.359928 0)
(0.964068 0.376592 0)
(0.864263 0.245983 1.94297e-22)
(0.888246 0.318792 -2.02075e-22)
(0.856632 0.0318458 2.51427e-22)
(0.853354 0.144894 -2.33172e-23)
(0.871394 -0.0798497 -1.25066e-21)
(1.03879 -0.467395 -1.60943e-21)
(1.01294 -0.456152 -1.98837e-21)
(1.0691 -0.471275 0)
(0.947642 -0.568306 0)
(0.950566 -0.547455 1.29879e-22)
(1.06358 -0.515988 8.60269e-22)
(1.07999 -0.469911 0)
(0.943485 -0.603208 0)
(0.953183 -0.558071 0)
(1.16595 -0.440489 0)
(0.975865 -0.395533 -2.43229e-21)
(0.894518 -0.154351 3.529e-22)
(0.922399 -0.230094 0)
(0.944159 -0.584268 7.2085e-23)
(0.990981 -0.551424 -5.51974e-22)
(0.91906 -0.502989 -4.73242e-23)
(0.920982 -0.541837 -3.51757e-23)
(1.04291 -0.55483 9.12271e-22)
(1.10913 -0.542497 3.9188e-22)
(1.12801 -0.49396 0)
(0.948621 -0.317734 2.0515e-21)
(0.947534 -0.584383 0)
(1.2365 -0.356943 -2.62806e-21)
(1.19289 -0.417023 -7.1452e-22)
(1.21889 -0.402609 -5.05576e-21)
(1.24899 -0.132218 -1.31541e-21)
(1.24858 -0.267662 2.84221e-21)
(1.22655 0.212956 0)
(1.2421 0.0365131 8.02282e-22)
(1.18609 0.463932 2.74397e-28)
(1.20824 0.362802 -2.85328e-28)
(1.1353 0.514023 -7.02528e-25)
(1.16179 0.511122 0)
(1.08068 0.455592 0)
(1.10833 0.489128 0)
(1.01584 0.402643 1.17389e-25)
(1.05033 0.425545 5.07318e-29)
(0.929836 0.346559 6.99917e-31)
(0.975098 0.380044 -7.26681e-31)
(0.834803 0.20634 0)
(0.881419 0.290225 0)
(0.766108 -0.0250866 -2.34679e-25)
(0.793859 0.0970585 0)
(0.778259 -0.22674 5.04495e-25)
(0.758685 -0.140186 0)
(0.877275 -0.29734 2.15853e-24)
(0.822676 -0.275671 0)
(0.96423 -0.345725 -1.02183e-22)
(0.925891 -0.316739 -1.06006e-23)
(1.04369 -0.401342 -2.25276e-24)
(1.00128 -0.377188 9.4378e-23)
(1.13842 -0.442058 4.76245e-22)
(1.09035 -0.420486 2.19609e-24)
(0.968655 -0.573221 8.10254e-24)
(0.893686 -0.464392 8.74701e-23)
(0.934785 -0.521457 -1.29813e-23)
(1.05987 -0.552966 6.62482e-22)
(1.00714 -0.595214 -3.36271e-22)
(1.2117 -0.212098 -8.02658e-22)
(1.12978 -0.422122 -2.45965e-22)
(1.32598 0.227062 0)
(1.28304 0.0229255 9.92369e-22)
(1.31399 0.441088 -9.67854e-24)
(1.334 0.36665 -3.59148e-28)
(1.23386 0.461929 0)
(1.27709 0.466297 0)
(1.14869 0.424671 -9.52342e-25)
(1.19038 0.444602 0)
(1.07526 0.383866 -8.85417e-25)
(1.10991 0.404663 0)
(1.00893 0.349101 0)
(1.04275 0.363871 0)
(0.929927 0.322863 0)
(0.970339 0.338181 0)
(0.865673 0.227539 0)
(0.892453 0.288251 0)
(0.855599 0.0381794 0)
(0.852719 0.139665 1.79426e-23)
(0.869955 -0.0637841 -2.65952e-22)
(0.86747 -0.462174 7.044e-23)
(0.838991 -0.404756 0)
(1.17844 -0.521178 1.3458e-22)
(1.19075 -0.463148 -6.98981e-22)
(0.976034 -0.366723 0)
(0.955002 -0.288361 -1.21298e-22)
(1.00136 -0.426269 -1.22091e-21)
(1.00384 -0.400301 8.22257e-22)
(1.01211 -0.465727 9.48028e-22)
(1.00384 -0.44787 -1.94175e-22)
(1.04467 -0.485582 4.58216e-23)
(1.02535 -0.478417 -8.36041e-22)
(1.09291 -0.478006 -1.84128e-21)
(1.0677 -0.48523 2.52916e-22)
(1.14275 -0.439963 0)
(1.11842 -0.462256 1.62792e-21)
(1.16403 -0.412637 1.18512e-21)
(0.951448 -0.590857 -7.26732e-23)
(0.975569 -0.573145 -2.84336e-28)
(0.923231 -0.576919 3.53119e-23)
(1.01533 -0.585776 0)
(0.874014 -0.520208 0)
(1.08093 -0.58257 0)
(0.770826 -0.332836 -8.81469e-23)
(0.79889 -0.404478 -3.6647e-24)
(1.15366 -0.571932 -1.17729e-21)
(1.24864 -0.479072 3.42517e-22)
(1.23395 -0.541291 1.69428e-21)
(1.21447 -0.386896 1.2488e-21)
(1.18189 -0.380274 -8.77649e-22)
(0.96383 -0.586124 -3.18092e-28)
(1.2738 -0.338259 2.33818e-23)
(1.24824 -0.377023 -8.5233e-22)
(1.29854 -0.134211 -5.59671e-22)
(1.29289 -0.259478 0)
(1.27262 0.195624 2.98e-28)
(1.29104 0.0252129 6.5544e-22)
(1.21925 0.438334 0)
(1.24782 0.340672 0)
(1.15437 0.483735 -1.67201e-24)
(1.18785 0.482383 0)
(1.08786 0.424147 0)
(1.12086 0.458347 0)
(1.01762 0.364641 -8.61068e-25)
(1.05421 0.391714 0)
(0.929667 0.299949 -1.05899e-24)
(0.976007 0.337181 0)
(0.834188 0.162961 0)
(0.880708 0.242884 0)
(0.774736 -0.0393088 -8.52524e-25)
(0.796097 0.0641538 0)
(0.806438 -0.191652 7.44684e-25)
(0.77747 -0.129491 0)
(0.899808 -0.250919 -1.29977e-24)
(0.852695 -0.226874 6.63298e-29)
(0.971548 -0.310471 -4.64531e-25)
(0.93817 -0.278835 0)
(1.05107 -0.355672 4.33512e-23)
(1.00898 -0.337063 -9.82254e-23)
(1.14085 -0.391229 -1.77918e-22)
(1.09484 -0.373262 1.31118e-22)
(1.24739 -0.415301 4.16362e-22)
(1.19176 -0.405588 -2.82605e-22)
(0.854125 -0.417274 -4.9093e-23)
(0.741842 -0.271115 9.17372e-23)
(0.798603 -0.347843 0)
(0.961082 -0.527624 2.24973e-23)
(0.906445 -0.480008 -7.44882e-23)
(1.10371 -0.481965 -4.42951e-23)
(1.02326 -0.539917 2.73855e-25)
(1.29607 -0.134579 2.17064e-24)
(1.20011 -0.339225 -3.79006e-23)
(1.39455 0.246932 0)
(1.36552 0.0767057 0)
(1.34859 0.407393 4.18732e-24)
(1.38459 0.354751 -5.22912e-28)
(1.24928 0.416462 2.57597e-28)
(1.30006 0.422461 -2.72671e-28)
(1.15782 0.384246 5.99015e-25)
(1.20164 0.401194 0)
(1.08114 0.350685 0)
(1.11747 0.367898 0)
(1.01558 0.314859 -2.9537e-25)
(1.04813 0.331952 0)
(0.940581 0.284864 0)
(0.979507 0.300626 0)
(0.874408 0.206885 -1.286e-25)
(0.902842 0.25656 0)
(0.859258 0.0451507 -1.50696e-26)
(0.858773 0.133194 5.1903e-24)
(0.898355 -0.131812 -1.43127e-22)
(0.873213 -0.0478404 0)
(0.961968 -0.258136 -2.32969e-22)
(0.928018 -0.202714 2.48291e-22)
(0.994002 -0.301965 -3.39193e-22)
(1.02393 -0.445382 0)
(1.03745 -0.397663 -7.08034e-22)
(1.0276 -0.423059 -1.31113e-22)
(1.02584 -0.476342 0)
(1.02248 -0.462873 0)
(1.04647 -0.486458 -7.77311e-22)
(1.03355 -0.484477 -1.88382e-28)
(1.08089 -0.469594 4.24589e-22)
(1.06246 -0.481554 1.36414e-21)
(1.11758 -0.427342 0)
(1.09979 -0.45114 -9.9393e-22)
(0.69861 -0.238083 1.03148e-24)
(0.696047 -0.18476 -1.34411e-22)
(1.31084 -0.48684 -1.9314e-21)
(1.3068 -0.418784 -2.27282e-21)
(1.14568 -0.368622 -5.65337e-22)
(1.13308 -0.399549 2.69723e-22)
(0.941882 -0.598661 -4.02562e-27)
(0.987754 -0.603988 0)
(0.885902 -0.571448 0)
(1.04096 -0.61308 -1.19713e-26)
(0.812012 -0.477549 6.87341e-26)
(1.11544 -0.608656 -5.52861e-22)
(0.721549 -0.312618 -1.20624e-24)
(1.19814 -0.591897 0)
(0.674472 -0.0979869 -1.06436e-21)
(0.637924 -0.122673 4.78965e-24)
(1.28972 -0.54785 -2.45602e-21)
(1.36873 -0.41095 2.47202e-21)
(1.3727 -0.477468 6.50841e-22)
(0.780301 -0.113417 1.04204e-21)
(0.691898 -0.0250012 1.06835e-21)
(0.812807 -0.0660105 1.19244e-21)
(1.4296 -0.386351 2.33439e-21)
(1.34543 -0.344317 -1.32751e-21)
(1.40028 -0.321789 -3.65601e-22)
(1.15466 -0.335243 -1.34017e-23)
(1.11438 -0.350516 0)
(1.12433 -0.319038 4.26096e-24)
(0.96507 -0.60811 -3.37457e-28)
(1.22957 -0.352393 -1.99985e-22)
(1.19461 -0.345345 -1.91315e-22)
(1.30102 -0.313625 7.83818e-22)
(1.26991 -0.34509 1.97766e-22)
(1.33663 -0.133816 0)
(1.32681 -0.245709 0)
(1.30749 0.173095 0)
(1.32974 0.0127355 0)
(1.24319 0.406701 0)
(1.27689 0.312693 0)
(1.17107 0.447854 0)
(1.20796 0.447862 0)
(1.09761 0.38922 -2.8071e-29)
(1.13405 0.422864 2.9166e-29)
(1.0221 0.324969 7.43569e-25)
(1.06114 0.355567 1.14883e-28)
(0.930618 0.251576 1.05899e-24)
(0.978571 0.292655 0)
(0.837311 0.121164 0)
(0.881492 0.194591 0)
(0.795623 -0.0435248 -6.51195e-25)
(0.806002 0.0372937 0)
(0.843874 -0.152958 5.381e-25)
(0.810019 -0.10857 0)
(0.920036 -0.214515 1.2997e-24)
(0.884448 -0.18438 0)
(0.981624 -0.276343 2.6978e-24)
(0.950148 -0.247094 1.03327e-28)
(1.0572 -0.314554 1.08041e-22)
(1.01834 -0.29788 0)
(1.13978 -0.343848 -4.5057e-23)
(1.09728 -0.330366 -1.34811e-22)
(1.23699 -0.3573 -4.1127e-23)
(1.1866 -0.352551 7.51405e-23)
(1.29015 -0.355018 1.18514e-21)
(0.777877 -0.232163 5.83435e-22)
(0.766991 -0.16921 -1.62496e-21)
(0.854707 -0.360006 1.83716e-24)
(0.808417 -0.296862 6.72805e-23)
(0.981548 -0.455819 2.85197e-22)
(0.911682 -0.417412 -2.99618e-22)
(1.17146 -0.382156 -1.08531e-25)
(1.06744 -0.452852 -2.78137e-25)
(1.37731 -0.0551385 -2.16925e-24)
(1.28262 -0.239146 -7.44753e-28)
(1.4386 0.248543 0)
(1.43113 0.11848 0)
(1.36175 0.361437 -6.13581e-28)
(1.40995 0.325812 6.49323e-28)
(1.25366 0.367011 0)
(1.30703 0.371152 0)
(1.16207 0.343272 5.5372e-25)
(1.2054 0.356173 0)
(1.08597 0.316815 0)
(1.1224 0.330451 0)
(1.02202 0.282983 2.95371e-25)
(1.05301 0.300574 0)
(0.954042 0.248819 0)
(0.989536 0.265944 0)
(0.888526 0.184364 -5.08935e-25)
(0.918208 0.224209 1.16774e-28)
(0.868438 0.0505239 1.46517e-26)
(0.870673 0.125357 0)
(0.903721 -0.107058 0)
(0.880823 -0.0314591 -6.75035e-26)
(0.967899 -0.226526 -1.87646e-22)
(0.934536 -0.172689 -5.81164e-25)
(1.00337 -0.26764 -1.49092e-22)
(1.06215 -0.420597 -1.21089e-21)
(1.07625 -0.39434 5.4261e-22)
(1.04177 -0.462496 0)
(1.0495 -0.443216 0)
(1.03413 -0.483881 -8.32461e-26)
(1.03589 -0.475617 -1.59469e-28)
(1.04247 -0.482207 -8.99072e-26)
(1.03611 -0.486054 -1.69825e-28)
(1.06412 -0.456837 -6.45587e-23)
(1.05197 -0.472324 -2.92214e-28)
(1.09084 -0.41069 -3.03857e-22)
(1.07732 -0.436261 3.36463e-22)
(1.10329 -0.381485 1.1153e-22)
(0.918411 -0.607157 8.62246e-27)
(0.99686 -0.629448 -2.31487e-27)
(0.836432 -0.540318 0)
(1.06194 -0.630205 1.34152e-26)
(0.74185 -0.392401 2.41868e-25)
(1.14218 -0.622232 5.53755e-22)
(0.645559 -0.183033 5.40939e-24)
(1.23798 -0.588126 1.6999e-22)
(0.609425 -0.0044024 1.84068e-23)
(1.33704 -0.526943 0)
(0.848754 -0.0207791 -1.33351e-21)
(0.743329 0.0236292 0)
(1.42453 -0.438887 1.35435e-21)
(1.44947 -0.283927 -2.71637e-21)
(1.47775 -0.334525 -2.18701e-21)
(0.913822 -0.0343764 6.67695e-25)
(0.875841 0.03287 -1.95421e-21)
(0.919978 0.0230414 -1.62224e-23)
(1.48445 -0.228196 1.80577e-23)
(1.40031 -0.234576 -8.92422e-22)
(1.43283 -0.191191 -9.81613e-22)
(1.08202 -0.33436 0)
(1.08914 -0.305663 -6.51425e-22)
(1.15892 -0.300639 2.23524e-22)
(1.13266 -0.284631 -2.33609e-22)
(0.957762 -0.626582 2.18946e-27)
(1.23743 -0.314001 -1.08319e-23)
(1.20208 -0.307924 1.19725e-22)
(1.31766 -0.282353 -3.0695e-23)
(1.28191 -0.307456 8.95896e-23)
(1.3624 -0.131916 7.97885e-25)
(1.34843 -0.226472 -1.02981e-27)
(1.33005 0.14556 0)
(1.3561 -0.00215448 0)
(1.25268 0.371464 0)
(1.29247 0.279294 0)
(1.17671 0.410359 6.35892e-25)
(1.21424 0.411507 0)
(1.0999 0.35126 0)
(1.13867 0.385 0)
(1.01743 0.282389 0)
(1.05991 0.316235 0)
(0.924831 0.203367 0)
(0.971928 0.24619 0)
(0.84606 0.0881086 0)
(0.880657 0.150144 0)
(0.831155 -0.0350169 1.73839e-24)
(0.828246 0.0233631 0)
(0.882286 -0.118843 3.65535e-25)
(0.852374 -0.081732 5.10507e-28)
(0.936777 -0.187025 0)
(0.911432 -0.152879 0)
(0.993045 -0.243425 2.91918e-25)
(0.962757 -0.218476 -1.03327e-28)
(1.06117 -0.278193 1.24503e-24)
(1.02672 -0.262352 3.78931e-28)
(1.13546 -0.301252 1.05373e-22)
(1.09712 -0.291699 1.31371e-25)
(1.2211 -0.306869 -3.31714e-23)
(1.17736 -0.306448 -7.42817e-23)
(1.31368 -0.288733 1.76301e-22)
(1.26716 -0.301426 -6.92166e-23)
(1.35907 -0.267233 1.07108e-21)
(0.894972 -0.133903 1.54343e-22)
(0.905399 -0.0871544 -2.36886e-23)
(0.887128 -0.222269 -1.79014e-23)
(0.884932 -0.178236 0)
(0.937689 -0.31053 -1.81621e-24)
(0.903411 -0.266109 -6.81315e-23)
(1.0637 -0.371329 0)
(0.990796 -0.349585 0)
(1.26526 -0.273725 5.45313e-25)
(1.15716 -0.352208 0)
(1.44026 0.00684329 0)
(1.36785 -0.142989 0)
(1.45048 0.229735 0)
(1.46635 0.13728 0)
(1.35491 0.309607 3.58294e-25)
(1.40821 0.283657 0)
(1.24915 0.318321 0)
(1.30037 0.318633 0)
(1.1622 0.303926 -2.00395e-25)
(1.20323 0.312584 0)
(1.08975 0.283479 -9.24191e-25)
(1.12476 0.294193 0)
(1.02807 0.253606 -1.03818e-24)
(1.05762 0.270088 6.41521e-29)
(0.96845 0.216021 -1.07771e-24)
(0.999272 0.235123 -4.7566e-28)
(0.907359 0.160696 -3.98965e-25)
(0.936478 0.193098 0)
(0.881763 0.0535902 0)
(0.887898 0.114173 0)
(0.911567 -0.0823195 0)
(0.890976 -0.0151369 6.76207e-26)
(0.974803 -0.193861 3.80003e-22)
(0.941087 -0.14234 5.70854e-25)
(1.01091 -0.234441 -3.45959e-22)
(1.11842 -0.390373 0)
(1.13296 -0.358953 2.36777e-22)
(1.08503 -0.445919 7.77562e-22)
(1.10161 -0.419277 2.04763e-22)
(1.05531 -0.482595 1.50814e-25)
(1.06857 -0.467279 2.59649e-28)
(1.0361 -0.494495 1.68097e-25)
(1.04381 -0.49138 3.21872e-28)
(1.03213 -0.480918 -3.14107e-28)
(1.03199 -0.490648 3.19378e-28)
(1.04354 -0.445377 -1.07177e-22)
(1.03612 -0.46549 2.53925e-28)
(1.06363 -0.393603 3.025e-22)
(1.05313 -0.421185 1.09211e-22)
(1.07331 -0.364463 1.75127e-22)
(0.885157 -0.587169 0)
(1.00016 -0.635513 8.52459e-28)
(0.777202 -0.463823 0)
(1.06848 -0.629178 -9.96986e-26)
(0.667076 -0.259335 -2.05032e-25)
(1.15619 -0.603252 -1.6262e-24)
(0.585041 -0.0291038 -3.17793e-24)
(1.25951 -0.543829 8.14778e-24)
(0.631165 0.086562 -2.57556e-23)
(1.36164 -0.460926 1.87009e-23)
(0.804124 0.0628001 0)
(1.44938 -0.358733 1.96849e-21)
(0.930266 0.081176 -1.65863e-21)
(0.893925 0.0962585 3.59641e-21)
(1.49967 -0.253067 -6.33078e-23)
(1.45104 -0.137819 1.01894e-21)
(1.49712 -0.154486 2.85247e-21)
(1.0958 -0.281195 -4.1224e-22)
(0.942247 -0.619957 -5.4171e-27)
(1.16153 -0.263356 -3.58318e-22)
(1.09221 -0.244816 3.34671e-21)
(1.13355 -0.257365 -2.1465e-21)
(1.23994 -0.273574 -4.76096e-23)
(1.2028 -0.27186 3.22971e-22)
(1.32287 -0.247374 3.06553e-23)
(1.2833 -0.268315 1.4073e-23)
(1.37514 -0.127074 1.1365e-22)
(1.35622 -0.203367 -1.10854e-22)
(1.3441 0.111927 2.48822e-25)
(1.37139 -0.018056 -4.3581e-28)
(1.24856 0.329413 -6.33002e-25)
(1.29865 0.23747 2.74019e-29)
(1.16059 0.372674 7.05559e-25)
(1.20175 0.372439 0)
(1.08209 0.311547 0)
(1.1214 0.346834 0)
(0.999768 0.238933 -2.15773e-24)
(1.04139 0.274676 0)
(0.919856 0.162506 1.06475e-27)
(0.958317 0.202296 -1.10547e-27)
(0.869584 0.0705072 1.14107e-27)
(0.888703 0.118041 -1.18431e-27)
(0.87535 -0.0196794 -1.16257e-27)
(0.865634 0.0234766 1.20623e-27)
(0.91277 -0.0953591 -4.55147e-24)
(0.893279 -0.0585865 1.1782e-27)
(0.951207 -0.164111 2.23947e-24)
(0.931489 -0.131137 1.10781e-27)
(1.00215 -0.21346 2.19755e-25)
(0.974869 -0.191692 0)
(1.06157 -0.245676 1.79193e-24)
(1.03132 -0.231054 8.91519e-28)
(1.12836 -0.264267 1.1411e-24)
(1.09386 -0.256958 0)
(1.20264 -0.26564 5.08722e-23)
(1.16498 -0.267416 0)
(1.28064 -0.244618 1.21028e-22)
(1.24154 -0.258446 -1.66424e-22)
(1.3503 -0.19565 0)
(1.31737 -0.223524 1.45276e-23)
(1.39224 -0.119683 8.10251e-23)
(1.3761 -0.160537 -1.16061e-22)
(0.954105 -0.0310693 1.42747e-22)
(0.961648 0.0700914 9.74178e-22)
(0.953714 0.0209062 -9.40238e-22)
(0.970745 -0.1318 3.87065e-23)
(0.960703 -0.0832737 4.72522e-24)
(0.997221 -0.21267 0)
(0.981287 -0.175004 0)
(1.05571 -0.271656 -2.19093e-24)
(1.02068 -0.244183 0)
(1.17449 -0.29291 0)
(1.10609 -0.291464 0)
(1.34957 -0.180822 -4.36781e-25)
(1.25938 -0.258826 0)
(1.46142 0.0387421 0)
(1.42302 -0.0727166 0)
(1.43013 0.195774 0)
(1.46034 0.130886 0)
(1.33407 0.258413 -8.98458e-25)
(1.38448 0.235951 0)
(1.23887 0.273149 0)
(1.28479 0.269354 0)
(1.15951 0.267276 -8.20227e-28)
(1.19718 0.272009 8.68443e-28)
(1.0926 0.25169 9.23158e-25)
(1.12508 0.260252 1.09501e-27)
(1.03404 0.226415 2.35838e-24)
(1.06216 0.240782 1.15075e-27)
(0.982077 0.187978 -2.74301e-25)
(1.00808 0.208364 0)
(0.929189 0.137033 1.03759e-24)
(0.955321 0.165142 -1.26244e-27)
(0.899472 0.05318 1.13555e-27)
(0.909137 0.100374 -1.20416e-27)
(0.920388 -0.0591411 0)
(0.903826 -0.00230605 0)
(0.979769 -0.160498 -8.94956e-23)
(0.946947 -0.112916 1.44408e-22)
(1.05019 -0.233664 0)
(1.01483 -0.200528 -1.45663e-23)
(1.08268 -0.265482 0)
(1.14719 -0.41522 0)
(1.17291 -0.348171 -1.98085e-22)
(1.1633 -0.383406 8.89555e-23)
(1.10698 -0.471608 -1.07935e-22)
(1.12784 -0.445103 -1.56258e-22)
(1.0654 -0.502953 2.36333e-26)
(1.08525 -0.491265 0)
(1.03281 -0.506523 -8.50107e-26)
(1.04721 -0.508135 0)
(1.01645 -0.482923 0)
(1.02221 -0.497703 0)
(1.019 -0.437767 1.27342e-26)
(1.01545 -0.462526 0)
(1.03464 -0.3798 0)
(1.02593 -0.409928 0)
(1.05297 -0.316214 0)
(1.04385 -0.348226 1.82608e-23)
(1.07649 -0.255192 0)
(1.06233 -0.284203 2.04923e-22)
(0.950877 0.13354 2.93921e-21)
(0.979581 0.113219 0)
(1.45198 -0.0797667 -8.08277e-23)
(1.39621 -0.0764795 4.59371e-23)
(0.837727 -0.524326 1.14598e-25)
(0.986106 -0.614861 0)
(1.11823 -0.257612 0)
(0.706574 -0.336189 4.8329e-26)
(1.05513 -0.58884 7.18792e-26)
(1.09184 -0.224931 1.32202e-21)
(1.04754 -0.241332 0)
(1.05979 -0.215328 0)
(0.595007 -0.0859915 3.32605e-25)
(1.14666 -0.52983 2.57316e-24)
(0.561774 0.116766 0)
(1.24806 -0.442847 -1.7841e-23)
(0.701661 0.134158 0)
(1.3474 -0.340177 0)
(0.847593 0.11543 0)
(1.43263 -0.238299 -9.54508e-22)
(0.916968 0.159747 -3.90386e-22)
(1.48618 -0.146913 -1.20895e-22)
(1.00342 0.150231 0)
(0.980816 0.177247 -1.34081e-21)
(1.48414 -0.0731946 8.65943e-22)
(1.43582 -0.023619 4.18637e-22)
(1.38779 -0.0353518 -1.01889e-21)
(0.909432 -0.577206 3.88319e-27)
(1.16244 -0.232654 3.20087e-22)
(1.12994 -0.22478 0)
(1.23639 -0.235497 -5.36257e-23)
(1.1992 -0.234659 -1.32438e-22)
(1.31634 -0.210889 0)
(1.27679 -0.228452 7.12021e-23)
(1.37483 -0.11772 0)
(1.35164 -0.176507 -5.33621e-24)
(1.35371 0.0752226 -2.48403e-25)
(1.3769 -0.0325511 0)
(1.24713 0.275514 2.02202e-24)
(1.30624 0.186142 0)
(1.13837 0.330297 6.15529e-25)
(1.18845 0.323778 0)
(1.05749 0.273176 -2.26366e-24)
(1.09561 0.307814 -1.98835e-27)
(0.987636 0.201786 2.15551e-24)
(1.02139 0.236406 2.30665e-27)
(0.932491 0.135682 -2.66204e-24)
(0.957249 0.168731 2.37362e-27)
(0.90769 0.0653962 -2.55706e-27)
(0.91552 0.101274 2.48278e-27)
(0.915079 -0.00809116 -2.68211e-24)
(0.908496 0.0287511 2.65707e-27)
(0.935419 -0.0811412 4.95589e-24)
(0.924561 -0.0449757 0)
(0.966009 -0.143967 1.56382e-25)
(0.948803 -0.114799 2.40712e-27)
(1.011 -0.187594 -4.25948e-24)
(0.987267 -0.167988 0)
(1.0631 -0.216613 -1.79087e-24)
(1.03633 -0.203723 -1.98802e-27)
(1.12173 -0.231561 0)
(1.09167 -0.225945 0)
(1.18514 -0.230633 1.6649e-22)
(1.15317 -0.233285 -1.73453e-22)
(1.24948 -0.210311 0)
(1.21782 -0.223265 -7.49076e-29)
(1.30536 -0.167264 3.05668e-23)
(1.27952 -0.191623 -3.71879e-23)
(1.33813 -0.106186 3.86484e-22)
(1.32539 -0.138402 -3.85503e-22)
(1.33705 -0.0415971 0)
(1.34179 -0.0729607 -4.57231e-23)
(0.987184 0.0595303 4.63774e-22)
(1.02051 0.127147 9.38136e-23)
(1.00122 0.0956441 -6.50029e-22)
(0.983224 -0.0250191 1.12476e-21)
(0.980641 0.0187432 -4.56886e-22)
(1.01196 -0.114008 5.69981e-22)
(0.993372 -0.070634 -1.72441e-21)
(1.06427 -0.18665 -2.3283e-24)
(1.03522 -0.153493 1.92593e-23)
(1.13946 -0.229023 2.19093e-24)
(1.09849 -0.211672 0)
(1.25099 -0.223034 7.52046e-27)
(1.1897 -0.235404 -7.95098e-27)
(1.38201 -0.11619 -5.14203e-27)
(1.31913 -0.183247 5.43745e-27)
(1.4364 0.0443175 -7.99727e-25)
(1.42383 -0.0349496 0)
(1.38996 0.158403 1.70842e-27)
(1.42195 0.109738 -1.80749e-27)
(1.3066 0.213609 5.38425e-25)
(1.34944 0.191876 1.84158e-27)
(1.2254 0.233491 0)
(1.26484 0.226632 0)
(1.15497 0.234007 1.43164e-24)
(1.18878 0.235658 -8.91955e-29)
(1.0944 0.222387 -2.67027e-27)
(1.12382 0.229314 2.82799e-27)
(1.04017 0.201029 2.29164e-25)
(1.06646 0.213233 0)
(0.993988 0.164804 1.35247e-24)
(1.01625 0.184798 0)
(0.951154 0.115744 -1.559e-24)
(0.972413 0.141923 0)
(0.921322 0.0485193 2.79004e-27)
(0.932855 0.0851389 -2.95845e-27)
(0.931131 -0.0400458 0)
(0.9202 0.00536931 0)
(0.981162 -0.12796 1.24015e-22)
(0.952062 -0.0863407 1.78969e-22)
(1.05036 -0.199552 -6.67036e-22)
(1.01441 -0.166748 3.13227e-22)
(1.08486 -0.230414 0)
(1.20593 -0.367632 7.79278e-23)
(1.21376 -0.331269 2.07081e-22)
(1.17742 -0.436695 0)
(1.19608 -0.402898 -7.65294e-23)
(1.12789 -0.491043 5.27875e-25)
(1.15398 -0.466845 0)
(1.07244 -0.516339 -1.73287e-25)
(1.09986 -0.508045 -1.43874e-27)
(1.02559 -0.512418 0)
(1.04695 -0.518257 0)
(0.996888 -0.481693 0)
(1.00837 -0.500047 0)
(0.990648 -0.430517 -1.26596e-26)
(0.991011 -0.458176 0)
(1.00215 -0.367691 0)
(0.994781 -0.400094 0)
(1.02239 -0.300495 -1.62173e-22)
(1.01159 -0.334116 -1.76393e-23)
(1.03479 -0.268255 -3.21461e-23)
(1.0333 0.181715 0)
(1.04506 0.153647 3.75292e-22)
(1.37029 -0.00043547 7.74913e-22)
(1.32531 -0.0146828 -1.58237e-21)
(0.770817 -0.411079 -1.7644e-26)
(0.948109 -0.549689 4.29868e-26)
(1.09581 -0.193522 -2.1329e-21)
(1.07464 -0.189043 1.58745e-21)
(0.628136 -0.15881 -1.5372e-24)
(1.0163 -0.484758 0)
(0.540116 0.102994 3.77751e-25)
(1.10078 -0.390695 -7.97476e-24)
(0.598404 0.21458 0)
(1.19412 -0.279522 0)
(0.785069 0.162698 9.20667e-23)
(1.28531 -0.176883 -7.88565e-23)
(0.873167 0.185843 0)
(1.37142 -0.0971585 -9.81418e-22)
(0.953477 0.213279 -1.17032e-21)
(1.43842 -0.0396551 0)
(1.01679 0.214209 2.96903e-22)