/*--------------------------------*- C++ -*----------------------------------*\
  =========                 |
  \\      /  F ield         | OpenFOAM: The Open Source CFD Toolbox
   \\    /   O peration     | Website:  https://openfoam.org
    \\  /    A nd           | Version:  10
     \\/     M anipulation  |
\*---------------------------------------------------------------------------*/
FoamFile
{
    format      ascii;
    class       surfaceScalarField;
    location    "77";
    object      phi;
}
// * * * * * * * * * * * * * * * * * * * * * * * * * * * * * * * * * * * * * //

dimensions      [0 3 -1 0 0 0 0];

internalField   nonuniform List<scalar> 
57492
(
0.000235304
-1.05781e-05
-4.36384e-05
-0.000181088
-0.00016218
0.000266977
0.000130508
-2.87457e-05
8.0808e-05
0.00032319
-0.000375252
0.00315988
0.00338639
-0.000272131
-0.00627414
-0.00862825
0.00404526
0.00774287
0.000679198
-0.000624435
-0.000327578
0.000272815
-0.00120944
0.000206722
-7.05428e-05
0.00107326
0.000260391
-0.000790635
0.00159226
-0.00463298
0.00442522
-0.0013845
0.0013438
0.0042486
-0.00400014
-0.000610499
-0.000206099
0.000682859
0.00013374
-0.000122185
-0.000830759
0.000342445
0.000231403
-0.000324663
-2.89258e-05
-5.31486e-05
7.84525e-05
0.00161868
-0.00156317
-0.000585819
0.000530305
0.000233675
0.0013066
7.84029e-05
-0.000324842
0.0007887
0.00333523
-0.00379909
-0.000660975
0.00326112
-0.00292499
0.000135398
-0.000288436
0.000153038
-0.0016627
0.0012195
0.000578597
-0.00465978
0.000189221
0.00333545
0.00113511
0.00122852
-0.00472995
-0.00115836
-0.000132886
-0.000195913
-0.000701161
0.00102996
-0.000286596
0.000175709
-2.19991e-05
-0.0025428
0.00215847
0.000733565
-0.000349239
-0.00304645
0.000925686
-0.000422035
-0.00112685
0.000595904
0.000456463
7.448e-05
-0.000778419
-0.000361958
1.35292e-05
-0.000366998
-0.00113298
0.00128976
0.000210225
-0.00041573
0.000116287
-6.75549e-05
0.000707256
-0.000470516
-0.00043846
0.000201721
-0.000610071
0.000491985
0.000825341
-0.00083681
-0.00160406
0.0015586
0.000882266
-0.00191129
-0.000455497
0.00152998
-0.000707289
-0.000151982
0.000859271
-0.000271204
-0.000436085
-0.00137454
0.00189188
-0.000788546
0.000203039
-0.00076732
-0.000810262
-0.000534637
0.000741359
-0.000233045
-0.00190188
0.00115085
0.000751029
-0.00432177
0.00241988
0.00486803
-0.000805905
0.000335973
-0.0043981
0.00357838
-9.3499e-05
0.00138316
-0.00071363
0.00488514
-0.00497741
0.00133068
0.000288093
-0.00135838
0.0013429
-8.27591e-05
0.00162881
-0.000610665
-0.00121347
0.000195327
0.00182342
9.34814e-05
0.000827485
-0.00051574
0.00103115
0.000808734
0.00109201
-0.00475678
-0.000633148
0.000543939
0.00484599
-0.00489002
-0.00029671
0.000429949
0.00122003
0.00451256
-0.00443733
-0.00129526
0.000891835
-0.00430478
-0.00277378
0.00252661
0.00253121
-0.00228404
-0.000270902
0.00320038
-0.00570326
1.48093e-05
-0.000116412
-7.98904e-07
0.000102402
-0.000320469
1.06154e-05
6.68671e-05
-0.000135676
-0.00025166
-5.61943e-05
6.64932e-06
1.10992e-05
-1.18981e-05
8.82941e-06
2.26974e-06
0.00729931
0.0037851
-0.00587666
-0.00520775
0.00233721
-0.000701962
0.00566406
-0.00784953
0.00309912
0.00708763
0.00229321
-0.00635765
0.00162387
-0.00286534
0.00213322
-0.000891758
0.00235574
-0.0029139
0.00218204
-2.97942e-05
2.1771e-05
-2.55487e-06
-7.00386e-05
-3.3941e-06
-0.000222211
-2.89155e-05
-0.00293762
0.00534638
0.00339236
-0.00580112
0.00436248
-0.00494436
0.00298398
0.00474612
-0.00238373
0.0100805
-0.00147866
-0.00179122
-0.00681064
0.00224452
0.00541638
0.00241962
0.00160715
-0.00500261
0.00563997
4.67626e-05
-7.55083e-05
0.000127571
0.000815556
0.00175655
-0.000625964
-0.00194614
0.0010392
9.95504e-05
-9.55303e-05
2.62402e-05
6.92901e-05
-0.000297528
0.000201998
-0.00660298
0.00342348
-0.00201299
0.00519249
-0.00574053
-0.00249496
0.00163251
-0.00262458
0.00208754
-0.00520348
0.00195108
-2.66155e-05
-0.000943933
-0.000980533
-0.000711327
0.00222669
0.000435715
-0.000834282
-8.52175e-05
0.000208172
-0.000771251
-8.96463e-05
-0.000271384
-0.0014438
-0.000237614
-6.23857e-05
1.88936e-05
0.000281106
-0.000214925
-0.000521121
0.000498432
0.000137645
1.69293e-05
-0.000369499
7.94516e-05
-4.19216e-06
0.000100962
-2.61715e-06
-0.000640883
0.000369499
8.34501e-05
-0.000724333
0.000172185
-0.000469713
0.00427364
0.00333161
-0.00017853
0.00212862
-0.00648323
-1.0409e-05
0.00226402
-0.0017975
-0.000456112
0.000291671
0.0031642
-0.00346628
0.00326831
0.00183884
-0.000497845
-0.0046093
-0.00103401
0.000502544
0.00379977
0.00398626
-0.00318143
-0.00164289
-0.00303447
0.00125188
0.00342549
-0.00118441
0.00350474
-0.00396322
0.00042392
-0.00464281
8.23053e-05
3.37266e-05
-4.56995e-06
0.00104334
-0.000615372
-0.000590145
7.63936e-05
-0.000323178
0.00129012
0.000362503
-1.91331e-05
-0.00018713
0.000331878
6.83229e-05
-0.000213071
0.000991865
-0.00121562
3.66238e-05
-0.000357734
0.000830944
0.000518655
-0.000125152
9.92957e-05
-0.00611141
0.00365176
0.00588313
0.00772171
-0.00200539
-0.00821129
-0.00285446
0.00446477
-9.70753e-05
-0.000873875
-0.000162034
-0.000521926
9.11993e-06
4.77624e-05
-0.000130037
3.7433e-05
4.48418e-05
-0.000129941
0.000144319
3.33845e-05
-0.000299039
3.90609e-05
-0.000265143
-0.000312585
5.5803e-05
-0.000803255
-0.000335763
-0.000766032
-0.000821538
0.000938461
0.000649109
3.13849e-05
0.000405724
-0.00120314
-0.00107103
0.000280874
-0.00293299
0.00133025
-5.99621e-05
-0.00350153
0.000809288
-0.000240751
0.000875916
-0.00334739
0.00256423
-9.27552e-05
0.000678959
-0.00272856
0.00292551
0.00252813
-0.0101973
-0.00176496
0.0021812
0.00302068
-0.00345538
0.00206063
-0.000320727
2.86028e-07
1.66433e-05
-3.48958e-06
3.7756e-06
0.000284115
-4.12807e-05
0.00558102
-0.00341032
-0.00249385
0.00032315
0.00483202
3.53627e-05
0.00463836
0.000168889
-0.00507815
0.00137994
0.00329383
-3.54098e-05
0.000551225
-0.00290967
0.00373839
5.32192e-06
-8.8115e-06
0.00075915
-0.0021195
-0.00284597
0.00123147
0.00308276
0.000797578
-4.56897e-05
-0.000838408
8.65193e-05
0.000265217
-7.77091e-05
-0.00102721
0.000228176
0.00129102
0.000187112
-0.000949101
-0.000134938
7.60677e-05
-7.0818e-06
1.03325e-05
-2.92075e-06
-3.3e-07
1.09363e-05
-2.5298e-07
-1.77651e-05
4.67243e-05
-0.000103435
6.76471e-05
-0.00171484
0.00264772
-0.000760695
0.0029157
-0.00378118
-0.000849363
6.70982e-06
-0.00141334
0.0016348
-0.00398935
0.00024094
-0.00273493
-0.00182996
0.000575543
0.00269081
0.00291163
-0.00541322
0.00260563
0.00429256
-0.00420738
0.0022407
-0.00308401
0.00160589
-0.000762577
0.00245596
-0.00302314
0.00280788
0.00437017
0.0018769
0.00500225
-0.0002296
-0.00496778
0.000195127
0.0055433
-0.000658104
0.000117059
0.00552851
-0.000906184
8.57628e-05
-0.00470809
0.00396794
-0.00137826
0.00293883
0.0043075
-0.00140584
0.00114282
-0.00404448
0.00127157
0.00438743
-0.0013515
-0.00387574
-0.00166728
0.00413717
0.00106841
-0.00369227
-0.00186165
0.00361986
-0.00238014
-0.0032387
0.00215609
0.00346275
-0.00239599
-0.00326674
0.00328259
0.00223581
0.0030455
-0.0014753
-0.00380601
0.00301925
-0.00317943
-0.00259012
0.00261478
0.00299459
-0.00204143
0.00249681
-0.00406854
0.00361459
-0.00102135
-0.0050649
0.00105421
0.00537425
-0.00136356
0.00191091
-0.000263713
0.00098933
-0.00105514
0.000329523
-0.000107347
0.00126834
-0.00142471
-5.29284e-05
0.000304903
0.000110528
-0.00103059
-0.0016173
0.00105293
-1.55663e-07
-9.73177e-08
3.08804e-07
-4.64467e-07
-9.46491e-05
-0.00178382
0.00136272
-0.00159225
-6.3518e-05
0.00156112
4.31504e-05
-0.00166876
3.3359e-05
-0.000243835
0.00153769
0.000269335
-0.00156319
0.00158402
0.000437621
-0.00226548
0.00156573
0.00155598
-2.44894e-06
5.07501e-07
3.56681e-05
-4.74914e-06
2.3002e-06
-4.24164e-06
-5.53664e-06
4.22562e-06
-5.48832e-05
1.02313e-06
-6.55976e-06
5.24874e-06
-4.38808e-05
2.12645e-05
-0.00026398
2.21446e-05
-6.60254e-05
4.34091e-05
5.32127e-05
-5.34313e-06
-0.000173021
-1.69128e-05
7.01255e-05
-2.2256e-05
0.0014274
0.00327827
-0.00420312
0.00132341
-0.0044617
0.00456569
0.00471345
-0.000111769
-0.00118219
-0.00244414
0.00115805
0.00246827
-0.000710364
0.00272152
-0.00319334
0.000157375
-0.00331188
0.00365062
-0.00366284
-1.32009e-05
2.54239e-05
0.00367105
3.11202e-05
-5.15507e-05
-2.40849e-05
-0.00363495
-3.80446e-06
0.0037206
-3.42181e-06
-4.61239e-05
0.00380923
5.18972e-05
-0.000140531
2.41918e-05
0.0039268
-0.000141765
0.00387892
-0.00383392
-2.08089e-05
-0.00018665
0.00413358
-2.01271e-05
0.00379256
-0.000100282
-0.00369488
-8.71421e-05
-0.00366042
-3.78884e-05
-0.00363332
4.02181e-06
-0.00368875
4.22316e-05
-0.00360605
-0.000106786
-0.000183124
0.0043367
-1.99909e-05
0.00363592
-2.64909e-05
-1.89377e-05
-0.00358173
-3.42871e-05
-0.0036128
-1.21858e-05
-2.59954e-05
-0.0037653
0.000209565
-5.20824e-06
0.00436137
-1.94672e-05
0.00365737
-2.66536e-05
-0.00372193
8.31356e-05
0.00438596
-5.35735e-06
-1.92264e-05
-5.68128e-06
0.00441023
-1.85945e-05
0.00367846
-2.64439e-05
0.00369945
-2.66727e-05
-2.13994e-05
-0.00371879
-2.51129e-05
-0.00371787
-2.54685e-05
-5.67793e-06
0.00443428
-1.83723e-05
0.00372019
-2.64238e-05
1.09206e-07
-0.00369324
-2.56604e-05
-0.00369222
-2.55342e-05
-5.82038e-06
0.00445785
-1.77464e-05
0.00374098
-2.66092e-05
5.72106e-07
-0.00366742
-2.63869e-05
-0.00366648
-2.51688e-05
-5.52973e-06
0.00448094
-1.75583e-05
0.00376176
-2.63038e-05
8.43567e-07
-0.00364143
-2.68308e-05
-0.00364041
-2.52315e-05
-5.15854e-06
0.00450304
-1.6945e-05
0.00378303
-2.64344e-05
1.29478e-06
-0.00361525
-2.7475e-05
-0.00361425
-2.48629e-05
-3.87723e-06
0.00452371
-1.67915e-05
0.00380521
-2.60583e-05
9.93532e-06
-0.00359733
-2.78594e-05
-0.00357943
-2.48798e-05
-1.56853e-06
0.00454147
-1.61891e-05
0.00382975
-2.61105e-05
2.53337e-05
-0.00347025
-0.000152415
-0.00349274
-6.13622e-05
3.55183e-06
0.00455398
-1.60638e-05
0.00384141
-8.1013e-06
2.52014e-05
-0.00346148
-3.39718e-05
-0.00344132
-2.62121e-05
1.34731e-05
0.00455598
-1.5475e-05
0.00383323
2.16511e-05
5.15558e-05
-0.00331388
-0.000199155
-0.00331695
-7.28162e-05
0.000189728
0.00438161
-1.53546e-05
0.00396894
5.402e-05
5.85656e-05
-0.00327352
-9.89208e-05
-0.0032557
-2.69037e-06
0.000168264
0.00407838
0.000134962
0.00405366
8.35389e-05
9.11228e-05
-0.000153372
-0.00321128
-0.00321774
5.3168e-05
7.01856e-06
2.51071e-05
0.00404626
0.00404629
1.43958e-05
-0.003296
0.0033736
-0.000176518
-0.00328904
-0.000160331
0.000152271
-0.000159053
-0.00320449
5.23085e-05
-0.00311778
-0.00332583
0.00337992
-8.80629e-05
-0.000151393
-0.00328034
0.00330453
-5.20489e-05
-5.28296e-05
-0.00332837
0.0033521
-5.05542e-05
-5.13174e-05
-0.00337551
0.00339884
-4.89986e-05
-4.97971e-05
-0.00342194
0.00367902
-4.75163e-05
-4.82119e-05
-0.00369158
0.00366375
2.40228e-05
-4.68384e-05
-0.00380483
0.00379794
-4.46575e-05
-0.00011566
-0.00369775
0.00366538
-0.000108161
5.40613e-05
-0.00359961
0.00362121
-4.17312e-05
-7.59885e-05
-0.0036424
0.00366345
-4.05198e-05
-4.11772e-05
-0.00368419
0.00370487
-3.92757e-05
-3.99677e-05
-0.00372523
0.00374552
-3.80368e-05
-3.87317e-05
-0.00376548
0.00378535
-3.68174e-05
-3.75112e-05
-0.00380487
0.00382429
-3.56149e-05
-3.63109e-05
-0.00384335
0.00386227
-3.43933e-05
-3.51189e-05
-0.00385829
0.00396744
2.58102e-05
-1.13817e-05
0.00397584
1.67141e-05
-2.95975e-05
6.48295e-05
0.00401102
-2.75149e-05
0.0040442
0.00396403
-0.00388053
-2.94858e-05
-0.00402152
0.00403163
4.28504e-06
2.60497e-05
0.00386135
-0.00382465
-4.48017e-05
2.4707e-06
0.00380538
-0.0037857
-4.57441e-05
-4.53747e-05
0.00376596
-0.00374583
-4.64377e-05
-4.6169e-05
0.00372565
-0.00370509
-4.69873e-05
-4.67832e-05
0.00368449
-0.0036635
-4.74312e-05
-4.72755e-05
0.00364247
-0.00362113
-4.78258e-05
-4.76836e-05
0.00367336
-0.00364609
-4.80801e-05
-4.806e-05
0.00368504
-0.00362289
-0.000100033
-4.81916e-05
0.00357706
-0.00353163
-3.19898e-06
-4.18079e-05
0.00355321
-0.00355341
-1.19799e-05
-8.5209e-05
0.00342162
-0.00339847
-4.86194e-05
-4.86542e-05
0.00337524
-0.00335166
-4.87551e-05
-4.87627e-05
0.003328
-0.00330398
-4.88811e-05
-4.88893e-05
0.00327985
-0.00329218
-4.90269e-05
-4.90164e-05
0.00326919
-0.00329273
-4.92783e-05
-4.92016e-05
0.00324583
-0.00317426
-1.83975e-05
-4.95931e-05
-0.00311593
-6.02283e-06
-0.00328821
-0.00015988
0.00400684
3.38285e-05
-4.17727e-05
0.00404589
9.33955e-05
-0.000107168
-0.00310401
4.52969e-05
-0.00306783
0.000136777
-0.000156056
-0.00326893
-0.00317488
-0.0032981
0.00326876
-0.000147177
0.00331132
-0.00331373
-0.000157473
-0.000147111
-0.00325078
0.00327504
-0.00011232
-0.000133415
-0.00329891
0.00332268
-7.5823e-05
-7.66988e-05
-0.00334611
0.00336943
-7.38763e-05
-7.47491e-05
-0.00339244
0.00341537
-7.19298e-05
-7.28036e-05
-0.00343803
0.00346056
-7.00438e-05
-7.08717e-05
-0.00348277
0.00357506
-6.827e-05
-6.90474e-05
-0.00352669
0.0035485
-6.64654e-05
-6.729e-05
-0.00366813
0.00362475
-6.47729e-05
-6.55734e-05
-0.00361249
0.00363368
-6.29193e-05
-6.37368e-05
-0.00365451
0.00367525
-6.12542e-05
-6.20101e-05
-0.00369566
0.003716
-5.96181e-05
-6.03744e-05
-0.00373601
0.00375596
-5.79863e-05
-5.87475e-05
-0.00377558
0.00379511
-5.63543e-05
-5.71233e-05
-0.0038143
0.00383339
-5.47108e-05
-5.54955e-05
-0.00385211
0.00387071
-5.29906e-05
-5.38399e-05
-0.00388869
0.00393767
-2.31712e-05
-2.93598e-05
-3.93622e-06
-2.29844e-05
0.00403794
-2.87341e-05
0.00403164
-0.00394346
0.00400007
-2.2783e-05
1.0924e-05
0.00398534
-0.00396834
-1.27155e-05
0.00397071
-2.7149e-05
2.09616e-05
5.38074e-06
0.00401955
0.00404218
0.00395091
-0.00390453
-7.5866e-05
8.62101e-06
0.00385298
-0.00383405
-6.37273e-05
-4.90775e-05
0.00381509
-0.00379573
-6.51079e-05
-6.43365e-05
0.00377633
-0.00375653
-6.62377e-05
-6.55724e-05
0.00373669
-0.00371647
-6.72065e-05
-6.66177e-05
0.00369622
-0.0036756
-6.80504e-05
-6.75235e-05
0.00365497
-0.003634
-6.87969e-05
-6.83207e-05
0.00361303
-0.0035917
-6.94192e-05
-6.90218e-05
0.00357029
-0.00360034
-6.9991e-05
-6.95922e-05
0.00357199
-0.00350472
-7.04699e-05
-7.01492e-05
0.00351928
-0.00346023
-7.10314e-05
-7.06509e-05
0.00343774
-0.00341488
-7.14713e-05
-7.11497e-05
0.00339199
-0.00336875
-7.19947e-05
-7.16539e-05
0.00334544
-0.00332176
-7.25598e-05
-7.22024e-05
0.00329797
-0.0032738
-7.32022e-05
-7.28031e-05
0.00324949
-0.00322477
-7.39973e-05
-7.3515e-05
0.00319993
-0.00314332
-7.50073e-05
-7.44321e-05
0.00310096
-0.00303507
-2.05907e-05
-4.83835e-05
-0.00331136
-0.000158421
3.1932e-05
-0.000103735
-0.00299603
-0.00299232
-1.08189e-05
-0.000175037
-0.0030327
-2.28765e-05
0.00399421
0.00399475
-1.86543e-05
-0.00010325
9.54739e-05
-0.00326116
-0.000126843
-0.00328777
9.95767e-06
-9.97791e-05
-0.00290621
-3.36569e-05
-0.0029487
-0.00325445
0.00402009
-0.00399184
-5.10259e-05
0.00399591
1.2966e-06
3.04374e-05
-7.79695e-06
0.00399691
-1.07962e-05
0.00403598
-0.00328643
0.00334729
-0.000187703
-0.000172564
0.000128639
-0.00324384
0.0033375
1.62534e-05
0.000170207
-0.00352396
-0.000121491
-0.00336827
0.00336578
-0.000154986
-0.000179405
-0.00334588
0.00331509
-0.000116381
-0.000127211
-0.00331354
0.00330267
-0.000101452
-0.000131871
-0.00332599
0.00334916
-9.89926e-05
-0.00010001
-0.00337198
0.00339469
-9.65877e-05
-9.75715e-05
-0.00341709
0.00343941
-9.42524e-05
-9.52054e-05
-0.00346145
0.0034834
-9.19964e-05
-9.29055e-05
-0.00350505
0.00352661
-8.98276e-05
-9.06981e-05
-0.00354788
0.00356911
-8.76975e-05
-8.85621e-05
-0.00359001
0.00361086
-8.56257e-05
-8.64688e-05
-0.00363148
0.00365207
-8.35054e-05
-8.43562e-05
-0.00367235
0.00369256
-8.1467e-05
-8.22884e-05
-0.00371245
0.00373229
-7.94531e-05
-8.02707e-05
-0.0037518
0.00377125
-7.74369e-05
-7.82622e-05
-0.00379038
0.00380942
-7.54024e-05
-7.62435e-05
-0.00382813
0.00384675
-7.33298e-05
-7.41991e-05
-0.003865
0.00388316
-7.11503e-05
-7.20964e-05
-0.00391163
0.0039352
-4.67436e-05
-5.78233e-05
-4.57219e-05
1.33914e-05
-1.43785e-05
0.00403893
-1.18021e-05
-3.65017e-05
0.00404252
0.00403323
0.00402001
0.00398533
-0.00396422
-3.38236e-05
-0.00399637
0.00399069
-1.2973e-05
-3.81884e-05
0.00390225
-0.00389797
-8.01442e-05
-5.33506e-05
0.00386616
-0.00384769
-8.21942e-05
-8.0895e-05
0.0038292
-0.00381032
-8.39912e-05
-8.28261e-05
0.0037914
-0.00377209
-8.5545e-05
-8.44927e-05
0.00375275
-0.00373304
-8.69194e-05
-8.59563e-05
0.0037133
-0.0036932
-8.81474e-05
-8.72607e-05
0.00367309
-0.00365263
-8.92523e-05
-8.84332e-05
0.00363217
-0.00361135
-9.024e-05
-8.94885e-05
0.0035905
-0.00356932
-9.11673e-05
-9.04427e-05
0.00354811
-0.00352655
-9.20338e-05
-9.13564e-05
0.00350497
-0.00348308
-9.29155e-05
-9.22348e-05
0.00346112
-0.00343882
-9.37704e-05
-9.31088e-05
0.00341647
-0.00339378
-9.46904e-05
-9.40051e-05
0.00337101
-0.00334788
-9.56897e-05
-9.49721e-05
0.00332464
-0.00330103
-9.68116e-05
-9.60354e-05
0.0032773
-0.00325317
-9.81253e-05
-9.72529e-05
0.0032289
-0.00320422
-9.96895e-05
-9.86992e-05
0.00315219
-0.00307116
-0.000101614
-0.000100416
0.00301527
-0.00299957
-4.9357e-05
-6.67093e-05
-2.27026e-05
4.45486e-07
-0.00292645
-0.00296224
-6.00397e-05
0.000121675
-0.00325419
-7.52001e-05
-0.00305728
-2.54464e-05
0.00398486
0.00402123
-4.13344e-05
0.000166502
-0.00339409
3.08999e-05
-0.00293666
0.000745181
-0.00271679
0.00353734
2.7917e-05
-6.91168e-05
-0.00292104
-2.36109e-05
-0.00287492
-0.00219071
0.00335115
0.000395538
-0.00166761
-0.000253761
-0.00320797
-0.00320203
0.00335894
1.32971e-05
0.00016251
-1.33835e-05
-0.00334729
0.00333891
-0.000179323
-0.00010985
-0.00333436
0.0033101
-0.000130723
-0.000174849
-0.00331159
0.00332257
-0.000127363
-0.000128709
-0.00331611
0.00333886
-0.0001242
-0.000125409
-0.00336127
0.00338357
-0.000121291
-0.000122424
-0.00340557
0.00342747
-0.000118489
-0.000119565
-0.00344908
0.00347061
-0.000115789
-0.000116816
-0.00349187
0.00351306
-0.000113184
-0.000114162
-0.00353396
0.0035548
-0.000110664
-0.000111601
-0.00357535
0.00359585
-0.000108203
-0.000109114
-0.00361607
0.00363623
-0.000105788
-0.000106682
-0.00365614
0.00367601
-0.000103374
-0.000104262
-0.00369559
0.00371511
-0.000100995
-0.000101869
-0.00373434
0.00375352
-9.86253e-05
-9.94994e-05
-0.00377238
0.00379118
-9.62398e-05
-9.71263e-05
-0.00380967
0.00382808
-9.38176e-05
-9.47278e-05
-0.00384617
0.00386417
-9.1333e-05
-9.22823e-05
-0.00388183
0.0038994
-8.87256e-05
-8.97537e-05
-0.00392864
0.00396787
-8.59696e-05
-8.70655e-05
-0.00397481
0.00398828
-6.45026e-05
-5.26603e-05
-0.00402016
0.00403
-3.52935e-05
-3.05762e-05
9.35364e-06
-1.61452e-06
0.00403478
3.00712e-05
-7.37501e-05
0.00407368
0.00402428
2.69129e-05
1.11905e-05
0.00400083
0.00405852
-5.2013e-06
-2.03986e-05
0.00402251
0.00402599
3.35456e-05
-7.07404e-05
0.00405842
0.00404913
0.00404127
-0.00401117
-4.30638e-05
-0.00411881
0.00402745
2.06231e-05
-0.000118883
0.0039854
-0.00396045
-5.87752e-05
-6.39591e-05
0.00391811
-0.00390071
-9.75481e-05
-9.56928e-05
0.00388324
-0.00386539
-0.000100044
-9.83576e-05
0.00384752
-0.00382926
-0.000102249
-0.000100704
0.00381097
-0.0037923
-0.000104211
-0.000102785
0.0037736
-0.00375455
-0.000105976
-0.000104652
0.00373547
-0.00371604
-0.000107576
-0.000106341
0.00369659
-0.00367681
-0.000109036
-0.000107879
0.00365701
-0.00363687
-0.00011038
-0.000109291
0.0036167
-0.00359621
-0.000111655
-0.000110608
0.0035757
-0.00355485
-0.000112883
-0.000111874
0.00353397
-0.00351278
-0.000114109
-0.00011311
0.00349153
-0.00346996
-0.000115346
-0.000114352
0.00344833
-0.00342636
-0.000116655
-0.000115635
0.00340433
-0.00338195
-0.000118072
-0.000117009
0.00335947
-0.00333664
-0.000119646
-0.000118511
0.00331369
-0.00329037
-0.00012144
-0.0001202
0.00326693
-0.00324311
-0.000123512
-0.000122141
0.00321915
-0.00319484
-0.000125922
-0.000124379
0.00313457
-0.00305522
-0.000128711
-0.000126973
0.00303727
-0.00300403
-0.00010236
-7.7985e-05
-6.36462e-05
4.33822e-05
-0.00290077
-0.00296083
-0.000106845
0.000116866
-0.00320456
-2.08129e-05
-0.00300557
0.000287594
-0.0029365
3.18559e-05
-0.00299213
0.00405016
-0.0040397
-4.57509e-05
0.0040495
-7.30948e-05
-2.22344e-05
2.12256e-05
0.00405943
-7.4e-05
0.00407922
0.000303567
-0.00258273
6.06024e-05
-0.00289214
-0.00146565
-0.00176515
-0.00262719
0.0030483
-2.55727e-05
-4.41485e-05
3.93895e-05
-0.00289601
-8.43581e-05
-0.00292062
-0.00241204
-0.000468911
-0.00311192
-0.00320379
0.0032668
-4.97097e-05
7.01432e-06
-0.00331594
0.00329361
-0.000156993
-0.000158986
-0.00327323
0.00329546
-0.000152958
-0.00015447
-0.00331745
0.00333937
-0.000149282
-0.000150699
-0.00336108
0.00338269
-0.000145818
-0.000147113
-0.00340404
0.00342531
-0.000142558
-0.000143771
-0.00344631
0.00346723
-0.000139414
-0.000140564
-0.00348789
0.00350849
-0.000136383
-0.000137475
-0.00352882
0.00354909
-0.000133455
-0.000134493
-0.00356909
0.00358904
-0.000130614
-0.000131607
-0.00360873
0.00362836
-0.000127839
-0.000128799
-0.00364773
0.00366705
-0.000125109
-0.000126048
-0.00368611
0.00370514
-0.000122396
-0.000123324
-0.00372389
0.00374259
-0.000119699
-0.000120619
-0.00376101
0.00377938
-0.000116994
-0.00011792
-0.00379745
0.00381547
-0.000114258
-0.000115202
-0.00383319
0.00385083
-0.000111466
-0.000112442
-0.00386817
0.00388542
-0.000108591
-0.000109615
-0.00390236
0.00391922
-0.000105589
-0.000106687
-0.00393576
0.0039522
-0.000102407
-0.000103604
-0.00399988
0.00400227
-6.68952e-05
-0.000100341
-6.80073e-05
-2.55021e-06
-4.02031e-05
0.00407753
4.36087e-05
-4.84154e-05
0.00407849
0.00406534
-1.18087e-05
-4.93386e-06
0.00401757
0.00400651
-1.73222e-05
1.92412e-05
0.00402059
0.00400374
0.0040896
0.0040606
-0.00403367
-6.99978e-05
-0.00402653
0.00407898
-3.18289e-05
-8.48053e-05
0.00400601
-0.00395376
-0.000111031
-9.16165e-05
0.00393744
-0.00392075
-0.000114238
-0.000112012
0.00390402
-0.00388693
-0.000117139
-0.000115084
0.0038698
-0.0038523
-0.000119745
-0.000117834
0.00383477
-0.00381688
-0.000122099
-0.000120316
0.00379897
-0.0037807
-0.000124238
-0.000122569
0.00376242
-0.0037438
-0.000126196
-0.000124627
0.00372516
-0.00370619
-0.000128002
-0.00012652
0.0036872
-0.00366789
-0.00012969
-0.000128279
0.00364856
-0.00362891
-0.000131303
-0.000129942
0.00360924
-0.00358925
-0.000132872
-0.000131548
0.00356923
-0.0035489
-0.000134438
-0.000133129
0.00352852
-0.00350783
-0.000136036
-0.000134726
0.00348709
-0.00346603
-0.000137717
-0.000136379
0.0034449
-0.00342345
-0.000139527
-0.000138138
0.00340191
-0.00338004
-0.000141517
-0.000140049
0.00335807
-0.00333577
-0.000143744
-0.000142168
0.00331336
-0.00329061
-0.000146258
-0.00014455
0.00326775
-0.00324457
-0.000149099
-0.000147238
0.0032213
-0.00319773
-0.00015228
-0.000150251
0.00312204
-0.00306862
-0.000155783
-0.000153673
0.00301814
-0.00297434
-0.000128153
-0.000157326
-5.52139e-05
5.93241e-05
-0.00292473
-0.00293872
-9.08318e-05
9.12654e-05
-0.00300823
3.69676e-06
-0.00297741
-4.50725e-05
0.00404616
0.00407977
-7.47875e-05
0.00018318
-0.00281612
-0.000287007
-0.00344412
1.45687e-05
-0.00288431
3.28122e-05
-0.00296434
6.14984e-05
-0.00291425
-0.00343261
-0.000744586
0.000246452
-0.000500255
-0.0031788
-0.00015215
-0.00304552
4.03346e-05
-0.00287702
-8.6966e-05
1.95137e-05
-0.00285728
-7.54312e-05
-0.00295026
-0.00301696
-0.00293026
0.00308279
-0.000178104
0.00306005
-0.00333262
-0.000472015
-0.000339113
-0.00319921
0.00326621
-0.000116707
-0.000109414
-0.00328753
0.00330882
-0.000178285
-0.000180301
-0.00332991
0.00335091
-0.000173955
-0.000175563
-0.00337169
0.00339241
-0.000170002
-0.000171476
-0.00341291
0.00343334
-0.000166251
-0.000167613
-0.00345353
0.00347365
-0.000162679
-0.000163958
-0.00349353
0.00351335
-0.000159232
-0.000160443
-0.00353292
0.00355244
-0.000155903
-0.00015705
-0.00357172
0.00359094
-0.000152678
-0.000153769
-0.00360992
0.00362885
-0.000149543
-0.000150585
-0.00364753
0.00366616
-0.000146475
-0.00014748
-0.00368455
0.00370289
-0.000143453
-0.000144434
-0.00372099
0.00373904
-0.000140451
-0.000141418
-0.00375684
0.00377459
-0.000137452
-0.000138416
-0.00379208
0.00380952
-0.000134433
-0.000135407
-0.00382668
0.00384379
-0.000131366
-0.000132365
-0.00386061
0.00387737
-0.000128227
-0.000129264
-0.00389383
0.00391022
-0.000124984
-0.000126077
-0.00392631
0.00394232
-0.000121601
-0.000122771
-0.00395802
0.00397365
-0.000118037
-0.000119306
-0.00398895
0.00403633
-0.000114275
-0.000115642
-0.00405322
0.00407659
-6.91209e-05
-8.48961e-05
-0.00403669
0.004067
-7.53877e-05
-3.31918e-05
-8.1475e-06
1.005e-05
0.00407659
7.88988e-05
-0.000114013
0.00410212
0.00411691
6.47083e-06
2.78095e-05
0.00404325
0.00408186
-1.158e-05
-4.85687e-06
0.00403401
0.00402274
2.12094e-05
-3.74232e-05
0.0040368
0.00402009
2.41761e-05
-4.66467e-05
0.0040819
0.00407635
6.9214e-05
-7.841e-05
0.00408896
0.00410178
0.00411153
-0.00405112
-9.22424e-05
-0.00410575
0.00409708
-6.97402e-05
-6.90047e-05
0.00404626
-0.00402296
-9.33006e-05
-8.96621e-05
0.00399085
-0.00397543
-0.000126448
-0.000123726
0.00395995
-0.00394411
-0.000130073
-0.000127498
0.00392824
-0.00391201
-0.000133366
-0.000130957
0.00389574
-0.00387913
-0.000136358
-0.000134099
0.00386248
-0.0038455
-0.000139084
-0.000136963
0.00382848
-0.00381114
-0.000141581
-0.000139584
0.00379377
-0.00377609
-0.000143881
-0.000141994
0.00375838
-0.00374036
-0.00014602
-0.000144227
0.00372232
-0.00370398
-0.000148036
-0.00014632
0.00368561
-0.00366694
-0.000149972
-0.000148312
0.00364824
-0.00362925
-0.000151864
-0.000150244
0.00361023
-0.00359091
-0.000153758
-0.000152154
0.00357155
-0.00355189
-0.000155694
-0.000154087
0.00353218
-0.00351217
-0.000157724
-0.000156087
0.0034921
-0.00347173
-0.000159897
-0.000158205
0.00345129
-0.00343055
-0.000162263
-0.00016049
0.00340972
-0.00338859
-0.000164874
-0.000162994
0.00336737
-0.00334585
-0.000167775
-0.000165767
0.00332425
-0.00330235
-0.000170993
-0.000168844
0.00328036
-0.0032581
-0.000174548
-0.000172242
0.00323578
-0.00321317
-0.000178392
-0.000175985
0.0031905
-0.00313601
-0.000182638
-0.000180002
0.00308365
-0.00301163
-0.000147454
-0.000143198
-0.000119761
7.14684e-05
-0.00290197
-0.00299097
-0.00014042
6.67165e-05
-0.00289177
-0.00334356
-0.000489321
6.38943e-05
-0.00286544
0.00413686
-0.00413515
-7.71026e-05
0.00414631
-0.000123457
-5.68389e-05
4.61517e-05
0.00409965
-5.91522e-05
0.00409939
4.5038e-06
-0.0029491
3.35313e-05
-0.00293637
-1.62182e-05
-0.00302024
6.21614e-05
-0.00293607
9.08293e-05
-0.00294834
0.000119535
-0.00290535
-0.000106927
0.000110712
-0.00290575
-0.000160775
-0.00293712
-0.00294574
-0.00334564
0.0032165
-0.000342869
-0.000426446
0.000503856
-0.00342097
0.00345802
-0.00356752
-0.000316948
-0.000376946
-0.00311923
0.00319273
-0.000251602
-0.000241847
-0.00327598
0.00333268
-0.000173401
-0.000192669
-0.00335284
0.00337295
-0.000198387
-0.000200469
-0.00339283
0.0034126
-0.000193733
-0.000195441
-0.00343214
0.0034516
-0.000189463
-0.00019101
-0.00347084
0.00349001
-0.000185423
-0.000186852
-0.00350895
0.00352783
-0.000181563
-0.000182901
-0.00354649
0.0035651
-0.000177839
-0.000179103
-0.00358348
0.00360182
-0.000174237
-0.000175433
-0.00361993
0.00363799
-0.000170742
-0.000171878
-0.00365583
0.00367362
-0.000167336
-0.000168421
-0.00369118
0.00370871
-0.000163998
-0.000165044
-0.003726
0.00374325
-0.000160704
-0.000161723
-0.00376026
0.00377724
-0.000157428
-0.000158433
-0.00379397
0.00381067
-0.000154146
-0.000155151
-0.00382711
0.00384351
-0.000150832
-0.000151851
-0.00385966
0.00387575
-0.000147457
-0.000148506
-0.00389157
0.00390733
-0.000143992
-0.000145086
-0.00392282
0.00393824
-0.000140404
-0.000141562
-0.00395337
0.00396843
-0.000136661
-0.000137902
-0.00398319
0.00399788
-0.000132725
-0.00013407
-0.00401227
0.00402655
-0.000128552
-0.000130028
-0.0040674
0.00409569
-9.74037e-05
-0.000125754
-7.26521e-05
-5.40423e-05
1.33325e-05
0.0041173
5.5072e-05
-0.000100391
0.00414744
0.00411794
-4.28954e-05
2.7229e-05
0.00405892
0.0040523
-1.13269e-05
-4.75803e-06
0.00405009
0.00403864
2.07677e-05
-3.66696e-05
0.0040527
0.0040361
5.10401e-06
-3.30862e-05
0.00410988
0.00404478
0.00411485
0.00412658
-0.00411561
-0.000103213
-0.0041306
0.00412404
-6.31839e-05
-7.30174e-05
0.00407186
-0.00402855
-0.000136618
-0.000133411
0.00401441
-0.00399991
-0.000140948
-0.000137862
0.00398537
-0.00397049
-0.000144954
-0.00014204
0.00395557
-0.00394031
-0.000148623
-0.000145878
0.00392502
-0.0039094
-0.00015198
-0.000149393
0.00389374
-0.00387777
-0.000155058
-0.000152619
0.00386176
-0.00384545
-0.000157893
-0.000155587
0.00382911
-0.00381248
-0.000160519
-0.000158331
0.00379582
-0.00377886
-0.000162975
-0.000160888
0.00376188
-0.00374462
-0.000165301
-0.000163297
0.00372733
-0.00370976
-0.000167543
-0.000165601
0.00369216
-0.00367428
-0.000169741
-0.000167842
0.00365638
-0.00363819
-0.000171943
-0.000170063
0.00361997
-0.00360147
-0.000174195
-0.000172311
0.00358292
-0.0035641
-0.000176547
-0.000174633
0.00354522
-0.00352607
-0.00017905
-0.000177081
0.00350685
-0.00348737
-0.000181752
-0.000179703
0.00346781
-0.00344798
-0.000184703
-0.00018255
0.00342808
-0.00340792
-0.00018794
-0.000185665
0.00338768
-0.00336719
-0.00019149
-0.00018908
0.00334661
-0.00332579
-0.00019537
-0.000192815
0.00330489
-0.00328372
-0.000199564
-0.000196883
0.00326245
-0.00324093
-0.000204153
-0.000201274
0.00317808
-0.00311659
-0.000208943
-0.000206048
0.00307995
-0.0030657
-0.000175029
-0.000177059
-0.00030179
0.000117911
-0.00286164
-0.00297674
-0.000128727
0.000135029
-0.00294342
-0.00300074
-0.000193692
2.33024e-05
-0.00285117
-6.93992e-05
0.00411531
0.0041712
-0.000106316
0.000255401
-0.00351555
-0.000307366
5.19593e-06
-0.00292077
0.0003247
-0.00349027
2.06978e-05
-0.00290236
3.39279e-05
-0.00290814
4.11321e-05
-0.00294346
6.28368e-05
-0.00290808
9.20045e-05
-0.00292081
0.00012112
-0.00291575
0.000119179
-0.0028899
-0.000155969
0.00013398
-0.00292143
-0.000172392
-0.00298431
-0.00291724
-0.00361278
0.00349025
-0.000194423
-0.000390824
-0.00343736
0.000312633
0.00368747
-0.00357151
-0.000506789
-0.000232669
-0.00341434
0.00336149
-0.000290011
-0.000301036
-0.00334829
0.00332395
-0.000227259
-0.000228653
-0.00335592
0.00340527
-0.000222753
-0.00022464
-0.00342407
0.00344282
-0.000217143
-0.000219263
-0.00346136
0.0034798
-0.000212172
-0.000213979
-0.003498
0.00351613
-0.000207587
-0.000209215
-0.00353403
0.00355187
-0.000203261
-0.000204758
-0.0035695
0.00358706
-0.00019913
-0.000200526
-0.00360442
0.00362174
-0.00019515
-0.000196463
-0.00363884
0.0036559
-0.000191297
-0.000192538
-0.00367275
0.00368957
-0.000187554