/*--------------------------------*- C++ -*----------------------------------*\
  =========                 |
  \\      /  F ield         | OpenFOAM: The Open Source CFD Toolbox
   \\    /   O peration     | Website:  https://openfoam.org
    \\  /    A nd           | Version:  10
     \\/     M anipulation  |
\*---------------------------------------------------------------------------*/
FoamFile
{
    format      ascii;
    class       volVectorField;
    location    "77";
    object      U;
}
// * * * * * * * * * * * * * * * * * * * * * * * * * * * * * * * * * * * * * //

dimensions      [0 1 -1 0 0 0 0];

internalField   nonuniform List<vector> 
28942
(
(0.00443137 -0.00225784 -3.42558e-22)
(0.00599786 -0.0023414 -6.36625e-23)
(0.0179359 -0.0123863 -8.2311e-22)
(0.103306 0.0182357 -5.25186e-21)
(0.102343 0.0222782 1.71961e-21)
(0.0141761 0.000436626 0)
(0.0168488 1.851e-05 1.06953e-23)
(0.0195404 0.000564236 -9.45077e-24)
(0.13524 -0.0184268 -2.54228e-22)
(0.133896 -0.0167925 7.23677e-22)
(0.00979712 0.00401528 -6.74107e-22)
(0.0160716 0.00562984 2.55665e-22)
(0.00713891 0.00315334 0)
(0.00470841 0.00207008 0)
(0.0443334 0.00197259 -1.48578e-23)
(0.0425409 0.00253781 -5.94071e-24)
(0.089316 0.0158866 6.66895e-22)
(0.0870039 0.0138551 1.07333e-21)
(0.0121643 -0.0151121 2.91072e-21)
(0.02933 -0.0304665 -7.66037e-22)
(0.0981184 0.0373957 9.50751e-22)
(0.097297 0.0344317 0)
(0.0187415 0.00462779 1.16611e-21)
(0.00786463 0.00236391 5.49953e-22)
(0.0378002 0.00721233 9.43288e-22)
(0.057534 0.00291351 -8.59935e-22)
(0.00764754 -0.0184906 8.49906e-21)
(0.00669349 -0.0165551 -3.13048e-21)
(0.0355088 -0.0253219 5.70538e-22)
(0.0192998 -0.0136816 1.96901e-22)
(0.0145496 -0.00133627 0)
(0.0181903 -0.00115727 -1.34479e-23)
(0.0231179 0.00418918 2.80003e-22)
(0.0333211 0.00187608 -4.34752e-23)
(0.0188254 0.0180095 1.31153e-21)
(0.0157199 0.0191194 -1.30156e-21)
(0.0321694 0.0376169 -3.04847e-21)
(0.0186691 0.0305353 -1.06746e-21)
(0.00777044 -8.49515e-06 -8.93872e-24)
(0.00864882 0.016197 -2.61146e-21)
(0.0306492 -0.00620319 0)
(0.0513425 -0.0109694 0)
(0.111886 -0.0118065 -2.69055e-23)
(0.111384 -0.0118082 7.93473e-23)
(0.115927 -0.0117056 6.91342e-23)
(0.0275606 0.000187452 1.1338e-23)
(0.0256621 -0.000592543 -1.82369e-23)
(0.0366799 -0.000483878 -8.3174e-23)
(0.0351472 -0.000553747 2.37038e-23)
(0.0285589 -0.00266483 -2.05997e-22)
(0.0212381 -0.00319486 1.33823e-22)
(0.12865 0.00132193 -3.98758e-22)
(0.127966 0.000849072 -3.72608e-22)
(0.134558 -0.0211948 -3.77172e-24)
(0.13301 -0.0194684 1.38203e-22)
(0.0824964 0.00635791 7.16102e-22)
(0.10175 -0.000760895 2.49808e-22)
(0.00305902 0.00162094 -5.65306e-22)
(0.00894415 0.00367987 0)
(0.00825843 0.00328934 2.37279e-22)
(0.00288305 0.00148824 4.87828e-22)
(0.000362282 0.000226278 -4.05554e-22)
(0.000192899 0.000122678 -3.89754e-22)
(0.109772 -0.0426072 0)
(0.104904 -0.0256113 1.26861e-22)
(0.121775 -0.0331146 -4.36759e-23)
(0.123421 -0.0437688 0)
(0.0901072 -0.0328039 -6.3769e-22)
(0.0936112 -0.0352707 -4.19082e-22)
(0.00188614 -0.00113022 1.1326e-21)
(0.00249014 -0.00201834 -3.56878e-22)
(0.00487516 -0.0031574 8.85447e-22)
(0.0848773 -0.0457613 0)
(0.0912031 -0.0396246 2.16439e-21)
(0.0805463 -0.0530272 5.84718e-22)
(0.114142 0.0123979 2.38889e-22)
(0.112741 0.00689383 -2.6488e-22)
(0.125109 0.0109971 -1.1401e-22)
(0.00468372 -0.00286205 -5.33541e-23)
(0.00633896 -0.00442618 4.45688e-22)
(0.0510115 -0.0311483 1.25221e-22)
(0.0331567 -0.020538 -2.56889e-22)
(0.00211183 -0.00059654 3.20728e-21)
(0.00515847 -0.00207342 -1.24974e-21)
(0.100989 0.0482482 1.28542e-23)
(0.0970353 0.0552156 -7.62519e-22)
(0.0807253 0.0540129 6.95607e-22)
(0.0472071 0.0345114 -2.674e-21)
(0.0444355 0.0316075 1.89368e-21)
(0.0294933 0.0205963 -1.13108e-22)
(0.032714 0.0232491 -6.39811e-22)
(0.0379551 0.0283588 8.67264e-22)
(0.00440926 0.0027251 -5.92439e-23)
(0.00776317 0.00397744 -1.70751e-23)
(0.00318899 0.00202074 3.42166e-23)
(0.00192309 0.00164416 -4.5767e-22)
(0.00144972 0.00156749 5.61347e-22)
(0.0157429 0.011544 -3.24621e-21)
(0.0174956 0.0136358 7.43367e-22)
(0.00880647 -0.00384803 0)
(0.101389 0.00515946 0)
(0.0984003 0.0156833 -3.95379e-21)
(0.0604411 0.0104756 1.93742e-21)
(0.0886808 0.0178812 0)
(0.135465 -0.00111731 0)
(0.134903 -0.00183222 0)
(0.133213 -0.00232576 -2.46724e-22)
(0.114974 0.0266048 -2.11451e-22)
(0.114066 0.0280078 2.09081e-21)
(0.113268 0.0254678 1.12196e-21)
(0.00229439 0.00129948 1.05438e-21)
(0.00151163 0.000777342 -1.18344e-21)
(0.019054 -0.00553802 -5.51104e-22)
(0.0201353 -0.00506751 4.70743e-22)
(0.00910328 -0.00292982 9.30501e-22)
(0.00647663 0.0111489 1.47718e-21)
(0.0189679 0.0181597 3.45288e-21)
(0.0134651 0.0227996 2.72185e-22)
(0.00492084 0.0143059 -8.61252e-21)
(0.116994 0.04775 5.52128e-23)
(0.107867 0.0582393 1.06484e-21)
(0.118327 0.0548764 -1.8364e-21)
(0.0390879 -0.0294154 7.29202e-22)
(0.0240073 -0.0172636 -4.65826e-22)
(0.00532108 -0.000742184 -4.0981e-21)
(0.00453813 -0.0035922 0)
(0.0124958 -0.00167251 2.00017e-21)
(0.0219624 -0.0161291 7.76438e-22)
(0.0342523 -0.027782 -1.94981e-21)
(0.0346853 -2.15588e-05 5.75376e-23)
(0.0368815 0.000138065 -4.20727e-23)
(0.0325685 0.000158154 -1.7793e-24)
(0.0280529 -0.0419451 0)
(0.0296023 -0.0428366 0)
(0.089623 -0.018653 -4.61892e-22)
(0.0995908 -0.0220907 3.13872e-21)
(0.0870344 -0.0252786 0)
(0.0471134 -0.0401849 0)
(0.0581734 -0.0513803 -7.80905e-22)
(0.0413118 0.0393375 2.08177e-21)
(-2.5655e-06 0.000214154 5.14996e-22)
(-0.000194464 0.000130822 -3.39567e-22)
(0.0223247 -0.0192389 -7.89075e-22)
(0.120326 -0.0115775 3.89793e-22)
(0.119696 -0.0115255 -7.54424e-23)
(0.115442 -0.0057155 -6.69475e-23)
(0.108371 0.000987672 8.9217e-23)
(0.117636 -0.000310787 1.82918e-22)
(8.20856e-05 0.000259066 1.987e-22)
(0.0437447 0.0344188 3.19689e-21)
(0.0618743 0.046308 -7.86143e-22)
(0.0593095 0.0393651 -3.00823e-24)
(0.0226431 -0.000835097 5.62319e-24)
(0.0223111 -0.000818296 2.94348e-23)
(0.0242116 -0.000595862 1.15087e-24)
(0.0270333 -0.000602497 -1.44973e-23)
(0.045419 0.0380895 1.33774e-22)
(0.0189615 0.0160588 0)
(0.000139524 -2.97393e-05 3.70454e-22)
(0.000422774 -0.000256929 -4.10998e-22)
(0.00186141 -0.00101229 2.86927e-22)
(0.0365571 -0.0077227 -1.84548e-21)
(0.0648694 -0.00210399 -7.53153e-22)
(0.031439 -0.000213135 -2.18688e-24)
(0.074478 -0.0076432 2.71531e-22)
(0.0706888 -0.0157276 6.30471e-23)
(0.0943051 0.0399182 2.13951e-21)
(0.0914059 0.0454537 9.92838e-23)
(0.0887491 0.0290859 1.21365e-21)
(0.0914745 0.0308026 -8.79518e-22)
(0.0986972 0.0410791 0)
(0.126111 -0.000339291 1.48594e-22)
(0.126881 -0.000773298 2.8058e-22)
(0.128094 -0.012334 -2.93825e-22)
(0.129558 -0.0121385 5.02858e-22)
(0.117055 0.024148 2.59232e-22)
(0.119113 0.0250485 -7.34056e-22)
(0.117101 0.0261606 0)
(0.115135 0.0248983 1.52862e-22)
(0.116673 0.028083 0)
(0.117175 0.0361044 -5.4975e-22)
(0.115712 0.0381563 -3.002e-22)
(0.111339 0.0419692 -5.39363e-22)
(0.113733 0.0401013 0)
(0.116422 0.0430765 1.78363e-21)
(0.113699 0.0449992 4.73878e-23)
(0.108332 0.0441801 -3.0305e-22)
(0.0996303 0.0502831 -1.28442e-21)
(0.0984205 0.0454948 -2.26309e-22)
(0.024966 -0.00848693 6.05024e-23)
(0.0328242 -0.00934502 -2.41336e-23)
(0.00628637 -0.00248942 -6.95236e-22)
(0.0308313 -8.31516e-05 -3.66285e-23)
(0.0395146 -0.000271455 0)
(-2.79918e-06 -4.02804e-05 4.35585e-22)
(1.33443e-05 -4.74304e-05 2.21795e-22)
(0.0357563 -0.00181571 1.73295e-23)
(0.0422619 -0.00176403 7.11098e-24)
(0.0418076 -0.00121145 0)
(0.0345812 -0.000831895 7.6303e-24)
(0.0861856 0.00356018 -1.09012e-22)
(0.0854262 0.00322466 5.15035e-22)
(0.0863004 0.0033169 2.38225e-22)
(0.000670592 0.000271763 3.94219e-22)
(-0.000159509 -0.000129328 -5.70856e-22)
(-0.000201168 -0.000169047 4.86839e-22)
(0.00150038 0.000617484 0)
(7.99453e-05 8.78048e-05 1.14109e-21)
(0.00017196 -3.89905e-05 -8.23171e-22)
(0.00744852 0.00367363 -9.93333e-22)
(0.00145177 0.000781379 -1.18564e-21)
(0.00172068 0.000860691 0)
(0.00157199 0.0075435 0)
(0.000576949 0.00328104 0)
(0.000313304 0.00197673 0)
(0.136636 -0.00113051 5.5333e-23)
(0.137647 -0.000966155 0)
(0.13601 -0.00191598 -6.45423e-23)
(0.0881112 -0.0148538 4.41914e-21)
(0.0901179 -0.015263 -1.60413e-21)
(0.0890333 -0.0128785 0)
(0.0979365 0.000276826 -6.46785e-24)
(0.0985688 0.000265427 1.29444e-23)
(0.0973028 0.000288357 -4.3716e-24)
(0.0991962 0.000256623 0)
(0.0998221 0.000256717 -8.26397e-24)
(0.100441 0.000251362 0)
(0.100441 -0.000406882 0)
(0.101052 0.000234147 3.07082e-23)
(0.101044 -0.000428673 0)
(0.0998288 -0.000397477 -8.32218e-24)
(0.0992029 -0.000393273 0)
(0.0985746 -0.000388014 4.32672e-24)
(0.0979394 -0.00038646 -6.46352e-24)
(0.0973078 -0.000383195 4.36614e-24)
(0.10165 0.000215323 -2.93853e-23)
(0.101645 -0.000443337 -1.02781e-24)
(0.0966602 0.000305548 -7.48847e-29)
(0.0966599 -0.000372862 -6.66755e-24)
(0.0960071 0.000321171 3.54439e-23)
(0.102239 0.000204116 2.74707e-26)
(0.10225 -0.00044855 -1.02928e-24)
(0.0960107 -0.000370534 1.31344e-23)
(0.102829 0.000192344 2.76787e-23)
(0.103415 0.000183629 -2.76559e-23)
(0.102845 -0.000453913 2.07192e-24)
(0.103433 -0.000456751 4.09734e-24)
(0.0953737 0.000348422 -3.44851e-23)
(0.0953696 -0.00036651 -8.64378e-24)
(0.103996 0.00017363 0)
(0.104015 -0.000460107 -4.04136e-24)
(0.0947176 0.00036522 4.26207e-27)
(0.0947148 -0.000356277 -4.27275e-27)
(0.104572 0.000166329 0)
(0.104591 -0.000461172 0)
(0.0940563 0.000378493 0)
(0.0940532 -0.000349424 0)
(0.105142 0.000157458 0)
(0.105161 -0.000462913 1.94241e-24)
(0.0933902 0.00039195 -1.78529e-23)
(0.0933863 -0.000341254 -4.35804e-27)
(0.105706 0.00015119 1.0183e-25)
(0.105724 -0.000462303 -2.07451e-24)
(0.092719 0.000403494 1.79382e-23)
(0.0927146 -0.000334643 0)
(0.106264 0.000143237 0)
(0.106282 -0.000462195 0)
(0.0920435 0.000415663 -1.13388e-24)
(0.0920384 -0.000325634 1.94536e-23)
(0.106815 0.00013787 1.25915e-23)
(0.106833 -0.000459309 0)
(0.0913642 0.00042582 -9.50581e-26)
(0.0913576 -0.000316762 -1.8412e-23)
(0.10736 0.000130928 -1.88335e-23)
(0.107379 -0.000456803 -5.46532e-24)
(0.0906662 0.000429107 1.8764e-23)
(0.0906625 -0.000308139 0)
(0.1079 0.000127566 6.20314e-24)
(0.107919 -0.000448021 3.64496e-24)
(0.0899667 0.000439307 -9.48882e-24)
(0.0899628 -0.000302576 1.92382e-23)
(0.108429 0.0001269 -2.47683e-23)
(0.108458 -0.000431316 2.79162e-23)
(0.0892363 0.000434051 9.77659e-24)
(0.0892415 -0.000302752 3.09276e-25)
(0.10896 0.000129111 0)
(0.108987 -0.000415025 1.33005e-23)
(0.0884993 0.000429179 -1.96527e-23)
(0.0885115 -0.000310488 3.9309e-23)
(0.109503 0.000122594 0)
(0.109514 -0.000404712 0)
(0.0895173 0.0011654 -9.67387e-24)
(0.0887755 0.00116702 -3.9125e-23)
(0.0877391 0.000417685 0)
(0.0877684 -0.000330301 -2.00135e-23)
(0.0909527 0.00115245 -6.08085e-24)
(0.0902379 0.00115996 1.19401e-24)
(0.0923232 0.00112285 0)
(0.0916356 0.00113734 -1.96531e-23)
(0.0936624 0.00108868 -3.80109e-26)
(0.0929959 0.00110631 0)
(0.0949785 0.00105083 0)
(0.0943231 0.00107015 0)
(0.0962749 0.00100515 0)
(0.0956291 0.00102984 0)
(0.0975272 0.000958736 8.63452e-24)
(0.0968972 0.000980754 2.17518e-24)
(0.0987787 0.000924637 -8.3316e-24)
(0.0981599 0.000941262 -8.61946e-24)
(0.100009 0.000896156 1.48106e-23)
(0.0993901 0.000904044 1.89099e-23)
(0.101239 0.000872449 0)
(0.100626 0.000887479 0)
(0.10243 0.000845786 -6.51471e-26)
(0.101839 0.000858899 0)
(0.103597 0.000817047 0)
(0.103016 0.000831485 0)
(0.104742 0.00078817 0)
(0.104172 0.000802454 0)
(0.105865 0.000760102 0)
(0.105307 0.000773943 0)
(0.106963 0.000732891 0)
(0.106417 0.000746321 0)
(0.108036 0.000706066 0)
(0.107503 0.000719406 0)
(0.109089 0.000662709 -1.01166e-23)
(0.108562 0.000691568 0)
(0.109614 0.000640105 -3.26593e-24)
(0.110033 0.00011187 3.18909e-24)
(0.11004 -0.000398441 -3.16256e-24)
(0.108587 -0.000956742 0)
(0.109632 -0.000921636 -1.29778e-23)
(0.109111 -0.000938125 -6.68935e-24)
(0.107517 -0.000991051 1.83165e-24)
(0.108054 -0.000975819 -7.16587e-24)
(0.106429 -0.00101274 5.93103e-26)
(0.106976 -0.00100387 0)
(0.105318 -0.00102587 0)
(0.105877 -0.00101979 0)
(0.104181 -0.00103525 0)
(0.104753 -0.00103089 0)
(0.103021 -0.00104192 0)
(0.103604 -0.00103877 7.80114e-30)
(0.101838 -0.00104754 6.57644e-26)
(0.102432 -0.00104463 0)
(0.100638 -0.00104431 0)
(0.101237 -0.00104778 0)
(0.0994126 -0.00103755 0)
(0.100026 -0.00104045 0)
(0.0981647 -0.00103562 0)
(0.0987899 -0.00103389 -4.37449e-24)
(0.0968967 -0.00103894 1.14858e-24)
(0.097532 -0.00104075 -5.63583e-24)
(0.0956205 -0.00104397 0)
(0.0962656 -0.00103984 -4.58236e-24)
(0.0943135 -0.00104229 0)
(0.09497 -0.0010434 0)
(0.0929829 -0.00103944 0)
(0.0936511 -0.00104091 0)
(0.0916244 -0.00103443 0)
(0.0923082 -0.00103724 0)
(0.0902321 -0.00102943 -4.97217e-24)
(0.0909339 -0.00103049 0)
(0.0888101 -0.00104423 -2.01096e-23)
(0.0895251 -0.00103129 -4.99334e-24)
(0.0880776 -0.00106235 2.046e-23)
(0.0880205 0.00117021 3.87832e-23)
(0.110136 0.000621337 6.39283e-24)
(0.11015 -0.00090459 -1.24846e-23)
(0.0870039 -0.000361527 0)
(0.0873373 -0.0010957 0)
(0.0872533 0.00117312 0)
(0.0869657 0.000398426 0)
(0.0900775 0.00188142 0)
(0.0886222 0.00191799 9.71466e-24)
(0.0893547 0.00189771 9.81437e-24)
(0.0914911 0.00184275 1.24865e-23)
(0.0907902 0.00186331 -2.49533e-24)
(0.0928373 0.00179491 3.86471e-26)
(0.0921693 0.00181889 0)
(0.0941543 0.00174673 0)
(0.0934989 0.00177096 0)
(0.0954476 0.00169784 0)
(0.0948037 0.00172236 0)
(0.0967215 0.00165084 0)
(0.0960865 0.00167335 0)
(0.0979687 0.00160282 0)
(0.0973475 0.00162753 0)
(0.0991965 0.00156017 -3.49221e-26)
(0.0985812 0.00158234 9.00423e-24)
(0.100396 0.00151582 -3.3533e-26)
(0.0998024 0.00153674 -1.75856e-23)
(0.101594 0.00147045 0)
(0.100996 0.00149211 0)
(0.102766 0.00142968 3.25278e-26)
(0.102183 0.00144973 0)
(0.103914 0.0013896 0)
(0.103342 0.00140963 0)
(0.10504 0.00134958 0)
(0.10448 0.00136954 0)
(0.106143 0.00130979 0)
(0.105595 0.00132964 0)
(0.107223 0.00127009 0)
(0.106686 0.00128994 0)
(0.108277 0.00122886 0)
(0.107753 0.00124994 0)
(0.109312 0.00117301 6.90977e-24)
(0.108796 0.00120363 0)
(0.110555 0.000106159 0)
(0.110649 0.000603104 6.24603e-24)
(0.110335 0.00111672 0)
(0.109824 0.00114447 6.73061e-24)
(0.109851 -0.00142929 1.33926e-23)
(0.110357 -0.00140437 3.28766e-24)
(0.110661 -0.000891615 2.5667e-23)
(0.110559 -0.000389327 0)
(0.108824 -0.00147931 0)
(0.109339 -0.00145442 -2.0221e-23)
(0.107775 -0.00152355 5.7615e-26)
(0.108303 -0.00150117 7.20945e-24)
(0.106706 -0.00155609 -5.93101e-26)
(0.107244 -0.00154098 0)
(0.105613 -0.00158171 0)
(0.106163 -0.00156951 0)
(0.104496 -0.00160312 0)
(0.105057 -0.00159285 0)
(0.103355 -0.00162142 0)
(0.103928 -0.00161258 -7.80112e-30)
(0.102193 -0.00163757 -1.3143e-25)
(0.102777 -0.00162973 0)
(0.101013 -0.00164966 0)
(0.101605 -0.00164432 0)
(0.0998073 -0.00165936 2.20676e-24)
(0.100413 -0.00165438 0)
(0.098585 -0.00166672 0)
(0.0991973 -0.00166097 -2.19756e-24)
(0.0973409 -0.00167862 4.59268e-24)
(0.0979615 -0.00167299 4.56691e-24)
(0.0960758 -0.00168683 0)
(0.0967121 -0.00168303 0)
(0.094788 -0.00169609 0)
(0.0954347 -0.0016914 0)
(0.0934766 -0.0017059 0)
(0.0941353 -0.00170088 0)
(0.0921389 -0.00171708 0)
(0.0928113 -0.00171118 0)
(0.0907716 -0.00173186 7.94415e-26)
(0.0914593 -0.00172388 0)
(0.0893716 -0.00175352 -8.04583e-26)
(0.0900769 -0.00174196 0)
(0.0879408 -0.00180889 -2.1029e-23)
(0.0886591 -0.00177755 2.10194e-23)
(0.0878759 0.00193828 1.97479e-23)
(0.0865924 -0.00114094 0)
(0.0872153 -0.0018533 -4.27197e-23)
(0.0862391 -0.000399971 0)
(0.110837 0.00109565 0)
(0.11086 -0.00137867 -3.18802e-24)
(0.0864805 0.0011761 4.9977e-23)
(0.087124 0.00195934 1.99865e-23)
(0.085832 -0.00118897 1.0804e-23)
(0.0864801 -0.00190563 5.39849e-23)
(0.0861801 0.000374865 0)
(0.110629 0.00160698 2.629e-23)
(0.111116 0.00157499 -1.29821e-23)
(0.111162 -0.000874498 -6.31387e-24)
(0.111352 -0.00134966 3.13839e-23)
(0.0880968 0.00271398 7.01395e-23)
(0.0863522 0.0019797 -3.93759e-23)
(0.0865893 0.00277447 -1.75712e-22)
(0.0873396 0.00274057 -4.00588e-23)
(0.0895296 0.00264342 1.95434e-23)
(0.0888191 0.00268008 -5.96916e-23)
(0.0909145 0.00257475 -1.99977e-23)
(0.0902286 0.00260896 -1.50714e-23)
(0.0922743 0.00251238 -4.99284e-24)
(0.091601 0.00254465 -4.99281e-24)
(0.0935882 0.00245174 -3.86471e-26)
(0.0929374 0.00248239 0)
(0.094871 0.00239061 0)
(0.0942326 0.00242108 0)
(0.0961304 0.00233056 0)
(0.0955034 0.00236045 0)
(0.0973691 0.00227249 0)
(0.0967522 0.00230111 0)
(0.0985864 0.002217 0)
(0.0979801 0.00224417 0)
(0.0997822 0.00216197 0)
(0.0991862 0.00218924 0)
(0.100958 0.00210875 6.90369e-29)
(0.100374 0.00213604 0)
(0.102117 0.00205389 0)
(0.101539 0.00208089 0)
(0.103258 0.00200169 3.24331e-26)
(0.102691 0.00202756 0)
(0.104378 0.00195049 0)
(0.103821 0.00197605 0)
(0.105476 0.0018994 0)
(0.104929 0.00192496 0)
(0.106552 0.00184808 0)
(0.106016 0.00187379 0)
(0.107604 0.00179607 0)
(0.107081 0.00182222 0)
(0.108632 0.0017414 0)
(0.108121 0.00176939 0)
(0.109638 0.00167559 3.51628e-24)
(0.109138 0.00170982 -1.76998e-24)
(0.110136 0.0016417 -1.34146e-23)
(0.111061 0.000105007 -2.99232e-24)
(0.111332 0.00107315 1.25016e-23)
(0.11115 0.000591486 -9.56829e-24)
(0.111064 -0.0003882 0)
(0.110169 -0.00192503 -9.96337e-24)
(0.111146 -0.00185375 -2.87333e-23)
(0.11066 -0.00189075 2.31464e-23)
(0.109171 -0.0019928 0)
(0.109673 -0.00195848 0)
(0.108151 -0.00204372 -9.65029e-29)
(0.108664 -0.00201742 0)
(0.107108 -0.00208827 0)
(0.107632 -0.00206705 0)
(0.106042 -0.00212606 -6.07561e-26)
(0.106578 -0.00210784 0)
(0.104953 -0.00215913 0)
(0.105501 -0.00214312 0)
(0.103841 -0.00218843 0)
(0.1044 -0.00217421 0)
(0.102709 -0.00221461 6.56753e-26)
(0.103278 -0.00220189 0)
(0.101556 -0.00223746 6.71388e-26)
(0.102135 -0.00222645 0)
(0.100383 -0.00225855 0)
(0.100972 -0.00224804 0)
(0.099189 -0.00227822 0)
(0.0997888 -0.00226866 0)
(0.0979748 -0.00229827 0)
(0.0985836 -0.00228792 0)
(0.0967394 -0.00231693 0)
(0.09736 -0.00230742 0)
(0.095482 -0.00233744 -7.48575e-26)
(0.0961135 -0.002327 0)
(0.0942012 -0.00235971 0)
(0.0948446 -0.00234832 0)
(0.0928946 -0.00238484 0)
(0.0935513 -0.00237181 0)
(0.0915598 -0.00241471 -1.55427e-28)
(0.0922309 -0.00239907 0)
(0.090195 -0.0024513 1.71755e-28)
(0.0908815 -0.00243216 0)
(0.0888024 -0.00250494 8.30083e-26)
(0.0894992 -0.00247338 0)
(0.087387 -0.00259458 -4.36159e-23)
(0.0880966 -0.00254434 1.07282e-23)
(0.0857349 -0.00195825 1.09735e-23)
(0.0866815 -0.00265286 2.18087e-23)
(0.0856974 0.00117229 -1.95772e-23)
(0.0854575 -0.000442074 -2.09282e-23)
(0.111598 0.00154313 3.1754e-24)
(0.111627 -0.00182098 2.25792e-23)
(0.0855443 0.00197942 2.46229e-24)
(0.0850626 -0.00124449 0)
(0.0855934 0.0026824 2.69312e-22)
(0.0859706 -0.00271384 3.34913e-23)
(0.084996 -0.00201608 4.47129e-23)
(0.0872307 0.0036956 -4.43243e-22)
(0.0869543 0.00384128 8.13131e-23)
(0.0854019 0.000353626 0)
(0.0880514 0.00353233 4.50106e-23)
(0.0875328 0.00363732 2.29596e-23)
(0.0893481 0.0034245 4.06483e-23)
(0.0886612 0.00346764 -6.19553e-23)
(0.0907055 0.00333122 -2.02327e-23)
(0.0900372 0.00337981 -1.00915e-23)
(0.0920168 0.0032449 1.01478e-23)
(0.0913649 0.00328681 1.02719e-23)
(0.0933055 0.00316345 0)
(0.0926617 0.0032026 -1.72872e-26)
(0.094565 0.00308782 0)
(0.0939386 0.00312553 0)
(0.0958013 0.00301442 3.77632e-26)
(0.0951859 0.00305077 0)
(0.0970162 0.00294362 0)
(0.0964113 0.00297874 0)
(0.0982112 0.0028753 0)
(0.0976161 0.00290913 0)
(0.0993866 0.00280944 0)
(0.0988013 0.00284206 0)
(0.100542 0.00274496 3.47191e-26)
(0.0999667 0.00277696 0)
(0.101679 0.00268173 7.65722e-29)
(0.101113 0.00271352 0)
(0.102799 0.00261845 0)
(0.102241 0.00264989 0)
(0.1039 0.00255641 -6.47955e-26)
(0.103352 0.00258733 0)
(0.104982 0.00249486 0)
(0.104444 0.00252563 0)
(0.106043 0.00243311 0)
(0.105515 0.00246405 0)
(0.107084 0.00237063 0)
(0.106566 0.00240201 0)
(0.108101 0.00230674 0)
(0.107595 0.00233893 0)
(0.109096 0.0022396 0)
(0.108601 0.00227383 0)
(0.110069 0.00216647 -1.75589e-24)
(0.109584 0.00220264 0)
(0.11102 0.00208515 0)
(0.110546 0.00212622 -3.40007e-24)
(0.111949 0.00199933 -3.66134e-27)
(0.111489 0.0020432 0)
(0.111814 0.00105137 -1.26752e-23)
(0.112411 0.00196241 7.62688e-25)
(0.112075 0.00151508 6.19981e-24)
(0.11155 9.98718e-05 4.5628e-24)
(0.111639 0.000578219 -3.1493e-24)
(0.111652 -0.00085677 -1.58646e-24)
(0.111556 -0.000381106 1.5826e-24)
(0.112099 -0.00178859 0)
(0.111834 -0.0013277 -1.43866e-23)
(0.111525 -0.00232288 -6.45678e-24)
(0.112444 -0.00224093 -1.23558e-23)
(0.111988 -0.00228138 2.83767e-23)
(0.110586 -0.00240852 -3.39017e-24)
(0.111058 -0.00236648 0)
(0.109623 -0.00248493 0)
(0.110107 -0.0024469 0)
(0.108638 -0.00254888 -1.20268e-28)
(0.109134 -0.00251808 0)
(0.107631 -0.00260506 0)
(0.108137 -0.00257791 0)
(0.1066 -0.0026546 6.07561e-26)
(0.107118 -0.00263056 0)
(0.105547 -0.00269893 0)
(0.106076 -0.00267737 0)
(0.104472 -0.00273891 0)
(0.105012 -0.00271943 0)
(0.103377 -0.00277521 0)
(0.103927 -0.0027575 0)
(0.102262 -0.00280835 -1.53163e-28)
(0.102822 -0.00279215 0)
(0.101127 -0.00283961 0)
(0.101697 -0.00282414 0)
(0.0999724 -0.00286954 0)
(0.100552 -0.00285473 0)
(0.0987976 -0.00289943 0)
(0.0993873 -0.0028844 0)
(0.0976024 -0.00292927 0)
(0.0982027 -0.00291421 0)
(0.0963855 -0.00296099 7.48575e-26)
(0.0969966 -0.00294486 0)
(0.0951459 -0.00299537 0)
(0.0957686 -0.0029778 0)
(0.0938819 -0.00303374 0)
(0.0945171 -0.00301396 0)
(0.0925915 -0.00307792 -7.92785e-26)
(0.09324 -0.00305499 0)
(0.0912735 -0.00312948 8.06902e-26)
(0.0919361 -0.00310277 0)
(0.0899265 -0.00319086 -8.20705e-26)
(0.0906033 -0.00315866 0)
(0.0885609 -0.00327094 1.07765e-23)
(0.0892416 -0.00322591 -2.12624e-23)
(0.087202 -0.00338598 -1.08441e-23)
(0.087878 -0.00332307 2.20509e-23)
(0.0852483 -0.00277197 2.93335e-25)
(0.0865131 -0.00344947 2.22349e-23)
(0.084897 0.00114976 -2.00467e-23)
(0.0846746 -0.000473941 0)
(0.0847226 0.00192811 -1.93722e-22)
(0.084287 -0.00128387 0)
(0.11239 0.00244832 -3.16409e-24)
(0.112825 0.00239662 2.31739e-24)
(0.112561 -0.00175562 -1.21373e-23)
(0.112892 -0.00219244 -1.37328e-23)
(0.0846213 0.0026198 -1.88423e-22)
(0.0842483 -0.00207007 -4.51503e-23)
(0.0860453 0.00381987 0)
(0.0886435 0.00438187 -5.13248e-23)
(0.0845266 -0.00283126 -2.21583e-23)
(0.0858161 -0.00351118 3.36209e-23)
(0.0880468 0.00437134 1.0308e-22)
(0.0846118 0.000329964 0)
(0.0896043 0.00421036 0)
(0.0890918 0.00429991 -4.57534e-23)
(0.0908299 0.00408366 0)
(0.0901989 0.00414394 0)
(0.0920964 0.003975 0)
(0.0914652 0.00402669 1.04549e-23)
(0.0933306 0.00387674 0)
(0.0927154 0.00392537 0)
(0.0945497 0.00378385 0)
(0.093942 0.00382898 0)
(0.0957496 0.00369685 0)
(0.0951522 0.00374003 0)
(0.0969299 0.00361306 -3.77632e-26)
(0.0963421 0.00365454 0)
(0.0980912 0.00353242 0)
(0.0975129 0.00357239 0)
(0.0992342 0.00345458 0)
(0.098665 0.00349318 0)
(0.100359 0.00337919 0)
(0.0997989 0.00341662 0)
(0.101466 0.00330557 -9.31132e-29)
(0.100915 0.00334219 0)
(0.102555 0.00323324 9.04534e-29)
(0.102013 0.00326937 0)
(0.103627 0.00316129 0)
(0.103093 0.00319717 0)
(0.104682 0.00308998 8.50336e-29)
(0.104157 0.00312561 0)
(0.105718 0.00301869 0)
(0.105203 0.00305439 0)
(0.106735 0.00294679 0)
(0.106229 0.00298287 0)
(0.107732 0.00287361 0)
(0.107236 0.00291041 0)
(0.108708 0.00279842 0)
(0.108223 0.00283634 0)
(0.109661 0.00271981 0)
(0.109187 0.00275968 0)
(0.110592 0.00263666 0)
(0.110129 0.00267889 0)
(0.111501 0.00254551 3.36686e-24)
(0.111049 0.00259023 3.4517e-24)
(0.111949 0.00249636 -6.46092e-24)
(0.112284 0.00102981 -6.21765e-24)
(0.112865 0.0019259 0)
(0.112535 0.00148201 -6.27217e-24)
(0.112028 9.68697e-05 0)
(0.112111 0.000567085 6.34551e-24)
(0.112126 -0.000841169 9.47371e-24)
(0.112033 -0.000374092 -3.20331e-24)
(0.112304 -0.00130203 -1.86134e-23)
(0.111992 -0.00277702 3.24514e-24)
(0.112866 -0.00266904 1.20553e-23)
(0.112434 -0.0027293 0)
(0.111095 -0.00287286 -6.73497e-24)
(0.111547 -0.0028267 6.75717e-24)
(0.110174 -0.00295911 0)
(0.110638 -0.00291782 0)
(0.109232 -0.00303485 -1.42209e-28)
(0.109706 -0.00299811 0)
(0.108266 -0.00310251 0)
(0.108752 -0.00306962 0)
(0.107278 -0.00316336 0)
(0.107775 -0.00313372 0)
(0.106269 -0.00321851 0)
(0.106776 -0.0031916 0)
(0.105239 -0.00326883 0)
(0.105757 -0.00324424 0)
(0.10419 -0.00331511 6.52342e-26)
(0.104717 -0.00329244 0)
(0.103121 -0.00335817 -6.69856e-26)
(0.103657 -0.00333699 0)
(0.102032 -0.00339922 0)
(0.102579 -0.00337889 0)
(0.100925 -0.00343902 0)
(0.101481 -0.00341924 0)
(0.0997982 -0.00347874 0)
(0.100364 -0.00345884 0)
(0.0986519 -0.00351911 0)
(0.0992276 -0.00349875 0)
(0.097485 -0.00356167 0)
(0.098071 -0.00354006 0)
(0.0962965 -0.00360758 0)
(0.0968935 -0.00358415 0)
(0.0950852 -0.00365826 -7.74264e-26)
(0.0956938 -0.00363224 0)
(0.0938499 -0.00371541 7.88643e-26)
(0.0944706 -0.00368593 0)
(0.09259 -0.00378051 -8.0267e-26)
(0.0932231 -0.00374693 0)
(0.0913053 -0.00385474 0)
(0.0919506 -0.0038164 0)
(0.0899961 -0.00393885 0)
(0.0906532 -0.00389539 0)
(0.0886786 -0.00403823 8.52806e-26)
(0.0893397 -0.00398605 1.08344e-23)
(0.0873543 -0.00416325 -5.63524e-23)
(0.0880116 -0.00409701 0)
(0.0851339 -0.00358207 -3.3406e-23)
(0.0866981 -0.00423411 -2.91993e-25)
(0.084096 0.00112509 6.26463e-23)
(0.0838837 -0.000501122 0)
(0.113261 0.00234845 -1.20444e-23)
(0.113297 -0.00261904 -2.32445e-23)
(0.0838143 0.00186447 -3.30537e-23)
(0.0848995 0.00335951 1.0517e-24)
(0.0837971 0.00256222 9.40339e-23)
(0.0835129 -0.00131378 0)
(0.0834857 -0.00210621 1.12851e-23)
(0.0869954 0.00434202 -9.6651e-23)
(0.0860332 0.00424478 8.24653e-23)
(0.084467 0.00345744 -8.11782e-23)
(0.0837932 -0.00288106 -3.38781e-23)
(0.0844316 -0.0036476 2.25822e-23)
(0.0860536 -0.00431859 2.21672e-23)
(0.0838135 0.000306177 0)
(0.0902389 0.00498556 2.87496e-24)
(0.0887323 0.00499831 5.08098e-25)
(0.0895512 0.00498064 2.246e-23)
(0.0913103 0.00484087 2.22128e-23)
(0.0907772 0.00491997 -2.2328e-23)
(0.0924804 0.00469611 4.11709e-26)
(0.0918778 0.00476476 0)
(0.0936673 0.00457952 0)
(0.093077 0.00463513 0)
(0.0948344 0.00447271 0)
(0.0942527 0.00452557 0)
(0.0959863 0.0043714 0)
(0.0954123 0.00442114 0)
(0.097121 0.00427521 3.82796e-26)
(0.0965559 0.00432289 0)
(0.0982383 0.00418244 0)
(0.0976818 0.00422841 0)
(0.0993387 0.00409294 0)
(0.0987906 0.00413732 0)
(0.100422 0.00400635 0)
(0.0998826 0.00404931 0)
(0.101489 0.00392225 0)
(0.100958 0.00396403 0)
(0.10254 0.00384005 -3.4626e-26)
(0.102017 0.00388096 0)
(0.103574 0.00375916 1.04744e-28)
(0.103059 0.00379952 0)
(0.104592 0.00367883 0)
(0.104085 0.00371894 0)
(0.105593 0.00359876 6.44565e-26)
(0.105094 0.00363881 0)
(0.106576 0.0035183 0)
(0.106087 0.00355863 0)
(0.107542 0.00343678 0)
(0.107062 0.00347773 0)
(0.108489 0.00335349 0)
(0.108018 0.00339541 0)
(0.109415 0.00326761 0)
(0.108955 0.00331094 0)
(0.110321 0.00317804 0)
(0.109871 0.00322338 0)
(0.111204 0.00308365 5.47534e-26)
(0.110765 0.00313152 0)
(0.112066 0.00298267 -3.38157e-24)
(0.111639 0.00303452 0)
(0.112906 0.0028709 3.21908e-24)
(0.112489 0.00292768 0)
(0.113725 0.00275216 3.05624e-24)
(0.113317 0.00281248 -3.13384e-24)
(0.1133 0.0018843 6.06348e-24)
(0.11413 0.00269332 0)
(0.113688 0.00230063 9.01214e-24)
(0.112737 0.00100836 0)
(0.112982 0.00145167 0)
(0.112493 9.4616e-05 0)
(0.112573 0.000553911 0)
(0.112587 -0.000823787 0)
(0.112497 -0.000366278 0)
(0.113009 -0.00172108 1.23699e-23)
(0.112759 -0.0012779 3.07738e-24)
(0.113716 -0.00256667 3.02771e-24)
(0.113329 -0.00215029 2.42036e-23)
(0.113367 -0.00308916 1.57249e-23)
(0.11417 -0.00296686 3.00083e-24)
(0.113771 -0.00302738 -6.11251e-24)
(0.11254 -0.00320847 3.23198e-24)
(0.112954 -0.00314913 -1.93861e-23)
(0.11169 -0.00331567 -1.34666e-28)
(0.112118 -0.00326285 0)
(0.110817 -0.00341124 0)
(0.111256 -0.00336435 0)
(0.109923 -0.00349826 -1.6385e-28)
(0.110373 -0.00345587 0)
(0.109006 -0.00357704 0)
(0.109467 -0.00353862 0)
(0.108068 -0.00364869 0)
(0.10854 -0.00361371 0)
(0.10711 -0.00371419 0)
(0.107591 -0.00368217 0)
(0.106132 -0.00377444 0)
(0.106623 -0.00374493 0)
(0.105135 -0.00383036 -1.30267e-25)
(0.105635 -0.0038029 0)
(0.104119 -0.00388295 0)
(0.104629 -0.00385702 0)
(0.103085 -0.00393337 0)
(0.103604 -0.00390837 0)
(0.102033 -0.00398261 0)
(0.102561 -0.00395809 0)
(0.100962 -0.00403184 0)
(0.1015 -0.00400717 0)
(0.0998726 -0.00408214 -7.27333e-26)
(0.10042 -0.00405678 0)
(0.0987639 -0.00413495 0)
(0.0993207 -0.00410817 0)
(0.0976352 -0.0041916 0)
(0.0982021 -0.00416273 0)
(0.0964856 -0.00425351 7.74265e-26)
(0.097063 -0.00422182 0)
(0.0953145 -0.00432222 -2.57574e-28)
(0.0959027 -0.00428694 0)
(0.0941216 -0.00439903 1.60272e-25)
(0.0947208 -0.00435957 0)
(0.0929072 -0.00448478 0)
(0.093517 -0.00444078 0)
(0.0916713 -0.0045798 0)
(0.0922917 -0.00453096 0)
(0.0904161 -0.00468306 -2.88924e-28)
(0.0910465 -0.00463138 0)
(0.0891422 -0.00479879 0)
(0.0897803 -0.00473844 0)
(0.087895 -0.0049454 -3.34805e-23)
(0.0885142 -0.00486789 0)
(0.0853914 -0.0043977 -2.85692e-25)
(0.0872804 -0.00503166 5.68246e-23)
(0.0832552 0.00108105 0)
(0.0878976 0.00500043 1.30283e-22)
(0.0829747 0.00180678 2.25794e-23)
(0.114259 0.00314023 -3.05049e-24)
(0.114639 0.00307723 0)
(0.114129 -0.00251559 2.94216e-24)
(0.11456 -0.00290144 -5.84554e-24)
(0.083091 -0.000526394 0)
(0.0827305 -0.00133537 0)
(0.0831113 0.00263496 0)
(0.0827174 -0.00213549 -1.11149e-23)
(0.0830532 -0.00293327 -2.23463e-23)
(0.0837246 -0.00371792 0)
(0.0847174 -0.00447969 5.74887e-23)
(0.0866469 -0.00511968 -4.5834e-23)
(0.0830045 0.000277413 0)
(0.0907646 0.00562434 -1.0809e-26)
(0.0870242 0.00495936 4.086e-23)
(0.0892831 0.00569677 -1.45612e-22)
(0.0900215 0.00567752 4.26895e-23)
(0.0920847 0.00555484 -1.38941e-23)
(0.0914418 0.00557141 -2.22686e-23)
(0.0931818 0.00542852 0)
(0.092646 0.00550305 0)
(0.0942959 0.00527546 -4.11672e-26)
(0.093728 0.00534779 0)
(0.0954143 0.00514969 0)
(0.0948584 0.00521038 0)
(0.0965118 0.00503423 0)
(0.0959652 0.00509118 0)
(0.0975929 0.00492477 0)
(0.0970544 0.00497876 0)
(0.0986576 0.00482023 -3.82796e-26)
(0.0981273 0.00487203 0)
(0.0997064 0.00471933 0)
(0.099184 0.00476936 0)
(0.10074 0.00462177 0)
(0.100225 0.00467017 0)
(0.101758 0.00452719 0)
(0.101251 0.00457415 0)
(0.102761 0.00443511 0)
(0.102261 0.00448089 0)
(0.103748 0.00434495 3.43971e-26)
(0.103256 0.00438984 0)
(0.104721 0.00425608 1.17945e-28)
(0.104236 0.00430042 0)
(0.105678 0.00416777 0)