/*--------------------------------*- C++ -*----------------------------------*\
  =========                 |
  \\      /  F ield         | OpenFOAM: The Open Source CFD Toolbox
   \\    /   O peration     | Website:  https://openfoam.org
    \\  /    A nd           | Version:  10
     \\/     M anipulation  |
\*---------------------------------------------------------------------------*/
FoamFile
{
    format      ascii;
    class       surfaceScalarField;
    location    "2.5";
    object      phi;
}
// * * * * * * * * * * * * * * * * * * * * * * * * * * * * * * * * * * * * * //

dimensions      [0 3 -1 0 0 0 0];

internalField   nonuniform List<scalar> 
51391
(
-0.0355785
0.0117732
-0.0103514
0.0341568
0.0146063
-0.0168704
-0.0333144
0.0235933
-0.0155534
0.00656639
0.0355111
-0.000144601
0.0426625
-0.00730636
0.00523194
-0.040588
0.0347504
-0.00618426
0.0140964
-0.0568354
0.0331429
0.0434002
-0.0197077
0.0049904
-0.0503272
-0.0114986
0.0574968
-0.00277169
-0.0497347
0.0287547
0.037713
-0.00897087
0.0186863
-0.0240717
0.0616384
-0.0562529
0.0565675
0.0167865
-0.0546678
0.0731832
-0.0521964
-0.0450585
0.019694
0.00675705
-0.00991475
-0.0165363
0.0181301
-0.00153709
0.00310106
0.0559697
0.0388428
-0.0511617
-0.0436508
0.0790437
0.0230659
-0.0461399
0.106573
-0.0638275
-0.061182
0.0184364
0.0393296
0.0760645
-0.00882104
0.0386565
-0.0079731
-0.0371453
0.00646191
0.00695019
0.0275573
0.00414898
0.0114248
-0.036782
0.0253572
0.0245514
0.0116573
-0.024784
-0.00372135
-0.0427646
-0.000164772
0.0466507
-0.0459126
0.0513498
-0.00915857
0.00588015
-0.00719562
-0.0445971
0.00622421
-0.0431086
-0.0439887
0.0106593
0.0363476
-0.00301811
5.9387e-05
-0.0442129
0.0260767
0.0312333
0.0203533
0.0255287
-0.0198053
0.0210781
-0.00736503
-0.0137131
0.0135181
0.00756006
-0.0219736
0.0209692
-0.00636066
-0.0277047
0.035916
-0.000536091
-0.00767517
-0.0454321
0.0171395
0.0349053
-0.00661269
-0.044187
0.00301608
-0.00426119
0.0462825
-0.00360399
-0.04416
0.00148145
0.0322487
-0.00324471
0.0172786
0.0170001
0.0534436
0.0216496
-0.0920933
0.0165185
-0.0568555
0.0573372
0.0594725
0.016964
-0.0599181
-0.0379606
0.00330821
0.00646049
0.0281919
-0.0382073
0.000797671
-0.000551056
0.000173507
-0.0374646
-0.0009162
0.0680688
0.0226531
-0.0332161
-0.0575057
0.0137122
0.073327
-0.0189705
0.00486956
-0.0113874
0.0127623
-0.00624438
-0.035216
0.0109001
0.0291855
0.0261325
-0.033074
-0.0282745
0.0125386
-0.045415
-0.053148
0.0860244
-0.0164661
0.0864959
-0.0574912
-0.0519492
0.0328657
0.0190836
-0.0338671
-0.0180821
0.0487569
-0.0300594
0.00500858
-0.0237062
0.00704271
0.000947861
0.0407663
0.000561497
-0.0369324
0.00631158
-0.0650998
-0.0190579
0.029304
0.0548537
-0.0174997
-0.0478594
0.000259322
0.0214784
-0.00216344
-0.0368147
0.027114
-0.0246935
-0.052247
0.0274448
-0.0244115
0.0492137
0.0191143
-0.0420573
-0.0224805
0.0114394
-0.0247887
0.0358298
-0.0422565
-0.00941382
0.0291898
-0.0442948
-0.00612959
0.0081679
0.00796858
-0.00169473
-0.00627385
0.00402603
0.00394255
0.00537769
0.00814039
0.0183629
-0.0255637
-0.00445086
0.0116516
-0.00171083
0.0200738
0.019135
0.016748
-0.00621868
-0.0296644
0.0218219
0.0239995
-0.0266863
0.0465626
0.00499223
-0.029733
-0.0471274
0.046808
-0.00518696
0.00550645
0.00518039
0.0385672
-0.00643418
-0.00463362
0.00267185
0.0298026
0.00616917
-0.0386436
0.0290045
-0.0369455
0.0106128
0.0154112
0.0433959
0.0365578
-0.0367096
0.000949466
0.0245835
0.0152826
-0.0101983
0.0124831
-0.00646125
0.00417645
0.0191273
-0.026599
-0.0027266
0.0202665
0.0113439
0.00893135
0.0261247
-0.000261587
-0.0347945
0.0146944
0.0261251
-0.0318882
0.0259139
0.0149052
0.000870037
-0.00267329
0.0385
-0.0366968
0.0410879
4.04488e-05
-0.0402583
0.0110578
-0.0152598
-0.0134471
0.0176491
-0.0228902
0.017417
0.016531
-0.00258058
-0.0101233
-0.00255587
-0.00985896
0.0318994
0.00919289
0.0344184
-0.00792983
0.017964
-0.0291619
0.0222451
-0.0110473
0.0421917
0.010145
-0.0343727
0.0413225
-0.00643712
0.0477771
-0.021494
-0.0331069
0.00682379
-0.00121055
0.047934
0.00105369
0.0462369
-0.00114434
-0.0463031
0.0252077
-0.00667547
-0.00282735
0.0344276
0.00216118
-0.0337614
0.0268559
0.00215281
-0.0318361
0.040277
-0.00852273
0.00284428
0.0427964
-0.0125386
-0.0331021
0.00212215
0.0397471
-0.0390249
-0.0531523
-0.0560903
0.039412
-0.0494138
-0.0431506
-0.0434135
0.00345456
-0.00422803
-0.00401739
-0.0436344
0.00423825
0.00235953
0.0369672
-0.00484505
-0.0344817
0.0368612
-0.032177
-0.00232465
0.0115524
-0.0411729
0.0343877
-0.00476719
-0.023768
-0.000175438
0.0354959
0.0409628
0.00679593
-0.00849721
-0.0392616
0.00746974
-0.00720752
0.0407006
0.0178586
0.0552609
-0.016552
0.0274445
-0.0519793
-0.0436622
0.068197
0.0401825
-0.0706429
0.057905
0.0181649
-0.018105
0.0401227
0.06329
0.00919776
-0.0639723
-0.00851539
0.00455317
0.0708156
-0.0120788
0.0944039
0.000711956
0.0212936
-0.116409
-0.0162588
0.0538072
-0.0202797
0.0263195
-0.02893
0.0422292
-0.0214287
-0.0410802
0.000992851
0.0256682
-0.0260239
-0.000637099
0.0141474
-0.00178568
-0.0113688
-0.00395131
0.00585391
0.0122448
0.0346491
-0.0129322
0.0109647
-0.00889416
-0.0341056
0.00720296
0.0357968
-0.0276703
0.0432776
-0.0245015
0.00500908
0.00272913
-0.0354085
0.0046003
-0.0336968
-0.0295324
0.0293902
-0.0402336
0.0313734
0.0305241
-0.00301461
-0.0377996
0.00227092
0.0385433
0.00465196
-0.0244054
-0.0132174
0.0329708
-0.0245144
-0.00663372
0.0358001
-0.0457022
-0.00321765
-0.0413605
-0.00351381
-0.000827914
-0.040913
0.00054159
-0.000989068
-0.040978
0.00042958
-0.000364547
-0.041222
7.77334e-05
0.00016623
-0.0412374
9.84025e-06
5.55739e-06
-0.0412356
-1.22769e-05
1.05144e-05
-0.0412314
-1.52987e-05
1.10983e-05
-0.0412264
-1.704e-05
1.20202e-05
-0.0412213
-1.68733e-05
1.1788e-05
-0.0412158
-1.61631e-05
1.06181e-05
-0.04121
-1.40558e-05
8.25763e-06
-0.0412034
-1.20001e-05
5.4344e-06
-0.0411958
-9.47165e-06
1.85588e-06
-0.0411869
-7.66071e-06
-1.2212e-06
-0.0411774
-6.09454e-06
-3.4154e-06
-0.0411671
-5.36398e-06
-4.87922e-06
-0.0411564
-5.13112e-06
-5.59565e-06
-0.0411454
-5.73783e-06
-5.27815e-06
-0.0411343
-6.64576e-06
-4.49831e-06
-0.0411229
-8.01972e-06
-3.36482e-06
-0.0411112
-8.99191e-06
-2.69478e-06
-0.0410989
-9.98336e-06
-2.3109e-06
-0.041086
-1.02407e-05
-2.6386e-06
-0.0410721
-1.08358e-05
-3.05633e-06
-0.0410576
-1.08168e-05
-3.66815e-06
-0.0410418
-1.01624e-05
-5.65651e-06
-0.0410243
1.02608e-06
-1.85428e-05
-0.0409758
-6.56243e-06
-4.18952e-05
-0.0407434
-0.000234596
2.17321e-06
-0.0412771
-0.000742109
0.00127581
-0.0406463
-0.000930689
0.000299864
-0.0412855
0.00179802
-0.00115878
-0.0438127
0.000578961
0.00194824
0.00685235
-0.0324307
-0.0182344
-0.0395982
0.0405062
0.000890011
-0.042853
0.00383383
-0.0421073
0.0425409
0.00151456
0.0349903
-0.0393436
-0.00228045
-0.000548879
0.0370344
-0.0014952
-0.00158633
0.0368375
-0.0383131
0.00305815
-0.0414609
0.0414605
-0.000930246
-7.87513e-05
-0.0411603
0.0410067
-8.104e-05
-0.00044192
-0.0410182
0.0410374
-1.81751e-05
-1.80689e-05
-0.0410534
0.0410676
-2.51018e-05
-2.60725e-05
-0.0410821
0.0410948
-2.29885e-05
-2.52902e-05
-0.0411078
0.0411194
-2.05926e-05
-2.29784e-05
-0.0411316
0.0411428
-1.78517e-05
-2.01758e-05
-0.0411546
0.0411654
-1.5925e-05
-1.75681e-05
-0.0411763
0.0411856
-1.53825e-05
-1.62622e-05
-0.0411944
0.0412013
-1.6412e-05
-1.64434e-05
-0.0412078
0.0412127
-1.89673e-05
-1.85015e-05
-0.0412177
0.0412214
-2.05713e-05
-2.11213e-05
-0.0412254
0.0412286
-1.84547e-05
-2.10636e-05
-0.0412322
0.0412522
-1.01754e-05
-1.58989e-05
-0.041282
0.0412549
0.000456731
4.79056e-05
-0.0421561
0.0403423
-0.00169995
-0.000359628
-0.00221901
0.0406171
-0.0412871
-0.000319062
-0.0418542
-0.00476032
0.0333971
-0.00206494
0.0418145
-0.0413998
-0.000248464
0.000162824
0.0416898
-0.0419492
0.000269989
0.000295507
0.0416778
-0.041936
0.000270216
-0.000260323
0.0416642
-0.0419223
0.000268724
-0.000260076
0.0416505
-0.0419087
0.000263586
-0.000263479
0.0416364
-0.0418937
0.000256116
-0.000270421
0.0416193
-0.0418747
0.000250441
-0.00027781
0.0415989
-0.0418534
0.000249245
-0.000281365
0.0415776
-0.0418318
0.000250845
-0.000280342
0.0415558
-0.0418091
0.00025097
-0.000278684
0.041532
-0.0417836
0.000248593
-0.000279762
0.0415047
-0.0417562
0.000245846
-0.0002826
0.0414509
-0.041722
0.000229168
-0.000323809
0.0412621
-0.0402658
0.000279484
-0.000457667
0.000540227
-0.00292037
0.0343049
-0.000671896
0.000708596
0.0368008
-0.000987493
0.03735
-0.00480799
0.00267788
-0.036183
-0.00088951
-0.0363492
-0.0371896
0.0384596
0.00140795
0.00192488
-0.00140565
-0.0367022
-0.0364733
0.00120855
0.00586988
-0.030917
-0.0178059
-0.0396808
0.040374
0.000196787
-0.0387302
0.00288329
0.037132
-0.040205
-0.00168741
-0.00417429
0.034651
0.0344929
-0.00153517
0.00134216
-0.00234795
0.0356568
0.0363556
-0.0400437
0.0408442
0.000714107
0.00147401
-0.0410636
0.0408262
-0.000692805
-0.00029822
-0.0404389
0.0404078
-4.99176e-05
-5.46284e-05
-0.0404382
0.0404644
-4.44417e-05
-4.848e-05
-0.0404819
0.0404969
-4.00575e-05
-4.35485e-05
-0.0405109
0.0405241
-3.62166e-05
-3.92987e-05
-0.0405367
0.0405487
-3.2639e-05
-3.5545e-05
-0.0405604
0.0405717
-2.91792e-05
-3.18553e-05
-0.0405828
0.0405932
-2.64092e-05
-2.85891e-05
-0.0406031
0.040612
-2.43269e-05
-2.61104e-05
-0.04062
0.0406268
-2.32812e-05
-2.43733e-05
-0.0406325
0.0406373
-2.37969e-05
-2.41612e-05
-0.0406411
0.0406445
-2.39927e-05
-2.49235e-05
-0.0406473
0.04065
-2.12207e-05
-2.37987e-05
-0.0406535
0.0406595
-1.61321e-05
-1.93709e-05
-0.0407219
0.0407485
0.000430099
-1.44822e-05
-0.040844
0.0391544
-1.0432e-05
-0.000455092
-0.0379066
0.0366836
-0.00105748
-0.000971127
-0.036524
0.0364981
-0.000961597
-0.00133557
0.0412232
-0.0414407
-0.000101528
-0.00104674
0.0412739
-0.0415497
2.72943e-05
-3.97375e-06
0.0412505
-0.0409774
-3.14034e-06
-3.60518e-06
0.0412347
-0.0409616
-2.88242e-06
-3.07498e-06
0.0412183
-0.0409454
-4.19511e-06
-3.36017e-06
0.0412026
-0.0409301
-8.89552e-06
-6.2811e-06
0.0411875
-0.0409146
-1.67033e-05
-1.30477e-05
0.0411713
-0.0408975
-2.33265e-05
-2.11607e-05
0.0411532
-0.040879
-2.50164e-05
-2.56371e-05
0.0411341
-0.0408594
-2.38053e-05
-2.52273e-05
0.0411135
-0.0408378
-2.47696e-05
-2.46055e-05
0.0410902
-0.0408129
-2.87071e-05
-2.7396e-05
0.0410635
-0.0407846
-3.30317e-05
-3.19261e-05
0.0410531
-0.0406
-0.000223953
-5.53227e-05
0.0409007
-0.0406302
8.97203e-06
-0.000156955
0.000284
-0.000310764
-0.036619
0.0360403
-0.00381834
0.0359633
-0.000931053
-0.0368238
-0.00166337
0.00109541
0.037066
0.0376603
-0.0373782
-0.00124375
0.0372281
-0.00123111
0.00106429
-0.00104795
-0.0367185
0.00169097
-0.0371
-0.0352445
0.00238418
-0.00375443
0.00294089
-0.034431
-0.0349822
-0.00051716
5.79432e-05
0.0372601
0.0379283
0.00108132
-0.00265867
0.0372342
0.0374949
-0.037557
0.0383451
0.000619873
0.0374366
-0.0367643
0.0010187
0.0010882
-0.0393548
0.039952
0.000116915
0.000464277
-0.0397374
0.0391191
-7.45577e-05
-8.36241e-05
-0.0391379
0.0391554
-6.74899e-05
-7.33614e-05
-0.0391728
0.0391886
-6.02634e-05
-6.58496e-05
-0.0392039
0.0392179
-5.40411e-05
-5.88607e-05
-0.0392315
0.039244
-4.86954e-05
-5.29198e-05
-0.0392562
0.0392675
-4.39228e-05
-4.7755e-05
-0.0392787
0.039289
-3.95109e-05
-4.2998e-05
-0.0392991
0.0393083
-3.56218e-05
-3.87157e-05
-0.0393171
0.0393248
-3.20469e-05
-3.48864e-05
-0.0393319
0.0393379
-2.92624e-05
-3.1458e-05
-0.0393432
0.0393474
-2.80853e-05
-2.94159e-05
-0.0393512
0.0393543
-2.7111e-05
-2.864e-05
-0.0393572
0.0393601
-2.40692e-05
-2.67431e-05
-0.0393632
0.0393665
-1.94667e-05
-2.25164e-05
-0.0393701
0.0398164
-1.62531e-05
-1.80192e-05
-0.039377
0.0393811
-1.45812e-05
-1.56488e-05
-0.0384464
0.0377836
-0.000394644
-3.63758e-05
-0.000930201
0.0375369
-0.0388119
-0.000412349
-0.0376462
-0.0023857
0.0362135
-0.0016445
0.0398793
-0.0399726
-8.16671e-06
2.06134e-05
0.0399677
-0.0399311
-9.26786e-06
-8.89993e-06
0.0399244
-0.0399168
-1.07033e-05
-1.03769e-05
0.0399083
-0.0398996
-1.15747e-05
-1.15468e-05
0.0398906
-0.0398821
-1.27575e-05
-1.23815e-05
0.0398736
-0.0398659
-1.66539e-05
-1.46873e-05
0.0398583
-0.039851
-2.39458e-05
-2.0684e-05
0.0398435
-0.0398362
-3.06702e-05
-2.86273e-05
0.0398284
-0.0398205
-3.2888e-05
-3.34386e-05
0.0398119
-0.0398029
-3.27861e-05
-3.38465e-05
0.0397928
-0.0397821
-3.54526e-05
-3.47068e-05
0.0397702
-0.0397577
-4.1164e-05
-3.93785e-05
0.039744
-0.0397302
-4.68904e-05
-4.55872e-05
0.0397344
-0.0399063
-5.20524e-05
-5.10945e-05
0.0400063
-0.0399382
-5.90701e-05
-5.69745e-05
0.0395894
-0.0393248
-6.7832e-05
-6.48068e-05
0.0360614
-0.0359614
0.00228416
-0.000380115
0.000765077
-0.0014571
-0.036408
-0.0368358
0.000836511
-0.00324413
0.0365488
-0.000632379
-0.0369177
-0.001005
0.000432679
0.0376383
-0.00137644
0.0375995
-0.000608746
-0.037263
-0.00078293
-0.0373927
-0.0348967
0.00187615
0.00267703
-0.00083982
-0.0362682
0.0371504
-0.038101
-0.00143507
0.000762423
-0.000374446
-0.0367959
0.000708927
-0.0367823
-0.00338813
0.0363575
0.0352183
-0.0014561
0.00228302
-0.0345026
-0.0364544
-0.000840122
-0.000280834
0.038381
0.0375208
0.000892094
-0.00133063
0.0376727
0.0381062
0.00266038
-0.00273008
0.0364272
0.0378785
-0.0373362
0.0373287
0.00102623
0.0363325
-0.0370163
0.00139274
-0.000167224
-0.0375504
0.038286
-0.000115653
0.000866453
-0.0388637
0.0390851
-0.000104427
-0.000113514
-0.0391038
0.0391233
-9.40406e-05
-0.000102317
-0.0391422
0.0391597
-8.49254e-05
-9.23478e-05
-0.0391768
0.0391924
-7.59117e-05
-8.29505e-05
-0.0392076
0.0392214
-6.78631e-05
-7.40486e-05
-0.0392349
0.0392471
-6.09479e-05
-6.63491e-05
-0.0392591
0.03927
-5.48392e-05
-5.96875e-05
-0.0392806
0.0392903
-4.92034e-05
-5.36408e-05
-0.0392996
0.039308
-4.39878e-05
-4.80547e-05
-0.0393159
0.039323
-3.90558e-05
-4.28153e-05
-0.0393295
0.0393352
-3.49844e-05
-3.80253e-05
-0.0393405
0.039345
-3.25863e-05
-3.46723e-05
-0.0393491
0.0393528
-3.08058e-05
-3.27822e-05
-0.0393565
0.0393602
-2.77741e-05
-3.04526e-05
-0.0393643
0.0393685
-2.36959e-05
-2.65822e-05
-0.0393731
0.0393775
-2.05951e-05
-2.25871e-05
-0.0393822
0.0393868
-1.92261e-05
-2.03765e-05
-0.0394026
0.0391342
-0.000126257
-5.21442e-05
-0.0385112
0.0379004
-0.000632915
-0.000307239
-0.0375285
0.0376995
-0.00154739
-0.00085923
0.0390416
-0.0394437
-1.02405e-05
-0.000703874
0.039412
-0.0394084
-1.17707e-05
-1.11184e-05
0.0394038
-0.0393984
-1.46689e-05
-1.34612e-05
0.0393919
-0.0393845
-1.80378e-05
-1.69502e-05
0.0393761
-0.0393673
-2.03221e-05
-1.99851e-05
0.039358
-0.0393491
-2.16848e-05
-2.16749e-05
0.0393403
-0.0393323
-2.46048e-05
-2.35046e-05
0.0393249
-0.0393183
-3.05542e-05
-2.81611e-05
0.0393119
-0.0393059
-3.66537e-05
-3.49683e-05
0.0392996
-0.039293
-3.95352e-05
-3.97658e-05
0.0392853
-0.0392769
-4.12023e-05
-4.15019e-05
0.0392671
-0.0392566
-4.5993e-05
-4.44777e-05
0.0392447
-0.0392324
-5.35212e-05
-5.12404e-05
0.0392189
-0.0392052
-6.06074e-05
-5.90693e-05
0.0391903
-0.039175
-6.73322e-05
-6.59277e-05
0.0391584
-0.0391416
-7.58376e-05
-7.36227e-05
0.039123
-0.0391049
-8.5909e-05
-8.34342e-05
0.0393906
-0.0370092
-9.72725e-05
-9.43914e-05
0.0350259
-0.0340023
0.00125938
-0.000107145
0.00110855
-0.00140295
-0.0364879
-0.0364185
0.000510791
0.00323581
-0.00198134
-0.0357571
-0.0344058
0.00363934
8.75591e-05
-0.037614
-0.000941196
-0.0373083
-0.00378892
0.0362772
-0.000100039
-0.0379459
-0.00106576
0.00121234
0.0375529
0.0376578
-0.0385018
-0.000703409
0.0373514
-0.00075936
-0.000238249
-0.0375289
-0.000944222
-0.0372547
0.00244836
-0.00153999
-0.0366655
0.00103458
-0.000307624
-0.0372148
0.00111771
-0.0365017
0.00298881
-0.0349462
-0.037308
-0.000874108
0.000913159
0.0375993
0.0379377
-2.42183e-06
-4.55127e-05
0.0384289
0.0384316
0.000160261
-0.00118843
0.0387009
0.0382209
0.000660625
-0.00206794
0.0378346
0.0373507
-0.0369422
0.0379859
0.000349017
0.0355149
-0.0364342
0.00203702
-0.000916533
-0.0375884
0.0382893
0.000325332
0.000230333
-0.0391268
0.0390449
-3.37233e-05
2.89072e-05
-0.0390675
0.0390885
-0.00012543
-0.000136098
-0.0391093
0.0391287
-0.000113427
-0.000123152
-0.0391476
0.0391649
-0.000102217
-0.000111246
-0.0391818
0.0391972
-9.13161e-05
-9.98226e-05
-0.0392121
0.0392256
-8.13853e-05
-8.89647e-05
-0.0392387
0.0392505
-7.27868e-05
-7.94108e-05
-0.0392619
0.0392723
-6.51888e-05
-7.11186e-05
-0.0392823
0.0392912
-5.81746e-05
-6.36069e-05
-0.0392998
0.0393075
-5.16573e-05
-5.6624e-05
-0.0393148
0.0393214
-4.56966e-05
-5.01553e-05
-0.0393279
0.0393338
-4.0855e-05
-4.4469e-05
-0.0393394
0.0393445
-3.77002e-05
-4.03416e-05
-0.0393495
0.0393541
-3.53745e-05
-3.77207e-05
-0.0393587
0.0393633
-3.23813e-05
-3.51096e-05
-0.0393683
0.0393733
-2.86855e-05
-3.1531e-05
-0.0393785
0.0393836
-2.56304e-05
-2.78564e-05
-0.0393886
0.0393933
-2.38747e-05
-2.54314e-05
-0.0393537
0.0392658
-3.83154e-05
-1.25864e-05
-0.0392188
0.0383663
0.000219658
-0.000260316
-0.000994719
0.038266
-0.0387277
-0.000973397
-0.0382122
-0.0017369
0.0361602
-0.00140231
0.0395322
-0.0394105
-0.000131965
0.000100658
0.0394072
-0.0394036
-1.53895e-05
-1.43509e-05
0.0393992
-0.0393941
-1.97193e-05
-1.79048e-05
0.0393881
-0.0393814
-2.47655e-05
-2.29988e-05
0.0393736
-0.0393653
-2.8564e-05
-2.77855e-05
0.0393563
-0.0393475
-3.05124e-05
-3.06553e-05
0.0393386
-0.0393307
-3.25819e-05
-3.23666e-05
0.0393233
-0.0393171
-3.67365e-05
-3.5505e-05
0.0393115
-0.0393065
-4.16811e-05
-4.05601e-05
0.0393012
-0.0392955
-4.5274e-05
-4.50614e-05
0.0392885
-0.0392806
-4.91363e-05
-4.84452e-05
0.0392711
-0.0392608
-5.63248e-05
-5.3945e-05
0.0392491
-0.0392369
-6.57386e-05
-6.29503e-05
0.0392235
-0.0392098
-7.4278e-05
-7.24578e-05
0.039195
-0.0391798
-8.2498e-05
-8.07719e-05
0.0391633
-0.0391465
-9.26538e-05
-9.01145e-05
0.0391283
-0.0391096
-0.000104646
-0.000101646
0.0390892
-0.0390684
-0.000118103
-0.000114763
0.0390455
-0.0376522
-0.000133919
-0.000129984
0.0348144
-0.0337523
0.00192668
0.000801503
0.000957592
-0.000609796
-0.0368495
-0.0363978
0.000921165
0.00139205
-0.000440561
-0.0358977
-0.0339052
0.00154497
-0.00244066
0.0366499
0.000165807
-0.0378798
-0.00130777
-0.0375406
-0.00125844
0.000903359
0.037908
-0.00179056
0.0378835
-0.000612348
-0.0375718
-0.00130112
-0.0358049
-0.000682166
-0.0377909
-0.000591391
-0.0369709
-0.00124322
-0.0365814
0.0374653
-0.0375316
-0.00167066
0.000693316
-0.00204162
-0.0345494
0.000151586
-0.00104931
-0.0359517
0.000565024
-0.0368112
0.000643628
-0.0338555
-0.00280421
0.0365237
0.0352516
-0.000590504
-0.03845
-0.000756624
0.000190002
0.0381659
0.0380845
-0.000465868
0.000633055
0.0382618
0.0381557
0.000564427
-7.04924e-05
0.0382069
0.0394184
0.00109937
-0.00107492
0.0378101
0.0383796
0.00257067
-0.0029854
0.0369385
0.0381457
-0.0370619
0.0387079
0.000390992
0.0365402
-0.036469
0.000493753
0.000399562
-0.0372318
0.037844
-0.00026314
0.000559531
-0.0382142
0.0388367
-0.000297198
-0.000139842
-0.0389253
0.0390529
-0.000161299
-5.9711e-05
-0.0390751
0.0390958
-0.000146068
-0.000158359
-0.0391163
0.0391353
-0.000132445
-0.000143645
-0.0391539
0.039171
-0.000119248
-0.000129885
-0.0391875
0.0392025
-0.000106318
-0.000116352
-0.0392169
0.03923
-9.44128e-05
-0.000103414
-0.0392425
0.0392537
-8.40429e-05
-9.19129e-05
-0.0392645
0.0392742
-7.49051e-05
-8.1914e-05
-0.0392836
0.0392919
-6.65638e-05
-7.29244e-05
-0.0393
0.0393073
-5.89863e-05
-6.46906e-05
-0.0393145
0.0393212
-5.23864e-05
-5.73336e-05
-0.0393279
0.0393342
-4.7179e-05
-5.1178e-05
-0.0393405
0.0393464
-4.35645e-05
-4.66542e-05
-0.0393522
0.0393576
-4.07649e-05
-4.35053e-05
-0.039363
0.0393683
-3.76234e-05
-4.05475e-05
-0.0393737
0.039379
-3.3987e-05
-3.69793e-05
-0.0393844
0.0393895
-3.06901e-05
-3.32795e-05
-0.0393944
0.0393988
-2.82664e-05
-3.03375e-05
-0.0394143
0.0394024
-2.64533e-05
-2.80943e-05
-0.0391683
0.0394987
-0.000110759
-2.61764e-05
-0.0386393
0.0383567
-0.000420767
-0.000135316
-0.0384759
0.0374556
-0.000770222
-0.00087859
0.0384468
-0.0394059
-1.43116e-05
-0.000487075
0.0392898
-0.0394057
-1.60283e-05
-1.54631e-05
0.0394022
-0.0393984
-1.91764e-05
-1.7873e-05
0.0393941
-0.0393894
-2.43805e-05
-2.22432e-05
0.039384
-0.0393782
-3.06105e-05
-2.83724e-05
0.0393714
-0.0393642
-3.57864e-05
-3.45373e-05
0.0393562
-0.0393481
-3.86271e-05
-3.86966e-05
0.0393397
-0.039332
-4.02676e-05
-4.07243e-05
0.0393248
-0.0393188
-4.27998e-05
-4.26817e-05
0.0393133
-0.0393085
-4.64975e-05
-4.60028e-05
0.0393035
-0.0392981
-5.06747e-05
-5.00702e-05
0.0392915
-0.039284
-5.66483e-05
-5.49957e-05
0.039275
-0.0392652
-6.61857e-05
-6.29459e-05
0.0392539
-0.0392421
-7.75533e-05
-7.41919e-05
0.0392291
-0.0392156
-8.77354e-05
-8.55253e-05
0.0392009
-0.0391859
-9.75282e-05
-9.54729e-05
0.0391695
-0.0391528
-0.000109336
-0.000106462
0.0391347
-0.0391163
-0.000123074
-0.000119752
0.0390963
-0.0390759
-0.000138534
-0.000134746
0.0390538
-0.0390309
-0.000156833
-0.000152041
0.0380567
-0.0359523
-0.000177789
-0.000172667
0.0342123
-0.0347436
0.0011749
-0.000194971
0.00154502
-0.00383576
-0.0315647
0.000258905
-0.0334575
0.000972596
-0.00126991
-0.0365139
-0.0363072
0.000810822
-0.000512824
-0.0379794
6.30139e-05
-0.0389047
-0.00323779
0.035504
-0.00046817
-0.0377858
0.000100373
-0.0379469
-0.00133504
0.00111706
0.0376735
0.0380952
-0.0381763
-0.000689116
0.0375899
-0.00082969
-0.00084446
-0.0375379
-0.000788993
-0.0375962
-0.0010185
-0.0371956
-0.00455146
-0.0463744
0.0193611
-0.00106764
-0.0365631
-0.000949726
-0.0362719
0.000456081
-0.00123837
-0.0357316
0.000922602
-0.0367737
-0.0388998
-0.00120044
0.000718509
0.0383899
0.0378001
-0.00105126
0.000803205
0.038414
0.0377517
0.000460391
-1.30373e-07
0.0378015
0.0394193
3.0051e-06
-9.10945e-05
0.038295
0.0394213
1.26373e-05
-0.000643188
0.0384407
0.0383011
0.000791637
-0.00169334
0.0378402
0.0382941
-0.0370835
0.0374148
0.000162524
0.0360628
-0.0364858
0.00134561
-0.000209934
-0.0376044
0.0383187
-0.000323263
0.000209883
-0.0389374
0.0389069
-0.00023266
-5.91255e-05
-0.0389924
0.0389004
-0.000205196
-0.000225382
-0.0390406
0.0390626
-0.000183286
-0.000199901
-0.0390842
0.0391043
-0.000166216
-0.000179964
-0.0391243
0.0391429
-0.000150998
-0.000163653
-0.0391611
0.0391776
-0.000135806
-0.000148059
-0.0391936
0.039208
-0.00012071
-0.000132322
-0.0392218
0.0392341
-0.000106776
-0.000117193
-0.039246
0.0392566
-9.46658e-05
-0.000103734
-0.0392668
0.039276
-8.41148e-05
-9.21075e-05
-0.0392849
0.039293
-7.46886e-05
-8.18281e-05
-0.039301
0.0393084
-6.63846e-05
-7.26516e-05
-0.0393158
0.0393228
-5.94425e-05
-6.4751e-05
-0.03933
0.0393369
-5.40407e-05
-5.837e-05
-0.0393438
0.0393503
-5.00214e-05
-5.3566e-05
-0.0393566
0.0393625
-4.66485e-05
-4.98749e-05
-0.0393683
0.0393738
-4.30763e-05
-4.63683e-05
-0.0393793
0.0393844
-3.91526e-05
-4.24603e-05
-0.0393896
0.0393943
-3.54017e-05
-3.84171e-05
-0.0393988
0.0394028
-3.22544e-05
-3.48367e-05
-0.0394066
0.0394098
-2.96945e-05
-3.19126e-05
-0.039413
0.0393296
-2.73773e-05
-2.93341e-05
-0.0392215
0.0388257
-2.49923e-05
-2.71734e-05
-0.000229216
0.0377741
-0.0389433
-0.000501457
-0.0382175
-0.00154599
0.0365257
-0.00103392
0.0394132
-0.03941
-1.75011e-05
-1.71988e-05
0.0394065
-0.0394029
-1.95582e-05
-1.89846e-05
0.039399
-0.0393951
-2.31303e-05
-2.17872e-05
0.0393908
-0.0393865
-2.86909e-05
-2.64975e-05
0.0393818
-0.0393769
-3.55108e-05
-3.30773e-05
0.0393714
-0.0393655
-4.16703e-05
-4.00595e-05
0.0393588
-0.0393519
-4.55213e-05
-4.53381e-05
0.0393446
-0.0393374
-4.73951e-05
-4.81069e-05
0.0393304
-0.039324
-4.91417e-05
-4.97283e-05
0.039318
-0.0393125
-5.20249e-05
-5.20403e-05
0.0393068
-0.0393009
-5.65208e-05
-5.57612e-05
0.0392943
-0.039287
-6.39469e-05
-6.16778e-05
0.0392785
-0.0392693
-7.53754e-05
-7.14344e-05
0.0392588
-0.0392476
-8.86931e-05
-8.46868e-05
0.0392352
-0.0392222
-0.000100736
-9.80046e-05
0.0392079
-0.0391932
-0.000112229
-0.000109789
0.0391771
-0.0391608
-0.000125702
-0.000122487
0.039143
-0.0391249
-0.000141168
-0.000137534
0.0391053
-0.0390853
-0.000158529
-0.000154363
0.0390636
-0.0390414
-0.000179025
-0.000173752
0.0390173
-0.0389922
-0.00020287
-0.00019671
0.0389639
-0.0375199
-0.000269088
-0.000223288
-0.00251067
0.00128199
-0.00143144
-0.0366243
-0.0364296
0.00122576
-0.00284402
0.0366547
-3.38647e-05
-0.0384137
6.74679e-05
-0.0388718
-0.00110771
0.000881232
0.0379
-0.00155275
0.0380349
-0.000450074
-0.0381802
0.000108796
-0.0388447
-0.000608374
-0.037948
-0.000552133
-0.0415955
-0.000760051
-0.0375032
-0.000380433
-0.040762
-0.000741034
-0.0367718
-0.000968448
-0.0365418
-0.000862918
-0.0363001
0.00502409
-0.0354671
0.0367893
-0.0381691
-0.000166183
0.00115438
-0.00144941
-0.0363292
0.00125942
-0.0365346
-0.0024967
0.0361784
0.0363004
-0.00200778
-0.0388662
-0.00048532
0.000322603
0.0385526
0.038196
0.000602838
6.86278e-06
0.0378043
0.0386772
-3.3144e-06
3.96857e-07
0.0378044
0.0394228
2.26724e-06
-8.25067e-05
0.0383753
0.0394239
-5.81009e-06
-0.000148595
0.0385951
0.0382128
0.000332947
-0.00111028
0.0386175
0.0384785
0.00171411
-0.00268796
0.0371522
0.0372585
-0.0369884
0.0380974
0.00023666
0.0367858
-0.0364466
0.000920225
0.00102316
-0.0377185
0.0382171
-0.000336089
0.00016894
-0.0387526
0.0387254
-0.000296048
-0.000325652
-0.038953
0.0389803
-0.000259923
-0.000286694
-0.0390063
0.0390299
-0.000228794
-0.000251438
-0.0390527
0.0390739
-0.000204442
-0.000222725
-0.0390948
0.0391142
-0.000185675
-0.000200841
-0.0391335
0.0391514
-0.000168847
-0.000182956
-0.0391688
0.0391846
-0.000151603
-0.000165478
-0.0391998
0.0392133
-0.000134305
-0.000147478
-0.0392263
0.039238
-0.000118428
-0.000130175
-0.0392492
0.0392593
-0.000104778
-0.000114913
-0.0392691
0.0392781
-9.30941e-05
-0.00010191
-0.0392869
0.0392951
-8.29044e-05
-9.06585e-05
-0.0393033
0.0393111
-7.41498e-05
-8.08638e-05
-0.039319
0.0393265
-6.69665e-05
-7.26272e-05
-0.0393341
0.0393414
-6.12903e-05
-6.60199e-05
-0.0393486
0.0393553
-5.67227e-05
-6.08065e-05
-0.0393619
0.0393678
-5.26037e-05
-5.64144e-05
-0.0393736
0.0393789
-4.83639e-05
-5.2148e-05
-0.0393841
0.0393888
-4.39226e-05
-4.76405e-05
-0.0393935
0.0393977
-3.96396e-05
-4.3079e-05
-0.0394018
0.0394054
-3.58735e-05
-3.88938e-05
-0.0394088
0.0394118
-3.26557e-05
-3.53081e-05
-0.0394147
0.0394172
-2.98757e-05
-3.22228e-05
-0.0394192
0.0394966
-0.000102339
-2.92297e-05
-0.0393786
0.0389976
-0.000308064
-0.000111269
-0.039024
0.0380229
-0.000551588
-0.000856176
0.0389339
-0.0394164
-1.8898e-05
-0.000269173
0.0394132
-0.0394099
-2.07867e-05
-2.044e-05
0.0394062
-0.0394025
-2.33054e-05
-2.26648e-05
0.0393985
-0.0393945
-2.70922e-05
-2.58024e-05
0.0393904
-0.0393865
-3.26384e-05
-3.05997e-05
0.0393824
-0.0393784
-3.94878e-05
-3.71355e-05
0.0393742
-0.0393697
-4.61113e-05
-4.43294e-05
0.0393647
-0.0393593
-5.0937e-05
-5.03787e-05
0.0393531
-0.0393467
-5.38179e-05
-5.42563e-05
0.0393397
-0.0393328
-5.60654e-05
-5.66965e-05
0.0393256
-0.0393186
-5.89921e-05
-5.92416e-05
0.0393114
-0.0393044
-6.35402e-05
-6.29502e-05
0.039297
-0.0392896
-7.14048e-05
-6.90817e-05
0.0392814
-0.0392728
-8.3922e-05
-7.95978e-05
0.0392632
-0.0392529
-9.89957e-05
-9.43491e-05
0.0392412
-0.0392289
-0.000113014
-0.000109666
0.0392153
-0.0392012
-0.000126327
-0.000123426
0.0391858
-0.0391699
-0.000141527
-0.000137933
0.0391527
-0.0391352
-0.000158727
-0.000154762
0.0391161
-0.0390967
-0.000177955
-0.000173418
0.0390755
-0.039054
-0.000200576
-0.000194875
0.0390305
-0.0390063
-0.000227081
-0.000220168
0.0389793
-0.03804
-0.00120848
-0.00025027
0.0389199
-0.00378165
-0.00163076
0.000944711
-0.00127301
-0.0362063
-0.0364884
0.000986512
-0.00174221
0.00126168
-0.0338922
-0.0365793
0.00567523
-3.70569e-05
-0.0388267
7.30852e-05
-0.0388361
-0.00269875
0.0363112
-1.4714e-06
-0.0387871
0.000116891
-0.0395137
-0.000903292
0.000927267
0.0379989
0.038174
-0.0382908
-0.000434813
0.0380719
-0.000801251
3.93439e-05
-0.0387474
-0.000303129
-0.0416728
8.56049e-05
-0.0383299
0.0029312
-0.0386691
-0.000239659
-0.0375006
0.00281898
-0.0370244
-0.00061808
-0.0367867
-0.000930856
-0.0368187
-0.000954382
-0.0366479
-0.000260212
-1.34797e-05
-0.0362147
-0.00034861
-0.0361179
0.000414056
0.00186669
-0.0361729
-0.0364182
0.00025295
-0.0388302
-0.00085821
0.000313532
0.0384447
0.038104
-0.000543251
0.000758466
0.0383374
0.0379663
-9.28782e-06
6.51956e-06
0.037807
0.0394263
-3.52352e-06
8.3344e-07
0.0378071
0.0394258
1.65833e-06
0.000565134
0.0378085
0.0394264
0.000650292
0.00013459
0.0378102
0.0394282
0.00018385
-1.00746e-05
0.0384437
0.0387969
0.00110417
-0.00132755
0.0373756
0.0383526
-0.0365893
0.0372373
0.000272246
0.0361302
-0.0360719
-7.17647e-05
0.000527378
-0.0376143
0.0384943
-0.000643329
0.000646134
-0.0388459
0.038879
-0.000369264
-0.000182628
-0.0389116
0.0389416
-0.000326051
-0.00035823
-0.0389705
0.0389967
-0.000286206
-0.000315517
-0.0390219
0.0390447
-0.00025155
-0.000276646
-0.0390667
0.039087
-0.000224697
-0.00024477
-0.039107
0.0391255
-0.000204199
-0.000220813
-0.0391438
0.0391606
-0.000185646
-0.000201226
-0.0391769
0.0391916
-0.000166352
-0.000181791
-0.0392058
0.0392185
-0.000147009
-0.000161614
-0.0392307
0.0392417
-0.000129474
-0.000142372
-0.0392524
0.0392623
-0.000114628
-0.000125641
-0.039272
0.039281
-0.000102143
-0.000111619
-0.0392901
0.0392986
-9.14508e-05
-9.97094e-05
-0.0393073
0.0393155
-8.23569e-05
-8.95003e-05
-0.0393238
0.0393317
-7.4831e-05
-8.09346e-05
-0.0393395
0.0393469
-6.86377e-05
-7.39033e-05
-0.0393541
0.0393607
-6.33015e-05
-6.80234e-05
-0.039367
0.0393727
-5.82949e-05
-6.2747e-05
-0.0393782
0.0393831
-5.3275e-05
-5.75956e-05
-0.0393878
0.0393921
-4.82396e-05
-5.23833e-05
-0.0393963
0.0394001
-4.34537e-05
-4.72722e-05
-0.0394038
0.0394071
-3.91871e-05
-4.25754e-05
-0.0394103
0.0394132
-3.5506e-05
-3.84783e-05
-0.0394159
0.0394184
-3.2351e-05
-3.49744e-05
-0.039421
0.0393481
-2.95271e-05
-3.18064e-05
-0.039266
0.0389846
-2.67185e-05
-2.90788e-05
-0.000162334
0.0390263
-0.0391728
-1.97438e-05
-0.0382025
-0.00119204
0.0366958
-0.00118395
0.0394207
-0.0394178
-2.17428e-05
-2.12929e-05
0.0394146
-0.0394113
-2.40829e-05
-2.36426e-05
0.0394077
-0.039404
-2.69732e-05
-2.6266e-05
0.0394001
-0.0393964
-3.08792e-05
-2.96959e-05
0.0393925
-0.039389
-3.6184e-05
-3.44275e-05
0.0393855
-0.0393824
-4.26447e-05
-4.05854e-05
0.0393792
-0.0393761
-4.92626e-05
-4.74965e-05
0.0393725
-0.0393685
-5.49565e-05
-5.39522e-05
0.0393635
-0.0393578
-5.95237e-05
-5.92025e-05
0.0393509
-0.0393434
-6.35718e-05
-6.35608e-05
0.039335
-0.0393265
-6.75492e-05