/*--------------------------------*- C++ -*----------------------------------*\
  =========                 |
  \\      /  F ield         | OpenFOAM: The Open Source CFD Toolbox
   \\    /   O peration     | Website:  https://openfoam.org
    \\  /    A nd           | Version:  10
     \\/     M anipulation  |
\*---------------------------------------------------------------------------*/
FoamFile
{
    format      ascii;
    class       volScalarField;
    location    "26";
    object      p;
}
// * * * * * * * * * * * * * * * * * * * * * * * * * * * * * * * * * * * * * //

dimensions      [0 2 -2 0 0 0 0];

internalField   nonuniform List<scalar> 
8711
(
0.0392423
0.0370967
0.0422684
0.013768
0.0174237
0.0114329
0.128612
0.129493
0.720882
0.707338
0.544808
0.315731
-0.115127
-0.105139
-0.0736347
-0.0759375
0.0205736
0.0146043
0.00623433
0.0644638
0.0630597
0.0548525
0.0565889
0.0417473
-0.13192
-0.0835721
-0.175094
-0.220898
0.00198102
0.00243607
0.00388942
-0.668604
-0.650261
-0.429314
-0.470462
0.255723
0.246799
0.191723
0.197557
0.190037
0.235038
0.208398
-0.353927
-0.323126
0.27719
0.141504
-0.628986
-0.620071
-0.605328
0.0726201
0.0726499
0.0730621
0.0726139
0.0391354
0.0421463
0.0454301
-0.0490417
-0.0445119
-0.0735009
-0.0629753
-0.158036
-0.14577
-0.150396
-0.159285
0.142952
0.139273
0.129695
0.0491863
0.0494827
0.0548094
-0.118361
-0.118942
-0.0966026
-0.093566
0.0836595
0.0850531
0.0774012
0.0758171
0.0503489
0.0326716
0.0237824
-0.084367
-0.065921
0.0465183
0.0458235
0.0455941
-0.0724914
-0.069996
-0.00410763
-0.0225093
0.0516389
0.0492342
0.050818
0.0712036
0.080743
0.0604795
0.0753371
0.0797763
0.0663041
0.03731
0.0438107
0.400386
0.395634
-0.129081
-0.150198
-0.164473
-0.167681
-0.15945
-0.143526
-0.123365
-0.103965
-0.0871092
-0.0740432
-0.0651961
-0.0605618
-0.0594569
-0.0616222
-0.0676809
-0.0689216
-0.0782019
-0.0812709
-0.0579398
-0.0616515
-0.0607643
-0.0576704
-0.0785435
-0.0676757
-0.10891
-0.0927154
-0.138332
-0.125031
-0.141514
-0.144152
-0.109308
-0.12872
-0.0884462
-0.16711
-0.142844
-0.18577
-0.182904
-0.157011
-0.176362
-0.111491
-0.133747
-0.0770251
-0.0922377
-0.0606072
-0.0664665
-0.0593091
-0.0583556
-0.0725189
-0.0637744
-0.0853312
-0.0763133
-0.111657
-0.097659
-0.101591
-0.0572726
-0.0878209
-0.0672065
-0.0812823
-0.0537635
-0.0592075
-0.0534816
-0.052319
-0.0668861
-0.0586714
-0.0912227
-0.0782683
-0.113887
-0.104502
-0.114951
-0.119081
-0.0864797
-0.103453
-0.0583105
-0.0711945
-0.130514
-0.117996
-0.121999
-0.0948552
-0.179788
-0.15236
-0.199919
-0.196653
-0.16462
-0.187027
-0.114341
-0.139469
-0.0765338
-0.0934186
-0.0575083
-0.0647227
-0.0544342
-0.0545926
-0.0641263
-0.0576421
-0.087947
-0.0748036
-0.137944
-0.138777
-0.0654395
-0.101985
-0.043493
-0.0525113
-0.0323663
-0.0330019
-0.155851
-0.1666
-0.13778
-0.0586123
-0.0571198
-0.0953465
-0.116879
-0.0625236
-0.0773033
-0.0472516
-0.0537172
-0.044129
-0.0445764
-0.05278
-0.0472804
-0.0716206
-0.0619471
-0.0894456
-0.0817772
-0.0871412
-0.0917348
-0.0643753
-0.0785998
-0.0409086
-0.051854
-0.0346663
-0.0725341
-0.0842384
-0.0713519
-0.045905
-0.0388052
-0.0528943
-0.124257
-0.0949725
-0.185838
-0.156257
-0.204762
-0.203346
-0.166115
-0.189573
-0.111816
-0.13932
-0.0723426
-0.0898323
-0.0519186
-0.0601462
-0.0469904
-0.048093
-0.0538981
-0.0493457
-0.0622915
-0.147319
-0.157414
-0.114521
-0.132848
-0.0575387
-0.0440496
-0.0372878
-0.0451073
-0.035769
-0.136162
-0.0949416
-0.0506192
-0.0495723
-0.0295026
-0.029058
-0.0173016
-0.0390659
-0.0492196
-0.0430618
-0.0526898
-0.0576383
-0.0462194
-0.0658873
-0.089407
-0.110378
-0.0556013
-0.0702412
-0.0384727
-0.0455786
-0.0330006
-0.0345812
-0.0381297
-0.034347
-0.0516423
-0.0442525
-0.0644753
-0.0594625
-0.0611577
-0.0652083
-0.0428818
-0.0531501
-0.0243998
-0.0329234
-0.0200452
-0.0209117
-0.0244238
-0.0210185
-0.0325533
-0.0645924
-0.0452507
-0.119705
-0.088701
-0.184226
-0.153772
-0.200698
-0.200855
-0.160437
-0.185085
-0.10398
-0.131978
-0.0645305
-0.0818272
-0.0441119
-0.0523816
-0.0379101
-0.0397347
-0.0424743
-0.039062
-0.0566045
-0.0485506
-0.0747801
-0.0659981
-0.172323
-0.168034
-0.158426
-0.168841
-0.123544
-0.142824
-0.0808821
-0.102408
-0.0522858
-0.0234616
-0.00882442
-0.0553941
-0.0607112
-0.0468404
-0.0512661
-0.0359187
-0.0520441
-0.0370659
-0.0581727
-0.0666968
-0.0773625
-0.123009
-0.137891
-0.0789896
-0.100362
-0.046005
-0.0602657
-0.0280124
-0.0356044
-0.0205294
-0.0231581
-0.022516
-0.020413
-0.0318264
-0.0266611
-0.0404059
-0.0369047
-0.0367217
-0.0403456
-0.0220569
-0.0299429
-0.00984216
-0.014845
-0.00768289
-0.00793878
-0.0141126
-0.00962164
-0.0223756
0.006717
-0.00528796
0.0174941
0.0140634
-0.0164439
-0.00363652
-0.0527321
-0.0329706
-0.109254
-0.0775361
-0.173393
-0.14336
-0.188841
-0.189724
-0.146104
-0.171651
-0.0915533
-0.117813
-0.0541454
-0.0705153
-0.0346403
-0.0426405
-0.0276911
-0.0299947
-0.0303674
-0.0277661
-0.0405678
-0.0346845
-0.0477119
-0.163768
-0.173681
-0.171994
-0.161168
-0.171434
-0.126469
-0.145645
-0.0833532
-0.105341
-0.0619897
-0.0511037
-0.133737
-0.141435
0.0136856
-0.12941
-0.0479158
-0.058717
-0.0401876
-0.0719149
-0.0426223
-0.0271127
-0.0876995
-0.0107263
-0.101365
-0.120557
-0.0449507
-0.105135
-0.121037
-0.0648876
-0.0852146
-0.0340557
-0.0477045
-0.0162818
-0.0240189
-0.00745983
-0.0109347
-0.00687934
-0.00619229
-0.0129297
-0.00945951
-0.0184394
-0.0163233
-0.0146449
-0.0178474
-0.0035547
-0.00928322
0.00359624
0.00101886
0.00398066
0.00425316
-0.00280182
0.00129768
-0.0222703
-0.0110556
-0.0598409
-0.038397
0.0380272
0.0358715
0.0243015
0.0330986
-0.000126019
0.0131453
-0.0358309
-0.0162844
-0.0925711
-0.0618587
-0.154417
-0.125541
-0.167969
-0.171686
-0.125847
-0.15038
-0.0758109
-0.09964
-0.0418856
-0.0567415
-0.0240199
-0.0314142
-0.0170297
-0.0195593
-0.0175727
-0.0165274
-0.0250743
-0.0212902
-0.0361931
-0.0306882
-0.0413512
-0.107092
-0.085546
-0.158216
-0.115919
-0.135844
-0.1685
-0.166545
-0.155886
-0.165378
-0.123263
-0.141341
-0.0819777
-0.103148
-0.060795
-0.0554205
-0.0541477
-0.0712458
-0.0393058
-0.0229098
-0.0243134
-0.0481934
-0.0924287
-0.0327281
-0.116087
-0.0139085
-0.129835
0.030408
-0.116895
-0.148761
-0.0989835
-0.104827
-0.128597
-0.115648
-0.116862
-0.084899
-0.100201
-0.0482402
-0.0664562
-0.0206985
-0.0334356
-0.0038961
-0.0113301
0.0054924
0.00151296
0.00793709
0.00753395
0.00444345
0.00660226
0.0011154
0.00226357
0.00463407
0.00196968
0.0122477
0.00853144
0.0157069
0.0147152
0.0143419
0.0154361
0.00769613
0.0117917
-0.008457
0.000947483
-0.0401829
-0.0222625
-0.082773
-0.0599783
-0.158056
-0.146774
-0.112798
0.0558595
0.0567063
0.0560368
0.0422679
0.0506404
0.0177974
0.0312457
-0.0171912
0.0018189
-0.0712443
-0.0417114
-0.127921
-0.102251
-0.138793
-0.13801
-0.101225
-0.123186
-0.0576646
-0.0782434
-0.0285337
-0.0413111
-0.0129697
-0.0194724
-0.00635357
-0.00889373
-0.00581775
-0.00546069
-0.0110935
-0.00796972
-0.0187326
-0.0156946
-0.0205841
-0.141305
-0.123263
-0.154988
-0.151339
-0.144697
-0.152943
-0.115533
-0.131704
-0.0777024
-0.0971436
-0.0579503
-0.0651133
-0.0798075
-0.00814194
-0.00691715
-0.0662026
-0.0902885
-0.0590416
-0.121194
-0.0412225
-0.151762
-0.0108982
0.0582035
0.0318039
-0.175416
-0.194576
-0.195129
-0.17317
-0.0799526
-0.0839614
-0.127693
-0.0882036
-0.0882925
-0.0625167
-0.0763868
-0.0312357
-0.0463589
-0.00718592
-0.017981
0.00834759
0.0014537
0.0177382
0.0136189
0.0213486
0.0202214
0.0197727
0.0209355
0.0180275
0.0185004
0.0209085
0.0189087
0.0253339
0.0233858
0.0261157
0.0261986
0.0237364
0.0252356
0.0172099
0.0211436
0.00437961
0.0113754
-0.020257
-0.00698184
-0.0504581
-0.035209
-0.0665326
0.0778343
0.0595338
0.0795689
0.0795455
0.0717152
0.0748336
0.0592483
0.0663763
0.0361467
0.0483823
0.00293838
0.0209839
-0.0473774
-0.020024
-0.099011
-0.0759222
-0.107026
-0.108685
-0.074438
-0.0930774
-0.0386903
-0.0554611
-0.0149981
-0.0254203
-0.00203592
-0.00750178
0.00380281
0.00148927
0.00503684
0.00489695
0.0014691
0.00374305
-0.00425193
-0.00144576
-0.00693374
-0.0895066
-0.0514225
-0.0706568
-0.121413
-0.105708
-0.136669
-0.131409
-0.129687
-0.135998
-0.105166
-0.118962
-0.0716809
-0.0890232
-0.035889
-0.0537694
-0.00562506
-0.0197926
-0.0811779
-0.0830675
-0.116564
-0.0731432
-0.155707
-0.00532387
0.00673143
0.00627196
-0.0503112
-0.014183
0.0307331
0.0774091
0.0599098
-0.191531
-0.220334
-0.230903
-0.216287
-0.173786
-0.0348018
-0.0821709
-0.116667
-0.0702092
-0.035059
-0.0194764
-0.0581455
-0.0479298
-0.0606475
-0.0629485
-0.0386511
-0.0516504
-0.0137092
-0.0260152
0.00634075
-0.00275415
0.0199663
0.0138013
0.0288544
0.0248745
0.0329802
0.0314773
0.0327206
0.0331657
0.0320846
0.0321274
0.0341147
0.0328666
0.0358348
0.0352908
0.0348522
0.0355987
0.0320374
0.0336689
0.0260189
0.0295386
0.0152373
0.0212069
-0.00209558
0.00704447
-0.0241944
-0.0135053
-0.0416345
-0.0336957
-0.0423607
-0.0454226
0.0920677
0.073118
0.0819032
0.0878647
0.0931299
0.0935712
0.0867185
0.0906665
0.0747347
0.0817524
0.0539443
0.0650067
0.023829
0.0405401
-0.0228816
0.00228443
-0.0686236
-0.0485256
-0.0739141
-0.0763713
-0.0475795
-0.0623008
-0.0201632
-0.03297
-0.00196263
-0.0100143
0.00831498
0.0039349
0.0131871
0.0112124
0.0146476
0.0142577
0.0122641
0.0140578
0.00785667
0.0103574
0.00596623
0.006117
0.00670054
-0.0713209
-0.0536781
-0.101106
-0.0862242
-0.116811
-0.111104
-0.113366
-0.117477
-0.0940015
-0.105217
-0.0652942
-0.0803327
-0.0332465
-0.0493676
-0.0184736
-0.103156
-0.0309238
-0.0569113
-0.0185467
-0.103632
-0.148047
-0.00626743
0.00510033
-0.0876218
-0.0543827
-0.00888959
0.0335116
0.0584317
0.074045
0.0660599
-0.232422
-0.254506
-0.249773
-0.215832
-0.15917
-0.0889846
-0.0206139
-0.00491593
-0.0168187
0.0168449
0.0175567
-0.00699891
-0.193477
-0.0348371
-0.0271377
-0.0337252
-0.0377198
-0.0165128
-0.0267261
0.00345899
-0.00613176
0.0193254
0.012
0.0306689
0.0254379
0.0385799
0.0349842
0.0426914
0.0410821
0.0433294
0.0432427
0.0434413
0.0432502
0.0443745
0.0439307
0.0440235
0.0444616
0.0420257
0.0431312
0.0390069
0.0406883
0.0336594
0.036675
0.0250969
0.0297842
0.0130575
0.0194139
-0.00192785
0.00497206
-0.0113816
-0.0086735
-0.00864209
-0.0117093
-0.029725
0.00466742
-0.00270758
0.086484
0.064678
0.0692258
0.0784901
0.0982204
0.0930899
0.10254
0.101405
0.0985979
0.101533
0.0884193
0.0944746
0.070837
0.0804952
0.0430089
0.0585734
0.000127853
0.022874
-0.0384933
-0.0218954
-0.0416713
-0.0439696
-0.0224943
-0.0330359
-0.00308535
-0.012165
0.010059
0.0041937
0.0177893
0.0144481
0.0216165
0.0200402
0.022977
0.0225168
0.022079
0.0227459
0.0185909
0.0202757
0.0173784
0.0175429
0.0178034
-0.0530414
-0.0372774
-0.0813452
-0.0674112
-0.0977665
-0.0914761
-0.0979493
-0.0998473
-0.0837056
-0.0923513
-0.0597992
-0.0725636
-0.0322681
-0.0461667
-0.0189198
-0.129676
0.0150172
-0.123927
-0.0973761
-0.0524392
-0.00226917
0.0358298
0.0534003
-0.262426
-0.269703
-0.245699
-0.192523
0.057072
0.0586931
0.0537361
-0.122464
-0.0537341
0.0202185
0.00852757
-0.181109
0.000927042
-0.228539
0.0257513
0.00174647
0.00755552
-0.0120386
-0.00585946
-0.00991532
-0.014126
0.0041142
-0.00397729
0.0194238
0.0121271
0.031318
0.0257413
0.0402994
0.0360896
0.0469186
0.0438758
0.0506946
0.0491346
0.0519104
0.0514696
0.0522875
0.052117
0.0520107
0.0523035
0.0503552
0.0513381
0.0479152
0.0491712
0.0448281
0.0465083
0.0401129
0.0426915
0.0333661
0.0369776
0.0248171
0.0292834
0.0152366
0.0198764
0.0117459
0.0117793
0.015276
0.0129937
0.0270771
0.0187191
0.050776
0.060752
0.041834
0.0717133
0.0466652
0.0506576
0.0617931
0.0885854
0.0806625
0.100883
0.0951358
0.106982
0.104641
0.106238
0.107323
0.0985884
0.103157
0.0838624
0.0921943
0.0583327
0.0726489
0.0207595
0.0402165
-0.00888581
0.00323148
-0.0124346
-0.0135488
-0.000524712
-0.00710498
0.0119262
0.00604077
0.0207422
0.0167613
0.0261949
0.0238004
0.0290158
0.027836
0.0301533
0.0296953
0.0297954
0.0301571
0.0282925
0.0288536
0.02639
0.0267809
0.0261549
0.0266821
0.023297
0.026138
-0.00645329
0.00898911
-0.0364317
-0.0217411
-0.0631318
-0.050241
-0.0809118
-0.0737718
-0.0848296
-0.0845841
-0.0753891
-0.0816052
-0.0562192
-0.066669
-0.0326081
-0.0446497
-0.00850742
-0.0203312
0.0117854
0.00233727
0.0194624
-0.156752
-0.13952
-0.0989198
-0.0446578
0.00486293
0.0350629
-0.273151
-0.261539
-0.217269
0.0457179
0.0463768
0.0412513
-0.151017
-0.0777183
-0.0112498
0.0382629
0.0333
0.0369865
0.0792768
0.0766781
0.0235193
0.0414096
0.0353097
0.0214053
-0.20998
0.0260429
-0.25319
0.0192035
0.0272204
0.00842317
0.0129514
0.00997425
0.00730066
0.022089
0.0153575
0.0337599
0.0283524
0.0421892
0.0382203
0.0489089
0.0457047
0.0541324
0.0517054
0.0573838
0.0559819
0.058742
0.0582184
0.0588363
0.0589144
0.0575265
0.0583315
0.0552403
0.0564523
0.0526465
0.0539594
0.0495964
0.0512203
0.0454926
0.0476801
0.0401749
0.0429679
0.03392
0.0371306
0.0279635
0.0307055
0.0272621
0.0267112
0.0314627
0.028673
0.0431891
0.0355253
0.0671847
0.054264
0.0955684
0.0901383
0.07954
0.0535034
0.0248637
0.0304139
0.0423222
0.0731803
0.0637914
0.0890949
0.0815208
0.101073
0.0955172
0.108167
0.105229
0.109378
0.109541
0.104217
0.107461
0.0920021
0.0990826
0.0697521
0.0821483
0.0392083
0.0546769
0.0165462
0.025883
0.0121128
0.0125503
0.0176681
0.0143997
0.0245764
0.0212226
0.0299234
0.0274652
0.0334519
0.0318754
0.0353641
0.0345549
0.0361834
0.0358261
0.036194
0.0362666
0.0352192
0.0358184
0.0336896
0.0343373
0.0331297
0.0336484
0.0306262
0.0327387
0.029687
0.00656544
0.020841
-0.0218669
-0.0078186
-0.047976
-0.0352975
-0.0670992
-0.0588454
-0.074591
-0.0723852
-0.0695552
-0.0735263
-0.0546
-0.0630522
-0.0341363
-0.0447635
-0.0120026
-0.0229832
0.00753821
-0.00161897
0.0153462
-0.179042
-0.145661
-0.0915655
-0.0331615
0.00982164
-0.260868
-0.230186
0.0302006
0.0356572
0.0335062
-0.171566
-0.0984544
-0.0262942
0.0267169
0.0298924
0.0181076
0.0758688
0.0181712
0.0104751
0.100752
0.0964674
0.106399
0.0225468
0.0496126
0.0448858
0.0171563
-0.228231
0.0462703
0.0383923
0.0318548
-0.258906
0.033986
0.0395618
0.026099
0.0282677
0.0267665
0.0249299
0.0368601
0.0311954
0.0461485
0.0419693
0.0519727
0.049287
0.0566439
0.0543839
0.0604631
0.05867
0.0629702
0.0618745
0.0639334
0.063623
0.0633352
0.0638189
0.0614847
0.0625354
0.0589821
0.0602603
0.0563615
0.0576849
0.0534293
0.0549574
0.0498847
0.0517317
0.0457273
0.0478663
0.0412431
0.043492
0.0377169
0.0392063
0.0380024
0.0373747
0.0427211
0.0396117
0.0523263
0.0466411
0.0697137
0.0606905
0.0843359
0.0778811
0.0982954
0.0874329
0.0877357
0.035544
0.0054209
0.0141324
0.024853
0.0559945
0.0460129
0.074059
0.0652757
0.0889008
0.0817989
0.100256
0.0950169
0.107525
0.104392
0.109863
0.109333
0.106443
0.108792
0.0965928
0.102371
0.0785627
0.0885004
0.0551639
0.066905
0.0373771
0.0449983
0.0312313
0.0331784
0.032041
0.0311901
0.0349127
0.0334162
0.0376227
0.0363401
0.0395839
0.0386923
0.0406964
0.0402266
0.0411603
0.0409591
0.0412689
0.0412298
0.0407321
0.0410573
0.0395727
0.040156
0.0387499
0.0389175
0.0380624
0.0376265
0.0349135
0.0167205
0.0287811
-0.0101866
0.00349878
-0.0360657
-0.0234268
-0.0566233
-0.0473722
-0.067293
-0.0633415
-0.0662715
-0.0681972
-0.0550275
-0.0617364
-0.0370795
-0.0466102
-0.0165256
-0.0268152
0.00271817
-0.00647619
0.0108049
-0.191018
0.0534054
-0.140162
-0.0769577
-0.0223643
-0.228018
0.00966022
0.0215039
0.0230178
-0.183331
-0.11659
-0.0424612
0.0179379
0.0245328
0.00968122
0.0759534
0.00125747
0.106011
-0.0049174
0.117373
0.00366293
-0.00739187
0.111315
0.083472
0.0948663
0.0217967
0.0140308
-0.229053
0.0319785
0.0349176
-0.243714
0.0527922
0.059227
0.0562221
0.0458215
0.0489046
0.0401994
0.0419694
0.0404913
0.0392125
0.0484518
0.0439281
0.0561793
0.0527062
0.0604192
0.0585694
0.0634031
0.0619696
0.0658453
0.0646973
0.0673894
0.0667399
0.0676447
0.0676792
0.0664811
0.0672237
0.0643368
0.0654918
0.0618149
0.063088
0.0592329
0.0605345
0.0564656
0.057883
0.0533856
0.0549619
0.050065
0.0517409
0.0468236
0.048399
0.0448019
0.0455581
0.0456604
0.0448755
0.0498103
0.047338
0.0581877
0.0532915
0.0696651
0.0638153
0.0787985
0.0749282
0.0788784
0.0802619
0.0764906
0.0686401
0.0748868
0.0600264
0.0216737
-0.00591999
0.00562539
0.0132069
0.0402308
0.0308195
0.0582241
0.0491852
0.0744843
0.0665319
0.0880699
0.0815693
0.0987157
0.0937444
0.105862
0.102727
0.108814
0.107866
0.106731
0.108354
0.0991441
0.103631
0.0852332
0.092853
0.0674274
0.07641
0.0527349
0.0593509
0.0452646
0.0482419
0.043009
0.0437295
0.0431288
0.0429211
0.0439155
0.0435038
0.044655
0.0443092
0.0450882
0.0449147
0.0452016
0.0451709
0.0451946
0.0452059
0.0448609
0.0450582
0.0440798
0.0443729
0.0429086
0.0432639
0.0412851
0.0419537
0.0384499
0.0566123
0.042766
0.0502132
0.023513
0.0341314
-0.00156241
0.0114274
-0.0272583
-0.0145675
-0.0492111
-0.039036
-0.062826
-0.0572505
-0.0655592
-0.0655803
-0.0576722
-0.0628153
-0.0418293
-0.0504727
-0.0221227
-0.0322193
-0.00231612
-0.012016
0.0065143
-0.187781
0.0616586
0.0292339
-0.123696
-0.0603763
-0.211305
-0.0165333
0.00388557
0.00943434
-0.183318
-0.131221
-0.0630846
0.00689388
0.00963844
-0.000890731
0.0724691
-0.00998159
0.113588
-0.0172164
0.130858
-0.0209294
0.126636
-0.0196764
0.109703
-0.00123408
-0.0147654
0.0869466
0.0656498
0.043029
0.0405122
0.0462006
0.0653122
0.0634098
-0.212112
0.0149698
0.0097909
0.0588609
0.0612816
0.0539257
0.0561337
0.0507163
0.0519355
0.0514619
0.0503706
0.0573879
0.0539684
0.0637091
0.0607938
0.0670474
0.0656632
0.0688141
0.0680161
0.0700391
0.069481
0.0706114
0.0704206
0.0701658
0.0705203
0.0686248
0.0695096
0.0663853
0.0675605
0.0639137
0.0651567
0.0614107
0.0626682
0.058827
0.0601328
0.0561347
0.0574913
0.0534392
0.0547753
0.0510614
0.052179
0.0499014
0.0502692
0.0509497
0.0501526
0.0544918
0.052422
0.0609714
0.0574079
0.0688344
0.0649837
0.0740939
0.0720903
0.0725609
0.0744264
0.0624547
0.068641
0.0542183
0.0285978
0.0214243
0.0444541
0.0362547
0.0601735
0.0522266
0.0746818
0.0676434
0.0869268
0.0810467
0.0967694
0.0921596
0.103605
0.100563
0.106839
0.105665
0.105812
0.106826
0.10014
0.103538
0.0894641
0.0953172
0.0755943
0.0826553
0.0631378
0.068988
0.055143
0.0586159
0.0511461
0.0527876
0.0495092
0.050145
0.0489528
0.0491612
0.0487726
0.0488456
0.0486444
0.04872
0.0484408
0.0485607
0.0482405
0.0483455
0.0479536
0.0481038
0.0474291
0.0475902
0.0462766
0.0465686
0.0436479
0.0449246
0.0392965
0.0411657
0.0341109
0.0370322
0.066973
0.0593212
0.0637161
0.0464232
0.0535286
0.0281078
0.0380686
0.00453598
0.0168533
-0.0210542
-0.00822486
-0.0445281
-0.0333802
-0.0611407
-0.053925
-0.0675592
-0.0657259
-0.0628699
-0.0665286
-0.0488571
-0.0567918
-0.0293024
-0.0395495
-0.00819673
-0.0186397
0.0106671
0.00180084
0.0260653
0.018947
0.0311043
-0.170375
-0.00762064
0.00513021
-0.102002
-0.182003
-0.0478145
-0.0177127
-0.00674705
-0.13789
-0.0850017
-0.00665266
-0.0171406
-0.0134953
0.0543812
-0.0232567
0.113032
-0.0321652
0.144457
-0.0371618
0.145275
-0.0366437
0.128311
-0.0312653
0.102024
-0.0232387
0.0519005
0.0751408
0.069283
0.0683485
0.0703204
0.032131
-0.0141859
0.032552
0.0338322
0.000483288
0.0664559
0.0679073
0.063202
0.0648575
0.0601866
0.0616214
0.0586007
0.0591694
0.0597274
0.0587498
0.0641743
0.0616615
0.0690565
0.0667597
0.0716894
0.070624
0.0726542
0.0722837
0.0729744
0.0728659
0.0727713
0.0729461
0.0718035
0.0723841
0.0700546
0.0710046
0.0678183
0.0689745
0.0654259
0.0666267
0.0630276
0.0642281
0.0606235
0.0618269
0.0582389
0.0594253
0.0559967
0.0570898
0.054199
0.055017
0.0535144
0.0536839
0.0545434
0.0538212
0.0574308
0.0557663
0.0622225
0.0596498
0.0675128
0.0649878
0.0701445
0.0694653
0.0678242
0.0698394
0.0583343
0.0639688
0.0437742
0.0512763
0.0379397
0.0159988
0.0163113
0.0158156
0.0230723
0.0186797
0.0347226
0.0285222
0.0481425
0.0411276
0.0619134
0.0550402
0.0746597
0.0684637
0.0856704
0.0803722
0.0946499
0.0904277
0.101041
0.0981684
0.104337
0.103064
0.104032
0.104613
0.0997628
0.102362
0.0914223
0.0960129
0.0803862
0.0860441
0.0697533
0.074896
0.0618725
0.0654454
0.0570433
0.0591586
0.054358
0.0555152
0.0528989
0.0535331
0.0520493
0.0524316
0.0514727
0.05175
0.0509935
0.0512391
0.0505942
0.0507947
0.0502464
0.0504139
0.0496693
0.0499595
0.0484035
0.0490519
0.0458753
0.0472973
0.0426104
0.0442488
0.0376495
0.0404498
0.0349346
0.0615316
0.0655054
0.0494055
0.0561678
0.0318372
0.0413813
0.00898212
0.0209727
-0.0169912
-0.00378968
-0.0423677
-0.0300703
-0.0622603
-0.0532778
-0.0724877
-0.0687539
-0.0709879
-0.0731859
-0.0585762
-0.0659601
-0.0387001
-0.0493189
-0.0157805
-0.0272697
0.00533646
-0.00452029
0.0217701
0.0140896
0.0276881
-0.143996
-0.0823358
-0.0428947
0.0337102
-0.00248664
-0.171167
-0.0254535
-0.101272
-0.0223734
-0.0494767
-0.0281544
0.0186581
-0.0388234
0.090765
-0.0496908
0.145691
0.00653414
-0.0567443
0.163895
-0.00372742
-0.0572099
0.150651
-0.017908
0.0256054
0.02174
-0.0517587
0.121675
-0.0306827
0.0362407
-0.0421257
0.0884141
0.01535
0.0353317
0.0204958
0.0287432
0.0705211
0.0291958
-0.148036
0.0230719
-0.13393
0.0716403
0.0697409
0.071402
0.0685074
0.0695533
0.066241
0.0672471
0.0645742
0.0653461
0.0640997
0.064157
0.0656163
0.0645937
0.0690597
0.0671771
0.0727075
0.0709884
0.0746626
0.0738881
0.0750956
0.0749954
0.0748282
0.0750155
0.0740995
0.0745211
0.0727986
0.0735175
0.070953
0.0719248
0.0687662
0.0698847
0.0664702
0.0676217
0.0641871
0.0653258
0.0619491
0.0630618
0.0598076
0.0608628
0.0578896
0.0588122
0.0564619
0.057096
0.0560028
0.0560931
0.056883
0.0562837
0.0591347
0.0578555
0.0625671
0.0607535
0.0659704
0.0644101
0.0669739
0.0668952
0.0639102
0.0660059
0.055354
0.0602678
0.0431719
0.0494243
0.0364515
0.0252419
0.0243996
0.0305203
0.0270635
0.0402279
0.0347299
0.0515274
0.0455584
0.063412
0.0575132
0.0745584
0.0691058
0.0844007
0.0796537
0.0925039
0.0886814
0.0983771
0.0957184
0.101582
0.100303
0.101689
0.102005
0.0984066
0.100436
0.0917505
0.0954271
0.0827916
0.0874122
0.0737158
0.0782423
0.0663105
0.0697556
0.0612098
0.0635183
0.057955
0.0594102
0.05592
0.0568331
0.0546005
0.0552035
0.0536781
0.0541129
0.0529638
0.0533136
0.0523805
0.052667
0.0518792
0.0521224
0.0512163
0.0515557
0.0499552
0.0506369
0.0478701
0.0489303
0.0450226
0.0464655
0.0406589
0.0429575
0.0380448
0.0635142
0.067188
0.0520367
0.0584808
0.0350102
0.0442643
0.012264
0.024286
-0.0147747
-0.000877141
-0.0425791
-0.0288889
-0.0661455
-0.0552131
-0.0804428
-0.074694
-0.0822223
-0.0829466
-0.0712593
-0.078196
-0.0507061
-0.0618872
-0.0256825
-0.0383388
-0.00217354
-0.0132946
0.0163079
0.00763451
0.0232928
-0.117073
-0.070241
0.059444
0.0316586
0.0255488
-0.0461558
-0.106834
-0.0396986
-0.0764709
-0.0445348
-0.0249711
-0.05639
0.0458453
-0.0699777
0.11986
0.0209258
0.00941394
-0.0798788
0.169418
-0.0039086
0.0120816
0.00488393
-0.0824048
0.172891
-0.0185004
0.00950737
-0.0770697
0.145595
-0.0353288
0.0203187
-0.0653201
0.107095
-0.119448
-0.0511773
0.025247
0.0309193
0.0348784
0.0723626
0.0711045
0.0717504
0.0696432
0.0704163
0.0682325
0.0688869
0.0674189
0.0677307
0.0676577
0.0673901
0.0694063
0.0683478
0.0722155
0.0707267
0.0749791
0.0736933
0.076384
0.0758487
0.0764689
0.0765354
0.0758505
0.0762141
0.0748027
0.0753732
0.0733154
0.0741083
0.0714279
0.0724092
0.0693277
0.0703996
0.0671381
0.0682352
0.0649729
0.0660504
0.0628824
0.0639169
0.0609311
0.0618861
0.0592417
0.0600468
0.0580393
0.0585669
0.0576584
0.0577374
0.0583203
0.057868
0.0599897
0.05905
0.0623562
0.0611319
0.0643817
0.0635063
0.0643491
0.064692
0.0610087
0.0631369
0.0534155
0.0576898
0.04305
0.0484393
0.0307986
0.0369552
0.0185479
0.0248289
0.00398638
0.0304945
0.0295887
0.0331425
0.031873
0.0370443
0.0347041
0.044881
0.0406221
0.0545289
0.0495374
0.0646987
0.0596335
0.0744339
0.0696475
0.0831727
0.0789488
0.0904168
0.0869921
0.095748
0.093324
0.0987509
0.0975334
0.0990659
0.0992272
0.096475
0.0981011
0.0910519
0.0940549
0.0836206
0.0874813
0.0758386
0.0796248
0.0691097
0.0723061
0.0640595
0.0663938
0.0605487
0.0621519
0.0581719
0.0592571
0.0565353
0.0572905
0.0553537
0.0559093
0.054441
0.0548807
0.0536885
0.0540563
0.0530133
0.0533475
0.0522366
0.0526375
0.051043
0.0516869
0.0492564
0.0502018
0.0467086
0.0480437
0.0430712
0.0448932
0.0384267
0.0409215
0.0729445
0.0710051
0.0723637
0.0652714
0.0686893
0.0543731
0.0605522
0.0375995
0.046761
0.0144347
0.0267864
-0.0142064
0.000639631
-0.0448835
-0.0295878
-0.0724862
-0.0594302
-0.0911656
-0.0832539
-0.0964057
-0.0955959
-0.0868284
-0.0933729
-0.0652618
-0.0772091
-0.037702
-0.0517228
-0.0112796
-0.023913
0.00988971
-5.69115e-05
0.0183372
-0.0969936
0.0408529
0.0730051
0.0357763
-0.0675883
-0.101327
0.0698626
-0.057438
-0.0913025
-0.0618694
-0.0622039
-0.0753144
-0.0088957
0.0400946
0.0310832
0.00371804
-0.0927489
0.0666994
0.0145296
-0.00209413
-0.107154
0.142408
-0.00236802
-0.00511713
-0.112941
0.183983
-0.0187219
-0.00370979
-0.108508
0.170566
-0.0374207
0.00426013
-0.0950405
0.130794
-0.0574677
0.0208372
-0.0770585
0.0465029
0.0476726
0.0734564
0.072675
0.0536654
0.0711856
0.0715297
0.0701682
0.0707254
0.0693496
0.0697406
0.0690976
0.069153
0.0697519
0.0693172
0.0715724
0.0705217
0.0739298
0.0726968
0.0761155
0.0751152
0.0771538
0.0767778
0.0770439
0.0771991
0.0762463
0.0766999
0.0750344
0.0756807
0.0734678
0.0742878
0.0715972
0.0725633
0.0695812
0.0706064
0.0675013
0.0685424
0.0654519
0.0664705
0.0634906
0.0644582
0.0616879
0.0625663
0.0601576
0.0608833
0.0590832
0.0595551
0.0586962
0.0588006
0.0591178
0.0588155
0.0602699
0.0596227
0.0618038
0.0610316
0.0628364
0.0624477
0.0621712
0.0627595
0.0588342
0.0608632
0.0522861
0.055896
0.0435451
0.0480636
0.0336394
0.0385788
0.0229145
0.0283215
0.03973
0.0429775
0.037866
0.0378995
0.039578
0.0386079
0.0428956
0.0408516
0.0489542
0.0454362
0.0571338
0.0529349
0.0658165
0.0614647
0.0743008
0.0701153
0.0820061
0.0782736
0.0884465
0.0853939
0.0932248
0.0910467
0.0959644
0.0948434
0.0963646
0.0964408
0.0942578
0.0955943
0.0897569
0.0922534
0.0835257
0.086776
0.07681
0.0801179
0.0707514
0.0736671
0.0659205
0.0681872
0.0623497
0.0640043
0.0597931
0.0609748
0.0579527
0.0588088
0.0565821
0.0572282
0.0555049
0.0560218
0.0546003
0.0550421
0.0537672
0.0541819
0.0528783
0.0533354
0.0517122
0.0523338
0.0500866
0.0509583
0.0477797
0.0490086
0.044657
0.0462599
0.0410849
0.0429149
0.0342734
0.037339
0.0392005
0.0740373
0.0737428
0.0739576
0.072153
0.0732565
0.066814
0.0700463
0.0563003
0.0622872
0.0394723
0.0487313
0.0155385
0.0283877
-0.0149217
0.000971182
-0.0486856
-0.0316782
-0.0805402
-0.0652472
-0.103876
-0.0936635
-0.112794
-0.110363
-0.104613
-0.110786
-0.0817813
-0.09465
-0.0512771
-0.066879
-0.0214154
-0.035826
0.00309412
-0.00853457
0.0215982
0.0131127
0.0289156
-0.0871377
0.0854399
0.0725053
-0.0742206
-0.0941455
0.0478573
0.0718582
0.0716706
0.0312183
0.0347364
-0.0781073
-0.08581
0.0610045
0.0539176
-0.094404
-0.0564133
0.0380719
0.0123427
0.0030413
-0.116902
0.000694341
0.0199581
-0.00673212
-0.13792
0.082481
0.000585384
-0.013333
-0.14993
0.158904
-0.0176327
-0.0159084
-0.147724
0.187021
-0.0380368
-0.012171
-0.13294
0.15683
-0.0612423
0.000287963
-0.109944
0.1064
-0.0856801
0.0743357
0.069569
0.0672767
0.0750344
0.0730358
0.0707946
0.071222
0.0702135
0.0705355
0.0698315
0.0700058
0.0699501
0.069828
0.0708103
0.0702959
0.0723403
0.0715403
0.0745968
0.0735062
0.0764014
0.0755858
0.0772188
0.0769335
0.0770286
0.0772165
0.0761733
0.0766562
0.0749074
0.0755777
0.0733348
0.0741505
0.0715268
0.0724537
0.0695916
0.0705696
0.0676159
0.0686039
0.0656759
0.0666394
0.0638281
0.0647384
0.062143
0.0629624
0.0607236
0.0613959
0.0597167
0.0601635
0.0592811
0.0594276
0.0594729
0.0593084
0.0601872
0.0597835
0.0610798
0.0606481
0.0614167
0.0613635
0.0603505
0.0610877
0.0571412
0.0590304
0.0515328
0.054576
0.0442602
0.0480235
0.0363128
0.0402272
0.0274321
0.0318578
0.0213275
0.0237385
0.0132868
0.0207301
0.0202171
0.0162619
0.0241742
0.0545026
0.0602602
0.0472395
0.0504759
0.0446636
0.0452709
0.0451228
0.0445726
0.0477047
0.045993
0.0526352
0.0498522
0.0594385
0.0559243
0.0668276
0.0631049
0.0741769
0.0705408
0.0809239
0.0776484
0.0866084
0.0839093
0.0908467
0.0889126
0.0932976
0.0922901
0.0937053
0.0937423
0.0919434
0.0930679
0.0881426
0.0902512
0.0828589
0.0856209
0.0770273
0.0799342
0.0715827
0.074226
0.0670457
0.0691987
0.0635315
0.0651782
0.0609032
0.0621298
0.0589401
0.05986
0.0574344
0.0581475
0.0562227
0.0568052
0.0551835
0.0556917
0.0542171
0.0546988
0.0532201
0.0537296
0.0520365
0.052658
0.0504975
0.0513162
0.0484288
0.0495251
0.0458781
0.0471603
0.0429145
0.0443201
0.0393141
0.0412806
0.074647
0.0746742
0.0731884
0.0742241
0.0681205
0.0712079
0.0577922
0.063715
0.0407161
0.0501582
0.0159448
0.0293072
-0.0162724
0.000634684
-0.0530675
-0.0343763
-0.0891604
-0.0716248
-0.117252
-0.104675
-0.130017
-0.125884
-0.123323
-0.129093
-0.0992081
-0.113023
-0.0655811
-0.082887
-0.0318463
-0.0482751
-0.00358766
-0.0169998
0.0174075
0.00795465
0.0254171
-0.0875345
0.0825776
0.0785728
0.0231167
0.0706533
0.0710972
0.0370384
-0.091196
-0.0972349
0.0628421
0.0584489
0.0743939
0.0728409
0.0307195
0.0209941
0.0871759
0.0900796
0.0951209
-0.110761
-0.0900206
0.098126
0.0833815
0.0931014
0.045338
0.00361245
-0.140167
-0.058793
0.0263248
-0.00865186
-0.170854
0.00462375
0.00613926
-0.0189231
-0.192171
0.0943778
-0.0148178
-0.0263051
-0.195805
0.16898
-0.0369149
-0.0272782
-0.181377
0.174681
-0.0621179
-0.0202564
-0.153477
0.130889
-0.0906364
-0.00290662
-0.121728
0.0349472
0.0339708
0.0707235
0.0702922
0.0704913
0.0702371
0.0705089
0.0699055
0.0700491
0.0698384
0.0698319
0.0702039
0.0699569
0.0711728
0.0706169
0.0726727
0.0718842
0.074595
0.0736533
0.0761195
0.0754341
0.0768019
0.0765664
0.076599
0.0767866
0.0757587
0.0762342
0.0745083
0.0751698
0.0729755
0.0737672
0.0712435
0.0721305
0.0693989
0.0703286
0.0675253
0.0684619
0.0656865
0.0665992
0.0639385
0.0647993
0.0623482
0.0631212
0.0610064
0.0616431
0.0600302
0.0604698
0.0595272
0.0597215
0.0595142
0.0594689
0.0598726
0.0596641
0.060282
0.0601014
0.0601525
0.0603175
0.0588545
0.0596706
0.0558401
0.0575672
0.0510296
0.0536126
0.0449835
0.0481021
0.038457
0.0417364
0.0318014
0.0349885
0.0277537
0.0292141
0.0283503
0.0270818
0.0313524
0.072637
0.079776
0.0611283
0.0664318
0.0539146
0.056718
0.0503307
0.0515663
0.0501956
0.0499121
0.0518929
0.05064
0.0558916
0.0536765
0.0614676
0.0585556
0.0677271
0.0645587