/*--------------------------------*- C++ -*----------------------------------*\
  =========                 |
  \\      /  F ield         | OpenFOAM: The Open Source CFD Toolbox
   \\    /   O peration     | Website:  https://openfoam.org
    \\  /    A nd           | Version:  10
     \\/     M anipulation  |
\*---------------------------------------------------------------------------*/
FoamFile
{
    format      ascii;
    class       volScalarField;
    location    "37.5";
    object      p;
}
// * * * * * * * * * * * * * * * * * * * * * * * * * * * * * * * * * * * * * //

dimensions      [0 2 -2 0 0 0 0];

internalField   nonuniform List<scalar> 
28942
(
-0.439427
-0.434387
-0.406381
0.209785
0.220066
-0.00110416
0.00193546
-0.00318545
-0.0363163
-0.0280692
-0.633148
-0.626789
-0.647902
-0.648652
0.00473822
0.00860441
0.459934
0.480855
-0.0144378
0.0840269
0.36427
0.365835
-0.686116
-0.689015
-0.704057
-0.728396
0.730119
0.750601
-0.183152
-0.170787
-0.006073
-0.00532939
0.0252102
0.00992244
0.250655
0.302863
0.514466
0.635926
-0.00397469
0.549197
0.33441
0.362276
-0.0213201
-0.0144322
-0.010006
0.00150842
0.00210656
0.0013816
0.00281794
0.00802721
0.0161296
0.00737061
0.00824865
-0.0292917
-0.019278
-0.561395
-0.473168
-0.656129
-0.647137
-0.653206
-0.659689
-0.662308
-0.660885
-0.299705
-0.411782
-0.250141
-0.165502
0.384343
0.352954
-0.437876
-0.445729
-0.449647
0.366028
0.352098
0.353671
-0.228096
-0.218563
-0.15301
-0.376958
-0.444429
-0.344179
-0.501472
-0.506752
-0.548012
-0.00644788
0.087987
0.160903
0.142117
0.0744031
0.0908869
0.131511
0.151966
-0.666705
-0.664488
-0.657766
-0.651671
-0.652592
0.160588
0.211322
-0.583652
0.238138
0.240309
0.218071
0.224799
-0.0275308
-0.0239629
-0.0321375
0.205245
0.214093
0.214968
-0.654087
-0.653795
-0.450298
-0.415652
-0.415363
0.870772
0.804837
0.76416
0.832008
0.030897
0.178134
0.112123
-0.0918499
-0.114851
0.894665
0.900959
0.871204
-0.0879166
-0.0389924
0.00125404
0.00282041
0.000202281
0.326837
0.453876
0.261135
0.25138
0.331232
0.0552797
0.230891
0.400302
-0.726144
-0.708037
-0.0316812
-0.000269509
0.000524955
-0.410769
-0.424256
-0.385996
-0.698422
0.226391
0.219727
0.011516
0.000143103
-0.000998622
-0.000872777
0.000182208
0.300367
0.236579
-0.527631
-0.460488
-0.448263
-0.455573
-0.428894
0.00125034
-0.698679
-0.663132
0.386154
0.400105
0.445854
0.425731
0.357385
0.086199
0.0832738
0.00213873
-0.00552626
0.180809
0.168984
0.187875
0.198902
0.197026
0.206693
0.219057
0.254456
0.235254
0.215161
0.235584
0.275908
0.332522
0.348609
-0.286695
-0.224984
-0.402093
-0.000197109
0.000408098
-0.427572
-0.412916
0.00512774
0.00474598
0.00367543
0.00348144
-0.211673
-0.209024
-0.192483
-0.653348
-0.664021
-0.683096
-0.671168
-0.673324
-0.669972
-0.709159
-0.782107
-0.734407
0.864746
0.843543
0.878186
-0.0161122
-0.00914441
-0.014283
0.443939
0.426493
0.437281
-0.203877
-0.219846
-0.187559
-0.234205
-0.246361
-0.255346
-0.269137
-0.260194
-0.275191
-0.258966
-0.245561
-0.229873
-0.212531
-0.195073
-0.261376
-0.276968
-0.171426
-0.177849
-0.156177
-0.25882
-0.274418
-0.161662
-0.25221
-0.241831
-0.267394
-0.256287
-0.1432
-0.147596
-0.228783
-0.242157
-0.131717
-0.135403
-0.213983
-0.226015
-0.122139
-0.125093
-0.198467
-0.208982
-0.114377
-0.116657
-0.183009
-0.191986
-0.108352
-0.109992
-0.168384
-0.17586
-0.103944
-0.104994
-0.155027
-0.161161
-0.101081
-0.101566
-0.143275
-0.148208
-0.0997214
-0.0996318
-0.133179
-0.137032
-0.0998853
-0.0992549
-0.124896
-0.127656
-0.101724
-0.100429
-0.118036
-0.120119
-0.105192
-0.10328
-0.112765
-0.114206
-0.101304
-0.105339
-0.110583
-0.107914
-0.0982178
-0.0989644
-0.101232
-0.0989587
-0.110275
-0.104982
-0.12594
-0.117226
-0.148801
-0.136505
-0.177124
-0.162388
-0.206773
-0.192388
-0.230894
-0.219801
-0.243024
-0.238858
-0.240897
-0.243658
-0.224904
-0.234522
-0.199451
-0.2129
-0.171511
-0.185403
-0.146477
-0.158392
-0.127201
-0.136046
-0.114159
-0.119971
-0.109918
-0.109291
-0.110015
-0.128704
-0.11418
-0.120604
-0.150633
-0.13872
-0.180211
-0.164522
-0.215467
-0.197405
-0.250582
-0.233542
-0.27697
-0.265422
-0.286896
-0.284267
-0.278539
-0.284981
-0.253284
-0.267516
-0.218176
-0.236525
-0.1815
-0.19941
-0.149575
-0.164772
-0.125663
-0.13658
-0.109569
-0.116714
-0.100167
-0.104096
-0.0968401
-0.097755
-0.0995323
-0.09741
-0.103411
-0.111308
-0.107191
-0.10942
-0.114509
-0.109026
-0.119471
-0.118042
-0.0992814
-0.110165
-0.103756
-0.0952901
-0.0965136
-0.0972569
-0.0955487
-0.104994
-0.100394
-0.118939
-0.111147
-0.139403
-0.128394
-0.165003
-0.151676
-0.191642
-0.178502
-0.213142
-0.203375
-0.224192
-0.220422
-0.22188
-0.224626
-0.207225
-0.215948
-0.184375
-0.196423
-0.159491
-0.171841
-0.137369
-0.147873
-0.120545
-0.12823
-0.109413
-0.114301
-0.107411
-0.105989
-0.103878
-0.105942
-0.112656
-0.107452
-0.106289
-0.10752
-0.128088
-0.11953
-0.151144
-0.138571
-0.182249
-0.165758
-0.219143
-0.200271
-0.255598
-0.237956
-0.28264
-0.270858
-0.292572
-0.290024
-0.283161
-0.290211
-0.256725
-0.271671
-0.22053
-0.239401
-0.182501
-0.201061
-0.149524
-0.165123
-0.124564
-0.135967
-0.107606
-0.115169
-0.0973119
-0.101701
-0.0928547
-0.0943754
-0.094218
-0.0927748
-0.101833
-0.097196
-0.118797
-0.116514
-0.108312
-0.123043
-0.103201
-0.103783
-0.12998
-0.129613
-0.126116
-0.116664
-0.12778
-0.099403
-0.0991902
-0.104721
-0.101699
-0.127249
-0.142437
-0.15569
-0.140613
-0.107313
-0.116181
-0.0958315
-0.1006
-0.0911135
-0.0927152
-0.0920734
-0.0909086
-0.0985025
-0.0946025
-0.110677
-0.103839
-0.128861
-0.119048
-0.151652
-0.139858
-0.175294
-0.163675
-0.194243
-0.185648
-0.203755
-0.200472
-0.201395
-0.204022
-0.188279
-0.196018
-0.168202
-0.17877
-0.146479
-0.157244
-0.127289
-0.136384
-0.112837
-0.119415
-0.10356
-0.107555
-0.100832
-0.107052
-0.103861
-0.106138
-0.106572
-0.109647
-0.100094
-0.104118
-0.12574
-0.116804
-0.149619
-0.136617
-0.181735
-0.164722
-0.219647
-0.20028
-0.256824
-0.238879
-0.284083
-0.272254
-0.293804
-0.291417
-0.283567
-0.291093
-0.256399
-0.271699
-0.219443
-0.238634
-0.180853
-0.199831
-0.147403
-0.163231
-0.121867
-0.133585
-0.104208
-0.112131
-0.0930954
-0.097912
-0.0875892
-0.0896703
-0.0875313
-0.0868623
-0.093289
-0.0896614
-0.105686
-0.0986294
-0.12681
-0.114245
-0.142619
-0.133994
-0.100272
-0.0975174
-0.15785
-0.137693
-0.180498
-0.124188
-0.138241
-0.187237
-0.209902
-0.139705
-0.152112
-0.168449
-0.1235
-0.137138
-0.103038
-0.112096
-0.0910832
-0.0961085
-0.0857577
-0.0877044
-0.0858356
-0.085156
-0.0909961
-0.0877818
-0.10142
-0.0955255
-0.11729
-0.108703
-0.137328
-0.126957
-0.158013
-0.147881
-0.174466
-0.167065
-0.182497
-0.17973
-0.180198
-0.182621
-0.16867
-0.175426
-0.151327
-0.160437
-0.132693
-0.141912
-0.116347
-0.124078
-0.104183
-0.109691
-0.0966578
-0.0998523
-0.0938124
-0.0946711
-0.0955664
-0.0940756
-0.105859
-0.0982436
-0.10265
-0.108126
-0.107706
-0.104678
-0.10709
-0.0962745
-0.10103
-0.095185
-0.0905183
-0.0922545
-0.105257
-0.099483
-0.121769
-0.112625
-0.146106
-0.132883
-0.178688
-0.16144
-0.216958
-0.197437
-0.25418
-0.236262
-0.281121
-0.269485
-0.290398
-0.288236
-0.279672
-0.287446
-0.252184
-0.26762
-0.215097
-0.234317
-0.176599
-0.195553
-0.14312
-0.158972
-0.117424
-0.129259
-0.0993355
-0.107505
-0.0875515
-0.0927339
-0.081105
-0.0836934
-0.0797329
-0.0797804
-0.083669
-0.0810068
-0.0935378
-0.0878541
-0.109133
-0.100727
-0.135191
-0.118505
-0.157493
-0.146969
-0.177198
-0.150992
-0.0897928
-0.0927986
-0.0964589
-0.0902309
-0.205907
-0.150905
-0.229068
-0.183847
-0.146464
-0.128148
-0.206879
-0.153826
-0.146879
-0.164153
-0.117841
-0.131421
-0.0973403
-0.106452
-0.0852093
-0.0903671
-0.0794071
-0.0816194
-0.0787095
-0.0784617
-0.0826887
-0.0801211
-0.0914286
-0.0864456
-0.10505
-0.0976556
-0.122396
-0.113414
-0.14026
-0.131526
-0.154333
-0.148031
-0.161037
-0.158758
-0.158852
-0.161037
-0.148875
-0.154685
-0.134128
-0.141856
-0.118423
-0.126177
-0.104775
-0.111211
-0.0947958
-0.0992803
-0.088971
-0.0913585
-0.087273
-0.0876358
-0.0879944
-0.109227
-0.102263
-0.106434
-0.110582
-0.110623
-0.10606
-0.109027
-0.101819
-0.0892218
-0.0840637
-0.0859899
-0.0995923
-0.093691
-0.116263
-0.107038
-0.140664
-0.127434
-0.173155
-0.155971
-0.211125
-0.191788
-0.247744
-0.230166
-0.273876
-0.262652
-0.282476
-0.280612
-0.271492
-0.279334
-0.244183
-0.259486
-0.207603
-0.226535
-0.169766
-0.18839
-0.13677
-0.152413
-0.111275
-0.123053
-0.0930357
-0.101326
-0.0807641
-0.0862306
-0.0735038
-0.0765408
-0.0709514
-0.0716403
-0.0732131
-0.0714629
-0.0806628
-0.0762681
-0.0934379
-0.0864035
-0.109026
-0.101188
-0.137291
-0.11666
-0.174673
-0.161742
-0.0970123
-0.0831875
-0.200455
-0.226552
-0.228314
-0.165602
-0.164281
-0.232224
-0.251769
-0.250255
-0.157607
-0.145693
-0.123303
-0.169868
-0.175803
-0.224424
-0.199581
-0.138469
-0.155665
-0.110255
-0.123431
-0.0904184
-0.0992567
-0.0783687
-0.0835487
-0.0722499
-0.0746602
-0.0708994
-0.0710249
-0.0738056
-0.0718323
-0.0809625
-0.0768403
-0.0924437
-0.0861858
-0.107228
-0.0995619
-0.122461
-0.115022
-0.134353
-0.129048
-0.139874
-0.138031
-0.137847
-0.139783
-0.129342
-0.134264
-0.117004
-0.12345
-0.104011
-0.110408
-0.0928674
-0.0980987
-0.0849322
-0.0884566
-0.0806617
-0.082332
-0.0800703
-0.0799038
-0.0832563
-0.0811731
-0.090877
-0.0864422
-0.107715
-0.0965608
-0.102624
-0.113931
-0.111533
-0.114349
-0.11489
-0.108873
-0.112335
-0.098033
-0.104009
-0.0835735
-0.0911697
-0.0768014
-0.0754465
-0.0755932
-0.082384
-0.0790536
-0.0928225
-0.0869362
-0.109392
-0.100253
-0.133445
-0.120424
-0.165312
-0.148477
-0.202353
-0.183521
-0.237757
-0.220813
-0.262645
-0.25202
-0.270416
-0.268889
-0.259341
-0.267124
-0.232685
-0.247586
-0.197218
-0.215555
-0.160602
-0.178625
-0.128581
-0.143784
-0.103625
-0.115192
-0.0854797
-0.0937769
-0.0729
-0.0785681
-0.0649574
-0.0683822
-0.0613378
-0.0626097
-0.0621069
-0.0611634
-0.0674126
-0.0641901
-0.0773107
-0.0717875
-0.0901912
-0.083615
-0.102101
-0.0965571
-0.128591
-0.106107
-0.194666
-0.247431
-0.223658
-0.0838814
-0.089417
-0.0851104
-0.076499
-0.178034
-0.181002
-0.250422
-0.177615
-0.167814
-0.152171
-0.131601
-0.108376
-0.187719
-0.212367
-0.268708
-0.258926
-0.23657
-0.164586
-0.187918
-0.128132
-0.144798
-0.101314
-0.11378
-0.0824572
-0.0908924
-0.0707289
-0.0758169
-0.0644723
-0.0670004
-0.0625972
-0.0630341
-0.0645545
-0.0631131
-0.0702609
-0.0669314
-0.079755
-0.0745538
-0.0921645
-0.0857157
-0.104991
-0.0987314
-0.11493
-0.110513
-0.119419
-0.117952
-0.117584
-0.119267
-0.110447
-0.114554
-0.100293
-0.105578
-0.0897522
-0.0949223
-0.0808786
-0.0850169
-0.0748007
-0.0774538
-0.0719228
-0.0729545
-0.0723212
-0.0717119
-0.0760822
-0.0737882
-0.0794454
-0.114544
-0.10342
-0.109633
-0.120019
-0.118012
-0.11943
-0.120474
-0.112961
-0.116927
-0.100935
-0.10754
-0.0933823
-0.0689881
-0.0670539
-0.0675156
-0.0747948
-0.0714112
-0.0851439
-0.0793221
-0.101336
-0.0924275
-0.124659
-0.112049
-0.155413
-0.139184
-0.190963
-0.172919
-0.224627
-0.208567
-0.247903
-0.238033
-0.254738
-0.253565
-0.243747
-0.251354
-0.218142
-0.232417
-0.184312
-0.201788
-0.149426
-0.166601
-0.118811
-0.133372
-0.094713
-0.105923
-0.0768834
-0.0850853
-0.0641637
-0.0699542
-0.0556772
-0.0594234
-0.0511118
-0.0529074
-0.0505204
-0.0503108
-0.0539936
-0.0517531
-0.0613686
-0.0572215
-0.071323
-0.0661885
-0.0809551
-0.0764361
-0.0861382
-0.084402
-0.273097
-0.273245
-0.108325
-0.0860307
-0.21648
-0.0961541
-0.0675746
-0.277641
-0.195538
-0.288325
-0.246026
-0.196387
-0.273261
-0.189853
-0.176291
-0.156417
-0.132143
-0.105942
-0.0835746
-0.207364
-0.240694
-0.291391
-0.273924
-0.259604
-0.195587
-0.218925
-0.151142
-0.172534
-0.116399
-0.132373
-0.0912904
-0.102875
-0.0736885
-0.0815966
-0.0624968
-0.0673914
-0.0562644
-0.0588358
-0.0539944
-0.0546792
-0.0551353
-0.0541577
-0.059543
-0.0569272
-0.06723
-0.0629916
-0.0774795
-0.0721359
-0.0881486
-0.0829405
-0.0963719
-0.0927306
-0.0999864
-0.0988321
-0.0983648
-0.0998011
-0.0924652
-0.0958403
-0.0842473
-0.088506
-0.0758739
-0.0799594
-0.0690118
-0.0721808
-0.0645831
-0.0664627
-0.0629398
-0.0634054
-0.0641904
-0.0631987
-0.0684498
-0.0659264
-0.0761517
-0.0718238
-0.0881711
-0.0815551
-0.111696
-0.0960493
-0.104355
-0.122638
-0.117879
-0.127462
-0.12587
-0.125864
-0.12744
-0.118269
-0.122793
-0.105072
-0.112318
-0.087972
-0.0968625
-0.0689828
-0.0785769
-0.0583976
-0.0593336
-0.0584936
-0.060818
-0.0591802
-0.0666219
-0.0632402
-0.0767383
-0.0710812
-0.0923079
-0.0837622
-0.114568
-0.102548
-0.14378
-0.12838
-0.177366
-0.160348
-0.208872
-0.193893
-0.230266
-0.221266
-0.236098
-0.235285
-0.225354
-0.232679
-0.201125
-0.214595
-0.16935
-0.18575
-0.136608
-0.152735
-0.107745
-0.121501
-0.0847738
-0.0955025
-0.0674605
-0.0754737
-0.0547604
-0.0605967
-0.0458746
-0.0498704
-0.0405099
-0.0427554
-0.038708
-0.0391559
-0.0405603
-0.0391802
-0.045842
-0.0428153
-0.0533252
-0.0494361
-0.0608167
-0.0572324
-0.0650016
-0.063582
-0.0629062
-0.0648607
-0.289336
-0.29661
-0.0792319
-0.0592104
-0.238148
-0.213129
-0.282154
-0.299341
-0.302802
-0.266883
-0.2106
-0.0796021
-0.0869128
-0.0712798
-0.0610553
-0.294518
-0.199877
-0.181759
-0.157708
-0.12994
-0.101118
-0.283071
-0.261163
-0.256208
-0.0736962
-0.0544449
-0.276053
-0.22723
-0.252204
-0.26002
-0.218604
-0.237356
-0.176708
-0.198235
-0.135841
-0.155408
-0.103767
-0.118588
-0.0805693
-0.0911992
-0.0643856
-0.0716848
-0.0538855
-0.0585115
-0.0478109
-0.0503614
-0.0452682
-0.04614
-0.0457258
-0.0451428
-0.0489965
-0.0470093
-0.0550731
-0.0516948
-0.0633923
-0.0590353
-0.0721567
-0.0678724
-0.0789001
-0.0759223
-0.0817926
-0.0808887
-0.0803908
-0.0815978
-0.0755846
-0.0783179
-0.0690469
-0.0724162
-0.0625497
-0.065696
-0.0574336
-0.0597604
-0.0544402
-0.0556465
-0.0538663
-0.0538433
-0.0558216
-0.0545225
-0.0604399
-0.0577869
-0.0680473
-0.0638516
-0.073307
-0.121349
-0.10501
-0.113788
-0.132087
-0.127452
-0.136277
-0.135036
-0.133658
-0.135802
-0.124739
-0.129934
-0.110306
-0.118159
-0.0917422
-0.101355
-0.0816361
-0.0496695
-0.0498745
-0.0493985
-0.0523458
-0.0506966
-0.0581034
-0.0547942
-0.0678063
-0.0624039
-0.0825428
-0.0744725
-0.10346
-0.0921789
-0.130784
-0.116393
-0.16204
-0.146227
-0.191089
-0.177325
-0.210434
-0.202367
-0.215245
-0.214782
-0.204874
-0.211839
-0.182271
-0.194797
-0.152855
-0.168026
-0.122557
-0.13749
-0.0956976
-0.108528
-0.0740559
-0.084207
-0.0574251
-0.0651701
-0.0448902
-0.0507009
-0.0357497
-0.0399217
-0.0297482
-0.0323592
-0.0269247
-0.0279322
-0.0273719
-0.0267405
-0.0308833
-0.0287863
-0.0363847
-0.0334923
-0.0419143
-0.0392964
-0.0449368
-0.0438871
-0.043231
-0.0447567
-0.0366933
-0.0406229
-0.301027
-0.0488142
-0.0668799
-0.0434569
-0.0282057
-0.0323546
-0.297224
-0.31403
-0.257867
-0.229392
-0.0953917
-0.0511186
-0.310619
-0.285505
-0.222334
-0.310086
-0.206612
-0.183646
-0.155684
-0.125019
-0.0945581
-0.24087
-0.215037
-0.198312
-0.0143814
-0.0121555
-0.0248528
-0.222039
-0.261245
-0.291675
-0.0604031
-0.0386939
-0.245447
-0.23414
-0.225654
-0.226088
-0.233922
-0.194656
-0.212359
-0.155786
-0.175408
-0.119243
-0.136764
-0.0903703
-0.103741
-0.069426
-0.079012
-0.0547727
-0.061405
-0.0450842
-0.0493824
-0.0392796
-0.0417538
-0.0365763
-0.0375781
-0.0364802
-0.0362235
-0.0387783
-0.0373326
-0.0434473
-0.0408234
-0.0500673
-0.0465786
-0.0571713
-0.0536884
-0.0626561
-0.0602378
-0.0649645
-0.0642566
-0.0637799
-0.064778
-0.0599206
-0.0621016
-0.0548136
-0.057427
-0.0499096
-0.0522582
-0.0462796
-0.047889
-0.0445103
-0.0451425
-0.044841
-0.0444068
-0.0473726
-0.0458262
-0.0522513
-0.049505
-0.0597772
-0.0556548
-0.0706176
-0.064743
-0.0853618
-0.0774539
-0.115041
-0.0942525
-0.104917
-0.131993
-0.124204
-0.142734
-0.138226
-0.146392
-0.145471
-0.142715
-0.145458
-0.132292
-0.138272
-0.116362
-0.124938
-0.096313
-0.1067
-0.0744448
-0.0854852
-0.0528788
-0.0635642
-0.0406897
-0.0427839
-0.0415096
-0.0410391
-0.040512
-0.0437964
-0.0420999
-0.0493886
-0.0462021
-0.0585488
-0.0534686
-0.072282
-0.0647766
-0.0916385
-0.081212
-0.116814
-0.103567
-0.145486
-0.131001
-0.171902
-0.159428
-0.189131
-0.182018
-0.192947
-0.192811
-0.183047
-0.189593
-0.162231
-0.173728
-0.135363
-0.149208
-0.107689
-0.12134
-0.082993
-0.0948222
-0.0628177
-0.0723245
-0.0469955
-0.0544099
-0.034751
-0.0404729
-0.0254931
-0.0297702
-0.0190193
-0.0219091
-0.0153813
-0.0168391
-0.0146699
-0.0146603
-0.0167053
-0.0153805
-0.0205824
-0.0185046
-0.0245738
-0.0226994
-0.026507
-0.0259226
-0.0247829
-0.0261297
-0.0199544
-0.0226812
-0.0171723
-0.297719
-0.322506
-0.0221571
-0.0104997
-0.274617
-0.242885
-0.308696
-0.299272
-0.230407
-0.0751526
-0.0832794
-0.0553725
-0.0445528
-0.320647
-0.209284
-0.181718
-0.150319
-0.11793
-0.0873875
-0.177481
-0.153697
-0.133417
-0.155307
-0.19947
-0.240971
-0.276218
-0.0547982
-0.0353575
-0.00946162
-0.0204834
-0.260565
-0.189277
-0.172367
-0.207006
-0.20119
-0.197947
-0.205743
-0.169562
-0.1854
-0.134495
-0.152111
-0.102238
-0.117663
-0.0767604
-0.0885776
-0.0581737
-0.0666903
-0.0450815
-0.0510264
-0.036273
-0.0402063
-0.0308221
-0.0331768
-0.0280556
-0.0291366
-0.0275273
-0.0275321
-0.0290127
-0.0280232
-0.0324745
-0.0305005
-0.0376193
-0.0348854
-0.0432899
-0.040496
-0.047715
-0.045763
-0.0495583
-0.0490005
-0.0485825
-0.0493931
-0.0455301
-0.0472438
-0.0416204
-0.0436026
-0.0380443
-0.0397281
-0.0356545
-0.036665
-0.0349073
-0.0350605
-0.0359856
-0.0352134
-0.0389746
-0.0372364
-0.0440142
-0.0412265
-0.0513916
-0.0473961
-0.0615614
-0.0561369
-0.0678701
-0.126014
-0.103862
-0.115344
-0.143566
-0.135495
-0.154391
-0.14988
-0.157601
-0.156989
-0.152827
-0.156193
-0.140795
-0.147628
-0.123135
-0.132552
-0.10163
-0.112743
-0.0782387
-0.0900097
-0.0666403
-0.0318093
-0.0331908
-0.0322199
-0.0325184
-0.0319158
-0.0353144
-0.0336353
-0.0406415
-0.037629
-0.0491553
-0.0444514
-0.0617617
-0.0548865
-0.0794066
-0.0699135
-0.102263
-0.0902458
-0.128203
-0.115112
-0.15192
-0.140756
-0.167058
-0.160879
-0.169937
-0.170097
-0.160589
-0.166676
-0.141632
-0.152062
-0.117385
-0.129867
-0.0924055
-0.10474
-0.0699401
-0.0807333
-0.0513079
-0.0601308
-0.0363835
-0.043421
-0.0245339
-0.0301124
-0.0152853
-0.0196008
-0.00849816
-0.0115826
-0.00424876
-0.00604884
-0.00263155
-0.00311166
-0.00348542
-0.00278099
-0.00604163
-0.00462838
-0.00881353
-0.00751702
-0.00996957
-0.00969617
-0.00836426
-0.00951467
-0.0047452
-0.00668051
-0.00154163
-0.00298498
0.000238512
-0.000457493
-0.00925479
0.000160468
0.000493144
-0.29631
-0.320326
-0.287038
-0.252315
-0.0921196
-0.0344214
-0.302542
-0.305483
-0.233947
-0.321987
-0.207532
-0.175946
-0.142211
-0.109364
-0.0796797
-0.11145
-0.0899156
-0.0691795
0.00875413
0.00745366
-0.000648657
-0.0894798
-0.131914
-0.174855
-0.216715
-0.255021
-0.0500827
-0.0329318
-0.0197513
-0.00968172
-0.271375
-0.130832
-0.110685
-0.163623
-0.148893
-0.17868
-0.174211
-0.169571
-0.176859
-0.143854
-0.158078
-0.112944
-0.128383
-0.085096
-0.0983655
-0.0631528
-0.0733499
-0.0469978
-0.0544203
-0.0354891
-0.0407349
-0.0276021
-0.0311469
-0.0225668
-0.0247686
-0.0198196
-0.0209358
-0.0189695
-0.0191765
-0.0197929
-0.0191784
-0.0222395
-0.0208151
-0.0261208
-0.0240351
-0.030562
-0.0283574
-0.0340995
-0.0325339
-0.0355768
-0.0351315
-0.0347974
-0.0354419
-0.0324233
-0.0337472
-0.0294992
-0.0309632
-0.0270097
-0.0281498
-0.025634
-0.0261547
-0.0257207
-0.0254837
-0.0274011
-0.0263585
-0.0307391
-0.028859
-0.0358598
-0.0330663
-0.0430276
-0.0391708
-0.0525832
-0.0474854
-0.0649642
-0.0584429
-0.0804545
-0.0723274
-0.114109
-0.0888352
-0.101545
-0.137525
-0.126273
-0.155739
-0.14749
-0.166804
-0.162229
-0.169588
-0.169286
-0.163686
-0.167694
-0.149993
-0.157711
-0.130423
-0.140797
-0.107253
-0.119151
-0.0824667
-0.094953
-0.05801
-0.0700084
-0.0359729
-0.0466665
-0.024077
-0.0260254
-0.0249616
-0.0233161
-0.0234689
-0.0242691
-0.023607
-0.0270231
-0.0253968
-0.0320095
-0.0292092
-0.0398024
-0.035512
-0.051203
-0.0449983
-0.0670492
-0.058534
-0.0875003
-0.076754
-0.110656
-0.0989778
-0.131705
-0.121825
-0.144855
-0.139554
-0.146897
-0.147308
-0.138133
-0.143749
-0.121036
-0.130404
-0.0993823
-0.110519
-0.0770659
-0.0880985
-0.0568198
-0.0665792
-0.0397533
-0.0478765
-0.0257831
-0.0324115
-0.0144145
-0.019803
-0.00529122
-0.00958319
0.00165905
-0.00154042
0.00632932
0.00428757
0.00861675
0.00777046
0.00866725
0.00889372
0.00715273
0.00803811
0.00535015
0.00618964
0.00475426
0.00482383
0.00609197
0.00519811
0.00849123
0.0072741
0.0100617
0.00947204
0.0101268
0.0102697
0.00957083
-0.290019
-0.309783
-0.00206717
0.00580248
-0.293672
-0.25673
-0.287682
-0.304371
-0.232434
-0.0687403
-0.0761233
-0.0377619
-0.0274809
-0.313753
-0.201393
-0.166883
-0.132175
-0.100064
-0.072393
-0.0495066
-0.0299125
-0.0133791
-0.0312156
-0.0684108
-0.108533
-0.149414
-0.190502
-0.230199
-0.0464589
-0.0313654
-0.0196687
-0.0107881
0.0037207
-0.00405335
-0.276807
-0.0689742
-0.0486848
-0.108643
-0.0893558
-0.138193
-0.12514
-0.150263
-0.14692
-0.141112
-0.148042
-0.11821
-0.130698
-0.0918442
-0.104929
-0.0684401
-0.0795768
-0.049939
-0.0585615
-0.0361408
-0.0425043
-0.026168
-0.0307333
-0.0192021
-0.022353
-0.0146198
-0.016646
-0.0119584
-0.0130729
-0.0108837
-0.0112398
-0.0111826
-0.0108689
-0.0127936
-0.0118247
-0.0156077
-0.0140723
-0.0189999
-0.0172978
-0.021793
-0.0205481
-0.0229834
-0.0226214
-0.0223855
-0.0228838
-0.0205753
-0.0215779
-0.0184502
-0.0194956
-0.016833
-0.0175372
-0.0162682
-0.0163976
-0.0170181
-0.0164715
-0.019168
-0.0179166
-0.0227571
-0.0207798
-0.0278869
-0.0251199
-0.034782
-0.0310959
-0.0437615
-0.038986
-0.0549934
-0.0491307
-0.0616305
-0.124566
-0.0972391
-0.11119
-0.149252
-0.13736
-0.168165
-0.159556
-0.179584
-0.174921
-0.181951
-0.181955
-0.174907
-0.179567
-0.159526
-0.168143
-0.137963
-0.149353
-0.112879
-0.125694
-0.0866238
-0.0997897
-0.0609069
-0.0735387
-0.0489896
-0.0155812
-0.0170869
-0.0161403
-0.0152957
-0.0152493
-0.0163661
-0.015646
-0.0190286
-0.0174819
-0.0236191
-0.0210574
-0.0306457
-0.0267903
-0.0408045
-0.0352872
-0.0548246
-0.0472998
-0.0728581
-0.063386
-0.093258
-0.0829713
-0.111744
-0.103084
-0.123067
-0.11856
-0.124397
-0.12501
-0.116224
-0.121375
-0.100922
-0.109271
-0.0817498
-0.0915998
-0.0619818
-0.0717674
-0.043878
-0.0526359
-0.0283541
-0.0357822
-0.0153661
-0.0215658
-0.00454773
-0.00970701
0.00434551
0.000133776
0.0113194
0.00807904
0.016236
0.0140442
0.0189843
0.0178809
0.0196993
0.0195705
0.0189833
0.0194605
0.0179338
0.0184196
0.0177157
0.0176689
0.0186781
0.0180815
0.0199036
0.0193497
0.0201199
0.0201838
0.0190057
0.0197214
0.0166589
0.0179609
0.0131024
0.0149824
0.000977455
0.00801847
0.0107758
-0.279414
-0.291328
-0.293584
-0.255563
-0.0836151
-0.0180083
-0.265697
-0.298282
-0.225964
-0.29904
-0.191409
-0.155412
-0.121168
-0.0909846
-0.0660361
0.00236686
0.0186261
0.032467
0.0144729
0.0111284
0.00463219
0.0168259
-0.0145366
-0.0490518
-0.085881
-0.124739
-0.164255
-0.203246
-0.0438395
-0.0305908
-0.0203545
-0.0125306
-0.00677246
-0.00243242
-0.276169
-0.0124772
0.00381491
-0.0499708
-0.0305649
-0.0870087
-0.0693663
-0.112953
-0.10172
-0.122002
-0.11988
-0.11304
-0.119442
-0.0934432
-0.103968
-0.0717326
-0.0824608
-0.052576
-0.0616981
-0.0373081
-0.0444494
-0.0257425
-0.0311007
-0.0172372
-0.0211499
-0.0111727
-0.0139338
-0.00706335
-0.00889974
-0.00453965
-0.00562285
-0.00332357
-0.00378301
-0.00322037
-0.00314075
-0.00415913
-0.00355979
-0.00608629
-0.00501173
-0.00858738
-0.0073135
-0.0107518
-0.00977559
-0.0117144
-0.0114146
-0.0112814
-0.0116505
-0.00993614
-0.0106768
-0.00844936
-0.00916206
-0.00751852
-0.00788067
-0.00758617
-0.00741102
-0.00884724
-0.00806309
-0.0113479
-0.00994287
-0.0151009
-0.0130663
-0.020179
-0.0174662
-0.0267648
-0.0232672
-0.0351213
-0.0307033
-0.0453546
-0.0400128
-0.0574128
-0.0511656
-0.0706454
-0.0639325
-0.105728
-0.077299
-0.0913077
-0.134647
-0.12037
-0.160538
-0.148202
-0.180409
-0.171338
-0.192231
-0.187467
-0.194204
-0.194502
-0.186037
-0.191341
-0.16898
-0.178488
-0.14544
-0.15784
-0.118368
-0.132157
-0.0905312
-0.104406
-0.0637806
-0.0769263
-0.0395246
-0.0512339
-0.0190066
-0.0288147
-0.00870665
-0.0101317
-0.00940346
-0.00774595
-0.00811131
-0.00773841
-0.0076222
-0.00889978
-0.00816594
-0.0114158
-0.00997549
-0.0155749
-0.0132678
-0.0218171
-0.0184035
-0.0307362
-0.0259026
-0.0429554
-0.0364053
-0.0586232
-0.0503957
-0.0763584
-0.0674112
-0.0924335
-0.0849096
-0.102123
-0.0983135
-0.102876
-0.103635
-0.0953051
-0.100007
-0.0816727
-0.0890742
-0.0648044
-0.0734599
-0.0474087
-0.0560315
-0.0313205
-0.0391319
-0.0172817
-0.0240348
-0.00528084
-0.0110425
0.00493391
3.58433e-05
0.0135049
0.00942393
0.0203764
0.0171621
0.0253841
0.0231232
0.0284138
0.0271456
0.0295968
0.0292122
0.0294816
0.0296489
0.0289954
0.0292214
0.0289768
0.0289
0.0294637
0.0291968
0.0296234
0.0296483
0.0287133
0.0293152
0.0267294
0.0278436
0.0237995
0.0253831
0.0198051
0.0219288
0.0172961
-0.264079
-0.267925
0.000609027
0.00733054
-0.286317
-0.248869
-0.239427
-0.285275
-0.215089
-0.0582777
-0.0638575
-0.0199
-0.0108374
-0.278802
-0.178525
-0.14263
-0.110219
-0.0828428
-0.0609006
0.0453219
0.0584193
0.0692986
0.0567793
0.0301023
0.0007956
-0.0311235
-0.0653892
-0.101813
-0.139248
-0.176052
-0.0421991
-0.0306866
-0.0218072
-0.0151543
-0.0102252
-0.00664274
0.00302719
-0.00397051
-0.269251
0.0330641
0.0466147
0.00165664
0.0180542
-0.0331745
-0.0156016
-0.0662298
-0.0506519
-0.0880374
-0.0788715
-0.0943365
-0.0932315
-0.0861801
-0.0917136
-0.0702639
-0.0787195
-0.0530347
-0.0615356
-0.0377874
-0.0450675
-0.025461
-0.031254
-0.0159418
-0.0203757
-0.00879907
-0.0121031
-0.00359218
-0.00597872
4.18069e-05
-0.00159863
0.00239013
0.00136106
0.00367828
0.00315423
0.00407771
0.00398127
0.00366517
0.00397243
0.00246128
0.00315649
0.000712317
0.00162219
-0.000914901
-0.000167764
-0.00169111
-0.0014395
-0.00140408
-0.00165447
-0.000439406
-0.000968146
0.000544148
9.19511e-05
0.000946427
0.000846397
0.000400363
0.000804831
-0.00123897
-0.000280435
-0.00398573
-0.00247565
-0.00782697
-0.00576933
-0.0128047
-0.0101677
-0.0190564
-0.015759
-0.0267772
-0.0227228
-0.0360486
-0.0312317
-0.0467075
-0.0412291
-0.05245
-0.11381
-0.0833726
-0.0986049
-0.144
-0.129019
-0.171027
-0.158114
-0.19195
-0.182406
-0.20417
-0.199301
-0.205793
-0.206359
-0.196567
-0.202483
-0.17791
-0.18827
-0.152491
-0.165847
-0.123524
-0.138248
-0.0940504
-0.108687
-0.0662174
-0.0798448
-0.0411435
-0.0532497
-0.0300285
-0.00109155
-0.00210699
-0.00156168
-0.000519592
-0.000761405
-0.000737434
-0.000525241
-0.00192675
-0.00120458
-0.00425113
-0.00293547
-0.00795926
-0.00591323
-0.0134228
-0.0104448
-0.021137
-0.0169658
-0.0316243
-0.02601
-0.0450296
-0.0379911
-0.0602358
-0.052556
-0.0740767
-0.0675941
-0.0823426
-0.0791256
-0.0826642
-0.0835107
-0.0756931
-0.0799679
-0.0635791
-0.0701234
-0.0487897
-0.0563667
-0.0335465
-0.0411115
-0.0193132
-0.0262491
-0.00667711
-0.0127868
0.00434927
-0.000972998
0.0139208
0.0093093
0.0220907
0.0181842
0.0287506
0.0256204
0.033717
0.0314555
0.0368811
0.035523
0.0383786
0.0378153
0.0387074
0.0386439
0.038613
0.0386675
0.0386189
0.038596
0.0385549
0.0386334
0.0377936
0.0382968
0.0360211
0.0370282
0.0334077
0.0348065
0.0300597
0.0318308
0.0258321
0.0280703
0.0204134
0.0232776
0.0135054
0.0171198
-0.00201057
0.0047881
0.00941083
-0.24506
-0.242635
-0.273528
-0.237214
-0.0691724
-0.00273354
-0.211306
-0.266864
-0.20082
-0.255039
-0.163957
-0.12971
-0.100171
-0.0760421
-0.0570124
0.0795018
0.0886128
0.0966759
0.0882044
0.0676066
0.0427278
0.0149596
-0.0149797
-0.0471461
-0.081021
-0.115724
-0.150025
-0.0415638
-0.0316897
-0.024183
-0.0186483
-0.0145853
-0.0116214
-0.00943121
0.0110528
-0.000492038
0.0063444
-0.256821
0.0688975
0.0793208
0.0440684
0.0570761
0.0137045
0.0294367
-0.0178169
-0.00208437
-0.0460076
-0.0328397
-0.0636527
-0.0564612
-0.0679567
-0.0674315
-0.0613266
-0.0656922
-0.0491484
-0.0555909
-0.0360139
-0.0425065
-0.0242319
-0.0298851
-0.0145054
-0.0191041
-0.0068188
-0.0104211
-0.000918351
-0.00366443
0.00348705
0.0014537
0.00665553
0.00521106
0.00880296
0.00784476
0.0101072
0.00955029
0.0107134
0.0104903
0.0106999
0.0107831
0.0100719
0.0104615
0.00895105
0.00955332
0.0077885
0.00833626
0.00716595
0.00738319
0.00732916
0.0071438
0.0079919
0.00763278
0.00858298
0.00833206
0.00858765
0.00868311
0.00769339
0.00826328
0.00579016
0.00686851
0.00288809
0.00446096
-0.000976772
0.0010747
-0.00581591
-0.00327086
-0.0117215
-0.00862698
-0.018832
-0.015119
-0.0272176
-0.0228697
-0.0366106
-0.0318348
-0.0466111
-0.0416134
-0.0561935
-0.0514614
-0.0890328
-0.0603254
-0.0742226
-0.120774
-0.104749
-0.152125
-0.136686
-0.180313
-0.166799
-0.202213
-0.192248
-0.2148
-0.209828
-0.216124
-0.216924
-0.205956
-0.212418
-0.185851
-0.196983
-0.15873
-0.172953
-0.128064
-0.143625
-0.097075
-0.112435
-0.068158
-0.0822562
-0.042458
-0.0548685
-0.020674
-0.0310674
-0.00310561
-0.0114983
0.00495446
0.00419583
0.0045297
0.00569927
0.00537125
0.0060353
0.00593796
0.00568425
0.00595149
0.00452308
0.0052109
0.00242027
0.00359938
-0.000832945
0.000953298
-0.00554305
-0.00298397
-0.0121134
-0.00856906
-0.0209721
-0.0162366
-0.0322577
-0.0263327
-0.0451009
-0.0386037
-0.0568899
-0.0513549
-0.0639333
-0.0612077
-0.0639756
-0.0648493
-0.057596
-0.061469
-0.0468404
-0.0526241
-0.0338809
-0.0405086
-0.0205451
-0.02717
-0.00798481
-0.0141262
0.00334767
-0.00215796
0.0134258
0.00853768
0.0223266
0.018021
0.0300306
0.0263349
0.0363882
0.0333899
0.0412075
0.0389997
0.044394
0.0430023
0.0460912
0.0454073
0.0467334
0.046508
0.046865
0.0468355
0.046734
0.0468381
0.0460929
0.0465047
0.0445824
0.0454576
0.0421956
0.0434841
0.0391567
0.0407478
0.0355231
0.0374205
0.0311498
0.0334429
0.0257857
0.0286091
0.0191526
0.0226209
0.0152885
-0.223715
-0.217064
-0.00783007
-0.256018
-0.221676
-0.183594
-0.244898
-0.184481
-0.0439643
-0.0474709
-0.00342746
0.00395789
-0.229425
-0.149016
-0.117642
-0.0915671
-0.0707028
-0.0543306
0.104031
0.10888
0.114391
-0.00634981
0.00109608
0.11074
0.0965057
0.0771831
0.0540538
0.0278862
-0.000453491
-0.0307715
-0.0624125
-0.0946411
-0.12626
-0.0419836
-0.0337182
-0.0275795
-0.023114
-0.0198841
-0.0175668
-0.0158347
-0.240065
0.0946618
0.101989
0.0757127
0.0857643
0.0519731
0.0645106
0.0244736
0.0385502
-0.00306904
0.0104555
-0.0262921
-0.0155535
-0.0402982
-0.0346383
-0.0436718