/*--------------------------------*- C++ -*----------------------------------*\
  =========                 |
  \\      /  F ield         | OpenFOAM: The Open Source CFD Toolbox
   \\    /   O peration     | Website:  https://openfoam.org
    \\  /    A nd           | Version:  10
     \\/     M anipulation  |
\*---------------------------------------------------------------------------*/
FoamFile
{
    format      ascii;
    class       volVectorField;
    location    "30.5";
    object      U;
}
// * * * * * * * * * * * * * * * * * * * * * * * * * * * * * * * * * * * * * //

dimensions      [0 1 -1 0 0 0 0];

internalField   nonuniform List<vector> 
28942
(
(0.00455039 -0.00231665 -3.24281e-22)
(0.00615865 -0.00240738 -5.92806e-23)
(0.018071 -0.0124732 -8.80202e-22)
(0.103304 0.0182421 -5.43488e-21)
(0.102341 0.0222835 1.77786e-21)
(0.0199875 0.000689165 0)
(0.0237981 0.000272455 1.7197e-23)
(0.0274472 0.000887622 -1.53222e-23)
(0.135191 -0.0172153 -2.83503e-22)
(0.133779 -0.015582 8.04765e-22)
(0.0102427 0.00425769 -6.17886e-22)
(0.0166992 0.00594539 2.28136e-22)
(0.00744253 0.00331739 0)
(0.0049385 0.00218693 0)
(0.0596909 0.00240664 -2.23728e-23)
(0.0575327 0.00321876 -8.00781e-24)
(0.0893656 0.0158629 6.86501e-22)
(0.087052 0.0138426 1.10387e-21)
(0.0122 -0.0151508 3.04722e-21)
(0.0294222 -0.0305424 -8.0251e-22)
(0.0982728 0.0372699 9.83787e-22)
(0.0974295 0.0343158 0)
(0.0191986 0.00484237 1.13026e-21)
(0.00808345 0.0024656 5.27941e-22)
(0.0384506 0.0074866 9.03323e-22)
(0.0583649 0.00316269 -8.235e-22)
(0.00766261 -0.0184999 8.68741e-21)
(0.00670545 -0.0165622 -3.19586e-21)
(0.0356887 -0.0254202 6.10541e-22)
(0.0193928 -0.0137375 2.11638e-22)
(0.020457 -0.00192794 0)
(0.0255804 -0.00177834 -1.94626e-23)
(0.0322106 0.00545965 4.04077e-22)
(0.045693 0.00222827 -7.12503e-23)
(0.0188926 0.0180641 1.35979e-21)
(0.0157719 0.0191749 -1.36733e-21)
(0.0322735 0.0377182 -3.13287e-21)
(0.0187245 0.0306204 -1.08904e-21)
(0.0111043 0.000118909 -1.43096e-23)
(0.00867582 0.0162435 -2.6736e-21)
(0.0306463 -0.00620344 0)
(0.0513388 -0.0109702 0)
(0.110525 -0.018294 -3.84875e-23)
(0.110083 -0.0180364 1.14979e-22)
(0.112861 -0.0179914 9.8701e-23)
(0.0383506 0.000411382 1.73348e-23)
(0.0357504 -0.000547304 -2.84259e-23)
(0.0503205 -0.000522996 -1.22646e-22)
(0.0483169 -0.000584164 3.46502e-23)
(0.0396408 -0.00335186 -2.9829e-22)
(0.0299189 -0.00417721 1.91481e-22)
(0.127543 0.00242417 -4.55709e-22)
(0.126963 0.00193728 -4.2098e-22)
(0.134577 -0.0200816 -3.87218e-24)
(0.132964 -0.0183596 1.52541e-22)
(0.0841216 0.00712116 6.80171e-22)
(0.103474 6.4321e-05 2.24554e-22)
(0.00319737 0.00170058 -5.35491e-22)
(0.0092771 0.00384963 0)
(0.00853843 0.00342973 2.27634e-22)
(0.0030072 0.00155894 4.61426e-22)
(0.00039106 0.000244444 -3.84997e-22)
(0.000214728 0.000135911 -3.67023e-22)
(0.110614 -0.0425637 0)
(0.105939 -0.0254592 1.12357e-22)
(0.122775 -0.0327647 -3.54288e-23)
(0.124218 -0.0434911 0)
(0.0902142 -0.0326976 -6.56819e-22)
(0.0937281 -0.0351447 -4.32278e-22)
(0.00193925 -0.00115814 1.07097e-21)
(0.00256302 -0.00206779 -3.37723e-22)
(0.00500746 -0.00323522 8.37981e-22)
(0.0850419 -0.045673 0)
(0.0913475 -0.0395076 2.2326e-21)
(0.0807389 -0.0529716 6.04103e-22)
(0.115499 0.0118439 2.0401e-22)
(0.114269 0.00618674 -2.2761e-22)
(0.12653 0.0101139 -7.86867e-23)
(0.00471862 -0.00288273 -5.68429e-23)
(0.00638664 -0.00445785 4.90416e-22)
(0.0513811 -0.0312989 1.41408e-22)
(0.0334258 -0.0206775 -2.6758e-22)
(0.0021687 -0.000624926 3.14291e-21)
(0.00526998 -0.00213427 -1.22568e-21)
(0.10166 0.0482871 2.34506e-23)
(0.0975771 0.0552774 -8.06107e-22)
(0.0811404 0.0541355 7.38907e-22)
(0.047452 0.034641 -2.81279e-21)
(0.0446794 0.0317404 1.99254e-21)
(0.0296471 0.0206875 -1.20685e-22)
(0.0328764 0.023346 -6.68277e-22)
(0.0381374 0.0284665 9.07669e-22)
(0.00466565 0.00297545 -4.97494e-23)
(0.00820317 0.00431308 -1.48192e-23)
(0.00337221 0.00215523 2.96959e-23)
(0.00203483 0.00176788 -3.91823e-22)
(0.00153601 0.00170552 4.76867e-22)
(0.0158146 0.0115912 -3.3982e-21)
(0.0175709 0.0136867 7.80888e-22)
(0.0089671 -0.00393485 0)
(0.101389 0.00516078 0)
(0.0984 0.0156858 -4.06231e-21)
(0.0604351 0.0104758 2.02736e-21)
(0.0886734 0.0178828 0)
(0.136314 -0.00367654 0)
(0.135751 -0.00450087 0)
(0.134319 -0.00493997 -3.63578e-22)
(0.115061 0.0262036 -2.23149e-22)
(0.114166 0.0276364 2.20079e-21)
(0.113345 0.0251045 1.18089e-21)
(0.00241294 0.00136915 9.91008e-22)
(0.00160201 0.000824347 -1.11231e-21)
(0.0195382 -0.00572196 -5.16499e-22)
(0.0207322 -0.00528465 4.34559e-22)
(0.0093834 -0.00302781 8.54631e-22)
(0.00649047 0.011186 1.50583e-21)
(0.0190058 0.0182163 3.52458e-21)
(0.013499 0.0228659 2.72917e-22)
(0.004933 0.0143478 -8.78763e-21)
(0.117719 0.0476235 6.03977e-23)
(0.108354 0.0581655 1.13466e-21)
(0.118887 0.0547081 -1.95748e-21)
(0.0392583 -0.0295125 7.61739e-22)
(0.0241094 -0.0173265 -4.93215e-22)
(0.00532734 -0.000725103 -4.17904e-21)
(0.00454343 -0.00358036 0)
(0.0125132 -0.00164841 2.04407e-21)
(0.0220472 -0.0161834 8.06111e-22)
(0.0343837 -0.0278649 -2.03493e-21)
(0.0477565 4.39718e-05 8.7478e-23)
(0.0506126 0.000211901 -6.06279e-23)
(0.0449796 0.000261721 -2.68799e-24)
(0.0281381 -0.0420269 0)
(0.0296853 -0.0428956 0)
(0.0896126 -0.018657 -4.84636e-22)
(0.0995799 -0.0220963 3.28138e-21)
(0.0870304 -0.02528 0)
(0.0472908 -0.0402808 0)
(0.0583797 -0.0514608 -8.12899e-22)
(0.0414603 0.0394449 2.14079e-21)
(2.52261e-06 0.00022401 4.61178e-22)
(-0.000198412 0.000134858 -2.9694e-22)
(0.0224006 -0.0192955 -8.20746e-22)
(0.115636 -0.0177037 5.61966e-22)
(0.11502 -0.0175373 -1.06801e-22)
(0.117135 -0.00469217 -5.6581e-23)
(0.110253 0.00215464 7.54026e-23)
(0.119442 0.00102639 1.25212e-22)
(9.42885e-05 0.000269714 1.81227e-22)
(0.0439447 0.0345344 3.32127e-21)
(0.0621744 0.0464408 -8.19021e-22)
(0.0596557 0.0395153 -3.21742e-24)
(0.031648 -0.00113894 7.8134e-24)
(0.0311954 -0.00118663 4.25996e-23)
(0.0337631 -0.00107337 2.14948e-24)
(0.0375911 -0.000915895 -2.10332e-23)
(0.0456066 0.038202 1.34727e-22)
(0.0190362 0.0161121 0)
(0.000124122 6.6813e-06 3.22383e-22)
(0.000415268 -0.000238894 -3.57794e-22)
(0.00191122 -0.00101145 2.44768e-22)
(0.0371701 -0.00797056 -1.79067e-21)
(0.0657918 -0.00236639 -7.22598e-22)
(0.0433768 -0.000499822 -2.2589e-24)
(0.0753035 -0.00752713 2.65502e-22)
(0.0713987 -0.0157397 2.94571e-23)
(0.0944684 0.0398226 2.2114e-21)
(0.0915973 0.0453786 9.90844e-23)
(0.0888462 0.0290369 1.25105e-21)
(0.0915777 0.0307397 -9.06618e-22)
(0.0988753 0.0409517 0)
(0.125309 -0.00131675 1.6578e-22)
(0.125993 -0.00177607 3.15899e-22)
(0.127821 -0.0112624 -3.24236e-22)
(0.129263 -0.0109946 5.56261e-22)
(0.117112 0.0236673 2.75192e-22)
(0.119181 0.0245165 -7.80069e-22)
(0.117182 0.0256973 0)
(0.115203 0.024479 1.61319e-22)
(0.116777 0.0276471 0)
(0.11737 0.035707 -5.80067e-22)
(0.115923 0.0377983 -3.15379e-22)
(0.111568 0.0416954 -5.64807e-22)
(0.113954 0.0397859 0)
(0.116696 0.0427409 1.8784e-21)
(0.113977 0.0447111 4.73583e-23)
(0.108571 0.04395 -3.15952e-22)
(0.0998866 0.0501577 -1.33697e-21)
(0.0986292 0.0453695 -2.35236e-22)
(0.0264717 -0.00926986 2.88025e-23)
(0.0347047 -0.0103419 -1.1647e-23)
(0.00649882 -0.00256882 -6.39991e-22)
(0.0427134 -8.40971e-06 -5.80411e-23)
(0.0539436 -0.000297714 0)
(-1.2641e-05 -3.42973e-05 3.8269e-22)
(6.55608e-06 -4.46975e-05 1.96327e-22)
(0.0490454 -0.00221768 2.59616e-23)
(0.0573059 -0.00214773 9.89081e-24)
(0.0567405 -0.0014334 0)
(0.0475358 -0.000922479 1.13229e-23)
(0.107645 0.00193504 -1.40491e-22)
(0.107537 0.00173021 6.69963e-22)
(0.107846 0.00175635 3.21063e-22)
(0.000721211 0.000293238 3.64271e-22)
(-0.000158093 -0.000130872 -5.35402e-22)
(-0.000203918 -0.000175838 4.50047e-22)
(0.00157053 0.000657702 0)
(9.43655e-05 9.90755e-05 1.10543e-21)
(0.000190308 -3.04274e-05 -7.87317e-22)
(0.00764114 0.00377217 -9.61798e-22)
(0.00150919 0.00081254 -1.16078e-21)
(0.00177689 0.000890076 0)
(0.00157569 0.00756621 0)
(0.000578458 0.00329069 0)
(0.000314068 0.0019827 0)
(0.137212 -0.00379906 7.58637e-23)
(0.137963 -0.00369532 0)
(0.136602 -0.00469928 -8.78316e-23)
(0.0881534 -0.0148066 4.54466e-21)
(0.0901582 -0.0152126 -1.64993e-21)
(0.0890711 -0.0128361 0)
(0.112112 3.69211e-05 -7.8973e-24)
(0.112211 3.3493e-05 1.5807e-23)
(0.112007 4.12984e-05 -5.35019e-24)
(0.112305 3.06941e-05 0)
(0.112393 2.91516e-05 -1.00626e-23)
(0.112476 2.67465e-05 0)
(0.112474 -5.96556e-05 0)
(0.112553 2.27311e-05 3.72709e-23)
(0.112551 -6.01287e-05 0)
(0.112393 -6.13285e-05 -1.01287e-23)
(0.112305 -6.38143e-05 0)
(0.112211 -6.65531e-05 5.28862e-24)
(0.112111 -7.00081e-05 -7.89851e-24)
(0.112007 -7.33495e-05 5.3435e-24)
(0.112625 1.89671e-05 -3.56652e-23)
(0.112623 -5.95843e-05 -1.24761e-24)
(0.111894 4.6282e-05 8.352e-28)
(0.111894 -7.58118e-05 -8.18272e-24)
(0.111773 5.1546e-05 4.35771e-23)
(0.112693 1.65588e-05 3.33144e-26)
(0.112693 -5.76151e-05 -1.24699e-24)
(0.111773 -7.95198e-05 1.61425e-23)
(0.112757 1.40398e-05 3.35233e-23)
(0.112818 1.18711e-05 -3.34957e-23)
(0.112757 -5.58488e-05 2.51261e-24)
(0.112818 -5.4026e-05 4.9611e-24)
(0.111648 6.0203e-05 -4.23984e-23)
(0.111647 -8.38768e-05 -1.06289e-23)
(0.112875 9.64125e-06 0)
(0.112875 -5.24371e-05 -4.89331e-24)
(0.111513 6.67888e-05 5.25284e-27)
(0.111512 -8.7094e-05 -5.26601e-27)
(0.112929 7.74732e-06 0)
(0.112929 -5.07862e-05 0)
(0.111368 7.30922e-05 0)
(0.111368 -9.12415e-05 0)
(0.11298 5.78937e-06 0)
(0.11298 -4.93347e-05 2.3485e-24)
(0.111214 7.9992e-05 -2.21161e-23)
(0.111213 -9.5282e-05 -5.39339e-27)
(0.113028 4.16724e-06 1.2309e-25)
(0.113028 -4.77612e-05 -2.50818e-24)
(0.11105 8.70648e-05 2.22217e-23)
(0.111048 -9.99127e-05 0)
(0.113073 2.46597e-06 0)
(0.113074 -4.63276e-05 0)
(0.110874 9.50051e-05 -1.40952e-24)
(0.110872 -0.000104218 2.4209e-23)
(0.113116 9.44764e-07 1.52144e-23)
(0.113116 -4.47814e-05 0)
(0.110687 0.000102795 -1.41467e-25)
(0.110685 -0.000109182 -2.29144e-23)
(0.113156 -7.52698e-07 -2.27567e-23)
(0.113157 -4.34564e-05 -6.60484e-24)
(0.110483 0.000108556 2.34063e-23)
(0.110482 -0.000114385 0)
(0.113194 -2.28121e-06 7.49532e-24)
(0.113195 -4.18923e-05 4.40485e-24)
(0.110267 0.000116954 -1.18783e-23)
(0.110266 -0.000121181 2.40906e-23)
(0.11323 -3.60786e-06 -2.99446e-23)
(0.113231 -3.96208e-05 3.37503e-23)
(0.110029 0.000120416 1.2277e-23)
(0.11003 -0.000129475 3.88998e-25)
(0.113265 -4.80459e-06 0)
(0.113266 -3.78554e-05 1.60912e-23)
(0.109773 0.000125007 -2.47518e-23)
(0.109776 -0.000141049 4.95216e-23)
(0.113299 -5.84185e-06 0)
(0.113299 -3.70714e-05 0)
(0.110045 0.000368416 -1.2148e-23)
(0.10979 0.00039081 -4.93101e-23)
(0.109494 0.00012771 0)
(0.109501 -0.000157663 -2.52937e-23)
(0.110499 0.000325182 -7.6044e-24)
(0.11028 0.000346828 1.49389e-24)
(0.110888 0.000283065 0)
(0.110698 0.000303882 -2.4491e-23)
(0.111227 0.000245229 -4.70459e-26)
(0.111063 0.00026356 0)
(0.111525 0.000211782 0)
(0.111381 0.000228003 0)
(0.111787 0.000180708 0)
(0.11166 0.000196219 0)
(0.112015 0.000155198 1.05626e-23)
(0.111904 0.000167555 2.66642e-24)
(0.112218 0.000134224 -1.01749e-23)
(0.112121 0.000144217 -1.05552e-23)
(0.112397 0.000116487 1.80267e-23)
(0.11231 0.000124124 2.30736e-23)
(0.112557 0.000101287 0)
(0.11248 0.000109128 0)
(0.112698 8.71235e-05 -7.90389e-26)
(0.11263 9.40039e-05 0)
(0.112822 7.45595e-05 0)
(0.112762 8.06365e-05 0)
(0.112933 6.34789e-05 0)
(0.112879 6.88423e-05 0)
(0.113031 5.36548e-05 0)
(0.112983 5.8427e-05 0)
(0.113119 4.49212e-05 0)
(0.113076 4.915e-05 0)
(0.113197 3.71688e-05 0)
(0.113159 4.09298e-05 0)
(0.113267 2.89759e-05 -1.22432e-23)
(0.113233 3.35848e-05 0)
(0.1133 2.51955e-05 -3.95778e-24)
(0.11333 -7.27616e-06 3.86125e-24)
(0.11333 -3.6365e-05 -3.82912e-24)
(0.113234 -7.44884e-05 0)
(0.113301 -6.79553e-05 -1.57135e-23)
(0.113268 -7.08725e-05 -8.08698e-24)
(0.113159 -8.24317e-05 2.21363e-24)
(0.113198 -7.83764e-05 -8.6682e-24)
(0.113076 -9.03318e-05 7.17446e-26)
(0.113119 -8.64935e-05 0)
(0.112983 -9.84724e-05 0)
(0.113031 -9.42829e-05 0)
(0.112879 -0.000107739 0)
(0.112933 -0.000102956 0)
(0.112761 -0.000118285 0)
(0.112822 -0.000112836 9.45754e-30)
(0.112628 -0.000130367 7.99221e-26)
(0.112697 -0.000124104 0)
(0.112479 -0.000143734 0)
(0.112556 -0.000137105 0)
(0.112311 -0.000157933 0)
(0.112397 -0.000150701 0)
(0.112119 -0.000175118 0)
(0.112218 -0.000165726 -5.34218e-24)
(0.111902 -0.000196006 1.40979e-24)
(0.112014 -0.000186164 -6.90464e-24)
(0.111657 -0.000220954 0)
(0.111784 -0.000207282 -5.62712e-24)
(0.111378 -0.000247937 0)
(0.111522 -0.000234086 0)
(0.111059 -0.000278603 0)
(0.111224 -0.000262736 0)
(0.110696 -0.000313649 0)
(0.110884 -0.000295587 0)
(0.110278 -0.000353451 -6.21654e-24)
(0.110495 -0.000332309 0)
(0.109798 -0.00040407 -2.53405e-23)
(0.110047 -0.000376096 -6.26666e-24)
(0.109526 -0.000436263 2.58581e-23)
(0.109514 0.000415314 4.89404e-23)
(0.113332 2.20309e-05 7.74485e-24)
(0.113332 -6.52798e-05 -1.51364e-23)
(0.1092 -0.000179496 0)
(0.109233 -0.000476121 0)
(0.109216 0.000441725 0)
(0.109193 0.000127795 0)
(0.11008 0.000612485 0)
(0.109561 0.000701031 1.22438e-23)
(0.10983 0.000654557 1.23356e-23)
(0.110529 0.000533834 1.56221e-23)
(0.110312 0.000572314 -3.12424e-24)
(0.110914 0.000463647 4.81261e-26)
(0.110728 0.000497443 0)
(0.11125 0.000403101 0)
(0.111087 0.000432311 0)
(0.111544 0.000350514 0)
(0.111402 0.000375886 0)
(0.111804 0.000305127 0)
(0.111678 0.000326872 0)
(0.112031 0.000265138 0)
(0.111921 0.000284656 0)
(0.112232 0.000231487 -4.26467e-26)
(0.112134 0.000248151 1.1008e-23)
(0.112408 0.000201914 -4.08846e-26)
(0.112324 0.000215678 -2.14606e-23)
(0.112567 0.000175582 0)
(0.11249 0.00018824 0)
(0.112706 0.00015282 3.94806e-26)
(0.112638 0.000163819 0)
(0.112829 0.000132889 0)
(0.11277 0.00014253 0)
(0.112939 0.000115336 0)
(0.112886 0.000123835 0)
(0.113037 9.98336e-05 0)
(0.112989 0.000107346 0)
(0.113124 8.6113e-05 0)
(0.113081 9.27615e-05 0)
(0.113201 7.38342e-05 0)
(0.113164 7.98262e-05 0)
(0.113271 6.16614e-05 8.36233e-24)
(0.113237 6.77882e-05 0)
(0.11336 -8.61161e-06 0)
(0.113362 1.92741e-05 7.57744e-24)
(0.113335 5.07154e-05 0)
(0.113304 5.59133e-05 8.15084e-24)
(0.113304 -9.91207e-05 1.62257e-23)
(0.113335 -9.46548e-05 3.98768e-24)
(0.113362 -6.30858e-05 3.10979e-23)
(0.11336 -3.53762e-05 0)
(0.113238 -0.000109874 0)
(0.113272 -0.00010419 -2.4493e-23)
(0.113164 -0.000121637 6.9744e-26)
(0.113202 -0.000115541 8.72092e-24)
(0.113082 -0.000133811 -7.17443e-26)
(0.113124 -0.000127598 0)
(0.112989 -0.000147326 0)
(0.113037 -0.000140362 0)
(0.112886 -0.000162695 0)
(0.112939 -0.000154763 0)
(0.112769 -0.000180206 0)
(0.112829 -0.000171164 -9.45751e-30)
(0.112637 -0.000200166 -1.59809e-25)
(0.112705 -0.000189862 0)
(0.112489 -0.00022301 0)
(0.112566 -0.000211202 0)
(0.112322 -0.000248876 2.6961e-24)
(0.112408 -0.000235496 0)
(0.112133 -0.000277954 0)
(0.11223 -0.000262539 -2.68485e-24)
(0.111918 -0.000312272 5.63772e-24)
(0.112028 -0.000294794 5.59455e-24)
(0.111674 -0.000351301 0)
(0.1118 -0.00033118 0)
(0.111397 -0.000396056 0)
(0.11154 -0.000372904 0)
(0.111082 -0.000447617 0)
(0.111245 -0.000420912 0)
(0.110721 -0.000507251 0)
(0.110908 -0.000476349 0)
(0.110309 -0.000576395 9.97373e-26)
(0.110522 -0.000540494 0)
(0.109836 -0.000657192 -1.01598e-25)
(0.110081 -0.000615188 0)
(0.109285 -0.000762234 -2.66657e-23)
(0.10957 -0.000706847 2.66534e-23)
(0.10927 0.000750994 2.50089e-23)
(0.108917 -0.00052314 0)
(0.108977 -0.000827623 -5.4537e-23)
(0.10888 -0.000204491 0)
(0.113364 4.66992e-05 0)
(0.113364 -9.04095e-05 -3.8705e-24)
(0.108896 0.000470647 6.3617e-23)
(0.108959 0.0008054 2.54725e-23)
(0.108576 -0.000574619 1.37969e-23)
(0.108644 -0.000900499 6.89355e-23)
(0.108868 0.000127785 0)
(0.113339 8.0548e-05 3.19056e-23)
(0.113368 7.42016e-05 -1.57625e-23)
(0.11339 -6.10155e-05 -7.66318e-24)
(0.113392 -8.62677e-05 3.811e-23)
(0.109055 0.00113095 8.90352e-23)
(0.10862 0.000865431 -5.01115e-23)
(0.108364 0.00131343 -2.27028e-22)
(0.108722 0.00121568 -5.08848e-23)
(0.109634 0.000980444 2.46828e-23)
(0.109355 0.00105323 -7.56757e-23)
(0.110136 0.000850106 -2.51845e-23)
(0.109894 0.00091305 -1.90608e-23)
(0.110574 0.000738102 -6.24794e-24)
(0.110363 0.000792494 -6.2673e-24)
(0.110953 0.000641896 -4.81261e-26)
(0.11077 0.000688146 0)
(0.111284 0.000559032 0)
(0.111124 0.000598952 0)
(0.111573 0.000487424 0)
(0.111433 0.000521935 0)
(0.111828 0.000425495 0)
(0.111705 0.000455326 0)
(0.112053 0.000371874 0)
(0.111944 0.000397677 0)
(0.112251 0.000325229 0)
(0.112155 0.00034775 0)
(0.112425 0.000284657 1.6494e-29)
(0.112341 0.000304343 0)
(0.112581 0.00024904 0)
(0.112505 0.000266204 0)
(0.112718 0.000217949 3.94596e-26)
(0.112651 0.000232981 0)
(0.11284 0.000190694 0)
(0.112781 0.00020388 0)
(0.112949 0.000166722 0)
(0.112896 0.000178329 0)
(0.113045 0.000145588 0)
(0.112998 0.000155826 0)
(0.113131 0.000126912 0)
(0.113089 0.000135966 0)
(0.113208 0.000110245 0)
(0.113171 0.000118369 0)
(0.113277 9.46143e-05 4.2622e-24)
(0.113243 0.000102282 -2.1445e-24)
(0.113309 8.73696e-05 -1.62725e-23)
(0.113388 -9.27867e-06 -3.62856e-24)
(0.113392 4.28388e-05 1.51805e-23)
(0.113389 1.66369e-05 -1.15988e-23)
(0.113388 -3.47497e-05 0)
(0.113309 -0.000130572 -1.20871e-23)
(0.113369 -0.000117719 -3.49057e-23)
(0.11334 -0.000123952 2.80983e-23)
(0.113244 -0.000145218 0)
(0.113277 -0.000137686 0)
(0.113171 -0.000160187 -9.1084e-30)
(0.113208 -0.000152331 0)
(0.11309 -0.000176931 0)
(0.113131 -0.000168329 0)
(0.112998 -0.000195782 -7.37387e-26)
(0.113045 -0.000186065 0)
(0.112896 -0.000217195 0)
(0.112949 -0.000206147 0)
(0.112781 -0.000241569 0)
(0.11284 -0.000228989 0)
(0.112651 -0.000269331 7.98985e-26)
(0.112717 -0.000255003 0)
(0.112504 -0.000300978 8.19702e-26)
(0.11258 -0.000284628 0)
(0.112339 -0.000337098 0)
(0.112424 -0.000318425 0)
(0.112152 -0.000378383 0)
(0.112248 -0.000357056 0)
(0.11194 -0.000425754 0)
(0.112049 -0.000401228 0)
(0.1117 -0.000479988 0)
(0.111824 -0.000451917 0)
(0.111427 -0.000542492 -9.28007e-26)
(0.111567 -0.000510137 0)
(0.111116 -0.000614633 0)
(0.111276 -0.000577264 0)
(0.110761 -0.000698125 0)
(0.110944 -0.000654852 0)
(0.110355 -0.000794938 -4.94209e-29)
(0.110565 -0.000744733 0)
(0.10989 -0.000907395 6.1525e-29)
(0.11013 -0.000849058 0)
(0.109356 -0.00104223 1.05652e-25)
(0.109632 -0.000970801 0)
(0.108734 -0.00121367 -5.59505e-23)
(0.109056 -0.0011226 1.3703e-23)
(0.108287 -0.000978287 1.40967e-23)
(0.108391 -0.00131401 2.79164e-23)
(0.108554 0.00050005 -2.48286e-23)
(0.108533 -0.000233329 -2.67381e-23)
(0.113396 6.86682e-05 3.86311e-24)
(0.113396 -0.000112351 2.74363e-23)
(0.108244 0.000923847 3.06944e-24)
(0.108209 -0.000633268 0)
(0.107908 0.00137762 3.4779e-22)
(0.108024 -0.0014217 4.33301e-23)
(0.107908 -0.00106335 5.77846e-23)
(0.108032 0.00193158 -5.83694e-22)
(0.107748 0.00210169 1.04863e-22)
(0.108526 0.00012879 0)
(0.108565 0.00167123 5.74052e-23)
(0.108275 0.00181042 2.9859e-23)
(0.109177 0.00144203 5.16281e-23)
(0.10887 0.0015501 -7.89137e-23)
(0.109732 0.00124767 -2.55827e-23)
(0.109465 0.00134209 -1.28036e-23)
(0.110214 0.00108096 1.27811e-23)
(0.109981 0.00116074 1.29894e-23)
(0.110637 0.000938193 0)
(0.110432 0.00100679 -3.45075e-26)
(0.111005 0.000816454 0)
(0.110827 0.000874991 0)
(0.111328 0.000711862 4.69425e-26)
(0.111172 0.000762208 0)
(0.111612 0.000621661 0)
(0.111474 0.000665121 0)
(0.111861 0.000543645 0)
(0.11174 0.000581251 0)
(0.112081 0.000476065 0)
(0.111975 0.000508653 0)
(0.112275 0.000417312 4.25808e-26)
(0.112181 0.000445666 0)
(0.112447 0.00036608 1.73342e-29)
(0.112364 0.000390865 0)
(0.112599 0.00032127 0)
(0.112525 0.000342918 0)
(0.112734 0.000282018 -7.89048e-26)
(0.112669 0.000301004 0)
(0.112854 0.000247585 0)
(0.112796 0.000264245 0)
(0.112961 0.000217315 0)
(0.112909 0.00023197 0)
(0.113056 0.000190647 0)
(0.11301 0.000203564 0)
(0.113141 0.000167108 0)
(0.1131 0.000178516 0)
(0.113216 0.000146206 0)
(0.11318 0.00015637 0)
(0.113284 0.000127301 -2.12932e-24)
(0.113251 0.000136392 0)
(0.113346 0.000110262 0)
(0.113316 0.000118574 -4.13238e-24)
(0.113401 9.45249e-05 1.33565e-27)
(0.113374 0.000102166 0)
(0.113418 3.91821e-05 -1.53914e-23)
(0.113427 8.79248e-05 9.29924e-25)
(0.113422 6.39244e-05 7.54242e-24)
(0.113415 -9.82298e-06 5.53656e-24)
(0.113416 1.44843e-05 -3.82163e-24)
(0.113416 -5.9105e-05 -1.92375e-24)
(0.113415 -3.42974e-05 1.92062e-24)
(0.113422 -0.000107975 0)
(0.113418 -8.30206e-05 -1.74625e-23)
(0.113374 -0.000145714 -7.85005e-24)
(0.113426 -0.000132914 -1.50208e-23)
(0.113401 -0.000138842 3.45569e-23)
(0.113316 -0.000161532 -4.11576e-24)
(0.113346 -0.000153351 0)
(0.113252 -0.000179316 0)
(0.113285 -0.000170202 0)
(0.11318 -0.00019822 -1.2822e-29)
(0.113217 -0.000188537 0)
(0.1131 -0.0002195 0)
(0.113141 -0.000208539 0)
(0.11301 -0.000243585 7.37387e-26)
(0.113056 -0.000231166 0)
(0.112909 -0.000270946 0)
(0.112961 -0.00025683 0)
(0.112796 -0.000302073 0)
(0.112854 -0.00028601 0)
(0.112668 -0.000337514 0)
(0.112734 -0.000319222 0)
(0.112524 -0.000377912 -2.51637e-29)
(0.112598 -0.000357054 0)
(0.112361 -0.00042402 0)
(0.112445 -0.000400202 0)
(0.112177 -0.000476757 0)
(0.112272 -0.0004495 0)
(0.111969 -0.000537209 0)
(0.112077 -0.000505947 0)
(0.111733 -0.000606594 0)
(0.111855 -0.000570688 0)
(0.111465 -0.000686504 9.28007e-26)
(0.111604 -0.000645138 0)
(0.111161 -0.000778747 0)
(0.111318 -0.000730965 0)
(0.110813 -0.000885503 0)
(0.110993 -0.000830173 0)
(0.110417 -0.0010093 -9.96784e-26)
(0.110622 -0.000945105 0)
(0.109963 -0.001153 1.02046e-25)
(0.110198 -0.00107848 0)
(0.109443 -0.00132057 -1.04458e-25)
(0.109712 -0.0012335 0)
(0.108847 -0.00152105 1.3797e-23)
(0.109155 -0.00141495 -2.71901e-23)
(0.108164 -0.00176733 -1.39716e-23)
(0.108516 -0.00163797 2.84104e-23)
(0.10763 -0.00153741 6.60859e-25)
(0.107786 -0.00190656 2.89121e-23)
(0.108184 0.000525292 -2.5679e-23)
(0.108165 -0.000259375 0)
(0.107851 0.000968645 -2.49293e-22)
(0.10782 -0.000686325 0)
(0.113408 0.000121535 -3.86665e-24)
(0.113433 0.000113432 2.83262e-24)
(0.113446 -0.000103464 -1.47785e-23)
(0.113451 -0.000126744 -1.67494e-23)
(0.10748 0.00140111 -2.45085e-22)
(0.107501 -0.00115482 -5.835e-23)
(0.107403 0.00213648 0)
(0.108188 0.00228841 -6.78137e-23)
(0.107208 -0.00166322 -2.8636e-23)
(0.107381 -0.00205636 4.40582e-23)
(0.107838 0.00241756 1.35769e-22)
(0.108158 0.000129531 0)
(0.108755 0.00199548 0)
(0.108473 0.00214304 -6.00687e-23)
(0.109324 0.00173205 0)
(0.109042 0.00186019 0)
(0.109848 0.00149977 0)
(0.109594 0.00161143 1.32647e-23)
(0.110308 0.00130167 0)
(0.110086 0.00139689 0)
(0.110713 0.0011317 0)
(0.110517 0.00121341 0)
(0.11107 0.000986023 0)
(0.110897 0.00105611 0)
(0.111383 0.000860727 -4.69425e-26)
(0.111231 0.000921046 0)
(0.111658 0.000752632 0)
(0.111525 0.000804716 0)
(0.111901 0.000659094 0)
(0.111784 0.000704194 0)
(0.112116 0.000577961 0)
(0.112012 0.000617104 0)
(0.112306 0.000507403 -2.242e-29)
(0.112214 0.000541471 0)
(0.112473 0.000445868 2.0358e-29)
(0.112392 0.000475603 0)
(0.112622 0.000392037 0)
(0.11255 0.000418061 0)
(0.112754 0.000344852 1.71366e-29)
(0.11269 0.000367677 0)
(0.112872 0.000303431 0)
(0.112815 0.000323475 0)
(0.112976 0.000267011 0)
(0.112926 0.000284643 0)
(0.11307 0.000234932 0)
(0.113024 0.000250469 0)
(0.113153 0.000206638 0)
(0.113112 0.000220346 0)
(0.113227 0.000181627 0)
(0.113191 0.000193755 0)
(0.113294 0.000159477 0)
(0.113261 0.000170238 0)
(0.113353 0.000139135 4.10227e-24)
(0.113324 0.000148878 4.19513e-24)
(0.113381 0.000129895 -7.8753e-24)
(0.113443 3.59186e-05 -7.5553e-24)
(0.113451 8.23605e-05 0)
(0.113447 5.93872e-05 -7.63045e-24)
(0.113439 -1.04206e-05 0)
(0.11344 1.28864e-05 7.71067e-24)
(0.113441 -5.75153e-05 1.15091e-23)
(0.113439 -3.40488e-05 -3.88962e-24)
(0.113443 -8.01822e-05 -2.26189e-23)
(0.113381 -0.000173439 3.95876e-24)
(0.113432 -0.00015631 1.47445e-23)
(0.113407 -0.000165333 0)
(0.113325 -0.00019211 -8.19735e-24)
(0.113354 -0.000182488 8.22441e-24)
(0.113262 -0.000212764 0)
(0.113294 -0.000202323 0)
(0.113191 -0.000235567 -1.62151e-29)
(0.113227 -0.000223838 0)
(0.113113 -0.000261336 0)
(0.113153 -0.000248055 0)
(0.113025 -0.00029055 0)
(0.11307 -0.000275484 0)
(0.112926 -0.000323738 0)
(0.112977 -0.000306617 0)
(0.112814 -0.00036148 0)
(0.112872 -0.000342005 0)
(0.112689 -0.000404441 7.98309e-26)
(0.112754 -0.000382267 0)
(0.112548 -0.000453408 -8.19451e-26)
(0.112621 -0.000428126 0)
(0.112389 -0.000509299 0)
(0.112471 -0.000480431 0)
(0.112209 -0.000573203 0)
(0.112302 -0.000540177 0)
(0.112006 -0.000646432 0)
(0.112111 -0.000608573 0)
(0.111775 -0.000730512 0)
(0.111894 -0.000687013 0)
(0.111514 -0.000827303 0)
(0.111649 -0.000777202 0)
(0.111217 -0.000938995 0)
(0.11137 -0.000881145 0)
(0.110879 -0.00106818 -9.7227e-26)
(0.111053 -0.00100124 0)
(0.110494 -0.00121789 9.954e-26)
(0.110693 -0.00114028 0)
(0.110054 -0.00139163 -1.01888e-25)
(0.110281 -0.00130153 0)
(0.109552 -0.00159353 0)
(0.109812 -0.00148879 0)
(0.108979 -0.0018284 0)
(0.109275 -0.00170646 0)
(0.108326 -0.00210409 1.10507e-25)
(0.108664 -0.00195973 1.39667e-23)
(0.107579 -0.00243388 -7.3698e-23)
(0.107965 -0.00226171 0)
(0.106947 -0.00222342 -4.3625e-23)
(0.107166 -0.00262197 -6.70884e-25)
(0.107791 0.000549715 8.04696e-23)
(0.107772 -0.000284583 0)
(0.113457 0.000105624 -1.4719e-23)
(0.113456 -0.000149146 -2.83992e-23)
(0.107407 0.000995248 -4.29711e-23)
(0.107162 0.00188786 6.25261e-25)
(0.107029 0.00144337 1.24709e-22)
(0.107408 -0.000739866 0)
(0.107068 -0.00124367 1.47369e-23)
(0.107398 0.00253809 -1.24908e-22)
(0.106989 0.00260581 1.0864e-22)
(0.106801 0.00208247 -1.07013e-22)
(0.106757 -0.00179355 -4.42961e-23)
(0.106483 -0.00239672 2.97425e-23)
(0.106724 -0.00283114 2.89794e-23)
(0.107763 0.000129423 0)
(0.108348 0.00262215 3.77546e-24)
(0.107574 0.00297897 -7.07264e-25)
(0.107976 0.00279299 2.93396e-23)
(0.108941 0.00229714 2.88477e-23)
(0.108658 0.00245615 -2.89977e-23)
(0.109484 0.00200008 5.26491e-26)
(0.109215 0.00214513 0)
(0.109978 0.00173849 0)
(0.109738 0.00186457 0)
(0.110416 0.00151249 0)
(0.110203 0.00162135 0)
(0.110803 0.00131755 0)
(0.110616 0.0014114 0)
(0.111145 0.00114963 4.79926e-26)
(0.11098 0.00123048 0)
(0.111447 0.00100483 0)
(0.111301 0.00107458 0)
(0.111714 0.000879695 0)
(0.111585 0.000940008 0)
(0.111949 0.000771288 0)
(0.111835 0.000823573 0)
(0.112157 0.000677145 0)
(0.112056 0.000722578 0)
(0.112341 0.000595194 -4.25584e-26)
(0.112252 0.000634769 0)
(0.112504 0.000523676 2.36208e-29)
(0.112425 0.000558236 0)
(0.112649 0.0004611 0)
(0.112579 0.000491357 0)
(0.112778 0.000406228 7.88364e-26)
(0.112716 0.000432775 0)
(0.112893 0.000358029 0)
(0.112837 0.000381356 0)
(0.112995 0.000315632 0)
(0.112945 0.000336159 0)
(0.113086 0.000278286 0)
(0.113041 0.000296373 0)
(0.113167 0.000245354 0)
(0.113127 0.000261307 0)
(0.113239 0.000216283 0)
(0.113204 0.00023037 0)
(0.113305 0.000190604 6.68072e-26)
(0.113273 0.000203055 0)
(0.113363 0.000167557 -4.1202e-24)
(0.113335 0.000178878 0)
(0.113416 0.000146399 3.92099e-24)
(0.11339 0.000156681 0)
(0.113464 0.000127891 3.74626e-24)
(0.11344 0.000136899 -3.8282e-24)
(0.113474 7.69944e-05 7.40392e-24)
(0.113486 0.000119387 0)
(0.11348 9.89364e-05 1.10205e-23)
(0.113466 3.33334e-05 0)
(0.11347 5.50713e-05 0)
(0.113462 -1.1106e-05 0)
(0.113464 1.13194e-05 0)
(0.113464 -5.60544e-05 0)
(0.113462 -3.36417e-05 0)
(0.113469 -9.95544e-05 1.50617e-23)
(0.113466 -7.77585e-05 3.74392e-24)
(0.113479 -0.000142621 3.70579e-24)
(0.113474 -0.000121206 2.95285e-23)
(0.11344 -0.000180576 1.92305e-23)
(0.113485 -0.000164137 3.69079e-24)
(0.113463 -0.000171925 -7.49369e-24)
(0.11339 -0.000200183 3.95249e-24)
(0.113415 -0.000190047 -2.36928e-23)
(0.113335 -0.000221912 -1.17956e-29)
(0.113363 -0.000210761 0)
(0.113273 -0.00024548 0)
(0.113305 -0.000233344 0)
(0.113205 -0.000272121 -1.95904e-29)
(0.11324 -0.000258396 0)
(0.113128 -0.000302288 0)
(0.113167 -0.000286736 0)
(0.113042 -0.00033651 0)
(0.113086 -0.000318861 0)
(0.112945 -0.000375381 0)
(0.112995 -0.00035533 0)
(0.112837 -0.000419572 0)
(0.112892 -0.000396771 0)
(0.112714 -0.00046986 -1.59628e-25)
(0.112777 -0.000443907 0)
(0.112577 -0.000527161 0)
(0.112648 -0.000497578 0)
(0.112422 -0.000592547 0)
(0.112502 -0.000558777 0)
(0.112247 -0.000667285 0)
(0.112337 -0.000628666 0)
(0.112049 -0.000752887 0)
(0.112151 -0.000708634 0)
(0.111825 -0.00085114 -9.04318e-26)
(0.11194 -0.000800317 0)
(0.111571 -0.000964177 0)
(0.111702 -0.000905674 0)
(0.111284 -0.00109452 0)
(0.111432 -0.00102702 0)
(0.110957 -0.00124515 9.7227e-26)
(0.111126 -0.00116711 0)
(0.110586 -0.00141951 -8.99405e-29)
(0.110777 -0.00132914 0)
(0.110163 -0.00162159 2.03675e-25)
(0.110381 -0.00151683 0)
(0.109681 -0.00185592 0)
(0.10993 -0.00173444 0)
(0.109133 -0.00212735 0)
(0.109416 -0.00198668 0)
(0.10851 -0.00244053 -1.59438e-28)
(0.108832 -0.00227843 0)
(0.107801 -0.00280184 0)
(0.108166 -0.0026148 0)
(0.106995 -0.00323445 -4.41658e-23)
(0.107411 -0.00300788 0)
(0.106253 -0.00305038 -6.57753e-25)
(0.106551 -0.00348318 7.5424e-23)
(0.107357 0.000567934 0)
(0.107175 0.00312207 1.70616e-22)
(0.106947 0.00102247 2.94554e-23)
(0.113472 0.000149973 -3.73921e-24)
(0.113493 0.000140893 0)
(0.1135 -0.000136774 3.61263e-24)
(0.113506 -0.000156657 -7.16112e-24)
(0.107353 -0.000310036 0)
(0.106968 -0.000796044 0)
(0.106599 0.00156547 0)
(0.106605 -0.0013365 -1.45145e-23)
(0.106274 -0.00193498 -2.94319e-23)
(0.105986 -0.00258673 0)
(0.105751 -0.00328418 7.63094e-23)
(0.106078 -0.00374386 -6.0851e-23)
(0.107337 0.000128577 0)
(0.107808 0.0033718 -1.4123e-26)
(0.106724 0.00327279 5.41945e-23)
(0.107002 0.00378213 -1.93787e-22)
(0.107419 0.00357663 5.61906e-23)
(0.108534 0.00294712 -1.82123e-23)
(0.108179 0.00315036 -2.90898e-23)
(0.109129 0.00258195 0)
(0.108846 0.00275926 0)
(0.10965 0.00225393 -5.26442e-26)
(0.109395 0.00241352 0)
(0.110119 0.00196487 0)
(0.109891 0.00210453 0)
(0.110535 0.00171321 0)
(0.110333 0.0018346 0)
(0.110904 0.00149516 0)
(0.110725 0.00160026 0)
(0.111231 0.0013066 -4.79926e-26)
(0.111073 0.00139747 0)
(0.11152 0.00114351 0)
(0.11138 0.00122212 0)
(0.111776 0.00100228 0)
(0.111652 0.00107039 0)
(0.112003 0.000879745 0)
(0.111893 0.000938867 0)
(0.112204 0.00077319 0)
(0.112106 0.00082463 0)
(0.112382 0.000680331 4.25031e-26)
(0.112296 0.000725185 0)
(0.11254 0.000599221 2.67437e-29)