/*--------------------------------*- C++ -*----------------------------------*\
  =========                 |
  \\      /  F ield         | OpenFOAM: The Open Source CFD Toolbox
   \\    /   O peration     | Website:  https://openfoam.org
    \\  /    A nd           | Version:  10
     \\/     M anipulation  |
\*---------------------------------------------------------------------------*/
FoamFile
{
    format      ascii;
    class       surfaceScalarField;
    location    "20";
    object      phi;
}
// * * * * * * * * * * * * * * * * * * * * * * * * * * * * * * * * * * * * * //

dimensions      [0 3 -1 0 0 0 0];

internalField   nonuniform List<scalar> 
51391
(
-0.0354851
0.0122337
-0.010805
0.0340564
0.014933
-0.0167937
-0.0336244
0.0236532
-0.0155029
0.00678269
0.0356398
0.000247091
0.0430502
-0.0294287
0.0293589
-0.0429803
0.0320092
-0.0278208
0.0388618
-0.0566129
0.0342459
0.0430499
-0.0206829
0.00617733
-0.0503103
-0.01248
0.0578263
-0.00176253
-0.0498864
0.0277223
0.0380263
-0.00792228
0.0194674
-0.024601
0.0610892
-0.0559556
0.0561953
0.0176942
-0.0544221
0.0722809
-0.0521512
-0.0447307
0.00494041
0.0057573
0.000640178
-0.0113379
0.00935687
0.00438924
-0.0088057
0.0560919
0.03939
-0.0513944
-0.0440876
0.0794988
0.0230992
-0.0465061
0.103919
-0.0614158
-0.059718
0.0172147
0.0422479
0.0711014
-0.00943027
0.0377643
-0.00734551
-0.0368881
0.00646936
0.00648532
0.0271065
0.00417246
0.01168
-0.0373559
0.0256759
0.024764
0.0118521
-0.0249361
-0.00376791
-0.0427793
-0.000129266
0.0466764
-0.0459231
0.0513598
-0.00920456
0.00591481
-0.00723375
-0.0446042
0.00625408
-0.0431185
-0.0440103
0.0106211
0.0363731
-0.00298392
9.0498e-05
-0.0442301
0.0260395
0.0312581
0.0203773
0.0255185
-0.0198563
0.00296897
-0.00182702
-0.00114195
0.00199019
0.000978782
-0.00732106
0.00694413
-0.00145009
-0.0226093
0.0283037
0.00437509
-0.0100695
-0.0437163
0.0223535
0.0326576
-0.0112947
-0.0436387
0.00962535
-0.00970292
0.0621942
-0.000151614
-0.0589031
-0.00313942
0.0438726
-0.00893917
0.0272608
0.0170543
0.0524621
0.021584
-0.0911004
0.0167708
-0.0563926
0.0566762
0.0592559
0.017327
-0.0598121
-0.0376201
0.00325482
0.00645555
0.0279097
-0.0379013
0.000830574
-0.000549375
0.00012989
-0.0371924
-0.000838757
0.0654846
0.0250436
-0.0344412
-0.056087
0.0163018
0.0703741
-0.0211914
0.000354221
-0.0114687
0.0129166
-0.00180214
-0.0364931
0.00832248
0.0285249
0.0244576
-0.0337951
-0.0271556
0.0143399
-0.0469628
-0.051909
0.084532
-0.0154039
0.0864577
-0.0567139
-0.0524106
0.0328675
0.0195431
-0.0341251
-0.0182855
0.027914
-0.0177496
0.00294424
-0.0131087
0.00420157
0.000613055
0.0230994
0.00023553
-0.0217049
0.0037198
-0.0657211
-0.0188829
0.0297453
0.0548587
-0.0172716
-0.0481878
-0.00026178
0.0217017
-0.00193187
-0.0370414
0.027532
-0.0247132
-0.0523928
0.0278866
-0.02485
0.0493562
0.0195104
-0.0421578
-0.0157734
0.00794592
-0.015874
0.0237014
-0.0297464
-0.00707286
0.0210459
-0.0305835
-0.00448871
0.00532587
0.00651099
-0.00286537
-0.00364563
0.00285068
0.00366031
0.000255925
0.00173426
0.00402904
-0.00372178
-0.00383734
0.00353008
0.001437
0.00259203
0.0191267
0.0167517
-0.00621306
-0.0296653
0.021807
0.0240078
-0.0266882
0.0465627
0.0049792
-0.0297349
-0.0471273
0.0468064
-0.00517071
0.00549166
0.00518573
0.0385637
-0.00643601
-0.00462816
0.0028507
0.0300777
0.00597445
-0.0389028
0.0290616
-0.0371421
0.0109313
0.0153666
0.0437726
0.0362071
-0.0363868
0.00101018
0.0243715
0.0150904
-0.00999251
0.0129421
-0.00696
0.00401045
0.0192784
-0.0270198
-0.00225109
0.0207878
0.0114327
0.00892412
0.0261224
-0.000252432
-0.0347941
0.0146996
0.0261138
-0.0318893
0.0259025
0.0149194
0.00156691
-0.00345112
0.0389537
-0.0370695
0.0415498
0.000655606
-0.0406385
0.00376679
-0.00568119
-0.0126208
0.0145352
-0.0183615
0.00974741
0.0123808
-0.00712901
-0.00473924
0.00618706
-0.00981376
0.0319297
0.00914212
0.0344494
-0.00789008
0.0457239
-0.0271948
0.0100211
-0.0285502
0.0417925
0.0359417
-0.0320104
0.0431099
-0.0307461
0.0435393
-0.0156511
-0.030012
0.0021239
0.00437293
0.0416971
-0.00253079
0.0399372
0.00463691
-0.0402011
0.0172447
8.32107e-05
-0.00362575
0.0346964
0.0028959
-0.0339665
0.0267108
0.00166643
-0.032003
0.0407014
-0.0094562
0.00289062
0.0427796
-0.0125702
-0.0331001
0.00217232
0.039735
-0.0390167
-0.0533102
-0.0550684
0.0379114
-0.0484195
-0.0428021
-0.0437512
0.0104285
-0.010316
-0.0105928
-0.044841
0.0116826
0.00548489
0.0391962
-0.00851968
-0.0361615
0.0390072
-0.0333935
-0.000128745
0.0135354
-0.0444719
0.0370397
-0.00610321
-0.0252655
0.000673293
0.0381277
0.0411549
0.00699819
-0.00871739
-0.0394357
0.00768324
-0.00742755
0.0408992
0.0188094
0.0547462
-0.0173603
0.0279157
-0.0522759
-0.0441729
0.0685332
0.0408304
-0.0711148
0.0582001
0.0185008
-0.0179746
0.0403041
0.0613639
0.0122394
-0.0615304
-0.012073
0.00725437
0.0695291
-0.0154196
0.0946213
0.000998184
0.0210755
-0.116695
-0.0159684
0.0541971
-0.0169666
0.0185576
-0.0199524
0.033702
-0.0180357
-0.0326329
0.0185063
0.0097251
-0.012046
-0.0161854
0.0113468
0.0161075
-0.008948
-0.0107569
0.0136169
0.0084868
0.01396
-0.0149918
0.00807592
-0.00916403
-0.0340225
0.00750773
0.0356788
-0.0275555
0.0430414
-0.0246499
0.00529331
0.00250708
-0.0353559
0.00489669
-0.0336259
-0.0297763
0.02964
-0.0405955
0.0317984
0.0301698
-0.00186917
-0.0213383
0.00130463
0.0219029
-0.00934475
-0.0293293
0.0102917
0.0283824
-0.0149905
-0.0223755
0.0280213
-0.0254743
-0.0188455
-0.0280637
-0.0209125
0.0235019
-0.0294382
-0.0214426
0.0228171
-0.0299069
-0.0223563
0.0228249
-0.0307189
-0.0231218
0.0239337
-0.0314346
-0.0226093
0.023325
-0.0318316
-0.0229447
0.0233417
-0.0324689
-0.0224851
0.0231225
-0.0326933
-0.0229975
0.0232219
-0.0331245
-0.022816
0.0232472
-0.0331555
-0.023583
0.023614
-0.0334356
-0.0235638
0.023844
-0.0333341
-0.0244354
0.0243339
-0.0335029
-0.0244227
0.0245915
-0.033282
-0.025268
0.0250471
-0.033341
-0.0251148
0.0251738
-0.0330156
-0.0257195
0.0253941
-0.0329947
-0.0251439
0.0251229
-0.0326296
-0.0251309
0.0247659
-0.0326013
-0.0237509
0.0237226
-0.0323118
-0.022686
0.0223965
-0.0323808
-0.0201867
0.0202558
-0.0323025
-0.017789
0.0177106
-0.0325541
-0.0141447
0.0143964
-0.0327624
-0.010487
0.0106953
-0.0331936
-0.00604111
0.00647228
-0.0336682
-0.00153852
0.00201309
-0.0342341
0.00311212
-0.00254616
-0.0349136
0.00777618
-0.00709675
-0.0353789
0.0116065
-0.0111412
-0.0370026
0.0152114
-0.0135877
-0.0363347
0.0177493
-0.0184171
-0.0374786
-0.0194449
0.0205887
-0.0375651
-0.0235393
0.0236258
0.0278543
-0.0247484
-0.040671
-0.0346505
0.0352561
-0.0200504
-0.0396003
-0.0185895
-0.0386709
0.0382838
0.0240129
0.025896
-0.0303286
-0.0179429
0.0135482
0.0277057
-0.0153579
0.0129233
0.0286461
-0.0371062
0.0262896
-0.0375381
0.0374053
0.0178822
0.0213344
-0.0365198
0.0360548
0.0120715
0.0160969
-0.0354546
0.035125
0.00344168
0.00837646
-0.0348161
0.0344652
-0.00569025
-0.00122958
-0.0344655
0.0341641
-0.0138433
-0.0104872
-0.0344721
0.0342292
-0.0199438
-0.0180971
-0.0347328
0.0344885
-0.0235066
-0.0231896
-0.0350349
0.0347265
-0.0248355
-0.0256773
-0.0352042
0.0348003
-0.0247109
-0.0261971
-0.0351563
0.0346508
-0.0239172
-0.0256241
-0.0348769
0.0342801
-0.022967
-0.0246615
-0.0343783
0.0336671
-0.0221048
-0.0236812
-0.033588
0.0326958
-0.0215929
-0.0229184
-0.0323996
0.031324
-0.0215337
-0.0226485
-0.030911
0.0295993
-0.0210447
-0.0227088
-0.029676
0.0292534
-0.0204899
-0.0215193
-0.0199207
0.0306117
-0.0310494
0.0232549
-0.034153
0.0155796
0.0288652
0.0199606
0.0315427
-0.0318415
0.0242325
0.0233182
0.032068
-0.0318996
0.0231734
0.0235516
0.0329765
-0.0326644
0.0229097
0.0241994
0.0335361
-0.03302
0.0230979
0.0241189
0.0337313
-0.0330483
0.0236508
0.0245553
0.0336567
-0.0328304
0.0242208
0.0252
0.0333437
-0.0324016
0.024452
0.0256871
0.0328349
-0.0318705
0.0238014
0.0255562
0.0322652
-0.0314463
0.0215776
0.0241174
0.0318536
-0.0313839
0.0172409
0.020663
0.0318197
-0.0318504
0.010726
0.0148322
0.0322609
-0.0328597
0.00261184
0.00688282
0.0331645
-0.0343478
-0.00591338
-0.00224139
0.03437
-0.0344393
-0.0135184
-0.011119
-0.0176004
0.0139273
0.0273783
-0.0121634
0.0128879
0.0279216
-0.0120884
0.0276307
-0.0301105
0.0265689
-0.0335647
-0.0221171
-0.0327418
-0.0350531
0.0359485
0.0256736
0.0262984
-0.0250353
-0.0348278
-0.0346732
0.0259186
-0.0179246
-0.0302606
0.00858493
-0.0341048
0.0329998
-0.0189454
-0.0339455
-0.0187487
0.0310742
-0.0334322
0.0179376
0.013964
0.0288285
0.029304
0.0157342
-0.0118799
0.0118999
0.0288085
0.0283864
-0.0364962
0.0370633
0.0234458
0.0257419
-0.0372083
0.0366429
0.0184475
0.0211893
-0.0361047
0.0358791
0.0122971
0.0166351
-0.0360095
0.0360659
0.00338533
0.00824608
-0.0361846
0.0364078
-0.00591347
-0.00134835
-0.0365297
0.0369122
-0.0142258
-0.0106091
-0.0370186
0.0374694
-0.0203946
-0.0182034
-0.0374847
0.0378802
-0.0239021
-0.0232049
-0.0377438
0.0380076
-0.0250993
-0.0255409
-0.0377123
0.0378302
-0.0248287
-0.0259019
-0.0374019
0.0373896
-0.0239049
-0.0251958
-0.0368581
0.0367401
-0.022849
-0.02413
-0.0361257
0.0359018
-0.0218809
-0.0230668
-0.0351694
0.0347882
-0.0212118
-0.022186
-0.033883
0.0333479
-0.0209986
-0.0217432
-0.0322401
0.0318872
-0.0206918
-0.0216009
-0.0311322
0.0297874
-0.0191451
-0.0207642
-0.0284855
0.0273922
-0.0168496
-0.0186188
-0.0267555
0.0265091
-0.011842
-0.0147212
0.0340718
-0.0332254
0.0224085
0.0206001
0.0338951
-0.0335045
0.0238419
0.0239879
0.0345827
-0.0351725
0.0237632
0.0246297
0.0352685
-0.0357498
0.023391
0.0242954
0.0357036
-0.0360307
0.023425
0.0240727
0.0358256
-0.0360286
0.0238538
0.0243502
0.0356818
-0.0357697
0.0243087
0.0248532
0.035274
-0.0352296
0.0244075
0.0251914
0.0345914
-0.034414
0.0236241
0.024918
0.0336943
-0.0334151
0.0212984
0.0233976
0.0327327
-0.0324047
0.0169129
0.0199806
0.0319034
-0.0315787
0.0104014
0.0143309
0.0313985
-0.0311455
0.00235887
0.0067026
0.031448
-0.0312167
-0.00614468
-0.00193897
0.0320585
-0.0322506
-0.0133263
-0.0102772
-0.0168512
-0.0214209
-0.0327822
0.032086
0.0108663
0.0303376
-0.0237898
-0.0339873
-0.00952895
0.00923146
0.0268066
0.0269369
-0.0271718
-0.0116071
0.0263273
-0.00891937
0.0248104
-0.0244041
-0.0352341
0.0260238
-0.0358867
-0.0311593
-0.0207108
0.0210093
-0.0206877
-0.031481
-0.0306722
-0.00921693
0.00925145
0.0278871
0.0276453
-0.00880261
0.00801914
0.029592
0.0288352
-0.0358128
0.0359595
0.0255269
0.0353952
-0.0351506
0.0257792
0.025501
-0.0366013
0.0362922
0.023755
0.0251
-0.0356299
0.0349433
0.0191342
0.0218516
-0.0352067
0.035546
0.0119579
0.0163716
-0.0359523
0.0363732
0.00296439
0.00783975
-0.0368414
0.0373133
-0.00638535
-0.00181656
-0.0378074
0.0382674
-0.0146858
-0.0111032
-0.0386942
0.0390303
-0.0207307
-0.0186302
-0.0392765
0.0394044
-0.02403
-0.0234512
-0.0394221
0.0393352
-0.0250124
-0.0255586
-0.0391518
0.0388979
-0.0245749
-0.0257184
-0.0385706
0.0382019
-0.0235362
-0.0248684
-0.0377761
0.0373278
-0.0224007
-0.0237042
-0.0368288
0.0363078
-0.0213598
-0.0225679
-0.0357154
0.0350769
-0.0205733
-0.0215936
-0.0343397
0.0335614
-0.0202203
-0.0210061
-0.0327139
0.0318818
-0.0198597
-0.0207534
-0.0310697
0.0303397
-0.0184152
-0.0199521
-0.0291261
0.0280004
-0.0157239
-0.0174052
-0.0138926
0.0326643
-0.0339434
0.0192167
-0.0327648
0.0122345
0.0313967
0.0156336
0.0349013
-0.0350707
0.0225779
0.021558
0.0353798
-0.0355737
0.0240359
0.024297
0.0358595
-0.0360953
0.023999
0.0249154
0.0363181
-0.0364615
0.0235344
0.0245182
0.036568
-0.0365844
0.0234414
0.0241792
0.0365597
-0.0364511
0.0237452
0.0243255
0.0362997
-0.0360598
0.0240688
0.0247018
0.0357621
-0.035366
0.0240114
0.0248938
0.0349023
-0.0343473
0.0230691
0.0244544
0.0337356
-0.0330644
0.0206271
0.0227859
0.0323706
-0.0316707
0.0162129
0.0192869
0.0310009
-0.0303945
0.00979493
0.0136611
0.0298881
-0.029521
0.00199172
0.00619625
0.0293329
-0.0294622
-0.00601539
-0.00212705
0.0297309
-0.0300916
-0.0129655
-0.0100085
0.0307424
-0.0313488
-0.018339
-0.0162005
0.0302938
-0.0315006
-0.0195041
-0.0198037
0.0243427
-0.0244833
-0.035746
-0.03608
0.025272
0.00813158
0.0302252
-0.0237278
-0.0328442
-0.00599042
0.00602852
0.0267685
-0.0060421
0.026379
-0.0236728
-0.0347187
-0.0243618
-0.0353556
-0.0321575
-0.0200307
-0.0205024
0.0219895
-0.032968
0.0331984
-0.0341997
0.0132358
0.0248129
-0.0246284
-0.0359305
0.024732
-0.0359991
0.00824197
0.0312863
0.0314572
0.00998309
-0.0196915
-0.0329685
-0.0324105
-0.00644911
0.00588701
0.0284492
0.0272247
-0.00564628
0.0055242
0.0297141
0.0290759
-0.00473654
0.00497656
0.0310463
0.0310128
-0.0351687
0.0353079
0.02564
0.0344776
-0.0352569
0.0255113
0.024581
-0.0350984
0.0357646
0.0248607
0.0257105
-0.0356744
0.0361376
0.0232919
0.0251901
-0.0358528
0.0361562
0.0188307
0.0221364
-0.036546
0.0369757
0.0115282
0.0159819
-0.0374505
0.0379282
0.00248667
0.00736495
-0.0384303
0.0389159
-0.00687101
-0.00231861
-0.0393955
0.0398122
-0.0151025
-0.0115828
-0.0401631
0.0404022
-0.0209698
-0.0189811
-0.0405291
0.0405317
-0.0240325
-0.0235781
-0.0404158
0.0402021
-0.0247987
-0.0254427
-0.039894
0.0395281
-0.024209
-0.0254103
-0.0390957
0.0386347
-0.0230753
-0.024436
-0.0381233
0.0375989
-0.0218763
-0.0231927
-0.0370298
0.0364473
-0.0207773
-0.0219987
-0.0358009
0.0351153
-0.0198877
-0.0209472
-0.0343345
0.033512
-0.0193978
-0.0202253
-0.032618
0.0317427
-0.0189845
-0.0198593
-0.0308837
0.0301124
-0.0176438
-0.019093
-0.0294523
0.0288138
-0.0150854
-0.0167452
-0.0277637
0.0268977
-0.0107411
-0.0128425
-0.0262053
0.0261251
-0.00596183
-0.00822702
0.0351673
-0.0352778
0.0193272
0.0166012
0.0356988
-0.0358649
0.0227441
0.021979
0.0360368
-0.0361931
0.0241921
0.0244688
0.0363511
-0.0364854
0.0241334
0.0250734
0.0365931
-0.036652
0.0235932
0.0246258
0.0366566
-0.0366016
0.0233863
0.0241838
0.0364827
-0.0363074
0.0235699
0.0242066
0.0360619
-0.0357564
0.0237632
0.0244563
0.0353637
-0.0349029
0.0235507
0.0245011
0.034343
-0.033723
0.022449
0.0238944
0.0330143
-0.0322773
0.0198902
0.0220772
0.0314894
-0.0307273
0.0154508
0.018499
0.0299785
-0.0293264
0.00914278
0.0129124
0.0287706
-0.0283773
0.00159847
0.00564049
0.0281378
-0.0280866
-0.00606658
-0.00236663
0.0282187
-0.0285346
-0.0126496
-0.00987638
0.029062
-0.0303328
-0.0170681
-0.0156731
0.0312623
-0.0318083
-0.0189581
-0.0188743
0.0320345
-0.0328239
-0.0189021
-0.0198044
0.0249852
-0.0255266
-0.0354577
-0.0354186
0.0251469
-0.019395
0.0200819
-0.0336554
-0.0339816
-0.0182373
-0.0228207
-0.0336963
0.0213648
-0.034251
0.00409023
0.0323436
-0.0239702
-0.0351102
-0.00273706
0.00292776
0.0259344
0.0259831
-0.026798
-0.0051469
0.0256714
-0.00242537
-0.0245832
-0.0354008
-0.0253669
-0.0360902
-0.0196451
0.0208263
-0.0348365
0.0253621
-0.02537
-0.0354499
0.0253895
-0.0354459
-0.0183747
-0.0352521
-0.0338664
-0.00286409
0.00305752
0.0265751
0.0264427
-0.00259533
0.00268209
0.0283624
0.0276869
-0.00270227
0.00197943
0.0304369
0.0290558
-0.0025199
0.00144863
0.0321175
0.0304723
-0.0350758
0.0358938
0.0246933
0.0338521
-0.0344534
0.0259908
0.0239233
-0.0353763
0.0358666
0.0251496
0.0250985
-0.0365337
0.0362016
0.0251928
0.0250434
-0.0363587
0.0366055
0.023045
0.025033
-0.0369621
0.0373997
0.018393
0.0217799
-0.0379112
0.0384387
0.0110007
0.0154704
-0.038995
0.0395313
0.0019504
0.00680866
-0.0400707
0.040564
-0.00736429
-0.00285808
-0.0410201
0.041384
-0.0154663
-0.0120389
-0.0416525
0.0417896
-0.0211069
-0.0192497
-0.0417943
0.0416694
-0.0239076
-0.0235828
-0.0414197
0.0410797
-0.0244587
-0.025193
-0.0406491
0.0401744
-0.0237343
-0.0249797
-0.039641
0.0390928
-0.0225271
-0.0239026
-0.038501
0.0379067
-0.021282
-0.0226009
-0.0372733
0.0366369
-0.0201409
-0.0213653
-0.0359446
0.0352229
-0.019166
-0.020255
-0.0344103
0.0335569
-0.0185444
-0.0194126
-0.0326268
0.0317139
-0.0180716
-0.0189293
-0.0308044
0.0299915
-0.0168309
-0.0181835
-0.0292227
0.0285517
-0.0144144
-0.0159765
-0.0280193
0.0270174
-0.00973914
-0.0123101
-0.00800765
0.0354369
-0.0358522
0.0136511
-0.0354983
0.00609399
0.0334946
0.00992168
0.0365137
-0.0366817
0.0194952
0.0172627
0.0367625
-0.0368335
0.022815
0.0220599
0.0368964
-0.0369459
0.0242417
0.0245317
0.0369921
-0.03702
0.0241613
0.0251196
0.0370249
-0.0369912
0.0235595
0.0246307
0.0369063
-0.0367683
0.0232483
0.024099
0.0365657
-0.0363097
0.0233139
0.024004
0.0359816
-0.035597
0.0233786
0.0241282
0.0351248
-0.0345899
0.0230157
0.0240289
0.033957
-0.0332709
0.0217629
0.0232615
0.0324995
-0.0317094
0.0191001
0.0213058
0.0308758
-0.0300818
0.0146568
0.0176653
0.0293145
-0.0286605
0.00848883
0.012145
0.0281164
-0.0277451
0.00122718
0.0050964
0.0275414
-0.0275307
-0.00607724
-0.00257039
0.0277206
-0.0281071
-0.0122632
-0.00968647
0.0287157
-0.0294968
-0.016287
-0.0150645
0.0304487
-0.0315035
-0.0179032
-0.0179224
0.0326168
-0.0333043
-0.0182146
-0.0186911
0.0331524
-0.0334179
-0.0181092
-0.0183892
0.0254205
-0.0258706
-0.0349959
-0.0342013
0.0251684
-0.0206863
0.0211877
-0.0357534
-0.0352048
-0.0188994
0.00138546
0.0324067
-0.0226931
-0.0349734
0.0212259
-0.0346506
3.21603e-05
-0.000280508
0.0261827
-0.000369086
0.0260726
-0.0243803
-0.0353131
0.0211827
-0.0348315
-0.0252107
-0.0355571
-0.0260781
-0.0353821
-0.0264639
-0.0348565
0.036023
-0.0361033
0.00617431
-0.0209595
0.0216324
-0.0364263
0.0252161
-0.0263885
-0.0338235
0.0250636
-0.0340487
-0.01984
-0.0363243
0.00123559
0.0336445
0.0337844
0.00347418
-0.0353337
0.000361188
-0.000746117
0.02696
0.0265234
0.000530641
-0.000384177
0.028216
0.0274714
0.00126128
-0.000833978
0.0300096
0.0299329
0.00160836
-0.00154948
0.0320587
0.0312467
0.00279143
-0.00305839
0.0339114
0.0336487
-0.0344362
0.0356635
0.0247635
0.0336266
-0.032763
0.0242
0.0243587
-0.0349482
0.0354045
0.024237
0.0246386
-0.0359189
0.0363727
0.0246958
0.0245841
-0.0362195
0.0368598
0.0245526
0.0251966
-0.0371869
0.0375927
0.0226392
0.0247059
-0.0381022
0.0386692
0.017826
0.0212704
-0.0392997
0.0399249
0.0103755
0.0148398
-0.040563
0.0411579
0.00135551
0.00617055
-0.0417329
0.0422325
-0.00786392
-0.00343308
-0.042664
0.0429731
-0.0157755
-0.0124704
-0.043155
0.0431838
-0.0211356
-0.0194316
-0.0430593
0.0428011
-0.0236494
-0.0234584
-0.0424136
0.0419462
-0.0239913
-0.0248054
-0.0413944
0.040814
-0.023154
-0.0244279
-0.0401841
0.039554
-0.021897
-0.0232727
-0.0388883
0.0382308
-0.0206245
-0.0219352
-0.0375398
0.0368556
-0.0194567
-0.0206743
-0.0361236
0.0353729
-0.0184152
-0.0195231
-0.0345373
0.0336636
-0.0176707
-0.018577
-0.0327091
0.0317667
-0.0171292
-0.0179748
-0.03082
0.0299695
-0.0159805
-0.0172368
-0.0293704
0.02837
-0.0134141
-0.0153773
-0.0278371
0.027757
-0.00965907
-0.0117772
-0.0268181
0.026422
-0.00475076
-0.00706876
-0.0264221
0.0257803
0.000272792
-0.00242553
0.0370508
-0.0376229
0.0142231
0.0108692
0.037945
-0.0378825
0.0194327
0.0175848
0.037873
-0.0378433
0.0227853
0.0220504
0.0377951
-0.0377366
0.0241831
0.0244835
0.0376695
-0.0375918
0.0240836
0.0250526
0.0374933
-0.0373668
0.0234331
0.0245322
0.0371932
-0.0369742
0.0230293
0.0239254
0.036691
-0.0363585
0.0229813
0.0237208
0.0359527
-0.0354948
0.0229207
0.0237224
0.0349501
-0.0343485
0.0224141
0.0234842
0.0336515
-0.0329085
0.0210199
0.0225645
0.0320848
-0.031252
0.0182673
0.0204822
0.0303842
-0.0295688
0.0138415
0.0167975
0.0287924
-0.0281422
0.00783866
0.0113686
0.0276126
-0.0272637
0.00087829
0.00456676
0.0270949
-0.0271276
-0.00604448
-0.00273924
0.0273769
-0.0278344
-0.0118057
-0.0094372
0.0285251
-0.0293849
-0.0154273
-0.0143737
0.0304277
-0.0315253
-0.0168056
-0.0168796
0.0326612
-0.0337138
-0.017162
-0.0175552
0.0341069
-0.0343673
-0.0178487
-0.0179961
0.0343234
-0.0359243
-0.0182392
-0.0189433
-0.0188551
0.0192367
-0.0367059
-0.0188479
-0.0359314
0.0252432
-0.0262101
-0.0330818
-0.0319891
0.0244694
-0.0238001
-0.0355536
0.0229045
-0.0363724
-0.00309808
0.0338241
-0.0247632
-0.0357605
0.0228055
-0.0360046
0.00248937
-0.00275627
0.0260472
0.0262618
-0.0262796
0.000290582
0.026153
0.00259822
-0.0259512
-0.0356839
0.0214287
-0.0386183
-0.0265688
-0.0352772
0.0175262
-0.0513018
-0.00293038
-0.0268817
-0.0343632
-0.026494
-0.0335396
0.0243659
-0.0257893
-0.0316584
0.0241144
-0.0317377
-0.0362293
0.00286762
-0.00335409
0.0266692
0.026184
0.00325388
-0.00355623
0.0272624
0.0264231
0.00459218
-0.00435072
0.0279745
0.0285073
0.00441076
-0.00449645
0.0300953
0.0299929
0.004439
-0.00491087
0.0325305
0.0311893
0.00503648
-0.00589955
0.0347745
0.0337743
-0.0327568
0.0335154
0.0234413
0.0313406
-0.0303912
0.023165
0.0230532
-0.0342925
0.0352124
0.0238437
0.0235816
-0.0359575
0.0366307
0.0235637
0.0238935
-0.0365778
0.037093
0.0241806
0.024637
-0.0371571
0.0375391
0.0241705
0.0251325
-0.0380256
0.0385879
0.0220769
0.0242195
-0.0392493
0.0399471
0.0171282
0.0206089
-0.0406957
0.0414185
0.00965276
0.0140912
-0.0421388
0.0427923
0.00070202
0.00545022
-0.043402
0.043906
-0.00836789
-0.0040428
-0.0443079
0.0445548
-0.0160224
-0.0128723
-0.0446406
0.0445528
-0.0210478
-0.0195174
-0.0442931
0.0438992
-0.0232555
-0.0231987
-0.0433748
0.0427837
-0.0234003
-0.024281
-0.0421165
0.0414373
-0.0224748
-0.0237606
-0.0407185
0.0400139
-0.0211924
-0.0225539
-0.0392819
0.0385688
-0.0199114
-0.0212032
-0.0378279
0.0371029
-0.0187316
-0.0199335
-0.0363382
0.0355659
-0.0176429
-0.0187584
-0.0347166
0.0338328
-0.0167868
-0.0177278
-0.0328647
0.0319024
-0.0161669
-0.0170067
-0.0309285
0.0300502
-0.0151021
-0.0162629
-0.0292454
0.0285781
-0.0127468
-0.0145726
-0.0281663
0.0274694
-0.00896215
-0.0113653
-0.0272861
0.0267818
-0.00424649
-0.00688545
-0.00192334
0.0376208
-0.0387127
0.00726625
-0.0380344
-0.00128565
0.036222
0.00306056
0.0392602
-0.0392424
0.0142053
0.0114167
0.0391959
-0.0391197
0.0193565
0.0175383
0.0390089
-0.0388762
0.0226526
0.0219397
0.0387181
-0.0385518
0.0240168
0.0243254
0.038373
-0.0381916
0.0239021
0.0248738
0.0379915
-0.037774
0.0232156
0.0243321
0.0375135
-0.0372161
0.0227319
0.0236649
0.0368559
-0.0364513
0.0225768
0.0233606
0.0359734
-0.0354481
0.0223954
0.0232445
0.0348373
-0.0341763
0.0217531
0.0228734
0.0334233
-0.0326321
0.0202287
0.0218115
0.0317661
-0.0309007
0.0174019
0.0196162
0.0300096
-0.0291827
0.0130146
0.0159063
0.0284055
-0.0277644
0.00719759
0.0105915
0.0272522
-0.0269283
0.00055435
0.00405456
0.02679
-0.0268657
-0.00596882
-0.00287754
0.0271711
-0.0276934
-0.0112835
-0.00913173
0.0284588
-0.0293924
-0.0144937
-0.0136082
0.030501
-0.0316375
-0.0156692
-0.015771
0.0327934
-0.0338434
-0.0161121
-0.0163993
0.0348492
-0.0357721
-0.0169259
-0.0169902
0.0366947
-0.0359524
-0.0189815
-0.0180208
-0.0227911
0.0232839
-0.0248429
-0.0301787
-0.0295382
0.0224309
-0.00685671
0.0347812
-0.0240602
-0.0362566
0.0234805
-0.0370474
0.00509387
-0.00553322
0.0264865
0.00447899
0.0267678
-0.0253893
-0.0363223
0.0234712
-0.0380471
-0.0262395
-0.0360132
0.0224846
-0.0435767
-0.0268726
-0.0352864
0.0221202
-0.0440631
-0.026974
-0.0338832
-0.0266685
-0.0326604
-0.0254417
-0.0310595
0.0300055
-0.0370441
0.0379306
-0.0394953
0.000279104
0.0223364
-0.023498
-0.0290171
0.0211212
-0.0283229
-0.00636087
0.0357261
0.0372002
-0.00563047
-0.0368089
0.00603234
-0.00649348
0.0271303
0.0266831
0.00740671
-0.0072413
0.027097
0.0273364
0.00746748
-0.00765479
0.0281618
0.0287335
0.0078162
-0.00799855
0.0302776
0.0301543
0.00798684
-0.00816373
0.0327074
0.0311776
0.00833454
-0.00893476
0.0353747
0.0339451
0.00972832
-0.0106047
0.0366025
0.0355748
-0.0303389
0.0317561
0.0217478
0.0288753
-0.0273897
0.0196356
0.0209673
-0.0326166
0.0339687
0.0220892
0.0221927
-0.0344449
0.0356913
0.0225973
0.0231054
-0.0360141
0.0364452
0.0231327
0.0235707
-0.0368438
0.0372365
0.023788
0.0242384
-0.0376921
0.0382219
0.0236407
0.0246769
-0.0388663
0.0395805
0.0213626
0.0235751
-0.0403914
0.0412198
0.0162998
0.0197981
-0.0420865
0.0429065
0.00883276
0.0132246
-0.0437082
0.0444193
-9.01884e-06
0.00464847
-0.0450603
0.045563
-0.00887053
-0.00468387
-0.045927
0.046102
-0.0161974
-0.0132364
-0.0460824
0.045871
-0.0208363
-0.0194979
-0.0454722
0.0449423
-0.0227256
-0.0228
-0.0442844
0.0435754
-0.0226913
-0.0236231
-0.0428005
0.0420308
-0.0217051
-0.0229857
-0.041232
0.0404616
-0.0204221
-0.021755
-0.039672
0.0389115
-0.0191508
-0.0204136
-0.0381288
0.0373701
-0.0179729
-0.0191508
-0.0365793
0.0357919
-0.0168555
-0.0179676
-0.034937
0.0340532
-0.015903
-0.0168729
-0.0330837
0.0321128
-0.0151961
-0.0160373
-0.0311205
0.030217
-0.0141985
-0.0152706
-0.0293866
0.028708
-0.0120682
-0.0137422
-0.0281503
0.0277466
-0.00855851
-0.0108076
-0.0274016
0.0273994
-0.00424437
-0.00654039
-0.027261
0.027087
0.000464653
-0.00178493
-0.0272987
0.0268789
0.00489874
0.00238652
0.040377
-0.0407764
0.00766565
0.00394225
0.0407453
-0.040661
0.0141211
0.0113855
0.0405295
-0.0403608
0.0191877
0.0174068
0.0401493
-0.039914
0.0224173
0.0217282
0.0396475
-0.0393757
0.023745
0.0240589
0.0390889
-0.0388073
0.0236205
0.024587
0.0385096
-0.0382046
0.0229106
0.0240344
0.0378609
-0.0374888
0.0223599
0.0233212
0.0370561
-0.0365845
0.0221052
0.0229278
0.03604
-0.0354533
0.0218088
0.0227
0.0347833
-0.03407
0.0210397
0.0222035
0.0332691
-0.0324385
0.0193981
0.0210107
0.0315398
-0.0306517
0.0165139
0.0187175
0.029747
-0.0289167
0.0121844
0.0150015
0.0281453
-0.0275174
0.00656961
0.00982005
0.0270251
-0.0267264
0.000255684
0.00356232
0.0266232
-0.0267409
-0.00585114
-0.00298076
0.0270998
-0.0276822
-0.010701
-0.00877286
0.0285137
-0.0295062
-0.0135012
-0.0127768
0.0306585
-0.0318161
-0.0145116
-0.0146187
0.0329777
-0.0340284
-0.0150613
-0.0152377
0.0350373
-0.035965
-0.0159981
-0.0159814
0.0368936
-0.0367647
-0.0191103
-0.0170922
0.0393124
-0.0240233
-0.0202435
0.0191029
-0.0207091
-0.0267167
-0.0261422
0.0178553
-0.0233346
0.0259896
-0.0346654
-0.0379439
-0.0125855
-0.0246629
-0.0369831
0.0241264
-0.0377026
-0.0103967
0.0369922
-0.0256976
-0.0368643
0.0241666
-0.0397291
0.00676825
-0.00717976
0.0272904
0.0272009
-0.0269754
0.00467324
0.0275959
0.00637328
-0.0264887
-0.0363971
0.0232445
-0.0447011
-0.0268998
-0.0353606
0.0279941
-0.0420517
-0.0269317
-0.0336201
0.0282992
-0.0393537
-0.0263572
-0.031745
-0.0245802
-0.0299774
-0.021967
-0.0277592
-0.016363
0.0149166
-0.0246957
-0.017784
-0.0252956
-0.0206046
0.0255973
-0.0396581
-0.0404867
-0.0180617
-0.0373454
0.00755742
-0.00836107
0.0272902
0.0271455
0.00861638
-0.00877155
0.0272855
0.0269384
0.00972594
-0.0100656
0.0274367
0.0282908
0.010395
-0.0106756
0.0284425
0.0290629
0.0109256
-0.0106611
0.0300131
0.0304042
0.0118289
-0.0112536
0.0321321
0.0323454
0.0115744
-0.0114379
0.0352382
0.0342659
0.0125132
-0.0127576
0.0368469
0.03665
-0.0269546
0.0286268
0.0179634
0.0253141
-0.0239648
0.0135673
0.0162148
-0.0300168
0.031811
0.0199536
0.0195773
-0.0329566
0.033909
0.0211368
0.0210471
-0.034763
0.0354674
0.0218929
0.0222514
-0.0360832
0.0366067
0.0226092
0.0229549
-0.0371149
0.0376305
0.0232724
0.0237302
-0.0382295
0.0389036
0.0229666
0.0240779
-0.0397034
0.0405662
0.0204998
0.0227753
-0.0415226
0.0424789
0.0153435
0.0188417
-0.0434623
0.0443775
0.00791759
0.0122411
-0.0452589
0.0460237
-0.000773827
0.00376704
-0.0466904
0.0471831
-0.00936317
-0.00535057
-0.0474976
0.0475886
-0.0162885
-0.0135509
-0.0474526
0.0471104
-0.0204941
-0.0193619
-0.0465702
0.0459068
-0.0220622
-0.0222597
-0.045122
0.0443041
-0.0218735
-0.0228382
-0.0434325
0.0425834
-0.020856
-0.0221141
-0.0417156
0.0408893
-0.0195958
-0.0208872
-0.0400518
0.0392526
-0.0183516
-0.0195761
-0.0384367
0.0376518
-0.0171879
-0.0183349
-0.0368415
0.036045
-0.016059
-0.0171574
-0.0351916
0.0343166
-0.0150281
-0.0160195
-0.0333572
0.0323894
-0.0142283
-0.0150778
-0.0313889
0.030468
-0.0132776
-0.0142701
-0.029615
0.028916
-0.0113691
-0.0128892
-0.0283413
0.0279271
-0.00814429
-0.010233
-0.0277179
0.027433
-0.00395945
-0.00633117
-0.0273981
0.0272947
0.00056804
-0.00175003
0.00270578
0.0418384
-0.0420482
0.000488971
-0.040792
-0.00846404
0.0388594
-0.00458412
0.0423621
-0.0423153
0.00761889
0.00425611
0.0422154
-0.0420594
0.0139651
0.0112857
0.0418439
-0.0415845
0.0189283
0.0171913
0.0412733
-0.0409377
0.0220816
0.0214171
0.0405661
-0.0401929
0.0233718
0.0236873
0.0398034
-0.0394267
0.0232437
0.0241976
0.0390367
-0.0386491
0.022523
0.0236444
0.0382272
-0.0377854
0.0219181
0.0228994
0.0372856
-0.0367526
0.0215722
0.022428
0.0361479
-0.0355063
0.0211672
0.0220953
0.0347841
-0.0340255
0.0202812
0.0214812
0.0331848
-0.0323231
0.0185364
0.02017
0.0314008
-0.0304988
0.0156118
0.0177953
0.0295889
-0.0287621
0.0113576
0.0140916
0.0280018
-0.0273906
0.00595841
0.00905972
0.026921
-0.0266499
-1.5394e-05
0.00309278
0.0265829
-0.0267437
-0.00569033
-0.00304785
0.0271566
-0.0277981
-0.0100596
-0.00835989
0.0286893
-0.0297267
-0.0124638
-0.0118855
0.0308998
-0.0320499
-0.0133614
-0.0134456
0.0331849
-0.0342077
-0.0140385
-0.0141028
0.0351982
-0.0361249
-0.0150714
-0.0149909
0.0370759
-0.0384547
-0.0177315
-0.0161411
0.0403363
-0.0447643
-0.0195953
-0.018362
0.0583545
-0.0348947
-0.0134387
-0.0171558
0.0459552
-0.0412808
-0.0172599
-0.0174898
-0.0190246
0.0202123
-0.0416744
0.0414003
-0.0184243
-0.0420005
-0.0179423
-0.0139144
0.038149
0.0122279
-0.0139432
-0.0229804
-0.0224514
0.0107145
-0.0253173
-0.0373633
0.0248026
-0.0383386
0.00873921
-0.00929208
0.0278433
0.008108
0.0282271
-0.0263151
-0.0370379
0.0248803
-0.041365
-0.0269839
-0.036313
0.0260774
-0.0427843
-0.0271448
-0.0351475
0.027452
-0.0412045
-0.0265901
-0.0333871
0.0257683
-0.0395248
-0.0252885
-0.0310367
0.0229816
-0.0424274
-0.0232059
-0.0287385
-0.0196119
-0.0259313
-0.0153716
-0.0238672
-0.0434722
0.0424684
-0.0174205
0.00940598
-0.0109365
-0.0214499
0.0413306
-0.0424604
-0.00733421
-0.0140385
0.0389835
0.0403949
-0.0131028
0.00854481
-0.0215902
0.0190589
-0.0430632
-0.0194679
0.0207133
-0.0436549
0.0218624
-0.0428235
-0.0378601
0.00996132
-0.0100061
0.0273349
0.0278147
0.0115625
-0.0116749
0.0273979
0.0284948
0.0121364
-0.0125572
0.0278574
0.0287523
0.0129706
-0.0133341
0.028806
0.0294763
0.0136717
-0.0139518
0.0302932
0.0307419
0.0141796
-0.0143463
0.0322988
0.0325733
0.0144167
-0.0146924
0.0355139
0.0343362
0.0148341
-0.016188
0.0382009
0.0367918
0.0165964
-0.0167459
0.039133
0.0385573
-0.0236413
0.0251054
0.0121032
0.02238
-0.0212545
0.00741931
0.00945318
-0.0269058
0.0288044
0.0160648
0.0144144
-0.0307258
0.0318104
0.018869
0.0176559
-0.0330989
0.0335065
0.0207292
0.0197585
-0.0346864
0.0354542
0.021125
0.0210716
-0.0361461
0.0367576
0.0219977
0.022263
-0.0373775
0.0380179
0.022632
0.0231103
-0.0387605
0.0395811