/*--------------------------------*- C++ -*----------------------------------*\
  =========                 |
  \\      /  F ield         | OpenFOAM: The Open Source CFD Toolbox
   \\    /   O peration     | Website:  https://openfoam.org
    \\  /    A nd           | Version:  10
     \\/     M anipulation  |
\*---------------------------------------------------------------------------*/
FoamFile
{
    format      ascii;
    class       volVectorField;
    location    "88.5";
    object      U;
}
// * * * * * * * * * * * * * * * * * * * * * * * * * * * * * * * * * * * * * //

dimensions      [0 1 -1 0 0 0 0];

internalField   nonuniform List<vector> 
28942
(
(0.0044281 -0.00225591 -3.39584e-22)
(0.00599369 -0.00233892 -6.30153e-23)
(0.0179335 -0.0123847 -8.2965e-22)
(0.103306 0.0182353 -5.26674e-21)
(0.102344 0.0222779 1.72434e-21)
(0.0135192 0.0004095 0)
(0.0160626 -3.63295e-06 9.92797e-24)
(0.0186415 0.000528685 -8.74318e-24)
(0.135235 -0.0184449 -2.56824e-22)
(0.133892 -0.0168111 7.30815e-22)
(0.00979323 0.00401509 -6.65938e-22)
(0.0160651 0.00562841 2.51943e-22)
(0.00713623 0.00315266 0)
(0.00470676 0.00207004 0)
(0.0424688 0.00191397 -1.39604e-23)
(0.0407336 0.00245033 -5.67553e-24)
(0.0893154 0.0158893 6.68794e-22)
(0.0870033 0.0138578 1.07629e-21)
(0.0121631 -0.0151105 2.92502e-21)
(0.0293272 -0.0304634 -7.69861e-22)
(0.0981167 0.0374008 9.53982e-22)
(0.0972955 0.0344365 0)
(0.0187359 0.00462581 1.15875e-21)
(0.00786218 0.00236299 5.45921e-22)
(0.0377911 0.00720936 9.35434e-22)
(0.0575216 0.00291089 -8.52775e-22)
(0.00764714 -0.0184879 8.51701e-21)
(0.00669323 -0.0165526 -3.13666e-21)
(0.035505 -0.0253195 5.75098e-22)
(0.0192978 -0.0136802 1.98551e-22)
(0.0138815 -0.00127001 0)
(0.0173538 -0.00109064 -1.26542e-23)
(0.0220733 0.00403004 2.65952e-22)
(0.0318654 0.0018244 -4.03381e-23)
(0.0188248 0.0180094 1.3164e-21)
(0.0157195 0.0191195 -1.30836e-21)
(0.0321686 0.0376177 -3.05685e-21)
(0.0186687 0.0305363 -1.0695e-21)
(0.00739759 -1.91783e-05 -8.27135e-24)
(0.00864866 0.0161973 -2.61745e-21)
(0.0306494 -0.00620317 0)
(0.0513427 -0.0109694 0)
(0.11179 -0.0116983 -2.7271e-23)
(0.111282 -0.0116961 8.04043e-23)
(0.115848 -0.0115923 7.0072e-23)
(0.026317 0.000163818 1.06182e-23)
(0.0244999 -0.000591095 -1.7041e-23)
(0.0350733 -0.00047836 -7.82305e-23)
(0.0336004 -0.000547782 2.23204e-23)
(0.0272739 -0.00257586 -1.95346e-22)
(0.0202503 -0.00307361 1.27102e-22)
(0.128658 0.00129046 -4.02721e-22)
(0.127972 0.00081922 -3.76165e-22)
(0.134552 -0.021211 -3.7698e-24)
(0.133006 -0.0194851 1.39489e-22)
(0.0824722 0.00635034 7.09501e-22)
(0.101724 -0.00076938 2.45563e-22)
(0.00305791 0.0016205 -5.60375e-22)
(0.00894085 0.0036788 0)
(0.0082555 0.00328828 2.35506e-22)
(0.00288197 0.00148777 4.835e-22)
(0.00036214 0.000226205 -4.02101e-22)
(0.000192846 0.000122661 -3.86128e-22)
(0.109757 -0.0426055 0)
(0.104886 -0.0256116 1.24527e-22)
(0.121757 -0.0331171 -4.24543e-23)
(0.123405 -0.0437701 0)
(0.0901042 -0.0328028 -6.39557e-22)
(0.0936079 -0.03527 -4.20372e-22)
(0.00188451 -0.00112925 1.12265e-21)
(0.00248804 -0.00201692 -3.53763e-22)
(0.00487174 -0.00315513 8.77685e-22)
(0.0848728 -0.0457589 0)
(0.0911992 -0.0396232 2.17113e-21)
(0.0805412 -0.053024 5.86666e-22)
(0.11412 0.0124087 2.3374e-22)
(0.112717 0.00690701 -2.59283e-22)
(0.125087 0.0110131 -1.09391e-22)
(0.00468308 -0.00286167 -5.37423e-23)
(0.0063381 -0.00442559 4.51047e-22)
(0.0510047 -0.031145 1.27251e-22)
(0.0331519 -0.0205353 -2.5789e-22)
(0.00211049 -0.000595726 3.19232e-21)
(0.00515608 -0.00207201 -1.24405e-21)
(0.100978 0.0482493 1.4264e-23)
(0.0970277 0.0552168 -7.67462e-22)
(0.0807197 0.054013 7.00592e-22)
(0.0472038 0.0345102 -2.68952e-21)
(0.044432 0.031606 1.90475e-21)
(0.0294912 0.0205952 -1.1394e-22)
(0.0327118 0.023248 -6.42861e-22)
(0.0379528 0.0283578 8.7168e-22)
(0.00440767 0.00272963 -5.81831e-23)
(0.00775975 0.00398105 -1.68036e-23)
(0.00318822 0.00202218 3.36726e-23)
(0.00192325 0.00164655 -4.50094e-22)
(0.00145009 0.00157084 5.51771e-22)
(0.0157419 0.0115435 -3.26205e-21)
(0.0174947 0.0136353 7.47288e-22)
(0.00880322 -0.00384619 0)
(0.101389 0.00515939 0)
(0.0984003 0.0156832 -3.9626e-21)
(0.0604414 0.0104756 1.94472e-21)
(0.0886812 0.0178811 0)
(0.135448 -0.00107909 0)
(0.134886 -0.00179262 0)
(0.133192 -0.00228727 -2.56999e-22)
(0.114973 0.0266137 -2.12537e-22)
(0.114065 0.0280163 2.10108e-21)
(0.113267 0.025476 1.12746e-21)
(0.00229363 0.00129926 1.04436e-21)
(0.00151124 0.000777383 -1.1722e-21)
(0.0190441 -0.00553295 -5.45634e-22)
(0.0201233 -0.00506113 4.65373e-22)
(0.00909655 -0.00292602 9.19879e-22)
(0.00647659 0.0111507 1.47987e-21)
(0.0189676 0.0181625 3.45967e-21)
(0.0134649 0.0228015 2.72181e-22)
(0.0049208 0.0143072 -8.62902e-21)
(0.116983 0.0477543 5.57683e-23)
(0.107861 0.0582435 1.07241e-21)
(0.11832 0.0548821 -1.84949e-21)
(0.0390839 -0.0294127 7.32689e-22)
(0.0240049 -0.0172619 -4.68791e-22)
(0.00532076 -0.000740272 -4.1057e-21)
(0.00453784 -0.00359027 0)
(0.0124954 -0.0016697 2.00435e-21)
(0.0219602 -0.0161275 7.79569e-22)
(0.0342489 -0.0277793 -1.95888e-21)
(0.0331558 -3.03633e-05 5.38655e-23)
(0.0352665 0.000125851 -3.97157e-23)
(0.031124 0.000144245 -1.66603e-24)
(0.0280503 -0.0419406 0)
(0.0295998 -0.0428318 0)
(0.0896236 -0.0186528 -4.63706e-22)
(0.0995914 -0.0220904 3.15009e-21)
(0.0870346 -0.0252785 0)
(0.0471089 -0.0401811 0)
(0.0581682 -0.0513756 -7.84334e-22)
(0.0413105 0.0393378 2.08762e-21)
(-2.24109e-06 0.000214561 5.08128e-22)
(-0.000194123 0.000131019 -3.34474e-22)
(0.0223226 -0.019237 -7.92392e-22)
(0.12027 -0.0114639 3.95271e-22)
(0.119635 -0.0114083 -7.64622e-23)
(0.115415 -0.00572613 -6.54138e-23)
(0.108341 0.000976711 8.71731e-23)
(0.117606 -0.00032494 1.75227e-22)
(8.22844e-05 0.000259091 1.96323e-22)
(0.0437423 0.0344181 3.20986e-21)
(0.0618704 0.0463076 -7.89597e-22)
(0.0593045 0.0393636 -3.0328e-24)
(0.0216172 -0.000797414 5.33389e-24)
(0.0212987 -0.000775707 2.76975e-23)
(0.0231177 -0.000547597 1.02041e-24)
(0.0258199 -0.000566657 -1.36656e-23)
(0.045417 0.0380893 1.33763e-22)
(0.0189607 0.0160585 0)
(0.000138073 -2.72397e-05 3.64799e-22)
(0.000420989 -0.000254875 -4.04734e-22)
(0.0018581 -0.00100741 2.82156e-22)
(0.0365457 -0.00771746 -1.83405e-21)
(0.0648531 -0.00209836 -7.47365e-22)
(0.0300492 -0.000184231 -2.13854e-24)
(0.0744648 -0.00764393 2.70166e-22)
(0.0706772 -0.0157265 5.8054e-23)
(0.0943033 0.039923 2.14658e-21)
(0.0914039 0.0454585 9.92836e-23)
(0.0887481 0.0290898 1.21728e-21)
(0.0914734 0.0308066 -8.82149e-22)
(0.0986952 0.0410844 0)
(0.126119 -0.000314353 1.49874e-22)
(0.12689 -0.000747136 2.8314e-22)
(0.128093 -0.0123523 -2.96399e-22)
(0.129557 -0.0121579 5.07369e-22)
(0.117054 0.0241583 2.60695e-22)
(0.119112 0.0250597 -7.38288e-22)
(0.1171 0.0261706 0)
(0.115134 0.0249075 1.53647e-22)
(0.116671 0.0280926 0)
(0.117172 0.0361136 -5.52655e-22)
(0.11571 0.0381649 -3.01664e-22)
(0.111336 0.0419766 -5.41859e-22)
(0.11373 0.0401094 0)
(0.116418 0.0430849 1.79299e-21)
(0.113696 0.0450069 4.73865e-23)
(0.10833 0.044187 -3.04316e-22)
(0.0996273 0.0502887 -1.2897e-21)
(0.0984181 0.0455003 -2.27187e-22)
(0.0249449 -0.00846699 5.75895e-23)
(0.0327982 -0.00932347 -2.29654e-23)
(0.0062805 -0.00248542 -6.87425e-22)
(0.0294537 -9.12097e-05 -3.4003e-23)
(0.0378026 -0.000270478 0)
(-3.16155e-06 -3.97975e-05 4.29223e-22)
(1.30382e-05 -4.71557e-05 2.18664e-22)
(0.0341885 -0.00176282 1.63127e-23)
(0.0404533 -0.00171397 6.75495e-24)
(0.0400157 -0.00118215 0)
(0.0330587 -0.000817471 7.17884e-24)
(0.0854283 0.0033581 -1.09015e-22)
(0.0846572 0.00303964 5.15016e-22)
(0.0855153 0.00312081 2.38438e-22)
(0.000670605 0.000271969 3.89904e-22)
(-0.000159397 -0.000129258 -5.65303e-22)
(-0.000201045 -0.000168998 4.81538e-22)
(0.00149979 0.000617229 0)
(7.9866e-05 8.77452e-05 1.13382e-21)
(0.000171852 -3.90093e-05 -8.16839e-22)
(0.00744629 0.00367254 -9.87055e-22)
(0.0014512 0.000781077 -1.17996e-21)
(0.00172009 0.000860396 0)
(0.00157198 0.00754434 0)
(0.000576942 0.00328136 0)
(0.000313306 0.00197696 0)
(0.136623 -0.00109018 5.69613e-23)
(0.137636 -0.000924433 0)
(0.135995 -0.00187436 -6.63775e-23)
(0.08811 -0.0148525 4.43137e-21)
(0.0901167 -0.0152619 -1.60859e-21)
(0.0890322 -0.0128772 0)
(0.0958656 0.000359964 -6.39081e-24)
(0.0964277 0.000351599 1.27905e-23)
(0.0953014 0.000367659 -4.32334e-24)
(0.0969845 0.000344807 0)
(0.0975398 0.000345882 -8.15747e-24)
(0.0980887 0.000341554 0)
(0.0980834 -0.000241092 0)
(0.0986294 0.000326133 3.02818e-23)
(0.098618 -0.000260335 0)
(0.0975409 -0.000233685 -8.2149e-24)
(0.0969855 -0.000231656 0)
(0.0964274 -0.000229003 4.27627e-24)
(0.0958625 -0.000230485 -6.38798e-24)
(0.0952998 -0.000231199 4.31794e-24)
(0.0991571 0.000308969 -2.89773e-23)
(0.0991507 -0.000273877 -1.01315e-24)
(0.0947281 0.000380402 -1.03144e-30)
(0.0947211 -0.000225981 -6.59877e-24)
(0.0941444 0.000391056 3.50961e-23)
(0.0996775 0.000297988 2.70759e-26)
(0.0996873 -0.000279846 -1.01399e-24)
(0.0941404 -0.000228693 1.30049e-23)
(0.1002 0.000285893 2.72687e-23)
(0.100719 0.000276015 -2.72462e-23)
(0.100214 -0.000286697 2.04177e-24)
(0.100736 -0.000291994 4.03583e-24)
(0.0935776 0.000411907 -3.41467e-23)
(0.0935658 -0.000230011 -8.56013e-24)
(0.101235 0.000264564 0)
(0.101253 -0.000298401 -3.98069e-24)
(0.092988 0.000422984 4.22419e-27)
(0.0929772 -0.000226319 -4.23478e-27)
(0.101747 0.000255082 0)
(0.101765 -0.000303435 0)
(0.0923923 0.000430524 0)
(0.0923812 -0.000226247 0)
(0.102254 0.000243784 0)
(0.102273 -0.000309726 1.91245e-24)
(0.0917908 0.000437934 -1.77189e-23)
(0.0917787 -0.000225412 -4.32429e-27)
(0.102758 0.000234404 1.00255e-25)
(0.102777 -0.000314576 -2.0425e-24)
(0.0911828 0.000443344 1.78036e-23)
(0.0911703 -0.000226323 0)
(0.103258 0.00022315 0)
(0.103278 -0.000320501 0)
(0.0905693 0.000449122 -1.12642e-24)
(0.090556 -0.000225299 1.93324e-23)
(0.103754 0.000213993 1.23971e-23)
(0.103774 -0.000324484 0)
(0.0899504 0.000453017 -1.00074e-25)
(0.0899357 -0.000224563 -1.82977e-23)
(0.104247 0.00020316 -1.8543e-23)
(0.104267 -0.000329376 -5.38127e-24)
(0.0893121 0.000450451 1.8656e-23)
(0.0893003 -0.000224417 0)
(0.104737 0.000195364 6.10767e-24)
(0.104758 -0.000329053 3.58893e-24)
(0.0886706 0.000454217 -9.44341e-24)
(0.0886588 -0.000227172 1.91478e-23)
(0.105221 0.000189782 -2.4391e-23)
(0.10525 -0.000322217 2.7491e-23)
(0.0879979 0.000443356 9.7347e-24)
(0.0879952 -0.000235692 3.08089e-25)
(0.105709 0.00018658 0)
(0.105735 -0.000315908 1.30997e-23)
(0.0873171 0.000432651 -1.95819e-23)
(0.0873215 -0.000251366 3.91707e-23)
(0.106212 0.000174851 0)
(0.106222 -0.000315335 0)
(0.088297 0.00111737 -9.63242e-24)
(0.0876105 0.00111503 -3.89866e-23)
(0.086612 0.000415527 0)
(0.0866334 -0.000278555 -1.99566e-23)
(0.0896192 0.00111262 -6.04787e-24)
(0.088962 0.00111593 1.1878e-24)
(0.0908716 0.00109245 0)
(0.0902441 0.00110212 -1.9534e-23)
(0.0920869 0.00106794 -3.77144e-26)
(0.0914829 0.00108077 0)
(0.0932744 0.00103937 0)
(0.0926839 0.00105411 0)
(0.0944367 0.00100341 0)
(0.093859 0.00102304 0)
(0.0955533 0.000965127 8.53678e-24)
(0.0949917 0.000983336 2.15224e-24)
(0.0966668 0.000936986 -8.23334e-24)
(0.0961165 0.000950987 -8.52452e-24)
(0.0977586 0.000912272 1.46193e-23)
(0.0972089 0.000919091 1.86724e-23)
(0.0988508 0.000890571 0)
(0.0983069 0.000904328 0)
(0.0999051 0.000865348 -6.42123e-26)
(0.0993816 0.000877899 0)
(0.100939 0.000837318 0)
(0.100424 0.000851531 0)
(0.101956 0.000808163 0)
(0.101449 0.000822713 0)
(0.102957 0.000779034 0)
(0.102459 0.000793492 0)
(0.103943 0.000750303 0)
(0.103452 0.000764544 0)
(0.104915 0.000722159 0)
(0.104431 0.000736099 0)
(0.105878 0.000678858 -9.96614e-24)
(0.105396 0.000707143 0)
(0.106362 0.000655801 -3.21822e-24)
(0.106706 0.000159127 3.14249e-24)
(0.106713 -0.00031892 -3.11634e-24)
(0.105416 -0.000803947 0)
(0.10638 -0.000795707 -1.27868e-23)
(0.105898 -0.000798546 -6.58849e-24)
(0.104441 -0.000813736 1.80345e-24)
(0.104929 -0.000810115 -7.05635e-24)
(0.103459 -0.000815251 5.8394e-26)
(0.103952 -0.000815867 0)
(0.102462 -0.000812524 0)
(0.102963 -0.000813897 0)
(0.101449 -0.000809887 0)
(0.101958 -0.000811059 0)
(0.100417 -0.00080844 0)
(0.100935 -0.000808873 7.68572e-30)
(0.0993671 -0.000809651 6.48517e-26)
(0.0998944 -0.00080854 0)
(0.0983028 -0.000806527 0)
(0.0988344 -0.00080927 0)
(0.0972132 -0.000803851 0)
(0.0977587 -0.000804266 0)
(0.0961029 -0.000808816 0)
(0.0966592 -0.000803508 -4.32232e-24)
(0.0949706 -0.000821597 1.13717e-24)
(0.0955387 -0.000817934 -5.57593e-24)
(0.0938279 -0.000838545 0)
(0.0944061 -0.000828369 -4.53641e-24)
(0.0926507 -0.000851897 0)
(0.0932427 -0.000845198 0)
(0.091446 -0.000866168 0)
(0.0920519 -0.000858863 0)
(0.0902087 -0.000879969 0)
(0.0908325 -0.000873182 0)
(0.0889326 -0.000895086 -4.94725e-24)
(0.0895769 -0.000886061 0)
(0.0876218 -0.000929783 -2.00406e-23)
(0.0882816 -0.000907159 -4.97236e-24)
(0.0869436 -0.000957601 2.04018e-23)
(0.0869093 0.00111407 3.86576e-23)
(0.106848 0.00063639 6.30085e-24)
(0.106863 -0.00079303 -1.23072e-23)
(0.0859232 -0.000316792 0)
(0.0862566 -0.000999978 0)
(0.0861945 0.00111269 0)
(0.0858923 0.00039091 0)
(0.0888855 0.00177735 0)
(0.0875349 0.00180813 9.68037e-24)
(0.0882157 0.00179084 9.77287e-24)
(0.0901887 0.00174503 1.24196e-23)
(0.0895439 0.00176222 -2.48255e-24)
(0.0914191 0.00170446 3.83948e-26)
(0.0908097 0.00172466 0)
(0.0926153 0.00166356 0)
(0.0920209 0.00168418 0)
(0.0937832 0.00162168 0)
(0.0932025 0.00164273 0)
(0.0949273 0.00158142 0)
(0.0943578 0.00160062 0)
(0.0960416 0.00153937 0)
(0.0954876 0.00156096 0)
(0.0971356 0.0015015 -3.45035e-26)
(0.0965877 0.00152119 8.90083e-24)
(0.0981994 0.00146154 -3.31074e-26)
(0.097673 0.00148072 -1.73651e-23)
(0.0992622 0.00142019 0)
(0.0987317 0.00143989 0)
(0.1003 0.00138249 3.20619e-26)
(0.0997838 0.0014011 0)
(0.101318 0.00134517 0)
(0.100811 0.00136384 0)
(0.102319 0.00130785 0)
(0.10182 0.00132646 0)
(0.103304 0.00127094 0)
(0.102813 0.0012893 0)
(0.104274 0.00123465 0)
(0.103791 0.0012527 0)
(0.105229 0.00119801 0)
(0.104753 0.00121661 0)
(0.106175 0.00114908 6.80696e-24)
(0.105702 0.00117581 0)
(0.107197 0.000148188 0)
(0.107329 0.000617573 6.16066e-24)
(0.107123 0.00110046 0)
(0.106648 0.00112427 6.6314e-24)
(0.106676 -0.00126815 1.31915e-23)
(0.107148 -0.00126162 3.23978e-24)
(0.107345 -0.000794484 2.52957e-23)
(0.107202 -0.000319899 0)
(0.105727 -0.00128361 0)
(0.106202 -0.00127564 -1.99168e-23)
(0.10477 -0.00129718 5.67345e-26)
(0.10525 -0.00128963 7.09927e-24)
(0.103802 -0.00130458 -5.83937e-26)
(0.104288 -0.00130139 0)
(0.10282 -0.00131001 0)
(0.103313 -0.00130732 0)
(0.101821 -0.00131595 0)
(0.102323 -0.00131282 0)
(0.100805 -0.00132352 0)
(0.101315 -0.00131945 -7.6857e-30)
(0.0997715 -0.00133355 -1.29619e-25)
(0.10029 -0.00132822 0)
(0.0987222 -0.00134431 0)
(0.0992488 -0.00133897 0)
(0.0976489 -0.00135707 2.18059e-24)
(0.0981888 -0.00135004 0)
(0.0965587 -0.00137185 0)
(0.0971046 -0.0013622 -2.17149e-24)
(0.095446 -0.00139421 4.54594e-24)
(0.0960017 -0.00138273 4.51827e-24)
(0.0943104 -0.00141642 0)
(0.0948823 -0.00140528 0)
(0.0931488 -0.00144257 0)
(0.0937328 -0.00142911 0)
(0.0919599 -0.00147161 0)
(0.0925579 -0.00145672 0)
(0.0907403 -0.0015038 0)
(0.0913542 -0.0014872 0)
(0.0894864 -0.00154087 7.9121e-26)
(0.090118 -0.00152164 0)
(0.0881945 -0.00158573 -8.0226e-26)
(0.0888463 -0.00156245 0)
(0.086868 -0.00166336 -2.09828e-23)
(0.0875348 -0.00162096 2.09732e-23)
(0.0868388 0.00182551 1.97006e-23)
(0.0855634 -0.00105384 0)
(0.0861932 -0.00171832 -4.2675e-23)
(0.0852104 -0.00036205 0)
(0.107595 0.00108279 0)
(0.107622 -0.00125513 -3.14212e-24)
(0.0854723 0.00111107 4.9889e-23)
(0.0861356 0.00184359 1.99571e-23)
(0.0848535 -0.00111054 1.07892e-23)
(0.0855072 -0.00178098 5.39301e-23)
(0.0851588 0.000361895 0)
(0.10753 0.00155982 2.59132e-23)
(0.107988 0.00153595 -1.27971e-23)
(0.107821 -0.000792414 -6.22514e-24)
(0.108089 -0.00124622 3.09484e-23)
(0.0871352 0.00254886 7.00126e-23)
(0.0854116 0.00186099 -3.93095e-23)
(0.0857188 0.00260515 -1.75714e-22)
(0.0864239 0.00257398 -3.99992e-23)
(0.088474 0.00248147 1.94825e-23)
(0.0878113 0.00251641 -5.95629e-23)
(0.0897589 0.00241686 -1.99217e-23)
(0.0891238 0.00244891 -1.50301e-23)
(0.0910127 0.00235901 -4.96608e-24)
(0.0903932 0.00238883 -4.97006e-24)
(0.092215 0.00230318 -3.83948e-26)
(0.0916206 0.00233137 0)
(0.0933815 0.00224695 0)
(0.0928019 0.00227497 0)
(0.0945202 0.0021918 0)
(0.0939541 0.00221924 0)
(0.0956343 0.00213862 0)
(0.0950802 0.00216481 0)
(0.0967239 0.00208763 0)
(0.0961819 0.00211254 0)
(0.0977904 0.00203681 0)
(0.0972594 0.00206187 0)
(0.0988357 0.00198761 6.19948e-29)
(0.0983164 0.00201307 0)
(0.099865 0.00193735 0)
(0.0993519 0.00196197 0)
(0.100877 0.00188966 3.19798e-26)
(0.100373 0.00191328 0)
(0.101871 0.00184329 0)
(0.101376 0.00186636 0)
(0.102848 0.00179781 0)
(0.102362 0.00182045 0)
(0.10381 0.00175317 0)
(0.103331 0.00177538 0)
(0.104757 0.00170932 0)
(0.104286 0.00173117 0)
(0.10569 0.00166484 0)
(0.105225 0.00168743 0)
(0.106611 0.00161254 3.46485e-24)
(0.106152 0.00163952 -1.74396e-24)
(0.107071 0.00158637 -1.32212e-23)
(0.107677 0.000141542 -2.95072e-24)
(0.108064 0.00106449 1.2332e-23)
(0.107805 0.000605339 -9.43354e-24)
(0.107681 -0.000328625 0)
(0.107106 -0.00173037 -9.81724e-24)
(0.108022 -0.00170512 -2.83217e-23)
(0.107565 -0.00171851 2.28083e-23)
(0.106185 -0.00175582 0)
(0.106646 -0.00174239 0)
(0.105249 -0.00177065 -9.18767e-29)
(0.105717 -0.00176189 0)
(0.104302 -0.00178515 0)
(0.104777 -0.00177822 0)
(0.103341 -0.00179854 -5.98399e-26)
(0.103824 -0.00179183 0)
(0.102364 -0.00181279 0)
(0.102855 -0.00180549 0)
(0.101371 -0.00182884 0)
(0.10187 -0.00182055 0)
(0.10036 -0.00184723 6.47766e-26)
(0.100868 -0.00183774 0)
(0.0993327 -0.00186773 6.6293e-26)
(0.0998488 -0.00185721 0)
(0.0982852 -0.00189145 0)
(0.0988113 -0.00187903 0)
(0.0972179 -0.00191853 0)
(0.0977544 -0.00190476 0)
(0.0961291 -0.00195002 0)
(0.0966755 -0.00193334 0)
(0.0950174 -0.00198396 0)
(0.0955764 -0.00196642 0)
(0.0938808 -0.00202297 -7.43191e-26)
(0.0944523 -0.00200292 0)
(0.0927175 -0.00206641 0)
(0.0933027 -0.00204414 0)
(0.0915245 -0.00211476 0)
(0.0921249 -0.0020899 0)
(0.0902987 -0.00216937 -1.23538e-28)
(0.0909158 -0.00214121 0)
(0.0890382 -0.00223167 1.40019e-28)
(0.0896732 -0.00219958 0)
(0.0877452 -0.00231106 8.28934e-26)
(0.0883927 -0.0022668 0)
(0.0864259 -0.00242526 -4.36081e-23)
(0.087088 -0.00236294 1.07192e-23)
(0.0848093 -0.00184399 1.09729e-23)
(0.085766 -0.00249514 2.17986e-23)
(0.0847382 0.00110296 -1.95333e-23)
(0.0844796 -0.00041096 -2.09044e-23)
(0.108444 0.00151283 3.13158e-24)
(0.108481 -0.00169698 2.22562e-23)
(0.0846517 0.00185845 2.46395e-24)
(0.0841327 -0.00117425 0)
(0.0847689 0.00251767 2.69368e-22)
(0.0850992 -0.00256776 3.3521e-23)
(0.0841158 -0.00191182 4.47375e-23)
(0.0864515 0.00347849 -4.43391e-22)
(0.0862103 0.00362242 8.133e-23)
(0.08443 0.000335052 0)
(0.0872033 0.0033175 4.49769e-23)
(0.0867204 0.00342032 2.29656e-23)
(0.0884193 0.00321247 4.05901e-23)
(0.0877741 0.00325482 -6.18989e-23)
(0.0896889 0.00312022 -2.0174e-23)
(0.0890654 0.00316811 -1.00718e-23)
(0.0909057 0.00303572 1.01085e-23)
(0.0903017 0.00307668 1.0242e-23)
(0.0920941 0.00295675 0)
(0.0915012 0.00299461 -1.92161e-26)
(0.0932479 0.00288372 0)
(0.0926749 0.00292014 0)
(0.0943739 0.00281298 3.74914e-26)
(0.0938142 0.00284798 0)
(0.0954743 0.00274506 0)
(0.0949271 0.00277871 0)
(0.0965512 0.0026799 0)
(0.0960156 0.00271212 0)
(0.0976055 0.00261734 0)
(0.097081 0.00264828 0)
(0.0986384 0.00255638 3.4324e-26)
(0.0981244 0.00258654 0)
(0.0996516 0.00249711 6.69644e-29)
(0.0991476 0.00252693 0)
(0.100648 0.0024387 0)
(0.100151 0.00246756 0)
(0.101627 0.00238238 -6.38981e-26)
(0.101139 0.00241033 0)
(0.10259 0.00232768 0)
(0.102111 0.00235486 0)
(0.103537 0.00227434 0)
(0.103066 0.00230086 0)
(0.104469 0.00222219 0)
(0.104005 0.00224814 0)
(0.105387 0.00217099 0)
(0.10493 0.00219652 0)
(0.106291 0.00211936 0)
(0.105841 0.00214543 0)
(0.107185 0.0020659 -1.73033e-24)
(0.106738 0.00209175 0)
(0.108068 0.00200801 0)
(0.107626 0.00203703 -3.35163e-24)
(0.108944 0.00194859 -3.3614e-27)
(0.108509 0.00197898 0)
(0.108525 0.0010473 -1.25033e-23)
(0.109388 0.00192572 7.52531e-25)
(0.108901 0.00149408 6.11877e-24)
(0.108145 0.000131139 4.50176e-24)
(0.108272 0.0005917 -3.10713e-24)
(0.10829 -0.000790015 -1.56527e-24)
(0.108152 -0.000331843 1.56124e-24)
(0.108935 -0.00168887 0)
(0.108552 -0.00124409 -1.41818e-23)
(0.108553 -0.00215057 -6.36354e-24)
(0.109435 -0.00212613 -1.21837e-23)
(0.108995 -0.00213805 2.798e-23)
(0.10767 -0.00218221 -3.3399e-24)
(0.108112 -0.00216646 0)
(0.106776 -0.00220971 0)
(0.107224 -0.00219557 0)
(0.105871 -0.00223211 -1.13919e-28)
(0.106325 -0.00222132 0)
(0.104952 -0.00225346 0)
(0.105413 -0.00224291 0)
(0.104019 -0.00227459 5.98399e-26)
(0.104488 -0.00226396 0)
(0.103071 -0.00229689 0)
(0.103547 -0.00228555 0)
(0.102107 -0.0023212 0)
(0.102591 -0.00230877 0)
(0.101126 -0.00234805 0)
(0.101618 -0.0023343 0)
(0.100128 -0.0023778 -1.2888e-28)
(0.100629 -0.00236255 0)
(0.0991109 -0.0024113 0)
(0.0996216 -0.00239403 0)
(0.0980747 -0.00244872 0)
(0.0985954 -0.00242958 0)
(0.097018 -0.00249074 0)
(0.0975488 -0.00246904 0)
(0.0959391 -0.0025369 0)
(0.0964815 -0.0025132 0)
(0.0948363 -0.00258854 7.43191e-26)
(0.0953908 -0.00256205 0)
(0.0937079 -0.00264583 0)
(0.0942754 -0.00261647 0)
(0.0925513 -0.00270942 0)
(0.0931332 -0.00267678 0)
(0.0913644 -0.00278055 -7.89899e-26)
(0.0919618 -0.00274398 0)
(0.0901456 -0.00286018 8.04884e-26)
(0.0907592 -0.00281933 0)
(0.0888934 -0.00294999 -8.19568e-26)
(0.0895234 -0.00290357 0)
(0.0876181 -0.00305792 1.07725e-23)
(0.088254 -0.00299925 -2.12496e-23)
(0.0863448 -0.0031994 -1.08509e-23)
(0.0869788 -0.00312347 2.20623e-23)
(0.0844194 -0.00263741 3.15884e-25)
(0.0856967 -0.00327585 2.2273e-23)
(0.0839853 0.00107697 -2.003e-23)
(0.083745 -0.000450138 0)
(0.0838732 0.00180707 -1.93737e-22)
(0.0834034 -0.00122257 0)
(0.109569 0.00237796 -3.12185e-24)
(0.109985 0.00234488 2.2868e-24)
(0.109384 -0.00168134 -1.19813e-23)
(0.109869 -0.00210825 -1.35533e-23)
(0.0838319 0.00246151 -1.88445e-22)
(0.0834121 -0.00197563 -4.51751e-23)
(0.0853194 0.00361035 0)
(0.0878923 0.00413432 -5.13722e-23)
(0.083739 -0.00270788 -2.21777e-23)
(0.0850393 -0.00335043 3.37049e-23)
(0.0873291 0.0041286 1.03133e-22)
(0.0836878 0.000305791 0)
(0.0887866 0.00395832 0)
(0.0883076 0.00404945 -4.57584e-23)
(0.0899396 0.00382929 0)
(0.0893462 0.00389056 0)
(0.0911249 0.00371928 0)
(0.0905352 0.00377158 1.04345e-23)
(0.0922714 0.00362031 0)
(0.0917008 0.00366924 0)
(0.0933974 0.00352732 0)
(0.0928369 0.0035724 0)
(0.0944988 0.00344054 0)
(0.0939512 0.00348358 0)
(0.0955762 0.00335726 -3.74914e-26)
(0.0950404 0.00339843 0)
(0.0966307 0.00327759 0)
(0.0961063 0.00331701 0)
(0.0976635 0.00320131 0)
(0.0971498 0.00323905 0)
(0.0986755 0.00312806 0)
(0.098172 0.00316433 0)
(0.0996677 0.00305733 -8.08212e-29)
(0.0991739 0.00309238 0)
(0.100641 0.00298886 7.8723e-29)
(0.100157 0.00302295 0)
(0.101598 0.00292216 0)
(0.101122 0.00295521 0)
(0.10254 0.0028577 7.43685e-29)
(0.102071 0.00288969 0)
(0.103465 0.00279515 0)
(0.103004 0.00282621 0)
(0.104376 0.0027343 0)
(0.103922 0.00276454 0)
(0.105272 0.00267494 0)
(0.104826 0.00270446 0)
(0.106155 0.00261672 0)
(0.105715 0.00264574 0)
(0.107024 0.00255872 0)
(0.106591 0.00258779 0)
(0.107883 0.00250094 0)
(0.107455 0.00252984 0)
(0.10873 0.00244041 3.32009e-24)
(0.108306 0.00246944 3.40253e-24)
(0.10915 0.00240837 -6.37183e-24)
(0.108979 0.00103071 -6.13823e-24)
(0.109828 0.00190352 0)
(0.109346 0.00147092 -6.19018e-24)
(0.108608 0.000123039 0)
(0.108729 0.000580391 6.26446e-24)
(0.108749 -0.000789626 9.35091e-24)
(0.108614 -0.000334948 -3.16207e-24)
(0.109008 -0.00123881 -1.83674e-23)
(0.109204 -0.00258304 3.19845e-24)
(0.110041 -0.00254171 1.18913e-23)
(0.109629 -0.0025677 0)
(0.108357 -0.00261758 -6.63669e-24)
(0.108784 -0.00260124 6.65856e-24)
(0.107499 -0.0026489 0)
(0.10793 -0.002634 0)
(0.106628 -0.00267801 -1.33957e-28)
(0.107065 -0.00266371 0)
(0.105743 -0.00270628 0)
(0.106187 -0.00269219 0)
(0.104845 -0.00273491 0)
(0.105296 -0.00272049 0)
(0.103931 -0.00276499 0)
(0.10439 -0.00274973 0)
(0.103002 -0.00279732 0)
(0.103469 -0.00278085 0)
(0.102057 -0.00283252 6.43998e-26)
(0.102532 -0.00281454 0)
(0.101096 -0.00287115 -6.61642e-26)
(0.101579 -0.00285138 0)
(0.100116 -0.00291397 0)
(0.100608 -0.002892 0)
(0.0991183 -0.00296126 0)
(0.0996197 -0.00293706 0)
(0.0981008 -0.00301361 0)
(0.098612 -0.00298678 0)
(0.0970623 -0.0030712 0)
(0.0975843 -0.00304171 0)
(0.0960012 -0.00313491 0)
(0.0965346 -0.00310228 0)
(0.0949161 -0.00320524 0)
(0.0954618 -0.00316923 0)
(0.0938051 -0.00328292 -7.71281e-26)
(0.0943639 -0.00324312 0)
(0.0926666 -0.00336897 7.86529e-26)
(0.0932393 -0.00332485 0)
(0.0914996 -0.00346422 -8.01432e-26)
(0.0920867 -0.00341546 0)
(0.0903038 -0.00356913 0)
(0.0909052 -0.00351544 0)
(0.0890792 -0.00368371 0)
(0.0896945 -0.0036251 0)
(0.0878419 -0.00381288 8.54165e-26)
(0.0884633 -0.0037459 1.08413e-23)
(0.0865935 -0.00396634 -5.64939e-23)
(0.0872133 -0.00388615 0)
(0.0843958 -0.00343342 -3.34786e-23)
(0.0859739 -0.00405088 -3.13757e-25)
(0.0832291 0.00104965 6.26228e-23)
(0.0830006 -0.000484786 0)
(0.110408 0.00231611 -1.18912e-23)
(0.110463 -0.00252613 -2.29228e-23)
(0.0830064 0.00174422 -3.3062e-23)
(0.0841691 0.00317178 1.10577e-24)
(0.0830478 0.0024083 9.41234e-23)
(0.0826732 -0.00126156 0)
(0.0826914 -0.00202195 1.13021e-23)
(0.0863034 0.00410671 -9.68704e-23)
(0.0853618 0.00401693 8.26319e-23)
(0.0837704 0.00326505 -8.13002e-23)
(0.0830451 -0.00276888 -3.39449e-23)
(0.0837304 -0.0035111 2.26433e-23)
(0.0853652 -0.00414835 2.22243e-23)
(0.0829358 0.000276673 0)
(0.089523 0.00471007 2.87782e-24)
(0.0880747 0.00473093 5.03663e-25)
(0.088867 0.00470981 2.24979e-23)
(0.090531 0.00455582 2.22165e-23)
(0.0900295 0.00463934 -2.23318e-23)
(0.0916346 0.00440448 4.11384e-26)
(0.0910661 0.00447614 0)
(0.0927477 0.00428343 0)
(0.0921951 0.00434108 0)
(0.093835 0.00417306 0)
(0.0932939 0.0042276 0)
(0.0949018 0.00406898 0)
(0.094371 0.00412 0)
(0.0959464 0.00397066 3.80745e-26)
(0.0954269 0.00401934 0)
(0.0969695 0.00387635 0)
(0.0964606 0.00392301 0)
(0.0979719 0.00378604 0)
(0.0974732 0.00383072 0)
(0.0989545 0.00369953 0)
(0.0984656 0.00374233 0)
(0.099918 0.00361652 0)
(0.0994385 0.00365762 0)
(0.100863 0.00353661 -3.42432e-26)
(0.100393 0.0035762 0)
(0.101792 0.00345951 9.14487e-29)
(0.10133 0.00349778 0)
(0.102704 0.00338485 0)
(0.10225 0.00342186 0)
(0.103601 0.00331269 6.36014e-26)
(0.103154 0.00334849 0)
(0.104484 0.00324275 0)
(0.104044 0.00327747 0)
(0.105352 0.00317479 0)
(0.10492 0.00320855 0)
(0.106207 0.00310856 0)
(0.105781 0.00314149 0)
(0.107049 0.0030437 0)
(0.10663 0.003076 0)
(0.107878 0.00297957 0)
(0.107465 0.0030116 0)
(0.108696 0.00291585 5.39805e-26)
(0.108289 0.00294769 0)
(0.109503 0.00285208 -3.33459e-24)
(0.109102 0.0028845 0)
(0.110297 0.00278288 3.17469e-24)
(0.109901 0.00281791 0)
(0.111086 0.0027108 3.01674e-24)
(0.110691 0.00274695 -3.09238e-24)
(0.110252 0.00187735 5.9888e-24)
(0.111482 0.00267693 0)
(0.110827 0.00228854 8.89727e-24)
(0.109422 0.00101436 0)
(0.109782 0.00145084 0)
(0.109061 0.000115915 0)
(0.10918 0.000567435 0)
(0.1092 -0.000787575 0)
(0.109068 -0.000337318 0)
(0.109823 -0.00167233 1.22109e-23)
(0.109453 -0.001235 3.04059e-24)
(0.110876 -0.00250887 2.98813e-24)
(0.110298 -0.0020965 2.38955e-23)
(0.110763 -0.00295052 1.55059e-23)
(0.111552 -0.00290631 2.96064e-24)
(0.111157 -0.00292732 -6.02896e-24)
(0.109967 -0.00299532 3.18729e-24)
(0.110364 -0.00297211 -1.91148e-23)
(0.109161 -0.00303436 -1.29179e-28)
(0.109565 -0.00301476 0)
(0.108341 -0.00307 0)
(0.108752 -0.00305195 0)
(0.107509 -0.00310553 -1.54258e-28)
(0.107927 -0.00308791 0)
(0.106664 -0.00314067 0)
(0.107088 -0.00312309 0)
(0.105806 -0.00317653 0)
(0.106237 -0.00315846 0)
(0.104933 -0.00321409 0)
(0.105371 -0.00319506 0)
(0.104045 -0.00325415 0)
(0.104491 -0.00323378 0)
(0.103142 -0.0032974 -1.28625e-25)
(0.103595 -0.00327536 0)
(0.102223 -0.0033445 0)
(0.102684 -0.00332045 0)
(0.101287 -0.00339616 0)
(0.101757 -0.00336974 0)
(0.100334 -0.0034528 0)
(0.100813 -0.00342385 0)
(0.0993619 -0.003515 0)
(0.0998501 -0.00348318 0)
(0.0983705 -0.00358321 -7.22278e-26)
(0.0988687 -0.00354833 0)
(0.0973582 -0.00365818 0)
(0.097867 -0.00361983 0)
(0.0963239 -0.00374051 0)
(0.0968439 -0.0036984 0)
(0.0952662 -0.00383091 7.71281e-26)
(0.0957981 -0.00378467 0)
(0.0941841 -0.00393021 -2.14406e-28)
(0.0947283 -0.00387942 0)
(0.093077 -0.004039 1.60068e-25)
(0.0936337 -0.00398343 0)
(0.0919448 -0.00415739 0)
(0.092514 -0.00409703 0)
(0.0907874 -0.00428505 0)
(0.0913691 -0.00421994 0)
(0.0896067 -0.0044204 -2.47811e-28)
(0.0902003 -0.00435281 0)
(0.0884031 -0.00456713 0)
(0.0890066 -0.0044914 0)
(0.0872235 -0.00474309 -3.36018e-23)
(0.0878093 -0.00465121 0)
(0.0847372 -0.00424004 -3.06106e-25)
(0.0866415 -0.00484297 5.7071e-23)
(0.0824323 0.00100266 0)
(0.0872623 0.00474026 1.30552e-22)
(0.082208 0.00168786 2.25877e-23)
(0.111863 0.0030909 -3.01107e-24)
(0.112239 0.00305714 0)
(0.111289 -0.00249378 2.90423e-24)
(0.111941 -0.0028817 -5.77201e-24)
(0.0822523 -0.000517537 0)
(0.0819332 -0.00129199 0)
(0.0823976 0.00247993 0)
(0.0819634 -0.00206129 -1.11316e-23)
(0.0823435 -0.00283179 -2.24068e-23)
(0.0830593 -0.00359279 0)
(0.0840961 -0.00433415 5.77151e-23)
(0.0860391 -0.0049443 -4.60328e-23)
(0.0821713 0.00024243 0)
(0.0901443 0.00532869 -1.08328e-26)
(0.0864131 0.00470605 4.09829e-23)
(0.0887075 0.00541437 -1.46092e-22)
(0.0894235 0.00538858 4.28017e-23)
(0.09141 0.00525084 -1.39135e-23)
(0.0907958 0.00527181 -2.23062e-23)
(0.0924483 0.00511325 0)
(0.091942 0.00519346 0)
(0.0935015 0.00495047 -4.11347e-26)
(0.0929646 0.00502735 0)
(0.0945538 0.00481718 0)
(0.0940317 0.00488142 0)
(0.0955798 0.00469549 0)
(0.0950696 0.00475543 0)
(0.0965845 0.0045808 0)
(0.0960848 0.00463728 0)
(0.0975684 0.00447193 -3.80745e-26)
(0.097079 0.00452578 0)
(0.0985325 0.00436759 0)
(0.0980529 0.00441922 0)
(0.0994779 0.0042676 0)
(0.0990075 0.00431707 0)
(0.100405 0.00417177 0)
(0.0999437 0.00421919 0)
(0.101315 0.00407984 0)
(0.100862 0.00412535 0)
(0.102208 0.00399146 3.40433e-26)
(0.101764 0.00403523 0)