/*--------------------------------*- C++ -*----------------------------------*\
  =========                 |
  \\      /  F ield         | OpenFOAM: The Open Source CFD Toolbox
   \\    /   O peration     | Website:  https://openfoam.org
    \\  /    A nd           | Version:  10
     \\/     M anipulation  |
\*---------------------------------------------------------------------------*/
FoamFile
{
    format      ascii;
    class       volVectorField;
    location    "13.5";
    object      U;
}
// * * * * * * * * * * * * * * * * * * * * * * * * * * * * * * * * * * * * * //

dimensions      [0 1 -1 0 0 0 0];

internalField   nonuniform List<vector> 
28942
(
(-0.105284 0.0619818 -3.56536e-20)
(-0.104852 0.0642564 -7.46134e-21)
(0.446173 -0.313603 3.49067e-20)
(1.01583 0.0416611 -9.65431e-20)
(0.994189 0.0515909 3.18281e-20)
(0.293229 0.0115243 0)
(0.359189 0.034617 -4.00237e-22)
(0.399747 0.00884482 5.35312e-22)
(1.22775 -0.182557 2.38974e-21)
(1.21765 -0.167993 -5.31049e-21)
(-0.092339 -0.156919 -1.02819e-19)
(-0.0636465 -0.144759 4.70462e-20)
(-0.0904577 -0.114771 0)
(-0.0980418 -0.123914 0)
(0.781814 -0.0145111 -1.92477e-23)
(0.776439 -0.0116001 -5.5187e-23)
(0.930683 0.102328 3.11562e-20)
(0.914343 0.0866555 4.98411e-20)
(0.321196 -0.439444 7.93883e-20)
(0.617651 -0.707801 -2.23679e-20)
(0.983173 0.24781 4.17938e-20)
(0.984753 0.232075 0)
(0.0136207 -0.0314234 9.5458e-20)
(-0.06684 -0.0385217 5.32619e-20)
(0.571778 -0.154647 1.03649e-19)
(0.934317 -0.274778 -9.42062e-20)
(0.190914 -0.44783 4.74667e-19)
(0.198538 -0.372764 -1.83418e-19)
(0.722166 -0.527713 1.40802e-21)
(0.437389 -0.305312 -4.63866e-22)
(0.292741 -0.0190743 0)
(0.382963 -0.0262369 1.02961e-21)
(0.484269 -0.00764522 9.11273e-21)
(0.647365 -0.0181614 1.96138e-22)
(0.436079 0.474401 3.21794e-20)
(0.366064 0.522787 -3.0963e-20)
(0.581384 0.685777 -1.31035e-19)
(0.376973 0.613776 -5.12723e-20)
(0.151873 0.0144922 5.24825e-22)
(0.20165 0.47584 -8.5031e-20)
(0.657939 -0.0596926 0)
(0.856892 -0.0777251 0)
(1.51635 -0.252043 4.29924e-21)
(1.49989 -0.275057 -1.31492e-20)
(1.49971 -0.241652 -1.08912e-20)
(0.555913 0.0121263 -1.85366e-22)
(0.526043 0.0246076 2.72645e-22)
(0.689676 0.0129807 1.66242e-21)
(0.670926 0.0124589 -4.67262e-22)
(0.573913 0.0116552 -3.79516e-21)
(0.476926 0.00472792 2.47951e-21)
(1.1736 -0.0392977 8.3726e-21)
(1.16971 -0.0438037 6.25096e-21)
(1.2211 -0.197017 -1.10437e-22)
(1.20944 -0.182467 -2.53748e-22)
(1.20975 -0.244413 8.49725e-20)
(1.45833 -0.340617 4.6895e-20)
(-0.0752406 -0.0686886 -6.28263e-20)
(-0.0795387 -0.0950295 0)
(-0.0709325 -0.0685075 2.26507e-20)
(-0.0675737 -0.0541061 5.5083e-20)
(-0.0320108 -0.0257439 -4.41056e-20)
(-0.0322968 -0.0276246 -4.60408e-20)
(1.30848 -0.596653 0)
(1.43638 -0.535265 1.74396e-20)
(1.33967 -0.476414 -7.49129e-21)
(1.27849 -0.468635 0)
(0.93002 -0.236078 -2.84323e-20)
(0.94911 -0.257339 -1.84134e-20)
(-0.0635098 0.0440288 1.18426e-19)
(-0.0788353 0.0495581 -3.77782e-20)
(-0.103093 0.0741653 9.52546e-20)
(0.923815 -0.322267 0)
(0.940698 -0.28594 9.80169e-20)
(0.872371 -0.43662 2.53037e-20)
(1.39419 0.346692 4.0504e-20)
(1.42045 0.331901 -4.38611e-20)
(1.40926 0.298976 -2.83805e-20)
(0.137293 -0.0784287 1.59048e-21)
(0.194745 -0.123952 -3.89639e-20)
(0.961645 -0.613248 -6.15381e-21)
(0.699869 -0.483873 1.26267e-20)
(-0.0740701 0.0446918 2.04249e-19)
(-0.0788433 0.0464917 -7.85917e-20)
(1.22372 0.599194 -3.88805e-21)
(1.16445 0.568935 -2.02232e-20)
(1.05834 0.6628 1.53894e-20)
(0.906979 0.646883 -5.3593e-20)
(0.864406 0.619508 3.69749e-20)
(0.645671 0.447197 -1.28404e-21)
(0.710872 0.53665 -1.21725e-20)
(0.752694 0.61925 1.94262e-20)
(-0.150187 -0.18843 -1.33368e-20)
(-0.120635 -0.192474 -3.45588e-21)
(-0.125867 -0.161746 6.92309e-21)
(-0.141565 -0.17269 -9.32989e-20)
(-0.142501 -0.17648 1.18604e-19)
(0.361628 0.286937 -7.25898e-20)
(0.408363 0.35209 1.57536e-20)
(-0.0217039 0.0213283 0)
(1.00712 0.00413365 0)
(0.965146 0.0530125 -7.4912e-20)
(0.891127 0.13507 5.28837e-20)
(1.08117 0.117575 0)
(1.39116 0.160842 0)
(1.395 0.159771 0)
(1.40518 0.165976 5.72623e-20)
(1.081 0.189186 -6.63731e-21)
(1.0772 0.200162 7.08055e-20)
(1.07094 0.178315 3.71092e-20)
(-0.0789589 -0.0790859 1.26322e-19)
(-0.0791452 -0.0815995 -1.4174e-19)
(-0.00347464 0.0442587 -6.46721e-20)
(-0.0350307 0.0269936 6.09452e-20)
(-0.103235 0.0441138 1.1888e-19)
(0.162642 0.233679 8.16171e-20)
(0.377477 0.231436 1.98912e-19)
(0.289425 0.447592 1.53237e-20)
(0.12878 0.347516 -4.75827e-19)
(1.24738 0.478753 1.59832e-21)
(1.11046 0.455315 3.44797e-20)
(1.14963 0.440643 -5.94389e-20)
(0.798845 -0.626418 1.07158e-20)
(0.540726 -0.395966 -3.80053e-21)
(0.157279 -0.00555561 -2.4416e-19)
(0.145836 -0.0798486 0)
(0.305822 -0.0496966 1.31589e-19)
(0.505537 -0.391401 1.32267e-20)
(0.723053 -0.617954 -2.86541e-20)
(0.658319 0.0148496 -1.87276e-21)
(0.692472 0.0134216 6.96928e-22)
(0.617382 0.0133569 5.66296e-23)
(0.502631 -0.769185 0)
(0.530113 -0.601248 0)
(1.06266 -0.132153 -1.27807e-20)
(1.04894 -0.113355 7.33294e-20)
(1.03257 -0.0809492 0)
(0.82023 -0.735452 0)
(0.82129 -0.680193 -2.96921e-20)
(0.728481 0.718719 8.25642e-20)
(-0.0668344 -0.0731771 8.61516e-20)
(-0.0590056 -0.0611053 -6.42902e-20)
(0.549717 -0.510708 -1.4783e-20)
(1.48171 -0.198933 -5.87023e-20)
(1.47558 -0.21538 1.07329e-20)
(1.4449 -0.281582 -1.43717e-20)
(1.4454 -0.268213 1.92216e-20)
(1.46155 -0.252219 6.85912e-20)
(-0.0583169 -0.0547528 2.98846e-20)
(0.834699 0.696635 1.02622e-19)
(0.966286 0.678704 -2.98896e-20)
(1.03759 0.716118 3.6315e-23)
(0.457942 -0.0128904 -2.58275e-22)
(0.456533 -0.0143187 -2.25307e-21)
(0.500791 -0.0183515 -2.35438e-22)
(0.54435 -0.0167646 6.02511e-22)
(0.786202 0.690943 1.6461e-20)
(0.425555 0.406656 0)
(-0.00777103 -0.0398765 6.17197e-20)
(-0.0221204 -0.00403343 -6.82022e-20)
(-0.0821874 -0.0216589 5.2365e-20)
(0.434361 0.0735626 -1.44135e-19)
(0.952955 0.246237 -6.96725e-20)
(0.615842 -0.0175087 2.96246e-22)
(1.19851 -0.453296 1.96467e-20)
(1.16121 -0.528904 4.76912e-20)
(0.963879 0.270995 9.73688e-20)
(0.945179 0.307313 7.7585e-21)
(0.926375 0.188942 5.55728e-20)
(0.943341 0.195782 -4.01445e-20)
(0.988237 0.273013 0)
(1.15224 0.0608573 -1.14469e-22)
(1.15853 0.0597464 -1.25247e-21)
(1.17594 -0.127644 1.03508e-21)
(1.18794 -0.132652 -2.59382e-21)
(1.09335 0.179855 7.33941e-21)
(1.10586 0.189306 -2.04508e-20)
(1.09335 0.19031 0)
(1.08108 0.178961 4.8242e-21)
(1.09086 0.200744 0)
(1.09331 0.254622 -1.84112e-20)
(1.08644 0.267576 -1.0717e-20)
(1.06302 0.289832 -2.06933e-20)
(1.07625 0.279597 0)
(1.09526 0.301003 6.36797e-20)
(1.07834 0.313996 2.85191e-21)
(1.04626 0.305253 -1.24979e-20)
(0.992798 0.35773 -5.5548e-20)
(0.993075 0.299613 -9.77048e-21)
(-0.0713712 -0.0198629 2.94174e-20)
(0.0120708 -0.010506 -1.19009e-20)
(-0.102184 0.0455501 -8.77529e-20)
(0.596007 0.0116024 1.9051e-21)
(0.725812 0.0128173 0)
(-0.0107538 0.00123847 6.52781e-20)
(-0.0135084 0.00682565 3.32312e-20)
(0.679407 0.0135465 1.58935e-22)
(0.765676 0.0133556 2.41455e-23)
(0.759387 0.0138643 0)
(0.666504 0.0159916 -5.90795e-23)
(0.666644 0.0134148 -2.74816e-22)
(0.607438 -0.0126142 2.78989e-21)
(0.670262 0.019135 -7.95111e-22)
(-0.0759001 -0.0770606 5.43771e-20)
(-0.0276189 -0.0256936 -6.98434e-20)
(-0.0310886 -0.0284938 6.71595e-20)
(-0.0546629 -0.0376649 0)
(-0.024328 -0.0151705 9.34146e-20)
(-0.0236879 -0.0165919 -8.13231e-20)
(-0.0658591 -0.0150767 -8.37153e-20)
(-0.0889016 -0.0362686 -8.49145e-20)
(-0.052359 -0.0238706 0)
(0.0550506 0.224986 0)
(0.0250519 0.13469 0)
(0.00949683 0.0762793 0)
(1.38284 0.15287 -8.2423e-21)
(1.37172 0.142231 0)
(1.3864 0.148771 9.16226e-21)
(0.922778 -0.0990056 2.00173e-19)
(0.936543 -0.105974 -7.26803e-20)
(0.933448 -0.08718 0)
(0.920689 0.171226 -2.42064e-22)
(0.927043 0.167353 4.86331e-22)
(0.914364 0.17453 -1.65861e-22)
(0.931318 0.162719 0)
(0.935186 0.157775 -3.0153e-22)
(0.938785 0.15238 0)
(0.896135 0.150372 0)
(0.939331 0.146668 1.09093e-21)
(0.897136 0.145691 0)
(0.892031 0.154522 -3.06819e-22)
(0.888097 0.158326 0)
(0.88243 0.16155 1.65489e-22)
(0.8749 0.163956 -2.45109e-22)
(0.866672 0.165553 1.65648e-22)
(0.938203 0.140895 -1.04389e-21)
(0.897319 0.140693 -3.55897e-23)
(0.905849 0.176855 1.93271e-24)
(0.857533 0.166263 -2.55138e-22)
(0.895572 0.178087 1.31939e-21)
(0.937544 0.135048 9.53133e-25)
(0.898331 0.135417 -3.40393e-23)
(0.845472 0.165709 5.04276e-22)
(0.936247 0.12908 9.30961e-22)
(0.934632 0.123017 -9.30181e-22)
(0.898869 0.12992 7.01447e-23)
(0.899262 0.124144 1.31589e-22)
(0.886439 0.178772 -1.28363e-21)
(0.832107 0.16374 -3.31757e-22)
(0.932607 0.116874 0)
(0.899549 0.118077 -1.29763e-22)
(0.871585 0.177077 1.59328e-25)
(0.817265 0.160193 -1.59807e-25)
(0.930528 0.110613 0)
(0.900016 0.111703 0)
(0.856639 0.174058 0)
(0.800454 0.154962 0)
(0.928397 0.104229 0)
(0.900751 0.105002 5.67311e-23)
(0.838893 0.169032 -6.26648e-22)
(0.781749 0.147758 -1.59118e-25)
(0.926564 0.0976624 2.97327e-24)
(0.90199 0.0979578 -6.05879e-23)
(0.819515 0.161985 6.29629e-22)
(0.761201 0.138513 0)
(0.925051 0.0909035 0)
(0.903823 0.0905474 0)
(0.797912 0.152742 -4.00862e-23)
(0.738843 0.127077 7.09316e-22)
(0.924123 0.0838791 3.45681e-22)
(0.90636 0.0827766 0)
(0.774129 0.141068 -2.12043e-23)
(0.714597 0.113218 -6.72578e-22)
(0.923876 0.0766281 -5.1107e-22)
(0.909761 0.0746249 -1.3746e-22)
(0.746306 0.125892 6.14408e-22)
(0.688502 0.0967861 0)
(0.924278 0.0690208 1.6436e-22)
(0.913895 0.0660823 9.18901e-23)
(0.71872 0.109107 -3.18329e-22)
(0.660849 0.0778687 6.84019e-22)
(0.925925 0.0612969 -6.04377e-22)
(0.919184 0.0573154 6.81074e-22)
(0.684873 0.0871932 2.82049e-22)
(0.631008 0.0558022 1.08595e-23)
(0.927977 0.0532336 0)
(0.924883 0.0484743 2.95051e-22)
(0.651989 0.0638619 -6.42552e-22)
(0.600176 0.0314461 1.38015e-21)
(0.931231 0.0447136 0)
(0.93124 0.0393517 0)
(0.748379 0.119713 -2.79077e-22)
(0.71439 0.0977099 -9.65586e-22)
(0.614906 0.036363 0)
(0.567571 0.00370753 -7.54545e-22)
(0.808882 0.154096 -1.70225e-22)
(0.78096 0.138876 3.42174e-23)
(0.856657 0.175864 0)
(0.834345 0.16643 -6.24217e-22)
(0.894102 0.187728 -1.31179e-24)
(0.876556 0.182882 0)
(0.923108 0.191579 0)
(0.909904 0.190547 0)
(0.94409 0.188889 0)
(0.935886 0.19114 0)
(0.959279 0.182008 3.18532e-22)
(0.952765 0.186064 8.0649e-23)
(0.970082 0.172026 -3.07692e-22)
(0.964806 0.177301 -3.14205e-22)
(0.975509 0.159969 5.43368e-22)
(0.972507 0.166126 6.88964e-22)
(0.978422 0.146748 0)
(0.977948 0.153448 0)
(0.976645 0.133309 -2.25664e-24)
(0.977926 0.140068 0)
(0.972224 0.119923 0)
(0.974714 0.126575 0)
(0.965945 0.106884 0)
(0.969267 0.113364 0)
(0.958802 0.09406 0)
(0.962409 0.100461 0)
(0.952011 0.0811705 0)
(0.955292 0.0876481 0)
(0.946726 0.0679088 0)
(0.949168 0.0746149 0)
(0.943615 0.0538958 -2.56203e-22)
(0.945248 0.0610795 0)
(0.943275 0.0464603 -8.08889e-23)
(0.935254 0.0360047 6.93537e-23)
(0.938498 0.0299484 -6.87758e-23)
(0.924276 0.0504238 0)
(0.942494 0.031189 -2.62534e-22)
(0.933086 0.040895 -1.57568e-22)
(0.908219 0.0691444 4.58383e-23)
(0.915773 0.0599747 -1.62199e-22)
(0.895055 0.0866251 1.52548e-24)
(0.901167 0.0781062 0)
(0.88485 0.102418 0)
(0.889582 0.0947541 0)
(0.877072 0.116335 0)
(0.880707 0.109617 0)
(0.870708 0.12833 0)
(0.873791 0.122572 2.43372e-28)
(0.864391 0.138455 2.24978e-24)
(0.867648 0.133614 0)
(0.857117 0.146717 0)
(0.860865 0.142861 0)
(0.846784 0.152627 0)
(0.851908 0.149917 0)
(0.831472 0.155584 0)
(0.839994 0.154592 -1.65961e-22)
(0.811652 0.154792 4.35852e-23)
(0.821395 0.155511 -2.20072e-22)
(0.783705 0.148364 0)
(0.798446 0.152377 -1.80171e-22)
(0.750812 0.135911 0)
(0.768251 0.143057 0)
(0.711334 0.115777 0)
(0.731869 0.126851 0)
(0.665986 0.0870182 0)
(0.689319 0.102523 0)
(0.616701 0.0494886 -1.76403e-22)
(0.641975 0.0694976 0)
(0.565398 0.00338068 -7.54653e-22)
(0.591504 0.0277102 -1.97947e-22)
(0.539696 -0.0232717 7.7137e-22)
(0.67716 0.072464 9.34852e-22)
(0.94378 0.038754 1.47679e-22)
(0.952431 0.0214189 -2.32961e-22)
(0.535057 -0.0264297 0)
(0.515391 -0.0512732 0)
(0.638423 0.044283 0)
(0.577371 0.00614506 0)
(0.815493 0.15031 0)
(0.7491 0.109231 1.49284e-22)
(0.783619 0.131205 2.50713e-22)
(0.870259 0.178972 3.29252e-22)
(0.844561 0.166199 -6.41415e-23)
(0.912019 0.195662 1.09704e-24)
(0.892459 0.188576 0)
(0.944533 0.203226 0)
(0.92935 0.200475 0)
(0.969156 0.203316 0)
(0.957813 0.204061 0)
(0.987017 0.197701 0)
(0.979007 0.201044 0)
(0.998976 0.187868 0)
(0.994075 0.193298 0)
(1.00727 0.175452 -1.27572e-24)
(1.00356 0.182007 3.28561e-22)
(1.01064 0.16137 -1.19087e-24)
(1.00889 0.168473 -6.40045e-22)
(1.01146 0.14645 0)
(1.0115 0.153945 0)
(1.00919 0.131559 1.12561e-24)
(1.01067 0.138992 0)
(1.00444 0.117022 0)
(1.00709 0.124216 0)
(0.997694 0.103168 0)
(1.00129 0.110005 0)
(0.989558 0.0899947 0)
(0.993751 0.0965044 0)
(0.980906 0.0773196 0)
(0.985229 0.0836125 0)
(0.97278 0.0648427 0)
(0.976686 0.071077 0)
(0.965778 0.0521375 1.76975e-22)
(0.969141 0.0585401 0)
(0.940305 0.0272428 0)
(0.9455 0.0310017 1.34553e-22)
(0.960931 0.0387901 0)
(0.962996 0.0455832 1.66694e-22)
(0.963991 0.0206193 2.6415e-22)
(0.975794 0.0107635 5.92657e-23)
(0.962907 0.0117995 4.99521e-22)
(0.94638 0.0206843 0)
(0.941124 0.0404411 0)
(0.952377 0.0305633 -4.06038e-22)
(0.919203 0.0601509 1.27832e-24)
(0.929702 0.0504794 1.63204e-22)
(0.899157 0.0789692 -1.52547e-24)
(0.908736 0.0697833 0)
(0.881608 0.0961378 0)
(0.890021 0.0878055 0)
(0.866504 0.111164 0)
(0.873764 0.103941 0)
(0.853289 0.123759 0)
(0.859712 0.117775 -2.43371e-28)
(0.840914 0.133793 -4.44845e-24)
(0.847081 0.129098 0)
(0.828059 0.141091 0)
(0.83462 0.1378 0)
(0.813253 0.145391 8.34022e-23)
(0.820908 0.143607 0)
(0.795247 0.146092 0)
(0.804973 0.1463 -8.30471e-23)
(0.773015 0.142576 1.81789e-22)
(0.784359 0.144792 1.78385e-22)
(0.745062 0.133351 0)
(0.759315 0.138591 0)
(0.712321 0.117902 0)
(0.729337 0.126515 0)
(0.674919 0.0950955 0)
(0.694152 0.107457 0)
(0.634188 0.0644367 0)
(0.654836 0.0807442 0)
(0.592596 0.0262587 3.61081e-24)
(0.613341 0.0462524 0)
(0.553617 -0.0181554 -3.7593e-24)
(0.57263 0.00478573 0)
(0.52148 -0.0675105 -9.57596e-22)
(0.536172 -0.042611 9.57107e-22)
(0.711723 0.0840582 3.36483e-22)
(0.493651 -0.0802496 0)
(0.510419 -0.0930329 -1.99805e-21)
(0.504247 -0.0573885 0)
(0.959976 0.0319298 0)
(0.98781 0.00113932 -5.55452e-23)
(0.598815 0.0139088 1.14117e-21)
(0.672242 0.056094 3.41872e-22)
(0.475584 -0.10931 3.62212e-22)
(0.503783 -0.117961 2.49973e-21)
(0.540051 -0.0256152 0)
(0.984282 0.036736 6.58802e-22)
(0.981216 0.0306588 -3.20647e-22)
(0.972961 0.00268534 -1.12952e-22)
(0.998824 -0.00783348 5.42712e-22)
(0.753486 0.0968064 1.01387e-21)
(0.631194 0.0254974 -6.97346e-22)
(0.67453 0.0397742 -1.54054e-21)
(0.713457 0.0688275 -5.17052e-22)
(0.824446 0.143601 3.04145e-22)
(0.79071 0.121842 -9.0201e-22)
(0.882135 0.177749 -3.85891e-22)
(0.854971 0.162221 -2.49665e-22)
(0.929012 0.200568 -1.26043e-22)
(0.907183 0.190659 -1.04445e-22)
(0.964679 0.212699 -1.09704e-24)
(0.948089 0.207837 0)
(0.991487 0.216127 0)
(0.979087 0.215381 0)
(1.01097 0.2127 0)
(1.00207 0.215148 0)
(1.02445 0.204193 0)
(1.01839 0.208965 0)
(1.03315 0.19212 0)
(1.02934 0.198504 0)
(1.0381 0.177708 0)
(1.03601 0.185155 0)
(1.04005 0.162072 3.33287e-26)
(1.0394 0.170015 0)
(1.03962 0.14586 0)
(1.04011 0.153975 0)
(1.03705 0.129786 1.08948e-24)
(1.03859 0.137785 0)
(1.03253 0.114209 0)
(1.03502 0.12191 0)
(1.02627 0.0994643 0)
(1.02961 0.106721 0)
(1.01851 0.0856705 0)
(1.02255 0.0924485 0)
(1.00975 0.0727683 0)
(1.01421 0.0791192 0)
(1.00071 0.06054 0)
(1.00516 0.0665913 0)
(0.991913 0.0486622 9.40448e-23)
(0.996178 0.0545672 -4.76051e-23)
(0.987753 0.0427369 -3.40889e-22)
(0.945913 0.0187892 -6.41894e-23)
(0.959849 0.0250091 2.82235e-22)
(0.94804 0.0232789 -2.16721e-22)
(0.954656 0.0117687 0)
(0.993691 0.00840324 -1.77962e-22)
(1.01847 -0.0102525 -4.84952e-22)
(1.00638 -0.00120247 4.03268e-22)
(0.968184 0.0281082 0)
(0.981053 0.0181501 0)
(0.941981 0.0482784 -8.13632e-26)
(0.954768 0.0382957 0)
(0.916514 0.0679509 0)
(0.92898 0.0582664 0)
(0.892584 0.08622 -1.53162e-24)
(0.904292 0.0773153 0)
(0.870563 0.102336 0)
(0.881322 0.0945845 0)
(0.850381 0.115745 0)
(0.860266 0.109402 0)
(0.831462 0.12608 2.19927e-24)
(0.84082 0.121313 0)
(0.812869 0.133018 2.34931e-24)
(0.82219 0.129988 0)
(0.79346 0.136289 0)
(0.803332 0.135128 0)
(0.77203 0.13536 0)
(0.78308 0.136391 0)
(0.747803 0.129739 0)
(0.760288 0.133163 0)
(0.72016 0.118465 0)
(0.734285 0.124774 0)
(0.689383 0.100978 -3.30823e-24)
(0.705102 0.110538 0)
(0.656447 0.0767423 0)
(0.673091 0.0897151 0)
(0.623259 0.045769 0)
(0.639722 0.0620607 0)
(0.592751 0.0088809 2.67981e-25)
(0.60745 0.0279785 0)
(0.568552 -0.0321253 -2.98981e-25)
(0.579633 -0.011256 0)
(0.555081 -0.0749156 4.30651e-24)
(0.56011 -0.0534457 0)
(0.557192 -0.117043 -2.23806e-21)
(0.553822 -0.0962909 5.61908e-22)
(0.501314 -0.141557 5.41729e-22)
(0.564445 -0.136648 1.12426e-21)
(0.558835 -0.0181494 -4.62918e-22)
(0.475373 -0.089653 -8.15814e-22)
(0.978981 0.0244867 7.57285e-23)
(1.03008 -0.0189077 3.78629e-22)
(0.585864 -0.00962424 -8.10638e-23)
(0.462028 -0.137278 0)
(0.616051 -0.00353241 3.10645e-21)
(0.575085 -0.155299 1.69149e-21)
(0.503707 -0.163686 2.11439e-21)
(0.720424 0.0424653 -7.53441e-22)
(0.708826 0.0284355 1.38706e-22)
(0.504525 -0.0579855 0)
(0.768867 0.0865643 2.88508e-22)
(0.743008 0.0649632 1.19176e-22)
(0.835591 0.133759 4.03258e-22)
(0.800878 0.109888 -4.38876e-22)
(0.897794 0.173884 -2.93498e-22)
(0.868729 0.155508 -9.60047e-23)
(0.946688 0.201901 1.7751e-22)
(0.923707 0.18931 1.48115e-22)
(0.98508 0.219088 0)
(0.967202 0.211816 1.14321e-23)
(1.01373 0.226619 0)
(1.00053 0.223959 0)
(1.03425 0.226169 1.04822e-24)
(1.02491 0.227273 0)
(1.04823 0.219598 0)
(1.04197 0.223534 0)
(1.05708 0.208614 0)
(1.05321 0.214561 0)
(1.06209 0.194654 0)
(1.06 0.20193 0)
(1.06425 0.17884 1.1605e-24)
(1.06347 0.186922 0)
(1.06432 0.16206 4.00456e-26)
(1.06451 0.170528 0)
(1.06278 0.144947 0)
(1.06373 0.153507 0)
(1.05989 0.128034 -2.14846e-24)
(1.0615 0.136442 0)
(1.05573 0.111674 0)
(1.05797 0.119764 0)
(1.05031 0.096175 0)
(1.05318 0.103802 0)
(1.04366 0.081723 0)
(1.04713 0.0888126 0)
(1.03591 0.0683648 0)
(1.03989 0.0749122 0)
(1.02746 0.056001 0)
(1.03169 0.0620774 0)
(1.01873 0.0444157 -4.67049e-23)
(1.02298 0.0501373 0)
(1.01025 0.0333082 0)
(1.01426 0.0388574 -8.83792e-23)
(1.00262 0.0223208 7.9714e-25)
(1.00624 0.0278194 0)
(0.960447 0.0181297 -2.86219e-22)
(0.99973 0.0167532 1.7931e-23)
(0.977451 0.0182771 1.40414e-22)
(0.952006 0.0106047 9.27818e-23)
(0.951388 0.015619 -6.52441e-23)
(0.983279 -0.00611547 -3.09321e-23)
(0.963137 0.00317183 2.74113e-23)
(1.04158 -0.0270427 0)
(1.01027 -0.0164663 -2.52099e-22)
(1.0529 -0.0217892 -1.06437e-22)
(1.07476 -0.0372007 -1.97094e-22)
(1.06436 -0.0298754 4.43016e-22)
(1.02892 -0.00442758 -5.96317e-23)
(1.04162 -0.0134881 0)
(1.00258 0.0145568 0)
(1.01621 0.00484734 0)
(0.974471 0.0344887 -7.32978e-26)
(0.988652 0.0244679 0)
(0.945752 0.0543914 0)
(0.960109 0.0445049 0)
(0.917333 0.0732763 1.53162e-24)
(0.931448 0.0640198 0)
(0.889911 0.0902068 0)
(0.903467 0.0820352 0)
(0.863843 0.104402 0)
(0.876705 0.0976832 0)
(0.83907 0.115263 0)
(0.851319 0.110277 0)
(0.815163 0.122313 -4.99787e-26)
(0.82705 0.119284 0)
(0.791435 0.125183 0)
(0.803327 0.124292 0)
(0.767151 0.123433 0)
(0.779404 0.124907 0)
(0.741783 0.116649 0)
(0.754627 0.120701 0)
(0.715238 0.104308 0)
(0.72862 0.111169 0)
(0.688027 0.0860741 3.30823e-24)
(0.701638 0.0959288 0)
(0.661521 0.0619119 0)
(0.674568 0.0747133 0)
(0.637931 0.0323174 0)
(0.649194 0.0477298 0)
(0.620201 -0.00149824 -3.87839e-24)
(0.628135 0.0158291 0)
(0.611425 -0.0375675 4.07674e-24)
(0.614515 -0.0193771 0)
(0.614234 -0.0737655 -4.25784e-24)
(0.611292 -0.055781 0)
(0.630193 -0.108562 5.83006e-22)
(0.620326 -0.0914174 -1.13196e-21)
(0.657718 -0.141898 -6.01634e-22)
(0.642559 -0.125395 1.16797e-21)
(0.588078 -0.17314 -1.7598e-23)
(0.672884 -0.15863 1.16454e-21)
(0.517356 -0.0528308 -5.23144e-22)
(0.451075 -0.120524 0)
(0.540918 -0.0445027 -2.70649e-21)
(0.452506 -0.162915 0)
(1.02783 0.0192456 -7.38928e-23)
(1.02447 0.0142292 5.46331e-23)
(1.05194 -0.0344111 -1.90579e-22)
(1.08416 -0.0438461 -2.07802e-22)
(0.546505 -0.0455043 -1.52814e-21)
(0.510213 -0.184239 -2.13505e-21)
(0.649131 -0.00331271 0)
(0.798091 0.0783658 2.71871e-22)
(0.603114 -0.190609 -1.14106e-21)
(0.688515 -0.175953 1.6911e-21)
(0.764851 0.0512717 -4.56721e-22)
(0.470512 -0.0912705 0)
(0.853552 0.123484 0)
(0.8265 0.10184 1.6187e-22)
(0.913844 0.165751 0)
(0.883845 0.145313 0)
(0.966333 0.199279 0)
(0.941688 0.183899 9.94639e-23)
(1.00674 0.22172 0)
(0.987921 0.211845 0)
(1.03687 0.23383 0)
(1.023 0.228983 0)
(1.05813 0.23708 0)
(1.04852 0.236461 0)
(1.07211 0.233173 -1.04822e-24)
(1.06592 0.235904 0)
(1.0805 0.223929 0)
(1.07691 0.22911 0)
(1.08478 0.210964 0)
(1.08307 0.217823 0)
(1.08619 0.195585 0)
(1.08578 0.203508 0)
(1.08566 0.178783 -4.95256e-26)
(1.08612 0.187311 0)
(1.08387 0.161294 4.55024e-26)
(1.0849 0.170086 0)
(1.08122 0.143655 0)
(1.08263 0.152466 0)
(1.07793 0.126271 3.68389e-26)
(1.07965 0.13491 0)
(1.07403 0.109448 0)
(1.07606 0.117773 0)
(1.06946 0.093447 0)
(1.07184 0.101331 0)
(1.0641 0.0784698 0)
(1.06689 0.085822 0)
(1.05789 0.064632 0)
(1.0611 0.0714077 0)
(1.05089 0.051943 0)
(1.05445 0.0581543 0)
(1.04341 0.0403084 0)
(1.04712 0.0460152 0)
(1.03555 0.0295105 8.49489e-23)
(1.03939 0.0348364 8.9725e-23)
(1.03161 0.0243214 -1.58228e-22)
(0.961831 0.0113015 -1.31244e-22)
(0.997702 0.0112263 0)
(0.976733 0.0121686 -1.42064e-22)
(0.958482 0.00275113 0)
(0.955287 0.0082351 1.3396e-22)
(0.992933 -0.014153 1.64122e-22)
(0.971532 -0.00489489 -5.75609e-23)
(1.02059 -0.0242763 -3.13142e-22)
(1.08834 -0.0326721 4.93167e-23)
(1.107 -0.0461923 1.75141e-22)
(1.09894 -0.0399356 0)
(1.0666 -0.0168804 -1.08054e-22)
(1.07842 -0.0251629 1.08414e-22)
(1.04146 0.00086158 0)
(1.05468 -0.00826547 0)
(1.01368 0.0199355 -6.18456e-26)
(1.02792 0.0102748 0)
(0.984082 0.0394494 0)
(0.999069 0.0296992 0)
(0.953585 0.0583782 0)
(0.968898 0.0490493 0)
(0.923041 0.075695 0)
(0.938278 0.0672961 0)
(0.893122 0.0904626 0)
(0.907979 0.0834459 0)
(0.864216 0.101898 1.99963e-24)
(0.878537 0.096635 0)
(0.836419 0.109379 -2.29933e-24)
(0.850191 0.10616 0)
(0.809589 0.112432 0)
(0.822903 0.111481 0)
(0.78353 0.110666 0)
(0.796478 0.112165 0)
(0.758171 0.103776 0)
(0.77076 0.107877 0)
(0.733836 0.0915439 0)
(0.745839 0.0983233 0)
(0.711381 0.0739602 0)
(0.722294 0.0833994 0)
(0.692347 0.0513873 0)
(0.701321 0.0632517 0)
(0.678851 0.0246729 -3.97395e-24)
(0.684766 0.0384692 0)
(0.673222 -0.00483273 4.207e-24)
(0.674933 0.0101661 0)
(0.677256 -0.0354927 -4.41151e-24)
(0.67396 -0.020108 0)
(0.691432 -0.0660801 0)
(0.683153 -0.0508413 0)
(0.713844 -0.0963595 0)
(0.701828 -0.0812262 0)
(0.741113 -0.12768 4.67559e-24)
(0.726853 -0.111754 5.94438e-22)
(0.76788 -0.162498 -2.90538e-21)
(0.754654 -0.144562 0)
(0.704751 -0.194022 -1.71887e-21)
(0.78045 -0.181914 8.69708e-23)
(0.47748 -0.0879487 1.29029e-21)
(0.43 -0.149909 0)
(1.02143 0.00921266 -2.73845e-22)
(1.11519 -0.051997 -3.45043e-22)
(0.485283 -0.0876798 -5.05276e-22)
(0.572734 -0.0435678 -2.58891e-22)
(0.502801 -0.0837089 5.71976e-22)
(0.447827 -0.186925 0)
(0.518288 -0.203254 5.17836e-22)
(0.702516 0.0144043 6.23021e-22)
(0.63896 -0.0265904 -7.40091e-23)
(0.554327 -0.064299 -2.70583e-22)
(0.618734 -0.20799 -1.66384e-21)
(0.718452 -0.213354 1.06211e-21)
(0.792565 -0.202755 1.17954e-21)
(0.438871 -0.124425 0)
(0.877827 0.110509 -2.60057e-23)
(0.791749 0.0528365 2.79016e-22)
(0.839556 0.0828074 -2.25079e-22)
(0.935571 0.155474 -9.99677e-23)
(0.908719 0.134543 1.00538e-22)
(0.987818 0.192517 6.36883e-26)
(0.962519 0.175015 0)
(1.0304 0.220013 0)
(1.01055 0.207544 0)
(1.06176 0.237119 0)
(1.04742 0.229851 0)
(1.08338 0.244573 0)
(1.07368 0.241959 0)
(1.09702 0.243985 8.13069e-25)
(1.09109 0.245173 0)
(1.10449 0.237136 0)
(1.10142 0.241231 0)
(1.10749 0.225755 0)
(1.10645 0.231911 0)
(1.10748 0.211324 0)
(1.10779 0.218841 0)
(1.10557 0.194996 0)
(1.10671 0.203338 0)
(1.10258 0.17762 -1.11097e-24)
(1.10418 0.186397 0)
(1.09907 0.159803 4.94487e-26)
(1.10087 0.168736 0)
(1.09537 0.141975 0)
(1.09723 0.150869 0)
(1.09163 0.124449 2.00281e-24)
(1.0935 0.133157 0)
(1.08786 0.107468 0)
(1.08975 0.115877 0)
(1.08397 0.0912418 0)
(1.08594 0.0992484 0)
(1.0798 0.0759578 0)
(1.08194 0.0834726 0)
(1.07516 0.0617608 0)
(1.07755 0.0687182 0)
(1.06994 0.0487323 0)
(1.07262 0.0551021 0)
(1.06417 0.0368687 1.41426e-24)
(1.06712 0.0426638 0)
(1.05801 0.0260771 -8.53166e-23)
(1.06118 0.0313483 0)
(1.05144 0.0161031 7.84986e-23)
(1.05479 0.0209969 0)
(1.04521 0.00669094 6.9724e-23)
(1.04829 0.0113417 -7.38338e-23)
(0.995879 0.00584036 1.35431e-22)
(1.04249 0.00216796 0)
(1.01893 0.00425323 2.05819e-22)
(0.963913 0.00471744 0)
(0.976637 0.00615656 0)
(0.965202 -0.00473593 0)
(0.959799 0.00111945 0)
(1.00256 -0.0217073 0)
(0.98002 -0.0125504 0)
(1.0617 -0.0410715 1.94251e-22)
(1.03071 -0.0314917 4.98298e-23)
(1.12237 -0.0570324 4.41126e-23)
(1.09289 -0.0497396 3.65429e-22)
(1.13718 -0.0536604 2.30378e-22)
(1.14866 -0.0626912 4.25295e-23)
(1.14316 -0.0584834 -8.80616e-23)
(1.12232 -0.0420894 4.70744e-23)
(1.13028 -0.0481944 -2.85995e-22)
(1.10381 -0.028078 -2.81076e-26)
(1.11369 -0.0353794 0)
(1.08151 -0.0119337 0)
(1.09314 -0.020237 0)
(1.05599 0.00582019 -4.87021e-26)
(1.06915 -0.00320876 0)
(1.02779 0.0243921 0)
(1.04219 0.0150627 0)
(0.997706 0.0428151 0)
(1.01294 0.0336852 0)
(0.966607 0.0600491 0)
(0.982237 0.051643 0)
(0.935346 0.0750795 0)
(0.950957 0.0678955 0)
(0.904644 0.0870068 -3.92161e-24)
(0.919896 0.0814769 0)
(0.875044 0.0950966 0)
(0.889689 0.0915649 0)
(0.846925 0.0987985 0)
(0.860788 0.0975189 0)
(0.820612 0.0977377 0)
(0.83353 0.098874 0)
(0.796512 0.0917121 0)
(0.808259 0.0953472 0)
(0.775309 0.0807193 -3.22712e-24)
(0.785501 0.0868211 0)
(0.758055 0.0650216 0)
(0.766115 0.0734228 0)
(0.746179 0.0452268 0)
(0.751356 0.0555794 0)
(0.741256 0.0222905 3.97395e-24)
(0.742767 0.0340771 0)
(0.744498 -0.00263024 2.94722e-26)
(0.741831 0.0100045 0)
(0.756023 -0.0286297 8.83708e-24)
(0.749281 -0.0155372 0)
(0.774419 -0.055473 0)
(0.764541 -0.0419177 0)
(0.796531 -0.0839887 0)
(0.785262 -0.0694364 0)
(0.818509 -0.115651 -8.3197e-26)
(0.80777 -0.0993336 0)
(0.837353 -0.15226 0)
(0.828396 -0.133282 0)
(0.854427 -0.194508 -1.57068e-21)
(0.846023 -0.172713 0)
(0.801725 -0.224909 1.45346e-22)
(0.861881 -0.217637 2.3783e-21)
(0.437311 -0.125612 0)
(0.739017 0.01952 -9.29301e-22)
(0.445799 -0.122322 3.41606e-22)
(1.06671 0.0044625 -6.96032e-23)
(1.06466 0.000223321 0)
(1.12865 -0.0613475 4.19599e-23)
(1.15284 -0.0661917 -8.5045e-23)
(0.413102 -0.17795 0)
(0.446185 -0.208984 0)
(0.464284 -0.110271 0)
(0.529217 -0.221278 -5.09999e-22)
(0.633944 -0.225761 -1.05114e-21)
(0.73118 -0.233803 0)
(0.80963 -0.248336 2.44086e-21)
(0.868041 -0.241755 -1.90952e-21)
(0.410529 -0.156905 0)
(0.890339 0.0902231 1.3469e-25)
(0.687007 -0.0138718 -5.06902e-22)
(0.801186 0.0321295 2.1099e-21)
(0.846039 0.061406 -5.17459e-22)
(0.961511 0.140448 1.52484e-22)
(0.927458 0.115695 2.23128e-22)
(1.01438 0.182228 0)
(0.990162 0.162776 0)
(1.05682 0.213985 -6.36862e-26)
(1.0368 0.199321 0)
(1.0889 0.235874 0)
(1.07422 0.226172 0)
(1.11057 0.24794 0)
(1.10096 0.243095 0)
(1.12352 0.251212 0)
(1.11801 0.250574 0)
(1.12973 0.247382 -8.13068e-25)
(1.12735 0.250072 0)
(1.13106 0.238202 0)
(1.1309 0.243355 0)
(1.12917 0.225265 0)
(1.13043 0.232113 0)
(1.12534 0.209886 0)
(1.12743 0.217811 0)
(1.12053 0.193055 0)
(1.12301 0.201601 0)
(1.11541 0.175481 1.0028e-24)
(1.11798 0.184326 0)
(1.11041 0.157659 5.19148e-26)
(1.11288 0.166577 0)
(1.10576 0.139927 0)
(1.10803 0.148765 0)
(1.10157 0.122528 -4.45617e-26)
(1.10361 0.131174 0)
(1.09782 0.105647 0)
(1.09965 0.114013 0)
(1.09442 0.0894494 0)
(1.09609 0.0974532 0)
(1.09118 0.0740939 0)
(1.09279 0.0816574 0)
(1.08791 0.0597269 0)
(1.08956 0.0667794 0)
(1.08439 0.046465 0)
(1.08619 0.0529536 0)
(1.08053 0.0343691 -2.78599e-24)
(1.08251 0.0402711 0)
(1.07635 0.0234303 -1.28486e-24)
(1.07844 0.0287583 0)
(1.07175 0.0135263 1.56846e-22)
(1.07405 0.0183581 -1.57769e-22)
(1.06922 0.00889439 1.42422e-22)
(0.994914 0.000585983 3.29085e-23)
(1.04051 -0.00217379 8.18643e-24)
(1.01691 -0.000458023 -1.00707e-22)
(0.966695 -0.00165132 0)
(0.977312 0.00035809 0)
(0.972141 -0.0118793 -8.69335e-28)
(0.964736 -0.00572351 0)
(1.01179 -0.0286221 0)
(0.988442 -0.0197228 0)
(1.07038 -0.0468715 9.42436e-23)
(1.03991 -0.0378964 -9.92735e-23)
(1.10064 -0.0548291 -5.00338e-24)
(1.16302 -0.0592041 -4.82963e-25)
(1.17037 -0.0665462 -8.63011e-23)
(1.16707 -0.0631894 8.42654e-25)
(1.15217 -0.0494465 -4.80415e-23)
(1.15798 -0.0546129 4.8122e-23)
(1.13769 -0.0373178 -8.34505e-25)
(1.14548 -0.0436816 0)
(1.11953 -0.0229845 -8.86581e-25)
(1.1291 -0.0304086 0)
(1.09779 -0.00686716 -3.51023e-26)
(1.1091 -0.0151104 0)
(1.07285 0.0103631 0)
(1.0857 0.00165981 0)
(1.04534 0.0278405 0)
(1.05938 0.0191305 0)
(1.01606 0.044572 0)
(1.03088 0.0363614 0)
(0.985922 0.059541 0)
(1.00105 0.0523352 0)
(0.955836 0.0718026 1.92199e-24)
(0.970826 0.0660606 0)
(0.926666 0.0805598 2.09104e-24)
(0.941096 0.076657 0)
(0.899192 0.0852162 0)
(0.912681 0.0834247 0)
(0.874153 0.0854004 0)
(0.886333 0.0858762 0)
(0.852322 0.0809773 0)
(0.862796 0.0837589 0)
(0.83459 0.0720682 3.22711e-24)
(0.842895 0.0770607 0)
(0.821974 0.0590648 -3.45685e-24)
(0.827588 0.0660384 0)
(0.815502 0.0426149 0)
(0.817926 0.0512186 0)
(0.815905 0.0235102 0)
(0.814836 0.0333425 0)
(0.823169 0.00244199 -5.53251e-26)
(0.818736 0.0131898 0)
(0.836077 -0.0204237 -8.77427e-24)
(0.829054 -0.00875273 0)
(0.852364 -0.0455842 0)
(0.843991 -0.0326574 0)
(0.869131 -0.0741589 0)
(0.860873 -0.0593659 0)
(0.884013 -0.107275 -1.69224e-25)
(0.876912 -0.0900954 0)
(0.89624 -0.145551 0)
(0.890449 -0.125785 0)
(0.907003 -0.18862 9.9878e-22)
(0.901499 -0.166524 0)
(0.917665 -0.235953 9.01902e-22)
(0.912009 -0.211911 -1.86677e-21)
(0.501932 -0.0970024 -5.19613e-22)
(0.590437 -0.0574671 4.10048e-22)
(0.874075 -0.26673 -7.85751e-22)
(0.922909 -0.260619 7.85396e-22)
(0.40394 -0.157779 0)
(1.06282 -0.00381671 1.18644e-22)
(1.1729 -0.0693451 -3.51208e-22)
(0.7557 0.00418687 -4.97299e-22)