/*--------------------------------*- C++ -*----------------------------------*\
  =========                 |
  \\      /  F ield         | OpenFOAM: The Open Source CFD Toolbox
   \\    /   O peration     | Website:  https://openfoam.org
    \\  /    A nd           | Version:  10
     \\/     M anipulation  |
\*---------------------------------------------------------------------------*/
FoamFile
{
    format      ascii;
    class       volScalarField;
    location    "1.5";
    object      p;
}
// * * * * * * * * * * * * * * * * * * * * * * * * * * * * * * * * * * * * * //

dimensions      [0 2 -2 0 0 0 0];

internalField   nonuniform List<scalar> 
28942
(
0.00209757
0.00466215
0.0129149
0.0220526
0.0222378
0.000742421
0.00145115
0.000353114
0.013404
0.0134325
0.00684871
0.00659734
0.00570209
0.00567412
0.000731731
0.000875068
0.0215114
0.0218377
0.0175528
0.0193542
0.0196074
0.0196296
0.000822441
0.00195223
0.00293883
0.00272016
0.0272912
0.027169
0.0150665
0.0152196
5.45273e-05
-5.17051e-06
0.00274933
0.0012555
0.0193401
0.0206625
0.0235996
0.0259105
0.000379695
0.0287157
0.0218839
0.0243067
0.0096154
0.00955331
0.00963738
0.000855783
0.000972999
0.000874072
0.000868083
0.00141394
0.00219482
0.0129034
0.0130172
0.0136004
0.0137046
0.00711656
0.00866425
0.00472319
0.0051116
0.00467817
0.00462474
0.00470266
0.00431898
0.0100267
0.00672016
0.0108105
0.0125074
0.0210988
0.0205468
0.00571321
0.00438078
0.00448268
0.0208872
0.0205553
0.0212868
0.00871886
0.00937554
0.00967138
0.0137852
0.0143983
0.0126362
0.0106193
-0.00155108
-0.00399181
0.0118884
0.0147458
0.016141
0.0172077
0.0151618
0.0157725
0.0183083
0.0170388
0.00792324
0.00734544
0.00743296
0.00718659
0.00746728
0.0172955
0.0189492
-0.00426762
0.0244334
0.023483
0.0186543
0.0218618
0.0111793
0.0111278
0.0110341
0.0164253
0.0166794
0.0166141
0.00455415
0.00447181
0.00477407
0.00583613
0.00551961
0.0293734
0.0270391
0.0263999
0.0283201
0.0125953
0.0162659
0.0145568
0.0169816
0.0167763
0.0290591
0.0293619
0.0277506
0.0181483
0.0193235
0.00092192
0.000911699
0.000874985
0.0234772
0.0239501
0.0206093
0.019902
0.0256696
0.0186554
0.0202878
0.0214485
0.00638086
0.00485277
0.0198272
0.00970818
0.00966307
0.00921296
0.00942659
0.00967373
0.00488557
0.0186112
0.0176852
0.0143005
0.000622547
0.000461772
0.000651636
0.000610967
0.0196992
0.0190725
0.00524903
0.00561546
0.00644321
0.000591201
0.00319774
0.000641587
0.00465165
0.00736542
0.0199917
0.0202301
0.0212232
0.0207158
0.0192463
0.0133326
0.0132121
0.0138225
0.0136893
0.0159243
0.0156777
0.0160618
0.0162898
0.0162534
0.016465
0.0167275
0.0174115
0.0170412
0.016632
0.017033
0.017827
0.0188269
0.0191212
0.00935395
0.00945557
0.00572315
0.000914214
0.000876409
0.00348224
0.00466337
0.00104535
0.000823763
0.000826078
0.000915499
0.00779191
0.00778292
0.00774639
0.00464618
0.00372903
0.0051268
0.00283489
0.000989183
0.0039231
0.00227185
-0.000643494
0.0029549
0.0296409
0.0305321
0.0301965
0.0112397
0.0113012
0.0112005
0.0219756
0.0215477
0.0216654
0.0063365
0.00626743
0.006405
0.006198
0.00612857
0.00605917
0.00606142
0.0059898
0.00599324
0.00612995
0.0061995
0.00626864
0.00633813
0.00640623
0.00592098
0.00592455
0.0064737
0.0064753
0.00654322
0.00585232
0.00585477
0.00654452
0.00578297
0.00571348
0.0057852
0.00571563
0.00661041
0.00661239
0.00564396
0.00564593
0.00667803
0.00668096
0.00557435
0.00557619
0.00674603
0.00674929
0.0055047
0.00550633
0.00681401
0.00681745
0.00543496
0.00543642
0.0068821
0.00688526
0.00536512
0.00536642
0.00695036
0.0069526
0.00529517
0.00529632
0.00701774
0.00701991
0.00522502
0.00522603
0.00708624
0.00708781
0.00515466
0.0051551
0.00715385
0.00715528
0.00508456
0.00508299
0.00722305
0.00722373
0.00501276
0.00501098
0.00729183
0.00729225
0.0049381
0.00493813
0.00722184
0.00729083
0.00736126
0.00736088
0.00708477
0.00715366
0.00694883
0.00701755
0.00681312
0.00688099
0.00667684
0.00674511
0.00653948
0.00660839
0.00640398
0.00647242
0.00626655
0.00633464
0.00612862
0.00619794
0.00598927
0.00605928
0.00585057
0.00592002
0.00571154
0.00578112
0.00557234
0.00564202
0.00543292
0.00550271
0.00529332
0.0053632
0.00515357
0.00522353
0.00501121
0.00508334
0.00493836
0.00486416
0.00486426
0.005084
0.00493957
0.00501224
0.00522653
0.00515566
0.00536686
0.00529689
0.00550654
0.00543673
0.00564596
0.00557629
0.0057851
0.00571558
0.00592406
0.00585457
0.00606271
0.00599395
0.00620032
0.00613186
0.00633841
0.00626929
0.00647608
0.00640759
0.00661305
0.00654397
0.00674969
0.00668145
0.00688587
0.00681782
0.00702144
0.0069537
0.00715665
0.00708891
0.00729151
0.00722388
0.00735993
0.0073598
0.00486462
0.00486593
0.00743036
0.0074286
0.00742841
0.00743036
0.00722126
0.00735745
0.00728935
0.00708452
0.007153
0.00694903
0.00701675
0.00681345
0.00688131
0.00667724
0.00674542
0.00654054
0.00660896
0.00640309
0.00647206
0.00626568
0.00633494
0.00612837
0.00619647
0.00598939
0.00605898
0.00585094
0.0059202
0.00571207
0.00578153
0.00557291
0.0056425
0.00543348
0.00550319
0.00529379
0.00536363
0.00515384
0.00522382
0.00501176
0.00508328
0.00478985
0.00479087
0.00486656
0.00493979
0.00494217
0.0048698
0.00479306
0.00479025
0.00508581
0.00501457
0.00522709
0.00515634
0.005367
0.0052971
0.00550669
0.00543688
0.00564613
0.00557645
0.0057853
0.00571575
0.00592419
0.00585477
0.00606279
0.00599359
0.00620125
0.00613203
0.00633866
0.00626992
0.00647626
0.00640796
0.00661341
0.00654489
0.00674996
0.00668174
0.00688605
0.00681807
0.00702154
0.00695388
0.00715638
0.00708903
0.00729083
0.00722358
0.00742634
0.00735861
0.00742546
0.00749704
0.0074947
0.00749871
0.00479395
0.00479582
0.00749648
0.00749293
0.00756539
0.00756298
0.00749919
0.00486935
0.00479715
0.0047195
0.00472192
0.00748967
0.00756064
0.00762349
0.0075579
0.00735535
0.00742263
0.00722043
0.0072879
0.00708485
0.00715261
0.0069495
0.00701708
0.00681385
0.00688175
0.00667761
0.00674579
0.00654086
0.0066093
0.0064036
0.00647229
0.00626597
0.0063349
0.00612804
0.00619699
0.00598962
0.00605887
0.00585109
0.0059204
0.00571217
0.00578167
0.00557297
0.0056426
0.00543352
0.00550328
0.00529383
0.00536371
0.00515391
0.0052239
0.00501271
0.00508342
0.00494129
0.00471698
0.00472029
0.0047181
0.00471751
0.00494433
0.00479922
0.00487221
0.00508702
0.00501594
0.00522733
0.00515703
0.00536724
0.00529731
0.00550694
0.00543712
0.00564639
0.0055767
0.00578558
0.00571602
0.00592449
0.00585508
0.00606307
0.00599383
0.00620137
0.00613225
0.0063392
0.00627034
0.00647671
0.00640807
0.00661377
0.00654531
0.00675037
0.00668213
0.00688646
0.00681848
0.00702196
0.00695429
0.0071568
0.00708947
0.00729097
0.00722396
0.00742491
0.00735795
0.00756039
0.00749251
0.0076308
0.00762777
0.00756401
0.00756719
0.00472395
0.00472572
0.00762904
0.00763332
0.00770572
0.00769493
0.00769772
0.00773199
0.00779606
0.00756617
0.00761738
0.00767534
0.00748854
0.00755487
0.00735444
0.00742155
0.00721994
0.00728712
0.00708513
0.00715273
0.00695005
0.00701765
0.00681433
0.00688227
0.00667803
0.00674625
0.00654123
0.00660969
0.006404
0.00647267
0.00626634
0.00633522
0.0061283
0.00619736
0.00598992
0.00605915
0.00585129
0.00592064
0.00571234
0.00578185
0.00557312
0.00564276
0.00543365
0.00550342
0.00529394
0.00536383
0.00515402
0.00522401
0.00501345
0.00508373
0.00487156
0.00494282
0.00472694
0.00479945
0.0046476
0.0046534
0.00465017
0.00464492
0.00464557
0.00464643
0.00464518
0.00465244
0.00464901
0.00480221
0.00465755
0.00472976
0.00494597
0.0048744
0.00508747
0.00501689
0.0052276
0.00515754
0.00536753
0.00529759
0.00550724
0.00543742
0.00564671
0.00557701
0.00578591
0.00571635
0.00592485
0.00585542
0.00606345
0.0059942
0.00620173
0.00613264
0.00633964
0.00627074
0.00647717
0.00640846
0.00661426
0.00654577
0.0067509
0.00668265
0.00688704
0.00681904
0.00702259
0.00695489
0.00715751
0.00709014
0.00729169
0.0072247
0.00742515
0.00735851
0.00755853
0.00749174
0.00769248
0.00762561
0.00776201
0.00775943
0.00763115
0.007634
0.00769611
0.00769993
0.00472948
0.00465686
0.00457945
0.00458254
0.00777053
0.00776433
0.00783592
0.0077407
0.00782872
0.00782639
0.00780661
0.00763269
0.0076186
0.00768032
0.00748886
0.00755482
0.00735458
0.00742188
0.00722054
0.0072876
0.00708594
0.00715334
0.00695077
0.00701844
0.00681495
0.00688293
0.00667859
0.00674684
0.00654174
0.00661022
0.00640445
0.00647315
0.00626674
0.00633565
0.00612868
0.00619775
0.00599027
0.00605952
0.00585158
0.00592096
0.0057126
0.00578212
0.00557335
0.00564301
0.00543385
0.00550363
0.00529413
0.00536402
0.0051542
0.00522419
0.00501405
0.00508414
0.00487299
0.00494346
0.00480131
0.00457528
0.00458009
0.00457713
0.00457345
0.00457443
0.00457475
0.00457412
0.00457642
0.00480465
0.00465975
0.00473302
0.00494695
0.0048761
0.00508779
0.00501759
0.00522792
0.00515788
0.00536787
0.00529793
0.00550759
0.00543776
0.00564708
0.00557737
0.0057863
0.00571673
0.00592526
0.00585582
0.0060639
0.00599462
0.00620221
0.0061331
0.00634016
0.00627123
0.00647773
0.006409
0.00661487
0.00654635
0.00675156
0.00668328
0.00688775
0.00681972
0.00702337
0.00695564
0.00715836
0.00709095
0.00729266
0.00722561
0.00742616
0.00735952
0.00755892
0.00749262
0.00769136
0.00762493
0.00782431
0.00775786
0.00789341
0.00789119
0.00769656
0.00769982
0.00458291
0.00458647
0.00776444
0.00784344
0.00783825
0.00776533
0.0078302
0.00786976
0.00792605
0.0079091
0.00789495
0.00795968
0.00795818
0.00769847
0.00774966
0.00788204
0.00781701
0.00762121
0.00768522
0.00748969
0.0075563
0.00735583
0.00742281
0.00722172
0.00728886
0.00708697
0.00715443
0.00695163
0.00701938
0.00681572
0.00688375
0.00667928
0.00674756
0.00654235
0.00661087
0.00640499
0.00647373
0.00626724
0.00633617
0.00612912
0.00619822
0.00599067
0.00605994
0.00585194
0.00592134
0.00571292
0.00578246
0.00557364
0.00564331
0.00543411
0.0055039
0.00529436
0.00536427
0.00515441
0.00522441
0.00501427
0.00508436
0.00487361
0.00494408
0.00473109
0.00480265
0.00458524
0.00465901
0.00450703
0.00451116
0.00450858
0.00450428
0.0045053
0.00450342
0.00450352
0.00450373
0.00450368
0.00450692
0.00450515
0.00451355
0.00450975
0.00466252
0.00451735
0.00459017
0.00480628
0.00473494
0.00494777
0.00487717
0.00508813
0.005018
0.00522829
0.00515824
0.00536826
0.00529831
0.005508
0.00543816
0.00564751
0.00557779
0.00578676
0.00571717
0.00592574
0.00585629
0.00606442
0.00599512
0.00620277
0.00613364
0.00634077
0.00627182
0.00647839
0.00640963
0.00661559
0.00654704
0.00675234
0.00668403
0.00688859
0.00682053
0.00702429
0.00695652
0.00715938
0.00709191
0.00729379
0.00722667
0.00742746
0.00736072
0.00756031
0.007494
0.00769231
0.00762637
0.00782373
0.0077581
0.00795616
0.00788987
0.0080242
0.00802254
0.00776327
0.00794106
0.00783217
0.00458821
0.00451549
0.00444033
0.00444344
0.00776497
0.00783028
0.00790106
0.00789556
0.00796098
0.00802577
0.00808977
0.00808822
0.00776405
0.00788647
0.00800311
0.00801206
0.00794938
0.00775472
0.00782155
0.0076235
0.00768878
0.00749116
0.00755787
0.00735735
0.0074243
0.00722303
0.00729027
0.00708812
0.00715565
0.00695264
0.00702045
0.00681661
0.00688469
0.00668007
0.00674841
0.00654307
0.00661163
0.00640564
0.00647441
0.00626782
0.00633678
0.00612965
0.00619878
0.00599115
0.00606044
0.00585236
0.00592179
0.0057133
0.00578286
0.00557398
0.00564367
0.00543442
0.00550423
0.00529464
0.00536456
0.00515466
0.00522467
0.00501449
0.00508459
0.00487412
0.00494435
0.00473246
0.00480341
0.00466058
0.00443476
0.0044383
0.00443619
0.00443347
0.00443418
0.00443349
0.00443339
0.00443362
0.00443365
0.00443531
0.00443444
0.00443744
0.00466527
0.00452041
0.00459311
0.0048072
0.00473642
0.00494817
0.00487787
0.00508853
0.00501837
0.00522871
0.00515864
0.00536869
0.00529873
0.00550846
0.00543861
0.00564799
0.00557826
0.00578728
0.00571767
0.00592629
0.00585682
0.00606501
0.00599569
0.00620341
0.00613426
0.00634146
0.00627249
0.00647914
0.00641036
0.00661641
0.00654783
0.00675324
0.00668488
0.00688957
0.00682147
0.00702536
0.00695754
0.00716055
0.00709304
0.00729509
0.00722791
0.00742891
0.00736209
0.00756196
0.00749554
0.00769411
0.00762816
0.00782531
0.00775984
0.00795612
0.0078906
0.00808736
0.00802183
0.00797576
0.00798968
0.00815382
0.00815248
0.00782977
0.00444297
0.00444659
0.00807356
0.00782991
0.00806727
0.00789717
0.00789503
0.0079613
0.00796017
0.00802537
0.00809022
0.00815454
0.00821866
0.00821774
0.00782961
0.00801808
0.00813529
0.00814326
0.00808111
0.00788902
0.00795394
0.00775774
0.00782349
0.00762556
0.00769156
0.00749282
0.00755951
0.00735893
0.00742594
0.00722445
0.00729176
0.00708939
0.00715699
0.00695377
0.00702165
0.00681763
0.00688576
0.00668098
0.00674937
0.00654389
0.00661249
0.00640638
0.00647518
0.00626848
0.00633748
0.00613025
0.00619941
0.00599169
0.00606101
0.00585285
0.00592231
0.00571373
0.00578333
0.00557437
0.00564409
0.00543478
0.0055046
0.00529496
0.0053649
0.00515495
0.00522498
0.00501475
0.00508487
0.0048744
0.00494459
0.00473346
0.00480411
0.00459079
0.00466223
0.00444569
0.00451914
0.00436668
0.00437192
0.00436885
0.00436395
0.0043649
0.00436334
0.00436339
0.00436344
0.00436337
0.0043636
0.00436355
0.00436458
0.00436378
0.00436741
0.00436567
0.0043733
0.00436966
0.00452304
0.00437707
0.00445044
0.00466671
0.00459519
0.00480802
0.00473767
0.00494858
0.00487834
0.00508897
0.0050188
0.00522917
0.00515909
0.00536918
0.0052992
0.00550897
0.0054391
0.00564854
0.00557879
0.00578786
0.00571823
0.00592691
0.00585742
0.00606568
0.00599634
0.00620413
0.00613495
0.00634225
0.00627324
0.00647999
0.00641117
0.00661734
0.00654872
0.00675425
0.00668585
0.00689067
0.00682253
0.00702657
0.00695869
0.00716188
0.00709431
0.00729656
0.00722931
0.00743054
0.00736364
0.00756376
0.00749725
0.00769615
0.00763006
0.00782758
0.007762
0.00795802
0.00789291
0.00808776
0.00802288
0.00821711
0.00815251
0.0080444
0.00805823
0.00828281
0.00828237
0.0078953
0.0078946
0.00820501
0.00819727
0.00812963
0.00796004
0.00795944
0.00444836
0.0043761
0.00430031
0.00430379
0.00802261
0.00802431
0.00808921
0.00815415
0.00821878
0.00828301
0.00826596
0.00827371
0.00833498
0.00834724
0.00834704
0.00832719
0.00789442
0.00815093
0.00821358
0.00802124
0.00808589
0.00789157
0.007957
0.00775987
0.00782562
0.00762775
0.00769391
0.00749464
0.00756136
0.00736064
0.00742772
0.00722601
0.0072934
0.0070908
0.00715848
0.00695504
0.00702298
0.00681876
0.00688696
0.006682
0.00675044
0.00654481
0.00661346
0.0064072
0.00647606
0.00626923
0.00633826
0.00613092
0.00620012
0.0059923
0.00606165
0.0058534
0.00592289
0.00571423
0.00578385
0.00557482
0.00564456
0.00543518
0.00550503
0.00529533
0.00536529
0.00515529
0.00522534
0.00501506
0.0050852
0.00487467
0.00494488
0.00473411
0.00480443
0.00459239
0.00466337
0.00452077
0.00429458
0.00429892
0.00429619
0.00429319
0.00429407
0.00429322
0.00429319
0.00429332
0.00429326
0.00429353
0.00429342
0.00429389
0.00429365
0.00429603
0.00429493
0.00429779
0.00452532
0.0043807
0.00445328
0.00466768
0.00459655
0.00480847
0.00473814
0.00494903
0.00487877
0.00508944
0.00501926
0.00522967
0.00515958
0.00536971
0.00529972
0.00550953
0.00543965
0.00564913
0.00557937
0.0057885
0.00571885
0.0059276
0.00585808
0.00606642
0.00599705
0.00620493
0.00613572
0.00634312
0.00627407
0.00648094
0.00641208
0.00661837
0.00654971
0.00675537
0.00668693
0.00689191
0.0068237
0.00702792
0.00695999
0.00716337
0.00709572
0.0072982
0.00723087
0.00743235
0.00736537
0.00756576
0.00749915
0.00769835
0.00763216
0.00783005
0.00776432
0.0079607
0.00789551
0.00809029
0.00802562
0.00821879
0.0081547
0.00834729
0.00828266
0.008259
0.00841182
0.00841167
0.00847596
0.00847657
0.00841197
0.00810783
0.00812853
0.00795972
0.00795901
0.00430314
0.00430677
0.00819362
0.00802358
0.00802353
0.0080854
0.0080881
0.00815275
0.00821743
0.00828229
0.00834728
0.00839554
0.00840425
0.0084652
0.00847771
0.00854181
0.00854101
0.00845599
0.00838762
0.00832062
0.00847479
0.00853986
0.00795888
0.00828166
0.00834313
0.00815476
0.00821805
0.00802451
0.00808982
0.007894
0.00795946
0.00776238
0.00782826
0.00762999
0.0076963
0.00749665
0.00756344
0.00736251
0.00742967
0.00722772
0.00729519
0.00709234
0.0071601
0.00695643
0.00702445
0.00682001
0.00688828
0.00668313
0.00675163
0.00654582
0.00661453
0.00640812
0.00647702
0.00627006
0.00633913
0.00613167
0.00620091
0.00599298
0.00606236
0.00585401
0.00592353
0.00571478
0.00578443
0.00557532
0.00564508
0.00543564
0.00550551
0.00529575
0.00536572
0.00515566
0.00522573
0.00501541
0.00508556
0.00487498
0.00494521
0.00473442
0.00480472
0.00459333
0.00466404
0.00445098
0.00452229
0.00430615
0.00437874
0.00422699
0.00423289
0.00422969
0.00422372
0.00422466
0.00422303
0.00422319
0.00422307
0.00422305
0.00422316
0.0042231
0.0042234
0.00422326
0.00422373
0.00422354
0.0042249
0.00422435
0.00422792
0.00422609
0.00423304
0.00423033
0.0043827
0.00423648
0.0043101
0.00452677
0.00445514
0.00466819
0.0045977
0.00480892
0.00473857
0.00494953
0.00487925
0.00508996
0.00501977
0.00523022
0.00516012
0.00537028
0.00530028
0.00551014
0.00544024
0.00564979
0.00558
0.00578919
0.00571952
0.00592835
0.00585881
0.00606723
0.00599783
0.00620581
0.00613656
0.00634407
0.00627499
0.00648198
0.00641307
0.0066195
0.00655079
0.00675661
0.00668811
0.00689326
0.006825
0.00702941
0.00696141
0.00716501
0.00709729
0.00730001
0.00723259
0.00743434
0.00736726
0.00756795
0.00750124
0.00770078
0.00763447
0.00783272
0.00776687
0.00796371
0.00789835
0.0080936
0.0080288
0.00822227
0.0081581
0.00834984
0.00828616
0.00841299
0.00817095
0.00819126
0.00860424
0.00860511
0.00802357
0.00802311
0.00825596
0.00808771
0.00808731
0.00430837
0.00423571
0.00415968
0.00416242
0.00814861
0.00815154
0.00821588
0.00828033
0.00834501
0.00840975
0.00852515
0.00853508
0.0085942
0.00858422
0.00851666
0.00844874
0.00838258
0.00853666
0.00860192
0.00866838
0.00866648
0.00802303
0.00841311
0.0084754
0.00828691
0.00834995
0.0081578
0.00822253
0.00802785
0.00809295
0.00789701
0.00796256
0.00776515
0.00783119
0.00763243
0.0076989
0.00749887
0.00756576
0.00736454
0.00743179
0.00722956
0.00729713
0.00709401
0.00716186
0.00695794
0.00702604
0.00682137
0.00688971
0.00668436
0.00675292
0.00654693
0.00661569
0.00640912
0.00647807
0.00627096
0.00634009
0.00613249
0.00620177
0.00599372
0.00606314
0.00585468
0.00592423
0.00571539
0.00578507
0.00557587
0.00564566
0.00543614
0.00550603
0.0052962
0.0053662
0.00515608
0.00522617
0.00501579
0.00508596
0.00487533
0.00494558
0.00473473
0.00480505
0.00459396
0.00466438
0.00445233
0.00452311
0.00438082
0.00415498
0.00415952
0.00415707
0.00415295
0.00415391
0.00415287
0.0041529
0.00415286
0.00415286
0.00415297
0.0041529
0.00415321
0.00415307
0.00415355
0.00415337
0.0041541
0.00415381
0.00415582
0.00415495
0.00415741
0.00438466
0.00423958
0.00431268
0.0045277
0.00445629
0.00466866
0.00459823
0.00480943
0.00473906
0.00495006
0.00487977
0.00509052
0.00502031
0.0052308
0.00516069
0.0053709
0.00530088
0.0055108
0.00544088
0.00565049
0.00558068
0.00578995
0.00572025
0.00592916
0.00585959
0.00606811
0.00599867
0.00620676
0.00613747
0.0063451
0.00627598
0.0064831
0.00641415
0.00662073
0.00655197
0.00675796
0.0066894
0.00689474
0.00682641
0.00703103
0.00696295
0.00716679
0.00709898
0.00730197
0.00723446
0.00743651
0.00736932
0.00757035
0.00750352
0.00770342
0.00763698
0.00783564
0.00776964
0.00796693
0.00790141
0.0080972
0.00803221
0.00822632
0.00816192
0.00835411
0.0082904
0.00848062
0.00841744
0.00860698
0.00854394
0.00873076
0.00873294
0.00867031
0.00823416
0.00825552
0.0080874
0.00808689
0.00416229
0.004166
0.00831823
0.00815124
0.00815074
0.00821171
0.00821463
0.00827863
0.00834278
0.00840716
0.00847172
0.00865325
0.00866444
0.00872332
0.00873628
0.00879911
0.00879575
0.00871241
0.00864397
0.00857659
0.00851052
0.00844503
0.0085979
0.00866275
0.00872765
0.00879226
0.00808683
0.00854475
0.00860535
0.00841928
0.0084814
0.00829099
0.0083556
0.00816174
0.0082265
0.00803153
0.00809677
0.00790031
0.00796605
0.00776812
0.00783433
0.0076351
0.00770171
0.00750128
0.00756828
0.00736673
0.00743409
0.00723155
0.00729922
0.00709581
0.00716375
0.00695956
0.00702775
0.00682284
0.00689126
0.00668568
0.00675432
0.00654813
0.00661695
0.0064102
0.00647921
0.00627194
0.00634112
0.00613338
0.0062027
0.00599452
0.00606399
0.00585541
0.005925
0.00571605
0.00578576
0.00557647
0.00564629
0.00543668
0.00550661
0.0052967
0.00536672
0.00515654
0.00522664
0.0050162
0.00508639
0.00487571
0.00494598
0.00473507
0.00480541
0.00459431
0.00466471
0.00445339
0.00452385
0.00431021
0.00438188
0.0041643
0.00423808
0.00408666
0.00409071
0.00408812
0.0040839
0.00408498
0.00408267
0.00408275
0.00408264
0.00408267
0.00408263
0.00408262
0.00408274
0.00408267
0.00408299
0.00408285
0.00408335
0.00408316
0.00408386
0.00408359
0.00408448
0.0040842
0.00408762
0.00408606
0.00409328
0.00409001
0.0042422
0.00409704
0.00417019
0.00438623
0.00431461
0.00452823
0.00445734
0.00466916
0.00459872
0.00480997
0.00473959
0.00495062
0.00488032
0.00509111
0.00502089
0.00523143
0.00516129
0.00537156
0.00530152
0.00551151
0.00544156
0.00565124
0.00558141
0.00579076
0.00572103
0.00593003
0.00586043
0.00606905
0.00599958
0.00620779
0.00613846
0.00634622
0.00627704
0.00648432
0.00641531
0.00662206
0.00655324
0.00675941
0.00669079
0.00689633
0.00682793
0.00703278
0.00696462
0.00716872
0.00710082
0.00730409
0.00723648
0.00743884
0.00737155
0.00757292
0.00750597
0.00770626
0.00763969
0.00783878
0.00777263
0.0079704
0.00790471
0.00810104
0.00803585
0.00823058
0.00816596
0.0083589
0.00829491
0.00848577
0.00842252
0.00861139
0.00854878
0.00867345
0.00829668
0.00831812
0.00885794
0.00886182
0.00815081
0.0081503
0.00838063
0.00821429
0.00821379
0.00416729
0.00409474
0.00402029
0.00402307
0.00827454
0.00827734
0.00834099
0.00840481
0.00846886
0.00853317
0.00878188
0.00879449
0.00885213
0.00884064
0.00877189
0.0087036
0.00863752
0.00857237
0.00850661
0.00865852
0.00872315
0.00878817
0.0088533
0.00892356
0.00891897
0.00815024
0.00867517
0.00873571
0.00855156
0.0086139
0.00842417
0.00848803
0.00829565
0.00836011
0.00816611
0.00823102
0.00803546
0.00810091
0.00790383
0.00796976
0.00777129
0.00783767
0.00763795
0.00770472
0.00750386
0.007571
0.00736907
0.00743655
0.00723368
0.00730145
0.00709774
0.00716578
0.0069613
0.00702958
0.00682441
0.00689292
0.00668711
0.00675581
0.00654941
0.00661831
0.00641137
0.00648043
0.006273
0.00634222
0.00613433
0.0062037
0.00599539
0.00606489
0.00585619
0.00592582
0.00571677
0.00578651
0.00557712
0.00564697
0.00543727
0.00550722
0.00529724
0.00536728
0.00515703
0.00522716
0.00501666
0.00508686
0.00487613
0.00494641
0.00473545
0.00480581
0.00459465
0.00466507
0.00445373
0.00452421
0.00431164
0.00438277
0.00423964
0.00401426
0.00401759
0.0040156
0.0040127
0.00401367
0.00401245
0.00401248
0.00401236
0.00401241
0.00401236
0.00401235
0.00401249
0.00401241
0.00401274
0.0040126
0.00401312
0.00401291
0.00401363
0.00401336
0.00401422
0.00401393
0.00401586
0.00401508
0.00401753
0.00424445
0.00409981
0.00417288
0.00438727
0.00431615
0.00452875
0.00445817
0.00466971
0.00459925
0.00481054
0.00474015
0.00495122
0.0048809
0.00509174
0.0050215
0.00523209
0.00516194
0.00537227
0.0053022
0.00551226
0.00544229
0.00565205
0.00558218
0.00579162
0.00572186
0.00593096
0.00586132
0.00607006
0.00600055
0.00620888
0.00613951
0.00634741
0.00627818
0.00648562
0.00641656
0.00662348
0.00655459
0.00676096
0.00669227
0.00689803
0.00682955
0.00703465
0.0069664
0.00717077
0.00710278
0.00730635
0.00723864
0.00744134
0.00737393
0.00757568
0.0075086
0.0077093
0.00764259
0.00784214
0.00777583
0.00797412
0.00790825
0.00810515
0.00803976
0.00823512
0.00817027
0.00836394
0.00829969
0.00849145
0.00842787
0.00861752
0.00855468
0.00874211
0.00867996
0.00886613
0.00880387
0.00898498
0.00899
0.00892818
0.0083588
0.00838049
0.00821385
0.00821334
0.00402192
0.00402661
0.00844325
0.00827693
0.00827647
0.00833706
0.00833965
0.00840295
0.00846642
0.00853012
0.00859411
0.00891028
0.0089241
0.00898242
0.00899619
0.00905811
0.00905182
0.00896885
0.00889929
0.00883087
0.00876447
0.00869852
0.00863315
0.00856829
0.00871863
0.00878306
0.00884805
0.00891342
0.00897885
0.00904544
0.00821327
0.00880732
0.00886631
0.00868405
0.00874596
0.0085574
0.00862115
0.00842968
0.00849371
0.00830077
0.00836538
0.00817071
0.00823588
0.0080396
0.00810528
0.00790756
0.00797369
0.00777466
0.00784122
0.00764099
0.00770792
0.0075066
0.00757389
0.00737156
0.00743916
0.00723594
0.00730382
0.00709979
0.00716793
0.00696316
0.00703153
0.00682609
0.00689468
0.00668862
0.0067574
0.00655078
0.00661975
0.00641261
0.00648174
0.00627412
0.0063434
0.00613535
0.00620477
0.00599631
0.00606586
0.00585703
0.0059267
0.00571753
0.00578731
0.00557781
0.0056477
0.00543791
0.00550789
0.00529782
0.00536789
0.00515756
0.00522771
0.00501714
0.00508737
0.00487657
0.00494688
0.00473587
0.00480624
0.00459502
0.00466546
0.00445406
0.00452456
0.00431261
0.00438348
0.00416967
0.00424118
0.00402424
0.00409762
0.00394589
0.00394993
0.00394773
0.00394324
0.0039442
0.00394235
0.00394264
0.00394217
0.00394225
0.00394206
0.0039421
0.00394207
0.00394205
0.0039422
0.00394212
0.00394246
0.00394231
0.00394284
0.00394263
0.00394335
0.00394308
0.00394395
0.00394365
0.00394459
0.00394431
0.00394786
0.00394619
0.00395398
0.00395048
0.0041025
0.00395751
0.00403025
0.00424615
0.00417489
0.00438816
0.00431715
0.00452931
0.00445878
0.00467029
0.00459982
0.00481114
0.00474074
0.00495185
0.00488152
0.0050924
0.00502215
0.00523279
0.00516262
0.00537301
0.00530293
0.00551305
0.00544306
0.0056529
0.005583
0.00579253
0.00572275
0.00593195
0.00586227
0.00607112
0.00600157
0.00621004
0.00614062
0.00634867
0.00627939
0.00648699
0.00641787
0.00662498
0.00655603
0.00676261
0.00669385
0.00689984
0.00683128
0.00703664
0.0069683
0.00717296
0.00710486
0.00730876
0.00724093
0.007444
0.00737646
0.00757861
0.00751138
0.00771253
0.00764566
0.00784571
0.00777922
0.00797806
0.007912
0.00810951
0.00804391
0.00823995
0.00817486
0.00836928
0.00830476
0.00849741
0.0084335
0.00862418
0.00856098
0.0087494
0.008687
0.00887312
0.00881144
0.00893432
0.00842049
0.00844225
0.00911281
0.00911981
0.0082765
0.00827599
0.00850443
0.00833917
0.00833873
0.00402682
0.00395462
0.00388106
0.0038845
0.00839921
0.00840154
0.00846446
0.00852757
0.00859091
0.00865457
0.00904054
0.00905498
0.00911337
0.00909781
0.009027
0.00895801
0.00889089
0.00882471
0.00875861
0.00869356
0.00862883
0.00877822
0.00884241
0.00890713
0.00897263
0.00903857
0.0091052
0.00918048
0.00917259
0.00827592
0.00893846
0.00899742
0.00881715
0.0088787
0.00869149
0.00875374
0.00856394
0.00862809
0.00843566
0.00849994
0.00830615
0.00837106
0.00817555
0.00824098
0.00804397
0.00810988
0.0079115
0.00797784
0.00777823
0.00784496
0.00764421
0.00771131
0.00750951
0.00757694
0.00737419
0.00744193
0.00723832
0.00730633
0.00710195
0.0071702
0.00696511
0.00703359
0.00682786
0.00689654
0.00669022
0.00675909
0.00655223
0.00662127
0.00641392
0.00648312
0.00627531
0.00634466
0.00613643
0.00620591
0.00599729
0.00606689
0.00585792
0.00592764
0.00571834
0.00578816
0.00557855
0.00564847
0.00543858
0.00550859
0.00529843
0.00536853
0.00515812
0.0052283
0.00501766
0.00508791
0.00487705
0.00494737
0.00473631
0.0048067
0.00459543
0.00466589
0.00445444
0.00452495
0.00431331
0.00438391
0.0041711
0.00424213
0.00409926
0.00387384
0.00387711
0.00387523
0.00387238
0.0038732
0.00387205
0.00387219
0.00387184
0.00387193
0.00387173
0.00387177
0.00387175
0.00387173
0.00387189
0.0038718
0.00387214
0.003872
0.00387252
0.00387232
0.00387303
0.00387276
0.00387365
0.00387333
0.00387431
0.00387399
0.0038762
0.00387525
0.00387821
0.00410497
0.00396078
0.00403301
0.00424747
0.00417618
0.00438877
0.00431813
0.00452989
0.00445935
0.0046709
0.00460041
0.00481178
0.00474136
0.00495251
0.00488216
0.0050931
0.00502283
0.00523353
0.00516334
0.00537379
0.00530369
0.00551389
0.00544387
0.00565379
0.00558387
0.0057935
0.00572367
0.00593299
0.00586328
0.00607225
0.00600265
0.00621126
0.00614179
0.00635
0.00628067
0.00648845
0.00641927
0.00662658
0.00655756
0.00676435
0.00669551
0.00690175
0.00683311
0.00703874
0.0069703
0.00717527
0.00710707
0.00731131
0.00724336
0.0074468
0.00737913
0.0075817
0.00751433
0.00771595
0.00764891
0.00784948
0.00778281
0.00798223
0.00791596
0.00811412
0.00804829
0.00824505
0.00817971
0.00837493
0.00831013
0.00850366
0.00843945
0.00863113
0.00856756
0.00875718
0.00869434
0.00888163
0.00881962
0.00900452
0.00894324
0.00912696
0.00906534
0.00924074
0.00924936
0.00918822
0.0084817
0.00850418
0.00833875
0.00833822
0.00388144
0.00388711
0.00856548
0.00840098
0.00840057
0.00846093
0.00846298
0.00852551
0.00858823
0.0086512
0.00871451
0.00917137
0.00918741
0.00924532
0.00922767
0.00915662
0.00908612
0.00901744
0.00895033
0.00888403
0.00881874
0.00875376
0.00868929
0.00883726
0.00890114
0.00896565
0.00903087
0.00909688
0.00916384
0.00923188
0.00925811
0.00930988
0.00931926
0.00833816
0.00907198
0.00913045
0.00895022
0.00901058
0.00882573
0.00888846
0.00869875
0.00876235
0.00857088
0.008635
0.00844191
0.00850654
0.00831178
0.00837699
0.00818063
0.00824633
0.00804856
0.00811471
0.00791565
0.0079822
0.00778197
0.0078489
0.00764759
0.00771486
0.00751257
0.00758015
0.00737696
0.00744483
0.00724083
0.00730896
0.00710422
0.00717258
0.00696717
0.00703575
0.00682972
0.00689849
0.00669191
0.00676086
0.00655376
0.00662288
0.00641531
0.00648457
0.00627657
0.00634597
0.00613757
0.0062071
0.00599833
0.00606798
0.00585886
0.00592862
0.00571919
0.00578905
0.00557933
0.00564929
0.00543929
0.00550933
0.00529908
0.00536921
0.00515872
0.00522892
0.00501821
0.00508848
0.00487756
0.0049479
0.00473677
0.00480718
0.00459587
0.00466634
0.00445484
0.00452537
0.0043137
0.00438428
0.00417198
0.0042428
0.00402917
0.00410088
0.00388338
0.00395682
0.00380548
0.00380959
0.00380729
0.00380286
0.00380386
0.00380196
0.00380222
0.00380169
0.00380183
0.00380147
0.00380156
0.00380137
0.00380141
0.0038014
0.00380137
0.00380154
0.00380145
0.0038018
0.00380165
0.00380218
0.00380197
0.00380268
0.00380242
0.0038033
0.00380298
0.00380398
0.00380366
0.00380527
0.00380442
0.00380839
0.00380648
0.00381414
0.00381072
0.00396268
0.00381723
0.00389012
0.00410631
0.00403479
0.0042481
0.00417736
0.00438935
0.00431874
0.0045305
0.00445994
0.00467153
0.00460104
0.00481244
0.004742
0.0049532
0.00488284
0.00509382
0.00502353
0.0052343
0.00516408