/*--------------------------------*- C++ -*----------------------------------*\
  =========                 |
  \\      /  F ield         | OpenFOAM: The Open Source CFD Toolbox
   \\    /   O peration     | Website:  https://openfoam.org
    \\  /    A nd           | Version:  10
     \\/     M anipulation  |
\*---------------------------------------------------------------------------*/
FoamFile
{
    format      ascii;
    class       surfaceScalarField;
    location    "1.5";
    object      phi;
}
// * * * * * * * * * * * * * * * * * * * * * * * * * * * * * * * * * * * * * //

dimensions      [0 3 -1 0 0 0 0];

internalField   nonuniform List<scalar> 
57492
(
0.00166308
-3.52128e-05
-0.000326919
-0.00130095
-0.00141199
0.00172597
0.0013491
-4.30186e-05
0.000125196
0.000488025
-0.000570202
0.00337993
0.00325345
-0.000360232
-0.00627316
-0.00849531
0.00379223
0.00808301
0.00304328
-0.00303762
-0.00166956
0.0016639
-0.00553697
0.00165992
-0.000688378
0.00456543
0.000841383
-0.00333507
0.000709579
-0.00404134
0.00383034
-0.000498575
0.000688944
0.00372833
-0.0037077
-0.00397238
-0.00149129
0.00397771
0.00148596
-0.000285142
-0.00389346
0.000206227
0.00228404
-0.00252378
-4.54015e-05
-0.000510908
0.00130365
0.00379395
-0.00352954
-0.00131311
0.00104869
0.000404222
0.00304046
0.000349271
-0.000245522
0.000692762
0.00330942
-0.00375666
-0.000597291
0.00323713
-0.00288536
0.000160532
-0.000353594
0.000193061
-0.00209745
0.00151673
0.000741253
-0.00464779
0.000450668
0.00340153
0.000795591
0.000937794
-0.00470279
-0.000882797
4.46362e-05
-0.0017866
-0.00225362
0.00399558
-0.00131656
0.00141389
-5.2696e-05
-0.00646668
0.00446382
0.00265085
-0.000647984
-0.00576983
-0.000180874
-0.000515977
-0.00124184
0.000633034
0.00052457
8.42318e-05
-0.000864067
-0.000393586
1.58164e-05
-0.000482847
-0.00151284
0.00178999
0.000205692
-0.000556713
0.000161859
-8.79928e-05
0.00341693
-0.00224893
-0.0022211
0.0010531
-0.00267294
0.00180441
0.00428546
-0.00277508
-0.00606978
0.00434625
0.00449862
-0.00539001
-0.00137958
0.00399451
-0.000874143
-0.000207612
0.00108175
-0.000341071
-0.000533072
-0.00165854
0.00230291
-0.000985434
0.000249748
-0.000930778
-0.000977512
-0.00324437
0.00490428
-0.000283324
-0.00219123
0.00131263
0.000878601
-0.00494703
0.0027558
0.00439408
-0.000400495
-2.86214e-06
-0.00399072
0.00322397
-0.000400192
0.0015703
-0.000309402
0.00429676
-0.00438785
0.00469148
0.000744119
-0.00459422
0.00446349
-0.000460389
0.00455646
-0.00170294
-0.00326617
0.000412661
0.00516008
0.000140494
0.00334653
-0.00173614
0.0028531
0.00205652
0.00585545
-0.00398979
-0.000574311
0.000534234
0.00402987
-0.00412098
-0.000306381
0.000437573
0.000376174
0.0039381
-0.0039151
-0.000399174
0.00010912
-0.00377429
-0.00588247
0.00321477
0.00454926
-0.00188156
-0.00228862
0.00378797
-0.00738181
-0.000173105
-0.0012737
6.24048e-05
0.0013844
-0.00207492
-0.000621963
0.000785706
-0.000783995
-0.00207663
-0.000640248
0.000152259
0.000420732
-0.000358327
0.000108668
0.000312064
0.0101359
0.00342337
-0.0073726
-0.00618666
0.00136626
7.90497e-05
0.00869058
-0.00910993
0.00182708
0.00864911
0.00126069
-0.00694725
0.00132919
-0.00295705
0.00231118
-0.000683318
0.00256253
-0.00302201
0.00178866
-0.000262545
0.000253173
-2.58408e-05
-0.000523483
-6.59813e-05
-0.00157267
-0.000251764
-0.00327121
0.00596496
0.00301994
-0.0057137
0.0039903
-0.00469897
0.0025348
0.00545515
-0.00202499
0.0114499
-0.00345861
0.000253616
-0.00824492
0.000194353
0.00625344
0.00500212
0.000395855
-0.00589405
0.00569255
7.17063e-05
-0.000114725
0.000196902
0.00129793
0.00240279
-0.000869158
-0.00283155
0.00162126
0.000164694
-0.000431303
0.000168787
0.000262516
-0.000932526
0.000501223
-0.0081026
0.00311047
-0.00224973
0.00724187
-0.00672111
-0.00381845
0.00243696
-0.00312871
0.00287393
-0.00646633
0.00263644
-1.2432e-05
-0.00123747
-0.00138653
-0.00095688
0.00297712
0.000616201
-0.00113913
-0.000110979
0.000293231
-0.00103941
-0.000112153
-0.00034973
-0.00192715
-0.00197544
-0.000995513
-7.44608e-06
0.00297839
-0.00216862
-0.00310574
0.00329892
0.00211581
0.000332359
-0.00461678
0.0013325
-0.000212204
0.00158798
-0.000262932
-0.000842772
0.000493042
9.20091e-05
-0.000934781
0.00030868
-0.00124121
0.00423539
0.00334901
-0.000157679
0.00208091
-0.00634083
-0.000292442
0.00266949
-0.00194225
-0.000434796
-0.000274828
0.00366037
-0.00367798
0.00259526
0.0016939
-0.000648191
-0.00364097
-0.000665214
0.000199148
0.00306133
0.00338807
-0.00235939
-0.00137096
-0.00295524
0.000833201
0.003493
-0.0014384
0.00343982
-0.00337239
7.89658e-05
-0.0044726
0.00144766
0.000996756
-6.0002e-05
0.00423891
-0.00236905
-0.00328185
0.00151282
-0.00248281
0.0052089
0.00302532
0.000213479
-0.000213823
0.000402186
8.03965e-05
-0.000268759
0.00118653
-0.0014305
3.01517e-05
-0.00043537
0.00100925
0.000612651
-0.000153255
0.000120071
-0.00731839
0.00288172
0.00754714
0.00750943
-0.00282367
-0.00850421
-0.00361449
0.00380553
-0.000111185
-0.00112784
-0.000273814
-0.00068337
1.54721e-05
3.95526e-05
-0.000162393
6.87736e-05
5.40672e-05
-0.000144885
0.000144559
3.98785e-05
-0.000309242
1.96327e-06
-0.000354677
-0.000403276
7.4583e-05
-0.00105919
-0.000423328
-0.00217415
-0.00242515
0.00288814
0.00171116
0.000125948
0.00100347
-0.00330356
-0.0032935
0.000994297
-0.00359842
0.00155392
-5.29535e-05
-0.00413578
0.000803466
-0.000266099
0.000234892
-0.0035574
0.00303693
0.000285576
0.000196932
-0.00342911
0.00346707
0.00188962
-0.0103941
-0.00229048
0.00274802
0.00349848
-0.00423504
0.00256038
-0.000465085
-0.000661853
0.000994211
-0.000754727
9.28738e-05
0.000368115
-5.01896e-05
0.00466939
-0.00287378
-0.00230853
0.000512916
0.00409075
0.00026924
0.00551188
-0.001707
-0.00609351
0.0002281
0.00380794
0.00147585
-0.000177943
-0.00364309
0.00404914
6.47529e-05
-0.00081948
0.000901366
-0.00273651
-0.00361388
0.00175631
0.00409474
0.00328558
-0.000182144
-0.0034568
0.000353362
0.000947531
-0.000334894
-0.0038375
0.00053237
0.00510954
0.000498564
-0.00338853
-0.000146974
-2.91588e-05
-0.000514585
0.000416702
0.000124486
-2.66026e-05
0.000207771
1.12917e-06
-0.000723485
0.000355548
-0.00193149
0.00178371
-0.00510899
0.0071865
-0.00176883
0.00349704
-0.00738328
-0.00122274
-0.000124329
-0.00434233
0.00499903
-0.0064701
0.000779315
-0.00432803
-0.00326608
0.00112401
0.00308952
0.00264379
-0.00528265
0.00218365
0.00468197
-0.0037761
0.00200024
-0.00310674
0.00172454
-0.000618039
0.00217339
-0.00305269
0.00287954
0.00454428
0.00150104
0.00427508
-0.000246048
-0.00427807
0.000249044
0.00469812
-0.000601895
0.000178858
0.0049697
-0.00043775
-0.000313031
-0.00421892
0.00356082
-0.000864091
0.00227297
0.00416754
-0.000944671
0.000700417
-0.00392329
0.000774964
0.00423877
-0.000846191
-0.00380796
-0.00121301
0.00407631
0.000651107
-0.00362587
-0.00126299
0.00354298
-0.00171516
-0.00325995
0.00147561
0.00349949
-0.00179386
-0.00332499
0.00340369
0.00168169
0.00316741
-0.00100358
-0.00384551
0.0031382
-0.00325037
-0.00197562
0.00191274
0.00320109
-0.00158577
0.00277756
-0.00408268
0.00364535
-0.000566255
-0.00524793
0.000520037
0.00546468
-0.00073678
0.00148
-0.000554
0.00323078
-0.00344452
0.000767736
-0.000181466
0.00329956
-0.0036721
-0.000298587
0.00184475
0.00147915
-0.00340902
-0.00405887
0.00250386
-0.000112112
0.000113241
1.29933e-05
-0.000125105
-0.000382096
-0.00493814
0.0035841
-0.00382526
-0.000283624
0.00372679
0.000238452
-0.00402293
-4.07817e-05
-0.000401214
0.00180321
0.00042859
-0.00183059
0.00193969
0.000395852
-0.00273676
0.00178612
0.00195679
-7.97824e-05
0.000147885
0.000928653
0.000172279
-0.000252061
0.000320164
-5.59438e-05
0.000141762
-0.000726066
6.43055e-05
-0.000120249
0.000206067
-0.000200597
0.000123192
-0.00123915
0.000145922
-0.000346519
0.000269114
6.43408e-05
-6.72805e-06
-0.000210868
-2.0445e-05
8.47858e-05
-2.71731e-05
0.000974024
0.00262595
-0.00340083
0.00123824
-0.0036752
0.00341099
0.00370004
0.000164147
-0.00121106
-0.00240831
0.00119027
0.00242909
-0.00066254
0.00264523
-0.00319375
0.000202017
-0.00327287
0.00381031
-0.00384745
-1.18235e-05
4.89643e-05
0.00380761
3.46214e-05
-3.19212e-05
-2.36007e-05
-0.00384287
1.90291e-05
0.00383507
-9.64491e-07
-2.65017e-05
0.00390224
5.5871e-05
-0.000123036
2.75047e-05
0.00399843
-0.0001237
0.00395035
-0.00392799
5.14394e-06
-0.000185697
0.00418413
-3.66265e-09
0.00383952
-7.48657e-05
-0.00380876
-6.33603e-05
-0.00379668
-1.30446e-05
-0.0037925
3.04486e-05
-0.00387501
7.06858e-05
-0.0038129
-8.57165e-05
-0.000180028
0.00436443
-2.71005e-07
0.00365931
1.73145e-07
-1.87961e-05
-0.00381184
-1.22413e-05
-0.0038452
1.35064e-05
-2.67701e-05
-0.00403317
0.000248099
1.37603e-07
0.00436422
7.53324e-08
0.00365972
-2.69594e-07
-0.00398761
0.000115639
0.00436413
3.06459e-07
-2.18623e-07
1.97955e-07
0.00436381
1.19371e-07
0.00365983
2.01733e-07
0.00366028
-2.51856e-07
-2.25908e-05
-0.00401016
-4.13271e-07
-0.00401028
8.31132e-08
4.26495e-07
0.00436359
-2.02437e-07
0.00366048
2.21512e-07
7.92675e-08
-0.00401006
-1.79807e-07
-0.00400987
-3.35493e-07
4.26811e-07
0.00436303
1.29953e-07
0.00366115
-2.46168e-07
1.88554e-07
-0.00400977
-4.83694e-07
-0.00400977
8.68927e-08
8.8532e-07
0.00436236
-2.0851e-07
0.00366181
2.27152e-07
9.53727e-08
-0.00400962
-2.3863e-07
-0.00400933
-3.37711e-07
1.331e-06
0.00436091
1.19732e-07
0.0036634
-2.53589e-07
2.12345e-07
-0.0040093
-5.33966e-07
-0.00400915
2.78806e-08
2.69523e-06
0.00435844
-2.32977e-07
0.00366587
2.21088e-07
9.33532e-06
-0.00401833
-3.08398e-07
-0.00399933
-4.83623e-07
4.9323e-06
0.00435342
9.10858e-08
0.00367107
-2.62357e-07
2.61548e-05
-0.00390532
-0.000139159
-0.00393148
-4.16976e-05
9.87506e-06
0.00434381
-2.60716e-07
0.00366374
1.72031e-05
2.58628e-05
-0.00392441
-6.77701e-06
-0.00390269
-2.92408e-06
1.92008e-05
0.00432451
9.65349e-08
0.00363801
4.49271e-05
5.5621e-05
-0.00378682
-0.000193212
-0.00379081
-5.62616e-05
0.000185514
0.0041392
-2.09821e-07
0.0037486
7.49259e-05
6.41075e-05
-0.00377044
-8.04846e-05
-0.00375013
2.34262e-05
0.000163812
0.00383397
0.000141422
0.00381031
0.000102099
0.000102434
-0.000143793
-0.00372908
-0.00373625
8.85596e-05
1.15649e-05
3.7092e-05
0.00378531
0.00378534
3.65408e-05
-0.00378352
0.00384235
-0.000139322
-0.00380546
-0.000121848
0.000175326
-0.000151679
-0.00375273
8.9428e-05
-0.00365035
-0.00375952
0.00379171
-3.89599e-05
-0.000110382
-0.0036537
0.00365416
-7.72629e-07
-1.1485e-06
-0.00365458
0.00365495
-6.12973e-07
-9.49021e-07
-0.00365531
0.00365567
-5.35228e-07
-8.47242e-07
-0.00365605
0.00390463
-4.85379e-07
-7.91673e-07
-0.0038931
0.0038392
7.29284e-05
-7.1211e-07
-0.00396213
0.00393054
-3.27466e-07
-7.39675e-05
-0.00380421
0.00374813
-6.69605e-05
9.98314e-05
-0.00365869
0.00365892
-2.35534e-07
-3.42563e-05
-0.00365916
0.00365938
-1.41284e-07
-5.12682e-07
-0.00365959
0.00365979
-7.42701e-08
-4.35131e-07
-0.00365999
0.00366017
-4.99468e-08
-4.00528e-07
-0.00366036
0.00366053
-5.40511e-08
-3.98429e-07
-0.00366072
0.00366089
-8.51709e-08
-4.21275e-07
-0.00366109
0.0036613
-1.0624e-07
-4.60533e-07
-0.00363986
0.00372543
5.5852e-05
2.12299e-05
0.003716
4.65194e-05
-2.25762e-05
7.33908e-05
0.0037345
-2.59863e-06
0.00376536
0.0037403
-0.00367873
1.33544e-05
-0.0037766
0.00376839
4.47489e-05
6.58008e-05
0.00367838
-0.00366115
-3.37781e-08
4.45821e-05
0.0036609
-0.00366067
-7.50769e-09
-5.04959e-07
0.00366046
-0.00366025
1.60688e-08
-4.67284e-07
0.00366004
-0.00365983
1.26688e-08
-4.52959e-07
0.00365962
-0.0036594
-1.84507e-08
-4.64079e-07
0.00365917
-0.00365892
-7.3968e-08
-5.03881e-07
0.00373323
-0.00372793
-1.62208e-07
-5.5125e-07
0.00379066
-0.00374983
-5.38681e-05
-6.30179e-07
0.00372554
-0.00370137
4.65224e-05
6.14993e-06
0.00374797
-0.00377256
3.80941e-05
-3.91203e-05
0.00365614
-0.00365571
-3.55528e-07
-7.73318e-07
0.00365526
-0.00365479
-3.81145e-07
-7.80727e-07
0.00365431
-0.00365381
-4.71255e-07
-8.17792e-07
0.00365332
-0.00369428
-7.40331e-07
-9.77828e-07
0.00369586
-0.0037509
-1.21487e-06
-1.34457e-06
0.00372559
-0.00367266
3.56237e-05
-1.88144e-06
-0.00363375
5.05169e-05
-0.0038355
-0.000121637
0.00372725
6.21401e-05
1.23988e-06
0.00376455
0.000139916
-0.000125114
-0.00366515
0.000112915
-0.00360675
0.000127532
-0.000118011
-0.00384502
-0.00375031
-0.00376086
0.00369935
-7.78142e-05
0.00380445
-0.00383714
-8.89431e-05
-7.82567e-05
-0.00365205
0.00365264
-3.95512e-05
-6.30818e-05
-0.00365331
0.00365387
-1.32805e-06
-1.81874e-06
-0.00365436
0.0036548
-1.0615e-06
-1.43772e-06
-0.00365522
0.00365563
-9.38058e-07
-1.26563e-06
-0.00365601
0.00365638
-8.54279e-07
-1.17784e-06
-0.00365676
0.00373045
-7.59233e-07
-1.09394e-06
-0.00365747
0.00365779
-6.50063e-07
-9.82818e-07
-0.00375854
0.00369212
-5.39088e-07
-9.1914e-07
-0.00365867
0.00365892
-4.77842e-07
-8.12661e-07
-0.00365915
0.00365938
-3.71845e-07
-7.46701e-07
-0.00365959
0.0036598
-2.82286e-07
-6.47299e-07
-0.00365999
0.00366017
-2.3578e-07
-5.86183e-07
-0.00366034
0.00366051
-2.22169e-07
-5.63736e-07
-0.00366066
0.00366081
-2.3911e-07
-5.71196e-07
-0.00366095
0.00366111
-2.61842e-07
-6.06294e-07
-0.003661
0.00369057
2.62773e-05
2.1343e-05
8.98705e-06
-1.63844e-05
0.0037419
2.6846e-06
0.00373355
-0.00367946
0.00371577
2.58363e-05
5.76284e-05
0.00371846
-0.00371945
4.57365e-05
0.00368845
3.12483e-05
-2.72055e-06
4.48388e-05
0.00372243
0.00374625
0.00372013
-0.00369303
-1.37439e-05
6.64844e-05
0.00366122
-0.00366101
-2.35977e-07
1.27651e-05
0.00366082
-0.00366063
-1.9576e-07
-6.971e-07
0.00366044
-0.00366025
-1.75998e-07
-6.558e-07
0.00366006
-0.00365986
-1.89508e-07
-6.47571e-07
0.00365965
-0.00365943
-2.39791e-07
-6.71257e-07
0.00365919
-0.00365894
-3.27137e-07
-7.36525e-07
0.00365867
-0.0036584
-4.28219e-07
-8.24919e-07
0.00365813
-0.0037115
-4.96452e-07
-9.0439e-07
0.00370436
-0.00365724
-6.04243e-07
-9.86461e-07
0.0036953
-0.0036565
-7.05786e-07
-1.06083e-06
0.0036561
-0.00365565
-7.98691e-07
-1.17294e-06
0.00365518
-0.00365468
-8.82988e-07
-1.25085e-06
0.00365416
-0.00365362
-1.01244e-06
-1.3406e-06
0.00365308
-0.00365255
-1.27196e-06
-1.5169e-06
0.00365203
-0.00365152
-1.72337e-06
-1.85772e-06
0.00365101
-0.00361306
-2.32059e-06
-2.39662e-06
0.00359224
-0.00354294
6.36183e-05
2.96938e-05
-0.00386502
-9.0138e-05
0.000100575
-0.000155239
-0.00355208
-0.00352081
7.84441e-05
-0.00020824
-0.00361215
2.49711e-05
0.00369348
0.00369383
3.94619e-05
-5.64129e-05
8.09881e-05
-0.0038696
-5.21779e-05
-0.00386925
7.68884e-05
-0.000154212
-0.00347476
5.46477e-05
-0.00349857
-0.00387757
0.003725
-0.00371411
1.49434e-05
0.00368682
6.31556e-05
6.70797e-05
-2.90779e-05
0.00368443
4.45601e-05
0.00371635
-0.00382488
0.00386502
-9.23218e-05
-0.000102732
8.57068e-05
-0.00385223
0.00391109
-8.79254e-05
0.000315886
-0.00413905
-1.65219e-05
-0.00385938
0.00382801
-5.75792e-05
-8.44923e-05
-0.00377783
0.00371733
-1.73132e-05
-2.80767e-05
-0.00368929
0.00365232
-2.5801e-06
-3.50401e-05
-0.00365298
0.0036536
-1.94274e-06
-2.48283e-06
-0.00365416
0.00365468
-1.58377e-06
-1.99949e-06
-0.00365517
0.00365562
-1.39156e-06
-1.7486e-06
-0.00365604
0.00365644
-1.25546e-06
-1.6017e-06
-0.00365682
0.00365717
-1.11127e-06
-1.47226e-06
-0.00365752
0.00365784
-9.6471e-07
-1.33003e-06
-0.00365812
0.00365841
-8.31178e-07
-1.20323e-06
-0.00365868
0.00365892
-7.21429e-07
-1.08139e-06
-0.00365916
0.00365939
-6.01693e-07
-9.8081e-07
-0.00365961
0.00365982
-4.90321e-07
-8.65946e-07
-0.00366001
0.00366019
-4.15999e-07
-7.7894e-07
-0.00366035
0.00366051
-3.75152e-07
-7.29048e-07
-0.00366064
0.00366077
-3.6537e-07
-7.09384e-07
-0.00366089
0.003661
-3.73358e-07
-7.2085e-07
-0.00367121
0.00367745
2.00371e-05
1.11336e-05
2.09657e-05
2.45829e-05
-8.57826e-06
0.00372589
-4.00284e-05
1.19578e-05
0.00372155
0.00371811
0.0037086
0.00370772
-0.00370379
4.18081e-05
-0.00370241
0.00368229
5.95842e-05
3.6559e-05
0.00366127
-0.00367465
-3.58663e-07
2.39616e-05
0.00366101
-0.00366088
-3.72221e-07
-8.74644e-07
0.00366074
-0.00366059
-3.46105e-07
-8.3575e-07
0.00366043
-0.00366025
-3.50471e-07
-8.17041e-07
0.00366007
-0.00365987
-3.8573e-07
-8.31324e-07
0.00365967
-0.00365945
-4.59348e-07
-8.76555e-07
0.00365922
-0.00365897
-5.76929e-07
-9.67785e-07
0.00365871
-0.00365843
-6.99684e-07
-1.0859e-06
0.00365815
-0.00365785
-8.00961e-07
-1.18801e-06
0.00365754
-0.00365721
-9.27981e-07
-1.29386e-06
0.00365685
-0.00365648
-1.08062e-06
-1.42108e-06
0.00365607
-0.00365563
-1.23879e-06
-1.5779e-06
0.00365516
-0.00365465
-1.39272e-06
-1.72286e-06
0.00365411
-0.00365355
-1.57671e-06
-1.87855e-06
0.00365298
-0.00365241
-1.8394e-06
-2.08722e-06
0.00365187
-0.00365135
-2.23979e-06
-2.40229e-06
0.00365087
-0.0036504
-2.79098e-06
-2.87638e-06
0.00361727
-0.00355034
-3.31505e-06
-3.43687e-06
0.00351153
-0.00351904
6.21576e-05
3.96412e-05
6.95293e-05
-6.77085e-05
-0.00350039
-0.00350251
5.29921e-05
0.00011315
-0.00389704
-9.21041e-05
-0.00367426
3.76026e-05
0.00366117
0.00369492
3.19284e-05
0.000132836
-0.00407299
1.31148e-06
-0.00354378
0.000791292
-0.00327328
0.0042681
-6.64754e-05
4.57007e-05
-0.00348173
-9.93257e-05
-0.00346754
-0.00258677
0.00393419
0.00060937
-0.00202361
-0.000134567
-0.00385652
-0.00372736
0.0038822
0.000161046
0.000335881
-0.000129053
-0.00384254
0.0038056
-5.53883e-05
2.31401e-05
-0.0037725
0.00371954
-4.62338e-06
-5.13878e-05
-0.0036961
0.00368283
-4.0374e-06
-4.63925e-06
-0.00365165
0.00365228
-3.21751e-06
-3.85769e-06
-0.00365291
0.00365353
-2.56126e-06
-3.11192e-06
-0.00365412
0.00365468
-2.14081e-06
-2.58841e-06
-0.00365519
0.00365567
-1.8706e-06
-2.26422e-06
-0.00365611
0.00365652
-1.66448e-06
-2.04203e-06
-0.0036569
0.00365726
-1.46789e-06
-1.85194e-06
-0.00365759
0.0036579
-1.27635e-06
-1.66259e-06
-0.00365819
0.00365847
-1.10661e-06
-1.49163e-06
-0.00365872
0.00365897
-9.641e-07
-1.33952e-06
-0.0036592
0.00365942
-8.28058e-07
-1.21215e-06
-0.00365964
0.00365985
-6.98472e-07
-1.08329e-06
-0.00366004
0.00366022
-5.96434e-07
-9.72835e-07
-0.00366039
0.00366054
-5.23877e-07
-8.93046e-07
-0.00366067
0.00366078
-4.78208e-07
-8.40006e-07
-0.00366087
0.00366096
-4.56861e-07
-8.1507e-07
-0.00367289
0.00369333
-4.02333e-07
-8.02781e-07
-0.00368445
0.00368231
1.70845e-05
2.98452e-05
-0.00369688
0.00369291
4.15781e-05
4.8585e-05
5.26242e-05
-2.95451e-05
0.00369847
-3.31356e-05
8.43656e-06
0.00371761
0.00368066
3.64722e-05
1.49781e-05
0.00367444
0.00372503
-2.60081e-05
1.85355e-05
0.0036919
0.00369757
-2.30908e-05
4.71485e-06
0.00371329
0.00371179
0.00371601
-0.00370283
4.64011e-05
-0.00377352
0.00367293
0.000105301
-2.55781e-05
0.0036936
-0.00368592
3.41192e-05
2.73373e-05
0.00366105
-0.00366096
-4.4952e-07
-8.99685e-07
0.00366089
-0.0036608
-4.61774e-07
-9.47417e-07
0.0036607
-0.00366057
-4.72611e-07
-9.40998e-07
0.00366042
-0.00366026
-5.13916e-07
-9.61666e-07
0.00366008
-0.00365989
-5.78695e-07
-1.00852e-06
0.00365969
-0.00365947
-6.78017e-07
-1.081e-06
0.00365924
-0.00365899
-8.20665e-07
-1.19664e-06
0.00365874
-0.00365847
-9.69419e-07
-1.34064e-06
0.00365819
-0.00365788
-1.10394e-06
-1.47221e-06
0.00365757
-0.00365723
-1.26283e-06
-1.60872e-06
0.00365688
-0.0036565
-1.45724e-06
-1.77537e-06
0.0036561
-0.00365567
-1.66907e-06
-1.97606e-06
0.00365521
-0.00365472
-1.8905e-06
-2.18284e-06
0.00365419
-0.00365363
-2.13885e-06
-2.40737e-06
0.00365305
-0.00365245
-2.43204e-06
-2.66735e-06
0.00365187
-0.00365131
-2.80127e-06
-2.98487e-06
0.00365079
-0.00365031
-3.27011e-06
-3.39626e-06
0.00364986
-0.0036494
-3.77776e-06
-3.88684e-06
0.00360539
-0.00353901
-4.22548e-06
-4.36595e-06
0.00354225
-0.00352976
3.32113e-05
5.62393e-05
5.47229e-05
-5.10429e-05
-0.00348541
-0.00350632
3.12794e-05
0.000109038
-0.00387324
-2.82748e-05
-0.00364467
0.000280792
-0.00356249
1.39226e-06
-0.0036445
0.00369407
-0.0036994
4.69041e-05
0.00368136
2.11467e-05
4.77271e-05
-3.27831e-05
0.00369835
1.3573e-05
0.00370708
0.000267546
-0.00314497
2.33319e-06
-0.00352092
-0.00190343
-0.00195077
-0.00306889
0.00352381
0.000154458
8.34696e-05
-5.77714e-05
-0.00351111
6.01122e-05
-0.00348296
-0.0028577
-0.000345765
-0.00377576
-0.00367384
0.00372057
0.000114318
0.000185845
-0.00374819
0.00369731
-4.5095e-06
-4.4756e-06
-0.00365087
0.00365104
-4.78821e-06
-4.95296e-06
-0.00365129
0.00365164
-4.39086e-06
-4.88782e-06
-0.00365209
0.0036526
-3.72567e-06
-4.30424e-06
-0.00365314
0.00365371
-3.12981e-06
-3.6614e-06
-0.00365427
0.00365481
-2.68076e-06
-3.14843e-06
-0.00365532
0.00365579
-2.34122e-06
-2.7689e-06
-0.00365622
0.00365662
-2.06611e-06
-2.47452e-06
-0.00365699
0.00365734
-1.8169e-06
-2.22373e-06
-0.00365767
0.00365798
-1.58416e-06
-1.98883e-06
-0.00365826
0.00365854
-1.3795e-06
-1.77827e-06
-0.00365879
0.00365903
-1.20604e-06
-1.59533e-06
-0.00365926
0.00365949
-1.05048e-06
-1.44139e-06
-0.0036597
0.0036599
-9.02996e-07
-1.2962e-06
-0.0036601
0.00366027
-7.75367e-07
-1.1642e-06
-0.00366044
0.00366058
-6.70994e-07
-1.05556e-06
-0.00366071
0.00366082
-5.86999e-07
-9.6805e-07
-0.00366091
0.00366098
-5.26668e-07
-9.0182e-07
-0.00366103
0.0036611
-4.74265e-07
-8.58292e-07
-0.00369174
0.00367902
2.98119e-05
-7.94198e-07
2.82053e-05
4.05845e-05
-6.38278e-05
0.00372171
-1.76299e-05
2.95809e-05
0.00370566
0.00370362
3.12749e-07
-3.72818e-08
0.00367417
0.00366152
-3.60994e-05
5.38916e-05
0.00367411
0.00366143
0.0037329
0.00371783
-0.00370674
3.53141e-05
-0.00367174
0.00370926
6.77874e-05
2.05047e-05
0.00369562
-0.00366106
-4.39148e-07
1.62137e-05
0.00366098
-0.00366093
-5.06419e-07
-9.73869e-07
0.00366087
-0.0036608
-5.34794e-07
-1.00263e-06
0.0036607
-0.00366058
-5.9159e-07
-1.03598e-06
0.00366045
-0.00366029
-6.72624e-07
-1.10044e-06
0.00366011
-0.00365992
-7.69753e-07
-1.18249e-06
0.00365972
-0.0036595
-8.95373e-07
-1.2843e-06
0.00365927
-0.00365904
-1.05963e-06
-1.42298e-06
0.00365879
-0.00365852
-1.23441e-06
-1.5896e-06
0.00365824
-0.00365794
-1.40382e-06
-1.75228e-06
0.00365763
-0.00365729
-1.59663e-06
-1.92261e-06
0.00365694
-0.00365657
-1.82778e-06
-2.12559e-06
0.00365618
-0.00365577
-2.08581e-06
-2.36497e-06
0.00365533
-0.00365485
-2.3671e-06
-2.62526e-06
0.00365434
-0.0036538
-2.67993e-06
-2.91338e-06
0.00365323
-0.00365264
-3.02428e-06
-3.23397e-06
0.00365204
-0.00365144
-3.40072e-06
-3.58497e-06
0.00365087
-0.00365032
-3.81561e-06
-3.97172e-06
0.00364981
-0.00364932
-4.26775e-06
-4.3963e-06
0.00364883
-0.00364827
-4.77727e-06
-4.86178e-06
0.00358661
-0.00354798
-5.4128e-06
-5.4282e-06
0.0035106
-0.00348316
3.26704e-05
-6.09988e-06
0.000101299
-6.57289e-05
-0.00351853
-0.00346306
8.11994e-05
7.98315e-05
-0.00367228
6.23073e-07
-0.0036439
4.63607e-05
0.00366458
0.00369547
2.73562e-05
0.00015806
-0.003453
-0.000472165
-0.00416802
-7.77925e-05
-0.00353934
1.45465e-06
-0.00364362
2.31755e-06
-0.00358101
-0.00411312
-0.000695351
0.000130019
-0.000413143
-0.00382999
-0.000311027
-0.00372698
-5.86878e-05
-0.00351815
6.45499e-05
-0.000119529
-0.00346356
0.000105252
-0.00350376
-0.0036953
-0.00334614
0.00349447
6.13363e-06
0.00351903
-0.00387752
-0.000336864
-0.000172874
-0.0036013
0.00365091
6.47011e-05
7.90175e-05
-0.00365157
0.00365189
-4.83572e-06
-5.12869e-06
-0.00365201
0.00365206
-4.84221e-06
-5.06983e-06
-0.00365217
0.00365238
-4.60311e-06
-4.99777e-06
-0.0036527
0.00365311
-4.12968e-06
-4.62129e-06
-0.00365357
0.00365406
-3.62387e-06
-4.12216e-06
-0.00365456
0.00365505
-3.17069e-06
-3.64708e-06
-0.00365551
0.00365596
-2.78161e-06
-3.23443e-06
-0.00365636
0.00365675
-2.45021e-06
-2.88399e-06
-0.00365711
0.00365745
-2.15543e-06
-2.58165e-06
-0.00365776
0.00365807
-1.88711e-06
-2.30743e-06
-0.00365835
0.00365862
-1.6509e-06
-2.06286e-06
-0.00365888
0.00365912
-1.44781e-06
-1.85029e-06
-0.00365935
0.00365957
-1.26927e-06
-1.66916e-06
-0.00365977
0.00365997
-1.10223e-06
-1.50402e-06
-0.00366016
0.00366034
-9.50811e-07
-1.351e-06
-0.0036605
0.00366064
-8.17524e-07
-1.21603e-06
-0.00366077
0.00366088
-6.98266e-07
-1.09692e-06
-0.00366097
0.00366105
-5.99005e-07
-9.92433e-07
-0.00366111
0.00366117
-5.40365e-07
-9.18005e-07
-0.00366126
0.00369156
-4.93696e-07
-8.81537e-07
-0.00369442
0.00370317
3.81575e-05
2.53457e-05
-0.00365392
0.00366973
3.0551e-05
7.03979e-05
6.33064e-05
-4.69501e-05
0.0036893
-1.49638e-05
-6.2878e-06
0.00369098
0.00371292
4.69422e-05
-3.91764e-07
0.00367516
0.00370361
2.39161e-07
-6.05333e-08
0.00367399
0.00366137
-1.33044e-07
3.09145e-07
0.00367393
0.00366124
-2.79683e-05
2.28452e-05
0.00370347
0.00370524
-1.68483e-05
2.16526e-05
0.00369067
0.00371308
0.0037213
-0.00367916
2.56439e-05
-0.00370432
0.0036827
4.32669e-05
4.43436e-05
0.00368639
-0.00367835
2.7273e-05
2.77334e-05
0.00366116
-0.00366108
-5.15926e-07
-9.77162e-07
0.00366103
-0.00366098
-5.51944e-07
-1.02428e-06
0.00366093
-0.00366085
-6.13141e-07
-1.05963e-06
0.00366075
-0.00366063
-7.13315e-07
-1.13575e-06
0.00366049
-0.00366033
-8.30382e-07
-1.23974e-06
0.00366016
-0.00365997
-9.58513e-07
-1.35463e-06
0.00365977
-0.00365955
-1.11013e-06
-1.48514e-06
0.00365933
-0.0036591
-1.29454e-06
-1.64618e-06
0.00365885
-0.00365859
-1.49415e-06
-1.83372e-06
0.00365832
-0.00365802
-1.69761e-06
-2.0264e-06
0.00365772
-0.00365739
-1.9247e-06
-2.23113e-06
0.00365704
-0.00365668
-2.1901e-06
-2.46863e-06
0.0036563
-0.0036559
-2.48891e-06
-2.74372e-06
0.00365548
-0.00365502
-2.821e-06
-3.04989e-06
0.00365454
-0.00365403
-3.19166e-06
-3.39268e-06
0.00365349
-0.00365292
-3.59358e-06
-3.7721e-06
0.00365233
-0.00365173
-4.0089e-06
-4.17448e-06
0.00365112
-0.00365051
-4.42267e-06
-4.58132e-06
0.00364992
-0.00364933
-4.85027e-06
-4.98815e-06
0.00364876
-0.00364817
-5.36808e-06
-5.43842e-06
0.00364756
-0.00364689
-6.07975e-06
-6.03602e-06
0.00364615
-0.00360649
-6.98943e-06
-6.84531e-06
0.00356766
-0.00350248
4.00779e-05
4.23697e-05
5.45162e-05
-8.58601e-05
-0.00347242
-0.00350174
5.37693e-05
5.1522e-05
-0.00356574
-0.00393297
-0.000357698
1.55231e-05
-0.00354632
0.0037168
-0.00372585
3.95978e-05
0.00371366
-3.15107e-06
4.15482e-05
-3.55685e-05
0.00368469
5.13176e-05
0.00367293
7.77403e-07
-0.00364323
1.40895e-06
-0.00364271
-0.000113915
-0.00373646
2.29157e-06
-0.00364199
3.50204e-06
-0.00364118
4.97215e-06
-0.00355439
7.41388e-05
-4.0287e-05
-0.00350627
3.25075e-05
-0.00346011
-0.003643
-0.00378996
0.00360867
-0.000155583
-0.000291735
0.000405393
-0.00404663
0.0039535
-0.00411525
-0.000129986
-0.000194153
-0.0034804
0.00354134
-5.4806e-05
-4.45991e-05
-0.00361147
0.00365097
2.52034e-05
8.88585e-06
-0.00365173
0.0036522
-5.303e-06
-5.89103e-06
-0.00365245
0.00365261
-5.00085e-06
-5.32651e-06
-0.00365277
0.00365298
-4.81573e-06
-5.15412e-06
-0.00365327
0.00365362
-4.48303e-06
-4.90679e-06
-0.00365402
0.00365445
-4.0539e-06
-4.52222e-06
-0.00365489
0.00365532
-3.6067e-06
-4.08488e-06
-0.00365575
0.00365615
-3.1868e-06
-3.65554e-06
-0.00365653
0.0036569
-2.81423e-06
-3.26683e-06
-0.00365724
0.00365757
-2.48258e-06
-2.9245e-06
-0.00365788
0.00365817
-2.18375e-06
-2.61722e-06
-0.00365845
0.00365872
-1.91895e-06
-2.34322e-06
-0.00365898
0.00365922
-1.68789e-06
-2.10287e-06
-0.00365944
0.00365966
-1.48436e-06
-1.89468e-06
-0.00365986
0.00366005
-1.29611e-06
-1.70701e-06
-0.00366024
0.00366041
-1.12244e-06
-1.5329e-06
-0.00366056
0.00366071
-9.63714e-07
-1.37424e-06
-0.00366084
0.00366096
-8.15274e-07
-1.22814e-06
-0.00366106
0.00366114
-6.83484e-07
-1.09247e-06
-0.00366121
0.00366128
-6.05013e-07
-9.88217e-07
-0.00366135
0.00366145
-5.95205e-07
-9.55302e-07
-0.00368776
0.0037011
2.48109e-05
-9.55718e-07
4.56513e-05
1.90696e-05
-4.17197e-05
0.00371195
-2.96485e-05
3.96175e-06
0.00371667
0.00370234
2.64428e-07
-1.92706e-07
0.00367509
0.00366215
1.35195e-07
-8.62506e-08
0.00367394
0.00366131
1.88704e-08
8.47873e-08
0.00367383
0.00366117
-4.34142e-05
3.28542e-05
0.00371403
0.00366191
0.00371037
0.00371568
-0.00371788
2.78489e-05
-0.0037078
0.00369183
5.924e-05
5.222e-05
0.00368915
-0.00366133
-5.55161e-07
-9.97252e-07
0.00366124
-0.00366119
-5.70188e-07
-1.05853e-06
0.00366115
-0.00366109
-6.06522e-07
-1.06898e-06
0.00366102
-0.00366093
-7.05288e-07
-1.13104e-06
0.00366082
-0.00366069
-8.41039e-07
-1.24557e-06
0.00366055
-0.00366039
-9.88123e-07
-1.38154e-06
0.00366022
-0.00366003
-1.14428e-06
-1.52502e-06
0.00365984
-0.00365963
-1.32071e-06
-1.68223e-06
0.00365941
-0.00365918
-1.52545e-06
-1.86531e-06
0.00365894
-0.00365868
-1.74877e-06
-2.07348e-06
0.00365841
-0.00365813
-1.98421e-06
-2.29433e-06
0.00365783
-0.00365751
-2.24489e-06
-2.53231e-06
0.00365717
-0.00365682
-2.54331e-06
-2.80299e-06
0.00365645
-0.00365606
-2.87903e-06
-3.11204e-06
0.00365565
-0.00365522
-3.25467e-06
-3.45843e-06
0.00365476
-0.00365428
-3.67429e-06
-3.84736e-06
0.00365377
-0.00365324
-4.13035e-06
-4.2783e-06
0.00365268
-0.00365208
-4.6e-06
-4.73591e-06
0.00365147
-0.00365084
-5.05779e-06
-5.193e-06
0.00365019
-0.00364953
-5.51452e-06
-5.63626e-06
0.00364885
-0.00364817
-6.05118e-06
-6.11006e-06
0.00364748
-0.00364678
-6.78281e-06
-6.72333e-06
0.00364606
-0.00364529
-7.75557e-06
-7.56653e-06
0.0035943
-0.00354536
-8.86509e-06
-8.6236e-06
0.00352283
-0.00352732
3.69989e-05
3.12377e-05
-0.000194105
2.71981e-05
-0.00356007
-0.00361871
7.68614e-05
-4.3354e-05
-0.00349361
-0.00346977
1.93176e-05
-3.09647e-08
-0.00355019
4.47177e-05
0.00367291
0.00372297
2.01787e-05
8.81016e-05
-0.00408477
-0.000118582
6.71991e-07
-0.00364249
0.000198519
-0.00415704
-3.68102e-05
-0.00362342
1.27941e-06
-0.0036417
-4.57103e-05
-0.00366355
2.27173e-06
-0.00364076
3.60841e-06
-0.00363982
5.18486e-06
-0.00359986
-3.21635e-05
-0.00351746
4.70322e-05
-4.73067e-05
-0.00349334
4.9941e-05
-0.00347268
-0.00364236
-0.00404309
0.0038771
3.60032e-05
-0.000213325
-0.00402777
0.000156325
0.00416075
-0.00406499
-0.000309088
-9.19506e-07
-0.00376634
0.0036823
-7.15435e-05
-8.33978e-05
-0.00364707
0.00360093
-8.6658e-06
-9.36724e-06
-0.00361802
0.00365046
-7.23445e-06
-8.20647e-06
-0.00365128
0.00365191
-5.93325e-06
-6.70843e-06
-0.00365237
0.00365273
-5.35874e-06
-5.79221e-06
-0.00365304
0.00365335
-5.12259e-06
-5.46188e-06
-0.00365368
0.00365403
-4.84014e-06
-5.23464e-06
-0.00365441
0.0036548
-4.44777e-06
-4.90048e-06
-0.0036552
0.0036556
-4.00291e-06
-4.48177e-06
-0.00365598
0.00365636
-3.56299e-06
-4.04173e-06
-0.00365672
0.00365707
-3.16046e-06
-3.62679e-06
-0.0036574
0.00365771
-2.7986e-06
-3.25349e-06
-0.00365801
0.0036583
-2.47257e-06
-2.91776e-06
-0.00365857
0.00365884
-2.18152e-06
-2.61723e-06
-0.00365909
0.00365932
-1.92415e-06