/*--------------------------------*- C++ -*----------------------------------*\
  =========                 |
  \\      /  F ield         | OpenFOAM: The Open Source CFD Toolbox
   \\    /   O peration     | Website:  https://openfoam.org
    \\  /    A nd           | Version:  10
     \\/     M anipulation  |
\*---------------------------------------------------------------------------*/
FoamFile
{
    format      ascii;
    class       surfaceScalarField;
    location    "9";
    object      phi;
}
// * * * * * * * * * * * * * * * * * * * * * * * * * * * * * * * * * * * * * //

dimensions      [0 3 -1 0 0 0 0];

internalField   nonuniform List<scalar> 
57492
(
-0.00543949
0.000120354
0.00116738
0.00415176
0.00285949
-0.0041455
-0.00415348
-0.000749813
0.00219733
0.00780873
-0.00925625
0.0386777
0.0295899
-0.00605257
-0.062215
-0.0831237
0.0348056
0.0869959
0.0169402
-0.0160605
-0.00814423
0.0072645
-0.0305284
0.00842758
-0.00490079
0.0270016
0.00608129
-0.0196694
0.0151289
-0.0418973
0.0399062
-0.0131378
0.0128064
0.0383188
-0.0359963
0.0075292
0.00228243
-0.00539724
-0.00441438
-0.000749993
0.0039902
0.00428899
-0.00509196
0.00460927
-0.000267299
0.000942539
-0.00375207
0.0343753
-0.0302154
-0.0126327
0.00847277
0.00181594
0.026226
0.00633342
-0.00162145
0.00611123
0.0345629
-0.0390527
-0.00552465
0.0340821
-0.0301789
0.00400641
-0.00829078
0.00428438
-0.0327831
0.0233629
0.0134266
-0.0462729
0.00488255
0.0336766
0.00771379
0.00898172
-0.0469675
-0.00828715
-0.000580079
0.00270741
-0.00151194
-0.000615387
0.00211396
-0.00291888
0.000224835
-0.0293176
0.0317023
0.00255213
-0.00493683
-0.0496654
0.0298186
-0.0094708
-0.0233516
0.00984966
0.0110943
0.00240762
-0.0162606
-0.00780054
0.000709571
-0.00792898
-0.0231118
0.0272979
0.00374291
-0.00926997
0.00282056
-0.00147956
0.0179486
-0.011637
-0.0108689
0.00455721
-0.0150834
0.0120944
0.0209376
-0.0224891
-0.038566
0.026135
0.0349201
-0.0416381
-0.0126249
0.0317739
-0.0181429
-0.00270637
0.0208492
-0.00580874
-0.0123341
-0.0278217
0.0353467
-0.0133337
0.00472866
-0.0174814
-0.0150689
-0.0140314
0.022459
-0.00760548
-0.0378593
0.0203454
0.0175139
-0.0731681
0.0353088
0.0580771
-0.0118509
0.00647075
-0.052697
0.0429993
0.00147591
0.013602
-0.0102217
0.0552776
-0.0569068
0.0320555
0.00571149
-0.0316857
0.0308999
-0.00374517
0.0358265
-0.0128343
-0.0263081
0.00331594
0.040504
0.00103396
0.0249062
-0.0143288
0.0203225
0.0114744
0.0404334
-0.0440409
-0.0042453
0.00315972
0.0451265
-0.0454371
-0.00100243
0.00239865
0.0112192
0.0406954
-0.0400616
-0.0118531
0.00831326
-0.0389914
-0.0184057
0.0401885
0.0305624
-0.0523452
0.0130108
0.0478329
-0.0792494
0.000634225
0.00282521
-0.000174126
-0.00328531
0.00317342
0.00207008
-0.0015058
0.00148914
0.00319008
0.00166411
-0.000344697
-0.0012003
0.00102618
-0.000237507
-0.000962794
0.0952249
0.0426814
-0.065692
-0.0722143
0.0361847
-0.0218191
0.0808593
-0.0848487
0.0361107
0.0849227
0.0217029
-0.0638701
0.0122188
-0.0307087
0.0241952
-0.00570527
0.02617
-0.0309468
0.0169956
0.00100688
-0.0010347
0.00014818
0.00172103
0.000453221
0.00470177
0.00117102
-0.0332884
0.0605453
0.0286512
-0.0559081
0.0386907
-0.045809
0.0234163
0.0551658
-0.0180368
0.135829
-0.00954929
-0.0416536
-0.0846258
0.0411058
0.0748394
0.0198835
0.0239509
-0.0519197
0.0690746
0.00137022
-0.00212003
0.00356755
0.0159222
0.0318089
-0.0130812
-0.0346499
0.0216589
0.00207201
0.00265145
-0.00118322
-0.00146823
0.00297398
-0.000322531
-0.0787
0.0393225
-0.0290713
0.0684488
-0.0687916
-0.0335231
0.0236148
-0.0372393
0.0324362
-0.0639885
0.0376428
-0.000724003
-0.0188835
-0.0180353
-0.0148873
0.042555
0.0099751
-0.0182613
-0.00183987
0.00521392
-0.0166703
-0.00231502
-0.00623425
-0.0293195
0.0099471
0.0029081
-0.000703818
-0.0121514
0.00500762
0.0106151
-0.0056756
-0.00764185
-0.00144487
0.0140943
-0.00534207
0.00060833
-0.00711394
0.00106805
-0.0154161
0.00918185
0.00220991
-0.017626
0.00250695
0.000467028
0.0465065
0.0310365
-0.00327585
0.0174196
-0.0540368
-0.00317066
0.0359232
-0.0265494
-0.00620311
-0.00498082
0.0414314
-0.0396213
0.034533
0.016786
-0.00240414
-0.0489149
-0.0131846
0.00765575
0.0400619
0.0412565
-0.0376551
-0.0143622
-0.028817
0.00995177
0.0332275
-0.0128487
0.0333128
-0.0348264
0.00225166
-0.0439173
-0.00379012
-0.00296673
0.000119152
-0.00182745
0.00225129
0.00243564
-0.00323274
0.00333795
-0.00193266
-0.00670438
-0.000673856
-0.00467767
0.00804587
0.00189264
-0.00526084
0.0180779
-0.0176222
-0.00513338
-0.00827921
0.0189985
0.0073586
-0.00348778
0.00325444
-0.0629224
0.0372524
0.0649925
0.0715179
-0.0244344
-0.0806066
-0.03056
0.0391554
-0.00231002
-0.0181226
-0.00267921
-0.0117683
0.000188352
0.00064531
-0.00402141
0.00183937
0.00153673
-0.00350157
0.00286724
0.00127964
-0.00646745
-0.00105553
-0.00539494
-0.00759402
0.00122061
-0.0154643
-0.00805328
-0.0168568
-0.017919
0.0213228
0.013453
0.0009639
0.00814147
-0.0259622
-0.0237232
0.00676806
-0.0496365
0.0194545
-0.00260111
-0.050564
0.00617127
-0.00524372
0.00216976
-0.0368612
0.0325659
0.00212553
0.00190777
-0.0341157
0.0343777
0.00240857
-0.112438
-0.0279217
0.0358203
0.0366843
-0.0451515
0.0378871
-0.00524677
0.00278819
-0.00423305
0.00284953
-6.13399e-05
0.00668952
-0.00131618
0.061673
-0.037234
-0.0264146
0.00197566
0.052761
-0.00130973
0.0554695
0.0152776
-0.0577363
0.0307406
0.04265
-0.017921
0.0139143
-0.0274985
0.0443248
6.55505e-05
0.00278397
0.0131056
-0.0402153
-0.042169
0.0242111
0.05078
0.0193213
-0.000968309
-0.0202141
0.00186111
0.00638078
-0.00214283
-0.0248815
0.00482644
0.0321495
0.00387643
-0.0223772
-0.00322323
0.00089507
0.00283718
-0.00217923
-0.000837843
0.000179889
-0.000679267
-4.35565e-05
0.00356
-0.000381618
0.00725859
-0.00755624
-0.0113328
0.0220515
-0.00821179
0.0607226
-0.0527567
-0.0192986
-0.000507899
-0.0320282
0.0373626
-0.0697674
-0.00171714
-0.0513169
-0.025825
0.00737448
0.031548
0.0258182
-0.0524837
0.0205083
0.0471223
-0.0360826
0.0189512
-0.0322867
0.0186121
-0.00527669
0.0206685
-0.0312909
0.0295737
0.0447437
0.0147511
0.0457563
-0.000498566
-0.0454812
0.00022346
0.0507324
-0.00441631
-0.000559781
0.0503032
-0.00877693
0.00156937
-0.0430956
0.0359009
-0.0131303
0.0275326
0.0405284
-0.0115189
0.00922205
-0.0382316
0.0104067
0.0411374
-0.0110157
-0.0368396
-0.0139144
0.0392351
0.00835557
-0.0352435
-0.0149206
0.0342337
-0.0191868
-0.0311659
0.0171746
0.0331782
-0.0194625
-0.0317329
0.0320085
0.0179225
0.029993
-0.0108373
-0.0370782
0.0295694
-0.0311094
-0.0210043
0.0210974
0.0294763
-0.0164896
0.0254783
-0.0394943
0.0348812
-0.00622415
-0.0509448
0.00546058
0.0521786
-0.00669442
0.0143072
0.0033368
-0.000827422
0.000284813
-0.00279419
0.00350927
0.00373879
-0.00391126
0.00041694
-0.00245104
-0.00467027
-0.0231972
-0.0338909
0.0210358
0.000703129
-0.000746686
-2.99412e-05
0.000733071
-0.00402551
-0.039139
0.0288358
-0.0330661
-0.00334843
0.032389
0.00238019
-0.034591
-0.000855252
-0.00306997
0.0155968
0.00339213
-0.015919
0.016227
0.00321257
-0.0225095
0.0150837
0.0167402
0.00021364
-0.000510845
-0.00266953
-0.000630002
0.000843642
-0.00114085
0.000279665
-0.000407641
0.00179209
-0.000273837
0.000553502
-0.000681479
0.00115508
-9.16704e-05
0.00105055
-0.00104901
0.00220409
-0.00114068
0.00207754
-0.000175374
-0.00538995
-0.000756405
0.00283395
-0.000931779
0.016271
0.0334632
-0.0420785
0.0112262
-0.042863
0.0479078
0.0492521
-0.00456272
-0.0133921
-0.0250554
0.0132897
0.0251578
-0.00615863
0.0267493
-0.0339827
0.00301141
-0.0342255
0.0370073
-0.0371377
-0.000300156
0.000430599
0.037204
0.000242139
-0.000438809
-0.000504228
-0.036851
0.000217438
0.0376828
-2.02766e-05
-0.000458526
0.0385548
0.000616405
-0.00148842
0.000416543
0.0397084
-0.00157012
0.0391529
-0.038752
1.56188e-05
-0.00164349
0.0417475
-0.00039561
0.0382193
-0.000709849
-0.037393
-0.000742558
-0.0370866
-0.000326655
-0.0368523
7.77935e-06
-0.0374503
0.000297861
-0.0366353
-0.00131923
-0.00154137
0.0437322
-0.00044341
0.036573
0.0001049
-0.000552958
-0.036299
9.56798e-07
-0.0367327
-0.000455538
-0.000729826
-0.0381353
0.00256617
0.000310615
0.0439074
-0.000485759
0.0367197
0.000163876
-0.0378661
0.00040351
0.0440666
0.000362922
-0.000522179
0.000404028
0.0442151
-0.0005525
0.0368537
0.00022902
0.0369823
0.000275358
-0.000781425
-0.0376322
0.000278314
-0.0378285
-0.000818957
0.00044501
0.044346
-0.000575922
0.0370972
0.000330109
-0.000683268
-0.037333
0.000384034
-0.0375785
-0.000933316
0.000475148
0.0444651
-0.000594252
0.0372087
0.000363713
-0.0007902
-0.0370167
0.000473993
-0.037314
-0.0010547
0.000507067
0.0445636
-0.000605551
0.037308
0.000407711
-0.000904133
-0.0366923
0.000579651
-0.0370448
-0.00117329
0.000530178
0.0446464
-0.000612917
0.0374095
0.000428716
-0.00101483
-0.0363507
0.000673285
-0.0367593
-0.00130033
0.000560713
0.0446993
-0.000613651
0.0375084
0.000461815
-0.00104426
-0.0360847
0.000778289
-0.0363824
-0.00142114
0.000591887
0.0447189
-0.000611492
0.0376298
0.0004705
-0.0010107
-0.0347164
-0.000357673
-0.0354635
-0.0019296
0.000650894
0.0446717
-0.000603672
0.0376074
0.000673281
-0.00114216
-0.0345034
0.000929198
-0.0349076
-0.00169808
0.000748106
0.0445171
-0.000593514
0.0373897
0.000965803
-0.00100053
-0.0329332
-0.000569689
-0.0335941
-0.00231404
0.00246318
0.042633
-0.00057911
0.0385717
0.00128119
-0.00105813
-0.0324072
0.000532153
-0.0329227
-0.00172954
0.00223692
0.0395298
0.000866277
0.0392431
0.00156549
-0.000866898
0.000106915
-0.0316472
-0.032491
-0.00129856
0.000659217
-0.0001888
0.0390594
0.0390204
0.000881875
-0.0324853
0.0334492
-0.000431726
-0.0321912
-0.000187218
-0.000393263
0.00017297
-0.0314269
-0.00146442
-0.0314199
-0.0331686
0.0338427
0.000255139
-0.000289152
-0.0329845
0.0333385
0.000424234
0.000500534
-0.0336758
0.0339997
0.000255746
0.000336068
-0.0343071
0.0346035
8.76464e-05
0.000166559
-0.0348826
0.0375232
-7.44006e-05
-8.35675e-07
-0.0376796
0.0374016
0.000495451
-0.000155457
-0.038848
0.0387694
-0.000360186
-0.00101577
-0.037722
0.03737
-0.00113641
0.000588823
-0.036665
0.0368336
-0.000564176
-0.000865117
-0.0369897
0.0371339
-0.000629918
-0.000599555
-0.0372642
0.0373824
-0.000670702
-0.000652534
-0.0374872
0.03758
-0.000687079
-0.000680685
-0.03766
0.0377287
-0.000681577
-0.000685545
-0.0377857
0.0378326
-0.000658451
-0.000670633
-0.0378695
0.0378986
-0.000622573
-0.000640603
-0.0377044
0.0385845
-1.38451e-05
-0.000384886
0.0384855
-8.98235e-05
0.000295142
0.000212934
0.0385513
0.000470354
0.0388452
0.0385619
-0.0378808
0.000600053
-0.0389716
0.0389181
0.000935379
0.00115575
0.0378316
-0.0375952
0.000436849
0.000916674
0.0375326
-0.0374613
0.000390492
0.000407912
0.0373825
-0.0372946
0.00031987
0.000349919
0.0371994
-0.0370953
0.00022604
0.000268462
0.0369846
-0.0368659
0.000110363
0.000164617
0.0367419
-0.0366116
-2.54386e-05
3.98574e-05
0.0372171
-0.0370212
-0.00018031
-0.000104293
0.0374948
-0.0369354
-0.000886094
-0.00026896
0.0365429
-0.0361584
-8.66289e-05
-0.000384655
0.036445
-0.0365175
-0.00038305
-0.00103265
0.0352394
-0.0350655
-0.00099287
-0.000874554
0.0348875
-0.0347026
-0.00123967
-0.00111131
0.0345119
-0.0343121
-0.00150012
-0.00136397
0.0341044
-0.0342627
-0.00177128
-0.00162879
0.0340581
-0.0343226
-0.00204951
-0.00190274
0.0338694
-0.0331284
-0.00203956
-0.00218275
-0.0325564
-0.00203644
-0.0319294
-8.88262e-05
0.0386103
8.81802e-05
0.000472431
0.0389161
-0.00117863
0.000949756
-0.031191
-0.00166082
-0.0320742
-0.000475963
1.2264e-05
-0.0314657
-0.0309532
-0.0329508
0.032867
-0.00034795
0.0328463
-0.0326113
-0.000323729
-0.000291727
-0.0328676
0.0332672
-0.000144463
-0.00028977
-0.0336343
0.0339872
7.12774e-05
0.00013346
-0.0343227
0.0346444
-6.59206e-05
6.04777e-07
-0.0349487
0.0352405
-0.000204108
-0.000137794
-0.0355135
0.0357754
-0.000336302
-0.000273884
-0.0360201
0.0369732
-0.000457636
-0.000400122
-0.0364695
0.0366723
-0.000562961
-0.000512081
-0.0378693
0.0373817
-0.000648823
-0.000608169
-0.0371997
0.0373494
-0.00071388
-0.000683164
-0.0374859
0.0376105
-0.000754443
-0.000736084
-0.0377215
0.0378203
-0.0007695
-0.000763546
-0.0379057
0.037979
-0.000760378
-0.000766123
-0.0380395
0.0380885
-0.000730506
-0.00074606
-0.0381258
0.0381528
-0.000685445
-0.00070797
-0.0381701
0.0381788
-0.000631316
-0.00065789
-0.0381739
0.0384627
-0.000302643
-0.000379987
-0.000429683
0.000337723
0.0386433
-0.000489431
0.03867
-0.0383265
0.0386807
-0.00026611
4.64368e-05
0.0385645
-0.0385505
0.000921443
0.0382747
0.000762178
-0.000494857
0.000913532
0.0384974
0.0386881
0.0385298
-0.0382108
0.000280961
0.00113506
0.0378409
-0.0377956
0.000391583
0.000546791
0.0377441
-0.0376855
0.000331873
0.0003564
0.0376205
-0.0375481
0.000247498
0.000284946
0.0374698
-0.0373846
0.00014081
0.000190125
0.0372944
-0.0371984
1.44179e-05
7.44398e-05
0.0370989
-0.0369948
-0.000129525
-5.96752e-05
0.0368881
-0.0367776
-0.000290814
-0.000211039
0.0366667
-0.0370831
-0.000469726
-0.000379816
0.0369014
-0.036321
-0.000667061
-0.000566354
0.0365817
-0.0360812
-0.000883498
-0.000771907
0.0359593
-0.0358328
-0.0011194
-0.000996488
0.0357038
-0.0355699
-0.00137356
-0.00124028
0.0354318
-0.0352867
-0.00164522
-0.0015021
0.035135
-0.0349736
-0.00193269
-0.00178051
0.0348026
-0.0346182
-0.00223395
-0.00207368
0.034421
-0.0339151
-0.00254548
-0.00237992
0.0335264
-0.0329057
-0.00228147
-0.00242516
-0.0323093
-0.00028977
-0.0019614
0.001192
-0.0313048
-0.0325095
-0.0023576
0.000361289
-0.0303603
-0.000247491
0.0384388
0.0383437
0.00084454
0.000592126
-0.000912704
-0.0311451
6.4942e-05
-0.0317821
-0.00230269
0.00135421
-0.0303563
-0.00277024
-0.032042
-0.0315046
0.039042
-0.0389742
-0.000333851
0.0386019
0.000192639
0.00112328
-0.000747007
0.0381211
0.000870497
0.0385965
-0.0328818
0.0337294
-0.000782676
-0.000334261
-0.000402135
-0.0310457
0.0330985
-0.00126135
0.00271744
-0.0345546
-0.000117584
-0.0341727
0.0343607
-0.000511739
-0.000733014
-0.0343388
0.0341948
-0.000203965
-0.000269834
-0.0343216
0.0343343
-0.000157161
-0.000416611
-0.0346738
0.0349998
-0.000254682
-0.000206044
-0.0353087
0.0356036
-0.00036074
-0.000308353
-0.0358814
0.0361454
-0.000468153
-0.000415617
-0.0363922
0.0366261
-0.000570214
-0.000520609
-0.0368433
0.0370471
-0.000661352
-0.000617398
-0.0372362
0.0374117
-0.000738449
-0.000701256
-0.0375724
0.0377212
-0.000797666
-0.00076882
-0.0378561
0.0379786
-0.000836374
-0.000818054
-0.0380879
0.0381856
-0.000852086
-0.000845408
-0.0382705
0.0383437
-0.000842679
-0.000848445
-0.0384043
0.0384532
-0.00080929
-0.000826755
-0.03849
0.0385155
-0.000756014
-0.000782888
-0.03853
0.0385343
-0.000689692
-0.000722447
-0.0385293
0.038516
-0.000618007
-0.000652959
-0.0385982
0.0386275
-0.000331882
-0.000462197
-0.000300343
-0.00023402
0.000371757
0.0385055
8.05033e-05
-0.000358371
0.0387167
0.0385165
0.0383128
0.0386796
-0.0386266
0.000868435
-0.0386324
0.0384307
0.00104624
0.0008094
0.0381647
-0.0382892
0.000405498
0.000673131
0.0381202
-0.0380901
0.000361492
0.000377773
0.0380545
-0.0380128
0.00029018
0.000320779
0.0379655
-0.0379122
0.000194143
0.000237708
0.0378539
-0.0377902
7.71282e-05
0.000131829
0.0377228
-0.0376512
-5.71132e-05
7.01718e-06
0.0375774
-0.0375008
-0.000206168
-0.000133514
0.0374232
-0.037344
-0.000370022
-0.000288566
0.0372649
-0.0371847
-0.000549975
-0.000458902
0.0371049
-0.0370242
-0.000747755
-0.00064614
0.0369433
-0.0368611
-0.000965684
-0.000852786
0.0367781
-0.0366928
-0.0012047
-0.00107957
0.0366053
-0.036514
-0.00146487
-0.00132776
0.036419
-0.0363182
-0.00174596
-0.00159709
0.0362117
-0.036097
-0.00204736
-0.0018871
0.0359737
-0.0358395
-0.00236811
-0.00219699
0.0356939
-0.0355331
-0.00270621
-0.00252555
0.0350882
-0.0343117
-0.00305794
-0.00287011
0.0338127
-0.0337523
-0.00283061
-0.00285663
-0.00277348
0.00254577
-0.0318143
-0.0333912
-0.00313465
-0.000740752
-0.0308065
0.00143101
-0.0304371
-5.09903e-05
0.0382945
0.0385631
0.000738037
-5.81466e-05
-0.0322489
0.00268245
-0.030493
0.00583675
-0.0263293
0.0355762
0.00297737
-0.00341696
-0.0329516
0.00239715
-0.031234
-0.0229466
0.0347589
0.00492792
-0.0175805
-0.00197393
-0.0308143
-0.0332037
0.0348585
0.00106264
0.00257683
-0.00102165
-0.0349035
0.0349941
-0.000873224
-0.000162642
-0.0350964
0.0349739
-0.000389213
-0.000835319
-0.0351014
0.0353097
-0.000412295
-0.000397373
-0.0353287
0.0356356
-0.000464087
-0.000435559
-0.0359273
0.0362062
-0.000533634
-0.000497731
-0.0364699
0.0367203
-0.000611179
-0.000571971
-0.0369551
0.0371766
-0.00068967
-0.000650434
-0.0373826
0.0375755
-0.000763087
-0.000726614
-0.0377532
0.0379184
-0.000826546
-0.000795129
-0.0380692
0.0382076
-0.00087686
-0.00085199
-0.0383329
0.0384465
-0.000911177
-0.00089418
-0.0385476
0.0386377
-0.000926472
-0.000919187
-0.038716
0.0387836
-0.000919703
-0.000923689
-0.0388399
0.0388856
-0.000888345
-0.00090476
-0.03892
0.0389437
-0.00083298
-0.000861244
-0.0389565
0.0389586
-0.000758099
-0.00079563
-0.0389505
0.0389325
-0.00067177
-0.000714344
-0.0389061
0.0388715
-0.000583411
-0.000626471
-0.0389504
0.03912
-0.000501546
-0.000541121
-0.0389685
0.0388841
-0.000249452
-0.000148753
-0.0389732
0.0388613
6.09419e-05
0.000103471
0.000100573
0.000153671
0.0384624
7.77378e-05
-0.000282419
0.039066
0.0384728
-7.6619e-05
0.000591923
0.0379902
0.0385936
-0.00068606
0.000586864
0.0382203
0.0382187
-0.000627356
0.00043663
0.0387539
0.038556
0.0390197
-0.0388922
0.000918672
-0.0396176
0.0385324
0.00152188
0.00014014
0.0388019
-0.0387275
0.000794018
0.000719164
0.0384621
-0.0384582
0.000401651
0.000407674
0.03845
-0.0384366
0.000348081
0.000369527
0.0384181
-0.0383941
0.0002662
0.000302337
0.0383651
-0.0383306
0.000159702
0.000208616
0.0382918
-0.0382486
3.38941e-05
9.30049e-05
0.0382023
-0.038153
-0.000106396
-3.92651e-05
0.0381022
-0.0380497
-0.000258599
-0.000184341
0.0379971
-0.0379439
-0.000423166
-0.000341214
0.0378913
-0.0378387
-0.000602587
-0.000511525
0.0377866
-0.0377343
-0.000800074
-0.000698247
0.0376823
-0.0376294
-0.00101867
-0.000904716
0.0375758
-0.0375204
-0.00126007
-0.00113316
0.0374632
-0.0374029
-0.00152517
-0.00138496
0.0373394
-0.0372711
-0.00181421
-0.00166064
0.0371979
-0.0371181
-0.00212716
-0.0019603
0.0370313
-0.0369358
-0.00246364
-0.00228376
0.036831
-0.0367148
-0.00282244
-0.00263032
0.0365866
-0.0364433
-0.00320128
-0.00299828
0.0359157
-0.0351509
-0.00359545
-0.00338419
0.03509
-0.0347977
-0.00370928
-0.00319555
-0.00351515
0.00329547
-0.0327319
-0.0343495
-0.00396334
-0.000840491
-0.0300241
0.00200285
-0.0297575
0.00107268
-0.0274849
0.00276725
-0.0308631
0.0391356
-0.0392647
0.000190012
0.0389179
-6.47076e-05
0.000863391
-0.000701331
0.0385918
0.00051381
0.038882
0.00148872
-0.0246054
0.00332247
-0.031261
-0.0155844
-0.0179151
-0.0285006
0.0329053
0.000523307
-0.0035147
0.00337001
-0.0325872
-0.00388377
-0.0339804
-0.0260821
-0.00439252
-0.0296519
-0.0345529
0.0352652
0.000350266
0.000929237
-0.0358715
0.0357231
-0.000724853
-0.000768901
-0.0355866
0.035885
-0.000687588
-0.000698815
-0.0361714
0.036447
-0.00068798
-0.000683745
-0.0367099
0.0369607
-0.0007149
-0.000698395
-0.0371978
0.0374231
-0.000758942
-0.00073487
-0.0376346
0.0378339
-0.000810522
-0.000783422
-0.0380193
0.0381925
-0.000862837
-0.000835802
-0.0383519
0.0384992
-0.000910415
-0.000886014
-0.0386333
0.0387558
-0.000949059
-0.000929213
-0.0388658
0.0389648
-0.000975888
-0.000961951
-0.0390523
0.0391296
-0.000988447
-0.000981725
-0.0391963
0.0392535
-0.000983704
-0.000985902
-0.0393009
0.0393392
-0.000957976
-0.000971082
-0.0393681
0.0393878
-0.000908036
-0.00093361
-0.039398
0.0393987
-0.000833707
-0.000871489
-0.0393899
0.0393714
-0.00073958
-0.000786821
-0.0393437
0.0393068
-0.000634853
-0.000686644
-0.0392619
0.0392093
-0.000530859
-0.000581593
-0.0391509
0.0390867
-0.000437368
-0.000482632
-0.0393359
0.039128
-4.16191e-05
-0.000397928
-3.32218e-05
4.2575e-06
-0.000236483
0.0386947
0.000199935
-3.23392e-05
0.0388984
0.038677
-0.000411359
0.000399178
0.0380024
0.0379457
-0.000756532
0.000928764
0.0380481
0.0378613
0.0387834
0.0392904
-0.0391981
0.000826388
-0.038771
0.0391481
0.00114477
0.000659496
0.0391041
-0.038754
0.000443959
0.000625136
0.0387694
-0.0387808
0.000413046
0.000423076
0.0387879
-0.0387901
0.000350267
0.000376585
0.038787
-0.0387787
0.000257811
0.000299331
0.0387651
-0.0387466
0.000141131
0.000195085
0.0387237
-0.0386969
7.09522e-06
7.01663e-05
0.0386673
-0.0386353
-0.00013844
-6.88616e-05
0.038602
-0.0385676
-0.000292941
-0.00021764
0.0385333
-0.0384988
-0.000457612
-0.000375587
0.038465
-0.0384313
-0.000636215
-0.00054539
0.0383982
-0.038365
-0.000833255
-0.000731376
0.0383319
-0.0382982
-0.00105244
-0.000937796
0.0382637
-0.0382277
-0.00129602
-0.00116763
0.0381902
-0.0381502
-0.00156515
-0.00142251
0.0381076
-0.0380614
-0.00186038
-0.00170324
0.0380115
-0.0379566
-0.002182
-0.00201025
0.0378967
-0.0378303
-0.00253
-0.00234373
0.0377573
-0.0376761
-0.00290366
-0.00270335
0.0375863
-0.0374862
-0.00330138
-0.00308806
0.0373746
-0.0372484
-0.00372164
-0.00349576
0.0365189
-0.0360697
-0.00415848
-0.00392507
0.0356651
-0.0352788
-0.00426999
-0.00436799
-0.00380023
0.00379627
-0.0339765
-0.0350079
-0.0040712
-0.00108752
-0.0278639
0.00226494
-0.0292552
0.000215705
0.0386699
0.0389687
0.000693213
3.57701e-05
-0.0260319
-0.0037048
-0.0343891
-0.00106444
-0.0272458
0.00284798
-0.0303886
0.00342363
-0.0313146
-0.0364816
-0.00751556
0.00183612
-0.00488199
-0.0334358
-0.00219336
-0.0303597
0.00350619
-0.0322971
-0.00431326
0.0035571
-0.0332203
-0.00413603
-0.0351851
-0.0284745
-0.0326312
0.0343084
-0.00115382
0.0339763
-0.0368165
-0.00467534
-0.00304749
-0.0355708
0.0363001
-0.000378994
-0.000333229
-0.0365671
0.0368274
-0.000985197
-0.00103592
-0.0370765
0.0373146
-0.000925755
-0.000947849
-0.0375417
0.0377593
-0.000905535
-0.000910833
-0.037965
0.0381604
-0.00091026
-0.000904136
-0.0383435
0.0385157
-0.000931197
-0.000917965
-0.0386757
0.0388247
-0.000959541
-0.000943364
-0.0389615
0.0390874
-0.000988767
-0.000972605
-0.0392015
0.0393049
-0.00101385
-0.00100005
-0.039397
0.0394791
-0.0010311
-0.00102134
-0.0395506
0.0396128
-0.00103806
-0.0010335
-0.0396654
0.0397095
-0.00103254
-0.00103437
-0.0397451
0.0397729
-0.00101148
-0.00102147
-0.0397929
0.0398055
-0.000970593
-0.000991097
-0.0398107
0.0398084
-0.000905707
-0.000938796
-0.0397984
0.0397804
-0.000815685
-0.000861541
-0.0397544
0.0397197
-0.000704927
-0.000760776
-0.039677
0.0396257
-0.000583581
-0.000643901
-0.0395671
0.0395011
-0.000464836
-0.000523
-0.0394295
0.0393528
-0.000360644
-0.000411049
-0.0392726
0.0395092
-0.000278154
-0.00031779
-0.0394478
0.0394493
0.000188558
2.81039e-05
-0.0388374
0.0389174
0.000135702
0.000547164
0.000348819
-0.000131762
0.0386813
0.000102847
-0.000244176
0.0390587
0.0391216
0.000105452
0.000383992
0.0382052
0.0386507
-0.000382616
0.00037114
0.0380139
0.0379471
-0.000354713
0.000338364
0.0380644
0.0378778
-0.000620054
0.000571004
0.0386408
0.0385018
-0.000523812
0.000602194
0.0388904
0.0389292
0.039483
-0.0390791
0.000740908
-0.0392623
0.038985
0.000879524
0.000913879
0.0391911
-0.0391456
0.000780875
0.000771504
0.0389926
-0.0390246
0.000475988
0.0004721
0.0390525
-0.0390768
0.000437375
0.000450965
0.0390961
-0.0391105
0.000364583
0.000395888
0.0391191
-0.0391222
0.000260941
0.000307984
0.0391199
-0.0391125
0.000133702
0.000192735
0.0391006
-0.0390848
-8.67429e-06
5.83169e-05
0.0390663
-0.0390454
-0.000159295
-8.74164e-05
0.0390233
-0.0390003
-0.00031595
-0.000239754
0.0389772
-0.0389541
-0.000480753
-0.000398691
0.0389313
-0.0389088
-0.00065875
-0.000568109
0.0388866
-0.0388644
-0.00085552
-0.00075357
0.038842
-0.0388191
-0.00107532
-0.000960129
0.0387956
-0.038771
-0.00132063
-0.00119112
0.0387453
-0.0387178
-0.0015926
-0.00144828
0.0386886
-0.0386572
-0.00189186
-0.00173242
0.0386233
-0.0385865
-0.00221886
-0.0020441
0.0385465
-0.0385027
-0.00257379
-0.00238367
0.038455
-0.0384023
-0.00295632
-0.00275112
0.0383445
-0.0382805
-0.00336548
-0.00314582
0.0382095
-0.038131
-0.00380016
-0.00356667
0.0380444
-0.0379455
-0.00425741
-0.00401169
0.0378342
-0.0373684
-0.00473575
-0.00447929
0.0369269
-0.0362853
-0.00477768
-0.00451268
-0.00483207
0.00429823
-0.0346513
-0.0361638
-0.00495357
-0.00134214
-0.026486
-0.0367573
-0.00494114
-0.000959571
-0.0261368
0.0395913
-0.039783
0.000327328
0.0394704
-0.000123264
0.00079071
-0.000690905
0.0387905
0.000933616
0.0388421
0.00230463
-0.0287119
0.00290575
-0.0298707
-0.00117827
-0.0282609
0.00352042
-0.0313289
0.00413117
-0.0328712
0.00472928
-0.0336513
-0.00489294
0.00490437
-0.0346627
-0.00540122
-0.0356555
-0.027512
-0.0379355
0.0364854
-0.00322522
-0.00437312
0.00500913
-0.0373933
0.039152
-0.0403329
-0.00319216
-0.0037247
-0.0354017
0.0362223
-0.00197445
-0.00196379
-0.0371262
0.0377258
-0.000978547
-0.00123713
-0.0379327
0.0381336
-0.00118614
-0.00124285
-0.0383254
0.0385089
-0.00110919
-0.00113964
-0.0386824
0.0388472
-0.0010703
-0.00108436
-0.0390016
0.0391466
-0.00105529
-0.00105854
-0.0392809
0.0394054
-0.00105576
-0.00105224
-0.0395193
0.0396235
-0.00106372
-0.0010572
-0.0397172
0.0398014
-0.001073
-0.00106631
-0.0398756
0.0399407
-0.00107896
-0.00107425
-0.0399964
0.0400437
-0.00107834
-0.00107708
-0.0400824
0.0401133
-0.00106902
-0.0010722
-0.0401367
0.0401532
-0.00104905
-0.00105776
-0.0401632
0.040167
-0.00101529
-0.0010314
-0.040165
0.0401572
-0.00096283
-0.000989074
-0.0401439
0.0401246
-0.000886449
-0.000925463
-0.0400995
0.0400677
-0.000783892
-0.000836389
-0.0400293
0.0399835
-0.000659121
-0.000722432
-0.0399307
0.0398701
-0.000523011
-0.00059111
-0.039803
0.0397286
-0.000390526
-0.000455803
-0.0396492
0.0395643
-0.000275753
-0.000331573
-0.0394767
0.039386
-0.000187452
-0.000230209
-0.0395713
0.0396177
0.000142191
-0.000157202
0.000381858
-9.06276e-05
-0.000107363
0.0388793
-8.28863e-05
-0.0001254
0.039267
0.038948
-0.000345019
0.000355612
0.0381946
0.0381983
-0.000353483
0.000342008
0.0380254
0.0379492
-0.000326134
0.000310782
0.0380798
0.0378936
-0.000753121
0.00064612
0.0387478
0.0380594
0.0388844
0.0396032
-0.03968
0.000817664
-0.0394654
0.0392464
0.00109848
0.0010517
0.0394172
-0.0391638
0.000527463
0.00050873
0.0392076
-0.0392488
0.000517244
0.000515884
0.0392859
-0.0393189
0.00047037
0.000488072
0.0393463
-0.0393683
0.00038656
0.000423288
0.0393841
-0.039394
0.000270838
0.000323745
0.039398
-0.0393967
0.000132421
0.000196744
0.0393907
-0.0393809
-1.85286e-05
5.2356e-05
0.039368
-0.0393528
-0.000174451
-0.000100287
0.0393363
-0.0393189
-0.000333373
-0.000256261
0.0393013
-0.0392835
-0.000498492
-0.000416324
0.0392661
-0.0392487
-0.000676095
-0.000585567
0.0392317
-0.0392145
-0.000872646
-0.000770653
0.0391974
-0.0391799
-0.00109279
-0.000977259
0.0391622
-0.0391438
-0.00133897
-0.00120888
0.039125
-0.0391053
-0.00161226
-0.00146714
0.039085
-0.0390636
-0.0019132
-0.00175278
0.0390414
-0.039018
-0.00224227
-0.00206632
0.0389935
-0.0389675
-0.00259978
-0.00240819
0.03894
-0.0389107
-0.00298568
-0.00277856
0.0388793
-0.0388452
-0.00339954
-0.0031772
0.0388083
-0.0387679
-0.00384055
-0.00360357
0.0387233
-0.0386734
-0.00430732
-0.00405631
0.0386179
-0.0385555
-0.00479813
-0.0045348
0.0380351
-0.0375072
-0.00530558
-0.00503318
0.0372857
-0.0373035
-0.00538335
-0.00517507
-0.00260286
0.000539472
-0.0282963
-0.0310295
-0.00528085
0.00540909
-0.0357837
-0.0367446
-0.00583975
-0.00168444
-0.0257611
0.000388009
0.038957
0.0395262
0.000653805
0.00262065
-0.0397069
-0.00324665
0.00231825
-0.0281243
0.00321885
-0.0379915
-0.00124417
-0.0260709
0.00295656
-0.0293069
-0.000548922
-0.0271725
0.00360468
-0.0308024
0.00425212
-0.032394
0.00487973
-0.0336267
0.00515196
-0.0344056
-0.0057928
0.00556884
-0.0355598
-0.00584815
-0.0366893
-0.0268782
-0.0414982
0.0400571
-0.00175101
-0.0043714
-0.0387673
0.00343176
0.0423912
-0.0410682
-0.00569446
-0.00235363
-0.0391618
0.038513
-0.00257638
-0.00282949
-0.0383204
0.0380021
-0.00165617
-0.00177119
-0.0383214
0.0388207
-0.00147783
-0.00155639
-0.0389787
0.039132
-0.00133951
-0.00140085
-0.0392777
0.0394159
-0.00124736
-0.00128535
-0.0395451
0.0396662
-0.00119141
-0.00121358
-0.0397781
0.0398815
-0.00115868
-0.00117043
-0.0399755
0.0400607
-0.00114104
-0.00114618
-0.0401368
0.0402043
-0.00113122
-0.00113321
-0.0402629
0.0403133
-0.00112343
-0.00112492
-0.0403554
0.0403898
-0.00111336
-0.00111633
-0.0404165
0.0404363
-0.00109807
-0.00110384
-0.0404492
0.0404559
-0.00107573
-0.00108515
-0.0404568
0.0404523
-0.00104455
-0.00105865
-0.0404429
0.0404289
-0.00100127
-0.00102203
-0.0404107
0.0403882
-0.000940346
-0.000970885
-0.0403618
0.0403308
-0.000855448
-0.000898992
-0.0402954
0.0402546
-0.000743145
-0.000800979
-0.0402086
0.0401563
-0.000606803
-0.000676458
-0.0400981
0.0400329
-0.000457803
-0.000532866
-0.0399617
0.0398839
-0.000312727
-0.000384672
-0.0398013
0.0397133
-0.000187816
-0.00024891
-0.0396226
0.039529
-9.38243e-05
-0.000139453
-0.0394348
0.0396108
-3.37445e-05
-6.3086e-05
-0.0398056
0.0397473
0.000385594
0.000187072
-0.0391452
0.0391218
0.00041145
0.000478841
0.000467022
-0.000141161
0.0389412
-0.000139293
0.000140577
0.0391205
0.0392848
0.00010913
0.000297094
0.0384731
0.038916
-0.000318892
0.000327317
0.0381862
0.0381765
-0.000323994
0.000312238
0.0380371
0.0379525
-0.000296665
0.000281867
0.0380946
0.0379092
-0.000272187
0.000685262
0.0383348
0.0380691
-0.000639392
0.000578799
0.0388511
0.0389303
-6.93835e-05
0.000638555
0.0389571
0.0393515
0.0396793
-0.0394808
0.000899915
-0.0394059
0.0394305
0.000613942
0.000927197
0.0394661
-0.0392094
0.000560868
0.0010371
0.0392631
-0.0393157
0.000580039
0.000562528
0.0393651
-0.0394117
0.000563936
0.000565216
0.0394536
-0.0394909
0.000507657
0.000529965
0.0395221
-0.0395473
0.000411809
0.000454429
0.0395659
-0.0395783
0.000283211
0.000342321
0.0395845
-0.0395852
0.000133137
0.000202939
0.0395811
-0.039573
-2.66228e-05
4.82593e-05
0.0395618
-0.0395484
-0.000187927
-0.000111424
0.0395335
-0.0395177
-0.000349185
-0.000271112
0.0395017
-0.0394855
-0.000514686
-0.000432381
0.0394695
-0.0394538
-0.000691862
-0.000601483
0.0394384
-0.0394231
-0.000887922
-0.000786061
0.0394081
-0.0393931
-0.00110775
-0.000992269
0.0393784
-0.0393636
-0.0013537
-0.00122364
0.0393491
-0.0393348
-0.00162662
-0.00148163
0.0393207
-0.039307
-0.00192695
-0.00176681
0.0392937
-0.0392809
-0.00225511
-0.00207959
0.0392686