/*--------------------------------*- C++ -*----------------------------------*\
  =========                 |
  \\      /  F ield         | OpenFOAM: The Open Source CFD Toolbox
   \\    /   O peration     | Website:  https://openfoam.org
    \\  /    A nd           | Version:  10
     \\/     M anipulation  |
\*---------------------------------------------------------------------------*/
FoamFile
{
    format      ascii;
    class       volScalarField;
    location    "11";
    object      p;
}
// * * * * * * * * * * * * * * * * * * * * * * * * * * * * * * * * * * * * * //

dimensions      [0 2 -2 0 0 0 0];

internalField   nonuniform List<scalar> 
6397
(
0.264884
0.253285
0.0107417
0.0101659
0.0103559
0.0108555
0.485858
0.257454
-0.306468
-0.321548
0.313875
0.206928
-0.0071957
-0.00899751
-0.0164575
-0.364306
-0.36386
-0.361447
0.840423
0.786211
0.749391
-0.379483
-0.331252
-0.325359
-0.00753549
-0.00940168
-0.00625017
0.019846
0.0214518
0.0168176
0.0177143
0.0085622
0.00897865
0.00965904
0.00657904
0.00692083
0.00755957
0.00791428
0.00517403
0.00496221
0.00572056
0.00600108
0.0161007
0.0126205
0.0131563
0.0114188
0.0115318
0.012055
0.00348268
0.00322399
0.00285551
0.00244173
0.00287995
0.316618
0.302236
0.157431
0.168198
0.00299318
0.0380655
0.034851
0.0411735
0.0439359
0.0464815
0.0486453
0.0505153
0.0520238
0.0533018
0.0545912
0.0364601
0.0314873
0.0336073
0.0392184
0.0417557
0.043938
0.0457362
0.0470789
0.0479288
0.0481405
0.0478131
0.0469631
0.0308494
0.0284033
0.0563216
0.0462361
0.0282405
0.0256263
0.0585712
0.0458763
0.0258096
0.0233556
0.0620495
0.0464269
0.023705
0.0218689
0.0656932
0.0479056
0.0270401
0.0231071
0.0249846
0.0315954
0.0292476
0.0363132
0.0339637
0.0406314
0.0385703
0.0437305
0.0424024
0.0447242
0.0445544
0.0426495
0.0441087
0.0374111
0.0402855
0.0322392
0.0346638
0.0306067
0.0711902
0.0803145
0.0759645
0.0624305
0.0664292
0.0557928
0.0590537
0.0494691
0.0526831
0.0426724
0.0461285
0.0354687
0.03907
0.0284206
0.0318349
0.0226628
0.0252831
0.0189146
0.0204914
0.020426
0.0186121
0.0214396
0.030692
0.0501252
0.0869476
0.0836885
0.0886193
0.0318218
0.0145318
0.0140381
0.0157398
0.0231137
0.0213599
0.0151885
0.069177
0.0268272
0.024876
0.0307433
0.0287539
0.0347272
0.0327493
0.0383658
0.0366352
0.0408419
0.0398023
0.0411531
0.0413431
0.0380501
0.0400923
0.0308864
0.0349127
0.0212618
0.0262037
0.0170871
0.0784136
0.0832416
0.0681257
0.0732362
0.058461
0.0632086
0.0494271
0.0539277
0.0406624
0.0450533
0.032403
0.0364815
0.025364
0.0287362
0.0203377
0.0225679
0.0172331
0.0185401
0.0163931
0.0190439
0.0175926
0.019774
0.0197605
0.0873523
0.0848291
0.0523284
0.00375025
0.00118569
0.0156749
0.0340093
0.0807054
0.0822196
0.0745451
0.0155289
0.0147053
0.0183456
0.0190936
0.0177998
0.0148064
0.0153353
0.0714454
0.0222868
0.0207043
0.0255698
0.0239056
0.0289186
0.0272176
0.0323122
0.0306453
0.0353805
0.0339412
0.0374202
0.0366097
0.0374078
0.037775
0.0340836
0.0362668
0.0263526
0.0308441
0.0145219
0.0208002
0.00857216
0.0838836
0.0835435
0.0787882
0.0821823
0.069347
0.0744252
0.0586608
0.0640952
0.0481494
0.0533557
0.038247
0.0430721
0.0296782
0.0337223
0.0231841
0.0261319
0.018894
0.0207593
0.0166405
0.0175694
0.0158758
0.0177449
0.016679
0.0183484
0.00100639
0.0822451
0.0535484
0.0643176
0.0727963
0.0192314
0.0361077
0.0171245
0.0166859
0.0148934
0.0142541
0.015266
0.0146447
0.0182518
0.0170687
0.00398405
0.00975941
0.0236126
0.0142919
0.0711032
0.021017
0.0196259
0.0238196
0.0224145
0.0268099
0.0253295
0.0297434
0.0282911
0.0323362
0.0311127
0.0339892
0.0333282
0.0338067
0.0341915
0.030679
0.0326793
0.0234184
0.0276326
0.0116705
0.0179892
-0.000806228
0.00507586
-0.00714886
-0.00520368
-0.000999087
-0.00574453
0.069249
0.0521255
0.0623883
0.0749256
0.0732623
0.0727109
0.0745749
0.0655533
0.0695768
0.0558394
0.0608667
0.0454654
0.0506436
0.0357067
0.0404309
0.0276796
0.0314137
0.0219435
0.0245393
0.0184921
0.0199703
0.0164897
0.0173486
0.0158223
0.0165844
0.0157584
0.0171215
0.0493109
0.037654
0.0176641
0.00672931
0.0747962
0.0524704
0.015957
0.0138496
0.0151107
0.0144325
0.0581372
0.0365217
0.0178463
0.0284223
0.0280702
0.0268475
0.0166056
0.0140545
0.0668119
0.0172185
0.0150503
0.016119
0.0195532
0.0183615
0.0220115
0.0207484
0.0246119
0.0233045
0.0271576
0.0259036
0.0293482
0.0283226
0.0306773
0.030158
0.0304188
0.0307951
0.0276772
0.0294121
0.0214639
0.0250561
0.0113625
0.0168361
-0.000381092
0.00539545
-0.00825864
-0.00525205
-0.00576551
-0.00850145
0.00797446
9.35887e-06
0.0397354
0.00771891
0.025982
0.0569348
0.049811
0.0639106
0.0615222
0.0641009
0.0648629
0.0591989
0.0621703
0.051279
0.0554754
0.0422388
0.0467922
0.0336422
0.0377992
0.026655
0.0299058
0.0217303
0.0239072
0.0185857
0.0199753
0.0165815
0.0174753
0.0158222
-0.00812312
-0.0156452
0.0274028
0.0173664
0.013526
0.0137717
0.0134939
0.0131139
0.0144433
0.0139418
0.0155857
0.0150103
0.0159317
0.0159817
0.0148445
0.0155367
0.0140032
0.0615256
0.0475415
0.0369573
0.0340387
0.000217444
0.0310409
-0.0448789
-0.0413591
0.0352167
0.0263439
0.0377423
0.0140733
0.0131248
0.0573197
0.016049
0.0150651
0.0180572
0.0170538
0.0202451
0.0191328
0.0225014
0.0213663
0.0246912
0.0236178
0.0265237
0.0256739
0.0275704
0.0271752
0.0272608
0.0276216
0.0249129
0.0263817
0.0198233
0.0227396
0.0118021
0.0161345
0.00226486
0.00704844
-0.00506089
-0.00199615
-0.00499108
-0.00622133
0.00387416
-0.0014729
0.0158348
0.0101096
-0.00116957
-0.0475802
-0.0220871
0.0284745
0.0154954
0.0452819
0.0382462
0.0534419
0.0503682
0.0551596
0.0549437
0.0521914
0.0541501
0.0462661
0.0494755
0.039059
0.0427265
0.0319839
0.0354302
0.0260415
0.028837
0.0216776
0.0236744
0.0186842
0.0200412
0.0165647
0.0175437
0.0148872
0.0156821
0.0133494
0.0140958
0.0126386
0.0132469
0.0121467
0.0127382
0.014033
0.0136682
0.0146976
0.0143698
0.0148236
0.0149021
0.0137714
0.0144461
-0.0806124
-0.0778451
0.0339694
0.0199894
0.0121834
0.0129899
0.0414386
0.0375248
0.0080492
0.0275562
-0.0364817
0.0317154
-0.0827513
0.0423172
-0.112953
-0.123276
0.0458688
0.0211851
0.0382354
-0.103983
-0.152526
-0.135781
0.0185336
0.00666185
0.0018587
0.0113761
0.011308
0.010615
0.0411933
0.0131076
0.0122302
0.0148548
0.0139831
0.0166485
0.0157326
0.0185574
0.0175893
0.0205085
0.0195312
0.022368
0.0214612
0.0238784
0.0231854
0.024677
0.0243904
0.0243176
0.024669
0.0222941
0.0235422
0.0181362
0.0204951
0.0118522
0.0152182
0.00449655
0.0081947
-0.00151376
0.00111504
-0.00272367
-0.00287112
0.00167671
-0.00108755
0.00740656
0.00482066
0.00821455
-0.0490468
-0.074815
-0.00848991
-0.0270615
0.0186071
0.00664045
0.0350433
0.0280062
0.0436404
0.0401438
0.0465437
0.0456677
0.0452653
0.046327
0.041196
0.0434724
0.0357587
0.0385682
0.0301323
0.0329057
0.0251903
0.0275397
0.0213255
0.0231216
0.0184482
0.0197827
0.0162771
0.0172916
0.0144997
0.0153571
0.0128459
0.0136502
0.0120516
0.0117171
0.0110461
0.012844
0.0122961
0.0135314
0.013259
0.0138445
0.0137094
0.0137152
0.0138719
0.0127445
0.0133253
0.0120377
0.0136898
0.0213396
-0.0299888
0.0166163
-0.0825731
0.0299062
-0.132741
0.0468461
-0.172287
0.0505562
-0.169152
-0.195499
0.0369613
-0.0072246
0.0104122
-0.147362
-0.202254
-0.173115
-0.0210267
-0.0213953
-0.0345774
0.0104733
0.00980059
0.010606
0.00988902
0.0174961
0.0121528
0.0113436
0.0137041
0.0129143
0.0152962
0.0144716
0.0169585
0.0161173
0.0186308
0.0177961
0.0201869
0.0194332
0.0214026
0.0208527
0.0219752
0.0217881
0.0215542
0.0219089
0.0197697
0.0208514
0.0163213
0.0182579
0.0113005
0.0139722
0.00551039
0.00842101
0.00056506
0.00280473
-0.00158092
-0.00092702
-0.000732206
-0.0014103
7.58209e-05
3.47603e-05
-0.00533976
-0.00140314
-0.0117073
-0.0950842
-0.120965
-0.0493129
-0.0710783
-0.0140947
-0.0303849
0.0103526
-0.000647878
0.0259697
0.0191012
0.0348114
0.0310942
0.0385946
0.0372285
0.0386448
0.0389998
0.0361496
0.0376404
0.032232
0.0342969
0.0278981
0.0300643
0.0238729
0.0258179
0.0205142
0.0221079
0.017843
0.0190999
0.0157301
0.0167311
0.0139339
0.0148009
0.012263
0.0130894
0.0114789
0.00986757
0.00921399
0.0111634
0.0105223
0.0123017
0.0117548
0.0129401
0.0127133
0.0130074
0.0130151
0.0126823
0.0129074
0.0117826
0.0123083
0.0111511
-0.0227928
-0.00142365
-0.0778673
0.00150346
-0.137896
0.0253085
-0.19016
0.0477047
-0.225469
0.0496876
-0.239379
0.0291544
-0.196794
-0.233458
-0.00390893
-0.051528
-0.0399605
0.00924471
-0.0141806
0.00985623
0.00863918
0.00918948
0.0112131
0.0104978
0.0126031
0.011892
0.0140052
0.0132708
0.015442
0.0147169
0.0168562
0.0161542
0.018133
0.0175204
0.0190773
0.0186597
0.0194375
0.0193454
0.0189363
0.0193096
0.017302
0.0182732
0.0143495
0.01599
0.0101944
0.0123951
0.0054182
0.00782739
0.00108663
0.00312126
-0.00178104
-0.000554109
-0.0034004
-0.00264634
-0.00618838
-0.00441689
-0.0144084
-0.00935061
-0.0314775
-0.0217805
-0.0585976
-0.0437318
-0.128938
-0.167502
-0.149077
-0.0869891
-0.107817
-0.0489621
-0.0672736
-0.0185459
-0.0327664
0.00343818
-0.0065686
0.0181306
0.011572
0.027015
0.0231925
0.0314247
0.0296895
0.0324966
0.0323027
0.0312425
0.0320879
0.0285884
0.0300315
0.0253616
0.0270011
0.0221627
0.0237417
0.0193136
0.0206855
0.0169305
0.0180659
0.0149627
0.0159054
0.0132401
0.0140783
0.0116284
0.0124291
0.0101124
0.0108615
0.0094859
0.00933191
0.00814618
0.0087522
0.0105284
0.00991274
0.0116897
0.0111391
0.012303
0.0121006
0.0122001
0.0123103
0.0117385
0.0120091
0.0108978
0.0113697
0.00977389
0.0103506
0.00843466
0.00913682
-0.216804
-0.182683
-0.0716951
-0.0756694
-0.0682718
-0.0302932
0.00834804
-0.134753
-0.0170722
0.00782744
0.00762612
0.00710504
-0.200443
0.0175314
-0.25165
0.0427631
-0.279132
0.0413152
-0.280397
0.0137214
-0.260605
-0.0251903
-0.193774
-0.231483
-0.064005
-0.0946636
-0.0942619
-0.0534427
0.00909497
0.00841546
0.0102949
0.00965817
0.0115238
0.0109026
0.0127699
0.0121514
0.0139968
0.0133805
0.0151719
0.0145941
0.0161892
0.0157081
0.0168812
0.016587
0.0170386
0.0170389
0.0164405
0.0168454
0.0148842
0.0157903
0.012253
0.0137004
0.00865214
0.0105539
0.00448735
0.00660156
0.000434931
0.00240463
-0.00301952
-0.0013682
-0.00629343
-0.0045983
-0.011346
-0.00841139
-0.0210591
-0.0153802
-0.0377261
-0.0284217
-0.0620317
-0.0490174
-0.0917263
-0.0763901
-0.144148
-0.164584
-0.155941
-0.113695
-0.129868
-0.0797091
-0.096895
-0.0480582
-0.0634249
-0.0219229
-0.0342368
-0.00225242
-0.0113057
0.011447
0.00525988
0.0202003
0.0163614
0.0250279
0.0230308
0.0268683
0.0262573
0.0265762
0.02693
0.024953
0.0258835
0.0226614
0.0238529
0.0201869
0.0214219
0.0178478
0.0189887
0.0157957
0.0167844
0.0140317
0.014885
0.0124419
0.0132241
0.010926
0.011694
0.00948238
0.0101812
0.00886606
0.00771438
0.00719233
0.00874517
0.00824296
0.0098987
0.009298
0.0110607
0.0105097
0.0116453
0.0114648
0.0114179
0.0116031
0.0108464
0.011156
0.0100542
0.010479
0.00906318
0.00958024
0.00844533
-0.200286
-0.169746
-0.113853
-0.107436
-0.12171
-0.0639319
0.00711804
0.00658998
-0.197934
-0.0382385
-0.265994
0.00596337
-0.311974
0.0314875
-0.328228
0.0242317
-0.314142
-0.0104527
-0.280395
-0.0537461
-0.240261
-0.0926444
-0.171252
-0.202406
-0.119727
-0.146886
-0.145938
-0.169399
0.00625045
-0.133465
-0.122633
-0.0989135
0.00831025
0.00763472
0.00941823
0.0088459
0.0105031
0.00995037
0.011581
0.0110435
0.0126126
0.0121007
0.0135641
0.0131022
0.0143395
0.013981
0.014795
0.0146167
0.0147563
0.0148473
0.0140461
0.0144939
0.0125111
0.0133872
0.010075
0.0114028
0.00681849
0.00853531
0.00301007
0.0049583
-0.000948928
0.00102704
-0.00486786
-0.00290396
-0.00921717
-0.00692471
-0.015472
-0.0119816
-0.0257131
-0.0199794
-0.0415066
-0.0328655
-0.0627766
-0.0515266
-0.0876068
-0.0749479
-0.112322
-0.100201
-0.141563
-0.145622
-0.125478
-0.134669
-0.100952
-0.114089
-0.0733321
-0.0872403
-0.0469015
-0.0598253
-0.0244248
-0.0350834
-0.00690521
-0.0150538
0.00578172
-8.17714e-06
0.0142778
0.0104925
0.0193509
0.0171825
0.021762
0.0208346
0.0222299
0.0221891
0.0214241
0.0219451
0.0199015
0.0207205
0.0180704
0.0190031
0.0162197
0.0171349
0.0145143
0.0153446
0.012987
0.013732
0.0115702
0.0122688
0.0101935
0.0108802
0.0088593
0.00951302
0.00775633
0.00824136
0.0072878
0.00726011
0.00677705
0.00820785
0.00772041
0.00931619
0.00874152
0.0104351
0.0099042
0.0109687
0.0108158
0.0106506
0.0108879
0.0100008
0.010338
0.00926712
0.00964725
0.0083385
0.00883598
0.00707222
0.00776515
0.00629322
0.00649326
-0.180278
-0.100138
-0.123222
-0.136783
0.00593991
0.00595581
0.00560288
-0.102716
-0.111118
-0.262762
-0.0607184
-0.328528
-0.0110645
-0.364902
0.0122909
-0.36719
-0.00295081
-0.337389
-0.043784
-0.291145
-0.0891351
-0.242298
-0.124969
-0.142886
-0.124432
-0.120252
-0.137863
-0.199638
-0.145622
-0.165132
0.00605656
0.00632374
0.00563069
-0.148
0.00656126
0.00617117
0.00754605
0.00700869
0.00856304
0.00805818
0.00951556
0.00904115
0.0104306
0.00997863
0.0112795
0.0108648
0.0120205
0.0116674
0.0125693
0.0123254
0.0128021
0.0127331
0.0125741
0.0127537
0.0117413
0.01224
0.0101854
0.0110575
0.00785206
0.00911349
0.00479688
0.00640497
0.00119142
0.00304758
-0.00274875
-0.000746879
-0.00699633
-0.00482101
-0.0119999
-0.00935353
-0.0188468
-0.015108
-0.0289934
-0.023434
-0.0434747
-0.0356769
-0.0620289
-0.052338
-0.0827505
-0.0723317
-0.0930217
-0.127628
-0.127001
-0.123067
-0.126307
-0.110019
-0.117606
-0.0904737
-0.100839
-0.0678512
-0.0793291
-0.045676
-0.0565572
-0.026296
-0.0355533
-0.0107083
-0.0180231
0.000981989
-0.00440406
0.00913736
0.00545623
0.0143234
0.0120538
0.0171479
0.0159852
0.0182069
0.017856
0.0180592
0.0182484
0.0171741
0.017682
0.0159044
0.0165683
0.0145062
0.0152089
0.013144
0.0138152
0.0118677
0.0124969
0.0106379
0.0112509
0.00940921
0.0100251
0.00819101
0.00879534
0.00710833
0.00763155
0.00670754
0.00588769
0.00541581
0.00679779
0.00634429
0.007724
0.00724193
0.00877593
0.00823507
0.00981123
0.00932265
0.0102726
0.0101522
0.00989598
0.0101632
0.00921023
0.00955709
0.00854315
0.00887742
0.00771975
0.00816319
0.00675484
0.00724782
0.0062786
-0.15244
0.00531066
-0.132518
-0.118035
-0.239492
-0.136282
-0.323259
-0.0840554
-0.381464
-0.0324974
-0.149198
-0.404569
-0.0168655
-0.391641
-0.0410123
-0.348221
-0.0863566
-0.114838
-0.100395
-0.0944131
-0.108201
-0.292146
-0.130316
-0.131458
-0.237883
-0.159442
-0.158746
-0.193004
-0.171124
0.00500842
0.00441294
0.00471761
-0.139867
-0.123577
0.00429793
-0.19701
0.00548597
0.00490291
0.00518338
0.00607297
0.00576735
0.00685918
0.00644836
0.00774222
0.00730873
0.00856099
0.00815935
0.00931757
0.00894834
0.00998966
0.00966659
0.0105314
0.0102806
0.0108665
0.0107304
0.0108891
0.0109234
0.0104786
0.0107444
0.0095181
0.0100723
0.00791465
0.00879933
0.00562608
0.00685426
0.00268467
0.00423047
-0.000806379
0.000998806
-0.00474736
-0.00272348
-0.0091967
-0.00689537
-0.0145426
-0.0117191
-0.0215866
-0.0177954
-0.031305
-0.0260646
-0.0443347
-0.0374037
-0.0603393
-0.0520503
-0.077654
-0.0689956
-0.093735
-0.0860937
-0.105314
-0.100292
-0.126715
-0.111089
-0.109022
-0.109102
-0.105394
-0.11163
-0.111129
-0.107913
-0.110607
-0.0974777
-0.103431
-0.0816984
-0.0901179
-0.0630434
-0.0725658
-0.0444041
-0.0535942
-0.027664
-0.0357209
-0.0138058
-0.0203582
-0.0030837
-0.00806681
0.00467527
0.00113386
0.0098721
0.00755636
0.0129832
0.0116507
0.0144979
0.0139048
0.0148817
0.0148008
0.0145306
0.0147749
0.0137479
0.0141763
0.012762
0.0132684
0.0117284
0.0122453
0.0107045
0.0112154
0.00967086
0.0101908
0.00860462
0.00914037
0.00754284
0.00806423
0.00654592
0.00702239
0.00578642
0.00611719
0.00545551
0.00551583
0.0050937
0.00636755
0.00593273
0.00727127
0.00680831
0.00825298
0.00775185
0.0091837
0.00874907
0.00956443
0.00947662
0.00916076
0.00943745
0.00848007
0.00881878
0.00788867
0.00817454
0.00722068
0.00757857
0.00648454
0.00685063
0.00577064
0.00609919
0.00542718
-0.293935
-0.168863
-0.110706
-0.0977367
-0.0965329
-0.373318
-0.10833
-0.169785
-0.419254
-0.0611427
-0.426861
-0.0576296
-0.15962
-0.0875223
-0.0757372
-0.0681189
-0.0795591
-0.399722
-0.090112
-0.100826
-0.346105
-0.136926
-0.12744
-0.14494
-0.124137
-0.283682
-0.175167
-0.150982
-0.226773
-0.193912
-0.184118
0.00447381
0.0045988
0.00418758
0.00470135
0.00459677
0.0039698
0.00428602
-0.241703
0.00501524
0.00473847
0.00557891
0.00529434
0.0062603
0.00589852
0.00695875
0.00660623
0.00763434
0.00730429
0.00823693
0.00794693
0.00873722
0.00850226
0.00908905
0.00893534
0.00922178
0.00918758
0.00904513
0.00917749
0.00845933
0.00880853
0.00736912
0.0079813
0.00570108
0.00660914
0.00342105
0.00463636
0.000544298
0.00205305
-0.00287283
-0.00110173
-0.00679873
-0.0047712
-0.0113328
-0.00897768
-0.0167942
-0.0139194
-0.0237604
-0.0200513
-0.0328645
-0.028019
-0.0444389
-0.0383502
-0.0581267
-0.0510842
-0.0724402
-0.065373
-0.0854005
-0.079325
-0.0943191
-0.0904413
-0.0968734
-0.0880779
-0.0824666
-0.095799
-0.0926125
-0.0981833
-0.0976963
-0.0954023
-0.097426
-0.0871802
-0.0919754
-0.0742505
-0.0811579
-0.0589052
-0.0668397
-0.0431511
-0.0509536
-0.0286646
-0.0356848
-0.0163481
-0.0222113
-0.00654556
-0.0111374
0.00078702
-0.00259261
0.00591976
0.00359921
0.00921965
0.00776804
0.0110836
0.0103016
0.0118976
0.0115961
0.0119947
0.0120157
0.011636
0.0118572
0.0110235
0.0113504
0.0102985
0.0106692
0.00952043
0.00991525
0.00868615
0.00911082
0.0077915
0.00824447
0.00687792
0.00732905
0.00598591
0.00641845
0.00522307
0.00559514
0.00493571
0.0044486
0.00375339
0.00406538
0.00515958
0.00478249
0.00597827
0.00555987
0.00683266
0.00640008
0.0077336
0.00727749
0.00855264
0.00817522
0.00885583
0.00879651
0.00845261
0.00872225
0.00780927
0.00812571
0.00729731
0.00753674
0.00676735
0.00705133
0.00616254
0.00646161
0.00543471
0.00582503
0.00510593
-0.108372
-0.0932761
-0.338617
-0.198723
-0.194977
-0.408214
-0.135179
-0.0597132
-0.0501338
-0.0411562
-0.0506146
-0.438575
-0.0997722
-0.184507
-0.0707498
-0.430448
-0.110388
-0.0927223
-0.39226
-0.149409
-0.126203
-0.167686
-0.116126
-0.332134
-0.193252
-0.147548
-0.142429
-0.269378
-0.220718
-0.173872
-0.214248
0.00387713
0.00348711
-0.104258
-0.0885374
-0.2791
0.00404857
0.00353571
0.00380751
0.00453441
0.004289
0.00505077
0.00478747
0.00562064
0.00533082
0.00620037
0.00591512
0.0067335
0.00647535
0.00718455
0.00697173
0.00751825
0.00736848
0.00768782
0.00762694
0.00762806
0.00769066
0.00726207
0.00748763
0.00650825
0.00693769
0.00528969
0.00596014
0.00354819
0.00448555
0.00125565
0.00246998
-0.00158367
-9.83355e-05
-0.00494358
-0.00320113
-0.00882792
-0.00681777
-0.0133457
-0.010997
-0.0187567
-0.0159193
-0.0254653
-0.0219248
-0.0338597
-0.0294397
-0.0440579
-0.0387473
-0.0556721
-0.0497412
-0.0675087
-0.0616809
-0.0777348
-0.0729365
-0.0844698
-0.0816596
-0.0860914
-0.08611
-0.0807821
-0.0843498
-0.0824776
-0.0687723
-0.0757226
-0.0656323
-0.0583853
-0.0771505
-0.0718639
-0.0843464
-0.0813785
-0.0869684
-0.0862187
-0.0850373
-0.0865615
-0.0784769
-0.0824057
-0.0680127
-0.0737623
-0.0552854
-0.0618865
-0.0419282
-0.0485733
-0.0293803
-0.0354981
-0.0184442
-0.0236838
-0.00950796
-0.0137243
-0.00261714
-0.00582108
0.00239665
0.000102221
0.00580947
0.00427835
0.00793875
0.00701004
0.00910159
0.00861914
0.00957738
0.00940798
0.00958975
0.00962811
0.00931447
0.0094781
0.00887661
0.00911022
0.00833478
0.00861715
0.00769867
0.00802816
0.00697809
0.00734714
0.00620177
0.00659646
0.0054393
0.00582097
0.00476289
0.00508481
0.00417488
0.00444541
0.00383368
0.00414432
0.0037732
0.00484023
0.00448771
0.00560636
0.00521543
0.00640155
0.00600054
0.00721709
0.00680879
0.00792394
0.00760313
0.00815833
0.00812175
0.00777667
0.00802721
0.00719207
0.00747739
0.00675305
0.00695393
0.00631977
0.00655346
0.00577834
0.00605173
0.00508359
0.00547091
0.00436097
0.00474335
0.00354138
0.00395405
-0.225982
-0.370039
-0.224594
0.00317858
0.00317658
-0.0318772
-0.0410146
-0.425574
-0.166979
-0.0606216
-0.0742719
-0.215245
-0.0614765
-0.43906
-0.149308
-0.0986561
-0.0839422
-0.417056
-0.174153
-0.123042
-0.195544
-0.107747
-0.371818
-0.216664
-0.14762
-0.133414
-0.310486
-0.251636
-0.172262
-0.1633
-0.248922
-0.263564
-0.200108
-0.051281
-0.0402352
-0.03323
-0.0221323
-0.0107987
-0.307018
0.00320497
0.00250175
0.00296087
0.00361865
0.00342667
0.00404488
0.00382984
0.00452503
0.00429126
0.00500198
0.00476499
0.0054592
0.00523662
0.00585575
0.00566747
0.00615796
0.00602082
0.00632962
0.00626252
0.00632341
0.00635187
0.00607943
0.00623453
0.0055329
0.00584731
0.00461844
0.00512473
0.00327513
0.00400266
0.00145753
0.0024264
-0.000856783
0.000361839
-0.00366964
-0.00220257
-0.00697348
-0.0052613
-0.0107894
-0.00881478
-0.0152161
-0.0129178
-0.0204572
-0.0177203
-0.0267916
-0.0234735
-0.034437
-0.0304477
-0.0433686
-0.0387603
-0.053166
-0.0482063
-0.0628516
-0.058109
-0.0707757
-0.0671701
-0.075789
-0.0737875
-0.0760206
-0.0766139
-0.0700281
-0.0737622
-0.0581915
-0.0649832
-0.0495664
-0.0240789
-0.00450096
-0.0149821
-0.0417158
-0.0329741
-0.0566509
-0.0497534
-0.0675389
-0.0626833
-0.0744006
-0.0715251
-0.0775947
-0.0766236
-0.0763274
-0.0776192
-0.0712445
-0.0743096
-0.0627173
-0.0673372
-0.0521063
-0.0575894
-0.0407828
-0.0464482
-0.0299041
-0.0352378
-0.0201998
-0.0248775
-0.0120701
-0.0159317
-0.00562187
-0.00864408
-0.000764041
-0.00301059
0.00270476
0.00112423
0.0050342
0.00399177
0.00648193
0.00584993
0.00728059
0.00694744
0.00761996
0.00749601
0.00765006
0.00766491
0.00747881
0.0075843
0.00716239
0.00733662
0.00671976
0.00695571
0.00616753
0.00645541
0.00554181
0.00585982
0.00490064
0.00522033
0.00428993
0.0045859
0.00375409
0.00401023
0.00315344
0.00347164
0.00383952
0.00348677
0.00452821
0.00418433
0.0052432
0.0048809
0.00597538
0.00560698
0.00670495
0.0063445
0.007304
0.00703694
0.00748081
0.00746103
0.00713504
0.0073588
0.00662058
0.00687071
0.00624356
0.00641478
0.00587485
0.00607484
0.00536806
0.00563242
0.00472667
0.00507519
0.00401871
0.00438954
0.00324998
0.00362823
0.00288883
-0.0305744
-0.386879
-0.248383
-0.0422457
-0.0333644
-0.0244851
0.00202176
0.00205501
-0.063578
-0.253449
-0.0515233
-0.425664
-0.205728
-0.0902501
-0.074417
-0.422905
-0.209281
-0.117589
-0.230785
-0.0988676
-0.390237
-0.24636
-0.145331
-0.124425
-0.340846
-0.287469
-0.202487
-0.17364
-0.152909
-0.283813
-0.307687
-0.186235
-0.228622
0.00859017
-0.0049893
-0.0188917
-0.325719
0.00277455
0.00259867
0.00318555
0.00299166
0.00358236
0.00339022
0.00399753
0.00379275
0.00438995
0.00419969
0.00473314
0.00456967
0.0049984
0.00487744
0.00515536
0.00509227
0.00516875
0.00518232
0.00499189
0.00510695
0.00457033
0.00481446
0.00385075
0.00425023
0.00278269
0.00336247
0.00131954
0.00210207
-0.00057286
0.000427362
-0.00291098
-0.00168681
-0.00569857
-0.0042497
-0.00893789
-0.00726207
-0.0126571
-0.0107351
-0.0169389
-0.0147214
-0.0219331
-0.0193372
-0.0278235
-0.0247586
-0.0347138
-0.0311467
-0.0424909
-0.0385121
-0.0507168
-0.0465908
-0.0585435
-0.0547486
-0.0647238
-0.0619181
-0.0680246
-0.0668474
-0.0671656
-0.0682549
-0.0608604
-0.0646457
-0.0493556
-0.055795
-0.0335533
-0.0415604
-0.0377958
-0.0239966
-0.0165609
-0.0256633
-0.0178884
0.00138642
-0.00902817
-0.0343587
-0.0262286
-0.0486767
-0.0418741
-0.0593276
-0.0545647
-0.0661556
-0.0631524
-0.06952
-0.0683023
-0.0690055
-0.0697413
-0.0650404
-0.0674197
-0.0581581
-0.0619024
-0.0493504
-0.0539171
-0.0397457
-0.0445802
-0.0303054
-0.0349585
-0.0216979
-0.0258707
-0.0143144
-0.0178439
-0.00830036
-0.0111401
-0.00362233
-0.00580613
-0.000139435
-0.00174696
0.00234045
0.00120958
0.00402332
0.00326625
0.00510054
0.0046249
0.00573088
0.00546157
0.0060393
0.00591781
0.00611637
0.00610189
0.00601437
0.00608526
0.00575824
0.00590395
0.00537017
0.00557857
0.00488795
0.00513769
0.00435833
0.00462633
0.00382532
0.00408893
0.00332632
0.0035701
0.00276218
0.00307065
0.00282822
0.00238484
0.00352312
0.00317288
0.00420107
0.00386214
0.00487726
0.00453898
0.00555199
0.00521468
0.00619826
0.00588329
0.00669874
0.0064797
0.0068307
0.00682199
0.00652903
0.0067222
0.0060879
0.00630243
0.00576196
0.0059109
0.00543591
0.00561322
0.00496091
0.00521411
0.00435593
0.00467894
0.00367363
0.00402876
0.00293787
0.00330647
0.00254145
-0.0499475
-0.300569
-0.0409637
-0.390412
-0.272471
0.00163689
0.0136979
-0.0775114
-0.0641374
-0.411405
-0.252156
0.00101845
-0.0102197
-0.00414638
-0.108134
0.0187991
0.0127063
-0.274643
-0.0894007
-0.394208
-0.277046
-0.13989
-0.115431
-0.354316
-0.322171
-0.240559
-0.172154
-0.142989
-0.305491
-0.355674
-0.205162
-0.173785
-0.256096
-0.357001
-0.0445662
-0.028996
-0.209947
-0.0146617
-0.0145464
-0.0292644
-0.337182
0.00233711
0.00203864
0.00274304
0.00256114
0.00311934
0.00293656
0.0034747
0.00330159
0.00378502
0.00363887
0.00402113
0.00391368
0.00416013
0.00410427
0.00417546
0.00418489
0.00403347
0.00412628
0.00368955
0.0038893
0.00309531
0.00342586
0.00220875
0.00269017
0.000993477
0.00164356
-0.000583877
0.00025098
-0.00254714
-0.00151731
-0.0049064
-0.00367797
-0.00766452
-0.00623643
-0.0108276
-0.00919544
-0.0144239
-0.0125695
-0.0185198
-0.0164049
-0.0232198
-0.0207883
-0.028634
-0.0258346
-0.0347888
-0.0316252
-0.0415222
-0.0381044
-0.0483982
-0.0449817
-0.0546653
-0.0516644
-0.0593396
-0.0572598
-0.0613808
-0.0607534
-0.0595488
-0.0610542
-0.0531755
-0.0569989
-0.0422337
-0.048299
-0.0278188
-0.0351933
-0.0107883
-0.0202365
0.0268349
0.0232434
0.0294976
0.00608995
0.0174614
-0.0126037
-0.00398127
-0.028159
-0.0205757
-0.0419322
-0.0353986
-0.0522026
-0.0475096
-0.0590177
-0.0560105
-0.0625582
-0.0611948
-0.0627187
-0.063046
-0.0597697
-0.0615901
-0.0542596
-0.0572851
-0.0469684
-0.0507728
-0.0388201
-0.042945
-0.0306313
-0.0346885
-0.0230045
-0.0267222
-0.0163105
-0.01953
-0.0107168
-0.0133767
-0.00623239
-0.00834397
-0.00276518
-0.00438348
-0.000171881
-0.00137226
0.00170831
0.000844838
0.00302979
0.00242819
0.00392249
0.00352134
0.00448725
0.00423957
0.00479732
0.00466976
0.00489958
0.0048717
0.00482259
0.00488144
0.00459249
0.00472435
0.00424461
0.00443059
0.00382045
0.00403928
0.00336042
0.00359319
0.00288937
0.00312574
0.00233762
0.00264161
0.00169388
0.00201304
0.00244871
0.00169575
0.00202768
0.0031898
0.00282475
0.00386301
0.00353061
0.00450797
0.00418865
0.0051291
0.00482156
0.00569764
0.00542429
0.00611261
0.0059336
0.00621227
0.00620968
0.00595757
0.00611962
0.00558665
0.00576784
0.00530218
0.00543438
0.00500417
0.00516636
0.00455997
0.00479975
0.00398711
0.00429095
0.0033277
0.00367048
0.00260026
0.00297549
0.00171036
0.00216924
0.00135048
-0.0615588
-0.0533249
-0.383493
-0.298993
0.00127108
0.000532536
0.00140966
-0.0938183
-0.0380297
-0.055755
0.0356315
0.0311049
-0.329498
-0.0794243
-0.38687
-0.3048
-0.129575
-0.106238
-0.357958
-0.347817
-0.288319
-0.0212651
-0.166784
-0.133701
-0.314756
-0.394636
-0.20411
-0.162953
-0.270422
-0.414789
-0.24421
-0.194569
-0.231176
0.00519233
-0.025709
0.00383453
-0.00584409
0.000571042
-0.0413064
-0.344347
0.00185603
0.00156481
0.00230508
0.00211097
0.00265399
0.00248734
0.00295722
0.00281313
0.00318957
0.00308764
0.00332358
0.00326952
0.00334123
0.00334826
0.00321776
0.00329853
0.00292198
0.00309333
0.00241273
0.00269619
0.0016488
0.00206408
0.000599607
0.00116063
-0.000757551
-3.99243e-05
-0.0024434
-0.0015591
-0.00447197
-0.00341532
-0.00684657
-0.00561691
-0.00956746
-0.00816444
-0.0126414
-0.0110602
-0.0160928
-0.0143183
-0.0199723
-0.0179761
-0.0243491
-0.0220954
-0.0292783
-0.026745
-0.034733
-0.0319482
-0.0405255
-0.0376076
-0.0462401
-0.0434279
-0.0512126
-0.0488662
-0.0546267
-0.0531628
-0.0556007
-0.0554708
-0.0531852
-0.0548617
-0.0468063
-0.0505063
-0.0362984
-0.0420535
-0.023144
-0.0299671
-0.00650003
-0.0154833
0.0122904
0.0146093
0.00371914
0.00944977
0.0406336
0.0384478
0.0314447
0.0431973
0.0421002
0.00978259
0.0202746
-0.00818365
0.000297071
-0.0231078
-0.0158579
-0.0360717
-0.0298854
-0.0460671
-0.0414627
-0.0528569
-0.0498429
-0.0565948
-0.0550918
-0.0573309
-0.0573232
-0.0552731
-0.0566142
-0.050916
-0.0533384
-0.0449087
-0.0480667
-0.0380118
-0.041523
-0.0309236
-0.0344542
-0.0241777
-0.0274841
-0.0181202
-0.0210511
-0.0129289
-0.0154144
-0.00864401
-0.0106783
-0.00521221
-0.00683027
-0.00253178
-0.00378813
-0.000481696
-0.00143799
0.00105866
0.000343403
0.00219206
0.00166934
0.00299616
0.00263015
0.00352721
0.003292
0.00382521
0.0037025
0.00392
0.00389563
0.00383977
0.00389933
0.00361743
0.00374371
0.00329086
0.00346444
0.00289604
0.00310025
0.00244815
0.00267893
0.00194367
0.00222106
0.0013694
0.00165226
0.0010938
0.00147837
0.000840364
0.00117498
0.00213505
0.00178662
0.00287091
0.00250382
0.00352903
0.00320821
0.00413908
0.00383894
0.00470785
0.00442915
0.00520567
0.00496945
0.00555055
0.00540372
0.00562814
0.00562791
0.00541923
0.00555192
0.00511161
0.00526321
0.0048609
0.00498011
0.00458322
0.00473434
0.00417162
0.00439434
0.00363208
0.00391921
0.00300114
0.00332902
0.00228002
0.00265266
0.00147944
0.00187032
0.000801666
0.00114362
-0.0756266
0.0250641
-0.0183621
0.00796991
0.0175788
-0.394927
-0.0394898
-0.0687211
-0.370143
-0.328654
-0.113719
-0.0968894
-0.357064
-0.359759
0.0246674
0.0259909
-0.348214
-0.00365336
0.0201257
0.0172802
0.0331302
0.0441293
0.000609826
0.00048735
0.00025182
0.000438807
0.000595895
0.000210158
-0.156018
-0.125168
-0.31936
-0.414235
-0.0704415
-0.0502159
-0.1989
-0.153672
-0.276979
-0.456246
-0.293671
-0.242992
-0.034931
-0.00496239
-0.182397
-0.240226
-0.459234
-0.211603
-0.0559238
-0.349943
0.000920264
0.000670692
0.0014222
0.00117201
0.00186408
0.00166583
0.00219137
0.00203773
0.00244568
0.00232795
0.00260479
0.00255006
0.00264262
0.00263876
0.00254341
0.00261143
0.00228282
0.00243435
0.00183298
0.00208314
0.00115791
0.00152521
0.000225084
0.000724508
-0.000984475
-0.000345223
-0.00247972
-0.00169666
-0.00426909
-0.003338
-0.00635684
-0.0052766
-0.00873925
-0.00751237
-0.0114132
-0.0100405
-0.0143847
-0.0128618
-0.0176734
-0.0159884
-0.0213157
-0.0194486
-0.0253539
-0.0232842
-0.0298038
-0.0275299
-0.0346029
-0.0321691
-0.0395516
-0.037078
-0.0442636
-0.0419684
-0.0481585
-0.0463528
-0.0505393
-0.0495796
-0.0506543
-0.0509227
-0.0477693
-0.0496168
-0.0413793
-0.0450268
-0.0314325
-0.0368007
-0.018855
-0.0254374
-0.00293156
-0.0113808
0.0164798
0.0063959
0.0228288
0.0519243
0.0466039
0.0494634
0.0544733
0.0534832
0.0551306
0.0548355
0.0127816
0.0225874
-0.00437222
0.00377695
-0.0188277
-0.0118564
-0.0311238
-0.0252485
-0.0408082
-0.0363184
-0.0475556
-0.0445349
-0.0514855
-0.0498539
-0.0527101