/*--------------------------------*- C++ -*----------------------------------*\
  =========                 |
  \\      /  F ield         | OpenFOAM: The Open Source CFD Toolbox
   \\    /   O peration     | Website:  https://openfoam.org
    \\  /    A nd           | Version:  10
     \\/     M anipulation  |
\*---------------------------------------------------------------------------*/
FoamFile
{
    format      ascii;
    class       volScalarField;
    location    "28.5";
    object      p;
}
// * * * * * * * * * * * * * * * * * * * * * * * * * * * * * * * * * * * * * //

dimensions      [0 2 -2 0 0 0 0];

internalField   nonuniform List<scalar> 
33313
(
-0.00446396
-0.00559981
-0.00530141
-0.0086589
0.00327743
0.00314806
0.00139376
0.0115936
0.0106423
-0.00403158
-0.000120801
-0.552605
-0.577817
-0.548288
0.0449684
0.0359491
0.0481519
-0.306069
-0.421305
-0.340755
-0.246819
0.7712
0.685104
0.832321
0.845035
0.224338
0.229693
0.232107
0.253305
0.244256
0.255721
0.247568
0.287745
-0.585393
-0.600467
-0.587447
-0.566049
0.054682
0.0511833
-0.287888
-0.266589
0.288728
0.275535
-0.560409
-0.524547
-0.54801
0.710149
0.799361
-0.005214
-0.00389295
0.252264
0.280873
0.251516
0.298397
0.0442901
0.0660912
0.35553
0.48778
0.494125
0.400727
0.357143
0.847953
0.911974
0.939286
-0.00714985
-0.0232652
-0.168694
-0.130252
-0.126541
-0.272387
-0.236534
-0.159505
-0.534741
-0.32484
-0.438634
-0.395188
-0.373414
-0.336063
-0.185792
-0.242901
0.553474
0.541904
0.566274
-0.394677
-0.432385
-0.487168
-0.602318
-0.582458
-0.577239
0.928974
-0.4774
-0.473658
-0.477504
-0.474312
-0.477108
0.240441
0.229651
0.00396692
0.00195907
-0.212299
-0.20271
-0.27072
-0.272891
-0.283013
-0.317844
-0.607398
-0.654283
-0.640862
-0.601843
-0.0777047
0.120041
0.0733032
-0.0726612
-0.808812
-0.936949
-0.746874
0.912457
0.861884
-0.267309
-0.245553
-0.519545
-0.519874
-0.511542
-0.00710012
-0.00568032
-0.019657
0.274363
-0.00560107
-0.000919094
-0.58345
-0.644076
-0.448402
-0.458203
0.0291965
0.0206674
-0.123985
-0.051052
-0.0918697
0.00382761
0.223411
0.112423
0.344373
-0.00232207
-0.0047645
-0.0103298
0.0854738
0.0823693
0.08115
0.0785316
0.314829
0.295839
0.324733
0.30957
0.425833
0.429733
0.399351
0.402958
-0.342864
-0.379393
-0.326727
-0.46665
0.00419603
0.0460456
0.198378
0.0597496
-0.594344
-0.577795
-0.568274
-0.592549
-0.00217123
-0.00099377
0.0990879
0.0978231
0.071751
0.0700306
0.224998
0.208342
-0.539188
-0.578267
-0.00348129
-0.0073824
0.0423718
0.0389503
0.140029
0.141883
-0.0303789
-0.00206464
-0.627742
-0.676107
-0.63274
-0.477244
0.536019
0.511193
-0.725595
-0.762852
0.404801
0.420632
0.418058
0.360267
0.382033
0.372765
0.56043
0.536531
0.179692
0.185361
-0.501199
-0.49588
-0.194813
-0.321843
0.198846
0.194014
0.00128391
0.00454026
0.0013691
-0.000928957
0.0330345
-0.654992
-0.62202
0.337242
0.3416
0.321659
0.315604
-0.219871
-0.209231
-0.192296
0.159604
0.182036
0.153188
-0.540677
-0.537624
-0.540705
-0.104215
-0.0691841
0.101113
0.0756657
0.0736882
-0.599112
0.250065
-0.122582
-0.115165
-0.108453
-0.103741
-0.0998327
-0.097486
-0.0963024
-0.0962111
-0.09725
-0.0994135
-0.102726
-0.107232
-0.113013
-0.12017
-0.128762
-0.138815
-0.150188
-0.16268
-0.175826
-0.189162
-0.201955
-0.213611
-0.223364
-0.230673
-0.235035
-0.236146
-0.23407
-0.228661
-0.22062
-0.209728
-0.197661
-0.185037
-0.130323
-0.138449
-0.141993
-0.132082
-0.160579
-0.17218
-0.188653
-0.164196
-0.176963
-0.208752
-0.199306
-0.221111
-0.216186
-0.221787
-0.222813
-0.211215
-0.217797
-0.19177
-0.202347
-0.167891
-0.180068
-0.144384
-0.155829
-0.124743
-0.133944
-0.110407
-0.116898
-0.101267
-0.105224
-0.0968383
-0.0984849
-0.0969795
-0.0963335
-0.102006
-0.0988252
-0.112171
-0.106324
-0.119922
-0.150013
-0.155436
-0.152184
-0.143058
-0.145771
-0.148521
-0.163129
-0.169551
-0.141925
-0.163761
-0.155523
-0.150759
-0.186152
-0.169108
-0.177814
-0.124291
-0.146434
-0.134662
-0.109538
-0.115774
-0.0993907
-0.104202
-0.0941176
-0.0960109
-0.094007
-0.093504
-0.098338
-0.0956168
-0.107287
-0.102212
-0.121431
-0.113664
-0.141368
-0.130668
-0.166559
-0.153418
-0.1943
-0.180368
-0.219833
-0.207685
-0.237736
-0.230059
-0.243723
-0.242442
-0.236482
-0.242069
-0.217276
-0.227962
-0.191117
-0.204671
-0.177598
-0.135858
-0.139474
-0.138425
-0.156462
-0.136331
-0.146506
-0.177759
-0.167063
-0.196733
-0.188016
-0.208555
-0.203933
-0.209629
-0.210435
-0.200094
-0.206081
-0.182238
-0.191975
-0.160138
-0.171423
-0.138323
-0.148943
-0.120164
-0.128654
-0.107072
-0.112971
-0.0989646
-0.102428
-0.0954319
-0.0966425
-0.0964427
-0.0953547
-0.102424
-0.0987763
-0.114179
-0.107446
-0.132537
-0.122524
-0.159245
-0.144907
-0.193088
-0.175535
-0.131913
-0.158982
-0.20327
-0.211768
-0.129639
-0.139801
-0.12928
-0.183178
-0.128761
-0.126639
-0.120167
-0.171844
-0.193568
-0.136037
-0.158968
-0.147419
-0.116023
-0.125255
-0.103044
-0.108701
-0.0943178
-0.0983234
-0.0902776
-0.0915859
-0.0911909
-0.0901949
-0.0963983
-0.0932533
-0.106144
-0.100675
-0.121053
-0.112906
-0.141722
-0.130661
-0.167601
-0.154122
-0.19602
-0.181748
-0.222301
-0.209766
-0.241036
-0.232935
-0.247804
-0.246126
-0.240694
-0.246134
-0.221375
-0.232314
-0.194359
-0.208327
-0.165602
-0.179903
-0.15198
-0.126624
-0.128898
-0.118449
-0.123095
-0.147086
-0.137929
-0.166202
-0.156693
-0.18345
-0.175416
-0.194343
-0.189943
-0.195713
-0.196289
-0.187241
-0.192617
-0.171024
-0.179886
-0.150847
-0.161157
-0.130915
-0.140614
-0.114397
-0.122105
-0.10263
-0.107905
-0.0955759
-0.0985409
-0.0929176
-0.0937075
-0.0947104
-0.093238
-0.101465
-0.097423
-0.114149
-0.10699
-0.133723
-0.123023
-0.16186
-0.146649
-0.198159
-0.179211
-0.230731
-0.238512
-0.218112
-0.184895
-0.170573
-0.198023
-0.221365
-0.112828
-0.258468
-0.249634
-0.120969
-0.120185
-0.138741
-0.197571
-0.181316
-0.127703
-0.2101
-0.144265
-0.163968
-0.15428
-0.124004
-0.134087
-0.106849
-0.11487
-0.0952948
-0.100434
-0.0880366
-0.0911981
-0.0854262
-0.0861115
-0.0872975
-0.0858532
-0.0932569
-0.0897575
-0.103609
-0.0978512
-0.119023
-0.110634
-0.140123
-0.128854
-0.166415
-0.152727
-0.195324
-0.180793
-0.22221
-0.209361
-0.241555
-0.233153
-0.248797
-0.24689
-0.241914
-0.247182
-0.22229
-0.233485
-0.194781
-0.209101
-0.165348
-0.180063
-0.151516
-0.118723
-0.120512
-0.111785
-0.115801
-0.120194
-0.106482
-0.112836
-0.1366
-0.12817
-0.153791
-0.145265
-0.169244
-0.161988
-0.179074
-0.175075
-0.180558
-0.180944
-0.173159
-0.177901
-0.158654
-0.166603
-0.140463
-0.149769
-0.122469
-0.131221
-0.107635
-0.114539
-0.0972232
-0.101862
-0.0912273
-0.0936954
-0.0894149
-0.0898028
-0.091917
-0.0901036
-0.0993024
-0.0949482
-0.112609
-0.105143
-0.133074
-0.12186
-0.162285
-0.146535
-0.200252
-0.180364
-0.242969
-0.221352
-0.276925
-0.283319
-0.263956
-0.106798
-0.190581
-0.17227
-0.212385
-0.238673
-0.118218
-0.299817
-0.286362
-0.303364
-0.208846
-0.267185
-0.292619
-0.198496
-0.0993847
-0.101129
-0.0948011
-0.179139
-0.226195
-0.145753
-0.158886
-0.1532
-0.128511
-0.137296
-0.110988
-0.119647
-0.0964918
-0.103252
-0.0865111
-0.0909165
-0.0809183
-0.0831959
-0.0796254
-0.079737
-0.0823717
-0.0805204
-0.0889888
-0.0851858
-0.0998156
-0.0938406
-0.115556
-0.107021
-0.136863
-0.125504
-0.163295
-0.149542
-0.192338
-0.177737
-0.219399
-0.206456
-0.238999
-0.230454
-0.246565
-0.244487
-0.239975
-0.245054
-0.2205
-0.231614
-0.192889
-0.207331
-0.16328
-0.177987
-0.136495
-0.149346
-0.115255
-0.125105
-0.113527
-0.110157
-0.112426
-0.112276
-0.11349
-0.106386
-0.109876
-0.0967603
-0.101939
-0.111061
-0.104852
-0.125352
-0.117939
-0.140629
-0.133039
-0.154278
-0.147822
-0.163106
-0.159491
-0.16462
-0.164857
-0.158229
-0.162362
-0.145406
-0.152454
-0.129203
-0.1375
-0.113169
-0.120961
-0.100041
-0.106133
-0.0909846
-0.0949899
-0.0860188
-0.0880074
-0.0849937
-0.0850131
-0.0881112
-0.0860082
-0.0959909
-0.0914022
-0.10969
-0.102037
-0.130625
-0.11915
-0.160447
-0.144355
-0.199358
-0.178907
-0.244017
-0.221415
-0.266173
-0.312012
-0.315936
-0.106878
-0.183564
-0.16215
-0.225469
-0.255189
-0.0910289
-0.217872
-0.282242
-0.20382
-0.304436
-0.322859
-0.318896
-0.184657
-0.111303
-0.102813
-0.163165
-0.240984
-0.138015
-0.141421
-0.141043
-0.126879
-0.133197
-0.112003
-0.119656
-0.0972676
-0.104491
-0.0851329
-0.0907539
-0.0770333
-0.0805471
-0.0730757
-0.0745632
-0.072973
-0.0725539
-0.076541
-0.0743101
-0.0837439
-0.0796765
-0.0949398
-0.0888059
-0.110848
-0.102254
-0.132119
-0.120802
-0.158335
-0.144709
-0.187075
-0.172628
-0.213905
-0.201056
-0.233501
-0.224925
-0.241312
-0.239081
-0.235139
-0.239981
-0.21612
-0.227012
-0.188788
-0.203116
-0.159273
-0.173956
-0.132711
-0.145421
-0.121353
-0.103508
-0.0956563
-0.100019
-0.107464
-0.106045
-0.107036
-0.107855
-0.102091
-0.10507
-0.0935301
-0.0981798
-0.0882499
-0.0916627
-0.0847408
-0.0878458
-0.101481
-0.0962388
-0.113708
-0.107339
-0.127
-0.120364
-0.138954
-0.133307
-0.146784
-0.143549
-0.148288
-0.148403
-0.142833
-0.146393
-0.131625
-0.137802
-0.117359
-0.12467
-0.103252
-0.1101
-0.0918015
-0.097096
-0.0840656
-0.0874563
-0.0800817
-0.0816172
-0.0797722
-0.0794627
-0.0833975
-0.0810637
-0.0916135
-0.0868769
-0.105493
-0.0977659
-0.12652
-0.115009
-0.156354
-0.140257
-0.195517
-0.174852
-0.240894
-0.217779
-0.284662
-0.263692
-0.315177
-0.302276
-0.323117
-0.32444
-0.322606
-0.160292
-0.138457
-0.236132
-0.269224
-0.318219
-0.318532
-0.224083
-0.293593
-0.205804
-0.311301
-0.0899581
-0.0906657
-0.0848326
-0.182126
-0.319782
-0.154248
-0.0824005
-0.132963
-0.25338
-0.119426
-0.111753
-0.116522
-0.117025
-0.119391
-0.1076
-0.112919
-0.0952863
-0.101617
-0.0830894
-0.0890255
-0.0732847
-0.0777809
-0.0670968
-0.0697137
-0.0646256
-0.0654182
-0.0656108
-0.0646956
-0.0699429
-0.067364
-0.0776487
-0.0733616
-0.0890954
-0.0828674
-0.104991
-0.0964386
-0.125961
-0.114832
-0.151617
-0.138297
-0.179682
-0.165573
-0.20595
-0.193354
-0.225286
-0.216794
-0.233243
-0.230885
-0.227575
-0.232126
-0.209245
-0.219787
-0.182552
-0.196574
-0.15354
-0.167974
-0.127374
-0.139891
-0.106348
-0.116209
-0.0978082
-0.0980856
-0.0944353
-0.102638
-0.100857
-0.102898
-0.103327
-0.0988904
-0.101389
-0.0912913
-0.095484
-0.0779468
-0.0761311
-0.0809565
-0.0864002
-0.0834039
-0.0803958
-0.0915189
-0.0871439
-0.101875
-0.0964742
-0.113243
-0.107547
-0.12358
-0.11869
-0.130449
-0.127589
-0.131908
-0.131928
-0.127301
-0.130337
-0.117606
-0.122965
-0.105185
-0.111554
-0.0929315
-0.0988695
-0.0830961
-0.0876234
-0.0766187
-0.0794261
-0.0735487
-0.0746663
-0.0738715
-0.0732773
-0.077893
-0.0753889
-0.086286
-0.0814883
-0.100125
-0.0924439
-0.12091
-0.109544
-0.150303
-0.134447
-0.189009
-0.168543
-0.234506
-0.211271
-0.278729
-0.257433
-0.310614
-0.296972
-0.319038
-0.318015
-0.306962
-0.30158
-0.313194
-0.125541
-0.105393
-0.307877
-0.291116
-0.285479
-0.243715
-0.279558
-0.226852
-0.300202
-0.0854214
-0.0801734
-0.203724
-0.312541
-0.176147
-0.315676
-0.146448
-0.0750903
-0.097677
-0.11713
-0.292397
-0.271515
-0.265893
-0.0895977
-0.0794143
-0.0849149
-0.0791089
-0.0721145
-0.262449
-0.0913539
-0.0859781
-0.0977445
-0.0953728
-0.0961779
-0.0979111
-0.0886657
-0.0929387
-0.0786638
-0.0838004
-0.0688709
-0.0736007
-0.0612759
-0.0647126
-0.0568549
-0.0586493
-0.0557164
-0.0558883
-0.0576928
-0.056323
-0.0627061
-0.0598226
-0.0708137
-0.0663599
-0.0823816
-0.0761293
-0.0980868
-0.0896714
-0.11852
-0.107703
-0.14333
-0.130464
-0.170408
-0.156796
-0.195801
-0.183612
-0.214633
-0.206333
-0.222632
-0.220181
-0.217532
-0.221743
-0.200099
-0.210169
-0.174362
-0.187912
-0.146206
-0.160226
-0.120703
-0.132915
-0.100272
-0.109865
-0.0920034
-0.0938753
-0.09003
-0.0988938
-0.0968677
-0.099867
-0.0999005
-0.0967439
-0.0987987
-0.0899685
-0.0937563
-0.0803407
-0.0854626
-0.25625
-0.243874
-0.234031
-0.0747606
-0.070721
-0.0688591
-0.0694944
-0.0748319
-0.0724858
-0.0813939
-0.0778116
-0.0900181
-0.0855038
-0.0996057
-0.0947866
-0.108428
-0.104242
-0.114393
-0.111891
-0.115777
-0.115726
-0.111924
-0.114487
-0.103617
-0.10822
-0.0929184
-0.0984038
-0.0824118
-0.0874906
-0.0740995
-0.0779044
-0.0687965
-0.0710621
-0.0665578
-0.0672991
-0.0674217
-0.0665903
-0.0717261
-0.0691119
-0.0801429
-0.0753668
-0.093724
-0.0862084
-0.113941
-0.102901
-0.142442
-0.12707
-0.180041
-0.16014
-0.224609
-0.201779
-0.268726
-0.2474
-0.300511
-0.28697
-0.309865
-0.308474
-0.292715
-0.304247
-0.276333
-0.247466
-0.285296
-0.0743932
-0.225447
-0.301319
-0.198235
-0.30828
-0.168238
-0.305566
-0.137554
-0.108134
-0.0650266
-0.081315
-0.273005
-0.249343
-0.210645
-0.220287
-0.068841
-0.0586777
-0.0500203
-0.0622902
-0.0626254
-0.0446821
-0.267207
-0.0622576
-0.0562149
-0.0719156
-0.0675302
-0.0771888
-0.0751502
-0.0762761
-0.0774865
-0.0704324
-0.0737883
-0.0625284
-0.0665798
-0.054931
-0.058569
-0.0493071
-0.0518033
-0.0464552
-0.0475168
-0.0465106
-0.0461263
-0.0493679
-0.0475961
-0.0549603
-0.0518234
-0.0633627
-0.0587969
-0.0749284
-0.0687163
-0.0902894
-0.0820923
-0.109991
-0.0995884
-0.133718
-0.12143
-0.159531
-0.146557
-0.183779
-0.172127
-0.201901
-0.193883
-0.209837
-0.207331
-0.205342
-0.209176
-0.188973
-0.198473
-0.164459
-0.177393
-0.137465
-0.150917
-0.112922
-0.124683
-0.0932418
-0.10246
-0.0786049
-0.0853625
-0.0681889
-0.0728838
-0.0819042
-0.0705863
-0.0765115
-0.0907232
-0.0866866
-0.0962413
-0.0939408
-0.0979189
-0.0975779
-0.0955921
-0.0972482
-0.0895591
-0.0929922
-0.0805791
-0.0853867
-0.0695497
-0.0752548
-0.0631417
-0.0624907
-0.0660801
-0.0643318
-0.0712695
-0.0684117
-0.0783082
-0.0746031
-0.0862805
-0.0822582
-0.0937219
-0.0901769
-0.0988476
-0.0966814
-0.100134
-0.100035
-0.0969378
-0.0990855
-0.0898816
-0.0938002
-0.080763
-0.0854354
-0.0718761
-0.0761575
-0.064974
-0.0681113
-0.060745
-0.0625175
-0.0592451
-0.059656
-0.0605554
-0.0595352
-0.0650319
-0.0623661
-0.0733303
-0.0686518
-0.0864586
-0.0792146
-0.105826
-0.0952641
-0.133046
-0.118367
-0.169042
-0.149968
-0.212018
-0.189952
-0.255089
-0.234195
-0.286655
-0.273076
-0.296017
-0.294606
-0.279305
-0.290645
-0.243053
-0.262909
-0.19788
-0.22082
-0.187223
-0.17501
-0.0643559
-0.246922
-0.285908
-0.0635156
-0.220426
-0.296812
-0.19028
-0.298287
-0.15864
-0.290204
-0.127367
-0.0986618
-0.0737805
-0.0402549
-0.0530816
-0.250775
-0.225629
-0.196355
-0.164816
-0.153141
-0.0366481
-0.0284262
-0.0616919
-0.0578562
-0.0256622
-0.26737
-0.0363739
-0.0319744
-0.0457339
-0.0409759
-0.0535498
-0.0500026
-0.057934
-0.0562676
-0.0575948
-0.0583858
-0.0531947
-0.0557488
-0.0471491
-0.0502417
-0.0414633
-0.0441577
-0.0375388
-0.039223
-0.0360584
-0.0364764
-0.0371644
-0.0362923
-0.0407786
-0.0386645
-0.0468422
-0.0435046
-0.0554357
-0.0508098
-0.066889
-0.0607739
-0.0817763
-0.0738654
-0.100587
-0.0906831
-0.123033
-0.111427
-0.147364
-0.135138
-0.170252
-0.159242
-0.187496
-0.179839
-0.195275
-0.192749
-0.191396
-0.194834
-0.176205
-0.185065
-0.153123
-0.165328
-0.127545
-0.140303
-0.104213
-0.115395
-0.0854692
-0.0942354
-0.0716002
-0.0779762
-0.0662177
-0.0676435
-0.0548078
-0.0613044
-0.0792695
-0.073711
-0.0885121
-0.0842316
-0.0946232
-0.0920039
-0.0969955
-0.0963
-0.0954043
-0.09669
-0.0900532
-0.0931686
-0.0816301
-0.08618
-0.0709715
-0.0765351
-0.139272
-0.132967
-0.119449
-0.0650569
-0.0554502
-0.0572573
-0.0561034
-0.0553729
-0.0551985
-0.0573243
-0.0560893
-0.0612795
-0.0590687
-0.0668977
-0.0639178
-0.0734257
-0.0701155
-0.0796311
-0.0766612
-0.083993
-0.0821357
-0.0851652
-0.085037
-0.0825304
-0.0843182
-0.0765825
-0.0798915
-0.0688931
-0.0728274
-0.0614848
-0.0650378
-0.0558661
-0.0583973
-0.0526
-0.053933
-0.0517411
-0.0518693
-0.053403
-0.0522418
-0.0579477
-0.0552842
-0.0659999
-0.0614868
-0.0785042
-0.0716245
-0.0967775
-0.0868275
-0.122358
-0.108567
-0.156244
-0.138268
-0.197028
-0.176031
-0.238429
-0.218269
-0.269295
-0.255942
-0.278749
-0.277167
-0.262964
-0.273844
-0.227793
-0.247226
-0.183249
-0.206053
-0.160715
-0.242254
-0.28139
-0.212219
-0.286924
-0.179865
-0.283313
-0.0525627
-0.0481918
-0.0459157
-0.147325
-0.270739
-0.116743
-0.0896228
-0.0668891
-0.0485261
-0.0236896
-0.0338661
-0.226993
-0.20145
-0.173147
-0.143833
-0.101531
-0.114405
-0.0589086
-0.0223431
-0.0142929
-0.0507725
-0.0525871
-0.0134619
-0.262894
-0.0177448
-0.0157412
-0.0232185
-0.0202017
-0.0300962
-0.0265578
-0.036444
-0.0335124
-0.0402328
-0.0387508
-0.040297
-0.0407577
-0.0371423
-0.0390058
-0.0326761
-0.0349578
-0.0286024
-0.0305017
-0.0261197
-0.0271127
-0.0258157
-0.0256806
-0.0278187
-0.0265322
-0.0320613
-0.0296661
-0.038489
-0.0350022
-0.0471763
-0.0425384
-0.058419
-0.0524507
-0.0727239
-0.0651554
-0.0905179
-0.081178
-0.111541
-0.100689
-0.134237
-0.122837
-0.155613
-0.145319
-0.171843
-0.164608
-0.179395
-0.176877
-0.176112
-0.179154
-0.162166
-0.170342
-0.140662
-0.152056
-0.1167
-0.128663
-0.094787
-0.105295
-0.0771345
-0.0853893
-0.0640322
-0.0700522
-0.0547273
-0.0589956
-0.0511383
-0.0655505
-0.0591271
-0.0774479
-0.0717033
-0.0872322
-0.0826625
-0.0939933
-0.0910422
-0.0970503
-0.096009
-0.0961556
-0.0970945
-0.0914416
-0.0942542
-0.0834708
-0.0878011
-0.073078
-0.0785182
-0.0611572
-0.0672575
-0.0483505
-0.0493707
-0.0476009
-0.0477625
-0.0486732
-0.047904
-0.0515357
-0.0498945
-0.0559054
-0.0535627
-0.0611637
-0.0584795
-0.0662804
-0.063818
-0.0699567
-0.0683798
-0.0710049
-0.0708637
-0.0688403
-0.0703224
-0.0638623
-0.0666342
-0.0574503
-0.0607224
-0.0513737
-0.0542705
-0.0469036
-0.0488941
-0.0444841
-0.0454333
-0.044167
-0.0440604
-0.0460893
-0.0448323
-0.0506075
-0.0479948
-0.0583045
-0.054014
-0.0700465
-0.063605
-0.0870368
-0.0778009
-0.110705
-0.0979527
-0.142076
-0.12542
-0.180111
-0.160478
-0.219271
-0.200116
-0.249056
-0.236084
-0.258657
-0.256847
-0.244142
-0.254273
-0.210395
-0.229117
-0.166985
-0.18929
-0.123922
-0.144938
-0.0869212
-0.104541
-0.0851918
-0.0710806
-0.233751
-0.271929
-0.201063
-0.272398
-0.0510159
-0.0442451
-0.167517
-0.264376
-0.13535
-0.248585
-0.106311
-0.0815093
-0.0610899
-0.044799
-0.0319277
-0.0548551
-0.0132172
-0.0216039
-0.203258
-0.178214
-0.15167
-0.124652
-0.0974162
-0.0704043
-0.0569453
-0.0134688
-0.00543227
-0.0414624
-0.0392904
-0.00598434
-0.253961
-0.00578442
-0.00538684
-0.00757477
-0.00648561
-0.0109323
-0.00905525
-0.0158293
-0.0132528
-0.0208435
-0.0184537
-0.0241103
-0.0227937
-0.0244949
-0.0246813
-0.0223635
-0.0236595
-0.0191989
-0.0208121
-0.0164605
-0.0177002
-0.0151793
-0.0155955
-0.0158568
-0.0152607
-0.0185997
-0.0169733
-0.0233436
-0.0207274
-0.0300314
-0.0264451
-0.0387214
-0.0341161
-0.0496671
-0.0438886
-0.0633038
-0.0561206
-0.0799952
-0.0712622
-0.0995093
-0.0894546
-0.120478
-0.10995
-0.140246
-0.130717
-0.155379
-0.148607
-0.162631
-0.160154
-0.159915
-0.162572
-0.147232
-0.154706
-0.127396
-0.137925
-0.105196
-0.116284
-0.0848608
-0.0946146
-0.0684512
-0.0761271
-0.0562047
-0.0618456
-0.04755
-0.051532
-0.0442498
-0.0642606
-0.0577168
-0.0765413
-0.0705754
-0.0869086
-0.0820318
-0.0943241
-0.0910402
-0.0980712
-0.0966821
-0.0978514
-0.0984599
-0.0937224
-0.0962583
-0.0861057
-0.0903021
-0.0758959
-0.081265
-0.0639523
-0.0700916
-0.0423795
-0.0441108
-0.0300406
-0.05761
-0.0441149
-0.0484118
-0.0460734
-0.0411827
-0.0424818
-0.0398831
-0.040328
-0.0402128
-0.039845
-0.0421295
-0.0409818
-0.0454205
-0.0436278
-0.0495818
-0.0474387
-0.0537534
-0.0517328
-0.0568226
-0.0554968
-0.0577406
-0.0575997
-0.0559636
-0.0571894
-0.0518256
-0.054129
-0.0465449
-0.0492287
-0.0416529
-0.0439667
-0.0381942
-0.0397107
-0.0365043
-0.0371255
-0.0366319
-0.0363369
-0.0387297
-0.0374186
-0.0431388
-0.0406184
-0.0503917
-0.0463695
-0.0612654
-0.0553181
-0.0768335
-0.0683869
-0.0983892
-0.0867853
-0.126941
-0.111773
-0.161785
-0.143752
-0.198204
-0.1803
-0.226566
-0.214111
-0.236292
-0.234237
-0.223058
-0.232445
-0.191127
-0.208905
-0.149537
-0.170919
-0.107907
-0.128243
-0.0716949
-0.0889934
-0.0563087
-0.221787
-0.258145
-0.0375587
-0.18764
-0.254283
-0.154209
-0.242917
-0.123465
-0.2253
-0.0967392
-0.0744619
-0.0564575
-0.0420427
-0.0305866
-0.021533
-0.00707133
-0.0142598
-0.180592
-0.156901
-0.132324
-0.107334
-0.0820947
-0.0570685
-0.0186809
-0.0323874
-0.0511706
-0.00859906
-0.000364304
-0.0419001
-0.044645
-0.00202217
-0.241064
0.00170831
0.000893143
0.0023731
0.00216357
0.00196157
0.00227818
0.000187813
0.00125666
-0.00303748
-0.0012751
-0.00682763
-0.004964
-0.00956994
-0.00841891
-0.0101989
-0.0101704
-0.00888231
-0.00972301
-0.00677519
-0.00784438
-0.00512529
-0.00582734
-0.00482057
-0.00476857
-0.00628989
-0.00532305
-0.00961895
-0.0077253
-0.0147408
-0.0119618
-0.0215891
-0.0179508
-0.0301982
-0.0256657
-0.0407745
-0.0352208
-0.0536817
-0.046913
-0.0692217
-0.0611184
-0.0871884
-0.0779495
-0.106395
-0.0967571
-0.124519
-0.115773
-0.138508
-0.132224
-0.14541
-0.142998
-0.143213
-0.145509
-0.131767
-0.138547
-0.113636
-0.123273
-0.0932883
-0.103453
-0.0746432
-0.0835873
-0.0595794
-0.0666271
-0.0483077
-0.0535015
-0.0402676
-0.0439527
-0.0346912
-0.0372306
-0.0309393
-0.0326339
-0.0500117
-0.0362768
-0.0430784
-0.0636591
-0.0568936
-0.0764864
-0.0702252
-0.087503
-0.082297
-0.0956073
-0.0919724
-0.100074
-0.0983255
-0.100522
-0.100809
-0.0969328
-0.099218
-0.0896477
-0.0937141
-0.079498
-0.0848476
-0.0674145
-0.0736123
-0.0543993
-0.0609904
-0.0373149
-0.0394542
-0.0340923
-0.0355394
-0.0323245
-0.0330231
-0.0320184
-0.031991
-0.0331324
-0.0324043
-0.0355077
-0.0341819
-0.0387368
-0.0370539
-0.0420993
-0.040458
-0.0446366
-0.0435335
-0.0454213
-0.0452925
-0.043959
-0.0449721
-0.0405444
-0.0424413
-0.0362585
-0.0384237
-0.0324081
-0.0342104
-0.0298256
-0.0309337
-0.0287509
-0.0290982
-0.0292314
-0.0287915
-0.0314278
-0.0300997
-0.0356584
-0.0332644
-0.0423998
-0.0386797
-0.052334
-0.0469174
-0.0663955
-0.0587829
-0.0857202
-0.0753304
-0.111255
-0.0976874
-0.142582
-0.126331
-0.175833
-0.159398
-0.202456
-0.190642
-0.212292
-0.209968
-0.200538
-0.209044
-0.170753
-0.187425
-0.131362
-0.151662
-0.0915277
-0.111018
-0.0565157
-0.0732404
-0.0279508
-0.0414338
-0.00469693
-0.0157787
-0.00834865
0.00536173
-0.0296107
-0.207105
-0.241033
-0.0477645
-0.172908
-0.233857
-0.140795
-0.220438
-0.112382
-0.202186
-0.088366
-0.0687078
-0.0528385
-0.0401715
-0.0300359
-0.0219771
-0.0156992
-0.00422811
-0.0107464
-0.159901
-0.137998
-0.115266
-0.0919829
-0.0685161
-0.0450447
-0.0216656
0.00113372
0.0146489
-0.0068877
0.00189327
-0.024461
-0.0231099
-0.000770444
-0.225118
0.00591553
0.00405929
0.00853689
0.00737032
0.0100211
0.00937049
0.0106131
0.0104328
0.0100889
0.0105047
0.00825244
0.00932409
0.00561683
0.00696684
0.00340319
0.00437736
0.00262718
0.00280691
0.00330802
0.0028278
0.0045656
0.00393381
0.00534562
0.00507203
0.00487977
0.00529984
0.00279646
0.00404913
-0.000972834
0.00111894
-0.00635501
-0.00346888
-0.0132697
-0.00962375
-0.021723
-0.0172986
-0.0318722
-0.0265699
-0.044011
-0.0376736
-0.0583833
-0.050915
-0.0748083
-0.06638
-0.0922709
-0.0835133
-0.108764
-0.100796
-0.121603
-0.115813
-0.128122
-0.125795
-0.126377
-0.128347
-0.11611
-0.122221
-0.0996755
-0.108417
-0.0812227
-0.0904383
-0.0643289
-0.0724323
-0.0506662
-0.0570617
-0.0403918
-0.0451321
-0.0330219
-0.0363863
-0.0279085
-0.0302279
-0.026029
-0.035365
-0.0220369
-0.028614
-0.049487
-0.0423616
-0.0636921
-0.0566241
-0.0772356
-0.0706113
-0.0889785
-0.0834065
-0.0978517
-0.0938266
-0.10309
-0.100962
-0.104215
-0.104181
-0.10113
-0.103187
-0.0941341
-0.0980862
-0.0839207
-0.0893638
-0.0716025
-0.0779752
-0.0582089
-0.0649934
0.0277529
0.0230226
0.0359898
-0.0513813
-0.035313
-0.0411717
-0.0380871
-0.0305515
-0.0327951
-0.0271213
-0.0286667
-0.0249897
-0.0258941
-0.0241532
-0.0244096
-0.0245989
-0.0242201
-0.0262107
-0.0252744
-0.02866
-0.0273628
-0.0313381
-0.0300192
-0.0334131
-0.032506
-0.0340644
-0.0339566
-0.032855
-0.0336926
-0.0300625
-0.0316072
-0.0266469
-0.028358
-0.0237017
-0.0250613
-0.0218652
-0.022628
-0.0212974
-0.0214218
-0.0220463
-0.0215012
-0.0242738
-0.0229607
-0.0282704
-0.0260293
-0.0344537
-0.0310579
-0.0434095
-0.0385422
-0.0559309
-0.0491688
-0.0729847
-0.0638312
-0.0954206
-0.0835032
-0.123036
-0.108682
-0.152786
-0.138
-0.177342
-0.166313
-0.187234
-0.184623
-0.177153
-0.184691
-0.149743
-0.165184
-0.112842
-0.131916
-0.0749366
-0.0935646
-0.0413602
-0.0574396
-0.0137573
-0.0268441
0.00890454
-0.00183095
0.018898
-0.190806
-0.22183
-0.15782
-0.212506
-0.128068
-0.198238
-0.0214887
-0.0158822
-0.0151691
-0.102531
-0.180313
-0.0813717
-0.0641596
-0.0502811
-0.0391022
-0.0302361
-0.0232239
-0.0177196
-0.013507
-0.00384258
-0.0101167
-0.14161
-0.121474
-0.100376
-0.0786066
-0.0564996
-0.0341201
-0.0117825
0.0100045
0.0432546
0.0306935
-0.0445756
-0.00748085
0.00197538
-0.0345484
-0.0378806
-0.00146327
-0.207306
0.00754166
0.00491818
0.0118161
0.00982923
0.0149247
0.0135091
0.0170187
0.0160829
0.0183426
0.0177723
0.0187695
0.0186823
0.0180981
0.0185755
0.016515
0.0173809
0.0148597
0.0156306
0.0140406
0.0143117
0.0142374
0.0140378
0.0148226
0.014537
0.0149223
0.014982
0.0138684
0.0145673
0.0113323
0.0127933
0.00725822
0.00948363
0.00172615
0.00466722
-0.00516765
-0.00155493
-0.0133994
-0.00911335
-0.0230771
-0.0180456
-0.0344283
-0.0285283
-0.047645
-0.0408015
-0.0625714
-0.0549288
-0.0783517
-0.0704425
-0.0932701
-0.0860549
-0.10499
-0.0996826
-0.111102
-0.108882
-0.109731
-0.111419
-0.100559
-0.10604
-0.0857788
-0.0936398
-0.0692216
-0.0774838
-0.0540966
-0.0613498
-0.0418528
-0.0475886
-0.0325992
-0.0368761
-0.0258931
-0.0289631
-0.0212031
-0.0233252
-0.018079
-0.0195048
-0.0168752
-0.0349647
-0.0280487
-0.049488
-0.0421337
-0.0644077
-0.0569419
-0.0787604
-0.0717332
-0.0913293
-0.0853368
-0.101078
-0.0966126
-0.107155
-0.104619
-0.10898
-0.108619
-0.106374
-0.108223
-0.0996021
-0.103475
-0.0893008
-0.0948368
-0.0765897
-0.0831562
-0.0626728
-0.0697016
-0.0485008
-0.0555668
-0.0287057
-0.0315157
-0.0239241
-0.026164
-0.0203498
-0.0219836
-0.01793
-0.0189963
-0.0166658
-0.0171521
-0.0165674
-0.0164733
-0.0175553
-0.0169376
-0.019362
-0.0183834
-0.0214668
-0.0204196
-0.0231416
-0.0224066
-0.0236621
-0.0235812
-0.0226565
-0.0233486
-0.020401
-0.0216398
-0.0177435
-0.0190597
-0.0155753
-0.016557
-0.0143618
-0.0148386
-0.0142009
-0.0141491
-0.0151423
-0.0145273
-0.0173438
-0.0160722
-0.0210644
-0.0189954
-0.0266627
-0.0236028
-0.034631
-0.0303151
-0.0456238
-0.0397037
-0.060437
-0.0525031
-0.079795
-0.0695219
-0.103642
-0.0912288
-0.129673
-0.116667
-0.151852
-0.141762
-0.161666
-0.158794
-0.153401
-0.159876
-0.128587
-0.142678
-0.09433
-0.112114
-0.058521
-0.0762064
-0.0264244
-0.0418157
8.74446e-05
-0.0125015
0.0220207
0.0115591
0.0403131
0.0315973
0.0553065
0.048163
0.049942
0.0617666
-0.174004
-0.201835
-0.143323
-0.1915
-0.0211703
-0.0147843
-0.116577
-0.177357
-0.0941578
-0.160446
-0.07574
-0.0607624
-0.0486623
-0.0389578
-0.0312247
-0.0252189
-0.0205522
-0.01687
-0.0140383
-0.0414625
-0.00533141
-0.0117175
-0.125728
-0.10716
-0.0874825
-0.0669577
-0.0457955
-0.0242779
-0.00290082
0.0178664
0.0375808
-0.0100075
-0.00929305
-0.00987062
0.000566194
0.0558074
0.0675364
-0.00357325
-0.188843
0.00742012
0.00423898
0.0129233
0.0103391
0.0173698
0.0152619
0.0207809
0.0191822
0.0233058
0.0221338
0.0251555
0.0243094
0.0263076
0.0258289
0.0265768
0.026564
0.0259346
0.0263527
0.0248668
0.025406
0.0241083
0.0244134
0.0239566
0.0239675
0.0240195
0.0240035
0.0235982
0.0239111
0.0221125
0.0230132
0.0192659
0.0208664
0.0150098
0.01731
0.00942933
0.0123773
0.002636
0.00617847
-0.00531701
-0.00119504
-0.0144906
-0.00974284
-0.0250522
-0.0195863
-0.037149
-0.0309073
-0.0506505
-0.0437524
-0.0648455
-0.0577348
-0.078283
-0.0717756
-0.0889386
-0.0840941
-0.0946235
-0.09253
-0.0935404
-0.094995
-0.0853647
-0.0902618
-0.0721757
-0.0791826
-0.0574808
-0.0648039
-0.044104
-0.0505164
-0.0332663
-0.0383476
-0.0250323
-0.0288455
-0.01901
-0.0217745
-0.0147607
-0.0166847
-0.0119305
-0.0131816
-0.0108821
-0.0350786
-0.0279563
-0.0501915
-0.0425145
-0.0658544
-0.0579965
-0.0810557
-0.073594
-0.0945674
-0.0880916
-0.105305
-0.100347
-0.112299
-0.10932
-0.114857
-0.114158
-0.112717
-0.11437
-0.106097
-0.109933
-0.0956433
-0.101295
-0.0823874
-0.0892826
-0.0677581
-0.0751583
-0.0528429
-0.0602986
0.0780436
0.0724941
0.0828819
-0.0454774
-0.0279598
-0.0346108
-0.0311658
-0.0221782
-0.0249758
-0.0174778
-0.0197016
-0.0138259
-0.0155246
-0.0111891
-0.0123797
-0.00959193
-0.0102583
-0.00906302
-0.00919483
-0.00955174
-0.00918978
-0.0108366
-0.010118
-0.0124646
-0.0116452
-0.0137933
-0.0132094
-0.0141888
-0.0141377
-0.0133509
-0.01392
-0.0115625
-0.0125343
-0.00956244
-0.0105374
-0.00805134
-0.00871614
-0.00734744
-0.00759278
-0.00750298
-0.00731704
-0.00857058
-0.00791609
-0.0106992
-0.00949036
-0.0141147
-0.0122301
-0.0191191
-0.0163967
-0.0261159
-0.0223398
-0.0356304
-0.0305222
-0.0482933
-0.0415289
-0.064689
-0.056002
-0.0848381
-0.0743433
-0.107056
-0.0959029
-0.126583
-0.117584
-0.136061
-0.133038
-0.129675
-0.134999
-0.107739
-0.120354
-0.0763024
-0.0927222
-0.0427469
-0.0593936
-0.0122355
-0.0269117
0.0132283
0.00112189
0.0342895
0.0242437
0.0517554
0.0434008
0.0663137
0.0593512
0.0725297
-0.157737
-0.182256
-0.00874797
-0.130121
-0.171859
-0.106672
-0.158518
-0.0872713
-0.142963
-0.0714
-0.0584621
-0.0480129
-0.0397018
-0.0331659
-0.0280526
-0.0241663
-0.0211233
-0.0186498
-0.0166952
-0.00819723
-0.0149442
-0.112107
-0.0948598
-0.0763437
-0.0567786
-0.0364004
-0.0156636
0.0048937
0.0248871
0.0437448
0.0611075
0.0869707
0.0768647
-0.0382991
-0.0131963
-0.00186357
-0.0278786
-0.0313483
-0.00631626
-0.170863
0.00606164
0.00228833
0.0126067
0.00953337
0.0180287
0.0154325
0.0224899
0.0203765
0.0260546
0.0243703
0.0288773
0.0275512
0.031107
0.0300578
0.0327952
0.0320241
0.0337981
0.0333957
0.0339676
0.0339863
0.033496
0.033783
0.0329009
0.0331816
0.0325297
0.0326862
0.0321993
0.0323884
0.0313871
0.0318879
0.0295986
0.0306372
0.0265629
0.0282434
0.0222329
0.0245558
0.0166954
0.0196068
0.010074
0.0135131
0.00244877
0.00638515
-0.00619862
-0.00174191
-0.0159829
-0.0109401
-0.0270144
-0.0213417
-0.039188
-0.0329813
-0.0519217
-0.0455458
-0.0639974
-0.0581412
-0.0736573
-0.0692508
-0.0788991
-0.0769514
-0.0780128
-0.0792853
-0.0707319
-0.0750936
-0.0590586
-0.065246
-0.0461664
-0.0525793
-0.0344848
-0.0400821
-0.0250123
-0.0294577
-0.0177753
-0.0211337
-0.0124338
-0.014893
-0.00861765
-0.0103544
-0.00601638
-0.00718093
-0.00432443
-0.00510425