/*--------------------------------*- C++ -*----------------------------------*\
  =========                 |
  \\      /  F ield         | OpenFOAM: The Open Source CFD Toolbox
   \\    /   O peration     | Website:  https://openfoam.org
    \\  /    A nd           | Version:  10
     \\/     M anipulation  |
\*---------------------------------------------------------------------------*/
FoamFile
{
    format      ascii;
    class       surfaceScalarField;
    location    "14";
    object      phi;
}
// * * * * * * * * * * * * * * * * * * * * * * * * * * * * * * * * * * * * * //

dimensions      [0 3 -1 0 0 0 0];

internalField   nonuniform List<scalar> 
57492
(
-0.00522978
0.000103235
0.00113117
0.00399537
0.00256152
-0.00390268
-0.00388861
-0.000753466
0.00220675
0.00785689
-0.00931017
0.03868
0.0295889
-0.00605355
-0.0622153
-0.083123
0.0348046
0.0869983
0.0137389
-0.0129639
-0.00655973
0.00578472
-0.0248028
0.00692712
-0.00408073
0.0219564
0.0050146
-0.0160784
0.0152943
-0.0421126
0.040117
-0.0132988
0.0129295
0.0385006
-0.0361358
0.00846013
0.00242948
-0.00579807
-0.00509155
-0.000909851
0.00435784
0.00501214
-0.00552746
0.00492664
-0.000309024
0.00100429
-0.00410227
0.0301307
-0.0264985
-0.0111944
0.0075622
0.00170211
0.023024
0.00540459
-0.00131759
0.0058242
0.0344672
-0.0389738
-0.0052261
0.0339736
-0.0300651
0.00416169
-0.00852248
0.00436079
-0.0333595
0.0238788
0.0136424
-0.0460321
0.0050546
0.0335301
0.00744738
0.00872589
-0.0467544
-0.00800353
-0.00055446
0.00277703
-0.00134718
-0.000875392
0.0021913
-0.00297919
0.000233421
-0.0291489
0.0316316
0.00242916
-0.0049119
-0.0498337
0.0302089
-0.00952409
-0.0245742
0.0105186
0.0115483
0.00250738
-0.017005
-0.00830001
0.000730778
-0.00801392
-0.0234093
0.0275678
0.00385543
-0.00935946
0.00283695
-0.00149141
0.0144707
-0.00944597
-0.00875981
0.00373513
-0.0123582
0.00979409
0.0170348
-0.0187878
-0.031707
0.0224427
0.0280521
-0.0352746
-0.0107858
0.0272726
-0.0177596
-0.0027426
0.0205022
-0.00575022
-0.0120094
-0.0269835
0.0345293
-0.013296
0.00465428
-0.016797
-0.0148408
-0.01117
0.0180971
-0.00735508
-0.0378728
0.0203508
0.017522
-0.0731901
0.0353173
0.0672994
-0.0113146
0.0048467
-0.0608315
0.0499065
-0.000216487
0.0176094
-0.00957588
0.0644385
-0.0661772
0.0266659
0.00485642
-0.0265078
0.0257293
-0.0031441
0.0306107
-0.0109375
-0.0225711
0.00289797
0.0345377
0.000929474
0.0204856
-0.0120532
0.0172969
0.0100143
0.0324277
-0.044115
-0.00419637
0.00310393
0.0452075
-0.0455228
-0.000948663
0.00235644
0.0113803
0.0409181
-0.040271
-0.0120275
0.00845411
-0.0391864
-0.0182433
0.0405452
0.0306232
-0.0529251
0.0133768
0.0483137
-0.0799338
0.000693308
0.00291492
-0.000178099
-0.00343013
0.00333518
0.00228477
-0.00156755
0.00153029
0.00337244
0.00169457
-0.000347188
-0.00120189
0.00102379
-0.000250174
-0.00095172
0.0960923
0.0433226
-0.0662687
-0.0731462
0.0367737
-0.0221659
0.0814846
-0.085633
0.0367044
0.0857023
0.0221382
-0.0644486
0.01259
-0.0307318
0.0241312
-0.00598937
0.0261252
-0.0309607
0.0174254
0.00099771
-0.00103851
0.000144037
0.00168243
0.000446451
0.00453636
0.00114144
-0.0332617
0.0606631
0.0292205
-0.0566219
0.039258
-0.0463944
0.0240999
0.0555106
-0.0189474
0.13401
-0.00973091
-0.0406245
-0.0836543
0.0401574
0.073641
0.0202114
0.0234599
-0.0512418
0.0679392
0.00137534
-0.0021288
0.00358209
0.016015
0.0321628
-0.0131988
-0.034979
0.0217955
0.0020764
0.00257304
-0.00115815
-0.00141488
0.00280879
-0.00023575
-0.0777677
0.0385657
-0.0285786
0.0677806
-0.067727
-0.0335044
0.0234637
-0.036546
0.0321191
-0.0633001
0.0371552
-0.000684186
-0.0185919
-0.0178791
-0.0147068
0.041984
0.00987808
-0.0180532
-0.00182096
0.00516735
-0.0164561
-0.00228127
-0.00613833
-0.0289097
0.0150709
0.00217867
-0.002962
-0.0142875
0.00478486
0.0136804
-0.00339437
-0.00967503
-0.00186257
0.0163225
-0.00762417
0.000127811
-0.0110983
0.000512077
-0.0152478
0.00910952
0.00214794
-0.0173958
0.00252564
0.000283148
0.0465071
0.0310361
-0.00327607
0.0174186
-0.0540345
-0.00317296
0.0359261
-0.0265505
-0.00620272
-0.00498463
0.0414339
-0.0396223
0.0336659
0.0156705
-0.00155623
-0.0477801
-0.0133742
0.00818798
0.0388521
0.0394946
-0.0371983
-0.0142466
-0.0286999
0.00983493
0.0331116
-0.0128688
0.0331685
-0.0345463
0.00216634
-0.043735
-0.00398933
-0.00311927
0.000134227
-0.00102373
0.00174054
0.00184471
-0.00174295
0.00208903
-0.00136981
-0.00541441
-0.00023122
-0.00475183
0.00763635
0.00184746
-0.00473198
0.0173573
-0.0163011
-0.00580805
-0.00775994
0.0183322
0.00678506
-0.00325323
0.00312963
-0.062431
0.0365953
0.0644015
0.0705665
-0.024461
-0.0796099
-0.0304574
0.0385929
-0.00236725
-0.0184213
-0.00262072
-0.0119124
0.000185731
0.00092738
-0.0037327
0.00134623
0.00145909
-0.00356577
0.00324874
0.00124441
-0.00706957
-0.000228905
-0.00543761
-0.00770257
0.00122774
-0.0156376
-0.00822134
-0.0143706
-0.0151662
0.018014
0.0115227
0.000818986
0.00702319
-0.0222127
-0.0199981
0.0056509
-0.0505976
0.0200163
-0.00277809
-0.0517274
0.00663844
-0.00550866
0.00214581
-0.0368632
0.0325759
0.00214151
0.00188955
-0.0341392
0.0343955
0.00239166
-0.112445
-0.0282078
0.036449
0.0374403
-0.0456318
0.0371473
-0.00536066
0.00286274
-0.00472531
0.00283122
3.15263e-05
0.0067751
-0.00135405
0.0707702
-0.0429005
-0.0321891
0.00431946
0.0610172
0.000177145
0.0559816
0.0156069
-0.0582117
0.0311774
0.043096
-0.0182919
0.0141051
-0.0277277
0.0448
8.73043e-05
0.00274391
0.0128179
-0.0395797
-0.0416071
0.0239653
0.0501378
0.0158983
-0.00082368
-0.016619
0.00154443
0.00526231
-0.00172224
-0.0206273
0.00400691
0.0264145
0.00328764
-0.0186526
-0.00310638
0.00067398
2.74603e-05
-0.00191384
0.00163698
0.000249402
-0.00115051
9.96356e-05
0.00107833
-0.00346103
0.00295394
-0.000643427
-0.0118878
0.0227738
-0.00836041
0.0599298
-0.0526663
-0.0191513
-0.000413367
-0.0270949
0.0315152
-0.070206
-0.00179365
-0.0516472
-0.0259111
0.00735237
0.0316382
0.0254618
-0.0520454
0.0200476
0.0469362
-0.0353456
0.01855
-0.0322002
0.0186822
-0.00503199
0.0202655
-0.031226
0.0295105
0.0445567
0.0144352
0.0458102
6.74137e-05
-0.045499
-0.00037868
0.0508948
-0.0038458
-0.0012388
0.0504745
-0.00886689
0.00163857
-0.0432462
0.0360271
-0.0132299
0.0276773
0.0403346
-0.0114137
0.00914683
-0.0380677
0.0103299
0.0409171
-0.0109124
-0.0366843
-0.0137807
0.0390513
0.00826051
-0.0351099
-0.0147361
0.034067
-0.018907
-0.0310259
0.0169278
0.0330051
-0.0191694
-0.0315976
0.03186
0.0176256
0.0298486
-0.010582
-0.0368922
0.0294327
-0.0309765
-0.0206724
0.0207721
0.029333
-0.0162099
0.0253861
-0.0392631
0.0346548
-0.00597375
-0.0506371
0.00513535
0.051721
-0.00621921
0.0139672
-0.00336636
-0.00337247
0.00205197
0.00468686
-0.0015221
0.000218509
-0.00206277
0.000998482
-0.0037881
-0.00262479
-0.0194313
-0.0293532
0.0183048
0.000338461
-0.000238826
-7.94767e-05
0.000417938
-0.00342368
-0.0334054
0.0247758
-0.0288506
-0.00288433
0.0283113
0.00201181
-0.030155
-0.000707382
-0.00755451
0.00721674
0.00712915
-0.00679138
0.011438
-0.00721249
-0.0117801
0.00351403
0.0151408
0.000237951
-0.000492014
-0.0028652
-0.000579542
0.000817494
-0.00107156
0.000282664
-0.000404614
0.00181652
-0.000271993
0.000554656
-0.000676607
0.0011809
-9.18372e-05
0.00110224
-0.00106386
0.00224476
-0.00115569
0.00197518
-0.000157008
-0.0050714
-0.000715044
0.00269023
-0.000872052
0.0164754
0.0324867
-0.0407742
0.0101186
-0.0412118
0.0475686
0.0481161
-0.00551076
-0.0132866
-0.0251563
0.0131743
0.0252687
-0.0063171
0.0269479
-0.0339174
0.00281233
-0.0342857
0.0339829
-0.0337382
0.00575075
-0.00599542
0.0344368
0.00638817
-0.00684211
0.00543859
-0.0330869
-0.00608995
0.0351373
0.0061569
-0.0068574
0.0362093
0.00671956
-0.00779156
0.00645826
0.0374751
-0.00772408
0.0353266
-0.0347412
0.00587285
0.0043755
0.0395506
-0.00645091
0.0344994
0.00520272
-0.033222
0.00520044
-0.0326035
0.00553839
-0.0319861
0.00577074
-0.0320863
0.00585099
-0.0309004
0.00425268
0.00438379
0.0414518
-0.00628503
0.0330305
0.00585262
0.00518334
-0.0320927
-0.00617747
-0.0303703
0.00465318
0.00469589
-0.033293
-0.00349559
0.00596464
0.0416498
-0.0061627
0.0332463
0.00574885
-0.0306614
0.004987
0.0417409
0.00585658
-0.00594767
0.00569268
0.0418373
-0.00578903
0.0333814
0.00572154
0.0335099
0.00556415
0.00425126
-0.0321837
-0.00536061
-0.0299605
0.00355042
0.00555011
0.0418365
-0.0055493
0.0335665
0.0054935
0.00387969
-0.031184
-0.00487933
-0.0289792
0.00289836
0.00536113
0.0418455
-0.00537012
0.0336267
0.00530093
0.00322337
-0.0301347
-0.00427273
-0.0279661
0.00221031
0.00520101
0.0417638
-0.00511938
0.033627
0.00520066
0.00247089
-0.0290036
-0.00360197
-0.0269066
0.00141139
0.00500335
0.0416921
-0.00493158
0.033646
0.00498442
0.00163761
-0.0278348
-0.00280645
-0.0258378
0.000568759
0.00484271
0.0415296
-0.00468021
0.0336276
0.00486108
0.00078919
-0.026681
-0.00194297
-0.024708
-0.000340592
0.00465871
0.0413625
-0.0044916
0.0336605
0.00462579
-8.37593e-05
-0.0246787
-0.00191851
-0.023249
-0.00154277
0.00453255
0.0410746
-0.00424469
0.0335064
0.00468664
-0.00116608
-0.0235725
5.98097e-05
-0.0221179
-0.00229713
0.00442687
0.0407063
-0.00405858
0.0332136
0.00471973
-0.00210008
-0.0215529
8.05491e-05
-0.0206093
-0.00360874
0.00579491
0.0387267
-0.00381527
0.0342152
0.00479329
-0.0032521
-0.0203462
0.00204533
-0.0196605
-0.00420091
0.00538718
0.0358193
-0.00247984
0.0347574
0.00484492
-0.00425778
0.00301287
-0.0191013
-0.0190221
-0.00489612
0.00376561
-0.00322497
0.0352787
0.0345272
0.00399583
-0.0218803
0.0236147
0.000310915
-0.0206083
0.00174086
-0.00511959
0.00433878
-0.0183205
-0.00594884
-0.0181929
-0.0244718
0.0259708
-0.0014392
-0.000776582
-0.0262049
0.0273284
-0.00306655
-0.00215254
-0.0283885
0.0293857
-0.00459916
-0.0038665
-0.0303035
0.031153
-0.00572886
-0.00519056
-0.0319129
0.0348933
-0.00647593
-0.00612049
-0.0354071
0.0355055
-0.00618843
-0.00669125
-0.0371455
0.0373134
-0.0070101
-0.00763534
-0.0363751
0.0361282
-0.0075447
-0.00591902
-0.0355544
0.0357531
-0.0066496
-0.00715023
-0.0359067
0.0360234
-0.00627932
-0.00643872
-0.0361036
0.0361501
-0.00583555
-0.00602786
-0.0361649
0.0361505
-0.0053557
-0.00556415
-0.0361091
0.0360423
-0.0048647
-0.005078
-0.035953
0.0358427
-0.00438131
-0.00459096
-0.0357158
0.0355739
-0.00391669
-0.00411776
-0.0352703
0.0358178
-0.00302726
-0.00351172
0.0355038
-0.00291106
0.00323959
-0.00262846
0.0346676
0.00341146
0.0343554
0.0335336
-0.0328699
0.00412964
-0.0339478
0.0339744
0.00396922
0.00443071
0.0328186
-0.0325772
0.00444528
0.00466837
0.0325466
-0.032511
0.00482545
0.00459518
0.0324652
-0.0324015
0.00513696
0.00493869
0.0323152
-0.0321986
0.00537688
0.00521463
0.0320487
-0.031858
0.00553077
0.00541426
0.0316264
-0.0313482
0.00557446
0.00551729
0.0316409
-0.031241
0.00547301
0.00549536
0.0313431
-0.0305314
0.00472671
0.00530252
0.0297599
-0.0289171
0.0050081
0.00499926
0.0286305
-0.0281128
0.0041354
0.00396616
0.0264444
-0.0256492
0.00275523
0.00331862
0.0248384
-0.0240088
0.00138071
0.00208761
0.0231888
-0.0223841
-0.000235931
0.000591356
0.0216213
-0.0211592
-0.00200484
-0.00110341
0.0205687
-0.0203878
-0.00378968
-0.00288764
0.0199716
-0.0195025
-0.00536521
-0.00461708
-0.0194278
-0.00602358
-0.0193784
0.00310894
0.0354673
-0.00259188
0.00326301
0.0341228
-0.00662484
0.00646965
-0.0180377
-0.00647784
-0.0195748
-0.00570833
0.00445883
-0.0181289
-0.0175591
-0.0238565
0.0249051
-0.000737623
0.0226089
-0.0212337
0.00173375
0.000493254
-0.0259303
0.0271935
-0.00270241
-0.00180183
-0.0283596
0.0294617
-0.00416855
-0.00331866
-0.0304793
0.0314194
-0.00553918
-0.00488418
-0.0322715
0.0330447
-0.0065021
-0.00604268
-0.0337312
0.0343418
-0.00708656
-0.00680698
-0.0348703
0.03603
-0.00734822
-0.00721968
-0.0357329
0.0360677
-0.00734485
-0.00733821
-0.0373753
0.0369742
-0.00714369
-0.00722661
-0.0367691
0.0369157
-0.00679618
-0.00694514
-0.0370249
0.0371017
-0.00635615
-0.00654792
-0.037149
0.0371694
-0.00585592
-0.00607513
-0.0371647
0.0371364
-0.00532743
-0.00555946
-0.0370866
0.0370153
-0.00479343
-0.00502813
-0.036925
0.0368151
-0.00427136
-0.00450073
-0.0366894
0.0365459
-0.00377322
-0.00399207
-0.0363718
0.0364191
-0.00307457
-0.00333759
-0.00299692
0.00302894
0.0346356
-0.00285581
0.0353262
-0.0360841
0.0362018
-0.00270956
-0.00257609
0.0334789
-0.0332484
0.00373873
0.0334741
0.00326781
-0.00308583
0.00336261
0.0338461
0.0342985
0.0330294
-0.0325594
0.00365958
0.00421172
0.0320746
-0.0319315
0.00430221
0.0041836
0.0318004
-0.0316717
0.00469673
0.00446408
0.0315422
-0.0314026
0.00499728
0.00480922
0.0312491
-0.0310724
0.00520024
0.00506111
0.0308702
-0.0306336
0.0052942
0.00521207
0.0303626
-0.0300477
0.00525959
0.00524621
0.0296918
-0.0292841
0.00506531
0.00513947
0.0288367
-0.0287868
0.00467679
0.00485517
0.0281528
-0.0272047
0.00405997
0.00436527
0.0268642
-0.0259259
0.00319708
0.00362567
0.0252435
-0.0245526
0.00206442
0.0026362
0.023865
-0.0231918
0.000707569
0.00139995
0.0225632
-0.0219869
-0.000812276
-3.72529e-05
0.0214932
-0.0211013
-0.00239668
-0.00159713
0.0208309
-0.0206982
-0.00392236
-0.00315811
0.0207073
-0.0207766
-0.00529598
-0.00460794
0.0210212
-0.0213193
-0.00617974
-0.00577892
-0.0198085
0.00303365
-0.00725985
0.00733589
-0.0196508
-0.021838
-0.00674118
0.00699511
-0.0176969
-0.00249515
0.0358412
0.0337819
0.0030548
0.00604024
-0.00692257
-0.0172466
0.00457096
-0.0183393
-0.00791357
0.00806775
-0.019805
-0.00747902
-0.0222725
-0.0174866
0.0372483
-0.0373761
-0.00258178
0.0366729
-0.00191975
0.00322038
-0.0030299
0.0336556
0.00268321
0.0343191
-0.0203821
0.0222946
0.00265845
0.0057098
-0.00716845
-0.0168806
0.0189675
-0.00815417
0.00655846
-0.0173718
0.00429513
-0.0239425
0.025369
0.000307216
0.00138581
-0.0265439
0.02752
-0.0017137
-0.000681657
-0.0286319
0.0295278
-0.0035983
-0.00291373
-0.0306403
0.0316711
-0.00519933
-0.00443116
-0.032607
0.0334559
-0.00638804
-0.00582015
-0.0342117
0.0348837
-0.00717413
-0.00679843
-0.0354691
0.03598
-0.00759746
-0.00739242
-0.0364142
0.0367837
-0.00771773
-0.00765384
-0.0370908
0.0373456
-0.00759961
-0.00764533
-0.0375492
0.0377109
-0.00730542
-0.00743022
-0.0378352
0.0379266
-0.00688756
-0.00706941
-0.0379879
0.0380238
-0.006392
-0.00660924
-0.0380372
0.0380307
-0.00584942
-0.00608861
-0.0380062
0.0379646
-0.00528583
-0.00553497
-0.0379077
0.037835
-0.00472074
-0.00497119
-0.0377483
0.0376462
-0.00416922
-0.00441406
-0.0375311
0.0374008
-0.00364292
-0.003877
-0.0373435
0.0372032
-0.00293424
-0.00328029
-0.00274892
-0.00255901
0.00268937
0.0345052
0.00230941
-0.00241688
0.0359486
0.0350766
0.0339579
0.0337003
-0.033292
0.00333044
-0.0340328
0.0342594
0.00282821
0.00293525
0.0325314
-0.0323878
0.00351592
0.00345118
0.0319533
-0.0316918
0.00404073
0.00374907
0.0314465
-0.0312096
0.00445977
0.00421884
0.0309799
-0.0307478
0.00476513
0.00457958
0.0305116
-0.0302612
0.00494987
0.00482493
0.0299957
-0.0297054
0.00500384
0.00494657
0.0293908
-0.0290427
0.00491149
0.00493165
0.0286643
-0.0282487
0.00464964
0.00476108
0.0278031
-0.0273209
0.00419457
0.00440961
0.0268101
-0.0262723
0.00352212
0.00385452
0.0257243
-0.0251564
0.00262919
0.00307772
0.0246007
-0.0240582
0.0015219
0.00208048
0.0235516
-0.0230937
0.000249611
0.00089337
0.0227069
-0.0224074
-0.00111177
-0.000424025
0.0222153
-0.0221435
-0.00246851
-0.00178922
0.0222007
-0.0223902
-0.00373291
-0.00310087
0.0227004
-0.0231194
-0.00487694
-0.00429772
0.0235038
-0.0237266
-0.00595689
-0.00539459
0.0241865
-0.0249653
-0.00670029
-0.00628126
-0.00787724
0.00855545
-0.0229507
-0.0254112
-0.00743128
-0.00786621
-0.0165488
0.00836543
-0.0179946
-0.00197147
0.0362275
0.0347658
0.00217685
-0.00804141
-0.0169934
0.00912905
-0.0203786
-0.00562473
-0.0142887
0.0234275
0.00851173
-0.00819922
-0.0257237
0.00887608
-0.0233151
-0.0132625
0.0201791
0.00822418
-0.011584
0.00545064
-0.0169874
-0.0199669
0.0220044
0.00452095
0.00626797
-0.00605573
-0.0234858
0.0249707
0.00117356
0.00281369
-0.0263653
0.0274861
-0.000813603
-8.79535e-06
-0.0286973
0.0299028
-0.00291927
-0.00189279
-0.0308349
0.0319485
-0.00471189
-0.00384584
-0.0329621
0.0338832
-0.00612045
-0.00544473
-0.0347045
0.035435
-0.00711859
-0.00664144
-0.0360716
0.0366246
-0.00772712
-0.00743495
-0.0370945
0.0374922
-0.00799524
-0.00786231
-0.03782
0.0380889
-0.00798666
-0.0079816
-0.0383022
0.0384696
-0.00776697
-0.00785861
-0.0385955
0.0386861
-0.007396
-0.00755613
-0.0387466
0.038782
-0.006923
-0.00712991
-0.0387955
0.0387906
-0.00638705
-0.00662275
-0.0387703
0.0387368
-0.00581583
-0.0060684
-0.038692
0.0386365
-0.0052303
-0.0054902
-0.0385719
0.0384975
-0.00464637
-0.00490658
-0.0384147
0.0383217
-0.00407631
-0.00433124
-0.0382201
0.0381076
-0.00353038
-0.00377539
-0.0380756
0.0381586
-0.00301726
-0.00324826
-0.0378973
0.0376874
-0.00237191
-0.00248759
-0.0376441
0.0373686
-0.00169593
-0.00187648
-0.00176775
0.00213986
0.0355765
0.00183221
-0.00191184
0.0374482
0.0362919
-0.00216155
0.00264428
0.0340225
0.0350549
-0.00265642
0.00236406
0.0339479
0.0339458
-0.00211872
0.00154836
0.0353362
0.0345644
0.0354412
-0.0348537
0.0022407
-0.0364867
0.0359271
0.00210803
0.00113131
0.0343034
-0.0337914
0.00281844
0.00238501
0.0331001
-0.0326944
0.00311021
0.00275987
0.0323076
-0.0319344
0.00366758
0.00336223
0.0315798
-0.0312354
0.00411542
0.00386416
0.0309042
-0.0305763
0.00443729
0.00424836
0.0302535
-0.0299256
0.00462191
0.00450213
0.029594
-0.0292489
0.00465878
0.00461494
0.0288929
-0.0285172
0.00453578
0.00457562
0.0281265
-0.0277148
0.0042379
0.00437046
0.0272897
-0.0268469
0.00375181
0.00398449
0.0263984
-0.0259453
0.003069
0.00340603
0.0255019
-0.0250715
0.00219875
0.00263434
0.0246762
-0.0243222
0.00116793
0.00168516
0.0240305
-0.0238132
3.23611e-05
0.00060167
0.0236867
-0.023663
-0.00113548
-0.000550559
0.0237503
-0.023953
-0.00226583
-0.00170187
0.0242634
-0.0246728
-0.0033235
-0.00279049
0.0251556
-0.0256911
-0.00434141
-0.00381494
0.0262442
-0.0267901
-0.00541099
-0.00484152
0.0270998
-0.027173
-0.00662702
-0.00597158
0.0277714
-0.0280807
-0.00789001
-0.00683286
-0.00884051
0.00928931
-0.0261725
-0.0281798
-0.00874137
-0.00883309
-0.0157572
0.00927972
-0.0181453
-0.008459
-0.0141591
0.00968747
-0.02119
0.0382253
-0.0384084
-0.00151276
0.0378936
-0.00158015
0.00157222
-0.00182066
0.0355846
0.000772978
0.0367263
-0.00894188
-0.0125593
0.00982145
-0.0238472
-0.0157645
-0.00261085
-0.017698
0.0208636
0.00505865
-0.00957403
0.00987284
-0.0264714
-0.00931419
-0.0284396
-0.0156874
0.00344001
-0.0165407
-0.022822
0.0244512
0.00289178
0.00430952
-0.0261733
0.0273626
-1.57254e-05
0.00109157
-0.0284639
0.0298234
-0.00217307
-0.00111012
-0.031095
0.0322799
-0.00410423
-0.00316439
-0.0333639
0.0343524
-0.00570038
-0.00492987
-0.0352352
0.0360211
-0.00690627
-0.00632753
-0.0367056
0.0372991
-0.00771208
-0.007326
-0.0378014
0.0382235
-0.00814922
-0.00793721
-0.0385685
0.0388472
-0.00827399
-0.00820731
-0.0390645
0.0392302
-0.00815237
-0.00819892
-0.0393497
0.0394312
-0.00784847
-0.00797812
-0.0394801
0.0395021
-0.00741794
-0.00760504
-0.039502
0.0394842
-0.00690516
-0.00712987
-0.0394523
0.0394086
-0.0063434
-0.0065908
-0.0393564
0.0392969
-0.00575632
-0.00601621
-0.0392323
0.0391627
-0.0051607
-0.00542564
-0.0390897
0.0390124
-0.00456906
-0.00483356
-0.0389319
0.0388467
-0.00399107
-0.00425075
-0.0387574
0.0386621
-0.00343511
-0.00368608
-0.0385613
0.0384524
-0.00290843
-0.00314741
-0.0386064
0.0383537
-0.00211912
-0.00264161
-0.00193128
-0.00166738
0.00155949
0.0356844
0.0017067
-0.0014665
0.037208
0.0363313
-0.00218731
0.00216603
0.0340437
0.0344271
-0.00238606
0.00234189
0.0339921
0.0337258
0.0350857
0.0366311
-0.0360202
0.00162987
-0.0366445
0.0375078
0.00124478
0.00111784
0.0354165
-0.034565
0.00196695
0.00178127
0.0340807
-0.0335976
0.00262712
0.00227558
0.0331304
-0.0326711
0.0032082
0.00289503
0.0322289
-0.0317957
0.00368223
0.00342199
0.0313785
-0.0309682
0.00402697
0.00383119
0.03057
-0.0301745
0.00422643
0.00410394
0.0297862
-0.0293963
0.00426882
0.00422664
0.0290094
-0.0286183
0.00414466
0.00418877
0.0282293
-0.0278377
0.00384624
0.00398148
0.027452
-0.0270707
0.00337046
0.00359883
0.0267056
-0.0263593
0.0027227
0.00304096
0.0260453
-0.0257703
0.00192368
0.00232039
0.0255502
-0.0253933
0.00101106
0.00146508
0.0253136
-0.0253197
3.84379e-05
0.00052193
0.0254173
-0.0256127
-0.000940084
-0.000452966
0.0258999
-0.0262733
-0.00189243
-0.00141465
0.0267128
-0.0272029
-0.00283339
-0.00235099
0.0277135
-0.0282261
-0.00382887
-0.0033043
0.0287127
-0.0291616
-0.00496206
-0.00435494
0.0295582
-0.0299008
-0.00628443
-0.00557492
0.0297446
-0.0298459
-0.00778875
-0.00698908
0.0300198
-0.0301215
-0.00921255
-0.00856739
-0.0100513
0.0103306
-0.0287189
-0.0303892
-0.0097836
-0.00963019
-0.014586
0.00996154
-0.0184193
-0.001135
0.0375621
0.037812
0.00046874
-0.00991366
-0.0131873
-0.0112508
-0.0162938
-0.0107293
-0.0130808
0.01022
-0.0215885
0.0104129
-0.0243872
-0.0204196
0.0021214
-0.00863068
0.00489085
-0.0166798
-0.0107065
-0.014218
0.0105591
-0.0266998
-0.0110779
0.0109106
-0.0285516
-0.0106048
-0.0308624
-0.0162094
-0.0212455
0.023509
0.00279508
0.020513
-0.0208784
0.0024868
0.00270755
-0.0255359
0.0272439
0.00118375
0.00228265
-0.0287199
0.0301314
-0.00142728
-0.000384357
-0.0314588
0.0327015
-0.00341577
-0.00243745
-0.0338436
0.0348895
-0.00515018
-0.00430652
-0.0358273
0.0366639
-0.00653695
-0.00586761
-0.0373929
0.0380237
-0.00753708
-0.00705658
-0.0385556
0.0389995
-0.00815596
-0.00785787
-0.0393584
0.0396437
-0.00843449
-0.00829618
-0.0398608
0.0400202
-0.00843338
-0.00842444
-0.0401284
0.0401942
-0.00821813
-0.00830713
-0.0402241
0.0402248
-0.00784916
-0.00800799
-0.0402022
0.0401608
-0.00737663
-0.00758244
-0.0401057
0.0400398
-0.00683923
-0.00707477
-0.0399669
0.0398885
-0.00626495
-0.00651789
-0.0398075
0.0397245
-0.00567333
-0.00593527
-0.0396418
0.0395588
-0.00507774
-0.00534288
-0.0394772
0.039396
-0.00448784
-0.00475199
-0.0393162
0.0392362
-0.00391105
-0.00417089
-0.0391564
0.0390752
-0.00335389
-0.00360637
-0.0389925
0.0389067
-0.00282268
-0.00306468
-0.038817
0.0390212
-0.00232331
-0.00255187
-0.0389209
0.0388828
-0.00147474
-0.00183095
-0.0382468
0.0382645
-0.00115269
-0.000944125
-0.000893376
0.00121792
0.0368835
0.00126495
-0.00132754
0.0383271
0.0379337
-0.00136038
0.0018902
0.0351546
0.0361888
-0.00193301
0.0018801
0.0340967
0.0343842
-0.00171958
0.00145358
0.0342581
0.0338863
-0.00138284
0.000933713
0.0360337
0.0351564
-0.0004364
5.56498e-05
0.0381928
0.0372236
0.0389302
-0.0380514
0.000365951
-0.0391675
0.0393336
-0.000110496
0.000231497
0.037656
-0.0370908
0.00106468
0.000722471
0.0364052
-0.0358931
0.00145484
0.00109563
0.035381
-0.0348631
0.00210919
0.00176353
0.0343534
-0.0338447
0.00269955
0.00238531
0.0333493
-0.0328597
0.00319262
0.0029266
0.0323862
-0.0319207
0.00356151
0.00335762
0.0314718
-0.0310317
0.00378625
0.0036551
0.0306076
-0.0301922
0.00385351
0.00380251
0.0297929
-0.0294038
0.00375562
0.0037894
0.029033
-0.0286772
0.00349051
0.00361062
0.0283457
-0.0280387
0.00306338
0.00326733
0.0277667
-0.0275333
0.00248933
0.00276899
0.0273495
-0.0272215
0.0017957
0.00213658
0.0271591
-0.0271685
0.00102049
0.00140264
0.0272546
-0.0274206
0.000204492
0.000607978
0.0276612
-0.0279747
-0.000626594
-0.000212364
0.0283453
-0.028762
-0.00147573
-0.00104407
0.0292007
-0.029647
-0.00238708
-0.00191225
0.030077
-0.0304806
-0.00342522
-0.00287436
0.0308435
-0.0311655
-0.00464004
-0.0039921
0.0314443
-0.0316887
-0.00603997
-0.00529611
0.0319046
-0.0320987
-0.00759465
-0.00677327
0.0322811
-0.032233
-0.00926056
-0.008385
0.0322456
-0.0321959
-0.0106545
-0.00977099
-0.0118161
0.0117147
-0.030761
-0.0324604
-0.0115516
-0.0104702
-0.0140294
-0.0194926
0.003505
-0.0109958
-0.0129209
0.0392737
-0.039477
-0.000949366
0.0391507
-0.00120448
-8.20092e-05
-0.000274271
0.038549
-0.00033715
0.0395888
0.0105257
-0.0187251
0.010739
-0.0219147
-0.0109932
-0.0127941
0.0110271
-0.0248553
0.0115734
-0.0273626
0.0123008
-0.0291377
-0.0125685
0.0128478
-0.0310403
-0.0125676
-0.0324613
-0.0161539
-0.0239011
0.0243535
0.00203442
0.00472824
-0.00668808
-0.0175327
0.0231028
-0.0222571
0.0038825
0.00270668
-0.0251301
0.0270575
0.000867713
0.00193093
-0.0289735
0.0306365
-0.000479241
0.000366618
-0.03199
0.0332673
-0.00270457
-0.0017378
-0.0344483
0.0355349
-0.0045024
-0.00361848
-0.0365135
0.0373892
-0.00602587
-0.00528516
-0.0381541
0.0388161
-0.0071989
-0.0066325
-0.0393729
0.0398348
-0.00799897
-0.00761346
-0.0402046
0.0404934
-0.00844476
-0.00822761
-0.0407072
0.0408569
-0.0085842
-0.00851003
-0.04095
0.0409958
-0.00847914
-0.00851749
-0.0410019
0.0409758
-0.00819199
-0.00831328
-0.0409243
0.0408528
-0.00777763
-0.00795656
-0.0407671
0.0406705
-0.00728
-0.00749675
-0.0405677
0.0404604
-0.00673198
-0.00697199
-0.0403525
0.0402443
-0.00615676
-0.00640993
-0.0401388
0.0400356
-0.0055702
-0.00582975
-0.0399371
0.0398422
-0.00498289
-0.00524433
-0.0397527
0.0396671
-0.00440229
-0.00466243
-0.0395866
0.0395096
-0.00383403
-0.00409039
-0.0394366
0.0393658
-0.0032831
-0.00353337
-0.0392974
0.0392293
-0.00275456
-0.00299631
-0.0391618
0.039092
-0.0022535
-0.00248432
-0.0392634
0.0393225
-0.00153387
-0.00200238
-0.00109865
-0.00112461
0.00104867
0.0369594
0.000839727
-0.0010191
0.0385065
0.0376488
-0.00156791
0.00165808
0.0350644
0.0356696
-0.00167168
0.00158755
0.0341808
0.0343706
-0.00139928
0.00111377
0.0345436
0.0340746
-0.00117383
0.000668045
0.0365395
0.0350963
0.0376174
0.0401839
-0.0398103
-7.62135e-06
-0.0404536
0.0405924
-0.000249282
-3.82404e-05
0.0390823
-0.038336
0.000318365
-5.50641e-06
0.0378684
-0.0373775
0.000963949
0.00062805
0.0368797
-0.0363679
0.00159744
0.00126571
0.0358568
-0.0353401
0.0021828
0.00187416
0.0348313
-0.0343241
0.00268551
0.0024178
0.033831
-0.0333454
0.00307592
0.00286444
0.0328782
-0.0324234
0.00333142
0.00318794
0.0319905
-0.0315743
0.00343728
0.00336962
0.0311835
-0.0308147
0.00338673
0.00339869
0.0304763
-0.0301668
0.00318109
0.00327222
0.0298951
-0.029662
0.00283034
0.00299559
0.0294761
-0.0293404
0.00235358
0.00258306
0.0292615
-0.0292434
0.00177762
0.00205772
0.029289
-0.0294003
0.0011318
0.00144824
0.0295737
-0.0298067
0.000437475
0.000781364
0.0300881
-0.0304083
-0.000306345
6.89958e-05
0.030751
-0.0311052
-0.00112155
-0.000701379
0.0314512
-0.0317806
-0.00205763
-0.00156624
0.0320804
-0.0323495
-0.00315609
-0.00257458
0.0325848
-0.0327926
-0.00443221
-0.00375689
0.0329771
-0.0331484
-0.00586867
-0.00511156
0.0333121
-0.0334769
-0.0074299
-0.0066096
0.0336475
-0.0338303
-0.00907772
-0.00821436
0.0337158
-0.0335936
-0.0107766
-0.00988557
0.0338147
-0.0342345
-0.0121478
-0.0113306
0.00932679
-0.00927057
-0.0142742
-0.0140411
-0.0132042
0.0136455
-0.0329026
-0.034259
-0.0131797
-0.011117
-0.0139082
-0.000511811
0.0386434
0.0412303
-0.000975107
-0.00658672
-0.0202705
0.00460012
0.0110208
-0.0190068
-0.0082056
-0.0159138
-0.011487
-0.012427
0.0112605
-0.0221481
-0.0112683
-0.0107963
0.0116669
-0.0249488
0.0123159
-0.0273777
0.0130948
-0.0293847
0.0136767
-0.0310715
-0.014212
0.0143681
-0.0330587
-0.0138574
-0.0346136
-0.0162501
-0.0266792
0.027088
0.00347366
0.00463473
-0.0182045
-0.00670073
0.0258946
-0.0234752
0.00221533
0.0038155
-0.02795
0.0288774
0.00110702
0.0018447
-0.0300577
0.0310721
-0.000146637
0.000750604
-0.0325171
0.0340547
-0.00201682
-0.00107837
-0.0352368
0.0363351
-0.00380285
-0.00291991
-0.0373311
0.0382265
-0.00539782
-0.00461447
-0.0390116
0.0396923
-0.0067066
-0.00607029
-0.0402651
0.0407384
-0.00767227
-0.00720522
-0.0411143
0.0414031
-0.0082878
-0.00798931
-0.0416109
0.0417484
-0.00858226
-0.00843534
-0.0418238
0.0418468
-0.00860726
-0.00858542
-0.0418262
0.0417698
-0.00842273
-0.00849688
-0.0416857
0.0415796
-0.00808585
-0.00822919
-0.0414584
0.0413257
-0.00764491
-0.00783537
-0.0411871
0.0410446
-0.00713748
-0.00735824
-0.0409026
0.0407616
-0.00659097
-0.00682998
-0.0406251
0.0404928
-0.00602441
-0.00627346
-0.0403673
0.0402477
-0.00545063
-0.00570427
-0.0401362
0.0400313
-0.00487805
-0.00513276
-0.0399347
0.0398449
-0.00431251
-0.00456584
-0.039763
0.0396873
-0.00375835
-0.00400845
-0.0396185
0.0395549
-0.00321946
-0.00346456
-0.0394966
0.0394419
-0.00269986
-0.00293804
-0.0393906
0.0393412
-0.00220402
-0.00243305
-0.0392929
0.0394955
-0.00173648
-0.00195408
-0.0397185
0.0396928
-0.000923663
-0.00132168
-0.039122
0.0391223
-0.000512198
-0.000633615
-0.000254517
0.000624819
0.0381362
0.00056867
-0.000579389
0.0391331
0.0389575
-0.000748492
0.00123901
0.0364689
0.0375251
-0.00135667
0.00142085
0.0350002
0.0355519
-0.00140442
0.00129053
0.0342947
0.0343871
-0.00107745
0.000775078
0.034846
0.0342876
-0.000407939
0.000397222
0.0365502
0.0354635
7.04542e-05
-0.000545604
0.0390242
0.0380851
0.00147279
-0.00119279
0.0409503
0.0405159
0.0419803
-0.0414605
-0.000769063
-0.0419495
0.0422407
-0.00148396
-0.000944326
0.0411079
-0.0404779
-0.000637641
-0.000390859
0.0401227
-0.0397335
-7.08187e-05
-0.000360693
0.0393236
-0.0388872
0.000527528
0.000218123
0.0384367
-0.0379669
0.00112759
0.000815284
0.0374909
-0.0370039
0.00169574
0.00139822
0.0365192
-0.036032
0.0021983
0.00193312
0.0355552
-0.0350842
0.00260489
0.00238766
0.0346309
-0.0341911
0.00289159
0.00273464
0.0337755
-0.0333808
0.00304257
0.00295409
0.0330167
-0.0326808
0.00305089
0.00303452
0.032382
-0.0321195
0.00291858
0.00297338
0.0319007
-0.0317265
0.00265608
0.00277684
0.0316022
-0.0315292
0.00228061
0.00245879
0.0315098
-0.0315443
0.00181214
0.00203828
0.0316301
-0.031765
0.00126667
0.00153406
0.0319404
-0.0321506
0.000647638
0.000956771
0.0323825
-0.0326264
-6.24906e-05
0.000300948
0.0328694
-0.0331041
-0.000886859
-0.000458372
0.0333196
-0.033514
-0.00186323
-0.00135068
0.0336836
-0.0338327
-0.00300698
-0.00240501
0.0339643
-0.0340867
-0.00430988
-0.00362528
0.0342055
-0.0343291
-0.00574501
-0.00499276
0.0344623
-0.034612
-0.00728026
-0.00647638
0.0347809
-0.0349733
-0.00888533
-0.0080454
0.0351882
-0.035431
-0.0105339
-0.00967068
0.0354361
-0.0353906
-0.0121933
-0.0113255
0.0355963
-0.0356293
-0.0138244
-0.012974
0.0111853
-0.0109526
-0.014507
-0.0110613
-0.0145938
0.0149941
-0.0350138
-0.0364762
-0.013747
-0.0115703
-0.013825
0.0114821
-0.0192285
-0.00505755
-0.0213874
0.0029698
-0.0160225
-0.00723954
-0.00954487
-0.0130697
-0.011856
-0.0118393
0.0117892
-0.0222704
0.0400841
-0.0398136
-0.000782659
0.0396933
-0.000188616