/*--------------------------------*- C++ -*----------------------------------*\
  =========                 |
  \\      /  F ield         | OpenFOAM: The Open Source CFD Toolbox
   \\    /   O peration     | Website:  https://openfoam.org
    \\  /    A nd           | Version:  10
     \\/     M anipulation  |
\*---------------------------------------------------------------------------*/
FoamFile
{
    format      ascii;
    class       surfaceScalarField;
    location    "17";
    object      phi;
}
// * * * * * * * * * * * * * * * * * * * * * * * * * * * * * * * * * * * * * //

dimensions      [0 3 -1 0 0 0 0];

internalField   nonuniform List<scalar> 
51391
(
-0.035663
0.012499
-0.0110981
0.0342622
0.0151643
-0.0168408
-0.0339865
0.0238331
-0.0155718
0.00690299
0.0359585
0.000373593
0.0296049
0.0250937
-0.0283517
-0.0263469
0.028088
0.0249118
-0.0233949
-0.0577538
0.0379701
0.0438918
-0.024108
0.00907995
-0.051393
-0.0154408
0.0600602
0.000228311
-0.0512086
0.0264087
0.0397983
-0.00614677
0.0236666
-0.0291581
0.0629225
-0.0574311
0.0579934
0.0214116
-0.0557384
0.073281
-0.0568653
-0.0455738
-0.000940602
-0.00363591
-0.00103768
0.00561419
-0.00109213
-0.00575628
0.00590781
0.0546842
0.0403361
-0.0504702
-0.0445501
0.0791152
0.0220851
-0.0465161
0.104108
-0.0622889
-0.0597357
0.017917
0.0393022
0.0735754
-0.00877005
0.0368509
-0.00673941
-0.0366012
0.00648965
0.00589198
0.0266931
0.0042658
0.0119107
-0.037177
0.0252663
0.0244934
0.0120946
-0.0246773
-0.00373889
-0.0427741
-0.000155271
0.0466682
-0.0459191
0.0513581
-0.00917787
0.00589473
-0.00721327
-0.0446006
0.00623487
-0.0431142
-0.0440059
0.0106547
0.0363679
-0.00301672
6.36371e-05
-0.0442248
0.0260729
0.0312501
0.0203655
0.025533
-0.0198256
0.00417035
-0.00315718
-0.00101317
0.00410489
6.54588e-05
-0.00349201
-0.00152852
0.00186334
-0.0401747
0.0509429
0.0157695
-0.0265377
-0.0675002
0.0319092
0.0505014
-0.0149104
-0.0665312
0.00937448
-0.0103434
0.0464425
-0.00405481
-0.0446951
0.00230743
0.0319242
-0.00304576
0.017564
0.0249734
0.0503683
0.0145368
-0.0898785
0.0215133
-0.0540312
0.0574912
0.0609966
0.020647
-0.0601303
-0.0377317
0.00335991
0.00635892
0.0280128
-0.0380301
0.000899927
-0.000601453
0.000113122
-0.0373137
-0.00082953
0.0650368
0.0234538
-0.0330151
-0.0554754
0.0147467
0.0696222
-0.0193321
0.00298714
-0.00595935
0.00548868
-0.00251647
-0.026135
0.0105427
0.0185795
0.0241143
-0.0265965
-0.0236529
0.0129082
-0.0451059
-0.0522275
0.0844253
-0.0159414
0.0855105
-0.0566609
-0.0472331
0.0311334
0.0160997
-0.0305284
-0.0167047
0.0287878
-0.0182929
0.00307983
-0.0135748
0.00437288
0.000585098
0.0238298
0.000303451
-0.0223968
0.00380048
-0.0655367
-0.0185938
0.0297802
0.0543503
-0.0170472
-0.0479826
-0.000506862
0.0216547
-0.00181269
-0.0368892
0.0275851
-0.0245242
-0.0518137
0.0282543
-0.0251525
0.0487119
0.0197305
-0.041764
-0.0166349
0.00827507
-0.0167142
0.025074
-0.0311621
-0.00749807
0.0220252
-0.032097
-0.00481709
0.00575208
0.00604929
-0.00170063
-0.00434865
0.00323553
0.00281375
0.00061726
0.00348763
-0.0062264
-0.0149395
0.0116384
0.00952746
-0.00537623
-0.000850175
0.019127
0.0167511
-0.00621301
-0.0296651
0.0218089
0.0240057
-0.0266876
0.0465613
0.0049817
-0.0297341
-0.0471277
0.046808
-0.00518042
0.00550016
0.00518242
0.0385659
-0.0064349
-0.00463183
0.00294819
0.030353
0.00590847
-0.0392097
0.0292174
-0.0373953
0.0111261
0.0154222
0.0441482
0.0362603
-0.0364725
0.00111209
0.0243378
0.0152824
-0.00971738
0.0133548
-0.00748937
0.00385198
0.0193885
-0.0273927
-0.00171316
0.0213904
0.0113528
0.00892981
0.0261245
-0.000259854
-0.0347944
0.0146958
0.0261225
-0.0318885
0.0259117
0.0149086
0.00207367
-0.0040654
0.0396688
-0.0376771
0.0422616
0.00106376
-0.0412517
0.0141392
-0.0150404
0.00113946
-0.000238198
-0.00403353
0.0152612
0.00291147
0.00764333
-0.00674864
-0.0159351
-0.00985903
0.0319215
0.00918757
0.0344442
-0.00793532
-0.0241715
-0.0259435
0.0346249
0.0154901
0.0324083
-0.0267618
-0.029818
0.0282657
0.0292364
0.0731606
-0.0257788
-0.0494182
0.00203629
0.0111313
0.0695722
-0.00754294
0.0701768
0.010105
-0.0691505
0.0250919
0.00491024
-0.00440624
0.0352386
0.00355756
-0.0343899
0.0268048
0.00119099
-0.032402
0.0414722
-0.0102989
0.00286559
0.0427952
-0.0125556
-0.0331052
0.00214334
0.039749
-0.0390267
-0.0521868
-0.055208
0.0383713
-0.0484597
-0.0420984
-0.0656884
0.0080287
-0.00887152
-0.00723313
-0.0661723
0.00771705
0.00171756
0.040071
-0.00434239
-0.0374462
0.0396606
-0.0347553
-0.00318774
0.0127827
-0.0446597
0.0372681
-0.0053911
-0.0257366
1.43504e-05
0.0385049
0.0409223
0.00743353
-0.00913298
-0.0392229
0.00818925
-0.0079093
0.0406424
0.023085
0.056814
-0.0219056
0.0299749
-0.0521356
-0.0464512
0.068612
0.0431877
-0.0714853
0.0582725
0.0197448
-0.0169517
0.0403945
0.0598385
0.0105106
-0.060496
-0.00985314
0.00585831
0.0670947
-0.0131145
0.0982004
0.00395242
0.0147104
-0.116863
-0.013472
0.0576411
-0.004396
0.0190604
-0.0186979
0.0299429
-0.00741922
-0.0269196
-0.017419
0.00791562
-0.00904379
0.0185472
0.00413092
-0.0155206
-0.00602934
0.0125366
-0.0143748
0.00596908
0.00170898
0.0187433
-0.00715926
-0.00900943
-0.0340532
0.00734786
0.0357147
-0.027611
0.043144
-0.0245424
0.00511863
0.00264276
-0.0353724
0.00471877
-0.0336533
-0.0300589
0.0299093
-0.0409913
0.0338208
0.030558
-0.00209419
-0.0227211
0.00147166
0.0233436
0.00729328
-0.0144144
-0.0165929
0.023714
-0.0194194
-8.26989e-05
0.0267953
-0.0375082
0.00367443
-0.0321907
0.00527782
-0.0105953
-0.0316327
0.0112943
-0.0118523
-0.0322621
0.0128353
-0.0122059
-0.0331495
0.0139425
-0.0130552
-0.0339089
0.0143581
-0.0135987
-0.0348998
0.0151195
-0.0141286
-0.0356619
0.0151673
-0.0144052
-0.0365776
0.0157312
-0.0148154
-0.0371967
0.0157677
-0.0151486
-0.0379449
0.0165042
-0.015756
-0.0383927
0.0167547
-0.0163068
-0.039013
0.0177246
-0.0171044
-0.0393453
0.0180972
-0.0177648
-0.0398855
0.0191665
-0.0186263
-0.0401171
0.0195354
-0.0193038
-0.0405621
0.0206227
-0.0201777
-0.0406559
0.0209295
-0.0208357
-0.0409523
0.0219635
-0.0216671
-0.0408432
0.0221057
-0.0222149
-0.0409075
0.0229283
-0.022864
-0.0405056
0.0227169
-0.0231189
-0.0402336
0.0230758
-0.0233477
-0.0394524
0.0222603
-0.0230414
-0.0387621
0.0218523
-0.0225426
-0.0375754
0.0202007
-0.0213874
-0.036463
0.0187851
-0.0198976
-0.0349268
0.0162173
-0.0177535
-0.0334409
0.0137215
-0.0152074
-0.0315367
0.0101422
-0.0120464
-0.0304608
0.00640883
-0.00748471
-0.0280575
0.00238412
-0.00478747
-0.0269019
0.000711491
-0.00186712
-0.0276879
0.00458953
-0.00380345
-0.00445693
-0.0212663
-0.00196467
-0.0278898
0.0303057
-0.00170448
-0.0282644
0.00496413
-0.0244175
0.0258632
-0.00524913
0.026874
-0.0293748
0.00241805
-0.00278592
0.0290256
0.00063437
-0.00417905
0.0281885
-0.0207095
-0.00816495
-0.0264211
0.0279448
0.00086042
-0.00242505
-0.0292722
0.030831
0.00858343
0.00508139
-0.0321167
0.0337425
0.0145915
0.0124357
-0.0347306
0.0361509
0.0187804
0.017797
-0.036768
0.0378831
0.0211451
0.0212352
-0.0381157
0.0388964
0.0219362
0.0228432
-0.0387978
0.0392826
0.0216209
0.0230269
-0.038939
0.0391921
0.0206765
0.0223071
-0.0386822
0.0387619
0.0194557
0.0211326
-0.0381425
0.0380842
0.0181554
0.0197859
-0.0373643
0.0371437
0.0169753
0.0184446
-0.0362623
0.0358319
0.016198
0.0173856
-0.034771
0.034208
0.0157303
0.0167921
-0.0331478
0.0327293
0.0147766
0.0161797
-0.0320001
0.0319652
0.0128703
0.0146717
-0.032497
0.030556
0.00721877
0.0107625
0.00485567
0.0304241
-0.0315026
-0.0107738
-0.0300506
-0.0102786
0.0237362
-0.0102218
0.0326349
-0.033019
-0.0126711
-0.0110735
0.0343778
-0.0359836
-0.0125229
-0.0122398
0.036146
-0.0377105
-0.013251
-0.0142428
0.0376869
-0.0391438
-0.0142991
-0.0151722
0.0389275
-0.0403412
-0.0156907
-0.0165232
0.0399842
-0.0413982
-0.0172122
-0.0181219
0.0409084
-0.0423093
-0.0187769
-0.0197936
0.0416553
-0.0429956
-0.0203268
-0.0214897
0.0421207
-0.0433104
-0.0216743
-0.0230898
0.0421318
-0.0430316
-0.0224479
-0.0242975
0.0414659
-0.0419172
-0.0220913
-0.0246072
0.0399419
-0.03984
-0.0199995
-0.0233627
0.0375203
-0.0368389
-0.0158888
-0.0200732
0.0342382
-0.0319008
-0.00982208
-0.0146471
-0.00638252
-0.00619708
0.025732
-0.000316224
-0.000452247
0.0289569
-0.00135008
0.0300595
0.011323
-0.0121546
-0.0198779
0.0109875
-0.0209308
-0.0195746
0.0205295
-0.0131094
-0.0159752
0.0156377
-0.0195404
-0.0191696
-0.0163803
0.0107886
-0.0188304
-0.0202226
-0.0301546
0.0321112
-0.00366115
-0.0279583
0.00276789
0.0267535
-0.0289835
-0.00804861
-0.00790932
0.0254485
0.0250384
-0.00619421
0.00275242
-0.00426418
0.0269602
0.0280322
-0.0222481
0.0234577
-0.00645877
-0.00988359
-0.0244954
0.0254114
-5.54906e-05
-0.00346275
-0.0263383
0.0273827
0.00753905
0.00415446
-0.0287186
0.0297243
0.0135859
0.0110998
-0.0310051
0.0318238
0.0179617
0.0165162
-0.0329477
0.0335238
0.020569
0.0201114
-0.0344098
0.0347197
0.0216263
0.0219573
-0.0353419
0.0354082
0.0215546
0.0224047
-0.0357881
0.0356568
0.0208079
0.0219271
-0.0358366
0.0355569
0.0197355
0.0209527
-0.0355765
0.0351696
0.0185624
0.0197663
-0.0350138
0.0344272
0.0175619
0.0186004
-0.0340302
0.0332252
0.0170031
0.0177825
-0.0326392
0.0317696
0.0165999
0.0173781
-0.0312602
0.0306363
0.0154005
0.0166891
-0.0306201
0.0303339
0.0131564
0.0146878
-0.0306243
0.0294374
0.00840564
0.0104721
-0.0289647
0.0286307
0.00275201
0.00532841
-0.0292962
0.0301432
-0.00219706
-3.11272e-05
0.0300095
-0.0311352
-0.00964813
-0.00919572
0.0313901
-0.0328464
-0.0112149
-0.0108186
0.0329811
-0.0333501
-0.0121539
-0.0121051
0.0346453
-0.0348748
-0.0130214
-0.0129476
0.0360332
-0.0360759
-0.0142564
-0.0140137
0.0371371
-0.0370573
-0.0157705
-0.015462
0.0380951
-0.0379327
-0.0173746
-0.017084
0.0389614
-0.0387087
-0.0190296
-0.018765
0.0397083
-0.0393384
-0.0206968
-0.02049
0.0402655
-0.0397296
-0.0222102
-0.0221626
0.0405039
-0.0397327
-0.0232191
-0.0235232
0.0402403
-0.039167
-0.0231645
-0.0240997
0.0392905
-0.0378972
-0.0213928
-0.0232393
0.0375914
-0.0358124
-0.0176678
-0.020379
0.035191
-0.0336037
-0.0114094
-0.0152684
-0.00787496
0.0108067
-0.0220066
0.0221873
-0.00592711
0.0267014
0.0153853
-0.0206784
-0.00514768
0.00363459
0.0316563
0.0319484
-0.0307813
-0.00336422
0.0325475
-0.00574672
-0.0186458
0.0186504
-0.019545
-0.0183112
-0.0195041
-0.0242746
0.00710496
-0.014317
0.0124097
-0.0223673
-0.0223407
-0.00232815
0.00116096
0.0301241
0.0313659
0.000478295
-0.00241461
0.0288966
0.0296715
-0.019311
0.0200124
-0.0138108
0.0197953
-0.0198538
-0.0182527
-0.015896
-0.0209414
0.0219938
-0.00751121
-0.0108126
-0.0225516
0.0228788
-0.000382667
-0.00402057
-0.0237152
0.0246076
0.00664668
0.00331807
-0.0255735
0.0265239
0.0126355
0.0101338
-0.0274901
0.0283891
0.0170627
0.01555
-0.0292572
0.030021
0.0198052
0.0192433
-0.0307168
0.0312907
0.0210524
0.0212614
-0.0317776
0.032146
0.0211863
0.0219178
-0.0324253
0.0326035
0.0206298
0.0216478
-0.032702
0.0327195
0.0197179
0.0208542
-0.0326579
0.032509
0.0187113
0.0198279
-0.0322443
0.0318637
0.0179425
0.018865
-0.0313447
0.030751
0.0175968
0.0183015
-0.030109
0.0295403
0.0171686
0.0180201
-0.029093
0.0288533
0.0156403
0.0171364
-0.0288326
0.0295589
0.0124302
0.0147085
-0.0294317
0.0299835
0.00785378
0.0105993
-0.0299146
0.0302187
0.00244782
0.00539735
-0.000593665
0.0269362
-0.0278405
-0.00714439
-0.0271933
-0.00532226
0.0265884
-0.00645122
0.0288732
-0.029428
-0.00909332
-0.00816299
0.0300245
-0.0307411
-0.0104982
-0.0102221
0.0315333
-0.0323079
-0.0113793
-0.0113129
0.0330334
-0.0336647
-0.0123901
-0.0122221
0.034219
-0.0347096
-0.0137658
-0.0134594
0.0351627
-0.0355968
-0.0153363
-0.0150089
0.0360153
-0.0364252
-0.0169647
-0.0166655
0.0368154
-0.0371934
-0.0186515
-0.0183748
0.0375411
-0.0378678
-0.0203701
-0.0201424
0.0381433
-0.0383774
-0.0219761
-0.0218871
0.0385248
-0.0385993
-0.0231446
-0.0233758
0.0385404
-0.0383755
-0.0233294
-0.0241585
0.0380342
-0.0375692
-0.0218578
-0.0235806
0.0369622
-0.0364047
-0.0182253
-0.020986
0.0355966
-0.0345902
-0.0124159
-0.0160766
0.0333208
-0.0318767
-0.00510521
-0.00914433
0.0280096
-0.0265077
0.00560311
-0.00109927
-0.0197765
0.0197681
-0.0194957
-0.0201902
-0.0194401
-0.00357355
0.0278603
0.0156152
-0.0222365
-0.00663034
0.00532941
0.0329572
-0.00796592
0.0338831
0.018902
-0.02093
0.021275
-0.0210518
-0.0240148
0.00991675
0.0167948
-0.016025
-0.0231371
0.0271449
-0.0275187
-0.00494851
-0.0209871
0.0224861
-0.0209947
-0.0197412
-0.0214362
-0.00428734
0.0273022
0.0261743
-0.00331667
0.0148995
-0.0221195
-0.0227505
-0.00464375
0.00291551
0.0318524
0.0320515
-0.00162751
0.000524881
0.0299992
0.0309595
0.00121942
-0.00194632
0.0280291
0.0296046
-0.0209092
0.019903
-0.0172465
0.0213277
-0.0229927
-0.0180762
-0.0190215
-0.0197216
0.0198704
-0.0139596
-0.0157147
-0.0205019
0.0208603
-0.00786959
-0.011444
-0.0214302
0.0220242
-0.000976695
-0.00459044
-0.0227865
0.0236332
0.0058
0.00255573
-0.0245794
0.0255298
0.0116852
0.00918765
-0.0265131
0.0274402
0.0161356
0.0145666
-0.0283474
0.029158
0.0189945
0.0183362
-0.0299094
0.0305436
0.0204182
0.02051
-0.0310959
0.0315298
0.0207523
0.0213655
-0.0318762
0.0321184
0.0203875
0.0213014
-0.0322784
0.0323479
0.0196485
0.0206943
-0.0323245
0.0321949
0.018841
0.0198512
-0.0319329
0.0315506
0.0183248
0.019127
-0.0310426
0.0304918
0.0181476
0.0188095
-0.0299377
0.0294964
0.0176099
0.0185742
-0.0292084
0.0291327
0.015716
0.0174245
-0.0292746
0.0296077
0.0120971
0.0145666
-0.030132
0.030787
0.0071988
0.010075
-0.0315848
0.032256
0.00177663
0.00459952
-0.0327155
0.0331772
-0.0038259
-0.00105318
-0.0337478
0.0348691
-0.00908719
-0.00631732
0.0280906
-0.0286368
-0.00659825
-0.00587927
0.0288481
-0.0293667
-0.00857473
-0.00795164
0.0300529
-0.030801
-0.00975009
-0.00953593
0.0315859
-0.0323024
-0.0106628
-0.0105281
0.0329629
-0.0335214
-0.0118315
-0.0115617
0.0340313
-0.0344853
-0.0133118
-0.0129496
0.0349345
-0.0353626
-0.0149083
-0.0145597
0.0358007
-0.036221
-0.0165445
-0.0162274
0.0366491
-0.0370562
-0.0182444
-0.0179467
0.0374657
-0.0378459
-0.0199899
-0.0197329
0.0382127
-0.0385299
-0.0216589
-0.0215203
0.0388015
-0.0389896
-0.0229565
-0.0231041
0.0390841
-0.0390552
-0.0233583
-0.0240641
0.0388826
-0.038562
-0.0221784
-0.0237533
0.0380693
-0.037439
-0.0188556
-0.0214786
0.0366416
-0.0357418
-0.0133156
-0.0168739
0.0347094
-0.0337583
-0.00605633
-0.0101767
0.032757
-0.0292876
0.00213369
-0.00210057
0.025926
-0.0231166
0.0120901
0.00655518
-0.0192956
0.0207165
-0.0228571
-0.0234612
-0.0188271
0.020456
-0.0197657
-0.0228098
-0.021878
0.0192173
0.019395
-0.0227295
-0.0194907
-0.023412
-0.00335565
0.0275836
0.022499
-0.022154
-0.0104137
0.00951276
0.03577
0.0359802
-0.0358808
-0.00918655
0.0365007
-0.0109341
0.0236906
-0.0222563
0.02258
-0.0228581
0.0233775
-0.0232107
-0.0229766
-0.019291
0.0216884
-0.0252545
-0.0179297
-0.0248225
0.022422
-0.0209224
-0.0228463
-0.00847612
0.0075901
0.0338432
0.0349197
-0.00597659
0.0050578
0.0327712
0.0336651
-0.00411482
0.00243092
0.0316831
0.0319024
-0.0020828
0.000264175
0.0298477
0.0299527
-0.0237477
0.0230658
-0.0173943
0.0240917
-0.0261037
-0.0159177
-0.0184831
-0.0216049
0.0210266
-0.0166682
-0.0175607
-0.0207916
0.020481
-0.0136489
-0.0154797
-0.0203633
0.0205034
-0.00800968
-0.0113264
-0.0208687
0.0213854
-0.00149346
-0.00495568
-0.0220731
0.0228633
0.00500979
0.00186803
-0.0237723
0.0247068
0.0107507
0.00827866
-0.0256917
0.0266347
0.0151927
0.0135817
-0.0275698
0.0284169
0.0181474
0.0174011
-0.0292136
0.0298977
0.0197341
0.0197134
-0.0305058
0.0309969
0.0202613
0.0207574
-0.0314036
0.0317039
0.0200873
0.0208947
-0.0319189
0.0320316
0.0195358
0.0204792
-0.0320371
0.0319195
0.0189586
0.0198458
-0.031661
0.0312884
0.0186974
0.0193854
-0.0308157
0.0303368
0.0186265
0.0192823
-0.0299
0.0296059
0.017904
0.019011
-0.0294881
0.0295775
0.0156266
0.0175423
-0.0298781
0.0303507
0.0116244
0.014266
-0.0310018
0.0317606
0.00643998
0.00942394
-0.0326107
0.0335019
0.000885392
0.00374943
-0.0344668
0.0347327
-0.00409179
-0.00201807
-0.00746545
0.027938
-0.0281288
-0.00475771
-0.0282194
-0.00234311
0.0272069
-0.0035981
0.0288105
-0.0289202
-0.00648856
-0.00519756
0.0293894
-0.0300053
-0.00795882
-0.00748244
0.0307477
-0.0315011
-0.00899675
-0.00879356
0.032251
-0.0329102
-0.0100036
-0.00977818
0.033509
-0.0340213
-0.0113192
-0.0109629
0.0345052
-0.034954
-0.012863
-0.0124657
0.0354127
-0.0358594
-0.0144616
-0.014101
0.0363243
-0.0367778
-0.0160909
-0.0157625
0.0372491
-0.0377079
-0.0177855
-0.0174755
0.0381819
-0.0386367
-0.019535
-0.019259
0.0390942
-0.0395138
-0.0212393
-0.0210629
0.0399062
-0.0402255
-0.0226373
-0.0227117
0.0404664
-0.0405858
-0.0232388
-0.0238232
0.0405646
-0.0403826
-0.0223604
-0.0237745
0.040017
-0.0394906
-0.0193821
-0.0218442
0.0387792
-0.0379429
-0.0141519
-0.0175854
0.0369471
-0.0358757
-0.00712774
-0.0111725
0.0346904
-0.0334845
0.000927841
-0.00328584
0.0321877
-0.029329
0.00923146
0.00525831
0.0247161
-0.0221778
0.0198837
0.0146043
-0.0180403
0.0199419
-0.026724
-0.0271442
-0.0169998
0.0254417
-0.0245632
-0.0218009
-0.0200441
0.023308
-0.000670901
0.0285187
0.0222657
-0.0224962
-0.0229897
-0.0236331
-0.0120271
0.0109805
0.0368165
-0.0132504
0.037724
0.0238978
-0.0223613
-0.0257325
-0.0218073
0.0241165
-0.0237928
0.0233154
-0.0244851
0.0206919
-0.0260045
0.0280343
-0.0277052
-0.00267223
0.0268029
-0.0297694
-0.0188345
-0.0193187
0.0196853
-0.0270907
-0.0179527
-0.0285102
0.0252334
-0.0184745
-0.00157264
0.0281086
0.0268996
-0.000437948
-0.0235702
-0.0098731
0.00861862
0.0350977
0.0360271
-0.00806447
0.00730086
0.0335348
0.0342192
-0.00540738
0.00501558
0.0320749
0.0337959
-0.0033172
0.00261888
0.030546
0.0316511
-0.000747504
-0.000206605
0.0290627
0.0303901
-0.0275921
0.027849
-0.0161746
0.0282221
-0.0293029
-0.0168718
-0.0163698
-0.0250326
0.0240358
-0.0163975
-0.0156667
-0.0227201
0.0219249
-0.015873
-0.016245
-0.0212263
0.0205235
-0.0129462
-0.0147811
-0.0202505
0.0202612
-0.00802044
-0.0110533
-0.0205133
0.0209479
-0.00192813
-0.0052077
-0.0215629
0.0222943
0.00427847
0.00125302
-0.0231573
0.0240634
0.00984465
0.00741559
-0.0250357
0.0259808
0.0142476
0.0126093
-0.0269308
0.0278024
0.0172758
0.0164511
-0.0286328
0.0293563
0.0190106
0.0188829
-0.0300106
0.0305505
0.0197214
0.0201031
-0.03101
0.0313604
0.0197369
0.0204351
-0.0316208
0.0317656
0.0193909
0.0202188
-0.0317896
0.03168
0.0190682
0.0198218
-0.0314317
0.0310871
0.019042
0.0196338
-0.0306777
0.0303009
0.0190033
0.0196917
-0.0300082
0.0298783
0.0180339
0.0193037
-0.029939
0.0301958
0.0153698
0.0174815
-0.030655
0.0312653
0.0110141
0.0138068
-0.0320401
0.0329051
0.00557495
0.00864914
-0.0338624
0.034864
-0.000116182
0.00279217
-0.0357008
0.0371049
-0.00549592
-0.00285492
-0.0372304
0.0378313
-0.00978744
-0.00759095
-0.0386659
0.0382486
-0.0128332
-0.0117687
0.0281594
-0.0289569
-0.00396014
-0.00314387
0.0289547
-0.0294916
-0.00595169
-0.0051998
0.0300704
-0.030749
-0.0072802
-0.0069036
0.0315033
-0.0322229
-0.00827707
-0.00803932
0.0329087
-0.0334981
-0.00941413
-0.00909243
0.0340357
-0.0345092
-0.0108457
-0.0104254
0.0349748
-0.0354221
-0.0124157
-0.0120001
0.0358902
-0.0363529
-0.0139988
-0.0136329
0.0368407
-0.0373235
-0.015608
-0.0152747
0.0378334
-0.0383389
-0.0172801
-0.0169656
0.0388715
-0.0393949
-0.0190117
-0.0187263
0.0399365
-0.0404522
-0.0207235
-0.0205213
0.0409599
-0.0414067
-0.0221904
-0.0222041
0.0417944
-0.0420673
-0.0229659
-0.0234355
0.0422096
-0.0421819
-0.022388
-0.0236323
0.0419606
-0.0415502
-0.0197925
-0.0220655
0.0409304
-0.0401568
-0.0149255
-0.0182052
0.0392025
-0.0381471
-0.00818317
-0.0121268
0.0369438
-0.0356882
-0.0003277
-0.00448913
0.0343255
-0.0329703
0.0078762
0.00389561
0.0306278
-0.0264388
0.0156947
0.0122618
0.0229406
-0.0217278
0.0240205
0.0198098
0.0273004
-0.0318487
-0.0139262
0.0247867
-0.0192142
-0.0183179
0.0190645
-0.0292568
-0.0300292
-0.0175916
0.0243108
-0.0229091
-0.024805
-0.0245606
-0.00102218
0.0277152
0.0252098
-0.0234546
-0.0266776
-0.0248991
-0.0144353
0.0135226
0.0391613
0.0401713
-0.0395708
-0.0134337
0.0398214
-0.0140854
0.0242512
-0.0247286
-0.0280865
-0.0225966
0.0224175
-0.0262107
-0.0313206
-0.0252148
0.0426091
0.02098
-0.0272992
0.0203024
-0.0283287
-0.0195023
0.0196946
-0.0294491
-0.018371
-0.0311605
-0.0240644
-0.0130238
0.0119182
0.0379221
0.0382228
-0.0115394
0.0105187
0.0361184
0.036406
-0.00857665
0.00820723
0.0339042
0.0361613
-0.00737177
0.00646266
0.032984
0.0346314
-0.00573468
0.00436745
0.0319132
0.0323791
-0.0035287
0.00219332
0.0303981
0.0312288
-0.03054
0.0299849
-0.0163168
0.0304139
-0.0320158
-0.0167691
-0.0177177
-0.0290277
0.0284002
-0.015547
-0.0154126
-0.02747
0.0255481
-0.0144756
-0.0147365
-0.0241676
0.022446
-0.0141514
-0.0148645
-0.0215539
0.0207733
-0.0121656
-0.013889
-0.0203347
0.0202162
-0.00790194
-0.0106147
-0.0203578
0.0207062
-0.00227652
-0.00534926
-0.021247
0.021917
0.00360843
0.000712221
-0.0227285
0.0235973
0.00897585
0.0066041
-0.0245452
0.02548
0.0133128
0.0116614
-0.0264319
0.0273159
0.0163918
0.0154992
-0.0281684
0.0289209
0.0182581
0.0180304
-0.0296117
0.0301917
0.0191414
0.0194123
-0.0306946
0.0310843
0.0193473
0.0199323
-0.0313771
0.0315421
0.0192259
0.019926
-0.0315769
0.0314772
0.0191679
0.019787
-0.0312532
0.0309612
0.019334
0.0198578
-0.0306461
0.0304002
0.0192493
0.0200067
-0.0302741
0.0303214
0.0179867
0.0194297
-0.030566
0.0309907
0.0149451
0.0172369
-0.0316069
0.0323515
0.0102696
0.0131905
-0.0332447
0.0342008
0.0046188
0.00775598
-0.0352499
0.0362956
-0.00116187
0.00174311
-0.0374089
0.0381732
-0.0062602
-0.00396824
-0.0392106
0.0395225
-0.0100994
-0.00862838
-0.011817
0.0282517
-0.028916
-0.00200791
-0.0289759
-0.000267747
0.0282215
-0.00116222
0.0292025
-0.0293533
-0.0038094
-0.00285734
0.0297008
-0.0302096
-0.00544292
-0.00485223
0.0308624
-0.0315584
-0.00658414
-0.00625082
0.0322803
-0.0329349
-0.00762242
-0.0073175
0.0335403
-0.0340586
-0.00889575
-0.00848707
0.0345426
-0.0349861
-0.0104021
-0.00994145
0.0354395
-0.035887
-0.0119682
-0.0115467
0.0363625
-0.0368379
-0.0135234
-0.0131574
0.0373446
-0.0378523
-0.0151004
-0.0147681
0.0383954
-0.0389413
-0.0167342
-0.0164224
0.0395253
-0.0401092
-0.0184278
-0.0181423
0.0407261
-0.0413289
-0.0201207
-0.0199045
0.0419428
-0.0425096
-0.0216236
-0.0215902
0.0430388
-0.0434644
-0.0225403
-0.0229063
0.0437764
-0.0439176
-0.0222468
-0.0233203
0.0438644
-0.0435987
-0.0200583
-0.0221186
0.0430984
-0.0424063
-0.0156176
-0.0187055
0.0415026
-0.0404701
-0.00921563
-0.0130306
0.0392663
-0.0379855
-0.00160847
-0.00569296
0.0365682
-0.0351262
0.00643425
0.00247827
0.0335978
-0.0321049
0.0142019
0.0107334
0.0305848
-0.0285048
0.0219405
0.0182897
0.02437
-0.0185972
0.0197641
-0.0323273
-0.0326804
-0.0179326
0.000645306
0.0292632
0.0262875
-0.0239868
-0.0266136
-0.0246246
-0.0147054
0.0140704
0.0397963
-0.0155074
0.0406234
0.0257146
-0.024918
-0.0279056
-0.02508
0.0241282
-0.0264393
-0.0288172
-0.0251
0.0225046
-0.0277352
-0.0288806
-0.0246858
0.021659
-0.0286558
0.0211653
-0.0297993
0.0212691
-0.0309541
-0.028301
-0.0248077
0.0282933
-0.0289435
0.000382526
-0.0198611
0.0203085
-0.0327748
-0.0187123
-0.0338292
0.000316531
0.0285503
0.028448
0.000161753
-0.0243905
-0.0130604
0.0124433
0.0385393
0.0392328
-0.0109258
0.0108691
0.0361751
0.0379234
-0.0101235
0.00937817
0.0346496
0.0369069
-0.00858871
0.00774839
0.0338243
0.0354208
-0.00703663
0.0061266
0.0328233
0.0330909
-0.00520282
0.00377849
0.0318225
0.0321526
-0.00278652
0.00139043
0.0299464
0.0302552
-0.0330627
0.0334603
-0.0171667
0.0340139
-0.0346952
-0.018031
-0.0169814
-0.0319483
0.0312963
-0.0156648
-0.0162057
-0.0310903
0.0294459
-0.0139027
-0.0152066
-0.0284077
0.0268416
-0.0129094
-0.0136983
-0.0251435
0.0235769
-0.0125847
-0.0131665
-0.0222181
0.0212456
-0.0111931
-0.0125302
-0.0206237
0.0203611
-0.00763931
-0.00999284
-0.0203872
0.0206456
-0.00253495
-0.00537536
-0.0211102
0.0217169
0.00300169
0.000247618
-0.0224728
0.023298
0.00815069
0.00584822
-0.0242125
0.0251266
0.0123986
0.010747
-0.0260691
0.0269547
0.0155062
0.0145567
-0.0278187
0.0285907
0.0174861
0.0171664
-0.0293084
0.0299186
0.0185313
0.0186945
-0.0304528
0.0308683
0.0189317
0.0193981
-0.0311794
0.0313545
0.0190509
0.0196149
-0.0313982
0.0313178
0.0192483
0.0197432
-0.0311397
0.0309285
0.0195452
0.0200359
-0.0307385
0.0306485
0.0193393
0.0201967
-0.0307067
0.0309399
0.0177535
0.0193715
-0.0313713
0.0319635
0.0143529
0.0168055
-0.032734
0.0336079
0.00939566
0.0124201
-0.0346117
0.0356503
0.00358027
0.00675215
-0.0367558
0.0378213
-0.00222733
0.000637585
-0.038877
0.0398236
-0.0072068
-0.00502402
-0.0405707
0.0416513
-0.0111799
-0.00937544
-0.0420324
0.0420004
-0.0134016
-0.0121981
-0.0423774
0.0415374
-0.0146673
-0.0144625
0.0292645
-0.0295816
-0.00169084
-0.00084128
0.0296933
-0.0299896
-0.0035131
-0.00274556
0.0304638
-0.031048
-0.00485866
-0.00437809
0.0317232
-0.0323898
-0.00591749
-0.00557569
0.0330425
-0.0336129
-0.00705196
-0.00666484
0.0341346
-0.0345892
-0.00844115
-0.00796545
0.0350302
-0.035452
-0.00998035
-0.00950041
0.0358968
-0.0363438
-0.0115212
-0.0111019
0.0368242
-0.0373089
-0.0130388
-0.012677
0.0378304
-0.0383582
-0.0145725
-0.0142466
0.0389288
-0.0395085
-0.0161544
-0.0158518
0.0401359
-0.0407715
-0.0177922
-0.0175149
0.0414535
-0.0421328
-0.0194413
-0.0192225
0.0428417
-0.0435178
-0.0209475
-0.0208813
0.0441788
-0.0447505
-0.0219686
-0.0222453
0.0452297
-0.0455439
-0.0219326
-0.0228411
0.0456726
-0.0455751
-0.0201558
-0.0219899
0.0452273
-0.044651
-0.0161939
-0.0190532
0.0438276
-0.0428372
-0.0102061
-0.0138539
0.041647
-0.040357
-0.00289846
-0.00688312
0.0389033
-0.0374004
0.00493141
0.00102455
0.0357717
-0.0341472
0.0125774
0.00910465
0.0324614
-0.0302793
0.0197585
0.0166038
0.028451
0.0247265
0.0225416
-0.019814
0.0205365
-0.0345516
-0.0357241
-0.0187851
0.0264223
-0.0299822
-0.0262581
-0.0282682
0.028747
0.0269752
-0.0252474
-0.0275892
-0.0249409
0.000796659
0.0290418
0.0260074
-0.0267972
-0.0283855
-0.0255117
-0.015149
0.0151319
0.0415545
0.0425473
-0.0426491
-0.0145655
0.0422799
-0.0148817
0.024609
-0.0285437
-0.0286357
-0.0253449
0.0236625
-0.0297387
-0.0284176
-0.0245692
0.0229476
-0.0304381
-0.028505
-0.0262849
0.0225915
-0.0311218
0.022059
-0.0327046
0.0220159
-0.0342542
0.021251
-0.0206032
-0.0363718
0.0221464
-0.035447
0.0261784
-0.0267202
-0.0257163
-0.025536
0.0234462
-0.0250046
-0.0147374
0.0139278
0.0406059
0.041018
-0.0138467
0.0134758
0.0389101
0.0393139
-0.0122433
0.0116433
0.0367751
0.039156
-0.0109745
0.0102988
0.0353252
0.0375757
-0.0095714
0.00934722
0.0340485
0.0361483
-0.00754008
0.00746734
0.032896
0.034898
-0.00643793
0.00585938
0.032401
0.033182
-0.00429576
0.00351906
0.0307231
0.0318188
-0.0355071
0.0351669
-0.0176909
0.036124
-0.0371542
-0.019573
-0.0181682
-0.0345629
0.0343686
-0.0169724
-0.0163775
-0.0337739
0.032779
-0.0146699
-0.015611
-0.0317382
0.0306445
-0.012809
-0.0141658
-0.0293561
0.0279113
-0.0114646
-0.0124099
-0.0262595
0.0246394
-0.0109647
-0.0115147
-0.0231245
0.0219542
-0.0100228
-0.0110153
-0.0211276
0.0206963
-0.00720807
-0.0091662
-0.0205869
0.0207466
-0.00269463
-0.00526599
-0.021131
0.0216732
0.00245953
-0.000136813
-0.0223717
0.0231496
0.00737282
0.00514972
-0.0240246
0.0249104
0.0115128
0.00987198
-0.0258345
0.0267125
0.0146282
0.0136326
-0.0275785
0.0283605
0.0167042
0.0163004
-0.0290945
0.0297229
0.0179029
0.0179605
-0.0302741
0.0307012
0.0185046
0.0188468
-0.0310185
0.0311988
0.0188706
0.0192976
-0.0312573
0.0312134
0.0192921
0.0196847
-0.0311081
0.0310075
0.0196458
0.0201412
-0.030971
0.0310577
0.0192526
0.0202332
-0.0313132
0.0317379
0.0173288
0.019116
-0.0323567
0.0331139
0.0135957
0.0161866
-0.0340336
0.0350288
0.00840043
0.0115004
-0.0361312
0.0372371
0.00247432
0.00564978
-0.0383792
0.0394488
-0.00329691
-0.000504504
-0.0404765
0.0413684
-0.00809862
-0.00605174
-0.0422805
0.0425333
-0.0114328
-0.0102875
-0.0432571
0.0431038
-0.0132483
-0.0129219
-0.0140078
0.0300176
-0.0298965
0.000261395
-0.0297792
0.00145757
0.0291183
0.000400156
0.0300099
-0.0301081
-0.0015926
-0.000727936
0.0303807
-0.0307986
-0.00309512
-0.002473
0.0313521
-0.0319591
-0.00425164
-0.00382465
0.0326041
-0.0332017
-0.00531989
-0.00493066
0.033762
-0.0342432
-0.00657081
-0.00610451
0.0346884
-0.0350912
-0.00803841
-0.00752023
0.0355001
-0.0359059
-0.0095746
-0.00909146
0.0363434
-0.0367886
-0.011076
-0.0106644
0.0372711
-0.0377617
-0.0125481
-0.0121945
0.038294
-0.0388372
-0.0140293
-0.0137143
0.0394292
-0.0400355
-0.0155481
-0.0152598
0.0406975
-0.0413749
-0.0171149
-0.0168529
0.0421103
-0.0428536
-0.018698
-0.0184871
0.0436437
-0.0444158
-0.0201754
-0.0200912
0.0451963
-0.0459044
-0.0212606
-0.0214648
0.046545
-0.0470323
-0.0214452
-0.0222005
0.0473502
-0.0474368
-0.0200692
-0.021672
0.047268
-0.0468413
-0.0166206
-0.0192221
0.0461371
-0.0452222
-0.011121
-0.0145582
0.0440708
-0.0427869
-0.00418243
-0.00803452
0.0413146
-0.0397673
0.0033841
-0.000447693
0.0380688
-0.0363487
0.0108573
0.00740618
0.0345306
-0.0323525
0.0175804
0.0147857
0.030259
-0.0282734
0.0227409
0.0204481
0.0239197
-0.016795
0.0275001
0.0248827
0.0276604
-0.0237354
0.0248221
0.0263555
0.0239168
-0.025349
-0.0241039
0.0247862
0.0234917
-0.0243611
0.024497
0.00212409
0.0304368
-0.0214075
0.0222442
-0.0372085
-0.0376565
-0.0209052
0.0270211
-0.0262611
-0.0278336
-0.0254928
-0.0149082
0.0146287
0.041834
-0.0150765
0.0424482
0.0257021
-0.0278904
-0.0282787
-0.0258686
0.024599
-0.0294802
-0.0282497
-0.0255128
0.0241795
-0.0309707
-0.0285323
-0.0245419
0.0242347
-0.0320812
-0.0280517
-0.0249534
0.023962
-0.0330248
-0.0265765
-0.0244888
0.023339
-0.0340277
0.023174
-0.0352818
0.023664
-0.0368668
-0.0242154
0.0245401
0.023167
-0.0221569
0.0229786
-0.0380303
0.0297892
-0.0298931
0.00156146
0.00139403
0.0298484
0.0298583
0.001325
-0.0198521
-0.0399614
-0.0226296
-0.0231968
0.0216109
-0.023638
-0.0233526
-0.0244814
-0.0232605
-0.0258171
-0.0141751
0.0146839
0.0400971
0.0414716
-0.0129066
0.0131244
0.0386923
0.0410912
-0.0126706
0.0121672
0.0372785
0.0396098
-0.0115859
0.0109858
0.0359252
0.038157
-0.0103276
0.00967375
0.0347023
0.0368065
-0.00897131
0.00827815
0.0335892
0.0356004
-0.00754828
0.00670812
0.0332412
0.0339119
-0.00589251
0.00431686
0.0322987
0.0326344
-0.00365028
0.00284797
0.0306507
0.0311034
-0.038212
0.0371683
-0.0185293
0.0394193
-0.040678
-0.0185934
-0.0196978
-0.0365006
0.0366233
-0.0178136
-0.0175006