/*--------------------------------*- C++ -*----------------------------------*\
  =========                 |
  \\      /  F ield         | OpenFOAM: The Open Source CFD Toolbox
   \\    /   O peration     | Website:  https://openfoam.org
    \\  /    A nd           | Version:  10
     \\/     M anipulation  |
\*---------------------------------------------------------------------------*/
FoamFile
{
    format      ascii;
    class       surfaceScalarField;
    location    "31.5";
    object      phi;
}
// * * * * * * * * * * * * * * * * * * * * * * * * * * * * * * * * * * * * * //

dimensions      [0 3 -1 0 0 0 0];

internalField   nonuniform List<scalar> 
51391
(
-0.035811
0.012052
-0.0106539
0.0344129
0.0148465
-0.0169585
-0.033699
0.0238161
-0.0156596
0.00669002
0.035904
-3.59639e-05
0.0429955
0.0152296
-0.0187652
-0.0394599
0.0380669
0.0170936
-0.0121649
-0.0575318
0.0368607
0.0438259
-0.0231548
0.00811883
-0.0510906
-0.01456
0.0594434
-0.00053071
-0.0507938
0.0270121
0.0393185
-0.00688721
0.0226963
-0.028227
0.06269
-0.0571593
0.0577252
0.0204611
-0.05549
0.0733242
-0.0560579
-0.0454934
0.0100074
-0.00590904
-0.00918469
0.00508629
0.00585038
-0.0103559
0.0145129
0.0548523
0.0394889
-0.0504575
-0.0438838
0.0786587
0.0222517
-0.0460581
0.107639
-0.0652451
-0.0617302
0.019336
0.0363996
0.0793546
-0.00811486
0.0384531
-0.00782366
-0.0371313
0.00650191
0.00675453
0.0274887
0.00420986
0.0115248
-0.0364853
0.0249605
0.0242864
0.0117846
-0.0245461
-0.00384081
-0.0427375
-5.4169e-05
0.0466325
-0.0458756
0.0512912
-0.00925641
0.00597903
-0.00728854
-0.0445661
0.00632231
-0.0430808
-0.043958
0.0105276
0.0363268
-0.00289639
0.000174676
-0.0441869
0.0259317
0.0312284
0.0203666
0.0254549
-0.0198899
0.00891718
-0.004194
-0.00472318
0.00736041
0.00155678
-0.00571667
0.00122657
0.000296094
-0.0404157
0.0512467
0.0130159
-0.023847
-0.0658862
0.0284338
0.0495755
-0.0121231
-0.06454
0.0061918
-0.00753796
0.0445727
-0.00755524
-0.0427703
0.00575289
0.0308001
0.00092962
0.0128429
0.0236728
0.0511746
0.0156937
-0.090541
0.0206304
-0.0546078
0.0576501
0.0607192
0.0199382
-0.060027
-0.0382142
0.00339309
0.0064165
0.0284046
-0.0384585
0.000824903
-0.000580559
0.000178821
-0.0376956
-0.000941747
0.0673765
0.0213818
-0.0319107
-0.0568476
0.0124213
0.071958
-0.0170028
0.00207707
-0.00547598
0.00469503
-0.00129613
-0.0272234
0.0103131
0.0189873
0.0245332
-0.0274642
-0.0242924
0.0111868
-0.0439193
-0.0538138
0.0865463
-0.0170916
0.0860798
-0.0578013
-0.047585
0.0313426
0.0162423
-0.0308165
-0.0167685
0.0297941
-0.0188778
0.0030183
-0.0139346
0.00434454
0.000743985
0.0247056
0.000131782
-0.0230303
0.00402069
-0.0647679
-0.0189757
0.0291641
0.0545795
-0.0174902
-0.0476341
0.000356418
0.02136
-0.00220724
-0.0366429
0.0269737
-0.0245894
-0.051848
0.0275477
-0.0244505
0.0487508
0.0191116
-0.0417954
-0.0173909
0.00860146
-0.0173474
0.0261368
-0.0325296
-0.00787276
0.0230114
-0.0334957
-0.00505742
0.00602359
0.00655477
-0.000873309
-0.00568146
0.00388209
0.00267268
0.00175785
0.00560255
-0.00052064
-0.0183758
0.0111404
0.00775606
-0.00494773
0.00442709
0.0191024
0.0167597
-0.00619576
-0.0296663
0.0217701
0.0240229
-0.0266906
0.0465539
0.00495273
-0.0297366
-0.0471278
0.0468078
-0.00517559
0.00549564
0.00518391
0.0385649
-0.00643542
-0.00463046
0.00273309
0.0301055
0.00615175
-0.0389904
0.029245
-0.0372557
0.0107439
0.0155171
0.0438334
0.0367832
-0.0369447
0.000986451
0.0246898
0.0154865
-0.0101023
0.0126017
-0.00663127
0.00413184
0.0191622
-0.0266983
-0.00256617
0.0204997
0.0112642
0.008928
0.0261239
-0.000257559
-0.0347943
0.0146971
0.0261196
-0.0318887
0.0259087
0.0149123
0.00150738
-0.00344723
0.0392542
-0.0373144
0.0418369
0.000554313
-0.0408839
0.0173973
-0.01847
0.00259913
-0.00152646
-0.00344453
0.0182358
0.00260613
0.00942278
-0.0075114
-0.0203814
-0.00971096
0.0318891
0.00905022
0.0343997
-0.00778387
-0.0088661
-0.0330801
0.0360364
0.00590972
0.0443926
-0.0146796
-0.0385791
0.0406704
0.0189518
0.072026
-0.0273479
-0.0488517
0.00417352
0.00815524
0.0692312
-0.00536045
0.069976
0.00750432
-0.0693251
0.0274727
0.0020877
-0.00374043
0.0349541
0.00294613
-0.0341598
0.0268652
0.00158966
-0.0321953
0.041064
-0.00955715
0.00288134
0.0427909
-0.0125668
-0.0331054
0.00216022
0.0397459
-0.0390247
-0.05252
-0.0566444
0.0402283
-0.0498579
-0.0428904
-0.0634302
0.00483287
-0.00594275
-0.00422056
-0.0635678
0.00435818
-0.000116143
0.0393916
-0.00235401
-0.0369215
0.0390107
-0.0345088
-0.004618
0.0136857
-0.0465497
0.0387933
-0.00592937
-0.0267431
0.000320659
0.0401082
0.0407586
0.00698429
-0.00866728
-0.0390756
0.00772488
-0.00744398
0.0404777
0.0220347
0.0565742
-0.0208837
0.0291433
-0.051835
-0.045531
0.0682227
0.0421274
-0.0708997
0.0579157
0.0192024
-0.0172223
0.0401473
0.0608969
0.00784682
-0.0622287
-0.00651504
0.0035323
0.067264
-0.00989933
0.0974558
0.0032951
0.015864
-0.116615
-0.0139951
0.0568432
-0.0043522
0.0209936
-0.0200859
0.0321332
-0.00805776
-0.0284277
-0.0254337
0.0106108
-0.0115785
0.0264014
0.00143737
-0.0225355
-0.00433555
0.0139147
-0.0155272
0.00304983
0.00486417
0.0196613
-0.00580023
-0.00867726
-0.0341911
0.00696317
0.0359052
-0.0277791
0.0434882
-0.0243864
0.00476865
0.00291837
-0.0354661
0.00434872
-0.0337711
-0.0298483
0.0297058
-0.0406551
0.0332606
0.0306122
-0.00220648
-0.023675
0.00155564
0.0243259
0.00591356
-0.0193803
-0.0150297
0.0284965
-0.0228135
-0.00325737
0.0319844
-0.0443596
0.00216582
-0.0393808
0.00429649
-0.00927534
-0.0393803
0.0122843
-0.0122847
-0.0403812
0.0148412
-0.0138404
-0.0414357
0.0169888
-0.0159342
-0.0420848
0.0182393
-0.0175903
-0.0428728
0.0198466
-0.0190586
-0.0432744
0.0203249
-0.0199234
-0.043866
0.0211866
-0.020595
-0.0441075
0.0209908
-0.0207494
-0.0445769
0.0213948
-0.0209253
-0.0447264
0.0209574
-0.020808
-0.04513
0.0213259
-0.0209222
-0.0452336
0.0210043
-0.0209007
-0.0456049
0.0215647
-0.0211934
-0.0456751
0.0214382
-0.021368
-0.0460162
0.0221793
-0.0218382
-0.0460324
0.0221634
-0.0221472
-0.0463055
0.022984
-0.0227109
-0.0462036
0.0229441
-0.023046
-0.0463185
0.0236626
-0.0235476
-0.0459874
0.0233471
-0.0236782
-0.0458109
0.0236057
-0.0237822
-0.0451303
0.0226033
-0.0232839
-0.0445499
0.021896
-0.0224764
-0.0434854
0.0197727
-0.0208371
-0.0425093
0.017672
-0.0186481
-0.0411693
0.014269
-0.015609
-0.039905
0.0107203
-0.0119846
-0.0383212
0.00609947
-0.00768328
-0.037623
0.00114981
-0.00184803
-0.0360196
-0.00364387
0.00204052
-0.0357803
0.00834015
-0.00857947
-0.0389069
0.0125689
-0.00944232
-0.00803421
-0.0309992
0.000126519
-0.036129
0.0377428
0.00672643
-0.0376716
0.0141114
-0.0348648
0.0357111
-0.0102886
0.0323167
-0.0363267
0.000752603
0.00019928
0.0341002
-0.00198283
-0.00071055
0.0328942
-0.0305882
-0.0123109
-0.0350799
0.0358425
-0.00440646
-0.00794826
-0.0366228
0.0377221
0.00500019
0.000369448
-0.0387706
0.0401595
0.0128801
0.00967177
-0.0410021
0.0422908
0.018484
0.0168294
-0.0427977
0.0438266
0.0215744
0.0213891
-0.0439679
0.0446975
0.0226175
0.0234644
-0.0445473
0.04504
0.0224514
0.0238127
-0.0447113
0.0450572
0.0218175
0.0233127
-0.0446406
0.0449073
0.0211715
0.0225958
-0.0444489
0.044669
0.0207841
0.0220231
-0.0441746
0.0443514
0.0207806
0.0218203
-0.0437985
0.0439016
0.0208878
0.0219476
-0.0432469
0.0432094
0.0203625
0.0218413
-0.0424265
0.0422438
0.018422
0.0206295
-0.0414129
0.0410896
0.0151645
0.0178197
-0.0412909
0.0382272
0.00736019
0.0120831
0.00406634
0.0362838
-0.0379759
-0.0105927
-0.0356778
-0.00744811
0.0280963
-0.00866934
0.0394644
-0.0398582
-0.0155404
-0.012352
0.0412806
-0.0429468
-0.0173923
-0.0161678
0.0426426
-0.0442228
-0.0190148
-0.0202276
0.0437201
-0.0451953
-0.0194501
-0.021252
0.0445801
-0.0459917
-0.0195106
-0.0214232
0.0453154
-0.046709
-0.0197998
-0.021577
0.0459838
-0.0473829
-0.0204391
-0.0220932
0.0465918
-0.04798
-0.0213226
-0.0229383
0.047067
-0.0483653
-0.0222494
-0.023959
0.0472273
-0.0482775
-0.022732
-0.0248163
0.0467958
-0.0473954
-0.0218768
-0.0247656
0.0455404
-0.0455644
-0.0186241
-0.0226921
0.0434708
-0.0429481
-0.0125073
-0.0177026
0.0407998
-0.0386688
-0.00397901
-0.00983159
0.00111448
-0.00196996
0.0297559
-0.00463466
0.00466746
0.0328614
-0.00495609
0.0344217
0.0150639
-0.0154068
-0.0302453
0.0156205
-0.0315558
-0.0301329
0.0308524
-0.0161263
-0.0181244
0.0184615
-0.0305824
-0.0299584
-0.0182989
0.020264
-0.025963
-0.0319725
-0.0378477
0.0396179
0.00495624
-0.0362537
0.0125174
0.0305554
-0.0334672
-0.00453625
-0.00320305
0.0293294
0.0284184
-0.00106604
-0.00286067
0.00198441
0.0302056
0.0315627
-0.0324094
0.0331052
-0.0109844
-0.0138678
-0.0334822
0.0337657
-0.00468997
-0.00832524
-0.0340802
0.034726
0.0043544
5.49384e-05
-0.0356834
0.0364419
0.0121216
0.00871435
-0.0375025
0.0381677
0.0178188
0.0157689
-0.0391666
0.039643
0.021098
0.0203901
-0.0404576
0.040707
0.0223682
0.0226498
-0.0413047
0.0413594
0.0223966
0.023215
-0.041779
0.0417026
0.0218939
0.0228931
-0.0420042
0.0418499
0.0213258
0.0222943
-0.042076
0.0418677
0.0209925
0.021797
-0.0420378
0.0417807
0.0210377
0.0216501
-0.0419026
0.041594
0.0211964
0.0218258
-0.0416538
0.0412803
0.020736
0.0217815
-0.0412477
0.0408134
0.0188563
0.0206621
-0.0408501
0.0402376
0.0157769
0.017783
-0.0400511
0.0378141
0.00959723
0.0122695
-0.0363496
0.0350483
0.00205398
0.00553078
-0.0348514
0.0349159
-0.00502058
-0.00178596
0.034934
-0.0363025
-0.0092241
-0.00720262
0.0366049
-0.0381763
-0.013969
-0.0120496
0.0379912
-0.0380464
-0.0173371
-0.0163529
0.0393056
-0.0392629
-0.0190575
-0.0189685
0.040491
-0.0403676
-0.0195735
-0.0200239
0.0415357
-0.041333
-0.0197133
-0.0202551
0.0424419
-0.0421703
-0.0200714
-0.0204681
0.0432471
-0.0429214
-0.0207647
-0.0210164
0.0439855
-0.0435998
-0.0217084
-0.0218742
0.0446334
-0.0441464
-0.0227364
-0.0229254
0.0450808
-0.0444188
-0.0233939
-0.0238818
0.0451326
-0.0442214
-0.022788
-0.0240518
0.044584
-0.0434301
-0.019778
-0.0223295
0.0434246
-0.0420136
-0.0139183
-0.0177081
0.0417821
-0.0407121
-0.00504902
-0.0100631
2.02415e-05
0.0164153
-0.0326408
0.031846
0.000515852
0.0298869
0.0188838
-0.0319782
-0.0092445
0.00831041
0.03585
0.0373437
-0.037057
-0.00530728
0.0369934
-0.00889419
-0.0195031
0.019905
-0.0309843
-0.01875
-0.0307115
-0.0328703
0.0168806
-0.0228582
0.0215146
-0.0315266
-0.032406
-0.00774059
0.007251
0.033351
0.0349915
-0.00625497
0.00490112
0.0315595
0.0325587
-0.0297288
0.0302071
-0.0166046
0.0305479
-0.0304983
-0.0187996
-0.0174797
-0.0308209
0.0315505
-0.011714
-0.0144815
-0.031551
0.0312293
-0.00436825
-0.00832578
-0.0315287
0.0319797
0.00390338
-0.000244488
-0.0325772
0.033248
0.0114508
0.00811689
-0.0339949
0.034735
0.0170787
0.0150219
-0.0354823
0.036161
0.0204193
0.0196428
-0.036795
0.0373316
0.0218315
0.0220158
-0.0378027
0.0381821
0.0220173
0.0227439
-0.0385028
0.0387554
0.0216413
0.0225724
-0.0389659
0.0391295
0.0211621
0.0220838
-0.0392617
0.0393594
0.0208949
0.0216648
-0.0394327
0.0394831
0.0209874
0.0215767
-0.0395187
0.039541
0.0211741
0.0217901
-0.0395517
0.0395501
0.0207376
0.0217708
-0.0395337
0.039505
0.0188849
0.0206786
-0.0394548
0.0400665
0.0151653
0.0178333
-0.0392931
0.0391907
0.00969962
0.0130429
-0.0381238
0.0374536
0.00272425
0.00659766
-0.00138944
0.0302306
-0.0314622
-0.00330466
-0.0303001
0.00148168
0.0293343
-0.00113555
0.0326892
-0.0332361
-0.00867714
-0.00597565
0.0337033
-0.0342261
-0.0134462
-0.0115824
0.0347891
-0.0353896
-0.0167366
-0.01579
0.0360154
-0.0366455
-0.0184274
-0.0183427
0.0372657
-0.0378639
-0.0189753
-0.0194036
0.0384254
-0.0389524
-0.0191864
-0.0196936
0.0394376
-0.0398997
-0.0196093
-0.0199828
0.0403332
-0.0407594
-0.0203385
-0.0205829
0.0411642
-0.0415634
-0.0213091
-0.0214695
0.0419319
-0.0422807
-0.0223875
-0.0225569
0.0425722
-0.0428146
-0.0231515
-0.0235904
0.0429582
-0.0430193
-0.0227269
-0.0239083
0.0429468
-0.0427821
-0.0199427
-0.022402
0.0425389
-0.0424147
-0.0140425
-0.0179513
0.0421214
-0.0416276
-0.00554281
-0.0103563
0.0407485
-0.0398625
0.00407015
-0.000858825
0.0356378
-0.0346861
0.0159288
0.00829277
-0.0193267
0.0191015
-0.0304863
-0.0306936
-0.0191315
0.00438038
0.0304077
0.0200011
-0.0337581
-0.0117543
0.0113174
0.0362869
-0.0123138
0.0375529
0.0207432
-0.0328163
0.0209267
-0.0328095
-0.0325382
0.0193668
0.0240167
-0.0216267
-0.0339166
0.0295509
-0.0301526
0.00208337
-0.0197391
0.0210224
-0.0317696
-0.0189632
-0.0314695
0.00397213
0.0297425
0.0283913
0.0051317
0.0228753
-0.0313968
-0.0340316
-0.0112183
0.0101372
0.0344321
0.0350905
-0.00945871
0.00893846
0.0320797
0.0332372
-0.00773182
0.00748635
0.029988
0.0316143
-0.0311503
0.0301863
-0.0178356
0.0309732
-0.0322423
-0.017694
-0.0193086
-0.0299022
0.0298631
-0.0165655
-0.0171956
-0.0302325
0.0300761
-0.0115576
-0.014851
-0.0301992
0.0302886
-0.00445758
-0.00844894
-0.0305672
0.0310201
0.00345048
-0.000523129
-0.0316392
0.0323477
0.0107424
0.0074978
-0.033148
0.0339487
0.016278
0.0142216
-0.0347653
0.0355172
0.0196674
0.0188262
-0.0362317
0.0368512
0.0212121
0.0213013
-0.0374112
0.0378788
0.0215497
0.0221839
-0.0382917
0.0386335
0.0212995
0.0221595
-0.038936
0.0391884
0.0209098
0.0217812
-0.0394139
0.0396044
0.0207043
0.0214393
-0.0397795
0.0399348
0.0208321
0.0214016
-0.0400866
0.0402277
0.021033
0.0216383
-0.040366
0.0404896
0.020614
0.0216324
-0.0406004
0.0406863
0.0187991
0.0205677
-0.0407498
0.0407703
0.0151447
0.0177698
-0.0407675
0.0407304
0.00973671
0.0130457
-0.0406794
0.0403403
0.00306335
0.00664872
-0.0397046
0.039073
-0.00467564
-0.000753758
-0.0385754
0.038781
-0.0125193
-0.00839666
0.0309036
-0.0314504
-0.00275785
-0.00038456
0.0316364
-0.0320029
-0.0083106
-0.00578963
0.0324631
-0.0329796
-0.0129297
-0.0111223
0.0335718
-0.0341929
-0.0161155
-0.0151978
0.0348676
-0.0355373
-0.0177577
-0.017668
0.0362249
-0.0368699
-0.0183303
-0.018716
0.0375008
-0.0380737
-0.0186135
-0.0190627
0.0386288
-0.03914
-0.0190981
-0.0194277
0.0396499
-0.0401341
-0.0198543
-0.020073
0.0406276
-0.0410995
-0.0208372
-0.020976
0.0415768
-0.0420215
-0.0219427
-0.0220796
0.0424497
-0.042816
-0.0227852
-0.0231622
0.0431226
-0.0433285
-0.022521
-0.0236016
0.0434316
-0.0434175
-0.0199568
-0.0222989
0.0432914
-0.0430739
-0.0142599
-0.0180775
0.0427719
-0.0424259
-0.00588884
-0.0106583
0.0420297
-0.0414229
0.00346327
-0.001255
0.0412832
-0.0372642
0.0119098
0.00815307
0.0337814
-0.0313199
0.0204138
0.015884
-0.0183048
0.0189557
-0.0321204
-0.0318562
-0.0186909
0.0265092
-0.0242542
-0.0336519
-0.0312824
0.0264718
0.0219548
-0.0349697
-0.0228792
-0.0352916
0.00599625
0.0298814
0.022575
-0.0344647
-0.0150356
0.014919
0.0388976
0.040185
-0.0411937
-0.0115107
0.0397591
-0.0146096
0.0220304
-0.0338174
0.0203116
-0.0331255
0.0262665
-0.0250156
-0.0349028
-0.0184551
0.0202369
-0.0339023
-0.0178024
-0.0325089
0.0265279
-0.0315438
-0.034956
-0.0147745
0.014615
0.0364464
0.0376974
-0.0137045
0.013404
0.0347326
0.036001
-0.0129884
0.0116561
0.0334121
0.0336527
-0.0117471
0.0101634
0.0315717
0.0315233
-0.0321215
0.0323413
-0.0179139
0.031451
-0.0329862
-0.0162672
-0.0193614
-0.0312319
0.0310326
-0.0176362
-0.0181992
-0.0309548
0.0303854
-0.0159962
-0.0171179
-0.0298651
0.0295523
-0.0112448
-0.0143307
-0.0294379
0.0295104
-0.00453008
-0.00833453
-0.0297871
0.030234
0.00300361
-0.000799831
-0.0308612
0.0315921
0.0100115
0.00687061
-0.0324299
0.0332784
0.0154295
0.0133838
-0.034153
0.0349679
0.0188525
0.0179516
-0.0357528
0.0364449
0.0205199
0.0205164
-0.0370836
0.0376302
0.021003
0.0215453
-0.0381269
0.0385509
0.0208755
0.0216628
-0.0389394
0.0392762
0.0205731
0.0213927
-0.0395912
0.0398722
0.0204233
0.0211243
-0.0401465
0.0404044
0.0205742
0.0211273
-0.040669
0.0409253
0.0207767
0.0213737
-0.0411872
0.0414318
0.0203694
0.0213705
-0.0416674
0.0418694
0.0185971
0.0203321
-0.0420456
0.0421733
0.015017
0.0175936
-0.0422602
0.0422971
0.00969975
0.0129589
-0.0422476
0.0421154
0.00319551
0.00669828
-0.0420194
0.041065
-0.00372125
-0.000657737
-0.00852534
0.0300916
-0.0302707
0.0022625
-0.0305287
0.00710425
0.0294207
0.00469463
0.0309066
-0.030933
-0.00273144
0.000251311
0.0311922
-0.0315492
-0.00795359
-0.00553047
0.0320175
-0.0325548
-0.0123924
-0.0106539
0.0331828
-0.0338483
-0.01545
-0.0145698
0.0345766
-0.0353017
-0.0170325
-0.0169397
0.036048
-0.0367488
-0.0176295
-0.0179698
0.0374366
-0.0380649
-0.0179852
-0.0183749
0.0386798
-0.0392528
-0.0185251
-0.0188129
0.0398319
-0.0403889
-0.0192973
-0.0194939
0.0409646
-0.0415247
-0.0202772
-0.0204003
0.0421037
-0.0426595
-0.021387
-0.0215006
0.0432154
-0.0437176
-0.022283
-0.0226062
0.0441726
-0.0445238
-0.0221698
-0.0231466
0.0447682
-0.0448745
-0.0198504
-0.0220545
0.044848
-0.0447007
-0.0144072
-0.018104
0.0444416
-0.0441056
-0.00622486
-0.0109175
0.0436879
-0.0432261
0.00300151
-0.00167271
0.0427034
-0.042172
0.0113784
0.00763037
0.0415783
-0.0387287
0.0175642
0.0152902
0.0337296
-0.0317459
0.0245442
0.0214727
-0.0180131
0.0193578
-0.0338536
-0.0335001
-0.0174991
0.0259832
-0.0239147
-0.0336123
-0.0306157
0.024853
0.00963623
0.0304086
0.0226729
-0.0350676
-0.0241639
-0.0361433
-0.0177857
0.0175532
0.0391301
-0.0182119
0.0401852
0.0220142
-0.0344486
-0.0248486
-0.0339688
0.0213567
-0.0348625
0.0209742
-0.0338627
0.0192476
-0.0337921
0.0302257
-0.0296812
0.00655977
0.0242231
-0.0268622
-0.0309733
-0.0192958
0.0190323
-0.0335901
-0.0182258
-0.0345701
0.0235618
-0.0299544
0.00876498
0.0302919
0.0292383
0.00975234
-0.0364469
-0.0170855
0.0165561
0.0369758
0.0381652
-0.0166769
0.0163835
0.0350261
0.0358802
-0.0148645
0.0149447
0.0333318
0.0351717
-0.0134143
0.0130852
0.0319007
0.0330537
-0.0114156
0.0106957
0.0310118
0.0320782
-0.0338631
0.0350365
-0.0174405
0.0339839
-0.0347608
-0.017449
-0.0173783
-0.0325909
0.0324049
-0.0177278
-0.0169159
-0.0317175
0.0313997
-0.0173184
-0.0175118
-0.0308093
0.0299513
-0.0151382
-0.0165274
-0.029368
0.0290027
-0.0108795
-0.0137474
-0.0288446
0.028899
-0.00458449
-0.00817639
-0.0291657
0.0296106
0.00255875
-0.0010665
-0.0302421
0.0309859
0.0092676
0.00623911
-0.0318479
0.0327304
0.014547
0.0125219
-0.0336499
0.0345157
0.0179867
0.0170322
-0.0353595
0.0361137
0.0197657
0.0196726
-0.0368207
0.0374368
0.0203868
0.0208383
-0.0380079
0.0385063
0.0203771
0.0210918
-0.0389733
0.0393884
0.0201581
0.0209256
-0.0397872
0.0401538
0.0200567
0.0207254
-0.0405219
0.0408769
0.0202192
0.0207592
-0.041248
0.0416131
0.0204117
0.0210026
-0.041992
0.0423532
0.0200083
0.0209916
-0.0427102
0.0430279
0.0182793
0.0199751
-0.0433166
0.0435464
0.0147872
0.017305
-0.043725
0.0438392
0.00958556
0.0127803
-0.0438423
0.0438962
0.00314164
0.00669509
-0.0435576
0.0438754
-0.00403898
-0.000319146
-0.0427757
0.0423111
-0.0110461
-0.00742567
-0.042184
0.0408228
-0.0168506
-0.0144825
0.0300475
-0.0305472
0.00276218
0.00506087
0.0304457
-0.0306542
-0.00252299
0.000149868
0.030889
-0.0312374
-0.00760518
-0.0052956
0.0317072
-0.0322572
-0.0118424
-0.0101841
0.0329099
-0.0336087
-0.0147511
-0.0139172
0.0343783
-0.0351466
-0.0162642
-0.0161701
0.035938
-0.0366819
-0.0168856
-0.0171784
0.0374144
-0.0380879
-0.0173118
-0.0176424
0.0387533
-0.0393801
-0.0178983
-0.0181475
0.0400202
-0.0406419
-0.0186755
-0.0188538
0.0412912
-0.0419308
-0.0196376
-0.019751
0.0426023
-0.0432597
-0.0207296
-0.0208291
0.0439342
-0.0445645
-0.0216528
-0.0219317
0.0451627
-0.0456575
-0.0216751
-0.0225484
0.046045
-0.0462726
-0.0196228
-0.021667
0.0463422
-0.0462546
-0.0144947
-0.0180344
0.0460252
-0.0456915
-0.00655854
-0.0111469
0.0452498
-0.0447386
0.00249036
-0.00211443
0.0441409
-0.0435049
0.0107424
0.00703261
0.042808
-0.04213
0.0168861
0.0145934
0.0401968
-0.0359264
0.0202739
0.0195395
0.0327657
-0.0326083
0.0234044
0.0216923
0.0235812
-0.0278606
-0.025675
0.0214874
-0.0305145
-0.0181007
0.0185165
-0.0349859
-0.0352192
-0.0176422
0.0224544
-0.0355078
-0.0232053
-0.0377867
0.00978522
0.0301488
0.0220688
-0.0351607
-0.0230805
-0.0377505
-0.0196972
0.0194447
0.0410752
0.0429798
-0.0431945
-0.0166359
0.0417707
-0.018488
0.0210844
-0.0349728
-0.0231862
-0.0356477
0.020217
-0.0348322
-0.0265374
-0.041817
0.0426794
0.0197425
-0.0345023
0.0194702
-0.0345438
-0.0189022
0.01875
-0.0348338
-0.0179184
-0.036203
-0.0371978
-0.0196852
0.0192764
0.0395389
0.0399448
-0.0195856
0.0191455
0.0374159
0.037856
-0.0177048
0.0178185
0.0349123
0.0373209
-0.0173683
0.0167363
0.0339638
0.0356219
-0.0163135
0.0150038
0.0332104
0.0334766
-0.014376
0.0132947
0.0320932
0.032706
-0.0355661
0.0353123
-0.0171952
0.0350926
-0.0365339
-0.0164771
-0.0181157
-0.0347081
0.0346742
-0.0174066
-0.016774
-0.0344701
0.0331759
-0.0164336
-0.0167118
-0.0324521
0.0311117
-0.0159781
-0.016788
-0.0304717
0.0296628
-0.0143293
-0.0158874
-0.0290213
0.028611
-0.0104692
-0.0131059
-0.0284172
0.0284498
-0.00461716
-0.00798258
-0.0287024
0.0291419
0.00211922
-0.00131903
-0.029773
0.0305223
0.00851827
0.00560806
-0.0313977
0.0323021
0.0136426
0.0116464
-0.0332532
0.0341579
0.017082
0.0160811
-0.0350489
0.0358547
0.0189599
0.0187816
-0.0366197
0.0372961
0.0197104
0.0200733
-0.0379325
0.0384967
0.019813
0.0204554
-0.0390339
0.0395196
0.0196724
0.0203884
-0.0399948
0.0404399
0.0196116
0.0202503
-0.0408943
0.0413389
0.0197747
0.0203048
-0.0418084
0.0422744
0.0199456
0.0205331
-0.0427629
0.0432341
0.0195371
0.020503
-0.0437058
0.0441332
0.0178519
0.0195034
-0.0445292
0.044855
0.0144613
0.016909
-0.0451218
0.045304
0.00940333
0.0125135
-0.0454146
0.0454334
0.00312288
0.00658448
-0.0453961
0.0450684
-0.00371133
-0.00028187
-0.0449445
0.0441636
-0.0102653
-0.00730169
-0.0135134
0.0301432
-0.030545
0.00696155
-0.0312368
0.0103063
0.0307156
0.00865876
0.0306431
-0.0304674
0.00258654
0.00515901
0.0304113
-0.030495
-0.00243925
9.37198e-05
0.0307156
-0.031053
-0.00726769
-0.0050751
0.0315195
-0.0320762
-0.0112857
-0.00971767
0.0327458
-0.033469
-0.0140278
-0.0132476
0.0342693
-0.0350691
-0.0154644
-0.0153699
0.0358928
-0.0366677
-0.0161107
-0.0163547
0.0374331
-0.0381414
-0.0166035
-0.016877
0.0388475
-0.0395189
-0.0172269
-0.0174414
0.0402104
-0.0408873
-0.0179986
-0.0181623
0.0415999
-0.0423083
-0.0189291
-0.0190384
0.0430607
-0.0438076
-0.0199826
-0.0200768
0.0445881
-0.0453348
-0.020906
-0.0211513
0.0460667
-0.0466995
-0.0210422
-0.0218165
0.04723
-0.0475841
-0.0192687
-0.0211366
0.0477569
-0.0477317
-0.0145199
-0.0178616
0.0475249
-0.0471789
-0.00690458
-0.0113537
0.0466999
-0.0461357
0.00192618
-0.00259342
0.0454595
-0.0447342
0.0100171
0.00635646
0.0439326
-0.043134
0.0160876
0.0137917
0.0423249
-0.0415798
0.0195287
0.0187304
0.0408602
-0.0391162
0.0216603
0.0209728
0.0204381
-0.0176648
0.0185837
-0.037122
-0.0369946
-0.017204
0.0117605
0.0316831
0.0229473
-0.0363863
-0.0230796
-0.0377876
-0.0208461
0.0208497
0.0410717
-0.0210172
0.0419418
0.0219448
-0.0360211
-0.0228005
-0.0381362
0.0211789
-0.0359346
-0.0228524
-0.0393327
0.020644
-0.0357337
-0.0222004
-0.0383817
0.0204373
-0.0354694
0.0199848
-0.0357786
0.0199495
-0.0361995
-0.0186631
-0.0354764
0.0308902
-0.0311565
0.0105726
-0.0185307
0.0187567
-0.037348
-0.0175664
-0.0379589
0.0113341
0.031142
0.0313703
0.010854
-0.0373301
-0.020395
0.0204516
0.0394822
0.0403994
-0.0194725
0.019963
0.0369254
0.0388351
-0.0196679
0.0192839
0.0352963
0.037616
-0.0188041
0.0182175
0.0345505
0.0361017
-0.0177043
0.0169599
0.0339548
0.0339897
-0.0161275
0.014576
0.0336447
0.0335384
-0.0139614
0.01248
0.0326234
0.0322977
-0.0371873
0.0379153
-0.0172051
0.0379104
-0.0383639
-0.0171129
-0.0164809
-0.0365528
0.0361585
-0.0168009
-0.0167532
-0.0363248
0.0349667
-0.0160485
-0.0169404
-0.034486
0.0335105
-0.0154581
-0.0162311
-0.0324461
0.0313997
-0.0149317
-0.0157236
-0.0303826
0.0295247
-0.0134715
-0.0148702
-0.0288295
0.0283752
-0.0100149
-0.0124107
-0.0281458
0.0281537
-0.00462511
-0.00775322
-0.0283887
0.0288171
0.00169081
-0.00155398
-0.0294413
0.0301886
0.0077709
0.0049839
-0.0310682
0.0319838
0.012727
0.0107669
-0.0329549
0.0338873
0.0161497
0.0151099
-0.0348146
0.0356622
0.0181124
0.0178542
-0.036476
0.037204
0.0189824
0.0192595
-0.037897
0.0385187
0.0191913
0.0197624
-0.0391177
0.0396659
0.0191241
0.0197894
-0.0402091
0.0407242
0.0190965
0.0197071
-0.041256
0.0417808
0.0192499
0.019773
-0.0423388
0.042896
0.0193884
0.0199751
-0.0434837
0.0440545
0.0189663
0.0199154
-0.0446304
0.0451577
0.0173247
0.0189274
-0.0456526
0.0460676
0.0140463
0.0164141
-0.0464165
0.0466647
0.00915509
0.0121646
-0.0468227
0.0468721
0.00307351
0.00642645
-0.0468189
0.0466673
-0.00355973
-0.000228684
-0.0463333
0.0463752
-0.0103072
-0.00696766
-0.045805
0.0448793
-0.0157102
-0.0129432
-0.0445216
0.0429954
-0.019491
-0.0181304
0.0311877
-0.0310108
0.00678469
0.0086899
0.030666
-0.0304635
0.00238403
0.00481423
0.03039
-0.0304532
-0.00237604
2.01507e-05
0.0306559
-0.0309803
-0.00694327
-0.00487239
0.0314409
-0.0320005
-0.0107262
-0.00925701
0.0326814
-0.0334218
-0.0132875
-0.0125667
0.0342426
-0.0350627
-0.0146443
-0.014549
0.0359063
-0.0367002
-0.0153168
-0.0155111
0.0374871
-0.0382202
-0.0158703
-0.0160902
0.0389573
-0.0396641
-0.0165201
-0.0167043
0.0403971
-0.041119
-0.0172767
-0.0174293
0.0418837
-0.0426494
-0.0181635
-0.0182737
0.0434694
-0.0442923
-0.0191597
-0.0192568
0.0451638
-0.0460125
-0.0200574
-0.0202798
0.0468637
-0.0476235
-0.0202824
-0.0209653
0.0482901
-0.04877
-0.0187888
-0.0204701
0.0490519
-0.0490978
-0.014474
-0.0175797
0.0489194
-0.0485589
-0.00726509
-0.0115321
0.0480335
-0.0474067
0.00129941
-0.00311884
0.0466553
-0.0458418
0.00920365
0.00560501
0.0449371
-0.0440302
0.0151806
0.0128871
0.0430998
-0.0422369
0.0186658
0.0178001
0.0414023
-0.039882
0.0201401
0.0201381
0.0392527
0.0185113
0.0198088
-0.0183229
0.0188313
-0.0384673
-0.0392181
-0.0174687
0.0187293
-0.0219103
-0.0353981
-0.0380327
0.0236819
0.0227042
-0.0371456
-0.0228185
-0.0377696
0.0116915
0.0321588
0.0223453
-0.0371875
-0.0225715
-0.0384171
-0.0208248
0.0214046
0.0424157
0.0441019
-0.0448416
-0.0187514
0.0432181
-0.019941
0.0221403
-0.0374309
-0.0223982
-0.0391349
0.022078
-0.0373744
-0.0203399
-0.0367049
0.0215669
-0.0370515
-0.0205479
-0.0368387
0.0210635
-0.0368926
0.0203535
-0.0377963
0.0201573
-0.038674
0.0194908
-0.0190147
-0.0396943
0.0202312
-0.0392077
0.0200299
-0.0198628
-0.0355653
-0.0355205
0.0175178
-0.0374445
-0.0215299
0.0212992
0.0413024
0.0418164
-0.0218025
0.021879
0.0394057
0.0398961
-0.0211554
0.0209684
0.0371125
0.0395587
-0.0206716
0.020293
0.0356749
0.0379128
-0.0198142
0.0197819
0.0345828
0.0365805
-0.0181156
0.0181777
0.0338927
0.035656
-0.0172021
0.0166909
0.0341559
0.034514
-0.0150959
0.0143687
0.0333506
0.0338926
-0.03878
0.0386817
-0.0170145
0.039174
-0.0400334
-0.0181554
-0.0170746
-0.0383052
0.0383831
-0.017283
-0.0161045
-0.0380166
0.0371949
-0.0159792
-0.0163866
-0.0363435
0.0354918
-0.0151968
-0.016089
-0.0345652
0.0336014
-0.0144943
-0.0153044
-0.0325384
0.0314816
-0.0138749
-0.0146606
-0.0304307
0.0295284
-0.0125692
-0.0138194
-0.0287831
0.0282841
-0.00951586
-0.0116654
-0.028017
0.0279972
-0.00460533
-0.00748609
-0.0282103
0.0286223
0.00127882
-0.00176705
-0.029233
0.0299712
0.00703277
0.00437314
-0.0308462
0.0317638
0.0118093
0.00989186
-0.0327448
0.0336947
0.0151997
0.0141289
-0.0346484
0.0355287
0.0172321
0.0169005
-0.0363825
0.0371541
0.0182109
0.0184056
-0.0378958
0.0385674
0.0185197
0.0190207
-0.0392203
0.0398231
0.0185213
0.0191365
-0.0404256
0.0410019
0.0185203
0.0191046
-0.041601
0.0421955
0.0186554
0.0191739
-0.0428303
0.0434665
0.0187522
0.0193403
-0.0441401
0.0447974
0.018309
0.0192418
-0.0454645
0.0460798
0.0167094
0.0182604
-0.0466628
0.0471576
0.0135515
0.0158311
-0.0475794
0.0478865
0.0088479
0.0117429
-0.0480882
0.0481647
0.00299703
0.00622481
-0.0481204
0.0479691
-0.00340837
-0.000184433
-0.0478116
0.0471381
-0.00963364
-0.00681021
-0.0469762
0.0460037
-0.0147377
-0.0127813
-0.0169683
0.0325669
-0.0318125
0.00981823
-0.0327406
0.0120011
0.032431
0.0106803
0.031563
-0.0311222
0.0063439
0.00844038
0.0307719
-0.0305554
0.00216755
0.00446398
0.0304636
-0.0305088
-0.00233082
-7.16574e-05
0.0306932
-0.0310047
-0.0066317
-0.00468808
0.0314588
-0.0320191
-0.0101659
-0.00880297
0.0327073
-0.0334583
-0.0125366
-0.0118785
0.0342906
-0.0351201
-0.0138148
-0.0137167
0.0359717
-0.0367735
-0.014515
-0.0146595
0.0375714
-0.0383202
-0.0151216
-0.0152922
0.039079
-0.0398119
-0.0157872
-0.0159455
0.0405763
-0.0413328
-0.0165203
-0.0166649
0.0421377
-0.042948
-0.0173532
-0.0174687
0.0438214
-0.0447051
-0.0182761
-0.0183833
0.0456508
-0.0465849
-0.0191232
-0.019334
0.0475397
-0.0484136
-0.0194085
-0.0200106
0.0492074
-0.0498106
-0.0181856
-0.0196762
0.0502056
-0.0503315
-0.0143481
-0.0171847
0.0501921
-0.0498229
-0.00763435
-0.0116715
0.0492479
-0.0485541
0.000605611
-0.00369377
0.047722
-0.0468273
0.00830903
0.00477284
0.0458342
-0.0448366
0.014183
0.0118939
0.0438081
-0.0428463
0.017704
0.0167716
0.0419084
-0.0407331
0.0189648
0.0192001
0.0398258
-0.039783
0.0184685
0.0189015
0.0402466
-0.0263932
0.0221831
0.0194153
0.0399465
-0.0343291
0.0180645
0.019463
0.0183853
-0.0201555
-0.0337503
0.0348719
0.01752
-0.0340066
0.0180606
0.0129652
0.0335624
-0.0195149
0.0201626
-0.040342
-0.040364
-0.0191842
0.0225387
-0.037339
-0.0226152
-0.0377259
-0.0211241
0.0213193
0.0422205
-0.0207853
0.0428793
0.0223951
-0.0374423
-0.0224865
-0.0383288
0.0224062
-0.0377591
-0.0218319
-0.0376429
0.0224901
-0.0382976
-0.021765
-0.0354879
0.0225751
-0.0385631
-0.021955
-0.0347465
0.0221447
-0.0386838
-0.0214384
-0.0342824
0.0213222
-0.0389612
0.0210545
-0.0394973
0.0214514
-0.0404965
-0.0339822
0.0345396
0.0169627
-0.0199748
0.020644
-0.0410112
0.0332742
-0.0327092
0.011436
0.012038
0.0333582
0.0337333
0.0115789
-0.0177899
-0.042549
-0.0171782
-0.0323426
0.0155385
-0.0184108
-0.032774
-0.0196733
-0.0324877
-0.037521
-0.0213522
0.0223733
0.0402813
0.0417835
-0.0210704
0.0217466
0.0387296
0.041199
-0.0216977
0.021538
0.0372722
0.0396076
-0.0212643
0.0209082
0.036031
0.0381864
-0.0204504
0.0199451
0.0350881
0.0370383
-0.019363
0.018757
0.0344987
0.0362382
-0.0180595
0.0172741
0.0349413
0.0352114
-0.0164259
0.0148578
0.0349188
0.0347408
-0.0142968
0.013319
0.034336
0.0341234
-0.040716
0.0398685
-0.0173079
0.041749
-0.0428261
-0.0167129
-0.0181512
-0.0394277
0.0398012
-0.0173879
-0.0166338
-0.0397914
0.0384928
-0.0159844
-0.0160947
-0.0380029
0.0374994
-0.0154757
-0.0158968
-0.0364555
0.0356097
-0.0143509
-0.0150452
-0.0346968
0.0337543
-0.0135519
-0.0143916
-0.0327139
0.031666
-0.012827