/*--------------------------------*- C++ -*----------------------------------*\
  =========                 |
  \\      /  F ield         | OpenFOAM: The Open Source CFD Toolbox
   \\    /   O peration     | Website:  https://openfoam.org
    \\  /    A nd           | Version:  10
     \\/     M anipulation  |
\*---------------------------------------------------------------------------*/
FoamFile
{
    format      ascii;
    class       volVectorField;
    location    "31.5";
    object      U;
}
// * * * * * * * * * * * * * * * * * * * * * * * * * * * * * * * * * * * * * //

dimensions      [0 1 -1 0 0 0 0];

internalField   nonuniform List<vector> 
25879
(
(1.08517 0.00312691 9.07712e-21)
(1.08196 0.00519837 -1.36178e-20)
(1.08137 0.0013075 2.53635e-20)
(1.08438 -0.000101613 -2.50149e-20)
(1.01618 0.553666 2.25379e-22)
(1.0332 0.558576 -2.42271e-21)
(1.35694 0.131772 0)
(1.33364 0.136289 -2.59874e-21)
(1.30943 0.126302 0)
(1.31723 0.109659 0)
(1.4557 0.195298 -2.51102e-21)
(1.4147 0.170237 5.6681e-21)
(1.50309 0.21981 -5.93737e-20)
(0.171831 0.0959996 4.85793e-20)
(0.218312 0.194165 -7.21541e-20)
(1.0262 0.520873 -2.3648e-20)
(1.08409 0.663997 -2.93081e-20)
(1.31216 -0.663172 6.81448e-20)
(1.44773 -0.569476 -7.46851e-20)
(0.473574 -0.109711 6.59308e-20)
(0.460087 -0.261898 2.95549e-19)
(0.381152 0.743192 -1.2067e-19)
(0.658219 0.657294 1.02328e-19)
(1.03611 0.0438842 4.48413e-21)
(1.04148 0.0484942 5.66267e-21)
(1.0357 0.0474705 3.4702e-22)
(1.02929 0.0404563 -4.74823e-23)
(1.03299 0.0373105 -5.80134e-21)
(1.02932 0.0371512 -8.05853e-21)
(1.03845 0.041524 -3.2588e-21)
(1.04423 0.0463186 3.78339e-20)
(-0.0997526 -0.0253156 6.29439e-20)
(-0.0981332 -0.0581086 -2.96374e-20)
(-0.0944858 -0.0109564 4.06466e-20)
(1.45359 0.384193 8.98176e-21)
(1.47223 0.153788 1.14463e-22)
(1.48588 0.131727 -1.06938e-22)
(0.99331 -0.17595 -9.28137e-22)
(0.976846 -0.165329 -1.29892e-20)
(1.60831 0.316674 -4.84906e-20)
(1.55855 0.287753 -6.22676e-21)
(1.48913 0.293068 -6.84882e-21)
(1.00037 -0.233929 -1.48577e-20)
(0.991387 -0.214802 0)
(0.988815 -0.197857 -1.49264e-21)
(1.41582 -0.172443 0)
(1.42903 -0.149498 5.44738e-20)
(0.136898 0.0157207 6.65012e-20)
(0.477349 0.0617708 3.0033e-21)
(0.659307 0.102055 0)
(1.20324 -0.401964 -1.59341e-21)
(1.20103 -0.350041 -4.44362e-21)
(0.762624 0.267552 -1.11578e-19)
(1.01813 0.43237 0)
(0.598619 0.00730937 -2.28664e-22)
(0.587673 0.00588927 0)
(0.625132 0.00774151 4.28279e-22)
(0.848539 0.235918 -9.55759e-20)
(0.847064 0.208808 9.21436e-20)
(0.891754 0.186074 -1.79209e-19)
(0.896721 0.225689 1.68605e-19)
(0.90365 0.352272 9.01508e-22)
(0.915038 0.28055 -3.99768e-21)
(0.749124 -0.00460705 1.10871e-22)
(0.814117 -0.00516773 3.00919e-21)
(0.771933 -0.00358269 -2.18821e-21)
(-0.10151 -0.0478462 2.3299e-21)
(-0.0572026 -0.0534257 0)
(-0.0916251 -0.0670962 0)
(-0.11654 0.206843 1.06318e-19)
(-0.0855639 0.0395574 -2.913e-19)
(1.00634 0.029655 1.42365e-20)
(1.01019 0.0414938 0)
(1.01337 0.0453456 -7.79046e-21)
(1.0651 -0.109641 5.11996e-20)
(1.01921 -0.123755 0)
(1.00434 -0.084336 1.93524e-20)
(1.07414 0.000678714 0)
(1.07208 -0.00427107 1.46872e-20)
(1.07598 -0.00294096 1.60038e-20)
(0.975561 -0.228462 0)
(0.98462 -0.256023 3.74946e-20)
(0.332174 0.253953 6.4047e-20)
(0.510713 0.200452 3.38002e-19)
(0.433868 0.385366 0)
(0.998693 -0.0140313 1.88874e-20)
(1.00025 -0.018719 -1.77007e-20)
(1.00493 -0.0216861 0)
(1.12707 0.0357543 4.22266e-21)
(1.11899 0.0305142 -1.19514e-22)
(0.213732 0.304026 -1.03411e-19)
(0.399082 0.241468 1.29877e-19)
(0.0893352 0.306892 2.46304e-20)
(1.04067 0.0409068 1.52417e-20)
(1.0362 0.036743 -4.53046e-22)
(0.991531 0.523992 1.48279e-21)
(0.998055 0.535101 -1.48012e-21)
(1.02006 0.538252 9.14399e-22)
(1.4908 0.251527 1.12214e-20)
(1.4781 0.293183 7.84996e-22)
(1.50166 0.317107 -1.21328e-21)
(1.48201 0.359516 -9.07523e-21)
(1.12708 0.0450502 4.43432e-21)
(1.13213 0.0474244 -3.21438e-23)
(1.1356 0.0403049 -2.37005e-22)
(1.07235 -0.079627 9.61573e-21)
(1.05455 -0.0644875 -2.8652e-21)
(1.19399 -0.453294 6.96591e-21)
(1.10865 -0.632276 1.16316e-20)
(1.48874 0.0895637 1.10215e-22)
(1.48766 0.0577296 1.59798e-22)
(1.16782 -0.133626 -2.52807e-22)
(1.15744 -0.127163 0)
(1.17029 -0.0160726 3.31883e-21)
(1.17157 -0.0175892 -4.26817e-21)
(1.06167 0.168467 -2.80059e-21)
(1.07356 0.180557 2.94621e-21)
(1.44209 0.156389 9.49452e-21)
(1.26008 0.285785 7.534e-21)
(1.23151 0.253739 -1.43975e-20)
(1.22483 0.226023 4.04864e-20)
(1.45284 -0.08066 -6.76992e-21)
(1.44478 -0.0577487 0)
(1.4709 0.36169 -2.09929e-20)
(1.4654 0.340932 3.9944e-20)
(0.50386 0.173058 -5.28194e-20)
(0.730007 0.107399 0)
(-0.274596 0.371249 -1.78046e-20)
(-0.218694 0.361812 0)
(-0.146651 0.230656 0)
(-0.191562 0.197842 -1.22874e-19)
(-0.110783 0.0864678 2.31527e-19)
(0.909152 -0.0691322 0)
(0.923276 -0.0850031 9.79754e-20)
(0.938 -0.0665758 3.08431e-20)
(0.928181 -0.055429 -2.54864e-20)
(1.07936 -0.000192459 -3.5982e-20)
(1.07763 0.00302136 2.26635e-20)
(1.34197 0.113352 -3.66709e-21)
(0.616547 -0.00573562 -2.83472e-22)
(0.901924 -0.0702788 -4.56611e-20)
(0.923707 -0.0654453 0)
(0.923752 -0.153434 -6.27341e-21)
(0.919865 -0.204757 0)
(0.927347 -0.303263 0)
(0.935515 -0.371525 1.40077e-20)
(0.943749 -0.435518 -9.71642e-22)
(0.953152 -0.483887 -2.68773e-20)
(0.962322 -0.520427 1.27439e-20)
(0.971792 -0.544864 -1.08564e-20)
(0.981012 -0.558832 8.70185e-22)
(0.989871 -0.564499 9.97643e-21)
(0.998403 -0.565335 0)
(1.006 -0.56397 -8.15209e-21)
(1.01293 -0.563391 8.05884e-21)
(1.01867 -0.564785 0)
(1.02365 -0.56907 7.4225e-21)
(1.02759 -0.57577 -7.50843e-21)
(1.03086 -0.584648 7.64233e-21)
(1.03317 -0.594781 -1.57859e-20)
(1.03454 -0.605682 1.64086e-20)
(1.0346 -0.616038 -1.77447e-20)
(1.03305 -0.624476 9.09571e-21)
(1.02961 -0.628521 0)
(1.02387 -0.625385 0)
(1.01596 -0.611675 1.37863e-20)
(1.0056 -0.583885 1.56206e-21)
(0.993785 -0.539428 -1.53656e-20)
(0.980521 -0.47603 -1.83676e-20)
(0.967623 -0.3944 1.85691e-20)
(0.954904 -0.295206 -2.09539e-20)
(0.944414 -0.183247 2.18336e-20)
(0.935367 -0.0618311 -1.33036e-21)
(0.930845 0.0613982 0)
(0.925736 0.187542 0)
(0.925611 0.301541 -4.55878e-21)
(0.922142 0.397006 -2.92185e-20)
(0.968187 0.159926 0)
(0.965343 0.284161 9.92364e-21)
(0.883422 0.31109 -4.80453e-21)
(0.951718 -0.0775979 6.0251e-21)
(0.951935 0.0180509 -2.86218e-21)
(0.92161 0.0205013 0)
(0.88394 0.398771 0)
(0.887198 0.0913045 0)
(0.884295 0.207659 9.46875e-21)
(0.901497 -0.149176 1.96504e-20)
(0.892341 -0.029395 1.30499e-21)
(0.927267 -0.362209 1.22803e-21)
(0.912986 -0.261485 -3.83255e-20)
(0.958153 -0.514045 0)
(0.942271 -0.446683 1.75238e-20)
(0.987079 -0.596096 -2.60541e-20)
(0.97311 -0.563204 1.32386e-20)
(1.00859 -0.622105 1.01382e-20)
(0.998859 -0.614626 1.19463e-20)
(1.02117 -0.61579 8.66017e-21)
(1.01591 -0.621526 -9.79979e-21)
(1.02641 -0.597679 0)
(1.02457 -0.607298 -8.37101e-21)
(1.02666 -0.57993 0)
(1.0271 -0.588309 0)
(1.02318 -0.56954 7.99839e-21)
(1.02547 -0.573536 0)
(1.01605 -0.569636 8.86565e-21)
(1.0202 -0.568496 -7.73135e-21)
(1.00571 -0.572407 -1.03101e-20)
(1.01135 -0.571889 -8.56965e-21)
(0.993346 -0.556991 -1.23167e-20)
(0.999839 -0.568616 9.96577e-21)
(0.979772 -0.501667 -1.46555e-20)
(0.986757 -0.535436 1.19011e-20)
(0.966736 -0.395459 -1.7002e-20)
(0.973075 -0.455847 1.39783e-20)
(0.958301 -0.246427 0)
(0.960907 -0.326264 1.6659e-20)
(0.953827 -0.163298 -8.50481e-22)
(0.897958 -0.272911 0)
(0.879961 -0.0940845 2.60732e-20)
(0.88894 -0.1857 0)
(0.917171 -0.41127 1.36817e-20)
(0.907415 -0.348403 -1.40102e-20)
(0.939637 -0.501542 3.51018e-22)
(0.928601 -0.463357 7.97526e-25)
(0.963011 -0.544557 1.97685e-20)
(0.951045 -0.528089 -9.97167e-21)
(0.985685 -0.554373 0)
(0.974257 -0.551913 -9.19537e-21)
(1.00553 -0.554266 0)
(0.995814 -0.553956 0)
(1.02147 -0.560928 7.21756e-21)
(1.01381 -0.55606 0)
(1.0341 -0.577411 7.47643e-21)
(1.02806 -0.567864 -6.99807e-21)
(1.04387 -0.600257 8.31773e-21)
(1.0394 -0.588078 -7.24911e-21)
(1.0496 -0.623134 0)
(1.04752 -0.612116 -8.06491e-21)
(1.04886 -0.63168 -1.22231e-20)
(1.05051 -0.630431 0)
(1.03926 -0.60107 4.5133e-22)
(1.04575 -0.623246 1.22409e-20)
(1.02117 -0.50413 1.65601e-20)
(1.0318 -0.562725 -1.61115e-20)
(0.999828 -0.330387 -4.18837e-20)
(1.01141 -0.427301 1.91598e-20)
(0.981366 -0.0988613 7.26378e-22)
(0.991261 -0.220783 2.09468e-20)
(0.975293 0.0285567 0)
(0.894469 0.0181561 -5.11702e-21)
(0.921112 0.110014 7.72658e-23)
(0.952346 0.110197 -1.31921e-21)
(0.887967 0.473687 8.65721e-21)
(0.910672 0.480345 -1.52583e-20)
(0.859656 0.475623 -5.62248e-21)
(0.89436 0.529666 0)
(0.87159 0.522349 7.12701e-21)
(0.964817 0.389212 6.10967e-22)
(1.01139 0.132919 1.14594e-20)
(1.00484 0.257615 -3.19821e-20)
(0.855966 -0.086054 1.17814e-20)
(0.872803 0.00875562 1.35122e-20)
(0.851572 0.00496535 -4.52666e-21)
(0.87132 0.103077 -8.80755e-21)
(0.89373 0.108607 3.64412e-21)
(0.847993 0.320145 -8.91025e-21)
(0.851253 0.407339 4.35835e-21)
(0.849267 0.110055 -1.15391e-21)
(0.847701 0.219737 4.98302e-21)
(0.863618 -0.124736 0)
(0.854284 -0.00707747 0)
(0.892286 -0.337104 4.31578e-21)
(0.876771 -0.236687 -1.83298e-23)
(0.927224 -0.491796 -3.66167e-21)
(0.909508 -0.422971 -4.14418e-21)
(0.961438 -0.579619 0)
(0.944924 -0.543871 3.5164e-21)
(0.989255 -0.612196 0)
(0.976467 -0.601649 0)
(1.00836 -0.611112 0)
(0.999963 -0.61454 0)
(1.01972 -0.596152 2.03382e-21)
(1.01493 -0.604453 -1.95305e-21)
(1.02559 -0.579969 1.92437e-21)
(1.02326 -0.587694 -1.84794e-21)
(1.02747 -0.570454 1.9535e-21)
(1.02701 -0.574038 -1.8759e-21)
(1.02589 -0.571391 0)
(1.02709 -0.569801 0)
(1.02159 -0.575529 0)
(1.024 -0.574216 0)
(1.01548 -0.562657 2.89208e-21)
(1.01869 -0.572814 -2.77719e-21)
(1.00792 -0.510978 0)
(1.01183 -0.542786 0)
(0.999956 -0.408269 2.13555e-21)
(1.00404 -0.466558 0)
(0.992605 -0.257662 0)
(0.996064 -0.338002 0)
(0.986809 -0.0808766 -5.41914e-21)
(0.988825 -0.170929 5.15025e-21)
(0.98699 0.109902 0)
(0.986745 0.0140877 2.76242e-21)
(0.872066 -0.253206 3.40967e-21)
(0.863162 -0.172 -3.55605e-21)
(0.893538 -0.388106 -6.42588e-21)
(0.882053 -0.325083 6.45012e-21)
(0.9183 -0.478227 -3.60258e-22)
(0.90546 -0.438917 -1.68925e-25)
(0.945871 -0.525058 4.87491e-21)
(0.932044 -0.507081 -4.64014e-21)
(0.973392 -0.538533 4.1714e-21)
(0.959888 -0.534726 -3.97048e-21)
(0.99828 -0.541133 3.71786e-21)
(0.986382 -0.539892 -3.53879e-21)
(1.01925 -0.549622 3.51388e-21)
(1.00931 -0.544199 -3.34465e-21)
(1.03711 -0.567545 3.55497e-21)
(1.02855 -0.557557 -3.38378e-21)
(1.05276 -0.592342 3.8652e-21)
(1.04527 -0.579318 -3.67908e-21)
(1.0656 -0.619094 4.49707e-21)
(1.05969 -0.606028 -4.28054e-21)
(1.07352 -0.635073 5.5193e-21)
(1.0704 -0.629695 -5.25355e-21)
(1.07355 -0.615809 3.44098e-21)
(1.07474 -0.631752 -3.91987e-22)
(1.06376 -0.530716 5.38579e-21)
(1.06989 -0.58311 -4.20984e-21)
(1.04644 -0.362646 -3.37266e-22)
(1.05573 -0.456794 -3.97144e-21)
(1.02783 -0.128027 -7.26133e-22)
(1.03691 -0.251126 0)
(1.01932 0.001029 0)
(0.940401 0.481846 4.97664e-21)
(0.85121 0.0980492 2.1813e-21)
(0.918551 0.53346 -4.41577e-21)
(0.988859 0.201981 -2.6958e-21)
(1.02467 0.109186 2.45904e-21)
(1.0252 0.203364 -3.44067e-22)
(0.903972 0.562082 0)
(0.885374 0.551295 -3.66911e-22)
(1.00174 0.367478 -4.66852e-21)
(0.998992 0.461758 -4.66681e-21)
(0.971527 0.470881 2.19668e-20)
(0.922509 0.198113 -4.58725e-22)
(0.953878 0.200205 -3.20787e-22)
(0.874007 0.190794 2.16767e-21)
(0.896009 0.195303 2.21629e-22)
(0.837492 0.46773 1.03328e-21)
(0.869687 0.537276 -2.9755e-21)
(0.852314 0.512096 1.49854e-21)
(0.818947 0.31958 2.38787e-22)
(0.826194 0.402582 0)
(0.817567 0.117616 1.187e-21)
(0.816268 0.22358 -5.63112e-22)
(0.832959 -0.111621 0)
(0.823079 0.00316935 0)
(0.863851 -0.319826 0)
(0.846928 -0.221052 0)
(0.902342 -0.473624 0)
(0.882704 -0.404804 0)
(0.940763 -0.563457 0)
(0.922012 -0.526332 0)
(0.973416 -0.599833 0)
(0.958089 -0.58722 0)
(0.997733 -0.602687 0)
(0.986666 -0.604188 0)
(1.01432 -0.590689 0)
(1.0069 -0.597638 0)
(1.02524 -0.576409 0)
(1.02038 -0.583271 0)
(1.0321 -0.568226 0)
(1.02913 -0.571175 0)
(1.03586 -0.570105 0)
(1.03431 -0.568074 0)
(1.03758 -0.574808 0)
(1.03691 -0.573202 0)
(1.03797 -0.562641 0)
(1.03796 -0.572364 0)
(1.03691 -0.51212 0)
(1.03776 -0.543327 0)
(1.03418 -0.410674 -2.25802e-21)
(1.03627 -0.468299 0)
(1.03001 -0.261452 0)
(1.03269 -0.34163 1.13537e-21)
(1.02527 -0.0831419 0)
(1.02751 -0.175136 4.13442e-23)
(1.02469 0.0123645 7.04018e-22)
(0.83637 -0.0809215 -3.76099e-21)
(0.833553 0.091066 8.88626e-22)
(0.832966 0.00500028 -2.77291e-21)
(0.850981 -0.239605 5.28618e-22)
(0.842572 -0.162825 -4.17205e-22)
(0.873744 -0.370791 0)
(0.861574 -0.309499 -7.87868e-25)
(0.9017 -0.461816 0)
(0.887146 -0.421889 1.7175e-25)
(0.933301 -0.508199 0)
(0.917215 -0.490175 0)
(0.965271 -0.522683 0)
(0.949439 -0.518144 0)
(0.994391 -0.527409 0)
(0.980314 -0.525003 0)
(1.01949 -0.537953 0)
(1.00739 -0.531552 0)
(1.04179 -0.557207 0)
(1.03087 -0.546599 0)
(1.06253 -0.583128 0)
(1.05233 -0.56948 0)
(1.08141 -0.611654 0)
(1.07228 -0.597542 0)
(1.09658 -0.630892 0)
(1.08963 -0.623647 0)
(1.10485 -0.616979 0)
(1.10179 -0.630047 0)
(1.10316 -0.538757 0)
(1.10535 -0.587818 0)
(1.09142 -0.376473 3.42787e-22)
(1.0984 -0.468358 0)
(1.07379 -0.144803 -2.96295e-21)
(1.08288 -0.267116 0)
(1.05523 0.11355 -7.1429e-22)
(1.06465 -0.016337 2.86444e-21)
(1.03738 0.349578 1.52928e-20)
(1.04521 0.235554 7.02413e-22)
(0.900935 0.563367 6.87253e-22)
(0.888722 0.547422 1.73496e-21)
(0.854551 0.18402 0)
(0.943382 0.536603 -3.51317e-21)
(0.990262 0.288764 1.35577e-21)
(1.02639 0.291784 -2.62967e-21)
(0.923791 0.570453 0)
(0.9164 0.577836 -2.89537e-21)
(1.02969 0.44593 -1.01018e-20)
(0.994468 0.532742 -4.07208e-21)
(0.820064 0.0863479 2.20809e-21)
(0.917676 0.565766 0)
(0.908331 0.548677 -7.93935e-22)
(0.838183 0.175458 6.36168e-21)
(0.825334 0.166053 -6.42248e-21)
(1.02239 0.520054 8.09972e-21)
(0.967497 0.539147 0)
(0.926524 0.28121 5.78758e-22)
(0.957102 0.284894 1.55045e-21)
(0.879589 0.270006 0)
(0.900796 0.27632 -6.88019e-23)
(0.846228 0.252341 0)
(0.861422 0.262555 0)
(0.857237 0.519315 0)
(0.90136 0.529165 1.59818e-21)
(0.879379 0.528049 -1.01198e-21)
(0.819294 0.456176 2.29266e-21)
(0.836646 0.496712 -3.00553e-21)
(0.796357 0.316538 -1.10825e-21)
(0.805376 0.395519 8.6257e-22)
(0.792875 0.119388 0)
(0.79212 0.222687 0)
(0.807608 -0.100034 0)
(0.797909 0.00992871 0)
(0.839582 -0.301353 0)
(0.821862 -0.205474 0)
(0.88083 -0.452795 0)
(0.85965 -0.384605 0)
(0.922867 -0.544021 0)
(0.902219 -0.505804 0)
(0.959703 -0.584033 0)
(0.94221 -0.569424 0)
(0.988617 -0.591029 0)
(0.975205 -0.590488 0)
(1.00997 -0.582428 0)
(1.00015 -0.587805 0)
(1.02563 -0.570536 0)
(1.0184 -0.576305 0)
(1.0373 -0.564046 0)
(1.03188 -0.566209 0)
(1.0463 -0.56701 0)
(1.04204 -0.564502 0)
(1.05401 -0.572298 0)
(1.05025 -0.570418 0)
(1.06098 -0.560815 0)
(1.05763 -0.570157 0)
(1.06656 -0.511275 0)
(1.0641 -0.542008 0)
(1.0698 -0.411325 0)
(1.06872 -0.468029 0)
(1.06973 -0.263713 0)
(1.07021 -0.342822 0)
(1.0672 -0.0839333 0)
(1.06854 -0.177047 -4.06128e-23)
(1.0654 0.10836 -1.38539e-21)
(1.06612 0.0120841 -6.91046e-22)
(1.0643 0.291711 5.19737e-21)
(1.06421 0.202839 0)
(0.821109 -0.0766506 7.63398e-22)
(0.81867 0.00438216 -7.68289e-22)
(0.834665 -0.22992 0)
(0.826387 -0.155483 -7.4888e-22)
(0.858333 -0.357218 0)
(0.845492 -0.297804 0)
(0.888926 -0.445102 0)
(0.872892 -0.406613 0)
(0.923846 -0.490445 0)
(0.906025 -0.47276 0)
(0.959468 -0.505706 0)
(0.94182 -0.500557 0)
(0.992136 -0.512427 0)
(0.976314 -0.508955 0)
(1.02083 -0.524766 0)
(1.00691 -0.517569 0)
(1.04716 -0.544964 0)
(1.03417 -0.533975 0)
(1.07263 -0.571547 0)
(1.05997 -0.557553 0)
(1.09727 -0.601316 0)
(1.08511 -0.586457 0)
(1.11942 -0.623281 0)
(1.10885 -0.614432 0)
(1.13542 -0.61402 0)
(1.12849 -0.624529 0)
(1.14106 -0.541399 0)
(1.13975 -0.587611 0)
(1.13477 -0.384079 0)
(1.13937 -0.47358 0)
(1.11899 -0.155348 0)
(1.12783 -0.27636 0)
(1.09824 0.099598 -2.81201e-21)
(1.10906 -0.0281534 0)
(1.07474 0.328762 -1.32777e-21)
(1.08705 0.21988 3.39971e-21)
(1.05199 0.498349 0)
(1.06476 0.422267 -4.86579e-21)
(0.927456 0.546428 -3.04086e-21)
(0.922289 0.527371 2.11831e-21)
(1.01731 0.570069 -1.15724e-20)
(1.04207 0.553396 -1.39189e-20)
(0.945703 0.577689 -1.10371e-21)
(0.993005 0.577735 4.05151e-21)
(0.834512 0.240576 -5.40636e-21)
(0.933434 0.589134 0)
(1.06399 0.370655 1.18521e-21)
(1.10328 0.289022 -2.56958e-21)
(1.10005 0.368751 1.19842e-21)
(0.929713 0.581532 2.76833e-21)
(0.934287 0.563338 -2.19166e-21)
(1.01242 0.597774 3.01018e-22)
(0.945195 0.545124 1.67138e-21)
(0.941534 0.528134 -1.4442e-22)
(1.03353 0.585685 1.00583e-20)
(0.969175 0.579411 8.94129e-22)
(0.993816 0.367261 -2.39753e-21)
(1.02789 0.37047 2.26297e-21)
(0.932873 0.35684 -5.25233e-22)
(0.962128 0.362554 0)
(0.887797 0.340907 -1.74455e-21)
(0.907983 0.349462 0)
(0.85726 0.319569 -8.06428e-22)
(0.870916 0.330617 2.5742e-21)
(0.89605 0.50729 -1.30067e-21)
(0.939953 0.510139 1.31783e-21)
(0.919256 0.507221 3.95074e-22)
(0.847481 0.497671 0)
(0.872057 0.505597 1.04921e-21)
(0.804956 0.439978 0)
(0.82453 0.477148 0)
(0.778419 0.30921 0)
(0.789266 0.383411 0)
(0.772556 0.121585 0)
(0.772809 0.220355 0)
(0.786957 -0.0877911 0)
(0.777298 0.0172732 0)
(0.819325 -0.2816 0)
(0.801217 -0.188966 0)
(0.862515 -0.43009 0)
(0.840178 -0.362782 0)
(0.907577 -0.522429 0)
(0.885313 -0.483234 0)
(0.948063 -0.565955 0)
(0.928677 -0.549401 0)
(0.981049 -0.577073 0)
(0.965554 -0.574491 0)
(1.00672 -0.571946 0)
(0.994715 -0.575707 0)
(1.02682 -0.56256 0)
(1.01736 -0.567183 0)
(1.04311 -0.557771 0)
(1.03535 -0.559174 0)
(1.05723 -0.561628 0)
(1.05033 -0.558771 0)
(1.07078 -0.567213 0)
(1.06401 -0.565218 0)
(1.08414 -0.556141 0)
(1.07754 -0.56523 0)
(1.0962 -0.507541 0)
(1.09048 -0.537712 0)
(1.10529 -0.409349 0)
(1.10128 -0.464927 0)
(1.10993 -0.263894 0)
(1.10827 -0.34191 0)
(1.10998 -0.0846662 -1.02105e-23)
(1.11059 -0.177929 1.02204e-23)
(1.10712 0.107438 -2.30836e-23)
(1.10933 0.0115215 1.16675e-23)
(1.10529 0.201504 -6.78405e-22)
(0.810505 0.0820438 -1.39833e-21)
(0.825741 0.226719 6.52171e-21)
(0.816261 0.157705 -2.39386e-21)
(0.809731 -0.0723189 -1.52597e-22)
(0.808184 0.00455189 -1.63018e-22)
(0.822789 -0.2202 0)
(0.81463 -0.148347 0)
(0.846866 -0.343069 0)
(0.833597 -0.285729 0)
(0.879269 -0.427788 0)
(0.86217 -0.390757 0)
(0.916937 -0.471565 0)
(0.897665 -0.454397 0)
(0.955574 -0.487421 0)
(0.936419 -0.481713 0)
(0.991168 -0.496097 0)
(0.973889 -0.491585 0)
(1.02295 -0.510042 0)
(1.00744 -0.502169 0)
(1.05285 -0.530824 0)
(1.038 -0.51965 0)
(1.08258 -0.557508 0)
(1.06768 -0.543479 0)
(1.11248 -0.587646 0)
(1.09753 -0.572512 0)
(1.14123 -0.611333 0)
(1.12717 -0.601366 0)
(1.1649 -0.606262 0)
(1.15405 -0.614332 0)
(1.17785 -0.539886 0)
(1.17305 -0.582834 0)
(1.17673 -0.388536 0)
(1.17908 -0.475232 0)
(1.16321 -0.163942 0)
(1.17132 -0.28314 0)
(1.14118 0.088067 0)
(1.15305 -0.0380845 0)
(1.11379 0.316406 0)
(1.12809 0.207853 0)
(1.08267 0.48389 1.88412e-21)
(1.0988 0.409671 0)
(1.05626 0.571633 0)
(1.06868 0.537965 6.88293e-21)
(0.959737 0.531422 -7.9927e-22)
(0.959496 0.514611 7.06279e-22)
(1.02618 0.598865 0)
(1.04464 0.586927 0)
(0.846216 0.305278 0)
(0.951749 0.596857 -6.42767e-22)
(0.991549 0.602137 0)
(1.06371 0.438133 5.25833e-22)
(1.09788 0.436549 2.16649e-21)
(0.943207 0.59375 6.8918e-22)
(1.00937 0.606499 1.42773e-21)
(0.943485 0.578453 5.60971e-22)
(0.949995 0.56055 -6.94179e-22)
(0.961296 0.547057 0)
(0.820752 0.214044 -1.00902e-21)
(1.01828 0.599412 -4.17779e-21)
(0.976324 0.53866 -2.0343e-21)
(0.977552 0.522827 -1.37186e-21)
(1.03405 0.588193 -1.09358e-21)
(0.838334 0.290134 0)
(0.83339 0.27374 2.93802e-21)
(0.971108 0.601651 -1.25375e-21)
(0.997632 0.434375 0)
(1.03009 0.437868 1.44161e-22)
(0.941314 0.421519 2.54942e-22)
(0.968019 0.428552 -2.48033e-22)
(0.898308 0.400891 1.00939e-22)
(0.917783 0.412458 0)
(0.870643 0.375152 0)
(0.883022 0.388817 -1.02706e-22)
(0.854032 0.343457 4.24493e-21)
(0.861073 0.360152 -2.28232e-21)
(0.93914 0.489945 -6.93536e-22)
(0.97938 0.505423 -5.31259e-22)
(0.959929 0.49654 -3.19178e-23)
(0.893309 0.483526 -1.38043e-23)
(0.917492 0.485705 0)
(0.841032 0.473232 0)
(0.867411 0.481093 -5.66907e-22)
(0.794672 0.420787 5.11252e-22)
(0.816205 0.454733 -6.18422e-22)
(0.764626 0.299803 0)
(0.777028 0.368716 0)
(0.756621 0.123422 0)
(0.757736 0.216689 0)
(0.770538 -0.0755528 0)
(0.76098 0.0244053 0)
(0.803141 -0.261433 0)
(0.784822 -0.172275 0)
(0.847592 -0.406444 0)
(0.824469 -0.340277 0)
(0.894988 -0.499507 0)
(0.871442 -0.459511 0)
(0.93853 -0.546266 0)
(0.917542 -0.527903 0)
(0.975047 -0.561277 0)
(0.957736 -0.556763 0)
(1.00457 -0.559459 0)
(0.990605 -0.561679 0)
(1.02873 -0.552439 0)
(1.01721 -0.555992 0)
(1.04935 -0.549112 0)
(1.03937 -0.549899 0)
(1.06832 -0.553468 0)
(1.05892 -0.550477 0)
(1.08738 -0.55893 0)
(1.07778 -0.557023 0)
(1.1068 -0.548004 0)
(1.09712 -0.55693 0)
(1.12514 -0.500517 0)
(1.11627 -0.529964 0)
(1.14005 -0.404594 0)
(1.13322 -0.458878 0)
(1.14939 -0.261942 0)
(1.14564 -0.338572 0)
(1.15218 -0.085257 1.28329e-21)
(1.15203 -0.177081 -1.26568e-21)
(1.14926 0.105694 -5.78655e-22)
(1.15182 0.00937798 7.48228e-22)
(1.1418 0.28607 0)
(1.14623 0.198467 -3.14647e-22)
(1.13193 0.431951 -4.53407e-21)
(1.13681 0.365138 -1.03589e-21)
(0.804306 0.0773729 -5.57787e-22)
(0.810461 0.147966 1.18662e-21)
(0.802463 -0.0693505 1.53036e-22)
(0.801368 0.0045885 6.9929e-22)
(0.814664 -0.210603 0)
(0.806908 -0.141853 0)
(0.838838 -0.328278 0)
(0.82538 -0.273359 0)
(0.872515 -0.409233 0)
(0.854638 -0.373885 0)
(0.912308 -0.451242 0)
(0.891907 -0.434657 0)
(0.953266 -0.467761 0)
(0.932958 -0.461444 0)
(0.991161 -0.478386 0)
(0.972718 -0.472864 0)
(1.02555 -0.493715 0)
(1.00867 -0.485294 0)
(1.05861 -0.514782 0)
(1.0421 -0.503577 0)
(1.09214 -0.541188 0)
(1.07524 -0.52733 0)
(1.12682 -0.57116 0)
(1.10933 -0.556038 0)
(1.16169 -0.59598 0)
(1.14439 -0.585183 0)
(1.19275 -0.594852 0)
(1.17809 -0.600526 0)
(1.21309 -0.535454 0)
(1.20474 -0.57462 0)
(1.21694 -0.391699 0)
(1.21724 -0.474733 0)
(1.20496 -0.172745 0)
(1.21269 -0.289396 0)
(1.1817 0.0750051 0)
(1.19454 -0.0490976 0)
(1.15032 0.300498 0)
(1.16694 0.193128 0)
(1.11396 0.467364 0)
(1.13243 0.392958 0)
(1.0797 0.556706 2.64641e-21)
(1.0962 0.522065 -1.66773e-21)
(1.04888 0.578974 -8.37299e-21)
(1.06436 0.573742 1.80146e-21)
(1.02441 0.583452 0)
(1.03528 0.576582 3.96318e-21)
(0.995168 0.532825 6.58329e-22)
(0.998439 0.515557 9.42895e-23)
(0.958204 0.60251 7.1767e-22)
(0.991655 0.609919 -1.36546e-21)
(0.849643 0.325605 1.23769e-21)
(0.954048 0.590367 -6.0932e-22)
(1.00567 0.604731 5.40816e-22)
(1.12666 0.485291 1.93657e-21)
(1.16542 0.425208 5.37946e-22)
(1.15722 0.477763 -7.912e-22)
(0.956369 0.574226 5.36948e-22)
(1.01258 0.592092 4.18691e-21)
(0.964197 0.561336 9.35382e-22)
(1.01607 0.575648 0)
(0.976226 0.553237 7.3882e-22)
(0.992456 0.548338 0)
(1.01291 0.543759 1.23051e-21)
(1.01761 0.526651 -1.04043e-21)
(0.974572 0.608046 3.71757e-22)
(1.06374 0.492084 5.32576e-22)
(1.09519 0.490099 0)
(1.00359 0.487841 -9.70816e-22)
(1.03307 0.491333 0)
(0.950734 0.473259 0)
(0.975813 0.481983 1.20311e-21)
(0.911062 0.449911 0)
(0.929063 0.462541 0)
(0.886062 0.421166 4.81384e-24)
(0.896912 0.435912 0)
(0.87158 0.38753 0)
(0.877584 0.404605 0)
(0.981461 0.486253 4.03675e-22)
(1.02199 0.507999 0)
(1.0016 0.496614 4.61363e-23)
(0.939701 0.468339 0)
(0.960965 0.476926 1.81656e-22)
(0.892136 0.458304 0)
(0.916667 0.462294 0)
(0.837915 0.446684 -3.60819e-22)
(0.865347 0.454345 0)
(0.787834 0.399243 0)
(0.811203 0.429696 4.6094e-22)
(0.754878 0.289314 0)
(0.768636 0.352512 0)
(0.745028 0.124671 0)
(0.746921 0.212128 0)
(0.758228 -0.0634897 0)
(0.748899 0.0312642 0)
(0.790821 -0.241137 0)
(0.772441 -0.155633 0)
(0.835977 -0.382175 0)
(0.812382 -0.31741 0)
(0.885029 -0.475478 0)
(0.860538 -0.434909 0)
(0.93102 -0.525109 0)
(0.908722 -0.505103 0)
(0.970546 -0.54375 0)
(0.951672 -0.537428 0)
(1.00344 -0.54505 0)
(0.987753 -0.545819 0)
(1.03123 -0.540222 0)
(1.01786 -0.542799 0)
(1.0558 -0.538094 0)
(1.04379 -0.538413 0)
(1.07924 -0.542592 0)
(1.06752 -0.539654 0)
(1.10339 -0.5476 0)
(1.09116 -0.545933 0)
(1.12848 -0.536657 0)
(1.11589 -0.545466 0)
(1.15276 -0.490418 0)
(1.14091 -0.519043 0)
(1.17323 -0.397126 0)
(1.1637 -0.449941 0)
(1.18715 -0.257953 0)
(1.18122 -0.332783 0)
(1.19289 -0.0852076 0)
(1.19126 -0.174807 0)
(1.1899 0.102198 -1.59295e-22)
(1.19272 0.00761975 0)
(1.17967 0.281022 -1.2054e-21)
(1.18566 0.194488 1.49244e-21)
(1.17292 0.358723 -5.34854e-22)
(0.818647 0.201814 0)
(0.847814 0.308317 -3.98232e-21)
(0.831687 0.259182 1.48756e-21)
(0.801385 0.0727293 0)
(0.807963 0.139616 0)
(0.7986 -0.0670463 0)
(0.798142 0.00343924 0)
(0.809927 -0.201322 0)
(0.802532 -0.135898 0)
(0.833952 -0.313286 0)
(0.820442 -0.26108 0)
(0.868506 -0.389955 0)
(0.850067 -0.356529 0)
(0.909876 -0.429954 0)
(0.888641 -0.414028 0)
(0.952499 -0.447124 0)
(0.931369 -0.440192 0)
(0.992084 -0.459612 0)
(0.97277 -0.453148 0)
(1.02857 -0.476077 0)
(1.01058 -0.467245 0)
(1.06429 -0.49713 0)
(1.04638 -0.486049 0)
(1.10109 -0.522849 0)
(1.08247 -0.50939 0)
(1.13995 -0.552034 0)
(1.12024 -0.537264 0)
(1.18029 -0.577204 0)
(1.16007 -0.565975 0)
(1.21824 -0.579478 0)
(1.19998 -0.582952 0)
(1.24595 -0.527578 0)
(1.23397 -0.562517 0)
(1.25515 -0.393346 0)
(1.25322 -0.471622 0)
(1.24434 -0.182035 0)
(1.25201 -0.295249 0)
(1.21915 0.0605569 0)
(1.23323 -0.061167 0)
(1.18388 0.282414 0)
(1.20264 0.176629 0)
(1.14218 0.448117 0)
(1.16347 0.373832 0)
(1.10069 0.541052 0)
(1.12111 0.50391 0)
(1.0621 0.569071 9.0792e-22)
(1.08093 0.561603 0)
(1.04677 0.566371 2.70177e-21)
(1.03699 0.538958 5.53051e-22)
(1.04282 0.519428 4.87262e-22)
(0.86763 0.368804 -1.75653e-21)
(0.965493 0.599366 -5.10382e-23)
(0.991596 0.606537 0)
(1.12086 0.523911 1.37253e-21)
(1.14875 0.516108 -2.22204e-22)
(0.963844 0.585365 3.23664e-23)
(1.00253 0.597429 -5.43472e-22)
(0.968021 0.573452 0)
(1.00607 0.585605 0)
(0.976893 0.566045 0)
(1.01148 0.566584 0)
(0.990431 0.562151 -1.50063e-21)
(1.00854 0.559373 0)
(1.0309 0.556601 -1.86598e-21)
(0.998075 0.5514 9.44496e-22)
(0.848135 0.290843 1.31277e-21)
(1.05735 0.552303 -1.22514e-21)
(1.06432 0.532378 0)
(0.866105 0.350241 -1.95586e-21)
(0.866318 0.331432 5.78666e-22)
(0.97785 0.604992 0)
(1.06313 0.531569 0)
(1.0922 0.529215 -2.21302e-21)
(1.00836 0.527223 0)
(1.03498 0.531018 0)
(0.961065 0.511935 0)
(0.983625 0.520939 0)
(0.925095 0.487165 0)
(0.941418 0.500552 0)
(0.902491 0.456789 -4.73963e-24)
(0.912184 0.472417 0)
(0.89028 0.421964 1.06411e-21)
(0.895197 0.439722 -1.15369e-22)
(0.885819 0.383973 1.37878e-21)
(0.886766 0.40264 -2.23931e-21)
(1.02625 0.487325 -7.56114e-23)
(1.07075 0.510862 3.60215e-22)
(1.04808 0.498924 -3.59786e-22)
(0.984094 0.465913 -1.46751e-22)
(1.00531 0.476399 2.20075e-22)
(0.941049 0.446249 1.64078e-22)
(0.962821 0.455609 -1.74552e-22)
(0.892798 0.43197 0)
(0.917647 0.438096 -1.6229e-22)
(0.837681 0.418811 0)
(0.865831 0.426655 0)
(0.784947 0.376918 0)
(0.809969 0.403888 0)
(0.749204 0.277713 0)
(0.764251 0.335141 0)
(0.737514 0.12527 0)
(0.740204 0.206641 0)
(0.749778 -0.0516708 0)
(0.740815 0.0377125 0)
(0.782022 -0.220801 0)
(0.763758 -0.1391 0)
(0.827399 -0.357453 0)
(0.8036 -0.294316 0)
(0.877503 -0.450525 0)
(0.852373 -0.409615 0)
(0.925381 -0.502652 0)
(0.902044 -0.481177 0)
(0.967427 -0.524669 0)
(0.947228 -0.516651 0)
(1.00325 -0.528925 0)
(0.98606 -0.528315 0)
(1.03423 -0.526144 0)
(1.01924 -0.527822 0)
(1.06231 -0.525 0)
(1.0485 -0.524971 0)
(1.08975 -0.529361 0)
(1.07596 -0.526617 0)
(1.11848 -0.533641 0)
(1.10389 -0.532347 0)
(1.14871 -0.52248 0)
(1.13349 -0.531261 0)
(1.17838 -0.477462 0)
(1.16383 -0.505255 0)
(1.20397 -0.387075 0)
(1.19194 -0.438234 0)
(1.22213 -0.252124 0)
(1.21419 -0.324673 0)
(1.23046 -0.084333 0)
(1.22767 -0.171308 0)
(1.2279 0.0982795 0)
(1.23053 0.00643268 0)
(1.21582 0.274248 -1.24487e-21)
(1.22269 0.188537 1.10073e-21)
(1.19748 0.416417 -3.41708e-22)
(1.20729 0.350903 1.23442e-22)
(1.17596 0.505276 -2.55902e-23)
(1.18707 0.468251 -1.82167e-21)
(0.819168 0.190015 0)
(0.832429 0.243405 -8.50311e-22)
(0.801574 0.0674811 0)
(0.808717 0.131063 0)
(0.797751 -0.0650796 0)
(0.797846 0.00167494 0)
(0.808152 -0.192386 0)
(0.80118 -0.130388 0)
(0.831884 -0.298172 0)
(0.818411 -0.248932 0)
(0.867031 -0.370102 0)
(0.848195 -0.338798 0)
(0.909468 -0.407951 0)
(0.887683 -0.39271 0)
(0.953108 -0.425808 0)
(0.931485 -0.418247 0)
(0.993797 -0.44003 0)
(0.973889 -0.432718 0)
(1.03188 -0.457351 0)
(1.01302 -0.448253 0)
(1.06975 -0.478114 0)
(1.05071 -0.467294 0)
(1.10925 -0.502801 0)
(1.0892 -0.489932 0)
(1.15161 -0.530674 0)
(1.13002 -0.516545 0)
(1.19665 -0.555489 0)
(1.17391 -0.544198 0)
(1.24075 -0.560512 0)
(1.21923 -0.562074 0)
(1.27547 -0.5162 0)
(1.25998 -0.546717 0)
(1.29031 -0.393011 0)
(1.28592 -0.465586 0)
(1.28101 -0.191591 0)
(1.28854 -0.300264 0)
(1.25341 0.044364 0)
(1.269 -0.0743692 0)
(1.21419 0.261323 0)
(1.23506 0.157773 0)
(1.16732 0.424858 0)
(1.19139 0.351234 0)
(1.11913 0.519214 0)
(1.14298 0.48088 0)
(1.07565 0.55065 0)
(1.09649 0.541623 0)
(1.04046 0.5432 0)
(1.05753 0.549446 -4.8764e-22)
(1.08707 0.54648 0)
(1.09444 0.524131 -4.82398e-22)
(0.972182 0.543188 -1.65465e-21)
(0.966566 0.525593 -1.45829e-22)
(0.972136 0.593508 -5.2414e-22)
(0.991691 0.599797 0)
(0.886112 0.364398 1.04964e-21)
(0.972589 0.583069 4.95407e-22)
(0.998859 0.590884 0)
(1.16364 0.528836 8.05995e-23)
(1.20121 0.492196 1.68516e-22)
(1.18641 0.515002 -1.69009e-22)
(0.978069 0.576904 0)
(1.00007 0.580596 3.37114e-22)
(0.98864 0.574395 9.19296e-22)
(0.99429 0.566894 -1.91992e-21)
(1.00428 0.573306 7.16422e-22)
(0.977096 0.555763 7.9356e-22)
(1.02478 0.572323 6.34509e-22)
(1.04969 0.570693 1.21869e-21)
(1.07863 0.567416 -3.85168e-24)
(1.11961 0.537782 1.29253e-21)
(1.11107 0.56149 -3.40919e-22)
(0.954111 0.541065 0)
(0.950265 0.520066 -2.83128e-22)
(0.981579 0.598158 0)
(1.11407 0.548751 -1.65844e-22)
(1.13945 0.540194 1.73024e-22)
(1.06289 0.557187 -8.01332e-22)
(1.08834 0.554438 1.62375e-21)
(1.0136 0.553564 0)
(1.0376 0.556929 0)
(0.971549 0.538334 0)
(0.991529 0.54729 0)
(0.939512 0.513623 0)
(0.95409 0.527024 0)
(0.91942 0.482812 0)
(0.928163 0.498923 0)
(0.908969 0.447741 0)
(0.913276 0.465851 -1.23092e-22)
(0.905646 0.409896 0)
(0.90655 0.428934 0)