/*--------------------------------*- C++ -*----------------------------------*\
  =========                 |
  \\      /  F ield         | OpenFOAM: The Open Source CFD Toolbox
   \\    /   O peration     | Website:  https://openfoam.org
    \\  /    A nd           | Version:  10
     \\/     M anipulation  |
\*---------------------------------------------------------------------------*/
FoamFile
{
    format      ascii;
    class       volVectorField;
    location    "86.5";
    object      U;
}
// * * * * * * * * * * * * * * * * * * * * * * * * * * * * * * * * * * * * * //

dimensions      [0 1 -1 0 0 0 0];

internalField   nonuniform List<vector> 
28942
(
(0.00442852 -0.00225615 -3.40172e-22)
(0.00599422 -0.00233923 -6.31435e-23)
(0.0179337 -0.0123849 -8.28362e-22)
(0.103306 0.0182354 -5.26371e-21)
(0.102344 0.0222779 1.72338e-21)
(0.0136227 0.000413948 0)
(0.0161869 1.17727e-07 1.00454e-23)
(0.0187833 0.000534642 -8.85056e-24)
(0.135235 -0.0184428 -2.56303e-22)
(0.133892 -0.0168089 7.29383e-22)
(0.00979368 0.00401519 -6.67535e-22)
(0.0160659 0.00562863 2.52673e-22)
(0.00713655 0.00315279 0)
(0.00470697 0.00207011 0)
(0.0427656 0.00192205 -1.41021e-23)
(0.0410214 0.00246317 -5.71814e-24)
(0.0893155 0.015889 6.68411e-22)
(0.0870034 0.0138576 1.07569e-21)
(0.0121632 -0.0151107 2.9222e-21)
(0.0293275 -0.0304637 -7.69108e-22)
(0.098117 0.0374002 9.53329e-22)
(0.0972958 0.034436 0)
(0.0187365 0.00462605 1.16017e-21)
(0.00786247 0.00236311 5.46701e-22)
(0.0377922 0.00720971 9.36951e-22)
(0.057523 0.00291119 -8.54159e-22)
(0.00764718 -0.0184881 8.51341e-21)
(0.00669326 -0.0165528 -3.13542e-21)
(0.0355054 -0.0253198 5.742e-22)
(0.019298 -0.0136804 1.98226e-22)
(0.0139868 -0.00128063 0)
(0.0174858 -0.00110138 -1.27734e-23)
(0.0222391 0.004055 2.68187e-22)
(0.0320965 0.00183189 -4.08223e-23)
(0.0188249 0.0180094 1.3154e-21)
(0.0157196 0.0191196 -1.30697e-21)
(0.0321688 0.0376177 -3.05515e-21)
(0.0186688 0.0305363 -1.06908e-21)
(0.00745641 -1.75073e-05 -8.37312e-24)
(0.0086487 0.0161973 -2.61623e-21)
(0.0306493 -0.00620317 0)
(0.0513426 -0.0109694 0)
(0.111801 -0.0117106 -2.71918e-23)
(0.111293 -0.0117087 8.01726e-23)
(0.115856 -0.0116051 6.98688e-23)
(0.0265135 0.000168148 1.07295e-23)
(0.0246838 -0.000590839 -1.72261e-23)
(0.0353274 -0.000478158 -7.89843e-23)
(0.0338453 -0.000547781 2.25311e-23)
(0.0274777 -0.00258953 -1.9704e-22)
(0.020407 -0.00309259 1.28176e-22)
(0.128657 0.00129429 -4.01913e-22)
(0.127971 0.000822852 -3.75443e-22)
(0.134553 -0.0212091 -3.77002e-24)
(0.133007 -0.0194831 1.39232e-22)
(0.0824749 0.00635121 7.10778e-22)
(0.101727 -0.000768411 2.46389e-22)
(0.00305805 0.00162058 -5.61333e-22)
(0.00894124 0.00367896 0)
(0.00825584 0.00328843 2.3585e-22)
(0.00288211 0.00148784 4.84341e-22)
(0.000362164 0.000226221 -4.02772e-22)
(0.000192862 0.000122672 -3.86833e-22)
(0.109758 -0.0426057 0)
(0.104888 -0.0256116 1.24981e-22)
(0.121759 -0.0331168 -4.26926e-23)
(0.123407 -0.0437699 0)
(0.0901045 -0.0328028 -6.39183e-22)
(0.0936083 -0.03527 -4.20114e-22)
(0.00188472 -0.00112937 1.12462e-21)
(0.00248831 -0.0020171 -3.54379e-22)
(0.00487218 -0.00315541 8.79219e-22)
(0.0848733 -0.0457591 0)
(0.0911996 -0.0396233 2.16978e-21)
(0.0805417 -0.0530243 5.86278e-22)
(0.114123 0.0124073 2.34764e-22)
(0.11272 0.0069053 -2.60395e-22)
(0.12509 0.011011 -1.10313e-22)
(0.00468316 -0.00286172 -5.36658e-23)
(0.00633819 -0.00442566 4.49995e-22)
(0.0510054 -0.0311454 1.26852e-22)
(0.0331525 -0.0205356 -2.57691e-22)
(0.00211067 -0.00059583 3.19526e-21)
(0.00515639 -0.00207219 -1.24516e-21)
(0.10098 0.0482493 1.39818e-23)
(0.0970288 0.0552168 -7.66466e-22)
(0.0807205 0.0540131 6.99588e-22)
(0.0472043 0.0345104 -2.68638e-21)
(0.0444325 0.0316063 1.90251e-21)
(0.0294915 0.0205954 -1.13771e-22)
(0.0327121 0.0232482 -6.42243e-22)
(0.0379532 0.028358 8.70787e-22)
(0.00440788 0.00272929 -5.83927e-23)
(0.00776014 0.0039808 -1.6857e-23)
(0.00318835 0.00202212 3.37796e-23)
(0.00192329 0.00164641 -4.51586e-22)
(0.00145011 0.00157063 5.53659e-22)
(0.0157421 0.0115436 -3.25883e-21)
(0.0174949 0.0136354 7.46491e-22)
(0.00880365 -0.00384643 0)
(0.101389 0.0051594 0)
(0.0984003 0.0156832 -3.96081e-21)
(0.0604414 0.0104756 1.94323e-21)
(0.0886812 0.0178812 0)
(0.13545 -0.00108411 0)
(0.134888 -0.00179784 0)
(0.133195 -0.00229235 -2.54914e-22)
(0.114973 0.0266126 -2.12317e-22)
(0.114065 0.0280152 2.099e-21)
(0.113267 0.025475 1.12635e-21)
(0.00229374 0.00129932 1.04632e-21)
(0.00151131 0.000777413 -1.17438e-21)
(0.0190454 -0.00553359 -5.46715e-22)
(0.0201249 -0.00506191 4.66436e-22)
(0.00909742 -0.00292648 9.21985e-22)
(0.0064766 0.0111505 1.47932e-21)
(0.0189677 0.0181623 3.4583e-21)
(0.0134649 0.0228014 2.72182e-22)
(0.00492082 0.0143071 -8.62568e-21)
(0.116984 0.0477538 5.56562e-23)
(0.107862 0.058243 1.07088e-21)
(0.118321 0.0548814 -1.84685e-21)
(0.0390843 -0.0294129 7.32e-22)
(0.0240051 -0.0172621 -4.68206e-22)
(0.0053208 -0.000740423 -4.10417e-21)
(0.00453787 -0.00359043 0)
(0.0124954 -0.00166993 2.0035e-21)
(0.0219605 -0.0161277 7.7895e-22)
(0.0342493 -0.0277796 -1.95708e-21)
(0.0333973 -2.80052e-05 5.44145e-23)
(0.0355214 0.000128904 -4.00715e-23)
(0.0313518 0.000147312 -1.68294e-24)
(0.0280506 -0.041941 0)
(0.0296001 -0.0428322 0)
(0.0896235 -0.0186528 -4.63333e-22)
(0.0995914 -0.0220904 3.14775e-21)
(0.0870346 -0.0252785 0)
(0.0471094 -0.0401815 0)
(0.0581687 -0.051376 -7.83655e-22)
(0.0413107 0.0393379 2.08644e-21)
(-2.24612e-06 0.000214558 5.09468e-22)
(-0.000194132 0.000131029 -3.35469e-22)
(0.0223228 -0.0192372 -7.91736e-22)
(0.120276 -0.0114769 3.94084e-22)
(0.119641 -0.0114216 -7.6242e-23)
(0.115418 -0.00572492 -6.57124e-23)
(0.108344 0.000977948 8.7571e-23)
(0.117609 -0.00032335 1.76731e-22)
(8.22852e-05 0.000259111 1.96786e-22)
(0.0437427 0.0344183 3.20723e-21)
(0.061871 0.0463077 -7.88897e-22)
(0.0593052 0.0393639 -3.02785e-24)
(0.0217788 -0.000803802 5.3769e-24)
(0.0214583 -0.000782818 2.79585e-23)
(0.0232906 -0.000555617 1.03917e-24)
(0.0260114 -0.000572858 -1.37908e-23)
(0.0454173 0.0380894 1.33765e-22)
(0.0189608 0.0160585 0)
(0.000138198 -2.74201e-05 3.65925e-22)
(0.000421158 -0.000255045 -4.05981e-22)
(0.00185848 -0.00100786 2.83106e-22)
(0.0365472 -0.00771815 -1.83629e-21)
(0.0648553 -0.00209909 -7.48506e-22)
(0.0302691 -0.000189515 -2.14402e-24)
(0.0744663 -0.00764384 2.70428e-22)
(0.0706785 -0.0157266 5.90267e-23)
(0.0943036 0.0399225 2.14516e-21)
(0.0914042 0.045458 9.92836e-23)
(0.0887483 0.0290894 1.21655e-21)
(0.0914736 0.0308062 -8.81618e-22)
(0.0986955 0.0410838 0)
(0.126118 -0.000317654 1.49611e-22)
(0.126888 -0.000750598 2.82613e-22)
(0.128093 -0.0123501 -2.95881e-22)
(0.129557 -0.0121556 5.06462e-22)
(0.117054 0.024157 2.60399e-22)
(0.119112 0.0250583 -7.37429e-22)
(0.1171 0.0261693 0)
(0.115134 0.0249064 1.53488e-22)
(0.116671 0.0280914 0)
(0.117173 0.0361125 -5.52067e-22)
(0.11571 0.0381639 -3.01368e-22)
(0.111336 0.0419758 -5.41354e-22)
(0.113731 0.0401084 0)
(0.116419 0.0430839 1.79109e-21)
(0.113697 0.045006 4.73867e-23)
(0.10833 0.0441862 -3.0406e-22)
(0.0996278 0.0502881 -1.28864e-21)
(0.0984185 0.0454997 -2.2701e-22)
(0.0249478 -0.00846952 5.81749e-23)
(0.0328018 -0.00932625 -2.31998e-23)
(0.00628125 -0.00248588 -6.88973e-22)
(0.0296713 -8.91806e-05 -3.43916e-23)
(0.0380732 -0.000269355 0)
(-3.13323e-06 -3.98365e-05 4.305e-22)
(1.30644e-05 -4.71803e-05 2.1929e-22)
(0.0344374 -0.00177039 1.64729e-23)
(0.0407407 -0.00172072 6.81132e-24)
(0.0403001 -0.00118552 0)
(0.0333 -0.000818888 7.2487e-24)
(0.0855119 0.00338791 -1.08857e-22)
(0.0847417 0.00306764 5.14263e-22)
(0.0856017 0.00315009 2.38043e-22)
(0.000670631 0.000271979 3.90747e-22)
(-0.0001594 -0.000129256 -5.66384e-22)
(-0.000201048 -0.000168993 4.8257e-22)
(0.00149987 0.000617267 0)
(7.9878e-05 8.77547e-05 1.13522e-21)
(0.000171868 -3.90037e-05 -8.18066e-22)
(0.00744655 0.00367267 -9.88268e-22)
(0.00145127 0.000781114 -1.18105e-21)
(0.00172016 0.000860431 0)
(0.00157198 0.00754429 0)
(0.000576944 0.00328135 0)
(0.000313307 0.00197695 0)
(0.136624 -0.00109549 5.66296e-23)
(0.137637 -0.000929917 0)
(0.135997 -0.00187984 -6.60035e-23)
(0.0881101 -0.0148526 4.42892e-21)
(0.0901169 -0.015262 -1.6077e-21)
(0.0890323 -0.0128773 0)
(0.0961055 0.000351414 -6.39158e-24)
(0.0966771 0.000341989 1.2792e-23)
(0.0955319 0.000360237 -4.32321e-24)
(0.0972437 0.000334248 0)
(0.0978089 0.000334514 -8.16003e-24)
(0.0983678 0.000329361 0)
(0.0983637 -0.000264144 0)
(0.0989187 0.000312992 3.02972e-23)
(0.0989083 -0.00028462 0)
(0.0978113 -0.000255601 -8.21734e-24)
(0.097246 -0.000252432 0)
(0.0966782 -0.000248596 4.27652e-24)
(0.0961037 -0.000248871 -6.38845e-24)
(0.0955317 -0.000248303 4.31781e-24)
(0.0994568 0.000294894 -2.8992e-23)
(0.0994512 -0.000299222 -1.01374e-24)
(0.0949495 0.000374173 -2.98689e-29)
(0.0949438 -0.000241675 -6.59778e-24)
(0.0943568 0.000386061 3.50884e-23)
(0.0999875 0.000283181 2.70927e-26)
(0.0999982 -0.000306019 -1.01473e-24)
(0.0943542 -0.000243029 1.3002e-23)
(0.10052 0.000270452 2.72889e-23)
(0.10105 0.000260071 -2.72665e-23)
(0.100536 -0.000313576 2.0431e-24)
(0.101068 -0.000319437 4.03899e-24)
(0.0937814 0.00040827 -3.41392e-23)
(0.0937709 -0.000242999 -8.558e-24)
(0.101576 0.000248165 0)
(0.101595 -0.000326327 -3.98381e-24)
(0.0931833 0.0004206 4.22267e-27)
(0.0931739 -0.000237841 -4.23326e-27)
(0.102099 0.000238354 0)
(0.102118 -0.0003317 0)
(0.0925794 0.000429347 0)
(0.0925696 -0.000236327 0)
(0.102617 0.000226785 0)
(0.102637 -0.000338234 1.91431e-24)
(0.0919698 0.000437959 -1.77093e-23)
(0.0919591 -0.000234032 -4.32205e-27)
(0.103131 0.000217276 1.00357e-25)
(0.103151 -0.000343166 -2.0445e-24)
(0.0913541 0.000444539 1.77939e-23)
(0.0913428 -0.000233511 0)
(0.103641 0.00020595 0)
(0.103662 -0.000349067 0)
(0.090733 0.000451474 -1.12566e-24)
(0.0907209 -0.000231052 1.93184e-23)
(0.104148 0.000196799 1.24113e-23)
(0.104168 -0.000352894 0)
(0.0901068 0.000456467 -9.92859e-26)
(0.0900933 -0.000228913 -1.82844e-23)
(0.104651 0.000186043 -1.85646e-23)
(0.104672 -0.000357503 -5.38763e-24)
(0.0894614 0.000454913 1.86416e-23)
(0.0894507 -0.000227373 0)
(0.105151 0.00017848 6.11501e-24)
(0.105173 -0.000356662 3.59321e-24)
(0.088813 0.000459711 -9.43492e-24)
(0.0888023 -0.000228807 1.91304e-23)
(0.105645 0.000173273 -2.44217e-23)
(0.105675 -0.000349015 2.75256e-23)
(0.0881336 0.000449745 9.72538e-24)
(0.0881319 -0.000236056 3.07776e-25)
(0.106143 0.000170597 0)
(0.10617 -0.000341805 1.31167e-23)
(0.0874462 0.000439911 -1.95615e-23)
(0.0874516 -0.000250557 3.91295e-23)
(0.106656 0.00015935 0)
(0.106667 -0.000340337 0)
(0.0884307 0.00113042 -9.62319e-24)
(0.0877378 0.00112867 -3.89458e-23)
(0.0867348 0.000423587 0)
(0.0867572 -0.000276694 -1.9934e-23)
(0.0897662 0.00112432 -6.04292e-24)
(0.0891021 0.00112834 1.1868e-24)
(0.0910326 0.00110251 0)
(0.0903979 0.00111303 -1.95196e-23)
(0.0922631 0.00107619 -3.76954e-26)
(0.0916515 0.00108994 0)
(0.0934666 0.0010457 0)
(0.092868 0.00106141 0)
(0.0946461 0.00100766 0)
(0.0940596 0.00102838 0)
(0.0957804 0.000967395 8.537e-24)
(0.0952098 0.000986576 2.15202e-24)
(0.0969125 0.000937477 -8.23423e-24)
(0.0963529 0.000952323 -8.52434e-24)
(0.0980236 0.000911237 1.46239e-23)
(0.0974641 0.000918716 1.86769e-23)
(0.0991357 0.000888238 0)
(0.0985817 0.000902682 0)
(0.10021 0.000861859 -6.42522e-26)
(0.0996766 0.000874955 0)
(0.101265 0.00083282 0)
(0.10074 0.000847508 0)
(0.102303 0.000802913 0)
(0.101786 0.000817804 0)
(0.103325 0.000773286 0)
(0.102816 0.000787961 0)
(0.104332 0.000744321 0)
(0.10383 0.000758638 0)
(0.105324 0.000716111 0)
(0.10483 0.000730067 0)
(0.106306 0.000672644 -9.97888e-24)
(0.105814 0.000701111 0)
(0.1068 0.000649648 -3.22247e-24)
(0.107159 0.000144111 3.14676e-24)
(0.107167 -0.000342979 -3.12058e-24)
(0.105837 -0.000840415 0)
(0.106819 -0.000830012 -1.28038e-23)
(0.106328 -0.000833987 -6.59709e-24)
(0.104842 -0.000851819 1.80554e-24)
(0.10534 -0.000847516 -7.06472e-24)
(0.10384 -0.000854153 5.84548e-26)
(0.104342 -0.000854461 0)
(0.102822 -0.000851448 0)
(0.103333 -0.000852888 0)
(0.101788 -0.000848238 0)
(0.102307 -0.000849767 0)
(0.100736 -0.000845648 0)
(0.101264 -0.000846721 7.69121e-30)
(0.0996656 -0.000845241 6.48831e-26)
(0.100203 -0.00084498 0)
(0.0985814 -0.000839955 0)
(0.0991229 -0.000843855 0)
(0.0974725 -0.000834677 0)
(0.0980276 -0.00083643 0)
(0.0963432 -0.000836816 0)
(0.0969089 -0.00083292 -4.32279e-24)
(0.0951926 -0.0008466 1.13695e-24)
(0.0957697 -0.000844504 -5.57532e-24)
(0.0940325 -0.000860425 0)
(0.0946194 -0.000851804 -4.5355e-24)
(0.0928387 -0.000870464 0)
(0.0934389 -0.000865435 0)
(0.0916183 -0.000881376 0)
(0.0922319 -0.000875749 0)
(0.0903661 -0.000891846 0)
(0.0909973 -0.000886719 0)
(0.0890761 -0.000903718 -4.94292e-24)
(0.0897272 -0.000896288 0)
(0.0877521 -0.000935439 -2.00192e-23)
(0.0884184 -0.000914245 -4.9675e-24)
(0.0870676 -0.000961884 2.03787e-23)
(0.0870304 0.00112829 3.86158e-23)
(0.107296 0.00063041 6.30942e-24)
(0.107312 -0.000826028 -1.23243e-23)
(0.0860407 -0.000313974 0)
(0.0863744 -0.00100303 0)
(0.0863096 0.00112746 0)
(0.0860089 0.00039969 0)
(0.0890163 0.00179688 0)
(0.0876537 0.00182846 9.67022e-24)
(0.0883404 0.00181078 9.76342e-24)
(0.0903324 0.00176356 1.24093e-23)
(0.089681 0.00178129 -2.48043e-24)
(0.0915766 0.00172175 3.83689e-26)
(0.0909602 0.0017426 0)
(0.0927874 0.00167949 0)
(0.0921856 0.0017008 0)
(0.0939709 0.00163617 0)
(0.0933824 0.00165795 0)
(0.0951316 0.00159442 0)
(0.0945537 0.00161437 0)
(0.0962634 0.00155091 0)
(0.0957005 0.00157326 0)
(0.0973753 0.0015117 -3.45084e-26)
(0.0968183 0.00153208 8.90135e-24)
(0.098458 0.00147044 -3.31169e-26)
(0.0979221 0.00149021 -1.73692e-23)
(0.0995402 0.00142787 0)
(0.0989999 0.00144817 0)
(0.100598 0.00138915 3.20818e-26)
(0.100072 0.00140825 0)
(0.101636 0.00135097 0)
(0.101119 0.00137005 0)
(0.102657 0.00131294 0)
(0.102149 0.00133189 0)
(0.103663 0.00127548 0)
(0.103162 0.0012941 0)
(0.104653 0.00123878 0)
(0.10416 0.00125702 0)
(0.105628 0.00120178 0)
(0.105143 0.00122057 0)
(0.106594 0.0011523 6.8156e-24)
(0.106111 0.00117936 0)
(0.10766 0.000133797 0)
(0.107786 0.000611813 6.16921e-24)
(0.10756 0.00110324 0)
(0.107076 0.00112725 6.64008e-24)
(0.107106 -0.00131141 1.32086e-23)
(0.107587 -0.00130328 3.24403e-24)
(0.107803 -0.000826134 2.533e-23)
(0.107665 -0.000342891 0)
(0.106139 -0.00132956 0)
(0.106623 -0.00132032 -1.99424e-23)
(0.105163 -0.00134506 5.67974e-26)
(0.105652 -0.00133664 7.10768e-24)
(0.104176 -0.00135345 -5.84545e-26)
(0.104671 -0.00134988 0)
(0.103173 -0.00135903 0)
(0.103676 -0.00135635 0)
(0.102154 -0.00136442 0)
(0.102666 -0.00136165 0)
(0.101118 -0.0013708 0)
(0.101639 -0.00136741 -7.69119e-30)
(0.100065 -0.00137906 -1.29679e-25)
(0.100594 -0.00137468 0)
(0.0989967 -0.00138752 0)
(0.0995328 -0.00138341 0)
(0.0979044 -0.00139751 2.18078e-24)
(0.0984537 -0.00139192 0)
(0.0967959 -0.00140913 0)
(0.0973509 -0.00140106 -2.17168e-24)
(0.0956655 -0.00142812 4.54511e-24)
(0.0962299 -0.00141837 4.51779e-24)
(0.0945129 -0.00144672 0)
(0.0950932 -0.0014374 0)
(0.093335 -0.00146914 0)
(0.093927 -0.00145756 0)
(0.0921307 -0.0014944 0)
(0.0927363 -0.0014814 0)
(0.0908965 -0.00152285 0)
(0.0915176 -0.00150811 0)
(0.0896288 -0.00155629 7.90411e-26)
(0.0902672 -0.00153885 0)
(0.0883241 -0.00159767 -8.01345e-26)
(0.0889822 -0.00157611 0)
(0.0869853 -0.0016722 -2.09573e-23)
(0.0876582 -0.00163131 2.09478e-23)
(0.0869519 0.00184618 1.96773e-23)
(0.0856753 -0.00105576 0)
(0.0863046 -0.00172576 -4.26179e-23)
(0.085322 -0.000358354 0)
(0.108042 0.00108556 0)
(0.10807 -0.00129502 -3.14638e-24)
(0.0855818 0.00112638 4.98266e-23)
(0.0862433 0.00186457 1.99315e-23)
(0.0849596 -0.00111138 1.07752e-23)
(0.085613 -0.00178712 5.38578e-23)
(0.0852696 0.000371354 0)
(0.107952 0.00157122 2.59466e-23)
(0.108419 0.00154693 -1.28138e-23)
(0.108287 -0.000822512 -6.2338e-24)
(0.108545 -0.00128409 3.09914e-23)
(0.0872404 0.00257533 6.99255e-23)
(0.085514 0.00188223 -3.926e-23)
(0.085814 0.00263182 -1.75454e-22)
(0.0865241 0.0026005 -3.9948e-23)
(0.0885898 0.00250768 1.94611e-23)
(0.0879217 0.00254278 -5.9491e-23)
(0.089886 0.00244259 -1.99014e-23)
(0.0892451 0.00247491 -1.50129e-23)
(0.0911522 0.00238409 -4.96198e-24)
(0.0905264 0.00241427 -4.96546e-24)
(0.0923678 0.00232745 -3.83689e-26)
(0.0917666 0.00235607 0)
(0.0935484 0.00227032 0)
(0.0929616 0.0022988 0)
(0.0947021 0.00221418 0)
(0.0941284 0.00224212 0)
(0.0958321 0.00215994 0)
(0.0952699 0.00218666 0)
(0.0969384 0.00210792 0)
(0.0963879 0.00213335 0)
(0.0980223 0.0020561 0)
(0.0974824 0.00208167 0)
(0.0990857 0.00200595 6.28867e-29)
(0.0985573 0.00203186 0)
(0.100134 0.00195473 0)
(0.0996111 0.00197983 0)
(0.101165 0.00190619 3.19981e-26)
(0.100652 0.00193022 0)
(0.102178 0.00185909 0)
(0.101674 0.00188251 0)
(0.103175 0.00181294 0)
(0.102679 0.0018359 0)
(0.104157 0.0017677 0)
(0.103668 0.00179021 0)
(0.105124 0.00172328 0)
(0.104642 0.00174542 0)
(0.106076 0.00167818 0)
(0.105601 0.0017011 0)
(0.107015 0.00162496 3.469e-24)
(0.106547 0.00165245 -1.74605e-24)
(0.107485 0.00159829 -1.32381e-23)
(0.108148 0.000127925 -2.95481e-24)
(0.108519 0.0010672 1.23487e-23)
(0.10827 0.000599934 -9.44646e-24)
(0.108152 -0.000350586 0)
(0.107522 -0.00178217 -9.82996e-24)
(0.108455 -0.00175284 -2.83599e-23)
(0.10799 -0.00176839 2.2838e-23)
(0.106583 -0.00181091 0)
(0.107053 -0.00179589 0)
(0.105629 -0.0018279 -9.39198e-29)
(0.106107 -0.00181815 0)
(0.104664 -0.00184356 0)
(0.105148 -0.00183617 0)
(0.103684 -0.00185724 -5.98903e-26)
(0.104176 -0.00185049 0)
(0.102688 -0.00187098 0)
(0.103188 -0.00186403 0)
(0.101676 -0.00188579 0)
(0.102184 -0.00187821 0)
(0.100647 -0.0019023 6.4805e-26)
(0.101163 -0.00189383 0)
(0.0996004 -0.0019203 6.63072e-26)
(0.100126 -0.00191111 0)
(0.0985349 -0.00194103 0)
(0.0990699 -0.00193016 0)
(0.09745 -0.00196468 0)
(0.0979952 -0.00195267 0)
(0.0963441 -0.00199246 0)
(0.0968989 -0.00197769 0)
(0.095216 -0.00202243 0)
(0.0957832 -0.00200689 0)
(0.0940638 -0.00205732 -7.42725e-26)
(0.094643 -0.00203934 0)
(0.0928856 -0.00209658 0)
(0.0934781 -0.0020764 0)
(0.0916784 -0.00214079 0)
(0.0922858 -0.00211799 0)
(0.0904393 -0.00219135 -1.27852e-28)
(0.091063 -0.0021652 0)
(0.0891662 -0.00224977 1.44157e-28)
(0.0898074 -0.0022196 0)
(0.0878614 -0.00232556 8.27843e-26)
(0.0885147 -0.00228305 0)
(0.0865309 -0.00243655 -4.35455e-23)
(0.0871985 -0.00237578 1.07045e-23)
(0.0849097 -0.00184887 1.0957e-23)
(0.0858657 -0.002505 2.1768e-23)
(0.0848422 0.00111874 -1.95099e-23)
(0.0845855 -0.000406438 -2.08768e-23)
(0.108883 0.00152337 3.13574e-24)
(0.108922 -0.00174235 2.22864e-23)
(0.0847487 0.00187982 2.46017e-24)
(0.0842333 -0.00117413 0)
(0.0848591 0.00254365 2.6897e-22)
(0.0851938 -0.00257625 3.34693e-23)
(0.084211 -0.00191555 4.46702e-23)
(0.0865376 0.00351009 -4.42709e-22)
(0.0862927 0.00365402 8.12102e-23)
(0.0845352 0.000345162 0)
(0.0872967 0.00334921 4.49154e-23)
(0.08681 0.0034521 2.29308e-23)
(0.0885216 0.00324414 4.05378e-23)
(0.0878717 0.00328644 -6.18154e-23)
(0.0898009 0.00315196 -2.01512e-23)
(0.0891724 0.00319985 -1.00593e-23)
(0.0910285 0.00306734 1.00983e-23)
(0.0904191 0.00310838 1.02305e-23)
(0.0922286 0.00298808 0)
(0.0916297 0.00302611 -1.89454e-26)
(0.0933949 0.00291466 0)
(0.0928155 0.00295128 0)
(0.0945343 0.00284343 3.74697e-26)
(0.0939678 0.00287868 0)
(0.0956489 0.00277496 0)
(0.0950945 0.00280889 0)
(0.0967408 0.00270916 0)
(0.0961976 0.0027417 0)
(0.097811 0.00264595 0)
(0.0972785 0.00267722 0)
(0.0988605 0.00258434 3.43262e-26)
(0.0983381 0.00261483 0)
(0.0998908 0.00252442 6.82587e-29)
(0.0993781 0.00255455 0)
(0.100905 0.00246533 0)
(0.1004 0.00249454 0)
(0.101902 0.00240837 -6.39333e-26)
(0.101406 0.00243664 0)
(0.102884 0.00235304 0)
(0.102395 0.00238053 0)
(0.10385 0.00229907 0)
(0.103369 0.00232591 0)
(0.104801 0.00224627 0)
(0.104327 0.00227255 0)
(0.105737 0.00219435 0)
(0.105271 0.00222025 0)
(0.106659 0.00214187 0)
(0.1062 0.0021684 0)
(0.10757 0.00208718 -1.73241e-24)
(0.107115 0.00211368 0)
(0.108471 0.00202773 0)
(0.10802 0.00205754 -3.35562e-24)
(0.109363 0.00196653 -3.48904e-27)
(0.10892 0.00199784 0)
(0.108988 0.00104994 -1.25202e-23)
(0.109814 0.0019428 7.53502e-25)
(0.109348 0.00150417 6.12689e-24)
(0.108625 0.000118285 4.50797e-24)
(0.108746 0.000586652 -3.11142e-24)
(0.108764 -0.000818427 -1.56743e-24)
(0.108632 -0.000352567 1.5634e-24)
(0.109383 -0.00173187 0)
(0.109016 -0.00127996 -1.42015e-23)
(0.108966 -0.00220576 -6.37201e-24)
(0.109862 -0.00217587 -1.21999e-23)
(0.109415 -0.00219052 2.80178e-23)
(0.108067 -0.00224212 -3.34409e-24)
(0.108518 -0.00222415 0)
(0.107157 -0.00227332 0)
(0.107613 -0.00225743 0)
(0.106235 -0.00229816 -1.16389e-28)
(0.106698 -0.00228628 0)
(0.105299 -0.00232088 0)
(0.105769 -0.00230978 0)
(0.104349 -0.00234243 5.98903e-26)
(0.104826 -0.00233171 0)
(0.103383 -0.00236427 0)
(0.103868 -0.00235326 0)
(0.1024 -0.00238731 0)
(0.102893 -0.00237561 0)
(0.101402 -0.00241217 0)
(0.101903 -0.0023995 0)
(0.100386 -0.00243927 -1.33378e-28)
(0.100896 -0.00242542 0)
(0.0993524 -0.00246956 0)
(0.0998716 -0.00245396 0)
(0.0982996 -0.00250331 0)
(0.0988286 -0.00248605 0)
(0.0972268 -0.00254131 0)
(0.0977656 -0.00252166 0)
(0.0961324 -0.00258318 0)
(0.0966824 -0.00256165 0)
(0.0950146 -0.00263036 7.42725e-26)
(0.0955765 -0.00260611 0)
(0.0938719 -0.00268311 0)
(0.0944465 -0.00265602 0)
(0.0927019 -0.00274218 0)
(0.0932905 -0.00271179 0)
(0.0915022 -0.00280889 -7.89057e-26)
(0.0921058 -0.0027745 0)
(0.0902713 -0.00288425 8.03923e-26)
(0.0908908 -0.00284551 0)
(0.0890076 -0.00297005 -8.1849e-26)
(0.0896432 -0.00292561 0)
(0.0877217 -0.00307432 1.07571e-23)
(0.0883629 -0.00301741 -2.12198e-23)
(0.0864385 -0.00321256 -1.08342e-23)
(0.0870773 -0.00313819 2.2029e-23)
(0.0845093 -0.00264459 3.13127e-25)
(0.0857857 -0.00328752 2.22366e-23)
(0.084084 0.00109308 -2.00028e-23)
(0.0838455 -0.000444784 0)
(0.0839655 0.00182833 -1.93454e-22)
(0.0834988 -0.00122145 0)
(0.109963 0.00240304 -3.12579e-24)
(0.110386 0.00236862 2.28961e-24)
(0.109839 -0.00172169 -1.19975e-23)
(0.110303 -0.00215481 -1.35716e-23)
(0.0839182 0.00248665 -1.88166e-22)
(0.0835024 -0.00197828 -4.51071e-23)
(0.0853998 0.00364081 0)
(0.087976 0.00416918 -5.12898e-23)
(0.0838241 -0.00271386 -2.21435e-23)
(0.0851237 -0.00336067 3.36472e-23)
(0.0874092 0.0041627 1.02972e-22)
(0.0837877 0.000316506 0)
(0.0888774 0.00399407 0)
(0.0883948 0.00408483 -4.5689e-23)
(0.0900384 0.00386564 0)
(0.0894408 0.00392663 0)
(0.0912327 0.00375605 0)
(0.0906383 0.00380816 1.04216e-23)
(0.0923892 0.00365736 0)
(0.0918134 0.00370617 0)
(0.0935259 0.00356449 0)
(0.09296 0.00360953 0)
(0.094639 0.00347773 0)
(0.0940855 0.00352077 0)
(0.0957289 0.00339438 -3.74697e-26)
(0.0951868 0.0034356 0)
(0.0967967 0.00331456 0)
(0.0962655 0.00335407 0)
(0.0978435 0.00323804 0)
(0.0973227 0.00327591 0)
(0.0988703 0.00316452 0)
(0.0983594 0.00320094 0)
(0.099878 0.00309345 -8.24837e-29)
(0.0993764 0.00312868 0)
(0.100868 0.00302463 8.03666e-29)
(0.100375 0.0030589 0)
(0.101841 0.00295751 0)
(0.101357 0.00299077 0)
(0.1028 0.00289258 7.60045e-29)
(0.102322 0.00292481 0)
(0.103742 0.00282952 0)
(0.103273 0.00286084 0)
(0.104671 0.00276808 0)
(0.104208 0.00279863 0)
(0.105584 0.00270801 0)
(0.105129 0.00273791 0)
(0.106484 0.00264894 0)
(0.106036 0.0026784 0)
(0.107371 0.00258984 0)
(0.106929 0.00261949 0)
(0.108246 0.00253054 0)
(0.107809 0.00256026 0)
(0.109108 0.00246794 3.32396e-24)
(0.108677 0.00249802 3.40657e-24)
(0.109536 0.00243468 -6.37981e-24)
(0.10945 0.00103328 -6.14647e-24)
(0.110261 0.00191976 0)
(0.1098 0.00148047 -6.19839e-24)
(0.109095 0.000111004 0)
(0.10921 0.000575747 6.27286e-24)
(0.109231 -0.000816307 9.3637e-24)
(0.109101 -0.000354391 -3.16638e-24)
(0.109479 -0.00127248 -1.83927e-23)
(0.109593 -0.00264519 3.20247e-24)
(0.110443 -0.00259746 1.19073e-23)
(0.110024 -0.00262686 0)
(0.108732 -0.00268498 -6.6447e-24)
(0.109165 -0.00266618 6.6666e-24)
(0.107859 -0.00272038 0)
(0.108298 -0.00270362 0)
(0.106972 -0.0027522 -1.36835e-28)
(0.107417 -0.00273669 0)
(0.106072 -0.00278205 0)
(0.106524 -0.0027673 0)
(0.105157 -0.00281123 0)
(0.105616 -0.00279666 0)
(0.104227 -0.0028409 0)
(0.104694 -0.00282596 0)
(0.103282 -0.00287196 0)
(0.103757 -0.00285623 0)
(0.102321 -0.00290508 6.44155e-26)
(0.102803 -0.00288824 0)
(0.101343 -0.00294093 -6.61738e-26)
(0.101834 -0.00292263 0)
(0.100348 -0.00298037 0)
(0.100847 -0.00296017 0)
(0.0993342 -0.00302377 0)
(0.0998433 -0.00300157 0)
(0.0983016 -0.00307184 0)
(0.0988203 -0.00304719 0)
(0.0972486 -0.00312486 0)
(0.0977778 -0.00309769 0)
(0.0961735 -0.0031838 0)
(0.0967138 -0.00315357 0)
(0.0950749 -0.00324927 0)
(0.0956272 -0.00321569 0)
(0.0939512 -0.00332208 -7.70456e-26)
(0.0945163 -0.00328471 0)
(0.0928005 -0.00340337 7.85583e-26)
(0.0933793 -0.00336161 0)
(0.0916221 -0.00349401 -8.00369e-26)
(0.0922148 -0.00344753 0)
(0.0904154 -0.00359456 0)
(0.0910222 -0.00354301 0)
(0.0891807 -0.00370509 0)
(0.089801 -0.00364846 0)
(0.0879339 -0.00383057 8.52763e-26)
(0.08856 -0.00376539 1.08247e-23)
(0.0866767 -0.00398075 -5.63967e-23)
(0.0873008 -0.00390214 0)
(0.0844758 -0.00344237 -3.34223e-23)
(0.0860528 -0.00406379 -3.11245e-25)
(0.0833229 0.00106594 6.2535e-23)
(0.0830958 -0.000478637 0)
(0.110815 0.0023385 -1.19064e-23)
(0.110871 -0.00257845 -2.2954e-23)
(0.0830941 0.00176524 -3.30129e-23)
(0.0842495 0.00319987 1.09984e-24)
(0.0831296 0.00243277 9.39726e-23)
(0.0827637 -0.00125947 0)
(0.082777 -0.00202353 1.12839e-23)
(0.0863807 0.00413976 -9.67058e-23)
(0.0854367 0.00404894 8.24927e-23)
(0.0838473 0.00329337 -8.11664e-23)
(0.0831258 -0.0027737 -3.38888e-23)
(0.0838062 -0.0035188 2.26042e-23)
(0.08544 -0.0041599 2.21857e-23)
(0.0830305 0.000287908 0)
(0.0896036 0.00474792 2.87316e-24)
(0.0881489 0.00476733 5.0536e-25)
(0.0889442 0.00474687 2.24602e-23)
(0.0906184 0.00459517 2.21829e-23)
(0.0901134 0.00467798 -2.2298e-23)
(0.0917292 0.00444495 4.10813e-26)
(0.0911569 0.00451608 0)
(0.0928505 0.00432474 0)
(0.0922938 0.004382 0)
(0.0939469 0.00421506 0)
(0.0934012 0.00426928 0)
(0.0950236 0.00411153 0)
(0.0944877 0.00416229 0)
(0.0960789 0.00401363 3.80428e-26)
(0.0955539 0.00406211 0)
(0.0971134 0.00391965 0)
(0.0965986 0.00396615 0)
(0.098128 0.00382956 0)
(0.0976231 0.00387414 0)
(0.0991235 0.0037432 0)
(0.0986281 0.00378594 0)
(0.100101 0.00366025 0)
(0.0996143 0.00370133 0)
(0.10106 0.00358032 -3.42437e-26)
(0.100582 0.00361993 0)
(0.102003 0.00350313 9.33612e-29)
(0.101534 0.00354145 0)
(0.102931 0.00342828 0)
(0.102469 0.00346539 0)
(0.103844 0.00335582 6.36301e-26)
(0.103389 0.00339179 0)
(0.104742 0.00328546 0)
(0.104295 0.00332041 0)
(0.105627 0.00321694 0)
(0.105186 0.003251 0)
(0.106498 0.00314995 0)
(0.106064 0.00318329 0)
(0.107355 0.00308409 0)
(0.106928 0.00311692 0)
(0.1082 0.00301864 0)
(0.107779 0.00305138 0)
(0.109033 0.00295311 5.40377e-26)
(0.108618 0.00298592 0)
(0.109854 0.00288682 -3.33848e-24)
(0.109446 0.00292059 0)
(0.110662 0.00281451 3.17881e-24)
(0.110259 0.00285114 0)
(0.111464 0.00273889 3.02044e-24)
(0.111062 0.00277691 -3.09623e-24)
(0.110692 0.00189254 5.99638e-24)
(0.111866 0.00270307 0)
(0.11124 0.00230949 8.90855e-24)
(0.109899 0.00101687 0)
(0.110243 0.00145986 0)
(0.109556 0.000104734 0)
(0.109669 0.000563153 0)
(0.109688 -0.000812395 0)
(0.109562 -0.000355387 0)
(0.110284 -0.00170991 1.22274e-23)
(0.109931 -0.00126639 3.04456e-24)
(0.111289 -0.0025575 2.99212e-24)
(0.110738 -0.00213985 2.39275e-23)
(0.111135 -0.00301187 1.55256e-23)
(0.111935 -0.00295967 2.96448e-24)
(0.111534 -0.00298479 -6.03687e-24)
(0.110328 -0.00306373 3.19113e-24)
(0.11073 -0.00303719 -1.91389e-23)
(0.109509 -0.00310857 -1.31849e-28)
(0.109919 -0.00308623 0)
(0.108676 -0.00314856 0)
(0.109094 -0.00312852 0)
(0.10783 -0.00318707 -1.57432e-28)
(0.108255 -0.00316812 0)
(0.106972 -0.003224 0)
(0.107403 -0.00320567 0)
(0.106098 -0.00326056 0)
(0.106537 -0.00324227 0)
(0.105211 -0.00329779 0)
(0.105656 -0.00327905 0)
(0.104308 -0.00333658 0)
(0.104761 -0.00331696 0)
(0.10339 -0.00337771 -1.28652e-25)
(0.103851 -0.00335682 0)
(0.102456 -0.00342193 0)
(0.102925 -0.0033994 0)
(0.101506 -0.00347006 0)
(0.101983 -0.00344548 0)
(0.100539 -0.00352263 0)
(0.101025 -0.00349577 0)
(0.0995531 -0.00358033 0)
(0.100048 -0.00355081 0)
(0.0985483 -0.00364372 -7.21773e-26)
(0.0990532 -0.00361128 0)
(0.0975231 -0.00371365 0)
(0.0980383 -0.00367784 0)
(0.0964764 -0.00379084 0)
(0.0970025 -0.00375131 0)
(0.0954068 -0.00387609 7.70456e-26)
(0.0959445 -0.00383242 0)
(0.0943133 -0.00397032 -2.20201e-28)
(0.0948631 -0.00392205 0)
(0.0931955 -0.0040742 1.5985e-25)
(0.0937575 -0.00402105 0)
(0.0920531 -0.00418791 0)
(0.0926273 -0.00412985 0)
(0.0908861 -0.0043112 0)
(0.0914725 -0.00424823 0)
(0.0896964 -0.00444252 -2.52723e-28)
(0.0902944 -0.00437689 0)
(0.0884845 -0.00458561 0)
(0.0890921 -0.00451166 0)
(0.087297 -0.00475835 -3.35401e-23)
(0.0878867 -0.00466801 0)
(0.084808 -0.00425032 -3.038e-25)
(0.0867112 -0.00485682 5.69626e-23)
(0.0825212 0.00101913 0)
(0.0873341 0.00477562 1.3033e-22)
(0.0822913 0.00170856 2.25538e-23)
(0.112207 0.00312422 -3.01475e-24)
(0.112588 0.00308809 0)
(0.111707 -0.00253849 2.90811e-24)
(0.112328 -0.00293061 -5.77968e-24)
(0.0823426 -0.000510635 0)
(0.0820189 -0.00128901 0)
(0.0824757 0.0025043 0)
(0.0820444 -0.00206185 -1.11137e-23)
(0.0824199 -0.00283555 -2.23681e-23)
(0.083131 -0.00359938 0)
(0.0841633 -0.00434327 5.76082e-23)
(0.0861052 -0.00495683 -4.59455e-23)
(0.0822611 0.000254161 0)
(0.0902153 0.00536807 -1.08141e-26)
(0.0864823 0.00474037 4.09084e-23)
(0.0887736 0.00545173 -1.45821e-22)
(0.0894921 0.00542695 4.27258e-23)
(0.0914868 0.00529173 -1.38904e-23)
(0.0908695 0.00531192 -2.22688e-23)
(0.0925314 0.00515589 0)
(0.0920219 0.00523523 0)
(0.0935913 0.00499462 -4.10776e-26)
(0.093051 0.00507078 0)
(0.0946509 0.00486259 0)
(0.094125 0.00492623 0)
(0.0956851 0.00474197 0)
(0.0951707 0.00480139 0)
(0.0966987 0.00462821 0)
(0.0961944 0.00468424 0)
(0.0976921 0.00452015 -3.80428e-26)
(0.0971979 0.00457361 0)
(0.0986666 0.0044165 0)
(0.0981817 0.0044678 0)
(0.0996229 0.00431709 0)
(0.0991469 0.00436628 0)
(0.100562 0.00422174 0)
(0.100094 0.00426893 0)
(0.101484 0.00413018 0)
(0.101025 0.00417552 0)
(0.10239 0.00404207 3.40397e-26)
(0.101939 0.00408572 0)
(0.103281 0.00395709 1.05648e-28)