/*--------------------------------*- C++ -*----------------------------------*\
  =========                 |
  \\      /  F ield         | OpenFOAM: The Open Source CFD Toolbox
   \\    /   O peration     | Website:  https://openfoam.org
    \\  /    A nd           | Version:  10
     \\/     M anipulation  |
\*---------------------------------------------------------------------------*/
FoamFile
{
    format      ascii;
    class       surfaceScalarField;
    location    "31";
    object      phi;
}
// * * * * * * * * * * * * * * * * * * * * * * * * * * * * * * * * * * * * * //

dimensions      [0 3 -1 0 0 0 0];

internalField   nonuniform List<scalar> 
17221
(
0.0847848
-0.0271333
-0.0700708
0.0124192
0.0003594
0.0775224
0.006903
0.0664873
-0.0205366
-0.0730839
0.0824353
-0.00792326
-0.0750542
0.00054213
0.0154174
0.0733681
-0.00635018
0.0691565
0.0180504
-0.0717895
0.000319224
-0.00421258
0.0695555
-0.0656621
-0.00737902
-0.067621
0.0753192
0.00528961
-0.0423971
0.0050164
0.0320911
-0.0430186
0.0113171
0.0369911
0.00327381
0.0424031
-0.0504613
0.00478439
-0.0459426
0.0492165
-0.0454484
0.0584805
-0.0569879
0.0439558
0.0605101
-0.0282119
-0.0777466
0.0806187
0.0593374
-0.054955
-0.0850012
0.0504637
0.0004422
0.0297129
0.018757
0.0607114
-0.0726116
-0.0068567
0.00915831
0.0527507
-0.043152
-0.0462838
-0.00753152
0.0629736
-0.0305188
-0.060749
0.0751793
0.0160885
-0.0676013
0.00169713
0.0353853
0.0450142
0.0464513
-0.0520305
-0.039435
0.102087
-0.066548
0.0094755
-0.0307188
0.0109442
0.0862619
-0.110744
-0.0582252
0.083673
0.0852958
-0.0464605
0.0292276
-0.0935108
0.0991319
-0.0948876
-0.0507047
0.0857276
-0.0448209
-0.0257041
-0.0455838
0.0119182
0.0593697
-0.0121415
-0.0502927
0.0367301
-0.0569672
0.00288693
0.0419387
-0.119747
-0.00615023
0.0847494
0.0411479
0.0199334
-0.110485
-0.0291953
0.125883
0.0181305
-0.12408
0.0075701
0.112162
0.066489
-5.75234e-05
-0.019095
-0.0473365
0.0116451
0.067262
-0.0124181
-0.0417122
0.0411388
0.0638357
-0.0632623
0.102487
-0.0793016
-0.0249915
0.00180605
0.0713546
-0.0105797
0.0349212
0.0938297
-0.0377143
0.0238731
-0.00060262
-0.00737391
0.00797653
0.00249404
-0.00782419
0.00472753
0.0967877
-0.0442264
-0.0525613
-0.0618969
0.050615
0.10807
0.00927757
-0.000558378
-0.0127836
0.00406441
-0.00140031
-0.00520365
0.0158815
-0.00280611
0.000847426
0.0433864
0.0766942
-0.0669186
-0.0531619
0.0603257
-0.0797441
0.0628047
-0.0295288
0.0505367
0.0393178
-0.0148492
0.0620146
-0.0819154
0.0161616
0.0675111
-0.00175733
-0.0727549
-0.00913643
-2.40616e-05
-0.00959166
-0.0650478
0.00188462
-0.0622285
0.0347743
0.0627597
-0.0353056
0.0379958
-0.0665215
-0.0337027
-0.0516832
0.053068
-0.0406011
0.0392163
0.0457627
-0.0626715
-0.0791306
-0.0226124
0.0734725
0.0282705
-0.0274298
-0.0772663
0.0255655
0.0738984
-0.0335591
-0.0674467
0.0271074
-0.027971
0.0744397
0.0070704
-0.058114
0.00262952
0.0484141
0.0631375
0.000329547
-0.0563966
0.069725
-0.0108001
-0.0994921
0.00293044
0.0351962
0.0613654
-0.00304733
-0.106209
0.00976402
-0.000934812
0.0999742
0.0278646
-0.0593947
-0.0294132
0.0609433
-0.0642668
0.0631443
0.0289871
-0.0276222
-0.0634574
0.0316849
-0.0613865
-0.0300588
0.0638231
0.0132587
0.05898
-0.0126449
-0.0595939
0.0578108
-0.0612337
0.0166816
-0.0135548
0.0601732
0.0123616
-0.0116784
0.0584501
-0.0603265
0.0259398
-0.0856972
-0.0795792
-0.0208968
0.0211708
0.0793052
-0.0852467
0.0334727
-0.0278052
-0.00892444
-0.0693196
0.00659336
0.0716507
-0.0700438
0.0733273
-0.0122079
0.0895836
-0.0752111
0.0115672
0.0925011
0.00684652
0.074895
-0.0479903
0.0552213
-0.053223
0.0459919
0.0504777
-0.0462815
-0.0521865
-0.0318232
0.0482625
-0.04825
0.0318107
0.0512794
-0.0336558
-0.0494468
0.0815295
-0.0510071
-0.040114
0.0703631
0.00202996
0.000490574
-0.00284496
-0.0626934
0.0252826
0.0764276
-0.0303122
-0.071398
0.0204163
0.0747082
-0.069842
-0.0480454
-0.019706
0.0542723
0.0134791
-0.00819592
0.0414534
-0.0813029
0.0587628
0.00282396
-0.0697827
0.0430729
-0.00401612
-0.0120478
-0.0622287
0.0707936
0.00348284
-0.0385426
0.0807672
0.0665042
0.00391727
-0.00593782
-0.0644836
0.0056906
0.0680047
-0.00719117
0.0574353
-0.0373949
0.0404697
0.0549391
-0.0338628
0.036359
0.0544377
-0.0253334
0.0258348
0.0529747
-0.0129716
0.0144345
0.055353
-0.00375106
0.00137277
0.0560504
0.0106242
-0.0113215
0.0582094
0.0188409
-0.0209999
0.0589227
0.0271661
-0.0278795
0.0612773
0.0320139
-0.0343685
0.0607686
0.0354849
-0.0349763
0.0629442
0.0360675
-0.038243
0.0634142
0.0372344
-0.0377045
0.0633697
0.0353061
-0.0352615
0.0630571
0.0355117
-0.0351992
0.0348895
0.0638385
-0.0356709
0.0639223
-0.0636767
0.0346438
0.035019
-0.032567
0.0354839
0.0637118
-0.0624993
0.0340936
0.0355468
0.0622123
-0.0612133
0.0350685
0.0369474
0.0598965
-0.0578132
0.0299306
0.034168
0.0562979
-0.0550903
0.0176333
0.0256508
0.0531236
-0.0537694
-0.00310523
0.00865748
0.0522152
-0.0535287
-0.0240199
-0.0145258
0.0553559
-0.0607224
-0.0320284
-0.0320356
-0.0358663
-0.0572261
0.0564909
0.0370941
0.0417241
-0.0565488
0.057022
0.0139614
0.0257769
-0.0574192
0.0579266
-0.011829
0.000975574
-0.0605779
0.0621853
-0.0294868
-0.0236512
-0.0616616
0.0651144
-0.038429
-0.0338448
-0.0650306
0.0628966
-0.0355706
-0.0381592
-0.0628176
0.0626853
-0.0350669
-0.0351825
-0.0627654
0.0635409
-0.0333424
-0.035751
0.0626184
-0.0291363
0.0559834
-0.0487511
0.0385303
-0.0275274
0.0619373
-0.0634541
0.0308722
0.063806
-0.028715
0.0418444
-0.0665201
0.0494733
0.0637021
-0.065994
0.0369356
0.0357319
0.0638889
-0.0655679
0.0357727
0.0334417
0.0616301
-0.0618134
0.0352518
0.0330096
0.0598911
-0.0579466
0.0279862
0.0322457
0.0551327
-0.0542318
0.0167324
0.0228369
0.0521232
-0.0512173
-0.00401116
0.00654883
0.0519515
-0.0523668
-0.0236047
-0.0137915
0.0551885
-0.0546519
-0.032565
-0.0292138
0.0559235
-0.0337649
-0.0345947
-0.0249948
0.023764
0.0631681
-0.0247856
0.0635967
-0.0594869
0.0592597
0.0441829
0.0452077
-0.0587358
0.0601877
0.0356423
0.0422481
-0.0597699
0.0595717
0.0141596
0.0261947
-0.0614257
0.0628677
-0.013271
-0.000878389
-0.0634706
0.0670801
-0.0330964
-0.0242541
-0.0656615
0.0676073
-0.0403748
-0.0324261
-0.0667193
0.067329
-0.0361803
-0.0372712
-0.0641931
0.0647645
-0.0356382
-0.0320466
-0.0616837
0.0632455
-0.0349042
-0.0326703
-0.0655775
0.064109
-0.0272465
-0.0314683
-0.0140069
0.0586259
0.0185253
0.0707004
-0.0531881
-0.022091
0.0614145
0.0403221
-0.0418997
-0.0649439
0.0372176
-0.0634156
-0.0621671
0.0634625
-0.0349981
-0.0635137
-0.0405531
0.0622908
-0.0372239
-0.0305986
0.0649183
-0.0619275
0.0432289
0.0463289
-0.0467603
-0.0517551
-0.0518758
0.0449817
0.0637639
-0.0660297
0.033138
0.0308235
0.06554
-0.066218
0.0376136
0.0352422
0.0641212
-0.0643854
0.0360369
0.031345
0.0617368
-0.0613034
0.0348183
0.0303611
0.0569402
-0.0579306
0.0289766
0.0278825
0.054794
-0.05289
0.0148284
0.0197003
0.0514909
-0.0505324
-0.00496969
0.00514977
0.0512384
-0.0510654
-0.0237778
-0.0130856
0.0549466
-0.0549705
-0.0325411
-0.0253326
0.0599116
-0.0617623
-0.0319141
-0.0296536
-0.0336055
0.0604372
-0.0607149
-0.0269689
0.061369
-0.0230229
-0.0531819
0.0581379
0.0410359
0.0434081
-0.0433649
-0.051919
0.0526245
0.0426536
-0.0518701
0.0444244
-0.0616908
0.0598876
0.0459861
0.0416548
-0.0648078
0.063136
0.037314
0.0373279
-0.0638894
0.0651299
0.012919
0.0254414
-0.0658648
0.0681081
-0.0155143
-0.0016133
-0.0678865
0.0697174
-0.0349273
-0.0240325
-0.0698121
0.0694532
-0.0400159
-0.0325208
-0.065443
0.0677844
-0.0385217
-0.033261
-0.0667966
0.0667751
-0.0356167
-0.0310587
-0.0631241
0.0623919
-0.0341721
-0.0290193
-0.0297912
0.0238149
-0.023329
0.0626822
0.0639168
0.0213471
-0.0193364
0.0594039
0.0616147
-0.0627309
-0.0471937
0.0398371
-0.0575874
-0.0449239
-0.0657834
-0.0174636
0.0384213
-0.0658816
-0.0673058
-0.0159412
-0.0597957
0.0355778
-0.0177299
0.0597626
-0.0382641
-0.0568559
0.0407338
-0.0643123
-0.0499511
0.0557131
0.0368916
0.0421229
-0.0436662
-0.0503269
-0.0494548
0.0416267
-0.0406526
-0.0549326
0.0420054
-0.0611714
0.0338988
-0.0667067
-0.034498
0.0350708
-0.0670536
-0.0387847
0.0386624
-0.0665844
-0.0534908
0.0649104
-0.0502043
0.0299721
-0.0329992
0.0678755
-0.0693603
0.0346227
0.0389033
0.0689359
-0.0668864
0.0355641
0.0348178
0.065852
-0.0643879
0.0345728
0.0303105
0.0628489
-0.0607752
0.0327447
0.028822
0.0587932
-0.0563541
0.0265376
0.0259004
0.0542735
-0.0525476
0.0131026
0.0176197
0.0507474
-0.0499283
-0.00578879
0.00334955
0.0502392
-0.0516273
-0.0223897
-0.0127746
0.0537027
-0.0565698
-0.029674
-0.0232572
0.0602245
-0.0610719
-0.0310668
-0.0259989
0.0644326
-0.0674686
-0.0319621
-0.0302448
0.0752724
-0.0632996
-0.0279141
-0.0327493
-0.0328871
-0.0605206
0.0627643
0.0387922
0.0396169
-0.0631371
0.0649437
0.0441796
0.041282
-0.0656204
0.0653345
0.0376
0.0366511
-0.0684278
0.069259
0.0120878
0.0223481
-0.0705758
0.0727184
-0.0176569
-0.00293011
-0.0724957
0.0726672
-0.0350988
-0.0238097
-0.0722417
0.0712432
-0.0390174
-0.0320953
-0.0701482
0.0687229
-0.0370963
-0.0321661
-0.0674674
0.0658984
-0.0340477
-0.0298033
-0.0643907
0.0615138
-0.0312952
-0.0275116
-0.0612142
0.0614783
-0.027233
-0.0294915
-0.060307
0.0590279
-0.0164509
-0.0218515
0.0185065
-0.0206589
0.0670708
0.0703337
0.0199147
-0.0180425
0.06081
0.0631725
0.0162175
-0.0148878
0.0580742
0.0597897
0.0125765
-0.0116814
0.0581329
0.0574512
-0.0602612
0.0388242
-0.0378717
0.0376319
0.0602807
-0.0597238
-0.0170077
0.0582654
-0.00966621
-0.0405772
-0.0569313
0.0387031
-0.0610099
-0.0857411
0.0673023
-0.0317656
-0.0296899
0.0032863
-0.0405355
-0.0522688
0.037564
-0.0636646
0.0358269
-0.0642181
0.0301582
-0.0667706
0.0729855
-0.0713216
0.0339139
0.0228266
0.0689705
-0.0697898
0.035442
0.0365522
0.0688686
-0.0675831
0.0342786
0.0338967
0.0662416
-0.0645058
0.032837
0.0289691
0.0627502
-0.0604707
0.0304652
0.0270664
0.0583444
-0.0558084
0.0240016
0.0237741
0.0537125
-0.0515803
0.0109703
0.0155238
0.0502943
-0.0497232
-0.00635984
0.00206356
0.0501805
-0.0518273
-0.0207429
-0.0123173
0.0540151
-0.0570542
-0.0266349
-0.0210694
0.0595906
-0.0620822
-0.0285752
-0.0234625
0.0656184
-0.0678841
-0.0296964
-0.0267086
0.0700655
-0.0683141
-0.0296655
-0.0305678
-0.0338989
-0.0476024
0.0515436
0.0336907
0.0396951
-0.0293566
-0.0585884
0.0453755
-0.0273717
0.0216913
0.0295838
-0.0585796
0.0602111
0.0352601
0.0345907
-0.063226
0.0649758
0.0370425
0.0366019
-0.0655545
0.0670403
0.0426937
0.0407033
-0.0682286
0.0699146
0.035914
0.0354628
-0.071444
0.0733317
0.0102001
0.0208186
-0.0747349
0.0758315
-0.0187535
-0.00433332
-0.0760325
0.0755011
-0.0345673
-0.0240108
-0.0745289
0.0729538
-0.0374423
-0.0311232
-0.0714592
0.0696064
-0.0352436
-0.0306714
-0.0680818
0.0662308
-0.0321967
-0.0282787
-0.0657008
0.0620963
-0.0276908
-0.0269816
-0.059989
0.0588442
-0.0260882
-0.0273842
-0.0227312
-0.0135938
0.0140294
0.0730368
0.0119455
-0.0109518
0.0660771
0.0686854
0.0099609
-0.0105844
0.0614336
0.0621816
0.00936602
-0.00841182
0.05712
0.0585713
0.00768181
-0.00612261
0.0565737
0.0567212
-0.00389869
0.0560415
-0.0621354
0.063377
-0.0855669
0.0504605
-0.013334
0.0907404
0.00800889
-0.00320785
-0.0321728
-0.0763541
0.0163526
-0.0390529
-0.0584138
0.0392299
-0.0626758
-0.0342793
-0.0516453
0.037615
-0.0654526
-0.0565396
0.00131524
0.0571634
-0.00193909
-0.0305329
-0.0482706
0.0370877
-0.0711476
-0.0194417
-0.0311379
0.0304498
-0.0967782
0.0451806
-0.00805403
-0.0633412
0.00290293
0.0792408
-0.0740587
0.0287318
0.0257133
0.0727382
-0.0711726
0.0338764
0.0352318
0.0697075
-0.0682525
0.0328236
0.0324316
0.0666773
-0.0646967
0.0308563
0.0273938
0.0627861
-0.0603345
0.0280136
0.0251559
0.0581106
-0.0554997
0.0213907
0.0215503
0.0534192
-0.0513821
0.00893325
0.0134433
0.0502429
-0.0498814
-0.0067213
0.000924354
0.0505402
-0.052428
-0.0188552
-0.0116586
0.0547458
-0.0577607
-0.02362
-0.0187516
0.0601333
-0.062575
-0.0261335
-0.0210899
0.0655574
-0.0659072
-0.0293466
-0.0237262
0.0701943
-0.067722
-0.0321378
-0.0262807
0.0732929
-0.0756407
-0.0294178
-0.0283279
0.0711807
-0.0864649
-0.0396708
-0.0341499
-0.0389778
0.0451288
0.0155403
-0.0465512
0.00436554
-0.0483022
0.0533629
0.02863
0.0264104
-0.0581391
0.0618719
0.0315273
0.0298146
-0.0638232
0.06265
0.0382157
0.0346506
-0.068595
0.0690019
0.0422868
0.0347583
-0.0707378
0.0730574
0.0335943
0.033727
-0.0750652
0.0773115
0.00795384
0.0188109
-0.0787398
0.0795113
-0.0195251
-0.00576159
-0.0792664
0.0780706
-0.0333715
-0.0237658
-0.0765781
0.0744843
-0.0353484
-0.0296307
-0.07264
0.0704514
-0.033055
-0.0288272
-0.0687095
0.0667122
-0.0301994
-0.0265367
-0.0639307
0.0639856
-0.0277457
-0.0242001
-0.0592178
0.0579601
-0.0248305
-0.0226163
-0.0572718
0.0596973
-0.0194332
-0.0220429
-0.0133101
-0.0442426
0.0454075
-0.0861661
-0.090299
-0.0404086
0.00215935
-0.00278346
0.0736609
-0.0249541
0.000171493
0.0699631
0.0679457
0.0029475
-0.00232252
0.0654521
0.0688494
0.00302354
-0.00293476
0.0613448
0.0628826
0.00157052
-0.00190508
0.0574546
0.0572071
0.00172518
-0.000978395
0.0558269
0.0565413
0.0563784
-0.0619584
-0.0374455
-0.0552476
0.0388809
-0.0639417
0.00235655
-0.00274309
0.05755
-0.0542759
0.000141868
0.057037
-0.000586381
0.0580408
-0.0550979
-0.0322778
-0.0499003
0.0384024
-0.0667674
-0.0244241
-0.0432881
0.0344973
-0.075195
-0.0163719
-0.0469388
0.0289505
-0.0803212
-0.00207616
-0.00125798
-0.0432171
0.035956
-0.0324588
-0.0937961
0.035713
-0.0859231
-0.065807
-0.0033411
0.00650787
0.0700486
0.0093615
-0.00941908
-0.0800687
0.0801263
0.0765654
-0.0767978
0.016585
0.00270433
0.0771149
-0.0769151
0.028532
0.0260304
0.0727816
-0.0736388
0.0347337
0.0310982
0.0698461
-0.0688261
0.0318035
0.0286389
0.0670863
-0.0649126
0.0286827
0.025654
0.0628909
-0.0603144
0.0254371
0.0231341
0.0580347
-0.0553969
0.0187529
0.0192706
0.0533618
-0.0514547
0.00702622
0.0114081
0.0504926
-0.0503766
-0.00683731
-3.7764e-05
0.0512673
-0.0533601
-0.0167623
-0.0107679
0.0556942
-0.0585251
-0.0207891
-0.0164175
0.0606966
-0.0630263
-0.0238038
-0.0189184
0.0650375
-0.0675278
-0.0268563
-0.021715
0.0698545
-0.0727472
-0.0292451
-0.023954
0.0748331
-0.0762549
-0.027996
-0.026242
0.078621
-0.0857803
-0.0325115
-0.0317838
0.0938108
-0.0977079
-0.0285617
-0.032378
-0.0279668
0.0267794
-0.0926087
0.112996
0.027712
-0.0733376
-0.0673702
-0.012679
-0.0441522
0.046397
0.0132956
0.0446233
-0.0449371
-0.00176232
0.0048366
-0.0522361
0.057515
0.0233511
0.0205712
-0.0598359
0.0612972
0.030066
0.0274937
-0.0654387
0.0665276
0.0371267
0.0305091
-0.0683361
0.0707238
0.0398991
0.0329498
-0.0730072
0.075961
0.0306406
0.0314436
-0.0784586
0.0810225
0.00538998
0.0163133
-0.0824001
0.0827654
-0.0198904
-0.00713922
-0.0820316
0.0802132
-0.0315531
-0.023032
-0.0782516
0.075724
-0.0328209
-0.0276691
-0.0736079
0.071183
-0.0306301
-0.0267111
-0.0692688
0.0671291
-0.0280596
-0.0246226
-0.065366
0.0631781
-0.0255578
-0.022437
-0.0611459
0.0597546
-0.0234392
-0.0205841
-0.0567432
0.0547877
-0.0174778
-0.0190315
-0.0127983
-0.00186013
0.00623185
0.0692892
0.0725934
-0.00650028
0.0046326
0.0673198
0.068581
-0.00540475
0.00518338
0.0615662
0.0621105
-0.00485632
0.00444151
0.0578694
0.0575342
-0.00464265
0.00463994
0.0558296
0.0563402
0.0582752
-0.0605231
-0.0737191
0.000334202
0.0577613
-0.0546767
-0.00294276
0.0571251
4.9894e-05
-0.0346346
-0.0528908
0.0368685
-0.0624078
-0.0274395
-0.046885
0.0349056
-0.0671757
-0.0162471
-0.0434129
0.0327888
-0.0790333
-0.00465102
-0.0435457
0.00906462
-0.0464557
-0.00754603
0.0105815
-0.044734
0.0314978
-0.076106
0.0220335
-0.0811772
0.016293
-0.0811897
0.0096948
-0.0736709
-0.0787856
0.0971944
-0.00565268
-0.0127561
-0.0827677
-0.00543692
-0.00274624
-0.00115143
-0.076171
0.07916
-0.0790502
0.0164752
0.00814523
0.0782824
-0.0778059
0.0280555
0.0252626
0.075591
-0.0734189
0.0325616
0.0288833
0.0714953
-0.0693232
0.0296314
0.0267153
0.0674308
-0.0651148
0.0263667
0.0237616
0.063018
-0.0603789
0.022798
0.0210373
0.0580876
-0.055479
0.0161443
0.0169794
0.0535248
-0.0517921
0.00529356
0.00945385
0.0510453
-0.0512397
-0.00664291
-0.000784541
0.0523731
-0.0545996
-0.0145358
-0.00963452
0.0568351
-0.0593749
-0.0182492
-0.0141819
0.0613175
-0.0635037
-0.0216176
-0.0169759
0.0654658
-0.0679415
-0.0243806
-0.019753
0.0701721
-0.0729383
-0.0264789
-0.0217234
0.0757584
-0.0757178
-0.0280366
-0.0234219
0.0823037
-0.0876394
-0.0271758
-0.025198
0.0929926
-0.0994665
-0.0220878
-0.0270249
-0.0149511
-0.0471311
0.0460235
-0.000654691
-0.0118408
0.0150567
-0.0496716
0.0502178
-0.0531523
-0.00890624
-0.00445939
-0.046389
0.0489228
0.0107618
0.00447112
-0.0541328
0.0558506
0.0216333
0.0153613
-0.0601873
0.0609734
0.0292798
0.023157
-0.0645784
0.0670642
0.0346409
0.0269042
-0.0692616
0.0721791
0.0369816
0.0307524
-0.0749583
0.0785864
0.0270124
0.0286644
-0.0815514
0.084321
0.00262038
0.0133483
-0.0855284
0.0853917
-0.0197537
-0.00834662
-0.0841541
0.0817811
-0.0291801
-0.0217944
-0.0794502
0.0766097
-0.0299804
-0.0253382
-0.0743226
0.0717627
-0.0280702
-0.024424
-0.0697611
0.0675504
-0.0258489
-0.022621
-0.0657706
0.0636408
-0.023428
-0.0206573
-0.0617412
0.0593886
-0.0210866
-0.0186845
-0.0579602
0.0554524
-0.01497
-0.0176031
-0.0120226
-0.0187287
0.016337
0.0724404
0.0204368
-0.0184017
0.0712921
0.0733588
-0.0152018
0.0139794
0.0705116
0.0737286
-0.0138808
0.0136201
0.0675805
0.0686796
-0.0132288
0.0126849
0.06211
0.0625018
-0.0120162
0.0112054
0.0586802
0.0582029
-0.0105811
0.0100515
0.0563592
0.0569645
-0.00939978
0.0083346
0.0586152
0.0589269
-0.00760408
0.0590936
0.00563551
0.0587713
-0.0582892
-0.0296371
-0.0506931
0.0325971
-0.0600993
-0.0187595
-0.0443726
0.0283518
-0.0627388
0.0121366
-0.0133099
0.0602669
0.0590047
-0.0585102
0.00514103
0.0605219
0.0106194
-0.00478509
-0.0432788
0.00839461
-0.0413588
0.0164868
-0.0461641
0.0148288
-0.0558778
-0.0121034
0.0181956
-0.0530384
-0.0680722
0.0205367
0.01742
-0.0714925
0.00703385
-0.0719181
-0.0016052
-0.0698897
-0.00914751
-0.0672696
0.0709363
-0.0777656
-0.0115724
-0.0818942
-0.00202489
0.00618859
-0.0147314
-0.0676282
0.00670637
-0.082412
-0.027374
0.025369
0.0732971
0.0695608
-0.0259985
0.0807209
-0.0798352
-0.000551503
-0.00925254
0.0797801
-0.0802023
0.0168973
0.00809019
0.0782881
-0.0794139
0.0291813
0.0233484
0.0764258
-0.0740278
0.0301636
0.0258952
0.0719637
-0.0696569
0.0273245
0.0246511
0.0676797
-0.0652881
0.0239751
0.0217845
0.0631562
-0.060509
0.0201508
0.0189054
0.0582433
-0.0557108
0.0136118
0.0147136
0.0538832
-0.0523957
0.00380605
0.00762628
0.0519317
-0.0524818
-0.00609281
-0.00124854
0.0538128
-0.0560107
-0.0123379
-0.00830351
0.0580003
-0.0601648
-0.0160847
-0.0121924
0.061877
-0.0639304
-0.0195641
-0.0152637
0.065819
-0.0681738
-0.0220258
-0.0178644
0.0702786
-0.0729233
-0.0238342
-0.0196186
0.0754209
-0.0785279
-0.0249295
-0.0209243
0.0823018
-0.0855529
-0.0239246
-0.0214241
0.0909129
-0.0926655
-0.0203352
-0.021665
0.0916417
-0.0878085
-0.00948587
-0.0159749
0.0869405
-0.0857421
-0.00322332
-0.00630492
-0.056544
0.0532293
-0.00559154
-0.0139254
0.0173693
-0.0593217
0.0585421
-0.0601962
-0.0122713
-0.0101052
-0.0501393
0.0486664
0.000818194
-0.00136941
-0.0482536
0.0498615
0.00915385
0.00488389
-0.0522931
0.0546907
0.0192357
0.0129297
-0.0586125
0.0617419
0.0261504
0.0192353
-0.0642013
0.0670911
0.031751
0.0244448
-0.0697147
0.0732621
0.0334342
0.0281288
-0.0766574
0.0809833
0.0226864
0.0252691
-0.0843051
0.0870966
-0.000171039
0.0100265
-0.0879514
0.0872158
-0.0190181
-0.00920148
-0.0854958
0.0826875
-0.0263718
-0.0200744
-0.0801187
0.0771158
-0.0269774
-0.0227694
-0.0747639
0.072172
-0.0254782
-0.0220721
-0.070155
0.0679331
-0.0236269
-0.020604
-0.0661752
0.0641132
-0.021366
-0.0188994
-0.0630333
0.0596851
-0.0177385
-0.0176045
-0.0578701
0.0563103
-0.0134101
-0.015788
-0.0553422
0.0575769
-0.00517745
-0.0110546
-0.000883415
-0.0241247
0.0236509
0.0729142
0.0746031
-0.0221346
0.0208215
0.0718248
0.0752449
-0.0208071
0.020443
0.0679445
0.068694
-0.0198537
0.0190616
0.0629021
0.0630911
-0.0181341
0.0170374
0.0597769
0.0591304
-0.0161094
0.0154553
0.0570133
0.0578925
-0.015017
0.0153086
0.0583236
0.0593653
0.06077
-0.0553292
-0.0805381
0.00150245
-0.00226529
-0.0224703
-0.0576765
-0.0616874
-0.021116
-0.0216484
-0.0478041
0.0251467
-0.0568942
0.0158782
-0.0165675
0.0609562
0.0159984
0.0604017
-0.00730555
-0.0418522
0.00627803
-0.0411622
0.0179987
-0.0428707
0.0218127
-0.0497812
0.0204674
-0.0561364
0.0174927
-0.062412
-0.015277
0.0191482
-0.0609771
-0.0616337
0.0109815
-0.000347023
-0.0641116
-0.00937254
-0.0641508
-0.0152063
-0.0638309
-0.0197018
-0.0622992
-0.0254561
-0.0646424
-0.0357097
0.0303949
0.0786119
-0.0468901
0.0807412
0.0808093
-0.0820407
-0.0103409
-0.0593292
0.0606208
0.00932781
-0.0590087
0.00482057
0.0548831
-7.23768e-05
0.0183095
-0.0605115
0.0829101
-0.0837835
0.000321803
-0.00838314
0.0833744
-0.0836763
0.0171992
0.00768116
0.0812268
-0.0789226
0.0268772
0.0208989
0.0767957
-0.074298
0.0276659
0.0237682
0.0721885
-0.0698127
0.0249488
0.0225416
0.0678047
-0.0653869
0.0215573
0.0197765
0.0632436
-0.0606204
0.0175276
0.0167621
0.0584131
-0.0560277
0.0112264
0.0125064
0.0544177
-0.0532967
0.00268506
0.00601629
0.0531897
-0.0540669
-0.00521557
-0.00135557
0.0554603
-0.0574251
-0.0103731
-0.00691013
0.0590688
-0.0608667
-0.0142867
-0.0105488
0.0623963
-0.0643274
-0.0176329
-0.0137342
0.0661034
-0.0682887
-0.0198406
-0.0160884
0.0702481
-0.0727163
-0.0213659
-0.0176592
0.0750007
-0.0778913
-0.0220389
-0.0186399
0.0805825
-0.0831121
-0.0213949
-0.018733
0.0873596
-0.0891303
-0.0185645
-0.0174175
0.0911676
-0.0903146
-0.0103389
-0.0139377
0.090019
-0.0899796
-0.0032628
-0.00660044
-0.03282
-0.0865439
0.0830344
-0.100474
-0.00367637
-0.00544266
-0.0618827
0.0601205
-0.0105091
-0.0178583
0.0205346
-0.0650883
0.0634999
-0.0658205
-0.0155377
-0.0136598
-0.0574848
0.05512
-0.00322671
-0.00746953
-0.0541142
0.0523683
0.00256416
-0.000363653
-0.0511226
0.0516855
0.00859094
0.00612952
-0.0528989
0.0553559
0.0167787
0.0117163
-0.0577721
0.0608096
0.0231128
0.0168191
-0.0634746
0.0668454
0.0283802
0.0217799
-0.0700044
0.0743341
0.0291045
0.0249698
-0.0784098
0.0833178
0.0177784
0.0211935
-0.0867459
0.0891515
-0.00257655
0.00659836
-0.0894764
0.0881058
-0.0176474
-0.00952647
-0.0859991
0.0829425
-0.0233153
-0.0179677
-0.0802966
0.0772884
-0.0239693
-0.0201234
-0.0749657
0.0724269
-0.0229395
-0.0197494
-0.0704534
0.0682694
-0.0214429
-0.0186305
-0.0665617
0.0646317
-0.019436
-0.0171917
-0.0622962
0.0614559
-0.0168982
-0.0152689
-0.0596269
0.0576554
-0.0114386
-0.0139591
-0.0569377
0.0579771
-0.00621687
-0.0103369
-0.00191503
-0.0281355
0.02619
0.0748598
0.0768625
-0.0262732
0.0267454
0.0713526
0.0751616
-0.0258376
0.0255278
0.0682543
0.0696018
-0.0249063
0.0240119
0.0637965
0.0637126
-0.0229518
0.0216932
0.0610355
0.0601904
-0.0212439
0.0183584
0.0598988
0.0583418
-0.0182137
0.0174042
0.0591331
0.05951
0.0616067
-0.051831
0.0174544
0.0591648
-0.0107685
-0.0443412
0.00469169
-0.0402658
0.0180281
-0.0411917
0.0243668
-0.0454248
0.0235222
-0.052836
0.0222184
-0.0592066
-0.0568877
-0.00509305
-0.0148905
-0.0585936
-0.0223209
-0.0570361
-0.0268362
-0.0566965
0.0224624
-0.0629049
0.0196213
-0.0680815
-0.0173603
0.0237751
-0.0692421
-0.0297417
-0.0580136
-0.0295423
-0.0679201
-0.016533
-0.0898348
0.00589374
-0.0772536
0.0145002
-0.0530849
-0.0236208
-0.0794561
0.00535039
-0.0548804
-0.0241822
0.0455055
0.0134581
-0.0347814
0.0836452
-0.0838
-0.0101862
0.00631918
0.0846528
-0.0845813
0.000250308
-0.0075303
0.0842433
-0.0836967
0.0166527
0.00734313
0.0811941
-0.0788756
0.0245586
0.0183962
0.0767618
-0.0742419
0.0251461
0.0216544
0.0721255
-0.0697131
0.0225363
0.0204253
0.0676782
-0.0652441
0.0191232
0.0177416
0.0631115
-0.0605732
0.0149893
0.0146295
0.0585194
-0.0564429
0.00914989
0.0104526
0.0552021
-0.0545725
0.00205541
0.0047755
0.0548163
-0.0558599
-0.00417201
-0.00111175
0.0571192
-0.0586986
-0.00879372
-0.00565085
0.0599956
-0.0615152
-0.0127671
-0.00925173
0.0629105
-0.0647034
-0.01584
-0.0123389
0.0663291
-0.0683153
-0.0178544
-0.0144628
0.0701003
-0.0723331
-0.0191332
-0.0158742
0.0743699
-0.0769148
-0.019494
-0.0166031
0.0792123
-0.0819855
-0.0186218
-0.0164354
0.0844117
-0.0870457
-0.0159306
-0.0149912
0.0892695
-0.0891265
-0.010482
-0.0117138
0.088996
-0.0880965
-0.00416229
-0.00673095
0.0914786
-0.0956464
0.000491459
-0.00206056
0.00951601
-0.0137952
-0.0855556
0.0921359
-0.0882356
0.00561568
0.00238324
-0.0673012
0.0644389
-0.0126753
-0.0193795
0.0228093
-0.0715113
0.0693711
-0.0710768
-0.0176738
-0.0152904
-0.0626949
0.0613583
-0.00917246
-0.0119159
-0.0588989
0.0581152
-0.002443
-0.0050101
-0.057041
0.0555934
0.00401176
0.000710497
-0.0558523
0.0545341
0.00990917
0.00587065
-0.0556145
0.0570154
0.0153778
0.0106359
-0.0587434
0.0613446
0.0205116
0.015091
-0.0639563
0.0676104
0.0247262
0.0191682
-0.0712149
0.0761946
0.0241248
0.0213652
-0.0806898
0.0856634
0.0128047
0.0166983
-0.088697
0.0903014
-0.00418099
0.0035648
-0.0899685
0.0880499
-0.0157289
-0.00919357
-0.0857251
0.0826333
-0.0202235
-0.0156429
-0.080058
0.0771741
-0.0210853
-0.017548
-0.0749552
0.0725355
-0.0205198
-0.0175306
-0.0706503
0.0685582
-0.0193508
-0.0167453
-0.0669098
0.0650737
-0.0175999
-0.0155434
-0.0635692
0.0618072
-0.0151362
-0.0137644
-0.0593303
0.059773
-0.0118813
-0.0114822
-0.0578935
0.057408
-0.00573138
-0.00845733
-0.0589847
0.0599425
0.00386269
-0.00349168
-0.0609062
0.0536886
0.024672
0.00836414
-0.0304738
0.0287118
0.0803738
0.0837402
-0.027354
0.0267234
0.0754904
0.0782203
-0.0292333
0.027711
0.0728748
0.0726517
-0.0289851
0.0288408
0.0683986
0.0683278
-0.0283188
0.027466
0.0646493
0.0642346
-0.0264024
0.0251078
0.06233
0.0612541
-0.0237097
0.0221526
0.0614559
0.0597399
-0.0221453
0.0195845
0.0616939
0.0595172
-0.0193676
0.0186044
0.0617193
0.0618237
-0.0180447
0.0211617
0.0560478
0.0609615
0.0506681
-0.0480993
0.00190273
-0.0415522
0.0168409
-0.0390786
0.0255122
-0.0423371
0.0268873
-0.0487899
0.0241422
-0.0547598
-0.0521477
-0.0196306
-0.027842
-0.0530725
-0.0325362
-0.051336
0.0235733
-0.0603175
0.0240335
-0.0631633
0.0233418
-0.0697746
-0.0348428
-0.0515954
-0.0324745
-0.0550814
-0.0267456
-0.0647953
0.0207209
-0.0736376
-0.0181601
0.0207515
-0.0715419
-0.0192017
-0.0740496
-0.00946576
-0.086267
0.00749715
-0.0149241
-0.0800972
0.0101783
-0.0517901
0.0804319
-0.0388202
-0.084168
-0.0169909
0.0802621
-0.0959382
-0.0160349
-0.00729552
0.0629793
0.00144573
-0.0491803
-0.0474734
0.0091414
-0.00928324
-0.0506902
0.083742
-0.0844125
-0.00951566
-0.00587699
0.0848121
-0.0856348
0.00107306
-0.00713076
0.084537
-0.0824544
0.01457
0.00624531
0.0805668
-0.0782164
0.0222083
0.0165086
0.076164
-0.0736974
0.0226795
0.019602
0.0716035
-0.069176
0.0201088
0.0183314
0.0671341
-0.0647381
0.0167272
0.0156997
0.0627135
-0.0604312
0.012707
0.0126049
0.0587138
-0.0571554
0.0075915
0.00873523
0.0563917
-0.0562323
0.00189603
0.00401179
0.0566684
-0.057624
-0.00321639
-0.000675735
0.0585977
-0.0597791
-0.0076123
-0.0046771
0.0608178
-0.0621573
-0.0114276
-0.00821306
0.0634413
-0.065083
-0.0141983
-0.0110549
0.0665598
-0.0683714
-0.0160428
-0.0129859
0.070002
-0.0720221
-0.017113
-0.0142436
0.0738385
-0.0760665
-0.017266
-0.0147867
0.0780378
-0.0803889
-0.0162706
-0.0144642
0.0823743
-0.0845666
-0.0137383
-0.0130058
0.0862282
-0.0873505
-0.0093596
-0.0100522
0.0882728
-0.0888236
-0.00361143
-0.00580871
0.09031
-0.0925127
0.00269416
-0.000574216
0.0909995
-0.0889999
0.00361611
0.000870063
0.00954409
-0.012942
-0.0828691
0.0869729
-0.0834246
0.00599577
0.00547014
-0.0705165
0.0680482
-0.0152054
-0.0197042
0.0201767
-0.0741101
0.0740048
-0.0765334
-0.0171757
-0.0146718
-0.0662426
0.06458
-0.0110127
-0.0134849
-0.0616016
0.0598832
-0.00745401
-0.00893755
-0.059281
0.0589231
-0.00208507
-0.00440794
-0.0588302
0.058834
0.00400795
0.000803379
-0.0589051
0.0591715
0.00964275
0.00579962
-0.0596538
0.0606766
0.014355
0.0101536
-0.0620026
0.0642074
0.0183068
0.013765
-0.0666351
0.0702903
0.021071
0.0167405
-0.074014
0.0790711
0.0190677
0.0176415
-0.0833461
0.0875693
0.0085815
0.0124234
-0.0897233
0.0902981
-0.00475578
0.00141085
-0.0893715
0.0871405
-0.0134979
-0.00826697
-0.0848086
0.0818827
-0.0172976
-0.013311
-0.0794976
0.0768367
-0.0184244
-0.0151629
-0.0747795
0.0725247
-0.0182649
-0.0154734
-0.0707622
0.0687948
-0.0173834
-0.0149828
-0.0672335
0.0655105
-0.0158769
-0.0139821
-0.064126
0.0625326
-0.0135429
-0.0123798
-0.0611902
0.0597303
-0.0104214
-0.0101398
-0.0587741
0.0586665
-0.00562383
-0.00750107
-0.0575526
0.0596632
0.00175212
-0.00237775
-0.0608303
0.0808258
0.00467648
0.00719703
-0.00142896
-0.0244748
0.0246798
0.0801689
0.0804362
-0.0281746
0.0281202
0.0755448
0.0747255
-0.0293106
0.0301696
0.0720157
0.0714613
-0.0306021
0.030633
0.0683677
0.0678953
-0.0302779
0.0295639
0.0653633
0.0645898
-0.0285992
0.0273806
0.0635486
0.0622187
-0.0260266
0.0244925
0.06299
0.0610939
-0.0229196
0.0211954
0.063418
0.0610902
-0.0200435
0.0190905
0.0626723
0.0629756
-0.0168753
0.0146809
0.0582422
0.0631767
0.0580535
-0.0447508
0.0152764
-0.0399877
0.0268067
-0.0403731
0.0299571
-0.0454068
0.0270745
-0.0517223
-0.0478792
-0.0321105
-0.0376686
-0.0479401
0.0251664
-0.0563529
0.025049
-0.061333
0.0249513
-0.0647729
-0.039324
-0.0468549
-0.0373932
-0.0466767
-0.032153
-0.049674
0.0220422
-0.0710652
-0.0252471
-0.0587499
0.0226853
-0.0740505
-0.018256
-0.0707178
0.0173212
-0.0764232
-0.0174314
0.0203226
-0.0771115
-0.0153407
-0.0776986
-0.00960728
-0.0803868
0.00656953
-0.0113945
-0.0810818
0.000239201
0.0738659
0.00632689
-0.0866098
0.0806074
-0.0109885
-0.0884248
-0.01422
-0.0061697
0.0693882
-0.0127097
-0.0457538
0.0164609
-0.014349
0.0781502
0.0182854
0.0774806
-0.0564205
0.0267416
-0.0233058
-0.047015
0.0848628
-0.0847217
-0.00965674
-0.00943893
0.0863787
-0.0852768
-2.87859e-05
-0.00547384
0.0841466
-0.0817638
0.0121873
0.00511504
0.0795936
-0.0770577
0.0196724
0.0143384
0.0749868
-0.0725911
0.0202839
0.017531
0.0705772
-0.0682452
0.0177768
0.0163174
0.0663149
-0.0641328
0.0145452
0.0137693
0.0623952
-0.0605814
0.0108931
0.0108672
0.0593426
-0.0583616
0.00661055
0.00749646
0.0579937
-0.0580723
0.00197465
0.00364381
0.0584633
-0.0591418
-0.00253788
-0.000284693
0.0598141
-0.0606978
-0.00672866
-0.0040048
0.0615719
-0.0627737
-0.0102258
-0.00733898
0.0639333
-0.0654045
-0.0127271
-0.00989529
0.0667307