/*--------------------------------*- C++ -*----------------------------------*\
  =========                 |
  \\      /  F ield         | OpenFOAM: The Open Source CFD Toolbox
   \\    /   O peration     | Website:  https://openfoam.org
    \\  /    A nd           | Version:  10
     \\/     M anipulation  |
\*---------------------------------------------------------------------------*/
FoamFile
{
    format      ascii;
    class       volVectorField;
    location    "86";
    object      U;
}
// * * * * * * * * * * * * * * * * * * * * * * * * * * * * * * * * * * * * * //

dimensions      [0 1 -1 0 0 0 0];

internalField   nonuniform List<vector> 
28942
(
(0.00442863 -0.00225622 -3.40316e-22)
(0.00599437 -0.00233931 -6.31748e-23)
(0.0179338 -0.0123849 -8.28047e-22)
(0.103306 0.0182354 -5.26298e-21)
(0.102344 0.0222779 1.72315e-21)
(0.0136493 0.000415075 0)
(0.0162187 1.05604e-06 1.00759e-23)
(0.0188197 0.000536142 -8.87846e-24)
(0.135236 -0.0184422 -2.56176e-22)
(0.133892 -0.0168083 7.29034e-22)
(0.00979381 0.00401521 -6.67926e-22)
(0.0160661 0.00562869 2.52852e-22)
(0.00713664 0.00315282 0)
(0.00470703 0.00207012 0)
(0.0428415 0.00192423 -1.41385e-23)
(0.0410951 0.00246655 -5.72902e-24)
(0.0893155 0.015889 6.68318e-22)
(0.0870034 0.0138575 1.07555e-21)
(0.0121632 -0.0151107 2.92151e-21)
(0.0293276 -0.0304638 -7.68923e-22)
(0.0981171 0.0374001 9.5317e-22)
(0.0972958 0.0344359 0)
(0.0187367 0.00462612 1.16052e-21)
(0.00786255 0.00236314 5.46893e-22)
(0.0377924 0.0072098 9.37324e-22)
(0.0575234 0.00291128 -8.54498e-22)
(0.0076472 -0.0184882 8.51253e-21)
(0.00669327 -0.0165529 -3.13511e-21)
(0.0355055 -0.0253198 5.7398e-22)
(0.0192981 -0.0136804 1.98147e-22)
(0.0140138 -0.00128335 0)
(0.0175197 -0.00110411 -1.28046e-23)
(0.0222816 0.00406142 2.68759e-22)
(0.0321557 0.00183387 -4.09475e-23)
(0.018825 0.0180095 1.31516e-21)
(0.0157196 0.0191196 -1.30664e-21)
(0.0321688 0.0376177 -3.05473e-21)
(0.0186688 0.0305363 -1.06898e-21)
(0.0074715 -1.70787e-05 -8.39954e-24)
(0.00864871 0.0161973 -2.61594e-21)
(0.0306493 -0.00620317 0)
(0.0513426 -0.0109694 0)
(0.111804 -0.0117139 -2.71727e-23)
(0.111296 -0.0117121 8.01169e-23)
(0.115859 -0.0116086 6.982e-23)
(0.0265639 0.000169209 1.07582e-23)
(0.024731 -0.000590816 -1.72739e-23)
(0.0353926 -0.000478193 -7.918e-23)
(0.033908 -0.000547859 2.25859e-23)
(0.02753 -0.00259307 -1.97474e-22)
(0.0204471 -0.00309748 1.28451e-22)
(0.128657 0.00129534 -4.01716e-22)
(0.127971 0.000823843 -3.75267e-22)
(0.134553 -0.0212086 -3.77008e-24)
(0.133007 -0.0194826 1.39169e-22)
(0.0824757 0.00635144 7.11092e-22)
(0.101728 -0.000768146 2.46591e-22)
(0.00305809 0.00162059 -5.61569e-22)
(0.00894134 0.003679 0)
(0.00825594 0.00328846 2.35934e-22)
(0.00288215 0.00148786 4.84548e-22)
(0.00036217 0.000226225 -4.02936e-22)
(0.000192865 0.000122674 -3.87006e-22)
(0.109759 -0.0426057 0)
(0.104889 -0.0256116 1.25092e-22)
(0.121759 -0.0331167 -4.2751e-23)
(0.123408 -0.0437699 0)
(0.0901046 -0.0328029 -6.39092e-22)
(0.0936084 -0.03527 -4.20051e-22)
(0.00188477 -0.0011294 1.1251e-21)
(0.00248838 -0.00201715 -3.5453e-22)
(0.0048723 -0.00315549 8.79595e-22)
(0.0848734 -0.0457591 0)
(0.0911997 -0.0396233 2.16946e-21)
(0.0805419 -0.0530244 5.86183e-22)
(0.114124 0.0124069 2.35014e-22)
(0.112721 0.00690484 -2.60667e-22)
(0.125091 0.0110105 -1.10539e-22)
(0.00468317 -0.00286173 -5.36471e-23)
(0.00633822 -0.00442568 4.49737e-22)
(0.0510056 -0.0311455 1.26755e-22)
(0.0331526 -0.0205357 -2.57643e-22)
(0.00211071 -0.000595858 3.19598e-21)
(0.00515648 -0.00207224 -1.24544e-21)
(0.10098 0.0482492 1.39129e-23)
(0.0970291 0.0552168 -7.66223e-22)
(0.0807207 0.0540131 6.99343e-22)
(0.0472044 0.0345104 -2.68562e-21)
(0.0444327 0.0316064 1.90197e-21)
(0.0294916 0.0205954 -1.1373e-22)
(0.0327122 0.0232482 -6.42093e-22)
(0.0379533 0.0283581 8.70569e-22)
(0.00440793 0.00272918 -5.8444e-23)
(0.00776024 0.00398071 -1.68701e-23)
(0.00318838 0.0020221 3.38058e-23)
(0.0019233 0.00164636 -4.51951e-22)
(0.00145011 0.00157055 5.54121e-22)
(0.0157421 0.0115436 -3.25805e-21)
(0.0174949 0.0136354 7.46297e-22)
(0.00880377 -0.0038465 0)
(0.101389 0.0051594 0)
(0.0984003 0.0156832 -3.96037e-21)
(0.0604414 0.0104756 1.94287e-21)
(0.0886812 0.0178812 0)
(0.135451 -0.00108546 0)
(0.134889 -0.00179923 0)
(0.133196 -0.0022937 -2.54407e-22)
(0.114974 0.0266123 -2.12263e-22)
(0.114065 0.0280149 2.09849e-21)
(0.113267 0.0254747 1.12608e-21)
(0.00229376 0.00129933 1.04679e-21)
(0.00151133 0.000777418 -1.17492e-21)
(0.0190457 -0.00553376 -5.4698e-22)
(0.0201253 -0.00506213 4.66696e-22)
(0.00909765 -0.0029266 9.225e-22)
(0.0064766 0.0111505 1.47919e-21)
(0.0189677 0.0181622 3.45797e-21)
(0.013465 0.0228013 2.72182e-22)
(0.00492082 0.0143071 -8.62487e-21)
(0.116985 0.0477537 5.56289e-23)
(0.107862 0.0582429 1.07051e-21)
(0.118321 0.0548813 -1.84621e-21)
(0.0390845 -0.029413 7.31831e-22)
(0.0240052 -0.0172621 -4.68063e-22)
(0.00532081 -0.000740471 -4.10379e-21)
(0.00453788 -0.00359047 0)
(0.0124955 -0.00167 2.0033e-21)
(0.0219605 -0.0161277 7.78798e-22)
(0.0342494 -0.0277797 -1.95665e-21)
(0.0334593 -2.74764e-05 5.45579e-23)
(0.0355868 0.0001296 -4.01642e-23)
(0.0314103 0.000148032 -1.68736e-24)
(0.0280507 -0.0419412 0)
(0.0296001 -0.0428323 0)
(0.0896235 -0.0186528 -4.63242e-22)
(0.0995913 -0.0220904 3.14718e-21)
(0.0870346 -0.0252785 0)
(0.0471095 -0.0401816 0)
(0.0581689 -0.0513762 -7.83489e-22)
(0.0413108 0.0393379 2.08615e-21)
(-2.25027e-06 0.000214553 5.09796e-22)
(-0.000194138 0.000131029 -3.35713e-22)
(0.0223229 -0.0192372 -7.91576e-22)
(0.120278 -0.0114805 3.93798e-22)
(0.119643 -0.0114252 -7.61889e-23)
(0.115419 -0.00572459 -6.57856e-23)
(0.108345 0.000978288 8.76686e-23)
(0.11761 -0.000322911 1.771e-22)
(8.22834e-05 0.000259115 1.969e-22)
(0.0437428 0.0344183 3.20659e-21)
(0.0618712 0.0463078 -7.88727e-22)
(0.0593054 0.0393639 -3.02665e-24)
(0.0218202 -0.000805407 5.38818e-24)
(0.0214993 -0.000784612 2.80268e-23)
(0.0233349 -0.00055764 1.04415e-24)
(0.0260605 -0.000574406 -1.38235e-23)
(0.0454174 0.0380894 1.33765e-22)
(0.0189608 0.0160586 0)
(0.000138237 -2.74798e-05 3.662e-22)
(0.000421208 -0.000255099 -4.06286e-22)
(0.00185859 -0.001008 2.83338e-22)
(0.0365476 -0.00771833 -1.83684e-21)
(0.0648559 -0.00209929 -7.48786e-22)
(0.0303255 -0.00019081 -2.14562e-24)
(0.0744667 -0.00764382 2.70492e-22)
(0.0706789 -0.0157266 5.92652e-23)
(0.0943037 0.0399224 2.14481e-21)
(0.0914043 0.0454579 9.92837e-23)
(0.0887483 0.0290893 1.21637e-21)
(0.0914737 0.0308061 -8.81489e-22)
(0.0986956 0.0410836 0)
(0.126118 -0.000318534 1.49547e-22)
(0.126888 -0.000751522 2.82485e-22)
(0.128093 -0.0123495 -2.95755e-22)
(0.129557 -0.0121549 5.0624e-22)
(0.117054 0.0241566 2.60326e-22)
(0.119112 0.0250579 -7.3722e-22)
(0.1171 0.026169 0)
(0.115134 0.0249061 1.53449e-22)
(0.116671 0.0280911 0)
(0.117173 0.0361122 -5.51924e-22)
(0.11571 0.0381636 -3.01296e-22)
(0.111337 0.0419755 -5.41231e-22)
(0.113731 0.0401081 0)
(0.116419 0.0430836 1.79063e-21)
(0.113697 0.0450058 4.73868e-23)
(0.10833 0.044186 -3.03998e-22)
(0.0996279 0.0502879 -1.28838e-21)
(0.0984186 0.0454995 -2.26966e-22)
(0.0249486 -0.00847022 5.83177e-23)
(0.0328028 -0.00932701 -2.3257e-23)
(0.00628145 -0.00248601 -6.89352e-22)
(0.0297271 -8.87206e-05 -3.44935e-23)
(0.0381426 -0.000269168 0)
(-3.12408e-06 -3.98489e-05 4.30811e-22)
(1.30725e-05 -4.71878e-05 2.19443e-22)
(0.0345012 -0.0017724 1.6514e-23)
(0.0408143 -0.00172255 6.82578e-24)
(0.040373 -0.0011865 0)
(0.0333619 -0.000819324 7.26674e-24)
(0.0855351 0.00339571 -1.08825e-22)
(0.0847651 0.00307493 5.14112e-22)
(0.0856257 0.00315773 2.37962e-22)
(0.000670636 0.000271978 3.90954e-22)
(-0.000159401 -0.000129257 -5.66649e-22)
(-0.000201049 -0.000168993 4.82824e-22)
(0.00149989 0.000617277 0)
(7.9881e-05 8.7757e-05 1.13557e-21)
(0.000171872 -3.90025e-05 -8.18367e-22)
(0.00744662 0.00367271 -9.88565e-22)
(0.00145128 0.000781124 -1.18132e-21)
(0.00172018 0.000860441 0)
(0.00157198 0.00754427 0)
(0.000576945 0.00328134 0)
(0.000313307 0.00197694 0)
(0.136625 -0.00109691 5.65489e-23)
(0.137638 -0.000931384 0)
(0.135998 -0.0018813 -6.59126e-23)
(0.0881101 -0.0148526 4.42832e-21)
(0.0901169 -0.015262 -1.60748e-21)
(0.0890324 -0.0128773 0)
(0.0961719 0.000348759 -6.39248e-24)
(0.0967461 0.000339086 1.27938e-23)
(0.0955958 0.00035785 -4.32365e-24)
(0.0973153 0.00033113 0)
(0.0978831 0.000331224 -8.16159e-24)
(0.0984448 0.000325896 0)
(0.098441 -0.000270505 0)
(0.0989984 0.000309321 3.03046e-23)
(0.0989882 -0.000291256 0)
(0.0978858 -0.000261712 -8.21889e-24)
(0.0973179 -0.000258291 0)
(0.0967475 -0.000254184 4.27707e-24)
(0.0961704 -0.00025418 -6.38928e-24)
(0.0955959 -0.000253309 4.31825e-24)
(0.0995392 0.000291022 -2.8999e-23)
(0.0995337 -0.000306083 -1.01401e-24)
(0.0950109 0.000372074 -3.66078e-29)
(0.0950056 -0.00024634 -6.59825e-24)
(0.0944157 0.000384263 3.50901e-23)
(0.100073 0.000279164 2.71e-26)
(0.100083 -0.000313039 -1.01503e-24)
(0.0944135 -0.000247365 1.30027e-23)
(0.100608 0.000266313 2.72971e-23)
(0.101141 0.000255847 -2.72747e-23)
(0.100624 -0.000320725 2.04367e-24)
(0.101159 -0.000326676 4.04025e-24)
(0.093838 0.000406813 -3.41409e-23)
(0.0938279 -0.000247003 -8.55838e-24)
(0.10167 0.000243869 0)
(0.101689 -0.000333631 -3.98505e-24)
(0.0932376 0.000419458 4.22273e-27)
(0.0932285 -0.000241478 -4.23332e-27)
(0.102195 0.000234021 0)
(0.102214 -0.000339032 0)
(0.0926314 0.000428509 0)
(0.092622 -0.0002396 0)
(0.102716 0.00022243 0)
(0.102736 -0.000345567 1.915e-24)
(0.0920196 0.000437429 -1.77086e-23)
(0.0920093 -0.000236932 -4.32192e-27)
(0.103233 0.000212933 1.00394e-25)
(0.103253 -0.000350457 -2.04523e-24)
(0.0914018 0.000444311 1.77932e-23)
(0.0913909 -0.000236041 0)
(0.103746 0.000201635 0)
(0.103766 -0.00035629 0)
(0.0907786 0.000451548 -1.12558e-24)
(0.0907669 -0.000233208 1.93168e-23)
(0.104255 0.000192536 1.24162e-23)
(0.104275 -0.00036001 0)
(0.0901504 0.00045683 -9.90778e-26)
(0.0901372 -0.0002307 -1.82829e-23)
(0.10476 0.00018185 -1.8572e-23)
(0.104781 -0.000364478 -5.38978e-24)
(0.089503 0.000455545 1.86397e-23)
(0.0894927 -0.000228789 0)
(0.105263 0.000174394 6.11748e-24)
(0.105285 -0.00036344 3.59465e-24)
(0.0888527 0.000460621 -9.43365e-24)
(0.0888424 -0.00022987 1.91277e-23)
(0.105759 0.000169327 -2.44319e-23)
(0.10579 -0.00035552 2.7537e-23)
(0.0881715 0.000450899 9.72391e-24)
(0.0881701 -0.000236774 3.07725e-25)
(0.10626 0.000166827 0)
(0.106287 -0.00034802 1.31222e-23)
(0.0874823 0.000441304 -1.9558e-23)
(0.087488 -0.000250954 3.91225e-23)
(0.106775 0.000155745 0)
(0.106786 -0.000346262 0)
(0.0884681 0.00113342 -9.62173e-24)
(0.0877733 0.00113184 -3.8939e-23)
(0.0867691 0.000425205 0)
(0.0867918 -0.000276798 -1.993e-23)
(0.0898072 0.00112696 -6.04224e-24)
(0.0891413 0.00113116 1.18665e-24)
(0.0910775 0.00110471 0)
(0.0904408 0.00111546 -1.95178e-23)
(0.0923121 0.00107791 -3.76944e-26)
(0.0916984 0.0010919 0)
(0.0935201 0.00104694 0)
(0.0929192 0.00106289 0)
(0.0947042 0.00100838 0)
(0.0941154 0.00102937 0)
(0.0958434 0.000967631 8.538e-24)
(0.0952703 0.000987047 2.1522e-24)
(0.0969805 0.000937296 -8.23537e-24)
(0.0964184 0.000952337 -8.52523e-24)
(0.0980967 0.000910714 1.46267e-23)
(0.0975347 0.000918337 1.86801e-23)
(0.0992141 0.000887441 0)
(0.0986574 0.000902031 0)
(0.100294 0.000860827 -6.42696e-26)
(0.0997578 0.000874032 0)
(0.101354 0.000831599 0)
(0.100826 0.000846374 0)
(0.102397 0.000801568 0)
(0.101878 0.000816512 0)
(0.103425 0.000771882 0)
(0.102913 0.000786579 0)
(0.104437 0.000742919 0)
(0.103933 0.000757226 0)
(0.105434 0.000714745 0)
(0.104938 0.00072868 0)
(0.106422 0.000671285 -9.98304e-24)
(0.105927 0.000699774 0)
(0.106918 0.000648326 -3.22383e-24)
(0.107281 0.00014067 3.14812e-24)
(0.107289 -0.000348604 -3.12192e-24)
(0.10595 -0.000849329 0)
(0.106938 -0.000838212 -1.28093e-23)
(0.106444 -0.000842557 -6.59989e-24)
(0.10495 -0.000861308 1.80626e-24)
(0.105451 -0.00085675 -7.06755e-24)
(0.103943 -0.000864007 5.84764e-26)
(0.104448 -0.000864159 0)
(0.10292 -0.000861467 0)
(0.103434 -0.000862845 0)
(0.101881 -0.000858257 0)
(0.102403 -0.000859805 0)
(0.100823 -0.000855513 0)
(0.101355 -0.000856681 7.69348e-30)
(0.0997476 -0.000854814 6.48985e-26)
(0.100288 -0.000854712 0)
(0.0986581 -0.000849081 0)
(0.0992022 -0.000853226 0)
(0.097544 -0.000843225 0)
(0.0981016 -0.000845278 0)
(0.0964096 -0.000844714 0)
(0.0969778 -0.000841144 -4.32339e-24)
(0.0952541 -0.000853785 1.13701e-24)
(0.0958336 -0.000852066 -5.57578e-24)
(0.0940893 -0.000866847 0)
(0.0946785 -0.000858607 -4.53576e-24)
(0.092891 -0.000876054 0)
(0.0934934 -0.000871447 0)
(0.0916663 -0.000886105 0)
(0.092282 -0.00088091 0)
(0.09041 -0.000895704 0)
(0.0910432 -0.000891013 0)
(0.0891161 -0.000906711 -4.94228e-24)
(0.0897691 -0.000899709 0)
(0.0877885 -0.000937626 -2.00156e-23)
(0.0884566 -0.000916822 -4.96672e-24)
(0.0871022 -0.000963692 2.03747e-23)
(0.0870643 0.00113163 3.86086e-23)
(0.107416 0.00062915 6.31213e-24)
(0.107432 -0.000833814 -1.23296e-23)
(0.0860736 -0.000313809 0)
(0.0864074 -0.00100449 0)
(0.0863418 0.00113096 0)
(0.0860415 0.000401513 0)
(0.0890528 0.00180168 0)
(0.0876869 0.00183349 9.66851e-24)
(0.0883752 0.00181569 9.76192e-24)
(0.0903724 0.00176809 1.24079e-23)
(0.0897192 0.00178596 -2.48012e-24)
(0.0916204 0.00172594 3.83661e-26)
(0.0910021 0.00174697 0)
(0.0928354 0.00168333 0)
(0.0922314 0.00170482 0)
(0.0940232 0.00163964 0)
(0.0934324 0.0016616 0)
(0.0951884 0.00159752 0)
(0.0946081 0.00161766 0)
(0.0963248 0.00155366 0)
(0.0957595 0.00157619 0)
(0.0974416 0.00151413 -3.45135e-26)
(0.0968821 0.00153467 8.90247e-24)
(0.0985293 0.00147258 -3.3123e-26)
(0.097991 0.00149248 -1.73722e-23)
(0.0996168 0.00142973 0)
(0.0990738 0.00145017 0)
(0.10068 0.00139081 3.20904e-26)
(0.100151 0.00141 0)
(0.101723 0.00135245 0)
(0.101204 0.00137161 0)
(0.10275 0.00131428 0)
(0.102239 0.00133329 0)
(0.103761 0.00127672 0)
(0.103257 0.00129539 0)
(0.104756 0.00123995 0)
(0.10426 0.00125822 0)
(0.105736 0.00120288 0)
(0.105248 0.0012217 0)
(0.106706 0.00115326 6.81842e-24)
(0.106221 0.00118041 0)
(0.107784 0.00013055 0)
(0.107909 0.000610625 6.17185e-24)
(0.107678 0.0011041 0)
(0.107191 0.00112816 6.64289e-24)
(0.107222 -0.00132179 1.32141e-23)
(0.107705 -0.00131316 3.2454e-24)
(0.107925 -0.000833498 2.5341e-23)
(0.107789 -0.000348189 0)
(0.10625 -0.00134083 0)
(0.106736 -0.00133117 -1.99508e-23)
(0.105269 -0.00135703 5.68192e-26)
(0.105761 -0.00134828 7.11053e-24)
(0.104277 -0.00136585 -5.84762e-26)
(0.104774 -0.00136209 0)
(0.103269 -0.00137165 0)
(0.103775 -0.00136889 0)
(0.102245 -0.00137708 0)
(0.102759 -0.00137432 0)
(0.101204 -0.00138331 0)
(0.101727 -0.00138001 -7.69346e-30)
(0.100146 -0.00139126 -1.29709e-25)
(0.100677 -0.00138705 0)
(0.0990721 -0.00139925 0)
(0.0996109 -0.0013954 0)
(0.0979748 -0.00140864 2.18107e-24)
(0.0985266 -0.00140336 0)
(0.0968614 -0.00141952 0)
(0.0974189 -0.00141183 -2.17197e-24)
(0.0957262 -0.00143771 4.54539e-24)
(0.0962929 -0.00142838 4.51817e-24)
(0.094569 -0.00145543 0)
(0.0951516 -0.00144656 0)
(0.0933867 -0.00147691 0)
(0.0939809 -0.00146581 0)
(0.0921782 -0.0015012 0)
(0.0927859 -0.00148869 0)
(0.09094 -0.00152867 0)
(0.0915631 -0.00151443 0)
(0.0896685 -0.00156115 7.90281e-26)
(0.0903088 -0.00154419 0)
(0.0883602 -0.0016016 -8.01182e-26)
(0.0890202 -0.0015805 0)
(0.0870181 -0.00167526 -2.09526e-23)
(0.0876926 -0.00163479 2.09431e-23)
(0.0869835 0.00185131 1.96731e-23)
(0.0857066 -0.0010569 0)
(0.0863358 -0.00172843 -4.26068e-23)
(0.0853532 -0.000357939 0)
(0.108161 0.00108641 0)
(0.108189 -0.00130435 -3.14773e-24)
(0.0856124 0.00113003 4.98149e-23)
(0.0862733 0.00186981 1.99267e-23)
(0.0849892 -0.00111222 1.07726e-23)
(0.0856426 -0.00178942 5.38438e-23)
(0.0853005 0.000373375 0)
(0.108066 0.00157416 2.59573e-23)
(0.108534 0.00154974 -1.28192e-23)
(0.108411 -0.000829404 -6.2365e-24)
(0.108667 -0.00129281 3.10047e-23)
(0.0872697 0.0025821 6.99092e-23)
(0.0855426 0.00188755 -3.92507e-23)
(0.0858405 0.00263869 -1.75402e-22)
(0.086552 0.00260731 -3.99383e-23)
(0.0886221 0.00251435 1.94573e-23)
(0.0879525 0.00254952 -5.94779e-23)
(0.0899215 0.00244911 -1.98981e-23)
(0.089279 0.00248152 -1.50098e-23)
(0.0911911 0.00239043 -4.96141e-24)
(0.0905636 0.00242071 -4.96476e-24)
(0.0924103 0.00233357 -3.83661e-26)
(0.0918073 0.0023623 0)
(0.0935948 0.0022762 0)
(0.0930061 0.0023048 0)
(0.0947526 0.0022198 0)
(0.0941768 0.00224787 0)
(0.095887 0.00216531 0)
(0.0953226 0.00219215 0)
(0.0969978 0.00211304 0)
(0.096445 0.00213859 0)
(0.0980864 0.00206098 0)
(0.0975442 0.00208667 0)
(0.0991547 0.00201062 6.31348e-29)
(0.0986238 0.00203662 0)
(0.100208 0.00195917 0)
(0.0996826 0.00198438 0)
(0.101244 0.00191045 3.20063e-26)
(0.100728 0.00193457 0)
(0.102263 0.00186318 0)
(0.101755 0.00188669 0)
(0.103265 0.00181689 0)
(0.102766 0.00183993 0)
(0.104252 0.00177151 0)
(0.10376 0.00179409 0)
(0.105223 0.00172695 0)
(0.104739 0.00174916 0)
(0.10618 0.00168168 0)
(0.105703 0.00170469 0)
(0.107124 0.00162821 3.47038e-24)
(0.106654 0.00165584 -1.74675e-24)
(0.107596 0.00160138 -1.32435e-23)
(0.108274 0.000124905 -2.95608e-24)
(0.10864 0.00106801 1.23539e-23)
(0.108395 0.000598844 -9.45051e-24)
(0.108278 -0.000355566 0)
(0.107634 -0.00179464 -9.83409e-24)
(0.108571 -0.00176404 -2.8372e-23)
(0.108103 -0.00178026 2.28476e-23)
(0.10669 -0.00182446 0)
(0.107163 -0.00180892 0)
(0.105732 -0.00184223 -9.43664e-29)
(0.106212 -0.00183211 0)
(0.104762 -0.00185841 0)
(0.105249 -0.00185079 0)
(0.103778 -0.00187236 -5.99098e-26)
(0.104272 -0.0018655 0)
(0.102777 -0.00188616 0)
(0.103279 -0.00187921 0)
(0.101759 -0.00190084 0)
(0.10227 -0.00189335 0)
(0.100725 -0.00191702 6.48197e-26)
(0.101244 -0.00190873 0)
(0.099674 -0.00193452 6.63184e-26)
(0.100202 -0.0019256 0)
(0.0986036 -0.0019546 0)
(0.099141 -0.00194407 0)
(0.097514 -0.00197746 0)
(0.0980616 -0.00196586 0)
(0.0964036 -0.00200435 0)
(0.0969606 -0.00199004 0)
(0.095271 -0.00203335 0)
(0.0958403 -0.0020183 0)
(0.0941146 -0.00206721 -7.42683e-26)
(0.0946958 -0.00204975 0)
(0.0929323 -0.0021054 0)
(0.0935268 -0.00208576 0)
(0.0917212 -0.00214853 0)
(0.0923305 -0.00212628 0)
(0.0904785 -0.00219802 -1.29021e-28)
(0.0911039 -0.0021724 0)
(0.0892019 -0.0022554 1.45289e-28)
(0.0898448 -0.00222574 0)
(0.0878939 -0.00233019 8.27635e-26)
(0.0885488 -0.00228816 0)
(0.0865602 -0.00244029 -4.3533e-23)
(0.0872294 -0.00237995 1.07016e-23)
(0.0849378 -0.00185083 1.09539e-23)
(0.0858936 -0.00250833 2.17619e-23)
(0.0848713 0.00112253 -1.95056e-23)
(0.0846151 -0.000405783 -2.08714e-23)
(0.109 0.00152602 3.13705e-24)
(0.109039 -0.00175283 2.2296e-23)
(0.0847758 0.0018852 2.4594e-24)
(0.0842615 -0.00117469 0)
(0.0848842 0.00255034 2.68889e-22)
(0.0852203 -0.00257919 3.34587e-23)
(0.0842377 -0.00191717 4.46565e-23)
(0.0865615 0.00351837 -4.42572e-22)
(0.0863156 0.00366232 8.11861e-23)
(0.0845646 0.000347375 0)
(0.0873227 0.00335748 4.49034e-23)
(0.0868349 0.00346041 2.29238e-23)
(0.08855 0.00325237 4.05278e-23)
(0.0878989 0.00329468 -6.17992e-23)
(0.0898322 0.00316018 -2.01472e-23)
(0.0892022 0.00320808 -1.0057e-23)
(0.0910627 0.00307551 1.00966e-23)
(0.0904517 0.00311658 1.02284e-23)
(0.092266 0.00299615 0)
(0.0916655 0.00303423 -1.88733e-26)
(0.0934358 0.00292261 0)
(0.0928546 0.0029593 0)
(0.0945788 0.00285126 3.74679e-26)
(0.0940105 0.00288658 0)
(0.0956974 0.00278264 0)
(0.095141 0.00281665 0)
(0.0967934 0.00271669 0)
(0.0962481 0.00274931 0)
(0.0978679 0.00265332 0)
(0.0973332 0.00268467 0)
(0.0989219 0.00259156 3.43305e-26)
(0.0983972 0.00262212 0)
(0.0999568 0.00253149 6.86104e-29)
(0.0994418 0.00256169 0)
(0.100975 0.00247224 0)
(0.100468 0.00250153 0)
(0.101978 0.00241512 -6.39493e-26)
(0.101479 0.00244347 0)
(0.102964 0.00235964 0)
(0.102473 0.00238721 0)
(0.103935 0.00230552 0)
(0.103452 0.00233244 0)
(0.104891 0.00225254 0)
(0.104415 0.00227891 0)
(0.105832 0.00220041 0)
(0.105363 0.00222642 0)
(0.106758 0.00214766 0)
(0.106297 0.00217433 0)
(0.107674 0.0020926 -1.7331e-24)
(0.107217 0.00211931 0)
(0.108579 0.00203268 0)
(0.108126 0.00206274 -3.35694e-24)
(0.109474 0.00197093 -3.51861e-27)
(0.10903 0.00200252 0)
(0.109112 0.00105072 -1.25255e-23)
(0.109927 0.00194692 7.53808e-25)
(0.109467 0.00150667 6.1294e-24)
(0.108753 0.000115488 4.50988e-24)
(0.108873 0.000585658 -3.11274e-24)
(0.10889 -0.000824818 -1.56809e-24)
(0.10876 -0.000357182 1.56406e-24)
(0.109502 -0.00174163 0)
(0.10914 -0.00128808 -1.42077e-23)
(0.109076 -0.00221875 -6.37472e-24)
(0.109976 -0.00218719 -1.2205e-23)
(0.109527 -0.00220267 2.80297e-23)
(0.108174 -0.00225657 -3.34547e-24)
(0.108626 -0.0022379 0)
(0.10726 -0.00228899 0)
(0.107718 -0.00227252 0)
(0.106333 -0.00231471 -1.16943e-28)
(0.106798 -0.00230242 0)
(0.105393 -0.00233802 0)
(0.105865 -0.00232666 0)
(0.104438 -0.00235991 5.99098e-26)
(0.104918 -0.00234905 0)
(0.103467 -0.00238184 0)
(0.103955 -0.00237081 0)
(0.102481 -0.00240476 0)
(0.102976 -0.00239315 0)
(0.101477 -0.00242928 0)
(0.101981 -0.0024168 0)
(0.100457 -0.00245585 -1.34514e-28)
(0.10097 -0.00244228 0)
(0.0994188 -0.00248544 0)
(0.0999403 -0.0024702 0)
(0.0983616 -0.00251835 0)
(0.0988927 -0.00250153 0)
(0.0972844 -0.00255539 0)
(0.0978253 -0.00253624 0)
(0.0961858 -0.00259621 0)
(0.0967379 -0.00257522 0)
(0.095064 -0.00264228 7.42683e-26)
(0.0956279 -0.00261859 0)
(0.0939174 -0.00269387 0)
(0.094494 -0.00266736 0)
(0.0927437 -0.00275176 0)
(0.0933341 -0.00272196 0)
(0.0915405 -0.00281729 -7.88915e-26)
(0.0921459 -0.0027835 0)
(0.0903063 -0.00289151 8.03749e-26)
(0.0909274 -0.00285334 0)
(0.0890395 -0.00297622 -8.18284e-26)
(0.0896767 -0.00293231 0)
(0.0877506 -0.00307947 1.07541e-23)
(0.0883933 -0.00302305 -2.1214e-23)
(0.0864646 -0.0032168 -1.08308e-23)
(0.0871048 -0.00314287 2.20222e-23)
(0.0845344 -0.00264716 3.12369e-25)
(0.0858105 -0.00329132 2.22289e-23)
(0.0841116 0.00109698 -1.99975e-23)
(0.0838735 -0.000443885 0)
(0.0839912 0.0018337 -1.93398e-22)
(0.0835255 -0.00122172 0)
(0.110068 0.00240911 -3.12704e-24)
(0.110492 0.00237427 2.2905e-24)
(0.109959 -0.00173067 -1.20025e-23)
(0.110418 -0.00216519 -1.35772e-23)
(0.0839422 0.00249313 -1.8811e-22)
(0.0835276 -0.00197958 -4.50933e-23)
(0.0854221 0.00364881 0)
(0.0879992 0.00417838 -5.12729e-23)
(0.083848 -0.00271607 -2.21364e-23)
(0.0851473 -0.00336406 3.36348e-23)
(0.0874314 0.00417172 1.02939e-22)
(0.0838156 0.000318901 0)
(0.0889026 0.00400348 0)
(0.088419 0.00409415 -4.56751e-23)
(0.0900658 0.00387518 0)
(0.0894671 0.00393611 0)
(0.0912627 0.00376568 0)
(0.090667 0.00381775 1.04192e-23)
(0.0924219 0.00366703 0)
(0.0918448 0.00371582 0)
(0.0935617 0.00357418 0)
(0.0929942 0.00361922 0)
(0.094678 0.00348742 0)
(0.0941229 0.00353047 0)
(0.0957713 0.00340404 -3.74679e-26)
(0.0952275 0.00344528 0)
(0.0968428 0.00332419 0)
(0.0963097 0.00336371 0)
(0.0978934 0.00324761 0)
(0.0973706 0.0032855 0)
(0.0989242 0.00317401 0)
(0.0984112 0.00321047 0)
(0.0999361 0.00310287 -8.29325e-29)
(0.0994324 0.00313814 0)
(0.10093 0.00303396 8.08085e-29)
(0.100435 0.00306827 0)
(0.101908 0.00296673 0)
(0.101421 0.00300006 0)
(0.102871 0.00290169 7.64387e-29)
(0.102392 0.00293398 0)
(0.103818 0.00283848 0)
(0.103346 0.00286988 0)
(0.104751 0.00277687 0)
(0.104287 0.00280751 0)
(0.105669 0.00271659 0)
(0.105212 0.0027466 0)
(0.106574 0.00265724 0)
(0.106123 0.00268685 0)
(0.107464 0.0025978 0)
(0.107021 0.00262764 0)
(0.108343 0.00253802 0)
(0.107905 0.002568 0)
(0.10921 0.00247478 3.32524e-24)
(0.108776 0.00250519 3.40791e-24)
(0.10964 0.00244113 -6.38238e-24)
(0.109575 0.00103401 -6.149e-24)
(0.110376 0.00192359 0)
(0.109921 0.00148278 -6.20094e-24)
(0.109224 0.000108439 0)
(0.109339 0.000574855 6.27544e-24)
(0.109359 -0.000822188 9.36762e-24)
(0.109231 -0.000358634 -3.16769e-24)
(0.109604 -0.00127994 -1.84005e-23)
(0.109697 -0.00265983 3.20378e-24)
(0.11055 -0.00261017 1.19124e-23)
(0.110129 -0.00264059 0)
(0.108832 -0.00270126 -6.64737e-24)
(0.109267 -0.00268168 6.66928e-24)
(0.107955 -0.002738 0)
(0.108396 -0.00272062 0)
(0.107065 -0.00277079 -1.37492e-28)
(0.107512 -0.00275483 0)
(0.106161 -0.00280132 0)
(0.106615 -0.00278627 0)
(0.105242 -0.00283089 0)
(0.105703 -0.00281616 0)
(0.104308 -0.00286069 0)
(0.104777 -0.00284571 0)
(0.103358 -0.00289163 0)
(0.103835 -0.00287599 0)
(0.102393 -0.00292441 6.44271e-26)
(0.102877 -0.00290777 0)
(0.101411 -0.00295971 -6.61839e-26)
(0.101904 -0.00294171 0)
(0.100411 -0.00299841 0)
(0.100913 -0.0029786 0)
(0.0993936 -0.00304093 0)
(0.0999047 -0.00301919 0)
(0.0983569 -0.00308798 0)
(0.0988776 -0.00306386 0)
(0.0973 -0.00313988 0)
(0.0978311 -0.00311328 0)
(0.0962211 -0.00319763 0)
(0.0967633 -0.003168 0)
(0.0951189 -0.00326186 0)
(0.095673 -0.00322891 0)
(0.0939917 -0.00333341 -7.70319e-26)
(0.0945585 -0.00329667 0)
(0.0928377 -0.00341343 7.85413e-26)
(0.0934181 -0.0033723 0)
(0.0916561 -0.00350284 -8.00167e-26)
(0.0922505 -0.00345697 0)
(0.0904465 -0.0036022 0)
(0.0910547 -0.00355124 0)
(0.089209 -0.00371162 0)
(0.0898307 -0.00365554 0)
(0.0879596 -0.00383606 8.52469e-26)
(0.088587 -0.00377139 1.08213e-23)
(0.0866999 -0.0039853 -5.63759e-23)
(0.0873253 -0.00390714 0)
(0.0844981 -0.00344538 -3.34104e-23)
(0.0860749 -0.0040679 -3.10547e-25)
(0.0833491 0.00106992 6.25177e-23)
(0.0831225 -0.000477501 0)
(0.110923 0.00234371 -1.19111e-23)
(0.110979 -0.00259012 -2.29638e-23)
(0.0831186 0.00177056 -3.3003e-23)
(0.0842719 0.00320721 1.09818e-24)
(0.0831524 0.00243909 9.39416e-23)
(0.082789 -0.00125945 0)
(0.0828009 -0.00202451 1.12802e-23)
(0.0864021 0.0041485 -9.66709e-23)
(0.0854574 0.00405741 8.24633e-23)
(0.0838686 0.0033008 -8.11385e-23)
(0.0831484 -0.00277556 -3.38769e-23)
(0.0838274 -0.00352145 2.25958e-23)
(0.0854609 -0.00416362 2.21775e-23)
(0.083057 0.000290466 0)
(0.0896258 0.00475796 2.87221e-24)
(0.0881694 0.00477701 5.05754e-25)
(0.0889655 0.00475672 2.24524e-23)
(0.0906425 0.00460559 2.21762e-23)
(0.0901367 0.00468823 -2.22912e-23)
(0.0917554 0.00445564 4.10702e-26)
(0.0911821 0.00452664 0)
(0.0928791 0.00433563 0)
(0.0923211 0.0043928 0)
(0.0939779 0.00422612 0)
(0.0934309 0.00428026 0)
(0.0950574 0.00412271 0)
(0.0945202 0.00417342 0)
(0.0961156 0.00402492 3.80385e-26)
(0.0955892 0.00407335 0)
(0.0971533 0.00393101 0)
(0.096637 0.00397748 0)
(0.0981713 0.00384098 0)
(0.0976647 0.00388554 0)
(0.0991703 0.00375465 0)
(0.0986731 0.00379738 0)
(0.100151 0.00367171 0)
(0.0996629 0.00371279 0)
(0.101115 0.00359178 -3.42476e-26)
(0.100635 0.0036314 0)
(0.102061 0.00351456 9.3872e-29)
(0.10159 0.0035529 0)
(0.102993 0.00343965 0)
(0.102529 0.0034768 0)
(0.10391 0.00336711 6.36444e-26)
(0.103453 0.00340312 0)
(0.104813 0.00329661 0)
(0.104363 0.00333163 0)
(0.105701 0.0032279 0)
(0.105259 0.00326207 0)
(0.106577 0.00316067 0)
(0.106141 0.00319414 0)
(0.107438 0.00309447 0)
(0.107009 0.00312748 0)
(0.108287 0.00302858 0)
(0.107864 0.00306155 0)
(0.109124 0.00296247 5.40573e-26)
(0.108707 0.00299559 0)
(0.109948 0.0028954 -3.33977e-24)
(0.109538 0.00292959 0)
(0.11076 0.00282211 3.18012e-24)
(0.110355 0.00285924 0)
(0.111564 0.00274538 3.02161e-24)
(0.111161 0.00278399 -3.09745e-24)
(0.110809 0.00189603 5.99873e-24)
(0.111968 0.00270896 0)
(0.11135 0.00231424 8.91207e-24)
(0.110026 0.00101756 0)
(0.110366 0.00146199 0)
(0.109687 0.000102404 0)
(0.109798 0.00056235 0)
(0.109818 -0.000817738 0)
(0.109694 -0.00035924 0)
(0.110407 -0.00171806 1.22325e-23)
(0.110057 -0.00127317 3.04577e-24)
(0.111399 -0.00256808 2.99336e-24)
(0.110855 -0.00214927 2.39373e-23)
(0.111234 -0.00302585 1.5532e-23)
(0.112036 -0.00297128 2.96569e-24)
(0.111634 -0.00299762 -6.03938e-24)
(0.110424 -0.00307986 3.19239e-24)
(0.110828 -0.00305229 -1.91466e-23)
(0.109602 -0.0031265 -1.3244e-28)
(0.110014 -0.0031033 0)
(0.108766 -0.00316793 0)
(0.109185 -0.00314722 0)
(0.107917 -0.00320751 -1.58164e-28)
(0.108343 -0.00318807 0)
(0.107054 -0.0032452 0)
(0.107487 -0.00322652 0)
(0.106178 -0.0032822 0)
(0.106618 -0.00326373 0)
(0.105286 -0.0033196 0)
(0.105734 -0.0033008 0)
(0.10438 -0.00335829 0)
(0.104835 -0.00333874 0)
(0.103458 -0.00339907 -1.28673e-25)
(0.103921 -0.00337839 0)
(0.10252 -0.00344273 0)
(0.102991 -0.0034205 0)
(0.101566 -0.00349009 0)
(0.102045 -0.00346592 0)
(0.100595 -0.00354174 0)
(0.101083 -0.00351536 0)
(0.0996056 -0.00359838 0)
(0.100103 -0.00356941 0)
(0.0985973 -0.00366059 -7.2172e-26)
(0.0991039 -0.00362875 0)
(0.0975686 -0.00372926 0)
(0.0980855 -0.00369409 0)
(0.0965185 -0.00380514 0)
(0.0970463 -0.00376627 0)
(0.0954457 -0.00388905 7.70319e-26)
(0.095985 -0.00384605 0)
(0.0943492 -0.00398194 -2.21768e-28)
(0.0949004 -0.00393434 0)
(0.0932284 -0.0040845 1.59808e-25)
(0.0937918 -0.00403201 0)
(0.0920832 -0.00419695 0)
(0.0926588 -0.00413952 0)
(0.0909136 -0.00431903 0)
(0.0915013 -0.00425665 0)
(0.0897215 -0.00444923 -2.54086e-28)
(0.0903207 -0.00438415 0)
(0.0885072 -0.00459128 0)
(0.0891159 -0.00451784 0)
(0.0873175 -0.0047631 -3.35267e-23)
(0.0879083 -0.00467321 0)
(0.0848279 -0.00425366 -3.03158e-25)
(0.0867307 -0.00486115 5.69386e-23)
(0.0825461 0.00102318 0)
(0.0873539 0.00478504 1.30284e-22)
(0.0823145 0.00171381 2.25469e-23)
(0.112298 0.00313189 -3.01592e-24)
(0.11268 0.00309503 0)
(0.111818 -0.00254792 2.90931e-24)
(0.11243 -0.00294091 -5.78204e-24)
(0.0823679 -0.00050927 0)
(0.0820429 -0.00128872 0)
(0.0824974 0.00251061 0)
(0.0820671 -0.00206253 -1.111e-23)
(0.0824413 -0.00283709 -2.23597e-23)
(0.0831511 -0.0036017 0)
(0.0841821 -0.00434626 5.75847e-23)
(0.0861237 -0.00496077 -4.59261e-23)
(0.0822862 0.000256877 0)
(0.0902348 0.0053786 -1.08101e-26)
(0.0865014 0.00474953 4.08924e-23)
(0.0887918 0.00546175 -1.45762e-22)
(0.0895109 0.00543722 4.27097e-23)
(0.091508 0.00530264 -1.38856e-23)
(0.0908898 0.00532263 -2.2261e-23)
(0.0925543 0.00516723 0)
(0.0920439 0.00524635 0)
(0.0936161 0.00500635 -4.10665e-26)
(0.0930748 0.00508232 0)
(0.0946778 0.00487463 0)
(0.0941509 0.00493813 0)
(0.0957142 0.00475428 0)
(0.0951987 0.00481357 0)
(0.0967303 0.00464075 0)
(0.0962248 0.00469667 0)
(0.0977264 0.00453289 -3.80385e-26)
(0.0972308 0.00458626 0)
(0.0987037 0.00442941 0)
(0.0982174 0.00448062 0)
(0.099663 0.00433014 0)
(0.0991856 0.00437927 0)
(0.100605 0.00423492 0)
(0.100136 0.00428205 0)
(0.101531 0.00414344 0)
(0.10107 0.00418874 0)
(0.10244 0.00405539 3.40425e-26)
(0.101987 0.00409902 0)
(0.103335 0.00397043 1.06209e-28)
(0.102889 0.00401257 0)