/*--------------------------------*- C++ -*----------------------------------*\
  =========                 |
  \\      /  F ield         | OpenFOAM: The Open Source CFD Toolbox
   \\    /   O peration     | Website:  https://openfoam.org
    \\  /    A nd           | Version:  10
     \\/     M anipulation  |
\*---------------------------------------------------------------------------*/
FoamFile
{
    format      ascii;
    class       volVectorField;
    location    "18.5";
    object      U;
}
// * * * * * * * * * * * * * * * * * * * * * * * * * * * * * * * * * * * * * //

dimensions      [0 1 -1 0 0 0 0];

internalField   nonuniform List<vector> 
28942
(
(-0.0966774 0.0517369 -3.74049e-20)
(-0.095557 0.0460301 -7.86615e-21)
(0.482381 -0.336408 5.69756e-20)
(1.01566 0.0423882 -1.08008e-19)
(0.993958 0.0521893 3.55221e-20)
(0.246399 0.00984875 0)
(0.303292 0.0306123 -2.36005e-22)
(0.338614 0.00888293 3.46457e-22)
(1.2308 -0.137107 3.40018e-21)
(1.21855 -0.123511 -7.71529e-21)
(-0.0748415 -0.198828 -1.42233e-19)
(-0.0332664 -0.175939 6.52668e-20)
(-0.0872919 -0.142539 0)
(-0.102538 -0.159797 0)
(0.696969 -0.0130672 -6.92744e-23)
(0.689005 -0.0101522 -6.1834e-23)
(0.930815 0.0893588 3.13752e-20)
(0.914748 0.0735504 4.99645e-20)
(0.337336 -0.464129 4.62939e-20)
(0.644097 -0.741416 -1.34628e-20)
(0.981841 0.231539 4.29894e-20)
(0.98316 0.216089 0)
(0.0372214 -0.0188867 1.30936e-19)
(-0.0726007 -0.0414777 7.2833e-20)
(0.685476 -0.164207 1.4402e-19)
(1.06609 -0.27718 -1.30888e-19)
(0.197589 -0.479582 4.60455e-19)
(0.205612 -0.400484 -1.80084e-19)
(0.757746 -0.550308 -1.05357e-20)
(0.461221 -0.320115 -4.90568e-21)
(0.245948 -0.0175789 0)
(0.321204 -0.0237053 7.23118e-22)
(0.410841 -0.00304989 7.88311e-21)
(0.561168 -0.0161972 -1.33021e-22)
(0.433768 0.46624 3.67722e-20)
(0.363174 0.511404 -3.72775e-20)
(0.578389 0.667113 -1.3609e-19)
(0.375658 0.593845 -5.22532e-20)
(0.129247 0.0123478 3.43487e-22)
(0.200216 0.463354 -8.97901e-20)
(0.65738 -0.0597518 0)
(0.856354 -0.0778404 0)
(1.34058 -0.365234 1.73968e-21)
(1.31043 -0.38075 -4.97141e-21)
(1.3213 -0.339357 -4.40098e-21)
(0.47803 0.0115994 -8.59882e-23)
(0.450902 0.0222895 1.05788e-22)
(0.60538 0.0119753 1.0043e-21)
(0.587358 0.0114552 -2.84634e-22)
(0.495523 0.00943736 -3.81784e-21)
(0.404624 0.00148218 2.47372e-21)
(1.14291 -0.00808111 2.83674e-21)
(1.14131 -0.0122117 2.07847e-21)
(1.22775 -0.154733 -1.94079e-22)
(1.21368 -0.14098 -8.91423e-22)
(1.33502 -0.194058 1.17204e-19)
(1.54671 -0.270416 6.41384e-20)
(-0.0819061 -0.0813687 -8.60774e-20)
(-0.0714715 -0.111885 0)
(-0.0678821 -0.0724388 3.10145e-20)
(-0.0740978 -0.060592 7.54586e-20)
(-0.0364168 -0.0295014 -6.06177e-20)
(-0.0377346 -0.0330874 -6.34785e-20)
(1.364 -0.587387 0)
(1.5087 -0.511259 2.44824e-20)
(1.39059 -0.447708 -1.08444e-20)
(1.32064 -0.445323 0)
(0.940599 -0.242745 -2.72611e-20)
(0.960847 -0.262262 -1.74833e-20)
(-0.058659 0.0397602 1.24236e-19)
(-0.0736969 0.0452278 -3.96991e-20)
(-0.0960545 0.0668347 1.00193e-19)
(0.94291 -0.33177 0)
(0.95519 -0.292929 9.26023e-20)
(0.891152 -0.449917 2.27765e-20)
(1.40218 0.320648 3.83975e-20)
(1.42884 0.302842 -4.20259e-20)
(1.41009 0.269066 -2.5332e-20)
(0.149517 -0.0847034 2.85078e-21)
(0.213756 -0.134015 -5.83746e-20)
(1.01834 -0.637984 -1.20538e-20)
(0.754304 -0.514598 1.74304e-20)
(-0.0755253 0.0438734 2.14383e-19)
(-0.0795878 0.0453967 -8.24951e-20)
(1.22827 0.583931 -3.52661e-21)
(1.16394 0.550348 -2.23938e-20)
(1.05829 0.648243 1.75427e-20)
(0.907678 0.639049 -6.08342e-20)
(0.867508 0.616468 4.19315e-20)
(0.648754 0.447068 -1.75206e-21)
(0.711972 0.533802 -1.38312e-20)
(0.752685 0.613229 2.18548e-20)
(-0.163662 -0.271225 -1.82854e-20)
(-0.106533 -0.257178 -4.79469e-21)
(-0.148703 -0.227705 9.60248e-21)
(-0.180221 -0.262111 -1.26839e-19)
(-0.177584 -0.282404 1.6174e-19)
(0.363547 0.287352 -8.4079e-20)
(0.409046 0.350102 1.87206e-20)
(-0.0175932 0.0182681 0)
(1.00709 0.00426489 0)
(0.965258 0.0533724 -8.1857e-20)
(0.890186 0.135452 5.89394e-20)
(1.08038 0.118163 0)
(1.38008 0.133481 0)
(1.38416 0.132114 0)
(1.39456 0.138429 3.75154e-20)
(1.078 0.173075 -7.48023e-21)
(1.07428 0.183868 7.80649e-20)
(1.06829 0.162861 4.12223e-20)
(-0.0891965 -0.0984983 1.73682e-19)
(-0.0929259 -0.104888 -1.94859e-19)
(0.0159551 0.0229623 -6.82123e-20)
(-0.0258646 -0.0142597 6.38243e-20)
(-0.092289 0.00288706 1.25446e-19)
(0.161883 0.212334 8.20473e-20)
(0.376404 0.209811 1.98885e-19)
(0.289129 0.424036 1.4967e-20)
(0.128359 0.327783 -4.79705e-19)
(1.24995 0.461018 1.90116e-21)
(1.11038 0.437614 3.80501e-20)
(1.14851 0.42188 -6.56743e-20)
(0.837752 -0.653905 2.07571e-21)
(0.568333 -0.414676 3.94335e-21)
(0.1575 -0.0260832 -2.42965e-19)
(0.148604 -0.100571 0)
(0.308011 -0.0746452 1.31765e-19)
(0.53041 -0.410212 5.63849e-21)
(0.756193 -0.645659 -5.75478e-21)
(0.57389 0.0141437 -1.31419e-21)
(0.60702 0.0133946 4.26737e-22)
(0.535649 0.012842 3.92642e-23)
(0.521216 -0.80346 0)
(0.547839 -0.629106 0)
(1.06211 -0.132659 -1.58927e-20)
(1.04835 -0.114141 9.26676e-20)
(1.03229 -0.0810179 0)
(0.852581 -0.765434 0)
(0.849081 -0.705198 -2.34629e-20)
(0.724442 0.701856 8.65623e-20)
(-0.0876023 -0.106347 1.19828e-19)
(-0.0771999 -0.0864257 -8.96095e-20)
(0.577212 -0.537121 -6.48765e-21)
(1.32186 -0.293281 -2.45149e-20)
(1.30498 -0.301053 4.00275e-21)
(1.51194 -0.201035 -1.90092e-20)
(1.52166 -0.176671 2.54305e-20)
(1.52005 -0.154967 8.80881e-20)
(-0.0752954 -0.0744911 4.14754e-20)
(0.832693 0.685939 1.11039e-19)
(0.964859 0.665691 -3.17243e-20)
(1.04174 0.710536 2.8557e-23)
(0.387697 -0.0120504 -1.85345e-22)
(0.386332 -0.0133976 -1.58243e-21)
(0.424439 -0.0177375 -1.78915e-22)
(0.464806 -0.0151562 4.11506e-22)
(0.78304 0.677281 1.62224e-20)
(0.425103 0.402072 0)
(0.0397602 -0.141887 7.39723e-20)
(0.0271041 -0.0849802 -8.1447e-20)
(-0.0479583 -0.113869 5.89832e-20)
(0.471203 0.0682422 -1.51509e-19)
(0.992221 0.234691 -7.27394e-20)
(0.531401 -0.0161011 2.35711e-22)
(1.29975 -0.472357 2.62349e-20)
(1.25647 -0.551139 6.76424e-20)
(0.962609 0.254025 9.97789e-20)
(0.943461 0.289992 7.57467e-21)
(0.925825 0.173623 5.64635e-20)
(0.942461 0.180315 -4.07899e-20)
(0.986778 0.256239 0)
(1.14027 0.0425846 2.27113e-21)
(1.14594 0.0406958 3.74347e-21)
(1.17153 -0.0897191 1.04973e-21)
(1.18228 -0.0925021 -2.49245e-21)
(1.08983 0.16334 8.60557e-21)
(1.10204 0.17205 -2.40963e-20)
(1.08997 0.173644 0)
(1.07806 0.163028 5.43694e-21)
(1.08771 0.183955 0)
(1.09069 0.236612 -2.03523e-20)
(1.08401 0.249657 -1.16139e-20)
(1.061 0.272197 -2.20331e-20)
(1.07403 0.261836 0)
(1.09329 0.282638 6.90038e-20)
(1.0765 0.295733 2.76221e-21)
(1.04439 0.287637 -1.31146e-20)
(0.991324 0.339732 -5.78692e-20)
(0.991353 0.282467 -1.01472e-20)
(-0.0735748 -0.0294723 2.71957e-20)
(0.00666628 -0.0214339 -1.11744e-20)
(-0.0886899 -0.00471358 -9.22888e-20)
(0.515829 0.0105197 1.3867e-21)
(0.640535 0.0124292 0)
(0.0177575 -0.0208583 7.54006e-20)
(0.0090139 -0.00941783 3.75995e-20)
(0.595991 0.0120654 2.18288e-22)
(0.683784 0.0120753 4.90855e-23)
(0.676471 0.0127939 0)
(0.582972 0.0146169 -9.30083e-24)
(0.975272 0.485617 2.14831e-20)
(0.939952 0.489761 -9.74799e-20)
(0.967204 0.527139 -4.39083e-20)
(-0.0943801 -0.101346 7.47326e-20)
(-0.0346407 -0.0328424 -9.6457e-20)
(-0.0389755 -0.0367104 9.2845e-20)
(-0.0632022 -0.0427363 0)
(-0.0289723 -0.0176017 1.28231e-19)
(-0.0275584 -0.0189744 -1.11555e-19)
(-0.0712275 -0.0189474 -1.14561e-19)
(-0.10107 -0.0426444 -1.1462e-19)
(-0.0602261 -0.0286272 0)
(0.0545842 0.209883 0)
(0.024659 0.126632 0)
(0.00952607 0.0708704 0)
(1.37168 0.12501 -4.99037e-21)
(1.36019 0.114139 0)
(1.37541 0.120839 5.49966e-21)
(0.927414 -0.107379 1.9498e-19)
(0.941023 -0.113631 -7.07908e-20)
(0.937678 -0.0959503 0)
(0.706882 0.489506 3.88415e-22)
(0.683049 0.4789 -8.22549e-22)
(0.734105 0.493519 2.61189e-22)
(0.663345 0.458184 0)
(0.651113 0.424864 4.48526e-22)
(0.645673 0.379972 0)
(0.651293 0.381515 0)
(0.645651 0.324376 -2.63346e-21)
(0.656192 0.320105 0)
(0.651727 0.432817 6.64997e-22)
(0.659285 0.473051 0)
(0.674097 0.499769 -3.5644e-22)
(0.694193 0.515041 4.45088e-22)
(0.7184 0.521174 -2.60902e-22)
(0.652447 0.260501 2.52026e-21)
(0.667024 0.251443 1.08087e-22)
(0.760977 0.495449 -1.71911e-23)
(0.744624 0.522366 3.89144e-22)
(0.784975 0.500113 -1.78738e-21)
(0.66492 0.192198 -2.30556e-24)
(0.682896 0.177681 1.14501e-22)
(0.76883 0.523994 -7.59259e-22)
(0.681361 0.120641 -2.61824e-21)
(0.700856 0.0485161 2.6163e-21)
(0.701908 0.102108 -2.24035e-22)
(0.723352 0.0270246 -4.46627e-22)
(0.806527 0.507636 1.73851e-21)
(0.789799 0.528684 4.93618e-22)
(0.723001 -0.0220876 0)
(0.747069 -0.0456992 4.40627e-22)
(0.822042 0.521752 -2.2392e-25)
(0.806548 0.538312 2.24826e-25)
(0.746862 -0.0891052 0)
(0.772328 -0.114083 0)
(0.835341 0.538825 0)
(0.819454 0.552078 0)
(0.771989 -0.151119 0)
(0.798393 -0.176804 -1.93224e-22)
(0.845817 0.557964 9.44151e-22)
(0.829006 0.568577 2.34561e-25)
(0.797454 -0.20681 -9.35635e-24)
(0.824359 -0.232526 2.054e-22)
(0.854669 0.577642 -9.48511e-22)
(0.836234 0.586161 0)
(0.822782 -0.255497 0)
(0.84979 -0.280666 0)
(0.861887 0.597054 6.5991e-23)
(0.84144 0.603579 -1.18586e-21)
(0.847189 -0.29655 -9.18572e-22)
(0.873896 -0.32064 0)
(0.867346 0.615643 7.21953e-23)
(0.844587 0.620085 1.12528e-21)
(0.870255 -0.329967 1.33865e-21)
(0.896529 -0.352727 4.21423e-22)
(0.870105 0.633156 -1.19308e-21)
(0.845524 0.635029 0)
(0.891744 -0.356036 -4.17347e-22)
(0.91695 -0.376848 -2.72881e-22)
(0.871701 0.647842 6.85577e-22)
(0.844127 0.647199 -1.38642e-21)
(0.910605 -0.374524 1.53516e-21)
(0.934863 -0.393533 -1.72821e-21)
(0.868712 0.659182 -7.7963e-22)
(0.839397 0.655434 -2.555e-23)
(0.927277 -0.386925 0)
(0.95005 -0.403425 -8.08124e-22)
(0.864211 0.66451 1.7169e-21)
(0.831952 0.657721 -3.38456e-21)
(0.942519 -0.394146 0)
(0.963238 -0.407857 0)
(0.899608 0.659809 7.71233e-22)
(0.897589 0.668063 3.58438e-21)
(0.855001 0.662351 0)
(0.819812 0.65212 1.85653e-21)
(0.895278 0.628931 3.92996e-22)
(0.89915 0.646165 -8.13761e-23)
(0.882018 0.589095 0)
(0.889754 0.609706 1.17865e-21)
(0.862556 0.546629 1.89085e-24)
(0.872938 0.567951 0)
(0.837314 0.505925 0)
(0.850896 0.525603 0)
(0.801059 0.47642 0)
(0.821764 0.488635 0)
(0.751382 0.464589 -4.13129e-22)
(0.778481 0.468312 -1.06144e-22)
(0.696543 0.453487 4.22608e-22)
(0.723203 0.460777 3.58813e-22)
(0.655695 0.412249 -1.01149e-21)
(0.672545 0.438734 -9.77692e-22)
(0.641152 0.325526 0)
(0.645348 0.37451 0)
(0.652573 0.203879 5.03952e-24)
(0.643876 0.267695 0)
(0.682734 0.0683541 0)
(0.665865 0.13674 0)
(0.724717 -0.0638798 0)
(0.702568 0.000915954 0)
(0.773093 -0.179574 0)
(0.748478 -0.124433 0)
(0.822254 -0.270291 0)
(0.797868 -0.228351 0)
(0.867643 -0.33298 0)
(0.845528 -0.305026 0)
(0.906888 -0.369825 4.4689e-22)
(0.887675 -0.353935 0)
(0.923478 -0.379471 1.13243e-22)
(0.955814 -0.396546 -1.4135e-22)
(0.974529 -0.407663 1.40156e-22)
(0.958668 -0.409715 0)
(0.984099 -0.419638 6.93602e-22)
(0.9726 -0.417473 3.76118e-22)
(0.922919 -0.373451 -1.49505e-22)
(0.94194 -0.395261 5.7474e-22)
(0.877901 -0.30528 -6.15748e-24)
(0.90131 -0.343498 0)
(0.826508 -0.203132 0)
(0.852721 -0.258353 0)
(0.773468 -0.0709673 0)
(0.799827 -0.140248 0)
(0.724644 0.0807728 0)
(0.748164 0.00328987 -1.00209e-27)
(0.685277 0.236593 -8.12687e-24)
(0.703467 0.159405 0)
(0.662013 0.377045 0)
(0.671083 0.310025 0)
(0.660452 0.481843 0)
(0.657889 0.435383 0)
(0.685442 0.536017 0)
(0.670004 0.515415 3.4863e-22)
(0.729945 0.547608 -5.57664e-23)
(0.705713 0.545725 4.27669e-22)
(0.773935 0.548754 0)
(0.752996 0.547288 3.04818e-22)
(0.804345 0.563808 0)
(0.791379 0.554006 0)
(0.819362 0.592132 0)
(0.81339 0.57709 0)
(0.82387 0.621696 0)
(0.822773 0.60738 0)
(0.81884 0.643552 3.46077e-22)
(0.82274 0.634059 0)
(0.802084 0.648153 1.7053e-21)
(0.812265 0.648819 3.70101e-22)
(0.787932 0.639678 -1.89805e-21)
(0.892302 0.669111 -3.76443e-21)
(0.938079 -0.384205 -2.2993e-22)
(0.99339 -0.417162 5.17242e-22)
(0.80361 0.636021 0)
(0.77001 0.621163 0)
(0.883438 0.660963 0)
(0.841876 0.650178 0)
(0.930558 0.657767 0)
(0.930892 0.67339 -8.58478e-22)
(0.932047 0.668856 -7.56399e-22)
(0.920111 0.62275 -7.91869e-22)
(0.926446 0.641867 1.65836e-22)
(0.90206 0.579994 -1.9261e-24)
(0.911712 0.601873 0)
(0.879487 0.535193 0)
(0.891274 0.557638 0)
(0.852857 0.491408 0)
(0.866737 0.512933 0)
(0.818731 0.455194 0)
(0.837137 0.471647 0)
(0.770367 0.436142 0)
(0.796816 0.443162 0)
(0.713571 0.425616 1.6456e-24)
(0.742453 0.431218 -3.99846e-22)
(0.664974 0.395276 1.46223e-24)
(0.686229 0.414854 8.93685e-22)
(0.641331 0.323094 0)
(0.64978 0.364839 0)
(0.645011 0.213386 -2.30473e-24)
(0.639989 0.271749 0)
(0.669665 0.0858428 0)
(0.655258 0.150638 0)
(0.70787 -0.0415988 0)
(0.687448 0.0211542 0)
(0.753762 -0.155229 0)
(0.730202 -0.100783 0)
(0.80186 -0.24642 0)
(0.777824 -0.203944 0)
(0.847477 -0.31156 0)
(0.825141 -0.282216 0)
(0.887781 -0.352 -3.03762e-22)
(0.868248 -0.33451 0)
(0.966753 -0.394608 0)
(0.950327 -0.384488 -1.78707e-22)
(0.920959 -0.370783 0)
(0.905231 -0.363787 -2.66918e-22)
(1.00495 -0.429245 -8.56362e-22)
(1.01233 -0.424779 -1.81249e-22)
(1.00072 -0.411012 -1.22047e-21)
(0.983618 -0.403461 0)
(0.983273 -0.423811 0)
(0.995352 -0.429253 1.30186e-21)
(0.95107 -0.392747 -5.40705e-24)
(0.968279 -0.411861 -5.78241e-22)
(0.908541 -0.329165 6.15748e-24)
(0.930896 -0.365328 0)
(0.85797 -0.229638 0)
(0.884011 -0.283851 0)
(0.803784 -0.0973665 0)
(0.830975 -0.167085 0)
(0.751753 0.0573948 0)
(0.777132 -0.0219098 1.00209e-27)
(0.707553 0.219029 1.70938e-23)
(0.728325 0.138516 0)
(0.6773 0.36839 0)
(0.690291 0.296453 0)
(0.666627 0.485302 -2.20128e-22)
(0.669057 0.432317 0)
(0.681143 0.55193 0)
(0.67077 0.525334 2.19192e-22)
(0.717678 0.570118 -3.31059e-22)
(0.697099 0.566038 -3.52547e-22)
(0.759807 0.567911 0)
(0.739129 0.569385 0)
(0.790428 0.5747 0)
(0.777283 0.569153 0)
(0.804351 0.596171 0)
(0.799258 0.584211 0)
(0.805638 0.620588 0)
(0.806337 0.608807 0)
(0.796194 0.636854 -5.39673e-24)
(0.80233 0.6303 0)
(0.774928 0.635466 6.13446e-24)
(0.787176 0.63907 0)
(0.739306 0.603107 1.85614e-21)
(0.758764 0.623978 -1.85498e-21)
(0.926377 0.669234 -2.2125e-21)
(0.748051 0.591033 0)
(0.715934 0.570835 4.37298e-21)
(0.783857 0.608382 0)
(0.934191 -0.373145 0)
(1.0177 -0.416779 1.5626e-22)
(0.870937 0.642059 -6.45529e-21)
(0.918136 0.654348 -2.78301e-21)
(0.722777 0.547996 -1.39712e-21)
(0.689951 0.52617 -5.61637e-21)
(0.8251 0.62627 0)
(0.904448 -0.356201 -7.61081e-22)
(0.918789 -0.36084 3.57087e-22)
(1.00581 -0.402048 2.59918e-22)
(1.02104 -0.406166 -1.26565e-21)
(0.964805 0.663089 -8.82134e-21)
(0.906078 0.627027 5.20814e-21)
(0.945547 0.605805 2.82674e-20)
(0.95671 0.640389 5.30757e-21)
(0.969401 0.673762 -1.80795e-21)
(0.96911 0.673498 6.95121e-21)
(0.960914 0.652618 1.64472e-21)
(0.966519 0.666109 1.53504e-21)
(0.944255 0.614133 3.07364e-22)
(0.953557 0.634729 3.33229e-22)
(0.921987 0.568871 1.9261e-24)
(0.933602 0.591906 0)
(0.896377 0.522258 0)
(0.909544 0.545544 0)
(0.868065 0.47648 0)
(0.882579 0.499159 0)
(0.834894 0.435599 0)
(0.852456 0.454854 0)
(0.790154 0.409258 0)
(0.814336 0.42008 0)
(0.733014 0.396912 0)
(0.762515 0.402363 0)
(0.678672 0.37437 -3.58063e-25)
(0.70414 0.388959 0)
(0.64605 0.316118 0)
(0.658947 0.350536 0)
(0.641521 0.219288 -1.47756e-24)
(0.640398 0.271674 0)
(0.660185 0.100702 0)
(0.648483 0.161482 0)
(0.694225 -0.0210833 0)
(0.675706 0.0392133 0)
(0.737301 -0.131962 0)
(0.714987 -0.0785462 0)
(0.783875 -0.222984 0)
(0.76045 -0.1803 0)
(0.829185 -0.289978 0)
(0.806913 -0.259538 0)
(0.869983 -0.333465 -1.21205e-22)
(0.850295 -0.314512 6.52175e-23)
(0.888092 -0.347236 4.07324e-22)
(0.975294 -0.389399 9.65252e-23)
(0.945536 -0.37208 -3.24995e-22)
(0.9603 -0.38134 3.09864e-22)
(0.990636 -0.396422 0)
(1.02591 -0.436704 5.82359e-22)
(1.03451 -0.420799 1.41231e-21)
(1.03128 -0.430362 -1.31898e-21)
(1.00864 -0.436052 0)
(1.0185 -0.438898 0)
(0.980521 -0.410496 -2.75564e-25)
(0.99583 -0.426857 0)
(0.941257 -0.35202 0)
(0.962222 -0.385776 0)
(0.892324 -0.255976 8.21821e-24)
(0.917799 -0.308723 0)
(0.837716 -0.124599 0)
(0.865396 -0.194234 0)
(0.783065 0.0322271 0)
(0.810019 -0.0484726 0)
(0.734292 0.198717 -8.96925e-24)
(0.75758 0.115418 0)
(0.697285 0.355926 -9.21044e-24)
(0.713961 0.279709 0)
(0.677774 0.483504 0)
(0.684931 0.424787 0)
(0.681627 0.562753 0)
(0.676606 0.5299 0)
(0.708854 0.589508 0)
(0.69268 0.581962 0)
(0.74691 0.586594 0)
(0.72766 0.589637 0)
(0.777176 0.585649 5.01469e-24)
(0.763946 0.584403 0)
(0.790538 0.599146 0)
(0.785976 0.590899 0)
(0.789164 0.617576 0)
(0.791421 0.60864 0)
(0.775837 0.628042 2.60977e-25)
(0.783978 0.62446 0)
(0.750271 0.620237 -4.63112e-25)
(0.764648 0.627094 0)
(0.711961 0.582904 -6.5842e-24)
(0.732712 0.606045 0)
(0.661991 0.504055 4.27033e-21)
(0.688019 0.549164 -9.05346e-22)
(0.662759 0.470084 -1.17208e-21)
(0.634675 0.448216 -2.0767e-21)
(0.85471 0.610328 2.2991e-21)
(0.760168 0.567803 2.51434e-21)
(0.931197 -0.361811 -6.94219e-23)
(1.03629 -0.408931 -1.07834e-21)
(0.887856 0.585063 -4.35924e-22)
(0.69529 0.491788 0)
(0.925491 0.541577 -4.6945e-20)
(0.606633 0.381979 -3.70048e-21)
(0.634905 0.40376 -5.44222e-21)
(0.987407 0.552155 8.29524e-20)
(0.998306 0.502154 -1.58139e-20)
(0.805168 0.590203 0)
(1.00228 0.627177 -6.61356e-21)
(0.997085 0.591531 -3.89754e-21)
(1.01158 0.668991 -5.22657e-21)
(1.00812 0.653256 8.80094e-21)
(1.007 0.670885 1.9159e-21)
(1.0113 0.67433 1.10159e-21)
(0.9907 0.644485 -7.61945e-22)
(0.999875 0.660351 -9.69442e-22)
(0.967933 0.602986 0)
(0.98 0.624907 1.82659e-23)
(0.941613 0.555983 0)
(0.955088 0.579786 0)
(0.913256 0.508242 -1.27185e-24)
(0.927646 0.532047 0)
(0.883395 0.461303 0)
(0.898512 0.484646 0)
(0.850796 0.417175 0)
(0.867698 0.438523 0)
(0.809383 0.384269 0)
(0.831702 0.398641 0)
(0.754625 0.367494 -7.25364e-25)
(0.783458 0.374321 0)
(0.696707 0.350019 -3.31057e-25)
(0.724824 0.36068 0)
(0.655553 0.304609 0)
(0.672996 0.332048 0)
(0.642222 0.221435 2.57066e-24)
(0.645324 0.267308 0)
(0.654227 0.112931 0)
(0.645546 0.169165 0)
(0.683681 -0.00242402 0)
(0.667249 0.0550713 0)
(0.723595 -0.109903 0)
(0.702707 -0.0578399 0)
(0.768235 -0.200112 0)
(0.745639 -0.157542 0)
(0.812785 -0.268394 0)
(0.79078 -0.237111 0)
(0.853624 -0.314396 5.63272e-23)
(0.833894 -0.294135 0)
(0.888895 -0.340683 0)
(0.872106 -0.329914 8.05073e-23)
(0.917396 -0.350515 1.23669e-23)
(0.904072 -0.347451 0)
(0.95488 -0.368189 3.29571e-22)
(0.928836 -0.350403 -1.271e-23)
(0.941711 -0.359751 -1.29052e-22)
(0.981969 -0.381968 -1.36406e-22)
(0.968402 -0.375598 9.16218e-23)
(1.00944 -0.391173 5.07151e-23)
(0.995727 -0.387206 -5.82438e-23)
(1.03685 -0.39553 0)
(1.0232 -0.39397 6.26333e-22)
(1.05134 -0.422959 3.30788e-22)
(1.05041 -0.395619 5.6696e-22)
(1.05154 -0.409912 -1.24916e-21)
(1.04697 -0.442079 2.19119e-22)
(1.05021 -0.433916 0)
(1.03429 -0.446019 0)
(1.04189 -0.446403 0)
(1.011 -0.426216 -2.1761e-25)
(1.0241 -0.439656 0)
(0.97577 -0.373438 0)
(0.994905 -0.404425 0)
(0.929316 -0.281817 -8.21821e-24)
(0.953792 -0.332591 0)
(0.875068 -0.152443 0)
(0.902857 -0.22143 0)
(0.818442 0.00533343 0)
(0.846672 -0.0762148 0)
(0.765479 0.175719 0)
(0.791132 0.0901118 0)
(0.722055 0.339683 -7.38372e-25)
(0.742227 0.259747 0)
(0.693903 0.476913 0)
(0.705684 0.412954 0)
(0.687074 0.568124 0)
(0.687533 0.529194 0)
(0.703954 0.604958 0)
(0.692735 0.592973 0)
(0.735849 0.603958 0)
(0.719047 0.607273 0)
(0.764713 0.596645 -5.01469e-24)
(0.751746 0.599297 0)
(0.777825 0.601542 0)
(0.773511 0.597484 0)
(0.774443 0.613057 0)
(0.777957 0.607361 0)
(0.757726 0.61741 5.13406e-24)
(0.767643 0.61689 0)
(0.728519 0.603248 -5.6999e-24)
(0.744687 0.613293 0)
(0.687431 0.560295 6.50971e-24)
(0.709332 0.585973 0)
(0.637393 0.480016 -8.78278e-22)
(0.663309 0.525285 1.76343e-21)
(0.582699 0.359094 8.76205e-22)
(0.610288 0.424651 -2.11977e-21)
(0.57828 0.305596 -1.78853e-22)
(0.555175 0.28388 -2.11607e-21)
(0.833061 0.56356 2.9491e-21)
(0.73548 0.515763 0)
(0.868016 0.526245 3.26248e-20)
(0.668061 0.425606 0)
(0.904083 -0.338182 3.97122e-23)
(0.916352 -0.340029 -2.78231e-23)
(1.03621 -0.381143 4.04712e-22)
(1.04828 -0.380257 4.78283e-22)
(0.889302 0.479513 3.49698e-20)
(0.606198 0.326585 5.49591e-21)
(0.966377 0.439348 0)
(1.04506 0.554098 1.05984e-20)
(0.550179 0.220651 2.41411e-21)
(0.528609 0.200841 -3.1526e-21)
(1.03283 0.492206 -2.00162e-20)
(0.781729 0.540359 0)
(1.05598 0.632885 0)
(1.05193 0.599112 8.2105e-21)
(1.05684 0.667646 0)
(1.05847 0.655808 0)
(1.04248 0.663382 0)
(1.05123 0.66965 -1.14139e-21)
(1.01913 0.632881 0)
(1.03164 0.650499 0)
(0.990889 0.589394 0)
(1.00539 0.612107 0)
(0.960733 0.541459 0)
(0.975944 0.565638 0)
(0.929897 0.493191 1.27185e-24)
(0.945375 0.517238 0)
(0.898652 0.445738 0)
(0.914327 0.469371 0)
(0.86632 0.3997 0)
(0.882782 0.422354 0)
(0.828133 0.361248 0)
(0.84847 0.378857 0)
(0.777301 0.338551 2.55976e-25)
(0.804436 0.347889 0)
(0.718419 0.322826 -3.00683e-25)
(0.747896 0.331283 0)
(0.669986 0.288495 0)
(0.69165 0.309512 0)
(0.647358 0.219462 -3.60116e-25)
(0.655055 0.258365 0)
(0.651821 0.12227 0)
(0.646588 0.173358 0)
(0.67611 0.0142484 0)
(0.66201 0.0685373 0)
(0.712502 -0.0891787 0)
(0.69321 -0.0387795 0)
(0.754847 -0.17799 0)
(0.733261 -0.135821 0)
(0.798218 -0.247042 0)
(0.77668 -0.215141 0)
(0.838843 -0.295225 0)
(0.819087 -0.273705 0)
(0.874482 -0.324593 -5.57707e-23)
(0.85751 -0.312224 -8.1734e-23)
(0.890157 -0.333225 1.08181e-22)
(0.962506 -0.362188 1.4891e-22)
(0.938355 -0.347657 0)
(0.950422 -0.355376 1.30572e-22)
(0.986929 -0.372842 0)
(0.974683 -0.368022 -1.51981e-22)
(1.01156 -0.379172 -3.03796e-22)
(0.99926 -0.376608 9.85626e-23)
(1.02391 -0.380672 6.46373e-22)
(1.06802 -0.423047 -1.75124e-22)
(1.0635 -0.393975 -4.58591e-22)
(1.06656 -0.409095 0)
(1.06781 -0.44506 4.29884e-22)
(1.06886 -0.435265 -4.31562e-22)
(1.0601 -0.453591 0)
(1.06513 -0.451504 0)
(1.04211 -0.43956 -1.54064e-25)
(1.05258 -0.450015 0)
(1.01166 -0.392986 0)
(1.02852 -0.420893 0)
(0.968579 -0.306702 0)
(0.991594 -0.355006 0)
(0.915566 -0.18049 0)
(0.943036 -0.248232 0)
(0.857696 -0.0229664 0)
(0.886862 -0.104767 0)
(0.801048 0.150171 -1.1125e-23)
(0.828839 0.0628226 0)
(0.751585 0.319754 9.94882e-24)
(0.775066 0.236661 0)
(0.715081 0.465521 0)
(0.731338 0.396897 0)
(0.697665 0.567949 0)
(0.703639 0.523186 0)
(0.703417 0.615687 0)
(0.697651 0.598623 0)
(0.727278 0.61907 0)
(0.713906 0.621319 0)
(0.753249 0.607356 0)
(0.741152 0.613143 0)
(0.766046 0.603613 0)
(0.761837 0.603991 0)
(0.761394 0.607306 4.50423e-24)
(0.765772 0.605293 0)
(0.741975 0.605156 -4.45799e-24)
(0.753346 0.607805 0)
(0.709893 0.584901 4.63102e-24)
(0.727442 0.597937 0)
(0.666728 0.536775 0)
(0.689528 0.564849 0)
(0.61608 0.453872 0)
(0.642028 0.499886 0)
(0.563399 0.335058 -5.98332e-24)
(0.589641 0.399081 -8.82559e-22)
(0.512566 0.182615 4.56275e-21)
(0.537686 0.262679 0)
(0.503019 0.110392 3.10891e-21)
(0.489045 0.0956392 -4.26729e-23)
(0.809471 0.503085 -1.00753e-20)
(0.709405 0.452394 0)
(0.926788 -0.339199 1.66912e-22)
(1.06011 -0.378189 9.33025e-22)
(0.833015 0.457088 6.03855e-21)
(0.912517 0.412765 -6.05819e-22)
(0.859373 0.397556 -1.93123e-20)
(0.641182 0.350989 0)
(0.57826 0.241991 -1.4605e-21)
(0.997979 0.411247 2.00224e-20)
(0.958084 0.341649 -1.83256e-20)
(0.91001 0.337527 1.70311e-20)
(0.52352 0.128919 3.72534e-21)
(0.480694 0.0161744 -2.3376e-21)
(0.468644 0.00357052 -1.63931e-21)
(0.756375 0.477969 0)
(1.09902 0.558158 -5.19799e-22)
(1.06222 0.432074 4.63162e-22)
(1.08595 0.499435 -4.35156e-21)
(1.10659 0.634056 -3.54011e-21)
(1.10519 0.602595 3.56112e-21)
(1.0984 0.662138 -4.79639e-24)
(1.10491 0.65348 0)
(1.07573 0.652003 0)
(1.0883 0.661007 0)
(1.04573 0.618283 0)
(1.06137 0.637173 0)
(1.01259 0.573609 0)
(1.02934 0.596734 0)
(0.979049 0.525468 -1.35712e-24)
(0.995778 0.549681 0)
(0.946098 0.477261 0)
(0.962491 0.501273 0)
(0.913736 0.429824 0)
(0.929859 0.453466 0)
(0.881507 0.38295 0)
(0.897692 0.406261 0)
(0.846107 0.340401 0)
(0.864635 0.360586 0)
(0.800149 0.311217 4.69389e-25)
(0.824841 0.323731 0)
(0.74295 0.294042 -2.68322e-25)
(0.772359 0.302084 0)
(0.689276 0.268094 0)
(0.714382 0.28378 0)
(0.65734 0.212948 -1.13351e-24)
(0.669862 0.24471 0)
(0.653215 0.128254 0)
(0.651988 0.173545 0)
(0.671472 0.0286715 0)
(0.66008 0.0792518 0)
(0.703864 -0.06997 0)
(0.686373 -0.0215668 0)
(0.743579 -0.156816 0)
(0.723163 -0.115321 0)
(0.785429 -0.226124 0)
(0.764516 -0.193848 0)
(0.825504 -0.276162 -7.5436e-25)
(0.805899 -0.253543 0)
(0.861276 -0.308225 5.60148e-23)
(0.844017 -0.294247 0)
(0.891494 -0.32523 -5.82249e-23)
(0.877144 -0.318447 0)
(0.915311 -0.329924 -2.86346e-23)
(0.904173 -0.328874 4.12804e-23)
(0.946304 -0.343105 -9.04093e-23)
(0.9246 -0.328704 0)
(0.935484 -0.336165 -1.17626e-22)
(0.968374 -0.354602 0)
(0.957348 -0.349254 0)
(0.990515 -0.362644 0)
(0.979437 -0.35908 0)
(1.01271 -0.366487 0)
(1.00164 -0.365116 0)
(1.03483 -0.366358 -4.12533e-22)
(1.02382 -0.366896 -8.80293e-23)
(1.05626 -0.362308 -1.01796e-22)
(1.04567 -0.364813 -7.90763e-22)
(1.07635 -0.390859 -7.1018e-22)
(1.06659 -0.358701 -1.03245e-22)
(1.07154 -0.374882 2.34051e-22)
(1.08424 -0.421134 -1.57434e-22)
(1.08066 -0.406463 9.22734e-22)
(1.08817 -0.445703 -3.20636e-26)
(1.08685 -0.43442 0)
(1.08562 -0.45847 0)
(1.08788 -0.45407 0)
(1.07336 -0.450193 -8.71636e-26)
(1.08091 -0.457616 0)
(1.04842 -0.410238 0)
(1.0626 -0.434794 0)
(1.00965 -0.330175 0)
(1.03073 -0.375514 0)
(0.958825 -0.208317 0)
(0.98551 -0.274193 0)
(0.900539 -0.0523186 0)
(0.930249 -0.133737 0)
(0.840838 0.122329 2.27828e-23)
(0.870478 0.033855 0)
(0.7858 0.296321 0)
(0.812374 0.21067 0)
(0.741291 0.44945 0)
(0.761858 0.376757 0)
(0.7135 0.562175 0)
(0.724926 0.511951 0)
(0.707632 0.621094 0)
(0.707685 0.598605 0)
(0.721855 0.630992 6.19296e-24)
(0.712816 0.630927 0)
(0.743141 0.617243 0)
(0.732732 0.625112 0)
(0.75507 0.605508 0)
(0.751045 0.610251 0)
(0.749813 0.600705 -4.50423e-24)
(0.754633 0.602767 0)
(0.728586 0.591598 4.08569e-25)
(0.740978 0.597557 0)
(0.694446 0.565477 -8.66881e-24)
(0.712969 0.58132 0)
(0.650073 0.512889 0)
(0.673329 0.542956 0)
(0.599402 0.427844 0)
(0.625218 0.474599 0)
(0.547677 0.309261 1.23873e-24)
(0.573309 0.372666 0)
(0.500113 0.16221 0)
(0.523143 0.238771 0)
(0.461691 -0.00739759 2.10491e-21)
(0.479119 0.0795098 0)
(0.452226 -0.0891937 -1.56728e-22)
(0.447825 -0.0959885 -2.99964e-21)
(0.779024 0.430471 0)
(1.02878 0.355209 -2.79458e-20)
(0.807377 0.373767 -4.2282e-21)
(0.903827 -0.320013 2.85843e-23)
(0.913362 -0.320557 0)
(1.05205 -0.346415 -8.95228e-23)
(1.06123 -0.342569 1.7464e-22)
(0.682477 0.378339 0)
(0.614103 0.267846 0)
(0.840588 0.315928 0)
(0.551083 0.150749 1.43831e-21)
(0.498963 0.0325219 2.31341e-21)
(0.462112 -0.08042 0)
(0.440268 -0.180701 -4.1692e-21)
(0.438634 -0.182447 2.47366e-21)
(0.728694 0.404487 0)
(1.12426 0.444732 2.13664e-24)
(0.994051 0.270564 -9.20578e-21)
(1.06855 0.290713 3.29127e-20)
(1.09846 0.371675 -9.26225e-21)
(1.15069 0.562886 2.43518e-21)
(1.14022 0.508881 4.31068e-21)
(1.15338 0.631409 0)
(1.15484 0.603634 0)
(1.13678 0.651988 4.797e-24)
(1.14747 0.647053 0)
(1.10644 0.636746 0)
(1.12273 0.647861 0)
(1.0703 0.600902 0)
(1.08876 0.620554 0)
(1.03285 0.555909 0)
(1.05155 0.579038 0)
(0.996437 0.508238 1.35712e-24)
(1.01444 0.532168 0)
(0.961739 0.460627 0)
(0.97888 0.484352 0)
(0.928534 0.413642 0)
(0.944979 0.437078 0)
(0.896375 0.366723 0)
(0.912371 0.390196 0)
(0.863208 0.321599 0)
(0.880229 0.343561 0)
(0.822383 0.286314 -3.85288e-26)
(0.84427 0.302135 0)
(0.769201 0.265118 -2.35426e-25)
(0.797151 0.274364 0)
(0.713032 0.244122 0)
(0.740344 0.256062 0)
(0.67259 0.2016 3.01744e-25)
(0.689829 0.226503 0)
(0.658932 0.130283 0)
(0.662306 0.16918 0)
(0.669948 0.0404407 0)
(0.661828 0.0866905 0)
(0.697592 -0.0524957 0)
(0.682214 -0.0064965 0)
(0.734259 -0.136756 0)
(0.715197 -0.096221 0)
(0.774249 -0.205802 0)
(0.75413 -0.173404 0)
(0.813425 -0.257252 1.17796e-24)
(0.794149 -0.233746 0)
(0.84894 -0.29165 3.45053e-25)
(0.831769 -0.276466 0)
(0.879328 -0.311648 -6.63909e-23)
(0.864889 -0.303315 5.39095e-23)
(0.892417 -0.317165 -3.61558e-23)
(0.952523 -0.337058 -2.19387e-23)
(0.931836 -0.325744 -3.6521e-24)
(0.942377 -0.331619 6.32011e-23)
(0.972755 -0.34589 0)
(0.962648 -0.341833 0)
(0.992946 -0.351589 1.05168e-27)
(0.982846 -0.34919 0)
(1.01301 -0.35343 0)
(1.00303 -0.352999 0)
(1.03281 -0.351561 -1.70596e-22)
(1.02292 -0.352958 1.74509e-22)
(1.04257 -0.349403 4.30739e-23)
(1.08864 -0.38623 2.53926e-25)
(1.07644 -0.353959 2.04251e-22)
(1.08261 -0.370086 -1.95669e-25)
(1.09952 -0.417238 1.69144e-22)
(1.09429 -0.402056 -1.69429e-22)
(1.10763 -0.443971 3.70698e-24)
(1.10409 -0.43142 0)
(1.11039 -0.460536 4.80844e-24)
(1.1099 -0.454018 0)
(1.10423 -0.457824 -1.88836e-26)
(1.10867 -0.462255 0)
(1.0855 -0.424769 0)
(1.09663 -0.445768 0)
(1.05198 -0.351742 0)
(1.07063 -0.393645 0)
(1.00436 -0.235456 0)
(1.02975 -0.298824 0)
(0.946587 -0.0823429 0)
(0.976399 -0.162696 0)
(0.88458 0.0924931 -1.16578e-23)
(0.915718 0.00354325 0)
(0.824544 0.26963 -1.16346e-23)
(0.853942 0.182047 0)
(0.772473 0.428875 0)
(0.79714 0.352737 0)
(0.734618 0.550816 0)
(0.751373 0.495618 0)
(0.716911 0.620744 0)
(0.722997 0.592738 0)
(0.720201 0.638812 -6.19297e-24)
(0.716278 0.635382 0)
(0.734879 0.625569 5.2809e-24)
(0.727111 0.634274 0)
(0.744869 0.607215 0)
(0.741379 0.615871 0)
(0.739382 0.593713 0)
(0.744311 0.600076 0)
(0.717357 0.577211 4.48628e-25)
(0.73025 0.586645 0)
(0.682092 0.545351 7.45475e-24)
(0.701148 0.563868 0)
(0.637267 0.48882 0)
(0.660623 0.520594 0)
(0.587195 0.402226 0)
(0.612581 0.449436 0)
(0.537056 0.284714 1.19878e-24)
(0.56177 0.347185 0)
(0.492316 0.141359 0)
(0.513733 0.21577 0)
(0.458261 -0.0197298 -1.04328e-21)
(0.473519 0.0624298 0)
(0.44109 -0.182901 -8.51273e-22)
(0.446806 -0.102385 1.8567e-21)
(0.88116 0.249357 3.00822e-20)
(0.925508 0.241257 2.67914e-20)
(0.435665 -0.264496 8.79177e-22)
(0.44245 -0.257028 -8.78749e-22)
(0.754566 0.348456 0)
(0.921089 -0.319478 -3.85415e-23)
(1.07019 -0.337808 7.04197e-22)
(1.03547 0.204981 -6.69018e-21)
(0.655946 0.295264 0)
(0.95668 0.176929 -2.29401e-21)
(0.782239 0.288907 0)
(0.586489 0.177154 0)
(0.809927 0.227238 0)
(0.525999 0.0549095 0)
(0.478866 -0.0644194 0)
(0.447579 -0.174163 4.05901e-22)
(0.433914 -0.267791 9.79345e-22)