/*--------------------------------*- C++ -*----------------------------------*\
  =========                 |
  \\      /  F ield         | OpenFOAM: The Open Source CFD Toolbox
   \\    /   O peration     | Website:  https://openfoam.org
    \\  /    A nd           | Version:  10
     \\/     M anipulation  |
\*---------------------------------------------------------------------------*/
FoamFile
{
    format      ascii;
    class       volScalarField;
    location    "19.5";
    object      p;
}
// * * * * * * * * * * * * * * * * * * * * * * * * * * * * * * * * * * * * * //

dimensions      [0 2 -2 0 0 0 0];

internalField   nonuniform List<scalar> 
6397
(
0.27241
0.260253
0.00518392
-0.00215096
-0.0203155
-0.0117792
0.471315
0.22101
-0.435728
-0.39385
0.318146
0.189841
-0.000969969
-0.00126997
-0.00735989
-0.517332
-0.499281
-0.477362
0.842573
0.784857
0.747878
-0.40064
-0.362197
-0.359126
-0.000827282
-0.00187592
-0.000431041
-0.157499
-0.156586
-0.121407
-0.123753
-0.0103954
-0.00142121
-0.0104555
-0.0109692
8.30887e-05
-0.0100471
-0.00013187
-4.66685e-05
-0.0116616
-0.0121155
0.00014825
-0.116087
-0.0292056
-0.0248124
-0.00432095
-0.0225657
-0.0156123
-0.0162272
-0.0030795
-0.00579164
0.00901493
0.00313247
0.311169
0.29371
0.190941
0.202224
0.0290392
-0.0896354
-0.0953897
-0.0894017
-0.0936242
-0.103525
-0.120205
-0.144317
-0.174256
-0.206858
-0.235877
-0.110331
-0.106249
-0.125651
-0.101169
-0.098138
-0.100032
-0.107198
-0.120606
-0.140415
-0.164616
-0.189824
-0.210421
-0.145023
-0.121266
-0.251712
-0.219768
-0.164687
-0.136603
-0.247507
-0.21153
-0.180109
-0.149588
-0.223786
-0.189471
-0.188274
-0.189067
-0.18883
-0.158057
-0.206519
-0.216562
-0.216988
-0.163364
-0.187118
-0.120754
-0.139863
-0.101438
-0.107985
-0.103511
-0.0998996
-0.127385
-0.112811
-0.162635
-0.14532
-0.177772
-0.175295
-0.149153
-0.169373
-0.123262
-0.272522
-0.210575
-0.249838
-0.24957
-0.272363
-0.174785
-0.213242
-0.11362
-0.140081
-0.0824161
-0.0941172
-0.0742004
-0.0757112
-0.0846203
-0.077075
-0.107619
-0.0954519
-0.122833
-0.11674
-0.182058
-0.152932
-0.205605
-0.0995051
-0.127858
-0.21966
-0.166773
-0.172361
-0.0828891
-0.0698165
-0.0593198
-0.0916813
-0.235492
-0.221661
-0.0884939
-0.15127
-0.226233
-0.237327
-0.176273
-0.204174
-0.125093
-0.148139
-0.0986371
-0.10878
-0.0929262
-0.0934852
-0.106586
-0.0974189
-0.129953
-0.118555
-0.136662
-0.137196
-0.108162
-0.126869
-0.0871102
-0.281388
-0.260092
-0.248786
-0.276599
-0.166357
-0.208688
-0.102409
-0.130848
-0.0686782
-0.0825181
-0.0566774
-0.0608504
-0.0614737
-0.0572117
-0.0788404
-0.0698471
-0.090823
-0.0865466
-0.0931129
-0.169234
-0.144262
-0.198075
-0.186511
-0.130451
-0.129908
-0.104543
-0.0423082
-0.0369604
-0.0549722
-0.0735521
-0.122902
-0.099852
-0.0885002
-0.108844
-0.0842919
-0.169938
-0.202548
-0.171622
-0.0626214
-0.0636584
-0.120868
-0.249458
-0.230892
-0.239703
-0.25227
-0.183026
-0.214751
-0.12438
-0.151331
-0.0908985
-0.104692
-0.0776972
-0.0823211
-0.0818405
-0.0777626
-0.0957004
-0.0889996
-0.0963567
-0.0994925
-0.0701873
-0.0865197
-0.0540867
-0.21672
-0.167965
-0.275303
-0.256862
-0.234965
-0.266064
-0.151121
-0.193674
-0.0878618
-0.115676
-0.0539428
-0.0678641
-0.0398321
-0.0451263
-0.040015
-0.0381017
-0.0517675
-0.0452561
-0.0633816
-0.0589669
-0.0645252
-0.150431
-0.131966
-0.162827
-0.0362261
-0.10424
-0.0896373
-0.0639495
-0.078948
-0.0555731
-0.0706389
-0.141888
-0.140984
-0.0998011
-0.0800329
-0.0404628
-0.0400755
-0.201932
-0.168135
-0.0393314
-0.0469559
-0.0616519
-0.0610069
-0.100554
-0.252604
-0.232351
-0.243336
-0.256603
-0.181935
-0.216044
-0.118747
-0.147982
-0.0799936
-0.0964195
-0.060274
-0.0682867
-0.0558746
-0.0561855
-0.0613221
-0.0583472
-0.0583856
-0.0619732
-0.0370257
-0.0493719
-0.0190594
-0.0256812
-0.0190846
-0.0172251
-0.0316456
-0.0234984
-0.106391
-0.0432674
-0.0699006
-0.201373
-0.152803
-0.252854
-0.238846
-0.208765
-0.241053
-0.128364
-0.168017
-0.0697413
-0.0953774
-0.0380377
-0.0511538
-0.0235041
-0.0292861
-0.0204912
-0.0205358
-0.028478
-0.0234418
-0.0375486
-0.0335211
-0.0396206
-0.129889
-0.117061
-0.138207
-0.0456623
-0.0231497
-0.0607855
-0.0446152
-0.0873951
-0.0822209
-0.135112
-0.060155
-0.0192754
-0.020271
-0.0639587
-0.0741059
-0.00655423
-0.0316566
-0.0752198
-0.0822437
-0.0635144
-0.0401379
-0.0884041
-0.193143
-0.124746
-0.158002
-0.245389
-0.224516
-0.236045
-0.249659
-0.17288
-0.207959
-0.107442
-0.137752
-0.0659021
-0.0837962
-0.0419007
-0.0522783
-0.0308694
-0.0347481
-0.0298654
-0.0297921
-0.0249274
-0.0288
-0.00896513
-0.0175255
0.000242203
-0.00247655
-0.00388714
-0.000896175
-0.0166665
-0.00894039
-0.0444235
-0.028285
-0.0157742
0.0228882
0.00534568
-0.0818691
-0.0439798
-0.174312
-0.128005
-0.218475
-0.208364
-0.172599
-0.203542
-0.10098
-0.135693
-0.0502759
-0.0724492
-0.0222627
-0.0339844
-0.00847139
-0.0141742
-0.00345308
-0.0048518
-0.00763059
-0.00464045
-0.0153155
-0.0117684
-0.0179201
0.00685451
0.0379787
-0.0894131
-0.0653672
-0.0416161
-0.021666
-0.0602767
-0.0448024
-0.0898465
-0.0758768
-0.110871
-0.102037
-0.116482
-0.115753
-0.10624
-0.11338
-0.0962821
-0.0771478
-0.081879
-0.0544297
-0.0860077
-0.0221133
-0.0978078
0.0508206
0.0171156
-0.112684
-0.0913274
-0.122804
-0.110722
-0.0841424
-0.0833093
-0.175996
-0.142442
-0.226669
-0.206629
-0.21799
-0.231248
-0.155792
-0.190286
-0.0913183
-0.121291
-0.049348
-0.0676259
-0.0235861
-0.0350457
-0.00879739
-0.0147934
-0.00357069
-0.0054782
0.00274622
-0.00122461
0.0134275
0.00834375
0.0154493
0.0159388
0.0090757
0.0128023
-0.00336079
0.00390104
-0.0269428
-0.0136053
-0.0630344
-0.0434232
0.0554432
0.0835479
0.0706308
0.0148906
0.0373266
-0.0533852
-0.0150157
-0.1405
-0.0982023
-0.174441
-0.168916
-0.131157
-0.158776
-0.0719937
-0.100247
-0.0309572
-0.048979
-0.00741327
-0.0174235
0.00489112
-0.000316427
0.0108243
0.00862627
0.009228
0.0109914
0.00352087
0.00623548
-0.00183454
0.000885878
-0.00660585
-0.00376606
-0.0101796
-0.0605736
-0.0349707
-0.0483017
-0.0814299
-0.0717242
-0.094304
-0.0892118
-0.0947642
-0.0963643
-0.0823665
-0.090191
0.0622254
0.0936774
-0.122649
-0.0852663
-0.0626065
-0.0730222
-0.0741033
-0.0904191
-0.0516164
-0.107826
-0.0175728
-0.130976
0.0251561
-0.152678
0.100208
0.0725433
-0.163124
-0.10846
-0.156667
0.111688
0.101166
0.107409
-0.130295
-0.0708397
-0.0845134
-0.0513609
-0.0454141
-0.0368087
-0.0866427
-0.094213
-0.0701987
-0.152367
-0.122282
-0.199649
-0.18006
-0.191054
-0.203973
-0.131852
-0.164491
-0.0714534
-0.0995214
-0.0317106
-0.0491382
-0.00652236
-0.0178809
0.00946589
0.00261998
0.0174011
0.0140638
0.0245504
0.0206473
0.0300438
0.0281101
0.0272008
0.0295585
0.0198784
0.0238693
0.00774066
0.014659
-0.0120647
-0.00129004
-0.0395349
-0.024807
-0.054976
0.10552
0.11095
0.0822271
0.0958057
0.040743
0.0639971
-0.0273466
0.0101436
-0.103031
-0.067853
-0.125419
-0.123037
-0.0890528
-0.111208
-0.0442898
-0.0654927
-0.0131204
-0.0269398
0.00580513
-0.00241745
0.0163705
0.0118347
0.0223986
0.019865
0.0228939
0.0234898
0.0180858
0.0208627
0.0122813
0.0146863
0.0059223
0.0095181
0.00177052
-0.0411054
-0.0305349
-0.0604105
-0.0512243
-0.0745626
-0.0683228
-0.0807984
-0.0788346
-0.0769943
-0.0802191
-0.0634623
-0.0712503
-0.0545471
-0.0795305
-0.109014
-0.0550931
-0.140324
-0.0156697
-0.174529
0.0337024
-0.199743
0.0804005
-0.205682
0.0988113
0.0956529
-0.186218
-0.0932664
-0.144941
0.0957572
0.0850993
0.0821979
-0.0950831
-0.0561376
-0.0564075
-0.031421
-0.0240134
-0.039615
-0.0271593
-0.0996631
-0.0756786
-0.0552645
-0.124751
-0.0991877
-0.166188
-0.148624
-0.157948
-0.170361
-0.103503
-0.133438
-0.0490424
-0.074216
-0.0135785
-0.0291413
0.00925594
-0.00114448
0.0249166
0.0179394
0.0344331
0.0302217
0.0407934
0.0379358
0.0414484
0.0420432
0.0360739
0.0391965
0.0283465
0.0325042
0.0167539
0.0231532
0.000405264
0.00907443
-0.0208375
-0.00986181
-0.0422625
-0.0320978
-0.0510385
0.112299
0.105914
0.11329
0.114843
0.095769
0.107073
0.0566245
0.0790238
-0.00473
0.0281594
-0.064012
-0.0376773
-0.0769453
-0.0770002
-0.0506944
-0.0661572
-0.0199241
-0.034579
0.00249007
-0.00761096
0.0171279
0.0106092
0.0259467
0.0221199
0.031461
0.0289925
0.0333843
0.033054
0.0299936
0.032226
0.0239869
0.0271191
0.0164896
0.0205339
0.0112802
-0.0295813
-0.0199972
-0.0471534
-0.038565
-0.0614045
-0.0548992
-0.0696286
-0.0664484
-0.0700746
-0.0708726
-0.0626638
-0.0673072
-0.0486362
-0.056335
-0.0400705
-0.0923809
-0.137347
-0.0614764
-0.182388
-0.0124068
-0.223679
0.0445532
-0.246203
0.082776
-0.240088
0.0839568
-0.203763
0.0656226
0.0676319
-0.147511
-0.0511325
-0.0877986
-0.0188797
-0.121182
-0.0279832
-0.0102211
-0.0172304
-0.0568669
-0.0408015
-0.0959065
-0.0754712
-0.129387
-0.114814
-0.12219
-0.132207
-0.0736924
-0.100495
-0.0254398
-0.0475967
0.00531278
-0.00812208
0.025012
0.0160041
0.0392014
0.0327196
0.0483178
0.044369
0.0518998
0.0508874
0.0489348
0.0510094
0.0426171
0.0459875
0.0346836
0.0389147
0.0239597
0.0297051
0.0101131
0.0174157
-0.00637927
0.00199754
-0.0219549
-0.014572
-0.0306965
-0.0274308
-0.0274949
-0.0307527
0.0907858
0.0626608
0.0780281
0.10804
0.100896
0.111702
0.111673
0.0987014
0.107552
0.0657906
0.084642
0.0172502
0.0426
-0.0251118
-0.00679433
-0.0343036
-0.0340191
-0.0190805
-0.0281404
0.000127983
-0.00924519
0.0155218
0.00841837
0.0264761
0.0214746
0.0337126
0.0305155
0.0384406
0.0362745
0.0410304
0.0401217
0.0392496
0.0407246
0.0336133
0.0365706
0.0252435
0.0298369
0.0135931
0.0197742
0.00652134
-0.0402549
-0.0212827
-0.0312583
-0.0547087
-0.0477728
-0.0643949
-0.0604137
-0.0669074
-0.0665986
-0.0621679
-0.0654
-0.051585
-0.0574829
-0.0371411
-0.044762
-0.0211091
-0.0290579
-0.00775152
-0.0134725
0.0462429
0.0452768
-0.0415487
-0.0213177
-0.10856
-0.173098
0.00826096
-0.0656613
-0.228187
-0.000552767
0.000595066
0.0061844
-0.00410149
-0.268871
0.0542218
-0.27992
0.0766308
-0.255174
0.0663278
-0.202106
0.0465082
-0.135145
0.0258192
0.0241598
-0.0710041
-0.0287882
-0.0136773
-0.1476
-0.0175785
-0.00881301
-0.0391793
-0.0274491
-0.0675695
-0.0529591
-0.0932115
-0.0826197
-0.0873787
-0.0954642
-0.0455456
-0.0689732
-0.00267298
-0.0223674
0.0242802
0.0125982
0.0408385
0.0333647
0.0522238
0.0471019
0.058251
0.0559711
0.05817
0.0589806
0.053839
0.0564552
0.047258
0.0506976
0.0393041
0.0434939
0.0294968
0.0346344
0.0177108
0.0238514
0.00468262
0.0111646
-0.00717234
-0.00177252
-0.0139235
-0.0116106
-0.011925
-0.0138524
-0.00396943
-0.00826504
0.0596074
0.0270743
0.0440906
0.0853474
0.073439
0.101694
0.0949013
0.106878
0.105883
0.09778
0.104224
0.0731615
0.08724
0.0380937
0.0561928
0.00811087
0.02117
-0.00138342
0.000720568
0.00493825
0.000648196
0.0158737
0.0102984
0.0260137
0.0211877
0.0339858
0.0302597
0.0398091
0.0371645
0.0437773
0.0419606
0.0463927
0.0452862
0.0460533
0.0466968
0.0415564
0.0442397
0.0337083
0.0378909
0.022673
0.028614
0.0157024
-0.0347818
-0.0229247
-0.0533615
-0.0449048
-0.0650825
-0.059914
-0.0696023
-0.0683815
-0.066352
-0.0688708
-0.0567502
-0.0622221
-0.0430919
-0.0502569
-0.0278424
-0.0355549
-0.0127035
-0.0201563
-0.00568725
0.00448306
0.00893307
-0.00597938
2.22377e-05
-0.122588
-0.210383
0.00507744
0.0102204
-0.0625802
-0.267219
0.00843949
-0.297582
0.0574419
-0.289036
0.060537
-0.243707
0.0434612
-0.179716
0.0217412
-0.110182
-0.000720267
-0.0499401
-0.00981829
-0.0182806
-0.0149511
-0.00265239
-0.0184039
-0.0289907
-0.0248187
8.57586e-05
0.00281794
-0.173311
-0.00801998
-0.000671318
-0.0236472
-0.0153111
-0.042885
-0.0328968
-0.059839
-0.0526638
-0.0550413
-0.061315
-0.0209691
-0.0404388
0.0165939
-0.000917811
0.0405556
0.0302633
0.054074
0.0482075
0.0617764
0.0585418
0.0643529
0.0637095
0.0621197
0.063751
0.0569787
0.0598233
0.0503389
0.0537859
0.0425899
0.0466124
0.033642
0.0382647
0.0235019
0.0287063
0.0128887
0.018154
0.00346703
0.00788744
-0.00210688
-7.44561e-05
-0.00183852
-0.00285966
0.00239991
0.000169667
0.0052026
0.00428898
0.0284734
0.0130459
0.0567915
0.0432232
0.0795192
0.0689982
0.0950288
0.0882692
0.101081
0.0993865
0.0957297
0.0998571
0.0785859
0.0884811
0.0537839
0.0666093
0.0315908
0.0415891
0.0215086
0.0249216
0.0222743
0.0209641
0.0277914
0.024755
0.0341833
0.0310198
0.0398591
0.0371402
0.0444393
0.0422996
0.0477763
0.0462433
0.0501081
0.0490664
0.0506724
0.0506672
0.0477221
0.0496672
0.0411565
0.044891
0.0314567
0.0365849
0.017832
0.025438
0.00962263
-0.0511525
-0.038447
-0.0698138
-0.0616881
-0.0785967
-0.0755037
-0.0772238
-0.0791075
-0.0678384
-0.073339
-0.0533546
-0.0610407
-0.0366447
-0.0450975
-0.020383
-0.0283488
-0.00566175
-0.0127818
0.00582674
0.000615663
0.0141145
0.0103391
-0.128926
-0.23958
0.00478884
0.0035342
0.0163482
0.0174152
0.0183345
0.00751982
0.00660011
-0.0521749
-0.287826
0.0201546
-0.299695
0.0487158
-0.269208
0.0364978
-0.207977
0.0158512
-0.138703
-0.00711325
-0.0738146
-0.0279324
-0.0263863
-0.033827
-0.0217285
-0.0330836
-0.0481332
-0.0418155
-0.00303754
-0.0480572
0.0165496
0.00987723
0.0189115
-0.190634
0.00997834
0.0135289
0.000618315
0.00559769
-0.0104104
-0.00478151
-0.0223065
-0.0163098
-0.0314453
-0.0277808
-0.0261555
-0.0314359
4.47149e-05
-0.0150759
0.03112
0.016299
0.0518843
0.0429826
0.0626858
0.0582244
0.067361
0.0656384
0.0675256
0.0679431
0.0642134
0.0662167
0.0588019
0.0617123
0.0522478
0.0556309
0.0448455
0.0486468
0.0366553
0.040846
0.0278009
0.032286
0.0189488
0.0233095
0.0112501
0.0148753
0.0063037
0.00832287
0.0054386
0.00533944
0.00702464
0.006115
0.00765495
0.00382596
-0.00924025
0.0300079
0.0170042
0.0543394
0.0425857
0.0745197
0.065057
0.0885397
0.0823162
0.0950485
0.0928179
0.0925078
0.0949208
0.0808466
0.0876887
0.0631508
0.072379
0.046227
0.0541231
0.0365463
0.0403698
0.0343861
0.0347257
0.0365731
0.035148
0.0403796
0.0383953
0.0443324
0.0423852
0.0478575
0.0461669
0.0506512
0.0493519
0.0526504
0.0517451
0.0533959
0.0532326
0.0519054
0.0530428
0.0473146
0.0500127
0.0396355
0.0437952
0.0271438
0.0340766
0.0190698
-0.041512
-0.0262579
-0.0703883
-0.0566484
-0.0896939
-0.0815903
-0.0950434
-0.0942321
-0.0873686
-0.0925919
-0.0714011
-0.0801006
-0.0517766
-0.0617852
-0.0319783
-0.0417262
-0.0145713
-0.0228662
-0.000261393
-0.00703942
0.00960252
0.00539288
0.012881
0.00314497
0.0198814
0.00269715
0.00460541
-0.122208
-0.2507
-0.0361898
-0.282771
0.0221427
-0.272946
0.00173153
0.0264929
-0.223655
0.00644622
-0.154762
-0.0170113
-0.0880858
-0.0427491
-0.0279451
-0.0335493
-0.0500326
-0.0399796
-0.0360974
-0.0604395
-0.0569282
-0.00528539
-0.0661025
-0.0655036
0.00461102
0.0215585
-0.002324
-0.0264809
-0.00100957
0.0015576
-0.0140417
-0.191778
0.0181482
0.0212377
0.0197917
0.0138117
0.0162149
0.00746619
0.0107817
0.000240361
0.00381332
-0.00622888
-0.00316247
-0.00926077
-0.00849097
-0.00216815
-0.00746296
0.0177086
0.00633425
0.0417456
0.0301043
0.0586477
0.0513506
0.0671173
0.0637414
0.0699142
0.0690775
0.068817
0.0697673
0.0650377
0.0671852
0.0596326
0.0624899
0.0532918
0.0565491
0.0463194
0.0498748
0.0388262
0.0426323
0.0309927
0.0349266
0.023395
0.0271151
0.0168938
0.0199524
0.0124663
0.014368
0.0107771
0.0112908
0.0107524
0.0107322
0.0100093
0.0105611
0.00715888
0.00888084
-0.00225187
0.00189545
0.00475985
-0.0114634
-0.0204497
0.00955583
-0.0012602
0.031508
0.0205522
0.0522939
0.0421923
0.069942
0.0616344
0.082606
0.076908
0.089096
0.0866685
0.0883696
0.0896417
0.0804995
0.0852193
0.0677724
0.0744822
0.0547639
0.0610052
0.0460728
0.0497699
0.0426292
0.0437787
0.0428688
0.0424264
0.0449439
0.0437731
0.0476292
0.046261
0.0503001
0.0489893
0.0526045
0.051514
0.0543247
0.0535432
0.0551474
0.0548854
0.0544665
0.0550801
0.051466
0.0533024
0.045522
0.0488968
0.0351856
0.0410543
0.0188638
0.0277214
0.00845367
-0.0600328
-0.0422089
-0.0918218
-0.0767188
-0.111849
-0.103892
-0.113455
-0.11497
-0.0994551
-0.108024
-0.0768547
-0.0887786
-0.0519846
-0.064384
-0.0289682
-0.0400743
-0.0101628
-0.0189394
0.0037182
-0.00266784
0.0126183
0.00887295
0.0185899
0.0155775
0.0206096
-0.10547
-0.23989
-0.000973443
0.00629873
0.00452849
-0.0247088
-0.253896
0.00247325
0.00730361
-0.225844
-0.00627144
-0.164707
-0.00262327
-0.0368293
-0.0219678
-0.021749
-0.0372746
-0.0299682
-0.0939741
-0.0546132
-0.0558947
-0.0361109
-0.00664206
-0.00614938
-0.0701554
-0.0757848
-0.00234436
-0.0821427
-0.0863747
0.00936199
-0.0882663
0.0221992
0.0225902
0.0231404
0.0231328
0.0068587
0.00108519
0.0238047
-0.177165
0.019844
0.0210855
0.0167548
0.0183965
0.0126326
0.0147752
0.00849043
0.0104722
0.00576883
0.00683763
0.00676276
0.00560501
0.015131
0.00982512
0.0311542
0.0223167
0.0494122
0.0405677
0.0624974
0.0568072
0.0689804
0.0664538
0.0705954
0.0702782
0.0688774
0.0700695
0.0649741
0.0671341
0.0597254
0.0624816
0.053696
0.0567828
0.0471817
0.0504882
0.0403293
0.0437887
0.0333481
0.0368332
0.0266976
0.0299445
0.0210345
0.0237013
0.0170132
0.0187929
0.01486
0.0157247
0.0139549
0.0143227
0.0126315
0.0133906
0.0100919
0.0115504
0.00824938
-0.0156713
-0.0198986
-0.00259609
-0.0098163
0.0145813
0.0056604
0.0329467
0.0237438
0.0506238
0.0419655
0.0659608
0.0586899
0.0773117
0.0721991
0.0835103
0.0810692
0.0839303
0.084448
0.0786574
0.0819185
0.0694122
0.0743386
0.0594146
0.0643366
0.051903
0.0552362
0.0480805
0.0495592
0.0472467
0.0473761
0.0481965
0.0475719
0.0499669
0.049026
0.0519653
0.0509631
0.0538333
0.0529339
0.0553026
0.0546312
0.0561097
0.0558232
0.0558226
0.056166
0.0538062
0.055078
0.0492392
0.0518778
0.0409501
0.0455412
0.0265253
0.0336887
0.0152324
-0.0418744
-0.0082123
-0.0254242
-0.0778069
-0.0590603
-0.112908
-0.0961206
-0.133416
-0.125782
-0.131533
-0.135179
-0.111818
-0.123392
-0.0832535
-0.0980752
-0.0536189
-0.0682106
-0.0274824
-0.0399401
-0.00705477
-0.0164763
0.00689379
0.000666561
0.0154254
0.0118078
0.0208647
0.0182086
0.0224265
-0.00380927
0.003214
-0.0876928
-0.212779
0.00623182
-0.0287386
-0.212337
-0.0193473
-0.00636399
-0.00194596
-0.0150245
-0.0246237
-0.171482
-0.00234106
-0.0349637
-0.0477859
-0.103606
-0.0560837
-0.074852
-0.0354587
-0.0114377
-0.0094701
-0.0764601
-0.0996727
0.00879685
-0.0124998
-0.0950817
-0.113373
0.0220781
-0.108945
-0.115223
0.0240197
0.00135649
-0.00631247
0.00239348
-0.154386
0.0227908
0.0239011
0.0233426
0.0211565
0.0219917
0.0190491
0.0201371
0.016603
0.0178211
0.0146399
0.0154787
0.0144259
0.0142201
0.0177324
0.0155171
0.02671
0.0214115
0.0399799
0.0328418
0.0542141
0.0473646
0.0643307
0.0599271
0.0692533
0.0673741
0.070104
0.0700965
0.0681163
0.0693915
0.0642839
0.0663762
0.0592939
0.0619017
0.0536286
0.0565205
0.0475775
0.05064
0.0413066
0.0444586
0.0350374
0.0381527
0.0291432
0.032016
0.0241152
0.0264905
0.0204144
0.0220852
0.0180938
0.0191033
0.0166919
0.0173272
0.0152523
0.0160484
0.013156
0.0142808
0.0106783
0.01185
0.00944123
0.00975409
0.00226966
0.0112073
0.0097693
-0.00979911
-0.00912585
-0.00529383
-0.0084189
0.00506854
-0.000730272
0.0189419
0.0117064
0.0342476
0.0265232
0.0493287
0.0418791
0.0625604
0.0562996
0.0726562
0.0680835
0.0784594
0.0761028
0.0795649
0.079599
0.0760724
0.078325
0.0693089
0.072952
0.0616028
0.0654784
0.055273
0.0581597
0.0515403
0.0530838
0.0501745
0.0506135
0.0504154
0.0501483
0.0515345
0.0509051
0.0530113
0.0522538
0.0544971
0.0537705
0.0557345
0.0551629
0.0564651
0.0561884
0.0563449
0.056549
0.0548362
0.0557997
0.0511975
0.0533104
0.044227
0.0481936
0.0314339
0.0386301
0.0127578
0.0237582
0.00784767
-0.0522477
-0.0337975
-0.0919677
-0.0717678
-0.129871
-0.111744
-0.150557
-0.143191
-0.146036
-0.151335
-0.12202
-0.135843
-0.0889772
-0.105979
-0.0557442
-0.0719961
-0.0271267
-0.040692
-0.00512219
-0.0152436
0.00950691
0.00309257
0.0179249
0.0143829
0.0226611
0.0204854
0.0244736
0.0239177
0.0247453
0.0248088
0.0151558
-0.0816277
-0.182587
0.0244026
-0.0209356
0.00329691
-0.00944173
-0.0540027
-0.173238
0.0135481
0.00358579
0.00122524
-0.0306193
-0.0710795
-0.123059
-0.00820877
-0.0544935
-0.100692
-0.05048
-0.016293
-0.0112224
-0.0792272
-0.128374
0.0124922
-0.0197762
-0.103711
-0.146558
0.040764
-0.0183588
-0.126238
-0.150952
0.0333417
-0.142223
0.0169602
0.0254597
0.0280885
0.00949816
0.0178122
-0.13728
0.0237068
0.0236438
0.0234454
0.0230668
0.0233461
0.0220435
0.0225338
0.0207821
0.0214023
0.0195819
0.0201327
0.0191463
0.0192054
0.0205301
0.019543
0.0249766
0.0223016
0.0336181
0.0287255
0.0450139
0.0390165
0.0565109
0.0510208
0.0645769
0.0610685
0.0684281
0.0669846
0.0688409
0.0689925
0.0668051
0.0680668
0.0631587
0.0651371
0.0584938
0.0609247
0.0532194
0.055909
0.0476232
0.0504498
0.041883
0.0447595
0.0362181
0.0390241
0.0309423
0.0335105
0.0264298
0.0285686
0.0230101
0.024575
0.0206973
0.0217331
0.0191319
0.0198547
0.0178066
0.0184638
0.0161941
0.0170074
0.0148465
0.0154221
0.0150776
0.0146917
0.0182013
0.0160991
0.0215697
0.0140528
0.0266593
0.0195124
0.00452276
0.00893531
0.000550164
0.00153533
0.00349772
0.00115688
0.0116079
0.00699826
0.0227167
0.0167974
0.0355174
0.0289861
0.0483474
0.0419985
0.0597616
0.0543132
0.0686142
0.0645515
0.0739789
0.0717548
0.0754671
0.0752005
0.0732138
0.0747539
0.0682325
0.0709557
0.062243
0.0652193
0.057022
0.0594564
0.0535979
0.0550714
0.0520185
0.0526072
0.0518279
0.0517886
0.0524895
0.052085
0.0535615
0.052998
0.0547233
0.0541479
0.0557336
0.0552622
0.0563455
0.0561108
0.0562656
0.0564222
0.0550379
0.0558351
0.0520042
0.0538184
0.0461489
0.0495533
0.0358434
0.0416405
0.0217374
0.0291839
0.00864366
0.0144095
-0.0559969
-0.0373859
-0.0991042
-0.0770926
-0.138815
-0.120164
-0.159664
-0.152353
-0.15379
-0.160087
-0.127685
-0.142611
-0.0923361
-0.110473
-0.0571834
-0.0743251
-0.0272253
-0.041402
-0.00415733
-0.0148014
0.0114202
0.00459099
0.0199873
0.0164605
0.0240521
0.02232
0.0253827
0.0250154
0.0251351
0.0254311
0.0247543
-0.0024506
-0.0968734
-0.16504
0.0209646
0.0260174
0.0322468
0.00564057
0.0228054
0.00723367
0.0110491
-0.0245086
-0.099966
-0.149726
-0.00812598
-0.0499312
-0.132526
-0.0892378
-0.0202343
-0.00995076
-0.0781802
-0.167321
-0.0118269
-0.0274816
-0.107891
-0.188611
0.045319
-0.0233501
-0.0287869
-0.138467
-0.194625
0.0554958
-0.165631
-0.186319
0.0372092
0.0181359
0.00636852
-0.139288
0.0232937
0.0232642
0.0229982
0.0231546
0.0225326
0.0227747
0.0220075
0.0222717
0.0217497
0.021815
0.0223921
0.0219148
0.0247616
0.0233143
0.0296498
0.0268643
0.0367782
0.03309
0.0475314
0.0422463
0.0571089
0.0525762
0.0637515
0.0608613
0.0668974
0.0657304
0.0670962
0.0673085
0.0651445
0.0663365
0.0617554
0.0635901
0.0574318
0.0596848
0.05256
0.0550435
0.0474012
0.0500042
0.042145
0.0447733
0.0370047
0.0395454
0.0322495
0.034562
0.0281749
0.0301109
0.0250231
0.0264779
0.0228139
0.0238128
0.0213047
0.0219944
0.0201462
0.0207043
0.019161
0.0196046
0.0187775
0.0188182
0.0200945
0.0191913
0.0240813
0.0216689
0.0309986
0.0274323
0.0211549
0.0299094
0.0388848
0.0344512
0.0222881
0.0349448
0.027612
0.0137067
0.017732
0.009284
0.0107935
0.0108531
0.00931813
0.0170074
0.013504
0.0260477
0.0212266
0.036757
0.0312988
0.0476197
0.0422383
0.0574208
0.0527206
0.0651404
0.0615858
0.0700378
0.0679686
0.071723
0.0712723
0.0703368
0.0713713
0.0666894
0.0687093
0.0619976
0.064358
0.0577102
0.0597398
0.054672
0.0560155
0.0530597
0.0537028
0.0526188
0.0527204
0.0529597
0.0527183
0.0537173
0.0533074
0.0546055
0.0541606
0.0553966
0.055026
0.0558751
0.0556929
0.0557683
0.0559163
0.0546969
0.0553862
0.0520833
0.0536441
0.0470653
0.049972
0.0385847
0.0433445
0.0270489
0.0330756
0.0150808
0.0204346
-0.0197373
-0.00316897
-0.0539677
-0.035846
-0.0976381
-0.0750678
-0.137711
-0.11914
-0.158804
-0.151277
-0.15273
-0.159826
-0.127399
-0.142071
-0.0921954
-0.110293
-0.0570242
-0.0741758
-0.0270663
-0.0412493
-0.00379033
-0.0145855
0.012504
0.00526581
0.0215487
0.017873
0.0251845
0.0237808
0.025965
0.0258452
0.0252846
0.025773
0.0245129
0.0140247
0.0302261
-0.0171611
-0.135478
-0.170101
0.0217202
0.0446893
-0.00424483
-0.0428241
-0.16531
-0.146376
0.019847
0.0385578
0.0462709
-0.0213934
0.042932
0.0346123
-0.00262654
-0.0737708
-0.210664
-0.072519
-0.0340625
-0.10752
-0.245545
0.00992587
-0.025965
-0.0399347
-0.144489
-0.25334
0.0603204
-0.0377092
-0.182929
-0.24076
0.050903
0.0135402
0.0226799
-0.216982
0.0313403
0.00508944
-0.00806885
-0.165394
0.0225502
0.0224723
0.0226856
0.0226964
0.0227099
0.0227144
0.0227991
0.0227426
0.0232718
0.0229617
0.0246797
0.0238247
0.0276571
0.0259402
0.0327032
0.0299136
0.0396354
0.0359948
0.0486558
0.0441568
0.056724
0.052916
0.0623231
0.0598811
0.0649837
0.0640001
0.0650901
0.0653112
0.0632834
0.0643814
0.0601704
0.061855
0.0561969
0.0582685
0.0517125
0.0539985
0.0469692
0.0493612
0.0421568
0.0445597
0.0374802
0.0397879
0.0331768
0.0352677
0.0294885
0.0312433
0.026602
0.0279406
0.0245511
0.0254791
0.0231956
0.0238016
0.0223079
0.0227062
0.0218459
0.0220099
0.0222909
0.0218941
0.0243878
0.0230517
0.0289
0.0262883
0.0357123
0.0321717
0.0446585
0.0394101
0.0558687
0.0501231
0.0606476
0.041658
0.050544
0.0293683
0.0346742
0.0212789
0.0249765
0.0165718
0.0182978
0.0170896
0.0162235
0.0216947
0.0189968
0.0290087
0.0250857
0.0378757
0.0333345
0.0470392
0.0424872
0.0554422
0.0513939
0.0621702
0.059053
0.0665881
0.0646864
0.0683529
0.0677956
0.0675775
0.0682471
0.0648655
0.0664167
0.0612235
0.0630917
0.0577122
0.0593965
0.0550639
0.056259
0.0535125
0.0541574
0.0529332
0.0531206
0.0530465
0.0529246
0.0535567
0.0532701
0.0542116
0.0538803
0.0548031
0.0545268
0.055137
0.0550165
0.0549705
0.0551324
0.0539718
0.0545996
0.0516325
0.0530088
0.0472359
0.049734
0.0400325
0.0439919
0.0301653
0.0352622
0.019629
0.0246655
0.0106478
0.0146847
-0.0162072
0.00312641
-0.00365241
-0.048227
-0.0311132
-0.0891905
-0.067968
-0.127316
-0.109604
-0.148167
-0.140543
-0.144461
-0.149485
-0.12121
-0.134688
-0.0883092
-0.105311
-0.0548852
-0.0711971
-0.0261845
-0.0398091
-0.00360288
-0.0141272
0.0128175
0.00539818
0.0224423
0.0184926
0.0259997
0.024761
0.0263255
0.0264253
0.02507
0.0258746
0.0220839
0.0238492
0.0209902
0.00353095
-0.0343701
-0.195899
-0.197693
0.0204728
0.0517694
0.00754011
-0.0179663
0.0116496
0.00142601
0.0589118
0.0522812
0.0132037
-0.0667996
-0.24869
-0.160162
-0.0371964
-0.103155
-0.302939
-0.0711449
-0.0241987
0.021874
-0.0500538
-0.14441
-0.329408
0.0150027
-0.0533605
-0.19177
-0.317868
0.057755
-0.0455912
-0.240304
-0.281618
0.0491344
-0.0106255
0.0226994
0.00897224
0.0418925
-0.024663
-0.213375
0.0216098
0.0210688
0.0221688
0.0219307
0.0226091
0.022384
0.02321
0.0228805
0.0242702
0.0236624
0.0262424
0.0251166
0.0296053
0.0277297
0.0346642
0.0319236
0.0412651
0.0378059
0.0489615
0.0451409
0.0558247
0.0525837
0.0606147
0.0585197
0.06291
0.0620614
0.0629745
0.0631852
0.0613249
0.0623262
0.0584789
0.0600206
0.0548401
0.056738
0.0507231
0.0528229
0.0463683
0.0485632
0.0419647
0.0441611
0.0377067
0.0398051
0.0338069
0.0356998
0.0304711
0.0320585
0.0278522
0.0290681
0.0259971
0.0268327
0.0248377
0.0253398
0.0242532
0.0244792
0.0242797
0.0241768
0.0253057
0.0246338
0.0279518
0.0263843
0.0328542
0.0300925
0.0395497
0.0360076
0.0491152
0.0437494
0.059713
0.063183
0.055702
0.0552813
0.0682692
0.0640676
0.0645328
0.0746564
0.0717436
0.0472774
0.0553537
0.0352914
0.0406117
0.0273419
0.0309581
0.0226687
0.024517
0.0223495
0.0219877
0.025702
0.0236574
0.0315477
0.028385
0.0388551
0.0350878
0.0465792
0.0427271
0.0537723
0.0502931
0.0596297
0.056903
0.0635837
0.0618645
0.0653493
0.064735
0.0650036
0.0654126
0.0630105
0.0641586
0.0601562
0.0616352
0.0572783
0.0586757
0.0549876
0.0560386
0.0535363
0.0541579
0.0528824
0.0531228
0.0528289
0.0527975
0.0531388
0.0529539
0.053593
0.0533606
0.0540078
0.0538155
0.054202
0.0541446
0.0539624
0.0541502
0.0529884
0.0535881
0.050827
0.0520859
0.0468782
0.0491035
0.0405604
0.0440132
0.0320146
0.0364357
0.0226901
0.0272202
0.0146002
0.0183961
0.0114186
0.000351489
0.00853667
0.00479919
-0.0149175
-0.00604456
-0.0416914
-0.0267849
-0.0770986
-0.0587588
-0.110975
-0.0950247
-0.130841
-0.123295
-0.129603
-0.132917
-0.110213
-0.121671
-0.0812593
-0.096352
-0.0510123
-0.0658839
-0.0244877
-0.0371274
-0.00328529
-0.0132105
0.0126221
0.00532279
0.022682
0.0184363
0.0264852
0.0252419
0.0264881
0.0267874
0.0246769
0.0257701
0.0218179
0.023289
0.01928
0.020515
-0.0097328
0.0436202
-0.00804489
0.0196067
0.0326941
0.0268313
-0.0294813
-0.05777
-0.274903
-0.241951
-0.0349166
-0.0961221
-0.345704
-0.186558
0.0686036
0.0713923
-0.0161758
0.0340927
0.0600934
0.0544418
0.0678318
0.077108
0.00601833
0.0111216
0.00844613
0.0179202
0.018754
0.0172388
-0.0563697
-0.139877
-0.400084
-0.0811701
-0.0144883
-0.002873
-0.0683233
-0.191962
-0.41059
0.00363699
-0.0511868
-0.0672426
-0.0301171
0.00269391
-0.252556
-0.37484
0.0368871
-0.313823
-0.0456337
-0.278735
0.0192142
0.0185687
0.0204523
0.019822
0.0213947
0.0209717
0.0222362
0.021804
0.0232928
0.0227253
0.024847
0.0239904
0.0272613
0.025927
0.0308844
0.0289094
0.0358823
0.0332178
0.0420752
0.038857
0.0487829
0.045563
0.0546885
0.0518964
0.058826
0.057013
0.0608174
0.0600817
0.0608474
0.0610488
0.059339
0.0602528
0.0567335
0.058148
0.053396
0.0551347
0.0496201
0.051547
0.0456262
0.0476381
0.0416006
0.0436063
0.0377271
0.0396335
0.0341972
0.0359084
0.0311908
0.0326201
0.0288411
0.0299301
0.0272048
0.0279351
0.0262619
0.0266517
0.0259723
0.0260362
0.0264206
0.0260923
0.0279225
0.0270135
0.0310067
0.0292351
0.0360782
0.0332984
0.042988
0.0393
0.0527241
0.0474088
0.0659558
0.0589184
0.0648642
0.0747641
0.0650949
0.0702333
0.0810932
0.0783876
0.0852057
0.0833325
0.0518353
0.0593058
0.0402829
0.0455066
0.0323746
0.0359391
0.0277121
0.0296186
0.026762
0.0267865
0.0290845
0.027586
0.0336981
0.0311694
0.0397039
0.036586
0.0462006
0.0429468
0.0523458
0.0493621
0.0574372
0.0550549
0.0609705
0.0594143
0.0626894
0.0620553
0.0626421
0.0628634
0.0611901
0.0620523
0.0589466
0.0601226
0.056577
0.0577407
0.0545947
0.0555176
0.0532491
0.0538397
0.0525511
0.0528277
0.0523666
0.0524077
0.0525075
0.0524095
0.0527891
0.0526418
0.0530493
0.0529307
0.0531243
0.0531209
0.0528168
0.0530299
0.0518555
0.0524367
0.0498321
0.0510007
0.0462328
0.0482513
0.0406086
0.0436715
0.0330769
0.0369996
0.0247172
0.0288953
0.0171958
0.0207875
0.0139582
-0.00174141
0.00268153
-0.0149362
-0.00771435
-0.0357239
-0.0240178
-0.0642459
-0.0494032
-0.0925612
-0.0790382
-0.110483
-0.1034
-0.111318
-0.113134
-0.0963326
-0.105435
-0.072165
-0.0849132
-0.0458599
-0.0589135
-0.0221249
-0.0335039
-0.00272748
-0.0118524
0.0121457
0.00525097