/*--------------------------------*- C++ -*----------------------------------*\
  =========                 |
  \\      /  F ield         | OpenFOAM: The Open Source CFD Toolbox
   \\    /   O peration     | Website:  https://openfoam.org
    \\  /    A nd           | Version:  10
     \\/     M anipulation  |
\*---------------------------------------------------------------------------*/
FoamFile
{
    format      ascii;
    class       volVectorField;
    location    "35.5";
    object      U;
}
// * * * * * * * * * * * * * * * * * * * * * * * * * * * * * * * * * * * * * //

dimensions      [0 1 -1 0 0 0 0];

internalField   nonuniform List<vector> 
8711
(
(1.07638 0.022048 0)
(1.08067 0.0237368 7.21819e-22)
(1.09373 0.0237639 7.05699e-21)
(1.1258 -0.0119579 -5.87472e-22)
(1.12453 -0.0129438 -1.59466e-23)
(1.13147 -0.0146749 5.7922e-22)
(1.07896 0.00117014 4.0911e-22)
(1.0804 -0.00347044 6.82505e-21)
(0.612339 -0.0148578 -1.22757e-21)
(0.619986 0.0801689 9.31444e-21)
(0.775542 -0.482743 0)
(0.445319 -0.6839 -4.4505e-20)
(0.906574 -0.521939 3.58509e-21)
(0.879504 -0.510148 6.6719e-22)
(1.19906 -0.538574 -5.82455e-21)
(1.1749 -0.556189 0)
(1.18814 0.0781212 1.17795e-21)
(1.19904 0.0890522 -1.03511e-21)
(1.21562 0.0907543 -1.10496e-22)
(1.07604 -0.00414911 3.23994e-21)
(1.08318 -0.00557848 -4.74249e-21)
(1.09467 0.0183147 -2.74441e-21)
(1.08921 0.0189527 0)
(1.09951 0.0262971 -2.87097e-21)
(1.43366 -0.306108 4.74328e-20)
(1.43225 -0.322172 -1.17264e-20)
(1.49561 -0.402151 1.86102e-20)
(1.27256 -0.287409 -3.9149e-20)
(0.813538 -0.0180325 -1.4154e-23)
(0.892698 -0.0166372 1.8924e-23)
(0.97865 -0.0156511 -7.79093e-24)
(1.28503 0.115926 1.86213e-19)
(1.09763 0.183104 4.40136e-20)
(1.48438 0.197256 8.51245e-21)
(1.50691 0.107485 -5.78144e-20)
(1.03885 0.0580497 -5.42131e-20)
(1.04725 0.0700358 1.5934e-20)
(1.03847 -0.0777914 0)
(1.02334 -0.0462365 -5.52426e-20)
(1.02811 -0.0495945 7.75501e-20)
(1.01558 -0.0338324 0)
(1.00845 -0.0184921 0)
(-0.0650026 -0.0551712 9.48617e-21)
(-0.0492536 -0.0926041 9.16453e-20)
(0.510877 0.732738 3.14192e-20)
(0.832121 0.738001 1.53892e-21)
(0.078884 0.0359507 -1.82995e-19)
(0.254551 -0.00218632 6.58211e-20)
(-0.0360353 0.0101534 -9.12952e-20)
(1.08611 -0.0940248 6.63262e-21)
(1.08495 -0.0767022 1.49897e-20)
(1.07564 -0.0825832 5.11729e-21)
(1.07375 -0.0967136 0)
(1.09558 -0.000287128 0)
(1.09299 0.00234324 1.20051e-21)
(1.08972 0.00522097 -1.42465e-21)
(0.901499 -0.512769 -2.17142e-21)
(0.936695 -0.519639 3.86603e-21)
(0.878975 -0.531044 0)
(0.909715 -0.55591 -7.05159e-21)
(1.15849 -0.0546343 1.32207e-20)
(1.16951 0.0574444 6.95831e-21)
(1.11385 0.179985 -1.57944e-20)
(1.10124 0.0771993 -7.07071e-21)
(1.06533 0.00647098 -1.12809e-20)
(1.06846 0.0047864 0)
(1.07698 0.00745472 6.37075e-21)
(1.10116 0.0248486 0)
(1.09933 0.0246674 7.14956e-21)
(1.09176 0.0247116 -3.93178e-22)
(0.986501 0.397638 -2.06916e-20)
(1.02942 0.429639 1.02074e-20)
(1.00152 0.480837 -3.2063e-21)
(0.968337 0.464029 0)
(1.05457 -0.0136331 -5.31528e-21)
(1.05517 -0.0182357 0)
(1.06035 -0.0133495 4.72653e-21)
(1.06059 -0.00848265 -3.6808e-21)
(1.09935 0.0184361 -6.75829e-21)
(1.16253 -0.297278 -5.47057e-23)
(1.19898 -0.305892 -2.69006e-22)
(1.25147 -0.335399 -1.38315e-21)
(1.28292 -0.318611 0)
(1.09799 0.0197124 -1.75119e-21)
(1.09906 0.0228203 -6.95024e-21)
(1.10039 0.0248862 9.51109e-21)
(0.967666 -0.610193 -5.24108e-21)
(0.951051 -0.597804 1.7341e-20)
(0.905534 -0.526249 -2.03576e-22)
(0.925377 -0.566651 -4.07193e-24)
(1.08301 0.00081824 -2.02959e-21)
(1.08504 -0.001249 1.15568e-21)
(1.08532 0.00864134 8.09902e-22)
(1.2076 -0.0997201 -9.10954e-21)
(1.18618 -0.0811309 8.97383e-21)
(1.10645 0.0694727 7.12954e-21)
(1.0943 0.0729525 -3.47158e-22)
(1.08361 0.0629508 -3.62662e-21)
(1.09507 0.0627522 -1.35618e-21)
(1.1305 0.0755454 1.477e-23)
(1.11593 0.056444 0)
(0.975525 -0.151645 -6.81118e-21)
(0.97979 -0.214006 1.76703e-20)
(0.868819 -0.38992 -2.74131e-21)
(0.871649 -0.21796 -1.50764e-21)
(0.888214 -0.0210927 -1.67361e-22)
(0.914654 0.164391 0)
(0.94503 0.316902 -2.24623e-21)
(0.974565 0.425953 2.3915e-21)
(0.999113 0.493655 1.24889e-22)
(1.01706 0.529372 9.7932e-23)
(1.0294 0.540422 -6.12883e-22)
(1.03608 0.53579 8.25697e-22)
(1.03929 0.525011 2.86688e-22)
(1.0371 0.518106 5.62712e-22)
(1.0299 0.520083 -7.00561e-22)
(1.01654 0.530033 -2.91049e-22)
(1.00154 0.531505 -6.97022e-22)
(1.02321 0.544213 1.37787e-21)
(0.981911 0.516462 -1.63248e-21)
(1.00562 0.528614 2.83713e-21)
(1.03749 0.5264 -1.43271e-22)
(1.02845 0.539072 -6.59885e-22)
(1.03511 0.521765 3.34942e-23)
(1.03805 0.51988 -2.76813e-22)
(1.01263 0.529074 -3.06558e-22)
(1.02597 0.528206 -1.50775e-22)
(0.970979 0.474122 0)
(0.994564 0.513683 -9.72379e-23)
(0.907688 0.29172 -2.52431e-22)
(0.941412 0.402706 0)
(0.847826 -0.0324229 9.70584e-23)
(0.875109 0.145272 0)
(0.838788 -0.36166 1.01483e-21)
(0.834956 -0.210258 1.85135e-22)
(0.854341 -0.462709 4.43627e-21)
(0.911687 -0.210725 -2.9348e-21)
(0.904116 -0.392199 -4.46927e-22)
(0.958911 0.18585 -2.72643e-21)
(0.931634 -0.00682263 1.64871e-21)
(1.01289 0.447179 2.27237e-21)
(0.98841 0.34007 2.76157e-21)
(1.04488 0.540378 1.82649e-21)
(1.03318 0.510971 -3.35612e-21)
(1.04945 0.537441 -1.512e-21)
(1.04972 0.545876 1.39315e-22)
(1.03853 0.511782 3.5842e-23)
(1.04634 0.522472 1.17879e-21)
(1.00743 0.514892 -4.86758e-22)
(1.02601 0.509516 8.49418e-22)
(0.961391 0.496146 0)
(0.985488 0.514316 0)
(0.938034 0.44943 8.57593e-22)
(0.902704 -0.560659 -8.38218e-21)
(0.952271 0.380774 -3.56108e-21)
(1.03534 0.484968 3.98859e-21)
(0.919658 0.367241 3.55025e-21)
(0.935131 -0.544321 2.29624e-21)
(0.924151 -0.587382 7.12109e-21)
(1.04646 0.550674 -1.36918e-21)
(1.03576 0.542736 -1.50842e-21)
(1.04766 0.527692 5.74943e-22)
(1.04483 0.544366 4.7323e-22)
(1.03327 0.513393 -5.42368e-22)
(1.04146 0.516695 4.59475e-22)
(0.999257 0.511113 3.03531e-22)
(1.01791 0.515298 0)
(0.946133 0.446727 2.12449e-21)
(0.975217 0.491596 -1.36625e-21)
(0.876048 0.260422 -1.60616e-21)
(0.913624 0.373424 -7.75521e-22)
(0.818131 -0.0473074 -2.92908e-22)
(0.843431 0.116747 1.94374e-21)
(0.812168 -0.350291 -1.84764e-21)
(0.807241 -0.211668 3.77395e-22)
(0.868181 -0.493244 0)
(0.834633 -0.445347 1.55173e-21)
(0.942359 0.266348 1.45858e-20)
(0.906422 0.256237 -4.30922e-21)
(0.945194 -0.5289 -1.22067e-21)
(0.953768 -0.597612 6.04283e-21)
(0.963093 -0.199255 -1.66404e-21)
(0.948638 -0.391036 -7.52801e-22)
(1.01566 0.207515 -3.98325e-22)
(0.986286 0.010292 -7.32091e-23)
(1.05878 0.464607 1.39197e-21)
(1.03971 0.360715 -1.36162e-21)
(1.07656 0.544587 -2.36905e-21)
(1.07225 0.521951 0)
(1.06534 0.532644 2.87192e-22)
(1.07314 0.544867 1.46625e-21)
(1.04181 0.499767 5.39291e-22)
(1.055 0.514207 -5.3462e-22)
(1.00174 0.495725 1.05521e-21)
(1.02493 0.493831 -1.06796e-21)
(0.945191 0.476303 6.84801e-23)
(0.97482 0.493504 3.22835e-23)
(0.89496 0.348925 3.31451e-21)
(0.917336 0.427531 1.18559e-21)
(1.0235 0.283888 2.902e-20)
(0.989237 0.274359 -2.24475e-21)
(0.942374 -0.580872 0)
(0.87928 0.245483 0)
(0.966237 -0.516158 -4.09427e-21)
(0.963629 -0.55132 1.26788e-21)
(0.938054 -0.479288 2.94849e-21)
(0.973515 -0.49275 -2.74659e-21)
(1.06006 0.224002 -1.06223e-19)
(1.04547 0.119532 4.73599e-20)
(1.08782 0.301092 -1.53388e-20)
(0.970652 -0.587458 2.54163e-21)
(0.980225 -0.595834 2.60528e-21)
(1.07825 0.490331 5.11204e-22)
(1.06972 0.436656 -5.38855e-21)
(1.07272 0.550901 0)
(1.0676 0.54354 -4.84425e-22)
(1.0602 0.523058 -1.04851e-21)
(1.06355 0.541336 1.26765e-21)
(1.0346 0.50032 -8.58159e-22)
(1.04762 0.507738 1.04017e-21)
(0.989256 0.488402 -2.71457e-21)
(1.01367 0.497352 1.91274e-21)
(0.927361 0.41696 4.51735e-22)
(0.959834 0.465115 4.58793e-22)
(0.853571 0.229587 0)
(0.890657 0.34036 8.04174e-23)
(0.796526 -0.0606841 3.11115e-21)
(0.820249 0.0909537 -1.67864e-21)
(0.79824 -0.334839 -1.17944e-23)
(0.789783 -0.209985 -1.61707e-21)
(0.85966 -0.462112 -9.82748e-22)
(0.824897 -0.421839 -6.21116e-22)
(0.898624 -0.474238 8.88687e-22)
(0.878673 0.33197 1.23001e-21)
(0.861446 0.233809 0)
(0.989031 -0.61336 -3.54596e-21)
(0.983366 -0.583749 -3.63195e-22)
(0.988955 -0.583281 -3.54429e-21)
(0.991116 -0.601478 1.24517e-21)
(0.989215 -0.524704 2.25146e-21)
(0.984094 -0.60058 -6.87375e-21)
(1.02357 -0.186582 -3.10057e-21)
(1.00096 -0.379228 4.07164e-21)
(1.07655 0.226485 1.93111e-22)
(1.04964 0.0284992 1.07811e-22)
(1.10962 0.474084 0)
(1.09516 0.37693 0)
(1.10933 0.540102 0)
(1.11409 0.52316 0)
(1.08295 0.521015 0)
(1.098 0.53621 0)
(1.04626 0.483582 1.82081e-21)
(1.06565 0.50119 -2.0038e-21)
(0.9985 0.471416 6.98893e-24)
(1.02454 0.473409 0)
(0.935639 0.450916 -7.00828e-23)
(0.968288 0.468072 -3.39168e-23)
(0.903913 0.405987 -2.46247e-21)
(0.939332 0.130059 0)
(0.987457 0.135015 -2.57275e-21)
(0.871882 0.123371 0)
(0.900898 0.126439 0)
(0.967304 -0.571554 -6.95062e-21)
(0.985555 -0.534965 0)
(1.00057 -0.513757 7.23304e-21)
(1.01157 -0.543125 1.96125e-21)
(1.01725 -0.508319 -7.61901e-21)
(1.13187 0.292914 2.18373e-20)
(0.853326 0.119109 2.69995e-21)
(0.979951 -0.582818 -6.52156e-22)
(0.981119 -0.55602 0)
(0.996513 -0.575038 -4.12835e-22)
(0.978683 -0.568763 0)
(0.976298 -0.554128 3.79064e-22)
(0.979351 -0.576576 2.5033e-22)
(1.00193 -0.558847 -4.93195e-22)
(1.0567 -0.533494 1.58502e-21)
(1.04645 -0.56137 -5.66106e-22)
(1.08357 -0.557957 -4.78133e-21)
(1.09754 -0.5256 3.27536e-21)
(1.1367 -0.547681 0)
(1.11909 0.494039 -6.4939e-22)
(1.11927 0.427588 8.63565e-22)
(1.09933 0.545462 0)
(1.10533 0.540493 -4.62747e-22)
(1.07285 0.512594 0)
(1.08468 0.532199 0)
(1.0365 0.482665 -1.46136e-24)
(1.05523 0.493185 0)
(0.982391 0.46229 2.21253e-24)
(1.01116 0.47465 0)
(0.912109 0.382474 2.68461e-24)
(0.94812 0.433491 0)
(0.837287 0.196685 0)
(0.874231 0.304459 0)
(0.784964 -0.0730351 -1.45736e-24)
(0.805024 0.0663932 0)
(0.79345 -0.315065 0)
(0.780291 -0.207064 0)
(0.862553 -0.420469 0)
(0.823625 -0.388261 0)
(0.950609 -0.441627 -4.68576e-23)
(0.908473 -0.433611 -1.06794e-21)
(1.01568 -0.48488 8.54656e-22)
(0.985409 -0.459687 9.20045e-22)
(1.05926 -0.498546 -1.13577e-21)
(1.01267 -0.611848 2.18976e-23)
(1.00408 -0.599757 -2.23271e-23)
(1.03686 -0.507652 4.60866e-24)
(1.01962 -0.59156 0)
(1.08952 -0.163352 0)
(1.06023 -0.360281 0)
(1.14183 0.246616 0)
(1.11642 0.0515602 0)
(1.16304 0.476758 0)
(1.15729 0.38839 0)
(1.14239 0.52882 -2.58508e-24)
(1.15712 0.518593 0)
(1.1001 0.503273 0)
(1.12283 0.520235 0)
(1.05361 0.463265 0)
(1.07702 0.482666 0)
(0.998543 0.444327 0)
(1.02846 0.449653 0)
(0.930984 0.423009 -8.00254e-23)
(0.965311 0.438615 0)
(0.869672 0.312787 -1.9205e-22)
(0.896529 0.381061 -2.37798e-22)
(0.843223 0.114902 -2.74175e-21)
(0.851809 0.221485 1.88913e-21)
(1.03497 -0.0146017 -2.49377e-21)
(1.09528 -0.0355695 1.7696e-21)
(0.939873 -0.0108246 2.98377e-23)
(0.98604 -0.0131642 1.55123e-21)
(0.873235 -0.00483081 0)
(0.901769 -0.00813635 6.29149e-22)
(0.843349 0.00220546 2.83666e-21)
(0.853853 -0.000607532 -2.46362e-21)
(0.981081 -0.572786 3.84241e-23)
(0.956402 -0.568254 -6.2586e-22)
(0.948381 -0.541815 6.56083e-22)
(0.840274 0.108521 0)
(0.840713 0.00617662 0)
(0.982501 -0.584234 6.07231e-22)
(0.993736 -0.574003 1.05647e-21)
(1.10797 -0.498428 -2.83215e-21)
(1.14369 -0.524705 8.38494e-21)
(0.964461 -0.581991 -8.10182e-22)
(1.02723 -0.582319 -1.13915e-21)
(1.06092 -0.588502 7.27389e-22)
(1.11823 -0.584489 2.64225e-21)
(1.17822 0.292982 -9.07311e-24)
(1.17355 0.166698 7.54996e-21)
(1.15997 0.487128 0)
(1.16536 0.417087 0)
(1.1256 0.533248 -7.89179e-23)
(1.14107 0.527603 -2.64686e-22)
(1.0861 0.496613 0)
(1.10557 0.517065 0)
(1.03969 0.460622 8.28319e-25)
(1.06374 0.474136 0)
(0.978266 0.432025 -3.62639e-24)
(1.01083 0.448207 0)
(0.90281 0.347337 -2.63456e-24)
(0.941244 0.400026 0)
(0.82675 0.165186 0)
(0.863105 0.268 0)
(0.779788 -0.0833454 -5.72996e-24)
(0.797001 0.0435185 0)
(0.794257 -0.294759 0)
(0.77802 -0.20177 0)
(0.871324 -0.38023 0)
(0.827289 -0.352906 0)
(0.958548 -0.40555 2.88129e-23)
(0.919499 -0.392277 8.18559e-23)
(1.02647 -0.45239 -6.14893e-22)
(0.993066 -0.427776 -8.15563e-23)
(1.06519 -0.474727 8.56456e-22)
(0.94651 -0.513614 -1.53503e-22)
(0.855356 -0.495554 2.74673e-21)
(0.849586 -0.461647 0)
(0.899355 -0.49365 2.72433e-22)
(1.0034 -0.561174 -2.66803e-22)
(0.977884 -0.534393 -2.05564e-22)
(1.03897 -0.599196 0)
(1.02135 -0.587599 0)
(1.08504 -0.487628 4.05226e-24)
(1.05626 -0.578458 0)
(1.15364 -0.134214 -5.38406e-24)
(1.11771 -0.336307 0)
(1.20916 0.261802 0)
(1.18565 0.0773107 0)
(1.21271 0.473373 0)
(1.21796 0.394159 0)
(1.17209 0.50993 2.58433e-24)
(1.19591 0.506656 0)
(1.11585 0.479647 0)
(1.14474 0.497725 0)
(1.06025 0.43935 0)
(1.08781 0.458915 0)
(1.00068 0.414673 0)
(1.03229 0.423379 0)
(0.930365 0.39267 5.61054e-23)
(0.965957 0.406443 -1.21425e-25)
(0.867084 0.293106 4.3485e-22)
(0.895252 0.355471 1.72246e-23)
(0.848064 0.207811 -1.88855e-21)
(1.15354 -0.173682 6.3728e-21)
(1.03421 -0.149883 -1.17308e-21)
(1.09416 -0.16173 -2.6813e-21)
(0.94428 -0.145748 -1.32186e-21)
(0.986342 -0.149265 3.11341e-21)
(0.880883 -0.128172 -7.3396e-22)
(0.908193 -0.13767 -4.66402e-22)
(0.851706 -0.10619 0)
(0.862198 -0.117191 1.38562e-21)
(0.847532 -0.0943937 0)
(0.988493 -0.581684 0)
(1.20549 -0.0575469 1.1738e-20)
(1.21683 -0.172971 1.38677e-20)
(0.793126 -0.387147 0)
(1.24599 0.0188885 -2.07215e-20)
(0.975166 -0.597773 1.00566e-21)
(1.00839 -0.59483 0)
(0.941735 -0.586263 -4.83876e-22)
(1.03767 -0.609021 6.77719e-22)
(0.861622 -0.155974 2.34067e-21)
(0.88782 -0.552374 7.5877e-22)
(1.09277 -0.611556 -6.81804e-22)
(0.820459 -0.444669 -3.6975e-21)
(1.14895 -0.608333 0)
(1.2491 -0.174798 -1.67583e-20)
(0.84995 -0.0760342 1.36587e-21)
(1.23039 0.291455 -3.55917e-21)
(1.2177 0.174667 1.17716e-20)
(1.1984 0.47448 6.27626e-22)
(1.20763 0.405834 -1.02522e-21)
(1.1498 0.513427 5.37213e-23)
(1.17226 0.508786 9.10588e-23)
(1.09863 0.47497 0)
(1.1244 0.495589 0)
(1.04361 0.434521 -8.28323e-25)
(1.07223 0.450503 0)
(0.976168 0.398545 2.03839e-24)
(1.01185 0.418347 0)
(0.896971 0.310459 -6.99439e-25)
(0.93721 0.364038 0)
(0.821707 0.135317 0)
(0.856979 0.232733 0)
(0.780251 -0.0906384 3.21145e-24)
(0.794472 0.0229744 0)
(0.802683 -0.270022 0)
(0.782319 -0.193128 0)
(0.885173 -0.337897 0)
(0.839687 -0.315626 0)
(0.966993 -0.369845 -6.08278e-24)
(0.930228 -0.352089 -4.63896e-25)
(1.03646 -0.414629 -1.46141e-22)
(1.00141 -0.393353 1.55275e-22)
(1.11952 -0.452987 0)
(1.0772 -0.434552 1.35617e-24)
(1.21826 -0.494027 0)
(1.16579 -0.473074 0)
(0.849465 -0.41125 6.32947e-22)
(0.781711 -0.334418 -2.26665e-21)
(0.948947 -0.481077 1.08631e-22)
(0.901881 -0.454085 -3.84313e-22)
(1.01243 -0.537028 1.0736e-21)
(0.982911 -0.5065 1.35319e-23)
(1.06363 -0.576103 2.13264e-21)
(1.03537 -0.569059 -9.69485e-23)
(1.13063 -0.457457 -3.98148e-24)
(1.09261 -0.549176 -2.66658e-21)
(1.21717 -0.102143 5.3842e-24)
(1.17309 -0.303052 0)
(1.27205 0.274017 -6.0987e-28)
(1.25207 0.101513 7.26019e-28)
(1.25658 0.45922 0)
(1.27234 0.392544 0)
(1.19788 0.482881 0)
(1.23007 0.483856 0)
(1.13006 0.451213 0)
(1.16411 0.469 0)
(1.06739 0.412675 0)
(1.09791 0.431866 0)
(1.0054 0.383955 0)
(1.03747 0.395694 0)
(0.932618 0.35931 7.15301e-23)
(0.969402 0.374483 4.07621e-22)
(0.868952 0.274556 0)
(0.898683 0.328685 -4.54614e-22)
(0.840278 0.102372 5.87946e-22)
(0.850313 0.195821 0)
(0.846629 0.00834939 -1.83597e-21)
(1.22085 -0.579414 2.82429e-21)
(1.26497 -0.521018 5.4425e-21)
(1.14909 -0.280728 -6.78737e-21)
(1.23212 -0.283537 0)
(1.20236 -0.266008 5.04393e-21)
(1.03814 -0.272815 7.07725e-22)
(1.09399 -0.280801 1.78895e-21)
(0.951738 -0.263385 0)
(0.991486 -0.270221 -7.03322e-22)
(0.893968 -0.237952 1.90815e-21)
(0.918724 -0.251241 -1.05973e-21)
(0.866837 -0.203082 0)
(0.876665 -0.221322 -8.62842e-22)
(0.862578 -0.184714 0)
(0.991014 -0.599117 0)
(0.962247 -0.609028 2.97463e-22)
(1.01187 -0.618639 -6.51197e-22)
(0.880711 -0.229228 -2.10855e-21)
(0.865114 -0.0848652 0)
(0.885545 -0.193096 -4.14485e-21)
(0.913196 -0.577754 5.21379e-22)
(1.05962 -0.625896 0)
(0.842682 -0.509109 -1.05445e-21)
(1.11166 -0.626406 9.49736e-22)
(0.755436 -0.3755 2.45069e-22)
(1.19022 -0.603215 -6.08339e-21)
(0.71502 -0.234736 9.30217e-22)
(1.30738 -0.532345 3.59499e-21)
(1.27297 -0.567688 -3.67393e-21)
(1.27212 -0.245704 0)
(1.21524 -0.362563 5.20951e-22)
(1.47914 -0.321774 -2.36656e-21)
(1.28174 0.0111739 -7.08727e-21)
(1.28526 -0.115095 0)
(1.2674 0.284714 -1.14586e-21)
(1.27691 0.16565 -1.1875e-21)
(1.22849 0.454302 4.33122e-27)
(1.25009 0.389812 5.16326e-22)
(1.1709 0.486733 -5.10237e-23)
(1.20003 0.484949 7.56825e-23)
(1.10989 0.447909 0)
(1.13972 0.470038 0)
(1.04774 0.405014 1.35825e-25)
(1.07935 0.423375 0)
(0.97568 0.363026 -5.09584e-25)
(1.01331 0.386002 0)
(0.894333 0.273006 6.9944e-25)
(0.935373 0.326661 0)
(0.821003 0.107197 9.53318e-27)
(0.854822 0.198222 0)
(0.785903 -0.094433 -1.02058e-24)
(0.796521 0.00520364 0)
(0.81757 -0.241708 0)
(0.792767 -0.180385 0)
(0.89996 -0.298399 0)
(0.856651 -0.277544 0)
(0.974718 -0.338956 0)
(0.94014 -0.316504 0)
(1.04425 -0.382774 -5.76361e-25)
(1.00833 -0.36256 0)
(1.12537 -0.416931 -3.75128e-23)
(1.08417 -0.401008 9.05498e-23)
(1.22361 -0.449946 -4.81225e-22)
(1.17173 -0.433648 3.69767e-23)
(1.33253 -0.472963 9.25816e-22)
(1.27877 -0.463438 0)
(1.35684 -0.508413 0)
(1.43915 -0.414305 -4.39357e-20)
(1.38809 -0.460556 1.35012e-20)
(0.845718 -0.357346 -2.16742e-21)
(0.719343 -0.19029 1.13593e-21)
(0.777985 -0.284454 2.34692e-21)
(0.95076 -0.443025 -8.99229e-23)
(0.902933 -0.408871 6.49601e-22)
(1.02165 -0.50645 0)
(0.986796 -0.474849 3.63049e-23)
(1.08489 -0.547489 1.0152e-24)
(1.05099 -0.538322 0)
(1.17356 -0.418438 0)
(1.12478 -0.514527 0)
(1.27743 -0.0651299 0)
(1.22654 -0.261477 0)
(1.32702 0.281304 0)
(1.31283 0.126034 0)
(1.29244 0.436251 0)
(1.31816 0.382701 0)
(1.21799 0.449887 0)
(1.25715 0.453606 0)
(1.14162 0.419308 0)
(1.17929 0.435864 0)
(1.07384 0.384212 -7.11738e-25)
(1.10679 0.401795 0)
(1.01071 0.353191 0)
(1.04306 0.36727 0)
(0.939384 0.32672 0)
(0.976288 0.341849 0)
(0.876018 0.253527 6.20627e-25)
(0.904456 0.300352 0)
(0.848017 0.0991614 -3.23857e-22)
(0.855624 0.185563 0)
(0.846539 0.014162 4.4403e-22)
(1.13854 -0.372581 5.60158e-23)
(1.1863 -0.361413 -9.95995e-21)
(1.04252 -0.37298 6.27782e-22)
(1.09159 -0.376386 1.3993e-21)
(0.962258 -0.357912 -1.62687e-26)
(0.998603 -0.367375 -6.3244e-22)
(0.910807 -0.326864 -2.51882e-27)
(0.932696 -0.343474 0)
(0.887008 -0.28469 4.90626e-23)
(0.895561 -0.306705 -3.29341e-22)
(0.883864 -0.261635 1.62721e-21)
(0.986001 -0.618109 0)
(1.30571 -0.238693 0)
(0.868647 -0.0763395 -1.35239e-22)
(0.890249 -0.157908 3.70282e-22)
(0.943921 -0.606615 8.52428e-23)
(1.02078 -0.630231 0)
(0.875945 -0.5466 -5.22528e-22)
(1.06315 -0.635393 -9.38897e-22)
(0.792003 -0.434158 0)
(1.13208 -0.623784 6.06186e-21)
(0.733105 -0.272363 -1.29293e-21)
(0.672823 -0.0782327 3.70142e-22)
(0.662514 -0.107245 3.10998e-22)
(1.20907 -0.596883 -4.22915e-21)
(1.29074 -0.538845 0)
(1.37828 -0.455918 6.68293e-21)
(1.42573 -0.370626 -5.67995e-21)
(1.44173 -0.356784 0)
(1.48514 -0.28521 6.39617e-22)
(1.46635 -0.236822 2.08804e-20)
(1.3193 0.0117596 3.8563e-21)
(1.31709 -0.128599 0)
(1.29988 0.275745 -3.67772e-22)
(1.31221 0.151544 0)
(1.2528 0.430442 -7.45693e-27)
(1.2794 0.369587 3.74874e-22)
(1.18661 0.457091 0)
(1.22053 0.455948 2.29983e-28)
(1.11844 0.417772 0)
(1.15173 0.439968 0)
(1.05122 0.373278 -1.35832e-25)
(1.08486 0.393325 8.08442e-30)
(0.976347 0.326494 6.66208e-25)
(1.0149 0.351959 0)
(0.894455 0.235828 -8.81794e-25)
(0.93539 0.288793 -3.88359e-29)
(0.824245 0.0812269 -9.53314e-27)
(0.855974 0.164869 0)
(0.797488 -0.0939847 6.55632e-27)
(0.803323 -0.00928139 3.23576e-29)
(0.838669 -0.210859 1.0444e-24)
(0.809991 -0.163318 4.633e-29)
(0.916495 -0.261689 0)
(0.877519 -0.240067 0)
(0.983031 -0.307572 0)
(0.951443 -0.283718 0)
(1.05186 -0.346337 -5.13748e-25)
(1.01611 -0.328999 0)
(1.12883 -0.376497 -3.30352e-23)
(1.0903 -0.362043 3.50515e-23)
(1.22257 -0.4003 5.83097e-22)
(1.17328 -0.390901 -6.30041e-23)
(1.33229 -0.408175 -2.57293e-21)
(1.27602 -0.407037 -5.24083e-23)
(1.38785 -0.397586 1.66504e-21)
(0.727416 -0.150769 3.86303e-22)
(0.649437 0.0312316 -1.91851e-21)
(0.697237 0.0211898 1.19538e-21)
(0.696315 -0.058805 -1.65363e-21)
(0.83654 -0.304218 6.88758e-22)
(0.776024 -0.235498 0)
(0.941069 -0.400025 -4.52356e-23)
(0.891482 -0.35965 -9.42544e-23)
(1.02165 -0.476422 6.51611e-23)
(0.982116 -0.440631 -3.70131e-23)
(1.10345 -0.509318 -1.00094e-24)
(1.06052 -0.504701 -7.25408e-23)
(1.21355 -0.368593 0)
(1.15354 -0.469832 0)
(1.3322 -0.0252992 0)
(1.27657 -0.211644 0)
(1.37101 0.280398 0)
(1.36502 0.147047 0)
(1.3178 0.404712 0)
(1.35243 0.363322 0)
(1.23163 0.412115 -8.67616e-25)
(1.27563 0.416618 0)
(1.15034 0.385145 0)
(1.18987 0.399507 0)
(1.08002 0.354739 8.56462e-25)
(1.11406 0.370045 0)
(1.01704 0.323391 0)
(1.04878 0.33839 0)
(0.94849 0.294464 0)
(0.984186 0.309854 0)
(0.88532 0.229787 -6.11744e-25)
(0.914679 0.270978 0)
(0.855992 0.0971395 -2.64907e-23)
(0.864755 0.171357 1.16875e-22)
(0.859204 0.0134586 -3.44943e-23)
(1.19963 -0.410855 -1.96439e-21)
(1.2613 -0.359326 -2.80791e-21)
(1.2351 -0.383139 3.6174e-21)
(1.12999 -0.436087 2.34374e-21)
(1.17086 -0.421831 3.95555e-21)
(1.0461 -0.443269 0)
(1.08832 -0.443967 0)
(0.974458 -0.427168 1.62682e-26)
(1.00704 -0.437587 0)
(0.929859 -0.39395 -2.56538e-27)
(0.948597 -0.411996 0)
(0.910353 -0.348367 -8.53278e-23)
(0.917095 -0.372273 0)
(0.906554 -0.290942 8.83851e-22)
(0.908504 -0.322337 -1.0532e-21)
(0.917367 -0.224284 -5.78959e-22)
(0.910404 -0.257732 1.76719e-21)
(0.980789 -0.623393 3.16074e-28)
(0.91534 -0.584656 -1.01323e-21)
(1.01168 -0.631122 0)
(0.828491 -0.486408 6.88217e-22)
(1.06572 -0.626344 1.19209e-21)
(0.94674 -0.276533 2.2537e-22)
(0.923863 -0.193176 1.23438e-22)
(0.95348 -0.244672 -4.49946e-23)
(0.733599 -0.327485 1.45469e-21)
(0.662071 -0.147186 0)
(0.626288 0.0242171 -3.18183e-22)
(0.726229 0.0800749 0)
(0.660128 0.121773 0)
(1.13285 -0.598196 3.29768e-22)
(1.20832 -0.539457 5.32825e-22)
(1.29324 -0.454962 -1.05749e-20)
(1.3563 -0.361652 -1.95301e-21)
(1.40429 -0.221471 -3.00956e-21)
(1.28195 -0.329941 -4.12112e-22)
(1.49942 -0.223014 -1.14894e-21)
(1.43182 -0.111167 -1.05917e-20)
(1.48749 -0.121862 0)
(1.22941 -0.383102 -2.12901e-21)
(1.24436 -0.354636 4.22781e-22)
(1.33067 -0.223738 -1.14113e-21)
(1.30649 -0.293493 1.00872e-21)
(1.34616 0.00555404 -1.74241e-21)
(1.34234 -0.121498 7.41625e-22)
(1.32138 0.260261 1.20983e-21)
(1.33747 0.138948 -1.91783e-21)
(1.26857 0.401631 5.06703e-27)
(1.29684 0.347835 0)
(1.19655 0.423418 1.60692e-28)
(1.23251 0.423981 0)
(1.12375 0.385365 0)
(1.15889 0.407212 0)
(1.05374 0.340219 0)
(1.08851 0.36151 0)
(0.977692 0.289628 -7.81469e-25)
(1.01655 0.317098 0)
(0.896517 0.199402 8.81826e-25)
(0.936728 0.251035 0)
(0.831301 0.0581436 -7.30699e-29)
(0.859803 0.133139 8.56736e-29)
(0.815872 -0.0882966 0)
(0.815485 -0.0193518 0)
(0.864022 -0.179564 5.77526e-25)
(0.833816 -0.142233 0)
(0.93214 -0.230579 0)
(0.899381 -0.206265 0)
(0.991031 -0.279251 1.47847e-24)
(0.961856 -0.255572 0)
(1.05709 -0.314106 7.77227e-25)
(1.02302 -0.298542 0)
(1.1302 -0.340368 -5.48344e-25)
(1.09277 -0.327864 0)
(1.21524 -0.356335 -3.899e-23)
(1.17162 -0.350626 0)
(1.31589 -0.354645 -1.39663e-23)
(1.26436 -0.358547 3.93732e-23)
(1.4172 -0.315515 6.48042e-22)
(1.36819 -0.341562 -5.99092e-22)
(1.48669 -0.206038 0)
(1.45962 -0.266904 5.67387e-22)
(0.770159 -0.00723755 1.70682e-21)
(0.772602 0.121867 -7.41724e-22)
(0.834263 0.0781536 -1.60706e-21)
(0.801394 0.0356114 -5.83168e-22)
(0.754596 -0.127652 -1.16986e-21)
(0.748675 -0.0604662 0)
(0.827465 -0.257656 1.40064e-22)
(0.782789 -0.196673 8.01369e-22)
(0.92354 -0.35773 4.24511e-23)
(0.874166 -0.310643 -2.20202e-22)
(1.0156 -0.439225 -6.3013e-25)
(0.970181 -0.401145 -1.51704e-28)
(1.1171 -0.461959 0)
(1.06302 -0.464024 0)
(1.25265 -0.307965 -1.04617e-24)
(1.1801 -0.413992 1.50497e-28)
(1.37938 0.0136238 0)
(1.32365 -0.155829 0)
(1.40084 0.271428 0)
(1.40519 0.162148 0)
(1.33094 0.36742 0)
(1.3727 0.336374 0)
(1.2381 0.372026 4.41025e-25)
(1.28439 0.375806 0)
(1.15568 0.350311 0)
(1.19535 0.361955 0)
(1.08535 0.324834 -1.44725e-25)
(1.11939 0.337811 0)
(1.02364 0.294685 0)
(1.0542 0.310009 0)
(0.959506 0.26357 0)
(0.992916 0.279566 0)
(0.898312 0.208201 -1.08754e-22)
(0.927208 0.24155 1.11485e-22)
(0.867123 0.093092 1.05934e-23)
(0.877799 0.158052 -1.15664e-25)
(0.878166 -0.058439 -1.16874e-22)
(0.868938 0.0202804 -1.00273e-23)
(0.897153 -0.131321 0)
(1.18012 -0.435353 0)
(1.21006 -0.408834 2.07067e-21)
(1.11928 -0.470328 0)
(1.15361 -0.453154 0)
(1.04748 -0.484955 0)
(1.08314 -0.482207 0)
(0.986485 -0.47193 0)
(1.01432 -0.481132 0)
(0.949412 -0.440021 -2.30307e-26)
(0.964746 -0.457724 0)
(0.93497 -0.394479 1.31004e-22)
(0.939658 -0.418491 -3.70095e-23)
(0.934796 -0.339339 -7.56597e-22)
(0.93477 -0.368446 0)
(0.939374 -0.308795 -5.48488e-22)
(0.961121 -0.613426 0)
(1.48921 -0.131261 2.41867e-22)
(1.45525 -0.0331354 -2.63813e-21)
(1.46834 -0.0470115 -4.30761e-21)
(0.876752 -0.536661 -7.91752e-22)
(0.99786 -0.610703 -5.78465e-28)
(0.977583 -0.315442 -2.38925e-22)
(0.984311 -0.284816 -6.94317e-23)
(0.773932 -0.387748 7.48622e-22)
(0.686 -0.193511 0)
(0.621848 0.0052986 4.0587e-22)
(0.616231 0.147773 -2.07915e-22)
(0.703636 0.18001 1.18814e-21)
(0.862816 0.123943 2.78086e-23)
(0.818802 0.158452 -7.00262e-22)
(1.11269 -0.520904 5.93635e-26)
(1.18517 -0.43 3.41323e-21)
(1.25034 -0.321759 8.93413e-22)
(1.30708 -0.189936 -2.15291e-21)
(1.3334 -0.0771267 0)
(1.36312 0.0138024 -5.16114e-21)
(1.20163 -0.380908 -1.75901e-21)
(1.21946 -0.344513 -2.39995e-21)
(1.29761 -0.301788 -1.84458e-24)
(0.960859 -0.213243 7.64934e-22)
(0.931358 -0.165162 -3.03269e-22)
(1.25576 -0.329827 8.88842e-22)
(1.04493 -0.580154 -7.18967e-28)
(1.3499 -0.208005 1.09986e-21)
(1.31987 -0.273687 -9.80889e-22)
(1.36249 0.00235874 0)
(1.35956 -0.116737 -4.00118e-22)
(1.33235 0.240912 -6.79299e-27)
(1.35018 0.126213 -3.59585e-23)
(1.27441 0.370909 -1.05224e-27)
(1.30466 0.32225 0)
(1.20025 0.388222 -1.60692e-28)
(1.23724 0.389795 0)
(1.12568 0.352051 0)
(1.16159 0.372996 0)
(1.05441 0.306597 0)
(1.08981 0.32893 0)
(0.977886 0.252649 0)
(1.01687 0.281888 0)
(0.899051 0.164348 -1.99021e-24)
(0.937534 0.213701 -1.24761e-28)
(0.842809 0.0398032 0)
(0.865858 0.104313 0)
(0.841116 -0.0771129 1.1113e-28)
(0.834103 -0.0233491 -1.30259e-28)
(0.890333 -0.150634 -1.62209e-24)
(0.862285 -0.118906 1.33632e-28)
(0.94568 -0.204456 1.11887e-28)
(0.919414 -0.177832 -1.31058e-28)
(0.998655 -0.251632 -1.47837e-24)
(0.971358 -0.22989 -1.22721e-28)
(1.0604 -0.282837 0)
(1.02884 -0.268732 0)
(1.1285 -0.304995 -4.73187e-25)
(1.09347 -0.294996 -8.27547e-29)
(1.20704 -0.314506 0)
(1.16658 -0.311779 0)
(1.29797 -0.303987 0)
(1.25194 -0.312624 0)
(1.39066 -0.262064 -1.28075e-22)
(1.34652 -0.288424 1.07411e-22)
(1.4625 -0.171419 1.30084e-22)
(1.4307 -0.223375 -1.50773e-22)
(1.41993 0.0560847 1.30018e-21)
(1.48353 -0.0383355 -5.6977e-22)
(1.48104 -0.11015 5.00578e-22)
(0.879759 0.0550395 4.99692e-22)
(0.885392 0.175295 -2.76738e-23)
(0.914327 0.15129 -9.23052e-22)
(0.895555 0.103928 0)
(0.844268 -0.0357121 6.43012e-22)
(0.864264 0.00680335 -1.20844e-21)
(0.814433 -0.124268 5.97498e-22)
(0.823108 -0.0775632 0)
(0.844272 -0.224156 -1.43475e-22)
(0.820619 -0.175607 3.73346e-22)
(0.916785 -0.315121 0)
(0.87575 -0.26926 0)
(1.01325 -0.391427 1.57997e-24)
(0.962577 -0.356085 0)
(1.13615 -0.401315 9.67687e-29)
(1.06987 -0.411122 -1.15098e-28)
(1.29477 -0.23861 7.11097e-25)
(1.21242 -0.345616 0)
(1.41549 0.0473752 -1.61978e-28)
(1.36722 -0.0982677 1.92763e-28)
(1.41364 0.252554 0)
(1.42942 0.167864 0)
(1.33194 0.325291 -4.5511e-25)
(1.37765 0.301619 1.30894e-28)
(1.2385 0.331157 4.26589e-25)
(1.28435 0.332622 0)
(1.15824 0.315969 4.58345e-30)
(1.19668 0.324529 -5.46176e-30)
(1.08987 0.295325 -8.41802e-25)
(1.12299 0.306032 0)
(1.0302 0.267605 0)
(1.05927 0.282293 0)
(0.971697 0.234882 -1.09514e-24)
(1.00152 0.251593 0)
(0.913189 0.185357 2.4538e-23)
(0.94109 0.214179 -2.61718e-22)
(0.880627 0.0907776 -6.88011e-23)
(0.892491 0.143941 2.28517e-22)
(0.889032 -0.0411148 5.11692e-22)
(0.880306 0.0287794 0)
(0.907164 -0.105117 -3.86063e-22)
(1.15832 -0.440354 0)
(1.18402 -0.412103 1.6961e-21)
(1.10544 -0.482047 -3.73373e-22)
(1.13376 -0.462739 0)
(1.04615 -0.502617 0)
(1.0757 -0.496134 3.68207e-22)
(0.996888 -0.495655 0)
(1.01931 -0.50207 0)
(0.967989 -0.468066 -1.89136e-26)
(0.979623 -0.483898 0)
(0.959382 -0.426262 -2.08744e-22)
(0.961278 -0.448583 3.739e-23)
(0.965014 -0.3745 -2.55875e-22)
(0.961901 -0.400971 3.83334e-22)
(0.970129 -0.345967 0)
(0.933306 -0.579055 0)
(0.991185 -0.254103 0)
(0.824628 -0.447367 0)
(0.714302 -0.251367 2.61407e-26)
(0.62919 -0.0302988 0)
(0.594778 0.153605 -5.79819e-22)
(0.643599 0.235183 -3.51036e-22)
(0.761467 0.213761 4.34574e-22)
(1.06955 -0.385026 -9.51035e-26)
(1.12985 -0.26262 -2.16597e-24)
(1.1892 -0.130295 3.25004e-21)
(1.21988 -0.0138051 -3.57099e-21)
(0.85411 0.205191 0)
(0.939576 0.190912 1.05763e-22)
(0.913167 0.220931 0)
(1.24698 0.0860273 4.84491e-21)
(1.30566 0.119993 8.23888e-21)
(1.45088 0.0300892 4.41512e-23)
(1.23556 -0.310554 -2.20976e-22)
(0.963648 -0.547009 1.48781e-27)
(1.41193 0.0686241 -1.05761e-22)
(1.01421 -0.483573 1.69516e-27)
(1.05033 -0.249038 -3.91111e-21)
(1.30083 -0.277066 -2.43539e-22)
(1.25428 -0.291825 3.90791e-21)
(1.35729 -0.19139 0)
(1.32642 -0.246155 -5.7579e-22)
(1.37007 -0.00121213 -1.18775e-26)
(1.36919 -0.108853 2.92219e-22)
(1.33289 0.218466 1.72725e-27)
(1.35503 0.113702 -2.87635e-27)
(1.27086 0.339248 -9.53792e-28)
(1.30248 0.295046 0)
(1.19755 0.352905 3.14522e-29)
(1.23429 0.355454 -3.69267e-29)
(1.12272 0.318429 0)
(1.15916 0.338339 0)
(1.0502 0.272537 0)
(1.08631 0.295789 0)
(0.974301 0.216111 1.20658e-28)
(1.01258 0.246445 -1.41588e-28)
(0.902241 0.132884 1.9903e-24)
(0.93636 0.1781 0)
(0.860774 0.0286932 1.37353e-28)
(0.875751 0.0812311 -1.61051e-28)
(0.871318 -0.0623237 2.44467e-24)
(0.859833 -0.0205903 0)
(0.914143 -0.127046 -2.38639e-24)
(0.891601 -0.0969459 0)
(0.957506 -0.18267 0)
(0.93627 -0.155549 0)
(1.00587 -0.226095 2.13581e-24)
(0.980509 -0.206605 0)
(1.06186 -0.254653 -1.13142e-28)
(1.03341 -0.241648 1.32441e-28)
(1.12353 -0.273298 2.90339e-24)