/*--------------------------------*- C++ -*----------------------------------*\
  =========                 |
  \\      /  F ield         | OpenFOAM: The Open Source CFD Toolbox
   \\    /   O peration     | Website:  https://openfoam.org
    \\  /    A nd           | Version:  10
     \\/     M anipulation  |
\*---------------------------------------------------------------------------*/
FoamFile
{
    format      ascii;
    class       volScalarField;
    location    "23.5";
    object      p;
}
// * * * * * * * * * * * * * * * * * * * * * * * * * * * * * * * * * * * * * //

dimensions      [0 2 -2 0 0 0 0];

internalField   nonuniform List<scalar> 
25879
(
0.116558
0.119228
0.118362
0.11559
-0.0534817
-0.048716
-0.0239829
-0.0105894
0.00733234
0.000382796
-0.0949136
-0.0640888
-0.129868
-0.546898
-0.583983
0.302513
0.226841
-0.146439
-0.291219
0.779357
0.758112
0.336818
0.437254
0.155692
0.157389
0.163346
0.160771
0.150238
0.154547
0.150513
0.149857
-0.530683
-0.528022
-0.512517
0.127362
0.160636
0.159942
-0.00419284
0.00114478
-0.247503
-0.205047
-0.146737
0.332043
0.347435
0.353095
-0.230494
-0.250554
-0.385462
-0.357864
-0.377353
0.0156337
0.0549377
-0.660086
-0.457141
0.0126575
0.0127376
0.0177863
0.539762
0.545114
0.506847
0.494069
0.469337
0.463363
0.00470011
0.00796286
0.00795424
-0.56803
-0.572253
-0.526728
-0.49826
-0.561595
0.211725
0.21535
0.220116
0.344517
0.487839
0.412504
0.124892
0.125379
0.121877
0.36588
0.34966
0.854526
0.79192
0.793844
0.256092
0.264699
0.251964
0.0987348
0.102396
-0.28211
-0.230867
-0.325453
0.145815
0.14522
-0.0103028
-0.0285983
-0.0291092
0.155503
0.152228
0.147647
0.136013
0.102163
0.100824
0.0950282
0.228441
0.225905
0.0293276
0.0790736
0.158614
0.155142
0.0258898
0.0289762
0.0571593
0.0566844
0.249259
0.237719
-0.0766568
0.0440266
0.0780603
0.0841578
-0.302088
-0.305371
-0.133414
-0.131466
-0.220816
-0.204642
-0.586345
-0.628663
-0.581158
-0.540867
-0.522645
0.498289
0.477846
0.468203
0.483383
0.119446
0.122674
-0.0142305
0.0135409
-0.104628
-0.104479
-0.111447
-0.11837
-0.131111
-0.144959
-0.160155
-0.175575
-0.190374
-0.20353
-0.214064
-0.220794
-0.223171
-0.221068
-0.214449
-0.203909
-0.190168
-0.17428
-0.157271
-0.140369
-0.124374
-0.110081
-0.0977039
-0.0874095
-0.0789938
-0.0723342
-0.067207
-0.0635338
-0.0612596
-0.0604021
-0.0610478
-0.0631875
-0.0669399
-0.0720171
-0.0791257
-0.0890284
-0.102866
-0.0722128
-0.0801815
-0.0955354
-0.104766
-0.0979434
-0.0984138
-0.108338
-0.076155
-0.0845438
-0.0656418
-0.0700446
-0.0615751
-0.0628266
-0.0635193
-0.0618175
-0.0711016
-0.0665857
-0.0847167
-0.0770591
-0.105566
-0.0941206
-0.133862
-0.118824
-0.166118
-0.149815
-0.194903
-0.181415
-0.212214
-0.205351
-0.213443
-0.215046
-0.198551
-0.207775
-0.173042
-0.186672
-0.144369
-0.158677
-0.120653
-0.131362
-0.112189
-0.12894
-0.104554
-0.115795
-0.158524
-0.143272
-0.190434
-0.174666
-0.216452
-0.204758
-0.227662
-0.224301
-0.219994
-0.226339
-0.196128
-0.209876
-0.162915
-0.180337
-0.128818
-0.145618
-0.10045
-0.113753
-0.080075
-0.0893058
-0.0668361
-0.0726579
-0.0594889
-0.0624477
-0.0577543
-0.0578505
-0.0618822
-0.05899
-0.066322
-0.0978512
-0.0933035
-0.0931996
-0.123651
-0.11898
-0.128055
-0.142036
-0.146696
-0.0897794
-0.0645675
-0.0708169
-0.102057
-0.0961367
-0.0932537
-0.090002
-0.0921761
-0.09848
-0.11206
-0.0778361
-0.0869895
-0.0658878
-0.0708696
-0.0609521
-0.062607
-0.0620663
-0.0607824
-0.0687626
-0.0647189
-0.081241
-0.0742255
-0.100416
-0.0899349
-0.126394
-0.112668
-0.156062
-0.141162
-0.182793
-0.17035
-0.199278
-0.192781
-0.201186
-0.202281
-0.188544
-0.196572
-0.165946
-0.178121
-0.140253
-0.153105
-0.118729
-0.128623
-0.10237
-0.109962
-0.0917223
-0.0961234
-0.125614
-0.112946
-0.155518
-0.139816
-0.186915
-0.171473
-0.213069
-0.201389
-0.224972
-0.22133
-0.218575
-0.224103
-0.196163
-0.209051
-0.164196
-0.180882
-0.130504
-0.147044
-0.101517
-0.115099
-0.0799059
-0.0897198
-0.0652537
-0.0717578
-0.0564264
-0.0601481
-0.0530486
-0.0540534
-0.055585
-0.0535603
-0.0593461
-0.111208
-0.0864454
-0.135271
-0.0890713
-0.0887939
-0.0865816
-0.161184
-0.167168
-0.0789972
-0.0904613
-0.101626
-0.0898297
-0.0901334
-0.0855133
-0.08827
-0.12929
-0.16956
-0.148505
-0.0984397
-0.112578
-0.077037
-0.0866127
-0.0642638
-0.0695866
-0.0587719
-0.0607051
-0.0592472
-0.0583004
-0.0651236
-0.061515
-0.076503
-0.0700764
-0.0941647
-0.0844903
-0.118136
-0.105452
-0.145426
-0.131703
-0.169896
-0.158477
-0.184985
-0.178977
-0.186829
-0.187684
-0.175621
-0.182703
-0.155542
-0.166326
-0.132837
-0.144132
-0.112998
-0.122363
-0.0979304
-0.104834
-0.0925789
-0.0977096
-0.0818669
-0.0888333
-0.12088
-0.108454
-0.150539
-0.135022
-0.182346
-0.166632
-0.208127
-0.196578
-0.219726
-0.216116
-0.213319
-0.218797
-0.191477
-0.203982
-0.160639
-0.176736
-0.127999
-0.144109
-0.0994048
-0.112931
-0.0774955
-0.087565
-0.0621034
-0.0690351
-0.0522603
-0.0565201
-0.0475629
-0.049255
-0.0484145
-0.0472186
-0.055594
-0.0512689
-0.0685425
-0.0610889
-0.18752
-0.191297
-0.0814952
-0.125719
-0.0879084
-0.0857915
-0.152868
-0.180827
-0.0779262
-0.102411
-0.0759268
-0.207713
-0.212327
-0.0764585
-0.0705012
-0.0881685
-0.115073
-0.0879452
-0.0886168
-0.0827424
-0.085968
-0.0727024
-0.078221
-0.168079
-0.21293
-0.190577
-0.127331
-0.146694
-0.0959079
-0.110289
-0.0742702
-0.0839085
-0.0612327
-0.0667294
-0.05534
-0.0574873
-0.0552289
-0.0546044
-0.0602545
-0.0571081
-0.0704282
-0.0646547
-0.08645
-0.0776503
-0.108397
-0.0967605
-0.133514
-0.12087
-0.156056
-0.145532
-0.169922
-0.164403
-0.171564
-0.172384
-0.16138
-0.167791
-0.143316
-0.152999
-0.122953
-0.133084
-0.105071
-0.113525
-0.0919162
-0.0978381
-0.0844438
-0.087506
-0.0823906
-0.0827439
-0.0916357
-0.0829435
-0.114418
-0.102077
-0.143765
-0.128446
-0.175177
-0.159649
-0.200554
-0.189223
-0.211735
-0.20831
-0.20528
-0.210767
-0.183713
-0.196042
-0.153562
-0.169265
-0.121895
-0.137518
-0.0941039
-0.107285
-0.0725355
-0.0825048
-0.0570191
-0.0640717
-0.0466676
-0.0512318
-0.0410492
-0.0432619
-0.0404093
-0.0400441
-0.0456077
-0.0422434
-0.056506
-0.0501363
-0.0727975
-0.0642139
-0.231362
-0.232437
-0.0985393
-0.0814981
-0.142367
-0.114802
-0.0663923
-0.171536
-0.0833851
-0.0778406
-0.0792002
-0.2004
-0.22628
-0.109539
-0.247302
-0.248597
-0.0902874
-0.129577
-0.0881171
-0.0864092
-0.0874332
-0.0884855
-0.0813936
-0.085057
-0.0705651
-0.0765104
-0.208202
-0.245878
-0.228765
-0.162767
-0.185693
-0.122394
-0.141489
-0.0910513
-0.105386
-0.0697495
-0.0792156
-0.0568388
-0.0623311
-0.0507227
-0.0530156
-0.0501069
-0.0497725
-0.0543137
-0.0516192
-0.0632827
-0.0581668
-0.0776155
-0.0697247
-0.0974149
-0.086899
-0.120196
-0.108717
-0.140673
-0.131113
-0.153244
-0.148245
-0.154731
-0.155456
-0.145599
-0.151338
-0.129529
-0.13813
-0.11155
-0.120476
-0.095888
-0.10324
-0.0847547
-0.0897064
-0.0787655
-0.0811107
-0.0776871
-0.0686513
-0.0592456
-0.0633378
-0.0838162
-0.0754972
-0.106152
-0.0940913
-0.134833
-0.11986
-0.165519
-0.15037
-0.190148
-0.17918
-0.200791
-0.197583
-0.194284
-0.199836
-0.173267
-0.185252
-0.144036
-0.159249
-0.113412
-0.128509
-0.0865452
-0.0992934
-0.0655584
-0.0752871
-0.0502052
-0.0572283
-0.0396175
-0.0443496
-0.0333697
-0.0359482
-0.0315999
-0.0318862
-0.0348025
-0.032551
-0.043323
-0.0383098
-0.0572244
-0.0498435
-0.0719841
-0.0647183
-0.25957
-0.257193
-0.098565
-0.0788572
-0.0637397
-0.159554
-0.127571
-0.0857699
-0.0818574
-0.189638
-0.119553
-0.218199
-0.241322
-0.257827
-0.0511542
-0.105163
-0.264188
-0.262256
-0.0832266
-0.0562945
-0.048363
-0.144578
-0.0897851
-0.0884119
-0.0883339
-0.0897531
-0.0814193
-0.0855449
-0.0698759
-0.0761963
-0.0546745
-0.0626217
-0.238081
-0.255802
-0.250138
-0.199463
-0.220992
-0.154144
-0.176706
-0.114591
-0.133258
-0.0843044
-0.0981183
-0.0638135
-0.0729243
-0.0512933
-0.0566543
-0.0451218
-0.0474896
-0.0440985
-0.0440117
-0.0475381
-0.0452753
-0.055315
-0.0508556
-0.0679407
-0.0609716
-0.0855607
-0.0761823
-0.105975
-0.0956763
-0.124353
-0.115777
-0.135611
-0.131137
-0.136941
-0.137588
-0.128899
-0.133944
-0.114858
-0.122359
-0.099282
-0.106994
-0.085874
-0.0921318
-0.0766426
-0.0806577
-0.0719703
-0.0736683
-0.0721443
-0.0715196
-0.0767466
-0.0738724
-0.060275
-0.055103
-0.0748523
-0.0666963
-0.0963239
-0.0847162
-0.123931
-0.109511
-0.153497
-0.138904
-0.17711
-0.166626
-0.186993
-0.18413
-0.180454
-0.185584
-0.160353
-0.171809
-0.132502
-0.146983
-0.103342
-0.117724
-0.0776364
-0.0898565
-0.0573464
-0.0667862
-0.0422327
-0.0491898
-0.031477
-0.0363421
-0.024685
-0.0275815
-0.0219675
-0.0227901
-0.023619
-0.0222247
-0.0299386
-0.0261627
-0.0405019
-0.0348283
-0.0537347
-0.0468642
-0.0635956
-0.0595684
-0.084313
-0.0650424
-0.259786
-0.253924
-0.175738
-0.140023
-0.0464467
-0.205721
-0.127668
-0.0808664
-0.0706215
-0.0749224
-0.231972
-0.107291
-0.251203
-0.0836257
-0.261752
-0.261244
-0.250191
-0.244704
-0.159011
-0.0895062
-0.0857781
-0.0929325
-0.0918852
-0.0906943
-0.0925708
-0.0828658
-0.0874588
-0.0704948
-0.077178
-0.0544315
-0.0628303
-0.244796
-0.234904
-0.243574
-0.225502
-0.238513
-0.18653
-0.207479
-0.142488
-0.164125
-0.104527
-0.122276
-0.0760549
-0.0890548
-0.0567148
-0.0653267
-0.0447898
-0.0499213
-0.0387161
-0.0410913
-0.0373817
-0.0374995
-0.04012
-0.0382588
-0.0467527
-0.0429278
-0.0576981
-0.0516405
-0.0731403
-0.064901
-0.0911899
-0.0820684
-0.107514
-0.0998923
-0.117514
-0.113542
-0.118734
-0.119284
-0.111789
-0.116145
-0.0997234
-0.106157
-0.0864519
-0.0930043
-0.0751805
-0.0804141
-0.067608
-0.0708823
-0.06436
-0.0653939
-0.0654009
-0.0642824
-0.067471
-0.0423197
-0.0377727
-0.0396433
-0.050874
-0.0460178
-0.0648342
-0.0570809
-0.0852219
-0.0741947
-0.111434
-0.0977375
-0.139535
-0.125665
-0.161908
-0.151998
-0.171073
-0.16848
-0.164619
-0.169692
-0.14549
-0.156348
-0.119284
-0.132886
-0.0919376
-0.105428
-0.0676971
-0.0792522
-0.0482857
-0.0573615
-0.0335044
-0.0403568
-0.022635
-0.0276086
-0.015339
-0.0185347
-0.0117311
-0.0130512
-0.0120539
-0.0113804
-0.0165085
-0.013757
-0.0244013
-0.0201288
-0.0347173
-0.0292664
-0.0439915
-0.0399388
-0.046884
-0.228914
-0.219567
-0.0457511
-0.190005
-0.150113
-0.0862655
-0.0803291
-0.218081
-0.133615
-0.240511
-0.108213
-0.254631
-0.0802081
-0.258473
-0.251278
-0.233982
-0.0508413
-0.0286708
-0.207861
-0.198906
-0.0368348
-0.0277174
-0.171326
-0.0947002
-0.0910801
-0.0976304
-0.0969442
-0.0946495
-0.0969128
-0.0858242
-0.0909414
-0.0723558
-0.0795956
-0.0554735
-0.0642675
-0.0367957
-0.0461336
-0.221552
-0.186893
-0.207003
-0.229386
-0.229491
-0.208572
-0.221964
-0.169696
-0.190061
-0.128127
-0.14854
-0.092848
-0.109367
-0.0665932
-0.0785812
-0.0486932
-0.0566782
-0.0375467
-0.0423651
-0.0317035
-0.0340258
-0.0301513
-0.0304307
-0.0322625
-0.0307673
-0.0378183
-0.0345947
-0.0471473
-0.0419699
-0.0604716
-0.0533415
-0.0762224
-0.0682434
-0.0905684
-0.0838616
-0.0993793
-0.0958795
-0.100521
-0.100937
-0.0946351
-0.0983354
-0.0844144
-0.0898549
-0.073276
-0.0787575
-0.0639749
-0.0682662
-0.0580117
-0.0605248
-0.055935
-0.0564794
-0.057735
-0.0563563
-0.0635484
-0.0601773
-0.0732879
-0.0678913
-0.0329064
-0.0303624
-0.0409346
-0.0363418
-0.0540686
-0.0467836
-0.0731395
-0.062828
-0.097675
-0.0848477
-0.124047
-0.111023
-0.145034
-0.135752
-0.153482
-0.151143
-0.14721
-0.152098
-0.129201
-0.139385
-0.104799
-0.117443
-0.079429
-0.0919436
-0.0568411
-0.0676359
-0.0384875
-0.047114
-0.0241802
-0.0308625
-0.0133088
-0.018338
-0.00560245
-0.00905296
-0.00118714
-0.00296218
-0.000300886
-0.000282276
-0.00309159
-0.00123821
-0.00889638
-0.0057008
-0.0163524
-0.0125108
-0.0227862
-0.01992
-0.0274917
-0.0251553
-0.174637
-0.162996
-0.0256293
-0.00727736
-0.200811
-0.157463
-0.0273832
-0.225497
-0.136147
-0.0799565
-0.0654648
-0.0719616
-0.242631
-0.107907
-0.250836
-0.0760056
-0.248139
-0.0447762
-0.235074
-0.212616
-0.183176
-0.137
-0.14847
-0.0196234
-0.00256521
-0.180311
-0.0931261
-0.0870411
-0.101422
-0.0979468
-0.10401
-0.103554
-0.100214
-0.102923
-0.0903332
-0.095997
-0.0756186
-0.0835585
-0.0575731
-0.0669469
-0.0378186
-0.0478029
-0.1722
-0.123442
-0.149169
-0.204548
-0.191239
-0.209623
-0.21083
-0.187323
-0.20132
-0.150226
-0.169627
-0.111951
-0.130628
-0.0799521
-0.0949164
-0.0562533
-0.0670734
-0.0400166
-0.047278
-0.0297855
-0.0342289
-0.0242766
-0.0264972
-0.0225907
-0.0229913
-0.024153
-0.0229845
-0.0287173
-0.0260508
-0.0365257
-0.0321796
-0.0478305
-0.0417604
-0.0613863
-0.0544966
-0.0738643
-0.0680184
-0.0815812
-0.0785083
-0.0826705
-0.0829575
-0.0777572
-0.0808573
-0.0692143
-0.0737533
-0.0600107
-0.0645211
-0.0525102
-0.0559361
-0.0480225
-0.0498415
-0.0470039
-0.0470671
-0.0495564
-0.0477888
-0.0556336
-0.0520493
-0.0600029
-0.019237
-0.0179338
-0.0182945
-0.023094
-0.020698
-0.0306634
-0.0263462
-0.0428322
-0.0360988
-0.0604072
-0.0509088
-0.0830418
-0.0711988
-0.107479
-0.0953953
-0.126984
-0.118358
-0.134749
-0.132635
-0.128741
-0.13338
-0.111965
-0.121417
-0.0894704
-0.101107
-0.066157
-0.077658
-0.0453002
-0.055293
-0.0281093
-0.036231
-0.0143989
-0.0208486
-0.00365445
-0.00867423
0.0043284
0.000690539
0.00940796
0.00725154
0.0113484
0.0107897
0.0100396
0.0110961
0.00602057
0.00830199
0.000784849
0.00342155
-0.00364692
-0.00159563
-0.00717424
-0.00555673
0.0021471
-0.00504279
0.0103832
0.00876801
0.00109253
0.0153433
0.0138048
-0.0278866
-0.110721
-0.0971849
-0.20678
-0.161091
-0.0878715
-0.0795369
-0.226743
-0.134827
-0.238493
-0.102705
-0.240235
-0.0676377
-0.231547
-0.0379155
-0.213468
-0.014467
-0.187896
-0.156834
-0.122027
0.0276248
-0.0850316
-0.00850556
-0.01813
-0.00857428
-0.0713563
0.0280376
0.0169335
0.00441531
-0.184944
-0.101411
-0.0952137
-0.109859
-0.106498
-0.112017
-0.111796
-0.107382
-0.110562
-0.0963792
-0.102629
-0.0803313
-0.0889047
-0.0609303
-0.070984
-0.0399363
-0.0505671
-0.0190472
-0.0293168
-0.108811
-0.0569878
-0.0827601
-0.155276
-0.133539
-0.183727
-0.172483
-0.185687
-0.18818
-0.16339
-0.177134
-0.129022
-0.146811
-0.0946966
-0.111347
-0.066368
-0.0796012
-0.0454023
-0.0549817
-0.0309434
-0.0374282
-0.0217148
-0.0257419
-0.0166178
-0.0186984
-0.0148723
-0.0153572
-0.0159647
-0.015082
-0.0196349
-0.0174738
-0.0260432
-0.0224656
-0.03546
-0.0303838
-0.046953
-0.0410862
-0.0576936
-0.0526445
-0.0644208
-0.0617268
-0.0654841
-0.0656805
-0.0614298
-0.0639962
-0.0543845
-0.0581196
-0.0469051
-0.0505497
-0.0410145
-0.0436655
-0.0378334
-0.0390427
-0.0377513
-0.0373913
-0.04083
-0.0388914
-0.0471176
-0.0435361
-0.0568902
-0.0515586
-0.0703607
-0.0631558
-0.00959943
-0.00874168
-0.013284
-0.011041
-0.0202828
-0.0163119
-0.0313836
-0.0252567
-0.0473325
-0.0387164
-0.0679079
-0.0571306
-0.0902687
-0.0791886
-0.108247
-0.100284
-0.115386
-0.113461
-0.109733
-0.114074
-0.0942417
-0.102943
-0.0736846
-0.0842998
-0.0524501
-0.0629266
-0.033356
-0.0425289
-0.0173845
-0.0249691
-0.0043564
-0.0105274
0.00615069
0.00119857
0.0142748
0.0105205
0.0198507
0.0174018
0.02264
0.021611
0.0225605
0.0229543
0.020057
0.0215564
0.0165311
0.0182938
0.0134764
0.0149387
0.0119211
0.0122859
0.0167317
0.0137684
0.0243938
0.021079
0.0266564
-0.0474074
-0.0327736
0.0179305
0.0279223
-0.207037
-0.16022
-0.00919977
-0.221752
-0.12918
-0.0786072
-0.0606241
-0.0683852
-0.227546
-0.0932374
-0.223592
-0.0586345
-0.210118
-0.0311948
-0.188678
-0.00951899
-0.161392
0.00665987
-0.130348
-0.0963859
-0.0610732
0.0185072
-0.0257599
-0.0107392
0.0275809
-0.184504
-0.09708
-0.088245
-0.111304
-0.104778
-0.119932
-0.116451
-0.121631
-0.121707
-0.116075
-0.119766
-0.10383
-0.110735
-0.0863488
-0.0956354
-0.0654043
-0.0762571
-0.0430362
-0.054335
-0.0207762
-0.031802
-0.0424862
0.00396505
-0.0184582
-0.0930516
-0.0677533
-0.136455
-0.116282
-0.160694
-0.151501
-0.159686
-0.163394
-0.137697
-0.150363
-0.106956
-0.122761
-0.0769885
-0.0914508
-0.0525117
-0.0639402
-0.0343475
-0.0426612
-0.021709
-0.0273959
-0.0135272
-0.0171154
-0.00889394
-0.0108075
-0.0071509
-0.00768773
-0.00785024
-0.00721243
-0.0107301
-0.00901821
-0.0158762
-0.0129943
-0.0235601
-0.0193996
-0.0331398
-0.0282226
-0.0422788
-0.0379609
-0.0481135
-0.0457589
-0.04915
-0.0492534
-0.0458649
-0.0479568
-0.0401326
-0.0431642
-0.0341594
-0.0370481
-0.0296725
-0.0316482
-0.0276231
-0.0283063
-0.0283421
-0.0276254
-0.0318684
-0.029751
-0.038272
-0.0346826
-0.0477154
-0.0425317
-0.053762
-0.0103528
0.000898713
0.000307426
0.000796715
-0.000166713
0.0006649
-0.00363268
-0.0015621
-0.0100011
-0.00640793
-0.0199662
-0.0144777
-0.0342134
-0.0265193
-0.0526337
-0.0429722
-0.0728283
-0.0627918
-0.0892693
-0.0819605
-0.0958695
-0.0940827
-0.0906558
-0.0946619
-0.0764621
-0.0844145
-0.0578009
-0.06742
-0.0385972
-0.0480714
-0.0212518
-0.0296056
-0.00653248
-0.0135582
0.00574465
-0.000109527
0.0159179
0.0110851
0.0240571
0.0202536
0.0299643
0.027311
0.0333906
0.0320037
0.0342709
0.0341437
0.0330122
0.0338592
0.0308534
0.0319399
0.0290127
0.0298706
0.0290335
0.0286666
0.0323097
0.0303986
0.0364656
0.0344714
0.0379821
0.0376764
0.0367908
0.0376243
0.0267834
0.0343623
0.0358126
0.00921999
0.0244134
-0.201544
-0.154527
-0.0878315
-0.0769036
-0.210735
-0.119297
-0.21109
-0.0824232
-0.202509
-0.0499949
-0.185895
-0.0248429
-0.162987
-0.00578307
-0.135513
0.00830474
-0.105041
0.0183447
-0.0728538
-0.0396397
-0.00607097
0.0270704
0.0412425
0.0253898
-0.000550517
0.0325704
0.038949
0.0425465
-0.178773
-0.1075
-0.0981244
-0.122547
-0.115748
-0.131438
-0.127903
-0.132682
-0.133068
-0.126114
-0.130369
-0.112485
-0.12012
-0.0933894
-0.103502
-0.0708497
-0.0824433
-0.0469495
-0.0590112
-0.0233967
-0.0350862
-0.00185524
-0.0122377
0.0177532
0.0566227
0.0381907
-0.0281456
-0.0044982
-0.0761667
-0.0524379
-0.115188
-0.0975218
-0.134758
-0.127626
-0.131589
-0.135751
-0.111487
-0.123025
-0.0848057
-0.0983864
-0.0594221
-0.0716308
-0.0387896
-0.04843
-0.0233758
-0.0304499
-0.0125258
-0.0174262
-0.00539229
-0.0085371
-0.00125064
-0.00298013
0.000439876
-0.000121242
6.12793e-05
0.000493664
-0.00213377
-0.000813238
-0.00616538
-0.00390026
-0.0122883
-0.00895689
-0.0201156
-0.0160705
-0.0277861
-0.0241369
-0.0328142
-0.0307651
-0.0338236
-0.033843
-0.0312127
-0.0328912
-0.026612
-0.0290387
-0.021928
-0.0241703
-0.0186376
-0.0200385
-0.0175472
-0.0177861
-0.0189287
-0.0179206
-0.0227975
-0.0205487
-0.0291804
-0.0256619
-0.0382873
-0.033335
-0.0504834
-0.0439651
-0.0656106
-0.0576963
0.00952116
0.00780907
0.00879253
0.0100692
0.00998151
0.00891602
0.00973609
0.00570905
0.00759643
9.71097e-06
0.0032116
-0.00879342
-0.0039546
-0.0213163
-0.014556
-0.0375467
-0.0290207
-0.0555331
-0.0465596
-0.0704472
-0.0637758
-0.0766043
-0.0749006
-0.0719174
-0.0755531
-0.0590063
-0.0662326
-0.0421431
-0.0508204
-0.0248609
-0.0333851
-0.00919809
-0.0167575
0.00426649
-0.00219065
0.0157349
0.0102319
0.0254805
0.0208178
0.0335106
0.0297241
0.0395912
0.0368169
0.0434594
0.0418174
0.0450575
0.0445362
0.0447731
0.0451053
0.0436548
0.0442378
0.0427459
0.0431305
0.0432615
0.0428249
0.0454705
0.0442274
0.0471955
0.0465801
0.0468605
0.0473399
0.0446987
0.0459417
0.0431194
0.0589071
0.0733918
0.030058
0.036235
-0.19064
-0.144299
-0.194814
-0.106985
-0.0036712
0.00637927
-0.0740028
-0.053983
-0.0615999
-0.190813
-0.0713368
-0.179134
-0.0419582
-0.161032
-0.0196749
-0.138029
-0.00311584
-0.111487
0.00893252
-0.0824011
0.0174547
-0.0519877
0.0232384
-0.0205214
0.0116094
0.0432972
0.0270507
0.0738189
0.088474
0.0330448
-0.168185
-0.097891
-0.0862268
-0.118897
-0.108969
-0.134904
-0.127811
-0.144058
-0.140498
-0.144839
-0.145542
-0.137186
-0.142052
-0.122042
-0.130474
-0.101198
-0.112205
-0.0769361
-0.0893556
-0.051488
-0.0643098
-0.0266614
-0.0388852
-0.0147386
0.100164
0.102392
0.114244
0.0686107
0.0852639
0.0300476
0.0502735
-0.01439
0.00825452
-0.0586589
-0.0371356
-0.0925528
-0.0775677
-0.10764
-0.102692
-0.103231
-0.107623
-0.0855683
-0.095534
-0.0633024
-0.0745392
-0.0424859
-0.052487
-0.025526
-0.0334676
-0.0127164
-0.0186169
-0.00356938
-0.00771842
0.00254721
-0.000164112
0.00618931
0.00465215
0.0077889
0.00722621
0.00766487
0.00792869
0.00605175
0.00703799
0.00298357
0.00471349
-0.00176007
0.000834404
-0.00800204
-0.00475
-0.0143303
-0.0112925
-0.0186248
-0.016853
-0.0196074
-0.0195532
-0.0175745
-0.0188995
-0.0139323
-0.0158481
-0.0103309
-0.0120313
-0.00803882
-0.00896097
-0.00774059
-0.00761416
-0.00965245
-0.0084144
-0.0137625
-0.0114312
-0.0200632
-0.0166293
-0.0288164
-0.0240711
-0.040122
-0.0340741
-0.0467484
0.0183105
0.0168541
0.0177443
0.018706
0.0186969
0.017534
0.0183241
0.0146249
0.0163195
0.009605
0.0124135
0.00195258
0.00614999
-0.00887265
-0.00303187
-0.0229341
-0.0155355
-0.0387104
-0.0308031
-0.0521127
-0.0460638
-0.0579167
-0.0562424
-0.0538486
-0.0570769
-0.0421943
-0.0487254
-0.0269926
-0.0348047
-0.0114763
-0.0191258
0.00261342
-0.00419768
0.0148552
0.00896089
0.0254752
0.0203509
0.0347038
0.030261
0.0424999
0.0387968
0.0486007
0.0457853
0.052733
0.050928
0.0548427
0.0540343
0.0552969
0.0552362
0.0549729
0.0551707
0.0547358
0.0548046
0.0552189
0.0548992
0.0563125
0.055895
0.0563525
0.0565728
0.0545583
0.0556794
0.0515101
0.0532039
0.0473248
0.0495622
0.0418619
0.0447799
0.0292575
0.0346666
0.0385151
-0.17548
-0.130953
0.0157884
-0.0828593
-0.0696872
-0.175611
-0.0938376
-0.168669
-0.0609762
-0.155498
-0.0352123
-0.137295
-0.015889
-0.115194
-0.00165071
-0.0901049
0.00859366
-0.0627472
0.0156942
-0.0338414
0.0203858
-0.00368586
0.0233693
0.0270634
0.0577032
0.087369
0.115423
0.0395393
0.0248756
0.0302433
0.0352033
-0.153936
-0.108531
-0.0960507
-0.131014
-0.12037
-0.147986
-0.140361
-0.157326
-0.153759
-0.157619
-0.158657
-0.148824
-0.154335
-0.132076
-0.141353
-0.109411
-0.121342
-0.0833317
-0.0966439
-0.0561582
-0.0698056
-0.0299819
-0.0428966
-0.00594695
-0.0176607
0.0145882
0.00482699
0.1318
0.13998
0.108302
0.121529
0.0777554
0.0939183
0.040433
0.0598185
-0.00127448
0.0197677
-0.0405944
-0.0217818
-0.0687729
-0.0565954
-0.0800937
-0.0766994
-0.0754183
-0.0794751
-0.0608037
-0.068915
-0.0430669
-0.0519803
-0.0265614
-0.0345029
-0.0129756
-0.0193614
-0.00255265
-0.00737591
0.00501859
0.00156771
0.010176
0.00787661
0.0133275
0.0119834
0.0148085
0.0142622
0.0148798
0.0150087
0.0137517
0.0144578
0.0114987
0.0127743
0.00794851
0.00990104
0.00312109
0.00566021
-0.00198247
0.000495403
-0.00560385
-0.0040864
-0.00655315
-0.00643853
-0.00500866
-0.00603537
-0.00216646
-0.00365717
0.000542437
-0.000712462
0.00202019
0.00148727
0.00168338
0.00210058
-0.000635222
0.000775219
-0.00489637
-0.00252433
-0.011071
-0.00773913
-0.0193129
-0.0149211
-0.0297421
-0.024233
-0.042407
-0.0357676
-0.0564697
-0.0492618
0.0253132
0.0234864
0.0244091
0.0265724
0.0260915
0.0267502
0.0268255
0.0256114
0.0263527
0.0230209
0.0245167
0.0186695
0.021094
0.0121257
0.0157068
0.00292873
0.00788729
-0.00903563
-0.0027308
-0.0226367
-0.0157843
-0.0345359
-0.0291037
-0.0400497
-0.038363
-0.0366966
-0.0394741
-0.0262785
-0.0321441
-0.0125892
-0.0196219
0.00134986
-0.00551786
0.0140108
0.00788492
0.0250925
0.0197407
0.0348469
0.0301189
0.0434809
0.039303
0.0509248
0.0473683
0.0569014
0.0541194
0.0611383
0.0592516
0.0635884
0.0625801
0.0645927
0.0642364
0.0648623
0.0647748
0.0650231
0.0649332
0.0652957
0.0651662
0.0652138
0.0653769
0.0638618
0.064732
0.0611256
0.0626455
0.0573815
0.0593789
0.0526791
0.0551303
0.0468827
0.049925
0.0434138
0.0252186
0.0304352
-0.1576
-0.116104
-0.154995
-0.0811009
0.0132796
0.0225077
-0.0636011
-0.0435539
-0.0498289
-0.146589
-0.0520812
-0.133241
-0.0299786
-0.115865
-0.0134343
-0.0951598
-0.0013243
-0.071635
0.00729085
-0.0457744
0.0130319
-0.0179719
0.0167202
0.0111722
0.0187896
0.0409753
0.019524
0.07084
0.100005
0.126638
0.0195992
0.0251798
0.158903
0.1642
-0.137537
-0.0920149
-0.0778259
-0.119286
-0.105922
-0.143204
-0.131842
-0.16112
-0.153091
-0.170651
-0.16708
-0.17042
-0.171812
-0.160445
-0.16662
-0.142057
-0.152196
-0.117544
-0.13041
-0.0896147
-0.103841
-0.0608412
-0.0751976
-0.0333597
-0.046835
-0.0082588
-0.0205002
0.00306078
0.139748
0.150419
0.114156
0.126712
0.0847609
0.100161
0.0494041
0.0676498
0.0117479
0.0305176
-0.0218276
-0.00600468
-0.0446235
-0.0349633
-0.0531099
-0.0506944
-0.0491703
-0.0524241
-0.0379902
-0.0441506
-0.0245535
-0.0313141
-0.0119114
-0.01802
-0.00131187
-0.00632103
0.00698628
0.00312518
0.0131339
0.0103169
0.0174068
0.0154901
0.0200891
0.0189331
0.0214331
0.020917
0.021648
0.021672
0.0209162
0.0213922
0.0193383
0.0202367
0.0167973
0.0182031
0.0132113
0.0151184
0.0092222
0.0111862
0.00622794
0.00750663
0.00532491
0.00548527
0.00646233
0.00568452
0.00864464
0.00750306
0.0106304
0.0097348
0.0114608
0.0112356
0.0106335
0.0112728
0.00802154
0.00955182
0.00368796
0.0060664
-0.00231137
0.000898369
-0.0100404
-0.00595284
-0.0195971
-0.0145793
-0.0309877
-0.0250742
-0.0371541
0.0331397
0.031576
0.0323298
0.0341868
0.0337969
0.0341731
0.034313
0.0330954
0.0337739
0.0308288
0.0321268
0.0271182
0.0291771
0.0216163
0.0246196
0.0139432
0.0180757
0.00395976
0.00922729
-0.00753644
-0.00171334
-0.0179312
-0.0131223
-0.0231688
-0.0214533
-0.0206048
-0.0228943
-0.0114399
-0.0166532
0.000871545
-0.00546432
0.0134351
0.00724695
0.0248388
0.0193205
0.0348527
0.0300085
0.0437497
0.0394237
0.0517316
0.0478544
0.0587224
0.0553672
0.0644507
0.0617661
0.0686604
0.0667583
0.071316
0.0701761
0.0727157
0.0721456
0.0733801
0.0731132
0.0736419
0.0735585
0.0734231
0.0736121
0.0723094
0.0730134
0.0699841
0.0712885
0.066602
0.0684047
0.0623405
0.0645687
0.0573413
0.0599975
0.0513348
0.0545023
0.044028
0.0478588
0.0352309
0.0397622
0.0192983
0.0248504
0.030189
-0.138748
-0.101199
0.0307185
-0.0705298
-0.0559581
-0.134759
-0.0697526
0.158062
0.165573
0.161334
-0.126119
-0.0449207
-0.113468
-0.0262255
-0.0973227
-0.0121999
-0.0780348
-0.0021065
-0.0558557
0.00492307
-0.0310686
0.00944748
-0.00419045
0.0119626
0.0242223
0.0133441
0.0534572
0.0135082
0.0827369
0.0134145
0.110992
0.136277
0.155281
0.164199
0.02992
0.0128871
0.018885
0.0244248
-0.120607
-0.10071
-0.0856932
-0.129597
-0.115407
-0.154917
-0.142905
-0.173667
-0.165307
-0.183351
-0.179791
-0.182566
-0.184324
-0.171407
-0.178243
-0.151404
-0.162389
-0.125098
-0.138867
-0.0954222
-0.110505
-0.0651497
-0.0802008
-0.0364617
-0.0504953
-0.0105882
-0.02314
0.011905
0.00111795
0.0299505
0.021469
0.1514
0.153586
0.140604
0.148125
0.116877
0.128858
0.0897373
0.104005
0.0577646
0.0741542
0.0251966
0.0412298
-0.00260286
0.0103557
-0.0209088
-0.0131696
-0.0277768
-0.0257418
-0.0253598
-0.0275109
-0.0175967
-0.0219098
-0.0079761
-0.0128526
0.00133913
-0.00319564
0.00936894
0.00554686
0.0158171
0.0127973
0.0207042
0.0184513
0.0241775
0.0226091
0.0264212
0.0254437
0.0276179
0.0271417
0.027932
0.0278773
0.0275174
0.0278078
0.0264865
0.0270788
0.0247777
0.0257295
0.0222588
0.0236159
0.0192768
0.0207701
0.0168771
0.0179253
0.0160418
0.0162308
0.016845
0.0162729
0.0184876
0.0176301
0.0198967
0.0192855
0.0202272
0.0202372
0.0190391
0.0198387
0.0162361
0.0178391
0.0119016
0.0142551
0.00612473
0.00919259
-0.00109831
0.00270039
-0.0098353
-0.0052704
-0.0200436
-0.014769
-0.0311739
-0.0255437
-0.0420047
-0.0366437
0.0389098
0.0375095
0.0381334
0.0403245
0.0397377
0.0410791
0.040813
0.0409462
0.0411226
0.0399539
0.0405619
0.0380054
0.0391125
0.0348946
0.0366134
0.0303502
0.032824
0.0240705
0.0274475
0.015915
0.0202213
0.00641717
0.0112526
-0.00246843
0.00170083
-0.00738251
-0.00565678
-0.00565107
-0.0074163
0.00222091
-0.00232867
0.0132447
0.00754216
0.02462
0.0190122
0.0349525
0.029954
0.0440201
0.039633
0.0520992
0.0481654
0.0594011
0.0558455
0.0658674
0.0627532
0.0712555
0.0687157
0.0753402
0.073472
0.0780923
0.0768782
0.0797323
0.0790346
0.08056
0.0802386
0.0806461
0.0807057
0.0798078
0.0803551
0.0778559
0.0789788
0.0747755
0.0764515
0.0709664
0.072971
0.0665444
0.0688509
0.0613995
0.0640799
0.0553366
0.0585016
0.0481164
0.0519363
0.0395734
0.0440335
0.0349379
0.0124401
0.0185268
-0.120565
-0.0874773
0.164485
-0.1163
-0.0603365
0.029091
0.036917
-0.0469012
-0.0287356
-0.0330093
-0.108215
-0.0394981
-0.0966317
-0.0238347
-0.0817326
-0.0122339
-0.0636247
-0.00403213
-0.0424446
0.00145933
-0.0184784
0.00454656
0.00775265
0.00616926
0.035659
0.00676803
0.0643597
0.00661971
0.092926
0.00609205
0.120353
0.00565419
0.144439
0.159712
0.167022
0.00540548
0.0122488
-0.10461
-0.0768474
-0.0616066
-0.108601
-0.0928942
-0.138976
-0.124049
-0.165511
-0.152949
-0.184952
-0.176323
-0.194714
-0.191197
-0.193362
-0.195485
-0.181069
-0.188533
-0.159556
-0.171328
-0.13161
-0.146201
-0.100389
-0.11622
-0.0687978
-0.0844754
-0.0390512
-0.0535811
-0.0124999
-0.0253201
0.0104754
-0.000572279
0.0204144
0.156908
0.166279
0.150174
0.153226
0.138879
0.145753
0.118268
0.129071
0.0940061
0.106666
0.0663644
0.0804317
0.0390498
0.0523926
0.016237
0.0268304
0.0012167
0.00761142
-0.00510896
-0.00298503
-0.00453094
-0.00552672
0.000176296
-0.00253124
0.00659257
0.00328755
0.0131447
0.00991756
0.0190219
0.0161982
0.0238937
0.0215944
0.0276855
0.0259255
0.0304489
0.0291919
0.0322903
0.031479
0.033336
0.0329062
0.0337123
0.0336014
0.0335456
0.0336896
0.0329485
0.0332981
0.0319072
0.0324926
0.0302818
0.0311721
0.0281981
0.0292637
0.026369
0.0271893
0.0256322
0.0258295
0.0261678
0.0257636
0.0273712
0.0267437
0.0283267
0.0279368
0.0282835
0.0284664
0.0268482
0.0277537
0.0239452
0.0255787
0.019674
0.0219741
0.0141532
0.0170667
0.00742375
0.0109434
-0.000534685
0.00360142
-0.00963822
-0.00495639
-0.0194121
-0.0144967
-0.0241511
0.045695
0.0443806
0.0449499
0.0468094
0.046306
0.0472793
0.0471328
0.0470631
0.0472563
0.0461743
0.0467069
0.0445297
0.0454572
0.0419688
0.0433777
0.0382862
0.0402847
0.0332526
0.0359541
0.026744
0.0301809
0.0191016
0.0230093
0.0117185
0.0152307
0.00723469
0.00891321
0.00817903
0.00693159
0.0147029
0.0108467
0.0244536
0.0193598
0.0347767
0.0296701
0.0442152
0.0396485
0.0524798
0.0484857
0.059817
0.0562465
0.0664505
0.0632178
0.0723605
0.0695072
0.0773531
0.0749877
0.0812399
0.0794448
0.0839784
0.0827521
0.0856734
0.0849514
0.0864146
0.0861669
0.0861275
0.0864099
0.0846834
0.0855543
0.0821177
0.0835258
0.0786687
0.0804932
0.0746021
0.0767045
0.0700162
0.0723792
0.0648196
0.0675069
0.0588301
0.0619383
0.0518497
0.0554917
0.0437082
0.0479177
0.0346345
0.0393008
0.0240795
0.0295166
0.00567022
0.0126717
0.0184101
-0.104277
-0.0757458
0.0438018
-0.0512252
-0.0367942
-0.100437
-0.0529928