/*--------------------------------*- C++ -*----------------------------------*\
  =========                 |
  \\      /  F ield         | OpenFOAM: The Open Source CFD Toolbox
   \\    /   O peration     | Website:  https://openfoam.org
    \\  /    A nd           | Version:  10
     \\/     M anipulation  |
\*---------------------------------------------------------------------------*/
FoamFile
{
    format      ascii;
    class       surfaceScalarField;
    location    "29";
    object      phi;
}
// * * * * * * * * * * * * * * * * * * * * * * * * * * * * * * * * * * * * * //

dimensions      [0 3 -1 0 0 0 0];

internalField   nonuniform List<scalar> 
81299
(
0.0317125
0.0280612
-0.0409379
-0.0188358
0.0527997
-0.0325201
0.0114329
-0.0545576
-0.0257874
0.0204532
0.0598918
-0.00962653
0.0309312
-0.0758623
0.0784161
-0.0824056
-0.00563704
0.0607767
-0.00814791
0.0860744
-0.00484459
-0.0448515
0.0356287
0.0691145
0.0458453
-0.0597655
-0.0609805
-0.0328792
0.0121838
0.0816759
0.000487
-0.0350011
-0.0264665
0.038729
-0.00876262
-0.0294794
-0.0183716
0.0242214
-0.0440136
0.0001735
0.0560239
-0.0222452
0.0104808
-0.0322493
-0.029185
-0.130685
0.0318481
0.114522
-0.0156847
-0.00898189
0.0190289
-0.0197586
0.0203851
0.0259668
-0.0202187
-0.0261332
0.000702098
0.0547166
-0.0350336
-0.0388949
-0.0362653
-0.0117383
0.00345613
0.016305
-0.00802278
-0.0188631
-0.00163787
0.000408149
-0.0391295
-0.0812434
0.0276328
0.0854587
0.0369665
-0.0490954
0.0819665
0.0142848
-0.0686185
0.0769494
-0.00665033
0.0116674
-0.0619752
0.0341912
0.0482172
-0.0204332
-0.00939154
-0.0937545
0.0411709
0.0751572
-0.00759942
-0.0149461
0.0202703
0.017384
-0.0214292
-0.0162251
0.0121413
0.0162629
-0.00813387
-0.0169847
0.0118952
0.0172308
0.0110985
-0.0106992
0.0220537
-0.0219772
-0.00796298
0.00788641
-0.000177955
0.0238792
-0.00164751
0.00291542
-0.0139086
-0.010984
-0.0185284
0.019845
0.00159887
0.0005508
-0.0194813
0.000402051
0.00242161
-0.0157794
-0.0177597
0.00919731
0.0012829
-0.0196655
-0.0010987
0.00411276
-0.0186092
-0.0161912
0.00254426
-0.0331677
-0.0348182
0.0208464
0.0471395
-0.0311432
0.0190386
-0.0210631
0.0190187
-0.0432095
-0.00695243
-0.0374267
0.0216273
-0.0424039
0.0251433
0.0389686
-0.021708
0.0210656
-0.0426231
0.0926018
0.0179084
-0.0553236
-0.0551866
-0.0055765
0.0293549
0.0688233
-0.0650846
0.0584202
0.00108791
0.0104065
-0.0575826
0.0218416
-0.0429739
0.0670121
-0.0739815
0.0960179
-0.0483601
0.0193543
0.0648555
0.0605173
-0.0441025
0.0350314
0.0397177
-0.0306466
0.0268408
-0.0458001
0.049328
0.0221897
-0.0446769
0.0158846
0.0684748
0.000981683
-0.000508932
-0.0018721
0.00139935
-0.00117198
0.00215367
-0.00168091
-5.7224e-05
0.00014625
0.00026099
-0.000350017
9.98198e-05
-0.000157044
0.00024607
-1.50991e-05
0.000660585
0.000764458
-0.00140994
0.000404695
-0.000419794
0.00106528
0.0355758
0.00185586
-0.00684476
-0.0305869
0.0263076
-0.0207745
0.0300427
-0.0259266
-0.0126872
-0.0113835
0.00490168
-0.00864873
-0.0046978
0.00844486
-0.0304164
0.0113794
0.018859
-0.0143527
-0.0111621
-0.0134871
0.0248666
0.0111119
-0.0237449
0.0294138
-0.0167807
-0.0285851
-0.00351249
-0.00238469
-0.000289095
-0.0259113
-0.00195706
-0.0241726
-0.0199724
-0.0230403
0.0284534
0.0145594
-0.00768216
0.0186211
-0.0309114
0.00411995
-0.0348424
0.0662043
0.0403851
-0.0208522
-0.0857371
0.0151562
-0.115614
0.103046
-0.00258778
0.0908778
-0.00951731
0.00267065
-0.062057
-0.0562276
0.0458094
-0.0823391
-0.0100196
0.0465493
0.0129988
0.0242076
-0.0145443
-0.0193492
0.00968582
-0.0213469
0.0432964
0.00225808
-0.0101006
-0.018091
-0.00357561
-0.0210692
-0.022946
2.11549e-05
0.117956
0.0017389
-0.047629
0.0455255
0.071672
0.000758112
-0.00410016
0.000490387
-0.00054662
0.00415639
-0.000248518
0.00146954
-0.00532118
-0.0059197
0.00538613
-0.0016061
0.00213967
-0.00691229
0.00274265
-0.00175006
0.0284157
0.0212982
-0.0312513
-0.0184625
0.0204027
0.0165423
0.00107368
-0.0124793
-0.00513669
0.00284247
0.00656527
0.00713456
-0.00171552
-0.00890876
0.0102927
0.000331536
0.019683
-0.0103
-0.0146783
0.0374113
0.0227925
0.0137353
0.006828
-0.0052558
-0.0153075
-0.0147211
-0.00213048
0.0171553
-0.00938055
0.0161045
0.0124607
0.0235537
-0.0241114
-0.00446525
0.0285766
-0.0105461
-0.0135652
-0.0226652
0.0331446
-0.0210256
0.00475779
-0.0109508
-0.0164722
-0.000969506
-0.00455123
0.00552073
-0.0069222
-0.00754182
0.0134945
-0.00880746
0.00197578
-0.00201748
-0.0185675
-0.015491
0.00127556
-0.0131183
-0.0127105
0.00213641
0.00683824
-0.00361561
-0.00322264
-0.00584899
0.0341024
0.00248616
0.00212857
0.0256028
-0.0380575
0.00364005
0.0335379
0.000879497
-0.0282251
0.00287512
-0.0127075
0.0316283
0.0129153
-0.0254862
-0.0190575
0.0225402
0.0270408
-0.0309599
0.014367
0.0366266
0.0514555
0.0159704
-0.00321642
0.0315154
0.00436569
-0.0326647
0.0363373
-0.0348132
-0.00474058
0.00163029
-0.00110109
0.0358081
-0.00207121
0.0352169
0.0310384
-0.023826
-0.00998246
0.00277006
0.0348242
0.000579917
-0.0109366
-0.000485156
0.00198049
0.00944123
-0.00958246
0.00167478
-0.00302889
-0.00725363
-0.00585598
0.00352715
-0.00396408
0.00331456
0.00141398
-0.000528241
-0.00102754
0.000145833
-0.00164985
0.0172365
-0.0180547
0.0307081
0.0561699
0.0454292
-0.00506376
9.00591e-05
0.00160063
0.00369544
-0.000789659
0.000772439
0.000107279
-0.00228968
-0.000106073
0.000242519
0.00213055
-0.000306958
-0.00335059
-0.00325474
-0.00232557
-0.000271068
-0.00470858
-0.000967588
-0.00904882
0.00985424
0.00030549
-0.00111091
-0.014164
0.00678085
-0.00166564
-0.0148386
0.00108478
-0.000410255
-0.00154013
0.000963957
0.0201012
0.00142966
-0.0340101
0.025705
0.000961431
-0.0277629
-0.00204381
0.0555117
-0.0429125
0.018178
0.0454745
0.00298246
-0.0386028
0.00765037
-0.00929554
-0.000398629
-0.000816958
0.00850918
-4.18585e-05
0.0252154
-0.00891011
0.000575998
-0.0265597
-0.0141367
0.0187848
0.0219116
-0.0040378
0.0263944
0.0226221
-0.0112031
-0.0378134
-0.0139284
0.00544044
0.0348823
0.0302338
-0.0215401
-0.000241004
0.0019307
0.000449975
0.00194338
0.000558266
-0.0126457
0.00944576
0.00271479
-0.0114624
0.000491491
0.0674234
-0.00280672
-0.0516179
0.0266674
-0.00760417
0.0248781
0.00865614
-0.0033127
-0.0302215
-0.0149768
0.00186916
0.0379858
0.0230372
-0.029358
-0.0179315
-0.0165866
0.0219633
0.0125548
0.00341145
0.00276708
-0.0241101
0.0145874
-0.0277625
0.0211703
-0.0421661
0.0167994
-0.0385416
0.00335997
0.00485034
0.00562679
-0.0138371
-0.000442951
0.00356215
0.000240769
-0.00274933
0.000766246
-0.00303568
0.0469982
0.0148364
-0.0273585
-0.0344761
0.0130884
0.0736275
-0.0282455
0.000886177
0.0404477
-0.0252242
0.0118151
-0.00335219
-3.85834e-05
0.000752957
0.00263782
-0.00017596
-0.00342475
0.00187955
-0.00205551
0.00184096
-0.0272386
0.0318535
-0.00274576
0.000427611
-0.0309789
-0.00350988
0.00057552
0.00118742
-0.00963552
-0.0029354
-0.00144674
-0.012087
0.0382333
-0.00519922
-0.0477123
0.0182956
0.0238851
-0.00394746
0.0477179
0.0354644
0.0381206
-0.0222209
-0.0513641
0.0296958
0.0358025
-0.0300339
-0.025216
0.0263156
0.0285962
-0.0202135
0.0331181
0.0590344
0.0237136
-0.011076
-0.00687733
0.0436908
0.0164762
-0.017368
0.0256129
-0.0293502
0.0202135
-0.0203949
-0.00128802
0.00108904
-0.0202244
-0.00125953
-0.00267637
0.0385785
0.0118158
-0.0259002
0.0163839
0.00951635
0.0218342
0.0226631
-0.0181818
-0.00279246
0.00763916
0.0114162
-0.0412239
0.0179259
-0.00423723
0.0275352
-0.0377527
0.00107112
-0.00454227
0.00394518
-0.00142304
-0.00225323
-0.000268908
0.0035766
-0.000178042
0.0414246
-0.0243838
0.0136673
-0.00724515
0.00209128
0.00415562
0.000998255
-0.00114074
0.00194938
-0.0080538
0.0106884
-0.020098
0.00826883
0.00442733
0.00835238
0.00403484
-0.000768789
0.000889573
0.00634246
-0.00637693
0.00349059
0.00427586
-0.00020585
-0.000523721
0.00072957
-0.000270894
6.50441e-05
0.0174174
0.0133173
-0.00815813
-0.0225766
0.017798
-0.027739
-0.0210993
0.0136731
-0.0106719
0.00288981
0.0357039
-0.00556732
-0.033649
-0.00331368
0.0320651
-0.0333329
0.00658411
0.0234351
-0.0094642
-0.029436
0.0173528
0.0330004
-0.0109572
-0.039396
0.0258512
-0.0395873
0.0310889
-0.016571
0.00383714
0.0385851
0.0408315
-0.0244022
0.00392495
-0.0183008
-0.00224172
0.0166175
-0.0164133
-0.00348778
-0.0167881
0.00661583
0.00184635
8.88401e-05
-0.00184581
0.0083728
-0.000885432
0.00282062
0.000501396
-0.00190309
-0.00750707
-0.00152204
0.00202343
-0.00342513
0.00159292
0.000205684
0.00176355
-0.000875158
0.00246808
-0.000669475
-0.0148693
-0.0105974
0.015851
0.00961572
0.00289366
0.00615281
-0.0239158
0.0173598
-0.0250635
-0.00945282
-0.00531498
0.00187046
0.0128973
0.0165288
-0.0305872
0.0370956
-0.039725
0.00638497
0.0488587
-0.0155186
-0.033128
0.000534567
0.0326788
-8.5397e-05
0.00187233
0.0328481
-0.032271
-0.0024494
0.0015423
0.0341801
-0.0338501
0.00196313
0.0342413
-0.0346621
0.00186383
0.034585
-0.0344857
0.000757918
0.0344069
-0.033301
0.00273139
0.0337878
-0.0357613
0.00475949
0.0327501
-0.0347782
0.00471112
0.0340122
-0.0339638
0.00606652
0.0325727
-0.0339281
0.00601107
0.0336747
-0.0336193
0.00719479
0.0324269
-0.0336106
0.00713971
0.033386
-0.0333309
0.00816736
0.032317
-0.0333446
0.0081141
0.0331429
-0.0330896
0.00900148
0.0322362
-0.0331236
0.00895115
0.0329408
-0.0328905
0.0109327
0.0309608
-0.0329423
0.0102747
0.03339
-0.032732
0.0103238
0.0327533
-0.0328023
0.0102816
0.0326486
-0.0326064
0.0108436
0.0321324
-0.0326944
0.0108068
0.0325543
-0.0325175
0.0112899
0.032139
-0.0326221
0.0112585
0.0324933
-0.0324619
0.0116756
0.0321661
-0.0325832
0.0116503
0.0324652
-0.0324399
0.0120134
0.0322153
-0.0325784
0.0119946
0.0324711
-0.0324524
0.0123145
0.0322893
-0.0326091
0.0123032
0.0325129
-0.0325016
0.0125896
0.0323918
-0.0326783
0.0125869
0.0325938
-0.0325911
0.0128464
0.0325294
-0.0327889
0.00962043
0.0359503
-0.0327244
0.0111639
0.0314029
-0.0329464
0.0210994
0.0270969
-0.0370324
-0.0124694
0.00353597
0.0300328
-0.0380744
0.029245
-0.0351015
-0.00333859
0.00424699
0.0341931
-0.00313126
0.00104845
-0.0330187
-0.00438855
0.0348982
-0.0336409
0.0350473
-0.00562487
-0.033811
0.00406083
-0.00467811
0.0356646
0.0356204
-0.00514684
0.00263372
0.0353612
0.0340691
-0.0349689
-0.00226841
0.00162408
0.0348856
0.0345454
-0.00122922
0.00118532
0.0344508
0.0349798
-0.00140721
0.0015001
0.0326572
0.0335659
-0.00139027
0.00128424
0.0326787
0.034122
-0.00117578
0.00107244
0.0325303
0.0337832
-0.000968862
0.000870437
0.0324154
0.0334895
-0.000772191
0.000678228
0.0323302
0.0332411
-0.00115731
-0.000722999
0.0328411
0.0324617
0.00019925
0.000321166
0.0322328
0.0328663
-0.000235618
0.000152878
0.0322152
0.0327341
-7.08581e-05
-8.87636e-06
0.0322188
0.0326363
8.79287e-05
-0.000165083
0.0322433
0.0325723
0.000241718
-0.000316746
0.0322903
0.0325419
0.000391276
-0.000464457
0.0323624
0.0325457
0.00053719
-0.00060878
0.0324634
0.0325856
0.000679917
-0.000514547
0.032364
0.0326649
-0.00311887
0.00178862
0.0327332
0.0323169
0.0324215
0.00242769
0.00163218
-0.0363309
-0.0339422
0.0374183
-0.00247866
0.00218727
-0.0343708
-0.0346965
-0.00180731
0.00350939
-0.0350031
-0.0341057
-0.00338081
0.00232132
-0.0337187
-0.0356327
-0.00143821
0.00131649
-0.0338064
-0.0330807
-0.00119771
0.00108513
-0.0334981
-0.0335005
-0.000974479
0.000868992
-0.0332391
-0.0332202
-0.000765497
0.000666188
-0.0330243
-0.0329861
-0.000568757
0.000475635
-0.0328492
-0.0327931
-0.000381783
0.000291996
-0.0327126
-0.0326382
-0.000205187
0.000119942
-0.0326092
-0.0325196
-3.60208e-05
-4.63504e-05
-0.0325398
-0.0324335
0.000127233
-0.000206919
-0.0325036
-0.032381
0.000285184
-0.000362604
-0.0325009
-0.0323616
0.000438725
-0.000514292
-0.0325335
-0.0323763
0.000588614
-0.000662403
-0.0326045
-0.0324273
0.000734119
-0.00080305
-0.03272
-0.0325193
0.000869315
0.000446263
-0.0342619
-0.0326581
0.00263538
-0.00777963
-0.0329301
-0.0339508
-0.00559184
-0.0358623
0.0367761
-0.0367851
-0.0058795
0.0370727
0.00640255
-0.00750069
-0.0356869
-0.0350846
-0.0370494
-0.0090909
0.0402608
-0.0362041
-0.00834592
-0.0112118
-0.0374664
-0.00313521
0.00184016
0.0313279
-0.00453097
0.0306408
-0.00115022
-0.0348545
0.00364396
-0.00496405
-0.0323208
0.00312616
-0.0325009
-0.00533836
-0.0334367
-0.00718178
0.00604409
-0.0345492
-0.0350995
-0.00828638
-0.0458094
-0.00506871
0.0399208
-0.00833396
-0.0422738
-0.00170352
0.0366296
-0.00317803
0.00365285
0.0365979
0.0353792
-0.00364453
0.00304451
0.0362646
0.0367844
-0.00300228
0.00158205
0.0356134
0.0356626
-0.00120771
0.00135395
0.035215
0.0344434
-0.001409
0.00178057
0.0345141
0.0344904
-0.00164753
0.00186929
0.034229
0.0351129
-0.00224635
0.00144294
0.0334606
0.0331888
-0.00133049
0.00122483
0.0327844
0.0342345
-0.00112171
0.00102117
0.0326308
0.0338863
-0.000922523
0.000826376
0.0325115
0.0335882
-0.000732265
0.000640588
0.0324219
0.0333352
-0.000316915
0.000461955
0.0326961
0.0327854
-0.000376044
0.000292204
0.0323167
0.0329522
-0.000209339
0.000127998
0.0322965
0.032817
-4.81568e-05
-3.02716e-05
0.0322972
0.0327162
0.000107415
-0.000183327
0.0323192
0.0326495
0.000258131
-0.0003319
0.0323641
0.0326167
0.000404712
-0.000476635
0.0324344
0.0326185
0.00054777
-0.000618121
0.0325338
0.0326567
0.000687532
-0.000990849
0.0326673
0.0327343
0.000908606
-0.00118142
0.033006
0.0322347
0.0330802
-0.0031443
0.0321513
-0.0344003
-0.00431968
0.0375697
-0.0343055
0.0363442
-0.00115917
-0.00656821
-0.0248622
-0.0029409
0.00194852
-0.0353385
-0.0337569
-0.00191052
0.0019455
-0.0344057
-0.0346585
-0.00270175
0.00242241
-0.0347237
-0.034862
-0.000984874
0.000909552
-0.0336434
-0.0341951
-0.00152787
0.00140218
-0.0336807
-0.033699
-0.00128372
0.00116812
-0.0333824
-0.0333821
-0.00105775
0.000949583
-0.033131
-0.0331099
-0.00084602
0.000744239
-0.0329225
-0.0328826
-0.000646655
0.000550806
-0.0327534
-0.0326955
-0.000458443
0.000366419
-0.0326205
-0.0325458
-0.000277549
0.000189836
-0.0325215
-0.0324307
-0.000104944
2.06612e-05
-0.0324555
-0.0323486
6.11994e-05
-0.000142702
-0.0324221
-0.0322992
0.000222052
-0.000301237
-0.0324217
-0.0322823
0.000378517
-0.000455805
-0.0324562
-0.032299
0.000531404
-0.000607356
-0.0325285
-0.0323517
0.00068285
-0.000760579
-0.0326422
-0.0324438
0.00083694
-0.00169268
-0.0334062
-0.0325817
0.00270924
-0.00163526
-0.0340041
-0.0329342
0.00264138
-0.0342443
-0.00279734
-0.0338484
-0.0343789
0.00404349
-0.00436941
-0.0319949
0.00326994
-0.0317274
-0.0050924
-0.0327137
-0.00524156
0.0050071
-0.0343148
-0.00499187
-0.0353492
-0.00262116
0.00237622
-0.0339994
-0.0339122
0.034925
-0.00381011
-0.00236611
-0.0341673
-0.0103565
-0.0437868
-0.0379685
-0.00784386
0.000281802
0.0329181
-0.0380074
-0.0082474
-0.0328256
-2.06339e-05
-0.00581214
0.00635475
0.0402889
-0.044342
-0.000451775
0.0435977
-0.0420648
0.00485204
-0.00322214
0.0398608
0.00695907
0.0398244
-0.00548624
0.00454006
0.0375757
0.0394536
-0.00278098
0.00246813
0.0369108
0.0371383
-0.00280788
0.003437
0.0356355
0.0364446
-0.00198864
0.0030475
0.0345545
0.037111
-0.00109911
0.0022519
0.0340622
0.0363918
-0.000970952
0.00181265
0.0336724
0.0357713
-0.0016971
0.00257437
0.0333518
0.0352284
-0.00100844
0.00137438
0.0330947
0.0347548
-0.00126884
0.00116517
0.0328881
0.03434
-0.00106627
0.0009681
0.032729
0.0339852
-0.000873798
0.00077997
0.0326054
0.0336825
-0.000689631
0.000599861
0.0325116
0.0334256
-0.000174501
0.000426836
0.0324437
0.0332108
-0.000343394
0.000260622
0.0323994
0.0330356
-0.000180428
0.000100657
0.0323763
0.0328972
-2.31645e-05
-5.3929e-05
0.0323743
0.0327936
0.000129024
-0.000203642
0.0323938
0.0327246
0.000276568
-0.000349057
0.0324366
0.0326896
0.000420112
-0.000490763
0.032505
0.0326895
0.000560224
-0.000629385
0.0326029
0.0327262
0.000697789
-0.000765767
0.0327353
0.0328027
0.00121458
-0.00136107
0.0331525
0.0326835
0.00103526
-0.00219145
0.0324841
0.0327544
0.00294975
-0.002627
0.0318285
0.0313991
0.0308257
0.0316705
-0.034056
-0.00418275
-0.00231422
-0.00345068
-0.00282715
0.00228846
-0.0347998
-0.0333142
-0.00247118
0.00268374
-0.0346183
-0.0348413
-0.00217924
0.00171851
-0.034263
-0.0343575
-0.00145703
0.00169612
-0.0338825
-0.0339337
-0.00156268
0.00143035
-0.0335484
-0.0335656
-0.00130581
0.00118504
-0.0332617
-0.0332575
-0.00107056
0.000958503
-0.0330189
-0.0329954
-0.00085181
0.000746981
-0.0328177
-0.0327759
-0.000646923
0.000548096
-0.0326545
-0.0325954
-0.000453373
0.000359608
-0.0325268
-0.0324511
-0.00026966
0.000180308
-0.0324321
-0.0323408
-9.42275e-05
8.31653e-06
-0.0323696
-0.0322626
7.4659e-05
-0.000157724
-0.032339
-0.0322162
0.000238139
-0.00031889
-0.032341
-0.0322018
0.00039725
-0.000476153
-0.0323773
-0.0322206
0.000552849
-0.000630184
-0.0324512
-0.032275
0.00070508
-0.000779707
-0.0325676
-0.0323689
0.000852597
-0.00152465
-0.0327342
-0.0325088
0.00157963
-0.00205318
-0.0335306
-0.0328792
-0.0335253
-0.0344642
-0.00615356
-0.0368458
0.00398874
-0.00402077
-0.0319628
0.00422562
-0.0319642
-0.0348925
0.0338293
-0.00274685
-0.0346359
-0.00262275
-0.003547
-0.0331875
-0.0500264
-0.00467207
0.00478987
0.00209916
0.0257898
-0.0304603
0.0202403
0.0150098
0.00233325
-0.0448498
-0.01087
-0.0392477
-0.0399226
-0.0147342
-0.00199755
0.00216869
0.0396897
-0.0369329
-0.00562604
0.0405614
0.0150419
-0.0450157
-0.0379798
-0.00951533
-0.00616325
-0.0379701
-0.00231006
0.0034781
0.0391209
0.039683
-0.00443092
0.00387182
0.0381348
0.0385008
-0.0026758
0.00356538
0.0360212
0.0383343
-0.00198328
0.00234903
0.0352698
0.0380267
-0.00224945
0.00213581
0.0346681
0.0372106
-0.00203187
0.00191549
0.0341786
0.0364958
-0.00181409
0.0017067
0.0337798
0.0358727
-0.00160756
0.0015009
0.0334584
0.0353276
-0.00140331
0.00129864
0.0331994
0.0348524
-0.0012032
0.00110224
0.032989
0.0344355
-0.00100986
0.000913236
0.0328256
0.0340776
-0.000824335
0.000731829
0.0326979
0.0337714
-0.000646136
0.000557429
0.0326003
0.0335113
-0.000474515
0.000389455
0.0325288
0.0332937
-0.000309703
0.000227915
0.0324812
0.0331154
-0.000150685
7.19077e-05
0.0324551
0.0329744
3.04644e-06
-7.89332e-05
0.0324502
0.0328686
0.000151577
-0.000225128
0.0324674
0.0327972
0.000295877
-0.000367276
0.032508
0.0327603
0.000436337
-0.000505872
0.0325746
0.0327586
0.000573501
-0.000641531
0.032671
0.0327938
0.000708121
-0.000775053
0.0328023
0.0328693
0.00108123
-0.000907127
0.0329784
0.0329897
0.00132018
-0.00143122
0.0325951
0.0331675
0.00263554
-0.00210717
0.0313001
0.0326034
0.0308177
0.0320396
-0.0318506
-0.000209618
0.00149396
0.0320574
-0.0332845
-0.00295562
-0.00210749
-0.00290593
-0.00353586
0.00274615
-0.0340101
-0.0326244
-0.00255771
0.00237988
-0.0344405
-0.0346528
-0.00221127
0.00204688
-0.0340986
-0.0341889
-0.00189467
0.00175009
-0.0337379
-0.0337815
-0.00161463
0.00148157
-0.0334153
-0.0334301
-0.001356
0.00123247
-0.0331381
-0.0331319
-0.00111629
0.00100164
-0.0329042
-0.0328792
-0.00089354
0.000786383
-0.0327105
-0.0326678
-0.000685122
0.000584279
-0.0325537
-0.0324941
-0.000488747
0.000393057
-0.0324311
-0.0323556
-0.000302118
0.000210767
-0.0323408
-0.0322498
-0.000123833
3.61113e-05
-0.0322818
-0.0321756
4.76014e-05
-0.000132426
-0.0322542
-0.0321325
0.000213566
-0.00029609
-0.0322585
-0.0321207
0.000375212
-0.000455976
-0.0322966
-0.0321415
0.000533634
-0.000613287
-0.0323715
-0.0321974
0.000690254
-0.000769642
-0.0324882
-0.032292
0.000846649
-0.000926529
-0.0326543
-0.0324318
0.00118134
-0.00183376
-0.0328781
-0.0326244
0.00181768
-0.00219159
-0.0336255
-0.0335414
0.039012
0.0279572
-0.0519273
-0.00856369
0.0419497
-0.0375398
-0.011898
0.00349012
-0.0436538
0.0021703
-0.0343219
-0.00248432
-0.0341886
0.00437386
-0.00499787
-0.0336908
-0.0336374
0.00437055
-0.00497051
-0.0362458
-0.0359765
-0.0391555
-0.00454763
0.0395728
-0.0201793
0.00197335
-0.0504106
0.00212645
-0.043447
0.00637574
-0.00658218
0.0397793
0.00526728
0.0430581
-0.00264095
0.00306721
-0.0323905
-0.00164606
-0.0329577
-0.0501119
-0.0146487
0.0394359
-0.0590177
-0.000597438
-0.00564958
0.0385033
-0.00575408
-0.0371865
-0.00245122
0.00220166
-0.0340723
-0.0347095
0.0349434
-0.0027182
-0.0022966
-0.0348641
-0.0522512
-0.00479312
0.00142742
-0.0509493
-0.00941701
-0.0388671
-0.00360307
0.00286052
0.0404322
0.0422256
-0.0032689
0.0035168
0.038873
0.0392747
-0.002008
0.00312052
0.0370223
0.0400096
-0.00243066
0.00234047
0.0361114
0.0390242
-0.00227346
0.00216793
0.0353753
0.0380937
-0.00209478
0.00198632
0.0347766
0.0372837
-0.0019065
0.00179628
0.0342888
0.0365756
-0.00171287
0.00160339
0.0338893
0.0359561
-0.00151949
0.0014125
0.0335654
0.0354115
-0.0013274
0.00122278
0.033304
0.0349375
-0.001138
0.0010369
0.0330901
0.0345202
-0.000953755
0.000856587
0.0329228
0.0341607
-0.00077526
0.000682099
0.032791
0.0338527
-0.000602794
0.000513543
0.0326896
0.0335906
-0.000436352
0.000350828
0.0326143
0.0333709
-0.00027571
0.000193813
0.0325631
0.0331905
-0.000120646
4.19552e-05
0.0325338
0.0330476
2.93286e-05
-0.000105105
0.032526
0.0329399
0.000174678
-0.000247789
0.0325405
0.0328668
0.000315787
-0.000386577
0.0325787
0.0328283
0.000453178
-0.000521964
0.0326433
0.0328252
0.000587368
-0.000654499
0.0327381
0.0328592
0.000719002
-0.000784923
0.0328682
0.0329338
0.000849011
-0.000913741
0.0330431
0.0330537
0.000976637
-0.00128464
0.0329031
0.0332304
0.00186545
-0.00302938
0.0324641
0.0331842
0.00652928
0.0395009
0.0343176
0.0327806
-0.0324119
-0.000578346
-0.0315775
0.0411234
0.00546392
0.00269702
0.0328075
-0.0338695
-0.00189353
-0.00171192
0.0346952
-0.035048
-0.00239405
-0.00208025
-0.00272741
-0.00338741
0.00282962
-0.0334523
-0.0329446
-0.00263304
0.00244764
-0.0342551
-0.0344562
-0.00227213
0.00210142
-0.0339279
-0.0340133
-0.00194524
0.0017926
-0.0335853
-0.0336253
-0.00165212
0.00151271
-0.0332759
-0.0332897
-0.00138419
0.00125619
-0.0330101
-0.0330034
-0.00113816
0.00101988
-0.032786
-0.0327612
-0.000910579
0.000800327
-0.0326003
-0.0325585
-0.000698276
0.000594671
-0.0324501
-0.0323921
-0.000498604
0.00040051
-0.032333
-0.0322595
-0.000309434
0.000215885
-0.0322472
-0.0321587
-0.000128873
3.8988e-05
-0.032192
-0.0320886
4.47749e-05
-0.000131754
-0.0321672
-0.0320487
0.000212956
-0.000297678
-0.0321738
-0.0320395
0.000376925
-0.00045996
-0.0322135
-0.0320623
0.000537762
-0.00061954
-0.0322897
-0.0321196
0.000696193
-0.000777043
-0.0324074
-0.0322153
0.000853315
-0.000934177
-0.0325734
-0.0323556
0.00101004
-0.00109074
-0.0327974
-0.0325486
0.00182726
-0.00170798
-0.0337447
-0.0328049
-0.0336949
-0.00264147
-0.0321921
0.00359028
-0.00384487
-0.0334362
-0.0326886
0.00453841
-0.00544316
-0.0353411
-0.035283
-0.0227263
-0.0392837
0.00158479
-0.00425686
0.0424513
0.00270437
0.0419385
-0.0359678
0.0357586
-0.0477683
-0.000663569
0.00304094
0.0371235
0.00301358
0.0374463
-0.0368231
-0.00808641
-0.00726728
-0.0353624
-0.0352078
0.0353307
-0.00284111
-0.0348916
-0.00261281
-0.0261505
-0.0355177
0.0150485
-0.057068
-0.00657744
0.0408238
-0.0499427
-0.0156553
-0.0329028
0.0163654
-0.0272939
0.0438313
0.00210401
-0.00257169
-0.03249
0.00259013
-0.0328766
-0.00333235
0.00319355
0.040571
0.0415976
-0.00249516
0.00219409
0.0391741
0.039973
-0.00224205
0.00218992
0.0370745
0.0399616
-0.00220495
0.0021193
0.036197
0.0390091
-0.00209848
0.00199436
0.0354794
0.0381145
-0.00195474
0.00184258
0.0348888
0.0373233
-0.00179165
0.00167662
0.0344038
0.0366265
-0.00161815
0.00150221
0.0340052
0.0360146
-0.00143847
0.00132453
0.0336794
0.0354752
-0.00125766
0.00114677
0.0334149
0.0350043
-0.00107759
0.000970547
0.0331972
0.0345894
-0.000900835
0.00079844
0.0330252
0.0342304
-0.000728568
0.000630821
0.0328888
0.0339226
-0.000561246
0.000468147
0.0327827
0.0336601
-0.000399245
0.000310606
0.0327029
0.0334398
-0.000242514
0.000158129
0.0326475
0.0332586
-9.09967e-05
1.04422e-05
0.0326143
0.0331147
5.56913e-05
-0.000132754
0.032603
0.033006
0.000197898
-0.00027183
0.0326144
0.0329319
0.000335993
-0.000407177
0.0326499
0.0328925
0.000470436
-0.000539259
0.0327122
0.0328884
0.000601725
-0.000668574
0.0328049
0.0329217
0.000730431
-0.000795782
0.0329335
0.0329957
0.000857441
-0.000921525
0.0331072
0.0331154
0.00098256
-0.00141161
0.0333322
0.0332914
0.00175453
-0.00278369
0.0334932
0.0335272
0.0345748
0.0333494
-0.0333708
-0.000556938
-0.0348292
0.0377102
0.00258291
0.00121722
0.0336455
-0.0340812
-0.00145781
-0.0014373
0.0346903
-0.0351903
-0.00189404
-0.00147108
-0.00258703
-0.00272644
0.00291273
-0.0336386
-0.0330809
-0.00270106
0.00250516
-0.0340592
-0.0342446
-0.00232497
0.00214824
-0.0337512
-0.0338332
-0.00198985
0.00183089
-0.0334263
-0.0334669
-0.00168939
0.00154531
-0.0331318
-0.0331482
-0.00141684
0.00128457
-0.0328779
-0.032875
-0.00116676
0.00104449
-0.0326637
-0.0326434
-0.000935679
0.000821767
-0.0324864
-0.0324497
-0.000720451
0.000613451
-0.0323431
-0.0322908
-0.000518334
0.000417005
-0.0322317
-0.0321644
-0.000326947
0.000230235
-0.0321505
-0.0320687
-0.000144304
5.13215e-05
-0.032099
-0.0320027
3.13259e-05
-0.000121396
-0.0320771
-0.0319661
0.000201505
-0.00028937
-0.0320859
-0.0319594
0.000367606
-0.000453909
-0.0321272
-0.031984
0.000530884
-0.00061625
-0.0322044
-0.0320426
0.000692594
-0.000777689
-0.0323223
-0.032139
0.000853991
-0.0009393
-0.0324881
-0.0322793
0.00101587
-0.00110109
-0.0327122
-0.032472
0.00117743
-0.00191663
-0.0330055
-0.0327286
0.00182203
-0.00204781
-0.0338465
-0.0337895
-0.0571678
0.00460639
0.00303382
0.03769
-0.03653
-0.00756043
-0.00159449
-0.0393948
0.00223835
-0.0345936
-0.00253632
-0.0346736
-0.0499692
0.00857155
-0.00724763
0.0335584
0.0066401
-0.00774814
-0.0342543
-0.00230191
-0.0324619
-0.00282115
-0.0321693
-0.00344688
-0.0328105
-0.0051531
-0.0335768
-0.0338541
-0.0563036
-0.0712308
-0.0214547
0.0181545
-0.0026886
0.00214632
0.0424808
-0.00185926
0.041622
-0.0024782
0.00225877
-0.0326572
-0.00234564
-0.0326226
0.0370957
-0.0359041
0.00139132
0.0383722
0.0017573
-0.0339241
-0.0103541
0.0287126
-0.00572645
0.0143655
-0.0432538
-0.00217131
0.00228706
-0.0347094
-0.0351849
0.0352384
-0.00258983
-0.0347351
-0.00262117
-0.00154613
0.00177043
0.0403467
0.0421978
-0.0018805
0.0014857
0.0395689
0.039863
-0.0025805
0.00194784
0.0377071
0.0388668
-0.00202055
0.00191561
0.036302
0.0389364
-0.00195266
0.00182838
0.0356037
0.0380775
-0.00183982
0.00170504
0.0350235
0.0373119
-0.00169821
0.00156003
0.034542
0.0366333
-0.00154038
0.00140261
0.034143
0.0360342
-0.00137269
0.00123805
0.033814
0.0355051
-0.00120082
0.00107123
0.0335445
0.0350416
-0.00102784
0.000904036
0.033321
0.0346328
-0.000856481
0.000739467
0.0331422
0.034278
-0.000688675
0.000578382
0.0329991
0.0339734
-0.00052511
0.000421409
0.0328864
0.0337134
-0.000366345
0.000268904
0.0328004
0.0334948
-0.000212542
0.000120959
0.0327391
0.0333149
-6.37403e-05
-2.25621e-05
0.0327006
0.033172
8.03306e-05
-0.000161858
0.0326845
0.0330638
0.00021995
-0.000297266
0.0326917
0.03299
0.000355478
-0.000429115
0.0327236
0.0329507
0.000487332
-0.000557823
0.0327827
0.0329467
0.000615997
-0.000683857
0.0328728
0.0329799
0.000742021
-0.000807854
0.0329994
0.0330538
0.000866307
-0.000930431
0.0331713
0.0331739
0.000988783
-0.00105228
0.0333957
0.0333498
0.00111066
-0.00129573
0.0336783
0.0335855
0.00101521
0.000451562
0.0356567
0.0342943
-0.00252354
0.00276298
0.0374506
0.0353743
0.0347602
-0.0342511
-0.00106606
7.33003e-05
0.0342228
-0.0341908
-0.00148978
-0.00146561
0.0341542
-0.0345133
-0.00153491
-0.00150769
0.0348972
-0.0352933
-0.00244498
-0.00220315
-0.00266771
-0.00302244
0.00297906
-0.0335952
-0.0338446
-0.00275544
0.00255174
-0.0338555
-0.034021
-0.00236893
0.00218374
-0.033566
-0.0336504
-0.00202544
0.00185832
-0.0332592
-0.0333086
-0.00171777
0.0015661
-0.0329801
-0.0330076
-0.00143937
0.00130049
-0.032739
-0.0327482
-0.00118508
0.00105681
-0.0325354
-0.032528
-0.000950777
0.000831265
-0.0323669
-0.0323436
-0.00073298
0.000620652
-0.0322308
-0.0321925
-0.000528738
0.000422275
-0.0321252
-0.0320725
-0.000335563
0.000233838
-0.0320488
-0.031982
-0.000151298
5.33237e-05
-0.032001
-0.0319201
2.59466e-05
-0.000121039
-0.031982
-0.0318868
0.00019783
-0.000290801
-0.0319929
-0.0318826
0.000365816
-0.000457344
-0.0320357
-0.031909
0.000531191
-0.00062186
-0.0321137
-0.0319687
0.000695071
-0.000785442
-0.0322319
-0.0320658
0.000858582
-0.000949175
-0.0323975
-0.0322061
0.00102262
-0.00111384
-0.032621
-0.0323986
0.00118764
-0.00127933
-0.0329139
-0.0326548
0.00163343
-0.00197094
-0.033509
-0.0334354
-0.0343574
0.0308761
-0.0640831
0.0400357
-0.00267369
-0.0321338
-0.00298328
-0.0318597
-0.00384547
-0.0319483
-0.00504621
-0.032376
-0.00603074
-0.0328695
-0.00789054
-0.0323945
0.00339648
0.0377387
0.00176261
0.0340359
-0.00264754
0.0316637
-0.0319951
-0.00981954
0.00412182
-0.00628994
-0.0307014
0.00362774
-0.031882
-0.037612
-0.00934321
-0.00138871
0.0274538
0.0272876
-0.0179516
0.0240927
-0.00253158
-0.00279306
0.00226981
-0.0341861
-0.00223933
-0.0352888
-0.0353865
0.0355813
-0.00278468
-0.035364
-0.00264366
-0.00116629
0.0011745
0.0424726
0.0422183
-0.00140023
0.00142713
0.0403198
0.0419721
-0.00164134
0.00204461
0.0391656
0.0396488
-0.00225532
0.00172827
0.0382342
0.0386561
-0.00189891
0.00173173
0.0364692
0.0387658
-0.00185984
0.00167373
0.0357898
0.0379494
-0.00176894
0.00157441
0.0352181
0.0372167
-0.0016431
0.00144797
0.0347371
0.0365646
-0.00149577
0.00130527
0.0343335
0.0359864
-0.00133549
0.0011528
0.0339967
0.0354749
-0.00116852
0.000995882
0.0337171
0.0350258
-0.000998878
0.000837077
0.0334828
0.0346298
-0.000829682
0.000679575
0.0332923
0.0342854
-0.00066337
0.000524688
0.0331377
0.0339896
-0.000500975
0.000373225
0.0330141
0.0337371
-0.000343227
0.000225668
0.0329179
0.0335248
-0.000190432
8.22408e-05
0.0328473
0.0333502
-4.2731e-05
-5.70647e-05
0.0328004
0.0332115
0.000100083
-0.000192454
0.0327769
0.0331068
0.000238273
-0.000324133
0.0327776
0.0330359
0.000372175
-0.000452416
0.0328038
0.0329988
0.000502217
-0.000577681
0.0328581
0.0329965
0.00062889
-0.000700371
0.0329443
0.0330311
0.000752753
-0.000821077
0.0330677
0.0331062
0.000874657
-0.000940339
0.033237
0.0332274
0.000994526
-0.00105822
0.0334594
0.0334039
0.00111239
-0.00117194
0.0337379
0.0336397
0.000804174
0.000497705
0.0343549
0.0339265
-0.000299459
0.00248689
0.0352631
0.0355725
0.0377972
-0.0364853
0.00208453
-0.0031766
0.00383989
0.037134
0.037049
0.0368938
-0.0352878
-0.000214686
0.00216579
0.0345388
-0.0341638
-0.00144108
-0.000675626
0.0341668
-0.0341657
-0.00149087
-0.0014626
0.0341588