/*--------------------------------*- C++ -*----------------------------------*\
  =========                 |
  \\      /  F ield         | OpenFOAM: The Open Source CFD Toolbox
   \\    /   O peration     | Website:  https://openfoam.org
    \\  /    A nd           | Version:  10
     \\/     M anipulation  |
\*---------------------------------------------------------------------------*/
FoamFile
{
    format      ascii;
    class       surfaceScalarField;
    location    "26.5";
    object      phi;
}
// * * * * * * * * * * * * * * * * * * * * * * * * * * * * * * * * * * * * * //

dimensions      [0 3 -1 0 0 0 0];

internalField   nonuniform List<scalar> 
57492
(
-0.0063003
0.00029589
0.00135701
0.0046474
0.00224434
-0.00491938
-0.00362526
-0.000837941
0.00256882
0.00866078
-0.0103917
0.03862
0.029612
-0.00602731
-0.0622047
-0.0831262
0.0348211
0.086925
0.013765
-0.013155
-0.00674888
0.00613889
-0.0250489
0.00727552
-0.00425703
0.0220304
0.00480385
-0.0160877
0.0118673
-0.0410034
0.0390143
-0.00987823
0.0103793
0.0375855
-0.0360975
0.00156235
0.00205824
-0.00290977
-0.000710821
-0.000693596
-0.00140255
0.00365849
-0.00342119
0.00294985
-0.000222257
0.00103675
-0.0023997
0.0284767
-0.0255829
-0.0105797
0.0076859
0.00217094
0.0218832
0.00442264
-0.00171177
0.00616546
0.0347913
-0.039245
-0.00569348
0.0343391
-0.0303574
0.00382291
-0.00823526
0.00441235
-0.0329675
0.0230517
0.0137387
-0.0468245
0.00497244
0.0341675
0.00768456
0.00896775
-0.0474316
-0.00836071
-0.00103382
0.00132955
-0.0053153
0.00501957
0.00158458
-0.00281511
0.000196717
-0.0421952
0.0431984
0.00579246
-0.00679565
-0.0588272
0.0274581
-0.0108261
-0.0217208
0.00883676
0.010575
0.00230905
-0.0151733
-0.00723902
0.000691439
-0.00827395
-0.0238956
0.0288429
0.00332663
-0.00980367
0.00309099
-0.00156126
0.0137832
-0.0089411
-0.00848158
0.00363952
-0.0115366
0.00914808
0.0161717
-0.0170877
-0.0292459
0.0214839
0.0248497
-0.0330401
-0.00972323
0.0256757
-0.0192491
-0.00272961
0.0219787
-0.00604893
-0.0132001
-0.02985
0.0374913
-0.0136902
0.00498166
-0.0190212
-0.0158104
-0.0119292
0.0192047
-0.00821848
-0.0378055
0.0203236
0.0174819
-0.0730805
0.0352751
0.0386492
-0.00482549
0.00149614
-0.0353199
0.0277873
-0.00288742
0.0137493
-0.00386115
0.0386642
-0.0396286
0.0264903
0.00465296
-0.0263394
0.0255187
-0.0032855
0.0304554
-0.0107185
-0.0224729
0.00273593
0.0343311
0.000777267
0.0204966
-0.0121041
0.0171262
0.0100567
0.0324703
-0.0420164
-0.00464419
0.00376226
0.0428983
-0.0433474
-0.00167043
0.0030015
0.0081789
0.0398944
-0.0393563
-0.00871701
0.00532269
-0.0381472
-0.0319883
0.0434219
0.0402151
-0.0516487
0.00201377
0.0489271
-0.0829292
0.000862585
0.00285177
-0.00030926
-0.0034051
0.00164658
0.00216586
-0.00151543
0.00111153
0.00205048
0.00184254
-0.000506194
-0.00178782
0.00147856
-0.000240909
-0.00154691
0.0985629
0.0390443
-0.0677691
-0.0698381
0.0313722
-0.0193445
0.0865352
-0.0858489
0.0309222
0.0862988
0.0177633
-0.0645679
0.011451
-0.0311233
0.0247885
-0.00511617
0.0268702
-0.0314545
0.0160353
0.00108084
-0.000981499
0.000196549
0.00190554
0.00053231
0.00520864
0.00134431
-0.0342345
0.0620648
0.0276338
-0.055464
0.0377845
-0.0451489
0.0217712
0.056413
-0.0161194
0.142971
-0.0130601
-0.0410755
-0.088835
0.0385295
0.0793579
0.0250833
0.0221222
-0.0556696
0.0720769
0.00160026
-0.0024382
0.00416908
0.0178004
0.0325669
-0.013765
-0.0366024
0.0239337
0.00252747
0.00323202
-0.00141208
-0.00181993
0.00372942
-0.000497403
-0.0818238
0.0401051
-0.0300359
0.0717546
-0.0713966
-0.0354126
0.0249854
-0.0389642
0.034147
-0.0665794
0.0396509
-0.000771705
-0.0198881
-0.0189911
-0.0156601
0.0447569
0.0105541
-0.01924
-0.00192121
0.00550108
-0.0175785
-0.0024332
-0.00656372
-0.0309029
-0.0194255
0.00522246
0.00821935
0.0059837
0.0061723
-0.0117305
-0.0138673
0.00180966
0.0012822
0.00308044
0.00459961
0.00243251
0.0106014
0.00221752
-0.0161465
0.00958275
0.00235361
-0.0185001
0.0028793
0.000850119
0.0464892
0.0310471
-0.00326919
0.0174427
-0.0540796
-0.00312972
0.035868
-0.026528
-0.00621022
-0.00491101
0.0413806
-0.0395993
0.03426
0.0197151
-0.00561846
-0.0483566
-0.0108423
0.0047863
0.040316
0.0437121
-0.0348393
-0.0141128
-0.0289948
0.00937243
0.0337351
-0.0133817
0.0336434
-0.0343745
0.00166633
-0.0440428
-0.00386826
-0.00299286
0.000161343
-0.00272997
0.00308038
0.00189393
-0.00157666
0.00241288
-0.00356619
-0.0068202
0.000324155
-0.0048143
0.00888742
0.00205545
-0.00612857
0.0197379
-0.0203229
-0.00422927
-0.00923631
0.0205902
0.00838401
-0.00389033
0.00354144
-0.0655528
0.0375954
0.0680626
0.0731517
-0.0255233
-0.0830409
-0.0318775
0.0394763
-0.00221409
-0.0183999
-0.00328158
-0.0122522
0.000234452
0.000274383
-0.00455408
0.00260747
0.00167222
-0.00343398
0.00238151
0.00132685
-0.00551333
-0.00247474
-0.00570572
-0.00785886
0.00131236
-0.0160187
-0.00808691
-0.01428
-0.0149156
0.0179059
0.0112897
0.000928159
0.00679422
-0.0220024
-0.0197167
0.00572923
-0.0492608
0.0186089
-0.00231553
-0.0494788
0.00509743
-0.00487941
0.00226047
-0.0368512
0.0325249
0.00206583
0.00197781
-0.0340228
0.0343054
0.00247564
-0.112407
-0.0286845
0.0357174
0.035677
-0.0457526
0.0400238
-0.00526213
0.00154562
-0.000263414
0.00248276
-0.000937147
0.00695546
-0.00130371
0.0435364
-0.0268955
-0.0202272
0.00358632
0.0377429
0.00193235
0.0582689
0.00448632
-0.0607415
0.0215116
0.0443309
-0.00757362
0.00828687
-0.0321416
0.0453663
-0.000619022
0.00310178
0.0138135
-0.0423627
-0.0441418
0.0256574
0.0532465
0.0148873
-0.000654121
-0.0156247
0.00139146
0.00502332
-0.00167262
-0.0191622
0.00387512
0.0244351
0.00327875
-0.0174176
-0.0034786
0.00113966
0.00548417
0.00104648
-0.0058888
-0.000641849
0.00152533
-0.000295942
0.00425478
0.00957602
0.0108021
-0.0188527
-0.0131311
0.0252412
-0.0092308
0.0657261
-0.0577614
-0.0210958
-0.000134065
-0.025425
0.0294341
-0.0772234
-0.000948319
-0.056385
-0.0303566
0.0095182
0.0320215
0.0261825
-0.0532315
0.0209189
0.048143
-0.0370404
0.0192244
-0.0325703
0.0187564
-0.00541046
0.0208708
-0.0315669
0.0299204
0.0455094
0.0148406
0.0445024
-0.00211208
-0.0443697
0.00197931
0.049053
-0.00590941
0.0013588
0.0495405
-0.00688993
-0.000394441
-0.0422561
0.0354171
-0.011202
0.0253255
0.0408544
-0.0108503
0.00846968
-0.0384738
0.00959809
0.0415505
-0.0102942
-0.0371789
-0.0133672
0.0396959
0.00768339
-0.0354898
-0.0142477
0.0346156
-0.0187915
-0.0316543
0.0166442
0.0338016
-0.0192204
-0.0322657
0.0326947
0.0177748
0.0306273
-0.010715
-0.0376871
0.0302004
-0.0316459
-0.0209143
0.0208633
0.0302514
-0.0164914
0.0262044
-0.0401545
0.0355626
-0.00612306
-0.0519942
0.00543159
0.053328
-0.00676541
0.0144341
0.0153665
0.0125647
-0.00844482
-0.0194863
0.0109601
0.0175321
-0.0131258
0.000799363
-0.00266794
-0.00495163
-0.019152
-0.0292631
0.0180799
0.000119459
-0.0004154
6.1209e-05
5.82497e-05
-0.00358746
-0.033216
0.0246993
-0.0289944
-0.00310983
0.0285168
0.00217032
-0.0302595
-0.000905247
0.00851714
0.0149884
-0.00760184
-0.0159037
0.00866041
0.0183091
-0.0184523
0.0207665
0.0028823
0.000292693
-0.000607238
-0.00267832
-0.00109288
0.00138557
-0.00170012
0.00032679
-0.000585786
0.00210154
-0.000386583
0.000713373
-0.000972369
0.00113199
-0.000130955
0.00058354
-0.00117708
0.00230908
-0.00130804
0.00228038
-0.000195088
-0.00597562
-0.00082769
0.00310807
-0.00102278
0.0139727
0.0336919
-0.0428784
0.0140957
-0.0447723
0.0446493
0.0482592
-0.000471572
-0.0136057
-0.0250807
0.013517
0.0251694
-0.00599124
0.0266442
-0.0342586
0.00325459
-0.0343265
0.0378227
-0.0382523
-0.020128
0.0205575
0.0378801
-0.0195825
0.0195251
-0.0206313
-0.0381298
0.0205087
0.0380534
-0.0196759
0.0195026
0.0385097
-0.0190101
0.0185538
-0.0192571
0.0392821
0.0184847
0.0384015
-0.0384403
-0.0192183
-0.0211509
0.0406229
0.0198101
0.037339
-0.0200884
-0.0375959
-0.0198545
-0.0377454
-0.0195263
-0.0378819
-0.019446
-0.0386657
-0.0193442
-0.0381524
-0.0211446
-0.0213166
0.0421565
0.019783
0.0355246
-0.0195022
-0.0210188
-0.037786
0.020675
-0.0387032
-0.020468
-0.0214146
-0.039544
0.0231726
-0.0196641
0.0418958
0.0199249
0.0352048
-0.0193443
-0.0400887
-0.0200291
0.0418235
-0.0195229
0.0195952
-0.018969
0.041583
0.0192096
0.0349902
-0.0193084
0.0346732
-0.018652
-0.0216214
-0.0392912
0.0213685
-0.0400655
-0.0216446
-0.0181283
0.0415443
0.0181669
0.0344712
-0.0179262
-0.0219553
-0.0391555
0.0218196
-0.0400698
-0.021951
-0.016737
0.0413562
0.0169251
0.0341859
-0.0164517
-0.0222747
-0.0388483
0.0219674
-0.0398636
-0.0224809
-0.0149813
0.0413517
0.0149858
0.0340165
-0.0148119
-0.0224785
-0.0385654
0.0221957
-0.0397271
-0.0226151
-0.0126936
0.0412272
0.0128182
0.0337984
-0.0124756
-0.0224489
-0.0380992
0.0219827
-0.0393588
-0.0228172
-0.0100764
0.0412382
0.0100654
0.0336955
-0.0099735
-0.0220237
-0.0377504
0.0216749
-0.038937
-0.0224455
-0.00705473
0.0411647
0.00712829
0.033608
-0.00696726
-0.0211935
-0.0362283
0.0196714
-0.0378227
-0.0223078
-0.00378308
0.0411244
0.00382335
0.0335357
-0.0037108
-0.0200744
-0.0356356
0.0194817
-0.037165
-0.020732
-0.000248475
0.0409642
0.000408656
0.0333272
-3.99887e-05
-0.0180177
-0.0340669
0.016449
-0.0356062
-0.0195766
0.0049055
0.0391361
-0.00307732
0.0344681
0.0037647
-0.0154775
-0.0333592
0.0147698
-0.0346841
-0.0163995
0.00831136
0.0364319
-0.0056072
0.0351933
0.00758612
-0.0121097
0.0111489
-0.0323984
-0.0340498
-0.0127441
0.0104062
-0.0101898
0.0362155
0.0352435
0.010356
-0.0322928
0.0335683
0.0134942
-0.0316591
0.0105152
-0.00771231
0.0073542
-0.0320403
-0.00909203
-0.03267
-0.0338752
0.0346272
0.0187297
0.0161421
-0.0342053
0.034779
0.0211012
0.0200932
-0.0352586
0.0356539
0.0218003
0.0215032
-0.0359679
0.0362139
0.0215737
0.0216534
-0.0364006
0.0385951
0.0209781
0.0211818
-0.0387315
0.0381559
0.0210843
0.0205387
-0.0394928
0.0391527
0.0198653
0.0192205
-0.0381535
0.0377265
0.0189809
0.0205018
-0.0367496
0.0366937
0.019866
0.0194616
-0.0366275
0.0365626
0.0199899
0.0198492
-0.0364975
0.0364303
0.0192768
0.0196603
-0.0363627
0.036291
0.0169968
0.0182345
-0.0362173
0.0361427
0.0128928
0.0150595
-0.0360723
0.0360148
0.0071858
0.0101358
-0.0359783
0.0359701
0.000416869
0.0038598
-0.0358473
0.0365828
-0.00634269
-0.00295444
0.0363937
-0.0100008
0.0134216
-0.0129899
0.0357838
0.0132662
0.0353989
0.0334954
-0.0327408
0.00301005
-0.0341094
0.0343881
0.0100773
0.00697214
0.0326893
-0.0326239
-0.00377623
-9.14519e-05
0.0327561
-0.0329521
-0.00977747
-0.00683501
0.0331952
-0.0334774
-0.0145297
-0.0122325
0.0337862
-0.0341185
-0.0175939
-0.016143
0.0344629
-0.0348166
-0.0189547
-0.0183077
0.0351658
-0.0354961
-0.019172
-0.0189951
0.0366092
-0.0367187
-0.0191089
-0.0189753
0.0375547
-0.0373328
-0.0197483
-0.0190184
0.0373231
-0.0373233
-0.019344
-0.0194556
0.0379695
-0.0382657
-0.0201718
-0.0204984
0.0373683
-0.0374609
-0.021552
-0.0209266
0.0375125
-0.0375121
-0.0224812
-0.0218994
0.0374451
-0.0372964
-0.0229659
-0.0226821
0.0370532
-0.037097
-0.0222639
-0.0226888
0.0367626
-0.0368565
-0.0194827
-0.0210664
0.0362365
-0.03502
-0.0139606
-0.0170194
-0.0341434
-0.00996863
-0.0312472
0.00694228
0.0367196
-0.0133158
0.0126379
0.0350164
-0.00429556
0.00381426
-0.0321887
-0.0052067
-0.0332323
-0.00325897
0.00290533
-0.0308935
-0.031485
-0.0310662
0.0314113
0.0131492
0.0305884
-0.0302069
0.00656074
0.0100375
-0.0319048
0.0327528
0.0178818
0.0156485
-0.0334594
0.0341077
0.0204529
0.0193865
-0.0346721
0.0351556
0.0213169
0.0209387
-0.035557
0.0358883
0.0212423
0.021252
-0.0361558
0.0363765
0.0207574
0.0209144
-0.0365549
0.0374407
0.0201985
0.0203603
-0.036819
0.036918
0.0197664
0.0198423
-0.0378814
0.037223
0.0196392
0.0195383
-0.0370985
0.0371308
0.0198336
0.0195861
-0.0371581
0.0371851
0.0199628
0.019822
-0.0372125
0.0372379
0.0192514
0.0196329
-0.0372577
0.0372688
0.0169857
0.0182146
-0.0372698
0.0372606
0.012902
0.0150585
-0.0372456
0.0372273
0.00720406
0.0101508
-0.0372116
0.0371974
0.000431046
0.00387549
-0.0371752
0.0373163
-0.00648383
-0.00293219
-0.0164193
0.0162971
0.035906
-0.0162785
0.0365788
-0.0370365
0.0371439
-0.0134232
-0.00972096
0.0332261
-0.0327876
0.00963879
0.0335103
0.0123537
-0.0156491
0.015819
0.0348465
0.0360469
0.0324408
-0.0319896
0.00255889
0.00662532
0.0316822
-0.0317547
-0.00370368
-0.000398875
0.0319123
-0.0321375
-0.00955231
-0.00667741
0.0324188
-0.0327499
-0.0141986
-0.0119512
0.0331166
-0.0335165
-0.017194
-0.0157763
0.0339338
-0.0343645
-0.0185239
-0.0178904
0.0347876
-0.0351961
-0.0187634
-0.0185721
0.035571
-0.0359196
-0.0187603
-0.0186004
0.0362329
-0.0369627
-0.0190185
-0.0187051
0.0372859
-0.0370423
-0.0195876
-0.0191325
0.0377179
-0.0375041
-0.0203855
-0.0198228
0.0377096
-0.0378946
-0.0213669
-0.0207212
0.0380463
-0.0381555
-0.022372
-0.0217477
0.0382066
-0.0381838
-0.0229887
-0.0226309
0.0380704
-0.037854
-0.0224804
-0.0228022
0.0375285
-0.0371008
-0.0199103
-0.0213919
0.0365927
-0.035926
-0.0146273
-0.0175275
0.0351344
-0.0340903
-0.00625083
-0.0107602
-0.0299788
0.00267724
-0.000682058
-0.000506387
-0.0320438
-0.0332152
-0.00155719
-0.00148075
-0.0312144
-0.0162252
0.0370906
0.0340299
0.0152994
-0.000849632
0.000804664
-0.0308486
-0.00104804
-0.0297804
0.00391348
-0.00528014
-0.0306772
0.0030324
-0.0323341
-0.0321611
0.0384815
-0.0387149
-0.0131897
0.0379589
-0.0157027
0.0181818
-0.0180867
0.0347514
0.0171419
0.0350697
-0.0284729
0.0290245
-0.0015996
-0.00564058
0.00544052
-0.0295804
0.0293666
0.00861123
-0.00494764
-0.0330302
-0.00474687
-0.0294391
0.0298552
0.00614473
0.00226257
-0.0302212
0.0307176
0.0126528
0.00967141
-0.0313572
0.0320257
0.0172132
0.015009
-0.0328009
0.0335145
0.0197394
0.0186113
-0.0341502
0.0347097
0.0207575
0.020303
-0.0351886
0.0355979
0.020833
0.020773
-0.0359424
0.0362363
0.0204635
0.0205698
-0.0364863
0.0367039
0.0199809
0.0201103
-0.0368939
0.0370608
0.0195995
0.0196523
-0.0372067
0.0373416
0.0195043
0.0193925
-0.0374646
0.0375824
0.0197158
0.0194632
-0.0376994
0.037819
0.0198432
0.019705
-0.0379394
0.0380581
0.0191327
0.0195124
-0.0381681
0.0382652
0.0168886
0.0181046
-0.0383442
0.0384039
0.0128423
0.0149795
-0.038444
0.0384653
0.00718273
0.0101107
-0.0384711
0.0384642
0.000437951
0.00386969
-0.0385372
0.0384678
-0.00641447
-0.00300515
-0.00996805
-0.0182168
0.017741
0.0363818
0.0183539
-0.0187343
0.037471
0.0367158
0.0357012
0.0323497
-0.0318095
0.00909866
-0.0329092
0.033578
0.0146306
0.0117942
0.0310665
-0.0310705
0.0025628
0.00588233
0.0309281
-0.0310072
-0.0036246
-0.000541251
0.0311755
-0.0314234
-0.00930445
-0.00650903
0.0317367
-0.0321107
-0.0138246
-0.0116379
0.0325295
-0.0329904
-0.016733
-0.0153575
0.0334738
-0.0339735
-0.0180243
-0.017407
0.0344643
-0.0349393
-0.0182884
-0.0180813
0.0353802
-0.0357903
-0.0183502
-0.0181594
0.0361646
-0.0365147
-0.0186685
-0.0183308
0.0368447
-0.037165
-0.0192673
-0.0188024
0.0374729
-0.0377738
-0.0200846
-0.0195149
0.038061
-0.038335
-0.0210929
-0.0204339
0.0385844
-0.0388019
-0.0221545
-0.0214983
0.03897
-0.0390733
-0.0228854
-0.0224628
0.0390915
-0.0390083
-0.0225636
-0.0227839
0.038813
-0.038502
-0.0202213
-0.0215873
0.0380868
-0.0375858
-0.0151282
-0.0179428
0.0368419
-0.0356341
-0.00745859
-0.0115042
0.0346163
-0.0339369
0.00235296
-0.00257496
0.00782723
-0.0085165
-0.0316448
-0.0330436
0.00693391
0.00544996
-0.030858
-0.00504982
-0.0314447
-0.0183442
0.0375689
0.0343409
0.016379
0.00987164
-0.0308408
-0.00817553
-0.0310181
0.0188403
-0.0228588
0.0247849
-0.0121569
0.0113112
-0.0321979
-0.01304
-0.0307617
-0.0175205
0.0277353
-0.00733245
-0.00975425
-0.0153681
-0.0317609
-0.0268939
0.0281296
-0.00618338
-0.00740392
0.0082453
-0.0277856
0.0277873
-0.00160128
-0.00440282
-0.0280536
0.0283937
0.0058046
0.00199626
-0.0290681
0.0298043
0.0119166
0.00899703
-0.0305223
0.0313942
0.0163414
0.0142909
-0.032223
0.0329951
0.0189672
0.0177825
-0.0336929
0.0343181
0.0201323
0.0196052
-0.0348651
0.0353441
0.020354
0.020226
-0.0357583
0.0361218
0.0201
0.0201556
-0.0364406
0.0367267
0.0196948
0.0197916
-0.0369833
0.0372184
0.0193643
0.0193957
-0.0374353
0.0376409
0.0192986
0.0191756
-0.0378394
0.0380395
0.0195158
0.0192647
-0.0382427
0.038453
0.0196329
0.0195017
-0.0386656
0.0388771
0.0189213
0.0192998
-0.039077
0.0392599
0.0167057
0.0179047
-0.0394169
0.0395456
0.0127136
0.0148224
-0.0396418
0.0397055
0.00711898
0.0100145
-0.0397371
0.0397388
0.000436173
0.00383818
-0.0398033
0.0399774
-0.00658858
-0.00306962
-0.0397266
0.0394415
-0.0129046
-0.00971721
-0.0393576
0.0386653
-0.0176519
-0.0156188
-0.0197342
0.019816
0.0373892
0.0204224
-0.0205697
0.0388126
0.0382571
-0.0194726
0.0196724
0.036182
0.0370592
-0.019498
0.018912
0.0353374
0.0358757
-0.0186851
0.0179583
0.0350677
0.0352966
0.0331178
-0.0322687
0.0137815
-0.0346023
0.0338253
0.0187353
0.0148946
0.0315616
-0.0310483
0.00858544
0.011087
0.0304673
-0.0303262
0.00242175
0.00530128
0.0302971
-0.0303777
-0.00354404
-0.000570369
0.0305515
-0.0308151
-0.00904079
-0.00633524
0.0311534
-0.0315629
-0.013415
-0.0112997
0.0320264
-0.0325407
-0.0162186
-0.014894
0.0330827
-0.0336437
-0.0174633
-0.0168651
0.034195
-0.0347291
-0.0177543
-0.0175299
0.0352264
-0.0356915
-0.0178851
-0.0176621
0.0361205
-0.0365282
-0.0182608
-0.0179017
0.0369173
-0.0372999
-0.0188847
-0.0184133
0.0376743
-0.0380471
-0.0197118
-0.0191405
0.0384126
-0.0387734
-0.0207321
-0.0200684
0.039119
-0.0394441
-0.0218295
-0.0211527
0.0397299
-0.0399615
-0.0226539
-0.022177
0.0401142
-0.0401686
-0.0225092
-0.0226312
0.0401067
-0.0399187
-0.0204093
-0.0216492
0.0396084
-0.0391872
-0.0155493
-0.0182531
0.0386844
-0.0381258
-0.00801718
-0.012007
0.0371204
-0.0357647
0.000997257
-0.00358041
0.0350041
-0.0341366
0.0104436
0.00617339
0.0153225
-0.0159067
-0.0316137
-0.0333049
0.0144907
0.00964989
-0.0306363
-0.00876843
-0.0308518
0.0147469
-0.0267473
-0.0121794
-0.0318787
0.0406292
-0.0406752
-0.0176059
0.0398129
-0.0197535
0.0196334
-0.01982
0.0352543
0.0183273
0.0351313
0.0177681
-0.0223179
-0.0154481
-0.0312203
0.00210723
-0.0277651
-0.0199723
0.0241666
-0.0115268
0.0192113
-0.0190146
-0.0318103
0.01814
-0.0322336
-0.0175626
-0.0177778
-0.0308795
-0.0256835
0.0261473
-0.00664717
-0.00892075
-0.0265243
0.0264494
-0.00152629
-0.0047799
-0.0266388
0.0273248
0.00511868
0.00180677
-0.0281327
0.029022
0.0110274
0.00818907
-0.0299343
0.0308479
0.0154277
0.0133786
-0.0317229
0.0325464
0.0181438
0.0169075
-0.0332987
0.0339814
0.0194495
0.0188528
-0.0345882
0.0351291
0.0198131
0.0196193
-0.035606
0.0360333
0.0196727
0.0196787
-0.0364155
0.0367653
0.019345
0.0194094
-0.0370855
0.0373857
0.0190641
0.0190755
-0.0376688
0.0379442
0.0190233
0.0188924
-0.038216
0.0384942
0.0192375
0.0189929
-0.0387798
0.0390768
0.019336
0.0192161
-0.0393776
0.0396783
0.0186206
0.018999
-0.039965
0.0402313
0.0164394
0.017618
-0.0404651
0.0406627
0.0125161
0.0145886
-0.0408156
0.0409231
0.00701139
0.00986164
-0.0409821
0.040998
0.000420277
0.00377924
-0.0409745
0.0409167
-0.00653083
-0.00304613
-0.0409773
0.0407271
-0.0126543
-0.0097778
-0.015567
-0.020954
0.0203602
0.037983
0.0210296
-0.0213798
0.0391629
0.0383327
-0.0204105
0.0201346
0.036458
0.0370088
-0.0203071
0.0203808
0.0352638
0.0357031
0.0358574
0.0325326
-0.031711
0.01296
-0.0326262
0.0343602
0.0170013
0.014801
0.0310618
-0.0302553
0.00777898
0.0104378
0.0299847
-0.0298326
0.00226964
0.00503066
0.0297932
-0.0298655
-0.00347173
-0.000609758
0.03004
-0.0303131
-0.00876769
-0.00616071
0.0306701
-0.0311085
-0.0129766
-0.0109427
0.03161
-0.0321707
-0.015658
-0.0143924
0.0327632
-0.0333772
-0.0168493
-0.0162726
0.0339804
-0.0345649
-0.0171698
-0.0169267
0.0351102
-0.0356231
-0.0173723
-0.0171168
0.0361007
-0.0365599
-0.0178015
-0.0174241
0.037003
-0.0374433
-0.0184443
-0.0179703
0.037879
-0.0383187
-0.0192721
-0.0187048
0.0387573
-0.0391999
-0.0202895
-0.0196298
0.0396368
-0.0400652
-0.0214011
-0.0207159
0.0404659
-0.0408247
-0.0222952
-0.0217762
0.041113
-0.0413084
-0.0223138
-0.0223428
0.0413841
-0.0413237
-0.0204697
-0.0215735
0.0411218
-0.0407847
-0.0158865
-0.018455
0.0403345
-0.0397941
-0.00855761
-0.0124571
0.0391989
-0.0385657
0.000364089
-0.0041756
0.0372522
-0.0359928
0.00918424
0.00485981
0.0345305
-0.0334191
0.0170286
0.0130285
0.0216146
-0.02124
-0.0326082
-0.0322791
0.0204746
0.0130897
-0.028979
-0.012341
-0.0306903
-0.0209717
0.0394049
0.0347428
0.0179447
0.0169945
-0.0259737
0.0136077
-0.0299528
0.017116
-0.0258262
-0.0156187
-0.0317081
-0.0183742
-0.0318607
-0.0256776
-0.0196502
0.0193051
-0.0186913
-0.0262914
0.0153724
-0.0260201
-0.021331
-0.0317193
0.0228298
-0.0237864
-0.0316517
0.0229614
-0.0324107
-0.0301308
-0.0231147
0.0240805
-0.0124926
0.0252382
-0.0278584
-0.0170301
-0.0156543
-0.0248752
0.0253588
-0.00713083
-0.00971539
-0.0254652
0.0257492
-0.00181024
-0.0048863
-0.0262108
0.0268532
0.00447632
0.00134515
-0.027635
0.0285179
0.0101444
0.00740724
-0.0294454
0.0303856
0.0144876
0.0124511
-0.0312967
0.0321634
0.017277
0.0159964
-0.0329634
0.0336972
0.0187158
0.0180529
-0.034357
0.0349529
0.0192172
0.0189595
-0.0354861
0.0359707
0.0191881
0.0191455
-0.0364105
0.0368186
0.0189369
0.0189695
-0.0371977
0.0375584
0.0187035
0.0186964
-0.0379036
0.0382447
0.0186822
0.0185473
-0.0385856
0.0389374
0.0188857
0.0186519
-0.0393001
0.0396779
0.0189582
0.0188535
-0.0400611
0.0404454
0.0182363
0.0186158
-0.0408143
0.0411604
0.0160933
0.0172492
-0.0414683
0.0417321
0.0122522
0.0142808
-0.0419411
0.0420917
0.00686079
0.00965268
-0.0421792
0.0422076
0.000391891
0.00369174
-0.0421801
0.0421075
-0.00645815
-0.00301867
-0.0419958
0.0420909
-0.0127494
-0.00966612
-0.041732
0.041419
-0.0172929
-0.0152081
-0.0405752
0.0401369
-0.0205335
-0.0189096
-0.0213234
0.0214104
0.0390758
0.0221872
-0.0214611
0.0394108
0.0402687
-0.0211967
0.021239
0.0379407
0.0385465
-0.0210753
0.0208208
0.0367124
0.0371725
-0.0204848
0.0200767
0.0356718
0.0360392
-0.0202112
0.0198974
0.035568
0.035723
-0.0193343
0.0186672
0.0354099
0.0356945
0.0338225
-0.032645
0.0158237
-0.0345657
0.0348212
0.0184117
0.0172016
0.0318299
-0.0311093
0.0122394
0.0139859
0.0303073
-0.0299056
0.00737733
0.0096357
0.0296241
-0.0294545
0.00210007
0.00474913
0.0294009
-0.0294644
-0.00340829
-0.000663332
0.0296364
-0.0299143
-0.00848975
-0.00598874
0.0302849
-0.0307468
-0.0125148
-0.0105721
0.0312805
-0.0318805
-0.015058
-0.0138588
0.032516
-0.0331742
-0.0161912
-0.015637
0.03382
-0.0344455
-0.0165443
-0.0162809
0.0350303
-0.0355835
-0.0168191
-0.016532
0.0361032
-0.0366077
-0.017297
-0.0169044
0.037099
-0.0375914
-0.017952
-0.017479
0.0380826
-0.0385831
-0.0187716
-0.0182136
0.0390886
-0.0396067
-0.0197713
-0.0191244
0.0401284
-0.0406539
-0.0208756
-0.0201942
0.0411639
-0.0416457
-0.0218134
-0.0212663
0.0420678
-0.042405
-0.0219766
-0.0219207
0.0426219
-0.0426947
-0.0203969
-0.0213566
0.0426067
-0.0423568
-0.0161364
-0.018543
0.0419619
-0.0414443
-0.00907521
-0.012852
0.0408373
-0.040161
-0.000312148
-0.00478268
0.0394506
-0.0387185
0.00845214
0.00414936
0.0379871
-0.0366839
0.0157255
0.0122971
0.0353782
-0.0335825
0.0211657
0.0191689
0.0234323
-0.0240039
-0.0318391
-0.0330367
0.0228865
0.0161692
-0.0281537
-0.0285555
-0.0179942
0.0182334
-0.027091
0.0413061
-0.0421424
-0.0196972
0.0407276
-0.0208826
0.0199973
-0.0199942
0.0354068
0.0193148
0.0355037
-0.0156819
-0.0306271
-0.0184139
-0.0316684
0.0176358
-0.0280895
-0.0205391
-0.0326526
-0.0220078
-0.0334979
-0.0228191
-0.0328365
0.0242434
-0.0238131
-0.0322693
0.0232212
-0.0320145
-0.0296434
-0.0285042
0.0267724
-0.0152982
-0.0177756
0.0209701
-0.03175
0.0304183
-0.0324474
-0.0157464
-0.0160801
-0.0247512
0.0246136
-0.012355
-0.0136332
-0.0248781
0.0251455
-0.00739823
-0.00997987
-0.0252255
0.0254925
-0.00207733
-0.00496628
-0.0259322
0.0265396
0.00386898
0.000905452
-0.0272864
0.0281448
0.00928607
0.00666041
-0.0290646
0.0300127
0.0135395
0.0115313
-0.0309455
0.0318444
0.0163781
0.0150637
-0.0326834
0.0334612
0.017938
0.0172138
-0.0341679
0.0348131
0.018572
0.0182529
-0.0353966
0.0359327
0.018652
0.018562
-0.0364244
0.0368852
0.0184761
0.0184778
-0.0373176
0.0377333
0.0182877
0.018264
-0.0381354
0.0385367
0.0182809
0.0181452
-0.038941
0.0393601
0.0184665
0.0182477
-0.0397932
0.0402447
0.0185066
0.0184205
-0.0407033
0.0411646
0.017775
0.0181572
-0.0416094
0.0420299
0.0156727
0.0168043
-0.042407
0.0427338
0.0119255
0.0139037
-0.0429955
0.0431876
0.00666869
0.00939094
-0.0433044
0.0433471
0.000349168
0.00357492
-0.043322
0.0432357
-0.0063719
-0.00299349
-0.0430979
0.0429096
-0.0125612
-0.00952831
-0.0427043
0.0425008
-0.0170894
-0.0150028
-0.0185512
-0.0217071
0.0214358
0.0393471
0.0209299
-0.021478
0.0399589
0.0394914
-0.0215753
0.0215364
0.0379796
0.0384069
-0.0214053
0.0211871
0.0369307
0.0373036
-0.0208873
0.0205125
0.0360467
0.0363389
-0.020676
0.0203141
0.0359299
0.0355595
0.0360144
0.0333788
-0.0326384
0.0150833
-0.0340853
0.0349004
0.0175966
0.0164951
0.0315413
-0.0305795
0.0112776
0.0128888
0.0300761
-0.0296657
0.00696695
0.0091323
0.0293676
-0.0291811
0.0019135
0.00445102
0.0291146
-0.029167
-0.00335589
-0.000729774
0.0293337
-0.0296133
-0.0082102
-0.00582204
0.029994
-0.0304751
-0.0120337
-0.0101913
0.0310358
-0.0316688
-0.014425
-0.0132981
0.0323396
-0.0330331
-0.0154976
-0.0149662
0.0337121
-0.0343692
-0.0158872
-0.0156019
0.0349849
-0.0355707
-0.0162333
-0.0159163
0.0361257
-0.0366693
-0.0167534
-0.0163494
0.0372025
-0.0377405
-0.017414
-0.0169458
0.0382806
-0.038835
-0.0182171
-0.0176735
0.0394
-0.0399856
-0.0191857
-0.0185595
0.0405837
-0.0411974
-0.0202619
-0.0195961
0.041808
-0.0424052
-0.0212162
-0.0206556
0.0429555
-0.043432
-0.0215001
-0.0213704
0.0437917
-0.0440028
-0.0201857
-0.0209969
0.0440362
-0.0438812
-0.0162914
-0.0185097
0.0435469
-0.0430538
-0.00956826
-0.0131863
0.0424378
-0.0417245
-0.0010254
-0.00539874
0.0409496
-0.0401287
0.00763124
0.00337444
0.0392919
-0.0384614
0.0148951
0.0114602
0.0368844
-0.035478
0.0197593
0.0175918
0.0343192
-0.0336795
0.0225815
0.0217277
-0.0209129
0.0171471
-0.0222543
-0.0262342
0.0241081
-0.0238897
-0.0322329
-0.0322506
0.0226792
0.0181532
-0.0280735
-0.0208734
0.0401229
0.0360094
0.0182057
0.0168811
-0.0333841
-0.0159444
-0.0183418
-0.0306992
0.0194365
-0.0343054
0.0191128
-0.028568
-0.0204612
-0.0317464
0.0190169
-0.0299593
-0.0219705
-0.0326899
-0.022845
-0.033472
-0.023165
-0.0334845
-0.0236156
-0.0325434
0.0234337
-0.0235826
-0.032084
0.0230999
-0.0319168
-0.0298321
-0.0329179
0.0308091
-0.0136376
-0.0170833
-0.0338566
0.0175559
0.0344999
-0.0344765
-0.0171067
-0.0143625
-0.0289877
0.0274973
-0.0138078
-0.0142587
-0.026341
0.0253178
-0.0113318
-0.0124769
-0.0249516
0.0250569
-0.0075035
-0.00961367
-0.0250993
0.0253432
-0.00232124
-0.00500873
-0.0257645
0.0263473
0.00328616
0.000484189
-0.0270647
0.0278943
0.0084564
0.00594305
-0.0287941
0.0297348
0.0125988
0.0106315
-0.0306736
0.0315909
0.0154609
0.0141248
-0.0324579
0.0332709
0.0171249
0.0163468
-0.0340174
0.0347058
0.0178836
0.0175064
-0.0353343
0.0359166
0.0180697
0.0179335
-0.0364549
0.0369629
0.0179681
0.0179395
-0.0374428
0.0379077
0.0178228
0.0177841
-0.0383606
0.0388156
0.0178259
0.0176923
-0.0392762
0.0397553
0.0179875
0.017787
-0.0402508
0.040768
0.0179895
0.0179249
-0.0412938
0.0418238
0.017245
0.0176314
-0.0423371
0.0428249
0.015185
0.016291
-0.0432651
0.0436496
0.011541
0.0134634
-0.0439603
0.0441923
0.00643673
0.00908019
-0.0443374
0.0443975
0.000289054
0.00342982
-0.0443778
0.0442851
-0.0062792
-0.00297385
-0.0441268
0.0439048
-0.0123392
-0.00936995
-0.0436234
0.0433808
-0.0168468
-0.0147213
-0.0430605
0.0424633
-0.0191
-0.0182308
-0.0412721
0.0406547
-0.0202559
-0.0196914
-0.0208476
0.0210285
0.0397781
0.0211636
-0.0203185
0.0398096
0.0404389
-0.0211056
0.021497
0.0389557
0.0394144
-0.0215844
0.0215792
0.0379848
0.0383195
-0.0214858
0.0213067
0.0371098
0.0373971
-0.0210473
0.0207128
0.0363812
0.0365983
-0.0203118
0.0204126
0.0358291
0.0359604
-0.0200665
0.0195509
0.0359224
0.0363605
-0.0187792
0.0185311
0.0362576
0.0362754
0.0348594
-0.0338371
0.0165743
-0.0356664
0.0363412
0.0178562
0.0173988
0.0329377
-0.0316815
0.0138271
0.0155957
0.0310382
-0.0304453
0.0106847
0.0122456
0.0299377
-0.0295157
0.00654501
0.00862464
0.0292034
-0.0290023
0.0017124
0.00413864
0.0289224
-0.0289637
-0.00331466
-0.000809611
0.029124
-0.0294035
-0.00793066
-0.00566175
0.0297922
-0.0302894
-0.0115364
-0.00980265
0.0308728
-0.0315328
-0.013765
-0.0127147
0.0322312
-0.0329511
-0.0147778
-0.0142678
0.0336537
-0.0343331
-0.0152078
-0.0148993
0.0349713
-0.0355823
-0.0156223
-0.0152781
0.0361658
-0.0367418
-0.0161775
-0.0157659
0.0373105
-0.0378873
-0.0168372
-0.0163771
0.0384692
-0.03907
-0.0176164
-0.0170916
0.0396862
-0.0403302
-0.0185417
-0.0179432
0.0409947
-0.0416857
-0.0195709
-0.0189315
0.0423859
-0.0430876
-0.0205145
-0.0199554
0.0437567
-0.044366
-0.0208908
-0.0207013
0.0448661
-0.0452185
-0.0198333
-0.0204968
0.0453809
-0.0453318
-0.0163405
-0.0183473
0.0450688
-0.0446081
-0.010029
-0.0134493
0.0439866
-0.0432365
-0.00177553
-0.0060202
0.0423997
-0.0414941
0.00672564
0.00253769
0.0405571
-0.0396111
0.0139491
0.0105232
0.0386981
-0.0378373
0.0188984
0.0166788
0.0364104
-0.0350697
0.0212408
0.0203009
0.033902
-0.0323653
0.0215632
0.0215115
-0.024301
0.0193954
-0.0173488
-0.0310987
0.0233449
-0.0233402
-0.0319216
-0.0320318
0.0230114
0.0199142
-0.0288749
-0.0202494
-0.030911
0.0175354
-0.0352135
-0.0167984
-0.0345595
0.0182382
0.0165392
-0.0332887
0.019759
-0.0293102
-0.0217881
-0.0319287
0.0418353
-0.0425084
-0.0195828
0.0407775
-0.0192607
0.0188178
-0.0191948
0.0366346
0.0185154
0.0366435
0.0196849
-0.0302488
-0.022726
-0.0328089
-0.0231285
-0.0335085
-0.0231078
-0.0339924
-0.0228035
-0.0333225
-0.023235
-0.0321892
-0.0169151
-0.0356679
0.0173695
-0.0360906
0.0359691
-0.0167936
0.0174178
-0.0371595
-0.0163489
0.0225895
-0.0307446
-0.0237664
0.0216928
-0.0311351
-0.0367944
0.0185443
-0.0301672
-0.0337218
0.0315294
-0.0149143
-0.0145511
-0.0312305
0.0306752
-0.0130823
-0.0140635
-0.0290718
0.0275175
-0.0122535
-0.0126552
-0.0266005
0.0258551
-0.0105864
-0.0115599
-0.0253476
0.0250991
-0.00725502
-0.00910625
-0.0250887
0.0252947
-0.00252719
-0.00499831
-0.0256892
0.0262486
0.0027267
8.97036e-05
-0.0269415
0.0277453
0.00765257
0.00525017
-0.0286222
0.0295473
0.0116738
0.00975457
-0.0304808
0.031404
0.0145377
0.0131913
-0.0322874
0.0331256
0.0162868
0.0154634
-0.0339037
0.0346285
0.0171588
0.0167283
-0.035296
0.0359192
0.0174465
0.017266
-0.0364989