/*--------------------------------*- C++ -*----------------------------------*\
  =========                 |
  \\      /  F ield         | OpenFOAM: The Open Source CFD Toolbox
   \\    /   O peration     | Website:  https://openfoam.org
    \\  /    A nd           | Version:  10
     \\/     M anipulation  |
\*---------------------------------------------------------------------------*/
FoamFile
{
    format      ascii;
    class       volVectorField;
    location    "6";
    object      U;
}
// * * * * * * * * * * * * * * * * * * * * * * * * * * * * * * * * * * * * * //

dimensions      [0 1 -1 0 0 0 0];

internalField   nonuniform List<vector> 
28942
(
(-0.535509 0.265204 -5.0223e-19)
(-0.549623 0.247219 -1.06138e-19)
(1.77068 -1.24823 3.26199e-19)
(2.53019 0.0493946 -5.71797e-19)
(2.49217 0.0787776 1.90363e-19)
(1.11003 0.0553171 0)
(1.30326 0.0788704 -7.68505e-21)
(1.46876 0.0476257 8.58172e-21)
(2.90178 -0.273526 2.12739e-21)
(2.87929 -0.253927 3.20128e-21)
(-0.719929 0.368202 -1.23364e-18)
(-0.192571 -0.0886911 5.47501e-19)
(-0.319505 0.063678 0)
(-0.442555 0.270947 0)
(2.31604 -0.0825764 4.07293e-21)
(2.34417 -0.0794368 4.68385e-22)
(2.36005 0.317171 1.50689e-19)
(2.32603 0.275918 2.40936e-19)
(1.0322 -1.61917 4.44092e-19)
(1.61865 -1.73505 -1.32007e-19)
(2.56388 0.63161 1.78548e-19)
(2.57739 0.608928 0)
(0.0663785 0.317352 1.05126e-18)
(-0.24257 -0.00787672 5.65067e-19)
(2.56317 -0.728185 1.12594e-18)
(3.25093 -0.895671 -1.01876e-18)
(0.74882 -1.17028 2.60413e-18)
(0.748431 -0.919333 -1.04857e-18)
(2.06917 -1.48471 -2.29587e-20)
(1.55726 -1.04551 -1.20256e-20)
(1.04408 -0.0395717 0)
(1.4391 -0.0673876 1.40061e-20)
(1.80281 -0.110383 8.9024e-21)
(2.1063 -0.0825745 2.20605e-20)
(1.51505 2.05983 -1.97557e-19)
(1.09814 2.214 3.00488e-19)
(1.71696 2.0144 -5.17369e-19)
(1.33277 2.03697 -2.33155e-19)
(0.48173 0.0421574 8.99601e-21)
(0.614057 2.04318 -1.10361e-19)
(2.04729 -0.0330508 0)
(2.36938 -0.0830733 0)
(1.02936 1.31892 -1.30147e-21)
(1.06866 1.50931 -1.63123e-20)
(1.08102 1.18274 4.50984e-21)
(1.88307 0.0576163 -5.04843e-21)
(1.84977 0.0772474 8.42683e-21)
(2.20508 0.064634 3.42783e-20)
(2.15753 0.0667874 -9.40681e-21)
(1.94053 0.0685501 2.68071e-20)
(1.81145 0.0937518 -1.53656e-20)
(2.78288 -0.0885546 -4.38262e-20)
(2.77318 -0.0929864 -3.65683e-20)
(2.90194 -0.298788 -1.44953e-21)
(2.87482 -0.277066 9.13337e-22)
(3.46413 -0.318185 9.39255e-19)
(3.79098 -0.436871 4.71394e-19)
(-0.0722459 0.000571049 -6.8148e-19)
(-0.186226 -0.0301835 0)
(-0.147294 0.0259136 2.46609e-19)
(-0.0902803 0.0183898 5.99717e-19)
(-0.0288302 -0.0165552 -4.67852e-19)
(-0.0187469 0.0104692 -4.7686e-19)
(3.16904 -1.19012 0)
(3.67059 -1.0371 1.43969e-19)
(3.20772 -0.875723 -6.32258e-20)
(3.11591 -0.854095 0)
(2.30544 -0.428911 -1.44883e-19)
(2.364 -0.470243 -9.36778e-20)
(-0.278283 0.155973 1.64922e-18)
(-0.370797 0.208597 -5.16251e-19)
(-0.503956 0.326356 1.28246e-18)
(2.34382 -0.576866 0)
(2.32025 -0.516841 4.98646e-19)
(2.17661 -0.838706 1.29085e-19)
(3.97 0.603605 4.67015e-19)
(4.06304 0.445473 -5.17249e-19)
(3.85812 0.306831 -3.31561e-19)
(0.595264 -0.320857 1.67277e-20)
(0.899769 -0.528865 -3.36724e-19)
(2.66935 -1.64156 -6.77307e-20)
(2.46557 -1.5949 1.20363e-19)
(-0.566216 0.186394 2.55106e-18)
(-0.681245 0.199737 -9.87583e-19)
(3.50269 1.49518 -7.91519e-20)
(2.94033 1.21108 7.2763e-20)
(2.95327 1.77942 -1.09491e-19)
(2.85586 1.90406 4.12307e-19)
(2.83117 1.95387 -2.77844e-19)
(2.42286 1.7375 3.61471e-20)
(2.45791 1.89478 7.8567e-20)
(2.48991 1.99871 -8.21124e-20)
(-0.650969 1.44984 -1.54428e-19)
(-0.736215 1.13421 -3.74564e-20)
(-0.269343 0.981157 7.51742e-20)
(0.048711 1.20279 -1.08991e-18)
(-0.0357753 1.56105 1.37374e-18)
(1.24889 1.40417 4.68349e-19)
(1.48606 1.63781 -1.42319e-19)
(-0.621907 -0.12092 0)
(2.51609 -0.00100635 0)
(2.43009 0.0781335 -4.0552e-19)
(2.40076 0.17728 3.37783e-19)
(2.60766 0.149389 0)
(3.26459 -0.332999 0)
(3.24612 -0.360947 0)
(3.30373 -0.375555 3.98034e-19)
(2.75485 0.368734 -2.32896e-20)
(2.7455 0.403744 2.50254e-19)
(2.73217 0.353469 1.3589e-19)
(-0.0963925 0.0812551 1.34991e-18)
(-0.080232 0.206338 -1.51773e-18)
(-0.265738 0.279006 -8.88128e-19)
(-0.17666 0.0277348 8.31452e-19)
(-0.585984 0.18077 1.72022e-18)
(0.569633 0.911414 4.35317e-19)
(1.06128 0.735362 1.07239e-18)
(0.896867 1.48623 1.02448e-19)
(0.428497 1.42162 -2.45755e-18)
(3.55699 1.18331 -7.03802e-21)
(3.13686 1.1774 -2.79776e-20)
(3.07889 1.04609 3.98801e-20)
(2.3778 -1.76312 4.36785e-20)
(1.76541 -1.27986 -3.9968e-21)
(0.657584 0.226771 -1.39205e-18)
(0.656651 0.0424699 0)
(1.03913 0.0908444 7.68365e-19)
(1.62017 -1.23166 5.89786e-20)
(1.98866 -1.61473 -1.17709e-19)
(2.15005 0.0596749 -3.11096e-20)
(2.21123 0.0558192 1.52463e-20)
(2.03037 0.0557464 9.83382e-22)
(1.26388 -1.67251 0)
(1.36113 -1.16673 0)
(2.57551 -0.167622 -7.14734e-20)
(2.53279 -0.155498 4.09494e-19)
(2.53806 -0.056053 0)
(2.06725 -1.66334 0)
(2.07866 -1.38161 -1.57106e-19)
(2.42865 2.07564 2.63999e-19)
(0.358914 0.732467 8.87208e-19)
(0.322211 0.502202 -6.62063e-19)
(1.82486 -1.60874 -7.99156e-20)
(1.03988 0.95402 9.97853e-20)
(1.12546 1.11088 -1.21063e-20)
(3.53612 -0.247416 -1.12908e-19)
(3.53296 -0.1498 1.51897e-19)
(3.48551 -0.154436 4.71216e-19)
(0.211368 0.403352 3.04503e-19)
(2.75741 2.04742 1.16207e-19)
(2.78862 1.80358 -4.65071e-20)
(3.31739 2.18504 1.42069e-21)
(1.60446 -0.0448025 -3.48983e-21)
(1.59989 -0.0445405 -3.064e-20)
(1.80182 -0.0542339 -2.80987e-21)
(1.81837 -0.0649736 9.63854e-21)
(2.34511 1.9531 1.18743e-19)
(1.44649 1.77698 0)
(0.197445 1.39193 1.15292e-18)
(-0.0959421 0.456659 -1.31155e-18)
(-0.198256 1.94691 8.93289e-19)
(2.53022 0.583906 -1.81424e-18)
(3.6822 0.915604 -9.02166e-19)
(2.02011 -0.0704854 2.72836e-21)
(3.59549 -1.50935 1.66882e-19)
(3.49346 -1.51633 4.40184e-19)
(2.55265 0.703383 4.15676e-19)
(2.40416 0.824994 4.12699e-20)
(2.40125 0.515378 2.56071e-19)
(2.44887 0.532916 -1.83942e-19)
(2.60162 0.702133 0)
(2.69671 -0.0436994 9.09995e-21)
(2.6953 -0.0543944 1.7722e-20)
(2.79937 -0.191481 -1.37462e-20)
(2.81545 -0.202741 2.28803e-20)
(2.77226 0.320288 2.41077e-20)
(2.80859 0.333759 -6.39127e-20)
(2.78033 0.351189 0)
(2.74716 0.332499 1.70887e-20)
(2.78366 0.38957 0)
(2.81396 0.52489 -5.66341e-20)
(2.80801 0.593742 -3.56228e-20)
(2.78336 0.679395 -7.02547e-20)
(2.80208 0.653698 0)
(2.88141 0.656807 1.77811e-19)
(2.83264 0.720682 1.56856e-20)
(2.75015 0.741765 -4.71157e-20)
(2.62254 0.906237 -2.04137e-19)
(2.61014 0.756952 -3.89035e-20)
(1.80606 -0.11396 6.05773e-19)
(2.42114 -0.483379 -2.36031e-19)
(-0.619737 0.314202 -1.24797e-18)
(1.97597 0.0606172 2.84547e-20)
(2.28077 0.0599074 0)
(0.408 -0.16777 1.48635e-18)
(0.365604 -0.244686 6.71521e-19)
(2.18406 0.0747235 -4.4562e-21)
(2.33158 0.0726016 -1.27711e-21)
(2.33616 0.0709942 0)
(2.16161 0.0719808 -2.58819e-21)
(1.18902 -1.06774 6.0073e-20)
(1.13604 -1.07406 -3.32848e-19)
(1.24498 -1.15091 -1.15154e-19)
(0.0500886 0.306472 5.75304e-19)
(0.0521377 0.103384 -7.24091e-19)
(0.0865009 0.17079 6.838e-19)
(-0.130268 -0.0239012 0)
(-0.0894371 -0.0303197 1.00714e-18)
(-0.0646176 -0.0319762 -8.66837e-19)
(-0.2994 -0.0729868 -9.03139e-19)
(-0.334812 -0.167948 -8.48821e-19)
(-0.222278 -0.129156 0)
(0.183531 1.12701 0)
(0.0901435 0.745563 0)
(0.00587387 0.460666 0)
(3.19297 -0.350319 -4.89066e-20)
(3.12744 -0.339691 0)
(3.16214 -0.365223 5.02956e-20)
(2.32679 -0.135356 1.01365e-18)
(2.35801 -0.147253 -3.71644e-19)
(2.35265 -0.104803 0)
(2.0231 -1.04221 3.00103e-21)
(2.01064 -1.01152 -5.94913e-21)
(2.0317 -1.0744 1.95603e-21)
(1.99253 -0.983091 0)
(1.96798 -0.959716 4.32068e-21)
(1.93244 -0.943477 0)
(1.94792 -0.906267 0)
(1.89514 -0.923175 -1.61661e-20)
(1.91323 -0.881268 0)
(1.97875 -0.93188 3.94651e-21)
(1.99932 -0.96396 0)
(2.0161 -0.997924 -1.87547e-21)
(2.02918 -1.03229 2.90469e-21)
(2.03959 -1.06655 -1.95224e-21)
(1.85871 -0.89491 1.54582e-20)
(1.87484 -0.85614 5.11906e-22)
(2.03838 -1.1053 4.41628e-24)
(2.04682 -1.10123 2.96505e-21)
(2.04232 -1.13735 -1.57574e-20)
(1.82696 -0.849129 -1.59579e-23)
(1.83628 -0.821011 5.37449e-22)
(2.05288 -1.13592 -5.86026e-21)
(1.80914 -0.775798 -1.60039e-20)
(1.81041 -0.671596 1.59888e-20)
(1.80721 -0.76466 -1.05649e-21)
(1.79483 -0.681032 -2.17767e-21)
(2.04259 -1.17072 1.53487e-20)
(2.0548 -1.17296 3.86031e-21)
(1.83121 -0.538799 0)
(1.80251 -0.56888 2.14813e-21)
(2.04077 -1.20609 -1.92517e-24)
(2.05425 -1.21159 1.92349e-24)
(1.87005 -0.383397 0)
(1.8299 -0.432314 0)
(2.03513 -1.24369 0)
(2.05091 -1.25249 0)
(1.92393 -0.214484 0)
(1.87491 -0.278453 -1.03389e-21)
(2.02657 -1.28368 8.32017e-21)
(2.0447 -1.29556 2.03714e-24)
(1.98956 -0.0413365 -5.63892e-23)
(1.93343 -0.116743 1.10727e-21)
(2.01487 -1.32583 -8.36024e-21)
(2.03555 -1.34131 0)
(2.06366 0.127255 0)
(2.00281 0.0448679 0)
(1.99958 -1.37077 5.67824e-22)
(2.02324 -1.38954 -1.01705e-20)
(2.14141 0.283528 -6.57798e-21)
(2.0775 0.197259 0)
(1.98064 -1.4179 6.15837e-22)
(2.00726 -1.44038 9.65725e-21)
(2.22129 0.423297 9.63632e-21)
(2.15649 0.337607 2.44016e-21)
(1.957 -1.46825 -9.73112e-21)
(1.98715 -1.49374 0)
(2.29698 0.539989 -3.03986e-21)
(2.23372 0.458471 -1.6354e-21)
(1.9283 -1.51884 5.5095e-21)
(1.96252 -1.54902 -1.15458e-20)
(2.37104 0.637253 1.03867e-20)
(2.31043 0.562602 -1.17159e-20)
(1.89323 -1.57158 -5.56777e-21)
(1.9327 -1.6053 -2.07281e-22)
(2.43718 0.710071 0)
(2.38213 0.64494 -4.73408e-21)
(1.85273 -1.6212 1.31425e-20)
(1.89728 -1.66132 -2.73224e-20)
(2.4962 0.761127 0)
(2.44548 0.704061 0)
(1.86294 -1.52946 5.51328e-21)
(1.81953 -1.57233 2.24509e-20)
(1.80375 -1.66658 0)
(1.85484 -1.71322 1.5707e-20)
(1.93208 -1.43724 2.88591e-21)
(1.90066 -1.48285 -5.99039e-22)
(1.98106 -1.34935 0)
(1.95901 -1.39224 9.60148e-21)
(2.01394 -1.27036 1.70928e-23)
(1.99922 -1.30879 0)
(2.03258 -1.19991 0)
(2.02463 -1.23444 0)
(2.03705 -1.13824 0)
(2.03601 -1.16858 0)
(2.0294 -1.08095 -3.98885e-21)
(2.0352 -1.10895 -9.72753e-22)
(2.00784 -1.02684 3.94144e-21)
(2.0216 -1.05178 3.96445e-21)
(1.96006 -0.991075 -7.38476e-21)
(1.98797 -1.00527 -9.52297e-21)
(1.88712 -0.963716 0)
(1.9236 -0.981426 0)
(1.83366 -0.869265 3.94796e-23)
(1.85549 -0.929577 0)
(1.84156 -0.650975 0)
(1.82794 -0.77665 0)
(1.92314 -0.322837 0)
(1.87406 -0.496978 0)
(2.05803 0.0449916 0)
(1.98568 -0.138791 0)
(2.21607 0.377051 0)
(2.13603 0.219389 0)
(2.36824 0.623488 0)
(2.29466 0.512826 0)
(2.49489 0.771008 4.40374e-21)
(2.43639 0.710158 0)
(2.54676 0.811544 1.3122e-21)
(2.54452 0.790435 -1.03968e-21)
(2.50002 0.742878 1.03119e-21)
(2.25477 0.488491 0)
(2.39483 0.64272 3.89682e-21)
(2.32779 0.575918 2.59058e-21)
(2.10144 0.260065 -8.09187e-22)
(2.17912 0.383312 2.69882e-21)
(1.95469 -0.0244285 -2.60591e-23)
(2.02553 0.122706 0)
(1.8419 -0.324667 0)
(1.89194 -0.176437 0)
(1.79277 -0.578455 0)
(1.80775 -0.46143 0)
(1.82079 -0.737985 0)
(1.79774 -0.670993 -3.55413e-27)
(1.89644 -0.815774 -2.88423e-23)
(1.8563 -0.783643 0)
(1.96572 -0.874313 0)
(1.93478 -0.843876 0)
(2.00892 -0.945573 0)
(1.99052 -0.908445 0)
(2.03871 -1.01994 0)
(2.02444 -0.983337 1.93565e-21)
(2.05924 -1.0931 -5.26609e-22)
(2.05072 -1.05602 2.43667e-21)
(2.07072 -1.17072 0)
(2.06667 -1.13073 2.02141e-21)
(2.0712 -1.25597 0)
(2.07224 -1.21225 0)
(2.06104 -1.35104 0)
(2.06762 -1.30205 0)
(2.03854 -1.4575 0)
(2.05152 -1.40278 0)
(2.00093 -1.57443 2.8685e-21)
(2.02179 -1.51464 0)
(1.94437 -1.69551 1.44934e-20)
(1.97534 -1.63499 3.31593e-21)
(1.90659 -1.75286 -1.60554e-20)
(1.76947 -1.61012 -2.29909e-20)
(2.58868 0.831915 -2.21931e-21)
(2.45392 0.689798 3.10924e-21)
(1.80399 -1.75724 0)
(1.86111 -1.80176 0)
(1.71164 -1.63627 0)
(1.74735 -1.70154 0)
(1.83748 -1.48211 0)
(1.73796 -1.54679 -3.83325e-21)
(1.79095 -1.51739 -5.01781e-21)
(1.91289 -1.40309 -5.58238e-21)
(1.87815 -1.44252 1.13324e-21)
(1.96806 -1.32635 -1.57799e-23)
(1.94267 -1.36406 0)
(2.00624 -1.25595 0)
(1.98881 -1.29058 0)
(2.02868 -1.19315 0)
(2.01886 -1.2242 0)
(2.03628 -1.1384 0)
(2.03389 -1.16544 0)
(2.03199 -1.08687 0)
(2.03611 -1.11232 0)
(2.00931 -1.04503 1.69875e-23)
(2.02438 -1.06304 -4.24507e-21)
(1.95745 -1.02438 1.83115e-23)
(1.98757 -1.03153 8.8572e-21)
(1.88898 -0.996527 0)
(1.92188 -1.01675 0)
(1.85263 -0.877055 -2.04259e-23)
(1.86429 -0.952678 0)
(1.88324 -0.622164 0)
(1.85846 -0.766236 0)
(1.98269 -0.263654 0)
(1.92557 -0.451417 0)
(2.12744 0.120454 0)
(2.05121 -0.0696336 0)
(2.28693 0.453687 0)
(2.20704 0.297174 0)
(2.43343 0.69003 0)
(2.36289 0.585147 0)
(2.54962 0.821852 -3.08388e-21)
(2.49573 0.768426 0)
(2.58493 0.803991 0)
(2.62239 0.836895 -1.79141e-21)
(2.63028 0.865918 0)
(2.59419 0.853196 -2.74964e-21)
(2.34429 0.577691 -3.97509e-21)
(2.40694 0.632263 -8.16991e-22)
(2.50458 0.719818 -7.06417e-21)
(2.54603 0.764871 0)
(2.20126 0.412879 0)
(2.27462 0.504066 6.18183e-21)
(2.051 0.184131 -2.07329e-23)
(2.12709 0.307637 -2.71619e-21)
(1.9148 -0.0881397 2.6059e-23)
(1.98017 0.0522095 0)
(1.8208 -0.361475 0)
(1.86071 -0.228218 0)
(1.79686 -0.577438 0)
(1.79907 -0.479777 0)
(1.84472 -0.705643 0)
(1.81359 -0.651973 3.55415e-27)
(1.92226 -0.777484 5.55167e-23)
(1.88345 -0.744691 0)
(1.98297 -0.848231 0)
(1.95601 -0.811021 0)
(2.02201 -0.928737 -9.24292e-22)
(2.00414 -0.888138 0)
(2.05228 -1.00711 0)
(2.03748 -0.96858 9.20306e-22)
(2.075 -1.08464 -2.00291e-21)
(2.06497 -1.04543 -1.96998e-21)
(2.08899 -1.16698 0)
(2.08314 -1.12509 0)
(2.09419 -1.25688 0)
(2.09276 -1.21081 0)
(2.08974 -1.35722 0)
(2.0932 -1.30563 0)
(2.07426 -1.46991 0)
(2.08345 -1.41197 0)
(2.04564 -1.59487 -5.47368e-23)
(2.06172 -1.53101 0)
(1.99995 -1.72621 6.53372e-23)
(2.02545 -1.66048 0)
(1.93066 -1.84625 1.90994e-20)
(1.96893 -1.78997 -1.90895e-20)
(1.67639 -1.56484 -1.0673e-20)
(1.80624 -1.83544 0)
(1.88377 -1.88899 4.72811e-20)
(1.74466 -1.78493 0)
(2.65805 0.863956 0)
(2.46258 0.670854 7.26673e-22)
(1.64483 -1.64527 -3.71564e-20)
(1.60484 -1.566 -1.3476e-20)
(1.73977 -1.84426 -1.04092e-20)
(1.82744 -1.90891 -5.99492e-20)
(1.68362 -1.71903 0)
(2.67208 0.894087 -1.06105e-20)
(2.6931 0.885083 5.00615e-21)
(2.54801 0.736406 1.45378e-21)
(2.51153 0.695746 -6.7422e-21)
(1.58864 -1.48459 -3.85036e-20)
(1.52279 -1.54161 2.56725e-20)
(1.42602 -1.40372 1.06066e-19)
(1.51613 -1.45597 2.17897e-20)
(1.71614 -1.48019 -8.13208e-21)
(1.65523 -1.4903 3.11393e-20)
(1.81907 -1.43185 8.68344e-21)
(1.7705 -1.45899 7.28256e-21)
(1.8993 -1.3673 2.11279e-21)
(1.86202 -1.39997 1.92241e-21)
(1.95927 -1.30182 1.57799e-23)
(1.93126 -1.33435 0)
(2.00193 -1.24003 0)
(1.98229 -1.27065 0)
(2.02801 -1.18515 0)
(2.01645 -1.21226 0)
(2.03942 -1.13676 0)
(2.03516 -1.16075 0)
(2.03807 -1.09241 0)
(2.04087 -1.11387 0)
(2.01422 -1.06386 0)
(2.03028 -1.07446 0)
(1.96075 -1.05672 7.14835e-25)
(1.99074 -1.05894 0)
(1.90167 -1.02246 0)
(1.92854 -1.04885 0)
(1.8854 -0.874644 -2.33901e-23)
(1.88595 -0.966475 0)
(1.93765 -0.584531 0)
(1.90264 -0.745939 0)
(2.05229 -0.198542 0)
(1.98853 -0.398541 0)
(2.20397 0.199237 0)
(2.12529 0.00422374 0)
(2.36295 0.531383 0)
(2.2844 0.377174 0)
(2.5019 0.754874 0)
(2.43601 0.657584 0)
(2.60542 0.867605 -1.75032e-21)
(2.55835 0.824002 8.93269e-22)
(2.64276 0.889561 5.65196e-21)
(2.61673 0.804178 8.8339e-22)
(2.67828 0.850658 -3.85422e-21)
(2.64818 0.829988 3.11538e-21)
(2.58291 0.772425 0)
(2.29478 0.510864 2.46358e-21)
(2.41956 0.618015 6.15154e-21)
(2.36024 0.572139 -5.42467e-21)
(2.15091 0.338424 0)
(2.22417 0.432519 0)
(2.00701 0.113137 2.29097e-24)
(2.07891 0.233311 0)
(1.88423 -0.143731 0)
(1.94174 -0.0130318 0)
(1.81301 -0.385984 2.21416e-23)
(1.84058 -0.269909 0)
(1.81542 -0.56403 0)
(1.80489 -0.484952 0)
(1.87749 -0.668921 0)
(1.84183 -0.623682 0)
(1.94969 -0.743812 -2.66741e-23)
(1.91542 -0.70676 0)
(2.00049 -0.826115 -2.56881e-23)
(1.97794 -0.783559 0)
(2.03701 -0.911842 0)
(2.01961 -0.8695 0)
(2.06834 -0.993097 0)
(2.05345 -0.952778 0)
(2.09291 -1.07477 0)
(2.08164 -1.0335 0)
(2.10987 -1.16135 0)
(2.10229 -1.11732 0)
(2.11926 -1.25563 3.66923e-23)
(2.11555 -1.20731 0)
(2.12034 -1.36082 0)
(2.12091 -1.30669 0)
(2.11185 -1.47925 0)
(2.11743 -1.41827 0)
(2.0915 -1.61142 -2.08621e-24)
(2.10337 -1.54374 0)
(2.0557 -1.75172 3.02025e-24)
(2.07583 -1.6813 0)
(1.99768 -1.88175 -8.55769e-23)
(2.02989 -1.82002 0)
(1.9101 -1.95873 5.69513e-20)
(1.95774 -1.93101 -1.22504e-20)
(1.75951 -1.89356 -1.46368e-20)
(1.8542 -1.95377 -2.69735e-20)
(1.56984 -1.63177 1.3565e-20)
(1.67386 -1.78812 2.18022e-20)
(2.70769 0.866187 -1.09001e-21)
(2.4723 0.649969 -4.74476e-21)
(1.42901 -1.48744 8.2516e-22)
(1.66566 -1.82139 0)
(1.33372 -1.30657 -1.99956e-19)
(1.78844 -1.90326 -5.45169e-20)
(1.68318 -1.83238 -6.75039e-20)
(1.21613 -1.11745 2.45575e-19)
(1.17154 -1.0009 -4.24315e-20)
(1.61021 -1.71202 0)
(1.40239 -1.31594 -2.07269e-20)
(1.30553 -1.22599 -1.27118e-20)
(1.5774 -1.40478 -1.87802e-20)
(1.49946 -1.37174 2.81443e-20)
(1.70339 -1.4145 8.2257e-21)
(1.64341 -1.41714 3.73879e-21)
(1.80765 -1.38136 -3.72274e-21)
(1.75799 -1.40103 -4.13748e-21)
(1.89146 -1.33066 0)
(1.85241 -1.35693 -1.07154e-22)
(1.95498 -1.27568 0)
(1.92524 -1.30335 0)
(2.00097 -1.22235 -1.35437e-23)
(1.97974 -1.24883 0)
(2.03044 -1.17516 0)
(2.01724 -1.19838 0)
(2.04607 -1.13294 0)
(2.03969 -1.15384 0)
(2.04734 -1.09741 0)
(2.04917 -1.11362 0)
(2.02245 -1.0836 -1.79538e-23)
(2.03915 -1.08652 0)
(1.97092 -1.0862 6.48003e-25)
(1.99875 -1.08566 0)
(1.9257 -1.03957 0)
(1.94429 -1.07503 0)
(1.93116 -0.861283 4.81555e-23)
(1.92038 -0.969749 0)
(2.0035 -0.537785 0)
(1.95919 -0.715301 0)
(2.13124 -0.127756 0)
(2.0619 -0.338185 0)
(2.28826 0.279363 0)
(2.20797 0.0817438 0)
(2.444 0.605581 0)
(2.36814 0.45608 0)
(2.57241 0.812339 0)
(2.51266 0.72438 0)
(2.66143 0.905179 8.62331e-22)
(2.62177 0.871297 0)
(2.71299 0.914846 0)
(2.69122 0.91803 1.573e-21)
(2.73579 0.875828 -3.14027e-23)
(2.72731 0.899511 0)
(2.6923 0.829865 3.91061e-21)
(2.74013 0.846566 -2.47348e-22)
(2.7167 0.840609 -1.84107e-21)
(2.64099 0.794681 -1.19986e-21)
(2.66739 0.814428 8.49186e-22)
(2.58365 0.74083 3.97645e-22)
(2.61296 0.769862 -3.35388e-22)
(2.51737 0.668485 0)
(2.55177 0.707031 3.23629e-21)
(2.37496 0.561185 1.32149e-21)
(2.48025 0.625327 2.30472e-21)
(2.4306 0.599083 -4.87251e-21)
(2.2462 0.44244 8.21498e-22)
(2.31271 0.508506 0)
(2.10544 0.267679 0)
(2.17613 0.361201 0)
(1.96982 0.0479635 2.18926e-24)
(2.03572 0.162525 0)
(1.86488 -0.188816 0)
(1.91177 -0.0706562 0)
(1.82036 -0.396728 -2.21416e-23)
(1.83373 -0.299212 0)
(1.84715 -0.540534 0)
(1.82582 -0.477137 0)
(1.91493 -0.632414 0)
(1.87924 -0.590242 0)
(1.97666 -0.71571 0)
(1.94849 -0.673 0)
(2.01926 -0.806855 1.54197e-24)
(1.99965 -0.760893 0)
(2.05498 -0.894992 0)
(2.03748 -0.851773 0)
(2.08695 -0.978754 0)
(2.07165 -0.937004 0)
(2.11284 -1.06392 0)
(2.10066 -1.02094 0)
(2.13272 -1.15368 0)
(2.12356 -1.10801 0)
(2.14633 -1.25144 -3.66923e-23)
(2.14036 -1.20134 0)
(2.15324 -1.36047 0)
(2.15069 -1.30435 0)
(2.15258 -1.48361 0)
(2.15397 -1.42013 0)
(2.14247 -1.62222 5.68472e-23)
(2.14891 -1.55103 0)
(2.11903 -1.77251 -6.86959e-23)
(2.13277 -1.69654 0)
(2.07625 -1.91727 8.46078e-23)
(2.10057 -1.84746 0)
(2.00611 -2.01346 -1.33377e-20)
(2.0448 -1.97548 2.52962e-20)
(1.90549 -1.97874 1.62314e-20)
(1.95945 -2.01861 -3.3062e-20)
(1.71298 -1.79307 -8.14114e-21)
(1.84073 -1.87938 -4.19761e-20)
(1.4855 -1.58886 1.85485e-20)
(1.59419 -1.75655 0)
(1.34748 -1.41203 1.4633e-19)
(1.58531 -1.7546 0)
(2.76385 0.880239 1.02732e-21)
(2.7632 0.847821 -7.70791e-22)
(2.55628 0.677255 1.97678e-21)
(2.52426 0.640965 1.98217e-21)
(1.21859 -1.21618 1.31956e-19)
(1.60295 -1.71957 6.81522e-20)
(1.08344 -0.868094 0)
(1.20435 -1.01884 2.11492e-20)
(1.63509 -1.61831 3.57014e-20)
(1.7673 -1.70656 -7.32621e-20)
(1.15153 -0.877642 -4.05135e-20)
(1.52557 -1.66945 0)
(1.38727 -1.22732 0)
(1.29059 -1.13448 1.73187e-20)
(1.56408 -1.32757 0)
(1.48213 -1.28903 0)
(1.69422 -1.35171 0)
(1.63307 -1.34689 -3.87236e-21)
(1.80207 -1.33274 0)
(1.75067 -1.34557 0)
(1.88884 -1.29377 0)
(1.84825 -1.31459 0)
(1.95503 -1.24803 0)
(1.92408 -1.27127 0)
(2.00372 -1.203 1.35437e-23)
(1.98121 -1.22533 0)
(2.03658 -1.16303 0)
(2.02167 -1.18266 0)
(2.05651 -1.12718 0)
(2.04804 -1.14469 0)
(2.05972 -1.10225 0)
(2.061 -1.11222 0)
(2.03462 -1.10335 -1.76632e-25)
(2.0512 -1.09906 0)
(1.98905 -1.11084 5.58675e-25)
(2.0125 -1.11027 0)
(1.96125 -1.04665 0)
(1.96999 -1.09352 0)
(1.98908 -0.836956 1.23214e-24)
(1.96705 -0.961902 0)
(2.08019 -0.482964 0)
(2.02731 -0.674825 0)
(2.21946 -0.0530363 0)
(2.14535 -0.271747 0)
(2.3795 0.359147 0)
(2.29885 0.160937 0)
(2.52916 0.675633 0)
(2.45746 0.532615 0)
(2.64445 0.863379 0)
(2.59202 0.785608 0)
(2.71726 0.935545 0)
(2.68598 0.911745 0)
(2.75333 0.929391 -1.44823e-21)
(2.73918 0.939678 -1.597e-21)
(2.76117 0.908221 2.4171e-21)
(2.70162 0.804353 1.64335e-21)
(2.74104 0.814061 0)
(2.72167 0.811236 1.86293e-21)
(2.65956 0.778696 0)
(2.68107 0.793488 -1.67804e-21)
(2.61261 0.736771 -1.91704e-21)
(2.63672 0.75968 6.864e-22)
(2.58588 0.709297 3.6351e-21)
(2.32982 0.501776 -5.16116e-22)
(2.44161 0.578703 -1.46337e-21)
(2.38692 0.544334 0)
(2.19973 0.374549 1.30406e-21)
(2.2655 0.443302 -1.3083e-21)
(2.06388 0.199678 0)
(2.13086 0.29165 0)
(1.94095 -0.00975198 2.07345e-24)
(1.99886 0.0973989 0)
(1.85936 -0.221108 0)
(1.89298 -0.117896 0)
(1.84374 -0.393544 0)
(1.84263 -0.314225 0)
(1.88867 -0.510872 0)
(1.86071 -0.458225 0)
(1.95288 -0.600107 0)
(1.92135 -0.556393 0)
(2.00238 -0.692996 -2.11405e-23)
(1.98002 -0.645423 0)
(2.03984 -0.788675 2.41462e-23)
(2.02171 -0.741351 0)
(2.07524 -0.877947 0)
(2.05774 -0.834094 0)
(2.10733 -0.964222 0)
(2.09189 -0.921085 0)
(2.13471 -1.05208 0)
(2.12161 -1.00777 0)
(2.15736 -1.14464 0)
(2.14667 -1.09755 0)
(2.17495 -1.24538 0)
(2.16681 -1.19379 0)
(2.1873 -1.35752 0)
(2.18181 -1.29983 0)
(2.19389 -1.48419 4.98307e-23)
(2.19138 -1.41887 0)
(2.19338 -1.62724 -5.97846e-23)
(2.19468 -1.55367 0)
(2.18245 -1.7839 7.31453e-23)
(2.18957 -1.7044 0)
(2.1547 -1.93896 0)
(2.17116 -1.86341 0)
(2.10308 -2.05175 0)
(2.13235 -2.0046 0)
(2.01995 -2.03787 -1.47561e-22)
(2.06568 -2.06788 -1.61223e-20)
(1.90365 -1.78619 1.21008e-19)
(1.9658 -1.94679 0)
(1.69214 -1.46224 6.88786e-20)
(1.83399 -1.54519 8.95225e-21)
(1.3904 -1.5065 -5.46238e-20)
(1.50847 -1.68319 0)
(2.75972 0.813121 3.5007e-21)
(2.48857 0.600035 3.18932e-21)
(1.23746 -1.27101 2.90317e-20)
(1.0549 -0.879374 6.27211e-21)
(1.10097 -1.02594 -6.81274e-20)
(1.49881 -1.63514 0)
(1.52204 -1.54713 -2.04595e-20)
(1.05707 -0.693434 3.6319e-20)
(0.965635 -0.529839 -4.94949e-20)
(1.01043 -0.657103 5.29391e-20)
(1.55744 -1.37856 6.7795e-20)
(1.61562 -1.15179 -5.08738e-20)
(1.76202 -1.23267 -4.81656e-20)
(1.43455 -1.5841 0)
(1.21633 -0.935382 -6.3008e-22)
(1.06792 -0.606574 -5.50598e-21)
(1.15198 -0.780839 -5.18248e-21)
(1.38825 -1.14738 -5.94823e-21)
(1.29842 -1.05582 5.98165e-21)
(1.55783 -1.25395 -9.14853e-24)
(1.47829 -1.21132 0)
(1.69016 -1.29051 0)
(1.62735 -1.27888 0)
(1.80102 -1.28444 0)
(1.74823 -1.2912 0)
(1.89016 -1.25586 0)
(1.84838 -1.27182 0)
(1.95878 -1.21886 -1.04069e-23)
(1.9267 -1.23781 0)
(2.01022 -1.18206 0)
(1.98635 -1.20028 0)
(2.0469 -1.14886 0)
(2.03003 -1.1652 0)
(2.07085 -1.11995 0)
(2.06058 -1.13358 0)
(2.07523 -1.10709 0)
(2.0763 -1.11023 0)
(2.05149 -1.12163 1.81305e-23)
(2.06679 -1.11143 0)
(2.01581 -1.12856 4.44044e-25)
(2.03286 -1.13086 0)
(2.00813 -1.04291 0)
(2.00597 -1.10269 0)
(2.05836 -0.802201 -5.30344e-23)
(2.02538 -0.942903 0)
(2.16712 -0.420946 0)
(2.10627 -0.625359 0)
(2.31621 0.0248206 0)
(2.23825 -0.200079 0)
(2.4768 0.437519 0)
(2.39712 0.241066 0)
(2.61746 0.740018 0)
(2.55133 0.605498 0)
(2.71707 0.906176 0)
(2.67305 0.839617 0)
(2.77215 0.957678 -2.88016e-23)
(2.74981 0.943736 0)
(2.79241 0.936365 1.45431e-21)
(2.78581 0.953499 0)
(2.79085 0.878984 -1.14917e-21)
(2.79366 0.910419 0)
(2.77754 0.80848 -9.40796e-22)
(2.78518 0.844544 1.03615e-21)
(2.73916 0.780792 -1.67182e-21)
(2.76905 0.772417 0)
(2.75448 0.77774 -2.65007e-21)
(2.70745 0.776541 0)
(2.72361 0.780362 0)
(2.6736 0.758614 0)
(2.69085 0.769235 0)
(2.63557 0.725952 0)
(2.65523 0.744143 0)
(2.58855 0.677262 -2.01488e-21)
(2.61333 0.703609 -5.211e-22)
(2.52934 0.612041 -3.417e-22)
(2.56084 0.646877 -3.38165e-21)
(2.39883 0.52692 -1.99297e-21)
(2.49397 0.572844 -2.37892e-22)
(2.44943 0.554923 6.3953e-22)
(2.2836 0.439857 -4.02572e-22)
(2.34314 0.488491 2.59521e-21)
(2.15513 0.30783 1.3709e-24)
(2.21971 0.378637 0)
(2.02772 0.136226 0)
(2.0898 0.225886 0)
(1.92346 -0.0572137 1.94409e-24)
(1.97062 0.0400845 0)
(1.87048 -0.238656 0)
(1.88893 -0.151867 0)
(1.88183 -0.378544 0)
(1.86858 -0.314615 0)
(1.93479 -0.480296 0)
(1.90581 -0.43245 0)
(1.98832 -0.574222 0)
(1.96338 -0.526559 0)
(2.02736 -0.674267 4.07254e-23)
(2.00918 -0.623886 0)
(2.06221 -0.77101 0)
(2.04473 -0.723621 0)
(2.09705 -0.861013 0)
(2.07983 -0.816561 0)
(2.12923 -0.94916 0)
(2.11357 -0.905056 0)
(2.15815 -1.03893 0)
(2.14412 -0.993656 0)
(2.18358 -1.13356 3.19531e-23)
(2.17134 -1.08542 0)
(2.20544 -1.23637 0)
(2.19497 -1.18373 0)
(2.22372 -1.35072 0)
(2.21505 -1.29188 0)
(2.23822 -1.48002 -4.98307e-23)
(2.23149 -1.4133 0)
(2.24819 -1.62681 -8.10837e-25)
(2.24388 -1.55116 0)
(2.25132 -1.78961 -1.47619e-22)
(2.2509 -1.70663 0)
(2.24185 -1.95485 0)
(2.24872 -1.8736 0)
(2.21031 -2.08232 0)
(2.22951 -2.02731 0)
(2.14817 -2.09413 -4.49221e-24)
(2.18337 -2.10879 0)
(2.05195 -1.87758 0)
(2.1049 -2.02238 0)
(1.91997 -1.33887 8.45386e-20)
(1.98937 -1.65004 0)
(1.68818 -0.866987 6.41516e-21)
(1.84621 -0.963414 -1.56334e-19)
(1.29413 -1.38849 0)
(0.989201 -0.431192 -5.18155e-20)
(1.13829 -1.09689 -2.03643e-20)
(2.79478 0.8006 9.3943e-22)
(2.78339 0.764514 0)
(2.56464 0.616428 -2.5988e-22)
(2.53413 0.583574 6.13574e-22)
(1.42058 -1.56239 0)
(1.41317 -1.45741 0)
(1.02449 -0.819503 0)
(1.44231 -1.311 2.01505e-20)
(1.48424 -1.08065 5.03525e-20)
(1.5454 -0.79263 0)
(1.62238 -0.467561 -1.51543e-19)
(1.7737 -0.553827 1.26212e-19)
(1.3396 -1.45457 0)
(1.09855 -0.530909 1.90618e-24)
(0.929437 -0.19814 -1.09783e-20)
(0.966041 -0.124386 2.93048e-20)
(1.02914 -0.345179 -1.09078e-20)
(1.23965 -0.852336 1.90905e-21)
(1.17025 -0.698654 5.14877e-21)
(1.40114 -1.06936 0)
(1.3179 -0.975701 0)
(1.56166 -1.18183 9.14377e-24)
(1.48531 -1.13558 0)
(1.69309 -1.22941 0)
(1.63023 -1.21191 0)
(1.80471 -1.23504 0)
(1.75145 -1.23618 0)
(1.89539 -1.21646 0)
(1.85274 -1.22767 0)
(1.96611 -1.18829 1.04069e-23)
(1.93299 -1.2029 0)
(2.0204 -1.15948 0)
(1.99503 -1.1738 0)
(2.06119 -1.13265 0)
(2.04224 -1.14586 0)
(2.08854 -1.11158 0)
(2.07689 -1.12071 0)
(2.09379 -1.11163 0)
(2.09461 -1.10781 0)
(2.07366 -1.13675 -1.81695e-23)
(2.08622 -1.12257 0)
(2.05151 -1.13768 3.03406e-25)
(2.06039 -1.14557 0)
(2.06584 -1.02789 0)
(2.05212 -1.10139 0)
(2.13814 -0.757506 -7.98561e-25)
(2.09459 -0.912879 0)
(2.26335 -0.352428 0)
(2.19519 -0.567565 0)
(2.42051 0.104821 0)
(2.33969 -0.123963 0)
(2.57897 0.512997 0)
(2.5017 0.320842 0)
(2.70752 0.797261 0)
(2.64852 0.673128 0)
(2.789 0.939968 0)
(2.75442 0.885175 0)
(2.82525 0.971252 5.75653e-23)
(2.81207 0.966682 0)
(2.82961 0.936659 2.3005e-23)
(2.83039 0.959539 0)
(2.81627 0.872894 -2.47589e-21)
(2.82437 0.906747 2.51428e-21)
(2.80607 0.836963 -2.07506e-21)
(2.736 0.747643 -3.85785e-22)
(2.76016 0.737578 -9.92714e-23)
(2.74834 0.743583 1.20777e-21)
(2.71078 0.747657 0)
(2.72358 0.749194 0)
(2.68417 0.735749 9.54217e-27)
(2.69772 0.743178 0)
(2.65369 0.710637 0)
(2.66959 0.724931 0)
(2.61523 0.671107 -8.93476e-22)
(2.63563 0.692736 1.00843e-21)
(2.5917 0.645691 1.78513e-22)
(2.3539 0.472695 5.65395e-23)
(2.45512 0.53022 5.76957e-22)
(2.40709 0.50619 -1.04807e-22)
(2.23765 0.378123 3.98763e-22)
(2.29749 0.430312 -3.99347e-22)
(2.11428 0.244637 8.82706e-24)
(2.17569 0.315486 0)
(2.00067 0.0807465 9.01305e-24)
(2.05461 0.165096 0)
(1.92191 -0.0910035 1.79232e-24)
(1.95509 -0.00624237 0)
(1.89968 -0.241181 0)
(1.90304 -0.170425 0)
(1.9302 -0.356469 0)
(1.90997 -0.302784 0)
(1.97998 -0.45377 0)
(1.95513 -0.40563 0)
(2.0203 -0.554698 0)
(2.00185 -0.503335 0)
(2.05256 -0.657671 -1.95849e-23)
(2.03665 -0.606685 0)
(2.08603 -0.753751 -2.00309e-23)
(2.06902 -0.706691 0)
(2.12001 -0.844388 0)
(2.10317 -0.799434 0)
(2.15241 -0.933793 0)
(2.13646 -0.889057 0)
(2.18287 -1.02495 0)
(2.16792 -0.978952 0)
(2.21111 -1.12105 -3.19531e-23)
(2.19729 -1.07218 0)
(2.23722 -1.2253 3.61282e-23)
(2.22445 -1.17195 0)
(2.2613 -1.34103 0)
(2.24953 -1.28152 0)
(2.2834 -1.47168 0)
(2.27262 -1.40428 0)
(2.30322 -1.6201 -3.70585e-25)
(2.29366 -1.54356 0)
(2.3193 -1.78585 1.49668e-22)
(2.31192 -1.70112 0)
(2.32743 -1.95751 0)
(2.32483 -1.87247 0)
(2.31812 -2.09637 0)
(2.32583 -2.0351 0)
(2.27815 -2.12017 -2.7746e-24)
(2.3027 -2.12935 0)
(2.20019 -1.92101 0)
(2.24397 -2.05472 0)
(2.08431 -1.42066 -5.92549e-20)
(2.14625 -1.70982 0)
(1.9396 -0.646567 -6.47715e-20)
(2.01315 -1.05827 1.2597e-19)
(0.899097 -0.373778 9.89663e-20)
(0.900684 -0.277017 6.36233e-20)
(1.70821 -0.127932 6.74456e-20)
(1.86512 -0.216605 -6.74194e-20)
(1.19603 -1.21552 0)
(2.77191 0.729651 -1.46191e-21)
(2.49875 0.54637 1.91076e-21)
(0.921869 0.095853 -4.73003e-21)
(1.33188 -1.38549 0)
(0.87895 0.0364652 -2.73246e-21)
(1.04407 -0.867818 0)
(1.332 -1.22247 0)
(0.988569 -0.600307 0)
(1.36589 -1.01518 0)
(1.41527 -0.733698 0)
(1.48396 -0.4074 1.51736e-20)
(1.5637 -0.0544815 4.86752e-20)
(1.65019 0.300736 0)
(1.80009 0.215821 1.40107e-19)
(1.24749 -1.27947 0)
(1.01464 -0.0699495 -4.9336e-21)
(0.908879 0.34203 -2.04994e-20)
(0.980334 0.369086 2.16569e-21)
(0.985761 0.145418 3.60173e-21)
(1.1354 -0.460174 -3.24151e-22)
(1.0717 -0.275868 9.10111e-22)
(1.26877 -0.77004 -1.26481e-21)
(1.19904 -0.623564 6.77619e-25)
(1.42217 -0.989636 -1.80922e-24)
(1.34425 -0.893224 0)
(1.57418 -1.1107 -2.80503e-24)
(1.50086 -1.06006 0)
(1.70324 -1.16845 0)
(1.6413 -1.14572 0)
(1.8138 -1.18472 0)
(1.76086 -1.18063 0)
(1.90506 -1.17598 0)
(1.86194 -1.18244 0)
(1.97739 -1.15665 0)
(1.9434 -1.16695 0)
(2.03434 -1.13521 0)
(2.00751 -1.14603 0)
(2.07888 -1.11446 0)
(2.05808 -1.12457 0)
(2.10874 -1.10233 0)
(2.09616 -1.10631 0)
(2.11521 -1.11525 0)
(2.1153 -1.1049 0)
(2.10145 -1.14704 1.61987e-25)
(2.10965 -1.13125 0)
(2.096 -1.13696 -2.12743e-23)
(2.09528 -1.15276 0)
(2.13349 -1.00141 0)
(2.10792 -1.08887 0)
(2.22736 -0.703296 5.61857e-23)
(2.17361 -0.872034 0)
(2.3678 -0.278086 0)
(2.29299 -0.50195 0)
(2.53112 0.185808 0)
(2.44853 -0.0442962 0)