/*--------------------------------*- C++ -*----------------------------------*\
  =========                 |
  \\      /  F ield         | OpenFOAM: The Open Source CFD Toolbox
   \\    /   O peration     | Website:  https://openfoam.org
    \\  /    A nd           | Version:  10
     \\/     M anipulation  |
\*---------------------------------------------------------------------------*/
FoamFile
{
    format      ascii;
    class       volScalarField;
    location    "14";
    object      p;
}
// * * * * * * * * * * * * * * * * * * * * * * * * * * * * * * * * * * * * * //

dimensions      [0 2 -2 0 0 0 0];

internalField   nonuniform List<scalar> 
6397
(
5.03643
4.91283
-3.9864
-3.91765
-4.68055
-4.9824
7.88764
4.74442
-10.5044
-7.63708
3.77659
-0.100775
-0.235363
-0.174142
-0.233283
-18.5368
-16.4
-16.4281
12.0337
12.0845
11.317
-4.91109
-6.90313
-6.09923
-0.125
-0.0855847
-0.0399625
-1.50518
-1.63104
-1.85506
-1.74022
-2.04776
-2.45063
-3.57318
0.503639
0.192585
-0.594707
-0.933083
1.31577
1.42719
1.1249
0.933016
-1.98432
-5.78499
-5.41701
-5.01277
-5.66589
-5.65332
1.63617
1.59644
1.6218
1.5037
1.56577
3.68079
3.02425
3.50336
3.53529
2.1298
-3.89751
-3.65266
-3.93256
-3.67088
-3.21688
-2.69176
-2.24904
-1.95209
-1.81507
-1.82957
-4.52676
-3.19762
-3.94024
-4.81887
-4.80499
-4.43154
-3.80098
-3.09026
-2.46151
-2.00274
-1.72824
-1.60309
-3.22076
-2.68362
-2.00467
-1.62522
-2.53124
-2.21278
-2.36097
-1.77257
-1.95325
-1.86611
-2.90815
-2.06438
-1.51466
-1.20083
-3.59268
-2.44054
-1.8723
-0.872512
-1.30213
-3.48161
-2.61698
-5.10932
-4.38645
-5.35249
-5.40884
-4.04123
-4.83459
-2.40135
-3.17125
-1.43949
-1.82253
-1.10565
-1.21003
-1.22159
-1.12041
-1.38543
-2.84136
-4.69934
-3.68358
-1.90095
-2.25202
-1.73475
-1.73602
-2.12288
-1.86589
-2.73037
-2.4352
-2.82694
-2.86849
-2.35225
-2.63369
-1.78674
-2.02398
-1.65615
-1.65682
-0.984352
-1.4313
-0.553166
-1.54664
-2.8162
-5.56763
-5.67686
-6.8643
-1.64769
-0.553961
-0.58691
-2.27669
-0.524753
-0.151857
-2.64126
-4.25461
-1.62423
-0.987195
-3.42256
-2.45439
-5.26151
-4.43434
-5.5216
-5.77269
-3.94491
-4.87169
-2.09448
-2.96314
-0.987973
-1.43881
-0.541749
-0.703887
-0.461978
-0.473853
-0.497855
-3.14093
-4.23319
-1.83326
-2.35307
-1.37912
-1.52535
-1.46573
-1.37831
-1.76443
-1.63572
-1.78472
-1.85739
-1.49523
-1.68074
-1.3436
-1.37876
-1.63957
-1.43174
-1.92857
-0.809058
-1.37263
0.132448
-0.297046
-7.69193
-6.28474
-3.0718
0.192242
0.184599
-0.593028
-1.66353
-8.61885
-7.69809
-8.65658
-2.14013
-3.02753
0.343328
0.501559
0.718417
-3.26552
-2.65053
-4.66258
-0.152615
0.210797
-1.26858
-0.623655
-3.07087
-2.09003
-4.88122
-4.07487
-5.13051
-5.29826
-3.55825
-4.49542
-1.66881
-2.56223
-0.508459
-0.988736
-0.0150628
-0.209597
0.165405
0.0963044
0.187975
-6.05011
-7.59065
-3.19344
-4.48118
-1.62592
-2.26572
-0.965655
-1.22081
-0.8138
-0.844004
-0.88883
-0.846429
-0.869304
-0.904277
-0.771386
-0.81233
-0.924818
-0.803847
-1.56463
-1.1827
-2.06974
-0.700386
-1.35628
-0.129351
0.190082
-6.25344
-3.05453
-7.67184
-6.88414
-0.550473
-1.54652
0.492067
0.870382
-2.32173
-3.3401
-2.82914
-3.70639
0.800954
0.999414
0.194983
0.172618
-0.500272
-3.8862
-4.63852
0.212514
0.550727
-0.819234
-0.221391
-2.4945
-1.59505
-4.13823
-3.40012
-4.3152
-4.47028
-2.87512
-3.72641
-1.14988
-1.96634
-0.0531133
-0.512552
0.442252
0.247669
0.644354
0.567415
0.708001
0.688955
0.733945
0.725417
0.676112
0.721998
-8.75259
-7.78988
-8.81797
-5.97894
-7.63758
-2.95373
-4.32222
-1.28346
-1.97471
-0.51332
-0.821434
-0.215751
-0.324606
-0.12985
-0.160286
-0.0825595
-0.104238
-0.130087
-0.0812443
-0.501844
-0.261308
-1.38142
-0.866531
-2.041
-0.632139
-1.40477
-0.00760532
-6.10331
-6.07977
0.0907965
0.579061
-5.67108
-2.8087
1.14189
-4.3449
-2.79029
-3.80135
-5.63045
-1.37119
-4.28469
-4.49594
-0.508855
-0.0824083
0.428242
-4.50698
-4.22473
1.04837
1.32999
1.21193
0.554696
0.848653
-0.349527
0.178014
-1.77137
-1.00145
-3.14419
-2.52749
-3.27073
-3.41191
-2.0339
-2.75902
-0.56689
-1.26298
0.37382
-0.0258591
0.816695
0.639212
1.00432
0.931538
1.09051
1.05185
1.11463
1.10387
1.06006
1.099
0.857201
0.982854
-7.04292
-3.68092
-5.41757
-7.99168
-8.02684
-5.28928
-6.90248
-2.43401
-3.72699
-0.832474
-1.49963
-0.0500522
-0.371809
0.308889
0.165126
0.476114
0.40623
0.545322
0.525034
0.425659
0.519352
-0.0536458
0.236909
-1.08541
-0.490239
-1.85757
-2.81423
-2.22009
0.213912
0.678931
-5.08224
-4.7401
-4.55803
-5.36458
-2.39886
-3.47384
-0.562872
-1.40642
0.609548
0.10213
1.25971
0.988332
1.43293
-4.74172
-2.43935
-4.332
-1.24326
-3.19076
-0.62378
-1.16073
-1.77425
-0.34958
0.432871
-0.0804276
1.45481
1.52904
-3.59809
1.2431
1.36932
0.842322
1.08111
0.0912723
0.52357
-1.01643
-0.422664
-2.04771
-1.58897
-2.12471
-2.23781
-1.17659
-1.73447
-0.0164638
-0.571695
0.739366
0.415275
1.10071
0.951848
1.26188
1.1963
1.33442
1.30258
1.3665
1.3524
1.34211
1.36676
1.1824
1.28161
0.89276
1.05775
-2.69316
-0.438105
-1.4048
-5.59429
-4.1894
-6.36207
-6.44372
-4.15389
-5.49645
-1.72998
-2.82282
-0.339818
-0.926778
0.384023
0.0801412
0.743008
0.596046
0.932422
0.848899
1.02004
0.991338
0.884663
0.988824
0.361305
0.678506
-0.706817
-0.0983726
-2.52592
-1.52902
-4.58721
-3.58412
-5.29373
-4.55269
-5.81835
-5.3612
-2.3337
-3.4546
-0.477107
-1.33244
0.704689
0.201542
1.32138
1.06653
-0.450891
0.232083
0.0856534
0.664101
1.56451
1.48188
-3.77358
-2.10344
-3.26052
-1.25144
-2.27161
-0.879939
-1.11023
-0.726834
0.676208
0.0073857
-0.534978
0.34568
-0.384097
1.15795
0.942438
1.37428
-0.0614267
0.837946
0.668158
1.5906
1.57117
1.58083
-2.97993
1.52772
1.56283
1.37159
1.46652
1.0468
1.24165
0.47876
0.802808
-0.311799
0.106811
-1.02777
-0.711203
-1.07265
-1.15675
-0.409355
-0.799171
0.434439
0.0230472
1.01464
0.763258
1.29629
1.17882
1.42701
1.36956
1.51371
1.46969
1.58862
1.55311
1.58416
1.60181
1.44715
1.53096
1.18524
1.33494
1.01753
0.247245
0.795002
-1.5529
-0.536607
-3.76813
-2.72046
-4.43547
-4.43521
-2.79311
-3.78444
-0.952946
-1.78738
0.133795
-0.330812
0.746824
0.481781
1.07752
0.939294
1.25608
1.17676
1.34965
1.31442
1.23384
1.32654
0.732365
1.03647
-0.30607
0.286663
-2.05956
-1.11076
-4.02963
-3.07683
-4.69599
-5.50987
-5.34933
-4.29995
-5.07779
-2.23473
-3.28858
-0.419255
-1.26026
0.762666
0.257799
1.36121
1.12023
1.50464
-3.01055
-1.91844
-2.54768
-1.43396
-1.708
-1.30348
-0.706454
-1.26312
0.295674
-1.22273
1.46841
1.06607
-1.00533
0.48759
-0.519726
1.74031
1.47736
1.76264
0.307974
1.09124
1.08153
1.53912
1.56987
1.56582
1.53196
-2.54116
1.55605
1.56832
1.44243
1.51014
1.19871
1.33766
0.79991
1.01467
0.274921
0.541221
-0.179624
0.0116697
-0.219649
-0.271436
0.204217
-0.0492062
0.770179
0.488509
1.19738
1.00874
1.41931
1.32709
1.5327
1.48045
1.63903
1.5822
1.70149
1.67576
1.6685
1.69858
1.54693
1.61323
1.41048
1.47466
1.263
1.34364
1.16371
1.49789
1.65948
0.813249
1.22804
-0.466675
0.230563
-1.88258
-1.20967
-2.4129
-2.34356
-1.44255
-2.07186
-0.194872
-0.771352
0.576118
0.243239
1.03874
0.831079
1.32006
1.19855
1.4736
1.40584
1.5589
1.52574
1.47428
1.54946
1.03688
1.30828
0.105024
0.643465
-1.43683
-0.597276
-3.13869
-2.32648
-3.75914
-4.0927
-3.10537
-4.77699
-4.66004
-3.8268
-4.46738
-2.06266
-2.9767
-0.405271
-1.18499
0.739334
0.241637
1.32157
1.09305
1.45904
-2.56372
-1.95293
-2.17516
-1.80548
-1.41284
-1.93717
-0.485582
-2.08281
0.450071
-2.16959
1.0811
-1.82685
1.73767
1.45001
-0.988548
1.19165
0.256282
1.46185
-2.35867
1.54141
1.45871
1.51049
1.5499
1.56003
1.46688
1.5194
1.29394
1.38788
1.02385
1.16164
0.697111
0.852919
0.448312
0.548027
0.418634
0.402422
0.641379
0.499529
1.00556
0.821559
1.30946
1.17486
1.48569
1.41302
1.58937
1.54294
1.67037
1.63492
1.71181
1.70289
1.69938
1.70899
1.66967
1.68543
1.61081
1.64471
1.51572
1.56353
1.51083
1.49427
1.65098
1.55844
1.88801
1.84292
1.88764
1.7335
1.84352
1.25739
1.54765
0.484583
0.882294
-0.267014
0.102623
-0.72566
-0.594271
-0.289857
-0.617754
0.456645
0.098608
0.963909
0.741132
1.28295
1.13615
1.50118
1.40438
1.62194
1.57085
1.6847
1.66102
1.62427
1.68248
1.27157
1.49781
0.495946
0.950334
-0.748515
-0.0732347
-2.14665
-1.47416
-2.79141
-2.63006
-2.68332
-3.19889
-1.49341
-2.41933
-3.80472
-3.65905
-3.19586
-3.64344
-1.82012
-2.5518
-0.413625
-1.08783
0.636259
0.167165
1.22045
0.986485
1.43626
1.36195
1.428
1.46894
1.68029
1.77101
1.43767
1.82219
-2.41859
-2.22149
-1.25578
-2.05956
-2.42101
1.43436
1.34456
1.38015
-1.31898
-2.87681
-0.407434
-3.29388
0.489594
-3.35012
1.03751
-2.72614
1.3977
-1.26797
1.6662
1.58057
0.518493
1.79155
2.07708
-2.44104
1.5078
1.47984
1.51664
1.51865
1.45896
1.49039
1.34311
1.4017
1.174
1.26209
0.979199
1.07491
0.847191
0.902746
0.83457
0.829836
0.931455
0.86913
1.14953
1.03246
1.37403
1.27239
1.52155
1.45846
1.62654
1.5784
1.73045
1.6768
1.77728
1.75385
1.79046
1.79048
1.74192
1.77266
1.67632
1.70422
1.6484
1.65425
1.71046
1.66361
1.88177
1.78301
2.14858
2.01346
1.94937
1.79355
1.88541
1.99173
1.98766
1.90049
1.96293
1.59569
1.77778
1.22373
1.39457
0.858595
1.06617
0.49217
0.611671
0.56625
0.431135
0.973614
0.769505
1.28568
1.14636
1.48671
1.39469
1.63542
1.56827
1.72284
1.68838
1.75746
1.74734
1.70884
1.75364
1.44222
1.616
0.837259
1.19177
-0.110187
0.397714
-1.14329
-0.669116
-1.64642
-1.51139
-1.57071
-0.843485
-0.153254
-2.11357
-1.53858
-2.74887
-2.53337
-2.48618
-2.7341
-1.53721
-2.05932
-0.449468
-0.985406
0.449843
0.0359486
1.03339
0.783359
1.30543
1.20215
1.35606
1.52716
1.6702
2.32451
2.275
-2.52931
-2.72927
1.38223
1.35136
-2.16135
-3.3875
-1.3926
-4.2188
-0.43305
-4.81318
0.470729
-4.56322
0.982848
-3.31271
1.30636
-0.878819
1.43272
1.0566
1.52999
1.37391
2.18985
1.65215
1.54881
1.38316
0.838524
2.47834
2.34754
-2.7705
1.45336
1.43635
1.47574
1.4739
1.45235
1.46477
1.38185
1.41491
1.26951
1.32557
1.14886
1.20446
1.08096
1.10929
1.07438
1.07269
1.1164
1.08845
1.24371
1.17026
1.40789
1.32939
1.53182
1.47648
1.62574
1.58272
1.68388
1.66441
1.74733
1.726
1.76508
1.7593
1.76842
1.76695
1.76976
1.76979
1.75948
1.76328
1.80097
1.76933
1.92934
1.85277
2.11595
2.01502
2.1996
2.17966
1.85658
1.75633
1.99814
1.94149
2.04497
2.0313
2.00341
2.03828
1.86109
1.9401
1.73613
1.78778
1.53
1.66864
1.12432
1.32486
1.15062
1.11478
1.31476
1.22367
1.49675
1.40855
1.63938
1.57451
1.7397
1.69583
1.79522
1.77565
1.80005
1.80579
1.74998
1.78978
1.55336
1.68247
1.11026
1.36981
0.418379
0.7889
-0.32309
0.0193689
-0.64135
-0.577957
-0.344529
-0.493463
-0.0914104
-0.106252
0.397235
-1.08319
-0.601074
-1.76875
-1.49655
-1.79384
-1.86465
-1.28739
-1.58701
-0.548084
-0.930372
0.176606
-0.171261
0.743029
0.483594
1.09294
0.948201
1.25122
1.20025
1.2913
1.26304
-2.89073
-3.56654
2.16522
2.3478
1.27792
1.19827
1.19325
2.06039
2.01042
-2.46837
-4.75529
-1.5826
-5.89513
-0.492427
-6.27069
0.432534
-5.24281
0.911816
-3.1372
1.14505
-0.113496
1.22869
1.80966
1.43253
1.55052
1.45835
1.29723
1.21888
2.51513
1.23032
1.1116
0.74555
1.05823
-3.38876
1.3514
1.30565
1.4124
1.37665
1.43816
1.42834
1.42811
1.43642
1.38069
1.40578
1.31306
1.34693
1.25168
1.27968
1.21935
1.23982
1.21464
1.21518
1.23735
1.22368
1.31491
1.26892
1.43189
1.37293
1.53715
1.48748
1.62447
1.58302
1.69391
1.66252
1.75141
1.72717
1.77648
1.76797
1.77106
1.77616
1.76964
1.76748
1.79687
1.77783
1.86063
1.82598
1.94427
1.89913
2.04124
1.99373
2.0671
1.73069
1.64237
1.90598
1.81989
2.03682
1.98274
2.08721
2.0716
2.08286
2.09048
2.05708
2.07068
2.0406
2.04751
1.90766
2.00475
1.60498
1.75743
1.53254
1.55211
1.57184
1.54349
1.64861
1.60863
1.72814
1.68958
1.79285
1.76373
1.83034
1.81825
1.82195
1.83506
1.76658
1.80705
1.61803
1.71216
1.30432
1.48624
0.813107
1.07545
0.303455
0.540208
0.0961549
0.143455
0.317506
0.11781
0.508527
1.1654
1.32614
0.54694
0.900751
-0.240798
0.165502
-0.903508
-0.615799
-1.21132
-1.10031
-1.13274
-1.2197
-0.747769
-0.96936
-0.218267
-0.490151
0.33951
0.059369
0.820907
0.602572
1.12683
1.00607
1.13252
2.52782
1.04172
2.07977
1.91786
-3.51086
-4.78541
-2.9142
-6.39717
-1.78292
-7.46461
2.27604
-0.47884
-6.99049
0.427206
-4.76808
0.742867
-1.59892
1.3753
1.52823
1.48188
1.3022
0.924792
1.1462
1.16564
1.00386
2.46911
1.06561
1.06115
2.69775
0.894289
1.50129
1.53946
1.94257
1.78779
1.5549
-4.33496
1.19234
0.987164
1.10917
1.29632
1.24724
1.35711
1.32486
1.38703
1.37772
1.39214
1.39475
1.37535
1.38652
1.34202
1.35961
1.3046
1.32199
1.28897
1.28402
1.29763
1.29371
1.3164
1.30614
1.36714
1.33684
1.45064
1.40641
1.53754
1.49458
1.61525
1.57731
1.6795
1.64946
1.72931
1.70672
1.76085
1.74755
1.77751
1.77009
1.78801
1.78387
1.79953
1.79082
1.85116
1.82043
1.92196
1.88659
1.97276
1.9523
1.94162
1.97023
1.79252
1.88263
1.61382
1.52186
1.6739
1.66096
1.58898
1.8104
1.73775
1.95016
1.88079
2.06314
2.01412
2.11718
2.09663
2.14241
2.13158
2.16507
2.15296
2.18784
2.17927
2.09705
2.16557
1.88506
1.99381
1.76509
1.81286
1.74271
1.74457
1.76744
1.75274
1.79883
1.7829
1.82495
1.81223
1.83929
1.83483
1.82388
1.83711
1.7664
1.80131
1.64502
1.71614
1.4167
1.54787
1.07719
1.26046
0.742163
0.901128
0.610265
0.644313
0.77979
0.652988
1.04442
0.902167
1.18774
1.44535
1.51847
1.06561
1.29984
0.450145
0.778978
-0.217449
0.109905
-0.793281
-0.529817
-1.0771
-0.974819
-1.04529
-1.10151
-0.723786
-0.914532
-0.193743
-0.481036
0.411073
0.118621
0.862595
0.665551
0.961894
0.947189
0.927196
-4.30042
-6.24436
1.34946
1.4652
1.32407
-3.32884
-7.8824
2.49811
-1.82147
-8.19302
-0.399067
-6.37645
2.13688
1.45855
1.61844
1.63242
1.46069
0.33839
-3.10823
1.25449
0.491979
0.162157
1.40002
1.73748
1.05852
0.703516
2.24164
0.917886
0.771872
2.83593
0.884905
0.977022
0.87692
0.88377
0.782613
1.42612
1.54212
0.786072
-5.49194
1.12675
1.05809
1.23793
1.18675
1.31138
1.27598
1.34926
1.33399
1.36261
1.36035
1.35674
1.36217
1.34244
1.34984
1.33229
1.33616
1.33157
1.32852
1.34359
1.33716
1.36149
1.35155
1.40063
1.37777
1.46422
1.43017
1.53602
1.49972
1.60507
1.57091
1.66437
1.6371
1.70922
1.68856
1.73958
1.72662
1.75755
1.74908
1.77723
1.76688
1.80276
1.78889
1.83348
1.81771
1.87383
1.85203
1.89597
1.89214
1.84624
1.8844
1.70031
1.78418
1.5939
1.6586
1.62627
1.75599
1.70361
1.86965
1.81303
1.98165
1.92528
2.07981
2.03474
2.13688
2.11254
2.1747
2.15604
2.2137
2.19324
2.24242
2.23305
2.17764
2.22559
2.02747
2.10619
1.90549
1.96044
1.8449
1.86861
1.8317
1.83428
1.84202
1.83492
1.85244
1.84715
1.84827
1.85067
1.82055
1.83653
1.7574
1.79116
1.64782
1.70827
1.47253
1.56982
1.2368
1.3591
1.01973
1.11669
0.925968
0.953902
1.00096
0.959089
1.19359
1.12571
1.30499
1.66528
1.58119
1.624
1.67013
1.69377
1.42803
1.58493
0.967086
1.22316
0.28502
0.652348
-0.474933
-0.104806
-1.09323
-0.807991
-1.42509
-1.30666
-1.33344
-1.43471
-0.813047
-1.12021
-0.076054
-0.442708
0.503469
0.241793
0.712733
0.663777
0.747077
1.16648
1.18273
-5.00123
-7.544
2.74468
-3.48796
-8.53069
1.65773
1.8003
1.83332
1.68678
-1.65997
-7.5303
2.38465
1.47989
-0.354699
-4.65851
1.24364
0.0838482
-1.25711
1.15798
1.89747
1.00186
0.268683
1.55915
1.46556
0.795666
0.456911
2.8817
0.665592
0.497447
0.795911
1.55103
0.974334
1.04326
-6.51087
0.957375
0.801349
0.881353
1.07983
1.02092
1.18279
1.13425
1.25834
1.22502
1.30507
1.28531
1.33014
1.32097
1.33978
1.33735
1.34079
1.34145
1.34321
1.34046
1.34883
1.34278
1.36567
1.3562
1.38643
1.37533
1.42027
1.4012
1.4717
1.44432
1.53146
1.50097
1.59181
1.5617
1.64529
1.62077
1.68717
1.66762
1.71812
1.70436
1.73897
1.72941
1.75557
1.74746
1.77886
1.76541
1.80859
1.79426
1.82757
1.81959
1.82686
1.83154
1.76712
1.80613
1.63291
1.70817
1.43271
1.53975
1.2089
1.31808
0.902743
1.00737
1.10586
1.74957
1.76935
1.76604
1.74833
1.83264
1.7955
1.91862
1.87483
2.00824
1.96306
2.09127
2.05189
2.14636
2.12194
2.18786
2.167
2.22787
2.20792
2.25115
2.24403
2.20357
2.23829
2.08837
2.15007
1.97464
2.0264
1.91048
1.93653
1.88303
1.89481
1.86864
1.87518
1.85761
1.86329
1.83959
1.84955
1.80451
1.82425
1.73967
1.77508
1.64078
1.69394
1.49918
1.57137
1.32649
1.40481
1.17602
1.23271
1.10783
1.12226
1.1414
1.11783
1.25698
1.18993
1.40958
1.34396
1.48694
1.77611
1.70659
1.82808
1.82096
1.7263
1.80226
1.37406
1.59159
0.666452
1.05779
-0.231861
0.231628
-1.16735
-0.708656
-1.85741
-1.56507
-2.00859
-2.01084
-1.52555
-1.84053
-0.654955
-1.10113
0.0642875
-0.262586
0.445218
0.302008
0.675775
0.563901
0.7212
0.711877
2.98632
-5.28004
-8.15927
0.720927
1.69294
1.86275
1.71596
-3.26443
-7.9364
0.90782
0.773417
2.68012
1.50708
-1.43177
-5.75279
0.778832
1.2582
-0.469995
-2.762
0.896796
2.13489
0.984534
-0.257182
0.219556
1.14893
0.694559
0.0471739
2.45522
1.55654
0.41667
0.137569
3.23041
0.176277
0.817311
0.919831
0.831052
1.90461
1.9895
-6.94208
0.793048
0.665823
0.731217
0.926261
0.861284
1.0416
0.987392
1.13802
1.09343
1.21464
1.17988
1.26598
1.24359
1.29738
1.28435
1.31548
1.30787
1.32752
1.32182
1.33729
1.33259
1.35496
1.34574
1.37409
1.36352
1.39696
1.38471
1.42908
1.41163
1.47375
1.45032
1.52467
1.49888
1.57661
1.55087
1.62382
1.59972
1.66302
1.64473
1.69245
1.67906
1.71463
1.70419
1.73252
1.724
1.75054
1.74103
1.77042
1.76057
1.78158
1.77809
1.76652
1.77832
1.70252
1.74238
1.58153
1.64848
1.41482
1.50307
1.23761
1.3237
1.08117
1.15672
1.0053
1.98294
2.0949
2.02072
1.91934
1.9532
1.85887
1.8842
1.85357
1.84681
1.89709
1.87159
1.95803
1.92513
2.03007
1.99303
2.09778
2.06549
2.14755
2.1244
2.18744
2.16766
2.22349
2.20651
2.23725
2.23499
2.19602
2.22432
2.10891
2.15531
2.01776
2.06317
1.9482
1.97967
1.90483
1.92386
1.87881
1.8903
1.8583
1.86855
1.83105
1.84577
1.78909
1.8124
1.72333
1.75965
1.63063
1.68047
1.50886
1.57192
1.37174
1.43716
1.25796
1.30677
1.20693
1.22355
1.22636
1.20884
1.30413
1.25519
1.3995
1.34794
1.52379
1.46245
1.87067
1.7839
1.96667
1.92914
1.94482
1.98102
1.64968
1.84195
0.971819
1.35576
-0.0573973
0.497732
-1.27911
-0.66358
-2.30806
-1.84859
-2.68504
-2.59932
-2.21621
-2.54785
-1.23173
-1.74566
-0.350691
-0.760052
0.238003
-0.0145795
0.566778
0.425495
0.650532
0.631103
0.655149
1.76095
-4.95355
-7.56067
0.762134
0.751245
0.783417
1.49107
0.60412
0.689915
3.0481
1.53951
-2.78806
-6.25495
0.615058
1.28643
-1.34369
-3.75623
0.63988
2.46223
0.981361
-0.733874
-1.21546
0.811807
0.624421
-0.635716
1.38003
1.72086
1.15087
0.196059
-0.29587
3.0938
-0.146003
-0.232066
2.22628
1.99817
1.84794
-6.47034
0.775777
0.718575
0.898452
0.83975
1.00817
0.956741
1.10001
1.05711
1.17467
1.13999
1.22981
1.20474
1.26787
1.25063
1.29376
1.28164
1.31244
1.30328
1.32947
1.32059
1.35096
1.33951
1.37457
1.36223
1.40014
1.38699
1.43091
1.41473
1.47045
1.45
1.51531
1.4927
1.56123
1.53855
1.60312
1.58258
1.63871
1.62188
1.66629
1.65352
1.68763
1.67763
1.70456
1.69649
1.72001
1.7123
1.73238
1.7269
1.73377
1.73498
1.71268
1.72695
1.65078
1.6878
1.54287
1.60186
1.40633
1.47699
1.26619
1.335
1.13333
1.20062
0.981367
1.06054
0.674043
0.678072
0.859127
0.907438
2.07783
2.19403
2.11756
2.01785
2.05005
1.94906
1.9817
1.92669
1.92918
1.94997
1.93583
1.99143
1.96801
2.0478
2.01872
2.10149
2.07567
2.14462
2.12424
2.17969
2.16282
2.20676
2.19485
2.21231
2.21329
2.17877
2.20111
2.10908
2.14736
2.02686
2.06656
1.96097
1.99112
1.91746
1.93704
1.88476
1.89979
1.85467
1.86919
1.81955
1.83791
1.77298
1.79833
1.70792
1.74287
1.62218
1.66684
1.51626
1.57019
1.40289
1.45877
1.31113
1.35534
1.26592
1.28722
1.27449
1.26628
1.32436
1.29166
1.39491
1.3513
1.48071
1.43639
1.72705
1.60346
1.92163
1.83103
2.06322
1.9936
2.12254
2.11717
1.88622
2.05423
1.20281
1.60297
0.0500052
0.678322
-1.39203
-0.654187
-2.70805
-2.10561
-3.29785
-3.12526
-2.8532
-3.19645
-1.74597
-2.33475
-0.642791
-1.1677
0.12994
-0.198663
0.48325
0.350737
0.582786
0.546598
0.600792
0.671061
3.51426
1.58041
-4.17902
-6.11
0.606067
2.31169
0.528065
1.32021
-2.38371
-4.39117
0.543679
0.679123
0.847449
0.431902
2.31168
2.21848
2.94576
0.980213
-1.43604
-2.19392
0.482485
0.581942
-1.15295
0.0322209
1.99499
0.7247
0.0860998
-1.0848
2.45909
1.20095
-0.405363
-0.820886
3.65336
0.53787
0.514665
-0.634534
0.502122
1.82948
1.66154
-5.34703
0.758827
0.68992
0.874961
0.820618
0.977888
0.928204
1.0664
1.02398
1.13937
1.1046
1.1961
1.1695
1.23836
1.21862
1.27032
1.25502
1.29589
1.28337
1.31908
1.30762
1.34336
1.33101
1.36887
1.35592
1.39655
1.38245
1.42786
1.41178
1.46431
1.44583
1.50403
1.48403
1.54473
1.52463
1.58219
1.56395
1.61417
1.59895
1.63957
1.62768
1.65946
1.65016
1.67449
1.6675
1.68637
1.68068
1.69455
1.69123
1.68988
1.69446
1.66448
1.68006
1.60777
1.64092
1.51392
1.56466
1.40324
1.45899
1.29424
1.34873
1.17677
1.23704
1.04852
1.11127
0.953525
0.990932
2.45174
2.39265
2.50439
2.27726
2.38114
2.15885
2.20348
2.09562
2.12744
2.02259
2.0577
1.98835
1.9985
1.9951
1.98898
2.0206
2.00543
2.0615
2.03982
2.10374
2.08329
2.13782
2.12182
2.16541
2.15233
2.18513
2.1768
2.18579
2.18879
2.15435
2.17455
2.09461
2.12713
2.02648
2.06038
1.96727
1.9953
1.92036
1.94221
1.88177
1.89967
1.84611
1.86332
1.80664
1.82693
1.75785
1.78392
1.69389
1.72808
1.61425
1.65566
1.5211
1.569
1.42555
1.47374
1.34862
1.38664
1.30652
1.32542
1.30349
1.30016
1.33055
1.31044
1.37813
1.35002
1.42526
1.40352
1.41685
1.4245
1.70374
1.47227
1.56958
1.94371
1.82516
2.15374
2.05064
2.23278
2.22591
2.01892
2.17225
1.34248
1.74753
0.127554
0.795054
-1.44954
-0.635189
-2.97455
-2.278
-3.68772
-3.46546
-3.27205
-3.61233
-2.07452
-2.72624
-0.783385
-1.40087
0.0839283
-0.272587
0.427919
0.306717
0.522871
0.485916
0.545604
0.544469
0.542918
0.52174
1.36118
-3.39703
-4.57046
0.603789
0.95367
1.40513
0.322395
0.30285
0.323443
2.51923
2.44848
3.60856
0.999494
-2.25162
-3.0285
0.216683
0.577353
-1.69449
-1.0496
2.42911
0.2969
0.303207
0.0785411
-1.73279
1.24992
0.65268
-0.534692
-1.6753
3.57978
1.30984
-1.10499
-1.56437
0.721044
1.61843
2.07192
1.89414
0.548029
1.43941
-4.18756
0.734835
0.66851
0.850897
0.797587
0.948398
0.901181
1.03479
0.993469
1.10728
1.07281
1.16566
1.13803
1.21131
1.18976
1.24757
1.23012
1.27764
1.26285
1.30536
1.29114
1.33328
1.31925
1.36123
1.34727
1.38975
1.37543
1.42062
1.40491
1.455
1.43765
1.49131
1.47316
1.52765
1.50978
1.56093
1.54477
1.58954
1.5759
1.61259
1.60173
1.63055
1.62216
1.6437
1.63773
1.65254
1.64854
1.65666
1.65546
1.64867
1.65466
1.62248
1.63805
1.57139
1.60058
1.49169
1.53449
1.40117
1.44621
1.31123
1.35691
1.20823
1.26194
1.1108
1.15776
1.04524
1.07014
0.97641
1.06232
1.04316
0.868827
2.60752
2.57047
2.54823
2.66818
2.63984
2.34828
2.44012
2.22795
2.27734
2.15668
2.19133
2.08361
2.11942
2.03991
2.05613
2.03382
2.03387
2.04486
2.03738
2.07215
2.05684
2.10326
2.08838
2.12789
2.11595
2.14912
2.13906
2.16201
2.15729
2.15633
2.16207
2.12713
2.14479
2.07737
2.10444
2.01828
2.0481
1.96239
1.98916
1.91555
1.93743
1.87486
1.89421
1.83594
1.85525
1.79353
1.8155
1.74348
1.76978
1.68134
1.71388
1.60696
1.64527
1.52391
1.56672
1.4413
1.48329
1.37368
1.40687
1.33183
1.35012
1.31787
1.32018
1.32765
1.31823
1.35118
1.33887
1.3715
1.36528
1.35693
1.36697
1.3378
1.46769
1.31415
1.39377
1.6735
1.55712
1.96136
1.8001
2.19022
2.07981
2.28193
2.27686
2.12014
2.25515
1.43533
1.85022
0.196876
0.87683
-1.38772
-0.577253
-3.06317
-2.33908
-3.82334
-3.5764
-3.40649
-3.75676
-2.15476
-2.8399
-0.80627
-1.44547
0.0508287
-0.295724
0.381675
0.260325
0.468482
0.43736
0.485871
0.483378
0.488861
0.486461
0.310931
2.35692
1.67142
2.07199
2.22715
3.76553
1.36593
1.05747
-2.94509
-3.48176
0.0610289
0.607464
-2.39207
-2.15244
1.01603
1.09598
3.21636
0.34943
0.788781
0.634847
2.58766
2.69314
1.28237
1.24115
1.2055
0.491341
0.441671
0.443934
-0.0475494
0.10257
-2.24142
-0.0824028
0.040787
0.0337869
0.113665
-0.562673
-2.45361
2.39024
1.50339
0.605979
1.37276
1.86413
-1.57435
-2.48819
4.83485
-2.4333
1.17048
-3.39976
0.599207
0.543585
0.714844
0.656529
0.826329
0.773187
0.921556
0.875588
1.00582
0.965247
1.07805
1.04351
1.1377
1.10924
1.18613
1.16307
1.22611
1.20689
1.26008
1.24347
1.29103
1.27558
1.32107
1.30604
1.35094
1.336
1.3809
1.36597
1.41167
1.39621
1.44389
1.42776
1.47706
1.46053
1.50991
1.49374
1.53981
1.52537
1.56528
1.55313
1.58588
1.57616
1.60172
1.59434
1.61286
1.6079
1.61946
1.61661
1.62061
1.62105
1.61015
1.617
1.58542
1.5998
1.54017
1.56567
1.47413
1.50913
1.4011
1.43751
1.32499
1.36431
1.24129
1.283
1.16829
1.20312
1.12289
1.13924
1.13613
1.12148
0.915099
2.71769
2.63475
2.67805
2.76347
2.74773
2.79054
2.7766
2.40742
2.49056
2.28817
2.34012
2.20808
2.2463
2.13326
2.16979
2.08309
2.10344
2.06586
2.07168
2.06512
2.06363
2.07987
2.0709
2.1004
2.09032
2.11769
2.10968
2.13136
2.12514
2.13714
2.13573
2.128
2.13476
2.10062
2.11679
2.05659
2.08032
2.00387
2.03043
1.95283
1.97743
1.90742
1.92914
1.86549
1.88589
1.82441
1.84508
1.78008
1.80308
1.72963
1.7557
1.66952
1.70161
1.59998
1.63555
1.52502
1.56348
1.45133
1.48848
1.38931
1.41918
1.34593
1.36506
1.32331
1.33129
1.31837
1.31872
1.32358
1.3207
1.32544
1.32576
1.29975
1.3162
1.27319
1.4613
1.37233
1.66918
1.5584
1.94901
1.8013
2.20098
2.0827
2.30552
2.28318
2.11868
2.26074
1.44766
1.85171
0.246651
0.907425
-1.318
-0.509673
-2.85071
-2.14536
-3.60665
-3.35725
-3.23416
-3.55925
-2.04285
-2.69589
-0.78138
-1.37548
0.0148309
-0.309056
0.340107
0.210834
0.421465
0.394645
0.432366
0.429298
0.436896
0.0291107
2.56748
1.01856
0.657548
-2.93199
-2.86483
1.16403
2.91982
0.459325
2.80134
1.17854
1.13969
0.488758
0.440472
-0.276033
0.114383
-2.87693
-1.57208
0.0433516
-0.371802
-0.588044
-3.22733
0.539161
-0.322096
-0.305155
1.96947
-0.102433
1.00234
1.59309
-1.85592
-3.55512
3.20599
0.60275
-3.16222
-3.51641
2.47904
2.37335
0.781602
-3.07863
0.591137
0.539029
0.698898
0.645075
0.803264
0.751881
0.896728
0.851367
0.979465
0.939468
1.05139
1.0168
1.11209
1.08304
1.16271
1.1385
1.2055
1.18493
1.24265
1.22454
1.27651
1.25976
1.3086
1.29265
1.33967
1.32422
1.37018
1.35499
1.40085
1.3855
1.43176
1.41639
1.4623
1.44719
1.4915
1.47721
1.51844
1.50549
1.54108
1.5303
1.55943
1.55079
1.57319
1.56687
1.58226
1.57828
1.58722
1.58518
1.58649
1.5879
1.57516
1.58217
1.55254
1.56544
1.51331
1.53523
1.45913
1.48741
1.4007
1.43003
1.33724
1.37013
1.27096
1.30318
1.2178
1.24256
1.18775
1.19846
1.20063
1.18853
1.20345
1.25937
1.22553
1.06906
1.14098
0.868013
0.978164
5.44604
0.595066
0.741381
2.90177
2.8867
2.89256
2.90851
2.90763
2.90867
2.90867
2.81366
2.91346
2.91045
2.62276
2.71615
2.45818
2.53602
2.33881
2.39287
2.25107
2.29313
2.1739
2.21095
2.11918
2.1428
2.09208
2.10298
2.08155
2.08513
2.08483
2.08163
2.09631
2.09035
2.10581
2.10161
2.11228
2.10943
2.11306
2.11388
2.101
2.10896
2.07407
2.08936
2.03465
2.05561
1.98777
2.01148
1.94061
1.96367
1.89638
1.91795
1.85426
1.87514
1.81215
1.83347
1.76689
1.79018
1.71587
1.74212
1.65765
1.68705
1.59288
1.62615
1.52406
1.55919
1.4567
1.49026
1.39803
1.42614
1.35285
1.37346
1.32271
1.33569
1.30554
1.31303
1.2957
1.30072
1.28355
1.29032
1.24534
1.26824
1.21456
1.24104
1.09482
1.16251
1.44313
1.33721
1.67162
1.55525
1.93219
1.79955
2.15789
2.05625
2.24316
2.22321
2.06309
2.20068
1.41385
1.80272
0.285367
0.90179
-1.13957
-0.408241
-2.47714
-1.85698
-3.12872
-2.92069
-2.77744
-3.07241
-1.73457
-2.302
-0.659213
-1.16397
0.0341362
-0.257464
0.303798
0.174814
0.379155
0.353273
0.389146
0.384932
0.400329
0.395532
0.393508
0.399525
-0.346225
2.87666
0.550162
0.145637
-3.42374
-2.69263
0.111618
-0.698071
-0.593419
-3.98043
-1.59258
-0.278251
1.25061
1.30009
2.8281
2.92054
1.96768
1.03688
1.03104
0.971806
0.3852
0.350016
0.340222
-0.778568
2.2263
-1.73008
-4.97589
0.390832
-0.798649
-0.754715
-0.359493
0.493547
-3.37009
-5.51134
3.26096
0.47306
1.19951
-4.8058
0.425324
0.747722
0.617944
2.85484
2.83031
0.284047
-3.32261
0.247934
0.481671
0.43315
0.580873
0.530944
0.682867
0.631806
0.782118
0.733422
0.873621
0.828923
0.955359
0.91574
1.02705
0.992434
1.08876
1.05908
1.14121
1.116
1.1863
1.16455
1.22588
1.20662
1.26188
1.24418
1.29568
1.27895
1.32798
1.31199
1.35889
1.34358
1.389
1.37403
1.41848
1.40387
1.44697
1.43291
1.47358
1.46061
1.49735
1.48592
1.51718
1.50776
1.53325
1.52567
1.54512
1.53975
1.55223
1.5492
1.55581
1.55441
1.55388
1.55583
1.54306
1.54953
1.52311
1.53438
1.49018
1.50838
1.44646
1.46908
1.39949
1.42327
1.34814
1.37443
1.29781
1.32202
1.25969
1.27684
1.24325
1.24781
1.25879
1.24601
1.30972
1.2801
1.12984
1.19429
0.963619
1.05369
0.861156
3.11843
3.1824
3.14832
3.07097
3.09206
3.04307
3.05484
3.02035
3.03294
3.01121
3.01463
2.65471
2.73819
2.50275
2.57584
2.38165
2.43828
2.28704
2.33208
2.20801
2.24565
2.14884
2.17545
2.11349
2.12866
2.0942
2.1023
2.08783
2.08947
2.09036
2.0887
2.09274
2.09177
2.09345
2.09331
2.08952
2.09254
2.07491
2.08373
2.0489
2.06325
2.01275
2.03193
1.97025
1.99187
1.92633
1.94803
1.88384
1.90484
1.84211
1.86303
1.79971
1.8212
1.75415
1.77747
1.70282
1.72922
1.64647
1.6738
1.58569
1.61694
1.52156
1.55409
1.45857
1.48978
1.40162
1.42906
1.35431
1.37659
1.31798
1.33483
1.29122
1.30381
1.26919
1.28013
1.24162
1.25663
1.1956
1.22289
1.12412
1.16227
1.08097
1.19285
1.11292
1.40103
1.28899
1.64348
1.52226
1.8778
1.76263
2.06832
1.98348
2.1241
2.12126
1.88677
2.05015
1.27458
1.6301
0.287578
0.820114
-0.892411
-0.294807
-1.94147
-1.45932
-2.43988
-2.28334
-2.14169
-2.38605
-1.29612
-1.75466
-0.437675
-0.838337
0.0984258
-0.119934
0.309101
0.220639
0.358992
0.339389
0.364413
0.362441
0.365253
0.366459
0.359284
-0.826795
3.23543
-0.135133
-0.552431
-4.66507
-3.34882
-0.194086
0.469684
0.216976
1.34524
3.01039
3.05768
0.974844
0.916171
0.37559
0.330391
-1.27585
2.80093
-1.4865
-6.2449
-2.63281
-0.710283
-1.2673
0.457222
-3.11853
-7.97197
-0.753333
1.9732
-0.632703
-6.24731
-8.24892
0.305618
-1.42189
3.47429
3.58317
-1.49585
0.722969
0.632793
-0.453141
-4.47695
-0.0208732
0.471825
0.423764
0.568424
0.519904
0.66699
0.617709
0.763026
0.715629
0.852434
0.808639
0.933297
0.893983
1.00486
0.970201
1.06733
1.03713
1.12136
1.09529
1.16841
1.14565
1.21004
1.1898
1.24778
1.2293
1.28286
1.26559
1.31591
1.2996
1.34714
1.33173
1.37682
1.36216
1.40489
1.39107
1.43122
1.41828
1.45541
1.44361
1.47653
1.46641
1.49387
1.48566
1.50749
1.50111
1.51738
1.51292
1.52306
1.52068
1.52551
1.52467
1.52283
1.52501
1.51314
1.51877
1.49619
1.50571
1.4696
1.48406
1.43559
1.45316
1.39825
1.41733
1.35785
1.37817
1.32133
1.33861
1.29612
1.30686
1.29067
1.29054
1.30844
1.29622
1.35454
1.32813
1.38508
1.4228
1.38662
1.30377
1.34638
1.20181
1.25603
1.06942
1.13976
0.910194
0.992152
0.818444
3.32523
3.39032
3.22691
3.27093
3.16644
3.19246
3.12297
3.14694
3.10249
3.11132
3.01048
3.09144
3.09515
2.84286
2.92788
2.68171
2.76011
2.53992
2.60809