/*--------------------------------*- C++ -*----------------------------------*\
  =========                 |
  \\      /  F ield         | OpenFOAM: The Open Source CFD Toolbox
   \\    /   O peration     | Website:  https://openfoam.org
    \\  /    A nd           | Version:  10
     \\/     M anipulation  |
\*---------------------------------------------------------------------------*/
FoamFile
{
    format      ascii;
    class       volVectorField;
    location    "14";
    object      U;
}
// * * * * * * * * * * * * * * * * * * * * * * * * * * * * * * * * * * * * * //

dimensions      [0 1 -1 0 0 0 0];

internalField   nonuniform List<vector> 
6397
(
(4.33459 -0.858797 1.9875e-19)
(4.03313 -0.54982 -9.65575e-19)
(5.57784 -0.449749 0)
(5.51322 0.121174 3.5706e-20)
(4.82092 0.651444 -1.07039e-19)
(4.96573 0.0503032 -2.20905e-19)
(3.19332 -2.21832 -8.03242e-19)
(1.55009 -3.28816 1.74647e-18)
(-0.0635278 -2.48267 4.47091e-19)
(0.56138 -1.8351 -1.09031e-19)
(2.43642 2.98534 8.24481e-19)
(3.47694 3.63642 -9.93465e-23)
(3.68929 0.110977 -3.64682e-20)
(3.67454 0.101048 -1.52767e-20)
(2.54477 0.113495 2.93716e-20)
(1.60208 1.13323 -4.44315e-18)
(2.50122 -1.08893 -2.0308e-18)
(0.0897063 -0.368387 2.05524e-18)
(0.980048 0.114171 8.08678e-19)
(2.12197 -0.482509 -2.52905e-18)
(1.60026 -0.0987988 -1.31871e-18)
(-1.85013 0.166271 -9.74116e-19)
(-1.45872 0.0470455 6.49094e-20)
(0.963578 -0.546414 -7.84069e-19)
(4.04521 0.14065 0)
(4.3113 0.0836028 3.38237e-21)
(4.42506 0.13759 -5.64183e-22)
(2.83978 -2.51355 1.46352e-19)
(2.91504 -2.61723 -3.71474e-20)
(2.71393 -2.42515 8.59461e-20)
(2.79639 -2.57531 -1.26048e-19)
(5.57397 0.984876 -1.02357e-19)
(5.72932 0.5573 -1.53833e-19)
(5.34241 0.626321 6.29505e-19)
(5.30235 0.906773 2.92666e-20)
(5.52257 0.800785 0)
(5.52413 1.02589 2.58843e-20)
(5.7489 0.81071 7.42314e-20)
(4.84068 0.428527 7.50786e-20)
(4.74105 0.415602 -4.44961e-20)
(4.97804 0.664133 0)
(5.19807 0.587644 0)
(2.60611 -2.18693 -5.60239e-20)
(3.76204 -0.783001 -2.80307e-19)
(3.83212 -1.39478 2.7271e-19)
(5.05962 -0.5664 -5.25241e-19)
(4.3121 -0.0226287 -2.84356e-19)
(4.43258 -0.677002 8.42063e-19)
(4.34999 0.216731 8.97986e-20)
(4.40868 0.14309 -1.37635e-20)
(4.37574 0.0793693 1.59324e-19)
(4.41388 0.0258925 -6.01343e-20)
(4.37503 0.0698105 -4.32897e-19)
(4.34011 1.05412 -8.8652e-20)
(3.73646 0.572623 5.692e-20)
(4.03897 0.0457135 7.80387e-20)
(4.05529 0.0618135 7.49305e-20)
(4.50331 -0.03791 -1.33501e-19)
(2.8122 -0.306232 -1.77144e-19)
(2.8148 -1.14588 1.77314e-19)
(2.85739 0.59915 1.7058e-19)
(2.93857 1.40568 -1.6838e-19)
(3.05587 2.0471 -1.34972e-19)
(3.17292 2.46993 1.32658e-19)
(3.29278 2.69269 0)
(3.37013 2.76061 8.37082e-20)
(3.4162 2.73368 -8.76568e-20)
(3.37326 2.68427 0)
(3.09722 -1.11124 -1.89318e-19)
(2.8476 -1.82375 2.20476e-21)
(3.10054 -1.849 1.81431e-19)
(3.13086 -0.196991 0)
(3.18253 0.747866 0)
(3.27161 1.58819 0)
(3.36019 2.23605 -7.00553e-22)
(3.44574 2.64718 6.35715e-23)
(3.51185 2.83109 0)
(3.54587 2.8409 -1.0487e-23)
(3.5307 2.74641 0)
(3.44659 2.61666 0)
(3.0968 -2.30991 -1.40063e-19)
(2.89106 -2.28267 9.31429e-21)
(3.2786 2.61617 0)
(3.29339 2.47454 0)
(3.11152 -2.5581 2.94336e-20)
(2.93298 -2.52263 0)
(3.08467 2.51233 0)
(3.06235 2.29529 0)
(3.07833 -2.60878 1.87465e-19)
(2.91914 -2.61369 -2.0678e-20)
(2.86172 2.27598 0)
(2.81169 2.00737 0)
(3.05443 -2.55845 -1.21056e-19)
(2.9553 -2.40524 -4.88679e-20)
(2.62935 1.80722 0)
(2.55787 1.54094 1.09864e-20)
(3.31193 -2.53082 0)
(3.15606 -2.26636 7.93691e-20)
(3.2364 -2.45113 6.7091e-21)
(3.4139 -2.23815 -1.74824e-19)
(3.37073 -2.49319 0)
(3.51639 -0.950655 -1.1125e-19)
(3.46308 -1.71799 1.74745e-19)
(3.6443 0.936829 1.15911e-19)
(3.58522 -0.0180754 8.56866e-20)
(3.73604 2.38087 7.01832e-22)
(3.69015 1.76459 -1.21934e-19)
(3.76786 2.86266 1.52981e-20)
(3.75638 2.74135 -7.13637e-20)
(3.66322 2.66762 -3.36773e-20)
(3.72713 2.81443 7.96672e-20)
(3.35112 2.28605 0)
(3.53159 2.48616 0)
(2.87215 1.74708 0)
(3.12991 2.0592 0)
(2.61495 1.31787 -1.65665e-20)
(3.19538 2.66474 -1.47358e-19)
(2.85129 2.02916 -1.18858e-19)
(3.03482 2.48643 1.44884e-19)
(3.36758 2.69729 9.44572e-20)
(3.32112 2.70125 -9.23446e-20)
(3.29178 2.66889 6.49171e-22)
(3.3697 2.68776 2.46813e-21)
(3.01675 2.29197 0)
(3.17661 2.55105 0)
(2.74937 1.18274 1.2484e-19)
(2.87845 1.8146 1.13803e-20)
(2.65169 -0.413667 2.23925e-20)
(2.6785 0.399272 -1.24271e-19)
(2.72849 -1.789 5.66045e-20)
(2.67643 -1.17271 -8.68832e-21)
(2.85547 -2.47225 -8.06623e-20)
(2.78456 -2.20031 -5.03087e-20)
(2.85349 -2.61303 0)
(2.86127 -2.58401 9.11127e-20)
(2.92337 -2.18893 -5.01401e-20)
(2.78379 -2.32398 -2.11133e-21)
(3.07606 -2.04774 9.06879e-21)
(2.41104 0.70293 -3.12857e-20)
(2.36004 0.875078 7.43044e-21)
(3.21309 2.20145 -2.06168e-21)
(2.70039 1.22851 1.19125e-19)
(3.10723 1.37082 0)
(2.31426 -0.0585027 1.86272e-20)
(2.53542 0.507039 -1.32896e-20)
(2.45913 -0.13222 1.32137e-20)
(2.7828 -2.50501 5.09384e-20)
(3.34874 -2.13457 -3.44203e-20)
(3.22878 -1.90045 -8.69727e-21)
(2.69141 -2.28902 5.5043e-20)
(2.45366 1.06912 4.67576e-21)
(3.58237 -2.3985 0)
(3.46416 -2.30728 -9.52174e-21)
(3.8212 -2.10369 4.37953e-21)
(3.70458 -2.36015 0)
(4.03827 -0.823685 -3.12387e-20)
(3.93824 -1.59691 6.70814e-20)
(4.19307 0.987822 0)
(4.12864 0.0761156 1.6143e-20)
(4.16819 2.36474 0)
(4.19847 1.7726 6.97828e-21)
(4.05032 2.78927 0)
(4.11415 2.69707 8.80119e-21)
(3.83551 2.52862 -1.19333e-21)
(3.93886 2.7088 3.80741e-21)
(3.47609 2.05844 8.88182e-22)
(3.65099 2.30744 -2.00957e-21)
(2.96591 1.46084 1.25024e-22)
(3.22254 1.78696 -3.39448e-22)
(2.70381 1.05022 5.4566e-21)
(3.40846 2.79368 2.26706e-21)
(3.32217 2.65661 2.78643e-21)
(3.42628 2.68435 -8.2985e-23)
(3.44524 2.76014 0)
(3.24232 2.52661 0)
(3.35386 2.61672 -9.57651e-22)
(2.93514 2.09046 0)
(3.10772 2.37295 0)
(2.65797 1.04632 -5.8941e-23)
(2.7956 1.65437 -1.15428e-20)
(2.56724 -0.400752 -1.30015e-20)
(2.60328 0.338994 0)
(2.68423 -1.66467 -3.24193e-20)
(2.61644 -1.09033 0)
(2.86 -2.38598 2.28249e-21)
(2.779 -2.09837 3.25004e-20)
(2.9166 -2.63277 7.32757e-23)
(2.91982 -2.54634 8.84603e-21)
(2.86771 -2.61082 -4.36737e-20)
(2.77436 -1.93875 1.1822e-20)
(2.65954 -2.0739 0)
(3.07939 -1.65149 -3.03389e-21)
(2.91109 -1.79231 -1.8397e-21)
(3.05259 0.198941 0)
(2.61216 0.139574 0)
(2.26564 0.00313824 -1.77175e-20)
(2.72783 0.410036 -2.07199e-22)
(2.65963 -0.138158 0)
(2.50923 -0.819759 -3.28083e-21)
(2.34905 -0.857394 -1.4565e-22)
(3.66041 0.243003 0)
(3.06369 -1.09176 0)
(3.67961 -1.1206 -1.86464e-19)
(2.48555 -1.85063 4.34185e-20)
(2.59177 -1.93618 0)
(2.94156 -1.33868 8.50727e-21)
(3.25039 -1.52661 1.24829e-22)
(3.10168 -1.21853 -5.47257e-20)
(2.94505 -2.35421 0)
(3.01381 -2.57893 -4.87248e-20)
(2.35599 0.0944952 0)
(3.55052 -1.97923 2.39402e-21)
(3.38969 -1.75885 0)
(3.88595 -2.2417 1.91742e-22)
(3.69737 -2.14109 4.79423e-21)
(4.2657 -1.95073 -9.30294e-21)
(4.05538 -2.20547 0)
(4.59798 -0.702788 2.0071e-22)
(4.43587 -1.44881 -1.23127e-20)
(4.74247 1.06503 -2.10466e-22)
(4.68165 0.170301 -1.60149e-20)
(4.62462 2.35513 1.74272e-20)
(4.71858 1.80651 0)
(4.33478 2.69197 0)
(4.50303 2.6401 -1.77651e-20)
(3.97457 2.35113 -1.06634e-21)
(4.16678 2.5711 8.81744e-22)
(3.54275 1.81523 0)
(3.75368 2.09579 -8.22579e-23)
(3.05915 1.23279 5.88114e-22)
(3.27185 1.53937 -3.81434e-22)
(2.84044 0.867708 -1.10709e-21)
(3.6925 2.30222 -2.76152e-20)
(3.66896 1.46114 1.68845e-22)
(3.69617 2.80326 -8.78699e-21)
(3.70531 2.71262 4.06121e-20)
(3.58003 2.59757 3.02963e-21)
(3.65201 2.72294 -1.10854e-20)
(3.30562 2.39943 0)
(3.45544 2.50083 9.20874e-21)
(2.97018 1.94114 0)
(3.1373 2.23312 0)
(2.68405 0.953183 7.96047e-23)
(2.80992 1.5168 0)
(2.60062 -0.380171 0)
(2.61647 0.305045 0)
(2.74255 -1.57735 0)
(2.64963 -1.01832 0)
(2.95223 -2.31016 1.19956e-20)
(2.84788 -2.00595 0)
(3.06417 -2.6326 -7.25954e-23)
(3.03072 -2.51458 -1.22666e-20)
(3.05886 -2.66553 5.79956e-20)
(2.66168 -1.60478 1.24798e-20)
(2.54235 -1.72825 -4.0621e-20)
(2.78858 -1.4654 7.87033e-21)
(2.68712 -0.738328 -4.45585e-21)
(2.62145 -1.06061 0)
(2.30046 -0.932169 2.13749e-20)
(3.72482 -2.31789 1.99511e-19)
(3.14763 -2.24498 0)
(2.63429 -1.47056 3.08513e-21)
(2.49571 -1.59644 1.40559e-20)
(2.87214 -0.974514 5.00106e-21)
(3.05946 -0.883715 4.57697e-21)
(2.42097 -1.39705 4.10854e-20)
(2.52907 -1.46053 8.09733e-20)
(3.35279 -2.60532 5.22875e-20)
(3.33891 -2.39334 0)
(3.43641 -1.38865 -4.51391e-21)
(3.29145 -1.09864 -2.39007e-20)
(2.79095 -1.2966 4.46951e-21)
(3.00511 -1.71887 -4.813e-22)
(2.85413 -1.99481 -1.13548e-20)
(2.88606 -1.9858 -4.15223e-21)
(2.38375 -0.980951 0)
(3.77288 -1.80045 -3.49093e-21)
(3.56666 -1.59942 1.54955e-20)
(4.19816 -2.01332 -3.16631e-21)
(3.93423 -1.938 5.57951e-21)
(4.69348 -1.71308 0)
(4.40986 -1.95378 0)
(5.10158 -0.557673 -3.83362e-23)
(4.88417 -1.24036 -1.05396e-26)
(5.2305 1.05589 2.08606e-22)
(5.18278 0.248236 0)
(5.01872 2.21533 0)
(5.15213 1.73414 -9.08253e-27)
(4.57466 2.48533 0)
(4.82169 2.4587 0)
(4.07273 2.11403 0)
(4.34578 2.34296 0)
(3.61108 1.58489 0)
(3.84852 1.85148 0)
(3.21239 1.04387 0)
(3.39756 1.3252 0)
(2.92087 0.287998 2.09503e-21)
(3.03395 0.702526 0)
(2.85997 -0.731187 0)
(2.84127 -0.211206 5.77744e-22)
(3.1824 -1.55185 0)
(2.98517 -1.1997 5.2243e-21)
(4.38778 0.274741 -4.98839e-20)
(4.4023 -2.37125 -5.07999e-20)
(4.40603 -1.14114 5.00914e-20)
(4.26807 2.32774 1.05751e-20)
(4.33869 1.5096 -1.68791e-22)
(4.07187 2.76549 -4.31957e-21)
(4.17503 2.70431 -1.53935e-20)
(3.80553 2.48877 -1.72154e-23)
(3.94843 2.6471 0)
(3.43207 2.22925 0)
(3.6243 2.34794 0)
(3.06271 1.77567 0)
(3.23423 2.05465 0)
(2.79621 0.852834 -2.95723e-23)
(2.90517 1.37249 0)
(2.72839 -0.371051 0)
(2.72376 0.256466 0)
(2.88022 -1.49544 0)
(2.77263 -0.965703 0)
(3.12357 -2.24023 2.12763e-21)
(2.99207 -1.91621 -2.21354e-21)
(3.29157 -2.61694 1.01213e-20)
(3.21419 -2.45929 -4.92957e-22)
(3.32659 -2.6686 -6.98738e-20)
(2.53335 -1.17783 -1.011e-20)
(2.4298 -1.27636 -4.3678e-20)
(2.69059 -1.07014 0)
(3.75136 -3.1588 0)
(4.35059 -3.1789 4.38181e-20)
(3.2732 -1.99156 -9.84249e-23)
(3.41628 -1.80295 0)
(2.74494 -2.12737 0)
(2.4424 -1.78752 0)
(3.24624 -0.798869 0)
(2.80275 -1.49098 -2.06338e-19)
(3.78079 -2.54811 4.42764e-20)
(3.81178 -2.32425 0)
(3.27072 -3.07235 7.50045e-21)
(2.72037 -2.19145 -1.70535e-20)
(4.23873 -3.54911 1.48048e-20)
(3.77076 -3.57262 -6.39743e-21)
(3.14542 -2.30708 1.19287e-20)
(3.55784 -2.18275 5.214e-21)
(3.63982 -1.97257 0)
(3.33766 -2.02911 2.09693e-19)
(2.51103 -1.95221 0)
(3.60389 -1.23059 2.26443e-20)
(3.39529 -0.713726 2.79912e-20)
(3.48361 -0.986559 7.0756e-20)
(3.97511 -1.59357 3.75357e-21)
(3.75906 -1.42454 -1.95698e-20)
(4.46922 -1.78106 0)
(4.18665 -1.71305 -2.13405e-21)
(5.03782 -1.48982 3.71391e-27)
(4.72753 -1.71256 -3.86206e-27)
(5.49737 -0.42151 -4.61444e-23)
(5.26676 -1.04084 0)
(5.61393 1.03717 0)
(5.5838 0.328719 0)
(5.31356 2.03708 -7.0927e-23)
(5.48234 1.64164 9.0819e-27)
(4.77096 2.22436 2.48605e-27)
(5.04928 2.2282 -2.58074e-27)
(4.20201 1.86887 0)
(4.49319 2.0813 0)
(3.73042 1.38269 -4.24044e-23)
(3.9777 1.62792 0)
(3.34125 0.872912 5.01435e-23)
(3.54755 1.13799 0)
(3.0563 0.211313 1.29955e-21)
(3.18874 0.569297 0)
(3.02613 -0.603444 -1.2806e-20)
(3.00493 -0.193253 -2.67034e-21)
(3.28872 -1.27729 -1.19478e-20)
(3.13844 -0.97751 7.51623e-21)
(3.72722 -1.69485 -1.78242e-20)
(3.49045 -1.51614 1.19246e-20)
(5.07182 -2.35391 3.54586e-20)
(4.73641 -3.45041 -3.44134e-21)
(4.93831 -3.13691 -3.90884e-20)
(5.10934 0.222445 7.18285e-20)
(5.13232 -1.14858 -4.55562e-20)
(4.82463 2.19973 -2.13218e-20)
(4.99357 1.41032 -1.90563e-20)
(4.41227 2.58186 0)
(4.62048 2.5462 2.69469e-20)
(4.01036 2.28213 -7.12897e-23)
(4.20356 2.45495 -3.29277e-27)
(3.57853 2.02212 0)
(3.79324 2.13693 0)
(3.1812 1.62191 2.27954e-23)
(3.35406 1.86928 0)
(2.94266 0.770011 7.50205e-24)
(3.03062 1.24971 0)
(2.90391 -0.355514 0)
(2.88406 0.222631 0)
(3.06743 -1.39958 0)
(2.95311 -0.90533 0)
(3.32902 -2.13229 0)
(3.18644 -1.80861 0)
(3.57539 -2.54869 0)
(3.44837 -2.38608 3.8214e-22)
(3.66401 -2.61479 -2.76845e-20)
(4.09029 -3.56981 -2.05434e-20)
(4.48914 -3.41283 0)
(3.8723 -2.1263 -2.72993e-21)
(4.01862 -1.85201 2.07393e-20)
(3.23643 -1.495 0)
(3.89683 -1.91765 -5.65978e-20)
(2.69758 -0.851201 -9.37171e-20)
(3.15285 -0.851224 1.30473e-19)
(2.30528 -0.795554 2.56893e-20)
(2.41291 -0.841583 1.40358e-20)
(2.44271 -0.668781 2.16381e-21)
(2.33489 -0.729491 -2.21054e-20)
(2.79184 -0.549817 1.50685e-20)
(2.61003 -0.606636 1.81802e-21)
(3.16225 -0.448482 0)
(2.97032 -0.496483 -2.43165e-20)
(3.36338 -0.414783 -4.66963e-20)
(2.92158 -2.90037 -7.56086e-21)
(2.66986 -2.45625 -1.06874e-26)
(3.40037 -3.51932 6.42186e-21)
(3.00868 -2.57506 0)
(3.75103 -3.62381 0)
(3.47834 -2.45692 0)
(4.21102 -3.16191 1.03086e-21)
(3.927 -3.35444 1.45293e-22)
(3.79829 -2.3791 -5.0256e-21)
(4.33825 -1.97212 -1.04403e-21)
(4.13087 -2.25474 8.39286e-21)
(3.53086 -0.621581 -3.51489e-20)
(3.54371 -0.391537 3.81144e-20)
(2.72116 -2.68554 -1.84212e-26)
(3.76924 -1.04636 -2.70197e-25)
(3.67152 -0.879274 1.61974e-20)
(4.16512 -1.34658 3.4321e-21)
(3.97176 -1.23416 0)
(4.68484 -1.48176 -8.36744e-28)
(4.41374 -1.45751 -3.98109e-21)
(5.26952 -1.22004 0)
(4.96855 -1.42022 0)
(5.74775 -0.283635 -1.14602e-22)
(5.52311 -0.816512 0)
(5.8543 0.970393 0)
(5.83431 0.381213 0)
(5.51921 1.79339 1.05965e-22)
(5.71035 1.48945 0)
(4.93032 1.91467 -9.23762e-24)
(5.21561 1.9528 0)
(4.34348 1.58528 0)
(4.62127 1.78456 0)
(3.8594 1.15067 -1.06065e-23)
(4.09929 1.37434 0)
(3.46995 0.682945 9.35091e-24)
(3.67277 0.926154 0)
(3.21468 0.103446 -6.30275e-23)
(3.34107 0.418017 3.69195e-27)
(3.18392 -0.622367 -1.05134e-23)
(3.18405 -0.253295 0)
(3.42263 -1.21655 1.31718e-21)
(3.28447 -0.963082 -7.89724e-21)
(3.86288 -1.46838 1.17836e-20)
(3.63805 -1.38592 2.29885e-20)
(4.34918 -1.57625 -2.27979e-20)
(4.11035 -1.51842 -6.92626e-21)
(5.10621 -3.19309 4.17633e-21)
(4.42891 -2.85239 -1.16445e-21)
(4.77336 -3.10786 0)
(5.61626 -2.24619 -4.30747e-21)
(5.38912 -2.94293 7.58194e-21)
(5.69798 0.154059 -5.05806e-21)
(5.72102 -1.13395 -9.7649e-22)
(5.28928 2.01233 7.53939e-23)
(5.54631 1.2833 -2.25915e-21)
(4.71014 2.36032 0)
(4.99678 2.32727 0)
(4.23539 2.08134 2.54199e-23)
(4.45592 2.24875 -3.59474e-27)
(3.77804 1.7984 -1.20521e-27)
(4.01271 1.92091 1.27595e-27)
(3.33161 1.46443 1.66567e-23)
(3.53072 1.66703 0)
(3.09773 0.712146 0)
(3.18181 1.14016 0)
(3.08834 -0.311743 -5.13294e-23)
(3.06438 0.216701 0)
(3.27651 -1.28674 0)
(3.15915 -0.817686 0)
(3.5761 -2.00965 -2.3668e-23)
(3.41051 -1.6773 0)
(3.89187 -2.46329 -4.54265e-23)
(3.70872 -2.26604 1.06885e-22)
(4.23682 -2.45411 -5.27979e-20)
(4.01238 -2.53065 0)
(4.48462 -1.79455 -3.81389e-19)
(4.3296 -2.21777 2.35674e-19)
(4.49783 -1.27201 -2.0619e-20)
(2.58542 -0.124075 0)
(3.63494 -0.0912127 -1.38015e-19)
(3.01772 -0.120565 5.59811e-21)
(2.22807 -0.114359 0)
(2.33486 -0.114989 0)
(2.38144 -0.0983194 -1.60001e-21)
(2.25443 -0.110426 -2.53743e-27)
(2.79342 -0.0933337 -5.21029e-21)
(2.56977 -0.0950925 -1.52522e-21)
(3.1853 -0.100873 0)
(3.00844 -0.0989495 1.95651e-20)
(3.93515 -2.82521 -1.78787e-23)
(4.11773 -2.52062 -7.49379e-22)
(4.68078 -2.07107 -1.7782e-21)
(4.61572 -1.69016 2.26867e-20)
(3.46904 -0.0693466 3.96658e-20)
(3.33262 -0.0852938 -2.01524e-20)
(3.11517 -3.33146 -2.26489e-25)
(2.9383 -2.86404 0)
(3.50012 -3.61317 0)
(3.33061 -2.74444 -2.0546e-25)
(3.68453 -3.45223 -3.44196e-23)
(3.74865 -2.59466 -6.45358e-21)
(3.74822 -3.03813 3.40619e-23)
(4.06224 -2.56546 0)
(3.82175 -2.17343 -9.48214e-21)
(3.64852 -2.47292 4.73586e-23)
(4.45571 -2.40017 -9.31991e-21)
(4.9184 -1.80961 -2.41501e-20)
(5.00802 -2.14711 -4.69997e-21)
(3.99107 -1.83252 9.46662e-21)
(3.53169 -1.78463 9.53867e-21)
(3.60948 -1.40271 1.68425e-20)
(5.31488 -1.85513 5.94058e-21)
(4.87852 -1.44718 5.07266e-20)
(5.20847 -1.39022 6.28829e-21)
(3.60537 -0.0639049 2.05252e-20)
(3.59244 0.17804 0)
(3.72312 0.125819 -2.415e-20)
(2.96666 -3.12953 -1.25024e-26)
(3.67894 -0.526234 9.15245e-21)
(3.68626 -0.358763 4.02916e-20)
(3.93411 -0.877754 -1.53239e-20)
(3.82886 -0.753604 -9.04871e-21)
(4.33119 -1.13017 0)
(4.14439 -1.04276 0)
(4.82158 -1.23534 0)
(4.58072 -1.22327 0)
(5.37012 -0.96518 0)
(5.09833 -1.15233 0)
(5.8199 -0.139948 0)
(5.62015 -0.588919 0)
(5.9061 0.900969 6.01409e-27)
(5.9071 0.434739 -6.24875e-27)
(5.58548 1.52354 -3.50341e-23)
(5.77596 1.31656 -3.40548e-27)
(5.00654 1.59078 9.23761e-24)
(5.29346 1.64542 0)
(4.42632 1.30761 0)
(4.69499 1.48688 0)
(3.93701 0.937054 -7.04595e-24)
(4.1691 1.13196 0)
(3.54532 0.529951 5.99102e-24)
(3.73797 0.737849 0)
(3.29176 0.0530965 6.30254e-23)
(3.41289 0.299907 0)
(3.2863 -0.468017 1.38235e-22)
(3.27108 -0.221814 4.52173e-27)
(3.5504 -0.852846 7.79609e-21)
(3.41046 -0.692101 0)
(3.93304 -1.11551 -8.14065e-21)
(3.74737 -1.00054 -1.00335e-20)
(4.36678 -1.36493 2.95185e-20)
(4.15743 -1.24436 -1.77923e-20)
(4.61553 -1.45152 -4.47996e-20)
(4.66211 -2.51481 3.10095e-21)
(4.33528 -2.19976 -1.36037e-20)
(5.36025 -2.89363 -2.21726e-23)
(5.00153 -2.77627 -1.09221e-22)
(5.94854 -2.10592 -1.73723e-20)
(5.69288 -2.70566 1.87871e-20)
(6.08972 0.085141 -7.43154e-23)
(6.10124 -1.08627 9.91623e-22)
(5.61279 1.72241 -7.53057e-23)
(5.92013 1.08388 -3.70063e-26)
(4.94303 2.06514 0)
(5.27887 2.0103 0)
(4.41072 1.85491 -1.11269e-27)
(4.66269 1.99314 1.17772e-27)
(3.95477 1.55716 0)
(4.19316 1.69386 0)
(3.48691 1.28359 1.25051e-23)
(3.71565 1.43738 0)
(3.24381 0.661755 0)
(3.33475 1.0278 0)
(3.26834 -0.255589 5.13298e-23)
(3.24005 0.219004 0)
(3.4883 -1.15159 0)
(3.36309 -0.722386 0)
(3.82716 -1.8434 -1.46349e-23)
(3.63599 -1.52995 9.9579e-27)
(4.21156 -2.295 4.41506e-23)
(3.98343 -2.10862 0)
(4.62625 -2.3268 0)
(4.38633 -2.40284 4.81609e-24)
(4.97669 -1.69614 1.06845e-19)
(4.82918 -2.10906 1.24342e-22)
(5.10784 -1.14509 1.41814e-19)
(3.59003 0.608351 -2.50263e-19)
(4.20923 0.65858 1.39232e-19)
(2.61552 0.647941 0)
(3.0408 0.659762 0)
(2.24692 0.560845 -3.02264e-24)
(2.35617 0.609088 -7.74701e-27)
(2.3858 0.46752 -6.29787e-25)
(2.26334 0.508386 -2.36179e-27)
(2.78032 0.388717 1.38414e-21)
(2.56697 0.432471 2.8572e-27)
(3.20641 0.284311 1.63673e-20)
(2.99334 0.339312 -7.98681e-21)
(3.41549 0.22854 -1.44759e-22)
(3.29081 -3.45749 6.07993e-25)
(3.22173 -3.02411 -5.72022e-26)
(3.55099 -3.48187 0)
(3.61945 -2.82615 2.40654e-25)
(3.57202 -3.18254 4.24591e-23)
(3.99371 -2.78424 6.46541e-21)
(3.53584 -2.71562 -7.07195e-23)
(4.33982 -2.74278 1.31269e-21)
(3.35001 -2.095 7.99897e-23)
(4.84599 -2.5144 0)
(3.20343 -0.882022 -1.91383e-20)
(3.21591 -1.28044 0)
(5.35155 -2.22006 8.12813e-21)
(5.55161 -1.30179 1.88876e-20)
(5.73405 -1.74883 -6.94592e-21)
(3.16287 -0.517404 -3.06548e-22)
(2.87869 -0.29871 -3.43694e-20)
(3.01272 -0.108288 -3.33683e-22)
(5.90722 -1.12174 -5.21528e-21)
(5.38872 -0.96096 5.28614e-20)
(5.60554 -0.804973 4.97606e-20)
(3.57962 0.531139 0)
(3.70865 0.456779 -7.78789e-20)
(3.69988 -0.0193719 3.90578e-20)
(3.84111 0.0557441 -4.09428e-20)
(3.21497 -3.29163 8.58152e-26)
(3.78262 -0.370569 -1.87681e-20)
(3.83423 -0.368145 -1.95675e-20)
(4.05286 -0.653203 2.10584e-21)
(4.00203 -0.689759 -9.08925e-21)
(4.42279 -0.875212 -2.75116e-23)
(4.29371 -0.900832 2.84721e-26)
(4.86682 -0.963745 0)
(4.66602 -1.00699 0)
(5.36904 -0.719454 0)
(5.12505 -0.893454 0)
(5.77195 -0.0210661 5.93083e-24)
(5.60044 -0.387654 0)
(5.81328 0.834003 0)
(5.84651 0.469268 0)
(5.49526 1.2988 0)
(5.68833 1.17277 0)
(4.96829 1.30168 0)
(5.24617 1.38172 0)
(4.40748 1.03806 0)
(4.68087 1.21277 0)
(3.92542 0.705718 6.00568e-23)
(4.1558 0.888077 0)
(3.58711 0.358466 3.57562e-24)
(3.74279 0.535141 1.68723e-26)
(3.45725 -0.0205057 0)
(3.50573 0.16718 0)
(3.57783 -0.4647 2.72658e-24)
(3.50386 -0.25216 -4.52181e-27)
(3.87007 -0.89233 7.20094e-23)
(3.73059 -0.710811 1.88649e-26)
(4.20614 -1.10872 8.64649e-21)
(4.05327 -1.04889 8.95448e-24)
(4.52702 -1.16753 -4.24379e-21)
(4.37807 -1.15704 -4.5696e-21)
(4.95742 -1.11928 -2.37549e-20)
(4.73589 -1.16534 1.68894e-20)
(5.18578 -1.05125 -5.82743e-20)
(3.90237 -1.40683 1.91845e-21)
(3.48868 -0.965574 -3.53753e-22)
(4.75436 -2.15539 -9.39244e-23)
(4.33098 -1.81421 0)
(5.5346 -2.54579 2.19465e-23)
(5.16291 -2.41301 1.10622e-22)
(6.10071 -1.89954 0)
(5.86652 -2.41308 0)
(6.2586 0.0119029 4.02451e-23)
(6.25746 -1.01202 0)
(5.76623 1.44369 0)
(6.08831 0.881665 0)
(5.03784 1.77914 0)
(5.40876 1.70874 0)
(4.4403 1.64036 -3.33893e-23)
(4.71769 1.74398 0)
(4.02868 1.34665 0)
(4.22926 1.49475 0)
(3.62405 1.09909 -5.19569e-23)
(3.82863 1.2239 0)
(3.37954 0.620623 -6.70681e-23)
(3.46553 0.911932 0)
(3.43147 -0.179643 -7.02602e-23)
(3.37222 0.24594 4.46292e-27)
(3.68966 -1.00224 -6.70686e-23)
(3.5286 -0.603386 -3.38998e-26)
(4.06252 -1.65284 -1.16734e-23)
(3.83891 -1.35947 0)
(4.48929 -2.07743 0)
(4.23931 -1.91098 0)
(4.96483 -2.12302 0)
(4.72159 -2.1882 -4.82439e-24)
(5.39081 -1.54614 -7.98629e-20)
(5.2363 -1.91475 -1.22104e-22)
(5.5839 -1.00442 6.69361e-20)
(4.73009 1.20779 0)
(5.21731 1.12265 -2.37034e-19)
(3.52963 1.28966 1.27514e-19)
(4.14153 1.29598 3.29007e-20)
(2.64208 1.31355 9.88094e-24)
(3.02412 1.34115 2.32411e-26)
(2.3232 1.15746 5.75424e-24)
(2.41152 1.24086 1.41354e-26)
(2.45636 0.982953 -4.39826e-27)
(2.34289 1.06764 4.47219e-27)
(2.85657 0.841069 2.69744e-21)
(2.63611 0.911659 -2.74697e-27)
(3.27407 0.669554 -1.63013e-20)
(3.08185 0.756237 -2.74874e-21)
(3.43167 0.592548 -1.86981e-20)
(3.43445 -3.39336 0)
(3.485 -3.05992 2.16845e-26)
(3.54761 -3.27269 0)
(3.82825 -2.95751 -1.515e-24)
(3.41113 -2.90248 -4.57542e-23)
(4.2074 -2.99799 -1.83569e-23)
(3.27543 -2.36452 5.46744e-23)
(4.66028 -2.87729 1.00036e-22)
(3.05166 -1.60548 -1.36674e-22)
(5.24619 -2.58245 2.51568e-22)
(2.89934 -0.615142 0)
(5.74207 -2.12511 2.69801e-20)
(3.06348 0.196232 -4.02849e-20)
(2.73187 0.234985 6.79168e-20)
(6.09997 -1.47829 -2.51961e-22)
(5.78604 -0.550334 -5.334e-20)
(6.16133 -0.748798 -1.22965e-20)
(3.82183 0.358738 3.41947e-21)
(3.43094 -3.25619 -1.62427e-25)
(3.89607 -0.0215566 -4.01483e-20)
(3.97745 0.36478 2.40467e-19)
(3.83145 0.0514458 -1.49379e-19)
(3.99428 -0.33013 4.61633e-21)
(3.84923 -0.242058 3.72835e-20)
(4.21058 -0.581209 -2.10324e-21)
(4.03055 -0.463184 4.38106e-21)
(4.49234 -0.781478 -7.59747e-21)
(4.29238 -0.646855 6.74012e-21)
(4.86546 -0.813041 -4.85016e-23)
(4.63527 -0.753132 2.45236e-26)
(5.27869 -0.536888 -3.69704e-23)
(5.06035 -0.645692 -1.74008e-26)
(5.58003 0.0735333 2.26655e-23)
(5.45622 -0.205655 0)
(5.59973 0.745527 0)
(5.64374 0.472336 0)
(5.30349 1.07928 -3.47473e-23)
(5.50238 1.0021 0)
(4.81096 1.01931 1.96795e-26)
(5.08699 1.10925 -2.04292e-26)
(4.28796 0.772129 2.67911e-26)
(4.55548 0.920196 -2.7802e-26)
(3.87092 0.507772 -3.1287e-26)
(4.07147 0.640954 3.24578e-26)
(3.63797 0.279544 -1.40241e-22)
(3.7396 0.385052 3.50814e-26)
(3.574 0.0394554 7.52186e-23)
(3.59763 0.153977 3.70224e-26)
(3.60818 -0.280326 1.6776e-24)
(3.58939 -0.128126 0)
(3.7163 -0.588084 7.72306e-23)
(3.65423 -0.460478 3.81874e-26)
(3.95229 -0.811566 7.12558e-23)
(3.82113 -0.714224 0)
(4.30856 -0.964053 4.92481e-21)
(4.11566 -0.908545 0)
(4.73745 -0.957934 2.00846e-20)
(4.52069 -0.97199 -2.24037e-20)
(5.12892 -0.782489 0)
(4.93337 -0.899134 2.30802e-21)
(5.46636 -0.3264 7.42481e-20)
(5.31509 -0.568123 -7.1517e-20)
(3.25942 -0.359989 2.63611e-21)
(3.30787 0.0714021 2.21376e-20)
(3.24218 -0.131404 -2.1395e-20)
(3.69775 -0.973569 6.54698e-22)
(3.40549 -0.636803 7.87111e-23)
(4.5348 -1.67894 0)
(4.09277 -1.33171 0)
(5.35945 -2.15532 -1.85428e-23)
(4.97641 -1.96572 0)
(5.93809 -1.68413 0)
(5.68427 -2.10468 0)
(6.18138 -0.0497966 3.40486e-23)
(6.13508 -0.920564 0)
(5.76085 1.11927 0)
(6.04463 0.666567 0)
(5.08207 1.41319 0)
(5.4237 1.33882 0)
(4.47435 1.38055 -1.53839e-23)
(4.75691 1.41705 0)
(4.06942 1.16565 0)
(4.24061 1.28822 0)
(3.73954 0.93 -6.14312e-26)
(3.89178 1.03783 6.50493e-26)
(3.50202 0.574604 6.70005e-23)
(3.57046 0.782956 7.15138e-26)
(3.55677 -0.0867007 1.44751e-22)
(3.46282 0.266569 7.04903e-26)
(3.84214 -0.828716 -5.07955e-24)
(3.64038 -0.470092 0)
(4.24572 -1.44316 5.00355e-23)
(3.99279 -1.16522 -6.21972e-26)
(4.7127 -1.84636 3.08309e-26)
(4.44436 -1.67688 -3.27031e-26)
(5.23246 -1.9031 0)
(4.97159 -1.92148 0)
(5.7087 -1.39439 6.16722e-21)
(5.50879 -1.6874 -1.04321e-20)
(5.91264 -0.409755 0)
(5.87809 -0.896473 2.37114e-21)
(5.86891 0.136986 0)
(4.53545 1.62391 0)
(5.34312 1.27437 1.3684e-20)
(4.99625 1.47746 4.90135e-20)
(3.50904 1.83213 -1.25243e-20)
(4.02756 1.79036 -2.47212e-20)
(2.7395 1.8323 -1.89062e-24)
(3.0727 1.86429 0)
(2.43868 1.64643 -2.73788e-24)
(2.52785 1.74883 0)
(2.5555 1.44417 0)
(2.45234 1.545 0)
(2.9228 1.26588 -1.92609e-25)
(2.7169 1.35313 0)
(3.41232 1.03065 0)
(3.16092 1.16267 0)
(3.80429 0.749618 0)
(3.63313 0.881326 -7.80362e-21)
(3.99045 0.470553 0)
(3.91587 0.651367 1.77273e-20)
(3.23659 0.441929 7.84743e-20)
(3.37233 0.317593 0)
(5.85936 -0.154545 2.89442e-21)
(5.52793 -0.0772313 5.71618e-21)
(3.5242 -3.26423 3.54743e-24)
(3.67096 -3.11947 0)
(5.91122 0.465842 0)
(3.44128 -3.07535 6.66809e-24)
(3.95634 -3.14756 1.05354e-24)
(4.01337 0.234065 5.54607e-20)
(4.07986 0.642356 0)
(4.08665 0.508808 0)
(3.19456 -2.59614 1.9959e-23)
(4.4304 -3.13679 4.06956e-23)
(2.97437 -1.88672 0)
(4.98838 -2.89664 -2.26145e-22)
(2.76507 -0.926183 0)
(5.57668 -2.41494 0)
(2.66265 0.136641 0)
(6.09362 -1.71619 -8.92926e-21)
(2.83233 0.571222 -1.68209e-21)
(6.32064 -0.911719 -7.4447e-22)
(3.43632 0.550696 0)
(3.40973 0.6952 -4.00796e-20)
(6.2062 -0.171722 -2.13585e-20)
(5.75124 0.290224 9.36408e-20)
(5.45208 0.170275 -1.0394e-19)
(3.5707 -3.21602 1.07537e-25)
(3.97152 -0.046069 1.94586e-20)
(3.93766 0.101672 0)
(4.06808 -0.274277 -4.2627e-21)
(3.98517 -0.171362 -8.85652e-21)
(4.23002 -0.482557 0)
(4.12211 -0.392668 4.37921e-21)
(4.46905 -0.613187 0)
(4.31742 -0.562273 1.00832e-21)
(4.79705 -0.588252 4.84783e-23)
(4.61399 -0.611555 0)
(5.12854 -0.34298 8.3943e-23)
(4.96855 -0.484804 0)
(5.32421 0.164176 1.3965e-23)
(5.25798 -0.0991786 0)
(5.27889 0.68392 -4.21198e-23)
(5.34686 0.463976 -3.72912e-26)
(5.00964 0.885927 3.47082e-23)
(5.1872 0.850631 4.03165e-26)
(4.60057 0.770112 -5.29383e-23)
(4.83429 0.867692 4.57537e-26)
(4.18934 0.555181 -5.70943e-26)
(4.39798 0.67228 5.56074e-26)
(3.91115 0.37779 -6.7589e-23)
(4.03779 0.465242 6.67426e-26)
(3.78351 0.223269 1.43087e-22)
(3.83645 0.305941 0)
(3.73399 -0.0135305 2.25427e-25)
(3.75549 0.119288 7.63221e-26)
(3.74683 -0.355973 -1.55246e-22)
(3.72661 -0.184141 0)
(3.90799 -0.636869 -7.71893e-23)
(3.80585 -0.520765 -8.02382e-26)
(4.1761 -0.743365 0)
(4.03381 -0.713402 0)
(4.45935 -0.761045 9.42548e-21)
(4.3166 -0.756571 -9.87411e-21)
(4.71935 -0.732765 0)
(4.58869 -0.760148 -4.72048e-27)
(4.99494 -0.565005 3.14139e-21)
(4.85658 -0.659966 -4.73191e-21)
(5.16761 -0.295413 4.30092e-20)
(5.10466 -0.447897 -4.29278e-20)
(5.14547 0.121939 0)
(5.1836 -0.0845846 -5.69221e-21)
(3.46164 0.0683296 1.14478e-20)
(3.56201 0.482378 -1.38726e-21)
(3.48715 0.293085 -2.1539e-20)
(3.4632 -0.317353 2.28061e-20)
(3.45434 -0.14015 -1.1279e-20)
(3.66076 -0.702304 1.07208e-20)
(3.52129 -0.495708 -3.40063e-20)
(4.23602 -1.27303 -3.75463e-23)
(3.90999 -0.961727 3.35779e-22)
(4.93657 -1.80642 1.85429e-23)
(4.59313 -1.57644 0)
(5.62833 -1.41601 8.18405e-26)
(5.28577 -1.78795 -8.65048e-26)
(5.99298 -0.0578814 -4.69203e-26)
(5.89984 -0.758281 4.96154e-26)
(5.64735 0.851625 -1.86199e-23)
(5.88801 0.495924 0)
(5.06264 1.12363 7.35848e-26)
(5.3506 1.04088 -7.78694e-26)
(4.52082 1.13711 4.86703e-23)
(4.77467 1.13752 1.08828e-25)
(4.11064 1.01804 0)
(4.27366 1.09171 0)
(3.83614 0.798938 7.31422e-23)
(3.94313 0.89808 -4.57157e-27)
(3.61085 0.528724 -1.44307e-25)
(3.67185 0.67039 1.52838e-25)
(3.63262 0.0131352 2.49872e-24)
(3.53892 0.2882 0)
(3.9199 -0.641357 7.2181e-23)
(3.70731 -0.323448 0)
(4.34743 -1.21107 -6.48532e-23)
(4.08832 -0.948272 0)
(4.84832 -1.58276 8.61894e-26)
(4.57767 -1.41586 -9.13869e-26)
(5.38375 -1.64118 0)
(5.12615 -1.63738 0)
(5.85862 -1.21918 -7.61571e-21)
(5.66501 -1.45603 -5.2402e-21)
(6.07111 -0.365394 3.7366e-20)
(6.03772 -0.784918 -2.15098e-20)
(6.05082 0.117222 0)
(5.13842 1.48821 7.23031e-21)
(5.29891 1.18025 4.26572e-21)
(4.40741 1.91973 0)
(4.83128 1.74039 -7.09866e-21)
(3.45202 2.15648 3.69781e-23)
(3.92595 2.09552 0)
(2.77622 2.14594 -7.95565e-24)
(3.06211 2.17657 -5.85056e-26)
(2.51746 1.98642 0)
(2.59285 2.07448 0)
(2.65382 1.80915 0)
(2.53968 1.902 0)
(3.05337 1.62015 1.91494e-25)
(2.83474 1.71523 0)
(3.4792 1.39056 0)
(3.27366 1.51349 0)
(3.85651 1.06193 -1.58859e-20)
(3.67658 1.23289 7.53791e-21)
(4.00169 0.88939 -9.61485e-22)
(3.54853 0.749393 0)
(3.68622 0.628767 1.50826e-20)
(5.27209 0.413471 7.77801e-20)
(5.04478 0.283745 -1.10487e-19)
(3.49529 -3.17904 -2.57404e-25)
(3.74576 -3.23831 7.43682e-25)
(4.09131 0.235031 -8.83862e-20)
(4.06587 0.284868 5.38964e-20)
(3.22969 -2.85378 -7.30677e-23)
(4.07839 -3.27064 0)
(2.92065 -2.16077 -1.3648e-22)
(4.61745 -3.0829 -1.26866e-22)
(2.66103 -1.18831 0)
(5.22886 -2.6118 0)
(2.53884 -0.0534019 6.58876e-22)
(5.80579 -1.80114 -1.79599e-21)
(2.64154 0.756004 0)
(6.18149 -0.857815 -1.75878e-20)
(3.04378 0.787985 -2.94166e-20)
(6.23096 -0.0205897 0)
(3.56908 0.942518 2.72215e-20)
(5.94012 0.485722 1.84137e-20)
(3.82997 0.721038 -3.3704e-20)
(3.70236 0.890222 2.97657e-20)
(5.48791 0.651825 -6.71565e-20)
(3.8747 0.639452 -9.86103e-21)
(3.98534 0.72682 -8.39435e-21)
(3.98157 0.795072 4.14096e-20)
(5.03289 0.9552 -3.45466e-20)
(5.04404 0.558487 1.00085e-21)
(4.88828 0.369916 2.52279e-19)
(3.58353 -3.24176 0)
(4.07236 -0.0157925 -8.30796e-21)
(3.97371 0.0748287 3.02428e-20)
(4.12087 -0.222759 0)
(4.02595 -0.106204 0)
(4.23431 -0.384016 0)
(4.13096 -0.280263 0)
(4.45088 -0.45425 0)
(4.31297 -0.403809 0)
(4.74208 -0.420702 5.69643e-23)
(4.58621 -0.430824 3.74277e-27)
(5.01316 -0.222852 -4.70575e-23)
(4.88719 -0.329587 1.05513e-25)
(5.11573 0.176952 -4.2657e-23)
(5.09349 -0.0267548 9.81779e-26)
(4.9853 0.595856 4.20634e-23)
(5.07996 0.420422 9.62133e-26)
(4.71272 0.739565 0)
(4.86744 0.727205 -3.23778e-27)
(4.41135 0.60745 5.28902e-23)
(4.57118 0.704917 3.08456e-27)
(4.15927 0.431767 0)
(4.2816 0.519662 3.6434e-27)
(3.9983 0.315971 -3.44974e-25)
(4.06931 0.369988 0)
(3.89105 0.193687 -1.43846e-22)
(3.93735 0.261581 0)
(3.81266 -0.00822798 -7.56984e-23)
(3.83944 0.101755 1.5003e-25)