/*--------------------------------*- C++ -*----------------------------------*\
  =========                 |
  \\      /  F ield         | OpenFOAM: The Open Source CFD Toolbox
   \\    /   O peration     | Website:  https://openfoam.org
    \\  /    A nd           | Version:  10
     \\/     M anipulation  |
\*---------------------------------------------------------------------------*/
FoamFile
{
    format      ascii;
    class       surfaceScalarField;
    location    "31.5";
    object      phi;
}
// * * * * * * * * * * * * * * * * * * * * * * * * * * * * * * * * * * * * * //

dimensions      [0 3 -1 0 0 0 0];

internalField   nonuniform List<scalar> 
81299
(
0.033425
0.0255642
-0.0396512
-0.0193381
0.0506049
-0.0299639
0.0127841
-0.0526954
-0.0240427
0.0203022
0.0564359
-0.00829904
0.028318
-0.0727144
0.0752108
-0.0785207
-0.00498909
0.0587152
-0.00754706
0.0834641
-0.00444675
-0.0438022
0.0350392
0.0651989
0.0431672
-0.0586514
-0.0562655
-0.0300655
0.00970661
0.0766244
0.00265092
-0.0355357
-0.0233807
0.0362317
-0.00706592
-0.0265149
-0.0174098
0.023576
-0.0420496
-0.00121998
0.0529762
-0.0189994
0.00855329
-0.0316035
-0.0289709
-0.127269
0.0299707
0.113321
-0.0160222
-0.00876586
0.0187251
-0.0206214
0.0211068
0.0245023
-0.0203057
-0.0253034
0.00247005
0.052047
-0.0334102
-0.0378895
-0.0323548
-0.0113728
0.00342081
0.015519
-0.00756695
-0.0172262
-0.00121254
-0.00139906
-0.0377104
-0.0783908
0.0253186
0.0830429
0.0345821
-0.047774
0.0791684
0.0128534
-0.0667032
0.0741995
-0.00518036
0.0101493
-0.0587447
0.0315655
0.0480345
-0.0208553
-0.0102511
-0.0909958
0.0425022
0.0722373
-0.00828883
-0.0131332
-0.0214765
-0.00223269
0.0232316
0.000477614
-0.0032443
-0.0181533
-7.89618e-05
0.0163015
-0.00617551
-0.0133702
0.00236263
0.0117061
0.0220196
-0.0219271
-0.00779407
0.00770154
3.18897e-05
0.0237914
-0.00180363
0.00279163
-0.0138347
-0.010884
-0.0184224
0.0197589
0.00145511
0.000625663
-0.0193247
0.000276701
0.00245485
-0.0156639
-0.017594
0.00916483
0.00134684
-0.019472
-0.00119962
0.00412601
-0.0184431
-0.0160467
0.00257878
-0.0359824
-0.0352904
0.0229284
0.0483443
-0.0317468
0.0191347
-0.0233702
0.0215095
-0.0442331
-0.00902321
-0.0373365
0.0235556
-0.0431526
0.0271831
0.0395562
-0.0235867
0.0229705
-0.0431946
0.0888773
0.0151493
-0.0540416
-0.049985
-0.00760663
0.0323085
0.0641754
-0.0621319
0.0550248
-0.000499563
0.00834721
-0.0553298
0.0192328
-0.0417089
0.0688662
-0.0708167
0.0928722
-0.0473339
0.0233279
0.0685594
0.0566213
-0.0447792
0.0378316
0.0396868
-0.0327393
0.0291051
-0.0467012
0.0505644
0.0243028
-0.0457621
0.0177795
0.0706166
0.000723167
-0.000364848
-0.000829943
0.000471624
-0.000988121
0.00171129
-0.00135297
-1.34395e-05
4.09289e-05
0.000310274
-0.000337763
-1.19381e-05
-1.50142e-06
2.89909e-05
3.6067e-05
0.000539776
0.000481308
-0.00105715
0.000303584
-0.000267517
0.000843361
0.0345378
0.00160051
-0.00645258
-0.0296857
0.02523
-0.0200778
0.0293856
-0.02486
-0.0122655
-0.010994
0.00482346
-0.00857568
-0.00463682
0.00838905
-0.0302863
0.0114504
0.0188678
-0.014376
-0.0110869
-0.0133408
0.0247912
0.00948326
-0.024798
0.0310812
-0.0157665
-0.0293178
-0.00543211
-0.000672288
-0.00213811
-0.0265074
-0.000756415
-0.0247138
-0.0211037
-0.0236295
0.0289576
0.0157757
-0.00728923
0.0184911
-0.0323055
0.00497994
-0.0358987
0.0676243
0.0434976
-0.0202465
-0.0908755
0.0192184
-0.120024
0.107752
-0.00694709
0.0943087
-0.00746596
0.00575736
-0.0639717
-0.0618093
0.0440491
-0.0821617
-0.00988938
0.048002
0.0157346
0.0235988
-0.0143056
-0.0189314
0.00963822
-0.0209344
0.0422007
0.0023324
-0.00974718
-0.0176398
-0.00339231
-0.0206605
-0.0225395
0.000215829
0.117958
0.00173834
-0.0476311
0.0455276
0.0716731
0.000757603
0.00103835
0.00152929
-0.000669998
-0.00189764
0.000467028
0.00260963
-0.00203832
-0.00316639
0.00382326
-0.00154892
0.00089205
-0.00294138
-0.000195189
-2.98153e-05
0.0282076
0.022636
-0.0311737
-0.0196699
0.0219523
0.0146477
0.00160526
-0.0123258
-0.00392721
0.00297073
0.00541304
0.00626394
-0.00391433
0.00106717
0.00186169
0.000985481
-0.00781979
0.00626809
-0.0146782
0.0374115
0.0227943
0.0133402
0.00675919
-0.00506779
-0.0150316
-0.0143794
-0.00196613
0.0173169
-0.00951359
0.0159881
0.0122575
0.0239271
-0.025504
-0.00435341
0.0298574
-0.0109655
-0.0145385
-0.0250552
0.0358172
-0.0217276
0.00487582
-0.012572
-0.017359
-0.0010181
-0.004238
0.0052561
-0.00644896
-0.00727459
0.0127055
-0.00966265
0.00201606
-0.00207597
-0.0183832
-0.015346
0.00131534
-0.0130052
-0.0125997
0.00217325
0.00661909
-0.00349478
-0.00312431
-0.00564638
0.0341021
0.00248583
0.00197812
0.0254823
-0.038072
0.00392026
0.0334449
0.000706822
-0.0280722
0.00275256
-0.0127523
0.0295636
0.0142167
-0.026268
-0.0175123
0.0241685
0.0271894
-0.0328669
0.01558
0.037546
0.0529951
0.0176919
-0.000318722
0.0384472
0.00174909
-0.0398776
0.043169
-0.0401633
-0.00332442
-0.000949661
0.000318205
0.0438005
-0.00607254
0.0435701
0.0360893
-0.0263694
-0.00791961
-0.00180022
0.0416832
-0.00384486
-0.000451243
-0.00727276
0.00777099
-4.69925e-05
-0.00207421
-0.00702201
0.00864498
0.00610248
-0.00167392
-0.00650276
-0.00335807
0.00261963
0.00121976
-0.000710771
-0.000550689
0.000204309
-0.00109812
0.0180257
-0.0190918
0.0277143
0.0555529
0.0422391
-0.00630612
-1.90785e-05
0.00135171
0.00249063
-0.000915586
0.000945935
-4.9428e-05
-0.00219308
-0.000271422
0.000155154
0.00214249
0.000122023
-0.00117709
-0.00188632
-0.00164934
-0.000421722
-0.00227288
-0.00055355
-0.00616436
0.00889108
-0.00174993
-0.000976783
-0.0120512
0.00772055
-0.00183368
-0.0132766
0.00197171
-0.00074634
-0.000447198
0.000954341
0.0184546
-0.000335882
-0.0304445
0.0225826
0.00128512
-0.0268883
-0.00159404
0.0510649
-0.0436781
0.0199474
0.0413107
0.000910958
-0.0333306
0.00686812
-0.00818866
-0.000273501
-0.000917402
0.00775938
2.61422e-05
0.0236326
-0.0074861
0.000582558
-0.0259093
-0.0135927
0.0181839
0.021318
-0.00378639
0.0269853
0.0197077
-0.00770858
-0.0389844
-0.0160288
0.00858664
0.0344275
0.0267133
-0.0230345
0.0039504
-0.000943266
-0.00211508
0.00663562
-0.00288041
-0.010581
0.00874044
-0.00543222
-0.0103957
-0.00720731
0.0704591
-0.00226489
-0.0524596
0.0307422
-0.00761698
0.0286719
0.0101755
-0.00421359
-0.0346338
-0.0170256
0.00196609
0.0437314
0.0265129
-0.033363
-0.0184185
-0.0164478
0.0229302
0.0119361
0.00402882
0.00193468
-0.024382
0.0154276
-0.0278466
0.0228971
-0.0425361
0.0183814
-0.0391625
0.00314166
0.00143653
0.0071529
-0.0117311
-0.00158795
0.00476217
-3.25638e-05
-0.00259292
0.000557774
-0.0050836
0.0489362
0.0146788
-0.0287093
-0.0349056
0.0124525
0.0761706
-0.0287469
0.000543199
0.0406562
-0.0257506
0.0116824
-0.00492914
2.84157e-05
0.00110786
0.00379286
-6.47013e-05
-0.00439741
0.00202984
-0.00209454
0.00205825
-0.0315849
0.0370387
-0.00348773
5.01713e-05
-0.0358487
-0.00362841
0.000760294
0.00127322
-0.0093686
-0.00289865
-0.00130008
-0.0118061
0.0382346
-0.00519959
-0.0477132
0.0182955
0.0238862
-0.0039471
0.0505985
0.0354594
0.0381232
-0.0222164
-0.0513662
0.0296974
0.0357955
-0.0300335
-0.025208
0.0263081
0.0285973
-0.0202048
0.0331199
0.0590352
0.0237157
-0.0110778
-0.00687259
0.0436914
0.0176957
-0.018096
0.022744
-0.0274608
0.0224125
-0.0201673
-0.00138059
0.00115318
-0.0199748
-0.00134574
-0.00317919
0.0403119
0.0134658
-0.0266782
0.0169531
0.00972518
0.0218341
0.0226569
-0.018183
0.00282386
-0.00697632
-0.0140008
-0.0447043
0.0154391
-0.00127719
0.0305423
-0.0394582
0.00419177
-0.00943789
0.0046273
-0.00177486
-0.00271987
-0.000132573
0.00394105
1.62508e-05
0.0408067
-0.0244493
0.011357
0.00900871
-0.00854069
-0.00558435
0.00511634
-0.00659673
0.00369676
0.0119087
-0.00903313
0.0229082
-0.0204718
-0.00256444
-0.0150094
-0.00830917
0.00296438
-0.000239559
0.00612622
-0.00618821
0.0034828
0.00423536
0.000279917
0.000438025
-0.000717942
0.000213205
6.67117e-05
0.0183676
0.0134149
-0.0085435
-0.023239
0.017906
-0.0282477
-0.0214213
0.0135767
-0.0107892
0.00278281
0.0363786
-0.00768529
-0.0341254
-0.00530949
0.0326649
-0.0338739
0.00405945
0.024505
-0.0123265
-0.0292327
0.0186229
0.0346563
-0.0120383
-0.0412409
0.0271103
-0.0413375
0.0328501
-0.0179307
0.00428133
0.0407597
0.0431609
-0.0264353
0.00124074
-0.0215239
0.000544464
0.0197387
-0.0170705
-0.00805821
-0.0231553
-0.0090203
-0.00185332
0.000604834
-0.00203364
-0.00759149
0.00141618
-0.00266466
0.000761667
0.00100756
-0.000702054
1.01418e-05
0.000751525
0.0010177
0.00182878
0.000156342
0.00277705
-0.001022
0.00285077
-0.000865654
-0.0150649
-0.0101571
0.0160407
0.0091813
0.00354557
0.00542034
-0.0240308
0.0181727
-0.0247842
-0.000845062
-0.0136652
0.009385
0.00512527
0.0188369
-0.0345504
0.0422264
-0.0421222
0.00588243
0.0518981
-0.0156583
-0.0330437
0.000768481
0.0326048
-0.000329494
0.00163778
0.033808
-0.0331727
-0.00227308
0.00126108
0.0351043
-0.0347276
0.0016516
0.0350882
-0.0354787
0.00153397
0.0353502
-0.0352326
0.000367243
0.0350829
-0.0339162
0.00245647
0.0343102
-0.0363994
0.004696
0.0333026
-0.0355421
0.00463575
0.0345246
-0.0344644
0.00599407
0.0330152
-0.0343735
0.00592714
0.0340773
-0.0340104
0.00710898
0.0327718
-0.0339536
0.0070437
0.0336926
-0.0336273
0.00806658
0.0325767
-0.0335996
0.00800459
0.0333667
-0.0333047
0.00888566
0.032422
-0.033303
0.00882815
0.0330935
-0.033036
0.0107846
0.0311009
-0.0330573
0.0101298
0.0334734
-0.0328187
0.0101817
0.0328112
-0.0328631
0.0101355
0.0326893
-0.0326431
0.0106915
0.0321534
-0.0327094
0.0106522
0.032552
-0.0325126
0.0111301
0.0321211
-0.0325991
0.0110976
0.0324552
-0.0324226
0.0115107
0.0321158
-0.0325289
0.0114854
0.0323979
-0.0323726
0.0118456
0.0321386
-0.0324988
0.011828
0.0323802
-0.0323626
0.0121461
0.0321915
-0.0325096
0.0121369
0.0324035
-0.0323944
0.0124226
0.0322778
-0.0325635
0.0124228
0.0324706
-0.0324708
0.0126823
0.0324033
-0.0326628
0.00937011
0.0359074
-0.0325952
0.0109129
0.031271
-0.0328137
0.0208253
0.0270098
-0.0369221
-0.0127474
0.00373016
0.0298426
-0.0379423
0.0291151
-0.0362496
-0.0032339
0.00408631
0.0353972
-0.00311278
0.000882169
-0.034019
-0.00449993
0.0361205
-0.0347333
0.036351
-0.00588208
-0.0349689
0.00408405
-0.00483238
0.0370994
0.0369707
-0.00501444
0.00236715
0.0364553
0.0352329
-0.0361611
-0.00193471
0.00126288
0.03576
0.0355367
-0.000798986
0.000722678
0.0351592
0.0358141
-0.000852862
0.000945276
0.0332102
0.03418
-0.00081948
0.00070123
0.0331334
0.0346504
-0.000583996
0.000475056
0.0328807
0.0341945
-0.000369156
0.000270837
0.032675
0.0337985
-0.000175466
8.61433e-05
0.0325113
0.033462
-0.000569037
-0.0012815
0.0329514
0.0326106
0.000756608
-0.000234967
0.0322895
0.0329486
0.000308254
-0.000378041
0.0322232
0.0327626
0.000445966
-0.000511168
0.0321863
0.0326199
0.000574963
-0.000636627
0.0321775
0.032519
0.000697148
-0.000755986
0.0321975
0.0324584
0.00081392
-0.000870549
0.0322481
0.0324381
0.000926496
-0.000981409
0.0323327
0.0324594
0.00103568
-0.000865683
0.0322333
0.0325248
-0.00284037
0.00151282
0.0325985
0.0322013
0.0322528
0.00266728
0.00143998
-0.0372799
-0.0348847
0.0384341
-0.00225474
0.00192468
-0.0351487
-0.0355424
-0.00150941
0.00322454
-0.0356313
-0.0348173
-0.00309246
0.00184214
-0.0342918
-0.0362674
-0.000947116
0.000809656
-0.034236
-0.0335694
-0.000678937
0.000558545
-0.0338332
-0.0338796
-0.000442845
0.000335564
-0.0334923
-0.0335116
-0.000232436
0.000135996
-0.0332066
-0.0332016
-4.32165e-05
-4.34251e-05
-0.0329707
-0.0329433
0.000129418
-0.000209924
-0.0327826
-0.0327327
0.000286515
-0.000360457
-0.0326355
-0.0325665
0.000432339
-0.000501839
-0.0325296
-0.0324407
0.000569322
-0.000635034
-0.0324632
-0.0323552
0.000699026
-0.000761781
-0.0324361
-0.0323086
0.000823077
-0.000883592
-0.0324491
-0.0323013
0.000942848
-0.00100155
-0.0325048
-0.0323351
0.00105857
-0.00111311
-0.0326083
-0.0324137
0.00116592
0.0001674
-0.034147
-0.0325424
0.00291575
-0.0080561
-0.0328019
-0.033839
-0.00590559
-0.0372673
0.0383405
-0.0382978
-0.00634493
0.0387372
0.00680164
-0.0080695
-0.03703
-0.0363477
-0.0386257
-0.00988231
0.0421631
-0.0376063
-0.00908893
-0.0121638
-0.039056
-0.00342218
0.00209288
0.0311719
-0.00479588
0.0304888
-0.00139682
-0.0347315
0.00371527
-0.00516173
-0.0332869
0.00311349
-0.0334172
-0.00564205
-0.0344886
-0.00776882
0.00647761
-0.0357388
-0.0363601
-0.00901501
-0.04804
-0.00609192
0.0420936
-0.00927812
-0.0441266
-0.00153379
0.0386652
-0.00343897
0.00379946
0.0383767
0.0371903
-0.00366841
0.00293888
0.0378289
0.0384716
-0.00280839
0.00125686
0.0369488
0.0371011
-0.00084156
0.000935659
0.0363612
0.0356482
-0.000957378
0.00131441
0.035403
0.035515
-0.00116086
0.00132581
0.0349943
0.0359676
-0.00166249
0.000812875
0.0340598
0.0338433
-0.000687185
0.000572552
0.0332481
0.0347761
-0.000464504
0.000361812
0.0329834
0.0343026
-0.000264461
0.000171596
0.0327679
0.0338959
-8.35594e-05
-5.91387e-07
0.0325955
0.0335501
0.000312129
-0.000158247
0.0327975
0.0329222
0.000231184
-0.000301431
0.0323598
0.0330215
0.000369436
-0.000435539
0.0322893
0.0328306
0.00049903
-0.000560901
0.0322482
0.0326834
0.000620672
-0.000679199
0.032236
0.0325788
0.000736049
-0.000791933
0.0322533
0.0325152
0.000846493
-0.000900317
0.032302
0.0324927
0.000953139
-0.00100536
0.0323849
0.0325123
0.00105651
-0.0013296
0.0325064
0.032576
0.00120919
-0.00145813
0.0328474
0.0320809
0.0328875
-0.00336529
0.0320143
-0.0342818
-0.00455504
0.03744
-0.0341823
0.0362276
-0.00133856
-0.00674204
-0.0246876
-0.00287997
0.00181311
-0.0362131
-0.0346512
-0.00173019
0.00171646
-0.0351349
-0.0354595
-0.0024359
0.00215196
-0.0353474
-0.0355367
-0.000653096
0.000515021
-0.0341537
-0.0347685
-0.00110124
0.000956391
-0.0340912
-0.0341556
-0.000822904
0.000695688
-0.033706
-0.0337462
-0.000576939
0.000463152
-0.0333785
-0.0333929
-0.00035659
0.00025409
-0.0331041
-0.033095
-0.000157747
6.5141e-05
-0.0328781
-0.0328469
2.2611e-05
-0.000108416
-0.0326968
-0.0326449
0.000189693
-0.000268683
-0.0325565
-0.0324852
0.00034393
-0.00041769
-0.0324559
-0.0323655
0.000488318
-0.000557906
-0.0323936
-0.0322845
0.000624864
-0.000691163
-0.0323698
-0.0322416
0.000755251
-0.000819006
-0.0323853
-0.0322373
0.000880913
-0.00094293
-0.0324427
-0.0322732
0.00100421
-0.00106706
-0.0325454
-0.0323525
0.00112832
-0.00197108
-0.0333043
-0.0324811
0.00297836
-0.00188458
-0.0338957
-0.0328317
0.00287395
-0.0341344
-0.00302134
-0.0337421
-0.0355122
0.00418245
-0.0045966
-0.0328727
0.00331865
-0.0325535
-0.00542945
-0.0336557
-0.00577671
0.00543652
-0.0353986
-0.00562028
-0.0365165
-0.00283915
0.00260867
-0.0339039
-0.0338003
0.034798
-0.00401911
-0.00256911
-0.0340703
-0.0115676
-0.0457505
-0.0394799
-0.00866505
9.95571e-05
0.0327628
-0.0394135
-0.00908132
-0.0327087
-0.000235471
-0.00680354
0.00712959
0.0428349
-0.0465675
-0.0016466
0.0463609
-0.0444881
0.00400963
-0.00262241
0.0426075
0.00637583
0.0424721
-0.00603316
0.004911
0.0397874
0.0418561
-0.00290549
0.00244725
0.0388349
0.0391958
-0.00268105
0.0032347
0.0372752
0.0382378
-0.00164187
0.00266647
0.0359242
0.038694
-0.000598767
0.00175348
0.0352065
0.0377159
-0.000403606
0.00119141
0.0346152
0.0368649
-0.0010432
0.0019224
0.0341151
0.0361158
-0.000303461
0.000663291
0.0337
0.0354623
-0.000548607
0.000439798
0.0333569
0.0348908
-0.000340024
0.000243639
0.0330798
0.0344023
-0.000154595
6.77649e-05
0.0328547
0.0339849
1.26807e-05
-9.12205e-05
0.032674
0.0336305
0.000502121
-0.000236978
0.0325324
0.0333331
0.000304662
-0.000371167
0.0324263
0.0330892
0.00043377
-0.00049575
0.0323513
0.0328932
0.000554532
-0.000612788
0.0323065
0.0327422
0.000668385
-0.000723602
0.0322913
0.0326344
0.00077667
-0.000829487
0.0323062
0.0325683
0.000880598
-0.000931553
0.0323529
0.0325438
0.000981196
-0.00103083
0.0324345
0.0325619
0.00107974
-0.00112859
0.0325553
0.0326249
0.00154932
-0.00166267
0.0329608
0.0325016
0.00134337
-0.00246761
0.0322961
0.0325682
0.00320755
-0.00285733
0.0316641
0.0312287
0.0306739
0.0315281
-0.0338937
-0.00437642
-0.00251919
-0.0036507
-0.00280155
0.00219139
-0.0356029
-0.0341341
-0.00232267
0.00249572
-0.035308
-0.0355907
-0.00194878
0.00144548
-0.0348441
-0.0349898
-0.00113868
0.001348
-0.034363
-0.0344617
-0.00119026
0.00103769
-0.0339386
-0.0339978
-0.00089675
0.000762981
-0.0335723
-0.0336052
-0.000638676
0.000519559
-0.0332594
-0.0332686
-0.000408379
0.000301313
-0.032997
-0.0329838
-0.000201084
0.00010401
-0.032781
-0.0327467
-1.2591e-05
-7.64063e-05
-0.0326078
-0.0325535
0.000160316
-0.000242456
-0.0324743
-0.0324013
0.00032035
-0.000397152
-0.0323791
-0.0322876
0.000470292
-0.000542815
-0.0323211
-0.0322114
0.000612176
-0.000681355
-0.0323006
-0.0321723
0.000747805
-0.000814436
-0.0323187
-0.0321708
0.000878678
-0.000943346
-0.0323781
-0.032209
0.00100557
-0.00106757
-0.0324834
-0.0322902
0.00112788
-0.00178982
-0.0326423
-0.0324208
0.0018343
-0.00229705
-0.033433
-0.0327872
-0.0334305
-0.0355051
-0.00693027
-0.0381036
0.00417497
-0.00427846
-0.0327692
0.00435037
-0.0327289
-0.0347821
0.033703
-0.00293997
-0.0345389
-0.00281233
-0.00386783
-0.0340664
-0.0521448
-0.00599029
0.00463412
0.00232782
0.0256428
-0.0302991
0.0202764
0.0146568
0.00114778
-0.0472825
-0.0119344
-0.0408573
-0.0415448
-0.0161401
-0.0032044
0.00314569
0.0426662
-0.0395193
-0.00738249
0.0436973
0.0148794
-0.0480229
-0.0394155
-0.0105231
-0.00704415
-0.0393016
-0.00304848
0.00406591
0.0418175
0.0425693
-0.00486403
0.00410172
0.0405497
0.041058
-0.00267572
0.00347074
0.0380399
0.0406218
-0.00169515
0.0019807
0.0369897
0.0400134
-0.00178876
0.00160019
0.0361127
0.0388859
-0.00143072
0.00126189
0.0353753
0.0378854
-0.00111727
0.000976586
0.0347559
0.0370095
-0.000850685
0.000724411
0.0342413
0.0362417
-0.000613111
0.000499694
0.0338134
0.0355736
-0.000400663
0.000299416
0.0334581
0.0349898
-0.000210988
0.000120554
0.0331702
0.0344908
-4.12328e-05
-3.98878e-05
0.0329358
0.0340642
0.000111617
-0.000185464
0.0327478
0.0337023
0.00025156
-0.000319149
0.0326
0.0333992
0.000379829
-0.000442325
0.0324888
0.0331499
0.000499105
-0.000557366
0.0324095
0.0329499
0.000610901
-0.000665727
0.0323613
0.0327957
0.000716682
-0.000768739
0.0323433
0.0326853
0.000817667
-0.00086754
0.032356
0.0326172
0.000914931
-0.000963142
0.0324011
0.0325912
0.00100944
-0.00105653
0.0324816
0.0326082
0.00110229
-0.00114882
0.0326018
0.0326707
0.0014298
-0.00124087
0.0327719
0.0327826
0.00162901
-0.00172259
0.0323897
0.0329563
0.00289698
-0.00235346
0.0311206
0.0324031
0.0306483
0.0318972
-0.0317127
-0.000419916
0.00126855
0.0319244
-0.0331527
-0.00314803
-0.00230758
-0.00310046
-0.00358031
0.00271261
-0.0347352
-0.033364
-0.00246528
0.00223598
-0.0350787
-0.0353434
-0.00202234
0.00181777
-0.0346395
-0.0347762
-0.00163012
0.00145522
-0.0341881
-0.034274
-0.00129392
0.00113896
-0.0337837
-0.0338365
-0.000995159
0.000856619
-0.0334337
-0.0334614
-0.000728583
0.000604786
-0.0331356
-0.0331405
-0.000490131
0.000378672
-0.0328856
-0.0328692
-0.000275219
0.000174019
-0.0326798
-0.0326432
-7.9834e-05
-1.3002e-05
-0.0325149
-0.0324593
9.97198e-05
-0.000185624
-0.0323884
-0.0323146
0.000266066
-0.000346328
-0.0322988
-0.0322071
0.000421785
-0.000497594
-0.0322453
-0.0321359
0.000569133
-0.000641478
-0.0322282
-0.0321007
0.000710014
-0.000779764
-0.0322489
-0.0321023
0.000846141
-0.000914189
-0.03231
-0.0321426
0.000979348
-0.00104664
-0.0324161
-0.0322251
0.00111149
-0.00117916
-0.0325747
-0.0323559
0.0014239
-0.00206308
-0.0327938
-0.0325425
0.00203732
-0.00240041
-0.0335408
-0.0334563
0.0420775
0.0286667
-0.0558647
-0.0103221
0.0450171
-0.0390516
-0.0130164
0.00241764
-0.0464309
0.00236879
-0.0342359
-0.00267184
-0.0341019
0.00480911
-0.00555273
-0.034655
-0.0345638
0.00498952
-0.00569719
-0.0373959
-0.0370797
-0.0406164
-0.00547929
0.0420288
-0.0236842
1.30262e-05
-0.0534601
0.000818235
-0.0461013
0.00856952
-0.00932028
0.0427796
0.00700175
0.0465849
-0.00282839
0.00320138
-0.0331019
-0.0018769
-0.0337207
-0.0520542
-0.0162307
0.0411362
-0.0613661
-0.00345435
-0.00902746
0.0408434
-0.00660897
-0.0383898
-0.00263042
0.00238907
-0.0339945
-0.0346211
0.0348416
-0.00289231
-0.00246338
-0.0347881
-0.0537944
-0.00755867
-4.33084e-05
-0.0532294
-0.0112045
-0.0414374
-0.00491076
0.003806
0.0437709
0.0457883
-0.00399817
0.00400136
0.0418143
0.0423771
-0.00217417
0.00317496
0.0395489
0.0428852
-0.0022749
0.00204348
0.0382713
0.0415219
-0.00185121
0.00164462
0.0371963
0.0402056
-0.00148497
0.0013061
0.0362916
0.0390456
-0.00116783
0.00101118
0.0355319
0.0380237
-0.000891334
0.0007539
0.0348933
0.0371294
-0.000650494
0.000529907
0.0343619
0.0363452
-0.000437853
0.000330344
0.0339209
0.0356656
-0.00024807
0.000152218
0.033554
0.0350721
-7.8519e-05
-7.18157e-06
0.0332559
0.0345645
7.37324e-05
-0.0001511
0.0330132
0.0341308
0.000212062
-0.000282345
0.0328181
0.0337632
0.000338691
-0.000403118
0.0326644
0.0334555
0.00045571
-0.000515063
0.0325481
0.0332024
0.000564746
-0.00062011
0.0324649
0.0329996
0.00066746
-0.000719521
0.0324134
0.0328431
0.000765051
-0.00081447
0.0323927
0.0327308
0.000858625
-0.000905974
0.0324034
0.0326614
0.000949145
-0.000994938
0.0324469
0.0326344
0.00103749
-0.00108221
0.0325264
0.0326508
0.00112455
-0.0011688
0.0326461
0.032713
0.00121156
-0.00125525
0.0328156
0.0328254
0.00129753
-0.00158433
0.0326765
0.0329986
0.00213714
-0.0032692
0.0322526
0.0329559
0.00671705
0.0392022
0.0340961
0.032612
-0.0322553
-0.000776682
-0.0314097
0.0408454
0.00522114
0.00247085
0.0326627
-0.033734
-0.00207677
-0.00190011
0.0345685
-0.0349343
-0.00257416
-0.00226594
-0.00290508
-0.00346768
0.00284165
-0.0341092
-0.0336303
-0.00258864
0.00235272
-0.0348428
-0.0350904
-0.00213194
0.00192068
-0.0344282
-0.0345554
-0.00172908
0.00154544
-0.0340045
-0.0340824
-0.00137838
0.00121608
-0.0336214
-0.0336695
-0.00106835
0.000924277
-0.0332896
-0.0333137
-0.000793242
0.000664582
-0.0330069
-0.0330095
-0.000547446
0.000431561
-0.0327697
-0.032752
-0.000325967
0.00022065
-0.0325745
-0.0325376
-0.000124562
2.79327e-05
-0.0324183
-0.0323632
6.03193e-05
-0.00014982
-0.0322989
-0.0322263
0.000231712
-0.00031549
-0.032215
-0.0321253
0.000392318
-0.000471581
-0.0321661
-0.0320591
0.00054445
-0.000620235
-0.0321525
-0.0320278
0.000690103
-0.000763307
-0.0321757
-0.0320324
0.000830988
-0.00090233
-0.0322387
-0.0320749
0.000968406
-0.00103851
-0.032346
-0.032159
0.00110401
-0.00117403
-0.0325047
-0.0322904
0.00123915
-0.00130908
-0.0327239
-0.0324774
0.00203534
-0.00190732
-0.0336688
-0.03273
-0.0336202
-0.00296902
-0.0329742
0.00402204
-0.00436705
-0.0343099
-0.0335108
0.00517419
-0.00619974
-0.0363703
-0.0362726
-0.0244044
-0.0406662
0.0035048
-0.00682584
0.0461006
0.00424394
0.0458457
-0.0375433
0.0371025
-0.0487062
-0.000893224
0.00324546
0.03685
0.00278065
0.0371715
-0.0380029
-0.00922245
-0.00817469
-0.0364149
-0.0351174
0.0352251
-0.00299999
-0.0348118
-0.002769
-0.0264118
-0.0385871
0.0137641
-0.0599087
-0.00980449
0.0438221
-0.0511465
-0.0183137
-0.0338017
0.0164456
-0.0287893
0.0461454
0.00231398
-0.0028576
-0.0331771
0.00275
-0.0335379
-0.00455439
0.00408581
0.0442395
0.0454779
-0.00302445
0.00243657
0.0424022
0.0434385
-0.00225465
0.00201124
0.0397923
0.0430671
-0.00186004
0.00163565
0.0384957
0.0416731
-0.00149738
0.00129657
0.0373971
0.0403439
-0.00117808
0.00100195
0.0364677
0.039164
-0.000901287
0.00074717
0.0356861
0.0381243
-0.000660982
0.000524409
0.0350299
0.0372156
-0.000449223
0.00032872
0.0344824
0.0364203
-0.000262602
0.000155479
0.034028
0.0357318
-9.56948e-05
2.74155e-07
0.0336494
0.0351319
5.35646e-05
-0.000138943
0.0333413
0.0346183
0.000188638
-0.000265536
0.0330901
0.0341805
0.000311938
-0.0003816
0.0328878
0.0338096
0.000425435
-0.000489016
0.032728
0.0334994
0.000530924
-0.000589307
0.0326065
0.0332444
0.000629771
-0.000683972
0.0325191
0.0330401
0.000723417
-0.000774155
0.0324641
0.0328825
0.000812874
-0.000860825
0.0324407
0.0327696
0.000899092
-0.000944854
0.0324491
0.0326997
0.000982912
-0.00102702
0.032491
0.0326724
0.0010651
-0.00110805
0.0325693
0.0326888
0.00114641
-0.00118879
0.0326884
0.0327514
0.00122792
-0.00126986
0.0328575
0.0328645
0.00130923
-0.00171321
0.0330805
0.033038
0.0020315
-0.00302727
0.0332484
0.0332742
0.0343143
0.0331619
-0.0331971
-0.000741445
-0.0346105
0.0374574
0.00237426
0.00102223
0.0334867
-0.0339333
-0.00163012
-0.00161059
0.0345589
-0.0350705
-0.00206258
-0.00164031
-0.00275054
-0.00283095
0.00296551
-0.0342437
-0.0337113
-0.00269819
0.00245229
-0.0345969
-0.0348231
-0.00222747
0.00201071
-0.0342115
-0.0343306
-0.00181704
0.00162679
-0.0338142
-0.0338888
-0.00145818
0.00129046
-0.0334536
-0.0335009
-0.0011419
0.000992508
-0.0331402
-0.0331651
-0.000860571
0.000726707
-0.032873
-0.0328776
-0.000608811
0.000487945
-0.0326488
-0.0326341
-0.000381757
0.000271669
-0.0324644
-0.0324314
-0.00017517
7.39471e-05
-0.0323171
-0.0322667
1.4623e-05
-0.000108623
-0.0322049
-0.0321378
0.000190741
-0.000278912
-0.0321268
-0.0320431
0.000355886
-0.000439483
-0.0320825
-0.0319821
0.000512468
-0.000592578
-0.0320723
-0.0319549
0.000662577
-0.000740159
-0.0320981
-0.0319624
0.00080808
-0.000884025
-0.0321627
-0.032007
0.000950733
-0.00102593
-0.0322708
-0.0320923
0.00109225
-0.00116744
-0.0324295
-0.0322241
0.00123391
-0.00130905
-0.0326487
-0.0324109
0.00137543
-0.00210527
-0.032939
-0.0326636
0.0020024
-0.00221816
-0.0337788
-0.0337231
-0.0571665
0.000901652
0.00282232
0.0374157
-0.0376125
-0.00856509
-0.0023707
-0.0406535
0.00239945
-0.034523
-0.00268826
-0.0346068
-0.0540852
0.0121602
-0.0108766
0.0331439
0.00743081
-0.00866269
-0.035183
-0.00265131
-0.0331805
-0.0032523
-0.0329098
-0.00396219
-0.0336001
-0.00581161
-0.0344232
-0.0347511
-0.0591053
-0.0697535
-0.0260001
0.0160863
-0.00468806
0.00361286
0.0469209
-0.00440024
0.0458128
-0.00272202
0.00243931
-0.0332552
-0.00264813
-0.033251
0.0368311
-0.0356669
0.00121004
0.03808
0.00157341
-0.0348782
-0.0113971
0.0257505
-0.00991378
0.0135761
-0.0447361
-0.00231663
0.00244156
-0.0346479
-0.0351117
0.0351534
-0.00272997
-0.0346711
-0.00275717
-0.00251692
0.00238501
0.0443714
0.0465738
-0.00217591
0.00146935
0.0431087
0.0436476
-0.00241094
0.00154011
0.0406632
0.0421255
-0.0014557
0.00121643
0.038735
0.0417575
-0.00114746
0.000933433
0.0376111
0.0404129
-0.000877682
0.000686885
0.0366585
0.0392198
-0.000641783
0.000472927
0.0358549
0.0381694
-0.00043644
0.00028646
0.0351799
0.037252
-0.000254987
0.000121785
0.0346156
0.0364518
-9.40754e-05
-2.39337e-05
0.034146
0.0357595
4.99388e-05
-0.000155287
0.0337548
0.0351579
0.000180182
-0.000273996
0.0334351
0.0346432
0.000298625
-0.000382558
0.033174
0.0342051
0.000407486
-0.000482884
0.0329632
0.0338345
0.000508431
-0.000576542
0.0327961
0.0335249
0.000602899
-0.000664768
0.0326684
0.0332707
0.000692041
-0.000748756
0.0325758
0.0330674
0.000777035
-0.000829465
0.0325165
0.0329108
0.000858738
-0.000907674
0.0324896
0.0327988
0.00093794
-0.00098409
0.0324953
0.0327299
0.00101535
-0.00105936
0.032535
0.0327037
0.00109163
-0.00113407
0.0326117
0.0327211
0.00116744
-0.00120897
0.03273
0.0327847
0.00124377
-0.00128463
0.0328984
0.0328993
0.0013204
-0.00136197
0.033122
0.0330737
0.00139904
-0.00155909
0.0334085
0.0333113
0.00126475
0.000211838
0.0353734
0.03402
-0.00228732
0.00254995
0.0371531
0.0350961
0.0345486
-0.0340619
-0.00122817
-9.6054e-05
0.0340506
-0.0340351
-0.00164571
-0.00162181
0.0340137
-0.0343891
-0.0016872
-0.00166165
0.0347863
-0.0351958
-0.00259053
-0.0023533
-0.00281142
-0.00316113
0.00306403
-0.0341466
-0.0344331
-0.002787
0.00253498
-0.0343448
-0.034546
-0.00230868
0.00208415
-0.0339869
-0.0341043
-0.00189106
0.00169281
-0.033616
-0.0336957
-0.00152514
0.00134954
-0.033278
-0.0333332
-0.00120235
0.00104576
-0.0329837
-0.0330179
-0.000915576
0.00077491
-0.0327324
-0.0327474
-0.00065894
0.000531516
-0.0325214
-0.0325182
-0.00042738
0.000310908
-0.0323479
-0.0323273
-0.000216553
0.000109078
-0.0322096
-0.0321724
-2.27404e-05
-7.74163e-05
-0.0321048
-0.0320514
0.000157273
-0.000251577
-0.0320325
-0.0319633
0.000326294
-0.000416036
-0.0319927
-0.0319074
0.0004868
-0.000573105
-0.031986
-0.0318841
0.00064095
-0.00072481
-0.0320143
-0.0318946
0.000790638
-0.000872913
-0.0320805
-0.0319412
0.00093752
-0.00101903
-0.0321893
-0.0320277
0.00108323
-0.00116473
-0.032348
-0.0321599
0.00122909
-0.00131117
-0.0325666
-0.0323465
0.00137592
-0.00145853
-0.0328564
-0.0325989
0.00180448
-0.00213263
-0.0334506
-0.0333771
-0.0342979
0.0252627
-0.0633454
0.0436136
-0.00304814
-0.0327805
-0.00343133
-0.0325266
-0.00438698
-0.0326444
-0.00569384
-0.0331163
-0.00678711
-0.0336579
-0.0087632
-0.0332069
0.00319892
0.037431
0.00437643
0.03796
-0.00787299
0.031579
-0.0328102
-0.0108312
0.00473893
-0.00702416
-0.0313726
0.00416423
-0.0325416
-0.0387167
-0.0105018
-0.00691274
0.0247903
0.0223437
-0.0201155
0.0193567
-0.00692676
-0.00293244
0.00241679
-0.0341322
-0.0023692
-0.0352344
-0.0353032
0.0354855
-0.00291223
-0.0352937
-0.00276674
-0.00300025
0.00238356
0.0475376
0.0471889
-0.00213935
0.00177089
0.0447399
0.046818
-0.00167098
0.00182356
0.0429561
0.0437475
-0.00181573
0.00105795
0.0414209
0.0421333
-0.00108526
0.000787945
0.0390323
0.0417302
-0.000826959
0.00055884
0.0378792
0.0403738
-0.000603398
0.000361812
0.0369001
0.0391752
-0.000407276
0.00019074
0.0360714
0.038124
-0.000235119
4.16965e-05
0.0353733
0.0372077
-8.19495e-05
-9.00955e-05
0.0347877
0.0364116
5.44968e-05
-0.000207414
0.0342989
0.0357239
0.000178344
-0.000314192
0.0338906
0.0351288
0.000291468
-0.000411612
0.0335553
0.0346205
0.000395308
-0.000501619
0.0332803
0.0341888
0.000491608
-0.000585758
0.0330573
0.0338245
0.000581678
-0.000665277
0.0328797
0.0335208
0.000666652
-0.000741115
0.0327429
0.0332721
0.00074742
-0.000814181
0.0326426
0.0330737
0.00082493
-0.000885218
0.0325768
0.0329215
0.000899889
-0.000954817
0.0325445
0.0328135
0.000972943
-0.00102351
0.0325459
0.0327481
0.00104469
-0.0010918
0.0325821
0.0327249
0.00111569
-0.00116016
0.0326562
0.032745
0.00118654
-0.00122919
0.0327726
0.0328111
0.00125807
-0.00129934
0.0329396
0.0329282
0.00133007
-0.0013708
0.0331628
0.0331045
0.00140284
-0.00144056
0.0334462
0.0333433
0.00105692
0.00025256
0.0340639
0.0336363
-7.91027e-05
0.00227017
0.034962
0.0352695
0.0374653
-0.0361812
0.00191481
-0.0029794
0.0036581
0.0367866
0.0367218
0.0366038
-0.0350318
-0.000361975
0.00199606
0.0343071
-0.0339568
-0.00157841
-0.000820817
0.0339783