/*--------------------------------*- C++ -*----------------------------------*\
  =========                 |
  \\      /  F ield         | OpenFOAM: The Open Source CFD Toolbox
   \\    /   O peration     | Website:  https://openfoam.org
    \\  /    A nd           | Version:  10
     \\/     M anipulation  |
\*---------------------------------------------------------------------------*/
FoamFile
{
    format      ascii;
    class       volVectorField;
    location    "10.5";
    object      U;
}
// * * * * * * * * * * * * * * * * * * * * * * * * * * * * * * * * * * * * * //

dimensions      [0 1 -1 0 0 0 0];

internalField   nonuniform List<vector> 
6397
(
(1.03578 -0.186699 1.05846e-20)
(1.03773 -0.201701 -4.94836e-20)
(1.10928 0.0196742 0)
(1.1071 0.0149069 -3.05101e-23)
(1.11503 0.0151492 2.83293e-22)
(1.1176 0.0202066 5.64615e-22)
(0.761744 -0.478947 -4.94029e-20)
(0.460328 -0.681322 1.09478e-19)
(-0.0912779 0.0459625 1.33589e-20)
(-0.111315 -0.0137017 -4.9489e-21)
(0.499203 0.713157 6.53966e-20)
(0.800172 0.723468 -8.07643e-21)
(0.586884 0.0316561 -1.32356e-21)
(0.657201 0.0167666 -6.3465e-22)
(0.424771 0.0304346 2.34277e-21)
(-0.0306801 0.0547353 -9.8693e-20)
(0.115367 0.0696868 -5.76579e-20)
(-0.0853168 0.0827544 4.7138e-20)
(0.324428 0.019208 5.46842e-20)
(0.438846 -0.156158 -1.66822e-19)
(0.540483 -0.012048 -8.67363e-20)
(0.113392 -0.0299057 -6.81292e-20)
(-0.0540078 -0.0226804 2.96577e-21)
(0.306988 -0.0206648 -4.5218e-20)
(0.794904 0.0181689 0)
(0.799605 0.013913 4.98271e-22)
(0.90608 0.0185511 1.24592e-22)
(1.03032 0.0402183 -2.04688e-21)
(1.02046 0.0327446 4.87079e-22)
(1.08571 0.0584028 -9.90835e-22)
(1.07935 0.0555506 1.39701e-21)
(1.09508 0.00227052 7.01757e-22)
(1.09616 0.00618641 5.20474e-22)
(1.10511 0.0102495 -1.90458e-21)
(1.0814 -0.00817797 1.74818e-22)
(1.08158 -0.00585796 0)
(1.08708 -0.00394126 -2.17184e-22)
(1.08782 -0.000709548 -4.54797e-22)
(1.07493 -0.010656 3.22524e-22)
(1.07544 -0.0115497 -1.48859e-22)
(1.07778 -0.010497 0)
(1.07734 -0.00899117 0)
(1.08965 0.0594712 4.50068e-22)
(1.14248 0.0385988 6.63408e-22)
(1.146 0.0434426 -7.19793e-22)
(1.1201 0.0251352 1.30062e-21)
(1.12863 0.026361 6.44935e-22)
(1.13164 0.0315422 -1.96873e-21)
(1.07414 -0.0117239 2.37553e-22)
(1.07319 -0.011301 -3.68846e-23)
(1.07312 -0.0107788 3.78371e-22)
(1.07226 -0.0104161 -1.22349e-22)
(1.07243 -0.01067 -1.023e-21)
(0.977155 0.205064 -7.82764e-21)
(1.03111 0.240599 5.17968e-21)
(1.03288 0.049379 3.63444e-21)
(1.03847 0.0626519 3.70684e-21)
(1.16278 -0.0712238 -1.51829e-23)
(0.923551 -0.0653758 1.62245e-21)
(0.938779 -0.045807 -1.62104e-21)
(0.910524 -0.0840418 -1.85892e-21)
(0.899166 -0.101142 1.83049e-21)
(0.889706 -0.116103 2.23425e-21)
(0.879629 -0.128604 -2.19606e-21)
(0.868905 -0.138389 0)
(0.854322 -0.144786 -2.63212e-21)
(0.835917 -0.147118 2.76372e-21)
(0.810952 -0.144162 0)
(0.952595 -0.0571702 1.50749e-21)
(0.956406 -0.0258604 -6.49095e-24)
(0.957702 -0.0398509 -1.43689e-21)
(0.950613 -0.0741834 0)
(0.950764 -0.0905063 0)
(0.952163 -0.105943 0)
(0.953223 -0.120547 8.59047e-24)
(0.952964 -0.134458 -1.12582e-24)
(0.949647 -0.147365 0)
(0.942078 -0.158708 3.03783e-25)
(0.928658 -0.167141 0)
(0.908593 -0.171435 0)
(0.965222 -0.0232813 1.38225e-21)
(0.974027 -0.00748774 -9.10283e-23)
(0.778831 -0.134535 0)
(0.879919 -0.169264 0)
(0.97477 -0.00787684 -9.95761e-23)
(0.991692 0.00896401 0)
(0.737973 -0.116317 0)
(0.842734 -0.159358 0)
(0.985277 0.00591373 -2.39426e-21)
(1.00707 0.0223984 2.67738e-22)
(0.691195 -0.0892024 0)
(0.795064 -0.139242 0)
(0.995834 0.0171132 1.73013e-21)
(1.00535 0.0261152 1.07577e-21)
(0.637979 -0.0522903 0)
(0.738953 -0.109208 -3.00754e-22)
(0.999245 -0.00296913 0)
(1.01196 0.0167885 -2.12864e-21)
(1.00399 0.00773005 -1.46933e-22)
(0.994022 -0.0284694 1.42755e-21)
(0.994754 -0.0151216 0)
(0.998841 -0.0569924 8.00354e-22)
(0.994885 -0.0424454 -1.43126e-21)
(1.01111 -0.0871654 -9.90435e-22)
(1.00429 -0.0718462 -6.2391e-22)
(1.02079 -0.119659 -8.60457e-24)
(1.01604 -0.103173 1.045e-21)
(1.02283 -0.153458 4.46332e-23)
(1.02235 -0.13666 1.29093e-21)
(1.01183 -0.183405 1.09326e-21)
(1.01827 -0.169454 -2.27859e-21)
(0.980033 -0.199472 0)
(0.997837 -0.193954 0)
(0.916678 -0.187696 0)
(0.952333 -0.197953 0)
(0.86837 -0.167074 5.45913e-22)
(0.684145 -0.0792733 3.45706e-21)
(0.612362 -0.010883 1.94982e-21)
(0.648983 -0.0485974 -3.40543e-21)
(0.750536 -0.116389 -3.093e-21)
(0.720493 -0.101094 3.02299e-21)
(0.804109 -0.124722 -2.02745e-23)
(0.780663 -0.122245 -8.50522e-23)
(0.850269 -0.111173 0)
(0.830085 -0.119057 0)
(0.896331 -0.0814277 -1.69014e-21)
(0.875887 -0.0966793 -2.36495e-22)
(0.945883 -0.0425617 -2.69477e-22)
(0.924131 -0.0612815 1.68113e-21)
(0.996745 -0.00228759 -6.65096e-22)
(0.974004 -0.021191 8.60688e-23)
(1.04093 0.0305637 1.0602e-21)
(1.02129 0.0158803 6.01742e-22)
(1.07034 0.0501826 0)
(1.05874 0.0423347 -1.18368e-21)
(1.01449 0.0325018 9.83953e-22)
(1.03936 0.0455482 2.0824e-23)
(1.01977 0.0235256 -5.5239e-22)
(0.81264 -0.136415 7.57273e-22)
(0.67427 -0.0681621 -1.92008e-22)
(0.694363 0.00801554 3.21864e-23)
(0.581621 0.0336344 -1.9535e-21)
(0.691804 0.0431615 0)
(0.744668 -0.0948375 -4.68708e-22)
(0.957902 -0.19312 6.3059e-22)
(0.905717 -0.162935 -6.26955e-22)
(1.13192 0.0661171 -4.7337e-22)
(1.03797 0.0128894 1.13353e-21)
(1.04484 0.0195809 5.28804e-22)
(1.13229 0.0650392 -4.41939e-22)
(0.582301 -0.00593433 -8.68829e-23)
(1.03291 -0.00474119 0)
(1.03415 0.00478752 2.88052e-22)
(1.03595 -0.0262778 -4.21876e-23)
(1.03299 -0.0149972 0)
(1.04472 -0.0520069 2.3255e-22)
(1.03933 -0.0385578 -4.80138e-22)
(1.05517 -0.0826857 0)
(1.04937 -0.0667343 -1.14915e-22)
(1.06297 -0.117673 0)
(1.05848 -0.099782 -6.30658e-23)
(1.06868 -0.154569 0)
(1.06525 -0.13609 -1.39441e-22)
(1.07027 -0.189717 1.01179e-23)
(1.06938 -0.172662 -1.1518e-22)
(1.06032 -0.216212 -7.11217e-23)
(1.06643 -0.204709 1.34393e-22)
(1.02828 -0.222035 2.47343e-23)
(1.04781 -0.222593 3.22657e-23)
(0.997878 -0.212563 -2.41752e-22)
(0.725722 -0.0515413 -5.62592e-23)
(0.707505 -0.0241021 -5.74964e-23)
(0.775358 -0.0875207 2.95244e-24)
(0.749766 -0.0725325 0)
(0.83261 -0.0964887 0)
(0.804239 -0.0946297 4.20407e-23)
(0.892545 -0.0822569 0)
(0.862701 -0.091721 0)
(0.95441 -0.0510559 1.54297e-24)
(0.924068 -0.0680063 2.39949e-22)
(1.01411 -0.0126533 1.7415e-22)
(0.985961 -0.0317338 0)
(1.0659 0.0232275 5.31861e-22)
(1.04206 0.00640862 0)
(1.10347 0.0491622 -3.29205e-23)
(1.08683 0.0378419 -5.3284e-22)
(1.12449 0.0629814 -9.1166e-25)
(1.11586 0.0576683 -1.22889e-22)
(1.12935 0.0657397 4.7206e-22)
(1.02232 0.0379999 -2.3399e-22)
(1.04616 0.048907 0)
(1.04864 0.0254385 -2.44253e-22)
(1.02653 0.030096 2.16147e-22)
(0.701245 0.0790474 0)
(0.557457 0.0806498 0)
(0.606096 -0.0190956 3.21904e-22)
(1.08525 -0.228562 9.26909e-23)
(1.05656 -0.210216 0)
(0.840862 -0.121808 7.3837e-23)
(0.669178 -0.0442452 -9.17146e-24)
(0.880234 0.0566912 0)
(0.719587 0.114908 0)
(0.896553 0.0902508 2.18409e-21)
(1.09322 0.0589373 -4.54651e-22)
(1.13163 0.0624097 0)
(1.05362 0.0297559 4.8235e-22)
(1.07424 0.0230134 3.80443e-24)
(1.07851 0.0268883 -1.13882e-21)
(1.15699 0.0641997 0)
(1.16005 0.0666291 3.95893e-22)
(0.529277 0.0452497 0)
(1.06664 0.0117077 -1.43781e-22)
(1.07179 0.0175506 0)
(1.06385 -0.00351788 -4.58113e-24)
(1.06519 0.00447861 -1.24124e-23)
(1.06616 -0.0231842 8.61384e-23)
(1.06492 -0.0127526 0)
(1.07085 -0.0482362 -1.43362e-24)
(1.06824 -0.0349825 9.3253e-23)
(1.07608 -0.0790124 1.60632e-24)
(1.07292 -0.0629992 1.06311e-22)
(1.08285 -0.113601 -2.41375e-22)
(1.07868 -0.0960161 0)
(1.09299 -0.149934 0)
(1.08713 -0.131652 2.45993e-22)
(1.10539 -0.186513 6.87154e-23)
(1.09882 -0.168395 -3.47049e-23)
(1.11529 -0.218791 0)
(1.1108 -0.203746 8.63365e-24)
(1.11388 -0.237347 5.37187e-23)
(1.11672 -0.230554 -1.11824e-22)
(1.1038 -0.237232 -1.50479e-22)
(0.853148 0.0028346 4.62017e-22)
(0.863815 0.0279775 -1.99745e-24)
(0.855568 -0.0383365 1.80227e-22)
(0.850432 -0.0194116 -7.26383e-22)
(0.884023 -0.0634246 -3.92771e-23)
(0.86597 -0.0533905 3.90956e-22)
(0.931105 -0.0673504 0)
(0.905688 -0.0680814 -4.03302e-22)
(0.987979 -0.0508488 0)
(0.959095 -0.0613684 0)
(1.04616 -0.0202689 -2.90898e-24)
(1.01766 -0.0367303 0)
(1.09723 0.0139128 0)
(1.07316 -0.002952 0)
(1.13449 0.0421394 0)
(1.11779 0.0291836 0)
(1.15525 0.0598911 -2.36897e-22)
(1.14656 0.0524415 0)
(1.1617 0.0675079 9.02895e-25)
(1.15958 0.0649676 2.42047e-22)
(1.16139 0.0681068 -4.57818e-22)
(1.02999 0.0417548 -2.33348e-22)
(1.05254 0.0508675 4.25898e-22)
(1.03323 0.0345224 -4.82627e-22)
(1.01378 -0.181319 -1.73585e-23)
(0.543893 0.128947 0)
(0.533098 0.0371514 -3.90863e-22)
(0.913438 0.12972 -2.33192e-21)
(0.743198 0.151384 0)
(0.766525 -0.0730042 -6.2278e-23)
(0.58528 0.0131842 -2.87479e-22)
(1.05963 0.032555 -6.93488e-24)
(1.08355 0.0296482 -7.06052e-24)
(1.09308 0.0570137 -3.91667e-22)
(1.1279 0.0588025 -3.9424e-22)
(1.16732 0.0620586 -3.95436e-22)
(1.16215 0.0589891 0)
(1.09262 0.0205511 -1.22542e-22)
(1.09663 0.0242566 -1.86819e-22)
(0.960687 -0.143469 1.74101e-23)
(0.893504 -0.0983744 -3.47546e-24)
(0.681564 -0.0185525 1.44374e-22)
(1.15338 0.0605562 -2.57877e-24)
(0.476986 0.101704 0)
(1.08569 0.010047 -1.20606e-22)
(1.0897 0.0155651 4.95778e-22)
(1.08146 -0.00406551 1.3984e-22)
(1.08351 0.00343655 -3.42411e-22)
(1.07974 -0.0228447 0)
(1.08053 -0.0127823 0)
(1.07997 -0.0472729 1.10507e-25)
(1.07971 -0.0342722 8.43155e-29)
(1.08264 -0.0768404 -1.59193e-24)
(1.08091 -0.0615404 0)
(1.08967 -0.109118 0)
(1.08546 -0.0927672 9.65207e-29)
(1.10256 -0.142768 0)
(1.09532 -0.125767 0)
(1.12132 -0.177367 0)
(1.11125 -0.160021 0)
(1.14422 -0.210182 0)
(1.13245 -0.194275 0)
(1.16617 -0.234762 0)
(1.15588 -0.224049 0)
(1.17518 -0.239886 7.09608e-23)
(1.17335 -0.240594 0)
(1.15388 -0.213471 0)
(1.17055 -0.231233 -1.56359e-23)
(1.08829 -0.152043 0)
(1.12882 -0.186551 -6.27072e-23)
(0.999849 0.0464806 4.86255e-22)
(1.00552 0.122628 5.63567e-22)
(1.00232 0.0816018 -4.88352e-22)
(0.995354 -0.00535588 -1.73112e-22)
(0.997214 0.0175806 1.9967e-24)
(0.999143 -0.0359673 1.06318e-22)
(0.994772 -0.0229659 2.42926e-22)
(1.01785 -0.0490966 2.03772e-25)
(1.00615 -0.044656 0)
(1.05222 -0.0451386 0)
(1.03355 -0.0492488 0)
(1.09433 -0.0257844 0)
(1.07293 -0.0370804 0)
(1.1346 0.00258574 6.05811e-26)
(1.11524 -0.0121356 0)
(1.16502 0.0306592 0)
(1.15144 0.0172255 0)
(1.18114 0.0511099 0)
(1.17491 0.0421012 0)
(1.18369 0.0619434 -1.20362e-22)
(1.1839 0.0576682 1.25185e-22)
(1.17725 0.0650927 -1.11384e-22)
(1.18117 0.0644169 1.44547e-23)
(1.17249 0.064406 5.56479e-22)
(1.03766 0.0440889 2.97348e-22)
(1.05818 0.0513953 4.19785e-22)
(1.04007 0.0373204 0)
(0.924031 0.175917 0)
(1.01018 0.168258 -4.84781e-22)
(0.818792 -0.050395 3.22346e-22)
(1.04059 -0.113216 0)
(0.541687 0.174132 0)
(0.458044 0.097773 0)
(1.10079 0.0272701 0)
(1.14921 0.0564105 8.31646e-22)
(1.16177 0.0553481 -3.12758e-22)
(1.15588 0.0522929 0)
(0.768838 0.190381 -1.3414e-22)
(0.496787 0.0731241 3.47933e-22)
(1.01903 0.21664 -2.2046e-22)
(0.932902 0.227239 1.13804e-22)
(0.592579 0.034907 -1.41948e-22)
(0.740123 -0.00569281 -1.47153e-23)
(0.98753 -0.0749676 0)
(1.15724 0.0548399 -8.23983e-22)
(0.432298 0.158315 0)
(1.10017 0.0173564 4.37618e-22)
(1.10747 0.0248069 2.68771e-22)
(1.10401 0.0213503 1.03371e-21)
(1.09249 0.00705591 1.94502e-22)
(1.09641 0.0124825 -4.45656e-22)
(1.08613 -0.00628604 0)
(1.08925 0.000790204 -1.20083e-22)
(1.08186 -0.0239165 -6.65686e-29)
(1.08379 -0.0144427 6.92196e-29)
(1.08032 -0.0470357 1.12333e-25)
(1.08074 -0.0347889 0)
(1.0826 -0.0744944 0)
(1.08091 -0.060379 0)
(1.0902 -0.103849 1.42403e-24)
(1.08567 -0.0890438 -9.65206e-29)
(1.10423 -0.134154 -9.54894e-29)
(1.09637 -0.11887 9.9144e-29)
(1.12539 -0.165277 0)
(1.11389 -0.149676 0)
(1.15386 -0.195294 -1.38025e-24)
(1.13875 -0.180628 0)
(1.18802 -0.219974 1.09553e-24)
(1.17049 -0.208675 0)
(1.22142 -0.231608 2.27673e-23)
(1.20555 -0.228097 0)
(1.24062 -0.219349 8.05544e-23)
(1.23395 -0.229179 -2.13569e-23)
(1.2292 -0.176837 2.66755e-22)
(1.24038 -0.201612 -1.75089e-23)
(1.18445 -0.114648 7.04904e-22)
(1.21108 -0.146988 -2.66196e-22)
(1.04822 0.119589 -3.48821e-22)
(1.06034 0.202898 3.37285e-23)
(1.05132 0.160096 3.89951e-22)
(1.0553 0.0496024 -6.65972e-22)
(1.05001 0.082449 4.09647e-22)
(1.07084 -0.00060538 3.4294e-22)
(1.06214 0.0218205 1.85821e-22)
(1.08938 -0.0289507 0)
(1.07939 -0.0174528 -4.2582e-22)
(1.11262 -0.0376228 4.84854e-24)
(1.10039 -0.0355593 1.63882e-28)
(1.1401 -0.0298076 0)
(1.126 -0.0355324 0)
(1.16762 -0.0101089 1.57339e-24)
(1.15424 -0.021065 0)
(1.18909 0.0145421 1.34232e-24)
(1.17948 0.00209111 0)
(1.19966 0.0366425 0)
(1.19587 0.0263469 0)
(1.19879 0.0509443 0)
(1.20057 0.0449119 0)
(1.18932 0.0574144 0)
(1.19489 0.0550616 0)
(1.17579 0.0587413 0)
(1.1828 0.0586856 -7.30779e-24)
(1.16888 0.0577719 2.07999e-22)
(1.03277 0.266237 2.95773e-22)
(1.0761 0.246726 0)
(0.923965 -0.0379267 1.38414e-22)
(1.15096 -0.082659 -8.82911e-22)
(1.15307 0.0506755 0)
(1.15002 0.0477671 1.80918e-22)
(1.14472 0.0511045 3.72154e-22)
(1.14877 0.0454517 -3.5305e-22)
(1.09502 0.053883 -2.19023e-22)
(1.12609 0.0542568 1.46763e-23)
(1.04374 0.0447444 -3.76123e-24)
(1.06258 0.0503463 1.92962e-22)
(1.06376 0.0342937 4.02343e-22)
(1.04568 0.0388368 -5.11543e-23)
(1.1036 0.0294149 0)
(1.08666 0.0314475 -3.87825e-22)
(1.11011 0.0275653 -4.4626e-22)
(0.551068 0.215839 1.3524e-22)
(0.385463 0.157821 2.2499e-28)
(0.787623 0.234086 -1.14251e-22)
(0.40673 0.129845 0)
(0.939777 0.280294 0)
(0.499211 0.083228 0)
(1.09841 0.290445 -2.27786e-25)
(1.05104 0.315477 -1.26793e-24)
(0.654688 0.0337984 -2.81252e-22)
(1.11401 -0.0543829 1.52575e-22)
(0.865901 -0.00948353 3.13267e-22)
(1.10553 0.0220132 -3.73933e-22)
(1.10796 0.0254592 3.54446e-22)
(0.397317 0.21171 3.97241e-28)
(1.09866 0.0135222 -5.93431e-25)
(1.10227 0.0180574 1.97332e-22)
(1.09055 0.00310419 9.67243e-23)
(1.09462 0.00858879 0)
(1.08333 -0.00936703 -5.47442e-29)
(1.08677 -0.00273364 -1.11885e-22)
(1.0785 -0.0256058 0)
(1.08058 -0.0168717 0)
(1.07702 -0.0468994 1.19916e-24)
(1.0773 -0.0356344 0)
(1.07988 -0.0719656 0)
(1.07785 -0.0591242 0)
(1.08807 -0.0984037 -2.69692e-24)
(1.08327 -0.085117 0)
(1.1024 -0.125358 -1.32018e-24)
(1.09442 -0.111807 0)
(1.12377 -0.152723 0)
(1.11217 -0.13905 0)
(1.1529 -0.178782 1.87971e-25)
(1.13735 -0.166093 0)
(1.18977 -0.200319 -1.56868e-25)
(1.17044 -0.190361 0)
(1.23193 -0.212349 -5.16795e-25)
(1.21054 -0.207953 4.33687e-29)
(1.27164 -0.2071 -3.15404e-26)
(1.25282 -0.212399 0)
(1.29566 -0.1783 2.818e-23)
(1.28661 -0.195612 7.7382e-23)
(1.2935 -0.12941 -3.77825e-22)
(1.2981 -0.155593 -4.28265e-22)
(1.26555 -0.076528 7.08317e-22)
(1.28221 -0.102179 5.08106e-23)
(1.07946 0.19025 -5.52063e-23)
(1.11823 0.26369 1.35498e-24)
(1.09536 0.227166 0)
(1.06706 0.119091 4.15625e-23)
(1.07018 0.153853 -7.79253e-23)
(1.0758 0.0572368 4.70703e-23)
(1.06914 0.0865231 9.17082e-24)
(1.09699 0.0108487 -1.23068e-24)
(1.08518 0.0317789 2.47125e-23)
(1.12376 -0.0164907 0)
(1.11 -0.00532279 0)
(1.15114 -0.0247981 -2.30864e-24)
(1.1376 -0.0228264 2.93796e-28)
(1.1758 -0.01786 -2.36364e-28)
(1.16398 -0.022912 2.50182e-28)
(1.19444 -0.00125601 -8.09765e-26)
(1.18607 -0.0103861 0)
(1.20395 0.018639 0)
(1.20047 0.00865834 0)
(1.20333 0.0355712 -1.09334e-24)
(1.20485 0.0278085 0)
(1.19432 0.0458239 0)
(1.1997 0.0415709 0)
(1.18045 0.0502856 -8.62903e-25)
(1.18779 0.0486122 0)
(1.16543 0.051336 1.6031e-24)
(1.17292 0.0512202 -7.07844e-24)
(1.15117 0.048606 2.91396e-22)
(1.15811 0.0505683 0)
(1.13926 0.0411282 1.2224e-21)
(1.14494 0.0454838 -9.1921e-22)
(1.13474 0.0362546 2.46872e-24)
(1.14058 0.0447083 0)
(1.1387 0.0330648 3.4193e-22)
(1.14438 0.0394601 1.74873e-23)
(1.09588 0.0497903 0)
(1.12404 0.048475 0)
(1.04899 0.0438553 1.80792e-22)
(1.06624 0.0480799 4.39215e-29)
(1.06861 0.0346249 -9.6649e-23)
(1.05094 0.0387796 -3.191e-22)
(1.10628 0.0306866 0)
(1.09052 0.0321305 2.73104e-22)
(1.12763 0.332175 -3.84848e-25)
(1.14817 0.298358 4.63023e-23)
(1.07555 -0.0318663 -5.82242e-22)
(1.24592 -0.0543653 -1.28415e-21)
(1.10997 0.0281146 3.33395e-22)
(1.1122 0.0294869 -1.67748e-22)
(0.565038 0.253948 5.45469e-27)
(0.317245 0.212964 0)
(0.798276 0.281962 0)
(0.316823 0.179816 2.77476e-27)
(0.947822 0.331971 2.96744e-25)
(0.402411 0.123705 1.44815e-23)
(1.07274 0.362335 4.75934e-25)
(0.575414 0.060656 0)
(1.18506 0.330391 8.87632e-22)
(1.16286 0.370318 -2.75305e-24)
(0.804386 0.0102887 -5.44819e-22)
(1.2275 -0.038551 1.38508e-21)
(1.04342 -0.0179742 3.29316e-22)
(1.19356 0.291848 -4.6461e-22)
(1.22846 0.357349 -8.94131e-22)
(1.23324 0.31233 -1.24493e-21)
(1.20796 -0.0290205 7.37292e-22)
(1.30015 -0.0531089 -1.70134e-21)
(1.28779 -0.0433539 -3.0131e-22)
(1.10302 0.0264875 1.47152e-22)
(1.11093 0.0299497 0)
(1.10392 0.0290285 -1.72174e-22)
(0.371731 0.25819 2.92687e-28)
(1.09874 0.0190799 8.49479e-23)
(1.1008 0.0232234 3.12361e-22)
(1.09217 0.00965661 -1.86125e-22)
(1.09533 0.0145884 -8.4007e-23)
(1.08433 -0.000791237 0)
(1.08807 0.00459277 0)
(1.07754 -0.0123497 0)
(1.08062 -0.00627868 0)
(1.07323 -0.0271019 0)
(1.07497 -0.0191748 0)
(1.07248 -0.0464167 0)
(1.07234 -0.0361982 0)
(1.07609 -0.0691033 -1.34918e-28)
(1.07369 -0.0574969 1.40184e-28)
(1.08468 -0.0928187 1.27275e-24)
(1.07973 -0.0809404 1.49985e-28)
(1.09892 -0.116637 1.32018e-24)
(1.09104 -0.104711 0)
(1.11967 -0.140463 0)
(1.10844 -0.128601 0)
(1.1476 -0.162739 1.71939e-25)
(1.13272 -0.15196 0)
(1.18284 -0.180631 -1.45991e-25)
(1.16434 -0.172424 0)
(1.22426 -0.190549 5.1675e-25)
(1.20296 -0.186872 0)
(1.26765 -0.187357 -1.08605e-25)
(1.24615 -0.190932 1.29738e-29)
(1.30404 -0.166466 -8.45588e-23)
(1.28748 -0.179227 0)
(1.32276 -0.129101 1.51545e-22)
(1.31624 -0.149291 1.12845e-22)
(1.31919 -0.0864655 -6.68611e-22)
(1.32371 -0.107486 4.30793e-22)
(1.31079 -0.0675961 1.50289e-21)
(1.13174 0.239078 -1.3983e-22)
(1.15966 0.267077 6.40163e-22)
(1.09427 0.178173 3.20487e-25)
(1.11007 0.209106 5.76639e-25)
(1.07978 0.117857 1.87364e-22)
(1.08428 0.147412 -2.01656e-22)
(1.0845 0.0644767 9.48625e-25)
(1.07994 0.0899148 -9.31461e-24)
(1.10293 0.0231764 1.22974e-24)
(1.09241 0.0420611 5.7562e-28)
(1.12849 -0.00254802 0)
(1.11522 0.00823874 0)
(1.15472 -0.0119437 4.91433e-28)
(1.14188 -0.00914698 -5.20033e-28)
(1.1764 -0.00813148 0)
(1.16635 -0.0114043 0)
(1.19016 0.00403289 -9.73248e-26)
(1.18439 -0.00276854 0)
(1.19457 0.0191407 0)
(1.19353 0.0115651 0)
(1.19024 0.0318751 1.09334e-24)
(1.19338 0.0260606 0)
(1.17954 0.0394853 0)
(1.18549 0.0363217 0)
(1.16587 0.0430787 3.23806e-26)
(1.17289 0.0416256 2.26096e-28)
(1.15203 0.0444157 -1.55857e-24)
(1.15889 0.0440224 0)
(1.13927 0.0423745 0)
(1.14543 0.0440003 -9.11123e-26)
(1.12829 0.0353351 -3.26718e-22)
(1.13324 0.0393655 -6.56599e-25)
(1.12304 0.0299617 -3.22531e-22)
(1.13432 0.0267303 5.93075e-22)
(1.1253 0.0207581 -3.20303e-22)
(1.13592 0.0377815 0)
(1.13924 0.0323795 0)
(1.0952 0.0450827 2.03391e-26)
(1.12082 0.0424012 4.15019e-29)
(1.05304 0.041814 2.12227e-26)
(1.06842 0.0448163 4.1148e-29)
(1.07166 0.0339593 1.98609e-23)
(1.05525 0.0375868 7.82812e-29)
(1.10732 0.0310241 1.50519e-22)
(1.09216 0.0318919 -1.03839e-22)
(1.11319 0.0305637 -1.14911e-23)
(0.580131 0.289855 -1.31875e-26)
(0.255048 0.259278 1.06917e-27)
(0.800024 0.330732 0)
(0.230123 0.217765 -3.46828e-27)
(0.956012 0.378657 3.33974e-25)
(0.312309 0.14794 -1.45041e-23)
(1.09605 0.40345 -9.44003e-24)
(0.496208 0.0750033 1.66377e-23)
(1.20267 0.401554 -3.57984e-23)
(0.752774 0.0178713 0)
(1.27787 0.327019 1.41602e-21)
(1.27688 0.376347 0)
(1.0162 -0.012513 2.32714e-22)
(1.27696 -0.0396582 -1.90541e-21)
(1.19462 -0.0273651 -6.59827e-22)
(1.2696 0.281982 -1.47796e-23)
(1.32575 0.333491 4.09814e-21)
(1.31149 0.284589 2.40365e-23)
(1.26739 -0.0415038 -3.40999e-22)
(1.29452 -0.0496029 -1.91597e-21)
(1.28798 -0.049964 -2.4658e-21)
(1.1112 0.0308046 0)
(1.10493 0.0305917 -5.17909e-22)
(1.0947 0.0248266 2.69567e-22)
(1.09385 0.0277833 -2.81721e-22)
(0.354419 0.29621 -1.70805e-27)
(1.09007 0.016277 -1.39545e-22)
(1.09128 0.0209105 -1.51694e-22)
(1.0838 0.00608208 1.9683e-23)
(1.08625 0.0112615 -7.66004e-23)
(1.07689 -0.00422295 -3.35989e-25)
(1.07989 0.000947368 3.45516e-28)
(1.0711 -0.0149072 0)
(1.07358 -0.00937241 0)
(1.06771 -0.0281678 0)
(1.06895 -0.0210562 0)
(1.06779 -0.0455394 8.9049e-25)
(1.06723 -0.0363411 0)
(1.07202 -0.0659993 0)
(1.06935 -0.0555356 0)
(1.08079 -0.0872472 0)
(1.07581 -0.0766409 0)
(1.09462 -0.108219 0)
(1.08703 -0.0977706 0)
(1.11429 -0.12882 0)
(1.10369 -0.118606 0)
(1.14034 -0.147721 1.02034e-24)
(1.12651 -0.138632 0)
(1.17273 -0.162405 -1.38311e-25)
(1.15578 -0.155749 1.98546e-28)
(1.21051 -0.170084 0)
(1.19108 -0.16732 0)
(1.25065 -0.167137 -1.75928e-26)
(1.23059 -0.170171 -1.29738e-29)
(1.28705 -0.150607 -5.74989e-25)
(1.26982 -0.160612 -1.03818e-28)
(1.31144 -0.121821 -1.35857e-22)
(1.30131 -0.137383 -1.05103e-25)
(1.31825 -0.0882137 8.0132e-23)
(1.31724 -0.104832 5.8465e-23)
(1.30957 -0.0615121 6.43081e-22)
(1.31543 -0.0733383 -4.30965e-22)
(1.3022 -0.0534468 2.12802e-21)
(1.19501 0.257279 -8.66728e-23)
(1.23039 0.272341 1.94188e-23)
(1.13868 0.215139 2.85537e-24)
(1.16441 0.237897 0)
(1.10293 0.165109 -3.17109e-25)
(1.11825 0.190591 -5.83985e-25)
(1.08718 0.114583 0)
(1.09274 0.139492 0)
(1.08822 0.0690523 -2.08151e-25)
(1.08584 0.0908897 0)
(1.10181 0.0329726 0)
(1.09376 0.0496386 0)
(1.12258 0.00937621 0)
(1.11165 0.019514 0)
(1.14459 -0.000956538 -1.60233e-24)
(1.13378 0.00264596 0)
(1.16259 -0.000272347 0)
(1.15432 -0.00177615 0)
(1.17346 0.00772074 -1.39508e-24)
(1.169 0.00306442 0)
(1.17627 0.01862 -1.12667e-24)
(1.17586 0.0130957 0)
(1.17174 0.0279689 -9.93816e-25)
(1.17481 0.0237018 6.83572e-29)
(1.16206 0.033623 -8.83074e-25)
(1.16735 0.0312351 -4.8515e-28)
(1.15023 0.0367319 4.02526e-26)
(1.15624 0.0353659 0)
(1.13843 0.0383839 0)
(1.14426 0.0377749 0)
(1.12739 0.0368514 0)
(1.13274 0.0381841 9.12674e-26)
(1.11743 0.0301763 2.90164e-22)
(1.12212 0.0341305 6.44923e-25)
(1.11276 0.0250261 -2.52609e-22)
(1.11224 0.0101058 0)
(1.1032 0.00579136 7.83689e-22)
(1.12944 0.0200509 -3.14548e-22)
(1.12146 0.0148919 -8.72426e-23)
(1.13066 0.0311497 -3.66555e-26)
(1.13378 0.0254391 -7.35913e-29)
(1.09337 0.0401046 -3.93899e-26)
(1.11668 0.0364546 -7.79752e-29)
(1.05618 0.0387958 7.55555e-29)
(1.06946 0.0408702 -7.68237e-29)
(1.07432 0.0322037 3.67808e-23)
(1.05887 0.0353027 -7.24624e-29)
(1.10801 0.0303905 -1.49841e-22)
(1.09364 0.030627 -3.74799e-23)
(1.11343 0.0306683 -1.48651e-22)
(0.586549 0.323939 0)
(0.198803 0.292743 -3.71433e-28)
(0.792732 0.374997 0)
(0.148182 0.239745 -4.79244e-28)
(0.962215 0.416966 -8.37667e-25)
(0.225623 0.156638 -3.87848e-26)
(1.11872 0.434548 6.98295e-24)
(0.427213 0.0736519 1.48986e-25)
(1.24368 0.421968 4.44691e-23)
(0.709525 0.0139372 3.91039e-25)
(1.32779 0.384582 0)
(0.997191 -0.0160674 2.18449e-22)
(1.35477 0.279706 4.26925e-21)
(1.37523 0.329668 -9.05962e-21)
(1.18391 -0.0326116 -2.79348e-23)
(1.28353 -0.0541056 2.61555e-21)
(1.2624 -0.0488464 2.31168e-21)
(1.09822 0.0300906 3.38759e-23)
(0.339702 0.324235 1.9609e-27)
(1.08488 0.0230869 -2.73913e-22)
(1.08849 0.0296591 1.55009e-21)
(1.08622 0.0267001 -9.51943e-22)
(1.08054 0.0136784 3.81315e-23)
(1.08246 0.0187528 2.54956e-22)
(1.07514 0.0030415 -1.96576e-23)
(1.07755 0.00840156 3.43702e-23)
(1.0696 -0.00704359 -8.02419e-23)
(1.07206 -0.00208426 7.22601e-23)
(1.06504 -0.0169141 -6.79204e-25)
(1.06696 -0.0118918 3.52472e-28)
(1.06265 -0.0287853 -7.40375e-25)
(1.06343 -0.0224563 -3.8691e-28)
(1.0635 -0.0443227 -9.22851e-26)
(1.06259 -0.03609 0)
(1.0682 -0.0627403 0)
(1.06534 -0.053317 0)
(1.07699 -0.0817916 -8.76171e-25)
(1.07207 -0.0723123 0)
(1.09026 -0.100258 4.60124e-28)
(1.08303 -0.0911093 -4.77734e-28)
(1.10861 -0.118033 4.45502e-28)
(1.09877 -0.10926 -4.6239e-28)
(1.13243 -0.134023 -3.99881e-28)
(1.11985 -0.126383 4.149e-28)
(1.16153 -0.146023 -1.1774e-24)
(1.14636 -0.140653 3.25842e-28)
(1.19493 -0.151906 2.44433e-25)
(1.1778 -0.149864 1.89789e-28)
(1.23015 -0.149167 -4.4292e-26)
(1.21256 -0.151774 0)
(1.26255 -0.135898 -5.07246e-25)
(1.24705 -0.14385 -1.99478e-28)
(1.28619 -0.113319 -9.36551e-25)
(1.27584 -0.12553 0)
(1.29639 -0.0868945 -9.41169e-23)
(1.29314 -0.10002 0)
(1.29393 -0.065218 -4.58006e-22)
(1.29651 -0.0749899 4.88622e-22)
(1.28498 -0.0548985 0)
(1.28954 -0.0585049 -6.2398e-23)
(1.27835 -0.056286 -2.78534e-21)
(1.28082 -0.0542474 2.67035e-21)
(1.25546 0.244739 -1.54393e-22)
(1.32782 0.239627 -1.60915e-21)
(1.29115 0.245053 1.55043e-21)
(1.19069 0.226961 -2.09359e-23)
(1.22158 0.23835 -3.68365e-24)
(1.1404 0.194115 0)
(1.16362 0.21212 0)
(1.10731 0.153214 2.55786e-26)
(1.12171 0.174256 0)
(1.09112 0.110819 0)
(1.09725 0.131866 0)
(1.0893 0.0719145 -7.40421e-25)
(1.08863 0.0906964 0)
(1.09839 0.040383 0)
(1.09273 0.0550479 0)
(1.11407 0.0188721 0)
(1.1057 0.0282968 0)
(1.13135 0.00797655 2.23771e-25)
(1.12281 0.0121674 0)
(1.14574 0.00613255 0)
(1.13911 0.00607315 0)
(1.15456 0.0106818 -1.22881e-27)
(1.15092 0.0078007 1.30099e-27)
(1.15689 0.0181079 1.12558e-24)
(1.15653 0.0142847 1.15673e-27)
(1.15314 0.0246267 1.91798e-24)
(1.15569 0.0216513 9.57784e-28)
(1.14514 0.0287041 5.48833e-26)
(1.14951 0.0269294 0)
(1.13544 0.0314535 7.90906e-25)
(1.14037 0.030152 -8.18393e-28)
(1.12566 0.0332895 6.90202e-28)
(1.13052 0.0325648 -7.31926e-28)
(1.11629 0.0320696 0)
(1.12088 0.0332345 0)
(1.10748 0.0257451 -4.70326e-23)
(1.11175 0.0295521 7.33544e-23)
(1.10017 0.0155647 0)
(1.10368 0.0209178 -8.80975e-24)
(1.09799 0.0106785 0)
(1.1092 0.0051414 0)
(1.09371 -0.00147114 -8.86647e-24)
(1.1011 0.00151914 -2.37235e-22)
(1.12446 0.0139169 3.4563e-23)
(1.11729 0.00917021 6.64173e-23)
(1.12501 0.0251968 2.32546e-27)
(1.12823 0.0192778 0)
(1.09075 0.0351311 1.90866e-26)
(1.1119 0.0309159 0)
(1.05858 0.035098 0)
(1.06969 0.0365298 0)
(1.07655 0.0296172 -4.02686e-27)
(1.06188 0.0321983 0)
(1.10776 0.0289674 0)
(1.0945 0.0285717 0)
(1.11039 0.0308456 0)
(1.11274 0.0299861 -6.23535e-23)
(1.09422 0.0305324 0)
(1.1035 0.0311467 1.16958e-22)
(1.39703 0.265565 -9.12821e-21)
(1.36283 0.225766 0)
(1.28235 -0.0610266 -2.06645e-22)
(1.27803 -0.0601519 -2.28363e-22)
(0.580287 0.35433 2.22844e-26)
(0.146284 0.310944 0)
(1.08865 0.0030303 0)
(0.778401 0.408626 1.99603e-25)
(0.0700363 0.244223 -2.11559e-27)
(1.08265 0.0291112 3.20686e-22)
(1.09403 0.0313912 0)
(1.08527 0.0307884 0)
(0.963528 0.442202 1.15146e-24)
(0.1463 0.147298 1.27559e-25)
(1.13724 0.450358 0)
(0.367184 0.057582 -2.42325e-25)
(1.28172 0.427016 0)
(0.679151 -0.00101444 0)
(1.37747 0.378117 0)
(0.989271 -0.0278766 -7.25866e-23)
(1.42335 0.312841 -8.07251e-22)
(1.18155 -0.0447669 -6.94024e-23)
(1.39559 0.206012 0)
(1.43567 0.242114 5.17351e-21)
(1.26102 -0.0601577 1.97798e-21)
(1.28506 -0.0694178 -4.58604e-21)
(1.28043 -0.0648243 4.57251e-21)
(0.321919 0.341967 -9.42776e-28)
(1.07666 0.0214261 1.24376e-22)
(1.07809 0.0254636 0)
(1.07213 0.0113847 -3.14162e-23)
(1.07397 0.0166777 -5.76404e-23)
(1.06746 0.000589078 0)
(1.06961 0.00599001 2.97421e-23)
(1.06309 -0.00927392 0)
(1.06514 -0.00447913 9.54497e-24)
(1.05976 -0.0183971 6.78865e-25)
(1.06125 -0.0137851 0)
(1.05835 -0.0289954 1.40644e-24)
(1.05874 -0.0233592 0)
(1.05986 -0.042838 -8.76151e-26)
(1.05869 -0.0354871 0)
(1.06488 -0.0593858 -7.44117e-25)
(1.06192 -0.0509054 -7.96213e-28)
(1.07359 -0.0764789 8.75377e-25)
(1.06877 -0.0679954 8.24034e-28)
(1.08622 -0.092763 -7.47286e-25)
(1.07939 -0.0847409 7.76211e-28)
(1.10323 -0.108121 -7.5452e-28)
(1.09416 -0.100574 7.37233e-28)
(1.12483 -0.121692 -5.77628e-25)
(1.11347 -0.115243 6.85295e-28)
(1.15069 -0.131542 9.19155e-25)
(1.13728 -0.127195 0)
(1.17984 -0.135996 -1.00882e-25)
(1.16495 -0.134534 2.70003e-28)
(1.21015 -0.133384 2.82198e-25)
(1.19505 -0.135673 0)
(1.23799 -0.122601 5.07033e-25)
(1.22464 -0.128991 4.20469e-28)
(1.25904 -0.104867 0)
(1.24963 -0.1144 0)
(1.26985 -0.0842684 -1.47736e-22)
(1.26585 -0.0945349 1.55383e-22)
(1.27097 -0.0668061 0)
(1.27157 -0.0747555 9.25301e-29)
(1.26647 -0.0574429 -8.80252e-23)
(1.26912 -0.0609435 1.29867e-22)
(1.26331 -0.0567426 -1.46111e-21)
(1.2644 -0.0562713 1.45738e-21)
(1.26616 -0.0604793 0)
(1.26378 -0.058451 2.27295e-22)
(1.30022 0.205115 -6.97342e-22)
(1.35605 0.175754 3.63396e-22)
(1.32926 0.192837 1.78254e-21)
(1.23946 0.211681 -9.62274e-22)
(1.26984 0.210996 6.87001e-22)
(1.18391 0.200044 -3.65222e-22)
(1.21073 0.207972 1.3449e-21)
(1.13966 0.17457 6.17199e-25)
(1.16024 0.188719 -7.52784e-24)
(1.10944 0.141461 -2.55787e-26)
(1.12279 0.158654 0)
(1.0932 0.10611 6.81668e-28)
(1.09967 0.123772 -7.20735e-28)
(1.08916 0.0729711 -1.66726e-27)
(1.08983 0.0890553 1.76315e-27)
(1.09454 0.0454896 -5.28771e-25)
(1.09088 0.0583612 0)
(1.10581 0.02595 2.47651e-27)
(1.09968 0.0346674 -2.62004e-27)
(1.11887 0.0148394 1.37606e-24)
(1.11236 0.0193879 2.64185e-27)
(1.13007 0.011177 0)
(1.12486 0.012174 0)
(1.13721 0.0131269 1.03143e-24)
(1.13422 0.0116033 -6.94645e-29)
(1.13927 0.0177571 -1.98441e-27)
(1.13889 0.015322 2.10156e-27)
(1.13636 0.0219409 -7.5768e-26)
(1.13837 0.0200293 0)
(1.12998 0.0247401 8.2865e-25)
(1.13347 0.0234578 0)
(1.12219 0.0271709 -6.93381e-25)
(1.12617 0.0259449 0)
(1.11419 0.0290514 1.29534e-27)
(1.11822 0.028294 -1.37353e-27)
(1.10625 0.0279739 0)
(1.11025 0.0290618 0)
(1.09874 0.0220119 4.20668e-23)
(1.10248 0.0256351 6.95663e-23)
(1.09246 0.0123408 -2.49217e-22)
(1.09546 0.0174364 1.1634e-22)
(1.09031 0.00741339 0)
(1.09217 -0.00483957 -5.46222e-23)
(1.08636 -0.00672491 1.93262e-22)
(1.10588 0.000608438 0)
(1.09874 -0.00239076 5.3637e-23)
(1.11956 0.00880629 -1.2557e-25)
(1.1132 0.00427133 0)
(1.11914 0.0200927 3.41478e-26)
(1.12262 0.0141092 2.58955e-28)
(1.08773 0.0303665 0)
(1.10679 0.0259533 0)
(1.06047 0.0310069 0)
(1.06945 0.0320464 0)
(1.07812 0.0264723 4.00326e-27)
(1.06437 0.0285699 0)
(1.1067 0.0268292 0)
(1.09457 0.025904 0)
(1.10925 0.0300631 -1.1039e-22)
(1.11139 0.0284977 6.02273e-23)
(1.10244 0.0311014 -9.8045e-25)
(1.42368 0.178894 0)
(1.37915 0.153304 -1.45181e-21)
(1.2856 -0.0690908 -3.35201e-21)
(1.2705 -0.0620063 5.07842e-21)
(0.559372 0.376121 3.50793e-26)
(0.0940789 0.312402 6.0336e-27)
(1.07503 0.0271533 -5.06694e-22)
(1.07692 0.0294616 2.8844e-22)
(0.75623 0.426106 -4.18054e-24)
(-0.0032858 0.228778 0)