/*--------------------------------*- C++ -*----------------------------------*\
  =========                 |
  \\      /  F ield         | OpenFOAM: The Open Source CFD Toolbox
   \\    /   O peration     | Website:  https://openfoam.org
    \\  /    A nd           | Version:  10
     \\/     M anipulation  |
\*---------------------------------------------------------------------------*/
FoamFile
{
    format      ascii;
    class       volVectorField;
    location    "9.5";
    object      U;
}
// * * * * * * * * * * * * * * * * * * * * * * * * * * * * * * * * * * * * * //

dimensions      [0 1 -1 0 0 0 0];

internalField   nonuniform List<vector> 
28942
(
(-0.113266 0.0703894 -4.08576e-20)
(-0.113137 0.0799833 -8.55178e-21)
(0.438075 -0.308082 2.56592e-20)
(1.01584 0.0416138 -1.03945e-19)
(0.994209 0.0515528 3.422e-20)
(0.348124 0.0141242 0)
(0.424564 0.0393108 -5.96281e-22)
(0.470177 0.00977833 7.5937e-22)
(1.21815 -0.185507 2.25692e-22)
(1.20899 -0.171324 4.77903e-22)
(-0.0883126 -0.11091 -9.0079e-20)
(-0.065025 -0.104147 4.09665e-20)
(-0.084117 -0.0855601 0)
(-0.0871164 -0.0906136 0)
(0.865769 -0.0172893 3.96602e-23)
(0.862785 -0.0144576 -4.61482e-23)
(0.93315 0.114785 3.02129e-20)
(0.916643 0.0997986 4.86145e-20)
(0.311064 -0.420794 1.01626e-19)
(0.601556 -0.679386 -2.83774e-20)
(0.990841 0.26019 3.91261e-20)
(0.991665 0.244726 0)
(0.0162436 -0.0289889 8.52898e-20)
(-0.0628775 -0.0364313 4.74336e-20)
(0.558869 -0.148831 9.22568e-20)
(0.914833 -0.267146 -8.38559e-20)
(0.18492 -0.416148 4.8205e-19)
(0.19168 -0.344055 -1.84663e-19)
(0.707951 -0.516015 7.49077e-21)
(0.429451 -0.299605 1.87531e-21)
(0.345833 -0.0208214 0)
(0.453304 -0.0293782 1.39941e-21)
(0.56646 -0.014002 1.04134e-20)
(0.737801 -0.0213678 6.20698e-22)
(0.447791 0.493705 2.18575e-20)
(0.376288 0.546724 -1.65211e-20)
(0.594521 0.717356 -1.19482e-19)
(0.385391 0.647239 -4.91381e-20)
(0.178515 0.0172836 7.40747e-22)
(0.206908 0.500214 -7.46016e-20)
(0.657629 -0.059723 0)
(0.856588 -0.0777848 0)
(1.33394 -0.180999 1.59068e-21)
(1.3272 -0.187852 -4.17804e-21)
(1.32631 -0.174423 -4.07363e-21)
(0.642633 0.0141259 -3.01051e-22)
(0.610876 0.0280767 4.70868e-22)
(0.780733 0.0155632 2.37478e-21)
(0.761538 0.0150817 -6.63295e-22)
(0.661438 0.0152844 -3.62998e-21)
(0.561125 0.00964289 2.40458e-21)
(1.17638 -0.0430922 6.17894e-21)
(1.17181 -0.0476516 4.21453e-21)
(1.21092 -0.198607 -9.29788e-23)
(1.20028 -0.184425 7.8931e-22)
(1.17972 -0.239445 7.52346e-20)
(1.42806 -0.337974 4.01925e-20)
(-0.0688151 -0.0568858 -5.56574e-20)
(-0.0760936 -0.0743892 0)
(-0.0678755 -0.0585944 2.01675e-20)
(-0.0634843 -0.0476556 4.88096e-20)
(-0.0296321 -0.0232357 -3.88807e-20)
(-0.0288743 -0.0238513 -4.04097e-20)
(1.28705 -0.584459 0)
(1.4117 -0.526092 1.45601e-20)
(1.31851 -0.467789 -6.04045e-21)
(1.25924 -0.459645 0)
(0.924732 -0.22187 -2.89485e-20)
(0.943322 -0.243721 -1.88625e-20)
(-0.0673808 0.0464259 1.35866e-19)
(-0.0833968 0.0525177 -4.30485e-20)
(-0.109926 0.0797258 1.08187e-19)
(0.913726 -0.304931 0)
(0.933117 -0.270658 1.00633e-19)
(0.863083 -0.415967 2.66293e-20)
(1.42486 0.352282 5.03152e-20)
(1.45522 0.337839 -5.41641e-20)
(1.44251 0.299288 -3.73458e-20)
(0.134908 -0.0771144 1.03591e-21)
(0.191151 -0.121735 -3.11337e-20)
(0.944243 -0.600911 -3.52605e-21)
(0.687134 -0.474918 1.09956e-20)
(-0.0776638 0.0464575 2.28871e-19)
(-0.0835128 0.0483514 -8.8e-20)
(1.24696 0.6139 -6.03942e-21)
(1.18486 0.584904 -1.31292e-20)
(1.07869 0.683409 8.09762e-21)
(0.927653 0.665795 -2.81046e-20)
(0.883072 0.634876 1.93301e-20)
(0.65993 0.458162 2.25462e-22)
(0.727794 0.552042 -6.90155e-21)
(0.76971 0.638283 1.19041e-20)
(-0.154807 -0.0810889 -1.19143e-20)
(-0.129766 -0.10847 -3.03221e-21)
(-0.104458 -0.0920619 6.07509e-21)
(-0.113687 -0.0739877 -8.39317e-20)
(-0.122265 -0.0517142 1.06511e-19)
(0.368613 0.293501 -4.26046e-20)
(0.41744 0.362521 8.09296e-21)
(-0.026784 0.0234809 0)
(1.00712 0.00412448 0)
(0.965145 0.0529903 -7.93377e-20)
(0.891177 0.135051 5.65519e-20)
(1.08122 0.117545 0)
(1.42241 0.113004 0)
(1.42549 0.109239 0)
(1.44019 0.116889 8.77524e-20)
(1.08852 0.192522 -5.53782e-21)
(1.08483 0.204548 6.05135e-20)
(1.07776 0.181693 3.16119e-20)
(-0.0692965 -0.0624602 1.11379e-19)
(-0.0668741 -0.062899 -1.24982e-19)
(-0.0131051 0.0630796 -7.32387e-20)
(-0.0352194 0.0689911 6.96072e-20)
(-0.111587 0.0851327 1.37398e-19)
(0.166885 0.263109 8.01151e-20)
(0.383904 0.260864 1.96251e-19)
(0.2948 0.482206 1.59681e-20)
(0.1319 0.37667 -4.64797e-19)
(1.27014 0.490275 8.66895e-22)
(1.12879 0.469073 2.47609e-20)
(1.16717 0.452294 -4.27815e-20)
(0.780661 -0.609148 1.55994e-20)
(0.529617 -0.38708 -8.12747e-21)
(0.161156 0.0190584 -2.43168e-19)
(0.145769 -0.0578905 0)
(0.307485 -0.023325 1.30448e-19)
(0.494405 -0.381191 1.76231e-20)
(0.705868 -0.598562 -4.17453e-20)
(0.750326 0.0169761 -2.49989e-21)
(0.784704 0.0149702 9.96422e-22)
(0.707095 0.0153187 7.63428e-23)
(0.491955 -0.735328 0)
(0.519936 -0.570699 0)
(1.06235 -0.132467 -1.13196e-20)
(1.04862 -0.113829 6.42051e-20)
(1.03242 -0.0809851 0)
(0.803073 -0.708912 0)
(0.806662 -0.653185 -3.31466e-20)
(0.74651 0.74875 7.35219e-20)
(-0.0518919 -0.0422222 7.44834e-20)
(-0.0459365 -0.0401154 -5.52915e-20)
(0.534656 -0.492812 -1.99266e-20)
(1.31811 -0.160354 -2.55184e-20)
(1.31295 -0.162931 4.17569e-21)
(1.41595 -0.284918 -1.19628e-20)
(1.41206 -0.272108 1.59983e-20)
(1.42994 -0.259755 5.63655e-20)
(-0.0459224 -0.0398313 2.5919e-20)
(0.855048 0.72026 8.09556e-20)
(0.987491 0.699994 -2.49106e-20)
(1.05934 0.734697 7.83175e-23)
(0.535 -0.0145068 -3.4383e-22)
(0.533865 -0.015976 -3.06226e-21)
(0.585073 -0.0197397 -2.97978e-22)
(0.629843 -0.0195323 8.30888e-22)
(0.804312 0.716173 1.7526e-20)
(0.435374 0.420526 0)
(-0.0754311 0.0873511 6.80436e-20)
(-0.0856752 0.0993177 -7.54749e-20)
(-0.134731 0.125681 6.02531e-20)
(0.441455 0.0800836 -1.62201e-19)
(0.972298 0.256822 -7.91646e-20)
(0.705202 -0.0202103 3.67204e-22)
(1.17809 -0.442736 1.76988e-20)
(1.14132 -0.517735 4.07869e-20)
(0.972084 0.285469 9.1404e-20)
(0.954784 0.32335 7.82752e-21)
(0.93138 0.202924 5.31759e-20)
(0.948803 0.20951 -3.84108e-20)
(0.99701 0.286353 0)
(1.1501 0.0425975 -1.47335e-21)
(1.15544 0.0399923 -3.93959e-21)
(1.17028 -0.130914 -8.92354e-22)
(1.1821 -0.136294 8.24963e-22)
(1.10099 0.181199 5.77128e-21)
(1.11438 0.190296 -1.58569e-20)
(1.1014 0.192531 0)
(1.08827 0.181339 4.02522e-21)
(1.09919 0.20398 0)
(1.10366 0.260746 -1.53263e-20)
(1.09699 0.27489 -9.21605e-21)
(1.07379 0.299485 -1.81395e-20)
(1.08693 0.288117 0)
(1.10752 0.309433 5.35317e-20)
(1.09047 0.323701 2.94389e-21)
(1.05721 0.316395 -1.12583e-20)
(1.00441 0.372774 -5.01898e-20)
(1.0032 0.313556 -8.96067e-21)
(0.00696407 0.0777953 4.22422e-20)
(0.122725 0.0773882 -1.66025e-20)
(-0.111399 0.113288 -1.01244e-19)
(0.68444 0.0142585 2.49624e-21)
(0.817307 0.0147565 0)
(-0.0373143 0.0283047 7.68714e-20)
(-0.0349735 0.0247675 3.88664e-20)
(0.769927 0.0166545 8.52039e-23)
(0.85248 0.0160768 -2.70398e-24)
(0.847614 0.016367 0)
(0.757241 0.0188577 -1.1542e-22)
(0.849837 0.0235036 -6.60614e-21)
(0.806993 0.016006 3.12826e-20)
(0.839215 0.0161344 1.39943e-20)
(-0.0612435 -0.0587094 4.79337e-20)
(-0.0232968 -0.0213648 -6.12126e-20)
(-0.0263223 -0.0236758 5.85628e-20)
(-0.0520606 -0.0353423 0)
(-0.0235992 -0.014615 8.30359e-20)
(-0.0230218 -0.0161995 -7.20005e-20)
(-0.0618115 -0.0136985 -7.48643e-20)
(-0.0855 -0.0348539 -7.66764e-20)
(-0.0502484 -0.0230237 0)
(0.0569488 0.246705 0)
(0.0261158 0.14676 0)
(0.00972875 0.083947 0)
(1.40885 0.101846 -1.2577e-20)
(1.39331 0.0898347 0)
(1.41155 0.0945967 1.39363e-20)
(0.920884 -0.0869156 2.01219e-19)
(0.934602 -0.0943561 -7.30744e-20)
(0.931527 -0.0750609 0)
(0.970742 -0.0227374 -2.15552e-22)
(0.977272 -0.0196669 4.32146e-22)
(0.964121 -0.0255388 -1.52976e-22)
(0.98353 -0.016781 0)
(0.989635 -0.0138343 -2.55757e-22)
(0.995576 -0.0108018 0)
(0.998599 -0.0167 0)
(1.00126 -0.00821813 9.02263e-22)
(1.00351 -0.0140381 0)
(0.99389 -0.0197865 -2.61344e-22)
(0.98875 -0.0227425 0)
(0.983674 -0.0258488 1.4623e-22)
(0.978496 -0.0290957 -2.1855e-22)
(0.97326 -0.0322496 1.52766e-22)
(1.00665 -0.00582788 -8.63269e-22)
(1.00817 -0.0114683 -2.96604e-23)
(0.957111 -0.0284497 5.01224e-25)
(0.967226 -0.0352982 -2.42467e-22)
(0.949833 -0.0314348 1.32716e-21)
(1.01177 -0.0033409 7.74229e-25)
(1.01272 -0.00876714 -2.82253e-23)
(0.961693 -0.0385485 4.89478e-22)
(1.01674 -0.000971814 7.56159e-22)
(1.02152 0.00126865 -7.55532e-22)
(1.01709 -0.00621836 5.83161e-23)
(1.02132 -0.00379318 1.09976e-22)
(0.942511 -0.0337569 -1.29142e-21)
(0.955944 -0.0416927 -3.25059e-22)
(1.02608 0.00335934 0)
(1.02542 -0.00150076 -1.08467e-22)
(0.934646 -0.0367048 1.66665e-25)
(0.949472 -0.044737 -1.67068e-25)
(1.03045 0.00531472 0)
(1.02936 0.000661922 0)
(0.926661 -0.0392714 0)
(0.943041 -0.0477605 0)
(1.0346 0.00710083 0)
(1.03315 0.00267386 4.87108e-23)
(0.918171 -0.0418245 -7.48534e-22)
(0.93606 -0.0506827 -1.80263e-25)
(1.03852 0.00873484 2.5205e-24)
(1.03676 0.00454365 -5.19837e-23)
(0.909389 -0.0441627 7.52086e-22)
(0.928815 -0.0534926 0)
(1.0422 0.0101962 0)
(1.0402 0.00625999 0)
(0.900108 -0.0463131 -4.96243e-23)
(0.921029 -0.0561592 8.62603e-22)
(1.04561 0.011488 2.95458e-22)
(1.04342 0.00782327 0)
(0.89046 -0.048236 -1.83745e-23)
(0.912835 -0.0586843 -8.17124e-22)
(1.04882 0.0126212 -4.3906e-22)
(1.04649 0.00924624 -1.26483e-22)
(0.880256 -0.0502451 8.57033e-22)
(0.903776 -0.0609794 0)
(1.05166 0.0135449 1.42717e-22)
(1.04929 0.0104888 8.40681e-23)
(0.869265 -0.0515389 -4.51602e-22)
(0.894437 -0.0631263 9.13232e-22)
(1.05442 0.0143971 -5.54086e-22)
(1.05198 0.0116804 6.24302e-22)
(0.857851 -0.0532032 4.79237e-22)
(0.883898 -0.06497 1.53122e-23)
(1.05675 0.015019 0)
(1.05438 0.012694 2.91732e-22)
(0.845536 -0.0539944 -9.88901e-22)
(0.873326 -0.066689 1.97043e-21)
(1.05899 0.015495 0)
(1.05653 0.0134541 0)
(0.849455 -0.0402471 -4.74221e-22)
(0.835936 -0.0403662 -1.98552e-21)
(0.832596 -0.0548168 0)
(0.862179 -0.068274 -1.02518e-21)
(0.874033 -0.0385349 -2.80936e-22)
(0.861891 -0.0392971 5.59582e-23)
(0.896011 -0.0358086 0)
(0.885139 -0.0371935 -8.82792e-22)
(0.916185 -0.0322177 -1.56554e-24)
(0.906336 -0.0341231 0)
(0.934742 -0.0278432 0)
(0.925697 -0.0300498 0)
(0.951879 -0.0230955 0)
(0.943577 -0.0252391 0)
(0.967351 -0.017859 2.94781e-22)
(0.959856 -0.0203961 7.77015e-23)
(0.982228 -0.0123666 -2.76782e-22)
(0.974872 -0.0151851 -2.96359e-22)
(0.995597 -0.00718055 4.61215e-22)
(0.988733 -0.00993209 5.99514e-22)
(1.00851 -0.00201641 0)
(1.00229 -0.00445389 0)
(1.01999 0.00249787 -1.82873e-24)
(1.0144 0.000288773 0)
(1.03031 0.00656918 0)
(1.02529 0.0046008 0)
(1.03947 0.0100448 0)
(1.03503 0.00838483 0)
(1.04747 0.0128739 0)
(1.04362 0.0115434 0)
(1.05428 0.0150094 0)
(1.05104 0.0140307 0)
(1.05986 0.0164351 0)
(1.05728 0.0158156 0)
(1.06413 0.0171709 -2.20162e-22)
(1.06235 0.0169241 0)
(1.06584 0.0173081 -6.9245e-23)
(1.06077 0.0157625 6.72484e-23)
(1.05843 0.0140129 -6.66875e-23)
(1.05408 0.00925192 0)
(1.05812 0.011485 -2.76293e-22)
(1.05618 0.0104682 -1.4687e-22)
(1.04928 0.00642335 4.26698e-23)
(1.05172 0.00791968 -1.6341e-22)
(1.04378 0.00309413 1.44039e-24)
(1.04657 0.00482409 0)
(1.03776 -0.000780057 0)
(1.04082 0.0012243 0)
(1.03135 -0.00518229 0)
(1.0346 -0.00291753 0)
(1.02466 -0.0100963 0)
(1.02803 -0.00757582 2.12023e-28)
(1.01778 -0.0154748 1.92218e-24)
(1.02124 -0.0127307 0)
(1.01051 -0.0212454 0)
(1.01422 -0.0183426 0)
(1.00306 -0.0273605 0)
(1.00691 -0.0243306 0)
(0.995463 -0.0338554 0)
(0.999142 -0.0305355 -1.45419e-22)
(0.987093 -0.0404422 4.35254e-23)
(0.991769 -0.0372583 -1.98022e-22)
(0.97909 -0.047362 0)
(0.983379 -0.0438887 -1.67409e-22)
(0.969348 -0.0540866 0)
(0.974287 -0.0507318 0)
(0.958329 -0.060654 0)
(0.964014 -0.0574049 0)
(0.945525 -0.0669106 0)
(0.952186 -0.0638324 0)
(0.930283 -0.0726244 -2.33286e-22)
(0.938072 -0.069798 0)
(0.912504 -0.0776357 -1.00396e-21)
(0.921385 -0.0751544 -2.38695e-22)
(0.902845 -0.0799997 1.04806e-21)
(0.822009 -0.0403186 1.9974e-21)
(1.06715 0.017287 1.33464e-22)
(1.05989 0.012305 -2.55319e-22)
(0.850227 -0.0695541 0)
(0.892517 -0.0821362 0)
(0.807259 -0.0397225 0)
(0.819071 -0.0552114 0)
(0.861612 -0.0271675 0)
(0.834445 -0.0260144 4.81905e-22)
(0.848264 -0.0268086 4.77117e-22)
(0.886552 -0.0266127 5.73804e-22)
(0.874371 -0.0269755 -1.16135e-22)
(0.908711 -0.0250335 1.65798e-24)
(0.89789 -0.0259869 0)
(0.929221 -0.0222481 0)
(0.919157 -0.023763 0)
(0.948304 -0.0185827 0)
(0.938961 -0.0204828 0)
(0.96597 -0.0142994 0)
(0.957363 -0.016455 0)
(0.982246 -0.00976244 0)
(0.974464 -0.0119682 0)
(0.997526 -0.00492495 -1.138e-24)
(0.989954 -0.00734515 3.01412e-22)
(1.01095 -0.000379136 -1.0248e-24)
(1.00422 -0.00273424 -5.5786e-22)
(1.02344 0.00400897 0)
(1.01738 0.00187431 0)
(1.03453 0.00794723 9.09243e-25)
(1.02915 0.0060353 0)
(1.04434 0.0113767 0)
(1.03959 0.00972801 0)
(1.05287 0.0142313 0)
(1.04877 0.0128806 0)
(1.06014 0.0164399 0)
(1.05667 0.0154197 0)
(1.06614 0.0179509 0)
(1.0633 0.0172827 0)
(1.07087 0.0187539 0)
(1.06866 0.0184342 0)
(1.07422 0.0188561 1.50815e-22)
(1.07275 0.0188855 0)
(1.06234 0.0159031 0)
(1.06831 0.0171537 1.2585e-22)
(1.0762 0.0183641 0)
(1.07538 0.0186703 1.44221e-22)
(1.06344 0.0097293 2.90363e-22)
(1.06486 0.0107489 6.90412e-23)
(1.06146 0.0129424 5.35979e-22)
(1.0601 0.0144326 0)
(1.06026 0.00714636 0)
(1.0619 0.00851142 -4.39792e-22)
(1.05639 0.00406157 1.33731e-24)
(1.0583 0.00569546 1.64424e-22)
(1.05199 0.000511605 -1.44038e-24)
(1.05418 0.00235851 0)
(1.0473 -0.00352566 0)
(1.04966 -0.0014472 0)
(1.04246 -0.00802957 0)
(1.04489 -0.00572049 0)
(1.03757 -0.0129965 0)
(1.04002 -0.0104556 -2.12023e-28)
(1.03267 -0.0184097 -3.83403e-24)
(1.03512 -0.0156499 0)
(1.02774 -0.0242781 0)
(1.03022 -0.0212838 0)
(1.02273 -0.0305582 7.22627e-23)
(1.02526 -0.0273701 0)
(1.01754 -0.0371402 0)
(1.02 -0.0337849 -7.19543e-23)
(1.01193 -0.0440435 1.65101e-22)
(1.01494 -0.0405882 1.59969e-22)
(1.00602 -0.0511703 0)
(1.00928 -0.0476093 0)
(0.999147 -0.0584454 0)
(1.00275 -0.0548081 0)
(0.991071 -0.0657403 0)
(0.995291 -0.062102 0)
(0.981406 -0.0729221 0)
(0.98647 -0.0693559 0)
(0.96967 -0.079843 3.66666e-24)
(0.975823 -0.0764291 0)
(0.955299 -0.086367 -3.89781e-24)
(0.962842 -0.0831828 0)
(0.938681 -0.0924498 -1.06608e-21)
(0.94739 -0.0894978 1.06547e-21)
(0.819928 -0.0246294 1.04541e-21)
(0.881906 -0.0841404 0)
(0.929765 -0.0953629 -2.26686e-21)
(0.837467 -0.0703924 0)
(1.07688 0.0179433 0)
(1.06615 0.0115971 -6.56878e-23)
(0.791876 -0.0386107 2.77573e-21)
(0.804969 -0.0227 1.12929e-21)
(0.869723 -0.0855739 6.05547e-22)
(0.919403 -0.0978932 2.87621e-21)
(0.804361 -0.0549403 0)
(1.08705 0.0189404 5.51312e-22)
(1.08703 0.018263 -2.69791e-22)
(1.06276 0.0134222 -1.28028e-22)
(1.06712 0.0122847 6.31186e-22)
(0.842455 -0.0086569 3.82292e-21)
(0.789687 -0.0201064 -2.19123e-21)
(0.816452 -0.00235429 -1.01376e-20)
(0.828693 -0.00581413 -2.21081e-21)
(0.868541 -0.0127631 9.77289e-22)
(0.855871 -0.0109093 -3.18245e-21)
(0.89235 -0.0150041 -9.77684e-22)
(0.880738 -0.0140806 -7.77736e-22)
(0.91502 -0.0154153 -2.27605e-22)
(0.904017 -0.0153461 -2.31364e-22)
(0.935749 -0.0145243 -1.65798e-24)
(0.925585 -0.0151424 0)
(0.955152 -0.0124291 0)
(0.945609 -0.0136019 0)
(0.973305 -0.00944096 0)
(0.964399 -0.011019 0)
(0.99014 -0.00583926 0)
(0.981908 -0.00768634 0)
(1.00566 -0.00191698 0)
(0.998083 -0.00390666 0)
(1.01981 0.00209449 0)
(1.01289 8.67957e-05 0)
(1.03253 0.00602122 1.43712e-26)
(1.02633 0.00408857 0)
(1.04387 0.00967262 0)
(1.03838 0.00788367 0)
(1.0538 0.0129396 8.89262e-25)
(1.04901 0.0113642 0)
(1.06239 0.0157078 0)
(1.05826 0.0143896 0)
(1.06966 0.0179114 0)
(1.06619 0.016885 0)
(1.07566 0.0194785 0)
(1.07281 0.0187783 0)
(1.08041 0.020353 0)
(1.07818 0.0200038 0)
(1.08394 0.0205173 0)
(1.0823 0.0205205 0)
(1.08614 0.0199986 7.66062e-23)
(1.08519 0.0203348 -3.87871e-23)
(1.08669 0.0195244 -2.83782e-22)
(1.06364 0.0159126 -6.09161e-23)
(1.07724 0.0174447 2.52117e-22)
(1.06916 0.0169039 -1.96928e-22)
(1.06149 0.014692 0)
(1.0716 0.00835883 -2.10484e-22)
(1.07335 0.0105682 -5.88926e-22)
(1.07258 0.00953707 4.85321e-22)
(1.0694 0.00553642 0)
(1.07057 0.00700782 0)
(1.06653 0.00227761 -9.25617e-27)
(1.06792 0.00398183 0)
(1.06335 -0.00142058 0)
(1.06493 0.000482708 0)
(1.06003 -0.00552634 -1.52826e-24)
(1.06169 -0.00342445 0)
(1.05672 -0.0100373 0)
(1.05837 -0.00773109 0)
(1.05348 -0.0149758 0)
(1.05509 -0.0124524 0)
(1.05035 -0.0203589 1.91228e-24)
(1.05191 -0.017612 0)
(1.0473 -0.0262035 2.03771e-24)
(1.04883 -0.0232225 0)
(1.04426 -0.0325063 0)
(1.04579 -0.0292995 0)
(1.04112 -0.0392212 0)
(1.04271 -0.0358223 0)
(1.03768 -0.0463345 0)
(1.03945 -0.0427257 0)
(1.03378 -0.0537726 0)
(1.03583 -0.0500042 0)
(1.02915 -0.0615073 -2.92361e-24)
(1.03159 -0.0576052 0)
(1.0235 -0.0694531 0)
(1.02648 -0.0654607 0)
(1.01647 -0.077496 0)
(1.02019 -0.0734714 0)
(1.00768 -0.0854957 -7.95925e-26)
(1.01233 -0.0815112 0)
(0.996671 -0.093286 9.40988e-26)
(1.00249 -0.0894331 0)
(0.983245 -0.100758 4.10881e-24)
(0.990167 -0.0970588 0)
(0.967331 -0.107861 -2.30575e-21)
(0.975579 -0.104343 5.42452e-22)
(0.907578 -0.0999485 5.93421e-22)
(0.958012 -0.11106 1.14259e-21)
(0.775922 -0.0368334 -1.06023e-21)
(0.823961 -0.070951 -1.15316e-21)
(1.0868 0.0174952 6.44331e-23)
(1.07399 0.0114012 4.60875e-22)
(0.773037 -0.0174612 1.36406e-22)
(0.856543 -0.0865792 0)
(0.797457 0.00287203 1.62199e-20)
(0.94766 -0.113914 1.85191e-21)
(0.894963 -0.101634 2.52114e-21)
(0.870778 0.0177239 -2.64031e-20)
(0.879911 0.0255687 4.89124e-21)
(0.789457 -0.0543059 0)
(0.875325 0.00894587 2.50603e-21)
(0.872409 0.0138894 1.33243e-21)
(0.894151 0.00235299 2.2004e-21)
(0.883389 0.00515109 -3.42099e-21)
(0.915762 -0.00183198 -1.01468e-21)
(0.905447 0.000149192 -5.18371e-22)
(0.935372 -0.00457754 4.81017e-22)
(0.925716 -0.00343713 5.14976e-22)
(0.954383 -0.00552166 0)
(0.945022 -0.0052214 -2.55783e-24)
(0.972418 -0.00505558 0)
(0.963515 -0.00544291 0)
(0.989532 -0.003495 1.48085e-24)
(0.981101 -0.00439341 0)
(1.0056 -0.0011015 0)
(0.997713 -0.00238141 0)
(1.0205 0.00185294 0)
(1.01321 0.000327128 0)
(1.03414 0.00510658 0)
(1.02748 0.00345876 0)
(1.04644 0.00843607 1.08913e-24)
(1.04046 0.00677372 0)
(1.05739 0.0116484 1.54777e-26)
(1.05209 0.0100681 0)
(1.06695 0.014598 0)
(1.06234 0.0131625 0)
(1.07515 0.0171722 -1.76694e-24)
(1.07122 0.0159396 0)
(1.08203 0.0192757 0)
(1.07876 0.018287 0)
(1.08766 0.0208405 0)
(1.085 0.0201301 0)
(1.09209 0.0217934 0)
(1.09002 0.0213981 0)
(1.09538 0.0220681 0)
(1.09387 0.0220191 0)
(1.09755 0.0216357 0)
(1.09658 0.0219408 0)
(1.09856 0.0205377 -3.80361e-23)
(1.09815 0.0211641 0)
(1.09835 0.0189322 0)
(1.09854 0.0197963 -7.20746e-23)
(1.09689 0.0170031 -2.72077e-25)
(1.09775 0.0180035 0)
(1.07732 0.0168762 -2.55683e-22)
(1.09584 0.015974 1.5188e-23)
(1.08631 0.0166878 1.23002e-22)
(1.06464 0.0158032 9.11884e-23)
(1.06978 0.016555 -6.29865e-23)
(1.06391 0.0137119 -3.17107e-23)
(1.06268 0.0147953 3.15266e-23)
(1.07459 0.012032 0)
(1.06808 0.0127513 -2.92928e-22)
(1.08216 0.00993359 -1.32443e-22)
(1.0826 0.0116581 -2.48883e-22)
(1.08248 0.0108876 5.65435e-22)
(1.08135 0.00747734 -7.22588e-23)
(1.08191 0.00877693 0)
(1.07999 0.00447 0)
(1.08079 0.00602812 0)
(1.07814 0.00105424 -1.30974e-26)
(1.0791 0.00280998 0)
(1.07608 -0.00272771 0)
(1.07712 -0.000797295 0)
(1.07397 -0.00684045 1.52826e-24)
(1.07502 -0.00474401 0)
(1.07192 -0.0113051 0)
(1.07293 -0.00902692 0)
(1.07002 -0.0161734 0)
(1.07095 -0.013686 0)
(1.06826 -0.0214955 0)
(1.06912 -0.0187758 0)
(1.0666 -0.0273058 -2.9494e-26)
(1.06742 -0.0243388 0)
(1.06496 -0.0336183 0)
(1.06579 -0.0304001 0)
(1.06324 -0.0404198 0)
(1.06412 -0.0369607 0)
(1.06128 -0.0476947 0)
(1.0623 -0.0440003 0)
(1.05893 -0.0554176 0)
(1.06017 -0.0515008 0)
(1.05599 -0.0635501 2.92361e-24)
(1.05755 -0.0594344 0)
(1.05222 -0.0720356 0)
(1.05423 -0.0677536 0)
(1.04738 -0.0807871 0)
(1.04996 -0.0763853 0)
(1.04115 -0.0896853 -3.58681e-24)
(1.04446 -0.085227 0)
(1.03317 -0.0985635 3.82267e-24)
(1.03741 -0.0941395 0)
(1.02302 -0.107217 -4.06233e-24)
(1.0284 -0.102935 0)
(1.0105 -0.115581 5.42255e-22)
(1.01692 -0.111409 -1.07242e-21)
(0.995442 -0.12358 -5.52104e-22)
(1.00318 -0.119652 1.1706e-21)
(0.935946 -0.116315 5.64887e-23)
(0.986149 -0.127118 1.19809e-21)
(0.758985 -0.0346244 -1.16112e-21)
(0.80852 -0.0705958 0)
(0.757222 -0.0131226 -1.1529e-20)
(0.840547 -0.0864897 0)
(1.10659 0.0159782 -6.25263e-23)
(1.10509 0.0147629 4.58466e-23)
(1.07497 0.0124722 -2.34267e-22)
(1.08255 0.0122348 -2.64025e-22)
(0.764752 0.00375753 -1.1411e-20)
(0.881237 -0.102744 -2.54592e-21)
(0.855003 0.029028 0)
(0.925832 0.0281845 -3.10202e-21)
(0.923171 -0.118324 -1.21674e-21)
(0.976052 -0.13038 1.83546e-21)
(0.923733 0.0337377 6.07975e-21)
(0.772724 -0.0528329 0)
(0.932842 0.0186964 0)
(0.928962 0.0234642 -2.62197e-21)
(0.948522 0.011611 0)
(0.940018 0.0147638 0)
(0.965744 0.00695052 0)
(0.957362 0.00906865 5.37037e-22)
(0.981785 0.00412576 0)
(0.973848 0.00531704 0)
(0.997423 0.00291518 0)
(0.989666 0.00333566 0)
(1.0125 0.00302506 0)
(1.00505 0.00282802 0)
(1.02682 0.00414442 -1.48085e-24)
(1.01977 0.00347587 0)
(1.04023 0.00601892 0)
(1.03365 0.00500524 0)
(1.05259 0.00839119 0)
(1.04655 0.00716017 0)
(1.06378 0.0110183 0)
(1.05834 0.00968811 0)
(1.07375 0.0136935 -1.89202e-26)
(1.06893 0.0123617 0)
(1.08245 0.0162387 1.64853e-26)
(1.07826 0.014991 0)
(1.08987 0.0185237 0)
(1.08632 0.017421 0)
(1.09604 0.020447 1.24822e-26)
(1.09311 0.0195361 0)
(1.10101 0.0219318 0)
(1.09867 0.0212481 0)
(1.10485 0.0229138 0)
(1.10307 0.0224901 0)
(1.10765 0.0233171 0)
(1.10638 0.0231932 0)
(1.10945 0.0230628 0)
(1.10867 0.0232773 0)
(1.1103 0.0221058 0)
(1.10998 0.0226747 0)
(1.11018 0.0204937 0)
(1.11033 0.0213776 0)
(1.10894 0.018369 6.97945e-23)
(1.10965 0.019486 7.31725e-23)
(1.10789 0.0171812 -1.3144e-22)
(1.07715 0.016262 -1.22413e-22)
(1.0947 0.0149352 0)
(1.08564 0.0158748 -1.24449e-22)
(1.06545 0.0155823 0)
(1.07015 0.0161383 1.24949e-22)
(1.06482 0.0138522 1.85491e-22)
(1.06364 0.01476 -6.28159e-23)
(1.06877 0.0130497 -3.66007e-22)
(1.0914 0.00970913 6.56007e-23)
(1.09099 0.0116955 2.31201e-22)
(1.0915 0.0107906 0)
(1.09136 0.00703704 -1.40653e-22)
(1.09159 0.00845045 1.41133e-22)
(1.09071 0.00385814 0)
(1.09117 0.00550202 0)
(1.08969 0.000307967 -1.6833e-26)
(1.09025 0.00212262 0)
(1.08848 -0.00352258 0)
(1.0891 -0.00157584 0)
(1.08726 -0.00761428 0)
(1.08787 -0.00553485 0)
(1.08612 -0.0120146 0)
(1.08668 -0.00977169 0)
(1.08513 -0.0168056 0)
(1.08561 -0.0143564 0)
(1.08427 -0.0220654 1.83718e-24)
(1.08469 -0.0193733 0)
(1.08349 -0.0278472 -2.00822e-24)
(1.08387 -0.0248895 0)
(1.08272 -0.0341735 0)
(1.08311 -0.0309423 0)
(1.08188 -0.0410467 0)
(1.08232 -0.0375421 0)
(1.08086 -0.0484589 0)
(1.0814 -0.0446872 0)
(1.07954 -0.0563973 0)
(1.08025 -0.0523643 0)
(1.0778 -0.0648331 0)
(1.07874 -0.0605554 0)
(1.07549 -0.0737221 0)
(1.07673 -0.0692248 0)
(1.07241 -0.0829984 -3.17547e-24)
(1.07406 -0.0783173 0)
(1.06835 -0.0925699 3.3796e-24)
(1.07052 -0.0877548 0)
(1.06304 -0.102302 -3.58657e-24)
(1.06587 -0.0974266 0)
(1.05613 -0.112007 0)
(1.05981 -0.107172 0)
(1.0472 -0.12148 0)
(1.05195 -0.11678 0)
(1.03601 -0.130728 4.2403e-24)
(1.0418 -0.126097 5.51284e-22)
(1.02183 -0.13939 -2.96266e-21)
(1.02917 -0.135172 0)
(0.965462 -0.133387 -1.80824e-21)
(1.01381 -0.143457 -3.74724e-23)
(0.741529 -0.0315769 3.70974e-21)
(0.79105 -0.0692517 0)
(1.10336 0.013557 -2.34148e-22)
(1.09064 0.0124001 -4.5195e-22)
(0.732705 -0.0119773 -2.02954e-21)
(0.80744 0.0220055 9.78932e-23)
(0.753226 0.00917553 5.95716e-21)
(0.824258 -0.0860615 0)
(0.864717 -0.102936 6.58807e-22)
(0.903413 0.0398421 -5.78377e-21)
(0.875244 0.0409142 5.34755e-21)
(0.814892 0.0309962 -5.17471e-21)
(0.909093 -0.11976 -1.90958e-21)
(0.953096 -0.135818 1.2774e-21)
(1.00539 -0.147298 1.13354e-21)
(0.755041 -0.0506364 0)
(0.977643 0.0361722 1.60094e-22)
(0.958835 0.0471794 3.3041e-23)
(0.971127 0.0413924 1.27571e-21)
(0.986484 0.0266103 1.20818e-21)
(0.982324 0.0312726 -1.21507e-21)
(0.999058 0.0191961 2.06738e-24)
(0.992421 0.0226259 0)
(1.01271 0.0142728 0)
(1.00595 0.0164331 0)
(1.0258 0.0113126 0)
(1.01932 0.0125898 0)
(1.0385 0.00985352 0)
(1.0322 0.0104117 0)
(1.05069 0.0096336 1.52628e-24)
(1.04467 0.00960815 0)
(1.06217 0.0103578 0)
(1.05653 0.00989597 0)
(1.07283 0.0117642 0)
(1.06762 0.0109922 0)
(1.08252 0.0136081 0)
(1.0778 0.0126468 0)
(1.09115 0.0156645 0)
(1.08697 0.014623 0)
(1.09867 0.0177423 -1.07021e-24)
(1.09505 0.0167115 0)
(1.10505 0.0196838 1.75299e-26)
(1.10201 0.0187384 0)
(1.1103 0.0213701 0)
(1.10782 0.020565 0)
(1.11444 0.0227158 1.71696e-24)
(1.11251 0.0220897 0)
(1.11755 0.0236588 0)
(1.11612 0.023241 0)
(1.1197 0.02414 0)
(1.11874 0.0239614 0)
(1.12098 0.0240802 0)
(1.12044 0.0241836 0)
(1.12145 0.0233858 0)
(1.12131 0.0238183 0)
(1.12113 0.0219911 0)
(1.12138 0.0227783 0)
(1.11999 0.0199242 1.16091e-24)
(1.12067 0.0210368 0)
(1.11798 0.0173461 -7.00969e-23)
(1.11913 0.0186832 0)
(1.11494 0.014517 6.52392e-23)
(1.1166 0.0159373 0)
(1.11099 0.0117383 5.93096e-23)
(1.11309 0.013099 -6.21048e-23)
(1.09322 0.013978 1.17203e-22)
(1.10875 0.0104545 0)
(1.10147 0.0124056 1.75158e-22)
(1.07685 0.0156159 0)
(1.08474 0.0150663 0)
(1.06606 0.0152676 0)
(1.07039 0.015658 0)
(1.06562 0.0138298 0)
(1.06444 0.0145962 0)
(1.07528 0.0127183 2.38778e-22)
(1.0694 0.0131636 5.86233e-23)
(1.09017 0.0128752 5.70818e-23)
(1.08247 0.0126034 4.60991e-22)
(1.09904 0.0121109 3.07337e-22)
(1.09752 0.0135004 5.56804e-23)
(1.09828 0.0129112 -1.16205e-22)
(1.10004 0.00985603 6.35818e-23)
(1.09965 0.0110831 -3.82221e-22)
(1.10047 0.0069544 -1.55521e-26)
(1.10038 0.00848354 0)
(1.10032 0.00358512 0)
(1.10046 0.00532421 0)
(1.09984 -8.87323e-05 -2.03321e-26)
(1.10013 0.00177997 0)
(1.09919 -0.00396194 0)
(1.09953 -0.00200227 0)
(1.09851 -0.00803077 0)
(1.09885 -0.00596862 0)
(1.09792 -0.0123723 0)
(1.0982 -0.0101609 0)
(1.09743 -0.0170983 0)
(1.09766 -0.0146806 0)
(1.09705 -0.0223098 -3.63628e-24)
(1.09723 -0.0196386 0)
(1.09673 -0.0280721 0)
(1.09689 -0.0251199 0)
(1.09642 -0.0344132 0)
(1.09658 -0.0311701 0)
(1.09606 -0.0413393 0)
(1.09625 -0.0378034 0)
(1.09559 -0.048847 0)
(1.09584 -0.0450215 0)
(1.09495 -0.0569268 -2.53002e-24)
(1.0953 -0.0528168 0)
(1.09406 -0.065558 0)
(1.09454 -0.0611756 0)
(1.09285 -0.0747056 0)
(1.09351 -0.0700703 0)
(1.0912 -0.0843191 3.17547e-24)
(1.09209 -0.0794583 0)
(1.08896 -0.0943293 -1.22208e-25)
(1.09017 -0.0892803 0)
(1.08596 -0.104638 7.03538e-24)
(1.08758 -0.0994543 0)
(1.08192 -0.115104 0)
(1.08409 -0.109862 0)
(1.07654 -0.125547 0)
(1.07943 -0.120342 0)
(1.06937 -0.135731 -1.97734e-25)
(1.07322 -0.130681 0)
(1.0599 -0.145605 0)
(1.06493 -0.140731 0)
(1.04862 -0.155059 -1.70672e-21)
(1.05443 -0.150393 0)
(0.995288 -0.150552 -2.51674e-23)
(1.04201 -0.159494 2.86701e-21)
(0.722136 -0.0288858 0)
(0.944448 0.0524343 7.93662e-21)
(0.717343 -0.00569256 1.39946e-21)
(1.1171 0.00964648 -5.92075e-23)
(1.11474 0.00822021 0)
(1.08959 0.0131387 5.42389e-23)
(1.09649 0.0138414 -1.08426e-22)
(0.77276 -0.067343 0)
(0.805318 -0.0846602 0)
(0.742965 0.017952 0)
(0.847473 -0.102738 -6.48814e-22)
(0.89351 -0.120729 -1.26429e-21)
(0.940015 -0.137885 0)
(0.984097 -0.153433 3.08844e-21)
(1.03413 -0.163468 -2.32531e-21)
(0.736184 -0.0477438 0)
(1.00859 0.0533248 -6.07533e-25)
(0.933277 0.0587356 2.47502e-21)
(0.991327 0.0664079 -8.68784e-21)
(0.999561 0.0595913 2.52745e-21)
(1.02219 0.0415258 -7.47799e-22)
(1.01577 0.0469982 -1.26491e-21)
(1.03167 0.0324493 0)
(1.02736 0.0367864 0)
(1.04204 0.0251724 -2.0672e-24)
(1.03668 0.0285615 0)
(1.05304 0.0201903 0)
(1.04757 0.0224026 0)
(1.06363 0.0170681 0)
(1.0584 0.0184351 0)
(1.07377 0.0153764 0)
(1.06876 0.01606 0)
(1.08339 0.0148512 -1.52628e-24)
(1.07866 0.0149866 0)
(1.09231 0.0152048 0)
(1.08794 0.0149359 0)
(1.10043 0.0161781 0)
(1.09648 0.0156295 0)
(1.10766 0.0175387 0)
(1.10417 0.0168239 0)
(1.11393 0.0190793 0)
(1.11092 0.0182984 0)
(1.1192 0.0206248 1.02871e-24)
(1.11669 0.0198611 0)
(1.12346 0.022034 1.86573e-26)
(1.12145 0.0213539 0)
(1.12674 0.0232011 0)
(1.12522 0.0226529 0)
(1.12908 0.0240545 -1.44545e-26)
(1.12803 0.0236702 0)
(1.13056 0.0245437 0)
(1.12993 0.0243473 0)
(1.13126 0.0246147 0)
(1.131 0.0246355 0)
(1.13127 0.0241845 0)
(1.13135 0.0244686 0)
(1.13064 0.023142 0)
(1.13103 0.0237466 0)
(1.12941 0.0213963 0)
(1.1301 0.0223599 0)
(1.12753 0.0189525 -2.30585e-24)
(1.12855 0.0202559 0)
(1.12494 0.0159695 -1.07756e-24)
(1.12631 0.017513 0)
(1.12149 0.0127422 1.30776e-22)
(1.12331 0.0143658 -1.32213e-22)
(1.11939 0.0111532 1.21214e-22)
(1.09171 0.0130592 2.87477e-23)
(1.10651 0.00926823 7.07918e-24)
(1.09949 0.0113761 -8.72832e-23)
(1.07646 0.0149422 0)
(1.08378 0.0142672 0)
(1.06652 0.0148626 -8.91621e-28)
(1.07048 0.0151182 0)
(1.06627 0.0136799 0)
(1.06508 0.0143219 0)
(1.07544 0.0127878 1.14238e-22)
(1.06987 0.0131262 -1.17655e-22)
(1.08229 0.0127758 -8.00314e-24)
(1.10575 0.0127722 -8.02588e-25)
(1.10373 0.0144046 -1.12322e-22)
(1.1048 0.0137028 1.47056e-24)
(1.10707 0.0102625 -6.46834e-23)
(1.10648 0.0116126 6.4793e-23)
(1.10776 0.00710651 -1.11685e-24)
(1.10751 0.00875558 0)
(1.10793 0.00352443 -1.17388e-24)
(1.10791 0.00535703 0)
(1.10774 -0.000281231 -2.33774e-26)
(1.10788 0.00164149 0)
(1.10736 -0.00420453 0)
(1.10757 -0.00222944 0)
(1.10694 -0.00826085 0)
(1.10715 -0.00621077 0)
(1.10657 -0.0125578 0)
(1.10675 -0.0103707 0)
(1.10629 -0.0172351 0)
(1.10642 -0.0148408 0)
(1.10608 -0.0224111 1.7991e-24)
(1.10618 -0.0197554 0)
(1.10593 -0.0281575 1.87916e-24)
(1.106 -0.0252107 0)
(1.1058 -0.0345028 0)
(1.10587 -0.031255 0)
(1.10568 -0.0414524 0)
(1.10574 -0.0379025 0)
(1.10553 -0.0490027 0)
(1.10561 -0.0451532 0)
(1.10534 -0.0571457 2.53002e-24)
(1.10545 -0.0530013 0)
(1.10509 -0.0658649 -2.61151e-24)
(1.10523 -0.061435 0)
(1.10473 -0.075133 0)
(1.10493 -0.0704328 0)
(1.10423 -0.084912 0)
(1.10451 -0.0799618 0)
(1.10349 -0.0951502 -1.30034e-25)
(1.1039 -0.0899779 0)
(1.1024 -0.105776 -6.7515e-24)
(1.103 -0.100421 0)
(1.10079 -0.116693 0)
(1.10168 -0.111206 0)
(1.09841 -0.127769 0)
(1.09972 -0.122223 0)
(1.09495 -0.138805 -2.04216e-25)
(1.09684 -0.133302 0)
(1.09007 -0.149634 0)
(1.09272 -0.144266 0)
(1.08351 -0.160023 1.08718e-21)