/*--------------------------------*- C++ -*----------------------------------*\
  =========                 |
  \\      /  F ield         | OpenFOAM: The Open Source CFD Toolbox
   \\    /   O peration     | Website:  https://openfoam.org
    \\  /    A nd           | Version:  10
     \\/     M anipulation  |
\*---------------------------------------------------------------------------*/
FoamFile
{
    format      ascii;
    class       volScalarField;
    location    "21.5";
    object      p;
}
// * * * * * * * * * * * * * * * * * * * * * * * * * * * * * * * * * * * * * //

dimensions      [0 2 -2 0 0 0 0];

internalField   nonuniform List<scalar> 
28942
(
-2.36279
-2.42381
-3.49735
0.743959
0.793531
-0.0472493
-0.0431258
-0.0484354
-0.584992
-0.513278
-6.94499
-6.75399
-6.60279
-6.66052
-0.0339812
-0.0216605
2.63466
2.73556
-0.630157
0.28703
2.20827
2.19656
-6.99195
-7.00782
-7.13936
-6.45988
3.8192
4.11248
-1.69308
-1.62667
-0.15174
-0.147504
0.0252498
-0.0421836
1.05081
1.30774
3.06967
3.68007
-0.0703419
2.66965
1.78285
1.74273
0.328808
0.352746
0.381684
-0.0340182
-0.0313306
-0.019066
-0.0210348
-0.023082
-0.0116975
-0.00137607
-0.0168826
-0.595057
-0.510187
-4.7415
-3.96403
-6.68001
-6.59485
-6.67064
-6.72681
-6.70629
-6.68821
-2.81284
-3.36604
-2.20728
-1.76677
1.87258
1.67141
-2.3104
-2.35231
-2.46054
1.64878
1.63842
1.59334
-0.905704
-0.896615
-0.480899
-3.30993
-3.98949
-3.00061
-4.13834
-2.32164
-2.36155
0.376036
0.819725
1.21548
1.02814
0.683604
0.704613
0.906554
1.17343
-7.11401
-7.35988
-6.70536
-6.52241
-6.31707
0.93576
1.08919
-2.48098
0.836813
0.85233
0.909902
0.84247
-0.171567
-0.191122
-0.2356
1.39035
1.42961
1.43253
-6.6516
-6.64062
-2.58537
-2.49856
-2.44994
5.07274
4.69354
4.542
4.86504
0.550571
1.31556
0.979942
-1.10826
-1.31672
5.32331
5.41578
5.12475
-1.13931
-0.806826
-0.0161397
-0.00871772
-0.0193929
1.67432
2.47329
1.46289
1.42794
1.63233
-0.0918594
0.991541
2.49892
-6.41981
-6.47463
-0.739345
0.411596
0.421084
-3.33018
-3.3627
-2.99746
-6.49938
1.55837
1.49081
0.447057
-0.109615
-0.119934
-0.112902
-0.111433
2.00604
1.09981
-3.99858
-3.50645
-3.16994
-2.01765
-1.85723
-0.0794223
-6.04664
-5.89624
2.33977
2.43489
2.60235
2.51188
2.21215
0.667673
0.647523
-0.297658
-0.328019
1.26958
1.21195
1.31227
1.36095
1.36013
1.43005
1.49856
1.6862
1.58469
1.5
1.61279
1.80069
2.11735
2.1861
-1.79432
-1.55934
-2.5853
-0.0303436
-0.0121981
-3.65219
-3.45776
-0.017677
-0.0111015
-0.0104393
-0.0200589
-2.52366
-2.71193
-2.77092
-6.6039
-6.6122
-6.55564
-6.8499
-6.86479
-6.80255
-7.13835
-7.38646
-7.19205
5.00968
4.81189
5.06184
-0.127372
-0.0751621
-0.136304
2.30081
2.20085
2.27114
-1.58749
-1.63795
-1.56491
-1.71767
-1.826
-1.95935
-1.84776
-2.11746
-1.98087
-1.73441
-1.64094
-1.57321
-1.53326
-1.52097
-2.28695
-2.13174
-1.56914
-1.53582
-1.60403
-2.45226
-2.28681
-1.58073
-2.6081
-2.74563
-2.42931
-2.55421
-1.66982
-1.65597
-2.84845
-2.64973
-1.76926
-1.76568
-2.90493
-2.70501
-1.90616
-1.91388
-2.90802
-2.71272
-2.08442
-2.10491
-2.85934
-2.67213
-2.30726
-2.34054
-2.76334
-2.58833
-2.57352
-2.61847
-2.63009
-2.46997
-2.87479
-2.93157
-2.46966
-2.32507
-3.20593
-3.27315
-2.29548
-2.16517
-3.54238
-3.62168
-2.11694
-1.99833
-3.87301
-3.96311
-1.94169
-1.83663
-4.16991
-4.26815
-1.77244
-1.68717
-3.68462
-3.96529
-4.40824
-4.51081
-3.05099
-3.37737
-2.4581
-2.74431
-2.01115
-2.21283
-1.73075
-1.85168
-1.5925
-1.64563
-1.57835
-1.57182
-1.67315
-1.61252
-1.88333
-1.76282
-2.20422
-2.03109
-2.56581
-2.38663
-2.87695
-2.73319
-3.0369
-2.98178
-2.98202
-3.03666
-2.73492
-2.87806
-2.37877
-2.56427
-1.99976
-2.18866
-1.8244
-1.62463
-1.55479
-1.86145
-1.58081
-1.71469
-2.15748
-2.01228
-2.39003
-2.28555
-2.49814
-2.46298
-2.43468
-2.4867
-2.23406
-2.34741
-1.96394
-2.1032
-1.71147
-1.82924
-1.53565
-1.61269
-1.45297
-1.48166
-1.47201
-1.44913
-1.60501
-1.52297
-1.8756
-1.72103
-2.31403
-2.07281
-2.9181
-2.59764
-3.61944
-3.26306
-4.26524
-3.96138
-4.50921
-4.18881
-1.66804
-1.46399
-4.67165
-4.67066
-4.3295
-4.56796
-3.4086
-3.87037
-3.66434
-2.82924
-3.12417
-2.2973
-2.54927
-1.90667
-2.0825
-1.66584
-1.7687
-1.55677
-1.5961
-1.5626
-1.54615
-1.67843
-1.6063
-1.91022
-1.78088
-2.24787
-2.068
-2.62296
-2.4365
-2.94324
-2.79628
-3.10406
-3.04927
-3.0434
-3.10193
-2.78432
-2.9341
-2.41308
-2.60633
-2.02158
-2.21517
-1.50097
-1.53596
-1.68275
-1.84285
-1.45717
-1.35595
-1.36548
-1.44396
-1.7017
-1.57433
-1.95872
-1.83214
-2.1619
-2.07113
-2.25406
-2.2243
-2.19172
-2.24008
-2.0113
-2.11295
-1.77454
-1.89509
-1.55808
-1.6596
-1.41
-1.47403
-1.35039
-1.36902
-1.38426
-1.35491
-1.52767
-1.44112
-1.8044
-1.64736
-2.24411
-2.00285
-2.84476
-2.52692
-3.5352
-3.18619
-4.16881
-3.87025
-4.56474
-4.40643
-4.00468
-4.73314
-4.62871
-4.73364
-1.54701
-1.27109
-4.3605
-4.04759
-4.67047
-4.56811
-4.64707
-1.66891
-1.53103
-1.29051
-1.20699
-3.66316
-4.01365
-3.47494
-3.63585
-3.479
-3.60453
-3.07136
-3.29522
-2.56748
-2.82153
-2.11041
-2.32503
-1.77882
-1.9281
-1.57748
-1.66243
-1.49538
-1.52243
-1.52029
-1.49486
-1.65468
-1.57337
-1.90211
-1.76466
-2.24749
-2.06516
-2.63015
-2.43948
-2.95545
-2.8069
-3.11454
-3.06137
-3.0479
-3.10964
-2.78142
-2.935
-2.40321
-2.59976
-2.00906
-2.20274
-1.8293
-1.40585
-1.43576
-1.43198
-1.3575
-1.31737
-1.1608
-1.23175
-1.52331
-1.41646
-1.7418
-1.63431
-1.91423
-1.83754
-1.98807
-1.9656
-1.93183
-1.97484
-1.77413
-1.86264
-1.57203
-1.6742
-1.39109
-1.47571
-1.27137
-1.32224
-1.23061
-1.24055
-1.27729
-1.24238
-1.42587
-1.33766
-1.70135
-1.54583
-2.13153
-1.89616
-2.71379
-2.40617
-3.37926
-3.04354
-3.98654
-3.70084
-4.36695
-4.2145
-4.37557
-4.43946
-4.39659
-4.21275
-4.33087
-4.67139
-1.41652
-1.10619
-3.88811
-4.49496
-3.27891
-3.95985
-4.13182
-2.59525
-2.37137
-4.56949
-3.05085
-2.84605
-3.22307
-3.19227
-3.05469
-3.16778
-2.70384
-2.8953
-2.28404
-2.49636
-1.90615
-2.0841
-1.62981
-1.75417
-1.4657
-1.53384
-1.40811
-1.4242
-1.45086
-1.417
-1.59911
-1.51137
-1.8554
-1.71408
-2.20331
-2.02023
-2.58789
-2.39638
-2.91072
-2.76415
-3.06467
-3.01393
-2.99545
-3.05818
-2.72842
-2.88204
-2.35156
-2.54723
-1.96152
-2.15278
-1.62571
-1.78467
-1.37373
-1.48775
-1.35247
-1.28223
-1.3274
-1.33759
-1.35573
-1.24023
-1.29828
-1.07037
-1.16346
-1.03485
-0.96369
-0.991786
-1.16366
-1.09274
-1.33549
-1.24662
-1.51607
-1.42695
-1.65801
-1.59529
-1.70853
-1.6978
-1.66516
-1.70137
-1.53137
-1.60617
-1.36379
-1.44805
-1.21668
-1.28508
-1.12325
-1.16208
-1.09921
-1.10191
-1.15477
-1.11642
-1.30398
-1.21643
-1.57141
-1.42113
-1.98225
-1.75813
-2.53176
-2.24216
-3.15573
-2.84105
-3.72555
-3.45767
-4.07507
-3.93782
-4.08274
-4.11495
-3.71188
-3.94251
-3.639
-3.41234
-4.20311
-4.50332
-3.69734
-4.2276
-1.31017
-1.21942
-1.05315
-0.953597
-3.03575
-3.80049
-2.33512
-2.25882
-3.28171
-3.07411
-2.14066
-4.40926
-2.61467
-2.43648
-2.7671
-2.73076
-2.62827
-2.72601
-2.33936
-2.49574
-1.99765
-2.16974
-1.68877
-1.83479
-1.46245
-1.56388
-1.33315
-1.38561
-1.29844
-1.30431
-1.3569
-1.31583
-1.51458
-1.42292
-1.77393
-1.6319
-2.11955
-1.93815
-2.49773
-2.30995
-2.81133
-2.6694
-2.95919
-2.91078
-2.88941
-2.95177
-2.62732
-2.77775
-2.26012
-2.45051
-1.88231
-2.0676
-1.55685
-1.71048
-1.42264
-1.2965
-1.21514
-1.26545
-1.29618
-1.30713
-1.21224
-1.26451
-1.14081
-0.900563
-0.849881
-0.868037
-1.0036
-0.946
-1.14295
-1.07017
-1.28972
-1.21761
-1.40343
-1.35342
-1.44345
-1.43453
-1.40238
-1.43369
-1.29167
-1.35323
-1.15618
-1.22389
-1.04021
-1.09371
-0.970015
-0.998371
-0.960044
-0.95682
-1.02121
-0.981098
-1.16717
-1.08241
-1.42071
-1.27889
-1.80385
-1.59549
-2.3099
-2.04396
-2.87927
-2.59251
-3.40029
-3.15478
-3.72058
-3.59484
-3.72101
-3.76554
-3.39685
-3.59697
-2.81761
-3.12867
-2.72573
-2.49651
-3.98677
-4.24454
-1.14971
-0.843055
-3.38819
-2.46736
-2.74616
-3.89956
-3.43909
-2.05022
-1.9258
-2.21851
-2.92175
-2.4012
-2.18883
-4.16533
-1.94893
-1.73104
-1.85761
-2.19338
-2.0645
-2.32351
-2.29009
-2.21686
-2.29271
-1.98756
-2.112
-1.71375
-1.8518
-1.46417
-1.58231
-1.28351
-1.36378
-1.18654
-1.22444
-1.17305
-1.16947
-1.24459
-1.19786
-1.40752
-1.31424
-1.66482
-1.52468
-2.00151
-1.82546
-2.36505
-2.18499
-2.66387
-2.5289
-2.80345
-2.7582
-2.73462
-2.79509
-2.48392
-2.62757
-2.13451
-2.31546
-1.77541
-1.9517
-1.46596
-1.6121
-1.22998
-1.33842
-1.07223
-1.14129
-1.17395
-1.02342
-1.10321
-1.26667
-1.2295
-1.27882
-1.2834
-1.20514
-1.25267
-1.05442
-1.13757
-0.852428
-0.958693
-0.729105
-0.740421
-0.728415
-0.764553
-0.741961
-0.843175
-0.79918
-0.952948
-0.895411
-1.06907
-1.01216
-1.15768
-1.11896
-1.18766
-1.18126
-1.1512
-1.17767
-1.06175
-1.11107
-0.95555
-1.0083
-0.866764
-0.907393
-0.81641
-0.835889
-0.8178
-0.809961
-0.8816
-0.841274
-1.02078
-0.940684
-1.25583
-1.12493
-1.60505
-1.4158
-2.05967
-1.82152
-2.56564
-2.31134
-3.02731
-2.80948
-3.31374
-3.20079
-3.312
-3.36173
-3.02063
-3.19755
-2.52188
-2.78903
-1.96518
-2.23954
-1.91566
-1.71187
-3.66487
-1.60904
-3.04684
-0.983993
-0.933967
-0.876472
-0.76708
-3.91508
-3.53533
-2.49673
-3.07013
-2.57727
-2.10486
-1.67709
-1.49312
-3.83897
-1.43989
-1.4952
-1.21575
-1.32429
-1.6356
-1.55141
-1.80377
-1.71564
-1.9036
-1.87573
-1.82759
-1.88325
-1.65159
-1.74797
-1.43671
-1.54534
-1.24023
-1.33306
-1.10138
-1.1623
-1.0337
-1.05847
-1.03867
-1.02706
-1.11954
-1.06922
-1.28331
-1.19065
-1.53338
-1.39787
-1.85459
-1.68728
-2.19703
-2.02779
-2.47637
-2.3505
-2.60547
-2.564
-2.53996
-2.5969
-2.30552
-2.43973
-1.9801
-2.14849
-1.64612
-1.81009
-1.35698
-1.49388
-1.13522
-1.23741
-1.051
-1.1573
-0.99411
-1.08153
-1.26091
-1.21829
-1.2821
-1.28247
-1.21592
-1.25964
-1.0734
-1.15264
-0.98051
-0.608543
-0.627462
-0.612315
-0.630622
-0.615396
-0.687676
-0.655047
-0.77074
-0.726967
-0.859552
-0.816037
-0.926594
-0.897499
-0.947919
-0.943872
-0.916951
-0.938702
-0.846925
-0.885134
-0.766236
-0.806077
-0.700573
-0.730325
-0.666536
-0.67881
-0.67634
-0.665302
-0.740197
-0.700922
-0.869962
-0.79588
-1.08345
-0.965066
-1.39516
-1.22688
-1.79429
-1.58602
-2.23246
-2.01284
-2.62806
-2.44194
-2.86893
-2.77588
-2.86477
-2.88779
-2.6109
-2.76735
-2.18936
-2.41262
-1.7211
-1.95588
-1.30253
-1.49956
-1.96363
-1.75239
-1.30767
-1.13689
-3.29573
-0.90131
-0.653889
-1.13714
-3.54542
-1.37363
-2.75555
-3.15731
-2.25894
-2.71778
-2.27277
-1.85269
-1.47773
-1.15616
-0.996044
-3.46568
-0.984916
-1.07694
-0.876301
-0.92269
-1.16592
-1.06997
-1.32863
-1.25529
-1.45131
-1.39242
-1.5214
-1.50043
-1.46878
-1.50855
-1.33711
-1.40978
-1.17356
-1.25633
-1.02475
-1.09478
-0.92303
-0.966898
-0.880351
-0.894083
-0.89962
-0.882082
-0.985602
-0.933791
-1.14625
-1.05619
-1.38456
-1.25607
-1.68524
-1.52915
-2.00193
-1.84586
-2.25813
-2.1429
-2.37571
-2.338
-2.31516
-2.36764
-2.1008
-2.22331
-1.80456
-1.95779
-1.50019
-1.6498
-1.23472
-1.36076
-1.02982
-1.12423
-0.886769
-0.950638
-0.804784
-0.838303
-0.987001
-0.786713
-0.887762
-1.1629
-1.08048
-1.27625
-1.22951
-1.30401
-1.30125
-1.2445
-1.28465
-1.1099
-1.18561
-0.917897
-1.01979
-0.691955
-0.807054
-0.514056
-0.576023
-0.540271
-0.491729
-0.498268
-0.500739
-0.492275
-0.539844
-0.51711
-0.600011
-0.568116
-0.66539
-0.633328
-0.71445
-0.693273
-0.728753
-0.726655
-0.703538
-0.720667
-0.650615
-0.679251
-0.591329
-0.620427
-0.544498
-0.565452
-0.523336
-0.529992
-0.539048
-0.525974
-0.600951
-0.563699
-0.719478
-0.652307
-0.909625
-0.804656
-1.18225
-1.03567
-1.52515
-1.347
-1.89559
-1.71052
-2.22626
-2.07122
-2.4253
-2.34837
-2.41995
-2.44444
-2.20136
-2.33597
-1.84332
-2.03101
-1.45841
-1.65009
-1.10913
-1.27623
-0.838795
-0.963166
-1.75844
-1.60771
-0.881852
-0.734864
-2.95361
-3.16346
-0.839245
-1.02579
-1.27178
-2.49886
-2.79248
-0.705309
-0.683861
-0.742236
-0.623765
-2.00266
-2.39584
-2.00522
-1.63907
-1.31398
-1.03246
-0.811574
-0.65712
-0.647515
-0.792086
-0.651489
-0.794762
-3.09204
-0.694827
-0.67037
-0.771501
-0.728721
-0.909318
-0.832956
-1.04167
-0.981265
-1.13623
-1.09284
-1.1842
-1.16942
-1.14761
-1.17586
-1.05135
-1.10465
-0.93141
-0.992045
-0.823511
-0.874009
-0.75289
-0.782623
-0.730013
-0.735204
-0.759233
-0.737823
-0.846983
-0.795253
-1.0014
-0.915522
-1.22438
-1.10473
-1.50099
-1.3579
-1.78878
-1.64736
-2.01963
-1.916
-2.12504
-2.091
-2.07096
-2.11807
-1.87936
-1.98865
-1.61544
-1.75196
-1.34342
-1.47734
-1.10395
-1.218
-0.91679
-1.00331
-0.78463
-0.844329
-0.738555
-1.00122
-0.784025
-0.894174
-1.18923
-1.10084
-1.31008
-1.26001
-1.34457
-1.33833
-1.29246
-1.32893
-1.16443
-1.23703
-0.973658
-1.07562
-0.860766
-0.404379
-0.463309
-0.429279
-0.378741
-0.388673
-0.378206
-0.375324
-0.402046
-0.387533
-0.443269
-0.421209
-0.489313
-0.4667
-0.523717
-0.508973
-0.532667
-0.531896
-0.513122
-0.526072
-0.474615
-0.495282
-0.432672
-0.453131
-0.400682
-0.414755
-0.389284
-0.391756
-0.408673
-0.39458
-0.467047
-0.432538
-0.573289
-0.513478
-0.739839
-0.648289
-0.974181
-0.848748
-1.2628
-1.11367
-1.56804
-1.41624
-1.83773
-1.71141
-1.9984
-1.93662
-1.99121
-2.01578
-1.80966
-1.92046
-1.50964
-1.66778
-1.19276
-1.34879
-0.909288
-1.04535
-0.680011
-0.786519
-0.514672
-0.591582
-0.984847
-0.581714
-0.717608
-0.52421
-0.394337
-0.44924
-1.58652
-1.46558
-2.65317
-2.79856
-0.67615
-0.507749
-1.18528
-2.24576
-2.46099
-1.78297
-2.11383
-1.77743
-1.46515
-1.18287
-0.934143
-0.649179
-0.505913
-0.527847
-0.271445
-0.228059
-0.350679
-0.666341
-0.792237
-0.954095
-0.660113
-0.477846
-2.74833
-0.501513
-0.497656
-0.535202
-0.515027
-0.599432
-0.564311
-0.694034
-0.642577
-0.791074
-0.7459
-0.860099
-0.828939
-0.893064
-0.882734
-0.868045
-0.887753
-0.799489
-0.837455
-0.714701
-0.757439
-0.639742
-0.674567
-0.593566
-0.612301
-0.585526
-0.584433
-0.621374
-0.597571
-0.708448
-0.657999
-0.854055
-0.773667
-1.05908
-0.949539
-1.30932
-1.18035
-1.56656
-1.44046
-1.77115
-1.67943
-1.86429
-1.8343
-1.81719
-1.85819
-1.6503
-1.74549
-1.42034
-1.53935
-1.18193
-1.2996
-0.969311
-1.07099
-0.800524
-0.878879
-0.68038
-0.734574
-0.604483
-0.636925
-0.57045
-0.581548
-0.799358
-0.572006
-0.683161
-1.03361
-0.917717
-1.23386
-1.14088
-1.36229
-1.30836
-1.40581
-1.39494
-1.36185
-1.39464
-1.23696
-1.30859
-1.04435
-1.14817
-0.806845
-0.928694
-0.561869
-0.684391
-0.356568
-0.445286
-0.396564
-0.301736
-0.324906
-0.272318
-0.284221
-0.264301
-0.265677
-0.275996
-0.267981
-0.302016
-0.287793
-0.332628
-0.317532
-0.35549
-0.345777
-0.360614
-0.360618
-0.346177
-0.355551
-0.31936
-0.333637
-0.290927
-0.304714
-0.27013
-0.279055
-0.265814
-0.265319
-0.28709
-0.27278
-0.340851
-0.309543
-0.434469
-0.382088
-0.578053
-0.49945
-0.776563
-0.670757
-1.01587
-0.892986
-1.26178
-1.14041
-1.47479
-1.37512
-1.60224
-1.55337
-1.5914
-1.61488
-1.44424
-1.5331
-1.20204
-1.33093
-0.940467
-1.06886
-0.710931
-0.820811
-0.522766
-0.611143
-0.378317
-0.445702
-0.32128
-1.46658
-1.35621
-0.312437
-0.190371
-2.38707
-2.47283
-1.12788
-2.01127
-2.174
-0.468684
-0.465103
-0.62885
-0.50297
-1.61701
-1.876
-1.59127
-1.32564
-1.08201
-0.861379
-0.561171
-0.432307
-0.470145
-0.604222
-0.695208
-0.804368
-0.934727
-0.618788
-0.446009
-0.159972
-0.284771
-2.4488
-0.380366
-0.400092
-0.371766
-0.372768
-0.389002
-0.377712
-0.433587
-0.407534
-0.501396
-0.465364
-0.572542
-0.538747
-0.622421
-0.600366
-0.645505
-0.637933
-0.629475
-0.642552
-0.582492
-0.608559
-0.52478
-0.553758
-0.47497
-0.497864
-0.447173
-0.457688
-0.449979
-0.444351
-0.489897
-0.464878
-0.574056
-0.526011
-0.708714
-0.634851
-0.894155
-0.795491
-1.11701
-1.00254
-1.34336
-1.23267
-1.52185
-1.44197
-1.60327
-1.57704
-1.56377
-1.59838
-1.42216
-1.50302
-1.22616
-1.32775
-1.02088
-1.12256
-0.834792
-0.924209
-0.684355
-0.754536
-0.575584
-0.624838
-0.504973
-0.53605
-0.482268
-0.831489
-0.585334
-0.706619
-1.08351
-0.958619
-1.29511
-1.19707
-1.43477
-1.37488
-1.49046
-1.47372
-1.4543
-1.48402
-1.32911
-1.40185
-1.13254
-1.23875
-0.886662
-1.01304
-0.757747
-0.256775
-0.335913
-0.292191
-0.20572
-0.228546
-0.173922
-0.187478
-0.160176
-0.16483
-0.162563
-0.159541
-0.176782
-0.168605
-0.195471
-0.186147
-0.209597
-0.203645
-0.212117
-0.212543
-0.202019
-0.208436
-0.184327
-0.193677
-0.165996
-0.174841
-0.153334
-0.158542
-0.153915
-0.151433
-0.175709
-0.161775
-0.224233
-0.196339
-0.305488
-0.260287
-0.427458
-0.360968
-0.59317
-0.5052
-0.788983
-0.689026
-0.984273
-0.88875
-1.14778
-1.07187
-1.24432
-1.20726
-1.23296
-1.2533
-1.11436
-1.18524
-0.924268
-1.02549
-0.712013
-0.817291
-0.523928
-0.613609
-0.37059
-0.443035
-0.247575
-0.305592
-0.152827
-0.196719
-0.0758948
-0.112289
-0.135101
-0.0189951
-0.0445696
-1.37105
-1.26832
-2.14957
-2.1962
-0.471806
-0.385525
-1.09112
-1.80995
-1.93454
-1.49355
-1.68253
-1.44381
-1.21768
-1.0049
-0.805445
-0.512665
-0.384899
-0.429577
0.0859514
0.105841
0.00100813
-0.566528
-0.652014
-0.734572
-0.83016
-0.934123
-0.590173
-0.423181
-0.265322
-0.117872
-2.19454
-0.313295
-0.346619
-0.265732
-0.284824
-0.254526
-0.256995
-0.265159
-0.257527
-0.29401
-0.277087
-0.339224
-0.31529
-0.387489
-0.364138
-0.42166
-0.406873
-0.437646
-0.431442
-0.428484
-0.436544
-0.397996
-0.414994
-0.360623
-0.3793
-0.329568
-0.343571
-0.315439
-0.319854
-0.325983
-0.317222
-0.367617
-0.34252
-0.446832
-0.402141
-0.569113
-0.502401
-0.734267
-0.646758
-0.929839
-0.829704
-1.12614
-1.03037
-1.27989
-1.21114
-1.35064
-1.32758
-1.31922
-1.34744
-1.20211
-1.26911
-1.03857
-1.12355
-0.864779
-0.951269
-0.703946
-0.781649
-0.571181
-0.633445
-0.473235
-0.517865
-0.408712
-0.437102
-0.372212
-0.387419
-0.367323
-0.364867
-0.613118
-0.377406
-0.489802
-0.878967
-0.743637
-1.1489
-1.01706
-1.37354
-1.26863
-1.52987
-1.46139
-1.60021
-1.57689
-1.57038
-1.5981
-1.44188
-1.51744
-1.23713
-1.34757
-0.981246
-1.1135
-0.704388
-0.842896
-0.443443
-0.570138
-0.234377
-0.326347
-0.277285
-0.165194
-0.19685
-0.117331
-0.139506
-0.0843174
-0.0987528
-0.0664632
-0.0735091
-0.0619334
-0.0626524
-0.0673058
-0.0636625
-0.0771023
-0.0720605
-0.0848723
-0.0816153
-0.0857685
-0.0863445
-0.0791623
-0.083248
-0.0682732
-0.0739945
-0.0571279
-0.0624971
-0.0500886
-0.0527368
-0.0538594
-0.0501518
-0.075124
-0.0620134
-0.118066
-0.0936538
-0.187584
-0.149111
-0.29001
-0.234376
-0.427034
-0.354567
-0.585682
-0.505222
-0.738612
-0.664587
-0.861684
-0.805142
-0.931178
-0.904971
-0.920291
-0.936807
-0.826392
-0.882371
-0.678663
-0.756907
-0.511399
-0.595462
-0.356466
-0.430775
-0.229145
-0.289411
-0.125328
-0.174672
-0.0401321
-0.0806409
0.0317906
-0.00236631
0.0609866
-1.30762
-1.21227
0.01608
0.122594
-1.94118
-1.96801
-1.06867
-1.65003
-1.74313
-0.270034
-0.274038
-0.510111
-0.384279
-1.4075
-1.53122
-1.3302
-1.13632
-0.947682
-0.764979
-0.483917
-0.349905
-0.404005
-0.548044
-0.63089
-0.707163
-0.786262
-0.868176
-0.954376
-0.572093
-0.409537
-0.252827
-0.107906
0.134371
0.0236268
-1.98106
-0.266019
-0.304011
-0.208339
-0.235267
-0.167788
-0.185411
-0.15115
-0.156933
-0.151485
-0.149372
-0.167431
-0.157389
-0.197687
-0.181357
-0.230821
-0.214714
-0.254094
-0.244363
-0.26513
-0.258219
-0.260778
-0.265348
-0.242343
-0.252675
-0.219949
-0.23104
-0.202792
-0.210189
-0.198811
-0.198718
-0.214595
-0.203866
-0.255994
-0.231735
-0.328956
-0.288173
-0.43829
-0.378931
-0.583309
-0.506766
-0.752623
-0.666188
-0.920762
-0.838926
-1.05186
-0.993276
-1.11328
-1.09271
-1.08999
-1.11209
-0.995681
-1.04981
-0.862075
-0.931787
-0.717006
-0.789658
-0.579356
-0.646272
-0.463165
-0.517946
-0.375606
-0.415712
-0.316705
-0.342829
-0.281499
-0.296812
-0.27247
-0.653872
-0.395555
-0.52068
-0.94181
-0.794551
-1.22763
-1.08831
-1.47074
-1.35578
-1.64878
-1.56964
-1.73451
-1.70476
-1.70906
-1.73594
-1.57498
-1.65456
-1.35737
-1.47471
-1.08643
-1.2264
-0.79181
-0.939894
-0.64743
-0.142173
-0.222387
-0.179007
-0.0821216
-0.109941
-0.036569
-0.0577765
-0.00371582
-0.0184664
0.0167265
0.00806137
0.0261608
0.022741
0.0271847
0.0275307
0.0237886
0.0257554
0.0204697
0.0218691
0.0204833
0.0199438
0.024405
0.0220549
0.0304836
0.0272995
0.0368276
0.0337533
0.0401414
0.0391982
0.0344316
0.0388065
0.0144013
0.0264104
-0.0229912
-0.00193695
-0.0816908
-0.0493698
-0.166567
-0.120629
-0.278696
-0.219541
-0.406773
-0.342133
-0.526021
-0.469077
-0.616708
-0.575652
-0.665025
-0.647361
-0.653626
-0.667416
-0.58074
-0.624091
-0.466096
-0.52673
-0.336738
-0.40205
-0.210935
-0.272276
-0.102719
-0.154295
-0.0130312
-0.0558364
0.0633715
0.0264657
0.129801
0.0980415
0.181182
0.157878
0.216529
0.200329
0.139849
0.234914
0.228443
-1.27067
-1.18105
-1.76727
-1.78658
-0.284581
-0.268714
-1.06272
-1.53169
-1.59623
-1.35192
-1.41723
-1.24639
-1.07751
-0.90819
-0.738794
-0.463352
-0.31301
-0.365837
0.314557
0.31646
0.235748
-0.534151
-0.622901
-0.707075
-0.776568
-0.849375
-0.919879
-0.992251
-0.565055
-0.40476
-0.250026
-0.105575
0.0242047
0.138231
-1.80664
-0.228246
-0.267296
-0.159093
-0.190316
-0.112298
-0.134384
-0.0781111
-0.0932011
-0.060138
-0.0672324
-0.0552052
-0.0562453
-0.0613852
-0.0568568
-0.0787833
-0.0689358
-0.100235
-0.0896326
-0.117566
-0.109686
-0.12502
-0.125018
-0.122045
-0.124548
-0.112007
-0.117624
-0.100378
-0.105993
-0.0933703
-0.0959265
-0.0967628
-0.0934285
-0.115845
-0.104028
-0.155798
-0.132886
-0.222022
-0.185309
-0.318541
-0.266399
-0.444296
-0.378162
-0.589152
-0.5154
-0.731682
-0.662446
-0.842715
-0.793009
-0.89611
-0.877728
-0.880399
-0.896766
-0.806733
-0.849294
-0.699677
-0.755893
-0.579925
-0.640372
-0.462949
-0.520196
-0.361924
-0.409824
-0.284152
-0.319986
-0.230241
-0.254387
-0.197032
-0.211397
-0.181445
-0.186796
-0.187346
-0.181378
-0.425235
-0.199619
-0.304877
-0.704307
-0.559523
-1.01374
-0.857142
-1.31832
-1.169
-1.58695
-1.45858
-1.78964
-1.699
-1.89013
-1.85449
-1.86784
-1.89452
-1.72632
-1.81095
-1.49167
-1.61841
-1.20036
-1.35036
-0.887931
-1.04537
-0.583343
-0.731662
-0.31989
-0.445502
-0.127703
-0.208875
-0.166888
-0.0599721
-0.0919742
-0.00643329
-0.0320068
0.0360505
0.0160087
0.0679213
0.053233
0.0896812
0.0800143
0.102342
0.0970676
0.107783
0.10582
0.108817
0.108656
0.108522
0.108667
0.108999
0.108599
0.110934
0.109786
0.113863
0.112302
0.11726
0.115598
0.118205
0.118347
0.1115
0.116122
0.0932001
0.103927
0.0611639
0.0790536
0.0122159
0.0390442
-0.0573709
-0.0198278
-0.148336
-0.100436
-0.251403
-0.199522
-0.344976
-0.300839
-0.411222
-0.381995
-0.443241
-0.432072
-0.431452
-0.44325
-0.375116
-0.408385
-0.286059
-0.333403
-0.185104
-0.235997
-0.084728
-0.134391
0.00750707
-0.0371453
0.0872213
0.0489108
0.156429
0.12291
0.216849
0.187853
0.265365
0.242955
0.298658
0.284215
0.308872
-1.25944
-1.17193
0.232904
0.315386
-1.6315
-1.64773
-1.0769
-1.44928
-1.48802
-0.100818
-0.106055
-0.374084
-0.253629
-1.32492
-1.33618
-1.18828
-1.03904
-0.8848
-0.726153
-0.424689
-0.262931
-0.308692
-0.493105
-0.613209
-0.710168
-0.798124
-0.863565
-0.927219
-0.987358
-1.04756
-0.569496
-0.410716
-0.256322
-0.111779
0.0181881
0.131667
0.311956
0.227031
-1.66986
-0.184845
-0.220971
-0.122271
-0.153391
-0.0671769
-0.0924684
-0.0286718
-0.0467559
0.000844482
-0.0126932
0.020226
0.0118118
0.0298974
0.0262053
0.0306218
0.0313969
0.0220737
0.0274073
0.0087044
0.0155019
-0.00318255
0.00236876
-0.00860306
-0.00785283
-0.00777755
-0.00867175
-0.00370603
-0.00598415
0.000251519
-0.00145299
-2.52238e-05
0.000894167
-0.00859277
-0.00302099
-0.0295704
-0.0172648
-0.0674582
-0.0461107
-0.126953
-0.0942404
-0.211267
-0.165951
-0.319182
-0.262629
-0.441919
-0.379591
-0.561789
-0.503608
-0.65543
-0.613382
-0.702
-0.685458
-0.6931
-0.704348
-0.637442
-0.669972
-0.553087
-0.597802
-0.454912
-0.504934
-0.355909
-0.404679
-0.268487
-0.310157
-0.19974
-0.231633
-0.150614
-0.172845
-0.118937
-0.132811
-0.101686
-0.108594
-0.0989294
-0.463659
-0.216567
-0.333847
-0.76213
-0.606682
-1.09079
-0.924658
-1.41999
-1.25709
-1.71931
-1.57563
-1.94713
-1.8451
-2.06191
-2.02055
-2.04236
-2.0692
-1.8915
-1.98226
-1.63662
-1.77457
-1.32035
-1.48288
-0.986231
-1.15399
-0.660225
-0.819883
-0.510206
-0.0445974
-0.111883
-0.0769854
0.0129035
-0.0151593
0.0611422
0.0381476
0.100329
0.0817566
0.130774
0.116534
0.152927
0.142806
0.167501
0.161075
0.175808
0.172325
0.179759
0.178197
0.181394
0.180754
0.182128
0.181831
0.182687
0.182369
0.183851
0.183148
0.185586
0.184751
0.18509
0.185889
0.178032
0.18261
0.161728
0.171114
0.134649
0.149661
0.0943039
0.116313
0.0379389
0.068252
-0.0351109
0.00332097
-0.117837
-0.0761864
-0.192147
-0.157375
-0.241189
-0.220288
-0.26102
-0.254861
-0.249131
-0.25923
-0.205379
-0.230994
-0.136569
-0.173419
-0.0559292
-0.0967556
0.024929
-0.015244
0.102685
0.0643893
0.174077
0.139338
0.237629
0.206841
0.292702
0.266322
0.337187
0.316456
0.368192
0.354672
0.382649
0.377754
0.383476
0.384162
0.305966
0.375741
0.38116
-1.27295
-1.18435
-1.5315
-1.54463
-0.115994
-0.149099
-1.11075
-1.39894
-1.41347
-1.32446
-1.28327
-1.15379
-1.01983
-0.877567
-0.72654
-0.364271
-0.192807
-0.221859
-0.426008
-0.573396
-0.703254
-0.813496
-0.906448
-0.96962
-1.02845
-1.0753
-1.12163
-0.585947
-0.427253
-0.271818
-0.125981
0.00591126
0.120777
0.219211
0.430439
0.366958
0.420333
-1.56655
-0.126374
-0.157635
-0.0726922
-0.0988498
-0.0275995
-0.0496595
0.0137795
-0.0062489
0.0458745
0.0309509
0.0710398
0.0592296
0.0895528
0.0811555
0.101521
0.0963148
0.107262
0.105201
0.105738
0.107452
0.0987438
0.10259
0.0913154
0.0948746
0.087064
0.0883101
0.0859839
0.0863376
0.0857818
0.0858845
0.0842769
0.0853561
0.0788466
0.0822153
0.0667596
0.0738183
0.044844
0.0572515
0.00929636
0.0290217
-0.0437836
-0.0148408
-0.116905
-0.0778056
-0.208823
-0.160823
-0.31211
-0.25979
-0.412427
-0.363748
-0.491093
-0.455642
-0.532114
-0.516957
-0.529089
-0.535999
-0.488519
-0.512678
-0.422838
-0.458122
-0.342477
-0.383845
-0.258802
-0.300266
-0.183443
-0.219529
-0.122956
-0.151198
-0.0783793
-0.0987748
-0.0482615
-0.0616631
-0.0300389
-0.0379087
-0.0240388
-0.0255326
-0.0314115
-0.0251022
-0.240481
-0.0408014
-0.132264
-0.504879
-0.36531
-0.821852
-0.658047
-1.17118
-0.993691
-1.53044
-1.35151
-1.86142
-1.70246
-2.11378
-2.0006
-2.24307
-2.19582
-2.22562
-2.25316
-2.06354
-2.16141
-1.78658
-1.93669
-1.44263
-1.61934
-1.08274
-1.26249
-0.736612
-0.906917
-0.429445
-0.575818
-0.185293
-0.300135
-0.0283537
-0.0874247
-0.0577456
0.0271972
0.000347922
0.077342
0.0530849
0.120639
0.0999654
0.156544
0.139504
0.185286
0.17176
0.207177
0.197031
0.222691
0.215665
0.232695
0.228301
0.238426
0.236009
0.241183
0.240104
0.242046
0.241802
0.24191
0.242026
0.242326
0.241979
0.243219
0.242828
0.241899
0.243073
0.234962
0.239273
0.220784
0.228832
0.198216
0.21065
0.165351
0.183198
0.120192
0.144405
0.0621145
0.0926544
-0.00397981
0.0293907
-0.0638276
-0.0358418
-0.101474
-0.086001
-0.112949
-0.110275
-0.100775
-0.109839
-0.0657567
-0.0858552
-0.0125504
-0.0411029
0.0522849
0.0190189
0.119478
0.08601
0.185158
0.152522
0.248392
0.217221
0.306604
0.278309
0.356953
0.332923
0.397047
0.378401
0.424974
0.412673
0.439351
0.433928
0.440914
0.441758
0.437332
-1.31046
-1.218
0.29794
-1.46543
-1.47356
-1.16668
-1.37639
-1.36704
0.0422564
0.0380338
-0.22148
-0.116182
-1.35066
-1.25623
-1.1416
-1.01975
-0.886643
-0.741107
-0.255518
-0.0826093
-0.0955607
0.355361
0.406244
-0.286803
-0.473917
-0.655709
-0.804982
-0.929765
-1.03166
-1.09889
-1.15485
-1.1882
-1.21942
-0.61517
-0.454141
-0.295325
-0.145954
-0.0106144
0.10792
0.208201
-1.49534
-0.0530795
-0.0693242
-0.0148824
-0.03448
0.020725
0.00244731
0.053097
0.0375433
0.0833012
0.068333
0.109931
0.0972833
0.132004
0.121452
0.149814
0.141496
0.162987
0.15696
0.17173
0.167924
0.17503
0.174177
0.172802
0.17441
0.168642
0.170779
0.165178
0.166587
0.162667
0.163936
0.159471
0.161236
0.154163
0.157178
0.145177
0.150228
0.130752
0.138775
0.108477
0.120774
0.0752734
0.0934424
0.0280231
0.0535694
-0.0352124
-0.00157719
-0.113218
-0.072627
-0.199822
-0.156055
-0.283543
-0.242928
-0.349669
-0.319679
-0.386148
-0.372148
-0.387907
-0.391261
-0.359471
-0.376946
-0.308517
-0.336371
-0.242473
-0.276811
-0.171727
-0.206948
-0.106972
-0.138108
-0.0539816
-0.0788772
-0.0137374
-0.0323335
0.0148858
0.00189023
0.0333703
0.0252848
0.0426669
0.0388993
0.0439961
-0.267937
-0.0522304
-0.152848
-0.546582
-0.399031
-0.879793
-0.707406
-1.25348
-1.0625
-1.64399
-1.44914
-2.00477
-1.83148
-2.28092
-2.15679
-2.42448
-2.37155
-2.40785
-2.4368
-2.23339
-2.33891
-1.93395
-2.09629
-1.56181
-1.75315
-1.17397
-1.36689
-0.808509
-0.987508
-0.483285
-0.638116
-0.342973
0.0438721
-0.00383163
0.0201989
0.0900996
0.0669463
0.133947
0.11265
0.17252
0.153981
0.20524
0.189636
0.232106
0.219393
0.253275
0.243374
0.269026
0.261787
0.279874
0.275012
0.286559
0.283684
0.28992
0.288599
0.290862
0.290637
0.290667
0.290789
0.290963
0.290702
0.291491
0.291325
0.289719
0.291078
0.283248
0.287146
0.271172
0.27795
0.252594
0.262774
0.226125
0.24043
0.1904
0.209489
0.144864
0.168797
0.0925771
0.119111
0.0438631
0.0668439
0.013057
0.025527
0.00594196
0.00674864
0.0186733
0.0100902
0.0482361
0.0315667
0.0909111
0.0681762
0.14314
0.116074
0.200004
0.171379
0.256618
0.228467
0.311891
0.284469
0.364019
0.338558
0.409519
0.387811
0.445559
0.428828
0.470814
0.459585
0.484717
0.479217
0.486454
0.487282
0.473466
0.481933
0.446384
0.461704
0.407833
0.390376
0.428255
-1.37476
-1.27523
0.28785
-1.42884
-1.42988
0.0317317
-0.0265577
-1.24555
0.341683
-1.38061
-1.34671
0.37301
-1.40495
-1.2532
-1.15172
-1.03954
-0.912834
-0.770326
-0.117401
-0.319269
-0.52247
-0.732635
-0.915101
-1.06393
-1.17744
-1.25281
-1.30853
-1.32987
-1.34616
-0.656595
-0.490161
-0.324988
-0.16906
-0.0281486
0.0950381
0.198104
-1.45273
0.0457584
-0.136048
0.0510571
0.0405259
0.0479889
0.048303
0.0549803
0.0485761
0.0764268
0.0647053
0.0987487
0.0875811
0.121372
0.110103
0.144122
0.132708
0.165821
0.155281
0.184804
0.175643
0.201079
0.193303
0.214418
0.208111
0.224859
0.22001
0.231526
0.228795
0.233083
0.232896
0.231416
0.232479
0.228638
0.230031
0.225129
0.227036
0.219914
0.222796
0.212057
0.216369
0.200689
0.206867
0.184724
0.193371
0.162414
0.174497
0.131402
0.148152
0.0892583
0.111849
0.0345207
0.0634681
-0.0316674
0.00264658
-0.104249
-0.0676491
-0.174122
-0.140229
-0.230003
-0.204433
-0.262647
-0.249676
-0.268122
-0.268697
-0.248891
-0.26133
-0.209031
-0.231261
-0.154297
-0.182986
-0.0944324
-0.124327
-0.0389676
-0.0657316
0.00726176
-0.0145915
0.0434272
0.0265542
0.0703756
0.0579585
0.0891203
0.0806601
0.100395
0.0955745
0.104812
0.103316
0.100478
0.104029
-0.0667738
0.0949924
0.0220667
-0.29402
-0.172435