/*--------------------------------*- C++ -*----------------------------------*\
  =========                 |
  \\      /  F ield         | OpenFOAM: The Open Source CFD Toolbox
   \\    /   O peration     | Website:  https://openfoam.org
    \\  /    A nd           | Version:  10
     \\/     M anipulation  |
\*---------------------------------------------------------------------------*/
FoamFile
{
    format      ascii;
    class       volScalarField;
    location    "32.5";
    object      p;
}
// * * * * * * * * * * * * * * * * * * * * * * * * * * * * * * * * * * * * * //

dimensions      [0 2 -2 0 0 0 0];

internalField   nonuniform List<scalar> 
28942
(
-0.370303
-0.366934
-0.45623
0.194826
0.205161
-0.00302974
0.000543498
-0.00504051
-0.0613241
-0.0521514
-0.717024
-0.710702
-0.720936
-0.720743
0.00429139
0.00824016
0.464112
0.483904
-0.0338075
0.0628256
0.377803
0.378561
-0.766705
-0.768979
-0.789121
-0.806742
0.719039
0.740154
-0.21798
-0.203529
-0.0069322
-0.0061162
0.0250428
0.00941624
0.266381
0.316119
0.526207
0.64467
-0.00547318
0.559486
0.340774
0.368677
-0.00923183
-0.00295591
-0.000696962
-0.000267307
0.000679778
-0.000537944
0.00108009
0.00704331
0.0156434
-0.00480355
-0.00453651
-0.055383
-0.0443093
-0.623262
-0.524831
-0.729125
-0.721547
-0.728499
-0.734229
-0.737562
-0.734844
-0.346448
-0.462856
-0.293593
-0.205217
0.368466
0.335648
-0.369557
-0.375557
-0.380132
0.346714
0.333775
0.333168
-0.181887
-0.172818
-0.115129
-0.424548
-0.49734
-0.390738
-0.556591
-0.426015
-0.462906
0.0295951
0.119064
0.188381
0.170201
0.106315
0.119251
0.157993
0.176582
-0.72671
-0.746759
-0.712236
-0.68991
-0.675144
0.181973
0.230954
-0.500234
0.223177
0.225382
0.203278
0.209982
-0.0340276
-0.0330198
-0.0406504
0.221782
0.230688
0.230942
-0.725157
-0.723003
-0.376485
-0.339212
-0.349146
0.873079
0.807246
0.769369
0.836209
0.0648705
0.204506
0.14079
-0.12217
-0.144936
0.892392
0.896238
0.867367
-0.115831
-0.0660967
-0.000935134
0.000457593
-0.00209467
0.308329
0.437733
0.267519
0.257767
0.337674
0.0295107
0.207735
0.41538
-0.750513
-0.742492
-0.0556915
0.00484648
0.00709216
-0.459515
-0.470155
-0.426327
-0.739783
0.248117
0.244035
0.0462402
-0.000802459
-0.00186858
-0.00161654
-0.000678674
0.318988
0.2544
-0.512589
-0.440786
-0.421655
-0.378618
-0.361976
0.000523932
-0.773048
-0.735464
0.399569
0.414191
0.454516
0.435441
0.372007
0.0905388
0.0869314
-0.0192531
-0.0267448
0.197299
0.186125
0.204794
0.215155
0.214253
0.225886
0.238292
0.273246
0.254329
0.235869
0.255911
0.294389
0.350174
0.364487
-0.237482
-0.183756
-0.347112
-0.0022166
-0.00168029
-0.410054
-0.393438
0.00396031
0.00357299
0.00221205
0.00200548
-0.129166
-0.131689
-0.120681
-0.718813
-0.729555
-0.737059
-0.749062
-0.752856
-0.747499
-0.791753
-0.868824
-0.818428
0.868463
0.848463
0.881708
-0.0244886
-0.0182635
-0.0254971
0.434467
0.416461
0.428183
-0.265092
-0.267231
-0.258637
-0.264689
-0.257999
-0.247761
-0.262819
-0.234404
-0.249055
-0.273227
-0.279989
-0.282381
-0.279713
-0.27246
-0.219695
-0.232942
-0.248284
-0.261159
-0.234603
-0.204552
-0.215651
-0.246458
-0.189137
-0.174221
-0.198501
-0.182056
-0.21949
-0.230002
-0.160586
-0.166976
-0.202953
-0.212259
-0.148563
-0.153654
-0.186192
-0.194247
-0.138329
-0.14226
-0.170043
-0.176916
-0.12984
-0.132787
-0.155248
-0.161018
-0.123062
-0.125147
-0.142256
-0.147017
-0.117857
-0.119214
-0.131298
-0.135108
-0.114146
-0.114834
-0.122173
-0.125156
-0.111804
-0.111878
-0.115064
-0.11725
-0.110829
-0.110324
-0.10957
-0.111036
-0.111189
-0.110147
-0.105762
-0.106544
-0.113105
-0.111404
-0.106448
-0.10332
-0.103509
-0.103662
-0.117335
-0.111062
-0.135347
-0.125314
-0.160758
-0.147206
-0.191039
-0.175594
-0.220289
-0.20629
-0.241474
-0.232271
-0.248918
-0.247227
-0.240642
-0.24668
-0.218705
-0.231102
-0.191327
-0.205203
-0.164019
-0.177381
-0.141208
-0.151856
-0.124794
-0.132193
-0.114628
-0.118969
-0.110119
-0.111705
-0.110893
-0.109837
-0.113368
-0.116519
-0.114183
-0.108575
-0.10844
-0.107822
-0.114067
-0.11064
-0.125483
-0.11897
-0.144002
-0.133787
-0.170516
-0.15625
-0.204229
-0.186647
-0.241115
-0.222643
-0.273667
-0.258688
-0.291702
-0.284867
-0.290514
-0.293782
-0.270481
-0.282488
-0.237163
-0.25506
-0.199039
-0.218167
-0.163917
-0.180708
-0.136426
-0.149108
-0.117371
-0.125927
-0.105654
-0.110704
-0.102176
-0.101698
-0.11735
-0.110543
-0.102346
-0.100237
-0.101659
-0.10287
-0.101811
-0.0982966
-0.0993269
-0.111246
-0.105763
-0.127241
-0.118316
-0.150136
-0.137916
-0.177441
-0.16352
-0.203634
-0.191127
-0.222473
-0.214314
-0.228774
-0.227384
-0.221088
-0.226437
-0.201864
-0.21275
-0.177412
-0.189848
-0.153222
-0.165015
-0.133206
-0.142529
-0.118994
-0.125362
-0.110538
-0.114075
-0.107396
-0.108332
-0.109303
-0.107709
-0.121472
-0.122837
-0.116611
-0.112218
-0.104399
-0.105807
-0.114031
-0.118477
-0.105579
-0.104353
-0.111919
-0.10806
-0.12431
-0.117294
-0.144003
-0.133169
-0.171993
-0.156949
-0.207499
-0.188984
-0.246174
-0.226879
-0.279755
-0.264225
-0.298621
-0.291474
-0.297002
-0.300541
-0.275764
-0.288399
-0.240919
-0.259537
-0.201166
-0.221066
-0.164698
-0.182129
-0.136101
-0.149305
-0.116006
-0.125062
-0.103242
-0.108788
-0.0966379
-0.099175
-0.0988487
-0.0999198
-0.0956664
-0.10266
-0.122464
-0.108562
-0.10335
-0.10102
-0.101364
-0.0963392
-0.103916
-0.114343
-0.120456
-0.11903
-0.112789
-0.0970921
-0.10465
-0.105696
-0.100958
-0.0934498
-0.0945121
-0.0958963
-0.0939388
-0.103939
-0.0992233
-0.117907
-0.110112
-0.13822
-0.127349
-0.162543
-0.150141
-0.185887
-0.174718
-0.202339
-0.195307
-0.207664
-0.206581
-0.200681
-0.205539
-0.183815
-0.193248
-0.162422
-0.173313
-0.141453
-0.151646
-0.124233
-0.132239
-0.112188
-0.117546
-0.105375
-0.108147
-0.103491
-0.103838
-0.106375
-0.104335
-0.109677
-0.127922
-0.129942
-0.129848
-0.124182
-0.0993503
-0.102236
-0.100161
-0.101363
-0.0997747
-0.108457
-0.104237
-0.121598
-0.114198
-0.142141
-0.130863
-0.171165
-0.155578
-0.207915
-0.188755
-0.247808
-0.227942
-0.28197
-0.266248
-0.300847
-0.293779
-0.298807
-0.302581
-0.276733
-0.289904
-0.241026
-0.260056
-0.200492
-0.220783
-0.163298
-0.181089
-0.133976
-0.147544
-0.113102
-0.122552
-0.0993887
-0.105436
-0.0917238
-0.0948412
-0.0899704
-0.0900755
-0.0986959
-0.0914166
-0.106762
-0.104836
-0.128214
-0.105589
-0.109805
-0.104551
-0.116078
-0.0945023
-0.102697
-0.11633
-0.127552
-0.106777
-0.10092
-0.107432
-0.0918298
-0.0958932
-0.0874768
-0.0889359
-0.0888877
-0.0874854
-0.0955762
-0.0916015
-0.107615
-0.10088
-0.125318
-0.115817
-0.146665
-0.135772
-0.16715
-0.157356
-0.181487
-0.175373
-0.185941
-0.18508
-0.179718
-0.184059
-0.165153
-0.17324
-0.146767
-0.156125
-0.128899
-0.13756
-0.114368
-0.121103
-0.104419
-0.108801
-0.0991797
-0.101224
-0.0984671
-0.098271
-0.10218
-0.0997823
-0.110701
-0.105798
-0.124987
-0.11706
-0.138946
-0.134514
-0.137622
-0.135829
-0.138383
-0.12556
-0.131469
-0.110155
-0.118318
-0.0950868
-0.101259
-0.0976881
-0.0933475
-0.0936427
-0.0960938
-0.0941792
-0.103755
-0.0992506
-0.117416
-0.109759
-0.13847
-0.126932
-0.168058
-0.152179
-0.205424
-0.185956
-0.245792
-0.225724
-0.280059
-0.264341
-0.298575
-0.291746
-0.296016
-0.300021
-0.273496
-0.28692
-0.237462
-0.256625
-0.196785
-0.217142
-0.159452
-0.177324
-0.129848
-0.14358
-0.108502
-0.118213
-0.0940995
-0.100524
-0.0854657
-0.0891008
-0.0823477
-0.0832238
-0.0850589
-0.0829536
-0.0992681
-0.0887118
-0.111836
-0.108914
-0.117074
-0.109525
-0.120293
-0.129821
-0.116076
-0.106382
-0.130081
-0.108525
-0.138023
-0.111549
-0.105568
-0.0938577
-0.123449
-0.111489
-0.0950361
-0.10211
-0.0853409
-0.0895479
-0.0805973
-0.0823307
-0.0811153
-0.0802186
-0.0864598
-0.0832066
-0.0966307
-0.0909094
-0.111824
-0.103646
-0.130305
-0.120865
-0.148048
-0.139571
-0.160378
-0.15514
-0.1641
-0.163415
-0.15866
-0.162437
-0.146275
-0.153123
-0.130747
-0.138643
-0.115792
-0.123018
-0.103804
-0.109333
-0.0958528
-0.0993029
-0.0921076
-0.0934621
-0.0924731
-0.0917843
-0.0969474
-0.0941911
-0.105894
-0.10085
-0.112375
-0.149359
-0.145573
-0.14847
-0.14509
-0.14821
-0.133318
-0.140021
-0.125238
-0.0872499
-0.0921964
-0.089128
-0.0865182
-0.0863622
-0.0898461
-0.0876372
-0.0979307
-0.0932377
-0.111858
-0.104084
-0.133064
-0.121463
-0.162724
-0.146818
-0.20008
-0.180632
-0.24023
-0.220307
-0.273984
-0.258555
-0.291827
-0.285341
-0.288764
-0.29297
-0.266147
-0.27958
-0.230382
-0.249371
-0.190182
-0.210292
-0.15326
-0.170952
-0.123799
-0.1375
-0.102273
-0.112113
-0.0873916
-0.0940928
-0.0779694
-0.0820434
-0.0735655
-0.0751441
-0.0745768
-0.0733337
-0.0810193
-0.0771905
-0.100349
-0.0862023
-0.118627
-0.114848
-0.140941
-0.0960921
-0.128478
-0.143617
-0.14378
-0.116477
-0.11623
-0.138159
-0.154502
-0.158618
-0.113629
-0.108361
-0.0925271
-0.118058
-0.104501
-0.131748
-0.116889
-0.0877552
-0.094974
-0.0779672
-0.0822325
-0.0730131
-0.0748944
-0.0727649
-0.0723216
-0.0768543
-0.0742859
-0.0852579
-0.0804969
-0.0980751
-0.091152
-0.113843
-0.105774
-0.129026
-0.121774
-0.139521
-0.135078
-0.142609
-0.142069
-0.137959
-0.141169
-0.127576
-0.133297
-0.114691
-0.121229
-0.102429
-0.10833
-0.0927997
-0.0972069
-0.0867113
-0.0892927
-0.0843517
-0.0850688
-0.0856932
-0.084562
-0.0908244
-0.0877685
-0.100144
-0.094919
-0.114488
-0.106622
-0.134911
-0.12387
-0.157967
-0.147237
-0.153481
-0.160824
-0.16047
-0.155319
-0.159104
-0.142234
-0.149646
-0.123061
-0.133184
-0.101006
-0.112282
-0.0825844
-0.0895817
-0.085668
-0.0789489
-0.0803106
-0.0789634
-0.0785206
-0.0827869
-0.0803643
-0.0911236
-0.086336
-0.105069
-0.0973139
-0.126069
-0.114598
-0.155308
-0.139638
-0.19203
-0.172927
-0.231306
-0.211851
-0.263988
-0.249108
-0.280844
-0.274813
-0.277318
-0.28167
-0.254958
-0.268177
-0.220032
-0.238547
-0.180932
-0.200485
-0.14497
-0.162221
-0.11606
-0.129543
-0.0946253
-0.104474
-0.0794357
-0.0863363
-0.0693618
-0.0738049
-0.0638931
-0.0660625
-0.0632376
-0.0629187
-0.0675739
-0.0648093
-0.07656
-0.0715218
-0.0998944
-0.0823279
-0.128028
-0.14783
-0.141992
-0.127475
-0.139227
-0.106565
-0.0943507
-0.122721
-0.125531
-0.15924
-0.125927
-0.123371
-0.11744
-0.107692
-0.088573
-0.126612
-0.122246
-0.167042
-0.157576
-0.138604
-0.0960445
-0.108058
-0.0796606
-0.0867607
-0.069966
-0.0741957
-0.0648808
-0.0668753
-0.0640132
-0.063946
-0.0669872
-0.0650365
-0.0737494
-0.0698815
-0.084363
-0.0786036
-0.0976225
-0.0908188
-0.110464
-0.104329
-0.119317
-0.115576
-0.121871
-0.121442
-0.117973
-0.120653
-0.109402
-0.114109
-0.0989074
-0.104216
-0.0890807
-0.0937836
-0.0815903
-0.084979
-0.0771967
-0.0789879
-0.0760893
-0.0762324
-0.0782918
-0.0767744
-0.0839513
-0.0806702
-0.0935053
-0.0882044
-0.107697
-0.0999987
-0.116892
-0.17124
-0.160332
-0.166863
-0.173173
-0.173334
-0.166275
-0.170765
-0.151718
-0.159884
-0.130772
-0.141839
-0.118923
-0.0728023
-0.0783879
-0.0751861
-0.0702962
-0.0711905
-0.0709063
-0.0701802
-0.0750885
-0.072521
-0.0835001
-0.0787112
-0.0972214
-0.0896167
-0.117677
-0.10652
-0.146033
-0.130847
-0.181544
-0.163085
-0.219346
-0.200654
-0.250473
-0.236362
-0.266092
-0.260607
-0.26215
-0.266581
-0.240374
-0.253184
-0.206795
-0.224569
-0.169344
-0.188066
-0.13484
-0.151413
-0.106866
-0.119956
-0.0857917
-0.0955276
-0.0704735
-0.0774932
-0.059864
-0.0646226
-0.0534947
-0.0561597
-0.0514025
-0.0518972
-0.0536655
-0.0519982
-0.0602324
-0.0564523
-0.0697429
-0.0648296
-0.179803
-0.174901
-0.0947128
-0.0746358
-0.140473
-0.15189
-0.0822233
-0.179016
-0.132951
-0.189682
-0.157774
-0.136766
-0.177631
-0.137482
-0.134494
-0.127193
-0.115507
-0.100214
-0.0787447
-0.13793
-0.143199
-0.202423
-0.185415
-0.163181
-0.110524
-0.125742
-0.0865918
-0.0974986
-0.0709548
-0.0778392
-0.0615122
-0.0656315
-0.0564091
-0.0584644
-0.0550513
-0.0552908
-0.057055
-0.0556488
-0.0623371
-0.0592774
-0.0709463
-0.0662467
-0.0819226
-0.0762689
-0.0926602
-0.0875242
-0.100065
-0.0969402
-0.102187
-0.101833
-0.0989793
-0.101179
-0.0920209
-0.0958285
-0.083638
-0.0878601
-0.0759649
-0.0796083
-0.0703712
-0.0728556
-0.0674844
-0.0685732
-0.0674821
-0.0671208
-0.0704221
-0.068579
-0.0764875
-0.0730435
-0.0861398
-0.0808253
-0.100042
-0.0925144
-0.118762
-0.108791
-0.142062
-0.129891
-0.174022
-0.154847
-0.165351
-0.184843
-0.180606
-0.185972
-0.186662
-0.177676
-0.182925
-0.161432
-0.170441
-0.138794
-0.150787
-0.112728
-0.125997
-0.086296
-0.0994014
-0.0673008
-0.073491
-0.0702912
-0.0631019
-0.0648763
-0.0613555
-0.0618779
-0.0625114
-0.0615547
-0.0669208
-0.0642792
-0.0752391
-0.0705382
-0.0885145
-0.0811797
-0.108119
-0.0974411
-0.135177
-0.120696
-0.168973
-0.151417
-0.204793
-0.18711
-0.233977
-0.220806
-0.248182
-0.243302
-0.243885
-0.248333
-0.222977
-0.235211
-0.191167
-0.207977
-0.155816
-0.173486
-0.123169
-0.138874
-0.0964577
-0.109
-0.0759938
-0.0855005
-0.0607386
-0.0677879
-0.0497386
-0.054745
-0.0425904
-0.0456898
-0.0392981
-0.0404572
-0.0398659
-0.0391047
-0.044267
-0.0415966
-0.0514722
-0.0476756
-0.0586019
-0.0553138
-0.203706
-0.201222
-0.0817977
-0.0608426
-0.155819
-0.145634
-0.209431
-0.227322
-0.21391
-0.175277
-0.150034
-0.131161
-0.142949
-0.0903698
-0.0768414
-0.200159
-0.150509
-0.146314
-0.13703
-0.122715
-0.104352
-0.233343
-0.211816
-0.233203
-0.0834472
-0.0617543
-0.256052
-0.152047
-0.167183
-0.189619
-0.127454
-0.145881
-0.0980499
-0.111777
-0.0763459
-0.0862127
-0.0618599
-0.0683088
-0.0528211
-0.0567715
-0.0477889
-0.0498608
-0.0460573
-0.0465403
-0.0472372
-0.0462995
-0.0512141
-0.0488707
-0.0580307
-0.0542808
-0.0669601
-0.0623362
-0.0758337
-0.0715781
-0.0819833
-0.0793879
-0.0837558
-0.0834536
-0.0811702
-0.0829438
-0.0756179
-0.0786447
-0.0690618
-0.0723438
-0.0632539
-0.0659792
-0.0593078
-0.0610057
-0.0577322
-0.0582101
-0.0586834
-0.0578891
-0.0622348
-0.0601273
-0.0685848
-0.0650392
-0.0781794
-0.0729398
-0.0916172
-0.0843871
-0.109279
-0.0999398
-0.119794
-0.187795
-0.167579
-0.178771
-0.198463
-0.194343
-0.198801
-0.199933
-0.18913
-0.195151
-0.171023
-0.180985
-0.146689
-0.1595
-0.118705
-0.132896
-0.104446
-0.0565408
-0.061371
-0.0587805
-0.0534081
-0.0547986
-0.0523789
-0.0525892
-0.0539467
-0.0528235
-0.0584529
-0.0558037
-0.066526
-0.0619927
-0.0791615
-0.0722003
-0.0976522
-0.0875952
-0.123063
-0.109473
-0.154728
-0.138288
-0.188166
-0.171683
-0.21513
-0.203017
-0.227823
-0.223574
-0.223248
-0.227652
-0.203427
-0.214961
-0.173707
-0.189385
-0.140797
-0.157247
-0.110307
-0.125
-0.0851031
-0.096982
-0.0654551
-0.0746338
-0.0504435
-0.0574342
-0.0392223
-0.0443929
-0.0314485
-0.0349086
-0.0271432
-0.0288579
-0.0263366
-0.0263059
-0.0288827
-0.0272171
-0.0339818
-0.0311912
-0.0394848
-0.0368926
-0.0419062
-0.0414064
-0.252059
-0.0610484
-0.0828998
-0.0587215
-0.0388915
-0.0411082
-0.226819
-0.228299
-0.173141
-0.160565
-0.154933
-0.0641198
-0.239839
-0.195744
-0.164979
-0.22452
-0.164424
-0.158203
-0.146113
-0.128572
-0.106956
-0.251519
-0.224219
-0.238038
-0.0211326
-0.0186843
-0.0358748
-0.265768
-0.275325
-0.27514
-0.0809325
-0.0549945
-0.16846
-0.187429
-0.206895
-0.146482
-0.166687
-0.111125
-0.127734
-0.0848344
-0.0969671
-0.0656817
-0.0744463
-0.0525262
-0.0584311
-0.0440767
-0.0477966
-0.0391898
-0.0412408
-0.0371878
-0.0378577
-0.037684
-0.0371403
-0.0405347
-0.0388127
-0.0457769
-0.0428638
-0.0528947
-0.0491825
-0.0601329
-0.0566462
-0.065208
-0.0630613
-0.0666997
-0.0664315
-0.0646631
-0.0660651
-0.0603136
-0.0626749
-0.0553078
-0.0577924
-0.0510838
-0.0530291
-0.0485404
-0.0495683
-0.0480818
-0.0480397
-0.0498353
-0.0486792
-0.0538751
-0.0515623
-0.0603966
-0.0568058
-0.0698153
-0.0647104
-0.0826882
-0.075789
-0.0993265
-0.09054
-0.119468
-0.109028
-0.141508
-0.13039
-0.179831
-0.152344
-0.16657
-0.200754
-0.191456
-0.21143
-0.207462
-0.211118
-0.21265
-0.200117
-0.206887
-0.180129
-0.191077
-0.153929
-0.167629
-0.124213
-0.139293
-0.0943075
-0.10914
-0.0665538
-0.0801253
-0.0499877
-0.0541554
-0.0521621
-0.0462909
-0.0479456
-0.043927
-0.0449036
-0.0435012
-0.0434462
-0.0453635
-0.0441315
-0.049846
-0.0472494
-0.0575436
-0.0532455
-0.0693796
-0.0628768
-0.0865474
-0.0772232
-0.110038
-0.0974826
-0.139252
-0.12409
-0.170022
-0.154871
-0.194605
-0.183613
-0.205767
-0.202144
-0.200993
-0.205308
-0.182415
-0.193161
-0.154996
-0.169433
-0.124745
-0.139866
-0.096612
-0.110196
-0.0730879
-0.0842198
-0.0544111
-0.0631856
-0.0397963
-0.0466511
-0.0285207
-0.0337696
-0.0203043
-0.0240322
-0.0151902
-0.0173532
-0.0132552
-0.013826
-0.0143368
-0.0134514
-0.0176422
-0.0157886
-0.021376
-0.0196106
-0.0232492
-0.0226811
-0.0227965
-0.248181
-0.253482
-0.0319451
-0.0157768
-0.192525
-0.177365
-0.264979
-0.218696
-0.180973
-0.127522
-0.137412
-0.0689154
-0.0558478
-0.249292
-0.178458
-0.169274
-0.153577
-0.132432
-0.107725
-0.245923
-0.215897
-0.218925
-0.24765
-0.273468
-0.289129
-0.294349
-0.0774311
-0.0509425
-0.0128171
-0.0282329
-0.186803
-0.194865
-0.207275
-0.161537
-0.179357
-0.12527
-0.143039
-0.0949411
-0.109206
-0.0718571
-0.0825309
-0.0549881
-0.0627289
-0.0431891
-0.0485191
-0.0354182
-0.0388661
-0.0307478
-0.0327413
-0.0285709
-0.0293756
-0.0285158
-0.028295
-0.0304169
-0.0292222
-0.0343012
-0.032113
-0.0398346
-0.0369211
-0.0456472
-0.042828
-0.0498076
-0.0480391
-0.0510768
-0.050829
-0.0495147
-0.0505993
-0.0461765
-0.04798
-0.0424628
-0.0442832
-0.0395578
-0.0408534
-0.0381839
-0.0386531
-0.0386546
-0.0381808
-0.0410643
-0.039615
-0.0454763
-0.0430135
-0.0520697
-0.0484824
-0.0612204
-0.056296
-0.0734266
-0.0669164
-0.088968
-0.0807989
-0.10741
-0.0979504
-0.117355
-0.191056
-0.162221
-0.177324
-0.212483
-0.202958
-0.223164
-0.219223
-0.222302
-0.224202
-0.210059
-0.217524
-0.188337
-0.200201
-0.160296
-0.174887
-0.129144
-0.144926
-0.097789
-0.113297
-0.0829916
-0.0392708
-0.0425541
-0.0408803
-0.0364708
-0.0377851
-0.0347974
-0.0354491
-0.0348466
-0.0345876
-0.0368934
-0.0356068
-0.0412494
-0.0387565
-0.0484658
-0.0444567
-0.0593809
-0.0534
-0.0750735
-0.0665631
-0.0964503
-0.085032
-0.122997
-0.109221
-0.150924
-0.137182
-0.173069
-0.163209
-0.182747
-0.179716
-0.177857
-0.182043
-0.160621
-0.170529
-0.135599
-0.148746
-0.108107
-0.121849
-0.0824285
-0.0948544
-0.0606898
-0.071021
-0.0430975
-0.0514099
-0.0290052
-0.0356591
-0.0178252
-0.0230735
-0.00935037
-0.0132495
-0.00364979
-0.00614551
-0.000828284
-0.00187826
-0.000748848
-0.0004755
-0.00267419
-0.00153723
-0.00504511
-0.00392719
-0.00594779
-0.00578814
-0.00457206
-0.00550639
-0.00107799
-0.00298749
-0.0105756
0.001979
0.000737245
-0.269043
-0.279142
-0.213747
-0.195334
-0.146496
-0.0438229
-0.287994
-0.242952
-0.197175
-0.273488
-0.191607
-0.178524
-0.158657
-0.133739
-0.10591
-0.214228
-0.184992
-0.175086
0.0130463
0.0126822
0.00257327
-0.202475
-0.24163
-0.273043
-0.29546
-0.307269
-0.0724399
-0.0463864
-0.0251472
-0.00916734
-0.206486
-0.18517
-0.188234
-0.164686
-0.176444
-0.135178
-0.150809
-0.104598
-0.119482
-0.0788661
-0.091002
-0.0590259
-0.0682285
-0.0444074
-0.051133
-0.0340098
-0.0387368
-0.026979
-0.0301246
-0.0225849
-0.0244901
-0.0203143
-0.0212091
-0.0198269
-0.019864
-0.0209448
-0.0201879
-0.0236796
-0.0221086
-0.0278434
-0.0256231
-0.0324176
-0.030177
-0.0357993
-0.0343493
-0.0368931
-0.0366559
-0.0357341
-0.0365516
-0.0332325
-0.0345763
-0.0305768
-0.0318544
-0.0287484
-0.0295139
-0.0283273
-0.0283415
-0.029551
-0.0287284
-0.0324795
-0.0308012
-0.037157
-0.0345942
-0.0437374
-0.0401937
-0.0525494
-0.0478391
-0.0640258
-0.0579332
-0.0784142
-0.0708662
-0.0952632
-0.0866003
-0.113296
-0.10431
-0.130524
-0.122171
-0.170811
-0.137461
-0.154404
-0.200594
-0.186386
-0.222327
-0.212789
-0.233087
-0.22915
-0.231728
-0.233961
-0.218391
-0.226465
-0.195181
-0.207826
-0.16549
-0.180904
-0.13301
-0.149395
-0.100631
-0.116659
-0.0705995
-0.0851705
-0.0447968
-0.0571804
-0.0317645
-0.0334247
-0.0327651
-0.0293056
-0.0305316
-0.0272184
-0.0282169
-0.0261112
-0.0264959
-0.0265182
-0.0261119
-0.028651
-0.0273565
-0.0327957
-0.0304477
-0.0394518
-0.0357711
-0.0493638
-0.0439469
-0.0634868
-0.0558394
-0.0826364
-0.0724143
-0.106394
-0.0940639
-0.131404
-0.119098
-0.15114
-0.142383
-0.159441
-0.156947
-0.154522
-0.158545
-0.138661
-0.14772
-0.116038
-0.127897
-0.0912932
-0.103663
-0.0680765
-0.0793376
-0.0481648
-0.0576697
-0.0317339
-0.039542
-0.0182688
-0.0246662
-0.00731775
-0.0124948
0.00124491
-0.00273474
0.00731596
0.00460095
0.0107763
0.00937373
0.0117441
0.0115456
0.010879
0.0114712
0.0095213
0.0101601
0.009213
0.00915837
0.0104094
0.00967931
0.0122213
0.0113171
0.0127693
-0.286721
-0.301382
0.00240447
0.0119301
-0.235942
-0.213615
-0.307032
-0.266666
-0.212462
-0.114351
-0.120558
-0.0454545
-0.0340203
-0.295293
-0.202765
-0.185026
-0.160689
-0.13212
-0.101799
-0.15932
-0.131968
-0.115371
-0.139154
-0.184336
-0.227698
-0.264726
-0.292887
-0.312315
-0.0666524
-0.0419789
-0.0226991
-0.0085904
0.0107669
0.00166228
-0.226711
-0.154303
-0.145864
-0.153508
-0.156858
-0.134912
-0.145601
-0.110081
-0.122896
-0.0848555
-0.0971721
-0.0634011
-0.0735399
-0.0466879
-0.0544694
-0.0341967
-0.0399666
-0.0251461
-0.0292863
-0.018866
-0.0216988
-0.0147901
-0.0165829
-0.0124956
-0.0134416
-0.0116827
-0.0119192
-0.0121708
-0.0117687
-0.0139526
-0.0128968
-0.016948
-0.015323
-0.0204482
-0.0187101
-0.0231617
-0.0219827
-0.0241142
-0.023882
-0.023294
-0.0238891
-0.0214749
-0.0224453
-0.0196701
-0.020512
-0.0187009
-0.0190439
-0.0190363
-0.0186899
-0.020851
-0.019756
-0.0241718
-0.0223236
-0.0290195
-0.026401
-0.0355159
-0.0320487
-0.0439369
-0.0394645
-0.0546448
-0.0489865
-0.0678376
-0.0609363
-0.0831562
-0.0752802
-0.0992152
-0.0912637
-0.107099
-0.177494
-0.142764
-0.16067
-0.207957
-0.193372
-0.229808
-0.22016
-0.240632
-0.236721
-0.238827
-0.241345
-0.224602
-0.233166
-0.200211
-0.21347
-0.169218
-0.185292
-0.135558
-0.152493
-0.102417
-0.118778
-0.0717802
-0.0866494
-0.0580961
-0.0219132
-0.0234141
-0.022655
-0.0201199
-0.0210113
-0.0185649
-0.0192624
-0.0179335
-0.018103
-0.0185957
-0.018092
-0.0207311
-0.019468
-0.024599
-0.0224267
-0.0306417
-0.0273147
-0.0395063
-0.0346747
-0.0520203
-0.0452553
-0.068904
-0.0598973
-0.08984
-0.07897
-0.111938
-0.101056
-0.129362
-0.121647
-0.136435
-0.134403
-0.131579
-0.135407
-0.117075
-0.125305
-0.0967679
-0.107385
-0.0746693
-0.085716
-0.0538425
-0.0639684
-0.0357432
-0.0444214
-0.0205161
-0.0277924
-0.00776379
-0.0138573
0.00283806
-0.00220352
0.0113336
0.00735548
0.0175808
0.0147485
0.0214511
0.0198141
0.0230577
0.0225132
0.0229976
0.0231746
0.0224045
0.0226856
0.0224349
0.022296
0.0232323
0.022786
0.0237789
0.0236278
0.0228411
0.0234982
0.020399
0.0217103
0.00907174
0.0166921
0.0186894
-0.300643
-0.319373
-0.257588
-0.231006
-0.125438
-0.0237099
-0.319728
-0.28789
-0.225597
-0.313329
-0.210839
-0.188023
-0.159324
-0.127635
-0.0958203
-0.0948057
-0.0736596
-0.0532405
0.0234517
0.0207328
0.0142034
-0.0720791
-0.115814
-0.16163
-0.206701
-0.248323
-0.282949
-0.309644
-0.0607433
-0.0381825
-0.021152
-0.00866435
0.000313818
0.00685162
-0.246184
-0.106986
-0.0917046
-0.123728
-0.11742
-0.122303
-0.125511
-0.106902
-0.115639
-0.0865976
-0.0970046
-0.066225
-0.0761824
-0.0487725
-0.0570432
-0.0349786
-0.0414326
-0.0244718
-0.02935
-0.0167
-0.0202775
-0.0111635
-0.0136815
-0.00743353
-0.00909653
-0.00517266
-0.00613726
-0.00412642
-0.00451135
-0.00412158
-0.00399969
-0.00513092
-0.00449602
-0.00714511
-0.00602459
-0.00971557
-0.00841489
-0.0118469
-0.0109032
-0.0126795
-0.0124507
-0.012141
-0.0125527
-0.0108718
-0.0115431
-0.00973885
-0.0102382
-0.00943894
-0.0094539
-0.0103563
-0.00973354
-0.0126162
-0.0113177
-0.0162156
-0.0142504
-0.0211495
-0.0185138
-0.0275039
-0.0241391
-0.0354988
-0.031279
-0.0454256
-0.0402056
-0.0574341
-0.0511744
-0.0712054
-0.0641441
-0.0855559
-0.078423
-0.0987453
-0.0923914
-0.108735
-0.104286
-0.146732
-0.111797
-0.129151
-0.181769
-0.164537
-0.212555
-0.197863
-0.234525
-0.224789
-0.245312
-0.241466
-0.243134
-0.245875
-0.228275
-0.237184
-0.203071
-0.216751
-0.171236
-0.187729
-0.136775
-0.154095
-0.103117
-0.11968
-0.0723445
-0.0872866
-0.0456808
-0.0584346
-0.0237626
-0.034177
-0.0141375
-0.014463
-0.0144093
-0.0130541
-0.0136731
-0.0116576
-0.0123771
-0.0105723
-0.0110424
-0.0103098
-0.0103168
-0.0111385
-0.0105793
-0.0132088
-0.0120082
-0.0167528
-0.0147775
-0.0221537
-0.0191923
-0.0299612
-0.0257172
-0.0408762
-0.0349861
-0.0555223
-0.047715
-0.0736788
-0.0642461
-0.0929356
-0.0834371
-0.108182
-0.101433
-0.114206
-0.112547
-0.109508
-0.113109
-0.0963111
-0.103755
-0.0781688
-0.087628
-0.0585433
-0.068352
-0.0399727
-0.0490221
-0.0236254
-0.0314974
-0.00961332
-0.0163442
0.00235982
-0.00339081
0.0125058
0.00765744
0.0207945
0.0168917
0.0270493
0.0241875
0.0311359
0.0293641
0.0331716
0.0323867
0.033705
0.0335726
0.0336678
0.0336958
0.033828
0.033706
0.034033
0.0339726
0.0334173
0.0338884
0.0313243
0.0325583
0.027903
0.0297319
0.0257671
-0.30827
-0.331596
0.0112271
0.017693
-0.276929
-0.246142
-0.323918
-0.304627
-0.235335
-0.0926446
-0.0951848
-0.0235498
-0.0143382
-0.326546
-0.214923
-0.187018
-0.154553
-0.120748
-0.0886605
-0.0314806
-0.0157965
0.00316431
-0.0104132
-0.0486477
-0.0907302
-0.135569
-0.18117
-0.225583
-0.265088
-0.297111
-0.0553599
-0.035349
-0.0204358
-0.0095054
-0.00157165
0.00401668
0.0142282
0.00781055
-0.263377
-0.052533
-0.0343631
-0.081615
-0.0687515
-0.0944435
-0.0899336
-0.0930034
-0.0955524
-0.0809345
-0.0877953
-0.0649684
-0.0731364
-0.0490553
-0.0568399
-0.035233
-0.0418203
-0.0240589
-0.0293194
-0.0153505
-0.0194179
-0.00875894
-0.0118131
-0.00393468
-0.00614704
-0.000562656
-0.00208529
0.00161921
0.000662682
0.00282037
0.00233066
0.00319898
0.00310598
0.00279946
0.00309924
0.00159337
0.0022937
-0.000176554
0.000743316
-0.0017906
-0.0010573
-0.00251144
-0.00228876
-0.00220317
-0.00246506
-0.00137325
-0.00180728
-0.000761613
-0.000996932
-0.000968361
-0.000736437
-0.00231548
-0.00149012
-0.00489166
-0.00345082
-0.00866896
-0.00663356
-0.0136162
-0.0109962
-0.0197825
-0.0165398
-0.0273319
-0.023371
-0.0364877
-0.0316976
-0.0473519
-0.0417125
-0.059626
-0.053356
-0.0723442
-0.0660267
-0.0839131
-0.0783912
-0.0887706
-0.148796
-0.113162
-0.131163
-0.183439
-0.16629
-0.214493
-0.199135
-0.236175
-0.226485
-0.246799
-0.243052
-0.244344
-0.247235
-0.229133
-0.238226
-0.203547
-0.217419
-0.171372
-0.188023
-0.136632
-0.154085
-0.102801
-0.119429
-0.0721098
-0.086988
-0.0455077
-0.0582387
-0.0339765
-0.00579844
-0.00606223
-0.00598999
-0.00498126
-0.0054913
-0.00397497
-0.00447919
-0.00326226
-0.00355095
-0.00326872
-0.0031597
-0.0041875
-0.00360784
-0.00614016
-0.00502535
-0.00933038
-0.00756411
-0.0140826
-0.0114872
-0.0208532
-0.0171831
-0.0302216
-0.0251761
-0.0427148
-0.0360611
-0.0581971
-0.0501476
-0.0747282
-0.0665534
-0.0879486
-0.0820828
-0.0931082
-0.0917317
-0.0886699
-0.0920119
-0.076716
-0.0834265
-0.0605439
-0.0689525
-0.0431658
-0.0518475
-0.0266713
-0.0347252
-0.0119797
-0.0190827
0.000832338
-0.00535156
0.0119794
0.00660157
0.0215786
0.0169735
0.0295388
0.0257753
0.0356584
0.0328403
0.0398071
0.0379787
0.042111
0.041167
0.0430649
0.0427122
0.0433819
0.0432625
0.0434655
0.0434568
0.0429896
0.0433381
0.0413606
0.0423464
0.0384114
0.0400374
0.0344241
0.036529
0.0294818
0.0320667
0.0234598
0.0265748
0.0101806
0.0159943
0.0199393
-0.306335
-0.339543
-0.292221
-0.257614
-0.0965604
-0.00609315
-0.321116
-0.314712
-0.240625
-0.334969
-0.214443
-0.18202
-0.146803
-0.112204
-0.0811254
0.0224033
0.0325077
0.0482996
0.0397929
0.0105256
-0.0251771
-0.0652567
-0.108463
-0.153602
-0.198762
-0.240958
-0.278196
-0.0509861
-0.0335235
-0.0205384
-0.0110267
-0.00415244
0.00059682
0.00369812
0.021275
0.0114972
0.0170412
-0.276707
-0.000609553
0.0161613
-0.0325253
-0.0173655
-0.056679
-0.0460869
-0.0669846
-0.0634737
-0.0661852
-0.0678179
-0.0574641
-0.0625072
-0.0455665
-0.0516647
-0.0335761
-0.0394705
-0.022889
-0.0280219
-0.0140011
-0.018215
-0.006893
-0.0102353
-0.00137445
-0.00394941
0.00278056
0.000858942
0.00579363
0.00441646
0.00786209
0.00693467
0.00915305
0.00859506
0.00980423
0.00955208
0.00987186
0.00991254
0.00931496
0.00967324
0.00822664
0.00881703
0.00708014
0.00761967
0.00647604
0.00668454
0.00660207
0.00646051
0.00708358
0.00683635
0.00729704
0.00726129
0.00671939
0.00713002
0.00507236
0.00603703
0.00229184
0.00382175
-0.0015751
0.000489531
-0.00647341
-0.00389708
-0.012416
-0.00930986
-0.0195134
-0.0158108
-0.0279254
-0.0235473
-0.0377096
-0.0326533
-0.048595
-0.0430515
-0.0597966
-0.054229
-0.0698575
-0.065097
-0.0774578
-0.0740898
-0.0811689
-0.079783
-0.113385
-0.081174
-0.0968926
-0.148544
-0.130843
-0.182629
-0.16591
-0.212745
-0.198317
-0.234533
-0.224888
-0.244951
-0.241309
-0.242335
-0.245295
-0.227074
-0.236176
-0.20157
-0.215386
-0.169584
-0.186128
-0.135111
-0.152424
-0.101552
-0.118047
-0.0711761
-0.0858799
-0.0449439
-0.057515
-0.0231739
-0.0335336
-0.00584725
-0.0141189
0.00122666
0.00132589
0.0012346
0.00153592
0.00133734
0.00219777
0.00184007
0.00294346
0.0025834
0.00337263
0.00322151
0.00317921
0.00336445
0.00223333
0.00280488
0.000436889
0.00144954
-0.00238474
-0.000831956
-0.00649994
-0.00426109
-0.0122783
-0.00915511
-0.0201864
-0.0159367
-0.0306568
-0.0250866
-0.0436205
-0.0368754
-0.0575742
-0.0506513
-0.068913
-0.0638561
-0.0733768
-0.0721969
-0.0693103
-0.0723534
-0.0585343
-0.0645674
-0.0441215
-0.0515971
-0.0287342
-0.0364163
-0.0141038
-0.0212588
-0.000943479
-0.00732802
0.010706
0.00505996
0.0209989
0.0160146
0.0299788
0.0256577
0.0375103
0.0339387
0.0433821
0.0406648
0.0474786
0.0456506
0.0499321
0.0488899
0.0511562
0.0506646
0.0516212
0.0514637
0.0514383
0.0516254
0.0502719
0.0510028
0.0478469
0.0492189
0.0443011
0.0461925
0.0399387
0.0422118
0.0347831
0.0374711
0.0286164
0.0318198
0.0250939
-0.307041
-0.32988
0.0054831
-0.301834
-0.264208
-0.308665
-0.316199
-0.240781
-0.0664991
-0.0666302
-0.00561669
0.00147669
-0.328639
-0.209331
-0.173441
-0.136874
-0.102938
-0.0740021
0.063446
0.0694996
0.0816876
0.00645471
0.0123072
0.0777155
0.0563957
0.0293268
-0.00341335
-0.0411672
-0.0821421
-0.125713
-0.170029
-0.213583
-0.253822
-0.0477954
-0.0326749
-0.021444
-0.0132371
-0.00742465
-0.00355859
-0.00119329
-0.284765
0.0422756
0.0558559
0.0130318
0.0276445
-0.0137619
-0.00101955
-0.0331485
-0.0245984
-0.042237
-0.0390034
-0.0424641
-0.0432611
-0.0368089
-0.0401694
-0.0285166
-0.032814
-0.0198203
-0.0241365
-0.0117725
-0.0156748
-0.00484618
-0.00815744