/*--------------------------------*- C++ -*----------------------------------*\
  =========                 |
  \\      /  F ield         | OpenFOAM: The Open Source CFD Toolbox
   \\    /   O peration     | Website:  https://openfoam.org
    \\  /    A nd           | Version:  10
     \\/     M anipulation  |
\*---------------------------------------------------------------------------*/
FoamFile
{
    format      ascii;
    class       volVectorField;
    location    "73";
    object      U;
}
// * * * * * * * * * * * * * * * * * * * * * * * * * * * * * * * * * * * * * //

dimensions      [0 1 -1 0 0 0 0];

internalField   nonuniform List<vector> 
28942
(
(0.00443308 -0.00225887 -3.43252e-22)
(0.00600004 -0.00234274 -6.38125e-23)
(0.0179375 -0.0123873 -8.21556e-22)
(0.103306 0.0182359 -5.24877e-21)
(0.102343 0.0222783 1.71862e-21)
(0.0144417 0.000447205 0)
(0.0171659 2.70749e-05 1.10115e-23)
(0.0199033 0.000577799 -9.74393e-24)
(0.135242 -0.0184156 -2.53654e-22)
(0.133898 -0.016781 7.22103e-22)
(0.00979976 0.00401531 -6.76112e-22)
(0.0160759 0.00563075 2.56568e-22)
(0.00714069 0.00315372 0)
(0.00470951 0.00206999 0)
(0.045078 0.00199847 -1.52174e-23)
(0.0432625 0.00257483 -6.04526e-24)
(0.0893162 0.0158847 6.66485e-22)
(0.0870041 0.0138533 1.07269e-21)
(0.012165 -0.0151131 2.90735e-21)
(0.0293318 -0.0304686 -7.65136e-22)
(0.0981191 0.0373926 9.50058e-22)
(0.0972975 0.0344288 0)
(0.0187451 0.00462909 1.16799e-21)
(0.00786623 0.00236451 5.50977e-22)
(0.0378061 0.00721428 9.45294e-22)
(0.0575419 0.00291523 -8.61764e-22)
(0.00764778 -0.0184924 8.49511e-21)
(0.00669364 -0.0165568 -3.12913e-21)
(0.0355113 -0.0253235 5.69456e-22)
(0.0193011 -0.0136824 1.9651e-22)
(0.0148195 -0.00136264 0)
(0.0185281 -0.00118372 -1.37773e-23)
(0.0235372 0.00425331 2.85641e-22)
(0.0339046 0.00189805 -4.47625e-23)
(0.0188256 0.0180094 1.31052e-21)
(0.01572 0.0191192 -1.30014e-21)
(0.0321697 0.0376161 -3.04669e-21)
(0.0186693 0.0305343 -1.06703e-21)
(0.00792105 -4.06316e-06 -9.21347e-24)
(0.00864884 0.0161966 -2.6102e-21)
(0.0306491 -0.0062032 0)
(0.0513424 -0.0109694 0)
(0.111949 -0.011882 -2.68527e-23)
(0.111451 -0.0118871 7.92085e-23)
(0.115978 -0.0117836 6.89987e-23)
(0.0280616 0.000195639 1.16318e-23)
(0.0261295 -0.000594012 -1.87255e-23)
(0.0373259 -0.000488596 -8.52072e-23)
(0.0357687 -0.000558247 2.4273e-23)
(0.0290746 -0.00270123 -2.10265e-22)
(0.021635 -0.00324384 1.36504e-22)
(0.128645 0.00134005 -3.97947e-22)
(0.127961 0.000866313 -3.71865e-22)
(0.134561 -0.0211848 -3.77293e-24)
(0.133013 -0.0194582 1.37918e-22)
(0.0825118 0.00636297 7.17783e-22)
(0.101766 -0.000755229 2.50869e-22)
(0.00305974 0.00162119 -5.66541e-22)
(0.00894633 0.00368052 0)
(0.00826035 0.00329 2.37728e-22)
(0.00288375 0.00148852 4.88911e-22)
(0.000362366 0.000226313 -4.06422e-22)
(0.000192918 0.000122668 -3.90661e-22)
(0.109781 -0.0426082 0)
(0.104915 -0.0256111 1.27443e-22)
(0.121786 -0.0331129 -4.39772e-23)
(0.12343 -0.0437679 0)
(0.0901091 -0.0328049 -6.37276e-22)
(0.0936132 -0.0352714 -4.18795e-22)
(0.001887 -0.00113074 1.13493e-21)
(0.00249125 -0.00201909 -3.57605e-22)
(0.00487695 -0.00315859 8.87261e-22)
(0.0848801 -0.0457629 0)
(0.0912056 -0.0396256 2.16289e-21)
(0.0805496 -0.0530293 5.84277e-22)
(0.114153 0.0123922 2.40068e-22)
(0.112754 0.00688687 -2.66163e-22)
(0.125121 0.0109886 -1.1505e-22)
(0.00468412 -0.0028623 -5.32624e-23)
(0.00633951 -0.00442655 4.44402e-22)
(0.0510158 -0.0311504 1.24731e-22)
(0.0331597 -0.0205396 -2.56661e-22)
(0.00211253 -0.000596965 3.21087e-21)
(0.00515971 -0.00207415 -1.2511e-21)
(0.100994 0.0482474 1.25392e-23)
(0.097039 0.0552147 -7.61443e-22)
(0.0807279 0.0540125 6.9452e-22)
(0.0472086 0.0345118 -2.67066e-21)
(0.0444371 0.0316082 1.89129e-21)
(0.0294943 0.0205968 -1.12931e-22)
(0.0327149 0.0232495 -6.39158e-22)
(0.0379562 0.0283592 8.66317e-22)
(0.00441032 0.00272216 -5.94932e-23)
(0.0077656 0.00397518 -1.714e-23)
(0.00318946 0.00201962 3.43467e-23)
(0.00192286 0.00164239 -4.59468e-22)
(0.00144935 0.00156509 5.63611e-22)
(0.0157433 0.0115442 -3.24286e-21)
(0.017496 0.013636 7.42542e-22)
(0.00880815 -0.00384898 0)
(0.101389 0.0051595 0)
(0.0984003 0.0156834 -3.95196e-21)
(0.0604409 0.0104756 1.93591e-21)
(0.0886806 0.0178813 0)
(0.135474 -0.00113788 0)
(0.134912 -0.00185351 0)
(0.133224 -0.00234638 -2.44552e-22)
(0.114975 0.0265998 -2.11221e-22)
(0.114067 0.0280031 2.08863e-21)
(0.113268 0.0254632 1.1208e-21)
(0.00229487 0.00129957 1.05688e-21)
(0.00151185 0.000777234 -1.18624e-21)
(0.0190592 -0.0055407 -5.52381e-22)
(0.0201415 -0.00507091 4.71991e-22)
(0.00910679 -0.00293189 9.32953e-22)
(0.00647662 0.0111476 1.47661e-21)
(0.018968 0.0181577 3.4514e-21)
(0.0134652 0.0227981 2.72185e-22)
(0.00492084 0.0143049 -8.60899e-21)
(0.116999 0.0477475 5.50928e-23)
(0.10787 0.0582367 1.0632e-21)
(0.118331 0.0548731 -1.83357e-21)
(0.0390904 -0.0294172 7.28386e-22)
(0.0240088 -0.0172646 -4.65127e-22)
(0.00532128 -0.000743515 -4.09646e-21)
(0.00453832 -0.00359352 0)
(0.0124961 -0.00167445 1.99928e-21)
(0.0219637 -0.0161301 7.7571e-22)
(0.0342544 -0.0277837 -1.94769e-21)
(0.0353015 -2.04034e-05 5.90734e-23)
(0.0375322 0.000140115 -4.30487e-23)
(0.0331511 0.000161546 -1.82663e-24)
(0.0280545 -0.041948 0)
(0.0296039 -0.0428398 0)
(0.0896226 -0.0186532 -4.61533e-22)
(0.0995905 -0.0220909 3.13646e-21)
(0.0870343 -0.0252786 0)
(0.0471163 -0.0401874 0)
(0.0581767 -0.0513834 -7.80108e-22)
(0.0413123 0.039337 2.08053e-21)
(-2.8757e-06 0.000213746 5.16684e-22)
(-0.000194781 0.000130577 -3.4081e-22)
(0.0223261 -0.0192401 -7.88302e-22)
(0.120361 -0.0116544 3.89003e-22)
(0.119734 -0.0116055 -7.52924e-23)
(0.11546 -0.00570844 -6.73294e-23)
(0.10839 0.000994984 8.97259e-23)
(0.117655 -0.00030136 1.84795e-22)
(8.18941e-05 0.000258965 1.99286e-22)
(0.0437458 0.034419 3.19413e-21)
(0.0618761 0.046308 -7.85406e-22)
(0.0593119 0.0393657 -3.00288e-24)
(0.023058 -0.000849113 5.74437e-24)
(0.02272 -0.000834499 3.01558e-23)
(0.0246525 -0.000614542 1.20664e-24)
(0.0275227 -0.000615616 -1.48428e-23)
(0.0454198 0.0380894 1.33778e-22)
(0.0189618 0.0160589 0)
(0.000140472 -3.15243e-05 3.71742e-22)
(0.000423891 -0.000258305 -4.12424e-22)
(0.0018632 -0.00101536 2.8801e-22)
(0.0365631 -0.00772543 -1.84821e-21)
(0.0648779 -0.00210695 -7.54518e-22)
(0.031998 -0.000223204 -2.20975e-24)
(0.0744863 -0.00764269 2.71886e-22)
(0.0706962 -0.0157282 6.4283e-23)
(0.0943058 0.0399152 2.138e-21)
(0.0914068 0.0454507 9.92837e-23)
(0.0887495 0.0290834 1.21287e-21)
(0.0914749 0.0308001 -8.78952e-22)
(0.098698 0.0410759 0)
(0.126106 -0.000352601 1.48339e-22)
(0.126876 -0.000787273 2.80073e-22)
(0.128094 -0.0123229 -2.93266e-22)
(0.129558 -0.0121267 5.01877e-22)
(0.117055 0.0241424 2.58924e-22)
(0.119113 0.0250424 -7.33163e-22)
(0.117101 0.0261551 0)
(0.115135 0.0248932 1.52696e-22)
(0.116673 0.0280777 0)
(0.117176 0.0360992 -5.49132e-22)
(0.115714 0.0381514 -2.99888e-22)
(0.11134 0.0419649 -5.3883e-22)
(0.113734 0.0400967 0)
(0.116423 0.0430717 1.78163e-21)
(0.113701 0.0449948 4.73881e-23)
(0.108334 0.0441761 -3.02779e-22)
(0.0996316 0.0502797 -1.28329e-21)
(0.0984215 0.0454915 -2.26121e-22)
(0.0249764 -0.00849668 6.11369e-23)
(0.0328372 -0.00935552 -2.43894e-23)
(0.00628944 -0.00249164 -6.9704e-22)
(0.0313865 -8.17095e-05 -3.77343e-23)
(0.0402031 -0.00027496 0)
(-2.5506e-06 -4.06078e-05 4.36993e-22)
(1.35454e-05 -4.76077e-05 2.22498e-22)
(0.0363847 -0.00183852 1.77389e-23)
(0.0429853 -0.00178652 7.25284e-24)
(0.0425252 -0.00122591 0)
(0.0351923 -0.000839504 7.81423e-24)
(0.0866899 0.00365125 -1.09729e-22)
(0.0859405 0.00330459 5.18494e-22)
(0.0868236 0.00340401 2.39784e-22)
(0.000670535 0.000271536 3.95278e-22)
(-0.000159611 -0.000129408 -5.72237e-22)
(-0.000201286 -0.000169124 4.88154e-22)
(0.00150076 0.000617644 0)
(7.99974e-05 8.78424e-05 1.14296e-21)
(0.000172029 -3.8981e-05 -8.24772e-22)
(0.00744997 0.00367433 -9.94941e-22)
(0.00145215 0.000781579 -1.18712e-21)
(0.00172106 0.000860884 0)
(0.00157198 0.00754288 0)
(0.000576949 0.00328079 0)
(0.000313301 0.00197655 0)
(0.136644 -0.00115227 5.49945e-23)
(0.137652 -0.000988747 0)
(0.136018 -0.00193846 -6.41613e-23)
(0.0881119 -0.0148549 4.41645e-21)
(0.0901186 -0.0152639 -1.60315e-21)
(0.0890339 -0.0128795 0)
(0.0991622 0.000243851 -6.54087e-24)
(0.0998241 0.000233852 1.30906e-23)
(0.0984981 0.0002544 -4.42045e-24)
(0.10048 0.000226858 0)
(0.101134 0.000229087 -8.35715e-24)
(0.101779 0.000225758 0)
(0.101779 -0.000460361 0)
(0.102416 0.000210199 3.10531e-23)
(0.102406 -0.000479492 0)
(0.101141 -0.000453839 -8.41653e-24)
(0.100487 -0.000452465 0)
(0.0998304 -0.000449861 4.37569e-24)
(0.0991655 -0.000450745 -6.5365e-24)
(0.098504 -0.00044938 4.41492e-24)
(0.103037 0.000192985 -2.97152e-23)
(0.10303 -0.000490944 -1.03936e-24)
(0.0978244 0.000270815 -7.25731e-30)
(0.0978251 -0.000440462 -6.74118e-24)
(0.0971393 0.00028593 3.58305e-23)
(0.103648 0.000183816 2.7776e-26)
(0.103658 -0.000492208 -1.04061e-24)
(0.0971442 -0.000439473 1.3278e-23)
(0.104259 0.000174164 2.79813e-23)
(0.104864 0.00016771 -2.79583e-23)
(0.104272 -0.000493462 2.09497e-24)
(0.104879 -0.000491957 4.14167e-24)
(0.0964743 0.000313576 -3.48613e-23)
(0.0964716 -0.000436485 -8.73791e-24)
(0.105461 0.000159937 0)
(0.105477 -0.000490859 -4.08508e-24)
(0.0957858 0.000330462 4.30743e-27)
(0.0957848 -0.000426586 -4.31823e-27)
(0.106052 0.00015492 0)
(0.106068 -0.000487301 0)
(0.0950918 0.000343766 0)
(0.0950909 -0.000419962 0)
(0.106634 0.000148258 0)
(0.10665 -0.00048435 1.96215e-24)
(0.0943929 0.000357485 -1.80344e-23)
(0.0943914 -0.000411623 -4.40277e-27)
(0.107208 0.000144193 1.0285e-25)
(0.107223 -0.000478945 -2.09557e-24)
(0.0936889 0.000369448 1.81206e-23)
(0.093687 -0.00040458 0)
(0.107773 0.00013834 0)
(0.107788 -0.000474012 0)
(0.0929807 0.000382335 -1.14503e-24)
(0.0929781 -0.00039468 1.96423e-23)
(0.10833 0.000134997 1.27081e-23)
(0.108345 -0.000466261 0)
(0.092269 0.000393294 -9.376e-26)
(0.0922649 -0.000384634 -1.85905e-23)
(0.108877 0.000129924 -1.90061e-23)
(0.108892 -0.00045893 -5.51463e-24)
(0.0915382 0.000397247 1.89418e-23)
(0.0915372 -0.000374469 0)
(0.109416 0.000128266 6.25868e-24)
(0.109433 -0.000445413 3.67763e-24)
(0.0908064 0.000408626 -9.57476e-24)
(0.0908053 -0.000367225 1.9412e-23)
(0.109942 0.000129162 -2.49781e-23)
(0.109969 -0.000423993 2.81526e-23)
(0.0900434 0.000404183 9.86271e-24)
(0.0900515 -0.000365507 3.11946e-25)
(0.110467 0.000132719 0)
(0.110492 -0.000403306 1.34089e-23)
(0.0892741 0.000400461 -1.98199e-23)
(0.0892893 -0.000371345 3.96424e-23)
(0.111 0.000127627 0)
(0.111009 -0.000388795 0)
(0.0903133 0.00116835 -9.75908e-24)
(0.0895397 0.00117052 -3.9455e-23)
(0.0884817 0.000390181 0)
(0.0885143 -0.000389347 -2.01769e-23)
(0.0918125 0.00115448 -6.13747e-24)
(0.0910655 0.00116245 1.20501e-24)
(0.0932472 0.00112366 0)
(0.0925271 0.00113876 -1.98416e-23)
(0.0946513 0.00108842 -3.84011e-26)
(0.0939524 0.00110653 0)
(0.0960323 0.00104989 0)
(0.0953445 0.0010695 0)
(0.0973932 0.00100354 0)
(0.096715 0.00102868 0)
(0.0987075 0.000957114 8.73102e-24)
(0.0980467 0.000979031 2.19921e-24)
(0.100018 0.000923765 -8.42521e-24)
(0.0993706 0.000939901 -8.71519e-24)
(0.101304 0.000896589 1.4978e-23)
(0.100658 0.000903543 1.91243e-23)
(0.102585 0.000874354 0)
(0.101947 0.000888832 0)
(0.103821 0.000848591 -6.58703e-26)
(0.103208 0.000861297 0)
(0.105026 0.000820294 0)
(0.104427 0.000834561 0)
(0.106202 0.000791384 0)
(0.105618 0.00080575 0)
(0.107347 0.000762666 0)
(0.106779 0.000776916 0)
(0.108458 0.000734041 0)
(0.107907 0.000748283 0)
(0.109532 0.000704876 0)
(0.109 0.000719505 0)
(0.110577 0.000658588 -1.01978e-23)
(0.110056 0.000688929 0)
(0.111093 0.000634499 -3.29065e-24)
(0.111518 0.00011823 3.2126e-24)
(0.111524 -0.000378384 -3.18587e-24)
(0.110077 -0.000944873 0)
(0.111108 -0.000895211 -1.30762e-23)
(0.110596 -0.000918928 -6.7435e-24)
(0.109011 -0.000994196 1.84838e-24)
(0.109547 -0.00097147 -7.2293e-24)
(0.107916 -0.00103073 5.98921e-26)
(0.108467 -0.00101448 0)
(0.106787 -0.00105821 0)
(0.107356 -0.00104502 0)
(0.105625 -0.00108123 0)
(0.10621 -0.00107015 0)
(0.104431 -0.00110056 0)
(0.105032 -0.00109122 7.88649e-30)
(0.103206 -0.00111768 6.6506e-26)
(0.103822 -0.00110916 0)
(0.10196 -0.00112424 0)
(0.102583 -0.0011231 0)
(0.100682 -0.00112554 0)
(0.101322 -0.00112466 0)
(0.0993773 -0.0011302 0)
(0.100032 -0.00112527 -4.42406e-24)
(0.0980496 -0.00113857 1.16114e-24)
(0.0987148 -0.00113828 -5.69841e-24)
(0.0967111 -0.00114705 0)
(0.0973878 -0.00114125 -4.63275e-24)
(0.0953408 -0.00114669 0)
(0.0960291 -0.00114742 0)
(0.0939462 -0.00114323 0)
(0.0946465 -0.00114523 0)
(0.0925237 -0.00113592 0)
(0.0932395 -0.0011401 0)
(0.091068 -0.00112692 -5.01783e-24)
(0.0918015 -0.00113011 0)
(0.0895835 -0.00113675 -2.02798e-23)
(0.0903298 -0.00112628 -5.0375e-24)
(0.0888196 -0.00115214 2.0627e-23)
(0.0887533 0.00117452 3.91046e-23)
(0.111604 0.000614014 6.43863e-24)
(0.111614 -0.000871076 -1.25698e-23)
(0.0877179 -0.000418749 0)
(0.0880482 -0.00118288 0)
(0.0879551 0.00117852 0)
(0.0876766 0.000372196 0)
(0.0908546 0.00191652 0)
(0.0893385 0.00195411 9.79617e-24)
(0.0901012 0.00193321 9.90051e-24)
(0.0923303 0.0018769 1.26022e-23)
(0.0915981 0.00189799 -2.51818e-24)
(0.0937396 0.00182785 3.90234e-26)
(0.09304 0.00185248 0)
(0.0951201 0.0017786 0)
(0.094433 0.00180333 0)
(0.0964768 0.00172881 0)
(0.0958013 0.00175375 0)
(0.097813 0.00168098 0)
(0.097147 0.00170392 0)
(0.099121 0.00163218 0)
(0.0984695 0.00165738 0)
(0.100406 0.0015888 -3.53147e-26)
(0.0997624 0.00161145 9.10476e-24)
(0.10166 0.00154331 -3.39089e-26)
(0.10104 0.00156467 -1.7785e-23)
(0.102908 0.00149622 0)
(0.102285 0.00151882 0)
(0.104124 0.00145319 3.28886e-26)
(0.10352 0.00147444 0)
(0.105309 0.00140999 0)
(0.10472 0.00143169 0)
(0.106465 0.00136588 0)
(0.105891 0.00138802 0)
(0.10759 0.00132092 0)
(0.107032 0.00134349 0)
(0.108682 0.00127488 0)
(0.108141 0.00129805 0)
(0.109738 0.00122611 0)
(0.109215 0.0012511 0)
(0.110765 0.00116176 6.96559e-24)
(0.110254 0.00119675 0)
(0.112025 0.00011348 0)
(0.112101 0.000593952 6.28573e-24)
(0.111768 0.00109625 0)
(0.111269 0.00112871 6.78274e-24)
(0.11129 -0.0013927 1.35003e-23)
(0.111784 -0.00135783 3.31224e-24)
(0.11211 -0.000851134 2.5852e-23)
(0.112027 -0.000365467 0)
(0.110277 -0.00146302 0)
(0.110786 -0.00142792 -2.03847e-23)
(0.109231 -0.00152765 5.81462e-26)
(0.109759 -0.00149508 7.27326e-24)
(0.108156 -0.00157996 -5.98919e-26)
(0.108698 -0.00155505 0)
(0.107047 -0.00162457 0)
(0.107605 -0.00160299 0)
(0.105904 -0.00166384 0)
(0.106479 -0.0016448 0)
(0.104731 -0.00169856 0)
(0.105321 -0.00168171 -7.88647e-30)
(0.103529 -0.00172946 -1.32912e-25)
(0.104134 -0.00171446 0)
(0.102304 -0.00175428 0)
(0.102919 -0.00174287 0)
(0.101048 -0.00177467 2.23174e-24)
(0.101679 -0.00176462 0)
(0.0997707 -0.00179031 0)
(0.100411 -0.00178056 -2.22242e-24)
(0.098469 -0.00180857 4.64337e-24)
(0.0991186 -0.00180018 4.61763e-24)
(0.097144 -0.00182082 0)
(0.0978104 -0.00181525 0)
(0.095795 -0.00183185 0)
(0.0964724 -0.00182657 0)
(0.0944217 -0.00184124 0)
(0.0951114 -0.00183668 0)
(0.0930221 -0.00185003 0)
(0.0937254 -0.00184555 0)
(0.0915934 -0.0018606 8.01413e-26)
(0.0923117 -0.00185493 0)
(0.0901332 -0.00187629 -8.11221e-26)
(0.0908684 -0.00186794 0)
(0.0886424 -0.00192502 -2.11946e-23)
(0.0893905 -0.00189713 2.11849e-23)
(0.0885622 0.00197512 1.99027e-23)
(0.0872726 -0.00122544 0)
(0.0878871 -0.00196598 -4.30296e-23)
(0.086922 -0.000455181 0)
(0.112256 0.00107033 0)
(0.112272 -0.00132232 -3.21077e-24)
(0.0871517 0.00118298 5.0354e-23)
(0.0877809 0.0019971 2.01337e-23)
(0.086482 -0.00127047 1.08836e-23)
(0.0871227 -0.00201468 5.43756e-23)
(0.0868599 0.000350216 0)
(0.112011 0.00157376 2.64856e-23)
(0.112484 0.00153401 -1.30767e-23)
(0.112593 -0.000827439 -6.35601e-24)
(0.112747 -0.00128382 3.15885e-23)
(0.0887336 0.00278188 7.06668e-23)
(0.0869799 0.00201858 -3.96705e-23)
(0.0871698 0.00284461 -1.76879e-22)
(0.0879483 0.0028091 -4.03527e-23)
(0.0902228 0.00271045 1.97036e-23)
(0.0894839 0.00274755 -6.01515e-23)
(0.091666 0.00264079 -2.01683e-23)
(0.0909508 0.00267554 -1.51923e-23)
(0.0930856 0.00257744 -5.03906e-24)
(0.0923822 0.00261029 -5.0371e-24)
(0.0944603 0.00251581 -3.90234e-26)
(0.093779 0.00254697 0)
(0.0958042 0.00245363 0)
(0.0951353 0.00248462 0)
(0.0971244 0.0023924 0)
(0.0964671 0.0024229 0)
(0.0984231 0.00233286 0)
(0.0977764 0.00236226 0)
(0.0996986 0.00227556 0)
(0.0990635 0.00230371 0)
(0.10095 0.0022182 0)
(0.100327 0.00224678 0)
(0.102178 0.0021619 7.18103e-29)
(0.101568 0.00219075 0)
(0.103385 0.00210279 0)
(0.102784 0.00213209 0)
(0.104568 0.00204529 3.27897e-26)
(0.10398 0.00207394 0)
(0.105724 0.00198749 0)
(0.10515 0.00201652 0)
(0.106851 0.00192837 0)
(0.106291 0.00195813 0)
(0.107947 0.00186749 0)
(0.107403 0.00189817 0)
(0.109011 0.00180438 0)
(0.108483 0.00183626 0)
(0.110041 0.00173713 0)
(0.109531 0.00177158 0)
(0.111039 0.00165738 3.545e-24)
(0.110545 0.00169874 -1.78457e-24)
(0.111529 0.00161607 -1.35164e-23)
(0.112511 0.000112976 -3.01203e-24)
(0.112733 0.00104269 1.25814e-23)
(0.112585 0.000580038 -9.63367e-24)
(0.112513 -0.000360468 0)
(0.111554 -0.00187859 -1.00396e-23)
(0.112505 -0.00178214 -2.89373e-23)
(0.112034 -0.00183165 2.33214e-23)
(0.110569 -0.00197214 0)
(0.111066 -0.00192485 0)
(0.109553 -0.00204853 -9.25224e-29)
(0.110065 -0.00200953 0)
(0.108505 -0.00211765 0)
(0.109033 -0.00208427 0)
(0.107424 -0.00217889 -6.13894e-26)
(0.107968 -0.00214911 0)
(0.106311 -0.00223389 0)
(0.106871 -0.00220713 0)
(0.105168 -0.00228323 0)
(0.105743 -0.00225924 0)
(0.103998 -0.0023273 6.64155e-26)
(0.104586 -0.00230592 0)
(0.102802 -0.00236555 6.78984e-26)
(0.103403 -0.00234717 0)
(0.101581 -0.00239952 0)
(0.102195 -0.00238289 0)
(0.100335 -0.00242934 0)
(0.100961 -0.002415 0)
(0.0990665 -0.00245694 0)
(0.0997028 -0.00244323 0)
(0.0977742 -0.00248048 0)
(0.0984234 -0.00246884 0)
(0.0964585 -0.00250326 -7.56177e-26)
(0.0971193 -0.00249201 0)
(0.0951188 -0.00252531 0)
(0.0957918 -0.00251432 0)
(0.0937533 -0.00254793 0)
(0.0944394 -0.00253643 0)
(0.09236 -0.00257318 -1.69041e-28)
(0.0930602 -0.0025601 0)
(0.0909377 -0.00260323 1.86114e-28)
(0.0916528 -0.00258758 0)
(0.0894885 -0.00264889 8.36308e-26)
(0.0902135 -0.0026214 0)
(0.0880171 -0.00272989 -4.39124e-23)
(0.0887545 -0.00268403 1.08053e-23)
(0.086349 -0.00206331 1.10474e-23)
(0.0872845 -0.00278364 2.19603e-23)
(0.0863387 0.00118068 -1.973e-23)
(0.0861097 -0.000495015 -2.10801e-23)
(0.112949 0.00149427 3.19684e-24)
(0.11297 -0.00173679 2.27381e-23)
(0.0861423 0.0020192 2.47697e-24)
(0.085683 -0.00132303 0)
(0.0861452 0.00274957 2.71055e-22)
(0.0865472 -0.00283978 3.36976e-23)
(0.0855825 -0.00211689 4.49966e-23)
(0.0877478 0.00379604 -4.46181e-22)
(0.0874477 0.00394323 8.1839e-23)
(0.0860516 0.00033092 0)
(0.0886131 0.00363078 4.53231e-23)
(0.0880717 0.00373734 2.31099e-23)
(0.0899597 0.00352105 4.0945e-23)
(0.0892472 0.00356473 -6.23904e-23)
(0.0913699 0.00342736 -2.03962e-23)
(0.0906748 0.00347623 -1.01681e-23)
(0.0927363 0.00334042 1.02346e-23)
(0.0920566 0.00338264 1.0355e-23)
(0.0940817 0.00325815 0)
(0.0934093 0.00329772 -1.64873e-26)
(0.0953988 0.00318163 0)
(0.0947435 0.00321978 0)
(0.0966929 0.00310717 3.81376e-26)
(0.0960486 0.00314409 0)
(0.0979654 0.0030349 0)
(0.0973318 0.00307082 0)
(0.0992171 0.00296447 0)
(0.0985938 0.00299944 0)
(0.100447 0.00289575 0)
(0.099835 0.00292992 0)
(0.101656 0.00282746 3.5101e-26)
(0.101054 0.00286153 0)
(0.102842 0.00275921 8.01608e-29)
(0.102252 0.00279364 0)
(0.104007 0.00268938 0)
(0.103427 0.00272432 0)
(0.105148 0.00261916 -6.55062e-26)
(0.104581 0.00265438 0)
(0.106264 0.00254768 0)
(0.10571 0.00258365 0)
(0.107353 0.00247411 0)
(0.106812 0.00251121 0)
(0.108412 0.00239786 0)
(0.107886 0.00243637 0)
(0.109441 0.00231832 0)
(0.10893 0.00235856 0)
(0.110436 0.00223376 0)
(0.109943 0.0022769 0)
(0.111401 0.00214143 -1.77011e-24)
(0.110922 0.00218742 0)
(0.112334 0.0020397 0)
(0.111871 0.0020911 -3.42667e-24)
(0.113235 0.00193278 -3.36998e-27)
(0.11279 0.00198716 0)
(0.113194 0.0010157 -1.27561e-23)
(0.113677 0.0018848 7.67607e-25)
(0.113405 0.00145803 6.23766e-24)
(0.11298 0.000108488 4.59078e-24)
(0.113053 0.000564411 -3.16866e-24)
(0.113062 -0.00080347 -1.59611e-24)
(0.112984 -0.000349979 1.59237e-24)
(0.113421 -0.00169244 0)
(0.113208 -0.00125257 -1.44849e-23)
(0.112816 -0.00223622 -6.50372e-24)
(0.113699 -0.00212443 -1.24395e-23)
(0.113263 -0.00217946 2.85685e-23)
(0.1119 -0.00235245 -3.41723e-24)
(0.112362 -0.00229508 0)
(0.110951 -0.00245989 0)
(0.111429 -0.00240635 0)
(0.10997 -0.00255408 -1.1593e-28)
(0.110465 -0.00250824 0)
(0.108958 -0.00263943 0)
(0.109468 -0.00259786 0)
(0.107914 -0.00271669 6.13894e-26)
(0.10844 -0.00267901 0)
(0.106839 -0.00278681 0)
(0.10738 -0.00275262 0)
(0.105735 -0.00285027 0)
(0.106291 -0.00281937 0)
(0.104605 -0.00290742 0)
(0.105174 -0.00287963 0)
(0.10345 -0.0029585 -1.57894e-28)
(0.104031 -0.00293369 0)
(0.102271 -0.00300469 0)
(0.102863 -0.00298213 0)
(0.101067 -0.00304646 0)
(0.101672 -0.0030261 0)
(0.0998416 -0.00308512 0)
(0.100457 -0.00306611 0)
(0.0985932 -0.00312068 0)
(0.0992203 -0.00310312 0)
(0.0973219 -0.00315517 7.56177e-26)
(0.0979604 -0.00313802 0)
(0.0960272 -0.00318954 0)
(0.0966775 -0.00317231 0)
(0.0947079 -0.00322531 0)
(0.0953707 -0.00320714 0)
(0.0933627 -0.00326454 -7.99646e-26)
(0.0940386 -0.00324437 0)
(0.0919906 -0.00330903 8.13429e-26)
(0.0926801 -0.00328609 0)
(0.0905908 -0.0033616 -8.26859e-26)
(0.0912938 -0.00333399 0)
(0.0891733 -0.00343165 1.08513e-23)
(0.0898799 -0.00339166 -2.14127e-23)
(0.087764 -0.00353597 -1.09134e-23)
(0.088465 -0.00347848 2.2192e-23)
(0.085799 -0.00289277 2.81763e-25)
(0.0870507 -0.00359368 2.23616e-23)
(0.0855091 0.00115934 -2.01883e-23)
(0.0852973 -0.000523978 0)
(0.0852937 0.00196753 -1.94983e-22)
(0.0848793 -0.0013585 0)
(0.113595 0.0023646 -3.18502e-24)
(0.114012 0.0022996 2.33272e-24)
(0.11386 -0.00164772 -1.22067e-23)
(0.114126 -0.00206166 -1.38142e-23)
(0.0851514 0.00268267 -1.89669e-22)
(0.0848079 -0.00216648 -4.54367e-23)
(0.0865282 0.0039159 0)
(0.089138 0.00450169 -5.16481e-23)
(0.0850522 -0.00294678 -2.22951e-23)
(0.0863299 -0.00364932 3.37963e-23)
(0.0885196 0.00448878 1.03752e-22)
(0.0852321 0.000309441 0)
(0.0901414 0.00433208 0)
(0.0896076 0.0044211 -4.60622e-23)
(0.0914119 0.00420605 0)
(0.0907579 0.00426609 0)
(0.0927271 0.00409764 0)
(0.0920711 0.00414923 1.05342e-23)
(0.0940123 0.00399938 0)
(0.0933714 0.00404803 0)
(0.095284 0.00390618 0)
(0.0946498 0.00395153 0)
(0.0965374 0.00381857 0)
(0.0959132 0.00386209 0)
(0.0977715 0.00373372 -3.81376e-26)
(0.0971568 0.0037758 0)
(0.0989864 0.00365132 0)
(0.0983813 0.00369228 0)
(0.100182 0.00357078 0)
(0.0995866 0.00361085 0)
(0.101358 0.00349154 0)
(0.100773 0.00353105 0)
(0.102514 0.00341271 -9.80344e-29)
(0.101939 0.00345213 0)
(0.103649 0.00333354 9.46623e-29)
(0.103084 0.0033733 0)
(0.104763 0.00325284 0)
(0.104209 0.00329335 0)
(0.105855 0.00317067 8.78352e-29)
(0.105312 0.00321199 0)
(0.106923 0.00308631 0)
(0.106392 0.00312882 0)
(0.107965 0.002999 0)
(0.107447 0.00304308 0)
(0.108979 0.00290809 0)
(0.108476 0.00295404 0)
(0.109965 0.0028129 0)
(0.109476 0.00286109 0)
(0.110919 0.00271226 0)
(0.110446 0.00276338 0)
(0.111842 0.00260508 0)
(0.111384 0.00265955 0)
(0.112733 0.00248829 3.39232e-24)
(0.112291 0.00254596 3.4787e-24)
(0.113168 0.00242594 -6.50667e-24)
(0.113641 0.000988949 -6.25298e-24)
(0.114108 0.00183726 0)
(0.113843 0.00141712 -6.31045e-24)
(0.113434 0.000105778 0)
(0.113501 0.000550688 6.38157e-24)
(0.113512 -0.00078191 9.52827e-24)
(0.113437 -0.000339899 -3.22159e-24)
(0.113655 -0.0012181 -1.87243e-23)
(0.113198 -0.00267585 3.26952e-24)
(0.114039 -0.00253316 1.21327e-23)
(0.113625 -0.00261054 0)
(0.112324 -0.00280748 -6.78836e-24)
(0.112766 -0.00274338 6.81075e-24)
(0.111417 -0.00292958 0)
(0.111874 -0.00287048 0)
(0.110479 -0.00304009 -1.37771e-28)
(0.110952 -0.00298608 0)
(0.109509 -0.00314126 0)
(0.109998 -0.00309181 0)
(0.10851 -0.00323383 0)
(0.109013 -0.00318859 0)
(0.107481 -0.00331839 0)
(0.107999 -0.00327709 0)
(0.106425 -0.00339539 0)
(0.106956 -0.00335782 0)
(0.105344 -0.00346528 6.59653e-26)
(0.105887 -0.00343121 0)
(0.104238 -0.00352865 -6.77405e-26)
(0.104794 -0.00349774 0)
(0.103109 -0.00358657 0)
(0.103676 -0.00355824 0)
(0.101957 -0.00363976 0)
(0.102536 -0.00361371 0)
(0.100784 -0.0036894 0)
(0.101373 -0.00366498 0)
(0.099589 -0.00373631 0)
(0.100189 -0.0037131 0)
(0.0983722 -0.00378215 0)
(0.0989833 -0.0037593 0)
(0.0971331 -0.00382826 0)
(0.0977554 -0.00380509 0)
(0.095871 -0.0038763 -7.81103e-26)
(0.096505 -0.00385194 0)
(0.0945852 -0.00392822 7.95163e-26)
(0.0952311 -0.00390166 0)
(0.0932754 -0.00398581 -8.08834e-26)
(0.0939333 -0.00395625 0)
(0.0919417 -0.0040506 0)
(0.0926114 -0.0040172 0)
(0.090585 -0.00412374 0)
(0.0912657 -0.00408591 0)
(0.0892213 -0.00421091 8.57803e-26)
(0.0899053 -0.00416497 1.09037e-23)
(0.0878523 -0.00432293 -5.66477e-23)
(0.0885318 -0.00426322 0)
(0.0856242 -0.00371423 -3.35869e-23)
(0.0871742 -0.00438705 -2.79824e-25)
(0.0846801 0.00113562 6.30708e-23)
(0.0844779 -0.000547945 0)
(0.114426 0.00223779 -1.21163e-23)
(0.11445 -0.00246619 -2.33977e-23)
(0.0843593 0.00190305 -3.32685e-23)
(0.0853882 0.00344143 1.01783e-24)
(0.0843015 0.00262232 9.46256e-23)
(0.084078 -0.00138415 0)
(0.0840194 -0.00219768 1.13503e-23)
(0.0874525 0.00445539 -9.71524e-23)
(0.0864778 0.00435399 8.29187e-23)
(0.0849329 0.00354308 -8.16548e-23)
(0.0842943 -0.00299093 -3.40648e-23)
(0.0848991 -0.00377339 2.26965e-23)
(0.086508 -0.00446482 2.22836e-23)
(0.0844052 0.000287897 0)
(0.0907055 0.00512327 2.89284e-24)
(0.0891618 0.00513294 5.02884e-25)
(0.0899976 0.00511642 2.25883e-23)
(0.0918173 0.00498314 2.23595e-23)
(0.0912642 0.00506016 -2.24755e-23)
(0.0930284 0.00484115 4.14593e-26)
(0.092405 0.00490859 0)
(0.0942594 0.00472601 0)
(0.0936467 0.00478101 0)
(0.0954728 0.00462008 0)
(0.0948677 0.00467255 0)
(0.0966725 0.0045191 0)
(0.0960745 0.00456876 0)
(0.0978558 0.00442261 3.86299e-26)
(0.0972663 0.00447052 0)
(0.0990222 0.00432881 0)
(0.0984411 0.0043754 0)
(0.100171 0.00423728 0)
(0.099599 0.00428281 0)
(0.101303 0.00414743 0)
(0.100739 0.00419219 0)
(0.102417 0.00405857 0)
(0.101862 0.00410293 0)
(0.103512 0.00396986 -3.5003e-26)
(0.102967 0.00401426 0)
(0.104587 0.00388045 1.09366e-28)
(0.104052 0.00392534 0)
(0.105643 0.00378929 0)
(0.105118 0.00383512 0)
(0.106678 0.00369589 6.5156e-26)
(0.106163 0.00374293 0)
(0.10769 0.00359944 0)
(0.107187 0.0036481 0)
(0.108679 0.00349921 0)
(0.108188 0.00354986 0)
(0.109641 0.00339446 0)
(0.109163 0.00344745 0)
(0.110576 0.00328454 0)
(0.110112 0.0033402 0)
(0.111482 0.00316858 0)
(0.111033 0.00322739 0)
(0.112357 0.00304567 5.52094e-26)
(0.111923 0.00310804 0)
(0.113202 0.00291421 -3.40714e-24)
(0.112784 0.0029815 0)
(0.114016 0.00277097 3.24122e-24)
(0.113613 0.00284353 0)
(0.1148 0.00262065 3.07578e-24)
(0.11441 0.00269689 -3.15445e-24)
(0.114519 0.00178511 6.09757e-24)
(0.115182 0.00254597 0)
(0.114829 0.00217648 9.06662e-24)
(0.114068 0.000962151 0)
(0.114265 0.00137862 0)
(0.113872 0.000103654 0)
(0.113937 0.000535092 0)
(0.113947 -0.000759022 0)
(0.113875 -0.000329271 0)
(0.114283 -0.00160211 1.24407e-23)
(0.114083 -0.00118563 3.093e-24)
(0.114845 -0.00239759 3.04587e-24)
(0.114537 -0.00200569 2.43408e-23)
(0.114444 -0.0029346 1.5835e-23)
(0.115206 -0.00277458 3.0202e-24)
(0.114829 -0.00285374 -6.15304e-24)
(0.113648 -0.0030936 3.25516e-24)
(0.114048 -0.00301445 -1.95243e-23)
(0.11282 -0.00324135 -1.28554e-28)
(0.113238 -0.00316824 0)
(0.111961 -0.00337708 0)
(0.112394 -0.00331024 0)
(0.111071 -0.00350313 -1.59217e-28)
(0.11152 -0.00344137 0)
(0.110152 -0.00361945 0)
(0.110615 -0.00356249 0)
(0.109204 -0.00372651 0)
(0.109682 -0.00367412 0)
(0.108229 -0.00382475 0)
(0.10872 -0.00377672 0)
(0.107228 -0.00391462 0)
(0.107731 -0.00387071 0)
(0.106203 -0.0039967 -1.31725e-25)
(0.106718 -0.00395661 0)
(0.105154 -0.00407176 0)
(0.105681 -0.00403506 0)
(0.104084 -0.00414084 0)
(0.104622 -0.004107 0)
(0.102992 -0.00420489 0)
(0.103541 -0.00417344 0)
(0.10188 -0.00426512 0)
(0.102439 -0.00423543 0)
(0.100747 -0.00432273 -7.34693e-26)
(0.101316 -0.00429417 0)
(0.0995935 -0.0043793 0)
(0.100173 -0.00435107 0)
(0.0984193 -0.00443638 0)
(0.099009 -0.00440769 0)
(0.097224 -0.00449565 7.81103e-26)
(0.0978243 -0.00446564 0)
(0.0960073 -0.00455894 -2.77017e-28)
(0.0966183 -0.0045267 0)
(0.0947693 -0.00462788 1.61484e-25)
(0.0953909 -0.00459265 0)
(0.0935105 -0.00470366 0)
(0.0941424 -0.00466488 0)
(0.0922314 -0.00478699 0)
(0.0928733 -0.00474419 0)
(0.0909342 -0.00487717 -3.10808e-28)
(0.0915854 -0.00483215 0)
(0.08962 -0.00497879 0)
(0.090278 -0.00492563 0)
(0.088333 -0.0051107 -3.36331e-23)
(0.088972 -0.00504055 0)
(0.085825 -0.00453712 -2.73664e-25)
(0.087699 -0.00518968 5.70561e-23)
(0.0838116 0.00109291 0)
(0.0883132 0.00513122 1.30993e-22)
(0.0834933 0.00184434 2.27253e-23)
(0.115229 0.00298906 -3.07e-24)
(0.115588 0.0029079 0)
(0.115231 -0.00233066 2.95942e-24)
(0.115573 -0.00269116 -5.8783e-24)
(0.0836575 -0.000569689 0)
(0.0832691 -0.00140136 0)
(0.0835924 0.00269601 0)
(0.0832261 -0.0022218 -1.11791e-23)
(0.0835305 -0.00303746 -2.24595e-23)
(0.08417 -0.00383746 0)
(0.0851309 -0.00461221 5.7735e-23)
(0.087047 -0.00527024 -4.60204e-23)
(0.0835681 0.000261727 0)
(0.0911644 0.00577751 -1.08672e-26)
(0.0874242 0.00508673 4.10634e-23)
(0.0896542 0.00584364 -1.46316e-22)
(0.0904071 0.00582744 4.29098e-23)
(0.0925193 0.00571082 -1.3977e-23)
(0.0918581 0.00572588 -2.23958e-23)
(0.0936536 0.00558956 0)
(0.0930993 0.00566147 0)
(0.0948049 0.00544067 -4.14556e-26)
(0.0942183 0.00551114 0)
(0.0959626 0.00531756 0)
(0.0953868 0.00537707 0)
(0.0971014 0.00520385 0)
(0.096534 0.00526003 0)
(0.0982251 0.00509531 0)
(0.0976651 0.00514895 0)
(0.0993332 0.00499078 -3.86299e-26)
(0.0987811 0.00504269 0)
(0.100426 0.00488888 0)
(0.0998814 0.00493955 0)
(0.101503 0.00478906 0)
(0.100966 0.00483876 0)
(0.102564 0.00469069 0)
(0.102035 0.00473975 0)
(0.103608 0.00459302 0)
(0.103088 0.00464183 0)
(0.104635 0.00449517 3.4763e-26)
(0.104124 0.00454418 0)
(0.105644 0.00439624 1.22834e-28)
(0.105142 0.00444592 0)
(0.106635 0.00429521 0)
(0.106142 0.00434604 0)
(0.107606 0.00419129 -1.13864e-28)