/*--------------------------------*- C++ -*----------------------------------*\
  =========                 |
  \\      /  F ield         | OpenFOAM: The Open Source CFD Toolbox
   \\    /   O peration     | Website:  https://openfoam.org
    \\  /    A nd           | Version:  10
     \\/     M anipulation  |
\*---------------------------------------------------------------------------*/
FoamFile
{
    format      ascii;
    class       volScalarField;
    location    "16";
    object      p;
}
// * * * * * * * * * * * * * * * * * * * * * * * * * * * * * * * * * * * * * //

dimensions      [0 2 -2 0 0 0 0];

internalField   nonuniform List<scalar> 
28942
(
-5.71681
-5.75355
-0.614393
1.48114
1.52752
-0.0476644
-0.0463396
-0.0493695
0.543477
0.583501
-2.93424
-2.92892
-2.86654
-2.85163
-0.00947666
-0.0038975
2.37858
2.54008
1.75013
2.24005
1.51064
1.53254
-3.02612
-2.94509
-3.20683
-3.00494
4.65636
4.82967
0.6611
0.756689
-0.113906
-0.112644
0.0444909
-0.015327
-1.30217
-1.00704
1.81419
2.53328
-0.0757165
0.861724
1.2499
1.20842
0.590769
0.569318
0.609362
-0.0355029
-0.0348339
-0.0201266
-0.022835
-0.0288318
-0.0187543
0.708732
0.71093
0.567438
0.612358
-2.27649
-1.65757
-2.8081
-2.89782
-2.8076
-2.78625
-2.74123
-2.7471
-0.511516
-0.984221
-0.269479
0.0581056
2.63992
2.50079
-5.7343
-5.73682
-5.77248
2.65667
2.54705
2.7074
-2.89931
-2.87007
-2.25558
-0.49683
-0.927286
-0.332684
-1.07485
-6.02879
-6.34502
-1.49495
-0.950469
-0.495268
-0.931342
-1.41015
-1.46391
-1.18236
-0.775737
-4.13845
-3.53789
-3.20086
-3.65508
-4.27611
-1.27454
-1.11376
-6.31647
1.57387
1.58803
1.63827
1.57231
-1.04381
-1.00865
-1.11858
0.579613
0.615621
0.643323
-2.80662
-2.80558
-5.73106
-5.26093
-5.47205
4.81451
4.36497
3.89134
4.36564
-1.0924
-0.0838524
-0.436124
1.12715
1.01595
5.46735
5.62013
5.23187
1.1845
1.40417
-0.0163307
-0.00799555
-0.0188433
3.19922
3.70425
0.927922
0.892498
1.09564
1.85192
2.55584
1.07465
-3.46246
-3.20593
1.54385
0.627876
0.620419
-1.21407
-1.22499
-0.996265
-3.06767
-0.237707
-0.225721
-1.6629
-0.0618499
-0.0771623
-0.0776722
-0.0689408
0.396498
-1.1547
-7.63387
-7.29959
-6.80735
-5.80491
-5.1057
-0.0423999
-2.58128
-2.32974
1.63104
1.65937
2.13432
1.99773
1.46028
0.0890305
0.0827832
0.706539
0.674385
0.452184
0.367072
0.485229
0.55984
0.52429
0.51345
0.57508
0.765546
0.660525
0.499254
0.61873
0.880237
1.18151
1.36177
-6.93093
-6.60299
-5.55231
-0.0311061
-0.0126421
-8.32317
-7.79814
-0.0216895
-0.0145925
-0.013385
-0.0231489
-1.32797
-1.37881
-1.33241
-2.86144
-2.83372
-2.9256
-2.77583
-2.77989
-2.74279
-3.10624
-3.28855
-3.07522
4.62219
4.24488
4.70679
-0.90664
-0.798462
-0.860693
2.74357
2.66912
2.69547
-2.67768
-2.46026
-2.87375
-2.24006
-2.02902
-1.83835
-1.74762
-1.67619
-1.60125
-1.91957
-2.11182
-2.31367
-2.51461
-2.69344
-1.54323
-1.47844
-3.03674
-2.84007
-3.15097
-1.43632
-1.37818
-2.94136
-1.35475
-1.30071
-1.30598
-1.26109
-3.20472
-2.98489
-1.27241
-1.24035
-3.19205
-2.96819
-1.26768
-1.24206
-3.11368
-2.89349
-1.28513
-1.26508
-2.97976
-2.76915
-1.32499
-1.31022
-2.80007
-2.60546
-1.38817
-1.37872
-2.59284
-2.42095
-1.47637
-1.47214
-2.37814
-2.23181
-1.59126
-1.59237
-2.16826
-2.04879
-1.73249
-1.7409
-1.98018
-1.88284
-1.89905
-1.91949
-1.81267
-1.73484
-2.09226
-2.12234
-1.67565
-1.61501
-2.3142
-2.34463
-1.85691
-1.70528
-1.57331
-1.5271
-2.24912
-2.03766
-2.70836
-2.47368
-3.11324
-2.92719
-3.33092
-3.25135
-3.28681
-3.34173
-2.99648
-3.16921
-2.55929
-2.78597
-2.10315
-2.32797
-1.7222
-1.8989
-1.4623
-1.57788
-1.31214
-1.37383
-1.26437
-1.27628
-1.30872
-1.27528
-1.44722
-1.36553
-1.68951
-1.55506
-2.03916
-1.85042
-2.24586
-2.54332
-2.57553
-1.89851
-2.32361
-2.10264
-1.5631
-1.71675
-1.34163
-1.43869
-1.221
-1.26962
-1.1872
-1.19377
-1.23809
-1.20155
-1.38592
-1.29927
-1.62698
-1.49637
-1.94956
-1.78135
-2.30588
-2.12783
-2.59263
-2.46662
-2.71742
-2.67951
-2.6304
-2.69816
-2.37609
-2.51927
-2.04989
-2.21532
-1.74679
-1.89208
-1.5205
-1.62182
-1.44813
-1.59108
-2.46362
-2.55205
-1.47267
-1.40568
-1.51525
-1.50846
-1.86859
-1.58258
-1.70728
-2.28654
-2.06371
-2.76196
-2.52345
-3.17334
-2.98395
-3.39522
-3.31492
-3.34662
-3.40553
-3.04504
-3.22235
-2.59678
-2.83297
-2.13112
-2.35786
-1.7337
-1.91888
-1.45921
-1.58117
-1.2987
-1.36564
-1.23963
-1.25723
-1.27228
-1.24482
-1.39722
-1.32269
-1.62379
-1.4974
-1.95215
-1.77601
-2.76561
-2.67816
-2.34492
-2.14337
-2.25048
-2.47099
-2.76998
-2.7979
-1.83722
-2.03562
-1.50463
-1.65929
-1.27992
-1.37915
-1.15421
-1.2058
-1.11194
-1.12323
-1.14806
-1.11998
-1.27003
-1.1977
-1.48001
-1.36486
-1.76131
-1.61411
-2.06679
-1.91474
-2.31463
-2.20629
-2.42011
-2.38867
-2.34653
-2.40532
-2.12621
-2.2498
-1.8453
-1.98753
-1.58581
-1.70938
-1.4001
-1.48127
-1.31276
-1.34284
-1.49555
-1.3942
-1.30912
-1.45257
-2.54143
-2.68373
-1.47612
-1.44435
-1.41217
-1.33274
-1.47999
-2.1922
-2.37076
-2.96175
-2.87084
-1.38751
-1.42367
-1.34581
-1.35598
-1.54708
-1.44935
-1.8513
-1.6817
-2.27654
-2.05258
-2.75139
-2.51395
-3.16575
-2.9744
-3.38604
-3.3076
-3.33163
-3.39412
-3.02801
-3.20512
-2.5799
-2.81444
-2.11055
-2.34082
-1.71123
-1.89801
-1.42921
-1.55497
-1.26183
-1.33227
-1.19388
-1.21626
-1.21512
-1.19371
-1.32513
-1.25863
-1.53242
-1.41622
-1.83434
-1.67326
-2.00937
-2.9589
-2.72252
-2.86671
-2.99225
-2.13736
-2.54862
-2.34626
-1.74305
-1.93406
-1.42354
-1.57293
-1.20053
-1.29991
-1.07098
-1.12523
-1.02043
-1.03655
-1.04181
-1.02216
-1.13826
-1.08023
-1.31318
-1.21626
-1.55149
-1.42663
-1.80966
-1.68143
-2.01895
-1.92614
-2.10641
-2.08098
-2.04381
-2.09375
-1.859
-1.96249
-1.62498
-1.74321
-1.41075
-1.51214
-1.26155
-1.326
-1.20048
-1.21972
-1.232
-1.20426
-1.38482
-1.28574
-1.4691
-1.46354
-2.53743
-2.72507
-1.4327
-1.45895
-1.4031
-1.3699
-1.46722
-1.24622
-1.26447
-1.48393
-1.24979
-1.23845
-1.31419
-1.27414
-1.4857
-1.38202
-1.79725
-1.62554
-2.21486
-1.99571
-2.68064
-2.44659
-3.08935
-2.90126
-3.30199
-3.22685
-3.24604
-3.30844
-2.94777
-3.12186
-2.50943
-2.73839
-2.0491
-2.27529
-1.65632
-1.8406
-1.3741
-1.50055
-1.20349
-1.27588
-1.12876
-1.15504
-1.13921
-1.1237
-1.23364
-1.17564
-1.41891
-1.31454
-1.69086
-1.54612
-2.01237
-1.84872
-2.32535
-2.17421
-2.86733
-2.44919
-2.67395
-3.11025
-3.0164
-3.11089
-3.1427
-2.86324
-3.01486
-2.37521
-2.66609
-2.5386
-1.99431
-2.18807
-1.62477
-1.80439
-1.32225
-1.46294
-1.10697
-1.20366
-0.975969
-1.03188
-0.91778
-0.938516
-0.925001
-0.913433
-0.99758
-0.952931
-1.13724
-1.05922
-1.33215
-1.22959
-1.54497
-1.43954
-1.71665
-1.64013
-1.78802
-1.76761
-1.73661
-1.7776
-1.58668
-1.67057
-1.39771
-1.49307
-1.22591
-1.30696
-1.10934
-1.15891
-1.07024
-1.0795
-1.11415
-1.08217
-1.25153
-1.1697
-1.48882
-1.36512
-1.49138
-1.50322
-1.47714
-1.5389
-2.0851
-2.19859
-2.95313
-2.75434
-1.45955
-1.58579
-1.32507
-1.11181
-1.64747
-1.51675
-1.16411
-1.51519
-1.13694
-1.10961
-1.22172
-1.17287
-1.39938
-1.29444
-1.7032
-1.53705
-2.10305
-1.89315
-2.5544
-2.32718
-2.94694
-2.76721
-3.14965
-3.07796
-3.09547
-3.15544
-2.80932
-2.97611
-2.39097
-2.60938
-1.95068
-2.16751
-1.57179
-1.74995
-1.2961
-1.42019
-1.126
-1.19875
-1.04684
-1.07596
-1.04751
-1.0376
-1.12572
-1.07673
-1.28668
-1.19554
-1.52768
-1.39857
-1.81224
-1.6693
-1.95456
-2.96341
-2.53451
-2.77106
-3.20611
-3.11203
-3.20569
-3.23754
-3.10852
-2.17183
-2.44238
-2.32024
-1.82834
-2.00373
-1.48503
-1.65185
-1.20269
-1.33396
-0.999669
-1.09126
-0.871036
-0.926787
-0.807206
-0.831648
-0.801676
-0.79744
-0.852778
-0.820149
-0.960072
-0.89963
-1.11373
-1.03251
-1.28353
-1.19937
-1.42049
-1.35939
-1.47736
-1.46115
-1.43702
-1.46924
-1.31942
-1.38517
-1.17171
-1.24622
-1.0384
-1.10102
-0.951431
-0.987581
-0.930603
-0.932102
-0.982854
-0.947381
-1.11995
-1.03935
-1.36757
-1.22773
-1.71291
-1.54986
-1.53951
-1.57404
-2.27631
-2.51526
-1.54829
-1.42062
-1.55083
-1.65429
-1.7474
-1.25063
-1.34181
-1.50422
-1.85499
-1.96183
-1.77968
-1.57472
-0.976559
-1.0968
-1.02993
-1.00198
-0.972485
-1.10497
-1.04769
-1.28447
-1.18142
-1.57124
-1.41533
-1.94813
-1.74952
-2.37752
-2.16168
-2.74679
-2.57808
-2.93805
-2.87016
-2.88847
-2.9441
-2.622
-2.77733
-2.23203
-2.43569
-1.81997
-2.02326
-1.46236
-1.63096
-1.19875
-1.31795
-1.03274
-1.10428
-0.951331
-0.982359
-0.943446
-0.938621
-1.00595
-0.965811
-1.14202
-1.06458
-1.34992
-1.23797
-1.60107
-1.4735
-1.83698
-1.72455
-2.00742
-1.93424
-2.5786
-2.04404
-2.31452
-2.99875
-2.81764
-3.24199
-3.14962
-3.2392
-3.27205
-2.98685
-3.14029
-2.54522
-2.78721
-2.19014
-2.28012
-2.25496
-1.95189
-2.08612
-1.64226
-1.80245
-1.33011
-1.48255
-1.07014
-1.19163
-0.881001
-0.966651
-0.757731
-0.811753
-0.691017
-0.717815
-0.674997
-0.676924
-0.707452
-0.685266
-0.7865
-0.741433
-0.903446
-0.841343
-1.03431
-0.969339
-1.1403
-1.09298
-1.18447
-1.17178
-1.1545
-1.17864
-1.06576
-1.11538
-0.954235
-1.0105
-0.853899
-0.900889
-0.791241
-0.81647
-0.784818
-0.780317
-0.842583
-0.805343
-0.975336
-0.898462
-1.20593
-1.07635
-1.57781
-1.37125
-2.05558
-1.82571
-1.62323
-1.16829
-1.66555
-1.72906
-1.76014
-2.5216
-2.26256
-1.68161
-1.81175
-1.67604
-1.95815
-2.11632
-2.26159
-2.37061
-2.1099
-1.67159
-0.906844
-1.28432
-1.03624
-0.960595
-0.826305
-0.862917
-0.850346
-0.822569
-0.962243
-0.899604
-1.13949
-1.04039
-1.40673
-1.26191
-1.7596
-1.57315
-2.16059
-1.95974
-2.50242
-2.34622
-2.68102
-2.61718
-2.63793
-2.68783
-2.39588
-2.53712
-2.04093
-2.22638
-1.66408
-1.85038
-1.33341
-1.48985
-1.08617
-1.19845
-0.927369
-0.996329
-0.845648
-0.877699
-0.830532
-0.830194
-0.878217
-0.846519
-0.990442
-0.926138
-1.16556
-1.07089
-1.38142
-1.27095
-1.58496
-1.48966
-1.66744
-2.5708
-2.03549
-2.3131
-2.9888
-2.80044
-3.21715
-3.13091
-3.20916
-3.2434
-2.9629
-3.11457
-2.76116
-1.92708
-2.00508
-1.98381
-1.72295
-1.83896
-1.44571
-1.58877
-1.16648
-1.30291
-0.931046
-1.04166
-0.756468
-0.835967
-0.639728
-0.691363
-0.572197
-0.600251
-0.548125
-0.554949
-0.56496
-0.551567
-0.620114
-0.588048
-0.705819
-0.66004
-0.803206
-0.75475
-0.882671
-0.847133
-0.916318
-0.906443
-0.895386
-0.912569
-0.83107
-0.867107
-0.749699
-0.79081
-0.676642
-0.710697
-0.634176
-0.650332
-0.638998
-0.63009
-0.698639
-0.66154
-0.82356
-0.751957
-1.03469
-0.916435
-1.36673
-1.1839
-1.83518
-1.58582
-1.63185
-1.47396
-2.41395
-2.10153
-1.75188
-1.75734
-1.9861
-1.13393
-1.83184
-1.41996
-1.82382
-2.01803
-1.83431
-2.22175
-2.4281
-2.6006
-2.70651
-2.71096
-2.36125
-1.81347
-0.790052
-1.24908
-0.933359
-0.851247
-0.713174
-0.74664
-0.669226
-0.686712
-0.697348
-0.671747
-0.806327
-0.744403
-0.976121
-0.882464
-1.22474
-1.09001
-1.55294
-1.37995
-1.91896
-1.73647
-2.22921
-2.08724
-2.39288
-2.334
-2.35681
-2.40026
-2.14293
-2.26785
-1.8279
-1.99273
-1.49045
-1.65777
-1.19049
-1.33293
-0.962853
-1.06669
-0.813635
-0.878923
-0.733442
-0.765641
-0.712629
-0.716048
-0.746865
-0.722933
-0.836681
-0.784753
-0.980627
-0.902431
-1.16104
-1.06835
-1.33591
-1.25264
-1.4529
-1.40355
-1.48634
-1.48212
-1.99674
-1.46387
-1.72716
-2.51515
-2.26482
-2.91886
-2.73653
-3.13327
-3.05348
-3.11711
-3.15416
-2.87886
-3.02473
-2.45349
-2.68295
-1.92704
-2.19803
-1.72564
-1.65325
-1.70713
-1.66706
-1.71268
-1.48721
-1.58852
-1.24535
-1.37045
-0.999583
-1.11986
-0.789882
-0.888844
-0.631036
-0.703919
-0.521582
-0.570505
-0.454495
-0.483121
-0.424403
-0.435037
-0.428499
-0.42233
-0.463932
-0.442589
-0.523908
-0.491572
-0.593733
-0.558868
-0.651447
-0.625538
-0.676799
-0.669023
-0.663305
-0.674796
-0.618868
-0.643883
-0.561706
-0.590696
-0.510338
-0.534122
-0.483718
-0.492815
-0.496496
-0.484686
-0.555161
-0.519723
-0.669483
-0.604384
-0.859142
-0.753284
-1.1519
-0.991195
-1.5569
-1.34222
-2.00671
-1.78512
-1.79315
-1.63505
-2.59308
-2.2053
-1.92691
-2.03049
-1.02643
-1.37575
-1.56395
-2.01493
-2.27887
-1.22185
-1.2037
-1.8305
-1.57095
-2.02537
-2.54025
-2.78504
-2.96506
-3.03807
-2.97363
-1.11987
-0.791088
-0.855504
-2.77647
-2.35816
-1.21397
-2.0022
-0.670868
-0.727945
-0.577241
-0.616839
-0.535585
-0.552899
-0.519545
-0.523067
-0.554901
-0.529151
-0.65478
-0.597555
-0.813351
-0.726084
-1.04296
-0.918772
-1.3404
-1.18473
-1.66483
-1.50343
-1.94052
-1.81409
-2.08751
-2.0342
-2.05925
-2.09563
-1.87551
-1.98309
-1.60243
-1.74563
-1.30645
-1.45373
-1.03933
-1.16671
-0.833212
-0.927688
-0.695316
-0.756082
-0.618101
-0.649767
-0.59294
-0.599417
-0.615473
-0.598362
-0.685215
-0.644434
-0.80061
-0.737657
-0.947665
-0.871856
-1.09307
-1.0233
-1.19104
-1.15103
-1.21625
-1.92946
-1.41473
-1.67251
-2.41829
-2.18129
-2.79836
-2.6271
-2.99617
-2.92365
-2.97266
-3.01206
-2.74195
-2.88143
-2.33907
-2.55714
-2.09363
-1.45689
-1.39083
-1.43685
-1.41023
-1.45016
-1.25549
-1.34284
-1.04742
-1.155
-0.83437
-0.938993
-0.650073
-0.737432
-0.507667
-0.573501
-0.406495
-0.452226
-0.341081
-0.369636
-0.306765
-0.320233
-0.300774
-0.30038
-0.320328
-0.307618
-0.359685
-0.338102
-0.407576
-0.383508
-0.448098
-0.429778
-0.466949
-0.460824
-0.45935
-0.466384
-0.43034
-0.446828
-0.391655
-0.411425
-0.356866
-0.372787
-0.342321
-0.346075
-0.360421
-0.346911
-0.416521
-0.383376
-0.519089
-0.461169
-0.685212
-0.592819
-0.937637
-0.799376
-1.2829
-1.10052
-1.65525
-1.47307
-1.94156
-1.81828
-1.49951
-2.44861
-2.88655
-2.47572
-2.04043
-2.01812
-2.00159
-1.80441
-2.1459
-2.2823
-1.16724
-1.31972
-1.71825
-2.25054
-2.5958
-2.26424
-2.90704
-3.17193
-3.32998
-3.3396
-3.18591
-0.912681
-0.595197
-0.626892
-1.62836
-1.60076
-2.00542
-0.964499
-1.29351
-1.61679
-2.93022
-2.42952
-2.24064
-0.522375
-0.559027
-0.453828
-0.486853
-0.396459
-0.421789
-0.37606
-0.382679
-0.380666
-0.374754
-0.422434
-0.395966
-0.513219
-0.461423
-0.658248
-0.578453
-0.86475
-0.753731
-1.12533
-0.989663
-1.40733
-1.26689
-1.64839
-1.53771
-1.77834
-1.73067
-1.75814
-1.78733
-1.60477
-1.69488
-1.37384
-1.49535
-1.11932
-1.24658
-0.885246
-0.99741
-0.701366
-0.786059
-0.575803
-0.631526
-0.502747
-0.533259
-0.474669
-0.483461
-0.487228
-0.47602
-0.539246
-0.508327
-0.629195
-0.579823
-0.746232
-0.685647
-0.863836
-0.807127
-0.94673
-0.911782
-0.970581
-0.966055
-0.931556
-0.957535
-1.35004
-0.893884
-1.1144
-1.83683
-1.59365
-2.28959
-2.07135
-2.63868
-2.48167
-2.81686
-2.75245
-2.78747
-2.82829
-2.56377
-2.69769
-2.18331
-2.3901
-1.70879
-1.95262
-1.22524
-1.46506
-1.14175
-0.999859
-1.08108
-1.20687
-1.18428
-1.16338
-1.19791
-1.03362
-1.10692
-0.857328
-0.948631
-0.675055
-0.764866
-0.514932
-0.591187
-0.388661
-0.447424
-0.296365
-0.338507
-0.233852
-0.261655
-0.197138
-0.212451
-0.183619
-0.187619
-0.190803
-0.184842
-0.214055
-0.200858
-0.244956
-0.229228
-0.272261
-0.259768
-0.286027
-0.281256
-0.282927
-0.28661
-0.265364
-0.275557
-0.240188
-0.253202
-0.217711
-0.227766
-0.212062
-0.211961
-0.233027
-0.218953
-0.284701
-0.254708
-0.374821
-0.324241
-0.517
-0.438351
-0.729305
-0.613312
-1.01747
-0.865365
-1.32458
-1.17556
-1.54162
-1.44973
-1.60482
-2.22769
-1.98438
-1.90869
-1.52164
-2.40886
-2.58895
-1.87196
-2.5297
-2.96357
-0.712517
-0.6848
-1.1184
-0.90428
-2.53295
-3.30787
-3.56404
-3.66847
-3.59116
-3.33629
-0.650095
-0.365817
-0.379698
-0.668781
-0.996762
-1.35025
-1.71158
-2.91055
-2.33792
-1.39985
-1.77108
-2.53054
-0.333507
-0.346462
-0.30368
-0.320438
-0.264574
-0.283786
-0.235135
-0.247656
-0.230603
-0.229753
-0.248253
-0.236619
-0.293656
-0.266879
-0.376624
-0.329825
-0.506592
-0.435275
-0.687917
-0.590993
-0.913166
-0.796058
-1.15626
-1.03527
-1.36364
-1.26841
-1.47714
-1.43488
-1.46478
-1.48696
-1.34085
-1.41409
-1.15011
-1.25099
-0.934948
-1.04316
-0.732704
-0.830112
-0.570887
-0.645781
-0.458099
-0.5085
-0.390022
-0.418932
-0.360193
-0.37066
-0.364598
-0.358278
-0.401588
-0.379085
-0.469537
-0.431966
-0.560204
-0.513047
-0.653048
-0.608068
-0.720672
-0.691688
-0.740738
-0.737838
-0.73171
-1.27416
-0.845296
-1.05537
-1.72596
-1.50027
-2.13954
-1.94133
-2.45332
-2.31283
-2.60902
-2.5538
-2.57403
-2.61571
-2.35849
-2.48664
-2.00357
-2.19537
-1.56696
-1.7905
-1.34034
-0.911826
-0.790883
-0.858278
-0.968625
-0.950879
-0.932775
-0.961049
-0.825992
-0.886478
-0.678954
-0.755325
-0.52482
-0.601007
-0.38714
-0.453008
-0.276199
-0.328149
-0.192805
-0.231225
-0.133992
-0.160544
-0.0964806
-0.112739
-0.0778229
-0.0849259
-0.075804
-0.0749124
-0.0868488
-0.0800144
-0.104926
-0.0954792
-0.122321
-0.114191
-0.132265
-0.128516
-0.132306
-0.133632
-0.12269
-0.128535
-0.106928
-0.115204
-0.0932778
-0.0990882
-0.093816
-0.0911343
-0.1159
-0.101979
-0.162686
-0.135943
-0.240358
-0.197096
-0.359583
-0.293983
-0.533682
-0.439
-0.767073
-0.643921
-1.01841
-0.896098
-1.18679
-1.11838
-1.23923
-1.22661
-1.15704
-1.21845
-1.25027
-0.945572
-1.06274
-2.47859
-2.18767
-2.71942
-2.94729
-0.648634
-0.709776
-2.01942
-2.84275
-3.3684
-2.81753
-3.71785
-3.92987
-3.95187
-3.77151
-3.40909
-0.378827
-0.143657
-0.134428
-0.669835
-0.566559
-0.810478
-0.366409
-0.66515
-1.00209
-1.38248
-1.77446
-2.81554
-2.19345
-1.60221
-1.08977
-2.86964
-0.137236
-0.143464
-0.126289
-0.129839
-0.117402
-0.124107
-0.0988511
-0.107777
-0.0893735
-0.0925069
-0.096777
-0.0906711
-0.122145
-0.107289
-0.168941
-0.142341
-0.245559
-0.202956
-0.361077
-0.29801
-0.519097
-0.434974
-0.712955
-0.612425
-0.919498
-0.817032
-1.0949
-1.01422
-1.19335
-1.15603
-1.1882
-1.20391
-1.09144
-1.14916
-0.937431
-1.01949
-0.758233
-0.849026
-0.585552
-0.669163
-0.444805
-0.510261
-0.344685
-0.389731
-0.282091
-0.309077
-0.251572
-0.263116
-0.249468
-0.247129
-0.273938
-0.258464
-0.323338
-0.295731
-0.391525
-0.355826
-0.462977
-0.428138
-0.516175
-0.49315
-0.533881
-0.529926
-0.513499
-0.528702
-0.467724
-0.492726
-0.794599
-0.437659
-0.608045
-1.19365
-0.990794
-1.60617
-1.40125
-1.97903
-1.80105
-2.25591
-2.13289
-2.38711
-2.34208
-2.34601
-2.3884
-2.14115
-2.26205
-1.81302
-1.98939
-1.4158
-1.6192
-1.00036
-1.2061
-0.625903
-0.805371
-0.59996
-0.464202
-0.534909
-0.703196
-0.657494
-0.747179
-0.73577
-0.722211
-0.743712
-0.635903
-0.685071
-0.514752
-0.577836
-0.385807
-0.449773
-0.268505
-0.324905
-0.171863
-0.217398
-0.0971748
-0.131879
-0.0424681
-0.0674876
-0.00526515
-0.0218217
0.016598
0.00746096
0.0251126
0.0223781
0.0229691
0.0251473
0.0142724
0.0191298
0.00409185
0.00905013
-0.00295256
-4.93842e-05
-0.00504764
-0.00482929
-0.000519114
-0.0035879
0.00900081
0.0039112
0.016391
0.0136234
0.0117502
0.0160402
-0.00993556
0.00313753
-0.0509936
-0.027797
-0.1167
-0.0803355
-0.215016
-0.161187
-0.355763
-0.27956
-0.541119
-0.443655
-0.740415
-0.642998
-0.87722
-0.821852
-0.899101
-0.90222
-0.821526
-0.87136
-0.756763
-2.73413
-2.38762
-0.670353
-0.454915
-3.06705
-3.34377
-2.1444
-3.17177
-3.78459
-0.301321
-0.279367
-0.542264
-0.394614
-3.09593
-4.10337
-4.23825
-4.1558
-3.86409
-3.39703
-0.121422
0.0628035
0.0673364
-0.104684
-0.339054
-0.637932
-0.985369
-1.38242
-1.80675
-2.64965
-2.00174
-1.41207
-0.924981
-0.343644
-0.537385
-3.2471
0.046823
0.0560027
0.0393568
0.0404068
0.0418635
0.0415918
0.0412579
0.0406521
0.0442438
0.0430741
0.0396485
0.0432138
0.0231119
0.0331373
-0.00768214
0.00947303
-0.0553807
-0.0289967
-0.126626
-0.0876333
-0.228652
-0.173392
-0.364855
-0.292635
-0.529169
-0.444343
-0.701743
-0.616269
-0.848589
-0.780832
-0.933384
-0.900632
-0.934745
-0.944569
-0.86223
-0.906169
-0.740329
-0.805993
-0.592602
-0.668078
-0.446513
-0.517603
-0.325357
-0.381956
-0.237448
-0.277266
-0.180563
-0.205437
-0.150185
-0.162312
-0.143105
-0.143882
-0.157451
-0.147693
-0.1916
-0.172215
-0.241024
-0.214936
-0.294295
-0.268155
-0.33501
-0.317225
-0.350272
-0.346247
-0.335321
-0.346972
-0.320319
-0.744626
-0.405848
-0.571025
-1.11339
-0.92604
-1.48602
-1.30171
-1.81809
-1.66031
-2.05848
-1.95275
-2.16484
-2.1303
-2.11692
-2.16027
-1.92365
-2.03669
-1.62136
-1.78319
-1.2601
-1.44511
-0.882757
-1.06983
-0.705816
-0.431951
-0.321715
-0.378559
-0.518214
-0.479412
-0.553295
-0.543339
-0.5341
-0.55074
-0.465032
-0.504577
-0.366252
-0.417868
-0.259316
-0.31259
-0.16016
-0.208095
-0.0765756
-0.116211
-0.0102347
-0.0413018
0.0401071
0.0168158
0.0762588
0.0598441
0.0999388
0.0895531
0.112828
0.107616
0.116907
0.115817
0.114807
0.116438
0.109659
0.112413
0.104918
0.106979
0.101591
0.102684
0.103296
0.101782
0.108903
0.105878
0.112022
0.11133
0.104922
0.110058
0.0845185
0.0964375
0.0490772
0.0688758
-0.00543173
0.024521
-0.0847699
-0.0415744
-0.196021
-0.136013
-0.340999
-0.264868
-0.49668
-0.420484
-0.60578
-0.561233
-0.614541
-0.623809
-0.537751
-0.583374
-0.419453
-0.483127
-0.262318
-0.346353
-0.241198
-0.0928181
-0.175546
-2.96795
-2.56597
-3.4309
-3.75452
-0.256877
-0.260718
-2.23469
-3.49097
-4.17898
-3.34183
-4.43127
-4.46291
-4.26448
-3.85819
-3.29543
0.0759731
0.208564
0.206907
0.0373749
0.10175
-0.0134861
0.081881
-0.0857317
-0.304378
-0.59165
-0.939907
-1.34987
-1.80102
-2.42778
-1.77876
-1.2172
-0.765719
-0.417022
-0.147737
-3.63999
0.204764
0.208307
0.194753
0.201661
0.182609
0.186427
0.17962
0.181602
0.17287
0.176301
0.164786
0.169218
0.150419
0.158669
0.126717
0.13988
0.0919251
0.110713
0.0443072
0.0700158
-0.0211389
0.0141345
-0.109977
-0.0622838
-0.225741
-0.164574
-0.363198
-0.292513
-0.506306
-0.435472
-0.628532
-0.571934
-0.701295
-0.67257
-0.708449
-0.713129
-0.656393
-0.688778
-0.561261
-0.613249
-0.440261
-0.502617
-0.317575
-0.377541
-0.214221
-0.26271
-0.137743
-0.172616
-0.0865739
-0.109244
-0.0570019
-0.0693
-0.046283
-0.0494192
-0.0526354
-0.0474229
-0.074519
-0.0617688
-0.10864
-0.0904245
-0.146807
-0.127942
-0.176912
-0.163633
-0.188606
-0.185479
-0.178506
-0.186171
-0.153204
-0.166741
-0.124843
-0.138626
-0.37992
-0.11334
-0.239078
-0.697299
-0.534317
-1.03615
-0.865258
-1.37183
-1.20655
-1.6649
-1.5265
-1.87067
-1.78128
-1.95334
-1.92888
-1.89812
-1.94286
-1.71527
-1.82105
-1.43698
-1.58542
-1.1083
-1.27624
-0.77062
-0.937747
-0.460991
-0.610166
-0.203447
-0.325114
-0.193176
-0.0974099
-0.144748
-0.285149
-0.240812
-0.354999
-0.324103
-0.383233
-0.374996
-0.36885
-0.381722
-0.313975
-0.345571
-0.234051
-0.275998
-0.145979
-0.190078
-0.0626541
-0.103164
0.00922114
-0.0250887
0.0677855
0.04016
0.113662
0.0922234
0.148189
0.132256
0.172663
0.161602
0.18835
0.181522
0.196592
0.193307
0.19892
0.198388
0.197106
0.19841
0.193146
0.195271
0.190441
0.191579
0.190963
0.190195
0.194163
0.192488
0.194401
0.195097
0.186079
0.191468
0.167688
0.178182
0.137781
0.154338
0.0933456
0.117592
0.0304337
0.0644912
-0.0557244
-0.0094856
-0.166492
-0.108367
-0.286919
-0.227583
-0.373218
-0.337846
-0.378691
-0.387367
-0.308712
-0.350498
-0.204822
-0.25868
-0.087766
-0.148056
-0.0259558
-3.15742
-2.70088
0.0603966
0.164102
-3.78353
-4.14685
-2.28053
-3.77147
-4.51671
-0.00599247
0.00207738
-0.148522
-0.051773
-3.52707
-4.6728
-4.58558
-4.26558
-3.75082
-3.11057
0.203193
0.300877
0.28969
0.195452
0.0864568
-0.0670905
-0.265505
-0.536479
-0.87238
-1.28804
-1.75414
-2.16729
-1.54575
-1.02892
-0.619711
-0.306613
-0.0620355
0.223839
0.128992
-4.01747
0.315205
0.310371
0.314541
0.315737
0.309594
0.312751
0.298941
0.303495
0.292135
0.29586
0.28064
0.286898
0.265294
0.273475
0.244273
0.255686
0.215768
0.230992
0.179048
0.198455
0.132873
0.157351
0.0734253
0.105061
-0.00384922
0.0373332
-0.102127
-0.0504477
-0.216711
-0.157987
-0.334992
-0.276547
-0.436202
-0.389155
-0.49881
-0.473403
-0.510682
-0.511211
-0.47503
-0.498152
-0.401333
-0.442352
-0.302334
-0.353767
-0.199814
-0.25009
-0.11234
-0.153535
-0.0463892
-0.0766616
-0.000794448
-0.0212469
0.0274725
0.0153272
0.0407102
0.0358578
0.0404704
0.0421815
0.0281928
0.0357257
0.00628919
0.0181911
-0.0195966
-0.00667808
-0.0406754
-0.0313032
-0.0489966
-0.0467753
-0.0419629
-0.0473279
-0.0242525
-0.0337813
-0.0146616
-0.359925
-0.103243
-0.227132
-0.654555
-0.503043
-0.965758
-0.809478
-1.26813
-1.12014
-1.52539
-1.40483
-1.69932
-1.62494
-1.76029
-1.74509
-1.6977
-1.74418
-1.5232
-1.6229
-1.26648
-1.40275
-0.967607
-1.11986
-0.664217
-0.814283
-0.384003
-0.519891
-0.259272
-0.0834858
-0.00559754
-0.0442709
-0.15808
-0.122451
-0.213704
-0.18912
-0.236088
-0.229906
-0.225858
-0.235835
-0.182411
-0.207572
-0.117991
-0.151969
-0.0457999
-0.0821372
0.0239405
-0.0101649
0.0855027
0.0559244
0.136979
0.11252
0.178514
0.158934
0.211029
0.195829
0.235505
0.224213
0.252793
0.244996
0.263646
0.258976
0.268786
0.266878
0.269146
0.269485
0.266046
0.26796
0.26429
0.265087
0.264582
0.264095
0.266323
0.265528
0.264647
0.266228
0.256044
0.261267
0.239946
0.248968
0.215151
0.228758
0.179562
0.198845
0.130593
0.156937
0.0652588
0.100123
-0.0172695
0.0259524
-0.108187
-0.0629689
-0.176896
-0.148133
-0.183989
-0.189448
-0.127452
-0.161958
-0.0359088
-0.0838635
0.0604548
0.0126691
0.154892
0.107678
0.252042
0.20254
0.279305
0.349145
0.301963
-3.28368
-2.77472
-4.09295
-4.48622
0.00749525
0.0323172
-2.27357
-3.98572
-4.76766
-3.61375
-4.80712
-4.59299
-4.15493
-3.54883
-2.8574
0.274719
0.35058
0.336123
0.257033
0.183445
0.0872414
-0.0509648
-0.229233
-0.480065
-0.792955
-1.20173
-1.6673
-1.89239
-1.31821
-0.853968
-0.491282
-0.208194
0.0149838
0.193442
0.404325
0.39442
0.443301
-4.34592
0.379036
0.36609
0.396223
0.388543
0.401218
0.399948
0.400363
0.401167
0.392783
0.397149
0.383418
0.388405
0.369087
0.376963
0.349523
0.35992
0.324567
0.337804
0.293522
0.309794
0.256174
0.275667
0.211598
0.234919
0.157068
0.185788
0.088952
0.124931
0.00536066
0.0489953
-0.0900994
-0.04133
-0.187559
-0.139495
-0.271303
-0.232189
-0.325545
-0.302873
-0.340865
-0.338269
-0.317605
-0.333753
-0.260171
-0.292796
-0.178923
-0.221375
-0.093684
-0.135563
-0.0202583
-0.0549605
0.0361657
0.0100878
0.0764914
0.0581865
0.103112
0.091369
0.117938
0.111906
0.122246
0.121328
0.117284
0.120833
0.104883
0.111837
0.0887745
0.0969454
0.0752142
0.0812584
0.0698957
0.0712795
0.0748003
0.0711598
0.0873522
0.0803112
0.0992388
0.0935522
0.104018
0.103711
-0.0992577
0.101554
0.00745963
-0.344602
-0.217515
-0.618927
-0.478959
-0.905404
-0.761973
-1.17804
-1.0455
-1.40335
-1.29873
-1.54866
-1.48779
-1.59007
-1.58324
-1.52041
-1.56876
-1.3523
-1.44716
-1.1139
-1.23971
-0.840781
-0.979562
-0.565698
-0.701624
-0.312746
-0.435528
-0.0978179
-0.199111
0.0694406
-0.00890381
0.0739991
0.136786
0.105699
0.00947051
0.0415769
-0.049355
-0.0211019
-0.093489
-0.073995
-0.113558
-0.106888
-0.103873
-0.112135
-0.0691781
-0.0892494
-0.0173681
-0.0448127
0.0417126
0.0118421
0.0999508
0.0713106
0.152576
0.127134
0.197698
0.176105
0.235161
0.217357
0.265507
0.251175
0.289414
0.278225
0.307383
0.299118
0.319674
0.314227
0.326454
0.323733
0.328254
0.32791
0.32668
0.327724
0.325566
0.326001
0.326047
0.325576
0.326808
0.326648
0.323946
0.326015
0.315762
0.320518
0.302105
0.309658
0.281977
0.292932
0.254027
0.269066
0.216647
0.236629
0.168135
0.193855
0.10824
0.139491
0.042015
0.0751817
-0.0115997
0.0117123
-0.0225455
-0.0237658
0.017844
-0.0081975
0.0922353
0.0523902
0.174794
0.133889
0.252061
0.214097
0.328023
0.289825
0.366349
-3.35639
-2.77412
0.331448
-4.32971
-4.74128
-2.21245
-4.11996
-4.90917
0.189596
0.185748
0.103717
0.166334
-3.52962
-4.81993
-4.48054
-3.93817
-3.26779
-2.55918
0.318855
0.382307
0.365186
0.438602
0.481021
0.300205
0.243078
0.169772
0.0810674
-0.0395589
-0.199786
-0.425446
-0.711084
-1.09991
-1.54972
-1.62252
-1.10816
-0.698042
-0.37626
-0.120356
0.0851869
0.250477
-4.5941
0.413463
0.398005
0.439812
0.427464
0.458231
0.449357
0.469307
0.464944
0.472315
0.47163
0.467495
0.47093
0.457356
0.462926
0.441802
0.450357
0.420275
0.431742
0.393261
0.407463
0.360785
0.377677
0.32308
0.342588
0.279852
0.302223
0.229285
0.255652
0.168936
0.20045
0.0977093
0.134641
0.0179556
0.0585381
-0.0625082
-0.0228397
-0.13224
-0.0995039
-0.179582
-0.159312
-0.196827
-0.192147
-0.182248
-0.19353
-0.136624
-0.163016
-0.0696481
-0.104717
0.000835909
-0.0338111
0.0619937
0.0329869
0.109927
0.0876162
0.145344
0.129083
0.170096
0.158937
0.185744
0.178981
0.193308
0.190477
0.193783
0.194355
0.188558
0.191764
0.180081
0.184499
0.172556
0.175904
0.169942
0.170459
0.173865
0.171113
0.182133
0.177753
0.189125
0.18566
0.190652
-0.101229
0.0961698
0.0017206
-0.334672
-0.21355
-0.592133
-0.461348
-0.857045
-0.724992
-1.10349
-0.9845
-1.30076
-1.21014
-1.42076
-1.37187
-1.44454
-1.4453
-1.36814
-1.41841
-1.20471
-1.29586
-0.980911
-1.09834
-0.728794
-0.856526
-0.477314
-0.601339
-0.247579
-0.35897
-0.0515633
-0.144295
0.0317452
0.141735
0.194217
0.168266
0.0889633
0.114764
0.0425065
0.0647364
0.00774061
0.0231943
-0.00945163
-0.00313417
-0.000557578
-0.00745316
0.027248
0.0111855
0.0689938
0.0468238
0.117366
0.0928056
0.166012
0.14196
0.210982
0.189107
0.25051
0.231465
0.284231
0.268083
0.312398
0.298983
0.335375
0.324515
0.353343
0.344984
0.366198
0.360421
0.373796
0.370647
0.37657
0.375713
0.376345
0.376644
0.376218
0.376193
0.377005
0.376519
0.376997
0.377306
0.37356
0.375783
0.366231
0.370363
0.354937
0.36112
0.338925
0.347569
0.317391
0.3289
0.289428
0.304269
0.254258
0.272768
0.212036
0.233939
0.165894
0.18903
0.126602
0.144287
0.113581
0.115629
0.138749
0.12138
0.193735
0.163608
0.260689
0.226786
0.326218
0.294024
0.388465
0.357567
0.449991
0.419268
0.51269
0.481408
0.566809
0.516396
0.542472
-3.2165
-2.68204
0.380753
-4.46942
-4.88791
0.178792
0.219396
-2.10621
0.479102
-4.2053
-4.92722
0.546052
-3.59008
-4.70695
-4.25464
-3.63467
-2.93449
-2.24171
0.343227
0.277374
0.225125
0.156782
0.0717376
-0.0360312
-0.177974
-0.378105
-0.633088
-0.991716
-1.41377
-1.37432
-0.922023
-0.561551
-0.273604
-0.0403628
0.150278
0.304942
-4.7388
0.400959
0.317265
0.352632
0.378422
0.433458
0.418248
0.46224
0.447798
0.487381
0.475414
0.506901
0.497676
0.521537
0.515017
0.528598
0.526102
0.526669
0.528849
0.516976
0.522589
0.501061
0.509823
0.478789
0.490692
0.450739
0.465452
0.417519
0.434716
0.379982
0.399253
0.338317
0.359705
0.291385
0.315612
0.237714
0.26547
0.176386
0.207992
0.109278
0.143258
0.0422226
0.0752889
-0.0163302
0.0112872
-0.057825
-0.0396907
-0.0757739
-0.0699811
-0.066412
-0.0747307
-0.02904
-0.0508641
0.0262864
-0.00261785
0.0841248
0.0557033
0.134646
0.110591
0.1751
0.156129
0.206032
0.191672
0.228808
0.218349
0.244679
0.237545
0.254448
0.250283
0.258844
0.257259
0.258876
0.259323
0.256183
0.257723
0.253372
0.254601
0.253129
0.252831
0.256524
0.254381
0.261937
0.259175
0.265514
0.264197
0.262988
0.265145
0.249278
0.257911
0.0853928
0.236979
0.166859
-0.107793
-0.00703453
-0.331222
-0.216141
-0.575058
-0.451518
-0.821646
-0.699421
-1.04541
-0.938147
-1.21835
-1.1399
-1.3161
-1.27781
-1.32392
-1.33163