/*--------------------------------*- C++ -*----------------------------------*\
  =========                 |
  \\      /  F ield         | OpenFOAM: The Open Source CFD Toolbox
   \\    /   O peration     | Website:  https://openfoam.org
    \\  /    A nd           | Version:  10
     \\/     M anipulation  |
\*---------------------------------------------------------------------------*/
FoamFile
{
    format      ascii;
    class       surfaceScalarField;
    location    "16";
    object      phi;
}
// * * * * * * * * * * * * * * * * * * * * * * * * * * * * * * * * * * * * * //

dimensions      [0 3 -1 0 0 0 0];

internalField   nonuniform List<scalar> 
57492
(
-0.0300365
0.00163339
0.00652504
0.0218781
0.0101561
-0.0246536
-0.0155391
-0.00288825
0.00931501
0.0280488
-0.0344755
0.0990155
0.072311
-0.0164172
-0.154909
-0.209889
0.084954
0.22395
0.0516833
-0.050603
-0.0262715
0.0251912
-0.0944273
0.0227935
-0.0136664
0.0853002
0.0171427
-0.0598867
0.029227
-0.0991453
0.0941624
-0.0242441
0.0256087
0.0908054
-0.0871871
0.00383254
0.0128139
-0.0329331
0.0162866
0.00959199
0.0124543
-0.0182137
0.00654193
-0.00238485
0.0054349
0.00240868
0.0169471
0.101907
-0.0861771
-0.0379978
0.0222676
0.00212839
0.0767652
0.0230137
-0.00767576
0.0184795
0.0885106
-0.0993143
-0.0175076
0.0876452
-0.0778134
0.0124473
-0.0272952
0.0148479
-0.0799516
0.0528521
0.0395468
-0.120802
0.0122317
0.0882158
0.0203549
0.0235988
-0.121889
-0.0225124
0.0116676
-0.00179784
-0.00697729
-0.00289247
0.00727776
0.00197043
0.00241941
-0.114812
0.124501
0.00925541
-0.0189448
-0.155237
0.0740125
-0.0335876
-0.0501
0.0147624
0.0278766
0.00746097
-0.0361406
-0.0165576
0.00259823
-0.0240601
-0.0641034
0.0809976
0.00716599
-0.0298463
0.0105249
-0.00473867
0.0604379
-0.0383261
-0.036894
0.0147821
-0.0482867
0.0399742
0.0687504
-0.0729054
-0.126296
0.0735565
0.125645
-0.126146
-0.0407532
0.0939933
-0.0705417
-0.00980053
0.0803422
-0.0178482
-0.0526935
-0.0918866
0.109595
-0.0355567
0.0181011
-0.0632651
-0.0467226
-0.0485609
0.0713544
-0.0345924
-0.113142
0.0549264
0.0582156
-0.204488
0.0913458
0.096329
0.0162473
-0.0249037
-0.0876726
0.0685221
-0.0351195
0.0629264
0.0168426
0.104411
-0.105007
0.0942585
0.0152824
-0.0923982
0.0922491
-0.011657
0.103443
-0.0360572
-0.0759058
0.00851969
0.116837
0.00188847
0.0775611
-0.0430227
0.0577107
0.0282224
0.134639
-0.103609
-0.0112834
0.00917331
0.105719
-0.106879
-0.00387822
0.00714795
0.0198415
0.09614
-0.0948964
-0.0210851
0.0128726
-0.0921763
-0.071802
0.109642
0.097563
-0.135403
0.0109606
0.118109
-0.200871
-0.00639318
-0.00830521
0.00258769
0.0121107
-0.00021368
-0.00856435
0.00985873
0.00511996
-0.0151924
-0.00200895
0.00356248
0.00841516
-0.00582747
-0.000220667
0.00863582
0.229974
0.0843582
-0.15759
-0.156742
0.074907
-0.0533821
0.208449
-0.19849
0.0717088
0.201688
0.0377679
-0.151899
0.0226538
-0.0780634
0.06379
-0.00838036
0.0682684
-0.079152
0.0335373
0.00472621
-0.00401695
0.000924133
0.00861081
0.00264045
0.024113
0.0063759
-0.0863028
0.154155
0.0610923
-0.128945
0.0853626
-0.103397
0.0419331
0.139366
-0.0271442
0.382434
-0.0508795
-0.0929192
-0.238636
0.076719
0.207057
0.0986584
0.0429453
-0.152268
0.186042
0.00583544
-0.00872368
0.0151504
0.0495409
0.0792865
-0.0371859
-0.0916415
0.0682371
0.00935253
0.0199894
-0.00757711
-0.0124123
0.0237678
-0.00377841
-0.207519
0.0989659
-0.0787718
0.187325
-0.175831
-0.101035
0.0693473
-0.1005
0.0997551
-0.175086
0.120407
-0.00264906
-0.0598148
-0.0579428
-0.0533366
0.134811
0.0389326
-0.0660096
-0.00792263
0.0205956
-0.0582515
-0.0104071
-0.022619
-0.0954473
-0.10781
0.0141175
0.0455961
0.0480967
0.0210255
-0.0663632
-0.0624726
0.0523134
0.021068
-0.0523559
0.0581836
0.00824723
0.0946647
0.00911506
-0.0607829
0.0381639
0.00763382
-0.0684167
0.0106576
0.0131103
0.117908
0.076445
-0.00868516
0.0421983
-0.134179
-0.0154554
0.0957294
-0.0672287
-0.0130453
-0.0230303
0.100888
-0.0933128
0.0775006
0.0523907
-0.0208543
-0.109037
-0.0188455
0.00425531
0.0920908
0.104642
-0.0710972
-0.0348375
-0.0735407
0.0221321
0.086246
-0.0350453
0.0855272
-0.0853193
0.00307581
-0.111662
0.0173249
0.019192
0.000541594
-0.00803838
0.0109618
0.00723267
0.00105326
-0.00337628
-0.00571536
-0.0295975
0.00599722
-0.0139453
0.0317013
0.00702428
-0.0247803
0.0562746
-0.0635885
-0.00663134
-0.0337877
0.0666863
0.023376
-0.0177488
0.0156624
-0.178138
0.0957951
0.181309
0.189331
-0.069034
-0.221331
-0.0859867
0.0971795
-0.0055475
-0.047775
-0.0107809
-0.0360445
0.000650648
-0.00469584
-0.0195794
0.0161012
0.00817403
-0.01148
-0.000535479
0.00731967
-0.00878383
-0.0222756
-0.0157798
-0.024256
0.0039913
-0.0408046
-0.0227502
-0.0486054
-0.0512176
0.0619563
0.0378666
0.0032787
0.0222848
-0.0741689
-0.0682673
0.0203284
-0.110082
0.0371508
-0.00702085
-0.103093
0.00371183
-0.0107004
-0.00510306
-0.0858871
0.0791027
0.0118874
-0.000359857
-0.0889899
0.0842467
-0.00960035
-0.280775
-0.0689036
0.0809511
0.0745685
-0.106321
0.117556
-0.0177612
-0.0398024
0.0608705
-0.0349127
-0.0048897
0.021265
-0.00446838
0.109815
-0.0701797
-0.0699767
0.030341
0.101215
0.0254431
0.135205
0.0162447
-0.14049
0.0571103
0.104116
-0.0260209
0.0236684
-0.0727782
0.10622
-0.00582689
-0.0290858
0.0391155
-0.126929
-0.119327
0.081711
0.152855
0.060424
-0.00361096
-0.0629726
0.00615955
0.0189134
-0.00677612
-0.0770482
0.0136153
0.103407
0.00996025
-0.068095
-0.0119255
0.00255222
0.0246472
0.0366699
-0.0524007
-0.00891643
0.01902
-0.00217857
0.00780582
0.0605853
0.06679
-0.108355
-0.0683872
0.110843
-0.0317982
0.203354
-0.186919
-0.0848215
-0.00330267
-0.0957175
0.112635
-0.197071
-0.0115477
-0.148782
-0.0768701
0.0285806
0.0811571
0.0684424
-0.137368
0.0543129
0.127852
-0.101008
0.051318
-0.0840239
0.0480502
-0.0153443
0.0553159
-0.0806476
0.0766496
0.117994
0.0386643
0.106873
-0.00699016
-0.106909
0.00702582
0.117224
-0.0159677
0.00561647
0.120534
-0.0170329
-0.000597132
-0.102904
0.0859395
-0.027469
0.0620632
0.103501
-0.0254941
0.0193556
-0.0973625
0.0219009
0.105541
-0.023941
-0.0944175
-0.0322358
0.101159
0.017779
-0.0900644
-0.0343038
0.0883141
-0.0462825
-0.0811781
0.0399886
0.0874719
-0.0486118
-0.0829206
0.08525
0.0452784
0.0795096
-0.0271347
-0.0976533
0.0784522
-0.0817856
-0.0524285
0.0520507
0.07883
-0.0419024
0.0689835
-0.103968
0.0923375
-0.0155042
-0.135117
0.0136509
0.138086
-0.0166198
0.0371902
-0.0253958
0.0941184
-0.0830306
0.014308
-0.0228947
0.115011
-0.117512
0.00897362
-0.0184572
-0.020114
-0.066499
-0.0968103
0.0587712
-0.0106797
0.00850117
-0.00046372
-0.010216
-0.0128815
-0.113234
0.0830926
-0.0944187
-0.0111763
0.0927135
0.00805353
-0.0986676
-0.00380467
-0.064147
0.0287929
0.0611905
-0.0258364
0.0703349
-0.067496
-0.0669859
-0.0034746
0.102602
-0.000912284
0.00557364
0.0145307
0.00826514
-0.00917742
0.0138388
0.00134656
0.00208437
-0.00543987
0.000180631
0.00116593
0.002265
0.00454682
-0.000486975
0.00321792
-0.00474888
0.0092957
-0.00523586
0.010841
-0.0016828
-0.026907
-0.00466782
0.0155088
-0.00635061
0.0270903
0.0773141
-0.100149
0.038405
-0.106867
0.095552
0.107569
0.00815007
-0.0362098
-0.0617947
0.036174
0.0618305
-0.0125181
0.063653
-0.0873447
0.0111017
-0.0854145
0.0816055
-0.0811901
0.0456259
-0.0460413
0.082435
0.055148
-0.0559775
0.0358735
-0.0801751
-0.0368885
0.0843133
0.0604022
-0.0622805
0.0875047
0.0662967
-0.0694882
0.0685411
0.0910863
-0.0721227
0.0868451
-0.0844529
0.066149
0.0644092
0.0975042
-0.0708271
0.0849326
0.0663217
-0.0795725
0.0614163
-0.0772418
0.0580716
-0.0752637
0.0531699
-0.075693
0.0460552
-0.0729361
0.0331166
0.0657314
0.102745
-0.0709718
0.0816773
0.0689868
0.024943
-0.0782775
-0.0268405
-0.0721627
0.0241696
0.0124153
-0.0824357
-0.0082572
0.0701184
0.103868
-0.071242
0.0832007
0.068595
-0.0741834
0.014436
0.104138
0.0699586
-0.0702287
0.0692964
0.104867
-0.0700256
0.084119
0.0690403
0.0852525
0.0681628
1.24865e-05
-0.0811363
-0.00131179
-0.073979
-0.000191957
0.0691312
0.104754
-0.0690174
0.0858177
0.068566
-0.0124707
-0.0806018
0.0119362
-0.0738576
-0.0125921
0.0687397
0.105145
-0.0691312
0.0866722
0.0678852
-0.0248351
-0.0803351
0.0245684
-0.0740353
-0.0246574
0.0690222
0.104684
-0.0685607
0.0869971
0.0686973
-0.0363135
-0.0804912
0.0364696
-0.0747989
-0.0355499
0.0691396
0.104736
-0.0691916
0.0877116
0.0684252
-0.0464141
-0.0807281
0.0466511
-0.0756194
-0.0455937
0.0699196
0.103857
-0.0690411
0.08799
0.0696411
-0.054773
-0.0816037
0.0556486
-0.0768088
-0.0535836
0.0703234
0.10344
-0.069906
0.088841
0.0694724
-0.0614935
-0.0803559
0.0602458
-0.0771082
-0.0611942
0.0711768
0.101832
-0.0695688
0.0883087
0.0717091
-0.0670365
-0.0810174
0.067698
-0.0785983
-0.0655463
0.0713518
0.100144
-0.0696645
0.0877402
0.0719204
-0.0705273
-0.0804014
0.0699113
-0.0785377
-0.0705879
0.0745726
0.093271
-0.0676992
0.0906358
0.0716769
-0.0729937
-0.0813296
0.0739219
-0.0797476
-0.0717839
0.071868
0.0874791
-0.0660762
0.0922376
0.0702662
-0.0744376
0.0746391
-0.0815311
-0.0817054
-0.0724797
0.0642687
-0.0634758
0.0866862
0.0922095
0.0642969
-0.0840871
0.085172
0.0728371
-0.0837367
0.0742886
-0.0739221
0.0754228
-0.0830318
-0.0739985
-0.081629
-0.084336
0.0836408
0.0683931
0.0707472
-0.0810827
0.0807593
0.055972
0.0628039
-0.0805601
0.0804755
0.0365542
0.0468502
-0.0805622
0.0808502
0.0116482
0.0244817
-0.0811521
0.0875995
-0.0147046
-0.00161369
-0.0877611
0.0872769
-0.0364044
-0.0270021
-0.0907294
0.0907302
-0.0559783
-0.0494938
-0.0874858
0.0863303
-0.0683327
-0.0590361
-0.08496
0.0854009
-0.0712679
-0.0707524
-0.0857239
0.0859473
-0.0714654
-0.0712948
-0.0860581
0.0860338
-0.0700013
-0.0703394
-0.0858647
0.085554
-0.0688205
-0.0688484
-0.0851078
0.084533
-0.0686167
-0.0681145
-0.0838397
0.0830552
-0.0691214
-0.0683478
-0.082189
0.0812906
-0.0687661
-0.0687026
-0.0811611
0.0807455
-0.0656606
-0.0675698
0.0790888
-0.061819
0.0576223
-0.0558738
0.0849377
0.0576529
0.0921788
0.0960268
-0.0928356
0.0684857
-0.0977502
0.0983072
0.0637399
0.0685429
0.0919501
-0.0898988
0.0696577
0.0710349
0.0891563
-0.0883803
0.0688651
0.06873
0.0875689
-0.0866639
0.0677923
0.0676138
0.0856583
-0.0844979
0.0674056
0.0668796
0.0831795
-0.081656
0.0675168
0.0668444
0.0799613
-0.0780734
0.0670989
0.0669003
0.0773356
-0.0754392
0.0642526
0.0655839
0.0746311
-0.071837
0.0552775
0.0606081
0.0692487
-0.0667141
0.0435205
0.0505816
0.0660641
-0.0655066
0.0236121
0.0324667
0.0624692
-0.0621414
-0.000519752
0.0113986
0.0623858
-0.0630687
-0.0239744
-0.0123477
0.0642113
-0.0657197
-0.0440852
-0.0344074
0.0675259
-0.0702617
-0.0584585
-0.0517774
0.0727084
-0.0762512
-0.0670451
-0.0630996
0.0788781
-0.0796061
-0.0717517
-0.069157
-0.0819311
-0.0716735
-0.0833649
0.0750511
0.0793744
-0.0561594
0.0561081
0.099852
-0.0732763
0.0746549
-0.0830077
-0.0716137
-0.0835937
-0.0751335
0.0745073
-0.0827387
-0.0835104
-0.0862211
0.0857172
0.073341
0.085772
-0.0852218
0.0745009
0.0738396
-0.085568
0.0860299
0.0679312
0.0708965
-0.0862935
0.0865074
0.0557582
0.0625403
-0.0867308
0.0870332
0.0362517
0.0466269
-0.0874052
0.0877621
0.0112913
0.0241097
-0.0881451
0.088448
-0.0150075
-0.00199664
-0.0885522
0.0904542
-0.0383064
-0.0271064
-0.0886661
0.088599
-0.0559112
-0.0477056
-0.091366
0.0897961
-0.0667628
-0.0618031
-0.0882966
0.0881711
-0.0711424
-0.069253
-0.0879765
0.0877008
-0.0711897
-0.0711002
-0.087332
0.0868503
-0.0695196
-0.0699706
-0.0862528
0.0855262
-0.0680939
-0.0682509
-0.0846786
0.0836882
-0.0676263
-0.0672669
-0.0825746
0.0813377
-0.0678845
-0.0672343
-0.0800235
0.0786827
-0.0674253
-0.0673883
-0.0772071
0.0753869
-0.0638404
-0.0660942
-0.0488617
0.0491391
0.0846603
-0.0477725
0.0782852
-0.0734662
0.0725191
-0.0552124
-0.0598982
0.102668
-0.101217
0.062289
0.103218
0.0555581
-0.0480803
0.0495568
0.0983756
0.0932376
0.0995571
-0.0964878
0.0654164
0.0668832
0.093571
-0.0922554
0.0683421
0.0681181
0.0910187
-0.0897918
0.0676382
0.0674932
0.088573
-0.0872743
0.0664935
0.066395
0.085897
-0.0843686
0.0658772
0.0655023
0.0826916
-0.0808113
0.0656365
0.0651674
0.0787528
-0.076491
0.0648371
0.0648418
0.0740806
-0.0715095
0.0616816
0.0631735
0.0689557
-0.0677375
0.0540594
0.0580543
0.0649132
-0.0620052
0.0406126
0.0477573
0.060993
-0.0590823
0.0217013
0.0314545
0.0582718
-0.0581049
-0.000686582
0.0105881
0.0585086
-0.0594217
-0.0230613
-0.0119441
0.0608278
-0.0627004
-0.0422126
-0.0330012
0.0649018
-0.0672946
-0.0560656
-0.049576
0.0697609
-0.0721723
-0.0646338
-0.0606332
0.0744594
-0.0773462
-0.0688649
-0.0668699
0.0794023
-0.0814049
-0.0696111
-0.0696173
-0.084261
0.0735465
-0.0727855
0.072849
-0.0836571
-0.0834466
-0.0707438
0.0719644
-0.0821232
-0.0473045
0.0720511
0.103909
0.0488651
0.0751685
-0.0739291
-0.0839781
0.0740229
-0.0831154
-0.0733244
0.0735197
-0.0838524
-0.0723534
-0.0844176
-0.085475
0.0688134
-0.0708822
-0.0531436
0.0671898
-0.0456809
0.0400021
-0.0389502
0.0973237
0.03826
0.105652
-0.083947
0.0864128
0.0715571
0.0737914
-0.0748634
-0.0820434
0.0813942
-0.0807533
0.0714947
-0.0721356
0.0712386
-0.0877338
0.0887089
0.0735258
0.0722256
-0.0889527
0.0896731
0.0726205
0.0735957
-0.0902398
0.0908668
0.0673042
0.0703298
-0.0916418
0.0923781
0.0550218
0.0617653
-0.0930847
0.0937535
0.0355829
0.0459203
-0.0943421
0.0947987
0.0108347
0.023521
-0.0950862
0.0951981
-0.0151193
-0.00228412
-0.0951248
0.0948586
-0.0380402
-0.0270331
-0.0943704
0.0937902
-0.0553309
-0.0472175
-0.093152
0.0924241
-0.0660348
-0.0611649
-0.0917166
0.091016
-0.0704418
-0.0685455
-0.0902908
0.0895099
-0.0704088
-0.0703751
-0.0886705
0.0877484
-0.0685975
-0.0691311
-0.0867399
0.0856164
-0.0669704
-0.0672424
-0.0843814
0.0829991
-0.066244
-0.0660319
-0.0814867
0.0798308
-0.0662286
-0.0657218
-0.0780976
0.0763014
-0.0656291
-0.0656552
-0.0744764
0.0721138
-0.0614778
-0.0642693
-0.0586666
-0.0378274
0.0373105
0.0851772
0.0378257
-0.0382393
0.0724648
0.0782835
0.0915978
0.106628
-0.104112
0.0597728
-0.108479
0.109871
0.0474732
0.053707
0.100014
-0.0991585
0.064561
0.0627855
0.0963738
-0.0945878
0.0665561
0.0653334
0.0929056
-0.0912626
0.0659952
0.065811
0.0896512
-0.0879911
0.0648334
0.0647836
0.0862722
-0.0844139
0.0640189
0.0637834
0.0824234
-0.080233
0.0634461
0.0631768
0.0778682
-0.0752872
0.0622562
0.0624769
0.0725621
-0.0697119
0.0588313
0.0604484
0.0668879
-0.0641149
0.0512865
0.0552303
0.0615184
-0.0592302
0.0383244
0.0451607
0.0574221
-0.0560246
0.0203039
0.0296463
0.0552566
-0.0551218
-0.000821388
0.00982004
0.0556048
-0.0567168
-0.0219493
-0.0114611
0.0583607
-0.0604993
-0.0400739
-0.0313573
0.0629651
-0.06564
-0.0533907
-0.0471102
0.0683763
-0.0710891
-0.061921
-0.0578969
0.0737201
-0.0762914
-0.0662936
-0.0642389
0.0789279
-0.0805763
-0.0679627
-0.0669808
0.0828136
-0.0861199
-0.0690471
-0.0685065
-0.0727451
0.0750205
-0.086693
-0.0877447
-0.0711203
-0.0737137
-0.0851278
0.0743962
-0.0829997
-0.0371155
0.0660659
0.111005
0.0371258
-0.0732933
-0.0895034
0.0750773
-0.0839092
-0.0606277
-0.0781734
0.135326
0.0748368
-0.0735342
-0.0890473
0.0756597
-0.0875159
-0.0623214
0.0896101
0.0753137
-0.0659004
0.0647695
-0.0847925
-0.081683
0.0848013
0.0683764
0.071118
-0.0631909
-0.086787
0.0884752
0.0698689
0.0692529
-0.0894326
0.0905119
0.0724465
0.0712681
-0.0919946
0.0931065
0.0715087
0.072113
-0.0943164
0.0957198
0.0659008
0.0691199
-0.097047
0.0983239
0.0537449
0.0604381
-0.0994937
0.100474
0.034603
0.0447505
-0.101245
0.101738
0.0103416
0.0227497
-0.101945
0.101866
-0.0150408
-0.00249087
-0.101485
0.100817
-0.0373726
-0.0266518
-0.0999125
0.0988181
-0.0542366
-0.0463125
-0.0976318
0.0963854
-0.0647884
-0.0599787
-0.0951349
0.0938871
-0.069194
-0.067295
-0.0926489
0.0913879
-0.0691478
-0.0691369
-0.0901036
0.0887619
-0.0672558
-0.0678469
-0.0873599
0.0858603
-0.0654707
-0.0658404
-0.0842653
0.0825312
-0.0645099
-0.0644369
-0.0806634
0.0786409
-0.0642061
-0.063854
-0.0765161
0.0743216
-0.0634346
-0.0635303
-0.0717599
0.0700882
-0.0598061
-0.0617076
-0.0675287
0.0652441
-0.0508591
-0.0561071
-0.0640078
0.0623148
-0.0354225
-0.0444446
-0.0261147
0.0263839
0.0721956
0.0268943
-0.0270768
0.0624974
0.0668455
-0.0259923
0.0270428
0.0841268
0.0786751
-0.0272776
0.0266227
0.0979785
0.091363
-0.0268916
0.0260393
0.111857
0.105383
0.115258
-0.112847
0.0450624
-0.118873
0.115583
0.0293291
0.0335107
0.110104
-0.107508
0.0571773
0.0509635
0.103552
-0.10122
0.0622294
0.0588289
0.0990074
-0.0968398
0.0643885
0.0631208
0.094769
-0.092756
0.0639823
0.0637402
0.0907898
-0.0888028
0.0628464
0.0628174
0.0867767
-0.0846344
0.0618766
0.0617573
0.082375
-0.0799297
0.0610009
0.0609174
0.0773203
-0.074505
0.0594408
0.0598675
0.0715611
-0.0685048
0.055775
0.0575045
0.0654718
-0.0625024
0.048317
0.0521973
0.0597654
-0.0573573
0.0359162
0.0424237
0.0554163
-0.0540056
0.0188932
0.0277054
0.0532624
-0.0531794
-0.000904371
0.00907682
0.0537425
-0.0549998
-0.020692
-0.010898
0.0568249
-0.0591508
-0.037748
-0.0295323
0.0618096
-0.06468
-0.0505203
-0.0444515
0.0676104
-0.0705428
-0.0589886
-0.0549665
0.0734102
-0.0762303
-0.0634735
-0.0613715
0.0789701
-0.0815856
-0.0653472
-0.064241
0.0841327
-0.0856962
-0.0674836
-0.0659594
0.0891583
-0.0914121
-0.0712805
-0.0676582
-0.0754067
0.0776305
-0.0912711
-0.0929996
-0.0738191
-0.0743854
-0.0840357
0.0755797
-0.0835022
-0.0711075
-0.0790236
0.076755
-0.0850045
0.0599725
-0.061062
-0.034333
0.0585368
-0.0256411
0.015617
-0.0150248
0.111265
0.013918
0.117282
-0.0722423
-0.0734272
0.0782378
-0.0881232
-0.109543
0.0178062
-0.0760592
0.0820909
0.0692821
-0.0783593
0.0792554
-0.0921672
-0.0752404
-0.0961185
-0.0734156
0.0621259
-0.0835982
-0.0840703
0.0857676
0.0666791
0.0691385
-0.0874417
0.0885444
0.0687662
0.0675788
-0.0904195
0.0925596
0.0703064
0.0693931
-0.09462
0.0966621
0.0694666
0.0700526
-0.098667
0.100605
0.0639631
0.067115
-0.102461
0.104201
0.0520042
0.0585824
-0.105728
0.106964
0.0333675
0.0432235
-0.107844
0.108339
0.00984699
0.0218693
-0.108444
0.108158
-0.0147552
-0.00259569
-0.107503
0.106493
-0.036362
-0.0259971
-0.105179
0.103622
-0.0526799
-0.0449988
-0.101933
0.100172
-0.0630269
-0.0582897
-0.0984121
0.096661
-0.067443
-0.0655352
-0.0949454
0.0932322
-0.0674345
-0.0674213
-0.0915281
0.0897931
-0.0655209
-0.0661427
-0.0880294
0.086189
-0.0636303
-0.0640767
-0.0842721
0.0822209
-0.0624587
-0.06252
-0.0800445
0.0776997
-0.0618613
-0.0616776
-0.0752391
0.0726727
-0.0608682
-0.0610697
-0.0700959
0.0676165
-0.0573267
-0.0591308
-0.0649363
0.0627847
-0.0487074
-0.053427
-0.0427219
-0.014448
0.013637
0.0730066
0.0148896
-0.0150847
0.0626924
0.0672871
-0.0145751
0.0143657
0.0843362
0.077737
-0.0151167
0.0155887
0.0975065
0.0906121
0.105947
0.119239
-0.116529
0.0423523
-0.11903
0.122362
0.0259972
0.0337204
0.113702
-0.10933
0.0528056
0.0481363
0.106721
-0.10405
0.0595578
0.0562197
0.101468
-0.0989481
0.0618685
0.0605393
0.0965549
-0.094217
0.0616444
0.061347
0.0919576
-0.0896877
0.0605765
0.060558
0.0874038
-0.0850234
0.0594963
0.0594734
0.0825458
-0.0799011
0.0583562
0.0584398
0.0771115
-0.0741365
0.0564658
0.0570779
0.0710516
-0.0678652
0.0525887
0.0544196
0.0647094
-0.0616364
0.0452441
0.0490414
0.0588245
-0.0563594
0.033451
0.0396119
0.0543838
-0.0529846
0.0174939
0.0257298
0.0522712
-0.0522402
-0.000935387
0.00836343
0.0528964
-0.0542424
-0.019346
-0.0102419
0.0561678
-0.0585783
-0.0353375
-0.0276068
0.0613052
-0.064233
-0.0475924
-0.0417246
0.0672289
-0.0702795
-0.0559381
-0.0519706
0.0733318
-0.0763851
-0.0604202
-0.0583192
0.0793279
-0.0821239
-0.0625512
-0.0612982
0.0847827
-0.0873648
-0.0649015
-0.0633007
0.0887773
-0.0916152
-0.0684426
-0.0662456
0.0951758
-0.097929
-0.0724872
-0.0702586
-0.0776875
0.0794497
-0.0978807
-0.101661
-0.073956
-0.0750593
-0.0800839
0.07689
-0.0836372
-0.0147348
0.0581869
0.122043
0.0142364
-0.0750978
-0.0761681
-0.0841646
-0.0923643
-0.0787273
-0.0788644
0.0787173
-0.085484
0.0805083
-0.0893761
-0.102361
0.0467515
-0.0706382
0.0544967
-0.0862194
-0.0787625
-0.0842401
0.081063
-0.0937805
-0.078736
0.0803235
-0.0994682
-0.0752152
-0.105181
-0.0817675
-0.0740754
0.0790192
0.0643382
0.0730649
-0.0806586
0.0543452
0.0611154
-0.082471
0.0843145
0.0648356
0.0656867
-0.0868983
0.0896146
0.0660499
0.064995
-0.092311
0.0949843
0.067633
0.0666966
-0.0976267
0.100235
0.0668586
0.0674102
-0.102769
0.105222
0.0615096
0.0645811
-0.107528
0.109642
0.0498906
0.0562764
-0.11145
0.112878
0.0319395
0.0414153
-0.113847
0.114349
0.00934553
0.0208998
-0.114374
0.113926
-0.0143072
-0.00262047
-0.113021
0.111676
-0.0350171
-0.0250926
-0.109973
0.107992
-0.0506987
-0.0432956
-0.105865
0.103661
-0.0608224
-0.0561632
-0.101463
0.0992742
-0.0652545
-0.0633371
-0.0971352
0.0950184
-0.0653177
-0.0652824
-0.0929426
0.0908634
-0.0634417
-0.064067
-0.0887829
0.0866451
-0.0614926
-0.0619962
-0.0844486
0.0821305
-0.0601406
-0.0603235
-0.0796959
0.0770874
-0.0592528
-0.0592429
-0.0743507
0.071497
-0.0580146
-0.058333
-0.068634
0.0658126
-0.0545053
-0.0562677
-0.063181
0.0610217
-0.0465482
-0.0507954
-0.058706
0.057201
-0.032828
-0.0404061
-0.0555511
0.0554823
-0.0146661
-0.0239911
-0.00261732
0.00252251
0.0627872
0.00367091
-0.00453594
0.0563473
0.0592405
-0.00211721
0.00279577
0.072328
0.0676924
-0.00254932
0.00225006
0.0846354
0.0779835
-0.00195313
0.00171551
0.0977441
0.090909
-0.00256274
0.00257162
0.111256
0.105099
-0.00257218
0.00300611
0.121609
0.117282
0.126436
-0.123817
0.0233788
-0.126544
0.125609
0.0039418
0.0141275
0.121791
-0.119097
0.0396588
0.0316938
0.115236
-0.112414
0.049984
0.0442748
0.109522
-0.106578
0.0566133
0.0533277
0.1037
-0.100891
0.0590599
0.0576619
0.0982217
-0.0956189
0.0590416
0.0586773
0.0931177
-0.0906196
0.0580784
0.0580568
0.0881293
-0.0855591
0.056926
0.0569831
0.0829148
-0.0801227
0.0555641
0.0557955
0.0772121
-0.0741404
0.0533941
0.0541673
0.0709815
-0.0677403
0.0493475
0.0512607
0.0645466
-0.0614575
0.0421549
0.0458477
0.0586448
-0.0561901
0.0309963
0.0367992
0.0542435
-0.0528863
0.0161367
0.0237833
0.0522114
-0.0522306
-0.00091624
0.00768861
0.0529456
-0.054328
-0.0179636
-0.0095269
0.0562761
-0.0586911
-0.0329226
-0.0256587
0.0614162
-0.0643519
-0.0446568
-0.0389994
0.0673854
-0.070518
-0.0528055
-0.0489371
0.0736939
-0.0769059
-0.0572082
-0.0551432
0.0800459
-0.0830817
-0.0595153
-0.0581583
0.0859652
-0.088762
-0.0621048
-0.0604171
0.0915665
-0.0945036
-0.0655056
-0.0634411
0.0975886
-0.100591
-0.0694852
-0.0671735
0.103931
-0.107428
-0.0717181
-0.0706159
-0.0753692
0.0772717
-0.107084
-0.111018
-0.0717788
-0.0774482
-0.0777335
-0.0803614
0.0541995
-0.0790658
-0.0758295
0.0539262
-0.0545749
-0.0140173
0.0542561
-0.0048659
-0.00764279
0.00835479
0.120897
-0.00654639
0.124512
0.0786783
-0.0835982
0.0808465
-0.0858222
-0.0777985
-0.0798284
0.0824921
-0.0908052
0.0827155
-0.0961724
0.0806676
-0.102864
-0.0721236
0.0751392
-0.110099
-0.0694117
-0.11373
-0.0805374
-0.0740078
0.0717176
0.0566355
0.0537767
-0.0608068
-0.0733313
0.0745595
-0.0747237
0.0539409
0.0547512
-0.0736804
0.0784077
0.0596109
0.0591526
-0.0824241
0.0852679
0.0619918
0.0616703
-0.088106
0.0910152
0.0631408
0.0621568
-0.0940127
0.097086
0.0645597
0.0636991
-0.100178
0.103264
0.0637719
0.0643186
-0.106275
0.109183
0.0586011
0.0615707
-0.111891
0.114335
0.0474474
0.0535681
-0.116397
0.118011
0.0303251
0.0393532
-0.119088
0.11962
0.00881375
0.0198225
-0.119588
0.11899
-0.013709
-0.00258838
-0.117852
0.116214
-0.0333794
-0.0239546
-0.114186
0.11186
-0.0483727
-0.0412675
-0.109377
0.106802
-0.0582472
-0.0536807
-0.104227
0.10166
-0.062687
-0.0607623
-0.0991543
0.0966881
-0.0628515
-0.0627767
-0.0942888
0.0919073
-0.0610601
-0.0616677
-0.0895491
0.0871533
-0.0590967
-0.059638
-0.0847199
0.0821799
-0.0576006
-0.0578901
-0.0795391
0.076732
-0.0564456
-0.0566022
-0.0738051
0.0707445
-0.0549539
-0.0554062
-0.0676645
0.0646343
-0.0514751
-0.0531877
-0.0617915
0.0592347
-0.0439914
-0.0479526
-0.0569147
0.0554945
-0.0314079
-0.0380861
-0.0230715
0.00828315
-0.00918168
0.0636858
-0.00751676
0.00638046
0.0574836
0.0600069
0.0087491
-0.00919829
0.0727772
0.0672598
0.00960346
-0.0099127
0.0849447
0.0783886
0.0100992
-0.0101785
0.0978234
0.0910954
0.00887892
-0.00893996
0.111317
0.1038
0.116697
0.129388
-0.128016
0.022007
-0.129845
0.129389
0.00439803
0.01367
0.12464
-0.120796
0.0358145
0.028318
0.118032
-0.115026
0.0469784
0.0415108
0.111925
-0.108768
0.0534561
0.0502268
0.105674
-0.102647
0.0560336
0.0545673
0.0997549
-0.0969469
0.0562336
0.055785
0.0942473
-0.0915695
0.0554006
0.0553572
0.0889184
-0.0862045
0.0542122
0.054332
0.083442
-0.0805539
0.052676
0.0530329
0.0775777
-0.0744675
0.0502839
0.0511911
0.0712986
-0.0680726
0.0461216
0.0480918
0.0649164
-0.061883
0.0391215
0.0426915
0.0591336
-0.0567471
0.0286098
0.0340498
0.0548718
-0.0535802
0.0148451
0.021908
0.052956
-0.0530146
-0.000857683
0.00706436
0.053746
-0.0551141
-0.0165954
-0.00879547
0.0570202
-0.059367
-0.0305757
-0.0237526
0.0620068
-0.0648593
-0.0418043
-0.0363596
0.0678389
-0.0709622
-0.0496822
-0.0459576
0.07417
-0.0774407
-0.0539375
-0.0519354
0.0806655
-0.083827
-0.0563539
-0.0549335
0.0868923
-0.0899437
-0.0590534
-0.0573517
0.0930201
-0.0962035
-0.0623222
-0.0603647
0.0995084
-0.103019
-0.0659746
-0.0638686
0.106233
-0.109242
-0.0687098
-0.0674015
0.113375
-0.117679
-0.065108
-0.067645
0.0712933
-0.0655437
-0.0899897
-0.0757328
-0.0632351
0.0669855
-0.117481
-0.120267
-0.0606468
-0.0795806
-0.0772187
0.00612127
0.0545153
0.129656
-0.00681293
-0.0576961
-0.0692298
0.0522022
0.080625
-0.0833767
-0.0622486
-0.0687787
-0.080236
-0.073392
0.0827632
-0.0860932
-0.076954
-0.0684181
0.0837658
-0.0918556
0.0824914
-0.0979962
0.0780991
-0.105824
0.0693931
-0.112507
-0.055095
0.0577345
-0.12012
-0.0520301
-0.123332
-0.079493
-0.0709547
0.0708965
0.0539991
0.0474618
-0.0637294
-0.0529622
0.0699524
-0.0642324
0.0417418
0.0511999
-0.0722781
0.0737689
0.0551447
0.0533696
-0.0764155
0.0788181
0.0572084
0.056506
-0.0828945
0.0863196
0.0585667
0.0575939
-0.0894097
0.0925086
0.0600418
0.0590667
-0.0956947
0.0990075
0.0612469
0.0605131
-0.102393
0.10582
0.060345
0.0609332
-0.109194
0.112461
0.0553337
0.0581969
-0.115495
0.118213
0.0447293
0.0505342
-0.120492
0.122277
0.0285403
0.037074
-0.123459
0.124025
0.00824753
0.018641
-0.123945
0.12322
-0.0129843
-0.0025082
-0.121891
0.120016
-0.0315035
-0.0226261
-0.117723
0.115119
-0.0457686
-0.0389753
-0.112354
0.109487
-0.0553805
-0.0509149
-0.106617
0.103752
-0.059822
-0.0578924
-0.100955
0.0982068
-0.060103
-0.05998
-0.0955438
0.0929179
-0.0584343
-0.0590047
-0.0903392
0.08774
-0.0564976
-0.0570592
-0.0851216
0.0824124
-0.0548915
-0.0552716
-0.0796153
0.0766632
-0.0534935
-0.0538051
-0.0735969
0.0703959
-0.0517529
-0.0523399
-0.0671793
0.0639966
-0.0482923
-0.0499711
-0.0610031
0.0582507
-0.0412389
-0.0449591
-0.0559174
0.054201
-0.0296914
-0.0357529
-0.0531914
0.0526511
-0.013477
-0.0220619
-0.0521725
0.053247
0.00504678
-0.00438737
0.017685
-0.0181626
0.0579611
-0.0160782
0.0140809
0.0552443
0.0561222
0.0192564
-0.0193741
0.0638035
0.0611007
0.0201748
-0.0208658
0.0734683
0.0680605
0.0213769
-0.0216805
0.0852483
0.0788998
0.0217766
-0.0217173
0.0977641
0.0911916
0.0214692
-0.0198454
0.109693
0.103552
0.0192737
-0.0186401
0.120264
0.116125
0.0194404
-0.0161983
0.126414
0.125313
0.132952
-0.131983
0.00342959
-0.131412
0.130338
-0.015124
-0.00527366
0.130838
-0.127723
0.0188915
0.012525
0.125598
-0.123088
0.0333044
0.0261927
0.120247
-0.117123
0.0438544
0.0386705
0.1139
-0.110593
0.050149
0.0470036
0.107358
-0.10418
0.0528553
0.0513324
0.101132
-0.098173
0.0532749
0.0527369
0.0953266
-0.0925137
0.0525877
0.0525107
0.0897452
-0.0869336
0.0514007
0.0515635
0.0840983
-0.0811643
0.049742
0.0501976
0.0781723
-0.0750762
0.0471877
0.0481991
0.0719511
-0.068796
0.0429665
0.0449668
0.0657322
-0.0628061
0.0361953
0.0396277
0.0601688
-0.0578946
0.0263356
0.0314125
0.056122
-0.0549136
0.0136367
0.0201354
0.0543422
-0.0544193
-0.000780612
0.00649297
0.05513
-0.0564392
-0.0152862
-0.00808473
0.0582503
-0.0604729
-0.0283531
-0.0219416
0.0629793
-0.0657264
-0.0390572
-0.0338532
0.0686587
-0.0717961
-0.0465447
-0.0430254
0.0750552
-0.0783786
-0.0506141
-0.0486763
0.0816404
-0.084838
-0.0531562
-0.0516717
0.0879784
-0.0911688
-0.0558631
-0.0542113
0.0944423
-0.0978693
-0.0588951
-0.0570911
0.101452
-0.105248
-0.0621787
-0.0602864
0.109267
-0.113482
-0.0644944
-0.0633822
0.117098
-0.120022
-0.0621839
-0.0640291
0.123252
-0.125045
-0.0502368
-0.0574172
0.0779095
-0.0735439
-0.0943553
-0.060072
-0.0407143
0.0437401
-0.126358
-0.128977
-0.0367829
-0.0811702
-0.0762845
0.0823764
-0.08299
-0.0430695
-0.0586009
0.0374379
-0.0571235
-0.0496754
-0.0639993
-0.0577417
-0.0804198
-0.0699261
0.0840006
-0.086328
0.0533609
-0.0520033
0.00368917
0.054372
0.0130698
-0.0248888
0.0256062
0.125696
-0.0226447
0.128094
-0.0761962
-0.0657658
0.0836085
-0.0929727
0.0800559
-0.099953
0.0726052
-0.109036
0.0614884
-0.116261
0.0459302
-0.12231
0.0342339
-0.0537423
-0.0390925
-0.054622
0.059965
0.028891
-0.0274569
-0.0522136
0.0250485
-0.0280685
-0.126409
0.0281193
-0.0273371
-0.129708
-0.0505241
-0.0306752
-0.0782867
-0.0586343
0.0589855
0.0413906
0.0387686
-0.0642716
0.0687414
0.0495294
0.0459138
-0.0710491
0.0737921
0.0524017
0.0510619
-0.0772454
0.0805898
0.053864
0.0530527
-0.0839101
0.0872729
0.0552038
0.0542736
-0.0905868
0.0939052
0.0567234
0.0557529
-0.0972881
0.1008
0.0577354
0.0571302
-0.104393
0.108043
0.0566951
0.0573399
-0.111645
0.115138
0.0518407
0.0545942
-0.118385
0.121294
0.0418201
0.0472881
-0.123734
0.125641
0.0266337
0.0346335
-0.126906
0.127495
0.00765848
0.0173756
-0.127372
0.126543
-0.0121547
-0.00238533
-0.125058
0.122996
-0.0294413
-0.0211419
-0.120513
0.117721
-0.0429769
-0.0364916
-0.114769
0.111707
-0.0523187
-0.0479634
-0.108631
0.105547
-0.0567381
-0.0548157
-0.102528
0.0995602
-0.0571351
-0.0569613
-0.0966899
0.0938699
-0.0556143
-0.0561343
-0.0911136
0.0883511
-0.0537351
-0.0543029
-0.085588
0.0827543
-0.0520578
-0.0525085
-0.0798552
0.0768201
-0.0504584
-0.0509061
-0.0736819
0.0704122
-0.0484832
-0.0492017
-0.0671197
0.0638498
-0.0450224
-0.0466786
-0.0607633
0.0579389
-0.0384145
-0.0418727
-0.0554995
0.0535392
-0.0277311
-0.0333135
-0.0522237
0.0517567
-0.0130101
-0.0207463
-0.00463395
0.0264747
-0.0281929
0.0596793
-0.0246135
0.0224895
0.0573684
0.0579833
0.0284542
-0.0297759
0.0651251
0.0613621
0.03088
-0.0317444
0.0743327
0.0691646
0.0323379
-0.032639