/*--------------------------------*- C++ -*----------------------------------*\
  =========                 |
  \\      /  F ield         | OpenFOAM: The Open Source CFD Toolbox
   \\    /   O peration     | Website:  https://openfoam.org
    \\  /    A nd           | Version:  10
     \\/     M anipulation  |
\*---------------------------------------------------------------------------*/
FoamFile
{
    format      ascii;
    class       volScalarField;
    location    "14";
    object      p;
}
// * * * * * * * * * * * * * * * * * * * * * * * * * * * * * * * * * * * * * //

dimensions      [0 2 -2 0 0 0 0];

internalField   nonuniform List<scalar> 
14667
(
0.231862
0.241287
-0.0112583
-0.00956732
-0.00631103
0.212303
0.199733
-0.0100144
0.000609201
-0.00129979
0.21623
0.230196
0.311336
0.242915
-0.0128317
0.197814
0.204939
0.0207702
0.0114918
0.20616
0.185773
0.266128
0.20242
0.193961
-0.41276
-0.420919
-0.455914
-0.436574
-0.426328
0.56812
0.532176
0.518594
-0.330756
-0.34445
-0.351082
-0.311568
-0.328624
0.00519589
-0.00650985
0.00507241
0.0159016
0.0274636
0.691654
0.714872
0.81197
0.777
0.672191
-0.165782
-0.164488
-0.163734
-0.166212
0.638844
0.584795
0.54197
-0.164268
-0.206111
-0.242105
-0.2102
-0.24753
-0.230636
-0.428182
-0.421626
0.25639
0.317863
0.419069
0.347644
0.212494
0.384381
0.260614
0.491866
0.475157
0.469553
0.888561
0.813854
-0.170265
-0.174565
-0.17157
-0.173329
0.485074
0.493876
0.0103199
0.00589316
0.0048822
-0.00691825
-0.00560472
-0.47425
-0.453679
-0.205818
-0.207294
-0.381895
-0.390891
-0.146948
-0.116307
0.00465359
0.000734865
-0.0775988
-0.0614605
-0.205014
-0.18819
-0.212815
-0.200454
-0.308536
-0.25012
0.43448
0.468421
0.450679
0.424682
0.416046
0.405519
-0.0140648
-0.0172546
-0.0132055
-0.0122775
-0.00606814
-0.010004
-0.0662975
-0.0787595
-0.0752719
-0.0099554
-0.0143597
-0.00980339
0.00539062
0.00126972
0.00174558
0.0032754
0.00798779
0.00589994
0.00392209
0.00644065
0.0132536
0.0106668
0.00948571
0.0126859
0.018485
0.0159354
0.0157785
0.0185681
0.0228725
0.0208639
0.0209316
0.022788
0.0256204
0.0244831
0.0240868
0.0247805
0.0262912
0.0262519
0.0247935
0.024063
0.0242578
0.0256501
0.0225119
0.0201633
0.0187676
0.0220431
0.0170508
0.0120489
0.00730207
0.0138951
0.00571822
-0.0015517
-0.0102172
-0.000898969
-0.0111685
-0.0215228
-0.034496
-0.0217312
-0.0479116
-0.032345
0.00410693
0.000728323
-0.0434373
0.00789674
0.00753419
0.00418116
-0.00308929
-0.00231298
-0.0162018
-9.67206e-05
-0.00794613
0.0124375
0.0071507
0.0210014
0.0170045
0.0247363
0.0232087
0.0255868
0.025579
0.0233357
0.0248052
0.0186684
0.0212622
0.0123573
0.0156517
0.00571785
0.00898839
0.000415769
0.00292917
-0.0023066
-0.000953839
-0.00308174
-0.00113122
0.0013154
0.0096804
0.00864926
0.0126074
0.0107362
0.0176319
0.0152178
0.0220446
0.0199958
0.0251663
0.0238071
0.0266097
0.0261161
0.0260254
0.0266065
0.0227648
0.0247725
0.0157586
0.0198597
0.00238967
0.00998541
-0.018126
-0.00682642
-0.0456601
-0.0311914
-0.0613734
0.00466659
0.00759519
-0.024189
-0.0746953
-0.00294012
-0.00115593
0.000226879
-0.0941386
0.00132181
0.0113247
0.00625964
0.0195411
0.0159466
0.0249701
0.0227692
0.0262675
0.0259762
0.0247335
0.0258783
0.0204099
0.0228793
0.0139817
0.0174123
0.00641234
0.010257
-0.000713757
0.00269743
-0.00568505
-0.00350661
-0.00735003
-0.00687316
-0.00608907
-0.00701
-0.00464654
0.00221428
0.0107844
0.0119649
0.0111785
0.0144719
0.0131663
0.0177878
0.0159904
0.0217421
0.0198154
0.0249104
0.0234824
0.0267508
0.0260124
0.0270749
0.0271173
0.025481
0.026561
0.0211588
0.0237218
0.0127425
0.0175931
-0.00199924
0.00627218
-0.0245876
-0.0122185
-0.0544452
-0.0386637
-0.0905824
-0.0722126
-0.109264
-0.127996
-0.110033
-0.00353847
-0.0536079
-0.0868774
0.00172874
-0.121975
-0.143395
0.000701523
0.0139737
-0.00408214
-0.00194578
0.0134227
0.0105646
-0.00720968
-0.0308572
0.0160708
0.0191307
0.0176918
0.0232336
0.021059
0.0269855
0.0253438
0.0285279
0.028209
0.0271814
0.0281442
0.0233294
0.0255877
0.0170156
0.0204487
0.0088916
0.0131207
0.000252703
0.00452499
-0.00691448
-0.00363439
-0.0108088
-0.0093194
-0.0108633
-0.0112675
-0.0082169
-0.00980041
-0.00623545
0.00530548
0.00329855
0.00776693
0.0158651
0.0147858
0.0185848
0.017183
0.0216105
0.0200665
0.0244093
0.0230833
0.0263652
0.0255208
0.0271747
0.0269225
0.0266525
0.0270997
0.0243077
0.0257548
0.0192337
0.0221843
0.00992849
0.0152345
-0.00571402
0.00302512
-0.0294453
-0.0165365
-0.0615309
-0.0443726
-0.100825
-0.0804516
-0.141769
-0.121823
-0.173798
-0.1596
-0.0627766
-0.00871319
0.0184316
0.0106195
0.0131367
-0.0964551
-0.155304
-0.130152
-0.161995
7.10794e-05
-0.182993
-0.0364025
0.0211204
0.0485584
0.0440883
0.0454902
0.038066
0.040236
0.0363086
0.036957
0.035164
0.035827
0.0328056
0.0342023
0.0286099
0.030959
0.022202
0.0256956
0.0136738
0.0181696
0.00387892
0.00884652
-0.00541523
-0.000967757
-0.0120376
-0.00917306
-0.0146095
-0.0138481
-0.0133235
-0.0143847
-0.00953566
-0.0116434
-0.00473834
-0.00716987
-0.00024136
-0.0023755
0.00195439
0.00331066
0.00248881
0.00619205
0.00453426
0.00825891
0.0156035
0.017018
0.0162699
0.0191672
0.0179936
0.0216102
0.0204031
0.0239288
0.0228026
0.0257376
0.0249206
0.0267436
0.026352
0.0267906
0.0268961
0.0256405
0.0263906
0.0227333
0.0244546
0.0171314
0.0203448
0.00734157
0.0128759
-0.00865599
0.000250363
-0.0327721
-0.0196285
-0.065998
-0.0482314
-0.107296
-0.0857915
-0.150783
-0.129339
-0.186719
-0.17033
-0.198318
0.00164388
-0.0693846
-0.00861153
-0.103186
0.0518293
0.0246912
-0.135803
0.0176634
0.016903
0.0151291
-0.165286
-0.18776
-0.000271799
0.00159394
-0.205799
-0.0395782
0.0542536
0.072455
0.06986
0.0719821
0.063623
0.066888
0.0559273
0.0595835
0.0496684
0.052638
0.0440636
0.0468694
0.0379848
0.0411413
0.0305496
0.0344825
0.0212657
0.0261427
0.0104062
0.0159815
-0.000785887
0.00473409
-0.0102113
-0.00585973
-0.0158864
-0.0136006
-0.0170504
-0.0170151
-0.0144821
-0.0161415
-0.00986404
-0.0123203
-0.00477954
-0.00730006
-0.00239321
0.00353616
0.00312066
0.00324397
0.00475129
0.00402348
0.00713995
0.00579069
0.0108277
0.0088388
0.012988
0.0194027
0.0184971
0.0214319
0.0203856
0.0233842
0.0224594
0.02496
0.0242298
0.0259765
0.0255487
0.0263019
0.0262312
0.0258092
0.0261699
0.0242007
0.0251733
0.0208887
0.0228049
0.0149545
0.0183223
0.00499188
0.0105835
-0.0108885
-0.00208327
-0.0346627
-0.0216808
-0.067881
-0.0500526
-0.109901
-0.0880187
-0.155102
-0.132609
-0.193812
-0.176001
-0.215296
-0.207228
-0.217362
-0.0728737
-0.00669884
0.0146753
0.0162235
-0.106071
0.0282131
-0.137497
0.0704293
0.0547914
-0.163747
-0.181923
0.00313317
-0.190179
-0.202905
0.00439659
0.00427764
-0.0400404
0.0655411
0.0714196
0.0819973
0.0779335
0.0835348
0.0837708
0.0787847
0.0817968
0.0706072
0.0749418
0.0616525
0.0661487
0.0525987
0.0571545
0.0430154
0.0479174
0.0322529
0.037811
0.0201045
0.0263374
0.00720434
0.0136684
-0.00479336
0.000958741
-0.0137324
-0.00976733
-0.0181148
-0.0165331
-0.0178847
-0.0185175
-0.0143597
-0.016422
-0.00936126
-0.011938
-0.00433247
-0.00679685
-3.69791e-05
-0.00206652
0.00167432
0.0049419
0.00460638
0.00609052
0.00543044
0.00807573
0.00696666
0.0110471
0.00943841
0.012844
0.017309
0.0190239
0.0181471
0.0207984
0.0199121
0.0225481
0.0216959
0.023991
0.023389
0.0249687
0.0245389
0.0254268
0.0252671
0.0252925
0.0254391
0.0244226
0.0249642
0.0224853
0.0236169
0.0189031
0.0209449
0.012808
0.0162371
0.00291969
0.00843378
-0.0124715
-0.00397305
-0.0352791
-0.0228309
-0.0672957
-0.0500619
-0.108375
-0.0869198
-0.153802
-0.131001
-0.194316
-0.175374
-0.218562
-0.209153
-0.219195
-0.222113
-0.187484
-0.195921
-0.210525
-0.073112
-0.00355917
-0.105719
0.0306225
-0.134855
0.0523014
-0.158031
0.0622513
0.0574996
-0.172207
-0.175723
-0.175361
-0.168449
0.0031991
-0.152691
0.0178407
0.00543065
0.00519989
0.016923
0.0164974
-0.148577
0.0042253
-0.0384087
0.0504417
0.0503654
0.0717658
0.062218
0.0843271
0.0790389
0.0890918
0.0876634
0.086921
0.0888766
0.0798463
0.0838491
0.0700254
0.0751735
0.058778
0.064545
0.0463985
0.0527362
0.0328378
0.0397612
0.0184218
0.0256902
0.00428036
0.0112105
-0.00767302
-0.00210107
-0.0155418
-0.0122021
-0.018498
-0.0176318
-0.0171422
-0.0182704
-0.0131132
-0.0153471
-0.00815245
-0.0106601
-0.00347138
-0.00573721
0.000405275
-0.00143563
0.00192715
0.00612413
0.00573108
0.00726239
0.00662588
0.00893803
0.00803349
0.0112876
0.0100112
0.0142733
0.0127489
0.0155775
0.0196298
0.0187447
0.0212703
0.0204553
0.0226554
0.0220051
0.023666
0.0231504
0.0242585
0.0240248
0.0243534
0.0243679
0.023916
0.0242073
0.0227847
0.0234531
0.0206207
0.0218601
0.0168798
0.018989
0.0107671
0.0141804
0.00114711
0.00647906
-0.013477
-0.00543764
-0.0348532
-0.0232091
-0.0647452
-0.0486509
-0.103513
-0.0831415
-0.147473
-0.125292
-0.188735
-0.169117
-0.215864
-0.204793
-0.219558
-0.220875
-0.198993
-0.212278
-0.178257
-0.07105
-0.000330297
0.0156747
0.0159609
-0.146521
-0.102204
0.0307305
-0.129462
0.0463702
-0.14941
0.0464542
-0.159763
0.0359701
0.0357302
-0.158609
-0.148324
-0.13328
0.00502811
-0.0352007
0.0189478
0.0179304
0.0475107
0.0338746
0.0683198
0.0588757
0.0817017
0.0758439
0.0883667
0.0858459
0.0884233
0.0891259
0.0829872
0.0863106
0.0734853
0.0786532
0.0612835
0.0676584
0.0472329
0.054454
0.0319616
0.039705
0.0164125
0.0241413
0.0021448
0.00899963
-0.00892222
-0.00390106
-0.015401
-0.0127737
-0.0170806
-0.0167975
-0.0150512
-0.016426
-0.0110107
-0.013178
-0.00646329
-0.00872795
-0.00234815
-0.0043194
0.000963485
-0.000588494
0.00335053
0.00225841
0.00490024
0.00422378
0.00562969
0.00623434
0.00589921
0.00709946
0.00662878
0.00826862
0.00764371
0.00968661
0.00895058
0.0115015
0.01052
0.0138628
0.0126454
0.014933
0.0158496
0.0178478
0.0168486
0.0195242
0.0186918
0.0209818
0.020286
0.0220942
0.0215858
0.0228035
0.0224863
0.0231008
0.0230054
0.0229587
0.0230859
0.0223202
0.0227089
0.02101
0.0217652
0.0187003
0.0200063
0.0148925
0.0170213
0.00887611
0.0122133
-0.00033139
0.00474222
-0.0139995
-0.00652155
-0.0336291
-0.022972
-0.0607599
-0.0461819
-0.0959417
-0.0774058
-0.13682
-0.115975
-0.177116
-0.157613
-0.205706
-0.193713
-0.212574
-0.212115
-0.194974
-0.206858
-0.175669
0.00539955
-0.0671877
0.00175984
-0.00057744
-0.000943056
-0.0971414
0.0276887
-0.122386
0.0367638
-0.139653
0.0320067
-0.145705
0.0180907
-0.141126
-0.126581
-0.117554
-0.105117
-0.0806163
0.00481059
0.0154735
0.0144232
0.00522781
0.0147936
-0.0316954
-0.021921
-0.0210411
0.0154516
-0.00159921
0.0429961
0.0301958
0.0629393
0.0538322
0.0764022
0.0704089
0.0839612
0.0809624
0.0853228
0.0853943
0.0811627
0.0838737
0.0724617
0.0773174
0.0603178
0.0667509
0.0458464
0.0533074
0.0301964
0.0380899
0.0147995
0.0223632
0.00142509
0.00774398
-0.00824895
-0.00394918
-0.0133466
-0.0113911
-0.0141666
-0.0142288
-0.0120067
-0.0133602
-0.00839305
-0.0102951
-0.00452912
-0.00643673
-0.00111032
-0.00273827
0.00159269
0.000340336
0.00354267
0.0026606
0.00426194
-0.0239213
-0.0466221
-0.0434389
0.0060606
0.00549132
0.0057427
0.00684683
0.00641718
0.00786508
0.0073262
0.00907635
0.00846118
0.0102855
0.00968443
0.01165
0.0109215
0.0134312
0.0125056
0.0148039
0.014261
0.0149622
0.0173747
0.0164354
0.0189375
0.0181805
0.0201964
0.0196046
0.0210862
0.0206878
0.0215841
0.0213823
0.0216835
0.0216819
0.0213838
0.0215858
0.0206087
0.0210637
0.0191781
0.0199908
0.0167857
0.0181259
0.0129832
0.015094
0.007149
0.0103655
-0.00155013
0.00321654
-0.0141644
-0.00729714
-0.0319219
-0.0223216
-0.0560617
-0.0431349
-0.0870632
-0.0707441
-0.12338
-0.10476
-0.160414
-0.142262
-0.18884
-0.176449
-0.198419
-0.196331
-0.186749
-0.195327
-0.147522
-0.171286
-0.0865947
-0.117071
-0.0689834
-0.0422095
-0.0335457
-0.0631563
0.00170562
0.0137299
0.0133875
-0.0923646
0.0207591
-0.115717
0.0236283
-0.129802
0.0144342
-0.132317
-0.00287948
-0.12265
-0.100751
-0.0768947
-0.0464404
-0.0506797
-0.0686843
-0.0747604
-0.0970936
0.00525068
-0.0107307
0.00565563
-0.0121053
0.0053585
-0.0293291
-0.0635489
-0.088642
-0.0211456
-0.041125
0.0120803
-0.00347079
0.0375443
0.02567
0.0564748
0.0477773
0.0697624
0.0637957
0.0775851
0.0743916
0.0797331
0.0793568
0.0765865
0.0787878
0.068821
0.0732302
0.0573999
0.0634987
0.0435293
0.0506901
0.028628
0.0361098
0.0143642
0.0213066
0.00247411
0.0080212
-0.00580454
-0.00214183
-0.00981114
-0.00828003
-0.0103128
-0.0104354
-0.00849858
-0.00961319
-0.00560836
-0.0071206
-0.0025631
-0.00406347
0.000120151
-0.00115602
0.00223407
0.00125757
0.0037567
0.00307732
0.00474436
0.00432227
0.00506253
0.00636325
0.0059802
0.00729038
0.00678946
0.00844667
0.00783935
0.00967468
0.00907257
0.0107198
0.0102249
0.0117071
0.0111943
0.0129617
0.0123056
0.0139107
0.0135541
0.0139439
0.0129485
0.0149521
0.013973
0.0166403
0.0158097
0.0180432
0.0173713
0.0191122
0.0186166
0.0198206
0.0195094
0.0201613
0.0200444
0.0201276
0.020188
0.0197211
0.0199746
0.0188511
0.0193522
0.0173427
0.0181912
0.014916
0.0162653
0.0111747
0.0132386
0.00558533
0.0086492
-0.00254347
0.00188617
-0.0140554
-0.00782088
-0.0299093
-0.0213797
-0.0510373
-0.0397714
-0.077772
-0.0637349
-0.108992
-0.0929658
-0.141298
-0.125359
-0.167259
-0.155695
-0.178185
-0.174872
-0.172097
-0.177366
-0.140652
-0.160253
-0.0898874
-0.114677
-0.0394865
-0.0672185
0.0109409
0.00513072
-0.013661
-0.0607147
-0.00181727
-0.0893205
0.00978617
-0.111056
0.00682233
-0.122003
-0.00685085
-0.120013
-0.0272089
-0.104511
-0.0776892
-0.0454927
-0.0139879
0.0157089
0.0197092
0.0338067
-0.16027
-0.0816351
-0.106652
-0.128875
0.00573628
0.00503302
0.0125159
0.0115894
0.011941
0.00508827
0.00539191
-0.0297417
-0.105586
-0.131868
-0.0594465
-0.0813922
-0.0218647
-0.0396694
0.00820752
-0.00596712
0.0317881
0.0207666
0.0496875
0.0414148
0.0625004
0.0567092
0.0703443
0.0670703
0.0730539
0.0723359
0.0708423
0.0725435
0.0641938
0.0680301
0.0539712
0.0594622
0.0413956
0.0478912
0.0279641
0.034686
0.0153304
0.0214452
0.00502038
0.00980579
-0.00193051
0.00106993
-0.00551388
-0.0041612
-0.0061678
-0.00613614
-0.00498826
-0.00574251
-0.00294096
-0.00402199
-0.00072508
-0.00182247
0.00125849
0.000311651
0.00283386
0.00210407
0.00396549
0.00345909
0.00469308
0.00438271
0.00490543
0.00654775
0.00611898
0.00759024
0.00703635
0.00885088
0.00820411
0.0100769
0.00948904
0.01099
0.0105811
0.0116588
0.0113302
0.0124396
0.012031
0.0129692
0.0127967
0.0126581
0.0129093
0.0123003
0.0142625
0.013398
0.0157544
0.015041
0.0169694
0.0163972
0.0178632
0.0174567
0.0184147
0.018181
0.018634
0.0185543
0.0185141
0.0186169
0.0180308
0.0183214
0.0170949
0.0176275
0.015541
0.0164084
0.0131181
0.0144568
0.00948051
0.0114759
0.00417692
0.00706846
-0.0033561
0.000726992
-0.0137778
-0.00816381
-0.0277978
-0.0202959
-0.0460504
-0.0363697
-0.068684
-0.0568479
-0.0948208
-0.0814224
-0.121873
-0.108504
-0.144091
-0.134065
-0.154772
-0.151103
-0.15134
-0.155009
-0.12648
-0.142347
-0.0843407
-0.106027
-0.0414597
-0.0632657
-0.000630269
-0.0195202
-0.0614366
-0.00961367
0.0109276
0.010657
-0.0896254
-0.00536909
-0.109718
-0.0140731
-0.117457
-0.0321648
-0.110308
-0.0556518
-0.0885063
-0.055429
-0.0199451
0.015241
0.0412673
0.0353632
0.0546605
0.0511436
0.0397878
-0.168259
-0.143155
-0.190309
-0.116941
-0.142578
-0.163739
-0.180032
0.00507428
-0.0340695
-0.0963612
-0.118898
-0.0563125
-0.0753965
-0.0230481
-0.0389275
0.00431661
-0.0086263
0.0260895
0.0158687
0.0429067
0.0350893
0.0551361
0.0495819
0.0628795
0.0595838
0.0660207
0.0650211
0.0647151
0.0659105
0.0593331
0.0624981
0.0506291
0.0553347
0.0397428
0.0453761
0.0280897
0.033918
0.0171686
0.022449
0.00824727
0.0123992
0.00209104
0.00476814
-0.00123597
9.31635e-05
-0.00227466
-0.00199365
-0.00180995
-0.00218105
-0.000576323
-0.0012504
0.000886312
0.000151332
0.0022506
0.001594
0.0033547
0.00284029
0.00414396
0.00378795
0.004633
0.00442187
0.00483191
0.00476045
0.00478178
0.00483848
0.00501628
0.00574156
0.0053606
0.00664126
0.00616509
0.0077805
0.00717876
0.00909408
0.00842896
0.0103069
0.0097347
0.011104
0.0107701
0.011497
0.0113281
0.0118557
0.0116702
0.01199
0.0119935
0.011525
0.01182
0.0112124
0.010369
0.0119863
0.0111874
0.013485
0.0127584
0.0147768
0.0141646
0.0158028
0.0153243
0.0165365
0.0162072
0.0169637
0.0167881
0.0170841
0.017059
0.016894
0.0170297
0.0163525
0.0166709
0.0153714
0.0159246
0.0137973
0.0146703
0.0114077
0.0127207
0.00790516
0.00981646
0.00291302
0.00562092
-0.00402081
-0.000281713
-0.0133996
-0.00837393
-0.0257253
-0.0191668
-0.0413761
-0.0331254
-0.0603035
-0.0504614
-0.0817162
-0.0707866
-0.103554
-0.092794
-0.121503
-0.113355
-0.130749
-0.12741
-0.128126
-0.131198
-0.108523
-0.120508
-0.0739042
-0.0920312
-0.0366207
-0.0551844
0.002798
-0.0178432
0.0202971
0.0046953
-0.0664358
-0.0221733
-0.0943679
-0.0249465
-0.112706
-0.0392824
-0.116766
-0.061894
-0.103792
-0.0888425
-0.0748294
-0.0355054
0.00555817
0.0402187
0.06329
0.0693322
0.0497171
0.0654613
0.035459
0.0547629
0.0386499
-0.193573
-0.220546
-0.218528
-0.170744
-0.191638
-0.156871
-0.182578
-0.201794
-0.214987
0.00451388
0.00998677
0.00928412
0.00440277
0.00956117
-0.0431389
-0.128375
-0.149393
-0.0883861
-0.107881
-0.0537859
-0.0704109
-0.0242641
-0.0384487
0.000552711
-0.0112464
0.0206527
0.011172
0.0363908
0.029051
0.0479941
0.0426995
0.0555495
0.0522862
0.0590334
0.0577998
0.0585608
0.0592798
0.0544494
0.0569297
0.0473437
0.0512174
0.0382408
0.0429687
0.0283862
0.0333253
0.0190665
0.0235849
0.0113338
0.0149525
0.0057872
0.00828967
0.00248959
0.00387397
0.00103794
0.00156709
0.000857907
0.000825601
0.00139517
0.00106686
0.0022242
0.00179368
0.00306827
0.00265631
0.00377358
0.00344392
0.00427261
0.00404991
0.0045525
0.00443757
0.00462814
0.00461499
0.00459604
0.00490408
0.00424237
0.00456472
0.00568205
0.00527247
0.00665658
0.00614108
0.00786188
0.00723269
0.00919937
0.00852731
0.0103886
0.009836
0.0110725
0.0108097
0.0112178
0.0111911
0.011201
0.0112143
0.0109839
0.0111431
0.0104189
0.0107239
0.00992715
0.0101424
0.00975642
0.0113781
0.0106896
0.0126506
0.0120407
0.0137383
0.013223
0.0145916
0.0141966
0.0151842
0.0149213
0.0155044
0.0153787
0.0155465
0.01556
0.0152975
0.0154602
0.014711
0.0150505
0.0136998
0.0142656
0.0121246
0.0129932
0.00978991
0.0110661
0.00644289
0.00826034
0.00177384
0.00429411
-0.00457329
-0.00116761
-0.0129721
-0.00849477
-0.0237599
-0.0180513
-0.0371245
-0.0301217
-0.0528733
-0.0447351
-0.0702319
-0.0614296
-0.087442
-0.079026
-0.101272
-0.0950107
-0.108385
-0.105832
-0.105717
-0.10852
-0.0893757
-0.0993995
-0.0628955
-0.0771513
-0.0326735
-0.0478376
-0.00156042
-0.0170913
0.0226024
0.0115032
0.0306605
-0.0763131
-0.0395778
0.00877577
0.00858121
-0.103983
-0.0492747
-0.120256
-0.0694916
-0.119883
-0.0967582
-0.100255
-0.127269
-0.063508
-0.0172806
0.0270429
0.0616982
0.0805095
0.0822958
0.0718887
0.0380143
0.0551152
0.0236283
0.0341605
0.0195537
-0.249786
-0.210982
-0.241722
-0.184958
-0.200327
-0.228096
-0.201312
-0.225786
-0.242282
-0.250872
0.00393059
0.00406399
0.00374977
-0.0572558
-0.151312
-0.168802
-0.115627
-0.133313
-0.0818836
-0.0983395
-0.0517687
-0.0663219
-0.0254309
-0.0381432
-0.00290905
-0.0136685
0.0156116
0.00684653
0.0302776
0.0234168
0.0412428
0.0362169
0.0485787
0.0453658
0.0523078
0.0508928
0.0525459
0.0528513
0.0495813
0.0514378
0.0439639
0.0470589
0.0365356
0.0404143
0.0283421
0.0324658
0.020453
0.0242979
0.0137363
0.0169064
0.00870115
0.0109966
0.00542274
0.00685183
0.00364682
0.00437073
0.00296222
0.00319506
0.00295216
0.0028962
0.00327791
0.00309007
0.00370299
0.0034889
0.00408261
0.00390451
0.00434113
0.00422981
0.00444977
0.00441533
0.00441354
0.00445132
0.00424097
0.00434905
0.00411459
0.0047506
0.00439897
0.005575
0.00513768
0.00660511
0.00606342
0.00784457
0.00720123
0.00918962
0.0085177
0.0103419
0.0098155
0.010907
0.0107161
0.0108218
0.0109255
0.0104706
0.0106597
0.00995405
0.0102433
0.00932314
0.0096262
0.00896807
0.00910023
0.00887693
0.00830091
0.00952108
0.00891605
0.0106964
0.0101148
0.0117648
0.0112465
0.0126678
0.0122385
0.0133674
0.0130447
0.0138381
0.013632
0.0140669
0.013984
0.0140423
0.0140869
0.0137431
0.013929
0.0131208
0.0134765
0.0120911
0.0126633
0.0105287
0.0113857
0.00826397
0.00949595
0.00508403
0.00680268
0.000737815
0.00307281
-0.00504968
-0.00195929
-0.0125464
-0.00857025
-0.021961
-0.0170065
-0.0333424
-0.0274148
-0.0464113
-0.0397007
-0.0604253
-0.0533707
-0.0738672
-0.0673561
-0.0842715
-0.0796114
-0.0892378
-0.0875674
-0.0862505
-0.0889189
-0.0731898
-0.0809884
-0.052383
-0.0634817
-0.0284853
-0.0406067
-0.00418608
-0.0160551
0.0148114
0.00617094
0.0242345
0.020882
0.025244
-0.091282
-0.0619907
-0.1184
-0.0788205
-0.132019
-0.105129
-0.12635
-0.137217
-0.0990589
-0.170818
-0.0539445
-0.00176485
0.0458665
0.0793041
0.0940388
0.0887402
0.0734619
0.0509122
0.0122067
0.0265134
0.000455486
0.00257799
-0.00814223
-0.212971
-0.187009
-0.195454
-0.222327
-0.27728
-0.26207
-0.243335
-0.249778
-0.271254
-0.283534
-0.285252
0.00387714
0.00363228
0.00792025
0.00739184
0.00770404
0.00344508
0.00355595
-0.0765246
-0.163443
-0.176478
-0.13482
-0.149358
-0.104965
-0.119831
-0.0764463
-0.0904907
-0.0500392
-0.0629197
-0.0264367
-0.0378618
-0.00601313
-0.0158053
0.0110013
0.00292399
0.0246319
0.0182346
0.0349669
0.0302085
0.0420589
0.0389171
0.0459523
0.0444021
0.0467702
0.0467339
0.0447799
0.0461029
0.0404547
0.0428712
0.0344935
0.0376277
0.0277551
0.0311651
0.0211178
0.0243731
0.0153073
0.0180727
0.010735
0.0128479
0.00753764
0.00896891
0.00556334
0.00641352
0.00452582
0.00494708
0.00411387
0.00425976
0.0040582
0.0040556
0.0041578
0.00409828
0.00427949
0.00422177
0.00434528
0.00432241
0.00431772
0.00434415
0.00418895
0.00426506
0.00396723
0.00409082
0.00380667
0.00457025
0.00421446
0.00543278
0.00497568
0.0064911
0.00593635
0.00774624
0.00709691
0.00908467
0.00842008
0.0101834
0.00969165
0.0106198
0.010504
0.0103145
0.0105402
0.00966526
0.0100089
0.00890267
0.00929466
0.00824228
0.0085301
0.00803611
0.00808243
0.00801828
0.00803898
0.00791481
0.00896135
0.00844126
0.00994842
0.0094621
0.0108394
0.010408
0.0115849
0.0112321
0.0121516
0.0118919
0.0125168
0.0123601
0.0126661
0.0126182
0.0125834
0.0126549
0.0122409
0.0124468
0.0115895
0.0119578
0.0105502
0.0111242
0.00901095
0.00985102
0.00682594
0.00800911
0.00381804
0.00543642
-0.000213426
0.00194267
-0.00547635
-0.00267921
-0.012155
-0.00863016
-0.0203616
-0.0160659
-0.0300496
-0.0250339
-0.0408927
-0.035361
-0.0521909
-0.0465479
-0.0626582
-0.0576375
-0.0704287
-0.0669979
-0.0737033
-0.0727347
-0.0705816
-0.0730627
-0.059906
-0.0661439
-0.0436073
-0.0522408
-0.0247846
-0.0343556
-0.00616564
-0.0151826
0.0079098
0.00163589
0.014571
0.0123441
0.0115623
0.0141304
0.00677439
-0.111267
-0.0896366
0.00713038
0.0068842
-0.137272
-0.113962
-0.14733
-0.146605
-0.135341
-0.183375
-0.0996201
-0.219324
-0.0460667
0.0119896
0.0617551
0.0923604
0.100807
0.0904166
0.0688042
0.0425475
0.0153904
-0.0185797
-0.0255992
-0.0308473
-0.0361884
-0.183624
-0.20164
-0.00965591
-0.205281
-0.228727
-0.301747
-0.279207
-0.25436
-0.300556
-0.318005
-0.324116
-0.317536
0.00324675
-0.100958
-0.178206
-0.181972
-0.165154
-0.172665
-0.14523
-0.155942
-0.121114
-0.133329
-0.0963862
-0.10878
-0.0717874
-0.0840135
-0.0484172
-0.0598709
-0.0272608
-0.0375259
-0.00876426
-0.0176604
0.00683517
-0.000593934
0.0194812
0.0135269
0.0292022
0.0247064
0.0360312
0.0329767
0.0400227
0.0383773
0.0413007
0.0409896
0.0401123
0.0409943
0.0368658
0.0387144
0.0321417
0.0346468
0.0266419
0.0294428
0.0210823
0.0238279
0.0160967
0.0184797
0.0119654
0.013892
0.00891934
0.0103094
0.00686437
0.00777813
0.00560738
0.00615011
0.00491905
0.00520606
0.00458706
0.00472008
0.00444268
0.0044999
0.00436629
0.00440153
0.00428179
0.00432817
0.00414712
0.00422182
0.00394551
0.00405343
0.00367888
0.00381701
0.00333964
0.0035078
0.00294683
0.00315038
0.00303403
0.0036648
0.0033393
0.00438376
0.00401262
0.00526113
0.00480046
0.00632737
0.00576854
0.0075848
0.00693599
0.00890127
0.0082522
0.00992825
0.00948026
0.0102232
0.0101874
0.00970474
0.0100458
0.00879202
0.00926924
0.0078391
0.00830494
0.00719635
0.00744863
0.00715507
0.00710902
0.00730935
0.00724855
0.00727642
0.0065465
0.00744769
0.0069985
0.00833061
0.0078927
0.00915858
0.00875295
0.00989658
0.00954083
0.0105062
0.0102191
0.0109583
0.0107531
0.0112323
0.0111184
0.0113114
0.0112969
0.011176
0.0112719
0.0107953
0.0110187
0.0101203
0.0104983
0.0090779
0.00965029
0.00756921
0.00838872
0.00546974
0.00660159
0.00263377
0.00415306
-0.00109663
0.000889738
-0.00587452
-0.00334664
-0.0118191
-0.00869661
-0.0189722
-0.0152474
-0.0272275
-0.0229777
-0.0362438
-0.0316729
-0.045376
-0.0408512
-0.0535434
-0.0496656
-0.0593311
-0.0568211
-0.0613818
-0.0609055
-0.058354
-0.0605751
-0.0496768
-0.0546713
-0.0368737
-0.0436583
-0.0221595
-0.0296194
-0.00807447
-0.0148325
0.00215266
-0.00231349
0.00621953
0.00508773
0.00241759
0.00532408
-0.00847944
-0.00223201
-0.0161103
0.00273868
-0.136061
-0.122775
-0.160069
-0.154967
-0.165367
-0.193909
-0.145905
-0.234717
-0.101066
-0.271876
-0.0392978
0.0239533
0.073795
0.100301
0.102479
0.0859018
0.0595889
0.0297117
0.00125411
-0.0240496
-0.0477556
-0.044534
-0.163881
-0.163626
-0.183283
-0.0497036
-0.0600268
-0.0600605
-0.206584
-0.232756
-0.322192
-0.292355
-0.261816
-0.352043
-0.363962
-0.361842
-0.346904
0.00264695
0.00614784
0.00576392
0.00244397
0.00612141
-0.130579
-0.158419
-0.162113
-0.146527
-0.153125
-0.130026
-0.138728
-0.110105
-0.120252
-0.0890477
-0.0996963
-0.0675301
-0.0782679
-0.0468419
-0.0570089
-0.0279087
-0.037121
-0.0111712
-0.0192456
0.00311215
-0.00371127
0.0148264
0.00929364
0.0239525
0.0197135
0.0305059
0.0275494
0.03454
0.0328333
0.0361753
0.035647
0.0356359
0.0361593
0.0332746
0.034656
0.0295762
0.0315582
0.0251164
0.027404
0.0204784
0.0227861
0.016138
0.0182498
0.0125274
0.014248
0.0096906
0.0110055
0.00764717
0.00857526
0.00627663
0.00688751
0.00541312
0.00579207
0.00489127
0.00511885
0.00457142
0.00471339
0.00434851
0.00445295
0.00415101
0.00424976
0.00393538
0.00404702
0.00367964
0.00381265
0.00337713
0.00353287
0.00303305
0.00320844
0.00284717
0.00281252
0.00222798
0.0025182
0.00345188
0.00312365
0.00418201
0.00380107
0.00506102
0.00460098
0.00612631
0.00556807
0.00737467
0.00673251
0.00865346
0.00802834
0.00958991
0.00919517
0.00972979
0.00977923
0.00900373
0.00945402
0.00786406
0.00845245
0.0067808
0.00728945
0.00620312
0.00640023
0.00633017
0.00619691
0.00664573
0.00650862
0.00659854
0.00667878
0.00640922
0.00691243
0.00652713
0.00765614
0.00728662
0.0083447
0.00800716
0.00895105
0.00865966
0.00944319
0.00921274
0.00979582
0.00963798
0.00998931
0.00991338
0.0100055
0.0100205
0.00982214
0.00994024
0.0094071
0.00964595
0.00871265
0.00909827
0.00767221
0.00824038
0.00619891
0.00699554
0.00418752
0.00526729
0.00151945
0.00294283
-0.00192742
-9.97721e-05
-0.00626201
-0.00397868
-0.0115536
-0.00878691
-0.0177945
-0.0145609
-0.024843
-0.0212342
-0.0323646
-0.0285744
-0.0397812
-0.036134
-0.0462002
-0.0431818
-0.0505386
-0.0486947
-0.0517652
-0.0516018
-0.0489697
-0.0509089
-0.0419628
-0.0459478
-0.0319017
-0.0372151
-0.0205352
-0.0262824
-0.00997482
-0.0149926
-0.00267331
-0.00578226
-0.000545993
-0.000872391
-0.00472786
-0.00183291
-0.0151408
-0.0091411
-0.0306383
-0.022537
-0.0397937
-0.165338
-0.16152
0.00570546
0.00539158
-0.186094
-0.201632
-0.185181
-0.246369
-0.157041
-0.290075
-0.102645
-0.326853
-0.0330884
0.0336504
0.0820363
0.102205
0.0980775
0.0757449
0.0450735
0.0132457
-0.0158212
-0.0404295
-0.161272
-0.144745
-0.141705
-0.156508
-0.0593363
-0.180346
-0.0707376
-0.0728031
-0.205589
-0.233727
-0.0682481
-0.081475
-0.0772133
-0.337833
-0.301356
-0.265731
-0.401844
-0.406295
-0.395253
-0.371119
0.00193985
0.00201824
0.0017402
-0.165307
-0.146456
-0.146449
-0.141228
-0.144625
-0.13114
-0.13665
-0.117419
-0.124738
-0.100756
-0.109357
-0.0824827
-0.091763
-0.063632
-0.0730543
-0.0453443
-0.0543583
-0.0284031
-0.0366716
-0.0132572
-0.0205844
-0.00018965
-0.00645041
0.0106477
0.00551349
0.0192016
0.0152119
0.0254709
0.022621
0.0295024
0.0277619
0.0314084
0.0307115
0.0313891
0.0316235
0.0297494
0.0307489
0.0268965
0.0284461
0.0233061
0.0251627
0.0194597
0.0213866
0.0157723
0.0175747
0.0125729
0.0141048
0.0099738
0.0111928
0.00800685
0.00891386
0.00660178
0.00724062
0.00564137
0.0060739
0.00499861
0.00528777
0.00455955
0.00475979
0.0042336
0.00438701
0.00395541
0.00409163
0.00368225
0.00382005
0.00338961
0.00353934
0.00306742
0.00323267
0.00272155
0.00289879
0.002346
0.00253998
0.00215018
0.00259189
0.00230256
0.00322567
0.00289362
0.00396238
0.00357922
0.00483705
0.004379
0.00589707
0.00534224
0.0071265
0.00649655
0.00835276
0.00775963
0.00918024
0.00884813
0.00915172
0.00929156
0.00822554
0.00877773
0.00689992
0.00757451
0.00574936
0.00626904
0.00527844
0.00540476
0.00557506
0.00535778
0.00603479
0.00583028
0.00609862
0.00612538
0.00594795
0.00502503
0.00568328
0.00535387
0.00632797
0.00600507
0.00694975
0.00664329
0.00751991
0.00724242
0.00801284
0.00777746
0.00840282
0.00822193
0.008668
0.00855202
0.00878952
0.00874764
0.00874829
0.00879036
0.00852077
0.00865941
0.00807444
0.00832726
0.00736395
0.00775541
0.00632898
0.00689116
0.00489397
0.00566646
0.00297066
0.0039989
0.000463714
0.00179575
-0.00271939
-0.00103846
-0.00665258
-0.00458939
-0.011368
-0.0089134
-0.0168239
-0.0140104
-0.0228615
-0.0197861
-0.0291642
-0.0260065
-0.0352236
-0.0322648
-0.0403133
-0.0379411
-0.0436043
-0.042233
-0.0443192
-0.0443278
-0.041851
-0.0435018
-0.0362242
-0.0393916
-0.0283755
-0.0324926
-0.0196519
-0.0240203
-0.0118197
-0.0155032
-0.00674396
-0.00883186
-0.00597912
-0.0057493
-0.0103429
-0.00751447
-0.019805
-0.0144513
-0.0336691
-0.0263335
-0.0503428
-0.0417519
-0.0592198
-0.198558
-0.205543
-0.214445
-0.253154
-0.205684
-0.302599
-0.167774
-0.3475
-0.103631
-0.38183
-0.0273704
0.0408689
0.0860645
0.099842
0.0879453
0.0597982
0.0260847
-0.00668902
-0.136493
-0.123773
-0.118833
-0.130241
-0.0352024
-0.150664
-0.05827
-0.174763
-0.0749625
-0.201997
-0.0858774
-0.23203
-0.0859165
-0.0920486
-0.347668
-0.305323
-0.266464
-0.446928
-0.442569
-0.4222
-0.388887
0.00181198
0.00165016
0.00460752
-0.0941995
-0.0802258
-0.0869585
0.00431441
0.00468744
0.00145755
0.00153896
-0.20472
-0.130111
-0.127783
-0.130927
-0.131165
-0.126634
-0.129335
-0.118274
-0.122838
-0.106812
-0.11294
-0.0925612
-0.0999751
-0.0766325
-0.0847339
-0.060119