/*--------------------------------*- C++ -*----------------------------------*\
  =========                 |
  \\      /  F ield         | OpenFOAM: The Open Source CFD Toolbox
   \\    /   O peration     | Website:  https://openfoam.org
    \\  /    A nd           | Version:  10
     \\/     M anipulation  |
\*---------------------------------------------------------------------------*/
FoamFile
{
    format      ascii;
    class       volVectorField;
    location    "14";
    object      U;
}
// * * * * * * * * * * * * * * * * * * * * * * * * * * * * * * * * * * * * * //

dimensions      [0 1 -1 0 0 0 0];

internalField   nonuniform List<vector> 
14667
(
(1.03748 0.0666466 -1.08541e-19)
(0.887671 0.0444858 -4.51015e-20)
(0.554256 0.0244742 -3.11389e-21)
(0.672444 0.021445 4.73097e-22)
(0.656645 0.0229442 9.26459e-22)
(0.991041 -0.0891769 -2.76603e-20)
(1.03294 -0.0818658 6.08362e-20)
(0.436062 0.0371768 -1.43848e-21)
(0.52185 0.0268789 0)
(0.645585 0.0255376 -2.75489e-22)
(1.03701 -0.0666828 -2.6344e-20)
(1.02545 -0.0392976 1.41579e-20)
(0.986106 -0.0231227 -3.53422e-20)
(0.886379 -0.0751944 1.04627e-19)
(0.483768 0.0224451 -2.30336e-21)
(1.01838 -0.030588 0)
(1.01869 -0.0290027 0)
(0.596517 0.0106389 -8.52558e-22)
(0.354829 0.0131384 0)
(1.04002 -0.0580906 0)
(1.05598 0.0850089 -7.71584e-20)
(0.885568 -0.00308421 5.67562e-20)
(0.997403 0.0158872 0)
(1.00134 0.0404825 3.64544e-21)
(-0.0159969 -0.122569 5.96726e-20)
(0.325409 -0.112651 2.00901e-19)
(-0.0471318 -0.0593497 6.16429e-20)
(-0.12853 -0.130217 -2.38592e-19)
(-0.12173 -0.147726 4.37862e-21)
(0.805584 0.0685072 1.60918e-20)
(0.85708 0.0418569 -1.5029e-21)
(0.871865 0.0145336 -4.50387e-20)
(-0.0271268 -0.0291461 1.34248e-20)
(-0.0602865 -0.0166898 7.12364e-20)
(-0.145608 -0.0102966 7.73383e-20)
(0.0245508 -0.00929719 -1.17485e-19)
(0.0354743 0.0277576 -1.67115e-21)
(0.458229 -0.0539363 1.45926e-21)
(0.454803 -0.0319491 1.02627e-21)
(0.58554 -0.0198168 -1.66595e-22)
(0.57401 -0.0150862 0)
(0.46751 0.00880529 -1.45748e-20)
(0.547988 -0.225371 5.19356e-19)
(0.606559 -0.105774 -1.70444e-19)
(0.427346 -0.0740333 -1.19383e-19)
(0.349002 -0.284643 8.01996e-20)
(0.576548 -0.448083 -8.92721e-21)
(0.830458 0.0764106 -4.06641e-20)
(0.839583 0.0849234 1.37015e-20)
(0.46091 0.0607021 0)
(0.465543 0.0421374 0)
(0.732544 0.00738114 0)
(0.792524 -0.0110176 0)
(0.849762 -0.00964078 -7.85756e-20)
(1.38603 -0.295942 2.33858e-20)
(1.42416 -0.272068 1.39971e-20)
(1.28211 0.230252 3.26978e-20)
(1.34793 0.226358 2.01335e-20)
(0.0468871 -0.0211586 -2.1941e-20)
(0.195621 -0.0291349 1.85284e-20)
(-0.100262 -0.0826373 1.79117e-19)
(-0.0971578 -0.0968816 0)
(0.988386 -0.493943 -5.97353e-21)
(1.00315 -0.413776 -5.50837e-20)
(0.924234 -0.366742 -4.80505e-21)
(0.866577 -0.638489 -8.75107e-21)
(0.945754 -0.566593 4.60534e-20)
(0.470839 0.661594 5.97326e-20)
(0.771941 0.692118 -2.86994e-20)
(0.901614 0.0225056 4.03114e-20)
(0.92036 0.00683715 -3.69389e-20)
(0.924572 0.0315651 -4.04594e-20)
(0.143347 -0.0377483 0)
(0.144235 -0.271069 4.01548e-20)
(0.449895 0.0956118 1.52423e-20)
(0.628502 0.128561 2.13127e-20)
(0.82507 0.110611 -7.08711e-20)
(0.757743 0.104628 4.43066e-20)
(0.910091 -0.0114933 2.11873e-19)
(0.895563 -0.0435419 8.15281e-24)
(0.66841 -0.0118705 -7.41024e-22)
(0.745724 -0.0106768 0)
(0.677886 -0.0147835 1.35175e-21)
(0.858693 0.0197577 -2.13919e-22)
(0.857505 0.0208398 0)
(-0.063192 -0.131975 0)
(-0.151588 -0.124944 -9.94787e-20)
(0.19752 0.0117482 9.69775e-21)
(0.431113 0.00770629 -5.33308e-20)
(1.02598 -0.182273 -3.87065e-20)
(1.22788 -0.19574 5.3771e-20)
(1.25503 -0.423533 3.35456e-21)
(1.21279 -0.40748 -5.96024e-21)
(0.878354 -0.00193677 -2.77056e-22)
(0.911297 -0.0252602 2.18291e-23)
(0.773404 0.286548 4.26347e-21)
(0.703553 0.246406 2.45372e-21)
(0.742693 0.00330239 3.30347e-21)
(0.633067 -0.057007 -5.28737e-21)
(0.739044 -0.101464 7.90881e-21)
(0.61724 -0.164403 -2.87444e-21)
(1.4582 -0.339841 5.9271e-21)
(1.45744 -0.276838 4.27943e-20)
(0.929666 0.116782 7.11012e-21)
(0.909521 0.0907397 -2.51807e-20)
(0.936002 0.0750765 3.28344e-21)
(0.955524 0.0974172 3.15876e-21)
(0.956733 0.158947 2.19317e-20)
(0.947998 0.13159 4.64149e-22)
(0.39195 -0.0149782 5.19738e-22)
(0.237326 -0.00963017 -6.89776e-23)
(0.257814 -0.00498608 -8.9034e-22)
(0.414783 -0.0088949 0)
(0.511653 -0.0232655 1.25475e-21)
(0.526022 -0.0155369 -5.14908e-22)
(1.2464 -0.126473 -1.36059e-20)
(1.2683 -0.140705 3.43497e-20)
(1.25554 -0.126773 0)
(0.351417 -0.0331154 -1.14532e-21)
(0.268932 -0.031206 -4.38812e-22)
(0.403956 -0.0241881 -1.91741e-22)
(0.858427 0.029036 1.20899e-22)
(0.886377 0.00529883 -5.15501e-23)
(0.858868 0.042163 1.00726e-22)
(0.84333 0.0732276 -2.80389e-22)
(0.828359 0.09612 0)
(0.840642 0.0631837 -1.21633e-22)
(0.827515 0.103202 9.47205e-22)
(0.815385 0.134712 -5.53967e-22)
(0.815792 0.149908 0)
(0.820427 0.12238 0)
(0.811198 0.159821 0)
(0.811425 0.18256 1.5225e-21)
(0.830139 0.188032 0)
(0.82117 0.169989 0)
(0.818151 0.200599 -1.52978e-21)
(0.828389 0.215989 0)
(0.860954 0.214762 0)
(0.844915 0.201943 0)
(0.841223 0.229224 2.35217e-21)
(0.854098 0.242042 -2.33543e-21)
(0.891223 0.241001 0)
(0.877376 0.227202 0)
(0.865334 0.255272 0)
(0.873607 0.269601 -2.64642e-21)
(0.908055 0.273603 -6.44026e-25)
(0.901724 0.256486 0)
(0.878112 0.284852 2.66372e-21)
(0.878772 0.30049 0)
(0.909397 0.309303 0)
(0.910552 0.291543 0)
(0.875358 0.315349 -2.43782e-24)
(0.867744 0.328125 0)
(0.897093 0.339893 0)
(0.90489 0.325777 0)
(0.852706 0.33862 -2.20584e-21)
(0.829409 0.342182 1.94238e-21)
(0.87221 0.358183 4.06491e-23)
(0.886218 0.350818 0)
(0.806821 0.338717 0)
(0.786792 0.332536 0)
(0.838475 0.35778 -3.66932e-22)
(0.856015 0.360209 -4.37776e-23)
(0.755162 0.314783 1.66762e-22)
(0.724617 0.290336 7.92849e-22)
(0.782601 0.324001 -1.2103e-21)
(0.81023 0.344666 4.80284e-22)
(0.74754 0.292585 2.74756e-21)
(0.68411 0.253505 -1.86341e-21)
(0.900543 -0.0309698 1.46652e-23)
(0.935776 -0.0534266 -1.28297e-23)
(0.638975 0.203244 -3.27621e-24)
(0.872793 -0.0111676 -1.7691e-22)
(0.890881 -0.0367521 3.21687e-22)
(0.923079 -0.057488 -3.94492e-24)
(0.952499 -0.0515914 0)
(0.980755 -0.0798121 -9.95322e-23)
(0.627915 0.212876 -1.0272e-22)
(0.703178 0.282308 -1.98853e-22)
(0.667948 0.252329 1.13984e-22)
(0.765182 0.316442 -5.95994e-22)
(0.737589 0.304799 6.20156e-22)
(0.8208 0.325673 0)
(0.790304 0.323656 0)
(0.841812 0.307852 2.50399e-24)
(0.833785 0.31804 0)
(0.844213 0.284073 -1.29255e-24)
(0.845215 0.296175 0)
(0.83063 0.26127 0)
(0.839103 0.272405 0)
(0.809588 0.23802 -1.87576e-24)
(0.820096 0.250219 0)
(0.796941 0.20485 -2.71298e-25)
(0.801086 0.223409 0)
(0.806047 0.153663 0)
(0.798245 0.181824 0)
(0.839329 0.0862948 -2.78344e-25)
(0.820417 0.121679 0)
(0.890232 0.0158658 0)
(0.865922 0.0498406 0)
(0.924739 -0.02115 -1.09797e-22)
(1.00721 -0.103958 3.26396e-24)
(0.962552 -0.0802901 -3.36685e-24)
(0.842186 0.0446288 1.1636e-22)
(0.856334 0.015901 0)
(0.830819 0.0958614 1.41072e-23)
(0.833723 0.0722734 9.78087e-23)
(0.839861 0.136836 0)
(0.832357 0.11763 5.79775e-24)
(0.869122 0.166252 0)
(0.853004 0.152369 0)
(0.903395 0.192764 0)
(0.886807 0.17903 0)
(0.928718 0.225688 0)
(0.917717 0.208102 0)
(0.941647 0.265725 0)
(0.936588 0.245089 0)
(0.945127 0.307505 0)
(0.944452 0.286756 0)
(0.939454 0.345626 0)
(0.943565 0.327338 0)
(0.922545 0.373186 -3.0096e-23)
(0.932541 0.361433 0)
(0.892091 0.380078 7.68392e-23)
(0.909093 0.379787 -1.4233e-22)
(0.845666 0.356441 -1.43816e-21)
(0.870409 0.372616 0)
(0.813575 0.328389 -4.60508e-21)
(0.945978 -0.0806947 8.25252e-23)
(0.910611 -0.0602472 1.27607e-24)
(0.581733 0.159014 7.33843e-22)
(0.654302 0.186897 -1.98587e-21)
(1.05413 -0.125948 0)
(1.07413 -0.14206 1.08573e-23)
(1.03113 -0.12367 -6.86378e-24)
(0.726859 0.231102 0)
(0.576645 0.171039 2.21476e-22)
(0.654393 0.2494 2.74656e-22)
(0.617786 0.215165 0)
(0.718692 0.291893 1.15027e-21)
(0.690354 0.275964 -9.45207e-22)
(0.769251 0.307706 0)
(0.747881 0.303777 -4.90848e-22)
(0.792316 0.301511 -2.69431e-24)
(0.78365 0.306228 0)
(0.794921 0.287658 5.8209e-26)
(0.795778 0.295039 0)
(0.78537 0.270432 9.64763e-25)
(0.790894 0.279621 0)
(0.778028 0.244381 2.51945e-25)
(0.780346 0.259118 0)
(0.7883 0.200732 -3.11829e-25)
(0.780249 0.22517 0)
(0.823086 0.137184 0)
(0.802757 0.17126 0)
(0.877766 0.0613952 -2.88961e-25)
(0.848954 0.100191 0)
(0.939879 -0.0132874 0)
(0.909455 0.0229531 0)
(1.00143 -0.0781019 4.08998e-24)
(0.973064 -0.0482754 -1.0762e-23)
(1.02932 -0.104438 1.91472e-22)
(0.986954 -0.102316 1.88311e-25)
(0.884771 -0.0423563 -4.81174e-23)
(0.857717 0.00418196 -2.72574e-22)
(0.87061 -0.0200775 -1.5033e-22)
(0.843507 0.0519896 -7.21249e-23)
(0.848599 0.0281807 8.36592e-23)
(0.850429 0.0925669 -5.00987e-25)
(0.844524 0.0740591 -6.31827e-24)
(0.876042 0.123503 0)
(0.861194 0.109172 0)
(0.910474 0.149606 0)
(0.893018 0.136537 0)
(0.940232 0.179966 0)
(0.926575 0.163747 0)
(0.959364 0.218744 0)
(0.951077 0.198371 0)
(0.970649 0.262731 0)
(0.965714 0.240403 0)
(0.977081 0.307344 0)
(0.974463 0.285175 0)
(0.977745 0.349233 0)
(0.978285 0.328858 0)
(0.969747 0.383013 0)
(0.975089 0.367691 0)
(0.948383 0.39863 1.2518e-22)
(0.960927 0.393761 -1.22577e-22)
(0.910624 0.383808 2.34674e-21)
(0.932357 0.395939 0)
(0.848129 0.324381 -2.48394e-21)
(0.880681 0.359508 3.53685e-21)
(0.678363 0.165583 -3.49118e-21)
(0.763709 0.215168 2.39765e-21)
(0.805109 0.274336 -8.96558e-22)
(0.533858 0.11681 5.77261e-23)
(0.589984 0.141847 -1.39092e-21)
(0.601693 0.115703 -4.91579e-22)
(1.05059 -0.138492 2.50122e-23)
(0.627121 0.0912301 0)
(0.713148 0.143779 -4.2701e-21)
(1.09088 -0.154049 1.70182e-23)
(0.874298 -0.0298893 0)
(1.09869 -0.145182 -6.12144e-23)
(1.11458 -0.15764 1.27914e-23)
(0.88498 -0.048802 0)
(0.900419 -0.0625135 7.2381e-23)
(0.490077 0.0534167 3.4966e-22)
(0.534393 0.0962683 0)
(0.459306 0.0158735 2.14246e-22)
(0.5337 0.132068 -1.99479e-22)
(0.495702 0.0775283 -1.66552e-22)
(0.606873 0.215734 2.52413e-23)
(0.570865 0.177596 -2.69249e-22)
(0.669153 0.266311 1.26346e-23)
(0.639979 0.245003 -1.1022e-23)
(0.714599 0.290676 0)
(0.694392 0.2814 -8.42421e-23)
(0.739449 0.295822 -6.04197e-26)
(0.729589 0.295086 0)
(0.747842 0.289578 1.23937e-24)
(0.745064 0.293867 0)
(0.752126 0.272603 -9.64763e-25)
(0.749523 0.282733 0)
(0.767605 0.238793 2.60348e-25)
(0.75762 0.258252 0)
(0.804328 0.183246 -3.04693e-25)
(0.78312 0.213773 0)
(0.861548 0.109257 0)
(0.830919 0.14802 0)
(0.929594 0.0279848 4.24612e-25)
(0.895208 0.0686791 0)
(0.996508 -0.0467112 0)
(0.964455 -0.0112919 0)
(1.05414 -0.105398 -2.29531e-23)
(1.02761 -0.0786638 8.64271e-23)
(1.07822 -0.127745 1.74678e-23)
(0.965644 -0.0994387 8.86026e-23)
(1.00751 -0.119562 0)
(0.92855 -0.079761 -3.42592e-23)
(0.860748 0.0106961 1.82817e-22)
(0.866001 -0.00978193 0)
(0.863713 0.0491731 0)
(0.859962 0.0303571 0)
(0.884688 0.0804873 5.01014e-25)
(0.872358 0.0658133 0)
(0.916456 0.106376 0)
(0.899936 0.0937446 0)
(0.947218 0.134113 0)
(0.932632 0.119514 0)
(0.969283 0.169579 0)
(0.959444 0.150759 0)
(0.983765 0.212157 0)
(0.977168 0.190221 0)
(0.995167 0.257898 5.98921e-25)
(0.989659 0.234843 0)
(1.00506 0.30416 4.63099e-25)
(1.00035 0.28107 0)
(1.01209 0.348861 0)
(1.00908 0.326902 0)
(1.01328 0.387329 0)
(1.01369 0.369335 0)
(1.00346 0.41049 0)
(1.01018 0.401572 0)
(0.975841 0.405182 4.32949e-22)
(0.992495 0.412324 0)
(0.926426 0.358447 0)
(0.953235 0.387519 -2.1116e-21)
(0.853173 0.261424 4.86356e-21)
(0.890423 0.315845 -9.47972e-22)
(0.754052 0.116831 -2.6578e-21)
(0.806941 0.194432 0)
(0.537786 0.0679355 -2.13291e-21)
(0.446896 -0.0197088 -1.7596e-22)
(0.427696 -0.0517268 -2.80088e-22)
(0.915456 -0.0798305 0)
(0.896212 -0.0656359 8.75397e-23)
(0.551267 0.0393299 4.16135e-21)
(0.658734 0.0630492 2.23054e-21)
(0.572596 0.00951086 0)
(0.598489 -0.0242916 0)
(1.12717 -0.166059 7.69894e-24)
(0.696206 0.0322241 2.67297e-21)
(0.485424 0.0216561 -4.96728e-22)
(0.402999 -0.120584 2.90548e-22)
(0.433741 -0.125338 1.0015e-21)
(0.45334 -0.0101953 -2.24748e-22)
(0.438016 -0.0692261 5.64278e-22)
(0.504855 0.0986209 -4.11273e-22)
(0.476675 0.0463249 6.83688e-22)
(0.565432 0.183495 3.04906e-24)
(0.534705 0.144014 0)
(0.621628 0.240984 -1.60171e-24)
(0.59482 0.21575 0)
(0.66534 0.273863 0)
(0.645283 0.260235 0)
(0.695016 0.286984 -8.68817e-26)
(0.681754 0.282559 0)
(0.716814 0.283899 0)
(0.706212 0.287465 0)
(0.742889 0.26272 6.20739e-25)
(0.728499 0.275855 0)
(0.784457 0.219214 3.29093e-25)
(0.761309 0.24393 0)
(0.844722 0.153406 1.32993e-25)
(0.812478 0.188788 0)
(0.917497 0.0732671 0)
(0.880251 0.114364 0)
(0.991537 -0.00789573 8.15037e-25)
(0.955211 0.0319237 0)
(1.05626 -0.0775119 0)
(1.02584 -0.0448282 -4.78641e-29)
(1.1056 -0.128379 -7.36846e-24)
(1.08355 -0.105638 0)
(1.13879 -0.159403 1.97155e-23)
(1.12431 -0.146305 -5.06635e-23)
(1.15773 -0.173258 -5.40936e-24)
(1.14993 -0.168236 -2.10472e-23)
(1.13708 -0.170667 2.522e-23)
(1.06767 -0.149417 -6.81512e-24)
(1.1051 -0.161973 -2.23878e-23)
(0.985132 -0.115255 0)
(1.02662 -0.133311 0)
(0.946743 -0.0969121 -5.40418e-23)
(0.893771 -0.0559675 -2.32926e-22)
(0.881915 -0.0237814 -5.26665e-23)
(0.886805 -0.0403549 -1.02059e-22)
(0.88235 0.0094867 0)
(0.880139 -0.00701693 -5.78217e-23)
(0.898086 0.0395343 0)
(0.888427 0.0250609 0)
(0.924994 0.0652875 0)
(0.910708 0.0527587 0)
(0.953775 0.0911987 0)
(0.939808 0.0778279 0)
(0.976244 0.123008 0)
(0.966061 0.106134 0)
(0.991354 0.162268 0)
(0.984504 0.141828 0)
(1.00337 0.206186 0)
(0.997461 0.183866 0)
(1.01576 0.251987 -5.98921e-25)
(1.00944 0.228943 0)
(1.02901 0.298585 -4.63099e-25)
(1.02233 0.275236 0)
(1.04202 0.344646 0)
(1.03566 0.321839 0)
(1.05227 0.386404 0)
(1.04774 0.366442 0)
(1.05478 0.415935 0)
(1.05493 0.403392 0)
(1.04194 0.420972 -4.22588e-22)
(1.05077 0.42237 0)
(1.00656 0.386537 0)
(1.02755 0.409594 0)
(0.94477 0.301711 0)
(0.978943 0.350784 9.22999e-22)
(0.855354 0.167971 -5.69001e-21)
(0.904567 0.240727 -2.58418e-21)
(0.803914 0.0891219 6.12142e-21)
(1.16265 -0.174922 -6.43792e-23)
(0.488314 -0.0103338 4.97481e-22)
(0.408496 -0.0957287 3.70824e-22)
(0.497586 -0.0430701 -1.42399e-21)
(0.44578 -0.176157 -6.34315e-22)
(0.390627 -0.186955 0)
(0.512314 -0.0793375 2.02622e-21)
(0.909508 -0.0511575 4.41228e-22)
(0.913908 -0.0637115 -1.11281e-22)
(0.902295 -0.0701632 2.39434e-22)
(0.534163 -0.116671 5.25225e-21)
(0.571665 -0.143812 -2.50599e-21)
(1.18166 -0.176105 0)
(1.18189 -0.175338 0)
(0.683087 -0.0811368 6.352e-21)
(0.439686 -0.0567135 1.81251e-22)
(0.474725 -0.216546 -1.2532e-23)
(0.590396 -0.166437 1.25147e-23)
(0.509927 -0.107116 1.10591e-22)
(0.543702 -0.141054 0)
(0.486275 -0.0194939 -4.48128e-22)
(0.491564 -0.0657571 0)
(0.505855 0.0750824 0)
(0.492195 0.0283792 1.00357e-22)
(0.547364 0.156819 0)
(0.524983 0.118182 0)
(0.59446 0.217368 0)
(0.571038 0.190042 0)
(0.637699 0.255093 -2.09e-24)
(0.616793 0.238998 0)
(0.6762 0.271675 3.14595e-24)
(0.65731 0.265929 0)
(0.715833 0.26733 0)
(0.695336 0.272238 0)
(0.765211 0.239675 -1.66771e-25)
(0.73884 0.256573 0)
(0.82946 0.187544 1.43776e-25)
(0.795462 0.216554 0)
(0.906012 0.115417 -6.16818e-25)
(0.866682 0.153417 0)
(0.985816 0.0342426 0)
(0.946232 0.0751105 0)
(1.05803 -0.0425396 -8.15037e-25)
(1.02352 -0.0054816 0)
(1.11466 -0.104268 0)
(1.08867 -0.0757454 4.7864e-29)
(1.15257 -0.146142 0)
(1.1361 -0.127783 0)
(1.17345 -0.168785 -3.04392e-23)
(1.16497 -0.159681 0)
(1.17892 -0.174094 3.01926e-23)
(1.14261 -0.17199 0)
(1.17986 -0.172616 -2.19764e-23)
(1.16431 -0.17398 3.41536e-23)
(1.081 -0.15633 -2.70127e-23)
(1.11458 -0.165993 2.19339e-23)
(1.00249 -0.127409 0)
(1.04265 -0.143067 0)
(0.931243 -0.0949092 0)
(0.964109 -0.110893 0)
(0.908845 -0.080842 -2.77637e-22)
(0.907271 -0.0241223 0)
(0.907021 -0.0378601 0)
(0.918093 0.00246786 0)
(0.911224 -0.0106654 0)
(0.938804 0.0271939 -6.02298e-25)
(0.92753 0.0150379 0)
(0.963087 0.0517267 0)
(0.951032 0.0392126 0)
(0.98363 0.080416 0)
(0.974168 0.0653026 0)
(0.997704 0.115828 0)
(0.991401 0.0972832 0)
(1.00817 0.156679 0)
(1.0031 0.13576 0)
(1.01918 0.200198 0)
(1.01343 0.178237 0)
(1.03269 0.245003 0)
(1.02559 0.222464 0)
(1.04885 0.290821 0)
(1.04046 0.267807 0)
(1.06707 0.336841 0)
(1.05778 0.313918 0)
(1.08548 0.380218 -2.97606e-25)
(1.07645 0.359162 -9.49661e-30)
(1.09981 0.41436 0)
(1.09355 0.399044 0)
(1.10282 0.427881 -1.66372e-26)
(1.10329 0.424582 0)
(1.08498 0.406079 0)
(1.09711 0.422292 0)
(1.03958 0.336169 2.7829e-22)
(1.06618 0.377564 -8.67024e-22)
(0.964348 0.217364 5.28991e-21)
(1.00627 0.282432 2.08116e-21)
(0.861918 0.0634265 -7.71423e-21)
(0.917777 0.143828 -4.37024e-21)
(0.803316 -0.0195388 -9.58863e-21)
(0.437271 -0.0937027 -9.90582e-22)
(0.376389 -0.173166 -1.30356e-22)
(0.911587 -0.0826881 1.33879e-22)
(0.920245 -0.0751235 1.12412e-22)
(0.440986 -0.132332 0)
(0.393368 -0.245591 3.73831e-22)
(0.451193 -0.17252 -6.55331e-24)
(0.644919 -0.187232 -4.96119e-23)
(0.520803 -0.245656 4.95226e-23)
(0.4738 -0.20445 5.17797e-21)
(0.505108 -0.228631 2.63151e-21)
(1.18957 -0.168198 -6.90194e-23)
(0.543731 -0.247079 5.54015e-21)
(0.665099 -0.183186 -3.88103e-22)
(1.17674 -0.168244 -3.44345e-23)
(1.18399 -0.163028 0)
(0.394892 -0.139442 0)
(0.699313 -0.208055 1.98288e-21)
(0.798977 -0.164117 -4.31784e-22)
(0.715259 -0.112738 -1.00806e-21)
(0.760322 -0.135626 1.01844e-21)
(0.625211 -0.069323 -2.14324e-22)
(0.668532 -0.0919778 0)
(0.566971 -0.00924085 -1.24754e-22)
(0.591066 -0.0417508 0)
(0.552108 0.0653114 0)
(0.554615 0.0271388 1.25506e-22)
(0.570002 0.137741 0)
(0.557961 0.102745 0)
(0.605312 0.195569 2.87465e-24)
(0.586306 0.168982 0)
(0.648036 0.233196 2.09e-24)
(0.626052 0.217063 0)
(0.695971 0.248643 -3.29894e-24)
(0.671253 0.243787 0)
(0.752089 0.240048 -9.93457e-25)
(0.722749 0.247484 0)
(0.819908 0.205855 -4.53968e-25)
(0.784457 0.226148 0)
(0.898768 0.147938 1.7748e-25)
(0.858259 0.17952 0)
(0.982152 0.0739535 -1.37319e-25)
(0.940505 0.112251 0)
(1.06013 -0.00384162 0)
(1.02247 0.0346858 0)
(1.12357 -0.0729256 0)
(1.09412 -0.0401324 0)
(1.16753 -0.124936 0)
(1.14812 -0.101363 0)
(1.19194 -0.157398 0)
(1.18207 -0.143568 0)
(1.20056 -0.17247 3.06165e-23)
(1.19794 -0.166898 0)
(1.19854 -0.174494 5.96535e-24)
(1.20058 -0.174952 -3.75258e-23)
(1.19459 -0.172323 0)
(1.14619 -0.170809 0)
(1.16431 -0.17098 -3.5876e-23)
(1.0913 -0.15991 1.91918e-23)
(1.12173 -0.167102 -1.93765e-23)
(1.01756 -0.13615 0)
(1.05584 -0.149317 0)
(0.94532 -0.10682 0)
(0.97949 -0.12158 0)
(0.920847 -0.0934054 -1.62008e-22)
(0.945648 -0.0706698 -1.13791e-22)
(0.940817 -0.0506134 1.34464e-22)
(0.942275 -0.061077 1.24085e-22)
(0.945463 -0.0286756 0)
(0.941655 -0.0396996 0)
(0.959461 -0.0065671 0)
(0.951757 -0.0176232 0)
(0.977418 0.0162919 6.02298e-25)
(0.968332 0.0046344 0)
(0.993832 0.0423834 0)
(0.986136 0.028741 0)
(1.00539 0.0740933 0)
(1.00026 0.0574698 0)
(1.01326 0.111335 0)
(1.00957 0.0921385 0)
(1.02116 0.151933 0)
(1.01699 0.131366 0)
(1.03186 0.194022 0)
(1.02607 0.17285 0)
(1.04633 0.237115 4.55582e-25)
(1.03861 0.21544 0)
(1.06481 0.28126 3.00221e-25)
(1.05507 0.259062 0)
(1.08717 0.326013 0)
(1.07554 0.303633 0)
(1.11239 0.369372 2.97606e-25)
(1.09956 0.348092 9.49661e-30)
(1.13727 0.406236 0)
(1.12519 0.3891 0)
(1.15549 0.426882 3.9966e-26)
(1.14775 0.419394 0)
(1.15726 0.417182 0)
(1.15919 0.426775 0)
(1.13183 0.36297 0)
(1.14849 0.396253 0)
(1.07417 0.259841 1.4065e-21)
(1.10776 0.317376 0)
(0.982855 0.117271 0)
(1.03262 0.192203 5.41094e-23)
(0.86674 -0.042187 1.70531e-21)
(0.924136 0.0362601 -3.31525e-21)
(0.593633 -0.254717 -9.02203e-21)
(0.736035 -0.187716 -2.70031e-21)
(0.800308 -0.119022 6.29125e-21)
(0.386691 -0.182369 4.92054e-22)
(0.354723 -0.246853 3.29031e-23)
(0.385902 -0.224534 0)
(0.415388 -0.292652 -2.79077e-22)
(0.393455 -0.261815 -1.07141e-21)
(0.577432 -0.266762 6.25975e-22)
(0.409418 -0.290483 -1.39758e-21)
(0.826896 -0.201129 0)
(0.743346 -0.236386 -1.55266e-21)
(0.436291 -0.309888 0)
(0.471321 -0.320561 -5.4734e-21)
(0.669292 -0.24525 -3.3296e-21)
(0.524888 -0.313313 3.95668e-21)
(1.19454 -0.161658 8.65196e-23)
(0.604891 -0.289536 1.16007e-20)
(0.982903 -0.0686055 0)
(1.17268 -0.162632 7.47824e-23)
(1.17788 -0.156866 3.85031e-23)
(0.987205 -0.0754059 4.44695e-22)
(0.951414 -0.0790894 -3.3664e-22)
(0.704507 -0.256335 4.43606e-20)
(1.18702 -0.156031 -3.21415e-23)
(0.355458 -0.222999 0)
(0.851919 -0.243422 -7.69095e-22)
(0.907203 -0.220814 2.25971e-22)
(0.873028 -0.136512 -8.40316e-22)
(0.889587 -0.177583 8.48434e-22)
(0.823414 -0.0716469 -1.06805e-21)
(0.85069 -0.101318 4.02215e-22)
(0.753621 -0.0261246 -2.82443e-22)
(0.790369 -0.0472588 5.53599e-22)
(0.686157 0.0172401 0)
(0.718078 -0.00530998 0)
(0.646477 0.0702787 0)
(0.661868 0.0425197 0)
(0.641727 0.127466 0)
(0.640104 0.0991511 0)
(0.663788 0.176604 -2.87465e-24)
(0.65006 0.153699 0)
(0.703846 0.208956 0)
(0.681957 0.195254 0)
(0.75762 0.219463 7.51565e-27)
(0.72914 0.217163 0)
(0.824039 0.205174 9.52036e-26)
(0.789309 0.215519 0)
(0.901487 0.165738 0)
(0.861631 0.188454 0)
(0.984795 0.105406 1.064e-25)
(0.942914 0.137694 0)
(1.06524 0.0336198 -4.29873e-26)
(1.02601 0.0701865 0)
(1.13346 -0.0372469 0)
(1.10141 -0.00268751 0)
(1.18276 -0.0964957 0)
(1.16072 -0.0688295 0)
(1.21134 -0.138239 0)
(1.19956 -0.119698 0)
(1.22181 -0.16204 3.75994e-25)
(1.21853 -0.15224 0)
(1.21916 -0.17108 -8.14365e-24)
(1.2217 -0.168154 0)
(1.20874 -0.16959 9.23853e-24)
(1.21454 -0.171429 8.21357e-24)
(1.20163 -0.166345 -7.96756e-24)
(1.14739 -0.167611 -2.00219e-23)
(1.16272 -0.16637 5.54644e-23)
(1.099 -0.160719 0)
(1.12615 -0.165751 0)
(1.0303 -0.141806 0)
(1.06646 -0.152551 0)
(0.958888 -0.116381 0)
(0.993225 -0.129404 0)
(0.921335 -0.0930469 -8.95023e-23)
(0.932892 -0.103902 6.84301e-23)
(0.927809 -0.0847367 -1.03318e-22)
(0.980966 -0.0523585 -2.54882e-22)
(0.98068 -0.0608325 -1.2671e-22)
(0.987403 -0.0340896 0)
(0.983127 -0.0434651 0)
(0.997841 -0.013898 0)
(0.992264 -0.0242998 0)
(1.00841 0.00944558 0)
(1.00334 -0.00274933 0)
(1.01596 0.0376565 0)
(1.01264 0.0228746 0)
(1.0205 0.0710944 0)
(1.01848 0.053774 0)
(1.02466 0.108372 0)
(1.02243 0.0893849 0)
(1.03133 0.147566 0)
(1.02756 0.127824 0)
(1.042 0.187652 0)
(1.03613 0.167518 0)
(1.05722 0.228542 -5.10624e-26)
(1.04903 0.207988 0)
(1.07733 0.270361 -5.00717e-26)
(1.06664 0.249336 0)
(1.10262 0.312858 0)
(1.08933 0.291572 0)
(1.13282 0.354639 0)
(1.11718 0.334001 0)
(1.16603 0.391891 0)
(1.14928 0.374205 0)
(1.19733 0.41676 3.28241e-24)
(1.18239 0.406561 0)
(1.21754 0.416507 0)
(1.20958 0.420703 0)
(1.2139 0.377256 5.22268e-22)
(1.2195 0.402447 0)
(1.17672 0.29089 -4.82057e-24)
(1.20012 0.33991 -5.28605e-22)
(1.10119 0.163185 -2.95823e-21)
(1.14352 0.231262 2.86789e-21)
(0.996947 0.015467 3.11433e-21)
(1.05077 0.0902005 3.01435e-21)
(0.873184 -0.128867 5.541e-21)
(0.93515 -0.0590703 -6.30032e-21)
(0.798173 -0.195664 -1.3773e-20)
(0.34186 -0.270722 -1.14734e-22)
(0.349413 -0.312452 -9.7663e-23)
(0.958362 -0.0861864 -1.52466e-22)
(0.993322 -0.0810329 1.03604e-22)
(0.863275 -0.193252 8.53922e-21)
(0.33483 -0.314173 -1.48735e-21)
(0.455677 -0.32533 0)
(0.335551 -0.347828 -1.78122e-21)
(0.634151 -0.287017 -6.26273e-22)
(0.34606 -0.371614 5.97101e-23)
(0.780229 -0.272273 0)
(0.366496 -0.384411 2.19576e-21)
(0.924801 -0.265771 -5.42016e-22)
(0.872666 -0.289479 1.08681e-21)
(0.402791 -0.381345 0)
(0.453914 -0.364665 3.19038e-21)
(0.567823 -0.324012 -9.59146e-21)
(1.17946 -0.149781 3.22223e-23)
(0.326797 -0.303478 0)
(0.94656 -0.310067 0)
(0.984755 -0.285767 5.22813e-23)
(0.949861 -0.202972 -7.9733e-22)
(0.965348 -0.244845 4.11921e-22)
(0.926234 -0.121182 -4.10275e-22)
(0.936721 -0.161655 4.11051e-22)
(0.901751 -0.0491885 0)
(0.914728 -0.0832885 1.27531e-22)
(0.863548 0.00547408 6.62112e-26)
(0.884914 -0.0195189 0)
(0.813551 0.0462994 0)
(0.838923 0.0268299 0)
(0.771801 0.0852966 0)
(0.790365 0.0654883 0)
(0.754686 0.12606 0)
(0.759682 0.105721 0)
(0.765586 0.162146 3.13854e-24)
(0.756838 0.145252 0)
(0.8004 0.184902 -2.40167e-24)
(0.78035 0.175666 0)
(0.854186 0.187785 3.2748e-24)
(0.825222 0.189114 0)
(0.922451 0.167457 9.34075e-26)
(0.886837 0.180583 0)
(0.999492 0.124628 9.20251e-26)
(0.960353 0.148613 0)
(1.07719 0.065023 -4.27656e-25)
(1.03887 0.0963678 0)
(1.1462 -0.00129897 5.65516e-26)
(1.11334 0.0319472 0)
(1.19869 -0.0630242 0)
(1.17489 -0.0333555 0)
(1.23078 -0.111762 0)
(1.21733 -0.0893629 0)
(1.24353 -0.143963 0)
(1.23935 -0.129946 0)
(1.24133 -0.160664 -3.75994e-25)
(1.24395 -0.154046 0)
(1.22961 -0.165377 0)
(1.23631 -0.164222 0)
(1.21309 -0.162 -3.4967e-26)
(1.22168 -0.164359 0)
(1.19543 -0.153405 2.34021e-23)
(1.20425 -0.158024 0)
(1.17816 -0.141792 -3.5744e-23)
(1.18665 -0.147783 -5.88913e-23)
(1.17199 -0.14317 -7.70655e-23)
(1.16787 -0.156238 1.62253e-24)
(1.17154 -0.150225 -7.95834e-23)
(1.14719 -0.162821 0)
(1.16005 -0.160608 -2.34396e-23)
(1.10451 -0.159244 0)
(1.12873 -0.162434 0)
(1.04073 -0.144768 0)
(1.07473 -0.153234 0)
(0.970957 -0.123395 0)
(1.00495 -0.134545 0)
(0.931032 -0.101825 0)
(0.944217 -0.112199 0)
(0.935893 -0.0930569 1.9363e-22)
(1.0332 -0.076813 -4.18805e-22)
(1.02381 -0.0672703 1.19822e-22)
(1.02707 -0.0726967 0)
(1.02137 -0.053991 0)
(1.02122 -0.0611472 1.19336e-22)
(1.02405 -0.0375392 0)
(1.02238 -0.0461981 0)
(1.02774 -0.0174944 0)
(1.0259 -0.0280313 0)
(1.03016 0.00704156 -5.64318e-25)
(1.02918 -0.00583378 0)
(1.03069 0.0365039 0)
(1.0306 0.0211753 0)
(1.03089 0.070091 0)
(1.03068 0.0528814 0)
(1.03322 0.106154 0)
(1.03166 0.0879189 0)
(1.0394 0.143335 0)
(1.03577 0.124658 0)
(1.05019 0.181113 0)
(1.04421 0.162156 0)
(1.06594 0.219504 -4.0452e-25)
(1.05743 0.200225 0)
(1.08709 0.2586 -2.5015e-25)
(1.07581 0.238964 0)
(1.11414 0.298215 0)
(1.09985 0.278378 0)
(1.14742 0.337334 0)
(1.13002 0.317953 0)
(1.1862 0.373193 0)
(1.16624 0.355946 0)
(1.22734 0.399841 -3.08844e-24)
(1.20682 0.38821 0)
(1.26339 0.406728 0)
(1.24668 0.406583 0)
(1.28199 0.380374 0)
(1.27576 0.398489 0)
(1.27003 0.311406 3.6338e-25)
(1.28049 0.351429 0)
(1.21899 0.202237 0)
(1.2496 0.261059 0)
(1.13198 0.0681072 2.81506e-23)
(1.18012 0.137063 -1.45983e-21)
(1.0226 -0.0667706 2.7563e-21)
(1.08 -0.000461926 -2.78335e-21)
(0.952069 -0.131652 -2.14913e-21)
(1.17006 -0.135531 1.13062e-22)
(0.305165 -0.353852 1.14664e-22)
(0.362371 -0.364067 0)
(1.00717 -0.325867 1.79887e-24)
(0.969814 -0.35359 -7.56126e-26)
(0.289389 -0.395577 1.42661e-21)
(0.50913 -0.347518 0)
(0.281639 -0.426529 1.33256e-21)
(0.684305 -0.312738 0)
(0.285672 -0.443252 -1.88818e-21)
(0.806044 -0.316342 0)
(0.301385 -0.444966 -2.16839e-21)
(0.896176 -0.335627 0)
(0.334948 -0.430444 -5.18207e-21)
(0.399259 -0.396428 1.93583e-21)
(0.752713 -0.251841 1.3121e-21)
(0.572928 -0.313589 -2.406e-20)
(0.685811 -0.276475 2.19686e-21)
(1.17486 -0.133351 -3.47461e-23)
(1.06938 -0.0726061 8.27701e-22)
(1.07636 -0.0744453 1.79809e-22)
(1.16648 -0.127596 1.10584e-22)
(1.03978 -0.0798062 0)
(0.312249 -0.373015 0)
(1.03393 -0.364133 -1.40367e-22)
(1.06065 -0.334279 -2.17717e-22)
(1.01417 -0.263566 -3.41341e-22)
(1.03513 -0.299962 2.85353e-22)
(0.982823 -0.188505 -2.76248e-22)
(0.996396 -0.226626 3.4983e-22)
(0.964786 -0.112404 -3.84127e-22)
(0.972305 -0.150363 6.93919e-22)
(0.954745 -0.0403046 0)
(0.959327 -0.0753633 0)
(0.942314 0.0201192 1.39293e-25)
(0.949515 -0.00815588 0)
(0.921017 0.065557 0)
(0.932724 0.04458 0)
(0.89682 0.100243 0)
(0.908473 0.0838195 0)
(0.883506 0.129392 0)
(0.88802 0.115399 0)
(0.8908 0.152284 -3.13854e-24)
(0.884323 0.141897 0)
(0.920549 0.163587 2.40167e-24)
(0.903011 0.159771 0)
(0.969549 0.157701 -3.12068e-24)
(0.942984 0.163054 0)
(1.03194 0.131812 5.28197e-26)
(0.999545 0.147268 0)
(1.09984 0.0874975 8.48917e-27)
(1.06579 0.111658 0)
(1.16397 0.0310842 3.62155e-25)
(1.13299 0.0602484 0)
(1.21585 -0.0277126 1.44003e-25)
(1.1919 0.00134291 0)
(1.24967 -0.0796338 0)
(1.2352 -0.0550169 0)
(1.26446 -0.118573 0)
(1.25934 -0.100927 0)
(1.26325 -0.142912 0)
(1.26556 -0.132507 0)
(1.25111 -0.154471 0)
(1.25821 -0.150084 0)
(1.23307 -0.156536 0)
(1.24254 -0.156448 0)
(1.21292 -0.152308 9.83898e-26)
(1.22304 -0.154957 0)
(1.19318 -0.144129 -3.35763e-23)
(1.20285 -0.148443 1.03735e-23)
(1.18377 -0.13889 -6.76899e-25)
(0.996774 -0.395024 7.26346e-23)
(1.0636 -0.401331 0)
(1.08935 -0.367991 -3.34372e-23)
(1.16482 -0.136402 4.32374e-23)
(1.15864 -0.12167 3.00221e-24)
(1.16238 -0.12911 4.05085e-23)
(1.16274 -0.14924 0)
(1.16518 -0.143239 0)
(1.14579 -0.156866 0)
(1.15656 -0.153924 2.31799e-23)
(1.10816 -0.155947 0)
(1.12978 -0.157601 0)
(1.04898 -0.145449 0)
(1.08088 -0.151824 0)
(0.981367 -0.128093 0)
(1.01464 -0.137333 0)
(0.940572 -0.108678 0)
(0.954559 -0.118342 0)
(0.965658 -0.0919395 5.07991e-23)
(0.944194 -0.099751 1.21948e-23)
(1.00043 -0.0853595 -1.04124e-22)
(1.05981 -0.065183 -9.05052e-23)
(1.06324 -0.0695842 -5.68641e-23)
(1.05445 -0.0535125 0)
(1.05626 -0.059941 2.93711e-23)
(1.05116 -0.0376317 0)
(1.05259 -0.04615 0)
(1.04789 -0.0171942 0)
(1.04956 -0.0280214 0)
(1.04395 0.00802199 5.64318e-25)
(1.04597 -0.00517365 0)
(1.04012 0.0375257 -5.31698e-25)
(1.04192 0.0223035 0)
(1.03818 0.0700588 0)
(1.03879 0.0535116 0)
(1.03982 0.104218 0)
(1.03848 0.0870098 0)
(1.04594 0.139111 0)
(1.0423 0.121605 0)
(1.0569 0.174435 -4.03531e-25)
(1.05081 0.156724 0)
(1.073 0.210185 0)
(1.06429 0.192255 0)
(1.09471 0.246373 0)
(1.08312 0.228229 0)
(1.12264 0.282776 0)
(1.10786 0.26458 0)
(1.15741 0.318546 -3.5952e-25)
(1.13915 0.300832 0)
(1.19906 0.351573 0)
(1.17742 0.335605 0)
(1.246 0.377471 1.23914e-25)
(1.22208 0.36581 0)
(1.29311 0.388305 2.1012e-24)
(1.27006 0.38542 0)
(1.33015 0.372723 0)
(1.3137 0.384567 0)
(1.34377 0.320347 4.56738e-25)
(1.34072 0.351524 0)
(1.32217 0.229523 0)
(1.3379 0.279297 0)
(1.2619 0.111781 1.36139e-21)
(1.29646 0.17282 0)
(1.1743 -0.0127318 -2.95711e-22)
(1.22187 0.0491914 -1.3487e-21)
(1.04623 -0.129547 -5.04006e-21)
(1.11536 -0.0734619 -3.71313e-21)
(0.910783 -0.212962 1.07473e-20)
(0.969881 -0.176962 3.41867e-21)
(0.894112 -0.226268 -1.89069e-20)
(0.731998 -0.26458 -1.17842e-21)
(0.938303 -0.210619 1.43118e-21)
(0.280444 -0.424841 0)
(0.395071 -0.400212 0)
(1.04776 -0.0814117 -1.81472e-22)
(1.08435 -0.0749545 1.83932e-22)
(0.253978 -0.46581 0)
(0.566179 -0.365985 0)
(0.235964 -0.492815 4.55899e-22)
(0.722556 -0.347374 0)
(0.229856 -0.501311 0)
(0.831357 -0.362035 2.37864e-23)