/*--------------------------------*- C++ -*----------------------------------*\
  =========                 |
  \\      /  F ield         | OpenFOAM: The Open Source CFD Toolbox
   \\    /   O peration     | Website:  https://openfoam.org
    \\  /    A nd           | Version:  10
     \\/     M anipulation  |
\*---------------------------------------------------------------------------*/
FoamFile
{
    format      ascii;
    class       volScalarField;
    location    "1";
    object      p;
}
// * * * * * * * * * * * * * * * * * * * * * * * * * * * * * * * * * * * * * //

dimensions      [0 2 -2 0 0 0 0];

internalField   nonuniform List<scalar> 
28942
(
-3.78955
-3.79536
-1.27114
0.883089
0.924451
-0.155812
-0.0372637
-0.114066
-0.105395
-0.065833
-4.89491
-4.40903
-4.03625
-4.24169
-0.0374977
-0.0253359
2.47715
2.62079
0.629635
1.38294
1.7779
1.77985
-3.43378
-3.41182
-3.54948
-3.48521
4.30894
4.54713
-0.130783
-0.0868733
-0.244122
-0.233664
0.0615667
-0.0447905
0.337656
0.638426
2.58732
3.26353
-0.0446745
2.11194
1.16232
1.12147
0.306772
0.30471
0.292665
-0.0856525
-0.0523761
-0.069704
-0.0664603
-0.0320141
-0.0030442
0.0371172
0.0387452
-0.0522988
-0.00750025
-3.18308
-2.61376
-3.63386
-3.65529
-3.40335
-3.52145
-3.69977
-3.71703
-1.04081
-1.51542
-0.792918
-0.454896
2.35932
2.19908
-3.94598
-3.83361
-3.74556
2.30944
2.22178
2.324
-2.09237
-2.24078
-1.73849
-1.18845
-1.57747
-0.995524
-1.70944
-3.75866
-3.92085
-0.530278
-0.0192531
0.438527
0.218288
-0.187679
-0.132261
0.0961391
0.398297
-5.90605
-6.42198
-5.27297
-5.15453
-4.97727
0.16012
0.335289
-4.0336
0.979606
0.991695
1.02969
0.965207
-0.958168
-0.923924
-1.02236
0.790117
0.836437
0.847594
-3.73379
-3.77286
-3.6096
-4.10599
-4.14609
4.94717
4.57399
4.28854
4.64284
-0.320427
0.585245
0.200072
0.301826
0.139007
5.35539
5.53814
5.21147
0.256697
0.522452
-0.0926538
-0.0947488
-0.103542
2.54776
3.18144
0.86902
0.843308
1.02039
1.09719
1.9572
1.92897
-4.12282
-3.98569
0.550232
0.269239
0.27642
-2.1832
-2.43674
-2.24662
-3.8477
0.835976
0.748369
-0.467775
-0.181003
-0.193353
-0.155982
-0.169444
1.3522
0.36415
-3.18902
-3.76003
-4.54706
-3.42423
-3.08577
-0.0972958
-3.08538
-2.84956
1.91838
2.0027
2.31802
2.19585
1.7594
0.0635267
0.051052
0.0697563
0.0227379
0.643615
0.566172
0.690856
0.757831
0.744683
0.805944
0.883859
1.10325
0.984681
0.867518
0.998832
1.23438
1.59054
1.70275
-5.62974
-5.56095
-4.52263
-0.0901337
-0.0748175
-2.94002
-3.50252
-0.0383268
-0.0377094
-0.0497559
-0.0557824
0.237732
0.236749
0.234652
-3.75616
-3.72451
-3.78636
-3.47682
-3.51579
-3.59279
-3.49472
-3.71705
-3.5633
4.80746
4.54885
4.8631
-0.830607
-0.733354
-0.78671
2.57546
2.48882
2.53194
0.161764
0.158959
0.164584
0.156151
0.153393
0.150688
0.150706
0.14804
0.148123
0.153348
0.156108
0.158899
0.161727
0.164531
0.145437
0.14551
0.167494
0.167456
0.170531
0.142863
0.142859
0.170465
0.140292
0.13774
0.140261
0.137714
0.173497
0.173431
0.135217
0.135206
0.176482
0.17647
0.132731
0.132718
0.179535
0.17959
0.130287
0.130253
0.182672
0.182766
0.127871
0.12782
0.185894
0.185983
0.125481
0.125417
0.189213
0.189216
0.1231
0.123043
0.192568
0.192516
0.120749
0.120701
0.196024
0.195918
0.118422
0.118361
0.199472
0.199366
0.116112
0.115996
0.203064
0.202936
0.113736
0.113631
0.206737
0.206598
0.111266
0.111234
0.203051
0.206759
0.210526
0.210331
0.195945
0.199482
0.189099
0.192536
0.182642
0.185816
0.176465
0.179529
0.170417
0.17343
0.164657
0.167541
0.159013
0.161789
0.153473
0.156242
0.148022
0.150736
0.142835
0.145406
0.137734
0.140277
0.132723
0.135213
0.127837
0.130265
0.123051
0.125423
0.11836
0.120692
0.113672
0.116039
0.111292
0.108839
0.108815
0.115876
0.111209
0.113552
0.120573
0.118223
0.125304
0.122926
0.130144
0.12771
0.135092
0.132607
0.140149
0.137602
0.145386
0.142746
0.150663
0.148047
0.156022
0.153325
0.161588
0.15878
0.167335
0.16445
0.173233
0.170236
0.179387
0.176276
0.185762
0.182556
0.192322
0.189008
0.199167
0.195697
0.206295
0.202686
0.210026
0.210577
0.108896
0.108825
0.2142
0.213843
0.214467
0.214408
0.202927
0.210441
0.206632
0.195768
0.199308
0.189011
0.19234
0.182647
0.18579
0.176479
0.179543
0.170477
0.173453
0.164666
0.167555
0.159006
0.16185
0.153482
0.156198
0.148037
0.150744
0.14283
0.145409
0.137743
0.140277
0.132741
0.13523
0.127842
0.13028
0.123052
0.125433
0.11835
0.120689
0.113658
0.116008
0.106439
0.106514
0.10898
0.11132
0.111167
0.108864
0.106468
0.106417
0.115753
0.113463
0.12042
0.118062
0.125169
0.122785
0.13001
0.127577
0.13495
0.132469
0.14
0.137459
0.145193
0.14258
0.150491
0.147833
0.155901
0.15318
0.161407
0.158627
0.167136
0.164273
0.173015
0.170045
0.179134
0.176044
0.185453
0.182272
0.191986
0.18869
0.198769
0.195342
0.205853
0.20227
0.213319
0.209544
0.214304
0.217715
0.217215
0.21809
0.106675
0.106473
0.218387
0.218109
0.221686
0.221224
0.218386
0.109032
0.106762
0.104086
0.104095
0.217612
0.22181
0.224724
0.221273
0.210081
0.213872
0.202651
0.206324
0.195571
0.199059
0.188923
0.192186
0.182607
0.185741
0.176445
0.179506
0.170436
0.17342
0.164628
0.167503
0.158964
0.161793
0.153441
0.156176
0.148048
0.150728
0.142824
0.145415
0.137735
0.140268
0.132731
0.135222
0.127825
0.130265
0.123025
0.125413
0.118305
0.120656
0.113627
0.115956
0.111314
0.104111
0.104321
0.104199
0.104069
0.111048
0.106439
0.108765
0.115611
0.113321
0.120262
0.117912
0.125018
0.122631
0.129856
0.127425
0.134791
0.132312
0.139834
0.137297
0.144995
0.142401
0.150274
0.147618
0.155682
0.152965
0.1612
0.158421
0.166904
0.164035
0.172766
0.169811
0.178844
0.175777
0.185117
0.181956
0.191607
0.188334
0.198325
0.194935
0.20532
0.201785
0.212664
0.208944
0.220553
0.216536
0.22534
0.224665
0.222265
0.222077
0.104451
0.10411
0.225623
0.225799
0.230773
0.228891
0.229537
0.233115
0.237681
0.222319
0.224596
0.228345
0.217389
0.22109
0.209762
0.213577
0.20236
0.206003
0.195388
0.198835
0.188811
0.192049
0.182497
0.185638
0.176345
0.179394
0.17035
0.173334
0.164543
0.167415
0.158905
0.161714
0.153384
0.156123
0.148021
0.150686
0.142791
0.145388
0.137694
0.140229
0.13269
0.135181
0.127785
0.130225
0.122977
0.12537
0.118245
0.120602
0.113586
0.115898
0.109041
0.111306
0.104493
0.106767
0.102013
0.102202
0.102119
0.101798
0.101896
0.101748
0.101739
0.101823
0.10179
0.106354
0.101893
0.104113
0.110879
0.108619
0.115444
0.11315
0.120095
0.117755
0.124844
0.122459
0.129677
0.12725
0.134604
0.132128
0.139638
0.137107
0.144779
0.142196
0.150036
0.147391
0.155424
0.152715
0.160939
0.158164
0.166616
0.163757
0.17246
0.169515
0.178502
0.175456
0.184736
0.181593
0.191186
0.187935
0.197852
0.19449
0.204768
0.201278
0.211994
0.208335
0.219723
0.215782
0.228042
0.223827
0.233228
0.232366
0.226137
0.226107
0.229893
0.230018
0.104515
0.102272
0.0995734
0.0995691
0.235468
0.233857
0.239528
0.232586
0.237662
0.23679
0.236895
0.226262
0.225008
0.228754
0.217315
0.22122
0.209493
0.213371
0.202146
0.205754
0.195243
0.198654
0.188669
0.191911
0.182339
0.185491
0.176189
0.179229
0.170225
0.173199
0.164422
0.16729
0.158811
0.161606
0.153299
0.156036
0.147952
0.150609
0.142725
0.145323
0.137625
0.14016
0.132626
0.135114
0.127723
0.130162
0.122912
0.125307
0.118179
0.120536
0.113536
0.115843
0.109002
0.11125
0.106748
0.0997381
0.0999353
0.0998339
0.0995067
0.0996382
0.099487
0.0994765
0.099536
0.106238
0.101796
0.104039
0.110689
0.108454
0.115261
0.112964
0.119912
0.117576
0.124648
0.122269
0.129473
0.12705
0.134389
0.131919
0.13941
0.136886
0.144536
0.14196
0.149774
0.14714
0.155139
0.152441
0.160637
0.15787
0.166287
0.163443
0.172101
0.169171
0.178105
0.17508
0.184298
0.181175
0.190706
0.187477
0.19733
0.19399
0.204193
0.200731
0.211329
0.207722
0.218878
0.215041
0.226999
0.222852
0.235662
0.231278
0.241317
0.240182
0.230069
0.230272
0.0999866
0.0995381
0.234824
0.239884
0.240089
0.234344
0.238315
0.241046
0.245075
0.244435
0.242211
0.245955
0.244819
0.230288
0.23229
0.240871
0.236414
0.224822
0.22858
0.216933
0.220938
0.209128
0.212966
0.201874
0.205441
0.195024
0.198411
0.188455
0.191699
0.182133
0.185281
0.175994
0.179023
0.170073
0.173027
0.164269
0.16714
0.158678
0.161461
0.15318
0.155911
0.147844
0.150494
0.142627
0.145221
0.137531
0.140064
0.132537
0.135023
0.127638
0.130076
0.122829
0.125223
0.118103
0.120456
0.113462
0.115772
0.108919
0.111174
0.104483
0.106694
0.0999823
0.102263
0.0976736
0.0977035
0.0976959
0.0975143
0.0976002
0.0973168
0.0973987
0.0972638
0.0972876
0.0973359
0.0973355
0.097295
0.0973158
0.101652
0.0972492
0.0994541
0.10606
0.103868
0.110505
0.108265
0.115064
0.112772
0.119709
0.117377
0.124433
0.122061
0.129245
0.126828
0.134148
0.131684
0.139153
0.136638
0.144261
0.141694
0.149481
0.146856
0.154821
0.152136
0.160295
0.15754
0.165917
0.163088
0.171697
0.168785
0.177657
0.174655
0.183803
0.180704
0.19016
0.186956
0.196737
0.19342
0.203554
0.200115
0.210637
0.207059
0.218053
0.214298
0.225935
0.221924
0.234356
0.230084
0.243373
0.238794
0.249533
0.248076
0.234541
0.245007
0.240036
0.0999616
0.0977518
0.0950536
0.0950135
0.234628
0.238822
0.244672
0.242921
0.246926
0.250736
0.254367
0.252894
0.234606
0.240453
0.24945
0.249195
0.244781
0.231869
0.236056
0.22413
0.227951
0.21633
0.220268
0.208674
0.212438
0.201513
0.205044
0.194708
0.198073
0.188157
0.191397
0.181869
0.184995
0.175748
0.178773
0.169862
0.172795
0.164072
0.166941
0.158502
0.16127
0.153027
0.15575
0.147706
0.150348
0.142502
0.145091
0.137412
0.139943
0.132425
0.134907
0.127531
0.129967
0.122727
0.125119
0.118008
0.120357
0.11337
0.115679
0.108822
0.111083
0.104378
0.106585
0.102172
0.0954426
0.0954741
0.0954749
0.0953051
0.0953891
0.095201
0.0952401
0.0951197
0.0951714
0.0951158
0.0951306
0.0950877
0.101485
0.0971393
0.0993171
0.105836
0.103648
0.110301
0.108058
0.114852
0.112566
0.119485
0.117158
0.124197
0.121831
0.128994
0.126585
0.133882
0.131426
0.138869
0.136363
0.143957
0.1414
0.149155
0.146542
0.154471
0.151799
0.159917
0.157177
0.165505
0.162693
0.171249
0.168357
0.177162
0.174184
0.183258
0.180186
0.189554
0.186381
0.196071
0.192784
0.202829
0.199419
0.209857
0.206307
0.217196
0.213484
0.224906
0.221
0.233046
0.228919
0.241753
0.237317
0.251125
0.246367
0.249954
0.249935
0.257825
0.256025
0.239546
0.0955577
0.0949255
0.253785
0.239174
0.254486
0.244973
0.243469
0.249238
0.247658
0.251712
0.255596
0.259309
0.262831
0.26096
0.239316
0.248495
0.258619
0.257571
0.252966
0.239682
0.244085
0.23111
0.235307
0.223238
0.2271
0.215622
0.219439
0.208148
0.211837
0.201072
0.204569
0.194316
0.197656
0.187799
0.191027
0.181552
0.184651
0.175455
0.178476
0.169601
0.17251
0.163844
0.166704
0.158292
0.161047
0.152844
0.155556
0.147535
0.150171
0.142345
0.144927
0.137264
0.139791
0.132287
0.134764
0.127401
0.129832
0.122604
0.124992
0.117891
0.120237
0.113259
0.115565
0.108707
0.110973
0.104246
0.106464
0.0998946
0.102055
0.0955253
0.0977402
0.093298
0.0932976
0.0933072
0.093264
0.0932886
0.093164
0.0932049
0.0931248
0.0931428
0.0930202
0.0930892
0.0929311
0.0929453
0.0928387
0.092889
0.0927303
0.0927886
0.0969642
0.0926305
0.0948111
0.101263
0.0991116
0.105619
0.10343
0.11008
0.107839
0.11462
0.112341
0.11924
0.11692
0.12394
0.12158
0.128722
0.126321
0.133593
0.131146
0.138559
0.136064
0.143625
0.14108
0.148799
0.146198
0.154088
0.151429
0.159503
0.156779
0.165055
0.162261
0.170757
0.167886
0.176621
0.173668
0.182663
0.179619
0.188895
0.185754
0.195341
0.19209
0.202023
0.198651
0.208972
0.205462
0.216225
0.212558
0.223812
0.219977
0.231753
0.227735
0.240166
0.235891
0.249163
0.24459
0.258754
0.253867
0.255564
0.255435
0.266038
0.263823
0.244572
0.243887
0.262434
0.263711
0.259616
0.249659
0.24826
0.095433
0.0932671
0.0905437
0.0904571
0.253994
0.252528
0.256641
0.260613
0.264407
0.267962
0.2675
0.265998
0.271109
0.271274
0.268994
0.272848
0.244186
0.256458
0.261217
0.247232
0.251723
0.238573
0.24291
0.230136
0.234271
0.222335
0.226169
0.214857
0.218581
0.20754
0.211163
0.200546
0.204007
0.19385
0.197159
0.187385
0.190592
0.181186
0.184255
0.175131
0.17814
0.169304
0.172192
0.163586
0.166433
0.158048
0.160793
0.152628
0.155327
0.147336
0.149964
0.142163
0.144737
0.137094
0.139615
0.132126
0.134598
0.127249
0.129676
0.12246
0.124844
0.117754
0.120097
0.113128
0.115431
0.108579
0.110844
0.104117
0.106336
0.0997625
0.101922
0.0976072
0.0911074
0.0910973
0.0911106
0.0910993
0.0911146
0.0910796
0.0910825
0.0910615
0.0910783
0.0909477
0.0910203
0.0907775
0.0908376
0.0906845
0.090743
0.0906235
0.0967489
0.0925013
0.0946334
0.101022
0.0988663
0.10539
0.103196
0.10984
0.107605
0.11437
0.112096
0.118976
0.116663
0.123661
0.121308
0.128428
0.126034
0.13328
0.130843
0.138225
0.135741
0.143267
0.140733
0.148414
0.145827
0.153672
0.151028
0.159053
0.156347
0.164566
0.161793
0.170223
0.167376
0.176035
0.173109
0.182018
0.179004
0.188183
0.185077
0.194553
0.191341
0.201149
0.197821
0.208001
0.204541
0.215145
0.211534
0.222609
0.218837
0.2304
0.226461
0.238578
0.234436
0.247234
0.242841
0.256441
0.251761
0.266281
0.261287
0.268969
0.274268
0.276664
0.279692
0.276849
0.271496
0.2606
0.261058
0.249513
0.248737
0.0910833
0.090328
0.265013
0.254474
0.25319
0.258882
0.257537
0.261752
0.265801
0.269682
0.273333
0.27644
0.274343
0.279699
0.273611
0.278955
0.282324
0.282009
0.278355
0.274393
0.282239
0.28525
0.24913
0.264441
0.269274
0.254967
0.259639
0.2458
0.250311
0.237264
0.241486
0.22909
0.233119
0.221403
0.225193
0.214027
0.217689
0.206844
0.210405
0.199945
0.203361
0.19332
0.196596
0.186921
0.190099
0.180766
0.183811
0.174759
0.177749
0.168958
0.17183
0.163284
0.166111
0.157767
0.160502
0.152379
0.155062
0.147105
0.149725
0.14195
0.144515
0.136896
0.13941
0.13194
0.134406
0.127075
0.129496
0.122295
0.124675
0.117597
0.119936
0.112977
0.115278
0.108435
0.110696
0.103972
0.106193
0.0995997
0.101774
0.0953173
0.0974509
0.0910154
0.0931671
0.0889355
0.0888553
0.0888951
0.0889634
0.0889525
0.0889864
0.088966
0.0890261
0.0890081
0.0890056
0.0890274
0.0888941
0.0889622
0.0886928
0.0887836
0.0885463
0.088628
0.0883857
0.0884671
0.0881692
0.0882894
0.0922827
0.0880295
0.0901717
0.0965028
0.0943961
0.100774
0.098625
0.10514
0.102948
0.109582
0.107352
0.1141
0.111832
0.118692
0.116387
0.123361
0.121017
0.128111
0.125726
0.132944
0.130517
0.137866
0.135394
0.142882
0.140362
0.148
0.145428
0.153226
0.150599
0.158569
0.155882
0.16404
0.161288
0.169648
0.166826
0.175406
0.172508
0.181325
0.178345
0.18742
0.18435
0.193708
0.190539
0.200212
0.196931
0.206957
0.203553
0.213975
0.21043
0.221296
0.217597
0.228933
0.225073
0.236921
0.232882
0.245297
0.241057
0.254123
0.249651
0.263463
0.258725
0.268397
0.265495
0.266207
0.287831
0.284415
0.254399
0.253716
0.270349
0.259484
0.258259
0.0909065
0.0887759
0.0860316
0.0858723
0.263985
0.262715
0.267038
0.271197
0.275161
0.278836
0.28522
0.282422
0.287828
0.290894
0.287806
0.284061
0.280039
0.288003
0.291012
0.289753
0.293479
0.25412
0.27213
0.277218
0.262534
0.267264
0.25314
0.257802
0.244246
0.248619
0.235922
0.240026
0.227976
0.231905
0.220404
0.224147
0.213126
0.216734
0.206072
0.209571
0.199279
0.202644
0.19273
0.195972
0.186405
0.189547
0.180293
0.183317
0.174346
0.177307
0.168576
0.171433
0.162951
0.165754
0.157459
0.160183
0.1521
0.154768
0.146849
0.149459
0.141713
0.144268
0.136675
0.139182
0.131733
0.134193
0.12688
0.129296
0.12211
0.124485
0.11742
0.119755
0.112808
0.115105
0.108272
0.11053
0.103812
0.106032
0.0994324
0.101611
0.0951513
0.0972733
0.0930347
0.0867853
0.086701
0.0867542
0.0868374
0.0868216
0.0869266
0.086877
0.0869873
0.0869654
0.0869608
0.0869859
0.0868569
0.0869185
0.0866537
0.0867584
0.0864403
0.0865481
0.0862479
0.0863429
0.086151
0.0920324
0.0878277
0.0899465
0.0962402
0.094124
0.100514
0.0983657
0.104873
0.102684
0.109306
0.107081
0.113811
0.111549
0.118389
0.116091
0.123042
0.120706
0.127773
0.125398
0.132585
0.130169
0.137484
0.135024
0.142473
0.139967
0.14756
0.145004
0.15275
0.150142
0.158054
0.155387
0.163479
0.16075
0.169035
0.16624
0.174734
0.171866
0.180587
0.177641
0.186607
0.183575
0.192809
0.189684
0.199213
0.195984
0.205845
0.202499
0.212728
0.209253
0.21989
0.216273
0.22735
0.22358
0.235142
0.231205
0.243279
0.239165
0.251801
0.247492
0.260688
0.256193
0.27022
0.265356
0.28015
0.27519
0.295316
0.291014
0.285548
0.270767
0.271724
0.25944
0.258818
0.0866221
0.0856999
0.275831
0.264684
0.263489
0.269269
0.268073
0.272522
0.276802
0.280845
0.284575
0.293461
0.290139
0.29563
0.286365
0.291592
0.296579
0.299367
0.296779
0.293658
0.290027
0.285942
0.294
0.296913
0.299299
0.301003
0.259213
0.279587
0.284799
0.269653
0.274442
0.260265
0.264957
0.251186
0.255672
0.242617
0.246835
0.234519
0.238518
0.226758
0.230601
0.219317
0.222998
0.212158
0.215706
0.205232
0.208667
0.198547
0.20186
0.192081
0.195284
0.185833
0.188936
0.179774
0.182775
0.173891
0.176819
0.168159
0.171001
0.162578
0.165357
0.157117
0.159829
0.151788
0.15444
0.146563
0.149161
0.141448
0.143993
0.136429
0.138927
0.131503
0.133955
0.126663
0.129072
0.121904
0.124274
0.117224
0.119555
0.11262
0.114913
0.10809
0.110346
0.103634
0.105853
0.099253
0.101434
0.0949694
0.0970951
0.0907485
0.0928483
0.086481
0.0886408
0.0845667
0.0843312
0.0844511
0.0846767
0.0846376
0.0847615
0.0846998
0.0849016
0.0848372
0.084961
0.0849424
0.0849323
0.0849572
0.0848336
0.0848922
0.0846433
0.0847498
0.0843943
0.0845228
0.0841468
0.0842626
0.0839289
0.0840609
0.0836178
0.0837764
0.0875959
0.0834577
0.0855417
0.0917525
0.0896792
0.0959573
0.0938412
0.100237
0.0980879
0.104589
0.102404
0.109011
0.106791
0.113503
0.111248
0.118067
0.115776
0.122703
0.120376
0.127415
0.125049
0.132205
0.1298
0.137078
0.134631
0.142039
0.139548
0.147093
0.144554
0.152246
0.149657
0.157507
0.154863
0.162884
0.160181
0.168386
0.165619
0.174022
0.171186
0.179805
0.176895
0.185745
0.182754
0.191858
0.188779
0.198157
0.194983
0.204667
0.201385
0.211409
0.208008
0.218405
0.214875
0.225674
0.222003
0.233248
0.229423
0.241133
0.23715
0.249371
0.245209
0.257905
0.253602
0.266898
0.262329
0.276279
0.271565
0.281215
0.276271
0.277332
0.302002
0.296914
0.264655
0.264072
0.281528
0.270065
0.268897
0.0863333
0.0842334
0.0815378
0.0813543
0.274791
0.273627
0.278218
0.282614
0.286742
0.290562
0.3013
0.296984
0.302334
0.307167
0.305431
0.30282
0.299776
0.296199
0.291992
0.300202
0.303046
0.30529
0.306819
0.302081
0.307546
0.264456
0.286633
0.291815
0.276558
0.281577
0.266885
0.271625
0.257846
0.262321
0.249174
0.253463
0.240909
0.244988
0.233028
0.236927
0.225443
0.229201
0.218155
0.221762
0.21113
0.214613
0.204329
0.207703
0.197755
0.201015
0.191381
0.194542
0.185213
0.188276
0.179217
0.18219
0.173395
0.17629
0.167708
0.17053
0.162171
0.164926
0.156747
0.159442
0.151449
0.154085
0.146252
0.148838
0.14116
0.143694
0.136161
0.138649
0.131251
0.133696
0.126426
0.128828
0.121679
0.124043
0.117009
0.119335
0.112413
0.114702
0.107889
0.110142
0.103437
0.105654
0.099059
0.101239
0.0947612
0.0969
0.0905351
0.0926349
0.0884358
0.0824533
0.0822025
0.0823403
0.0825823
0.0825443
0.0827409
0.0826462
0.0828964
0.0828307
0.0829508
0.0829346
0.0829238
0.0829467
0.0828287
0.0828853
0.0826507
0.0827511
0.0823958
0.0825315
0.0821043
0.082247
0.0818338
0.0819814
0.081689
0.0873385
0.0832368
0.0853089
0.0914523
0.0893879
0.0956612
0.0935456
0.0999417
0.0977936
0.104287
0.102106
0.108699
0.106484
0.113178
0.11093
0.117726
0.115444
0.122345
0.120027
0.127037
0.124682
0.131804
0.129411
0.136651
0.134217
0.141581
0.139105
0.146601
0.14408
0.151715
0.149146
0.156932
0.154311
0.162258
0.159581
0.167702
0.164965
0.173273
0.170471
0.178981
0.17611
0.184838
0.18189
0.190856
0.187826
0.197048
0.193929
0.203431
0.200214
0.210025
0.2067
0.21685
0.213409
0.223919
0.220352
0.231262
0.227556
0.238878
0.235035
0.246814
0.242804
0.255014
0.250888
0.263544
0.259223
0.27239
0.267947
0.281657
0.27694
0.291462
0.286536
0.307385
0.301271
0.296362
0.282036
0.283122
0.270077
0.269506
0.0821328
0.0811554
0.28756
0.275656
0.274501
0.280546
0.279397
0.284135
0.288656
0.292885
0.296767
0.307874
0.302563
0.30783
0.294998
0.29955
0.306231
0.313725
0.313176
0.311588
0.309178
0.306084
0.302474
0.298284
0.306621
0.309402
0.311504
0.31282
0.313263
0.312681
0.269891
0.29269
0.29751
0.282823
0.287717
0.273219
0.278022
0.264022
0.268543
0.255393
0.259651
0.247097
0.251212
0.239107
0.243059
0.231444
0.235239
0.224049
0.227715
0.216926
0.220453
0.210043
0.213458
0.203371
0.206681
0.196909
0.200115
0.190632
0.193747
0.184546
0.187568
0.178621
0.181562
0.172859
0.175723
0.167224
0.170024
0.161731
0.164463
0.156347
0.159025
0.151081
0.153701
0.145915
0.148486
0.140847
0.143369
0.13587
0.138348
0.130979
0.133414
0.126168
0.128564
0.121435
0.123792
0.116775
0.119096
0.112188
0.114473
0.107671
0.109921
0.103224
0.105439
0.0988465
0.101026
0.0945381
0.0966846
0.0903014
0.0924092
0.08615
0.0882139
0.0819742
0.0840792
0.0801338
0.0798441
0.0799986
0.0803859
0.0802654
0.0805504
0.0804726
0.0807573
0.0806495
0.0809057
0.0808448
0.0809588
0.0809419
0.0809359
0.0809568
0.0808418
0.0808979
0.0806724
0.0807669
0.0804255
0.0805591
0.0801043
0.080271
0.0797641
0.0799353
0.0794736
0.079638
0.0791014
0.0792912
0.0829601
0.0788898
0.0809273
0.0870338
0.0850083
0.0911488
0.0890738
0.0953555
0.0932426
0.0996304
0.0974851
0.103968
0.101791
0.108369
0.10616
0.112836
0.110594
0.117368
0.115094
0.121969
0.11966
0.126639
0.124295
0.131382
0.129002
0.136202
0.133782
0.141101
0.138641
0.146085
0.143582
0.151158
0.14861
0.156329
0.153731
0.161602
0.158952
0.166986
0.16428
0.172489
0.169723
0.178121
0.175289
0.183889
0.180987
0.189807
0.186829
0.195887
0.192826
0.202139
0.198991
0.208582
0.205335
0.215229
0.211879
0.222095
0.218634
0.229202
0.225619
0.236539
0.232843
0.244152
0.240306
0.252
0.248058
0.260091
0.255997
0.268465
0.264268
0.276981
0.272678
0.285921
0.281425
0.290448
0.288068
0.289155
0.311096
0.303969
0.275706
0.275138
0.293713
0.281477
0.280327
0.0817859
0.0797338
0.0770471
0.0768488
0.286567
0.285397
0.290294
0.294944
0.299276
0.303212
0.313172
0.306589
0.311402
0.318668
0.319659
0.319342
0.318009
0.31574
0.31258
0.30894
0.304751
0.313298
0.316018
0.317953
0.319047
0.319112
0.318074
0.308235
0.315859
0.27553
0.297327
0.301908
0.288145
0.292819
0.278772
0.283353
0.269762
0.274263
0.261104
0.265374
0.252887
0.25695
0.244926
0.248883
0.237209
0.24103
0.229774
0.233459
0.222581
0.226149
0.215629
0.219075
0.208897
0.212239
0.202357
0.205603
0.19601
0.19916
0.189836
0.192903
0.183836
0.186816
0.177985
0.180892
0.172284
0.175118
0.166706
0.16948
0.161259
0.163968
0.155918
0.158575
0.150687
0.153289
0.145553
0.148109
0.140512
0.143021
0.135558
0.138024
0.130686
0.133112
0.125892
0.128279
0.121172
0.123523
0.116524
0.118839
0.111945
0.114226
0.107435
0.109681
0.102992
0.105205
0.0986161
0.100796
0.0943057
0.096453
0.0900685
0.0921765
0.0859145
0.0879744
0.0838506
0.0780712
0.0777599
0.0779318
0.0783358
0.0782084
0.0785681
0.0784547
0.0787924
0.078686
0.0789302
0.0788734
0.0789852
0.0789662
0.0789668
0.0789857
0.0788742
0.0789298
0.0787093
0.0788007
0.0784698
0.0785997
0.0781414
0.0783162
0.0777581
0.0779547
0.0774309
0.0776044
0.077243
0.0826587
0.0786461
0.0806533
0.0867057
0.0846661
0.0908331
0.0887579
0.0950364
0.0929269
0.0993037
0.0971625
0.103633
0.101461
0.108023
0.10582
0.112476
0.110242
0.116993
0.114727
0.121575
0.119276
0.126224
0.123891
0.130942
0.128574
0.135732
0.133328
0.140599
0.138156
0.145546
0.143062
0.150577
0.148051
0.155699
0.153127
0.160918
0.158296
0.16624
0.163566
0.171672
0.168942
0.177224
0.174433
0.182902
0.180047
0.188717
0.185792
0.194679
0.191679
0.200798
0.197718
0.207085
0.20392
0.213552
0.210296
0.220209
0.216856
0.227076
0.223616
0.234133
0.230583
0.241413
0.237738
0.248893
0.245143
0.256533
0.252673
0.264443
0.260481
0.272333
0.268375
0.280443
0.276374
0.288551
0.284497
0.296675
0.292662
0.312636
0.304436
0.300548
0.294388
0.29552
0.281569
0.280997
0.0776467
0.0765988
0.300106
0.287557
0.286389
0.292854
0.291649
0.296711
0.301499
0.305932
0.309904
0.316545
0.308701
0.312839
0.321779
0.324483
0.32579
0.325775
0.324632
0.322477
0.319467
0.315778
0.311505
0.320256
0.322895
0.324661
0.325454
0.325112
0.32355
0.320766
0.29601
0.308169
0.299141
0.281401
0.300183
0.304377
0.291875
0.296014
0.283345
0.287686
0.274602
0.278937
0.266262
0.2704
0.258135
0.262168
0.250304
0.254184
0.242665
0.246466
0.235231
0.238916
0.228036
0.231606
0.221054
0.22452
0.214277
0.217639
0.2077
0.210966
0.201295
0.204476
0.195066
0.198159
0.188999
0.192014
0.183086
0.186023
0.177312
0.180183
0.171676
0.174478
0.166158
0.168903
0.160758
0.163444
0.155463
0.158099
0.150269
0.152853
0.145168
0.147708
0.140154
0.14265
0.135225
0.13768
0.130373
0.132789
0.125596
0.127976
0.120891
0.123235
0.116254
0.118564
0.111685
0.113962
0.107182
0.109425
0.102744
0.104955
0.0983696
0.100549
0.0940601
0.0962068
0.0898175
0.0919302
0.0856483
0.0877176
0.0815661
0.0836045
0.0774337
0.079516
0.0757264
0.0753397
0.0755373
0.0760526
0.0759022
0.0763331
0.0761762
0.0766155
0.0764815
0.0768391
0.076738
0.0769719
0.0769153
0.0770306
0.0770095
0.0770156
0.0770327
0.0769259
0.0769802
0.0767628
0.0768534
0.0765259
0.0766539
0.0762037
0.0763758
0.0758003
0.0760129
0.0754195
0.0755954
0.0750102
0.0752199
0.0745718
0.0747917
0.0783265
0.0743102
0.076321
0.0823201
0.0803237
0.0863723
0.084335
0.0905041
0.0884298
0.0947024
0.0925958
0.0989621
0.0968249
0.103282
0.101115
0.107662
0.105464
0.112101
0.109874
0.116602
0.114344
0.121164
0.118875
0.125791
0.123469
0.130483
0.128129
0.135244
0.132855
0.140076
0.137651
0.144985
0.142521
0.149973
0.147469
0.155045
0.152498
0.160208
0.157615
0.165466
0.162824
0.170826
0.168133
0.176295
0.173546
0.18188
0.179073
0.187589
0.184719
0.193429
0.190492
0.19941
0.196401
0.205539
0.202456
0.211825
0.208662
0.21827
0.215027
0.224891
0.221558
0.231668
0.228264
0.238616
0.235113
0.245725
0.242166
0.252905
0.249288
0.260329
0.256607
0.267637
0.263995
0.275016
0.271322
0.282203
0.278639
0.289261
0.285769
0.292672
0.300992
0.302134
0.316851
0.287684
0.287099
0.306811
0.293905
0.292709
0.0771988
0.0751782
0.0725546
0.0722856
0.299432
0.298171
0.303407
0.30834
0.312867
0.316878
0.317114
0.307982
0.311174
0.311249
0.301776
0.3213
0.326522
0.330116
0.331938
0.332266
0.331395
0.329506
0.326625
0.322935
0.318616
0.327515
0.33004
0.331603
0.332058
0.331275
0.32915
0.325643
0.28752
0.301147
0.304634
0.293837
0.297478
0.286239
0.290136
0.278403
0.282338
0.270479
0.27443
0.262763
0.266602
0.255103
0.258922
0.247648
0.251347
0.240334
0.243979
0.233188
0.236733
0.22624
0.229692
0.21947
0.222833
0.212874
0.216149
0.206455
0.209644
0.20019
0.203303
0.194084
0.197117
0.188122
0.191086
0.1823
0.185193
0.176606
0.179438
0.171037
0.173806
0.16558
0.168295
0.160231
0.162892
0.154982
0.157595
0.149827
0.152392
0.14476
0.147283
0.139776
0.142258
0.134872
0.137314
0.130041
0.132447
0.125283
0.127653
0.120592
0.122929
0.115968
0.118272
0.111408
0.11368
0.106912
0.109153
0.102479
0.104688
0.0981075
0.100285
0.0937989
0.0959455
0.0895523
0.0916679
0.0853794
0.0874538
0.0812823
0.0833183
0.0792466
0.0736984
0.0732773
0.0735004
0.0740436
0.0738859
0.074378
0.0742044
0.074679
0.074539
0.0748986
0.0748002
0.0750321
0.0749732
0.0750953
0.0750724
0.0750831
0.0750988
0.0749957
0.075049
0.0748332
0.0749236
0.0745973
0.0747244
0.0742825
0.0744502
0.0738778
0.0740936
0.0734337
0.0736472
0.0730093
0.0732333
0.0727891
0.0779712
0.0740026
0.0759909
0.0819652
0.0799553
0.0860284
0.0839883
0.0901597
0.0880861
0.0943531
0.092249
0.0986058
0.0964723
0.102917
0.100754
0.107285
0.105094
0.11171
0.10949
0.116194
0.113945
0.120737
0.118458
0.125341
0.123031
0.130007
0.127666
0.134737
0.132364
0.139535
0.137128
0.144404
0.14196
0.149346
0.146866
0.154368
0.151847
0.159472
0.15691
0.164665
0.162057
0.169951
0.167296
0.175336
0.172631
0.180826
0.178067
0.186427
0.183612
0.192144
0.189271
0.197983
0.195048
0.203951
0.200951
0.210053
0.206986
0.216286
0.213154
0.22266
0.219455
0.229153
0.225895
0.235773
0.232441
0.242514
0.239143
0.249244
0.245866
0.256165
0.252693
0.262908
0.25957
0.269595
0.26625
0.276029
0.272864
0.282099
0.279117
0.287638
0.284942
0.292109
0.290104
0.295507
0.303585
0.293791
0.307887
0.309021
0.320538
0.294065
0.293463
0.0731373
0.0720027
0.313807
0.313419
0.300547
0.299311
0.304372
0.306313
0.304983
0.310407
0.315486
0.32011
0.324158
0.315008
0.325717
0.331359
0.335646
0.338176
0.33898
0.33843
0.336778
0.334054
0.330431
0.326046
0.33508
0.337462
0.338774
0.338853
0.337542
0.334716
0.330201
0.293905
0.304292
0.319145
0.31069
0.307599
0.299413
0.301756
0.293906
0.296852
0.287431
0.290723
0.280664
0.284103
0.273605
0.277157
0.2664
0.270008
0.259236
0.262818
0.252012
0.255624
0.244933
0.248448
0.23795
0.241436
0.231092
0.234498
0.224394
0.227727
0.217836
0.221096
0.211426
0.214612
0.205167
0.208278
0.199045
0.202089
0.193062
0.196036
0.187208
0.19012
0.181478
0.184328
0.175867
0.178659
0.170367
0.173103
0.164973
0.167658
0.159678
0.162313
0.154476
0.157066
0.149362
0.151908
0.144331
0.146837
0.139378
0.141845
0.1345
0.13693
0.129692
0.132087
0.124952
0.127314
0.120277
0.122606
0.115665
0.117964
0.111116
0.113383
0.106627
0.108864
0.102199
0.104405
0.09783
0.100007
0.0935219
0.0956686
0.0892746
0.0913905
0.0850937
0.087176
0.0809891
0.0830293
0.0769412
0.078946
0.0728881
0.0749326
0.0712831
0.0708238
0.0710571
0.071711
0.0715058
0.0720796
0.0718915
0.0724542
0.0722709
0.0727559
0.0726166
0.0729733
0.072875
0.0731122
0.0730514
0.0731792
0.0731546
0.0731696
0.073184
0.0730836
0.0731363
0.0729217
0.0730118
0.0726864
0.0728131
0.0723754
0.0725406
0.0719782
0.07219
0.0715004
0.0717421
0.0710434
0.0712671
0.0705587
0.0708088
0.0700144
0.0702911
0.0736521
0.069728
0.0716958
0.0775968
0.0756193
0.0815983
0.0795875
0.0856693
0.0836266
0.0897997
0.0877271
0.0939888
0.0918872
0.0982349
0.0961049
0.102537
0.100379
0.106893
0.104708
0.111305
0.109092
0.115772
0.113532
0.120295
0.118027
0.124875
0.122578
0.129514
0.127187
0.134213
0.131856
0.138975
0.136586
0.143803
0.141381
0.1487
0.146243
0.153669
0.151176
0.158715
0.156182
0.16384
0.161267
0.16905
0.166435
0.174349
0.171688
0.179742
0.177034
0.185233
0.182475
0.190826
0.188017
0.196522
0.193661
0.202327
0.199411
0.208242
0.205271
0.214263
0.21124
0.22039
0.217313
0.226601
0.223489
0.232895
0.229732
0.239267
0.236086
0.245568
0.242417
0.251993
0.248772
0.258177