/*--------------------------------*- C++ -*----------------------------------*\
  =========                 |
  \\      /  F ield         | OpenFOAM: The Open Source CFD Toolbox
   \\    /   O peration     | Website:  https://openfoam.org
    \\  /    A nd           | Version:  10
     \\/     M anipulation  |
\*---------------------------------------------------------------------------*/
FoamFile
{
    format      ascii;
    class       volVectorField;
    location    "63.5";
    object      U;
}
// * * * * * * * * * * * * * * * * * * * * * * * * * * * * * * * * * * * * * //

dimensions      [0 1 -1 0 0 0 0];

internalField   nonuniform List<vector> 
28942
(
(0.00443875 -0.00226219 -3.438e-22)
(0.00600734 -0.00234699 -6.39242e-23)
(0.0179437 -0.0123914 -8.20308e-22)
(0.103305 0.0182366 -5.24846e-21)
(0.102343 0.0222789 1.71852e-21)
(0.0151671 0.000476229 0)
(0.018032 5.15595e-05 1.18606e-23)
(0.0208939 0.000614929 -1.05269e-23)
(0.135251 -0.0183695 -2.53402e-22)
(0.133903 -0.016734 7.21436e-22)
(0.00981247 0.00401732 -6.78139e-22)
(0.0160956 0.00563629 2.5743e-22)
(0.00714926 0.00315624 0)
(0.00471518 0.00207052 0)
(0.047095 0.00206755 -1.61843e-23)
(0.0452188 0.00267416 -6.32548e-24)
(0.0893172 0.0158784 6.66339e-22)
(0.0870052 0.013847 1.07245e-21)
(0.0121678 -0.0151167 2.90489e-21)
(0.0293385 -0.0304758 -7.64475e-22)
(0.098122 0.0373819 9.49833e-22)
(0.0973 0.0344187 0)
(0.018761 0.00463529 1.17029e-21)
(0.00787344 0.0023674 5.52171e-22)
(0.0378307 0.00722313 9.47694e-22)
(0.0575746 0.00292313 -8.63952e-22)
(0.00764868 -0.0184985 8.4934e-21)
(0.00669421 -0.0165624 -3.12857e-21)
(0.0355208 -0.0253294 5.68598e-22)
(0.0193061 -0.0136857 1.96203e-22)
(0.0155567 -0.00143468 0)
(0.0194505 -0.00125641 -1.4644e-23)
(0.0246807 0.0044261 3.01035e-22)
(0.0354912 0.00195615 -4.82508e-23)
(0.0188265 0.0180094 1.31031e-21)
(0.0157204 0.0191186 -1.29983e-21)
(0.0321709 0.037614 -3.04619e-21)
(0.01867 0.0305316 -1.0669e-21)
(0.00833286 8.52106e-06 -9.94294e-24)
(0.00864903 0.0161957 -2.60991e-21)
(0.0306488 -0.00620322 0)
(0.051342 -0.0109695 0)
(0.112192 -0.0122506 -2.70044e-23)
(0.111707 -0.0122731 7.9744e-23)
(0.116163 -0.0121579 6.93889e-23)
(0.0294275 0.000218153 1.24202e-23)
(0.027404 -0.000596939 -2.00419e-23)
(0.0390828 -0.000501582 -9.06166e-23)
(0.0374595 -0.000570267 2.57855e-23)
(0.0304797 -0.00279885 -2.21878e-22)
(0.0227189 -0.00337609 1.43793e-22)
(0.128618 0.00140742 -3.97963e-22)
(0.127937 0.000930626 -3.71791e-22)
(0.134571 -0.0211432 -3.77781e-24)
(0.13302 -0.019416 1.37792e-22)
(0.082576 0.00638605 7.19779e-22)
(0.101834 -0.000729452 2.52034e-22)
(0.00306336 0.00162265 -5.67908e-22)
(0.00895645 0.00368406 0)
(0.00826916 0.0032934 2.3825e-22)
(0.00288719 0.00149007 4.90102e-22)
(0.000362912 0.000226588 -4.07397e-22)
(0.000193182 0.000122744 -3.91656e-22)
(0.109819 -0.0426109 0)
(0.104959 -0.0256088 1.28069e-22)
(0.12183 -0.0331044 -4.42836e-23)
(0.123468 -0.0437625 0)
(0.090116 -0.0328071 -6.37083e-22)
(0.0936209 -0.0352727 -4.18657e-22)
(0.0018898 -0.00113241 1.13675e-21)
(0.00249488 -0.00202155 -3.58179e-22)
(0.00488292 -0.00316253 8.88695e-22)
(0.0848907 -0.0457676 0)
(0.091215 -0.0396281 2.16213e-21)
(0.0805616 -0.0530356 5.84025e-22)
(0.114196 0.0123719 2.40888e-22)
(0.112802 0.00686223 -2.67065e-22)
(0.125165 0.0109582 -1.1568e-22)
(0.00468574 -0.00286326 -5.31915e-23)
(0.00634171 -0.00442803 4.43304e-22)
(0.051033 -0.0311584 1.24299e-22)
(0.0331718 -0.0205463 -2.56529e-22)
(0.00211491 -0.00059836 3.21424e-21)
(0.00516403 -0.00207665 -1.2524e-21)
(0.101013 0.0482451 1.23576e-23)
(0.0970534 0.055212 -7.60984e-22)
(0.0807384 0.0540118 6.9404e-22)
(0.0472147 0.0345137 -2.66935e-21)
(0.0444435 0.0316108 1.89036e-21)
(0.0294982 0.0205987 -1.1287e-22)
(0.0327188 0.0232514 -6.38937e-22)
(0.0379603 0.0283608 8.65972e-22)
(0.00441585 0.00271498 -5.96892e-23)
(0.00777753 0.00397095 -1.71965e-23)
(0.00319257 0.00201685 3.44599e-23)
(0.00192293 0.00163743 -4.60951e-22)
(0.00144862 0.00155824 5.6544e-22)
(0.0157449 0.0115452 -3.24194e-21)
(0.0174976 0.0136368 7.42321e-22)
(0.00881408 -0.00385231 0)
(0.101389 0.00515964 0)
(0.0984003 0.0156837 -3.95179e-21)
(0.0604402 0.0104757 1.93577e-21)
(0.0886797 0.0178815 0)
(0.135513 -0.00121682 0)
(0.134952 -0.00193543 0)
(0.133271 -0.00242528 -2.43954e-22)
(0.114976 0.0265818 -2.11166e-22)
(0.114069 0.0279859 2.08808e-21)
(0.11327 0.0254466 1.12051e-21)
(0.00229752 0.00130039 1.05956e-21)
(0.00151338 0.00077719 -1.18925e-21)
(0.0190771 -0.00554948 -5.53369e-22)
(0.0201631 -0.00508182 4.7292e-22)
(0.00911858 -0.00293841 9.34715e-22)
(0.00647667 0.0111435 1.47644e-21)
(0.0189686 0.0181514 3.45087e-21)
(0.0134655 0.0227937 2.72185e-22)
(0.00492089 0.0143019 -8.60795e-21)
(0.117019 0.0477389 5.50465e-23)
(0.107882 0.0582284 1.06255e-21)
(0.118346 0.0548619 -1.83246e-21)
(0.0391001 -0.0294238 7.278e-22)
(0.0240147 -0.0172686 -4.64604e-22)
(0.00532197 -0.000747813 -4.0959e-21)
(0.00453894 -0.00359784 0)
(0.0124971 -0.00168067 1.99901e-21)
(0.0219689 -0.0161337 7.75206e-22)
(0.0342625 -0.02779 -1.94618e-21)
(0.0369786 -1.7866e-05 6.31594e-23)
(0.0393025 0.000144562 -4.56382e-23)
(0.0347381 0.000170034 -1.95214e-24)
(0.0280606 -0.0419583 0)
(0.0296096 -0.0428506 0)
(0.0896216 -0.0186536 -4.61579e-22)
(0.0995893 -0.0220915 3.13675e-21)
(0.0870339 -0.0252788 0)
(0.0471272 -0.0401962 0)
(0.0581892 -0.051394 -7.79557e-22)
(0.0413145 0.0393358 2.08021e-21)
(-4.00868e-06 0.000212242 5.18338e-22)
(-0.000195996 0.000129596 -3.41973e-22)
(0.0223313 -0.0192446 -7.87764e-22)
(0.120476 -0.0120152 3.91278e-22)
(0.119859 -0.0119813 -7.57043e-23)
(0.11553 -0.0056767 -6.77409e-23)
(0.108468 0.00102772 9.02743e-23)
(0.117732 -0.000259333 1.86609e-22)
(8.12974e-05 0.000258574 1.99876e-22)
(0.0437501 0.03442 3.19327e-21)
(0.0618831 0.0463084 -7.85164e-22)
(0.0593212 0.0393683 -3.0005e-24)
(0.0241907 -0.000886584 6.06382e-24)
(0.0238362 -0.000878391 3.20527e-23)
(0.0258551 -0.000666347 1.35169e-24)
(0.0288577 -0.000651111 -1.57583e-23)
(0.0454233 0.0380894 1.33795e-22)
(0.0189631 0.0160593 0)
(0.000143247 -3.70699e-05 3.72577e-22)
(0.000427214 -0.00026247 -4.13346e-22)
(0.00186843 -0.0010245 2.88685e-22)
(0.0365844 -0.00773492 -1.85068e-21)
(0.0649087 -0.00211717 -7.55672e-22)
(0.0335202 -0.000251092 -2.26194e-24)
(0.0745205 -0.00763995 2.72339e-22)
(0.0707262 -0.0157304 6.55513e-23)
(0.0943089 0.039905 2.1375e-21)
(0.0914104 0.0454408 9.92806e-23)
(0.0887513 0.029075 1.2126e-21)
(0.0914767 0.0307914 -8.78761e-22)
(0.0987014 0.0410648 0)
(0.126087 -0.000401545 1.48365e-22)
(0.126855 -0.000838694 2.80142e-22)
(0.128092 -0.0122784 -2.93071e-22)
(0.129556 -0.0120794 5.01535e-22)
(0.117056 0.0241218 2.58855e-22)
(0.119114 0.02502 -7.32961e-22)
(0.117103 0.026135 0)
(0.115136 0.0248747 1.52655e-22)
(0.116675 0.0280584 0)
(0.11718 0.0360806 -5.48957e-22)
(0.115718 0.0381339 -2.99796e-22)
(0.111345 0.0419497 -5.38663e-22)
(0.113739 0.0400805 0)
(0.116429 0.0430548 1.78099e-21)
(0.113707 0.0449792 4.73885e-23)
(0.108339 0.044162 -3.02694e-22)
(0.0996371 0.0502683 -1.28291e-21)
(0.0984257 0.0454803 -2.26061e-22)
(0.0250136 -0.00852327 6.13797e-23)
(0.0328851 -0.00938521 -2.44929e-23)
(0.00629946 -0.00249845 -6.98344e-22)
(0.0328991 -7.79825e-05 -4.06657e-23)
(0.0420738 -0.000285285 0)
(-1.81967e-06 -4.15942e-05 4.37755e-22)
(1.41282e-05 -4.81326e-05 2.22918e-22)
(0.0380929 -0.00189955 1.88454e-23)
(0.0449474 -0.00184677 7.63157e-24)
(0.0444722 -0.00126477 0)
(0.0368543 -0.000859601 8.30708e-24)
(0.0888642 0.003948 -1.13735e-22)
(0.0881654 0.00355975 5.37774e-22)
(0.0890735 0.00368718 2.48753e-22)
(0.000670767 0.000270858 3.96345e-22)
(-0.000159955 -0.000129724 -5.73723e-22)
(-0.000201735 -0.000169502 4.8953e-22)
(0.00150267 0.00061855 0)
(8.03157e-05 8.8079e-05 1.14523e-21)
(0.000172443 -3.88576e-05 -8.26616e-22)
(0.00745645 0.00367752 -9.96884e-22)
(0.00145392 0.000782526 -1.18901e-21)
(0.00172285 0.000861793 0)
(0.00157199 0.00754093 0)
(0.000576956 0.00328 0)
(0.000313296 0.00197599 0)
(0.136676 -0.00123628 5.49371e-23)
(0.137678 -0.00107638 0)
(0.136052 -0.00202553 -6.4099e-23)
(0.0881147 -0.0148583 4.41525e-21)
(0.0901213 -0.0152667 -1.60271e-21)
(0.0890364 -0.0128827 0)
(0.103381 0.000218324 -6.78807e-24)
(0.104079 0.000213626 1.35858e-23)
(0.102673 0.000224163 -4.5927e-24)
(0.104765 0.000212104 0)
(0.105441 0.00021934 -8.65568e-24)
(0.106101 0.000220444 0)
(0.106097 -0.000477544 0)
(0.106744 0.000208714 3.20876e-23)
(0.10673 -0.000484525 0)
(0.105445 -0.000483399 -8.71806e-24)
(0.10477 -0.000494504 0)
(0.104083 -0.000504636 4.5428e-24)
(0.103381 -0.000518145 -6.78596e-24)
(0.102677 -0.000528659 4.58696e-24)
(0.107365 0.000194976 -3.07052e-23)
(0.107352 -0.000483608 -1.0732e-24)
(0.10195 0.000235445 3.14584e-28)
(0.101949 -0.000531338 -7.00969e-24)
(0.101208 0.000245635 3.72765e-23)
(0.107967 0.000189165 2.86589e-26)
(0.107969 -0.000472188 -1.07207e-24)
(0.101212 -0.00054186 1.38124e-23)
(0.10856 0.000182588 2.8823e-23)
(0.109139 0.000178694 -2.87993e-23)
(0.108566 -0.000461094 2.16076e-24)
(0.109146 -0.000447726 4.26189e-24)
(0.100482 0.000270117 -3.62681e-23)
(0.100478 -0.00055014 -9.09089e-24)
(0.109701 0.000173137 0)
(0.109709 -0.000435157 -4.20364e-24)
(0.0997265 0.000282724 4.48331e-27)
(0.0997257 -0.000550307 -4.49454e-27)
(0.110248 0.000169718 0)
(0.110256 -0.000420759 0)
(0.0989609 0.00029149 0)
(0.0989605 -0.000553483 0)
(0.110779 0.000164367 0)
(0.110787 -0.000407416 2.01183e-24)
(0.0981859 0.000300921 -1.87796e-23)
(0.0981853 -0.000554093 -4.58444e-27)
(0.111293 0.000160923 1.05386e-25)
(0.1113 -0.000392413 -2.14855e-24)
(0.0974015 0.000308656 1.88694e-23)
(0.0974011 -0.000555481 0)
(0.11179 0.000155473 0)
(0.111797 -0.000378404 0)
(0.0966094 0.000317664 -1.1924e-24)
(0.0966089 -0.000553051 2.04541e-23)
(0.11227 0.000151781 1.29824e-23)
(0.112277 -0.000362559 0)
(0.0958111 0.000324747 -9.68437e-26)
(0.0958091 -0.000549718 -1.93588e-23)
(0.112734 0.000146192 -1.9409e-23)
(0.112742 -0.000347745 -5.62853e-24)
(0.0949897 0.000324025 1.97216e-23)
(0.0949913 -0.000545271 0)
(0.113181 0.000142967 6.38651e-24)
(0.11319 -0.000328572 3.75285e-24)
(0.0941651 0.000332053 -9.96577e-24)
(0.0941669 -0.000543254 2.02051e-23)
(0.113609 0.000141518 -2.5448e-23)
(0.113627 -0.000303527 2.86822e-23)
(0.0933053 0.000322765 1.02624e-23)
(0.093317 -0.000546108 3.24557e-25)
(0.114028 0.000141643 0)
(0.114044 -0.000280342 1.36481e-23)
(0.0924373 0.00031517 -2.06172e-23)
(0.0924563 -0.000556396 4.12372e-23)
(0.114443 0.000134798 0)
(0.114448 -0.000263193 0)
(0.0935337 0.00118609 -1.01546e-23)
(0.0926633 0.0011855 -4.10302e-23)
(0.0915436 0.00030103 0)
(0.0915806 -0.000579017 -2.09793e-23)
(0.0952182 0.00117705 -6.38916e-24)
(0.0943794 0.00118286 1.25434e-24)
(0.0968275 0.0011482 0)
(0.0960211 0.00116264 -2.06592e-23)
(0.0983942 0.0011134 -3.99836e-26)
(0.0976157 0.00113136 0)
(0.0999216 0.00107449 0)
(0.0991629 0.00109442 0)
(0.101412 0.00102532 0)
(0.100671 0.00105244 0)
(0.102832 0.000975979 9.06746e-24)
(0.102121 0.000999475 2.28597e-24)
(0.104222 0.000938592 -8.74375e-24)
(0.103539 0.000956755 -9.05351e-24)
(0.105559 0.000905943 1.55126e-23)
(0.104892 0.000915667 1.9828e-23)
(0.106858 0.00087588 0)
(0.106214 0.000894778 0)
(0.108083 0.00083921 -6.79666e-26)
(0.107479 0.000857688 0)
(0.109244 0.000797969 0)
(0.108671 0.00081893 0)
(0.110343 0.000754418 0)
(0.109801 0.000776312 0)
(0.111377 0.000709606 0)
(0.110868 0.000732072 0)
(0.112345 0.000663799 0)
(0.11187 0.000686756 0)
(0.113247 0.000616818 0)
(0.112805 0.000640397 0)
(0.11409 0.000556111 -1.03779e-23)
(0.113673 0.000592266 0)
(0.114493 0.000525576 -3.34482e-24)
(0.114838 0.00012442 3.26326e-24)
(0.114841 -0.000249897 -3.2361e-24)
(0.113685 -0.000723173 0)
(0.114499 -0.000653874 -1.32897e-23)
(0.114099 -0.000687019 -6.86252e-24)
(0.112807 -0.000796974 1.88729e-24)
(0.113253 -0.000761159 -7.37461e-24)
(0.11187 -0.000863764 6.13114e-26)
(0.112346 -0.000831674 0)
(0.110868 -0.000925954 0)
(0.111377 -0.000894986 0)
(0.1098 -0.000986716 0)
(0.110342 -0.000956448 0)
(0.108666 -0.00104595 0)
(0.109241 -0.00101645 8.12197e-30)
(0.10747 -0.00110425 6.87173e-26)
(0.108076 -0.00107502 0)
(0.10622 -0.00115228 0)
(0.106849 -0.0011306 0)
(0.104908 -0.00119412 0)
(0.105568 -0.00117336 0)
(0.103538 -0.00123798 0)
(0.104229 -0.00121353 -4.59104e-24)
(0.10212 -0.00128346 1.20783e-24)
(0.102833 -0.00126541 -5.92129e-24)
(0.100666 -0.00132667 0)
(0.101404 -0.00130336 -4.81797e-24)
(0.0991608 -0.00135673 0)
(0.099919 -0.00134282 0)
(0.0976139 -0.00137907 0)
(0.0983923 -0.00136875 0)
(0.0960246 -0.00139253 0)
(0.0968254 -0.00138695 0)
(0.094391 -0.00139872 -5.22369e-24)
(0.095215 -0.00139479 0)
(0.0927188 -0.00141948 -2.10957e-23)
(0.0935607 -0.00140363 -5.24272e-24)
(0.0918565 -0.00143927 2.14473e-23)
(0.0917781 0.00118722 4.06563e-23)
(0.114883 0.000498134 6.53764e-24)
(0.114885 -0.000621566 -1.27511e-23)
(0.0906807 -0.000612967 0)
(0.0909845 -0.0014744 0)
(0.0908797 0.00118963 0)
(0.0906359 0.000279352 0)
(0.0939967 0.00203142 0)
(0.0922925 0.00206868 1.01835e-23)
(0.0931504 0.00204782 1.0301e-23)
(0.0956532 0.00199017 1.31174e-23)
(0.0948313 0.00201257 -2.62078e-24)
(0.0972341 0.00193634 4.06246e-26)
(0.0964499 0.00196383 0)
(0.0987735 0.0018802 0)
(0.0980087 0.0019086 0)
(0.100273 0.00182135 0)
(0.0995283 0.00185113 0)
(0.101734 0.00176153 0)
(0.101008 0.0017909 0)
(0.103145 0.001698 0)
(0.102444 0.00173122 0)
(0.104506 0.00163726 -3.66374e-26)
(0.103827 0.00166924 9.45165e-24)
(0.105811 0.00157108 -3.51215e-26)
(0.10517 0.00160267 -1.84404e-23)
(0.107079 0.0015001 0)
(0.10645 0.00153516 0)
(0.108284 0.00143023 3.39364e-26)
(0.107689 0.00146524 0)
(0.109426 0.00135774 0)
(0.108863 0.00139436 0)
(0.110507 0.00128248 0)
(0.109974 0.00132038 0)
(0.111524 0.00120523 0)
(0.111023 0.00124405 0)
(0.112476 0.00112649 0)
(0.112008 0.00116601 0)
(0.113362 0.00104572 0)
(0.112927 0.00108651 0)
(0.114191 0.000953347 7.08985e-24)
(0.113783 0.00100165 0)
(0.115216 0.000117292 0)
(0.115255 0.000471587 6.37098e-24)
(0.114967 0.000862291 0)
(0.114585 0.000907299 6.8973e-24)
(0.114592 -0.00103863 1.37382e-23)
(0.11497 -0.000989966 3.36594e-24)
(0.115256 -0.000593666 2.625e-23)
(0.115216 -0.000235486 0)
(0.11379 -0.00114138 0)
(0.114198 -0.00108928 -2.07468e-23)
(0.112929 -0.00124505 5.93947e-26)
(0.113368 -0.0011923 7.41947e-24)
(0.112008 -0.00134274 -6.13112e-26)
(0.112477 -0.00129441 0)
(0.111023 -0.00143775 0)
(0.111524 -0.00139044 0)
(0.109973 -0.00153097 0)
(0.110506 -0.00148459 0)
(0.10886 -0.00162193 0)
(0.109424 -0.00157675 -8.12195e-30)
(0.107686 -0.00171014 -1.37343e-25)
(0.10828 -0.00166642 0)
(0.106456 -0.00179205 0)
(0.107078 -0.00175225 0)
(0.105167 -0.00186831 2.31542e-24)
(0.105819 -0.00183062 0)
(0.103829 -0.00193667 0)
(0.104504 -0.00190069 -2.30576e-24)
(0.10244 -0.00200456 4.82803e-24)
(0.103136 -0.00197235 4.79795e-24)
(0.101004 -0.00206203 0)
(0.101728 -0.00203436 0)
(0.0995247 -0.00211269 0)
(0.10027 -0.00208832 0)
(0.0980043 -0.00215572 0)
(0.0987696 -0.00213512 0)
(0.0964435 -0.00219176 0)
(0.097229 -0.00217445 0)
(0.0948428 -0.0022229 8.33993e-26)
(0.0956483 -0.00220774 0)
(0.0932028 -0.00225192 -8.43626e-26)
(0.0940289 -0.00223784 0)
(0.0915219 -0.00230988 -2.20288e-23)
(0.0923658 -0.00227807 2.20187e-23)
(0.0914201 0.0020896 2.06727e-23)
(0.0901069 -0.00152066 0)
(0.0906683 -0.00235433 -4.46712e-23)
(0.0897816 -0.000652907 0)
(0.115331 0.000823391 0)
(0.115335 -0.000942309 -3.26032e-24)
(0.089975 0.00119377 5.22897e-23)
(0.0905415 0.00211192 2.08984e-23)
(0.0892137 -0.0015679 1.13006e-23)
(0.089805 -0.0024052 5.64475e-23)
(0.0897157 0.000254846 0)
(0.115091 0.00122413 2.69189e-23)
(0.115445 0.00116685 -1.32854e-23)
(0.115608 -0.000564292 -6.44683e-24)
(0.115683 -0.000893945 3.2031e-23)
(0.0914012 0.00299824 7.3352e-23)
(0.0896411 0.00213436 -4.11848e-23)
(0.0896442 0.00306817 -1.83275e-22)
(0.090521 0.00302731 -4.18681e-23)
(0.0930744 0.00292399 2.04758e-23)
(0.0922439 0.00296272 -6.24597e-23)
(0.094698 0.00284913 -2.09714e-23)
(0.093893 0.00288687 -1.57856e-23)
(0.0962914 0.00277799 -5.24462e-24)
(0.0955018 0.00281533 -5.23935e-24)
(0.0978314 0.00270562 -4.06246e-26)
(0.0970688 0.00274256 0)
(0.0993281 0.00262952 0)
(0.0985845 0.0026679 0)
(0.100786 0.00255069 0)
(0.100062 0.00259048 0)
(0.102204 0.00246926 0)
(0.1015 0.00251017 0)
(0.103578 0.00238585 0)
(0.102896 0.00242769 0)
(0.104903 0.00229815 0)
(0.104246 0.00234262 0)
(0.106179 0.00220715 7.13561e-29)
(0.105549 0.00225357 0)
(0.107406 0.00210909 0)
(0.106799 0.00215844 0)
(0.108579 0.0020091 3.38414e-26)
(0.108 0.00205938 0)
(0.109692 0.00190603 0)
(0.109143 0.001958 0)
(0.110746 0.00179969 0)
(0.110227 0.00185324 0)
(0.111737 0.00169073 0)
(0.111249 0.00174549 0)
(0.112666 0.00157982 0)
(0.112209 0.00163549 0)
(0.113531 0.00146661 0)
(0.113106 0.00152367 0)
(0.114338 0.00134526 3.61046e-24)
(0.113942 0.00140679 -1.81783e-24)
(0.114721 0.00128455 -1.37429e-23)
(0.115571 0.000113264 -3.05432e-24)
(0.11568 0.000783761 1.2756e-23)
(0.115607 0.000449775 -9.77473e-24)
(0.115571 -0.000227504 0)
(0.114727 -0.00141533 -1.02073e-23)
(0.115449 -0.00128341 -2.93843e-23)
(0.115095 -0.0013494 2.37074e-23)
(0.113946 -0.00155298 0)
(0.114344 -0.00148272 0)
(0.113108 -0.00168281 -7.10559e-29)
(0.113535 -0.00161637 0)
(0.11221 -0.00181191 0)
(0.112667 -0.00174772 0)
(0.11125 -0.00193885 -6.30346e-26)
(0.111738 -0.00187562 0)
(0.110227 -0.00206354 0)
(0.110746 -0.00200154 0)
(0.109142 -0.00218499 0)
(0.109692 -0.00212475 0)
(0.108 -0.002302 6.86354e-26)
(0.108578 -0.00224415 0)
(0.106801 -0.00241239 7.03163e-26)
(0.107407 -0.00235816 0)
(0.105548 -0.00251633 0)
(0.106181 -0.00246509 0)
(0.104245 -0.00261233 0)
(0.104903 -0.00256532 0)
(0.102893 -0.00270135 0)
(0.103574 -0.00265785 0)
(0.101496 -0.00278047 0)
(0.1022 -0.00274179 0)
(0.100057 -0.00285192 -7.87192e-26)
(0.100782 -0.00281724 0)
(0.0985772 -0.00291515 0)
(0.0993219 -0.00288453 0)
(0.0970586 -0.00297105 0)
(0.0978227 -0.00294391 0)
(0.095502 -0.0030214 -1.95286e-28)
(0.096285 -0.00299679 0)
(0.0939087 -0.00306812 2.16809e-28)
(0.0947101 -0.00304517 0)
(0.0922819 -0.00312312 8.68629e-26)
(0.0930968 -0.0030916 0)
(0.090625 -0.00320862 -4.55438e-23)
(0.0914558 -0.00316107 1.12165e-23)
(0.0889332 -0.00245402 1.14559e-23)
(0.0897992 -0.00326268 2.27839e-23)
(0.0890607 0.00119133 -2.04984e-23)
(0.0888651 -0.000695262 -2.18837e-23)
(0.115785 0.00111077 3.24452e-24)
(0.11579 -0.00122229 2.30857e-23)
(0.0887005 0.00213511 2.55671e-24)
(0.0883123 -0.0016222 0)
(0.0885202 0.00296139 2.8075e-22)
(0.0889695 -0.00331689 3.48975e-23)
(0.0880696 -0.00250625 4.66199e-23)
(0.0899599 0.00412707 -4.62743e-22)
(0.0895674 0.00428019 8.47888e-23)
(0.0888057 0.000234513 0)
(0.0909902 0.00395331 4.69802e-23)
(0.0903667 0.00406629 2.3944e-23)
(0.0925086 0.00383377 4.24724e-23)
(0.0917099 0.00388114 -6.46803e-23)
(0.0940903 0.00373384 -2.11912e-23)
(0.0933091 0.00378631 -1.05529e-23)
(0.0956271 0.00363751 1.06406e-23)
(0.0948628 0.00368474 1.0759e-23)
(0.0971372 0.00354221 0)
(0.0963834 0.00358879 -1.55658e-26)
(0.0986108 0.0034491 0)
(0.0978786 0.00349596 0)
(0.10005 0.00335394 3.96801e-26)
(0.0993346 0.0034018 0)
(0.101452 0.00325588 0)
(0.100755 0.00330537 0)
(0.102817 0.00315407 0)
(0.102139 0.00320545 0)
(0.10414 0.00304829 0)
(0.103484 0.00310172 0)
(0.105419 0.00293733 3.64146e-26)
(0.104785 0.0029935 0)
(0.10665 0.00282094 8.01183e-29)
(0.106041 0.00287998 0)
(0.107833 0.00269789 0)
(0.107248 0.00276008 0)
(0.108964 0.00257015 -6.76135e-26)
(0.108405 0.00263458 0)
(0.110039 0.00243796 0)
(0.109509 0.00250461 0)
(0.111057 0.00230168 0)
(0.110556 0.00237029 0)
(0.112016 0.00216211 0)
(0.111544 0.00223225 0)
(0.112914 0.00202018 0)
(0.112472 0.0020914 0)
(0.113751 0.00187603 0)
(0.11334 0.00194848 0)
(0.114531 0.00172846 -1.80248e-24)
(0.114148 0.00180162 0)
(0.115256 0.00157797 0)
(0.1149 0.00165297 -3.48759e-24)
(0.115925 0.00142928 -1.82604e-27)
(0.115598 0.00150339 0)
(0.116009 0.000745565 -1.29332e-23)
(0.116242 0.00136116 7.78814e-25)
(0.116111 0.00105837 6.32087e-24)
(0.115905 0.00010645 4.65103e-24)
(0.115941 0.000427351 -3.21037e-24)
(0.115943 -0.000535943 -1.61679e-24)
(0.115906 -0.000216281 1.61337e-24)
(0.116113 -0.00116463 0)
(0.116012 -0.000852969 -1.46969e-23)
(0.115602 -0.00162102 -6.60713e-24)
(0.116244 -0.00147189 -1.2623e-23)
(0.115931 -0.00154433 2.89923e-23)
(0.114905 -0.00178326 -3.47754e-24)
(0.115261 -0.0017016 0)
(0.114152 -0.00194759 0)
(0.114535 -0.00186453 0)
(0.113342 -0.00210806 -9.03074e-29)
(0.113754 -0.00202793 0)
(0.112474 -0.00226753 0)
(0.112916 -0.002188 0)
(0.111545 -0.00242522 6.30346e-26)
(0.112017 -0.00234666 0)
(0.110557 -0.00258017 0)
(0.111058 -0.00250314 0)
(0.10951 -0.00273092 0)
(0.110041 -0.00265618 0)
(0.108407 -0.00287592 0)
(0.108965 -0.00280425 0)
(0.107251 -0.00301351 -1.48448e-28)
(0.107836 -0.00294574 0)
(0.106042 -0.00314313 0)
(0.106653 -0.00307936 0)
(0.104785 -0.00326363 0)
(0.10542 -0.00320453 0)
(0.103482 -0.00337497 0)
(0.104139 -0.00332055 0)
(0.102136 -0.003476 0)
(0.102815 -0.00342666 0)
(0.10075 -0.00356771 7.87192e-26)
(0.101448 -0.00352304 0)
(0.0993244 -0.00365037 0)
(0.100042 -0.00361013 0)
(0.0978622 -0.00372512 0)
(0.0985978 -0.00368864 0)
(0.0963644 -0.00379376 -8.31961e-26)
(0.0971176 -0.00376007 0)
(0.0948327 -0.00385809 8.45689e-26)
(0.0956028 -0.0038264 0)
(0.093268 -0.00392148 -8.58814e-26)
(0.094054 -0.00388954 0)
(0.0916811 -0.00399483 1.12583e-23)
(0.0924733 -0.00395372 -2.22216e-23)
(0.090099 -0.00409616 -1.13087e-23)
(0.0908865 -0.00404099 2.29956e-23)
(0.0881295 -0.00336625 2.58047e-25)
(0.0893001 -0.00414942 2.31313e-23)
(0.0881297 0.00116885 -2.09451e-23)
(0.0879507 -0.00072409 0)
(0.0877571 0.00207934 -2.01956e-22)
(0.0874091 -0.0016556 0)
(0.116102 0.00174374 -3.2333e-24)
(0.116403 0.00165684 2.36842e-24)
(0.11642 -0.00110864 -1.23627e-23)
(0.116544 -0.00139587 -1.39986e-23)
(0.0874519 0.00287631 -1.96635e-22)
(0.0871984 -0.00255326 -4.70759e-23)
(0.0886166 0.00422992 0)
(0.0912384 0.00490154 -5.35239e-23)
(0.0872914 -0.0034152 -2.30904e-23)
(0.0884942 -0.00419856 3.49166e-23)
(0.0905401 0.00488235 1.07573e-22)
(0.087884 0.000212984 0)
(0.092397 0.00473511 0)
(0.0917868 0.00482437 -4.77815e-23)
(0.09382 0.00460509 0)
(0.0930889 0.00466778 0)
(0.0952928 0.00448825 0)
(0.0945578 0.00454451 1.0933e-23)
(0.0967354 0.00437781 0)
(0.0960163 0.00443299 0)
(0.0981595 0.00426795 0)
(0.0974499 0.00432231 0)
(0.0995577 0.00415879 0)
(0.0988622 0.00421369 0)
(0.100926 0.0040469 -3.96801e-26)
(0.100246 0.00410326 0)
(0.102261 0.00393108 0)
(0.101598 0.00398958 0)
(0.103562 0.00381021 0)
(0.102916 0.00387133 0)
(0.104824 0.00368362 0)
(0.104198 0.00374769 0)
(0.106045 0.00355054 -1.01104e-28)
(0.10544 0.00361796 0)
(0.107222 0.00341055 9.47006e-29)
(0.106639 0.00348146 0)
(0.108352 0.00326309 0)
(0.107793 0.0033377 0)
(0.109433 0.00310917 8.28712e-29)
(0.108899 0.00318691 0)
(0.110462 0.00294944 0)
(0.109955 0.00303 0)
(0.111437 0.00278467 0)
(0.110957 0.00286764 0)
(0.112355 0.0026159 0)
(0.111903 0.00270072 0)
(0.113216 0.00244435 0)
(0.112793 0.00253041 0)
(0.11402 0.00227093 0)
(0.113625 0.00235787 0)
(0.114767 0.00209621 0)
(0.1144 0.00218368 0)
(0.11546 0.00191912 3.45127e-24)
(0.11512 0.00200617 3.54055e-24)
(0.115788 0.00182993 -6.6112e-24)
(0.116321 0.000708512 -6.33187e-24)
(0.116543 0.00129561 0)
(0.116417 0.0010043 -6.39464e-24)
(0.116221 0.000100756 0)
(0.116253 0.000407002 6.46209e-24)
(0.116257 -0.000510498 9.64708e-24)
(0.116222 -0.000206082 -3.26137e-24)
(0.116324 -0.000811383 -1.89654e-23)
(0.115792 -0.00194902 3.3246e-24)
(0.116407 -0.00176327 1.23096e-23)
(0.116106 -0.00185949 0)
(0.115125 -0.00213741 -6.90906e-24)
(0.115465 -0.00204325 6.93189e-24)
(0.114403 -0.00232809 0)
(0.114771 -0.00223333 0)
(0.113628 -0.00251736 -1.08854e-28)
(0.114023 -0.00242273 0)
(0.112796 -0.00270612 0)
(0.113219 -0.00261189 0)
(0.111906 -0.00289314 0)
(0.112358 -0.00279995 0)
(0.11096 -0.00307687 0)
(0.11144 -0.00298555 0)
(0.109958 -0.00325552 0)
(0.110466 -0.00316696 0)
(0.108903 -0.00342733 6.82251e-26)
(0.109437 -0.0033424 0)
(0.107798 -0.0035907 -7.01678e-26)
(0.108357 -0.00351016 0)
(0.106643 -0.00374472 0)
(0.107226 -0.00366895 0)
(0.105443 -0.00388834 0)
(0.106049 -0.00381787 0)
(0.104199 -0.00402117 0)
(0.104826 -0.00395617 0)
(0.102915 -0.00414276 0)
(0.103562 -0.00408333 0)
(0.101593 -0.00425372 0)
(0.102259 -0.00419955 0)
(0.100234 -0.00435471 0)
(0.100918 -0.00430541 0)
(0.0988416 -0.004447 -8.12646e-26)
(0.0995422 -0.00440185 0)
(0.0974162 -0.00453238 8.2677e-26)
(0.0981328 -0.00449043 0)
(0.0959601 -0.00461276 -8.40264e-26)
(0.0966919 -0.00457311 0)
(0.0944755 -0.00469024 0)
(0.0952211 -0.00465171 0)
(0.0929652 -0.00476681 0)
(0.0937229 -0.00472833 0)
(0.0914464 -0.00484863 8.87731e-26)
(0.0922084 -0.00480632 1.1299e-23)
(0.0899215 -0.00494802 -5.85286e-23)
(0.0906792 -0.00489534 0)
(0.0877021 -0.00425633 -3.47178e-23)
(0.0891645 -0.00500333 -2.49356e-25)
(0.0872015 0.00114316 6.53861e-23)
(0.0870302 -0.000746185 0)
(0.116693 0.00157411 -1.22845e-23)
(0.116695 -0.00167789 -2.37439e-23)
(0.0867296 0.00200817 -3.44788e-23)
(0.087515 0.00370256 8.93018e-25)
(0.0865069 0.00280325 9.8078e-23)
(0.0865103 -0.00167713 0)
(0.0863159 -0.00257906 1.1744e-23)
(0.0894225 0.00483539 -1.00213e-22)
(0.0884073 0.0047193 8.57052e-23)
(0.0869699 0.00381863 -8.44975e-23)
(0.0864438 -0.00345204 -3.52215e-23)
(0.0868933 -0.00430564 2.34386e-23)
(0.0884189 -0.00507122 2.30271e-23)
(0.0869556 0.000191864 0)
(0.0926708 0.0055873 2.99573e-24)
(0.0909958 0.00559344 4.46034e-25)
(0.0918902 0.0055777 2.33493e-23)
(0.0939267 0.00545665 2.31693e-23)
(0.0933032 0.0055298 -2.32896e-23)
(0.0952758 0.00531501 4.29714e-26)
(0.0945832 0.0053834 0)
(0.0966483 0.00519178 0)
(0.0959644 0.00525169 0)
(0.0980031 0.00507227 0)
(0.0973277 0.00513218 0)
(0.0993404 0.00495185 0)
(0.0986742 0.00501204 0)
(0.100655 0.00482952 4.01655e-26)
(0.100001 0.00489116 0)
(0.101943 0.00470297 0)
(0.101302 0.00476686 0)
(0.103202 0.00457103 0)
(0.102576 0.00463776 0)
(0.104429 0.00443261 0)
(0.103819 0.0045027 0)
(0.10562 0.0042869 0)
(0.105029 0.00436072 0)
(0.106774 0.00413324 -3.63135e-26)
(0.106202 0.00421111 0)
(0.107887 0.00397123 1.09215e-28)
(0.107336 0.00405331 0)
(0.108957 0.00380069 0)
(0.108428 0.00388701 0)
(0.109981 0.00362224 6.72829e-26)
(0.109475 0.00371241 0)
(0.110956 0.0034367 0)
(0.110475 0.00353031 0)
(0.11188 0.00324512 0)
(0.111425 0.0033416 0)
(0.112752 0.00304881 0)
(0.112323 0.00314748 0)
(0.11357 0.0028493 0)
(0.113168 0.00294937 0)
(0.114333 0.002648 0)
(0.113958 0.00274881 0)
(0.115043 0.0024461 5.63055e-26)
(0.114695 0.00254705 0)
(0.115702 0.00224364 -3.46635e-24)
(0.115379 0.00234525 0)
(0.11631 0.00204002 3.2912e-24)
(0.116012 0.00214136 0)
(0.116871 0.00184113 3.12244e-24)
(0.116595 0.00194037 -3.20217e-24)
(0.116824 0.00122888 6.17769e-24)
(0.117134 0.00174579 0)
(0.11697 0.00149413 9.19437e-24)
(0.116613 0.000673126 0)
(0.116705 0.000953898 0)
(0.116519 9.53265e-05 0)
(0.11655 0.000385736 0)
(0.116553 -0.000485459 0)
(0.11652 -0.00019609 0)
(0.116709 -0.00105433 1.25996e-23)
(0.116616 -0.000772983 3.12856e-24)
(0.116967 -0.0015948 3.08813e-24)
(0.116826 -0.00132783 2.46548e-23)
(0.116601 -0.00205088 1.60871e-23)
(0.117134 -0.00185305 3.06661e-24)
(0.116873 -0.00194965 -6.24732e-24)
(0.116017 -0.00226163 3.30852e-24)
(0.116314 -0.00215519 -1.98397e-23)
(0.115383 -0.00247602 -9.76414e-29)
(0.115706 -0.00236801 0)
(0.114699 -0.00269124 0)
(0.115047 -0.00258327 0)
(0.113962 -0.00290791 -1.27065e-28)
(0.114337 -0.0027995 0)
(0.113172 -0.00312448 0)
(0.113573 -0.00301633 0)
(0.112327 -0.00333918 0)
(0.112756 -0.0032322 0)
(0.11143 -0.00355002 0)
(0.111885 -0.00344523 0)
(0.110481 -0.00375493 0)
(0.110961 -0.00365335 0)
(0.109482 -0.00395198 -1.3626e-25)
(0.109987 -0.00385456 0)
(0.108435 -0.00413953 0)
(0.108964 -0.00404704 0)
(0.107343 -0.00431641 0)
(0.107895 -0.00422938 0)
(0.106209 -0.00448161 0)
(0.106781 -0.00440052 0)
(0.105034 -0.00463465 0)
(0.105627 -0.00455969 0)
(0.103822 -0.00477536 -7.64377e-26)
(0.104433 -0.00470653 0)
(0.102574 -0.00490426 0)
(0.103203 -0.00484126 0)
(0.101294 -0.0050222 0)
(0.101938 -0.00496454 0)
(0.0999813 -0.00513052 8.12646e-26)
(0.100641 -0.00507748 0)
(0.0986397 -0.00523096 -3.19339e-28)
(0.099314 -0.00518162 0)
(0.0972707 -0.0053254 1.67722e-25)
(0.0979585 -0.00527884 0)
(0.0958768 -0.00541556 0)
(0.0965767 -0.00537093 0)
(0.0944604 -0.00550289 0)
(0.0951711 -0.00545934 0)
(0.093025 -0.00558734 -3.732e-28)
(0.0937454 -0.00554623 0)
(0.0915734 -0.0056744 0)
(0.0923 -0.00562968 0)
(0.0901457 -0.00578482 -3.46828e-23)
(0.0908554 -0.00572606 0)
(0.0876593 -0.0051319 -2.39118e-25)
(0.0894411 -0.0058515 5.87472e-23)
(0.0862329 0.00109997 0)
(0.0900991 0.00557906 1.35319e-22)
(0.0857658 0.0019418 2.35536e-23)
(0.117075 0.00209957 -3.11657e-24)
(0.117323 0.0019945 0)
(0.117227 -0.00151578 3.00093e-24)
(0.117382 -0.00175663 -5.95634e-24)
(0.0861099 -0.00076444 0)
(0.0856049 -0.0016893 0)
(0.0857086 0.00287813 0)
(0.0854299 -0.00259608 -1.15669e-23)
(0.085591 -0.00349015 -2.31938e-23)
(0.086081 -0.00435927 0)
(0.08689 -0.00519381 5.94826e-23)
(0.088721 -0.00591751 -4.73826e-23)
(0.0860171 0.000167762 0)
(0.0928503 0.00630705 -1.12215e-26)
(0.0891542 0.00552389 4.23715e-23)
(0.0912369 0.00635588 -1.50919e-22)
(0.0920426 0.00634797 4.4291e-23)
(0.0943293 0.00624049 -1.44603e-23)
(0.0936028 0.00625571 -2.31503e-23)
(0.0955944 0.00612703 0)
(0.0949758 0.00619482 0)
(0.0968697 0.0059804 -4.29675e-26)
(0.0962215 0.00605106 0)
(0.0981521 0.00585004 0)
(0.0975137 0.0059142 0)
(0.0994154 0.00572178 0)
(0.0987859 0.00578609 0)
(0.10066 0.00559145 0)
(0.10004 0.00565693 0)
(0.101884 0.00545741 -4.01655e-26)
(0.101275 0.00552506 0)
(0.103085 0.00531774 0)
(0.102488 0.00538837 0)
(0.104259 0.00517126 0)
(0.103675 0.00524544 0)
(0.105404 0.00501689 0)
(0.104835 0.00509513 0)
(0.106517 0.00485375 0)
(0.105964 0.00493647 0)
(0.107596 0.00468123 3.60674e-26)
(0.107061 0.0047687 0)
(0.108638 0.00449897 1.2245e-28)
(0.108122 0.00459134 0)
(0.109639 0.00430697 0)
(0.109144 0.00440417 0)
(0.110599 0.00410578 -1.0726e-28)
(0.110125 0.00420748 0)
(0.111514 0.00389631 0)
(0.111062 0.00400202 0)
(0.112381 0.00367982 0)