/*--------------------------------*- C++ -*----------------------------------*\
  =========                 |
  \\      /  F ield         | OpenFOAM: The Open Source CFD Toolbox
   \\    /   O peration     | Website:  https://openfoam.org
    \\  /    A nd           | Version:  10
     \\/     M anipulation  |
\*---------------------------------------------------------------------------*/
FoamFile
{
    format      ascii;
    class       volScalarField;
    location    "3.5";
    object      p;
}
// * * * * * * * * * * * * * * * * * * * * * * * * * * * * * * * * * * * * * //

dimensions      [0 2 -2 0 0 0 0];

internalField   nonuniform List<scalar> 
40874
(
0.614373
0.694631
0.148596
0.228196
0.134642
0.0449466
-0.0712807
0.118635
0.206736
0.346294
0.534027
0.481944
0.336955
0.453268
0.468817
0.530744
-0.156223
-0.129707
0.233085
0.328692
0.32664
0.294854
0.191787
0.391411
0.382116
0.081477
0.106269
0.112755
0.0617884
-0.118635
-0.0979119
0.0110411
-0.00699715
-0.481786
-0.531284
-0.50005
-0.456064
-0.00668763
-0.0021478
-0.0103978
-0.00730997
-0.00828641
-0.00888935
-0.012881
-0.00981159
-0.011168
-0.0139923
0.324238
0.435137
0.508897
0.410739
0.158831
0.257743
-0.16911
-0.209759
-0.0978352
-0.0664069
-0.0909015
-0.224602
-0.359357
-0.332782
-0.0261657
0.105699
0.0800454
-0.0314861
-0.487135
-0.526947
-0.485535
-0.448811
-0.446678
-0.450378
0.920173
0.924888
0.911573
-0.017284
0.0328904
0.0503343
-0.0540976
-0.00846691
0.00371222
-0.00943545
-0.00241303
0.48407
0.534768
0.542338
0.505415
-0.0368154
-0.0304864
-0.016167
-0.125968
-0.278029
-0.208378
-0.223672
-0.341871
-0.268613
-0.00368209
0.00087882
-0.012349
-0.00975956
-0.00701896
0.22836
0.213594
-0.447395
-0.456537
-0.405533
-0.398691
0.412511
0.418702
0.904423
0.887894
-0.399343
-0.429999
0.201265
-0.0201741
-0.0207028
0.00140122
0.00702264
0.130941
0.169011
0.448456
0.59845
0.553906
0.443431
0.460943
-0.0130821
-0.0149559
-0.00720135
-0.0160771
-0.0313169
-0.0491607
0.213024
-0.00612015
0.0506867
0.0511124
0.674611
-0.0583272
-0.0638041
-0.113663
-0.451739
-0.417597
-0.415401
-0.45286
-0.481322
-0.487164
-0.485016
-0.472489
-0.448559
0.895277
0.926511
0.919269
-0.185716
-0.208429
-0.120795
-0.408748
-0.41414
-0.409471
-0.416117
-0.403611
-0.407705
-0.402574
-0.592682
-0.599145
-0.582004
0.897831
0.82625
0.723922
0.624341
0.659911
0.199206
-0.492778
0.758063
0.700956
0.572125
0.7997
0.00668405
0.0114935
-0.41598
-0.419123
-0.438051
-0.404126
-0.393196
-0.468373
-0.451867
-0.464472
-0.456308
0.000551025
0.000499303
0.00046035
0.440135
0.451181
0.429056
0.316767
0.254403
0.865872
0.88702
0.902057
0.858314
-0.0879083
-0.184844
-0.308997
-0.203837
-0.501456
-0.494289
-0.487334
-0.505048
0.000554554
0.000622558
-0.479511
-0.0206049
-0.0294991
0.192866
0.188714
0.323964
0.236878
0.23622
0.198602
0.198152
0.223725
0.215388
0.69934
0.795404
0.814654
-0.0112151
-0.0123725
0.207888
0.101513
0.139631
0.190901
-0.550297
-0.432924
-0.422275
-0.457706
-0.45511
-0.191244
-0.450671
-0.463276
-0.502051
-0.458483
-0.432344
0.108089
0.173012
-0.401694
-0.422019
-0.0167629
-0.0308502
-0.150014
-0.121663
0.622752
0.63297
0.75099
0.710099
-0.147232
-0.134653
-0.148252
-0.164736
-0.460726
-0.475953
-0.457022
-0.431231
-0.40872
-0.398644
-0.395804
-0.386114
-0.383894
0.862801
0.823134
0.877189
0.613624
0.59166
0.596609
-0.492619
0.000384472
-0.203029
0.0458131
-0.0243975
-0.0177253
-0.0114084
-0.00538751
0.000685605
0.00586358
0.00970615
0.0140278
0.0180454
0.0215388
0.0247989
0.0276643
0.0303754
0.0327758
0.035047
0.0370629
0.0389492
0.0405836
0.0422162
0.0436505
0.044952
0.0461048
0.0471766
0.0481117
0.0489664
0.0496985
0.0503529
0.0508946
0.0513598
0.0517194
0.0520008
0.0521777
0.0523034
0.052355
0.0522268
0.0516839
0.0508433
0.0511582
-0.0452648
-0.0356236
-0.0445868
-0.0538414
-0.0640672
-0.0540537
-0.030013
-0.0378477
-0.016584
-0.0230095
-0.0040675
-0.0102374
0.00637522
0.00199857
0.0146569
0.0106528
0.0216232
0.0183065
0.0274303
0.0246506
0.0323173
0.0299762
0.0362983
0.0344591
0.0399396
0.0382175
0.0427994
0.0414354
0.0451884
0.0440502
0.0471318
0.0462124
0.0486642
0.0479465
0.0498127
0.0492842
0.0505996
0.0502494
0.0509995
0.0508548
0.0507575
0.0510229
0.0506446
-0.0182587
-0.0259677
-0.0059331
-0.0118098
0.00534295
-0.000254676
0.0131166
0.0096164
0.0202773
0.016661
0.0267263
0.0236341
0.0321088
0.0295243
0.0366491
0.0344659
0.0404926
0.0386456
0.0436862
0.0421439
0.0464066
0.0451083
0.0486425
0.0475765
0.050461
0.0495998
0.0518936
0.0512225
0.0529629
0.0524716
0.0536789
0.0533648
0.0540463
0.0539013
0.0541187
0.0541447
0.0532187
0.0536798
-0.075194
-0.0877641
-0.0754699
-0.0640101
-0.102751
-0.088601
-0.119305
0.0492219
0.049055
0.0530744
-0.0346141
-0.0265914
-0.0429851
-0.0630549
-0.0750535
-0.166216
-0.133255
-0.128942
-0.0989818
-0.113652
-0.0735208
-0.0853825
-0.0532869
-0.0628452
-0.0363724
-0.0451577
-0.0215159
-0.0287021
-0.00896199
-0.0151739
0.00137607
-0.00328366
0.00951763
0.00554155
0.0167268
0.0132699
0.0228749
0.0199318
0.0280952
0.0255989
0.0325078
0.0303875
0.0363056
0.0344823
0.0394858
0.0379721
0.0421352
0.0408739
0.044318
0.0432833
0.046076
0.0452489
0.0474405
0.0468065
0.0484405
0.0479844
0.0490449
0.0488046
0.0492138
0.0491586
0.0492777
0.048825
0.0527636
0.0492383
0.0501016
-0.0119663
-0.0192236
7.19085e-05
-0.00564461
0.0100071
0.00543447
0.0180999
0.0140521
0.0249832
0.0217432
0.0309093
0.0280602
0.0359202
0.0335249
0.0401517
0.0381254
0.0437259
0.0420181
0.0467271
0.0452914
0.0492564
0.0480495
0.051344
0.0503526
0.0530368
0.052238
0.0543633
0.0537448
0.0553407
0.0548951
0.0559749
0.0557007
0.0562918
0.0561684
0.0562092
0.0563211
0.0557688
0.0559683
0.0549829
0.0554503
-0.0524288
-0.024178
-0.0173249
-0.031896
-0.0500274
-0.0612264
0.0572726
0.054408
0.0566834
-0.152978
-0.103196
0.0480821
-0.0888788
0.0470994
-0.180264
-0.193703
-0.231314
-0.238995
-0.209734
-0.135595
-0.1565
-0.108038
-0.12178
-0.0816222
-0.0942055
-0.0598255
-0.0702959
-0.042253
-0.0508111
-0.0265489
-0.0342479
-0.0139818
-0.0200477
-0.00332729
-0.00840957
0.00538896
0.00120219
0.0129026
0.00929747
0.0193293
0.0162481
0.0248062
0.0221841
0.0294637
0.0272144
0.0334189
0.0315193
0.0367767
0.0351755
0.0395769
0.0382432
0.0418898
0.0407924
0.0437622
0.0428797
0.0452288
0.0445452
0.0463207
0.0458193
0.0470464
0.0467383
0.0473495
0.0472093
0.0473496
0.0474264
0.0467193
0.0471238
0.046251
0.0500706
0.0484746
0.0522069
-0.00470757
-0.0109668
0.00662876
0.00126951
0.0156217
0.0114028
0.0234415
0.0196046
0.0298575
0.0268295
0.0352516
0.0326534
0.0398549
0.0376495
0.0437561
0.0418857
0.047062
0.0454788
0.0498488
0.0485152
0.0521989
0.0510755
0.0541485
0.0532218
0.0557319
0.0549842
0.0569736
0.0563945
0.0578865
0.0574709
0.058472
0.0582204
0.0587196
0.0586409
0.058557
0.0586896
0.0580912
0.0583732
0.0577262
-0.040346
-0.0747405
-0.01376
-0.007633
0.0537342
0.0559543
-0.0206288
-0.180392
0.044047
0.0429755
-0.220811
-0.119342
-0.137329
-0.241063
-0.268765
-0.267417
-0.104861
-0.0901667
-0.190863
-0.214978
-0.147274
-0.167911
-0.115282
-0.130412
-0.088542
-0.101524
-0.0657579
-0.0766175
-0.0472187
-0.055949
-0.0316357
-0.0391253
-0.0185731
-0.0247772
-0.00747299
-0.0127824
0.00182075
-0.0026222
0.00967362
0.0059166
0.0163469
0.0131485
0.0220317
0.0193076
0.0268529
0.0245439
0.0309527
0.0289879
0.034416
0.0327626
0.0373119
0.035932
0.0397042
0.038569
0.0416415
0.0407282
0.0431609
0.0424524
0.0442929
0.0437734
0.0450641
0.0447284
0.0454092
0.045267
0.0454656
0.0454826
0.0448495
0.0452723
0.0443545
0.0462197
0.0446392
0.0496086
0.0478534
0.0515727
0.0036458
-0.00195501
0.0138383
0.00901993
0.0220268
0.0181099
0.0291345
0.0257118
0.0349966
0.0322137
0.0399025
0.0375477
0.0440769
0.0420753
0.0476198
0.0459208
0.0506247
0.0491847
0.0531663
0.0519494
0.0553047
0.0542829
0.0570797
0.0562358
0.0585187
0.0578397
0.0596404
0.0591184
0.0604524
0.060085
0.0609537
0.0607421
0.0611328
0.0610855
0.0609571
0.061088
0.0604817
0.0607587
0.0596344
0.0601246
-0.302553
-0.297958
-0.121911
-0.254121
0.058256
0.0590191
-0.0367453
-0.0283333
-0.0587266
-0.0463875
-0.109147
-0.33627
-0.290203
-0.244546
-0.342338
-0.303393
0.00238225
-0.00314465
-0.162745
-0.367302
-0.370652
-0.0734821
0.06064
0.0573705
0.05974
-0.356652
-0.213504
-0.274866
-0.243976
-0.270123
-0.19909
-0.220293
-0.157294
-0.177589
-0.122508
-0.138902
-0.0945083
-0.107765
-0.0711863
-0.0823092
-0.0519322
-0.0610235
-0.0360296
-0.0436274
-0.022561
-0.0289766
-0.0111192
-0.0165904
-0.00149072
-0.00609831
0.00664564
0.00275573
0.0135401
0.0102383
0.0194043
0.0165945
0.0243795
0.0220006
0.0286048
0.0265817
0.0321685
0.0304663
0.0351527
0.0337304
0.0376203
0.0364491
0.0396211
0.0386775
0.0411941
0.04046
0.0423684
0.0418298
0.0431763
0.0428192
0.0435729
0.0434171
0.0436647
0.0436643
0.0432079
0.0435342
0.0423515
0.0427538
0.0453151
0.0417481
0.0437156
0.0488874
0.0470722
0.0529093
0.0508332
0.0550909
0.0123221
0.00747637
0.0213886
0.0170617
0.0287782
0.0252537
0.0350314
0.0320359
0.040248
0.037761
0.0446269
0.0425267
0.0483555
0.0465659
0.0515305
0.0500067
0.0542323
0.0529362
0.0565246
0.0554261
0.058458
0.0575336
0.0600666
0.0593014
0.0613721
0.0607562
0.0623875
0.0619156
0.0631158
0.0627877
0.0635507
0.0633707
0.0636718
0.0636526
0.0634574
0.0636058
0.0629159
0.0632294
0.0620374
0.0625133
0.0614052
-0.00937365
-0.023139
-0.0159952
-0.0420443
-0.0315925
-0.147971
-0.348398
-0.31378
-0.395324
-0.394218
0.0406103
0.040094
-0.0918512
-0.0543548
0.056347
0.0586516
-0.327032
-0.243109
-0.378036
-0.200613
-0.138628
0.00774217
0.0126703
-0.251837
-0.279765
-0.205569
-0.227879
-0.16445
-0.184246
-0.128776
-0.145679
-0.0998123
-0.113475
-0.0760285
-0.0873472
-0.0562913
-0.06566
-0.0399008
-0.0477143
-0.0261019
-0.0326856
-0.0144179
-0.0199991
-0.0045753
-0.00928705
0.00376929
-0.000222832
0.0108492
0.00745945
0.0168689
0.0139865
0.0219861
0.0195375
0.0263272
0.0242491
0.0299929
0.0282414
0.0330663
0.0316012
0.035612
0.0344031
0.0376815
0.0367047
0.0393152
0.0385517
0.0405425
0.0399788
0.0413934
0.0410146
0.0418543
0.0416679
0.0419801
0.0419627
0.0416692
0.0418976
0.0412836
0.0444632
0.0410322
0.042734
0.0479939
0.0462055
0.0519519
0.0499187
0.0541027
0.021458
0.0171899
0.0292247
0.0254873
0.0356798
0.032601
0.0410989
0.038505
0.0456547
0.0434767
0.0494959
0.0476545
0.0527669
0.0511962
0.05556
0.0542186
0.0579448
0.0567999
0.0599756
0.0590017
0.0616929
0.0608715
0.0631246
0.0624433
0.0642873
0.063739
0.0651882
0.0647704
0.0658257
0.0655405
0.0661892
0.0660428
0.0662585
0.0662622
0.0660123
0.0661757
0.0654332
0.0657665
0.0644847
0.0650067
0.0630836
0.0638689
-0.393145
0.0396658
-0.068152
-0.111207
0.0610509
0.0621553
-0.274263
-0.427894
-0.405117
-0.0350025
0.00250618
-0.00317667
-0.00938322
-0.0167135
-0.0250604
-0.176296
-0.367329
-0.239219
-0.324284
-0.358186
0.0231894
0.0190486
0.0404252
0.0390708
-0.0466152
-0.439291
-0.132064
0.0635647
0.0598124
0.0622714
-0.262062
-0.291422
-0.21167
-0.235753
-0.169343
-0.189368
-0.133671
-0.150587
-0.104316
-0.118218
-0.0801352
-0.0916248
-0.0600641
-0.0696089
-0.0433109
-0.0512957
-0.0292526
-0.0359575
-0.0173847
-0.0230525
-0.0073739
-0.012165
0.00112663
-0.00294161
0.00834995
0.00489204
0.0145013
0.0115553
0.0197329
0.0172279
0.0241755
0.0220488
0.0279325
0.0261368
0.0310865
0.0295826
0.0337042
0.0324606
0.0358383
0.0348303
0.0375306
0.0367386
0.0388115
0.0382217
0.0397083
0.0393072
0.0402228
0.0400107
0.0403803
0.0403486
0.0401041
0.0403076
0.0392191
0.0397437
0.0384272
0.038828
0.0435806
0.0419198
0.0470439
0.0452961
0.0508767
0.0488925
0.055183
0.0529842
0.0574493
0.0307726
0.0271756
0.0372536
0.0341277
0.0427103
0.0401063
0.0472872
0.0450964
0.0511529
0.0493018
0.0544311
0.0528583
0.0572333
0.0558866
0.0596378
0.0584818
0.0617017
0.0607097
0.0634688
0.0626205
0.0649709
0.0642517
0.0662289
0.0656298
0.0672535
0.0667704
0.0680467
0.0676795
0.0686021
0.0683552
0.068904
0.0687863
0.0689278
0.0689527
0.0686464
0.0688272
0.0680284
0.0683819
0.0670352
0.0675815
0.0656056
0.0663855
0.0646629
-0.298072
-0.418708
-0.389765
0.0146226
0.00989721
0.00459259
-0.00137248
-0.00807725
-0.0160223
0.0378233
-0.40219
-0.439813
-0.0249144
0.00818951
0.0138908
-0.0843912
-0.448666
-0.447468
-0.441696
-0.168017
0.0661663
0.0648855
0.0584138
0.0608333
-0.333866
-0.36958
-0.269587
-0.299891
-0.216534
-0.241872
-0.173172
-0.19365
-0.137366
-0.154276
-0.107871
-0.121871
-0.0834543
-0.0950572
-0.0631711
-0.0728179
-0.0462201
-0.0542989
-0.031993
-0.0387774
-0.0199891
-0.0257222
-0.00984835
-0.0147018
-0.00123288
-0.0053546
0.0060998
0.00258849
0.0123467
0.00935431
0.0176661
0.0151185
0.0221892
0.020024
0.0260191
0.0241884
0.0292392
0.0277035
0.0319167
0.0306442
0.0341054
0.033071
0.0358479
0.0350315
0.0371759
0.0365631
0.0381151
0.0376936
0.0386724
0.0384401
0.0388579
0.0388139
0.0386202
0.0387975
0.0379646
0.0383358
0.0372161
0.0376153
0.0370448
0.035826
0.0366106
0.0396312
0.0383256
0.0426791
0.0411051
0.0460639
0.0443516
0.0497423
0.0478521
0.0538911
0.0517763
0.0561078
-0.00412483
0.00211185
0.0269487
0.0187892
0.0231081
0.0340733
0.0305852
0.0402117
0.037235
0.0454115
0.0429013
0.0498368
0.0477211
0.0535673
0.0517811
0.0567361
0.0552169
0.059442
0.0581427
0.0617681
0.0606493
0.0637772
0.0628103
0.0655143
0.0646784
0.067013
0.0662927
0.0682963
0.0676814
0.0693784
0.0688628
0.0702638
0.0698465
0.0709497
0.0706329
0.0714246
0.0712153
0.0716685
0.0715777
0.0716535
0.071696
0.0713458
0.0715392
0.0707042
0.0710703
0.0696772
0.0702433
0.0682139
0.0689972
0.0672626
-0.0331005
-0.058538
-0.451637
-0.00982284
-0.4719
-0.466853
0.0363493
0.0347943
0.0633464
0.0569188
0.059231
-0.0999169
-0.449101
-0.428057
-0.471064
-0.47298
-0.415174
-0.438496
-0.340683
-0.379778
-0.273749
-0.304974
-0.220031
-0.245545
-0.176149
-0.196938
-0.140046
-0.157052
-0.110463
-0.124501
-0.0859761
-0.0976226
-0.0656087
-0.0752954
-0.0485854
-0.0566973
-0.0342831
-0.0411045
-0.022207
-0.0279739
-0.0119848
-0.0168723
-0.00329662
-0.00745368
0.00410327
0.000559823
0.0104138
0.00739108
0.0157947
0.0132178
0.0203754
0.0181829
0.0242591
0.0224028
0.0275294
0.0259697
0.0302537
0.0289588
0.0324863
0.0314307
0.03427
0.0334336
0.0356377
0.0350055
0.0366145
0.0361746
0.0372106
0.0369594
0.0374354
0.0373706
0.037271
0.0374033
0.0367529
0.0370518
0.0359665
0.036409
0.0348112
0.0354363
0.0387815
0.0374546
0.0417332
0.0402142
0.0450397
0.0433688
0.0485956
0.0467826
0.052543
0.0505142
0.0546599
0.00152745
0.0161388
0.0108961
0.0250689
0.0207067
0.0332058
0.0292909
0.0395918
0.0365538
0.0449675
0.0423409
0.0496686
0.0474194
0.0536435
0.0517321
0.0570282
0.0554081
0.0599032
0.058526
0.0623658
0.0611839
0.06449
0.0634688
0.0663351
0.0654466
0.067946
0.0671696
0.0693549
0.0686759
0.0705848
0.0699929
0.0716507
0.0711393
0.0725596
0.0721261
0.0733096
0.0729559
0.0738935
0.0736245
0.0742951
0.0741198
0.0744892
0.0744212
0.0744429
0.0744998
0.0741155
0.0743185
0.0734573
0.0738326
0.0724052
0.0729865
0.0708936
0.0717103
0.0688581
0.0699572
0.0339362
0.0616807
0.0660321
0.0675564
-0.017228
-0.473582
-0.442099
-0.419507
-0.503419
0.0320205
0.0642601
-0.422348
0.732865
0.205063
0.206092
-0.0515488
0.669185
-0.437673
-0.49689
-0.502137
-0.491955
-0.45561
-0.343902
-0.382155
-0.275643
-0.307666
-0.221756
-0.247189
-0.177902
-0.198687
-0.141715
-0.15878
-0.112159
-0.126181
-0.0877234
-0.0993424
-0.0674007
-0.0770742
-0.050406
-0.0585089
-0.0361139
-0.042936
-0.0240317
-0.0298061
-0.0137908
-0.0186894
-0.00507895
-0.00924957
0.0023508
-0.00120775
0.00869463
0.0056551
0.0141112
0.0115166
0.0187281
0.0165179
0.022648
0.020774
0.0259541
0.0243769
0.0287135
0.0274015
0.0309803
0.029908
0.0327976
0.0319448
0.0341988
0.03355
0.0352095
0.0347528
0.0358436
0.0355732
0.0361142
0.0360247
0.0360207
0.0361136
0.0355748
0.0358415
0.0348062
0.0352403
0.0336979
0.0342703
0.031667
0.0329862
0.0205782
0.022831
0.0213909
0.0222768
0.0226583
0.023095
0.0234518
0.0237929
0.0241198
0.0244369
0.0247457
0.025047
0.0253416
0.0256299
0.0259121
0.0261883
0.0264586
0.0267229
0.0269813
0.0272335
0.0274795
0.0277191
0.0279524
0.0281791
0.0283993
0.0286127
0.0288191
0.0290184
0.0292103
0.029396
0.0295748
0.0297464
0.0299106
0.0300675
0.0302169
0.0303584
0.0304921
0.0306177
0.0307352
0.0308446
0.0309455
0.031038
0.031122
0.0311973
0.0312638
0.0313214
0.0313701
0.0314097
0.0314403
0.0314617
0.0314739
0.031477
0.031471
0.0314559
0.0314319
0.0313991
0.0313578
0.0313081
0.0312505
0.0311851
0.0311123
0.0310323
0.0309455
0.0308521
0.0307524
0.0306466
0.0305353
0.030419
0.0302973
0.0301674
0.0300299
0.0299032
0.0298133
0.0296921
0.0292946
0.0287333
0.029484
0.0290239
0.028975
0.028781
0.0286656
0.0285249
0.0284048
0.0282842
0.0281738
0.0280691
0.0279729
0.0278841
0.027803
0.0277286
0.0276596
0.0275941
0.0275294
0.0274622
0.0273888
0.027305
0.0272074
0.0270931
0.026961
0.026812
0.0266502
0.0264829
0.0263208
0.0261765
0.0260647
0.0259996
0.0259935
0.0260557
0.0261961
0.0264319
0.026782
0.0272228
0.0276185
0.0278667
0.0292111
0.0301795
0.0305391
0.030157
0.0327406
0.0321989
0.0354451
0.0348938
0.0378442
0.036678
0.0407759
0.0392846
0.0439916
0.0423678
0.0474379
0.0456856
0.0511954
0.04927
0.0553154
0.0532169
0.0598632
0.0575444
0.0669936
0.0649329
0.0623252
0.190094
0.0677095
0.0706336
0.0736035
0.0767515
0.0801058
0.0837644
0.0877225
0.0920277
0.0966756
0.101833
0.107589
0.11397
0.121021
0.128773
0.136997
0.145678
0.15585
0.170259
-0.433931
-0.54687
-0.465129
-0.497224
0.0688148
0.0703459
0.0716184
0.072727
0.0736951
0.074529
0.075233
0.0758168
0.0762908
0.076666
0.0769513
0.0771559
0.0772867
0.0773512
0.0773549
0.0773042
0.0772032
0.0770573
0.0768694
0.0766441
0.0763831
0.0760894
0.0757648
0.0754108
0.0750277
0.0746171
0.0741784
0.0737122
0.073217
0.0726926
0.0721367
0.0715485
0.0709247
0.0702639
0.0695615
0.0688152
0.0680193
0.0671708
0.0662628
0.0652913
0.0642477
0.0631265
0.0619193
0.0606182
0.0592068
0.0576509
0.0560291
0.0542758
0.0524418
0.0503791
0.0479534
0.0452428
0.0426489
0.0392784
0.0364081
0.0323991
0.0232036
0.00529364
-0.0311032
-0.121988
0.0698457
0.072844
0.0759401
0.0791959
0.0826669
0.0863984
0.0904063
0.09473
0.0993872
0.104366
0.109911
0.115916
0.122394
0.129237
0.136246
0.143275
0.151981
0.164449
0.179048
0.188604
0.191899
0.0212869
0.191576
-0.442094
0.171463
0.158223
0.147309
0.136888
0.127228
0.118535
0.110976
0.104315
0.0984339
0.0932418
0.0886073
0.0843994
0.0805766
0.0770523
0.0738586
0.0707988
0.0682124
0.0654579
0.0628389
0.0603512
0.0580738
0.0558569
0.0537942
0.0518065
0.0498838
0.0480495
0.0462917
0.0446023
0.0429672
0.0414012
0.0398735
0.0384503
0.0370287
0.0359162
0.0349553
0.0336913
0.0319306
0.0308225
0.0303397
0.0293984
0.0290448
0.0282881
0.0275467
0.0270958
0.0267665
0.0264518
0.0261925
0.0260168
0.0259241
0.0259047
0.0259486
0.0260448
0.0261807
0.0263422
0.0265155
0.0266885
0.026852
0.0269999
0.0271291
0.0272392
0.0273318
0.0274101
0.027478
0.0275394
0.0275982
0.0276577
0.0277207
0.0277891
0.0278643
0.0279473
0.0280379
0.028137
0.0282423
0.0283576
0.028473
0.0286084
0.0287204
0.0289054
0.0289579
0.0293347
0.0288779
0.0295795
0.0297789
0.0297819
0.0298418
0.0299597
0.0300903
0.0302156
0.0303354
0.030451
0.0305622
0.0306682
0.0307684
0.0308624
0.03095
0.031031
0.031105
0.0311717
0.0312308
0.0312819
0.0313249
0.0313594
0.0313853
0.0314023
0.0314104
0.0314094
0.0313994
0.0313802
0.031352
0.0313147
0.0312684
0.0312132
0.0311491
0.0310762
0.0309947
0.0309046
0.030806
0.030699
0.0305838
0.0304604
0.030329
0.0301896
0.0300421
0.0298871
0.0297247
0.0295548
0.0293775
0.0291926
0.0290035
0.028806
0.0286012
0.0283894
0.0281708
0.0279454
0.0277134
0.0274749
0.02723
0.0269788
0.0267214
0.0264578
0.0261883
0.0259127
0.0256312
0.0253435
0.0250494
0.0247488
0.02444
0.024125
0.0237956
0.0234691
0.0230952
0.0228001
0.0220846
0.021461
0.191234
-0.426835
-0.430697
-0.478188
-0.445191
-0.487229
-0.480331
-0.491693
-0.425564
0.0310316
0.0319884
0.0326201
0.0332094
0.0337342
0.0341455
0.0344565
0.0346948
0.0348454
0.0349091
0.0348836
0.0347707
0.0345696
0.0342799
0.0338996
0.0334265
0.0328589
0.0321945
0.0314299
0.030562
0.0295865
0.0284994
0.027295
0.0259683
0.0245125
0.022921
0.0211854
0.0192976
0.0172474
0.0150246
0.0126168
0.0100112
0.00719231
0.00414439
0.000848766
-0.00271414
-0.00656945
-0.0107386
-0.0152528
-0.0201433
-0.0254459
-0.031203
-0.0374546
-0.0442484
-0.0516443
-0.059704
-0.0685002
-0.0781147
-0.0886406
-0.100183
-0.112857
-0.126803
-0.142173
-0.159153
-0.178017
-0.198844
-0.221779
-0.247227
-0.275687
-0.307598
-0.343417
-0.379813
-0.492933
-0.504379
-0.514919
-0.524488
-0.518116
-0.533004
-0.544216
-0.525834
-0.546361
-0.559177
-0.533866
-0.553714
-0.571334
-0.533598
-0.550598
-0.582848
-0.576145
0.0303407
0.0301816
0.0311664
0.0304896
0.0317496
0.03097
0.032292
0.0314766
0.0327685
0.0318954
0.0331387
0.0322214
0.0334191
0.0324691
0.0336264
0.0326445
0.0337493
0.0327393
0.0337876
0.0327529
0.0337397
0.032684
0.0336066
0.0325322
0.0333871
0.0322961
0.0330804
0.0319743
0.0326847
0.0315651
0.0321976
0.0310659
0.0316172
0.0304746
0.0309407
0.0297884
0.030165
0.0290039
0.0292864
0.0281177
0.0283013
0.0271258
0.0272048
0.0260237
0.0259923
0.0248065
0.0246577
0.0234685
0.0231953
0.0220038
0.0215977
0.0204054
0.0198576
0.0186659
0.0179661
0.0167767
0.0159141
0.0147289
0.0136905
0.0125119
0.0112845
0.0101147
0.00868213
0.0075242
0.00586988
0.00472673
0.00283059
0.00170633
-0.000452408
-0.00155397
-0.00399995
-0.00507377
-0.00783232
-0.00887373
-0.0119764
-0.0129787
-0.0164585
-0.0174155
-0.0213116
-0.022215
-0.0265678
-0.0274099
-0.0322709
-0.0330392
-0.0384577
-0.0391435
-0.0451804
-0.0457713
-0.0524917
-0.0529757
-0.0604575
-0.0608187
-0.069144
-0.069368
-0.0786366
-0.0787036
-0.0890211
-0.0889132
-0.100409
-0.100102
-0.11291
-0.112384
-0.126675
-0.125901
-0.141843
-0.140797
-0.158576
-0.157231
-0.177129
-0.175404
-0.197667
-0.19553
-0.220363
-0.217855
-0.245584
-0.24269
-0.273851
-0.270478
-0.305339
-0.301723
-0.339996
-0.336773
-0.376705
-0.375472
-0.41545
-0.417378
-0.457817
-0.461694
-0.497206
-0.499558
-0.528448
-0.531507
-0.551161
-0.555215
-0.568053
-0.572021
-0.579996
-0.582678
-0.584927
-0.588288
-0.571076
-0.587437
-0.578989
-0.555156
-0.569072
-0.556087
-0.537073
-0.525765
0.0224024
0.022374
0.0214707
0.0210222
0.0203996
0.0202744
0.0197602
0.0195289
0.0190197
0.0186064
0.0183289
0.0178958
0.0174744
0.0170792
0.0166827
0.0162786
0.0158694
0.0154568
0.0150404
0.0146192
0.0141913
0.0137574
0.0133181
0.0128807
0.0124497
0.0120293
0.0115762
0.0111658
0.0106703
0.0102359
0.00963348
0.00934432
0.00884729
0.00825667
0.00775693
0.00725753
0.00683966
0.00623869
0.00570912
0.00522988
0.0047969
0.00419327
0.00363252
0.00306031
0.00261099
0.00178557
0.00140205
0.000744609
0.000146077
-0.000663394
-0.00107421
-0.00185704
-0.00248078
-0.002996
-0.00379552
-0.00455596
-0.00528074
-0.00593794
-0.00675246
-0.0074575
-0.00835838
-0.00923222
-0.00984245
-0.0108762
-0.011607
-0.0122954
-0.0131532
-0.0138214
-0.0142723
-0.0146904
-0.0147115
-0.0148302
-0.0142523
0.0296743
0.0281065
0.0278323
0.0275546
0.0271542
0.0267881
0.0265223
0.026347
0.0262443
0.0262053
0.0262237
0.0262901
0.0263926
0.0265183
0.0266553
0.0267939
0.0269268
0.0270494
0.0271598
0.0272581
0.0273461
0.0274265
0.0275022
0.0275765
0.0276519
0.0277309
0.027815
0.0279054
0.0280028
0.0281072
0.0282193
0.028337
0.0284634
0.028591
0.0287332
0.0288625
0.02903
0.0291339
0.0293227
0.0293453
0.0295116
0.0297513
0.0299055
0.0300171
0.03014
0.0302734
0.0304037
0.0305266
0.0306434
0.0307548
0.0308606
0.0309602
0.0310531
0.0311392
0.0312182
0.0312899
0.0313538
0.0314098
0.0314576
0.031497
0.0315277
0.0315496
0.0315625
0.0315663
0.0315609
0.0315464
0.0315226
0.0314897
0.0314477
0.0313967
0.0313367
0.0312677
0.03119
0.0311037
0.0310087
0.0309053
0.0307936
0.0306736
0.0305455
0.0304094
0.0302654
0.0301137
0.0299545
0.0297878
0.0296139
0.0294328
0.0292448
0.02905
0.0288482
0.0286394
0.0284238
0.0282016
0.0279728
0.0277376
0.0274961
0.0272484
0.0269946
0.0267348
0.0264691
0.0261976
0.0259202
0.025637
0.0253478
0.0250525
0.0247504
0.0244418
0.0241236
0.0237991
0.0234526
0.0231102
0.0226926
0.0224158
0.0218759
0.0221285
0.0213397
0.0216141
0.0216961
0.021407
0.0209147
0.020438
0.0200785
0.0196904
0.019317
0.0190126
0.0185725
0.0181603
0.0177947
0.0174073
0.0170099
0.0166096
0.0162051
0.0157966
0.0153845
0.0149687
0.0145491
0.0141252
0.0136976
0.0132663
0.0128332
0.0123958
0.0119608
0.0115391
0.0111054
0.0106417
0.0101937
0.00967933
0.00920776
0.00876612
0.00826167
0.00777145
0.00726864
0.00677795
0.00625944
0.00570317
0.00518422
0.00477122
0.00424959
0.00362938
0.00304373
0.00253609
0.00194291
0.00137626
0.000810007
0.000201148
-0.000453415
-0.00105591
-0.00165506
-0.00228731
-0.00289476
-0.00357721
-0.00429998
-0.0049772
-0.00570021
-0.00632794
-0.00714331
-0.00787634
-0.00861568
-0.00930163
-0.0100484
-0.0107557
-0.0113912
-0.0120161
-0.0125649
-0.0129054
-0.0131238
-0.013125
-0.0130251
0.0298467
0.0289677
0.028431
0.0280234
0.0276039
0.027214
0.0269033
0.0266757
0.0265196
0.0264268
0.0263922
0.0264083
0.0264654
0.026552
0.0266572
0.0267714
0.0268873
0.0269998
0.0271058
0.0272047
0.027297
0.0273844
0.0274691
0.0275535
0.0276396
0.0277294
0.0278242
0.0279249
0.0280323
0.0281461
0.0282668
0.028393
0.0285264
0.0286621
0.028807
0.0289466
0.0291014
0.0292317
0.0293906
0.0295208
0.0296461
0.029823
0.0299896
0.0301271
0.0302577
0.0303908
0.0305218
0.0306467
0.030765
0.0308773
0.0309836
0.0310833
0.0311762
0.031262
0.0313404
0.0314112
0.0314741
0.0315289
0.0315753
0.0316131
0.0316421
0.0316621
0.0316731
0.031675
0.0316676
0.0316511
0.0316253
0.0315903
0.0315463
0.0314931
0.031431
0.03136
0.0312801
0.0311916
0.0310946
0.030989
0.0308752
0.0307531
0.0306229
0.0304847
0.0303387
0.030185
0.0300238
0.0298551
0.0296793
0.0294962
0.0293063
0.0291094
0.0289057
0.0286951
0.0284779
0.0282541
0.0280239
0.0277873
0.0275445
0.0272955
0.0270406
0.0267798
0.0265131
0.0262407
0.0259625
0.0256787
0.025389
0.0250935
0.0247914
0.0244835
0.0241669
0.0238454
0.0235091
0.023178
0.0228219
0.0225161
0.0221761
0.0219315
0.0216793
0.0215354
0.0215048
0.0212483
0.0208426
0.020406
0.0200167
0.0196522
0.0192734
0.0189258
0.0185239
0.0181107
0.0177426
0.0173627
0.0169668
0.0165652
0.0161613
0.0157548
0.0153453
0.0149326
0.0145164
0.0140965
0.0136736
0.0132479
0.0128207
0.0123918
0.0119635
0.0115325
0.0110984
0.0106543
0.0101891
0.00971116
0.00920926
0.00873463
0.00827161
0.00778994
0.00730003
0.00679737
0.00630482
0.00577305
0.00527029
0.00481315
0.0043329
0.00374335
0.00315282
0.00261771
0.00206413
0.00150864
0.000944151
0.000367393
-0.00024005
-0.000835826
-0.00143552
-0.00204067
-0.00265268
-0.00329294
-0.00395268
-0.00459719
-0.00527554
-0.00587734
-0.0066609
-0.00729587
-0.0079462
-0.00859205
-0.00922881
-0.00984118
-0.0103963
-0.010882
-0.0112919
-0.0115424
-0.0116626
-0.0116064
-0.0113588
-0.0107355
-0.00981654
-0.00865604
-0.00743469
-0.00615406
-0.00521979
0.0303008
0.0295978
0.0289616
0.0284469
0.0279951
0.02759
0.0272499
0.0269828
0.0267844
0.0266482
0.0265691
0.0265409
0.0265555
0.0266035
0.0266754
0.0267626
0.026858
0.0269565
0.0270545
0.0271505
0.0272443
0.0273366
0.0274286
0.027522
0.0276183
0.0277188
0.0278244
0.0279359
0.0280536
0.0281774
0.0283076
0.0284428
0.028584
0.0287281
0.028878
0.0290264
0.0291815
0.0293286
0.0294856
0.0296297
0.0297679
0.0299288
0.0300936
0.0302427
0.0303808
0.0305159
0.0306482
0.030775
0.0308952
0.0310088
0.031116
0.0312163
0.0313096
0.0313953
0.0314735
0.0315437
0.0316059
0.0316596
0.0317048
0.0317412
0.0317687
0.0317871
0.0317964
0.0317964
0.0317872
0.0317687
0.0317409
0.0317039
0.0316578
0.0316026
0.0315383
0.0314652
0.0313832
0.0312926
0.0311934
0.0310857
0.0309697
0.0308455
0.0307132
0.030573
0.030425
0.0302693
0.030106
0.0299354
0.0297576
0.0295727
0.0293808
0.0291821
0.0289765
0.0287643
0.0285455
0.0283202
0.0280885
0.0278506
0.0276065
0.0273564
0.0271004
0.0268386
0.026571
0.0262979
0.0260191
0.0257348
0.0254449
0.0251495
0.0248481
0.0245415
0.024228
0.0239108
0.0235853
0.0232639
0.0229325
0.0226254
0.0223032
0.022043
0.0218083
0.0215886
0.0214105
0.0211459
0.0207793
0.0203796
0.0199992
0.0196356
0.0192671
0.0188964
0.0185142
0.018125
0.0177438
0.01736
0.0169671
0.0165687
0.0161676
0.0157639
0.0153573
0.0149472
0.0145337
0.0141168
0.013697
0.0132746
0.0128501
0.0124235
0.0119945
0.0115617
0.0111235
0.010682
0.0102258
0.00976078
0.00927259
0.00880475
0.00834325
0.00786899
0.00738568
0.00689216
0.0064021
0.00588563
0.00539048
0.004914
0.0044265
0.00385861
0.00330383
0.00277508
0.00224084
0.00169633
0.00114045
0.000576799
-1.58221e-06
-0.000581496
-0.00116364
-0.00175094
-0.00234505
-0.0029509
-0.0035701
-0.00418704
-0.00481389
-0.00543174
-0.00606578
-0.00667214
-0.00726934
-0.0078518
-0.00841064
-0.0089342
-0.00940107
-0.00979483
-0.0101049
-0.0102958
-0.0103543
-0.0102445
-0.00994855
-0.00940747
-0.00864363
-0.00766911
-0.00659795
-0.0054639
-0.00440391
0.0307398
0.0300301
0.0293694
0.0288062
0.0283256
0.0279055
0.0275459
0.0272518
0.0270222
0.0268523
0.0267371
0.0266711
0.026648
0.0266602
0.0266999
0.0267597
0.0268334
0.026916
0.0270039
0.027095
0.0271884
0.027284
0.0273823
0.0274841
0.0275901
0.0277012
0.027818
0.0279407
0.0280695
0.0282042
0.0283446
0.0284899
0.02864
0.0287932
0.0289503
0.0291078
0.0292683
0.0294263
0.0295856
0.0297406
0.0298931
0.0300524
0.0302139
0.0303671
0.0305112
0.0306498
0.0307841
0.030913
0.0310352
0.0311506
0.031259
0.0313603
0.031454
0.03154
0.0316181
0.0316879
0.0317493
0.0318021
0.0318461
0.0318812
0.0319071
0.0319239
0.0319313
0.0319294
0.0319182
0.0318976
0.0318677
0.0318286
0.0317802
0.0317227
0.0316562
0.0315807
0.0314964
0.0314035
0.0313019
0.0311919
0.0310735
0.030947
0.0308123
0.0306698
0.0305195
0.0303616
0.0301961
0.0300233
0.0298434
0.0296563
0.0294623
0.0292615
0.029054
0.0288399
0.0286192
0.0283922
0.0281589
0.0279194
0.0276739
0.0274225
0.0271653
0.0269023
0.0266338
0.0263598
0.0260804
0.0257957
0.0255057
0.0252105
0.02491
0.0246049
0.0242945
0.0239811
0.023663
0.0233468
0.0230272
0.02272
0.0224143
0.0221405
0.0218807
0.0216248
0.021372
0.0210845
0.0207447
0.0203771
0.0200093
0.019647
0.0192814
0.0189108
0.0185352
0.0181536
0.0177699
0.0173847
0.0169946
0.0165998
0.0162014
0.0158001
0.0153956
0.0149877
0.0145766