/*--------------------------------*- C++ -*----------------------------------*\
  =========                 |
  \\      /  F ield         | OpenFOAM: The Open Source CFD Toolbox
   \\    /   O peration     | Website:  https://openfoam.org
    \\  /    A nd           | Version:  10
     \\/     M anipulation  |
\*---------------------------------------------------------------------------*/
FoamFile
{
    format      ascii;
    class       surfaceScalarField;
    location    "29.5";
    object      phi;
}
// * * * * * * * * * * * * * * * * * * * * * * * * * * * * * * * * * * * * * //

dimensions      [0 3 -1 0 0 0 0];

internalField   nonuniform List<scalar> 
29080
(
0.0907231
-0.145249
-0.0153033
0.0698292
0.0509706
0.0397525
0.0112283
0.0279127
-0.0249427
-0.0141983
0.03988
0.00541301
-0.0340647
0.0366421
-0.00158432
0.00482223
0.0315391
-0.0584927
0.0475991
-0.0206455
-0.048509
0.0291631
0.050885
0.0323665
0.00467916
-0.0444742
0.00742853
-0.0300125
0.0678399
-0.00546088
0.0113088
-0.103352
-0.0159824
0.0608413
-0.0838424
0.055345
0.08224
0.0662576
-0.0181459
-0.107396
0.0377212
0.0652194
0.00445532
0.00080935
0.0361506
-0.0123295
-0.022027
0.0500535
0.0264954
0.0535439
-0.0882934
0.00825413
0.0200124
0.0748217
0.0204075
0.0635879
-0.00406945
0.00155232
0.00230836
-0.00360247
-0.000258209
-0.00871598
-0.0185393
0.0288076
-0.00733611
-0.00284199
0.00146212
-0.00678897
0.00176122
-0.00274205
-0.00764939
-0.0697306
0.00439555
0.00542702
0.059908
-0.0341799
-0.0485658
0.0130151
0.0412703
-0.0386417
-0.0368085
0.00475163
-0.00252729
-0.000168372
-0.00205597
0.00819359
-0.00344195
-0.00356814
0.0117617
0.00788421
-0.0139796
-0.00161794
0.00933378
-0.024757
-0.00299814
0.020679
0.00707608
0.00139103
-0.0193046
-0.00684334
0.0243474
0.00112316
-0.0240796
0.015747
0.00560228
0.0160358
0.0203902
-0.036825
0.012348
0.0313907
-0.00691365
0.0251927
-0.0485837
-0.013434
0.0188856
0.0123252
-0.00601805
0.0211345
0.010099
0.0208653
0.0316599
0.065389
0.0146467
-0.0427586
-0.0372772
0.011282
0.0585692
-0.00446218
-0.0439863
0.0392997
0.0159687
-0.0468645
0.0175248
-0.058254
-0.00484099
0.0150757
0.0480192
-0.0665554
0.0126969
-0.0450861
0.0198011
0.0772997
0.0279612
-0.0413563
-0.0639046
-0.028599
0.0245553
0.0813434
0.06287
-0.110709
0.0749664
-0.0271275
-0.0446113
0.0596419
0.0478394
-0.023392
0.00967937
-0.00331816
0.0170308
0.0216845
-0.0197622
-0.0253143
-0.00258916
0.00435037
-0.00533121
-0.061701
-0.0388381
0.0084594
0.0920797
-0.0280156
0.0243619
-0.0580473
0.055018
-0.0588306
-0.024203
0.05388
-0.0377
0.0696809
-0.0073415
0.0894028
-0.0409056
-0.0484973
-0.0615048
0.0508776
0.10003
-0.0285759
-0.029974
0.0199082
-0.0037801
0.0168716
-0.0416674
0.0131762
-0.0469302
0.00775618
0.00456898
0.0178552
-0.00632843
0.0319354
0.0136927
-0.0298204
0.0293475
0.00236549
-0.00189257
-0.059298
-0.00540948
0.034887
-0.00705724
0.0211176
-0.0410545
0.0188207
-0.0427892
0.00403447
-0.0263775
0.0279453
-0.0342947
-0.000210589
0.0385398
-0.0269725
0.00171819
0.0419294
-0.0408143
-0.00237947
0.00126433
-0.00129681
-0.000916782
0.044143
-0.024246
0.0129602
0.0204926
-0.00920683
-0.00982161
-0.0332543
0.01883
-0.0245774
0.0247008
0.0215611
0.031007
-0.014946
-0.0406384
0.0806637
-0.00477672
-0.0910962
0.0152092
-0.00363235
0.0549534
0.0293427
0.0688168
-0.0209616
0.0234039
-0.0712592
0.06748
0.0220382
-0.0207014
0.00390208
-0.0388966
0.0398758
-0.0048813
-0.0408774
0.0417416
0.00303788
-0.0136707
0.0416573
-0.0419022
0.0139156
0.040844
-0.0140842
-0.0404305
-0.0338654
0.0455782
-0.0459141
0.0342013
0.0460815
-0.0341459
-0.045801
-0.0310703
0.0453887
-0.0447116
0.0303932
0.0458332
-0.0318162
-0.0450873
0.0338409
0.0877032
-0.126321
-0.0756174
0.0808593
-0.0118762
-0.0517481
0.00944876
0.0541755
-0.0488771
-0.0169774
0.0539784
0.0116387
-0.0123649
-0.0481508
0.00910171
-0.0492111
-0.0527346
0.00695642
0.0523741
-0.00659594
0.00974007
-0.0530259
-0.000666895
-0.0195336
0.00192452
0.018276
-0.0115383
0.0109059
-3.45631e-05
0.00117909
-0.0124624
-0.000254995
0.0024926
-0.0208472
-0.0187331
-0.00299784
0.0024263
0.0109103
-0.0277188
0.0194967
0.0409248
-0.0172696
-0.0431519
0.0231907
0.0569806
-0.0606747
0.00467954
0.059436
-0.00895472
-0.0121563
0.0142677
-0.00312188
0.00507308
0.00919913
-0.0374207
-0.0106751
-0.0341197
0.00244141
-0.0311181
-0.0176926
0.0146911
-0.0343727
-0.0161803
0.0194349
0.0370356
-0.0481157
-0.0232926
-0.0180777
-0.0154509
-0.0236573
0.022928
-0.0265274
-0.0147217
0.0257982
0.0474439
-0.0482113
-0.0257601
-0.0243291
-0.0145028
-0.0274864
0.0272675
-0.0282073
-0.0143156
0.02802
0.0489392
-0.0496363
-0.0275102
-0.0267585
-0.0144415
-0.0278242
0.0279502
-0.027858
-0.0143751
0.0277915
0.05022
-0.0506833
-0.0273946
-0.0272405
-0.0143764
-0.0275231
0.0275244
-0.0279931
-0.0140582
0.027675
0.0509999
-0.0511923
-0.0278007
-0.0272066
-0.0137646
-0.0282007
0.027907
-0.0290394
-0.0132126
0.0284874
0.0512744
-0.0512552
-0.0290586
-0.0281186
-0.0127652
-0.0293511
0.0289037
-0.0300455
-0.0121622
0.0294425
0.0511167
-0.0508303
-0.0303319
-0.0294897
-0.0117498
-0.0299437
0.0295312
-0.0298522
-0.0113115
0.029414
0.0503833
-0.0497602
-0.0304753
-0.0303907
-0.0268594
-0.0284696
0.0440175
-0.0263452
-0.0297605
0.0292464
0.0489716
-0.0501229
-0.025194
-0.0292582
-0.03618
-0.0140634
0.0204828
-0.0144472
-0.0374757
0.0157429
0.0432862
-0.0402643
-0.0174692
-0.0209
-0.0387042
-0.00765347
0.00888203
-0.00115382
-0.0378884
0.000337935
0.0394273
-0.0409191
0.000337915
-0.00849038
-0.00614377
0.00606865
-0.0388399
-0.00519219
-0.00292341
0.00121092
0.0415883
-0.0033168
0.042135
-0.0138762
-0.0390479
0.0404988
-0.0382286
-0.00105925
-0.00732852
0.0415451
0.00628225
-0.00920912
0.0434689
0.0449052
-0.0449922
0.0031249
0.0474241
-0.00583571
0.0386165
-0.0382682
-0.00554057
-0.037195
0.0368529
0.00922405
0.00175951
-0.0359446
0.0351459
0.0212815
0.0166513
-0.0317671
0.0483802
0.0274044
0.0326252
-0.0491867
0.0498288
0.0288892
0.0286074
-0.0503072
0.0506515
0.0285594
0.0289641
-0.0508865
0.0510171
0.0277765
0.0282523
-0.0510369
0.0509481
0.0276131
0.0276552
-0.0507634
0.0505157
0.0281979
0.0279763
-0.0502321
0.0499139
0.0275857
0.0283036
-0.0495657
0.0490725
0.0234212
0.0261464
-0.0487379
0.0498466
0.0135824
0.0197695
0.00729579
0.0116265
-0.0108303
0.0466278
0.0445524
0.037106
-0.0385415
-0.00923953
-0.00600394
0.0406636
-0.044557
-0.0193992
-0.0159556
0.0464253
-0.0472373
-0.024948
-0.0224609
0.0480371
-0.0488479
-0.0266993
-0.0259587
0.0495951
-0.0502632
-0.0267265
-0.0264934
0.0508165
-0.05127
-0.0273472
-0.0266533
0.0516271
-0.0518971
-0.0287886
-0.0277615
0.052056
-0.052069
-0.0303189
-0.0293308
0.051892
-0.0514962
-0.0308711
-0.0305677
0.0509004
-0.0483244
-0.02777
-0.029854
0.0455764
-0.0457419
-0.0173036
-0.023648
0.0444731
-0.0418902
-0.0022449
-0.00975926
0.00583569
0.0128552
-0.0137444
0.0443581
0.0106922
0.0437081
-0.0121685
-0.0399759
0.0203016
-0.019651
-0.0410811
0.0491047
-0.0485559
-0.0113791
0.0162096
0.0488328
-0.0159377
0.0154739
0.0473635
-0.0430839
0.0214833
0.0373657
-0.0377868
-0.00511945
-0.0370647
0.0360042
0.0102845
0.00206049
-0.0374057
0.0374309
0.0212563
0.0152498
-0.0459058
0.0472157
0.0260945
0.0241502
-0.048287
0.0491422
0.028034
0.0275361
-0.0498297
0.0503758
0.0280134
0.0282766
-0.0508096
0.0511386
0.0274474
0.0278185
-0.0513665
0.0514955
0.0274841
0.0274273
-0.051544
0.0515295
0.0282124
0.0279278
-0.0514724
0.0513523
0.0277057
0.0283607
-0.0512088
0.0510061
0.0236239
0.0262899
-0.0508773
0.0494214
0.0150383
0.0198982
-0.0483378
0.0492678
0.00219487
0.00837939
-0.00512377
0.046282
-0.0410732
0.0100149
0.0417504
0.0400024
-0.0410533
-8.3207e-06
0.00521148
0.0427653
-0.0422834
-0.00972149
-0.00429193
0.0437956
-0.044564
-0.0186308
-0.0144434
0.0454301
-0.0464184
-0.0239598
-0.0215948
0.0474524
-0.0484932
-0.0256585
-0.0249247
0.0494408
-0.0502679
-0.0258995
-0.0255457
0.0509529
-0.0515389
-0.0267612
-0.0259682
0.0520484
-0.0525044
-0.0283325
-0.0272521
0.0528825
-0.0531543
-0.0300471
-0.0289527
0.0532738
-0.0532092
-0.0309357
-0.0304481
0.0529421
-0.0520974
-0.0286147
-0.0301211
0.0506295
-0.048898
-0.0190351
-0.0251159
0.0465041
-0.0431884
-0.00556061
-0.0121531
0.0431331
-0.0420029
0.0127853
0.00578038
0.027411
-0.0273682
-0.0431267
0.0430995
-0.0445098
0.0288214
0.0225799
-0.0384867
-0.0114686
-0.0192288
-0.03947
-0.0264042
-0.0420451
-0.0204307
0.0190501
0.0487441
0.0314908
-0.0310208
-0.0435967
0.0314936
-0.0445126
-0.022093
0.050495
0.0417437
-0.040799
0.00907023
0.0510226
-0.0511537
-0.0112479
0.0521296
-0.0170447
-0.0140952
0.04282
0.0130189
-0.0155917
0.043247
0.0184248
-0.0172596
-0.0396519
-0.0407799
0.0388468
-0.0394414
-0.0166649
-0.0383067
0.0376013
-0.00441401
-0.0109286
-0.0377484
0.0393078
0.00872517
0.00191338
-0.0403612
0.0429452
0.0186724
0.0141964
-0.0448204
0.0462885
0.0246264
0.022275
-0.0475579
0.0486177
0.0269742
0.0262667
-0.049502
0.0502346
0.0272808
0.0273923
-0.0508464
0.0513478
0.0269461
0.0272067
-0.0517543
0.0520751
0.0271633
0.0270208
-0.0523367
0.0525516
0.0279975
0.0276662
-0.0527382
0.0528801
0.0275639
0.028174
-0.0529932
0.0530446
0.0235726
0.0261767
-0.0530353
0.0529947
0.0150788
0.0199076
-0.0523604
0.0515241
0.00303119
0.0090137
-0.0047534
-0.0179247
0.0157829
0.0464999
0.0474074
0.0438993
0.0408751
-0.0418763
0.000992924
0.0052875
0.0419667
-0.0423471
-0.00934114
-0.00420154
0.0429969
-0.0438163
-0.0178114
-0.0137936
0.0447976
-0.0459008
-0.0228566
-0.0206135
0.0470447
-0.0481817
-0.0245215
-0.0237808
0.0492308
-0.0501825
-0.0249478
-0.0244966
0.0510235
-0.051797
-0.0259876
-0.0251273
0.0525158
-0.0531996
-0.0276487
-0.0265333
0.0538192
-0.0543545
-0.0295118
-0.0283331
0.0547601
-0.0550041
-0.0306917
-0.0300425
0.0550385
-0.0548204
-0.0288329
-0.0300866
0.0543553
-0.0524496
-0.0209408
-0.025581
0.0503933
-0.0503772
-0.00557666
-0.0142094
0.0481814
-0.0474952
0.0120992
0.00358451
0.0459515
-0.0450993
0.0279692
0.0210362
0.0451507
-0.033704
-0.04558
0.0341333
0.031545
-0.0249765
-0.0408977
-0.0227356
0.0238336
-0.0407498
-0.0403586
-0.0218184
0.0175708
-0.0193478
0.045024
0.0165661
0.0438247
-0.0302048
-0.0428612
-0.033209
-0.0450076
-0.0325085
-0.0442973
0.0330977
-0.0325151
-0.0455902
-0.0219001
0.0519367
0.0335992
-0.0419229
-0.0238642
0.0259078
-0.0424022
0.040935
-0.0420613
-0.022738
-0.0390919
0.0383544
-0.0159275
-0.0199752
-0.0380214
0.0378545
-0.00424707
-0.0105955
-0.0380874
0.0393647
0.00744783
0.00168044
-0.0408169
0.0424066
0.0170827
0.0127442
-0.0440489
0.0456021
0.0230731
0.0206327
-0.0470074
0.0482255
0.0257561
0.0248614
-0.049277
0.0501756
0.0263822
0.0263408
-0.0509498
0.0516112
0.0262847
0.0264325
-0.0521849
0.0526914
0.0266568
0.0264472
-0.0531658
0.0536202
0.0275432
0.0271917
-0.0540625
0.0544684
0.027158
0.0277317
-0.054828
0.0551156
0.0232849
0.0258172
-0.0553268
0.0554572
0.0149485
0.0196964
-0.0551125
0.0550317
0.00311192
0.00935838
-0.0541062
0.0534597
-0.0106014
-0.00382785
-0.0536248
0.0541075
-0.0223828
-0.0172098
0.025198
-0.0253406
0.0520793
-0.0242984
0.023155
0.0498875
0.0513947
-0.0220215
0.0211089
0.0474125
0.0485409
0.0456604
-0.0420607
0.0153706
0.0432562
0.041538
-0.0413961
0.00892835
0.0124962
0.041623
-0.0413774
0.000747277
0.00551441
0.0414296
-0.0418001
-0.00897057
-0.00414936
0.0424289
-0.0432829
-0.0169573
-0.0131649
0.0443215
-0.0455123
-0.0216658
-0.0195749
0.0467689
-0.0480328
-0.0232577
-0.0225242
0.0492076
-0.0502799
-0.0238754
-0.0233218
0.0512407
-0.0521484
-0.0250799
-0.0241665
0.0530233
-0.0538945
-0.0267775
-0.0256584
0.0547352
-0.0555348
-0.0287122
-0.0274924
0.056243
-0.0568195
-0.0301152
-0.0293344
0.057187
-0.0572875
-0.0287324
-0.0297191
0.0570862
-0.0565769
-0.02145
-0.0257824
0.0558304
-0.0542306
-0.00717646
-0.014956
0.0522001
-0.0506984
0.0105974
0.00155404
0.0486236
-0.0466456
0.0259912
0.0189614
0.0453011
-0.0454008
0.034233
0.0302005
0.0337765
-0.0247424
0.0535093
-0.0286235
-0.0424789
0.0275354
-0.0423774
-0.0311375
-0.0442321
0.025889
-0.0441367
-0.0238136
0.0276907
-0.0442039
-0.0320152
-0.0447971
0.0433677
-0.042692
0.0146949
-0.0179865
0.0439928
0.0173614
-0.0193395
0.0446092
-0.0341363
-0.0455998
0.0336537
-0.0333893
-0.0460655
0.055462
-0.0567993
-0.0210455
0.0556735
-0.0249539
0.0335729
-0.0430111
-0.023695
0.02613
-0.0465717
0.0448
-0.0464336
-0.0220614
-0.0421797
0.0399173
-0.0204755
-0.0211933
-0.03822
0.0370017
-0.0147093
-0.0182779
-0.0366013
0.0369162
-0.00456195
-0.0101951
-0.0376719
0.0388125
0.00630727
0.00092469
-0.0402571
0.0418577
0.0154821
0.0112996
-0.0435148
0.0451187
0.0214692
0.0189756
-0.0466124
0.0479486
0.0244199
0.0233677
-0.0491377
0.0501838
0.0253361
0.0251517
-0.0511118
0.051932
0.0254645
0.0255045
-0.0526756
0.0533686
0.0259638
0.0257037
-0.0540491
0.0547264
0.0268659
0.0265113
-0.0554044
0.0560584
0.026504
0.0270537
-0.0566705
0.0572033
0.0227522
0.0252051
-0.0576249
0.0578967
0.0146767
0.0192747
-0.0580307
0.0580393
0.00310332
0.00922442
-0.0579118
0.0575223
-0.010212
-0.00370032
-0.0164867
-0.0262924
0.0260659
0.0523058
0.0262806
-0.0253373
0.0547302
0.0534975
-0.0257723
0.0252381
0.0504217
0.0516882
-0.0243921
0.0236232
0.0481814
0.0493869
-0.0223813
0.0211158
0.0462895
0.0469023
0.045601
0.0416332
-0.0419402
0.00923541
0.0114373
0.0413845
-0.0411095
0.000472272
0.00495866
0.0411426
-0.0414877
-0.0086255
-0.00411624
0.0421077
-0.042992
-0.016073
-0.0125448
0.0440901
-0.0453627
-0.0203931
-0.0184768
0.0467007
-0.0480352
-0.0219232
-0.0211862
0.0492726
-0.0504175
-0.0227305
-0.0220844
0.0514756
-0.052512
-0.0240435
-0.0231084
0.0535401
-0.0545877
-0.0257299
-0.0246303
0.0556289
-0.0566671
-0.027674
-0.0264511
0.0576548
-0.0585532
-0.0292168
-0.0283467
0.0592635
-0.0597048
-0.028291
-0.0290088
0.0597936
-0.0595013
-0.0217422
-0.0256936
0.0588653
-0.0579385
-0.00810329
-0.015592
0.0568604
-0.0556257
0.00936272
0.000475927
0.0540181
-0.0521384
0.0241116
0.0173538
0.0507898
-0.0484627
0.031906
0.0288518
0.0475933
-0.0463054
0.0329133
0.0329072
0.0326562
-0.0300356
-0.0435808
0.0295938
-0.0442805
0.0197299
-0.0214135
0.0462929
0.0181153
0.0456074
-0.0314861
-0.0447613
0.0276736
-0.0457475
-0.0322835
-0.0466499
0.0241216
-0.04866
-0.0218953
0.0257491
-0.0481991
-0.0323945
-0.0465946
-0.032143
-0.0457387
0.0561311
-0.0543512
-0.0271173
0.0300943
-0.0300646
-0.045117
-0.0441361
0.0295189
-0.0277861
0.0279255
0.0545908
0.0557981
-0.0274531
-0.0434529
-0.0236305
0.0250021
-0.0500315
0.048357
-0.0501844
-0.0218031
-0.0466385
0.0444921
-0.019915
-0.0201768
-0.0424184
0.0402568
-0.0183139
-0.0191196
-0.0386176
0.0372054
-0.013297
-0.0166388
-0.0365102
0.036747
-0.00479871
-0.00949986
-0.0374547
0.0385508
0.00521115
0.000216964
-0.0399515
0.0415249
0.0139087
0.00989885
-0.0431778
0.0448068
0.0198402
0.0173227
-0.0463594
0.0477853
0.022994
0.0218151
-0.0490871
0.0502603
0.0241628
0.0238499
-0.0513265
0.0522948
0.0244962
0.0244383
-0.0531992
0.054067
0.025096
0.0247992
-0.0549367
0.0558182
0.0259843
0.0256416
-0.0567163
0.0576028
0.0256176
0.0261556
-0.058445
0.0591891
0.022008
0.0243628
-0.0597914
0.0602093
0.0142588
0.0186725
-0.0604359
0.0604834
0.00305583
0.00899784
-0.0599928
0.059429
-0.0096482
-0.00320976
-0.0583847
0.0577836
-0.0204445
-0.0154424
-0.0215214
-0.0275881
0.0274495
0.0524445
0.0538349
-0.0269203
0.0265284
0.0508136
0.0522174
-0.0259794
0.0252712
0.0488896
0.0499359
-0.0237924
0.0223947
0.0476872
0.0483811
0.0465822
-0.0450033
0.0179046
0.045214
0.0434032
-0.0423685
0.0136602
0.0157614
0.0427483
-0.0419292
0.0084164
0.011817
0.0413496
-0.0410536
0.00017632
0.00437902
0.0410644
-0.0413864
-0.00830349
-0.00410545
0.0420019
-0.0429067
-0.0151682
-0.0119294
0.0440434
-0.0453653
-0.0190712
-0.0173401
0.0467501
-0.0481288
-0.0205445
-0.0198014
0.0494134
-0.0506202
-0.0215237
-0.0207998
0.0517596
-0.0528984
-0.0229047
-0.021969
0.0540467
-0.0552372
-0.0245394
-0.0234821
0.0564502
-0.0577009
-0.0264232
-0.0252382
0.0589432
-0.0601421
-0.0280179
-0.0271044
0.061186
-0.0619767
-0.0275004
-0.0279649
0.0623859
-0.0623432
-0.021785
-0.0252843
0.0618382
-0.0609273
-0.0090142
-0.016097
0.0597149
-0.0580698
0.00771757
-0.000736445
0.0560687
-0.0541793
0.0222221
0.0153528
0.0522664
-0.0502186
0.0298582
0.0269389
0.0487037
-0.0461023
0.0303119
0.0313922
0.0450918
-0.0450306
0.030332
0.0316458
0.0289182
-0.0305013
-0.042553
0.0445393
-0.043436
0.0278149
0.0290276
-0.0300283
-0.0450386
0.0286396
-0.0452465
-0.0309298
-0.046115
0.0278358
-0.0478342
-0.0319531
-0.0470913
0.0262406
-0.0494376
-0.0315625
-0.0471751
0.0239382
-0.0508946
-0.023228
0.0258909
-0.0519842
-0.0312564
-0.0445468
-0.0325834
-0.0430349
-0.0272455
-0.0421745
0.025984
-0.0302388
-0.0395597
0.0582723
-0.0604591
-0.0249305
0.0161926
-0.0312649
-0.0271022
0.0461595
-0.0442362
0.0159812
-0.0278162
0.0280265
0.0543805
-0.0278252
0.0558071
-0.0181908
0.0468084
0.017542
-0.0196877
0.0467109
0.0432041
0.017025
-0.0440365
0.0573376
-0.0265184
-0.0448416
-0.0243179
0.0265521
-0.0531288
0.0518331
-0.0531069
-0.0230441
-0.0499782
0.0487535
-0.0205784
-0.0213731
-0.0466119
0.0446666
-0.0179697
-0.0180352
-0.0424766
0.0401375
-0.0159749
-0.0169296
-0.0381598
0.0371402
-0.0122775
-0.0146611
-0.036695
0.0368272
-0.00493094
-0.00905464
-0.0374626
0.0384983
0.0041754
-0.000418381
-0.0398428
0.0413748
0.0123768
0.00855437
-0.043008
0.044644
0.0182043
0.0156895
-0.0462343
0.0477265
0.0215019
0.0202248
-0.0491164
0.0503917
0.0228875
0.02246
-0.0515713
0.0526645
0.023403
0.0232587
-0.0537083
0.0547303
0.0240739
0.0237554
-0.0557692
0.056834
0.0249195
0.0246028
-0.0579258
0.0590099
0.0245334
0.0250638
-0.0600455
0.0609706
0.021083
0.0233273
-0.0617325
0.0622859
0.0137054
0.0179105
-0.0626054
0.0626954
0.00296581
0.00867833
-0.0625815
0.0619544
-0.00902105
-0.00309586
-0.0608869
0.0591294
-0.018687
-0.0143749
-0.0228511
-0.0277576
0.0275777
0.0526244
0.0541038
-0.0275391
0.0272824
0.0510703
0.0522559
-0.026831
0.0262154
0.0495051
0.0503873
-0.025451
0.0245605
0.0485776
0.0491456
-0.0226209
0.0206971
0.0482167
0.0485218
0.0466168
0.0436959
-0.0438728
0.0138371
0.0152211
0.042887
-0.0420584
0.00758786
0.0108312
0.0414745
-0.0411614
-0.000136794
0.00379511
0.0411496
-0.041456
-0.00799713
-0.00411723
0.0420733
-0.043
-0.0142415
-0.0113121
0.0441712
-0.0455271
-0.0177153
-0.0161689
0.0469343
-0.0483248
-0.0191539
-0.0183942
0.0496227
-0.0508598
-0.0202865
-0.0195019
0.0520544
-0.0532725
-0.0216866
-0.0207744
0.054517
-0.0558219
-0.0232344
-0.0222376
0.0571718
-0.0585944
-0.0250006
-0.0238882
0.0600489
-0.0615091
-0.0265577
-0.0256499
0.0628568
-0.0639831
-0.0263741
-0.0266173
0.0647199
-0.0649506
-0.0215543
-0.0245475
0.0646098
-0.0637261
-0.00989788
-0.0164378
0.0624096
-0.0608071
0.00611503
-0.00205299
0.0590708
-0.0569446
0.0200959
0.0136165
0.05466
-0.0526725
0.0278707
0.0246544
0.0503611
-0.0500761
0.0300269
0.0290809
0.0476547
-0.0452201
0.0278975
0.0292243
0.0441545
-0.0432478
0.0269081
0.0279619
0.0259403
-0.0298729
-0.0460955
0.0285419
-0.0459526
0.0195726
-0.0215383
0.0486765
0.0182088
0.0481722
0.0401465
-0.0421936
0.0190721
-0.0309943
-0.0470738
0.0271815
-0.0487752
-0.0316768
-0.046977
0.027313
-0.0508597
-0.031832
-0.0465996
0.0271047
-0.0525368
-0.0317896
-0.0453407
0.0251334
-0.0544493
-0.023791
0.0265578
-0.0545532
-0.0314766
-0.0417971
-0.0312079
-0.0396167
-0.0314724
-0.0396663
-0.0263981
0.0559104
-0.0461726
-0.0241866
-0.0566216
0.0263589
0.0557342
-0.0575792
-0.0223415
-0.0532109
0.0511985
-0.0210317
-0.0212678
-0.0492488
0.0470737
-0.0184034
-0.0194233
-0.0460253
0.0439869
-0.0159313
-0.0169867
-0.0422261
0.0404448
-0.0141936
-0.0151688
-0.0388556
0.0377066
-0.0111284
-0.0130719
-0.0371211
0.0371249
-0.00493479
-0.0084691
-0.0376568
0.0386107
0.00322156
-0.000950293
-0.039888
0.0413695
0.0108952
0.00727708
-0.0429724
0.044602
0.0165747
0.0140866
-0.0462122
0.047749
0.0199651
0.0186146
-0.0492031
0.0505558
0.0215348
0.0210059
-0.0518237
0.0530164
0.0222104
0.0219908
-0.0541728
0.0553206
0.0229261
0.022599
-0.0564978
0.0577101
0.0237072
0.0234256
-0.0589569
0.0601985
0.0232919
0.023817
-0.0613931
0.0624693
0.0200067
0.0221327
-0.0633669
0.0640337
0.0130387
0.0170129
-0.0644474
0.064595
0.00281826
0.00826454
-0.0645035
0.0641821
-0.00869961
-0.00300437
-0.0636205
0.0628476
-0.017914
-0.0138133
-0.061303
0.0595947
-0.0232222
-0.0213066
-0.0583091
0.0569643
-0.0250533
-0.0252327
0.026363
-0.0256629
0.0552103
-0.0269186
0.0271932
0.0541059
0.0552515
-0.0277721
0.0275492
0.0528474
0.0535248
-0.0276201
0.027477
0.0512133
0.052185
-0.0271383
0.026631
0.0500124
0.0507261
-0.0259723
0.0251866
0.0493634
0.0498043
-0.0242856
0.0232902
0.0492121
0.0494228
0.0483688
-0.0470207
0.0169391
0.0482905
0.0463659
-0.0461239
0.0157393
0.0168871
0.0452192
-0.0441081
0.0127261
0.0143163
0.0431203
-0.0422998
0.00676736
0.00984335
0.0417134
-0.0413894
-0.000460812
0.00320877
0.0413673
-0.0416701
-0.00769433
-0.00413935
0.0422998
-0.0432512
-0.0132902
-0.0106824
0.0444466
-0.0458124
-0.0163496
-0.0149734
0.0472107
-0.0485835
-0.0177811
-0.0169959
0.0498726
-0.0511228
-0.0190362
-0.0182129
0.0523537
-0.0536253
-0.0204151
-0.0195435
0.0549344
-0.0563185
-0.0218503
-0.0209285
0.0577679
-0.0593195
-0.0234491
-0.0224388
0.0609381
-0.0626095
-0.0248862
-0.0240314
0.0642188
-0.065656
-0.0249369
-0.025008
0.0667219
-0.0672556
-0.0210205
-0.0234817
0.067126
-0.066316
-0.0107079
-0.0165674
0.0649387
-0.0631397
0.00431595
-0.00343027
0.0611253
-0.0590083
0.0179789
0.0116021
0.0569548
-0.0550222
0.025938
0.022601
0.0533152
-0.0512331
0.0279447
0.027374
0.0492406
-0.0484606
0.0271175
0.0272319
0.0465013
-0.043382
0.0237889
0.0260026
0.0227049
-0.0242493
0.0555507
-0.0296428
-0.047447
0.0285035
-0.0472746
0.0242214
-0.0591255
-0.0226751
-0.0590346
0.0266344
-0.0305836
-0.048167
0.0277654
-0.0492276
-0.0313821
-0.0474268
0.0280795
-0.0518345
-0.032595
-0.0457941
0.0278829
-0.0538619
-0.0323826
-0.0444348
0.0278371
-0.0560314
-0.0312145
-0.0417905
-0.0301326
-0.0409566
-0.0233658
-0.0376985
0.0188706
-0.0249235
-0.0381085
0.0175576
-0.0176582
-0.0375979
0.057494
-0.0593689
-0.0231784
0.0483611
-0.0471852
0.0157632
-0.0179126
0.0495264
0.0167474
0.0561113
-0.0228667
-0.0192763
0.0496542
-0.0473119
-0.0238855
0.0256913
-0.0609313
0.0592932
-0.0609419
-0.0222368
-0.0570587
0.0554546
-0.0207375
-0.0204406
-0.0533764
0.0514932
-0.0191485
-0.0191896
-0.0494597
0.0475034
-0.016447
-0.0173898
-0.046113
0.0446551
-0.0144734
-0.0155964
-0.0430507
0.0413719
-0.0125148
-0.0135644
-0.0397788
0.0385257
-0.00987531
-0.0114789
-0.037782
0.037625
-0.00477782
-0.00772537
-0.0380181
0.038863
0.00237666
-0.0013434
-0.0400555
0.0414745
0.00947629
0.00608452
-0.0430363
0.0446476
0.0149633
0.0125248
-0.0462629
0.0478262
0.0184018
0.0169993
-0.0493243
0.0507337
0.0201254
0.0195077
-0.0520681
0.0533355
0.0209429
0.0206564
-0.0545755
0.0558148
0.0216868
0.021359
-0.0570907
0.0584089
0.022389
0.0221497
-0.0597676
0.0611273
0.0219322
0.0224583
-0.0624404
0.0636328
0.0188143
0.0208196
-0.0646449
0.065411
0.0122726
0.0160009
-0.0659126
0.0661389
0.00259192
0.00776293
-0.0660913
0.0657642
-0.00837255
-0.00295675
-0.0651653
0.0642892
-0.017038
-0.0132144
-0.062853
0.0610304
-0.0213996
-0.0198703
-0.0235712
-0.0608109
0.0274676
-0.0241816
0.0266343
-0.0633841
-0.0631666
-0.0219569
-0.024192
0.0251287
0.0542736
0.0235142
-0.0222937
0.0548908
0.0548729
-0.0260373
0.0266881
0.0534551
0.0543429
-0.0268068
0.0271765
0.0524776
0.0534062
-0.0273462
0.0273134
0.0512461
0.0520154
-0.0270904
0.0266976
0.0504052
0.0509491
-0.0261513
0.0254716
0.0500431
0.0503506
-0.0246689
0.0237716
0.0501094
0.0502254
-0.022251
0.0206422
0.0502853
0.0498894
0.049538
0.0467536
-0.0461369
0.0151226
0.0164555
0.0455075
-0.0444
0.0116186
0.013687
0.0434276
-0.0426153
0.00595512
0.0088709
0.0420315
-0.0417068
-0.000785513
0.00262494
0.0416886
-0.042006
-0.00737699
-0.00415753
0.0426612
-0.0436394
-0.012312
-0.0100271
0.0448466
-0.0461986
-0.0149976
-0.0137662
0.0475609
-0.0488916
-0.0164505
-0.0156335
0.0501523
-0.0513978
-0.0177908
-0.0169522
0.0526445
-0.0539442
-0.0191154
-0.0182968
0.0552886
-0.0567177
-0.0204212
-0.0195842
0.0582259
-0.0598572
-0.0218178
-0.0209306
0.0615827
-0.0634022
-0.0230668
-0.0223058
0.0652113
-0.0669106
-0.0232376
-0.023199
0.0682866
-0.0691467
-0.0201605
-0.0221056
0.0692916
-0.0686404
-0.011359
-0.0164225
0.0672619
-0.0653291
0.00238315
-0.00480883
0.0630696
-0.0606595
0.0155688
0.00934268
0.0582769
-0.0560071
0.0236682
0.0202184
0.0539572
-0.0521407
0.0261283
0.0253241
0.0505494
-0.0483851
0.0249532
0.0256405
0.0459855
-0.0446199
0.0224233
0.023603
0.0418813
-0.0408536
0.0180444
0.0199662
0.0381755
-0.0365835
0.0159657
0.0161925
-0.0305129
-0.0230481
0.0169775
0.00408085
-0.00430615
-0.0302876
-0.0304139
0.0114467
-0.0298552
-0.0481754
0.0289036
-0.0484128
0.0179544
-0.0200341
0.0517339
0.0171219
0.0503589
-0.0311004
-0.0484488
0.028693
-0.0498411
-0.0320278
-0.047994
0.0285042
-0.0524559
-0.0322937
-0.045883
0.0289197
-0.0549445
-0.0323337
-0.0433156
0.0287899
-0.058187
-0.0300695
-0.0418535
-0.0260885
-0.0397916
-0.0196519
-0.0361149
-0.0117148
-0.0301892
-0.0626344
0.0284578
0.0248405
-0.0655848
-0.0224223
0.0271317
-0.0656752
-0.0229096
0.0251945
-0.0678697
0.0558728
-0.056374
-0.0217925
0.00624461
-0.00692339
-0.0296088
-0.0220092
0.022625
0.0542751
-0.0285546
0.00438525
-0.0203952
0.0542587
-0.0482635
-0.0649629
0.0627086
-0.020168
-0.0203924
-0.0607455
0.0582325
-0.0197238
-0.0199938
-0.0569613
0.055031
-0.0188072
-0.0191693
-0.0532115
0.050662
-0.0165991
-0.01737
-0.0492746
0.0479336
-0.015106
-0.0160024
-0.0466247
0.0453121
-0.0131609
-0.0142874
-0.0439017
0.042394
-0.011007
-0.012154
-0.0408764
0.0395715
-0.00857045
-0.00996123
-0.0386779
0.0383329
-0.00443283
-0.00683172
-0.0385472
0.0392465
0.00167732
-0.00155769
-0.0403278
0.0416664
0.00813772
0.00500318
-0.0431739
0.044755
0.0133823
0.0110173
-0.0463618
0.0479358
0.0168277
0.0153925
-0.0494602
0.0509071
0.0186786
0.0179833
-0.052287
0.0536056
0.0196243
0.0192765
-0.054901
0.0561986
0.0203892
0.0200636
-0.0575361
0.0589192
0.0210059
0.0208121
-0.0603484
0.0617843
0.0204963
0.0210292
-0.0631781
0.0644563
0.0175361
0.0194258
-0.0655521
0.066407
0.0114177
0.014905
-0.0669994
0.0673089
0.00228237
0.00717055
-0.0673272
0.0670258
-0.00807112
-0.00297499
-0.0663964
0.0654449
-0.0160865
-0.012585
-0.0640969
0.0628579
-0.0201606
-0.0185223
-0.0602905
0.0586781
-0.021566
-0.0210038
-0.0205626
-0.0237568
0.0244356
0.0535949
0.0537411
-0.0252561
0.0255713
0.05314
0.0535223
-0.0261977
0.0266401
0.0520352
0.0527797
-0.0268979
0.0269693
0.0511747
0.0517576
-0.02686
0.0265826
0.0506825
0.0510584
-0.0261498
0.0255783
0.0506147
0.0507834
-0.0248775
0.0240703
0.0509166
0.0509262
-0.0225722
0.0213853
0.0514722
0.0513875
0.0508893
-0.0492606
0.015367
0.0510155
0.0491955
-0.0491113
0.015679
0.0166822
0.0476807
-0.0469799
0.0144218
0.0150249
0.0458267
-0.0447329
0.0105248
0.0125337
0.0437749
-0.042975
0.00515518
0.00791289
0.0424024
-0.0420925
-0.00109535
0.00205231
0.0420983
-0.0424506
-0.00702466
-0.00415175
0.0431431
-0.044145
-0.0113101
-0.00933466
0.0453461
-0.0466579
-0.0136858
-0.0125651
0.0479592
-0.0492295
-0.0151802
-0.0143322
0.0504496
-0.0516772
-0.0165632
-0.015732
0.0529216
-0.054225
-0.017812
-0.0170524
0.0555762
-0.057017
-0.0189804
-0.018233
0.0585446
-0.0602064
-0.020156
-0.0194029
0.0619802
-0.0638793
-0.0211677
-0.020532
0.0658156
-0.067709
-0.0213442
-0.0212626
0.0693499
-0.0705341
-0.0189763
-0.0204647
0.071009
-0.0706231
-0.0117449
-0.0159476
0.0693709
-0.0673814
0.000393633
-0.00606103
0.064949
-0.0622758
0.0128956
0.00691023
0.0595932
-0.0569971
0.0210721
0.0175358
0.0546199
-0.0524692
0.0239776
0.0229469
0.0505515
-0.0487541
0.0231558
0.0237228
0.0469729
-0.0450734
0.0205238
0.0218218
0.0433346
-0.0415572
0.016267
0.0182274
0.0406301
-0.0377583
0.0130939
0.0152653
0.0332417
-0.031105
0.00930997
0.0124608
0.00929666
-0.00519629
-0.0326549
0.032454
-0.0243877
0.00123033
0.00573432
-0.0305442
-0.0487315
0.0297328
-0.0494526
-0.0319328
-0.0485437
0.0297517
-0.0510885
-0.0327334
-0.0475544
0.029582
-0.0531181
-0.0325325
-0.0456841
0.0292872
-0.0554418
-0.0309157
-0.0424694
0.0287412
-0.0594606
-0.0281595
-0.0397824
-0.0226546
-0.0367889
-0.0154866
-0.0323432
-0.00834834
-0.0287642
-0.00460283
-0.0302022
-0.00830795
0.0289857
-0.0450655
-0.00291237
-0.0380505
0.0699525
-0.0184731
-0.0719444
0.020465
-0.065032
0.0295292
0.0274952
-0.0679759
0.0252618
-0.0710933
-0.0212896
0.0224205
0.0531442
0.0557731
-0.0579608
-0.0196048
0.0510352
-0.0505216
0.0148535
-0.0161996
0.0514106
0.0158242
-0.0176884
0.0525043
0.0551603
-0.0197824
-0.020742
0.0537111
-0.0490749
-0.0679449
0.0660899
-0.0188464
-0.018954
-0.0642463
0.0621762
-0.0180979
-0.0185489
-0.0601888
0.0582864
-0.0178214
-0.0180064
-0.0560942
0.0536849
-0.016398
-0.0169771
-0.052291
0.0509508
-0.0152589
-0.0159761
-0.0496364
0.0483686
-0.0138382
-0.0146879
-0.0471411
0.0459528
-0.0119726
-0.0130599
-0.0447306
0.0434343
-0.00971077
-0.0109318
-0.0420744
0.0408026
-0.00729865
-0.00860131
-0.0398066
0.0392704
-0.00389664
-0.00583572
-0.0392674
0.039773
0.00117164
-0.00155465
-0.0407025
0.041933
0.00690724
0.0040737
-0.0433681
0.0449056
0.0118447
0.0095822
-0.0464909
0.0480607
0.0152579
0.0138072
-0.049594
0.0510591
0.0172134
0.0164501
-0.0524642
0.0538117
0.0182768
0.0178714
-0.0551376
0.0564652
0.0190615
0.0187377
-0.0578322
0.0592459
0.0195922
0.0194451
-0.0607095
0.0621854
0.0190204
0.0195655
-0.0636276
0.0649558
0.016208
0.0179836
-0.0661104
0.0670411
0.010487
0.0137504
-0.0677236
0.0681344
0.00187156
0.00648811
-0.0682296
0.0679632
-0.00780481
-0.00307017
-0.0673137
0.0663071
-0.01508
-0.0119354
-0.0650198
0.0632884
-0.0184292
-0.0172349
-0.0612442
0.0590852
-0.0194069
-0.0189597
-0.0194382
-0.0228874
0.0235128
0.0529695
0.0532742
-0.0240511
0.0248783
0.0523128
0.052984
-0.0255584
0.0260725
0.0515212
0.0520996
-0.0264202
0.0265957
0.0509992
0.0514098
-0.0266001
0.0264383
0.0508443
0.051054
-0.0261179
0.0256513
0.0510812
0.0511039
-0.0250458
0.0243191
0.0516432
0.0515317
-0.0234769
0.0225434
0.0524057
0.0522298
-0.0203906
0.0198417
0.0522828
0.0530421
0.0525121
0.0496873
-0.0490824
0.0150741
0.0158479
0.0484867
-0.0472942
0.0132292
0.0144292
0.046152
-0.0450779
0.00945077
0.0113915
0.0441373
-0.0433582