/*--------------------------------*- C++ -*----------------------------------*\
  =========                 |
  \\      /  F ield         | OpenFOAM: The Open Source CFD Toolbox
   \\    /   O peration     | Website:  https://openfoam.org
    \\  /    A nd           | Version:  10
     \\/     M anipulation  |
\*---------------------------------------------------------------------------*/
FoamFile
{
    format      ascii;
    class       volVectorField;
    location    "19";
    object      U;
}
// * * * * * * * * * * * * * * * * * * * * * * * * * * * * * * * * * * * * * //

dimensions      [0 1 -1 0 0 0 0];

internalField   nonuniform List<vector> 
28942
(
(0.00486409 -0.00250275 -2.94181e-22)
(0.00658073 -0.00267603 -5.18233e-23)
(0.0182952 -0.0126176 -9.78194e-22)
(0.103304 0.0182393 -5.74223e-21)
(0.102342 0.0222808 1.87568e-21)
(0.0243156 0.000913037 0)
(0.0289758 0.000557175 2.18291e-23)
(0.0332583 0.00116951 -1.93946e-23)
(0.134742 -0.0157247 -3.35286e-22)
(0.133242 -0.0141711 9.4797e-22)
(0.0114682 0.00542736 -5.0767e-22)
(0.018233 0.00722959 1.73437e-22)
(0.00824038 0.00401616 0)
(0.00562484 0.00280891 0)
(0.0694919 0.00251788 -2.76961e-23)
(0.067275 0.00351576 -9.21252e-24)
(0.0894781 0.0158376 7.19423e-22)
(0.0871614 0.0138419 1.15523e-21)
(0.0122592 -0.0152133 3.2826e-21)
(0.0295751 -0.0306645 -8.65417e-22)
(0.0985907 0.0370686 1.03878e-21)
(0.0977063 0.0341254 0)
(0.0201128 0.00537839 1.0661e-21)
(0.00852837 0.00270348 4.86361e-22)
(0.0396236 0.00807127 8.35187e-22)
(0.0598179 0.00366993 -7.61384e-22)
(0.00769159 -0.0184986 9.00938e-21)
(0.00672995 -0.0165579 -3.30759e-21)
(0.0359869 -0.0255839 6.79364e-22)
(0.0195474 -0.013831 2.3698e-22)
(0.0248719 -0.00239771 0)
(0.0310887 -0.00231654 -2.29867e-23)
(0.0388182 0.00618959 4.97553e-22)
(0.054177 0.00228494 -9.2465e-23)
(0.0190327 0.0181836 1.43826e-21)
(0.0158826 0.0192998 -1.47338e-21)
(0.0324913 0.0379503 -3.27224e-21)
(0.0188417 0.0308202 -1.12537e-21)
(0.0136605 0.00026661 -1.78902e-23)
(0.00873402 0.0163514 -2.77662e-21)
(0.0306472 -0.00620323 0)
(0.0513402 -0.0109697 0)
(0.106807 -0.0123863 -4.90548e-23)
(0.106664 -0.0116975 1.44737e-22)
(0.107774 -0.0123188 1.25795e-22)
(0.0460225 0.000648183 2.14391e-23)
(0.0429637 -0.000403208 -3.56709e-23)
(0.059536 -0.000447568 -1.47731e-22)
(0.0572927 -0.000500043 4.14546e-23)
(0.0474668 -0.0036988 -3.64884e-22)
(0.0363142 -0.0047666 2.32438e-22)
(0.125455 0.00255903 -5.56047e-22)
(0.125122 0.00207145 -5.065e-22)
(0.134314 -0.0186718 -4.02716e-24)
(0.132615 -0.0170253 1.77702e-22)
(0.0870127 0.00913227 6.15594e-22)
(0.106415 0.00211573 1.81999e-22)
(0.00356371 0.00199046 -4.77702e-22)
(0.0100718 0.00446164 0)
(0.00916158 0.00385899 2.09726e-22)
(0.00330693 0.00177758 4.10455e-22)
(0.000476052 0.000309254 -3.43825e-22)
(0.000292793 0.000197635 -3.19671e-22)
(0.111983 -0.0424636 0)
(0.107656 -0.0251293 8.74297e-23)
(0.12436 -0.0320938 -2.11261e-23)
(0.125466 -0.0430045 0)
(0.0904069 -0.0324756 -6.89514e-22)
(0.0939361 -0.034892 -4.54868e-22)
(0.00208261 -0.00123618 9.68431e-22)
(0.00275312 -0.00219678 -3.06957e-22)
(0.00533852 -0.00344629 7.63397e-22)
(0.0853267 -0.0455013 0)
(0.0916004 -0.0392785 2.34944e-21)
(0.0810674 -0.0528641 6.37382e-22)
(0.11792 0.0104942 1.50228e-22)
(0.116994 0.00433447 -1.70641e-22)
(0.128825 0.00795212 -2.15997e-23)
(0.00477656 -0.00291709 -6.28272e-23)
(0.0064657 -0.00451039 5.67273e-22)
(0.0519917 -0.031547 1.69296e-22)
(0.0338732 -0.0209089 -2.85855e-22)
(0.00228699 -0.000693675 3.05674e-21)
(0.00550194 -0.00226849 -1.19382e-21)
(0.1029 0.0483843 3.98008e-23)
(0.0985912 0.0554348 -8.76042e-22)
(0.0819302 0.0544057 8.0815e-22)
(0.047927 0.0349055 -3.03522e-21)
(0.0451498 0.0320066 2.15093e-21)
(0.0299469 0.0208692 -1.32798e-22)
(0.0331949 0.0235415 -7.14153e-22)
(0.0384961 0.0286872 9.72698e-22)
(0.00595676 0.00420669 -2.93485e-23)
(0.00984458 0.0059459 -1.00721e-23)
(0.0041622 0.00297816 2.01833e-23)
(0.00270717 0.00248828 -2.51646e-22)
(0.00221629 0.00241528 2.96709e-22)
(0.0159577 0.0116872 -3.64361e-21)
(0.0177223 0.0137919 8.41359e-22)
(0.00929558 -0.00411602 0)
(0.101389 0.00516035 0)
(0.0984 0.0156848 -4.24434e-21)
(0.0604386 0.0104756 2.17825e-21)
(0.088678 0.0178816 0)
(0.134925 -0.0095229 0)
(0.134202 -0.0105905 0)
(0.133346 -0.0111178 -6.09728e-22)
(0.115228 0.025556 -2.42659e-22)
(0.114363 0.0270276 2.3837e-21)
(0.113499 0.0245002 1.27912e-21)
(0.00277399 0.00168121 8.66205e-22)
(0.00192537 0.0011012 -9.72229e-22)
(0.0207128 -0.00639891 -4.63349e-22)
(0.0222772 -0.00630629 3.76838e-22)
(0.0101994 -0.00356428 7.20703e-22)
(0.00652165 0.0112859 1.55429e-21)
(0.0190889 0.0183663 3.64629e-21)
(0.0135723 0.0230319 2.74631e-22)
(0.00495999 0.0144548 -9.08313e-21)
(0.119036 0.0474222 6.88284e-23)
(0.109263 0.05809 1.2476e-21)
(0.119909 0.0544638 -2.15353e-21)
(0.0395413 -0.0296741 8.17695e-22)
(0.0242795 -0.0174316 -5.40312e-22)
(0.00533978 -0.000670603 -4.3167e-21)
(0.00455373 -0.0035377 0)
(0.0125504 -0.00157212 2.11811e-21)
(0.0221888 -0.0162739 8.5714e-22)
(0.0346024 -0.0280021 -2.18132e-21)
(0.0566965 0.0001625 1.07581e-22)
(0.0598738 0.000321817 -7.20983e-23)
(0.0535619 0.000392316 -3.28946e-24)
(0.0282802 -0.0421532 0)
(0.0298263 -0.042978 0)
(0.0896196 -0.0186535 -5.2199e-22)
(0.0995873 -0.0220912 3.51556e-21)
(0.0870322 -0.0252791 0)
(0.0475858 -0.0404376 0)
(0.0587235 -0.0515876 -8.6797e-22)
(0.0417646 0.0396847 2.23803e-21)
(0.000197033 0.000426368 3.44491e-22)
(-5.12353e-05 0.000291095 -2.09762e-22)
(0.0225268 -0.0193886 -8.75248e-22)
(0.109012 -0.012672 7.27256e-22)
(0.10871 -0.0121276 -1.35666e-22)
(0.119735 -0.00227088 -3.67608e-23)
(0.113169 0.00523138 4.89897e-23)
(0.122002 0.00432235 1.71873e-23)
(0.000231875 0.000399805 1.44654e-22)
(0.0443397 0.0347766 3.5234e-21)
(0.0627553 0.0467232 -8.7242e-22)
(0.0603168 0.0398187 -3.54838e-24)
(0.0381995 -0.00137674 9.07211e-24)
(0.0376827 -0.00149701 5.03129e-23)
(0.0406911 -0.00154944 2.8128e-24)
(0.0451503 -0.00121019 -2.51122e-23)
(0.0459819 0.0384451 1.36746e-22)
(0.0191886 0.0162253 0)
(0.000301103 -0.000123291 2.27623e-22)
(0.000627024 -0.000469197 -2.52896e-22)
(0.00250254 -0.00152385 1.58012e-22)
(0.0384142 -0.00853864 -1.71898e-21)
(0.0675984 -0.00298282 -6.81495e-22)
(0.051711 -0.000834552 -1.94873e-24)
(0.0767008 -0.00729123 2.55081e-22)
(0.0725906 -0.0157422 -2.82358e-23)
(0.0948036 0.0396816 2.33097e-21)
(0.0919846 0.0452848 9.87647e-23)
(0.0890557 0.0289688 1.31362e-21)
(0.0917996 0.0306447 -9.51963e-22)
(0.0992372 0.0407567 0)
(0.123863 -0.00139165 1.957e-22)
(0.124343 -0.00182903 3.7771e-22)
(0.127194 -0.010262 -3.77721e-22)
(0.128546 -0.00991155 6.50434e-22)
(0.117213 0.0229312 3.01821e-22)
(0.119293 0.0237265 -8.56828e-22)
(0.117331 0.0249784 0)
(0.115333 0.0238083 1.75423e-22)
(0.116973 0.02696 0)
(0.117735 0.0350818 -6.30331e-22)
(0.116323 0.0372322 -3.4054e-22)
(0.112013 0.0412636 -6.06874e-22)
(0.11438 0.0392861 0)
(0.117209 0.0422179 2.03465e-21)
(0.114506 0.0442638 4.73279e-23)
(0.109039 0.0435935 -3.37316e-22)
(0.100386 0.0499878 -1.42377e-21)
(0.0990459 0.0451887 -2.50035e-22)
(0.0314411 -0.0134894 -4.13089e-23)
(0.0401367 -0.0152832 1.51996e-23)
(0.00724039 -0.00318661 -5.43342e-22)
(0.0510281 0.000121142 -7.28625e-23)
(0.063511 -0.000230365 0)
(5.40562e-05 -9.26431e-05 2.84368e-22)
(6.16001e-05 -9.31863e-05 1.45617e-22)
(0.05806 -0.00237608 3.20017e-23)
(0.0670776 -0.00227604 1.15412e-23)
(0.0664579 -0.00145762 0)
(0.0563778 -0.000878135 1.37334e-23)
(0.108005 0.000704041 -1.59577e-22)
(0.107975 0.000623081 7.64772e-22)
(0.108088 0.000637551 3.71854e-22)
(0.00095473 0.000500896 3.0556e-22)
(-0.000116181 -9.06013e-05 -4.65634e-22)
(-0.000172485 -0.000151077 3.73344e-22)
(0.00172985 0.000763644 0)
(0.000126365 0.000126753 1.03822e-21)
(0.000231911 -8.75984e-06 -7.16841e-22)
(0.00801331 0.00397357 -9.04201e-22)
(0.00161882 0.000873399 -1.11545e-21)
(0.00188561 0.000946893 0)
(0.00158413 0.00762607 0)
(0.000581873 0.00331635 0)
(0.000315806 0.0019989 0)
(0.135151 -0.00964163 1.18644e-22)
(0.135373 -0.0094491 0)
(0.134395 -0.0107909 -1.36352e-22)
(0.0882369 -0.0146795 4.75816e-21)
(0.090237 -0.0150792 -1.72782e-21)
(0.0891464 -0.0127186 0)
(0.109806 1.24106e-05 -9.25951e-24)
(0.10985 1.11123e-05 1.85335e-23)
(0.10976 1.4409e-05 -6.26321e-24)
(0.109892 1.00684e-05 0)
(0.109932 9.63335e-06 -1.18235e-23)
(0.109969 8.65006e-06 0)
(0.109968 -3.10618e-05 0)
(0.110005 6.80435e-06 4.38756e-23)
(0.110003 -3.17337e-05 0)
(0.109932 -3.16327e-05 -1.18998e-23)
(0.109892 -3.25092e-05 0)
(0.10985 -3.34972e-05 6.19989e-24)
(0.109806 -3.47163e-05 -9.25795e-24)
(0.10976 -3.59144e-05 6.25537e-24)
(0.110038 5.2549e-06 -4.19853e-23)
(0.110037 -3.17684e-05 -1.4698e-24)
(0.109711 1.63892e-05 8.352e-28)
(0.109711 -3.66397e-05 -9.56664e-24)
(0.109659 1.84532e-05 5.08868e-23)
(0.110069 4.4661e-06 3.92631e-26)
(0.110069 -3.08853e-05 -1.47123e-24)
(0.109659 -3.76885e-05 1.88562e-23)
(0.110099 3.54849e-06 3.95487e-23)
(0.110128 2.77295e-06 -3.95161e-23)
(0.110099 -3.0048e-05 2.96223e-24)
(0.110127 -2.91374e-05 5.85685e-24)
(0.109605 2.23206e-05 -4.95104e-23)
(0.109605 -3.93449e-05 -1.24115e-23)
(0.110155 1.95607e-06 0)
(0.110155 -2.83194e-05 -5.77684e-24)
(0.109547 2.49105e-05 6.12404e-27)
(0.109548 -4.04368e-05 -6.1394e-27)
(0.11018 1.34822e-06 0)
(0.11018 -2.73744e-05 0)
(0.109487 2.73177e-05 0)
(0.109487 -4.18891e-05 0)
(0.110205 8.00208e-07 0)
(0.110205 -2.64295e-05 2.77757e-24)
(0.109422 2.99379e-05 -2.57109e-23)
(0.109422 -4.32336e-05 -6.2737e-27)
(0.110228 3.37388e-07 1.45627e-25)
(0.110228 -2.54213e-05 -2.96648e-24)
(0.109354 3.26025e-05 2.58338e-23)
(0.109354 -4.47748e-05 0)
(0.11025 -1.93769e-07 0)
(0.11025 -2.44905e-05 0)
(0.109282 3.56699e-05 -1.63563e-24)
(0.109282 -4.61224e-05 2.80751e-23)
(0.110271 -7.35766e-07 1.80248e-23)
(0.110271 -2.34643e-05 0)
(0.109206 3.85712e-05 -1.44191e-25)
(0.109206 -4.79029e-05 -2.65728e-23)
(0.110291 -1.38595e-06 -2.69647e-23)
(0.110291 -2.26211e-05 -7.82792e-24)
(0.109125 4.03261e-05 2.71094e-23)
(0.109125 -4.9706e-05 0)
(0.11031 -2.08588e-06 8.88422e-24)
(0.11031 -2.17037e-05 5.22096e-24)
(0.109039 4.31467e-05 -1.37298e-23)
(0.109039 -5.23021e-05 2.7846e-23)
(0.110328 -2.77013e-06 -3.55192e-23)
(0.110329 -2.02465e-05 4.00333e-23)
(0.108945 4.3569e-05 1.41721e-23)
(0.108946 -5.51283e-05 4.48692e-25)
(0.110346 -3.46512e-06 0)
(0.110346 -1.92625e-05 1.90958e-23)
(0.108845 4.4693e-05 -2.85298e-23)
(0.108847 -5.9249e-05 5.70812e-23)
(0.110364 -3.65904e-06 0)
(0.110363 -1.90818e-05 0)
(0.108949 0.000140935 -1.40232e-23)
(0.10885 0.000148246 -5.68242e-23)
(0.108738 4.50978e-05 0)
(0.108741 -6.51903e-05 -2.91124e-23)
(0.109129 0.000126208 -8.80291e-24)
(0.109042 0.000133743 1.72821e-24)
(0.109287 0.000111424 0)
(0.10921 0.000118902 -2.83866e-23)
(0.109427 9.79202e-05 -5.473e-26)
(0.109359 0.000104508 0)
(0.109552 8.55372e-05 0)
(0.109491 9.16159e-05 0)
(0.109664 7.35263e-05 0)
(0.109609 7.95318e-05 0)
(0.109763 6.39955e-05 1.23723e-23)
(0.109714 6.87607e-05 3.1186e-24)
(0.109853 5.57995e-05 -1.1929e-23)
(0.10981 5.97685e-05 -1.23593e-23)
(0.109933 4.86292e-05 2.11813e-23)
(0.109894 5.16351e-05 2.70912e-23)
(0.110007 4.24612e-05 0)
(0.109971 4.56523e-05 0)
(0.110071 3.66074e-05 -9.31575e-26)
(0.11004 3.94592e-05 0)
(0.11013 3.16641e-05 0)
(0.110101 3.40312e-05 0)
(0.110182 2.74223e-05 0)
(0.110157 2.9489e-05 0)
(0.11023 2.35899e-05 0)
(0.110207 2.54455e-05 0)
(0.110273 2.02185e-05 0)
(0.110252 2.18647e-05 0)
(0.110312 1.72238e-05 0)
(0.110293 1.86944e-05 0)
(0.110347 1.36063e-05 -1.45316e-23)
(0.11033 1.57889e-05 0)
(0.110364 1.18672e-05 -4.70062e-24)
(0.11038 -4.24921e-06 4.58629e-24)
(0.11038 -1.87392e-05 -4.54813e-24)
(0.11033 -3.78503e-05 0)
(0.110364 -3.45681e-05 -1.86594e-23)
(0.110347 -3.59082e-05 -9.59661e-24)
(0.110292 -4.21535e-05 2.62313e-24)
(0.110311 -3.99025e-05 -1.02774e-23)
(0.110251 -4.62417e-05 8.49311e-26)
(0.110272 -4.43254e-05 0)
(0.110206 -5.01285e-05 0)
(0.110229 -4.81523e-05 0)
(0.110156 -5.43647e-05 0)
(0.110182 -5.21683e-05 0)
(0.1101 -5.90995e-05 0)
(0.110129 -5.66958e-05 1.1162e-29)
(0.110039 -6.41944e-05 9.41272e-26)
(0.11007 -6.15953e-05 0)
(0.10997 -6.98431e-05 0)
(0.110005 -6.71058e-05 0)
(0.109894 -7.50297e-05 0)
(0.109933 -7.24906e-05 0)
(0.109809 -8.1202e-05 0)
(0.109853 -7.77462e-05 -6.26562e-24)
(0.109714 -8.88716e-05 1.64591e-24)
(0.109763 -8.55266e-05 -8.08277e-24)
(0.109609 -9.81466e-05 0)
(0.109663 -9.28842e-05 -6.57791e-24)
(0.109491 -0.000107809 0)
(0.109551 -0.000102888 0)
(0.109358 -0.000118678 0)
(0.109426 -0.000113057 0)
(0.10921 -0.000131114 0)
(0.109286 -0.000124742 0)
(0.109043 -0.000144932 -7.19046e-24)
(0.109129 -0.000137538 0)
(0.108854 -0.000162117 -2.92096e-23)
(0.108951 -0.000152609 -7.23897e-24)
(0.108749 -0.000173092 2.9762e-23)
(0.108743 0.000156212 5.63553e-23)
(0.110381 1.04945e-05 9.20154e-24)
(0.11038 -3.34563e-05 -1.79893e-23)
(0.108626 -7.28228e-05 0)
(0.108637 -0.000186643 0)
(0.108629 0.000164632 0)
(0.108623 4.44511e-05 0)
(0.10896 0.000236787 0)
(0.108757 0.000266124 1.41246e-23)
(0.108862 0.000250772 1.42448e-23)
(0.109139 0.000209797 1.80872e-23)
(0.109052 0.000223061 -3.6152e-24)
(0.109295 0.000185227 5.58775e-26)
(0.109219 0.000196987 0)
(0.109434 0.00016374 0)
(0.109367 0.000174194 0)
(0.109559 0.000144498 0)
(0.109498 0.000153851 0)
(0.10967 0.00012757 0)
(0.109616 0.000135681 0)
(0.109769 0.000111935 0)
(0.109721 0.000119577 0)
(0.109858 9.87265e-05 -5.00264e-26)
(0.109815 0.000105406 1.29012e-23)
(0.109938 8.70739e-05 -4.80499e-26)
(0.109899 9.24078e-05 -2.51964e-23)
(0.11001 7.65202e-05 0)
(0.109975 8.15768e-05 0)
(0.110075 6.73651e-05 4.65356e-26)
(0.110044 7.17928e-05 0)
(0.110133 5.94221e-05 0)
(0.110105 6.3248e-05 0)
(0.110185 5.24722e-05 0)
(0.11016 5.58321e-05 0)
(0.110233 4.63283e-05 0)
(0.11021 4.92931e-05 0)
(0.110275 4.08542e-05 0)
(0.110255 4.35048e-05 0)
(0.110314 3.572e-05 0)
(0.110295 3.82476e-05 0)
(0.11035 3.01682e-05 9.92471e-24)
(0.110332 3.3015e-05 0)
(0.110395 -5.05792e-06 0)
(0.110396 9.34985e-06 9.01002e-24)
(0.110382 2.4887e-05 0)
(0.110366 2.73559e-05 9.67806e-24)
(0.110365 -5.05274e-05 1.92611e-23)
(0.110381 -4.85542e-05 4.73705e-24)
(0.110395 -3.24231e-05 3.69433e-23)
(0.110395 -1.82342e-05 0)
(0.110331 -5.60009e-05 0)
(0.110348 -5.30111e-05 -2.90724e-23)
(0.110294 -6.18615e-05 8.26565e-26)
(0.110313 -5.88455e-05 1.03399e-23)
(0.110253 -6.75538e-05 -8.49307e-26)
(0.110274 -6.46661e-05 0)
(0.110208 -7.37032e-05 0)
(0.110231 -7.05583e-05 0)
(0.110159 -8.05033e-05 0)
(0.110184 -7.70042e-05 0)
(0.110103 -8.80692e-05 0)
(0.110132 -8.41989e-05 -1.11619e-29)
(0.110042 -9.63533e-05 -1.88224e-25)
(0.110074 -9.21221e-05 0)
(0.109974 -0.00010571 0)
(0.110009 -0.00010085 0)
(0.109898 -0.000115805 3.16386e-24)
(0.109937 -0.000110624 0)
(0.109814 -0.000126795 0)
(0.109858 -0.000120966 -3.15066e-24)
(0.10972 -0.000139592 6.59403e-24)
(0.109768 -0.000133101 6.54987e-24)
(0.109615 -0.000153899 0)
(0.109669 -0.000146606 0)
(0.109498 -0.000170019 0)
(0.109558 -0.000161705 0)
(0.109366 -0.000188362 0)
(0.109434 -0.00017889 0)
(0.109218 -0.000209265 0)
(0.109294 -0.000198495 0)
(0.109053 -0.000232987 1.15339e-25)
(0.109138 -0.000220741 0)
(0.108866 -0.000260445 -1.1717e-25)
(0.108962 -0.000246172 0)
(0.108654 -0.000295789 -3.06795e-23)
(0.108763 -0.00027726 3.06653e-23)
(0.108645 0.000282463 2.87554e-23)
(0.108517 -0.000202565 0)
(0.108536 -0.000317811 -6.25524e-23)
(0.108505 -8.12026e-05 0)
(0.110397 2.32164e-05 0)
(0.110397 -4.6487e-05 -4.5996e-24)
(0.108508 0.000173543 7.29514e-23)
(0.108527 0.000300152 2.91831e-23)
(0.108389 -0.000219687 1.58041e-23)
(0.10841 -0.000341944 7.90522e-23)
(0.1085 4.41536e-05 0)
(0.110384 4.0553e-05 3.79049e-23)
(0.110399 3.74297e-05 -1.87303e-23)
(0.11041 -3.1661e-05 -9.10976e-24)
(0.110411 -4.45018e-05 4.53117e-23)
(0.108556 0.000424226 1.02209e-22)
(0.108399 0.000319725 -5.7465e-23)
(0.108294 0.000485181 -2.60301e-22)
(0.10843 0.000452373 -5.83689e-23)
(0.10878 0.000374491 2.84593e-23)
(0.108672 0.000398586 -8.69835e-23)
(0.108978 0.000330673 -2.90715e-23)
(0.108882 0.000351986 -2.19443e-23)
(0.109153 0.000292238 -7.23596e-24)
(0.109068 0.000311008 -7.25164e-24)
(0.109308 0.000258607 -5.58775e-26)
(0.109233 0.000274789 0)
(0.109446 0.000229101 0)
(0.109379 0.000243413 0)
(0.109569 0.000202933 0)
(0.109509 0.000215627 0)
(0.109679 0.000179761 0)
(0.109626 0.000190985 0)
(0.109777 0.00015912 0)
(0.10973 0.000169072 0)
(0.109866 0.000140769 0)
(0.109823 0.000149623 0)
(0.109945 0.000124574 8.19466e-30)
(0.109906 0.000132542 0)
(0.110016 0.000110393 0)
(0.109981 0.000117193 0)
(0.11008 9.79026e-05 4.65267e-26)
(0.110049 0.000103958 0)
(0.110138 8.69188e-05 0)
(0.11011 9.22302e-05 0)
(0.11019 7.72557e-05 0)
(0.110165 8.19345e-05 0)
(0.110237 6.87077e-05 0)
(0.110214 7.28517e-05 0)
(0.110279 6.10668e-05 0)
(0.110258 6.47846e-05 0)
(0.110317 5.40317e-05 0)
(0.110299 5.74938e-05 0)
(0.110352 4.70829e-05 5.0589e-24)
(0.110335 5.05257e-05 -2.54497e-24)
(0.110369 4.37429e-05 -1.93282e-23)
(0.11041 -5.31277e-06 -4.31348e-24)
(0.110412 2.15767e-05 1.80511e-23)
(0.110411 7.95368e-06 -1.37851e-23)
(0.11041 -1.78728e-05 0)
(0.110367 -6.69687e-05 -1.43563e-23)
(0.110398 -6.05718e-05 -4.14856e-23)
(0.110383 -6.35814e-05 3.33783e-23)
(0.110334 -7.42288e-05 0)
(0.110351 -7.05786e-05 0)
(0.110297 -8.11365e-05 -1.07084e-30)
(0.110316 -7.74979e-05 0)
(0.110257 -8.87472e-05 0)
(0.110277 -8.48494e-05 0)
(0.110212 -9.71634e-05 -8.72124e-26)
(0.110235 -9.28481e-05 0)
(0.110163 -0.00010651 0)
(0.110188 -0.000101712 0)
(0.110108 -0.000116891 0)
(0.110136 -0.000111569 0)
(0.110048 -0.000128376 9.41102e-26)
(0.110079 -0.000122492 0)
(0.10998 -0.000141168 9.64197e-26)
(0.110015 -0.00013458 0)
(0.109905 -0.000155346 0)
(0.109944 -0.000148058 0)
(0.109822 -0.000171238 0)
(0.109865 -0.000163103 0)
(0.109729 -0.000189041 0)
(0.109776 -0.000179788 0)
(0.109625 -0.000209049 0)
(0.109678 -0.000198757 0)
(0.109508 -0.000231741 -1.08136e-25)
(0.109568 -0.000220037 0)
(0.109378 -0.000257512 0)
(0.109445 -0.000244216 0)
(0.109232 -0.000286807 0)
(0.109307 -0.000271697 0)
(0.109068 -0.000320094 -1.45354e-29)
(0.109152 -0.000302923 0)
(0.108884 -0.00035807 1.99467e-29)
(0.108978 -0.000338452 0)
(0.108676 -0.000403227 1.21553e-25)
(0.108783 -0.000379277 0)
(0.108438 -0.000460287 -6.41036e-23)
(0.108561 -0.000430006 1.57424e-23)
(0.108277 -0.000367254 1.61348e-23)
(0.108308 -0.000493403 3.20064e-23)
(0.10838 0.000182682 -2.85129e-23)
(0.108375 -9.09741e-05 -3.06335e-23)
(0.110414 3.49286e-05 4.59347e-24)
(0.110413 -5.80831e-05 3.26111e-23)
(0.108259 0.000338134 3.50398e-24)
(0.108253 -0.000238773 0)
(0.108126 0.000502746 3.97651e-22)
(0.108171 -0.000528598 4.94709e-23)
(0.108136 -0.000394915 6.59707e-23)
(0.108153 0.000700866 -6.70124e-22)
(0.108038 0.000762325 1.19335e-22)
(0.108372 4.42165e-05 0)
(0.108359 0.000618124 6.58229e-23)
(0.108249 0.000664351 3.42765e-23)
(0.108594 0.000543256 5.92927e-23)
(0.108476 0.000578529 -9.05253e-23)
(0.108811 0.000478603 -2.94925e-23)
(0.108706 0.000510233 -1.47421e-23)
(0.109003 0.000422258 1.47726e-23)
(0.10891 0.000449266 1.49753e-23)
(0.109174 0.000373362 0)
(0.109091 0.000396967 -3.69266e-26)
(0.109326 0.000330896 0)
(0.109252 0.000351436 0)
(0.109462 0.000293537 5.46715e-26)
(0.109396 0.000311633 0)
(0.109583 0.000260522 0)
(0.109524 0.00027653 0)
(0.109691 0.00023127 0)
(0.109638 0.000245455 0)
(0.109788 0.000205325 0)
(0.109741 0.000217899 0)
(0.109875 0.000182288 4.9985e-26)
(0.109833 0.000193435 0)
(0.109954 0.000161872 7.07458e-30)
(0.109915 0.000171818 0)
(0.110024 0.000143904 0)
(0.10999 0.000152582 0)
(0.110087 0.000128036 -9.30475e-26)
(0.110056 0.000135729 0)
(0.110144 0.000114043 0)
(0.110116 0.000120818 0)
(0.110196 0.000101701 0)
(0.11017 0.000107682 0)
(0.110242 9.07645e-05 0)
(0.110219 9.60719e-05 0)
(0.110284 8.10024e-05 0)
(0.110263 8.57514e-05 0)
(0.110322 7.21444e-05 0)
(0.110303 7.64834e-05 0)
(0.110356 6.38568e-05 -2.52772e-24)
(0.110339 6.7842e-05 0)
(0.110387 5.62052e-05 0)
(0.110372 6.00028e-05 -4.90843e-24)
(0.110416 4.84896e-05 2.17389e-27)
(0.110402 5.22712e-05 0)
(0.110426 1.98908e-05 -1.83018e-23)
(0.11043 4.53118e-05 1.10628e-24)
(0.110428 3.29234e-05 8.9727e-24)
(0.110424 -5.35346e-06 6.58415e-24)
(0.110425 7.02714e-06 -4.54474e-24)
(0.110424 -3.10485e-05 -2.28762e-24)
(0.110424 -1.79007e-05 2.28395e-24)
(0.110426 -5.63212e-05 0)
(0.110425 -4.3196e-05 -2.07572e-23)
(0.1104 -7.55674e-05 -9.32948e-24)
(0.110428 -6.97746e-05 -1.7857e-23)
(0.110414 -7.23809e-05 4.10914e-23)
(0.11037 -8.31194e-05 -4.88738e-24)
(0.110385 -7.91631e-05 0)
(0.110337 -9.16467e-05 0)
(0.110354 -8.7351e-05 0)
(0.110301 -0.000100199 -2.55285e-30)
(0.110319 -9.58576e-05 0)
(0.110261 -0.000109736 0)
(0.110281 -0.000104837 0)
(0.110217 -0.000120365 8.72124e-26)
(0.110239 -0.000114909 0)
(0.110168 -0.000132202 0)
(0.110193 -0.000126125 0)
(0.110114 -0.000145375 0)
(0.110142 -0.000138616 0)
(0.110055 -0.000160016 0)
(0.110085 -0.000152503 0)
(0.109988 -0.000176331 -6.797e-30)
(0.110022 -0.000167951 0)
(0.109914 -0.000194506 0)
(0.109952 -0.000185167 0)
(0.109832 -0.000214884 0)
(0.109874 -0.000204416 0)
(0.10974 -0.000237772 0)
(0.109787 -0.000225961 0)
(0.109637 -0.000263573 0)
(0.10969 -0.000250283 0)
(0.109522 -0.000292771 1.08136e-25)
(0.109581 -0.000277721 0)
(0.109394 -0.000325879 0)
(0.10946 -0.000308805 0)
(0.10925 -0.000363481 0)
(0.109324 -0.000344085 0)
(0.109088 -0.000406222 -1.15313e-25)
(0.109171 -0.000384167 0)
(0.108907 -0.000454875 1.17737e-25)
(0.109 -0.000429763 0)
(0.108703 -0.000510625 -1.2018e-25)
(0.108808 -0.000481753 0)
(0.108472 -0.000576936 1.58438e-23)
(0.108591 -0.000541795 -3.12303e-23)
(0.108212 -0.000658289 -1.6015e-23)
(0.108346 -0.000615594 3.25115e-23)
(0.108024 -0.000566191 6.59999e-25)
(0.10807 -0.000703906 3.30021e-23)
(0.108242 0.000190644 -2.93675e-23)
(0.108239 -9.97345e-05 0)
(0.108115 0.000353822 -2.8501e-22)
(0.108109 -0.000254947 0)
(0.110419 6.335e-05 -4.60089e-24)
(0.110433 5.96214e-05 3.37049e-24)
(0.110439 -5.44306e-05 -1.75854e-23)
(0.110441 -6.71521e-05 -1.99319e-23)
(0.107968 0.00050643 -2.79885e-22)
(0.107986 -0.000424318 -6.66161e-23)
(0.107915 0.000771655 0)
(0.108197 0.000837848 -7.75544e-23)
(0.107868 -0.000606783 -3.27065e-23)
(0.107917 -0.000752993 5.01913e-23)
(0.108062 0.000880793 1.55518e-22)
(0.108236 4.41725e-05 0)
(0.108418 0.000742277 0)
(0.108308 0.000791031 -6.89198e-23)
(0.108641 0.000655734 0)
(0.10853 0.000697842 0)
(0.108849 0.000578076 0)
(0.108747 0.000615563 1.5273e-23)
(0.109034 0.000511136 0)
(0.108944 0.000543424 0)
(0.1092 0.000452794 0)
(0.109119 0.000480952 0)
(0.109348 0.00040175 0)
(0.109276 0.000426456 0)
(0.109481 0.000356822 -5.46715e-26)
(0.109417 0.000378581 0)
(0.1096 0.000317143 0)
(0.109542 0.000336378 0)
(0.109706 0.000281994 0)
(0.109654 0.000299042 0)
(0.109802 0.000250809 0)
(0.109755 0.000265936 0)
(0.109887 0.000223138 -8.6588e-30)
(0.109846 0.000236556 0)
(0.109964 0.000198613 7.94557e-30)
(0.109927 0.000210515 0)
(0.110033 0.000176926 0)
(0.11 0.00018743 0)
(0.110096 0.000157751 6.88043e-30)
(0.110065 0.000167047 0)
(0.110152 0.000140806 0)
(0.110125 0.000149017 0)
(0.110202 0.000125826 0)
(0.110178 0.000133089 0)
(0.110248 0.000112539 0)
(0.110226 0.000118988 0)
(0.110289 0.000100694 0)
(0.110269 0.000106452 0)
(0.110327 9.00575e-05 0)
(0.110308 9.52372e-05 0)
(0.11036 8.05118e-05 0)
(0.110344 8.51798e-05 0)
(0.110391 7.12131e-05 4.87554e-24)
(0.110376 7.56821e-05 4.98297e-24)
(0.110406 6.7052e-05 -9.36429e-24)
(0.110439 1.84254e-05 -8.98851e-24)
(0.110443 4.29594e-05 0)
(0.110441 3.09977e-05 -9.07741e-24)
(0.110437 -5.58891e-06 0)
(0.110438 6.52807e-06 9.17336e-24)
(0.110437 -3.05691e-05 1.36914e-23)
(0.110437 -1.81181e-05 -4.62708e-24)
(0.110438 -4.21894e-05 -2.69053e-23)
(0.110403 -9.0518e-05 4.70602e-24)
(0.11043 -8.23391e-05 1.75474e-23)
(0.110417 -8.69006e-05 0)
(0.110374 -9.92676e-05 -9.73805e-24)
(0.110389 -9.47081e-05 9.77019e-24)
(0.110341 -0.00010873 0)
(0.110358 -0.000104036 0)
(0.110306 -0.000118971 -3.65568e-30)
(0.110324 -0.000113723 0)
(0.110266 -0.00013043 0)
(0.110286 -0.000124541 0)
(0.110223 -0.000143232 0)
(0.110245 -0.000136657 0)
(0.110175 -0.000157516 0)
(0.1102 -0.000150181 0)
(0.110122 -0.000173438 0)
(0.110149 -0.000165264 0)
(0.110063 -0.000191178 9.40923e-26)
(0.110093 -0.000182069 0)
(0.109998 -0.000210982 -9.64129e-26)
(0.110031 -0.000200808 0)
(0.109925 -0.000233109 0)
(0.109962 -0.000221736 0)
(0.109844 -0.000257917 0)
(0.109886 -0.000245159 0)
(0.109754 -0.000285819 0)
(0.1098 -0.00027145 0)
(0.109653 -0.000317282 0)
(0.109704 -0.000301076 0)
(0.10954 -0.000352853 0)
(0.109598 -0.000334521 0)
(0.109413 -0.000393147 0)
(0.109478 -0.000372372 0)
(0.109272 -0.000438865 -1.12871e-25)
(0.109345 -0.000415286 0)
(0.109114 -0.000490814 1.15273e-25)
(0.109195 -0.000464008 0)
(0.108936 -0.000549964 -1.17691e-25)
(0.109027 -0.000519428 0)
(0.108736 -0.00061751 0)
(0.108839 -0.000582603 0)
(0.108512 -0.00069501 0)
(0.108627 -0.000654878 0)
(0.10826 -0.000785915 1.2661e-25)
(0.10839 -0.00073816 1.60105e-23)
(0.107974 -0.000895637 -8.40773e-23)
(0.108121 -0.000838296 0)
(0.107755 -0.000808039 -4.9744e-23)
(0.107817 -0.000958399 -6.68167e-25)
(0.108099 0.000198563 9.19159e-23)
(0.108095 -0.000107858 0)
(0.110446 5.5693e-05 -1.75206e-23)
(0.110443 -7.90028e-05 -3.37879e-23)
(0.107952 0.000359884 -4.9e-23)
(0.10784 0.000672714 6.74789e-25)
(0.107803 0.000516228 1.42738e-22)
(0.107959 -0.000271511 0)
(0.107828 -0.000452265 1.67771e-23)
(0.107902 0.000921352 -1.42594e-22)
(0.10775 0.000938701 1.23694e-22)
(0.107704 0.000743775 -1.22449e-22)
(0.107702 -0.000648826 -5.04473e-23)
(0.107583 -0.000865149 3.38232e-23)
(0.107649 -0.0010287 3.3107e-23)
(0.108092 4.37777e-05 0)
(0.108241 0.000969349 4.32785e-24)
(0.107944 0.00109035 -7.23417e-25)
(0.108097 0.00102717 3.35566e-23)
(0.108475 0.000860862 3.3126e-23)
(0.108363 0.000913751 -3.32982e-23)
(0.108691 0.000761918 6.06444e-26)
(0.108584 0.000810333 0)
(0.10889 0.000674174 0)
(0.108793 0.000716553 0)
(0.109069 0.000597399 0)
(0.108982 0.000634532 0)
(0.10923 0.00053005 0)
(0.109152 0.000562619 0)
(0.109375 0.000470866 5.58298e-26)
(0.109305 0.00049952 0)
(0.109504 0.000418701 0)
(0.109441 0.000443973 0)
(0.10962 0.00037259 0)
(0.109564 0.000394946 0)
(0.109724 0.000331726 0)
(0.109673 0.000351549 0)
(0.109817 0.000295452 0)
(0.109772 0.000313052 0)
(0.109901 0.000263249 -4.99763e-26)
(0.10986 0.000278872 0)
(0.109977 0.000234682 9.10626e-30)
(0.10994 0.000248541 0)
(0.110045 0.000209373 0)
(0.110012 0.000221643 0)
(0.110106 0.000186964 9.302e-26)
(0.110076 0.000197831 0)
(0.110161 0.000167126 0)
(0.110134 0.000176744 0)
(0.110211 0.000149556 0)
(0.110186 0.000158078 0)
(0.110255 0.000133958 0)
(0.110233 0.000141529 0)
(0.110296 0.00012006 0)
(0.110276 0.000126814 0)
(0.110332 0.000107623 0)
(0.110315 0.000113672 0)
(0.110366 9.64948e-05 7.93526e-26)
(0.110349 0.000101913 0)
(0.110396 8.62139e-05 -4.89684e-24)
(0.110381 9.13568e-05 0)
(0.110423 7.62642e-05 4.66271e-24)
(0.11041 8.11438e-05 0)
(0.110449 6.75207e-05 4.45978e-24)
(0.110436 7.18008e-05 -4.55489e-24)
(0.110455 4.06611e-05 8.814e-24)
(0.110461 6.3243e-05 0)
(0.110458 5.26726e-05 1.31187e-23)
(0.110452 1.75302e-05 0)
(0.110453 2.89303e-05 0)
(0.11045 -6.01972e-06 0)
(0.11045 5.98314e-06 0)
(0.11045 -3.0224e-05 0)
(0.11045 -1.81396e-05 0)
(0.110452 -5.30042e-05 1.79224e-23)
(0.110451 -4.14887e-05 4.4561e-24)
(0.110456 -7.61429e-05 4.41153e-24)
(0.110453 -6.46266e-05 3.51453e-23)
(0.110434 -9.54521e-05 2.28762e-23)
(0.110458 -8.79467e-05 4.39497e-24)
(0.110446 -9.14306e-05 -8.91925e-24)
(0.110407 -0.000104734 4.7011e-24)
(0.110421 -9.98946e-05 -2.81794e-23)
(0.110378 -0.000114939 9.20964e-31)
(0.110393 -0.000109741 0)
(0.110346 -0.000125501 0)
(0.110363 -0.000120067 0)
(0.110311 -0.000137415 -4.76738e-30)
(0.110329 -0.00013129 0)
(0.110273 -0.000150768 0)
(0.110293 -0.000143904 0)
(0.11023 -0.000165704 0)
(0.110252 -0.000158031 0)
(0.110183 -0.000182387 0)
(0.110207 -0.000173818 0)
(0.110131 -0.000201008 0)
(0.110158 -0.000191445 0)
(0.110074 -0.00022179 -1.88175e-25)
(0.110103 -0.000211114 0)
(0.110009 -0.000245016 0)
(0.110042 -0.00023308 0)
(0.109938 -0.000271012 0)
(0.109975 -0.000257647 0)
(0.109859 -0.000300177 0)
(0.109899 -0.000285175 0)
(0.10977 -0.000332986 0)
(0.109816 -0.000316096 0)
(0.109671 -0.000369976 -1.05727e-25)
(0.109722 -0.000350926 0)
(0.109561 -0.000411764 0)
(0.109617 -0.000390232 0)
(0.109437 -0.00045906 0)
(0.109501 -0.00043468 0)
(0.109299 -0.000512672 1.12871e-25)
(0.10937 -0.000485026 0)
(0.109144 -0.000573542 -2.70219e-29)
(0.109224 -0.000542139 0)
(0.108971 -0.000642808 2.35352e-25)
(0.10906 -0.000607053 0)
(0.108776 -0.000721832 0)
(0.108876 -0.000681012 0)
(0.108558 -0.000812202 0)
(0.10867 -0.000765482 0)
(0.108313 -0.000915792 -5.00089e-29)
(0.108439 -0.00086222 0)
(0.108038 -0.00103568 0)
(0.108179 -0.000973468 0)
(0.107725 -0.00118197 -5.03403e-23)
(0.107886 -0.0011049 0)
(0.107472 -0.00110273 -6.66492e-25)
(0.107554 -0.00126756 8.5837e-23)
(0.107941 0.000204099 0)
(0.107794 0.00113676 1.94562e-22)
(0.107785 0.000366912 3.3574e-23)
(0.110453 7.9224e-05 -4.45139e-24)
(0.110464 7.4978e-05 0)
(0.110467 -7.3731e-05 4.30247e-24)
(0.11047 -8.46204e-05 -8.52752e-24)
(0.107942 -0.000115433 0)
(0.107799 -0.000289157 0)
(0.107646 0.000559007 0)
(0.107659 -0.0004816 -1.6524e-23)
(0.107525 -0.000694727 -3.34701e-23)
(0.107398 -0.000928767 0)
(0.107282 -0.00118272 8.66881e-23)
(0.107371 -0.00135807 -6.92312e-23)
(0.107937 4.38479e-05 0)
(0.108007 0.00124309 -1.61515e-26)
(0.107625 0.0011876 6.17836e-23)
(0.107695 0.00138241 -2.21038e-22)
(0.107856 0.00131242 6.41145e-23)
(0.108293 0.0010982 -2.08907e-23)
(0.108153 0.00116737 -3.32709e-23)
(0.108531 0.00097491 0)
(0.108418 0.00103456 0)
(0.108743 0.000864614 -6.06388e-26)
(0.108639 0.000918315 0)
(0.108936 0.000766909 0)
(0.108842 0.00081422 0)
(0.109109 0.000680776 0)
(0.109025 0.000722484 0)
(0.109265 0.000604911 0)
(0.109189 0.000641643 0)
(0.109405 0.000538033 -5.58298e-26)
(0.109337 0.000570431 0)
(0.10953 0.00047896 0)
(0.109469 0.000507592 0)
(0.109643 0.000426671 0)
(0.109588 0.000452029 0)
(0.109744 0.000380293 0)
(0.109695 0.000402795 0)
(0.109836 0.000339099 0)