/*--------------------------------*- C++ -*----------------------------------*\
  =========                 |
  \\      /  F ield         | OpenFOAM: The Open Source CFD Toolbox
   \\    /   O peration     | Website:  https://openfoam.org
    \\  /    A nd           | Version:  10
     \\/     M anipulation  |
\*---------------------------------------------------------------------------*/
FoamFile
{
    format      ascii;
    class       volScalarField;
    location    "60.5";
    object      p;
}
// * * * * * * * * * * * * * * * * * * * * * * * * * * * * * * * * * * * * * //

dimensions      [0 2 -2 0 0 0 0];

internalField   nonuniform List<scalar> 
28942
(
-0.00378414
-0.00315751
0.00201457
0.0094819
0.00978192
9.70739e-05
0.000304035
2.88927e-05
0.00270169
0.00278965
-0.00232843
-0.00259749
-0.00298077
-0.00289819
0.000202339
0.000519742
0.00986948
0.0101394
0.00556768
0.00712847
0.00814171
0.00813339
-0.00523755
-0.00506246
-0.00359117
-0.00381469
0.0138673
0.0138164
0.00352067
0.00346351
2.17056e-05
5.75125e-05
0.000802091
0.000330002
0.00713377
0.00833953
0.0108767
0.0128352
-2.93013e-06
0.0150302
0.00908453
0.0115824
0.00174721
0.00166267
0.00172203
0.000305175
0.00016616
0.00024377
0.000281399
0.00039283
0.000746435
0.00277712
0.002848
0.0028341
0.00298938
-0.00236054
-0.00105786
-0.00338803
-0.00323361
-0.00350473
-0.00357785
-0.00357868
-0.00347668
-0.000123499
-0.00182465
-0.000369398
0.000962161
0.00941213
0.00891565
-0.00337516
-0.00358519
-0.0033202
0.00897721
0.00882901
0.009121
-0.00148689
-0.00109918
-0.000759958
0.00234865
0.00274804
0.00183897
0.000743784
-0.00632543
-0.00755398
0.00107223
0.00379807
0.00483977
0.00562753
0.00401173
0.00413515
0.00610221
0.005481
-0.00140804
-0.0016991
-0.00197733
-0.00181586
-0.00164169
0.0053241
0.00661519
-0.00786524
0.0112792
0.0104802
0.00577409
0.0093711
0.000890798
0.000798234
0.000708271
0.00546238
0.00565508
0.00564916
-0.00323146
-0.00315209
-0.00314053
-0.00262361
-0.00274631
0.015822
0.0138165
0.0132584
0.0148896
0.00163257
0.00471291
0.00341089
0.00506002
0.00473689
0.015494
0.0157895
0.0144491
0.00590174
0.0069809
0.000203118
0.000306845
0.000118295
0.0104876
0.0109907
0.00766184
0.00731398
0.012771
0.00668652
0.00797738
0.00904148
-0.00191623
-0.00242547
0.00734632
0.00166567
0.00175322
-0.00118394
-0.00144711
-0.000988237
-0.00252478
0.0065836
0.00571078
0.00370347
0.000278875
0.000221532
9.0272e-05
0.000223814
0.00752024
0.00678444
-0.00187227
-0.00198942
-0.00188472
-0.00415002
-0.00369448
7.08874e-05
-0.00286419
-0.000510919
0.00838387
0.00849281
0.00958684
0.0091222
0.00769999
0.00307303
0.00299052
0.00324222
0.00311811
0.00503234
0.00481015
0.00514515
0.00536565
0.00530351
0.00537427
0.00558537
0.00613929
0.00583337
0.00543124
0.00576135
0.00646705
0.00722074
0.00751277
-0.00058605
-0.000566907
-0.00248172
0.000227852
6.90691e-05
-0.00200133
-0.00208997
0.000307385
0.000370264
0.000332633
0.000263447
0.0018685
0.00182418
0.00180135
-0.00292923
-0.00311652
-0.002781
-0.00434946
-0.00483178
-0.00414306
-0.00473058
-0.0064965
-0.00519452
0.0160158
0.016726
0.0164935
0.000926001
0.00107096
0.000959051
0.0103404
0.00991245
0.00999278
0.00150882
0.00149057
0.00152694
0.00147188
0.00145359
0.00143482
0.00143573
0.00141601
0.00141681
0.00145422
0.00147241
0.00149065
0.00150902
0.00152746
0.00139752
0.00139747
0.00154439
0.00154471
0.00156154
0.00137868
0.00137839
0.00156194
0.00135934
0.00134003
0.00135949
0.00134044
0.00157993
0.00158017
0.00132081
0.00132125
0.00159667
0.00159715
0.00130155
0.00130205
0.00161342
0.00161387
0.00128233
0.00128279
0.00162993
0.00163042
0.00126308
0.00126359
0.0016462
0.00164667
0.00124387
0.00124436
0.00166227
0.00166275
0.00122468
0.00122517
0.00167824
0.00167866
0.00120557
0.00120584
0.00169345
0.00169387
0.00118645
0.00118641
0.00170942
0.00170961
0.00116725
0.00116681
0.00172401
0.001724
0.00114735
0.00114739
0.00173893
0.00173877
0.00112748
0.00112796
0.00172307
0.00173798
0.00175372
0.00175334
0.00169159
0.00170795
0.00166008
0.00167634
0.0016284
0.00164447
0.0015951
0.00161195
0.00156038
0.00157788
0.00152553
0.00154415
0.00149
0.00150801
0.00145274
0.00147088
0.00141475
0.00143384
0.001377
0.00139601
0.00133888
0.001358
0.00130055
0.00131976
0.00126217
0.00128138
0.00122385
0.00124302
0.00118571
0.00120477
0.00114692
0.00116662
0.00112739
0.00110789
0.00110816
0.00116684
0.00112782
0.00114729
0.00120566
0.00118613
0.00124407
0.00122494
0.00128247
0.00126329
0.00132089
0.00130171
0.00135919
0.00134009
0.00139704
0.00137826
0.00143501
0.00141618
0.00147236
0.00145387
0.00150819
0.00149023
0.00154444
0.0015271
0.00157919
0.00156157
0.00161305
0.00159633
0.00164565
0.00162955
0.00167721
0.0016615
0.00170798
0.00169242
0.00173692
0.00172277
0.00175151
0.00175331
0.00110769
0.00110827
0.00176714
0.00176494
0.00176823
0.00176798
0.00172065
0.00175125
0.00173584
0.00168922
0.00170531
0.00165824
0.00167357
0.00162638
0.00164251
0.00159319
0.00160994
0.00155895
0.00157618
0.00152349
0.00154148
0.00148756
0.00150625
0.00145148
0.00146907
0.00141345
0.00143248
0.00137567
0.00139462
0.00133764
0.0013567
0.00129942
0.00131855
0.00126113
0.00128028
0.00122291
0.00124202
0.00118488
0.00120387
0.00114637
0.00116566
0.00108813
0.00108837
0.00110721
0.00112684
0.00112756
0.00110823
0.0010888
0.00108849
0.00116672
0.00114706
0.00120509
0.00118569
0.00124328
0.00122417
0.00128161
0.00126245
0.00131993
0.00130079
0.00135816
0.00133908
0.0013961
0.00137721
0.00143369
0.00141492
0.00147093
0.00145229
0.00150705
0.00148908
0.00154264
0.00152534
0.00157747
0.00156025
0.00161117
0.00159448
0.0016437
0.0016276
0.00167502
0.00165954
0.0017051
0.00169026
0.00173395
0.00171965
0.00176108
0.00174801
0.00176619
0.00177859
0.00177476
0.00178019
0.00108802
0.0010887
0.00178138
0.00177944
0.00179176
0.00178841
0.00178157
0.00110716
0.00108774
0.00106931
0.0010693
0.00177641
0.0017946
0.00181471
0.00179734
0.00174748
0.00176235
0.00171695
0.00173209
0.00168609
0.00170198
0.00165523
0.0016704
0.00162351
0.00163958
0.00159048
0.00160714
0.00155637
0.00157356
0.00152126
0.0015389
0.00148537
0.00150343
0.0014488
0.00146715
0.00141161
0.00143032
0.00137394
0.00139282
0.00133601
0.00135501
0.00129791
0.00131698
0.00125975
0.00127884
0.00122165
0.00124069
0.00118371
0.00120266
0.00114554
0.00116457
0.00112624
0.00106907
0.00106876
0.00106893
0.00106925
0.00112729
0.00108859
0.00110815
0.00116606
0.00114668
0.001204
0.0011849
0.0012421
0.00122303
0.0012803
0.0012612
0.0013185
0.00129941
0.00135657
0.00133756
0.00139439
0.00137553
0.00143183
0.00141315
0.00146867
0.00145036
0.00150497
0.00148694
0.00154032
0.00152276
0.00157487
0.00155776
0.00160837
0.00159177
0.00164072
0.0016247
0.00167184
0.00165646
0.00170156
0.00168692
0.00172989
0.00171584
0.00175686
0.00174352
0.00178329
0.00176958
0.00180027
0.00179561
0.00179477
0.0017932
0.00106842
0.00106933
0.00180611
0.00180395
0.00180149
0.00180752
0.00181156
0.00173847
0.00181589
0.00179515
0.0017972
0.00179384
0.00177375
0.00178995
0.00174175
0.00175764
0.00171212
0.00172658
0.00168198
0.00169761
0.00165144
0.00166677
0.00161977
0.00163578
0.00158691
0.00160348
0.00155299
0.00157008
0.00151814
0.00153567
0.00148245
0.00150037
0.00144601
0.00146433
0.00140907
0.00142763
0.00137161
0.00139039
0.00133387
0.00135278
0.00129594
0.00131492
0.00125794
0.00127695
0.00121999
0.00123896
0.00118219
0.00120107
0.00114437
0.0011632
0.00110643
0.00112537
0.00106804
0.00108706
0.0010498
0.001049
0.00104935
0.00105016
0.00104997
0.0010503
0.00105027
0.00105042
0.00105041
0.00108819
0.00105017
0.00106947
0.00112653
0.00110746
0.0011648
0.00114582
0.00120256
0.00118368
0.00124052
0.00122153
0.00127857
0.00125955
0.0013166
0.0012976
0.00135449
0.00133557
0.0013921
0.00137334
0.00142934
0.00141078
0.00146599
0.00144776
0.00150202
0.00148411
0.00153719
0.00151971
0.00157148
0.00155447
0.00160473
0.00158825
0.00163683
0.00162094
0.00166768
0.00165243
0.00169716
0.00168262
0.00172505
0.0017113
0.00175145
0.00173848
0.00177696
0.00176414
0.00180139
0.00178846
0.00181857
0.00181246
0.00180669
0.00180623
0.0018185
0.00181368
0.00106764
0.00104873
0.00103139
0.00103121
0.00181286
0.00182282
0.00184591
0.00176763
0.00182733
0.00182231
0.0018065
0.00180698
0.00178378
0.00178088
0.00176688
0.00177965
0.00173514
0.00175092
0.00170678
0.00172102
0.00167722
0.00169225
0.00164672
0.00166207
0.00161519
0.0016311
0.00158256
0.00159902
0.00154889
0.00156585
0.00151428
0.0015317
0.00147885
0.00149667
0.00144269
0.00146086
0.00140596
0.00142441
0.00136876
0.00138741
0.00133124
0.00135004
0.00129352
0.0013124
0.00125573
0.00127463
0.00121796
0.00123684
0.00118032
0.00119912
0.00114292
0.0011616
0.00110517
0.001124
0.00108628
0.00103102
0.00103013
0.00103075
0.00103166
0.00103146
0.00103169
0.00103178
0.00103149
0.00108766
0.00104941
0.00106913
0.00112551
0.00110655
0.00116316
0.0011445
0.00120078
0.00118196
0.00123857
0.00121967
0.00127642
0.0012575
0.00131424
0.00129535
0.00135191
0.00133311
0.00138929
0.00137065
0.00142627
0.00140785
0.00146268
0.00144456
0.00149842
0.00148065
0.00153333
0.00151599
0.00156733
0.00155047
0.00160029
0.00158396
0.0016321
0.00161636
0.00166265
0.00164755
0.00169183
0.00167744
0.00171949
0.00170587
0.0017455
0.00173273
0.00177021
0.00175818
0.00179312
0.00178055
0.00181559
0.00180577
0.00183105
0.00182387
0.00181903
0.00181643
0.00102931
0.00103065
0.00182155
0.00177962
0.00180619
0.00182501
0.00183114
0.00184387
0.0018334
0.00183919
0.0018363
0.00183955
0.00183445
0.00181768
0.00177979
0.00183463
0.0018109
0.00177292
0.00177315
0.00175704
0.00177006
0.00172861
0.0017427
0.00170054
0.00171471
0.00167134
0.00168611
0.0016411
0.00165635
0.00160983
0.00162561
0.00157747
0.00159379
0.00154409
0.00156092
0.00150978
0.00152706
0.00147464
0.00149232
0.00143879
0.0014568
0.00140234
0.00142064
0.00136542
0.00138393
0.00132816
0.00134683
0.0012907
0.00130945
0.00125313
0.00127193
0.00121559
0.00123436
0.00117815
0.00119685
0.00114093
0.00115952
0.00110375
0.00112243
0.00106606
0.00108494
0.00102848
0.00104735
0.00101153
0.00100951
0.00101065
0.00101284
0.00101217
0.00101354
0.00101328
0.00101352
0.00101361
0.00101286
0.00101323
0.00101211
0.00101251
0.00104883
0.00101154
0.00103008
0.00108643
0.00106771
0.00112409
0.00110531
0.00116123
0.00114264
0.00119867
0.00117993
0.00123624
0.00121745
0.00127387
0.00125507
0.00131145
0.00129268
0.00134886
0.00133019
0.00138597
0.00136747
0.00142266
0.00140438
0.00145877
0.0014408
0.0014942
0.00147659
0.0015288
0.00151162
0.00156248
0.00154578
0.00159511
0.00157895
0.00162659
0.00161101
0.00165681
0.00164188
0.00168567
0.00167143
0.00171305
0.00169957
0.00173884
0.00172616
0.00176297
0.00175121
0.00178557
0.0017742
0.00180625
0.00179674
0.00182569
0.00181432
0.00184421
0.00183647
0.00182546
0.00182879
0.00182383
0.00102716
0.00100879
0.000993588
0.000992795
0.00182613
0.00183415
0.00182977
0.00183983
0.00184413
0.00185016
0.0018522
0.00184522
0.00182634
0.0018214
0.001835
0.00182576
0.00182505
0.00178123
0.00180279
0.00176416
0.00176919
0.00174744
0.00175951
0.00172084
0.00173417
0.00169334
0.00170728
0.00166459
0.00167913
0.00163471
0.00164979
0.00160375
0.00161938
0.00157172
0.00158788
0.00153867
0.00155532
0.00150469
0.0015218
0.00146988
0.00148739
0.00143435
0.0014522
0.00139822
0.00141636
0.00136161
0.00137997
0.00132465
0.00134317
0.00128747
0.00130609
0.00125017
0.00126883
0.00121287
0.00123152
0.00117567
0.00119426
0.00113864
0.00115713
0.00110191
0.00112025
0.00106453
0.00108328
0.00104572
0.000993263
0.000991102
0.000992456
0.000994843
0.000994135
0.000995559
0.00099529
0.000995508
0.000995626
0.00099466
0.000995192
0.000994024
0.00104791
0.0010106
0.00102924
0.00108503
0.00106648
0.00112203
0.00110365
0.00115901
0.00114049
0.00119622
0.0011776
0.00123356
0.00121489
0.00127094
0.00125226
0.00130825
0.00128962
0.00134536
0.00132685
0.00138217
0.00136382
0.00141853
0.00140043
0.00145432
0.00143652
0.0014894
0.00147197
0.00152366
0.00150665
0.00155698
0.00154046
0.00158925
0.00157327
0.00162037
0.00160498
0.00165024
0.00163548
0.00167875
0.00166469
0.00170582
0.00169249
0.00173134
0.00171879
0.00175522
0.00174353
0.00177746
0.00176654
0.0017974
0.00178789
0.00181705
0.00180624
0.00183527
0.00182537
0.00185479
0.00184336
0.00185289
0.00184432
0.00183087
0.000990303
0.000992126
0.00182827
0.00183516
0.00184154
0.00183606
0.00184327
0.00185092
0.00184966
0.00185494
0.00185781
0.00185964
0.00186074
0.0018529
0.00183428
0.00181323
0.00184433
0.00184041
0.00181919
0.00180807
0.00181611
0.00177766
0.00179125
0.00175632
0.00176511
0.0017377
0.001749
0.00171231
0.0017252
0.00168541
0.00169907
0.00165712
0.00167144
0.00162763
0.00164253
0.00159703
0.00161248
0.00156535
0.00158133
0.00153266
0.00154914
0.00149904
0.00151597
0.00146459
0.00148192
0.00142942
0.0014471
0.00139364
0.00141161
0.00135737
0.00137557
0.00132074
0.0013391
0.00128387
0.00130233
0.00124686
0.00126538
0.00120984
0.00122835
0.00117289
0.00119135
0.00113609
0.00115447
0.00109955
0.00111778
0.001063
0.0010814
0.00102597
0.00104437
0.000989266
0.00100782
0.000973227
0.000970886
0.000972154
0.000975445
0.000974264
0.000976962
0.000976316
0.000977689
0.000977419
0.000977624
0.000977756
0.000976825
0.000977311
0.000975546
0.000975973
0.000973756
0.000974653
0.00100962
0.000972906
0.000991267
0.00104667
0.00102786
0.00108323
0.00106512
0.00111972
0.00110145
0.0011565
0.00113809
0.00119346
0.00117497
0.00123054
0.001212
0.00126764
0.0012491
0.00130465
0.00128617
0.00134145
0.00132309
0.00137792
0.00135974
0.00141393
0.001396
0.00144936
0.00143174
0.00148407
0.00146682
0.00151795
0.00150114
0.00155089
0.00153456
0.00158278
0.00156699
0.00161352
0.00159831
0.00164302
0.00162845
0.00167118
0.00165729
0.00169791
0.00168475
0.00172313
0.00171073
0.00174674
0.00173517
0.00176871
0.00175795
0.00178861
0.001779
0.00180726
0.00179806
0.00182439
0.00181519
0.00184209
0.00183423
0.00185749
0.00185427
0.00185616
0.00184463
0.00184089
0.0018446
0.00184444
0.00185355
0.00184909
0.00184938
0.00185266
0.000988064
0.000969809
0.000955566
0.000954813
0.00186026
0.00185876
0.00186312
0.00186478
0.00186623
0.00186446
0.00184682
0.0018422
0.00184386
0.00186166
0.00185651
0.00185877
0.00184395
0.0018334
0.00183091
0.00180333
0.00181355
0.00179487
0.00180342
0.00176944
0.00178099
0.00174869
0.00175869
0.00172786
0.00173897
0.00170327
0.00171584
0.00167689
0.00169029
0.00164905
0.00166315
0.00161997
0.00163467
0.00158974
0.001605
0.00155844
0.00157423
0.00152613
0.00154241
0.00149289
0.00150963
0.00145883
0.00147597
0.00142404
0.00144153
0.00138864
0.00140642
0.00135273
0.00137075
0.00131645
0.00133464
0.00127991
0.00129821
0.00124322
0.00126158
0.00120649
0.00122486
0.00116982
0.00118815
0.00113328
0.00115153
0.00109696
0.0011151
0.00106096
0.00107893
0.00102437
0.00104272
0.00100625
0.000955525
0.000952939
0.000954406
0.000957768
0.000956661
0.000959214
0.000958586
0.000959927
0.000959665
0.000959871
0.000959995
0.000959105
0.000959567
0.000957594
0.000958393
0.000956675
0.00100828
0.000971947
0.000990122
0.00104498
0.00102656
0.00108091
0.00106291
0.00111718
0.00109901
0.00115371
0.00113542
0.00119041
0.00117205
0.0012272
0.00120881
0.00126399
0.00124561
0.00130068
0.00128236
0.00133714
0.00131895
0.00137325
0.00135525
0.00140889
0.00139115
0.00144393
0.00142651
0.00147825
0.0014612
0.00151173
0.00149512
0.00154427
0.00152814
0.00157576
0.00156017
0.00160611
0.00159111
0.00163523
0.00162085
0.00166302
0.00164932
0.00168942
0.00167642
0.00171433
0.00170209
0.00173767
0.00172623
0.0017594
0.00174877
0.00177929
0.00176962
0.00179758
0.00178868
0.00181446
0.00180611
0.001829
0.00182257
0.001846
0.00183334
0.00185502
0.00185752
0.00186945
0.00186194
0.00185396
0.0018429
0.00186283
0.00185959
0.00185205
0.00185413
0.000951926
0.000953829
0.00186701
0.00186036
0.0018617
0.00186663
0.00186722
0.00187061
0.00187241
0.00187032
0.0018669
0.00184869
0.00183801
0.00183938
0.00184197
0.00184933
0.00185991
0.0018515
0.00186324
0.00187158
0.0018676
0.00186624
0.00185399
0.0018351
0.00183068
0.00181779
0.00182081
0.00179596
0.00180703
0.00178207
0.00179014
0.00176054
0.00177145
0.00173962
0.00175
0.001718
0.00172917
0.00169383
0.00170619
0.00166787
0.00168106
0.00164046
0.00165435
0.00161179
0.00162629
0.00158195
0.00159702
0.00155104
0.00156664
0.00151913
0.00153522
0.0014863
0.00150284
0.00145264
0.00146958
0.00141825
0.00143554
0.00138324
0.00140082
0.00134772
0.00136554
0.00131181
0.00132981
0.00127562
0.00129375
0.00123926
0.00125746
0.00120285
0.00122107
0.00116648
0.00118466
0.00113022
0.00114834
0.00109416
0.00111217
0.00105837
0.00107622
0.00102259
0.0010406
0.000986792
0.00100455
0.000950848
0.000968645
0.000935246
0.000933092
0.000934197
0.000938061
0.000936652
0.000940184
0.000939223
0.000941589
0.000940974
0.000942276
0.000942025
0.000942228
0.000942344
0.000941465
0.00094193
0.000939869
0.000940792
0.000937844
0.000938872
0.000935927
0.000936926
0.00097049
0.000934461
0.0009528
0.00100687
0.00098853
0.00104264
0.00102492
0.00107835
0.00106045
0.00111439
0.00109635
0.00115065
0.0011325
0.00118707
0.00116885
0.00122355
0.00120531
0.00126002
0.00124181
0.00129636
0.00127822
0.00133246
0.00131446
0.00136819
0.00135039
0.00140344
0.0013859
0.00143808
0.00142086
0.001472
0.00145515
0.00150507
0.00148866
0.00153719
0.00152127
0.00156828
0.00155289
0.00159823
0.00158342
0.00162696
0.00161277
0.00165439
0.00164086
0.00168044
0.00166762
0.00170505
0.00169296
0.00172813
0.00171681
0.00174962
0.0017391
0.0017694
0.00175976
0.00178757
0.00177872
0.00180413
0.00179609
0.00181813
0.00181163
0.001831
0.0018247
0.00183083
0.00187254
0.00187598
0.00186072
0.00185213
0.00186252
0.00186333
0.00186277
0.00186838
0.00187019
0.000949308
0.000931835
0.000918185
0.000916732
0.00187567
0.00187501
0.00187779
0.0018782
0.00187679
0.00187552
0.00184639
0.0018364
0.0018496
0.00185418
0.00186454
0.00186267
0.00187444
0.00187386
0.00186524
0.00185249
0.00186305
0.0018636
0.00183047
0.0018181
0.00181938
0.001826
0.00180315
0.00181105
0.00178714
0.00179566
0.00177085
0.00177938
0.00175069
0.00176106
0.0017298
0.00174029
0.00170793
0.00171913
0.00168403
0.00169623
0.00165846
0.00167146
0.00163145
0.00164514
0.00160317
0.00161748
0.00157374
0.00158861
0.00154324
0.00155863
0.00151173
0.00152762
0.00147931
0.00149564
0.00144607
0.0014628
0.00141209
0.00142917
0.00137748
0.00139487
0.00134236
0.00135999
0.00130684
0.00132465
0.00127102
0.00128896
0.00123502
0.00125304
0.00119894
0.00121699
0.00116288
0.00118091
0.00112692
0.00114489
0.00109113
0.00110901
0.00105558
0.00107333
0.00102036
0.00103794
0.000984842
0.00100248
0.000966967
0.000917818
0.000915381
0.000916763
0.000920736
0.000919377
0.000922727
0.00092181
0.00092408
0.000923489
0.000924738
0.000924496
0.000924697
0.000924805
0.000923957
0.000924414
0.00092256
0.000923331
0.00092037
0.000921534
0.000919089
0.000968946
0.000933259
0.000951461
0.00100497
0.000986878
0.0010401
0.00102251
0.0010756
0.00105781
0.00111137
0.00109346
0.00114734
0.00112934
0.00118345
0.00116539
0.00121962
0.00120154
0.00125574
0.0012377
0.00129172
0.00127377
0.00132744
0.00130963
0.00136279
0.00134518
0.00139763
0.00138029
0.00143186
0.00141484
0.00146535
0.00144872
0.001498
0.00148181
0.00152971
0.001514
0.00156038
0.0015452
0.00158993
0.00157532
0.00161828
0.00160428
0.00164535
0.001632
0.00167107
0.00165841
0.00169537
0.00168343
0.00171819
0.001707
0.00173946
0.00172905
0.00175909
0.00174951
0.00177709
0.00176832
0.00179341
0.0017855
0.00180748
0.00180081
0.00181921
0.00181385
0.00182798
0.00182326
0.00184131
0.00183606
0.00185416
0.0018454
0.00183647
0.00187858
0.00187371
0.00187099
0.00187187
0.000913985
0.000915592
0.00187752
0.00187644
0.00187808
0.00188353
0.00188219
0.00188414
0.00188404
0.00188237
0.00187852
0.00185107
0.00183765
0.00183499
0.00183394
0.00183106
0.00184709
0.00184813
0.00186582
0.00186272
0.0018755
0.00187198
0.00187619
0.00187118
0.0018633
0.00185437
0.00187219
0.00183072
0.00183835
0.00181654
0.00181049
0.00180494
0.00181453
0.00179218
0.00179885
0.00177665
0.00178473
0.00175976
0.00176849
0.00174025
0.00175028
0.00171953
0.00173002
0.00169761
0.00170879
0.00167395
0.00168601
0.00164872
0.00166154
0.00162209
0.00163559
0.00159421
0.00160831
0.00156517
0.00157984
0.00153507
0.00155026
0.00150398
0.00151965
0.00147198
0.0014881
0.00143915
0.00145567
0.00140559
0.00142247
0.00137141
0.00138858
0.00133669
0.00135412
0.00130157
0.00131918
0.00126613
0.00128389
0.0012305
0.00124834
0.00119477
0.00121265
0.00115904
0.00117691
0.00112339
0.00114121
0.0010879
0.00110563
0.00105262
0.00107023
0.00101762
0.00103508
0.000982946
0.00100025
0.000947421
0.000965089
0.00091241
0.000930025
0.000897943
0.000894576
0.000896451
0.000900852
0.000899273
0.00090347
0.000902301
0.00090539
0.000904501
0.000906682
0.000906119
0.000907312
0.00090708
0.000907279
0.000907379
0.000906581
0.000907013
0.000905254
0.00090599
0.000903332
0.000904352
0.000900687
0.000901996
0.000898187
0.0008994
0.000931911
0.0008971
0.0009146
0.000967066
0.000949631
0.00100249
0.000984854
0.00103739
0.00101989
0.00107263
0.00105498
0.00110812
0.00109036
0.0011438
0.00112595
0.00117959
0.00116169
0.00121542
0.00119751
0.00125118
0.00123332
0.00128679
0.00126902
0.00132212
0.00130451
0.00135706
0.00133966
0.00139149
0.00137436
0.00142529
0.00140849
0.00145836
0.00144194
0.00149059
0.00147461
0.00152188
0.00150638
0.00155214
0.00153716
0.00158129
0.00156688
0.00160926
0.00159545
0.00163598
0.00162281
0.00166138
0.00164887
0.00168539
0.00167359
0.00170795
0.00169688
0.001729
0.0017187
0.00174847
0.00173897
0.00176631
0.00175763
0.00178244
0.00177463
0.00179651
0.00178979
0.00180833
0.00180279
0.00181811
0.00181324
0.00182663
0.00182355
0.00182448
0.00188615
0.00188489
0.00184859
0.00184085
0.00187897
0.00187983
0.00188166
0.00188395
0.00188533
0.000910731
0.000893349
0.000880928
0.000879865
0.00189079
0.00188868
0.00188993
0.00188926
0.00188672
0.00188238
0.0018323
0.0018224
0.00182007
0.00183264
0.00184712
0.00186208
0.00187471
0.00187184
0.00188167
0.00187933
0.00187214
0.00186158
0.00185423
0.00182982
0.00183712
0.0018802
0.00182732
0.0018197
0.00181497
0.00182607
0.00180307
0.001807
0.00179391
0.0017999
0.00178098
0.0017877
0.00176558
0.00177356
0.00174857
0.00175733
0.00172946
0.00173927
0.00170893
0.00171936
0.00168707
0.00169821
0.00166364
0.00167557
0.00163872
0.00165138
0.00161245
0.00162577
0.00158494
0.00159886
0.0015563
0.00157077
0.0015266
0.00154159
0.00149592
0.00151139
0.00146434
0.00148025
0.00143194
0.00144824
0.0013988
0.00141547
0.00136504
0.001382
0.00133074
0.00134796
0.00129602
0.00131344
0.00126098
0.00127854
0.00122572
0.00124338
0.00119036
0.00120806
0.00115497
0.00117267
0.00111964
0.0011373
0.00108446
0.00110203
0.00104947
0.00106694
0.00101473
0.00103207
0.000980331
0.000997491
0.000945394
0.000962925
0.00092787
0.00088087
0.000877396
0.000879423
0.000883951
0.000882401
0.00088632
0.000885203
0.000888164
0.000887315
0.000889394
0.000888857
0.000889998
0.000889775
0.000889971
0.000890064
0.000889315
0.000889722
0.000888039
0.000888752
0.000886202
0.000887184
0.0008836
0.000884992
0.000882169
0.000930417
0.000895648
0.000913346
0.000965146
0.000947693
0.000999813
0.0009826
0.0010345
0.00101712
0.00106947
0.00105196
0.00110466
0.00108705
0.00114002
0.00112233
0.00117548
0.00115775
0.00121096
0.00119323
0.00124636
0.00122869
0.00128158
0.00126401
0.00131651
0.0012991
0.00135104
0.00133385
0.00138505
0.00136813
0.00141843
0.00140184
0.00145107
0.00143487
0.00148288
0.00146711
0.00151375
0.00149846
0.00154361
0.00152883
0.00157237
0.00155815
0.00159998
0.00158635
0.00162635
0.00161335
0.00165144
0.00163908
0.00167517
0.0016635
0.00169749
0.00168654
0.00171834
0.00170813
0.00173765
0.00172822
0.00175535
0.00174673
0.00177133
0.00176359
0.00178536
0.00177863
0.00179727
0.00179163
0.00180726
0.00180241
0.00181466
0.00181168
0.00181927
0.00181674
0.0018274
0.00181908
0.00183101
0.0018214
0.00181801
0.0018921
0.00189042
0.00188638
0.00188716
0.000876202
0.000878346
0.00188366
0.00189092
0.00189193
0.00189697
0.00189456
0.00189515
0.00189371
0.00189046
0.00188546
0.00182113
0.0018097
0.00180229
0.00181185
0.001804
0.00181592
0.00181752
0.00183474
0.00184443
0.00186155
0.00187113
0.00188225
0.00188412
0.00188078
0.00187176
0.00186044
0.00184964
0.00183634
0.00182558
0.00188759
0.00181984
0.00181802
0.00181371
0.00180148
0.00180074
0.00181317
0.00179246
0.00179613
0.00178257
0.00178814
0.0017695
0.00177631
0.00175427
0.00176215
0.00173729
0.00174603
0.00171844
0.0017281
0.00169808
0.00170845
0.00167635
0.00168742
0.00165314
0.00166495
0.00162852
0.00164102
0.00160258
0.00161573
0.00157544
0.00158917
0.00154717
0.00156146
0.00151787
0.00153266
0.0014876
0.00150286
0.00145643
0.00147213
0.00142446
0.00144055
0.00139175
0.0014082
0.00135841
0.00137516
0.00132453
0.00134154
0.00129022
0.00130744
0.00125558
0.00127295
0.00122072
0.00123818
0.00118572
0.00120323
0.00115068
0.00116821
0.00111569
0.00113318
0.00108082
0.00109825
0.00104613
0.00106346
0.00101167
0.00102887
0.000977491
0.000994542
0.00094337
0.000960533
0.000909098
0.000926014
0.000874706
0.000891953
0.000860714
0.000857458
0.000859351
0.000864129
0.000862337
0.000866998
0.000865663
0.000869285
0.000868198
0.000871043
0.000870236
0.000872216
0.000871703
0.000872794
0.00087258
0.000872774
0.000872859
0.000872155
0.000872539
0.000870945
0.000871623
0.000869165
0.000870122
0.000866897
0.000868086
0.000864021
0.000865437
0.000861442
0.0008627
0.000894126
0.000860158
0.000877092
0.000928482
0.000911214
0.000962886
0.000945608
0.000997004
0.000979924
0.00103143
0.00101419
0.00106611
0.00104875
0.001101
0.00108354
0.00113604
0.00111851
0.00117115
0.0011536
0.00120627
0.00118873
0.00124129
0.00122381
0.00127612
0.00125875
0.00131065
0.00129344
0.00134476
0.00132777
0.00137835
0.00136164
0.0014113
0.00139493
0.00144352
0.00142753
0.00147491
0.00145934
0.00150537
0.00149028
0.00153484
0.00152026
0.00156323
0.00154919
0.00159047
0.00157702
0.00161652
0.00160367
0.00164131
0.0016291
0.00166478
0.00165324
0.00168688
0.00167603
0.00170754
0.00169742
0.00172669
0.00171734
0.00174426
0.00173571
0.00176014
0.00175246
0.00177414
0.00176742
0.00178611
0.00178043
0.00179609
0.00179134
0.00180359
0.00180033
0.00180813
0.00180624
0.00181088
0.00180974
0.00180679
0.00189707
0.00189499
0.00181723
0.00180989
0.00189319
0.00189384
0.00188867
0.00189708
0.00189787
0.000873092
0.000856072
0.000844563
0.0008432
0.00190225
0.00189979
0.00189961
0.00189747
0.00189347
0.00188787
0.00180494
0.00179731
0.0017836
0.00179106
0.00182153
0.00182941
0.00184818
0.00185167
0.00187033
0.00188007
0.00188783
0.00188101
0.00187072
0.00185939
0.00184372
0.0018348
0.00182153
0.00179989
0.00180742
0.00189433
0.00180241
0.00178449
0.00180728
0.00181009
0.00179851
0.00179362
0.00178985
0.00179788
0.00178148
0.00178545
0.00177103
0.00177671
0.00175796
0.00176477
0.00174285
0.00175067
0.00172593
0.00173463
0.00170726
0.00171682
0.00168708
0.00169737
0.0016655
0.00167648
0.00164251
0.00165419
0.00161816
0.00163051
0.00159254
0.00160552
0.00156574
0.0015793
0.00153785
0.00155194
0.00150893
0.00152353
0.00147906
0.00149412
0.0014483
0.0014638
0.00141674
0.00143263
0.00138446
0.0014007
0.00135155
0.00136809
0.00131809
0.00133489
0.0012842
0.0013012
0.00124996
0.00126712
0.00121549
0.00123276
0.00118087
0.0011982
0.0011462
0.00116354
0.00111155
0.00112887
0.00107701
0.00109427
0.00104263
0.0010598
0.00100846
0.00102552
0.000974538
0.000991466
0.000940942
0.000957715
0.000907014
0.00092388
0.000890082
0.000844176
0.000840624
0.000842671
0.000847461
0.000845798
0.000850147
0.000848871
0.000852353
0.000851313
0.000854025
0.000853257
0.000855144
0.000854654
0.000855698
0.000855492
0.000855683
0.000855762
0.000855101
0.000855463
0.000853959
0.000854599
0.000852269
0.000853181
0.000850096
0.000851237
0.000847268
0.000848757
0.00084581
0.000892586
0.00085902
0.000875734
0.000926583
0.00090947
0.000960178
0.000943352
0.000994046
0.000977077
0.00102819
0.0010111
0.00106258
0.00104537
0.00109715
0.00107985
0.00113185
0.00111449
0.00116661
0.00114924
0.00120136
0.001184
0.001236
0.00121871
0.00127043
0.00125326
0.00130455
0.00128755
0.00133824
0.00132147
0.00137141
0.00135491
0.00140394
0.00138778
0.00143575
0.00141996
0.00146672
0.00145136
0.00149679
0.00148189
0.00152587
0.00151147
0.00155389
0.00154004
0.0015808
0.00156751
0.00160654
0.00159384
0.00163105
0.00161897
0.00165427
0.00164285
0.00167616
0.00166541
0.00169665
0.00168661
0.00171567
0.00170637
0.00173313
0.00172463
0.00174894
0.00174129
0.00176293
0.0017562
0.00177496
0.00176923
0.00178496
0.00178024
0.00179257
0.00178917
0.0017975
0.00179537
0.00179948
0.00179908
0.00179793
0.00179876
0.00179934
0.00179323
0.00178996
0.00178402
0.00179081
0.00190118
0.00189808
0.00189928
0.00189983
0.000839358
0.000841921
0.00189284
0.00190242
0.00190313
0.00190677
0.00190428
0.00190335
0.00190044
0.00189571
0.00188921
0.00177241
0.00177439
0.00177094
0.00178757
0.0017964
0.00180878
0.00183307
0.00183915
0.00185683
0.00186458
0.00187734
0.00188679
0.00188019
0.00186903
0.00185615
0.00184382
0.00182924
0.00181307
0.00179702
0.00177652
0.00178597
0.00177459
0.00190038
0.00179335
0.00176805
0.00178852
0.0017827
0.00179265
0.00179359
0.00178511
0.00178779
0.00177936
0.00178359
0.00177035
0.0017749
0.00175954
0.00176528
0.00174645
0.00175327
0.00173139
0.00173918
0.00171453
0.00172319
0.001696
0.00170549
0.00167597
0.00168618
0.00165455
0.00166545
0.00163177
0.00164334
0.00160768
0.0016199
0.00158236
0.00159519
0.0015559
0.00156928
0.00152835
0.00154227
0.00149981
0.00151422
0.00147033
0.00148519
0.00143998
0.00145527
0.00140883
0.00142451
0.00137697
0.001393
0.00134448
0.00136081
0.00131144
0.00132803
0.00127796
0.00129476
0.00124414
0.0012611
0.00121006
0.00122713
0.00117582
0.00119296
0.00114152
0.00115868
0.00110723
0.00112437
0.00107302
0.00109012
0.00103896
0.00105597
0.00100509
0.001022
0.000971451
0.000988243
0.0009381
0.000954741
0.000904646
0.00092132
0.000871421
0.00088808
0.000837877
0.000854628
0.000824269
0.000820966
0.000822882
0.000827789
0.000825953
0.000830836
0.000829389
0.000833414
0.000832179
0.000835518
0.000834529