/*--------------------------------*- C++ -*----------------------------------*\
  =========                 |
  \\      /  F ield         | OpenFOAM: The Open Source CFD Toolbox
   \\    /   O peration     | Website:  https://openfoam.org
    \\  /    A nd           | Version:  10
     \\/     M anipulation  |
\*---------------------------------------------------------------------------*/
FoamFile
{
    format      ascii;
    class       surfaceScalarField;
    location    "60.5";
    object      phi;
}
// * * * * * * * * * * * * * * * * * * * * * * * * * * * * * * * * * * * * * //

dimensions      [0 3 -1 0 0 0 0];

internalField   nonuniform List<scalar> 
57492
(
0.000235818
-1.05981e-05
-4.37387e-05
-0.000181482
-0.000162623
0.000267569
0.000130873
-2.87619e-05
8.08573e-05
0.000323375
-0.00037547
0.00315981
0.00338642
-0.000272094
-0.00627413
-0.00862824
0.00404527
0.00774277
0.000738206
-0.000679642
-0.000356411
0.000297847
-0.00131621
0.000228704
-7.99572e-05
0.00116746
0.000281783
-0.000859786
0.00158885
-0.00463341
0.00442582
-0.00138127
0.0013411
0.0042493
-0.00400155
-0.000611713
-0.000206586
0.000684445
0.000133854
-0.00012249
-0.000832413
0.00034319
0.00023182
-0.000325294
-2.9016e-05
-5.32773e-05
7.85113e-05
0.0017477
-0.00168604
-0.000632115
0.000570452
0.000250776
0.00141016
8.67627e-05
-0.000324445
0.000788303
0.00333525
-0.0037991
-0.000660619
0.00326112
-0.00292494
0.000135456
-0.000288554
0.000153098
-0.00166334
0.00121998
0.000578825
-0.00465988
0.000189706
0.00333566
0.00113451
0.00122798
-0.00473002
-0.00115783
-0.000133016
-0.000196478
-0.000702139
0.00103163
-0.000287046
0.00017606
-2.20292e-05
-0.00254584
0.00216082
0.000734604
-0.000349588
-0.00304912
0.00092558
-0.000422304
-0.00112751
0.00059631
0.000456684
7.45154e-05
-0.000778829
-0.000362212
1.35315e-05
-0.000367147
-0.00113347
0.00129036
0.000210253
-0.000415907
0.000116342
-6.75815e-05
0.000768657
-0.000511629
-0.000476666
0.000219638
-0.000663284
0.000532704
0.000899237
-0.000908493
-0.00174118
0.00168467
0.000965003
-0.00206756
-0.000494674
0.00165374
-0.000707305
-0.000152033
0.000859338
-0.000271236
-0.000436069
-0.00137441
0.00189186
-0.000788687
0.000203051
-0.000767163
-0.000810294
-0.000583322
0.000812025
-0.000233018
-0.00190185
0.00115083
0.000751016
-0.00432169
0.00241984
0.00488803
-0.000831882
0.000358113
-0.00441426
0.00359653
-7.2099e-05
0.00136359
-0.000739404
0.00489639
-0.00498887
0.00144498
0.000311337
-0.00147454
0.00145662
-9.15943e-05
0.00176417
-0.000661297
-0.00131366
0.00021079
0.00197512
0.000100389
0.000901789
-0.00056086
0.00111569
0.000873961
0.00119529
-0.00475406
-0.000636308
0.00054825
0.00484212
-0.00488717
-0.000300264
0.000433379
0.00121703
0.00451315
-0.00443779
-0.00129239
0.000888587
-0.00430497
-0.00277969
0.00252977
0.00253546
-0.00228554
-0.000274437
0.00320387
-0.00570912
1.48589e-05
-0.000116648
-8.05881e-07
0.000102595
-0.000321084
1.06489e-05
6.69916e-05
-0.000135931
-0.000252144
-5.63178e-05
6.6611e-06
1.11257e-05
-1.19316e-05
8.85365e-06
2.2721e-06
0.00730389
0.00378567
-0.00587975
-0.0052098
0.00233703
-0.000701678
0.00566854
-0.00785357
0.00309849
0.00709211
0.00229245
-0.00636035
0.00162402
-0.00286569
0.00213354
-0.000891877
0.00235616
-0.0029143
0.00218216
-2.98663e-05
2.1832e-05
-2.56382e-06
-7.01899e-05
-3.41515e-06
-0.000222675
-2.89966e-05
-0.00293823
0.00534766
0.00339285
-0.00580227
0.00436303
-0.0049451
0.00298442
0.00474757
-0.00238433
0.0100862
-0.0014822
-0.00178983
-0.00681414
0.00224193
0.00542042
0.00242381
0.00160536
-0.00500663
0.0056432
4.67907e-05
-7.55526e-05
0.000127648
0.00081608
0.00175736
-0.000626257
-0.00194719
0.00103983
9.96197e-05
-9.57156e-05
2.63068e-05
6.94088e-05
-0.00029794
0.000202225
-0.00660438
0.00342297
-0.00201305
0.00519445
-0.00574106
-0.00249656
0.00163325
-0.00262472
0.00208812
-0.00520446
0.00195148
-2.65935e-05
-0.000944072
-0.000980815
-0.000711464
0.00222711
0.000435832
-0.000834459
-8.52307e-05
0.000208226
-0.000771397
-8.96549e-05
-0.000271417
-0.00144405
-0.000236906
-6.25644e-05
1.85575e-05
0.000280913
-0.000215455
-0.000521628
0.000500177
0.000137465
1.68555e-05
-0.000369776
7.91443e-05
-4.2433e-06
0.000100356
-2.65375e-06
-0.000640986
0.000369569
8.34404e-05
-0.000724426
0.000172314
-0.000470254
0.00427361
0.00333162
-0.000178521
0.00212864
-0.00648326
-1.03727e-05
0.00226396
-0.00179748
-0.000456113
0.000291738
0.00316414
-0.00346625
0.00326967
0.00184263
-0.000501408
-0.00461089
-0.00103227
0.000499852
0.00380209
0.00399091
-0.00318055
-0.00164235
-0.00303457
0.00125085
0.00342606
-0.0011852
0.00350496
-0.0039621
0.000422979
-0.00464275
8.24328e-05
3.37396e-05
-4.58406e-06
0.00104525
-0.000616364
-0.000591513
7.68862e-05
-0.000324415
0.00129278
0.00036355
-1.90952e-05
-0.000187212
0.000331761
6.83225e-05
-0.000212872
0.000991612
-0.00121498
3.61511e-05
-0.000357571
0.000830805
0.000518379
-0.000125086
9.92757e-05
-0.0061134
0.00365093
0.00588543
0.00772177
-0.00200666
-0.00821166
-0.00285583
0.0044642
-9.71035e-05
-0.000874222
-0.00016214
-0.000522137
9.12623e-06
4.78986e-05
-0.000129948
3.72231e-05
4.48263e-05
-0.000130007
0.000144527
3.33789e-05
-0.000299421
3.9466e-05
-0.000265254
-0.000312709
5.58264e-05
-0.000803581
-0.000335895
-0.000829802
-0.000890433
0.00101762
0.000702615
3.39758e-05
0.000439174
-0.00130295
-0.00116135
0.00030489
-0.0029341
0.00133076
-6.00014e-05
-0.00350284
0.000809625
-0.000240881
0.000875989
-0.00334735
0.00256416
-9.27939e-05
0.000679019
-0.00272844
0.00292541
0.0025282
-0.0101972
-0.00176564
0.00218204
0.0030217
-0.00345659
0.00206073
-0.000320908
4.01964e-07
1.64535e-05
-3.40448e-06
3.80646e-06
0.000284228
-4.1297e-05
0.00559559
-0.00341519
-0.00248385
0.000303447
0.00484162
1.45706e-05
0.00464442
0.000164866
-0.00508372
0.00137817
0.00329849
-3.22423e-05
0.000549452
-0.00291483
0.00374354
5.35692e-06
-8.7614e-06
0.000759154
-0.00211977
-0.00284639
0.00123183
0.0030834
0.000866542
-4.93068e-05
-0.000911048
9.38127e-05
0.000287646
-8.43879e-05
-0.00111524
0.000245672
0.00140227
0.000202501
-0.00103009
-0.000134911
7.58779e-05
-7.33416e-06
1.03164e-05
-2.66278e-06
-3.19513e-07
1.09213e-05
-2.41349e-07
-1.80141e-05
4.65093e-05
-0.000104122
6.8534e-05
-0.00171708
0.00265083
-0.000761429
0.00291698
-0.0037843
-0.000849767
6.3924e-06
-0.00153148
0.00177076
-0.00399212
0.000241324
-0.00273669
-0.00183148
0.000576049
0.00269154
0.00291122
-0.00541305
0.00260497
0.00429318
-0.00420662
0.00224016
-0.00308412
0.00160618
-0.000762219
0.00245537
-0.00302328
0.00280806
0.00437059
0.00187629
0.00500049
-0.000232386
-0.00496622
0.00019812
0.00554085
-0.000660753
0.000120389
0.00552922
-0.000903773
8.28269e-05
-0.00470827
0.0039687
-0.0013759
0.00293642
0.00430771
-0.00140468
0.00114158
-0.00404461
0.00127021
0.00438773
-0.00135023
-0.00387602
-0.00166625
0.00413758
0.00106729
-0.00369246
-0.00186033
0.00362014
-0.00237899
-0.0032391
0.00215482
0.00346327
-0.00239501
-0.00326718
0.0032832
0.00223493
0.00304597
-0.00147454
-0.00380637
0.00301977
-0.00317985
-0.00258922
0.0026137
0.00299529
-0.00204077
0.00249752
-0.00406881
0.00361488
-0.0010206
-0.00506534
0.00105334
0.00537457
-0.00136258
0.00191023
-0.000265584
0.000992059
-0.00105803
0.000331553
-0.000108692
0.00127182
-0.00142871
-5.30261e-05
0.000305578
0.000110998
-0.00111821
-0.00174911
0.00113806
-1.7585e-07
-6.54988e-08
3.10629e-07
-4.86482e-07
-0.000103819
-0.00193137
0.00147432
-0.00172062
-6.99246e-05
0.00168672
4.78415e-05
-0.00180343
3.49705e-05
-0.000245839
0.00160768
0.000270857
-0.00163269
0.00165125
0.000467636
-0.00236473
0.00164468
0.00161425
-2.45345e-06
4.94479e-07
3.56985e-05
-4.76542e-06
2.31197e-06
-4.27094e-06
-5.55068e-06
4.24057e-06
-5.50077e-05
1.02996e-06
-6.58064e-06
5.27053e-06
-4.39574e-05
2.12981e-05
-0.000264387
2.21912e-05
-6.61485e-05
4.34892e-05
5.31946e-05
-5.33796e-06
-0.000172943
-1.69056e-05
7.01002e-05
-2.22435e-05
0.00142556
0.00328016
-0.00420586
0.00132718
-0.00446581
0.00456418
0.00471503
-0.000107691
-0.00118218
-0.0024443
0.00115803
0.00246846
-0.000710487
0.00272174
-0.00319344
0.000157247
-0.00331204
0.00391476
-0.00392744
-1.69163e-05
2.96036e-05
0.00393667
3.10712e-05
-5.29842e-05
-2.90455e-05
-0.00389671
-1.68732e-06
0.00398938
-5.464e-06
-4.72423e-05
0.00408347
5.43096e-05
-0.000148409
2.50535e-05
0.00420812
-0.000149704
0.00415669
-0.0041098
-2.18358e-05
-0.000200354
0.00442784
-1.93637e-05
0.00406232
-0.000105988
-0.00396164
-9.38506e-05
-0.00392513
-4.19736e-05
-0.00389608
2.02573e-06
-0.00395507
4.2072e-05
-0.00386566
-0.000118459
-0.000195973
0.00464298
-1.91627e-05
0.00389238
-2.60317e-05
-2.40076e-05
-0.00383848
-3.42246e-05
-0.00387175
-1.79109e-05
-3.19898e-05
-0.00403343
0.000226946
-4.93798e-06
0.00466641
-1.8492e-05
0.00391277
-2.5323e-05
-0.00398705
8.33086e-05
0.00468919
-4.6257e-06
-1.81519e-05
-4.5393e-06
0.00471107
-1.73456e-05
0.00393231
-2.41679e-05
0.00395134
-2.35727e-05
-2.74447e-05
-0.00398166
-2.4334e-05
-0.00398068
-3.38177e-05
-4.11637e-06
0.00473218
-1.69969e-05
0.00396963
-2.24017e-05
-4.86599e-06
-0.00395196
-2.48344e-05
-0.00395094
-3.46026e-05
-3.89318e-06
0.00475224
-1.6161e-05
0.00398756
-2.18304e-05
-4.75718e-06
-0.00392166
-2.55389e-05
-0.00392073
-3.49686e-05
-3.21435e-06
0.00477127
-1.5817e-05
0.00400499
-2.06456e-05
-4.84002e-06
-0.00389091
-2.59119e-05
-0.00388993
-3.56384e-05
-2.50304e-06
0.00478873
-1.49595e-05
0.00402259
-2.01034e-05
-4.70334e-06
-0.00385968
-2.65255e-05
-0.00385873
-3.59058e-05
-8.23955e-07
0.00480418
-1.46251e-05
0.00404068
-1.8907e-05
4.20337e-06
-0.00383704
-2.68421e-05
-0.00381811
-3.64148e-05
1.86942e-06
0.00481606
-1.37462e-05
0.00406094
-1.83898e-05
2.02855e-05
-0.0036979
-0.000159429
-0.003722
-7.58229e-05
7.54078e-06
0.00482194
-1.34187e-05
0.00406698
1.49951e-06
1.97897e-05
-0.00368461
-3.30717e-05
-0.00366344
-3.87747e-05
1.81932e-05
0.00481627
-1.25251e-05
0.00405175
3.34225e-05
4.75087e-05
-0.00352366
-0.000208466
-0.00352718
-8.87525e-05
0.000204361
0.0046241
-1.21965e-05
0.0041881
6.8009e-05
5.4621e-05
-0.00347666
-0.000101619
-0.00345802
-1.45342e-05
0.000181277
0.00429628
0.000146546
0.00426991
9.947e-05
8.87861e-05
-0.000159114
-0.00340633
-0.00341357
4.43309e-05
1.12253e-05
3.07094e-05
0.00425435
0.00425423
2.69033e-05
-0.00349737
0.00358383
-0.000188075
-0.00348576
-0.000170726
0.000153205
-0.000164791
-0.00339474
4.28953e-05
-0.00330326
-0.00353692
0.00359815
-9.43009e-05
-0.000161562
-0.0034955
0.00352447
-5.58159e-05
-5.67747e-05
-0.00355285
0.0035809
-5.39531e-05
-5.49091e-05
-0.00360834
0.00363545
-5.19433e-05
-5.29818e-05
-0.00366201
0.00393884
-4.98834e-05
-5.0894e-05
-0.00395354
0.00392463
2.72155e-05
-4.89239e-05
-0.00407619
0.00406882
-4.56105e-05
-0.000121958
-0.00396117
0.00392556
-0.000112794
6.04038e-05
-0.00385378
0.00387523
-4.08164e-05
-7.79217e-05
-0.00389582
0.00391583
-3.85003e-05
-3.97542e-05
-0.00393508
0.0039538
-3.60647e-05
-3.74009e-05
-0.00397175
0.00398916
-3.35729e-05
-3.49489e-05
-0.00400581
0.00402191
-3.1062e-05
-3.2463e-05
-0.00403726
0.00405207
-2.85544e-05
-2.99718e-05
-0.00406614
0.00407966
-2.60488e-05
-2.74894e-05
-0.00406861
0.0041765
3.86504e-05
-1.14502e-06
0.00417773
2.94856e-05
-2.71348e-05
7.24242e-05
0.00420906
-1.66538e-05
0.00424375
0.00417998
-0.00409858
-1.33885e-05
-0.00423322
0.00423613
2.39953e-05
4.62329e-05
0.00408481
-0.00405197
-3.1342e-05
1.96484e-05
0.00403727
-0.00402179
-3.43922e-05
-3.30859e-05
0.00400579
-0.003989
-3.74405e-05
-3.60954e-05
0.00397169
-0.00395357
-4.05244e-05
-3.91358e-05
0.00393494
-0.00391548
-4.36281e-05
-4.22067e-05
0.00389551
-0.00387478
-4.67548e-05
-4.52925e-05
0.00393237
-0.00390445
-4.97553e-05
-4.8399e-05
0.00394705
-0.00388097
-0.000108059
-5.12499e-05
0.00383188
-0.00378279
-7.02383e-06
-4.70586e-05
0.00380521
-0.00380424
-1.88826e-05
-9.60364e-05
0.0036617
-0.00363514
-6.0373e-05
-5.92322e-05
0.00360824
-0.00358067
-6.25406e-05
-6.15089e-05
0.00355278
-0.00352427
-6.4419e-05
-6.35218e-05
0.00349544
-0.00350525
-6.6015e-05
-6.52433e-05
0.00347731
-0.00349867
-6.73915e-05
-6.6709e-05
0.00344515
-0.00336508
-3.57417e-05
-6.8058e-05
-0.00329932
-2.2859e-05
-0.00348046
-0.000170091
0.00420215
4.80043e-05
-2.37878e-05
0.00424326
8.6001e-05
-0.000105062
-0.0032842
3.08733e-05
-0.0032442
0.000140949
-0.000165893
-0.00345551
-0.00335886
-0.00349358
0.00346632
-0.000160825
0.00350354
-0.00350185
-0.000171777
-0.000160761
-0.00345088
0.00348017
-0.000123594
-0.000146113
-0.00350889
0.00353735
-8.42779e-05
-8.54936e-05
-0.00356522
0.00359276
-8.14946e-05
-8.27824e-05
-0.00361971
0.00364631
-7.85462e-05
-7.99247e-05
-0.00367232
0.0036979
-7.54666e-05
-7.69027e-05
-0.00372279
0.00382233
-7.23253e-05
-7.38124e-05
-0.003771
0.00379438
-6.89903e-05
-7.06228e-05
-0.00392203
0.00387484
-6.55995e-05
-6.72517e-05
-0.00386058
0.00388164
-6.1869e-05
-6.36695e-05
-0.00390189
0.0039216
-5.82082e-05
-6.00096e-05
-0.00394054
0.00395895
-5.44795e-05
-5.634e-05
-0.00397661
0.00399373
-5.06978e-05
-5.26019e-05
-0.0040101
0.00402594
-4.69015e-05
-4.88317e-05
-0.00404103
0.0040556
-4.31239e-05
-4.50662e-05
-0.00406944
0.00408276
-3.93627e-05
-4.13294e-05
-0.00409511
0.00413989
-6.12956e-06
-1.34987e-05
3.92896e-07
-2.01204e-05
0.00422878
-1.75076e-05
0.00422005
-0.00413878
0.00419059
-3.81057e-06
3.06017e-05
0.0041822
-0.00417165
1.34453e-05
0.00415932
-9.0751e-07
9.76142e-06
2.63771e-05
0.00420712
0.00423339
0.00416025
-0.00411778
-5.58574e-05
3.48332e-05
0.0040695
-0.00405549
-4.53467e-05
-2.86393e-05
0.00404102
-0.00402578
-4.96324e-05
-4.75607e-05
0.00401005
-0.00399352
-5.39613e-05
-5.18258e-05
0.00397651
-0.00395869
-5.8342e-05
-5.61513e-05
0.00394038
-0.00392127
-6.27396e-05
-6.05148e-05
0.00390169
-0.00388133
-6.71127e-05
-6.48779e-05
0.00386054
-0.00383894
-7.13561e-05
-6.91841e-05
0.00381687
-0.00384944
-7.54854e-05
-7.33211e-05
0.00381918
-0.00374684
-7.93546e-05
-7.73282e-05
0.00376174
-0.0036975
-8.31156e-05
-8.11436e-05
0.00367207
-0.00364595
-8.64944e-05
-8.46697e-05
0.00361951
-0.00359242
-8.96297e-05
-8.79464e-05
0.00356502
-0.003537
-9.24439e-05
-9.09172e-05
0.00350867
-0.00347974
-9.49466e-05
-9.35673e-05
0.00345052
-0.00342073
-9.71871e-05
-9.5929e-05
0.00339071
-0.00332726
-9.91985e-05
-9.80724e-05
0.00327853
-0.00320506
-4.26036e-05
-7.15823e-05
-0.00349502
-0.000172727
1.63119e-05
-9.66261e-05
-0.00316388
-0.00315588
-3.28593e-05
-0.000176611
-0.00320421
-3.2236e-06
0.00417631
0.00417635
9.34892e-06
-0.000110041
9.72152e-05
-0.00344269
-0.000139463
-0.0034656
-6.8802e-06
-9.21299e-05
-0.00306487
-5.71414e-05
-0.00310562
-0.00343825
0.00420414
-0.00418161
-2.63402e-05
0.00417126
2.96572e-05
5.28711e-05
-2.06155e-05
0.00417487
1.75894e-05
0.00421163
-0.00345648
0.00352484
-0.000207815
-0.000187705
0.00013682
-0.00341471
0.00350595
2.38268e-05
0.000168081
-0.00369786
-0.000138239
-0.00355113
0.0035526
-0.000173248
-0.000199022
-0.00353556
0.00350671
-0.000131983
-0.000143713
-0.00350866
0.00350056
-0.000115496
-0.000148059
-0.00352855
0.00355623
-0.000111956
-0.000113486
-0.00358333
0.0036101
-0.000108266
-0.000109879
-0.00363629
0.00366214
-0.0001044
-0.000106113
-0.0036874
0.00371228
-0.00010035
-0.000102159
-0.00373651
0.00376033
-9.61376e-05
-9.80416e-05
-0.00378346
0.0038062
-9.17266e-05
-9.37567e-05
-0.00382821
0.00384976
-8.71502e-05
-8.92651e-05
-0.00387066
0.00389112
-8.23242e-05
-8.4574e-05
-0.00391084
0.00393005
-7.74207e-05
-7.97267e-05
-0.00394852
0.00396647
-7.24381e-05
-7.48065e-05
-0.00398369
0.00400039
-6.7402e-05
-6.98179e-05
-0.00401636
0.00403182
-6.23566e-05
-6.47992e-05
-0.00404655
0.00406077
-5.73456e-05
-5.97959e-05
-0.00407428
0.0040873
-5.23809e-05
-5.48435e-05
-0.0041109
0.00412919
-2.44246e-05
-3.70969e-05
-2.18146e-05
1.86523e-05
-1.12208e-05
0.00422135
-2.54961e-05
-1.66528e-05
0.00421846
0.0042132
0.00420155
0.00417397
-0.00415861
-1.91635e-06
-0.00417844
0.00416539
2.24024e-05
-5.37923e-06
0.00409977
-0.00410196
-5.36716e-05
-2.40006e-05
0.0040743
-0.00406062
-5.90246e-05
-5.62973e-05
0.0040465
-0.00403162
-6.45059e-05
-6.16881e-05
0.00401628
-0.00400016
-7.00768e-05
-6.71732e-05
0.00398357
-0.0039662
-7.57113e-05
-7.27432e-05
0.00394836
-0.00392974
-8.13557e-05
-7.83543e-05
0.00391067
-0.00389084
-8.69459e-05
-8.39482e-05
0.00387057
-0.00384953
-9.23957e-05
-8.94513e-05
0.00382806
-0.00380587
-9.7678e-05
-9.47904e-05
0.00378326
-0.00375992
-0.000102703
-9.99345e-05
0.00373622
-0.00371186
-0.00010748
-0.000104835
0.00368712
-0.00366171
-0.000111898
-0.000109413
0.003636
-0.00360964
-0.000115984
-0.000113665
0.00358299
-0.00355573
-0.000119706
-0.000117567
0.00352818
-0.00350005
-0.000123079
-0.000121112
0.00347165
-0.00344269
-0.000126147
-0.000124329
0.00341349
-0.00338374
-0.00012895
-0.000127271
0.00332535
-0.00323632
-0.000131627
-0.000129978
0.0031738
-0.00315362
-7.73232e-05
-9.53809e-05
-4.54441e-05
1.79695e-05
-0.00307815
-0.00311034
-8.8727e-05
0.000124765
-0.00343063
-7.09215e-05
-0.00322542
2.73366e-06
0.00415187
0.00418942
-6.43888e-06
0.000176601
-0.00356749
4.52592e-05
-0.00309216
0.000788249
-0.00284573
0.00370216
5.08974e-05
-9.82447e-05
-0.00306299
-7.45445e-06
-0.0030198
-0.0022837
0.00350017
0.000397782
-0.00173317
-0.000279679
-0.00338441
-0.00334971
0.00351865
-8.62041e-07
0.000154765
-4.30559e-06
-0.00351049
0.0035056
-0.000202924
-0.000130074
-0.00350474
0.003483
-0.000151512
-0.000198163
-0.00348826
0.0035035
-0.000147214
-0.000148977
-0.00350007
0.00352744
-0.000142866
-0.000144637
-0.0035543
0.00358087
-0.000138526
-0.000140338
-0.00360691
0.00363265
-0.000134011
-0.00013592
-0.00365785
0.00368273
-0.000129279
-0.000131307
-0.00370703
0.00373099
-0.000124308
-0.000126464
-0.00375433
0.0037773
-0.000119101
-0.000121386
-0.00379961
0.00382153
-0.000113648
-0.000116072
-0.00384279
0.0038636
-0.000107966
-0.000110518
-0.00388376
0.00390348
-0.000102047
-0.000104733
-0.00392251
0.00394106
-9.59755e-05
-9.87532e-05
-0.00395891
0.00397627
-8.97972e-05
-9.26501e-05
-0.00399291
0.00400907
-8.35574e-05
-8.64639e-05
-0.00402451
0.00403947
-7.73114e-05
-8.02459e-05
-0.00405373
0.0040675
-7.11147e-05
-7.40525e-05
-0.00408058
0.00409321
-6.50015e-05
-6.79331e-05
-0.00411801
0.00415258
-5.89965e-05
-6.18982e-05
-0.00415327
0.00416069
-3.37616e-05
-2.25059e-05
-0.00418683
0.00419045
-8.91733e-07
3.52177e-06
3.14695e-05
-1.49926e-05
0.00420198
8.0219e-07
-3.81515e-05
0.0042278
0.00418414
3.2839e-05
1.5513e-05
0.004173
0.00423105
-1.79003e-05
-3.96301e-07
0.00419316
0.00419917
5.35466e-06
-3.58021e-05
0.00421986
0.00421659
0.00420797
-0.00418354
-2.02868e-06
-0.00428181
0.00417787
6.8133e-05
-8.02719e-05
0.00416323
-0.00414373
-2.14235e-05
-2.56896e-05
0.00410523
-0.00409312
-6.57856e-05
-6.24961e-05
0.00408056
-0.00406733
-7.22623e-05
-6.8849e-05
0.00405365
-0.00403926
-7.89003e-05
-7.53634e-05
0.00402441
-0.00400882
-8.56637e-05
-8.20219e-05
0.00399278
-0.00397599
-9.24992e-05
-8.87853e-05
0.00395876
-0.00394077
-9.9337e-05
-9.55908e-05
0.00392236
-0.0039032
-0.000106099
-0.000102365
0.00388363
-0.00386332
-0.000112703
-0.000109026
0.00384261
-0.00382119
-0.000119094
-0.000115503
0.00379939
-0.00377689
-0.0001252
-0.000121737
0.00375406
-0.00373056
-0.000130978
-0.000127673
0.00370672
-0.00368225
-0.000136369
-0.000133248
0.00365748
-0.0036321
-0.000141364
-0.000138438
0.00360644
-0.00358019
-0.00014595
-0.000143228
0.00355369
-0.00352662
-0.000150142
-0.000147618
0.00349932
-0.00347148
-0.000153981
-0.000151634
0.00344343
-0.00341486
-0.000157519
-0.000155328
0.00338609
-0.00335687
-0.000160838
-0.000158751
0.00329027
-0.00320356
-0.000164026
-0.000161988
0.00318134
-0.00314273
-0.000136858
-0.000110954
-9.22579e-05
6.70326e-05
-0.00303776
-0.00309359
-0.000141389
0.000119556
-0.00337359
-1.36444e-05
-0.00316652
0.000303579
-0.00308282
4.61047e-05
-0.00314572
0.00419841
-0.004195
-4.30098e-06
0.00419129
-3.10293e-05
1.5314e-05
-7.66458e-06
0.00421221
-3.12741e-05
0.00422446
0.000324071
-0.00270217
8.04355e-05
-0.0030332
-0.00151632
-0.00184954
-0.00273055
0.00317416
-4.58351e-05
-7.20395e-05
6.24503e-05
-0.00302817
-0.000117506
-0.00304813
-0.00250313
-0.000507096
-0.0032785
-0.00334088
0.00341067
-7.06575e-05
-1.19486e-05
-0.00346593
0.00344622
-0.000183211
-0.000185335
-0.0034283
0.00345517
-0.000178378
-0.000180241
-0.00348172
0.00350813
-0.00017363
-0.000175527
-0.00353421
0.00356011
-0.000168764
-0.000170716
-0.00358557
0.0036108
-0.000163757
-0.000165798
-0.00363556
0.00366005
-0.000158507
-0.000160676
-0.00368404
0.00370774
-0.000152979
-0.000155295
-0.0037309
0.00375374
-0.00014715
-0.000149626
-0.00377601
0.00379793
-0.000141019
-0.000143656
-0.00381925
0.00384019
-0.000134588
-0.000137388
-0.0038605
0.00388041
-0.000127875
-0.000130832
-0.00389968
0.00391854
-0.000120902
-0.000124006
-0.00393674
0.00395449
-0.000113732
-0.000116952
-0.00397158
0.00398821
-0.000106425
-0.000109735
-0.00400416
0.00401964
-9.90446e-05
-0.000102416
-0.00403446
0.0040488
-9.16575e-05
-9.5059e-05
-0.00406248
0.0040757
-8.43328e-05
-8.77336e-05
-0.00408827
0.0041004
-7.71271e-05
-8.05041e-05
-0.00411191
0.00412299
-7.00747e-05
-7.34123e-05
-0.00416698
0.00416275
-2.95286e-05
-6.64948e-05
-2.87302e-05
1.95094e-05
-5.53371e-05
0.00423781
1.51541e-05
-1.11728e-05
0.00422382
0.00421881
-7.49192e-06
-1.45761e-06
0.00418195
0.00416822
-3.03177e-05
4.10779e-05
0.0041824
0.00416739
0.00425
0.00421557
-0.00419399
-2.36037e-05
-0.00417271
0.00422176
1.90811e-05
-3.7412e-05
0.00417163
-0.00412293
-7.01222e-05
-4.80489e-05
0.00411191
-0.00410027
-7.74242e-05
-7.35196e-05
0.00408823
-0.00407552
-8.49646e-05
-8.08935e-05
0.0040624
-0.00404859
-9.27108e-05
-8.84872e-05
0.00403435
-0.0040194
-0.000100607
-9.62635e-05
0.00400403
-0.00398795
-0.000108582
-0.00010416
0.00397144
-0.00395423
-0.000116551
-0.000112098
0.0039366
-0.00391827
-0.000124426
-0.000119991
0.00389955
-0.00388013
-0.00013212
-0.000127751
0.00386033
-0.00383987
-0.00013956
-0.000135298
0.00381904
-0.00379757
-0.000146674
-0.000142561
0.00377577
-0.00375334
-0.000153406
-0.000149476
0.0037306
-0.00370727
-0.000159705
-0.000155984
0.00368365
-0.00365946
-0.000165553
-0.000162056
0.00363501
-0.00361002
-0.000170942
-0.000167676
0.00358479
-0.00355904
-0.000175889
-0.000172848
0.00353308
-0.00350663
-0.000180432
-0.000177598
0.00347998
-0.00345288
-0.000184621
-0.000181973
0.00342561
-0.00339793
-0.000188515
-0.000186023
0.00337012
-0.00334198
-0.000192166
-0.000189798
0.00325954
-0.00320083
-0.000195566
-0.000193397
0.00314549
-0.00309652
-0.000166479
-0.000196725
-8.73398e-05
8.70485e-05
-0.00304784
-0.00305625
-0.000127608
9.25653e-05
-0.00316258
1.19794e-05
-0.00313239
-1.28073e-07
0.00418024
0.00421462
-2.41393e-05
0.000193594
-0.00295234
-0.000290876
-0.00359017
2.06338e-05
-0.00301368
4.68622e-05
-0.00311215
8.10707e-05
-0.00305182
-0.00356229
-0.00079038
0.000271295
-0.000536221
-0.00329737
-0.000149759
-0.00316912
6.3042e-05
-0.00300417
-0.000119408
4.54698e-05
-0.0029739
-0.000111467
-0.00306419
-0.00317395
-0.00303774
0.00319989
-0.000207983
0.0031698
-0.00344931
-0.000510872
-0.000375037
-0.00332474
0.00339826
-0.000144179
-0.000136801
-0.00342364
0.00344906
-0.00020863
-0.000210712
-0.00347429
0.00349946
-0.00020354
-0.000205478
-0.00352434
0.00354912
-0.000198408
-0.000200409
-0.00357357
0.00359787
-0.000193067
-0.000195169
-0.00362179
0.00364551
-0.000187476
-0.000189712
-0.0036688
0.00369186
-0.000181571
-0.000183968
-0.00371446
0.0037368
-0.00017532
-0.000177897
-0.00375865
0.00378021
-0.000168706
-0.000171472
-0.00380124
0.00382194
-0.000161727
-0.000164685
-0.0038421
0.0038619
-0.000154391
-0.00015754
-0.00388112
0.00389997
-0.000146724
-0.000150053
-0.00391822
0.00393608
-0.000138762
-0.000142256
-0.00395332
0.00397016
-0.000130566
-0.000134196
-0.00398636
0.00400214
-0.000122204
-0.00012594
-0.00401729
0.004032
-0.000113754
-0.00011756
-0.00404607
0.00405971
-0.000105295
-0.000109135
-0.00407272
0.0040853
-9.69083e-05
-0.000100745
-0.00409726
0.0041088
-8.86669e-05
-9.2468e-05
-0.00411976
0.00413031
-8.0629e-05
-8.43694e-05
-0.00414031
0.00418362
-7.28393e-05
-7.64958e-05
-0.00419521
0.00421318
-2.22764e-05
-4.03163e-05
-0.00416515
0.00419012
-2.50956e-05
1.70015e-05
3.05969e-05
-2.03312e-05
0.00421355
3.35997e-05
-6.38346e-05
0.00422036
0.00424444
2.89204e-05
1.53959e-05
0.00419349
0.0042274
-7.0339e-06
-1.42824e-06
0.00419041
0.00417658
9.84942e-06
-1.82108e-05
0.00419076
0.00417581
-4.41685e-06
-1.01834e-05
0.00422681
0.00422738
2.53239e-05
-2.73851e-05
0.00421668
0.0042396
0.00424144
-0.00418556
-3.68039e-05
-0.00422913
0.0042124
-1.06595e-05
-1.182e-05
0.00418626
-0.00416827
-4.15913e-05
-3.67133e-05
0.00414034
-0.00413022
-8.02378e-05
-7.59813e-05
0.00411974
-0.00410866
-8.8498e-05
-8.4005e-05
0.00409721
-0.00408512
-9.70487e-05
-9.23515e-05
0.00407264
-0.00405951
-0.000105841
-0.00010097
0.00404597
-0.00403178
-0.000114803
-0.000109799
0.00401718
-0.00400191
-0.000123847
-0.000118759
0.00398625
-0.00396993
-0.000132876
-0.000127758
0.00395322
-0.00393585
-0.000141792
-0.0001367
0.00391812
-0.00389974
-0.000150501
-0.000145487
0.00388101
-0.00386165
-0.000158919
-0.00015403
0.00384196
-0.00382166
-0.000166968
-0.00016225
0.00380107
-0.00377989
-0.000174585
-0.000170074
0.00375843
-0.00373641
-0.000181722
-0.000177446
0.00371413
-0.00369133
-0.000188355
-0.000184331
0.0036683
-0.00364476
-0.00019448
-0.000190713
0.00362101
-0.00359679
-0.000200111
-0.000196597
0.00357238
-0.00354752
-0.000205284
-0.000202009
0.00352251
-0.00349708
-0.000210046
-0.00020699
0.00347152
-0.00344558
-0.000214447
-0.000211588
0.00341953
-0.00339316
-0.00021854
-0.000215849
0.00336673
-0.00333998
-0.000222314
-0.000219826
0.0033132
-0.00325375
-0.000225923
-0.000223508
0.00319649
-0.00311936
-0.000188591
-0.000184873
-0.000156363
0.000102567
-0.0030104
-0.0030947
-0.000181025
6.6781e-05
-0.00303576
-0.00345745
-0.000528081
6.81475e-05
-0.00299985
0.0042486
-0.00425253
-2.11726e-05
0.00425178
-6.70097e-05
-3.04525e-06
1.17463e-06
0.00421855
1.46332e-06
0.00420789
1.2616e-05
-0.00309815
4.73594e-05
-0.00307844
-1.18099e-05
-0.00315163
8.13818e-05
-0.00307016
0.000115024
-0.00307372
0.000148232
-0.00301956
-0.000142386
0.000142356
-0.00301037
-0.000200978
-0.00303611
-0.00309456
-0.00345147
0.00332146
-0.000380853
-0.000462174
0.000541084
-0.00353636
0.00356435
-0.00367402
-0.000352505
-0.000415204
-0.00322333
0.00330238
-0.000287032
-0.000276908
-0.00339193
0.00345406
-0.000206309
-0.000226353
-0.00347786
0.00350162
-0.000232393
-0.000234512
-0.00352515
0.00354859
-0.000226981
-0.00022901
-0.00357175
0.00359479
-0.000221451
-0.000223561
-0.00361752
0.00364011
-0.00021566
-0.000217901
-0.00366235
0.00368442
-0.000209546
-0.000211953
-0.00370611
0.00372759
-0.000203055
-0.000205653
-0.00374866
0.00376949
-0.000196155
-0.000198962
-0.00378988
0.00381
-0.000188831
-0.000191857
-0.00382965
0.003849
-0.000181082
-0.000184329
-0.00386785
0.00388638
-0.000172922
-0.000176386
-0.00390438
0.00392203
-0.000164382
-0.00016805
-0.00393914
0.00395588
-0.000155508
-0.000159361
-0.00397206
0.00398786
-0.000146364
-0.000150372
-0.00400308
0.0040179
-0.000137029
-0.000141156
-0.00403214
0.00404597
-0.000127589
-0.000131796
-0.00405922
0.00407206
-0.000118135
-0.00012238
-0.00408431
0.00409616
-0.000108759
-0.000113001
-0.00410744
0.00411833
-9.95497e-05
-0.000103748
-0.00412866
0.00413861
-9.05809e-05
-9.47021e-05
-0.00414804
0.00415711
-8.19063e-05
-8.59293e-05
-0.00419427
0.00421746
-4.54634e-05
-7.7474e-05
-1.80692e-05
-1.67808e-05
-1.69785e-05
0.00424731
1.10773e-05
-4.89406e-05
0.00425822
0.00423874
-2.22582e-05
1.447e-05
0.00420128
0.00418816
-6.57807e-06
-1.40089e-06
0.00419839
0.00418448
9.34535e-06
-1.72468e-05
0.00419866
0.00418376
-2.41056e-05
3.82286e-06
0.0042471
0.00418602
0.0042446
0.00424149
-0.00423636
-4.19379e-05
-0.00423951
0.00422717
1.67424e-06
-9.83609e-06
0.00419652
-0.00415708
-8.10282e-05
-7.65553e-05
0.00414807
-0.00413852
-8.97813e-05
-8.49923e-05
0.00412864
-0.0041182
-9.89393e-05
-9.38873e-05
0.0041074
-0.00409601
-0.000108437
-0.000103153
0.00408425
-0.00407189
-0.000118206
-0.000112729
0.00405915
-0.00404579
-0.000128157
-0.000122538
0.00403207
-0.00401772
-0.00013819
-0.000132484
0.00400302
-0.00398769
-0.000148199
-0.000142466
0.00397202
-0.00395573
-0.000158077
-0.000152377
0.00393911
-0.00392189
-0.00016772
-0.00016211
0.00390435
-0.00388624
-0.000177035
-0.000171569
0.00386782
-0.00384885
-0.000185938
-0.000180664
0.00382961
-0.00380983
-0.000194363
-0.000189319
0.0037898
-0.00376926
-0.00020226
-0.000197477
0.00374849
-0.00372724
-0.000209604
-0.0002051
0.00370578
-0.00368387
-0.000216389
-0.00021217
0.00366178
-0.00363926
-0.000222631
-0.000218693
0.00361657
-0.0035935
-0.000228361
-0.000224692
0.00357028
-0.0035467
-0.000233627
-0.000230207
0.003523
-0.00349897
-0.000238476
-0.000235285
0.00347485
-0.00345043
-0.000242962
-0.000239975
0.00342592
-0.00340113
-0.000247113
-0.000244328
0.00337625
-0.00335112
-0.000251052
-0.000248383
0.00328376
-0.00321767
-0.000254677
-0.000252235
0.0031774
-0.00316003
-0.000218357
-0.000221294
-0.000328919
0.000131599
-0.00297179
-0.0030852
-0.00016742
0.000170414
-0.0030391
-0.00309088
-0.00023657
2.12323e-05
-0.00298885
-9.58114e-06
0.00421242
0.00426915
-4.05088e-05
0.000285694
-0.00361766
-0.000342052
1.31652e-05
-0.00306395
0.000354554
-0.00360522
2.27735e-05
-0.00303444
4.74808e-05
-0.00304454
4.8303e-05
-0.00306833
8.16312e-05
-0.00303677
0.000115638
-0.00304113
0.000149147
-0.00302635
0.000150176
-0.00299013
-0.000194175
0.000168199
-0.00301313
-0.000213967
-0.00307108
-0.00306016
-0.00370775
0.00358531
-0.000230072
-0.000427225
-0.0035344
0.000343965
0.00378074
-0.00365945
-0.000548511
-0.00026906
-0.00350998
0.00345839
-0.000329265
-0.00033987
-0.00344758
0.00342529
-0.000264745
-0.000266092
-0.00346087
0.00351474
-0.000260175
-0.000261936
-0.00353674
0.00355869
-0.000254344
-0.000256512
-0.00358039
0.00360199
-0.000248581
-0.000250714
-0.00362331
0.00364452
-0.000242656
-0.000244881
-0.00366543
0.00368621
-0.000236441
-0.000238813
-0.00370667
0.00372698
-0.000229855
-0.000232414
-0.00374694
0.00376673
-0.00022284
-0.000225615
-0.00378614
0.00380534
-0.000215361
-0.000218372
-0.00382415
0.00384272
-0.000207403