/*--------------------------------*- C++ -*----------------------------------*\
  =========                 |
  \\      /  F ield         | OpenFOAM: The Open Source CFD Toolbox
   \\    /   O peration     | Website:  https://openfoam.org
    \\  /    A nd           | Version:  10
     \\/     M anipulation  |
\*---------------------------------------------------------------------------*/
FoamFile
{
    format      ascii;
    class       volScalarField;
    location    "39.5";
    object      p;
}
// * * * * * * * * * * * * * * * * * * * * * * * * * * * * * * * * * * * * * //

dimensions      [0 2 -2 0 0 0 0];

internalField   nonuniform List<scalar> 
6397
(
5.08249
4.96396
-3.97514
-3.92235
-4.69731
-4.97699
7.94892
4.81843
-10.2963
-7.47487
3.72209
-0.163566
-0.23545
-0.173256
-0.232691
-18.6978
-16.5589
-16.632
12.0403
12.1035
11.3306
-4.74453
-6.69995
-5.85218
-0.123966
-0.0838697
-0.0384323
-1.47921
-1.61605
-1.80891
-1.70153
-2.04814
-2.47914
-3.58589
0.506215
0.189768
-0.611128
-0.961756
1.33513
1.4476
1.14015
0.944142
-1.9304
-5.72145
-5.34361
-4.98752
-5.64027
-5.60855
1.65671
1.61662
1.64103
1.52196
1.58516
3.65822
2.99647
3.56625
3.59822
2.20482
-3.88604
-3.65978
-3.89969
-3.61313
-3.14707
-2.625
-2.19249
-1.9075
-1.78243
-1.81128
-4.55166
-3.21183
-3.97329
-4.82471
-4.77944
-4.37134
-3.72203
-3.01057
-2.39327
-1.94857
-1.68541
-1.57127
-3.25373
-2.69764
-2.00063
-1.60409
-2.55603
-2.2198
-2.37091
-1.76079
-1.96643
-1.86288
-2.93114
-2.06084
-1.51477
-1.18764
-3.6214
-2.44053
-1.89527
-0.867033
-1.31013
-3.531
-2.65508
-5.15885
-4.43665
-5.3368
-5.51934
-3.9567
-4.76867
-2.32803
-3.08709
-1.39094
-1.76345
-1.07295
-1.16995
-1.19676
-1.0931
-1.35718
-2.8743
-4.75811
-3.73589
-1.89871
-2.26586
-1.70244
-1.71793
-2.07
-1.82147
-2.68107
-2.37989
-2.80305
-2.83114
-2.34938
-2.62483
-1.77566
-2.01946
-1.62657
-1.63618
-0.958847
-1.39642
-0.535634
-1.49857
-2.81795
-5.65647
-5.71953
-6.93131
-1.5309
-0.506361
-0.523622
-2.21529
-0.522659
-0.137665
-2.57089
-4.27638
-1.65423
-0.999787
-3.47799
-2.50056
-5.26867
-4.481
-5.44708
-5.66813
-3.84444
-4.78062
-2.01693
-2.86932
-0.937839
-1.37766
-0.503881
-0.660581
-0.426968
-0.438684
-0.459858
-3.19731
-4.31309
-1.8441
-2.38423
-1.35955
-1.51985
-1.42404
-1.34639
-1.7207
-1.58935
-1.75808
-1.82211
-1.47807
-1.66172
-1.31732
-1.35915
-1.59559
-1.39715
-1.87623
-0.775196
-1.33156
0.155263
-0.268837
-7.70184
-6.29046
-3.10503
0.236255
0.23308
-0.534379
-1.5946
-8.64047
-7.62964
-8.58382
-2.07963
-2.95124
0.374324
0.520712
0.742901
-3.18026
-2.57381
-4.66894
-0.15238
0.222148
-1.29972
-0.638186
-3.12638
-2.13722
-4.89282
-4.1211
-5.05804
-5.25244
-3.45543
-4.4034
-1.58513
-2.46254
-0.457436
-0.924113
0.0242445
-0.165597
0.202412
0.13314
0.227273
-6.1664
-7.68183
-3.26785
-4.58496
-1.64651
-2.31026
-0.954671
-1.22351
-0.783459
-0.822641
-0.849518
-0.809429
-0.838821
-0.868898
-0.743161
-0.784373
-0.886827
-0.77189
-1.51066
-1.13757
-2.00508
-0.661156
-1.30962
-0.0933193
0.236101
-6.19703
-3.02258
-7.53204
-6.76199
-0.501771
-1.48663
0.528342
0.902034
-2.2599
-3.26383
-2.74427
-3.61538
0.819655
1.02141
0.232119
0.200654
-0.464436
-3.79755
-4.59609
0.213504
0.561711
-0.846961
-0.233972
-2.5438
-1.63813
-4.1501
-3.44044
-4.25305
-4.44079
-2.78243
-3.64376
-1.06952
-1.87488
-0.00137408
-0.447638
0.481136
0.291889
0.67984
0.602879
0.746835
0.725791
0.771669
0.766139
0.700145
0.753255
-8.7942
-7.64217
-8.75412
-6.11153
-7.74858
-3.03602
-4.43796
-1.30836
-2.0248
-0.505944
-0.828031
-0.192777
-0.307442
-0.0973836
-0.133126
-0.0462154
-0.0672557
-0.0933166
-0.0456422
-0.4568
-0.221054
-1.31901
-0.813976
-1.96662
-0.591091
-1.35527
0.0305674
-5.9416
-5.90367
0.109349
0.595904
-5.57146
-2.75119
1.169
-4.25558
-2.70529
-3.71406
-5.49032
-1.32151
-4.12314
-4.34666
-0.484368
-0.0742207
0.439226
-4.41618
-4.15027
1.06708
1.3552
1.23473
0.557136
0.859889
-0.370317
0.169367
-1.80919
-1.03437
-3.15027
-2.55715
-3.21766
-3.387
-1.95211
-2.68628
-0.49777
-1.18449
0.422737
0.0328953
0.852994
0.680508
1.03785
0.965468
1.12561
1.08589
1.14548
1.13852
1.08084
1.12463
0.8659
0.998364
-6.90467
-3.52632
-5.25107
-8.06069
-7.97708
-5.42385
-7.02569
-2.51379
-3.84104
-0.855655
-1.54722
-0.0439412
-0.378262
0.332172
0.181289
0.504569
0.432195
0.581871
0.55874
0.466596
0.557995
-0.00242044
0.28184
-1.01727
-0.431334
-1.77981
-2.68473
-2.09165
0.217127
0.679631
-4.99575
-4.6581
-4.46783
-5.28355
-2.34665
-3.40312
-0.521818
-1.36014
0.646316
0.139806
1.29098
1.02386
1.46006
-4.62665
-2.37448
-4.20173
-1.20838
-3.07101
-0.612193
-1.0607
-1.67663
-0.350079
0.424792
-0.0905025
1.47888
1.55397
-3.51311
1.26053
1.3913
0.847491
1.09332
0.0782195
0.519945
-1.03957
-0.443101
-2.04512
-1.60472
-2.08449
-2.21357
-1.10895
-1.67713
0.0419906
-0.505317
0.781641
0.465474
1.1339
0.988422
1.29248
1.22745
1.36622
1.33423
1.39334
1.38244
1.36057
1.38958
1.19099
1.29536
0.88873
1.06068
-2.55675
-0.343842
-1.28795
-5.47491
-4.04645
-6.41919
-6.40578
-4.27213
-5.60843
-1.79564
-2.91867
-0.358393
-0.965923
0.391755
0.0764339
0.766752
0.612332
0.961705
0.877318
1.05392
1.02143
0.927431
1.02756
0.415184
0.727048
-0.63921
-0.0381541
-2.445
-1.45369
-4.51586
-3.50721
-5.23509
-4.44925
-5.76829
-5.2855
-2.3064
-3.39529
-0.436483
-1.29667
0.741849
0.241018
1.35558
1.10307
-0.372998
0.307756
0.066573
0.651084
1.59013
1.51115
-3.66838
-2.04834
-3.15632
-1.23009
-2.18193
-0.883835
-1.03473
-0.73841
0.740049
0.0723003
-0.563669
0.322735
-0.417724
1.21931
0.997371
1.42743
-0.0958164
0.825557
0.648719
1.61391
1.59837
1.60452
-2.9048
1.55021
1.58611
1.38865
1.4874
1.05441
1.25419
0.474224
0.804599
-0.322316
0.0981838
-1.02137
-0.717378
-1.0374
-1.13377
-0.359119
-0.757
0.483778
0.0768241
1.05066
0.805453
1.32553
1.21064
1.4551
1.39748
1.54306
1.49866
1.61413
1.58121
1.59969
1.62279
1.45253
1.54111
1.18076
1.33538
1.00921
0.332325
0.866525
-1.43853
-0.433849
-3.6848
-2.60812
-4.48844
-4.41213
-2.87955
-3.86505
-0.99777
-1.8562
0.125402
-0.354754
0.757527
0.483676
1.10192
0.958435
1.2852
1.2044
1.38384
1.34507
1.27678
1.36524
0.78361
1.08361
-0.242035
0.344667
-1.98807
-1.04093
-3.96805
-3.00875
-4.65263
-5.4789
-5.34423
-4.23467
-5.02609
-2.19236
-3.23376
-0.376312
-1.21898
0.801434
0.299537
1.39424
1.15563
1.53559
-2.93124
-1.88213
-2.47288
-1.42786
-1.64117
-1.32367
-0.645045
-1.29489
0.352161
-1.27345
1.51637
1.11385
-1.05785
0.456553
-0.567127
1.78985
1.52182
1.8119
0.26519
1.07084
1.05848
1.5665
1.59463
1.58569
1.54704
-2.4864
1.57724
1.5902
1.45881
1.52944
1.20861
1.35088
0.80249
1.02105
0.27394
0.5415
-0.171457
0.0123456
-0.18949
-0.251697
0.241213
-0.0153153
0.810408
0.52909
1.22856
1.04435
1.44496
1.35474
1.55817
1.50551
1.67011
1.60907
1.72212
1.70126
1.6798
1.71438
1.55176
1.621
1.41058
1.47732
1.25274
1.33938
1.1477
1.55599
1.71114
0.887231
1.29365
-0.379939
0.315975
-1.82863
-1.1352
-2.41731
-2.31746
-1.49096
-2.11049
-0.216138
-0.809324
0.579589
0.236521
1.05513
0.842186
1.34563
1.22005
1.50473
1.43469
1.59288
1.5578
1.51515
1.58659
1.08598
1.35213
0.163233
0.697511
-1.37363
-0.535305
-3.09183
-2.26823
-3.72706
-4.11499
-3.12387
-4.76729
-4.66873
-3.78585
-4.43942
-2.01977
-2.93262
-0.360883
-1.1417
0.780427
0.285247
1.3549
1.13028
1.48928
-2.51137
-1.93587
-2.12343
-1.8202
-1.36088
-1.97765
-0.433285
-2.14633
0.500463
-2.24226
1.12361
-1.89277
1.78531
1.49368
-1.04599
1.16802
0.205548
1.47928
-2.32544
1.5621
1.47782
1.53404
1.569
1.58001
1.48274
1.53675
1.30565
1.40225
1.0312
1.17107
0.704097
0.859184
0.459246
0.557059
0.437991
0.416023
0.670655
0.524586
1.03746
0.853144
1.33612
1.20432
1.50862
1.43737
1.61133
1.56492
1.6891
1.65654
1.72878
1.72195
1.7105
1.72285
1.67621
1.69444
1.60946
1.64765
1.50699
1.55831
1.49625
1.48307
1.63045
1.53963
1.93737
1.89201
1.93624
1.78764
1.89475
1.32286
1.60586
0.542091
0.950015
-0.224039
0.150117
-0.702108
-0.559109
-0.304416
-0.623771
0.455307
0.0885987
0.978714
0.748622
1.30615
1.1563
1.52861
1.42927
1.6549
1.60116
1.71892
1.69441
1.66274
1.7181
1.31765
1.53922
0.548466
0.999023
-0.693875
-0.017145
-2.10937
-1.42607
-2.79131
-2.60855
-2.69821
-3.22308
-1.50639
-2.4414
-3.80602
-3.67467
-3.16753
-3.62838
-1.77978
-2.51533
-0.370395
-1.04522
0.676898
0.209582
1.25432
1.02394
1.46326
1.39272
1.4472
1.49176
1.72803
1.81925
1.42107
1.80068
-2.38476
-2.22304
-1.25533
-2.02196
-2.46218
1.45206
1.36221
1.39548
-1.27795
-2.94789
-0.361621
-3.38926
0.540447
-3.43494
1.0711
-2.76974
1.44528
-1.3324
1.71487
1.62895
0.461377
1.78264
2.06445
-2.42679
1.52702
1.50005
1.53378
1.53691
1.47433
1.50647
1.35634
1.41637
1.18398
1.27348
0.989237
1.08411
0.860673
0.915806
0.847528
0.842573
0.952675
0.885872
1.17529
1.0571
1.39736
1.2971
1.5418
1.48031
1.64549
1.59762
1.76251
1.69755
1.79128
1.77294
1.79849
1.80163
1.74392
1.7777
1.67425
1.70396
1.64136
1.64979
1.69817
1.65417
1.86445
1.76764
2.13043
1.99852
1.99757
1.84485
1.93545
2.04076
2.0366
1.95264
2.01317
1.6515
1.83232
1.26369
1.44393
0.904393
1.10661
0.463219
0.647574
0.575485
0.439233
0.988087
0.780009
1.30924
1.16538
1.51563
1.42137
1.66581
1.59764
1.75648
1.71995
1.79276
1.78182
1.74589
1.78906
1.48428
1.65517
0.886105
1.2369
-0.0655874
0.446776
-1.10982
-0.628312
-1.64401
-1.49045
-1.58346
-0.854803
-0.161282
-2.12935
-1.55387
-2.75071
-2.54436
-2.46405
-2.72401
-1.5001
-2.02819
-0.408368
-0.945099
0.489164
0.0770973
1.06622
0.819533
1.33043
1.23142
1.37757
1.57783
1.72282
2.30936
2.25462
-2.51267
-2.75462
1.39749
1.36491
-2.13813
-3.46014
-1.35928
-4.32388
-0.38794
-4.91761
0.539189
-4.61153
1.02832
-3.25121
1.35564
-1.04538
1.48083
1.05935
1.58443
1.42796
2.18461
1.70885
1.60761
1.43988
0.848663
2.45588
2.322
-2.77695
1.47029
1.45348
1.49178
1.49091
1.46697
1.48031
1.3952
1.42919
1.28036
1.33775
1.15818
1.21429
1.09241
1.11858
1.08641
1.08518
1.13201
1.10144
1.26382
1.1886
1.42821
1.34988
1.54907
1.49562
1.64024
1.59872
1.68068
1.6748
1.75554
1.73268
1.77123
1.76684
1.7709
1.77128
1.76705
1.77002
1.75084
1.75751
1.78718
1.75807
1.90896
1.83664
2.09051
1.98406
2.17171
2.15454
1.90914
1.81075
2.0482
1.99263
2.09404
2.08038
2.05382
2.08771
1.90601
1.98987
1.77614
1.82729
1.58686
1.71478
1.2313
1.39774
1.18696
1.16813
1.34362
1.25469
1.52604
1.43691
1.67088
1.60453
1.77295
1.72797
1.82982
1.80946
1.83573
1.84083
1.78612
1.82571
1.5928
1.72001
1.15302
1.41185
0.457921
0.830106
-0.289365
0.0583683
-0.634339
-0.555083
-0.345422
-0.50886
-0.0974192
-0.107192
0.400622
-1.08844
-0.605267
-1.76479
-1.49942
-1.77163
-1.85135
-1.2528
-1.55753
-0.510125
-0.893337
0.213053
-0.133002
0.775199
0.517867
1.11637
0.976139
1.26626
1.21981
1.30353
1.27607
-2.89382
-3.62187
2.13271
2.31653
1.28951
1.20895
1.20444
2.03162
1.97772
-2.45657
-4.85823
-1.54885
-6.01073
-0.44007
-6.3263
0.49002
-5.16324
0.95916
-2.81375
1.19394
-0.069701
1.27812
1.83516
1.49317
1.61191
1.52271
1.36006
1.27573
2.50484
1.28947
1.12194
0.753745
1.06833
-3.41878
1.36544
1.31841
1.42786
1.39166
1.45344
1.44387
1.44211
1.45122
1.39363
1.41922
1.32476
1.35929
1.2602
1.29064
1.22696
1.23701
1.22641
1.22603
1.25027
1.23555
1.33079
1.28339
1.44873
1.38977
1.55203
1.50362
1.63646
1.59654
1.69834
1.67177
1.75703
1.73219
1.78024
1.77312
1.77091
1.77796
1.76575
1.76556
1.78863
1.7719
1.84651
1.81494
1.92336
1.88178
2.01592
1.9685
2.04099
1.78814
1.70159
1.95922
1.875
2.08809
2.03467
2.13653
2.12195
2.13102
2.13915
2.09935
2.11672
2.08485
2.08901
1.96931
2.05484
1.70495
1.83498
1.58357
1.62021
1.61006
1.58602
1.68365
1.64453
1.76215
1.72359
1.82761
1.79833
1.86555
1.8528
1.85773
1.87128
1.80233
1.84301
1.65474
1.7484
1.34191
1.52381
0.85217
1.11398
0.33577
0.577468
0.121124
0.169721
0.33596
0.160366
0.515703
1.18225
1.34511
0.558178
0.914781
-0.230558
0.175532
-0.888542
-0.604263
-1.18753
-1.08096
-1.10048
-1.19088
-0.712714
-0.935468
-0.184665
-0.454951
0.367249
0.0899693
0.842847
0.627305
1.14024
1.02355
1.1443
2.49981
1.0516
2.04293
1.88092
-3.5286
-4.86735
-2.90168
-6.50808
-1.73897
-7.53291
2.2404
-0.415804
-6.91792
0.481797
-4.53632
0.789002
-1.38357
1.44212
1.59486
1.55118
1.37159
0.9759
1.22477
1.23141
1.05628
2.48213
1.12793
1.12057
2.67832
0.903931
1.52289
1.56072
1.90167
1.74692
1.57588
-4.38563
1.2039
0.998456
1.1205
1.30935
1.25954
1.37123
1.33855
1.40118
1.3919
1.40589
1.40865
1.38836
1.40003
1.35415
1.37213
1.31843
1.33431
1.30262
1.3055
1.30893
1.3055
1.32788
1.31733
1.38047
1.34906
1.46463
1.42062
1.55013
1.50785
1.62494
1.58875
1.68493
1.65714
1.73321
1.71137
1.76321
1.75086
1.77644
1.77092
1.78259
1.7807
1.78962
1.78301
1.83673
1.80846
1.90144
1.8693
1.94915
1.92901
1.91192
1.94405
1.75622
1.84952
1.56907
1.47839
1.63397
1.72277
1.65314
1.86811
1.7975
2.00479
1.93671
2.11488
2.06737
2.16668
2.14708
2.18981
2.18006
2.20977
2.19901
2.23378
2.22386
2.1586
2.21757
1.96431
2.06442
1.8216
1.88065
1.78613
1.79313
1.80601
1.79314
1.83564
1.82025
1.8611
1.8489
1.87472
1.87048
1.86048
1.87327
1.80182
1.83784
1.67999
1.75102
1.45398
1.58383
1.11369
1.29845
0.772317
0.934894
0.637277
0.671782
0.806522
0.682204
1.05793
0.912742
1.20449
1.46848
1.54084
1.08807
1.32346
0.471272
0.800682
-0.193752
0.131645
-0.765061
-0.503953
-1.04492
-0.94413
-1.01281
-1.06902
-0.694223
-0.882834
-0.169151
-0.453716
0.429941
0.140934
0.875207
0.679842
0.97218
0.958791
0.937236
-4.31671
-6.32643
1.30333
1.42332
1.27974
-3.29709
-7.96294
2.46567
-1.75217
-8.13613
-0.33044
-6.18366
2.09647
1.53067
1.68944
1.70565
1.5354
0.387016
-2.87924
1.32744
0.542596
0.305422
1.352
1.69165
1.12808
0.757433
2.28617
0.98435
0.826668
2.82659
0.946219
0.987375
0.886392
0.89318
0.791575
1.44757
1.56365
0.794291
-5.54073
1.13812
1.06897
1.25029
1.19873
1.32454
1.2888
1.36255
1.3473
1.37548
1.37339
1.36929
1.37496
1.35476
1.36217
1.34543
1.34874
1.345
1.34382
1.35455
1.34902
1.37211
1.36227
1.41218
1.38864
1.47609
1.44224
1.54657
1.51092
1.61335
1.58061
1.66945
1.64378
1.71211
1.69261
1.73996
1.72829
1.75518
1.74817
1.77108
1.76277
1.79213
1.78058
1.81785
1.80457
1.85321
1.83399
1.86951
1.86871
1.81599
1.85963
1.66403
1.75063
1.5548
1.7246
1.6947
1.81817
1.76772
1.9279
1.87307
2.03683
1.98209
2.13171
2.08867
2.18683
2.16318
2.22251
2.20494
2.26011
2.24032
2.29056
2.27919
2.23709
2.27881
2.09471
2.17058
1.96222
2.02371
1.89153
1.91962
1.8725
1.87751
1.88023
1.87423
1.88953
1.88469
1.88471
1.88759
1.85707
1.87284
1.79307
1.82758
1.683
1.74358
1.50906
1.60568
1.27037
1.39461
1.04919
1.14789
0.951256
0.981795
1.00662
0.978742
1.20866
1.12358
1.32463
1.68818
1.60254
1.64565
1.69586
1.71773
1.45655
1.61252
0.99952
1.25384
0.31839
0.685578
-0.44159
-0.0715326
-1.06002
-0.774607
-1.3946
-1.2748
-1.30932
-1.40671
-0.793714
-1.09906
-0.0614519
-0.424987
0.515588
0.254051
0.722395
0.67448
0.756762
1.11799
1.13639
-4.98817
-7.57518
2.71612
-3.41808
-8.58275
1.73277
1.87347
1.90761
1.76319
-1.57288
-7.359
2.34614
1.55702
-0.291896
-4.43683
1.32021
0.127823
-1.09966
1.10693
1.85053
1.0764
0.325814
1.62257
1.41502
0.865464
0.510153
2.88443
0.728616
0.554071
0.804247
1.5724
0.92362
0.995272
-6.51819
0.967298
0.809904
0.89083
1.09077
1.0313
1.19464
1.14574
1.27086
1.23712
1.31777
1.2979
1.34256
1.33353
1.35206
1.34972
1.35274
1.3535
1.35559
1.3526
1.36119
1.35586
1.37636
1.36759
1.39647
1.38561
1.43052
1.41125
1.48181
1.45466
1.54031
1.51056
1.5986
1.56971
1.64916
1.62515
1.68922
1.67063
1.71737
1.70504
1.73529
1.72722
1.74831
1.74212
1.76755
1.75615
1.79253
1.78069
1.80634
1.80095
1.79952
1.8076
1.73481
1.7732
1.59694
1.67437
1.39214
1.50137
1.16452
1.27545
0.853533
0.960819
1.06016
1.8193
1.84095
1.83171
1.81602
1.89462
1.85933
1.97722
1.93512
2.06398
2.02016
2.14411
2.10631
2.19675
2.17351
2.23652
2.21655
2.27563
2.25593
2.30097
2.29191
2.26117
2.29184
2.14876
2.21015
2.02931
2.08423
1.95771
1.98726
1.92545
1.93931
1.90817
1.91624
1.89564
1.90193
1.87645
1.88711
1.84101
1.86087
1.77567
1.81175
1.67555
1.72925
1.53368
1.60602
1.35877
1.4384
1.20544
1.26315
1.13336
1.14969
1.16604
1.14113
1.28351
1.23224
1.43009
1.36699
1.50822
1.79931
1.72818
1.85703
1.84642
1.76096
1.83455
1.41251
1.62877
0.705622
1.09643
-0.193575
0.2708
-1.13254
-0.671919
-1.8283
-1.53308
-1.98689
-1.98556
-1.50954
-1.8225
-0.644535
-1.08769
0.0748431
-0.251992
0.453671
0.310994
0.683773
0.572335
0.729167
0.719799
2.96363
-5.21239
-8.06728
0.72871
1.71343
1.93782
1.79339
-3.15772
-7.80312
0.860951
0.72395
2.64439
1.58622
-1.345
-5.53396
0.726594
1.33815
-0.416528
-2.57883
0.842686
2.08754
1.06338
-0.211638
0.308355
1.09452
0.768417
0.10311
2.46717
1.50292
0.481689
0.190745
3.21426
0.235224
0.770363
0.874583
0.78612
1.9802
2.06517
-6.86959
0.801436
0.673079
0.739175
0.935765
0.870296
1.05209
0.997388
1.14932
1.10434
1.22645
1.19143
1.278
1.25547
1.30922
1.29628
1.32728
1.31968
1.33933
1.33358
1.34957
1.34453
1.36636
1.35761
1.38433
1.37433
1.40642
1.39447
1.43838
1.42099
1.48254
1.45946
1.53233
1.50721
1.58249
1.55764
1.6274
1.60515
1.66392
1.64682
1.69087
1.67882
1.70998
1.70112
1.72435
1.71763
1.73839
1.73092
1.75392
1.74631
1.76021
1.75921
1.73956
1.75428
1.67079
1.71219
1.5463
1.61517
1.37546
1.46575
1.19493
1.28257
1.03636
1.11276
0.960216
2.05598
2.16854
2.09424
1.99079
2.02557
1.92754
1.95442
1.91872
1.91379
1.95899
1.93503
2.01669
1.98552
2.08611
2.05029
2.15141
2.12014
2.19884
2.17681
2.23691
2.21798
2.2725
2.25546
2.28836
2.28461
2.25142
2.27757
2.16547
2.21205
2.07063
2.11888
1.99599
2.03002
1.94823
1.96944
1.91901
1.93202
1.89663
1.90765
1.86843
1.88366
1.82586
1.84934
1.75931
1.79645
1.66486
1.71555
1.54238
1.60564
1.4034
1.47004
1.28648
1.33681
1.23299
1.25058
1.25312
1.23458
1.3302
1.28568
1.42117
1.37073
1.54468
1.48366
1.89381
1.80581
1.9949
1.95478
1.98078
2.01228
1.69438
1.88301
1.01857
1.40234
-0.0156263
0.542336
-1.24324
-0.624683
-2.27961
-1.81577
-2.66678
-2.57662
-2.20361
-2.53302
-1.22421
-1.73622
-0.342735
-0.752059
0.244884
-0.00772089
0.573846
0.432056
0.658246
0.639135
0.662454
1.83907
-4.8322
-7.41214
0.715995
0.706469
0.740076
1.50767
0.61085
0.641193
3.01859
1.62001
-2.67338
-6.0589
0.562847
1.36881
-1.26973
-3.56414
0.583728
2.41574
1.06357
-0.687529
-1.08159
0.753487
0.703297
-0.587114
1.43773
1.66349
1.09186
0.266154
-0.246482
3.08625
-0.0833308
-0.176
2.29941
2.07548
1.92616
-6.33364
0.783985
0.726346
0.907714
0.848535
1.01834
0.966425
1.11077
1.06755
1.18599
1.15103
1.24119
1.21608
1.27929
1.26202
1.305
1.29296
1.32374
1.31452
1.34082
1.33195
1.36166
1.35055
1.38436
1.37252
1.40903
1.3963
1.43935
1.42338
1.47817
1.45813
1.52195
1.49995
1.56615
1.54436
1.60592
1.58662
1.63878
1.62331
1.66377
1.65234
1.68206
1.67362
1.69558
1.68926
1.70723
1.70146
1.71544
1.71209
1.71232
1.71583
1.68631
1.70312
1.62003
1.65896
1.50846
1.56929
1.36834
1.44079
1.22508
1.29536
1.0894
1.15811
0.938023
1.01639
0.628763
0.634043
0.816787
0.864658
2.14911
2.26593
2.1893
2.08786
2.12078
2.01672
2.05069
1.9913
1.99536
2.01175
1.99898
2.05019
2.02833
2.10392
2.07607
2.15554
2.13066
2.19666
2.17726
2.23006
2.21392
2.25699
2.24493
2.26352
2.26386
2.23216
2.25341
2.16306
2.20137
2.0785
2.11898
2.00849
2.04088
1.96106
1.98252
1.92556
1.9419
1.89343
1.90886
1.8572
1.87596
1.80963
1.83541
1.74366
1.77952
1.65619
1.70168
1.54907
1.6035
1.43375
1.49076
1.33906
1.38478
1.2924
1.31435
1.30074
1.29259
1.34952
1.31851
1.41693
1.37465
1.50069
1.45719
1.747
1.62132
1.94216
1.85207
2.08987
2.01637
2.16268
2.14899
1.93306
2.09934
1.25023
1.65056
0.0932511
0.724033
-1.35494
-0.613711
-2.67628
-2.06884
-3.27928
-3.10029
-2.84599
-3.18335
-1.74176
-2.33087
-0.638557
-1.1638
0.134801
-0.194568
0.489539
0.355842
0.589865
0.553516
0.607737
0.624044
3.49068
1.6616
-4.03657
-5.92946
0.612787
2.38325
0.47728
1.40412
-2.28669
-4.21204
0.550003
0.635771
0.805494
0.376455
2.38546
2.29399
2.9002
1.06571
-1.37332
-2.04315
0.420167
0.666521
-1.11381
0.146595
1.93216
0.660049
0.165855
-1.03704
2.50278
1.13589
-0.335131
-0.779446
3.62838
0.491406
0.469367
-0.576611
0.457676
1.90967
1.74295
-5.1823
0.766838
0.69738
0.883938
0.829163
0.987717
0.937592
1.07675
1.03407
1.15015
1.11515
1.20699
1.18039
1.24932
1.22953
1.28114
1.26592
1.30668
1.29416
1.32969
1.31825
1.35341
1.34138
1.37807
1.36556
1.40499
1.39129
1.43556
1.41987
1.4711
1.4531
1.50966
1.4903
1.54872
1.52949
1.58405
1.56694
1.61364
1.59968
1.63619
1.62572
1.65305
1.6453
1.66482
1.6595
1.67308
1.66923
1.67731
1.676
1.66843
1.67516
1.63867
1.65644
1.57792
1.61299
1.48053
1.533
1.3666
1.42391
1.25473
1.3106
1.13332
1.19609
1.00688
1.06912
0.912192
0.94943
2.52254
2.46473
2.57397
2.34767
2.4513
2.22868
2.27371
2.16429
2.19678
2.08933
2.12554
2.05244
2.06395
2.05657
2.05176
2.07952
2.0656
2.11779
2.09738
2.15805
2.13851
2.19043
2.17531
2.21661
2.20408
2.23582
2.22767
2.23694
2.23954
2.20675
2.22642
2.14692
2.1796
2.07694
2.11196
2.01434
2.04418
1.96415
1.98758
1.92291
1.94205
1.88516
1.90329
1.84416
1.86516
1.79424
1.82065
1.72927
1.76535
1.64789
1.69011
1.55309
1.60176
1.45592
1.50503
1.37654
1.4158
1.33307
1.35268
1.32908
1.32625
1.35486
1.33578
1.39974
1.37296
1.44452
1.42392
1.43289
1.44216
1.72242
1.48733
1.58561
1.95949
1.84579
2.17704
2.06958
2.2717
2.25229
2.06573
2.21588
1.39267
1.79706
0.172393
0.843481
-1.41488
-0.595628
-2.94096
-2.23563
-3.67025
-3.44038
-3.26748
-3.60158
-2.07467
-2.72561
-0.783842
-1.40111
0.086255
-0.272058
0.433732
0.311108
0.529238
0.491953
0.551985
0.550941
0.549159
0.473274
1.44639
-3.27241
-4.40082
0.610497
0.912759
1.41969
0.269202
0.256182
0.275402
2.59128
2.52185
3.57045
1.0882
-2.17353
-2.88328
0.157702
0.668166
-1.64417
-0.919557
2.35478
0.251305
0.228671
0.168167
-1.69742
1.35293
0.584068
-0.454153
-1.63368
3.6074
1.23396
-1.04876
-1.52909
0.678681
1.70236
2.14976
1.97474
0.504663
1.52524
-4.03448
0.742624
0.675763
0.859574
0.805858
0.957858
0.91024
1.0448
1.0032
1.11761
1.08298
1.17612
1.14844
1.2218
1.20023
1.25795
1.24058
1.28798
1.27319
1.31544
1.30149
1.34278
1.32909
1.36993
1.35639
1.39764
1.38371
1.42768
1.41242
1.46103
1.44423
1.49607
1.47862
1.53075
1.51375
1.5619
1.54686
1.58823
1.57574
1.60856
1.59911
1.62349
1.61665
1.63342
1.62907
1.63884
1.63659
1.63921
1.63993
1.6273
1.63525
1.59712
1.61469
1.54229
1.57331
1.45923
1.50365
1.36576
1.41222
1.27348
1.32021
1.17092
1.22358
1.07091
1.11843
1.00505
1.02999
0.935976
1.02266
1.00317
0.82745
2.67724
2.64124
2.61676
2.73606
2.70858
2.41736
2.50905
2.29653
2.34631
2.22421
2.25945
2.1495
2.18624
2.10347
2.12089
2.095
2.09624
2.10377
2.0974
2.12865
2.11449
2.15781
2.14383
2.18083
2.16983
2.2008
2.19126
2.21297
2.20853
2.2076
2.21308
2.17868
2.1963
2.12849
2.15588
2.06765
2.09846
2.00904
2.03729
1.95925
1.98258
1.9162
1.93665
1.87503
1.89537
1.8308
1.85368
1.77869
1.80599
1.7154
1.74756
1.64006
1.67898
1.55549
1.59905
1.47133
1.51422
1.40162
1.43589
1.3583
1.37728
1.343
1.34601
1.35135
1.34273
1.37245
1.36147
1.39021
1.3852
1.37276
1.38431
1.35209
1.48113
1.32679
1.40667
1.69104
1.57161
1.96583
1.82549
2.20966
2.09249
2.32826
2.28986
2.16551
2.29937
1.48187
1.89699
0.239452
0.92262
-1.36749
-0.541301
-3.02539
-2.27512
-3.80691
-3.54931
-3.40487
-3.74945
-2.15905
-2.84203
-0.811048
-1.45051
0.0502204
-0.298993
0.387195
0.264658
0.474471
0.443315
0.491659
0.48925
0.494837
0.492241
0.26059
2.432
1.75572
2.1519
2.30433
3.70653
1.45446
1.14829
-2.85041
-3.34322
0.00517085
0.701772
-2.32698
-2.03178
0.976131
1.05673
3.16736
0.30517
0.747421
0.59274
2.65525
2.76027
1.29329
1.25376
1.21653
0.497411
0.447201
0.449546
-0.110287
0.199263
-2.21029
0.0318922
-0.00905991
-0.0142587
0.0635175
-0.472053
-2.42653
2.46412
1.38891
0.54461
1.46022
1.94589
-1.51664
-2.45323
4.83023
-2.39395
1.26282
-3.27988
0.606001
0.550049
0.72248
0.663712
0.834778
0.781257
0.930666
0.884378
1.01546
0.974624
1.088
1.05333
1.14775
1.11925
1.19621
1.17314
1.23607
1.21692
1.26992
1.25337
1.30056
1.28528
1.33006
1.31534
1.3592
1.34466
1.38829
1.37378
1.41815
1.40318
1.44922
1.43369
1.48107
1.46523
1.51228
1.49698
1.53999
1.52664
1.56319
1.55222
1.5812
1.57281
1.59415
1.58827
1.60208
1.59875
1.6054
1.60421
1.60302
1.60527
1.58887
1.59756
1.56049
1.5767
1.51173
1.53895
1.44254
1.47906
1.3668
1.40452
1.28855
1.32883
1.20409
1.24598
1.12964
1.16505
1.08379
1.10025
1.09721
1.08241
0.874461
2.7879
2.70689
2.74909
2.83195
2.81718
2.85762
2.84435
2.47539
2.55843
2.35568
2.40797
2.27466
2.31339
2.19839
2.23574
2.14613
2.16756
2.12674
2.13363
2.12394
2.12348
2.1365
2.12862
2.15506
2.14594
2.17075
2.16333
2.18338
2.17767
2.18837
2.18728
2.17904
2.18585
2.15168
2.16787
2.10703
2.13122
2.05243
2.07993
1.99903
2.02489
1.95105
1.97401
1.90685
1.92836
1.86352
1.88526
1.81722
1.84117
1.76415
1.79177
1.70273
1.73366
1.63273
1.66876
1.55636
1.59556
1.48107
1.51907
1.41723
1.44805
1.37228
1.39215
1.34814
1.35688
1.34163
1.34283
1.34451
1.34288
1.3438
1.34539
1.3154
1.33327
1.28733
1.47255
1.38326
1.68202
1.5702
1.95895
1.81519
2.2172
2.09515
2.33464
2.3017
2.15658
2.2948
1.49027
1.89261
0.28735
0.950085
-1.28399
-0.472329
-2.81607
-2.10359
-3.58921
-3.33078
-3.23276
-3.55071
-2.05007
-2.69906
-0.790013
-1.38348
0.0118427
-0.317735
0.346474
0.217748
0.427057
0.40078
0.437531
0.434593
0.442198
-0.0234267
2.64111
1.11298
0.753251
-2.85993
-2.75157
1.12537
2.8459
0.416556
2.86787
1.1912
1.15084
0.494808
0.446133
-0.334753
0.213972
-2.83002
-1.46982
-0.00325184
-0.4289
-0.487886
-3.22328
0.638373
-0.373514
-0.354415
1.90195
-0.160944
1.09416
1.67865
-1.77329
-3.55827
3.20387
0.523758
-3.10533
-3.49345
2.55405
2.44956
0.883651
-2.98773
0.597948
0.545468
0.706421
0.652237
0.81153
0.759772
0.90559
0.859965
0.988764
0.948551
1.06098
1.02628
1.12179
1.09269
1.1724
1.14821
1.21506
1.19456
1.25198
1.23401
1.28556
1.26897
1.31713
1.30149
1.34748
1.3324
1.37708
1.36237
1.40677
1.39192
1.4365
1.42176
1.4656
1.45123
1.49303
1.47971
1.51796
1.50604
1.53837
1.52875
1.55412
1.5468
1.56511
1.5602
1.57112
1.56871
1.57286
1.57245
1.5688
1.57189
1.55401
1.56276
1.52798
1.54258
1.48546
1.50899
1.42833
1.45803
1.36735
1.39791
1.30186
1.33567
1.23441
1.26712
1.18012
1.20539
1.14955
1.16044
1.16241
1.15028
1.16512
1.22148
1.18744
1.02983
1.10219
0.827662
0.938286
5.29581
0.553725
0.700518
2.97012
2.95612
2.96147
2.9758
2.9755
2.97497
2.97542
2.87967
2.97894
2.97631
2.68954
2.7826
2.52521
2.603
2.40543
2.45977
2.31683
2.35936
2.23832
2.27611
2.18174
2.20633
2.15273
2.16455
2.14025
2.14481
2.1415
2.13932
2.1511
2.14605
2.15918
2.15559
2.16449
2.16221
2.16441
2.16561
2.15193
2.16003
2.12466
2.14016
2.08494
2.10592
2.0357
2.06041
1.9864
2.01057
1.93988
1.96258
1.89554
1.91747
1.85128
1.87371
1.80406
1.82828
1.75061
1.77822
1.69095
1.72023
1.6254
1.65917
1.55521
1.59106
1.48625
1.52063
1.42591
1.45489
1.37906
1.40044
1.3474
1.36117
1.32843
1.33689
1.31639
1.32256
1.30162
1.30972
1.26087
1.28509
1.2287
1.25009
1.10439
1.17183
1.4519
1.34601
1.68047
1.56404
1.93998
1.80819
2.16794
2.06458
2.26337
2.23655
2.09203
2.22666
1.44704
1.83351
0.319791
0.936111
-1.10484
-0.373638
-2.44533
-1.82106
-3.11307
-2.89649
-2.77581
-3.0646
-1.74237
-2.30526
-0.670539
-1.17402
0.0146953
-0.270355
0.3125
0.19333
0.38423
0.359408
0.393756
0.389685
0.405317
0.400317
0.398748
0.404652
-0.400692
2.94656
0.644468
0.245913
-3.37344
-2.60635
0.0665188
-0.753771
-0.481402
-3.97294
-1.50903
-0.325914
1.21266
1.26247
2.89365
2.98569
1.91385
1.04484
1.04097
0.980295
0.390507
0.354814
0.34509
-0.839338
2.30407
-1.61496
-5.01956
0.511013
-0.851312
-0.805414
-0.424407
0.4265
-3.28596
-5.56418
3.0502
0.571737
1.28816
-4.81281
0.383553
0.707788
0.57775
2.92539
2.90127
0.376339
-3.26392
0.20449
0.487744
0.43887
0.587628
0.537345
0.690321
0.638922
0.7902
0.741185
0.882283
0.83732
0.96439
0.924601
1.03635
1.00161
1.09815
1.06843
1.15056
1.12539
1.19544
1.1738
1.23482
1.21566
1.27052
1.25299
1.3038
1.28737
1.33535
1.31976
1.36534
1.35052
1.39437
1.37995
1.42266
1.40867
1.44964
1.43638
1.4745
1.46244
1.49628
1.48588
1.51389
1.50561
1.52744
1.52116
1.53656
1.53259
1.54076
1.5392
1.54125
1.54142
1.5361
1.53966
1.52204
1.53013
1.49887
1.51174
1.46284
1.48256
1.41633
1.44031
1.36696
1.39189
1.31364
1.34084
1.26197
1.2868
1.22282
1.24043
1.20581
1.21059
1.22119
1.20843
1.27228
1.24255
1.09118
1.156
0.924291
1.0147
0.821484
3.18532
3.24929
3.21522
3.1376
3.15886
3.10919
3.12123
3.08564
3.09886
3.07606
3.0797
2.72082
2.80406
2.569
2.64208
2.44751
2.5044
2.35207
2.39757
2.27181
2.31012
2.21099
2.23845
2.17389
2.18993
2.15274
2.16178
2.1445
2.14709
2.1453
2.14448
2.14623
2.14595
2.14582
2.14621
2.14097
2.14442
2.12569
2.13483
2.09887
2.11366
2.06094
2.08124
2.01758
2.03993
1.97174
1.99444
1.92712
1.94919
1.88333
1.90524
1.83887
1.86142
1.79129
1.81559
1.73819
1.76541
1.68021
1.70873
1.61811
1.64998
1.55258
1.58585
1.48799
1.51999
1.42941
1.45769
1.38044
1.40352
1.34253
1.36022
1.31385
1.32743
1.28966
1.30175
1.25962
1.27586
1.21109
1.23966
1.13688
1.17643
1.09232
1.19977
1.12036
1.40687
1.29536
1.6478
1.52741
1.88085
1.76625
2.0718
1.98654
2.13077
2.12611
1.89878
2.05865
1.29389
1.64582
0.313413
0.843214
-0.862114
-0.266555
-1.9104
-1.42726
-2.41956
-2.25613
-2.13712
-2.3743
-1.30175
-1.75572
-0.447413
-0.846409
0.0913456
-0.129709
0.313788
0.224633
0.363181
0.343924
0.368545
0.366583
0.369784
0.370791
0.363977
-0.881791
3.30218
-0.0271692
-0.44031
-4.64876
-3.29636
-0.240238
0.429192
0.174646
1.30795
3.07506
2.84537
0.985112
0.925109
0.380937
0.33533
-1.33585
2.87251
-1.35235
-6.30432
-2.54651
-0.759542
-1.33126
0.38222
-3.00238
-8.07291
-0.465934
2.05368
-0.686526
-6.25353
-8.3243
0.264807
-1.47545
3.53808
3.64626
-1.55152
0.684111
0.593879
-0.344109
-4.45405
-0.0651538
0.477922
0.429506
0.575139
0.526311
0.674369
0.624752
0.770985
0.723311
0.860895
0.816855
0.942125
0.902652
1.01389
0.979144
1.07646
1.04623
1.13042
1.1044
1.17719
1.15452
1.21859
1.19838
1.25605
1.23775
1.2906
1.27361
1.32293
1.30701
1.35318
1.33828
1.3817
1.36764
1.40853
1.39535
1.43337
1.42121
1.45578
1.44489
1.47495
1.46584
1.49005
1.48299
1.50125
1.49611
1.50844
1.50536
1.51129
1.51034
1.51077
1.51143
1.505
1.50874
1.49223
1.49939
1.47222
1.48326
1.44272
1.45861
1.40605
1.42491
1.36639
1.38659
1.32411
1.34531
1.28618
1.30412
1.25993
1.27114
1.25386
1.25399
1.27138
1.25925
1.31749
1.29105
1.34798
1.38595
1.34965
1.26623
1.30907
1.16385
1.21827
1.03103
1.10156
0.871509
0.953602
0.77965
3.38975
3.45457
3.29182
3.33569
3.23158
3.25746
3.18663
3.21256
3.16668
3.17545
3.07498
3.15553
3.15933
2.90801
2.99274
2.74725
2.82549
2.6055