/*--------------------------------*- C++ -*----------------------------------*\
  =========                 |
  \\      /  F ield         | OpenFOAM: The Open Source CFD Toolbox
   \\    /   O peration     | Website:  https://openfoam.org
    \\  /    A nd           | Version:  10
     \\/     M anipulation  |
\*---------------------------------------------------------------------------*/
FoamFile
{
    format      ascii;
    class       surfaceScalarField;
    location    "39.5";
    object      phi;
}
// * * * * * * * * * * * * * * * * * * * * * * * * * * * * * * * * * * * * * //

dimensions      [0 3 -1 0 0 0 0];

internalField   nonuniform List<scalar> 
12623
(
0.383318
0.0954589
-0.152763
-0.326015
0.295772
-0.12277
0.210316
0.450232
-0.079681
-0.416256
0.0457046
-0.0413572
0.453006
0.0385839
-0.405707
-0.00112252
0.0145697
0.39226
-0.399581
-0.0474827
-0.0246367
0.177625
-0.202481
0.0494929
-0.230629
0.205992
0.23311
0.00598206
-0.239092
0.184658
0.0077473
0.0407052
0.415748
-0.185235
-0.230513
-0.269682
0.217216
0.468215
-0.20535
-0.148198
0.150384
0.203164
0.0193031
0.0332433
-0.257896
-0.195051
0.0661556
0.100412
0.0361419
-0.129042
-0.00751151
0.0224561
-0.124275
0.20223
-0.00377899
0.062377
-0.00973358
-0.0427139
0.00995907
0.0424884
-0.0960895
0.0183143
0.0680416
-0.0836336
-0.0551697
-0.0469205
-0.014275
0.0228794
0.0383161
0.0127967
-0.0935243
0.0338071
-0.0316171
0.0301387
-0.273243
0.0248905
0.281596
0.040186
-0.304635
-0.00879431
-0.310949
0.0233153
0.312524
-0.205117
0.192663
-0.192554
0.205009
-0.20404
-0.200512
0.199435
-0.199036
0.198509
-0.174162
0.174689
-0.202132
0.195759
-0.480194
0.00421454
0.0268632
0.449117
-0.0120347
-0.472609
0.00444971
0.439849
-0.464504
-0.00705049
0.0360608
0.435494
0.0136568
-0.469596
-0.00856483
-0.496621
0.0451009
0.465177
-0.481399
-0.0110074
0.399363
-0.0183081
-0.430337
0.0492811
0.00406626
0.0521738
0.343123
-0.434222
0.0114295
0.404485
-0.447018
0.00574494
0.164243
-0.158544
0.19281
-0.298701
0.0932854
-0.0907301
0.296146
-0.135896
-0.283264
0.120459
-0.0865098
-0.392753
-0.35002
-0.0369674
0.339505
-0.343245
-0.0509362
-0.28848
0.0407535
0.298663
0.2228
0.0303791
-0.304115
-0.238498
0.0844995
0.376799
-0.0841337
0.35826
-0.298047
0.0239216
-0.292253
0.304614
0.0693104
-0.0746651
-0.29926
0.060634
0.28416
-0.0401797
-0.0283572
0.0171929
0.314305
-0.303141
-0.325279
0.322547
-0.0256246
0.317836
-0.0405947
0.045863
-0.323105
0.202191
-0.212865
-0.011011
0.0216855
-0.0796682
0.200658
0.0812007
-0.22819
0.0586725
-0.0433476
-0.241946
0.120623
-0.106866
-0.25737
0.166533
-0.151109
-0.266031
0.198358
-0.189697
-0.277924
0.213852
-0.201959
-0.278785
0.215218
-0.214356
-0.281075
0.212051
-0.209761
0.203588
-0.27412
-0.210543
0.217722
-0.228145
-0.0692461
-0.132971
0.197115
0.136514
0.21572
-0.130968
-0.24084
0.00168427
-0.253793
0.0716259
-0.267072
0.133901
-0.277625
0.177086
-0.288441
0.209175
-0.289492
0.214902
-0.292148
0.217874
-0.283938
0.203841
-0.278323
0.197973
0.17001
0.214022
-0.168312
0.200329
0.166795
0.195001
-0.264312
-0.204809
-0.260356
0.177034
0.19056
0.214835
-0.191372
0.197026
0.193863
0.180936
-0.24266
-0.202587
-0.242418
0.162998
0.201187
0.211431
-0.197783
0.194173
0.157804
-0.22349
-0.176975
-0.215953
0.131339
0.210514
-0.199595
-0.198207
0.216167
0.115406
-0.142047
-0.196849
0.0990564
-0.199603
0.234269
-0.235593
-0.196459
-0.2234
0.22337
-0.198177
-0.188727
0.2434
-0.249804
-0.161908
-0.183565
0.258603
-0.268067
-0.0597823
-0.122169
0.27916
-0.286509
0.0789745
0.0127778
0.294768
-0.300355
0.182673
0.14216
0.302956
-0.301257
0.213204
0.211775
0.295108
-0.284944
0.193677
0.211725
0.269038
-0.258486
0.166482
0.182067
0.238073
-0.217068
0.110334
0.142585
-0.198497
0.0804848
-0.259251
0.264309
-0.207645
0.231881
-0.163537
-0.210391
-0.204345
-0.277075
0.272994
-0.206462
-0.217575
-0.280302
0.260872
-0.194926
-0.217069
-0.258998
0.235029
-0.165728
-0.200086
-0.227825
0.207535
-0.0865763
-0.143905
-0.200444
0.192849
0.0292803
-0.0362569
-0.191878
0.197085
0.131307
0.0821716
-0.196911
0.205935
0.184839
0.166969
-0.198222
0.195524
0.201887
0.174796
-0.177572
0.218943
0.205643
-0.164231
0.21003
-0.050125
-0.185778
0.037406
-0.0690592
-0.180669
-0.236614
0.249104
-0.176027
-0.0955807
0.0835754
-0.198386
-0.229198
-0.102997
-0.0140226
0.00834251
-0.180098
-0.196571
0.206006
0.0279709
-0.0164301
-0.194163
0.21312
-0.216841
0.17841
0.225945
-0.251179
-0.172943
0.229904
-0.168191
0.20139
0.175973
-0.182333
0.260054
-0.273413
-0.1831
-0.179851
0.28547
-0.292238
-0.15514
-0.171507
0.304245
-0.3083
-0.0557281
-0.110162
0.312562
-0.316519
0.0829314
0.0170401
0.315633
-0.315621
0.182661
0.141274
0.309451
-0.304943
0.208696
0.205605
0.294116
-0.284496
0.184057
0.200898
0.270324
-0.251845
0.148003
0.167895
0.232781
-0.219839
0.0973919
0.123521
0.0666518
-0.257177
0.267628
-0.218096
-0.212418
-0.266629
0.267199
-0.207031
-0.216576
-0.250502
0.251676
-0.196099
-0.200373
-0.227804
0.225757
-0.163681
-0.176214
-0.204877
0.201952
-0.083651
-0.123024
-0.193867
0.194649
0.0284979
-0.0281719
-0.199127
0.201312
0.129122
0.0776937
-0.209788
0.21449
0.180137
0.158492
-0.218481
0.209585
0.204419
0.197896
0.188503
0.154802
-0.137599
0.201741
0.201901
0.136205
0.214299
-0.1206
0.208635
0.00382789
-0.00950144
-0.223524
0.00108323
-0.195641
0.00220359
-0.17453
-0.211073
0.214456
0.024588
-0.208085
-0.0194188
0.0684452
-0.0641038
-0.198505
0.074063
-0.185716
-0.266914
0.270671
-0.013259
0.0978068
-0.0905511
-0.23078
-0.268403
0.0992955
0.145112
-0.134471
0.182168
0.192426
0.154075
-0.108583
0.115352
0.20753
0.218365
-0.222779
-0.116186
0.219966
-0.110184
-0.225621
0.178578
0.223016
-0.234387
0.187177
-0.179046
0.248955
-0.264737
-0.157161
-0.142015
0.282702
-0.303594
-0.162208
-0.161886
0.313523
-0.329253
-0.13941
-0.161579
0.340867
-0.351263
-0.0453321
-0.0985484
0.354682
-0.358831
0.0870804
0.0204592
0.353122
-0.34992
0.179459
0.135566
0.335243
-0.32696
0.200413
0.190928
0.308444
-0.296184
0.171798
0.182381
0.273931
-0.255964
0.130036
0.145642
0.237318
-0.225597
0.0856712
0.104875
0.0555108
-0.278727
0.280844
-0.178143
-0.111053
-0.281204
0.282319
-0.219211
-0.212779
-0.272817
0.27046
-0.204674
-0.207074
-0.254728
0.244983
-0.186354
-0.18464
-0.232169
0.219444
-0.150955
-0.163401
-0.208304
0.20037
-0.075717
-0.111884
-0.196735
0.198009
0.027224
-0.0245369
-0.202937
0.21064
0.121419
0.0727654
-0.221998
0.2201
0.182035
0.147135
-0.229046
0.23589
0.197574
0.188951
0.190007
0.13264
-0.122625
0.191726
0.20007
0.201362
-0.211622
-0.0605667
-0.085466
-0.200726
0.079779
-0.180246
-0.185329
0.192032
-0.275105
-0.176413
-0.239696
0.119274
-0.108681
-0.209098
0.133567
-0.200009
-0.0828303
0.0866617
0.203699
-0.0821526
0.219288
0.125174
-0.115186
0.172181
0.125184
0.192416
0.242847
-0.2435
0.187829
0.175769
0.245656
0.240571
-0.245343
-0.111415
0.231721
-0.101333
-0.221694
-0.0986089
0.142195
-0.127633
-0.236256
0.16051
-0.227412
0.215804
0.161288
-0.184733
0.263462
-0.286957
-0.133667
-0.123895
0.310138
-0.323588
-0.148758
-0.138705
0.346849
-0.361811
-0.124448
-0.138317
0.376513
-0.386433
-0.0354117
-0.0838467
0.391815
-0.390209
0.0854745
0.0258409
0.383724
-0.371
0.166735
0.12908
0.35536
-0.336621
0.181674
0.175288
0.317916
-0.298614
0.152495
0.163676
0.281046
-0.264058
0.113047
0.128074
0.249314
-0.235803
0.0721608
0.0901306
0.226701
-0.218217
0.0161038
0.046409
0.217734
-0.225816
-0.0524846
-0.0199025
0.23457
-0.253585
-0.108617
-0.0898551
-0.32661
0.324955
-0.0116045
0.323974
-0.322858
0.190916
0.0966599
-0.324738
0.32274
-0.176145
-0.110835
-0.311234
0.306951
-0.214928
-0.201273
-0.294555
0.282405
-0.192525
-0.194678
-0.268343
0.25317
-0.171181
-0.170578
-0.239448
0.226527
-0.138035
-0.149678
-0.21627
0.208762
-0.0682092
-0.101627
-0.205727
0.207594
0.0253575
-0.0215021
-0.212991
0.221465
0.112946
0.0673676
-0.228341
0.241792
0.168584
0.140258
-0.24344
0.246681
0.194333
0.187302
0.193188
0.0946577
-0.0893254
0.186393
0.179541
0.198699
0.254522
-0.246613
-0.283014
-0.316108
0.247772
-0.141417
0.160847
-0.255686
-0.270498
-0.124504
-0.162191
-0.214949
0.147902
-0.194581
-0.0752479
0.224816
0.132215
0.208772
0.270122
-0.270996
0.188703
0.275611
0.17028
-0.23394
-0.252369
0.180146
-0.219645
-0.275624
0.270228
-0.310712
-0.275317
-0.28332
0.18561
-0.252175
-0.155531
0.177339
-0.277494
-0.13922
-0.286808
0.248586
0.158358
-0.199022
0.259749
-0.274208
-0.0969562
-0.245986
0.238842
-0.0681034
-0.0875701
0.29161
-0.312422
-0.112856
-0.106492
0.328457
-0.349411
-0.127804
-0.12267
0.370356
-0.390242
-0.104562
-0.117372
0.406416
-0.41728
-0.024547
-0.0676733
0.421638
-0.417311
0.0811469
0.0301988
0.407249
-0.390279
0.149765
0.119018
0.371067
-0.348947
0.159554
0.156076
0.328207
-0.308022
0.13231
0.142937
0.290556
-0.274095
0.0965865
0.110609
0.259498
-0.245787
0.0584504
0.0755328
0.234251
-0.228378
0.010231
0.0348725
0.229355
-0.232329
-0.0495108
-0.0189253
0.246495
-0.261074
-0.0940387
-0.0756891
0.27723
-0.297233
-0.119218
-0.108347
-0.371657
0.379631
0.182941
0.358901
-0.34599
0.257318
0.235016
-0.380589
0.379668
-0.0106828
0.0957019
-0.368882
0.359499
-0.166763
-0.10005
-0.343232
0.327658
-0.199354
-0.185006
-0.312626
0.296516
-0.176414
-0.179646
-0.280626
0.263345
-0.153901
-0.154688
-0.248433
0.235614
-0.125216
-0.134766
-0.226469
0.22046
-0.0622003
-0.0924813
-0.218583
0.221182
0.0227582
-0.0196254
-0.227135
0.236191
0.10389
0.0614149
-0.247927
0.253092
0.163418
0.128523
-0.263041
0.2701
0.187274
0.177353
0.192292
0.265517
-0.275498
-0.300731
-0.32862
0.248147
-0.149015
0.167222
-0.305015
-0.319127
-0.127121
0.244906
0.150706
0.084117
-0.080203
0.204858
0.238293
0.0649038
-0.0653346
0.172612
0.177117
0.0578427
-0.0517603
0.180311
0.172049
0.0483137
-0.0477625
0.203147
0.195252
0.0478701
-0.0469736
0.22392
0.219396
-0.0453211
0.237189
-0.218093
-0.230796
0.199453
-0.213888
-0.263783
-0.263903
0.208741
-0.242775
-0.275588
-0.283231
0.197879
-0.272715
-0.245235
0.223667
-0.307052
-0.255137
-0.290829
0.187014
-0.297286
0.157761
-0.135479
-0.341409
0.178426
-0.32568
0.2499
-0.258168
-0.0598357
0.247618
-0.043039
-0.217662
0.271272
-0.287961
-0.0802677
-0.0744659
0.307985
-0.323754
-0.0970865
-0.0864679
0.345372
-0.367008
-0.106168
-0.101052
0.38825
-0.408947
-0.0838648
-0.0961296
0.425949
-0.436907
-0.0135895
-0.0506712
0.440765
-0.43537
0.0757525
0.034057
0.423494
-0.403969
0.13024
0.107142
0.382921
-0.359393
0.136027
0.135028
0.338299
-0.317693
0.111704
0.121842
0.300005
-0.283503
0.080084
0.0929207
0.269268
-0.256778
0.0459602
0.0612983
0.247517
-0.241721
0.00443507
0.0256122
0.240792
-0.245457
-0.0448458
-0.0198544
0.256491
-0.269321
-0.0812081
-0.0646558
0.283576
-0.303475
-0.0993193
-0.0940925
0.323211
-0.34459
-0.114101
-0.107385
-0.372361
0.395776
0.233903
0.346355
-0.324757
0.202069
0.22214
-0.413583
0.424614
0.17191
0.217209
-0.429553
0.422278
-0.00340748
0.0907633
-0.408807
0.390168
-0.148123
-0.0865787
-0.369559
0.348576
-0.178371
-0.164397
-0.330805
0.31344
-0.159049
-0.161875
-0.296589
0.277729
-0.135042
-0.137837
-0.260949
0.246884
-0.111151
-0.117986
-0.237985
0.233115
-0.0573299
-0.0835823
-0.232574
0.236114
0.0192177
-0.0190845
-0.242785
0.252689
0.0939867
0.0547438
-0.263265
0.275582
0.151102
0.117946
-0.290901
0.291845
0.186331
0.162034
-0.294029
0.307925
0.174807
0.190107
-0.313821
0.330324
0.134202
0.164384
0.107538
0.0190545
-0.012151
0.197954
-0.0310757
0.290254
0.226271
0.0113883
-0.0107017
0.171925
0.176354
0.00968107
-0.0125993
0.183229
0.171029
0.0113735
-0.0183411
0.210115
0.194026
0.0174905
-0.0221432
0.228572
0.218545
0.196206
-0.217023
-0.286236
-0.304503
0.175952
-0.139213
0.166425
-0.36862
-0.367247
-0.116555
0.0191338
-0.015612
0.244096
0.23418
-0.249384
-0.245195
0.230226
-0.235374
-0.270301
-0.26919
0.220379
-0.265275
-0.262667
-0.275701
0.206892
-0.292594
-0.232575
-0.275277
0.19993
-0.31879
-0.168917
0.148781
-0.284366
-0.191161
-0.263992
0.193193
-0.352449
0.145485
-0.390734
-0.121999
0.17341
-0.396545
-0.290004
0.319066
0.11972
0.116547
-0.140292
-0.260622
-0.260457
0.0870004
-0.120361
0.154002
-0.424374
-0.387045
0.36153
-0.0964843
-0.413435
-0.0939711
0.257595
-0.25945
-0.0137567
-0.00552251
-0.00268781
0.252307
0.250291
0.00178146
-0.23682
0.261024
-0.278095
-0.0427645
-0.0414653
0.288658
-0.30729
-0.0616359
-0.063903
0.320719
-0.339029
-0.0787762
-0.0730389
0.356486
-0.376937
-0.0857176
-0.083595
0.397076
-0.416588
-0.0643527
-0.0759904
0.432782
-0.442923
-0.00344849
-0.0344779
0.445835
-0.440408
0.0703245
0.0369699
0.428514
-0.409504
0.111231
0.0952477
0.388455
-0.365048
0.11262
0.113979
0.34411
-0.323374
0.090968
0.100904
0.305678
-0.28894
0.0633459
0.0752246
0.274609
-0.262335
0.0336864
0.0469672
0.253021
-0.248166
-0.000419536
0.0162982
0.248265
-0.25472
-0.0383908
-0.0197554
0.264859
-0.276598
-0.0694693
-0.0545172
0.291697
-0.307809
-0.0832072
-0.0789935
0.322554
-0.344694
-0.0919607
-0.0926397
-0.099719
-0.34313
0.368438
0.176761
0.151888
-0.394272
0.414497
0.213678
0.196306
-0.440033
0.450403
0.16154
0.191672
-0.45692
0.452072
0.00144055
0.0842469
-0.436447
0.413312
-0.124989
-0.0709539
-0.38925
0.365112
-0.154233
-0.140335
-0.34514
0.326541
-0.14045
-0.141903
-0.309722
0.29114
-0.11646
-0.121018
-0.27381
0.258576
-0.0959163
-0.100656
-0.249411
0.245262
-0.0531814
-0.0744171
-0.245881
0.250639
0.0144604
-0.0197037
-0.258338
0.269307
0.0830179
0.0470442
-0.281154
0.295224
0.137032
0.106099
-0.308384
0.322015
0.1727
0.148874
-0.33893
0.346839
0.166898
0.173193
-0.35705
0.371551
0.119702
0.154173
0.0863364
-0.026391
0.0460608
0.270585
0.327684
-0.045467
0.0431953
0.200226
0.226865
-0.0406981
0.0378006
0.174823
0.178852
-0.0350981
0.0323264
0.186001
0.173731
-0.0295603
0.0276699
0.212005
0.196792
-0.0218683
0.0120981
0.238343
0.224347
0.24359
-0.258536
-0.25696
0.24133
-0.256325
-0.261814
-0.270043
0.224982
-0.283365
-0.243679
-0.264596
0.219812
-0.312476
-0.209634
-0.256804
0.218313
-0.34391
-0.162911
-0.241373
0.204986
-0.384025
-0.075544
0.0493603
-0.234274
-0.103224
-0.232942
0.180744
-0.423286
0.112906
-0.44332
-0.0830221
0.141252
-0.45272
-0.236127
0.253223
0.0322642
0.0113163
-0.0307859
-0.214804
-0.232304
0.00749368
-0.0680626
0.0912022
-0.466459
-0.424058
0.409265
-0.0682292
-0.440523
-0.0515971
0.0142093
-0.027038
0.265135
0.00249649
0.262004
0.266509
-0.271222
-0.00904393
0.271432
-0.00314148
-0.254026
0.277398
-0.289279
-0.0308838
-0.0352896
0.303428
-0.316257
-0.0488068
-0.0497533
0.330937
-0.344559
-0.0651537
-0.0583597
0.362173
-0.378994
-0.0688968
-0.065981
0.398353
-0.415783
-0.046923
-0.0566311
0.430621
-0.439183
0.00511369
-0.0196403
0.440204
-0.433847
0.0639673
0.0379916
0.421901
-0.404726
0.0940558
0.0833017
0.385033
-0.363311
0.090897
0.0942864
0.342648
-0.322415
0.0707341
0.0802423
0.304761
-0.288916
0.047501
0.0575714
0.276573
-0.267693
0.0248066
0.0346234
0.263167
-0.263737
0.000149861
0.0117729
0.268559
-0.277663
-0.0292867
-0.0149332
0.288396
-0.300891
-0.0569744
-0.0437844
0.314431
-0.323423
-0.0742153
-0.065453
0.338036
-0.349308
-0.0806886
-0.0780269
0.368347
-0.387753
-0.0770779
-0.0806804
-0.0724595
-0.281966
0.310273
0.0914127
0.0582575
-0.341321
0.368549
0.149533
0.120839
-0.401874
0.429639
0.185914
0.16298
-0.450332
0.465641
0.14623
0.170979
-0.471495
0.465576
0.00735904
0.0783933
-0.449188
0.424187
-0.0999875
-0.0545655
-0.397868
0.370844
-0.127209
-0.114017
-0.348318
0.328933
-0.121065
-0.119377
-0.31351
0.297963
-0.100913
-0.105595
-0.283118
0.268832
-0.0816308
-0.0858109
-0.259307
0.255411
-0.0492858
-0.0648915
-0.256885
0.263091
0.00825425
-0.0211773
-0.272109
0.284501
0.0706262
0.0380261
-0.29782
0.313482
0.12137
0.0927803
-0.32928
0.347156
0.154824
0.133076
-0.363796
0.378697
0.151997
0.156552
-0.396598
0.400663
0.115637
0.136271
0.0707433
-0.0487713
0.0758666
0.365164
0.41794
-0.0931068
0.0978187
0.265873
0.310443
-0.0972148
0.0933321
0.204109
0.227469
-0.0880309
0.0820347
0.180819
0.184153
-0.0761528
0.0703821
0.191772
0.179613
-0.0649242
0.0572548
0.219675
0.20225
-0.0470019
0.0373236
0.248021
0.2346
0.253875
-0.253854
-0.26492
0.241259
-0.272601
-0.248693
-0.265029
0.232924
-0.296477
-0.224737
-0.249493
0.235178
-0.329341
-0.184331
-0.235383
0.229021
-0.367944
-0.125119
-0.219478
0.207524
-0.410805
-0.0529722
-0.210755
0.169107
-0.451141
0.0189523
-0.0112983
-0.239958
0.0158375
-0.211689
0.114285
-0.475803
0.0427355
-0.0309216
-0.452337
0.0537612
-0.477485
0.0586657
0.215263
-0.266621
0.273862
-0.278704
-0.00420208
-0.252308
0.170721
0.140253
0.0184124
0.29401
-0.298675
-0.0262194
-0.0199829
0.313455
-0.32227
-0.0399916
-0.0349734
0.333335
-0.345581
-0.052908
-0.0472944
0.360865
-0.376388
-0.0533732
-0.0506973
0.392004
-0.406911
-0.0320167
-0.0410147
0.417718
-0.424708
0.0121039
-0.00883327
0.424697
-0.419206
0.0584763
0.0379808
0.407494
-0.391724
0.0782859
0.071589
0.372928
-0.352859
0.0708272
0.0754911
0.333277
-0.314992
0.0524488
0.0606613
0.299555
-0.287059
0.0350051
0.0421342
0.278629
-0.273364
0.0195418
0.0261931
0.271331
-0.271011
-0.000170371
0.00974008
0.272602
-0.274954
-0.026935
-0.0133421
0.279293
-0.285746
-0.0505209
-0.0394455
0.294893
-0.306297
-0.0628119
-0.0563058
0.320203
-0.334765
-0.0661263
-0.0641207
0.348381
-0.364941
-0.0605171
-0.067065
0.38102
-0.402005
-0.0472439
-0.0563809
0.416902
-0.426435
-0.0213894
-0.0367
-0.247209
0.253428
0.0260453
0.246861
-0.255046
-0.00311381
0.00714559
-0.26655
0.294471
0.0634915
0.045136
-0.327079
0.359386
0.117227
0.0882313
-0.389036
0.416442
0.158508
0.13333
-0.438251
0.455628
0.128853
0.14917
-0.464481
0.461721
0.0101198
0.06954
-0.447451
0.424378
-0.0769147
-0.0402958
-0.399781
0.373975
-0.101403
-0.089419
-0.351203
0.330839
-0.1007
-0.0966058
-0.315351
0.30192
-0.0874819
-0.0901067
-0.289511
0.277231
-0.069351
-0.0734018
-0.26782
0.263632
-0.0450984
-0.0554798
-0.26486
0.271977
0.00113705
-0.0224048
-0.282011
0.295846
0.0567914
0.0279917
-0.310714
0.327863
0.10422
0.0779126
-0.345807
0.365096
0.135535
0.115133
-0.386754
0.401034
0.137716
0.134894
-0.416825
0.434497
0.0979657
0.12048
-0.44074
0.449152
0.0372924
0.0645006
0.0151263
-0.0990883
0.125441
0.338812
0.07132
0.422898
0.390172
-0.137785
0.138828
0.264829
0.2981
-0.13756
0.132952
0.208717
0.228737
-0.126425
0.119119
0.188125
0.190679
-0.111894
0.104797
0.198868
0.186839
-0.0979202
0.0880438
0.229551
0.209127
-0.0790045
0.0670518
0.259974
0.243639
-0.0456707
0.0270631
0.283743
0.275257
0.0192273
0.366757
0.308294
-0.0275511
0.0401389
-0.252546
-0.257705
-0.0248922
-0.000154948
0.00304705
-0.455229
-0.427068
0.000478344
-0.247303
-0.266309
0.242321
-0.281999
-0.473293
-0.00365618
-0.237544
-0.252222
0.244804
-0.306103
0.348507
-0.270182
0.0619267
0.0499024
-0.0263574
0.343212
0.0515052
0.346904
-0.203631
-0.230193
0.244071
-0.344392
-0.148549
-0.211953
0.226895
-0.387316
-0.0720492
-0.200401
0.188865
-0.430563
0.00720472
-0.202123
0.129175
-0.466031
0.0517496
-0.2233
0.0576392
-0.479681
0.0467095
-0.0417762
-0.262638
0.0583148
-0.264151
-0.00317936
-0.471258
0.0267513
-0.0399228
-0.442058
0.0184548
-0.418771
-0.271603
0.286146
-0.292776
0.00242789
0.0343769
0.300363
-0.307163
-0.0194192
-0.0123957
0.316771
-0.322713
-0.0340497
-0.025366
0.333672
-0.344735
-0.0418452
-0.036335
0.356463
-0.37077
-0.0390655
-0.0389695
0.382181
-0.39371
-0.0204884
-0.0296038
0.400078
-0.403688
0.0157146
-0.00246529
0.401451
-0.395308
0.0523328
0.0357438
0.384785
-0.371246
0.0647463
0.0610666
0.355685
-0.339203
0.0543451
0.0599305
0.323812
-0.310366
0.0390029
0.04527
0.300054
-0.292543
0.0274942
0.0318218
0.287952
-0.284869
0.0164586
0.0216027
0.283392
-0.28211
-0.00145189
0.00826299
0.283072
-0.286117
-0.02389
-0.0123809
0.292605
-0.301345
-0.0417807
-0.0329573
0.311456
-0.322211
-0.0520576
-0.0461943
0.332869
-0.341961
-0.0570344
-0.0534626
0.354088
-0.360684
-0.0539208
-0.0549382
0.37096
-0.379799
-0.0384056
-0.0461044
0.388919
-0.396814
-0.0134944
-0.02758
0.396624
-0.393353
0.015183
0.00028889
-0.260385
0.263092
-0.00582106
0.265753
-0.274187
-0.0333426
-0.0195241
-0.259899
0.261512
0.0244327
0.0103386
-0.271701
0.284577
0.050615
0.0349467
-0.306647
0.332981
0.0908926
0.0661622
-0.358837
0.385659
0.131686
0.107474
-0.411011
0.434717
0.105147
0.123818
-0.448405
0.44901
0.00951446
0.0558524
-0.437194
0.417273
-0.0569941
-0.0284793
-0.395886
0.373767
-0.0792847
-0.0680318
-0.353475
0.334009
-0.0812348
-0.0763133
-0.318253
0.305454
-0.0746822
-0.0743505
-0.294937
0.284655
-0.0590686
-0.0628853
-0.275927
0.270629
-0.0398013
-0.0467517
-0.270838
0.277209
-0.00523445
-0.0226132
-0.287625
0.302136
0.0422807
0.0175762
-0.318335
0.336593
0.0859624
0.061713
-0.355881
0.376401
0.115015
0.0958443
-0.398817
0.415473
0.12106
0.112478
-0.434376
0.440227
0.0921155
0.101577
-0.445227
0.454408
0.0281117
0.0594997
-0.00375856
-0.0794604
0.1088
0.393558
0.421777
-0.141625
0.151655
0.328782
0.357347
-0.1599
0.163188
0.261541
0.289855
-0.162297
0.158309
0.212705
0.229628
-0.152715
0.146428
0.194412
0.196274
-0.139858
0.132848
0.205879
0.193409
-0.125431
0.117037
0.237945
0.216543
-0.107954
0.0960489
0.271879
0.252722
-0.0812765
0.0603519
0.304668
0.290029
0.342289
-0.051928
0.0609441
-0.271654
-0.283546
-0.0425682
0.035456
-0.0519861
-0.402241
-0.384101
0.0262043
-0.244801
-0.259052
0.247771
-0.284966
0.334014
-0.308887
0.0368005
0.340385
0.0451337
-0.223352
-0.232502
0.250581
-0.312613
-0.170428
-0.208313
0.235802
-0.353298
-0.0934773
-0.190525
0.197598
-0.396049
-0.00365896
-0.189538
0.131191
-0.43258
0.0619932
-0.212366
0.0466963
-0.455088
0.0708606
-0.235846
-0.0236773
-0.459183
0.0766579
-0.279865
-0.0681596
-0.443022
0.0610293
-0.0519824
-0.292593
0.0733617
-0.283986
-0.0768916
-0.417152
-0.294174
0.284846
-0.0426542
0.0541537
-0.299296
-0.049032
0.0686897
-0.307129
0.0521863
0.394737
0.0485451
-0.0646693
-0.386117
0.0322542
-0.36781
-0.268633
0.300196
-0.303471
0.00570288
0.0256855
0.309321
-0.31216
-0.0165797
-0.00654557
0.317199
-0.323876
-0.0273729
-0.0203272
0.332084
-0.342904
-0.0310251
-0.0281275
0.35332
-0.365282
-0.0271032
-0.0285535
0.374674
-0.382716
-0.012446
-0.0202119
0.385773
-0.385196
0.0151381
0.000591165
0.379971
-0.371815
0.0441766
0.0305189
0.361536
-0.350252
0.0534616
0.0507878
0.338959
-0.328101
0.0434862
0.0486382
0.318663
-0.310792
0.0311313
0.0358327
0.304702
-0.299796
0.0225884
0.025732
0.295788
-0.292098
0.0127689
0.0175944
0.289291
-0.287873
-0.0028703
0.00545588
0.288593
-0.291504
-0.0209788
-0.0116602
0.296514
-0.302796
-0.0354988
-0.0279475
0.309517
-0.316717
-0.0448578
-0.0394733
0.324425
-0.333604
-0.0478552
-0.0457548
0.343499
-0.353689
-0.0437311
-0.0450432
0.36186
-0.367378
-0.0328873
-0.0379334
0.371189
-0.371492
-0.0131914
-0.0237693
0.369579
-0.366996
0.0126001
-0.0016239
0.362509
-0.354189
0.0239341
0.0217172
-0.278226
0.272673
-0.0277894
-0.0359478
-0.271208
0.270506
-0.00511938
-0.0180596
-0.272689
0.276137
0.0209847
0.00815628
-0.280585
0.287447
0.043753
0.0304984
-0.3001
0.316714
0.074278
0.0535097
-0.337212
0.363855
0.105043
0.0869764
-0.391762
0.417171
0.0797379
0.0959102
-0.430283
0.430533
0.00926501
0.0427403
-0.420434
0.404476
-0.0410366
-0.0183807
-0.387571
0.370699
-0.0624118
-0.0511268
-0.355402
0.34026
-0.0660926
-0.0610169
-0.32619
0.313544
-0.0620366
-0.0602802
-0.303217
0.293765
-0.0496157
-0.0525588
-0.285444
0.278821
-0.033178
-0.0384316
-0.276679
0.280196
-0.00875161
-0.0204711
-0.28912
0.302804
0.0285969
0.00865216
-0.319479
0.338175
0.0672666
0.045038
-0.358133
0.378604
0.0945448
0.0758858
-0.398982
0.419271
0.100771
0.0921001
-0.436059
0.449921
0.0782528
0.084789
-0.457881
0.460168
0.0258245
0.0515399
-0.452022
0.463789
-0.0154228
0.00438756
-0.0168149
-0.0886965
0.119633
0.362622
0.385267
-0.142145
0.157252
0.313675
0.334835
-0.16776
0.173197
0.256104
0.279347
-0.174474
0.173053
0.214126
0.228351
-0.170234
0.166335
0.198311
0.199094
-0.161601
0.155609
0.211871
0.198142
-0.148395
0.139385
0.246956
0.223757
-0.128678
0.112433
0.288123
0.26343
-0.102122
0.0835887
0.323201
0.30034
-0.0927681
0.0749865
0.360994
0.333109
-0.0441638
-0.021489
0.406038
0.377727
-0.238724
-0.24368
0.248246
-0.282631
-0.0353684
0.0247749
-0.343595
-0.0511881
-0.35199
0.346274
-0.364708
-0.00305493
-0.0464917
0.216356
0.236173
0.308944
-0.0091612
-0.338168
0.341822
0.02028
-0.328801
0.0154079
-0.193339
-0.209591
0.236348
-0.313159
-0.114888
-0.186902
0.196674
-0.352374
-0.017436
-0.176748
0.124653
-0.389511
0.0680873
-0.195632
0.0257199
-0.411603
0.093695
-0.235201
-0.0666682
-0.412097
0.0859879
-0.245176
-0.114135
-0.413208
0.0910435
-0.297547
-0.113196
-0.406718
-0.0536893
-0.309841
0.0642341
-0.312512
0.303
-0.0441772
0.0540042
-0.321408
-0.0451076
-0.323055
0.0672185
0.0805652
-0.295862
-0.0916104
-0.390211
-0.319695
0.0768002
0.0762519
-0.160915
0.301019
-0.441321
-0.0142615
-0.0110143
0.32344
-0.259111
0.336425
-0.3242
0.0245754
0.0168503
0.316861
-0.313244
0.00208625
0.0183463
0.315435
-0.319644
-0.0123706
-0.00435511
0.324066
-0.331177
-0.0202626
-0.0159045
0.337574
-0.345651
-0.0229486
-0.0217303
0.35235
-0.360069
-0.0193843
-0.0218535
0.366026
-0.371387
-0.00708563
-0.0142549
0.373252
-0.371999
0.0138851
0.00245628
0.36647
-0.357868
0.0355745
0.0249904
0.347952
-0.33799
0.0434998
0.0408715
0.329441
-0.322279
0.0363237
0.0400893
0.316713
-0.311942
0.0263601
0.0302674
0.307856
-0.303808
0.0185408
0.0216459
0.300064
-0.296533
0.009238
0.0138501
0.29403
-0.29286
-0.00404057
0.00295274
0.293545
-0.296093
-0.0184306
-0.0109753
0.300102
-0.305459
-0.0301412
-0.0239386
0.311634
-0.31896
-0.0375327
-0.0332983
0.326455
-0.334025
-0.0402853
-0.0382591
0.340694
-0.347158
-0.0372675
-0.0383742
0.353026
-0.358335
-0.0275781
-0.0320648
0.36187
-0.36154
-0.013521
-0.0202348
0.35761
-0.349976
0.00496613
-0.00555379
0.0135626
-0.296462
0.290296
-0.0364879
-0.0424941
-0.286147
0.282057
-0.0236997
-0.0317993
-0.278865
0.278536
-0.00479102
-0.0148669
-0.279355
0.283311
0.0170283
0.00733768
-0.288127
0.294128
0.0377527
0.0256822
-0.30208
0.314543
0.0618155
0.0455572
-0.332135
0.356455
0.0807228
0.0693841
-0.381018
0.401766
0.0589899
0.0713476
-0.411651
0.411192
0.00972372
0.0328556
-0.403073
0.389838
-0.0278018
-0.0102617
-0.375865
0.362075
-0.0486212
-0.0371542
-0.350584
0.339899
-0.0554079
-0.0495259
-0.329929
0.319966
-0.0520734
-0.0503103
-0.311137
0.303079
-0.0415574
-0.0437297
-0.296001
0.289314
-0.0264905
-0.0313541
-0.285432
0.285079
-0.00839835
-0.0165892
-0.290502
0.300666
0.0184329
0.00322844
-0.31547
0.333094
0.0496428
0.0302341
-0.352431
0.372875
0.0741007
0.056549
-0.392918
0.412161
0.0815289
0.0720566
-0.428087
0.440021
0.0663193
0.0688624
-0.447031
0.44353
0.0293251
0.0445295
-0.442365
0.43958
-0.0126378
0.00555302
-0.0185562
-0.0344183
0.0655593
0.363596
0.374133
-0.0977834
0.122103
0.338302
0.353043
-0.139719
0.154021
0.299373
0.31722
-0.164367
0.171305
0.249165
0.269
-0.175378
0.177431
0.212072
0.224279
-0.177861
0.176537
0.199635
0.198664
-0.173756
0.169544
0.216084
0.200923
-0.163816
0.156137
0.254635
0.229484
-0.146526
0.134219
0.30043
0.27304
-0.119449
0.105619
0.337031
0.31511
-0.0957811
0.0994751
0.3573
0.342947
0.316287
-0.0732429
-0.364062
0.297647
0.000282729
0.0283926
-0.0388338
-0.333154
-0.327727
0.0273192
-0.214291
-0.222729
0.228775
-0.275058
-0.136567
-0.187912
0.188618
-0.305103
-0.0341316
-0.170206
0.113384
-0.341104
-0.0514436
-0.33938
0.0682171
-0.176878
0.00420836
-0.367999
0.120846
-0.222783
-0.107089
-0.371182
0.104997
-0.25421
-0.169105
-0.357126
-0.0445486
-0.330441
0.0535813
-0.326664
0.317954
-0.0358383
0.0421415
-0.334552
-0.0342539
-0.339608
0.0513084
0.105449
-0.259581
-0.162551
-0.363852
-0.336559
0.0670855
0.0990026
-0.315984
-0.11882
-0.379508
-0.332205
0.0797285
0.0910235
-0.310085
-0.0903607
-0.373093
-0.0215987
-0.00879806
0.328044
0.257765
-0.415222
0.209631
0.0150994
0.00241519
0.325609
0.0295178
-0.0395929
-0.323079
-0.325145
0.0269351
-0.0545615
0.327426
-0.244627
0.331767
-0.347343
0.0125216
-0.317272
-0.00448998
0.322044
0.00533369
0.338185
-0.327089
0.0134791
0.00769213
0.320115
-0.318175
0.000146233
0.0113725
0.317549
-0.320794
-0.00912581
-0.00498088
0.324177
-0.329136
-0.0153042
-0.012521
0.334203
-0.340096
-0.0170559
-0.0166626
0.345991
-0.352137
-0.0132387
-0.0159582
0.357453
-0.361697
-0.00284179
-0.00893889
0.36335
-0.362152
0.0126873
0.00410885
0.357638
-0.350282
0.0282185
0.0204771
0.341737
-0.3331
0.0348624
0.0323263
0.325927
-0.320111
0.0305081
0.0329161
0.315738
-0.311939
0.0225612
0.025894
0.308549
-0.305114
0.0151054
0.0182565
0.301967
-0.299249
0.00652028
0.0107029
0.297487
-0.29706
-0.00446724
0.00119033
0.297956
-0.300286
-0.0161006
-0.0100792
0.303581
-0.307905
-0.0258177
-0.0206431
0.312669
-0.318096
-0.0321055
-0.028534
0.323718
-0.329938
-0.034066
-0.0326373
0.336055
-0.342011
-0.0313121
-0.0322564
0.34678
-0.350403
-0.0239553
-0.0272952
0.352602
-0.353409
-0.0127146
-0.0180359
0.352462
-0.34767
0.000173826
-0.00650039
0.340286
-0.331014
0.0110078
0.00617942
0.327685
-0.322004
0.0216388
0.0120784
0.014854
-0.311322
-0.0286766
0.312699
-0.3128
0.0149547
0.0176295
-0.312061
0.306572
-0.0386879
-0.0392152
-0.301183
0.29624
-0.0315457
-0.0371047
-0.291425
0.286727
-0.019002
-0.026984
-0.285085
0.284361
-0.00406734
-0.0132243
-0.285827
0.288817
0.0140388
0.00587131
-0.292912
0.298665
0.0319991
0.0215876
-0.306048
0.317513
0.0503507
0.0381742
-0.332556
0.35225
0.0610291
0.0543406
-0.370549
0.385214
0.0443246
0.0530488
-0.392056
0.392041
0.00973847
0.0260142
-0.387331
0.378901
-0.0193714
-0.00555203
-0.369081
0.357255
-0.0367943
-0.0273349
-0.346024
0.33459
-0.0439744
-0.0382951
-0.325098
0.316203
-0.0431786
-0.0408182
-0.309269
0.30343
-0.0357184
-0.0367952
-0.298983
0.295161
-0.0226686
-0.0269073
-0.292229
0.291021
-0.00719035
-0.0136572
-0.293075
0.299698
0.0118105
0.00117403
-0.310049
0.325062
0.0346297
0.019883
-0.341543
0.360849
0.0547952
0.0400679
-0.37898
0.396992
0.0635168
0.0539255
-0.411611
0.42314
0.0547908
0.0542429
-0.430292
0.430458
0.0291594
0.0373774
-0.426283
0.412787
0.000858045
0.00972777
-0.405188
0.404533
-0.0136065
-0.010957
-0.0200587
-0.0446805
0.071116
0.337161
0.331867
-0.090417
0.10868
0.320039
0.333742
-0.125751
0.141204
0.28392
0.300148
-0.153846
0.163889
0.239123
0.256358
-0.170941
0.175794