/*--------------------------------*- C++ -*----------------------------------*\
  =========                 |
  \\      /  F ield         | OpenFOAM: The Open Source CFD Toolbox
   \\    /   O peration     | Website:  https://openfoam.org
    \\  /    A nd           | Version:  10
     \\/     M anipulation  |
\*---------------------------------------------------------------------------*/
FoamFile
{
    format      ascii;
    class       volVectorField;
    location    "39.5";
    object      U;
}
// * * * * * * * * * * * * * * * * * * * * * * * * * * * * * * * * * * * * * //

dimensions      [0 1 -1 0 0 0 0];

internalField   nonuniform List<vector> 
6397
(
(4.33185 -0.856713 2.00691e-19)
(4.03347 -0.545087 -9.76287e-19)
(5.5631 -0.483899 0)
(5.49928 0.0830151 3.52456e-20)
(4.80528 0.616806 -1.07421e-19)
(4.94317 0.010856 -2.20886e-19)
(3.19217 -2.20394 -8.15234e-19)
(1.54774 -3.27236 1.75995e-18)
(-0.0800135 -2.43604 4.39043e-19)
(0.5455 -1.77858 -1.06824e-19)
(2.43912 2.99552 8.15479e-19)
(3.48114 3.64852 2.31285e-21)
(3.71379 0.111857 -3.64263e-20)
(3.69174 0.101966 -1.52466e-20)
(2.56581 0.114064 2.92606e-20)
(1.6142 1.15006 -4.48562e-18)
(2.49343 -1.07152 -2.05557e-18)
(0.0915705 -0.342128 2.07771e-18)
(0.979662 0.125856 8.09487e-19)
(2.12225 -0.474073 -2.53249e-18)
(1.60209 -0.089128 -1.32128e-18)
(-1.83482 0.196711 -9.44038e-19)
(-1.42752 0.0589483 6.26663e-20)
(0.956048 -0.520709 -7.50943e-19)
(4.05845 0.141796 0)
(4.32871 0.0846092 3.27933e-21)
(4.43657 0.13893 -6.07923e-22)
(2.83277 -2.51582 1.43893e-19)
(2.90403 -2.61481 -3.63459e-20)
(2.70724 -2.42937 8.40773e-20)
(2.78675 -2.57605 -1.2312e-19)
(5.57007 0.960544 -1.03189e-19)
(5.7244 0.528316 -1.54884e-19)
(5.33347 0.593213 6.3221e-19)
(5.3151 0.903558 2.96539e-20)
(5.53483 0.79022 0)
(5.53058 1.01218 2.62428e-20)
(5.75422 0.79337 7.49378e-20)
(4.85187 0.420681 7.61971e-20)
(4.75132 0.409541 -4.51362e-20)
(4.99232 0.658355 0)
(5.21348 0.584611 0)
(2.60166 -2.19556 -5.45182e-20)
(3.73753 -0.822336 -2.7766e-19)
(3.80909 -1.42915 2.69351e-19)
(5.04219 -0.60199 -5.21687e-19)
(4.28489 -0.0626541 -2.82586e-19)
(4.41 -0.715032 8.35812e-19)
(4.35606 0.208735 9.09378e-20)
(4.41471 0.134871 -1.39446e-20)
(4.3824 0.0712011 1.61274e-19)
(4.42018 0.0181944 -6.08335e-20)
(4.38039 0.0616803 -4.38209e-19)
(4.34406 1.05979 -8.80039e-20)
(3.73771 0.575343 5.64959e-20)
(4.03899 0.0456641 7.94275e-20)
(4.0553 0.0617804 7.62563e-20)
(4.50329 -0.0411823 -1.38445e-19)
(2.8079 -0.23964 -1.76999e-19)
(2.80615 -1.08582 1.77216e-19)
(2.85869 0.660063 1.68547e-19)
(2.9416 1.45523 -1.66383e-19)
(3.06031 2.0808 -1.31855e-19)
(3.17636 2.48932 1.29595e-19)
(3.29293 2.69904 0)
(3.36694 2.7578 8.19933e-20)
(3.40679 2.72706 -8.58762e-20)
(3.35894 2.67723 0)
(3.08972 -1.04357 -1.90614e-19)
(2.83363 -1.77689 2.25464e-21)
(3.08822 -1.79751 1.8268e-19)
(3.12667 -0.120239 0)
(3.18184 0.819022 0)
(3.27083 1.64485 0)
(3.35972 2.27051 -6.8595e-22)
(3.44318 2.66328 6.19614e-23)
(3.50721 2.83346 0)
(3.53923 2.83388 -1.01765e-23)
(3.51966 2.73387 0)
(3.43048 2.60288 0)
(3.08366 -2.27766 -1.41451e-19)
(2.87662 -2.25229 9.38337e-21)
(3.25899 2.60669 0)
(3.27188 2.45925 0)
(3.09857 -2.54164 2.9894e-20)
(2.91749 -2.50573 0)
(3.06094 2.49393 0)
(3.03677 2.27264 0)
(3.07033 -2.604 1.88669e-19)
(2.90667 -2.60618 -2.0538e-20)
(2.83612 2.24076 0)
(2.78562 1.97126 0)
(3.04931 -2.55956 -1.21195e-19)
(2.95318 -2.41035 -4.84318e-20)
(2.60584 1.75038 0)
(2.53472 1.48661 1.0905e-20)
(3.30562 -2.52587 0)
(3.15458 -2.27257 7.87144e-20)
(3.23244 -2.45288 6.71688e-21)
(3.40594 -2.20256 -1.77027e-19)
(3.36308 -2.47516 0)
(3.50894 -0.880889 -1.13009e-19)
(3.4554 -1.66244 1.76964e-19)
(3.64009 1.01043 1.14987e-19)
(3.57905 0.0589687 8.74466e-20)
(3.73383 2.4178 6.87204e-22)
(3.68502 1.82313 -1.20904e-19)
(3.76111 2.86236 1.50137e-20)
(3.75224 2.75714 -6.93396e-20)
(3.64968 2.65208 -3.25924e-20)
(3.71787 2.80476 7.7135e-20)
(3.32971 2.26771 0)
(3.5145 2.46923 0)
(2.8481 1.71221 0)
(3.10628 2.03473 0)
(2.59474 1.26824 -1.62916e-20)
(3.17426 2.65153 -1.49283e-19)
(2.83016 1.97039 -1.20021e-19)
(3.0126 2.45435 1.46766e-19)
(3.35725 2.69598 9.4717e-20)
(3.30463 2.69735 -9.25986e-20)
(3.29111 2.66993 6.35631e-22)
(3.36372 2.68675 2.43284e-21)
(3.02052 2.31516 0)
(3.17911 2.56109 0)
(2.75234 1.2334 1.22906e-19)
(2.88255 1.85283 1.10958e-20)
(2.64472 -0.353999 2.22007e-20)
(2.67688 0.457974 -1.22344e-19)
(2.71347 -1.74728 5.65374e-20)
(2.66623 -1.11977 -8.68602e-21)
(2.83836 -2.45394 -7.99095e-20)
(2.76807 -2.17077 -5.02265e-20)
(2.84119 -2.60893 0)
(2.84635 -2.57426 9.03972e-20)
(2.92112 -2.19606 -4.8713e-20)
(2.77943 -2.32909 -2.34809e-21)
(3.07692 -2.05663 8.66169e-21)
(2.39935 0.639396 -3.01908e-20)
(2.3434 0.803577 7.27999e-21)
(3.19458 2.14323 -2.09805e-21)
(2.68263 1.14467 1.20288e-19)
(3.09116 1.28272 0)
(2.31154 -0.13017 1.76662e-20)
(2.52737 0.453552 -1.19982e-20)
(2.4596 -0.189545 1.19297e-20)
(2.7733 -2.50753 4.96124e-20)
(3.35059 -2.14194 -3.42336e-20)
(3.23384 -1.90958 -8.30691e-21)
(2.68203 -2.29628 5.35637e-20)
(2.43579 0.991904 4.69008e-21)
(3.58249 -2.39474 0)
(3.46737 -2.31043 -9.6825e-21)
(3.82006 -2.06739 4.4638e-21)
(3.70557 -2.3425 0)
(4.03559 -0.753971 -3.18617e-20)
(3.93745 -1.54063 6.75184e-20)
(4.1872 1.05546 0)
(4.12514 0.147723 1.62172e-20)
(4.15774 2.39784 0)
(4.18834 1.82614 6.86535e-21)
(4.03985 2.78706 0)
(4.10283 2.71001 8.54569e-21)
(3.82073 2.51165 -1.19134e-21)
(3.92639 2.69776 3.67989e-21)
(3.45614 2.03733 8.30301e-22)
(3.6338 2.28845 -1.89308e-21)
(2.94431 1.42711 1.5206e-22)
(3.20148 1.76167 -3.1399e-22)
(2.68801 1.006 5.26445e-21)
(3.39414 2.78632 2.31386e-21)
(3.30412 2.62859 2.83297e-21)
(3.42152 2.68764 -8.3176e-23)
(3.43538 2.76141 0)
(3.24507 2.53376 0)
(3.35267 2.6213 -9.56698e-22)
(2.94194 2.11355 0)
(3.11324 2.38645 0)
(2.6605 1.0934 -5.70974e-23)
(2.80051 1.69071 -1.12542e-20)
(2.56088 -0.346759 -1.28588e-20)
(2.60226 0.394366 0)
(2.66881 -1.62595 -3.20044e-20)
(2.60555 -1.04203 0)
(2.84343 -2.36685 2.25509e-21)
(2.76304 -2.07025 3.20843e-20)
(2.90285 -2.62555 7.10332e-23)
(2.90414 -2.53465 8.68749e-21)
(2.85532 -2.60857 -4.25892e-20)
(2.77429 -1.94893 1.15906e-20)
(2.65785 -2.08396 0)
(3.08195 -1.66229 -3.37608e-21)
(2.91189 -1.80307 -1.48083e-21)
(3.04132 0.0931321 0)
(2.60285 0.0415434 0)
(2.26076 -0.0792498 -1.77206e-20)
(2.72085 0.365035 -8.62757e-23)
(2.66012 -0.187489 0)
(2.51668 -0.875445 -3.09566e-21)
(2.35473 -0.922983 -2.58499e-22)
(3.64908 0.131599 0)
(3.05886 -1.19568 0)
(3.67226 -1.22663 -1.8403e-19)
(2.48065 -1.86442 4.20895e-20)
(2.58263 -1.95141 0)
(2.94708 -1.3504 9.29251e-21)
(3.25457 -1.53766 1.29294e-22)
(3.10877 -1.23181 -5.62947e-20)
(2.93126 -2.36353 0)
(3.00045 -2.58032 -4.72619e-20)
(2.34787 0.00616419 0)
(3.55624 -1.98682 2.43796e-21)
(3.39788 -1.76877 0)
(3.89198 -2.23785 1.97144e-22)
(3.70598 -2.14513 4.83327e-21)
(4.27217 -1.91518 -9.46189e-21)
(4.06353 -2.1883 0)
(4.5988 -0.632382 2.01233e-22)
(4.44189 -1.3933 -1.24473e-20)
(4.73267 1.13301 -2.07466e-22)
(4.67783 0.24499 -1.57977e-20)
(4.60806 2.38627 1.68498e-20)
(4.70547 1.85844 0)
(4.31819 2.68649 0)
(4.48475 2.64971 -1.71765e-20)
(3.95845 2.33228 -9.94293e-22)
(4.14947 2.55694 8.3603e-22)
(3.52433 1.79362 0)
(3.73542 2.07506 -7.43854e-23)
(3.04208 1.20209 6.42426e-22)
(3.25324 1.51475 -4.89294e-22)
(2.82782 0.830282 -1.34966e-21)
(3.67989 2.2464 -2.81988e-20)
(3.65643 1.37049 1.71085e-22)
(3.6897 2.80034 -8.97529e-21)
(3.69551 2.68867 4.14859e-20)
(3.58232 2.60548 3.1494e-21)
(3.64989 2.72969 -1.12712e-20)
(3.31369 2.40798 0)
(3.46186 2.50735 9.27439e-21)
(2.98019 1.96518 0)
(3.1469 2.24872 0)
(2.68872 0.993336 7.625e-23)
(2.81819 1.5503 0)
(2.59429 -0.332634 0)
(2.61583 0.35115 0)
(2.72728 -1.54072 0)
(2.63833 -0.974253 0)
(2.93493 -2.29009 1.15227e-20)
(2.83149 -1.97837 0)
(3.05017 -2.62395 -7.03737e-23)
(3.01467 -2.50172 -1.17829e-20)
(3.04685 -2.66185 5.62582e-20)
(2.66147 -1.61855 1.19968e-20)
(2.54117 -1.74263 -3.93772e-20)
(2.78993 -1.47832 6.99314e-21)
(2.69483 -0.784672 -5.4178e-21)
(2.62337 -1.15472 0)
(2.30912 -1.01084 2.13044e-20)
(3.72178 -2.39727 1.96846e-19)
(3.14898 -2.32595 0)
(2.64916 -1.5176 2.92548e-21)
(2.5096 -1.64852 1.35718e-20)
(2.87252 -0.986065 4.9731e-21)
(3.06104 -0.896211 4.4974e-21)
(2.41559 -1.41641 3.98414e-20)
(2.52059 -1.48347 7.9224e-20)
(3.33405 -2.60775 5.05521e-20)
(3.32213 -2.40463 0)
(3.44338 -1.39789 -4.5864e-21)
(3.29778 -1.11119 -2.41148e-20)
(2.8088 -1.3343 5.43443e-21)
(3.0273 -1.74309 -3.8811e-22)
(2.87521 -2.02623 -1.07412e-20)
(2.87089 -2.00338 -4.11511e-21)
(2.38615 -1.0669 0)
(3.78215 -1.80697 -3.55027e-21)
(3.5756 -1.60791 1.57681e-20)
(4.21081 -2.0093 -3.28721e-21)
(3.946 -1.94195 5.79556e-21)
(4.70615 -1.67831 0)
(4.42508 -1.93684 0)
(5.1068 -0.492548 -3.84581e-23)
(4.89553 -1.18868 -1.06135e-26)
(5.22236 1.1184 2.05633e-22)
(5.18207 0.317227 0)
(4.99949 2.24493 0)
(5.1397 1.7818 -8.8649e-27)
(4.55293 2.47881 0)
(4.80089 2.46803 0)
(4.05348 2.09475 0)
(4.32464 2.32711 0)
(3.59377 1.56291 0)
(3.82858 1.83042 0)
(3.19851 1.01606 0)
(3.38115 1.30138 0)
(2.9159 0.247861 2.27769e-21)
(3.02291 0.668888 0)
(2.86927 -0.77151 0)
(2.84196 -0.25448 5.71625e-22)
(3.20338 -1.57335 0)
(3.00269 -1.23123 5.38713e-21)
(4.37983 0.160363 -4.98199e-20)
(4.39098 -2.4475 -4.96663e-20)
(4.39683 -1.24762 5.00273e-20)
(4.26334 2.27342 1.08317e-20)
(4.33275 1.41809 -1.71032e-22)
(4.07304 2.76645 -4.42967e-21)
(4.17331 2.68359 -1.5768e-20)
(3.81341 2.50006 -1.71593e-23)
(3.95356 2.65737 0)
(3.44314 2.23838 0)
(3.63525 2.35704 0)
(3.07348 1.79967 0)
(3.24575 2.06935 0)
(2.80036 0.892404 -2.9337e-23)
(2.91505 1.40579 0)
(2.72006 -0.327834 0)
(2.72198 0.299085 0)
(2.86548 -1.46133 0)
(2.76068 -0.925669 0)
(3.10771 -2.22096 1.88862e-21)
(2.97486 -1.8898 -1.96487e-21)
(3.27634 -2.60656 9.71736e-21)
(3.19775 -2.445 -4.52484e-22)
(3.31138 -2.6634 -6.75151e-20)
(2.53376 -1.19532 -9.44754e-21)
(2.42799 -1.29483 -4.23548e-20)
(2.69108 -1.08471 0)
(3.74878 -3.20449 0)
(4.336 -3.21986 4.27686e-20)
(3.29558 -2.00706 -4.14115e-22)
(3.43859 -1.81773 0)
(2.75617 -2.20015 0)
(2.45658 -1.84925 0)
(3.25069 -0.812224 0)
(2.79022 -1.51523 -2.0188e-19)
(3.75728 -2.55277 4.27882e-20)
(3.79169 -2.33917 0)
(3.27583 -3.11872 7.31591e-21)
(2.74199 -2.22815 -1.6413e-20)
(4.22074 -3.55918 1.41902e-20)
(3.76588 -3.58612 -6.19485e-21)
(3.17001 -2.32045 1.1216e-20)
(3.57534 -2.19792 5.43955e-21)
(3.66023 -1.9845 0)
(3.31469 -2.0511 2.05213e-19)
(2.52267 -2.02237 0)
(3.61413 -1.23892 2.30522e-20)
(3.40259 -0.725027 2.84783e-20)
(3.4897 -0.995597 7.21683e-20)
(3.98904 -1.59911 3.74322e-21)
(3.77005 -1.432 -1.98805e-20)
(4.48674 -1.77592 0)
(4.20213 -1.71525 -2.11598e-21)
(5.05609 -1.45729 3.80904e-27)
(4.74666 -1.69631 -3.96098e-27)
(5.50608 -0.360842 -4.64637e-23)
(5.28165 -0.992357 0)
(5.60534 1.09108 0)
(5.58486 0.390654 0)
(5.29194 2.06041 -6.76257e-23)
(5.46758 1.68133 8.86427e-27)
(4.74645 2.21679 2.2867e-27)
(5.02646 2.23455 -2.37379e-27)
(4.17876 1.85075 0)
(4.4696 2.0663 0)
(3.71229 1.36177 -4.3941e-23)
(3.95731 1.60807 0)
(3.32758 0.848508 5.15624e-23)
(3.5308 1.11622 0)
(3.0518 0.179619 1.35298e-21)
(3.17863 0.540967 0)
(3.03544 -0.634609 -1.31324e-20)
(3.00651 -0.2261 -2.78032e-21)
(3.30595 -1.29795 -1.216e-20)
(3.15275 -1.0034 7.678e-21)
(3.75271 -1.70629 -1.79325e-20)
(3.51069 -1.53134 1.21364e-20)
(5.05204 -2.43313 3.45906e-20)
(4.71123 -3.45667 -3.25014e-21)
(4.91776 -3.17581 -3.81164e-20)
(5.10733 0.112001 7.22016e-20)
(5.12057 -1.25351 -4.56111e-20)
(4.83013 2.14862 -2.19262e-20)
(4.99541 1.32209 -1.92892e-20)
(4.42236 2.58578 0)
(4.62966 2.52881 2.76919e-20)
(4.02208 2.29487 -7.32373e-23)
(4.21416 2.46803 -3.39284e-27)
(3.59411 2.03025 0)
(3.80815 2.14607 0)
(3.1914 1.64283 2.38144e-23)
(3.36844 1.88216 0)
(2.94644 0.80935 8.82194e-24)
(3.03828 1.28098 0)
(2.89708 -0.314769 0)
(2.88195 0.265111 0)
(3.05485 -1.36738 0)
(2.94139 -0.868437 0)
(3.31266 -2.11153 0)
(3.16993 -1.78408 0)
(3.55605 -2.53717 0)
(3.43114 -2.37089 3.63496e-22)
(3.64768 -2.60978 -2.67163e-20)
(4.07085 -3.55636 -1.97011e-20)
(4.46116 -3.39857 0)
(3.89634 -2.13767 -2.73946e-21)
(4.04836 -1.86074 2.08608e-20)
(3.21778 -1.5243 0)
(3.87069 -1.94556 -5.5667e-20)
(2.6796 -0.883459 -9.18406e-20)
(3.1298 -0.88752 1.28567e-19)
(2.2977 -0.821295 2.50305e-20)
(2.39978 -0.872472 1.38782e-20)
(2.44192 -0.690164 2.15387e-21)
(2.33054 -0.751097 -2.15335e-20)
(2.7964 -0.564632 1.59855e-20)
(2.61213 -0.625865 1.69888e-21)
(3.1636 -0.462854 0)
(2.97279 -0.510493 -2.51816e-20)
(3.3654 -0.425894 -4.75289e-20)
(2.9351 -2.94314 -7.37481e-21)
(2.6855 -2.49475 -1.03664e-26)
(3.4061 -3.53261 6.2185e-21)
(3.034 -2.59409 0)
(3.74427 -3.61408 0)
(3.49972 -2.46584 0)
(4.1841 -3.13776 8.98306e-22)
(3.90889 -3.32926 1.3575e-22)
(3.81355 -2.39431 -4.93633e-21)
(4.36968 -1.97897 -9.90032e-22)
(4.1597 -2.26653 8.80158e-21)
(3.53911 -0.630967 -3.5771e-20)
(3.54684 -0.399778 3.87841e-20)
(2.7407 -2.72992 -1.79728e-26)
(3.782 -1.05295 -3.02366e-23)
(3.6795 -0.885317 1.64419e-20)
(4.18115 -1.35007 3.43365e-21)
(3.98419 -1.23831 0)
(4.70492 -1.47549 -8.14499e-28)
(4.43111 -1.45691 -3.98544e-21)
(5.2895 -1.19006 0)
(4.98882 -1.40431 0)
(5.75701 -0.230288 -1.14679e-22)
(5.53989 -0.772964 0)
(5.84878 1.01652 0)
(5.83711 0.434376 0)
(5.49602 1.81211 1.0006e-22)
(5.69551 1.52248 0)
(4.90394 1.90758 -1.16199e-23)
(5.19017 1.95633 0)
(4.31986 1.56946 0)
(4.59652 1.77103 0)
(3.84072 1.13255 -1.04504e-23)
(4.07892 1.3571 0)
(3.45728 0.661552 9.23052e-24)
(3.65712 0.906995 0)
(3.21047 0.0746733 -6.4381e-23)
(3.33185 0.393454 3.78081e-27)
(3.19154 -0.65162 -1.03949e-23)
(3.18538 -0.284442 0)
(3.44007 -1.23132 1.35601e-21)
(3.29714 -0.986644 -8.01758e-21)
(3.88443 -1.4707 1.17874e-20)
(3.65818 -1.39321 2.32207e-20)
(4.37114 -1.58275 -2.27851e-20)
(4.13237 -1.52036 -7.07942e-21)
(5.07618 -3.19479 3.96075e-21)
(4.39745 -2.82873 -1.0229e-21)
(4.74099 -3.09425 0)
(5.59218 -2.31901 -4.19616e-21)
(5.36404 -2.97774 7.3153e-21)
(5.70028 0.0445216 -5.10249e-21)
(5.70736 -1.23771 -9.7102e-22)
(5.30665 1.96503 7.76151e-23)
(5.55769 1.19822 -2.30202e-21)
(4.72794 2.36534 0)
(5.01462 2.31271 0)
(4.25176 2.0966 2.63254e-23)
(4.47183 2.26261 -3.75807e-27)
(3.79716 1.80649 -1.215e-27)
(4.02966 1.93271 1.28631e-27)
(3.34442 1.48221 1.66808e-23)
(3.54766 1.67781 0)
(3.10107 0.744058 0)
(3.18714 1.16559 0)
(3.08471 -0.27573 -5.28038e-23)
(3.0622 0.252524 0)
(3.26468 -1.25673 0)
(3.14761 -0.784129 0)
(3.55765 -1.98985 -2.5943e-23)
(3.39417 -1.65305 0)
(3.87037 -2.45263 -3.95347e-23)
(3.69215 -2.25076 8.52245e-23)
(4.21077 -2.4604 -5.13489e-20)
(3.99443 -2.52706 0)
(4.46038 -1.82146 -3.75591e-19)
(4.30799 -2.23537 2.31114e-19)
(4.47196 -1.30547 -2.05553e-20)
(2.56844 -0.159148 0)
(3.60781 -0.130968 -1.36454e-19)
(2.99548 -0.158926 5.98177e-21)
(2.21961 -0.142546 0)
(2.32219 -0.147994 0)
(2.3774 -0.119147 -1.13132e-21)
(2.24847 -0.133542 -2.43044e-27)
(2.79146 -0.109301 -5.4265e-21)
(2.56773 -0.113609 -2.33962e-21)
(3.18654 -0.113782 0)
(3.00646 -0.112967 2.02365e-20)
(3.91025 -2.79533 -1.6122e-23)
(4.08896 -2.49276 -8.56802e-22)
(4.71164 -2.07923 -2.38284e-21)
(4.63999 -1.70146 2.18837e-20)
(3.47374 -0.0808627 4.03803e-20)
(3.33709 -0.0976 -2.04739e-20)
(3.12771 -3.34655 -2.19823e-25)
(2.95669 -2.88004 0)
(3.50283 -3.60366 0)
(3.35421 -2.75008 -2.03641e-25)
(3.67607 -3.42896 -3.29853e-23)
(3.7652 -2.61031 -6.52479e-21)
(3.72935 -3.00866 3.14867e-23)
(4.07836 -2.58034 0)
(3.79279 -2.14311 -1.01812e-20)
(3.62264 -2.44085 5.03665e-23)
(4.49002 -2.41186 -9.89715e-21)
(4.94987 -1.81759 -2.3287e-20)
(5.03813 -2.1577 -4.58308e-21)
(3.96058 -1.80308 1.01546e-20)
(3.50529 -1.74877 1.02392e-20)
(3.581 -1.36708 1.7441e-20)
(5.35426 -1.85206 6.97607e-21)
(4.91067 -1.44083 5.01604e-20)
(5.24477 -1.38101 6.10468e-21)
(3.6091 -0.0730773 2.08295e-20)
(3.59109 0.168956 0)
(3.72389 0.11705 -2.45094e-20)
(2.98963 -3.14872 -1.22233e-26)
(3.68783 -0.532962 9.28508e-21)
(3.69142 -0.365638 4.08732e-20)
(3.94721 -0.882354 -1.55263e-20)
(3.83833 -0.758034 -9.17983e-21)
(4.34765 -1.13238 0)
(4.15845 -1.04547 0)
(4.84148 -1.2279 0)
(4.59805 -1.22127 0)
(5.39044 -0.937307 0)
(5.11871 -1.13567 0)
(5.83109 -0.09528 0)
(5.63756 -0.550372 0)
(5.90143 0.936118 5.85776e-27)
(5.9099 0.476882 -6.08629e-27)
(5.56608 1.53644 -3.24302e-23)
(5.76466 1.34026 -3.1471e-27)
(4.98125 1.58476 1.16199e-23)
(5.26861 1.64679 0)
(4.40443 1.29441 0)
(4.67155 1.47486 0)
(3.9194 0.921957 -6.8794e-24)
(4.14973 1.11746 0)
(3.53348 0.51263 5.87754e-24)
(3.72364 0.721465 0)
(3.28954 0.0305253 6.43787e-23)
(3.4051 0.279911 0)
(3.2957 -0.487613 1.40414e-22)
(3.27435 -0.243871 4.59679e-27)
(3.56887 -0.864571 7.85676e-21)
(3.42542 -0.706895 0)
(3.95457 -1.12512 -8.1577e-21)
(3.76771 -1.00989 -1.01163e-20)
(4.3895 -1.37363 2.94709e-20)
(4.17877 -1.25489 -1.77229e-20)
(4.64181 -1.45355 -4.4307e-20)
(4.63044 -2.491 3.5663e-21)
(4.30442 -2.17335 -1.47206e-20)
(5.32625 -2.89149 -1.99662e-23)
(4.96603 -2.75999 -4.16783e-23)
(5.92491 -2.17079 -1.68386e-20)
(5.66244 -2.7332 1.82177e-20)
(6.09295 -0.0152378 -7.49382e-23)
(6.08986 -1.18527 9.86066e-22)
(5.6364 1.68141 -7.75247e-23)
(5.93498 1.00865 -3.79411e-26)
(4.96638 2.06794 0)
(5.30321 1.99666 0)
(4.42591 1.86908 -1.28618e-27)
(4.68056 2.00453 1.36135e-27)
(3.97146 1.56582 0)
(4.20695 1.70614 0)
(3.50023 1.2971 1.25446e-23)
(3.73019 1.44533 0)
(3.24816 0.688458 0)
(3.34234 1.04782 0)
(3.26214 -0.223346 5.28041e-23)
(3.23782 0.24931 0)
(3.47368 -1.12471 0)
(3.35293 -0.692297 0)
(3.80788 -1.82703 -1.4532e-23)
(3.62216 -1.50731 1.05083e-26)
(4.18924 -2.28733 3.84243e-23)
(3.96664 -2.09398 0)
(4.60272 -2.33566 0)
(4.36447 -2.40066 4.44449e-24)
(4.95455 -1.72139 1.0556e-19)
(4.80466 -2.12619 1.21434e-22)
(5.08413 -1.17875 1.41327e-19)
(3.56354 0.570064 -2.49362e-19)
(4.18842 0.621692 1.38775e-19)
(2.58934 0.611194 0)
(3.01302 0.621158 0)
(2.23198 0.53055 -2.96266e-24)
(2.33514 0.57471 -7.61077e-27)
(2.37919 0.444883 -5.7099e-25)
(2.25312 0.4822 -2.24386e-27)
(2.78064 0.370783 1.43851e-21)
(2.56521 0.412334 3.08263e-27)
(3.20372 0.272055 1.67722e-20)
(2.99294 0.32411 -8.25868e-21)
(3.41246 0.219155 -1.38477e-22)
(3.30193 -3.45205 5.91457e-25)
(3.24376 -3.02589 -5.62572e-26)
(3.55069 -3.46111 0)
(3.63688 -2.83254 2.38192e-25)
(3.56081 -3.15654 4.10152e-23)
(4.00729 -2.80453 6.53676e-21)
(3.51418 -2.68441 -6.2606e-23)
(4.36093 -2.75533 1.3568e-21)
(3.32451 -2.0578 9.44803e-23)
(4.87959 -2.52443 0)
(3.17735 -0.840178 -1.98065e-20)
(3.18958 -1.23416 0)
(5.38514 -2.22241 8.63342e-21)
(5.58902 -1.28846 1.71374e-20)
(5.77316 -1.73079 -7.91927e-21)
(3.14744 -0.485823 -3.07571e-22)
(2.86439 -0.256104 -3.54042e-20)
(3.01048 -0.0791584 -3.42628e-22)
(5.94042 -1.09399 -5.64349e-21)
(5.41085 -0.948683 5.20075e-20)
(5.628 -0.783169 4.87204e-20)
(3.57978 0.520671 0)
(3.7082 0.448764 -7.89486e-20)
(3.70489 -0.0254135 3.94974e-20)
(3.84327 0.0495633 -4.14038e-20)
(3.23482 -3.29074 8.4102e-26)
(3.79219 -0.375089 -1.90247e-20)
(3.84013 -0.372396 -1.98625e-20)
(4.06588 -0.656374 2.12917e-21)
(4.01286 -0.691759 -9.20927e-21)
(4.43817 -0.874689 -2.77501e-23)
(4.30762 -0.901658 2.87321e-26)
(4.88553 -0.954118 0)
(4.68269 -1.00375 0)
(5.38881 -0.693169 0)
(5.14506 -0.877495 0)
(5.78316 0.0180596 6.3525e-24)
(5.61821 -0.353895 0)
(5.80735 0.861082 0)
(5.84867 0.505475 0)
(5.47998 1.30546 0)
(5.67745 1.18916 0)
(4.94633 1.29411 0)
(5.2258 1.38056 0)
(4.3878 1.02578 0)
(4.65945 1.20222 0)
(3.9105 0.692924 6.12707e-23)
(4.13821 0.875735 0)
(3.57953 0.34461 3.43974e-24)
(3.73145 0.5219 1.71553e-26)
(3.45948 -0.0375802 0)
(3.50319 0.151834 0)
(3.58979 -0.482882 2.53769e-24)
(3.51152 -0.26986 -4.59688e-27)
(3.88519 -0.904492 7.26036e-23)
(3.74498 -0.726817 1.90172e-26)
(4.22096 -1.11125 8.66784e-21)
(4.06811 -1.05564 9.0055e-24)
(4.54471 -1.16646 -4.24782e-21)
(4.39293 -1.15783 -4.58727e-21)
(4.98041 -1.11291 -2.3587e-20)
(4.75793 -1.1613 1.67953e-20)
(5.20729 -1.04356 -5.73158e-20)
(3.87473 -1.37757 2.00477e-21)
(3.46591 -0.933564 -3.65566e-22)
(4.72434 -2.13473 -1.08037e-22)
(4.29978 -1.78815 0)
(5.50416 -2.54459 1.97642e-23)
(5.12893 -2.39753 4.22124e-23)
(6.08478 -1.95905 0)
(5.84097 -2.43637 0)
(6.26366 -0.0748777 4.10755e-23)
(6.2493 -1.09875 0)
(5.79433 1.40707 0)
(6.10759 0.816112 0)
(5.06496 1.77864 0)
(5.43864 1.69487 0)
(4.45687 1.65135 -3.37854e-23)
(4.73982 1.75009 0)
(4.04091 1.35741 0)
(4.24201 1.50658 0)
(3.63661 1.1084 -5.30397e-23)
(3.84254 1.23201 0)
(3.38123 0.642489 -6.84564e-23)
(3.47525 0.926367 0)
(3.42361 -0.151223 -7.17373e-23)
(3.3717 0.272896 4.55458e-27)
(3.67413 -0.978596 -6.87861e-23)
(3.52112 -0.575891 -3.47724e-26)
(4.04338 -1.638 -1.15615e-23)
(3.82654 -1.3394 0)
(4.46857 -2.07137 0)
(4.22134 -1.89832 0)
(4.94303 -2.13179 0)
(4.69828 -2.18921 -4.45216e-24)
(5.37268 -1.57038 -7.89557e-20)
(5.21101 -1.93268 -1.1925e-22)
(5.5621 -1.0374 6.61316e-20)
(4.71154 1.17558 0)
(5.20886 1.09416 -2.38074e-19)
(3.49955 1.2557 1.27019e-19)
(4.11506 1.26163 3.29749e-20)
(2.61932 1.28303 9.78343e-24)
(2.99662 1.3083 2.30485e-26)
(2.30798 1.13197 5.63567e-24)
(2.39257 1.21219 1.38918e-26)
(2.44556 0.963567 -4.15678e-27)
(2.33038 1.04546 4.22664e-27)
(2.85021 0.827451 2.81256e-21)
(2.62715 0.895902 -2.98423e-27)
(3.27558 0.656313 -1.67046e-20)
(3.0798 0.743469 -2.86604e-21)
(3.43329 0.580133 -1.9084e-20)
(3.44228 -3.37928 0)
(3.50347 -3.0601 2.13856e-26)
(3.54345 -3.2519 0)
(3.84063 -2.97242 -1.53503e-24)
(3.39522 -2.87665 -4.41349e-23)
(4.22167 -3.01427 -1.87714e-23)
(3.24966 -2.32686 4.94592e-23)
(4.68427 -2.88367 1.02951e-22)
(3.02858 -1.55736 -1.56263e-22)
(5.27445 -2.58049 2.59305e-22)
(2.87897 -0.560124 0)
(5.77598 -2.10191 2.76312e-20)
(3.07164 0.219937 -4.14088e-20)
(2.73231 0.270689 7.00262e-20)
(6.12807 -1.43655 -2.8887e-22)
(5.80227 -0.514147 -5.22362e-20)
(6.17821 -0.698159 -1.00201e-20)
(3.82257 0.352227 3.59054e-21)
(3.44316 -3.24897 -1.60378e-25)
(3.90135 -0.0234675 -4.06748e-20)
(3.97688 0.361237 2.43778e-19)
(3.8352 0.0467779 -1.51526e-19)
(4.00386 -0.331393 4.68142e-21)
(3.85709 -0.245017 3.77725e-20)
(4.22227 -0.582751 -2.12654e-21)
(4.04073 -0.465712 4.42971e-21)
(4.50702 -0.779995 -7.67139e-21)
(4.30387 -0.648385 6.80502e-21)
(4.88321 -0.80254 -4.88839e-23)
(4.65047 -0.7486 2.47121e-26)
(5.29544 -0.512228 -3.73458e-23)
(5.07737 -0.628374 -1.75491e-26)
(5.58955 0.106169 2.27828e-23)
(5.46924 -0.174826 0)
(5.59671 0.766269 0)
(5.6468 0.502664 0)
(5.2892 1.08133 -3.58629e-23)
(5.49277 1.01349 0)
(4.79141 1.01123 2.03646e-26)
(5.06897 1.10578 -2.11404e-26)
(4.27065 0.761836 2.73975e-26)
(4.53648 0.910541 -2.84313e-26)
(3.85945 0.499018 -3.17978e-26)
(4.05682 0.631651 3.29879e-26)
(3.63405 0.270841 -1.42196e-22)
(3.73256 0.376745 3.55736e-26)
(3.5757 0.027635 7.63421e-23)
(3.5973 0.143937 3.74751e-26)
(3.61205 -0.293822 1.53081e-24)
(3.59277 -0.14157 0)
(3.72487 -0.597485 7.76544e-23)
(3.66014 -0.472504 3.84678e-26)
(3.96591 -0.818076 7.15074e-23)
(3.83242 -0.721947 0)
(4.32794 -0.964469 4.91496e-21)
(4.13221 -0.912772 0)
(4.75716 -0.95284 1.99888e-20)
(4.54071 -0.969463 -2.23134e-20)
(5.14988 -0.763428 0)
(4.95344 -0.888826 2.29294e-21)
(5.47993 -0.299298 7.33381e-20)
(5.33478 -0.542779 -7.06546e-20)
(3.25308 -0.340125 2.70797e-21)
(3.31116 0.0914105 2.27176e-20)
(3.2429 -0.111995 -2.19551e-20)
(3.67708 -0.949972 6.7385e-22)
(3.39015 -0.614268 8.10228e-23)
(4.50771 -1.65813 0)
(4.06655 -1.30939 0)
(5.34045 -2.14722 -1.96008e-23)
(4.94948 -1.9472 0)
(5.92539 -1.73535 0)
(5.66964 -2.12113 0)
(6.18514 -0.124771 3.38411e-23)
(6.12661 -0.996011 0)
(5.78698 1.08982 0)
(6.06277 0.612885 0)
(5.10952 1.41018 0)
(5.45246 1.3269 0)
(4.4944 1.38521 -1.58195e-23)
(4.78321 1.41782 0)
(4.0803 1.17519 0)
(4.25681 1.29665 0)
(3.75003 0.937549 -6.25369e-26)
(3.90512 1.04647 6.62202e-26)
(3.50422 0.590395 6.83874e-23)
(3.58129 0.794292 7.29296e-26)
(3.54877 -0.0633647 1.47733e-22)
(3.46357 0.287993 7.19131e-26)
(3.82825 -0.808104 -4.99695e-24)
(3.63261 -0.445865 0)
(4.2293 -1.42895 5.20978e-23)
(3.97885 -1.1473 -6.41546e-26)
(4.69482 -1.84096 3.29664e-26)
(4.42544 -1.66763 -3.49681e-26)
(5.21268 -1.91064 0)
(4.94792 -1.92429 0)
(5.69246 -1.41641 6.00231e-21)
(5.48716 -1.70553 -1.01862e-20)
(5.90533 -0.440767 0)
(5.86293 -0.926303 2.35124e-21)
(5.86265 0.10396 0)
(4.52386 1.60373 0)
(5.3417 1.2573 1.31983e-20)
(4.99059 1.45874 4.94529e-20)
(3.48598 1.80781 -1.2512e-20)
(4.01067 1.76804 -2.47931e-20)
(2.71118 1.80709 -1.86408e-24)
(3.04482 1.83876 0)
(2.41798 1.62324 -2.6792e-24)
(2.50268 1.72396 0)
(2.54407 1.42599 0)
(2.43587 1.52415 0)
(2.91698 1.25334 -2.06786e-25)
(2.71004 1.33793 0)
(3.40589 1.02284 0)
(3.15436 1.15309 0)
(3.80181 0.742019 0)
(3.62835 0.874031 -7.98626e-21)
(3.98987 0.464457 0)
(3.91462 0.643874 1.80054e-20)
(3.24981 0.463802 8.07243e-20)
(3.37649 0.338176 0)
(5.85986 -0.10513 2.78528e-21)
(5.5299 -0.0482975 5.66187e-21)
(3.52171 -3.25158 3.51124e-24)
(3.67866 -3.12579 0)
(5.91384 0.44404 0)
(3.4275 -3.05585 6.45015e-24)
(3.96537 -3.16327 1.06761e-24)
(4.0146 0.229865 5.61097e-20)
(4.07794 0.638132 0)
(4.08605 0.505923 0)
(3.17249 -2.56319 1.95906e-23)
(4.44397 -3.14008 4.17059e-23)
(2.94949 -1.83594 0)
(5.00922 -2.88421 -2.33377e-22)
(2.74519 -0.863332 0)
(5.59769 -2.37846 0)
(2.65503 0.189555 0)
(6.11013 -1.65131 -9.62296e-21)
(2.8456 0.595699 -1.61636e-21)
(6.32273 -0.832324 -8.29065e-22)
(3.44218 0.568524 0)
(3.42254 0.716807 -4.127e-20)
(6.19287 -0.10156 -2.06103e-20)
(5.73241 0.341418 9.33078e-20)
(5.44057 0.201929 -1.03284e-19)
(3.57254 -3.21381 1.06473e-25)
(3.97741 -0.0486645 1.96997e-20)
(3.94218 0.100107 0)
(4.07612 -0.276071 -4.30635e-21)
(3.99249 -0.172403 -8.96616e-21)
(4.23956 -0.483005 0)
(4.13081 -0.394037 4.42732e-21)
(4.48218 -0.609198 0)
(4.32866 -0.561334 1.01881e-21)
(4.81222 -0.577028 4.88604e-23)
(4.62892 -0.604908 0)
(5.14017 -0.320785 8.47459e-23)
(4.98273 -0.469103 0)
(5.3279 0.191795 1.39763e-23)
(5.26579 -0.0727323 0)
(5.27595 0.699643 -4.26711e-23)
(5.34731 0.488016 -3.78668e-26)
(4.99906 0.883908 3.5823e-23)
(5.18003 0.856958 4.11651e-26)
(4.58548 0.761313 -5.39532e-23)
(4.82059 0.861212 4.68223e-26)
(4.17672 0.547625 -5.81321e-26)
(4.38366 0.663671 5.66213e-26)
(3.90436 0.372534 -6.84191e-23)
(4.02819 0.459382 6.76865e-26)
(3.78138 0.216386 1.44732e-22)
(3.83276 0.300294 0)
(3.7341 -0.0252397 -2.61037e-25)
(3.7552 0.109659 7.7501e-26)
(3.75219 -0.369042 -1.56423e-22)
(3.7288 -0.197725 0)
(3.92017 -0.643471 -7.7613e-23)
(3.81517 -0.531538 -8.06694e-26)
(4.19063 -0.743606 0)
(4.04765 -0.716126 0)
(4.47291 -0.759746 9.41914e-21)
(4.33087 -0.755847 -9.86733e-21)
(4.73335 -0.72603 0)
(4.60183 -0.756986 -4.70634e-27)
(5.00876 -0.552614 3.1205e-21)
(4.87154 -0.64975 -4.7012e-21)
(5.17339 -0.273384 4.26258e-20)
(5.11464 -0.431984 -4.2545e-20)
(5.14005 0.146112 0)
(5.18475 -0.0584753 -5.63815e-21)
(3.46213 0.0877119 1.17303e-20)
(3.56936 0.496623 -1.47721e-21)
(3.49051 0.310943 -2.21321e-20)
(3.4597 -0.301762 2.33787e-20)
(3.4523 -0.122816 -1.15573e-20)
(3.64645 -0.68536 1.1003e-20)
(3.51182 -0.480302 -3.48756e-20)
(4.21608 -1.24924 -3.86404e-23)
(3.89037 -0.942001 3.452e-22)
(4.92112 -1.79588 1.96008e-23)
(4.57467 -1.55498 0)
(5.60485 -1.46479 8.54901e-26)
(5.26598 -1.80319 -9.03624e-26)
(5.99292 -0.117769 -4.72924e-26)
(5.88426 -0.824965 5.00083e-26)
(5.67119 0.827416 -1.91142e-23)
(5.90337 0.454277 0)
(5.08808 1.11956 7.46379e-26)
(5.37766 1.03026 -7.89838e-26)
(4.54275 1.13743 4.95003e-23)
(4.8001 1.13698 1.10731e-25)
(4.1234 1.02367 0)
(4.29303 1.09553 0)
(3.84591 0.804983 7.45214e-23)
(3.95549 0.905526 -4.65773e-27)
(3.61583 0.539787 -1.47064e-25)
(3.68275 0.67915 1.55758e-25)
(3.62749 0.0319964 2.53033e-24)
(3.5401 0.304777 0)
(3.9086 -0.622377 7.38168e-23)
(3.69856 -0.303098 0)
(4.33355 -1.19777 -6.66179e-23)
(4.07336 -0.933009 0)
(4.8311 -1.57726 9.01562e-26)
(4.55873 -1.40891 -9.5593e-26)
(5.36734 -1.64828 0)
(5.10545 -1.64007 0)
(5.84523 -1.23834 -7.57061e-21)
(5.6475 -1.47184 -5.02456e-21)
(6.06696 -0.390235 3.70904e-20)
(6.02656 -0.80968 -2.15548e-20)
(6.05011 0.0932886 0)
(5.13942 1.47951 7.31105e-21)
(5.30754 1.17448 4.19916e-21)
(4.39225 1.90493 0)
(4.8259 1.72827 -7.17797e-21)
(3.42295 2.13917 3.69959e-23)
(3.90176 2.07918 0)
(2.74985 2.12932 -7.88484e-24)
(3.03408 2.15955 -5.81458e-26)
(2.49689 1.97091 0)
(2.56996 2.05811 0)
(2.63768 1.79718 0)
(2.52066 1.88845 0)
(3.04681 1.61049 2.05589e-25)
(2.82229 1.70473 0)
(3.47955 1.3814 0)
(3.27204 1.50456 0)
(3.85414 1.05545 -1.61642e-20)
(3.67532 1.22461 7.71434e-21)
(3.99875 0.884434 -9.48386e-22)
(3.55733 0.763025 0)
(3.69597 0.639443 1.5529e-20)
(5.25123 0.442188 7.72414e-20)
(5.03189 0.302833 -1.0939e-19)
(3.48318 -3.16931 -2.60103e-25)
(3.74354 -3.2463 7.53258e-25)
(4.0944 0.235476 -8.94139e-20)
(4.06709 0.282553 5.4422e-20)
(3.20827 -2.82746 -7.22976e-23)
(4.08322 -3.27054 0)
(2.89447 -2.11027 -1.33404e-22)
(4.6253 -3.06113 -1.30176e-22)
(2.63987 -1.11894 0)
(5.23709 -2.55708 0)
(2.5292 0.0150157 7.62079e-22)
(5.8098 -1.70921 -1.79027e-21)
(2.65299 0.791782 0)
(6.16209 -0.741079 -1.75358e-20)
(3.0567 0.808997 -3.04743e-20)
(6.18884 0.0922265 0)
(3.58706 0.958944 2.82148e-20)
(5.8913 0.562779 1.77764e-20)
(3.84108 0.728755 -3.49894e-20)
(3.71088 0.902135 3.10384e-20)
(5.45322 0.690917 -6.69435e-20)
(3.8827 0.648347 -1.01824e-20)
(3.9941 0.733761 -8.72503e-21)
(3.99398 0.8008 4.29994e-20)
(5.04447 0.95051 -3.48739e-20)
(5.02016 0.576783 1.09158e-21)
(4.87083 0.383264 2.4953e-19)
(3.57488 -3.24293 0)
(4.07793 -0.0154187 -8.40944e-21)
(3.97801 0.0737427 3.05903e-20)
(4.12781 -0.22264 0)
(4.03127 -0.10745 0)
(4.24399 -0.38226 0)
(4.13795 -0.280741 0)
(4.46351 -0.449797 0)
(4.32305 -0.401225 0)
(4.75531 -0.411463 5.74621e-23)
(4.59869 -0.42458 3.77714e-27)
(5.02148 -0.204745 -4.74856e-23)
(4.89849 -0.316127 1.06372e-25)
(5.1135 0.20004 -4.32082e-23)
(5.09678 -0.0041998 9.91051e-26)
(4.97697 0.609607 4.26143e-23)
(5.07369 0.4407 9.73125e-26)
(4.70348 0.736354 0)
(4.85864 0.732224 -3.2726e-27)
(4.40245 0.598356 5.39039e-23)
(4.56242 0.697389 3.14476e-27)
(4.15217 0.426172 0)
(4.27391 0.512045 3.70672e-27)
(3.99415 0.312534 -2.26182e-25)
(4.06394 0.366018 0)
(3.88792 0.187827 -1.45172e-22)
(3.93409 0.257244 0)
(3.81234 -0.0167532 -7.63373e-23)
(3.8373 0.0940881 1.50363e-25)
(3.82989 -0.263398 1.56257e-22)