/*--------------------------------*- C++ -*----------------------------------*\
  =========                 |
  \\      /  F ield         | OpenFOAM: The Open Source CFD Toolbox
   \\    /   O peration     | Website:  https://openfoam.org
    \\  /    A nd           | Version:  10
     \\/     M anipulation  |
\*---------------------------------------------------------------------------*/
FoamFile
{
    format      ascii;
    class       surfaceScalarField;
    location    "22";
    object      phi;
}
// * * * * * * * * * * * * * * * * * * * * * * * * * * * * * * * * * * * * * //

dimensions      [0 3 -1 0 0 0 0];

internalField   nonuniform List<scalar> 
66213
(
0.00855238
-0.0103193
-0.00553659
0.00730353
0.0266704
-0.00397469
-0.0141434
0.00755152
-0.0122667
0.0313856
-0.014288
0.0218395
0.0211743
-0.0147707
-0.0173502
0.0109466
0.0203098
-0.0201955
0.02106
0.0373195
-0.0292765
-0.0391
0.028656
-0.030032
-0.00104682
-0.0114471
-0.0167825
-0.00799738
-0.0132449
-0.00032741
0.000340501
0.00136261
-0.0013757
0.000298143
-0.000625553
0.000638644
-0.00248558
0.00127149
0.0112831
-0.010069
0.00162319
-0.00410876
0.00289468
0.0822874
0.106785
-0.0951955
-0.0938773
0.0625151
0.055179
-0.0354067
-0.0539017
0.0297465
0.0866704
-0.0142669
0.0671505
0.0355811
0.0384554
-0.0449265
-0.02911
-0.00108583
0.00146154
0.0352054
-0.0133149
0.0113116
0.000917437
0.0139696
0.011171
0.0535415
0.0176489
-0.00993535
-0.0612551
-0.00610196
0.0522305
0.00741303
-0.0746218
0.00655525
0.0619646
-0.021738
0.0291582
0.0238575
-0.0312777
-0.0618529
0.00671266
0.0334023
-0.0246622
-0.0695393
0.0323486
0.0301689
-0.0308255
0.0635534
-0.0882156
-5.75691e-05
-0.00475046
0.00208508
0.00272295
-0.00321945
0.00316188
-0.00184728
-0.00137217
-0.000587508
-0.00601023
0.044717
-0.0094555
0.00628879
-0.0415503
0.0337441
-0.0121787
0.0231515
0.0206228
-0.0207441
0.0456574
-0.0455361
0.00847382
0.0444908
-0.0323418
-0.000331154
0.0214003
-0.0297726
0.0087035
0.029284
0.0024197
-0.0320349
-0.00136865
-0.00010224
0.000883385
0.00141887
-0.000956108
-0.00514597
0.00468321
0.00298703
-0.00203846
0.000470299
-0.0124079
0.0136492
0.000329581
-0.00157089
0.00222841
-0.00332468
-0.0089353
0.0208188
-0.0170369
0.00515344
-0.0152114
-0.00444258
0.0107186
-0.0374681
0.0608281
0.0124255
-0.0357855
-0.0287397
-0.0782677
-0.064391
-0.00272272
0.0382813
0.0288324
0.0779946
-0.13583
-0.0230662
-0.00506306
0.0281293
-0.00955977
-0.0135064
-0.0277691
0.0388266
-0.0206172
0.00437296
-0.00997583
-0.0221663
-0.00149993
-0.00584848
0.00734841
-0.00668207
-0.00816239
0.0133445
-0.00913347
0.00666453
-0.0110305
0.0183356
0.00300784
-0.00205108
0.00570777
-0.00144021
0.00255463
0.00189341
0.00453835
-0.00277302
-0.00176533
0.0079806
-0.00344225
0.0371345
-0.0476728
-0.0146882
0.0252265
0.076514
-0.0164203
-0.0743605
0.0622903
0.0287301
-0.0145065
0.0179293
-0.0149998
0.00822327
-0.0111528
0.0101167
0.017047
-0.00923439
0.00544463
0.0209501
-0.016278
-0.00146454
0.010992
-0.0081245
-0.00140298
0.0306078
0.0417782
-0.0931301
0.0219427
0.014099
-0.0144147
-0.021627
0.018709
0.0122101
-0.00897647
0.0142396
0.00971543
-0.0117215
-0.0122335
0.0169341
0.010368
-0.0130625
0.0731784
0.0282608
-0.0158305
-0.0856087
0.0794233
0.0117996
-0.0180446
-0.0422854
0.0313064
-0.00493099
0.0159099
0.0130556
-0.0258132
-0.0295278
-0.0256912
0.0338175
0.0231801
-0.0498263
0.0262682
0.0541659
-0.0212334
0.0563984
-0.0849912
-0.00176849
0.0343658
-0.0538308
-0.000156454
-0.014999
0.0155679
-0.000412461
-0.00344747
0.00311276
0.000178258
0.000251173
-0.000711612
0.00128034
0.000648113
-0.000184134
-0.00174432
0.0255661
0.00197998
-0.00543329
-0.0221128
0.00319423
0.0252779
-0.0029061
-0.0113901
-0.00140255
0.0159868
-0.0096042
0.000194133
-0.0122577
-0.00277982
-0.0107666
0.0352463
0.0363484
0.0297661
-0.000953584
-0.0395792
0.0153786
-0.0273787
0.0328189
-0.0227562
0.00113026
0.0370045
-0.0393008
-0.00977959
-0.000485658
0.0495661
0.0370679
-0.00921823
0.0570348
-0.0345086
-0.0190931
0.0166055
0.0369963
0.000891721
-0.00803533
-0.027365
0.0442773
-0.0624787
-0.00666869
-0.00191311
0.00854721
3.45857e-05
-0.00147854
-0.00366667
-0.00152347
-0.00104398
0.000515232
-0.000949793
-0.000872011
-0.0548549
-0.0414168
0.0297041
0.0665676
-0.0196479
0.0288958
-0.0641028
0.0282108
-0.00443168
-0.043427
-0.0142819
0.00107589
0.00398811
0.0100606
-0.00516093
-0.00888777
0.00252207
0.00146604
0.00102729
0.0115554
0.00433225
0.00521982
0.00161889
0.000648138
0.00460155
0.0332399
0.00443334
-0.0457086
0.00827098
0.0415744
0.000169862
-0.00178214
-0.0041435
0.00575578
-0.000675432
0.000803805
4.14886e-05
-0.00230226
-0.000155309
0.00460042
0.00884782
-0.00895439
-0.00449385
-0.00121333
-0.0112231
0.0219819
0.0448848
-0.0111213
0.0462263
-0.0474267
0.000243361
0.000957071
0.0499326
-0.000115868
-0.00359037
-0.0140816
-0.0154567
0.00697902
0.0225593
-0.015959
-0.0101318
0.0120092
0.000924491
-0.00232705
0.000742162
0.000182329
0.0191164
0.0252642
-0.00515788
-0.0392227
0.018794
0.0555439
-0.0552215
-0.0280859
0.0206248
0.026255
-0.00676048
0.00393877
-0.01281
-0.00279939
0.00132751
-0.0178983
0.000656598
0.0426011
-0.0401298
0.00335261
-0.00582393
0.00762597
-0.00845181
-0.0166869
-0.0312034
0.00776055
-0.046656
-0.00536311
0.0477051
0.00431402
-0.0309192
-0.0232484
0.00751157
-0.000139361
-0.0526505
0.0387066
0.00638185
-0.0270134
-0.0180751
-0.014913
0.0490354
0.00458417
0.0393838
-0.00523677
-0.04906
0.0281294
0.0189413
-0.00768694
0.0212332
-0.0150664
-0.0242718
0.0181049
0.0142511
-0.0177864
0.0247685
0.0275181
0.0198552
-0.0130881
-0.0342852
-0.0109482
0.0233999
0.039821
0.00595476
-0.0258877
-0.019888
-0.00231876
0.00136585
0.0407739
0.0385525
0.00168466
-0.0425559
0.0258325
-0.00664968
0.0193696
0.0144369
0.0113776
-0.0071054
0.0145018
0.0126738
-0.0130766
0.0117121
0.000379572
0.000362589
-0.0215593
0.0164014
-0.0267978
0.00523848
-0.00133146
0.0474113
-0.00119507
0.000217537
-0.00310934
0.00236628
0.000525527
-0.00187586
0.000172251
0.00192115
-0.00437538
0.00242097
7.85537e-05
0.0046416
-0.0148697
-0.00477084
-0.00228656
-0.0225664
0.0212592
0.00359378
-0.0250495
-0.00147427
0.0242372
0.00564066
-0.0154621
0.0413724
-0.031551
0.0391816
0.00350827
-0.0370492
0.000636331
0.0336357
0.000105687
-0.0343778
0.0332211
0.00126336
-0.0338482
0.0140543
0.0366561
-0.0534331
0.011454
0.0396215
-0.0370212
0.0185076
0.00162475
-0.0150672
-0.00506517
0.019493
-0.00440022
0.00341478
-0.0354227
0.00364447
0.0341585
-0.00238034
0.00495692
-0.0351923
-0.00518731
-0.00119885
0.0331492
-0.0330516
0.00110129
0.0325804
8.32469e-06
-0.0337876
-0.0116309
-0.0301942
0.0402202
0.00160488
0.0245002
-0.00572605
-0.030405
0.0384191
0.000219378
-0.0375545
-0.00108399
0.0405483
-0.000927946
-0.00120121
0.0145948
0.0123233
-0.00742504
0.0109189
-0.00978354
0.0134595
0.00340817
-0.00704386
0.01072
-0.00314606
-0.0219886
-0.0331909
-0.00867354
0.0363246
0.00553981
-0.00660692
-0.0308389
0.00425492
-0.00359973
-0.0147291
0.00458763
0.0137412
-0.0156758
-0.00534285
0.0174189
0.0353745
-0.0334141
0.0306167
-0.0325771
0.0564649
0.0255475
-0.0466378
0.0253869
-0.0250285
0.0561065
0.0357104
-0.0430496
0.0434912
-0.036152
0.0664826
0.0312317
-0.0620039
0.0215345
0.0639676
-0.0190195
-0.0345735
0.0100809
0.0375481
-0.0322207
-0.0110263
-0.0369506
0.00666704
0.0386108
-0.00832724
-0.00764603
0.00716366
-0.0364682
0.00613398
0.000663056
-0.00329221
-0.00350482
0.0026027
0.00513735
-0.00160607
0.0816478
-0.0575241
0.00667256
-0.0307963
0.0311461
0.0708277
-0.020326
0.0371459
0.00477827
-0.0133631
-0.0285611
0.0409539
-0.000143931
-0.0226241
-0.0207464
0.00325231
-0.00092706
-0.019433
-0.000386343
-0.0168685
-0.00668269
0.00101075
0.000715639
-0.000543388
-4.78727e-05
0.000763512
-0.0317005
0.0042082
0.0298492
-0.00235689
0.00334368
-0.00297033
-0.0320738
0.0315962
0.00339312
-0.0316457
0.0302705
0.00553394
0.034893
0.0167678
-0.0433898
-0.0172958
0.0571897
-0.00500097
0.029823
-0.030351
-0.0251764
-0.00451125
0.024615
0.00507266
0.0214564
-0.0429522
-0.00368062
-0.00616307
0.0231082
-0.000361075
0.000386446
-0.00206383
0.000246418
-0.000607493
0.000632864
0.00176263
-0.00456203
0.00309014
0.0216259
-0.00549895
-0.0315891
-0.00050948
0.0335794
-0.0329633
-0.000106619
0.0342812
-0.000812007
-0.0339787
0.0453606
-0.00608303
-0.0382503
0.00439848
0.0318878
-0.00413244
-0.0321539
0.0376744
-0.0303568
-0.0052403
-0.00207733
0.0369739
0.0131862
-0.0124857
0.0452601
0.0106653
-0.0189515
0.0456908
0.0173042
-0.0177349
0.0503178
0.0148265
-0.0194535
0.050911
0.02034
-0.0209331
0.0510565
0.021508
-0.0216535
0.0514107
0.0219267
-0.022281
0.0512958
0.0224033
-0.0222883
0.0514359
0.0222456
-0.0223858
0.0511265
0.0223158
-0.0220064
0.0511102
0.0218757
-0.0218594
0.0506701
0.0217851
-0.0213451
0.0505496
0.0212663
-0.0211459
0.0500245
0.0211621
-0.020637
0.0498309
0.0206739
-0.0204804
0.0492344
0.0206448
-0.0200483
0.0489673
0.0202725
-0.0200054
0.0482841
0.0204052
-0.0197219
0.0479323
0.0202026
-0.0198508
0.0471535
0.020484
-0.0197053
0.0467276
0.0203171
-0.0198911
0.0458752
0.0204898
-0.0196374
0.0454036
0.0200005
-0.0195289
0.0445153
0.0196714
-0.0187831
0.0440234
0.0185008
-0.018009
0.0397119
0.0174503
-0.0131388
0.039212
0.0155128
-0.0150129
0.0328905
0.0161825
-0.00986098
0.031168
0.0129389
-0.0112164
0.0304437
0.00957285
-0.0088485
0.0301647
0.00650837
-0.00622935
-0.0263986
0.0344582
0.0104447
-0.0185043
0.00584984
8.79692e-05
-0.0265195
0.0205817
-0.0256456
0.00509689
-0.0280732
-0.00219564
-0.0311606
0.0233919
-0.00322809
0.0109968
0.00361688
-0.00461285
0.0319235
-0.0324517
0.010101
-0.0313408
0.0330948
0.00186287
0.00709111
0.0308083
-0.0291243
0.0144985
0.0112955
0.0300216
-0.0303501
0.0177787
0.0164101
0.0307146
-0.0310705
0.0200273
0.0188653
0.0314175
-0.0317614
0.0208338
0.0203474
0.0320868
-0.032395
0.0207922
0.0206424
0.0326719
-0.0329199
0.0206532
0.0204796
0.0331327
-0.0333162
0.0208283
0.0204853
0.0334691
-0.0335947
0.0212877
0.0208268
0.0336888
-0.0337482
0.0218445
0.0213605
0.0337653
-0.0337327
0.0222832
0.0218928
0.0336432
-0.033488
0.0222481
0.0221562
0.0332627
-0.0329566
0.0212019
0.0217014
0.0325577
-0.0359132
0.0181819
0.019941
0.0339944
-0.035944
0.0126149
0.0153855
0.0117004
0.000454517
0.000325861
-0.0272999
-0.0268384
0.00164732
0.0262332
-0.00352449
0.0103861
-0.0278813
0.000133982
0.00208032
-0.00604357
0.0253462
-0.0213829
0.00036494
0.0251073
-0.00323698
0.0029201
-0.026983
-0.0253078
-0.00476762
-0.00593679
0.0261264
0.0258221
-0.0277831
-0.00126709
-0.0279649
0.00300376
0.024161
0.00202603
0.00655163
-0.00548899
-0.0263704
-0.00569384
0.0057731
-0.0280442
-0.0261252
-0.0304435
0.0325208
-0.00427295
0.0291079
-0.0282095
0.00210528
-0.00120159
-0.0355103
0.0357319
-0.0127073
-0.0082298
-0.033504
0.0344473
-0.0186783
-0.0167235
-0.0347001
0.0348696
-0.0211027
-0.0197062
-0.0349615
0.0349779
-0.0222973
-0.0217454
-0.0349239
0.0348086
-0.0222704
-0.0222344
-0.0346443
0.0344383
-0.0216534
-0.021842
-0.0342016
0.0339369
-0.0208811
-0.0211084
-0.0336517
0.0333425
-0.0201712
-0.0203518
-0.0330117
0.0326494
-0.0196431
-0.0197174
-0.0322569
0.0318263
-0.0194202
-0.0193295
-0.0313677
0.0308813
-0.0194047
-0.0192467
-0.030386
0.0298864
-0.0190293
-0.0191422
-0.0293998
0.028945
-0.0175542
-0.0182965
-0.0316839
0.0311026
-0.0144315
-0.0158777
-0.0325176
0.0313843
-0.0100831
-0.0112761
-0.0301508
0.0292601
-0.00533863
-0.00761497
-0.00313588
0.00630326
-0.00701946
0.0260624
-0.00589038
0.0248344
0.00521699
0.0255202
0.0309825
-0.0322387
0.00311902
-0.0286928
-0.00479743
0.0275534
-0.00123475
0.0308438
-0.0301187
0.00937585
0.00569624
0.0312896
-0.0310274
0.0142362
0.0124665
0.0307696
-0.0310562
0.0180653
0.0161524
0.0313485
-0.031632
0.0203108
0.0191576
0.0319085
-0.0321782
0.0211035
0.0206239
0.0324317
-0.0326692
0.0210298
0.0208959
0.0328794
-0.0330624
0.0208362
0.0206897
0.0332123
-0.0333324
0.0209484
0.0206352
0.0334213
-0.0334806
0.021347
0.0209157
0.0335069
-0.0334955
0.0218331
0.0213868
0.0334399
-0.0333309
0.0221742
0.0218372
0.0331626
-0.0329244
0.0220099
0.0219878
0.0326144
-0.0322237
0.0208112
0.0213914
0.0317628
-0.0316047
0.0180238
0.0194801
0.0320388
-0.0328249
0.013401
0.0158196
0.0315431
-0.0283181
0.00721976
0.0104185
0.0273046
-0.0261253
0.000467938
0.00408345
0.0275384
-0.0268993
-0.00612814
-0.00335444
-0.00752458
0.0266315
-0.0281764
0.00574003
-0.00924918
0.00962224
-0.0267435
-0.0270795
-0.00906893
0.00768444
-0.00822226
0.0253722
0.0245509
-0.0243957
0.00506179
0.0246506
0.00758474
0.00955171
-0.0100735
-0.0275224
0.0289726
-0.0298447
-0.0039253
-0.0076472
0.027676
0.0285229
-0.00719754
0.00979773
-0.0284224
-0.0265764
-0.0305776
0.0306341
0.00204871
0.0300638
-0.0294834
0.00921734
0.00522623
-0.032234
0.0339492
-0.00598817
-0.00280147
-0.0353697
0.0360251
-0.0133627
-0.00965029
-0.0357577
0.0354177
-0.0183384
-0.0164561
-0.035602
0.0356931
-0.0211938
-0.0198905
-0.0356962
0.0356199
-0.022221
-0.0217485
-0.035476
0.0352746
-0.022069
-0.0220905
-0.0350305
0.03475
-0.0213728
-0.0215979
-0.0344448
0.0341155
-0.0205519
-0.0208032
-0.0337705
0.0334044
-0.0198051
-0.0200068
-0.0330202
0.0326062
-0.0192291
-0.0193333
-0.0321633
0.0316807
-0.0189376
-0.0188865
-0.0311687
0.0306258
-0.0188618
-0.0187346
-0.0300741
0.0295164
-0.0184716
-0.0185904
-0.028977
0.0284503
-0.0170275
-0.0177571
-0.0281868
0.0278693
-0.0141141
-0.0156141
-0.0286014
0.0283605
-0.00984225
-0.0120081
-0.0280148
0.0271148
-0.00443862
-0.00726926
-0.0263509
0.0249896
9.41561e-05
-0.00237196
0.00261996
0.00875894
-0.00940871
0.0267122
0.0260569
0.0100337
-0.0104557
0.0280981
0.0272565
0.0309232
-0.0311093
0.00330514
-0.000156269
0.0317303
-0.0313696
0.00901517
0.00631718
0.0311201
-0.0313652
0.0144813
0.012217
0.0315916
-0.0318151
0.0182888
0.0163787
0.0320342
-0.0322431
0.0205198
0.0193767
0.0324433
-0.032635
0.0212951
0.0208241
0.0328126
-0.0329759
0.021193
0.0210736
0.0331159
-0.0332312
0.0209514
0.0208297
0.0333161
-0.0333715
0.0210038
0.0207202
0.0333961
-0.0333894
0.0213403
0.0209402
0.0333486
-0.0332677
0.0217522
0.0213461
0.0331408
-0.0329573
0.0219908
0.0217103
0.0327127
-0.032396
0.0216931
0.0217432
0.0320088
-0.031546
0.0203484
0.0210043
0.0310249
-0.0304575
0.0174564
0.018959
0.0298646
-0.0292746
0.012811
0.0152267
0.0286817
-0.0281418
0.00667985
0.00982561
0.0273035
-0.0269316
9.60505e-05
0.00324519
0.0267554
-0.0265082
-0.00637531
-0.0035307
-0.0118263
0.0114517
-0.0267049
0.0261956
-0.0261121
-0.0119099
-0.00938151
0.0135105
-0.0131943
-0.0287386
-0.0289365
0.0129636
-0.0125611
-0.0281557
0.0120683
-0.0273601
-0.010647
0.0287142
0.0141349
-0.0263895
-0.0138575
0.0142163
-0.0267864
0.0105568
-0.010899
0.0257143
0.00978595
0.0254215
0.0241905
-0.0239634
0.00483471
0.0154505
-0.0152739
-0.0289151
0.0152513
-0.0287373
0.0243531
0.00742212
-0.0270692
-0.0311402
0.0318147
0.00854288
0.0302091
-0.02988
0.0149223
0.0120324
-0.0323196
0.0335602
0.000808171
0.00472127
-0.0340605
0.0351439
-0.00707164
-0.00330176
-0.0360121
0.0363783
-0.0137289
-0.0105185
-0.0362197
0.0364224
-0.0185411
-0.0162974
-0.0365251
0.0365266
-0.0211953
-0.0199931
-0.0364356
0.0362641
-0.0220495
-0.0216574
-0.0360292
0.0357417
-0.0217815
-0.0218556
-0.0354183
0.0350641
-0.0210187
-0.0212746
-0.0346917
0.0342999
-0.02016
-0.0204308
-0.033897
0.0334764
-0.0193845
-0.0196039
-0.0330415
0.032579
-0.0187666
-0.0188984
-0.0320896
0.0315603
-0.0184084
-0.0183971
-0.0310012
0.0304097
-0.0182704
-0.0181754
-0.0298092
0.0292036
-0.017866
-0.0179899
-0.0286187
0.0280528
-0.0164615
-0.0171722
-0.0275285
0.0270456
-0.0136312
-0.0150899
-0.0266237
0.0262561
-0.00947461
-0.0115862
-0.0259483
0.0259263
-0.00441657
-0.00696152
-0.025259
0.0248036
0.000549481
-0.00170465
0.00346019
0.011147
-0.011948
0.0275131
0.0263049
0.012503
-0.0130851
0.0286802
0.0278115
0.0302047
-0.0308246
-0.0033054
-0.0298931
-0.00993628
0.0291824
-0.00688595
0.031299
-0.0315005
0.0035066
0.000318156
0.0317027
-0.0322233
0.00953578
0.00651936
0.0320968
-0.0322843
0.0146688
0.0120906
0.0324534
-0.0326135
0.0184488
0.0165479
0.0327585
-0.0328909
0.0206522
0.0195217
0.0330121
-0.0331236
0.0214067
0.0209452
0.0332233
-0.0333104
0.0212801
0.0211733
0.0333786
-0.0334248
0.0209976
0.0208979
0.033444
-0.0334346
0.0209944
0.0207394
0.0333953
-0.0333236
0.0212687
0.0209009
0.0332173
-0.0330687
0.0216036
0.0212398
0.032873
-0.0326183
0.0217361
0.0215145
0.0323018
-0.0319127
0.021304
0.0214268
0.0314563
-0.0309293
0.0198214
0.0205479
0.030352
-0.0297323
0.0168367
0.0183817
0.0291006
-0.0284758
0.0121862
0.014595
0.0278855
-0.0273621
0.0061565
0.00923527
0.0269395
-0.0263242
-0.000519295
0.00282263
0.0260303
-0.0256834
-0.00672218
-0.0038246
0.0254795
-0.0255563
-0.0118332
-0.00958539
-0.0156747
0.0157367
-0.0264514
0.0256066
-0.026162
-0.0151194
-0.0138071
-0.0135077
0.0291367
0.0174479
-0.0173102
-0.028875
-0.0296893
0.0172572
-0.0156572
-0.0277724
0.0143796
-0.0275233
0.00921066
0.0249284
-0.0164301
0.0166586
-0.0263904
-0.0257183
0.0256984
-0.0150994
-0.0263353
-0.0158132
-0.0174206
-0.0288047
0.0162254
-0.0272751
0.017162
-0.0269548
0.0188137
-0.0190769
-0.0286118
0.0308596
-0.0311351
-0.00966079
-0.0134333
0.029108
0.0305748
-0.0131485
0.0182068
-0.0290824
-0.0283468
-0.0309926
0.0318354
0.0140795
0.0302549
-0.0305795
0.0185315
0.0165194
-0.032696
0.033551
0.00768788
0.0111718
-0.0345301
0.0353593
-2.0953e-05
0.00374214
-0.0358748
0.0363484
-0.00754521
-0.0038173
-0.0367556
0.0370838
-0.0140572
-0.0109257
-0.0373131
0.037437
-0.0186651
-0.0165266
-0.0374501
0.0373562
-0.0211014
-0.0200062
-0.0371687
0.0369017
-0.0217825
-0.02147
-0.0365766
0.0362047
-0.0214096
-0.0215305
-0.0358047
0.0353804
-0.0205944
-0.0208746
-0.0349446
0.0344943
-0.0197097
-0.0199951
-0.034038
0.0335675
-0.0189141
-0.0191476
-0.0330867
0.0325811
-0.0182609
-0.0184176
-0.032051
0.0314814
-0.0178388
-0.017867
-0.0308815
0.0302476
-0.0176364
-0.0175755
-0.029604
0.028956
-0.0172181
-0.0173462
-0.0283325
0.027736
-0.015865
-0.0165486
-0.0271888
0.0266901
-0.0131326
-0.0145427
-0.0262563
0.0258842
-0.00910254
-0.0111523
-0.0255857
0.0253628
-0.00419368
-0.00666298
-0.0252091
0.0246815
0.00107706
-0.00155094
-0.0244986
0.024233
0.00510031
0.00364306
-0.0241867
0.0244946
0.00890272
0.00746845
0.0122859
-0.0127995
0.0262279
-0.0115456
0.0112767
0.0251972
0.0261618
0.0137339
-0.0141571
0.0279363
0.0272393
0.0144717
-0.0147454
0.0289538
0.0281262
0.0147716
-0.0156866
0.030023
0.0291629
0.0316567
-0.0322549
-0.00270721
-0.0063643
0.0324295
-0.0326158
0.00369287
0.000492755
0.0327915
-0.0329604
0.00970465
0.00669507
0.0331124
-0.0332424
0.0147989
0.0122426
0.0333511
-0.0334418
0.0185395
0.0166566
0.0335119
-0.0335655
0.0207059
0.0195918
0.0336061
-0.0336363
0.0214369
0.0209858
0.0336571
-0.0336675
0.0212904
0.0211942
0.0336635
-0.0336405
0.0209746
0.020894
0.0335945
-0.0335212
0.0209212
0.0206933
0.0334195
-0.0332847
0.0211339
0.0207993
0.0331152
-0.0329016
0.0213899
0.0210703
0.0326402
-0.0323183
0.0214142
0.0212531
0.0319349
-0.0314795
0.0208486
0.0210434
0.0309604
-0.0303755
0.0192364
0.0200288
0.0297472
-0.0290838
0.0161733
0.0177535
0.0284197
-0.027774
0.0115405
0.0139308
0.0271847
-0.0266741
0.00564595
0.00864594
0.0262632
-0.0259553
-0.000827199
0.00241173
0.0257716
-0.0254248
-0.00706901
-0.00400831
0.0255855
-0.025496
-0.0119226
-0.00942469
-0.0136047
-0.0168927
0.0173791
-0.0268769
-0.0266674
-0.0165606
0.0110305
0.0247408
0.0209596
-0.0206896
-0.0293524
-0.0299527
0.0203328
-0.0171253
-0.0280677
0.0167482
-0.0280462
0.0307243
-0.0158362
-0.0191796
-0.0287021
0.0175499
-0.027663
-0.0205061
-0.0287953
0.0180383
-0.027614
0.0172782
-0.0272119
-0.0167337
0.0178935
-0.0274922
0.0209362
-0.0212508
-0.0290378
0.0244312
-0.0241428
0.00861433
0.0244799
0.0109818
0.0194004
-0.0284169
-0.0287239
-0.0315646
0.0321366
0.0179594
0.0304202
-0.0316484
0.0206286
0.0191884
-0.032727
0.0334395
0.013367
0.0159291
-0.0345143
0.0354066
0.00679561
0.010097
-0.0359976
0.0365716
-0.000594958
0.00315114
-0.0370989
0.0375663
-0.00801259
-0.00434461
-0.0379495
0.0382335
-0.0143412
-0.0113089
-0.0383987
0.0384401
-0.0187066
-0.0166918
-0.0383603
0.0381681
-0.0209092
-0.0199264
-0.037883
0.0375211
-0.0214206
-0.0211849
-0.0371078
0.0366545
-0.0209563
-0.0211172
-0.0361816
0.0356913
-0.0201041
-0.0204017
-0.0351966
0.0346924
-0.0192055
-0.0195003
-0.0341871
0.0336713
-0.0183982
-0.0186423
-0.0331492
0.0326054
-0.0177171
-0.0178955
-0.0320402
0.0314369
-0.0172354
-0.0173019
-0.0308034
0.0301346
-0.0169675
-0.0169421
-0.0294554
0.028772
-0.0165347
-0.016667
-0.028116
0.0274923
-0.0152413
-0.0158927
-0.0269251
0.0264134
-0.0126209
-0.0139755
-0.0259734
0.025602
-0.00873119
-0.0107123
-0.0253105
0.0250978
-0.00398094
-0.00637145
-0.0249733
0.0249281
0.00112227
-0.00142648
-0.0249596
0.0245173
0.00554262
0.00361156
0.00784294
0.0138076
-0.0143106
0.0257002
-0.0127137
0.0244755
0.012718
0.0258348
0.0143348
-0.0153678
0.027261
0.0261859
0.0156183
-0.0158428
0.0281609
0.0274897
0.0163233
-0.0165992
0.0292297
0.0286067
0.0170952
-0.0175196
0.0304474
0.029659
-0.0174795
0.0306842
0.03205
-0.0325263
-0.00918445
-0.0315667
0.031157
-0.0154265
-0.0126652
0.0332575
-0.0334311
-0.0025336
-0.00563318
0.0336066
-0.0337736
0.00385982
0.00066833
0.0339214
-0.0340501
0.00983339
0.00684287
0.0341521
-0.034226
0.0148727
0.0123446
0.0342713
-0.0342901
0.0185582
0.0167019
0.0342841
-0.0342578
0.0206796
0.0195858
0.0342172
-0.034166
0.0213856
0.0209452
0.0341081
-0.0340422
0.0212245
0.0211363
0.0339668
-0.0338758
0.0208836
0.0208186
0.0337659
-0.0336306
0.0207859
0.0205835
0.0334688
-0.0332734
0.0209385
0.0206374
0.0330432
-0.0327676
0.0211143
0.0208401
0.032444
-0.0320591
0.0210292
0.0209295
0.0316138
-0.0310979
0.0203326
0.0205981
0.0305224
-0.029886
0.0186
0.0194533
0.029214
-0.0285161
0.0154754
0.0170815
0.0278292
-0.027172
0.0108833
0.0132439
0.0265829
-0.026078
0.00514108
0.00805684
0.0256786
-0.0253923
-0.0011135
0.00201234
0.0252356
-0.0252155
-0.00708913
-0.004165
0.0250025
-0.0250022
-0.0119229
-0.00963771
0.0253181
-0.0257575
-0.01466
-0.0132888
0.0260212
-0.0263837
-0.0161981
-0.0155495
-0.0162934
-0.0277921
0.0168736
0.0279119
-0.0277654
-0.0164399
-0.0152055
0.0226079
-0.0218865
-0.0291383
-0.0308113
0.0217708
-0.0186721
-0.0285752
0.0183149
-0.0288111
0.01682
-0.0286995
-0.015886
-0.0282351
0.017263
-0.019934
-0.0292742
0.0187972
-0.0284219
-0.0208186
-0.0292275
0.0183725
-0.028093
0.014058
-0.0151028
0.0255203
0.0249102
-0.0243081
0.0121159
0.0253784
0.0135899
-0.0218834
-0.0290409
0.0179171
-0.0285356
0.0234919
-0.0230373
-0.0295929
-0.0178457
0.0315232
0.0227781
-0.0300975
-0.0290811
-0.0315809
0.0324916
0.0197179
0.0312382
-0.0304958
0.0220357
0.0214281
-0.032674
0.0334561
0.0171772
0.019006
-0.0343758
0.0352263
0.0125164
0.0150094
-0.0358831
0.0365456
0.0061331
0.00944017
-0.0371848
0.0377865
-0.00119671
0.00251199
-0.0383254
0.0387853
-0.00847253
-0.00488345
-0.0391388
0.0393704
-0.0145728
-0.0116624
-0.0394642
0.0394184
-0.0186608
-0.0167856
-0.0392421
0.0389494
-0.0206166
-0.0197501
-0.0385665
0.0381118
-0.0209658
-0.020802
-0.037614
0.0370841
-0.0204264
-0.0206194
-0.0365434
0.0359924
-0.0195531
-0.019861
-0.0354441
0.0348913
-0.0186528
-0.018952
-0.0343423
0.0337864
-0.0178423
-0.0180934
-0.0332281
0.0326516
-0.0171405
-0.0173373
-0.0320572
0.0314265
-0.0166047
-0.0167075
-0.0307665
0.03007
-0.016271
-0.0162821
-0.0293621
0.0286495
-0.0158222
-0.0159591
-0.0279665
0.0273197
-0.0145945
-0.0152096
-0.0267358
0.0262142
-0.0120993
-0.0133916
-0.0257714
0.0254035
-0.0083633
-0.0102695
-0.0251212
0.0249221
-0.00378188
-0.00608909
-0.0248138
0.0247911
0.00114492
-0.00131813
-0.0248546
0.0246744
0.0057228
0.00354811
-0.0246836
0.0243196
0.00897835
0.0078337
0.0109933
0.0150201
-0.0155968
0.0262769
0.0257521
0.0165477
-0.0168717
0.0275849
0.0271369
0.0171637
-0.0174248
0.028422
0.0277818
0.0176382
-0.0180506
0.0296421
0.0288201
0.0185906
-0.0185808
0.0304376
0.030199
0.0323496
-0.0329178
-0.0148583
0.0322707
-0.0177669
0.0193306
-0.0196487
0.0318413
0.031434
0.0336795
-0.0342821
-0.00858188
-0.0119034
0.0344608
-0.0346429
-0.00235149
-0.00545451
0.0348083
-0.0349543
0.00400589
0.000833721
0.0350706
-0.0351566
0.00991935
0.00695914
0.0352067
-0.0352212
0.0148873
0.0123947
0.0352005
-0.0351463
0.0185039
0.0166812
0.0350638
-0.0349576
0.0205734
0.0195034
0.0348369
-0.0347055
0.0212542
0.0208246
0.0345706
-0.0344303
0.0210842
0.0210013
0.0342854
-0.0341284
0.0207266
0.0206737
0.0339569
-0.033762
0.0205909
0.0204119
0.0335423
-0.033289
0.0206851
0.0204177
0.033001
-0.0326666
0.0207799
0.0205522
0.0322844
-0.0318407
0.0205855
0.0205474
0.0313385
-0.030768
0.019762
0.020096
0.0301427
-0.0294625
0.0179198
0.0188281
0.0287552
-0.0280314
0.0147517
0.0163741
0.0273294
-0.0266661
0.01022
0.0125419
0.0260783
-0.0255794
0.00464216
0.00746898
0.0251936
-0.0249293
-0.00137785
0.0016266
0.0248047
-0.0248272
-0.00706664
-0.00428959
0.0250046
-0.0253452
-0.0115823
-0.00946027
0.0255359
-0.0259021
-0.0142939
-0.0130982
0.0265801
-0.0278225
-0.0149557
-0.0148715
0.0277409
-0.0283252
-0.0158556
-0.0152871
-0.0156313
0.0167206
-0.0297887
0.0292699
-0.0297646
-0.0151366
-0.0149413
0.0226091
-0.0225604
-0.0301462
-0.0300244
0.0221377
-0.0287442
0.0172297
-0.0159713
0.0163642
-0.0301816
-0.0305853
-0.0151507
-0.0195742
-0.0289349
0.0191271
-0.029141
-0.0206501
-0.0294427
0.0192365
-0.0292859
0.014971
-0.0156068
0.026156
0.0142721
0.0260774
-0.0214865
-0.0296243
0.0188284
-0.0290043
-0.0216985
-0.0303797
0.0178931
-0.0291657
-0.021661
-0.0304923
0.0318509
-0.0192289
-0.0212036
-0.0304327
0.0216119
-0.0205922
-0.0307576
-0.0298817
0.0175017
-0.0161735
0.016823
-0.0308311
-0.0154936
-0.0312652
0.0202307
-0.0205942
-0.0300692
-0.0292004
0.0300146
0.0207977
0.0248684
-0.0242341
0.0114815
0.025551
0.0129073
-0.0300521
0.0210824
-0.0295283
-0.0305946
0.0320046
0.0206257
0.0215577
-0.0328726
0.03332
0.0192705
0.0205602
-0.0341653
0.0348061
0.0165364
0.0181608
-0.0354983
0.0362271
0.0117876
0.0143173
-0.0369599
0.0376819
0.00541108
0.00870744
-0.0383652
0.0389956
-0.00182711
0.00182871
-0.0395431
0.0399898
-0.00891916
-0.005431
-0.0403063
0.0404777
-0.0147442
-0.0119789
-0.0404927
0.0403541
-0.0185221
-0.0168006
-0.0400785
0.0396852
-0.0202232
-0.0194745
-0.0392067
0.0386634
-0.0204225
-0.0203236
-0.0380865
0.0374862
-0.0198261
-0.0200425
-0.036884
0.0362787
-0.0189477
-0.0192588
-0.0356827
0.0350872
-0.0180573
-0.018356
-0.0345002
0.0339096
-0.0172516
-0.0175063
-0.0333205
0.0327166
-0.0165366
-0.0167483
-0.0320988
0.0314472
-0.0159532
-0.0160897
-0.0307677
0.030051
-0.0155542
-0.0156026
-0.0293215
0.0285861
-0.0150868
-0.0152297
-0.0278811
0.0272151
-0.0139286
-0.0145045
-0.0266175
0.0260885
-0.0115703
-0.012794
-0.025645
0.0252826
-0.00800091
-0.00982602
-0.025011
0.0248266
-0.00359751
-0.00581746
-0.0247351
0.0247329
0.0011471
-0.00122657
-0.0248181
0.0247812
0.00575964
0.00346292
-0.0248131
0.0245939
0.00919763
0.00780182
0.0113531
0.0166768
-0.0173328
0.026933
0.0268221
0.0177041
-0.0180499
0.0279307
0.0275082
0.0183654
-0.0186454
0.028702
0.0280973
0.0188746
-0.0190505
0.029818
0.0290493
0.0191732
-0.0196874
0.0309518
0.0303217
0.0196895
-0.0199604
0.0321122
0.0314361
-0.0309933
0.03094
-0.0154402
-0.0164048
0.0165367
-0.0313972
-0.0316035
-0.0157946
-0.0206026
0.0324931
0.0338693
-0.0344682
-0.0142593
-0.0331956
0.0329647
-0.018998
-0.0170932
0.0352798
-0.0354855
-0.00837613
-0.0110919
0.0356826
-0.035864
-0.00217014
-0.00525739
0.0360173
-0.0361393
0.00412784
0.000987065
0.0362213
-0.0362626
0.00996058
0.00704118
0.0362597
-0.0362131
0.0148407
0.0123919
0.0361254
-0.035998
0.0183766
0.0165935
0.0358398
-0.0356551
0.0203887
0.0193451
0.0354565
-0.0352477
0.0210454
0.020626
0.0350386
-0.034827
0.0208726
0.0207923
0.0346157
-0.0343957
0.0205066
0.0204623
0.0341653
-0.0339133
0.020339
0.0201815
0.0336386
-0.03333
0.0203765
0.020143
0.0329872
-0.0325972
0.0203898
0.0202094
0.0321602
-0.0316622
0.0200875
0.0201103
0.0311084
-0.0304895
0.0191431
0.0195422
0.0298216
-0.0291055
0.0172036
0.0181603
0.0283707
-0.0276284
0.0140094
0.0156394
0.0269166
-0.0262508
0.00955419
0.0118301
0.0256662
-0.0251757
0.00415165
0.00688439
0.0248049
-0.024564
-0.00161871
0.00125579
0.0244703
-0.0245338
-0.00700305
-0.00438336
0.0247616
-0.0251587
-0.0111852
-0.00923246
0.025711
-0.026404
-0.0136009
-0.0125458
0.0271896
-0.0276937
-0.0144516
-0.0140859
0.0284722
-0.0296205
-0.0147073
-0.0145085
0.0301497
-0.0305904
-0.014696
-0.0144121
-0.0148011
-0.0199493
-0.0296358
0.0196373
-0.0295417
0.013661
0.026162
-0.0207554
-0.0301737
0.019341
-0.0297985
-0.0211332
-0.0301896
0.0187739
-0.0298852
-0.0209211
-0.0311197
0.0178731
-0.0298091
-0.020583
-0.0305015
-0.0208601
-0.0304916
-0.0203934
-0.0298255
0.0201667
-0.0199882
-0.0304744
-0.0308658
0.0178071
0.017283
-0.0315774
0.0167722
-0.0164577
-0.031918
0.0172038
-0.0318288
-0.0205468
0.0329089
0.0195941
-0.0199042
-0.0295154
-0.0292122
0.0281498
0.0212291
0.0340737
-0.0346844
-0.0183873
0.0338113
-0.0202843
-0.0292883
0.0196701
-0.0298403
-0.0296593
0.0302093
0.0202477
0.019573
-0.0319257
0.0324952
0.0200563
0.0198413
-0.0335191
0.0340708
0.0187187
0.0195363
-0.0348682
0.0356178
0.0157867
0.0173634
-0.0364069
0.0372207
0.0109737
0.0135282
-0.0380256
0.0388069
0.00462981
0.00790253
-0.0395327
0.040188
-0.00248247
0.00110294
-0.0407388
0.0411646
-0.0093449
-0.00598177
-0.0414355
0.0415382
-0.0148469
-0.0122499
-0.0414672
0.041231
-0.0182859
-0.0167296
-0.0408547
0.0403624
-0.0197309
-0.0190982
-0.0397927
0.0391667
-0.0197965
-0.0197538
-0.0385178
0.0378545
-0.0191628
-0.0193937
-0.0371983
0.0365457
-0.0182951
-0.0186027
-0.0359089
0.0352771
-0.0174255
-0.0177191
-0.0346579
0.0340383
-0.016632
-0.0168872
-0.0334239
0.0327982
-0.0159109
-0.0161339
-0.0321625
0.0314963
-0.0152869
-0.015454
-0.0308041
0.0300744
-0.0148245
-0.0149104
-0.0293304
0.0285785
-0.0143349
-0.0144858
-0.0278564
0.027175
-0.0132471
-0.0137825
-0.026566
0.0260312
-0.0110355
-0.012185
-0.0255884
0.0252325
-0.00764505
-0.00938315
-0.0249723
0.024803
-0.00342825
-0.00555723
-0.0247286
0.0247457
0.00113003
-0.00115212
-0.0248534
0.0250433
0.00556975
0.00335517
-0.0253028
0.0249982
0.00950213
0.00754236
-0.0252731
0.0252301
0.0115245
0.0110782
-0.0254519