/*--------------------------------*- C++ -*----------------------------------*\
  =========                 |
  \\      /  F ield         | OpenFOAM: The Open Source CFD Toolbox
   \\    /   O peration     | Website:  https://openfoam.org
    \\  /    A nd           | Version:  10
     \\/     M anipulation  |
\*---------------------------------------------------------------------------*/
FoamFile
{
    format      ascii;
    class       volVectorField;
    location    "24.5";
    object      U;
}
// * * * * * * * * * * * * * * * * * * * * * * * * * * * * * * * * * * * * * //

dimensions      [0 1 -1 0 0 0 0];

internalField   nonuniform List<vector> 
28942
(
(-0.609505 0.221022 -4.99792e-19)
(-0.64535 0.141973 -1.06983e-19)
(1.73884 -1.22405 2.0624e-19)
(2.53019 0.0491988 -7.5096e-19)
(2.49215 0.0785758 2.49719e-19)
(1.14226 0.0585046 0)
(1.33433 0.0821248 -2.61612e-21)
(1.49152 0.0519693 2.94468e-21)
(2.87493 -0.243725 -3.40987e-20)
(2.8541 -0.224776 1.00079e-19)
(-0.566296 0.340314 -1.00186e-18)
(-0.144197 -0.143045 4.49526e-19)
(-0.157786 0.113898 0)
(-0.246248 0.263848 0)
(2.51609 -0.119864 7.64387e-22)
(2.54834 -0.119898 6.36042e-23)
(2.36478 0.351156 1.65826e-19)
(2.33112 0.310087 2.6517e-19)
(0.978811 -1.50011 7.5362e-19)
(1.55209 -1.61946 -2.18304e-19)
(2.5774 0.673277 1.9924e-19)
(2.59135 0.648744 0)
(0.130424 0.426639 9.04768e-19)
(-0.253513 0.068568 4.78141e-19)
(2.56728 -0.6872 9.79199e-19)
(3.24809 -0.855424 -8.86109e-19)
(0.692861 -1.05004 2.85052e-18)
(0.701628 -0.819075 -1.11844e-18)
(2.01134 -1.42824 6.40637e-20)
(1.51454 -1.01309 2.04465e-20)
(1.13726 -0.0457577 0)
(1.54914 -0.0792041 8.12838e-21)
(1.91957 -0.124869 2.17016e-20)
(2.25482 -0.107156 8.63647e-21)
(1.55403 2.1733 -2.41036e-19)
(1.12286 2.34325 3.53668e-19)
(1.7527 2.13458 -5.3099e-19)
(1.37441 2.17366 -2.37285e-19)
(0.521616 0.054831 3.15912e-21)
(0.630304 2.16916 -8.16655e-20)
(2.03858 -0.0241041 0)
(2.35999 -0.0744968 0)
(2.12551 0.505696 -1.02668e-20)
(2.09931 0.56539 2.93573e-20)
(2.23167 0.492835 2.62796e-20)
(1.91349 0.0666403 -1.35079e-21)
(1.87745 0.0842483 2.52951e-21)
(2.28418 0.0784559 4.14835e-21)
(2.22641 0.0793046 -1.07667e-21)
(1.98333 0.0776733 7.77888e-21)
(1.83153 0.0917812 -4.47287e-21)
(2.756 -0.0462734 -9.41171e-20)
(2.74947 -0.0543367 -8.08405e-20)
(2.87435 -0.270306 -1.32067e-21)
(2.84953 -0.249853 1.88751e-20)
(3.39189 -0.271026 7.64174e-19)
(3.70469 -0.404722 3.80372e-19)
(0.0527374 0.193584 -5.67798e-19)
(-0.116619 0.14399 0)
(-0.135869 0.28759 2.08671e-19)
(-0.0281356 0.213231 5.0043e-19)
(0.065873 0.0894656 -3.88215e-19)
(0.0976324 0.109247 -3.99911e-19)
(3.12039 -1.12256 0)
(3.58234 -0.962368 1.02305e-19)
(3.14641 -0.813879 -4.19882e-20)
(3.06129 -0.794313 0)
(2.28999 -0.390465 -1.67177e-19)
(2.34924 -0.430466 -1.09653e-19)
(-0.312069 0.163665 1.63625e-18)
(-0.421427 0.238035 -5.1384e-19)
(-0.5814 0.356598 1.28017e-18)
(2.31269 -0.52644 0)
(2.29729 -0.471751 5.84395e-19)
(2.1467 -0.766025 1.58196e-19)
(4.03148 0.648665 4.44365e-19)
(4.13084 0.47988 -4.94069e-19)
(3.92099 0.336047 -3.08734e-19)
(0.589667 -0.31772 8.99518e-21)
(0.888854 -0.52048 -2.33113e-19)
(2.61704 -1.58152 -3.01433e-20)
(2.4222 -1.55581 1.00298e-19)
(-0.540421 0.19544 2.50631e-18)
(-0.670223 0.202082 -9.69936e-19)
(3.54757 1.55498 -7.45447e-20)
(2.98272 1.27506 5.9669e-20)
(3.00502 1.85606 -9.64492e-20)
(2.92325 1.9795 3.99795e-19)
(2.89313 2.01278 -2.68975e-19)
(2.47363 1.78796 3.77627e-20)
(2.51331 1.96186 7.89493e-20)
(2.54555 2.07462 -8.0513e-20)
(-0.889164 1.77989 -1.37546e-19)
(-0.69548 1.27715 -3.24399e-20)
(-0.190882 1.05632 6.507e-20)
(0.171799 1.32549 -9.57333e-19)
(-0.0915083 1.82828 1.21277e-18)
(1.24847 1.45754 5.1973e-19)
(1.50656 1.71235 -1.58391e-19)
(-0.632876 -0.126726 0)
(2.5161 -0.00106629 0)
(2.43009 0.078025 -5.14546e-19)
(2.40074 0.177231 4.29226e-19)
(2.60769 0.149278 0)
(3.32386 -0.349643 0)
(3.30893 -0.379379 0)
(3.36622 -0.390341 3.62528e-19)
(2.76552 0.394452 -2.91346e-20)
(2.75804 0.430585 3.08146e-19)
(2.74078 0.378896 1.66917e-19)
(0.0891073 0.207346 1.12907e-18)
(0.112289 0.286384 -1.26972e-18)
(-0.348566 0.22881 -8.90446e-19)
(-0.311175 -0.0987152 8.17965e-19)
(-0.682566 -0.0632876 1.745e-18)
(0.613798 1.01505 4.54592e-19)
(1.07993 0.8411 1.12598e-18)
(0.930152 1.61891 1.09326e-19)
(0.452325 1.54282 -2.55425e-18)
(3.61763 1.23582 -4.32121e-21)
(3.1814 1.22828 5.44641e-21)
(3.11473 1.09953 -1.82357e-20)
(2.297 -1.6739 1.14252e-19)
(1.70888 -1.22809 -6.52774e-20)
(0.697454 0.307216 -1.46821e-18)
(0.657693 0.110533 0)
(1.07471 0.225904 8.06512e-19)
(1.5594 -1.17393 1.22383e-19)
(1.91909 -1.52856 -3.09901e-19)
(2.20497 0.0735832 -3.11383e-21)
(2.27915 0.0716825 -1.26833e-21)
(2.06683 0.0665448 -1.18246e-24)
(1.21724 -1.54372 0)
(1.31133 -1.06169 0)
(2.5722 -0.165653 -7.68628e-20)
(2.52932 -0.156162 4.39991e-19)
(2.53199 -0.045688 0)
(2.01745 -1.56052 0)
(2.02952 -1.28435 -2.16378e-19)
(2.50269 2.18654 2.61283e-19)
(0.411835 0.806896 7.58209e-19)
(0.395797 0.543254 -5.69747e-19)
(1.72989 -1.50761 -1.55557e-19)
(2.32482 0.387277 1.52323e-19)
(2.34859 0.445605 -2.85617e-20)
(3.46757 -0.224862 -8.51905e-20)
(3.46333 -0.13755 1.14591e-19)
(3.41957 -0.135432 3.37964e-19)
(0.292383 0.46068 2.58628e-19)
(2.83523 2.13819 1.2197e-19)
(2.8598 1.86892 -5.42816e-20)
(3.38463 2.25545 1.39124e-21)
(1.69207 -0.0595789 -1.40655e-21)
(1.6868 -0.0599984 -1.77858e-20)
(1.90593 -0.0681427 -1.22757e-21)
(1.91485 -0.0864491 4.49823e-21)
(2.40241 2.04198 1.26907e-19)
(1.46953 1.86458 0)
(0.360535 1.60232 1.156e-18)
(-0.0061436 0.311213 -1.32248e-18)
(0.0250904 2.43551 9.18215e-19)
(2.50868 0.631935 -1.75757e-18)
(3.68454 0.979014 -8.77526e-19)
(2.1424 -0.0933775 1.75027e-21)
(3.56181 -1.45222 1.43238e-19)
(3.45536 -1.46455 3.50871e-19)
(2.57056 0.74711 4.59369e-19)
(2.42145 0.884031 4.06833e-20)
(2.41342 0.555222 2.81838e-19)
(2.45785 0.574981 -2.02419e-19)
(2.62078 0.745906 0)
(2.72006 -0.0719776 1.11927e-20)
(2.72045 -0.0865651 2.06576e-20)
(2.78046 -0.167287 -4.8539e-20)
(2.7953 -0.176318 8.4829e-20)
(2.78259 0.344851 3.18369e-20)
(2.8203 0.358972 -8.61896e-20)
(2.79144 0.376972 0)
(2.7568 0.356972 2.13777e-20)
(2.79559 0.417155 0)
(2.83051 0.557013 -7.28534e-20)
(2.82621 0.6301 -4.39213e-20)
(2.80271 0.717858 -8.44253e-20)
(2.82079 0.691882 0)
(2.90313 0.693869 2.2846e-19)
(2.85542 0.762986 1.58367e-20)
(2.77132 0.784662 -5.46313e-20)
(2.64822 0.961025 -2.33054e-19)
(2.62841 0.804029 -4.41229e-20)
(1.94979 -0.0436886 6.31992e-19)
(2.58787 -0.438408 -2.44214e-19)
(-0.745726 0.158952 -1.25473e-18)
(2.00968 0.0703709 3.8025e-21)
(2.37036 0.0753923 0)
(0.491634 -0.237949 1.51899e-18)
(0.44483 -0.281969 6.93761e-19)
(2.26025 0.0868832 -9.78243e-22)
(2.45275 0.0912512 -8.99991e-23)
(2.45539 0.0886604 0)
(2.23864 0.0843874 -4.30419e-22)
(1.86462 -2.01018 1.02604e-19)
(1.83272 -2.04449 -5.31878e-19)
(1.92074 -2.02594 -2.01074e-19)
(0.215692 0.373465 4.81884e-19)
(0.137214 0.162106 -6.11555e-19)
(0.170547 0.224998 5.79255e-19)
(-0.121713 0.0583379 0)
(-0.094723 -0.00946428 8.41915e-19)
(-0.0476446 0.0112809 -7.19459e-19)
(-0.298269 -0.0781679 -7.8206e-19)
(-0.349084 -0.192495 -7.42029e-19)
(-0.246789 -0.164609 0)
(0.198852 1.22797 0)
(0.0944241 0.810292 0)
(0.00486846 0.502045 0)
(3.2553 -0.370814 -4.46509e-20)
(3.18895 -0.365637 0)
(3.2268 -0.389886 4.59909e-20)
(2.32191 -0.104739 1.14859e-18)
(2.35194 -0.118601 -4.2177e-19)
(2.3459 -0.0748651 0)
(2.09347 0.362586 1.38075e-20)
(2.11837 0.698609 -2.70471e-20)
(2.08213 0.00820773 9.16098e-21)
(2.14006 1.00323 0)
(2.16824 1.271 1.673e-20)
(2.2004 1.49553 0)
(2.0615 1.45313 0)
(2.22848 1.67209 -4.7694e-20)
(2.10228 1.62701 0)
(2.0183 1.23252 1.52283e-20)
(1.98226 0.968458 0)
(1.9501 0.667838 -7.92595e-21)
(1.92152 0.334222 1.30277e-20)
(1.90895 -0.0116441 -9.1474e-21)
(2.25687 1.80116 4.56636e-20)
(2.14401 1.75727 1.39742e-21)
(2.07108 -0.350933 2.67464e-22)
(1.90159 -0.362262 1.32296e-20)
(2.06906 -0.696808 -7.09349e-20)
(2.28515 1.88769 -3.825e-23)
(2.18889 1.84733 1.17332e-21)
(1.90475 -0.696214 -2.47841e-20)
(2.31151 1.93773 -3.35882e-20)
(2.33685 1.95966 3.35613e-20)
(2.23253 1.90045 -2.59315e-21)
(2.27391 1.92622 -4.4641e-21)
(2.08263 -1.00559 6.90964e-20)
(1.91787 -1.00404 1.60354e-20)
(2.35988 1.96177 0)
(2.31178 1.93285 4.40083e-21)
(2.08989 -1.28843 -7.46428e-24)
(1.94217 -1.27793 7.45702e-24)
(2.3793 1.95298 0)
(2.34468 1.92885 0)
(2.11177 -1.52307 0)
(1.97395 -1.50826 0)
(2.39457 1.93999 0)
(2.37307 1.92062 -1.9222e-21)
(2.13093 -1.71418 2.57652e-20)
(2.01254 -1.6933 6.3632e-24)
(2.40481 1.92846 -1.01205e-22)
(2.39617 1.91365 2.05427e-21)
(2.15724 -1.8564 -2.58996e-20)
(2.05529 -1.83212 0)
(2.41155 1.92126 0)
(2.41469 1.91089 0)
(2.18289 -1.95806 1.3676e-21)
(2.09959 -1.93253 -2.18283e-20)
(2.41336 1.92097 -1.33984e-20)
(2.43044 1.9143 0)
(2.21027 -2.02477 -1.05198e-21)
(2.14313 -2.00015 2.05815e-20)
(2.41185 1.92671 2.038e-20)
(2.43925 1.92499 5.99393e-21)
(2.23291 -2.06429 -2.02845e-20)
(2.18427 -2.04093 0)
(2.40848 1.93721 -6.94434e-21)
(2.45058 1.9388 -4.06027e-21)
(2.25524 -2.0833 9.0078e-21)
(2.22051 -2.06065 -1.78148e-20)
(2.39749 1.94761 3.07437e-20)
(2.45453 1.95313 -3.47797e-20)
(2.27224 -2.08818 -8.98033e-21)
(2.25326 -2.06772 -2.72099e-22)
(2.38951 1.94922 0)
(2.45846 1.95792 -1.80851e-20)
(2.28498 -2.08883 1.72627e-20)
(2.28123 -2.07337 -3.39608e-20)
(2.38036 1.93505 0)
(2.4641 1.94244 0)
(2.30066 -2.09318 8.89483e-21)
(2.30034 -2.08723 3.4413e-20)
(2.29297 -2.09594 0)
(2.30444 -2.08638 1.69931e-20)
(2.29397 -2.07981 6.41995e-21)
(2.3015 -2.09353 -1.21816e-21)
(2.27938 -1.98048 0)
(2.28877 -2.04362 2.25174e-20)
(2.26239 -1.73733 5.90529e-23)
(2.27318 -1.8811 0)
(2.24891 -1.30149 0)
(2.26039 -1.54349 0)
(2.25227 -0.685338 0)
(2.25771 -1.01363 0)
(2.27191 0.0320519 -1.94483e-20)
(2.26421 -0.331997 -4.73712e-21)
(2.3036 0.725696 1.8446e-20)
(2.28426 0.391084 1.98433e-20)
(2.32954 1.29961 -2.83152e-20)
(2.31115 1.0304 -3.97472e-20)
(2.36143 1.69957 0)
(2.34725 1.52324 0)
(2.38779 1.91635 9.11214e-23)
(2.37536 1.82958 0)
(2.4091 1.98133 0)
(2.39915 1.96401 0)
(2.42159 1.96367 0)
(2.41686 1.97809 0)
(2.41967 1.9287 0)
(2.42249 1.94534 0)
(2.40234 1.91184 0)
(2.41305 1.91692 0)
(2.3706 1.921 0)
(2.38903 1.91371 0)
(2.32981 1.93265 1.35373e-20)
(2.35044 1.9291 0)
(2.3039 1.91885 4.87433e-21)
(2.37431 1.89238 -5.45229e-21)
(2.47437 1.89698 5.40933e-21)
(2.51211 1.94259 0)
(2.55038 1.93643 2.08142e-20)
(2.53018 1.95092 9.3153e-21)
(2.47064 1.90814 -1.93509e-21)
(2.49242 1.92571 7.83077e-21)
(2.42131 1.88856 -5.48421e-23)
(2.44966 1.89471 0)
(2.35789 1.89054 0)
(2.39293 1.88739 0)
(2.27441 1.89369 0)
(2.31895 1.8942 0)
(2.1704 1.85296 0)
(2.22445 1.88251 -7.80794e-27)
(2.05657 1.70756 -8.18241e-23)
(2.11363 1.79704 0)
(1.94417 1.40815 0)
(2.00032 1.58002 0)
(1.84646 0.931084 0)
(1.89062 1.18834 0)
(1.77828 0.312576 0)
(1.80645 0.635756 8.1911e-21)
(1.75814 -0.357932 -2.39405e-21)
(1.76392 -0.0242721 9.83126e-21)
(1.79131 -0.978627 0)
(1.76826 -0.678574 8.09434e-21)
(1.87045 -1.4638 0)
(1.82593 -1.24188 0)
(1.97984 -1.77958 0)
(1.92304 -1.6425 0)
(2.09311 -1.95102 0)
(2.0373 -1.88057 0)
(2.19469 -2.02045 4.71063e-21)
(2.14555 -1.99605 0)
(2.28009 -2.04218 1.70793e-20)
(2.2392 -2.03251 4.30599e-21)
(2.31582 -2.06134 -1.73703e-20)
(2.29304 -2.08725 -3.3756e-20)
(2.28003 1.87451 -1.1249e-20)
(2.57534 1.89154 2.53036e-20)
(2.3212 -2.11527 0)
(2.3461 -2.0941 0)
(2.28013 -2.09988 0)
(2.29278 -2.11746 0)
(2.33886 -2.08394 0)
(2.29721 -2.06544 -8.04225e-21)
(2.32208 -2.07244 -8.76244e-21)
(2.36664 -2.08174 -1.31476e-20)
(2.35623 -2.09044 2.54852e-21)
(2.38351 -1.98951 -5.03129e-23)
(2.37651 -2.05102 0)
(2.39823 -1.74185 0)
(2.39278 -1.88875 0)
(2.41433 -1.29993 0)
(2.40823 -1.54521 0)
(2.44011 -0.676928 0)
(2.42936 -1.00859 0)
(2.46522 0.0456505 0)
(2.45762 -0.321388 0)
(2.48812 0.741103 7.70039e-23)
(2.47879 0.402284 -2.0403e-20)
(2.49622 1.31009 6.69831e-23)
(2.49053 1.04826 3.70811e-20)
(2.49391 1.70404 0)
(2.4961 1.52964 0)
(2.48825 1.91713 -4.61981e-23)
(2.49136 1.83225 0)
(2.47864 1.98006 0)
(2.48413 1.96376 0)
(2.46254 1.95843 0)
(2.47165 1.97526 0)
(2.43616 1.91749 0)
(2.45081 1.93728 0)
(2.39682 1.89413 0)
(2.41804 1.90231 0)
(2.34262 1.89689 0)
(2.37168 1.89253 0)
(2.2737 1.9032 -9.06254e-21)
(2.31105 1.90279 0)
(2.36871 1.80755 0)
(2.25737 1.79334 -1.38057e-20)
(2.19396 1.84399 0)
(2.23445 1.88728 -9.74861e-21)
(2.63649 1.90975 -1.84323e-20)
(2.6726 1.86726 -5.24433e-21)
(2.60183 1.80608 -4.65181e-20)
(2.48451 1.81155 0)
(2.57228 1.91159 0)
(2.60299 1.92144 2.74417e-20)
(2.50554 1.87684 -5.50656e-23)
(2.53781 1.89564 -7.88422e-21)
(2.43221 1.85368 5.48405e-23)
(2.47053 1.86277 0)
(2.34767 1.84806 0)
(2.39351 1.84899 0)
(2.24424 1.84132 0)
(2.29951 1.84673 0)
(2.11976 1.79189 0)
(2.18446 1.82524 7.80776e-27)
(1.98412 1.64388 1.54704e-22)
(2.05226 1.73353 0)
(1.85009 1.349 0)
(1.91628 1.5175 0)
(1.73696 0.886866 -3.46328e-21)
(1.78907 1.13641 0)
(1.66387 0.292364 0)
(1.6931 0.602657 3.44758e-21)
(1.64615 -0.349238 -7.80115e-21)
(1.64885 -0.0296556 -7.88542e-21)
(1.6931 -0.944215 0)
(1.66241 -0.661181 0)
(1.79222 -1.40824 0)
(1.7373 -1.1957 0)
(1.92241 -1.71635 0)
(1.85528 -1.58136 0)
(2.05727 -1.89062 0)
(1.9907 -1.81805 0)
(2.18035 -1.96581 -6.13918e-23)
(2.12069 -1.93805 0)
(2.28888 -1.99929 6.00374e-23)
(2.23673 -1.98277 0)
(2.37916 -2.06175 1.67839e-20)
(2.33645 -2.02376 -1.67744e-20)
(2.26863 -2.07023 -1.63105e-20)
(2.3712 -2.14072 0)
(2.42055 -2.11154 3.77833e-20)
(2.33089 -2.15842 0)
(2.1553 1.76436 0)
(2.71434 1.783 5.75306e-21)
(2.25993 -2.12753 -4.59232e-20)
(2.23073 -2.08935 -1.80654e-20)
(2.38916 -2.19649 -1.07793e-20)
(2.45942 -2.17062 -4.83153e-20)
(2.28638 -2.15263 0)
(2.12277 1.80809 -3.93581e-20)
(2.07054 1.7323 2.04895e-20)
(2.62636 1.67346 1.34453e-20)
(2.74946 1.652 -6.8925e-20)
(2.22544 -2.03584 -5.81275e-20)
(2.18328 -2.1172 3.48198e-20)
(2.10807 -2.07086 1.56045e-19)
(2.17511 -2.05143 3.29458e-20)
(2.31031 -2.03104 -1.57105e-20)
(2.27112 -2.02748 4.85936e-20)
(2.38235 -2.06099 1.72807e-20)
(2.34935 -2.04487 1.19539e-20)
(2.444 -2.06608 5.28284e-21)
(2.41559 -2.07165 4.69361e-21)
(2.49311 -1.97672 5.0313e-23)
(2.46979 -2.03767 0)
(2.53916 -1.72784 0)
(2.5171 -1.87532 0)
(2.58471 -1.28657 0)
(2.56246 -1.53172 0)
(2.62852 -0.664396 0)
(2.60772 -0.994442 0)
(2.659 0.054953 0)
(2.6458 -0.308835 0)
(2.66991 0.745611 0)
(2.66781 0.411114 0)
(2.65873 1.30598 -1.09663e-24)
(2.66784 1.04452 0)
(2.62777 1.69581 0)
(2.64468 1.52398 0)
(2.5902 1.90659 -4.51928e-23)
(2.60944 1.82247 0)
(2.5501 1.96783 0)
(2.57046 1.95263 0)
(2.50664 1.94156 0)
(2.52906 1.96102 0)
(2.45592 1.89454 0)
(2.48252 1.91753 0)
(2.3946 1.8646 0)
(2.42678 1.87647 0)
(2.31978 1.86023 0)
(2.35878 1.85957 0)
(2.22785 1.8616 -4.15319e-21)
(2.27578 1.8626 2.08567e-21)
(2.17652 1.84713 1.90209e-20)
(2.36587 1.67648 6.35848e-21)
(2.12263 1.64257 -2.64249e-20)
(2.23934 1.66708 1.84943e-20)
(2.49819 1.68302 0)
(2.7219 1.86138 1.50093e-20)
(2.82132 1.74064 5.20871e-20)
(2.76769 1.82008 -3.58049e-20)
(2.63113 1.86609 0)
(2.67492 1.87314 0)
(2.54091 1.83472 4.31908e-24)
(2.58335 1.85313 0)
(2.44704 1.80865 0)
(2.49331 1.82071 0)
(2.34334 1.79564 4.55884e-23)
(2.39765 1.80116 0)
(2.22225 1.77878 0)
(2.28652 1.78952 0)
(2.08099 1.72052 0)
(2.15461 1.75783 0)
(1.92764 1.5694 -7.29612e-23)
(2.00514 1.65972 0)
(1.77767 1.27976 -7.4952e-23)
(1.85103 1.44401 0)
(1.65399 0.836796 0)
(1.71121 1.07589 0)
(1.57731 0.269841 0)
(1.60773 0.564761 0)
(1.56436 -0.340188 0)
(1.5626 -0.034984 0)
(1.62173 -0.902736 0)
(1.58499 -0.634219 0)
(1.73582 -1.3456 7.71639e-23)
(1.67283 -1.14226 0)
(1.88237 -1.64659 0)
(1.80705 -1.51334 0)
(2.03362 -1.82464 0)
(1.95878 -1.74936 0)
(2.17535 -1.9061 6.64397e-24)
(2.10606 -1.87527 0)
(2.30152 -1.94635 -5.76833e-24)
(2.24086 -1.92599 0)
(2.40955 -2.01622 -5.97522e-23)
(2.35763 -1.97557 0)
(2.50959 -2.1258 3.94706e-20)
(2.45889 -2.06802 -8.20715e-21)
(2.49485 -2.23232 -1.07164e-20)
(2.56028 -2.18435 -1.88545e-20)
(2.23033 -2.16624 1.70507e-20)
(2.33526 -2.2116 2.01891e-20)
(2.02165 1.61387 -5.68817e-21)
(2.8674 1.617 -4.19648e-20)
(2.12365 -2.14928 -9.35577e-22)
(2.40205 -2.25355 0)
(2.02348 -2.10351 -2.82627e-19)
(2.61209 -2.23362 -3.91973e-20)
(2.52768 -2.28481 -5.33522e-20)
(1.89172 -1.98183 3.99432e-19)
(1.84603 -1.96034 -7.22348e-20)
(2.2726 -2.19727 0)
(2.08044 -1.99178 -3.47025e-20)
(1.98569 -1.99204 -1.97723e-20)
(2.2306 -1.97496 -3.12141e-20)
(2.16582 -1.98162 4.73535e-20)
(2.33537 -1.98669 1.58633e-20)
(2.28661 -1.97594 7.2231e-21)
(2.43082 -2.0261 -8.6665e-21)
(2.38473 -2.00604 -7.9864e-21)
(2.52104 -2.03492 0)
(2.47743 -2.03885 -2.62375e-22)
(2.60175 -1.94511 0)
(2.56224 -2.00626 0)
(2.67984 -1.69869 -5.79272e-23)
(2.64134 -1.84444 0)
(2.75327 -1.26062 0)
(2.71759 -1.5045 0)
(2.81416 -0.644039 0)
(2.78631 -0.970812 0)
(2.84858 0.0627382 0)
(2.8352 -0.294294 0)
(2.84933 0.738584 -7.37371e-23)
(2.85314 0.411872 0)
(2.81688 1.28939 -2.41948e-24)
(2.8369 1.03342 0)
(2.75982 1.67052 0)
(2.79074 1.50198 0)
(2.6916 1.87864 8.86076e-23)
(2.72624 1.79541 0)
(2.62219 1.93896 0)
(2.65689 1.92418 0)
(2.55209 1.91119 0)
(2.58741 1.93153 0)
(2.47807 1.86104 0)
(2.51585 1.88567 0)
(2.39612 1.82595 0)
(2.43843 1.84052 0)
(2.30168 1.81511 0)
(2.3508 1.81792 0)
(2.18965 1.81193 2.08001e-21)
(2.24786 1.81535 0)
(2.06283 1.75728 0)
(2.12758 1.79626 4.06828e-21)
(1.93786 1.57235 5.13532e-22)
(1.99899 1.68453 0)
(2.09517 1.47506 2.68098e-20)
(1.88307 1.41115 -1.38501e-21)
(1.98077 1.44817 -1.36114e-20)
(2.36645 1.50224 -1.09842e-20)
(2.22519 1.49357 7.51538e-21)
(2.654 1.49095 3.94574e-21)
(2.51093 1.50594 -3.84285e-21)
(2.9204 1.4434 0)
(2.79087 1.47376 2.90928e-20)
(2.92173 1.68364 1.09011e-20)
(3.03937 1.40156 2.3628e-20)
(2.98181 1.56495 -5.47006e-20)
(2.80209 1.80106 4.47513e-21)
(2.85961 1.76001 0)
(2.68698 1.81228 0)
(2.74294 1.81409 0)
(2.57605 1.7846 4.96208e-24)
(2.62829 1.80092 0)
(2.46495 1.75603 0)
(2.51824 1.76999 0)
(2.34505 1.73585 -4.55884e-23)
(2.40544 1.74573 0)
(2.20907 1.70902 0)
(2.27965 1.7251 0)
(2.05442 1.64192 0)
(2.13454 1.68333 0)
(1.88815 1.48786 0)
(1.97231 1.57875 0)
(1.72742 1.20533 1.18084e-23)
(1.80577 1.36437 0)
(1.59662 0.782244 0)
(1.65699 1.01036 0)
(1.51869 0.246903 0)
(1.54941 0.524556 0)
(1.51057 -0.327514 0)
(1.50539 -0.040533 0)
(1.57641 -0.85545 0)
(1.5349 -0.602594 0)
(1.70208 -1.27461 -7.71639e-23)
(1.63344 -1.08124 0)
(1.85915 -1.56591 0)
(1.77873 -1.43575 0)
(2.02112 -1.74426 0)
(1.94068 -1.66805 0)
(2.17802 -1.83185 5.47836e-23)
(2.10043 -1.79713 0)
(2.3235 -1.88332 -5.45858e-23)
(2.25304 -1.85725 0)
(2.45217 -1.96233 5.90744e-23)
(2.38945 -1.91754 0)
(2.57704 -2.07575 -8.21507e-21)
(2.51423 -2.01612 1.62352e-20)
(2.71307 -2.18577 9.08817e-21)
(2.64296 -2.13592 -2.13853e-20)
(2.66383 -2.25831 -7.42201e-21)
(2.78415 -2.21196 -2.6696e-20)
(2.19235 -2.20966 2.11469e-20)
(2.33345 -2.26614 0)
(2.06432 -2.17728 1.95968e-19)
(2.40909 -2.30137 0)
(1.86949 1.51912 5.1108e-21)
(1.80651 1.37265 -3.6018e-21)
(2.96467 1.2249 3.08891e-20)
(3.0955 1.18684 3.21792e-20)
(1.94883 -2.13544 1.96521e-19)
(2.55883 -2.31467 5.38581e-20)
(1.74499 -1.92997 0)
(1.86901 -1.89123 4.31015e-20)
(2.71814 -2.23716 2.44449e-20)
(2.8597 -2.18984 -4.83773e-20)
(1.79725 -1.85281 -8.05073e-20)
(2.24806 -2.24296 0)
(2.06209 -1.91343 0)
(1.96279 -1.90871 3.3945e-20)
(2.23483 -1.90904 0)
(2.1561 -1.90923 0)
(2.36527 -1.93382 0)
(2.30415 -1.9172 -7.48045e-21)
(2.48413 -1.97841 0)
(2.42603 -1.95652 0)
(2.59773 -1.98722 0)
(2.54165 -1.99147 0)
(2.70806 -1.89751 0)
(2.65298 -1.95815 0)
(2.81736 -1.65508 5.79273e-23)
(2.76335 -1.79845 0)
(2.91713 -1.22282 0)
(2.86914 -1.46319 0)
(2.99372 -0.619311 0)
(2.95951 -0.93833 0)
(3.02922 0.0691046 0)
(3.01738 -0.278847 0)
(3.01953 0.727719 4.07608e-24)
(3.02991 0.409083 0)
(2.96805 1.261 -3.596e-24)
(2.99868 1.0138 0)
(2.88472 1.63167 0)
(2.9293 1.46705 0)
(2.78844 1.8372 -2.52092e-24)
(2.83713 1.75463 0)
(2.69174 1.89775 0)
(2.73987 1.88275 0)
(2.59697 1.86967 0)
(2.6442 1.89044 0)
(2.50166 1.81702 0)
(2.54967 1.84329 0)
(2.40082 1.77724 0)
(2.45228 1.7945 0)
(2.28845 1.75909 0)
(2.34654 1.76567 0)
(2.15969 1.74848 0)
(2.22604 1.75498 0)
(2.01488 1.69317 -4.00223e-21)
(2.08887 1.73117 -4.13022e-21)
(1.94061 1.62507 9.50431e-21)
(2.07468 1.26051 1.57408e-20)
(1.83769 1.2066 0)
(1.94844 1.2403 1.37713e-20)
(2.36895 1.28435 0)
(2.2167 1.278 -1.60746e-20)
(2.67581 1.26723 -2.49777e-20)
(2.52284 1.28385 8.57372e-21)
(2.82437 1.24991 4.66698e-20)
(3.01165 1.61605 -4.53973e-21)
(3.15017 1.34317 -2.37798e-20)
(3.08818 1.49811 0)
(2.87399 1.73083 8.28223e-21)
(2.94739 1.68742 -8.3036e-21)
(2.73733 1.75033 0)
(2.80742 1.74673 0)
(2.60953 1.72653 5.46848e-24)
(2.67287 1.73992 0)
(2.48418 1.69658 0)
(2.54571 1.7111 0)
(2.35156 1.67006 0)
(2.41768 1.6834 0)
(2.20429 1.63394 0)
(2.27928 1.65478 0)
(2.04006 1.55847 0)
(2.12411 1.60365 0)
(1.86576 1.40227 -4.44098e-23)
(1.95356 1.49317 0)
(1.69903 1.12846 6.31436e-23)
(1.78011 1.28156 0)
(1.56464 0.726511 0)
(1.62637 0.942654 0)
(1.48748 0.224585 0)
(1.5175 0.484346 0)
(1.48411 -0.311212 0)
(1.47603 -0.0441451 0)
(1.5564 -0.804514 0)
(1.51148 -0.567399 0)
(1.68836 -1.20141 0)
(1.61682 -1.01699 0)
(1.85025 -1.48661 0)
(1.76749 -1.35767 0)
(2.01881 -1.66672 4.23484e-23)
(1.93454 -1.58951 0)
(2.18708 -1.75546 -4.01917e-23)
(2.10335 -1.72005 0)
(2.34584 -1.81284 4.12772e-23)
(2.26855 -1.78308 0)
(2.4895 -1.89604 0)
(2.41909 -1.85016 0)
(2.63182 -2.00665 0)
(2.55979 -1.94908 0)
(2.78902 -2.11135 -7.22219e-23)
(2.70701 -2.06433 -9.06758e-21)
(2.96436 -2.10903 7.04368e-20)
(2.87525 -2.13278 0)
(2.93995 -2.10066 4.42387e-20)
(3.06115 -2.01677 8.29712e-21)
(2.14318 -2.24856 -6.65795e-20)
(2.32414 -2.31439 0)
(1.75041 1.17603 2.39004e-20)
(3.21252 1.14338 4.53917e-20)
(1.9849 -2.18421 3.89914e-20)
(1.73016 -1.96678 1.83356e-21)
(1.83256 -2.11302 -1.06896e-19)
(2.41688 -2.32482 0)
(2.59024 -2.30225 -1.74222e-20)
(1.66191 -1.79277 8.09189e-20)
(1.58217 -1.73397 -9.8461e-20)
(1.66371 -1.8694 8.96844e-20)
(2.7772 -2.15213 5.04306e-20)
(3.02355 -1.93391 -3.88427e-20)
(3.16386 -1.84677 -2.37913e-20)
(2.21416 -2.27934 0)
(1.86071 -1.7991 -1.72916e-21)
(1.63996 -1.69809 -2.02965e-21)
(1.76694 -1.75244 -1.45952e-20)
(2.05779 -1.83399 -1.36911e-20)
(1.9587 -1.82469 1.37703e-20)
(2.24155 -1.83764 -2.30236e-23)
(2.15577 -1.8339 0)
(2.39423 -1.87028 0)
(2.32054 -1.84994 0)
(2.53771 -1.91709 0)
(2.46707 -1.89484 0)
(2.67542 -1.92482 0)
(2.60703 -1.92957 0)
(2.8134 -1.83605 -4.05138e-23)
(2.74414 -1.89585 0)
(2.95016 -1.59743 0)
(2.88279 -1.73853 0)
(3.07217 -1.17462 0)
(3.01408 -1.40918 0)
(3.16046 -0.590817 0)
(3.122 -0.898858 0)
(3.19572 0.0734027 0)
(3.18517 -0.262168 0)
(3.17618 0.707547 6.96609e-23)
(3.19274 0.40112 0)
(3.10565 1.22008 -4.57968e-24)
(3.14672 0.982205 0)
(2.99929 1.57959 0)
(3.05558 1.41931 0)
(2.87862 1.78227 -7.86523e-23)
(2.93965 1.70036 0)
(2.7577 1.84381 0)
(2.81777 1.82811 0)
(2.64098 1.8169 0)
(2.69886 1.83718 0)
(2.52646 1.76367 0)
(2.58378 1.79043 0)
(2.40889 1.72076 0)
(2.46847 1.73989 0)
(2.28142 1.69643 0)
(2.34692 1.70648 0)
(2.13765 1.67887 -4.79488e-23)
(2.21182 1.6889 0)
(1.97991 1.62311 4.01902e-21)
(2.0597 1.66029 0)
(1.8189 1.45526 -5.27376e-21)
(1.89821 1.5582 0)
(1.68431 1.13041 -4.78301e-21)
(1.74656 1.31265 5.07784e-21)
(1.80473 0.966785 -1.32722e-20)
(1.6348 0.905168 0)
(1.70794 0.936229 -1.71817e-20)
(2.06063 1.00938 0)
(1.92392 0.991454 0)
(2.37096 1.02735 0)
(2.21149 1.02422 0)
(2.69931 1.00495 0)
(2.53458 1.02307 0)
(3.00744 0.965741 -3.14834e-20)
(2.8588 0.988211 -8.89252e-21)
(3.26741 0.905044 -6.43163e-21)
(3.14417 0.937009 -5.94481e-20)
(3.24948 1.27964 -2.47504e-20)
(3.37503 0.866511 -4.9118e-21)
(3.31314 1.09147 1.05639e-20)
(3.09702 1.53582 -4.55879e-21)
(3.17521 1.42691 2.94373e-20)
(2.93914 1.65235 7.12594e-24)
(3.022 1.60702 0)
(2.78484 1.67849 0)
(2.86366 1.67323 0)
(2.64203 1.65958 5.80643e-24)
(2.71445 1.67138 0)
(2.50444 1.62991 0)
(2.57393 1.64488 0)
(2.36202 1.59865 0)
(2.43393 1.61485 0)
(2.20699 1.55463 0)
(2.28563 1.57957 0)
(2.03709 1.47189 0)
(2.12327 1.52024 0)
(1.85919 1.31458 7.96337e-23)
(1.9482 1.40489 0)
(1.69076 1.05065 0)
(1.77235 1.19723 0)
(1.55657 0.67148 0)
(1.61779 0.874633 0)
(1.48219 0.20414 0)
(1.51059 0.445543 0)
(1.4826 -0.292288 0)
(1.47252 -0.044963 0)
(1.55888 -0.751039 4.64694e-23)
(1.51216 -0.529957 0)
(1.69245 -1.12559 0)
(1.62034 -0.950487 0)
(1.85534 -1.40111 0)
(1.77195 -1.27572 0)
(2.02797 -1.57764 -4.23483e-23)
(1.94104 -1.50178 0)
(2.20406 -1.66821 7.47689e-24)
(2.11614 -1.63091 0)
(2.37403 -1.73286 -7.54666e-23)
(2.29041 -1.69926 0)
(2.53614 -1.82085 0)
(2.45559 -1.77338 0)
(2.70057 -1.93006 0)
(2.61741 -1.8736 0)
(2.87801 -2.03487 9.11101e-24)
(2.78722 -1.98651 0)
(3.07536 -2.04041 0)
(2.97473 -2.05944 0)
(3.29114 -1.78747 4.63196e-20)
(3.18026 -1.95559 0)
(3.26315 -1.60647 8.20977e-21)
(3.39977 -1.5439 -8.83176e-20)
(2.09371 -2.27334 0)
(1.54029 -1.62685 -1.18387e-19)
(1.91536 -2.1584 -2.75828e-20)
(1.63528 1.08239 4.77529e-21)
(1.58024 0.87615 0)
(3.31292 0.634459 -5.99107e-21)
(3.42 0.607237 1.33177e-20)
(2.31308 -2.34308 0)
(2.42253 -2.30703 0)
(1.73876 -2.0486 0)
(2.62717 -2.22616 1.71565e-20)
(2.84253 -1.99232 3.84505e-20)
(3.1101 -1.69157 0)
(3.36021 -1.30561 -1.04053e-19)
(3.50161 -1.24474 7.27922e-20)
(2.17447 -2.29555 0)
(1.64708 -1.58606 6.66368e-24)
(1.42441 -1.49433 -3.51942e-20)
(1.41894 -1.36934 1.16128e-19)
(1.53895 -1.50007 -3.32642e-20)
(1.86662 -1.69227 7.1126e-21)
(1.7637 -1.64386 1.45287e-20)
(2.06662 -1.7427 0)
(1.96806 -1.72482 0)
(2.25505 -1.75705 2.30073e-23)
(2.16523 -1.7493 0)
(2.42184 -1.79402 0)
(2.3398 -1.77192 0)
(2.5862 -1.84183 0)
(2.50422 -1.81939 0)
(2.74896 -1.84931 0)
(2.6678 -1.85412 0)
(2.91265 -1.76157 4.05138e-23)
(2.83069 -1.82064 0)
(3.07251 -1.52727 0)
(2.99411 -1.66548 0)
(3.21172 -1.11828 0)
(3.14604 -1.34446 0)
(3.30804 -0.559433 0)
(3.26683 -0.854062 0)
(3.34293 0.0751369 0)
(3.33361 -0.245442 0)
(3.31387 0.681222 -5.83365e-23)
(3.33629 0.38836 0)
(3.22709 1.17112 -5.31659e-24)
(3.27685 0.943679 0)
(3.10114 1.5172 0)
(3.16752 1.36226 0)
(2.95947 1.71637 3.60326e-24)
(3.03104 1.63522 0)
(2.81799 1.77936 0)
(2.8882 1.76263 0)
(2.68221 1.75482 0)
(2.74937 1.77401 0)
(2.55102 1.70223 0)
(2.61634 1.72905 0)
(2.41908 1.65668 0)
(2.4856 1.67761 0)
(2.27906 1.62584 0)
(2.35059 1.6395 0)
(2.12393 1.59978 8.91486e-23)
(2.2036 1.61354 0)
(1.9553 1.54155 4.76943e-23)
(2.04058 1.57842 0)
(1.78455 1.38585 -7.96037e-21)
(1.86937 1.47969 7.49262e-21)
(1.70551 1.2534 -7.56012e-21)
(1.78408 0.693719 -3.54812e-21)
(1.59707 0.653632 -6.85236e-22)
(1.68119 0.672857 1.01204e-20)
(2.05204 0.726454 0)
(1.90851 0.712758 0)
(2.37431 0.734205 1.49196e-25)
(2.2082 0.734596 0)
(2.72011 0.712946 0)
(2.54672 0.728773 0)
(3.04211 0.677355 -1.71489e-20)
(2.8859 0.69713 1.79976e-20)
(3.18643 0.656811 -6.2872e-22)
(3.33082 1.20676 6.49966e-22)
(3.46235 0.820117 1.12911e-20)
(3.39893 1.0292 -1.41737e-21)
(3.16947 1.44918 4.04563e-21)
(3.25115 1.34429 -4.05083e-21)
(2.99579 1.56898 5.17794e-23)
(3.08362 1.52126 0)
(2.82889 1.60016 3.5185e-23)
(2.91291 1.59207 0)
(2.67402 1.58603 5.92608e-24)
(2.75228 1.59598 0)
(2.52627 1.55732 0)
(2.60146 1.57248 0)
(2.37624 1.52261 0)
(2.45278 1.54112 0)
(2.21624 1.47221 0)
(2.29771 1.50057 0)
(2.04406 1.38368 0)
(2.13115 1.43452 0)
(1.8664 1.2265 -3.52239e-23)
(1.95486 1.31562 0)
(1.70017 0.973524 -3.0576e-23)
(1.78033 1.11301 0)
(1.56959 0.61827 0)
(1.62876 0.807845 0)
(1.49922 0.185829 0)
(1.52565 0.408779 0)
(1.50305 -0.271844 0)
(1.4915 -0.0435968 0)
(1.58005 -0.697401 -4.64694e-23)
(1.53336 -0.491729 0)
(1.71103 -1.05141 3.17373e-23)
(1.64052 -0.884765 0)
(1.87041 -1.31931 0)
(1.78865 -1.19648 0)
(2.04321 -1.49313 0)
(1.95543 -1.4185 0)
(2.22414 -1.5831 7.31573e-24)
(2.1335 -1.54557 0)
(2.39973 -1.64989 6.13045e-23)
(2.31324 -1.6153 0)
(2.57108 -1.73572 0)
(2.48501 -1.69008 0)
(2.75262 -1.83694 0)
(2.66002 -1.78524 0)
(2.95148 -1.92803 9.59683e-24)
(2.84965 -1.88719 0)
(3.16829 -1.92493 0)
(3.05798 -1.94629 0)
(3.39346 -1.6936 -2.82806e-20)
(3.28046 -1.84581 0)
(3.61151 -1.17867 -3.15066e-20)
(3.50361 -1.46672 6.15352e-20)
(1.5345 -1.68841 1.87786e-19)
(1.45686 -1.57974 1.26034e-19)
(3.59337 -0.905447 3.82442e-20)
(3.7053 -0.856017 -3.82402e-20)
(2.03501 -2.26782 0)
(1.53883 0.637076 -8.49331e-21)
(3.50928 0.577291 4.71336e-20)
(1.32336 -1.21481 -1.98542e-20)
(2.29898 -2.33369 0)
(1.33607 -1.33913 -9.37808e-21)
(1.82813 -2.07702 0)
(2.43545 -2.22749 0)
(1.68997 -1.96559 0)
(2.67007 -2.07119 0)
(2.91302 -1.75476 0)
(3.1872 -1.38991 1.01375e-20)
(3.44155 -0.965397 3.50524e-20)
(3.66398 -0.5418 0)
(3.78354 -0.506356 7.57923e-20)
(2.13638 -2.27552 0)
(1.43812 -1.24099 -4.4426e-20)
(1.23936 -0.998984 -1.05856e-19)
(1.27393 -0.879566 -4.49037e-20)
(1.34761 -1.07896 4.961e-20)
(1.66756 -1.46204 -2.78689e-21)
(1.55644 -1.36819 1.35407e-20)
(1.88317 -1.57693 -5.30638e-21)
(1.77692 -1.52767 5.10153e-24)
(2.08659 -1.63839 -1.49514e-23)
(1.98761 -1.61325 0)
(2.27704 -1.66642 -1.5266e-23)
(2.1848 -1.65335 0)
(2.45184 -1.70587 0)
(2.36526 -1.68349 0)
(2.6293 -1.75234 0)
(2.53976 -1.73062 0)
(2.81236 -1.75945 0)
(2.72043 -1.76418 0)
(2.9981 -1.67375 0)
(2.90529 -1.73144 0)
(3.177 -1.44669 0)
(3.08962 -1.58024 0)
(3.32936 -1.0561 0)
(3.25798 -1.27151 0)
(3.43158 -0.526191 0)
(3.38826 -0.805367 0)
(3.46638 0.0752196 0)
(3.45801 -0.228713 0)
(3.42965 0.64919 6.65652e-24)
(3.45679 0.372091 0)
(3.32913 1.11254 -5.11392e-23)
(3.38634 0.897167 0)
(3.18699 1.44463 0)
(3.26152 1.29495 0)
(3.02928 1.64087 6.43968e-23)
(3.10884 1.56023 0)
(2.87166 1.7059 0)
(2.94995 1.6878 0)
(2.72037 1.68463 0)
(2.7951 1.7022 0)
(2.57551 1.63373 0)
(2.64741 1.66002 0)
(2.43188 1.58676 0)
(2.50401 1.60882 0)
(2.28204 1.55087 0)
(2.35831 1.56768 0)
(2.11843 1.51797 -4.11998e-23)
(2.20234 1.53535 0)
(1.94153 1.45638 -8.04939e-24)
(2.03129 1.49402 0)
(1.76571 1.31062 -3.62868e-21)
(1.85247 1.39796 0)
(1.60796 1.02943 0)
(1.68267 1.18796 9.26898e-21)
(1.5048 0.612327 9.17716e-21)
(1.54899 0.837689 0)
(1.57678 0.384185 1.13004e-20)
(1.47601 0.363713 0)
(1.51447 0.371859 -1.11232e-20)
(1.77257 0.401943 0)
(1.66452 0.390844 1.41294e-20)
(2.04775 0.416322 0)
(1.90146 0.41068 0)
(2.38057 0.414366 3.17928e-27)
(2.20858 0.417243 0)