/*--------------------------------*- C++ -*----------------------------------*\
  =========                 |
  \\      /  F ield         | OpenFOAM: The Open Source CFD Toolbox
   \\    /   O peration     | Website:  https://openfoam.org
    \\  /    A nd           | Version:  10
     \\/     M anipulation  |
\*---------------------------------------------------------------------------*/
FoamFile
{
    format      ascii;
    class       surfaceScalarField;
    location    "19";
    object      phi;
}
// * * * * * * * * * * * * * * * * * * * * * * * * * * * * * * * * * * * * * //

dimensions      [0 3 -1 0 0 0 0];

internalField   nonuniform List<scalar> 
29080
(
0.0907119
-0.145246
-0.0152971
0.0698313
0.0509667
0.0397452
0.0103631
0.0253348
-0.0227816
-0.0129163
0.0366729
0.00514758
-0.0314574
0.0335735
-0.00149797
0.00459745
0.0315113
-0.0585152
0.0476368
-0.020633
-0.0485299
0.0291236
0.0509176
0.0292271
0.0042652
-0.0401933
0.00670105
-0.0273079
0.0613832
-0.00484825
0.0105308
-0.103354
-0.0159652
0.0608042
-0.0838202
0.0553203
0.0822621
0.0662969
-0.0163565
-0.107381
0.0377481
0.0651997
0.00443265
0.000800034
0.0323952
-0.0110445
-0.0194338
0.0500225
0.0264977
0.053532
-0.0882883
0.00825864
0.0200152
0.0748216
0.0204104
0.0635881
-0.00406362
0.00242856
-0.00192959
-0.00756857
0.00706961
-0.0129793
-0.0210621
0.03647
-0.00733458
-0.00535175
-0.000292977
-0.00848604
-0.000778131
-0.00620231
-0.0098523
-0.0695181
0.00638319
0.00378161
0.0593533
-0.032643
-0.0486538
0.0117788
0.0428751
-0.0392878
-0.0362303
0.00535962
-0.00183671
-0.00194847
-0.00157444
0.00395668
0.00140293
-0.0041646
0.00812129
0.00242817
-0.00842948
-0.000783722
0.00126342
-0.0217444
-0.00250184
0.0181466
0.00609971
0.00131464
-0.0170731
-0.00598598
0.0216555
0.0012206
-0.0215615
0.013845
0.0053087
0.0146173
0.0173743
-0.039217
0.0117994
0.0327284
-0.00531075
0.0246878
-0.0481256
-0.0157792
0.0213411
0.0117748
-0.00842814
0.0232004
0.00994006
0.0227711
0.0331576
0.0642504
0.00319541
-0.0335891
-0.0338567
-0.00164992
0.0585324
0.0073679
-0.0319389
0.0340225
-0.00373353
-0.0258547
-0.00288875
-0.0578237
-0.00672283
0.0172179
0.0473287
-0.0661691
0.0147286
-0.04462
0.021326
0.0788907
0.026683
-0.0407258
-0.0648478
-0.0268822
0.0229009
0.082872
0.0669025
-0.101506
0.0653689
-0.0307656
-0.0377752
0.0536146
0.0510631
-0.00416083
0.00161775
7.06154e-05
0.00247246
0.00958807
-0.0044465
-0.00930239
-0.00713927
0.00636114
-0.0133416
-0.0629584
-0.0405536
0.0085856
0.0949264
-0.0294815
0.0256437
-0.0591206
0.056339
-0.059942
-0.0258784
0.0557313
-0.0399459
0.0721483
-0.00783148
0.0840104
-0.0393595
-0.0446508
-0.0588034
0.0480827
0.0947311
-0.0279596
-0.0301759
0.0188476
-0.00450652
0.0180081
-0.0414611
0.0120958
-0.0467782
0.00960757
0.00216728
0.0195476
0.00885804
0.0337827
-0.00861826
-0.0232988
0.0339565
0.0121232
-0.0227809
-0.065065
0.00229084
0.0394754
0.00232545
0.0225436
-0.0407658
0.0205586
-0.042635
0.00404051
-0.0238274
0.0250956
-0.0312768
0.000185706
0.0351316
-0.0244544
0.00184764
0.0393455
-0.038325
-0.00194913
0.000928645
-0.000930125
-0.00105024
0.0413258
-0.00675372
0.00694546
0.00321968
-0.00341143
-0.0054105
-0.00433921
0.00299599
-0.00314466
0.0124195
0.00031318
0.0244763
-0.00237016
-0.0252508
0.0852933
-0.00818283
-0.0960987
0.0189882
-0.00735617
0.0587777
0.0338718
0.0535351
-0.0194183
0.0214805
-0.0555974
0.0524407
0.0189924
-0.0178979
-0.0273931
-0.0418661
0.0416048
0.0276544
-0.0425957
0.043415
-0.0282124
0.0338477
0.0425817
-0.0433035
-0.033126
0.0417584
0.0327311
-0.0406418
0.0102536
0.0493163
-0.048659
-0.0109109
0.0470455
0.0087832
-0.0455751
-0.00119917
0.04921
-0.0472608
-0.000750034
0.0472834
-0.00374614
-0.0447364
0.031299
0.0902477
-0.12973
-0.0784471
0.0828639
-0.0108074
-0.0512908
0.0084668
0.0536314
-0.0485632
-0.0157618
0.0535176
0.0106618
-0.0112829
-0.0479421
0.00826132
-0.0488903
-0.0521639
0.00610576
0.0516821
-0.00562392
0.00886986
-0.052567
-0.000587585
-0.0171631
0.00177623
0.0159745
-0.00987213
0.00929201
-7.46113e-06
0.00107321
-0.0107175
-0.000227838
0.00230738
-0.0183973
-0.0166506
-0.00269974
0.00227726
0.00994734
-0.0248217
0.0199686
0.0409047
-0.0177215
-0.0431519
0.0226496
0.0575297
-0.0602106
0.00406287
0.0594914
-0.00765441
-0.0105599
0.0122283
-0.00271485
0.00435245
-0.028973
-0.0402139
0.0273208
-0.038642
-0.0329267
-0.0384699
0.0272013
-0.0273733
0.0154712
-0.0282295
-0.0257117
0.0375568
-0.042909
0.0208235
0.0245441
-0.026694
0.0212515
-0.0227871
0.0170505
-0.0248706
-0.0188738
0.0406769
-0.0396465
0.01602
0.0190194
-0.0226373
0.0115678
-0.0138011
0.00538821
-0.0201775
-0.00784797
0.0387687
-0.0381705
0.00479002
0.01069
-0.0178851
-0.00107339
-0.00121904
-0.00790478
-0.0154109
0.0054306
0.0374192
-0.0370957
-0.00822829
-0.00182468
-0.0131109
-0.0142174
0.0119174
-0.0201948
-0.0109901
0.0180741
0.0371086
-0.037481
-0.0198224
-0.0142045
-0.00940814
-0.0248839
0.0233019
-0.0288227
-0.00819229
0.0276068
0.0382072
-0.0393215
-0.0277084
-0.0241578
-0.00770907
-0.030837
0.0303538
-0.0320258
-0.00761113
0.0319279
0.0407367
-0.0423069
-0.0304556
-0.0294218
-0.008006
-0.0316975
0.0320923
-0.0316185
-0.00832661
0.0319391
0.0437567
-0.0449576
-0.0304176
-0.0302477
-0.0238432
-0.0312126
0.0467292
-0.0321067
-0.0276938
0.0359573
0.0457603
-0.0487193
-0.0291477
-0.0304099
-0.0355142
-0.0233783
0.0311986
-0.0294572
-0.0377874
0.0317303
0.0426093
-0.040084
-0.0319825
-0.0294882
-0.0399495
-0.0300475
0.0322097
-0.0315611
-0.0385793
0.0301908
0.0401287
-0.0424786
-0.0292112
-0.0300028
0.0322269
-0.0329471
-0.0404906
0.0341382
-0.0283959
0.0269458
0.0430549
-0.027415
0.0424342
0.0320468
-0.0398063
0.0427915
-0.041069
0.0252233
-0.0265987
0.0431356
0.0262546
-0.0278682
0.0443244
0.0441446
-0.0440835
-0.0282735
0.0467804
-0.0300509
0.0420376
-0.0404004
0.032501
-0.0392267
0.038207
0.0332294
0.0330017
-0.0358341
0.0340836
0.0329492
0.0341031
-0.0295797
0.0438373
0.0324716
0.0404613
-0.0428133
0.0418105
0.0330952
0.0329631
-0.0409437
0.0402523
0.0310451
0.0327947
-0.0397164
0.0393165
0.0237019
0.0281427
-0.0391309
0.0392698
0.0117785
0.0182596
-0.0399516
0.0408853
-0.00215276
0.00474881
-0.0418305
0.0428285
-0.0147991
-0.00879318
-0.0438568
0.0448214
-0.0237517
-0.0199021
-0.0455784
0.0465052
-0.0283001
-0.0264686
-0.030505
0.0298128
-0.0282982
0.0452658
0.0443787
0.038908
-0.0387298
0.0271426
0.0254934
0.0379004
-0.0394716
0.0223947
0.0237147
0.039404
-0.0382772
0.0148933
0.0189518
0.0372744
-0.036465
0.00398068
0.00968714
0.0362054
-0.0361313
-0.00830234
-0.00208433
0.0363373
-0.0368616
-0.0192981
-0.0139986
0.0377051
-0.0388633
-0.0265501
-0.0233143
0.0402556
-0.0418001
-0.0289111
-0.0280295
0.0433477
-0.0447727
-0.0289926
-0.0287002
0.0459476
-0.045013
-0.0300823
-0.029235
0.0438668
-0.0454613
-0.0303879
-0.0306345
0.0452642
-0.0426313
-0.0318441
-0.0301999
-0.0329967
0.0261676
-0.0262269
0.0443838
0.0248179
0.0444853
0.0327671
-0.0411206
-0.0328315
0.0326266
-0.040437
0.0470029
-0.0465895
-0.0287115
0.0275564
0.0460256
-0.0265792
0.0272583
0.0455639
-0.0443061
-0.0318288
0.0400659
-0.0407658
0.0332009
-0.0400919
0.0381455
0.0351758
0.0329757
-0.0390162
0.0377503
0.0342151
0.0332324
-0.0449193
0.0442134
0.0331775
0.0332923
-0.0433543
0.042531
0.0339185
0.0338223
-0.0418459
0.0413503
0.0315407
0.0334798
-0.0410668
0.0410248
0.0237439
0.0284263
-0.0412413
0.0416277
0.0113922
0.0180431
-0.0419979
0.0426677
-0.00282258
0.00437856
-0.043522
0.0444322
-0.0157093
-0.00964743
-0.0453426
0.0461657
-0.0245748
-0.0208125
-0.0468869
0.0471375
-0.0285507
-0.0271898
-0.0460556
0.0472071
-0.029425
-0.029423
-0.0294333
0.0454101
-0.0429911
0.0248799
0.0429291
0.0420674
-0.042327
0.0254829
0.0253309
0.042818
-0.0410122
0.0253368
0.0259844
0.0407203
-0.03959
0.0212644
0.0234228
0.0384225
-0.0373136
0.0137843
0.0177843
0.0363739
-0.0356928
0.00329958
0.00874747
0.0352763
-0.0352346
-0.00834402
-0.00250083
0.0355314
-0.0361682
-0.0186613
-0.0137018
0.0371496
-0.0385015
-0.0251981
-0.022333
0.0401447
-0.0419628
-0.027093
-0.0263864
0.0437101
-0.045228
-0.0274746
-0.0269528
0.0464463
-0.0471163
-0.0294124
-0.0280167
0.047301
-0.0470849
-0.030604
-0.0304498
0.0459296
-0.0435165
-0.0342572
-0.0313552
0.0448415
-0.0442934
-0.0336741
-0.0316717
-0.0285519
0.0277175
-0.0434717
0.0463715
-0.0463461
-0.0285774
-0.0297506
-0.0400907
0.032092
0.0321209
-0.0393005
0.0283769
-0.0410964
-0.0260195
0.0254132
0.0461703
-0.0244726
0.0234959
-0.042495
-0.0258041
-0.0450145
-0.0268141
0.0468202
0.0434963
-0.0427812
0.0241648
0.047473
-0.0479909
-0.0281936
0.0479003
-0.0270064
-0.0239816
0.0437049
0.023773
-0.0247092
0.0436567
-0.0320028
0.0307294
-0.0388173
-0.0410025
0.0405559
-0.0392612
0.0294346
-0.0417507
0.0420859
0.0328656
0.0308973
-0.0423359
0.043832
0.0336798
0.0327257
-0.0438373
0.0451408
0.0329116
0.033227
-0.0451777
0.0446964
0.0336588
0.0332554
-0.0440932
0.0435207
0.0344911
0.0344254
-0.043099
0.0428759
0.0317638
0.0339014
-0.0428561
0.0430152
0.0235849
0.028446
-0.0433258
0.0437821
0.0109359
0.0177325
-0.0444606
0.0451928
-0.00355475
0.00370004
-0.0460423
0.0469192
-0.0165862
-0.010497
-0.0477525
0.0484687
-0.0252911
-0.0216458
-0.0490168
0.0493601
-0.028894
-0.0277379
-0.0492079
0.0485954
-0.0288125
-0.0292708
-0.0288288
-0.0251647
0.0239685
0.04558
0.0456586
0.0437446
0.0426584
-0.043103
0.0259275
0.0252081
0.0422216
-0.0411649
0.0242802
0.025103
0.0400417
-0.0388434
0.0200661
0.0222995
0.0376641
-0.0365723
0.0126925
0.0166051
0.035668
-0.0350224
0.00265403
0.0078431
0.0347001
-0.0347223
-0.00832182
-0.00282311
0.0351091
-0.0358898
-0.0178806
-0.0133149
0.0370674
-0.0386313
-0.0236343
-0.0211554
0.0404372
-0.0423242
-0.025206
-0.0245805
0.0440671
-0.0455965
-0.0259452
-0.0252099
0.0469146
-0.0481399
-0.028187
-0.0266986
0.0493336
-0.0491786
-0.030759
-0.0292561
0.0487695
-0.0508486
-0.0321781
-0.0317643
0.0501022
-0.0505616
-0.0332148
-0.0324181
0.0494085
-0.0485581
-0.0294277
-0.0309037
0.0478245
0.0218607
-0.0470082
-0.022677
-0.0265377
0.029014
-0.0399376
0.027722
-0.0285532
-0.0379861
-0.0370069
0.0254677
0.0235082
-0.0242213
0.0443697
0.0235409
0.0436722
0.0237686
-0.0413691
0.0211651
-0.044319
0.0204581
-0.041788
-0.0173533
0.0162967
-0.0432623
-0.026018
0.0471042
-0.017316
-0.0405417
0.0216727
-0.022981
-0.0356986
0.0363167
-0.034331
0.019687
-0.0380019
0.0401613
0.0272752
0.0237826
-0.0414136
0.0429992
0.0312799
0.029645
-0.0434486
0.0446903
0.0324381
0.0322763
-0.0452462
0.045504
0.0326539
0.0326711
-0.0454905
0.0452752
0.0338741
0.0332688
-0.0449759
0.0447246
0.0347424
0.0347247
-0.0446056
0.0446519
0.0317175
0.0340204
-0.0448681
0.0452415
0.0232115
0.0282298
-0.0457513
0.0463724
0.0103147
0.0172227
-0.0470585
0.0478349
-0.00433113
0.00301391
-0.0486394
0.0494094
-0.0173561
-0.0113015
-0.050084
0.0506035
-0.0258105
-0.0223204
-0.0509393
0.0510823
-0.029037
-0.0280738
-0.0510043
0.0507813
-0.0285895
-0.0291927
-0.0496888
0.0485837
-0.0270886
-0.0277363
-0.0482662
0.0481268
-0.0258787
-0.0266889
0.0253001
-0.0248011
0.0466051
-0.0252478
0.0250598
0.0463583
0.0468726
-0.024828
0.0249065
0.0455015
0.0458903
0.0444298
-0.0432741
0.0233333
0.0434817
0.0433827
-0.0435468
0.0243289
0.0238816
0.0435282
-0.0427476
0.0251469
0.0251895
0.0418102
-0.0407258
0.0231958
0.0241656
0.0395641
-0.0383436
0.0188456
0.0211378
0.0371658
-0.036097
0.0116237
0.0154273
0.0352368
-0.034646
0.00206318
0.00698295
0.0343793
-0.0344755
-0.00822567
-0.00308977
0.0349529
-0.0358479
-0.0169856
-0.0128375
0.0371513
-0.038839
-0.0219465
-0.019852
0.0407483
-0.0427105
-0.0232437
-0.0226712
0.0444995
-0.0460652
-0.0243794
-0.0234209
0.0474458
-0.0487925
-0.0268403
-0.0253181
0.0501479
-0.0515169
-0.02939
-0.0279007
0.0528444
-0.0530814
-0.0319411
-0.0304369
0.0527354
-0.053238
-0.0327122
-0.032764
0.0519385
-0.0512776
-0.0300886
-0.0322033
0.0500064
-0.0502683
-0.0224151
-0.0278089
-0.018268
-0.0237619
0.0470876
0.0245521
-0.0407211
-0.0237431
-0.037224
0.020341
-0.041252
-0.0155758
-0.0327079
0.0139527
-0.0170473
-0.0342271
0.0155691
-0.0410605
0.0438656
-0.0440908
0.0235585
-0.0233135
0.0433063
0.0238727
-0.0233826
0.0435507
0.00814079
-0.0426199
-0.00251245
0.00128659
-0.0443492
0.048376
-0.0499575
-0.0242972
0.0481736
-0.0235595
-0.00388804
-0.0397327
0.00776783
-0.00879709
-0.0316787
0.0319466
-0.030773
0.0065942
-0.0336069
0.0356735
0.0176204
0.0122923
-0.037467
0.0392826
0.0254596
0.021989
-0.0408924
0.0423414
0.029831
0.0280351
-0.043584
0.0445844
0.0314377
0.0310337
-0.0453079
0.0457325
0.0322292
0.0319476
-0.0459198
0.0459601
0.0338338
0.0330816
-0.0459641
0.0460296
0.0346769
0.0347207
-0.0462195
0.0465578
0.0313792
0.0338304
-0.0470449
0.0476498
0.0226066
0.0277428
-0.0483396
0.0490802
0.00957409
0.0165329
-0.0498609
0.0506561
-0.00512637
0.00223327
-0.0514296
0.0521183
-0.0180448
-0.012075
-0.0526616
0.0530057
-0.0261546
-0.0228637
-0.0531306
0.0530425
-0.0289489
-0.0281987
-0.0527667
0.052343
-0.0281658
-0.028917
-0.0518332
0.0510718
-0.0263271
-0.0272265
-0.0255746
-0.0224854
0.0228612
0.0462293
0.0219891
-0.0208181
0.0470027
0.0465912
-0.0233132
0.0236541
0.0460174
0.0464207
-0.0237828
0.0240606
0.0452238
0.0457616
-0.0239461
0.0238906
0.0444252
0.0445443
0.0441803
0.0434949
-0.0440927
0.0249267
0.0232858
0.0433967
-0.0425489
0.0242992
0.0244935
0.0415699
-0.0404612
0.0220871
0.0231866
0.0392844
-0.0380672
0.0176284
0.019961
0.0369116
-0.0358779
0.01059
0.0142717
0.0350641
-0.0345223
0.00152144
0.00616911
0.0343106
-0.0344695
-0.00806677
-0.00330145
0.0350346
-0.03605
-0.0159702
-0.0122725
0.0374979
-0.0393225
-0.020122
-0.0184041
0.0413123
-0.0432763
-0.0212797
-0.0206814
0.0450214
-0.046568
-0.0228328
-0.0216759
0.0479989
-0.0494517
-0.0253875
-0.0238872
0.0509369
-0.052459
-0.027868
-0.0264154
0.0539732
-0.0554903
-0.030424
-0.0289226
0.0569503
-0.0580535
-0.031609
-0.031304
0.0586535
-0.0584477
-0.0302944
-0.0316033
0.0583204
-0.0562836
-0.0244519
-0.0279362
0.0547855
-0.0518543
-0.0138421
-0.0197661
-0.00653233
0.0193108
-0.0396909
-0.0179079
-0.0363634
0.0233626
-0.0236025
0.0437906
0.023135
0.0435339
0.0144707
-0.0401535
-0.0102553
-0.0327688
0.00874237
-0.041662
-0.000745565
-0.0303385
0.00031112
-0.00163223
-0.030792
0.00106805
-0.0424014
-0.00537536
-0.04272
0.0476772
-0.0464035
-0.0220918
0.00863596
-0.0100585
-0.0433139
-0.0452839
0.00665899
-0.0208227
0.0212094
0.046616
0.0472687
-0.0204141
-0.0383299
-0.0067086
0.00646056
-0.0300905
0.0300809
-0.0302545
-0.00653505
-0.0308222
0.0320604
0.00535603
-0.000430217
-0.0335196
0.035287
0.0158531
0.0108331
-0.0372057
0.0389427
0.0237226
0.0200703
-0.0404788
0.0420635
0.0282463
0.0264991
-0.0434599
0.0446075
0.0302901
0.0296372
-0.0454794
0.0460682
0.0316403
0.0310758
-0.0464503
0.0467278
0.0335563
0.0326995
-0.047012
0.0473837
0.0343052
0.0344365
-0.0478895
0.0485316
0.0307371
0.0333246
-0.0492925
0.050128
0.0217712
0.0269819
-0.051004
0.0518889
0.00868916
0.0156568
-0.0527634
0.0535956
-0.00595853
0.00135876
-0.0543372
0.054918
-0.0186257
-0.0128166
-0.0552827
0.055398
-0.0262699
-0.0232284
-0.0552674
0.0549234
-0.0286049
-0.0280681
-0.0544119
0.0537839
-0.0275377
-0.0284055
-0.0529936
0.0518992
-0.0252327
-0.0264363
-0.0505635
0.0496745
-0.0234082
-0.0242389
-0.0202885
-0.0213337
0.0217503
0.0458127
0.0464669
-0.0219387
0.022393
0.0455631
0.0462323
-0.0228586
0.0232989
0.0447834
0.045296
-0.0231393
0.0231483
0.0444162
0.0447039
0.0437261
-0.0446514
0.0242473
0.0435391
0.0441567
-0.0439136
0.0233154
0.023378
0.0448019
-0.0441771
0.0243019
0.0241741
0.0434102
-0.0425049
0.0233939
0.0237265
0.0414895
-0.0403637
0.0209614
0.0221712
0.039187
-0.0379891
0.0164304
0.0187843
0.0368676
-0.0358769
0.00959922
0.0131503
0.0351101
-0.0346168
0.00102816
0.00540234
0.0344593
-0.0346882
-0.00783788
-0.00345895
0.0353496
-0.0364897
-0.0148301
-0.0116111
0.038065
-0.0399802
-0.0182068
-0.0168288
0.0419875
-0.0439025
-0.0193647
-0.0186741
0.0455832
-0.0471061
-0.0213099
-0.0199952
0.048573
-0.0501001
-0.0238604
-0.0224203
0.0516721
-0.0532966
-0.0262435
-0.0248434
0.0549492
-0.0566604
-0.0287128
-0.0272701
0.0583723
-0.0593057
-0.0306756
-0.029592
0.060054
-0.0606057
-0.0297428
-0.030855
0.0600321
-0.0588448
-0.0256393
-0.0285097
0.0572588
-0.0538869
-0.0172139
-0.0213521
0.0521993
-0.0515746
-0.00137472
-0.00821993
0.0141629
-0.0165612
-0.0428855
0.0500065
-0.0472083
0.0113646
0.00509081
0.0137103
-0.0389305
-0.0119852
-0.0346335
0.00777864
-0.0391898
-0.00241176
-0.0319893
-2.06897e-06
-0.0405919
0.00593185
-0.0302633
-0.00627144
-0.0415053
0.0122245
-0.0305356
-0.0119435
0.0130402
-0.0309061
-0.0124805
-0.040298
-0.0195257
-0.0403495
-0.019089
-0.0446785
0.0165592
-0.0231055
-0.038869
0.0490303
-0.0509619
-0.0201602
0.0131914
-0.0291228
-0.0287471
0.0448129
-0.0441502
0.0235845
-0.0194459
0.019804
0.0462579
-0.0194275
0.0472503
-0.0239353
0.0442171
0.0245311
-0.0239776
0.0435814
0.0477159
0.0117005
-0.046225
0.0482621
-0.019646
-0.0366048
-0.0159757
0.0179919
-0.0325518
0.0317514
-0.0334935
-0.0142336
-0.0306096
0.0306719
-0.00659733
-0.0108017
-0.0310278
0.0322097
0.0041741
-0.000786055
-0.0334845
0.0350722
0.0142654
0.00955835
-0.0366265
0.0384897
0.0218594
0.0185159
-0.0403002
0.0419824
0.0265641
0.0246886
-0.0434885
0.0447465
0.0290322
0.0281311
-0.04574
0.0464756
0.0309047
0.0300823
-0.0470402
0.047543
0.0330536
0.0321349
-0.0480963
0.0487658
0.0336357
0.0338831
-0.0495813
0.0505214
0.029797
0.0325092
-0.0515557
0.0526299
0.020697
0.0259477
-0.0537074
0.054746
0.00765056
0.0145793
-0.0557147
0.0565797
-0.00682359
0.000390126
-0.0572752
0.0577332
-0.0190836
-0.0135121
-0.0579099
0.0577927
-0.0261526
-0.0234052
-0.0574075
0.0568088
-0.0280062
-0.0276829
-0.0560595
0.0552242
-0.0267024
-0.0276562
-0.0543412
0.0533177
-0.0242093
-0.0255532
-0.0519725
0.0501151
-0.0215508
-0.0228937
-0.0211353
-0.0198773
0.0201675
0.0455225
0.0463936
-0.0208048
0.0214388
0.0449291
0.045595
-0.0220802
0.022725
0.0441386
0.0446545
-0.0233738
0.0240062
0.0437838
0.0440551
-0.0237285
0.0234744
0.0440448
0.0440039
0.0430307
0.0445573
-0.0455652
0.0243232
0.0237852
0.0450739
-0.0443883
0.0236164
0.0236828
0.0435624
-0.0426055
0.022437
0.0229006
0.0415568
-0.0404184
0.0198229
0.0211225
0.0392495
-0.0380782
0.0152591
0.0176154
0.0369954
-0.0360503
0.00865407
0.0120675
0.0353312
-0.0348885
0.000585425
0.00468329
0.0347911
-0.0351025
-0.00752642
-0.00355636
0.035876
-0.0371505
-0.0135556
-0.0108376
0.0388424
-0.0408083
-0.0162409
-0.0151369
0.0427748
-0.0445883
-0.0175512
-0.0167076
0.0461771
-0.0476683
-0.0198187
-0.0184063
0.0491607
-0.0507342
-0.022287
-0.0209278
0.0523539
-0.0540417
-0.0245556
-0.0232237
0.0557907
-0.0576404
-0.0268631
-0.0255211
0.0595341
-0.0614285
-0.0287811
-0.0276983
0.0632002
-0.0637126
-0.0292304
-0.0290833
0.0641313
-0.0635405
-0.0262301
-0.028091
0.0621766
-0.062559
-0.0168316
-0.022716
0.0592195
-0.0551406
-0.00545358
-0.0115594
0.0527491
-0.0499386
0.00855418
0.00269928
0.0143365
0.00593478
-0.0370867
-0.00428274
-0.0327625
0.0247741
-0.0252255
0.0440329
0.0246535
0.0443376
0.049157
-0.0507381
0.0132816
-0.00121238
-0.0379795
0.00491584
-0.0309733
-0.00824834
-0.038615
0.0132422
-0.0304653
-0.01454
-0.0394457
0.01869
-0.0316042
-0.020225
-0.0395987
0.0182174
-0.0359555
-0.0157555
0.0204753
-0.0348096
-0.025384
-0.0380709
-0.0301211
-0.0378707
-0.0347271
-0.0402449
-0.0183136
0.0471482
-0.0349527
-0.0160603
-0.0391753
0.0192801
0.0383461
-0.0411782
-0.0132282
-0.0350341
0.03258
-0.0117795
-0.0124435
-0.0310243
0.0303158
-0.00588888
-0.0092459
-0.0309207
0.0317624
0.00333242
-0.00139095
-0.0331654
0.0348195
0.0126113
0.00815539
-0.0366308
0.0384915
0.0199987
0.0167047
-0.0403351
0.0420672
0.0248319
0.022845
-0.0436325
0.0449588
0.0277059
0.0265659
-0.0460425
0.0469058
0.0300414
0.0289986
-0.0476461
0.0483726
0.0323271
0.0313946
-0.049192
0.0501518
0.0326759
0.0330637
-0.0512684
0.0525026
0.0285628
0.0313925
-0.0538104
0.0551236
0.0193838
0.0246398
-0.0564
0.0575854
0.00646518
0.0133028
-0.0586647
0.0595517
-0.00771062
-0.00068917
-0.0601894
0.0605053
-0.0193996
-0.0141497
-0.060468
0.0600916
-0.0257763
-0.0233678
-0.059432
0.0585708
-0.0271451
-0.0270233
-0.0575867
0.056551
-0.0256667
-0.0266721
-0.05551
0.0544935
-0.0231927
-0.0245123
-0.0535092
0.0525691
-0.0206107
-0.0219093
-0.0511977
0.0498093
-0.0187718
-0.0197639
-0.0488757
0.0479796
-0.0174175
-0.0187124
0.0172916
-0.016857
0.0467136
-0.0177038
0.0180216
0.04594
0.0468381
-0.0187866
0.0190642
0.0452448
0.0456286
-0.0198485
0.0206675
0.0441101
0.0448107
-0.0215168
0.0223723
0.0432831
0.0438052
-0.0232165
0.0240092
0.0429911
0.0432108
-0.0247234
0.0253299
0.0434383
0.0432896
0.043135
-0.0450391
0.024501
0.0451916
0.0454362
-0.0462195
0.0243679
0.0249281
0.0463221
-0.0459763
0.0239774
0.0238878
0.0454409
-0.0447098
0.0228853
0.0231473
0.0438366
-0.0428349
0.0214353
0.0220274
0.0417556
-0.0406062
0.0186735
0.0200432
0.0394473
-0.0383043
0.0141162
0.0164565
0.0372613
-0.0363625
0.0077553
0.0110244
0.035693
-0.0353073
0.000199675
0.00401383
0.0352846
-0.0357021
-0.00710889
-0.00357907
0.0366116
-0.0380264
-0.0121409
-0.00992811
0.0398054
-0.0417596
-0.0142867
-0.0133579
0.0436193
-0.045291
-0.0158796
-0.0148479
0.0467789
-0.0482361
-0.0183615
-0.0169184
0.0497349
-0.0513186
-0.0207033
-0.019429
0.0529464
-0.054655
-0.022847
-0.0215959
0.0564461
-0.0583633
-0.024946
-0.02373
0.0603634
-0.0624372
-0.0267073
-0.0256982
0.0644691
-0.0663373
-0.0273621
-0.0270515
0.0678305
-0.0687674
-0.0252932
-0.0265979
0.0689993
-0.0670519
-0.018779
-0.0224841
0.0648593
-0.063571
-0.0067419
-0.013752
0.0597705
-0.0547264
0.00351013
-0.00110121
0.00876707
-0.0159723
0.0470949
-0.00235208
-0.035947
0.00377538
-0.0316221
0.0159987
-0.0433194
-0.0138575
-0.0422324
0.0190558
-0.00919953
-0.0370283
0.0124806
-0.0302117
-0.0158372
-0.0373179
0.019268
-0.0310433
-0.0224411
-0.0372296
0.0223737
-0.0335026
-0.0273736
-0.037609
0.0220241
-0.0375536
-0.0310453
-0.0371467
-0.0341703
-0.0384276
-0.0297296
-0.043001
0.0219925
-0.0321464
-0.0378281
0.0291524
-0.0309549
-0.0411986
0.0483942
-0.0496714
-0.0161403
0.0462241
-0.0458118
0.0240887
-0.0242746
0.0464827
0.0240161
0.0475041
-0.0150822
-0.0247239
0.0456409
-0.0335294
-0.0156924
0.0175106
-0.0451376
0.0445222
-0.0460147
-0.0142
-0.0422707
0.0399838
-0.0109413
-0.0116059
-0.037044
0.0344045
-0.00914
-0.0095038
-0.0323297
0.0312728
-0.004832
-0.00717106
-0.0313928
0.0321926
0.00253263
-0.00151101
-0.0334785
0.0350663
0.0110235
0.00686949
-0.0368404
0.0386813
0.0181579
0.0149305
-0.0405183
0.0422519
0.0230983
0.0210079
-0.0438285
0.0451852
0.0263491
0.0249894
-0.0463348
0.0473157
0.0290605
0.027849
-0.0482325
0.0491867
0.0313729
0.0304778
-0.0502737
0.0515228
0.0314268
0.0319768
-0.0529366
0.0544572
0.0270423
0.0299786
-0.0560316
0.057577
0.0178384
0.0230654
-0.0590493
0.0603847
0.00512981
0.0118305
-0.0615516
0.0624501
-0.00860909
-0.00185606
-0.0630023
0.0631431
-0.0195403
-0.014702
-0.062865
0.0622176
-0.0251289
-0.0230897
-0.0612875
0.0601792
-0.0260367
-0.0260932
-0.0589823
0.0577699
-0.0244543
-0.0254751
-0.0565868
0.0554564
-0.0220624
-0.0233292
-0.0543924
0.0533904
-0.0196086
-0.0208454
-0.0521762
0.0508039
-0.0173995
-0.0185497
-0.01758
-0.0443042
0.0195823
-0.0172031
0.0192575
-0.0471919
-0.047872
-0.0153458
-0.0149295
0.0155463
0.0460968
0.0146165
-0.0140077
0.0468953
0.0467819
-0.0161905
0.0168413
0.0452892
0.0461939
-0.0172343
0.0181289
0.0443502
0.0452357
-0.0190913
0.0200962
0.0431053
0.0438483
-0.0211202
0.0221193
0.042284
0.0427812
-0.0230652
0.0239164
0.04214
0.0422649
-0.0246488
0.0252297
0.0428574
0.0425571
-0.0251451
0.024877
0.044301
0.0432196
0.0444908
0.0462437
-0.0465957
0.0247199
0.0253599
0.0468497
-0.0464514
0.0235791
0.0241418
0.0458773
-0.045113
0.022121
0.0225733
0.0442061
-0.0431707
0.0203999
0.0211204
0.0420674
-0.0409095
0.0175157
0.0189398
0.0397608
-0.0386448
0.0130002
0.0153078
0.0376394
-0.0367858
0.00690175
0.010019
0.0361691
-0.0358532
-0.000116174
0.00339706
0.0359314
-0.03649
-0.00655025
-0.0035009
0.03756
-0.0391043
-0.0105965
-0.00885816
0.0409164
-0.0427824
-0.0124207
-0.0115458
0.0444763
-0.0459856
-0.0143702
-0.013154
0.0473776
-0.0488004
-0.0169387
-0.0155264
0.0502857
-0.0518507
-0.0191383
-0.0179437
0.0534607
-0.0551628
-0.0211448
-0.019986
0.056957
-0.0588842
-0.0230188
-0.0219358
0.0609117
-0.0630537
-0.0245653
-0.0236707
0.0652247
-0.0673506
-0.0252362
-0.0248805
0.0692334
-0.0706884
-0.0238382
-0.0247151
0.0714783
-0.0714528
-0.0188046
-0.0216942
0.0705988
-0.0675865
-0.00975415
-0.014606
0.0644315
-0.0616291
0.000707706
-0.0042562
0.0578263
-0.0553303
0.0107857
0.0049642
0.0495184
-0.0432477
0.0228817
0.0161806
-0.0445535
-0.0278104
0.0291162
0.0150457
-0.0217754
-0.0378238
-0.0384952
0.0257306
-0.0106564
-0.0344901
0.0117616
-0.0309031
0.0225444
-0.0237374
0.0468339
0.0222025
0.0468245
-0.0173977
-0.0354678
0.0192501
-0.0301939
-0.0234859
-0.0362731
0.0234974
-0.0321671
-0.0285015
-0.0361017
0.0243642
-0.0358426
-0.0327747
-0.0358797
0.0221885
-0.0406863
-0.0348154
-0.0365016
-0.0350763
-0.0354977
-0.0336284
-0.0351546
-0.0296844
-0.0332897
-0.046
0.0209533
0.0189354
-0.0498716
-0.0169358
0.0208296
-0.0490861
-0.0184721
0.0203305
-0.05173
0.048066
-0.047989
-0.0140847
0.0248135
-0.0284783
-0.0341591
-0.0132032
0.0132275
0.046871
-0.0334729
0.0197911
-0.0122776
0.0471404
-0.0324242
-0.0503785
0.0485
-0.0150573
-0.0164099
-0.04688
0.0448741
-0.0121941
-0.0137257
-0.0436267
0.0415393
-0.00885392
-0.0103585
-0.039052
0.0359959
-0.00608387
-0.00701645
-0.0339776
0.032703
-0.00355741
-0.00515276
-0.0323366
0.0327959
0.00207332
-0.00114463
-0.0338783
0.035358
0.00954383
0.00578714
-0.0370772
0.0388846
0.0163505
0.0132113
-0.0406955
0.0424066
0.0213872
0.019197
-0.0439727
0.0453475
0.0249743
0.0234232
-0.0465624
0.0476689
0.027954
0.0266342
-0.0487746
0.0499681
0.0301794
0.029372
-0.0513299
0.0528704
0.0298863
0.030615
-0.0545774
0.0563755
0.0252442
0.0282716
-0.0581999
0.0599655
0.0160727
0.021241
-0.0616234
0.0631066
0.00364663
0.0101727
-0.06434
0.0652143
-0.00948346
-0.00308947
-0.0656403
0.0655701
-0.0194701
-0.015128
-0.0650287
0.0641046
-0.0242048
-0.0225483
-0.0629133
0.0615787
-0.0247022
-0.0249019
-0.0601955
0.0588364
-0.0230952
-0.0240919
-0.0575391
0.056324
-0.0208472
-0.0220319
-0.0551958
0.054147
-0.0185598
-0.0197172
-0.0530677
0.0522634
-0.0165952
-0.0174704
-0.0504551
0.0495109
-0.015196
-0.0157717
-0.0135603
-0.0138949
0.0142128
0.0457789
0.0461145
-0.0149436
0.0153418
0.044891
0.0454631
-0.0163192
0.0173739
0.0432955
0.0442583
-0.0184825
0.0196011
0.0419867
0.0427398
-0.0206943
0.0217122
0.041266
0.041688
-0.0226277
0.0234074
0.0413603
0.0413495
-0.0240355
0.0244876
0.0424053
0.041929
-0.0242391
0.0241487
0.0443914
0.0434681
0.0449021
-0.047523
0.020919
0.0488065
0.047729
-0.0482128
0.0245725
0.0242221
0.0475677
-0.0477828
0.024935
0.0247149
0.0474257
-0.046959
0.0231123
0.0237847
0.0463472
-0.045561
0.0213348
0.0219615
0.0446355
-0.0435828
0.0193472
0.0201949
0.0424669
-0.0413063
0.0163551
0.0178239
0.0401676
-0.0390739
0.0119065
0.0141691
0.0381006
-0.0372909
0.00609208
0.00904565
0.0367373
-0.0365203
-0.000333164
0.00284341
0.0367438
-0.0374856
-0.00580841
-0.00327741
0.0387248
-0.0403547
-0.00896666
-0.00761896
0.042117
-0.0438141
-0.0107235
-0.00978354
0.045303
-0.046652
-0.0130213
-0.0116651
0.0479595
-0.0493402
-0.015558
-0.014219
0.050786
-0.0523043
-0.01762
-0.0164978
0.0538732
-0.0555443
-0.0194738
-0.0184171
0.057312
-0.0592144
-0.0211163
-0.0201681
0.0612244
-0.0633655
-0.0224242
-0.0216607
0.0655715
-0.0678049
-0.0230028
-0.0226745
0.0699113
-0.0717458
-0.0220038
-0.0226086
0.0730688
-0.0737003
-0.018173
-0.0203712
0.07349
-0.0723874
-0.0108568
-0.0148163
0.0704673
-0.0684689
-0.00129071
-0.00617622
0.065733
-0.0625551
0.0076077
0.0022283
0.0599845
-0.0539828
0.01688
0.0136101
0.0462703
-0.0417371
0.0211974
0.0214037
0.0280784
-0.0255241
-0.0360271
0.0412687
-0.0256291
0.0124388
0.0193227
-0.0185149
-0.0333729
0.019123
-0.030776
-0.0246718
-0.0342819
0.0246239
-0.0313203
-0.0298067
-0.034968
0.0261944
-0.0339973
-0.0336025
-0.0352739
0.024304
-0.0379582
-0.0358818
-0.0348133
0.0216154
-0.0427194
-0.0369735
-0.0346044
-0.0357707
-0.0333554
-0.0337238
-0.0311152
-0.0310138
-0.0307542
-0.0275556
-0.0321275
-0.0251056
0.0432248
-0.0437483
-0.023532
-0.0376008
0.0555889
-0.0188005
-0.0573793
0.020591
-0.0480174
0.022847
0.0222511
-0.0510067
0.0215914
-0.0543291
-0.0119378
0.0124897
0.0463191
0.0483066
-0.0496755
-0.0127157
0.0502099
-0.0497144
0.0204236
-0.018646
0.0504981
0.0183578
-0.0198664
0.0500269
0.0483135
-0.0122844
-0.0120116
0.0472142
-0.0318161
-0.0539288
0.0523849
-0.016354
-0.0177582
-0.0508572
0.0491492
-0.0133493
-0.0148822
-0.047528
0.046023
-0.0106891
-0.0121045
-0.0442919
0.0422596
-0.00682162
-0.00862738
-0.0405451
0.038501
-0.00403983
-0.00530194
-0.0364068
0.0347322
-0.00188282
-0.00305858
-0.0337984
0.0337291
0.0021426
-0.000210801
-0.0344139
0.0356418
0.00831594
0.0051024
-0.0372158
0.038942
0.0146242
0.0116373
-0.0407047
0.0423891
0.0197028
0.0174343
-0.0439547
0.0453693
0.0235597
0.0218576
-0.0466794
0.0479432
0.0266902
0.0253241
-0.0492657
0.0507191
0.028726
0.0280495
-0.0523685
0.0542023
0.0280525
0.0289657
-0.0561939
0.0582552
0.0231829
0.02628
-0.060316
0.0622895
0.0140993
0.0191801
-0.0641225
0.06572
0.00204916
0.00833966
-0.0669836
0.0677797
-0.0102796
-0.00435304
-0.0680241
0.0677008
-0.0191468
-0.0153724
-0.066877
0.0656819
-0.0230096
-0.0217245
-0.0642551
0.0627313
-0.0231784
-0.0234751
-0.0612027
0.0597356
-0.0216281
-0.0225633
-0.0583582
0.0570851
-0.0195741
-0.0206546
-0.0559136
0.0548373
-0.0174835
-0.0185457
-0.053845
0.0527056
-0.0154558
-0.0164781
-0.0514069
0.0500904
-0.0138795
-0.014473
-0.0131455
-0.0125491
0.0129392
0.0453888
0.0460551
-0.0134205
0.0144335
0.043878
0.0449818
-0.0155408
0.0166888
0.0421475
0.0431509
-0.0178388
0.0189384
0.0408871
0.0415898
-0.0199551
0.0208488
0.0403723
0.0406714
-0.0216032
0.0221997
0.0407637
0.0405951
-0.0226335
0.0228921
0.0421467
0.0414952
-0.0229728
0.0228688
0.0444955
0.0433874
-0.0215625
0.0215396
0.0468567
0.0462084
0.0484977
0.0491386
-0.0489757
0.0244096
0.0236463
0.0489744
-0.0484844
0.0244451
0.0247136
0.0480071
-0.0474633
0.0225686
0.0233073
0.0468104
-0.0460083