/*--------------------------------*- C++ -*----------------------------------*\
  =========                 |
  \\      /  F ield         | OpenFOAM: The Open Source CFD Toolbox
   \\    /   O peration     | Website:  https://openfoam.org
    \\  /    A nd           | Version:  10
     \\/     M anipulation  |
\*---------------------------------------------------------------------------*/
FoamFile
{
    format      ascii;
    class       volVectorField;
    location    "19";
    object      U;
}
// * * * * * * * * * * * * * * * * * * * * * * * * * * * * * * * * * * * * * //

dimensions      [0 1 -1 0 0 0 0];

internalField   nonuniform List<vector> 
14667
(
(1.03725 0.066935 -1.19572e-19)
(0.88706 0.0445746 -5.06431e-20)
(0.491348 0.0223557 -1.41911e-21)
(0.606052 0.0186366 3.08539e-22)
(0.591276 0.0199574 3.91801e-22)
(0.990529 -0.0895716 -3.34067e-20)
(1.0325 -0.0824542 7.37777e-20)
(0.382679 0.0344931 -9.63381e-22)
(0.463784 0.0232496 0)
(0.575208 0.0227459 -6.06126e-23)
(1.03695 -0.0669632 -3.12993e-20)
(1.02556 -0.0394459 1.6846e-20)
(0.986125 -0.023112 -4.09783e-20)
(0.88607 -0.0752252 1.21571e-19)
(0.427879 0.0209683 -1.32332e-21)
(1.01848 -0.0310129 0)
(1.01884 -0.0292367 0)
(0.531349 0.00664161 -9.05176e-22)
(0.313248 0.0118603 0)
(1.03991 -0.0586521 0)
(1.05565 0.0856698 -8.78302e-20)
(0.885667 -0.00316992 6.26396e-20)
(0.997487 0.016008 0)
(1.0013 0.0408574 4.44746e-21)
(0.0205044 -0.146546 7.67251e-20)
(0.41685 -0.113757 2.57806e-19)
(-0.0221607 -0.0586151 7.79485e-20)
(-0.132032 -0.152415 -3.03435e-19)
(-0.132902 -0.183083 5.60726e-21)
(0.807456 0.0532561 1.61154e-20)
(0.858723 0.0286003 -1.4841e-21)
(0.874495 0.00171061 -4.49163e-20)
(-0.0169121 -0.0800626 1.48627e-20)
(-0.0395757 -0.0540074 8.14771e-20)
(-0.146439 -0.0286782 8.59127e-20)
(0.0431012 -0.0344326 -1.30925e-19)
(0.053124 -0.00688281 -1.83034e-21)
(0.389265 -0.0467699 1.25811e-21)
(0.387778 -0.0295524 7.32292e-22)
(0.507941 -0.0177625 -1.65422e-22)
(0.495224 -0.0133509 0)
(0.399933 0.00877635 -1.19087e-20)
(0.553774 -0.244314 5.12149e-19)
(0.614391 -0.126696 -1.68599e-19)
(0.434351 -0.0974692 -1.18595e-19)
(0.352244 -0.308349 8.00173e-20)
(0.591393 -0.477356 -1.05996e-20)
(0.912539 0.0596839 -2.50883e-20)
(0.935784 0.0693162 8.82607e-21)
(0.535572 0.0638209 0)
(0.534743 0.0347516 0)
(0.737189 -0.00961572 0)
(0.795852 -0.0262327 0)
(0.854297 -0.0220922 -7.7939e-20)
(1.41495 -0.239785 2.79796e-20)
(1.45591 -0.205642 1.63807e-20)
(1.31568 0.19012 3.4127e-20)
(1.36678 0.181771 1.94496e-20)
(0.0462439 -0.0546051 -1.96176e-20)
(0.220284 -0.069544 1.69984e-20)
(-0.117968 -0.0978746 2.28413e-19)
(-0.120858 -0.129972 0)
(1.02115 -0.501613 1.87744e-21)
(1.0281 -0.415406 -4.94369e-20)
(0.94989 -0.372414 -4.74682e-21)
(0.890672 -0.667752 -8.13772e-21)
(0.980008 -0.578965 3.83448e-20)
(0.471996 0.646539 6.19795e-20)
(0.777258 0.680065 -3.02793e-20)
(0.903659 0.0117944 4.0471e-20)
(0.922095 -0.00321227 -3.68139e-20)
(0.926176 0.0215076 -4.04857e-20)
(0.14584 -0.0576187 0)
(0.148616 -0.294429 3.91447e-20)
(0.543281 0.106015 9.17935e-21)
(0.759353 0.133799 1.30436e-20)
(0.946505 0.0993861 -4.37932e-20)
(0.862056 0.0996682 2.7369e-20)
(0.91242 -0.0214145 2.11161e-19)
(0.89823 -0.0536877 -2.68593e-22)
(0.58741 -0.00949264 -6.69278e-22)
(0.665439 -0.00953518 0)
(0.596823 -0.0134068 1.28951e-21)
(0.80914 0.0159225 -5.29601e-23)
(0.807752 0.016951 0)
(0.0459963 -0.113076 0)
(-0.0761056 -0.115317 -1.30122e-19)
(0.224345 -0.0107115 7.45717e-21)
(0.487597 -0.0170661 -3.93262e-20)
(1.16996 -0.144216 -4.82e-20)
(1.38408 -0.146063 6.64522e-20)
(1.05378 -0.380951 1.15239e-22)
(1.01652 -0.358765 3.97355e-23)
(0.892399 -0.549524 6.93176e-21)
(0.911173 -0.558688 -3.42704e-21)
(0.997729 0.706802 9.90487e-21)
(0.960602 0.705295 7.74095e-21)
(1.09933 0.285651 4.9643e-21)
(1.02878 0.257597 -1.01848e-20)
(1.09423 0.0213563 1.2187e-20)
(1.02228 -0.0176899 -5.11179e-21)
(1.53871 -0.286126 7.74787e-21)
(1.50839 -0.208449 5.20666e-20)
(0.929896 0.10416 7.11495e-21)
(0.910101 0.0781604 -2.53985e-20)
(0.936908 0.0640058 3.30827e-21)
(0.956096 0.0861989 3.19435e-21)
(0.956811 0.144628 2.22399e-20)
(0.948353 0.119012 4.46222e-22)
(0.332127 -0.0135181 3.99123e-22)
(0.198899 -0.00906562 -4.85737e-23)
(0.215058 -0.00422376 -6.82273e-22)
(0.350748 -0.00791348 0)
(0.436301 -0.0206908 9.09256e-22)
(0.451673 -0.0140462 -3.86095e-22)
(1.24134 -0.0765413 -1.23025e-20)
(1.26415 -0.0844109 3.16335e-20)
(1.24839 -0.0731757 0)
(0.294886 -0.0293265 -8.17395e-22)
(0.225413 -0.0275429 -3.12849e-22)
(0.340771 -0.0215332 -1.2661e-22)
(0.878203 -0.539968 -3.1954e-21)
(0.899495 -0.552135 1.84292e-20)
(0.881309 -0.527559 -9.6583e-21)
(0.864881 -0.485538 1.43202e-20)
(0.841378 -0.470428 0)
(0.85996 -0.514582 2.09218e-21)
(0.844484 -0.420574 -4.20603e-20)
(0.82216 -0.337336 2.20442e-20)
(0.798473 -0.318777 0)
(0.822303 -0.406515 0)
(0.802866 -0.237225 0)
(0.784072 -0.12015 -2.70961e-20)
(0.765159 -0.0887569 0)
(0.780495 -0.212703 0)
(0.773183 0.00355753 2.72273e-20)
(0.767907 0.127903 0)
(0.739844 0.183955 0)
(0.751327 0.0483498 0)
(0.763332 0.251751 -2.51028e-20)
(0.762565 0.365478 2.49193e-20)
(0.739921 0.425883 0)
(0.736475 0.311115 0)
(0.767467 0.462442 0)
(0.777614 0.539126 1.86836e-20)
(0.768639 0.588766 4.5675e-24)
(0.750545 0.521024 0)
(0.79337 0.591162 -1.88005e-20)
(0.814151 0.618261 0)
(0.825124 0.632515 0)
(0.794198 0.624804 0)
(0.838247 0.624906 1.44395e-23)
(0.862521 0.622013 0)
(0.884465 0.614312 0)
(0.857139 0.624048 0)
(0.88657 0.62242 1.78495e-20)
(0.905877 0.635524 -1.57297e-20)
(0.917137 0.62796 -1.4629e-21)
(0.90315 0.614368 0)
(0.916355 0.652664 0)
(0.925055 0.670864 0)
(0.939144 0.666529 -2.70024e-21)
(0.927771 0.646834 1.57517e-21)
(0.929047 0.688302 3.63279e-21)
(0.933298 0.699893 4.18825e-21)
(0.956946 0.700232 -4.25778e-21)
(0.947911 0.685846 3.60605e-21)
(0.962065 0.70845 8.53463e-21)
(0.932106 0.70485 -8.65181e-21)
(0.902949 -0.548527 -6.20355e-22)
(0.918816 -0.554338 3.02068e-21)
(0.925052 0.697009 1.0086e-22)
(0.888088 -0.54103 2.03984e-21)
(0.896747 -0.53573 -3.99663e-21)
(0.909648 -0.540152 -1.18978e-22)
(0.932023 -0.569348 0)
(0.937566 -0.559306 -3.21204e-21)
(0.904622 0.695395 -1.87623e-21)
(0.912804 0.685984 -8.90742e-21)
(0.911 0.69462 3.57074e-21)
(0.908635 0.654795 7.1484e-21)
(0.913128 0.670709 -7.36308e-21)
(0.883845 0.635879 0)
(0.899104 0.644151 0)
(0.840915 0.646519 -1.48887e-23)
(0.862865 0.641178 0)
(0.805928 0.609531 9.76529e-24)
(0.821376 0.639676 0)
(0.784972 0.466891 0)
(0.794059 0.551967 0)
(0.778365 0.226927 2.61317e-23)
(0.779077 0.357121 0)
(0.803685 -0.0595591 -5.71441e-25)
(0.786416 0.0844379 0)
(0.843001 -0.313628 0)
(0.823698 -0.192825 0)
(0.883284 -0.488707 -6.3214e-25)
(0.863445 -0.413412 0)
(0.913005 -0.561708 0)
(0.900674 -0.535512 0)
(0.925462 -0.571691 -9.73262e-21)
(0.940374 -0.544136 -2.7582e-21)
(0.923993 -0.542829 2.84495e-21)
(0.858419 -0.526948 -1.34271e-21)
(0.875338 -0.539511 0)
(0.818538 -0.453848 -1.80677e-22)
(0.838879 -0.499045 -1.78386e-21)
(0.772442 -0.306097 0)
(0.796567 -0.390754 -6.62223e-23)
(0.732457 -0.0897089 0)
(0.751513 -0.204479 0)
(0.718334 0.153868 0)
(0.722014 0.0309576 0)
(0.726266 0.372852 0)
(0.719359 0.270001 0)
(0.759614 0.519529 0)
(0.739759 0.457306 0)
(0.815264 0.576964 0)
(0.785323 0.55826 0)
(0.877401 0.585778 0)
(0.847026 0.582961 0)
(0.923603 0.610338 -1.39945e-21)
(0.903568 0.593568 0)
(0.955829 0.656817 7.21857e-22)
(0.940418 0.633532 -6.02362e-23)
(0.982834 0.694705 -3.78506e-21)
(0.969961 0.677279 0)
(0.992847 0.706589 -1.14925e-20)
(0.912954 -0.527092 -1.58971e-21)
(0.902159 -0.525232 3.67161e-22)
(0.891133 0.682148 2.37288e-21)
(0.953286 0.683004 -5.45685e-21)
(0.959613 -0.541908 0)
(0.95674 -0.521145 6.03028e-22)
(0.940142 -0.525328 5.94857e-22)
(0.996473 0.689036 0)
(0.879466 0.681218 -1.70751e-21)
(0.899539 0.680008 -1.39381e-21)
(0.89222 0.685309 0)
(0.903951 0.657654 -7.0359e-21)
(0.904409 0.668247 7.15117e-21)
(0.888227 0.656803 0)
(0.898861 0.653411 2.8767e-21)
(0.853214 0.671341 1.63649e-23)
(0.871741 0.66602 0)
(0.825692 0.62602 8.29211e-25)
(0.83728 0.661137 0)
(0.814752 0.473089 -1.3047e-23)
(0.818063 0.562945 0)
(0.823815 0.233352 1.15388e-24)
(0.81679 0.361082 0)
(0.842308 -0.0398435 -1.37254e-24)
(0.832177 0.0976956 0)
(0.875825 -0.293003 0)
(0.857622 -0.173216 0)
(0.911444 -0.470352 -6.4526e-25)
(0.894139 -0.39319 0)
(0.939277 -0.557061 0)
(0.92667 -0.524764 0)
(0.955303 -0.570159 6.24491e-23)
(0.949371 -0.570736 4.96767e-22)
(0.959056 -0.559345 5.11193e-21)
(0.925574 -0.526986 -4.886e-24)
(0.893305 -0.521276 5.47901e-22)
(0.875395 -0.531177 1.90384e-21)
(0.886037 -0.528961 1.18454e-21)
(0.842409 -0.509546 7.25791e-22)
(0.860844 -0.526042 -6.60166e-22)
(0.799875 -0.431575 3.14911e-24)
(0.821465 -0.477942 4.85214e-23)
(0.753137 -0.284166 0)
(0.776441 -0.367427 0)
(0.715869 -0.0718764 0)
(0.732767 -0.18467 0)
(0.699905 0.167074 0)
(0.704793 0.0484322 0)
(0.711298 0.379529 0)
(0.702355 0.279329 0)
(0.750146 0.518459 0)
(0.727094 0.461237 0)
(0.816058 0.557094 0)
(0.780457 0.548826 0)
(0.886196 0.55654 0)
(0.852974 0.555033 0)
(0.934698 0.59129 0)
(0.913046 0.569284 0)
(0.973628 0.640719 6.74993e-22)
(0.954223 0.616397 -6.60944e-22)
(1.01017 0.683474 5.78124e-21)
(0.99287 0.663061 0)
(1.03567 0.703156 -5.05278e-21)
(1.02378 0.699382 6.93311e-21)
(0.990281 0.647416 -6.91892e-21)
(1.04237 0.654282 5.40096e-21)
(1.04002 0.690709 -1.65372e-21)
(0.861109 0.662959 -1.99386e-22)
(0.911615 0.66974 -5.13899e-21)
(0.938897 0.635123 -5.88688e-22)
(0.936714 -0.505282 -5.65145e-22)
(0.976964 0.578775 0)
(1.0348 0.59159 -8.02024e-21)
(0.951508 -0.498761 -1.11149e-21)
(0.887232 -0.514794 0)
(0.980807 -0.538439 -1.3279e-21)
(0.974906 -0.514697 3.94179e-26)
(0.893708 -0.506191 0)
(0.897687 -0.51005 -5.59262e-22)
(0.836408 0.625716 8.43618e-21)
(0.871705 0.649489 0)
(0.805963 0.596513 -1.69529e-21)
(0.857961 0.662476 2.07163e-21)
(0.834906 0.638744 8.9115e-22)
(0.889036 0.670943 -1.78455e-22)
(0.875924 0.671513 1.55663e-21)
(0.902938 0.659466 -5.45563e-23)
(0.898434 0.664607 4.8545e-23)
(0.895378 0.670453 0)
(0.90186 0.66153 4.1405e-22)
(0.870159 0.685607 2.84211e-25)
(0.883607 0.681616 0)
(0.853179 0.633653 -1.06593e-23)
(0.859455 0.672167 0)
(0.852825 0.474209 1.3047e-23)
(0.851052 0.567405 0)
(0.866065 0.223411 8.35391e-25)
(0.858071 0.357708 0)
(0.892313 -0.0664833 -7.45998e-25)
(0.877675 0.0786515 0)
(0.925901 -0.327536 0)
(0.908529 -0.20431 0)
(0.958539 -0.504206 1.1442e-23)
(0.943188 -0.428824 0)
(0.979585 -0.577906 0)
(0.971167 -0.5529 0)
(0.985689 -0.576234 -3.64761e-22)
(0.984737 -0.583934 1.47391e-21)
(0.984406 -0.559779 -1.61064e-23)
(0.912702 -0.511579 -1.1216e-21)
(0.923711 -0.509421 0)
(0.904014 -0.51198 5.72472e-22)
(0.865666 -0.517888 -1.20201e-21)
(0.878053 -0.519305 0)
(0.83013 -0.48869 0)
(0.849686 -0.508823 0)
(0.785319 -0.407081 -3.15051e-24)
(0.808387 -0.455106 0)
(0.738229 -0.260988 0)
(0.761199 -0.342325 0)
(0.702123 -0.0589105 0)
(0.718041 -0.165283 0)
(0.688984 0.163846 0)
(0.692308 0.0526633 0)
(0.70407 0.359049 0)
(0.69284 0.268085 0)
(0.750804 0.479067 -2.21262e-24)
(0.723372 0.430733 0)
(0.823103 0.514317 -1.85833e-24)
(0.785181 0.504658 0)
(0.893065 0.527321 0)
(0.860214 0.518614 0)
(0.945778 0.56869 0)
(0.921042 0.544654 0)
(0.992855 0.619637 0)
(0.969477 0.594635 0)
(1.03745 0.66714 7.85573e-22)
(1.01589 0.643898 0)
(1.07377 0.693661 0)
(1.05633 0.685597 -4.04023e-21)
(1.09306 0.65658 8.28835e-21)
(1.08487 0.686874 -1.53461e-21)
(1.08157 0.512705 -4.61406e-21)
(1.09255 0.599535 0)
(0.890596 0.615761 -6.32413e-21)
(0.805497 0.563054 -5.46086e-21)
(0.772598 0.531414 3.07307e-21)
(0.899293 -0.497262 0)
(0.897175 -0.496432 -5.23719e-22)
(0.920179 0.559632 1.10828e-20)
(1.01939 0.49807 4.23396e-21)
(0.957158 0.480199 0)
(0.994264 0.376293 0)
(0.967637 -0.490397 1.55632e-21)
(1.06119 0.396396 4.64029e-21)
(0.845361 0.590594 -2.75625e-21)
(0.736434 0.441484 -3.18813e-21)
(0.70942 0.407956 -2.48899e-21)
(0.782508 0.565043 8.68307e-22)
(0.747093 0.497602 -1.52212e-21)
(0.841459 0.639599 1.00484e-21)
(0.814349 0.61099 -2.10757e-21)
(0.882115 0.657619 -1.09731e-23)
(0.863957 0.653455 0)
(0.904187 0.657005 5.99122e-24)
(0.895815 0.656785 0)
(0.903704 0.676587 0)
(0.90644 0.663777 0)
(0.89081 0.69305 7.92926e-26)
(0.897498 0.689578 0)
(0.886026 0.635504 0)
(0.886647 0.677306 0)
(0.895082 0.468113 -1.42238e-23)
(0.888877 0.565331 0)
(0.916247 0.212296 -1.56199e-23)
(0.904398 0.348283 0)
(0.944815 -0.0783221 1.58691e-23)
(0.929841 0.0676442 0)
(0.976923 -0.337362 0)
(0.960962 -0.216145 0)
(1.00318 -0.507525 1.19698e-23)
(0.991395 -0.435611 0)
(1.01589 -0.576048 0)
(1.01151 -0.553325 -6.37247e-28)
(1.01411 -0.57116 -1.07549e-22)
(1.01688 -0.580245 0)
(1.00228 -0.530902 6.13042e-22)
(1.00925 -0.553471 -8.16702e-22)
(0.984826 -0.480067 -1.99117e-21)
(0.994073 -0.505842 -6.28609e-22)
(0.959269 -0.465995 -8.89005e-22)
(0.931689 -0.484076 5.68628e-22)
(0.944991 -0.475794 4.62191e-22)
(0.910655 -0.494276 0)
(0.920093 -0.490184 0)
(0.903749 -0.496611 5.45674e-22)
(0.897338 -0.494257 9.75588e-22)
(0.884033 -0.50627 2.45203e-22)
(0.892308 -0.500687 5.0446e-22)
(0.859205 -0.502976 0)
(0.873052 -0.507731 2.46203e-22)
(0.821718 -0.467501 0)
(0.841976 -0.490403 0)
(0.775336 -0.383037 0)
(0.799256 -0.432199 0)
(0.72841 -0.23923 0)
(0.751078 -0.31846 0)
(0.694023 -0.0462384 0)
(0.708838 -0.147277 0)
(0.683259 0.163331 0)
(0.68526 0.0591024 0)
(0.702001 0.344515 0)
(0.688707 0.26058 0)
(0.753814 0.450874 2.21262e-24)
(0.723773 0.409145 0)
(0.83032 0.478268 1.85833e-24)
(0.790558 0.471235 0)
(0.902073 0.495981 0)
(0.868604 0.483472 0)
(0.957194 0.54326 0)
(0.930731 0.517398 0)
(1.01135 0.594113 0)
(0.983978 0.569055 0)
(1.06389 0.644375 -7.66164e-22)
(1.0382 0.619524 0)
(1.11118 0.677062 0)
(1.0887 0.665069 0)
(1.14252 0.65193 0)
(1.12968 0.67475 1.25603e-21)
(1.14303 0.523908 -8.34975e-21)
(1.14851 0.602601 -3.66862e-21)
(1.1287 0.41674 9.55281e-21)
(0.974484 -0.454818 2.14995e-21)
(0.866053 0.534134 1.77416e-21)
(0.771875 0.473939 6.51611e-21)
(0.895529 0.455674 -3.84522e-21)
(0.672273 0.295267 1.75509e-21)
(0.699192 0.327351 0)
(0.927765 0.3529 4.81154e-21)
(0.89973 -0.490906 -1.95285e-21)
(0.901525 -0.4909 5.26792e-22)
(0.898274 -0.489905 -1.32078e-21)
(0.958653 0.229932 1.01163e-20)
(0.993655 0.10335 -5.22895e-21)
(1.00265 -0.467849 0)
(0.990034 -0.441566 0)
(1.06526 0.137755 1.00516e-20)
(0.81585 0.504896 2.30659e-23)
(0.638062 0.165425 2.538e-23)
(0.622387 0.142415 -2.53453e-23)
(0.691339 0.373357 1.97906e-22)
(0.655213 0.265462 0)
(0.764708 0.529782 8.17462e-22)
(0.728539 0.461357 0)
(0.828993 0.612062 0)
(0.798617 0.579113 -1.467e-22)
(0.878289 0.639795 0)
(0.8558 0.63089 0)
(0.907264 0.649853 0)
(0.895684 0.644238 0)
(0.914188 0.677588 6.65309e-24)
(0.912807 0.661267 0)
(0.913708 0.694876 -1.7579e-23)
(0.913741 0.692133 0)
(0.921102 0.631439 0)
(0.915894 0.676588 0)
(0.940885 0.458285 -1.43896e-25)
(0.929539 0.558008 0)
(0.969246 0.199161 1.63431e-23)
(0.954426 0.336709 0)
(1.0011 -0.0943566 -1.65489e-23)
(0.984932 0.0526333 0)
(1.03195 -0.354302 0)
(1.01716 -0.23296 0)
(1.05294 -0.520639 -1.19698e-23)
(1.04428 -0.45138 0)
(1.0573 -0.580592 0)
(1.05731 -0.56251 6.37247e-28)
(1.04611 -0.567231 0)
(1.05336 -0.580294 0)
(1.02593 -0.521444 -5.82599e-22)
(1.03666 -0.546402 0)
(1.01441 -0.494792 9.96382e-22)
(0.948526 -0.442539 0)
(0.976601 -0.416748 3.14383e-22)
(0.962454 -0.430482 -7.99893e-22)
(0.92437 -0.462571 4.77218e-22)
(0.935769 -0.453303 -4.52808e-22)
(0.906486 -0.476174 0)
(0.91445 -0.470094 0)
(0.897934 -0.484927 0)
(0.901007 -0.481053 0)
(0.897043 -0.487908 1.58129e-21)
(0.883639 -0.496217 0)
(0.893565 -0.493654 0)
(0.855777 -0.486919 0)
(0.871128 -0.494665 0)
(0.816681 -0.445981 1.60386e-24)
(0.837524 -0.471358 0)
(0.769645 -0.359204 0)
(0.793766 -0.409062 0)
(0.723558 -0.218662 0)
(0.745679 -0.295434 0)
(0.69102 -0.035158 0)
(0.704823 -0.130733 0)
(0.682413 0.160784 0)
(0.683266 0.0637306 0)
(0.704668 0.325229 0)
(0.689295 0.250051 0)
(0.762309 0.414919 0)
(0.72921 0.380864 0)
(0.842025 0.43873 0)
(0.801456 0.431087 0)
(0.911998 0.46556 0)
(0.879542 0.448244 0)
(0.969105 0.515583 -1.16613e-24)
(0.94089 0.489567 -1.29314e-28)
(1.02838 0.565469 0)
(0.998346 0.540688 0)
(1.08884 0.61637 3.58625e-25)
(1.0586 0.591055 0)
(1.14688 0.653244 0)
(1.11875 0.638415 0)
(1.19134 0.640033 3.69726e-22)
(1.17193 0.655645 -1.17976e-21)
(1.20509 0.53224 7.76263e-21)
(1.20364 0.599905 2.9802e-21)
(1.17159 0.314008 -1.18365e-20)
(1.19602 0.435004 -6.30287e-21)
(1.1374 0.172863 -1.49705e-20)
(0.836556 0.425816 -3.6279e-21)
(0.735721 0.359179 -3.98883e-21)
(0.894204 -0.490142 -8.17786e-22)
(0.898653 -0.495439 -5.32196e-22)
(0.863243 0.324314 0)
(0.66355 0.192578 -2.37169e-21)
(0.891749 0.20081 1.39253e-22)
(0.5968 0.00952526 1.00936e-22)
(0.609644 0.0245789 -1.00753e-22)
(0.923993 0.0699795 1.02043e-20)
(0.950861 -0.056789 5.00793e-21)
(0.991194 -0.402017 8.07212e-22)
(0.967394 -0.177455 9.35705e-21)
(1.03622 -0.13408 -6.03677e-22)
(0.963319 -0.392157 2.69961e-22)
(0.977194 -0.377538 0)
(0.782145 0.392378 0)
(0.581657 -0.123046 -2.99744e-21)
(0.581522 -0.123547 5.30751e-22)
(0.614822 0.119837 9.17195e-22)
(0.5927 -0.00270188 -9.27048e-22)
(0.679535 0.337848 3.75568e-22)
(0.64476 0.234985 0)
(0.753481 0.493699 1.09386e-22)
(0.716726 0.424535 0)
(0.821929 0.581777 0)
(0.788957 0.545421 -1.10042e-22)
(0.877468 0.618251 0)
(0.851846 0.6047 0)
(0.912172 0.639281 -4.70277e-24)
(0.897736 0.628053 0)
(0.926758 0.674401 -6.65309e-24)
(0.921127 0.655319 0)
(0.937583 0.690595 1.71931e-23)
(0.931613 0.6894 0)
(0.957413 0.621752 1.13012e-23)
(0.945992 0.669676 0)
(0.988159 0.444289 1.43676e-23)
(0.971728 0.545898 0)
(1.02393 0.182981 -1.31548e-25)
(1.00583 0.321351 0)
(1.05959 -0.110476 1.62225e-25)
(1.04205 0.0362597 0)
(1.08914 -0.366061 0)
(1.07575 -0.247671 0)
(1.10298 -0.523056 0)
(1.09853 -0.458816 0)
(1.09719 -0.57402 0)
(1.10241 -0.560033 0)
(1.07663 -0.555515 0)
(1.08829 -0.570642 0)
(1.0493 -0.507663 5.85933e-22)
(1.06333 -0.533389 0)
(1.02078 -0.453397 8.34973e-22)
(1.03473 -0.480837 -1.44537e-21)
(1.00563 -0.427763 0)
(0.937414 -0.418735 0)
(0.950118 -0.406128 3.09767e-22)
(0.915458 -0.440767 -2.04421e-22)
(0.925713 -0.430226 2.06383e-22)
(0.899583 -0.459153 0)
(0.906654 -0.450264 0)
(0.892188 -0.475996 0)
(0.89472 -0.467697 0)
(0.892096 -0.48362 9.44213e-22)
(0.90555 -0.499193 5.6171e-22)
(0.904271 -0.486561 -3.99613e-22)
(0.907119 -0.490861 -4.68447e-22)
(0.886015 -0.484687 0)
(0.896966 -0.485531 0)
(0.855356 -0.469707 0)
(0.87208 -0.480095 0)
(0.814819 -0.423981 -1.60386e-24)
(0.836197 -0.451537 0)
(0.767787 -0.335431 0)
(0.791716 -0.385631 0)
(0.723014 -0.198781 0)
(0.74438 -0.272834 0)
(0.692363 -0.0249683 0)
(0.705206 -0.115054 0)
(0.685932 0.157062 0)
(0.685598 0.0674291 0)
(0.71207 0.304227 0)
(0.694437 0.238024 0)
(0.774869 0.378287 -6.53491e-25)
(0.739322 0.35108 0)
(0.855317 0.400397 -5.57931e-25)
(0.815221 0.391418 0)
(0.922651 0.435179 0)
(0.891342 0.414004 0)
(0.981186 0.486084 1.16613e-24)
(0.951686 0.460696 1.29314e-28)
(1.04392 0.534211 0)
(1.01211 0.510072 0)
(1.10992 0.584281 3.85144e-25)
(1.07641 0.559367 0)
(1.17796 0.62343 0)
(1.14428 0.606606 0)
(1.236 0.621511 0)
(1.20939 0.630355 0)
(1.26421 0.533594 1.82644e-21)
(1.25552 0.590631 0)
(1.24173 0.336559 0)
(1.26017 0.447948 3.59301e-22)
(1.16736 0.0604885 2.46712e-21)
(1.20745 0.203961 -4.63358e-21)
(0.976076 -0.280842 -1.36e-20)
(1.05506 -0.223702 -3.5051e-21)
(1.11352 -0.0851248 8.67282e-21)
(0.801891 0.29069 1.84806e-21)
(0.699901 0.22272 1.39555e-21)
(0.827697 0.169692 0)
(0.632521 0.0441323 1.05609e-21)
(0.856212 0.0371829 -2.37938e-21)
(0.590205 -0.11848 -1.73626e-21)
(0.881786 -0.0944912 -2.47373e-21)
(0.582955 -0.232002 0)
(0.5779 -0.245934 2.46908e-21)
(0.901732 -0.218085 0)
(0.910061 -0.329715 -9.24417e-21)
(0.990875 -0.348519 -4.53756e-21)
(0.914023 -0.412507 5.76281e-21)
(1.00592 -0.386576 -1.06777e-21)
(0.927856 -0.454146 1.55373e-20)
(0.914808 -0.501169 0)
(0.950161 -0.367484 -5.01159e-22)
(0.963371 -0.352975 -1.89415e-22)
(0.912692 -0.513271 -2.30928e-21)
(0.900945 -0.509688 1.7774e-21)
(0.955636 -0.436172 5.38578e-20)
(0.99109 -0.36209 1.85436e-22)
(0.746911 0.255986 0)
(0.602858 -0.318031 8.82795e-22)
(0.622859 -0.282154 1.69274e-23)
(0.588911 -0.121626 3.7601e-22)
(0.596359 -0.214932 -3.79658e-22)
(0.614596 0.0972372 5.2663e-22)
(0.595731 -0.0143577 -2.20809e-22)
(0.674452 0.302749 1.88821e-22)
(0.641709 0.204878 -2.73822e-22)
(0.747608 0.456268 0)
(0.710573 0.386961 0)
(0.819303 0.548843 0)
(0.78434 0.509797 0)
(0.879188 0.593848 0)
(0.851402 0.575519 0)
(0.918571 0.625912 4.70277e-24)
(0.901638 0.609183 0)
(0.940526 0.666822 0)
(0.930793 0.646018 0)
(0.962014 0.680305 -4.74624e-25)
(0.950338 0.681224 0)
(0.994156 0.606204 -4.41872e-25)
(0.976576 0.656713 0)
(1.03577 0.425361 0)
(1.01423 0.528256 0)
(1.07951 0.163953 -4.78634e-25)
(1.05782 0.302018 0)
(1.11905 -0.127152 5.14431e-25)
(1.10019 0.0180055 0)
(1.14675 -0.376602 0)
(1.1351 -0.261828 0)
(1.15307 -0.524058 0)
(1.15293 -0.464813 0)
(1.13716 -0.565879 0)
(1.14753 -0.556151 0)
(1.10718 -0.541715 5.57643e-24)
(1.12331 -0.559157 0)
(1.0723 -0.49178 -2.36541e-22)
(1.0899 -0.518129 0)
(1.03812 -0.437628 -7.16403e-22)
(1.05493 -0.464531 2.38583e-22)
(1.02108 -0.411638 3.31103e-22)
(0.925296 -0.394917 1.52596e-22)
(0.937503 -0.381579 -4.58428e-22)
(0.904316 -0.420204 0)
(0.914103 -0.407637 0)
(0.888853 -0.44556 0)
(0.895813 -0.432774 0)
(0.881707 -0.471341 0)
(0.884029 -0.458497 0)
(0.885428 -0.494389 5.66352e-22)
(0.88213 -0.483543 -4.30181e-22)
(0.891857 -0.503201 6.22158e-22)
(0.91074 -0.481391 8.55836e-22)
(0.914708 -0.489507 4.48532e-22)
(0.890891 -0.471714 0)
(0.902757 -0.476356 0)
(0.857812 -0.451347 0)
(0.875665 -0.464211 0)
(0.815912 -0.401635 0)
(0.837772 -0.430976 0)
(0.769197 -0.312003 0)
(0.792759 -0.362207 0)
(0.725948 -0.179638 0)
(0.746466 -0.25082 0)
(0.697201 -0.0156653 0)
(0.709086 -0.100203 0)
(0.693183 0.151875 0)
(0.691492 0.0700613 0)
(0.723839 0.280502 0)
(0.703621 0.223897 0)
(0.79137 0.339753 4.26109e-25)
(0.753876 0.318485 0)
(0.870202 0.363455 3.64602e-25)
(0.831835 0.35157 0)
(0.933803 0.405539 0)
(0.903887 0.381498 0)
(0.993352 0.455403 0)
(0.962939 0.431259 0)
(1.05801 0.5014 0)
(1.02521 0.478208 0)
(1.12783 0.548784 3.38431e-24)
(1.09203 0.525314 0)
(1.20353 0.587432 0)
(1.16533 0.570198 0)
(1.27395 0.593619 5.71544e-22)
(1.24066 0.596946 0)
(1.3173 0.525147 -5.38592e-24)
(1.30093 0.571215 -5.78497e-22)
(1.30759 0.353621 -3.70749e-21)
(1.32009 0.452406 3.59296e-21)
(1.23982 0.102408 4.03074e-21)
(1.27941 0.235387 3.77458e-21)
(1.12687 -0.176777 6.91499e-21)
(1.18748 -0.0376271 -8.32765e-21)
(1.04852 -0.312374 -1.66845e-20)
(0.766887 0.135736 -4.86176e-22)
(0.666786 0.0704129 1.34968e-21)
(0.894863 -0.516188 9.86956e-22)
(0.910118 -0.520189 -6.97011e-22)
(1.04242 -0.371137 9.02356e-21)
(0.790866 0.00262462 -4.36555e-21)
(0.609112 -0.106817 0)
(0.815807 -0.131395 -4.51982e-21)
(0.581724 -0.253661 1.73707e-21)
(0.836895 -0.259371 -5.10531e-23)
(0.590805 -0.346948 0)
(0.848578 -0.37487 4.06231e-21)
(0.66766 -0.319018 1.94826e-22)
(0.640109 -0.370135 -1.09539e-21)
(0.853845 -0.466519 0)
(0.84723 -0.532415 4.95908e-21)
(0.870237 -0.550237 -1.12177e-20)
(0.976776 -0.338043 -1.85898e-22)
(0.712275 0.101713 0)
(0.725902 -0.332343 0)
(0.760098 -0.274852 6.26238e-23)
(0.653038 -0.24095 -2.07266e-22)
(0.703563 -0.264896 4.16276e-23)
(0.603214 -0.117683 1.35638e-23)
(0.618366 -0.192062 -1.35891e-23)
(0.620053 0.0757413 0)
(0.604604 -0.0244975 -3.93292e-23)
(0.675614 0.26869 -6.21476e-25)
(0.644708 0.175818 0)
(0.747428 0.418845 0)
(0.710584 0.350381 0)
(0.82048 0.514354 0)
(0.784599 0.473198 0)
(0.882667 0.567671 0)
(0.853675 0.54457 0)
(0.925591 0.609931 -3.34237e-24)
(0.906595 0.588334 0)
(0.954604 0.654687 5.03812e-24)
(0.940847 0.633169 0)
(0.986611 0.664165 -1.53126e-23)
(0.969319 0.667693 0)
(1.03076 0.584586 -6.6003e-25)
(1.00718 0.637636 0)
(1.08322 0.401573 -1.30665e-23)
(1.05654 0.504995 0)
(1.13483 0.141863 -1.57329e-23)
(1.10966 0.278716 0)
(1.17839 -0.144614 8.18955e-25)
(1.15813 -0.00225241 0)
(1.2037 -0.384331 0)
(1.1941 -0.275134 0)
(1.20148 -0.518732 0)
(1.20621 -0.46603 0)
(1.17469 -0.550613 0)
(1.19049 -0.545135 0)
(1.13537 -0.522485 -5.57643e-24)
(1.15587 -0.541202 0)
(1.0939 -0.472609 0)
(1.11461 -0.498585 0)
(1.05476 -0.420099 2.58e-24)
(1.07427 -0.445938 0)
(1.02062 -0.370276 -1.86277e-22)
(1.03752 -0.394483 0)
(0.99027 -0.32281 1.10093e-22)
(1.00518 -0.346221 2.92928e-22)
(0.962674 -0.313926 2.26362e-22)
(0.93657 -0.342816 3.74459e-23)
(0.949602 -0.328415 3.79025e-22)
(0.911853 -0.371776 0)
(0.924142 -0.3573 1.20702e-22)
(0.889916 -0.402812 0)
(0.90021 -0.386892 0)
(0.87366 -0.436477 0)
(0.880947 -0.419424 0)
(0.866963 -0.469966 0)
(0.868794 -0.453522 0)
(0.873605 -0.498319 0)
(0.868505 -0.4852 0)
(0.882522 -0.508872 -1.18603e-21)
(0.928204 -0.520435 2.52046e-21)
(0.926278 -0.501015 -4.75649e-22)
(0.926651 -0.514324 0)
(0.919206 -0.475323 0)
(0.924129 -0.487141 -4.21724e-22)
(0.897753 -0.457727 0)
(0.910526 -0.466123 0)
(0.862787 -0.432015 0)
(0.8816 -0.447239 0)
(0.819641 -0.379075 5.68651e-25)
(0.841945 -0.409769 0)
(0.773324 -0.289157 0)
(0.796477 -0.339003 0)
(0.73165 -0.16141 0)
(0.751294 -0.229609 0)
(0.70488 -0.00740461 0)
(0.715746 -0.0863189 0)
(0.703847 0.14489 0)
(0.700416 0.0713979 0)
(0.739974 0.254064 0)
(0.716756 0.207346 0)
(0.811068 0.300824 2.27382e-25)
(0.772626 0.283822 0)
(0.885623 0.328976 1.93329e-25)
(0.850169 0.313239 0)
(0.945131 0.37649 0)
(0.91655 0.350916 0)
(1.00494 0.424124 0)
(0.974226 0.401438 0)
(1.06993 0.467763 0)
(1.03692 0.445769 0)
(1.14144 0.511464 -2.60849e-24)
(1.10458 0.489956 0)
(1.22138 0.548161 0)
(1.18054 0.531363 0)
(1.30265 0.559623 0)
(1.26284 0.558973 0)
(1.36337 0.509732 8.41505e-25)
(1.33747 0.545022 0)
(1.37194 0.366318 0)
(1.37593 0.450211 0)
(1.31531 0.139714 9.09674e-23)
(1.35199 0.260473 -1.80224e-21)
(1.20772 -0.118222 3.23186e-21)
(1.26716 0.0117535 -3.33163e-21)
(1.13324 -0.247866 -2.38748e-21)
(0.975901 -0.299458 -3.37239e-22)
(0.731684 -0.0311793 4.85901e-22)
(0.639449 -0.0877177 0)
(0.810159 -0.28857 -2.9111e-23)
(0.782922 -0.339303 2.52715e-25)
(0.754223 -0.167257 4.233e-21)
(0.595241 -0.252475 0)
(0.775111 -0.298648 3.16347e-21)
(0.587353 -0.368757 0)
(0.791043 -0.415254 -4.1432e-21)
(0.620359 -0.415571 0)
(0.798108 -0.51305 -4.01174e-21)
(0.69451 -0.390769 0)
(0.797518 -0.58169 -8.00297e-21)
(0.793535 -0.614756 2.97409e-21)
(0.931451 -0.480222 1.27609e-21)
(0.849465 -0.550256 -2.97309e-20)
(0.842531 -0.544412 2.19892e-21)
(1.0036 -0.307219 7.36276e-23)
(0.947759 -0.517803 -5.10244e-21)
(0.955578 -0.508489 -1.49061e-21)
(0.988921 -0.284657 -1.63003e-22)
(0.931229 -0.513554 0)
(0.680687 -0.0615378 0)
(0.850905 -0.314092 4.69796e-23)
(0.869482 -0.277323 5.41629e-22)
(0.795129 -0.222967 -4.2014e-22)
(0.835825 -0.245628 -5.61687e-22)
(0.692856 -0.193896 -2.80866e-22)
(0.744233 -0.209937 3.66036e-22)
(0.625508 -0.107226 -1.41878e-22)
(0.650305 -0.162034 3.04832e-22)
(0.629847 0.0572389 0)
(0.61955 -0.0309595 0)
(0.680994 0.236044 -5.46915e-25)
(0.651682 0.148656 0)
(0.751301 0.381628 0)
(0.714958 0.314561 0)
(0.82412 0.479367 0)
(0.788259 0.436305 0)
(0.886728 0.540659 0)
(0.857402 0.513019 0)
(0.932276 0.591554 3.34237e-24)
(0.911528 0.566069 0)
(0.968315 0.638006 -5.03811e-24)
(0.950471 0.616788 0)
(1.01095 0.642186 1.38835e-23)
(0.98803 0.648841 0)
(1.06694 0.557083 -8.43886e-25)
(1.03745 0.612509 0)
(1.12992 0.373064 9.26331e-25)
(1.09828 0.476344 0)
(1.18934 0.116579 1.39594e-23)
(1.16067 0.251408 0)
(1.2364 -0.162441 1.05862e-24)
(1.21509 -0.0244154 0)
(1.25826 -0.388948 0)
(1.25137 -0.287 0)
(1.24647 -0.508692 0)
(1.25645 -0.462996 0)
(1.20899 -0.53121 0)
(1.22997 -0.529533 0)
(1.16125 -0.500229 0)
(1.18554 -0.519707 0)
(1.11416 -0.451276 0)
(1.13725 -0.476553 0)
(1.07176 -0.400797 -1.90145e-24)
(1.0924 -0.425712 0)
(1.03509 -0.353089 2.78945e-22)
(1.05302 -0.376358 -9.4199e-23)
(1.01892 -0.329862 -7.32979e-23)
(0.830971 -0.356121 -9.11898e-25)
(0.884479 -0.349074 0)
(0.899629 -0.31336 1.64947e-23)
(0.949101 -0.289495 -9.00454e-23)
(0.975324 -0.261541 5.26708e-23)
(0.962219 -0.275475 -5.16113e-23)
(0.922402 -0.31856 0)
(0.935723 -0.303767 0)
(0.895645 -0.351466 0)
(0.909071 -0.334376 -1.19365e-22)
(0.871518 -0.389588 0)
(0.882852 -0.369907 0)
(0.854583 -0.430208 0)
(0.86192 -0.409923 0)
(0.849813 -0.467712 0)
(0.850307 -0.449729 0)
(0.861223 -0.496739 0)
(0.853413 -0.483658 0)
(0.889227 -0.512683 -3.44319e-22)
(0.873229 -0.506529 -8.42748e-23)
(0.908899 -0.515078 7.00548e-22)
(0.939563 -0.498945 3.26201e-22)
(0.942575 -0.512394 2.46681e-22)
(0.929161 -0.46808 0)
(0.935183 -0.483234 -1.03422e-22)
(0.906115 -0.442967 0)
(0.919507 -0.455082 0)
(0.869786 -0.411891 0)
(0.889299 -0.429452 0)
(0.82566 -0.356325 -5.68651e-25)
(0.84832 -0.387997 0)
(0.779748 -0.266905 1.07733e-25)
(0.80251 -0.31603 0)
(0.739573 -0.144124 0)
(0.758382 -0.209221 0)
(0.714901 -0.000351623 0)
(0.724621 -0.0734568 0)
(0.717893 0.135524 0)
(0.712058 0.0710685 0)
(0.760476 0.224819 -4.05963e-25)
(0.733997 0.187804 0)
(0.832966 0.262794 0)
(0.79507 0.247788 0)
(0.900864 0.297618 0)
(0.869147 0.277672 0)
(0.956484 0.348132 0)
(0.929036 0.322379 0)
(1.01577 0.392998 6.35899e-26)
(0.985336 0.371703 0)
(1.08006 0.434071 0)
(1.04731 0.413529 0)
(1.15171 0.473376 3.62692e-25)
(1.11472 0.454203 0)
(1.23273 0.506347 1.4401e-24)
(1.1911 0.491094 0)
(1.31953 0.520477 0)
(1.27604 0.517125 0)
(1.39557 0.487845 8.55479e-25)
(1.36065 0.512326 0)
(1.4279 0.374329 0)
(1.41954 0.442516 0)
(1.39059 0.178584 1.56175e-21)
(1.418 0.284679 0)
(1.29538 -0.0555684 -3.11916e-22)
(1.34979 0.0628858 -1.53635e-21)
(1.14241 -0.285066 -5.18061e-21)
(1.22585 -0.173796 -3.76948e-21)
(0.95623 -0.448912 5.33052e-21)
(1.04668 -0.379862 2.69406e-21)
(0.891649 -0.476062 -1.13138e-20)
(0.783545 -0.526291 3.2465e-23)
(0.876086 -0.452278 -3.93744e-23)
(0.699916 -0.198382 0)
(0.619502 -0.242595 0)
(0.937305 -0.489152 1.67769e-21)
(0.966693 -0.480547 -1.70049e-21)
(0.719744 -0.331811 0)
(0.59358 -0.380872 0)
(0.736404 -0.452826 9.39491e-22)
(0.609145 -0.452806 0)
(0.747608 -0.552514 0)
(0.668303 -0.447371 -3.3852e-22)