/*--------------------------------*- C++ -*----------------------------------*\
  =========                 |
  \\      /  F ield         | OpenFOAM: The Open Source CFD Toolbox
   \\    /   O peration     | Website:  https://openfoam.org
    \\  /    A nd           | Version:  10
     \\/     M anipulation  |
\*---------------------------------------------------------------------------*/
FoamFile
{
    format      ascii;
    class       volVectorField;
    location    "76";
    object      U;
}
// * * * * * * * * * * * * * * * * * * * * * * * * * * * * * * * * * * * * * //

dimensions      [0 1 -1 0 0 0 0];

internalField   nonuniform List<vector> 
28942
(
(0.00443176 -0.00225808 -3.42753e-22)
(0.00599836 -0.00234171 -6.37047e-23)
(0.0179363 -0.0123865 -8.22676e-22)
(0.103306 0.0182357 -5.25096e-21)
(0.102343 0.0222782 1.71932e-21)
(0.0142406 0.0004392 0)
(0.0169258 2.05828e-05 1.07721e-23)
(0.0196285 0.000567543 -9.52199e-24)
(0.13524 -0.0184243 -2.54064e-22)
(0.133896 -0.0167899 7.23227e-22)
(0.00979768 0.00401527 -6.7466e-22)
(0.0160725 0.00563003 2.55915e-22)
(0.00713929 0.00315342 0)
(0.00470864 0.00207005 0)
(0.0445145 0.00197885 -1.49453e-23)
(0.0427164 0.00254679 -5.96619e-24)
(0.089316 0.0158861 6.66777e-22)
(0.0870039 0.0138547 1.07314e-21)
(0.0121644 -0.0151123 2.90978e-21)
(0.0293304 -0.030467 -7.65785e-22)
(0.0981186 0.037395 9.50551e-22)
(0.0972971 0.0344311 0)
(0.0187423 0.00462807 1.16662e-21)
(0.00786498 0.00236404 5.50233e-22)
(0.0378015 0.00721275 9.43834e-22)
(0.0575357 0.00291388 -8.60433e-22)
(0.00764759 -0.018491 8.49793e-21)
(0.00669352 -0.0165555 -3.13009e-21)
(0.0355094 -0.0253223 5.70236e-22)
(0.0193001 -0.0136818 1.96792e-22)
(0.0146151 -0.00134268 0)
(0.0182723 -0.00116369 -1.3528e-23)
(0.0232198 0.00420478 2.81373e-22)
(0.0334629 0.00188142 -4.37875e-23)
(0.0188255 0.0180095 1.31124e-21)
(0.0157199 0.0191194 -1.30114e-21)
(0.0321695 0.0376167 -3.04796e-21)
(0.0186692 0.030535 -1.06734e-21)
(0.007807 -7.42705e-06 -9.00552e-24)
(0.00864883 0.0161969 -2.6111e-21)
(0.0306492 -0.00620319 0)
(0.0513424 -0.0109694 0)
(0.1119 -0.0118226 -2.68875e-23)
(0.111399 -0.011825 7.9298e-23)
(0.115938 -0.0117223 6.90882e-23)
(0.0276823 0.000189464 1.14094e-23)
(0.0257756 -0.000592896 -1.83556e-23)
(0.0368369 -0.000484973 -8.36685e-23)
(0.0352982 -0.000554802 2.38423e-23)
(0.0286842 -0.00267368 -2.07034e-22)
(0.0213345 -0.00320677 1.34475e-22)
(0.128649 0.00132602 -3.9852e-22)
(0.127965 0.00085296 -3.72391e-22)
(0.134558 -0.0211926 -3.77199e-24)
(0.133011 -0.0194662 1.38122e-22)
(0.0824998 0.00635901 7.1656e-22)
(0.101754 -0.000759669 2.50099e-22)
(0.00305917 0.00162099 -5.65644e-22)
(0.00894462 0.00368001 0)
(0.00825884 0.00328948 2.37401e-22)
(0.0028832 0.0014883 4.88125e-22)
(0.000362299 0.000226285 -4.05791e-22)
(0.000192902 0.000122675 -3.90003e-22)
(0.109774 -0.0426074 0)
(0.104906 -0.0256113 1.27021e-22)
(0.121777 -0.0331142 -4.37589e-23)
(0.123423 -0.0437686 0)
(0.0901076 -0.0328041 -6.37572e-22)
(0.0936116 -0.0352709 -4.19e-22)
(0.00188634 -0.00113034 1.13325e-21)
(0.0024904 -0.00201851 -3.57082e-22)
(0.00487557 -0.00315767 8.85956e-22)
(0.0848779 -0.0457616 0)
(0.0912037 -0.0396248 2.16397e-21)
(0.080547 -0.0530277 5.84593e-22)
(0.114144 0.0123966 2.39222e-22)
(0.112744 0.00689223 -2.65241e-22)
(0.125112 0.0109952 -1.14305e-22)
(0.00468381 -0.00286211 -5.33285e-23)
(0.00633909 -0.00442626 4.4533e-22)
(0.0510125 -0.0311488 1.25085e-22)
(0.0331573 -0.0205383 -2.56824e-22)
(0.00211199 -0.000596639 3.20827e-21)
(0.00515876 -0.00207358 -1.25012e-21)
(0.10099 0.048248 1.27647e-23)
(0.0970362 0.0552154 -7.6221e-22)
(0.0807259 0.0540128 6.95296e-22)
(0.0472075 0.0345115 -2.67304e-21)
(0.0444359 0.0316077 1.89299e-21)
(0.0294936 0.0205964 -1.13057e-22)
(0.0327142 0.0232492 -6.39622e-22)
(0.0379554 0.0283589 8.66991e-22)
(0.00440948 0.00272442 -5.93137e-23)
(0.00776369 0.0039769 -1.70931e-23)
(0.00318908 0.00202048 3.42528e-23)
(0.00192303 0.00164376 -4.58172e-22)
(0.00144963 0.00156694 5.61979e-22)
(0.015743 0.0115441 -3.24524e-21)
(0.0174957 0.0136359 7.43128e-22)
(0.00880685 -0.00384825 0)
(0.101389 0.00515947 0)
(0.0984003 0.0156833 -3.95325e-21)
(0.060441 0.0104756 1.93698e-21)
(0.0886807 0.0178812 0)
(0.135467 -0.00112198 0)
(0.134905 -0.00183705 0)
(0.133215 -0.00233045 -2.46095e-22)
(0.114974 0.0266036 -2.11385e-22)
(0.114066 0.0280067 2.09018e-21)
(0.113268 0.0254668 1.12163e-21)
(0.00229449 0.0012995 1.05507e-21)
(0.00151168 0.000777317 -1.18421e-21)
(0.0190552 -0.00553864 -5.51462e-22)
(0.0201367 -0.0050683 4.71094e-22)
(0.00910409 -0.0029303 9.31191e-22)
(0.00647662 0.0111486 1.47702e-21)
(0.0189679 0.0181592 3.45245e-21)
(0.0134651 0.0227992 2.72185e-22)
(0.00492084 0.0143057 -8.6115e-21)
(0.116995 0.0477494 5.51783e-23)
(0.107868 0.0582387 1.06436e-21)
(0.118328 0.0548757 -1.83559e-21)
(0.0390885 -0.0294158 7.28973e-22)
(0.0240076 -0.0172638 -4.6563e-22)
(0.00532113 -0.000742483 -4.09763e-21)
(0.00453817 -0.00359249 0)
(0.0124959 -0.00167295 1.99991e-21)
(0.0219627 -0.0161293 7.76233e-22)
(0.0342528 -0.0277824 -1.94921e-21)
(0.034835 -2.12215e-05 5.79104e-23)
(0.0370396 0.000138636 -4.23101e-23)
(0.03271 0.000159033 -1.79081e-24)
(0.0280533 -0.0419458 0)
(0.0296026 -0.0428373 0)
(0.0896229 -0.0186531 -4.61786e-22)
(0.0995907 -0.0220908 3.13805e-21)
(0.0870343 -0.0252786 0)
(0.0471141 -0.0401855 0)
(0.0581741 -0.051381 -7.80681e-22)
(0.0413119 0.0393374 2.08141e-21)
(-2.63283e-06 0.000214066 5.15462e-22)
(-0.000194532 0.00013077 -3.39911e-22)
(0.0223251 -0.0192392 -7.88858e-22)
(0.120334 -0.011594 3.89524e-22)
(0.119704 -0.0115427 -7.53919e-23)
(0.115446 -0.00571397 -6.70523e-23)
(0.108375 0.000989258 8.93567e-23)
(0.11764 -0.00030874 1.83436e-22)
(8.20432e-05 0.000259045 1.98862e-22)
(0.043745 0.0344189 3.19609e-21)
(0.0618747 0.046308 -7.8593e-22)
(0.0593101 0.0393652 -3.0067e-24)
(0.0227438 -0.000838534 5.65266e-24)
(0.0224103 -0.000822254 2.96101e-23)
(0.0243187 -0.000600404 1.16442e-24)
(0.0271521 -0.000605713 -1.45813e-23)
(0.0454192 0.0380895 1.33775e-22)
(0.0189615 0.0160588 0)
(0.00013974 -3.01412e-05 3.70818e-22)
(0.00042303 -0.000257241 -4.11402e-22)
(0.00186183 -0.00101299 2.87234e-22)
(0.0365585 -0.00772333 -1.84624e-21)
(0.0648714 -0.00210467 -7.53534e-22)
(0.0315748 -0.000215606 -2.19248e-24)
(0.0744798 -0.0076431 2.71627e-22)
(0.0706904 -0.0157277 6.33872e-23)
(0.0943052 0.0399175 2.13908e-21)
(0.0914061 0.045453 9.92838e-23)
(0.0887492 0.0290854 1.21342e-21)
(0.0914746 0.030802 -8.79355e-22)
(0.0986974 0.0410783 0)
(0.12611 -0.000342325 1.48518e-22)
(0.12688 -0.000776483 2.8043e-22)
(0.128094 -0.0123315 -2.93665e-22)
(0.129558 -0.0121358 5.02576e-22)
(0.117055 0.0241468 2.59143e-22)
(0.119113 0.0250471 -7.33797e-22)
(0.117101 0.0261594 0)
(0.115135 0.0248972 1.52813e-22)
(0.116673 0.0280818 0)
(0.117175 0.0361032 -5.49571e-22)
(0.115713 0.0381551 -3.0011e-22)
(0.111339 0.0419682 -5.39209e-22)
(0.113733 0.0401003 0)
(0.116422 0.0430754 1.78305e-21)
(0.1137 0.0449982 4.73879e-23)
(0.108333 0.0441792 -3.02972e-22)
(0.0996306 0.0502823 -1.2841e-21)
(0.0984207 0.045494 -2.26255e-22)
(0.0249684 -0.00848925 6.06847e-23)
(0.0328272 -0.00934752 -2.4207e-23)
(0.00628708 -0.00248993 -6.95744e-22)
(0.0309661 -8.27621e-05 -3.68969e-23)
(0.0396819 -0.000272234 0)
(-2.74285e-06 -4.03546e-05 4.35986e-22)
(1.33901e-05 -4.74708e-05 2.21995e-22)
(0.0359091 -0.00182123 1.7429e-23)
(0.0424377 -0.00176947 7.14554e-24)
(0.0419821 -0.00121492 0)
(0.0347297 -0.000833717 7.67504e-24)
(0.0862954 0.00358166 -1.09147e-22)
(0.0855382 0.00324367 5.15686e-22)
(0.0864144 0.00333748 2.38514e-22)
(0.000670577 0.000271713 3.94512e-22)
(-0.000159532 -0.000129345 -5.71235e-22)
(-0.000201194 -0.000169063 4.87201e-22)
(0.00150046 0.000617517 0)
(7.99559e-05 8.78124e-05 1.1416e-21)
(0.000171974 -3.89891e-05 -8.23608e-22)
(0.00744883 0.00367378 -9.93771e-22)
(0.00145185 0.000781422 -1.18604e-21)
(0.00172076 0.000860732 0)
(0.00157199 0.00754336 0)
(0.000576949 0.00328098 0)
(0.000313304 0.00197669 0)
(0.136638 -0.00113544 5.52344e-23)
(0.137648 -0.000971276 0)
(0.136012 -0.00192108 -6.44312e-23)
(0.0881113 -0.0148541 4.41837e-21)
(0.0901181 -0.0152632 -1.60385e-21)
(0.0890334 -0.0128787 0)
(0.0982136 0.000267947 -6.48381e-24)
(0.0988533 0.000256772 1.29764e-23)
(0.0975723 0.000279358 -4.38218e-24)
(0.099488 0.000248303 0)
(0.100121 0.000248826 -8.2846e-24)
(0.100747 0.000243883 0)
(0.100747 -0.00042168 0)
(0.101365 0.000226994 3.07857e-23)
(0.101356 -0.000442999 0)
(0.100128 -0.000412801 -8.34307e-24)
(0.099495 -0.000409106 0)
(0.0988594 -0.000404305 4.33739e-24)
(0.0982167 -0.000403154 -6.47943e-24)
(0.0975777 -0.000400159 4.3767e-24)
(0.101969 0.000208493 -2.94594e-23)
(0.101963 -0.000457044 -1.03042e-24)
(0.0969221 0.00029649 -6.27942e-29)
(0.0969222 -0.000389971 -6.68336e-24)
(0.0962612 0.000312123 3.55265e-23)
(0.102564 0.000197732 2.75399e-26)
(0.102575 -0.000461444 -1.03187e-24)
(0.0962652 -0.000387771 1.31651e-23)
(0.10316 0.000186437 2.77479e-23)
(0.103752 0.000178253 -2.77251e-23)
(0.103175 -0.000465941 2.07716e-24)
(0.103769 -0.00046784 4.10754e-24)
(0.0956201 0.000339597 -3.45654e-23)
(0.0956165 -0.000383802 -8.66387e-24)
(0.104338 0.000168786 0)
(0.104356 -0.000470217 -4.05141e-24)
(0.0949562 0.000356535 4.27167e-27)
(0.094954 -0.000373469 -4.28238e-27)
(0.104918 0.000162051 0)
(0.104936 -0.000470243 0)
(0.0942872 0.000369903 0)
(0.0942847 -0.000366527 0)
(0.105492 0.000153737 0)
(0.10551 -0.000470914 1.94703e-24)
(0.0936134 0.000383573 -1.78905e-23)
(0.09361 -0.000358118 -4.3674e-27)
(0.10606 0.000148044 1.0207e-25)
(0.106077 -0.000469189 -2.07944e-24)
(0.0929344 0.000395386 1.79761e-23)
(0.0929306 -0.000351185 0)
(0.106621 0.000140649 0)
(0.106638 -0.000467943 0)
(0.0922512 0.000407883 -1.13619e-24)
(0.0922467 -0.000341761 1.94924e-23)
(0.107175 0.000135841 1.26193e-23)
(0.107192 -0.000463886 0)
(0.0915644 0.000418376 -9.46674e-26)
(0.0915584 -0.000332423 -1.84487e-23)
(0.107722 0.000129425 -1.88748e-23)
(0.10774 -0.000460204 -5.47715e-24)
(0.0908587 0.000421963 1.88004e-23)
(0.0908557 -0.000323259 0)
(0.108263 0.000126571 6.21648e-24)
(0.108282 -0.000450233 3.65281e-24)
(0.0901517 0.000432576 -9.50622e-24)
(0.0901486 -0.000317131 1.92733e-23)
(0.108793 0.000126395 -2.48192e-23)
(0.108822 -0.000432302 2.79735e-23)
(0.0894139 0.000427648 9.79393e-24)
(0.0894198 -0.000316699 3.0981e-25)
(0.109324 0.000129065 0)
(0.10935 -0.000414845 1.3327e-23)
(0.0886695 0.000423176 -1.9686e-23)
(0.0886824 -0.000323835 3.93754e-23)
(0.109866 0.000123008 0)
(0.109877 -0.000403415 0)
(0.0896923 0.00116652 -9.69103e-24)
(0.0889433 0.00116837 -3.91908e-23)
(0.0879019 0.000412093 0)
(0.0879321 -0.000343075 -2.00457e-23)
(0.0911425 0.00115315 -6.0924e-24)
(0.0904202 0.00116087 1.19625e-24)
(0.092528 0.00112307 0)
(0.0918327 0.00113779 -1.96918e-23)
(0.0938824 0.00108849 -3.80923e-26)
(0.0932082 0.0011063 0)
(0.0952139 0.00105027 0)
(0.0945508 0.00106978 0)
(0.0965259 0.00100427 0)
(0.0958722 0.00102915 0)
(0.0977933 0.000957731 8.65547e-24)
(0.0971558 0.000979783 2.18036e-24)
(0.0990596 0.00092373 -8.35204e-24)
(0.0984336 0.000940273 -8.64018e-24)
(0.100304 0.000895531 1.48476e-23)
(0.0996782 0.0009032 1.89571e-23)
(0.101548 0.000872206 0)
(0.100928 0.000887085 0)
(0.102751 0.000845847 -6.53109e-26)
(0.102154 0.000858811 0)
(0.103929 0.000817354 0)
(0.103343 0.000831675 0)
(0.105084 0.000788661 0)
(0.104509 0.000802863 0)
(0.106214 0.000760675 0)
(0.105652 0.00077449 0)
(0.107318 0.000733397 0)
(0.106769 0.000746882 0)
(0.108394 0.000706305 0)
(0.10786 0.000719806 0)
(0.109448 0.000662496 -1.01364e-23)
(0.108921 0.000691605 0)
(0.109973 0.000639663 -3.27201e-24)
(0.110395 0.000112712 3.19491e-24)
(0.110402 -0.000396039 -3.16832e-24)
(0.108945 -0.00095823 0)
(0.10999 -0.00091951 -1.3002e-23)
(0.10947 -0.000937803 -6.70258e-24)
(0.107873 -0.00099617 1.83565e-24)
(0.108411 -0.000979144 -7.18114e-24)
(0.106781 -0.00102133 5.94477e-26)
(0.10733 -0.00101075 0)
(0.105663 -0.0010377 0)
(0.106225 -0.00103002 0)
(0.104518 -0.00105007 0)
(0.105094 -0.00104425 0)
(0.103348 -0.00105943 0)
(0.103936 -0.00105498 7.82068e-30)
(0.102152 -0.0010674 6.59311e-26)
(0.102753 -0.00106335 0)
(0.100941 -0.00106606 0)
(0.101546 -0.00106866 0)
(0.0997014 -0.00106074 0)
(0.100322 -0.00106298 0)
(0.0984391 -0.00105988 0)
(0.0990716 -0.00105763 -4.38533e-24)
(0.0971564 -0.0010639 1.15127e-24)
(0.097799 -0.00106546 -5.64933e-24)
(0.0958651 -0.00106924 0)
(0.0965178 -0.00106497 -4.59316e-24)
(0.0945429 -0.00106734 0)
(0.095207 -0.00106864 0)
(0.0931971 -0.00106389 0)
(0.0938729 -0.00106571 0)
(0.0918236 -0.00105791 0)
(0.0925149 -0.00106126 0)
(0.0904166 -0.00105155 -4.98144e-24)
(0.0911258 -0.00105332 0)
(0.0889803 -0.00106483 -2.01435e-23)
(0.0897025 -0.00105265 -5.00222e-24)
(0.0882406 -0.00108214 2.0493e-23)
(0.0881812 0.00117185 3.88471e-23)
(0.110494 0.000620618 6.40418e-24)
(0.110507 -0.000900668 -1.25059e-23)
(0.0871603 -0.000373731 0)
(0.0874933 -0.00111471 0)
(0.0874069 0.00117511 0)
(0.0871213 0.000393251 0)
(0.0902484 0.00188991 0)
(0.0887793 0.00192686 9.73095e-24)
(0.0895186 0.00190637 9.83171e-24)
(0.0916763 0.00185089 1.25101e-23)
(0.0909682 0.00187163 -2.49998e-24)
(0.0930372 0.00180265 3.87249e-26)
(0.0923618 0.00182683 0)
(0.0943691 0.00175413 0)
(0.0937062 0.00177851 0)
(0.0956775 0.00170492 0)
(0.0950261 0.0017296 0)
(0.0969664 0.00165768 0)
(0.096324 0.00168031 0)
(0.0982286 0.00160948 0)
(0.0975999 0.00163429 0)
(0.0994706 0.00156671 -3.5008e-26)
(0.0988482 0.00158896 9.02611e-24)
(0.100684 0.0015222 -3.36162e-26)
(0.100084 0.00154317 -1.76295e-23)
(0.101895 0.0014766 0)
(0.101291 0.00149838 0)
(0.103079 0.00143553 3.26095e-26)
(0.10249 0.00145573 0)
(0.104238 0.00139499 0)
(0.103661 0.00141527 0)
(0.105373 0.00135434 0)
(0.104808 0.00137464 0)
(0.106484 0.0013137 0)
(0.105932 0.001334 0)
(0.10757 0.00127288 0)
(0.10703 0.00129332 0)
(0.108627 0.00123024 0)
(0.108102 0.00125207 0)
(0.109663 0.0011727 6.92337e-24)
(0.109146 0.00120421 0)
(0.110916 0.00010736 0)
(0.111005 0.000602075 6.256e-24)
(0.110685 0.00111451 0)
(0.110175 0.00114324 6.7434e-24)
(0.110201 -0.00142637 1.34189e-23)
(0.110705 -0.00139899 3.29372e-24)
(0.111017 -0.00088592 2.57129e-23)
(0.110919 -0.000385879 0)
(0.109173 -0.0014813 0)
(0.109689 -0.00145396 -2.0261e-23)
(0.108122 -0.00153035 5.77419e-26)
(0.108651 -0.00150558 7.22481e-24)
(0.107049 -0.00156741 -5.94475e-26)
(0.107589 -0.00155007 0)
(0.10595 -0.00159725 0)
(0.106503 -0.00158297 0)
(0.104824 -0.00162251 0)
(0.10539 -0.00161036 0)
(0.103674 -0.00164424 0)
(0.104252 -0.00163374 -7.82066e-30)
(0.102501 -0.00166336 -1.31763e-25)
(0.10309 -0.0016541 0)
(0.101309 -0.0016779 0)
(0.101907 -0.00167141 0)
(0.10009 -0.00168953 2.21223e-24)
(0.100702 -0.00168365 0)
(0.0988536 -0.00169823 0)
(0.0994729 -0.00169184 -2.203e-24)
(0.0975953 -0.00171101 4.60356e-24)
(0.0982231 -0.00170503 4.57786e-24)
(0.0963156 -0.00171956 0)
(0.0969592 -0.00171564 0)
(0.0950131 -0.00172862 0)
(0.0956671 -0.0017241 0)
(0.0936871 -0.00173778 0)
(0.0943531 -0.00173314 0)
(0.0923348 -0.00174789 0)
(0.0930144 -0.00174257 0)
(0.0909533 -0.00176121 7.95819e-26)
(0.091648 -0.001754 0)
(0.0895395 -0.00178105 -8.05894e-26)
(0.0902516 -0.00177045 0)
(0.0880949 -0.0018345 -2.10614e-23)
(0.0888201 -0.00180414 2.10518e-23)
(0.0880261 0.00194739 1.97783e-23)
(0.0867413 -0.00115918 0)
(0.0873627 -0.00187793 -4.27792e-23)
(0.0863885 -0.000411574 0)
(0.111185 0.00109244 0)
(0.111206 -0.00137084 -3.19367e-24)
(0.0866272 0.00117852 5.00503e-23)
(0.0872676 0.00196872 2.0015e-23)
(0.0859742 -0.00120638 1.08193e-23)
(0.0866209 -0.00192927 5.40599e-23)
(0.0863287 0.000370169 0)
(0.110966 0.00160334 2.63381e-23)
(0.111452 0.00156965 -1.30055e-23)
(0.111515 -0.000867088 -6.32441e-24)
(0.111696 -0.0013394 3.14352e-23)
(0.0882361 0.00273015 7.02422e-23)
(0.0864892 0.0019894 -3.94331e-23)
(0.0867159 0.00279122 -1.75932e-22)
(0.0874725 0.00275692 -4.01158e-23)
(0.0896817 0.00265931 1.95753e-23)
(0.0889648 0.00269611 -5.97818e-23)
(0.0910799 0.00259034 -2.00319e-23)
(0.0903873 0.00262471 -1.50953e-23)
(0.0924535 0.00252767 -5.00227e-24)
(0.0917732 0.00256011 -5.00177e-24)
(0.0937815 0.00246675 -3.87249e-26)
(0.0931236 0.00249755 0)
(0.0950787 0.00240535 0)
(0.0944331 0.00243595 0)
(0.0963525 0.00234504 0)
(0.0957183 0.00237506 0)
(0.0976057 0.00228668 0)
(0.0969816 0.00231544 0)
(0.0988373 0.00223088 0)
(0.0982239 0.00225821 0)
(0.100047 0.00217548 0)
(0.0994441 0.00220296 0)
(0.101236 0.00212178 6.977e-29)
(0.100645 0.00214931 0)
(0.102408 0.00206622 0)
(0.101824 0.0020936 0)
(0.10356 0.00201315 3.25136e-26)
(0.102987 0.00203947 0)
(0.10469 0.00196081 0)
(0.104128 0.00198697 0)
(0.105797 0.0019083 0)
(0.105247 0.00193461 0)
(0.10688 0.00185521 0)
(0.106342 0.00188185 0)
(0.107938 0.00180108 0)
(0.107413 0.00182833 0)
(0.10897 0.0017439 0)
(0.108457 0.00177319 0)
(0.109977 0.00167519 3.52324e-24)
(0.109476 0.00171092 -1.77351e-24)
(0.110475 0.00163971 -1.34396e-23)
(0.111418 0.000106508 -2.99725e-24)
(0.111677 0.00106884 1.25216e-23)
(0.111504 0.000590049 -9.58458e-24)
(0.111421 -0.00038371 0)
(0.110505 -0.00192132 -9.98211e-24)
(0.111479 -0.00184386 -2.8784e-23)
(0.110995 -0.00188396 2.31895e-23)
(0.109508 -0.00199526 0)
(0.110009 -0.00195785 0)
(0.108485 -0.00205209 -9.58251e-29)
(0.108999 -0.00202286 0)
(0.107439 -0.00210219 0)
(0.107965 -0.00207824 0)
(0.106367 -0.00214512 -6.09033e-26)
(0.106906 -0.00212439 0)
(0.10527 -0.00218287 0)
(0.105821 -0.00216459 0)
(0.104149 -0.00221632 0)
(0.104712 -0.0022001 0)
(0.103006 -0.00224608 6.58414e-26)
(0.10358 -0.00223165 0)
(0.101842 -0.00227187 6.73069e-26)
(0.102427 -0.00225948 0)
(0.100656 -0.00229528 0)
(0.101251 -0.00228368 0)
(0.099449 -0.0023166 0)
(0.100055 -0.00230628 0)
(0.0982213 -0.0023377 0)
(0.0988369 -0.00232692 0)
(0.0969721 -0.0023568 0)
(0.0975996 -0.00234714 0)
(0.0957006 -0.00237715 -7.50158e-26)
(0.0963391 -0.00236687 0)
(0.0944059 -0.00239873 0)
(0.0950563 -0.00238775 0)
(0.0930854 -0.00242268 0)
(0.093749 -0.00241031 0)
(0.091737 -0.00245094 -1.58809e-28)
(0.0924148 -0.00243615 0)
(0.090359 -0.00248552 1.75266e-28)
(0.091052 -0.00246742 0)
(0.0889534 -0.00253689 8.31285e-26)
(0.0896566 -0.00250648 0)
(0.0875253 -0.00262416 -4.36719e-23)
(0.0882412 -0.00257511 1.07429e-23)
(0.0858692 -0.00198083 1.09875e-23)
(0.0868137 -0.00268122 2.18375e-23)
(0.0858373 0.00117514 -1.96072e-23)
(0.0855999 -0.000453024 -2.09573e-23)
(0.111931 0.00153604 3.18073e-24)
(0.111958 -0.00180795 2.26187e-23)
(0.0856746 0.00198937 2.46505e-24)
(0.0851981 -0.00126109 0)
(0.0857136 0.00269852 2.69639e-22)
(0.0860968 -0.00274095 3.35294e-23)
(0.0851241 -0.00203754 4.47656e-23)
(0.0873435 0.00371915 -4.43793e-22)
(0.0870619 0.00386517 8.14117e-23)
(0.0855437 0.000349481 0)
(0.0881741 0.00355542 4.50705e-23)
(0.0876504 0.00366077 2.29879e-23)
(0.089482 0.00344714 4.07059e-23)
(0.0887893 0.00349042 -6.20389e-23)
(0.0908514 0.00335373 -2.02651e-23)
(0.090177 0.0034024 -1.01065e-23)
(0.0921753 0.00326725 1.01652e-23)
(0.091517 0.00330924 1.02884e-23)
(0.0934771 0.0031856 0)
(0.0928267 0.00322485 -1.70859e-26)
(0.09475 0.00310979 0)
(0.0941168 0.00314758 0)
(0.0959999 0.0030362 3.78413e-26)
(0.0953777 0.00307264 0)
(0.0972284 0.00296515 0)
(0.0966167 0.0030004 0)
(0.0984372 0.00289649 0)
(0.0978352 0.0029305 0)
(0.099626 0.00283018 0)
(0.099034 0.00286305 0)
(0.100795 0.0027651 3.48024e-26)
(0.100213 0.00279744 0)
(0.101944 0.00270106 7.7526e-29)
(0.101372 0.00273328 0)
(0.103076 0.00263668 0)
(0.102512 0.00266872 0)
(0.104188 0.00257321 -6.49559e-26)
(0.103635 0.00260489 0)
(0.10528 0.00250988 0)
(0.104737 0.00254159 0)
(0.10635 0.00244595 0)
(0.105818 0.00247804 0)
(0.107397 0.00238082 0)
(0.106876 0.00241358 0)
(0.108419 0.00231385 0)
(0.107911 0.00234764 0)
(0.109417 0.00224314 0)
(0.108921 0.00227921 0)
(0.110391 0.00216595 -1.75934e-24)
(0.109906 0.00220422 0)
(0.111341 0.00208016 0)
(0.110868 0.00212351 -3.40654e-24)
(0.112266 0.00198958 -3.61053e-27)
(0.111808 0.00203584 0)
(0.112156 0.00104593 -1.26955e-23)
(0.112725 0.00195013 7.63915e-25)
(0.112405 0.00150615 6.20927e-24)
(0.111905 0.000101658 4.56984e-24)
(0.111989 0.000576348 -3.15417e-24)
(0.112001 -0.000847703 -1.58889e-24)
(0.11191 -0.000375654 1.58506e-24)
(0.112427 -0.00177254 0)
(0.112175 -0.00131507 -1.44112e-23)
(0.111841 -0.00231094 -6.46839e-24)
(0.112755 -0.00222157 -1.23766e-23)
(0.112303 -0.00226566 2.84245e-23)
(0.110905 -0.00240402 -3.39679e-24)
(0.111376 -0.00235828 0)
(0.109943 -0.00248777 0)
(0.110426 -0.00244609 0)
(0.108956 -0.00255867 -1.19573e-28)
(0.109453 -0.00252444 0)
(0.107945 -0.00262138 0)
(0.108454 -0.00259103 0)
(0.106909 -0.00267697 6.09033e-26)
(0.10743 -0.00264997 0)
(0.105849 -0.00272676 0)
(0.106382 -0.00270254 0)
(0.104765 -0.00277158 0)
(0.10531 -0.00274977 0)
(0.103661 -0.00281202 0)
(0.104216 -0.00279232 0)
(0.102535 -0.00284857 -1.54664e-28)
(0.1031 -0.00283075 0)
(0.101388 -0.0028825 0)
(0.101964 -0.00286578 0)
(0.100221 -0.00291438 0)
(0.100807 -0.00289868 0)
(0.0990337 -0.0029455 0)
(0.0996297 -0.00292994 0)
(0.0978255 -0.00297587 0)
(0.0984323 -0.00296062 0)
(0.0965955 -0.00300747 7.50158e-26)
(0.0972133 -0.00299149 0)
(0.0953429 -0.00304114 0)
(0.0959721 -0.00302399 0)
(0.0940658 -0.00307824 0)
(0.0947075 -0.00305916 0)
(0.0927627 -0.00312067 -7.94155e-26)
(0.0934176 -0.00309867 0)
(0.0914322 -0.00317006 8.08184e-26)
(0.092101 -0.00314448 0)
(0.0900731 -0.00322893 -8.21893e-26)
(0.0907559 -0.00319802 0)
(0.0886957 -0.00330629 1.07907e-23)
(0.0893822 -0.00326262 -2.1291e-23)
(0.0873253 -0.00341852 -1.0857e-23)
(0.088007 -0.00335701 2.20771e-23)
(0.0853687 -0.00279777 2.90556e-25)
(0.0866309 -0.00348054 2.22578e-23)
(0.0850304 0.00115296 -2.00738e-23)
(0.0848104 -0.000484105 0)
(0.0848469 0.00193804 -1.93959e-22)
(0.0844162 -0.00129945 0)
(0.112687 0.00243598 -3.16929e-24)
(0.11312 0.00238119 2.32118e-24)
(0.112885 -0.00173656 -1.21548e-23)
(0.1132 -0.00216942 -1.37533e-23)
(0.0847366 0.002635 -1.88657e-22)
(0.0843704 -0.00209039 -4.52035e-23)
(0.0861505 0.00384246 0)
(0.0887515 0.00440975 -5.13845e-23)
(0.0846414 -0.00285573 -2.21835e-23)
(0.0859286 -0.00354074 3.36517e-23)
(0.08815 0.00439868 1.03205e-22)
(0.084747 0.000326418 0)
(0.0897218 0.00423867 0)
(0.0892045 0.0043281 -4.58115e-23)
(0.0909575 0.00411213 0)
(0.0903214 0.00417235 0)
(0.0922351 0.00400354 0)
(0.0915982 0.0040552 1.04704e-23)
(0.0934809 0.00390531 0)
(0.0928598 0.00395393 0)
(0.0947122 0.00381241 0)
(0.0940983 0.00385755 0)
(0.0959245 0.00372535 0)
(0.0953209 0.00376856 0)
(0.0971175 0.00364144 -3.78413e-26)
(0.0965234 0.00368299 0)
(0.0982916 0.00356058 0)
(0.0977069 0.00360068 0)
(0.0994474 0.00348235 0)
(0.0988717 0.00352116 0)
(0.100585 0.00340638 0)
(0.100018 0.00344413 0)
(0.101704 0.00333194 -9.43778e-29)
(0.101147 0.00336901 0)
(0.102805 0.00325849 9.15774e-29)
(0.102257 0.00329522 0)
(0.103888 0.00318504 0)
(0.103349 0.00322172 0)
(0.104953 0.0031118 8.58848e-29)
(0.104423 0.00314845 0)
(0.105998 0.00303812 0)
(0.105478 0.00307507 0)
(0.107023 0.0029633 0)
(0.106513 0.0030009 0)
(0.108026 0.00288667 0)
(0.107527 0.00292526 0)
(0.109006 0.00280746 0)
(0.108519 0.00284746 0)
(0.109962 0.0027243 0)
(0.109487 0.00276651 0)
(0.110895 0.00263601 0)
(0.110431 0.00268087 0)
(0.111802 0.0025392 3.37306e-24)
(0.111351 0.00258679 3.45827e-24)
(0.112248 0.00248706 -6.47219e-24)
(0.112622 0.00102319 -6.22661e-24)
(0.113175 0.00191109 0)
(0.112861 0.00147125 -6.28174e-24)
(0.112379 9.88655e-05 0)
(0.112458 0.000564728 6.35466e-24)
(0.112472 -0.000830506 9.48751e-24)
(0.112383 -0.000367751 -3.20794e-24)
(0.112641 -0.00128711 -1.86414e-23)
(0.112288 -0.00276308 3.25113e-24)
(0.113157 -0.00264648 1.20747e-23)
(0.112728 -0.00271104 0)
(0.111393 -0.00286755 -6.748e-24)
(0.111845 -0.0028171 6.77025e-24)
(0.110473 -0.00296222 0)
(0.110937 -0.00291678 0)
(0.109529 -0.00304589 -1.41555e-28)
(0.110004 -0.00300524 0)
(0.108561 -0.00312101 0)
(0.109048 -0.00308446 0)
(0.107568 -0.00318873 0)
(0.108067 -0.00315574 0)
(0.106552 -0.00325009 0)
(0.107063 -0.00322017 0)
(0.105515 -0.00330588 0)
(0.106036 -0.00327865 0)
(0.104456 -0.00335683 6.5397e-26)
(0.104988 -0.00333192 0)
(0.103377 -0.00340374 -6.71522e-26)
(0.103919 -0.00338074 0)
(0.102278 -0.00344781 0)
(0.10283 -0.00342607 0)
(0.10116 -0.00348982 0)
(0.101722 -0.00346903 0)
(0.100022 -0.00353094 0)
(0.100593 -0.00351044 0)
(0.0988634 -0.00357196 0)
(0.0994451 -0.00355137 0)
(0.0976844 -0.00361444 0)
(0.0982766 -0.00359296 0)
(0.0964839 -0.00365962 0)
(0.0970869 -0.00363663 0)
(0.0952607 -0.00370896 -7.75636e-26)
(0.0958752 -0.00368368 0)
(0.0940136 -0.00376425 7.89929e-26)
(0.0946402 -0.00373577 0)
(0.0927421 -0.00382703 -8.03865e-26)
(0.0933809 -0.00379466 0)
(0.0914461 -0.00389856 0)
(0.092097 -0.00386161 0)
(0.090126 -0.00397971 0)
(0.0907885 -0.00393775 0)
(0.088798 -0.00407592 8.53712e-26)
(0.0894643 -0.00402534 1.08473e-23)
(0.0874636 -0.00419766 -5.64043e-23)
(0.0881259 -0.00413305 0)
(0.0852411 -0.00361014 -3.34381e-23)
(0.0868025 -0.00426685 -2.89159e-25)
(0.0842231 0.00112857 6.27269e-23)
(0.0840132 -0.000510456 0)
(0.113552 0.00232983 -1.20624e-23)
(0.113585 -0.0025922 -2.32827e-23)
(0.0839328 0.00187426 -3.30939e-23)
(0.0850058 0.00337898 1.04412e-24)
(0.0839067 0.00257684 9.41429e-23)
(0.083636 -0.00132827 0)
(0.083602 -0.00212529 1.12969e-23)
(0.0870951 0.00436845 -9.67405e-23)
(0.08613 0.00427028 8.25465e-23)
(0.0845683 0.00347774 -8.12649e-23)
(0.0839025 -0.00290414 -3.39115e-23)
(0.0845337 -0.00367412 2.26021e-23)
(0.0861531 -0.0043497 2.21876e-23)
(0.0839423 0.000303228 0)
(0.090341 0.00501743 2.87826e-24)
(0.0888261 0.00502944 5.07336e-25)
(0.0896489 0.00501205 2.24833e-23)
(0.0914214 0.0048738 2.22404e-23)
(0.0908839 0.00495242 -2.23558e-23)
(0.0926008 0.0047297 4.12264e-26)
(0.0919935 0.00479805 0)
(0.0937977 0.0046135 0)
(0.0932023 0.00466894 0)
(0.0949754 0.00450697 0)
(0.0943884 0.00455969 0)
(0.0961384 0.00440585 0)
(0.0955589 0.00445551 0)
(0.0972844 0.00430973 3.83513e-26)
(0.0967136 0.00435738 0)
(0.0984133 0.00421692 0)
(0.097851 0.00426293 0)
(0.0995254 0.0041272 0)
(0.0989714 0.00417171 0)
(0.100621 0.00404018 0)
(0.100075 0.00408339 0)
(0.101699 0.00395538 0)
(0.101162 0.00399755 0)
(0.102761 0.00387216 -3.4708e-26)
(0.102232 0.00391362 0)
(0.103805 0.00378985 1.05986e-28)
(0.103285 0.00383097 0)
(0.104833 0.00370765 0)
(0.104321 0.00374875 0)
(0.105844 0.00362518 6.46134e-26)
(0.105341 0.0036665 0)
(0.106836 0.00354176 0)
(0.106342 0.00358365 0)
(0.107808 0.00345666 0)
(0.107324 0.00349948 0)
(0.108761 0.00336914 0)
(0.108287 0.00341326 0)
(0.109691 0.00327839 0)
(0.109229 0.00332424 0)
(0.110599 0.00318333 0)
(0.110148 0.00323149 0)
(0.111483 0.00308281 5.48627e-26)
(0.111044 0.00313382 0)
(0.112344 0.00297507 -3.3878e-24)
(0.111917 0.00303037 0)
(0.11318 0.00285609 3.22457e-24)
(0.112765 0.00291651 0)
(0.113994 0.00272992 3.06108e-24)
(0.113588 0.00279402 -3.13895e-24)
(0.113606 0.00186696 6.07208e-24)
(0.114394 0.00266727 0)
(0.113975 0.00227878 9.02575e-24)
(0.113071 0.00100056 0)
(0.113304 0.00143903 0)
(0.112838 9.67651e-05 0)
(0.112915 0.000551056 0)
(0.112928 -0.000811617 0)
(0.112843 -0.000359104 0)
(0.113328 -0.00169913 1.23878e-23)
(0.113091 -0.00126076 3.08136e-24)
(0.113999 -0.00253567 3.03226e-24)
(0.113632 -0.00212372 2.42382e-23)
(0.113634 -0.00306352 1.57521e-23)
(0.114431 -0.00293165 3.00564e-24)
(0.114035 -0.00299693 -6.12258e-24)
(0.112812 -0.00319262 3.23768e-24)
(0.113224 -0.00312843 -1.94202e-23)
(0.111965 -0.00330954 -1.33604e-28)
(0.112391 -0.00325189 0)
(0.111093 -0.00341448 0)
(0.111532 -0.00336297 0)
(0.110197 -0.00351036 -1.63207e-28)
(0.110648 -0.0034636 0)
(0.109278 -0.00359746 0)
(0.10974 -0.00355495 0)
(0.108336 -0.00367675 0)
(0.10881 -0.00363803 0)
(0.107372 -0.00374913 0)
(0.107856 -0.00371376 0)
(0.106387 -0.00381543 0)
(0.106882 -0.003783 0)
(0.105382 -0.00387651 -1.30591e-25)
(0.105887 -0.00384658 0)
(0.104357 -0.00393335 0)
(0.104872 -0.00390541 0)
(0.103314 -0.00398712 0)
(0.103838 -0.00396056 0)
(0.102251 -0.0040388 0)
(0.102785 -0.00401317 0)
(0.10117 -0.00408961 0)
(0.101713 -0.00406426 0)
(0.10007 -0.00414066 -7.28866e-26)
(0.100623 -0.00411503 0)
(0.098951 -0.00419345 0)
(0.0995132 -0.00416677 0)
(0.0978114 -0.00424935 0)
(0.0983837 -0.00422094 0)
(0.096651 -0.00430987 7.75636e-26)
(0.0972338 -0.00427895 0)
(0.0954692 -0.00437663 -2.62319e-28)
(0.0960628 -0.00434239 0)
(0.0942658 -0.004451 1.60506e-25)
(0.0948702 -0.00441282 0)
(0.0930411 -0.0045339 0)
(0.0936561 -0.00449137 0)
(0.0917953 -0.00462576 0)
(0.0924207 -0.00457853 0)
(0.0905305 -0.00472562 -2.94038e-28)
(0.0911657 -0.00467565 0)
(0.0892474 -0.0048378 0)
(0.0898901 -0.00477924 0)
(0.0879912 -0.00498081 -3.35061e-23)
(0.0886149 -0.0049051 0)
(0.0854863 -0.00442716 -2.82943e-25)
(0.0873723 -0.00506531 5.68619e-23)
(0.0833761 0.0010849 0)
(0.0879884 0.00503069 1.3041e-22)
(0.0830873 0.0018164 2.26066e-23)
(0.114501 0.00311459 -3.05532e-24)
(0.114878 0.00304721 0)
(0.114407 -0.00248047 2.94649e-24)
(0.114816 -0.00286156 -5.85379e-24)
(0.0832142 -0.000534834 0)
(0.0828477 -0.00134876 0)
(0.0832158 0.00264982 0)
(0.0828281 -0.0021533 -1.11265e-23)
(0.0831572 -0.00295496 -2.2366e-23)
(0.0838218 -0.00374293 0)
(0.0848078 -0.00450751 5.75293e-23)
(0.0867347 -0.00515156 -4.58641e-23)
(0.083127 0.000275131 0)
(0.0908522 0.00565957 -1.08194e-26)
(0.0871115 0.00498883 4.08954e-23)
(0.0893643 0.00573054 -1.45734e-22)
(0.090106 0.005712 4.27284e-23)
(0.0921801 0.00559078 -1.39093e-23)
(0.0915331 0.00560697 -2.22917e-23)
(0.0932855 0.00546567 0)
(0.0927456 0.00553958 0)
(0.094408 0.00531362 -4.12226e-26)
(0.0938359 0.0053855 0)
(0.0955353 0.00518855 0)
(0.0949749 0.00524893 0)
(0.0966424 0.00507362 0)
(0.0960909 0.00513033 0)
(0.0977333 0.00496452 0)
(0.0971898 0.00501835 0)
(0.0988082 0.00486019 -3.83513e-26)
(0.0982727 0.0049119 0)
(0.0998673 0.00475932 0)
(0.0993397 0.00480935 0)
(0.100911 0.00466156 0)
(0.100391 0.00471008 0)
(0.10194 0.0045665 0)
(0.101427 0.00461373 0)
(0.102953 0.0044736 0)
(0.102448 0.00451983 0)
(0.10395 0.00438223 3.44762e-26)
(0.103453 0.00442778 0)
(0.104932 0.00429168 1.19265e-28)
(0.104443 0.00433692 0)
(0.105898 0.00420115 0)
(0.105417 0.00424645 0)