/*--------------------------------*- C++ -*----------------------------------*\
  =========                 |
  \\      /  F ield         | OpenFOAM: The Open Source CFD Toolbox
   \\    /   O peration     | Website:  https://openfoam.org
    \\  /    A nd           | Version:  10
     \\/     M anipulation  |
\*---------------------------------------------------------------------------*/
FoamFile
{
    format      ascii;
    class       volScalarField;
    location    "29.5";
    object      p;
}
// * * * * * * * * * * * * * * * * * * * * * * * * * * * * * * * * * * * * * //

dimensions      [0 2 -2 0 0 0 0];

internalField   nonuniform List<scalar> 
6397
(
2.27695
1.83369
1.13855
1.23694
1.12825
1.05801
4.02401
-0.535633
-14.5831
-16.7898
7.77635
5.30071
-0.153837
-0.0656629
-0.132645
-4.17209
-3.60007
-5.83188
12.1424
11.2583
10.8911
-22.3004
-21.1269
-19.1166
-0.0185477
0.0485219
0.0699504
-1.70831
-1.83139
-1.85392
-2.03396
1.41153
1.38318
1.31165
1.31965
1.33805
1.40117
1.40707
1.07782
1.03162
1.17856
1.23498
-1.73528
0.24825
0.0415081
0.937997
0.772363
0.641679
0.713887
0.69675
0.578259
0.624175
0.654347
6.07599
5.87727
1.55103
1.59206
0.0279674
-2.76674
-2.88883
-2.5282
-2.28961
-2.11766
-2.06589
-2.17134
-2.44603
-2.90577
-3.51771
-1.74206
-2.85075
-1.72653
-1.68858
-1.61419
-1.5647
-1.59215
-1.7325
-2.03071
-2.50886
-3.19066
-4.05577
-1.59228
-2.6143
-4.197
-4.97975
-1.44438
-2.31055
-4.77311
-5.75496
-1.33732
-2.02686
-5.06075
-6.10702
-1.27821
-1.28224
-4.96442
-5.94698
-0.632682
-0.788143
-0.67215
-0.714997
-0.656828
-0.78797
-0.838519
-0.809623
-0.783825
-1.0253
-0.878647
-1.71279
-1.29309
-3.17035
-2.33286
-5.35102
-4.22189
-6.71268
-6.28189
-6.44775
-3.60159
-3.77478
-3.79082
-2.7609
-3.19201
-2.19561
-2.39495
-2.29948
-2.15753
-3.04179
-2.61107
-3.97277
-3.55508
-4.07296
-4.19035
-3.20124
-3.72294
-2.31697
-2.71709
-1.34406
-1.66168
-0.946216
-5.66076
-5.30792
-2.59625
-3.45645
-2.40731
-4.57461
-5.45621
-4.31492
-1.88565
-0.294418
-0.533448
-1.64201
-4.47954
-0.00373504
-0.117674
0.0904849
0.060225
0.0245821
0.106988
-0.129303
-0.0450919
-0.467494
-0.259372
-1.27278
-0.794308
-2.86135
-1.95387
-5.20858
-3.9917
-6.63931
-6.20432
-6.32176
-2.43583
-2.60325
-1.95897
-2.19062
-1.8816
-1.84946
-2.49461
-2.09485
-3.79349
-3.05983
-5.18265
-4.52785
-5.34461
-5.44769
-4.07245
-4.81433
-2.68866
-3.32021
-2.21555
-1.47994
-1.68506
-0.922813
-1.21546
-2.11474
-2.96858
-4.3584
-4.76113
-3.66553
-3.17651
-3.45653
-1.29038
-1.81091
-1.15513
-1.68818
-1.45415
-1.49838
-0.619745
-1.23481
-1.39091
-1.74286
-3.75041
0.151484
-0.170062
0.531411
0.387521
0.671957
0.629474
0.616656
0.699849
0.419041
0.523036
0.0439832
0.264817
-0.774926
-0.295021
-2.33237
-1.45057
-4.59376
-3.43578
-5.89625
-5.53091
-5.60905
-1.52376
-1.44263
-1.40163
-1.50051
-1.2543
-1.30251
-1.56785
-1.34334
-2.57935
-1.97756
-4.34492
-3.385
-6.1489
-5.33472
-6.38622
-6.5322
-4.76436
-5.71143
-2.86855
-3.74451
-2.20891
-1.77867
-1.80259
-1.67107
-2.5829
-2.48115
-3.38841
-1.12039
-1.64665
-2.21853
-2.53754
-2.1996
-1.95564
-1.74157
-1.3489
-1.45364
-1.00048
-0.304084
-0.898842
-1.67184
-0.997475
-1.51674
-1.10307
-3.02919
0.533347
0.167646
0.949099
0.790573
1.06888
1.02459
1.01553
1.06542
0.838133
0.939744
0.481192
0.695212
-0.27659
0.168363
-1.66868
-0.882512
-3.62232
-2.62218
-4.70185
-4.40456
-3.66751
-4.40392
-1.75542
-2.69031
-0.404559
-0.985898
-0.586318
-0.611183
-0.562217
-0.643837
-0.631377
-0.55952
-0.613758
-0.644702
-0.563791
-1.19903
-0.848772
-2.4844
-1.73934
-4.59774
-3.45788
-6.71168
-5.76371
-6.99294
-7.16052
-5.09591
-6.21778
-2.8526
-3.89138
-2.04396
-2.23558
-2.04387
-2.28752
-1.22648
-0.767173
-0.526399
0.0259161
-2.12577
-2.61481
-1.57026
-0.889255
-1.06477
-0.581368
-1.64919
-1.89724
-1.05188
-1.48729
-1.06408
-0.220067
0.342668
-0.66681
-2.47629
0.0434099
-1.1388
-0.509291
0.842875
0.493292
1.23322
1.07874
1.33414
1.29658
1.29231
1.32457
1.14215
1.23093
0.824751
1.01371
0.190565
0.557483
-0.923306
-0.294456
-2.48577
-1.68566
-3.32388
-3.10078
-2.40788
-3.04413
-0.883003
-1.63984
0.205213
-0.271713
0.823485
0.561857
-0.158492
-0.612336
-0.339787
-0.0305647
-0.0647771
0.0201631
-0.0174
0.0684933
0.0511335
-0.115279
0.0219157
-0.786133
-0.376592
-2.20197
-1.38779
-4.48106
-3.25752
-6.7283
-5.71977
-7.04169
-7.20719
-5.02501
-6.21342
-2.61177
-3.73874
-1.72672
-1.48379
-0.98718
0.555492
1.00983
-0.418586
-0.207975
-0.81023
-0.25583
-1.95381
-1.39739
-2.7984
-2.43785
-2.95763
-2.97995
-2.30208
-2.7192
-1.7864
-1.98107
-2.10647
-1.82836
-1.5228
-1.92132
-0.796647
-1.53311
-2.12474
-0.018576
1.13352
0.68554
-0.6722
-1.23762
-2.15975
0.402075
-0.103643
1.08709
0.789569
1.40705
1.27063
1.49973
1.46298
1.47216
1.49169
1.34978
1.42088
1.09281
1.24191
0.618358
0.887786
-0.200081
0.263917
-1.33922
-0.761499
-1.91191
-1.76713
-1.24675
-1.69802
-0.12554
-0.685006
0.728812
0.355896
1.19165
0.993643
1.45511
1.34198
-0.193495
-0.924252
-0.499462
0.208142
0.0351173
0.384985
0.316675
0.468698
0.421785
0.521797
0.505795
0.325432
0.470288
-0.355103
0.0572792
-1.75706
-0.95224
-3.98149
-2.79033
-6.17284
-5.1847
-6.50561
-6.65471
-4.54514
-5.70401
-2.17582
-3.29005
-0.650678
-1.30642
0.201969
-0.162315
0.462417
-0.864551
0.353865
-0.221463
-2.23109
-1.54381
-3.37107
-2.8669
-3.67992
-3.65365
-2.9778
-3.4351
-2.33028
-1.51342
1.20896
1.53768
-1.7091
-2.37121
-2.04522
-1.87144
-2.21021
-1.36568
-2.61419
-0.677983
-3.08419
0.0684561
-2.31594
-3.48689
0.745352
1.61458
1.26091
-1.21449
-3.40305
-1.88643
1.76296
1.76654
1.73296
-1.04594
-2.0264
-1.25378
-2.07397
-0.191786
-0.676233
0.715928
0.283617
1.2642
1.02831
1.51626
1.4089
1.5982
1.5634
1.58766
1.59409
1.50236
1.55009
1.30792
1.41725
0.963829
1.15468
0.401077
0.713768
-0.31159
0.0397467
-0.600895
-0.550095
-0.177748
-0.447353
0.506525
0.15662
1.0982
0.832133
1.44975
1.29427
1.66132
1.56825
1.73228
-0.295017
-0.689701
0.20795
-0.00971832
0.523205
0.374999
0.692219
0.624801
0.784926
0.738445
0.840175
0.821452
0.670889
0.796791
0.0613969
0.43168
-1.20368
-0.47714
-3.19958
-2.13146
-5.1579
-4.27491
-5.4692
-5.59813
-3.71888
-4.75745
-1.6236
-2.61274
-0.242648
-0.840346
0.53257
0.199176
0.77639
0.344711
0.817955
-0.891263
-0.222271
-2.43188
-1.64196
-3.81376
-3.18815
-4.26097
-4.19279
-3.48823
-4.01211
-2.79383
-2.31818
-1.85583
-2.86156
-1.36707
-3.67489
-0.683759
-4.5008
0.0566974
-5.06593
0.759882
-2.65174
-4.71438
1.31652
1.76775
1.73893
-1.03442
-3.1934
-1.17749
1.70833
2.01618
1.98925
-2.24303
-1.24255
-0.43477
-0.67386
-2.19523
0.250523
-0.148737
0.957521
0.616727
1.381
1.19491
1.57458
1.49305
1.64616
1.61694
1.65493
1.65551
1.605
1.63762
1.47329
1.54841
1.24897
1.3724
0.890183
1.08808
0.457436
0.662728
0.378571
0.348325
0.685348
0.517341
1.01659
0.846665
1.37082
1.19684
1.6451
1.51782
1.83302
1.74445
1.96889
1.90727
1.99336
-0.336769
-0.704489
0.236952
-0.0238644
0.580844
0.430151
0.803839
0.701001
0.942102
0.884777
1.01322
0.980285
1.0588
1.05276
0.923776
1.02457
0.423524
0.728719
-0.625664
-0.0230965
-2.26929
-1.39478
-3.85472
-3.14444
-4.11502
-4.22019
-2.70335
-3.54695
-0.998959
-1.80635
0.134762
-0.354614
0.788304
0.507005
0.988196
1.12948
1.34238
0.383543
0.835149
-0.843279
-0.161341
-2.49579
-1.64112
-4.0223
-3.32511
-4.54528
-4.45201
-3.7402
-4.29141
-3.01237
-2.84574
-2.02549
-3.88919
-1.52521
-5.22241
-0.808076
-6.46235
-0.00500602
-6.90526
0.737672
-5.76955
1.36263
-0.91866
-3.04321
1.68992
1.91034
1.61085
-0.679815
-2.54855
0.0499927
-0.198971
-0.154768
0.595201
0.289531
1.11972
0.878259
1.43719
1.30724
1.59662
1.53658
1.67117
1.64563
1.70371
1.69783
1.68372
1.70444
1.60008
1.65294
1.44255
1.53214
1.20851
1.3323
0.992553
1.08402
1.01398
0.961626
1.22858
1.11634
1.38924
1.31172
1.57747
1.47617
1.75818
1.67269
1.91173
1.83778
2.00536
1.97277
2.00089
2.01265
1.88353
1.9524
0.0672409
0.430232
0.127151
0.288897
0.157995
0.574603
0.43001
0.831262
0.709348
1.0195
0.93497
1.13628
1.08761
1.17596
1.16399
1.19259
1.19008
1.09453
1.16897
0.716229
0.949048
-0.0900949
0.37226
-1.33493
-0.677602
-2.51985
-1.99149
-2.7191
-2.79701
-1.67693
-2.30366
-0.406186
-1.00692
0.459343
0.0803498
0.973168
0.749584
1.25326
1.13976
1.3358
1.12731
1.40705
1.32463
0.457128
0.859226
-0.775511
-0.0873833
-2.42798
-1.57439
-3.95908
-3.25987
-4.50081
-4.39891
-3.66108
-4.24166
-2.05296
-2.88514
-0.479526
-1.17078
-0.24918
0.936806
1.77936
1.81191
-3.70494
-2.39864
1.38341
-5.3826
-1.83631
0.254258
0.00302653
0.45646
-7.30218
-1.0179
-8.69358
-0.0770279
-8.35757
0.697283
-5.85982
1.3763
-2.14243
1.50183
1.55901
0.719751
1.52363
1.60393
1.72822
-3.1723
0.408586
0.292
0.82927
0.621097
1.21792
1.05048
1.46478
1.36501
1.60368
1.54889
1.68391
1.65178
1.71813
1.70984
1.70792
1.72322
1.65056
1.68754
1.55586
1.60718
1.44816
1.50118
1.36415
1.39733
1.4062
1.36262
1.55638
1.4804
1.64029
1.60504
1.73275
1.68123
1.84205
1.78762
1.96529
1.90286
2.0583
2.02045
2.06546
2.07611
1.95859
2.02613
1.76866
1.87158
1.12921
1.909
1.50057
0.745584
0.873355
0.752342
0.714196
0.866974
0.801848
1.0044
0.937033
1.12864
1.06959
1.23111
1.18425
1.27749
1.2654
1.27407
1.27953
1.19916
1.25113
0.934993
1.09899
0.355086
0.686347
-0.533417
-0.0673964
-1.35905
-0.994293
-1.4812
-1.54196
-0.770821
-1.19519
0.0978372
-0.31373
0.708906
0.438328
1.09187
0.920445
1.31159
1.22817
1.36507
1.35973
1.37706
1.08877
1.25863
0.447306
0.836564
-0.735523
-0.0848497
-2.26089
-1.47829
-3.62512
-3.00631
-4.08651
-4.0133
-3.25637
-3.81642
-1.70501
-2.51875
-0.856807
2.07708
2.21536
1.6058
1.65233
-4.95843
-2.97473
0.695027
0.760643
-7.32262
-2.23911
-9.58677
-1.22227
-10.4013
-0.132151
-8.5413
0.647761
-4.55991
1.31598
-0.66193
1.26688
1.6276
1.44353
2.35763
2.38447
1.40451
2.23216
2.19643
2.35109
1.25328
1.4516
1.5466
-4.08192
0.700022
0.65622
0.986956
0.846453
1.2718
1.14713
1.47
1.38599
1.59373
1.53908
1.66673
1.63573
1.70441
1.69384
1.70936
1.71323
1.69358
1.70572
1.66033
1.68007
1.61117
1.63626
1.58427
1.58953
1.64442
1.60324
1.75421
1.70134
1.80265
1.78648
1.84212
1.81849
1.91046
1.87408
1.99592
1.95268
2.06218
2.03569
2.0649
2.07553
1.98531
2.03336
1.85375
1.9277
1.65997
1.75804
1.99197
2.17051
1.43206
1.72857
1.1252
1.25117
1.04402
1.06065
1.09
1.05558
1.16839
1.13209
1.2295
1.2012
1.28672
1.25934
1.32481
1.31257
1.32219
1.32905
1.2592
1.29975
1.07588
1.18712
0.680937
0.904946
0.0816943
0.391583
-0.430221
-0.2134
-0.476512
-0.52563
-0.0504162
-0.294467
0.478551
0.222308
0.882438
0.700935
1.1574
1.03619
1.32285
1.26301
1.36366
1.36362
1.36547
1.21482
1.26551
0.960272
1.11463
0.329047
0.707278
-0.733129
-0.157241
-2.0311
-1.37457
-3.10503
-2.6303
-3.39154
-3.38212
-2.57247
-3.10545
-1.13387
-1.8897
0.385746
-0.33993
0.825504
0.667116
-6.55088
-3.67963
1.59205
1.46619
0.92727
0.935798
1.00086
1.75803
1.707
-9.36672
-2.60174
-11.2456
-1.33063
-10.5916
-0.185536
-7.07655
0.598124
-2.55408
1.1766
0.770219
1.08902
2.24255
1.29268
2.08172
1.92906
1.77428
1.91059
2.47112
1.20773
2.24353
0.956552
1.27149
1.07327
-5.20834
0.891054
0.908605
0.908471
0.887174
1.08907
0.99425
1.29736
1.20259
1.46198
1.39102
1.57798
1.52651
1.65826
1.62053
1.70593
1.68487
1.72755
1.7198
1.72344
1.72856
1.70169
1.71337
1.69142
1.69269
1.71682
1.69864
1.78636
1.74418
1.86159
1.82733
1.89304
1.88355
1.91061
1.89972
1.95826
1.93118
2.02096
1.99008
2.07019
2.04901
2.06683
2.07774
1.99866
2.03883
1.89124
1.94979
1.82407
2.09125
2.04
1.96584
2.07128
1.61218
1.79509
1.35976
1.46591
1.24782
1.29276
1.21048
1.21927
1.24833
1.22348
1.30803
1.27978
1.34807
1.33216
1.36471
1.36061
1.35327
1.36304
1.29121
1.32766
1.15585
1.23458
0.887959
1.03826
0.516829
0.702231
0.241124
0.352627
0.234159
0.19852
0.444011
0.352666
0.738511
0.587555
0.999565
0.881023
1.18706
1.1075
1.30539
1.26343
1.32567
1.33529
1.30805
1.12665
1.09305
1.02783
1.10051
0.729924
0.909958
0.119674
0.464764
-0.769245
-0.294426
-1.76783
-1.27342
-2.48658
-2.19047
-2.54265
-2.61443
-1.76988
-2.25202
-0.522562
-1.16818
0.591469
0.0951173
0.787107
1.30121
1.10903
1.5512
1.67288
-8.16989
-4.31292
-10.7811
-2.77911
-11.3279
-1.33446
1.40338
-8.97928
-0.231821
-4.75148
0.551924
-0.685439
0.973742
1.57241
1.47841
1.26445
1.31777
1.75522
0.947535
1.68482
2.4939
1.01481
2.06289
2.4014
1.02996
1.19639
0.930182
0.958809
1.51762
1.65196
0.921867
-6.29986
1.00698
1.13813
1.06275
0.981702
0.983387
1.02526
0.993159
1.15181
1.0797
1.31112
1.23395
1.44909
1.3862
1.55552
1.50674
1.6313
1.59556
1.68245
1.65887
1.71168
1.69816
1.72936
1.72172
1.74196
1.73654
1.7551
1.74802
1.78489
1.7664
1.85023
1.81285
1.91589
1.88693
1.94245
1.9343
1.95215
1.94646
1.98456
1.96511
2.03198
2.00841
2.06946
2.05291
2.06582
2.07392
2.01552
2.04509
1.93132
1.97812
1.83115
1.87886
1.77151
1.79463
1.63734
1.76521
1.76159
1.79504
1.65522
1.94759
1.89457
1.89516
1.94966
1.66515
1.79323
1.4571
1.55386
1.34337
1.38645
1.31614
1.32286
1.32892
1.32025
1.34471
1.33706
1.36037
1.35303
1.36775
1.36618
1.34699
1.36292
1.2963
1.32772
1.18545
1.24962
0.996494
1.10034
0.778942
0.884444
0.644028
0.696987
0.62479
0.621708
0.723135
0.623345
0.895601
0.805391
1.06697
0.983545
1.19895
1.13772
1.27783
1.2435
1.28233
1.28729
1.20878
1.26233
1.15872
0.921241
0.952516
0.739826
0.845406
0.380816
0.58895
-0.169026
0.125347
-0.851807
-0.498837
-1.5078
-1.19628
-1.86798
-1.74646
-1.67308
-1.84472
-0.932942
-1.36085
0.0230604
-0.448442
0.750578
0.433774
1.06528
0.951064
1.15283
-9.272
-4.54536
1.77766
1.87039
1.90197
-10.7322
-2.76379
1.18587
-9.63682
-1.26246
-6.37549
-0.263744
1.34369
1.02102
1.02209
0.812656
0.764456
-2.53958
0.48108
1.02373
0.603651
0.635171
1.62049
1.47776
1.39511
2.23435
0.741616
1.82272
2.48896
0.691759
2.22676
1.15139
1.2115
1.208
1.26251
1.0085
0.848018
1.26502
-6.98416
1.06658
1.10325
1.04184
1.04646
1.08747
1.05551
1.1907
1.13286
1.31937
1.25378
1.43776
1.38123
1.53604
1.49028
1.61338
1.57659
1.66822
1.64219
1.70505
1.68797
1.72857
1.71823
1.74712
1.73782
1.77704
1.7602
1.82489
1.79908
1.88345
1.85381
1.93503
1.91121
1.96244
1.95218
1.9756
1.96881
2.00026
1.98602
2.03493
2.01735
2.06685
2.05138
2.0621
2.06789
2.02684
2.048
1.96667
1.99924
1.89679
1.93025
1.8566
1.87131
1.85503
1.40456
1.22359
1.67381
1.55462
1.82182
1.76445
1.81381
1.84018
1.65791
1.74736
1.51112
1.5776
1.42418
1.46232
1.36791
1.39216
1.35508
1.35606
1.36469
1.35877
1.37338
1.36968
1.3699
1.3732
1.35086
1.3615
1.29239
1.32339
1.19872
1.25162
1.06105
1.13474
0.928718
0.991025
0.862752
0.889937
0.846843
0.85163
0.897
0.856365
0.991446
0.937988
1.09931
1.04108
1.18536
1.13939
1.23027
1.2081
1.22041
1.23509
1.14971
1.20829
1.08564
0.805336
0.825642
0.850887
0.662711
0.74332
0.379943
0.540881
-0.0792387
0.167805
-0.567024
-0.326291
-1.0117
-0.79945
-1.29404
-1.1818
-1.28931
-1.3361
-0.895509
-1.14136
-0.203336
-0.575174
0.524601
0.183316
1.00574
0.799939
1.21786
1.14608
1.25008
1.79024
1.94117
-9.04329
-4.563
0.85306
-9.14309
-2.53658
0.600606
0.680913
0.513982
0.393535
-7.00491
-1.18201
1.07785
0.50785
-3.89109
-0.336988
0.719148
-0.958906
0.288505
1.60485
1.26882
1.04674
1.35607
0.153289
1.42315
1.49485
2.3878
0.395262
1.97703
2.34582
1.24555
0.778992
1.81985
1.98756
-6.77522
1.15365
1.21794
1.19164
1.09945
1.12222
1.08818
1.08909
1.12848
1.09994
1.21636
1.16737
1.32378
1.26778
1.4273
1.37634
1.51728
1.47465
1.59048
1.55624
1.64791
1.62103
1.69128
1.67049
1.72597
1.70936
1.75644
1.74167
1.78963
1.77266
1.83431
1.81009
1.89097
1.8619
1.94019
1.91744
1.96811
1.95678
1.98373
1.97579
2.00691
1.99422
2.03413
2.02071
2.04998
2.04533
2.05829
2.05878
2.03723
2.05078
1.99617
2.01833
1.95265
1.9734
1.93231
1.93773
1.96191
1.93886
2.05702
2.00259
2.05675
2.20221
2.12034
1.02762
0.854151
1.34508
1.19434
1.57605
1.47163
1.71324
1.6589
1.72447
1.73444
1.63931
1.69019
1.52917
1.58359
1.44042
1.48051
1.39307
1.41158
1.38056
1.38387
1.37805
1.37918
1.37377
1.37605
1.36136
1.36873
1.32286
1.34722
1.28484
1.30923
1.20867
1.24956
1.10982
1.16004
1.02513
1.06304
0.984146
1.00222
0.969177
0.976243
0.996957
0.976325
1.04131
1.0142
1.10582
1.07368
1.15465
1.13498
1.17432
1.1743
1.15644
1.17861
1.09903
1.12537
1.00208
1.02332
0.870509
0.58766
0.677131
0.333791
0.479547
-0.125373
0.132479
-0.697973
-0.41851
-1.09647
-0.921646
-1.2725
-1.21621
-1.17197
-1.25907
-0.801168
-1.01765
-0.217743
-0.53244
0.439952
0.116517
0.978173
0.737154
1.27194
1.15307
1.3771
1.34583
1.34008
1.37023
1.27218
1.31125
0.436182
-7.6984
-4.05015
1.23857
0.532527
0.348942
0.197711
-6.80697
-2.27336
2.29937
2.17189
0.676921
0.256864
-4.55006
-1.17608
1.88271
0.407811
-2.113
-0.52122
1.61434
0.942339
0.677127
0.0606902
-0.140901
1.36739
1.07839
1.8233
-0.393068
1.16238
1.61828
2.35846
-0.0915939
2.10296
2.39245
2.46455
2.51862
0.1986
0.0867403
-5.82197
1.19757
1.2043
1.21646
1.14587
1.17111
1.11695
1.12682
1.12005
1.1133
1.15814
1.13254
1.23331
1.19123
1.32598
1.27765
1.41829
1.37232
1.50154
1.46172
1.57262
1.53915
1.63015
1.6032
1.67614
1.65423
1.71457
1.69599
1.75125
1.73288
1.79262
1.77143
1.83972
1.81564
1.88856
1.86398
1.93216
1.91127
1.96352
1.9494
1.98416
1.97428
2.00622
1.99468
2.03032
2.01846
2.04747
2.04044
2.05546
2.05358
2.0457
2.05266
2.02215
2.03509
1.99907
2.00916
1.99691
1.99345
2.04079
2.01168
2.14799
2.087
2.29847
2.21863
2.38425
0.48243
0.248367
0.353256
0.752701
0.614838
1.03816
0.892234
1.29668
1.17367
1.49385
1.40434
1.61641
1.56644
1.64805
1.64509
1.59421
1.63087
1.51209
1.5528
1.44945
1.47738
1.40833
1.42694
1.38545
1.39429
1.37526
1.37966
1.36592
1.37093
1.34997
1.35914
1.31898
1.33638
1.27793
1.3009
1.21586
1.24846
1.14358
1.17948
1.08473
1.11096
1.05237
1.06645
1.03538
1.0433
1.02801
1.03183
1.06342
1.04691
1.09935
1.08125
1.12748
1.11545
1.13294
1.13422
1.10431
1.12357
1.03642
1.07041
0.911034
0.979127
0.728824
0.84263
0.319202
0.448231
-0.0705468
0.155421
-0.734038
-0.37108
-1.43273
-1.11012
-1.75464
-1.64761
-1.62621
-1.74532
-1.13077
-1.4159
-0.423548
-0.793606
0.315611
-0.0483472
0.945182
0.653352
1.36177
1.18358
1.51228
1.46688
1.50678
1.5198
1.40139
1.46623
1.28944
1.34654
1.2464
0.020931
-5.87949
-3.42384
2.46096
2.50344
2.55141
0.501721
1.17027
2.28838
0.241536
0.0209631
-4.68861
-2.11272
1.98803
0.0984814
-2.80267
-1.38207
1.67658
0.51963
0.296455
-0.926186
-0.844078
1.3587
0.615312
0.7975
-0.839113
0.809563
1.07108
1.1271
2.11731
-0.974929
1.7262
2.15289
0.211015
-0.196073
-0.118609
-4.62976
1.16783
1.18075
1.13534
1.14926
1.12403
1.12545
1.13776
1.12612
1.17796
1.1531
1.24444
1.20799
1.32614
1.28425
1.40968
1.36839
1.48729
1.45005
1.55543
1.52331
1.61343
1.5862
1.66213
1.63885
1.70428
1.68385
1.74373
1.72406
1.78518
1.76399
1.83211
1.80808
1.88071
1.85698
1.92219
1.90236
1.95321
1.93885
1.97727
1.96547
2.00114
1.98914
2.02462
2.01318
2.04268
2.03487
2.05325
2.04915
2.05325
2.05454
2.04544
2.04999
2.0384
2.0408
2.05456
2.04189
2.10993
2.07634
2.21981
2.15775
2.36559
2.29133
2.49415
2.43595
2.47698
2.57124
2.62193
2.54414
0.585109
0.404033
0.480717
0.814755
0.697613
1.04935
0.935024
1.26032
1.15942
1.42484
1.34875
1.53832
1.48907
1.5757
1.56774
1.54508
1.56587
1.49386
1.52013
1.44259
1.46744
1.40325
1.42075
1.38104
1.39001
1.36855
1.3743
1.35549
1.36237
1.33755
1.34744
1.30916
1.32463
1.27026
1.2912
1.21889
1.24587
1.16334
1.1914
1.11829
1.13998
1.08951
1.1032
1.06965
1.07841
1.0595
1.06117
1.07176
1.06356
1.08764
1.07968
1.09746
1.09494
1.08892
1.09589
1.05276
1.07215
0.979342
1.01803
0.859556
0.927168
0.701704
0.799432
0.356541
0.450813
0.0599577
0.232592
-0.510686
-0.179246
-1.44046
-0.945176
-2.29446
-1.91681
-2.5157
-2.49826
-2.04902
-2.35674
-1.15358
-1.63464
-0.138828
-0.644957
0.752569
0.334651
1.35926
1.09771
1.63859
1.53356
1.68114
1.68368
1.59805
1.64552
1.43948
1.52915
1.29836
1.36946
1.23794
2.40348
-0.660705
-0.199746
-4.33725
-2.99396
1.10063
0.373329
2.15442
-0.193449
-3.23022
-2.15636
1.02114
2.69169
2.73946
1.81232
0.0447691
-0.1644
0.0176251
-0.0921655
-1.61705
-1.87337
1.43385
0.155129
-0.0212827
-1.47984
0.392887
1.04919
0.56449
1.36319
-1.73511
0.71515
1.17148
2.12176
-1.66152
2.43984
2.55722
1.75962
2.67221
-0.477484
-0.387114
-3.72836
1.1358
1.12916
1.12454
1.13007
1.12569
1.12257
1.14655
1.13283
1.18896
1.16465
1.25078
1.218
1.32498
1.28752
1.4018
1.36404
1.47463
1.43946
1.54038
1.50899
1.59751
1.57028
1.64739
1.62333
1.69188
1.67012
1.73429
1.71302
1.7773
1.75563
1.82215
1.79945
1.86722
1.84497
1.90836
1.88837
1.94149
1.92602
1.9676
1.95499
1.99208
1.9798
2.01673
2.00464
2.03708
2.0285
2.05103
2.04476
2.05967
2.05595
2.06468
2.0625
2.07223
2.06714
2.10299
2.08363
2.16823
2.13074
2.27689
2.21628
2.41347
2.3449
2.5258
2.47401
2.67099
2.58277
0.393287
0.241444
0.528068
0.531144
0.510511
0.677418
0.593316
0.866126
0.77001
1.05783
0.961918
1.23239
1.14931
1.37105
1.30587
1.47101
1.42728
1.51095
1.49863
1.49969
1.50995
1.46389
1.48343
1.42334
1.44297
1.39195
1.40604
1.37098
1.38017
1.35639
1.36332
1.34145
1.34918
1.32283
1.33288
1.29643
1.31085
1.2614
1.28011
1.21827
1.24101
1.17356
1.19631
1.13559
1.1544
1.10752
1.12095
1.08593
1.09532
1.07162
1.07615
1.06899
1.06817
1.06996
1.06918
1.06618
1.06925
1.04713
1.05853
1.00428
1.02806
0.928281
0.971334
0.818867
0.882134
0.677188
0.761731
0.517592
0.600593
0.249072
0.412082
0.362368
-0.180765
0.0711791
-1.01
-0.539928
-2.19055
-1.58004
-3.16327
-2.74682
-3.29478
-3.35616
-2.49611
-2.99142
-1.21059
-1.87805
0.0718089
-0.547082
1.06563
0.615507
1.65797
1.4113
1.86516
1.80466
1.80554
1.85863
1.64604
1.72621
1.45881
1.55891
1.29563
1.38135
1.12445
1.20854
1.06766
2.31079
-0.466162
-3.39546
-2.83483
1.04712
2.7752
0.42617
1.99815
2.49829
2.3569
0.149501
-0.0623937
-1.14506
-0.470621
-2.30798
-2.57288
1.58465
-0.326595
-0.715042
-2.68454
-0.25702
2.63507
1.11552
0.00268559
0.673671
-2.75943
0.673003
0.474511
1.68887
-2.94028
0.277742
1.1653
1.79474
2.83129
-0.840956
-0.447218
-0.805401
2.80453
-0.712358
-3.29663
1.09578
1.07417
1.1093
1.10416
1.12224
1.11372
1.15011
1.13366
1.19466
1.17
1.25378
1.22281
1.32248
1.28779
1.39402
1.35874
1.46294
1.42944
1.52639
1.49584
1.58287
1.55575
1.63325
1.60886
1.67884
1.65655
1.72224
1.70056
1.76583
1.74388
1.81025
1.78795
1.85357
1.83229
1.89292
1.87375
1.92693
1.91061
1.95597
1.94191
1.98194
1.9692
2.00674
1.9946
2.02931
2.0177
2.04825
2.03937
2.06451
2.05652
2.07976
2.07224
2.10032
2.08833
2.14292
2.1183
2.21412
2.17463
2.32197
2.26338
2.44982
2.38622
2.55972
2.50594
2.70688
2.62446
2.88431
2.90001
2.80034
2.86526
0.45808
0.318454
0.642256
0.682803
0.579339
0.644862
0.628329
0.757481
0.691265
0.907913
0.830909
1.06596
0.986665
1.21126
1.14186
1.32721
1.2728
1.41323
1.37453
1.45564
1.44059
1.45307
1.45854
1.42973
1.44249
1.40099
1.41541
1.37472
1.38693
1.35555
1.36421
1.34063
1.34795
1.32526
1.33322
1.30689
1.31667
1.28277
1.29579
1.25128
1.26815
1.214
1.23365
1.1763
1.19559
1.14292
1.15933
1.1152
1.12819
1.09106
1.10181
1.07126
1.07956
1.05924
1.06405
1.05066
1.05529
1.03708
1.04463
1.00935
1.02444
0.960731
0.987552
0.885239
0.927475
0.781785
0.839424
0.65556
0.725123
0.509899
0.584441
0.424639
0.316396
0.335091
0.32086
0.169302
0.28508
-0.385473
-0.0515191
-1.45413
-0.857448
-2.8589
-2.14468
-3.95843
-3.49529
-4.01647
-4.14824
-2.90779
-3.57546
-1.28319
-2.11189
0.229516
-0.487376
1.32263
0.838195
1.887
1.66885
2.01299
1.9932
1.89673
1.97496
1.68949
1.79386
1.47646
1.58564
1.28718
1.38921
1.09699
1.18389
0.996251
1.04223
2.18759
-0.309656
-1.25339
-1.03661
-0.631653
-2.35124
-1.28026
-0.819042
-2.92837
-2.97503
1.79614
-0.816137
-1.71024
-3.52537
2.99833
3.00337
-1.45987
2.78631
2.96694
2.95325
0.739457
0.77064
0.265861
0.351787
0.286998
0.951858
0.971608
0.91959
1.27696
-0.586512
-0.0847069
-4.12793
2.23338
2.40673
0.721164
-0.213666
1.09939
-4.81555
-0.460676
0.188992
-1.84181
-1.5619
0.378051
1.60712
-4.53154
1.26291
-1.11556
-3.20375
1.00757
0.980317
1.05656
1.03322
1.0882
1.07441
1.11405
1.10045
1.14866
1.12976
1.19569
1.17046
1.25378
1.22357
1.31893
1.28596
1.38641
1.35293
1.45203
1.41991
1.5134
1.48361
1.56913
1.54212
1.61969
1.59511
1.66603
1.6433
1.71001
1.68818
1.75324
1.73158
1.79668
1.77492
1.83873
1.81799
1.87774
1.85871
1.91198
1.89543
1.94212
1.92742
1.97032
1.95636
1.99698
1.98399
2.02145
2.00927
2.04503
2.03342
2.06826
2.05663
2.092
2.07995
2.12382
2.10593
2.17554
2.14712
2.25078
2.20961
2.35809
2.30077
2.4795
2.41929
2.59488
2.53656
2.73879
2.66227
2.91359
2.82283
2.9851
0.281875
-0.105972
0.0994846
0.551055
0.428196
0.741728
0.654217
0.739929
0.72788
0.826161
0.775201
0.944462
0.883136
1.07309
1.00829
1.19437
1.13622
1.29111
1.2457
1.36553
1.33139
1.40558
1.39061
1.40914
1.41064
1.39569
1.40345
1.37484
1.38578
1.35333
1.36348
1.33687
1.34457
1.32265
1.32977
1.3077
1.31546
1.29016
1.29943
1.26804
1.27986
1.23976
1.25486
1.20738
1.2243
1.1744
1.19119
1.14337
1.15864
1.11498
1.12839
1.08895
1.10104
1.066
1.07665
1.04778
1.05656
1.0308
1.03967
1.00862
1.02039
0.97415
0.992676
0.922054
0.95048
0.847226
0.888205
0.750275
0.802065
0.633724
0.694627
0.495938
0.566995
0.423927
0.210904
0.236307
0.0560237
0.171528
-0.564102
-0.178191
-1.80883
-1.12191
-3.37171
-2.58525
-4.53506
-4.05726
-4.50519
-4.69884
-3.18514
-3.96912
-1.33352
-2.27178
0.329474
-0.44638
1.4721
0.971605
2.04214
1.82524
2.14592
2.14136
1.9769
2.08011
1.73439
1.85587
1.49301
1.61571
1.281
1.38856
1.08902
1.17498
1.02643
2.03149
-0.365907
-1.86111
-1.26654
-2.84137
-3.68082
3.00761
-2.83084
2.94444
0.817147
0.360377
0.297534
0.90711
0.870058
1.5269
-1.20779
-1.47872
-5.15254
2.57357
0.891982
-0.927701
0.264812
-6.51981
2.07803
2.29132
-1.47046
0.206373
-2.61233
-2.2429
-0.449479
1.27751
-7.22296
-0.50756
0.370496
1.06442
-0.693216
-1.12274
-1.63387
-3.53391
0.972198
0.941208
1.02448
1.00021
1.0656
1.04568
1.1027
1.08406
1.144
1.12247
1.19355
1.16761
1.2511
1.2214
1.31399
1.28216
1.37863
1.34642
1.4418
1.41069
1.50134
1.47225
1.55621
1.52944
1.60657
1.58198
1.65319
1.63029
1.69744
1.67556
1.74044
1.719
1.78285
1.76172
1.82363
1.80348
1.86198
1.84313
1.89692
1.87991
1.928
1.91287
1.95722
1.94264
1.98583
1.97172
2.01314
1.9996
2.04075
2.02681
2.0701
2.05524
2.10151
2.08535
2.14305
2.12024
2.20242
2.17063
2.28119
2.2388
2.38678
2.33101
2.50518
2.44575
2.62646
2.56467
2.76583
2.69367
2.92815
2.84461
3.10281
3.10346
3.01561
3.10669
3.10446
3.09615
3.1039
-5.85725
3.09969
3.09435
0.42805
0.124916
0.284909
0.651576
0.548844
0.8103
0.737032
0.885318
0.934583
0.875801
0.822404
0.847039
0.820626
0.813014
0.883709
0.845615
0.975917
0.92783
1.07969
1.02709
1.18004
1.13155
1.2618
1.22338
1.32445
1.29563
1.36097
1.34643
1.36888
1.36771
1.36145
1.36615
1.34682
1.35475
1.33003
1.3382
1.31605
1.32275
1.30317
1.30971
1.28911
1.2964
1.27263
1.28125
1.25259
1.26321
1.22744
1.24109
1.19865
1.21361
1.16861
1.18377
1.13907
1.15357
1.11071
1.12439
1.08332
1.09666
1.05751
1.07021
1.03409
1.04577
1.01068
1.02253
0.981925
0.996873
0.942307
0.963605
0.88711
0.917137
0.81381
0.853225
0.720654
0.76978
0.611044
0.668022
0.484892
0.548598
0.423868
0.205317
0.23555
0.225206
0.119471
0.169833
-0.0839452
0.0498869
-0.704538
-0.313872
-1.97817
-1.27857
-3.57439
-2.77051
-4.75698
-4.27535
-4.69991
-4.91482
-3.28761
-4.12257
-1.33557
-2.32077
0.406422
-0.390379
1.57129
1.06545
2.1202
1.92019
2.2023
2.19674
2.033
2.13457
1.77751
1.90798
1.50551
1.64417
1.27323
1.38408
1.08539
1.17144
0.945651
1.01159
0.830079
0.883918
1.80918
-0.0699707
-2.64221
-1.81321
-3.24836
-5.18928
2.74715
1.16357
-1.74621
-1.50326
-7.55428
2.47145
3.19608
3.19029
0.945392
0.987464
-3.09154
0.182681
0.24437
0.194419
0.782486
0.786457
0.735056
0.37586
-1.62194
-1.37407
0.52055
-9.12709
1.84782
2.09465
-0.4393
-1.31232
-0.824577
0.977032
-8.91883
-3.69746
-3.17372
-0.0601918
3.10481
3.25483
3.27782
-0.307983
-0.59862
-2.33959
-4.54029
2.92838
0.865717
0.825711
0.937793
0.902961
0.9958
0.968499
1.04386
1.02086
1.08916
1.06644
1.13657
1.11243
1.18901
1.16208
1.24674
1.21728
1.30812
1.27715
1.3706
1.33942
1.43183
1.40154
1.49003
1.46147
1.54412
1.51764
1.59416
1.56964
1.64074
1.61782
1.68484
1.66305
1.72739
1.70624
1.76897
1.74831
1.80883
1.78914
1.84638
1.82787
1.88135
1.86421
1.91335
1.89766
1.9438
1.92864
1.97385
1.95888
2.00385
1.98881
2.0354
2.0193
2.06989
2.05231
2.10835
2.08834
2.15802
2.13129
2.22354
2.18885
2.30676
2.26264
2.41052
2.35638
2.52724
2.4679
2.65241
2.58856
2.79038
2.7197
2.94397
2.86539
3.10645
3.02495
3.21224
3.20243
3.22291
3.21607
3.23672
0.363889
0.0746242
0.229171
0.584414
0.480231
0.756636
0.676296
0.886116
0.824727
0.990477
0.940959
0.893013
0.913766
0.889027
0.884475
0.933102
0.906115
1.00321
0.966106
1.08588
1.04368
1.16834
1.12812
1.23685
1.20473
1.28886
1.26477
1.32158
1.30799
1.33159
1.3289
1.32818
1.33081
1.31833
1.32384
1.30549
1.31198
1.29377
1.29945
1.28256
1.2883
1.26974
1.27639
1.25472
1.26251
1.23674
1.24622
1.21398
1.22703
1.188
1.20134
1.16057
1.17439
1.13241
1.14638
1.10384
1.11797
1.07517
1.08949
1.04702
1.0611
1.01986
1.03343
0.991348
1.00575
0.957368
0.975042
0.913659
0.936978
0.856632
0.887181
0.78375
0.8223
0.694016
0.740787
0.58858
0.643222
0.475794
0.532734
0.361316
0.419708
0.302029
0.150631
0.169754
0.0616463
0.116908
-0.177038
-0.0228425
-0.774481
-0.404848
-1.96368
-1.30827
-3.50132
-2.72565
-4.63173
-4.17807
-4.52788
-4.76252
-3.13365
-3.94957
-1.24452
-2.19749
0.434243
-0.347329
1.57694
1.07853
2.14422
1.92951
2.22745
2.23335
2.04431
2.15253
1.78301
1.9168
1.50004
1.6447
1.25412
1.3684
1.06662
1.15403
0.910679
0.986198
0.8437
1.50832
-0.0924501
-3.73117
-2.54689
-4.00375
-7.34936
2.66698
3.30918
3.10193
3.18703
1.03508
-6.08858
0.250283
0.201732
0.739261
0.690352
0.664428
-0.948149
-2.37804
-1.44732
-10.0508
2.29416
-0.283188
-2.86096
-1.98511
0.528638
-10.6093
-2.4322
-1.2059
-1.41426
-0.239202
3.36228
1.75037
0.457898
0.389231
1.43723
3.51063
3.597
-3.23616
-6.05737
2.88439
0.828372
0.78606
0.903882
0.867579
0.968466
0.937692
1.02349
0.996742
1.07505
1.04935
1.12739
1.10103
1.18251
1.15457
1.24091
1.21136
1.30154
1.27107
1.36256
1.33213
1.42224
1.39266
1.47923
1.45117
1.53263
1.50641
1.58236
1.55792
1.6288
1.60594
1.67261
1.65098
1.71459
1.69377
1.75524
1.73509
1.79419
1.77495
1.83112
1.81289
1.86582
1.84878
1.89807
1.88215
1.92965
1.91384
1.9611
1.94538
1.99336
1.97699
2.02861
2.01049
2.0678
2.04775
2.1126
2.08915
2.16916
2.13917
2.23974
2.20266
2.32709
2.28113
2.431
2.37738
2.54669
2.4875
2.67411
2.60891
2.81235
2.74217
2.95851
2.88423
3.11137
3.03473
3.26683
3.26264
3.18786