/*--------------------------------*- C++ -*----------------------------------*\
  =========                 |
  \\      /  F ield         | OpenFOAM: The Open Source CFD Toolbox
   \\    /   O peration     | Website:  https://openfoam.org
    \\  /    A nd           | Version:  10
     \\/     M anipulation  |
\*---------------------------------------------------------------------------*/
FoamFile
{
    format      ascii;
    class       volVectorField;
    location    "5";
    object      U;
}
// * * * * * * * * * * * * * * * * * * * * * * * * * * * * * * * * * * * * * //

dimensions      [0 1 -1 0 0 0 0];

internalField   nonuniform List<vector> 
8711
(
(1.05247 0.00653927 0)
(1.05224 0.00720015 -4.87568e-23)
(1.05212 0.00630821 4.62571e-23)
(1.16423 -0.0150259 4.30435e-21)
(1.163 -0.0243815 1.61532e-21)
(1.17684 -0.026502 9.62589e-21)
(1.08228 -0.00852599 1.85527e-22)
(1.08391 -0.013132 3.25983e-21)
(0.610379 -0.035549 -1.20649e-21)
(0.61327 0.0594412 9.38491e-21)
(0.783709 -0.494651 0)
(0.449734 -0.69945 -3.64478e-20)
(1.02091 0.00330624 -1.14445e-21)
(1.02088 -0.00148448 3.28693e-23)
(1.03544 -0.0459787 5.5048e-21)
(1.02595 -0.0436161 0)
(1.18876 0.050746 -4.39438e-21)
(1.19901 0.0603982 4.59308e-21)
(1.21284 0.0607529 2.99787e-21)
(1.05105 0.0031162 4.68097e-22)
(1.05123 0.00305061 -6.84102e-22)
(1.05135 0.00428096 -2.90788e-22)
(1.05121 0.00387892 0)
(1.05187 0.00614474 -3.74599e-23)
(1.43455 -0.306609 6.94163e-20)
(1.43294 -0.322021 -1.61976e-20)
(1.49351 -0.391531 2.85115e-20)
(1.2706 -0.279783 -5.64606e-20)
(1.01227 -0.0163504 9.74726e-22)
(1.03407 -0.014568 -1.30339e-21)
(1.04537 -0.0123887 2.0704e-23)
(1.05593 0.220449 1.15288e-19)
(0.961085 0.25115 3.04591e-20)
(1.40418 0.296964 5.53504e-21)
(1.41225 0.244259 -3.78795e-20)
(1.03898 0.0574582 -4.03305e-20)
(1.04749 0.0692558 1.16361e-20)
(1.03913 -0.0765265 0)
(1.02321 -0.0452769 -5.17387e-20)
(1.02832 -0.0482603 7.26173e-20)
(1.01549 -0.033666 0)
(1.00834 -0.0181761 0)
(-0.196158 -0.0418742 8.36298e-21)
(-0.179029 -0.142272 1.01552e-19)
(0.493084 0.698073 3.97881e-20)
(0.792192 0.706726 1.99986e-20)
(-0.0308584 0.0772311 -1.15061e-19)
(0.106217 0.0815124 4.04639e-20)
(-0.076662 0.0952993 -5.88917e-20)
(1.05096 0.000933291 1.5741e-21)
(1.0512 0.00109288 3.25911e-21)
(1.05109 0.00110084 1.05344e-21)
(1.05083 0.00106009 0)
(1.1155 0.01311 0)
(1.11161 0.0176645 6.47571e-22)
(1.10605 0.0213788 -9.15993e-22)
(1.01813 -0.0116072 1.89969e-21)
(1.01327 -0.013303 -3.94697e-21)
(1.01878 -0.00671576 0)
(1.01331 -0.00663365 4.19964e-21)
(1.04922 -0.00110996 -1.62425e-21)
(1.0492 -0.00112663 -8.35396e-22)
(1.04886 -0.000978837 1.99767e-21)
(1.04894 -0.0009866 8.48896e-22)
(1.06796 -0.00162592 -5.97854e-21)
(1.07142 -0.00337168 0)
(1.08011 -0.00177538 2.94631e-21)
(1.05166 0.0050728 0)
(1.05186 0.00493399 4.72178e-22)
(1.05103 0.00446493 -3.21553e-23)
(1.0478 -0.000298745 3.32509e-21)
(1.04801 -0.000662989 -1.64757e-21)
(1.04739 -0.000444213 6.1183e-22)
(1.04734 -0.000227164 0)
(1.06234 -0.00291062 -4.45865e-21)
(1.06278 -0.0084517 0)
(1.06926 -0.0024823 3.783e-21)
(1.06985 0.00339678 -2.96449e-21)
(1.05213 0.0045273 -4.57692e-22)
(1.0502 -4.43788e-05 -5.57257e-23)
(1.05019 -0.00019889 9.45255e-22)
(1.04915 -0.000727101 2.6836e-22)
(1.0493 -0.000794171 0)
(1.05255 0.00505083 -7.32773e-23)
(1.05228 0.00527075 -2.86303e-22)
(1.05189 0.00556806 3.49163e-22)
(1.01463 0.0114176 2.94972e-21)
(1.00951 0.00703081 -9.97492e-21)
(1.02007 0.0326216 1.23419e-21)
(1.00554 0.0300884 1.03495e-23)
(1.09769 0.0151287 -1.53073e-21)
(1.10102 0.0124677 5.72446e-22)
(1.10015 0.0260899 6.01247e-22)
(1.21247 -0.107945 1.23872e-21)
(1.19108 -0.0899387 -1.21493e-21)
(1.11096 0.0968391 9.69559e-21)
(1.09507 0.0975495 -4.8687e-22)
(1.08557 0.0856701 -4.50196e-21)
(1.09932 0.0879746 -1.65204e-21)
(1.13579 0.108291 2.02029e-23)
(1.12277 0.0844256 0)
(0.97947 -0.167813 -6.25847e-21)
(0.984893 -0.229412 1.57279e-20)
(1.02525 -0.00167392 1.06102e-21)
(1.02888 -0.001671 4.86729e-22)
(1.03196 -0.00156456 4.49062e-23)
(1.03448 -0.00132988 0)
(1.03661 -0.00130419 6.13204e-22)
(1.03835 -0.00116429 -6.48723e-22)
(1.03984 -0.00107458 -3.84297e-23)
(1.04111 -0.00101589 -3.67938e-23)
(1.04224 -0.000926961 2.54332e-22)
(1.04325 -0.000817608 -3.45753e-22)
(1.04415 -0.000735943 -1.26185e-22)
(1.04492 -0.000611951 -2.38063e-22)
(1.04554 -0.000547796 3.03608e-22)
(1.04609 -0.000453964 1.15778e-22)
(1.04653 -0.000366315 2.13986e-22)
(1.04663 -0.000694588 -4.38159e-22)
(1.04693 -0.000195424 4.11468e-22)
(1.04704 -0.000480925 -7.31953e-22)
(1.04568 -0.00103465 5.98224e-23)
(1.04621 -0.000829155 2.26097e-22)
(1.0443 -0.00144525 -1.605e-23)
(1.04507 -0.00121009 1.21782e-22)
(1.04247 -0.00186422 1.40368e-22)
(1.04345 -0.00163669 6.67028e-23)
(1.04017 -0.00235842 0)
(1.0414 -0.00207196 3.65346e-23)
(1.03711 -0.00297623 8.11398e-23)
(1.03877 -0.0026117 0)
(1.03289 -0.00381062 -2.27812e-23)
(1.03517 -0.00328387 0)
(1.02671 -0.00497372 -4.01867e-22)
(1.03009 -0.004339 -4.65075e-23)
(1.023 -0.00561072 -1.82626e-21)
(1.0289 0.00158303 7.57568e-22)
(1.02536 0.00242007 2.23561e-22)
(1.03442 0.000783878 6.30815e-22)
(1.0319 0.00114822 -3.57604e-22)
(1.03831 0.000352818 -6.31902e-22)
(1.03654 0.000544957 -6.33238e-22)
(1.04109 0.000113839 -5.95093e-22)
(1.03982 0.000236732 9.7359e-22)
(1.04322 7.56226e-05 6.52124e-22)
(1.0422 8.61171e-05 -5.29412e-23)
(1.04488 0.000101258 -1.59661e-23)
(1.04412 0.000136437 -5.09809e-22)
(1.04605 -5.21645e-05 2.03471e-22)
(1.04552 -5.82707e-06 -3.50068e-22)
(1.0469 7.27499e-05 0)
(1.04651 -1.14775e-05 0)
(1.04728 9.86676e-05 -1.85693e-22)
(1.0134 -7.58856e-05 3.59141e-21)
(1.04772 -0.000293172 7.4225e-22)
(1.04752 -0.000635573 -7.85157e-22)
(1.04761 3.51261e-05 -5.45298e-22)
(1.00769 -0.00630446 -1.93617e-21)
(1.01529 0.00423789 -3.35709e-21)
(1.0468 -0.000971368 4.27157e-22)
(1.04726 -0.000837084 3.70671e-22)
(1.04589 -0.00143953 -2.29609e-22)
(1.04642 -0.00120116 -1.37913e-22)
(1.04458 -0.00208397 2.61538e-22)
(1.04531 -0.00174918 -2.21209e-22)
(1.04289 -0.00270699 -1.38996e-22)
(1.04378 -0.00237674 0)
(1.04083 -0.00338085 -8.90153e-22)
(1.04192 -0.00299134 5.91629e-22)
(1.03811 -0.00443049 5.59154e-22)
(1.03956 -0.00387665 3.05847e-22)
(1.03446 -0.0058877 1.11865e-22)
(1.03639 -0.00508922 -6.69761e-22)
(1.02939 -0.00784053 8.03613e-22)
(1.0321 -0.00674556 -1.33322e-22)
(1.02248 -0.0106157 0)
(1.0262 -0.00920668 -8.28419e-22)
(1.04804 -0.000470773 -2.19756e-21)
(1.04787 -0.000139219 6.95362e-22)
(1.02321 0.00692714 4.10323e-22)
(1.01905 0.0086919 -2.64585e-21)
(1.03006 0.00438591 3.60915e-22)
(1.0269 0.00558033 1.92933e-22)
(1.03502 0.00274321 8.41347e-23)
(1.03271 0.0034527 1.46516e-23)
(1.03865 0.00175087 -3.28746e-22)
(1.03699 0.00222648 3.21622e-22)
(1.04131 0.00117162 8.2724e-22)
(1.04007 0.00141175 0)
(1.04332 0.000900035 -1.22235e-22)
(1.04236 0.00102728 -5.17619e-22)
(1.04496 0.000749836 -2.53247e-22)
(1.0442 0.000821788 2.51095e-22)
(1.04612 0.000461467 -4.69011e-22)
(1.0456 0.000591761 4.77411e-22)
(1.04693 0.00046539 -2.44444e-23)
(1.04656 0.000402664 -1.33035e-23)
(1.04748 0.000378787 -7.10436e-22)
(1.04723 0.0004426 -3.57417e-22)
(1.04802 -0.000489016 -3.73444e-21)
(1.04813 -0.000623334 3.37748e-22)
(1.00653 0.000879099 0)
(1.04773 0.000164396 0)
(1.0075 -0.0147613 4.08326e-21)
(1.00047 -0.00651867 -1.04624e-21)
(1.02118 -0.0178329 -3.77421e-21)
(1.0173 -0.0207724 3.51366e-21)
(1.04856 -0.000769057 1.29823e-20)
(1.04865 -0.000914751 -5.63729e-21)
(1.04834 -0.00108493 2.05192e-21)
(1.00318 0.00867879 -2.26523e-21)
(1.00994 0.014055 -2.17403e-21)
(1.0478 -0.0010597 -1.09229e-22)
(1.04816 -0.000775132 8.56718e-22)
(1.04707 -0.00145232 0)
(1.0475 -0.00115263 1.03501e-22)
(1.04616 -0.00205859 4.2694e-22)
(1.04668 -0.00170509 -5.12725e-22)
(1.04493 -0.00282819 4.60514e-22)
(1.0456 -0.00242503 -5.55051e-22)
(1.04344 -0.00351487 1.57294e-21)
(1.04422 -0.00317875 -1.12153e-21)
(1.04164 -0.00439106 -2.42636e-22)
(1.04258 -0.00387394 -2.80687e-22)
(1.03935 -0.00576428 0)
(1.04058 -0.00497621 -3.91208e-23)
(1.03639 -0.0076604 -1.37766e-21)
(1.03795 -0.00666479 7.24952e-22)
(1.03248 -0.0103393 5.81418e-24)
(1.03451 -0.00888368 7.40196e-22)
(1.02739 -0.0138256 9.32751e-22)
(1.03 -0.0119781 3.58856e-22)
(1.0244 -0.0157198 -8.5554e-22)
(1.04746 0.000662397 -3.77973e-22)
(1.04766 0.00044129 0)
(1.02061 0.0147084 1.98503e-21)
(1.00506 0.0169579 -3.60629e-23)
(1.01464 0.0205485 3.33261e-21)
(1.01745 0.0174476 -1.08111e-21)
(1.02667 0.0100285 -8.07207e-22)
(1.02355 0.0120746 2.71987e-21)
(1.03193 0.00682723 7.23743e-22)
(1.02938 0.00833917 -9.68003e-22)
(1.03613 0.00460318 -3.98073e-23)
(1.03414 0.00557736 -2.21233e-23)
(1.03931 0.00313542 0)
(1.03783 0.00376421 0)
(1.04174 0.00223158 0)
(1.04057 0.00265319 0)
(1.04362 0.00174215 0)
(1.04273 0.00192995 0)
(1.04514 0.00124466 -9.36124e-22)
(1.04442 0.00150219 1.03049e-21)
(1.04625 0.000889278 -3.23283e-24)
(1.04573 0.00102714 0)
(1.04701 0.00078397 2.52866e-23)
(1.04667 0.000784792 1.39767e-23)
(1.04727 0.000777198 7.49528e-22)
(1.04825 -0.000591465 0)
(1.04842 -0.00066172 3.37537e-22)
(1.04798 -0.000102119 0)
(1.0481 -0.000338024 0)
(0.999159 0.00188328 5.41547e-21)
(0.99992 -0.0155961 0)
(1.01152 -0.0234965 -1.01747e-20)
(1.00104 -0.0220029 -2.41102e-21)
(1.01625 -0.026388 1.07091e-20)
(1.04866 -0.001061 -2.95086e-21)
(1.04787 0.000165176 -6.8015e-22)
(0.996196 0.0113478 6.44893e-22)
(0.99207 -0.00680219 0)
(1.0228 0.0225871 5.65157e-22)
(1.01166 0.0234545 0)
(1.02132 0.0255531 -4.95172e-22)
(0.999764 0.0195573 -3.14373e-22)
(0.990289 -0.0160776 5.82218e-22)
(1.01408 -0.0312127 -2.08694e-21)
(0.999467 -0.027827 6.61678e-22)
(1.01109 -0.0342205 5.7597e-21)
(1.02365 -0.034961 -5.24027e-21)
(1.02187 -0.0397811 0)
(1.04809 -0.00119127 9.49386e-23)
(1.04838 -0.00106388 -2.26376e-22)
(1.04738 -0.00172212 0)
(1.04779 -0.00139659 1.02357e-22)
(1.04645 -0.00247411 0)
(1.04696 -0.00207203 0)
(1.04532 -0.00335462 9.01251e-25)
(1.04591 -0.00291034 0)
(1.04403 -0.00416975 -1.93702e-24)
(1.0447 -0.00376375 0)
(1.04255 -0.00514058 -2.13665e-24)
(1.04332 -0.0045981 0)
(1.04068 -0.00678868 0)
(1.04167 -0.00588117 0)
(1.03836 -0.00900981 2.98947e-26)
(1.03958 -0.00780994 0)
(1.03548 -0.0119988 0)
(1.03698 -0.0103714 0)
(1.03217 -0.0159697 0)
(1.0338 -0.0138898 0)
(1.02881 -0.0207557 2.95047e-22)
(1.03037 -0.0183253 1.7521e-21)
(1.02482 -0.0261069 -1.92106e-21)
(1.02709 -0.0232565 -1.65978e-21)
(1.02551 -0.0317788 2.27859e-21)
(1.02614 0.016991 -1.47804e-23)
(1.02423 0.0195416 1.50715e-23)
(1.03009 0.0124741 -1.4493e-24)
(1.02801 0.0146106 0)
(1.03408 0.0088308 0)
(1.03214 0.0104861 0)
(1.03746 0.00613848 0)
(1.03582 0.00737635 0)
(1.04015 0.00443259 0)
(1.03888 0.00518136 0)
(1.04233 0.00322064 1.00072e-24)
(1.04128 0.0037784 0)
(1.04404 0.0024739 0)
(1.04323 0.00279819 0)
(1.04537 0.00191881 0)
(1.04475 0.0021976 0)
(1.04642 0.00134554 0)
(1.04593 0.00161506 0)
(1.04716 0.00105611 4.55755e-23)
(1.04684 0.00115299 0)
(1.04755 0.00088912 8.80959e-23)
(1.0474 0.000990437 9.34099e-23)
(1.04784 0.000460519 6.90694e-22)
(1.04768 0.000709164 -6.98043e-22)
(1.04874 -0.00103515 2.85868e-22)
(1.04901 -0.00107895 -2.01631e-22)
(1.04841 -0.000693289 1.84935e-24)
(1.04854 -0.000786399 -1.89664e-22)
(1.04825 -0.000321202 0)
(1.04832 -0.000524417 -8.53184e-23)
(1.04805 0.000229885 -6.67202e-22)
(1.04813 -7.66948e-05 5.90892e-22)
(0.991071 0.00278114 -3.54222e-23)
(1.00913 0.0268872 1.25983e-21)
(1.02072 0.0290278 -1.32083e-21)
(1.04797 0.000692193 0)
(1.04809 0.000494258 0)
(0.988164 0.0126682 -6.03266e-22)
(0.98229 -0.00699663 -1.18274e-21)
(1.03175 -0.0360447 4.55988e-21)
(1.03205 -0.0400406 -1.06521e-20)
(0.994441 0.0225655 9.55469e-22)
(0.98206 -0.0191403 1.29155e-21)
(0.992094 -0.0294424 -7.29462e-22)
(1.00854 -0.0388496 -2.94996e-21)
(1.04898 -0.00113363 1.35333e-24)
(1.04917 -0.00114993 -9.52595e-22)
(1.04839 -0.00148883 0)
(1.04871 -0.00125219 0)
(1.04765 -0.00212121 2.4549e-23)
(1.04807 -0.00176794 7.63219e-23)
(1.04671 -0.00295253 0)
(1.04721 -0.00252078 0)
(1.04573 -0.0038711 -8.88051e-25)
(1.04622 -0.00341174 0)
(1.04468 -0.00477616 3.85651e-24)
(1.04523 -0.00431817 0)
(1.04344 -0.00590794 2.09662e-24)
(1.04409 -0.00528213 0)
(1.0419 -0.00764527 0)
(1.04271 -0.00668604 0)
(1.04004 -0.0100465 4.91568e-24)
(1.04101 -0.00877311 0)
(1.03789 -0.0131814 0)
(1.03899 -0.0114956 0)
(1.03559 -0.0174741 0)
(1.03673 -0.015163 0)
(1.03362 -0.0225263 -3.35386e-23)
(1.03451 -0.020029 -2.24974e-22)
(1.03231 -0.0278211 1.27529e-21)
(1.03287 -0.0251173 2.33951e-22)
(1.03218 -0.0318144 -1.51973e-21)
(1.02747 0.0297706 8.62346e-22)
(1.01889 0.0369515 -9.93798e-21)
(1.02648 0.0368258 0)
(1.02709 0.033254 -1.79582e-21)
(1.02846 0.0236106 4.86778e-22)
(1.02765 0.0264857 7.59192e-22)
(1.03047 0.0184682 0)
(1.02935 0.0209328 0)
(1.0332 0.0139365 -1.42985e-24)
(1.03173 0.0161889 0)
(1.03612 0.0101672 1.2664e-24)
(1.03466 0.0119499 0)
(1.0388 0.00738121 0)
(1.0375 0.00864116 0)
(1.04107 0.00541804 0)
(1.03998 0.00632722 0)
(1.04299 0.00399416 -1.0005e-24)
(1.04207 0.004629 0)
(1.04453 0.00310459 0)
(1.04381 0.00350113 0)
(1.04571 0.00240755 0)
(1.04516 0.00276242 0)
(1.04665 0.0017152 0)
(1.0462 0.00205757 0)
(1.04735 0.00132523 -2.44637e-23)
(1.04704 0.00148832 1.09927e-25)
(1.04774 0.0010671 -1.83715e-22)
(1.04758 0.00119967 -1.18449e-23)
(1.04786 0.000884371 6.97849e-22)
(1.04921 -0.00111247 -7.37135e-22)
(1.04882 -0.00108943 1.33091e-22)
(1.04908 -0.00114637 3.02963e-22)
(1.04855 -0.000795301 1.72247e-22)
(1.04862 -0.0009019 -3.60255e-22)
(1.04851 -0.000445933 1.66757e-22)
(1.04853 -0.000631271 8.43142e-23)
(1.0483 9.02663e-05 0)
(1.04843 -0.00021037 -2.44925e-22)
(1.04826 0.000338558 0)
(0.981045 0.00337081 0)
(1.04949 -0.00125275 -1.6634e-21)
(1.04927 -0.00122076 -1.8646e-21)
(1.02591 0.0412453 0)
(1.04919 -0.00130178 2.71976e-21)
(0.979534 0.0151369 -1.26772e-21)
(0.971049 -0.00816404 0)
(0.987701 0.0255401 6.75436e-22)
(0.972348 -0.0215142 -6.93459e-22)
(1.04852 0.00038755 -1.18005e-21)
(1.00119 0.0342552 -1.48384e-21)
(0.987006 -0.034743 6.83941e-22)
(1.01892 0.0417948 1.37055e-20)
(1.01003 -0.0436762 0)
(1.04913 -0.00102371 2.25032e-21)
(1.04842 0.000521041 -6.98818e-22)
(1.04911 -0.00132634 5.00282e-22)
(1.04944 -0.00128576 -1.68315e-21)
(1.04861 -0.00176229 -1.44551e-22)
(1.04899 -0.00148336 2.09008e-22)
(1.04782 -0.00253188 -2.55802e-23)
(1.04827 -0.00212278 -2.62235e-23)
(1.04695 -0.00338535 0)
(1.0474 -0.00295997 0)
(1.04617 -0.004271 8.88051e-25)
(1.04655 -0.00382665 0)
(1.04538 -0.00523387 -3.81808e-24)
(1.04579 -0.0047343 0)
(1.04434 -0.00649515 2.0501e-24)
(1.0449 -0.00580523 0)
(1.04305 -0.00835555 0)
(1.04372 -0.00734028 0)
(1.04157 -0.0108443 -4.83888e-24)
(1.04233 -0.0095338 0)
(1.03999 -0.0139779 0)
(1.04077 -0.012312 0)
(1.03852 -0.0181269 0)
(1.03922 -0.0159144 0)
(1.03754 -0.0230635 2.62354e-23)
(1.03791 -0.0205756 1.74399e-24)
(1.03744 -0.0283882 9.08044e-22)
(1.03725 -0.0257022 -9.66659e-22)
(1.03864 -0.0352268 0)
(1.03783 -0.03158 2.42003e-22)
(1.04129 -0.0431828 0)
(1.0397 -0.039129 0)
(1.03524 0.039141 1.07409e-21)
(1.03471 0.0451291 -7.25869e-21)
(1.03415 0.0309109 5.24992e-22)
(1.03482 0.0347937 -1.0803e-21)
(1.03369 0.0246731 -2.373e-21)
(1.03372 0.0276076 -6.1225e-24)
(1.0344 0.0195864 -1.20187e-21)
(1.03386 0.0220121 4.71313e-22)
(1.03598 0.0150879 1.40496e-24)
(1.035 0.0173505 1.6944e-21)
(1.03801 0.0113102 -1.26642e-24)
(1.03697 0.0131045 0)
(1.0401 0.00843315 1.4439e-28)
(1.03907 0.00975738 -1.71898e-28)
(1.04201 0.00630204 0)
(1.04108 0.00729737 0)
(1.04369 0.00474381 0)
(1.04288 0.00544985 0)
(1.04507 0.00370095 0)
(1.04442 0.0041752 0)
(1.04612 0.00285618 0)
(1.04564 0.00327308 0)
(1.04694 0.00208607 0)
(1.04655 0.00244719 0)
(1.04758 0.00152798 -8.10133e-24)
(1.04728 0.00177015 -4.40849e-22)
(1.04799 0.00116046 0)
(1.04781 0.00137316 4.18583e-22)
(1.04822 0.00079785 -3.27465e-22)
(1.04811 0.000993313 0)
(1.04832 0.000721245 9.66287e-22)
(1.02962 -0.0481914 -2.38084e-21)
(1.04241 -0.048231 -4.8532e-21)
(1.04919 -0.00114619 7.88369e-22)
(1.04916 -0.000885605 0)
(1.04924 -0.00112619 -6.9682e-22)
(1.0489 -0.00110994 -8.39198e-23)
(1.0491 -0.00116019 -1.92406e-22)
(1.0487 -0.000812296 0)
(1.04874 -0.000942469 8.33991e-23)
(1.04876 -0.00046328 -3.25167e-22)
(1.04873 -0.000648483 1.66477e-22)
(1.04858 3.8418e-05 0)
(1.04871 -0.000234271 1.60633e-22)
(1.04848 0.000250073 0)
(0.970279 0.00409568 0)
(0.969682 0.0171085 -3.44687e-22)
(0.958664 -0.00949161 6.66176e-22)
(1.04861 0.000327604 1.0614e-21)
(1.04855 0.000771079 0)
(1.04877 0.000640033 3.36427e-21)
(0.979678 0.0286493 -6.97083e-22)
(0.962058 -0.0253737 0)
(0.998589 0.0383776 2.21086e-21)
(0.981161 -0.0395394 -7.2618e-22)
(1.01595 0.0462374 -8.05209e-22)
(1.01113 -0.0498019 4.33514e-21)
(1.03325 0.0490791 5.0525e-21)
(1.04451 -0.0539182 -2.4581e-21)
(1.03186 -0.0576475 2.51154e-21)
(1.04927 -0.00100134 0)
(1.04908 -0.000722732 -9.1689e-23)
(1.0658 -0.0786986 1.44942e-21)
(1.04935 -0.00131968 1.02326e-21)
(1.04937 -0.00127993 0)
(1.0492 -0.00154721 1.9551e-22)
(1.04934 -0.00149992 1.77298e-22)
(1.04868 -0.00207577 -1.40346e-27)
(1.04901 -0.00177114 -1.05387e-22)
(1.04793 -0.00293464 2.45089e-23)
(1.04833 -0.00249638 -2.63513e-23)
(1.04721 -0.00374135 0)
(1.04756 -0.00333761 0)
(1.04666 -0.00455965 -8.70183e-25)
(1.04692 -0.00413423 0)
(1.04609 -0.00559154 3.77405e-24)
(1.0464 -0.00503871 0)
(1.04523 -0.00698838 -2.0501e-24)
(1.0457 -0.00623301 0)
(1.04413 -0.00894031 -2.18015e-24)
(1.04469 -0.00788843 0)
(1.04294 -0.0114693 4.53026e-26)
(1.04354 -0.0101434 0)
(1.04177 -0.0145594 0)
(1.04234 -0.0129323 0)
(1.04087 -0.0184813 0)
(1.04127 -0.0164097 0)
(1.04048 -0.0231884 0)
(1.0406 -0.0207585 0)
(1.04099 -0.0283654 1.24565e-25)
(1.04057 -0.0256889 0)
(1.043 -0.0341724 1.31513e-22)
(1.04187 -0.0311707 -5.01816e-22)
(1.04587 -0.0411977 1.06331e-21)
(1.04425 -0.0374715 -1.29614e-22)
(1.05168 -0.0510973 -1.06179e-21)
(1.0485 -0.0459223 0)
(1.04571 -0.0619073 0)
(1.05623 -0.0672222 2.82085e-20)
(1.05454 -0.0583583 -8.76366e-21)
(1.03968 0.0370311 -4.09445e-21)
(1.04105 0.0478746 2.17856e-21)
(1.03998 0.0416293 5.35304e-21)
(1.03858 0.0298747 -4.68693e-22)
(1.03929 0.0332209 1.45377e-21)
(1.03744 0.0244618 0)
(1.03789 0.0269969 8.33703e-23)
(1.03743 0.0198637 -1.44988e-24)
(1.03723 0.0221505 0)
(1.03836 0.0157025 0)
(1.03781 0.0177073 0)
(1.03973 0.0121039 0)
(1.039 0.0138264 0)
(1.04134 0.00924627 0)
(1.04052 0.0105824 0)
(1.04294 0.00705176 0)
(1.04215 0.00808134 0)
(1.04441 0.00540784 0)
(1.0437 0.00616402 0)
(1.04565 0.00422692 0)
(1.04507 0.00477688 0)
(1.04659 0.00324184 1.66604e-24)
(1.04616 0.00372642 0)
(1.04729 0.00238771 0)
(1.04696 0.00279583 0)
(1.04783 0.00179073 0)
(1.04759 0.00206462 0)
(1.04823 0.00136986 -1.3388e-24)
(1.04807 0.00156821 0)
(1.04845 0.000966188 3.47997e-22)
(1.04841 0.00119138 0)
(1.04868 0.000801557 -5.08208e-22)
(1.04918 -0.00100845 -5.54191e-24)
(1.0492 -0.000975814 1.41302e-21)
(1.04898 -0.00103989 -7.97831e-23)
(1.04911 -0.00108737 -1.67722e-22)
(1.04886 -0.000751094 2.3447e-27)
(1.04886 -0.000885715 8.03758e-23)
(1.04899 -0.000389443 1.9722e-28)
(1.04893 -0.000578107 0)
(1.04886 4.44938e-05 -1.66209e-24)
(1.04897 -0.000184864 7.83427e-23)
(1.0487 0.000248696 -5.95737e-22)
(0.957597 0.00458319 0)
(1.04936 -0.00101263 0)
(1.04891 0.000636661 2.7952e-22)
(1.04902 0.000591443 -1.00578e-21)
(0.957619 0.0190174 -6.5938e-23)
(0.944587 -0.0111342 0)
(0.972244 0.0323632 7.51699e-22)
(0.949292 -0.0286558 7.17906e-22)
(0.994145 0.0431977 0)
(0.973855 -0.0453357 -3.66112e-21)
(1.02041 0.0508574 2.12701e-21)
(1.04276 0.0548889 6.14796e-22)
(1.03497 0.0582572 2.51342e-21)
(1.00494 -0.0566233 2.23682e-21)
(1.02902 -0.0640636 0)
(1.04736 -0.0701236 -3.01805e-21)
(1.05973 -0.0781654 3.03296e-21)
(1.06277 -0.06443 0)
(1.06774 -0.075062 -6.16577e-22)
(1.07088 -0.0898816 -1.17153e-20)
(1.04931 -0.00131353 -6.80608e-22)
(1.04934 -0.00113572 0)
(1.04911 -0.0017004 9.20667e-23)
(1.04925 -0.00150107 0)
(1.04861 -0.00237232 2.78074e-27)
(1.04889 -0.00199484 -9.38087e-23)
(1.04801 -0.00323517 0)
(1.04831 -0.00280582 -1.01044e-28)
(1.04753 -0.00397678 0)
(1.04774 -0.00362589 0)
(1.0472 -0.00474816 8.70287e-25)
(1.04735 -0.00433415 -1.21565e-28)
(1.04678 -0.00587712 -2.55311e-26)
(1.04702 -0.00526039 0)
(1.04605 -0.00741232 -1.98984e-24)
(1.04645 -0.00659483 -1.40852e-28)
(1.04514 -0.00942133 2.18015e-24)
(1.0456 -0.00835183 0)
(1.04419 -0.0119573 2.35357e-24)
(1.04466 -0.0106315 1.63383e-28)
(1.04332 -0.0149826 2.48128e-24)
(1.04373 -0.0134038 1.76163e-28)
(1.04279 -0.0186742 0)
(1.04299 -0.0167396 0)
(1.04284 -0.0230078 0)
(1.04274 -0.0207807 0)
(1.04369 -0.0277996 1.3331e-25)
(1.04314 -0.0253421 0)
(1.04596 -0.0328754 -9.19099e-22)
(1.04461 -0.0303535 9.79087e-22)
(1.04897 -0.0393801 -1.40872e-21)
(1.04721 -0.0358783 2.54561e-22)
(1.05506 -0.0486553 3.10543e-21)
(1.05158 -0.0436999 1.24374e-22)
(1.05866 -0.0551621 -2.06602e-21)
(1.04485 0.0452086 5.3097e-22)
(1.04465 0.0644039 -3.43186e-21)
(1.04899 0.0606418 1.63991e-21)
(1.04678 0.0519722 -2.02568e-21)
(1.04252 0.0354908 9.8164e-22)
(1.04332 0.0397792 0)
(1.04152 0.0291331 -5.50932e-23)
(1.04203 0.0321131 -2.5082e-22)
(1.04017 0.024286 7.90153e-22)
(1.04067 0.0266306 -1.14469e-22)
(1.03997 0.0200427 1.42922e-24)
(1.0399 0.0221323 -8.86645e-22)
(1.04048 0.0161443 0)
(1.04017 0.0180406 0)
(1.04137 0.0127065 0)
(1.04088 0.0143614 0)
(1.04257 0.00990948 0)
(1.04194 0.0112271 0)
(1.04389 0.00770731 0)
(1.04322 0.0087467 0)
(1.04518 0.00599909 9.55917e-25)
(1.04455 0.00679587 0)
(1.04627 0.00469451 0)
(1.04576 0.0053121 0)
(1.04708 0.00358128 -3.31474e-24)
(1.04671 0.00412685 0)
(1.04767 0.00264787 0)
(1.0474 0.00308977 0)
(1.04812 0.00199493 0)
(1.04791 0.00229895 0)
(1.04847 0.00150381 1.31979e-24)
(1.04832 0.00175969 0)
(1.04875 0.00107588 1.57828e-22)
(1.04866 0.00131167 -3.60029e-22)
(1.04888 0.000970868 1.0476e-23)
(1.04901 -0.000569092 3.43662e-22)
(1.04929 -0.000626529 6.91053e-22)
(1.04911 -0.000554136 -8.55173e-22)
(1.0491 -0.000806598 -3.25029e-22)
(1.04909 -0.000761631 -6.47114e-22)
(1.04904 -0.000886527 0)
(1.04909 -0.000894304 0)
(1.04902 -0.000626943 -2.34468e-27)
(1.049 -0.000759511 0)
(1.04918 -0.000288836 1.91663e-28)
(1.0491 -0.000461655 0)
(1.04909 7.79476e-05 3.5348e-23)
(1.0492 -0.000116538 0)
(1.04874 0.000287123 -5.53591e-22)
(1.04889 0.00024523 3.70965e-22)
(1.04902 0.000470159 1.34106e-21)
(1.04878 0.000491501 -1.77751e-21)
(0.943286 0.00512876 -3.30635e-28)
(0.945042 0.021773 1.1147e-21)
(0.928212 -0.012306 0)
(0.964033 0.0370741 -7.5543e-22)
(0.935513 -0.0324347 -7.59568e-22)
(1.04897 0.000343401 -4.9168e-22)
(1.04926 0.000408779 2.55282e-22)
(1.0492 0.000307103 2.38003e-22)
(0.992515 0.0499484 -3.02457e-21)
(1.01685 0.0590735 0)
(1.03498 0.067006 -2.5715e-21)
(1.05183 0.0720733 0)
(1.04696 0.0762709 0)
(0.964768 -0.0501645 -1.46664e-23)
(0.99962 -0.063887 -2.38674e-22)
(1.03007 -0.0735125 4.65465e-21)
(1.04998 -0.0807365 8.01288e-22)
(1.06455 -0.0919108 1.53859e-21)
(1.04952 -0.000666569 1.69178e-22)
(1.07435 -0.0881646 1.21384e-21)
(1.07654 -0.106239 6.07967e-21)
(1.0808 -0.103303 0)
(1.04936 -0.000489279 6.54044e-22)
(1.04958 -0.000506357 -1.73695e-22)
(1.04948 -0.000977292 3.27486e-22)
(1.04949 -0.00080023 -3.37895e-22)
(1.04932 -0.00137281 3.39345e-22)
(1.04941 -0.00113497 -1.69403e-22)
(1.04903 -0.00185802 -3.32777e-22)
(1.04919 -0.00159109 5.01788e-22)
(1.04858 -0.00262225 -2.67067e-27)
(1.04881 -0.00219962 0)
(1.04818 -0.00343689 -3.58169e-28)
(1.04836 -0.00303516 0)
(1.04795 -0.0040987 0)
(1.04804 -0.00377902 0)
(1.04777 -0.00487083 0)
(1.04787 -0.00443901 0)
(1.04743 -0.00611391 -1.84986e-24)
(1.04763 -0.00543009 0)
(1.04684 -0.00776599 1.98996e-24)
(1.04716 -0.00689888 0)
(1.04612 -0.00980521 -1.26988e-28)
(1.04648 -0.0087304 1.48903e-28)
(1.04539 -0.0123271 0)
(1.04575 -0.0110114 0)
(1.04478 -0.0152645 -6.58479e-26)
(1.04506 -0.013746 0)
(1.04455 -0.0187174 0)
(1.04459 -0.016919 0)
(1.04495 -0.0227112 2.77036e-24)
(1.04468 -0.0206634 0)
(1.04606 -0.0270592 3.09257e-24)
(1.0454 -0.0248498 0)
(1.0482 -0.0316971 1.7011e-25)
(1.04699 -0.0293352 0)
(1.05145 -0.0373299 2.34046e-22)
(1.04963 -0.0342112 0)
(1.05685 -0.0460185 2.98671e-23)
(1.05375 -0.0412845 -2.36404e-22)
(1.06436 -0.0600565 -1.06984e-21)
(1.0605 -0.0520567 9.82251e-22)
(1.07538 -0.0834743 0)
(1.06898 -0.0707894 -5.57536e-22)
(1.05143 0.0571753 1.44056e-21)
(1.05547 0.0868261 -1.17407e-21)
(1.05869 0.0816087 -1.4105e-21)
(1.05457 0.0678255 -4.88434e-22)
(1.04731 0.0430947 -8.77724e-22)
(1.04916 0.049247 0)
(1.04483 0.0343308 1.10157e-22)
(1.04581 0.0382395 7.05338e-22)
(1.04367 0.0287113 5.16979e-23)
(1.04424 0.031255 -2.38026e-22)
(1.04253 0.0241769 -1.48634e-24)
(1.04297 0.0263779 -2.1101e-28)
(1.04228 0.020073 0)
(1.04231 0.0220491 0)
(1.04248 0.0163844 1.24899e-24)
(1.04235 0.0181927 -1.87685e-28)
(1.04298 0.0130998 0)
(1.04269 0.0146807 0)
(1.04381 0.0104178 0)
(1.04336 0.0116844 0)
(1.04487 0.00826475 0)
(1.04432 0.00928912 0)
(1.04597 0.00651497 -1.42737e-26)
(1.04543 0.00734423 0)
(1.0469 0.00509657 0)
(1.04647 0.00577638 0)
(1.04757 0.00386692 1.6487e-24)
(1.04726 0.00446778 0)
(1.04804 0.00285599 0)
(1.04782 0.00333181 0)
(1.0484 0.00215797 0)
(1.04823 0.0024861 0)
(1.04873 0.00167796 -3.74805e-22)
(1.04858 0.0019257 3.98311e-22)
(1.04902 0.0011432 8.24566e-23)
(1.0489 0.00140789 2.74917e-24)
(1.04925 0.000628214 -2.84561e-22)
(1.04916 0.00090643 -7.805e-23)
(1.04929 0.000476881 0)
(1.04895 -0.000407689 0)
(1.04912 -0.000398442 -6.3598e-22)
(1.04897 -0.000575102 0)
(1.04895 -0.000529757 0)
(1.04908 -0.000687106 0)
(1.04903 -0.000657506 0)
(1.04917 -0.000475662 0)
(1.04912 -0.000592207 0)
(1.04934 -0.000201475 4.49788e-27)
(1.04925 -0.000337474 0)
(1.04929 8.17102e-05 -3.73112e-23)
(1.04938 -6.90904e-05 8.93854e-24)
(1.04889 0.000215275 4.22173e-22)
(1.04909 0.000201455 0)
(1.04882 0.00034659 5.26085e-22)
(0.927095 0.00604468 0)
(1.08249 -0.0978252 -4.96158e-22)
(1.08592 -0.118228 3.06628e-21)
(1.08874 -0.112658 7.14511e-21)
(0.930938 0.0251871 7.81627e-22)
(0.909928 -0.0135784 3.75115e-28)
(1.04895 0.000206436 5.21243e-22)
(1.04915 0.000189997 -5.06284e-22)
(0.955262 0.0427886 -7.97868e-22)
(0.987653 0.0567926 0)
(1.01673 0.068488 -1.54028e-21)
(1.03653 0.0798366 -1.39556e-21)
(1.04968 0.0916643 2.55159e-21)
(1.06371 0.0984774 2.96451e-23)
(1.0598 0.104771 -1.19808e-21)
(0.952816 -0.0562815 -2.57085e-26)
(0.994057 -0.0720814 -1.42648e-21)
(1.02919 -0.0831381 -3.8217e-22)
(1.05356 -0.0939412 8.70518e-22)
(1.0692 -0.107526 0)
(1.0831 -0.122983 3.16796e-21)
(1.04947 -0.000377045 7.36922e-22)
(1.04981 -0.000524792 2.47204e-21)
(1.0498 -0.000708602 1.25873e-24)
(1.04947 0.000326504 9.94753e-22)
(1.0495 0.000451526 -5.01941e-22)
(1.04976 -0.000363821 -8.09348e-22)
(0.918206 -0.0354063 3.99292e-28)
(1.0497 -0.00101161 -3.15698e-22)
(1.04971 -0.000753407 3.28611e-22)
(1.04948 -0.0014171 0)
(1.04957 -0.00113681 1.58607e-22)
(1.04914 -0.00205145 2.45994e-27)
(1.04929 -0.00168294 1.07487e-23)
(1.04878 -0.00279492 1.40868e-29)
(1.04894 -0.00239689 0)
(1.04856 -0.00352847 3.58169e-28)
(1.04864 -0.00317424 0)
(1.04849 -0.00414003 0)
(1.04851 -0.00383359 0)
(1.04837 -0.00496349 0)
(1.04844 -0.00449432 0)
(1.04808 -0.00631103 0)
(1.04825 -0.00557378 0)
(1.04763 -0.00803927 -1.92022e-24)
(1.04786 -0.00714174 -1.36264e-28)
(1.0471 -0.0100932 0)
(1.04736 -0.00901748 0)
(1.04659 -0.0125892 1.33372e-28)
(1.04683 -0.0112915 -1.56327e-28)
(1.04622 -0.0154113 -2.41572e-24)
(1.04637 -0.0139679 1.67297e-28)
(1.0463 -0.0186094 1.52699e-28)
(1.04619 -0.016951 -1.78851e-28)
(1.047 -0.0223126 -2.7702e-24)
(1.04658 -0.0204088 -1.90866e-28)
(1.0483 -0.0262934 0)
(1.04757 -0.0242906 0)
(1.05044 -0.0303762 1.70921e-25)
(1.04925 -0.0283115 -2.14946e-28)
(1.05371 -0.0354921 0)
(1.05192 -0.0326449 0)
(1.05848 -0.0437393 0)
(1.05577 -0.0391166 0)
(1.06567 -0.0572886 6.94655e-22)
(1.06172 -0.0496753 -4.63464e-22)
(1.07622 -0.0805223 -4.45002e-22)
(1.0704 -0.0676428 6.60849e-22)
(1.09318 -0.134366 -4.21468e-21)
(1.08976 -0.113362 2.25992e-21)
(1.0826 -0.0953528 -4.46437e-21)
(1.06051 0.0767993 5.07429e-22)
(1.0703 0.118318 -2.95012e-23)
(1.07314 0.110767 -7.24987e-22)
(1.06597 0.0924845 0)
(1.05314 0.0539862 4.31915e-22)
(1.05622 0.0640819 -8.76842e-22)
(1.04916 0.0410854 4.53213e-22)
(1.05096 0.0466614 0)
(1.04688 0.0332379 -1.12842e-22)
(1.0478 0.0368407 2.75596e-22)
(1.04563 0.0279915 0)
(1.04622 0.0303829 0)
(1.04479 0.0237594 1.36814e-24)
(1.04515 0.0257943 0)
(1.04445 0.0199658 1.63178e-28)
(1.04457 0.0218225 -1.94127e-28)
(1.0444 0.0164397 -3.68271e-26)
(1.0444 0.0181744 0)
(1.04458 0.0133081 1.43048e-28)
(1.04445 0.0148092 -1.70259e-28)
(1.04509 0.0107811 0)
(1.04479 0.0119735 0)
(1.0459 0.00872004 9.92543e-25)
(1.04547 0.00971026 -1.48455e-28)
(1.04679 0.00694594 -9.41643e-25)
(1.04635 0.00780191 0)
(1.04752 0.00541892 1.08327e-28)
(1.04718 0.00615727 -1.2907e-28)
(1.04801 0.00409039 -1.60936e-24)
(1.04779 0.00473379 0)
(1.04838 0.00302655 0)
(1.04821 0.00351725 0)
(1.0487 0.00231303 -1.38911e-24)
(1.04854 0.00263053 0)
(1.04901 0.0017708 3.56833e-23)
(1.04886 0.00204103 -3.94543e-22)
(1.0493 0.00127851 -8.43133e-23)
(1.04917 0.00155697 3.52991e-22)
(1.04951 0.000754091 8.5532e-22)
(1.04944 0.000992915 0)
(1.04953 0.000565027 -5.55967e-22)
(1.04891 -0.000256803 0)
(1.04916 -0.00027346 -6.67254e-22)
(1.04883 -0.000371062 7.13114e-23)
(1.04882 -0.00031679 0)
(1.04911 -0.000487472 0)
(1.04895 -0.0004495 -7.03361e-23)
(1.04928 -0.000330621 0)
(1.04921 -0.000421286 0)
(1.04944 -0.000145678 4.1275e-27)
(1.04936 -0.000231904 0)
(1.04943 2.59232e-05 6.92954e-23)
(1.0495 -7.44567e-05 -9.03066e-24)
(1.04901 0.000125856 1.37855e-22)
(1.04923 0.000113378 -1.34086e-22)
(1.04888 0.000203408 0)
(0.908841 0.00725775 0)
(1.04942 0.000243293 0)
(0.915352 0.0293419 0)
(0.944271 0.049223 -2.53876e-26)
(0.982837 0.0663994 0)
(1.0146 0.08087 2.35132e-21)
(1.03727 0.0948348 -6.80525e-22)
(1.05282 0.110376 5.7313e-22)
(0.93824 -0.0624242 4.0915e-26)
(0.988138 -0.0814692 8.49881e-25)
(1.03004 -0.0958323 -1.30441e-21)
(1.05662 -0.109159 1.72439e-21)
(1.06525 0.125814 0)
(1.0823 0.13065 -7.72482e-24)
(1.07872 0.140084 0)
(1.07503 -0.125217 -2.97415e-21)
(1.08956 -0.140173 -7.82071e-21)