/*--------------------------------*- C++ -*----------------------------------*\
  =========                 |
  \\      /  F ield         | OpenFOAM: The Open Source CFD Toolbox
   \\    /   O peration     | Website:  https://openfoam.org
    \\  /    A nd           | Version:  10
     \\/     M anipulation  |
\*---------------------------------------------------------------------------*/
FoamFile
{
    format      ascii;
    class       volScalarField;
    location    "17";
    object      p;
}
// * * * * * * * * * * * * * * * * * * * * * * * * * * * * * * * * * * * * * //

dimensions      [0 2 -2 0 0 0 0];

internalField   nonuniform List<scalar> 
6397
(
0.244625
0.229365
-0.0467046
-0.0389801
-0.0390654
-0.0471655
0.456696
0.211367
-0.388862
-0.42586
0.32376
0.21807
-0.00363872
-0.00474176
-0.0108543
-0.359245
-0.357899
-0.35906
0.837395
0.777033
0.742487
-0.547354
-0.481328
-0.480289
-0.00430342
-0.00599991
-0.0039478
-0.100467
-0.0979637
-0.122679
-0.125884
-0.0222984
-0.026339
-0.0325658
-0.00962521
-0.0114641
-0.0148968
-0.0174826
-0.00434472
-0.00353801
-0.00600954
-0.00720192
-0.111361
-0.0758386
-0.0914035
-0.056998
-0.0552461
-0.066959
-0.000752374
-0.000904963
-0.000300418
-0.000359294
-0.000639413
0.32913
0.315553
0.173877
0.18511
0.0204052
-0.0643758
-0.0629888
-0.0693568
-0.0780014
-0.0910571
-0.108534
-0.129848
-0.152848
-0.174631
-0.189474
-0.0540786
-0.0655599
-0.0524543
-0.0590932
-0.0675983
-0.0801896
-0.0978113
-0.120712
-0.148357
-0.17884
-0.207414
-0.228638
-0.0542983
-0.0722301
-0.192886
-0.234021
-0.0593479
-0.0818305
-0.183505
-0.227947
-0.0660632
-0.0910521
-0.162364
-0.204475
-0.0720671
-0.0752198
-0.135892
-0.173821
-0.0434195
-0.0522826
-0.0482006
-0.038435
-0.0398124
-0.0446413
-0.0401521
-0.0627093
-0.0519315
-0.0987052
-0.0780158
-0.158581
-0.125709
-0.231742
-0.195652
-0.276272
-0.260966
-0.241545
-0.266986
-0.20638
-0.137256
-0.0965955
-0.118009
-0.147076
-0.14712
-0.123195
-0.137282
-0.0922707
-0.106694
-0.0728203
-0.0803896
-0.0686234
-0.0689553
-0.079237
-0.0718956
-0.104799
-0.0911758
-0.12454
-0.117766
-0.0744228
-0.0981981
-0.0528932
-0.170876
-0.144288
-0.0598419
-0.0789563
-0.0483597
-0.141861
-0.18786
-0.152535
-0.134407
-0.0325142
-0.0339136
-0.124457
-0.111829
-0.0251534
-0.0288197
-0.024869
-0.0236765
-0.0346647
-0.0286921
-0.0553068
-0.043293
-0.0941512
-0.0719037
-0.159081
-0.12314
-0.242116
-0.200224
-0.29673
-0.277312
-0.267598
-0.292706
-0.229148
-0.0922722
-0.0764691
-0.105762
-0.103097
-0.0927681
-0.102071
-0.0741147
-0.0833745
-0.0663665
-0.0686776
-0.0722854
-0.0677331
-0.0926598
-0.0801653
-0.125978
-0.108547
-0.147664
-0.140365
-0.145289
-0.0705364
-0.0916037
-0.0334258
-0.0511326
-0.0451009
-0.0702807
-0.12163
-0.192571
-0.150873
-0.126493
-0.122091
-0.0220413
-0.0492204
-0.0287722
-0.0988157
-0.110212
-0.0318943
-0.0177298
-0.0167962
-0.133838
-0.149039
-0.0963342
-0.0149081
-0.0173988
-0.0101844
-0.0119807
-0.0135358
-0.0104997
-0.0252149
-0.0185454
-0.0467685
-0.0344415
-0.0858133
-0.0636441
-0.151111
-0.11494
-0.238331
-0.193681
-0.302184
-0.277924
-0.279221
-0.302661
-0.238687
-0.0267572
-0.0210637
-0.0509777
-0.03804
-0.0660478
-0.0615882
-0.0629805
-0.0666438
-0.0562496
-0.0589623
-0.0593522
-0.0564035
-0.073735
-0.0651543
-0.102632
-0.0859879
-0.14356
-0.122949
-0.164176
-0.158415
-0.159909
-0.0647495
-0.0825267
-0.0477489
-0.118696
-0.0709347
-0.109424
-0.0406002
-0.0601668
-0.109575
-0.111817
-0.0287099
-0.0158301
-0.0847527
-0.0942407
-0.154202
-0.13497
-0.00347859
-0.00407998
-0.0960533
-0.0803539
-0.0993749
-0.116666
-0.0914167
2.73976e-05
-0.00219004
0.0017647
0.00166532
-0.00437604
-0.000533554
-0.0165501
-0.00972761
-0.0376156
-0.0256174
-0.0746695
-0.0536825
-0.136444
-0.102084
-0.22201
-0.177537
-0.290943
-0.26302
-0.276185
-0.296244
-0.186574
-0.235864
-0.0982841
-0.138127
-0.0471661
-0.0686151
-0.00240816
-0.0228331
-0.0106743
0.0012609
0.00200727
-0.0142842
-0.00498739
-0.0308991
-0.0242942
-0.0351657
-0.0341336
-0.0386073
-0.0361751
-0.0502191
-0.0433419
-0.0714331
-0.059414
-0.108401
-0.0875739
-0.155473
-0.132628
-0.176427
-0.171538
-0.169576
-0.0572423
-0.0720882
-0.0426064
-0.0593593
-0.0405906
-0.0691769
-0.0301858
-0.0788727
-0.106563
-0.00424594
-0.0994584
-0.152247
-0.130773
-0.0789028
-0.109386
-0.0659742
-0.0877071
-0.0956689
-0.062762
-0.0162295
-0.115814
-0.0950388
0.00902182
0.00638196
0.00776697
0.0118207
0.0106839
0.0102318
0.0118829
0.00290877
0.00710273
-0.00884296
-0.00230714
-0.0285061
-0.017401
-0.0617564
-0.043023
-0.116566
-0.0860439
-0.194768
-0.153594
-0.264045
-0.234499
-0.258995
-0.273432
-0.171909
-0.221989
-0.0712177
-0.119035
-0.00400235
-0.0333609
0.0382267
0.0191652
-0.00757347
-0.0463024
-0.0241185
0.0132228
0.00433379
0.0230252
0.0195786
0.0157547
0.0214174
-0.000290373
0.00764331
-0.010469
-0.00591102
-0.0211827
-0.0152344
-0.0384355
-0.0289333
-0.0650875
-0.050167
-0.109274
-0.0847705
-0.161445
-0.136713
-0.180175
-0.177289
-0.170465
-0.100483
-0.0750324
-0.00465033
0.0552248
-0.0983559
-0.109331
-0.0820948
-0.0815775
-0.0697625
-0.0778285
-0.0485947
-0.0600455
-0.0248473
-0.0366549
-0.00353903
-0.0137738
0.00597223
-0.0956931
-0.112379
-0.108329
-0.115596
-0.126947
-0.0987834
-0.11148
-0.145097
-0.0590404
0.0703528
0.00709679
0.0164148
0.0149218
-0.107554
0.0191388
0.0178029
0.0199909
0.02001
0.0161763
0.0186009
0.00883478
0.0128709
-0.00218568
0.00392457
-0.0198621
-0.00999365
-0.0484799
-0.0324759
-0.0944104
-0.0689216
-0.160601
-0.125438
-0.22467
-0.196014
-0.229018
-0.237397
-0.15131
-0.197662
-0.0462066
-0.0980341
0.0341214
-0.00177936
0.0848162
0.0624975
0.115476
0.102399
-0.0295772
-0.0816959
-0.0532529
0.00463795
-0.0105375
0.0253351
0.0161835
0.0379667
0.0323941
0.0389637
0.0404128
0.0265235
0.0338605
0.0125393
0.0195097
-0.00300102
0.00519791
-0.0237269
-0.0125673
-0.054701
-0.0373439
-0.104889
-0.0773751
-0.159472
-0.134306
-0.174442
-0.173805
-0.143032
-0.163158
-0.0983068
-0.119877
-0.0805471
-0.0657381
-0.0620584
-0.0658718
-0.056356
-0.0621178
-0.0401636
-0.0489305
-0.0209687
-0.030722
-0.00294581
-0.0116797
-0.155078
-0.114653
0.0842359
0.123528
0.0133373
0.00537261
-0.124032
-0.128728
-0.150155
-0.131104
-0.178482
-0.107649
-0.19904
-0.0563579
-0.150645
-0.203068
0.0203542
0.124223
0.0934856
-0.108578
-0.186397
-0.133337
0.119404
0.123839
0.10861
0.0202465
0.0118739
0.0183946
-0.131549
0.023842
0.0224033
0.0259385
0.025298
0.0247729
0.0257828
0.0203356
0.0229165
0.0134348
0.0171734
0.00339021
0.00892662
-0.0119766
-0.0034895
-0.0357312
-0.0225721
-0.0722824
-0.0521603
-0.124129
-0.0965271
-0.177494
-0.152734
-0.187672
-0.191053
-0.125957
-0.164479
-0.0275887
-0.077839
0.0570929
0.0184287
0.109621
0.0873939
0.131736
0.1245
0.131538
-0.0572708
-0.0821921
-0.0155656
-0.035108
0.0142615
0.000579539
0.0340394
0.0251265
0.0477062
0.0413821
0.0546643
0.0524329
0.0499427
0.0536209
0.0351614
0.0429511
0.0172057
0.0265996
-0.0057378
0.00658338
-0.0405322
-0.0209808
-0.0953028
-0.0657148
-0.149782
-0.125428
-0.160536
-0.162028
-0.127045
-0.14714
-0.0855365
-0.105466
-0.0689327
-0.0498471
-0.0450856
-0.0517282
-0.0518939
-0.0452823
-0.049352
-0.0330828
-0.0397678
-0.0176891
-0.0255841
-0.00266167
-0.0099773
0.00456565
-0.164818
-0.156196
-0.204587
-0.15337
-0.239575
-0.117303
-0.256874
-0.0499633
-0.24896
0.0368306
-0.153614
-0.215791
0.0970113
0.095045
0.100136
-0.107108
-0.165793
-0.114862
0.0747463
0.0883947
0.0687415
0.00987913
0.0157964
0.0252192
0.0232515
-0.167663
0.0284594
0.0274265
0.0292517
0.029391
0.027426
0.028793
0.0231106
0.0255224
0.0168757
0.0202541
0.00796477
0.0128344
-0.00504752
0.0020686
-0.0242045
-0.0137153
-0.0520617
-0.0369191
-0.0897555
-0.0698399
-0.128864
-0.11042
-0.139616
-0.140163
-0.0948371
-0.124104
-0.0129257
-0.0558975
0.065049
0.0286514
0.113178
0.0935495
0.129075
0.124807
0.118031
0.126785
0.104498
-0.0757221
-0.0935834
-0.0376114
-0.0566142
-0.00425704
-0.020261
0.0214196
0.00951782
0.0400565
0.0314842
0.0538287
0.0473765
0.0635263
0.0593289
0.0647946
0.0654505
0.0552156
0.061131
0.0380768
0.0473927
0.0137977
0.0270493
-0.0245054
-0.00300816
-0.0817655
-0.0514546
-0.132793
-0.110878
-0.138829
-0.142289
-0.107549
-0.125384
-0.0719191
-0.0887977
-0.0578033
-0.0320092
-0.0271018
-0.0391087
-0.0361206
-0.0407436
-0.0406959
-0.0364276
-0.0392522
-0.0273318
-0.0324057
-0.0152206
-0.021478
-0.00297484
-0.00900842
0.00328432
-0.217292
-0.191593
-0.26788
-0.176732
-0.302279
-0.121624
-0.308569
-0.0353356
-0.28312
0.0508099
-0.231571
0.0884889
-0.115623
-0.166814
0.0778497
0.0456391
0.0495272
0.0193372
-0.213468
0.0278124
0.0220177
0.0252494
0.0306111
0.0294681
0.0308489
0.0310516
0.0287089
0.030106
0.0248441
0.0269709
0.0193414
0.0223203
0.0116481
0.0158156
0.000871053
0.00670822
-0.0142085
-0.00605817
-0.0347573
-0.0237659
-0.0605231
-0.0471612
-0.0854463
-0.0738721
-0.0917349
-0.0924216
-0.0590973
-0.0806943
0.00341858
-0.0297466
0.0665698
0.0365937
0.10721
0.090477
0.119482
0.116688
0.107971
0.116341
0.0798915
0.0951689
0.0411349
0.0617011
-0.0736482
-0.0795028
-0.0790677
-0.0512112
-0.0636981
-0.0224076
-0.0370532
0.00442926
-0.0085823
0.0265208
0.0161162
0.0437903
0.0356882
0.057204
0.0508978
0.0674722
0.0627532
0.0722446
0.0707243
0.0681859
0.0714156
0.0545011
0.0624943
0.0303005
0.0439093
-0.00989021
0.012547
-0.0658137
-0.0369445
-0.110261
-0.0918739
-0.112079
-0.116218
-0.0857724
-0.100394
-0.0581173
-0.0713126
-0.0378048
-0.0468511
-0.0311414
-0.0256914
-0.0186213
-0.0222484
-0.0306591
-0.0284868
-0.0322141
-0.0320026
-0.0294199
-0.0313162
-0.0228412
-0.0265714
-0.0136819
-0.0184476
-0.00384033
-0.00881248
0.00764368
0.00163085
0.016736
0.013321
-0.10923
-0.0750307
0.019597
0.0185162
-0.276801
-0.22894
-0.0206663
-0.329949
-0.193931
0.0214622
0.0127324
0.0156281
-0.354199
-0.115826
-0.341705
-0.0169987
-0.296563
0.0557306
-0.229489
0.0697764
-0.155579
0.0502515
-0.0662264
-0.0952935
0.0199589
-0.0089539
-0.00552926
-0.263622
0.028257
0.0254309
0.0308367
0.0299246
0.0309217
0.031221
0.029142
0.030308
0.0257792
0.0276386
0.0210392
0.0236017
0.0145539
0.018042
0.00579961
0.010495
-0.00582404
0.000370896
-0.0205602
-0.0128287
-0.0372848
-0.0288558
-0.0511124
-0.0450819
-0.0511913
-0.0536941
-0.0255627
-0.0417288
0.0208782
-0.0037353
0.0681576
0.0456494
0.0992064
0.0862945
0.108005
0.106402
0.0971436
0.104872
0.0721583
0.0860757
0.0372516
0.0555646
-0.00272518
0.0176997
-0.0545049
-0.0461562
-0.0517974
-0.0496815
-0.0538089
-0.0329157
-0.0427225
-0.0108436
-0.0222598
0.0110533
0.000355595
0.0300585
0.0209688
0.0457595
0.0382927
0.0585177
0.0524719
0.068551
0.0638984
0.0744516
0.0721593
0.0735277
0.074977
0.0632528
0.0696976
0.0405582
0.0536483
0.0017809
0.0232164
-0.0478415
-0.0229003
-0.0848244
-0.0692205
-0.0836239
-0.0872046
-0.0647783
-0.0751829
-0.0450651
-0.0547903
-0.0299818
-0.0368679
-0.0247738
-0.015211
-0.0124231
-0.0203083
-0.0178888
-0.0241156
-0.0224169
-0.0255745
-0.0252252
-0.0239796
-0.025145
-0.0194919
-0.0220808
-0.0128922
-0.0163702
-0.00501686
-0.0091419
0.00511915
-0.000223054
0.00996069
-0.0546075
-0.0388154
-0.0303126
-0.0232692
-0.332856
-0.260074
0.0218335
0.0184092
-0.377509
-0.198488
-0.382453
-0.100049
-0.347423
-0.000928101
-0.285523
0.0471227
-0.208456
0.0417369
-0.133842
0.0167969
-0.0765672
-0.0137456
-0.0312944
-0.0421237
-0.0393352
-0.0230568
-0.0193175
-0.0246955
-0.00787385
-0.0546346
-0.0429145
-0.308652
0.0276857
0.0248215
0.0302432
0.0292332
0.0304143
0.0305538
0.0289096
0.0298643
0.0261271
0.0276776
0.0221419
0.0242959
0.0167894
0.0196523
0.00980985
0.0135169
0.00103098
0.00564077
-0.0092567
-0.00397913
-0.0195588
-0.0145774
-0.0259259
-0.0235909
-0.0214169
-0.0254985
-1.25062e-05
-0.0128059
0.0346339
0.0164132
0.0692247
0.052824
0.0915319
0.082335
0.0969703
0.0963474
0.0868676
0.0936266
0.0648936
0.0771714
0.0347225
0.0506402
0.000444585
0.0177946
-0.0329116
-0.0166426
-0.0320761
-0.0276404
-0.0369063
-0.035381
-0.0323241
-0.035964
-0.0194462
-0.0266971
-0.00205359
-0.0111437
0.0159828
0.00709162
0.0323538
0.0244266
0.0464837
0.039698
0.0583446
0.0526858
0.0678038
0.0634186
0.0737996
0.0713409
0.0740714
0.0747939
0.0657857
0.0711636
0.0456829
0.0573641
0.0119294
0.0303365
-0.0278841
-0.00835116
-0.0521759
-0.0435285
-0.057107
-0.0578976
-0.0465272
-0.0525866
-0.0339494
-0.0401409
-0.0233189
-0.0282942
-0.0160316
-0.0191151
-0.0134946
-0.0121349
-0.00999075
-0.0159957
-0.014134
-0.019011
-0.0176474
-0.0204778
-0.0199885
-0.019879
-0.020442
-0.0171433
-0.0187691
-0.0127056
-0.0150912
-0.00673692
-0.00998145
0.0017362
-0.00271112
0.00894388
0.00589141
0.0133948
0.0113476
-0.372263
-0.276465
-0.0476775
-0.0612854
0.0174568
0.0108134
0.0139172
-0.0242054
-0.0361709
-0.399026
-0.188455
-0.379327
-0.0790252
-0.324993
0.00376456
-0.252234
0.0231286
-0.173129
0.00579381
-0.103572
-0.0228053
-0.0558829
-0.0511202
-0.0171304
-0.0133652
-0.0134637
-0.0168632
-0.0309464
-0.0701915
-0.0204801
0.0081803
-0.00842481
0.0080877
-0.337235
0.0225982
0.0202391
0.0267653
0.0247487
0.0290984
0.0281624
0.0294357
0.0294642
0.028297
0.0290392
0.0260494
0.0273092
0.0227868
0.0245529
0.0184568
0.0207609
0.0129963
0.0158676
0.00650277
0.00985732
-0.00045763
0.00301566
-0.00635593
-0.003686
-0.0081182
-0.00799707
-0.00134708
-0.00604819
0.0168128
0.0063505
0.0430141
0.0294104
0.0683126
0.0563832
0.0841223
0.0777232
0.086942
0.08714
0.0775938
0.0836182
0.0585856
0.0691113
0.0326819
0.0462722
0.00365823
0.0182599
-0.0106971
-0.0165483
-0.0144977
-0.0217076
-0.0191182
-0.0239354
-0.023539
-0.0199373
-0.0227621
-0.00953021
-0.0153651
0.00451858
-0.00280287
0.0195522
0.0120683
0.033712
0.0267941
0.0463328
0.0402294
0.0571633
0.0519746
0.0658772
0.0618296
0.0715251
0.0691675
0.0722375
0.0726247
0.0654703
0.06993
0.0487041
0.0584133
0.0215806
0.0362018
-0.00903605
0.00589583
-0.029512
-0.021258
-0.0356936
-0.0344026
-0.0316008
-0.0343607
-0.0244929
-0.0281423
-0.0175274
-0.0208901
-0.0121521
-0.0146482
-0.0101606
-0.00628626
-0.00488238
-0.00949028
-0.00784475
-0.0125468
-0.0110593
-0.0150588
-0.0138954
-0.0166353
-0.0159956
-0.0168819
-0.0169372
-0.015639
-0.0164398
-0.0131264
-0.0145228
-0.00910619
-0.0113849
-0.00271617
-0.00612096
0.00361304
0.000576984
0.00686615
-0.0780351
0.0115477
-0.0606205
-0.0464601
-0.385456
-0.272603
-0.389833
-0.16684
-0.347931
-0.0632754
-0.0777624
-0.278839
-0.0104981
-0.201214
-0.0142715
-0.129083
-0.0385402
-0.0149389
-0.0105901
-0.0122002
-0.0174795
-0.071916
-0.0686807
-0.0187509
-0.0375182
-0.0906731
-0.0192836
-0.0230634
-0.100522
0.00905828
-0.00237918
-0.00292182
-0.0715344
-0.0550796
-0.0021394
-0.341254
0.0183538
0.0126439
0.0153182
0.0226131
0.0208453
0.0257734
0.0243971
0.0277393
0.0269457
0.0282192
0.0281478
0.0274336
0.027967
0.0256797
0.0266723
0.0230754
0.0244853
0.0196472
0.0214627
0.015464
0.0176404
0.0107794
0.0131553
0.006263
0.00843584
0.00330513
0.00447163
0.00421626
0.00311479
0.0117492
0.00703032
0.0270318
0.0184819
0.0470685
0.0367968
0.0656891
0.0569719
0.0769268
0.0724667
0.0780587
0.0787565
0.0695198
0.0748766
0.0531209
0.0621569
0.031161
0.0426407
0.00674269
0.0189977
-0.0164067
-0.00528502
-0.0345947
-0.0263356
-0.0615174
-0.0463234
-0.0413386
-0.00945758
-0.00962063
-0.0110287
-0.00996271
-0.0137889
-0.0124527
-0.01448
-0.0145503
-0.0107088
-0.0132277
-0.00211183
-0.00691087
0.00945529
0.00342635
0.0220982
0.0157532
0.0343823
0.0283392
0.0455898
0.0401438
0.0553544
0.0506654
0.063235
0.0595709
0.0683794
0.0662148
0.0692882
0.0694636
0.0639385
0.0674998
0.0505608
0.0582801
0.0294495
0.040762
0.00574228
0.0173851
-0.0118539
-0.00424697
-0.0197769
-0.0169999
-0.0200199
-0.0205499
-0.0168016
-0.018633
-0.0127376
-0.0147704
-0.00900969
-0.0107544
-0.00616634
-0.00739176
-0.00502511
-0.00486626
-0.00378972
-0.00736394
-0.00608108
-0.009813
-0.00860625
-0.0120221
-0.010962
-0.0137656
-0.0129745
-0.0147404
-0.0143579
-0.0148451
-0.0148915
-0.0141914
-0.0146204
-0.0121516
-0.0134341
-0.00784879
-0.0102297
-0.00250232
-0.0053273
0.00344156
0.000904138
0.00373728
-0.369888
-0.251724
-0.048769
-0.0335468
-0.0350454
-0.351861
-0.144026
-0.0998238
-0.294311
-0.0647061
-0.21725
-0.0450995
-0.0920517
-0.0140594
-0.00768028
-0.00806792
-0.0156425
-0.142359
-0.0633109
-0.0207307
-0.082679
-0.0922636
-0.0652267
-0.0799349
-0.0224788
-0.0429955
-0.11911
-0.0214184
-0.0239535
-0.130326
-0.0198911
0.0133941
0.0102779
0.0112229
0.00591309
-0.00280152
-0.00202659
0.00773001
-0.322408
0.0180764
0.0156985
0.0219543
0.0202437
0.0246734
0.0234744
0.0263161
0.0256411
0.0268467
0.0267295
0.0264036
0.026752
0.0251039
0.0258526
0.0230851
0.0241803
0.0204377
0.0218335
0.0173117
0.0189194
0.0140411
0.0156628
0.0113015
0.0125469
0.010275
0.0104838
0.012648
0.0109309
0.0201037
0.0156841
0.032884
0.0259056
0.04836
0.0405081
0.0622383
0.0557979
0.0702452
0.0671436
0.0703311
0.0712907
0.0626453
0.0673727
0.0485771
0.0562829
0.0300823
0.0397367
0.00968863
0.0198901
-0.00954922
-0.000327365
-0.0245397
-0.0177153
-0.0299318
-0.00615112
-0.00694716
-0.00548794
-0.00564412
-0.00621489
-0.00570485
-0.00761639
-0.00694464
-0.00741272
-0.00786563
-0.00374945
-0.00603418
0.00341393
-0.000628902
0.0131135
0.00806015
0.0238548
0.0184314
0.0345426
0.0292581
0.0444607
0.0396249
0.0531786
0.0489886
0.0602201
0.0569467
0.0648057
0.0628706
0.0657594
0.0658128
0.0615472
0.0643707
0.0509684
0.0570569
0.0344496
0.0432898
0.0156212
0.024963
0.000280923
0.00723372
-0.0084544
-0.00491674
-0.0112928
-0.0104399
-0.0107118
-0.0112727
-0.00873646
-0.00978905
-0.00637812
-0.00750496
-0.00439408
-0.00531002
-0.00347828
-0.00218812
-0.0014175
-0.00156624
-0.00372232
-0.00288307
-0.0056517
-0.00465812
-0.0076599
-0.00664827
-0.00968853
-0.00867993
-0.0116044
-0.0106759
-0.0132445
-0.0124535
-0.0147002
-0.0139822
-0.0159391
-0.0153881
-0.0158611
-0.0161687
-0.0133489
-0.0149016
-0.0089191
-0.011404
-0.00179952
-0.00521463
0.00124579
-0.0491542
-0.034365
-0.331821
-0.222772
-0.129171
-0.296711
-0.134136
-0.0077727
-7.20635e-05
0.00203363
-0.00660604
-0.228499
-0.089982
-0.118985
-0.016532
-0.149696
-0.097894
-0.0239881
-0.0833784
-0.125335
-0.0667933
-0.103247
-0.0274925
-0.0409501
-0.154401
-0.0855545
-0.0265176
-0.021033
-0.17066
-0.0218829
-0.0173864
0.00903282
-0.0010208
-0.0476254
-0.0320424
-0.287782
0.0135877
0.00986402
0.0117689
0.0174871
0.0155707
0.0208638
0.0192986
0.0233339
0.0222241
0.0248585
0.0242213
0.0254821
0.0252874
0.025285
0.0254831
0.0243782
0.0249136
0.0228735
0.023694
0.0208929
0.0219328
0.0186338
0.0197805
0.0164595
0.017505
0.0149993
0.0155906
0.0152183
0.0148316
0.0183195
0.016342
0.0252948
0.021303
0.0359373
0.030241
0.0480256
0.041945
0.058511
0.0536897
0.0642473
0.0620953
0.0636955
0.0647715
0.056872
0.0610059
0.0448508
0.0514011
0.0293276
0.0374126
0.0123164
0.0208291
-0.00347359
0.00410749
-0.0157735
-0.0102165
-0.0226498
-0.0200764
-0.0222207
-0.0234113
-0.0284412
-0.0145805
-0.0193857
-0.00189904
-0.00137951
-0.00174687
-0.0019081
-0.00161586
-0.0016428
-0.00208604
-0.00176578
-0.00269972
-0.00244871
-0.00192849
-0.00262142
0.00147124
-0.000677901
0.00759433
0.0041714
0.0158301
0.0115375
0.0250344
0.0203695
0.0343442
0.0297234
0.0430952
0.0388183
0.0508215
0.0471086
0.0570597
0.0541588
0.0610724
0.0593796
0.0619503
0.0619614
0.0585378
0.0608283
0.0500234
0.0549113
0.0368387
0.0438923
0.0215708
0.0292142
0.00823548
0.0144648
-0.000566601
0.00323996
-0.00482492
-0.00317472
-0.00596432
-0.00567625
-0.00540548
-0.00583476
-0.00419722
-0.00489554
-0.00295687
-0.00361335
-0.00172745
-0.00241794
-0.00141831
-0.00150055
-0.000915296
-0.00277499
-0.00211487
-0.00426987
-0.00349689
-0.00595652
-0.00508854
-0.00786166
-0.00688555
-0.00994046
-0.00888288
-0.0122872
-0.0110531
-0.0152265
-0.0136778
-0.0183925
-0.0168645
-0.0201342
-0.0195642
-0.0188647
-0.019938
-0.0140298
-0.016906
-0.0047786
-0.00941927
0.00348946
-0.000642632
0.00712166
0.00563393
-0.167823
-0.282778
-0.20023
0.00798614
-0.000308241
0.00460593
-0.00464863
-0.235714
-0.147622
-0.00850089
-0.0225374
-0.154002
-0.0165378
-0.161382
-0.13965
-0.0446118
-0.0267132
-0.0857571
-0.168201
-0.0664895
-0.134096
-0.0329965
-0.0320707
-0.2013
-0.0885908
-0.0338241
-0.009962
-0.220632
-0.111159
-0.0286636
-0.00933631
-0.219856
-0.0186877
-0.0012073
0.00972271
0.0151851
0.00782453
0.0128317
-0.250908
0.0100262
0.00727682
0.0088148
0.0133526
0.0118399
0.0167169
0.0150885
0.0196801
0.0183011
0.0219147
0.0208958
0.023383
0.0227505
0.0240924
0.0238398
0.0241129
0.0241825
0.0235416
0.0238946
0.0224798
0.0230643
0.0210639
0.0218048
0.0195116
0.0202865
0.0181843
0.0187912
0.0176415
0.017774
0.0186502
0.017903
0.0220502
0.0200111
0.0283801
0.0248515
0.0371814
0.0325625
0.0468134
0.042048
0.0548305
0.0511763
0.0589673
0.0574762
0.0580458
0.0591504
0.0520485
0.0556365
0.0418211
0.0473712
0.0288255
0.035573
0.014734
0.0217831
0.00185916
0.00797384
-0.00817217
-0.00366
-0.0133271
-0.0114768
-0.0118752
-0.0134085
-0.00423085
-0.00896101
0.00243413
0.0125043
0.0205182
0.0158597
0.00664859
0.00937334
0.00344458
0.00461076
0.00245095
0.00273545
0.00208478
0.00223898
0.00145894
0.0017344
0.00131723
0.00122744
0.00232686
0.00158187
0.0054531
0.0035995
0.0107836
0.00786556
0.0178238
0.0141475
0.0257618
0.021729
0.0338837
0.0298408
0.0415883
0.0378172
0.0484047
0.0451312
0.0538364
0.05133
0.0573596
0.0558912
0.0581062
0.0581188
0.0552492
0.0571598
0.0482456
0.0522535
0.0374982
0.0432453
0.0248952
0.0312502
0.0133052
0.0188297
0.00486063
0.00865421
-9.09466e-05
0.00199023
-0.00231161
-0.00146996
-0.00283089
-0.00272442
-0.00250265
-0.00274172
-0.00185426
-0.00221055
-0.00118529
-0.00152047
-0.000655424
-0.000904179
-0.000988813
-0.000539596
-0.00196737
-0.00146342
-0.00313482
-0.00252197
-0.00457498
-0.00381505
-0.00637562
-0.00542881
-0.0086492
-0.00743511
-0.0118704
-0.0100948
-0.0164526
-0.0140152
-0.0214306
-0.0190216
-0.0245317
-0.0233654
-0.0235251
-0.024669
-0.016981
-0.0209024
-0.00615615
-0.0115085
0.00209273
-0.00171828
0.00573047
0.00426963
0.00633923
-0.00158205
-0.237011
-0.198031
0.00638445
0.0143583
0.0225013
-0.000422898
0.00646067
-0.0136771
-0.200519
-0.0153837
-0.180848
-0.187257
-0.0386571
-0.028289
-0.10293
-0.211815
-0.0638178
-0.173765
-0.0381123
-0.0335257
-0.255806
-0.0893368
-0.0423034
0.00595619
-0.286295
-0.144315
-0.115751
-0.0391201
0.00640916
-0.285816
-0.0274947
-0.00944892
0.0281935
0.0102228
0.00295786
-0.227231
0.00983671
0.00846867
0.0128515
0.0112335
0.0158687
0.0143976
0.0184771
0.0172278
0.0205106
0.0195685
0.0219115
0.0212893
0.0226905
0.022364
0.0229015
0.0228625
0.0226148
0.0228134
0.0219313
0.0223145
0.0209915
0.0214817
0.0200159
0.0204904
0.0193443
0.0196166
0.0194594
0.0192706
0.020959
0.0200014
0.0244163
0.0224206
0.0300807
0.0269868
0.0374525
0.0336262
0.0451682
0.0414035
0.0513692
0.0485673
0.0543736
0.0533406
0.0532701
0.0543453
0.048031
0.05113
0.0393875
0.0440641
0.0285275
0.0341497
0.0169221
0.0227096
0.0063765
0.0114045
-0.00148915
0.00198534
-0.00516245
-0.00400265
-0.00314902
-0.00483743
0.00452333
-3.43847e-05
0.0166072
0.0103901
0.00968407
0.0218608
0.0299289
0.0227469
0.0186172
0.0277294
0.0223716
0.0124847
0.0154105
0.00830298
0.0101106
0.00629388
0.00705049
0.0053532
0.0057822
0.00466188
0.00496148
0.00463563
0.00452856
0.00575662
0.0050205
0.0085722
0.00693694
0.0131999
0.0106831
0.019258
0.0160901
0.0261389
0.0226369
0.0332353
0.0296958
0.0400091
0.0366907
0.0460062
0.043128
0.050771
0.0485696
0.0537842
0.052531
0.0543844
0.054417
0.0519302
0.0535599
0.046058
0.0494071
0.0371289
0.0419017
0.0265677
0.0319204
0.0164717
0.0213507
0.00855807
0.0122011
0.00333609
0.00562724
0.000446159
0.00164953
-0.000827068
-0.000343511
-0.0011575
-0.00107415
-0.00103229
-0.00112777
-0.00077339
-0.00090035
-0.000512586
-0.000598733
-0.000136653
-0.00032647
-0.000575867
-0.000274142
-0.00125746
-0.000893362
-0.0021763
-0.00168211
-0.00341516
-0.00274906
-0.00512875
-0.00419954
-0.00770552
-0.0062617
-0.0120286
-0.0095992
-0.0182655
-0.014981
-0.0246357
-0.0216064
-0.0282843
-0.0269766
-0.0265101
-0.0282117
-0.0182016
-0.0230322
-0.00666647
-0.0121038
0.00132401
-0.00222258
0.00475236
0.00335286
0.00554591
-0.0014133
-0.262678
-0.0132605
-0.206566
-0.221759
0.00674721
0.0351846
-0.0279426
-0.0283654
-0.140643
-0.251166
0.00579974
0.0337506
0.0404118
-0.0569512
0.0308657
0.0222467
-0.226132
-0.0420922
-0.0598325
-0.303018
-0.0868671
-0.05075
0.00210512
-0.354879
-0.187188
-0.1175
-0.0516788
0.0271905
-0.37052
-0.15001
-0.0422032
0.00662225
-0.344408
0.00219969
0.0158964
-0.0208679
0.0283359
-0.00204763
-0.00969799
-0.226701
0.00963682
0.00808689
0.0123137
0.010946
0.0149638
0.0136592
0.0172772
0.0161645
0.0191354
0.0182668
0.0204717
0.0198666
0.0212979
0.0209424
0.0216559
0.0215309
0.021607
0.0216761
0.0212447
0.0214571
0.0207072
0.0209866
0.0202056
0.0204356
0.0200477
0.0200617
0.0206398
0.020224
0.0224401
0.0213648
0.0258281
0.023925
0.0308761
0.028164
0.0370883
0.0338959
0.0433549
0.040294
0.0482015
0.0460271
0.0504021
0.0496872
0.0492384
0.0502492
0.0447056
0.0473562
0.0374183
0.0413444
0.0283616
0.0330345
0.0188332
0.0235651
0.0102972
0.0143583
0.00412234
0.00683125
0.00178388
0.00235573
0.00416531
0.00230765
0.0114955
0.00718401
0.0224613
0.01681
0.0359686
0.0282697
0.0441979
0.0383233
0.0490281
0.0334863
0.0406575
0.0238885
0.0280068
0.0174105
0.0204437
0.0125226
0.0146764
0.00981186
0.0109502
0.00834783
0.00898536
0.00751476
0.00785759
0.00745128
0.00736644
0.0085133
0.0078263
0.0110116
0.00957386
0.0150274
0.0128475
0.0202674
0.0175256
0.0262491
0.0232006
0.0324533
0.0293546
0.0384017
0.0354857
0.0436649
0.0411416
0.0478228
0.0459049
0.0504034
0.0493373
0.0508685
0.0509241
0.048726
0.0501368
0.0437293
0.0465699
0.0361954
0.0402207
0.0272236
0.0317886
0.0183878
0.0227106
0.0110455
0.0144844
0.00578651
0.00815805
0.00249126
0.00392653
0.000685084
0.00144081
-0.000153329
0.000178097
-0.000451109
-0.000345644
-0.00049796
-0.00049509
-0.000453645
-0.000483935
-0.000568274
-0.000517908
-0.000147312
-0.000521056
-0.000377273
-0.000254879
-0.00011927
-0.000677854
-0.000435038
-0.0013668
-0.000986696
-0.00240439
-0.00183222
-0.0040663
-0.00312527
-0.00712404
-0.00534484
-0.0127121
-0.00957692
-0.0203354
-0.0164026
-0.0273839
-0.0241324
-0.0306641
-0.0296789
-0.0275865
-0.0300001
-0.018016
-0.0233708
-0.00678905
-0.0120422
0.00063056
-0.00259824
0.00401699
0.00260749
0.00559305
0.00495604
0.00576743
-0.0134527
-0.0271021
-0.19612
-0.269234
0.00679444
0.04564
-0.000639112
-0.04475
0.00593947
-0.00987376
0.0440404
0.0363425
-0.295856
-0.0445435
-0.118102
-0.334626
-0.0792023
-0.0580583
-0.0347555
-0.405289
-0.243249
0.0207392
-0.115097
-0.0646317
0.0188825
-0.451983
-0.151853
-0.0604709
0.0293174
-0.444077
-0.193599
-0.0412407
-0.00847771
0.0473969
-0.0172432
0.0102612
-0.00406302
0.0418984
-0.0242564
-0.249304
0.0092048
0.0079261
0.0117066
0.0104843
0.0140347
0.0128832
0.016105
0.0151079
0.0177957
0.0169987
0.0190595
0.0184788
0.0199064
0.0195308
0.0203742
0.0201833
0.0205199
0.0204818
0.0204299
0.020497
0.0202348
0.020335
0.020129
0.0201562
0.0203828
0.0201925
0.0213306
0.0207499
0.0233165
0.0221776
0.0265802
0.0247855
0.0310861
0.0286989
0.0363615
0.0336768
0.0414866
0.0390131
0.0453574
0.0436473
0.0469843
0.0464893
0.0458369
0.0467626
0.041951
0.0442117
0.0358167
0.0391142
0.0282839
0.0321585
0.0204766
0.0243371
0.0136259
0.0168624
0.008904
0.0109305
0.00749371
0.00772483
0.0101734
0.00829611
0.0172711
0.0131787
0.0272417
0.0220069
0.0406193
0.0332484
0.0559125
0.0587672
0.0492974
0.0523053
0.0546312
0.0498449
0.0527962
0.061551
0.0584373
0.0382372
0.0449965
0.0282706
0.0327112
0.0213394
0.0245812
0.0162141
0.0185554
0.0129431
0.0143714
0.0110448
0.0118659
0.0100171
0.0104373
0.00984065
0.0098113
0.0107539
0.0101525
0.0129344
0.0116831
0.0164106
0.0145243
0.0209487
0.0185728
0.0261505
0.0234963
0.0315725
0.0288614
0.0367892
0.0342307
0.0414026
0.0391928
0.0450236
0.0433574
0.047239
0.0463292
0.0475973
0.0476691
0.0457141
0.0469445
0.0414187
0.0438539
0.0349836
0.0384218
0.0272611
0.031204
0.0194765
0.0233079
0.0126866
0.0159103
0.00751014
0.00989126
0.00397296
0.00555693
0.00178018
0.00273766
0.000539021
0.00106844
-0.000108291
0.000162716
-0.000419481
-0.000294084
-0.00059343
-0.00050385
-0.00084424
-0.00072145
-0.000940165
-0.000474485
-0.00102243
-0.000680781
-0.000106027
-0.000284602
-4.75711e-06
-4.2547e-06
-0.00020366
-7.18596e-05
-0.000666393
-0.000399869
-0.00151039
-0.00102376
-0.00319551
-0.00219101
-0.00691878
-0.00470756
-0.0137202
-0.00996378
-0.0221576
-0.0179204
-0.0290609
-0.0260055
-0.031319
-0.0309292
-0.0269083
-0.029941
-0.0170403
-0.0223844
-0.00675105
-0.0115069
-4.79869e-05
-0.00296642
0.00327052
0.00187202
0.0046369
0.00415126
0.0049034
0.00484789
-0.0281837
0.0267438
-0.0220016
-0.000732769
0.0144545
-0.389257
-0.0356964
-0.0451012
-0.203719
-0.334846
-0.065495
-0.0637004
-0.111628
-0.427515
0.0668784
0.0688148
-0.317816
0.0365454
0.0608269
0.0570867
0.0559109
0.064093
-0.00105299
-0.00146834
-0.00151545
0.00486651
0.00406182
0.00405609
-0.106848
-0.0765139
-0.0274576
-0.502468
-0.0255989
-0.00729075
-0.149363
-0.0796418
0.0162736
-0.531367
-0.250812
-0.194562
-0.0454781
-0.0202185
-0.0675381
0.010639
-0.496408
-0.036108
-0.0427105
-0.289252
0.00666934
0.00572837
0.00878036
0.00769156
0.0110272
0.00991312
0.0131152
0.0120904
0.0149643
0.0140733
0.0164913
0.0157684
0.0176684
0.0171217
0.0185084
0.0181269
0.0190507
0.0188126
0.0193514
0.0192262
0.0194916
0.0194348
0.0195915
0.0195372
0.0198243
0.0196788
0.0204202
0.0200619
0.0216469
0.0209397
0.0237552
0.0225807
0.0268827
0.0251934
0.0309292
0.028812
0.0354581
0.0331747
0.0397209
0.0376762
0.0428319
0.0414712
0.0440537
0.0437092
0.0429864
0.0438079
0.0396539
0.041578
0.0344994
0.0372614
0.0282533
0.031456
0.021876
0.0250155
0.016419
0.0189718
0.0129039
0.0143609
0.0122785
0.0121887
0.0152299
0.0132805
0.0219716
0.0181744
0.0315232
0.0264415
0.0444814
0.0374972
0.0611154
0.0523898
0.0642259
0.0576736
0.0450965
0.051804
0.0657228
0.0622436
0.0708889
0.0685069
0.042014
0.0484772
0.0319759
0.0365421
0.0247166
0.0280853
0.0193443
0.0218202
0.0156844
0.0173159
0.0134392
0.0144186
0.0121996
0.0127117
0.0118722
0.0119181
0.012592
0.0120972
0.0144547
0.0133823
0.0174445
0.0158206
0.0213646
0.0193101