/*--------------------------------*- C++ -*----------------------------------*\
  =========                 |
  \\      /  F ield         | OpenFOAM: The Open Source CFD Toolbox
   \\    /   O peration     | Website:  https://openfoam.org
    \\  /    A nd           | Version:  10
     \\/     M anipulation  |
\*---------------------------------------------------------------------------*/
FoamFile
{
    format      ascii;
    class       volVectorField;
    location    "17";
    object      U;
}
// * * * * * * * * * * * * * * * * * * * * * * * * * * * * * * * * * * * * * //

dimensions      [0 1 -1 0 0 0 0];

internalField   nonuniform List<vector> 
6397
(
(1.04384 -0.178165 9.47418e-21)
(1.04839 -0.190142 -4.35687e-20)
(1.22877 0.292341 0)
(1.20312 0.280904 3.69813e-22)
(1.17181 0.297476 -9.28814e-22)
(1.19338 0.312893 -2.13698e-21)
(0.782432 -0.485068 -4.17024e-20)
(0.474282 -0.70144 1.01179e-19)
(-0.0613129 0.112016 1.6977e-20)
(-0.115905 0.0786869 -7.23683e-21)
(0.49963 0.7118 6.83572e-20)
(0.800725 0.721559 -9.01466e-21)
(0.46679 0.0277458 -7.73739e-22)
(0.534471 0.0150219 -3.12743e-22)
(0.340195 0.0271411 1.52537e-21)
(-0.0475635 0.0487372 -9.08447e-20)
(0.101787 0.0665695 -5.18153e-20)
(-0.101425 0.0655701 4.38429e-20)
(0.326257 0.0136031 5.4289e-20)
(0.445784 -0.163734 -1.65012e-19)
(0.544275 -0.0176917 -8.50774e-20)
(0.215075 -0.0180561 -1.06866e-19)
(0.00123542 -0.00102934 4.77373e-21)
(0.459876 0.0163816 -7.37793e-20)
(0.670693 0.0143447 0)
(0.671317 0.0124642 3.10027e-22)
(0.793629 0.0157789 7.30832e-23)
(0.781134 -0.130922 9.57362e-21)
(0.76285 -0.24188 -2.69911e-21)
(0.855458 0.0352853 6.35322e-21)
(0.823652 -0.078682 -8.48944e-21)
(1.16387 0.227613 -1.44789e-21)
(1.18379 0.237602 -1.50244e-21)
(1.18041 0.268028 5.84584e-21)
(1.13311 0.160944 -1.62291e-22)
(1.14718 0.168749 0)
(1.14771 0.191216 4.12021e-22)
(1.16452 0.200333 9.85669e-22)
(1.12249 0.120352 -1.95279e-22)
(1.11313 0.115307 4.89967e-23)
(1.12165 0.13633 0)
(1.13352 0.14202 0)
(0.889322 0.134084 -2.86029e-21)
(1.16251 0.369033 -3.49968e-21)
(1.17388 0.367864 4.3679e-21)
(1.21748 0.325519 -6.40629e-21)
(1.17619 0.340721 -3.07151e-21)
(1.19578 0.352605 9.79881e-21)
(1.09279 0.0762987 -4.48325e-23)
(1.09829 0.0719321 8.35959e-24)
(1.09535 0.062498 -6.7424e-23)
(1.1041 0.0565885 1.5748e-23)
(1.1007 0.061154 1.3903e-22)
(0.976074 0.197547 -8.32619e-21)
(1.03155 0.230814 5.48791e-21)
(1.03228 0.05091 3.95959e-21)
(1.03785 0.063781 4.0354e-21)
(1.13928 -0.046727 -9.56422e-22)
(0.90726 -0.477934 -3.01599e-21)
(0.881869 -0.464071 3.03156e-21)
(0.915385 -0.508433 3.30692e-21)
(0.913205 -0.537824 -3.25531e-21)
(0.907802 -0.550309 -4.55097e-21)
(0.895003 -0.539572 4.47309e-21)
(0.871042 -0.502029 0)
(0.833101 -0.428022 7.28736e-21)
(0.787236 -0.309306 -7.62521e-21)
(0.736059 -0.146591 0)
(0.907343 -0.436601 -2.38204e-21)
(0.840948 -0.462637 -3.71734e-23)
(0.868988 -0.421621 2.2405e-21)
(0.928216 -0.469515 0)
(0.938284 -0.51024 0)
(0.945573 -0.541747 0)
(0.950167 -0.556619 -1.75527e-23)
(0.944032 -0.555755 2.51996e-24)
(0.924133 -0.528873 0)
(0.892001 -0.462389 -1.02662e-24)
(0.849607 -0.345026 0)
(0.798574 -0.177792 0)
(0.822097 -0.414139 -2.78276e-21)
(0.798837 -0.453327 2.10721e-22)
(0.687462 0.0482225 0)
(0.744593 0.0262299 0)
(0.780152 -0.392773 -2.73614e-22)
(0.768754 -0.414479 0)
(0.650395 0.248478 0)
(0.696793 0.239701 0)
(0.755089 -0.341383 6.22187e-21)
(0.756613 -0.341079 -1.22451e-21)
(0.635187 0.423153 0)
(0.665001 0.431903 0)
(0.748744 -0.261482 -5.3687e-21)
(0.758764 -0.163183 -3.00717e-21)
(0.647549 0.543599 0)
(0.658488 0.57362 1.09329e-21)
(0.76972 -0.322161 0)
(0.75151 -0.178549 4.9582e-21)
(0.749597 -0.262467 3.09957e-22)
(0.85593 -0.371172 -1.75108e-21)
(0.807127 -0.355923 0)
(0.931487 -0.416188 -1.03212e-21)
(0.900485 -0.385693 1.74493e-21)
(0.96796 -0.500457 1.60046e-21)
(0.950364 -0.459248 8.07406e-22)
(0.998218 -0.553354 1.7581e-23)
(0.985691 -0.531633 -1.69434e-21)
(0.988316 -0.545385 -7.92943e-22)
(0.99811 -0.563256 -3.55463e-21)
(0.929639 -0.375755 -4.19419e-21)
(0.964632 -0.485544 8.23243e-21)
(0.823049 -0.0103977 0)
(0.878136 -0.214106 0)
(0.717441 0.416275 0)
(0.76546 0.21066 0)
(0.687607 0.576657 -2.36928e-21)
(0.622646 0.246758 -5.76939e-21)
(0.650715 0.499398 -2.01166e-21)
(0.620954 0.399418 5.71099e-21)
(0.692137 -0.11922 6.69692e-21)
(0.649 0.0621488 -6.5461e-21)
(0.788962 -0.395813 4.86128e-23)
(0.740884 -0.276213 2.16905e-22)
(0.856418 -0.519607 0)
(0.827316 -0.474698 0)
(0.890903 -0.523956 3.16788e-21)
(0.875861 -0.533303 4.1701e-22)
(0.885355 -0.491918 5.82812e-22)
(0.895534 -0.504382 -3.14931e-21)
(0.820951 -0.496943 2.10523e-21)
(0.85722 -0.494164 -1.86229e-22)
(0.773907 -0.419493 -5.23493e-21)
(0.790491 -0.477369 -1.95627e-21)
(0.794897 -0.204612 0)
(0.777906 -0.321707 5.60814e-21)
(0.778398 -0.0623705 -3.78962e-21)
(0.808287 -0.0205373 -4.88022e-23)
(0.76383 -0.0891481 1.1162e-21)
(0.684143 0.67376 -2.73862e-21)
(0.68078 0.648022 7.21787e-22)
(0.669294 0.4449 -1.54033e-23)
(0.712592 0.534921 2.01667e-21)
(0.744682 0.46337 0)
(0.704885 0.705415 1.82369e-21)
(0.703555 0.674241 -3.96643e-21)
(0.694314 0.727253 3.94331e-21)
(0.920976 0.101073 3.16784e-21)
(0.755589 -0.179331 -2.08862e-21)
(0.759553 -0.100619 -1.06857e-21)
(0.955928 0.195997 2.80853e-21)
(0.691381 0.597974 1.76261e-22)
(0.79846 -0.288246 0)
(0.765882 -0.2446 -2.40559e-22)
(0.891672 -0.326347 9.75044e-24)
(0.84385 -0.309896 0)
(0.952431 -0.395536 -1.957e-22)
(0.927257 -0.354084 4.26425e-22)
(1.00008 -0.47893 0)
(0.973625 -0.44072 1.59229e-22)
(1.0446 -0.542496 0)
(1.02492 -0.512704 1.07717e-22)
(1.05985 -0.55345 0)
(1.05589 -0.561211 3.56901e-22)
(1.02288 -0.413109 3.72872e-23)
(1.04928 -0.507807 4.26794e-22)
(0.920049 -0.0659739 4.09469e-22)
(0.977455 -0.263983 -7.28076e-22)
(0.791415 0.373986 -1.9532e-22)
(0.85571 0.15745 -2.03239e-22)
(0.736904 0.554026 1.26291e-21)
(0.611666 0.240598 5.12976e-23)
(0.624098 0.369772 6.83855e-23)
(0.659323 -0.087729 -5.61867e-24)
(0.625876 0.0784922 0)
(0.747104 -0.355677 0)
(0.702157 -0.235941 -5.88259e-23)
(0.823012 -0.489303 0)
(0.788401 -0.439521 0)
(0.873976 -0.508962 -2.79103e-24)
(0.852955 -0.508938 -4.23133e-22)
(0.869274 -0.511407 -3.97677e-22)
(0.880776 -0.50549 0)
(0.815529 -0.526193 -2.26986e-21)
(0.84363 -0.524168 0)
(0.795634 -0.415242 1.68579e-22)
(0.796819 -0.492095 2.27393e-21)
(0.845998 -0.154131 7.12375e-24)
(0.812766 -0.296706 7.39469e-22)
(0.88237 -0.0172895 -3.2207e-21)
(0.805691 0.0354745 8.5137e-22)
(0.839329 0.0788155 0)
(0.776205 -0.0144225 4.14445e-22)
(0.78755 0.00771247 -5.32271e-22)
(0.82603 0.465251 0)
(0.790687 0.533647 0)
(0.726223 0.660285 -6.68121e-22)
(0.743612 0.641939 -6.97711e-22)
(0.699617 0.71617 0)
(0.709262 0.721083 -3.60676e-22)
(0.743232 0.690239 1.94045e-22)
(0.857856 0.401718 0)
(0.882783 0.497485 0)
(0.905961 0.451076 -7.93556e-22)
(0.923003 0.213263 2.24996e-21)
(0.984227 0.266 0)
(0.803167 0.0646133 -8.16656e-22)
(0.771742 -0.0317236 -3.52932e-24)
(0.792865 0.039927 7.56623e-22)
(1.0299 0.249069 0)
(0.999182 0.160756 -3.26399e-21)
(0.75551 0.601012 0)
(0.770516 -0.168249 8.34111e-23)
(0.764581 -0.107194 0)
(0.835219 -0.243026 7.775e-25)
(0.794126 -0.215353 1.32087e-22)
(0.919736 -0.289508 -5.50206e-23)
(0.880358 -0.263029 0)
(0.970937 -0.372519 9.29446e-25)
(0.947118 -0.327805 -6.82805e-23)
(1.02902 -0.450881 -1.88057e-24)
(0.997446 -0.414477 -1.12415e-22)
(1.0861 -0.522642 5.73352e-22)
(1.0589 -0.487749 0)
(1.12847 -0.551241 0)
(1.11053 -0.547649 -5.84296e-22)
(1.12069 -0.444662 -3.42195e-22)
(1.13317 -0.521478 1.4311e-22)
(1.03388 -0.12704 0)
(1.08709 -0.311066 -5.00498e-23)
(0.885694 0.309086 -4.43129e-22)
(0.963581 0.0891812 8.50385e-22)
(0.807884 0.50174 1.25616e-21)
(0.702185 0.37926 -1.67264e-22)
(0.784921 0.386983 2.11709e-25)
(0.613769 0.235359 -1.31091e-22)
(0.640236 0.334343 3.09061e-22)
(0.641953 -0.0542299 -1.21905e-23)
(0.617509 0.0972922 -3.63324e-22)
(0.72101 -0.312401 0)
(0.679225 -0.194649 4.44966e-22)
(0.805381 -0.453566 0)
(0.764392 -0.398386 0)
(0.864013 -0.495017 5.09817e-24)
(0.840762 -0.48111 0)
(0.858569 -0.529832 0)
(0.869641 -0.509089 0)
(0.821207 -0.543954 0)
(0.838034 -0.548355 0)
(0.832695 -0.400814 1.71767e-21)
(0.816751 -0.497173 0)
(0.907653 -0.107499 -7.05568e-24)
(0.863505 -0.262691 -1.75502e-21)
(0.953248 0.0393213 3.78297e-21)
(0.840226 0.125044 8.98853e-22)
(0.874508 0.1661 -2.10788e-21)
(0.818393 0.0927106 1.32927e-21)
(0.679555 0.727889 2.48476e-21)
(0.855049 0.546991 0)
(0.780296 0.646062 8.45112e-22)
(0.947849 0.514682 8.47307e-22)
(0.920636 0.560904 0)
(0.730542 0.685713 3.25401e-22)
(0.776175 0.667462 9.73708e-22)
(0.833054 0.132692 1.59218e-22)
(0.819165 0.103988 1.70168e-22)
(0.951627 0.273806 1.75886e-21)
(1.00479 0.313565 2.05575e-21)
(1.076 0.207616 3.55447e-21)
(1.10349 0.290618 0)
(0.776595 -0.0414413 -6.29206e-23)
(0.789475 0.020607 -5.73543e-22)
(0.674507 0.694965 -2.49191e-21)
(0.669306 0.641075 -2.62231e-22)
(0.735044 0.650217 -2.02403e-21)
(1.05137 0.308694 -4.0511e-22)
(0.818625 0.598113 0)
(0.79961 -0.144562 -8.41922e-24)
(0.780432 -0.100584 2.65751e-23)
(0.876608 -0.199516 9.10375e-24)
(0.833603 -0.177101 1.82043e-23)
(0.944364 -0.261266 0)
(0.914962 -0.225279 0)
(0.991754 -0.346971 -3.61411e-25)
(0.966339 -0.304841 -3.66163e-29)
(1.05577 -0.419405 1.86369e-24)
(1.02254 -0.384026 0)
(1.1238 -0.492052 0)
(1.08947 -0.456572 -1.35429e-28)
(1.18976 -0.531854 0)
(1.15903 -0.519736 0)
(1.21553 -0.459865 0)
(1.21077 -0.51684 0)
(1.15356 -0.186615 0)
(1.19767 -0.349702 0)
(0.999165 0.22789 0)
(1.08473 0.0150523 0)
(0.815808 0.572048 -7.64123e-22)
(0.905328 0.42308 0)
(0.67657 0.696771 0)
(0.738311 0.663372 9.8432e-23)
(0.60613 0.616319 0)
(0.638638 0.672845 -2.91682e-22)
(0.885913 0.348291 -3.7167e-23)
(0.97423 0.462576 -2.27159e-22)
(0.926779 0.406837 3.73271e-23)
(0.750069 0.304752 1.38967e-23)
(0.828615 0.314384 -2.11625e-25)
(0.629653 0.216401 -4.58654e-23)
(0.675237 0.282794 -3.87662e-24)
(0.638177 -0.0257235 -1.42673e-24)
(0.620697 0.107351 0)
(0.71396 -0.269139 0)
(0.672095 -0.155652 0)
(0.801725 -0.415203 0)
(0.758953 -0.355518 0)
(0.856581 -0.482461 -4.53192e-25)
(0.83637 -0.453177 0)
(0.851658 -0.543186 0)
(0.860162 -0.512435 0)
(0.838634 -0.547616 0)
(0.840879 -0.561347 0)
(0.884439 -0.370828 8.07054e-22)
(0.853124 -0.483756 -8.39356e-22)
(0.981402 -0.0593547 1.01864e-21)
(0.930173 -0.220234 -1.26562e-22)
(1.0322 0.0894315 -4.98782e-21)
(0.87716 0.199715 -9.57967e-22)
(0.910384 0.237008 -1.86573e-21)
(0.852027 0.164569 0)
(1.00249 0.565054 0)
(1.03588 0.503249 2.04772e-22)
(0.642438 0.578636 1.55764e-21)
(0.571901 0.537128 0)
(0.891201 0.598238 0)
(0.816763 0.647535 0)
(0.809583 0.0785693 0)
(1.06271 0.344845 -5.42135e-21)
(1.15486 0.247314 2.84352e-21)
(1.17402 0.317096 0)
(0.962525 0.619159 1.26309e-22)
(0.779829 0.66163 -1.29223e-21)
(1.09857 0.544327 4.01293e-22)
(1.06367 0.605335 -1.42104e-22)
(0.708002 0.617517 2.30506e-21)
(0.594014 0.503143 -1.19968e-22)
(0.523928 0.441112 0)
(1.11927 0.33952 5.79664e-21)
(0.855187 0.626942 0)
(0.797505 -0.037512 1.51049e-22)
(0.807786 0.0609971 2.3871e-22)
(0.797459 0.0112224 1.77147e-22)
(0.842868 -0.111637 9.75538e-23)
(0.813501 -0.0802043 -1.65397e-22)
(0.915631 -0.163316 0)
(0.879991 -0.136772 -6.89701e-23)
(0.962904 -0.239444 -1.35942e-29)
(0.942159 -0.197902 1.41356e-29)
(1.01186 -0.317825 -3.17082e-25)
(0.98444 -0.281148 0)
(1.07722 -0.385493 0)
(1.04373 -0.351406 0)
(1.15307 -0.454197 -2.43518e-24)
(1.11331 -0.420822 1.3543e-28)
(1.23754 -0.500344 2.72502e-28)
(1.19573 -0.482605 -2.82937e-28)
(1.29761 -0.458816 0)
(1.27404 -0.496968 0)
(1.27115 -0.236814 1.08076e-23)
(1.299 -0.373451 0)
(1.12804 0.138937 -1.07965e-23)
(1.21207 -0.05786 0)
(0.921955 0.477823 -2.59018e-22)
(1.0275 0.326355 0)
(0.728436 0.626699 6.04215e-22)
(0.819101 0.580445 3.75216e-22)
(0.597841 0.566922 -8.89779e-23)
(0.657594 0.617445 -3.09549e-22)
(0.502301 0.3851 -1.08745e-21)
(0.550143 0.485527 8.87302e-23)
(0.998871 0.408478 9.04236e-23)
(1.11631 0.482874 -2.84431e-23)
(1.05726 0.444049 -1.11485e-22)
(0.910888 0.306837 -1.10279e-22)
(0.948218 0.364714 4.99354e-23)
(0.80666 0.230563 1.16333e-22)
(0.869901 0.256558 3.76055e-23)
(0.666427 0.180038 0)
(0.730213 0.216931 -1.3113e-22)
(0.640991 -0.00395354 -1.07481e-25)
(0.636801 0.10352 1.06133e-29)
(0.709625 -0.226371 0)
(0.669126 -0.119579 0)
(0.794977 -0.378685 -5.24125e-25)
(0.75399 -0.312784 0)
(0.843823 -0.472397 -1.92084e-24)
(0.826194 -0.428662 0)
(0.849296 -0.548189 0)
(0.849167 -0.513834 0)
(0.87053 -0.533359 0)
(0.85341 -0.560633 0)
(0.952246 -0.328314 0)
(0.903445 -0.455395 0)
(1.06615 -0.0054386 0)
(1.00956 -0.16808 6.22068e-23)
(1.11697 0.138972 -1.91669e-21)
(1.16151 0.585137 -4.81835e-22)
(1.1829 0.517876 0)
(0.467789 0.325239 -1.96061e-22)
(0.461181 0.268365 1.25423e-21)
(1.12103 0.364648 0)
(1.18124 0.353756 -1.25697e-21)
(1.07209 0.364577 -1.86961e-21)
(1.11995 0.373613 1.79411e-21)
(0.981346 0.318472 8.71914e-22)
(1.02469 0.345331 -1.46437e-22)
(0.911743 0.254584 6.08569e-23)
(0.943276 0.287801 -7.53675e-22)
(0.86467 0.189706 -6.20677e-22)
(0.885589 0.221371 1.53058e-22)
(0.835434 0.130485 0)
(0.84883 0.159004 3.42185e-22)
(0.825775 0.107866 -3.06769e-22)
(0.917744 0.657837 -1.27348e-22)
(0.819171 0.676471 -6.21104e-28)
(1.01069 0.65813 1.42665e-22)
(0.749543 0.661868 0)
(1.11646 0.642662 0)
(0.653051 0.566502 0)
(1.25793 0.540651 1.29093e-22)
(1.22685 0.60847 1.2621e-23)
(0.526161 0.397524 -1.3982e-21)
(0.434423 0.141728 -2.29793e-22)
(0.413495 0.185092 -9.64992e-23)
(0.824396 0.0559094 -2.87434e-22)
(0.831932 0.0947116 2.69021e-22)
(0.867315 0.677796 -6.69652e-28)
(0.839081 -0.0200947 4.88551e-23)
(0.826801 0.0159436 2.28803e-22)
(0.89441 -0.077307 9.98519e-23)
(0.863374 -0.0509812 0)
(0.946054 -0.139523 -4.68711e-29)
(0.923047 -0.105463 -1.12565e-22)
(0.980605 -0.219825 0)
(0.962673 -0.179344 0)
(1.0309 -0.288593 -2.43447e-25)
(1.00315 -0.256272 0)
(1.09438 -0.351045 0)
(1.0614 -0.319652 0)
(1.17384 -0.411363 4.29545e-24)
(1.13169 -0.382059 0)
(1.26946 -0.456389 3.68366e-24)
(1.22035 -0.437486 0)
(1.35835 -0.438392 0)
(1.31789 -0.460346 0)
(1.37529 -0.271647 -1.91402e-24)
(1.3809 -0.378072 0)
(1.26201 0.0511125 1.5778e-24)
(1.33491 -0.122305 0)
(1.05593 0.369433 6.13582e-24)
(1.16517 0.223798 -4.89874e-28)
(0.836283 0.529326 -9.67731e-25)
(0.943242 0.473578 0)
(0.667069 0.497305 -1.53778e-22)
(0.744163 0.534017 -9.42027e-23)
(0.566024 0.33507 1.33001e-21)
(0.609239 0.426424 1.19384e-21)
(0.555402 0.140628 -2.54706e-21)
(0.54757 0.235166 2.54493e-23)
(1.12741 0.423484 7.96473e-23)
(1.2616 0.46827 -1.40796e-22)
(1.19125 0.449757 0)
(1.02156 0.356482 -4.42612e-25)
(1.0728 0.390438 2.77347e-23)
(0.93169 0.272535 1.35768e-23)
(0.971466 0.321294 3.71311e-24)
(0.860115 0.17061 -9.29471e-25)
(0.90136 0.215918 9.49188e-24)
(0.727593 0.124885 0)
(0.797805 0.146447 0)
(0.65697 0.00382844 -5.68979e-25)
(0.676004 0.0800188 1.69719e-28)
(0.699792 -0.188034 -8.53365e-29)
(0.668689 -0.0911532 9.03241e-29)
(0.775944 -0.346211 8.31975e-25)
(0.738672 -0.273836 0)
(0.825719 -0.460826 0)
(0.805511 -0.406813 0)
(0.855288 -0.539017 2.06279e-24)
(0.839873 -0.507282 0)
(0.917375 -0.500382 0)
(0.879134 -0.541374 0)
(1.03342 -0.272068 6.69407e-24)
(0.969585 -0.40884 0)
(1.15804 0.0482193 -1.49995e-23)
(1.09872 -0.110496 6.37851e-23)
(1.22945 0.275113 -2.46685e-21)
(1.20348 0.181198 0)
(1.2307 0.354394 -8.30473e-21)
(1.23667 0.33012 6.88927e-21)
(1.21506 0.358103 1.61105e-22)
(1.0788 0.368268 0)
(1.14977 0.360169 -1.58489e-21)
(1.11564 0.370562 -2.4531e-22)
(1.00478 0.340559 0)
(1.0413 0.358434 0)
(0.94213 0.289923 -4.14665e-22)
(0.971426 0.317283 -1.24806e-28)
(0.894559 0.231265 1.21725e-22)
(0.915789 0.260792 6.71485e-22)
(0.861641 0.172049 0)
(0.877625 0.20056 -2.25718e-22)
(1.33069 0.545869 -4.05619e-24)
(1.33568 0.47595 1.4368e-22)
(0.434972 0.0208424 2.26998e-21)
(0.598847 0.065583 5.54583e-21)
(0.843054 0.132926 2.43801e-22)
(0.846075 0.148576 -1.78487e-22)
(0.947976 0.69283 -1.60372e-26)
(0.79934 0.699523 0)
(1.04803 0.684718 0)
(0.701101 0.63218 -2.23062e-26)
(1.16324 0.65757 -3.32566e-24)
(0.58505 0.475047 -6.64918e-22)
(1.28321 0.601329 6.57666e-24)
(0.453314 0.256133 0)
(1.40936 0.464663 1.98401e-21)
(1.39161 0.521998 -5.67575e-24)
(0.373066 0.0313631 4.59263e-22)
(0.674939 0.0167551 -5.93259e-21)
(0.481597 -0.0741605 -9.87779e-22)
(1.38907 0.392411 -9.79413e-22)
(1.47116 0.42496 -1.99447e-21)
(1.45375 0.36619 -1.69385e-21)
(0.757685 -0.0191765 -2.89528e-21)
(0.847019 0.0847995 6.84948e-21)
(0.886238 0.032386 9.62863e-22)
(0.868183 0.125376 2.49674e-22)
(0.859186 0.165497 0)
(0.878296 0.152572 -2.90475e-22)
(0.873168 0.70846 -1.00632e-27)
(0.866671 0.0627617 1.50071e-22)
(0.866232 0.0929405 6.39723e-22)
(0.895178 0.00372054 -2.63683e-22)
(0.879584 0.0316698 -1.48416e-22)
(0.938967 -0.0528187 0)
(0.918623 -0.0236725 0)
(0.967624 -0.125007 0)
(0.955338 -0.086915 0)
(0.998306 -0.199777 0)
(0.980811 -0.163866 0)
(1.04684 -0.260727 0)
(1.02088 -0.231508 0)
(1.10779 -0.316486 4.12508e-29)
(1.07561 -0.288967 -4.28617e-29)
(1.18648 -0.367252 -1.86011e-24)
(1.14471 -0.342733 -1.62599e-28)
(1.28508 -0.405564 -3.68366e-24)
(1.23345 -0.38907 0)
(1.3915 -0.400035 0)
(1.33949 -0.411786 0)
(1.45137 -0.283153 -2.11865e-24)
(1.43258 -0.360098 0)
(1.38719 -0.0234623 1.97772e-24)
(1.43747 -0.167144 0)
(1.20666 0.261966 -6.1356e-24)
(1.30628 0.127632 0)
(0.989369 0.424982 -2.5303e-24)
(1.0976 0.363862 -1.87281e-28)
(0.812121 0.422402 3.7858e-22)
(0.891814 0.442742 0)
(0.727408 0.30572 -6.85239e-22)
(0.756537 0.371682 -4.73341e-22)
(0.753056 0.178882 3.00419e-21)
(0.728949 0.238145 -1.97727e-21)
(0.800844 0.129982 -6.13085e-21)
(1.25369 0.399809 -4.10596e-22)
(1.32 0.402775 1.36821e-21)
(1.1346 0.367725 -2.17614e-25)
(1.19227 0.387631 -1.98825e-23)
(1.03796 0.310004 3.94387e-23)
(1.08375 0.341341 -4.24334e-23)
(0.953726 0.238228 8.03886e-25)
(0.994072 0.277495 -3.7714e-24)
(0.898993 0.132513 9.28774e-25)
(0.924164 0.187436 4.98073e-28)
(0.80628 0.0620387 0)
(0.862015 0.0897337 0)
(0.703637 -0.0129249 5.48788e-28)
(0.746478 0.0336734 -5.80754e-28)
(0.699515 -0.161297 0)
(0.689194 -0.0809527 0)
(0.756451 -0.316351 8.90263e-25)
(0.72535 -0.241677 0)
(0.814289 -0.440514 0)
(0.786614 -0.38249 0)
(0.877119 -0.510418 -2.06281e-24)
(0.842648 -0.485812 0)
(0.98113 -0.447731 0)
(0.922397 -0.501231 0)
(1.12594 -0.206145 -5.76097e-25)
(1.0507 -0.346393 -1.53767e-27)
(1.24975 0.0956842 1.45829e-23)
(1.19494 -0.0499436 0)
(1.29331 0.287719 0)
(1.28235 0.211575 7.67432e-25)
(1.26689 0.340317 1.88921e-21)
(1.28636 0.326396 4.46708e-24)
(1.2432 0.334575 1.34718e-21)
(1.13716 0.34301 -2.18061e-21)
(1.15748 0.323727 1.21848e-21)
(1.08119 0.35867 0)
(1.11055 0.355492 0)
(1.02122 0.34457 -5.74868e-26)
(1.05106 0.35507 -1.3257e-28)
(0.966622 0.308415 -5.15615e-26)
(0.992991 0.328564 -1.02096e-28)
(0.92222 0.260139 -2.02343e-23)
(0.94209 0.285489 -1.21196e-28)
(0.888608 0.205876 -3.44146e-23)
(0.90622 0.23255 8.59234e-23)
(0.868476 0.183066 -1.33525e-23)
(0.968719 0.700851 2.58867e-26)
(0.772669 0.679595 -5.16669e-27)
(1.06948 0.684095 0)
(0.643103 0.550818 2.54915e-26)
(1.19544 0.628639 6.09755e-24)
(0.509824 0.335832 6.65975e-22)
(1.3164 0.552004 -3.64886e-23)
(0.386528 0.0827992 2.20201e-23)
(1.42706 0.456409 -7.7607e-23)
(0.366052 -0.116373 0)
(1.5057 0.319106 1.8863e-21)
(1.50722 0.353066 0)
(0.573436 -0.125819 -1.11883e-21)
(0.915308 -0.0298372 4.02895e-21)
(0.83226 -0.0640071 2.6079e-21)
(1.46121 0.268992 -5.84263e-23)
(1.53631 0.250598 3.90493e-21)
(1.49736 0.219672 1.77211e-23)
(0.940183 -0.0952373 -1.12969e-21)
(0.969841 -0.0179703 4.52274e-21)
(0.98714 -0.0754264 2.5106e-21)
(0.875413 0.194288 0)
(0.888989 0.180482 -9.12751e-22)
(0.914387 0.128465 6.10121e-22)
(0.945825 0.141647 -6.37507e-22)
(0.874387 0.69779 5.94557e-27)
(0.92417 0.0759058 -3.36754e-22)
(0.931751 0.0968885 -2.72072e-22)
(0.94855 0.0216352 4.34999e-23)
(0.942897 0.0476827 -1.71422e-22)
(0.969971 -0.0411472 -6.19587e-25)
(0.963675 -0.00791927 6.30258e-28)
(0.98561 -0.114379 0)
(0.97827 -0.0773967 0)
(1.01511 -0.180319 0)
(0.998421 -0.149012 0)
(1.06003 -0.234794 4.32937e-25)
(1.03634 -0.208443 0)
(1.11772 -0.283175 0)
(1.08714 -0.259714 0)
(1.19234 -0.324426 0)
(1.1528 -0.30482 0)
(1.2869 -0.353218 0)
(1.23707 -0.341118 0)
(1.39699 -0.34989 0)
(1.34119 -0.357696 0)
(1.48665 -0.269529 -6.77476e-24)
(1.44859 -0.322951 0)
(1.48056 -0.0736597 2.12378e-24)
(1.50005 -0.184966 -1.56728e-27)
(1.35103 0.168802 0)
(1.42791 0.050474 0)
(1.16647 0.329943 6.86359e-25)
(1.26032 0.265156 1.87282e-28)
(1.00682 0.359692 2.7037e-24)
(1.0791 0.360536 5.21218e-28)
(0.929297 0.295862 6.81652e-22)
(0.956061 0.334452 5.1554e-25)
(0.92966 0.205705 -3.73652e-22)
(0.922324 0.251713 -3.21548e-22)
(0.951624 0.101795 -2.33866e-21)
(0.942257 0.15671 1.61371e-21)
(0.95918 0.0422409 -5.15044e-21)
(1.35585 0.329334 -1.33259e-22)
(1.41211 0.30572 2.41048e-23)
(1.2406 0.341303 8.4202e-24)
(1.29785 0.341162 0)
(1.13607 0.317632 2.15097e-25)
(1.18705 0.333022 2.01338e-23)
(1.04868 0.269136 0)
(1.08982 0.296233 0)
(0.975573 0.204212 1.05784e-25)
(1.01116 0.238594 0)
(0.925445 0.110411 0)
(0.946133 0.161918 0)
(0.878118 0.0144461 0)
(0.906923 0.0579056 0)
(0.788743 -0.0519132 -2.9714e-24)
(0.835579 -0.0187102 0)
(0.739195 -0.153622 0)
(0.753863 -0.0958006 0)
(0.764393 -0.287799 -1.19811e-24)
(0.744806 -0.21973 0)
(0.827965 -0.406347 -9.55468e-25)
(0.792967 -0.351316 0)
(0.923258 -0.460763 7.45038e-25)
(0.870611 -0.445585 1.33587e-29)
(1.06332 -0.377528 3.19438e-24)
(0.987624 -0.44067 1.48266e-27)
(1.22467 -0.135057 -8.55536e-25)
(1.14514 -0.271586 0)
(1.33239 0.133055 0)
(1.28972 0.00753793 0)
(1.34186 0.281709 0)
(1.34792 0.225972 -7.6874e-25)
(1.29053 0.312699 -1.49073e-21)
(1.32026 0.307724 -4.38747e-24)
(1.25932 0.304507 1.30635e-21)
(1.15223 0.279865 0)
(1.15998 0.254094 -2.16539e-21)
(1.123 0.320162 1.10227e-21)
(1.13975 0.30264 2.57705e-22)
(1.07906 0.34 1.02666e-25)
(1.10213 0.33325 2.28078e-28)
(1.03113 0.336318 1.03841e-25)
(1.05516 0.34096 2.12024e-28)
(0.984593 0.313709 -1.64663e-28)
(1.00755 0.326985 1.67427e-28)
(0.946546 0.275334 -3.55618e-23)
(0.963376 0.296483 1.02795e-28)
(0.911491 0.229297 3.4258e-23)
(0.931436 0.251637 3.62384e-23)
(0.887743 0.210509 -4.95239e-23)
(0.963756 0.679664 0)
(0.734371 0.607739 1.94805e-27)
(1.07384 0.629871 0)
(0.5759 0.415536 -1.32875e-25)
(1.19638 0.549468 -8.02819e-24)
(0.431812 0.153753 -9.83901e-25)
(1.31668 0.451939 2.59346e-23)
(0.335186 -0.105522 1.57934e-24)
(1.42501 0.352256 9.75122e-23)
(0.412978 -0.22558 -1.55441e-24)
(1.50924 0.256191 0)
(0.690098 -0.148602 -9.39732e-22)
(1.517 0.159806 2.64653e-21)
(1.54238 0.168267 -7.70267e-21)
(0.87934 -0.12749 5.6131e-23)
(1.01403 -0.12606 -2.69223e-21)
(0.974601 -0.155588 -2.98669e-21)
(0.921657 0.171784 -1.94368e-22)
(0.851911 0.648206 -1.49588e-26)
(0.991581 0.123649 -7.41299e-22)
(1.01317 0.158353 3.69876e-21)
(0.999907 0.144757 -2.37881e-21)
(0.98661 0.080204 8.31244e-23)
(0.989983 0.105467 6.8833e-22)
(0.98942 0.0267152 -4.34438e-23)
(0.990734 0.0567663 9.06278e-23)
(0.99182 -0.0380884 -1.66675e-22)
(0.992448 -0.00325122 1.48008e-22)
(1.00237 -0.10489 -1.11722e-24)
(0.996337 -0.0716047 5.81009e-28)
(1.03 -0.162378 -8.90581e-25)
(1.01483 -0.134848 -4.67409e-28)
(1.07097 -0.210771 1.4545e-25)
(1.04939 -0.187388 0)
(1.12464 -0.251997 0)
(1.09624 -0.232299 0)
(1.19342 -0.284664 4.4253e-25)
(1.15709 -0.269532 0)
(1.2798 -0.304045 -6.29246e-28)
(1.23436 -0.296558 6.53343e-28)
(1.38209 -0.297037 -1.15966e-27)
(1.32958 -0.305129 1.20365e-27)
(1.47979 -0.236673 1.71797e-27)
(1.43416 -0.275729 -1.78252e-27)
(1.51803 -0.0936655 8.28149e-24)
(1.51065 -0.175846 -2.06332e-27)
(1.44855 0.100935 -1.87189e-24)
(1.49626 0.00293886 -1.57052e-27)
(1.31092 0.251889 7.48259e-25)
(1.38362 0.187238 0)
(1.17407 0.305454 2.98196e-24)
(1.23867 0.291262 1.14974e-27)
(1.08351 0.274735 4.88188e-24)
(1.12195 0.297942 0)
(1.03669 0.19884 3.64258e-22)
(1.0562 0.240729 0)
(1.00974 0.0960552 1.48072e-21)
(1.02119 0.150209 -1.63866e-21)
(1.00934 -0.0119699 0)
(1.00577 0.040577 1.32516e-22)
(1.04233 -0.101843 2.38427e-21)
(1.02226 -0.0597265 -2.22755e-21)
(1.40808 0.227103 -1.31349e-22)
(1.46146 0.141543 -9.45069e-22)
(1.44034 0.187143 9.06021e-22)
(1.32077 0.278731 -1.51664e-23)
(1.36689 0.258022 -3.53423e-24)
(1.22388 0.291869 0)
(1.27253 0.289964 0)
(1.13442 0.274249 -1.68026e-25)
(1.1779 0.286278 0)
(1.05794 0.233495 0)
(1.09431 0.256573 0)
(0.995546 0.174584 -9.09627e-25)
(1.02549 0.205936 0)
(0.949534 0.0938712 0)
(0.969239 0.138067 0)
(0.926494 -0.00692286 0)
(0.937406 0.0435436 0)
(0.883428 -0.0888448 -2.09394e-25)
(0.909417 -0.0510404 0)
(0.831735 -0.166264 0)
(0.854602 -0.125144 0)
(0.82958 -0.266316 -2.48099e-27)
(0.822769 -0.213937 2.62673e-27)
(0.888929 -0.361736 9.53891e-25)
(0.852162 -0.317544 1.67163e-27)
(1.00359 -0.39452 -9.20767e-25)
(0.939595 -0.390235 6.07193e-29)
(1.16363 -0.296212 -7.34613e-25)
(1.07945 -0.364965 0)
(1.32096 -0.0679847 -5.26586e-24)
(1.24772 -0.192242 4.51718e-27)
(1.39483 0.153062 -4.82642e-27)
(1.37162 0.0529361 5.11824e-27)
(1.3694 0.261731 0)
(1.39135 0.222321 0)
(1.30077 0.278904 2.51754e-22)
(1.33714 0.277839 -3.72731e-22)
(1.23333 0.259731 0)
(1.26513 0.271796 3.87461e-23)
(1.20614 0.248973 0)
(1.13356 0.260113 0)
(1.14575 0.215348 9.54777e-23)
(1.1413 0.238298 5.13906e-22)
(1.10871 0.295214 -1.01877e-22)
(1.12253 0.27918 -1.92315e-22)
(1.07388 0.316818 -2.13927e-26)
(1.09205 0.308256 0)
(1.03531 0.320953 -4.6432e-26)
(1.05483 0.320959 0)
(0.996929 0.308945 0)
(1.01578 0.31704 0)
(0.966458 0.279085 4.71243e-27)
(0.980201 0.296033 0)
(0.929095 0.245609 0)
(0.951196 0.261191 0)
(0.892714 0.216373 0)
(0.903826 0.231871 -4.34102e-24)
(0.975966 0.174451 0)
(0.913833 0.198444 1.46344e-22)
(1.51879 0.0945031 -5.04502e-21)
(1.46799 0.0921797 0)
(1.04737 -0.16851 5.85617e-23)
(1.06906 -0.137408 5.40018e-23)
(0.936729 0.604609 4.37098e-25)
(0.674859 0.486717 0)
(1.18402 0.20874 0)
(1.04873 0.517221 1.33789e-24)
(0.498692 0.234099 9.21865e-26)
(1.06637 0.150826 8.55898e-22)
(1.00257 0.182386 0)
(1.08372 0.159768 0)
(1.16324 0.416403 4.19619e-24)
(0.358884 -0.055975 1.23811e-24)
(1.27784 0.311563 0)
(0.322421 -0.275248 2.29104e-24)
(1.38536 0.224023 0)
(0.519966 -0.27521 0)
(1.4801 0.148996 0)
(0.788348 -0.18025 5.9984e-22)
(1.52535 0.0837716 3.85996e-22)
(0.92306 -0.197161 7.32549e-23)
(1.46304 0.0445357 0)
(1.50486 0.0325102 2.54883e-21)
(1.01689 -0.207356 -1.31757e-22)
(1.08738 -0.202525 -1.13531e-21)
(1.10056 -0.165319 8.4763e-22)
(0.802035 0.550597 1.06892e-26)
(1.04572 0.120377 3.69938e-22)
(1.06581 0.133893 0)
(1.02807 0.0781383 -9.06639e-23)
(1.0395 0.0998338 -1.7037e-22)
(1.01515 0.0241047 0)
(1.0225 0.0528491 9.01597e-23)
(1.00909 -0.0374029 0)
(1.01134 -0.00554936 2.18332e-23)
(1.0181 -0.0959568 1.11667e-24)
(1.01179 -0.067045 0)
(1.04301 -0.146216 1.84386e-24)
(1.02912 -0.12192 0)
(1.08014 -0.188688 1.13489e-25)
(1.0603 -0.168255 0)
(1.12923 -0.223397 -3.44342e-25)
(1.10323 -0.20703 -3.67135e-28)
(1.19133 -0.24868 -4.42416e-25)
(1.15863 -0.237363 -1.19546e-28)
(1.26767 -0.260197 6.59628e-25)
(1.22772 -0.256579 -7.21341e-28)
(1.3567 -0.248564 1.42446e-27)
(1.31101 -0.258104 -1.41766e-27)
(1.44583 -0.197547 1.70568e-24)
(1.40284 -0.229185 -2.15292e-27)
(1.49997 -0.0904246 -4.76788e-24)
(1.48034 -0.151374 0)
(1.47559 0.0589753 1.30891e-24)
(1.49888 -0.0175598 -1.51436e-27)
(1.38062 0.188294 -1.76658e-24)
(1.43387 0.130428 0)
(1.26393 0.248173 -2.98062e-24)
(1.32203 0.228114 -2.54097e-27)
(1.16364 0.234893 0)
(1.21044 0.249408 0)
(1.09055 0.171938 5.95842e-22)
(1.12352 0.208055 -6.26376e-22)
(1.04581 0.0831113 0)
(1.06367 0.1297 -2.74148e-28)
(1.03715 -0.00754562 1.42179e-22)
(1.03649 0.0366155 -2.45973e-22)
(1.06178 -0.0825478 1.08903e-21)
(1.04625 -0.0475107 -1.08622e-21)
(1.10815 -0.134556 0)
(1.08287 -0.111634 -5.37477e-23)
(1.40346 0.124994 -3.1507e-22)
(1.40958 0.0490033 -1.87744e-23)
(1.41096 0.0862935 5.73507e-22)
(1.35879 0.192908 -5.32779e-22)
(1.38535 0.16131 3.10399e-22)
(1.28795 0.236109 -2.05577e-22)
(1.326 0.218438 7.52494e-22)
(1.20787 0.249454 1.40015e-25)
(1.24837 0.246436 -3.01703e-24)
(1.13176 0.236484 1.68026e-25)
(1.16886 0.245926 0)
(1.06547 0.202039 2.15206e-27)
(1.09721 0.22173 -2.27544e-27)
(1.01215 0.149394 -3.55306e-27)
(1.03727 0.177757 3.75748e-27)
(0.972987 0.0791097 -1.26755e-24)
(0.990316 0.116944 0)
(0.958621 -0.0124834 5.60499e-27)
(0.962666 0.0353685 -5.92989e-27)
(0.953864 -0.104166 3.17464e-24)
(0.957339 -0.0601116 6.56751e-27)
(0.938918 -0.180793 0)
(0.946966 -0.143626 0)
(0.94228 -0.254894 2.79658e-24)
(0.935716 -0.21758 -1.97273e-28)
(0.99861 -0.318096 -4.00258e-27)
(0.962798 -0.289871 4.23874e-27)
(1.11518 -0.324048 4.72634e-25)
(1.04994 -0.332056 0)
(1.27019 -0.216415 -2.46116e-24)
(1.19067 -0.286373 0)
(1.39771 -0.0164685 2.96574e-24)
(1.34285 -0.121221 0)
(1.42775 0.15327 -7.22426e-27)
(1.42609 0.0789386 7.66042e-27)
(1.37565 0.230253 0)
(1.40792 0.202985 0)
(1.29982 0.242796 -1.05777e-22)
(1.3381 0.241948 -2.89831e-22)
(1.23279 0.228276 7.87755e-22)
(1.26417 0.237355 -3.04475e-22)
(1.20614 0.218478 0)
(1.12889 0.201174 1.00694e-22)
(1.13209 0.180737 -2.69052e-22)
(1.11613 0.238792 0)
(1.12397 0.220672 -9.88742e-23)
(1.09484 0.270206 3.09058e-25)
(1.10632 0.255489 0)
(1.06664 0.292129 -8.09382e-26)
(1.0813 0.28266 -5.69069e-28)
(1.03514 0.301683 0)
(1.05109 0.298484 0)
(1.00544 0.296147 0)
(1.01962 0.301153 0)
(0.980919 0.275084 -4.68477e-27)
(0.99301 0.286743 0)
(0.940095 0.257059 0)
(0.964235 0.264701 0)
(0.909101 0.233895 -8.94907e-23)
(0.915817 0.248491 4.19275e-24)
(0.94038 0.21046 -4.85377e-23)
(1.44687 0.00110487 0)
(1.3993 0.0149791 -3.95537e-22)
(1.13569 -0.185519 -4.39706e-22)
(1.13637 -0.150595 1.58233e-21)
(0.887554 0.465336 3.81043e-26)
(0.598164 0.315606 6.47301e-26)
(1.11854 0.127205 -1.39378e-21)
(1.13596 0.135296 6.48335e-22)
(0.989976 0.35481 -1.31041e-23)
(0.417667 0.018514 0)
(1.0981 0.244137 -3.49452e-23)
(0.303685 -0.266708 -2.58069e-24)
(1.20469 0.153671 0)
(0.372895 -0.388011 0)
(1.31578 0.0922069 -4.49298e-22)
(0.659005 -0.2867 1.28634e-23)
(1.42752 0.0473013 0)
(0.852484 -0.24409 3.24823e-22)
(1.49011 0.0078461 3.20668e-21)
(0.975009 -0.257233 0)