/*--------------------------------*- C++ -*----------------------------------*\
  =========                 |
  \\      /  F ield         | OpenFOAM: The Open Source CFD Toolbox
   \\    /   O peration     | Website:  https://openfoam.org
    \\  /    A nd           | Version:  10
     \\/     M anipulation  |
\*---------------------------------------------------------------------------*/
FoamFile
{
    format      ascii;
    class       volVectorField;
    location    "53";
    object      U;
}
// * * * * * * * * * * * * * * * * * * * * * * * * * * * * * * * * * * * * * //

dimensions      [0 1 -1 0 0 0 0];

internalField   nonuniform List<vector> 
28942
(
(0.00444944 -0.00226794 -3.42201e-22)
(0.00602141 -0.00235381 -6.35495e-23)
(0.0179576 -0.0124004 -8.24334e-22)
(0.103305 0.0182379 -5.26396e-21)
(0.102343 0.02228 1.72346e-21)
(0.0161838 0.000518171 0)
(0.0192469 8.98588e-05 1.30109e-23)
(0.0222811 0.000668786 -1.15746e-23)
(0.135259 -0.0182575 -2.5564e-22)
(0.133905 -0.0166211 7.27656e-22)
(0.00984891 0.00403029 -6.74575e-22)
(0.0161489 0.00565706 2.55637e-22)
(0.00717408 0.00316666 0)
(0.00473303 0.00207623 0)
(0.0498787 0.00215633 -1.75103e-23)
(0.0479249 0.00280573 -6.70673e-24)
(0.0893205 0.0158697 6.67971e-22)
(0.0870085 0.0138389 1.07498e-21)
(0.0121729 -0.0151228 2.91468e-21)
(0.0293509 -0.0304881 -7.67086e-22)
(0.0981322 0.0373643 9.52637e-22)
(0.0973087 0.0344019 0)
(0.018802 0.00465314 1.1684e-21)
(0.00789282 0.00237593 5.50935e-22)
(0.0378914 0.00724711 9.45495e-22)
(0.0576533 0.00294478 -8.61947e-22)
(0.00765046 -0.0185061 8.50844e-21)
(0.00669545 -0.0165694 -3.13382e-21)
(0.0355407 -0.0253412 5.71435e-22)
(0.0193165 -0.0136923 1.97247e-22)
(0.0165898 -0.00153656 0)
(0.0207434 -0.00136069 -1.57619e-23)
(0.0262809 0.00466116 3.22654e-22)
(0.0376978 0.00203014 -5.3064e-23)
(0.0188304 0.0180117 1.31464e-21)
(0.0157232 0.0191204 -1.30579e-21)
(0.0321768 0.037616 -3.05352e-21)
(0.0186732 0.0305322 -1.06872e-21)
(0.0089118 2.76771e-05 -1.09107e-23)
(0.00865039 0.0161966 -2.6153e-21)
(0.0306483 -0.00620327 0)
(0.0513413 -0.0109697 0)
(0.112601 -0.0132777 -2.79953e-23)
(0.112128 -0.0133347 8.29248e-23)
(0.116408 -0.013172 7.19273e-23)
(0.0313349 0.000252718 1.34902e-23)
(0.029185 -0.000596238 -2.1842e-23)
(0.0415229 -0.000515432 -9.78092e-23)
(0.0398105 -0.00058259 2.77906e-23)
(0.0324414 -0.0029294 -2.38098e-22)
(0.02424 -0.00355654 1.53966e-22)
(0.128537 0.00154662 -4.02544e-22)
(0.127864 0.00106396 -3.75653e-22)
(0.134584 -0.0210415 -3.78881e-24)
(0.133027 -0.0193137 1.38892e-22)
(0.0827308 0.00644912 7.17924e-22)
(0.101991 -0.000659126 2.50489e-22)
(0.00307447 0.0016282 -5.66141e-22)
(0.0089846 0.00369615 0)
(0.00829335 0.00330415 2.37706e-22)
(0.00289747 0.00149537 4.88528e-22)
(0.000365037 0.000227836 -4.06202e-22)
(0.000194612 0.000123491 -3.90312e-22)
(0.109904 -0.042612 0)
(0.105061 -0.0255986 1.27165e-22)
(0.121931 -0.0330775 -4.37501e-23)
(0.12355 -0.0437429 0)
(0.0901295 -0.0328047 -6.386e-22)
(0.0936356 -0.0352682 -4.19698e-22)
(0.00189484 -0.00113527 1.13136e-21)
(0.00250158 -0.00202613 -3.56502e-22)
(0.00489451 -0.00316976 8.84527e-22)
(0.084911 -0.0457686 0)
(0.091233 -0.0396254 2.16747e-21)
(0.0805849 -0.0530402 5.85508e-22)
(0.114302 0.0123281 2.378e-22)
(0.112922 0.00680783 -2.63751e-22)
(0.125277 0.0108898 -1.12604e-22)
(0.00468934 -0.0028654 -5.34396e-23)
(0.00634663 -0.00443132 4.46399e-22)
(0.0510711 -0.0311752 1.25412e-22)
(0.0331991 -0.0205608 -2.5732e-22)
(0.00211976 -0.000600943 3.20819e-21)
(0.00517325 -0.00208179 -1.25013e-21)
(0.101063 0.0482446 1.33052e-23)
(0.0970929 0.0552121 -7.6482e-22)
(0.0807681 0.0540166 6.97858e-22)
(0.0472319 0.0345215 -2.68166e-21)
(0.044461 0.0316194 1.89913e-21)
(0.0295091 0.0206048 -1.13548e-22)
(0.03273 0.0232576 -6.41457e-22)
(0.0379728 0.0283673 8.6955e-22)
(0.00443316 0.00271867 -5.9037e-23)
(0.00781179 0.00398145 -1.7046e-23)
(0.00320465 0.00201915 3.41582e-23)
(0.00192779 0.00163704 -4.56467e-22)
(0.00145096 0.00155669 5.59655e-22)
(0.0157498 0.0115482 -3.25551e-21)
(0.0175026 0.0136398 7.45684e-22)
(0.00882715 -0.00385945 0)
(0.101389 0.00515991 0)
(0.0984002 0.0156842 -3.96099e-21)
(0.0604389 0.0104757 1.94339e-21)
(0.0886782 0.0178818 0)
(0.135613 -0.00141712 0)
(0.135056 -0.00214425 0)
(0.133393 -0.00262589 -2.53178e-22)
(0.114982 0.0265436 -2.12165e-22)
(0.114075 0.0279501 2.09746e-21)
(0.113275 0.0254115 1.12553e-21)
(0.00230647 0.00130458 1.05573e-21)
(0.00151959 0.000779212 -1.18495e-21)
(0.0191157 -0.00556529 -5.50339e-22)
(0.0202096 -0.00509999 4.69795e-22)
(0.00914175 -0.00294816 9.28316e-22)
(0.00647736 0.0111404 1.47884e-21)
(0.018971 0.0181468 3.45675e-21)
(0.0134675 0.0227916 2.72213e-22)
(0.00492148 0.0143002 -8.62265e-21)
(0.117074 0.0477247 5.54977e-23)
(0.107916 0.0582166 1.06866e-21)
(0.118386 0.0548429 -1.84302e-21)
(0.0391198 -0.0294363 7.30163e-22)
(0.0240266 -0.0172764 -4.66566e-22)
(0.00532305 -0.00075207 -4.10255e-21)
(0.00453992 -0.00360237 0)
(0.012499 -0.00168679 2.00269e-21)
(0.0219792 -0.0161407 7.77383e-22)
(0.0342784 -0.0278014 -1.95237e-21)
(0.0393107 -1.13472e-05 6.85634e-23)
(0.0417603 0.000153285 -4.90467e-23)
(0.0369471 0.000184227 -2.11686e-24)
(0.0280719 -0.0419742 0)
(0.0296205 -0.042866 0)
(0.0896196 -0.0186544 -4.63612e-22)
(0.0995872 -0.0220926 3.14951e-21)
(0.0870331 -0.025279 0)
(0.0471485 -0.0402111 0)
(0.0582138 -0.0514103 -7.81915e-22)
(0.0413233 0.0393392 2.08536e-21)
(-5.45096e-06 0.000210446 5.14973e-22)
(-0.000197874 0.000128207 -3.39249e-22)
(0.0223411 -0.0192527 -7.90075e-22)
(0.120542 -0.0129761 4.05983e-22)
(0.119935 -0.0129729 -7.84259e-23)
(0.115694 -0.00559144 -6.71647e-23)
(0.108649 0.00111458 8.95065e-23)
(0.117908 -0.000147545 1.82914e-22)
(8.10545e-05 0.000258318 1.98788e-22)
(0.0437635 0.0344262 3.20423e-21)
(0.061904 0.0463147 -7.88055e-22)
(0.0593464 0.0393777 -3.01912e-24)
(0.0257749 -0.000939259 6.47416e-24)
(0.0253979 -0.000940897 3.44996e-23)
(0.0275367 -0.000742904 1.53395e-24)
(0.030722 -0.000702597 -1.69571e-23)
(0.0454354 0.0380943 1.33853e-22)
(0.0189678 0.0160621 0)
(0.000144739 -4.09241e-05 3.68801e-22)
(0.000429678 -0.000265267 -4.09159e-22)
(0.00187402 -0.00103143 2.8539e-22)
(0.0366333 -0.00775512 -1.84564e-21)
(0.0649813 -0.00213861 -7.52873e-22)
(0.0356406 -0.000294213 -2.30279e-24)
(0.0746006 -0.00763092 2.72047e-22)
(0.0707959 -0.0157335 6.33953e-23)
(0.0943196 0.0398894 2.14361e-21)
(0.091423 0.0454265 9.9266e-23)
(0.0887576 0.0290632 1.21575e-21)
(0.0914834 0.0307785 -8.81039e-22)
(0.0987133 0.0410469 0)
(0.126033 -0.000507373 1.49819e-22)
(0.126795 -0.000949952 2.83109e-22)
(0.128079 -0.0121749 -2.9544e-22)
(0.129541 -0.0119692 5.05687e-22)
(0.11706 0.0240772 2.60218e-22)
(0.119119 0.0249714 -7.3689e-22)
(0.117108 0.0260918 0)
(0.115141 0.0248351 1.53377e-22)
(0.116682 0.0280174 0)
(0.117194 0.0360425 -5.51549e-22)
(0.115733 0.0380987 -3.01093e-22)
(0.11136 0.0419209 -5.40839e-22)
(0.113754 0.0400485 0)
(0.116449 0.0430215 1.78911e-21)
(0.113726 0.0449496 4.73884e-23)
(0.108355 0.0441362 -3.03795e-22)
(0.099655 0.0502503 -1.28739e-21)
(0.0984398 0.0454623 -2.26822e-22)
(0.0251074 -0.00855788 5.88618e-23)
(0.0330088 -0.00943029 -2.34955e-23)
(0.00631757 -0.00250714 -6.93667e-22)
(0.0350076 -6.98228e-05 -4.45121e-23)
(0.0446665 -0.000295988 0)
(-1.57876e-06 -4.21864e-05 4.33292e-22)
(1.4335e-05 -4.84303e-05 2.20812e-22)
(0.0404674 -0.001979 2.03726e-23)
(0.0476622 -0.00192422 8.14282e-24)
(0.0471661 -0.00131297 0)
(0.039166 -0.000882767 8.97321e-24)
(0.0938621 0.00437093 -1.22361e-22)
(0.0933013 0.00392532 5.7907e-22)
(0.0941994 0.00408361 2.68485e-22)
(0.000673485 0.000270873 3.94444e-22)
(-0.000160294 -0.000130215 -5.71584e-22)
(-0.000202431 -0.000170369 4.87294e-22)
(0.00150853 0.000621702 0)
(8.14746e-05 8.89636e-05 1.14335e-21)
(0.000173921 -3.82218e-05 -8.24582e-22)
(0.00747371 0.00368622 -9.95197e-22)
(0.00145895 0.000785244 -1.18783e-21)
(0.00172781 0.000864374 0)
(0.00157216 0.00753965 0)
(0.000577028 0.0032795 0)
(0.000313324 0.00197559 0)
(0.136759 -0.00145028 5.65264e-23)
(0.137742 -0.00129999 0)
(0.13614 -0.00224863 -6.58975e-23)
(0.08812 -0.0148602 4.42532e-21)
(0.0901265 -0.0152679 -1.60639e-21)
(0.0890411 -0.0128848 0)
(0.109079 0.000228589 -7.05066e-24)
(0.109636 0.000221045 1.4112e-23)
(0.1085 0.000237247 -4.78486e-24)
(0.11017 0.000215657 0)
(0.110683 0.000216183 -8.95521e-24)
(0.111171 0.000211579 0)
(0.111165 -0.000298633 0)
(0.111635 0.000197216 3.30652e-23)
(0.111622 -0.000296745 0)
(0.110683 -0.000310822 -9.01812e-24)
(0.11017 -0.000327727 0)
(0.109636 -0.000345103 4.72135e-24)
(0.109075 -0.000366205 -7.05367e-24)
(0.1085 -0.000385656 4.77888e-24)
(0.112071 0.000181623 -3.16407e-23)
(0.112058 -0.000289645 -1.10474e-24)
(0.107895 0.000249385 6.31237e-28)
(0.10789 -0.000399919 -7.32312e-24)
(0.107259 0.000260456 3.90288e-23)
(0.112483 0.000171896 2.94779e-26)
(0.112481 -0.000275584 -1.10067e-24)
(0.107259 -0.000421473 1.44537e-23)
(0.112879 0.000161558 2.95934e-23)
(0.113255 0.000152971 -2.9569e-23)
(0.112879 -0.000262638 2.22138e-24)
(0.113255 -0.000249088 4.3716e-24)
(0.106622 0.000284226 -3.79731e-23)
(0.106616 -0.000442521 -9.51898e-24)
(0.113611 0.0001434 0)
(0.113612 -0.000236856 -4.31184e-24)
(0.105946 0.000296887 4.70737e-27)
(0.105942 -0.000457208 -4.71917e-27)
(0.113948 0.000135261 0)
(0.113949 -0.000224272 0)
(0.105246 0.000305566 0)
(0.105242 -0.000475409 0)
(0.114266 0.000126105 0)
(0.114267 -0.000213048 2.05855e-24)
(0.104523 0.000314315 -1.98134e-23)
(0.104519 -0.000491949 -4.83241e-27)
(0.114566 0.000118249 1.07796e-25)
(0.114568 -0.000201528 -2.1984e-24)
(0.103776 0.0003209 1.99081e-23)
(0.103773 -0.00050989 0)
(0.114849 0.000109502 0)
(0.114851 -0.000191158 0)
(0.103008 0.00032806 -1.26163e-24)
(0.103004 -0.000524835 2.16607e-23)
(0.115116 0.000101956 1.32646e-23)
(0.115118 -0.000180343 0)
(0.102219 0.000332499 -1.20079e-25)
(0.102215 -0.000539531 -2.05019e-23)
(0.115367 9.35387e-05 -1.9829e-23)
(0.115369 -0.000170707 -5.74976e-24)
(0.101395 0.00032779 2.09203e-23)
(0.101393 -0.000553457 0)
(0.115603 8.65683e-05 6.52345e-24)
(0.115606 -0.000159375 3.83353e-24)
(0.100553 0.000331191 -1.05978e-23)
(0.100552 -0.000570245 2.14895e-23)
(0.115824 8.08282e-05 -2.59912e-23)
(0.115832 -0.000145373 2.92944e-23)
(0.0996629 0.000315557 1.09307e-23)
(0.0996712 -0.000591913 3.46015e-25)
(0.116034 7.59569e-05 0)
(0.116042 -0.000133147 1.3941e-23)
(0.098751 0.000301241 -2.19951e-23)
(0.0987659 -0.000621592 4.39987e-23)
(0.116239 6.8161e-05 0)
(0.11624 -0.000124677 0)
(0.0998147 0.00121789 -1.08158e-23)
(0.0989026 0.0012236 -4.37772e-23)
(0.0977999 0.000279177 0)
(0.0978318 -0.000664387 -2.24174e-23)
(0.101542 0.00119188 -6.78547e-24)
(0.100688 0.00120727 1.33289e-24)
(0.103143 0.00114072 0)
(0.102348 0.00116735 -2.18965e-23)
(0.104648 0.0010798 -4.21446e-26)
(0.103907 0.00111108 0)
(0.10606 0.00101303 0)
(0.105366 0.00104706 0)
(0.107381 0.000935102 0)
(0.106731 0.00097669 0)
(0.108586 0.000858874 9.43882e-24)
(0.107991 0.000896191 2.38613e-24)
(0.10971 0.000792388 -9.08464e-24)
(0.109164 0.000824868 -9.43349e-24)
(0.110738 0.000730671 1.60455e-23)
(0.110232 0.000756356 2.05527e-23)
(0.111686 0.000672005 0)
(0.111222 0.00070412 0)
(0.112536 0.000610461 -6.9919e-26)
(0.112122 0.000641009 0)
(0.1133 0.000549105 0)
(0.112928 0.000579558 0)
(0.113987 0.000490033 0)
(0.113653 0.000519154 0)
(0.1146 0.000434257 0)
(0.114302 0.000461664 0)
(0.115145 0.000382056 0)
(0.11488 0.000407664 0)
(0.115627 0.000333481 0)
(0.115394 0.000357287 0)
(0.116058 0.000281946 -1.06019e-23)
(0.115847 0.000310266 0)
(0.116256 0.000257721 -3.41826e-24)
(0.116428 5.89857e-05 3.334e-24)
(0.116429 -0.00011829 -3.30625e-24)
(0.115852 -0.000359335 0)
(0.116258 -0.000314253 -1.35781e-23)
(0.116061 -0.000335428 -7.00815e-24)
(0.115392 -0.000411373 1.9281e-24)
(0.115629 -0.000385271 -7.53459e-24)
(0.114878 -0.000464565 6.26977e-26)
(0.115142 -0.000438103 0)
(0.114298 -0.000520526 0)
(0.114596 -0.000491901 0)
(0.113647 -0.000581555 0)
(0.113982 -0.000550353 0)
(0.11292 -0.00064795 0)
(0.113293 -0.000614018 8.33778e-30)
(0.11211 -0.000720383 7.08029e-26)
(0.112525 -0.000683278 0)
(0.111218 -0.000792509 0)
(0.111673 -0.000757409 0)
(0.110235 -0.000866209 0)
(0.110736 -0.000828965 0)
(0.109154 -0.000947927 0)
(0.109706 -0.000904181 -4.76679e-24)
(0.10798 -0.0010371 1.26389e-24)
(0.108577 -0.000995979 -6.17231e-24)
(0.106717 -0.00113091 0)
(0.107365 -0.00108128 -5.03583e-24)
(0.105355 -0.001218 0)
(0.106048 -0.00117496 0)
(0.103896 -0.00130158 0)
(0.104637 -0.00126021 0)
(0.102342 -0.00137919 0)
(0.103132 -0.00134125 0)
(0.100691 -0.00145001 -5.55107e-24)
(0.10153 -0.00141365 0)
(0.0989464 -0.00153383 -2.25109e-23)
(0.0998318 -0.00148634 -5.58218e-24)
(0.0980273 -0.00158543 2.29175e-23)
(0.0979628 0.0012303 4.34052e-23)
(0.116444 0.000236126 6.68075e-24)
(0.116443 -0.00029445 -1.3034e-23)
(0.0968596 -0.000719418 0)
(0.097084 -0.00165255 0)
(0.0969969 0.00123687 0)
(0.0968223 0.00024853 0)
(0.100123 0.00210197 0)
(0.0983263 0.00217678 1.08584e-23)
(0.0992368 0.0021379 1.09738e-23)
(0.101821 0.0020158 1.39313e-23)
(0.100984 0.00206167 -2.78498e-24)
(0.103395 0.00191209 4.29919e-26)
(0.102621 0.00196516 0)
(0.104875 0.00180281 0)
(0.104147 0.00185804 0)
(0.106262 0.00168924 0)
(0.10558 0.00174649 0)
(0.107557 0.00157379 0)
(0.10692 0.00163118 0)
(0.108754 0.00145603 0)
(0.108166 0.00151615 0)
(0.109854 0.0013432 -3.80391e-26)
(0.109312 0.00140091 9.82993e-24)
(0.11086 0.00122955 -3.63533e-26)
(0.110372 0.00128414 -1.91166e-23)
(0.111787 0.00111665 0)
(0.111334 0.00117226 0)
(0.112625 0.00101014 3.49162e-26)
(0.112217 0.00106271 0)
(0.113378 0.000908243 0)
(0.113011 0.000958607 0)
(0.114054 0.000811457 0)
(0.113725 0.000859142 0)
(0.114657 0.000720619 0)
(0.114364 0.000765252 0)
(0.115194 0.000636132 0)
(0.114934 0.000677565 0)
(0.115669 0.000557687 0)
(0.115439 0.000596248 0)
(0.116093 0.000479878 7.24295e-24)
(0.115887 0.000519065 0)
(0.116605 5.1608e-05 0)
(0.116618 0.000216115 6.51438e-24)
(0.116472 0.00040923 0)
(0.116287 0.000443475 7.04732e-24)
(0.116289 -0.0005018 1.40395e-23)
(0.116471 -0.000469974 3.44091e-24)
(0.116618 -0.0002777 2.68259e-23)
(0.116605 -0.000111536 0)
(0.115888 -0.000573296 0)
(0.116094 -0.000536312 -2.12001e-23)
(0.115436 -0.000651951 6.07104e-26)
(0.115669 -0.00061119 7.58042e-24)
(0.114929 -0.000734794 -6.26974e-26)
(0.11519 -0.000692666 0)
(0.114358 -0.000824527 0)
(0.114652 -0.000778687 0)
(0.113717 -0.000922202 0)
(0.114046 -0.000872358 0)
(0.113 -0.00102793 0)
(0.113368 -0.000974057 -8.33775e-30)
(0.112204 -0.00114163 -1.41537e-25)
(0.112612 -0.00108382 0)
(0.111326 -0.0012609 0)
(0.111775 -0.00120087 0)
(0.110356 -0.00138578 2.40294e-24)
(0.110853 -0.00132253 0)
(0.109299 -0.00151311 0)
(0.10984 -0.00144683 -2.39291e-24)
(0.108148 -0.00164851 5.04233e-24)
(0.108732 -0.00158173 5.00049e-24)
(0.106902 -0.00178293 0)
(0.107537 -0.00171575 0)
(0.105562 -0.00191675 0)
(0.106243 -0.00185009 0)
(0.104128 -0.00204767 0)
(0.104856 -0.00198267 0)
(0.102601 -0.00217419 0)
(0.103376 -0.00211147 0)
(0.100983 -0.00229583 8.87621e-26)
(0.101804 -0.00223552 0)
(0.0992755 -0.00241238 -9.00616e-26)
(0.100141 -0.00235499 0)
(0.0974723 -0.00255572 -2.3563e-23)
(0.0983837 -0.00248182 2.35522e-23)
(0.0973895 0.0022142 2.20964e-23)
(0.0961217 -0.00173055 0)
(0.0965366 -0.00264241 -4.78918e-23)
(0.0958763 -0.00077988 0)
(0.116643 0.000379825 0)
(0.116643 -0.00044005 -3.33418e-24)
(0.0960122 0.00124518 5.60108e-23)
(0.0964343 0.00225205 2.23937e-23)
(0.0951326 -0.00180879 1.21188e-23)
(0.0955802 -0.00273431 6.05224e-23)
(0.0958198 0.000215366 0)
(0.116513 0.000582548 2.7524e-23)
(0.11668 0.000540532 -1.35863e-23)
(0.11678 -0.000261116 -6.59286e-24)
(0.116804 -0.000411155 3.27639e-23)
(0.0970741 0.00322555 7.84686e-23)
(0.0954446 0.00228981 -4.41062e-23)
(0.0951314 0.00335391 -1.96576e-22)
(0.0961093 0.00328226 -4.47992e-23)
(0.0988818 0.00309566 2.18482e-23)
(0.0979892 0.00316303 -6.67763e-23)
(0.100597 0.00295697 -2.23512e-23)
(0.0997516 0.00302765 -1.68623e-23)
(0.102233 0.00281443 -5.56941e-24)
(0.101427 0.00288838 -5.57204e-24)
(0.103767 0.00266544 -4.29919e-26)
(0.103013 0.00274108 0)
(0.105207 0.00250984 0)
(0.104498 0.00258826 0)
(0.106556 0.00235009 0)
(0.105892 0.00243041 0)
(0.107814 0.002188 0)
(0.107196 0.00226913 0)
(0.108981 0.00202628 0)
(0.108409 0.00210696 0)
(0.110054 0.00186523 0)
(0.109528 0.00194577 0)
(0.111039 0.00170726 5.27282e-29)
(0.110558 0.00178593 0)
(0.111938 0.00155127 0)
(0.111498 0.00162857 0)
(0.112755 0.00140234 3.48496e-26)
(0.112357 0.00147588 0)
(0.11349 0.0012607 0)
(0.113132 0.0013306 0)
(0.114151 0.00112693 0)
(0.11383 0.00119279 0)
(0.114741 0.00100176 0)
(0.114454 0.00106323 0)
(0.115265 0.000885658 0)
(0.115011 0.000942569 0)
(0.115731 0.00077827 0)
(0.115505 0.000830986 0)
(0.116144 0.00067597 3.69053e-24)
(0.115944 0.000726387 -1.85793e-24)
(0.116334 0.000628116 -1.40495e-23)
(0.116768 4.62865e-05 -3.12254e-24)
(0.116804 0.000351486 1.30476e-23)
(0.11678 0.000199086 -9.99119e-24)
(0.116768 -0.0001079 0)
(0.116334 -0.000686564 -1.04348e-23)
(0.11668 -0.000599845 -3.00547e-23)
(0.116512 -0.000642223 2.4241e-23)
(0.115942 -0.000784638 0)
(0.116144 -0.000733798 0)
(0.115501 -0.000887569 -4.26466e-29)
(0.115728 -0.000834028 0)
(0.115004 -0.00100028 0)
(0.11526 -0.000942774 0)
(0.114446 -0.00112303 -6.45963e-26)
(0.114733 -0.00106034 0)
(0.113819 -0.00125644 0)
(0.114141 -0.00118841 0)
(0.113119 -0.00140033 0)
(0.113478 -0.00132711 0)
(0.112342 -0.00155411 7.07447e-26)
(0.112741 -0.00147606 0)
(0.111484 -0.00171606 7.27304e-26)
(0.111924 -0.00163421 0)
(0.11054 -0.00188567 0)
(0.111023 -0.00179994 0)
(0.109508 -0.00206057 0)
(0.110035 -0.00197247 0)
(0.108385 -0.00224015 0)
(0.108957 -0.00215018 0)
(0.107172 -0.00242037 0)
(0.10779 -0.00233001 0)
(0.105867 -0.00260038 -8.29205e-26)
(0.10653 -0.00251062 0)
(0.104471 -0.00277736 0)
(0.10518 -0.00268939 0)
(0.102985 -0.00294937 0)
(0.103739 -0.00286407 0)
(0.101412 -0.00311505 -1.81813e-28)
(0.10221 -0.00303306 0)
(0.0997549 -0.00327312 2.10719e-28)
(0.100594 -0.00319514 0)
(0.098016 -0.00343378 9.29908e-26)
(0.0988935 -0.00335011 0)
(0.0961955 -0.0036208 -4.88753e-23)
(0.0971143 -0.00352308 1.20214e-23)
(0.0946067 -0.00282202 1.22991e-23)
(0.0952718 -0.00372281 2.44397e-23)
(0.0950069 0.00124632 -2.19352e-23)
(0.0948636 -0.000843104 -2.34699e-23)
(0.116837 0.00050117 3.32066e-24)
(0.116838 -0.000561689 2.36146e-23)
(0.0944009 0.00230457 2.72005e-24)
(0.0941247 -0.00189414 0)
(0.0939103 0.00326198 3.01276e-22)
(0.0943359 -0.00382164 3.75092e-23)
(0.0936318 -0.0029109 5.01107e-23)
(0.0949584 0.00457491 -4.98536e-22)
(0.0944188 0.00475702 9.11398e-23)
(0.0948175 0.000186737 0)
(0.0962095 0.00434038 5.02923e-23)
(0.095486 0.00448718 2.57061e-23)
(0.0978968 0.00414491 4.54183e-23)
(0.0970206 0.00423065 -6.92153e-23)
(0.0996044 0.00396557 -2.26185e-23)
(0.0987638 0.00405893 -1.12742e-23)
(0.10123 0.00378053 1.13329e-23)
(0.100427 0.00387304 1.14842e-23)
(0.102783 0.0035889 0)
(0.102014 0.00368474 -2.09029e-26)
(0.104253 0.00339399 0)
(0.103529 0.00349218 0)
(0.105638 0.00319393 4.18628e-26)
(0.104956 0.00329454 0)
(0.106937 0.00298975 0)
(0.106298 0.0030923 0)
(0.10815 0.00278303 0)
(0.107554 0.00288656 0)
(0.109275 0.00257625 0)
(0.108723 0.00267955 0)
(0.110313 0.00237103 3.78633e-26)
(0.109805 0.00247339 0)
(0.111265 0.00216939 5.87485e-29)
(0.1108 0.00226967 0)
(0.112134 0.0019725 0)
(0.11171 0.00207016 0)
(0.112924 0.00178337 -6.96509e-26)
(0.112539 0.00187685 0)
(0.113637 0.00160351 0)
(0.11329 0.00169223 0)
(0.114277 0.00143393 0)
(0.113965 0.00151738 0)
(0.114849 0.0012755 0)
(0.114571 0.00135329 0)
(0.115359 0.00112878 0)
(0.115111 0.00120067 0)
(0.115811 0.00099353 0)
(0.115591 0.00105981 0)
(0.116212 0.000868313 -1.84267e-24)
(0.116017 0.000929125 0)
(0.116568 0.000752697 0)
(0.116395 0.000809115 -3.56779e-24)
(0.116883 0.000647726 -5.35085e-28)
(0.116731 0.000698832 0)
(0.116952 0.00032505 -1.32288e-23)
(0.117027 0.000601725 7.97709e-25)
(0.116985 0.000465364 6.47021e-24)
(0.116919 4.0259e-05 4.75672e-24)
(0.11693 0.000182902 -3.28337e-24)
(0.116931 -0.000245728 -1.65317e-24)
(0.116919 -0.000103173 1.65009e-24)
(0.116985 -0.000527089 0)
(0.116953 -0.000387067 -1.50289e-23)
(0.11673 -0.000759304 -6.75931e-24)
(0.117026 -0.000666267 -1.29148e-23)
(0.116884 -0.000710627 2.96802e-23)
(0.116394 -0.000867877 -3.55581e-24)
(0.116567 -0.000812149 0)
(0.116014 -0.000987993 0)
(0.11621 -0.000926133 0)
(0.115586 -0.00111738 -5.50597e-29)
(0.115806 -0.00105121 0)
(0.115103 -0.00125911 0)
(0.115352 -0.00118668 0)
(0.114561 -0.00141384 6.45963e-26)
(0.11484 -0.00133483 0)
(0.113953 -0.00158181 0)
(0.114265 -0.0014962 0)
(0.113275 -0.00176259 0)
(0.113623 -0.00167066 0)
(0.112522 -0.00195529 0)
(0.112908 -0.00185755 0)
(0.111691 -0.00215835 -1.03212e-28)
(0.112117 -0.00205565 0)
(0.110778 -0.00237047 0)
(0.111245 -0.00226341 0)
(0.10978 -0.00258935 0)
(0.11029 -0.00247915 0)
(0.108696 -0.00281302 0)
(0.109249 -0.00270089 0)
(0.107524 -0.00303827 0)
(0.108121 -0.00292552 0)
(0.106266 -0.00326288 8.29205e-26)
(0.106906 -0.00315086 0)
(0.10492 -0.003484 0)
(0.105604 -0.00337405 0)
(0.10349 -0.00369935 0)
(0.104216 -0.00359253 0)
(0.101977 -0.00390706 -8.85719e-26)
(0.102744 -0.00380426 0)
(0.100385 -0.00410546 9.03025e-26)
(0.101191 -0.00400754 0)
(0.0987171 -0.00429513 -9.19401e-26)
(0.0995598 -0.00420119 0)
(0.0969841 -0.00448606 1.20715e-23)
(0.0978557 -0.00438691 -2.38214e-23)
(0.0952127 -0.0046952 -1.2141e-23)
(0.0960998 -0.00458772 2.46955e-23)
(0.0933822 -0.00391361 3.09215e-25)
(0.0943078 -0.00479745 2.48687e-23)
(0.0939748 0.00122568 -2.24724e-23)
(0.0938454 -0.000890666 0)
(0.0933567 0.00225813 -2.16589e-22)
(0.0931098 -0.00195407 0)
(0.11694 0.000793894 -3.31405e-24)
(0.117079 0.000736669 2.4278e-24)
(0.117122 -0.00049457 -1.26602e-23)
(0.117161 -0.000622146 -1.43424e-23)
(0.092774 0.00316495 -2.11581e-22)
(0.0926409 -0.00299361 -5.06009e-23)
(0.0934653 0.00468586 0)
(0.095945 0.00542919 -5.77224e-23)
(0.0924223 -0.00400276 -2.48168e-23)
(0.0933891 -0.00489216 3.75656e-23)
(0.0951418 0.00543577 1.15942e-22)
(0.0937929 0.000157036 0)
(0.0973013 0.00520407 0)
(0.0965997 0.00532663 -5.14664e-23)
(0.0988699 0.00499084 0)
(0.0980699 0.00509771 0)
(0.100459 0.00477412 0)
(0.0996699 0.00488201 1.16803e-23)
(0.101985 0.00455335 0)
(0.101229 0.00466476 0)
(0.10345 0.00432451 0)
(0.102725 0.00443953 0)
(0.104844 0.00408986 0)
(0.104156 0.00420807 0)
(0.106162 0.00384891 -4.18628e-26)
(0.105513 0.0039701 0)
(0.107401 0.00360301 0)
(0.106791 0.00372649 0)
(0.108558 0.0033541 0)
(0.10799 0.00347879 0)
(0.109634 0.00310476 0)
(0.109107 0.00322934 0)
(0.110627 0.00285743 -7.74866e-29)
(0.110141 0.00298074 0)
(0.11154 0.00261452 6.99533e-29)
(0.111094 0.00273528 0)
(0.112373 0.00237805 0)
(0.111966 0.00249533 0)
(0.113131 0.00215065 5.78865e-29)
(0.112761 0.00226309 0)
(0.113815 0.00193431 0)
(0.113482 0.00204101 0)
(0.114431 0.00173044 0)
(0.114131 0.00183075 0)
(0.114982 0.0015401 0)
(0.114714 0.00163354 0)
(0.115472 0.00136395 0)
(0.115234 0.00145025 0)
(0.115908 0.00120206 0)
(0.115697 0.00128127 0)
(0.116294 0.00105385 0)
(0.116107 0.0011263 0)
(0.116637 0.000917397 3.53339e-24)
(0.116471 0.000983222 3.62197e-24)
(0.116794 0.000853419 -6.7695e-24)
(0.11709 0.000300485 -6.47986e-24)
(0.117161 0.000559422 0)
(0.117121 0.000430768 -6.54572e-24)
(0.117059 3.49435e-05 0)
(0.117069 0.00016863 6.61312e-24)
(0.11707 -0.000232279 9.87217e-24)
(0.117059 -9.91143e-05 -3.33686e-24)
(0.117092 -0.000363773 -1.94086e-23)
(0.116793 -0.000915088 3.40474e-24)
(0.117079 -0.000798905 1.2621e-23)
(0.11694 -0.000857509 0)
(0.116469 -0.00104338 -7.07053e-24)
(0.116636 -0.00097782 7.0939e-24)
(0.116102 -0.00118505 0)
(0.116291 -0.00111295 0)
(0.11569 -0.00133972 -6.72356e-29)
(0.115902 -0.00126056 0)
(0.115225 -0.00150951 0)
(0.115464 -0.0014227 0)
(0.114702 -0.00169496 0)
(0.114971 -0.00160029 0)
(0.114117 -0.00189604 0)
(0.114418 -0.00179359 0)
(0.113465 -0.00211217 0)
(0.1138 -0.00200231 0)
(0.112742 -0.0023422 7.04671e-26)
(0.113113 -0.00222556 0)
(0.111945 -0.00258451 -7.26271e-26)
(0.112353 -0.00246196 0)
(0.111069 -0.00283725 0)
(0.111517 -0.00270974 0)
(0.110113 -0.00309788 0)
(0.110601 -0.00296673 0)
(0.109076 -0.00336373 0)
(0.109604 -0.00323041 0)
(0.107956 -0.00363157 0)
(0.108526 -0.00349758 0)
(0.106754 -0.00389843 0)
(0.107365 -0.00376534 0)
(0.10547 -0.00416121 0)
(0.106122 -0.00403053 0)
(0.104108 -0.00441715 -8.6305e-26)
(0.104799 -0.00429021 0)
(0.102669 -0.00466395 8.80792e-26)
(0.103398 -0.00454183 0)
(0.101157 -0.00489968 -8.97644e-26)
(0.101922 -0.00478333 0)
(0.0995771 -0.0051232 0)
(0.100375 -0.005013 0)
(0.0979357 -0.00533399 0)
(0.0987632 -0.00522998 0)
(0.0962516 -0.00553561 9.53534e-26)
(0.0971007 -0.00543489 1.21319e-23)
(0.0945289 -0.00574034 -6.29384e-23)
(0.0953902 -0.00563676 0)
(0.0924728 -0.00499368 -3.7339e-23)
(0.0936599 -0.00584288 -2.79159e-25)
(0.0929379 0.00119894 7.01793e-23)
(0.0928123 -0.000929924 0)
(0.117209 0.000683521 -1.25946e-23)
(0.117209 -0.000748196 -2.4335e-23)
(0.0922256 0.00218693 -3.7094e-23)
(0.0925047 0.00409047 7.01905e-25)
(0.091707 0.00308652 1.05822e-22)
(0.0920928 -0.00199988 0)
(0.0916351 -0.00305114 1.26405e-23)
(0.0939929 0.00539954 -1.07201e-22)
(0.0929545 0.00528556 9.22248e-23)
(0.091814 0.00424972 -9.09492e-23)
(0.0914479 -0.00407595 -3.7899e-23)
(0.0915385 -0.00508075 2.52285e-23)
(0.0927931 -0.0059546 2.47677e-23)
(0.0927518 0.000127039 0)
(0.0970325 0.00619454 3.22301e-24)
(0.0952066 0.00627823 1.94266e-25)
(0.0961631 0.00622541 2.50676e-23)
(0.0984632 0.0059967 2.48763e-23)
(0.0977584 0.00610517 -2.50054e-23)
(0.0999422 0.00576379 4.59548e-26)
(0.0991896 0.00588143 0)
(0.101418 0.00552554 0)
(0.100686 0.00564528 0)
(0.102847 0.00527716 0)
(0.102139 0.00540292 0)
(0.10422 0.00501721 0)
(0.10354 0.00514843 0)
(0.10553 0.0047476 4.25548e-26)
(0.104883 0.0048836 0)
(0.106771 0.00446951 0)
(0.106159 0.0046095 0)
(0.10794 0.00418509 0)
(0.107364 0.00432796 0)
(0.109034 0.00389689 0)
(0.108496 0.0040413 0)
(0.110052 0.00360785 0)
(0.109552 0.0037523 0)
(0.110994 0.003321 -3.77858e-26)
(0.110532 0.00346399 0)
(0.11186 0.00303926 8.12241e-29)
(0.111436 0.00317933 0)
(0.112651 0.00276526 0)
(0.112265 0.00290114 0)
(0.113372 0.00250171 6.94198e-26)
(0.11302 0.00263204 0)
(0.114024 0.00225087 0)
(0.113706 0.0023746 0)
(0.114611 0.0020145 0)
(0.114325 0.0021308 0)
(0.115136 0.00179384 0)
(0.114881 0.00190216 0)
(0.115605 0.00158969 0)
(0.115378 0.00168969 0)
(0.116022 0.00140228 0)
(0.11582 0.00149392 0)
(0.116392 0.00123123 5.76765e-26)
(0.116212 0.00131476 0)
(0.116719 0.00107507 -3.54883e-24)
(0.11656 0.00115157 0)
(0.117009 0.000931767 3.36936e-24)
(0.116869 0.00100158 0)
(0.117267 0.000803209 3.20396e-24)
(0.117141 0.00086601 -3.2818e-24)
(0.117285 0.000518603 6.33275e-24)
(0.117384 0.000744865 0)
(0.117331 0.000634446 9.42839e-24)
(0.117217 0.000278234 0)
(0.117247 0.000399292 0)
(0.117188 3.00082e-05 0)
(0.117198 0.000154748 0)
(0.117199 -0.000219583 0)
(0.117188 -9.51739e-05 0)
(0.117248 -0.000464523 1.29028e-23)
(0.117219 -0.000343023 3.20407e-24)
(0.11733 -0.000700722 3.16791e-24)
(0.117285 -0.000583558 2.52664e-23)
(0.117142 -0.000931027 1.64906e-23)
(0.117383 -0.000814933 3.1505e-24)
(0.117266 -0.00087072 -6.41078e-24)
(0.116868 -0.00106444 3.3914e-24)
(0.117009 -0.000995806 -2.03324e-23)
(0.116557 -0.00121222 -5.95036e-29)
(0.116717 -0.00113624 0)
(0.116207 -0.00137436 0)
(0.116387 -0.00129124 0)
(0.115812 -0.00155327 -7.92885e-29)
(0.116016 -0.00146166 0)
(0.115368 -0.00174987 0)
(0.115597 -0.00164934 0)
(0.114868 -0.00196452 0)
(0.115125 -0.00185496 0)
(0.11431 -0.00219705 0)
(0.114597 -0.00207861 0)
(0.113689 -0.00244668 0)
(0.114007 -0.00231982 0)
(0.113 -0.00271211 -1.40802e-25)
(0.113353 -0.00257755 0)
(0.112241 -0.00299147 0)
(0.11263 -0.0028502 0)
(0.111409 -0.00328251 0)
(0.111835 -0.00313572 0)
(0.110503 -0.00358238 0)
(0.110965 -0.00343155 0)
(0.109519 -0.0038879 0)
(0.110021 -0.00373468 0)
(0.10846 -0.00419554 -8.03717e-26)
(0.108999 -0.00404168 0)
(0.107324 -0.00450182 0)
(0.107901 -0.00434909 0)
(0.106113 -0.00480324 0)
(0.106727 -0.00465336 0)
(0.104829 -0.0050966 8.6305e-26)
(0.10548 -0.00495113 0)
(0.103476 -0.0053791 -3.07075e-28)
(0.104161 -0.00523938 0)
(0.102057 -0.00564839 1.79197e-25)
(0.102774 -0.00551555 0)
(0.100577 -0.00590255 0)
(0.101324 -0.00577749 0)
(0.099043 -0.00613983 0)
(0.0998163 -0.00602327 0)
(0.0974617 -0.00635735 -4.15052e-28)
(0.0982584 -0.00625166 0)
(0.0958405 -0.00655819 0)
(0.0966547 -0.00645935 0)
(0.0942103 -0.00676524 -3.72891e-23)
(0.0950252 -0.00666005 0)
(0.0919127 -0.00605408 -2.4719e-25)
(0.0933944 -0.00687482 6.31276e-23)
(0.0918503 0.00115522 0)
(0.0942629 0.0062726 1.45328e-22)
(0.0911363 0.00211563 2.53603e-23)
(0.117332 0.000920208 -3.19793e-24)
(0.117444 0.000855739 0)
(0.117443 -0.000656965 3.08199e-24)
(0.117492 -0.000761477 -6.11315e-24)
(0.0917711 -0.000963683 0)
(0.0910616 -0.00203573 0)
(0.0907796 0.00317278 0)
(0.0906197 -0.00309705 -1.24498e-23)
(0.0904619 -0.00414768 -2.4965e-23)
(0.0905947 -0.00516981 0)
(0.0910203 -0.00614969 6.39619e-23)
(0.0925643 -0.00697658 -5.09159e-23)
(0.0916908 9.54602e-05 0)
(0.0966627 0.00708989 -1.20356e-26)
(0.0932532 0.00623045 4.55389e-23)
(0.0949237 0.00718015 -1.62197e-22)
(0.0957971 0.00715168 4.75582e-23)
(0.0982944 0.00693125 -1.55372e-23)
(0.0974875 0.00699646 -2.4854e-23)
(0.0997141 0.00673217 0)
(0.0990222 0.00684252 0)
(0.101106 0.00648363 -4.59507e-26)
(0.100404 0.00660913 0)
(0.102478 0.00622543 0)
(0.101797 0.00635613 0)
(0.103804 0.00595218 0)
(0.103147 0.00609078 0)
(0.10508 0.00566407 0)
(0.104449 0.00580985 0)
(0.106298 0.00536311 -4.25548e-26)
(0.105696 0.0055151 0)
(0.107455 0.00505146 0)
(0.106884 0.00520847 0)
(0.108546 0.00473191 0)
(0.108009 0.00489249 0)
(0.109569 0.0044076 0)
(0.109066 0.00457015 0)
(0.110523 0.00408198 0)
(0.110055 0.00424475 0)
(0.111407 0.00375856 3.75957e-26)
(0.110974 0.00391979 0)
(0.112221 0.00344073 9.1705e-29)
(0.111822 0.00359875 0)
(0.112966 0.00313166 0)
(0.112602 0.00328492 0)
(0.113645 0.00283429 -7.5815e-29)
(0.113314 0.00298135 0)
(0.11426 0.00255117 0)
(0.11396 0.00269083 0)