/*--------------------------------*- C++ -*----------------------------------*\
  =========                 |
  \\      /  F ield         | OpenFOAM: The Open Source CFD Toolbox
   \\    /   O peration     | Website:  https://openfoam.org
    \\  /    A nd           | Version:  10
     \\/     M anipulation  |
\*---------------------------------------------------------------------------*/
FoamFile
{
    format      ascii;
    class       volScalarField;
    location    "12.5";
    object      p;
}
// * * * * * * * * * * * * * * * * * * * * * * * * * * * * * * * * * * * * * //

dimensions      [0 2 -2 0 0 0 0];

internalField   nonuniform List<scalar> 
28942
(
-0.00290875
-0.00209647
0.00322475
0.0111303
0.0114293
0.00023811
0.000627681
8.95801e-05
0.00437019
0.00444705
-0.00103277
-0.00127509
-0.00174723
-0.00167661
0.000395401
0.000814899
0.0112721
0.0115409
0.00694206
0.00848319
0.00951989
0.00952159
-0.00447866
-0.00416796
-0.00282948
-0.00299596
0.0152808
0.0152288
0.00480326
0.00476961
5.70976e-05
0.000105295
0.00156163
0.00068347
0.00842222
0.00964117
0.0122105
0.0141972
7.44852e-05
0.0164158
0.0107105
0.0132077
0.00369222
0.00365158
0.00368815
0.000560581
0.000400693
0.000448748
0.000515976
0.000787947
0.00139294
0.00465351
0.0047119
0.00446193
0.00463126
-0.00134822
-0.000114357
-0.00224109
-0.00209508
-0.00244742
-0.00247553
-0.00239993
-0.00229572
0.000941173
-0.000918349
0.000795626
0.00220958
0.0108251
0.010329
-0.00230742
-0.00260824
-0.00234265
0.0103638
0.0102285
0.0105046
-0.00049803
-5.72017e-05
0.000419254
0.00360489
0.00401271
0.00303007
0.00187449
-0.00569287
-0.00704144
0.00216892
0.00495633
0.00603215
0.00683768
0.00517941
0.00534459
0.00735123
0.00669792
0.000539769
6.22074e-05
-0.000431666
-0.000184679
0.0001832
0.00657709
0.00789498
-0.00734985
0.0129269
0.0121276
0.00742422
0.011017
0.00293363
0.00298021
0.0027888
0.00692181
0.00710808
0.00710408
-0.00205257
-0.00197189
-0.00219849
-0.00158134
-0.00154239
0.0172287
0.0152209
0.0146412
0.0162849
0.00277386
0.00597036
0.00463284
0.00637581
0.00606349
0.0169148
0.0172039
0.0158427
0.00724477
0.0083269
0.000417257
0.000550408
0.000286197
0.011875
0.0123862
0.00928876
0.00893828
0.014397
0.00801453
0.00932866
0.0103471
-0.000297196
-0.000900692
0.00870788
0.00368275
0.00369283
-4.04865e-05
-0.000125822
0.000377042
-0.00107489
0.00783803
0.00695263
0.00483308
0.000465377
0.000383402
0.000216968
0.00039702
0.00879983
0.00806973
-0.000352557
-0.000465118
-0.000283855
-0.0035264
-0.00293988
0.000195144
-0.00198196
0.000425269
0.00975375
0.00984955
0.0109786
0.0105109
0.00906754
0.00488001
0.00481481
0.00492601
0.00483254
0.00651989
0.00629757
0.00661621
0.00683635
0.00675803
0.00678123
0.00697941
0.00751367
0.0072173
0.00679969
0.00712155
0.00783208
0.00856159
0.00887002
0.00162169
0.00159731
-0.00122805
0.000434075
0.000236016
-0.000646957
-0.00063834
0.000606258
0.00061755
0.000569251
0.000518177
0.00297428
0.00296877
0.00295174
-0.00171307
-0.00190368
-0.00137036
-0.00338748
-0.00394869
-0.0030869
-0.00385791
-0.00571277
-0.00427611
0.017422
0.0181384
0.0179024
0.00309324
0.00321273
0.00310276
0.011754
0.0113294
0.0114084
0.00239485
0.00236819
0.00242133
0.00234146
0.00231474
0.00228808
0.00228895
0.00226144
0.0022628
0.00231526
0.00234198
0.00236865
0.00239547
0.00242182
0.00223508
0.00223646
0.00244792
0.00244856
0.0024749
0.00220882
0.00220977
0.00247543
0.00218229
0.00215578
0.00218325
0.00215673
0.00250104
0.00250185
0.00212932
0.00213015
0.00252743
0.00252851
0.00210287
0.00210359
0.00255398
0.0025552
0.0020764
0.00207703
0.00258061
0.00258186
0.00204996
0.00205048
0.00260728
0.00260854
0.00202344
0.00202393
0.00263413
0.00263502
0.00199694
0.00199738
0.00266074
0.00266157
0.00197038
0.00197077
0.0026878
0.00268842
0.00194376
0.00194395
0.00271464
0.0027152
0.00191727
0.00191671
0.00274213
0.00274241
0.00189016
0.00188953
0.00276959
0.00276977
0.00186198
0.00186204
0.00274159
0.00276912
0.00279739
0.00279727
0.00268714
0.00271446
0.00263348
0.00266053
0.00258017
0.00260679
0.00252691
0.00255355
0.00247341
0.00250024
0.00242086
0.00244739
0.00236778
0.00239406
0.00231469
0.00234135
0.00226125
0.00228806
0.00220823
0.00223475
0.00215519
0.00218172
0.00210218
0.00212871
0.00204917
0.00207571
0.00199625
0.00202274
0.00194335
0.00196982
0.00188953
0.00191679
0.00186204
0.0018341
0.00183418
0.00191707
0.00186254
0.00188996
0.00197097
0.00194415
0.0020241
0.00199759
0.00207713
0.00205062
0.00213017
0.00210365
0.00218323
0.00215671
0.00223635
0.00220977
0.00228941
0.00226306
0.00234232
0.00231598
0.00239556
0.00236889
0.00244886
0.00242232
0.00250205
0.00247521
0.00255536
0.00252871
0.00260871
0.00258203
0.00266211
0.00263538
0.00271567
0.00268879
0.00276945
0.00274244
0.00279687
0.00279677
0.00183423
0.00183471
0.00282518
0.00282446
0.00282438
0.00282517
0.00274116
0.00279566
0.00276836
0.00268681
0.002714
0.0026333
0.00266002
0.00258005
0.00260667
0.00252681
0.00255343
0.00247359
0.0025002
0.00242038
0.00244708
0.00236735
0.00239405
0.00231448
0.00234067
0.00226115
0.00228783
0.00220814
0.00223465
0.00215514
0.00218164
0.00210216
0.00212865
0.00204919
0.00207567
0.00199625
0.00202272
0.00194331
0.00196978
0.00188964
0.00191665
0.0018061
0.00180644
0.00183487
0.00186248
0.00186347
0.00183624
0.00180728
0.0018063
0.00191768
0.00189077
0.00197111
0.00194435
0.00202414
0.00199764
0.00207715
0.00205065
0.00213018
0.00210367
0.00218323
0.00215671
0.00223631
0.00220977
0.00228943
0.0022629
0.00234262
0.00231601
0.0023956
0.00236908
0.00244884
0.00242239
0.00250211
0.00247546
0.00255538
0.00252874
0.00260871
0.00258204
0.00266207
0.00263539
0.00271548
0.00268876
0.00276905
0.00274222
0.00282341
0.0027962
0.00282302
0.0028521
0.002851
0.00285276
0.00180751
0.00180832
0.00285184
0.00285025
0.00287978
0.00287867
0.00285297
0.00183579
0.00180857
0.00177959
0.00178049
0.00284854
0.00287778
0.00290354
0.00287648
0.0027945
0.00282153
0.00274054
0.00276748
0.00268666
0.00271355
0.00263322
0.00265986
0.00257997
0.00260659
0.00252674
0.00255335
0.00247355
0.00250014
0.00242037
0.00244696
0.00236724
0.00239383
0.0023142
0.00234068
0.00226109
0.00228764
0.00220809
0.00223459
0.00215509
0.00218159
0.00210211
0.0021286
0.00204915
0.00207563
0.0019962
0.00202268
0.00194325
0.00196972
0.00188989
0.00191661
0.00186293
0.00177865
0.00177978
0.00177901
0.00177888
0.00186421
0.0018095
0.00183702
0.00191809
0.00189123
0.00197116
0.00194456
0.00202416
0.00199766
0.00207718
0.00205067
0.00213021
0.0021037
0.00218327
0.00215674
0.00223634
0.0022098
0.00228943
0.00226288
0.00234257
0.00231599
0.0023957
0.00236913
0.00244889
0.00242231
0.00250211
0.0024755
0.00255538
0.00252874
0.00260869
0.00258203
0.00266203
0.00263536
0.00271541
0.00268872
0.00276886
0.00274212
0.00282259
0.00279568
0.00287737
0.00284985
0.00290623
0.00290476
0.00287922
0.0028805
0.00178102
0.00178184
0.00290568
0.00290742
0.00293524
0.00293218
0.00293358
0.00294223
0.00297283
0.00288017
0.00289956
0.00292227
0.0028475
0.00287441
0.0027936
0.00282052
0.0027399
0.00276668
0.00268639
0.00271318
0.0026331
0.00265973
0.00257985
0.00260647
0.00252662
0.00255323
0.00247343
0.00250003
0.00242029
0.00244686
0.00236717
0.00239372
0.00231408
0.00234062
0.00226102
0.00228754
0.002208
0.00223451
0.00215501
0.00218151
0.00210203
0.00212852
0.00204907
0.00207555
0.00199612
0.00202259
0.00194317
0.00196965
0.00189006
0.0019166
0.00183651
0.00186338
0.00178204
0.00180933
0.0017524
0.00175438
0.00175329
0.0017515
0.00175171
0.0017521
0.00175161
0.00175427
0.00175304
0.00181054
0.00175608
0.00178325
0.00186475
0.00183775
0.00191819
0.00189153
0.00197119
0.00194468
0.00202419
0.00199769
0.00207721
0.0020507
0.00213024
0.00210372
0.00218328
0.00215676
0.00223635
0.00220982
0.00228944
0.0022629
0.00234256
0.00231599
0.0023957
0.00236913
0.00244888
0.00242229
0.0025021
0.00247549
0.00255536
0.00252873
0.00260867
0.00258201
0.00266201
0.00263533
0.00271539
0.00268869
0.0027688
0.00274209
0.00282229
0.00279553
0.00287615
0.00284912
0.00293071
0.0029034
0.00295966
0.00295811
0.00290658
0.00290771
0.00293286
0.0029346
0.00178287
0.00175553
0.0017268
0.00172792
0.00296321
0.00296094
0.00298983
0.00294782
0.00298705
0.00298563
0.00297558
0.00290724
0.00289904
0.00292376
0.00284688
0.00287342
0.00279301
0.00281996
0.00273959
0.00276628
0.00268624
0.00271292
0.00263296
0.0026596
0.00257971
0.00260634
0.00252649
0.0025531
0.00247331
0.0024999
0.00242017
0.00244674
0.00236706
0.00239361
0.00231398
0.00234051
0.00226093
0.00228745
0.00220791
0.00223441
0.00215492
0.00218141
0.00210194
0.00212843
0.00204898
0.00207546
0.00199604
0.00202251
0.0019431
0.00196957
0.00189014
0.00191661
0.00183692
0.00186351
0.00180992
0.00172518
0.0017268
0.00172581
0.00172459
0.00172494
0.00172511
0.00172483
0.00172572
0.00181138
0.00175686
0.00178443
0.00186504
0.00183831
0.00191823
0.0018917
0.00197122
0.00194472
0.00202422
0.00199772
0.00207723
0.00205072
0.00213025
0.00210374
0.00218329
0.00215677
0.00223635
0.00220982
0.00228944
0.0022629
0.00234255
0.00231599
0.00239569
0.00236912
0.00244887
0.00242228
0.00250208
0.00247547
0.00255533
0.0025287
0.00260863
0.00258198
0.00266196
0.00263529
0.00271534
0.00268865
0.00276875
0.00274204
0.00282219
0.00279547
0.00287573
0.00284895
0.00292956
0.00290247
0.00298419
0.00295685
0.00301326
0.00301175
0.00293344
0.00293467
0.00172774
0.0017293
0.00296115
0.00298907
0.00299025
0.00296146
0.00298801
0.00300089
0.00302523
0.00301846
0.0030144
0.0030407
0.00303955
0.0029342
0.00295153
0.00300601
0.00297946
0.0028993
0.00292508
0.00284644
0.00287325
0.00279284
0.00281961
0.00273945
0.00276614
0.00268611
0.00271277
0.00263282
0.00265946
0.00257957
0.00260619
0.00252635
0.00255296
0.00247318
0.00249976
0.00242004
0.00244661
0.00236694
0.00239349
0.00231386
0.0023404
0.00226082
0.00228734
0.00220781
0.00223431
0.00215482
0.00218131
0.00210185
0.00212833
0.00204889
0.00207537
0.00199595
0.00202242
0.00194302
0.00196949
0.00189009
0.00191655
0.00183703
0.0018636
0.00178336
0.0018103
0.00172853
0.00175625
0.00169933
0.00170073
0.00169984
0.00169846
0.00169877
0.00169823
0.00169822
0.00169842
0.00169831
0.00169953
0.00169887
0.00170189
0.00170055
0.0017578
0.00170322
0.00173058
0.00181191
0.00178505
0.00186525
0.00183863
0.00191825
0.00189176
0.00197124
0.00194475
0.00202424
0.00199774
0.00207724
0.00205074
0.00213026
0.00210375
0.00218329
0.00215677
0.00223635
0.00220982
0.00228943
0.00226289
0.00234253
0.00231598
0.00239567
0.0023691
0.00244884
0.00242225
0.00250204
0.00247544
0.00255529
0.00252866
0.00260858
0.00258193
0.0026619
0.00263523
0.00271527
0.00268858
0.00276868
0.00274197
0.00282213
0.0027954
0.00287562
0.00284887
0.00292917
0.00290236
0.00298293
0.00295605
0.00303766
0.00301014
0.00306702
0.00306535
0.00296082
0.00303052
0.00298882
0.00172948
0.00170216
0.00167438
0.00167547
0.00296147
0.00298827
0.00301667
0.00301504
0.00304177
0.0030683
0.00309441
0.00309284
0.00296114
0.00300692
0.00305629
0.00305859
0.00303279
0.0029527
0.00298029
0.00289938
0.00292574
0.00284621
0.00287303
0.00279268
0.00281942
0.00273928
0.00276598
0.00268594
0.0027126
0.00263265
0.00265929
0.00257941
0.00260602
0.0025262
0.0025528
0.00247303
0.00249961
0.0024199
0.00244646
0.00236681
0.00239335
0.00231374
0.00234027
0.0022607
0.00228722
0.0022077
0.0022342
0.00215471
0.0021812
0.00210175
0.00212823
0.0020488
0.00207527
0.00199587
0.00202233
0.00194294
0.0019694
0.00189001
0.00191647
0.00183708
0.00186356
0.00178373
0.00181045
0.00175669
0.00167217
0.00167332
0.00167262
0.00167183
0.00167202
0.0016719
0.00167182
0.00167202
0.00167196
0.0016726
0.00167228
0.00167335
0.00175872
0.00170429
0.00173159
0.00181217
0.00178552
0.00186531
0.0018388
0.00191828
0.00189179
0.00197126
0.00194477
0.00202425
0.00199776
0.00207725
0.00205075
0.00213026
0.00210375
0.00218328
0.00215677
0.00223633
0.00220981
0.0022894
0.00226287
0.0023425
0.00231595
0.00239563
0.00236906
0.00244879
0.00242221
0.00250199
0.00247539
0.00255523
0.00252861
0.00260851
0.00258186
0.00266182
0.00263516
0.00271518
0.0026885
0.00276858
0.00274188
0.00282202
0.0027953
0.00287552
0.00284877
0.00292904
0.00290228
0.00298259
0.00295581
0.00303653
0.00300943
0.0030912
0.00306378
0.00304615
0.00305152
0.00312037
0.00311861
0.00298806
0.00167492
0.00167659
0.00308409
0.00298826
0.00308324
0.00301563
0.00301512
0.00304238
0.00304197
0.00306874
0.0030953
0.00312162
0.00314774
0.00314615
0.00298811
0.00305943
0.00311012
0.00311184
0.0030856
0.00300659
0.00303324
0.00295291
0.00297975
0.00289924
0.00292594
0.00284595
0.00287271
0.00279247
0.00281919
0.00273908
0.00276577
0.00268575
0.00271241
0.00263247
0.0026591
0.00257923
0.00260584
0.00252603
0.00255263
0.00247288
0.00249945
0.00241975
0.00244631
0.00236666
0.0023932
0.00231361
0.00234013
0.00226058
0.00228709
0.00220758
0.00223407
0.0021546
0.00218109
0.00210164
0.00212812
0.0020487
0.00207517
0.00199577
0.00202224
0.00194285
0.00196931
0.00188994
0.00191639
0.00183703
0.00186348
0.00178395
0.00181055
0.00173029
0.00175715
0.00167583
0.00170334
0.0016464
0.00164817
0.00164713
0.00164557
0.00164582
0.00164543
0.00164543
0.00164555
0.00164549
0.00164565
0.00164561
0.001646
0.00164573
0.00164698
0.00164637
0.00164908
0.00164778
0.00170517
0.00165037
0.00167789
0.00175918
0.00173228
0.00181236
0.00178586
0.00186534
0.00183886
0.00191831
0.00189182
0.00197128
0.00194479
0.00202426
0.00199777
0.00207725
0.00205075
0.00213025
0.00210375
0.00218327
0.00215676
0.00223631
0.00220979
0.00228937
0.00226284
0.00234246
0.00231591
0.00239558
0.00236902
0.00244874
0.00242216
0.00250193
0.00247533
0.00255515
0.00252854
0.00260842
0.00258178
0.00266173
0.00263507
0.00271507
0.0026884
0.00276846
0.00274176
0.00282189
0.00279517
0.00287537
0.00284862
0.00292888
0.00290212
0.00298242
0.00295565
0.003036
0.00300921
0.00308983
0.00306282
0.00314421
0.00311699
0.00307406
0.00308025
0.00317359
0.00317173
0.00301514
0.00301509
0.0031377
0.00313626
0.00310946
0.00304178
0.00304198
0.00167668
0.00164953
0.00162167
0.00162288
0.00306912
0.00306882
0.00309558
0.00312225
0.00314875
0.00317492
0.00316339
0.00316482
0.00319053
0.00320103
0.00319967
0.0031896
0.00301502
0.00311337
0.00313934
0.00305924
0.003086
0.00300615
0.00303297
0.00295248
0.0029792
0.00289905
0.00292576
0.00284565
0.00287237
0.00279222
0.00281892
0.00273885
0.00276553
0.00268553
0.00271219
0.00263227
0.0026589
0.00257904
0.00260565
0.00252585
0.00255244
0.0024727
0.00249927
0.00241959
0.00244614
0.00236651
0.00239305
0.00231346
0.00233998
0.00226044
0.00228695
0.00220745
0.00223394
0.00215448
0.00218096
0.00210153
0.002128
0.0020486
0.00207506
0.00199568
0.00202214
0.00194277
0.00196922
0.00188986
0.00191631
0.00183696
0.00186341
0.00178405
0.00181051
0.00173075
0.00175744
0.00170386
0.00161933
0.00162078
0.00161986
0.00161903
0.00161918
0.00161908
0.00161903
0.00161919
0.00161913
0.0016193
0.00161925
0.00161946
0.00161935
0.00162017
0.00161976
0.00162079
0.00170592
0.00165162
0.00167886
0.00175943
0.00173269
0.00181242
0.00178595
0.00186537
0.00183889
0.00191833
0.00189185
0.00197129
0.00194481
0.00202426
0.00199778
0.00207724
0.00205075
0.00213023
0.00210373
0.00218324
0.00215674
0.00223627
0.00220976
0.00228933
0.0022628
0.00234241
0.00231587
0.00239552
0.00236896
0.00244867
0.00242209
0.00250185
0.00247525
0.00255506
0.00252845
0.00260832
0.00258169
0.00266161
0.00263496
0.00271495
0.00268828
0.00276832
0.00274163
0.00282173
0.00279502
0.00287519
0.00284846
0.00292868
0.00290193
0.0029822
0.00295544
0.00303571
0.00300896
0.00308925
0.00306248
0.00314284
0.00311605
0.0031971
0.00316967
0.00316242
0.00322683
0.00322859
0.00325426
0.0032527
0.00322456
0.00310072
0.00310982
0.003042
0.00304195
0.00162218
0.00162393
0.0031368
0.00306842
0.00306885
0.00309619
0.00309569
0.00312247
0.00314915
0.00317572
0.00320214
0.00321627
0.00321719
0.00324307
0.00325014
0.00327784
0.00328056
0.00324217
0.00321549
0.00318906
0.00325538
0.00328158
0.00304193
0.00316585
0.00319128
0.00311284
0.00313908
0.00305892
0.00308593
0.00300553
0.00303224
0.00295211
0.00297881
0.00289872
0.00292542
0.00284533
0.00287203
0.00279195
0.00281864
0.0027386
0.00276527
0.00268531
0.00271195
0.00263205
0.00265867
0.00257883
0.00260544
0.00252566
0.00255224
0.00247252
0.00249909
0.00241942
0.00244596
0.00236635
0.00239288
0.00231331
0.00233982
0.0022603
0.0022868
0.00220731
0.0022338
0.00215435
0.00218083
0.00210141
0.00212788
0.00204849
0.00207495
0.00199558
0.00202203
0.00194268
0.00196913
0.00188978
0.00191623
0.00183689
0.00186333
0.001784
0.00181044
0.00173096
0.00175753
0.0016775
0.00170428
0.00162318
0.0016504
0.00159377
0.00159574
0.00159467
0.00159274
0.00159301
0.00159262
0.00159261
0.00159272
0.00159267
0.00159282
0.00159277
0.00159294
0.00159288
0.00159307
0.001593
0.00159346
0.00159327
0.0015945
0.00159386
0.00159629
0.00159533
0.00165229
0.00159746
0.00162506
0.00170637
0.00167947
0.00175951
0.00173301
0.00181245
0.00178598
0.0018654
0.00183893
0.00191835
0.00189188
0.0019713
0.00194483
0.00202426
0.00199778
0.00207723
0.00205074
0.00213021
0.00210372
0.00218321
0.00215671
0.00223623
0.00220972
0.00228927
0.00226275
0.00234235
0.00231581
0.00239545
0.00236889
0.00244858
0.00242201
0.00250175
0.00247516
0.00255496
0.00252835
0.0026082
0.00258158
0.00266148
0.00263484
0.0027148
0.00268814
0.00276816
0.00274148
0.00282156
0.00279486
0.00287499
0.00284827
0.00292845
0.00290172
0.00298194
0.00295519
0.00303543
0.00300869
0.00308892
0.00306218
0.00314235
0.00311564
0.00319579
0.0031691
0.00322238
0.00312656
0.00313661
0.00330768
0.00330526
0.00306878
0.00306885
0.00316307
0.0030952
0.00309573
0.00162389
0.00159667
0.00156878
0.00156974
0.00312317
0.00312257
0.00314935
0.00317605
0.00320267
0.00322914
0.00326872
0.00326976
0.00329557
0.00329446
0.00326866
0.0032416
0.00321557
0.0032823
0.00330824
0.00333246
0.00333459
0.00306884
0.00321833
0.00324382
0.00316551
0.00319197
0.00311181
0.00313869
0.00305845
0.00308515
0.0030051
0.00303177
0.00295174
0.00297843
0.00289837
0.00292505
0.00284501
0.00287169
0.00279166
0.00281833
0.00273834
0.002765
0.00268506
0.0027117
0.00263182
0.00265843
0.00257862
0.00260521
0.00252545
0.00255203
0.00247232
0.00249888
0.00241923
0.00244577
0.00236617
0.0023927
0.00231314
0.00233965
0.00226014
0.00228664
0.00220717
0.00223365
0.00215422
0.00218069
0.00210129
0.00212775
0.00204838
0.00207483
0.00199547
0.00202192
0.00194258
0.00196903
0.0018897
0.00191614
0.00183682
0.00186326
0.00178393
0.00181038
0.00173104
0.0017575
0.00167789
0.00170444
0.00165105
0.00156675
0.00156826
0.00156745
0.00156621
0.00156644
0.00156626
0.00156621
0.00156635
0.00156631
0.00156645
0.0015664
0.00156657
0.00156651
0.0015667
0.00156663
0.00156689
0.00156678
0.00156746
0.00156714
0.00156797
0.00165292
0.00159851
0.00162593
0.0017066
0.0016798
0.00175956
0.0017331
0.0018125
0.00178603
0.00186543
0.00183897
0.00191837
0.0018919
0.00197131
0.00194484
0.00202425
0.00199778
0.00207721
0.00205073
0.00213018
0.00210369
0.00218317
0.00215667
0.00223618
0.00220967
0.00228921
0.00226269
0.00234227
0.00231574
0.00239536
0.00236881
0.00244849
0.00242192
0.00250164
0.00247506
0.00255484
0.00252824
0.00260807
0.00258145
0.00266134
0.0026347
0.00271465
0.00268799
0.00276799
0.00274131
0.00282136
0.00279467
0.00287477
0.00284806
0.0029282
0.00290148
0.00298165
0.00295493
0.00303511
0.00300838
0.00308856
0.00306184
0.00314196
0.00311527
0.00319526
0.00316865
0.00324851
0.00322188
0.00330279
0.00327564
0.00335948
0.00335718
0.00332964
0.00315299
0.00316368
0.00309563
0.00309575
0.00156916
0.00157091
0.00318998
0.00312209
0.00312263
0.00315011
0.00314947
0.00317625
0.00320295
0.00322954
0.00325598
0.00332095
0.00332201
0.00334713
0.00335453
0.00338137
0.00338454
0.00334655
0.00332091
0.00329442
0.00326855
0.00324223
0.00330905
0.00333504
0.00336101
0.00338613
0.00309575
0.00327113
0.00329691
0.00321808
0.00324383
0.00316453
0.00319159
0.00311125
0.00313789
0.00305799
0.00308463
0.00300468
0.00303134
0.00295135
0.00297802
0.00289801
0.00292468
0.00284468
0.00287134
0.00279135
0.00281801
0.00273806
0.0027647
0.0026848
0.00271142
0.00263157
0.00265818
0.00257838
0.00260497
0.00252523
0.0025518
0.00247211
0.00249867
0.00241903
0.00244557
0.00236599
0.00239251
0.00231297
0.00233947
0.00225998
0.00228647
0.00220702
0.0022335
0.00215408
0.00218055
0.00210116
0.00212762
0.00204826
0.00207471
0.00199537
0.00202181
0.00194249
0.00196893
0.00188961
0.00191605
0.00183674
0.00186318
0.00178387
0.00181031
0.00173101
0.00175744
0.0016781
0.00170455
0.00162445
0.00165131
0.00156982
0.00159742
0.00154094
0.00154226
0.00154141
0.00154007
0.00154041
0.0015398
0.00153981
0.00153989
0.00153985
0.00153997
0.00153993
0.00154007
0.00154002
0.00154019
0.00154013
0.00154033
0.00154026
0.00154049
0.00154041
0.00154075
0.00154059
0.00154176
0.00154118
0.00154373
0.00154261
0.00159942
0.00154505
0.00157249
0.0016534
0.00162655
0.00170669
0.00168008
0.00175961
0.00173315
0.00181254
0.00178608
0.00186546
0.001839
0.00191838
0.00189192
0.00197131
0.00194484
0.00202424
0.00199777
0.00207718
0.00205071
0.00213014
0.00210366
0.00218312
0.00215663
0.00223612
0.00220962
0.00228914
0.00226263
0.00234219
0.00231566
0.00239527
0.00236872
0.00244838
0.00242182
0.00250152
0.00247495
0.00255471
0.00252811
0.00260792
0.00258131
0.00266118
0.00263455
0.00271447
0.00268782
0.00276779
0.00274113
0.00282115
0.00279447
0.00287453
0.00284784
0.00292793
0.00290123
0.00298135
0.00295464
0.00303476
0.00300806
0.00308815
0.00306146
0.0031415
0.00311484
0.00319477
0.00316815
0.00324788
0.00322136
0.0033009
0.00327444
0.00332716
0.0031795
0.00319062
0.00341135
0.00340928
0.0031225
0.00312266
0.00321678
0.00314899
0.00314955
0.00157078
0.00154362
0.0015164
0.00151738
0.00317704
0.00317639
0.00320317
0.00322985
0.00325642
0.00328284
0.00337217
0.00337256
0.00339714
0.00339771
0.00337252
0.00334682
0.00332129
0.00329517
0.00326911
0.00333581
0.00336168
0.00338736
0.00341275
0.00343558
0.00343715
0.00312265
0.00332251
0.00334765
0.00327025
0.00329672
0.00321695
0.00324365
0.00316386
0.00319045
0.00311073
0.00313731
0.00305751
0.00308413
0.00300424
0.00303088
0.00295094
0.00297759
0.00289763
0.00292429
0.00284433
0.00287098
0.00279103
0.00281768
0.00273776
0.00276439
0.00268452
0.00271114
0.00263131
0.00265791
0.00257813
0.00260472
0.002525
0.00255156
0.00247189
0.00249844
0.00241883
0.00244536
0.00236579
0.0023923
0.00231278
0.00233928
0.00225981
0.00228629
0.00220686
0.00223333
0.00215393
0.00218039
0.00210102
0.00212747
0.00204813
0.00207457
0.00199525
0.00202169
0.00194239
0.00196882
0.00188953
0.00191596
0.00183667
0.0018631
0.00178381
0.00181024
0.00173095
0.00175738
0.0016781
0.00170453
0.00162483
0.0016515
0.00159787
0.00151382
0.00151481
0.00151424
0.00151344
0.00151366
0.00151344
0.0015134
0.00151351
0.00151348
0.00151359
0.00151355
0.00151369
0.00151364
0.00151381
0.00151375
0.00151396
0.00151388
0.00151413
0.00151404
0.00151434
0.00151422
0.00151488
0.00151459
0.00151544
0.00160016
0.001546
0.00157336
0.00165369
0.00162702
0.00170675
0.00168027
0.00175967
0.00173321
0.00181258
0.00178613
0.00186548
0.00183903
0.00191839
0.00189194
0.0019713
0.00194485
0.00202422
0.00199776
0.00207715
0.00205068
0.0021301
0.00210362
0.00218306
0.00215658
0.00223604
0.00220955
0.00228905
0.00226255
0.00234209
0.00231557
0.00239516
0.00236862
0.00244826
0.0024217
0.00250139
0.00247482
0.00255456
0.00252797
0.00260776
0.00258116
0.002661
0.00263438
0.00271428
0.00268764
0.00276758
0.00274093
0.00282092
0.00279425
0.00287427
0.00284759
0.00292765
0.00290096
0.00298103
0.00295434
0.00303439
0.00300771
0.00308773
0.00306107
0.00314101
0.00311438
0.0031942
0.00316762
0.00324726
0.00322075
0.00330007
0.00327371
0.00335264
0.00332641
0.00340615
0.00337894
0.00346215
0.00345897
0.00343208
0.00320608
0.00321752
0.00314939
0.00314957
0.00151645
0.00151862
0.0032438
0.0031759
0.00317648
0.00320401
0.00320333
0.0032301
0.00325677
0.0032833
0.00330968
0.00342236
0.00342305
0.00344746
0.00345644
0.00348244
0.00348533
0.00344785
0.00342346
0.00339831
0.0033734
0.00334785
0.00332209
0.003296
0.00336256
0.00338832
0.00341378
0.00343905
0.00346333
0.00348782
0.00314956
0.00337433
0.00339914
0.00332211
0.00334734
0.00326896
0.00329594
0.00321617
0.00324259
0.00316325
0.00318973
0.00311018
0.00313673
0.003057
0.0030836
0.00300378
0.0030304
0.00295052
0.00297715
0.00289724
0.00292388
0.00284397
0.00287061
0.0027907
0.00281733
0.00273745
0.00276407
0.00268422
0.00271083
0.00263103
0.00265762
0.00257787
0.00260445
0.00252475
0.00255131
0.00247166
0.0024982
0.00241861
0.00244513
0.00236558
0.00239209
0.00231259
0.00233908
0.00225963
0.00228611
0.00220669
0.00223315
0.00215377
0.00218023
0.00210088
0.00212732
0.002048
0.00207444
0.00199514
0.00202157
0.00194228
0.00196871
0.00188944
0.00191586
0.00183659
0.00186302
0.00178375
0.00181017
0.00173091
0.00175733
0.00167806
0.00170448
0.00162506
0.00165161
0.00157153
0.0015983
0.00151712
0.00154457
0.00148804
0.00148917
0.00148864
0.00148723
0.00148751
0.00148703
0.00148707
0.00148707
0.00148705
0.00148713
0.0014871
0.0014872
0.00148716
0.0014873
0.00148725
0.00148743
0.00148736
0.00148758
0.0014875
0.00148776
0.00148767
0.00148795
0.00148786
0.00148823
0.00148806
0.00148928
0.00148865
0.00149144
0.00149022
0.00154691
0.00149268
0.00151987
0.00160071
0.00157401
0.0016539
0.0016273
0.00170682
0.00168037
0.00175972
0.00173328
0.00181262
0.00178617
0.00186551
0.00183906
0.0019184
0.00189195
0.00197129
0.00194484
0.0020242
0.00199774
0.00207711
0.00205065
0.00213004
0.00210358
0.00218299
0.00215652
0.00223596
0.00220948
0.00228896
0.00226246
0.00234198
0.00231547
0.00239504
0.00236851
0.00244812
0.00242158
0.00250124
0.00247468
0.0025544
0.00252782
0.00260759
0.00258099
0.00266081
0.0026342
0.00271407
0.00268744
0.00276735
0.00274071
0.00282067
0.00279401
0.002874
0.00284733
0.00292735
0.00290067
0.00298069
0.00295402
0.00303401
0.00300735
0.00308729
0.00306066
0.00314051
0.00311391
0.00319362
0.00316708
0.00324659
0.00322012
0.00329933
0.003273
0.00335171
0.0033256
0.00340374
0.00337781
0.00342954
0.00323269
0.00324438
0.00351181
0.00350941
0.0031763
0.00317651
0.0032706
0.00320284
0.00320343
0.00151803
0.00149118
0.00146417
0.00146538
0.00323101
0.00323029
0.00325705
0.0032837
0.0033102
0.0033365
0.00347224
0.00347225
0.00349605
0.00349606
0.00347363
0.003449
0.00342479
0.00339935
0.00337427
0.00334855
0.00332266
0.00338929
0.00341492
0.00344023
0.00346494
0.00348957
0.00351341
0.00353457
0.00353679
0.00317649
0.00342397
0.00344709
0.00337367
0.00339959
0.00332095
0.00334657
0.0032681
0.00329477
0.00321548
0.0032418
0.00316262
0.00318908
0.0031096
0.00313613
0.00305649
0.00308306
0.00300331
0.00302991
0.00295009
0.0029767
0.00289684
0.00292347
0.00284359
0.00287022
0.00279035
0.00281697
0.00273712
0.00276373
0.00268392
0.00271052
0.00263074
0.00265733
0.0025776
0.00260417
0.00252449
0.00255104
0.00247142
0.00249795
0.00241837
0.00244489
0.00236536
0.00239187
0.00231239
0.00233887
0.00225944
0.00228591
0.00220651
0.00223297
0.00215361
0.00218006
0.00210073
0.00212717
0.00204786
0.0020743
0.00199501
0.00202144
0.00194218
0.0019686
0.00188934
0.00191576
0.00183652
0.00186293
0.00178369
0.0018101
0.00173086
0.00175728
0.00167802
0.00170444
0.00162517
0.00165161
0.00157195
0.00159852
0.00154509
0.00146109
0.00146201
0.00146154
0.00146071
0.0014609
0.00146067
0.00146067
0.00146069
0.00146068
0.00146074
0.00146071
0.00146081
0.00146077
0.00146091
0.00146086
0.00146104
0.00146097
0.00146119
0.00146111
0.00146137
0.00146128
0.00146158
0.00146148
0.00146182
0.00146169
0.00146245
0.00146211
0.00146316
0.00154774
0.00149382
0.00152083
0.00160106
0.0015744
0.00165401
0.00162754
0.0017069
0.00168045
0.00175978
0.00173334
0.00181265
0.00178622
0.00186552
0.00183909
0.0019184
0.00189196
0.00197128
0.00194484
0.00202417
0.00199772
0.00207707
0.00205062
0.00212998
0.00210352
0.00218292
0.00215645
0.00223588
0.0022094
0.00228886
0.00226236
0.00234187
0.00231536
0.00239491
0.00236838
0.00244798
0.00242144
0.00250108
0.00247453
0.00255422
0.00252765
0.0026074
0.00258081
0.00266061
0.002634
0.00271384
0.00268722
0.00276711
0.00274048
0.0028204
0.00279376
0.00287371
0.00284706
0.00292703
0.00290037
0.00298034
0.00295369
0.00303362
0.00300698
0.00308685
0.00306024
0.00314
0.00311344
0.00319303
0.00316654
0.0032459
0.00321949
0.00329853
0.00327225
0.00335082
0.00332473
0.00340261
0.00337682
0.00345384
0.00342833
0.00350606
0.00347927
0.00355948
0.00355673
0.00353146
0.00325931
0.00327131
0.00320322
0.00320346
0.00146376
0.0014663
0.00329743
0.0032298
0.00323039
0.00325804
0.00325726
0.00328402
0.00331064
0.00333709
0.00336332
0.00351946
0.00352032
0.00354356
0.00354578
0.00352223
0.00349879
0.00347541
0.0034505
0.00342585
0.00340061
0.00337509
0.00334934
0.00341598
0.00344146
0.00346654
0.00349117
0.00351518
0.00353849
0.00356124
0.00355283
0.00358235
0.00357807
0.00320343
0.00347382
0.00349587
0.00342314
0.00344785
0.00337208
0.00339794
0.00331954
0.00334587
0.00326731
0.00329348
0.00321476
0.00324107
0.00316198
0.0031884
0.00310903
0.00313552
0.00305597
0.00308251
0.00300283
0.00302941
0.00294964
0.00297624
0.00289643
0.00292304
0.00284321
0.00286982
0.00278999
0.0028166
0.00273678
0.00276338
0.0026836
0.00271019
0.00263044
0.00265701
0.00257731
0.00260387
0.00252422
0.00255076
0.00247116
0.00249769
0.00241813
0.00244464
0.00236514
0.00239163
0.00231217
0.00233865
0.00225924
0.0022857
0.00220633
0.00223278
0.00215344
0.00217988
0.00210057
0.002127
0.00204772
0.00207415
0.00199489
0.0020213
0.00194206
0.00196848
0.00188925
0.00191566
0.00183644
0.00186284
0.00178363
0.00181003
0.00173081
0.00175722
0.00167799
0.0017044
0.00162516
0.00165158
0.00157215
0.00159864
0.00151875
0.00154555
0.00146429
0.00149173
0.00143534
0.00143673
0.00143596
0.00143453
0.00143484
0.0014343
0.00143435
0.00143429
0.00143429
0.0014343
0.00143429
0.00143434
0.00143432
0.00143441
0.00143437
0.00143451
0.00143445
0.00143464
0.00143457
0.00143479
0.00143471
0.00143498
0.00143488
0.0014352
0.00143509
0.00143544
0.00143532
0.00143588
0.00143559
0.00143698
0.0014363
0.00143902
0.00143782
0.00149447
0.00144012
0.00146735
0.00154817
0.00152142
0.00160122