/*--------------------------------*- C++ -*----------------------------------*\
  =========                 |
  \\      /  F ield         | OpenFOAM: The Open Source CFD Toolbox
   \\    /   O peration     | Website:  https://openfoam.org
    \\  /    A nd           | Version:  10
     \\/     M anipulation  |
\*---------------------------------------------------------------------------*/
FoamFile
{
    format      ascii;
    class       volScalarField;
    location    "62.5";
    object      p;
}
// * * * * * * * * * * * * * * * * * * * * * * * * * * * * * * * * * * * * * //

dimensions      [0 2 -2 0 0 0 0];

internalField   nonuniform List<scalar> 
28942
(
-0.00378527
-0.00315884
0.0020135
0.00947904
0.00977904
9.50837e-05
0.000299718
2.78166e-05
0.00269946
0.0027874
-0.0023291
-0.00259809
-0.00298123
-0.00289867
0.000199599
0.000514366
0.00986714
0.0101371
0.00556615
0.00712683
0.0081393
0.00813098
-0.00523731
-0.00506234
-0.00359108
-0.0038147
0.0138651
0.0138142
0.00351933
0.00346212
2.09112e-05
5.64439e-05
0.000792335
0.000325413
0.00713127
0.00833702
0.0108742
0.0128327
-3.88383e-06
0.0150276
0.00908129
0.0115792
0.00173999
0.00165451
0.00171467
0.000301149
0.000163127
0.000240447
0.00027762
0.000387551
0.000737631
0.00277402
0.00284496
0.00283193
0.00298714
-0.00236079
-0.00105829
-0.00338835
-0.00323396
-0.00350498
-0.00357811
-0.00357891
-0.00347694
-0.000124233
-0.00182497
-0.000370277
0.000960988
0.00941004
0.00891358
-0.00337644
-0.00358641
-0.00332147
0.00897525
0.008827
0.00911905
-0.00148837
-0.00110072
-0.000761706
0.00234745
0.00274683
0.00183793
0.000742944
-0.00632622
-0.00755459
0.0010703
0.00379598
0.00483762
0.00562529
0.0040096
0.00413289
0.00609987
0.00547874
-0.00140955
-0.00170028
-0.00197836
-0.00181708
-0.00164309
0.0053217
0.00661273
-0.00786586
0.0112763
0.0104773
0.00577122
0.0093682
0.000888338
0.000795479
0.000705757
0.0054598
0.00565251
0.0056466
-0.00323183
-0.00315249
-0.00314181
-0.002625
-0.00274776
0.0158195
0.0138142
0.013256
0.0148872
0.00163055
0.00471062
0.00340872
0.00505854
0.00473541
0.0154917
0.0157872
0.0144466
0.00590018
0.00697928
0.000200006
0.000302869
0.00011603
0.0104857
0.0109888
0.00765861
0.00731074
0.0127678
0.00668494
0.00797565
0.00903906
-0.00191728
-0.00242615
0.00734467
0.00165805
0.00174589
-0.00118442
-0.0014474
-0.000988963
-0.00252546
0.00658126
0.00570848
0.00370142
0.00027556
0.000218733
8.85067e-05
0.000220911
0.00751785
0.00678196
-0.00187395
-0.00199109
-0.00188639
-0.004151
-0.00369564
6.92445e-05
-0.00286437
-0.00051132
0.00838147
0.00849042
0.00958446
0.00911981
0.0076976
0.00306974
0.00298721
0.00323978
0.00311564
0.0050297
0.00480753
0.00514255
0.00536305
0.00530095
0.00537179
0.0055829
0.00613686
0.00583093
0.00542882
0.00575894
0.00646463
0.00721837
0.00751038
-0.000588469
-0.000569297
-0.00248322
0.00022465
6.70998e-05
-0.00200319
-0.00209177
0.000303161
0.000366003
0.000328629
0.000259685
0.00184678
0.00180156
0.00177968
-0.00292977
-0.00311692
-0.00278153
-0.00434948
-0.00483164
-0.00414314
-0.0047305
-0.00649613
-0.0051944
0.0160134
0.0167235
0.016491
0.000923181
0.00106811
0.000956356
0.0103382
0.00991028
0.0099906
0.0014966
0.00147902
0.00151406
0.00146099
0.00144338
0.00142524
0.0014261
0.00140703
0.00140777
0.00144398
0.0014615
0.00147905
0.00149676
0.00151458
0.00138913
0.00138898
0.00153084
0.00153111
0.00154725
0.00137083
0.00137047
0.00154764
0.00135201
0.00133319
0.00135212
0.00133358
0.00156506
0.00156526
0.00131444
0.00131486
0.00158117
0.0015816
0.00129562
0.0012961
0.00159728
0.00159768
0.00127681
0.00127726
0.00161317
0.00161362
0.00125793
0.00125842
0.00162885
0.00162928
0.00123907
0.00123954
0.00164436
0.0016448
0.00122016
0.00122068
0.00165983
0.0016602
0.00120133
0.00120159
0.00167452
0.0016749
0.00118245
0.00118239
0.00169007
0.00169019
0.00116343
0.00116298
0.0017042
0.00170414
0.00114364
0.00114373
0.00171873
0.00171851
0.00112393
0.00112447
0.00170331
0.00171784
0.00173316
0.00173273
0.00167267
0.00168863
0.00164219
0.00165793
0.00161167
0.00162715
0.00157962
0.00159584
0.00154618
0.00156306
0.00151263
0.00153065
0.00147847
0.00149584
0.00144249
0.00145992
0.0014057
0.00142421
0.0013691
0.00138755
0.00133201
0.00135064
0.00129459
0.00131336
0.00125699
0.00127584
0.00121931
0.00123818
0.00118168
0.00120051
0.00114324
0.0011628
0.00112386
0.00110449
0.00110478
0.00116301
0.00112428
0.0011436
0.0012014
0.00118208
0.00123922
0.00122041
0.0012769
0.00125809
0.00131446
0.00129573
0.00135178
0.00133318
0.00138851
0.00137031
0.00142529
0.00140708
0.00146141
0.00144355
0.00149587
0.00147861
0.0015308
0.00151419
0.00156425
0.00154726
0.00159681
0.00158072
0.0016282
0.0016127
0.00165868
0.00164349
0.00168849
0.00167338
0.00171662
0.00170286
0.00173086
0.00173284
0.00110426
0.00110486
0.00174622
0.00174398
0.00174745
0.00174709
0.00170097
0.00173089
0.00171579
0.00167036
0.00168605
0.00164039
0.00165519
0.00160967
0.00162522
0.0015777
0.00159384
0.00154474
0.00156133
0.00151057
0.00152795
0.00147598
0.00149404
0.00144121
0.0014581
0.00140435
0.0014228
0.00136771
0.0013861
0.00133071
0.00134927
0.00129339
0.00131209
0.00125589
0.00127466
0.00121831
0.00123711
0.0011808
0.00119955
0.00114266
0.00116178
0.00108485
0.00108503
0.00110376
0.00112325
0.00112396
0.00110481
0.00108546
0.0010852
0.00116285
0.00114331
0.00120076
0.00118158
0.00123836
0.00121956
0.00127596
0.00125718
0.00131343
0.00129473
0.00135067
0.0013321
0.00138751
0.00136919
0.00142391
0.00140575
0.00145989
0.00144188
0.00149466
0.00147737
0.00152893
0.00151234
0.00156245
0.00154588
0.00159488
0.00157882
0.00162623
0.00161071
0.00165648
0.00164152
0.00168562
0.00167122
0.00171366
0.00169974
0.00174015
0.0017274
0.00174555
0.00175737
0.00175359
0.00175899
0.00108466
0.00108528
0.00176031
0.00175851
0.00177034
0.00176705
0.0017604
0.00110359
0.00108421
0.00106605
0.00106596
0.00175574
0.00177341
0.00179374
0.0017765
0.00172726
0.0017419
0.00169736
0.00171216
0.0016673
0.0016828
0.00163743
0.00165207
0.00160682
0.00162233
0.00157499
0.00159104
0.00154213
0.00155869
0.00150832
0.00152531
0.00147373
0.00149115
0.00143843
0.00145614
0.00140244
0.00142057
0.00136589
0.00138422
0.00132898
0.00134749
0.00129179
0.00131042
0.0012544
0.00127312
0.00121695
0.00123569
0.00117955
0.00119824
0.00114175
0.0011606
0.00112257
0.00106585
0.00106545
0.00106566
0.00106602
0.00112363
0.00108514
0.00110455
0.00116211
0.00114288
0.00119958
0.00118071
0.00123707
0.00121832
0.00127455
0.00125583
0.00131188
0.00129325
0.00134897
0.00133047
0.00138569
0.0013674
0.00142194
0.00140387
0.00145752
0.00143985
0.0014925
0.00147513
0.00152653
0.00150964
0.00155979
0.00154332
0.00159204
0.00157605
0.00162322
0.00160778
0.00165329
0.00163842
0.0016821
0.0016679
0.00170964
0.00169597
0.00173601
0.00172295
0.00176204
0.00174849
0.00177876
0.00177422
0.00177344
0.00177176
0.00106501
0.00106596
0.00178456
0.00178237
0.00178076
0.00178604
0.00178992
0.0017167
0.00179379
0.00177374
0.00177635
0.00177266
0.00175338
0.00176942
0.00172169
0.00173741
0.00169265
0.00170678
0.00166329
0.00167855
0.0016337
0.00164853
0.0016031
0.00161856
0.00157141
0.00158739
0.00153871
0.00155519
0.00150513
0.00152203
0.00147072
0.00148801
0.00143553
0.00145323
0.00139978
0.00141776
0.00136344
0.00138167
0.00132671
0.00134512
0.00128968
0.00130823
0.00125247
0.0012711
0.00121517
0.00123383
0.0011779
0.00119653
0.00114048
0.00115913
0.00110278
0.0011216
0.00106459
0.00108349
0.00104654
0.00104546
0.00104605
0.00104699
0.00104675
0.00104717
0.0010471
0.00104709
0.00104713
0.00108467
0.00104672
0.00106601
0.00112273
0.00110381
0.00116073
0.00114193
0.00119801
0.00117938
0.00123537
0.00121669
0.00127268
0.00125404
0.00130985
0.0012913
0.00134675
0.00132834
0.00138327
0.00136507
0.00141932
0.00140136
0.00145471
0.00143712
0.00148945
0.00147218
0.00152331
0.00150649
0.00155632
0.00153995
0.00158834
0.00157247
0.00161931
0.00160397
0.00164914
0.00163438
0.00167772
0.00166362
0.00170488
0.00169148
0.0017307
0.001718
0.00175585
0.00174318
0.0017801
0.00176722
0.00179704
0.00179114
0.00178513
0.0017846
0.00179732
0.00179192
0.00106396
0.00104519
0.00102815
0.00102788
0.00179083
0.00180112
0.00182466
0.00174553
0.00180576
0.00180097
0.00178497
0.00178538
0.00176305
0.00175962
0.00174671
0.00175931
0.00171523
0.00173087
0.00168747
0.00170139
0.00165864
0.00167329
0.00162903
0.00164392
0.00159853
0.00161392
0.00156703
0.00158292
0.00153456
0.00155092
0.00150119
0.00151799
0.00146701
0.0014842
0.00143208
0.00144964
0.00139653
0.00141439
0.00136043
0.00137854
0.00132392
0.00134223
0.00128711
0.00130555
0.0012501
0.00126863
0.00121299
0.00123155
0.00117588
0.00119443
0.0011389
0.00115739
0.00110139
0.00112012
0.00108258
0.00102779
0.00102671
0.00102746
0.00102853
0.00102829
0.00102853
0.00102866
0.00102824
0.00108394
0.00104582
0.00106559
0.00112163
0.00110278
0.00115894
0.00114049
0.00119608
0.00117752
0.00123325
0.00121467
0.00127037
0.00125183
0.00130732
0.00128888
0.00134401
0.00132571
0.00138029
0.00136221
0.00141609
0.00139827
0.00145126
0.00143377
0.00148571
0.00146859
0.00151934
0.00150265
0.00155209
0.00153585
0.00158385
0.00156811
0.00161455
0.00159935
0.00164412
0.0016295
0.00167245
0.00165846
0.00169941
0.00168612
0.0017249
0.00171237
0.00174926
0.00173738
0.00177201
0.00175946
0.0017945
0.00178469
0.00180974
0.00180281
0.00179737
0.00179463
0.00102584
0.00102715
0.00179967
0.0017579
0.00178384
0.00180315
0.00180937
0.00182424
0.001812
0.00181813
0.00181474
0.00181832
0.00181352
0.00179588
0.00175833
0.0018146
0.00179011
0.00175229
0.00175206
0.00173698
0.00174987
0.00170888
0.00172279
0.00168136
0.00169523
0.00165286
0.00166725
0.00162347
0.00163827
0.00159319
0.00160846
0.00156192
0.00157768
0.0015297
0.00154593
0.00149659
0.00151326
0.00146268
0.00147974
0.00142803
0.00144544
0.00139274
0.00141047
0.00135691
0.00137489
0.00132066
0.00133884
0.0012841
0.00130242
0.00124732
0.00126573
0.00121043
0.00122889
0.00117354
0.00119199
0.00113674
0.00115513
0.00109987
0.00111842
0.00106232
0.00108114
0.00102483
0.00104368
0.00100816
0.00100594
0.0010072
0.00100967
0.0010089
0.00101046
0.00101017
0.00101041
0.00101053
0.00100973
0.00101
0.00100867
0.00100922
0.00104517
0.00100799
0.00102646
0.00108262
0.001064
0.00112008
0.00110144
0.00115684
0.00113845
0.00119378
0.00117531
0.00123074
0.00121227
0.00126763
0.00124921
0.00130434
0.00128602
0.00134077
0.00132261
0.00137679
0.00135884
0.0014123
0.00139463
0.00144719
0.00142984
0.00148135
0.00146438
0.0015147
0.00149815
0.00154715
0.00153105
0.00157861
0.00156302
0.00160902
0.00159397
0.0016383
0.00162383
0.00166635
0.0016525
0.00169308
0.00167991
0.00171839
0.00170594
0.00174222
0.00173059
0.0017647
0.00175336
0.00178542
0.00177589
0.00180508
0.00179353
0.00182347
0.00181607
0.00180352
0.001808
0.00180165
0.00102343
0.00100512
0.000990143
0.0009893
0.0018042
0.00181225
0.00180776
0.00181806
0.00182263
0.00182911
0.00183164
0.00182503
0.00180437
0.00180136
0.00181419
0.00180534
0.00180483
0.00176044
0.00178234
0.00174374
0.00174847
0.00172754
0.00173945
0.00170128
0.00171441
0.0016743
0.00168795
0.0016462
0.0016604
0.00161714
0.0016318
0.00158712
0.00160226
0.00155613
0.00157176
0.0015242
0.00154029
0.00149139
0.00150791
0.00145777
0.00147468
0.00142342
0.00144069
0.00138844
0.00140601
0.00135291
0.00137074
0.00131695
0.00133499
0.00128066
0.00129885
0.00124415
0.00126244
0.00120752
0.00122585
0.00117086
0.00118919
0.00113427
0.00115256
0.00109788
0.00111606
0.00106067
0.00107935
0.00104193
0.000989965
0.000987548
0.000989069
0.000991728
0.000990934
0.000992504
0.000992217
0.000992438
0.000992573
0.000991459
0.00099205
0.000990821
0.00104411
0.0010069
0.00102546
0.00108109
0.00106263
0.00111784
0.00109961
0.00115443
0.00113611
0.00119114
0.00117278
0.00122785
0.00120951
0.00126448
0.0012462
0.00130092
0.00128274
0.00133706
0.00131905
0.00137278
0.00135499
0.00140799
0.00139047
0.00144256
0.00142537
0.0014764
0.00145959
0.00150943
0.00149304
0.00154155
0.00152562
0.0015727
0.00155727
0.00160279
0.0015879
0.00163176
0.00161744
0.00165951
0.00164581
0.00168598
0.00167293
0.00171106
0.00169872
0.00173469
0.00172311
0.00175685
0.00174594
0.00177686
0.0017673
0.00179678
0.00178577
0.00181542
0.00180528
0.00183369
0.00182219
0.00183294
0.00182474
0.0018088
0.000986621
0.000988358
0.00180779
0.00181316
0.00182077
0.00181398
0.00182136
0.00182928
0.00182795
0.00183357
0.0018369
0.0018393
0.00184106
0.00183363
0.00181223
0.00179317
0.00182421
0.00182089
0.00179919
0.00178822
0.00179628
0.00175738
0.00177108
0.00173618
0.00174481
0.00171797
0.00172912
0.00169292
0.00170562
0.0016665
0.0016799
0.00163884
0.00165283
0.00161012
0.00162462
0.00158041
0.0015954
0.00154972
0.0015652
0.00151811
0.00153404
0.00148562
0.00150198
0.00145233
0.00146908
0.00141832
0.00143542
0.00138366
0.00140107
0.00134846
0.00136613
0.00131282
0.0013307
0.00127683
0.00129487
0.00124062
0.00125876
0.00120426
0.00122246
0.00116787
0.00118607
0.00113152
0.00114969
0.00109532
0.00111339
0.001059
0.00107732
0.00102206
0.00104041
0.000985401
0.00100397
0.000969688
0.000967048
0.00096851
0.000972178
0.0009709
0.000973865
0.000973161
0.000974644
0.000974355
0.000974565
0.000974712
0.000973644
0.000974202
0.000972165
0.000972763
0.000970105
0.000971209
0.00100564
0.000969046
0.000987374
0.00104273
0.00102388
0.00107912
0.00106114
0.00111532
0.00109721
0.0011517
0.0011335
0.00118816
0.00116993
0.00122461
0.0012064
0.00126095
0.00124281
0.00129709
0.00127907
0.00133292
0.00131506
0.00136831
0.00135069
0.00140318
0.00138583
0.00143741
0.0014204
0.00147091
0.00145427
0.00150359
0.00148738
0.00153537
0.00151962
0.00156618
0.00155092
0.00159594
0.00158121
0.00162458
0.00161042
0.00165203
0.00163848
0.00167821
0.0016653
0.00170304
0.00169082
0.00172645
0.00171496
0.00174838
0.00173762
0.00176839
0.0017587
0.00178732
0.00177795
0.00180489
0.00179543
0.0018232
0.00181503
0.00183602
0.00183327
0.00183715
0.001826
0.00181883
0.0018226
0.00182502
0.00183368
0.00182849
0.0018275
0.0018308
0.000984051
0.000965792
0.000951942
0.000950985
0.00183865
0.00183717
0.00184192
0.00184406
0.00184614
0.00184505
0.0018275
0.00182345
0.00182528
0.00184299
0.00183831
0.0018398
0.0018219
0.00181444
0.00181189
0.00178369
0.00179411
0.00177526
0.00178388
0.00174954
0.00176117
0.00172888
0.00173879
0.00170834
0.00171931
0.00168406
0.00169646
0.00165812
0.00167129
0.00163087
0.00164466
0.0016025
0.00161683
0.00157312
0.00158795
0.00154277
0.00155808
0.00151149
0.00152726
0.00147935
0.00149554
0.00144641
0.00146299
0.00141275
0.00142968
0.00137845
0.00139568
0.00134359
0.00136109
0.00130829
0.001326
0.00127264
0.00129051
0.00123673
0.00125472
0.00120068
0.00121872
0.00116457
0.00118263
0.00112849
0.00114652
0.00109252
0.00111049
0.00105679
0.00107464
0.00102028
0.00103862
0.00100221
0.000952098
0.000949154
0.000950824
0.000954538
0.00095329
0.000956116
0.000955439
0.00095688
0.0009566
0.000956808
0.000956949
0.000955945
0.000956464
0.000954274
0.00095517
0.000953216
0.0010042
0.00096785
0.000986064
0.00104089
0.00102247
0.00107659
0.00105872
0.00111256
0.00109456
0.00114868
0.00113062
0.00118487
0.00116678
0.00122102
0.00120296
0.00125706
0.00123907
0.00129288
0.00127502
0.00132837
0.00131068
0.00136342
0.00134596
0.00139793
0.00138076
0.0014318
0.00141496
0.00146493
0.00144848
0.00149725
0.00148121
0.00152866
0.00151309
0.00155912
0.00154404
0.00158853
0.00157398
0.00161684
0.00160285
0.00164397
0.00163058
0.00166987
0.0016571
0.00169444
0.00168235
0.00171762
0.00170624
0.00173935
0.0017287
0.0017594
0.00174964
0.001778
0.00176893
0.00179534
0.00178674
0.00181045
0.00180373
0.00182823
0.00181508
0.00183522
0.00183967
0.00185121
0.00184448
0.00183695
0.00182538
0.00184117
0.00183854
0.00183007
0.00183217
0.000947931
0.000949816
0.00184687
0.0018386
0.00183994
0.00184503
0.00184577
0.00184959
0.00185194
0.00185048
0.00184777
0.00183035
0.00182015
0.00182176
0.00182534
0.00183318
0.00184336
0.0018334
0.00184449
0.00185223
0.00184965
0.00184922
0.00183199
0.00181692
0.00181253
0.00179912
0.00180225
0.00177677
0.00178807
0.00176274
0.00177089
0.001741
0.00175198
0.00172011
0.00173045
0.0016987
0.00170976
0.0016748
0.00168701
0.00164926
0.00166223
0.00162239
0.00163599
0.00159438
0.00160853
0.00156534
0.00158
0.00153533
0.00155047
0.00150441
0.00152
0.00147263
0.00148864
0.00144006
0.00145645
0.00140677
0.00142351
0.00137283
0.00138988
0.00133835
0.00135566
0.0013034
0.00132093
0.00126809
0.00128579
0.00123252
0.00125034
0.00119679
0.00121468
0.00116098
0.0011789
0.00112519
0.00114309
0.00108949
0.00110733
0.00105397
0.0010717
0.00101835
0.00103631
0.000982625
0.00100034
0.000946686
0.000964445
0.000931514
0.000928963
0.000930189
0.000934643
0.000933053
0.000936958
0.000935908
0.00093848
0.000937815
0.000939218
0.000938949
0.000939154
0.000939287
0.000938311
0.000938823
0.000936533
0.000937571
0.000934273
0.000935409
0.000931962
0.000933102
0.000966359
0.000930295
0.000948679
0.00100268
0.000984322
0.00103834
0.0010207
0.00107382
0.00105604
0.00110954
0.00109167
0.00114539
0.00112746
0.00118127
0.00116334
0.00121712
0.00119922
0.00125283
0.00123501
0.00128831
0.00127062
0.00132344
0.00130594
0.00135813
0.00134086
0.00139227
0.00137529
0.00142576
0.00140911
0.00145851
0.00144225
0.00149045
0.00147461
0.0015215
0.00150611
0.00155159
0.00153669
0.00158065
0.00156627
0.00160862
0.0015948
0.00163544
0.00162221
0.00166105
0.00164843
0.00168536
0.0016734
0.00170832
0.00169705
0.00172986
0.0017193
0.00174984
0.00174008
0.00176835
0.00175931
0.00178539
0.00177709
0.00179998
0.00179318
0.00181355
0.00180688
0.00181368
0.00185126
0.00185532
0.00184459
0.00183641
0.00184064
0.00184146
0.00184258
0.00184673
0.00184856
0.000944972
0.000927561
0.00091426
0.000912597
0.00185425
0.00185374
0.00185701
0.00185799
0.00185727
0.00185677
0.00182912
0.00181962
0.00183327
0.00183727
0.00184689
0.00184413
0.00185532
0.00185632
0.00184857
0.00183721
0.00184736
0.00184168
0.00181317
0.00180082
0.00180154
0.00180843
0.00178478
0.00179292
0.00176837
0.00177707
0.00175183
0.00176048
0.00173149
0.00174194
0.00171058
0.00172106
0.00168885
0.00169997
0.0016652
0.00167726
0.00163999
0.00165279
0.00161348
0.0016269
0.00158582
0.0015998
0.00155714
0.00157162
0.00152748
0.00154244
0.00149692
0.00151233
0.00146552
0.00148134
0.00143332
0.00144953
0.00140041
0.00141696
0.00136686
0.00138372
0.00133275
0.00134988
0.00129818
0.00131552
0.00126323
0.00128075
0.00122801
0.00124566
0.00119262
0.00121034
0.00115713
0.00117488
0.00112164
0.00113939
0.00108622
0.00110392
0.00105095
0.00106857
0.00101593
0.00103343
0.000980492
0.000998092
0.000962599
0.000914074
0.000911282
0.000912856
0.000917316
0.000915797
0.000919484
0.000918488
0.000920952
0.000920312
0.000921661
0.000921402
0.000921606
0.000921729
0.000920794
0.000921292
0.000919268
0.000920119
0.000916757
0.000918103
0.000915304
0.000964585
0.000928889
0.000947159
0.00100062
0.000982512
0.00103557
0.00101808
0.00107083
0.00105318
0.00110627
0.00108854
0.00114182
0.00112405
0.0011774
0.00115962
0.00121292
0.00119519
0.00124829
0.00123064
0.00128341
0.0012659
0.00131817
0.00130086
0.00135248
0.00133541
0.00138624
0.00136945
0.00141934
0.00140289
0.00145171
0.00143564
0.00148327
0.00146761
0.00151394
0.00149874
0.00154366
0.00152894
0.00157237
0.00155816
0.0016
0.00158635
0.00162651
0.00161343
0.00165183
0.00163935
0.00167589
0.00166405
0.00169863
0.00168746
0.00171998
0.00170951
0.00173984
0.00173013
0.00175822
0.00174925
0.00177504
0.00176686
0.00178972
0.00178274
0.00180215
0.00179643
0.00181168
0.00180656
0.00182597
0.00182025
0.00183933
0.00183097
0.00182149
0.00185755
0.00185309
0.00184923
0.00185013
0.000909705
0.000911265
0.00185773
0.00185494
0.00185661
0.00186232
0.00186113
0.00186361
0.00186413
0.00186318
0.00186013
0.00183504
0.00182203
0.00181964
0.00181983
0.00181738
0.00183315
0.00183236
0.00184935
0.00184533
0.00185742
0.00185302
0.00185908
0.00185499
0.00184803
0.00184
0.00185039
0.0018145
0.00182249
0.00179961
0.00179369
0.00178742
0.00179735
0.00177417
0.00178107
0.00175823
0.00176651
0.00174107
0.00174993
0.00172136
0.00173146
0.00170059
0.00171108
0.00167875
0.00168988
0.0016553
0.00166724
0.0016304
0.00164304
0.00160422
0.00161747
0.00157691
0.00159071
0.00154857
0.00156288
0.00151928
0.00153406
0.00148909
0.0015043
0.00145805
0.00147368
0.00142624
0.00144225
0.00139372
0.00141008
0.00136056
0.00137722
0.00132684
0.00134377
0.00129265
0.00130981
0.00125808
0.00127541
0.00122322
0.00124069
0.00118817
0.00120572
0.00115302
0.00117061
0.00111785
0.00113544
0.00108274
0.00110029
0.00104775
0.00106523
0.00101296
0.00103033
0.00097844
0.000995666
0.000942894
0.000960559
0.00090795
0.00092555
0.000893848
0.000890088
0.000892218
0.000897136
0.000895397
0.00090004
0.00089876
0.000902124
0.000901158
0.00090353
0.000902918
0.000904209
0.00090396
0.000904162
0.000904277
0.000903393
0.000903867
0.000901936
0.000902746
0.000899784
0.000900932
0.000896777
0.00089827
0.000893886
0.000895294
0.00092738
0.000892624
0.000910117
0.000962513
0.000945122
0.000997918
0.000980316
0.00103263
0.00101523
0.00106762
0.00105011
0.00110277
0.00108519
0.00113801
0.00112039
0.00117327
0.00115565
0.00120845
0.00119088
0.00124346
0.00122599
0.00127821
0.00126089
0.00131259
0.00129547
0.00134652
0.00132963
0.00137988
0.00136329
0.00141259
0.00139634
0.00144457
0.00142869
0.00147574
0.00146028
0.00150603
0.00149102
0.00153539
0.00152085
0.00156375
0.00154972
0.00159106
0.00157756
0.00161726
0.00160432
0.0016423
0.00162995
0.00166611
0.00165439
0.00168863
0.00167757
0.0017098
0.00169942
0.00172953
0.00171988
0.00174777
0.00173887
0.00176441
0.00175633
0.0017791
0.00177206
0.00179164
0.00178573
0.0018022
0.00179693
0.00181158
0.00180808
0.00180981
0.00186537
0.00186459
0.00183512
0.00182774
0.00185736
0.00185824
0.00186211
0.00186264
0.00186408
0.000906075
0.000888684
0.000876666
0.000875436
0.00186982
0.00186787
0.00186968
0.00186969
0.0018679
0.00186439
0.00181726
0.0018078
0.00180578
0.00181798
0.00183169
0.00184591
0.00185778
0.00185399
0.0018631
0.00186265
0.00185639
0.00184674
0.00184032
0.0018171
0.00182401
0.00185856
0.00181214
0.00180474
0.00179905
0.00181058
0.00178645
0.00179068
0.00177674
0.00178301
0.00176331
0.00177026
0.00174749
0.00175567
0.00173018
0.00173908
0.00171086
0.00172075
0.00169024
0.0017007
0.00166843
0.00167953
0.00164517
0.001657
0.00162054
0.00163303
0.00159467
0.00160777
0.0015677
0.00158133
0.00153971
0.00155384
0.00151077
0.00152537
0.00148094
0.00149598
0.00145029
0.00146573
0.00141887
0.00143468
0.00138674
0.0014029
0.00135397
0.00137044
0.00132064
0.00133738
0.00128684
0.00130381
0.00125266
0.0012698
0.00121817
0.00123546
0.00118349
0.00120086
0.00114868
0.0011661
0.00111384
0.00113126
0.00107904
0.00109643
0.00104435
0.00106168
0.00100983
0.00102707
0.000975606
0.000992685
0.000940682
0.000958225
0.000923144
0.000876847
0.000872944
0.000875243
0.000880283
0.000878564
0.000882868
0.000881654
0.000884874
0.000883949
0.000886212
0.000885629
0.000886864
0.000886625
0.000886824
0.00088693
0.000886093
0.000886545
0.000884682
0.000885471
0.000882643
0.000883735
0.000879726
0.000881286
0.000878088
0.00092573
0.000890963
0.000908705
0.000960432
0.000942983
0.000995004
0.000977865
0.0010295
0.00101222
0.0010642
0.00104684
0.00109905
0.00108162
0.00113397
0.00111651
0.00116889
0.00115144
0.00120371
0.00118633
0.00123836
0.00122108
0.00127273
0.0012556
0.00130673
0.0012898
0.00134026
0.00132358
0.00137323
0.00135684
0.00140554
0.00138949
0.00143713
0.00142145
0.00146792
0.00145265
0.00149784
0.00148301
0.00152683
0.00151248
0.00155485
0.00154099
0.00158184
0.0015685
0.00160774
0.00159496
0.00163251
0.0016203
0.00165609
0.00164448
0.0016784
0.00166743
0.0016994
0.0016891
0.00171899
0.0017094
0.0017371
0.00172827
0.00175362
0.00174561
0.00176828
0.00176123
0.00178091
0.00177491
0.0017917
0.00178644
0.00179994
0.00179654
0.00180543
0.00180245
0.00181454
0.00180567
0.00181877
0.00180944
0.00180554
0.00187159
0.00187039
0.00186496
0.00186577
0.000871566
0.000873687
0.00186436
0.00186984
0.00187091
0.00187626
0.00187403
0.00187522
0.00187448
0.00187202
0.00186788
0.00180724
0.00179617
0.00178909
0.00180014
0.0017927
0.00180441
0.001804
0.0018205
0.00182936
0.00184574
0.0018545
0.00186484
0.00186589
0.00186454
0.00185646
0.00184605
0.00183617
0.0018237
0.00181379
0.00186615
0.00180573
0.00180424
0.00179885
0.0017868
0.00178508
0.00179799
0.00177617
0.00178013
0.00176571
0.00177156
0.00175213
0.00175918
0.00173648
0.00174456
0.00171917
0.00172806
0.00170009
0.00170986
0.00167963
0.00169004
0.00165791
0.00166896
0.00163484
0.00164656
0.00161046
0.00162282
0.0015849
0.00159784
0.00155824
0.00157172
0.00153059
0.00154455
0.00150201
0.00151643
0.00147255
0.0014874
0.00144227
0.00145752
0.00141123
0.00142685
0.00137949
0.00139546
0.00134712
0.00136339
0.00131419
0.00133073
0.00128079
0.00129756
0.00124699
0.00126394
0.00121289
0.00122998
0.00117857
0.00119576
0.00114411
0.00116136
0.00110961
0.00112687
0.00107514
0.00109237
0.00104076
0.00105794
0.00100653
0.00102363
0.000972525
0.000989495
0.000938496
0.000955636
0.000904266
0.000921124
0.00086988
0.000887119
0.000856319
0.000852647
0.000854802
0.000860146
0.000858144
0.000863312
0.000861849
0.000865807
0.000864622
0.000867724
0.000866844
0.000869
0.000868443
0.000869625
0.000869395
0.00086959
0.00086969
0.000868899
0.000869327
0.000867554
0.000868308
0.000865582
0.000866642
0.000863074
0.000864391
0.000859812
0.000861424
0.000856827
0.000858286
0.000889257
0.000855343
0.00087225
0.000923614
0.000906329
0.000957979
0.000940717
0.000991951
0.000974952
0.00102618
0.00100904
0.00106058
0.00104337
0.00109512
0.00107785
0.0011297
0.00111242
0.00116428
0.00114701
0.00119874
0.00118154
0.00123302
0.00121592
0.00126701
0.00125007
0.00130062
0.00128388
0.00133375
0.00131726
0.00136632
0.00135013
0.00139824
0.00138238
0.00142944
0.00141395
0.00145985
0.00144477
0.0014894
0.00147475
0.00151805
0.00150386
0.00154573
0.00153204
0.00157241
0.00155922
0.00159803
0.00158538
0.00162254
0.00161045
0.00164588
0.00163439
0.001668
0.00165713
0.00168883
0.00167861
0.0017083
0.00169877
0.0017263
0.00171752
0.00174273
0.00173476
0.00175737
0.00175031
0.00177006
0.00176401
0.00178083
0.00177567
0.00178917
0.00178548
0.00179457
0.00179225
0.00179822
0.00179663
0.00179454
0.00187684
0.00187526
0.00180621
0.00179912
0.00187201
0.00187268
0.00186969
0.00187626
0.00187712
0.000868084
0.000851064
0.00083998
0.000838383
0.00188183
0.00187956
0.00188002
0.00187861
0.00187543
0.00187072
0.00179216
0.00178487
0.00177147
0.0017786
0.00180847
0.00181554
0.00183358
0.00183616
0.00185406
0.00186299
0.00186996
0.00186522
0.00185587
0.00184547
0.00183068
0.00182265
0.00181019
0.00178953
0.00179681
0.00187312
0.00178925
0.00177154
0.00179345
0.00179665
0.00178389
0.00177927
0.00177448
0.00178292
0.00176547
0.00176974
0.00175445
0.0017604
0.00174087
0.00174793
0.00172533
0.00173335
0.00170807
0.00171693
0.00168916
0.00169883
0.00166884
0.00167918
0.00164725
0.00165823
0.00162436
0.00163598
0.00160022
0.00161246
0.00157494
0.00158774
0.0015486
0.00156191
0.00152127
0.00153507
0.00149303
0.00150728
0.00146393
0.0014786
0.00143402
0.00144909
0.00140337
0.0014188
0.00137202
0.00138779
0.00134005
0.00135612
0.00130752
0.00132386
0.00127451
0.00129108
0.0012411
0.00125786
0.00120738
0.00122428
0.00117343
0.00119044
0.00113934
0.00115641
0.00110519
0.00112228
0.00107105
0.00108812
0.00103699
0.00105401
0.00100306
0.00102001
0.000969329
0.000986172
0.00093587
0.00095258
0.000901978
0.000918817
0.00088506
0.000839855
0.000835847
0.000838174
0.000843494
0.000841652
0.000846435
0.00084504
0.000848848
0.00084771
0.000850674
0.000849836
0.000851893
0.00085136
0.000852491
0.00085227
0.000852462
0.000852555
0.000851809
0.000852214
0.000850537
0.00085125
0.000848661
0.000849673
0.000846258
0.000847521
0.000843083
0.000844762
0.000841423
0.000887552
0.000854057
0.000870722
0.000921548
0.000904422
0.000955031
0.000938263
0.000988745
0.00097186
0.00102268
0.0010057
0.00105678
0.00103972
0.00109099
0.00107388
0.00112524
0.00110812
0.00115945
0.00114236
0.00119355
0.00117653
0.00122745
0.00121054
0.00126105
0.00124431
0.00129427
0.00127773
0.00132701
0.00131072
0.00135918
0.00134319
0.00139071
0.00137505
0.00142153
0.00140623
0.00145157
0.00143667
0.00148076
0.00146629
0.00150907
0.00149505
0.00153643
0.00152289
0.00156281
0.00154977
0.00158816
0.00157564
0.00161242
0.00160045
0.00163555
0.00162416
0.00165749
0.0016467
0.00167817
0.00166802
0.00169751
0.00168804
0.00171543
0.00170668
0.00173179
0.00172384
0.00174642
0.00173936
0.00175917
0.00175308
0.00176996
0.00176484
0.00177841
0.00177458
0.00178419
0.00178163
0.00178705
0.00178621
0.00178637
0.00178677
0.00178873
0.00178209
0.00178
0.00177424
0.00178061
0.00188126
0.00187865
0.00187835
0.00187894
0.000834398
0.000836966
0.00187422
0.00188188
0.00188267
0.00188666
0.00188439
0.00188413
0.00188198
0.00187809
0.00187249
0.00176061
0.00176293
0.00175988
0.00177631
0.00178443
0.00179607
0.00181967
0.0018249
0.00184178
0.00184867
0.00186062
0.00186927
0.00186486
0.00185465
0.0018427
0.00183126
0.00181753
0.00180215
0.00178682
0.00176685
0.00177666
0.00176536
0.00187942
0.00178126
0.00175613
0.00177558
0.0017701
0.00177901
0.00178033
0.00177069
0.00177374
0.00176425
0.00176883
0.00175459
0.00175946
0.0017432
0.00174923
0.0017296
0.00173667
0.0017141
0.0017221
0.0016969
0.00170572
0.00167811
0.00168771
0.00165793
0.0016682
0.00163647
0.00164738
0.00161376
0.00162528
0.00158986
0.00160197
0.00156484
0.0015775
0.00153879
0.00155196
0.00151179
0.00152542
0.00148388
0.00149796
0.00145513
0.00146962
0.00142559
0.00144047
0.00139531
0.00141055
0.00136435
0.00137992
0.00133277
0.00134864
0.00130063
0.00131678
0.00126802
0.00128439
0.00123501
0.00125157
0.00120168
0.00121839
0.00116811
0.00118492
0.00113438
0.00115127
0.00110059
0.0011175
0.00106679
0.00108369
0.00103305
0.00104991
0.000999436
0.00101623
0.000965994
0.000982695
0.000932792
0.000949362
0.000899402
0.000916044
0.00086624
0.000882872
0.000832734
0.000849452
0.00081955
0.000815826
0.000818011
0.000823504
0.000821447
0.00082686
0.000825276
0.000829681
0.000828329
0.000831985