/*--------------------------------*- C++ -*----------------------------------*\
  =========                 |
  \\      /  F ield         | OpenFOAM: The Open Source CFD Toolbox
   \\    /   O peration     | Website:  https://openfoam.org
    \\  /    A nd           | Version:  10
     \\/     M anipulation  |
\*---------------------------------------------------------------------------*/
FoamFile
{
    format      ascii;
    class       volScalarField;
    location    "31.5";
    object      p;
}
// * * * * * * * * * * * * * * * * * * * * * * * * * * * * * * * * * * * * * //

dimensions      [0 2 -2 0 0 0 0];

internalField   nonuniform List<scalar> 
14667
(
0.299527
0.309394
-0.00501078
-0.00405736
-0.00148705
0.248896
0.236047
-0.00537906
0.00321049
0.00249663
0.25206
0.265653
0.347267
0.279432
-0.00718159
0.232681
0.239833
0.0221403
0.013778
0.241787
0.253458
0.333631
0.269464
0.26109
-0.542791
-0.556703
-0.590306
-0.54789
-0.509928
0.56532
0.529738
0.519729
-0.437138
-0.486898
-0.489122
-0.416169
-0.442755
0.0111175
0.00176493
0.0115839
0.01979
0.0280899
0.702724
0.721837
0.817309
0.791655
0.693628
-0.469611
-0.437775
-0.561994
-0.571829
0.639707
0.586409
0.54488
-0.130953
-0.164917
-0.342063
-0.303496
-0.55371
-0.531584
-0.519974
-0.492234
0.267421
0.329244
0.434727
0.367523
0.230699
0.311652
0.193991
0.492543
0.476964
0.470468
0.889918
0.834326
-0.523963
-0.437708
-0.39386
-0.414859
0.48783
0.498196
0.0135809
0.00905679
0.0108397
-0.000387164
-0.000176166
-0.417253
-0.455989
-0.583806
-0.542231
-0.446214
-0.420469
0.101777
0.0956251
-0.184582
-0.169395
-0.177578
-0.19664
-0.0686285
-0.0898613
-0.0346171
-0.0500579
-0.321592
-0.233785
0.430063
0.464775
0.448547
0.421885
0.409877
0.400762
-0.00207509
-0.00521522
0.000167325
0.000991394
0.00360806
0.00134836
0.00816907
-0.00276986
0.00419425
-0.0010537
-0.00394748
0.000604736
-0.198822
-0.183305
-0.191799
-0.193729
-0.210785
-0.206669
-0.187653
-0.18155
-0.20344
-0.211403
-0.172875
-0.161566
-0.173067
-0.189498
-0.147804
-0.133472
-0.13896
-0.155851
-0.119643
-0.107393
-0.11031
-0.123481
-0.0973403
-0.0897401
-0.0922725
-0.0998998
-0.0846062
-0.0818543
-0.0845588
-0.087242
-0.0816396
-0.0845339
-0.086303
-0.0841512
-0.0912127
-0.100549
-0.100133
-0.09173
-0.113499
-0.12898
-0.124751
-0.110788
-0.147802
-0.169419
-0.160178
-0.141259
-0.17929
-0.192064
-0.166709
-0.153453
-0.212147
-0.176726
-0.157169
-0.14869
-0.15174
-0.137428
-0.199887
-0.150989
-0.175029
-0.113026
-0.130055
-0.0895303
-0.0996011
-0.0798496
-0.0834324
-0.0803799
-0.0789639
-0.0898639
-0.083919
-0.110347
-0.0986053
-0.14084
-0.124796
-0.170211
-0.156741
-0.182675
-0.17945
-0.175666
-0.182806
-0.165175
-0.124561
-0.137534
-0.211618
-0.195781
-0.223794
-0.221158
-0.215878
-0.2239
-0.184234
-0.202267
-0.143592
-0.163903
-0.110301
-0.125346
-0.0905548
-0.098793
-0.0824183
-0.0851995
-0.0841714
-0.0820941
-0.0958259
-0.0887513
-0.117552
-0.105368
-0.146821
-0.131229
-0.163378
-0.132129
-0.138469
-0.223632
-0.208717
-0.109965
-0.0999849
-0.112211
-0.186378
-0.203991
-0.150895
-0.176696
-0.110376
-0.128368
-0.0861287
-0.0962278
-0.0747
-0.0791025
-0.0733455
-0.0728288
-0.0810865
-0.0760891
-0.0979039
-0.0883886
-0.121464
-0.109208
-0.143636
-0.133441
-0.154714
-0.150971
-0.149869
-0.153635
-0.132128
-0.142633
-0.12086
-0.123085
-0.141866
-0.184234
-0.162309
-0.222376
-0.205262
-0.239167
-0.233871
-0.225003
-0.235468
-0.189543
-0.209076
-0.14718
-0.168342
-0.111246
-0.127744
-0.0886407
-0.0982572
-0.0780625
-0.0820224
-0.0778406
-0.0766861
-0.0874367
-0.0814612
-0.106009
-0.0957019
-0.130983
-0.117815
-0.155589
-0.144687
-0.187528
-0.161027
-0.161756
-0.22966
-0.226873
-0.21231
-0.101626
-0.181885
-0.155077
-0.091328
-0.141991
-0.0951037
-0.0868735
-0.122514
-0.123661
-0.250271
-0.241425
-0.251874
-0.201862
-0.229405
-0.146417
-0.172978
-0.105315
-0.12372
-0.0804622
-0.0910577
-0.0680886
-0.0729584
-0.0651334
-0.0655486
-0.0703319
-0.0667073
-0.0841399
-0.076146
-0.104485
-0.0938863
-0.123339
-0.114725
-0.132337
-0.129405
-0.127801
-0.131773
-0.112959
-0.121397
-0.103978
-0.117452
-0.110567
-0.122059
-0.186964
-0.163962
-0.22685
-0.208654
-0.244075
-0.239099
-0.229965
-0.240913
-0.191521
-0.212728
-0.146775
-0.168839
-0.109869
-0.126842
-0.0856987
-0.096208
-0.0727912
-0.0780045
-0.0696263
-0.0699925
-0.0761528
-0.0717147
-0.0910885
-0.0827371
-0.112202
-0.101099
-0.131336
-0.122732
-0.13464
-0.135643
-0.117818
-0.128293
-0.232867
-0.261778
-0.265367
-0.108292
-0.106086
-0.207312
-0.143948
-0.170162
-0.128902
-0.0800845
-0.104402
-0.249992
-0.266854
-0.264371
-0.24606
-0.261505
-0.193463
-0.221819
-0.138247
-0.164567
-0.0976363
-0.115801
-0.0726828
-0.0834109
-0.059715
-0.0649265
-0.0556719
-0.0567095
-0.0589637
-0.056432
-0.0694396
-0.0633087
-0.0855004
-0.077055
-0.100947
-0.0938223
-0.108265
-0.105975
-0.104945
-0.107883
-0.0935427
-0.0999449
-0.0797054
-0.0865971
-0.0680862
-0.0732802
-0.0747876
-0.0932877
-0.0845928
-0.105498
-0.100399
-0.108127
-0.101522
-0.139026
-0.118773
-0.184898
-0.161585
-0.225527
-0.207037
-0.24264
-0.237917
-0.227513
-0.238906
-0.188446
-0.209971
-0.142596
-0.165268
-0.104731
-0.122114
-0.0798093
-0.0907208
-0.0656081
-0.0715715
-0.0600483
-0.0617725
-0.0631428
-0.0605075
-0.0742582
-0.06783
-0.0907163
-0.082107
-0.105826
-0.0990878
-0.107826
-0.108742
-0.0926961
-0.102131
-0.080819
-0.0641617
-0.229432
-0.261433
-0.194998
-0.253427
-0.255325
-0.153614
-0.094706
-0.0804854
-0.0874986
-0.111942
-0.0765323
-0.0558026
-0.0531253
-0.057977
-0.248127
-0.231336
-0.222426
-0.252359
-0.243453
-0.231689
-0.247933
-0.179003
-0.207045
-0.126097
-0.151275
-0.0871626
-0.104613
-0.063067
-0.0734699
-0.0501729
-0.0554444
-0.0453261
-0.0468842
-0.0469192
-0.0453447
-0.0548151
-0.0500847
-0.0675858
-0.0608406
-0.0799116
-0.0742358
-0.0857988
-0.0839109
-0.0831864
-0.0855136
-0.074462
-0.0793437
-0.0641037
-0.0692064
-0.0595261
-0.0709902
-0.0517462
-0.061631
-0.0868587
-0.079556
-0.0959912
-0.0924456
-0.0961313
-0.0972148
-0.0928058
-0.132262
-0.112005
-0.177612
-0.154446
-0.21792
-0.199619
-0.234434
-0.230041
-0.21864
-0.230316
-0.179582
-0.200979
-0.134357
-0.156712
-0.0966049
-0.114028
-0.071199
-0.0824037
-0.0561249
-0.0625803
-0.0489078
-0.051604
-0.049078
-0.0480586
-0.0563835
-0.0519229
-0.0686156
-0.0621499
-0.0795851
-0.0748309
-0.0804754
-0.0816195
-0.068025
-0.0757333
-0.0486572
-0.0582852
-0.0404758
-0.217308
-0.249309
-0.076601
-0.0692119
-0.17714
-0.233214
-0.133962
-0.193228
-0.201907
-0.0958286
-0.0662928
-0.0416974
-0.0443655
-0.0306108
-0.0517524
-0.0424479
-0.236117
-0.160815
-0.146756
-0.20586
-0.178285
-0.233089
-0.225302
-0.211204
-0.227794
-0.160394
-0.187208
-0.110815
-0.134298
-0.0746714
-0.0908656
-0.0521953
-0.0619379
-0.0397937
-0.044946
-0.0345649
-0.0364129
-0.034879
-0.034075
-0.040393
-0.0369855
-0.0501489
-0.0449257
-0.0599441
-0.0554005
-0.0647179
-0.0631743
-0.0627596
-0.0645189
-0.0561939
-0.0598421
-0.0488055
-0.0523373
-0.0434562
-0.0457998
-0.0421303
-0.0689621
-0.0606879
-0.0823302
-0.0763146
-0.0888156
-0.0865857
-0.0867061
-0.0888398
-0.0825515
-0.0606663
-0.085698
-0.0717582
-0.121872
-0.102575
-0.165747
-0.143363
-0.20437
-0.186913
-0.219588
-0.21574
-0.203718
-0.215227
-0.165885
-0.18657
-0.122325
-0.143827
-0.0859186
-0.102774
-0.0607866
-0.0719951
-0.0450767
-0.0519369
-0.0365229
-0.0399849
-0.0344075
-0.0346659
-0.0384507
-0.0357176
-0.046918
-0.0423586
-0.054527
-0.0513076
-0.054502
-0.0558754
-0.0443439
-0.05044
-0.030158
-0.0370494
-0.0203329
-0.0245215
-0.0284264
-0.0161176
-0.0175232
-0.198255
-0.227902
-0.155324
-0.20428
-0.115274
-0.169812
-0.0829169
-0.115544
-0.129218
-0.0586065
-0.0409228
-0.0171665
-0.0281591
-0.0314999
-0.0207094
-0.0509824
-0.0530453
-0.0442577
-0.0424398
-0.0518211
-0.0148777
-0.0328913
-0.215705
-0.0871539
-0.0701864
-0.127973
-0.0980032
-0.182949
-0.157457
-0.206823
-0.200593
-0.184825
-0.200951
-0.137947
-0.162504
-0.0930773
-0.114213
-0.0607822
-0.0752465
-0.0405336
-0.0493563
-0.0290437
-0.0338775
-0.0237372
-0.0257391
-0.0230755
-0.022871
-0.026719
-0.0243553
-0.0340013
-0.0300444
-0.0416295
-0.0380631
-0.0454563
-0.0441958
-0.0440975
-0.0453699
-0.0393939
-0.0419801
-0.0344119
-0.0367801
-0.031486
-0.0326219
-0.0311117
-0.068712
-0.0613071
-0.0797937
-0.0749625
-0.0838896
-0.082842
-0.0798345
-0.0828716
-0.068289
-0.0748789
-0.0605199
-0.0748154
-0.0617143
-0.108602
-0.0904204
-0.14989
-0.128866
-0.1858
-0.169666
-0.19921
-0.196072
-0.183666
-0.194717
-0.148146
-0.167503
-0.10741
-0.127534
-0.0731408
-0.089053
-0.0489963
-0.0598636
-0.0331412
-0.0402002
-0.0235484
-0.0276274
-0.0196352
-0.0208886
-0.0211167
-0.0197537
-0.0264935
-0.023508
-0.031461
-0.0294172
-0.0305407
-0.0319118
-0.0227029
-0.027362
-0.0129938
-0.0176416
-0.00705197
-0.00957059
-0.00558295
-0.00564738
-0.00816662
-0.174519
-0.200441
-0.0450854
-0.0357169
-0.00626626
-0.13364
-0.173538
-0.0994516
-0.139071
-0.0729372
-0.101178
-0.0532833
-0.0462237
-0.0629684
-0.0394688
-0.0298559
-0.0230257
-0.0350946
-0.190022
-0.0259368
-0.00796286
-0.050997
-0.0277698
-0.10529
-0.0771845
-0.155693
-0.132419
-0.176194
-0.171939
-0.155133
-0.170096
-0.113166
-0.134954
-0.0741157
-0.0924103
-0.0462689
-0.0587526
-0.0286026
-0.0363431
-0.0182862
-0.0226805
-0.0131558
-0.0151749
-0.0118595
-0.0120762
-0.0140014
-0.0124951
-0.0192154
-0.0163162
-0.0250733
-0.0222965
-0.0281785
-0.0271204
-0.027353
-0.0282089
-0.0241448
-0.0258911
-0.0210646
-0.0224426
-0.0198617
-0.020154
-0.0213112
-0.0201236
-0.0258324
-0.0232281
-0.0382486
-0.0556382
-0.0471745
-0.0701023
-0.0633816
-0.0792548
-0.0754761
-0.081098
-0.0811737
-0.0750746
-0.0790313
-0.0622697
-0.0694122
-0.0539991
-0.0261252
-0.0406625
-0.032601
-0.0622965
-0.0504082
-0.0933002
-0.0766179
-0.131033
-0.111851
-0.163406
-0.148956
-0.174676
-0.172344
-0.159892
-0.170224
-0.127405
-0.145038
-0.0904128
-0.108699
-0.0589758
-0.0736432
-0.0362598
-0.0465769
-0.0206944
-0.0277316
-0.010489
-0.0149751
-0.00524825
-0.00724444
-0.00481877
-0.00447862
-0.00783777
-0.00606366
-0.0107852
-0.00961925
-0.00943372
-0.0107965
-0.00348269
-0.00684022
0.00266285
-9.99244e-05
0.00543777
0.00439792
0.00420118
0.00556062
0.000442588
-0.0291859
-0.149974
-0.171152
0.00875652
-0.0090167
-0.114709
-0.144271
-0.0867441
-0.112156
-0.0656897
-0.0777889
-0.0506755
-0.0429504
-0.0402277
-0.0336025
-0.0136611
-0.0268154
-0.021298
-0.0165312
-0.0167005
-0.011811
-0.0200559
-0.0211267
-0.162991
0.0231677
0.0403205
0.0103899
0.0264187
-0.0303207
-0.00837908
-0.0809458
-0.054946
-0.125898
-0.105534
-0.142727
-0.138432
-0.123321
-0.136797
-0.0873321
-0.105802
-0.054843
-0.0700036
-0.031731
-0.0421196
-0.0168227
-0.0233986
-0.0078427
-0.0117134
-0.0030857
-0.00501849
-0.00141585
-0.00191085
-0.00242764
-0.00158089
-0.00597094
-0.00393636
-0.0103739
-0.00824319
-0.0129134
-0.0120064
-0.012529
-0.0130482
-0.010466
-0.011577
-0.00874589
-0.00944258
-0.00878976
-0.00847335
-0.0113883
-0.0097109
-0.0136979
0.0054559
0.0358358
0.052694
-0.0426014
-0.0244877
-0.0335221
-0.0596989
-0.0514613
-0.0732084
-0.067073
-0.0806535
-0.0778373
-0.0803453
-0.0815057
-0.0723132
-0.0772309
-0.0580814
-0.0658363
-0.0401489
-0.0494118
-0.0305823
-0.0297009
-0.022586
-0.0490509
-0.0384516
-0.0767236
-0.0618387
-0.110253
-0.0932329
-0.138634
-0.126058
-0.147694
-0.146155
-0.133908
-0.14336
-0.104933
-0.120595
-0.0721672
-0.0883684
-0.0440439
-0.0572351
-0.023124
-0.0327246
-0.00815261
-0.0150121
0.00227488
-0.00240964
0.00836491
0.00587476
0.0101316
0.0097496
0.00880166
0.00970455
0.00731971
0.0078488
0.00880112
0.00759443
0.0129847
0.0107553
0.0160984
0.0149044
0.0166109
0.0166264
0.0135384
0.0157317
0.00337622
0.00923683
-0.00715421
-0.00278384
-0.00853317
-0.0257493
-0.0149348
-0.127929
-0.143618
-0.0173429
-0.00814
-0.0992895
-0.1186
-0.0774339
-0.0897194
-0.061486
-0.0585783
-0.0504766
-0.0264485
-0.0440856
-0.040774
-0.0346429
-0.0331718
0.0178099
0.0636522
0.0468538
0.0730207
-0.0155689
-0.0362009
-0.0299603
-0.0236097
-0.0206664
-0.137887
0.0788368
0.0879252
0.0568096
0.0684394
0.0284701
0.0436775
-0.00996726
0.010726
-0.0565372
-0.0328912
-0.0962668
-0.078623
-0.108743
-0.106598
-0.0912607
-0.102866
-0.0620206
-0.0768528
-0.036231
-0.0482538
-0.0177489
-0.0260962
-0.00555598
-0.0109758
0.00203431
-0.00127573
0.00629366
0.00451819
0.00811946
0.00746932
0.00791441
0.00827359
0.00569615
0.00703375
0.00249209
0.00408882
0.000406658
0.00119684
0.00043877
0.00018433
0.00163929
0.00100017
0.00234984
0.00215275
0.00137878
0.00212353
-0.00191275
4.18765e-05
-0.00753199
-0.00446418
-0.0111957
-0.0485526
-0.0392587
-0.0655467
-0.0573616
-0.0782534
-0.0725972
-0.0840234
-0.0821406
-0.0815948
-0.0838358
-0.0714949
-0.0774147
-0.055658
-0.0641309
-0.0367346
-0.0464282
-0.0269566
0.000498074
-0.00739204
-0.00311776
-0.0186789
-0.0124858
-0.0356244
-0.0263422
-0.0596629
-0.0467587
-0.0886462
-0.0739528
-0.112893
-0.102223
-0.119881
-0.119044
-0.107211
-0.115718
-0.0819178
-0.0955217
-0.0535427
-0.0675834
-0.0289139
-0.0405298
-0.010042
-0.0187932
0.00405872
-0.00248274
0.0143775
0.00967124
0.0208958
0.018132
0.0235194
0.0226613
0.0233495
0.0236498
0.0228766
0.0229717
0.0242727
0.0233056
0.0267216
0.0255466
0.0275036
0.0274207
0.0262671
0.027097
0.0221957
0.0247877
0.0132919
0.0182671
0.00517407
0.00843233
-0.00347613
0.00143171
-0.0322033
-0.0197671
-0.0116208
-0.109558
-0.11988
-0.0876337
-0.0973551
-0.0714691
-0.0713842
-0.0602689
-0.0427176
-0.0537303
-0.0125694
-0.0514978
-0.0487853
-0.0455729
-0.0483109
-0.048639
-0.025103
-0.0437877
0.116483
0.0282791
0.055994
0.0807176
-0.0365554
-0.00681755
0.0083957
0.0110421
0.00327198
-0.0116859
-0.0267715
-0.116642
0.107246
0.112677
0.0920116
0.100304
0.0716934
0.0825316
0.0447076
0.059275
0.00858161
0.0278491
-0.0333777
-0.012327
-0.0670993
-0.0524237
-0.075279
-0.0746007
-0.0606966
-0.0699789
-0.0384058
-0.0496224
-0.0189257
-0.02803
-0.00471045
-0.0111761
0.00494169
0.000613294
0.0111684
0.0084207
0.014859
0.0132866
0.0166791
0.0159682
0.0170051
0.0170274
0.0158025
0.0165921
0.0135919
0.0147391
0.0118969
0.0125853
0.0116513
0.0116025
0.0122028
0.0119136
0.0121749
0.0123383
0.0105578
0.0115925
0.00692281
0.00897021
0.0010202
0.00422413
-0.00263709
-0.0560895
-0.0464596
-0.0733718
-0.0652034
-0.0854407
-0.080269
-0.0895031
-0.0885669
-0.0848662
-0.0882452
-0.0725426
-0.0795477
-0.0548387
-0.0641844
-0.0346668
-0.0448827
-0.0146726
-0.0245072
-0.00535713
0.00171501
0.00534783
-0.00804437
-0.00272362
-0.0225016
-0.0145947
-0.0428183
-0.0319298
-0.0672047
-0.0548481
-0.087439
-0.0785855
-0.0926651
-0.0923525
-0.0811173
-0.0886893
-0.059385
-0.0709968
-0.0352824
-0.0472154
-0.0141126
-0.0241549
0.00261163
-0.00522227
0.0156158
0.00951781
0.0255196
0.0209528
0.0321054
0.0292534
0.0352048
0.0340613
0.0358163
0.0357025
0.0359965
0.0358305
0.037035
0.0364239
0.0378349
0.037598
0.0368487
0.0375764
0.0343951
0.0357801
0.0298189
0.0325058
0.0222081
0.0262227
0.0141748
0.0181684
0.00499389
0.00992534
-0.0117794
-0.00209354
-0.0953206
-0.100624
0.00532111
0.0131515
-0.0796372
-0.0804674
-0.0687693
-0.0565461
-0.0624182
-0.0296817
-0.060706
-0.000956594
-0.0613671
-0.0605261
-0.0610809
-0.0650884
-0.0642474
-0.0319832
-0.0570031
-0.0429835
-0.0241818
0.121986
0.121351
0.118481
0.0366396
0.0631333
0.0869
0.106655
-0.0171676
-0.0998143
0.114589
0.118853
0.101687
0.10884
0.0831901
0.093237
0.0577903
0.0714923
0.0246525
0.0421214
-0.0116885
0.00621725
-0.0377706
-0.0270443
-0.0437512
-0.0435644
-0.0330126
-0.0396978
-0.0172835
-0.0251881
-0.00336841
-0.00991804
0.00711426
0.00229944
0.0144968
0.0111522
0.0194492
0.0172372
0.0225466
0.0212005
0.0242489
0.0235455
0.0248827
0.0246937
0.0244203
0.0247963
0.0230267
0.023794
0.0216913
0.022277
0.0212427
0.0213458
0.0213044
0.0212764
0.0207556
0.0211701
0.0187307
0.0199515
0.0148785
0.0170322
0.0091329
0.0122365
0.00153563
0.0055673
-0.00801387
-0.00304252
-0.0233352
-0.0443563
-0.0337338
-0.0653111
-0.0549838
-0.0833862
-0.0749279
-0.094877
-0.0901785
-0.097198
-0.097242
-0.0901665
-0.094793
-0.075357
-0.083581
-0.0555209
-0.0658739
-0.0337875
-0.0446949
-0.0129242
-0.0231094
-0.00342917
0.0200721
0.0159435
0.0181256
0.0102358
0.0133157
0.0019455
0.00646554
-0.010088
-0.00353123
-0.0267767
-0.0178485
-0.046734
-0.0366207
-0.0632488
-0.0560475
-0.0670506
-0.0671079
-0.0566375
-0.0633227
-0.0381426
-0.0479466
-0.01796
-0.0279492
-5.09971e-05
-0.00859398
0.0145222
0.00762961
0.0262744
0.0207137
0.0355018
0.0312148
0.0418517
0.039064
0.0451499
0.0438532
0.0462939
0.0458913
0.0468232
0.0465595
0.0472388
0.0470877
0.0465947
0.0471178
0.0443998
0.0456574
0.0411712
0.0429106
0.0363864
0.0390423
0.0296888
0.033208
0.0221471
0.0259985
0.0128394
0.0179111
-0.00431056
0.00570187
-0.0133314
-0.013366
-0.0850374
-0.0857169
-0.0750827
-0.0672966
-0.0695676
-0.0448917
-0.0683801
-0.0192678
-0.0710545
0.00844841
-0.074632
-0.0769429
-0.0817831
-0.0853311
-0.0824202
-0.0704814
-0.0339029
-0.0578424
-0.0152972
-0.0436762
-0.0214563
0.120529
0.118323
0.116975
0.119704
0.115733
0.042718
0.0684822
0.0916832
0.109864
0.000658566
0.0262771
0.027642
-0.00421352
0.0216345
-0.0871778
0.122135
0.121818
0.117623
0.120699
0.107183
0.113139
0.0908003
0.0998113
0.0677458
0.0801545
0.0386128
0.0537681
0.00879175
0.0231754
-0.0111477
-0.00306042
-0.0156699
-0.0152893
-0.00913826
-0.01327
0.000902249
-0.00419887
0.0102151
0.00577232
0.0175873
0.0141572
0.0230199
0.0205297
0.026826
0.0251043
0.0293396
0.0282264
0.0308533
0.0302029
0.0316247
0.0313236
0.0316601
0.0317447
0.0309207
0.0313704
0.0299324
0.0304051
0.0293655
0.0295812
0.0290546
0.0292238
0.0281508
0.028732
0.0259059
0.0272223
0.0220354
0.024179
0.0165565
0.0195069
0.00939511
0.013224
0.00518446
-0.0300806
-0.00933403
-0.0192861
-0.0531897
-0.0414679
-0.0762317
-0.0649083
-0.0954817
-0.0866476
-0.106493
-0.102224
-0.107037
-0.108108
-0.0973873
-0.10339
-0.0797866
-0.0893848
-0.0575587
-0.0690359
-0.0340581
-0.0457677
-0.0120843
-0.0227433
0.00669807
-0.00224931
0.0146959
0.0227827
0.0246564
0.0179544
0.0205623
0.0110897
0.0148308
0.00133238
0.0066249
-0.0119799
-0.00487549
-0.0278345
-0.0197954
-0.0410069
-0.0352613
-0.0437422
-0.0440138
-0.0344493
-0.0403202
-0.0187654
-0.0270082
-0.00199288
-0.0102818
0.0129799
0.00580501
0.0254728
0.0195151
0.0358674
0.0309122
0.0442242
0.0403208
0.0501282
0.0475069
0.0534533
0.0520851
0.0549279
0.054351
0.0554795
0.0552904
0.055111
0.055452
0.0533497
0.0544112
0.0504311
0.0519927
0.0467719
0.0487047
0.041961
0.0445424
0.0358829
0.0390469
0.0291007
0.0325597
0.0204616
0.0252328
0.00741561
0.014225
-0.00391258
0.00196036
-0.00960017
-0.0783918
-0.0746091
0.0227603
0.0288214
-0.0741327
-0.0575445
-0.0741837
-0.0362712
-0.0784605
-0.0115443
-0.0858046
0.0153805
-0.0929283
-0.0996126
-0.106961
-0.109047
-0.102607
-0.0874853
-0.0707721
-0.0263475
-0.0506496
-0.00791267
-0.0297023
-0.00993911
0.115764
0.10991
0.111295
0.107429
0.100137
0.102204
0.0467992
0.0725403
0.095379
0.111246
-0.000343792
-0.0148029
-0.00494468
-0.0782976
0.117143
0.113117
0.120458
0.119577
0.117829
0.119857
0.109563
0.114388
0.0955743
0.103333
0.0756399
0.0863253
0.0513712
0.063818
0.0279738
0.0391001
0.0125866
0.0189317
0.00788957
0.00901475
0.0105525
0.00860615
0.0160889
0.0131789
0.0218061
0.0190166
0.0266817
0.0243741
0.0304886
0.0287186
0.0332945
0.0320075
0.0352577
0.0343717
0.0365436
0.0359739
0.0373326
0.0369918
0.0376621
0.0375629
0.0374141
0.0376116
0.0367623
0.037109
0.0361541
0.0364361
0.0355757
0.035889
0.034435
0.0351212
0.0321068
0.0334452
0.0283469
0.0304083
0.0232035
0.025943
0.0166455
0.0200952
0.00860427
0.0127577
0.00421178
-0.0375057
-0.0256932
-0.0631233
-0.0500605
-0.0888247
-0.0762759
-0.109333
-0.100078
-0.119977
-0.116089
-0.118688
-0.120839
-0.106213
-0.113707
-0.0855455
-0.0966591
-0.0606763
-0.0733916
-0.0352437
-0.0478313
-0.0119978
-0.0232177
0.00749879
-0.00174429
0.0157034
0.0340328
0.0317608
0.0329555
0.0288377
0.030415
0.0248328
0.0270052
0.0192696
0.0222832
0.0115713
0.0157235
0.00127963
0.00675269
-0.0108969
-0.00471925
-0.0211093
-0.0166365
-0.0230854
-0.0234326
-0.0149746
-0.0200703
-0.00162001
-0.00858898
0.0123292
0.00545761
0.0247788
0.0187965
0.0353444
0.0302763
0.0443391
0.0400268
0.051713
0.0482516
0.0570655
0.054661
0.0602967
0.0589257
0.0618494
0.0612465
0.0621137
0.0621374
0.0609812
0.061759
0.0584979
0.0598754
0.0552132
0.0569245
0.0513589
0.0533713
0.0466408
0.0491226
0.0410212
0.0439271
0.0347346
0.037963
0.0269437
0.0311574
0.0172331
0.0220518
0.00759261
0.0125373
-0.00111272
0.00314404
-0.00488161
-0.0754107
-0.0670678
-0.077103
-0.0511859
-0.0832707
-0.0308574
-0.0936153
-0.00673055
-0.105977
0.0198246
-0.117896
-0.128952
-0.136627
-0.135742
-0.124126
-0.104657
-0.0815759
-0.0558133
-0.00994499
-0.030854
0.00523887
-0.00888241
0.00632653
0.0920006
0.0904184
0.0815208
0.0824689
0.110664
0.103678
0.0933726
0.0492716
0.0757542
0.0979748
0.110292
-0.0204605
0.00802825
0.0384619
0.0392827
0.0349566
0.00402366
-0.00962579
-0.0730742
0.10459
0.0985066
0.113563
0.10968
0.117564
0.11619
0.116496
0.117682
0.11024
0.114018
0.0987602
0.105167
0.0823407
0.0911
0.0629676
0.0728092
0.0447202
0.0533979
0.0320994
0.0375207
0.026565
0.0285132
0.0262267
0.0259183
0.0284699
0.0271614
0.0315041
0.0299606
0.0344399
0.0330147
0.0369283
0.0357495
0.038885
0.0379724
0.040347
0.0396739
0.0413887
0.0409145
0.0421174
0.0417855
0.0425822
0.0423874
0.0426643
0.0426805
0.042317
0.042535
0.0417438
0.0420457
0.0409931
0.0414052
0.0396971
0.0404471
0.0373718
0.0386864
0.033796
0.0357425
0.0290117
0.0315477
0.0230685
0.0261843
0.0157682
0.0195712
0.0118974
-0.0454704
-0.0324138
-0.0741566
-0.0594539
-0.102528
-0.0887825
-0.124361
-0.114631
-0.134722
-0.13119
-0.131538
-0.134817
-0.116083
-0.125152
-0.092162
-0.104886
-0.0644683
-0.0785088
-0.0369926
-0.0505025
-0.0123994
-0.0242184
0.00786151
-0.00168732
0.023557
0.0162732
0.0297484
0.0365574
0.0375519
0.0341243
0.0354348
0.0308456
0.032606
0.0264389
0.0288038
0.0205367
0.0236974
0.0128505
0.0169171
0.00387011
0.00842345
-0.00373205
-0.000382299
-0.00515408
-0.00548411
0.00168392
-0.00262778
0.013076
0.00713606
0.0248053
0.0190518
0.0351991
0.0302021
0.0440784
0.0398078
0.0517281
0.048048
0.0580954
0.0550916
0.0628423
0.0606879
0.0658202
0.0645464
0.0671496
0.0666808
0.066949
0.0672326
0.0652293
0.0663832
0.0623763
0.0638951
0.0589511
0.060718
0.0550526
0.0570715
0.05051
0.0528678
0.0453202
0.0479876
0.0395372
0.0425157
0.0326586
0.0362796
0.0248694
0.0287752
0.0171317
0.0209815
0.0101381
0.0134783
0.0061538
0.00776153
0.00546005
-0.0763867
-0.0632077
0.0356912
0.0399668
-0.0846553
-0.0484784
-0.0977738
-0.0288228
-0.114788
-0.00481942
-0.133116
0.0220083
-0.150057
-0.163996
-0.169789
-0.164145
-0.145548
-0.119407
-0.0891208
-0.0580404
-0.029657
0.00832613
0.0187172
0.011598
0.0212231
0.0515153
0.0718028
-0.00606809
0.0612497
0.0718448
0.103336
0.094364
0.0831882
0.0510274
0.0784334
0.0987944
0.106714
0.000132483
-0.0717283
0.0716116
0.0619662
0.0883169
0.0803943
0.101052
0.0952358
0.109672
0.105848
0.11424
0.112489
0.114369
0.114881
0.109873
0.112706
0.100797
0.105895
0.0877454
0.0946912
0.0724839
0.08023
0.0578979
0.0649043
0.0469454
0.0518375
0.0407368
0.0432706
0.0383838
0.0391716
0.0383763
0.0381741
0.0394851
0.0388485
0.0409554
0.0402058
0.0423997
0.041695
0.0436519
0.0430544
0.0446703
0.0441903
0.0454671
0.0450944
0.0460902
0.0457964
0.0465779
0.0463528
0.0468413
0.0467483
0.0467368
0.0468398
0.0462593
0.0465399
0.0454287
0.0458951
0.0440412
0.0448262
0.0417643
0.0430327
0.0384098
0.040226
0.034004
0.036336
0.0286222
0.0314457
0.0222943
0.0255813
0.0154995
0.0189642
0.00870355
0.0119901
-0.00342545
-0.0258572
-0.0139447
-0.0535761
-0.0391073
-0.0855957
-0.0693055
-0.116491
-0.101603
-0.139698
-0.129453
-0.14982
-0.146629
-0.144714
-0.149141
-0.12622
-0.136894
-0.0990003
-0.113356
-0.068448
-0.0838286
-0.0389197
-0.0533497
-0.0130344
-0.0254197
0.00798583
-0.00188006
0.0240872
0.0165989
0.0304357
0.043496
0.0421891
0.0428737
0.0406351
0.0414486
0.0386192
0.0396937
0.0359992
0.0373937
0.0326017
0.0344095
0.0282174
0.0305454
0.0227016
0.0255983
0.0164077
0.0195873
0.011095
0.0134419
0.0101744
0.00987027
0.0157156
0.0122018
0.0253208
0.0202752
0.0353193
0.0304204
0.0441228
0.0398959
0.051619
0.0480156
0.0580724
0.0549665
0.0634758
0.0609194
0.0675563
0.0656984
0.0700837
0.0690214
0.0709686
0.0707321
0.0702296
0.0707979
0.068163
0.0692302
0.0652588
0.0667979
0.0618336
0.0635958
0.0579933
0.0599702
0.0536657
0.0558922
0.0488642
0.0513197
0.0435796
0.0462946
0.0375698
0.0406709
0.0311341
0.03436
0.0248607
0.0279421
0.0194627
0.021974
0.0163608
0.01754
0.0161572
0.0158683
0.0171692
0.00571827
-0.0818899
-0.0633865
-0.0976199
-0.0496404
-0.118607
-0.0301606
-0.143104
-0.00552385
-0.167617
0.0224452
-0.188979
-0.202944
-0.20461
-0.191281
-0.165083
-0.130437
-0.0927089
-0.0567086
-0.0259815
-0.00152095
0.0241678
0.0158407
0.0530917
0.0431985
0.0403781
0.0301881
0.027439
0.0324515
0.0497144
0.0602386
0.0940551
0.0834664
0.0718032
0.052755
0.0804655
0.0974975
0.100377
0.0161585
0.046318
0.0467364
0.0135464
0.0439726
-0.0747234
0.0709276
0.0623916
0.0857029
0.0786792
0.0974773
0.0919965
0.105791
0.102066
0.110637
0.108668
0.111633
0.111642
0.10857
0.11061
0.101619
0.105556
0.091407
0.0968576
0.079288
0.0854694
0.0673359
0.0731479
0.0576427
0.0621038
0.0511725
0.0539993
0.0476376
0.0490858
0.0461812
0.0467061
0.0459558
0.0459588
0.0463477
0.0461026
0.0469837
0.0466509
0.0476637
0.0473257
0.0482994
0.0479898
0.0488619
0.0485903
0.0493555
0.049116
0.0497953
0.0495829
0.0501207
0.0499811
0.0501717
0.0501914
0.0498155
0.050049
0.0489898
0.0494663
0.0475749
0.0483682
0.0453726
0.0465849
0.0422512
0.0439311
0.038233
0.0403532
0.0334265
0.0359315
0.0279661
0.0307867
0.0220293
0.0250512
0.019002
-0.00641092
0.0113349
0.00320664
-0.0307251
-0.0177321
-0.0614437
-0.045329
-0.0964709
-0.0787713
-0.129686
-0.113727
-0.154215
-0.143471
-0.164102
-0.161242
-0.157132
-0.162672
-0.13571
-0.147932
-0.105337
-0.121248
-0.0720943
-0.0887314
-0.0406544
-0.0559376
-0.0136258
-0.026499
0.00805128
-0.00210173
0.0244502
0.0168703
0.0361622
0.0308519
0.0405038
0.0452733
0.0458354
0.0439934
0.0446749
0.0423801
0.043238
0.0403445
0.0414202
0.0378042
0.039143
0.0346663
0.0363147
0.0308975
0.032855
0.0267783
0.028839
0.0234298
0.0248905
0.023079
0.0227276
0.0274724
0.0246743
0.0353798
0.0311768
0.0439131
0.0397101
0.051483
0.0478503
0.0578886
0.0548178
0.0633361
0.0607227
0.0678518
0.0657201
0.0712154
0.0696946
0.0731652
0.0723792
0.0735612
0.0735579
0.0724753
0.0731901
0.0702673
0.0714545
0.0673671
0.0688874
0.0640175
0.0657381
0.0603047
0.0622073
0.0562168
0.0583074
0.0517745
0.0540375
0.0469623
0.0494218
0.0417053
0.0443824
0.0362832
0.0389874
0.0311312
0.0336422
0.0268823
0.0288371
0.0244083
0.0253848
0.0241577
0.0239267
0.0262609
0.0248445
0.0280988
-0.0925763
-0.0679284
0.0443437
0.0470779
-0.11683
-0.0547421
-0.146592
-0.0345891
-0.17875
-0.00821315
-0.208925
0.0219703
-0.232114
-0.242841
-0.23709
-0.214719
-0.178939
-0.135564
-0.0912075
-0.0515611
-0.0191745
0.00464087
0.0328326
0.036567
0.0271672
0.0222643
0.0206405
0.0287196
0.034627
0.0307365
0.0373661
0.0476792
0.0376682
0.0364104
0.0387386
0.0828977
0.0712079
0.059236
0.0548744
0.0813119
0.0933016
0.0915982
0.0181087
0.00949128
0.0164902
-0.0825345
0.0544023
0.0456812
0.0701481
0.0625888
0.0832881
0.0770219
0.0940278
0.0889729
0.101975
0.0983747
0.10688
0.104825
0.108431
0.108095
0.106499
0.107896
0.101284
0.104281
0.093287
0.0975843
0.0835579
0.0885495
0.0736415
0.0785213
0.0650595
0.0690985
0.0586908
0.0615785
0.0545733
0.0563724
0.0522429
0.0532206
0.0511271
0.0515661
0.0507473
0.0508691
0.0507718
0.0507242
0.0509963
0.0508678
0.0513091
0.051146
0.051655
0.0514801
0.0520095
0.0518319
0.0523625
0.0521873
0.0526664
0.0525274
0.0527837
0.0527599
0.0525298
0.0527142
0.0517687
0.0522193
0.0503932
0.051165
0.0482935
0.0494406
0.0454048
0.0469496
0.0417646
0.0436753
0.0374963
0.0397037
0.0327483
0.0351769
0.0275839
0.0302125
0.0224337
0.0249493
0.0201135
-0.008992
0.00107968
-0.0349383
-0.0209647
-0.0683302
-0.0507654
-0.105784
-0.0869325
-0.140997
-0.124109
-0.166631
-0.155482
-0.176249
-0.173711
-0.167592
-0.174139
-0.143587
-0.157171
-0.110456
-0.127725
-0.0749112
-0.0926198
-0.0418705
-0.0578611
-0.0139318
-0.0271828
0.00818276
-0.00214894
0.0247503
0.0171234
0.0365022
0.0311684
0.0408641
0.0491886
0.0485841
0.0489184
0.0477686
0.0482069
0.0467383
0.0472808
0.0454788
0.0461406
0.0439471
0.0447484
0.0421184
0.0430708
0.039979
0.041087
0.0375722
0.0388008
0.035141
0.0363301
0.0334019
0.0341143
0.0337112
0.0332051
0.0372906
0.0350686
0.0436616
0.0402431
0.0508273
0.0472635
0.0573464
0.0542085
0.0628637
0.0602264
0.0674731
0.065275
0.0711957
0.0694522
0.0738578
0.072674
0.0752321
0.0747165
0.0752142
0.0753947
0.0739263
0.0747121
0.0716986
0.0729001
0.0688655
0.070341
0.0656396
0.0672947
0.0620964
0.0639058
0.0582584
0.0602127
0.0541532
0.0562375
0.0497816
0.0520029
0.0451598
0.0474924
0.0405226
0.0428228
0.0362229
0.038304
0.0327854
0.0343551
0.030746
0.0315774
0.03035
0.0303164
0.0319023
0.0308902
0.0347316
0.0332133
0.0362615
-0.109105
-0.0770551
-0.142888
-0.0635852
-0.181634
-0.0414216
-0.220735
-0.0118657
-0.254059
0.0216462
-0.275169
-0.278733
-0.262899
-0.229609
-0.184204
-0.133226
-0.0840858
-0.0424136
0.0180917
0.023628
0.0158207
0.00944756
-0.010426
0.0119461
0.0118155
0.0169185
0.0255803
0.0243278
0.0336085
0.0342031
0.0393191
0.0375673
0.0700471
0.0576858
0.0454712
0.0570663
0.0798445
0.085922
0.0805247
0.00809766
0.023785
0.0507694
0.0392732
0.0409698
0.04076
0.0509192
0.0494151
0.0222661
0.0152506
-0.0955947
0.0397732
0.0316282
0.0552639
0.047704
0.0690895
0.0624132
0.0809596
0.0752841
0.0908115
0.0861508
0.0982965
0.0948771
0.103103
0.10105
0.105009
0.104431
0.103944
0.104845
0.100056
0.102337
0.0937534
0.0971661
0.0858697
0.0899402
0.0775954
0.0816995
0.0700353
0.0736549
0.0639988
0.0667985
0.0596898
0.061636
0.0568809
0.0581195
0.0551991
0.0559227
0.0542846
0.0546654
0.053858
0.0540241
0.0537273
0.0537645
0.0537729
0.0537333
0.0539244
0.0538386
0.054139
0.0540258
0.054387
0.054261
0.0546211
0.054511
0.0547298
0.0547011
0.0545335
0.0546829
0.0538556
0.0542636