/*--------------------------------*- C++ -*----------------------------------*\
  =========                 |
  \\      /  F ield         | OpenFOAM: The Open Source CFD Toolbox
   \\    /   O peration     | Website:  https://openfoam.org
    \\  /    A nd           | Version:  10
     \\/     M anipulation  |
\*---------------------------------------------------------------------------*/
FoamFile
{
    format      ascii;
    class       surfaceScalarField;
    location    "31.5";
    object      phi;
}
// * * * * * * * * * * * * * * * * * * * * * * * * * * * * * * * * * * * * * //

dimensions      [0 3 -1 0 0 0 0];

internalField   nonuniform List<scalar> 
29080
(
0.0907181
-0.145246
-0.0152988
0.0698267
0.0509672
0.0397509
0.0110342
0.027595
-0.0246417
-0.0139875
0.0394056
0.00522103
-0.0335924
0.0362655
-0.00149689
0.00463702
0.0315452
-0.0584956
0.0475992
-0.0206488
-0.0485132
0.0291694
0.0508889
0.031991
0.00457081
-0.0439771
0.00741524
-0.0297545
0.0673032
-0.00555767
0.0110818
-0.103355
-0.0159824
0.0608423
-0.0838411
0.0553399
0.0822413
0.0662589
-0.017879
-0.107394
0.037727
0.0652187
0.00444829
0.00080612
0.0360234
-0.0124137
-0.0217428
0.0500561
0.026493
0.0535406
-0.0882879
0.00825423
0.0200154
0.0748216
0.0204107
0.0635871
-0.0040644
-0.00786886
-0.000420544
0.00176733
0.00652208
-0.013426
-0.0263144
0.0318715
-0.00220478
-0.0106011
-0.000620136
-0.00449998
0.00187466
0.00465664
-0.0073893
-0.0696833
0.0027758
0.00678928
0.0601183
-0.0349709
-0.0484891
0.0137767
0.0403582
-0.038302
-0.0370271
-0.00116839
0.00285283
0.0044312
-0.00611564
0.0084368
-0.00960519
-0.00483931
0.0132761
0.0035799
-0.00556638
0.00435226
0.00365884
-0.02402
-0.00271751
0.0200012
0.00673633
0.00148345
-0.0187821
-0.00672136
0.0236097
0.00134052
-0.0234668
0.0151664
0.0057258
0.0158369
0.0193307
-0.0339822
0.0132973
0.029785
-0.00909998
0.0256967
-0.049213
-0.010466
0.0147932
0.0128075
-0.00190394
0.0177568
0.0103337
0.0175323
0.0300094
0.0975006
0.017628
-0.0591456
-0.055983
0.015639
0.0918137
-0.0099521
-0.0790501
0.0822059
0.0124832
-0.0671368
0.00571473
-0.0584127
-0.00273576
0.0128797
0.0482687
-0.0666687
0.0110319
-0.0452315
0.018921
0.074541
0.0241306
-0.0373436
-0.061328
-0.0234008
0.0204973
0.0774445
0.0719545
-0.112481
0.074566
-0.0340394
-0.0435629
0.0611239
0.0543935
0.00325728
0.0301779
-0.0215957
-0.0118396
0.0399761
-0.00266958
-0.0340492
-0.00326384
0.0051385
0.0013928
-0.0624654
-0.0361485
0.00987133
0.0887425
-0.0255181
0.0212965
-0.0582438
0.0541613
-0.0583875
-0.021292
0.0526978
-0.0346849
0.0683275
-0.00575837
0.093634
-0.0412183
-0.0524157
-0.0628714
0.0536284
0.102877
-0.0288223
-0.0298651
0.0203854
-0.0034798
0.0163743
-0.0417168
0.0135956
-0.0469405
0.00544864
0.00735881
0.0157824
-0.0125658
0.0822846
0.0124871
-0.0596493
0.0665823
-0.00445204
-0.00248093
-0.0967257
-0.018397
0.0554734
-0.0174778
0.0204849
-0.0411377
0.0180583
-0.0428049
0.00434139
-0.025735
0.0271195
-0.0336425
0.000236457
0.0377474
-0.0264187
0.00202415
0.04106
-0.0399442
-0.00257182
0.00145599
-0.00153915
-0.000724566
0.0433237
0.0152937
-0.0164609
-0.0207861
0.0219533
-0.00467259
0.0439305
-0.0239642
-0.0119874
0.053555
-0.00159149
0.0535395
-0.00933815
-0.0561887
0.0792848
-0.0126562
-0.0903348
0.0237062
-0.0110338
0.054745
0.0355736
0.0364627
0.0106305
-0.0120538
-0.0350393
0.0382644
-0.0154353
0.0136336
0.0188257
-0.0388786
0.0404486
-0.0203956
-0.0385465
0.0393771
0.017995
-0.0162569
0.0402692
-0.0385214
0.014509
0.0435088
-0.0190245
-0.0407412
0.0199045
0.0334613
-0.0351749
-0.0181908
0.034032
0.0208901
-0.0350176
0.0212484
0.0360112
-0.0374164
-0.0198433
0.0368183
0.0219076
-0.0374775
0.0257999
0.0843081
-0.122764
-0.0752285
0.0776277
-0.0124029
-0.0517587
0.00997879
0.0541828
-0.0489117
-0.0175505
0.0540593
0.0119863
-0.0127547
-0.0481433
0.00942983
-0.0492023
-0.0526956
0.00769864
0.0523368
-0.00733983
0.0102566
-0.0529734
-0.000695842
-0.0191193
0.00198485
0.0178303
-0.011293
0.0106477
-5.05972e-05
0.00120815
-0.0122329
-0.000268237
0.00255557
-0.0204667
-0.0182835
-0.00302509
0.00252653
0.0108861
-0.0271848
0.0188945
0.0394024
-0.016721
-0.0415759
0.0221897
0.0545513
-0.0578466
0.00461598
0.0569762
-0.00873042
-0.0118042
0.0138132
-0.00300101
0.0049183
0.0135391
-0.0378726
-0.0145451
-0.0323078
0.00730045
-0.0314426
-0.00964521
0.00877994
-0.0127417
-0.021591
0.00289017
0.0376237
-0.0466418
-0.00372366
-0.00989409
-0.0234662
0.0051624
-0.00328719
0.0116836
-0.0258269
-0.00932288
0.0460726
-0.046503
0.0121139
0.00459325
-0.0279957
0.0169361
-0.0147674
0.0217056
-0.0300527
-0.0196486
0.0469523
-0.0474381
0.0221915
0.0173855
-0.0315684
0.0248338
-0.0233182
0.0272561
-0.0328545
-0.0259699
0.0480301
-0.0487189
0.0279448
0.0254258
-0.0336097
0.0280618
-0.0273066
0.0286018
-0.0342892
-0.0279223
0.0494277
-0.0500971
0.0292712
0.0287706
-0.0346776
0.0281778
-0.0277894
0.0282293
-0.0351954
-0.0277115
0.0506713
-0.0511299
0.0286879
0.028752
-0.0355991
0.0279707
-0.0275669
0.0285109
-0.0361843
-0.0279258
0.0514459
-0.0516274
0.0286925
0.0282866
-0.0366476
0.0287704
-0.0283071
0.029637
-0.037199
-0.0290856
0.0516897
-0.0516449
0.0295922
0.0288327
-0.0471811
0.0299798
-0.0199976
0.0306241
-0.047165
-0.0306402
0.0514672
-0.0511137
0.0302705
0.0298021
-0.0488516
0.0342035
-0.0325169
0.0311316
-0.0487062
-0.0312769
0.0491177
-0.0474936
0.0295075
0.0322075
-0.0486483
0.0322989
-0.0323569
0.0293036
-0.0468721
-0.0310798
0.0453409
-0.0452458
0.0292085
0.0301462
-0.0244338
0.0226968
-0.0454781
-0.0258278
0.022326
-0.0243529
0.0424754
0.0205971
0.041106
-0.0211725
-0.0433301
0.0436813
-0.0409316
-0.0271026
0.0266698
0.0450711
-0.0280595
0.0243717
0.0447735
0.0408571
-0.0403173
0.0174553
0.0434023
0.0180519
0.0501413
-0.0487285
-0.0272407
-0.0501797
0.0501714
-0.0323486
-0.0311182
-0.0511085
0.049377
-0.0307854
-0.032214
-0.0430943
0.0524221
-0.0293253
-0.0243575
-0.0519948
0.0514833
-0.0277956
-0.0286584
-0.0508699
0.0501556
-0.0268527
-0.0273124
-0.0493424
0.0484649
-0.026912
-0.0268982
-0.0475552
0.0466688
-0.0264202
-0.0270126
-0.0458205
0.0450399
-0.0225375
-0.0251217
-0.0443347
0.0437753
-0.0142079
-0.0189434
-0.043297
0.0428649
-0.00285508
-0.00884463
-0.043011
0.0444728
0.00731814
0.00274411
0.0114559
-0.021641
0.0211674
0.043876
0.0438367
0.0402595
-0.0420052
-0.0127994
-0.0210677
0.0434813
-0.0464511
-0.000753869
-0.00841796
0.0478354
-0.0482303
0.0125089
0.00597749
0.0487879
-0.0493079
0.0227115
0.0179431
0.049757
-0.0501708
0.0283586
0.0258749
0.0505714
-0.0509461
0.0296459
0.0291712
0.0512501
-0.051457
0.0288949
0.0290559
0.0515462
-0.0515181
0.0286644
0.0283758
0.0513813
-0.0511337
0.0293446
0.0286959
0.0507467
-0.0499513
0.029475
0.0294151
0.0472257
-0.0470585
0.0293404
0.0294819
0.0454258
-0.0421938
0.0259764
0.0285136
0.0207723
-0.0280012
0.0265481
0.0462267
-0.0305792
0.047649
-0.0211864
-0.0487147
0.00839592
-0.0101363
-0.0390007
0.0431043
-0.0424836
0.0205466
-0.0235383
0.0437945
0.0228481
-0.0243299
0.0446676
-0.0377589
0.00763343
0.0532514
-0.0522234
-0.0282686
-0.0526598
0.0511688
-0.0308576
-0.0305266
-0.0504617
0.0488375
-0.0291612
-0.031507
-0.0534772
0.0529157
-0.0287639
-0.0289971
-0.0523228
0.0516968
-0.0271696
-0.0280654
-0.0510198
0.050256
-0.0260889
-0.0266353
-0.0493608
0.048326
-0.0258772
-0.026003
-0.047168
0.0459611
-0.0252132
-0.0258546
-0.0447912
0.0437534
-0.0214998
-0.0239517
-0.0428908
0.0422593
-0.0135765
-0.0180808
-0.0419005
0.041999
-0.0029535
-0.00848585
-0.0420685
0.0413321
0.00805458
0.00267456
-0.0409713
0.0425194
0.0159072
0.0118166
0.0180877
0.0460549
-0.0472351
-0.0312932
0.0479491
0.0464717
-0.0483609
-0.0252134
-0.0288229
0.0502688
-0.049133
-0.0139352
-0.0191599
0.0500796
-0.0501542
-0.000679214
-0.00747143
0.0503616
-0.0505932
0.0127405
0.00618483
0.0508799
-0.051187
0.0230186
0.0182298
0.0514596
-0.0516651
0.028564
0.0261475
0.0518033
-0.0518832
0.0297258
0.0293094
0.051901
-0.0518433
0.0288372
0.0290737
0.0517022
-0.0514648
0.028427
0.0282347
0.0511267
-0.0506687
0.0288866
0.0283578
0.0500711
-0.0495569
0.0289608
0.0288175
0.0482349
-0.0465718
0.0276773
0.0281598
0.0437299
-0.0395356
0.0217821
0.0256717
0.037869
-0.0354648
0.0121048
0.0191056
0.000730927
-0.00246159
-0.0360283
0.0352494
-0.0347246
0.000206115
0.00741811
-0.0512295
-0.0221803
-0.0121299
-0.0413365
-0.00344748
-0.0380148
0.0244703
-0.0258866
0.0460839
-0.00608952
0.00492058
-0.0348593
-0.0072933
-0.0335209
0.0223096
0.0459552
0.0493612
-0.0500078
-0.0306466
0.0429721
-0.0423246
0.0198991
0.0448555
0.0209647
0.0316349
0.0497803
-0.0320539
0.030767
0.0488169
0.0136818
-0.0148677
-0.0500436
-0.0471627
0.0561624
-0.0545194
-0.0165108
-0.0568979
0.056
-0.0273707
-0.0229157
-0.0552943
0.0548568
-0.0304201
-0.029821
-0.0537009
0.0542432
-0.0297034
-0.030351
-0.0542829
0.0535263
-0.0280073
-0.0290369
-0.0527253
0.0518982
-0.0263424
-0.0272645
-0.0510161
0.050051
-0.0251238
-0.0257532
-0.0489734
0.0478015
-0.0247053
-0.0249254
-0.0465639
0.0453162
-0.0239655
-0.024617
-0.0441087
0.0430231
-0.0204141
-0.0227443
-0.0421281
0.0414872
-0.0129356
-0.0171858
-0.0410978
0.0409657
-0.00282138
-0.00809645
-0.0411992
0.0417095
0.0075442
0.00244106
-0.0418133
0.0418556
0.015865
0.0117128
0.0176187
0.0277665
-0.0304808
0.048941
0.0479347
0.0479353
0.0512114
-0.052775
-0.0236498
-0.0276193
0.0527016
-0.0526797
-0.0139571
-0.0192333
0.0527096
-0.0528175
-0.000571271
-0.00744157
0.0529486
-0.0530829
0.0128748
0.00631589
0.0531851
-0.0532354
0.0230689
0.018332
0.0532254
-0.053149
0.0284877
0.0261375
0.0530178
-0.0528385
0.0295465
0.0291782
0.0526111
-0.0523219
0.0285479
0.0288463
0.0519659
-0.0515229
0.0279839
0.0278787
0.0509835
-0.0503193
0.0282223
0.0278185
0.0495187
-0.0485355
0.0279776
0.028017
0.0473595
-0.0454617
0.0257795
0.0269839
0.0430439
-0.0415531
0.0202913
0.0232539
0.0386194
-0.0370296
0.010515
0.0161719
0.0348326
-0.0333335
-0.00129303
0.00522113
0.0326977
0.0136076
-0.0326517
-0.0136536
-0.00792908
-0.00405923
-0.0407248
-0.00684964
0.00530829
-0.0485022
-0.0522679
-0.0091011
-0.0315695
0.0302896
0.0500968
-0.0314829
0.0496937
0.00441119
-0.0375055
0.0134434
-0.0333566
0.0131255
-0.0345414
-0.0191526
0.0194349
-0.033639
0.0217108
0.0454543
-0.0177723
-0.0459137
0.00146436
-0.00264254
-0.0510898
0.0569123
-0.0543309
-0.00111701
-0.0581141
0.0596158
-0.0180125
-0.0103029
-0.0603753
0.0594859
-0.0264813
-0.0236752
-0.0585197
0.0576495
-0.02955
-0.0288548
-0.0569121
0.0560449
-0.0288362
-0.0296137
-0.0551005
0.0541245
-0.0270314
-0.0280924
-0.0531341
0.0521497
-0.025358
-0.0262741
-0.051143
0.0500737
-0.0240545
-0.0247465
-0.0488869
0.047582
-0.0234005
-0.0237386
-0.0461943
0.0448132
-0.0225844
-0.0232293
-0.0435166
0.042387
-0.0192846
-0.0214477
-0.0414753
0.0408318
-0.012292
-0.0162741
-0.0404803
0.0404462
-0.00278726
-0.00774498
-0.0407023
0.0412569
0.00698954
0.00218504
-0.0416391
0.042432
0.0150722
0.0113306
-0.0425591
0.0431451
0.0193131
0.0174915
-0.0441406
0.0456405
0.020211
0.0199692
-0.0229587
0.0218348
0.0465783
0.0244816
-0.0265147
0.048117
0.047478
0.0273816
-0.0283699
0.0499293
0.0488016
0.049855
-0.0505295
-0.031309
0.0503556
0.0518966
-0.0532764
-0.0292668
-0.0306868
0.0548968
-0.0550698
-0.0234768
-0.0259989
0.0552123
-0.0553495
-0.0138199
-0.0190908
0.0554791
-0.0555906
-0.000459751
-0.00731202
0.0556499
-0.0556313
0.0128562
0.0063752
0.0555284
-0.0553325
0.0228731
0.018229
0.05505
-0.0546831
0.0281208
0.025855
0.0542653
-0.0538146
0.0290958
0.0287604
0.0533478
-0.0528452
0.0280453
0.0283795
0.0522952
-0.0516648
0.0273536
0.0273287
0.0509415
-0.0500898
0.0273707
0.0270951
0.0491046
-0.0479464
0.0268193
0.0270318
0.0466091
-0.0450562
0.0242266
0.0256466
0.0433544
-0.0412997
0.0182367
0.0215521
0.0387247
-0.0366807
0.0084711
0.0135969
0.034353
-0.0327827
-0.0028634
0.00289345
0.0318479
-0.0326545
-0.012847
-0.00886387
-0.0169655
0.0218525
0.0456227
0.00459448
-0.0409081
-0.00357495
-0.0475698
0.0133914
-0.0377714
-0.0102356
-0.0523895
0.0082942
-0.011703
-0.0496223
0.0199605
-0.035067
0.0518893
-0.0534374
-0.0297609
0.0304382
0.0504577
-0.0290066
0.029954
0.0508397
0.0224797
-0.0352286
-0.0206735
0.0222078
-0.0365518
0.045301
-0.0454412
0.0203512
0.0459911
0.0211624
-0.0190301
-0.0448941
0.017223
-0.0186261
-0.0509864
0.0557357
-0.053478
0.0149653
-0.0578459
0.059595
-0.00286617
0.00618399
-0.0606424
0.0609275
-0.0182976
-0.0113502
-0.0609172
0.060731
-0.0262951
-0.0236649
-0.0601288
0.0592358
-0.028657
-0.0282525
-0.058166
0.0570192
-0.0276895
-0.0285439
-0.0558463
0.0546865
-0.0258716
-0.0269194
-0.0535398
0.0524145
-0.0242327
-0.0251274
-0.0512836
0.0501182
-0.0228891
-0.0236156
-0.048865
0.0475113
-0.0220468
-0.0224854
-0.0460716
0.0446252
-0.021138
-0.0217895
-0.0432584
0.0420726
-0.0180988
-0.0200809
-0.0411344
0.0404971
-0.0116547
-0.0153359
-0.0401739
0.0401714
-0.00278475
-0.0074218
-0.040471
0.0410666
0.00639393
0.00188547
-0.0418943
0.0429054
0.0140611
0.0105029
-0.0439299
0.0447781
0.0184649
0.0164671
0.0193061
0.0239707
-0.0249719
0.0475795
-0.0227176
0.0219966
0.0467122
0.0468758
0.0261285
-0.0267637
0.0487523
0.0486346
0.0278943
-0.0281513
0.0501864
0.0499321
0.028625
-0.0291173
0.0505891
0.0503287
0.0505304
0.0545651
-0.0565689
-0.027263
-0.0295591
0.0570368
-0.0574314
-0.0230821
-0.025531
0.0577558
-0.0580273
-0.0135484
-0.0187664
0.0582319
-0.0583479
-0.000343741
-0.00710739
0.0583402
-0.0581741
0.01269
0.00636746
0.0578598
-0.0574079
0.0224212
0.0179148
0.0568531
-0.0562113
0.027479
0.0253002
0.0555255
-0.0548151
0.0283855
0.0280745
0.0541122
-0.0533981
0.0273312
0.0276766
0.0526616
-0.0518583
0.0265503
0.0265922
0.0509712
-0.049958
0.0263575
0.026208
0.0488155
-0.0475072
0.025511
0.0258893
0.0460408
-0.0443943
0.0225801
0.0241802
0.04264
-0.0408423
0.016439
0.0197978
0.0391507
-0.0376627
0.00698304
0.0119053
0.0362506
-0.0351322
-0.00398183
0.0014814
0.034939
-0.0345324
-0.0132537
-0.00905702
0.0352164
-0.0354459
-0.0179613
-0.0162815
-0.0184648
0.0130547
-0.0405713
-0.0121715
-0.0471014
-0.0291983
0.0290474
0.0509906
-0.0289547
0.0502142
0.0203378
-0.0381487
-0.0198903
-0.0483581
0.0251456
-0.0377328
-0.0239723
-0.0518429
0.0223371
-0.0253797
-0.049579
0.0247854
-0.0378062
0.023679
-0.0383232
0.0470937
-0.0439768
0.0188796
-0.0215283
0.0233031
-0.0392523
-0.0387359
-0.0202088
0.0212744
-0.0225637
0.0480014
0.0484841
0.019884
-0.0440109
0.0267374
-0.0285374
-0.0500429
0.0542599
-0.0524262
0.0249038
-0.0569938
0.0595076
0.0124515
0.0196032
-0.0615553
0.0631353
-0.00444617
0.00413632
-0.0642699
0.0641166
-0.0181443
-0.0124848
-0.0634123
0.0628415
-0.0257244
-0.0229606
-0.0618528
0.0606157
-0.0274198
-0.0272638
-0.0592534
0.0578738
-0.0263098
-0.0271816
-0.0565145
0.0552036
-0.0245607
-0.0255602
-0.0539296
0.0526987
-0.0230018
-0.0238533
-0.0514841
0.0502554
-0.0216604
-0.022401
-0.0489515
0.047552
-0.0206473
-0.0211815
-0.0460676
0.0445799
-0.0196503
-0.0203051
-0.0431789
0.0419707
-0.0168906
-0.0186799
-0.041024
0.0403929
-0.0110236
-0.0143893
-0.0400914
0.0401222
-0.00281553
-0.00712031
-0.0404582
0.0410781
0.00577402
0.00154947
-0.0419269
0.0429513
0.0130366
0.00965417
-0.0435425
0.0444252
0.0175822
0.0158759
-0.0447271
0.0452081
0.0198702
0.0190042
0.0223937
0.0239237
-0.0246674
0.0483232
0.0482359
0.0261121
-0.0272799
0.0499201
0.0500793
0.0275923
-0.0277295
0.0503236
0.0502446
0.0282825
-0.028863
0.0511696
0.0508816
0.0507148
-0.0522385
-0.0271548
0.0504385
0.0530784
-0.0545679
-0.0282715
-0.0281666
0.0575701
-0.0583856
-0.0264475
-0.0265569
0.0590979
-0.0597143
-0.0224656
-0.0248187
0.0602134
-0.0606017
-0.0131601
-0.0182673
0.0608582
-0.0609628
-0.000239121
-0.00685098
0.060875
-0.0605737
0.0123888
0.00627966
0.060069
-0.0593822
0.0217344
0.0174102
0.0585703
-0.0576658
0.0265745
0.0244883
0.0567316
-0.0557882
0.027442
0.0271403
0.0548736
-0.0539671
0.0264247
0.0267621
0.0530589
-0.0520967
0.0255881
0.025684
0.051062
-0.0499074
0.0252029
0.0251732
0.0486321
-0.0472014
0.0240803
0.0246139
0.0456342
-0.043919
0.0208649
0.022613
0.0421349
-0.0403452
0.0146492
0.0180137
0.0387044
-0.0371317
0.00541034
0.0102645
0.0357355
-0.0349641
-0.00475317
8.52136e-05
0.0344926
-0.0345216
-0.0132247
-0.00952854
0.0350948
-0.0351444
-0.0179117
-0.0157084
0.0366381
-0.0392786
-0.0172028
-0.0169711
-0.0192638
0.0213057
-0.0407778
0.041345
-0.0413694
-0.0192394
-0.0181424
0.0211691
-0.0414027
-0.020787
-0.0462047
0.0263108
-0.0393139
-0.0256569
-0.0480809
0.0267866
-0.0397341
-0.0295189
-0.0485975
0.0263951
-0.0405222
-0.0303624
-0.0504213
0.0283574
-0.0313021
-0.0491032
0.0246342
-0.0396543
0.0227506
-0.0406973
0.0205268
-0.0414649
-0.0204313
0.0215845
-0.0418355
0.0483233
-0.0489638
0.0195201
-0.0221509
0.017516
-0.03683
0.0523794
-0.0526078
-0.0269264
0.0216493
-0.0228959
0.0492481
0.0198284
0.050305
0.0275508
0.0506976
-0.025869
0.0276458
0.0503436
0.038097
-0.0425499
-0.0176981
0.0494623
0.0187449
-0.0436288
0.0295225
-0.0313521
-0.0485916
0.0519535
-0.050546
0.028115
-0.054896
0.0577527
0.0220471
0.025415
-0.0601273
0.0627172
0.00986166
0.0172285
-0.0644501
0.0655114
-0.00550752
0.00240342
-0.0657699
0.0660218
-0.0183962
-0.0127433
-0.065592
0.0646194
-0.0247517
-0.0225308
-0.0632703
0.0617346
-0.0258841
-0.0259148
-0.0601345
0.0585714
-0.0247467
-0.0255815
-0.0570698
0.0556489
-0.0231398
-0.0240586
-0.0542855
0.0529778
-0.0216941
-0.0224899
-0.0516985
0.0504267
-0.0203885
-0.0211218
-0.0491056
0.0477059
-0.0192476
-0.0198604
-0.0462208
0.0447204
-0.0181499
-0.01882
-0.0432972
0.0420678
-0.0156611
-0.0172567
-0.0411103
0.0404819
-0.0103952
-0.0134318
-0.0401964
0.04025
-0.0028691
-0.00683482
-0.0406129
0.0412511
0.00513581
0.00118653
-0.0421141
0.043151
0.0119997
0.00879117
-0.0442976
0.0449808
0.016899
0.0147294
-0.0453945
0.0454706
0.0197941
0.0185905
0.0189005
0.0246957
-0.0262137
0.0498411
0.0500357
0.0267179
-0.0270693
0.0502715
0.0505836
0.0272578
-0.0272733
0.050339
0.050433
0.0271101
-0.0267699
0.0508294
0.0507185
0.0274781
-0.0281614
0.0516738
0.051423
0.0496986
0.0551306
-0.0579512
-0.0254509
-0.0256438
0.0590527
-0.0600964
-0.0254039
-0.0254554
0.0610284
-0.0618358
-0.0216583
-0.0238866
0.0624772
-0.0629536
-0.0126837
-0.0176259
0.0632394
-0.0633169
-0.000161614
-0.00656512
0.0631505
-0.0627195
0.0119577
0.00611321
0.062044
-0.0611522
0.0208426
0.0167347
0.0601187
-0.0589867
0.0254425
0.0234547
0.0578352
-0.0566888
0.0262956
0.0259889
0.0555924
-0.0545215
0.0253538
0.0256657
0.0534659
-0.052366
0.0244882
0.0246284
0.0512021
-0.0499242
0.0239251
0.0240094
0.048535
-0.0470032
0.0225485
0.0232247
0.0453586
-0.0435991
0.0191054
0.0209684
0.0418103
-0.0400559
0.0128948
0.0162249
0.0384859
-0.0372121
0.00413654
0.00869449
0.0364087
-0.0357414
-0.00542047
-0.000718139
0.0357772
-0.0362256
-0.0127763
-0.0094928
0.0370805
-0.0396305
-0.0153617
-0.0148534
0.0401813
-0.0400531
-0.0173309
-0.0164204
0.0410873
-0.0411111
-0.0192156
-0.0171082
-0.0234453
0.0264227
-0.0415146
-0.0264425
-0.0454191
-0.025883
0.0255859
0.0506407
-0.0250183
0.0498328
0.0436486
-0.0588091
-0.0273894
0.028357
-0.0408844
-0.0300676
-0.0475323
0.027714
-0.0410529
-0.0314932
-0.0484064
0.0265575
-0.0424455
-0.0322004
-0.048255
0.0256609
-0.0425646
-0.0307014
-0.0485907
0.0287461
-0.0312219
-0.0480712
0.0231906
-0.0423033
0.0214454
-0.0457649
0.0140904
-0.0686184
0.0193641
0.0499266
-0.0436485
0.0284707
-0.0472363
-0.029825
0.0496397
-0.0479068
0.0267379
-0.0517167
0.0543326
0.0254991
0.026669
-0.0565222
0.0589725
0.0195968
0.0232254
-0.061809
0.0639978
0.00767289
0.014392
-0.0660953
0.0675654
-0.00697762
0.000305905
-0.0682694
0.0681608
-0.0182876
-0.0134474
-0.0673337
0.0659896
-0.0234077
-0.0217036
-0.0643331
0.0625648
-0.0241157
-0.0242583
-0.0607933
0.0591055
-0.0230589
-0.02381
-0.0575112
0.0560204
-0.021649
-0.0224643
-0.0546008
0.0532463
-0.0203396
-0.0210704
-0.0519301
0.0506382
-0.0190967
-0.0198055
-0.04932
0.0479424
-0.01787
-0.0185422
-0.0464846
0.045001
-0.0166664
-0.0173622
-0.0435779
0.0423371
-0.0144204
-0.0158336
-0.0413678
0.0407344
-0.00976173
-0.0124625
-0.0404536
0.0405177
-0.00293321
-0.00655406
-0.040895
0.0415428
0.00448809
0.000809217
-0.0424117
0.0434456
0.0109657
0.00792227
-0.0445964
0.0458059
0.0156894
0.0135786
-0.0470446
0.0482514
0.0185873
0.0173518
-0.0486536
0.0490208
0.0191529
0.0184983
-0.0498603
0.0508156
0.0184088
0.0179054
-0.0210807
0.0198491
0.0511581
0.0225381
-0.0240916
0.0508017
0.0517624
0.0250013
-0.0263267
0.0511665
0.0509453
0.0267219
-0.0269539
0.0505034
0.0509788
0.0270166
-0.0269071
0.0502295
0.0504958
0.0266264
-0.0261818
0.0503847
0.0504378
0.0255779
-0.0248355
0.0509314
0.0508192
0.0504489
-0.0511079
-0.0242945
0.0503842
0.0532174
-0.0561933
-0.0239505
-0.0237595
0.0577674
-0.0590859
-0.0241325
-0.0240697
0.060375
-0.0616231
-0.0241558
-0.0241662
0.062749
-0.0637186
-0.0206887
-0.0227607
0.064471
-0.0650006
-0.0121541
-0.0168734
0.065285
-0.0653154
-0.000131278
-0.00628066
0.0650674
-0.0645217
0.011412
0.00586528
0.0637029
-0.0626407
0.0197804
0.0159158
0.0614279
-0.0601157
0.0241302
0.022242
0.0587928
-0.0574849
0.0249877
0.024666
0.0562415
-0.0550352
0.0241475
0.0244222
0.0538562
-0.0526405
0.0232725
0.0234495
0.0513677
-0.0499852
0.0225425
0.0227366
0.0485
-0.0468856
0.0209342
0.0217395
0.0451832
-0.0434003
0.0173224
0.0192661
0.0416286
-0.039933
0.0111993
0.0144531
0.0384617
-0.0373309
0.00300576
0.00722317
0.0367017
-0.0366819
-0.00544026
-0.00134734
0.037343
-0.0386357
-0.0114836
-0.00883165
0.040365
-0.0413414
-0.0143853
-0.0131241
0.0425115
-0.0444795
-0.015363
-0.0152502
0.0446407
-0.0442655
-0.0195908
-0.016947
-0.0240622
0.0187717
0.0518931
0.0297479
-0.0429054
-0.0301088
-0.0453779
-0.0277149
-0.0462834
0.0260914
-0.0461866
-0.0287646
0.0302369
-0.0434073
-0.0320806
-0.0469448
0.0290694
-0.0435648
-0.0323733
-0.0482335
0.0265983
-0.043383
-0.0314703
-0.0480066
0.0256116
-0.0449856
-0.030345
-0.0475512
0.0251392
-0.0459971
0.0212581
-0.0529326
0.0265678
-0.0596721
-0.0257049
0.0184224
-0.0604731
-0.0276629
0.0293418
-0.061351
0.050666
-0.0504982
0.018241
0.0500286
-0.0516891
-0.0226341
0.0224656
0.0499445
-0.0223815
0.0508948
0.0185429
0.023479
0.0493708
-0.0440094
0.0247464
-0.0265386
-0.0444912
0.0465451
-0.0442646
0.0224659
-0.0484896
0.0509628
0.0242647
0.0241469
-0.0532619
0.055887
0.022874
0.0243699
-0.0582764
0.0611144
0.0167589
0.0208359
-0.0639917
0.0665793
0.00508535
0.0115147
-0.0686501
0.0699219
-0.00824935
-0.00176496
-0.0702813
0.0697641
-0.0177704
-0.0138069
-0.0685473
0.0668889
-0.0217494
-0.0204868
-0.0650039
0.0630841
-0.0221959
-0.0223732
-0.061215
0.059464
-0.0213079
-0.0219409
-0.0578261
0.0563045
-0.0201274
-0.0208264
-0.0548626
0.0534907
-0.0189676
-0.0196285
-0.0521617
0.050869
-0.017804
-0.0184766
-0.0495717
0.0482381
-0.0165364
-0.0172449
-0.0468355
0.0453977
-0.0152287
-0.0159595
-0.0439971
0.0427551
-0.0131783
-0.0144329
-0.0417714
0.0411221
-0.00911242
-0.0114788
-0.0408311
0.0408907
-0.00299277
-0.00626312
-0.0412678
0.0419139
0.00384192
0.00043212
-0.0427797
0.0438058
0.00993959
0.00705653
-0.0449483
0.0461502
0.0144876
0.0124361
-0.0473838
0.0486063
0.0173648
0.0161181
-0.0492883
0.0498118
0.0186294
0.0178163
0.017219
-0.0450439
-0.0276813
0.0237425
-0.025184
-0.0430497
-0.0424278
0.0219058
0.0210304
-0.0219899
0.0521176
-0.0199474
0.018479
0.0523632
0.0529761
0.0234558
-0.02455
0.0518959
0.0532283
0.0260755
-0.0265513
0.0516422
0.0524708
0.0268562
-0.0269816
0.0506288
0.0512838
0.0269271
-0.0266966
0.0499991
0.0504412
0.0262971
-0.0257428
0.0498304
0.0500383
0.0250413
-0.0242133
0.0501034
0.0501177
0.0238418
-0.0235872
0.050386
0.0500774
0.0497247
0.0542658
-0.0564219
-0.0217944
-0.0211828
0.0586103
-0.0600616
-0.0226813
-0.0218813
0.0615077
-0.0629247
-0.0227388
-0.0227201
0.0642069
-0.065306
-0.0195896
-0.0214785
0.0661372
-0.0666879
-0.0116034
-0.0160422
0.0669407
-0.0669015
-0.000170496
-0.00602785
0.0665683
-0.0659223
0.010766
0.00553204
0.0649875
-0.0638016
0.0185945
0.014981
0.0624565
-0.0610124
0.0226862
0.020897
0.0595671
-0.0581443
0.0235649
0.0232207
0.0567937
-0.0554835
0.0228373
0.0230715
0.0542062
-0.0528947
0.021961
0.0221722
0.0515304
-0.0500604
0.0210725
0.0213723
0.0484967
-0.0468187
0.0192562
0.0201757
0.0450786
-0.0432935
0.0155373
0.017526
0.0415612
-0.0399496
0.00958762
0.0127208
0.0386052
-0.0376462
0.00204673
0.00587877
0.0372242
-0.0374331
-0.00523131
-0.0017693
0.0382848
-0.0396709
-0.0100975
-0.00797998
0.0413319
-0.0430392
-0.012678
-0.0114631
0.0446221
-0.045074
-0.0149111
-0.0136673
0.0460762
-0.0476448
-0.0180222
-0.0159448
0.0511001
-0.057159
-0.0213304
-0.020607
0.0606604
-0.0740575
-0.0142658
-0.0222034
-0.0229785
-0.0422172
-0.0088618
-0.0227663
0.0450167
-0.0452289
-0.0514124
-0.0135711
0.0312179
-0.0438864
-0.0318426
-0.0456159
-0.022005
0.0217408
0.0496351
-0.0204939
0.0484334
0.030365
-0.0447029
-0.032539
-0.0467791
0.0290021
-0.0459686
-0.0321227
-0.0475811
0.02817
-0.0459414
-0.030831
-0.0475207
0.0264196
-0.0462659
-0.0293235
-0.0469923
0.0260328
-0.0507718
0.0254977
-0.0600079
0.0289556
-0.0600869
0.0335665
-0.0499008
-0.0435128
-0.026715
-0.0220715
-0.0403817
0.0200255
-0.0239364
-0.0411848
0.0180603
-0.020069
-0.038373
0.0539506
-0.0517917
0.0163201
-0.0197232
0.0281096
-0.0536153
0.0181637
-0.0205251
0.0547246
-0.0521072
-0.0190285
0.0174741
0.0546402
-0.0446342
-0.0402743
0.0424116
0.0178881
0.0160504
-0.0448848
0.0468294
0.0205212
0.0194326
-0.0493696
0.0518841
0.0217503
0.0216067
-0.054405
0.0570365
0.0202425
0.021849
-0.0602027
0.0633814
0.0135801
0.0176697
-0.0664218
0.0690154
0.00249168
0.00847437
-0.0708856
0.0717899
-0.0091537
-0.00363507
-0.0717004
0.0707574
-0.0168274
-0.0137174
-0.0692008
0.0673141
-0.0198627
-0.0189302
-0.065296
0.0633117
-0.0202116
-0.0203551
-0.0614177
0.0596607
-0.0195509
-0.0200469
-0.058024
0.0565067
-0.0186102
-0.0191897
-0.0550717
0.0537081
-0.0176039
-0.0181935
-0.0523887
0.0511123
-0.0165276
-0.0171572
-0.0498485
0.0485726
-0.0152606
-0.0159811
-0.0472454
0.0458801
-0.0138635
-0.0146322
-0.0445278
0.0432999
-0.0119503
-0.0130806
-0.0423025
0.0416257
-0.00843566
-0.0104814
-0.0413066
0.041343
-0.00302924
-0.00594396
-0.0417028
0.0423348
0.00320991
7.23631e-05
-0.0431874
0.0442011
0.00892581
0.00620398
-0.0453297
0.0465238
0.0132935
0.0113075
-0.0477479
0.0489771
0.0161356
0.014894
-0.0497321
0.0511442
0.0172173
0.0170613
-0.0508809
0.0516928
0.0174291
0.0174823
0.018444
0.0214652
-0.0233639
0.0540162
0.0539162
0.0240218
-0.0258175
0.0536916
0.0538862
0.0264195
-0.0268379
0.0520607
0.0530728
0.027067
-0.0271025
0.0506643
0.0515128
0.0269469
-0.0266096
0.0496618
0.0502857
0.0261013
-0.0254405
0.0491696
0.04953
0.0246373
-0.0237172
0.0491833
0.0493145
0.0231993
-0.0224261
0.0496129
0.0495595
0.0490394
-0.0485865
-0.0205094
0.048602
0.0519568
-0.0547792
-0.0198117
-0.0190112
0.0560322
-0.0578157
-0.0200109
-0.0199297
0.059299
-0.0608533
-0.021127
-0.020398
0.062418
-0.0639641
-0.0211927
-0.0211554
0.0653703
-0.0665691
-0.0183908
-0.0200723
0.0674532
-0.067998
-0.0110586
-0.015158
0.0681921
-0.0680631
-0.000299487
-0.00583376
0.0676292
-0.0668963
0.0100331
0.00509817
0.0658807
-0.0646088
0.0173226
0.0139654
0.0631805
-0.0616541
0.0211598
0.0194687
0.0601332
-0.0586388
0.0220705
0.0216997
0.0572185
-0.0558368
0.0214556
0.0216513
0.0544862
-0.0530999
0.0205747
0.0208216
0.0516627
-0.0501237
0.0195334
0.0199352
0.0485017
-0.0467828
0.0175373
0.0185537
0.0450291
-0.0432662
0.0137745
0.0157723
0.0415986
-0.0400997
0.00808872
0.0110532
0.0389174
-0.0381709
0.00130031
0.00469646
0.0379933
-0.0384421
-0.00478253
-0.00194692
0.0394552
-0.0408632
-0.00868949
-0.00696687
0.0423993
-0.0438926
-0.0111846
-0.0099271
0.0452577
-0.0465719
-0.0135969
-0.0123022
0.0478956
-0.0502043
-0.0157134
-0.0146212
0.0526863
-0.0559327
-0.018084
-0.018125
0.0613904
-0.0588927
-0.0167635
-0.0167457
0.0537073
-0.052175
-0.0151034
-0.0140472
-0.00793384
0.0161631
-0.0603365
0.0548598
-0.0464587
-0.016335
-0.0163437
0.0314207
-0.044942
-0.0321585
-0.0459963
0.0301528
-0.0458537
-0.0321025
-0.0467993
0.0292642
-0.0470628
-0.0314457
-0.0469663
0.0290607
-0.0485825
-0.0303987
-0.0464455
0.0290032
-0.0492363
-0.0289465
-0.0457271
0.0275266
-0.0528007
0.0277133
-0.0587656
0.0312851
-0.0578055
0.0316413
-0.0534325
0.0218417
-0.0592938
0.00375948
0.0344888
-0.0847069
0.0144404
-0.0710174
0.0384935
0.00836581
-0.0385612
-0.00829808
-0.0418035
-0.0256458
-0.0223208
-0.038933
-0.0173807
-0.0364276
0.0186234
-0.0198954
0.0559966
0.0541423
-0.0539605
0.0161383
0.0483134
-0.0509134
-0.0179095
0.0192095
0.0468446
-0.0177407
0.0195697
0.0482418
0.0559604
0.015656
0.0164464
0.0568172
-0.0453721
-0.0388397
0.0401636
0.0123096
0.0102843
-0.041839
0.0438469
0.0158803
0.014375
-0.0460302
0.0482531
0.0182984
0.0172493
-0.0504549
0.0528433
0.0193618
0.0194049
-0.055896
0.0591515
0.016987
0.0187963
-0.0625549
0.0658718
0.0102632
0.0142663
-0.06887
0.0712062
0.000155465
0.00547616
-0.07263
0.0730069
-0.00953062
-0.00505887
-0.0724174
0.0710918
-0.0155018
-0.0131279
-0.0692939
0.0672925
-0.0178612
-0.0171323
-0.0652462
0.0632818
-0.0182471
-0.0183088
-0.0614276
0.0597132
-0.0178365
-0.0181927
-0.058115
0.0566312
-0.0171263
-0.0175915
-0.0552271
0.0538934
-0.0162702
-0.0167894
-0.0526034
0.0513585
-0.0152827
-0.0158672
-0.0501381
0.0489275
-0.01405
-0.0147607
-0.0476882
0.046417
-0.0125922
-0.0133929
-0.04514
0.0439487
-0.010759
-0.0118036
-0.0429459
0.0422349
-0.00772462
-0.00947866
-0.0418696
0.0418613
-0.00302091
-0.0055787
-0.0421835
0.0427855
0.00260786
-0.000249879
-0.0436133
0.0446077
0.00793141
0.00537619
-0.0457185
0.046901
0.0121111
0.0101967
-0.048115
0.0493425
0.0149081
0.0136801
-0.0505489
0.0512062
0.01656
0.0158549
-0.0515776
0.0523497
0.016657
0.0171109
0.0168332
0.0219968
-0.0235844
0.0556038
0.0560176
0.0253536
-0.0261085
0.0544466
0.0556555
0.0266783
-0.0270476
0.05243
0.0536426
0.0272129
-0.0271738
0.0506253
0.0516781
0.0269357
-0.0265119
0.0492379
0.0500476
0.0259149
-0.0251671
0.0484217
0.048933
0.0242818
-0.0232891
0.0481906
0.0484292
0.0222055
-0.0210596
0.048467
0.0484759
0.0209742
-0.019528
0.0481889
0.0489539
0.0484751
0.0527216
-0.0547105
-0.0178228
-0.0172029
0.0568484
-0.0583044
-0.0185549
-0.0177918
0.0598304
-0.0614474
-0.01951
-0.0188719
0.0630891
-0.0647243
-0.0195575
-0.0195137
0.0662214