/*--------------------------------*- C++ -*----------------------------------*\
  =========                 |
  \\      /  F ield         | OpenFOAM: The Open Source CFD Toolbox
   \\    /   O peration     | Website:  https://openfoam.org
    \\  /    A nd           | Version:  10
     \\/     M anipulation  |
\*---------------------------------------------------------------------------*/
FoamFile
{
    format      ascii;
    class       surfaceScalarField;
    location    "9";
    object      phi;
}
// * * * * * * * * * * * * * * * * * * * * * * * * * * * * * * * * * * * * * //

dimensions      [0 3 -1 0 0 0 0];

internalField   nonuniform List<scalar> 
57492
(
0.000388724
-1.44452e-05
-7.34853e-05
-0.000300793
-0.000338687
0.000458538
0.000268873
-2.99867e-05
8.49632e-05
0.000337907
-0.000392884
0.00316243
0.0033851
-0.000273225
-0.0062743
-0.00862842
0.00404359
0.00774725
0.00157041
-0.00148336
-0.000775422
0.000688368
-0.002861
0.000624997
-0.000277219
0.00251322
0.000544389
-0.00183497
0.00114977
-0.00449513
0.00428698
-0.000941624
0.00101083
0.00413502
-0.00399609
-0.00135625
-0.000408166
0.00134851
0.000415906
-0.000111953
-0.0014168
0.000172509
0.00057098
-0.000663911
-1.90222e-05
-0.00011255
0.000275363
0.00319343
-0.00300735
-0.00113854
0.000952462
0.000387911
0.00256009
0.000245434
-0.000332644
0.000796649
0.00333984
-0.00380385
-0.000668542
0.00326492
-0.00292902
0.000134995
-0.000289241
0.000154246
-0.00167489
0.00122579
0.000584091
-0.00467812
0.000203232
0.0033537
0.00112119
0.00122191
-0.00474628
-0.00115376
-0.000120449
-0.000423083
-0.000910023
0.00145355
-0.000405078
0.00031111
-2.64806e-05
-0.00309704
0.00251523
0.000975953
-0.000394144
-0.00341175
0.000752194
-0.000437484
-0.00111334
0.000586539
0.000453028
7.37739e-05
-0.000770246
-0.000356561
1.34665e-05
-0.000372675
-0.0011545
0.00132431
0.000202866
-0.000423599
0.000119419
-6.84946e-05
0.00165604
-0.00111151
-0.00103574
0.000491215
-0.00142967
0.00106149
0.00202423
-0.00187702
-0.00364141
0.00321854
0.00229989
-0.00397442
-0.00102068
0.00311808
-0.000714306
-0.000156085
0.000870391
-0.000274639
-0.000439667
-0.0013841
0.00190816
-0.0007987
0.000204906
-0.000772865
-0.000816138
-0.00133517
0.00196017
-0.000234762
-0.00190285
0.00115153
0.000751325
-0.00432537
0.00242252
0.00452961
-0.000529998
0.000104229
-0.00410384
0.00333229
-0.000311674
0.00150899
-0.00044
0.00442177
-0.00451177
0.00297906
0.00057556
-0.00301023
0.0029476
-0.000245764
0.00341535
-0.00126968
-0.00251203
0.000366354
0.00383657
0.00015434
0.00196649
-0.00116622
0.00214733
0.00165204
0.00282768
-0.00436224
-0.000662208
0.000628676
0.00439577
-0.00450391
-0.00036521
0.000506877
0.000830042
0.00438979
-0.00432892
-0.00089091
0.000514648
-0.00417973
-0.00407551
0.00283966
0.00335134
-0.00211549
-0.00122693
0.00358009
-0.00642867
-2.0363e-05
-0.000251168
8.64968e-06
0.000262881
-0.000561938
-0.000122336
0.000156887
-0.000211995
-0.00050683
-0.000117095
2.28146e-05
5.39879e-05
-4.53382e-05
1.90221e-05
3.49659e-05
0.00774954
0.00366023
-0.0061311
-0.00527867
0.00210205
-0.000558377
0.00620587
-0.00814764
0.0027577
0.00749199
0.00202771
-0.00651512
0.00161226
-0.00287296
0.00214449
-0.000883799
0.00237218
-0.00292428
0.00216436
-5.21142e-05
4.26801e-05
-5.01105e-06
-0.000115931
-9.66823e-06
-0.000364411
-5.23141e-05
-0.0029649
0.00539719
0.00336149
-0.00579377
0.00434276
-0.00493549
0.00293313
0.00480483
-0.00234078
0.0108217
-0.0022372
-0.00126936
-0.00731512
0.00138585
0.00598805
0.00344776
0.00106073
-0.00564422
0.00596934
4.90334e-05
-7.90201e-05
0.000133997
0.000865824
0.00180317
-0.000642861
-0.00202613
0.001097
0.000106728
-0.000137163
4.22505e-05
9.49123e-05
-0.000384896
0.000247733
-0.00678882
0.00330531
-0.00200332
0.00548684
-0.00581771
-0.00270872
0.0017376
-0.00265089
0.00216529
-0.00533211
0.00200314
-2.41605e-05
-0.000962915
-0.00101607
-0.000728781
0.00228144
0.000450486
-0.000856648
-8.68485e-05
0.000214715
-0.000790058
-9.075e-05
-0.000275919
-0.00147705
-0.000875726
-0.000227988
6.83561e-05
0.00103536
-0.000601845
-0.00149569
0.00122181
0.000545015
8.5898e-05
-0.00123276
0.000348075
-3.10476e-05
0.000458589
-4.21582e-05
-0.000653757
0.000377838
8.28952e-05
-0.000736652
0.000193882
-0.000578778
0.00427424
0.00333123
-0.000178753
0.00212785
-0.00648203
-1.31207e-05
0.00226739
-0.00179836
-0.00045591
0.000285946
0.00316917
-0.00346823
0.00298089
0.00208164
-0.000875521
-0.004187
-0.000659798
0.000106766
0.00353392
0.00400916
-0.00258732
-0.00161427
-0.00303733
0.00119784
0.00345377
-0.00122022
0.00351446
-0.00390851
0.000385099
-0.00464265
0.000262881
0.000160622
-1.02908e-05
0.0016034
-0.000866754
-0.00107534
0.000347991
-0.000867508
0.00212292
0.000783746
2.27838e-05
-0.000186042
0.000334573
6.84184e-05
-0.000216949
0.000999026
-0.0012278
4.27345e-05
-0.000361068
0.000837022
0.000523072
-0.000126439
9.99432e-05
-0.00638551
0.00346704
0.00622378
0.00771635
-0.00215354
-0.00827152
-0.00302575
0.00435659
-9.60234e-05
-0.000884487
-0.000173992
-0.000529404
9.78064e-06
4.48516e-05
-0.000131707
4.17783e-05
4.5077e-05
-0.000128414
0.000139812
3.34537e-05
-0.000290903
3.07828e-05
-0.000270229
-0.000316043
5.68687e-05
-0.000816759
-0.000337958
-0.00161084
-0.00174285
0.00202591
0.00132778
7.65658e-05
0.000814144
-0.00250155
-0.00229839
0.000632104
-0.00294467
0.00132707
-5.72927e-05
-0.0034989
0.000791874
-0.000237647
0.000864972
-0.00334965
0.00257222
-8.75466e-05
0.000668471
-0.00274211
0.00293861
0.00252364
-0.0101987
-0.00179442
0.00220345
0.00302719
-0.00349453
0.00208513
-0.000333052
-9.91803e-05
0.000185078
-0.000109152
9.97148e-06
0.000287478
-4.13444e-05
0.00484901
-0.00296887
-0.00230223
0.000422086
0.00423098
0.000178033
0.00537381
-0.0008468
-0.00575395
0.000663658
0.003827
0.000883152
3.85331e-05
-0.00364886
0.00427399
6.07383e-06
-0.000115226
0.000763586
-0.00215774
-0.00290337
0.00127937
0.00316736
0.00183304
-0.000107793
-0.00192526
0.000200013
0.000575904
-0.000172541
-0.00232081
0.00042135
0.00296095
0.000373082
-0.00211799
-0.000133739
6.11205e-05
-9.61912e-05
8.55879e-05
1.54699e-05
-4.86657e-06
3.6711e-05
1.86968e-06
-0.000134772
5.61254e-05
-0.000433622
0.000414207
-0.00222412
0.00332585
-0.000907854
0.00305293
-0.0043749
-0.000902141
-3.9596e-05
-0.00303219
0.00349313
-0.00428663
0.000316506
-0.00290576
-0.002026
0.000645126
0.00272527
0.00290799
-0.00543003
0.00258483
0.00434181
-0.00420138
0.00224824
-0.00309107
0.00160958
-0.000766743
0.00246181
-0.00303089
0.00281732
0.00440365
0.00185805
0.00466739
-0.000285067
-0.00466579
0.000283461
0.00513066
-0.000680025
0.000216761
0.00540705
-0.000670329
-0.00014513
-0.00459159
0.00388617
-0.00112002
0.00264091
0.0043078
-0.00133161
0.00106828
-0.00404447
0.00117279
0.00438992
-0.00125491
-0.00388494
-0.0015997
0.00415303
0.00101146
-0.00369856
-0.00177627
0.00363033
-0.00228636
-0.00326457
0.00205099
0.00349994
-0.00231979
-0.00329766
0.00333109
0.00217174
0.00308568
-0.00142259
-0.00383484
0.00306195
-0.00321
-0.00250818
0.00251002
0.00306011
-0.0019866
0.0025641
-0.00409433
0.00364352
-0.000971773
-0.005108
0.000998253
0.00541567
-0.00130592
0.00188048
-0.00100346
0.00209106
-0.00218425
0.00109665
-0.000668156
0.00238931
-0.00272461
-7.31463e-05
0.000518703
0.000338189
-0.002254
-0.00326254
0.00207829
-1.76688e-05
1.95385e-05
4.70919e-07
-1.81398e-05
-0.000242833
-0.00372554
0.00280215
-0.00316422
-0.000176341
0.00309772
0.000134731
-0.00331799
1.90439e-05
-0.000409134
0.00186911
0.000437397
-0.00189737
0.002006
0.00041788
-0.00283302
0.00185509
0.00202002
-1.1582e-05
1.88481e-05
0.000153356
1.30931e-05
-2.46751e-05
3.19411e-05
-1.0648e-05
1.63528e-05
-0.0001228
6.17085e-06
-1.68189e-05
2.25236e-05
-6.25657e-05
3.16588e-05
-0.000374171
3.5326e-05
-9.78917e-05
6.69848e-05
5.36081e-05
-5.43533e-06
-0.000174612
-1.70536e-05
7.06617e-05
-2.24889e-05
0.00102836
0.00303618
-0.00395778
0.00154977
-0.0043142
0.00379279
0.00421008
0.000375877
-0.00118321
-0.00244451
0.00115904
0.00246868
-0.000709881
0.00272227
-0.00319559
0.000158585
-0.00331297
0.0039639
-0.00400206
-1.23822e-05
5.05477e-05
0.00396152
3.59719e-05
-3.35982e-05
-2.46723e-05
-0.00399679
1.94008e-05
0.00399053
-1.10278e-06
-2.79047e-05
0.00406083
5.81092e-05
-0.000128409
2.85842e-05
0.00416133
-0.000129087
0.00411131
-0.00408763
4.89899e-06
-0.000193429
0.00435501
-2.48193e-07
0.00399632
-7.84378e-05
-0.0039631
-6.64195e-05
-0.00395011
-1.4088e-05
-0.00394529
3.11527e-05
-0.00403066
7.29816e-05
-0.00396549
-8.98349e-05
-0.000187541
0.00454308
-5.31875e-07
0.00380906
-2.86013e-07
-1.9698e-05
-0.00396393
-1.31596e-05
-0.00399854
1.33493e-05
-2.80484e-05
-0.00419354
0.000257653
1.70352e-08
0.00454323
-1.60018e-07
0.00380981
-7.26153e-07
-0.00414608
0.000119489
0.00454349
1.85885e-07
-4.52253e-07
6.89859e-08
0.0045435
-8.09307e-08
0.00381022
-2.26851e-07
0.00381097
-6.79457e-07
-2.37178e-05
-0.00416897
-8.50632e-07
-0.00416898
-8.13783e-07
3.00573e-07
0.00454359
-3.81691e-07
0.00381144
-1.75521e-07
-2.44157e-07
-0.00416812
-6.05559e-07
-0.0041679
-1.32268e-06
2.94411e-07
0.0045433
-1.19651e-08
0.00381238
-6.39621e-07
-1.50393e-07
-0.00416703
-9.35089e-07
-0.00416708
-9.73647e-07
7.65486e-07
0.00454286
-3.19434e-07
0.00381327
-1.30225e-07
-2.87055e-07
-0.00416606
-6.92194e-07
-0.00416589
-1.4738e-06
1.22247e-06
0.00454158
5.85738e-08
0.0038151
-6.04687e-07
-1.55926e-07
-0.00416488
-1.02424e-06
-0.00416492
-1.13397e-06
2.6342e-06
0.00453921
-2.64554e-07
0.00381782
-8.73524e-08
9.39549e-06
-0.00417346
-8.09176e-07
-0.00415389
-1.63024e-06
4.95508e-06
0.00453413
1.23777e-07
0.00382335
-5.68053e-07
2.6963e-05
-0.00405528
-0.000145146
-0.00408257
-4.43526e-05
1.0099e-05
0.00452424
-2.1069e-07
0.00381579
1.76525e-05
2.67509e-05
-0.00407442
-7.609e-06
-0.00405189
-3.93433e-06
1.98025e-05
0.00450425
1.89089e-07
0.00378904
4.65604e-05
5.7793e-05
-0.00393089
-0.000201321
-0.00393493
-5.9161e-05
0.000193093
0.0043113
-1.49589e-07
0.0039043
7.78308e-05
6.66813e-05
-0.00391335
-8.42227e-05
-0.003892
2.37425e-05
0.000170482
0.00399343
0.000147394
0.00396866
0.000106121
0.000106515
-0.000149938
-0.00386993
-0.00387693
9.1446e-05
1.18811e-05
3.86049e-05
0.00394294
0.00394283
3.77137e-05
-0.00392747
0.00398904
-0.000145792
-0.00394985
-0.000127552
0.000182111
-0.000158065
-0.00389398
9.23098e-05
-0.00378713
-0.00390355
0.00393764
-4.16977e-05
-0.000115836
-0.00379494
0.00379617
-2.0422e-06
-2.43905e-06
-0.00379734
0.00379846
-1.8121e-06
-2.19585e-06
-0.00379952
0.00380054
-1.62552e-06
-1.99818e-06
-0.00380153
0.00406066
-1.47591e-06
-1.83424e-06
-0.00404918
0.00399359
7.49867e-05
-1.67941e-06
-0.00412198
0.00408953
-1.15175e-06
-7.78398e-05
-0.00395847
0.0039005
-7.04386e-05
0.000103154
-0.00380776
0.00380836
-8.56265e-07
-3.63414e-05
-0.00380894
0.0038095
-7.1195e-07
-1.11219e-06
-0.00381002
0.00381052
-5.7917e-07
-9.80149e-07
-0.003811
0.00381145
-4.59511e-07
-8.61719e-07
-0.00381189
0.00381229
-3.49099e-07
-7.54613e-07
-0.00381269
0.00381306
-2.47264e-07
-6.56994e-07
-0.00381341
0.00381375
-1.50207e-07
-5.65449e-07
-0.0037915
0.00388075
5.81487e-05
2.20977e-05
0.00387105
4.83073e-05
-2.36969e-05
7.6334e-05
0.0038903
-3.21133e-06
0.00392234
0.00389576
-0.00383153
1.36028e-05
-0.00393367
0.00392527
4.61178e-05
6.82106e-05
0.00383111
-0.00381306
-4.03718e-07
4.61411e-05
0.00381268
-0.00381229
-4.83001e-07
-9.40936e-07
0.00381188
-0.00381144
-5.66129e-07
-1.01539e-06
0.00381099
-0.0038105
-6.57042e-07
-1.09444e-06
0.00381
-0.00380947
-7.59479e-07
-1.18329e-06
0.00380891
-0.00380832
-8.76456e-07
-1.28481e-06
0.00388536
-0.00387944
-1.02059e-06
-1.40062e-06
0.00394431
-0.00390138
-5.70129e-05
-1.54803e-06
0.00387564
-0.00385002
4.73601e-05
5.40858e-06
0.003898
-0.00392306
3.84166e-05
-4.18561e-05
0.00380147
-0.00380049
-1.7887e-06
-2.10564e-06
0.00379948
-0.00379841
-2.04338e-06
-2.33514e-06
0.0037973
-0.00379612
-2.31251e-06
-2.58878e-06
0.00379489
-0.00383666
-2.58985e-06
-2.85526e-06
0.00383746
-0.00389376
-2.86848e-06
-3.12537e-06
0.00386661
-0.00381078
3.56127e-05
-3.40126e-06
-0.00376956
5.10889e-05
-0.00398062
-0.000127294
0.00388298
6.43997e-05
5.2372e-07
0.00392153
0.000144511
-0.000129817
-0.00380182
0.000115677
-0.00374072
0.000132916
-0.000123586
-0.00398995
-0.00389088
-0.00390459
0.00384119
-8.23977e-05
0.0039494
-0.00398285
-9.38478e-05
-8.27369e-05
-0.00379258
0.00379378
-4.28975e-05
-6.72246e-05
-0.00379509
0.00379633
-3.27868e-06
-3.74704e-06
-0.0037975
0.00379861
-2.92993e-06
-3.36597e-06
-0.00379967
0.00380068
-2.63864e-06
-3.05691e-06
-0.00380164
0.00380255
-2.38366e-06
-2.79393e-06
-0.00380343
0.00388056
-2.14557e-06
-2.55454e-06
-0.00380504
0.00380579
-1.90517e-06
-2.31901e-06
-0.00391105
0.00384229
-1.66975e-06
-2.10791e-06
-0.00380782
0.00380843
-1.4645e-06
-1.88009e-06
-0.00380901
0.00380956
-1.26317e-06
-1.68844e-06
-0.00381008
0.00381058
-1.0782e-06
-1.50176e-06
-0.00381105
0.0038115
-9.11034e-07
-1.33364e-06
-0.00381193
0.00381234
-7.59131e-07
-1.18193e-06
-0.00381273
0.0038131
-6.2017e-07
-1.0443e-06
-0.00381345
0.00381379
-4.89246e-07
-9.17689e-07
-0.00381382
0.00384477
2.71997e-05
2.20693e-05
9.07989e-06
-1.72325e-05
0.00389846
2.1866e-06
0.00388987
-0.00383331
0.00387129
2.64221e-05
5.97688e-05
0.00387359
-0.00387449
4.70256e-05
0.00384242
3.16886e-05
-2.23228e-06
4.57825e-05
0.00387798
0.00390288
0.00387508
-0.00384673
-1.47495e-05
6.88011e-05
0.00381345
-0.00381309
-7.63272e-07
1.28582e-05
0.00381272
-0.00381232
-8.77377e-07
-1.3146e-06
0.00381191
-0.00381148
-1.00035e-06
-1.42502e-06
0.00381103
-0.00381055
-1.13684e-06
-1.54688e-06
0.00381005
-0.00380951
-1.2902e-06
-1.68382e-06
0.00380896
-0.00380837
-1.46345e-06
-1.83904e-06
0.00380776
-0.00380711
-1.66637e-06
-2.01769e-06
0.00380643
-0.00386156
-1.8886e-06
-2.22369e-06
0.00385369
-0.00380418
-2.14891e-06
-2.45773e-06
0.00384333
-0.00380247
-2.43654e-06
-2.7127e-06
0.00380157
-0.0038006
-2.75387e-06
-3.01403e-06
0.0037996
-0.00379854
-3.10381e-06
-3.33967e-06
0.00379743
-0.00379626
-3.48113e-06
-3.6949e-06
0.00379504
-0.00379375
-3.88219e-06
-4.07564e-06
0.0037924
-0.00379096
-4.30566e-06
-4.47787e-06
0.00378945
-0.00374907
-4.76408e-06
-4.90981e-06
0.00372644
-0.0036743
6.35358e-05
2.84525e-05
-0.00401114
-9.52913e-05
0.000102564
-0.000160127
-0.00368316
-0.00365035
7.86163e-05
-0.000215897
-0.00374605
2.52635e-05
0.00384821
0.00384822
3.99859e-05
-5.99076e-05
8.46171e-05
-0.00401466
-5.64248e-05
-0.00401463
7.76351e-05
-0.000158741
-0.00360206
5.35529e-05
-0.00362627
-0.00402215
0.00388115
-0.00386971
1.4979e-05
0.00384141
6.50072e-05
6.87828e-05
-2.96218e-05
0.00383882
4.51016e-05
0.0038719
-0.00396789
0.00401073
-9.92614e-05
-0.000109941
9.09823e-05
-0.00399567
0.00405613
-8.62543e-05
0.000322048
-0.00429193
-2.17017e-05
-0.00400581
0.00397402
-6.20601e-05
-9.03722e-05
-0.00392259
0.00386037
-2.01721e-05
-3.13057e-05
-0.00383185
0.00379404
-5.07952e-06
-3.87116e-05
-0.00379533
0.00379656
-4.51136e-06
-5.03884e-06
-0.00379772
0.00379883
-4.03993e-06
-4.52958e-06
-0.00379988
0.00380088
-3.64075e-06
-4.10623e-06
-0.00380183
0.00380274
-3.28816e-06
-3.74143e-06
-0.00380359
0.00380441
-2.95887e-06
-3.41064e-06
-0.00380518
0.00380592
-2.6443e-06
-3.09702e-06
-0.00380662
0.00380729
-2.34469e-06
-2.80062e-06
-0.00380793
0.00380853
-2.0676e-06
-2.51602e-06
-0.0038091
0.00380965
-1.80972e-06
-2.25888e-06
-0.00381016
0.00381066
-1.57313e-06
-2.01853e-06
-0.00381113
0.00381157
-1.35941e-06
-1.80142e-06
-0.003812
0.00381241
-1.16604e-06
-1.60586e-06
-0.00381279
0.00381316
-9.90404e-07
-1.42925e-06
-0.00381351
0.00381385
-8.27924e-07
-1.26859e-06
-0.00382469
0.00383137
2.0525e-05
1.12291e-05
2.14233e-05
2.52633e-05
-9.09217e-06
0.00388229
-4.09549e-05
1.14447e-05
0.00387772
0.00387418
0.00386416
0.00386279
-0.00385861
4.28448e-05
-0.0038573
0.00383634
6.09449e-05
3.71794e-05
0.00381415
-0.00382791
-9.90069e-07
2.43464e-05
0.0038135
-0.00381314
-1.12185e-06
-1.55712e-06
0.00381277
-0.00381238
-1.2689e-06
-1.68472e-06
0.00381197
-0.00381154
-1.43167e-06
-1.83191e-06
0.00381109
-0.00381061
-1.61323e-06
-1.99603e-06
0.00381012
-0.00380959
-1.81694e-06
-2.18039e-06
0.00380904
-0.00380846
-2.04654e-06
-2.38855e-06
0.00380785
-0.00380721
-2.3087e-06
-2.62537e-06
0.00380654
-0.00380582
-2.60141e-06
-2.89438e-06
0.00380508
-0.0038043
-2.93101e-06
-3.19748e-06
0.00380348
-0.00380262
-3.29892e-06
-3.53483e-06
0.00380171
-0.00380076
-3.70588e-06
-3.91508e-06
0.00379977
-0.00379872
-4.15232e-06
-4.33234e-06
0.00379763
-0.00379647
-4.63781e-06
-4.78911e-06
0.00379526
-0.00379398
-5.16226e-06
-5.28469e-06
0.00379264
-0.00379122
-5.72936e-06
-5.81984e-06
0.00378972
-0.00378813
-6.35359e-06
-6.40376e-06
0.00375263
-0.00368204
-7.05267e-06
-7.05271e-06
0.00364067
-0.00364736
6.02445e-05
3.72447e-05
6.8586e-05
-6.7724e-05
-0.00362713
-0.00362909
5.03199e-05
0.000118243
-0.00404192
-9.53318e-05
-0.00380946
3.81226e-05
0.00381473
0.00384955
3.18868e-05
0.000140725
-0.00422265
2.66781e-06
-0.00367245
0.000826165
-0.00339083
0.00441975
-6.4982e-05
4.23031e-05
-0.00360641
-0.000100171
-0.00359194
-0.00267836
0.00407515
0.000623226
-0.00209242
-0.000148537
-0.00399924
-0.00386255
0.00402442
0.000160176
0.00034043
-0.000127826
-0.00398466
0.00394776
-6.23521e-05
1.8052e-05
-0.00391473
0.0038609
-8.2314e-06
-5.73484e-05
-0.00383756
0.00382466
-7.26704e-06
-7.96335e-06
-0.00379302
0.00379437
-6.43548e-06
-7.0716e-06
-0.00379565
0.00379687
-5.73111e-06
-6.31804e-06
-0.00379802
0.00379912
-5.13724e-06
-5.68092e-06
-0.00380015
0.00380114
-4.62876e-06
-5.14222e-06
-0.00380208
0.00380297
-4.17809e-06
-4.67449e-06
-0.00380381
0.00380461
-3.7622e-06
-4.2517e-06
-0.00380537
0.0038061
-3.37107e-06
-3.85717e-06
-0.00380678
0.00380744
-3.00321e-06
-3.4872e-06
-0.00380807
0.00380866
-2.66273e-06
-3.13933e-06
-0.00380922
0.00380976
-2.34882e-06
-2.82143e-06
-0.00381027
0.00381076
-2.06205e-06
-2.52869e-06
-0.00381122
0.00381167
-1.80271e-06
-2.26383e-06
-0.00381209
0.00381249
-1.56857e-06
-2.02528e-06
-0.00381287
0.00381324
-1.3568e-06
-1.81038e-06
-0.00381358
0.00381392
-1.16439e-06
-1.61631e-06
-0.00382659
0.00384812
-9.96662e-07
-1.44458e-06
-0.00383902
0.00383685
1.71436e-05
3.05216e-05
-0.00385204
0.0038478
4.23562e-05
4.98253e-05
5.37279e-05
-2.9955e-05
0.00385395
-3.32767e-05
7.5616e-06
0.00387352
0.00383518
3.7631e-05
1.54467e-05
0.00382921
0.00388186
-2.63694e-05
1.81196e-05
0.00384707
0.00385324
-2.25525e-05
3.28326e-06
0.00386882
0.00386747
0.00387177
-0.00385807
4.72455e-05
-0.00393163
0.00382676
0.000108158
-2.79759e-05
0.00384843
-0.0038403
3.47125e-05
2.75417e-05
0.00381421
-0.00381389
-1.31311e-06
-1.74417e-06
0.00381355
-0.0038132
-1.47547e-06
-1.88806e-06
0.00381283
-0.00381245
-1.65651e-06
-2.05093e-06
0.00381204
-0.00381162
-1.85883e-06
-2.23484e-06
0.00381117
-0.0038107
-2.08474e-06
-2.4407e-06
0.00381021
-0.00380969
-2.33803e-06
-2.67178e-06
0.00380914
-0.00380857
-2.62267e-06
-2.93191e-06
0.00380797
-0.00380733
-2.94392e-06
-3.22574e-06
0.00380667
-0.00380597
-3.30305e-06
-3.55699e-06
0.00380524
-0.00380446
-3.70453e-06
-3.92844e-06
0.00380366
-0.00380281
-4.15091e-06
-4.34182e-06
0.00380192
-0.00380098
-4.6441e-06
-4.803e-06
0.0038
-0.00379897
-5.18605e-06
-5.31068e-06
0.00379789
-0.00379675
-5.7791e-06
-5.86825e-06
0.00379555
-0.00379429
-6.42668e-06
-6.47827e-06
0.00379296
-0.00379156
-7.13638e-06
-7.14566e-06
0.00379008
-0.00378851
-7.92344e-06
-7.88184e-06
0.00378686
-0.0037851
-8.80917e-06
-8.7043e-06
0.00373822
-0.00366816
-9.81324e-06
-9.63651e-06
0.00367036
-0.00365619
2.81314e-05
5.25181e-05
5.11827e-05
-4.85285e-05
-0.00360907
-0.00363066
2.56585e-05
0.000114452
-0.00401565
-2.92427e-05
-0.00377755
0.00029501
-0.00369149
2.82199e-06
-0.00377544
0.00384916
-0.00385478
4.79727e-05
0.00383577
2.09585e-05
4.80595e-05
-3.2678e-05
0.00385344
1.24578e-05
0.00386236
0.000283508
-0.00325645
5.38826e-06
-0.00364586
-0.00196219
-0.0020276
-0.00317652
0.00364915
0.000150604
8.03223e-05
-5.50606e-05
-0.00363433
5.50284e-05
-0.00360537
-0.00295646
-0.000368601
-0.00391403
-0.00380572
0.00385528
0.000110621
0.000183853
-0.00388533
0.00383409
-1.11085e-05
-1.19991e-05
-0.00378741
0.00378904
-9.85725e-06
-1.06761e-05
-0.00379058
0.00379206
-8.74147e-06
-9.50547e-06
-0.00379346
0.00379479
-7.7681e-06
-8.47066e-06
-0.00379605
0.00379725
-6.93227e-06
-7.57824e-06
-0.00379838
0.00379946
-6.21737e-06
-6.8148e-06
-0.00380048
0.00380145
-5.59929e-06
-6.16105e-06
-0.00380237
0.00380324
-5.05088e-06
-5.59006e-06
-0.00380407
0.00380485
-4.54927e-06
-5.07598e-06
-0.0038056
0.00380631
-4.08287e-06
-4.60145e-06
-0.00380698
0.00380763
-3.64824e-06
-4.16023e-06
-0.00380824
0.00380882
-3.24708e-06
-3.75001e-06
-0.00380937
0.0038099
-2.87891e-06
-3.37431e-06
-0.00381041
0.00381089
-2.54332e-06
-3.03059e-06
-0.00381134
0.00381178
-2.23975e-06
-2.71938e-06
-0.00381219
0.00381259
-1.96557e-06
-2.43888e-06
-0.00381297
0.00381333
-1.71829e-06
-2.18636e-06
-0.00381367
0.003814
-1.49548e-06
-1.95913e-06
-0.00381431
0.00381461
-1.2967e-06
-1.75643e-06
-0.00384672
0.00383354
3.03174e-05
-1.5801e-06
2.8587e-05
4.11799e-05
-6.57454e-05
0.00387851
-1.70959e-05
2.95073e-05
0.00386111
0.00385927
-2.03752e-08
-2.13405e-07
0.00382944
0.00381609
-3.69444e-05
5.50328e-05
0.00382898
0.00381608
0.00388982
0.00387395
-0.00386242
3.57123e-05
-0.00382585
0.00386475
6.92541e-05
2.0122e-05
0.00385075
-0.00381457
-1.46447e-06
1.58778e-05
0.00381428
-0.00381396
-1.63145e-06
-2.04293e-06
0.00381363
-0.00381328
-1.82343e-06
-2.21652e-06
0.00381292
-0.00381254
-2.03914e-06
-2.41222e-06
0.00381214
-0.00381172
-2.28046e-06
-2.63265e-06
0.00381128
-0.00381081
-2.55019e-06
-2.87966e-06
0.00381033
-0.00380981
-2.85194e-06
-3.1566e-06
0.00380928
-0.00380871
-3.19029e-06
-3.46756e-06
0.00380812
-0.00380749
-3.5698e-06
-3.81717e-06
0.00380684
-0.00380615
-3.99338e-06
-4.20935e-06
0.00380543
-0.00380467
-4.4651e-06
-4.64756e-06
0.00380388
-0.00380304
-4.98826e-06
-5.1347e-06
0.00380217
-0.00380125
-5.56607e-06
-5.67555e-06
0.00380029
-0.00379927
-6.20232e-06
-6.2722e-06
0.00379821
-0.00379708
-6.90178e-06
-6.92946e-06
0.00379591
-0.00379467
-7.67145e-06
-7.65294e-06
0.00379336
-0.00379197
-8.52183e-06
-8.45103e-06
0.00379052
-0.00378897
-9.46935e-06
-9.33726e-06
0.00378735
-0.00378562
-1.05351e-05
-1.03303e-05
0.00378381
-0.00378188
-1.17427e-05
-1.14523e-05
0.00371662
-0.00367538
-1.31168e-05
-1.2733e-05
0.00363553
-0.0036059
2.53916e-05
-1.41853e-05
9.69272e-05
-6.15031e-05
-0.00364079
-0.00358396
7.49909e-05
8.46883e-05
-0.00380533
5.00651e-07
-0.00377523
4.70737e-05
0.0038182
0.0038503
2.69087e-05
0.000168079
-0.00357606
-0.00048166
-0.00431355
-7.47568e-05
-0.00366336
2.97393e-06
-0.00377303
5.70277e-06
-0.00370662
-0.0042544
-0.000729659
0.000143756
-0.000437258
-0.0039609
-0.00031522
-0.00385457
-5.55395e-05
-0.00364029
5.83605e-05
-0.000116476
-0.00358268
9.9093e-05
-0.00362469
-0.00382885
-0.0034647
0.00361903
-3.71968e-06
0.00364333
-0.00401321
-0.000359775
-0.000189973
-0.00373045
0.00378287
5.82043e-05
7.24302e-05
-0.00378467
0.00378641
-1.28477e-05
-1.38041e-05
-0.00378807
0.00378965
-1.14413e-05
-1.23317e-05
-0.00379116
0.0037926
-1.01838e-05
-1.10118e-05
-0.00379397
0.00379527
-9.07492e-06
-9.83878e-06
-0.00379651
0.00379769
-8.11077e-06
-8.81421e-06
-0.0037988
0.00379986
-7.27655e-06
-7.92722e-06
-0.00380086
0.00380181
-6.54981e-06
-7.15957e-06
-0.0038027
0.00380356
-5.90438e-06
-6.48594e-06
-0.00380436
0.00380513
-5.31811e-06
-5.88146e-06
-0.00380586
0.00380655
-4.77797e-06
-5.3283e-06
-0.00380721
0.00380784
-4.2786e-06
-4.81794e-06
-0.00380844
0.00380901
-3.81913e-06
-4.34705e-06
-0.00380955
0.00381007
-3.39867e-06
-3.91604e-06
-0.00381056
0.00381104
-3.01579e-06
-3.52295e-06
-0.00381148
0.00381191
-2.66913e-06
-3.16682e-06
-0.00381232
0.00381271
-2.35606e-06
-2.84549e-06
-0.00381308
0.00381344
-2.07366e-06
-2.55609e-06
-0.00381377
0.0038141
-1.81957e-06
-2.29592e-06
-0.0038144
0.0038147
-1.5932e-06
-2.06345e-06
-0.00381498
0.00384669
-1.39162e-06
-1.85724e-06
-0.0038497
0.00385876
3.89118e-05
2.55769e-05
-0.0038073
0.00382365
3.0727e-05
7.24124e-05
6.46519e-05
-4.77549e-05
0.00384421
-1.41918e-05
-7.87429e-06
0.00384572
0.00386866
4.79832e-05
2.31405e-07
0.0038303
0.0038595
-1.08123e-08
-2.16388e-07
0.00382967
0.00381631
4.39358e-07
-6.66706e-07
0.00382921
0.0038163
-2.78007e-05
2.21897e-05
0.00385905
0.00386135
-1.58084e-05
2.08242e-05
0.00384529
0.00386874
0.0038776
-0.00383379
2.54352e-05
-0.00385974
0.00383713
4.34313e-05
4.47719e-05
0.0038414
-0.00383297
2.72843e-05
2.77318e-05
0.00381493
-0.00381465
-1.74541e-06
-2.1603e-06
0.00381435
-0.00381404
-1.94287e-06
-2.33758e-06
0.00381372
-0.00381338
-2.16557e-06
-2.53948e-06
0.00381302
-0.00381265
-2.41573e-06
-2.76766e-06
0.00381225
-0.00381184
-2.6955e-06
-3.02423e-06
0.00381141
-0.00381095
-3.00809e-06
-3.31164e-06
0.00381047
-0.00380997
-3.35737e-06
-3.63348e-06
0.00380944
-0.00380888
-3.74788e-06
-3.99404e-06
0.0038083
-0.00380769
-4.18444e-06
-4.39802e-06
0.00380705
-0.00380637
-4.67069e-06
-4.84965e-06
0.00380566
-0.00380492
-5.21075e-06
-5.35291e-06
0.00380414
-0.00380332
-5.80888e-06
-5.91166e-06
0.00380247
-0.00380156
-6.46971e-06
-6.53074e-06
0.00380062
-0.00379962
-7.19859e-06
-7.21469e-06
0.00379858
-0.00379748
-8.00318e-06
-7.97016e-06
0.00379633
-0.00379511
-8.89294e-06
-8.80552e-06
0.00379383
-0.00379247
-9.88108e-06
-9.73195e-06
0.00379104
-0.00378952
-1.09852e-05
-1.07649e-05
0.00378793
-0.00378624
-1.22268e-05
-1.19238e-05
0.00378446
-0.00378257
-1.36301e-05
-1.32315e-05
0.00378059
-0.00377849
-1.52203e-05
-1.47139e-05
0.00377627
-0.00373385
-1.70288e-05
-1.63978e-05
0.00369234
-0.00362374
3.04937e-05
3.34798e-05
4.59663e-05
-7.97347e-05
-0.00359092
-0.00362158
4.38019e-05
5.56328e-05
-0.00369288
-0.00406886
-0.000381616
2.00925e-05
-0.00367091
0.00387296
-0.0038825
4.02712e-05
0.00386961
-4.52748e-06
4.14518e-05
-3.5392e-05
0.00383923
5.16506e-05
0.00382694
5.27089e-07
-0.00377278
3.14502e-06
-0.00377047
-0.000112833
-0.00386575
6.02996e-06
-0.00376819
9.19521e-06
-0.00376596
1.26609e-05
-0.00367507
6.54055e-05
-3.19587e-05
-0.00362437
2.10555e-05
-0.00357723
-0.00377269
-0.00392411
0.00373746
-0.000173134
-0.000313251
0.000429894
-0.0041855
0.00409203
-0.00425765
-0.000147626
-0.000213692
-0.00360488
0.00366851
-6.7351e-05
-5.73854e-05
-0.00374186
0.00378367
1.63901e-05
-9.18765e-07
-0.00378545
0.00378715
-1.45485e-05
-1.55821e-05
-0.00378877
0.00379032
-1.29906e-05
-1.39488e-05
-0.00379179
0.0037932
-1.15935e-05
-1.24839e-05
-0.00379454
0.00379581
-1.03529e-05
-1.11762e-05
-0.00379702
0.00379818
-9.26374e-06
-1.00233e-05
-0.00379926
0.0038003
-8.31229e-06
-9.01535e-06
-0.00380127
0.0038022
-7.47817e-06
-8.13546e-06
-0.00380308
0.00380391
-6.73704e-06
-7.36045e-06
-0.0038047
0.00380545
-6.0676e-06
-6.66687e-06
-0.00380615
0.00380683
-5.45552e-06
-6.03662e-06
-0.00380747
0.00380809
-4.89323e-06
-5.45921e-06
-0.00380867
0.00380923
-4.37771e-06
-4.92947e-06
-0.00380976
0.00381027
-3.9068e-06
-4.44541e-06
-0.00381075
0.00381121
-3.47823e-06
-4.00459e-06
-0.00381165
0.00381207
-3.08986e-06
-3.60499e-06
-0.00381247
0.00381285
-2.73882e-06
-3.24399e-06
-0.00381321
0.00381356
-2.42205e-06
-2.91861e-06
-0.00381389
0.00381421
-2.13699e-06
-2.62597e-06
-0.00381451
0.0038148
-1.88199e-06
-2.36402e-06
-0.00381507
0.00381533
-1.6535e-06
-2.13088e-06
-0.00384283
0.00385677
2.49758e-05
-1.92474e-06
4.66819e-05
1.86676e-05
-4.25191e-05
0.00386806
-2.95642e-05
2.67257e-06
0.00387261
0.00385776
-4.19256e-07
2.07676e-07
0.00383051
0.00381656
4.79764e-09
-2.21415e-07
0.00382989
0.00381653
4.37459e-07
-6.55375e-07
0.00382943
0.00381652
-4.41608e-05
3.28194e-05
0.00387039
0.00381654
0.00386617
0.00387202
-0.00387436
2.77807e-05
-0.00386369
0.00384687
6.02474e-05
5.31012e-05
0.00384439
-0.00381528
-1.82775e-06
-2.24271e-06
0.00381501
-0.00381474
-2.02376e-06
-2.42173e-06
0.00381445
-0.00381414
-2.24788e-06
-2.62536e-06
0.00381383
-0.00381349
-2.50115e-06
-2.85611e-06
0.00381314
-0.00381277
-2.78523e-06
-3.11636e-06
0.00381239
-0.00381198
-3.10273e-06
-3.40847e-06
0.00381156
-0.00381111
-3.4572e-06
-3.73542e-06
0.00381064
-0.00381015
-3.85275e-06
-4.10107e-06
0.00380963
-0.00380908
-4.29413e-06
-4.50992e-06
0.00380851
-0.00380791
-4.78609e-06
-4.96677e-06
0.00380729
-0.00380662
-5.3332e-06
-5.47624e-06
0.00380593
-0.0038052
-5.93982e-06
-6.04278e-06
0.00380445
-0.00380364
-6.61116e-06
-6.67109e-06
0.00380281
-0.00380192
-7.353e-06
-7.36675e-06
0.003801
-0.00380003
-8.17289e-06
-8.1362e-06
0.00379901
-0.00379793
-9.08052e-06
-8.98805e-06
0.00379681
-0.00379561
-1.00878e-05
-9.93307e-06
0.00379436
-0.00379303
-1.12101e-05
-1.09848e-05
0.00379163
-0.00379015
-1.24662e-05
-1.21602e-05
0.0037886
-0.00378694
-1.38782e-05
-1.34799e-05
0.00378521
-0.00378337
-1.54709e-05
-1.49672e-05
0.00378143
-0.00377938
-1.72708e-05
-1.66483e-05
0.00377723
-0.00377495
-1.93087e-05
-1.85506e-05
0.00372077
-0.00366866
-2.16104e-05
-2.07037e-05
0.00364397
-0.00364714
2.42302e-05
1.91061e-05
-0.000209914
3.40578e-05
-0.00367872
-0.00374092
6.5798e-05
-3.27533e-05
-0.00361027
-0.00358637
5.02583e-06
2.0217e-06
-0.00367481
4.51934e-05
0.00382709
0.00387922
1.92999e-05
0.000102973
-0.00422427
-0.000136353
5.70668e-07
-0.00377021
0.000215486
-0.00429801
-3.46767e-05
-0.00374907
3.32943e-06
-0.00376777
-4.25669e-05
-0.00378912
6.37293e-06
-0.00376537
9.72615e-06
-0.00376303
1.34139e-05
-0.00372045
-2.28777e-05
-0.00363425
3.40507e-05
-3.59661e-05
-0.00360836
3.54859e-05
-0.0035878
-0.00377009
-0.00418454
0.00401425
2.26576e-05
-0.000234994
-0.00416308
0.0001738
0.00430415
-0.00420288
-0.000336271
-1.67337e-05
-0.00390064
0.00381449
-8.6981e-05
-0.000100078
-0.00377868
0.00373158
-2.02526e-05
-2.15791e-05
-0.00375
0.00378452
-1.81352e-05
-1.93346e-05
-0.00378627
0.00378794
-1.62164e-05
-1.73288e-05
-0.00378952
0.00379103
-1.45051e-05
-1.55315e-05
-0.00379247
0.00379385
-1.29696e-05
-1.39218e-05
-0.00379515
0.0037964
-1.16001e-05
-1.24814e-05
-0.00379758
0.0037987
-1.03886e-05
-1.12031e-05
-0.00379977
0.00380078
-9.32248e-06
-1.00769e-05
-0.00380173
0.00380263
-8.38292e-06
-9.0869e-06
-0.00380348
0.0038043
-7.54795e-06
-8.21239e-06
-0.00380506
0.00380579
-6.797e-06
-7.43143e-06
-0.00380648
0.00380714
-6.11472e-06
-6.72582e-06
-0.00380776