/*--------------------------------*- C++ -*----------------------------------*\
  =========                 |
  \\      /  F ield         | OpenFOAM: The Open Source CFD Toolbox
   \\    /   O peration     | Website:  https://openfoam.org
    \\  /    A nd           | Version:  10
     \\/     M anipulation  |
\*---------------------------------------------------------------------------*/
FoamFile
{
    format      ascii;
    class       volScalarField;
    location    "24.5";
    object      p;
}
// * * * * * * * * * * * * * * * * * * * * * * * * * * * * * * * * * * * * * //

dimensions      [0 2 -2 0 0 0 0];

internalField   nonuniform List<scalar> 
6397
(
4.3893
4.09388
-2.52382
-1.79619
-1.86751
-2.67512
6.75012
3.20094
-16.6004
-12.9925
5.78596
2.17795
-0.216938
-0.148882
-0.209623
-12.9527
-10.7661
-10.8481
12.3083
12.1597
11.481
-11.9147
-14.1136
-15.0552
-0.100355
-0.0546752
-0.0137129
-1.84238
-1.76224
-2.92663
-2.78113
0.0540801
-0.383677
-1.1118
1.24251
1.07322
0.81131
0.540679
1.4512
1.5089
1.44388
1.3294
-2.97752
-4.7509
-5.56576
-3.53908
-3.39944
-4.33029
1.4843
1.42557
1.41352
1.28311
1.36576
4.62105
4.13419
2.8062
2.83995
1.24708
-2.98064
-2.45279
-3.54168
-4.00739
-4.29105
-4.31945
-4.04721
-3.53847
-2.97125
-2.46567
-2.72231
-2.04426
-2.10255
-3.48255
-4.27038
-4.93192
-5.28657
-5.25646
-4.8293
-4.13022
-3.36167
-2.6846
-1.65421
-1.79102
-2.11924
-2.19033
-1.34933
-1.67851
-1.96845
-1.89584
-1.16795
-1.68609
-1.99605
-1.78298
-1.07052
-1.02571
-2.20604
-1.81536
-0.667616
-0.375464
-0.478929
-1.38183
-0.96163
-2.74779
-1.97113
-4.64718
-3.68053
-5.89637
-5.45374
-5.24667
-5.79662
-3.42572
-4.37191
-1.99154
-2.60442
-1.39197
-1.60666
-1.29749
-1.87411
-2.45341
-2.05636
-2.05747
-1.87433
-2.73483
-2.36606
-3.21804
-3.0417
-2.94926
-3.13733
-2.30196
-2.62399
-1.85164
-2.01304
-1.96153
-1.83445
-2.52015
-2.22107
-0.975363
-1.86095
-0.277046
-1.30906
-1.99717
-2.51469
-3.10559
-3.34842
-1.44144
-0.62786
-0.63532
-4.08172
0.143135
0.268216
-4.21831
-2.62251
-0.202936
0.00600787
-1.01513
-0.535422
-2.51507
-1.66986
-4.61083
-3.54168
-5.97416
-5.49258
-5.2164
-5.84465
-3.193
-4.25143
-1.60184
-2.27899
-0.867704
-1.15543
-0.699922
-1.66037
-1.97686
-1.54957
-1.52642
-1.88097
-1.69754
-2.12237
-2.06471
-1.92586
-2.09706
-1.59683
-1.76385
-1.6219
-1.55432
-2.21285
-1.84165
-3.28579
-2.71822
-3.74685
-0.882852
-1.82592
0.383491
-0.1689
-4.52855
-4.04034
-2.34568
0.00209114
0.0557752
-0.702629
-1.6675
-4.62153
-5.99877
-6.32358
-2.90311
-4.13254
0.454499
0.790377
0.859593
-5.34333
-5.13898
-3.25797
0.570642
0.675332
0.204637
0.421874
-0.605107
-0.1285
-2.0957
-1.25516
-4.16256
-3.11447
-5.51913
-5.03791
-4.72056
-5.35916
-2.72282
-3.77207
-1.1085
-1.80373
-0.315156
-0.639572
-0.116238
-2.34709
-3.28209
-1.33739
-1.73187
-1.02024
-1.11736
-1.08507
-1.03801
-1.16105
-1.14274
-1.05335
-1.12565
-1.00939
-0.999669
-1.38991
-1.13666
-2.36806
-1.80095
-3.88266
-3.08259
-4.62585
-0.81508
-1.75338
-0.0951247
0.0829024
-5.16519
-2.81046
-8.06829
-7.44308
-0.790116
-1.90547
0.486482
0.874379
-2.68184
-3.79289
-5.78491
-6.07788
1.08223
1.13356
0.0967152
0.14081
-0.877415
-5.23512
-4.03265
0.904658
1.00318
0.566614
0.767887
-0.178505
0.24801
-1.53306
-0.770725
-3.39639
-2.45628
-4.47523
-4.15898
-3.85798
-4.41972
-2.06723
-3.00269
-0.575253
-1.22561
0.192816
-0.11845
0.518591
0.395909
0.65664
0.603765
0.724444
0.691477
-4.31639
-7.8791
-6.04794
-1.99266
-2.95387
-0.924195
-1.35513
-0.503731
-0.660516
-0.3921
-0.429307
-0.339609
-0.36629
-0.305802
-0.313458
-0.472187
-0.347205
-1.09423
-0.71688
-2.35533
-1.63866
-4.23476
-3.25525
-5.13566
-0.749179
-1.65327
-0.0421752
-9.30109
-9.21395
0.118767
0.735506
-6.2683
-3.26815
1.14127
-4.81462
-5.99955
-6.30537
-8.44704
-2.0633
-9.38925
-9.44362
-0.827455
0.135964
0.732298
-5.96137
-4.7824
1.2865
1.31753
1.32544
1.16334
1.24989
0.859494
1.05016
0.226134
0.594834
-0.904982
-0.269552
-2.44734
-1.66852
-3.36639
-3.07995
-2.79531
-3.26807
-1.31259
-2.08989
-0.0620522
-0.615969
0.613104
0.337203
0.921818
0.795657
1.06121
0.999916
1.13498
1.10173
1.12917
1.14723
-6.92307
-8.30783
-8.15676
-3.6217
-5.2269
-1.47699
-2.37688
-0.47067
-0.882736
-0.0161856
-0.196648
0.179187
0.0986553
0.300583
0.246043
0.305831
0.325409
0.0308932
0.215109
-0.73099
-0.280533
-2.15886
-1.35566
-4.25018
-3.16414
-5.26451
-8.32439
-7.28579
0.682632
1.07323
-5.46467
-6.13492
-4.17244
-4.69205
-2.36354
-3.3152
-0.667402
-1.4655
0.470865
-0.0193142
1.09755
0.830317
1.28384
-7.01431
-3.55611
-8.56572
-2.05464
-8.44886
-0.731506
-5.59041
-6.52191
0.152777
0.983239
0.577027
1.42445
1.38454
-5.2771
1.43051
1.44698
1.34917
1.41492
1.09495
1.25662
0.582561
0.884154
-0.312218
0.188926
-1.47544
-0.892541
-2.13895
-1.93504
-1.68813
-2.0431
-0.572982
-1.16498
0.395812
-0.0377913
0.940782
0.711965
1.19907
1.09506
1.31981
1.26889
1.38842
1.36193
1.38204
1.40097
1.26674
1.33532
-6.49896
-4.1638
-5.61841
-5.35843
-6.38119
-2.61889
-3.94832
-0.886507
-1.62377
-0.00902846
-0.375382
0.425031
0.24687
0.634608
0.544173
0.772244
0.710755
0.781871
0.803652
0.476981
0.67878
-0.330613
0.142169
-1.80909
-0.980455
-3.91998
-2.83274
-5.71324
-4.96152
-5.78032
-6.00824
-5.14149
-3.41151
-3.81376
-3.79567
-2.02318
-2.76323
-0.622647
-1.29178
0.404243
-0.049719
0.997736
0.744711
-3.82336
-2.66687
0.847108
1.18338
1.28923
1.17871
-7.08306
-3.57636
-7.73478
-1.88958
-6.74742
-0.631518
-4.63417
0.090292
-1.40791
-2.3336
0.421085
1.09005
0.663937
-0.510546
-0.46218
0.206687
0.944848
1.37815
1.21313
1.32768
1.16158
1.22359
-5.31377
1.45346
1.43599
1.51449
1.51931
1.4622
1.51704
1.26724
1.39546
0.868135
1.10166
0.214176
0.573994
-0.584861
-0.18782
-1.02462
-0.890231
-0.715187
-0.954259
0.046957
-0.363467
0.760329
0.434568
1.17356
0.999526
1.37749
1.29294
1.49745
1.44177
1.59492
1.55128
1.62677
1.6234
1.56031
1.60978
1.49092
-2.49745
-1.4284
-4.24301
-3.54357
-3.52733
-4.24151
-1.59736
-2.54185
-0.30939
-0.864474
0.399986
0.0957476
0.791136
0.626504
0.981524
0.901971
1.10422
1.04744
1.12218
1.13713
0.839853
1.02979
0.0736754
0.524018
-1.32757
-0.543706
-3.29852
-2.28111
-4.95761
-4.26804
-4.98463
-5.22377
-4.33212
-2.84677
-2.46659
-2.67245
-2.88212
-1.76117
-2.27036
-0.669559
-1.20948
0.246374
-0.17412
0.838408
0.579075
1.03267
-6.4552
-3.30206
-6.30815
-1.64347
-4.94484
-0.586966
-3.05421
-0.0764835
-1.22649
0.204987
0.72983
0.206339
0.432416
1.02754
0.723649
1.18459
1.0966
1.44452
0.868639
1.36011
1.27322
0.941187
1.0577
1.35117
1.23304
-4.87055
1.49602
1.44721
1.55627
1.54517
1.52794
1.55638
1.3818
1.46917
1.08955
1.25287
0.647437
0.883813
0.144541
0.389287
-0.115649
-0.0335781
0.0642406
-0.0728818
0.527712
0.274912
1.01811
0.787548
1.33141
1.19997
1.49815
1.42571
1.62995
1.56478
1.74205
1.70025
1.76983
1.77244
1.66902
1.7352
1.51412
1.59085
1.43426
0.349873
0.814439
-0.849219
-0.208164
-2.13186
-1.57037
-1.85494
-2.22162
-0.660329
-1.25362
0.206477
-0.174619
0.727947
0.497856
1.05587
0.911809
1.22369
1.15503
1.3219
1.27551
1.34349
1.35049
1.11291
1.27046
0.448178
0.842365
-0.779745
-0.0925058
-2.48578
-1.59978
-3.90589
-3.30193
-3.9198
-4.12651
-3.33
-1.10479
-0.504119
-1.89943
-1.57348
-2.05064
-2.06309
-1.56966
-1.87108
-0.794934
-1.19641
-0.025297
-0.394844
0.561609
0.296508
0.772599
-5.36927
-2.84859
-4.79227
-1.45113
-3.45346
-0.653465
-1.92445
-0.345206
-0.461137
-0.0977055
0.674777
0.13399
1.59996
1.3162
0.417898
1.1614
0.735853
1.08829
-4.13263
1.36852
1.12634
1.25156
1.51074
1.436
1.56839
1.53538
1.55435
1.55942
1.44379
1.50017
1.23707
1.34809
0.947344
1.09887
0.667281
0.796061
0.559701
0.59622
0.632719
0.578294
0.87753
0.737835
1.19705
1.04226
1.43476
1.33266
1.57574
1.51323
1.68654
1.63291
1.75998
1.72473
1.75776
1.76593
1.72862
1.74345
1.67908
1.71038
1.57735
1.63152
1.49488
1.53092
1.55764
1.77044
1.70196
1.08412
1.34811
0.44179
0.79754
-0.483954
-0.0350016
-0.504118
-0.646719
0.137478
-0.188018
0.648893
0.415085
0.992958
0.83659
1.24099
1.12439
1.38757
1.32638
1.45904
1.4262
1.47548
1.47911
1.30059
1.4208
0.766208
1.08422
-0.237951
0.324017
-1.61291
-0.901143
-2.71066
-2.24879
-2.73932
-2.90233
-1.54233
-2.22162
-0.895452
-0.395376
0.461346
0.0476895
-1.12641
-0.784831
-1.52236
-1.3912
-1.41066
-1.51681
-0.983868
-1.22622
-0.404814
-0.704276
0.194967
-0.0950461
0.659601
0.448187
0.91194
0.824387
1.66891
1.77717
1.05799
1.47267
-4.22782
-2.40745
0.211253
-3.55887
-1.39507
1.14939
0.774547
0.993466
-2.42232
-0.884643
-1.18018
-0.714977
0.0635009
-0.552642
0.969176
-0.259867
1.40915
0.0472789
1.73033
1.65754
0.575916
1.05376
1.47346
-3.37776
1.35599
1.24775
1.47813
1.41367
1.53754
1.50715
1.52891
1.53676
1.45588
1.49879
1.3316
1.40216
1.1654
1.25372
1.00625
1.07907
0.964136
0.960526
1.00393
0.981949
1.10764
1.04344
1.31105
1.20514
1.49591
1.41175
1.62744
1.56595
1.7386
1.68314
1.82186
1.79359
1.85337
1.84354
1.82262
1.84488
1.73753
1.78346
1.67004
1.69474
1.65599
1.66179
1.70223
1.66343
1.88416
1.79911
1.85562
1.82194
1.87587
1.62599
1.72722
1.30877
1.5022
0.648268
0.991519
0.464967
0.463833
0.752637
0.592489
1.03535
0.901834
1.23085
1.14074
1.38198
1.30599
1.49261
1.44338
1.54273
1.52231
1.5475
1.5544
1.41816
1.50733
1.01295
1.25641
0.244581
0.675427
-0.786058
-0.25544
-1.58617
-1.25428
-1.57691
-1.73156
-0.710081
-1.21228
-0.217183
0.830582
1.06289
0.218219
0.545609
-0.498964
-0.145873
-1.05005
-0.807824
-1.31392
-1.21825
-1.2574
-1.32739
-0.891177
-1.10936
-0.294485
-0.611494
0.316658
0.0249238
0.568941
1.63413
1.70089
1.54753
1.78262
-3.3294
-2.13898
1.16256
1.10868
-2.7426
-1.52188
-1.79826
-1.30513
-0.711148
-1.25877
0.39553
-1.18507
1.1008
-0.812535
1.40908
-0.379607
1.5683
0.408289
1.5581
1.47873
1.18405
1.60188
1.45632
1.38502
1.40782
1.72335
1.89366
-2.82314
1.32544
1.23605
1.44173
1.37641
1.50084
1.46603
1.50875
1.50648
1.47539
1.49779
1.404
1.4469
1.3007
1.35599
1.21327
1.24974
1.20094
1.19488
1.22561
1.2139
1.27042
1.24139
1.39228
1.32459
1.52884
1.46376
1.64462
1.58917
1.7376
1.69437
1.80296
1.76221
1.83292
1.82314
1.83203
1.8326
1.81777
1.82868
1.78032
1.79851
1.75341
1.76223
1.78928
1.75863
1.93155
1.85103
1.83078
1.73066
1.93738
1.89853
1.96755
1.96029
1.96065
1.96871
1.81098
1.92425
1.35525
1.596
1.11246
1.18986
1.15376
1.11266
1.28223
1.21151
1.41361
1.34962
1.50987
1.46279
1.57708
1.54679
1.60076
1.59425
1.58498
1.59817
1.48352
1.55095
1.19011
1.36829
0.635193
0.948848
-0.0982893
0.280291
-0.66172
-0.424351
-0.64996
-0.742516
-0.0302628
-0.393897
0.635269
0.334799
0.87435
1.16083
1.31395
0.67905
0.953844
0.0279437
0.359678
-0.699239
-0.330477
-1.32494
-1.03903
-1.63376
-1.53081
-1.4866
-1.62051
-0.887404
-1.23449
-0.0862108
-0.48301
0.625562
0.305353
0.995663
0.824787
-2.79776
-2.11631
2.01734
2.01768
1.07785
0.880622
0.925766
1.93142
1.9738
-2.31082
-1.87699
-1.47341
-1.94538
-0.445785
-2.08505
0.550727
-2.02173
1.11607
-1.57828
1.34672
-0.792863
1.42548
0.365853
1.30435
1.37157
1.22588
1.13261
1.28245
1.42981
1.19638
0.713459
1.22042
0.710095
-2.56788
1.1894
1.13772
1.29576
1.23549
1.40043
1.3495
1.46632
1.43636
1.48887
1.48259
1.47292
1.48709
1.42688
1.45492
1.37435
1.40204
1.34265
1.35568
1.34348
1.33947
1.36016
1.35186
1.3848
1.36825
1.45734
1.41522
1.55729
1.5066
1.6557
1.6072
1.74263
1.70104
1.80886
1.77593
1.8424
1.83043
1.84155
1.84453
1.82242
1.83298
1.81983
1.81657
1.82757
1.82481
1.85194
1.83272
1.88678
1.63174
1.50447
1.84453
1.74671
1.96957
1.91684
2.05201
2.01445
2.12085
2.09077
2.05169
2.11998
1.74049
1.90878
1.50056
1.60097
1.43314
1.44998
1.4561
1.43646
1.51805
1.48394
1.5816
1.55017
1.62525
1.6062
1.63566
1.63485
1.60614
1.62546
1.51461
1.57151
1.3035
1.43214
0.916423
1.13693
0.415628
0.672374
0.0517477
0.199975
0.073634
0.00911612
0.467803
0.241902
0.895694
0.689097
1.06595
1.54729
1.54217
1.41699
1.51162
1.05856
1.27033
0.425971
0.781365
-0.495848
-0.0156392
-1.43192
-0.976845
-2.09281
-1.81896
-2.17935
-2.2205
-1.57213
-1.95727
-0.548684
-1.07425
0.399198
-0.0338165
0.636004
1.96519
0.756564
2.06425
1.99581
-2.61002
-2.35451
-2.17701
-2.5175
-1.37989
-2.89502
2.12198
-0.35924
-3.26461
0.563599
-3.11114
1.06897
-2.45719
1.07904
1.19502
1.08021
0.939567
1.18772
-0.981499
0.948537
1.21179
0.643699
0.987391
1.07257
1.75729
0.659743
1.48796
1.56805
2.06084
1.9846
1.50661
-2.61357
1.02863
0.798533
0.916953
1.17307
1.10889
1.26859
1.22571
1.35889
1.31936
1.42124
1.39388
1.45216
1.43926
1.45851
1.45764
1.44548
1.45473
1.42296
1.43592
1.41312
1.41527
1.42218
1.41387
1.44007
1.43096
1.45803
1.44643
1.50477
1.47698
1.57956
1.53994
1.66113
1.62081
1.73639
1.70029
1.79601
1.7683
1.83157
1.81701
1.84747
1.84096
1.8452
1.84894
1.83663
1.83953
1.84727
1.83912
1.87896
1.86092
1.92246
1.89991
1.94281
1.94073
1.93058
1.8803
1.92471
1.43801
1.31625
1.65966
1.55191
1.84932
1.75993
1.98494
1.92392
2.08618
2.0376
2.16903
2.13206
2.13825
2.17828
1.92465
2.04391
1.70956
1.80502
1.60786
1.64483
1.58973
1.59227
1.60439
1.59563
1.624
1.61465
1.63961
1.63257
1.63927
1.64154
1.60473
1.62652
1.52198
1.57091
1.36299
1.45611
1.09415
1.24275
0.764915
0.928014
0.542109
0.630923
0.566227
0.526601
0.779061
0.673739
1.04461
0.915926
1.27717
1.16514
1.36878
1.67772
1.63851
1.62473
1.67731
1.34118
1.52063
0.668764
1.06158
-0.372893
0.179598
-1.57891
-0.971528
-2.57247
-2.13446
-2.87588
-2.83333
-2.27752
-2.68325
-1.08603
-1.70965
0.0363024
-0.482024
0.453911
0.340264
0.552552
-2.71224
-2.88292
1.80647
1.84984
1.79632
-2.30327
-3.51926
2.15931
-1.5037
-4.25744
-0.404755
-4.7609
2.15506
0.975404
1.12043
1.05704
0.890762
0.516808
-4.36313
0.806908
0.927719
-2.98164
1.83135
1.99985
0.766111
0.935195
-0.63709
0.757011
0.95721
1.25794
0.854467
0.838145
0.723473
0.764188
0.594461
1.43163
1.46496
0.670002
-2.95171
0.998708
0.919421
1.13685
1.0712
1.24136
1.19412
1.32577
1.28798
1.38861
1.36125
1.42574
1.40989
1.44057
1.43495
1.43925
1.44062
1.43729
1.43768
1.44313
1.44036
1.46384
1.4544
1.48172
1.473
1.49986
1.48918
1.53622
1.51506
1.59507
1.56342
1.66436
1.6298
1.73023
1.6982
1.78294
1.75831
1.81713
1.80248
1.83556
1.82767
1.84463
1.84063
1.853
1.84896
1.85784
1.85525
1.88029
1.86588
1.90773
1.89597
1.90674
1.91226
1.88704
1.29522
1.20229
1.49109
1.39209
1.67911
1.58706
1.84867
1.76755
1.98154
1.92
2.08415
2.03488
2.16059
2.12738
2.14341
2.16914
1.9981
2.08017
1.83065
1.92831
1.71559
1.76483
1.65949
1.68094
1.65037
1.65149
1.65686
1.65452
1.65679
1.65903
1.64115
1.65101
1.60021
1.6232
1.51878
1.56217
1.38608
1.45685
1.18862
1.29101
0.97085
1.07437
0.837783
0.891178
0.845891
0.825473
0.966449
0.88398
1.1289
1.04231
1.28353
1.21051
1.37116
1.63188
1.4664
1.53456
1.74576
1.7044
1.75341
1.76475
1.53705
1.69246
0.852528
1.25664
-0.279123
0.337564
-1.71299
-0.978376
-3.00212
-2.4181
-3.49791
-3.38259
-2.89065
-3.32414
-1.58045
-2.26497
-0.401029
-0.937848
0.186395
-0.0256304
0.395813
1.71276
1.73374
-3.09862
-3.78219
2.10618
-2.68076
-4.92527
1.01062
1.16595
1.14077
0.972906
-1.8011
-6.00184
2.25239
0.826428
-0.437858
-6.28061
0.691402
0.407985
-5.10531
1.69978
2.09971
0.593609
0.647306
-2.52201
1.87712
0.538726
0.646666
0.317871
0.603985
0.678705
0.712089
1.42673
1.61349
1.67005
-3.62282
0.854223
0.741189
0.789652
0.982822
0.920746
1.103
1.04443
1.20693
1.15817
1.28956
1.25224
1.35182
1.32404
1.39448
1.37543
1.42119
1.40885
1.43531
1.42846
1.44421
1.43941
1.4581
1.4503
1.47976
1.46836
1.50245
1.49159
1.52347
1.51216
1.55525
1.53728
1.60367
1.57761
1.66235
1.63275
1.72062
1.69192
1.76811
1.74538
1.8025
1.78705
1.82394
1.81455
1.83606
1.83045
1.849
1.84221
1.86135
1.85542
1.8759
1.86788
1.89004
1.8845
1.88001
1.88865
1.83528
1.86314
1.75719
1.7972
1.60721
1.68459
1.71921
1.24208
1.19699
1.3771
1.30429
1.53653
1.45502
1.69479
1.6168
1.84359
1.77073
1.96691
1.90896
2.06074
2.01734
2.12474
2.09796
2.11543
2.13215
2.00224
2.06974
1.86281
1.90827
1.76519
1.80922
1.71249
1.73389
1.68774
1.69843
1.67187
1.68013
1.65577
1.66548
1.63003
1.64562
1.58217
1.61036
1.50584
1.54873
1.39037
1.45303
1.2375
1.31739
1.08676
1.1581
1.00167
1.03279
1.00248
0.983745
1.07051
1.0159
1.17278
1.10509
1.27798
1.22482
1.36567
1.33985
1.40829
1.67027
1.57486
1.80409
1.73905
1.87756
1.85857
1.66653
1.82476
0.984584
1.38632
-0.211001
0.449836
-1.78254
-0.970561
-3.28255
-2.60322
-3.91509
-3.74169
-3.34239
-3.77254
-2.0001
-2.70615
-0.769512
-1.33437
0.0351817
-0.303437
0.532565
0.305767
0.669921
0.621695
1.9485
-3.78266
-5.09429
0.701373
1.5009
1.11691
0.940334
-3.24526
-6.62882
1.64604
1.54731
2.3471
0.770452
-2.15567
-7.66551
1.51385
0.596381
-0.627297
-6.98771
1.55157
2.23503
0.442342
0.242056
-4.47173
1.69816
0.341757
0.301934
-1.00223
1.95286
0.32859
0.370323
1.50905
0.320424
1.6014
1.67329
1.61797
1.10828
1.14479
-4.66405
0.754431
0.68784
0.720848
0.854881
0.800376
0.970324
0.914775
1.07759
1.02554
1.17552
1.1285
1.25745
1.21927
1.32031
1.29143
1.36557
1.34457
1.39702
1.3821
1.41921
1.40793
1.4396
1.4287
1.46208
1.4505
1.48529
1.4737
1.50878
1.49736
1.53321
1.52052
1.56442
1.54754
1.60717
1.58448
1.65706
1.63193
1.70538
1.68231
1.75116
1.73001
1.78491
1.76927
1.80858
1.79778
1.82484
1.8171
1.83954
1.8323
1.85317
1.84635
1.86731
1.86036
1.87468
1.87283
1.86249
1.87137
1.8303
1.84889
1.78155
1.80626
1.73814
1.75892
1.71352
1.26647
1.28854
1.25873
1.29618
1.28144
1.34495
1.3139
1.44666
1.38923
1.57408
1.50879
1.70682
1.63966
1.83601
1.7734
1.94413
1.89316
2.02745
1.98879
2.08142
2.05914
2.07223
2.08687
1.98732
2.0365
1.88361
1.93986
1.79931
1.83888
1.73692
1.76506
1.69945
1.7158
1.67575
1.68737
1.65204
1.66507
1.61948
1.63788
1.56942
1.59737
1.4951
1.53558
1.3935
1.44782
1.27114
1.33418
1.15828
1.21163
1.09302
1.11901
1.08408
1.08086
1.12046
1.09592
1.18584
1.15316
1.26363
1.22901
1.33007
1.29719
1.37746
1.35172
1.67964
1.59664
1.82767
1.75008
1.92341
1.89551
1.72535
1.86927
1.06601
1.46389
-0.159409
0.517321
-1.74067
-0.930462
-3.38069
-2.67906
-4.04741
-3.85533
-3.50145
-3.91549
-2.18728
-2.88864
-0.874601
-1.49274
0.038144
-0.347932
0.509864
0.297812
0.636491
0.580865
0.667968
0.925593
-4.6681
-6.6192
1.56387
1.55164
1.57791
1.24458
0.65711
1.50349
2.42951
0.724388
-3.77157
-8.15772
1.42744
0.517371
-2.1506
-8.29643
1.40689
2.43276
0.319467
-0.694337
-6.07465
1.49147
0.153793
-0.0530811
-2.31974
2.09842
1.72428
0.0338415
-0.0110072
0.985152
-0.0861389
0.0329714
1.38637
1.06499
0.956185
-5.90839
0.757482
0.721621
0.851984
0.802849
0.957067
0.905304
1.05663
1.00788
1.14789
1.10331
1.22696
1.18897
1.2903
1.25966
1.33891
1.3156
1.37566
1.35816
1.40376
1.39005
1.42868
1.416
1.45512
1.44188
1.48256
1.46909
1.50925
1.49641
1.53564
1.52242
1.56614
1.55009
1.60515
1.58456
1.64973
1.62725
1.6937
1.67216
1.73421
1.7149
1.76682
1.75143
1.79151
1.78
1.81022
1.80124
1.82716
1.81874
1.84209
1.83508
1.85391
1.84824
1.86063
1.85874
1.85047
1.85784
1.82987
1.84067
1.80466
1.81796
1.77297
1.79053
1.70491
1.74537
1.49407
1.51829
1.64816
1.66152
1.38548
1.42189
1.38495
1.40496
1.39645
1.43136
1.41405
1.50622
1.46276
1.60523
1.55436
1.71593
1.65945
1.82625
1.77238
1.92026
1.87544
1.992
1.95914
2.03321
2.01719
2.02423
2.03585
1.95906
1.99769
1.87531
1.90781
1.80174
1.83797
1.74396
1.77045
1.70549
1.72348
1.67537
1.69061
1.64492
1.66085
1.60748
1.62712
1.55627
1.5832
1.48543
1.52286
1.39591
1.44291
1.29627
1.34674
1.2074
1.24848
1.15155
1.17329
1.13363
1.13748
1.14887
1.13972
1.19097
1.17411
1.24307
1.22232
1.2903
1.26552
1.3123
1.29918
1.46539
1.35011
1.63485
1.55557
1.82859
1.72704
1.93451
1.90982
1.72354
1.87498
1.05931
1.45793
-0.136789
0.520952
-1.6875
-0.887871
-3.18214
-2.49892
-3.85631
-3.65504
-3.35605
-3.74642
-2.06436
-2.76144
-0.72831
-1.35963
0.151598
-0.207827
0.519123
0.37038
0.619193
0.574242
0.645032
1.49157
2.45721
0.694667
-5.41666
-7.84931
0.657398
1.5097
1.37984
0.456682
-3.86596
-8.67488
0.605599
1.55116
1.67245
1.2891
1.40923
1.26988
2.67337
0.205943
-2.01509
-7.24906
1.29245
-0.0242723
-0.802141
-3.82665
2.35504
1.45116
-0.255597
-0.45832
0.14966
1.83059
-0.457714
-0.372074
2.58889
1.40074
1.40978
-0.40516
1.42759
0.832177
0.710326
-6.88629
0.755923
0.708869
0.847422
0.800721
0.942931
0.894333
1.03676
0.990002
1.12309
1.08069
1.19922
1.16236
1.2624
1.23196
1.31288
1.28862
1.35324
1.33401
1.38668
1.37057
1.41689
1.40201
1.44616
1.43225
1.4749
1.46088
1.50333
1.48937
1.53246
1.51794
1.56375
1.54769
1.59981
1.58109
1.63982
1.6195
1.68005
1.66022
1.717
1.69916
1.74832
1.73338
1.77342
1.76157
1.79335
1.78377
1.8116
1.80247
1.82825
1.82046
1.83989
1.83459
1.84736
1.84459
1.84192
1.84647
1.83084
1.83591
1.82469
1.82776
1.79797
1.81575
1.74538
1.77261
1.72373
1.72403
1.63251
1.53617
1.71855
1.53396
1.61182
1.48709
1.49534
1.49416
1.49047
1.50436
1.49553
1.55678
1.52547
1.63409
1.5938
1.723
1.67735
1.81646
1.76997
1.89612
1.85883
1.95403
1.92757
1.98691
1.97419
1.97954
1.98912
1.9271
1.95797
1.859
1.88928
1.79743
1.82778
1.74445
1.76993
1.70301
1.72284
1.66852
1.6857
1.63422
1.65167
1.59421
1.61449
1.54358
1.56959
1.47673
1.51128
1.39769
1.43841
1.31365
1.35563
1.23858
1.27374
1.18726
1.20925
1.16353
1.17321
1.16622
1.1649
1.18927
1.17999
1.22108
1.20545
1.24669
1.23161
1.24173
1.24797
1.17842
1.21156
1.37666
1.19302
1.27047
1.57866
1.47903
1.77825
1.68506
1.82833
1.83071
1.61333
1.76111
0.980765
1.35882
-0.126664
0.479473
-1.52375
-0.80972
-2.79553
-2.21398
-3.33577
-3.18709
-2.84317
-3.21243
-1.65355
-2.29328
-0.445939
-1.01348
0.295997
-0.00295529
0.561848
0.452336
0.61327
0.58868
0.62289
0.623492
0.613679
1.37915
0.414872
-5.58698
-8.1268
0.649714
1.75048
1.14062
1.22602
1.25657
1.24602
1.61661
1.49829
3.02366
0.0958353
-3.50651
-7.53929
1.12874
-0.20977
-1.90134
-5.13516
2.7278
1.28041
1.17659
-0.507031
-1.03103
-1.55035
1.46312
-0.788641
-0.963822
2.00828
2.05803
-0.879825
-0.87373
1.61207
0.53234
1.06122
0.802438
1.48837
0.410713
-7.06809
0.745604
0.697257
0.838179
0.793244
0.927727
0.882755
1.01696
0.972617
1.10011
1.0593
1.17404
1.1381
1.23723
1.2066
1.28927
1.26412
1.33222
1.3116
1.36876
1.35109
1.40204
1.38576
1.43418
1.41781
1.46562
1.45028
1.49551
1.48093
1.5253
1.51046
1.55688
1.5408
1.59175
1.57394
1.62858
1.61
1.66528
1.6472
1.69928
1.68272
1.72925
1.71479
1.75444
1.74242
1.77533
1.76522
1.79477
1.78507
1.81204
1.80395
1.82522
1.81898
1.83493
1.83089
1.8354
1.83635
1.83326
1.83369
1.83618
1.83511
1.81916
1.83194
1.78681
1.80088
1.79005
1.7817
1.79472
1.85527
1.81485
1.7197
1.78283
1.7089
1.79133
1.90094
1.84647
1.63115
1.69975
1.57364
1.59013
1.56644
1.56898
1.56579
1.56366
1.60009
1.57816
1.65894
1.62807
1.72864
1.69222
1.80562
1.76728
1.87056
1.84035
1.91827
1.8964
1.94395
1.93458
1.93542
1.94432
1.89479
1.91815
1.84038
1.86762
1.78559
1.81304
1.73588
1.76005
1.69502
1.71474
1.65892
1.67675
1.62233
1.6405
1.58073
1.60167
1.5306
1.55642
1.4681
1.50046
1.39766
1.43373
1.32482
1.3607
1.25892
1.28986
1.20997
1.23219
1.1815
1.19461
1.17375
1.17749
1.18165
1.17801
1.19738
1.18797
1.20056
1.19827
1.1821
1.19689
1.12275
1.15714
1.08174
1.15252
1.0342
1.09895
1.2965
1.21469
1.49688
1.39536
1.66202
1.59159
1.67217
1.69113
1.42922
1.59035
0.819672
1.17311
-0.145169
0.374913
-1.29096
-0.713486
-2.2682
-1.82855
-2.63121
-2.55008
-2.14662
-2.48997
-1.11761
-1.65991
-0.150582
-0.596361
0.409293
0.191162
0.595339
0.521007
0.609805
0.605894
0.58718
0.599483
0.570169
0.575992
1.22314
1.35379
0.474848
0.9052
1.15413
3.48385
0.174153
0.0211534
-5.03033
-7.13217
1.03278
-0.381068
-3.04698
-5.65094
1.85217
1.90628
3.30086
1.34654
1.69114
1.58119
1.85525
1.949
0.970709
0.975782
0.919822
0.566028
0.543276
0.532978
0.941969
-0.733825
-1.9611
-3.27832
1.03805
1.05459
1.07115
-1.06809
-1.45866
0.0437902
2.46039
1.56155
0.0384436
0.585081
-1.36936
-1.58515
3.22529
-1.55851
0.0335664
-6.29863
0.642929
0.602099
0.733518
0.687348
0.825407
0.780296
0.912815
0.869382
0.998291
0.955854
1.07863
1.03913
1.15088
1.11576
1.21406
1.18338
1.26719
1.24138
1.31253
1.29063
1.35181
1.33272
1.38756
1.37006
1.42127
1.40473
1.45407
1.4379
1.48577
1.47021
1.51671
1.5014
1.54798
1.53227
1.58115
1.56432
1.61572
1.59836
1.64986
1.63284
1.68163
1.6661
1.71014
1.6963
1.73511
1.72305
1.75679
1.74621
1.77744
1.76717
1.79524
1.78691
1.81041
1.80288
1.8232
1.81756
1.82953
1.82695
1.83651
1.83233
1.84539
1.84188
1.8378
1.8437
1.82945
1.83224
1.84503
1.8323
1.90594
1.8694
1.78179
1.82839
1.65535
1.73951
1.94128
1.88757
2.01918
1.98285
1.71265
1.77463
1.64896
1.67153
1.62674
1.63602
1.61658
1.61923
1.63678
1.6226
1.67962
1.65666
1.73302
1.70494
1.79378
1.76318
1.84709
1.82208
1.88469
1.868
1.90298
1.89657
1.89546
1.9027
1.86306
1.88166
1.81669
1.84043
1.76841
1.79259
1.72355
1.74556
1.68397
1.70328
1.6471
1.66528
1.60925
1.62803
1.56696
1.58837
1.51831
1.54313
1.45969
1.48971
1.39603
1.42848
1.33093
1.36302
1.27104
1.2996
1.22348
1.24579
1.19171
1.20663
1.1754
1.18291
1.17003
1.17213
1.16587
1.16807
1.15849
1.16374
1.13136
1.14823
1.07042
1.10592
1.02522
1.10044
1.03546
1.24068
1.16767
1.39952
1.32059
1.48507
1.46141
1.39239
1.46211
1.10074
1.27316
0.557139
0.863472
-0.218666
0.190166
-1.05131
-0.641912
-1.67225
-1.4081
-1.79531
-1.80831
-1.33899
-1.6309
-0.544927
-0.95686
0.149573
-0.162461
0.520011
0.383134
0.625026
0.58534
0.608728
0.621986
0.562164
0.581936
0.550401
1.01852
1.52542
-0.318727
-0.48031
-4.19453
-5.60997
1.95206
3.8674
1.455
2.05038
0.92686
0.875168
0.556098
0.517844
0.78886
-0.932259
-2.91421
-4.13158
1.089
0.723171
-1.33122
-2.24622
-2.11955
0.766893
0.793263
3.05985
0.989196
-0.539654
0.137741
-1.83101
-2.03507
1.11348
1.79753
-2.41246
-2.43509
1.36368
1.15325
-0.465612
-5.13791
0.635765
0.595448
0.722111
0.678151
0.811151
0.766608
0.897335
0.854576
0.980453
0.939328
1.05859
1.02022
1.12958
1.09507
1.19193
1.1619
1.24663
1.22024
1.29373
1.2709
1.33517
1.31497
1.37296
1.35444
1.40838
1.39093
1.44219
1.42556
1.47463
1.45863
1.50627
1.49059
1.5377
1.52202
1.56953
1.55356
1.6019
1.5857
1.63352
1.61785
1.66349
1.64872
1.69097
1.67759
1.71541
1.70353
1.73774
1.72668
1.75953
1.74875
1.77854
1.76948
1.79619
1.78726
1.81236
1.80489
1.82421
1.81847
1.83859
1.83078
1.85284
1.84672
1.85676
1.85556
1.86533
1.85965
1.89071
1.87484
1.94984
1.91592
2.00579
2.04215
1.99311
1.91688
1.96456
1.7769
1.85477
4.29323
1.58596
1.68837
2.02848
1.93694
1.98239
2.09316
2.06271
2.13606
2.11714
2.0818
2.17652
2.15648
1.91126
1.99254
1.78221
1.84042
1.71208
1.74014
1.6772
1.69258
1.65918
1.66561
1.66737
1.65987
1.69644
1.68026
1.73564
1.71491
1.78215
1.7584
1.82448
1.80476
1.85267
1.84036
1.86588
1.86136
1.85848
1.86507
1.83025
1.84642
1.7917
1.81184
1.74965
1.77092
1.70854
1.72887
1.67046
1.6891
1.6338
1.65194
1.59552
1.6147
1.55316
1.57487
1.50293
1.52947
1.45119
1.47855
1.39281
1.42234
1.33315
1.36259
1.27757
1.30451
1.23118
1.25345
1.19624
1.21282
1.17219
1.18335
1.15593
1.16344
1.14097
1.14852
1.12031
1.13254
1.08607
1.10601
1.02034
1.05756
0.975029
0.902568
0.814552
0.857878
1.03366
0.96166
1.17436
1.10789
1.25835
1.22578
1.22031
1.26088
1.03186
1.14366
0.683529
0.877725
0.196716
0.455416
-0.358202
-0.0806979
-0.840579
-0.616201
-1.10673
-1.01147
-1.01215
-1.10975
-0.553608
-0.817926
0.0322185
-0.258282
0.467575
0.281742
0.651718
0.59331
0.664158
0.665921
0.613934
0.642049
0.552661
0.578633
0.520414
0.535014
0.481118
0.501323
0.743584
1.87684
-1.00037
-1.10081
-3.71126
-4.45486
1.16811
0.47325
-1.67016
-3.21376
-3.30512
0.835731
2.06364
2.09489
2.11231
2.198
3.52949
0.743516
0.772238
0.705027
0.462666
0.447175
0.42477
0.461384
0.893679
-2.28235
-2.82442
-1.464
0.396326
0.437154
0.934211
2.1406
-3.1726
-2.85729
1.78229
-1.36775
-0.467961
-3.53769
1.46568
1.72987
1.6428
1.796
1.69864
-1.17122
-4.30294
1.29955
0.542875
0.502377
0.625513
0.584087
0.709875
0.667238
0.796655
0.753343
0.881769
0.839477
0.963381
0.92309
1.03994
1.00233
1.10996
1.07582
1.17251
1.14221
1.22776
1.20101
1.2762
1.25269
1.3193
1.29828
1.35856
1.33932
1.39529
1.37712
1.43012
1.41299
1.46322
1.44688
1.49499
1.47928
1.526
1.51056
1.55684
1.54144
1.58754
1.57225
1.61696
1.60246
1.64498
1.6311
1.67149
1.65848
1.69554
1.68381
1.7183
1.7069
1.74102
1.72977
1.76165
1.75157
1.78221
1.77177
1.80206
1.79251
1.81968
1.81088
1.83983
1.82933
1.8592
1.85019
1.87462
1.86687
1.8953
1.88386
1.93064
1.91035
1.99012
1.95667
2.0748
2.02972
1.987
2.02785
1.87441
1.93503
1.80649
2.20343
2.18644
2.19707
2.21703
2.20872
2.23973
2.22692
2.25135
2.24124
2.27242
2.26154
1.96062
2.03214
1.8421
1.89687
1.76522
1.79858
1.72009
1.73999
1.69493
1.70502
1.6928
1.69094
1.7098
1.69963
1.73682
1.72232
1.77058
1.7532
1.80226
1.78743
1.8233
1.81422
1.83179
1.82925
1.82388
1.83006
1.79974
1.81339
1.7666
1.78395
1.72937
1.74834
1.69169
1.71042
1.65558
1.67336
1.61966
1.63757
1.58175
1.60092
1.54013
1.56153
1.49281
1.51735
1.44268
1.46846
1.38835
1.4157
1.33293
1.36039
1.28038
1.30617
1.2342
1.25666
1.19622
1.21437
1.16607
1.1803
1.14121
1.15326
1.11684
1.12937
1.08674
1.10315
1.04264
1.06731
0.975218
1.01331
0.884521
0.931417
0.832583
0.835204
0.790763
0.942817
0.883269
1.05776
1.00751
1.06616
1.08107
0.89848
1.00764
0.55373
0.74736
0.0939233
0.324171
-0.292304
-0.11047
-0.576202
-0.451065
-0.682652
-0.654357
-0.581743
-0.659695
-0.273936
-0.449902
0.150823
-0.0689348
0.546457
0.36179
0.767706
0.685207
0.797423
0.803948
0.722304
0.767418
0.633508
0.676357
0.557212
0.591863
0.499916
0.527484
0.472041
0.375558
2.18888
-1.99779
-1.99333
-3.86927
-3.96214
0.932613
1.54578
1.31621
2.12335
2.28403
5.20897
0.734287
0.672018
0.444596
0.404276
0.0541815
1.58226
-2.72365
-4.01116
-3.06408
0.493583
0.136366
2.3439
-3.67971
-3.99043
-1.4219
0.468725
0.858234
-4.53971
-4.37734
1.44101
-0.0844003
2.53786
2.6178
-0.149812
1.77692
1.73427
-2.14681
-4.12712
1.09773
0.528647
0.486927
0.612067
0.570233
0.696934
0.654404
0.782407
0.739609
0.866484
0.82472
0.94708
0.907305
1.02258
0.985478
1.09189
1.05803
1.15445
1.12403
1.21031
1.18321
1.25991
1.23582
1.30437
1.28269
1.34486
1.32502
1.38254
1.36397
1.41799
1.40053
1.45151
1.43496
1.48337
1.46764
1.51377
1.49871
1.5434
1.52864
1.57239
1.55801
1.60006
1.58639
1.62647
1.6134
1.65163
1.63921
1.67535
1.66364
1.69868
1.68692
1.72219
1.71052
1.74468
1.73346
1.76813
1.75622
1.79167
1.77999
1.81535
1.80334
1.84082
1.82792
1.86535
1.8534
1.89031
1.87734
1.92152
1.90487
1.96505
1.9414
2.02469
1.99244
2.10434
2.06232
2.17398
2.19713
2.14983
2.1243
2.15003
2.06179
2.09545
1.98096
2.02511
1.88373
1.93305
1.82922
2.44625
2.48384
2.39391
2.41597
2.37146
2.38015
2.36181
2.36387