/*--------------------------------*- C++ -*----------------------------------*\
  =========                 |
  \\      /  F ield         | OpenFOAM: The Open Source CFD Toolbox
   \\    /   O peration     | Website:  https://openfoam.org
    \\  /    A nd           | Version:  10
     \\/     M anipulation  |
\*---------------------------------------------------------------------------*/
FoamFile
{
    format      ascii;
    class       volVectorField;
    location    "10.5";
    object      U;
}
// * * * * * * * * * * * * * * * * * * * * * * * * * * * * * * * * * * * * * //

dimensions      [0 1 -1 0 0 0 0];

internalField   nonuniform List<vector> 
40874
(
(0.705792 -0.235336 0)
(0.605465 -0.205025 3.67024e-19)
(1.06873 -0.583411 -4.23988e-20)
(1.00908 -0.519666 1.59505e-19)
(1.01027 -0.744514 1.03035e-19)
(1.00171 -0.75395 4.72383e-20)
(1.0321 -0.749089 7.9999e-21)
(1.14562 -0.521562 1.12753e-20)
(1.05033 -0.465216 -3.48709e-21)
(0.754944 -0.655147 1.21308e-19)
(0.749432 -0.480238 -1.70389e-19)
(0.453824 -0.642629 1.59601e-19)
(0.833441 -0.684365 1.33817e-20)
(0.832275 -0.421051 9.60226e-20)
(0.837769 -0.321118 -9.36951e-20)
(0.780415 -0.296889 9.04395e-20)
(0.98394 -0.657432 -1.62798e-21)
(1.1296 -0.723081 0)
(0.944888 -0.744874 -2.87617e-19)
(0.984873 -0.319854 -8.07372e-20)
(0.976978 -0.383941 -4.71345e-21)
(0.964017 -0.468366 -1.47469e-19)
(0.59567 -0.553119 1.20955e-20)
(0.566721 -0.672855 4.97776e-20)
(0.91586 -0.370359 1.29512e-19)
(1.13209 -0.500997 -7.1138e-21)
(1.16118 -0.50626 1.75295e-20)
(1.14383 -0.441257 8.2945e-21)
(1.17569 -0.462029 0)
(1.26874 -0.485227 -1.01422e-20)
(1.26323 -0.511745 -6.32152e-22)
(1.21034 -0.455955 9.62205e-22)
(1.15529 -0.507138 0)
(-0.16678 0.00243832 4.85505e-20)
(-0.141649 -0.0229563 0)
(-0.0954154 -0.0373986 0)
(-0.117532 -0.0243383 -5.82095e-22)
(0.663212 0.014283 -4.9643e-22)
(0.62157 0.0136853 1.11539e-22)
(0.691598 0.0168573 3.11673e-21)
(0.769181 0.0148235 0)
(0.774917 0.0121279 6.01315e-22)
(0.715458 0.014785 -8.33563e-22)
(0.642097 0.0159893 -6.83757e-22)
(0.772123 0.0130577 -6.0634e-22)
(0.705194 0.0132221 3.62745e-22)
(0.620197 0.014333 0)
(0.876921 0.582401 -2.38294e-20)
(0.763781 0.573278 4.84834e-20)
(0.754342 0.437633 -1.45413e-20)
(0.862074 0.456173 0)
(1.02999 0.585308 0)
(0.975909 0.535436 4.20614e-21)
(1.3432 -0.45163 3.95101e-20)
(1.39704 -0.407561 0)
(1.3216 -0.370522 0)
(1.29117 -0.390435 0)
(1.27229 -0.451765 -5.86966e-21)
(1.40362 -0.471372 -2.08697e-20)
(1.20772 -0.337941 9.24237e-20)
(1.36272 -0.33041 -1.23613e-19)
(1.19452 0.569565 0)
(1.09562 0.561633 0)
(1.11913 0.51099 1.81514e-21)
(1.23866 0.556638 -1.51174e-21)
(-0.0556666 -0.0347146 5.75821e-20)
(-0.0797828 -0.0324009 -4.64635e-20)
(-0.0538296 -0.0317481 -4.35217e-20)
(-0.0391938 0.0310085 0)
(-0.0146827 0.0111222 -9.58331e-20)
(-0.0140961 0.0107395 -9.88069e-20)
(0.0284403 -0.0712501 2.44887e-19)
(0.00888113 -0.0240818 4.24865e-20)
(0.0161323 -0.0427828 4.04611e-20)
(0.514839 -0.0559003 -1.67379e-21)
(0.575826 -0.0126707 1.08322e-20)
(0.360039 0.0313513 -3.50013e-21)
(0.242391 -0.0286774 -5.69595e-22)
(0.296062 0.0214769 -1.55672e-22)
(0.477323 0.0196085 0)
(0.460248 0.0175973 2.58456e-22)
(0.223112 0.0137222 -4.95871e-22)
(0.819041 0.350224 7.01812e-20)
(0.771816 0.334639 7.49089e-20)
(0.792309 0.25561 -3.79941e-20)
(0.833579 0.25549 1.67731e-19)
(1.26737 0.30829 -1.37925e-23)
(1.26502 0.317886 -5.91148e-21)
(1.2501 0.300167 -1.17145e-22)
(1.32819 0.368425 4.94456e-21)
(1.44216 0.377752 4.51899e-20)
(1.39767 0.32524 -3.68912e-21)
(1.49686 0.457333 4.48732e-20)
(1.23831 -0.698998 0)
(1.26327 -0.473176 -3.5152e-20)
(0.802721 -0.0220997 5.67018e-22)
(0.737332 -0.0298926 -7.94688e-22)
(0.675011 -0.0317532 8.97703e-22)
(0.758731 -0.0259142 -9.63957e-22)
(0.823911 -0.021474 -2.60582e-23)
(0.995474 -0.0385551 0)
(0.988905 -0.031518 3.03414e-22)
(-0.0379816 0.0281392 -3.93835e-21)
(0.0220453 0.011297 -2.6271e-20)
(-0.0731966 -0.0541028 0)
(-0.0686747 -0.053963 0)
(0.903568 0.334135 0)
(0.880867 0.379105 -6.83118e-20)
(0.211332 -0.128131 5.67776e-19)
(0.189493 -0.216544 -8.66001e-19)
(-0.0739986 -0.0470687 0)
(-0.0911596 -0.0457492 1.59792e-20)
(0.994132 -0.036115 -2.41651e-20)
(0.63032 -0.0177624 -1.70322e-21)
(0.584521 -0.0104495 6.05781e-21)
(0.663978 0.00844202 -1.09409e-21)
(0.568791 0.00517322 7.80566e-22)
(0.495618 0.560344 7.90737e-21)
(0.442271 0.617269 -2.33985e-20)
(0.627451 0.741461 4.40109e-21)
(0.379962 0.621456 1.11823e-19)
(0.173666 -0.292671 -9.83277e-20)
(0.321341 -0.625822 1.01993e-19)
(0.219098 0.525902 -2.27229e-20)
(0.694156 0.0123701 0)
(0.609673 0.0117707 0)
(0.581878 0.016816 -2.77264e-22)
(0.518139 0.0141968 0)
(0.122285 -0.00963051 0)
(0.164801 -0.00885414 1.04997e-21)
(1.00304 -0.0156628 -6.20406e-20)
(0.742574 0.0143279 -5.64598e-22)
(1.11905 -0.0322711 0)
(1.11859 -0.0325719 -2.21579e-22)
(0.664871 -0.0419585 0)
(1.29211 0.317188 3.84174e-21)
(1.29272 0.307668 -4.96685e-21)
(1.32876 0.34056 -5.03639e-21)
(1.09899 0.111726 2.63675e-20)
(1.27622 0.128417 -2.40289e-20)
(1.26472 0.113938 1.23974e-20)
(1.08222 0.0999549 4.28954e-20)
(0.907035 0.0992099 -1.40778e-22)
(0.904101 0.0932884 -7.86886e-21)
(0.124657 -0.0429547 -5.54798e-20)
(0.0636309 -0.0433257 6.78666e-20)
(0.0200727 -0.0460361 -5.65375e-20)
(0.0688144 -0.156811 -2.07268e-19)
(0.0345391 -0.059237 -2.8114e-19)
(0.0904789 -0.133153 1.78104e-19)
(1.13 -0.637407 0)
(1.40212 -0.380376 -1.06874e-20)
(1.3444 -0.348019 3.55788e-20)
(-0.0756609 -0.0501183 1.19515e-19)
(-0.0488336 -0.0339182 0)
(-0.0558029 -0.0418977 0)
(-0.0653462 -0.0398663 0)
(-0.0716434 -0.0535863 -2.11557e-20)
(-0.0593665 -0.0447261 4.17686e-20)
(-0.067297 -0.0500061 0)
(0.0593885 0.0561564 6.99241e-20)
(0.229617 0.0668896 -1.48272e-19)
(0.323281 0.0868455 -4.99016e-20)
(0.0690623 -0.0193107 0)
(0.371733 -0.221324 -2.21688e-21)
(0.325209 -0.422821 2.77744e-19)
(0.458839 -0.497034 -2.62849e-20)
(0.618346 -0.340164 -3.18345e-19)
(1.04496 0.491522 -4.55271e-21)
(0.62281 0.078096 0)
(0.106492 -0.408275 -9.90601e-20)
(0.114943 -0.461198 -1.87664e-19)
(0.472194 -0.560359 -1.15985e-19)
(0.118844 -0.357866 9.51235e-20)
(0.803121 -0.0194405 0)
(0.737289 -0.0204095 -4.83964e-21)
(1.13752 0.187334 8.82328e-20)
(1.08367 0.159619 -4.79196e-20)
(0.917953 0.136476 -6.67897e-20)
(-0.0228524 -0.0471125 -6.30386e-20)
(0.00836176 -0.0432171 2.82126e-20)
(0.207915 -0.0403721 1.40923e-20)
(0.171827 -0.0386534 2.04158e-20)
(1.13372 -0.399317 5.8658e-20)
(0.998015 -0.290254 1.70344e-20)
(1.07299 -0.00895463 -1.48218e-24)
(1.07283 -0.00896519 0)
(1.07287 -0.00911653 0)
(0.893189 0.273906 4.30421e-20)
(0.888506 0.247492 -1.05251e-19)
(0.907493 0.255214 -8.07188e-22)
(0.953726 0.45283 2.29934e-20)
(1.01333 0.437142 5.0773e-21)
(0.259118 0.121131 3.48126e-19)
(0.0833446 0.137542 0)
(0.0613532 0.0515815 0)
(0.206785 0.0304312 0)
(1.15134 0.7086 -1.29696e-21)
(1.27001 0.657089 4.99315e-20)
(1.22155 0.667842 -2.15731e-20)
(1.02196 0.640918 -1.38481e-20)
(-0.0977222 0.0464776 -3.64089e-20)
(-0.103339 0.0441454 -1.36406e-19)
(-0.0612108 0.0359789 -2.55834e-20)
(-0.0674244 0.0353586 0)
(1.0729 -0.00876213 6.60219e-25)
(1.07304 -0.00880953 3.41341e-25)
(-0.104888 0.0516077 2.80746e-19)
(0.434361 0.00251852 3.9654e-21)
(0.489894 -0.00199381 0)
(1.01384 -0.0335074 -2.12201e-20)
(1.01805 -0.0364783 4.86028e-20)
(0.806616 0.731896 -1.25856e-19)
(1.0997 -0.0937285 -5.43522e-20)
(1.01898 -0.117036 0)
(1.08473 -0.11822 -3.57797e-20)
(1.08883 -0.10081 2.92661e-20)
(1.01874 -0.0767733 9.53657e-21)
(1.01027 -0.0954127 1.62965e-20)
(0.620288 -0.111419 -2.3641e-19)
(0.477586 -0.00516049 1.41187e-19)
(0.405479 -0.106253 -4.10698e-19)
(0.767609 0.0127594 0)
(0.763281 0.0119306 2.45053e-22)
(0.849826 0.764975 1.20625e-19)
(0.441799 0.462979 -9.09029e-21)
(0.504118 0.515566 0)
(1.03412 -0.12756 0)
(-0.094215 -0.0317664 0)
(1.14906 0.14336 0)
(1.11969 0.148874 2.65446e-21)
(-0.0883539 0.0539159 8.05263e-20)
(-0.0868694 0.0492365 3.32239e-20)
(1.3982 -0.34265 0)
(-0.0965907 0.126858 -6.33629e-20)
(-0.0822587 0.124424 8.75094e-20)
(-0.103259 0.12638 -1.91718e-19)
(-0.107371 0.126578 1.75812e-19)
(-0.0893542 0.113322 -2.71445e-20)
(0.534567 -0.316478 0)
(0.661797 -0.405827 -4.60119e-20)
(-0.032572 0.0347521 2.83282e-20)
(-0.0279167 0.0263817 -3.04241e-20)
(0.876706 0.667175 0)
(1.03705 0.701828 4.36985e-21)
(0.892511 0.58936 -2.60019e-20)
(0.657979 0.494569 0)
(0.677937 0.296322 -1.15645e-19)
(0.615047 0.399278 8.09496e-20)
(0.468329 0.276614 -2.99557e-19)
(0.58924 0.182448 3.67181e-20)
(1.36949 0.224304 -1.37915e-20)
(1.35611 0.210176 1.88272e-20)
(1.37165 0.207925 7.31043e-21)
(1.387 0.222781 0)
(1.00058 0.112604 1.53143e-20)
(0.898044 0.107515 -1.32155e-20)
(0.998403 0.122346 0)
(-0.0916629 0.116122 0)
(-0.0930316 0.103351 2.60938e-20)
(-0.066718 0.0810788 3.26177e-20)
(-0.0637604 -0.032362 1.25843e-20)
(-0.0330153 -0.0196292 -5.02401e-20)
(-0.0338468 -0.0123356 1.33264e-19)
(0.0931466 0.234835 -4.96481e-19)
(0.0240984 0.141759 -2.97557e-19)
(0.0164114 0.0883675 -4.16326e-20)
(0.756452 0.0024734 5.71345e-20)
(0.779401 -0.013771 -1.11342e-19)
(0.773666 0.0242118 0)
(0.135743 0.0803323 2.25861e-20)
(1.0728 -0.00921722 -2.04852e-24)
(1.41299 0.230071 0)
(1.1352 -0.0371193 1.60052e-22)
(1.22684 0.130515 0)
(1.21676 0.122423 -5.96636e-22)
(1.20688 0.115053 1.51589e-22)
(1.19735 0.107898 9.36359e-23)
(1.18764 0.101723 -1.65364e-21)
(1.17886 0.0951581 2.97278e-21)
(1.17129 0.086986 7.56593e-21)
(1.16415 0.081506 -6.66059e-22)
(1.15697 0.0758751 5.04907e-22)
(1.15047 0.0703265 4.76912e-28)
(1.14423 0.0649126 -1.18339e-22)
(1.13866 0.0598343 -6.78963e-22)
(1.1333 0.0548821 7.64185e-22)
(1.12851 0.0501988 3.32303e-26)
(1.12394 0.0456152 -5.50615e-23)
(1.11987 0.041275 5.08727e-22)
(1.11604 0.0370396 -4.82269e-22)
(1.11279 0.0331478 0)
(1.10955 0.0291005 2.43456e-23)
(1.10672 0.0252348 0)
(1.10422 0.0215209 -1.81386e-22)
(1.1021 0.0179656 1.79131e-22)
(1.10023 0.0144693 1.61646e-23)
(1.09871 0.0111029 -1.04718e-26)
(1.09746 0.00778979 0)
(1.09655 0.00458922 -5.78362e-22)
(1.09593 0.00143534 5.39581e-22)
(1.09565 -0.00162236 -6.73756e-22)
(1.09568 -0.00463969 1.37642e-21)
(1.09607 -0.00757237 -1.4405e-21)
(1.0968 -0.010468 7.2968e-22)
(1.09791 -0.0132951 0)
(1.09941 -0.0161256 8.10925e-22)
(1.10154 -0.0191652 -1.41238e-21)
(1.10419 -0.0216906 8.48465e-22)
(1.10761 -0.0245567 0)
(1.11062 -0.0263419 4.30951e-22)
(1.11385 -0.0295915 0)
(1.25589 0.146098 3.12543e-22)
(1.24497 0.149722 9.18051e-22)
(1.25713 0.159189 4.16951e-22)
(1.2694 0.169491 0)
(1.28103 0.164578 7.9528e-22)
(1.268 0.154656 9.52782e-22)
(1.2344 0.128288 0)
(1.24487 0.136169 8.6133e-21)
(1.21339 0.112453 -3.08984e-22)
(1.22363 0.11985 1.51488e-21)
(1.1935 0.0987118 0)
(1.20326 0.10492 0)
(1.17597 0.0853295 0)
(1.18395 0.092719 -3.08664e-21)
(1.16113 0.0742915 -1.55915e-23)
(1.16832 0.0798673 -2.53929e-26)
(1.14815 0.0636292 8.49477e-23)
(1.15445 0.0689161 5.27785e-26)
(1.13695 0.0537711 -2.53287e-23)
(1.14238 0.0586551 -4.1842e-26)
(1.12734 0.0446425 1.70155e-23)
(1.13198 0.0491655 -1.00276e-26)
(1.11934 0.0361118 1.18681e-22)
(1.12313 0.0404229 5.0157e-23)
(1.11241 0.0283187 -8.03771e-24)
(1.1157 0.0322031 -1.1557e-22)
(1.10695 0.0208769 8.86891e-24)
(1.10953 0.0245563 -4.98608e-27)
(1.10277 0.0139049 -5.35562e-24)
(1.10472 0.0173671 0)
(1.09982 0.00731035 3.54952e-27)
(1.10115 0.010588 -1.70564e-27)
(1.09813 0.0010396 1.16671e-23)
(1.09882 0.00415839 2.97511e-27)
(1.09772 -0.00495391 0)
(1.09776 -0.00197048 0)
(1.09867 -0.0106979 -5.64653e-27)
(1.09802 -0.00783944 -1.79021e-27)
(1.10116 -0.0162742 6.27466e-23)
(1.0997 -0.0134681 9.17061e-27)
(1.1058 -0.0214298 -1.0105e-22)
(1.10305 -0.0191927 0)
(1.10873 -0.0244861 0)
(1.2198 0.133383 0)
(1.23315 0.142927 0)
(1.20037 0.117858 0)
(1.2099 0.125489 4.03641e-22)
(1.18185 0.104112 2.33848e-21)
(1.19095 0.110273 -9.11507e-23)
(1.16585 0.0871024 -4.1909e-21)
(1.1736 0.0962459 4.84848e-22)
(1.1519 0.075476 0)
(1.15889 0.0813763 0)
(1.13933 0.0639218 -2.38078e-26)
(1.14535 0.0695089 -1.45221e-28)
(1.12862 0.0535539 3.32662e-26)
(1.13375 0.0585925 2.38568e-26)
(1.11954 0.0440463 0)
(1.12388 0.0486792 0)
(1.11199 0.0353365 0)
(1.11557 0.0395674 0)
(1.10577 0.0271191 0)
(1.1087 0.0311043 0)
(1.10093 0.0195778 -2.35946e-28)
(1.10318 0.0232782 0)
(1.09734 0.0124711 -6.01972e-27)
(1.09898 0.0159637 0)
(1.095 0.00574306 0)
(1.09601 0.00905268 6.29296e-27)
(1.09392 -0.00065326 -9.04629e-27)
(1.0943 0.00249873 0)
(1.09416 -0.00676786 -1.01786e-26)
(1.09387 -0.00375018 9.22304e-27)
(1.09581 -0.0126407 -1.09481e-26)
(1.0948 -0.00973715 1.02196e-26)
(1.09896 -0.0182768 -1.0893e-26)
(1.09722 -0.0155118 1.08946e-26)
(1.1033 -0.0232775 0)
(1.10081 -0.020644 1.12123e-26)
(1.11034 -0.0286529 0)
(1.10719 -0.0265429 0)
(1.29492 0.175201 5.33596e-23)
(1.30975 0.18601 0)
(1.2962 0.191693 3.11517e-22)
(1.28242 0.180207 2.92087e-21)
(1.32605 0.197355 -3.40167e-21)
(1.31061 0.20384 4.29361e-22)
(1.34213 0.205345 7.81458e-21)
(1.11339 -0.0268144 -3.25133e-22)
(1.1171 -0.0299147 -7.38384e-23)
(1.11382 -0.0310128 0)
(1.24597 0.16391 -2.6715e-22)
(1.23484 0.155595 -8.7486e-22)
(1.25736 0.174006 9.29214e-25)
(1.28279 0.196259 1.24628e-21)
(1.29649 0.208645 -3.19137e-21)
(1.38562 0.237001 8.93724e-21)
(1.35578 0.227628 4.96867e-21)
(1.3556 0.198736 -1.18507e-20)
(1.32175 0.178159 -1.05032e-21)
(1.33757 0.187386 2.17795e-21)
(1.2918 0.1589 8.94329e-23)
(1.30639 0.169005 -1.40819e-21)
(1.26524 0.140975 3.21278e-22)
(1.27815 0.149506 -1.48062e-21)
(1.24176 0.12395 3.12548e-22)
(1.25341 0.131304 -7.43502e-22)
(1.2198 0.109562 -1.19336e-21)
(1.2306 0.116177 -1.4619e-21)
(1.19964 0.0955091 2.79094e-22)
(1.20953 0.101914 -6.08443e-23)
(1.18241 0.0831063 0)
(1.19058 0.0898148 5.22496e-22)
(1.16722 0.071814 1.44463e-22)
(1.1745 0.077397 -1.64183e-25)
(1.15394 0.0614206 1.39665e-23)
(1.16039 0.0665646 8.18127e-26)
(1.14233 0.0518301 0)
(1.14794 0.0565887 4.32316e-26)
(1.13233 0.0429355 0)
(1.13714 0.0473503 -9.0717e-26)
(1.12384 0.0346584 0)
(1.12794 0.0387752 -5.23705e-23)
(1.11673 0.026967 -8.79278e-26)
(1.12012 0.0307852 8.6422e-26)
(1.11095 0.0197164 9.65255e-24)
(1.11368 0.0233154 0)
(1.10648 0.0128935 1.30086e-23)
(1.10856 0.0162869 0)
(1.10328 0.00644023 1.01658e-26)
(1.10472 0.00965238 -8.36506e-27)
(1.10135 0.000305082 0)
(1.10216 0.00336165 1.36606e-26)
(1.10073 -0.00556073 -6.9522e-25)
(1.10087 -0.00263565 -4.41361e-27)
(1.10147 -0.0111791 0)
(1.10092 -0.00838016 9.00473e-27)
(1.10376 -0.016652 -8.34121e-23)
(1.1024 -0.0138752 -3.46879e-27)
(1.10792 -0.0218351 8.40556e-23)
(1.10553 -0.0194913 -8.37199e-24)
(1.11063 -0.0245588 1.8561e-23)
(1.12159 -0.0324935 6.38418e-23)
(1.11964 -0.034254 0)
(1.12484 -0.0343762 -4.90806e-22)
(1.12337 -0.0345801 5.38854e-24)
(1.21322 0.137489 7.51471e-23)
(1.22367 0.1466 -1.08172e-22)
(1.19316 0.120068 0)
(1.20271 0.128109 1.33757e-22)
(1.17574 0.105426 -1.14471e-21)
(1.18414 0.112758 -1.97367e-22)
(1.1606 0.0905498 5.7497e-23)
(1.16783 0.0972349 3.42023e-22)
(1.14771 0.078877 0)
(1.1539 0.0845162 0)
(1.13598 0.0675102 0)
(1.14169 0.0731055 8.54402e-29)
(1.12573 0.0570833 -1.1051e-26)
(1.13067 0.0621885 -3.55755e-29)
(1.11694 0.0474927 0)
(1.12117 0.0521993 0)
(1.1095 0.0386176 1.14576e-26)
(1.11306 0.0429801 0)
(1.10341 0.0303956 -2.08536e-27)
(1.10631 0.0344601 -8.5185e-27)
(1.09848 0.0226289 1.28822e-27)
(1.1008 0.0264482 0)
(1.09475 0.0153566 0)
(1.09647 0.0189421 0)
(1.09222 0.00847627 4.16379e-28)
(1.09334 0.0118747 0)
(1.09089 0.00192742 -8.30489e-29)
(1.09141 0.0051662 0)
(1.09081 -0.00433951 1.19011e-28)
(1.09069 -0.00123631 0)
(1.09207 -0.0103742 -2.81847e-26)
(1.09126 -0.0073799 0)
(1.09487 -0.0162613 -1.97514e-28)
(1.09325 -0.0133257 2.82726e-26)
(1.09977 -0.0223795 6.28882e-23)
(1.09704 -0.0192816 0)
(1.10704 -0.0285235 2.72377e-22)
(1.10303 -0.0254015 -2.18649e-22)
(1.11647 -0.0343213 -2.01359e-22)
(1.11169 -0.0316705 -5.36484e-23)
(1.26969 0.184585 -1.24253e-21)
(1.23446 0.167485 -2.4979e-22)
(1.22437 0.158056 1.83337e-23)
(1.24524 0.177702 4.09002e-22)
(1.2689 0.200654 5.17202e-22)
(1.28183 0.213893 -8.94947e-22)
(1.11341 -0.0343215 0)
(1.12221 -0.0370807 2.53272e-22)
(1.11899 -0.0370614 -5.5977e-23)
(1.3732 0.241607 2.629e-21)
(1.32597 0.217567 -4.31341e-21)
(1.1263 -0.0340853 -9.71386e-23)
(1.3115 0.221018 2.80316e-21)
(1.13245 -0.0367454 -2.36935e-22)
(1.40079 0.211481 -1.03998e-20)
(1.40545 0.246025 -3.89386e-22)
(1.43384 0.241726 -2.21537e-20)
(1.43962 0.229248 4.53404e-21)
(1.42006 0.219151 3.55773e-21)
(1.36446 0.191841 -1.11209e-20)
(1.38158 0.199934 6.03164e-21)
(1.33216 0.170855 7.66759e-22)
(1.34808 0.181113 -3.63239e-21)
(1.30173 0.152757 6.13521e-23)
(1.31652 0.161702 4.22568e-22)
(1.27369 0.135775 -3.97695e-22)
(1.28747 0.143882 0)
(1.24918 0.119353 0)
(1.2612 0.126829 7.80806e-22)
(1.2263 0.105579 1.13195e-21)
(1.23772 0.111918 0)
(1.20621 0.0922348 4.68608e-22)
(1.216 0.0985195 5.32925e-25)
(1.18846 0.0801466 0)
(1.19716 0.086476 -4.65133e-22)
(1.17269 0.0691883 1.21663e-23)
(1.18025 0.0746549 1.14503e-24)
(1.15901 0.0590422 1.19237e-23)
(1.16565 0.0640582 1.11569e-25)
(1.14702 0.0497122 -6.47203e-23)
(1.15281 0.0543403 0)
(1.13667 0.0410654 5.32781e-23)
(1.14165 0.0453585 9.07201e-26)
(1.12784 0.0329854 -4.32838e-23)
(1.1321 0.0369769 0)
(1.12051 0.0254942 -3.49062e-23)
(1.12401 0.0292291 0)
(1.1145 0.0184307 -1.87819e-23)
(1.11734 0.0219394 0)
(1.10982 0.0117756 -1.30083e-23)
(1.11199 0.0150883 0)
(1.10644 0.00547517 5.21367e-26)
(1.10797 0.00861352 -5.16544e-26)
(1.10435 -0.000516546 1.72831e-26)
(1.10523 0.00247147 -2.87295e-26)
(1.10359 -0.00624775 8.47797e-24)
(1.1038 -0.00338717 -4.24877e-26)
(1.10422 -0.0117453 0)
(1.10373 -0.00900193 2.27215e-26)
(1.10637 -0.0170614 0)
(1.10509 -0.014378 7.87044e-27)
(1.11038 -0.0222335 3.63411e-24)
(1.1081 -0.0198215 -3.64816e-24)
(1.11605 -0.0271216 -2.2764e-23)
(1.1131 -0.0247385 -4.69493e-24)
(1.12441 -0.0325729 0)
(1.11993 -0.0300362 2.40415e-23)
(1.12909 -0.0343067 4.06155e-24)
(1.12843 -0.0370737 2.53818e-23)
(1.131 -0.0370989 2.3821e-22)
(1.12506 -0.0366051 0)
(1.20445 0.139471 -2.63466e-22)
(1.21461 0.148749 0)
(1.1857 0.12264 0)
(1.19476 0.130644 1.13587e-22)
(1.16895 0.1068 -7.22197e-24)
(1.17705 0.114764 2.00508e-22)
(1.1541 0.0923852 -5.27701e-23)
(1.16146 0.0993986 -1.33371e-22)
(1.14081 0.0796182 0)
(1.14719 0.0859206 0)
(1.12947 0.0678977 1.20925e-26)
(1.13494 0.0736231 -4.53404e-29)
(1.11968 0.0572227 0)
(1.12438 0.062434 -2.34511e-29)
(1.11134 0.0474461 -5.35856e-26)
(1.11534 0.0522301 0)
(1.10436 0.0384321 -3.0306e-27)
(1.10768 0.0428488 5.38048e-26)
(1.09863 0.0300425 2.08538e-27)
(1.10133 0.0341578 5.68488e-29)
(1.09412 0.022223 5.0315e-26)
(1.09623 0.0260684 0)
(1.09078 0.0148705 5.74968e-26)
(1.09231 0.0184923 -5.18133e-26)
(1.08862 0.00791024 1.25603e-28)
(1.08955 0.0113446 -5.77308e-26)
(1.08764 0.001281 6.62548e-26)
(1.08798 0.00455704 0)
(1.08791 -0.0050709 6.88851e-26)
(1.08761 -0.00192721 -6.63812e-26)
(1.08953 -0.0111905 7.0476e-26)
(1.08854 -0.0081581 -6.91364e-26)
(1.0926 -0.0170714 -3.04233e-28)
(1.09088 -0.0141664 -7.07908e-26)
(1.09736 -0.0228111 -6.40947e-23)
(1.09473 -0.0199067 0)
(1.10405 -0.0285192 0)
(1.10048 -0.0257173 0)
(1.10831 -0.0314059 0)
(1.25667 0.188625 -5.06199e-22)
(1.29666 0.227149 4.02057e-22)
(1.22317 0.170599 -3.82272e-23)
(1.21379 0.160954 -1.48258e-22)
(1.12822 -0.0396503 -2.25063e-22)
(1.12526 -0.0398876 0)
(1.23316 0.180694 0)
(1.39207 0.255135 -1.0018e-20)
(1.13543 -0.0367165 -3.89716e-22)
(1.1419 -0.0377678 9.63233e-22)
(1.42285 0.251722 0)
(1.34258 0.231526 1.5291e-21)
(1.35933 0.249255 -2.04138e-20)
(1.44736 0.218215 1.04866e-21)
(1.47801 0.232288 -3.02781e-22)
(1.46324 0.240457 1.10514e-20)
(1.32773 0.235538 4.05864e-21)
(1.31281 0.241123 9.01775e-22)
(1.41069 0.200026 3.64476e-21)
(1.42779 0.208167 -5.07719e-21)
(1.37622 0.183457 -3.93108e-22)
(1.39294 0.190552 7.8613e-22)
(1.34178 0.163958 -3.44867e-22)
(1.35863 0.17368 1.29423e-21)
(1.31068 0.145945 0)
(1.32604 0.154749 -4.49936e-24)
(1.28188 0.129931 -7.44321e-24)
(1.29596 0.137737 1.08282e-23)
(1.25633 0.114587 0)
(1.26868 0.12187 0)
(1.23323 0.101134 0)
(1.24456 0.107524 0)
(1.21258 0.0884322 -4.55726e-24)
(1.22258 0.094547 3.81778e-24)
(1.19427 0.0768519 -1.21448e-22)
(1.20319 0.082809 -3.24209e-24)
(1.17789 0.0662843 -9.32065e-23)
(1.18576 0.0715532 3.82037e-25)
(1.16373 0.056473 -7.79367e-23)
(1.17058 0.06133 -4.16013e-25)
(1.15138 0.0474295 1.41574e-22)
(1.15734 0.0519162 -1.7422e-24)
(1.1407 0.0390451 1.11505e-23)
(1.14584 0.0432072 -9.33603e-25)
(1.13161 0.0312103 4.26281e-23)
(1.13597 0.0350924 7.74999e-25)
(1.12403 0.0239187 3.49042e-23)
(1.12764 0.0275507 0)
(1.11782 0.0170516 3.59391e-23)
(1.12075 0.0204652 0)
(1.11296 0.0105755 -2.09426e-25)
(1.11522 0.0138005 2.07064e-25)
(1.10943 0.00443887 -1.64401e-25)
(1.11104 0.00749713 1.6289e-25)
(1.10722 -0.00139824 0)
(1.10816 0.0015155 0)
(1.10636 -0.00698749 -7.72508e-24)
(1.10662 -0.00419759 -1.38634e-25)
(1.10691 -0.0123555 0)
(1.10645 -0.0096728 -1.24709e-25)
(1.10899 -0.0175269 0)
(1.10774 -0.0149267 -1.38262e-26)
(1.11293 -0.0225824 1.06522e-24)
(1.11068 -0.0201678 3.66266e-24)
(1.11868 -0.0274099 2.5805e-23)
(1.11565 -0.0250397 -6.83789e-24)
(1.12686 -0.0325132 -4.42264e-23)
(1.12255 -0.0301017 -3.6461e-23)
(1.1312 -0.034465 1.91651e-23)
(1.13834 -0.0388483 0)
(1.14042 -0.0383765 -7.94543e-23)
(1.13392 -0.03938 -1.07447e-22)
(1.13653 -0.0393091 0)
(1.13114 -0.0393747 -1.03252e-22)
(1.19544 0.142408 1.8201e-22)
(1.20464 0.151692 -1.82924e-22)
(1.17735 0.124491 8.7556e-25)
(1.18616 0.133197 -3.1342e-25)
(1.16165 0.108621 5.27564e-26)
(1.16923 0.116336 -8.23443e-27)
(1.14747 0.0941739 0)
(1.15436 0.101165 0)
(1.13518 0.0813592 2.60762e-26)
(1.14108 0.0875766 0)
(1.12449 0.0696529 -5.02922e-26)
(1.12966 0.0753886 -4.00977e-29)
(1.11518 0.0589027 0)
(1.11966 0.0641611 0)
(1.10722 0.0490321 0)
(1.11104 0.0538665 0)
(1.10051 0.0399156 1.05295e-25)
(1.10371 0.0443877 0)
(1.09502 0.0314488 0)
(1.09762 0.0356105 -1.13891e-25)
(1.09067 0.0235183 0)
(1.09271 0.0274206 0)
(1.08745 0.0160605 0)
(1.08892 0.0197354 0)
(1.08535 0.00899957 -5.42e-28)
(1.08626 0.0124853 0)
(1.0844 0.00226852 -1.42664e-28)
(1.08473 0.00559676 0)
(1.08466 -0.00418966 -3.24971e-28)
(1.08438 -0.000991167 0)
(1.08624 -0.0104287 1.69412e-25)
(1.08528 -0.00733282 0)
(1.0893 -0.016516 1.69855e-25)
(1.08756 -0.0134848 -1.69942e-25)
(1.09414 -0.0225392 -1.41689e-27)
(1.0915 -0.0195416 -1.69872e-25)
(1.10106 -0.0285608 0)
(1.09729 -0.0255461 0)
(1.1104 -0.0345298 1.67307e-22)
(1.10543 -0.031589 0)
(1.53166 0.271557 3.01625e-21)
(1.52581 0.253759 0)
(1.34389 0.250946 -1.30028e-21)
(1.46358 0.258058 8.31719e-21)
(1.12233 -0.0402588 -1.69059e-22)
(1.11608 -0.0374357 -1.60575e-22)
(1.25544 0.204523 -5.69569e-22)
(1.24405 0.191823 0)
(1.28145 0.232715 1.29738e-21)
(1.26744 0.218816 7.61344e-22)
(1.33064 0.25617 2.44447e-21)
(1.50276 0.235732 2.90907e-20)
(1.52729 0.280123 2.66057e-20)
(1.44468 0.264896 -1.54463e-20)
(1.4795 0.216877 -1.70629e-20)
(1.51911 0.233661 0)
(1.20293 0.162662 1.4789e-22)
(1.21192 0.172803 -1.55063e-22)
(1.37742 0.267679 1.84706e-20)
(1.44067 0.22942 -3.20977e-20)
(1.39382 0.207545 0)
(1.29671 0.248533 5.89073e-22)
(1.11931 -0.0406386 3.12703e-22)
(1.12896 -0.0430264 -2.90767e-22)
(1.12601 -0.0435484 2.95296e-22)
(1.46541 0.244664 7.30616e-21)
(1.41415 0.264431 5.24784e-21)
(1.52951 0.309531 0)
(1.45683 0.208659 1.11566e-21)
(1.48771 0.221581 0)
(1.41994 0.190182 -1.67024e-21)
(1.43601 0.198604 1.98221e-21)
(1.38652 0.173814 3.83517e-22)
(1.40314 0.180927 0)
(1.3513 0.156031 6.57439e-22)
(1.36879 0.165108 -1.12422e-23)
(1.31911 0.139122 -5.83826e-22)
(1.33476 0.147526 -1.33193e-23)
(1.28975 0.123819 1.61419e-23)
(1.30408 0.131322 -1.90422e-23)
(1.26339 0.109443 -4.42675e-22)
(1.27616 0.116399 7.05734e-24)
(1.23975 0.09648 1.89957e-22)
(1.25129 0.102756 -6.08362e-24)
(1.21857 0.0843816 0)
(1.22884 0.0902813 0)
(1.19978 0.073304 1.2526e-22)
(1.20892 0.0789254 0)
(1.18295 0.0631425 0)
(1.19106 0.0682041 0)
(1.16836 0.0537123 -3.11343e-24)
(1.1754 0.0583864 5.41623e-24)
(1.15564 0.044989 -7.83395e-23)
(1.16177 0.04932 4.61932e-24)
(1.14466 0.036886 -1.36988e-22)
(1.14994 0.0409093 0)
(1.1353 0.0293149 0)
(1.13979 0.033073 0)
(1.12748 0.022242 1.5756e-24)
(1.1312 0.0257625 -2.42876e-24)
(1.12107 0.0155839 8.2708e-24)
(1.1241 0.0188963 -7.42446e-25)
(1.11605 0.00929672 5.43263e-25)
(1.11839 0.0124287 8.7304e-26)
(1.11237 0.00333468 4.46807e-25)
(1.11404 0.00630721 8.02904e-26)
(1.11003 -0.00234114 0)
(1.11103 0.00049343 4.36535e-25)
(1.10905 -0.00777815 2.13801e-23)
(1.10936 -0.00506344 1.28394e-25)
(1.10951 -0.0130053 0)
(1.1091 -0.0103905 -2.02989e-25)
(1.11153 -0.0180384 0)
(1.11032 -0.0155141 -2.55249e-25)
(1.11539 -0.022957 0)
(1.11318 -0.0205548 -6.22526e-26)
(1.12115 -0.02769 -1.23231e-23)
(1.11807 -0.0253485 0)
(1.12928 -0.0325855 5.60995e-23)
(1.12494 -0.0301787 1.1738e-23)
(1.13963 -0.0374874 -1.87916e-22)
(1.13419 -0.0349927 0)
(1.14381 -0.040522 -3.3206e-23)
(1.14635 -0.0386776 -2.83647e-22)
(1.14607 -0.0403358 7.34814e-23)
(1.13965 -0.041412 -9.45829e-23)
(1.14209 -0.0411352 1.10759e-22)
(1.1346 -0.0421372 3.8772e-22)
(1.13725 -0.041771 3.22857e-22)
(1.13187 -0.0425677 1.39044e-22)
(1.18574 0.144005 -5.29681e-24)
(1.19429 0.153177 2.35015e-23)
(1.16898 0.126174 -5.05468e-25)
(1.17717 0.134893 0)
(1.15396 0.109961 -1.13521e-25)
(1.16127 0.117888 8.23031e-27)
(1.14056 0.0953663 -4.29132e-26)
(1.14707 0.10247 6.10037e-26)
(1.12874 0.082226 3.73901e-25)
(1.13445 0.0886379 0)
(1.1185 0.0703026 -2.61877e-26)
(1.12344 0.0761235 -3.4482e-25)
(1.10967 0.0594271 -5.01041e-25)
(1.11392 0.0647428 0)
(1.10214 0.0494566 0)
(1.10575 0.0543375 5.0303e-25)
(1.09583 0.0402569 3.15774e-25)
(1.09883 0.044768 0)
(1.09067 0.0317088 3.35855e-25)
(1.0931 0.0359071 -3.08845e-25)
(1.08662 0.02372 0)
(1.08851 0.0276505 -3.31468e-25)
(1.08367 0.0162003 3.66838e-25)
(1.08501 0.0199065 0)
(1.08181 0.00907267 -7.97254e-28)
(1.08261 0.0125919 -3.66724e-25)
(1.08108 0.0022698 3.87895e-25)
(1.0813 0.00563444 0)
(1.08154 -0.00426792 3.94055e-25)
(1.08116 -0.00102899 -3.89213e-25)
(1.08329 -0.0105899 3.96335e-25)
(1.08224 -0.0074531 -3.95424e-25)
(1.08647 -0.0167348 3.93755e-25)
(1.08469 -0.0136821 -3.97891e-25)
(1.09132 -0.0227641 3.89705e-25)
(1.08867 -0.0197567 -3.96077e-25)
(1.09808 -0.028689 -3.80758e-25)
(1.09444 -0.0257398 -3.89776e-25)
(1.10736 -0.0347222 -1.69565e-22)
(1.10238 -0.0316889 3.73977e-25)
(1.11302 -0.0377062 1.63808e-22)
(1.22154 0.183406 4.49909e-22)
(1.24164 0.207027 6.22152e-22)
(1.23146 0.194535 -7.13045e-22)
(1.26548 0.23718 -3.2035e-22)
(1.25282 0.222097 -5.19241e-22)
(1.36244 0.274224 2.37407e-22)
(1.46144 0.200363 -5.51568e-21)
(1.51636 0.215696 -5.31729e-21)
(1.25188 0.189445 6.09988e-21)
(1.29689 0.216337 -1.39401e-20)
(1.14195 -0.0372471 -3.23466e-22)
(1.14804 -0.0386838 2.11373e-22)
(1.31342 0.266728 3.38589e-22)
(1.27917 0.25325 -1.66209e-21)
(1.13567 -0.0456359 -4.22338e-22)
(1.13294 -0.0462528 2.79304e-22)
(1.47076 0.277179 -4.03205e-20)
(1.43238 0.275654 -4.37784e-20)
(1.35172 0.187415 1.80692e-20)
(1.40202 0.280575 -3.40631e-20)
(1.35062 0.28568 0)
(1.2011 0.175213 6.62057e-24)
(1.19245 0.164748 0)
(1.46861 0.198998 -3.37957e-21)
(1.49813 0.209389 -1.37709e-22)
(1.42874 0.180514 0)
(1.44631 0.189145 0)
(1.39535 0.164006 0)
(1.41178 0.171642 -2.73767e-23)
(1.36012 0.147608 7.45963e-22)
(1.37777 0.155952 1.11642e-23)
(1.32713 0.131952 1.24437e-21)
(1.34316 0.139797 0)
(1.2972 0.117461 -5.53179e-22)
(1.31179 0.12462 0)
(1.2702 0.103945 1.74205e-22)
(1.28331 0.110557 2.12117e-23)
(1.24595 0.0916006 -4.20956e-22)
(1.25776 0.0976506 4.36555e-23)
(1.22427 0.0800974 1.77088e-22)
(1.23479 0.0857526 0)
(1.20505 0.0695409 0)
(1.21439 0.0748548 0)
(1.18783 0.0598057 1.15066e-22)
(1.19614 0.0646546 1.56863e-23)
(1.17286 0.0507709 1.12984e-22)
(1.18009 0.0552525 -1.66152e-24)
(1.15981 0.0423923 -9.71324e-23)
(1.16611 0.0465552 -1.42332e-24)
(1.14854 0.0345909 7.35042e-23)
(1.15396 0.0384666 0)
(1.13892 0.0272955 0)
(1.14354 0.0309207 -2.36384e-24)
(1.13087 0.0204606 6.12237e-23)
(1.13471 0.0238622 8.78986e-25)
(1.12427 0.0140231 -4.41977e-23)
(1.1274 0.0172278 2.48594e-24)
(1.11907 0.00793566 0)
(1.1215 0.0109691 -2.11771e-24)
(1.11524 0.00215798 1.12633e-24)
(1.11699 0.00503951 -1.63945e-24)
(1.11277 -0.00334963 3.30732e-23)
(1.11383 -0.000598576 -9.08924e-25)
(1.11168 -0.00862576 -2.17805e-23)
(1.11205 -0.00599019 4.00205e-25)
(1.11205 -0.0137029 0)
(1.11167 -0.011162 3.03601e-25)
(1.11399 -0.0185973 -1.47229e-25)
(1.11282 -0.0161448 4.01957e-25)
(1.11776 -0.0233766 1.89239e-23)
(1.11561 -0.0210144 0)
(1.12354 -0.0280243 0)
(1.12041 -0.0257029 0)
(1.13165 -0.0327623 6.96877e-23)
(1.12732 -0.0304009 -1.21307e-23)
(1.13645 -0.0350076 -1.25222e-22)
(1.14861 -0.0422603 1.07392e-23)
(1.1513 -0.0409885 4.61316e-22)
(1.15031 -0.0416986 1.87959e-23)
(1.145 -0.0432596 -4.77193e-27)
(1.14696 -0.0427756 0)
(1.14076 -0.0444342 -6.21189e-23)
(1.14297 -0.043828 -1.39975e-22)
(1.13832 -0.0450296 -3.37861e-22)
(1.17606 0.145544 5.31588e-24)
(1.18416 0.154952 -2.33821e-23)
(1.16038 0.127377 -5.10913e-25)
(1.16811 0.136337 0)
(1.14624 0.110993 -5.12199e-25)
(1.15309 0.118942 1.41019e-25)
(1.13367 0.0963186 1.10114e-24)
(1.13976 0.103458 3.49231e-26)
(1.12263 0.0831274 -5.46865e-26)
(1.12796 0.0895489 -9.87274e-25)
(1.113 0.071175 -1.29715e-24)
(1.11765 0.0770127 -7.34675e-27)
(1.10466 0.0602546 -4.83967e-26)
(1.10868 0.0655946 1.27571e-24)
(1.09753 0.0502321 2.55047e-26)
(1.10095 0.0551394 0)
(1.09155 0.0409792 1.33129e-26)
(1.0944 0.0455171 1.63654e-27)
(1.08667 0.0323817 1.21182e-27)
(1.08898 0.0366055 8.50846e-28)
(1.08286 0.0243361 0)
(1.08463 0.0282956 0)
(1.08008 0.0167569 2.70048e-28)
(1.08134 0.0204932 -2.25569e-28)
(1.07837 0.00956655 -1.28685e-28)
(1.07909 0.0131178 0)
(1.07775 0.0026952 -2.03734e-28)
(1.07792 0.00609499 0)
(1.07828 -0.00391996 -9.08078e-25)
(1.07786 -0.000641034 0)
(1.08007 -0.0103345 -9.0918e-25)
(1.07901 -0.00714839 9.11469e-25)
(1.0833 -0.0166084 4.1417e-28)
(1.08149 -0.0134851 9.12575e-25)
(1.0882 -0.0227937 -8.87491e-25)
(1.08552 -0.019711 0)
(1.09511 -0.0289214 3.18821e-27)
(1.09138 -0.025865 8.90806e-25)
(1.10437 -0.0350078 1.37369e-26)