/*--------------------------------*- C++ -*----------------------------------*\
  =========                 |
  \\      /  F ield         | OpenFOAM: The Open Source CFD Toolbox
   \\    /   O peration     | Website:  https://openfoam.org
    \\  /    A nd           | Version:  10
     \\/     M anipulation  |
\*---------------------------------------------------------------------------*/
FoamFile
{
    format      ascii;
    class       volVectorField;
    location    "19.5";
    object      U;
}
// * * * * * * * * * * * * * * * * * * * * * * * * * * * * * * * * * * * * * //

dimensions      [0 1 -1 0 0 0 0];

internalField   nonuniform List<vector> 
8711
(
(1.08199 0.00454964 0)
(1.08295 0.00427469 1.86518e-22)
(1.10903 0.00429345 2.04114e-21)
(1.18367 0.00844967 -2.07803e-21)
(1.1879 -0.00235221 1.89377e-22)
(1.20417 0.00242759 -9.72209e-22)
(1.07567 0.00447374 1.67946e-22)
(1.07811 0.00061826 2.87977e-21)
(0.61716 -0.0860616 -1.1847e-21)
(0.610264 0.00871191 9.48221e-21)
(0.826696 -0.536385 0)
(0.468848 -0.767789 -2.00149e-20)
(0.951333 0.640928 2.11095e-21)
(0.924627 0.646822 -1.17095e-22)
(0.607329 -0.297318 -1.84009e-21)
(0.578152 -0.272149 0)
(1.14671 0.033679 -1.31469e-21)
(1.15208 0.0404209 1.55342e-21)
(1.15645 0.0415447 8.99454e-22)
(1.13162 0.0210653 1.239e-21)
(1.12936 0.0175309 -1.8147e-21)
(1.13807 0.0101759 -9.47752e-22)
(1.13989 0.0118236 0)
(1.11897 0.00421049 -8.44169e-22)
(1.50731 -0.245928 1.00184e-19)
(1.49151 -0.270374 -2.43005e-20)
(1.58836 -0.360224 4.42367e-20)
(1.38075 -0.233752 -8.15258e-20)
(0.765754 -0.0163576 9.62508e-22)
(0.84322 -0.0154181 -1.28685e-21)
(0.92728 -0.0139772 2.43479e-23)
(1.01342 0.192111 9.14334e-20)
(0.928364 0.222801 2.35437e-20)
(1.35304 0.281891 2.61648e-21)
(1.35238 0.23185 -2.67475e-20)
(1.03861 0.058507 -3.95819e-20)
(1.04686 0.0705502 1.14089e-20)
(1.0391 -0.0765815 0)
(1.02321 -0.0453309 -6.83324e-20)
(1.02829 -0.0483244 9.60333e-20)
(1.01549 -0.0336841 0)
(1.00834 -0.0182062 0)
(-0.131789 -0.230127 1.01652e-20)
(-0.146062 -0.233376 1.42437e-19)
(0.482408 0.64312 4.83865e-20)
(0.773257 0.65882 3.36367e-20)
(-0.00289171 -0.00909636 -9.13807e-20)
(0.0893382 -0.0305574 3.26126e-20)
(-0.0428533 -0.0800651 -4.73098e-20)
(1.08646 0.0195501 3.7086e-21)
(1.09499 0.0188264 7.68106e-21)
(1.09585 0.0275738 2.60903e-21)
(1.09008 0.0323299 0)
(1.11838 0.0234563 0)
(1.11307 0.02751 2.61571e-21)
(1.10577 0.0296993 -3.09702e-21)
(0.863543 0.643545 -3.94572e-21)
(0.840753 0.617306 8.49773e-21)
(0.901438 0.660031 0)
(0.894851 0.661517 -9.20563e-21)
(0.96792 -0.343586 1.79212e-21)
(0.984949 -0.363833 1.34903e-21)
(0.980871 -0.407449 -3.83128e-21)
(0.966954 -0.386958 -1.37035e-21)
(1.06209 0.00950614 -5.63466e-21)
(1.06546 0.00774608 0)
(1.07341 0.00961984 2.82648e-21)
(1.13773 0.00696369 0)
(1.1391 0.00834505 2.18794e-21)
(1.14144 0.0106847 -1.20953e-22)
(0.948058 -0.490776 -9.6885e-21)
(0.970207 -0.488402 4.85028e-21)
(0.947033 -0.510252 -2.00206e-21)
(0.92479 -0.507149 0)
(1.06235 -0.000849853 -8.57528e-21)
(1.06309 -0.00669831 0)
(1.06968 8.54826e-05 7.80177e-21)
(1.0699 0.00641751 -6.02798e-21)
(1.13518 0.00820674 -2.07011e-21)
(0.984109 -0.0452613 -9.44029e-23)
(0.989436 -0.0746024 1.16461e-21)
(0.966855 -0.215163 3.01079e-23)
(0.980502 -0.202702 0)
(1.12396 0.00609078 -5.4536e-22)
(1.12684 0.00580816 -2.10453e-21)
(1.12722 0.00521544 2.86672e-21)
(1.02775 0.657995 -7.06637e-21)
(0.988584 0.664968 2.38444e-20)
(1.16671 0.324794 -5.00591e-21)
(1.06603 0.303238 -4.36561e-23)
(1.09796 0.0219931 -3.92981e-21)
(1.10252 0.0201149 2.26099e-21)
(1.09892 0.0336193 1.6973e-21)
(1.21122 -0.0716064 4.35788e-21)
(1.18748 -0.0576993 -4.29213e-21)
(1.10008 0.0976589 1.91999e-20)
(1.08503 0.096093 -4.38174e-22)
(1.07706 0.0848463 -7.6229e-21)
(1.09 0.0885527 -2.95558e-21)
(1.12244 0.110974 3.74468e-23)
(1.11188 0.0882364 0)
(0.994014 -0.183743 -5.80551e-21)
(1.00261 -0.25044 1.40474e-20)
(0.913428 0.617998 -2.08927e-21)
(0.890165 0.602537 -1.02701e-21)
(0.854521 0.605428 -1.08804e-22)
(0.811052 0.615139 0)
(0.768917 0.598707 -2.16111e-21)
(0.737783 0.538473 2.25885e-21)
(0.721317 0.429242 1.58295e-22)
(0.718256 0.283446 2.08763e-22)
(0.729052 0.114096 -1.48846e-21)
(0.750137 -0.0544698 2.04835e-21)
(0.78065 -0.209267 7.20536e-22)
(0.813117 -0.33681 1.29012e-21)
(0.846097 -0.428178 -1.60782e-21)
(0.874762 -0.485118 -5.30214e-22)
(0.898617 -0.511344 -8.99747e-22)
(0.929733 -0.527158 1.96883e-21)
(0.913776 -0.519136 -1.52251e-21)
(0.941373 -0.527286 2.84184e-21)
(0.886726 -0.45621 -3.84832e-22)
(0.910354 -0.506736 -1.0944e-21)
(0.824671 -0.242528 1.13416e-22)
(0.856398 -0.368769 -7.20243e-22)
(0.767797 0.0946513 -9.93677e-22)
(0.792535 -0.0833301 -4.26122e-22)
(0.747763 0.430102 0)
(0.751184 0.27322 -2.07279e-22)
(0.77812 0.624813 -3.23401e-22)
(0.756555 0.552001 0)
(0.847013 0.638539 4.86564e-23)
(0.811205 0.647126 0)
(0.900203 0.629046 8.56472e-22)
(0.879705 0.625458 9.18906e-23)
(0.905755 0.646594 3.71312e-21)
(0.909338 0.576944 -1.41764e-21)
(0.935825 0.604793 -4.25258e-22)
(0.81831 0.57388 -1.50829e-21)
(0.869747 0.568766 6.20925e-22)
(0.729375 0.51483 2.14349e-21)
(0.768624 0.563828 1.47459e-21)
(0.695329 0.286375 2.31136e-21)
(0.704711 0.419122 -3.5061e-21)
(0.718459 -0.0338713 -3.14937e-21)
(0.701622 0.129847 2.06575e-22)
(0.780381 -0.305089 7.75739e-23)
(0.749212 -0.184257 2.51395e-21)
(0.844742 -0.458428 -8.42363e-22)
(0.813308 -0.39637 1.54108e-21)
(0.890455 -0.506676 0)
(0.871442 -0.491411 0)
(0.904062 -0.502623 5.53866e-22)
(0.937155 0.664382 -7.60212e-21)
(0.928297 -0.491582 -2.15098e-21)
(0.972847 -0.509368 2.61483e-21)
(0.912401 -0.489895 1.63143e-21)
(0.891923 0.647854 4.37245e-21)
(0.966235 0.662586 6.7761e-21)
(0.966438 -0.538017 -2.02474e-21)
(0.971351 -0.53143 -1.44213e-21)
(0.934747 -0.480764 1.3376e-21)
(0.952198 -0.524068 5.97121e-22)
(0.878652 -0.273512 -1.86881e-21)
(0.906793 -0.396707 1.58333e-21)
(0.818204 0.0742982 9.8395e-22)
(0.84471 -0.109678 0)
(0.786677 0.429133 5.5736e-21)
(0.796192 0.259467 -3.88839e-21)
(0.798439 0.646309 -2.12963e-21)
(0.784686 0.560145 -1.73308e-21)
(0.849001 0.667844 -3.05741e-22)
(0.820768 0.676836 2.56643e-21)
(0.891792 0.637793 -1.69296e-21)
(0.876421 0.648456 3.37901e-22)
(0.877527 0.649456 0)
(0.889908 0.643137 1.67672e-21)
(0.929811 -0.464474 6.03309e-21)
(0.916952 -0.468472 -1.94941e-21)
(0.975508 0.621532 -7.46567e-22)
(1.00243 0.64664 5.22257e-21)
(0.92148 0.54731 -5.56168e-22)
(0.950041 0.583854 -2.82387e-22)
(0.829307 0.527591 -1.42795e-22)
(0.881067 0.527752 -8.8716e-23)
(0.728336 0.485716 7.18352e-22)
(0.774962 0.522366 -7.02582e-22)
(0.682544 0.280527 -2.99546e-21)
(0.697399 0.404226 0)
(0.69804 -0.0149204 5.424e-22)
(0.68518 0.139358 1.77824e-21)
(0.756056 -0.277682 9.93893e-22)
(0.724764 -0.15878 -9.8535e-22)
(0.822468 -0.432135 1.68228e-21)
(0.79143 -0.369055 -1.7067e-21)
(0.871655 -0.491842 6.83136e-23)
(0.851138 -0.471363 3.93131e-23)
(0.90092 -0.485734 2.03254e-21)
(0.889418 -0.494068 9.69491e-22)
(0.959952 -0.452852 8.93304e-21)
(0.945923 -0.457267 -9.03893e-22)
(0.941996 0.664331 0)
(0.907587 -0.469858 0)
(0.814962 0.566118 -9.14521e-21)
(0.873257 0.609469 2.82343e-21)
(0.787892 0.565434 7.06493e-21)
(0.750362 0.488244 -6.57631e-21)
(0.962061 -0.432882 -2.9064e-20)
(0.952687 -0.413344 1.21267e-20)
(0.987779 -0.443731 -4.76155e-21)
(0.990203 0.650572 6.69728e-21)
(1.04483 0.65361 6.5265e-21)
(1.00268 -0.504782 3.96365e-22)
(0.988428 -0.480869 -2.35194e-21)
(1.00702 -0.542311 0)
(1.00346 -0.531097 -3.75552e-22)
(0.987377 -0.496145 -2.55756e-21)
(0.999327 -0.534176 3.05485e-21)
(0.939633 -0.298943 -3.52434e-21)
(0.965218 -0.418315 4.22954e-21)
(0.880751 0.0493083 -1.28843e-20)
(0.907944 -0.136088 9.32037e-21)
(0.835964 0.418622 1.79962e-21)
(0.852167 0.242363 2.44649e-21)
(0.826225 0.657261 0)
(0.824961 0.561153 2.44559e-22)
(0.856106 0.69053 4.21018e-21)
(0.837506 0.694726 -2.45593e-21)
(0.88389 0.64188 -1.25471e-23)
(0.874274 0.665063 -2.03552e-21)
(0.856226 0.62851 -1.64893e-21)
(0.87704 0.63438 -7.1163e-22)
(0.825554 0.609841 1.50828e-21)
(0.893963 -0.477315 9.86835e-22)
(0.901523 -0.469702 0)
(1.0676 0.640612 -4.43678e-21)
(1.04991 0.620325 5.20269e-22)
(1.11321 0.623151 -1.02749e-20)
(1.0916 0.646669 3.11292e-21)
(1.00165 0.59402 1.33384e-21)
(1.03488 0.623388 -4.91305e-21)
(0.940108 0.517766 -9.25306e-22)
(0.970827 0.558786 1.274e-21)
(0.849233 0.480412 5.82741e-23)
(0.90164 0.489236 3.02537e-23)
(0.736973 0.449121 0)
(0.789256 0.475419 0)
(0.67935 0.272605 0)
(0.700639 0.384037 0)
(0.68839 0.00347014 0)
(0.677136 0.144467 0)
(0.738587 -0.244835 2.8697e-21)
(0.711572 -0.131205 -3.15925e-21)
(0.805263 -0.404012 1.01001e-23)
(0.772547 -0.335308 0)
(0.858244 -0.473669 -7.00642e-23)
(0.835478 -0.449003 -4.13015e-23)
(0.8793 -0.480928 -1.99563e-21)
(0.92466 -0.437126 0)
(0.935586 -0.428043 -8.93621e-22)
(0.90536 -0.45467 0)
(0.914265 -0.445835 0)
(0.933286 0.635308 -1.50274e-20)
(0.78518 0.492489 0)
(0.727326 0.41515 1.97998e-20)
(0.695212 0.324339 5.6531e-21)
(0.6989 0.331476 -2.08191e-20)
(1.00008 -0.430587 6.74598e-21)
(0.899467 -0.463128 2.00704e-21)
(0.98281 0.602547 -2.2025e-21)
(0.846245 0.541901 0)
(1.16716 0.613679 -1.80577e-21)
(1.11634 0.563059 0)
(1.18258 0.564444 1.54555e-21)
(1.0401 0.544902 1.21618e-21)
(0.742738 0.38544 -1.62921e-21)
(0.63182 0.165937 3.1476e-21)
(0.659313 0.185983 -1.7127e-21)
(0.595453 0.00470596 -8.83994e-21)
(0.590055 -0.018811 4.79976e-21)
(0.56968 -0.16398 0)
(1.02919 -0.496884 -2.16953e-22)
(1.01678 -0.466146 9.02337e-22)
(1.04852 -0.543763 0)
(1.04077 -0.525654 -3.61413e-22)
(1.0458 -0.513142 0)
(1.05154 -0.54261 0)
(1.00943 -0.328604 -7.3768e-24)
(1.03158 -0.443296 0)
(0.94906 0.0211539 1.71804e-23)
(0.980299 -0.168444 0)
(0.89227 0.406843 1.58078e-23)
(0.917734 0.222394 0)
(0.862109 0.658315 0)
(0.871971 0.556553 0)
(0.867934 0.702449 -5.77218e-26)
(0.861034 0.703793 0)
(0.880674 0.640658 0)
(0.876829 0.673047 0)
(0.843784 0.601006 0)
(0.870102 0.619609 0)
(0.762538 0.514714 -3.1608e-22)
(0.805874 0.571437 -2.46196e-21)
(0.669969 0.308063 2.08157e-21)
(0.718528 0.42636 2.28975e-21)
(0.6174 0.140025 -2.34666e-21)
(1.10344 0.617097 3.20809e-23)
(1.13635 0.629116 -3.27147e-23)
(1.02853 0.560936 1.99185e-24)
(1.06773 0.591984 0)
(0.955365 0.485732 0)
(0.989119 0.527275 0)
(0.867668 0.429412 0)
(0.918283 0.449633 0)
(0.753022 0.404118 0)
(0.809226 0.422854 0)
(0.684016 0.26214 -1.24613e-24)
(0.71019 0.353784 0)
(0.685198 0.0179514 0)
(0.677593 0.145625 0)
(0.731748 -0.217286 0)
(0.705141 -0.105836 0)
(0.794304 -0.376741 0)
(0.763113 -0.306774 0)
(0.849941 -0.452238 -8.75567e-23)
(0.824268 -0.423527 0)
(0.890755 -0.466852 -1.93529e-22)
(0.873868 -0.463752 -2.17238e-22)
(0.895001 -0.473294 -2.03825e-21)
(0.898658 -0.467104 1.78167e-21)
(0.942023 -0.386075 -5.71813e-22)
(0.953672 -0.364879 3.68018e-22)
(0.912323 -0.414617 -1.56324e-23)
(0.924748 -0.40029 4.42797e-22)
(0.89267 -0.446828 0)
(0.90196 -0.429867 2.29963e-22)
(0.883361 -0.480559 2.16661e-21)
(0.886603 -0.464032 -1.9099e-21)
(0.914153 0.578924 1.12194e-22)
(1.10735 0.453887 -5.00755e-21)
(1.18818 0.468124 5.22952e-21)
(0.895905 -0.478348 0)
(0.883308 -0.496883 0)
(0.956795 0.514322 2.06996e-21)
(0.804171 0.436805 3.39647e-21)
(0.582584 -0.0424804 -4.16454e-21)
(0.557541 -0.171251 7.13033e-21)
(1.01721 0.424448 -3.65153e-21)
(0.695432 0.232043 -3.50594e-21)
(0.61129 0.0172406 1.46975e-21)
(0.557286 -0.162074 4.27131e-21)
(1.01904 -0.413579 -2.46631e-24)
(0.999281 -0.388021 1.68527e-21)
(1.05977 -0.481109 0)
(1.03846 -0.450015 0)
(1.09194 -0.534371 -1.00459e-22)
(1.07573 -0.512841 -2.56007e-22)
(1.10588 -0.517313 0)
(1.10207 -0.539186 0)
(1.0836 -0.349352 7.4207e-24)
(1.09952 -0.456122 0)
(1.02473 -0.00753068 -3.43908e-23)
(1.05682 -0.194847 0)
(0.955976 0.383489 -1.55132e-23)
(0.988988 0.194694 0)
(0.903523 0.648872 0)
(0.926198 0.540256 0)
(0.88444 0.705024 -1.48317e-23)
(0.889694 0.701085 0)
(0.881916 0.63583 0)
(0.88416 0.675055 0)
(0.840745 0.570401 0)
(0.868127 0.601498 0)
(0.752459 0.47033 6.06775e-23)
(0.800019 0.529778 2.27336e-22)
(0.652651 0.261988 -1.58618e-21)
(0.701834 0.381957 -1.97775e-22)
(0.61276 0.111186 1.77937e-21)
(1.24724 0.47628 -3.15965e-21)
(1.10871 0.139633 3.95774e-20)
(1.19954 0.187331 0)
(1.23692 0.350461 7.12922e-21)
(1.21603 0.595025 -1.19965e-21)
(1.23753 0.557816 -2.14371e-21)
(1.13924 0.583544 0)
(1.18014 0.600606 0)
(1.05162 0.522235 1.15998e-24)
(1.09773 0.554008 0)
(0.969479 0.451936 -5.14046e-25)
(1.00856 0.490835 0)
(0.888903 0.383234 0)
(0.932886 0.411511 0)
(0.774603 0.355319 0)
(0.833737 0.369876 0)
(0.694967 0.245458 1.24591e-24)
(0.726115 0.317675 0)
(0.68874 0.0288524 0)
(0.684086 0.144406 0)
(0.730134 -0.191858 0)
(0.705475 -0.0859766 0)
(0.789529 -0.349072 0)
(0.759294 -0.279146 0)
(0.848725 -0.428219 5.87283e-23)
(0.820161 -0.39791 -1.45652e-25)
(0.891054 -0.454642 4.15734e-22)
(0.872885 -0.444931 1.99212e-23)
(0.897784 -0.467721 -1.78134e-21)
(0.953611 -0.318232 7.83995e-22)
(0.927761 -0.3591 -2.49188e-22)
(0.939731 -0.338999 -4.31159e-22)
(0.894129 -0.39801 -4.56888e-22)
(0.909788 -0.377613 8.16825e-22)
(0.871983 -0.445046 -6.14536e-22)
(0.881423 -0.421226 -2.86662e-22)
(0.866405 -0.486782 0)
(0.866862 -0.468008 8.28918e-22)
(0.871286 -0.502702 0)
(0.875265 0.476996 0)
(0.981977 -0.322958 1.48986e-21)
(0.971295 -0.294816 1.305e-21)
(1.13049 -0.0117298 0)
(1.00498 -0.330097 -2.93698e-21)
(0.923023 0.379548 5.01672e-21)
(0.758047 0.285322 0)
(0.968674 0.259715 -2.77612e-21)
(0.648273 0.0544192 2.01779e-21)
(0.87825 -0.508138 6.29653e-21)
(1.00304 0.114436 6.0338e-21)
(0.571997 -0.163567 -1.37785e-21)
(1.07563 -0.018816 -5.43856e-20)
(0.553022 -0.313366 0)
(0.981436 -0.284748 -1.57661e-21)
(0.883844 -0.514263 2.58202e-21)
(1.04004 -0.393326 -7.30082e-22)
(1.01669 -0.369892 2.23543e-21)
(1.08611 -0.462064 3.84477e-22)
(1.06159 -0.430444 -4.58736e-22)
(1.13268 -0.519313 1.0318e-22)
(1.10979 -0.494214 1.24117e-22)
(1.16484 -0.515645 0)
(1.15167 -0.529513 0)
(1.15954 -0.367579 -7.42064e-24)
(1.16805 -0.464416 0)
(1.10473 -0.0389668 3.3841e-23)
(1.13696 -0.221426 0)
(1.02451 0.352412 -1.51144e-23)
(1.06482 0.161999 0)
(0.949612 0.626931 0)
(0.984624 0.513111 0)
(0.904373 0.697317 1.38103e-23)
(0.92242 0.686617 0)
(0.884947 0.626387 0)
(0.894061 0.669796 0)
(0.840166 0.536501 0)
(0.868167 0.580506 0)
(0.750718 0.423489 -1.94185e-23)
(0.799884 0.486828 -1.53347e-24)
(0.650258 0.215457 -3.38192e-22)
(0.699272 0.335459 3.59133e-22)
(0.587601 -0.0543495 0)
(0.611462 0.0756996 1.23382e-22)
(0.638424 -0.252784 0)
(0.590606 -0.170443 0)
(1.28407 0.201436 -3.70756e-21)
(1.20309 -0.0123647 2.51365e-20)
(1.31737 0.468228 -1.57443e-21)
(1.31354 0.356656 3.64888e-21)
(1.26868 0.560827 5.50348e-21)
(1.30187 0.534692 4.77656e-22)
(1.17058 0.53864 1.21269e-21)
(1.22169 0.559599 -1.16076e-21)
(1.07254 0.479833 -1.13987e-24)
(1.12226 0.510688 -1.95242e-21)
(0.984025 0.416782 5.14035e-25)
(1.02624 0.450844 0)
(0.909138 0.340502 -9.2589e-30)
(0.947741 0.376469 1.10243e-29)
(0.802458 0.305307 0)
(0.860234 0.318736 0)
(0.712425 0.224124 0)
(0.749684 0.278928 0)
(0.697417 0.0372598 0)
(0.696222 0.139728 0)
(0.734223 -0.168135 0)
(0.71151 -0.0683608 0)
(0.792146 -0.32086 0)
(0.761735 -0.25245 0)
(0.851694 -0.40312 1.01525e-22)
(0.822709 -0.370867 5.00382e-22)
(0.892839 -0.443478 0)
(0.877394 -0.424533 -5.73504e-22)
(0.898016 -0.491809 9.97803e-22)
(0.901977 -0.462838 0)
(0.894394 -0.499166 -3.35703e-21)
(0.607714 -0.353034 2.38066e-21)
(0.684766 -0.290875 5.46312e-22)
(0.939716 -0.290538 -8.28479e-22)
(0.963365 -0.255909 0)
(0.956009 -0.272754 3.72149e-22)
(0.907307 -0.336438 1.6796e-22)
(0.922501 -0.312243 2.97415e-22)
(0.868325 -0.388641 0)
(0.886985 -0.361488 -1.6691e-22)
(0.847219 -0.442498 1.15252e-21)
(0.855149 -0.416571 -5.52948e-22)
(0.849606 -0.48335 0)
(0.845371 -0.465379 -6.05242e-22)
(0.863589 -0.490987 0)
(0.835317 0.33371 0)
(0.874058 0.210286 1.33932e-21)
(0.705775 0.104891 -1.93853e-21)
(0.882882 -0.470387 -5.50564e-21)
(0.906571 -0.49542 0)
(0.915624 -0.467242 -1.86515e-20)
(0.906946 0.0619567 2.72261e-21)
(0.607462 -0.132716 0)
(0.951598 -0.0709743 -8.86539e-21)
(0.560141 -0.322365 1.33302e-21)
(0.939779 -0.22076 2.95511e-21)
(0.591382 -0.40841 -3.23418e-21)
(1.09213 -0.18703 -1.72084e-20)
(0.748647 -0.31166 1.91499e-22)
(0.692884 -0.392528 -1.95706e-22)
(0.983951 -0.247468 0)
(0.947721 -0.227369 2.45809e-24)
(0.960503 -0.356464 -3.20832e-22)
(1.01488 -0.313684 -8.02939e-22)
(0.998602 -0.284131 0)
(1.05907 -0.374663 -3.01877e-22)
(1.03865 -0.343032 -2.09595e-22)
(1.11122 -0.438939 3.12678e-27)
(1.08436 -0.405241 2.06977e-22)
(1.16979 -0.495747 -9.90593e-23)
(1.14025 -0.469699 8.53554e-23)
(1.2195 -0.503588 0)
(1.19645 -0.510362 0)
(1.23331 -0.378973 6.48529e-24)
(1.23272 -0.463116 0)
(1.18608 -0.0719658 -3.21417e-23)
(1.21682 -0.245163 0)
(1.09544 0.313053 1.51146e-23)
(1.14289 0.123954 0)
(0.998941 0.593102 9.88078e-24)
(1.04568 0.47527 0)
(0.926615 0.678381 -9.29525e-25)
(0.958243 0.659998 0)
(0.886705 0.612153 0)
(0.904432 0.656068 0)
(0.837099 0.504591 0)
(0.865931 0.558795 0)
(0.751223 0.378268 0)
(0.79822 0.446107 0)
(0.653998 0.175555 -1.44105e-24)
(0.700738 0.288136 0)
(0.607185 -0.063667 4.60627e-23)
(0.618467 0.0478039 1.72081e-23)
(0.686855 -0.198757 6.16515e-22)
(0.630631 -0.150797 -4.54009e-23)
(0.810583 -0.24529 -5.29015e-22)
(0.752456 -0.218354 0)
(0.816248 -0.329329 0)
(0.901379 -0.327854 5.25444e-21)
(0.860299 -0.282345 -1.77355e-21)
(1.38769 0.256115 1.41094e-20)
(1.23717 -0.0824476 -5.78762e-21)
(1.3268 0.0943754 -1.88094e-20)
(1.3854 0.466698 1.40729e-21)
(1.40141 0.383148 -4.6896e-21)
(1.30088 0.519528 0)
(1.34994 0.509441 -1.55532e-22)
(1.18659 0.490961 1.20809e-24)
(1.24528 0.511138 0)
(1.08713 0.436998 0)
(1.1347 0.465529 0)
(0.998465 0.38033 0)
(1.04161 0.409679 0)
(0.927437 0.303692 0)
(0.961641 0.343382 0)
(0.834792 0.255173 0)
(0.886728 0.273256 0)
(0.7371 0.196543 0)
(0.780815 0.235261 0)
(0.71016 0.043023 0)
(0.713814 0.130438 0)
(0.74328 -0.14522 2.4139e-25)
(0.721791 -0.0521381 0)
(0.800712 -0.292499 0)
(0.770383 -0.225926 0)
(0.860455 -0.378521 0)
(0.831511 -0.342655 0)
(0.899573 -0.430956 1.67451e-24)
(0.883689 -0.406089 0)
(0.907974 -0.486687 -9.84178e-22)
(0.907003 -0.4613 0)
(0.906197 -0.516686 1.49807e-21)
(0.91964 -0.267141 -4.98019e-23)
(0.936914 -0.245179 -7.32159e-22)
(0.87901 -0.319915 1.58947e-22)
(0.899378 -0.291168 2.25404e-22)
(0.838937 -0.379482 -6.8431e-27)
(0.857033 -0.35028 -1.60119e-22)
(0.823748 -0.429113 1.47451e-27)
(0.827817 -0.406655 0)
(0.838096 -0.458863 -4.26698e-23)
(0.827534 -0.446217 -3.77803e-22)
(0.859748 -0.458704 3.58923e-21)
(0.782398 0.156259 0)
(0.997555 -0.233408 0)
(0.934737 -0.500417 -1.00427e-21)
(0.95301 -0.455628 6.35118e-21)
(0.812853 0.00866496 1.64923e-22)
(0.658997 -0.0922985 0)
(0.844988 -0.14008 -2.84724e-21)
(0.579206 -0.310776 -1.31779e-21)
(0.86607 -0.269462 0)
(0.573953 -0.450944 3.84133e-21)
(0.975497 -0.299717 -5.932e-21)
(1.13372 -0.233497 1.95374e-22)
(0.978219 -0.359283 -5.05951e-21)
(0.639895 -0.46448 -1.92635e-21)
(0.76153 -0.39731 0)
(0.859807 -0.368856 4.90581e-22)
(0.919056 -0.393087 2.18821e-23)
(0.934355 -0.287942 0)
(0.98277 -0.31412 6.56975e-23)
(0.999981 -0.389909 1.55066e-21)
(1.03259 -0.292786 3.15484e-22)
(1.01229 -0.262644 0)
(1.0784 -0.35065 -1.23434e-22)
(1.05265 -0.320899 0)
(1.13436 -0.411418 -5.74049e-27)
(1.10313 -0.380355 1.25765e-22)
(1.20085 -0.467039 0)
(1.166 -0.441157 2.41839e-28)
(1.26673 -0.483288 0)
(1.23503 -0.483786 0)
(1.30101 -0.383249 -6.48589e-24)
(1.29035 -0.45322 8.0368e-28)
(1.2657 -0.105324 1.58135e-24)
(1.29274 -0.265015 0)
(1.16718 0.266097 1.27614e-23)
(1.22084 0.0813887 1.01283e-27)
(1.05043 0.547706 -9.88095e-24)
(1.10829 0.427572 0)
(0.950827 0.647107 -5.64542e-24)
(0.996562 0.620724 -4.42887e-28)
(0.886317 0.591518 -1.68486e-24)
(0.915008 0.632242 -2.12448e-28)
(0.828012 0.474745 0)
(0.859174 0.535441 0)
(0.745247 0.334802 0)
(0.789928 0.408416 0)
(0.658821 0.141717 -1.28688e-24)
(0.698495 0.244645 0)
(0.643197 -0.0507723 -6.47353e-22)
(0.636471 0.035469 6.89035e-22)
(0.750767 -0.136233 -8.78645e-22)
(0.686058 -0.108447 1.92244e-22)
(0.856417 -0.196947 1.67695e-21)
(0.810427 -0.15823 9.04708e-23)
(0.89086 -0.244848 -1.15981e-21)
(1.3685 0.002769 -1.25486e-21)
(1.01858 -0.356978 6.23466e-21)
(1.18057 -0.247691 -2.65174e-21)
(1.28139 -0.135816 4.44538e-21)
(1.46259 0.273097 -3.12351e-21)
(1.43486 0.147074 0)
(1.41362 0.427225 1.04371e-22)
(1.45093 0.368556 8.58318e-22)
(1.3087 0.46205 -9.44788e-22)
(1.36542 0.455702 2.33586e-22)
(1.1961 0.440667 -1.19059e-24)
(1.25258 0.455701 1.05992e-21)
(1.09883 0.395143 0)
(1.14506 0.420001 0)
(1.01325 0.343679 0)
(1.05548 0.369713 0)
(0.943788 0.272488 0)
(0.975776 0.311611 0)
(0.868354 0.20904 0)
(0.910915 0.235292 0)
(0.770094 0.162467 9.64029e-25)
(0.818028 0.189458 0)
(0.726942 0.044651 0)
(0.738393 0.114529 0)
(0.75399 -0.122701 -1.32251e-24)
(0.734136 -0.0377447 0)
(0.81152 -0.264276 0)
(0.781051 -0.199328 0)
(0.869642 -0.355383 0)
(0.841956 -0.315468 0)
(0.905379 -0.42046 -1.65087e-24)
(0.891481 -0.388577 0)
(0.919243 -0.483207 -1.66155e-22)
(0.914287 -0.45709 6.72686e-22)
(0.927472 -0.507325 1.92328e-22)
(0.933428 -0.198938 -5.30605e-23)
(0.971847 -0.171494 2.73533e-22)
(0.955651 -0.183154 -3.01488e-22)
(0.89509 -0.246627 2.60354e-22)
(0.91711 -0.220389 1.76518e-22)
(0.847352 -0.305535 0)
(0.870233 -0.274873 0)
(0.81235 -0.360459 6.84288e-27)
(0.826853 -0.335086 0)
(0.807448 -0.395441 1.6452e-27)
(0.805886 -0.381064 0)
(0.835554 -0.406714 -2.78861e-22)
(0.81742 -0.40378 0)
(0.896407 -0.398362 4.16741e-21)
(0.863556 -0.400055 -2.12151e-21)
(0.97932 -0.374307 -8.65251e-21)
(0.935025 -0.390745 1.21209e-20)
(0.72845 -0.0451327 1.19761e-27)
(0.755271 -0.196621 -4.02708e-21)
(0.618237 -0.286077 0)
(0.776058 -0.339447 2.77873e-21)
(0.573619 -0.463308 1.15537e-21)
(1.01224 -0.261635 4.31334e-21)
(1.0289 -0.353469 -1.66273e-21)
(1.0686 -0.235899 -2.20591e-21)
(0.804028 -0.438368 8.6371e-21)
(0.803092 -0.486936 0)
(0.867552 -0.472689 5.1759e-21)
(1.0673 -0.334855 0)
(0.897686 -0.445072 0)
(0.605854 -0.525871 -9.25061e-22)
(0.712173 -0.475398 1.22734e-22)
(0.824257 -0.422689 -1.09867e-21)
(0.890669 -0.427037 -1.90689e-22)
(0.979221 -0.426768 -2.48262e-22)
(0.98748 -0.162749 1.30221e-22)
(1.02157 -0.349574 3.59927e-22)
(1.05078 -0.420696 -1.34874e-21)
(1.06906 -0.374635 0)
(0.958794 -0.141542 3.89096e-22)
(0.973685 -0.132298 -1.33658e-22)
(1.01136 -0.219022 1.19141e-22)
(0.994642 -0.190903 -1.89475e-22)
(1.04773 -0.2724 -7.00338e-23)
(1.02566 -0.245749 1.69116e-23)
(1.09426 -0.326625 2.27076e-22)
(1.06758 -0.298505 -2.93531e-22)
(1.15307 -0.381738 4.54071e-27)
(1.12034 -0.353985 0)
(1.22539 -0.432999 9.3729e-28)
(1.18693 -0.408683 0)
(1.30416 -0.453949 0)
(1.26484 -0.450275 0)
(1.35881 -0.378344 0)
(1.3373 -0.433541 0)
(1.34042 -0.136945 1.39288e-23)
(1.36074 -0.278672 0)
(1.23881 0.212412 -1.27624e-23)
(1.29681 0.0357346 0)
(1.10432 0.491424 5.60796e-28)
(1.17201 0.370798 -6.57454e-28)
(0.979298 0.60243 0)
(1.0385 0.568829 0)
(0.887867 0.560947 1.2439e-24)
(0.92925 0.595877 0)
(0.815737 0.442813 0)
(0.851653 0.506141 0)
(0.736135 0.295347 2.61256e-24)
(0.777188 0.371821 0)
(0.673435 0.120615 2.37508e-24)
(0.69833 0.209069 0)
(0.701387 -0.0182279 -9.08547e-25)
(0.672674 0.0405948 0)
(0.811189 -0.0798526 2.29949e-22)
(0.755653 -0.0558511 0)
(0.886557 -0.162495 2.23681e-23)
(0.854816 -0.115151 -2.32297e-22)
(0.951763 -0.253085 -6.43843e-22)
(0.91577 -0.211951 5.86433e-22)
(1.03312 -0.313807 0)
(0.993022 -0.283335 -1.52258e-22)
(1.33534 -0.156076 -1.40929e-21)
(0.956159 -0.384499 1.60132e-22)
(1.14382 -0.295494 -3.75781e-25)
(1.23983 -0.239689 7.73712e-22)
(1.47019 0.0629174 1.70621e-21)
(1.41 -0.0546109 0)
(1.5028 0.276338 -2.09811e-22)
(1.50434 0.179152 -1.62863e-21)
(1.42449 0.386375 -9.79273e-23)
(1.47297 0.345625 5.47238e-22)
(1.31098 0.411837 1.73801e-24)
(1.3698 0.406893 2.38469e-28)
(1.19993 0.393926 0)
(1.254 0.406554 0)
(1.10553 0.355046 3.21114e-25)
(1.15031 0.376451 -3.53598e-30)
(1.02553 0.30754 0)
(1.06485 0.331558 0)
(0.957863 0.244775 0)
(0.988986 0.279944 0)
(0.898758 0.170883 0)
(0.930612 0.205302 0)
(0.811025 0.123477 3.04958e-25)
(0.857603 0.145887 0)
(0.750406 0.0389008 0)
(0.772369 0.0902359 0)
(0.763654 -0.10213 1.08112e-24)
(0.749133 -0.0277988 0)
(0.818066 -0.236852 0)
(0.789004 -0.173092 0)
(0.873985 -0.333909 0)
(0.848524 -0.289163 0)
(0.91065 -0.409458 1.65501e-22)
(0.896386 -0.373228 -1.7581e-22)
(0.932023 -0.477909 -1.89511e-22)
(0.923086 -0.448504 -3.80662e-24)
(0.968747 -0.486265 1.07021e-21)
(0.9501 -0.494932 1.79369e-22)
(0.994902 -0.437739 0)
(0.915602 -0.174587 0)
(0.940806 -0.155446 -3.78375e-22)
(0.866639 -0.228137 0)
(0.893445 -0.199003 0)
(0.818442 -0.284266 0)
(0.839776 -0.256815 0)
(0.793942 -0.323581 0)
(0.802623 -0.307118 0)
(0.801315 -0.337996 -2.15175e-26)
(0.793538 -0.333965 0)
(0.841765 -0.329563 2.35579e-22)
(0.817626 -0.336093 -5.58402e-23)
(0.914429 -0.301136 -3.0183e-21)
(0.87393 -0.316004 0)
(0.960745 -0.283607 -4.0139e-21)
(0.678134 -0.247092 0)
(1.07417 -0.341016 3.66215e-23)
(1.11074 -0.394447 -1.38502e-21)
(1.11927 -0.361449 -4.39253e-21)
(0.696644 -0.393987 -2.42499e-21)
(0.59274 -0.459532 -7.3445e-28)
(1.05083 -0.131507 -4.57274e-21)
(1.11168 -0.103164 4.31844e-21)
(0.711056 -0.509403 2.34318e-21)
(0.717624 -0.578902 0)
(0.752727 -0.589245 2.1214e-21)
(0.746974 -0.561141 9.78147e-22)
(0.785402 -0.488971 -6.04417e-22)
(1.06027 -0.317565 3.07615e-23)
(0.856813 -0.396539 -5.37249e-22)
(0.668001 -0.550292 1.94739e-26)
(0.783853 -0.486941 5.06449e-22)
(0.864164 -0.469873 3.38557e-23)
(0.950635 -0.468391 -3.21636e-22)
(1.02424 -0.466673 0)
(1.09624 -0.448708 -2.012e-21)
(0.949539 -0.112476 6.01015e-22)
(0.971345 -0.10246 2.86154e-21)
(1.00282 -0.152177 1.14953e-24)
(1.13112 -0.20224 -7.28806e-21)
(1.08332 -0.321603 3.3725e-21)
(0.987098 -0.126738 -8.32761e-22)
(0.587898 -0.569259 -6.30309e-28)
(1.02563 -0.203413 -1.14835e-22)
(1.00724 -0.177008 1.84256e-22)
(1.06078 -0.253199 0)
(1.03849 -0.228013 5.16726e-23)
(1.10785 -0.302079 -1.77438e-27)
(1.08046 -0.276813 -4.31873e-24)
(1.16719 -0.350853 -4.85667e-28)
(1.13456 -0.326476 0)
(1.24247 -0.395724 -9.37286e-28)
(1.20233 -0.374279 0)
(1.32974 -0.417603 0)
(1.28531 -0.411802 0)
(1.40269 -0.363335 0)
(1.37089 -0.404658 0)
(1.40642 -0.163485 0)
(1.41649 -0.283433 0)
(1.30994 0.153912 9.19209e-24)
(1.36855 -0.00997641 7.58955e-28)
(1.16167 0.425676 0)
(1.23762 0.306279 0)
(1.01512 0.545188 -2.20669e-28)
(1.08583 0.505752 2.58596e-28)
(0.898329 0.518975 4.41201e-25)
(0.952122 0.546685 -3.39495e-29)
(0.811272 0.406968 9.244e-29)
(0.852353 0.46867 -1.08258e-28)
(0.740896 0.263477 -2.61234e-24)
(0.773748 0.336625 -2.05011e-28)
(0.716544 0.119226 0)
(0.719463 0.187994 0)
(0.779696 0.0238527 -6.01775e-25)
(0.738447 0.0635853 -3.07515e-28)
(0.865161 -0.0420893 0)
(0.827655 -0.00756771 0)
(0.915591 -0.137142 0)
(0.892435 -0.0882096 0)
(0.977618 -0.219368 5.28048e-22)
(0.943122 -0.18359 -3.53074e-22)
(1.05309 -0.277097 -1.71679e-22)
(1.01387 -0.250012 2.94733e-22)
(1.15405 -0.406145 1.18145e-21)
(1.14349 -0.322659 -1.0631e-22)
(1.09414 -0.300732 4.53316e-22)
(1.29956 -0.226393 -2.31702e-23)
(0.984309 -0.317608 -3.06117e-23)
(1.16846 -0.271375 -1.18649e-21)
(1.23213 -0.258571 0)
(1.44049 -0.0913945 -4.65411e-23)
(1.3746 -0.168236 5.39587e-22)
(1.52097 0.0939198 -8.42101e-22)
(1.48973 -0.00191373 0)
(1.50258 0.25707 2.14936e-22)
(1.52525 0.183735 -5.12339e-22)
(1.40996 0.338999 0)
(1.46259 0.307788 0)
(1.29866 0.360243 -5.34234e-25)
(1.35421 0.355092 0)
(1.19712 0.348204 -3.22568e-29)
(1.2462 0.357168 3.83805e-29)
(1.11021 0.317474 2.47241e-25)
(1.15182 0.334795 0)
(1.03693 0.274295 9.1175e-29)
(1.07261 0.296777 -1.0853e-28)
(0.972317 0.219039 0)
(1.00286 0.249517 0)
(0.923805 0.142751 1.38412e-24)
(0.947439 0.181694 -1.83358e-28)
(0.856163 0.0846433 -1.26899e-24)
(0.894438 0.11003 0)
(0.78538 0.022984 1.63714e-28)
(0.816576 0.058753 -1.9508e-28)
(0.775803 -0.0871624 -2.43613e-24)
(0.771965 -0.0267618 0)
(0.819242 -0.210799 0)
(0.794308 -0.150133 0)
(0.872677 -0.312738 -1.03448e-24)
(0.847939 -0.264268 0)
(0.91223 -0.396695 1.56398e-22)
(0.896245 -0.356512 1.03829e-24)
(0.949401 -0.461652 1.00725e-22)
(0.932946 -0.434982 -1.75069e-22)
(1.00314 -0.459719 -3.44178e-21)
(0.974655 -0.474339 0)
(1.04127 -0.409017 2.31217e-21)
(0.894659 -0.152787 0)
(0.925277 -0.130023 -5.0896e-22)
(0.838734 -0.206827 -7.1459e-23)
(0.866669 -0.179129 0)
(0.797942 -0.249228 0)
(0.814623 -0.230203 7.04746e-23)
(0.78642 -0.266603 0)
(0.788517 -0.261363 0)
(0.805704 -0.259378 -2.40422e-26)
(0.792173 -0.265832 0)
(0.856752 -0.231335 -5.44295e-22)
(0.827155 -0.248127 5.64136e-23)
(0.941117 -0.18484 -1.16615e-21)
(0.894341 -0.210492 1.09717e-21)
(0.993381 -0.158854 0)
(0.634202 -0.43633 0)
(1.17588 -0.0706035 0)
(0.647718 -0.559414 0)
(0.648966 -0.64952 5.95656e-26)
(0.651928 -0.678613 0)
(0.636413 -0.658677 -2.85049e-21)
(0.653216 -0.590902 -3.88364e-22)
(0.682271 -0.489604 1.88467e-22)
(0.740131 -0.554766 -3.18e-26)
(0.83679 -0.517662 -3.44051e-25)
(0.917984 -0.515333 4.82552e-22)
(0.99487 -0.512625 -1.0768e-21)
(0.773452 -0.376357 0)
(1.1217 -0.264316 -1.97174e-22)
(0.932603 -0.294373 0)
(1.07938 -0.496913 1.88935e-21)
(1.15138 -0.462632 6.73373e-21)
(1.18283 -0.347805 3.88902e-22)
(0.991338 -0.101349 -1.10016e-22)
(0.587879 -0.589577 1.28304e-27)
(1.19954 -0.38698 -7.59785e-22)
(0.633847 -0.615512 1.05027e-27)
(1.3358 0.146654 2.24237e-20)
(1.01169 -0.142476 6.95657e-22)
(1.00312 -0.108286 -9.24457e-21)
(1.03664 -0.189099 0)
(1.02254 -0.162056 4.12299e-22)
(1.07211 -0.234396 2.54082e-27)
(1.05248 -0.210226 -1.27023e-23)
(1.11848 -0.277843 5.34736e-28)
(1.09303 -0.255827 -2.34911e-28)
(1.17742 -0.319686 -4.55134e-28)
(1.14563 -0.29888 0)
(1.2526 -0.356976 -2.76749e-28)
(1.21255 -0.339268 3.24991e-28)
(1.34323 -0.376203 0)
(1.29641 -0.370432 0)
(1.42972 -0.338145 0)
(1.38949 -0.368036 0)
(1.45859 -0.180921 -5.09551e-28)
(1.45544 -0.277153 5.98011e-28)
(1.37954 0.094159 -9.1927e-24)
(1.43229 -0.0512921 0)
(1.22565 0.352203 -3.68677e-28)
(1.3066 0.23629 4.32205e-28)
(1.06317 0.477397 -8.44544e-25)
(1.1424 0.433491 0)
(0.927648 0.466696 -1.82958e-24)