/*--------------------------------*- C++ -*----------------------------------*\
  =========                 |
  \\      /  F ield         | OpenFOAM: The Open Source CFD Toolbox
   \\    /   O peration     | Website:  https://openfoam.org
    \\  /    A nd           | Version:  10
     \\/     M anipulation  |
\*---------------------------------------------------------------------------*/
FoamFile
{
    format      ascii;
    class       volScalarField;
    location    "54";
    object      p;
}
// * * * * * * * * * * * * * * * * * * * * * * * * * * * * * * * * * * * * * //

dimensions      [0 2 -2 0 0 0 0];

internalField   nonuniform List<scalar> 
28942
(
-0.00377173
-0.00314422
0.00202768
0.00950267
0.00980275
0.000104257
0.000319706
3.27339e-05
0.00271983
0.00280785
-0.00231745
-0.00258673
-0.00297068
-0.00288803
0.000212233
0.000538996
0.00988753
0.0101574
0.00558305
0.00714408
0.0081599
0.00815165
-0.00523061
-0.0050549
-0.00358355
-0.00380651
0.0138852
0.0138343
0.00353497
0.00347805
2.44596e-05
6.12603e-05
0.000837554
0.000346668
0.00715199
0.00835786
0.0108949
0.0128536
5.52805e-07
0.015049
0.00910628
0.0116042
0.00179084
0.00171076
0.00176634
0.00031966
0.000177202
0.000255679
0.00029498
0.000412014
0.000778394
0.00279918
0.00286982
0.00285193
0.00300751
-0.00235141
-0.00104781
-0.00337854
-0.00322397
-0.0034956
-0.00356865
-0.00356957
-0.00346744
-0.000112044
-0.00181508
-0.000357294
0.000975578
0.00942941
0.00893286
-0.00336216
-0.00357246
-0.00330718
0.00899397
0.00884596
0.00913774
-0.00147308
-0.00108508
-0.000744906
0.00236231
0.00276177
0.00185194
0.00075583
-0.00631484
-0.00754421
0.00108799
0.00381458
0.00485658
0.00564469
0.0040284
0.00415233
0.00611983
0.00549821
-0.00139323
-0.00168569
-0.00196464
-0.00180235
-0.0016273
0.00534186
0.00663325
-0.00785548
0.0113
0.010501
0.00579489
0.00939204
0.000909236
0.000818106
0.000726944
0.00548134
0.00567401
0.00566805
-0.00322173
-0.00314222
-0.00312747
-0.00260998
-0.0027324
0.0158405
0.0138347
0.0132767
0.0149082
0.00164878
0.00473037
0.00342788
0.00507493
0.00475185
0.0155122
0.0158079
0.0144676
0.00591704
0.00699641
0.000214312
0.000321086
0.00012645
0.0105042
0.0110077
0.00768357
0.00733574
0.0127927
0.00670183
0.00799325
0.00905955
-0.00190311
-0.00241412
0.00736202
0.00171115
0.00179703
-0.00117379
-0.0014379
-0.000976902
-0.00251352
0.0066012
0.00572823
0.00371972
0.000290636
0.000231487
9.6619e-05
0.000234154
0.0075381
0.00680259
-0.00185713
-0.00197442
-0.00186959
-0.00413847
-0.00368218
7.67902e-05
-0.00285519
-0.00050094
0.00840202
0.00851091
0.00960499
0.00914036
0.00771812
0.00309527
0.00301293
0.00326121
0.00313729
0.00505154
0.00482933
0.0051642
0.00538471
0.00532242
0.0053928
0.0056038
0.00615756
0.00585172
0.00544945
0.00577953
0.00648526
0.00723874
0.00753086
-0.000567426
-0.000548517
-0.00246759
0.000239336
7.62051e-05
-0.00198581
-0.00207479
0.000322686
0.000385556
0.000347002
0.00027704
0.00195666
0.00191597
0.00188934
-0.00291879
-0.00310667
-0.00277043
-0.00434132
-0.00482437
-0.0041346
-0.00472286
-0.00649003
-0.00518696
0.0160344
0.0167447
0.0165122
0.000946184
0.00109128
0.000978614
0.0103579
0.00992997
0.0100103
0.00154549
0.001525
0.0015659
0.00150426
0.00148388
0.00146327
0.00146421
0.00144276
0.00144369
0.00148449
0.00150476
0.00152518
0.0015458
0.00156638
0.00142266
0.00142294
0.00158581
0.00158624
0.00160572
0.00140245
0.00140239
0.00160615
0.0013819
0.00136147
0.00138215
0.00136192
0.00162639
0.00162677
0.00134123
0.0013417
0.00164581
0.00164643
0.00132108
0.00132159
0.0016653
0.00166588
0.00130107
0.00130157
0.00168458
0.0016852
0.00128115
0.00128168
0.00170365
0.00170425
0.00126139
0.00126187
0.0017225
0.0017231
0.00124175
0.00124219
0.00174112
0.00174173
0.00122224
0.00122253
0.00175918
0.00175971
0.00120282
0.00120285
0.00177766
0.00177807
0.00118347
0.00118306
0.00179504
0.00179517
0.00116363
0.0011635
0.00181252
0.00181258
0.0011436
0.00114393
0.00179399
0.00181143
0.0018298
0.00182961
0.0017574
0.0017762
0.00172039
0.00173935
0.00168306
0.00170194
0.00164427
0.00166384
0.00160437
0.00162437
0.0015646
0.00158543
0.00152444
0.00154459
0.00148318
0.00150349
0.00144178
0.00146249
0.00140101
0.00142144
0.00136044
0.00138071
0.00132019
0.00134028
0.00128035
0.00130023
0.001241
0.00126063
0.00120218
0.00122153
0.00116312
0.00118288
0.00114349
0.00112392
0.00112413
0.00118311
0.00114395
0.00116352
0.00122242
0.00120269
0.00126169
0.00124206
0.00130135
0.00128148
0.00134147
0.00132138
0.00138197
0.0013617
0.0014226
0.00140234
0.00146379
0.00144327
0.00150482
0.00148443
0.00154518
0.00152493
0.00158614
0.00156618
0.00162599
0.00160582
0.0016653
0.00164583
0.00170349
0.00168458
0.00174063
0.00172214
0.0017768
0.00175861
0.00181099
0.00179423
0.00182803
0.00182915
0.00112376
0.00112434
0.00184587
0.00184393
0.00184639
0.0018465
0.00179148
0.00182683
0.00180915
0.00175498
0.00177356
0.00171857
0.00173668
0.00168115
0.00170005
0.00164254
0.00166198
0.00160311
0.00162289
0.00156279
0.00158311
0.00152231
0.00154308
0.00148209
0.00150184
0.00144071
0.00146135
0.00139995
0.00142032
0.00135946
0.00137968
0.0013193
0.00133934
0.00127955
0.00129937
0.00124027
0.00125985
0.00120152
0.00122083
0.00116269
0.00118211
0.00110421
0.00110432
0.00112355
0.00114316
0.00114395
0.00112459
0.00110489
0.00110447
0.00118315
0.00116351
0.00122202
0.00120239
0.00126112
0.00124151
0.00130072
0.00128087
0.00134076
0.0013207
0.0013812
0.00136094
0.00142188
0.00140155
0.00146277
0.00144228
0.00150378
0.00148321
0.00154431
0.00152409
0.00158469
0.00156481
0.0016246
0.0016048
0.00166371
0.00164429
0.0017018
0.00168291
0.00173865
0.00172041
0.00177412
0.00175661
0.00180814
0.0017913
0.00184018
0.00182467
0.00184398
0.00185984
0.00185606
0.00186125
0.00110432
0.00110505
0.00186192
0.00185953
0.0018751
0.0018717
0.00186246
0.00112361
0.00110432
0.00108549
0.00108567
0.00185572
0.00187684
0.00189736
0.00187833
0.00182277
0.00183965
0.00178773
0.00180524
0.00175189
0.0017702
0.00171569
0.00173362
0.00167851
0.0016973
0.00164011
0.00165944
0.00160085
0.00162059
0.00156089
0.0015809
0.0015205
0.00154073
0.00147989
0.00150023
0.00143922
0.00145959
0.00139859
0.00141889
0.00135821
0.00137837
0.00131815
0.00133814
0.0012785
0.00129828
0.00123932
0.00125886
0.00120065
0.00121992
0.00116212
0.00118133
0.00114277
0.00108509
0.00108504
0.00108504
0.00108528
0.00114388
0.0011052
0.00112461
0.00118273
0.00116328
0.00122125
0.00120185
0.00126025
0.00124069
0.00129976
0.00127995
0.0013397
0.00131968
0.00138
0.00135981
0.00142057
0.00140027
0.00146132
0.00144092
0.001502
0.00148169
0.00154263
0.00152238
0.00158277
0.00156274
0.00162243
0.00160272
0.00166129
0.00164198
0.00169914
0.00168036
0.00173574
0.00171763
0.00177081
0.00175352
0.00180425
0.00178769
0.00183593
0.00182028
0.0018665
0.00185087
0.00188549
0.00188068
0.00187751
0.00187646
0.00108514
0.00108596
0.00189096
0.00188923
0.00188549
0.00189427
0.00189862
0.00182792
0.00190644
0.00187817
0.00187961
0.00187864
0.00185215
0.00186999
0.00181681
0.00183442
0.00178277
0.00179956
0.0017478
0.00176579
0.00171206
0.00173004
0.00167505
0.00169373
0.00163692
0.00165612
0.0015979
0.00161752
0.00155823
0.00157813
0.00151809
0.00153818
0.00147765
0.00149792
0.0014372
0.00145744
0.00139677
0.00141697
0.00135656
0.00137663
0.00131665
0.00133656
0.00127714
0.00129684
0.00123807
0.00125755
0.0011995
0.00121873
0.00116128
0.0011803
0.00112322
0.00114221
0.00108497
0.00110399
0.00106613
0.00106587
0.00106602
0.00106626
0.00106614
0.00106653
0.00106636
0.00106705
0.00106673
0.00110514
0.00106723
0.00108629
0.00114338
0.00112428
0.00118183
0.00116268
0.00122021
0.00120097
0.0012591
0.00123959
0.00129848
0.00127874
0.00133827
0.00131833
0.00137842
0.00135832
0.00141882
0.00139861
0.00145937
0.00143909
0.00149986
0.00147965
0.00154023
0.00152009
0.00158016
0.00156024
0.00161954
0.00159995
0.00165811
0.00163895
0.00169565
0.00167704
0.00173192
0.00171397
0.00176665
0.00174952
0.00179954
0.00178334
0.0018305
0.0018153
0.00185994
0.00184529
0.00188772
0.00187334
0.00190678
0.00190021
0.00189155
0.00189147
0.00190347
0.00190097
0.00108473
0.0010659
0.00104811
0.00104818
0.00190282
0.00191139
0.00193358
0.00185823
0.00191703
0.00191143
0.00189545
0.00189203
0.00186623
0.00186674
0.0018449
0.00185939
0.00181001
0.00182744
0.00177735
0.00179382
0.0017431
0.00176048
0.00170756
0.00172547
0.00167084
0.00168935
0.00163303
0.00165206
0.00159433
0.00161378
0.00155496
0.00157472
0.0015151
0.00153508
0.00147496
0.00149507
0.00143473
0.00145486
0.00139453
0.00141462
0.00135452
0.0013745
0.0013148
0.00133462
0.00127546
0.00129508
0.00123655
0.00125595
0.00119812
0.00121727
0.00116021
0.00117911
0.00112236
0.00114123
0.00110343
0.00104742
0.00104712
0.00104724
0.0010478
0.00104771
0.00104796
0.00104794
0.00104795
0.00110481
0.00106685
0.00108623
0.00114273
0.00112375
0.00118065
0.00116175
0.00121891
0.00119973
0.00125766
0.00123823
0.00129688
0.00127722
0.0013365
0.00131665
0.00137646
0.00135645
0.00141665
0.00139654
0.00145696
0.0014368
0.00149722
0.00147711
0.00153728
0.00151729
0.00157693
0.00155717
0.00161598
0.00159655
0.00165421
0.00163522
0.00169138
0.00167295
0.00172726
0.00170951
0.00176158
0.00174464
0.00179409
0.00177809
0.00182451
0.00180959
0.00185299
0.00183916
0.0018791
0.00186519
0.00190412
0.00189296
0.00192135
0.0019136
0.0019056
0.00190367
0.00104672
0.00104799
0.0019106
0.00187014
0.00189889
0.0019139
0.00192131
0.00192608
0.00192366
0.00192751
0.00192721
0.00193073
0.00192483
0.00190478
0.0018683
0.00191908
0.00189756
0.0018556
0.00185899
0.00183514
0.00184979
0.00180334
0.00181922
0.00177113
0.00178744
0.00173736
0.00175445
0.00170224
0.00171996
0.0016659
0.00168423
0.00162848
0.00164732
0.00159015
0.00160942
0.00155113
0.00157072
0.00151161
0.00153143
0.00147179
0.00149173
0.00143184
0.00145182
0.0013919
0.00141186
0.00135213
0.001372
0.00131263
0.00133235
0.00127349
0.00129302
0.00123476
0.00125407
0.00119649
0.00121557
0.00115873
0.00117756
0.00112132
0.00114005
0.00108373
0.00110254
0.00104595
0.00106505
0.00102848
0.00102732
0.00102796
0.0010293
0.00102886
0.00102977
0.00102957
0.00102981
0.00102984
0.00102958
0.00102971
0.00102953
0.00102958
0.00106657
0.00102946
0.00104801
0.00110407
0.00108535
0.00114168
0.00112287
0.00117924
0.0011604
0.00121735
0.00119824
0.00125593
0.00123659
0.00129497
0.0012754
0.00133439
0.00131464
0.00137412
0.00135423
0.00141406
0.00139408
0.0014541
0.00143408
0.00149407
0.00147411
0.0015338
0.00151398
0.00157311
0.00155353
0.00161179
0.00159255
0.00164963
0.00163084
0.00168638
0.00166816
0.00172181
0.00170428
0.00175568
0.00173897
0.00178774
0.00177197
0.00181776
0.00180304
0.00184554
0.00183203
0.0018711
0.00185839
0.00189407
0.00188341
0.00191509
0.00190325
0.00193499
0.00192617
0.00191448
0.00191742
0.00191542
0.00104571
0.00102712
0.00101105
0.00101079
0.00191521
0.00192456
0.00192201
0.00193129
0.00193606
0.00194176
0.0019433
0.00193519
0.00191545
0.0019064
0.0019247
0.00191438
0.00191182
0.0018675
0.0018886
0.00184665
0.00185408
0.00182559
0.00183934
0.00179552
0.00181067
0.00176399
0.00177999
0.0017308
0.0017476
0.00169618
0.00171367
0.00166031
0.0016784
0.00162332
0.00164195
0.00158541
0.00160447
0.00154678
0.00156618
0.00150764
0.00152727
0.00146816
0.00148794
0.00142853
0.00144836
0.0013889
0.00140871
0.0013494
0.00136913
0.00131015
0.00132974
0.00127123
0.00129065
0.00123271
0.00125192
0.00119463
0.00121361
0.00115702
0.00117577
0.00111994
0.00113843
0.0010827
0.00110132
0.00106404
0.00101022
0.00100899
0.00100979
0.00101135
0.00101087
0.0010119
0.00101168
0.0010119
0.00101197
0.00101145
0.00101174
0.00101122
0.00106603
0.00102896
0.00104748
0.00110304
0.00108452
0.00114018
0.00112165
0.00117761
0.00115883
0.00121554
0.00119652
0.00125393
0.00123468
0.00129275
0.0012733
0.00133194
0.00131231
0.00137142
0.00135165
0.00141108
0.00139124
0.00145081
0.00143095
0.00149044
0.00147066
0.00152982
0.00151019
0.00156874
0.00154936
0.00160701
0.00158798
0.0016444
0.00162584
0.00168069
0.00166271
0.00171564
0.00169836
0.00174902
0.00173256
0.00178059
0.00176506
0.00181015
0.00179565
0.00183749
0.00182415
0.00186251
0.0018503
0.00188459
0.00187405
0.0019055
0.00189432
0.00192419
0.00191423
0.0019442
0.00193374
0.00194294
0.00193315
0.0019218
0.00100868
0.00101038
0.00191812
0.00192579
0.00193213
0.00192836
0.00193497
0.0019426
0.00194204
0.0019474
0.0019499
0.00195089
0.0019506
0.00194141
0.00192505
0.0019008
0.00193341
0.00192737
0.0019075
0.00189274
0.00190167
0.00186231
0.00187638
0.00183821
0.00184876
0.00181576
0.00182874
0.00178692
0.00180159
0.00175612
0.00177178
0.00172355
0.00174005
0.00168948
0.0017067
0.0016541
0.00167195
0.00161759
0.00163598
0.00158013
0.00159897
0.00154194
0.00156113
0.00150321
0.00152264
0.00146412
0.0014837
0.00142484
0.0014445
0.00138554
0.00140519
0.00134634
0.00136592
0.00130736
0.00132682
0.00126869
0.00128799
0.0012304
0.0012495
0.00119253
0.00121141
0.00115512
0.00117377
0.00111819
0.00113659
0.00108155
0.00109992
0.00104475
0.00106306
0.00100807
0.00102654
0.000991065
0.00098976
0.000990428
0.0009925
0.000991727
0.000993584
0.000993107
0.000994148
0.000993933
0.00099413
0.000994214
0.000993635
0.000993916
0.000992888
0.000993178
0.000992078
0.000992521
0.00102824
0.000991784
0.00101002
0.00106514
0.00104654
0.00110172
0.00108352
0.00113848
0.00112005
0.00117575
0.00115706
0.00121348
0.00119456
0.00125166
0.00123252
0.00129025
0.00127091
0.00132918
0.00130968
0.00136837
0.00134875
0.00140772
0.00138804
0.00144711
0.00142743
0.00148638
0.00146678
0.00152536
0.00150593
0.00156386
0.00154469
0.00160168
0.00158288
0.0016386
0.00162028
0.00167439
0.00165666
0.00170883
0.0016918
0.00174168
0.00172548
0.00177274
0.00175747
0.0018018
0.00178755
0.00182867
0.00181554
0.00185322
0.00184125
0.00187502
0.00186453
0.00189477
0.00188515
0.00191222
0.00190305
0.00192933
0.00192179
0.00194949
0.00194512
0.00194455
0.00193179
0.001933
0.00193651
0.00193182
0.00194245
0.00193997
0.00194196
0.00194538
0.00100734
0.000989157
0.000973893
0.000973732
0.00195302
0.00195185
0.00195606
0.00195718
0.00195745
0.00195418
0.00193464
0.00192787
0.00192957
0.00194949
0.00194258
0.00194582
0.00193595
0.0019184
0.00191707
0.00188967
0.00189987
0.00187903
0.00188825
0.00185298
0.00186515
0.00182979
0.00184121
0.00180572
0.00181842
0.00177778
0.00179207
0.00174766
0.00176299
0.00171571
0.00173191
0.0016822
0.00169914
0.00164735
0.00166494
0.00161134
0.00162949
0.00157438
0.00159298
0.00153665
0.0015556
0.00149835
0.00151757
0.00145967
0.00147905
0.00142078
0.00144025
0.00138183
0.00140131
0.00134296
0.00136239
0.00130429
0.0013236
0.00126589
0.00128505
0.00122785
0.00124683
0.00119021
0.00120898
0.00115301
0.00117155
0.00111626
0.00113458
0.00108001
0.00109809
0.00104362
0.00106182
0.00102548
0.000973299
0.00097178
0.000972599
0.000974878
0.000974113
0.000975958
0.000975482
0.000976509
0.000976302
0.000976498
0.000976575
0.000975968
0.000976284
0.000975099
0.000975545
0.000974604
0.0010275
0.000991281
0.0010094
0.0010639
0.00104564
0.00110002
0.00108191
0.00113661
0.00111825
0.00117367
0.00115509
0.00121119
0.00119238
0.00124913
0.00123012
0.00128746
0.00126826
0.0013261
0.00130675
0.00136499
0.00134553
0.001404
0.00138449
0.00144302
0.00142353
0.0014819
0.0014625
0.00152046
0.00150124
0.00155851
0.00153957
0.00159585
0.00157729
0.00163226
0.0016142
0.00166753
0.00165007
0.00170144
0.00168468
0.00173376
0.00171782
0.00176428
0.00174927
0.00179283
0.00177883
0.00181921
0.00180632
0.00184331
0.00183157
0.00186488
0.00185445
0.00188408
0.00187482
0.00190108
0.00189279
0.00191508
0.00190895
0.00193052
0.00191913
0.00194453
0.001943
0.00195627
0.00194645
0.00193676
0.0019272
0.00195667
0.00195199
0.00194498
0.00194706
0.000971127
0.000973139
0.00195678
0.0019536
0.00195522
0.00196046
0.00196086
0.00196388
0.00196481
0.00196152
0.00195635
0.00193404
0.00192155
0.00192256
0.0019233
0.00192927
0.00194139
0.00193654
0.00195006
0.0019599
0.00195396
0.00194952
0.00194698
0.00191861
0.00191485
0.00190198
0.00190532
0.00188069
0.00189161
0.00186556
0.00187418
0.00184304
0.00185456
0.00182
0.00183157
0.00179555
0.00180817
0.00176822
0.0017822
0.0017387
0.00175372
0.00170735
0.00172325
0.00167441
0.00169108
0.00164011
0.00165743
0.00160463
0.00162252
0.00156818
0.00158653
0.00153094
0.00154965
0.0014931
0.00151209
0.00145486
0.00147403
0.00141637
0.00143564
0.00137781
0.0013971
0.00133929
0.00135854
0.00130093
0.00132009
0.00126283
0.00128185
0.00122506
0.00124391
0.00118767
0.00120632
0.00115069
0.00116913
0.00111416
0.00113237
0.00107808
0.00109606
0.00104224
0.00106021
0.00100645
0.00102426
0.000970614
0.000988394
0.000954176
0.00095279
0.000953392
0.000955877
0.000954913
0.000957389
0.000956681
0.000958451
0.000957984
0.000958981
0.000958782
0.00095898
0.000959048
0.00095846
0.000958779
0.000957458
0.000958036
0.00095624
0.00095686
0.000955154
0.000955678
0.000990296
0.000954382
0.000972541
0.00102644
0.0010083
0.0010622
0.00104441
0.00109813
0.0010801
0.00113454
0.00111628
0.00117139
0.00115291
0.00120867
0.00118998
0.00124636
0.00122747
0.0012844
0.00126534
0.00132274
0.00130355
0.00136129
0.001342
0.00139995
0.00138062
0.00143858
0.00141928
0.00147703
0.00145785
0.00151514
0.00149615
0.00155272
0.00153402
0.00158956
0.00157125
0.00162545
0.00160765
0.00166019
0.00164299
0.00169354
0.00167707
0.00172532
0.00170966
0.00175531
0.00174057
0.00178334
0.0017696
0.00180924
0.00179659
0.00183289
0.00182138
0.00185414
0.00184385
0.00187303
0.0018639
0.00188956
0.00188162
0.00190289
0.00189679
0.00191437
0.0019089
0.00191375
0.00196584
0.00196759
0.00194105
0.00193078
0.00195617
0.0019571
0.00195383
0.00196228
0.00196432
0.000969213
0.00095193
0.00093737
0.000936551
0.00196977
0.00196903
0.00197119
0.0019705
0.00196753
0.00196411
0.00192862
0.00191668
0.00192841
0.00193539
0.0019482
0.0019494
0.00196266
0.00195905
0.00194761
0.00192981
0.00194197
0.00195742
0.00191186
0.00190016
0.00190177
0.00190795
0.00188635
0.00189398
0.00187047
0.00187899
0.00185344
0.00186238
0.00183227
0.00184323
0.00180952
0.00182105
0.00178512
0.00179764
0.00175828
0.001772
0.00172933
0.00174406
0.00169856
0.00171417
0.00166619
0.00168257
0.00163245
0.00164949
0.00159751
0.00161513
0.00156158
0.00157967
0.00152484
0.00154331
0.00148749
0.00150624
0.0014497
0.00146865
0.00141164
0.0014307
0.00137347
0.00139257
0.00133532
0.00135439
0.00129731
0.0013163
0.00125953
0.00127839
0.00122204
0.00124075
0.00118492
0.00120344
0.00114819
0.00116651
0.00111187
0.00112998
0.00107599
0.00109388
0.00104054
0.00105822
0.00100506
0.00102271
0.00098723
0.000936626
0.000935117
0.000935875
0.000938568
0.000937655
0.000940038
0.000939354
0.000941054
0.000940609
0.000941563
0.000941372
0.00094157
0.00094163
0.00094107
0.000941382
0.000940111
0.00094064
0.000938696
0.00093946
0.00093788
0.000989256
0.000953709
0.000971697
0.00102503
0.00100709
0.00106033
0.00104264
0.00109609
0.00107815
0.00113228
0.00111413
0.0011689
0.00115054
0.00120593
0.00118737
0.00124334
0.00122459
0.00128109
0.00126218
0.0013191
0.00130007
0.0013573
0.00133819
0.00139557
0.00137644
0.00143379
0.00141471
0.00147181
0.00145285
0.00150945
0.0014907
0.00154653
0.00152809
0.00158286
0.00156482
0.00161822
0.00160069
0.00165241
0.00163549
0.00168522
0.00166902
0.00171645
0.00170106
0.00174591
0.00173143
0.00177343
0.00175994
0.00179886
0.00178644
0.00182208
0.00181078
0.00184298
0.00183285
0.00186152
0.00185257
0.00187767
0.00186993
0.00189093
0.00188473
0.00190124
0.00189666
0.00190808
0.00190446
0.00191846
0.00191467
0.00192994
0.00191956
0.0019126
0.00197192
0.00196623
0.00196529
0.00196629
0.0009342
0.000935998
0.00196761
0.00197078
0.00197262
0.00197777
0.00197638
0.00197748
0.00197602
0.00197248
0.00196637
0.00192909
0.00191402
0.00191067
0.00190673
0.00190244
0.00191954
0.00192555
0.00194555
0.00194593
0.00196084
0.00196034
0.00196023
0.00195201
0.00194083
0.00192857
0.00196667
0.00190878
0.0019153
0.00189661
0.00189065
0.00188622
0.00189499
0.00187412
0.00188052
0.00185878
0.00186685
0.00184143
0.00185045
0.00182098
0.00183154
0.00179862
0.00181002
0.00177443
0.00178681
0.00174803
0.00176151
0.00171962
0.00173408
0.0016894
0.00170473
0.0016576
0.0016737
0.00162442
0.00164118
0.00159003
0.00160737
0.00155463
0.00157245
0.00151841
0.00153662
0.00148155
0.00150005
0.00144423
0.00146294
0.00140661
0.00142545
0.00136886
0.00138775
0.00133109
0.00134997
0.00129344
0.00131225
0.00125599
0.00127469
0.00121881
0.00123737
0.00118197
0.00120035
0.0011455
0.00116369
0.00110942
0.00112741
0.00107376
0.00109154
0.00103851
0.00105608
0.00100367
0.00102104
0.000968689
0.000986006
0.000933208
0.000950932
0.00091759
0.00091546
0.000916562
0.000919538
0.000918477
0.000921363
0.000920507
0.000922795
0.000922134
0.000923763
0.000923339
0.000924253
0.000924067
0.000924265
0.000924319
0.000923799
0.000924091
0.000922875
0.000923391
0.000921533
0.000922243
0.000919903
0.000920686
0.000918551
0.000919096
0.000952734
0.000917958
0.000935434
0.000987945
0.000970445
0.00102321
0.0010056
0.00105832
0.00104071
0.00109388
0.00107605
0.00112984
0.00111181
0.00116621
0.00114798
0.00120298
0.00118455
0.0012401
0.0012215
0.00127752
0.00125878
0.0013152
0.00129634
0.00135302
0.0013341
0.0013909
0.00137197
0.00142869
0.00140982
0.00146625
0.00144752
0.00150342
0.00148491
0.00154
0.0015218
0.0015758
0.00155802
0.00161062
0.00159336
0.00164427
0.00162762
0.00167653
0.0016606
0.00170721
0.0016921
0.00173615
0.00172193
0.00176318
0.00174994
0.00178816
0.00177596
0.00181098
0.00179987
0.00183152
0.00182156
0.00184974
0.00184095
0.00186556
0.00185799
0.00187869
0.00187251
0.00188899
0.00188428
0.00189671
0.00189296
0.00190258
0.00190082
0.0018993
0.00197938
0.00197691
0.00191927
0.00191001
0.00197371
0.00197468
0.00197154
0.00197851
0.0019801
0.000932131
0.000914752
0.000901206
0.000900552
0.00198499
0.00198287
0.00198302
0.00198074
0.00197611
0.00196926
0.00190709
0.00189534
0.00189202
0.00190619
0.00192352
0.00194113
0.00195637
0.00195689
0.00196897
0.00196204
0.00195154
0.00193765
0.00192674
0.00189765
0.00190651
0.00197513
0.00190193
0.00189385
0.00189189
0.00190153
0.00188191
0.00188512
0.0018739
0.00187928
0.00186174
0.00186814
0.00184663
0.00185453
0.00182933
0.0018383
0.0018094
0.00181968
0.00178741
0.00179865
0.00176351
0.00177573
0.00173754
0.00175079
0.00170963
0.00172383
0.00167995
0.00169501
0.0016487
0.00166452
0.00161607
0.00163256
0.00158223
0.0015993
0.00154736
0.00156492
0.00151166
0.00152961
0.0014753
0.00149356
0.00143846
0.00145694
0.0014013
0.00141992
0.00136397
0.00138266
0.00132661
0.0013453
0.00128933
0.00130796
0.00125223
0.00127076
0.00121537
0.00123377
0.00117882
0.00119706
0.00114263
0.00116068
0.00110681
0.00112467
0.00107137
0.00108904
0.00103634
0.00105381
0.00100173
0.00101898
0.000966977
0.000984361
0.000949405
0.000900384
0.000898207
0.000899391
0.000902538
0.000901481
0.000904283
0.000903449
0.000905652
0.000905023
0.000906574
0.00090617
0.000907045
0.000906866
0.000907062
0.00090711
0.000906628
0.000906901
0.000905748
0.000906243
0.000904457
0.000905147
0.000902736
0.000903652
0.000901748
0.000951839
0.000917042
0.000934633
0.000986504
0.000969104
0.00102124
0.00100393
0.00105618
0.00103866
0.00109151
0.0010738
0.00112723
0.00110932
0.00116334
0.00114524
0.00119982
0.00118154
0.00123663
0.00121819
0.00127373
0.00125516
0.00131104
0.00129237
0.00134849
0.00132976
0.00138595
0.00136723
0.0014233
0.00140466
0.0014604
0.0014419
0.00149707
0.00147881
0.00153314
0.00151521
0.00156842
0.0015509
0.0016027
0.00158571
0.0016358
0.00161943
0.00166753
0.00165187
0.00169769
0.00168283
0.00172612
0.00171215
0.00175268
0.00173967
0.00177723
0.00176524
0.00179966
0.00178874
0.00181988
0.00181008
0.00183781
0.00182916
0.00185336
0.00184592
0.00186635
0.00186022
0.00187666
0.00187189
0.00188451
0.0018808
0.00188932
0.00188766
0.00189098
0.00189002
0.00189546
0.00188928
0.00189686
0.00188605
0.00188473
0.00198517
0.00198217
0.00198136
0.00198226
0.000897483
0.000899678
0.00197333
0.00198552
0.00198673
0.001991
0.00198855
0.0019878
0.00198452
0.00197895
0.00197123
0.00189167
0.00187872
0.00187025
0.00187545
0.00186599
0.0018788
0.00188679
0.00190682
0.00191969
0.00193951
0.00195208
0.00196592
0.00197069
0.00196209
0.00194967
0.0019349
0.00192053
0.00190386
0.00188966
0.00198277
0.0018907
0.00188782
0.001887
0.0018745
0.00187657
0.00188739
0.00187002
0.00187293
0.00186138
0.00186635
0.00184917
0.00185561
0.00183433
0.00184208
0.00181718
0.00182606
0.00179763
0.00180771
0.001776
0.00178707
0.00175241
0.00176447
0.00172685
0.00173989
0.00169942
0.00171337
0.00167026
0.00168505
0.00163954
0.00165509
0.00160745
0.00162367
0.00157414
0.00159094
0.00153981
0.00155711
0.00150463
0.00152233
0.00146878
0.00148679
0.00143243
0.00145066
0.00139573
0.00141412
0.00135884
0.00137731
0.00132189
0.00134037
0.001285
0.00130344
0.00124825
0.00126661
0.00121173
0.00122997
0.0011755
0.00119358
0.00113959
0.0011575
0.00110403
0.00112177
0.00106884
0.00108639
0.00103403
0.00105139
0.000999604
0.00101677
0.000965381
0.000982541
0.000931023
0.000948074
0.000896556
0.000913864
0.000881332
0.000879241
0.000880377
0.00088357
0.00088236
0.000885611
0.000884638
0.000887305
0.0008865
0.000888605
0.000888007
0.000889483
0.000889097
0.000889935
0.000889763
0.000889958
0.00089
0.000889552
0.000889808
0.000888723
0.00088919
0.000887476
0.00088815
0.000885885
0.000886713
0.000884089
0.000884922
0.000882647
0.000883316
0.000916044
0.000881942
0.000898922
0.000950417
0.000933205
0.000984823
0.000967555
0.00101917
0.00100196
0.00105389
0.00103648
0.00108898
0.00107139
0.00112445
0.00110668
0.00116029
0.00114233
0.00119647
0.00117835
0.00123296
0.00121469
0.00126972
0.00125132
0.00130666
0.00128818
0.0013437
0.00132518
0.00138074
0.00136224
0.00141765
0.00139923
0.00145427
0.00143601
0.00149045
0.00147244
0.001526
0.00150833
0.00156075
0.0015435
0.00159451
0.00157778
0.00162707
0.00161097
0.00165827
0.00164287
0.00168793
0.00167332
0.00171588
0.00170215
0.00174199
0.0017292
0.00176614
0.00175434
0.00178822
0.00177747
0.00180813
0.00179847
0.00182581
0.00181728
0.00184116
0.00183381
0.00185404
0.00184794
0.00186433
0.00185955
0.00187215
0.00186854
0.00187705
0.00187512
0.00187865
0.00187827
0.00187812
0.00187867
0.0018725
0.00198986
0.00198631
0.00187803
0.00186961
0.00198824
0.001989
0.00197769
0.00199155
0.00199252
0.000895498
0.000878336
0.000865667
0.000864903
0.00199597
0.0019934
0.00199166
0.00198745
0.00198092
0.00197241
0.00187124
0.00186216
0.0018474
0.0018563
0.00188905
0.0019002
0.0019218
0.00192885
0.00195022
0.00196291
0.00197344
0.00196083
0.00194704
0.00193211
0.00191296
0.00190037
0.00188375
0.00185793
0.0018665
0.00198959
0.00186985
0.00185138
0.00187696
0.00187843
0.00187087
0.00186524
0.00186452
0.00187121
0.0018579
0.00186108
0.00184878
0.00185383
0.00183664
0.00184304
0.00182199
0.00182964
0.00180501
0.0018138
0.00178577
0.00179568
0.00176446
0.00177537
0.0017412
0.00175308
0.00171603
0.00172886
0.00168904
0.00170277
0.00166037
0.00167492
0.00163016
0.00164546
0.00159859
0.00161455
0.00156582
0.00158236
0.00153202
0.00154905
0.00149736
0.00151479
0.00146201
0.00147977
0.00142615
0.00144414
0.00138992
0.00140808
0.00135348
0.00137173
0.00131695
0.00133523
0.00128046
0.0012987
0.00124408
0.00126225
0.00120791
0.00122597
0.00117199
0.00118992
0.00113638
0.00115415
0.0011011
0.0011187
0.00106617
0.0010836
0.0010316
0.00104884
0.000997383
0.00101445
0.000963533
0.000980425
0.00092953
0.000946458
0.000912543
0.00086454
0.0008623
0.000863518
0.000866836
0.000865689
0.000868793
0.000867855
0.000870415
0.00086965
0.000871649
0.000871081
0.000872487
0.000872118
0.00087292
0.000872754
0.000872947
0.000872985
0.000872569
0.000872808
0.00087179
0.000872229
0.000870616
0.000871252
0.000869091
0.00086989
0.000867198
0.000868195
0.000866284
0.000915025
0.000881243
0.000898084
0.00094901
0.000931939
0.000982837
0.000965891
0.00101697
0.000999862
0.00105147
0.00103418
0.00108632
0.00106885
0.00112152
0.00110388
0.00115707
0.00113926
0.00119294
0.00117497
0.0012291
0.00121099
0.00126549
0.00124728
0.00130205
0.00128376
0.00133869
0.00132038
0.00137529
0.00135701
0.00141174
0.00139356
0.00144789
0.00142987
0.00148357
0.00146581
0.00151861
0.00150119
0.00155284
0.00153586
0.00158607
0.00156961
0.00161812
0.00160227
0.00164881
0.00163367
0.00167798
0.00166362
0.00170548
0.00169197
0.00173118
0.00171858
0.00175495
0.00174333
0.0017767
0.00176611
0.00179636
0.00178682
0.00181382
0.00180539
0.00182901
0.00182174
0.00184182
0.00183575
0.00185213
0.00184732
0.00185995
0.00185637
0.00186496
0.00186289
0.00186696
0.00186633
0.00186575
0.00186697
0.00186081
0.00186339
0.00185835
0.00185448
0.00184626
0.00183952
0.00184814
0.00199353
0.00198889
0.00199422
0.00199487
0.000861488
0.000864049
0.001981
0.00199659
0.00199744
0.00200002
0.00199735
0.00199464
0.00198944
0.00198199
0.0019724
0.00183496
0.00183542
0.00183041
0.00184788
0.00185965
0.00187508
0.00190207
0.00191162
0.00193233
0.00194342
0.00195919
0.00197149
0.00195844
0.00194365
0.00192711
0.00191111
0.00189299
0.00187352
0.00185436
0.00183153
0.00183934
0.00182762
0.00199552
0.0018567
0.00183094
0.001855
0.00184806
0.00186154
0.00186117
0.00185662
0.0018581
0.00185297
0.00185612
0.00184576
0.00184948
0.00183634
0.00184144
0.00182423
0.00183061
0.00180969
0.00181727
0.00179287
0.00180157
0.00177388
0.00178365
0.00175285
0.00176362
0.0017299
0.00174163
0.0017051
0.00171774
0.00167853
0.00169204
0.00165032
0.00166464
0.00162061
0.00163566
0.00158955
0.00160525
0.00155729
0.00157357
0.00152401
0.00154078
0.00148986
0.00150704
0.00145502
0.00147253
0.00141965
0.0014374
0.0013839
0.00140182
0.00134791
0.00136593
0.00131181
0.00132987
0.00127571
0.00129376
0.00123972
0.0012577
0.0012039
0.00122179
0.00116832
0.00118608
0.00113302
0.00115064
0.00109803
0.00111549
0.00106337
0.00108066
0.00102904
0.00104617
0.000995051
0.00101201
0.000961395
0.000978185
0.000927779
0.000944539
0.000894338
0.000911092
0.000860554
0.000877536
0.000845702
0.000843546
0.000844713
0.000848013
0.000846781
0.000850184
0.000849132
0.000852069
0.000851166
0.000853608
0.000852884
0.000854782
0.000854241
0.00085558
0.000855228
0.000855996