/*--------------------------------*- C++ -*----------------------------------*\
  =========                 |
  \\      /  F ield         | OpenFOAM: The Open Source CFD Toolbox
   \\    /   O peration     | Website:  https://openfoam.org
    \\  /    A nd           | Version:  10
     \\/     M anipulation  |
\*---------------------------------------------------------------------------*/
FoamFile
{
    format      ascii;
    class       volScalarField;
    location    "15";
    object      p;
}
// * * * * * * * * * * * * * * * * * * * * * * * * * * * * * * * * * * * * * //

dimensions      [0 2 -2 0 0 0 0];

internalField   nonuniform List<scalar> 
6397
(
4.75776
4.54667
-3.67835
-3.14116
-3.44749
-4.22375
7.2847
3.95969
-13.9537
-10.288
4.76913
1.00081
-0.224978
-0.160323
-0.220186
-16.1015
-13.8642
-13.6953
12.1897
12.1408
11.3976
-7.30767
-10.1726
-10.4885
-0.111634
-0.0688963
-0.0260234
-1.5714
-1.56002
-2.3584
-2.16659
-0.895466
-1.41421
-2.45729
0.994843
0.74919
0.249457
-0.112074
1.44012
1.52247
1.36373
1.21417
-2.52191
-5.94208
-6.16606
-4.88488
-4.98565
-5.64324
1.6039
1.55598
1.55938
1.4393
1.51056
4.1079
3.52904
3.1766
3.20933
1.69905
-3.64227
-3.1079
-4.05243
-4.25752
-4.06264
-3.6371
-3.09875
-2.57377
-2.17484
-1.93317
-3.72043
-2.55672
-2.95145
-4.4556
-4.97179
-5.15543
-4.90797
-4.33364
-3.59024
-2.87539
-2.31205
-1.92519
-2.28994
-2.10855
-1.86462
-1.72407
-1.77104
-1.79366
-1.96471
-1.67126
-1.39856
-1.62381
-2.24131
-1.76667
-1.14819
-0.996894
-2.72458
-2.00099
-1.08829
-0.498955
-0.736784
-2.25114
-1.59041
-4.03904
-3.08985
-5.53208
-4.92963
-5.36608
-5.67911
-3.75195
-4.65576
-2.18137
-2.87801
-1.37692
-1.68774
-1.18841
-1.22727
-1.24775
-2.11028
-3.33859
-2.59252
-1.77527
-1.84657
-2.09144
-1.86375
-2.74198
-2.40195
-2.99927
-2.9668
-2.66288
-2.90527
-2.01828
-2.32265
-1.72072
-1.79447
-1.95177
-1.78263
-0.89796
-1.58327
-0.319695
-1.39068
-2.36863
-3.71695
-4.33812
-5.00176
-1.59821
-0.552321
-0.61874
-3.19508
-0.0630537
0.154245
-3.55874
-3.40281
-0.714103
-0.328305
-2.00739
-1.2724
-3.97594
-2.93794
-5.61344
-4.95419
-5.38924
-5.76553
-3.5831
-4.59041
-1.82275
-2.61298
-0.905575
-1.26682
-0.568633
-0.69309
-0.525196
-2.10418
-2.75353
-1.48662
-1.69896
-1.50776
-1.43909
-1.82139
-1.66747
-1.93795
-1.96132
-1.70261
-1.88755
-1.44419
-1.55754
-1.61406
-1.46509
-2.3144
-1.90499
-2.75431
-0.794533
-1.57886
0.334162
-0.163065
-6.43543
-5.43519
-2.81259
0.137448
0.139524
-0.685894
-1.78334
-6.95867
-7.65513
-8.44346
-2.63237
-3.81087
0.463017
0.719018
0.852675
-4.53605
-3.96398
-4.15355
0.335682
0.538406
-0.32986
0.0607971
-1.61312
-0.876622
-3.57689
-2.54533
-5.18806
-4.54194
-4.94934
-5.34159
-3.14053
-4.15027
-1.35763
-2.16754
-0.403157
-0.787219
0.00712894
-0.159784
0.0973906
-3.79123
-5.26782
-1.91912
-2.68126
-1.117
-1.42729
-0.911323
-0.967512
-0.98014
-0.932609
-1.01167
-1.01878
-0.895566
-0.960329
-0.949661
-0.880826
-1.46417
-1.143
-2.55906
-1.93977
-3.2753
-0.73911
-1.58209
-0.0648359
0.141449
-6.31363
-3.17523
-9.11967
-8.17023
-0.699717
-1.85139
0.550034
0.936773
-2.66096
-3.83416
-4.42743
-5.22732
1.01017
1.12504
0.147918
0.166639
-0.654612
-4.92636
-4.7458
0.676163
0.866902
0.0683831
0.428444
-1.12079
-0.447736
-2.91008
-1.9662
-4.37608
-3.78724
-4.11697
-4.48862
-2.46076
-3.37725
-0.830273
-1.57339
0.0845142
-0.284371
0.491937
0.329005
0.653078
0.596015
0.714186
0.692419
0.734145
0.727589
-6.85416
-9.15846
-8.41292
-3.53702
-5.08074
-1.57628
-2.38678
-0.68945
-1.0456
-0.348417
-0.472893
-0.25016
-0.285191
-0.202153
-0.222573
-0.200228
-0.184016
-0.469293
-0.287165
-1.22482
-0.777533
-2.62598
-1.84079
-3.52163
-0.687014
-1.592
0.0139071
-8.66172
-8.6999
0.186901
0.714446
-6.69696
-3.31425
1.19754
-4.98676
-4.56659
-5.46958
-7.7927
-1.7685
-7.22788
-7.27974
-0.574925
0.151535
0.646953
-5.70887
-4.97602
1.23125
1.37169
1.32164
0.966954
1.13319
0.428653
0.754782
-0.584127
-0.00326755
-2.07501
-1.28915
-3.29059
-2.80034
-3.05222
-3.37814
-1.66065
-2.43052
-0.280093
-0.913711
0.513147
0.186242
0.876743
0.731807
1.04041
0.971411
1.11704
1.08039
1.12847
1.12423
1.04031
1.10456
-8.23826
-6.37897
-7.78202
-6.0661
-7.5526
-2.93585
-4.3981
-1.10889
-1.87207
-0.23288
-0.59151
0.161885
0.00457058
0.342904
0.266883
0.435947
0.401848
0.385477
0.439618
0.000810698
0.244754
-0.88541
-0.373398
-2.47962
-1.59386
-3.50832
-5.36528
-4.60851
0.516361
0.936614
-5.79006
-6.04068
-4.74117
-5.46322
-2.51734
-3.61028
-0.605124
-1.4922
0.615395
0.0938748
1.23311
0.98584
1.40343
-6.41189
-3.17012
-6.67619
-1.58151
-5.56314
-0.513885
-2.97153
-3.65019
0.0378831
0.798161
0.340509
1.48312
1.50488
-4.76672
1.39632
1.45763
1.1931
1.32512
0.739417
1.01341
-0.0741968
0.390425
-1.2153
-0.620173
-2.09787
-1.74497
-1.91537
-2.15841
-0.858252
-1.44609
0.223111
-0.279379
0.859383
0.592276
1.16225
1.03834
1.29667
1.24202
1.36528
1.33366
1.39246
1.38188
1.32386
1.37691
1.15583
1.2497
-4.94929
-1.99608
-3.42196
-6.57095
-6.15643
-4.70168
-5.98274
-2.12722
-3.33213
-0.579078
-1.23138
0.213711
-0.118707
0.602834
0.443802
0.801939
0.714997
0.91537
0.870383
0.857813
0.917306
0.43801
0.700307
-0.504574
0.0397867
-2.13758
-1.23852
-4.31915
-3.21506
-5.84627
-5.24757
-5.95594
-4.24253
-5.28177
-4.932
-2.28506
-3.28846
-0.521045
-1.34246
0.640118
0.142499
1.23059
0.987953
-1.69207
-0.876341
0.599162
1.03095
1.48613
1.39273
-5.56703
-2.82105
-5.25155
-1.38313
-3.98043
-0.547138
-2.3403
-0.185023
-0.0641148
-0.788522
0.102499
0.847775
0.321538
0.534335
0.490489
0.983007
0.574869
1.14072
0.963076
1.5122
1.44341
1.45902
-4.19108
1.54199
1.54566
1.50002
1.54224
1.33892
1.45014
0.982363
1.19914
0.375888
0.716317
-0.420756
-0.0102027
-1.00369
-0.78035
-0.889147
-1.04933
-0.16315
-0.571003
0.626267
0.252085
1.11556
0.908069
1.34987
1.25225
1.46516
1.41415
1.55069
1.50939
1.62663
1.59975
1.58816
1.62346
1.43816
1.53121
1.31044
-0.986372
-0.106831
-3.19195
-2.07092
-4.44796
-4.10873
-3.16974
-4.07848
-1.25074
-2.14302
-0.0641705
-0.570714
0.595711
0.31052
0.954665
0.805378
1.13664
1.05739
1.24916
1.20172
1.20654
1.25737
0.811277
1.06025
-0.0949253
0.426052
-1.65474
-0.793281
-3.70059
-2.67987
-5.14053
-4.56992
-5.3394
-4.40563
-4.12531
-3.61773
-4.166
-2.0292
-2.85934
-0.490327
-1.22058
0.601027
0.123936
1.18969
0.946164
1.35243
-4.4948
-2.4094
-3.93516
-1.27966
-2.77661
-0.71741
-1.45169
-0.501825
-0.182777
-0.255789
1.27263
0.845969
-0.048499
0.812739
0.230254
1.57684
1.42394
1.70113
0.668924
1.25115
1.158
1.33422
1.38918
1.50493
1.43073
-3.48193
1.57026
1.55034
1.55291
1.57366
1.43172
1.50829
1.16739
1.31558
0.747933
0.972187
0.23149
0.490596
-0.133559
0.00404904
-0.0620246
-0.155062
0.383606
0.129656
0.916599
0.657775
1.2854
1.12726
1.47019
1.39354
1.58219
1.52856
1.69246
1.63937
1.74898
1.73289
1.68946
1.73453
1.55092
1.62352
1.42037
1.48254
1.34062
1.02946
1.35641
-0.0325628
0.565509
-1.42268
-0.726017
-2.35212
-2.03084
-1.67447
-2.2022
-0.41683
-1.01321
0.4098
0.0511521
0.901453
0.681513
1.2068
1.07456
1.36676
1.29759
1.46663
1.42198
1.43913
1.47765
1.10459
1.32062
0.305453
0.769635
-1.06902
-0.306807
-2.82649
-1.93988
-3.98728
-3.55589
-3.97955
-2.57499
-1.75066
-3.33509
-3.10754
-2.93087
-3.26246
-1.78655
-2.40873
-0.52312
-1.13819
0.468369
0.0210029
1.0518
0.809055
1.21886
-3.52823
-2.08593
-2.97262
-1.35055
-1.99788
-1.04169
-0.895786
-0.935225
0.211617
-0.801737
1.04409
-0.551357
1.75858
1.45144
-0.167261
1.10315
0.492165
1.32849
-2.87336
1.49654
1.32783
1.42349
1.56946
1.54303
1.56545
1.57197
1.47687
1.52422
1.28773
1.3834
1.00671
1.15013
0.701976
0.846459
0.522285
0.59166
0.544998
0.510331
0.777421
0.639233
1.11951
0.950225
1.38992
1.27218
1.54239
1.47904
1.64558
1.59713
1.72512
1.6909
1.74953
1.74608
1.72931
1.74105
1.69809
1.71511
1.62357
1.66853
1.53845
1.57309
1.54062
1.53131
1.78298
1.86258
1.85115
1.42454
1.64767
0.788103
1.12737
0.0544602
0.437968
-0.669371
-0.363811
-0.416631
-0.674493
0.300758
-0.0510602
0.823804
0.590392
1.15501
1.00206
1.39041
1.283
1.52415
1.46684
1.60257
1.56685
1.58133
1.60944
1.31898
1.491
0.663743
1.04968
-0.462481
0.163816
-1.8494
-1.15724
-2.77594
-2.42623
-2.44102
-2.78904
-1.92793
-1.62088
-0.350044
-1.007
-2.30876
-2.04939
-2.26724
-2.39272
-1.54331
-1.96153
-0.600181
-1.0741
0.242168
-0.153117
0.83544
0.575557
1.16134
1.02666
1.19704
1.26385
1.81253
1.82485
1.13966
1.58371
-2.86553
-1.97648
-0.513244
-2.40097
-1.60388
1.32494
1.11196
1.22798
-1.56045
-1.55695
-0.568993
-1.59316
0.440331
-1.57679
1.09556
-1.22419
1.37021
-0.608699
1.74272
1.66584
0.348354
1.31045
1.7046
-2.51122
1.46728
1.39825
1.5392
1.50976
1.53703
1.53706
1.47436
1.50791
1.35526
1.41969
1.18758
1.27759
1.01321
1.09759
0.926807
0.960961
0.940048
0.924858
1.03724
0.975929
1.24678
1.13526
1.45009
1.35908
1.58624
1.52601
1.69258
1.64198
1.78204
1.74112
1.833
1.81262
1.82767
1.83749
1.76569
1.79947
1.69735
1.7265
1.68475
1.67946
1.7509
1.7105
1.9265
1.82061
1.94501
1.8243
1.90289
1.92523
1.95464
1.73133
1.84999
1.42037
1.57223
1.07337
1.27993
0.497674
0.767286
0.503087
0.41486
0.868781
0.678051
1.17711
1.03545
1.37569
1.28366
1.5293
1.45621
1.62922
1.58698
1.67907
1.65964
1.65984
1.68419
1.46352
1.59303
0.961271
1.25936
0.0961806
0.576294
-0.930285
-0.427787
-1.54746
-1.34901
-1.32549
-1.47262
-0.960388
0.193952
0.619272
-0.702988
-0.263539
-1.41887
-1.10393
-1.63819
-1.60702
-1.32277
-1.52899
-0.736869
-1.05077
-0.0830391
-0.406831
0.508077
0.226908
0.922839
0.742157
1.05422
1.60515
1.70429
1.9187
2.06147
-2.54536
-2.10815
1.29834
1.26053
-2.14662
-2.07956
-1.37022
-2.33269
-0.416431
-2.60143
0.517267
-2.57871
1.05439
-2.0856
1.36233
-1.00351
1.53525
0.407689
1.55613
1.43208
1.61827
1.63406
1.50616
1.39091
1.23615
2.18607
2.18999
-2.43959
1.41951
1.36509
1.49165
1.45221
1.5097
1.49649
1.48009
1.49273
1.40937
1.44789
1.30112
1.35949
1.19435
1.2447
1.15635
1.16007
1.16967
1.16086
1.21014
1.18277
1.33437
1.26324
1.48357
1.41392
1.60036
1.54622
1.69795
1.65193
1.77146
1.73754
1.80887
1.79362
1.81656
1.81486
1.8192
1.81662
1.80196
1.81393
1.79138
1.79118
1.83259
1.80172
1.9695
1.88961
2.13881
2.06347
1.86387
1.75683
1.98271
1.94056
2.00382
2.00434
1.94494
1.9857
1.86288
1.89783
1.68082
1.81249
1.25966
1.46211
1.13302
1.15164
1.24198
1.17197
1.40568
1.32109
1.54418
1.47942
1.64565
1.59874
1.70948
1.6838
1.73125
1.72636
1.69914
1.73064
1.55102
1.64773
1.18627
1.40561
0.559179
0.907374
-0.169566
0.188573
-0.603579
-0.45344
-0.424968
-0.592628
0.178299
-0.131839
0.480401
0.716966
1.00811
0.026875
0.395267
-0.673403
-0.350855
-1.09768
-0.92329
-1.19028
-1.18512
-0.968292
-1.11584
-0.51404
-0.762699
0.065422
-0.232342
0.610268
0.356961
0.995882
0.837755
1.17538
1.08052
-2.52471
-2.48104
2.1774
2.29182
1.21352
1.07688
1.08871
2.05631
2.06572
-2.14504
-2.86939
-1.37309
-3.4794
-0.402228
-3.9654
0.492508
-3.79403
1.00912
-2.88516
1.25657
-1.0625
1.35168
0.829677
1.37227
1.46397
1.34228
1.2186
1.25017
2.01651
1.21738
0.949714
1.06614
0.910484
-2.63706
1.29425
1.24732
1.37924
1.33018
1.44745
1.4155
1.4782
1.46483
1.46583
1.47482
1.4202
1.44635
1.35931
1.39133
1.30848
1.33337
1.29482
1.29489
1.30592
1.30045
1.32781
1.31346
1.40323
1.35816
1.51009
1.45648
1.60993
1.56158
1.70066
1.65663
1.77358
1.74169
1.81746
1.79868
1.82808
1.8268
1.81964
1.82398
1.81671
1.81543
1.84855
1.82904
1.89314
1.86877
1.97245
1.92749
2.02094
1.6886
1.57859
1.89017
1.79446
2.01136
1.9629
2.06146
2.04379
2.08527
2.07462
2.11003
2.10012
1.99976
2.0876
1.70005
1.85121
1.52692
1.58987
1.5131
1.50591
1.56868
1.53587
1.64228
1.60516
1.70855
1.67714
1.7508
1.73411
1.75998
1.76049
1.71607
1.76698
1.59624
1.67143
1.33781
1.49324
0.902914
1.14267
0.404002
0.647259
0.118925
0.217627
0.257206
0.133977
0.658445
0.433423
0.86055
1.44982
1.50831
1.1326
1.32711
0.595408
0.891837
-0.0539029
0.272171
-0.714378
-0.392284
-1.17491
-0.978627
-1.31007
-1.28937
-1.07469
-1.2368
-0.49838
-0.825251
0.229068
-0.12752
0.81314
0.557271
0.919854
2.38923
0.912885
2.16527
2.03617
-2.76607
-3.15438
-2.36863
-4.05741
-1.53638
-5.03628
2.32093
-0.469429
-5.5315
0.448196
-4.86411
0.917147
-3.01918
1.22677
1.36239
1.27889
1.11925
1.05377
-0.462133
1.06002
1.11941
1.57432
1.02568
1.06582
2.40153
0.782964
1.542
1.60099
2.09819
1.96639
1.57799
-3.11714
1.12746
0.906392
1.0313
1.2572
1.19785
1.33564
1.29741
1.39804
1.37367
1.43249
1.41993
1.44063
1.43898
1.42698
1.4351
1.39873
1.41367
1.37357
1.38508
1.37199
1.3692
1.3867
1.37985
1.40438
1.39349
1.45333
1.42326
1.53048
1.48939
1.6141
1.5726
1.6918
1.65428
1.75592
1.7246
1.80029
1.78066
1.82295
1.81384
1.83523
1.83004
1.8349
1.83584
1.85194
1.83891
1.89874
1.8728
1.95496
1.92767
1.98593
1.97604
1.93312
1.97309
1.85022
1.76672
1.86677
1.55425
1.45526
1.74178
1.65086
1.91077
1.82895
2.03021
1.97905
2.09871
2.06832
2.15758
2.12776
2.21052
2.18845
2.1423
2.20057
1.92821
2.04094
1.75405
1.82872
1.69006
1.70979
1.69637
1.68897
1.7212
1.70888
1.74541
1.73327
1.76124
1.7546
1.74842
1.75991
1.70333
1.71229
1.61116
1.66836
1.42452
1.53183
1.12608
1.28817
0.795483
0.95727
0.621658
0.683943
0.699765
0.639444
0.949854
0.81711
1.21952
1.08501
1.33761
1.64166
1.64899
1.46522
1.58755
1.04919
1.28897
0.3779
0.745224
-0.469014
-0.0422778
-1.24479
-0.875841
-1.73303
-1.54215
-1.72292
-1.79623
-1.16551
-1.50761
-0.285686
-0.731897
0.483951
0.130753
0.736365
0.674901
0.756611
-3.27773
-4.21762
1.63759
1.71291
1.61138
-2.79257
-5.6233
2.48272
-1.78384
-6.78977
-0.529239
-6.80861
2.26722
1.21212
1.36721
1.34168
1.17022
0.41876
-4.90161
1.02484
0.700555
-2.0955
1.68761
1.96618
0.907633
0.801011
0.743683
0.830891
0.872375
2.30997
0.870152
0.918254
0.803802
0.828516
0.689285
1.47678
1.54749
0.728048
-3.9352
1.0782
1.00336
1.20765
1.14645
1.29727
1.25577
1.36092
1.33435
1.4004
1.38506
1.41618
1.41114
1.41405
1.41631
1.40627
1.40924
1.40564
1.4047
1.41481
1.41006
1.43001
1.42256
1.44762
1.43756
1.48549
1.46291
1.54501
1.51293
1.61541
1.57964
1.68345
1.65058
1.74063
1.71337
1.78191
1.76358
1.8059
1.79556
1.82221
1.81452
1.83808
1.8294
1.85799
1.8482
1.88221
1.86806
1.91956
1.9017
1.92419
1.92926
1.85947
1.90158
1.79728
1.47965
1.41448
1.62868
1.55183
1.78137
1.70631
1.92463
1.8544
2.03742
1.9863
2.11405
2.07814
2.1814
2.14732
2.23361
2.21256
2.18803
2.22759
2.03493
2.11728
1.88809
1.9586
1.79725
1.83538
1.76448
1.77546
1.76687
1.7639
1.77608
1.77223
1.77414
1.77624
1.74798
1.76292
1.69816
1.71848
1.61091
1.65799
1.46245
1.54265
1.24912
1.36204
1.03696
1.1367
0.933828
0.966328
0.975442
0.934265
1.11767
1.0428
1.28217
1.20839
1.38806
1.70089
1.56775
1.62573
1.77967
1.76383
1.68483
1.75619
1.37453
1.56752
0.687
1.08012
-0.28804
0.222115
-1.36073
-0.828132
-2.1987
-1.83561
-2.42224
-2.40502
-1.86455
-2.23465
-0.834038
-1.36428
0.0621563
-0.346733
0.453668
0.329998
0.570566
1.49237
1.50388
-4.04208
-5.63887
2.64649
-3.30599
-7.30662
1.33098
1.4831
1.48769
1.32721
-1.9373
-8.09943
2.47081
1.1461
-0.526703
-7.02383
0.956298
0.308514
-3.72448
1.49141
2.11973
0.783383
0.398411
-0.283923
1.76107
0.66125
0.559769
2.02332
0.642902
0.5921
0.754548
1.53444
1.33951
1.39687
-5.07177
0.916004
0.772578
0.840921
1.04554
0.983577
1.16092
1.10562
1.25361
1.21075
1.31908
1.28982
1.36332
1.34464
1.38994
1.37917
1.4034
1.39793
1.40909
1.40588
1.41824
1.41153
1.43102
1.42302
1.45079
1.4408
1.47168
1.46089
1.50455
1.48578
1.55331
1.52713
1.61228
1.58188
1.67179
1.64287
1.72315
1.6987
1.76287
1.74486
1.78927
1.77737
1.80714
1.79911
1.8226
1.81404
1.84535
1.83353
1.86534
1.856
1.88119
1.87412
1.8702
1.88182
1.80478
1.84362
1.68163
1.75074
1.52318
1.60176
1.28864
1.3755
1.44798
1.49671
1.48349
1.57549
1.52861
1.69055
1.63005
1.81464
1.75311
1.93538
1.87588
2.03772
1.98937
2.11291
2.07792
2.17719
2.1457
2.22009
2.20324
2.1894
2.21659
2.0739
2.13791
1.9447
2.00306
1.85853
1.89496
1.81925
1.83535
1.80003
1.80911
1.78621
1.79372
1.7694
1.77928
1.73669
1.7552
1.68294
1.7115
1.59995
1.64606
1.47523
1.54244
1.3163
1.39647
1.17487
1.23335
1.10458
1.11729
1.12407
1.09098
1.22241
1.15812
1.31037
1.26438
1.43018
1.38766
1.48925
1.77554
1.6855
1.87953
1.83851
1.88547
1.90266
1.62217
1.80337
0.924101
1.32498
-0.161658
0.426621
-1.49005
-0.816093
-2.63804
-2.12013
-3.08381
-2.97654
-2.55481
-2.93543
-1.40181
-2.00367
-0.390509
-0.851255
0.214544
-0.0333425
0.596269
0.420891
0.691795
0.660638
2.78685
-4.87978
-7.11697
0.710268
1.64221
1.49206
1.32668
-3.67587
-8.49036
1.29933
1.18494
2.72422
1.12989
-1.92393
-8.12276
1.18304
0.91198
-0.511232
-5.42291
1.27549
2.34294
0.69582
0.0341047
-1.58718
1.4983
0.511147
0.13236
1.56709
1.86844
0.38227
0.286966
2.90803
0.247496
1.22362
1.30993
1.23211
1.51023
1.5735
-6.26236
0.775537
0.676084
0.726165
0.899904
0.836003
1.01929
0.962849
1.12441
1.07461
1.21424
1.17194
1.28231
1.2515
1.33017
1.30886
1.36187
1.34766
1.38288
1.37305
1.3996
1.39065
1.41544
1.40712
1.43676
1.42631
1.45788
1.44722
1.48132
1.4693
1.51332
1.49602
1.5562
1.53353
1.60674
1.58081
1.65858
1.63314
1.70418
1.6825
1.74129
1.7241
1.76826
1.75582
1.78815
1.77886
1.80496
1.79639
1.82293
1.81384
1.83942
1.83163
1.84642
1.84494
1.82599
1.84126
1.76401
1.80013
1.66396
1.71859
1.54481
1.60356
1.43581
1.48903
1.38106
1.62953
1.70031
1.64589
1.61096
1.6212
1.60506
1.60202
1.65536
1.62197
1.74278
1.69644
1.84088
1.79034
1.9436
1.8927
2.03196
1.98964
2.10114
2.06847
2.15844
2.13084
2.19244
2.1805
2.1644
2.18749
2.07623
2.12459
1.97835
2.02787
1.89702
1.93477
1.84326
1.86702
1.81194
1.82606
1.7894
1.80071
1.76412
1.77779
1.7261
1.74695
1.67001
1.70036
1.58995
1.63353
1.48186
1.53954
1.35631
1.41966
1.24858
1.29639
1.19202
1.21054
1.19392
1.18624
1.22806
1.21289
1.3252
1.28241
1.40698
1.36301
1.49439
1.4505
1.83
1.73948
1.95908
1.89678
2.01014
2.00574
1.78294
1.94455
1.1101
1.50721
-0.0757482
0.577351
-1.59838
-0.817418
-2.98875
-2.34833
-3.60192
-3.43054
-3.09304
-3.47702
-1.86652
-2.51836
-0.705553
-1.24639
0.0946948
-0.246678
0.512216
0.343189
0.636118
0.592735
0.65871
1.34313
-5.43593
-8.09664
1.17147
1.15607
1.18293
1.41754
0.629855
1.11212
3.0022
1.12452
-3.63927
-8.42983
1.04731
0.886245
-1.74356
-6.56253
1.0632
2.65121
0.632908
-0.608604
-3.24209
1.21095
0.37583
-0.344603
0.41475
2.06364
1.5328
0.111774
-0.134548
2.84578
-0.107956
-0.0830096
1.81828
1.54069
1.40533
-7.03886
0.769789
0.721205
0.883913
0.827161
0.995348
0.942056
1.0939
1.04677
1.17912
1.13836
1.24778
1.21561
1.29924
1.27509
1.33682
1.31901
1.36419
1.35108
1.38631
1.37519
1.40802
1.39666
1.43314
1.42028
1.45829
1.44601
1.4839
1.47111
1.51481
1.4987
1.55349
1.53329
1.59851
1.57553
1.64434
1.62169
1.68523
1.66562
1.71925
1.70321
1.74588
1.73343
1.76608
1.75659
1.78312
1.77463
1.79932
1.79141
1.81049
1.80588
1.81149
1.81263
1.78997
1.80475
1.7339
1.76609
1.65456
1.69622
1.56628
1.61088
1.47536
1.52229
1.35545
1.41881
1.08713
1.09684
1.25516
1.29121
1.73891
1.81793
1.75956
1.71709
1.72968
1.69523
1.70307
1.72329
1.70156
1.7857
1.75281
1.86332
1.82243
1.94864
1.90629
2.02379
1.98724
2.08529
2.05622
2.13272
2.11074
2.15534
2.14851
2.13231
2.15003
2.06507
2.103
1.98056
2.02086
1.9059
1.94137
1.85446
1.87783
1.81916
1.83592
1.78882
1.80362
1.75596
1.77242
1.71375
1.73575
1.65639
1.68708
1.58131
1.62153
1.48784
1.53639
1.38547
1.43552
1.2977
1.33706
1.2464
1.26784
1.23648
1.2414
1.26156
1.25105
1.32166
1.29081
1.3841
1.34634
1.4399
1.40944
1.64482
1.51424
1.83242
1.74698
2.00557
1.91354
2.11519
2.08492
1.90848
2.06389
1.21934
1.63167
-0.0229223
0.66045
-1.63772
-0.806516
-3.15901
-2.44795
-3.89763
-3.66847
-3.43299
-3.80817
-2.12388
-2.83937
-0.79967
-1.42271
0.089201
-0.278317
0.474217
0.331544
0.591815
0.544615
0.619437
1.08932
3.39532
1.13339
-5.39322
-7.99669
0.633494
1.92354
0.969521
0.876114
-3.22073
-6.98191
0.577138
1.10935
1.25688
0.887664
1.87513
1.75889
3.07169
0.571705
-1.62414
-4.45935
0.932144
0.252424
-0.847925
-1.41141
2.38362
1.1609
-0.108722
-0.782429
1.82448
1.6416
-0.431596
-0.52099
3.6094
0.970031
0.957064
-0.504067
0.95459
1.33731
1.18595
-6.93301
0.761544
0.701862
0.869788
0.817043
0.972523
0.921638
1.06639
1.02053
1.14814
1.10848
1.21593
1.18366
1.2695
1.24407
1.31104
1.29115
1.34386
1.32802
1.37193
1.35822
1.39833
1.38529
1.42526
1.41181
1.45232
1.43902
1.48033
1.46627
1.51185
1.49584
1.54772
1.52934
1.58773
1.56739
1.62834
1.6082
1.66578
1.64773
1.69704
1.68223
1.7225
1.71045
1.74249
1.73311
1.75854
1.75075
1.77311
1.76597
1.78206
1.77884
1.77912
1.78213
1.75893
1.77205
1.71115
1.73828
1.64898
1.68043
1.58728
1.61846
1.50575
1.55002
1.40837
1.45685
1.3413
1.36472
2.05804
1.98009
2.12749
1.91701
2.01005
1.83191
1.85923
1.80254
1.81728
1.77033
1.78367
1.78069
1.76926
1.82385
1.80017
1.8828
1.85144
1.9516
1.91661
2.01522
1.98531
2.06513
2.04168
2.10272
2.0856
2.11888
2.11452
2.09828
2.11357
2.04182
2.07359
1.97217
2.00659
1.90853
1.93942
1.85744
1.88165
1.81733
1.83636
1.78216
1.79907
1.74516
1.76341
1.70072
1.72351
1.64425
1.67401
1.57403
1.61095
1.49137
1.53382
1.40443
1.44722
1.32969
1.3649
1.28192
1.3042
1.26586
1.27362
1.27794
1.27084
1.31236
1.29132
1.35139
1.32783
1.37515
1.36625
1.34245
1.36112
1.59163
1.3784
1.46638
1.81521
1.70614
2.03538
1.92857
2.12913
2.11019
1.93125
2.07699
1.25703
1.66413
0.0233288
0.703487
-1.58468
-0.757455
-3.1053
-2.39487
-3.84989
-3.6145
-3.41994
-3.77905
-2.05559
-2.83804
-0.711284
-1.33801
0.135972
-0.200968
0.47313
0.348997
0.560671
0.524681
0.58409
0.580978
0.58029
0.957352
0.877633
-4.72342
-6.78087
0.630189
1.35049
1.3161
0.789487
0.771025
0.782434
2.08565
1.99328
3.67808
0.52109
-2.75819
-5.06751
0.700422
0.139772
-1.67562
-2.75818
2.89886
0.774299
0.793636
-0.259399
-1.26331
-0.084877
1.14669
-0.689747
-1.29498
2.91196
1.86409
-0.957684
-1.09864
1.15634
1.07837
1.57936
1.36109
1.00406
0.918426
-5.98662
0.745303
0.686918
0.85307
0.802172
0.949554
0.902012
1.03996
0.995913
1.11975
1.08116
1.18727
1.15488
1.24251
1.21612
1.28709
1.26559
1.32357
1.30588
1.35535
1.33977
1.38559
1.37008
1.4154
1.40066
1.44444
1.4302
1.47328
1.4589
1.50451
1.48872
1.53887
1.52144
1.57556
1.55713
1.61177
1.59392
1.64563
1.62923
1.67462
1.66076
1.69858
1.6872
1.71786
1.70876
1.73316
1.72583
1.74614
1.73996
1.75304
1.75073
1.7497
1.75271
1.732
1.74321
1.69361
1.71517
1.64574
1.66956
1.59816
1.62294
1.53291
1.56886
1.4597
1.494
1.42128
1.43319
1.38042
1.45542
1.42899
1.28702
2.21401
2.15859
2.18576
2.30244
2.26178
2.00227
2.08417
1.91114
1.9449
1.87076
1.88991
1.83324
1.85032
1.82923
1.8258
1.85694
1.84092
1.89864
1.87597
1.95285
1.92478
2.00357
1.97971
2.04338
2.0245
2.07333
2.06007
2.08243
2.0813
2.06229
2.07592
2.01678
2.04229
1.95868
1.98844
1.90103
1.9295
1.8517
1.87511
1.81089
1.83026
1.77314
1.7914
1.73348
1.7532
1.68774
1.71145
1.63267
1.66164
1.5671
1.60104
1.49295
1.53039
1.41696
1.45447
1.35085
1.38292
1.30469
1.32694
1.28251
1.2926
1.28174
1.27987
1.29709
1.28603
1.31297
1.30469
1.31629
1.31995
1.28153
1.30284
1.25036
1.35582
1.21483
1.28978
1.53719
1.43448
1.78252
1.65788
2.00663
1.9026
2.10041
2.07659
1.91035
2.05493
1.23958
1.64126
0.0645783
0.708308
-1.43233
-0.665103
-2.83176
-2.17952
-3.50667
-3.29763
-3.05925
-3.42009
-1.80845
-2.49182
-0.554177
-1.13889
0.168259
-0.0911233
0.476099
0.362649
0.534355
0.512217
0.536616
0.539433
0.531126
0.53252
0.772279
1.87251
1.08642
1.50584
1.70741
4.04519
0.769539
0.516113
-3.87619
-5.2153
0.561418
0.0720935
-2.57513
-3.58973
1.42571
1.49475
3.60477
0.828649
1.22634
1.09037
2.23763
2.33873
1.16712
1.14652
1.10027
0.531262
0.494088
0.490971
0.479477
-0.373723
-1.91001
-1.57648
0.534098
0.531618
0.649075
-0.86405
-1.83932
1.06665
2.2846
1.19421
0.73089
1.25707
-1.41657
-1.9781
4.03476
-1.91423
0.588737
-4.78802
0.624923
0.575823
0.730044
0.6768
0.834434
0.783863
0.928337
0.882394
1.01551
0.972906
1.09367
1.05575
1.16094
1.12854
1.21745
1.1904
1.2646
1.24186
1.30443
1.28509
1.33946
1.32224
1.37209
1.35627
1.40342
1.38788
1.43417
1.41898
1.46454
1.44948
1.49542
1.48
1.52783
1.5115
1.56173
1.54474
1.59505
1.57869
1.62563
1.61076
1.65228
1.63945
1.67471
1.66401
1.69297
1.68435
1.70759
1.70057
1.71969
1.71409
1.725
1.72338
1.72261
1.72476
1.70841
1.71748
1.67917
1.69528
1.64468
1.66177
1.60744
1.6275
1.55634
1.5829
1.50935
1.53128
1.48811
1.49309
1.51913
1.49648
1.33783
2.29412
2.16473
2.23303
2.37418
2.34059
2.42433
2.40105
2.07344
2.14734
1.98005
2.01807
1.92799
1.95216
1.88471
1.90463
1.87032
1.87291
1.88426
1.87514
1.91203
1.89646
1.95164
1.93086
1.99126
1.9723
2.0225
2.00796
2.04349
2.03459
2.04757
2.04815
2.0288
2.04102
1.99034
2.01173
1.93959
1.96571
1.88826
1.9136
1.84233
1.86441
1.80151
1.82115
1.76217
1.78141
1.72114
1.74183
1.67503
1.69894
1.62153
1.64949
1.56011
1.5916
1.49266
1.52659
1.42436
1.45824
1.36387
1.39346
1.31835
1.34012
1.29075
1.30297
1.27884
1.28269
1.27742
1.27661
1.27722
1.27784
1.26631
1.27419
1.22409
1.24949
1.18767
1.32643
1.24762
1.50748
1.4114
1.74047
1.61996
1.94376
1.85456
1.98559
1.99019
1.76334
1.91546
1.13467
1.50622
0.0818537
0.654006
-1.20729
-0.552656
-2.35541
-1.82869
-2.86812
-2.71923
-2.45749
-2.77526
-1.40083
-1.96931
-0.366862
-0.845211
0.238156
0.00110354
0.478529
0.382264
0.512912
0.502215
0.497622
0.504683
0.494559
0.527285
2.07366
0.344457
0.0613791
-3.33522
-4.03675
1.55344
3.88818
0.934546
2.44481
1.08843
1.04263
0.525839
0.482098
0.270569
-0.461763
-2.75185
-2.6419
0.5466
0.211709
-1.02681
-2.43354
-0.62804
0.212993
0.225938
2.87833
0.50647
0.245823
0.894513
-1.83841
-2.57597
2.07019
1.37007
-2.78083
-2.91259
1.95219
1.79996
0.140479
-3.90566
0.617817
0.571063
0.716797
0.66685
0.815806
0.766652
0.90794
0.862748
0.99293
0.951386
1.06969
1.03237
1.13686
1.10445
1.19436
1.16673
1.24345
1.21979
1.28576
1.26521
1.32343
1.30494
1.35825
1.34113
1.3912
1.3749
1.42282
1.40721
1.4538
1.4384
1.48473
1.46934
1.51582
1.50031
1.54709
1.53149
1.57751
1.56285
1.60529
1.59175
1.6299
1.61799
1.65087
1.64086
1.66795
1.65986
1.68208
1.67524
1.69364
1.68837
1.69879
1.69709
1.69801
1.69909
1.6878
1.6945
1.66675
1.67813
1.64329
1.65495
1.61549
1.63075
1.57932
1.59742
1.5517
1.56391
1.54377
1.54401
1.57441
1.55401
1.59763
1.64537
1.6061
1.48163
1.54392
1.30577
1.40324
5.22843
1.06546
1.19445
2.48925
2.44069
2.4633
2.52428
2.50897
2.54144
2.53796
2.46643
2.56472
2.55328
2.28343
2.37196
2.13432
2.20346
2.03792
2.07966
1.97571
2.00487
1.92752
1.94945
1.90466
1.91239
1.90675
1.9035
1.92242
1.91315
1.94917
1.93467
1.97873
1.9645
2.00099
1.99093
2.01479
2.00904
2.01545
2.01729
1.99685
2.00848
1.96292
1.98149
1.91924
1.9419
1.87328
1.89612
1.83001
1.85102
1.7897
1.80938
1.75006
1.76972
1.70854
1.72971
1.66286
1.68646
1.611
1.63775
1.55292
1.58245
1.49035
1.52187
1.4277
1.45894
1.37128
1.39892
1.32566
1.3474
1.29276
1.30776
1.27118
1.28051
1.25704
1.26345
1.24318
1.25126
1.22133
1.2341
1.16976
1.19946
1.13132
1.11042
0.98903
1.04647
1.28388
1.19162
1.47843
1.38073
1.67173
1.57691
1.80374
1.75315
1.79129
1.81775
1.54813
1.70802
0.959634
1.29899
0.0604015
0.539124
-0.959051
-0.449357
-1.80341
-1.42577
-2.1105
-2.04378
-1.71072
-1.99086
-0.874828
-1.31664
-0.100752
-0.453231
0.334839
0.16745
0.48536
0.425333
0.496519
0.495865
0.471563
0.481626
0.462301
0.466448
0.439867
0.452819
0.198735
2.41052
-0.23377
-0.529945
-3.33176
-3.38373
0.614753
-0.103276
-1.23128
-3.32911
-2.09069
0.25348
1.64811
1.69014
2.48878
2.57882
2.78903
0.922845
0.933923
0.869001
0.426785
0.401086
0.385187
-0.101757
1.60433
-2.15452
-3.44197
-0.211064
-0.215768
-0.182479
0.385214
1.53992
-3.39808
-3.80253
2.40701
-0.442683
0.416972
-3.94371
0.914986
1.21188
1.09854
2.36324
2.31009
-0.481251
-3.54964
0.745499
0.516041
0.470996
0.608125
0.561877
0.702931
0.655163
0.798022
0.750967
0.888392
0.843865
0.97195
0.931096
1.04767
1.01079
1.11482
1.08229
1.17326
1.14508
1.22389
1.19943
1.26816
1.24667
1.30781
1.2884
1.34429
1.32636
1.37861
1.36165
1.4112
1.39513
1.44238
1.42696
1.47279
1.45768
1.50262
1.48781
1.53176
1.51733
1.55965
1.54564
1.58496
1.57268
1.60752
1.59655
1.6271
1.61771
1.64305
1.63549
1.6567
1.65002
1.66792
1.66283
1.67385
1.67151
1.67536
1.67517
1.66962
1.67365
1.65632
1.6635
1.64148
1.64899
1.62254
1.63287
1.60083
1.61129
1.58728
1.59259
1.59174
1.58637
1.62448
1.60369
1.68811
1.65274
1.54529
1.60025
1.39982
1.47832
1.31114
2.69232
2.72502
2.70834
2.66995
2.6787
2.66452
2.66573
2.65847
2.66254
2.66283
2.65958
2.32429
2.40278
2.18715
2.252
2.08669
2.13233
2.01597
2.0488
1.96347
1.98748
1.93311
1.9452
1.92496
1.92691
1.93009
1.9262
1.94568
1.93679
1.96519
1.9557
1.97987
1.9733
1.98793
1.98484
1.98499
1.98822
1.96679
1.97769
1.93648
1.95302
1.89805
1.91802
1.85637
1.8772
1.81581
1.8357
1.77672
1.79604
1.73743
1.75716
1.6961
1.71724
1.65091
1.67411
1.60077
1.62646
1.54536
1.57342
1.48685
1.51633
1.42842
1.45762
1.3744
1.40092
1.32784
1.35013
1.29034
1.30795
1.2611
1.27483
1.23697
1.24879
1.21211
1.22529
1.17714
1.19658
1.12047
1.15319
1.03816
1.08146
0.98999
1.05093
0.98665
1.21727
1.12641
1.40894
1.31581
1.55599
1.4908
1.60871
1.5985
1.50767
1.58324
1.17898
1.36951
0.661663
0.94457
-0.024751
0.331449
-0.713946
-0.38048
-1.20124
-0.9965
-1.29281
-1.30448
-0.931572
-1.16269
-0.316511
-0.635002
0.208002
-0.0244745
0.47134
0.377511
0.523414
0.509726
0.499954
0.512094
0.463135
0.47947
0.434996
0.44922
0.41808
-0.231392
2.75984
-1.12494
-1.35445
-3.9984
-3.30355
0.338153
0.97021
0.730032
1.72837
2.66779
5.21609
0.884943
0.822987
0.413237
0.370157
-0.584977
2.2454
-2.2977
-4.59417
-2.42341
-0.13906
-0.51098
1.55374
-3.5672
-5.38819
-0.728817
1.27486
0.10763
-4.96868
-5.93743
0.828923
-0.783012
3.0464
3.14656
-0.841041
1.21277
1.14112
-1.35497
-3.93144
0.503588
0.504292
0.458912
0.595537
0.549701
0.688752
0.642052
0.781367
0.735314
0.869983
0.826267
0.952452
0.912072
1.02747
0.990877
1.09457
1.06195
1.15378
1.12512
1.20576
1.1806
1.25169
1.2294
1.29296
1.2728
1.33079
1.31223
1.36606
1.34869
1.39922
1.38287
1.43062
1.41513
1.46046
1.44572
1.48891
1.47485
1.51612
1.50267
1.54171
1.52911
1.56483
1.55361
1.58535
1.57539
1.60327
1.59463
1.61836
1.61112
1.63172
1.62515
1.6428
1.63772
1.64994
1.64675
1.654
1.65242
1.65289
1.65414
1.64728
1.65041
1.63986
1.64382
1.62918
1.63491
1.6197
1.62378
1.61835
1.61763
1.63287
1.62323
1.66723
1.64713
1.72628
1.69388
1.77194
1.80362
1.76339
1.70334
1.73921
1.61686
1.66301
1.5043
1.56429
1.36914
1.43844
1.29176
2.91842
2.97316
2.83813
2.87354
2.79375
2.8124
2.76713
2.77931
2.75576
2.75984
2.67335
2.75391
2.75301
2.51034
2.59234
2.35883
2.43186
2.23112
2.29156
2.12796