/*--------------------------------*- C++ -*----------------------------------*\
  =========                 |
  \\      /  F ield         | OpenFOAM: The Open Source CFD Toolbox
   \\    /   O peration     | Website:  https://openfoam.org
    \\  /    A nd           | Version:  10
     \\/     M anipulation  |
\*---------------------------------------------------------------------------*/
FoamFile
{
    format      ascii;
    class       volVectorField;
    location    "15";
    object      U;
}
// * * * * * * * * * * * * * * * * * * * * * * * * * * * * * * * * * * * * * //

dimensions      [0 1 -1 0 0 0 0];

internalField   nonuniform List<vector> 
6397
(
(4.34579 -0.890147 1.85878e-19)
(4.05923 -0.625968 -8.88635e-19)
(5.53338 0.555605 0)
(5.36142 1.05016 4.4823e-20)
(4.66809 1.56634 -7.65998e-20)
(4.85682 1.13235 -1.82819e-19)
(3.2245 -2.44532 -6.71977e-19)
(1.6056 -3.53736 1.61382e-18)
(0.343762 -3.1318 5.67261e-19)
(0.793555 -2.78742 -1.48891e-19)
(2.3463 2.82726 9.90928e-19)
(3.42185 3.43062 -4.15489e-20)
(3.70158 0.111122 -3.45841e-20)
(3.685 0.101495 -1.43693e-20)
(2.55367 0.114025 2.73902e-20)
(1.40442 0.732619 -3.80537e-18)
(2.56993 -1.30045 -1.62741e-18)
(0.0442455 -0.778614 1.73846e-18)
(1.01277 -0.0960108 8.1611e-19)
(2.13419 -0.622682 -2.54359e-18)
(1.5857 -0.2502 -1.31683e-18)
(-2.01948 -0.457052 -1.42877e-18)
(-1.98474 -0.0243398 1.03047e-19)
(1.27284 -0.91852 -1.36852e-18)
(4.05288 0.142507 0)
(4.31876 0.0853108 2.41539e-21)
(4.43081 0.140417 -9.50051e-22)
(2.66574 -2.22488 1.51553e-19)
(2.77516 -2.45836 -4.23e-20)
(2.51112 -1.99592 1.0631e-19)
(2.63288 -2.32721 -1.55123e-19)
(5.217 1.44257 -2.44629e-20)
(5.43501 1.19787 -9.88841e-20)
(5.1204 1.40991 4.30472e-19)
(4.85169 0.909482 3.57012e-20)
(5.05992 0.871556 0)
(5.07082 1.17015 1.44938e-21)
(5.35225 1.12971 2.52659e-20)
(4.57424 0.436975 7.98729e-20)
(4.50311 0.409841 -4.4432e-20)
(4.61061 0.624408 0)
(4.81543 0.612488 0)
(2.40882 -1.56149 -7.36397e-20)
(3.75443 0.475289 -2.83852e-19)
(3.87267 -0.212813 3.08555e-19)
(5.04989 0.581653 -5.34019e-19)
(4.25301 1.15729 -2.67084e-19)
(4.43257 0.550327 8.24654e-19)
(4.23668 0.16375 8.80594e-20)
(4.31557 0.116937 -1.35053e-20)
(4.31811 0.0384627 1.52993e-19)
(4.37222 0.0005927 -5.73692e-20)
(4.30388 0.0432562 -4.17707e-19)
(4.2758 0.962183 -1.00551e-19)
(3.70961 0.52928 6.48039e-20)
(4.03872 0.0467032 7.08165e-20)
(4.05507 0.0624832 6.80708e-20)
(4.49434 0.0167976 -1.04322e-19)
(2.84658 -1.56076 -1.58772e-19)
(2.89788 -2.12086 1.58235e-19)
(2.83119 -0.784944 1.86438e-19)
(2.8412 0.105798 -1.83957e-19)
(2.90718 0.986902 -1.7582e-19)
(3.0092 1.74093 1.72812e-19)
(3.14667 2.30195 0)
(3.27158 2.63784 1.05489e-19)
(3.39577 2.77397 -1.10163e-19)
(3.46177 2.78325 0)
(3.1245 -2.1591 -1.49164e-19)
(2.93901 -2.46728 1.29543e-21)
(3.1396 -2.5089 1.43021e-19)
(3.12272 -1.54341 0)
(3.13189 -0.700302 0)
(3.18044 0.251091 0)
(3.25309 1.16939 -9.17775e-22)
(3.3392 1.95142 8.76336e-23)
(3.43592 2.50678 0)
(3.52427 2.81476 -1.57732e-23)
(3.58763 2.89697 0)
(3.60339 2.83249 0)
(3.12074 -2.63405 -9.9211e-20)
(2.95588 -2.62536 7.00983e-21)
(3.48713 2.73048 0)
(3.55579 2.70504 0)
(3.08227 -2.63752 2.06865e-20)
(2.92829 -2.64553 0)
(3.41298 2.67782 0)
(3.432 2.57121 0)
(2.98539 -2.52726 1.34778e-19)
(2.85197 -2.5883 -1.99895e-20)
(3.26711 2.62575 0)
(3.24371 2.42736 0)
(2.90381 -2.36474 -9.36774e-20)
(2.76838 -2.09533 -3.50424e-20)
(3.04551 2.49546 0)
(2.99354 2.23102 9.32984e-21)
(3.17974 -2.41027 0)
(2.943 -1.9411 4.69863e-20)
(3.06863 -2.21995 3.81242e-21)
(3.3706 -2.58014 -1.18924e-19)
(3.29386 -2.54844 0)
(3.46845 -2.06891 -9.53898e-20)
(3.42969 -2.44411 1.18498e-19)
(3.58112 -0.551041 1.27506e-19)
(3.52418 -1.42454 7.20404e-20)
(3.70199 1.35004 9.19386e-22)
(3.63621 0.421891 -1.34675e-19)
(3.7871 2.62219 2.01631e-20)
(3.7415 2.11271 -1.07671e-19)
(3.79114 2.89405 -5.18848e-20)
(3.78942 2.86643 1.23828e-19)
(3.63445 2.60223 0)
(3.72777 2.78445 0)
(3.28602 2.20612 0)
(3.48892 2.40884 0)
(3.02447 1.98512 -1.45743e-20)
(3.44113 2.72207 -1.06209e-19)
(3.19891 2.69055 -8.79289e-20)
(3.35867 2.74951 1.04554e-19)
(3.39992 2.68889 8.24398e-20)
(3.46193 2.70054 -8.0594e-20)
(3.13179 2.4661 8.21456e-22)
(3.29997 2.63081 2.80758e-21)
(2.81445 1.52097 0)
(2.96938 2.08849 0)
(2.6658 -0.0516668 1.31553e-19)
(2.71427 0.765931 1.37764e-20)
(2.71105 -1.54963 2.11135e-20)
(2.67228 -0.861789 -1.31131e-19)
(2.84231 -2.40161 4.89587e-20)
(2.78176 -2.06808 -7.50501e-21)
(2.88455 -2.65331 -8.22266e-20)
(2.87829 -2.57263 -4.37998e-20)
(2.73917 -2.52265 0)
(2.8301 -2.61212 9.01288e-20)
(2.71721 -1.76267 -4.97294e-20)
(2.56345 -1.89205 1.29778e-21)
(2.86847 -1.62968 2.15567e-21)
(2.74255 1.64483 -2.83363e-20)
(2.72069 1.91181 6.63498e-21)
(3.45562 2.82368 -1.33269e-21)
(3.01692 2.39825 8.81493e-20)
(3.3562 2.56426 0)
(2.49637 1.1235 1.74278e-20)
(2.8147 1.34118 -1.36407e-20)
(2.5921 0.876827 1.35623e-20)
(2.63211 -2.06798 6.84541e-20)
(3.12559 -1.79454 -1.38718e-20)
(3.02548 -1.48724 -2.06665e-21)
(2.545 -1.60614 7.23408e-20)
(2.80886 2.18283 3.83125e-21)
(3.38994 -2.25951 0)
(3.26664 -2.05669 -1.56362e-21)
(3.66608 -2.45293 2.1477e-21)
(3.54733 -2.40905 0)
(3.90429 -1.95574 -1.9702e-20)
(3.79854 -2.33917 4.70047e-20)
(4.12341 -0.437107 0)
(4.02908 -1.30329 1.61923e-20)
(4.23339 1.39174 0)
(4.20524 0.493083 8.22662e-21)
(4.18713 2.61269 0)
(4.22978 2.12548 1.32669e-20)
(4.03849 2.81902 -1.24471e-21)
(4.10903 2.82781 6.16538e-21)
(3.77606 2.4416 1.5489e-21)
(3.89437 2.67095 -3.56285e-21)
(3.34568 1.94921 5.00907e-23)
(3.5687 2.19501 -4.57366e-22)
(3.06411 1.68608 5.13765e-21)
(3.52816 2.7433 1.44002e-21)
(3.52022 2.84236 1.8815e-21)
(3.36289 2.57723 -7.24912e-23)
(3.47282 2.65397 0)
(3.05611 2.25038 0)
(3.23178 2.46331 -8.38669e-22)
(2.72069 1.35567 0)
(2.88738 1.8973 0)
(2.57917 -0.081567 -6.55241e-23)
(2.6365 0.673299 -1.39757e-20)
(2.651 -1.44304 -1.23087e-20)
(2.60836 -0.808035 0)
(2.83635 -2.29486 -3.28201e-20)
(2.75159 -1.94375 0)
(2.93487 -2.62776 2.43428e-21)
(2.90437 -2.51947 3.29038e-20)
(2.84167 -2.5978 1.115e-22)
(2.92137 -2.66133 1.05687e-20)
(2.73918 -2.38361 -5.8582e-20)
(2.56786 -1.37707 1.05695e-20)
(2.44412 -1.47946 0)
(2.88229 -1.13983 -5.07008e-21)
(2.71041 -1.25155 -7.02008e-22)
(3.24227 1.93296 0)
(2.83154 1.77398 0)
(2.47802 1.3531 -1.73193e-20)
(2.94753 1.13341 -4.68566e-22)
(2.76843 0.731894 0)
(2.47336 0.275782 -3.58931e-21)
(2.33733 0.426705 -1.0436e-23)
(3.77783 2.03221 0)
(3.13915 0.927093 0)
(3.75313 0.985583 -2.00702e-19)
(2.32586 -1.03486 5.23524e-20)
(2.48187 -1.02952 0)
(2.80749 -0.734018 1.17421e-20)
(3.06126 -1.05098 1.60799e-22)
(2.96895 -0.668647 -6.27746e-20)
(2.87968 -1.63152 0)
(2.94675 -2.13126 -7.47057e-20)
(2.57919 1.59314 0)
(3.29734 -1.64895 -1.23599e-21)
(3.17735 -1.3682 0)
(3.61789 -2.08441 2.41723e-23)
(3.45234 -1.88538 4.24838e-21)
(3.9809 -2.29758 -5.18682e-21)
(3.79714 -2.25023 0)
(4.38066 -1.8124 1.44349e-22)
(4.18273 -2.18679 -7.9319e-21)
(4.67476 -0.32949 -2.13117e-22)
(4.55078 -1.18476 -1.37349e-20)
(4.76793 1.44722 2.5929e-20)
(4.768 0.586826 0)
(4.59784 2.55969 0)
(4.73662 2.12646 -2.64304e-20)
(4.26677 2.67624 -2.26578e-21)
(4.45873 2.7282 1.73685e-21)
(3.86428 2.23387 0)
(4.06224 2.49376 -1.85111e-22)
(3.38828 1.71 1.82235e-22)
(3.60892 1.96861 2.25009e-22)
(3.13657 1.44498 -6.8369e-22)
(3.78056 2.84785 -1.69075e-20)
(3.79459 2.63519 1.14752e-22)
(3.65849 2.6697 -5.48212e-21)
(3.73425 2.8106 2.47952e-20)
(3.40494 2.43646 1.34406e-21)
(3.54827 2.54149 -7.24557e-21)
(3.06923 2.09127 0)
(3.24169 2.31731 6.89185e-21)
(2.74186 1.22989 0)
(2.89445 1.73961 0)
(2.6064 -0.081661 9.02563e-23)
(2.64373 0.606606 0)
(2.70677 -1.35995 0)
(2.63594 -0.755384 0)
(2.92544 -2.22017 0)
(2.81071 -1.8484 0)
(3.07468 -2.62638 1.93777e-20)
(3.00905 -2.46556 0)
(3.0581 -2.65375 -1.10467e-22)
(3.07243 -2.69293 -1.98168e-20)
(3.00131 -2.4765 8.89223e-20)
(2.49008 -0.902714 1.33781e-20)
(2.35909 -0.967137 -4.90022e-20)
(2.63936 -0.813313 6.45833e-21)
(2.66068 0.206795 -3.3487e-21)
(2.68245 0.804328 0)
(2.31632 0.55638 2.11475e-20)
(3.75762 -0.363492 2.15904e-19)
(3.10063 -0.356965 0)
(2.43549 -0.422983 3.75266e-21)
(2.29347 -0.382535 1.7508e-20)
(2.78943 -0.290947 5.04374e-21)
(2.98409 -0.268362 4.67965e-21)
(2.31577 -0.421287 4.70554e-20)
(2.44373 -0.389164 8.86243e-20)
(3.39222 -2.15611 8.61296e-20)
(3.36784 -1.64327 0)
(3.24935 -0.958961 -6.53084e-21)
(3.14797 -0.605046 -2.5391e-20)
(2.61208 -0.41543 3.35862e-21)
(2.675 -1.04013 -7.15859e-22)
(2.50664 -1.15954 -1.37014e-20)
(2.8349 -1.02239 -1.80732e-20)
(2.41925 0.704066 0)
(3.49712 -1.49256 -5.49136e-21)
(3.32416 -1.23604 2.34176e-20)
(3.85332 -1.8807 1.41742e-21)
(3.62372 -1.70566 -4.55137e-21)
(4.31205 -2.05357 0)
(4.04212 -2.01668 0)
(4.81934 -1.58051 -3.31482e-23)
(4.53969 -1.93317 -6.80469e-27)
(5.18595 -0.218502 2.1122e-22)
(5.01837 -0.994543 0)
(5.23852 1.40914 0)
(5.25659 0.628704 -1.1017e-26)
(4.94512 2.38391 0)
(5.14669 2.01324 0)
(4.45675 2.43816 0)
(4.74233 2.50838 0)
(3.95473 1.99655 0)
(4.21609 2.24479 0)
(3.517 1.4972 0)
(3.72825 1.74284 0)
(3.12776 0.939442 1.88379e-21)
(3.30515 1.23628 0)
(2.82913 0.0665108 0)
(2.94885 0.550635 6.2364e-22)
(2.87643 -1.0012 0)
(2.8003 -0.48727 5.31354e-21)
(4.40112 2.10293 -4.33552e-20)
(4.5041 -0.346954 -6.42505e-20)
(4.46535 1.06157 4.35354e-20)
(4.19186 2.80673 6.08258e-21)
(4.30851 2.65203 -1.1471e-22)
(3.89825 2.57148 -2.45628e-21)
(4.05138 2.73464 -8.81812e-21)
(3.53878 2.27996 -1.91834e-23)
(3.7277 2.40898 0)
(3.15147 1.92415 0)
(3.33674 2.13857 0)
(2.84499 1.10948 0)
(2.98254 1.57963 0)
(2.72472 -0.0952062 -3.13648e-23)
(2.74928 0.535725 0)
(2.84727 -1.28625 0)
(2.75361 -0.717299 0)
(3.08982 -2.13448 0)
(2.94993 -1.75995 0)
(3.29091 -2.59926 5.59239e-21)
(3.19119 -2.40705 -5.81856e-21)
(3.36903 -2.69002 1.81672e-20)
(3.32967 -2.69748 -1.24747e-21)
(3.36712 -2.50517 -1.15698e-19)
(2.42725 -0.355681 -1.07914e-20)
(2.31929 -0.382362 -4.98302e-20)
(2.59642 -0.322784 0)
(3.77698 -1.7311 0)
(4.50623 -1.7811 5.70178e-20)
(2.83849 -1.55281 -3.99581e-21)
(3.06407 -1.41847 0)
(2.63733 -0.389745 0)
(2.25579 -0.393216 0)
(3.17855 -0.255861 0)
(2.74406 -0.346436 -2.48435e-19)
(3.93135 -2.10819 7.58397e-20)
(3.94016 -1.5761 0)
(3.1416 -1.66675 1.02719e-20)
(2.36513 -1.21159 -2.11527e-20)
(4.4625 -2.87637 2.66424e-20)
(3.80114 -2.81738 -1.01134e-20)
(2.67238 -1.80157 1.4531e-20)
(3.12719 -1.88938 1.76443e-21)
(3.30357 -1.69682 0)
(3.35561 -1.00669 2.65661e-19)
(2.3576 -0.377005 0)
(3.41802 -0.8572 2.78405e-20)
(3.3427 -0.236038 2.79582e-20)
(3.33275 -0.54193 7.75434e-20)
(3.66991 -1.33357 8.19163e-21)
(3.4837 -1.10178 -2.59219e-20)
(4.06989 -1.68018 0)
(3.81343 -1.50613 -5.01409e-21)
(4.59625 -1.81065 7.75728e-28)
(4.27766 -1.78214 -8.06667e-28)
(5.17132 -1.36507 -3.7408e-23)
(4.85543 -1.67572 0)
(5.59223 -0.10508 0)
(5.38954 -0.806645 0)
(5.61072 1.35322 -1.09741e-22)
(5.64227 0.667621 1.10168e-26)
(5.22617 2.17732 5.53817e-27)
(5.45901 1.87863 -5.74932e-27)
(4.65147 2.17449 0)
(4.96492 2.25989 0)
(4.1057 1.76327 -3.03546e-23)
(4.39414 1.99151 0)
(3.64703 1.28787 4.51175e-23)
(3.89017 1.52751 0)
(3.24177 0.762561 1.22363e-21)
(3.44672 1.03988 0)
(2.98721 0.0297773 -1.29659e-20)
(3.08622 0.426389 -2.58796e-21)
(3.04854 -0.792057 -1.30609e-20)
(2.98083 -0.400363 7.58781e-21)
(3.37023 -1.39238 -2.29516e-20)
(3.1909 -1.13303 1.30353e-20)
(5.22485 -0.352472 4.56097e-20)
(5.0692 -2.82939 -6.51047e-21)
(5.1869 -1.75597 -5.0742e-20)
(5.00909 1.98162 5.74282e-20)
(5.15439 0.998522 -3.87296e-20)
(4.58126 2.61975 -1.11942e-20)
(4.80704 2.48554 -1.35591e-20)
(4.12263 2.35786 0)
(4.34457 2.53137 1.43545e-20)
(3.67692 2.06435 -2.04116e-23)
(3.89721 2.19126 -1.16888e-27)
(3.25772 1.74952 0)
(3.44898 1.94035 0)
(2.97998 1.00903 2.48104e-23)
(3.08847 1.43635 0)
(2.89525 -0.0954522 5.06555e-24)
(2.89948 0.483221 0)
(3.03366 -1.20332 0)
(2.92855 -0.670228 0)
(3.29547 -2.0245 0)
(3.14573 -1.65329 0)
(3.54702 -2.52481 0)
(3.42143 -2.30995 0)
(3.75162 -2.64543 0)
(3.64513 -2.65495 7.25573e-22)
(3.82412 -2.46973 -4.80693e-20)
(4.37281 -3.48725 -3.64425e-20)
(4.89894 -3.38317 0)
(3.54125 -1.8973 -3.86926e-21)
(3.58474 -1.61431 2.75999e-20)
(3.23266 -0.292287 0)
(3.99016 -0.903412 -7.21267e-20)
(2.67104 0.372029 -9.74428e-20)
(3.1404 0.419983 1.2643e-19)
(2.27272 0.27122 2.72259e-20)
(2.38439 0.316564 1.03212e-20)
(2.41527 0.214885 2.30163e-21)
(2.29685 0.236487 -2.3293e-20)
(2.79582 0.172541 1.51076e-20)
(2.59763 0.191489 1.86866e-21)
(3.15694 0.133649 0)
(2.97744 0.155583 -2.42138e-20)
(3.35257 0.107253 -4.60487e-20)
(2.68857 -1.58963 -1.03553e-20)
(2.32358 -1.35952 -1.38504e-26)
(3.23683 -2.73911 1.01527e-20)
(2.54337 -1.94703 0)
(3.80678 -3.46313 0)
(2.95247 -2.23013 0)
(4.66452 -3.4879 3.31705e-21)
(4.23137 -3.66328 3.23542e-22)
(3.4228 -2.09926 1.84002e-21)
(3.82392 -1.79463 -3.38224e-21)
(3.75912 -2.03076 -1.91487e-21)
(3.46949 -0.205941 -3.60294e-20)
(3.54019 0.0639782 3.74246e-20)
(2.42227 -1.45863 -2.50865e-26)
(3.55979 -0.739197 2.47201e-22)
(3.5121 -0.509327 1.76908e-20)
(3.83856 -1.14243 5.58529e-21)
(3.67308 -0.970724 0)
(4.26164 -1.42898 -2.36502e-27)
(4.01285 -1.2996 -6.4371e-21)
(4.81128 -1.51483 0)
(4.49508 -1.49139 0)
(5.40503 -1.11516 -7.26252e-23)
(5.08338 -1.37191 0)
(5.82126 -0.00396621 0)
(5.62341 -0.606008 0)
(5.83942 1.23974 1.71697e-22)
(5.86533 0.683612 0)
(5.42595 1.89631 2.25736e-23)
(5.66514 1.67271 0)
(4.81249 1.85938 0)
(5.12462 1.95428 0)
(4.2393 1.48537 -1.33228e-23)
(4.52987 1.69067 0)
(3.75845 1.04959 1.04668e-23)
(4.01006 1.27083 0)
(3.37709 0.581538 -6.11168e-23)
(3.5743 0.827496 3.55363e-27)
(3.16067 -0.0620142 -9.62e-24)
(3.25847 0.285237 0)
(3.19579 -0.811764 1.118e-21)
(3.15391 -0.449724 -8.08832e-21)
(3.50404 -1.34029 1.43025e-20)
(3.3275 -1.12719 2.48608e-20)
(3.94666 -1.53735 -2.81157e-20)
(3.72039 -1.47574 -6.0704e-21)
(5.55447 -2.6639 8.2276e-21)
(4.96125 -3.20779 -3.61836e-21)
(5.2784 -3.153 0)
(5.81007 -0.367519 -5.50286e-21)
(5.7406 -1.67364 1.12773e-20)
(5.48497 1.82077 -3.79454e-21)
(5.71207 0.900045 -9.02954e-22)
(4.88021 2.37005 3.66611e-23)
(5.19112 2.27619 -1.40831e-21)
(4.32768 2.12871 0)
(4.58236 2.28488 0)
(3.86378 1.83845 4.15382e-25)
(4.09026 1.96856 2.39684e-28)
(3.40515 1.57333 -2.7574e-27)
(3.61694 1.72655 2.91917e-27)
(3.12667 0.928493 1.72016e-23)
(3.22454 1.30919 0)
(3.07675 -0.0683638 0)
(3.06475 0.451479 0)
(3.23264 -1.09129 -4.47171e-23)
(3.12755 -0.595401 0)
(3.52445 -1.89087 0)
(3.3706 -1.52274 0)
(3.84899 -2.41272 1.29732e-23)
(3.68534 -2.17982 0)
(4.1662 -2.5796 -1.69823e-22)
(3.9904 -2.5547 5.14911e-22)
(4.48656 -2.02832 -8.43358e-20)
(4.2915 -2.40151 0)
(4.62668 -0.806226 -4.82368e-19)
(4.54549 -1.49141 3.2762e-19)
(4.55404 -0.111481 -8.08286e-21)
(2.63594 1.05864 0)
(3.61124 1.11353 -1.26147e-19)
(3.04143 1.11797 -2.37746e-21)
(2.28891 0.923438 0)
(2.3936 1.00223 0)
(2.43389 0.773379 -2.20289e-21)
(2.30906 0.839323 -2.61314e-27)
(2.85567 0.63103 -5.23242e-21)
(2.62405 0.703992 -4.50758e-22)
(3.27047 0.488 0)
(3.08337 0.558164 1.82843e-20)
(4.38854 -3.31996 -4.61778e-23)
(4.63977 -3.00898 7.17727e-22)
(4.11406 -1.96351 1.23422e-20)
(4.20692 -1.57187 4.19199e-20)
(3.55008 0.390287 3.74848e-20)
(3.41728 0.434039 -1.95434e-20)
(2.82189 -2.58289 -3.64998e-25)
(2.50331 -2.18707 0)
(3.34753 -3.41366 0)
(2.79152 -2.4738 -1.96482e-25)
(3.77877 -3.69188 -6.06216e-23)
(3.28955 -2.43297 -3.73769e-21)
(4.06984 -3.52891 7.55794e-23)
(3.7275 -2.2725 0)
(4.32462 -2.69909 -2.45654e-21)
(4.09425 -3.01583 1.22476e-23)
(3.97743 -2.1795 6.03952e-21)
(4.47675 -1.61942 -4.49881e-20)
(4.44995 -2.03776 -9.36715e-21)
(4.52759 -2.36605 1.36909e-21)
(4.03449 -2.35847 2.51764e-21)
(4.159 -1.98754 1.33663e-20)
(4.76985 -1.74243 -1.16278e-20)
(4.42536 -1.41824 6.63953e-20)
(4.66122 -1.48176 9.04775e-21)
(3.68347 0.325283 1.92238e-20)
(3.72076 0.640072 0)
(3.85229 0.527343 -2.25332e-20)
(2.58973 -2.37441 -1.7891e-26)
(3.60642 -0.194 9.42666e-21)
(3.66578 0.0326076 3.98355e-20)
(3.70892 -0.638217 -1.6976e-20)
(3.65227 -0.443461 -9.31984e-21)
(3.99987 -0.972612 0)
(3.84207 -0.819501 0)
(4.42194 -1.20954 0)
(4.19501 -1.09184 0)
(4.94022 -1.25483 0)
(4.66045 -1.23566 0)
(5.49126 -0.866987 0)
(5.20293 -1.09274 0)
(5.87305 0.0979306 4.7974e-27)
(5.7064 -0.408315 -4.98505e-27)
(5.85836 1.13624 -6.19506e-23)
(5.90515 0.691234 -5.43785e-27)
(5.46726 1.61135 -2.25735e-23)
(5.69587 1.47094 0)
(4.86988 1.54531 0)
(5.17342 1.64054 0)
(4.29817 1.22318 -9.42178e-24)
(4.58021 1.39748 0)
(3.81547 0.845649 6.81244e-24)
(4.05951 1.03174 0)
(3.43627 0.439415 6.11173e-23)
(3.63136 0.641905 0)
(3.22063 -0.0655971 1.36333e-22)
(3.31955 0.19216 4.40939e-27)
(3.2838 -0.572824 8.14699e-21)
(3.23034 -0.341631 0)
(3.57095 -0.928746 -9.12779e-21)
(3.42138 -0.778947 -1.04938e-20)
(3.97548 -1.17193 3.47867e-20)
(3.76794 -1.05909 -2.14883e-20)
(4.21636 -1.30079 -5.89759e-20)
(5.22465 -2.89908 -3.23533e-21)
(4.87456 -2.68439 -4.21227e-23)
(5.85995 -2.48851 -5.06523e-23)
(5.56299 -2.89915 -1.00292e-21)
(6.15681 -0.386563 -2.30754e-20)
(6.07047 -1.58673 2.48234e-20)
(5.79862 1.55417 -5.25651e-23)
(6.0715 0.758483 9.17056e-22)
(5.10381 2.04134 -3.66159e-23)
(5.45629 1.94291 -1.91546e-26)
(4.52984 1.87476 0)
(4.79881 1.99009 0)
(4.06592 1.60084 4.75398e-27)
(4.30072 1.73414 -5.03176e-27)
(3.5778 1.36682 0)
(3.82284 1.48793 0)
(3.2652 0.855695 1.22406e-23)
(3.38516 1.1669 0)
(3.24414 -0.0312449 0)
(3.22792 0.436547 0)
(3.42963 -0.964552 4.47174e-23)
(3.32611 -0.510775 0)
(3.75857 -1.7213 0)
(3.59397 -1.37301 0)
(4.15066 -2.23558 -1.75383e-23)
(3.94836 -2.01344 1.94008e-27)
(4.5709 -2.40921 1.65045e-22)
(4.33303 -2.39176 0)
(4.96527 -1.92167 0)
(4.75099 -2.2824 1.30269e-23)
(5.16892 -0.745146 1.28338e-19)
(5.10489 -1.42304 1.87009e-22)
(5.18468 -0.0489816 1.33592e-19)
(3.57423 1.65202 -1.92606e-19)
(4.12757 1.67781 1.09356e-19)
(2.71217 1.65424 0)
(3.0912 1.70636 0)
(2.37953 1.46339 -2.68387e-24)
(2.47441 1.56319 -6.85552e-27)
(2.51841 1.2578 -7.10767e-25)
(2.39922 1.35509 -2.40447e-27)
(2.90666 1.07664 1.13791e-21)
(2.69587 1.17153 2.02991e-27)
(3.33738 0.868132 1.36755e-20)
(3.12375 0.975054 -6.98107e-21)
(3.54286 0.7516 -1.11066e-21)
(3.00395 -3.21666 9.01739e-25)
(2.7542 -2.7653 -6.76752e-26)
(3.44056 -3.67339 0)
(3.10813 -2.73637 2.38668e-25)
(3.71286 -3.60698 6.41736e-23)
(3.62785 -2.53243 3.74442e-21)
(3.8879 -3.24131 -1.59073e-22)
(3.99434 -2.45239 2.88946e-22)
(3.79925 -2.67611 -8.82465e-24)
(4.24698 -2.33606 0)
(3.73001 -1.55963 -1.54178e-20)
(3.71441 -1.9889 0)
(4.81509 -2.08512 -1.62916e-21)
(4.93408 -1.46055 3.51602e-20)
(5.10282 -1.8367 9.5432e-21)
(3.53653 -1.09017 -3.72808e-22)
(3.29011 -1.06036 -3.37583e-20)
(3.19671 -0.648647 -3.24735e-22)
(5.27633 -1.39306 -7.74775e-21)
(5.0262 -1.09888 6.07577e-20)
(5.24179 -1.01171 4.94253e-20)
(3.77517 0.967611 0)
(3.89743 0.845396 -6.98837e-20)
(3.74301 0.337693 3.7001e-20)
(3.97979 0.369399 -3.87928e-20)
(2.81933 -3.01047 1.14173e-25)
(3.67904 -0.0845975 -1.86089e-20)
(3.81415 -0.0830292 -1.91537e-20)
(3.82705 -0.46676 2.25715e-21)
(3.8225 -0.470287 -9.31936e-21)
(4.13363 -0.76431 -3.21016e-23)
(4.01609 -0.733506 3.29822e-26)
(4.52209 -0.97502 0)
(4.33618 -0.904904 0)
(4.97535 -0.996348 0)
(4.73866 -0.981095 0)
(5.46534 -0.642539 2.06041e-23)
(5.21788 -0.826074 0)
(5.80501 0.17455 0)
(5.6767 -0.234658 0)
(5.74283 1.02353 0)
(5.8284 0.672326 0)
(5.36046 1.37033 0)
(5.58608 1.29243 0)
(4.80971 1.25881 0)
(5.1016 1.37117 0)
(4.25456 0.954549 5.30992e-23)
(4.53343 1.1208 0)
(3.79602 0.622592 4.24363e-24)
(4.0207 0.782319 1.60326e-26)
(3.50381 0.286479 0)
(3.64275 0.44112 0)
(3.43955 -0.114409 3.8608e-24)
(3.45981 0.0780458 -4.40949e-27)
(3.62102 -0.599627 7.4729e-23)
(3.52266 -0.371891 1.9503e-26)
(3.94352 -0.994739 9.48255e-21)
(3.78599 -0.841132 9.56384e-24)
(4.28041 -1.13479 -4.66938e-21)
(4.13413 -1.09612 -4.99457e-21)
(4.58474 -1.19253 -2.70757e-20)
(4.43046 -1.17296 1.89302e-20)
(4.80199 -1.16104 -6.75586e-20)
(4.42171 -1.93288 1.12904e-21)
(3.96623 -1.52459 -2.79602e-22)
(5.28954 -2.51829 9.06369e-23)
(4.86869 -2.2769 0)
(5.93022 -2.2224 5.01157e-23)
(5.64466 -2.55395 1.01584e-21)
(6.26678 -0.368321 0)
(6.1584 -1.42507 0)
(5.91739 1.29622 2.98638e-23)
(6.19483 0.61948 0)
(5.18903 1.75397 0)
(5.56516 1.64271 0)
(4.57416 1.6607 0)
(4.86729 1.73999 0)
(4.14444 1.39159 -4.45866e-23)
(4.35733 1.53485 0)
(3.72215 1.15584 0)
(3.94894 1.2669 0)
(3.39857 0.777195 -5.42526e-23)
(3.53685 1.01122 0)
(3.38576 0.0300925 -6.65006e-23)
(3.36046 0.440337 0)
(3.61494 -0.821047 -6.54289e-23)
(3.48133 -0.399783 4.32315e-27)
(3.98691 -1.53362 -5.2459e-23)
(3.78038 -1.19925 -2.72396e-26)
(4.42874 -2.02234 -1.64249e-23)
(4.17478 -1.81056 0)
(4.91367 -2.18908 0)
(4.62894 -2.16879 0)
(5.375 -1.762 0)
(5.13293 -2.07679 -1.3049e-23)
(5.62547 -0.702102 -9.20588e-20)
(5.54943 -1.29963 -1.83629e-22)
(5.66232 -0.0329397 7.81591e-20)
(4.498 1.86524 0)
(4.92038 1.68642 -1.41803e-19)
(3.4939 2.04852 9.53061e-20)
(3.9928 2.02789 2.08855e-20)
(2.77455 2.05316 7.31363e-24)
(3.08592 2.0878 1.73496e-26)
(2.50275 1.87264 5.02704e-24)
(2.57914 1.96979 1.17645e-26)
(2.63101 1.66192 -4.59015e-27)
(2.52173 1.76808 4.66732e-27)
(3.02756 1.46468 1.8815e-21)
(2.80705 1.56576 -1.37018e-27)
(3.46822 1.21171 -1.36199e-20)
(3.26116 1.34359 -1.91736e-21)
(3.63058 1.08197 -1.6224e-20)
(3.18318 -3.51271 0)
(3.03728 -3.04869 2.51795e-26)
(3.49906 -3.63518 0)
(3.45044 -2.82525 -1.05903e-24)
(3.61384 -3.36995 -6.73787e-23)
(3.89119 -2.67541 -8.8527e-24)
(3.66357 -2.93918 1.07671e-22)
(4.25651 -2.65933 4.54729e-23)
(3.49296 -2.32056 -5.2713e-24)
(4.6315 -2.47682 1.10282e-22)
(3.3546 -1.51174 0)
(5.15837 -2.15235 1.05062e-20)
(3.02984 -0.266689 -4.20826e-20)
(2.91037 -0.481472 6.69996e-20)
(5.49654 -1.82299 1.83711e-22)
(5.44684 -0.921609 -5.31104e-20)
(5.64626 -1.27273 -2.70104e-20)
(3.99579 0.715821 1.88638e-21)
(3.05932 -3.31624 -1.91836e-25)
(3.92957 0.221359 -3.93256e-20)
(4.18256 0.623449 2.21281e-19)
(3.92579 0.343278 -1.38414e-19)
(3.87861 -0.143944 4.65329e-21)
(3.80079 0.00368178 3.65373e-20)
(4.01098 -0.437419 -2.25436e-21)
(3.87131 -0.27584 4.5254e-21)
(4.2464 -0.67144 -8.49971e-21)
(4.08602 -0.487463 7.57334e-21)
(4.54998 -0.829752 -5.83258e-23)
(4.37151 -0.674726 2.99562e-26)
(4.93826 -0.801928 -4.83926e-23)
(4.73471 -0.768464 -2.41967e-26)
(5.33813 -0.447284 1.72549e-23)
(5.15709 -0.619175 0)
(5.58295 0.240309 0)
(5.51172 -0.0996949 0)
(5.51934 0.8962 -3.28069e-23)
(5.61117 0.621059 0)
(5.16153 1.12134 1.52592e-26)
(5.38523 1.08025 -1.58411e-26)
(4.64552 0.968215 2.23089e-26)
(4.92507 1.07882 -2.31505e-26)
(4.14083 0.694482 -2.87235e-26)
(4.39331 0.830274 2.97975e-26)
(3.776 0.452524 -1.3589e-22)
(3.94331 0.555157 3.3835e-26)
(3.60032 0.247115 7.38339e-23)
(3.67251 0.332162 3.63181e-26)
(3.56146 -0.0195748 1.98282e-24)
(3.57309 0.108873 0)
(3.61011 -0.369928 7.92826e-23)
(3.58308 -0.207065 3.91618e-26)
(3.7597 -0.660281 7.57402e-23)
(3.67204 -0.535157 0)
(4.01947 -0.892217 5.22084e-21)
(3.87897 -0.77848 0)
(4.3989 -0.995936 2.15275e-20)
(4.18922 -0.963555 -2.39135e-20)
(4.80506 -0.966971 0)
(4.61163 -0.979345 2.3772e-21)
(5.1644 -0.73442 7.10801e-20)
(4.98385 -0.891741 -6.82239e-20)
(3.45352 -0.744411 2.44097e-21)
(3.27747 -0.266114 2.2044e-20)
(3.29671 -0.471421 -2.13067e-20)
(4.12636 -1.43125 5.68482e-22)
(3.73141 -1.06512 6.75004e-23)
(4.96926 -2.10188 0)
(4.55791 -1.79322 0)
(5.68221 -1.9362 -1.22419e-23)
(5.34015 -2.21038 0)
(6.16617 -0.324922 0)
(5.99499 -1.22817 0)
(5.87805 0.999911 2.26829e-23)
(6.12616 0.473558 0)
(5.19402 1.38939 0)
(5.54749 1.28139 0)
(4.58016 1.38687 0)
(4.87673 1.41089 0)
(4.15378 1.20621 -1.02823e-23)
(4.34654 1.31951 0)
(3.82336 0.964597 0)
(3.99416 1.07697 0)
(3.52473 0.684299 -6.32652e-26)
(3.65203 0.848307 6.69887e-26)
(3.4989 0.0964595 6.64337e-23)
(3.45728 0.42589 7.09963e-26)
(3.75323 -0.651637 1.35572e-22)
(3.57682 -0.28388 6.71883e-26)
(4.15934 -1.31375 -7.77294e-24)
(3.9059 -1.01005 0)
(4.64134 -1.77819 2.10194e-23)
(4.346 -1.58366 -3.86421e-26)
(5.16805 -1.9406 -5.91936e-27)
(4.86015 -1.91374 6.27908e-27)
(5.66268 -1.59355 0)
(5.41088 -1.83401 0)
(5.95321 -0.668369 9.45025e-21)
(5.84643 -1.16666 -1.49863e-20)
(5.84984 0.454907 0)
(5.96381 -0.0502179 2.51193e-21)
(5.67607 0.927708 0)
(4.28581 1.99769 0)
(4.92744 1.50754 1.31823e-20)
(4.64991 1.78892 1.70015e-20)
(3.48505 2.25431 -8.23801e-21)
(3.88224 2.19053 -1.53574e-20)
(2.86296 2.28804 -1.82303e-24)
(3.13763 2.29713 0)
(2.60298 2.15656 -2.34801e-24)
(2.68053 2.23179 0)
(2.73471 1.98932 0)
(2.62345 2.07886 0)
(3.1181 1.80205 -2.82876e-26)
(2.9029 1.89927 0)
(3.63048 1.51915 0)
(3.36546 1.6804 0)
(4.04618 1.13909 0)
(3.86588 1.32642 -5.38865e-21)
(4.21847 0.763905 0)
(4.16121 0.99257 1.45523e-20)
(3.05668 0.0386029 8.28334e-20)
(3.31814 -0.04653 0)
(5.64172 -0.754961 2.20171e-21)
(5.3406 -0.502392 5.07376e-21)
(3.3462 -3.53103 3.87938e-24)
(3.34017 -3.1142 0)
(5.57909 0.937287 0)
(3.50307 -3.44794 9.06861e-24)
(3.70748 -2.9049 7.26426e-25)
(4.16986 0.471069 5.16242e-20)
(4.34023 0.90276 0)
(4.3228 0.727389 0)
(3.47834 -3.09631 2.12592e-23)
(4.12881 -2.89228 2.23083e-23)
(3.39743 -2.61965 0)
(4.54882 -2.84682 -9.38497e-23)
(3.17118 -1.87285 0)
(5.06277 -2.57013 0)
(2.97358 -0.858122 0)
(5.54617 -2.17994 -6.76705e-22)
(2.72757 0.0412816 -1.04626e-21)
(5.89035 -1.65445 -8.66296e-23)
(3.367 0.191283 0)
(3.20831 0.289483 -4.27172e-20)
(5.9843 -1.00193 -1.10619e-20)
(5.76392 -0.468777 6.88817e-20)
(5.45358 -0.285369 -8.55587e-20)
(3.30896 -3.35113 1.20641e-25)
(3.97043 0.158065 1.90392e-20)
(4.01149 0.305185 0)
(3.97355 -0.107609 -4.40242e-21)
(3.92653 0.00148355 -8.71257e-21)
(4.09382 -0.344978 0)
(4.00085 -0.233107 4.43682e-21)
(4.26597 -0.551987 0)
(4.15545 -0.437132 1.09597e-21)
(4.52202 -0.651976 5.82972e-23)
(4.37625 -0.590311 0)
(4.85714 -0.590262 1.03329e-22)
(4.6899 -0.616853 0)
(5.1751 -0.287263 1.08684e-23)
(5.04121 -0.454736 0)
(5.31499 0.276674 -4.59607e-23)
(5.29537 -0.0114607 -4.23139e-26)
(5.19015 0.789587 3.27668e-23)
(5.30096 0.57909 4.17787e-26)
(4.87189 0.907332 -4.97107e-23)
(5.06174 0.910281 4.20571e-26)
(4.45754 0.722049 -5.13828e-26)
(4.67671 0.839184 4.99645e-26)
(4.08822 0.502287 -6.49389e-23)
(4.2617 0.608722 6.29025e-26)
(3.86577 0.350059 1.39705e-22)
(3.95868 0.419063 0)
(3.76296 0.192865 1.08681e-24)
(3.80434 0.277278 7.46943e-26)
(3.70829 -0.0891713 -1.56287e-22)
(3.72954 0.0646908 0)
(3.74577 -0.444056 -7.92413e-23)
(3.70596 -0.275245 -8.16779e-26)
(3.94035 -0.6824 0)
(3.82331 -0.589194 0)
(4.21601 -0.756156 9.9404e-21)
(4.07023 -0.733791 -1.04137e-20)
(4.499 -0.781831 0)
(4.36011 -0.76643 -4.89018e-27)
(4.74749 -0.727917 3.12734e-21)
(4.62243 -0.770513 -4.79322e-21)
(5.01866 -0.559226 4.06183e-20)
(4.88839 -0.645626 -4.05415e-20)
(5.14183 -0.269918 0)
(5.10442 -0.437688 -5.05206e-21)
(3.4864 -0.251193 1.13395e-20)
(3.48565 0.179723 -1.51097e-21)
(3.47567 -0.041924 -2.1821e-20)
(3.57942 -0.595275 2.17705e-20)
(3.507 -0.422244 -1.11722e-20)
(3.95325 -1.08993 9.98182e-21)
(3.72259 -0.812846 -3.21548e-20)
(4.60452 -1.72814 -3.56634e-23)
(4.25822 -1.42099 3.134e-22)
(5.41311 -1.55934 1.22423e-23)
(4.99097 -1.82452 0)
(5.98645 -0.236598 5.39377e-26)
(5.79517 -0.946889 -5.70206e-26)
(5.73384 0.743736 -3.87916e-26)
(5.9481 0.359937 4.10295e-26)
(5.14697 1.08598 -2.28915e-23)
(5.45017 0.972541 0)
(4.59291 1.13685 9.35438e-26)
(4.86202 1.13091 -9.89885e-26)
(4.15468 1.0558 5.47573e-23)
(4.34683 1.11482 1.19074e-25)
(3.88448 0.834637 0)
(3.99861 0.946215 0)
(3.64067 0.599765 7.23544e-23)
(3.73897 0.716111 -4.58091e-27)
(3.58059 0.164648 -1.41265e-25)
(3.54145 0.406301 1.49601e-25)
(3.82414 -0.471498 2.55195e-24)
(3.62941 -0.15985 0)
(4.24634 -1.07653 6.02585e-23)
(3.97287 -0.805103 0)
(4.75277 -1.50727 -4.64942e-23)
(4.44936 -1.32852 0)
(5.29857 -1.66384 2.90152e-26)
(4.99706 -1.62753 -3.07653e-26)
(5.80292 -1.37897 0)
(5.5613 -1.57037 0)
(6.08081 -0.614574 -5.81403e-21)
(5.99771 -1.02173 -8.3937e-21)
(5.9849 0.342259 3.30973e-20)
(6.10959 -0.0853305 -1.51552e-20)
(5.83107 0.740144 0)
(4.70939 1.52777 2.14432e-22)
(4.84148 1.20365 1.96759e-20)
(4.11911 1.99242 0)
(4.46267 1.79775 -2.10518e-22)
(3.38515 2.27307 2.10368e-23)
(3.73426 2.17847 0)
(2.8527 2.36074 -5.47198e-24)
(3.08835 2.33851 -3.63526e-26)
(2.63932 2.31771 0)
(2.69728 2.35057 0)
(2.81516 2.21164 0)
(2.67936 2.27682 0)
(3.26013 2.04631 2.81239e-26)
(3.01734 2.13571 0)
(3.73373 1.79231 0)
(3.50462 1.93221 0)
(4.13787 1.40436 -1.17856e-20)
(3.94957 1.60853 5.20482e-21)
(4.28514 1.19393 -2.00623e-21)
(3.42567 0.456979 0)
(3.54778 0.392199 1.54082e-20)
(5.4617 -0.0699883 6.50868e-20)
(5.14512 -0.0700578 -1.01611e-19)
(3.46607 -3.40865 -3.3307e-25)
(3.58591 -3.13034 5.38312e-25)
(4.19808 0.375371 -8.27229e-20)
(4.22187 0.464871 4.96804e-20)
(3.43545 -3.242 -7.04903e-23)
(3.89824 -3.07416 0)
(3.2957 -2.82804 -1.25843e-22)
(4.34552 -3.10198 -6.73382e-23)
(3.07723 -2.19997 0)
(4.89636 -2.94993 0)
(2.84548 -1.23247 7.49322e-22)
(5.45351 -2.5692 -1.16714e-21)
(2.66483 -0.0891178 0)
(5.97515 -1.99796 -9.63888e-21)
(2.80483 0.40242 -2.96433e-20)
(6.227 -1.30987 0)
(3.33882 0.571334 2.95306e-20)
(6.1862 -0.57169 8.84239e-21)
(3.66096 0.539714 -3.40974e-20)
(3.5442 0.657365 3.07933e-20)
(5.77914 -0.0680532 -4.81232e-20)
(3.75123 0.459164 -9.81025e-21)
(3.84743 0.574623 -8.29361e-21)
(3.79177 0.658753 4.16952e-20)
(4.60137 0.86281 -5.74179e-20)
(5.35126 0.155102 -1.03133e-21)
(5.09355 0.0949085 2.35567e-19)
(3.50215 -3.29422 0)
(4.05808 0.115238 -8.0987e-21)
(4.02023 0.247726 2.85741e-20)
(4.04864 -0.0910014 0)
(3.9915 0.0459289 0)
(4.11058 -0.275397 0)
(4.04957 -0.148683 0)
(4.24624 -0.419377 0)
(4.15797 -0.326791 0)
(4.48739 -0.474195 6.2413e-23)
(4.35336 -0.432516 4.05329e-27)
(4.79232 -0.418613 -5.50275e-23)
(4.63731 -0.441598 1.19287e-25)
(5.05261 -0.180543 -4.8834e-23)
(4.94093 -0.309298 1.0935e-25)
(5.1067 0.253948 4.59021e-23)
(5.11881 0.0345829 1.0381e-25)
(4.91236 0.666873 0)
(5.04281 0.49736 -3.44673e-27)
(4.60424 0.752812 4.96669e-23)
(4.76759 0.763628 3.02291e-27)
(4.316 0.577128 0)
(4.45359 0.67985 3.35873e-27)
(4.10534 0.405185 -1.32683e-24)
(4.19436 0.479558 0)
(3.96924 0.298471 -1.4151e-22)
(4.02422 0.3472 0)
(3.85842 0.158233 -7.51724e-23)
(3.90494 0.237091 1.50078e-25)
(3.78674 -0.0696459 1.57126e-22)
(3.80532 0.0517175 0)
(3.83013 -0.319687 0)