/*--------------------------------*- C++ -*----------------------------------*\
  =========                 |
  \\      /  F ield         | OpenFOAM: The Open Source CFD Toolbox
   \\    /   O peration     | Website:  https://openfoam.org
    \\  /    A nd           | Version:  10
     \\/     M anipulation  |
\*---------------------------------------------------------------------------*/
FoamFile
{
    format      ascii;
    class       volScalarField;
    location    "34";
    object      p;
}
// * * * * * * * * * * * * * * * * * * * * * * * * * * * * * * * * * * * * * //

dimensions      [0 2 -2 0 0 0 0];

internalField   nonuniform List<scalar> 
14667
(
0.304543
0.314407
-0.000519239
5.84745e-05
0.0020897
0.244552
0.231721
-0.00224333
0.00524807
0.00525487
0.247666
0.261217
0.342848
0.275039
-0.00326468
0.228184
0.235334
0.0228501
0.0142132
0.237387
0.258428
0.338661
0.274548
0.266165
-0.377979
-0.39703
-0.443883
-0.416238
-0.418069
0.562094
0.526198
0.518387
-0.530018
-0.540489
-0.594234
-0.545127
-0.561381
0.0089851
-0.0011465
0.0092354
0.0183528
0.0276821
0.705435
0.72305
0.818733
0.789566
0.689417
-0.0680746
-0.0207916
-0.0381236
-0.108695
0.639549
0.586869
0.545854
-0.0989092
-0.138999
-0.379294
-0.316563
-0.372489
-0.347037
-0.423261
-0.451851
0.287184
0.348448
0.444787
0.374137
0.237374
0.340783
0.194732
0.490034
0.475542
0.467433
0.895386
0.826397
0.0174453
0.0709316
0.058035
0.0159895
0.487833
0.49989
0.0123725
0.00783702
0.00860031
0.00486811
0.00414642
-0.532786
-0.558123
-0.244039
-0.221031
-0.345543
-0.345213
-0.0284868
-0.0170635
-0.177008
-0.189229
-0.262189
-0.245818
-0.157712
-0.16544
-0.090837
-0.10323
-0.25909
-0.191025
0.420662
0.458006
0.441838
0.412801
0.397284
0.389124
-0.00632303
-0.00932472
-0.00463075
-0.00387788
7.78652e-05
-0.00284584
0.0117787
-2.2537e-05
0.00441494
-0.00407921
-0.00738985
-0.00305579
-0.18558
-0.197783
-0.204884
-0.20172
-0.187523
-0.19096
-0.195352
-0.180934
-0.16372
-0.176433
-0.162798
-0.143488
-0.13452
-0.149356
-0.125345
-0.109958
-0.107594
-0.120227
-0.0980531
-0.0896324
-0.0895256
-0.0972737
-0.0842766
-0.0815325
-0.0817567
-0.084376
-0.0811249
-0.083009
-0.0841366
-0.0816806
-0.0873251
-0.0941013
-0.0972801
-0.0892126
-0.103554
-0.116147
-0.12499
-0.109204
-0.132092
-0.150433
-0.164477
-0.143558
-0.171852
-0.192945
-0.211865
-0.188015
-0.232285
-0.211152
-0.165549
-0.176902
-0.224172
-0.152012
-0.139296
-0.151644
-0.200586
-0.186769
-0.188243
-0.153271
-0.171952
-0.11934
-0.134745
-0.094733
-0.105919
-0.0821346
-0.087409
-0.0783564
-0.079032
-0.0845699
-0.0801843
-0.101905
-0.0917163
-0.131868
-0.115367
-0.169845
-0.150542
-0.20151
-0.187398
-0.211205
-0.209678
-0.209861
-0.170393
-0.161853
-0.169669
-0.1625
-0.172372
-0.173979
-0.152453
-0.163784
-0.124806
-0.138957
-0.0997401
-0.111326
-0.0845299
-0.090766
-0.079555
-0.0808639
-0.0839276
-0.0805553
-0.0992046
-0.089963
-0.129548
-0.112412
-0.174511
-0.150202
-0.225478
-0.200402
-0.247392
-0.137198
-0.126073
-0.198847
-0.250281
-0.175127
-0.155895
-0.152737
-0.267183
-0.16093
-0.132627
-0.148009
-0.103771
-0.117279
-0.0828719
-0.0917909
-0.0742914
-0.0774112
-0.0748185
-0.0733729
-0.0849479
-0.0786611
-0.105592
-0.0938465
-0.137518
-0.120254
-0.176075
-0.156505
-0.210059
-0.194487
-0.224989
-0.220353
-0.208661
-0.219414
-0.193446
-0.146075
-0.113003
-0.135198
-0.124403
-0.149013
-0.143429
-0.149332
-0.151602
-0.13322
-0.142722
-0.110214
-0.12193
-0.0899288
-0.0992471
-0.0778652
-0.082765
-0.0747348
-0.075203
-0.0808094
-0.0765473
-0.0983016
-0.0878943
-0.130867
-0.112584
-0.178762
-0.153099
-0.233209
-0.206172
-0.272386
-0.256769
-0.261271
-0.270696
-0.277391
-0.170125
-0.22873
-0.244995
-0.135783
-0.24518
-0.253164
-0.137249
-0.0985076
-0.175616
-0.15509
-0.0896009
-0.102413
-0.172869
-0.202432
-0.141719
-0.133357
-0.139964
-0.110618
-0.122926
-0.0867943
-0.0980491
-0.0713892
-0.0775036
-0.0664579
-0.0678996
-0.0696237
-0.0670029
-0.0813677
-0.074373
-0.103028
-0.090817
-0.136132
-0.118172
-0.177062
-0.156182
-0.21253
-0.1966
-0.224567
-0.222545
-0.21135
-0.221761
-0.195128
-0.123419
-0.130929
-0.113927
-0.116166
-0.107669
-0.127544
-0.122846
-0.127615
-0.129489
-0.114804
-0.122486
-0.0956491
-0.105491
-0.0786022
-0.0863936
-0.0691501
-0.0728123
-0.0680455
-0.0675828
-0.0755524
-0.0706319
-0.0941359
-0.0832212
-0.127791
-0.108871
-0.177607
-0.150995
-0.23551
-0.206453
-0.276228
-0.260041
-0.273103
-0.280701
-0.227233
-0.254234
-0.224028
-0.168445
-0.13798
-0.0930373
-0.0819085
-0.230334
-0.227526
-0.221133
-0.197896
-0.13569
-0.196236
-0.198088
-0.128241
-0.0990354
-0.110256
-0.10691
-0.104349
-0.10901
-0.0870532
-0.0964454
-0.0694724
-0.0776266
-0.0590956
-0.0631954
-0.0566342
-0.0569623
-0.0613686
-0.0580801
-0.0739784
-0.0666038
-0.0963733
-0.0837726
-0.13051
-0.112004
-0.172111
-0.151023
-0.208131
-0.191805
-0.223597
-0.219137
-0.20878
-0.219535
-0.172241
-0.192303
-0.130817
-0.151035
-0.118077
-0.120487
-0.120687
-0.111193
-0.117232
-0.102927
-0.0700593
-0.0829257
-0.076099
-0.0964635
-0.0899729
-0.105605
-0.10185
-0.105579
-0.106995
-0.0952193
-0.101474
-0.0796374
-0.0876153
-0.0662002
-0.0722558
-0.05938
-0.0618808
-0.0598114
-0.0586903
-0.0682096
-0.062899
-0.0872064
-0.0761596
-0.12069
-0.101903
-0.170846
-0.143814
-0.229935
-0.20053
-0.271808
-0.255124
-0.268703
-0.276431
-0.221177
-0.249178
-0.189347
-0.112636
-0.210203
-0.15724
-0.208061
-0.0881561
-0.114528
-0.192818
-0.0578382
-0.0545133
-0.0653824
-0.167642
-0.1366
-0.122826
-0.104376
-0.128549
-0.185431
-0.0759201
-0.0532088
-0.071561
-0.0628801
-0.0808673
-0.0778606
-0.076603
-0.0802495
-0.0642373
-0.0709273
-0.0520742
-0.0576637
-0.0452084
-0.0478606
-0.0448222
-0.0441884
-0.0510891
-0.0471056
-0.0646692
-0.0568739
-0.0875345
-0.0747686
-0.121379
-0.103134
-0.162272
-0.141506
-0.198363
-0.181905
-0.214087
-0.209594
-0.199779
-0.21043
-0.163883
-0.183518
-0.143016
-0.102998
-0.0889109
-0.0970689
-0.107354
-0.106481
-0.100836
-0.105388
-0.0856268
-0.0940814
-0.0758871
-0.0670832
-0.0621744
-0.0772139
-0.0722087
-0.0844546
-0.0814777
-0.0844785
-0.0855467
-0.0763381
-0.0812791
-0.0639369
-0.0702834
-0.0534631
-0.0581219
-0.0487452
-0.0503113
-0.0504164
-0.0487732
-0.0592965
-0.0538397
-0.0779553
-0.0671862
-0.110241
-0.0921552
-0.158789
-0.132524
-0.217433
-0.187967
-0.260211
-0.243085
-0.257784
-0.265702
-0.210201
-0.238117
-0.146021
-0.177969
-0.116511
-0.189563
-0.141001
-0.0625723
-0.0526448
-0.181509
-0.0993401
-0.163486
-0.0447378
-0.0646042
-0.139347
-0.111648
-0.0788512
-0.081751
-0.0690702
-0.0761661
-0.0665876
-0.166666
-0.0383489
-0.021786
-0.0320463
-0.0260792
-0.0458004
-0.0390373
-0.0535642
-0.0508778
-0.0512033
-0.0535384
-0.0428369
-0.0473724
-0.0345852
-0.0383622
-0.0305036
-0.0318831
-0.032193
-0.0305879
-0.0399373
-0.0353062
-0.0541525
-0.0461534
-0.0766885
-0.0642196
-0.109202
-0.0917252
-0.148355
-0.128473
-0.182922
-0.167141
-0.198833
-0.193927
-0.185639
-0.195516
-0.151693
-0.170393
-0.111924
-0.131612
-0.0942613
-0.0906047
-0.0842903
-0.0965273
-0.0947384
-0.0926254
-0.0957936
-0.0803108
-0.087345
-0.071914
-0.0423839
-0.0454285
-0.0433418
-0.0515906
-0.0482753
-0.0590326
-0.0552915
-0.0645978
-0.062295
-0.0646238
-0.0654505
-0.0582031
-0.0621112
-0.0484708
-0.0534206
-0.0406532
-0.0440467
-0.037775
-0.0385483
-0.0403012
-0.0383431
-0.0491912
-0.0438327
-0.0669013
-0.0567452
-0.0970311
-0.0801765
-0.142469
-0.117833
-0.198233
-0.170033
-0.24027
-0.223217
-0.238776
-0.246007
-0.19255
-0.219816
-0.129886
-0.161185
-0.0755002
-0.100913
-0.050961
-0.0352215
-0.053903
-0.165082
-0.122776
-0.154388
-0.0850348
-0.136959
-0.0557299
-0.115439
-0.019283
-0.0340711
-0.0909308
-0.0641015
-0.0195735
-0.0358272
-0.0676137
-0.0090621
-0.0320248
-0.065926
-0.0564903
-0.0329847
-0.0427409
0.00915101
-0.0558936
-0.145211
-0.0183226
-0.00548805
-0.00657457
-0.00559401
-0.0128281
-0.00901526
-0.0227437
-0.0176508
-0.0292198
-0.0268407
-0.0283581
-0.0296445
-0.0229145
-0.0259119
-0.0175925
-0.0199649
-0.0159429
-0.0161697
-0.0194544
-0.0170277
-0.0282044
-0.0231849
-0.0424902
-0.034573
-0.0640995
-0.0522325
-0.0945436
-0.0782427
-0.13078
-0.112409
-0.16293
-0.14818
-0.1785
-0.173419
-0.166989
-0.17578
-0.135541
-0.152958
-0.0984426
-0.116881
-0.0817384
-0.0808158
-0.0741576
-0.0881469
-0.0855461
-0.0866598
-0.0885115
-0.0770303
-0.0827632
-0.0613741
-0.0697747
-0.0522565
-0.0330524
-0.032152
-0.0368502
-0.0346559
-0.042206
-0.0394824
-0.0463814
-0.044642
-0.0463814
-0.0470299
-0.041352
-0.0444119
-0.0338694
-0.0376399
-0.028238
-0.0306051
-0.0267721
-0.0269524
-0.0298369
-0.0277135
-0.0383859
-0.0333174
-0.0546328
-0.0453702
-0.0818288
-0.0666402
-0.122896
-0.100587
-0.174044
-0.14804
-0.214233
-0.197519
-0.21376
-0.22025
-0.170253
-0.196127
-0.11006
-0.140394
-0.0585378
-0.0827108
-0.0187958
-0.0374107
-0.00218845
-0.141055
-0.105323
-0.0443164
-0.0349525
0.0249773
-0.130133
-0.0733789
-0.114841
-0.0494241
-0.0960478
-0.0317424
-0.0737468
-0.00664451
-0.018649
-0.0494354
-0.0228021
0.00110174
-0.0462318
-0.124343
-0.00912755
0.0018742
0.00611437
0.00448545
0.00684981
0.00686905
0.00377524
0.00591633
-0.00278718
0.000711452
-0.007975
-0.00591792
-0.00809181
-0.00866682
-0.00473948
-0.00662047
-0.00171056
-0.00295366
-0.00202157
-0.00133252
-0.00682574
-0.0038515
-0.0160744
-0.0109022
-0.030073
-0.0224059
-0.0503399
-0.0393037
-0.0780842
-0.0633017
-0.11076
-0.0941999
-0.139857
-0.126486
-0.153318
-0.149292
-0.144935
-0.152243
-0.116876
-0.132544
-0.0831672
-0.0998435
-0.0552035
-0.0681489
-0.0354765
-0.0443994
-0.0383695
-0.057821
-0.0484216
-0.0732785
-0.0662338
-0.0821086
-0.0786456
-0.0828949
-0.0835485
-0.0756253
-0.0802072
-0.0618064
-0.0693948
-0.0533063
-0.0254551
-0.0217227
-0.0231863
-0.0210861
-0.0210501
-0.0231889
-0.0218264
-0.0269036
-0.0249709
-0.0299571
-0.0286786
-0.0298889
-0.030423
-0.0259344
-0.0283257
-0.0202996
-0.0230941
-0.0164686
-0.0179966
-0.0160787
-0.0158287
-0.0193789
-0.0172385
-0.0272998
-0.0226653
-0.0417419
-0.0335576
-0.0654755
-0.0522519
-0.101226
-0.0817821
-0.146401
-0.123296
-0.183285
-0.167663
-0.184502
-0.189499
-0.144576
-0.168536
-0.0877983
-0.116358
-0.0382637
-0.0614653
-0.00110395
-0.0181604
0.0133019
-0.0281363
-0.119563
-0.0904448
-0.00206828
-0.0132325
-0.110215
-0.0647232
-0.0971832
-0.0455998
-0.08062
-0.0312595
-0.0603098
-0.020708
-0.0377339
-0.012561
0.0325463
0.0137022
0.0401579
-0.02446
-0.0161591
-0.0194602
-0.0177624
-0.0287967
-0.106129
-0.00761279
0.00317033
0.0119585
0.00815114
0.0166116
0.0146889
0.0184795
0.0178538
0.0177537
0.018516
0.0140524
0.0161675
0.0102745
0.0119046
0.00962462
0.00950537
0.0114482
0.0104005
0.0127407
0.0123511
0.0110368
0.0123559
0.0054431
0.00873188
-0.00397894
0.0012043
-0.017424
-0.0101468
-0.036018
-0.0259824
-0.060748
-0.0476316
-0.0895564
-0.0749709
-0.11526
-0.103421
-0.127322
-0.123679
-0.121103
-0.127069
-0.0966849
-0.110432
-0.0669311
-0.0816311
-0.0421379
-0.0535829
-0.0324817
-0.0192237
-0.014909
-0.0032083
-0.0322171
-0.0125391
-0.0222872
-0.0515871
-0.0421407
-0.0678412
-0.0602742
-0.0783056
-0.0739252
-0.0812361
-0.080792
-0.0760761
-0.0796345
-0.0639048
-0.070743
-0.0472996
-0.0559986
-0.0380985
-0.0116742
-0.01359
-0.00988518
-0.0104499
-0.0107491
-0.0100394
-0.0131971
-0.0118782
-0.0153608
-0.0144539
-0.0151901
-0.0156593
-0.0120808
-0.0139357
-0.00796267
-0.00995606
-0.00555597
-0.00643386
-0.00591654
-0.00538672
-0.00922204
-0.00717063
-0.0163209
-0.0122165
-0.028768
-0.021757
-0.0488078
-0.0376781
-0.0787813
-0.062478
-0.11711
-0.097392
-0.149682
-0.13562
-0.151975
-0.155847
-0.116609
-0.138165
-0.0638753
-0.0906513
-0.0168905
-0.0388638
0.0172568
0.00183049
0.0395023
0.0294704
0.0579782
0.0485359
0.0668127
0.0644135
0.0790358
-0.10249
-0.0790913
-0.0332953
-0.0238554
-0.0951474
-0.05895
-0.0839232
-0.0439021
-0.0689288
-0.032693
-0.0503661
-0.0248589
-0.0291577
-0.00574959
0.0211645
0.0471932
-0.027479
-0.0111898
-0.0243075
-0.0210311
-0.00314169
0.0667464
-0.00835984
0.0828666
0.000672353
-0.0919202
0.00063279
-0.00750001
0.0128788
0.00734507
0.0209243
0.0173698
0.0257308
0.023676
0.0284256
0.0273143
0.0293114
0.0291142
0.0279813
0.0289171
0.02565
0.0267643
0.0248186
0.0249627
0.0255484
0.0251053
0.0256203
0.0258203
0.023023
0.0247328
0.0170076
0.0204468
0.00767831
0.0127435
-0.00496165
0.00180364
-0.0217092
-0.0127477
-0.0433374
-0.0319249
-0.0682034
-0.0556287
-0.0905133
-0.0801859
-0.10172
-0.0980618
-0.0968038
-0.101692
-0.076029
-0.0877894
-0.0504291
-0.0631072
-0.0289807
-0.0388685
-0.0136507
-0.0206143
-0.00783866
-0.0275964
-0.0178211
-0.0471072
-0.0374429
-0.0643483
-0.0561791
-0.0766025
-0.0712579
-0.081611
-0.0801182
-0.078437
-0.0810361
-0.0677892
-0.0739482
-0.0518082
-0.0603178
-0.0426955
-0.0146399
-0.00707034
-0.0105317
-0.00208857
-0.00428199
0.000354592
-0.000561712
0.000407815
0.000635689
-0.00108095
-0.000231258
-0.00253784
-0.00193266
-0.00224849
-0.00268576
0.000184416
-0.00123319
0.00306395
0.00172058
0.00437666
0.0039843
0.00353822
0.00422367
0.000405511
0.00228935
-0.00576077
-0.00223484
-0.0161571
-0.0103403
-0.0324885
-0.0234582
-0.0566032
-0.0435028
-0.0876882
-0.0716087
-0.115265
-0.10311
-0.118477
-0.121126
-0.0881142
-0.106962
-0.0402924
-0.0648414
0.00348099
-0.0170314
0.0344729
0.0206609
0.0545239
0.0454944
0.0727393
0.063705
0.0888978
0.0801811
0.087783
0.0991595
0.0954433
-0.0898334
-0.071142
-0.0841698
-0.0557848
-0.0746126
-0.0444392
-0.0610428
-0.0364787
-0.0440434
-0.0312653
-0.0237798
0.000270597
0.0271824
0.0508022
0.0718846
0.101878
0.0912667
-0.0220549
-0.0384517
-0.0362012
-0.0330997
-0.00505991
0.00576716
-0.00586738
-0.010527
-0.019726
0.00912242
0.00376185
-0.0816482
-0.00338379
-0.0121713
0.0110591
0.004403
0.0214255
0.016682
0.0286526
0.0253634
0.033559
0.0313781
0.0367339
0.0353089
0.0387439
0.0378876
0.0392227
0.0392101
0.0383111
0.0388547
0.0375875
0.0378371
0.0375791
0.0375547
0.0368436
0.0374234
0.0337367
0.035655
0.027605
0.0310498
0.0186305
0.0234516
0.00697709
0.013155
-0.0078651
7.21732e-06
-0.0264551
-0.0166994
-0.0475575
-0.0368949
-0.0666759
-0.0577589
-0.0769585
-0.0733879
-0.0731144
-0.0770695
-0.0558003
-0.0656383
-0.0343375
-0.0449813
-0.0162225
-0.0246325
-0.00326747
-0.00916011
0.00166981
-0.0242626
-0.0144654
-0.0442317
-0.034282
-0.0627616
-0.0538462
-0.0769188
-0.0705753
-0.0840412
-0.081484
-0.0828316
-0.0844949
-0.0735647
-0.0791349
-0.0579963
-0.0664024
-0.0390847
-0.0488014
-0.0293715
0.00161555
-0.00184421
0.00677946
0.00449621
0.00959922
0.00847549
0.010281
0.0101763
0.00950472
0.0100016
0.00861461
0.00897182
0.00901671
0.0085983
0.0108832
0.00983379
0.0127584
0.0119328
0.0132723
0.0132194
0.0121786
0.0129224
0.00933734
0.0110052
0.00413907
0.00707993
-0.00428604
0.000393832
-0.0171411
-0.0100749
-0.0357214
-0.0256633
-0.0596116
-0.047217
-0.081636
-0.0717216
-0.0854772
-0.0869188
-0.0605344
-0.0764078
-0.0182394
-0.0402094
0.0217754
0.00293487
0.0503866
0.0375895
0.0698294
0.0607587
0.0862286
0.0782809
0.099037
0.0932418
0.101034
0.102854
-0.0810526
-0.0662784
-0.0258676
-0.0160637
-0.0769333
-0.0552332
-0.0689365
-0.0476378
-0.0568604
-0.043064
-0.0409282
-0.0403659
-0.02087
0.00404262
0.0302122
0.0535207
0.0754621
0.105975
0.093347
0.105289
0.107747
-0.0141079
-0.00625958
-0.0328106
-0.0525526
-0.0510457
-0.0473041
-0.0412765
0.0118928
-0.0749135
0.00827512
0.00135132
0.0200125
0.0145719
0.0287207
0.0246914
0.0352825
0.0322461
0.040097
0.0378818
0.0436229
0.0419864
0.046329
0.0450676
0.0480552
0.0473535
0.0484312
0.0483971
0.0480827
0.0482841
0.0476443
0.0478893
0.0463891
0.0472048
0.0430594
0.0450433
0.0370859
0.0404023
0.0286868
0.0331641
0.0181382
0.0236839
0.00518633
0.0119979
-0.0105782
-0.00234686
-0.0282693
-0.0193345
-0.0444818
-0.0368654
-0.0537232
-0.0503768
-0.0508292
-0.0539885
-0.0366868
-0.0447304
-0.0191677
-0.0278537
-0.00432221
-0.0112446
0.00649645
0.00154259
0.0140087
0.0105518
0.0193163
0.0168571
0.0143016
-0.00253752
0.0062641
-0.0219944
-0.0120046
-0.0428549
-0.0323443
-0.0630058
-0.0532122
-0.0792295
-0.0718093
-0.0886213
-0.0849261
-0.0894213
-0.0901484
-0.0814104
-0.0864702
-0.0660557
-0.0744888
-0.0464358
-0.0565541
-0.0361202
-0.00673859
0.00260942
-0.0018453
0.0097487
0.00644673
0.0148174
0.0125502
0.0178226
0.0165773
0.0189095
0.0185836
0.0186555
0.0188873
0.0182216
0.0183753
0.018708
0.0183135
0.0200775
0.0193457
0.0211551
0.0207283
0.0211252
0.0212889
0.0199468
0.0206777
0.0174698
0.0188956
0.0132233
0.0156002
0.0066147
0.0102567
-0.00313411
0.00218495
-0.0167994
-0.00944849
-0.0340631
-0.025119
-0.0502876
-0.0428752
-0.0539336
-0.0545566
-0.0345943
-0.0472394
0.00146939
-0.0175903
0.0375281
0.0203676
0.0643167
0.0521814
0.0830657
0.0743716
0.0978746
0.090844
0.108342
0.103911
0.116135
0.111735
0.11417
0.0215315
-0.0758114
-0.0644215
-0.0733293
-0.0576136
-0.0669963
-0.0539843
-0.056285
-0.0528284
-0.0407801
-0.0527404
-0.0200576
0.00529019
0.0314828
0.0556113
0.0778593
0.0943825
0.102743
0.100652
0.103129
0.0963662
0.0966567
-0.0217162
-0.0434443
-0.0286882
-0.00459635
-0.00949326
-0.0704043
-0.0691113
-0.06381
-0.0553197
0.0259486
0.00189702
-0.00314143
0.0278998
-0.0123525
-0.0714755
0.00679129
0.00102544
0.0181352
0.0125883
0.027512
0.0230867
0.0349196
0.0314229
0.0408579
0.0380581
0.0455439
0.0433423
0.0492631
0.0475027
0.0523564
0.0508727
0.0548338
0.0536982
0.0562385
0.0556923
0.0564709
0.05649
0.0559031
0.0562754
0.054341
0.0552946
0.0509845
0.0529335
0.045377
0.0484622
0.037719
0.0417784
0.0283509
0.0332412
0.0171994
0.0230221
0.00395517
0.0108399
-0.010769
-0.00333083
-0.0244715
-0.0179817
-0.0326268
-0.0296026
-0.030489
-0.0329817
-0.019191
-0.0256068
-0.00529354
-0.0121754
0.00654419
0.00100748
0.0153069
0.0112859
0.0214575
0.0186801
0.0238553
0.0162502
0.0294014
0.0233105
-0.000635206
0.00824716
-0.0206529
-0.0102875
-0.0429051
-0.0316186
-0.0649489
-0.0541524
-0.0835093
-0.0748716
-0.0954214
-0.0904757
-0.0983275
-0.0980942
-0.0914821
-0.0960959
-0.0761371
-0.0847174
-0.0554254
-0.0661877
-0.0331622
-0.0442688
-0.0223825
0.0104882
0.00638122
0.0171455
0.0140822
0.0219821
0.0198059
0.0250254
0.0237364
0.0263557
0.0258882
0.0264868
0.0265166
0.0264051
0.0264062
0.0269356
0.0265828
0.0278587
0.0274007
0.0283312
0.0281935
0.0279714
0.0282524
0.0268293
0.0274995
0.0247503
0.0259266
0.0213986
0.0232543
0.0164017
0.0191314
0.00931572
0.0131462
-0.000211211
0.00486356
-0.0117896
-0.00583994
-0.0224512
-0.0175872
-0.0247539
-0.0252582
-0.0103259
-0.0198316
0.0188092
0.00310342
0.050242
0.035006
0.0750262
0.0636492
0.0927051
0.0845732
0.105507
0.0996686
0.11337
0.110113
0.11641
0.115566
0.112312
0.114841
0.108616
-0.0741338
-0.0657827
-0.018716
-0.00854606
-0.0736029
-0.0635226
-0.068995
-0.0641089
-0.0593117
-0.0664589
-0.0436506
-0.0691079
-0.0218946
0.00446212
0.0316473
0.0574115
0.0792652
0.093233
0.0944426
0.0892585
0.0890284
0.0883
0.0809996
0.0804318
-0.0530865
-0.0130046
-0.0340295
0.00314507
0.00169786
-0.0145521
-0.0922129
-0.0900056
-0.0822407
-0.0699401
0.0346478
0.0306149
0.0357644
-0.0714801
0.0090325
0.0054969
0.0175812
0.0132252
0.0261504
0.0219795
0.0337238
0.0300955
0.0401412
0.0370651
0.0455435
0.0429648
0.0500373
0.0478939
0.053812
0.0520012
0.0570914
0.0555012
0.0599481
0.0585852
0.0620355
0.0611179
0.062909
0.0626996
0.0625068
0.0628526
0.0608624
0.0618585
0.057613
0.0594651
0.0524918
0.0552859
0.0456765
0.0492723
0.0375084
0.0417496
0.0280049
0.0329405
0.0169268
0.0226663
0.00466356
0.0108691
-0.00695073
-0.00141372
-0.0139874
-0.0113646
-0.0124005
-0.0143497
-0.00362108
-0.00858571
0.00704898
0.00176949
0.0161954
0.0118998
0.0231058
0.0199144
0.028111
0.0258199
0.0317502
0.0300313
0.0333216
0.0176355
0.0245969
0.000632204
0.00964853
-0.0203721
-0.009403
-0.0442341
-0.0320821
-0.0684112
-0.0564743
-0.0896504
-0.0796193
-0.104374
-0.0980478
-0.109522
-0.108283
-0.103785
-0.108007
-0.0882152
-0.0970748
-0.0660066
-0.0776705
-0.0416422
-0.0538716
-0.0297956
0.000740219
0.00981826
0.00539986
0.017608
0.0138998
0.023728
0.020867
0.0282697
0.0261993
0.0312392
0.0299583
0.0327002
0.0321429
0.0331223
0.0329938
0.0333187
0.0331995
0.0338161
0.0335315
0.0343441
0.0341138
0.0343942
0.0344457
0.0338735
0.0341973
0.032847
0.0334275
0.0311721
0.0321044
0.0286321
0.0300222
0.0250183
0.0269725
0.0201307
0.0227419
0.0139214
0.0171803
0.00689268
0.0104336
0.00104464
0.00360636
0.000888262
-0.00012059
0.0120836
0.00484832
0.0346082
0.0223193
0.0605601
0.0477321
0.0824791
0.072272
0.0984285
0.0911365
0.109301
0.104477
0.115144
0.112844
0.115766
0.116223
0.11095
0.113922
0.101459
0.106616
0.0953473
-0.076395
-0.0709048
-0.0781065
-0.0735864
-0.0751666
-0.0786813
-0.0659691
-0.0847596
-0.0494103
-0.0900225
-0.0257265
0.00261479
0.0320647
0.0592204
0.0798431
0.0885989
0.086943
0.0803422
0.0714703
0.0716742
0.0702428
0.0615946
0.0612537
0.0021035
0.0147586
0.0165684
0.00459438
-0.0610415
-0.0369752
-0.0145951
-0.118087
-0.113203
-0.101408
-0.0834704
0.0316239
0.0391484
0.00902654
0.00495195
-0.00401318
0.0401543
0.0367395
-0.0753879
0.0153599
0.0142488
0.019903
0.017339
0.0261924
0.0229617
0.032676
0.0294426
0.0389113
0.035853
0.0445311
0.0418097
0.0494412
0.0470737
0.0536988
0.0516449
0.0574266
0.0556207
0.0607597
0.0591347
0.0637577
0.0623065
0.0661684
0.0650679
0.0675586
0.0669721
0.067568
0.0677499
0.0660996
0.0670207
0.0630953
0.0647961
0.0585214
0.0609991
0.0525747
0.0556994
0.0455526
0.0491868
0.0374906
0.0416644
0.0281889
0.0330007
0.0178738
0.0231067
0.00801973
0.012718
0.00214044
0.00431164
0.0033163
0.00182946
0.00986853
0.00618392
0.0177414
0.0138444
0.024571
0.0213446
0.0298707
0.0273997
0.0338458
0.0319976
0.0367878
0.0353835
0.038017
0.0185364
0.0255886
0.00107552
0.0104089
-0.0210573
-0.00945255
-0.0465817
-0.0335224
-0.0731336
-0.0599128
-0.0973824
-0.0857928
-0.115194
-0.107361
-0.122738
-0.120434
-0.118084
-0.121955
-0.102051
-0.11133
-0.0780463
-0.0907581
-0.0511647
-0.0646237
-0.025616
-0.0380296
-0.014202
0.0170297
0.013097
0.0239373
0.0206469
0.0294726
0.026858
0.033683
0.0317443
0.0365125
0.0352729
0.0380363
0.0374207
0.0386814
0.0384292
0.0390639
0.0388748
0.0394669
0.0392687
0.0396744
0.0396165
0.0394672
0.0396229
0.0389096
0.0392248
0.0380447
0.0385205
0.03676
0.0374631
0.0349351
0.0359208
0.0324786
0.03379
0.0293555
0.0309971
0.0257047
0.0275753
0.0220899
0.0238289
0.0199577
0.0207023
0.0220337
0.0202528
0.0316729
0.0257576
0.049074
0.0395923
0.0696252
0.0593388
0.0879651
0.0793063
0.101622
0.0953999
0.110571
0.106676
0.114804
0.113275
0.114151
0.11511
0.108757
0.112009
0.0994175
0.104491
0.0862154
0.093194
0.0784985
-0.0830792
-0.0804122
-0.00886927
0.000965757
-0.0872486
-0.0885586
-0.0856816
-0.0985702
-0.0761311
-0.108506
-0.0574359
-0.115846
-0.0304943
0.00122029
0.033478
0.0607928
0.077718
0.0819704
0.0779007
0.0704272
0.061112
0.0515909
0.0521017
0.0413046
0.0428184
0.0336807
0.019523
0.0508604
0.0235122
0.00886322
-0.0663133
-0.0371637
-0.0117068
-0.14694
-0.137757
-0.120255
-0.0951214
0.0410255
-0.0837706
0.027651
0.0303917
0.0244175
0.0255907
0.0248971
0.0241809
0.0283089
0.026422
0.032799
0.0304459
0.0379684
0.0353305
0.0432486
0.0406307
0.0481855
0.0457745
0.0526453
0.0504757
0.0566462
0.0546996
0.0602578
0.0584959
0.0635547
0.0619418
0.0665585
0.0650977
0.0691045
0.067911
0.0708074
0.0700764
0.0712272
0.0712014
0.0701338
0.0708732
0.0675339
0.0690175
0.0635552
0.0657047
0.0584425
0.0611227
0.0524441
0.0555458
0.0455763
0.0491297
0.037668
0.0417585
0.0288889
0.0333427
0.0206163
0.0245269
0.0158907
0.0176128
0.0166653
0.0156189
0.0212556
0.0186805
0.0267791
0.0240356
0.0316826
0.0293474
0.0356205
0.0337682
0.0386867
0.0372471
0.0410895
0.0399403
0.0429834
0.0420392
0.0445774
0.0438132
0.0418392
0.0324157
0.0375788
0.0191048
0.0262966
0.000894972
0.0106529
-0.0223489
-0.010138
-0.0495914
-0.0355717
-0.0787294
-0.0641076
-0.106229
-0.0929621
-0.127348
-0.117904
-0.137429
-0.134002
-0.133851
-0.137399
-0.117163
-0.126976
-0.0911124
-0.10499
-0.0612698
-0.0762778
-0.0328518
-0.0467196
-0.0201457
0.00950536
0.0163804
0.0128638
0.0233772
0.0199182
0.0294215
0.0265411
0.034397
0.0320403
0.0382537
0.0364686
0.0409138
0.0397327
0.0424665
0.0418113
0.0432713
0.0429326
0.0437458
0.0435332
0.0440227
0.0439136
0.0440021
0.0440556
0.043677
0.0438702
0.0431645
0.0434393
0.0424834
0.0428491
0.0415621
0.0420567
0.0403506
0.0409941
0.0388378
0.0396302
0.0370918
0.0379842
0.035349
0.0361953
0.0341685
0.0346353
0.0346305
0.0341042
0.0384192
0.0359865
0.0473281
0.0421654
0.0613249
0.0538185
0.0774834
0.0693723
0.0922534
0.0852218
0.103444
0.0983569
0.110473
0.107483
0.113259
0.112398
0.11172
0.113026
0.106064
0.109381
0.0967306
0.101836
0.0842228
0.0908361
0.0692391
0.0770039
0.0608804
0.0452998
-0.0947538
-0.0950742
-0.101371
-0.109299
-0.100426
-0.124513
-0.0890443
-0.137966
-0.0663807
-0.146416
-0.0345643
0.00149372
0.0357317
0.0611218
0.0728827
0.0731718
0.0675161
0.0591622
0.0493722
0.0392715
0.033127
0.030406
0.0377557
0.0400985
0.0371028
0.0355984
0.0231893
0.0267732
0.0283242
0.0144131
-0.0677291
-0.0339561
-0.006353
-0.177015
-0.161855
-0.136413
-0.10352
0.0474413
0.0168245
0.0141204
0.0480485
0.00634306
-0.0973253
0.0338467
0.0355798
0.0319319
0.032632
0.0321817
0.0317823
0.0345733
0.0332154
0.0380571
0.036189
0.0423431
0.0401345
0.0468521
0.0446015
0.0511983
0.0490578
0.0552504
0.0532639
0.0589886
0.0571578
0.0624407
0.0607479
0.0656405
0.0640712
0.0685759
0.0671459
0.0711216
0.0699125
0.0729651
0.0721514
0.0737037
0.0734972
0.0730477
0.0735586
0.0709628
0.0721776
0.0676169
0.0694323
0.0632747
0.0655541
0.0581471
0.0608034
0.052238
0.0552988
0.0454303
0.0489485
0.0379588
0.0417289
0.031166
0.0343353
0.027428
0.0287853
0.0277213
0.0271197
0.0306214
0.0289783
0.0342435
0.0324267
0.0375999
0.0359821
0.0404242
0.0390801
0.0427336
0.0416374
0.0446108
0.0437212
0.0461295
0.0454041
0.0468111
0.0424964
0.0485044
0.0458613
0.0331023
0.0382743
0.0193828
0.0268361
0.000448362
0.0105941
-0.0238386
-0.0110425
-0.0528565
-0.0378351
-0.0846759
-0.0686055
-0.115527
-0.100529
-0.140059
-0.128955
-0.152764
-0.148177
-0.150246
-0.153494
-0.132789
-0.143204
-0.104543
-0.119656
-0.0716395
-0.0882555
-0.0401223
-0.0554346
-0.0137359
-0.026192
-0.00283762
0.0228077
0.0197448
0.0288161
0.025861
0.0340979
0.0315564
0.0385416
0.0364283
0.0420444
0.0404153
0.0445323
0.0434132
0.0460922
0.0454135
0.0469877
0.0466035
0.0474724
0.0472723
0.0476289
0.0475919
0.0474823
0.0475887
0.047143
0.0473277
0.0467237
0.0469406
0.046233
0.0464897
0.0456401
0.0459503
0.0449433
0.0453033
0.0441839
0.0445663
0.0434868
0.043815
0.0431232
0.0432387
0.0435997
0.0432136
0.0457218
0.0443948
0.0505402
0.0477262
0.0589318
0.0542714
0.070615
0.0644645
0.0835137
0.0770694
0.0952445
0.0896533
0.104136
0.100106
0.109457
0.107262
0.111015
0.110706
0.108827
0.110379
0.103109
0.106388
0.0941869
0.0990301
0.0824291
0.0886171
0.0684283
0.0756946
0.0526877
0.0607639
0.0442629
-0.111942
-0.115687
0.00327206
0.0115791
-0.120502
-0.136438
-0.118601
-0.156685
-0.10309
-0.172687
-0.0742534
-0.180489
-0.0363213
0.00379331
0.0380201
0.0588522
0.0651453
0.0625747
0.0556727
0.0466208
0.0366006
0.0269446
0.0423113
0.0438511
0.0448661
0.0441794
0.0189483
0.0404895
0.0178852
0.0129864
0.0334879
0.0211643
0.0223742
0.00904809
0.0147196
-0.0645106
-0.027377
0.00133666
-0.205303
-0.181843
-0.147406
-0.106454
0.050544
0.0489218
0.0509015
-0.116738
0.0410613
0.0425301
0.0386543
0.0397238
0.0374583
0.0379077
0.0376681
0.0373522
0.0394435
0.038388
0.0423282
0.0407694
0.0459314
0.0440687
0.0498052
0.0478577
0.0536539
0.0517438
0.0573423
0.0555227
0.0608224
0.0591093
0.0640916
0.0624827
0.067154
0.0656495
0.0699771
0.0686001
0.0724489
0.0712694
0.0743203
0.0734782
0.0752627
0.0749293
0.0749943
0.0752911
0.0734338
0.0743721
0.0707133
0.072205
0.0670686
0.0689925
0.0626793
0.0649622
0.0575659
0.0602177
0.0517018
0.0547218
0.0454348
0.0485671
0.039957
0.0424891
0.0368914
0.0380519
0.0366196
0.0364515
0.0381294
0.0372328
0.040275
0.0391745
0.0424272
0.0413704
0.0443636
0.0434272
0.0460408
0.0452345
0.0474693
0.0467864
0.0486672
0.0481031
0.0497055
0.0492033
0.0501634
0.0429959
0.0463317
0.0335145
0.0387453
0.0194967
0.0271578
2.83053e-05
0.0104692
-0.0252131
-0.0118607
-0.0559561
-0.0399628
-0.0903653
-0.0728975
-0.124478
-0.107789
-0.152352
-0.139616
-0.167648
-0.161919
-0.16615
-0.169116
-0.147904
-0.158928
-0.117467
-0.133806
-0.0816325
-0.0997756
-0.0470918
-0.0638532
-0.0183653
-0.0319043
-0.00665609
0.0185368
0.0230682
0.0206769
0.028277
0.0256135
0.0333944
0.0308722
0.0380093
0.03577
0.0419658
0.0400756
0.0451392
0.0436549
0.0474643
0.0464059
0.0490028
0.0483218
0.0499181
0.0495271
0.0503638
0.0501923
0.0504394
0.0504428
0.0502585
0.0503714
0.0499724
0.0501207
0.0496709
0.0498217
0.049367
0.0495197
0.049063
0.0492139
0.0487891
0.0489191
0.0486182
0.0486837
0.0487003
0.0486143
0.0493031
0.0489143
0.0508565
0.0499278
0.0539485
0.0521703
0.0592267
0.0562781
0.0670609
0.0628358
0.0769658
0.071838
0.0874682
0.0822556
0.0968169
0.092381
0.103764
0.100638
0.107682
0.106124
0.108322
0.108413
0.105721
0.107415
0.100078
0.103262
0.0916571
0.0961976
0.0807815
0.0864965
0.0679062
0.0745673
0.0534366
0.0608256
0.0380258
0.0457971
0.0301755
-0.13482
-0.142749
-0.143844
-0.169956
-0.138379
-0.194246
-0.11584
-0.210778
-0.0788866
-0.215192
-0.0346604
0.00764996
0.0386047
0.0531017
0.0550112
0.0502853
0.0422114
0.0326607
0.0453086
0.045773
0.0451736
0.0449767
0.0226692
0.0452727
0.0137685
0.043618
0.00698729
0.0387507
0.00252442
0.0283636
0.00729503
0.000273293
-0.0560219
-0.0171463
0.010715
-0.227295
-0.193981
-0.150552
-0.102453
0.0492591
0.0520657
0.0241993
0.000225457
0.013569
0.00769351
0.0225765
0.0166981
0.052331
0.0511812
-0.142351
0.0453516
0.0457767
0.0438282
0.0446557
0.0423538
0.0430386
0.0415923
0.0418782
0.0418248
0.0415551
0.0433061
0.0424172
0.0457619
0.0444364
0.0488296
0.0472391
0.0521998
0.050494
0.0556353
0.0539199
0.0590004
0.0573319
0.0622325
0.0606352
0.0653081
0.0637907
0.0682099
0.0667826
0.0708941
0.0695841
0.0732571
0.0721255
0.0750937
0.0742584
0.0761444
0.0757336
0.0761731
0.0762982
0.0750729
0.0757638
0.0729206
0.0741183
0.0698974
0.0715065
0.0661566
0.0681115
0.0617542
0.0640374
0.0567604
0.0593188
0.0515738
0.0541449
0.0471215
0.0491817
0.0444043
0.0455122