/*--------------------------------*- C++ -*----------------------------------*\
  =========                 |
  \\      /  F ield         | OpenFOAM: The Open Source CFD Toolbox
   \\    /   O peration     | Website:  https://openfoam.org
    \\  /    A nd           | Version:  10
     \\/     M anipulation  |
\*---------------------------------------------------------------------------*/
FoamFile
{
    format      ascii;
    class       surfaceScalarField;
    location    "13.5";
    object      phi;
}
// * * * * * * * * * * * * * * * * * * * * * * * * * * * * * * * * * * * * * //

dimensions      [0 3 -1 0 0 0 0];

internalField   nonuniform List<scalar> 
81299
(
0.0317965
0.0270738
-0.0401408
-0.0187296
0.0514113
-0.0313288
0.011714
-0.0530571
-0.0251363
0.0197077
0.0584857
-0.00942776
0.0303385
-0.0739679
0.0757321
-0.0796824
-0.00547749
0.0585442
-0.00794843
0.0829993
-0.00474731
-0.0436664
0.034176
0.0679761
0.0450909
-0.0584188
-0.0588414
-0.0315702
0.0115898
0.0788219
0.000996747
-0.0344657
-0.0253725
0.0371718
-0.00809251
-0.0280825
-0.0176276
0.0232292
-0.0429051
-2.23706e-05
0.0545172
-0.0213696
0.0101817
-0.0317171
-0.0287615
-0.125884
0.0312747
0.109616
-0.0150067
-0.00870832
0.0182951
-0.0191556
0.019952
0.0257012
-0.0198843
-0.0257689
0.000564459
0.0537887
-0.0344011
-0.0380418
-0.0353617
-0.0113081
0.00334684
0.0156107
-0.0076495
-0.0179161
-0.00148448
0.000368994
-0.0384331
-0.0789731
0.0274209
0.0828269
0.0367395
-0.0477365
0.0801051
0.0144978
-0.067182
0.0751668
-0.00705461
0.011993
-0.0607995
0.0342002
0.0458711
-0.0192718
-0.00855747
-0.0908629
0.0386208
0.0735446
-0.00693532
-0.0150905
0.00348369
0.0106082
-0.0032075
-0.0108844
0.00867264
0.00223013
-0.00741908
-0.00315188
0.00673232
0.0050922
0.00850971
-0.00105339
0.0237406
-0.0235928
-0.00859221
0.00844443
-0.00015508
0.02567
-0.0017743
0.00312554
-0.0148971
-0.0118212
-0.0196829
0.0211175
0.00169089
0.000576873
-0.0206879
0.000428127
0.00258624
-0.0169065
-0.0191479
0.00991297
0.00136087
-0.0208958
-0.00115291
0.00440705
-0.0199527
-0.0174608
0.00271991
-0.0340208
-0.0341461
0.0217465
0.0464204
-0.0307043
0.0184478
-0.0217644
0.0200373
-0.0429228
-0.00781884
-0.0365477
0.0224389
-0.0414574
0.0261275
0.0378382
-0.0225083
0.0220688
-0.0417798
0.0898262
0.0189324
-0.0533587
-0.0553999
-0.0036162
0.025384
0.0680583
-0.0638709
0.0579099
0.00234482
0.0114827
-0.0564212
0.0226069
-0.0417655
0.0621
-0.0716287
0.0910911
-0.0456584
0.0166673
0.0580099
0.0584652
-0.0428942
0.0370489
0.0374213
-0.0315761
0.0281427
-0.0449094
0.0484291
0.0238611
-0.0441475
0.017799
0.0676791
0.000908708
-0.000428083
-0.00165573
0.0011751
-0.00105057
0.00195928
-0.00147866
-0.000128157
0.000126577
0.000526259
-0.000524679
0.000101863
-0.00023002
0.00022844
2.14579e-06
0.0006042
0.00065464
-0.00126099
0.000362324
-0.000360178
0.000966524
0.0372992
0.00151434
-0.00685905
-0.0319545
0.0274976
-0.0215449
0.0313466
-0.0262028
-0.0129283
-0.0117601
0.00528317
-0.00922859
-0.0049722
0.00891762
-0.0327952
0.0122471
0.0203931
-0.0154874
-0.0120246
-0.0141276
0.0263746
0.0100352
-0.0239474
0.0298415
-0.0159292
-0.0285284
-0.00435921
-0.00151567
-0.00112356
-0.0258892
-0.00129555
-0.0241675
-0.0211865
-0.0229152
0.0276454
0.0164563
-0.00634453
0.0171115
-0.0319535
0.00586885
-0.0351286
0.0640241
0.0439023
-0.0183012
-0.0896252
0.0215127
-0.11414
0.10192
-0.00929218
0.0897379
-0.00420112
0.00799435
-0.0613176
-0.0608168
0.0443059
-0.0784602
-0.00957223
0.0437265
0.011298
0.0250757
-0.0152402
-0.0200211
0.0101856
-0.0224431
0.0450459
0.00247291
-0.010378
-0.0189242
-0.00357012
-0.0220481
-0.0238335
0.000242321
0.117942
0.00172257
-0.0475989
0.0455035
0.0717064
0.000732047
0.000234244
0.00102361
-0.000773661
-0.000484191
0.000252189
0.00215925
-0.00217719
-0.00522552
0.00483731
-0.00192776
0.00231596
-0.00667318
0.00287237
-0.00142471
0.0277337
0.0218467
-0.0306848
-0.0188957
0.0210275
0.0155681
0.00122802
-0.0121692
-0.00462685
0.00281599
0.00606801
0.00668407
-0.00273191
-0.00619648
0.00833254
0.000595855
0.00970325
-0.00392545
-0.0147142
0.0374453
0.0227723
0.0143505
0.00728131
-0.00542244
-0.0162094
-0.0155119
-0.00209213
0.0184876
-0.0100365
0.0172189
0.0132453
0.0256354
-0.0238906
-0.00421774
0.0281084
-0.010371
-0.0135197
-0.0231057
0.0335295
-0.0207948
0.0046561
-0.0113272
-0.0164346
-0.000956728
-0.00431754
0.00527427
-0.00659307
-0.00724524
0.0128816
-0.00886356
0.0021108
-0.00214101
-0.0199225
-0.0167111
0.00136107
-0.0141667
-0.0137237
0.002277
0.00691233
-0.0036772
-0.00323513
-0.00601601
0.0340916
0.00248057
0.00225052
0.0273114
-0.0382641
0.00332365
0.0338477
0.0010927
-0.0285801
0.00303926
-0.0127232
0.0306014
0.0132199
-0.0254872
-0.0183341
0.0246064
0.0253936
-0.0328885
0.0162758
0.035976
0.0506574
0.0186386
0.00235273
0.027718
0.00010192
-0.0301726
0.0337293
-0.0320213
0.000644737
-0.00336617
0.00398529
0.0331102
-0.00544584
0.0297976
0.0245067
-0.0183685
-0.00481673
-0.00132146
0.0271687
-0.00256005
-0.00568803
-0.000324829
0.000780146
0.00523271
-0.00470246
0.000821668
-0.00180724
-0.00386784
-0.0027957
0.00196108
-0.00367211
0.00301222
0.00131453
-0.000574601
-0.000846869
0.000160484
-0.00143072
0.0160648
-0.0159971
0.0313028
0.0527526
0.0455558
-0.00364294
-4.69876e-05
0.00133658
0.00354772
-0.000878944
0.00086656
-3.46032e-05
-0.00248994
-0.000316767
0.000155288
0.00204785
-0.000476228
-0.00330956
-0.0028874
-0.0023341
-0.000632065
-0.00427895
-0.0013647
-0.00551923
0.00768474
-0.00133498
-0.000830527
-0.0109223
0.00706527
-0.00166224
-0.0120877
0.00183042
-0.000664961
-0.00115046
0.000947763
0.0191895
0.000880758
-0.0322395
0.0242205
0.00103708
-0.0269196
-0.00185576
0.0529959
-0.0422752
0.0194346
0.0357723
0.00122967
-0.0293172
0.00721547
-0.00872063
-0.000350596
-0.000820045
0.00805891
-2.33904e-05
0.0240933
-0.00824411
0.000560555
-0.0275058
-0.0142854
0.0192726
0.0225185
-0.00400484
0.0226946
0.0156251
-0.0047892
-0.0335305
-0.0138609
0.00861587
0.0279396
0.021168
-0.0194038
-4.80969e-05
0.0014256
0.000938458
0.0017209
0.00110338
-0.00790971
0.00566756
0.00191732
-0.00744225
0.000354205
0.0625853
-0.00268869
-0.0485986
0.0239222
-0.00699524
0.0249242
0.00825918
-0.00281852
-0.0303648
-0.0154442
0.00250793
0.0378605
0.0222337
-0.0294188
-0.0179877
-0.0162737
0.0222648
0.0119966
0.00374614
0.00225681
-0.0239906
0.0149542
-0.0274817
0.0220451
-0.0413859
0.0178137
-0.0380438
0.00322529
0.00356004
0.00607144
-0.0128568
-0.000823274
0.0039049
0.000143663
-0.00264797
0.000674238
-0.00371479
0.0465225
0.0137579
-0.0272388
-0.0330416
0.0113671
0.0725767
-0.0271741
0.00031594
0.0382254
-0.0243703
0.010954
-0.00407582
2.40493e-05
0.000867711
0.00318406
-9.46407e-05
-0.00372899
0.00175988
-0.00185452
0.00178393
-0.0275285
0.0321725
-0.00213611
0.000915794
-0.0312628
-0.00331865
0.000613264
0.00141035
-0.0100746
-0.00309589
-0.0013685
-0.0127331
0.038225
-0.00522677
-0.0477124
0.018323
0.0238864
-0.00398443
0.0477596
0.0355137
0.0381288
-0.0222699
-0.0513726
0.0297032
0.0358554
-0.0300449
-0.0252761
0.026368
0.0286113
-0.0202818
0.0331345
0.0590602
0.0236896
-0.0110435
-0.00692541
0.0437157
0.016669
-0.0173965
0.0242403
-0.0283055
0.0207342
-0.0216887
-0.00134815
0.00114548
-0.0215206
-0.00131357
-0.00291564
0.0381053
0.0125699
-0.0251927
0.0160255
0.00916719
0.0218492
0.0227044
-0.0181856
-0.00367112
0.000590497
0.00531075
-0.0355635
0.0107692
0.000965604
0.0238287
-0.0320468
0.00515223
-0.0086689
0.00410322
-0.00117663
-0.00261545
-0.000311134
0.00345891
-0.000129359
0.0389439
-0.0226542
0.015013
-0.000845077
-0.00210819
0.000184861
0.00276841
-0.00321964
0.0027206
-0.000346035
0.00356437
-0.00436872
-0.00241529
0.00206565
-0.000609471
-0.0014802
0.00107437
0.00059069
0.00613071
-0.00614386
0.00335999
0.00411383
0.000332856
-0.000130204
-0.000202651
9.97651e-06
0.000322879
0.0173295
0.0126846
-0.00806435
-0.0219498
0.0168708
-0.0267801
-0.0202729
0.0127734
-0.0102272
0.00263896
0.035394
-0.00635982
-0.0333934
-0.0040789
0.031654
-0.0330365
0.00552423
0.0234334
-0.0104024
-0.028994
0.0199358
0.0330908
-0.0134366
-0.0395901
0.0258278
-0.0391004
0.0332084
-0.0195452
0.00601089
0.0393621
0.0412937
-0.0277481
0.000291258
-0.0163828
0.00137191
0.0147197
-0.0122807
-0.0057966
-0.0178943
0.000156708
0.000428747
0.000618455
-0.00281085
0.0023491
0.000426872
0.00062033
0.000806562
-0.00116667
-0.00583638
-0.00211833
0.0029249
-0.003285
0.001633
0.000182225
0.00208967
-0.000901326
0.00253433
-0.000719102
-0.0148138
-0.0103607
0.0157816
0.00939294
0.00309176
0.00587285
-0.0237784
0.0175052
-0.0247741
-0.00269866
-0.00403645
0.00321893
0.00351618
0.0157264
-0.0304956
0.0370029
-0.0407549
0.00359231
0.0499008
-0.0127382
-0.0333959
0.000258239
0.032925
0.000212689
0.00336676
0.0336404
-0.0329427
-0.00406441
0.00294002
0.0350276
-0.0346009
0.00332318
0.0351185
-0.0355016
0.00311049
0.0355306
-0.0353179
0.00197252
0.0353729
-0.0342349
0.0036655
0.0349137
-0.0366067
0.00520564
0.0335561
-0.0350963
0.00514102
0.0348439
-0.0347793
0.00652138
0.0333535
-0.0347339
0.00644805
0.0344798
-0.0344065
0.00765003
0.0331823
-0.0343843
0.00757744
0.0341585
-0.0340859
0.00861841
0.0330445
-0.0340854
0.008548
0.0338813
-0.0338109
0.00944423
0.0329339
-0.0338301
0.00937706
0.0336441
-0.033577
0.0114211
0.0315687
-0.0336128
0.0107174
0.0340879
-0.0333842
0.0107412
0.0334158
-0.0334397
0.0106831
0.0332816
-0.0332235
0.0112449
0.032735
-0.0332968
0.011193
0.033153
-0.033101
0.0116741
0.0327104
-0.0331915
0.0116282
0.0330589
-0.0330131
0.012042
0.032707
-0.0331207
0.0120028
0.0329991
-0.03296
0.0123616
0.0327267
-0.0330855
0.0123297
0.0329748
-0.032943
0.0126446
0.0327725
-0.0330874
0.012621
0.032988
-0.0329644
0.0129021
0.0328483
-0.0331294
0.0128878
0.0330417
-0.0330275
0.0131422
0.0329601
-0.0332145
0.00998461
0.0362937
-0.0331361
0.0115354
0.0317953
-0.0333461
0.0215666
0.0273885
-0.0374197
-0.0122236
0.00333494
0.0304553
-0.0384797
0.0295797
-0.0359549
-0.00560691
0.0064982
0.0350636
-0.00527948
0.00312683
-0.0338022
-0.00667262
0.0356641
-0.034271
0.0357276
-0.00800413
-0.0343961
0.00637453
-0.00710017
0.0364533
0.0364318
-0.00678675
0.00416169
0.0362655
0.034765
-0.0350535
-0.00376218
0.00295944
0.0359212
0.0354271
-0.00258214
0.00249757
0.0354574
0.0359079
-0.00286396
0.00286341
0.0335567
0.0345473
-0.00268653
0.00252109
0.0335189
0.0350208
-0.00235356
0.00219528
0.0333406
0.0346473
-0.00203798
0.00188981
0.0331926
0.0343158
-0.00174316
0.00160413
0.0330729
0.034028
-0.00205983
6.01255e-05
0.0335684
0.0331884
-0.00057418
0.00108543
0.0329046
0.0335738
-0.000964128
0.000847529
0.0328516
0.0334029
-0.000732915
0.000622467
0.0328209
0.0332676
-0.000513741
0.0004085
0.0328122
0.0331676
-0.000304884
0.000204251
0.0328274
0.0331027
-0.000105143
8.60765e-06
0.0328691
0.0330739
8.65239e-05
-0.000179404
0.0329412
0.0330831
0.000270992
-0.000109568
0.0327987
0.0331333
-0.0034675
0.00212417
0.0331386
0.0327166
0.0328476
0.0011143
0.00312083
-0.0371779
-0.0348768
0.0391179
-0.00395912
0.00355802
-0.0351005
-0.0354392
-0.00307898
0.0047338
-0.0358897
-0.0348388
-0.00447549
0.00372109
-0.0343419
-0.0363484
-0.00269425
0.00250863
-0.0345482
-0.0337524
-0.00233154
0.0021649
-0.0342176
-0.0342294
-0.00200223
0.00184791
-0.0339311
-0.0339232
-0.00169751
0.00155407
-0.0336866
-0.0336605
-0.00141436
0.00128207
-0.0334805
-0.0334372
-0.00114916
0.0010229
-0.0333135
-0.0332513
-0.000901875
0.000784119
-0.033179
-0.0331025
-0.000668851
0.000556717
-0.0330794
-0.0329858
-0.000447346
0.000340596
-0.033014
-0.0329037
-0.000236394
0.000134308
-0.0329834
-0.0328558
-3.45877e-05
-6.34328e-05
-0.0329894
-0.0328433
0.000159258
-0.000253435
-0.0330352
-0.0328685
0.000344348
-0.000431091
-0.0331278
-0.0329366
0.00051425
0.000790763
-0.0346511
-0.0330529
0.00230743
-0.00748611
-0.033301
-0.0343215
-0.00818612
-0.0365286
0.0376145
-0.0373835
-0.00856724
0.0377646
0.00888019
-0.0100631
-0.0362006
-0.0356525
-0.0374716
-0.0121274
0.0410318
-0.0365824
-0.0109523
-0.0136881
-0.0375397
-0.00282241
0.00156354
0.0317142
-0.00424851
0.0310058
-0.000851185
-0.0352151
0.00572981
-0.00717357
-0.0328273
0.00504325
-0.0331157
-0.0076019
-0.0339678
-0.00962913
0.00840295
-0.0349744
-0.0355006
-0.0107109
-0.0461179
-0.00780503
0.0404864
-0.0107572
-0.042521
0.00126221
0.0379571
-0.00594957
0.00624873
0.0374654
0.0363444
-0.00612914
0.00537262
0.0372098
0.0377341
-0.00516975
0.00362322
0.0366101
0.0366346
-0.0029851
0.00305791
0.0361926
0.0354031
-0.00299678
0.00327922
0.0356388
0.0354883
-0.00303813
0.00329173
0.0352038
0.0361489
-0.00367853
0.00282344
0.0344118
0.0341605
-0.00264346
0.00247588
0.0336865
0.0352007
-0.00231207
0.00215545
0.0334972
0.0348111
-0.00200195
0.00185501
0.0333396
0.0344693
-0.00171154
0.00157412
0.0332103
0.0341715
-0.00119653
0.0013091
0.0334559
0.033566
-0.00118295
0.00106142
0.0330261
0.0337
-0.000942089
0.00082648
0.0329672
0.0335223
-0.000713636
0.000604099
0.0329304
0.0333804
-0.000497034
0.000392796
0.0329165
0.0332747
-0.000290773
0.0001912
0.0329269
0.0332048
-9.35942e-05
-1.91846e-06
0.0329646
0.0331715
9.5543e-05
-0.000187328
0.033033
0.0331767
0.000277205
-0.000615996
0.0331375
0.0332232
0.000574031
-0.000875149
0.0334398
0.0326747
0.033536
-0.00289933
0.0324986
-0.0347409
-0.00404598
0.0379357
-0.0346446
0.0366833
-0.000946063
-0.00639287
-0.0252124
-0.00456293
0.00342712
-0.0360421
-0.0343965
-0.00331278
0.00333206
-0.0351198
-0.0353248
-0.00410021
0.00363927
-0.0354288
-0.035607
-0.00215652
0.00213602
-0.0343214
-0.0348657
-0.00277283
0.00259105
-0.0343665
-0.0343892
-0.00241874
0.00225134
-0.0340502
-0.0340571
-0.00209174
0.0019362
-0.0337756
-0.0337636
-0.00178766
0.00164264
-0.0335416
-0.033512
-0.00150406
0.00136911
-0.0333455
-0.0332986
-0.00123969
0.0011115
-0.0331853
-0.0331219
-0.000988247
0.000867679
-0.0330585
-0.0329793
-0.00075161
0.000637363
-0.0329651
-0.0328697
-0.00052703
0.000418164
-0.0329051
-0.0327933
-0.000312777
0.000208555
-0.0328792
-0.0327504
-0.000107452
7.25941e-06
-0.0328892
-0.0327422
9.01371e-05
-0.000187072
-0.0329383
-0.0327711
0.00028274
-0.000380486
-0.0330301
-0.0328409
0.000475846
-0.00135189
-0.0337751
-0.0329576
0.00238663
-0.00133089
-0.0343567
-0.0332868
0.00236094
-0.0345765
-0.00252534
-0.034185
-0.0348515
0.00600643
-0.0063865
-0.0324472
0.00511165
-0.0322209
-0.00721821
-0.0331361
-0.007474
0.00718954
-0.0346899
-0.00725798
-0.0357166
-0.002349
0.0020859
-0.0343134
-0.0342349
0.0352685
-0.00355891
-0.0021097
-0.0344742
-0.0129118
-0.0439632
-0.0382449
-0.0102471
0.000503138
0.0332809
-0.0383331
-0.0106227
-0.0331365
0.000243709
-0.00892645
0.00918047
0.0410397
-0.0445517
-0.00400827
0.0442228
-0.0423977
0.00176727
-0.000332858
0.0406099
0.00394572
0.0406415
-0.00823058
0.00753431
0.0386534
0.040312
-0.00565306
0.00511789
0.0380006
0.0382257
-0.00535543
0.0058538
0.0367114
0.0374966
-0.00420761
0.00517916
0.0356386
0.0382808
-0.00301937
0.00406396
0.0351481
0.0375629
-0.00262501
0.00352459
0.0347392
0.0369272
-0.00332307
0.0041359
0.034391
0.0363505
-0.0024606
0.0027706
0.0341018
0.0358358
-0.00259498
0.00242768
0.0338538
0.0353764
-0.00226647
0.00211106
0.0336526
0.0349724
-0.00196085
0.00181538
0.033485
0.0346195
-0.0016748
0.00153841
0.0333467
0.0343121
-0.00105687
0.00127809
0.0332347
0.0340476
-0.00115394
0.00103304
0.033147
0.0338241
-0.000916026
0.000801683
0.0330816
0.0336393
-0.000690849
0.000582439
0.0330388
0.0334913
-0.00047719
0.000374079
0.0330196
0.0333799
-0.000273773
0.000175355
0.0330254
0.0333051
-7.94093e-05
-1.4856e-05
0.0330589
0.0332675
0.000106994
-0.000197729
0.0331237
0.0332689
0.000286946
-0.000374666
0.0332252
0.0333124
0.000855225
-0.00103637
0.0336209
0.0331552
0.000696613
-0.00189184
0.0329094
0.0331963
0.00267182
-0.00237351
0.0322003
0.0317858
0.0311656
0.0320066
-0.0344368
-0.00396268
-0.00207592
-0.0032143
-0.00457402
0.00393086
-0.0353989
-0.0338589
-0.00406605
0.0041924
-0.0352462
-0.03546
-0.0035762
0.00305167
-0.0349043
-0.0349908
-0.00276123
0.00296396
-0.0345241
-0.0345752
-0.002774
0.00258651
-0.034179
-0.0341993
-0.00240891
0.00223755
-0.0338789
-0.0338795
-0.00207518
0.0019172
-0.0336176
-0.0336012
-0.00176685
0.00162016
-0.0333949
-0.0333617
-0.00148036
0.00134336
-0.0332085
-0.0331588
-0.00121228
0.0010836
-0.0330566
-0.0329908
-0.000960505
0.000839365
-0.0329373
-0.0328562
-0.000723038
0.000608055
-0.0328502
-0.0327534
-0.000497401
0.000387736
-0.0327954
-0.0326827
-0.000281989
0.000176878
-0.0327741
-0.0326446
-7.53147e-05
-2.59077e-05
-0.032788
-0.0326406
0.00012386
-0.000221651
-0.0328405
-0.0326732
0.000316014
-0.000409137
-0.0329369
-0.0327465
0.000499399
-0.00118949
-0.033085
-0.0328673
0.00125876
-0.00174789
-0.0338676
-0.0332175
-0.033847
-0.0348802
-0.00845355
-0.0371375
0.00585944
-0.00592923
-0.0323774
0.00601039
-0.0323718
-0.0352091
0.0341578
-0.00250761
-0.0349364
-0.00238249
-0.0054862
-0.0335791
-0.049619
-0.00784443
0.00499588
0.00184477
0.0260843
-0.0307914
0.0202895
0.0154978
-0.00115563
-0.0452504
-0.0132716
-0.0394965
-0.0399379
-0.017297
-0.00568425
0.00570504
0.0405891
-0.0375424
-0.00960249
0.0414606
0.0122308
-0.0458274
-0.0381838
-0.0119354
-0.00846828
-0.0381691
-0.00562384
0.00669807
0.0399655
0.0407227
-0.00744093
0.00680384
0.0392905
0.0395691
-0.00548418
0.00630842
0.0371763
0.0395453
-0.00449216
0.00473938
0.0364642
0.0393129
-0.00450883
0.00427953
0.0358679
0.0385114
-0.00405975
0.00384218
0.0353656
0.0377827
-0.00363994
0.00344063
0.0349385
0.0371294
-0.00325087
0.00306236
0.0345795
0.0365402
-0.00288347
0.00270608
0.0342792
0.0360147
-0.00253908
0.00237287
0.03402
0.0355434
-0.00221698
0.00206197
0.0338076
0.0351283
-0.00191632
0.00177136
0.03363
0.0347651
-0.00163481
0.00149883
0.0334827
0.0344486
-0.00137026
0.00124277
0.0333622
0.0341761
-0.00112202
0.00100181
0.0332672
0.0339449
-0.000887566
0.000774021
0.0331951
0.0337535
-0.000665746
0.000558211
0.0331464
0.0335995
-0.000455269
0.000353095
0.0331217
0.0334829
-0.000254902
0.000157496
0.0331228
0.0334033
-6.35081e-05
-2.97093e-05
0.0331521
0.0333615
0.000120035
-0.000209676
0.0332134
0.0333592
0.000296996
-0.000383698
0.0333119
0.0333997
0.000716165
-0.000552326
0.0334571
0.0334877
0.000990672
-0.00111706
0.0330358
0.0336346
0.00235645
-0.00183659
0.0316804
0.0330252
0.0311738
0.0323593
-0.0321658
5.01982e-05
0.0017806
0.0323759
-0.0336132
-0.00272531
-0.00186587
-0.00266968
-0.00522806
0.00436184
-0.0345327
-0.0330765
-0.00410393
0.00386051
-0.0350027
-0.0352021
-0.00362933
0.00340352
-0.0346784
-0.0347596
-0.00319099
0.00298914
-0.0343222
-0.0343627
-0.00280034
0.00261612
-0.0339947
-0.0340105
-0.00244112
0.00226964
-0.0337074
-0.0337045
-0.00210769
0.00194894
-0.0334588
-0.0334393
-0.0017988
0.00165118
-0.0332473
-0.0332115
-0.00151137
0.00137345
-0.0330706
-0.033019
-0.00124263
0.0011129
-0.0329268
-0.03286
-0.000989494
0.0008669
-0.0328147
-0.0327328
-0.000750227
0.000633881
-0.0327338
-0.0326367
-0.000522897
0.000411807
-0.0326844
-0.0325717
-0.000305635
0.000198988
-0.0326674
-0.0325385
-9.68667e-05
-6.07027e-06
-0.032685
-0.0325385
0.000104883
-0.000204969
-0.0327404
-0.0325744
0.000301491
-0.000399853
-0.0328386
-0.03265
0.000495159
-0.000592946
-0.0329872
-0.032772
0.000862993
-0.00153652
-0.0331941
-0.0329475
0.00153259
-0.00192162
-0.0339244
-0.0338509
0.040143
0.0251941
-0.0531063
-0.0113367
0.0418772
-0.0378625
-0.0140108
0.000476221
-0.0445364
0.00191239
-0.034608
-0.00224074
-0.0344834
0.00641538
-0.00715466
-0.0339506
-0.033951
0.00651277
-0.00711344
-0.0365368
-0.0363585
-0.0394318
-0.00689891
0.0380623
-0.0242049
-0.00207471
-0.0505554
-0.0013026
-0.0443894
0.0103741
-0.0107388
0.038427
0.00926408
0.0429872
-0.00436424
0.00475106
-0.0327586
-0.00341979
-0.0333218
-0.0496795
-0.0172366
0.0360491
-0.0550929
-0.00516113
-0.0100174
0.0353277
-0.00793357
-0.0373489
-0.00221263
0.00195182
-0.0343472
-0.034993
0.0352437
-0.00249141
-0.00207295
-0.0351327
-0.0484092
-0.00875845
-0.00250212
-0.0505927
-0.012031
-0.039827
-0.00758423
0.00659164
0.0415817
0.0431405
-0.00696202
0.00690166
0.0400258
0.0403523
-0.00516685
0.00619842
0.0382589
0.0413039
-0.0053121
0.00506407
0.0374244
0.0404317
-0.00484125
0.00459885
0.0367066
0.0395357
-0.00438969
0.00415959
0.036098
0.0387205
-0.0039602
0.00374305
0.0355828
0.0379821
-0.00355503
0.00335083
0.0351427
0.0373175
-0.00317444
0.00298318
0.0347708
0.0367166
-0.00281616
0.00263701
0.0344583
0.0361818
-0.00247966
0.00231196
0.0341877
0.0357007
-0.00216451
0.00200799
0.0339641
0.0352757
-0.0018694
0.00172309
0.0337763
0.0349037
-0.00159262
0.00145567
0.0336196
0.0345791
-0.00133267
0.00120425
0.0334906
0.0342991
-0.001088
0.000967447
0.0333878
0.0340611
-0.000857228
0.000743581
0.0333088
0.0338638
-0.000638823
0.000531446
0.0332537
0.0337043
-0.000431623
0.000329835
0.0332235
0.0335827
-0.000234423
0.000137599
0.0332196
0.0334987
-4.61262e-05
-4.63561e-05
0.0332446
0.0334529
0.000134404
-0.000223115
0.0333021
0.0334472
0.00030826
-0.000393897
0.0333976
0.0334849
0.000476685
-0.000559313
0.0335397
0.0335705
0.000639471
-0.000966908
0.0333632
0.0337148
0.00157545
-0.00277367
0.0328786
0.0336338
0.00634218
0.0400317
0.0347423
0.0331273
-0.0327491
-0.000328075
-0.0319141
0.0416283
0.00578355
0.00299385
0.0331373
-0.0341977
-0.00166491
-0.00147762
0.0350204
-0.0353617
-0.00216632
-0.00184704
-0.00250045
-0.00502392
0.00438715
-0.0338959
-0.0333494
-0.00412719
0.00388098
-0.0347565
-0.0349422
-0.00364634
0.00341749
-0.0344496
-0.034525
-0.00320532
0.00299858
-0.0341155
-0.0341505
-0.00280646
0.00261718
-0.0338055
-0.0338183
-0.00244098
0.00226689
-0.0335333
-0.0335283
-0.00210489
0.00194419
-0.0332981
-0.0332773
-0.00179445
0.00164519
-0.0330981
-0.0330618
-0.00150595
0.00136648
-0.0329311
-0.0328798
-0.00123621
0.00110514
-0.0327958
-0.0327297
-0.00098264
0.00085879
-0.0326909
-0.0326103
-0.000742902
0.000625164
-0.0326161
-0.0325208
-0.000514851
0.000402252
-0.0325718
-0.0324614
-0.00029662
0.000188314
-0.0325591
-0.0324328
-8.6573e-05
-1.81908e-05
-0.0325803
-0.0324367
0.000116726
-0.000218546
-0.0326386
-0.0324758
0.000314322
-0.000413653
-0.0327392
-0.0325542
0.000507637
-0.000605734
-0.0328891
-0.032678
0.000697971
-0.000794399
-0.0330976
-0.0328552
0.0015488
-0.00144037
-0.0340328
-0.0330965
-0.033972
-0.00448177
-0.0325171
0.00549683
-0.00580307
-0.0336444
-0.0329359
0.00657339
-0.00753242
-0.0355778
-0.0355882
-0.0248222
-0.0388681
0.00597818
-0.00836998
0.0408188
0.00692434
0.0420411
-0.0324453
0.0310438
-0.0423956
-0.000396158
0.00282264
0.0376052
0.00331088
0.0379213
-0.0367772
-0.0105882
-0.00938957
-0.0354918
-0.0354896
0.0356312
-0.00263304
-0.0351589
-0.00240364
-0.0235724
-0.0368677
0.0104259
-0.0573174
-0.0102105
0.0371682
-0.047655
-0.0201743
-0.0321122
0.0149043
-0.028559
0.045767
0.00374228
-0.00427686
-0.0327873
0.00418945
-0.0332058
-0.00746107
0.00721549
0.0418273
0.0426037
-0.00624422
0.00572073
0.0405493
0.0413236
-0.00555687
0.005315
0.0385008
0.0414678
-0.00514248
0.00488927
0.0376776
0.0406042
-0.00470557
0.00445574
0.0369564
0.0397194
-0.00427532
0.00403589
0.0363374
0.0389009
-0.00386234
0.00363604
0.0358091
0.0381556
-0.00347076
0.00325702
0.0353565
0.0374827
-0.00309956
0.00289936
0.034971
0.0368741
-0.00275001
0.00256295
0.0346454
0.0363311
-0.00242084
0.00224599
0.0343625
0.0358428
-0.00211177
0.00194915
0.0341267
0.0354099
-0.00182198
0.00167048
0.0339278
0.0350309
-0.0015498
0.00140858
0.0337609
0.0346997
-0.00129397
0.00116214
0.0336224
0.0344137
-0.00105303
0.000929801
0.033511
0.0341702
-0.000825776
0.000710165
0.0334244
0.0339678
-0.000610721
0.000501978
0.0333625
0.0338037
-0.000406744
0.00030412
0.0333262
0.0336779
-0.000212692
0.000115469
0.0333168
0.0335901
-2.74905e-05
-6.50052e-05
0.033337
0.0335409
0.000149962
-0.00023834
0.0333905
0.0335322
0.000320683
-0.000405633
0.0334825
0.0335672
0.000485883
-0.00056784
0.0336216
0.0336507
0.000645929
-0.001098
0.0338153
0.0337929
0.00146251
-0.00252684
0.0339429
0.0339983
0.0350381
0.0337189
-0.0337292
-0.000317771
-0.0352384
0.0381623
0.0028597
0.00147434
0.0339918
-0.0344204
-0.00123631
-0.00121502
0.0350151
-0.0355059
-0.00167558
-0.00125229
-0.00237509
-0.00427558
0.00441166
-0.034032
-0.0334355
-0.00414135
0.00388847
-0.0345037
-0.0346718
-0.00365313
0.00342247
-0.0342189
-0.0342896
-0.00321201
0.00300238
-0.0339059
-0.0339401
-0.00281241
0.00262141
-0.0336145
-0.0336284
-0.00244801
0.00227206
-0.0333573
-0.0333549
-0.00211244
0.00194963
-0.0331353
-0.0331177
-0.00180211
0.0016507
-0.0329466
-0.0329143
-0.00151361
0.00137198
-0.0327895
-0.0327427
-0.00124385
0.00111057
-0.0326625
-0.0326016
-0.000990042
0.000863842
-0.0325647
-0.0324897
-0.000749813
0.000629641
-0.0324959
-0.0324068
-0.000521087
0.000405939
-0.0324566
-0.0323528
-0.000301928
0.000190913
-0.0324481
-0.0323288
-9.06099e-05
-1.70807e-05
-0.0324726
-0.0323364
0.000114452
-0.000219608
-0.0325335
-0.0323785
0.000314856
-0.000418345
-0.0326358
-0.032459
0.000512262
-0.000614713
-0.0327867
-0.0325841
0.000707668
-0.000808796
-0.0329965
-0.0327623
0.000900241
-0.00165635
-0.0332767
-0.0330051
0.0015728
-0.00181325
-0.0341067
-0.0340555
-0.0501642
-0.000989869
0.00331453
0.0381586
-0.0365
-0.00966679
-0.00348035
-0.0392201
0.00201697
-0.0348476
-0.00232828
-0.034929
-0.0529735
0.0112135
-0.00925946
0.0259856
0.00864706
-0.00980214
-0.0343367
-0.00406955
-0.0327244
-0.00462632
-0.0323792
-0.00526716
-0.0330036
-0.0070961
-0.0337593
-0.0340268
-0.0575729
-0.0611922
-0.0258398
0.0122462
-0.00713839
0.00669391
0.0424856
-0.00616706
0.0398475
-0.00405227
0.00377731
-0.0329309
-0.00396342
-0.0328761
0.0375568
-0.0363365
0.00163945
0.0388622
0.00200912
-0.0339603
-0.0123418
0.019791
-0.00788244
0.0111167
-0.0431561
-0.00196631
0.00206938
-0.0349507
-0.0354391
0.0355085
-0.00239767
-0.0349744
-0.00243097
-0.0059058
0.00588554
0.0418476
0.0433918
-0.00572685
0.00505313
0.041223
0.0414823
-0.00598151
0.00511712
0.0393652
0.0405394
-0.00499906
0.00471718
0.0379595
0.0407222
-0.00458725
0.0043091
0.0372346
0.0398493
-0.004177
0.00390895
0.0366054
0.039033
-0.00377825
0.00352434
0.036063
0.0382863
-0.00339741
0.00315846
0.0355954
0.0376097
-0.00303489
0.00281151
0.0351944
0.0369977
-0.00269221
0.00248461
0.034853
0.0364504
-0.00236887
0.00217591
0.0345555
0.0359586
-0.00206443
0.00188618
0.034305
0.0355214
-0.0017787
0.00161393
0.0340926
0.0351384
-0.00151013
0.0013578
0.0339132
0.0348035
-0.00125755
0.00111657
0.0337634
0.034514
-0.00101967
0.00088901
0.0336417
0.0342671
-0.000795334
0.000673844
0.0335459
0.0340615
-0.00058315
0.000469851
0.0334758
0.0338944
-0.000382007
0.000275966
0.0334322
0.0337658
-0.000190795
9.11065e-05
0.0334165
0.0336753
-8.36246e-06
-8.56974e-05
0.0334311
0.0336236
0.000166098
-0.000255434
0.0334798
0.0336126
0.000333847
-0.000419202
0.0335679
0.0336456
0.000496056
-0.000577983
0.0337036
0.0337276
0.000653262
-0.000733186
0.0338952
0.0338681
0.000807329
-0.00101309
0.0341487
0.0340724
0.000737599
0.000734538
0.0361331
0.0347626
-0.00281996
0.00304321
0.0379354
0.0358358
0.0351629
-0.0346297
-0.000851019
0.000300729
0.0345848
-0.0345365
-0.0012846
-0.00125986
0.0344842
-0.0348267
-0.00133303
-0.00130466
0.0351973
-0.0355792
-0.00225114
-0.00200449
-0.00247436
-0.00450763
0.00441654
-0.0339409
-0.0341658
-0.00413975
0.00388376
-0.0342477
-0.034395
-0.00364997
0.00341458
-0.0339835
-0.0340558
-0.00320776
0.00299312
-0.0336912
-0.0337332
-0.0028069
0.00261064
-0.0334182
-0.0334422
-0.00244122
0.00226073
-0.0331768
-0.0331855
-0.00210553
0.00193854
-0.0329683
-0.0329625
-0.00179554
0.00164007
-0.0327912
-0.0327713
-0.00150751
0.00136185
-0.0326439
-0.0326101
-0.00123819
0.00110086
-0.0325252
-0.0324779
-0.000984767
0.000854485
-0.0324344
-0.0323736
-0.000744777
0.000620386
-0.0323715
-0.0322971
-0.000515993
0.000396464
-0.0323371
-0.0322485
-0.000296432
0.000180842
-0.0323325
-0.0322288
-8.43156e-05
-2.8164e-05
-0.0323601
-0.0322399
0.000121937
-0.000232027
-0.0324234
-0.0322847
0.000323722
-0.000432127
-0.0325273
-0.0323673
0.000522438
-0.000629787
-0.0326793
-0.0324938
0.000719166
-0.00082595
-0.0328897
-0.0326729
0.000914572
-0.00102079
-0.0331705
-0.0329164
0.00138881
-0.00174141
-0.0337541
-0.0336875
-0.034601
0.0205193
-0.0550397
0.0361534
-0.00434153
-0.0323463
-0.00469195
-0.0320288
-0.00561074
-0.0320848
-0.00686376
-0.0325062
-0.00790343
-0.0329872
-0.00975486
-0.0324853
0.00367019
0.0382352
0.00630482
0.0308142
-0.0062794
0.0235961
-0.0319983
-0.0117169
0.0058284
-0.00802643
-0.0307891
0.00529371
-0.0319716
-0.0374283
-0.0114586
-0.00454046
0.018052
0.0180718
-0.0169563
0.0150466
-0.00485727
-0.00259336
0.00205643
-0.0344138
-0.00205196
-0.0355158
-0.0356504
0.0358626
-0.00260991
-0.0356097
-0.00247168
-0.00592032
0.00583319
0.0425727
0.040232
-0.00586492
0.00562472
0.0420878
0.0433601
-0.00555654
0.00572501
0.0410546
0.0415505
-0.00570314
0.00492614
0.0401421
0.0405613
-0.00490334
0.00454725
0.0383156
0.040745
-0.00450887
0.00415951
0.0375839
0.0398877
-0.00411262
0.00377741
0.0369406
0.0390799
-0.00372434
0.00340768
0.0363797
0.0383394
-0.00335055
0.00305438
0.0358916
0.0376668
-0.00299338
0.00271845
0.0354693
0.0370587
-0.00265445
0.00240111
0.0351063
0.0365144
-0.00233397
0.00210096
0.0347885
0.0360257
-0.00203156
0.00181865
0.0345179
0.0355908
-0.00174742
0.00155308
0.0342869
0.0352096
-0.0014803
0.00130304
0.0340904
0.0348763
-0.00122909
0.00106735
0.0339252
0.0345879
-0.000992633
0.000844897
0.0337894
0.0343419
-0.000769815
0.000634492
0.0336812
0.0341365
-0.000559321
0.000434969
0.0336001
0.0339696
-0.000360032
0.000245306
0.0335469
0.0338407
-0.000170849
6.45126e-05
0.0335228
0.0337497
9.30186e-06
-0.000108424
0.0335302
0.0336975
0.000181475
-0.000274428
0.0335727
0.0336857
0.000346692
-0.000434494
0.0336557
0.0337179
0.000506161
-0.000589591
0.033787
0.0337993
0.000660356
-0.000740262
0.0339751
0.0339389
0.000809664
-0.000884142
0.0342232
0.0341418
0.00052268
0.000786852
0.0348235
0.0344011
-0.000570888
0.00277116
0.0357351
0.0360518
0.0383283
-0.0369879
0.00232978
-0.00344967
0.0041063
0.0376717
0.0375567
0.0373878
-0.0357425
-5.90236e-06
0.00240901
0.0349667
-0.0345637
-0.001254
-0.000475034
0.0345478
-0.0345282
-0.00130426
-0.00127575
0.0345035
-0.0344741
-0.00136234
-0.00132937
0.0350884
-0.0355799