/*--------------------------------*- C++ -*----------------------------------*\
  =========                 |
  \\      /  F ield         | OpenFOAM: The Open Source CFD Toolbox
   \\    /   O peration     | Website:  https://openfoam.org
    \\  /    A nd           | Version:  10
     \\/     M anipulation  |
\*---------------------------------------------------------------------------*/
FoamFile
{
    format      ascii;
    class       volVectorField;
    location    "24";
    object      U;
}
// * * * * * * * * * * * * * * * * * * * * * * * * * * * * * * * * * * * * * //

dimensions      [0 1 -1 0 0 0 0];

internalField   nonuniform List<vector> 
25879
(
(1.08181 0.0162144 9.4789e-21)
(1.07836 0.0169759 -1.41259e-20)
(1.07852 0.0139225 2.65142e-20)
(1.08163 0.0135434 -2.61369e-20)
(0.808914 -0.405676 7.22032e-23)
(0.781342 -0.386751 -7.49531e-22)
(1.29452 0.108971 0)
(1.28118 0.11391 -4.25028e-21)
(1.25938 0.108433 0)
(1.26291 0.0984462 0)
(1.38147 0.140742 -3.02295e-21)
(1.34468 0.127419 7.29492e-21)
(1.42657 0.154436 -7.55119e-20)
(0.102664 -0.277365 3.09952e-20)
(0.230215 -0.282306 -4.56648e-20)
(1.00841 0.48265 -2.27946e-20)
(1.06416 0.614622 -2.80024e-20)
(1.29737 -0.692011 4.34808e-20)
(1.4411 -0.637248 -3.7561e-20)
(0.470705 -0.154346 6.86509e-20)
(0.461862 -0.314221 3.08271e-19)
(0.378126 0.701739 -1.33014e-19)
(0.646223 0.61849 1.09552e-19)
(1.03669 0.043405 5.60684e-21)
(1.04208 0.0480787 7.01699e-21)
(1.03618 0.0469953 3.47496e-22)
(1.02979 0.039863 -5.58159e-23)
(1.03375 0.0367971 -7.30293e-21)
(1.02993 0.0365554 -1.00644e-20)
(1.03922 0.0410887 -4.07644e-21)
(1.04498 0.0460153 4.73599e-20)
(-0.0555013 -0.111814 4.85273e-20)
(-0.0550008 -0.0711671 -2.01817e-20)
(-0.123443 -0.211887 3.05527e-20)
(0.656497 -0.151247 -1.82877e-20)
(0.931083 -0.0416707 -2.97085e-21)
(0.924486 -0.0119678 2.78158e-21)
(1.37579 -0.173205 -3.23306e-22)
(1.37185 -0.193391 -4.76466e-21)
(1.58291 0.240305 -6.38984e-20)
(1.50796 0.212163 -7.85658e-21)
(1.43639 0.226935 -9.16964e-21)
(1.00087 -0.255828 -1.78327e-20)
(0.990578 -0.233269 0)
(0.987464 -0.213661 -1.38874e-21)
(1.46441 -0.257336 0)
(1.48289 -0.242498 3.47062e-20)
(0.264788 -0.0230227 9.76424e-20)
(0.608671 -0.0104363 4.79089e-21)
(0.748861 0.041953 0)
(1.20674 -0.44787 2.85784e-21)
(1.20885 -0.398133 -1.15096e-20)
(0.833196 0.266039 -1.36245e-19)
(1.07369 0.430626 0)
(0.586061 -0.00177683 -9.3003e-22)
(0.571765 -0.00275893 0)
(0.614919 -0.00146924 1.39487e-21)
(0.84597 0.210328 -9.66703e-20)
(0.844299 0.186486 9.36944e-20)
(0.888983 0.168478 -1.81295e-19)
(0.893489 0.206646 1.69849e-19)
(0.897446 0.319726 8.92339e-22)
(0.911568 0.257788 -4.37585e-21)
(0.770778 -0.00834166 1.32293e-22)
(0.835348 -0.0102442 2.96701e-21)
(0.791819 -0.00800479 -2.14153e-21)
(-0.11593 -0.0453574 2.3401e-21)
(-0.0902605 -0.0608911 0)
(-0.0528914 -0.0447999 0)
(-0.0201929 -0.39185 1.03415e-19)
(-0.0694686 -0.290168 -2.78448e-19)
(1.0064 0.0293621 1.68757e-20)
(1.01025 0.0411871 0)
(1.01348 0.0450598 -9.08834e-21)
(1.06508 -0.109645 5.16695e-20)
(1.01921 -0.12376 0)
(1.00433 -0.0843493 1.95041e-20)
(1.0718 0.0117995 0)
(1.07057 0.00697312 1.53043e-20)
(1.07403 0.00884531 1.6703e-20)
(0.975845 -0.247486 0)
(0.985578 -0.278852 4.46936e-20)
(0.330023 0.203153 6.58903e-20)
(0.505365 0.156947 3.46771e-19)
(0.425754 0.331554 0)
(0.99867 -0.0141138 1.90852e-20)
(1.00024 -0.0187981 -1.78861e-20)
(1.00491 -0.0217938 0)
(1.11486 0.0469426 4.20351e-21)
(1.1084 0.0422614 -1.20322e-22)
(0.0117205 -0.279161 -1.08098e-19)
(0.165482 -0.260428 1.17763e-19)
(-0.0230065 -0.247368 3.37176e-20)
(1.04152 0.0406272 1.92101e-20)
(1.03709 0.0363483 -5.67997e-22)
(0.858817 -0.375601 -1.93261e-21)
(0.848669 -0.392383 1.19272e-21)
(0.819249 -0.372954 -1.21776e-22)
(0.829652 -0.0893557 -3.53395e-20)
(0.794258 -0.10922 -1.40276e-21)
(0.709209 -0.0815282 2.88486e-21)
(0.662891 -0.106591 1.37717e-20)
(1.11492 0.0531802 4.3158e-21)
(1.11941 0.0550812 -6.55348e-23)
(1.12164 0.0508272 -2.33697e-22)
(1.07221 -0.0795005 9.7425e-21)
(1.0544 -0.0644019 -2.90352e-21)
(1.21006 -0.519218 -1.61813e-20)
(1.11617 -0.678957 2.03657e-20)
(0.93099 0.0207257 -1.34042e-21)
(0.934853 0.0507219 1.25558e-21)
(1.23337 -0.00885101 -4.94097e-21)
(1.22415 -0.0135182 0)
(1.13555 0.085046 8.33822e-21)
(1.13501 0.0941217 -1.07252e-20)
(1.06075 0.158056 -2.60885e-21)
(1.07174 0.16841 2.76312e-21)
(1.35997 0.112355 1.10105e-20)
(1.24237 0.251272 2.85303e-21)
(1.2145 0.223689 -6.69409e-21)
(1.20682 0.197881 2.3972e-20)
(1.5247 -0.186893 -4.64322e-21)
(1.52816 -0.169402 0)
(1.4336 0.295289 -2.91243e-20)
(1.42216 0.276982 6.05431e-20)
(0.351027 -0.212141 -5.92767e-20)
(0.635519 -0.159795 0)
(-0.0838353 -0.459611 -1.77651e-20)
(0.0366007 -0.414847 0)
(0.0306763 -0.409309 0)
(-0.0857736 -0.458444 -9.93788e-20)
(-0.117889 -0.364805 1.9205e-19)
(0.908693 -0.0764536 0)
(0.922924 -0.0919628 1.05917e-19)
(0.937226 -0.0712962 3.31049e-20)
(0.927588 -0.0603639 -2.73555e-20)
(1.07672 0.0119413 -3.75175e-20)
(1.07465 0.014408 2.35339e-20)
(1.28075 0.0979569 -4.24553e-21)
(0.633761 -0.00850015 -2.78249e-22)
(1.03713 -0.40421 -4.20187e-20)
(1.01158 -0.396348 0)
(1.0107 -0.318108 -5.41298e-21)
(1.02528 -0.264982 0)
(1.01509 -0.147543 0)
(1.01967 -0.048885 1.65484e-20)
(1.01933 0.0568454 -2.05565e-22)
(1.02298 0.154912 -3.4098e-20)
(1.02495 0.246664 1.65117e-20)
(1.0278 0.328237 -1.45436e-20)
(1.03002 0.397868 1.3254e-21)
(1.03239 0.453711 1.32028e-20)
(1.0345 0.494854 0)
(1.03684 0.521427 -9.19101e-21)
(1.03919 0.53531 9.08919e-21)
(1.04177 0.539308 0)
(1.04439 0.537347 6.21095e-21)
(1.04699 0.533065 -6.28051e-21)
(1.04937 0.529639 5.06532e-21)
(1.05138 0.528881 -9.86558e-21)
(1.05299 0.531447 9.12207e-21)
(1.05415 0.537026 -8.81776e-21)
(1.05497 0.544917 4.28903e-21)
(1.05538 0.554442 0)
(1.05538 0.565118 0)
(1.05465 0.576448 4.98872e-21)
(1.05302 0.58783 5.07325e-22)
(1.05 0.59806 -5.50153e-21)
(1.04538 0.605688 -6.93359e-21)
(1.03855 0.608349 7.00736e-21)
(1.02925 0.603705 -9.1222e-21)
(1.01666 0.588374 9.54053e-21)
(1.00035 0.5597 -7.21355e-22)
(0.978571 0.513112 0)
(0.953019 0.446445 0)
(0.924653 0.358772 -3.73552e-21)
(0.902453 0.261315 -2.42734e-20)
(0.920138 0.430348 0)
(0.888617 0.340704 5.88376e-21)
(0.970182 0.379199 -3.97181e-21)
(0.984862 -0.390261 4.58626e-21)
(0.990573 -0.460947 -1.97172e-21)
(1.01692 -0.465648 0)
(0.948258 0.283953 0)
(1.01237 0.523576 0)
(0.991822 0.460109 7.79275e-21)
(1.04291 0.597222 9.75025e-21)
(1.02973 0.56889 7.07427e-22)
(1.05913 0.61536 1.1085e-21)
(1.05271 0.611819 -1.81944e-20)
(1.06496 0.602658 0)
(1.06317 0.611505 7.39544e-21)
(1.06427 0.57891 -1.02679e-20)
(1.06528 0.591298 5.16754e-21)
(1.05999 0.555401 4.48975e-21)
(1.06246 0.566747 4.75935e-21)
(1.05402 0.53678 4.56654e-21)
(1.05716 0.545295 -4.34058e-21)
(1.04665 0.526856 0)
(1.05053 0.530402 -4.4148e-21)
(1.03719 0.529266 0)
(1.04216 0.526623 0)
(1.02591 0.535847 7.83642e-21)
(1.03163 0.533406 0)
(1.01414 0.521416 1.01098e-20)
(1.01988 0.533325 -7.576e-21)
(1.00304 0.459228 -1.27589e-20)
(1.00828 0.497591 -9.77391e-21)
(0.993387 0.33936 -1.52437e-20)
(0.997728 0.406411 1.23349e-20)
(0.985746 0.170887 -1.68596e-20)
(0.988758 0.260329 1.47319e-20)
(0.980606 -0.0277289 -1.69889e-20)
(0.981393 0.0750429 1.60831e-20)
(0.979892 -0.225346 0)
(0.978166 -0.126556 1.6737e-20)
(0.98225 -0.311882 -4.17975e-22)
(1.05819 -0.172571 0)
(1.06245 -0.371835 2.32002e-20)
(1.05733 -0.286693 0)
(1.05986 0.0364541 1.73128e-20)
(1.05755 -0.0683655 -1.77269e-20)
(1.06361 0.226498 5.16938e-22)
(1.06116 0.136215 1.05406e-24)
(1.06483 0.38172 2.8465e-20)
(1.0651 0.309349 -1.44338e-20)
(1.06337 0.485059 0)
(1.06508 0.439852 -1.31582e-20)
(1.06097 0.532214 0)
(1.06285 0.514572 0)
(1.05915 0.538185 6.3603e-21)
(1.06047 0.538269 0)
(1.05809 0.530499 5.08683e-21)
(1.05896 0.534128 -6.16485e-21)
(1.05673 0.53015 4.33668e-21)
(1.05778 0.528637 -4.93053e-21)
(1.05416 0.541572 0)
(1.05577 0.534515 -4.20343e-21)
(1.04994 0.560083 -4.22254e-21)
(1.05235 0.550133 0)
(1.04282 0.580764 1.36417e-22)
(1.04685 0.570302 4.2158e-21)
(1.03016 0.596369 5.32181e-21)
(1.03727 0.589691 -5.17639e-21)
(1.00834 0.592285 -1.51485e-20)
(1.02047 0.597776 6.68526e-21)
(0.97282 0.546223 2.93999e-22)
(0.992299 0.575793 7.84701e-21)
(0.948388 0.498569 0)
(1.04426 -0.473493 -4.44679e-21)
(1.02229 -0.52418 -2.2296e-23)
(0.997444 -0.517577 -9.04946e-22)
(0.926987 0.171399 9.70264e-21)
(0.892888 0.15274 -1.55524e-20)
(0.970143 0.179486 -8.32542e-21)
(0.906042 0.044428 0)
(0.947777 0.0556125 1.12237e-20)
(0.858177 0.237899 -5.47772e-22)
(0.892391 0.413463 5.8705e-21)
(0.860884 0.329147 -1.80672e-20)
(1.09749 -0.381648 1.23205e-20)
(1.06749 -0.460139 1.23745e-20)
(1.09753 -0.460861 -4.10548e-21)
(1.07133 -0.525561 -7.40989e-21)
(1.04748 -0.53022 2.87034e-21)
(1.01214 0.39119 -9.17451e-21)
(0.991972 0.292782 4.84773e-21)
(1.0486 0.533365 -9.36446e-22)
(1.03118 0.472018 4.75147e-21)
(1.07215 0.603139 0)
(1.06222 0.576718 0)
(1.08169 0.617803 2.00883e-21)
(1.0784 0.615746 -9.12542e-24)
(1.08115 0.602646 -1.54353e-21)
(1.08235 0.612527 -1.92878e-21)
(1.0747 0.577336 0)
(1.07842 0.590374 1.48219e-21)
(1.06529 0.552994 0)
(1.07022 0.56467 0)
(1.05461 0.533844 0)
(1.06006 0.542649 0)
(1.04279 0.522816 1.18604e-21)
(1.04893 0.527037 -1.1389e-21)
(1.02861 0.523835 1.3717e-21)
(1.0361 0.521814 -1.31718e-21)
(1.01171 0.530672 1.69e-21)
(1.02048 0.527732 -1.62283e-21)
(0.993645 0.519044 0)
(1.00275 0.529176 0)
(0.976403 0.460978 0)
(0.984872 0.497126 0)
(0.961742 0.344931 3.3695e-21)
(0.968686 0.410112 -3.23545e-21)
(0.951118 0.179596 0)
(0.95575 0.26743 0)
(0.945694 -0.0161096 2.04537e-21)
(0.947166 0.0847624 0)
(0.948616 -0.213902 0)
(0.945788 -0.11626 0)
(0.95903 -0.382447 -4.09421e-21)
(0.95401 -0.303768 4.16503e-21)
(0.974952 -0.508427 0)
(0.966087 -0.451945 1.90263e-21)
(1.09754 -0.188086 4.05624e-21)
(1.09674 -0.289122 -4.23986e-21)
(1.1004 0.0217966 -8.76458e-21)
(1.09909 -0.0829195 8.79569e-21)
(1.10158 0.215162 -5.30771e-22)
(1.10153 0.122279 -2.58426e-25)
(1.09927 0.373096 7.60501e-21)
(1.10103 0.299832 -7.23841e-21)
(1.09272 0.479549 6.24201e-21)
(1.09667 0.433412 -5.94121e-21)
(1.08389 0.529951 4.86457e-21)
(1.08864 0.51132 -4.63023e-21)
(1.07544 0.537972 3.70677e-21)
(1.07973 0.537625 -3.52824e-21)
(1.06834 0.530227 2.85674e-21)
(1.07192 0.534297 -2.71915e-21)
(1.06179 0.528233 2.2933e-21)
(1.06523 0.527692 -2.18284e-21)
(1.05454 0.537658 1.97277e-21)
(1.05842 0.531631 -1.87775e-21)
(1.04564 0.554057 1.87752e-21)
(1.05045 0.545316 -1.78708e-21)
(1.03349 0.571832 9.50787e-22)
(1.04019 0.563123 -1.24066e-22)
(1.01515 0.583472 1.5398e-21)
(1.02536 0.579131 -1.18505e-21)
(0.987062 0.574951 -9.5974e-23)
(1.00258 0.582931 -1.11127e-21)
(0.946336 0.526048 -2.93924e-22)
(0.968379 0.557005 0)
(0.920984 0.479036 0)
(0.8551 0.132085 4.99559e-21)
(1.09903 -0.525536 1.76225e-21)
(0.868912 0.0331563 -5.05187e-21)
(0.985162 -0.551888 -1.48302e-21)
(0.955726 -0.497978 1.27092e-21)
(0.967565 -0.540646 -1.84658e-22)
(0.887111 -0.0800582 0)
(0.926889 -0.0729704 6.99561e-23)
(0.83102 0.229414 -3.66952e-21)
(0.802872 0.114486 -4.15658e-21)
(0.826264 0.122072 1.71916e-20)
(1.02816 -0.567961 -3.04192e-22)
(1.0058 -0.560705 -1.91876e-22)
(1.07442 -0.571743 1.76375e-21)
(1.05089 -0.57269 1.54539e-22)
(1.01432 0.19459 1.34976e-21)
(0.969348 -0.0602216 -5.67795e-21)
(0.991148 0.0692097 2.91793e-21)
(1.05683 0.408444 2.99585e-22)
(1.03645 0.309979 0)
(1.08779 0.54442 9.63343e-22)
(1.07418 0.486489 -5.30328e-22)
(1.10311 0.607614 0)
(1.09732 0.584353 0)
(1.10484 0.617064 0)
(1.10547 0.617411 0)
(1.09718 0.598593 0)
(1.10187 0.609882 0)
(1.08471 0.57164 0)
(1.09133 0.585318 0)
(1.07023 0.546672 0)
(1.07761 0.558556 0)
(1.05503 0.527289 0)
(1.06269 0.536199 0)
(1.03894 0.515577 0)
(1.04717 0.520236 0)
(1.0204 0.515228 0)
(1.03007 0.513932 0)
(0.998661 0.521083 0)
(1.00986 0.51852 0)
(0.975397 0.509801 0)
(0.987026 0.519614 0)
(0.953251 0.45333 0)
(0.964008 0.488578 0)
(0.934503 0.339759 0)
(0.943268 0.403636 0)
(0.921475 0.177221 0)
(0.927014 0.263637 0)
(0.916548 -0.0150152 -1.99218e-21)
(0.917532 0.0838831 0)
(0.921693 -0.209038 0)
(0.917567 -0.113208 9.63916e-22)
(0.936035 -0.375116 0)
(0.928234 -0.296975 2.78386e-23)
(0.944905 -0.442391 4.06116e-22)
(1.13037 -0.38097 -4.15347e-21)
(1.12573 -0.519475 9.09631e-22)
(1.12727 -0.458659 -2.82711e-21)
(1.13534 -0.191411 6.81716e-22)
(1.1329 -0.290741 -5.38578e-22)
(1.13814 0.0168301 0)
(1.13735 -0.0876142 -1.08241e-24)
(1.13674 0.211183 0)
(1.13799 0.11746 2.62796e-25)
(1.13057 0.368495 0)
(1.13438 0.295607 0)
(1.1193 0.474581 0)
(1.1256 0.428557 0)
(1.10501 0.525572 0)
(1.11245 0.506644 0)
(1.09087 0.534554 0)
(1.0979 0.533866 0)
(1.07844 0.527202 0)
(1.08457 0.531302 0)
(1.06713 0.524639 0)
(1.07285 0.524565 0)
(1.05547 0.532847 0)
(1.06151 0.527518 0)
(1.04209 0.547429 0)
(1.04916 0.539697 0)
(1.025 0.562164 0)
(1.03423 0.555143 0)
(1.00104 0.569084 0)
(1.01412 0.567267 0)
(0.966971 0.554614 9.75368e-23)
(0.985447 0.565583 0)
(0.921519 0.500769 -1.00954e-21)
(0.945594 0.533767 0)
(0.866761 0.389789 -3.2096e-22)
(0.895246 0.453482 9.75859e-22)
(0.80906 0.215453 8.91985e-21)
(0.83812 0.312031 3.07179e-22)
(0.908797 -0.195027 1.43767e-21)
(0.948606 -0.187543 4.15214e-21)
(1.09958 -0.571244 0)
(0.835328 0.0189703 -3.40102e-21)
(0.996238 -0.5829 7.36862e-22)
(0.980168 -0.571524 -1.24214e-21)
(0.852125 -0.0881634 0)
(0.871058 -0.200311 -5.10259e-21)
(0.783107 0.106597 -6.36118e-21)
(0.780414 -0.00565891 -3.52836e-21)
(1.15298 -0.513859 2.44065e-21)
(0.893454 -0.310057 0)
(0.929882 -0.304904 -1.73904e-21)
(1.12298 -0.565162 5.96854e-21)
(1.14675 -0.558893 -6.02894e-21)
(0.760787 -0.00822021 6.01404e-21)
(0.805592 0.00418396 0)
(1.03372 -0.597711 3.65473e-22)
(1.01384 -0.59091 8.77057e-22)
(1.07571 -0.601332 0)
(1.05415 -0.601283 -4.83659e-23)
(1.11936 -0.59408 0)
(1.0984 -0.599977 0)
(1.014 -0.0430974 0)
(0.968761 -0.293701 4.18317e-21)
(0.991152 -0.171785 -2.67957e-21)
(1.06101 0.211428 4.26417e-21)
(1.03719 0.0865103 -5.8577e-21)
(1.10211 0.421919 -1.55997e-21)
(1.08354 0.325553 1.25071e-21)
(1.12683 0.55422 0)
(1.1169 0.498682 0)
(1.13391 0.610049 0)
(1.13242 0.590579 0)
(1.12717 0.613343 0)
(1.13194 0.616436 0)
(1.11222 0.591475 0)
(1.12037 0.604138 0)
(1.09387 0.563169 0)
(1.10326 0.577346 0)
(1.0746 0.537809 0)
(1.08428 0.549821 0)
(1.0552 0.518253 0)
(1.06492 0.527267 0)
(1.03516 0.505813 0)
(1.04536 0.510948 0)
(1.01259 0.503889 0)
(1.02432 0.503443 0)
(0.986399 0.508269 0)
(0.999893 0.506332 0)
(0.958475 0.496643 0)
(0.972421 0.506444 0)
(0.932285 0.441084 0)
(0.944941 0.475708 0)
(0.910646 0.329738 0)
(0.920716 0.392299 0)
(0.895991 0.171056 0)
(0.902218 0.255302 0)
(0.890865 -0.0149966 0)
(0.891969 0.0801417 0)
(0.89757 -0.203128 0)
(0.892737 -0.110566 0)
(0.914941 -0.365912 0)
(0.905163 -0.28894 -2.7348e-23)
(0.938763 -0.485552 -7.99972e-22)
(0.926138 -0.431582 -3.58065e-22)
(0.966467 -0.558024 2.34988e-21)
(0.952452 -0.527515 0)
(1.16219 -0.376223 9.9656e-22)
(1.15743 -0.452585 -8.53071e-22)
(1.17008 -0.188453 0)
(1.16675 -0.28671 -9.7737e-22)
(1.17305 0.0174488 0)
(1.17235 -0.0856084 0)
(1.16965 0.20878 0)
(1.17219 0.116524 0)
(1.15958 0.363035 0)
(1.16545 0.291636 0)
(1.1436 0.466738 0)
(1.15225 0.421729 0)
(1.12428 0.517116 0)
(1.13417 0.498272 0)
(1.10512 0.526913 0)
(1.11455 0.525739 0)
(1.08801 0.520571 0)
(1.09635 0.524253 0)
(1.07244 0.51829 0)
(1.08018 0.518227 0)
(1.05672 0.525904 0)
(1.06475 0.521003 0)
(1.03912 0.538981 0)
(1.04831 0.53216 0)
(1.01737 0.550809 0)
(1.02898 0.545471 0)
(0.988343 0.55305 0)
(1.004 0.553808 0)
(0.949293 0.532651 0)
(0.970202 0.546678 0)
(0.900039 0.473514 0)
(0.925794 0.508915 0)
(0.844973 0.363316 -1.04782e-21)
(0.872898 0.42527 0)
(0.790977 0.200419 -5.68671e-22)
(0.817024 0.287899 1.29515e-21)
(0.745839 -0.00622769 0)
(0.766999 0.0999817 -2.80263e-21)
(0.914997 -0.407981 -7.51614e-21)
(0.951144 -0.399512 5.98931e-21)
(0.742451 -0.122983 -8.84733e-21)
(0.728473 -0.11611 -9.03447e-21)
(0.818554 -0.0999458 -1.26125e-21)
(0.76285 -0.121338 3.50931e-21)
(1.14045 -0.587233 -4.99886e-21)
(0.836676 -0.20742 0)
(0.980363 -0.578383 5.1683e-22)
(0.955142 -0.543113 -1.11001e-21)
(0.970648 -0.564185 4.59392e-22)
(0.859113 -0.312881 4.87892e-21)
(0.881242 -0.412539 -4.71166e-21)
(0.733316 -0.229917 3.32416e-22)
(0.903847 -0.494211 4.11274e-21)
(0.934699 -0.489139 -5.51828e-22)
(0.719721 -0.221692 7.24912e-21)
(0.788716 -0.112503 9.81773e-22)
(1.00627 -0.602136 -1.19015e-21)
(0.992397 -0.591426 1.1266e-21)
(1.03858 -0.61529 -3.16777e-22)
(1.02173 -0.609982 0)
(1.07523 -0.617733 -1.24436e-21)
(1.05615 -0.618054 0)
(1.11306 -0.60905 -6.1298e-22)
(1.09466 -0.615036 1.87334e-21)
(1.00974 -0.274647 -3.95583e-21)
(0.965619 -0.478677 4.4609e-21)
(0.988016 -0.384513 1.33849e-21)
(1.06133 -0.021271 0)
(1.03564 -0.151775 3.26095e-21)
(1.1105 0.231702 0)
(1.08629 0.108609 0)
(1.14794 0.436863 0)
(1.13158 0.343601 0)
(1.16562 0.5605 0)
(1.1594 0.509381 0)
(1.16387 0.607599 0)
(1.16691 0.592201 0)
(1.14853 0.605362 0)
(1.15744 0.610761 0)
(1.12656 0.581128 0)
(1.13801 0.594655 0)
(1.10273 0.552242 0)
(1.1147 0.566573 0)
(1.07903 0.52691 0)
(1.09082 0.538879 0)
(1.05574 0.507366 0)
(1.06735 0.516412 0)
(1.03211 0.494228 0)
(1.04407 0.499849 0)
(1.00599 0.490557 0)
(1.01951 0.491077 0)
(0.975896 0.493311 0)
(0.991403 0.492053 0)
(0.943743 0.481727 0)
(0.959807 0.491247 0)
(0.913769 0.428073 0)
(0.928199 0.461547 0)
(0.889595 0.319934 0)
(0.900755 0.380741 0)
(0.873819 0.165728 0)
(0.880465 0.247529 0)
(0.868907 -0.0144455 0)
(0.869826 0.077456 0)
(0.87681 -0.196106 0)
(0.871233 -0.106757 0)
(0.896734 -0.354584 -5.67748e-24)
(0.88545 -0.27922 5.68382e-24)
(0.924023 -0.471292 -6.67403e-23)
(0.909786 -0.418785 3.93644e-23)
(0.939479 -0.512718 -3.01438e-22)
(1.17972 -0.506527 -1.54044e-21)
(1.16143 -0.577175 6.13233e-21)
(1.17046 -0.55068 -2.50116e-21)
(1.19341 -0.371344 -2.17385e-22)
(1.18658 -0.44656 -2.12276e-22)
(1.20252 -0.185054 0)
(1.19846 -0.282698 0)
(1.20535 0.0175706 0)
(1.20484 -0.083712 0)
(1.20008 0.204965 0)
(1.20379 0.1147 0)
(1.1865 0.355436 0)
(1.19428 0.285846 0)
(1.16614 0.45623 0)
(1.17703 0.4125 0)
(1.14212 0.505565 0)
(1.15435 0.486968 0)
(1.11838 0.516119 0)
(1.13003 0.514412 0)
(1.09706 0.511034 0)
(1.10741 0.514122 0)
(1.07764 0.509354 0)
(1.08724 0.509124 0)
(1.05819 0.516562 0)
(1.06807 0.512003 0)
(1.03664 0.528162 0)
(1.04783 0.522242 0)
(1.01062 0.537101 0)
(1.02439 0.533422 0)
(0.977213 0.534904 0)
(0.995039 0.538066 0)
(0.934193 0.509269 0)
(0.956989 0.525945 0)
(0.881991 0.445678 0)
(0.909076 0.483104 0)
(0.825094 0.333882 0)
(0.853745 0.396114 0)
(0.771562 0.175158 0)
(0.797204 0.259909 0)
(0.731661 -0.0126386 9.9119e-22)
(0.749453 0.0830656 0)
(0.711606 -0.210272 0)
(0.718216 -0.11182 4.17678e-21)
(0.922772 -0.556927 -2.49111e-21)
(0.951246 -0.547575 1.9594e-21)
(0.720457 -0.311632 0)
(0.713996 -0.296061 0)
(1.13182 -0.601101 0)
(0.805558 -0.216604 -8.86197e-22)
(0.752593 -0.230016 0)
(0.993782 -0.59062 1.86113e-22)
(0.985683 -0.576991 7.52093e-22)
(0.826585 -0.319792 1.03705e-21)
(0.732748 -0.322909 1.40646e-21)
(0.849842 -0.414862 1.20025e-21)
(0.873778 -0.497715 -1.41624e-21)
(0.895682 -0.561044 0)
(1.18188 -0.564786 -9.87084e-22)
(0.730174 -0.383881 -3.29091e-21)
(0.91467 -0.604008 -4.89089e-21)
(0.937366 -0.597924 -3.40146e-21)
(0.724853 -0.362188 -6.37181e-22)
(1.14986 -0.590246 0)
(1.16739 -0.577315 2.70157e-21)
(0.776799 -0.225649 -1.41055e-21)
(1.01531 -0.612108 0)
(1.00366 -0.6024 6.8246e-23)
(1.04197 -0.623201 1.50686e-22)
(1.02804 -0.618893 -1.34516e-22)
(1.07345 -0.623717 6.87391e-23)
(1.05716 -0.624917 0)
(1.10602 -0.612884 0)
(1.08986 -0.619823 -6.99497e-23)
(1.13788 -0.591854 3.43388e-21)
(1.12224 -0.603656 -1.81292e-21)
(1.00008 -0.458775 -2.26026e-21)
(0.961288 -0.585279 -1.70903e-21)
(0.980306 -0.532667 -2.87405e-22)
(1.05313 -0.251057 2.50208e-23)
(1.02553 -0.364176 0)
(1.11038 0.00420152 0)
(1.08181 -0.12665 -1.9646e-21)
(1.1606 0.253852 1.33925e-21)
(1.13719 0.133014 -1.66837e-21)
(1.19365 0.450015 0)
(1.17994 0.361847 0)
(1.20331 0.562277 0)
(1.20147 0.516824 0)
(1.19212 0.600529 0)
(1.19987 0.589046 0)
(1.16836 0.593533 0)
(1.18126 0.60082 0)
(1.1398 0.567733 0)
(1.15432 0.581741 0)
(1.11092 0.538879 0)
(1.12525 0.553088 0)
(1.08319 0.513952 0)
(1.0969 0.525718 0)
(1.0564 0.494611 0)
(1.06972 0.503607 0)
(1.02956 0.480888 0)
(1.0431 0.486947 0)
(1.00035 0.475434 0)
(1.01542 0.476964 0)
(0.966911 0.476346 0)
(0.98414 0.475883 0)
(0.931129 0.464705 0)
(0.949014 0.473953 0)
(0.897899 0.413294 0)
(0.913855 0.445386 0)
(0.871588 0.309127 0)
(0.883649 0.367766 0)
(0.855053 0.160236 0)
(0.861925 0.239199 0)
(0.850562 -0.0134947 0)
(0.851162 0.0750217 0)
(0.859676 -0.188404 0)
(0.853403 -0.102368 0)
(0.881827 -0.341664 6.44036e-22)
(0.869254 -0.2688 -6.35259e-22)
(0.911888 -0.455716 -2.58608e-22)
(0.896 -0.403554 3.47467e-22)
(0.945845 -0.526804 0)
(0.928777 -0.496395 -1.16193e-22)
(0.979037 -0.561763 -1.73238e-21)
(0.962827 -0.548317 -3.99663e-22)
(1.2052 -0.497191 -7.29709e-22)
(1.19388 -0.539181 1.28937e-21)
(1.22229 -0.364828 2.17997e-22)
(1.21451 -0.439093 9.14837e-22)
(1.23249 -0.18176 0)
(1.22834 -0.277567 0)
(1.23479 0.0168568 0)
(1.23476 -0.0822403 0)
(1.22763 0.199576 0)
(1.23248 0.111682 0)
(1.21089 0.345789 0)
(1.22039 0.2782 0)
(1.18665 0.443628 0)
(1.19953 0.401167 0)
(1.1585 0.491964 0)
(1.1728 0.473592 0)
(1.13069 0.50334 0)
(1.14434 0.501061 0)
(1.10561 0.499586 0)
(1.11779 0.50204 0)
(1.0827 0.49852 0)
(1.09401 0.498121 0)
(1.05979 0.505222 0)
(1.0714 0.501062 0)
(1.03457 0.515173 0)
(1.04762 0.510236 0)
(1.00466 0.52111 0)
(1.02038 0.519122 0)
(0.967427 0.514583 0)
(0.987129 0.520051 0)
(0.921131 0.484196 0)
(0.945455 0.503218 0)
(0.866756 0.417144 0)
(0.894766 0.456015 0)
(0.809103 0.305149 0)
(0.837917 0.366974 0)
(0.756579 0.150836 0)
(0.781562 0.232696 0)
(0.718416 -0.0282861 0)
(0.73528 0.0627469 0)
(0.704707 -0.204294 1.3021e-21)
(0.707512 -0.118312 -8.32799e-22)
(0.721183 -0.33913 -4.00324e-21)
(0.709603 -0.279844 9.41839e-22)
(0.743268 -0.406004 0)
(0.739967 -0.379092 1.94728e-21)
(0.92845 -0.626502 1.66966e-21)
(0.947904 -0.616536 9.53116e-23)
(0.797316 -0.324971 9.25284e-22)
(0.749812 -0.328594 -1.34526e-21)
(1.1526 -0.578446 9.67233e-22)
(0.820452 -0.418663 -9.50844e-22)
(0.739299 -0.399626 5.05647e-22)
(0.994608 -0.569158 6.92904e-22)
(0.974291 -0.545363 1.7645e-22)
(0.991081 -0.553847 -3.17473e-22)
(0.845879 -0.498067 1.0164e-21)
(0.74789 -0.434196 3.29513e-21)
(0.869668 -0.562527 1.96374e-21)
(0.771843 -0.430655 0)
(0.892264 -0.605927 1.6603e-21)
(0.910029 -0.630496 0)
(0.923286 -0.637571 2.05052e-21)
(0.937601 -0.630584 -1.83896e-21)
(0.771574 -0.327811 4.41365e-22)
(1.00608 -0.595903 2.32948e-22)
(0.999632 -0.583319 0)
(1.02291 -0.614881 -5.08519e-22)
(1.01375 -0.606521 0)
(1.04455 -0.623909 0)
(1.03325 -0.620667 6.34433e-22)
(1.0703 -0.622375 0)
(1.05696 -0.624556 0)
(1.0974 -0.609713 3.35082e-24)
(1.08386 -0.617475 0)
(1.12403 -0.58688 0)
(1.111 -0.59954 0)
(0.986668 -0.56729 1.28984e-21)
(0.951926 -0.619522 0)
(0.967572 -0.602643 -8.27939e-23)
(1.03686 -0.433434 0)
(1.00992 -0.511658 8.13136e-22)
(1.09767 -0.222849 0)
(1.06641 -0.33581 0)
(1.16 0.0313797 -1.2953e-21)
(1.12959 -0.0980365 0)
(1.21057 0.275926 0)
(1.18759 0.158776 1.59928e-21)
(1.23813 0.459406 0)
(1.2278 0.377813 0)
(1.2386 0.55913 0)
(1.24161 0.51962 0)
(1.21789 0.588846 0)
(1.23027 0.581005 0)
(1.18621 0.57801 0)
(1.20281 0.586695 0)
(1.15169 0.551562 0)
(1.16896 0.565619 0)
(1.11835 0.523395 0)
(1.13476 0.537192 0)
(1.08708 0.499247 0)
(1.10248 0.510657 0)
(1.05723 0.480294 0)
(1.07203 0.489164 0)
(1.0276 0.466104 0)
(1.0425 0.472551 0)
(0.995805 0.458853 0)
(1.01216 0.461428 0)
(0.959627 0.457755 0)
(0.978272 0.458176 0)
(0.92078 0.446074 0)
(0.940217 0.454994 0)
(0.884761 0.397324 0)
(0.902019 0.42778 0)
(0.85672 0.297745 0)
(0.869484 0.353903 0)
(0.839731 0.154724 0)
(0.846677 0.230601 0)
(0.835844 -0.0121503 0)
(0.836039 0.072833 0)
(0.846206 -0.18003 0)
(0.839226 -0.0974183 0)
(0.869729 -0.327226 0)
(0.856502 -0.257364 0)
(0.902424 -0.438679 -6.24207e-23)
(0.885253 -0.387728 0)
(0.938627 -0.509251 -4.11421e-22)
(0.920274 -0.478728 5.18125e-22)
(0.95662 -0.530957 -1.75469e-22)
(1.2012 -0.55 0)
(1.16697 -0.562727 -3.49955e-21)
(1.18422 -0.561644 1.43154e-21)
(1.22907 -0.485981 0)
(1.21578 -0.525898 0)
(1.24899 -0.357158 0)
(1.24025 -0.429392 0)
(1.2597 -0.178412 0)
(1.25553 -0.27213 0)
(1.26102 0.0154279 0)
(1.26161 -0.0811732 0)
(1.25191 0.192854 0)
(1.25786 0.10761 0)
(1.23231 0.334363 0)
(1.24333 0.268976 0)
(1.20471 0.429103 0)
(1.2193 0.387939 0)
(1.17311 0.47655 0)
(1.18913 0.458332 0)
(1.1419 0.488924 0)
(1.15723 0.485983 0)
(1.11358 0.486622 0)
(1.12735 0.488393 0)
(1.08753 0.486166 0)
(1.1004 0.485615 0)
(1.06143 0.492236 0)
(1.07464 0.488547 0)
(1.03284 0.500371 0)
(1.04759 0.496494 0)
(0.999429 0.50323 0)
(1.0169 0.50295 0)
(0.958883 0.492505 0)
(0.980185 0.500178 0)
(0.909957 0.457776 0)
(0.935472 0.478895 0)
(0.854154 0.388007 0)
(0.882699 0.427907 0)
(0.796566 0.276754 0)
(0.825147 0.337695 0)
(0.745476 0.127701 0)
(0.769616 0.206294 0)
(0.710037 -0.0417485 0)
(0.72525 0.0439706 0)
(0.700839 -0.201854 0)
(0.701373 -0.125401 0)
(0.722254 -0.317368 3.81845e-22)
(0.707973 -0.266194 0)
(0.7456 -0.355091 8.26577e-22)
(0.929702 -0.632154 1.08713e-21)
(0.940341 -0.622399 7.50649e-22)
(1.13642 -0.572597 -1.41746e-21)
(0.794533 -0.418045 3.36902e-24)
(0.753886 -0.409933 0)
(1.00924 -0.572195 5.64854e-22)
(1.00703 -0.557671 -7.77713e-23)
(0.819904 -0.496988 1.27804e-23)
(0.754708 -0.454853 -5.08281e-22)
(0.845972 -0.559452 0)
(0.773761 -0.46272 0)
(0.870828 -0.603309 0)
(0.807929 -0.439974 0)
(0.892156 -0.629219 -2.63816e-21)
(0.908897 -0.639388 0)
(0.919543 -0.637382 -2.94655e-21)
(0.842713 -0.421394 5.05886e-22)
(1.17996 -0.544923 1.12559e-21)
(0.923834 -0.626293 -1.30422e-21)
(0.930283 -0.617843 0)
(1.14871 -0.556542 -1.54455e-21)
(1.15973 -0.538675 4.5451e-22)
(0.772227 -0.415311 0)
(1.01701 -0.596807 0)
(1.0125 -0.585318 -9.23875e-22)
(1.02941 -0.613161 0)
(1.02274 -0.606136 0)
(1.04596 -0.619872 0)
(1.03723 -0.617739 0)
(1.06622 -0.616361 0)
(1.05569 -0.619483 0)
(1.0878 -0.602207 -3.29972e-24)
(1.07689 -0.610657 0)
(1.10964 -0.577941 7.52338e-22)
(1.09891 -0.591265 -8.32755e-23)
(1.12992 -0.546198 9.61712e-22)
(1.11987 -0.562762 -1.5703e-21)
(0.967416 -0.603133 -2.19912e-22)
(0.936942 -0.605297 4.41516e-22)
(0.951085 -0.608781 -4.40879e-22)
(1.01289 -0.543561 -5.64082e-22)
(0.988172 -0.582444 7.76229e-22)
(1.07414 -0.402751 9.40477e-22)
(1.04189 -0.483595 -7.81455e-22)
(1.14363 -0.189785 0)
(1.10854 -0.303366 -9.30361e-22)
(1.20981 0.0606327 0)
(1.17805 -0.0661129 0)
(1.25899 0.295034 0)
(1.23743 0.183467 0)
(1.2797 0.464222 0)
(1.27337 0.389939 0)
(1.27047 0.550966 0)
(1.27844 0.517461 0)
(1.24055 0.572768 0)
(1.25733 0.568155 0)
(1.2017 0.559157 0)
(1.2216 0.5687 0)
(1.16202 0.53296 0)
(1.18165 0.546656 0)
(1.12489 0.506055 0)
(1.14306 0.519189 0)
(1.09061 0.483004 0)
(1.10744 0.493925 0)
(1.05816 0.464597 0)
(1.07423 0.473272 0)
(1.02618 0.450075 0)
(1.04222 0.45684 0)
(0.992305 0.441088 0)
(1.00967 0.444699 0)
(0.954024 0.437833 0)
(0.973755 0.439231 0)
(0.912736 0.426017 0)
(0.933429 0.434618 0)
(0.874386 0.380251 0)
(0.89274 0.408852 0)
(0.844937 0.285891 0)
(0.858253 0.339237 0)
(0.827752 0.149324 0)
(0.834656 0.221858 0)
(0.824555 -0.0103067 0)
(0.824317 0.0709922 0)
(0.836057 -0.1709 0)
(0.828472 -0.0918692 0)
(0.860901 -0.312179 0)
(0.846984 -0.245041 0)
(0.895157 -0.42008 0)
(0.87715 -0.370821 0)
(0.933156 -0.490213 -3.70608e-22)
(0.913917 -0.459749 3.30923e-22)
(0.970871 -0.527664 -8.95107e-23)
(0.952308 -0.512539 3.30697e-23)
(1.00569 -0.541776 -7.98699e-24)
(0.9887 -0.536947 -5.49858e-22)
(1.21838 -0.533712 0)
(1.20008 -0.54359 -8.55279e-22)
(1.25087 -0.472841 0)
(1.23595 -0.510568 0)
(1.273 -0.349081 0)
(1.26343 -0.418807 0)
(1.28376 -0.175366 0)
(1.2798 -0.266578 0)
(1.28374 0.0132126 0)
(1.28513 -0.0806786 0)
(1.27258 0.184945 0)
(1.27961 0.102557 0)
(1.25047 0.321439 0)
(1.2628 0.258388 0)
(1.22007 0.412956 0)
(1.23608 0.37313 0)
(1.18568 0.459521 0)
(1.20309 0.44144 0)
(1.15175 0.472972 0)
(1.16844 0.469323 0)
(1.12073 0.472204 0)
(1.13585 0.473256 0)
(1.09193 0.472364 0)
(1.10619 0.471667 0)
(1.06296 0.477727 0)
(1.07763 0.474555 0)
(1.03132 0.483954 0)
(1.04762 0.481178 0)
(0.994825 0.483755 0)
(1.01382 0.485148 0)
(0.951503 0.469063 0)
(0.974123 0.478794 0)
(0.900592 0.43046 0)
(0.926968 0.453412 0)
(0.844029 0.358613 0)
(0.872779 0.39921 0)
(0.787123 0.248805 0)
(0.815173 0.308493 0)
(0.738113 0.105888 0)
(0.761046 0.180769 0)
(0.706499 -0.0525894 0)
(0.719503 0.0270757 0)
(0.701839 -0.198067 0)
(0.70031 -0.1291 0)
(0.72883 -0.30033 0)
(0.711019 -0.255407 0)
(0.788666 -0.355186 0)
(0.755941 -0.333269 4.33987e-23)
(0.920434 -0.610034 0)
(0.923719 -0.597305 -8.12464e-23)
(0.875837 -0.417326 5.9381e-22)
(0.887596 -0.398608 1.9573e-21)
(0.79752 -0.49168 -8.19127e-22)
(0.765031 -0.471065 0)
(1.13918 -0.528432 7.39901e-22)
(0.824499 -0.552985 8.11592e-22)
(0.776813 -0.488719 0)
(1.02204 -0.543767 3.07435e-23)
(1.00556 -0.524925 5.00174e-23)
(1.0229 -0.527715 -5.01626e-23)
(0.850991 -0.59703 0)
(0.805079 -0.475568 2.78982e-22)
(0.875024 -0.624306 1.59811e-21)
(0.837723 -0.454189 -8.36394e-22)
(0.895104 -0.636601 1.24247e-21)
(0.868422 -0.439317 1.10951e-22)
(0.909514 -0.637644 8.99387e-22)
(0.916785 -0.631263 1.29799e-21)
(0.916858 -0.619439 1.23358e-22)
(0.909671 -0.588429 -2.66471e-23)
(0.909231 -0.602611 -1.07957e-22)
(0.905287 -0.430146 0)
(0.91374 -0.410241 -1.7721e-23)
(0.779186 -0.483323 0)
(1.02278 -0.572347 -8.86216e-23)
(1.02201 -0.558677 7.23959e-23)
(1.02691 -0.594471 -3.7988e-22)
(1.02433 -0.584334 7.4447e-22)
(1.03477 -0.608591 0)
(1.03045 -0.60271 0)
(1.04635 -0.613231 0)
(1.04013 -0.612106 0)
(1.06116 -0.607977 0)
(1.05343 -0.611895 0)
(1.07774 -0.592407 0)
(1.06928 -0.601341 0)
(1.09464 -0.567524 0)
(1.08621 -0.581054 -8.47623e-23)
(1.11075 -0.535008 0)
(1.10285 -0.55188 0)
(0.943757 -0.588998 0)
(0.90963 -0.57148 3.91193e-23)
(0.926535 -0.581719 8.04109e-23)
(0.984261 -0.580898 1.76323e-22)
(0.961931 -0.590767 2.96269e-22)
(1.041 -0.512639 0)
(1.01043 -0.556012 8.49144e-24)