/*--------------------------------*- C++ -*----------------------------------*\
  =========                 |
  \\      /  F ield         | OpenFOAM: The Open Source CFD Toolbox
   \\    /   O peration     | Website:  https://openfoam.org
    \\  /    A nd           | Version:  10
     \\/     M anipulation  |
\*---------------------------------------------------------------------------*/
FoamFile
{
    format      ascii;
    class       volScalarField;
    location    "27.5";
    object      p;
}
// * * * * * * * * * * * * * * * * * * * * * * * * * * * * * * * * * * * * * //

dimensions      [0 2 -2 0 0 0 0];

internalField   nonuniform List<scalar> 
28942
(
-0.320161
-0.317304
-0.437399
0.208366
0.218703
-0.00107527
0.0020752
-0.00332076
-0.0509371
-0.0414199
-0.729503
-0.723547
-0.722897
-0.722342
0.0108219
0.013295
0.48245
0.501754
0.00870056
0.0982568
0.398372
0.398907
-0.767239
-0.769381
-0.787239
-0.80013
0.740205
0.760615
-0.191211
-0.174506
0.00315397
0.00310071
0.0296547
0.0165587
0.269052
0.316685
0.536349
0.655111
-0.00398596
0.564738
0.355232
0.383158
0.0205975
0.0268513
0.0273251
0.001639
0.0024208
0.00147177
0.00300551
0.00873247
0.0173398
0.0108739
0.0108391
-0.0454946
-0.0340953
-0.618143
-0.518991
-0.728288
-0.723817
-0.729518
-0.733863
-0.736925
-0.733151
-0.33602
-0.453667
-0.285538
-0.196158
0.382783
0.34957
-0.320756
-0.325433
-0.330253
0.361586
0.348105
0.349241
-0.149245
-0.141352
-0.0887622
-0.404587
-0.479577
-0.371678
-0.539697
-0.369676
-0.404666
0.0570873
0.143027
0.209382
0.188352
0.12712
0.135262
0.172535
0.1903
-0.696842
-0.742002
-0.697648
-0.661333
-0.631302
0.190446
0.238457
-0.441239
0.236714
0.238923
0.216803
0.223515
-0.0423097
-0.0428707
-0.0516805
0.24277
0.2518
0.251739
-0.723053
-0.719374
-0.32104
-0.284725
-0.299373
0.890245
0.824114
0.783738
0.851642
0.0926065
0.228154
0.166077
-0.0930484
-0.114052
0.91174
0.91435
0.885019
-0.0824931
-0.0339435
0.00130426
0.00282727
0.000212113
0.337307
0.462976
0.281972
0.272224
0.352169
0.0582388
0.231386
0.425776
-0.690417
-0.695271
-0.0185942
0.0294366
0.0330761
-0.449297
-0.460658
-0.415384
-0.700919
0.26082
0.261343
0.0692009
0.0118178
0.0093649
0.00776619
0.0106063
0.330387
0.260046
-0.441594
-0.387922
-0.370672
-0.323217
-0.315923
0.0104296
-0.764679
-0.726812
0.419942
0.434441
0.473881
0.455025
0.392781
0.101821
0.0977785
-0.00764655
-0.0150047
0.217884
0.206877
0.225744
0.235905
0.235497
0.248157
0.260627
0.295448
0.276634
0.258713
0.278568
0.316418
0.371447
0.385507
-0.215494
-0.179839
-0.302724
-0.000181698
0.000490491
-0.362541
-0.352465
0.00557823
0.00511177
0.00396899
0.00379764
-0.0718754
-0.0752191
-0.0693866
-0.712201
-0.718865
-0.713958
-0.749663
-0.7546
-0.747923
-0.792203
-0.869056
-0.818892
0.884919
0.863809
0.898017
-0.032434
-0.0256554
-0.0354337
0.450006
0.431864
0.443765
-0.216702
-0.204092
-0.226439
-0.189443
-0.174081
-0.159034
-0.168091
-0.144593
-0.152783
-0.18412
-0.200716
-0.216621
-0.230468
-0.240975
-0.131803
-0.138627
-0.232699
-0.247897
-0.234785
-0.120858
-0.126057
-0.250316
-0.111323
-0.103261
-0.115451
-0.106586
-0.232663
-0.248177
-0.0967709
-0.0993903
-0.226432
-0.24133
-0.0917666
-0.0937774
-0.216501
-0.230441
-0.0881715
-0.0896368
-0.203506
-0.216255
-0.0858553
-0.0868494
-0.188436
-0.199885
-0.0847593
-0.0853185
-0.172345
-0.182416
-0.084809
-0.0849678
-0.156307
-0.164965
-0.0859957
-0.0857456
-0.140855
-0.148184
-0.0883228
-0.0876718
-0.127091
-0.133081
-0.0918311
-0.0908616
-0.114868
-0.119751
-0.0967831
-0.0953663
-0.104765
-0.108546
-0.103499
-0.101443
-0.108262
-0.099267
-0.0964439
-0.0993486
-0.131436
-0.118986
-0.160192
-0.145276
-0.188904
-0.175021
-0.209948
-0.200844
-0.217069
-0.215538
-0.209341
-0.215112
-0.189027
-0.200302
-0.162349
-0.176079
-0.135427
-0.148649
-0.113772
-0.123781
-0.0980029
-0.105177
-0.0879965
-0.0922973
-0.0832533
-0.0850148
-0.0831872
-0.0826581
-0.0876196
-0.0848335
-0.097077
-0.0916039
-0.104035
-0.111704
-0.109138
-0.0887624
-0.098099
-0.0926989
-0.0844382
-0.0860112
-0.0846724
-0.0839837
-0.0897335
-0.0865654
-0.100365
-0.0942953
-0.117563
-0.108083
-0.142379
-0.128958
-0.174325
-0.15773
-0.20941
-0.191847
-0.240897
-0.22623
-0.259782
-0.252417
-0.259804
-0.262218
-0.240864
-0.25251
-0.208226
-0.225719
-0.170789
-0.189549
-0.136713
-0.15299
-0.110631
-0.122634
-0.100591
-0.0919501
-0.1126
-0.105102
-0.0918902
-0.0924294
-0.0862298
-0.0898662
-0.100141
-0.0859018
-0.0922401
-0.12087
-0.109705
-0.146667
-0.133278
-0.172685
-0.160114
-0.191692
-0.183483
-0.198233
-0.196747
-0.190857
-0.196186
-0.172539
-0.182823
-0.148868
-0.160768
-0.125241
-0.136849
-0.10597
-0.114913
-0.092081
-0.0983591
-0.0835235
-0.0871545
-0.079866
-0.0811191
-0.0806611
-0.0797223
-0.085817
-0.0826832
-0.0958673
-0.0901605
-0.121402
-0.122598
-0.111679
-0.102976
-0.0937502
-0.0999259
-0.113422
-0.118282
-0.0855713
-0.0890011
-0.0819972
-0.083244
-0.0828765
-0.0818715
-0.0885928
-0.0850925
-0.0999566
-0.093507
-0.118093
-0.108105
-0.144119
-0.130084
-0.177603
-0.160089
-0.214905
-0.196154
-0.24791
-0.232545
-0.267689
-0.259985
-0.267377
-0.270194
-0.24732
-0.259555
-0.213304
-0.231521
-0.174343
-0.193859
-0.138759
-0.155747
-0.111131
-0.123859
-0.0915948
-0.100392
-0.0811146
-0.0860414
-0.0844863
-0.0862031
-0.121791
-0.107485
-0.0820993
-0.0778497
-0.0812994
-0.0790316
-0.0849038
-0.109042
-0.119134
-0.123034
-0.116332
-0.072141
-0.0758808
-0.0694377
-0.0705619
-0.0785182
-0.0746507
-0.0908352
-0.0838967
-0.109189
-0.0992984
-0.132073
-0.120217
-0.155318
-0.144075
-0.172294
-0.16496
-0.178715
-0.17688
-0.171593
-0.176414
-0.155444
-0.164488
-0.134624
-0.14517
-0.114048
-0.124084
-0.0972217
-0.105039
-0.0852465
-0.0906245
-0.0781131
-0.081091
-0.0754888
-0.0762644
-0.0770518
-0.0757573
-0.0827987
-0.0793888
-0.0932146
-0.0873901
-0.100409
-0.132282
-0.133343
-0.133868
-0.128516
-0.0885124
-0.100635
-0.0939248
-0.0813289
-0.0843778
-0.0784994
-0.0794087
-0.0799763
-0.0786829
-0.0862336
-0.0824662
-0.0981442
-0.0914154
-0.116944
-0.106601
-0.143818
-0.129338
-0.178405
-0.160287
-0.216967
-0.197602
-0.251249
-0.235292
-0.271446
-0.263612
-0.270947
-0.273934
-0.250065
-0.26276
-0.215072
-0.233781
-0.175159
-0.195143
-0.138659
-0.156097
-0.109976
-0.123244
-0.0894157
-0.0987619
-0.0755643
-0.0817005
-0.0751484
-0.0709778
-0.0795737
-0.0821278
-0.130708
-0.108454
-0.0749464
-0.0780911
-0.0709279
-0.067901
-0.0727974
-0.0654746
-0.0696779
-0.0816414
-0.0631373
-0.0635851
-0.0651111
-0.0638162
-0.0701773
-0.0670747
-0.080589
-0.0746622
-0.0965885
-0.0879482
-0.116703
-0.106287
-0.137174
-0.127255
-0.152128
-0.145687
-0.156632
-0.155959
-0.151709
-0.155639
-0.137781
-0.145564
-0.119795
-0.128968
-0.102114
-0.110707
-0.0876671
-0.0943749
-0.0775476
-0.0820568
-0.0717937
-0.0741383
-0.0701584
-0.0704811
-0.07242
-0.0708086
-0.0786454
-0.0750217
-0.0892488
-0.0833906
-0.104972
-0.0964188
-0.126407
-0.115011
-0.145857
-0.138948
-0.143458
-0.144051
-0.146115
-0.133673
-0.139795
-0.117088
-0.125984
-0.0929477
-0.107286
-0.0998157
-0.0823923
-0.087103
-0.0761851
-0.0788095
-0.0740285
-0.0746053
-0.0760406
-0.0744964
-0.0827114
-0.078749
-0.0949668
-0.0880701
-0.114117
-0.103594
-0.141405
-0.126705
-0.176593
-0.158144
-0.215868
-0.196151
-0.250777
-0.234525
-0.271115
-0.263304
-0.270381
-0.273515
-0.249015
-0.261974
-0.213475
-0.232453
-0.173068
-0.193291
-0.136106
-0.153777
-0.106875
-0.120439
-0.0855984
-0.0953249
-0.0708465
-0.0775097
-0.0617846
-0.0656008
-0.06631
-0.0593921
-0.0784482
-0.0797524
-0.0751299
-0.0764359
-0.120559
-0.132788
-0.126397
-0.115823
-0.076134
-0.0719704
-0.0750246
-0.0606347
-0.066131
-0.0584159
-0.0656123
-0.0799528
-0.0563141
-0.0574708
-0.0572276
-0.0563482
-0.0613067
-0.058812
-0.0699181
-0.0649791
-0.083524
-0.0761261
-0.100945
-0.0919063
-0.118774
-0.110121
-0.131873
-0.126221
-0.136265
-0.13529
-0.131764
-0.135134
-0.1199
-0.12652
-0.104586
-0.112408
-0.089618
-0.0968766
-0.0774543
-0.0830888
-0.0691183
-0.0727939
-0.064694
-0.0664273
-0.0640032
-0.0638964
-0.0669006
-0.0650065
-0.0734923
-0.0697181
-0.0841969
-0.0783015
-0.0996916
-0.0913408
-0.109505
-0.158908
-0.152216
-0.156746
-0.156287
-0.158764
-0.144667
-0.151441
-0.136257
-0.0845776
-0.0973865
-0.0905
-0.0755304
-0.0795568
-0.0702065
-0.0723933
-0.0687071
-0.0689791
-0.0711702
-0.0694236
-0.0781172
-0.0740366
-0.0905069
-0.0835583
-0.10969
-0.0991604
-0.13696
-0.12227
-0.172178
-0.153703
-0.211557
-0.191783
-0.246522
-0.23026
-0.266695
-0.259004
-0.265667
-0.268945
-0.244118
-0.257147
-0.208568
-0.227533
-0.168223
-0.188417
-0.13123
-0.148936
-0.101783
-0.115481
-0.0800858
-0.0900502
-0.064625
-0.0716729
-0.0545291
-0.0589139
-0.0495929
-0.0514549
-0.0587945
-0.0490946
-0.0785276
-0.0788882
-0.145819
-0.104507
-0.077805
-0.079533
-0.081293
-0.0764273
-0.0727381
-0.0724473
-0.0809583
-0.085811
-0.0675941
-0.0608632
-0.0499822
-0.0797223
-0.0544365
-0.0666782
-0.0598348
-0.0490535
-0.0508461
-0.0490015
-0.0485944
-0.0520921
-0.0501352
-0.0590285
-0.055021
-0.0703493
-0.0641529
-0.0851871
-0.0774624
-0.100531
-0.0930664
-0.111919
-0.106985
-0.115948
-0.114959
-0.112119
-0.114964
-0.102135
-0.107703
-0.0892879
-0.0958466
-0.0768111
-0.0828457
-0.0667954
-0.0714134
-0.0601482
-0.063035
-0.0569823
-0.0581375
-0.057173
-0.0566684
-0.0606318
-0.0584942
-0.0674908
-0.0636177
-0.0782
-0.0723232
-0.0933922
-0.0851989
-0.11345
-0.102815
-0.137845
-0.125182
-0.165653
-0.150641
-0.159161
-0.171832
-0.169961
-0.168308
-0.171304
-0.155702
-0.163034
-0.13575
-0.146444
-0.111828
-0.124163
-0.0867718
-0.0991763
-0.0929033
-0.0758035
-0.0809609
-0.067974
-0.0714955
-0.0635515
-0.0653232
-0.0626631
-0.0626643
-0.0654837
-0.0635874
-0.0725649
-0.068444
-0.0848774
-0.0779932
-0.10378
-0.0934154
-0.130598
-0.116151
-0.165285
-0.147079
-0.204149
-0.184626
-0.238625
-0.222607
-0.258318
-0.250861
-0.256982
-0.260376
-0.235519
-0.248447
-0.200468
-0.219143
-0.160781
-0.180648
-0.124259
-0.14177
-0.0949135
-0.108608
-0.0729845
-0.0831011
-0.057042
-0.0643573
-0.046084
-0.0509608
-0.0398146
-0.0423668
-0.0384604
-0.0384701
-0.052411
-0.0397028
-0.0799639
-0.0745725
-0.0822769
-0.128255
-0.140257
-0.118744
-0.105416
-0.0795049
-0.0780953
-0.0880993
-0.0752488
-0.0707729
-0.0645272
-0.0561893
-0.0422573
-0.0807777
-0.0590668
-0.0848241
-0.0768045
-0.0669973
-0.047345
-0.05258
-0.0415173
-0.0436832
-0.0405561
-0.0405918
-0.0426784
-0.0412445
-0.0481119
-0.0449414
-0.057318
-0.0522421
-0.069719
-0.0632283
-0.0827658
-0.0763959
-0.0925833
-0.0883095
-0.096202
-0.0952621
-0.0930724
-0.0954232
-0.0847882
-0.0894091
-0.0741701
-0.0795837
-0.0639507
-0.0688754
-0.0559074
-0.059588
-0.0508213
-0.0529791
-0.048816
-0.0494387
-0.0498058
-0.0489437
-0.0537423
-0.0514038
-0.0607776
-0.0568526
-0.071364
-0.0655881
-0.086102
-0.0781863
-0.105248
-0.0951761
-0.116409
-0.17848
-0.162805
-0.171889
-0.184186
-0.182599
-0.17968
-0.183162
-0.165986
-0.173898
-0.144593
-0.156046
-0.132086
-0.0759599
-0.0867288
-0.0812189
-0.066708
-0.071096
-0.0599637
-0.0629526
-0.0563877
-0.0577751
-0.0560372
-0.0558065
-0.0591158
-0.0571234
-0.0661913
-0.0621062
-0.0782242
-0.0715152
-0.0965509
-0.0865122
-0.122502
-0.108522
-0.156119
-0.138464
-0.193878
-0.174901
-0.227365
-0.211821
-0.2463
-0.239182
-0.24466
-0.248134
-0.223554
-0.236218
-0.189448
-0.207594
-0.150946
-0.17022
-0.115399
-0.132475
-0.0865302
-0.100054
-0.0645839
-0.0747625
-0.0482893
-0.0558129
-0.0366339
-0.0419162
-0.0291975
-0.0323918
-0.026275
-0.0271588
-0.0280094
-0.0265928
-0.0968103
-0.091569
-0.0459139
-0.0305001
-0.0835375
-0.151903
-0.092066
-0.0888427
-0.0818816
-0.0976372
-0.0888511
-0.0815878
-0.096857
-0.0796701
-0.0758476
-0.0697961
-0.0613072
-0.050514
-0.03366
-0.0837335
-0.0670906
-0.103194
-0.0914269
-0.0781445
-0.05064
-0.0580838
-0.0397044
-0.0445612
-0.0337319
-0.0361262
-0.0320178
-0.0324424
-0.0332682
-0.0323064
-0.0373587
-0.0349349
-0.0446477
-0.0405934
-0.0548016
-0.0494498
-0.0657435
-0.0603739
-0.0741296
-0.0704585
-0.0773493
-0.0764699
-0.0748718
-0.076771
-0.0681027
-0.0718809
-0.0594608
-0.063858
-0.0512517
-0.0551874
-0.0449776
-0.0478152
-0.0413001
-0.0428
-0.0403392
-0.0404838
-0.0420345
-0.04086
-0.0463632
-0.0438663
-0.0534874
-0.0495559
-0.0638412
-0.0582247
-0.0779986
-0.0704146
-0.0961308
-0.0865892
-0.117404
-0.10648
-0.139649
-0.128602
-0.174118
-0.149877
-0.162901
-0.189984
-0.183285
-0.195305
-0.194037
-0.189935
-0.193899
-0.175051
-0.183576
-0.15239
-0.164544
-0.125099
-0.139163
-0.096668
-0.110834
-0.0743
-0.0825739
-0.07875
-0.0653026
-0.0697349
-0.057298
-0.06105
-0.0516703
-0.0541431
-0.0488709
-0.049913
-0.0489727
-0.0485538
-0.0522092
-0.0501738
-0.0591476
-0.0551691
-0.0707162
-0.064283
-0.0882015
-0.0786334
-0.11291
-0.0995991
-0.144968
-0.12812
-0.181088
-0.162922
-0.213147
-0.198275
-0.231102
-0.224404
-0.22918
-0.23269
-0.208677
-0.22093
-0.175907
-0.193317
-0.13903
-0.157489
-0.104881
-0.121313
-0.076858
-0.0900367
-0.0551643
-0.0652841
-0.0386685
-0.0463391
-0.0264529
-0.0320611
-0.0181171
-0.0218048
-0.0138222
-0.0154402
-0.0137555
-0.013279
-0.0173458
-0.0152087
-0.111208
-0.105881
-0.0373764
-0.0198619
-0.0895413
-0.0862329
-0.107243
-0.120074
-0.112379
-0.0969167
-0.0870623
-0.126342
-0.13561
-0.100233
-0.0856502
-0.108966
-0.0860142
-0.0826661
-0.0766208
-0.0676107
-0.0557099
-0.12537
-0.110554
-0.129467
-0.0413754
-0.0225169
-0.146076
-0.0889077
-0.0794002
-0.0940632
-0.0567149
-0.0668575
-0.0417103
-0.0485304
-0.0315889
-0.0360759
-0.0257733
-0.0281907
-0.0235322
-0.0242595
-0.0240202
-0.023475
-0.0269334
-0.0251633
-0.0325185
-0.0293777
-0.0406322
-0.036318
-0.0496599
-0.0451981
-0.0567531
-0.0536263
-0.0596019
-0.0587848
-0.0577015
-0.0592012
-0.0522592
-0.0553008
-0.0453387
-0.0488503
-0.0388864
-0.0419573
-0.034166
-0.0362618
-0.0317318
-0.0326508
-0.0316897
-0.0314148
-0.0339922
-0.0325519
-0.0386296
-0.0360152
-0.0457608
-0.0418647
-0.0557861
-0.0503792
-0.0692204
-0.062052
-0.0862013
-0.0772965
-0.105837
-0.0958169
-0.116208
-0.183867
-0.158576
-0.17231
-0.199708
-0.193009
-0.204671
-0.203599
-0.198547
-0.202958
-0.182472
-0.191619
-0.158695
-0.171388
-0.130112
-0.144772
-0.115153
-0.0621762
-0.0690923
-0.065803
-0.0546325
-0.0584729
-0.0478769
-0.0510411
-0.0432601
-0.0452653
-0.0411463
-0.0418876
-0.0416121
-0.0410494
-0.0449106
-0.0428818
-0.0515934
-0.0477846
-0.0625377
-0.0564669
-0.0789549
-0.0699808
-0.102101
-0.0896325
-0.132178
-0.116359
-0.166198
-0.14907
-0.196467
-0.182426
-0.213283
-0.207058
-0.211129
-0.214625
-0.19143
-0.203157
-0.16031
-0.176816
-0.125409
-0.142878
-0.0929897
-0.108616
-0.0661159
-0.0788007
-0.0449452
-0.0548764
-0.0284552
-0.0361797
-0.0158336
-0.0216907
-0.00677959
-0.0108625
-0.00135867
-0.00360537
0.0002727
-5.45764e-05
-0.00152147
-0.000278161
-0.00500842
-0.00327839
-0.139545
-0.0250762
-0.0449999
-0.0269517
-0.00757009
-0.00661305
-0.127844
-0.122227
-0.0974877
-0.0927141
-0.143764
-0.0717629
-0.129936
-0.107473
-0.09464
-0.12404
-0.0943118
-0.0912041
-0.0847967
-0.0747947
-0.061427
-0.150349
-0.129825
-0.150595
0.00981988
0.00985628
-0.00800081
-0.173472
-0.169025
-0.161616
-0.0483938
-0.0279978
-0.096286
-0.0944627
-0.111198
-0.06663
-0.0795097
-0.0464019
-0.0556254
-0.0326705
-0.0388683
-0.0234249
-0.0275621
-0.0178096
-0.0201997
-0.0152358
-0.0161826
-0.0150708
-0.0148874
-0.0169688
-0.0157616
-0.0210666
-0.0187278
-0.0273562
-0.0239743
-0.0346541
-0.0310126
-0.0405848
-0.0379463
-0.0430943
-0.0423383
-0.0416886
-0.0428443
-0.0373859
-0.0397956
-0.0319394
-0.0346927
-0.0269936
-0.0293224
-0.0236103
-0.0250667
-0.0222501
-0.0226673
-0.0229976
-0.0223632
-0.0258081
-0.0241485
-0.0306736
-0.0279803
-0.037738
-0.0339142
-0.0473573
-0.0421999
-0.059981
-0.0532722
-0.0757411
-0.0674903
-0.0938285
-0.0845942
-0.112362
-0.103197
-0.128419
-0.12088
-0.165498
-0.134516
-0.15031
-0.191217
-0.179423
-0.207036
-0.200467
-0.211748
-0.21083
-0.204976
-0.209768
-0.187877
-0.197566
-0.163064
-0.17625
-0.133515
-0.148666
-0.102736
-0.118107
-0.0733522
-0.0878483
-0.0563424
-0.0600084
-0.0585882
-0.0506084
-0.0535761
-0.0441887
-0.0473914
-0.0385908
-0.0411998
-0.0348758
-0.0364671
-0.0333489
-0.0338365
-0.0340914
-0.0334277
-0.037364
-0.0353866
-0.0436898
-0.0401041
-0.0538795
-0.0482411
-0.0690488
-0.0607662
-0.0903772
-0.0788896
-0.118135
-0.103524
-0.149681
-0.133775
-0.177881
-0.16479
-0.193471
-0.187737
-0.191151
-0.194591
-0.172409
-0.183522
-0.143165
-0.158648
-0.110489
-0.126842
-0.0800427
-0.0947431
-0.0545478
-0.0666252
-0.0341274
-0.0437562
-0.0178628
-0.0255334
-0.00503535
-0.0110438
0.00456509
0.000170642
0.0108568
0.00813017
0.0137677
0.0127361
0.0136558
0.0140325
0.0115369
0.0127604
0.0104329
-0.145465
-0.1401
-0.00702086
0.010725
-0.107652
-0.101467
-0.150117
-0.120941
-0.104368
-0.112597
-0.118136
-0.0742398
-0.0605013
-0.141646
-0.104535
-0.10127
-0.0939698
-0.0824521
-0.0671135
-0.172438
-0.146018
-0.165932
-0.194489
-0.197628
-0.19372
-0.18613
-0.0508269
-0.0284941
0.0124812
-0.00562484
-0.105987
-0.108787
-0.126664
-0.0781744
-0.0927607
-0.0538539
-0.0651597
-0.0362187
-0.044301
-0.0238028
-0.0294421
-0.0153269
-0.0191382
-0.00997332
-0.0122947
-0.00720683
-0.0082999
-0.00651576
-0.00663145
-0.00756074
-0.00682757
-0.010387
-0.00873784
-0.0150719
-0.0125162
-0.0208159
-0.0179136
-0.0256992
-0.0235
-0.0278987
-0.027202
-0.0269076
-0.0277734
-0.0235662
-0.0254429
-0.0193604
-0.0214756
-0.0156826
-0.0173868
-0.0134266
-0.0143437
-0.0129724
-0.0129664
-0.0143805
-0.0134468
-0.017601
-0.0157679
-0.0226181
-0.0198822
-0.0295521
-0.0258312
-0.0387082
-0.0338282
-0.0504695
-0.0442457
-0.0649413
-0.0573878
-0.0814284
-0.0730314
-0.0980898
-0.0899412
-0.10577
-0.170174
-0.138603
-0.154946
-0.195856
-0.18406
-0.211583
-0.205047
-0.216069
-0.215303
-0.208767
-0.213854
-0.190944
-0.201018
-0.165377
-0.178921
-0.135347
-0.150722
-0.103997
-0.119638
-0.0889002
-0.0442466
-0.0473092
-0.0460157
-0.03951
-0.0420581
-0.0341404
-0.0368128
-0.0295631
-0.0316814
-0.0266376
-0.0278704
-0.0256
-0.0258806
-0.0265366
-0.025812
-0.0297064
-0.0278189
-0.0355937
-0.0322729
-0.0449309
-0.0397765
-0.0587229
-0.0512017
-0.078052
-0.067644
-0.103241
-0.0899705
-0.132032
-0.117488
-0.157959
-0.145903
-0.172304
-0.167044
-0.169899
-0.173244
-0.152231
-0.162655
-0.124995
-0.139391
-0.0946845
-0.109851
-0.0663667
-0.0800624
-0.0424162
-0.0538024
-0.0229229
-0.0321591
-0.00707854
-0.0145953
0.00574149
-0.000310211
0.0156821
0.0110771
0.0226201
0.0195342
0.0264898
0.0249323
0.0276354
0.0273577
0.0269823
0.02745
0.0259946
0.0264935
0.0269222
0.0260981
0.0146324
0.0299992
0.0283131
-0.165537
-0.16188
-0.120421
-0.112516
-0.121906
-0.0476837
-0.1728
-0.137482
-0.116233
-0.161816
-0.116488
-0.112482
-0.103621
-0.0899134
-0.0719284
-0.184451
-0.153772
-0.168182
0.0433985
0.0439768
0.0316098
-0.200721
-0.214785
-0.220695
-0.219185
-0.212019
-0.0516864
-0.0272494
-0.00349945
0.0168317
-0.118078
-0.119903
-0.137218
-0.0879724
-0.102972
-0.0620249
-0.0744605
-0.041482
-0.0510445
-0.0261898
-0.0332443
-0.0151431
-0.0201945
-0.00744488
-0.0109269
-0.00240348
-0.00462478
0.000458994
-0.000727441
0.00156262
0.00120599
0.00122161
0.00156261
-0.000539183
0.00052894
-0.00383662
-0.00200138
-0.00819363
-0.00595569
-0.0121269
-0.010327
-0.0140377
-0.0134003
-0.0133875
-0.0140129
-0.0108448
-0.012279
-0.00766608
-0.00925352
-0.00503514
-0.00622386
-0.00370818
-0.00418095
-0.00399828
-0.0036453
-0.00594168
-0.00476716
-0.0094774
-0.00751477
-0.0145752
-0.0118295
-0.0213259
-0.0177323
-0.0299807
-0.0253954
-0.0408554
-0.0351268
-0.0540256
-0.0471725
-0.068902
-0.0613266
-0.0838917
-0.0765208
-0.0966578
-0.0907679
-0.1051
-0.101556
-0.140672
-0.106591
-0.123795
-0.172266
-0.15697
-0.197495
-0.186004
-0.213082
-0.206599
-0.217317
-0.2167
-0.209645
-0.214921
-0.191443
-0.201712
-0.165517
-0.17923
-0.135357
-0.150758
-0.104006
-0.119668
-0.074001
-0.0887015
-0.047388
-0.0602448
-0.0353695
-0.0353673
-0.0357112
-0.0329528
-0.0344035
-0.0290412
-0.0311871
-0.0245856
-0.0267843
-0.0208976
-0.0225887
-0.0186468
-0.0195754
-0.0180053
-0.0181229
-0.019061
-0.0183111
-0.0220637
-0.0202973
-0.0274516
-0.0244262
-0.0358718
-0.0312348
-0.0482087
-0.0414904
-0.0654309
-0.0561613
-0.087895
-0.07605
-0.113742
-0.100655
-0.137263
-0.126294
-0.150362
-0.145564
-0.147996
-0.151164
-0.131492
-0.141201
-0.106312
-0.1196
-0.0784072
-0.0923655
-0.0522816
-0.0649359
-0.0299794
-0.0406176
-0.0115491
-0.0203214
0.00371181
-0.00356565
0.0163267
0.0103348
0.0263846
0.0216826
0.0337319
0.030407
0.0382848
0.0363508
0.0403426
0.0395861
0.0407748
0.0406803
0.0408087
0.0407961
0.041648
0.0410528
0.042399
-0.187327
-0.185583
0.0326208
0.0441822
-0.135961
-0.125881
-0.197946
-0.156847
-0.130041
-0.0883443
-0.0898386
-0.0465148
-0.0347254
-0.184357
-0.129781
-0.124258
-0.113025
-0.0963982
-0.075407
-0.179293
-0.144684
-0.151349
-0.185687
-0.212288
-0.231125
-0.241528
-0.243623
-0.237738
-0.050833
-0.024707
-0.000684433
0.0186997
0.0436715
0.0328699
-0.132665
-0.122732
-0.135008
-0.094803
-0.109152
-0.0683004
-0.0809637
-0.0469236
-0.0570685
-0.029707
-0.0377924
-0.0165335
-0.0226453
-0.006815
-0.0112865
0.000118552
-0.00303933
0.00482119
0.00272021
0.00770423
0.00646715
0.00911641
0.00857354
0.0093404
0.0093651
0.00845153
0.00904152
0.00632924
0.00754789
0.00319869
0.00484277
0.000134749
0.0015662
-0.00149697
-0.000922861
-0.00112087
-0.0015492
0.000766273
-0.00030514
0.00310801
0.0019498
0.00489206
0.00411962
0.00547261
0.00535614
0.00459024
0.00521836
0.00223087
0.00359055
-0.00153058
0.000520244
-0.006645
-0.00391871
-0.0131699
-0.00972239
-0.0213013
-0.017019
-0.0312887
-0.0260525
-0.0431785
-0.0370122
-0.0564629
-0.0497084
-0.0698309
-0.0632462
-0.0810354
-0.0759009
-0.0853186
-0.140411
-0.106208
-0.123719
-0.171577
-0.156468
-0.196117
-0.184872
-0.21141
-0.205067
-0.215367
-0.214881
-0.207526
-0.212869
-0.189299
-0.199562
-0.163477
-0.177125
-0.133524
-0.148801
-0.102575
-0.118019
-0.0728962
-0.087438
-0.0592846
-0.0243696
-0.0246278
-0.0246188
-0.0224822
-0.0236317
-0.0192109
-0.0209601
-0.0155901
-0.0173694
-0.0126715
-0.0139963
-0.0109859
-0.0116627
-0.0106539
-0.0106488
-0.0117628
-0.0110183
-0.0145476
-0.0129262
-0.0193959
-0.0166849
-0.026867
-0.0227625
-0.03772
-0.0318189
-0.0527994
-0.0446882
-0.072475
-0.0620919
-0.0952771
-0.0837008
-0.116314
-0.10646
-0.128202
-0.123832
-0.125967
-0.128919
-0.11074
-0.1197
-0.0875973
-0.0997923
-0.0620473
-0.0748228
-0.0380922
-0.0497093
-0.017479
-0.0273407
-0.000208965
-0.00846291
0.0143311
0.00736607
0.026567
0.0207265
0.0365335
0.031843
0.0440555
0.0406107
0.0490403
0.046859
0.0517503
0.050644
0.0529578
0.052473
0.0536886
0.0533321
0.0546166
0.0541216
0.0550924
0.0549879
0.0540018
0.0547016
0.0423418
0.050674
0.0525901
-0.210165
-0.211413
-0.15418
-0.141397
-0.089679
-0.0239389
-0.224399
-0.17875
-0.145392
-0.208659
-0.143782
-0.135817
-0.121366
-0.101242
-0.0770182
-0.152956
-0.119142
-0.116708
0.0576557
0.0546822
0.0480802
-0.149249
-0.186073
-0.217556
-0.241815
-0.257697
-0.264232
-0.261994
-0.0481442
-0.0211264
0.00216198
0.0199804
0.0322218
0.0402381
-0.149643
-0.112026
-0.117174
-0.0931541
-0.103201
-0.0712886
-0.0825507
-0.0503376
-0.0603974
-0.0328626
-0.0411861
-0.0185467
-0.0253117
-0.007347
-0.0125725
0.00110111
-0.00281139
0.00728776
0.00444825
0.0116344
0.0096678
0.0144796
0.0132256
0.0161116
0.0154301
0.0167778
0.0165533
0.0165855
0.0167917
0.0154356
0.0161383
0.0133748
0.0144932
0.0111117
0.0121984
0.00976264
0.010264
0.00992788
0.00965766
0.011282
0.0105053
0.0129509
0.0121365
0.0140641
0.0136202
0.0140626
0.0142227
0.0127276
0.0135645
0.0100633
0.0115562
0.0061592
0.00826006
0.00108547
0.00376679
-0.00518022
-0.00189254
-0.0127795
-0.00880143
-0.0218992
-0.0171419
-0.032559
-0.0270511
-0.0443221
-0.0383551
-0.0560869
-0.0502985
-0.0660439
-0.0614281
-0.0723789
-0.0697137
-0.0737153
-0.073818
-0.104397
-0.0720224
-0.0880879
-0.137703
-0.121161
-0.167928
-0.153422
-0.191778
-0.18081
-0.206612
-0.200487
-0.21031
-0.209918
-0.202519
-0.207798
-0.184634
-0.19469
-0.159382
-0.172724
-0.130088
-0.145031
-0.0998816
-0.114936
-0.0710327
-0.0851845
-0.0451027
-0.0576272
-0.022919
-0.0335669
-0.0145315
-0.0132448
-0.0140441
-0.0144287
-0.0146925
-0.0127951
-0.0138078
-0.0101069
-0.0115431
-0.00720342
-0.00862075
-0.00494074
-0.00595572
-0.00371862
-0.00419197
-0.00361763
-0.00352606
-0.00472413
-0.00401028
-0.00725374
-0.00579383
-0.0115418
-0.0091534
-0.0180607
-0.014488
-0.0274458
-0.0223516
-0.0404119
-0.0334435
-0.0573197
-0.0483915
-0.0770583
-0.0670074
-0.0955763
-0.0868517
-0.106304
-0.10232
-0.104352
-0.107005
-0.090445
-0.0986444
-0.0692764
-0.0804238
-0.045963
-0.0576164
-0.0240829
-0.0347034
-0.00513617
-0.0142222
0.0109186
0.00321895
0.0246267
0.0180353
0.0363335
0.0307236
0.0460267
0.0414424
0.0535176
0.0500581
0.0587174
0.0563978
0.0618698
0.0605171
0.063628
0.0628706
0.0647283
0.0642283
0.0653919
0.0651404
0.0648405
0.0653427
0.062212
0.0637742
0.060098
-0.232942
-0.237904
0.0449917
0.0514025
-0.174719
-0.158677
-0.250465
-0.202546
-0.161618
-0.0583483
-0.0567664
-0.0216326
-0.0122503
-0.233748
-0.157629
-0.14623
-0.127815
-0.103846
-0.0764536
-0.108902
-0.0785047
-0.0688876
-0.0968139
-0.139277
-0.179434
-0.215539
-0.24526
-0.266991
-0.279634
-0.282028
-0.043921
-0.0171251
0.00456354
0.0202661
0.0307632
0.0374588
0.0477039
0.0414921
-0.168642
-0.0862801
-0.0838686
-0.081164
-0.085511
-0.0665652
-0.0742623
-0.0501605
-0.0585832
-0.0339636
-0.0418421
-0.0198948
-0.0266385
-0.0081552
-0.0137323
0.00125127
-0.00316781
0.00853045
0.00513603
0.0140086
0.0114741
0.0179945
0.0161699
0.0207579
0.0195134
0.0225348
0.0217555
0.0235364
0.023121
0.0238856
0.023792
0.023518
0.0238007
0.0223717
0.0230326
0.0208468
0.0216079
0.019795
0.0202095
0.0198127
0.0196616
0.0207388
0.0201994
0.0218723
0.0213299
0.0224652
0.0222742
0.0220255
0.0223921
0.0203633
0.021349
0.0174956
0.0190741
0.0135249
0.0156409
0.0085428
0.0111568
0.00256196
0.00568028
-0.00450737
-0.000828536
-0.0127948
-0.00849413
-0.0222964
-0.017407
-0.0326378
-0.0274066
-0.0429024
-0.0378599
-0.0516535
-0.0475776
-0.0572043
-0.0549257
-0.0584229
-0.100727
-0.0686425
-0.0848006
-0.132619
-0.116717
-0.161636
-0.147703
-0.184672
-0.174075
-0.198928
-0.193056
-0.20244
-0.202083
-0.19493
-0.200012
-0.177748
-0.187405
-0.153499
-0.166313
-0.125329
-0.139707
-0.0962186
-0.110728
-0.0684386
-0.0820699
-0.0432923
-0.0554591
-0.0320336
-0.00535248
-0.00434001
-0.00494109
-0.00525588
-0.00551364
-0.00395286
-0.00475095
-0.00175527
-0.00292127
0.00054257
-0.0005673
0.0022571
0.00149919
0.00310898
0.00279518
0.00304799
0.00319471
0.00198925
0.00265246
-0.000260525
0.00102806
-0.0039851
-0.00191806
-0.00957407
-0.00651848
-0.017545
-0.0132266
-0.0284833
-0.0226116
-0.0427198
-0.0351995
-0.0594525
-0.0509063
-0.075451
-0.0678604
-0.0850498
-0.0814235
-0.0835108
-0.0857925
-0.0709869
-0.0784067
-0.051716
-0.0618726
-0.0304729
-0.0410909
-0.0105147
-0.0202088
0.00684583
-0.00149372
0.0216777
0.0145465
0.0344761
0.0283044
0.0455305
0.0402172
0.0547995
0.0503993
0.0620945
0.0587036
0.0673404
0.0649672
0.0707611
0.0692512
0.0728558
0.07194
0.0740231
0.0735479
0.0741289
0.0742442
0.0725346
0.0735826
0.0689007
0.0709633
0.0635027
0.0663781
0.0568045
0.0602567
0.0435183
0.0487267
0.052949
-0.254499
-0.263886
-0.196886
-0.177029
-0.0538911
-0.00367196
-0.274377
-0.227183
-0.177786
-0.258297
-0.170286
-0.154522
-0.131621
-0.1038
-0.0736563
-0.0555523
-0.0313396
-0.0176768
-0.0398282
-0.0797516
-0.123009
-0.165895
-0.2059
-0.240841
-0.269038
-0.287994
-0.296571
-0.0387861
-0.0133207
0.00610414
0.0195737
0.0284984
0.034151
0.0374022
0.0532435
0.044022
0.0486619
-0.188962
-0.0489983
-0.0412725
-0.0562177
-0.0542266
-0.0534347
-0.056037
-0.0434218
-0.0489679
-0.0315056
-0.0375762
-0.0192473
-0.0253127
-0.0081158
-0.0134888
0.00139166
-0.00315349
0.00921462
0.00551235
0.0154345
0.0125133
0.0202493
0.0180035
0.0238774
0.0221981
0.0265261
0.0253117
0.0283858
0.0275431
0.0296322
0.0290754
0.0303899
0.0300693
0.030632
0.0305838
0.0302461
0.0305188
0.0293944
0.0298493
0.0286633
0.0289709
0.0285999
0.0285333
0.0291882
0.028838
0.0298988
0.0295699
0.0300959
0.030095
0.0293405
0.0298533
0.0274609
0.0285426
0.0244807
0.0261019
0.0205123
0.0226119
0.0156669
0.0181941
0.00999034
0.012933
0.00344064
0.00682948
-0.00406109
-0.000188847
-0.0124908
-0.00817157
-0.0215323
-0.0169717
-0.0304394
-0.0260676
-0.0380517
-0.0344925
-0.0428597
-0.0409146
-0.0439147
-0.043956
-0.0400662
-0.0425789
-0.0642533
-0.0361229
-0.0499197
-0.0950538
-0.079487
-0.12543
-0.110417
-0.153114
-0.139786
-0.175165
-0.165028
-0.188796
-0.183176
-0.192234
-0.191839
-0.185238
-0.189991
-0.169087
-0.178174
-0.146214
-0.15831
-0.119547
-0.133172
-0.0918585
-0.105678
-0.0653208
-0.0783488
-0.0412158
-0.0529073
-0.0202476
-0.0303484
-0.00278707
-0.0112097
0.00352606
0.00468883
0.00409045
0.00282111
0.00309859
0.00294707
0.00277532
0.00406293
0.00338852
0.00584978
0.004913
0.00763591
0.00678403
0.00890145
0.00835176
0.00946697
0.00927357
0.00930311
0.00947859
0.00832745
0.00892514
0.00637071
0.00748417
0.00319818
0.00495297
-0.00150371
0.00106066
-0.00814408
-0.00455399
-0.0171851
-0.0123391
-0.0289099
-0.0227168
-0.042764
-0.0356682
-0.0562737
-0.0498141
-0.0647372
-0.0614674
-0.0636822
-0.0655465
-0.0526328
-0.0592395
-0.0352053
-0.0444186
-0.0158544
-0.0255351
0.0023734
-0.00648561
0.0182768
0.0106297
0.0319274
0.0253546
0.0437804
0.0380544
0.0540952
0.0491269
0.062827
0.0586693
0.0698055
0.0665437
0.0749706
0.0726089
0.0784963
0.0769188
0.080681
0.0797414
0.0816124
0.0813136
0.0809994
0.0815275
0.078483
0.0799892
0.0741379
0.0765158
0.0683591
0.0714043
0.0613625
0.0649942
0.0574347
-0.273198
-0.287046
0.0387749
-0.21962
-0.19546
-0.294133
-0.251142
-0.192744
-0.0268108
-0.0233906
-0.00199644
0.00529225
-0.280507
-0.180653
-0.159755
-0.132254
-0.101038
-0.0688587
-0.00232898
0.0163104
0.0305444
0.0388179
0.0436263
0.0155685
-0.0202393
-0.0594864
-0.10187
-0.146122
-0.189074
-0.228797
-0.262543
-0.288754
-0.303898
-0.0334834
-0.0102611
0.00657697
0.0180439
0.0256006
0.0302468
0.0326529
-0.209568
-0.0076415
0.00308413
-0.0233923
-0.0166803
-0.0303916
-0.0282002
-0.0296435
-0.0307569
-0.0236895
-0.0271827
-0.0152538
-0.0196205
-0.00615737