/*--------------------------------*- C++ -*----------------------------------*\
  =========                 |
  \\      /  F ield         | OpenFOAM: The Open Source CFD Toolbox
   \\    /   O peration     | Website:  https://openfoam.org
    \\  /    A nd           | Version:  10
     \\/     M anipulation  |
\*---------------------------------------------------------------------------*/
FoamFile
{
    format      ascii;
    class       volScalarField;
    location    "95";
    object      p;
}
// * * * * * * * * * * * * * * * * * * * * * * * * * * * * * * * * * * * * * //

dimensions      [0 2 -2 0 0 0 0];

internalField   nonuniform List<scalar> 
28942
(
-0.00372158
-0.00309648
0.00207586
0.00953033
0.00983021
7.11105e-05
0.000249562
1.44008e-05
0.00275509
0.00284294
-0.00226505
-0.00253364
-0.0029159
-0.00283346
0.000167087
0.000449767
0.00992211
0.0101921
0.00562651
0.00718627
0.00819398
0.0081856
-0.00516835
-0.00499395
-0.00352285
-0.0037469
0.0139206
0.0138696
0.00358034
0.00352295
1.07705e-05
4.30109e-05
0.000679469
0.000272303
0.00718483
0.00839046
0.0109283
0.0128866
-1.53112e-05
0.0150812
0.00913034
0.0116283
0.00177176
0.00168225
0.00174625
0.000253203
0.000127806
0.000200753
0.000232649
0.00032617
0.000634865
0.0028251
0.00289643
0.00288787
0.0030427
-0.0022946
-0.000992978
-0.00332231
-0.00316813
-0.00343857
-0.00351173
-0.00351239
-0.00341057
-6.02711e-05
-0.00175885
-0.00030713
0.00102253
0.00946628
0.00896994
-0.00331394
-0.00352342
-0.00325881
0.00903238
0.0088838
0.00917626
-0.00142744
-0.00104002
-0.000702363
0.00240919
0.00280845
0.00190041
0.000806556
-0.00626062
-0.00748799
0.00112798
0.00385264
0.00489379
0.0056808
0.00406578
0.0041882
0.00615467
0.0055341
-0.00134957
-0.0016385
-0.00191588
-0.00175541
-0.00158214
0.00537601
0.00666664
-0.00779935
0.0113276
0.0105285
0.00582243
0.00941919
0.000943181
0.000848577
0.00076026
0.00551354
0.00570628
0.0057004
-0.00316608
-0.00308691
-0.00307907
-0.00256277
-0.00268612
0.0158737
0.0138692
0.0133104
0.0149412
0.00168775
0.00476607
0.00346492
0.00511878
0.00479569
0.0155469
0.0158418
0.0145004
0.00596003
0.00703872
0.000163271
0.000255368
8.90369e-05
0.0105433
0.011046
0.00770771
0.00735978
0.0128169
0.00674457
0.00803439
0.0090933
-0.00185402
-0.00236137
0.00740398
0.00168914
0.00177835
-0.00111943
-0.00138154
-0.000925203
-0.00246082
0.00663608
0.00576357
0.00375828
0.000235773
0.000185049
6.75371e-05
0.000186179
0.00757231
0.00683567
-0.00181413
-0.0019312
-0.00182628
-0.00408655
-0.0036326
4.98447e-05
-0.00279738
-0.000445537
0.00843618
0.00854516
0.00963928
0.00917457
0.00775233
0.00311917
0.00303647
0.00329428
0.00316997
0.00508312
0.004861
0.00519617
0.00541666
0.00535476
0.0054261
0.00563733
0.00619146
0.00588545
0.00548351
0.00581365
0.0065193
0.00727324
0.00756516
-0.000532034
-0.000512723
-0.00242181
0.000186596
4.43321e-05
-0.00194477
-0.00203299
0.000253721
0.000314813
0.000280513
0.00021538
0.00177504
0.00172577
0.00170842
-0.00286487
-0.00305127
-0.00271631
-0.00428187
-0.00476324
-0.00407584
-0.00466231
-0.00642628
-0.00512588
0.0160674
0.0167776
0.016545
0.000975879
0.00112062
0.0010097
0.0103941
0.00996615
0.0100464
0.00140803
0.00139178
0.0014245
0.00137506
0.0013593
0.00134296
0.00134319
0.00132636
0.00132665
0.00135971
0.0013757
0.00139178
0.00140818
0.00142524
0.00131035
0.00130971
0.00144051
0.00144077
0.00145578
0.00129401
0.0012933
0.0014565
0.00127726
0.00126067
0.0012772
0.00126096
0.00147345
0.00147378
0.00124426
0.0012446
0.00148937
0.00148993
0.00122787
0.00122829
0.00150538
0.00150598
0.00121156
0.00121194
0.00152136
0.00152205
0.00119524
0.00119565
0.0015373
0.00153802
0.00117897
0.00117934
0.00155332
0.00155405
0.00116264
0.00116308
0.00156967
0.0015702
0.00114633
0.00114656
0.00158509
0.00158582
0.00112988
0.00112989
0.00160196
0.00160225
0.00111309
0.00111295
0.00161721
0.00161745
0.00109526
0.00109594
0.00163325
0.00163322
0.00107831
0.00107917
0.0016165
0.00163255
0.00164933
0.00164913
0.00158321
0.0016007
0.00155129
0.00156781
0.00152011
0.00153582
0.00148816
0.0015042
0.0014552
0.00147203
0.00142318
0.00144065
0.00139135
0.00140776
0.00135843
0.00137363
0.00132468
0.00134179
0.00129225
0.00130853
0.0012596
0.00127596
0.00122696
0.0012433
0.00119438
0.00121069
0.00116186
0.00117815
0.00112941
0.00114565
0.00109558
0.00111312
0.00107853
0.00106137
0.00106183
0.00111303
0.00107884
0.00109563
0.00114646
0.00112951
0.00117895
0.00116283
0.00121148
0.00119522
0.00124415
0.00122783
0.00127689
0.00126054
0.00130948
0.00129326
0.00134246
0.00132625
0.00137577
0.00135923
0.00140752
0.00139143
0.00144074
0.00142537
0.00147349
0.00145668
0.00150565
0.00148963
0.00153757
0.0015217
0.00156932
0.00155339
0.00160117
0.00158489
0.00163202
0.0016168
0.00164795
0.00164922
0.00106113
0.00106188
0.0016644
0.00166286
0.00166554
0.00166495
0.00161491
0.00164794
0.00163111
0.0015817
0.00159873
0.0015501
0.00156555
0.00151868
0.0015345
0.0014867
0.00150275
0.00145433
0.00147058
0.00142148
0.00143835
0.00138937
0.0014064
0.00135759
0.00137235
0.00132366
0.00134067
0.00129105
0.00130735
0.00125845
0.00127477
0.00122585
0.00124216
0.00119333
0.00120959
0.0011609
0.00117711
0.00112871
0.00114477
0.00109525
0.00111219
0.00104421
0.00104443
0.00106055
0.00107784
0.00107815
0.00106164
0.0010445
0.00104449
0.00111293
0.00109506
0.00114574
0.0011289
0.00117799
0.00116185
0.0012105
0.00119424
0.00124315
0.00122683
0.00127591
0.00125953
0.00130874
0.00129235
0.00134153
0.00132518
0.00137463
0.00135795
0.00140684
0.00139062
0.00143953
0.001424
0.00147229
0.001456
0.00150456
0.00148848
0.00153653
0.00152061
0.00156817
0.00155242
0.0015994
0.00158385
0.00163021
0.00161479
0.00166014
0.00164562
0.00166438
0.00167823
0.0016757
0.00167909
0.0010438
0.00104411
0.00168011
0.00167903
0.00169336
0.00169134
0.00168006
0.00106045
0.00104269
0.00102728
0.0010268
0.00167792
0.00169557
0.00172033
0.00170064
0.00164552
0.00166213
0.00161233
0.00162861
0.00157966
0.00159653
0.00154813
0.00156341
0.00151674
0.00153257
0.00148479
0.00150082
0.00145252
0.0014687
0.00142005
0.00143633
0.00138761
0.00140397
0.00135512
0.00137121
0.00132226
0.0013388
0.00128954
0.00130588
0.00125691
0.00127323
0.00122435
0.00124063
0.00119187
0.00120811
0.00115952
0.00117569
0.00112744
0.00114344
0.00109431
0.00111091
0.0010772
0.00102752
0.0010269
0.00102717
0.00102761
0.0010776
0.00104332
0.00106097
0.00111207
0.00109471
0.00114428
0.00112781
0.00117656
0.0011604
0.00120905
0.0011928
0.00124167
0.00122536
0.0012744
0.00125804
0.0013072
0.00129081
0.00134002
0.00132362
0.00137279
0.00135645
0.00140549
0.00138913
0.00143805
0.00142191
0.00147059
0.00145437
0.00150284
0.00148677
0.00153479
0.00151887
0.00156636
0.00155065
0.00159738
0.00158199
0.00162772
0.00161258
0.00165765
0.00164272
0.00168801
0.00167216
0.0017053
0.00170251
0.00169507
0.00169383
0.00102592
0.00102644
0.0017076
0.00170765
0.00171313
0.00171672
0.00171876
0.00164703
0.00172219
0.0016953
0.00170377
0.00170142
0.00167758
0.0016956
0.00164144
0.00165939
0.00160906
0.00162468
0.00157706
0.0015937
0.00154577
0.00156133
0.00151423
0.00153008
0.00148232
0.00149832
0.00145012
0.00146626
0.00141777
0.00143398
0.00138532
0.00140157
0.00135275
0.00136903
0.00132011
0.00133649
0.00128745
0.00130378
0.00125487
0.00127117
0.00122236
0.00123862
0.00118994
0.00120615
0.00115765
0.00117379
0.00112563
0.0011416
0.00109297
0.00110924
0.00105963
0.00107617
0.00102505
0.00104201
0.00101028
0.00100802
0.00100926
0.00101108
0.00101059
0.00101102
0.00101119
0.00100987
0.00101054
0.00104247
0.0010083
0.00102642
0.00107637
0.00105984
0.00111036
0.00109379
0.00114236
0.00112626
0.00117468
0.00115851
0.00120714
0.00119091
0.00123973
0.00122344
0.00127241
0.00125607
0.00130516
0.00128879
0.00133794
0.00132156
0.00137067
0.00135435
0.00140336
0.00138703
0.00143591
0.00141968
0.00146835
0.00145217
0.00150055
0.00148451
0.00153244
0.00151656
0.00156392
0.00154825
0.00159485
0.00157949
0.00162497
0.00161002
0.00165432
0.00163979
0.00168381
0.00166879
0.00171293
0.00169746
0.00173025
0.00172649
0.00170864
0.0017087
0.00172594
0.00171919
0.00102402
0.00100763
0.000993073
0.000992213
0.00171867
0.00173244
0.00175859
0.00167334
0.00174142
0.00173887
0.00171747
0.00170903
0.00169202
0.00168883
0.0016728
0.00168736
0.00163674
0.00165464
0.00160569
0.00162114
0.0015742
0.00159013
0.00154273
0.00155845
0.00151114
0.00152699
0.00147928
0.00149526
0.00144716
0.00146326
0.00141488
0.00143106
0.00138249
0.00139872
0.00134999
0.00136625
0.00131743
0.00133375
0.00128486
0.00130115
0.00125235
0.00126861
0.00121991
0.00123613
0.00118756
0.00120374
0.00115532
0.00117144
0.00112323
0.00113927
0.00109132
0.00110723
0.00105775
0.00107456
0.00104066
0.000993802
0.000991699
0.000993334
0.000995208
0.000994671
0.000994663
0.000995188
0.000993952
0.00104114
0.00100653
0.00102598
0.00107516
0.00105834
0.00110797
0.00109205
0.00114007
0.00112399
0.00117236
0.00115622
0.00120478
0.00118857
0.00123732
0.00122106
0.00126995
0.00125364
0.00130265
0.00128631
0.00133537
0.00131902
0.00136806
0.00135174
0.00140068
0.00138439
0.0014332
0.00141699
0.00146557
0.00144942
0.00149769
0.00148169
0.00152949
0.00151366
0.00156088
0.00154527
0.00159171
0.0015764
0.00162179
0.00160687
0.00165096
0.00163652
0.00167955
0.00166548
0.00170711
0.00169187
0.00173494
0.00172256
0.00175029
0.00174589
0.00172337
0.00172089
0.000989711
0.000990417
0.00172776
0.00169173
0.00171322
0.00173266
0.00174298
0.00176857
0.00174936
0.00175628
0.00175295
0.00176158
0.0017595
0.00172154
0.00169044
0.00175805
0.00172763
0.00168298
0.0016833
0.0016648
0.00167983
0.00163247
0.0016484
0.0016016
0.00161707
0.00157038
0.00158607
0.00153901
0.00155471
0.00150748
0.00152329
0.00147569
0.00149163
0.00144367
0.00145972
0.00141147
0.00142761
0.00137916
0.00139535
0.00134675
0.00136297
0.00131428
0.00133054
0.00128181
0.00129806
0.00124938
0.0012656
0.00121702
0.0012332
0.00118474
0.00120088
0.00115257
0.00116866
0.00112052
0.00113655
0.00108862
0.00110455
0.00105627
0.00107273
0.00102202
0.00103926
0.000988451
0.0010054
0.000975483
0.000971593
0.00097371
0.000978387
0.000976868
0.000979688
0.000979346
0.000979307
0.00097964
0.000977233
0.000978454
0.000974236
0.000975809
0.0010057
0.000972557
0.000988827
0.00103966
0.00102345
0.00107339
0.00105684
0.00110527
0.00108934
0.00113738
0.00112132
0.00116963
0.00115351
0.00120199
0.00118581
0.00123447
0.00121824
0.00126704
0.00125076
0.00129966
0.00128337
0.00133231
0.00131601
0.00136494
0.00134866
0.0013975
0.00138125
0.00142995
0.00141377
0.00146223
0.00144614
0.00149427
0.00147831
0.00152598
0.00151019
0.00155726
0.0015417
0.00158797
0.00157272
0.00161797
0.0016031
0.00164711
0.00163268
0.00167526
0.00166142
0.00170249
0.00168868
0.00172831
0.00171624
0.00175363
0.001739
0.00177238
0.00176775
0.00173109
0.00174992
0.00173115
0.000986187
0.000970125
0.00095778
0.000955711
0.00173259
0.0017442
0.00174103
0.00175413
0.00176345
0.00177533
0.00178342
0.00177962
0.00173205
0.0017458
0.00175819
0.00175232
0.00175063
0.00169683
0.0017226
0.00167663
0.00168264
0.00165737
0.00167134
0.00162711
0.00164217
0.00159673
0.00161202
0.00156585
0.00158137
0.00153467
0.0015503
0.00150326
0.00151902
0.00147157
0.00148746
0.00143966
0.00145566
0.00140756
0.00142365
0.00137534
0.00139149
0.00134304
0.00135921
0.00131067
0.00132688
0.0012783
0.0012945
0.00124597
0.00126215
0.0012137
0.00122984
0.00118151
0.00119761
0.00114942
0.00116547
0.00111745
0.00113344
0.00108558
0.00110151
0.0010541
0.0010698
0.00102026
0.00103743
0.00100289
0.000960031
0.000955015
0.000958141
0.000963177
0.000961725
0.000964116
0.00096383
0.00096369
0.000964075
0.000961412
0.000962742
0.000959688
0.0010044
0.000970479
0.000987154
0.00103789
0.00102147
0.00107037
0.00105452
0.00110225
0.00108629
0.00113431
0.00111829
0.00116649
0.00115041
0.00119879
0.00118265
0.00123119
0.001215
0.00126368
0.00124745
0.00129623
0.00127997
0.0013288
0.00131254
0.00136134
0.0013451
0.00139382
0.00137762
0.00142618
0.00141005
0.00145837
0.00144233
0.0014903
0.0014744
0.0015219
0.00150618
0.00155306
0.00153757
0.00158366
0.00156847
0.00161355
0.00159872
0.0016426
0.00162821
0.00167066
0.00165681
0.00169764
0.00168428
0.00172274
0.00171064
0.00174825
0.00173424
0.00177276
0.00175961
0.00177374
0.00176302
0.00179045
0.0017851
0.0017386
0.000952962
0.000953844
0.0017565
0.00174394
0.00176719
0.00174646
0.00175588
0.00176634
0.00176671
0.00177716
0.00178582
0.00179389
0.00180148
0.00179705
0.0017423
0.00174303
0.00177645
0.00177689
0.00175123
0.00173464
0.001745
0.00169726
0.00171373
0.00167172
0.0016822
0.00165006
0.00166319
0.00162111
0.00163571
0.00159126
0.00160631
0.00156072
0.00157608
0.00152976
0.0015453
0.00149849
0.00151418
0.00146694
0.00148277
0.00143514
0.00145109
0.00140317
0.0014192
0.00137106
0.00138715
0.00133887
0.00135499
0.00130662
0.00132277
0.00127436
0.00129051
0.00124214
0.00125826
0.00120997
0.00122606
0.00117788
0.00119393
0.00114589
0.00116189
0.001114
0.00112995
0.00108222
0.00109811
0.00105064
0.0010664
0.00101841
0.00103494
0.00098406
0.00100097
0.00095102
0.000968267
0.000939577
0.000934484
0.000937251
0.000944587
0.000941833
0.000947579
0.000946528
0.000948545
0.000948219
0.000948146
0.000948519
0.000946129
0.000947413
0.000942887
0.000944294
0.000938216
0.000940899
0.000968313
0.000935556
0.000951919
0.00100291
0.000984691
0.00103519
0.00101963
0.00106701
0.00105113
0.0010989
0.00108296
0.00113088
0.0011149
0.00116298
0.00114694
0.00119519
0.00117909
0.00122751
0.00121136
0.00125991
0.00124372
0.00129236
0.00127616
0.00132484
0.00130863
0.00135728
0.00134109
0.00138966
0.00137351
0.00142192
0.00140584
0.001454
0.00143801
0.00148582
0.00146997
0.00151729
0.00150163
0.00154832
0.0015329
0.00157878
0.00156366
0.00160854
0.00159379
0.00163748
0.00162315
0.00166542
0.00165162
0.00169226
0.001679
0.00171744
0.00170516
0.00174177
0.00172966
0.00176506
0.00175261
0.00178939
0.00177823
0.00177659
0.00177739
0.00180333
0.00179491
0.00175131
0.00175594
0.00178339
0.00178892
0.00177772
0.00176328
0.00176798
0.000949082
0.000931804
0.000921655
0.000919458
0.00177815
0.00177871
0.00178833
0.00179572
0.00180354
0.00180826
0.00178809
0.00178762
0.00179189
0.00181206
0.00181046
0.00180355
0.00175458
0.00177429
0.00177326
0.00173651
0.00174993
0.00172392
0.00173504
0.00169232
0.00170659
0.00166729
0.00167924
0.00164285
0.00165582
0.00161469
0.001629
0.00158527
0.00160013
0.00155505
0.00157026
0.00152432
0.00153975
0.00149321
0.00150883
0.00146181
0.00147757
0.00143016
0.00144603
0.00139831
0.00141428
0.00136634
0.00138236
0.00133427
0.00135033
0.00130214
0.00131823
0.00127001
0.0012861
0.0012379
0.00125397
0.00120585
0.00122189
0.00117387
0.00118987
0.00114198
0.00115793
0.0011102
0.0011261
0.00107852
0.00109436
0.00104694
0.00106273
0.00101564
0.00103128
0.000981793
0.000998986
0.000965598
0.00092497
0.000919163
0.000922477
0.000929452
0.000927124
0.000931956
0.00093094
0.000933003
0.000932652
0.000932616
0.000932987
0.000930911
0.000931926
0.000927137
0.000929299
0.000924594
0.000966182
0.000932993
0.000949483
0.00100055
0.000983115
0.00103174
0.00101615
0.00106342
0.00104758
0.00109521
0.00107933
0.0011271
0.00111117
0.00115911
0.00114311
0.00119122
0.00117518
0.00122344
0.00120734
0.00125573
0.0012396
0.00128808
0.00127193
0.00132045
0.00130429
0.00135278
0.00133665
0.00138505
0.00136896
0.00141719
0.00140117
0.00144914
0.00143322
0.00148083
0.00146505
0.00151216
0.00149658
0.00154305
0.0015277
0.00157337
0.00155832
0.00160299
0.00158831
0.00163179
0.00161754
0.00165961
0.00164587
0.00168632
0.00167314
0.00171161
0.0016992
0.00173563
0.00172382
0.00175854
0.00174713
0.00177925
0.00176977
0.00180319
0.00178659
0.00179277
0.00181462
0.0018234
0.00182229
0.00181768
0.00180282
0.00178293
0.00178477
0.00176537
0.00176819
0.000916225
0.000916964
0.00180012
0.00177723
0.00177984
0.00178687
0.00179011
0.00179884
0.00180649
0.00181058
0.00181369
0.00179958
0.00179243
0.0017966
0.00180859
0.00181943
0.00182711
0.0018052
0.0018109
0.00181344
0.00182429
0.00182989
0.00176739
0.00178469
0.001782
0.00176118
0.00176664
0.0017327
0.00174702
0.00171377
0.00172447
0.00168668
0.00170025
0.00166125
0.00167376
0.00163573
0.00164883
0.0016079
0.00162204
0.0015788
0.0015935
0.00154887
0.00156394
0.00151837
0.0015337
0.00148745
0.00150298
0.00145621
0.00147189
0.00142471
0.00144051
0.00139302
0.00140891
0.00136118
0.00137713
0.00132925
0.00134524
0.00129726
0.00131328
0.00126527
0.00128128
0.00123329
0.00124929
0.00120136
0.00121734
0.00116951
0.00118544
0.00113774
0.00115363
0.00110606
0.00112191
0.00107449
0.00109028
0.00104301
0.00105876
0.00101167
0.00102731
0.000979468
0.000996021
0.000946885
0.000962761
0.000913489
0.000929292
0.000903328
0.000898024
0.000900449
0.000909717
0.000906331
0.000914008
0.00091232
0.000916416
0.000915364
0.000917478
0.000917127
0.000917091
0.000917465
0.000915313
0.000916371
0.000911305
0.000913692
0.00090633
0.000908761
0.000901151
0.000903846
0.000930142
0.000897602
0.000915311
0.000964491
0.000946695
0.000996707
0.000981058
0.00102799
0.00101231
0.00105956
0.00104379
0.00109122
0.0010754
0.001123
0.00110712
0.0011549
0.00113896
0.0011869
0.00117091
0.001219
0.00120297
0.00125118
0.00123511
0.00128341
0.00126732
0.00131565
0.00129956
0.00134786
0.00133179
0.00138
0.00136397
0.001412
0.00139605
0.00144382
0.00142797
0.00147536
0.00145966
0.00150655
0.00149104
0.00153728
0.00152201
0.00156745
0.00155248
0.00159692
0.00158231
0.00162558
0.0016114
0.00165326
0.00163958
0.00167984
0.00166673
0.0017051
0.00169268
0.00172907
0.00171728
0.00175168
0.00174058
0.00177182
0.00176226
0.00179096
0.00178147
0.00179358
0.00179685
0.00180531
0.00183103
0.00182542
0.00177872
0.0017802
0.00179764
0.00178814
0.00179125
0.000910556
0.000895525
0.000885512
0.000882065
0.00179906
0.00180092
0.00180913
0.00181543
0.00182029
0.00182559
0.00180683
0.00180037
0.00181723
0.00181785
0.00182205
0.00181312
0.00181927
0.00183377
0.00183165
0.00182887
0.00183641
0.0017798
0.0017889
0.00177805
0.00177173
0.00178141
0.0017491
0.00176013
0.00172713
0.00173859
0.00170543
0.00171667
0.00167991
0.00169291
0.00165436
0.00166709
0.00162838
0.00164159
0.00160073
0.00161475
0.0015719
0.00158646
0.00154222
0.00155717
0.00151195
0.00152717
0.00148123
0.00149666
0.00145017
0.00146576
0.00141883
0.00143455
0.0013873
0.00140311
0.00135562
0.00137149
0.00132384
0.00133976
0.001292
0.00130794
0.00126015
0.00127609
0.00122831
0.00124425
0.00119652
0.00121243
0.0011648
0.00118067
0.00113316
0.00114899
0.00110162
0.0011174
0.00107017
0.0010859
0.00103881
0.0010545
0.00100752
0.00102317
0.000976446
0.000991989
0.000943964
0.000959885
0.000926582
0.000888067
0.000882205
0.000885699
0.000894685
0.000891397
0.000898473
0.000896818
0.000900918
0.00089986
0.00090197
0.000901623
0.000901605
0.000901964
0.000899884
0.0009009
0.000896942
0.000898616
0.000891272
0.000894349
0.000888064
0.000927411
0.000894586
0.000912778
0.000961893
0.000944373
0.000992733
0.000977291
0.00102399
0.00100836
0.00105541
0.00103971
0.00108694
0.00107119
0.0011186
0.00110278
0.00115037
0.0011345
0.00118225
0.00116632
0.00121422
0.00119825
0.00124627
0.00123027
0.00127837
0.00126234
0.00131047
0.00129445
0.00134254
0.00132654
0.00137453
0.00135858
0.00140639
0.00139052
0.00143805
0.00142229
0.00146944
0.00145382
0.00150047
0.00148504
0.00153104
0.00151585
0.00156105
0.00154616
0.00159036
0.00157583
0.00161886
0.00160476
0.00164641
0.0016328
0.00167285
0.00165981
0.00169803
0.00168564
0.00172187
0.00171016
0.00174424
0.00173329
0.00176447
0.00175473
0.00178237
0.00177394
0.00179723
0.0017894
0.00181731
0.00180876
0.00183355
0.0018276
0.00181517
0.00180639
0.00180545
0.00179009
0.00179166
0.000878785
0.000879209
0.00181631
0.00179919
0.00180214
0.00181014
0.00181118
0.00181863
0.00182449
0.00182912
0.00183182
0.00182152
0.00181112
0.00181101
0.00181852
0.0018184
0.00183243
0.00182113
0.00183315
0.00182307
0.00182987
0.00181944
0.00183932
0.00184088
0.00183955
0.0018367
0.00179131
0.00179864
0.0018094
0.00177774
0.00177391
0.00175981
0.00177287
0.00174099
0.00175066
0.00171957
0.00173057
0.00169718
0.00170865
0.00167237
0.00168499
0.00164688
0.00165968
0.00162069
0.00163397
0.00159318
0.00160712
0.00156458
0.00157902
0.00153515
0.00154997
0.0015051
0.00152021
0.00147458
0.00148991
0.0014437
0.0014592
0.00141255
0.00142818
0.00138119
0.00139691
0.00134967
0.00136546
0.00131805
0.00133389
0.00128637
0.00130224
0.00125468
0.00127055
0.00122299
0.00123885
0.00119135
0.00120719
0.00115978
0.00117558
0.00112828
0.00114404
0.00109687
0.00111258
0.00106556
0.00108122
0.00103434
0.00104996
0.00100319
0.00101877
0.00097213
0.000987659
0.000941428
0.000956591
0.000907369
0.000923987
0.000876221
0.000892013
0.000866533
0.000859031
0.000863132
0.000873894
0.000869926
0.000879441
0.000877241
0.000883025
0.00088135
0.000885442
0.000884404
0.00088648
0.000886135
0.000886136
0.00088648
0.000884456
0.000885454
0.000881645
0.000883187
0.000877493
0.000879812
0.000869968
0.000873886
0.000863562
0.000866772
0.000891944
0.000860507
0.000876896
0.000924592
0.00090924
0.00095803
0.000941703
0.000988626
0.000973224
0.00101974
0.00100419
0.001051
0.00103538
0.00108239
0.00106671
0.00111391
0.00109817
0.00114555
0.00112974
0.00117729
0.00116143
0.00120912
0.00119322
0.00124103
0.0012251
0.00127297
0.00125703
0.00130493
0.00128898
0.00133685
0.00132092
0.00136868
0.00135281
0.00140038
0.00138459
0.00143188
0.00141619
0.0014631
0.00144756
0.00149396
0.00147861
0.00152436
0.00150926
0.00155419
0.00153939
0.00158334
0.0015689
0.00161168
0.00159766
0.00163908
0.00162555
0.00166539
0.00165241
0.00169045
0.00167812
0.00171416
0.00170252
0.00173633
0.00172549
0.00175653
0.00174675
0.00177451
0.0017659
0.00179037
0.00178247
0.00180496
0.00179891
0.00180552
0.00181729
0.00182016
0.00183683
0.00183162
0.0018011
0.00180263
0.00182358
0.00180982
0.0018125
0.000873017
0.000856123
0.000848458
0.000845637
0.00182067
0.00182083
0.00182762
0.00183295
0.00183673
0.00183892
0.001811
0.00180402
0.00180431
0.00181436
0.00182307
0.00183225
0.00183883
0.00182901
0.00183275
0.00184564
0.00184495
0.00184068
0.00183946
0.00182305
0.00182768
0.00180234
0.0018038
0.0017984
0.00178508
0.00179976
0.00176665
0.00177366
0.00175142
0.00176052
0.00173248
0.00174218
0.00171122
0.0017221
0.00168866
0.00170017
0.00166427
0.00167667
0.0016389
0.0016517
0.00161266
0.00162594
0.00158527
0.00159913
0.00155687
0.00157121
0.00152767
0.00154238
0.00149784
0.00151284
0.00146753
0.00148276
0.00143685
0.00145225
0.00140588
0.00142142
0.0013747
0.00139034
0.00134336
0.00135907
0.00131191
0.00132767
0.0012804
0.00129618
0.00124887
0.00126466
0.00121735
0.00123313
0.00118587
0.00120163
0.00115445
0.00117017
0.00112311
0.00113879
0.00109185
0.00110749
0.00106069
0.00107628
0.00102962
0.00104516
0.000998639
0.00101414
0.000967749
0.000983197
0.00093744
0.000952457
0.000904483
0.000921226
0.00088784
0.000852338
0.000843871
0.000848828
0.000859685
0.000856006
0.000864063
0.000862025
0.000867625
0.000865972
0.000869982
0.000868968
0.000871005
0.000870663
0.000870671
0.000871008
0.000869008
0.000870003
0.000866098
0.000867702
0.000862043
0.000864247
0.000855255
0.00085904
0.00085166
0.000889568
0.000857226
0.000874564
0.000921898
0.000905558
0.000953553
0.000938221
0.000984274
0.000968878
0.00101524
0.000999765
0.00104635
0.0010308
0.00107759
0.00106198
0.00110896
0.00109329
0.00114044
0.00112472
0.00117203
0.00115626
0.00120371
0.00118789
0.00123546
0.00121961
0.00126725
0.00125138
0.00129904
0.00128318
0.0013308
0.00131496
0.00136247
0.00134668
0.001394
0.00137829
0.00142532
0.00140972
0.00145636
0.00144092
0.00148704
0.00147179
0.00151726
0.00150225
0.00154692
0.0015322
0.0015759
0.00156154
0.00160408
0.00159013
0.00163132
0.00161786
0.00165748
0.00164458
0.00168242
0.00167015
0.001706
0.00169443
0.00172801
0.00171725
0.00174815
0.00173837
0.00176617
0.00175749
0.00178222
0.00177435
0.00179555
0.00178964
0.00180591
0.00180048
0.00182011
0.00180846
0.00182707
0.00181946
0.0018131
0.00182653
0.00182898
0.00181164
0.00181307
0.000840521
0.000841815
0.00182865
0.00182002
0.00182226
0.00183017
0.00182992
0.00183608
0.00184065
0.00184371
0.00184523
0.00180845
0.00179949
0.00179456
0.0018117
0.00180622
0.00181655
0.00180769
0.00181965
0.00182344
0.00183486
0.00183818
0.00184308
0.00183852
0.00185022
0.00184759
0.00184242
0.0018376
0.00182969
0.00182419
0.00181285
0.00180478
0.00180564
0.00179252
0.00178228
0.00177284
0.00178909
0.00175841
0.00176509
0.00174249
0.00175109
0.00172343
0.00173322
0.00170239
0.00171315
0.00167985
0.00169134
0.00165572
0.00166798
0.00163048
0.00164324
0.00160427
0.00161753
0.00157701
0.00159079
0.00154881
0.00156304
0.00151982
0.00153442
0.0014902
0.0015051
0.00146011
0.00147523
0.00142963
0.00144493
0.00139886
0.0014143
0.00136786
0.0013834
0.00133671
0.00135232
0.00130544
0.00132111
0.00127411
0.0012898
0.00124276
0.00125846
0.00121141
0.0012271
0.0011801
0.00119577
0.00114885
0.00116449
0.00111767
0.00113327
0.00108658
0.00110213
0.00105558
0.00107108
0.00102467
0.00104013
0.000993862
0.00100927
0.000963159
0.000978515
0.00093271
0.000947883
0.000901508
0.000917522
0.000869806
0.000884618
0.000837605
0.000853464
0.000829598
0.00082185
0.000826235
0.000837748
0.000833152
0.000844288
0.000841618
0.000848689
0.000846556
0.000852226
0.000850604
0.000854537
0.000853541
0.000855545
0.000855207
0.000855218
0.000855549
0.000853579
0.00085456
0.000850676
0.000852283
0.000846657
0.000848784
0.000841687
0.000844416
0.000834099
0.000837953
0.00082684
0.000830265
0.000854486
0.000823735
0.000838931
0.00088685
0.000870334
0.000918533
0.000902408
0.000949024
0.000933799
0.000979704
0.000964367
0.00101052
0.000995121
0.00104147
0.001026
0.00107255
0.00105702
0.00110376
0.00108817
0.00113508
0.00111944
0.00116651
0.00115081
0.00119803
0.00118229
0.00122961
0.00121384
0.00126122
0.00124544
0.00129284
0.00127707
0.00132442
0.00130867
0.00135591
0.00134021
0.00138726
0.00137164
0.0014184
0.00140289
0.00144926
0.0014339
0.00147975
0.00146459
0.00150979
0.00149487
0.00153926
0.00152464
0.00156807
0.00155379
0.00159608
0.00158221
0.00162316
0.00160978
0.00164918
0.00163635
0.001674
0.00166179
0.00169744
0.00168594
0.00171933
0.00170864
0.00173941
0.00172965
0.00175743
0.00174873
0.0017734
0.00176566
0.00178677
0.0017806
0.00179695
0.00179227
0.00180518
0.00180131
0.00180358
0.00183479
0.00183689
0.00182059
0.00181505
0.00182166
0.00182292
0.00183699
0.00182946
0.00183143
0.000834465
0.000818139
0.000811649
0.000807902
0.00183879
0.00183842
0.00184383
0.00184767
0.00184997
0.00185084
0.00180027
0.00179481
0.0017834
0.00178875
0.00181496
0.00181727
0.00183063
0.0018277
0.00184055
0.00184404
0.00184558
0.00185354
0.00184954
0.00184428
0.0018343
0.00183093
0.00182264
0.00180728
0.00181305
0.00182278
0.00179462
0.00177846
0.00179418
0.00180001
0.00177901
0.00177665
0.00176398
0.00177545
0.00174954
0.0017565
0.00173309
0.00174177
0.00171409
0.00172385
0.00169321
0.00170389
0.00167074
0.00168218
0.00164679
0.00165896
0.00162168
0.00163439
0.00159556
0.00160877
0.00156843
0.00158214
0.00154041
0.00155455
0.00151163
0.00152613
0.00148223
0.00149702
0.00145234
0.00146736
0.00142207
0.00143727
0.0013915
0.00140684
0.0013607
0.00137614
0.00132974
0.00134526
0.00129866
0.00131423
0.00126752
0.00128312
0.00123635
0.00125196
0.00120519
0.00122079
0.00117405
0.00118963
0.00114298
0.00115853
0.00111197
0.00112749
0.00108106
0.00109652
0.00105023
0.00106565
0.0010195
0.00103487
0.000988868
0.00100419
0.000958349
0.000973613
0.000927965
0.000943148
0.000897794
0.000912891
0.000866008
0.000881445
0.000850229
0.000815718
0.000806799
0.000811979
0.000823155
0.000819221
0.000828802
0.000826214
0.000833345
0.000831184
0.00083683
0.000835235
0.000839104
0.000838123
0.000840098
0.000839765
0.00083978
0.000840103
0.000838169
0.000839133
0.000835323
0.000836897
0.000831331
0.000833457
0.000826386
0.000829024
0.000819134
0.000823044
0.000815223
0.000851499
0.000820847
0.000835775
0.000883697
0.000867226
0.00091393
0.000898677
0.000944399
0.000929175
0.000974943
0.000959685
0.0010056
0.00099028
0.00103638
0.001021
0.00106729
0.00105185
0.00109833
0.00108282
0.00112948
0.00111392
0.00116073
0.00114512
0.00119207
0.00117642
0.00122347
0.0012078
0.00125491
0.00123922
0.00128635
0.00127066
0.00131774
0.00130208
0.00134904
0.00133344
0.0013802
0.00136468
0.00141115
0.00139574
0.00144181
0.00142655
0.00147211
0.00145705
0.00150196
0.00148713
0.00153125
0.00151672
0.00155988
0.00154569
0.00158772
0.00157394
0.00161465
0.00160134
0.00164053
0.00162777
0.00166522
0.00165307
0.00168855
0.0016771
0.00171034
0.00169969
0.00173036
0.00172062
0.00174839
0.00173967
0.00176431
0.00175664
0.0017777
0.00177143
0.00178821
0.00178331
0.00179553
0.0017925
0.00179906
0.00179736
0.00180578
0.00179671
0.00179954
0.00179494
0.00179948
0.00184223
0.00184328
0.00183101
0.00183216
0.000803207
0.000804383
0.00184461
0.00183812
0.00183996
0.0018467
0.00184621
0.00185086
0.00185392
0.00185545
0.00185534
0.00177458
0.00177868
0.00177786
0.00179329
0.00179746
0.00180486
0.00182426
0.00182444
0.00183636
0.0018379
0.0018445
0.00184782
0.00185578
0.0018508
0.00184388
0.0018372
0.00182789
0.00181651
0.00180483
0.00178834
0.0017994
0.00178878
0.00183207
0.0017931
0.00176921
0.00178224
0.00177897
0.00178085
0.00178472
0.00176705
0.00177278
0.0017553
0.0017626
0.00174026
0.00174781
0.00172349
0.00173222
0.00170453
0.00171427
0.00168373
0.00169437
0.00166135
0.00167275
0.00163754
0.00164963
0.00161255
0.0016252
0.00158654
0.00159969
0.00155956
0.00157318
0.00153171
0.00154575
0.00150312
0.00151752
0.00147393
0.00148862
0.00144426
0.00145917
0.00141419
0.00142929
0.00138383
0.00139906
0.00135323
0.00136857
0.00132247
0.00133789
0.00129159
0.00130706
0.00126064
0.00127614
0.00122967
0.00124518
0.00119869
0.0012142
0.00116775
0.00118324
0.00113686
0.00115232
0.00110604
0.00112146
0.00107531
0.00109068
0.00104466
0.00105999
0.00101412
0.0010294
0.000983675
0.000998902
0.000953343
0.000968512
0.000923133
0.000938239
0.000893199
0.000908125
0.000862093
0.00087749
0.000831331
0.000846807
0.000800254
0.000815093
0.00079256
0.000784431
0.000789035
0.000801178