/*--------------------------------*- C++ -*----------------------------------*\
  =========                 |
  \\      /  F ield         | OpenFOAM: The Open Source CFD Toolbox
   \\    /   O peration     | Website:  https://openfoam.org
    \\  /    A nd           | Version:  10
     \\/     M anipulation  |
\*---------------------------------------------------------------------------*/
FoamFile
{
    format      ascii;
    class       volVectorField;
    location    "95";
    object      U;
}
// * * * * * * * * * * * * * * * * * * * * * * * * * * * * * * * * * * * * * //

dimensions      [0 1 -1 0 0 0 0];

internalField   nonuniform List<vector> 
28942
(
(0.00442709 -0.00225534 -3.37614e-22)
(0.00599238 -0.00233822 -6.25853e-23)
(0.0179328 -0.0123843 -8.33961e-22)
(0.103306 0.0182352 -5.27703e-21)
(0.102344 0.0222778 1.72762e-21)
(0.0132131 0.0003957 0)
(0.0156941 -1.59404e-05 9.59252e-24)
(0.0182213 0.000509767 -8.43983e-24)
(0.135234 -0.0184501 -2.5858e-22)
(0.133891 -0.0168164 7.35649e-22)
(0.009792 0.00401452 -6.60599e-22)
(0.0160633 0.0056276 2.49501e-22)
(0.00713534 0.00315217 0)
(0.00470611 0.00206969 0)
(0.0415826 0.00189501 -1.35398e-23)
(0.0398728 0.00241659 -5.54683e-24)
(0.0893151 0.0158896 6.7009e-22)
(0.087003 0.0138581 1.07831e-21)
(0.0121628 -0.0151102 2.93446e-21)
(0.0293266 -0.0304628 -7.72385e-22)
(0.0981158 0.0374018 9.56194e-22)
(0.0972947 0.0344375 0)
(0.0187343 0.00462514 1.15402e-21)
(0.00786144 0.00236267 5.4332e-22)
(0.0377886 0.00720846 9.30385e-22)
(0.0575183 0.00291009 -8.48173e-22)
(0.00764704 -0.0184875 8.52918e-21)
(0.00669316 -0.0165523 -3.14085e-21)
(0.0355041 -0.025319 5.78105e-22)
(0.0192973 -0.0136799 1.99639e-22)
(0.0135697 -0.00123793 0)
(0.0169626 -0.00105794 -1.23196e-23)
(0.0215783 0.00395714 2.59247e-22)
(0.0311763 0.00180511 -3.89351e-23)
(0.0188245 0.0180091 1.31977e-21)
(0.0157193 0.0191193 -1.31308e-21)
(0.0321681 0.0376173 -3.06261e-21)
(0.0186684 0.0305361 -1.07089e-21)
(0.00722328 -2.41861e-05 -7.9827e-24)
(0.00864852 0.0161971 -2.62159e-21)
(0.0306494 -0.00620317 0)
(0.0513427 -0.0109694 0)
(0.111767 -0.0116672 -2.75476e-23)
(0.111257 -0.0116646 8.12166e-23)
(0.115828 -0.0115601 7.07812e-23)
(0.025734 0.000148765 1.02969e-23)
(0.023953 -0.000593908 -1.65058e-23)
(0.0343192 -0.000482831 -7.61004e-23)
(0.0328728 -0.000551335 2.17258e-23)
(0.0266662 -0.00253714 -1.90267e-22)
(0.0197827 -0.00301836 1.23862e-22)
(0.128659 0.00128114 -4.05467e-22)
(0.127973 0.000810394 -3.78613e-22)
(0.134551 -0.0212157 -3.7693e-24)
(0.133005 -0.0194899 1.4036e-22)
(0.0824658 0.00634815 7.05248e-22)
(0.101717 -0.0007718 2.4281e-22)
(0.00305748 0.00162023 -5.5718e-22)
(0.00893981 0.00367827 0)
(0.00825459 0.00328783 2.34363e-22)
(0.00288158 0.00148754 4.80693e-22)
(0.000362046 0.000226137 -3.99867e-22)
(0.000192769 0.000122603 -3.83777e-22)
(0.109753 -0.0426053 0)
(0.104882 -0.0256119 1.23014e-22)
(0.121752 -0.033118 -4.16592e-23)
(0.123401 -0.0437708 0)
(0.0901035 -0.0328031 -6.40821e-22)
(0.0936072 -0.0352704 -4.21244e-22)
(0.00188402 -0.00112896 1.11605e-21)
(0.00248739 -0.00201648 -3.517e-22)
(0.00487067 -0.00315443 8.72543e-22)
(0.0848718 -0.0457589 0)
(0.0911983 -0.0396235 2.17568e-21)
(0.08054 -0.0530238 5.87972e-22)
(0.114112 0.0124121 2.30301e-22)
(0.112708 0.00691126 -2.55546e-22)
(0.125079 0.0110183 -1.06286e-22)
(0.00468293 -0.00286158 -5.39987e-23)
(0.00633788 -0.00442545 4.54568e-22)
(0.051003 -0.0311442 1.28582e-22)
(0.0331507 -0.0205347 -2.5856e-22)
(0.00211006 -0.000595477 3.18252e-21)
(0.00515529 -0.00207155 -1.24032e-21)
(0.100974 0.0482493 1.52155e-23)
(0.0970246 0.0552167 -7.70832e-22)
(0.0807173 0.0540125 7.03987e-22)
(0.0472023 0.0345095 -2.70013e-21)
(0.0444305 0.0316053 1.91231e-21)
(0.0294903 0.0205946 -1.1451e-22)
(0.0327108 0.0232475 -6.44954e-22)
(0.0379517 0.0283572 8.74705e-22)
(0.00440702 0.00272969 -5.74796e-23)
(0.0077587 0.00398097 -1.66247e-23)
(0.00318772 0.00202191 3.33141e-23)
(0.00192291 0.00164638 -4.45092e-22)
(0.00144982 0.00157076 5.45441e-22)
(0.0157415 0.0115432 -3.27298e-21)
(0.0174943 0.013635 7.49995e-22)
(0.00880214 -0.00384558 0)
(0.101389 0.00515937 0)
(0.0984003 0.0156831 -3.96869e-21)
(0.0604415 0.0104756 1.94977e-21)
(0.0886814 0.0178811 0)
(0.135441 -0.00106611 0)
(0.134879 -0.00177914 0)
(0.133184 -0.00227417 -2.64071e-22)
(0.114973 0.0266164 -2.13284e-22)
(0.114064 0.0280188 2.10814e-21)
(0.113266 0.0254785 1.13124e-21)
(0.00229326 0.00129902 1.03785e-21)
(0.00151097 0.000777194 -1.16489e-21)
(0.0190408 -0.00553143 -5.4201e-22)
(0.0201193 -0.00505932 4.61809e-22)
(0.00909443 -0.00292501 9.12812e-22)
(0.00647652 0.0111507 1.48171e-21)
(0.0189674 0.0181626 3.46429e-21)
(0.0134647 0.0228014 2.72176e-22)
(0.00492074 0.0143072 -8.64034e-21)
(0.116979 0.0477553 5.61475e-23)
(0.107858 0.0582442 1.07758e-21)
(0.118317 0.0548834 -1.85842e-21)
(0.039083 -0.0294121 7.34999e-22)
(0.0240043 -0.0172616 -4.7075e-22)
(0.0053207 -0.000740148 -4.11089e-21)
(0.00453779 -0.00359012 0)
(0.0124953 -0.0016695 2.00721e-21)
(0.0219598 -0.0161272 7.81649e-22)
(0.0342482 -0.0277788 -1.96489e-21)
(0.0324404 -4.06146e-05 5.23499e-23)
(0.0345121 0.000113149 -3.87234e-23)
(0.0304499 0.000132319 -1.61944e-24)
(0.0280498 -0.0419398 0)
(0.0295993 -0.042831 0)
(0.0896238 -0.0186527 -4.64979e-22)
(0.0995917 -0.0220903 3.15807e-21)
(0.0870347 -0.0252785 0)
(0.0471079 -0.0401804 0)
(0.058167 -0.0513748 -7.86613e-22)
(0.0413097 0.0393374 2.09166e-21)
(-2.32386e-06 0.000214445 5.03657e-22)
(-0.000194186 0.000130914 -3.31154e-22)
(0.0223221 -0.0192366 -7.94592e-22)
(0.120257 -0.0114313 3.99413e-22)
(0.11962 -0.0113752 -7.72297e-23)
(0.115407 -0.00572911 -6.44174e-23)
(0.108333 0.000973685 8.58452e-23)
(0.117598 -0.000328799 1.70197e-22)
(8.2207e-05 0.000258981 1.94774e-22)
(0.0437412 0.0344175 3.21877e-21)
(0.0618687 0.046307 -7.91967e-22)
(0.0593024 0.0393628 -3.04954e-24)
(0.0211396 -0.000777149 5.21483e-24)
(0.0208262 -0.000753356 2.69653e-23)
(0.0226047 -0.000522263 9.70691e-25)
(0.0252524 -0.000546456 -1.33145e-23)
(0.0454159 0.0380888 1.33757e-22)
(0.0189602 0.0160582 0)
(0.000137934 -2.7165e-05 3.61011e-22)
(0.000420742 -0.000254704 -4.00537e-22)
(0.00185728 -0.0010068 2.78959e-22)
(0.0365417 -0.00771575 -1.82654e-21)
(0.0648473 -0.00209656 -7.43543e-22)
(0.029396 -0.000165915 -2.12981e-24)
(0.0744613 -0.00764422 2.69295e-22)
(0.0706742 -0.0157263 5.48091e-23)
(0.0943024 0.039924 2.15142e-21)
(0.0914028 0.0454594 9.92838e-23)
(0.0887475 0.0290904 1.21976e-21)
(0.0914728 0.0308073 -8.83948e-22)
(0.0986942 0.0410855 0)
(0.126121 -0.000305704 1.50772e-22)
(0.126892 -0.000738063 2.84937e-22)
(0.128093 -0.0123576 -2.9815e-22)
(0.129557 -0.0121635 5.10437e-22)
(0.117053 0.0241615 2.61703e-22)
(0.119111 0.0250632 -7.412e-22)
(0.117099 0.0261737 0)
(0.115134 0.0249103 1.54186e-22)
(0.11667 0.0280955 0)
(0.117171 0.0361163 -5.54648e-22)
(0.115709 0.0381674 -3.02668e-22)
(0.111335 0.0419786 -5.43568e-22)
(0.113729 0.0401116 0)
(0.116417 0.0430872 1.7994e-21)
(0.113695 0.045009 4.73858e-23)
(0.108328 0.0441888 -3.05183e-22)
(0.0996258 0.0502898 -1.29331e-21)
(0.0984169 0.0455014 -2.27788e-22)
(0.0249369 -0.00846124 5.56137e-23)
(0.0327885 -0.00931701 -2.21747e-23)
(0.00627873 -0.00248447 -6.8223e-22)
(0.028809 -9.9874e-05 -3.29432e-23)
(0.0370002 -0.000278207 0)
(-3.18479e-06 -3.97622e-05 4.2491e-22)
(1.30072e-05 -4.71235e-05 2.16554e-22)
(0.0334465 -0.00174371 1.58395e-23)
(0.0395961 -0.00169878 6.58821e-24)
(0.0391689 -0.00117711 0)
(0.0323405 -0.000816695 6.97746e-24)
(0.0852344 0.00327718 -1.09771e-22)
(0.0844619 0.00296261 5.18638e-22)
(0.0853154 0.00304055 2.40279e-22)
(0.000670436 0.000271839 3.87084e-22)
(-0.000159427 -0.000129291 -5.61694e-22)
(-0.000201074 -0.000169032 4.78094e-22)
(0.00149957 0.000617098 0)
(7.98219e-05 8.77094e-05 1.12914e-21)
(0.000171794 -3.90382e-05 -8.12752e-22)
(0.00744562 0.0036722 -9.83021e-22)
(0.00145101 0.000780976 -1.17634e-21)
(0.0017199 0.000860298 0)
(0.00157196 0.00754432 0)
(0.000576934 0.00328135 0)
(0.000313303 0.00197696 0)
(0.136617 -0.00107645 5.80887e-23)
(0.137632 -0.000910212 0)
(0.13599 -0.00186015 -6.76487e-23)
(0.0881097 -0.0148526 4.43967e-21)
(0.0901165 -0.0152621 -1.61162e-21)
(0.089032 -0.0128773 0)
(0.095315 0.000364441 -6.4133e-24)
(0.0958537 0.000359638 1.28358e-23)
(0.0947735 0.000368528 -4.34018e-24)
(0.0963864 0.000356241 0)
(0.096917 0.000360483 -8.18197e-24)
(0.0974408 0.000359454 0)
(0.0974314 -0.000195803 0)
(0.0979555 0.000347729 3.03572e-23)
(0.0979407 -0.00021042 0)
(0.096914 -0.000192679 -8.24015e-24)
(0.0963834 -0.000194846 0)
(0.0958495 -0.000196355 4.29214e-24)
(0.0953082 -0.000201941 -6.41131e-24)
(0.0947682 -0.0002068 4.33476e-24)
(0.0984569 0.000334287 -2.90494e-23)
(0.0984475 -0.000219667 -1.01555e-24)
(0.0942224 0.000377606 9.18297e-29)
(0.0942118 -0.000205936 -6.62641e-24)
(0.0936605 0.000384609 3.52487e-23)
(0.0989507 0.00032656 2.71342e-26)
(0.0989572 -0.000221806 -1.01595e-24)
(0.0936528 -0.000212742 1.30616e-23)
(0.099446 0.000317685 2.73189e-23)
(0.0999378 0.000310747 -2.72964e-23)
(0.0994571 -0.000224963 2.04616e-24)
(0.0999511 -0.000226854 4.04273e-24)
(0.0931141 0.000401651 -3.42952e-23)
(0.0930988 -0.000217995 -8.59795e-24)
(0.100425 0.000302152 0)
(0.10044 -0.000230005 -3.98749e-24)
(0.0925447 0.000409272 4.2439e-27)
(0.0925303 -0.0002184 -4.25454e-27)
(0.100908 0.000295233 0)
(0.100924 -0.000232094 0)
(0.0919684 0.000413581 0)
(0.0919539 -0.00022224 0)
(0.101387 0.000286422 0)
(0.101404 -0.000235605 1.91449e-24)
(0.0913857 0.000417883 -1.78089e-23)
(0.0913704 -0.00022523 -4.34602e-27)
(0.101862 0.000279223 1.0035e-25)
(0.101879 -0.000238021 -2.04467e-24)
(0.0907959 0.000420377 1.7894e-23)
(0.0907803 -0.000229772 0)
(0.102332 0.000270052 0)
(0.10235 -0.000241739 0)
(0.0901998 0.000423383 -1.13246e-24)
(0.0901837 -0.000232268 1.9438e-23)
(0.102799 0.000262544 1.24026e-23)
(0.102816 -0.000244019 0)
(0.0895977 0.000424746 -1.02089e-25)
(0.0895804 -0.000234859 -1.83978e-23)
(0.103262 0.000253244 -1.85501e-23)
(0.10328 -0.000247482 -5.38312e-24)
(0.0889757 0.000419949 1.87601e-23)
(0.0889615 -0.00023791 0)
(0.103723 0.000246567 6.10917e-24)
(0.103742 -0.00024628 3.58999e-24)
(0.0883499 0.000421542 -9.49851e-24)
(0.0883359 -0.000243588 1.92601e-23)
(0.104178 0.000241698 -2.4391e-23)
(0.104204 -0.000239358 2.7491e-23)
(0.0876926 0.000408933 9.79276e-24)
(0.0876878 -0.000254816 3.09959e-25)
(0.104637 0.000238767 0)
(0.104659 -0.000233266 1.30978e-23)
(0.0870265 0.000396604 -1.97018e-23)
(0.0870291 -0.000272815 3.94116e-23)
(0.105109 0.000227527 0)
(0.105117 -0.000232893 0)
(0.0879955 0.00106786 -9.68986e-24)
(0.0873233 0.00106458 -3.92264e-23)
(0.0863359 0.000378124 0)
(0.0863556 -0.000301967 -2.00824e-23)
(0.0892875 0.00106559 -6.08224e-24)
(0.0886457 0.00106755 1.19461e-24)
(0.0905076 0.00104895 0)
(0.0898967 0.00105674 -1.96415e-23)
(0.091688 0.00102876 -3.79027e-26)
(0.0911018 0.00103935 0)
(0.0928379 0.00100513 0)
(0.0922665 0.00101732 0)
(0.0939597 0.000974909 0)
(0.0934028 0.000991516 0)
(0.0950337 0.000942542 8.56874e-24)
(0.0944938 0.000957783 2.16098e-24)
(0.0961018 0.000920221 -8.26248e-24)
(0.0955742 0.000931374 -8.55744e-24)
(0.0971459 0.000901077 1.46636e-23)
(0.0966203 0.000905325 1.87322e-23)
(0.0981882 0.000884729 0)
(0.0976697 0.000895669 0)
(0.0991902 0.000864788 -6.43511e-26)
(0.098693 0.000874746 0)
(0.10017 0.000841795 0)
(0.0996822 0.000853533 0)
(0.101131 0.000817238 0)
(0.100652 0.00082956 0)
(0.102075 0.000792091 0)
(0.101605 0.000804645 0)
(0.103004 0.000766731 0)
(0.102541 0.000779347 0)
(0.103916 0.000741429 0)
(0.103462 0.000754024 0)
(0.10482 0.000701167 -9.96429e-24)
(0.104368 0.000727629 0)
(0.105273 0.000679215 -3.2169e-24)
(0.105573 0.000212228 3.14079e-24)
(0.105578 -0.00023681 -3.11465e-24)
(0.104378 -0.000692078 0)
(0.105283 -0.000684166 -1.2782e-23)
(0.104831 -0.000686702 -6.58706e-24)
(0.103462 -0.000703018 1.80424e-24)
(0.103921 -0.000698492 -7.05874e-24)
(0.102538 -0.000707749 5.84476e-26)
(0.103002 -0.000706476 0)
(0.101598 -0.000709929 0)
(0.10207 -0.000708665 0)
(0.10064 -0.000713578 0)
(0.101121 -0.000711455 0)
(0.0996636 -0.000719511 0)
(0.100154 -0.00071614 7.70085e-30)
(0.0986666 -0.00072894 6.50223e-26)
(0.0991675 -0.00072363 0)
(0.0976532 -0.000734929 0)
(0.0981597 -0.000733004 0)
(0.0966126 -0.000741939 0)
(0.097134 -0.000737498 0)
(0.0955494 -0.000756627 0)
(0.0960823 -0.000746531 -4.33778e-24)
(0.0944617 -0.000778968 1.14201e-24)
(0.0950079 -0.000770433 -5.59888e-24)
(0.0933611 -0.000805222 0)
(0.0939184 -0.000790469 -4.55605e-24)
(0.0922236 -0.000827779 0)
(0.0927961 -0.000816514 0)
(0.0910561 -0.000850818 0)
(0.0916437 -0.000839199 0)
(0.0898536 -0.000872805 0)
(0.0904603 -0.000862003 0)
(0.0886099 -0.000895418 -4.97586e-24)
(0.0892382 -0.000882761 0)
(0.0873292 -0.000936496 -2.01642e-23)
(0.0879742 -0.000910896 -5.0022e-24)
(0.0866656 -0.000967067 2.05304e-23)
(0.086636 0.00106282 3.88979e-23)
(0.10573 0.000660506 6.29695e-24)
(0.105737 -0.000682295 -1.22981e-23)
(0.0856594 -0.000341856 0)
(0.0859926 -0.00101177 0)
(0.0859345 0.00106078 0)
(0.0856299 0.000352428 0)
(0.0885895 0.00171324 0)
(0.0872658 0.00174323 9.7403e-24)
(0.0879334 0.00172629 9.8315e-24)
(0.0898635 0.00168249 1.24904e-23)
(0.0892336 0.00169877 -2.49687e-24)
(0.0910626 0.00164435 3.86015e-26)
(0.0904692 0.00166321 0)
(0.0922249 0.00160653 0)
(0.0916477 0.00162554 0)
(0.0933564 0.00156826 0)
(0.0927943 0.00158744 0)
(0.0944615 0.00153209 0)
(0.0939118 0.0015492 0)
(0.0955342 0.00149442 0)
(0.0950014 0.00151372 0)
(0.0965843 0.00146095 -3.46224e-26)
(0.0960587 0.00147836 8.93339e-24)
(0.0976017 0.00142558 -3.32092e-26)
(0.0970985 0.00144258 -1.7421e-23)
(0.0986156 0.00138896 0)
(0.0981099 0.0014063 0)
(0.0996022 0.00135565 3.21314e-26)
(0.0991119 0.00137211 0)
(0.100567 0.00132247 0)
(0.100087 0.0013391 0)
(0.101514 0.00128899 0)
(0.101043 0.00130574 0)
(0.102443 0.00125552 0)
(0.10198 0.00127222 0)
(0.103356 0.00122226 0)
(0.102902 0.00123884 0)
(0.104254 0.00118838 0)
(0.103807 0.00120563 0)
(0.105142 0.00114257 6.80598e-24)
(0.104699 0.00116762 0)
(0.106034 0.00020122 0)
(0.106181 0.000642163 6.15507e-24)
(0.106031 0.00109645 0)
(0.105585 0.00111911 6.62915e-24)
(0.105601 -0.00112867 1.31896e-23)
(0.106045 -0.00112319 3.23878e-24)
(0.106191 -0.000684653 2.52816e-23)
(0.106037 -0.000238534 0)
(0.104709 -0.00114328 0)
(0.105155 -0.00113554 -1.99144e-23)
(0.103808 -0.00115794 5.67723e-26)
(0.10426 -0.00114961 7.10167e-24)
(0.102896 -0.00116887 -5.84473e-26)
(0.103354 -0.00116365 0)
(0.101969 -0.0011796 0)
(0.102435 -0.00117405 0)
(0.101025 -0.00119237 0)
(0.101499 -0.00118566 0)
(0.100062 -0.00120801 0)
(0.100545 -0.00119977 -7.70083e-30)
(0.0990798 -0.0012271 -1.29969e-25)
(0.099573 -0.00121713 0)
(0.0980804 -0.00124778 0)
(0.0985823 -0.00123737 0)
(0.097055 -0.00127105 2.18857e-24)
(0.0975712 -0.00125871 0)
(0.0960106 -0.00129671 0)
(0.0965338 -0.00128168 -2.17944e-24)
(0.0949416 -0.00132984 4.56548e-24)
(0.0954758 -0.00131295 4.53684e-24)
(0.0938474 -0.0013628 0)
(0.0943988 -0.00134632 0)
(0.0927247 -0.00139939 0)
(0.0932895 -0.00138076 0)
(0.0915726 -0.00143838 0)
(0.0921525 -0.00141858 0)
(0.0903873 -0.00147989 0)
(0.0909843 -0.00145873 0)
(0.0891654 -0.00152547 7.96026e-26)
(0.0897813 -0.00150209 0)
(0.0879034 -0.001578 -8.07349e-26)
(0.0885406 -0.00155096 0)
(0.086605 -0.00166199 -2.11187e-23)
(0.087258 -0.00161656 2.1109e-23)
(0.0865824 0.00176045 1.98273e-23)
(0.0853129 -0.00106762 0)
(0.0859435 -0.0017196 -4.29611e-23)
(0.0849601 -0.000388499 0)
(0.106475 0.00107925 0)
(0.106491 -0.00111822 -3.14043e-24)
(0.0852251 0.00105859 5.02158e-23)
(0.0858913 0.00177852 2.0089e-23)
(0.0846159 -0.0011261 1.08606e-23)
(0.0852704 -0.0017846 5.42919e-23)
(0.0849097 0.000322512 0)
(0.106476 0.00152822 2.59033e-23)
(0.106906 0.00150538 -1.27911e-23)
(0.106638 -0.00068414 -6.22025e-24)
(0.10693 -0.00111159 3.09234e-23)
(0.086895 0.00247161 7.04722e-23)
(0.085179 0.00179609 -3.95679e-23)
(0.0855006 0.00252908 -1.76966e-22)
(0.086195 0.00249741 -4.02646e-23)
(0.0882104 0.00240344 1.96052e-23)
(0.0875596 0.00243867 -5.99498e-23)
(0.0894698 0.00233884 -2.00437e-23)
(0.0888477 0.00237079 -1.51258e-23)
(0.0906958 0.00228166 -4.99445e-24)
(0.0900905 0.00231103 -4.99959e-24)
(0.0918681 0.00222711 -3.86015e-26)
(0.091289 0.00225458 0)
(0.0930022 0.00217274 0)
(0.0924391 0.00219976 0)
(0.0941061 0.00211994 0)
(0.0935577 0.00214614 0)
(0.0951828 0.00206955 0)
(0.0946477 0.00209429 0)
(0.0962326 0.00202161 0)
(0.0957107 0.00204496 0)
(0.0972568 0.00197403 0)
(0.0967472 0.00199741 0)
(0.0982575 0.0019282 5.99614e-29)
(0.0977607 0.00195202 0)
(0.0992398 0.00188155 0)
(0.0987505 0.00190433 0)
(0.100203 0.00183732 3.2053e-26)
(0.0997237 0.00185924 0)
(0.101146 0.00179424 0)
(0.100676 0.00181568 0)
(0.102071 0.00175187 0)
(0.10161 0.00177298 0)
(0.102979 0.00171012 0)
(0.102527 0.00173092 0)
(0.103871 0.00166895 0)
(0.103427 0.00168948 0)
(0.104749 0.00162706 0)
(0.104312 0.00164834 0)
(0.105614 0.00157789 3.46505e-24)
(0.105183 0.0016032 -1.74409e-24)
(0.106046 0.00155329 -1.32174e-23)
(0.106485 0.000193934 -2.94825e-24)
(0.106915 0.00106148 1.23219e-23)
(0.106628 0.000629852 -9.42662e-24)
(0.106488 -0.00024793 0)
(0.106063 -0.00156414 -9.81531e-24)
(0.106926 -0.00154251 -2.83073e-23)
(0.106495 -0.00155372 2.28027e-23)
(0.105196 -0.00158798 0)
(0.10563 -0.0015752 0)
(0.104314 -0.0016041 -8.38451e-29)
(0.104755 -0.00159448 0)
(0.103421 -0.0016223 0)
(0.103869 -0.00161325 0)
(0.102512 -0.00164136 -5.99372e-26)
(0.102968 -0.00163159 0)
(0.101587 -0.00166292 0)
(0.102052 -0.00165178 0)
(0.100645 -0.00168769 0)
(0.101118 -0.00167489 0)
(0.0996837 -0.00171594 6.49564e-26)
(0.100166 -0.00170139 0)
(0.0987039 -0.00174722 6.6518e-26)
(0.0991963 -0.0017312 0)
(0.0977027 -0.00178237 0)
(0.0982059 -0.00176418 0)
(0.0966796 -0.0018213 0)
(0.0971943 -0.00180159 0)
(0.0956331 -0.00186472 0)
(0.0961586 -0.00184206 0)
(0.0945614 -0.00191054 0)
(0.0951007 -0.00188709 0)
(0.0934628 -0.00196112 -7.47158e-26)
(0.0940156 -0.00193533 0)
(0.0923353 -0.00201564 0)
(0.0929028 -0.0019879 0)
(0.0911758 -0.00207443 0)
(0.0917597 -0.00204444 0)
(0.0899814 -0.00213865 -1.13411e-28)
(0.0905831 -0.0021058 0)
(0.0887501 -0.00220967 1.30654e-28)
(0.0893707 -0.00217334 0)
(0.0874845 -0.00229669 8.34486e-26)
(0.0881185 -0.0022488 0)
(0.0861909 -0.00241715 -4.39091e-23)
(0.0868404 -0.00235188 1.07922e-23)
(0.0845849 -0.00184974 1.10487e-23)
(0.0855431 -0.00248963 2.19479e-23)
(0.0845032 0.00105015 -1.96592e-23)
(0.0842422 -0.000438597 -2.10439e-23)
(0.107335 0.00148327 3.1295e-24)
(0.107358 -0.00153693 2.22437e-23)
(0.0844308 0.00179414 2.48191e-24)
(0.0839076 -0.00119126 0)
(0.0845619 0.00244421 2.71268e-22)
(0.0848877 -0.00256463 3.37587e-23)
(0.083903 -0.00191944 4.50514e-23)
(0.0862515 0.00339295 -4.46623e-22)
(0.086018 0.00353763 8.19e-23)
(0.0841933 0.000294891 0)
(0.0869875 0.00323016 4.52841e-23)
(0.0865129 0.0033336 2.31313e-23)
(0.0881842 0.00312373 4.08608e-23)
(0.0875491 0.00316692 -6.23192e-23)
(0.089432 0.00302994 -2.03023e-23)
(0.0888197 0.00307849 -1.01383e-23)
(0.090625 0.00294453 1.01705e-23)
(0.0900332 0.00298587 1.03072e-23)
(0.0917873 0.00286529 0)
(0.0912078 0.00290322 -1.99163e-26)
(0.0929128 0.00279248 0)
(0.0923542 0.00282873 0)
(0.0940082 0.00272242 3.76864e-26)
(0.0934641 0.00275702 0)
(0.0950757 0.00265564 0)
(0.0945453 0.00268866 0)
(0.0961172 0.00259203 0)
(0.0955996 0.00262343 0)
(0.0971338 0.00253132 0)
(0.0966285 0.0025613 0)
(0.0981267 0.00247244 3.44494e-26)
(0.097633 0.00250151 0)
(0.0990975 0.00241542 6.3835e-29)
(0.0986149 0.00244411 0)
(0.100049 0.00235947 0)
(0.0995754 0.00238707 0)
(0.100982 0.00230566 -6.40477e-26)
(0.100518 0.00233237 0)
(0.101897 0.00225342 0)
(0.101441 0.00227937 0)
(0.102794 0.00220249 0)
(0.102347 0.00222781 0)
(0.103675 0.00215269 0)
(0.103236 0.00217747 0)
(0.104541 0.00210381 0)
(0.10411 0.00212818 0)
(0.105392 0.00205459 0)
(0.104968 0.00207943 0)
(0.106233 0.00200414 -1.73041e-24)
(0.105813 0.00202845 0)
(0.107063 0.00194975 0)
(0.106648 0.00197703 -3.35165e-24)
(0.107885 0.00189383 -2.93453e-27)
(0.107477 0.00192246 0)
(0.107348 0.00104466 -1.24931e-23)
(0.108303 0.00187229 7.52048e-25)
(0.107765 0.00146527 6.11359e-24)
(0.106926 0.000182851 4.49753e-24)
(0.107068 0.000616032 -3.10419e-24)
(0.10708 -0.000683772 -1.5638e-24)
(0.106931 -0.000252552 1.55985e-24)
(0.107787 -0.00153152 0)
(0.107367 -0.00111168 -1.41712e-23)
(0.107502 -0.00196323 -6.36107e-24)
(0.108337 -0.00194508 -1.21777e-23)
(0.10792 -0.00195383 2.79642e-23)
(0.10667 -0.0019904 -3.33999e-24)
(0.107087 -0.00197652 0)
(0.105827 -0.00201608 0)
(0.106249 -0.0020026 0)
(0.104971 -0.00203975 -1.04413e-28)
(0.105401 -0.002028 0)
(0.104103 -0.00206493 0)
(0.104539 -0.00205218 0)
(0.10322 -0.002092 5.99372e-26)
(0.103663 -0.00207816 0)
(0.10232 -0.00212205 0)
(0.102772 -0.00210662 0)
(0.101404 -0.00215565 0)
(0.101864 -0.0021384 0)
(0.10047 -0.00219306 0)
(0.100939 -0.00217389 0)
(0.0995173 -0.00223438 -1.15652e-28)
(0.0999961 -0.00221323 0)
(0.0985444 -0.00228018 0)
(0.0990334 -0.00225668 0)
(0.0975505 -0.00233036 0)
(0.0980503 -0.00230481 0)
(0.0965341 -0.00238532 0)
(0.097045 -0.00235714 0)
(0.0954936 -0.00244438 0)
(0.096017 -0.00241426 0)
(0.0944272 -0.00250864 7.47158e-26)
(0.0949637 -0.00247588 0)
(0.0933332 -0.00257806 0)
(0.0938838 -0.00254271 0)
(0.092209 -0.00265313 0)
(0.092775 -0.00261484 0)
(0.0910526 -0.00273491 -7.94816e-26)
(0.091635 -0.00269312 0)
(0.0898622 -0.00282426 8.10093e-26)
(0.0904617 -0.00277867 0)
(0.0886364 -0.00292273 -8.25058e-26)
(0.0892534 -0.00287213 0)
(0.0873859 -0.0030381 1.0847e-23)
(0.0880097 -0.00297591 -2.13954e-23)
(0.0861356 -0.00318565 -1.0928e-23)
(0.0867583 -0.00310685 2.22178e-23)
(0.0842191 -0.00263643 3.22315e-25)
(0.0854983 -0.00326474 2.2435e-23)
(0.083762 0.00102418 -2.01655e-23)
(0.0835198 -0.000478914 0)
(0.0836631 0.00174384 -1.95091e-22)
(0.08319 -0.00124107 0)
(0.108573 0.00229891 -3.12025e-24)
(0.108964 0.00226806 2.28585e-24)
(0.108211 -0.00152745 -1.19704e-23)
(0.108746 -0.00193164 -1.35423e-23)
(0.0836339 0.00239066 -1.89779e-22)
(0.0832105 -0.00198487 -4.5492e-23)
(0.0851321 0.00352858 0)
(0.0876964 0.0040417 -5.17537e-23)
(0.0835492 -0.00270879 -2.2335e-23)
(0.0848512 -0.00334174 3.39551e-23)
(0.087141 0.0040385 1.0389e-22)
(0.0834632 0.000265025 0)
(0.0885752 0.00386215 0)
(0.0881041 0.00395489 -4.60907e-23)
(0.0897108 0.00373028 0)
(0.0891264 0.00379291 0)
(0.0908762 0.00361788 0)
(0.0902967 0.00367132 1.05034e-23)
(0.0920007 0.00351705 0)
(0.0914413 0.00356684 0)
(0.0931025 0.00342274 0)
(0.0925544 0.00346841 0)
(0.0941776 0.0033351 0)
(0.0936435 0.00337852 0)
(0.0952266 0.00325137 -3.76864e-26)
(0.0947053 0.00329271 0)
(0.0962505 0.00317169 0)
(0.0957416 0.00321107 0)
(0.0972503 0.00309578 0)
(0.0967533 0.00313329 0)
(0.098227 0.00302324 0)
(0.0977415 0.00305912 0)
(0.0991819 0.00295346 -7.66991e-29)
(0.0987071 0.002988 0)
(0.100116 0.00288619 7.46235e-29)
(0.0996515 0.00291965 0)
(0.101031 0.00282089 0)
(0.100576 0.00285321 0)
(0.101929 0.00275801 7.01932e-29)
(0.101482 0.0027892 0)
(0.102809 0.00269712 0)
(0.102371 0.00272734 0)
(0.103673 0.00263802 0)
(0.103243 0.00266737 0)
(0.104522 0.00258051 0)
(0.1041 0.00260909 0)
(0.105356 0.00252428 0)
(0.104941 0.00255228 0)
(0.106176 0.00246852 0)
(0.105768 0.00249642 0)
(0.106986 0.00241369 0)
(0.106582 0.002441 0)
(0.107783 0.00235705 3.32012e-24)
(0.107384 0.00238415 3.40254e-24)
(0.108179 0.00232725 -6.3695e-24)
(0.107775 0.00102829 -6.13227e-24)
(0.108719 0.00185119 0)
(0.108183 0.00144307 -6.18493e-24)
(0.107361 0.000173771 0)
(0.107497 0.000604241 6.25837e-24)
(0.107512 -0.000685616 9.3418e-24)
(0.107365 -0.000257298 -3.15895e-24)
(0.107796 -0.0011093 -1.83504e-23)
(0.108211 -0.00237259 3.19834e-24)
(0.109003 -0.00233932 1.18836e-23)
(0.108614 -0.0023607 0)
(0.10741 -0.00240209 -6.63796e-24)
(0.107814 -0.00238786 6.65985e-24)
(0.106598 -0.0024313 0)
(0.107007 -0.002417 0)
(0.105773 -0.00246167 -1.23257e-28)
(0.106187 -0.00244639 0)
(0.104934 -0.00249384 0)
(0.105355 -0.0024775 0)
(0.104082 -0.00252861 0)
(0.10451 -0.00251086 0)
(0.103214 -0.00256678 0)
(0.10365 -0.00254725 0)
(0.102329 -0.00260888 0)
(0.102773 -0.00258733 0)
(0.101428 -0.00265523 6.4618e-26)
(0.101881 -0.00263153 0)
(0.100509 -0.00270613 -6.64023e-26)
(0.100971 -0.00268011 0)
(0.0995705 -0.00276202 0)
(0.100042 -0.00273344 0)
(0.0986123 -0.0028229 0)
(0.099094 -0.00279187 0)
(0.0976327 -0.00288908 0)
(0.0981252 -0.00285532 0)
(0.0966305 -0.00296049 0)
(0.0971346 -0.00292411 0)
(0.0956039 -0.00303775 0)
(0.0961203 -0.00299839 0)
(0.0945515 -0.00312117 0)
(0.0950811 -0.00307869 0)
(0.0934714 -0.00321128 -7.7615e-26)
(0.094015 -0.00316536 0)
(0.092362 -0.00330894 7.91692e-26)
(0.0929205 -0.00325912 0)
(0.0912223 -0.00341484 -8.06874e-26)
(0.091796 -0.00336088 0)
(0.090052 -0.00352933 0)
(0.0906409 -0.00347098 0)
(0.0888512 -0.00365232 0)
(0.0894549 -0.00358966 0)
(0.0876359 -0.00378872 8.60435e-26)
(0.0882465 -0.00371827 1.09186e-23)
(0.086408 -0.00394816 -5.69148e-23)
(0.0870178 -0.00386515 0)
(0.0842177 -0.00342678 -3.37251e-23)
(0.0857981 -0.00403525 -3.1943e-25)
(0.0830169 0.000997306 6.30515e-23)
(0.082787 -0.00051454 0)
(0.109363 0.00224125 -1.18824e-23)
(0.109404 -0.00232835 -2.29081e-23)
(0.0828064 0.0016824 -3.32954e-23)
(0.0839826 0.0030954 1.11863e-24)
(0.0828593 0.00233982 9.48202e-23)
(0.0824709 -0.0012814 0)
(0.0825004 -0.00203276 1.13835e-23)
(0.0861219 0.00401983 -9.75983e-23)
(0.0851856 0.0039332 8.325e-23)
(0.0835913 0.00318915 -8.1906e-23)
(0.0828654 -0.00277154 -3.41929e-23)
(0.0835619 -0.00350636 2.28119e-23)
(0.0851988 -0.00413491 2.23911e-23)
(0.0827225 0.000235576 0)
(0.0893328 0.004611 2.89942e-24)
(0.0878983 0.00463693 4.97657e-25)
(0.0886842 0.0046134 2.2668e-23)
(0.090326 0.0044518 2.23775e-23)
(0.0898319 0.00453766 -2.24936e-23)
(0.0914135 0.00429643 4.14255e-26)
(0.0908533 0.00437003 0)
(0.0925085 0.00417201 0)
(0.0919653 0.00423127 0)
(0.0935758 0.00405879 0)
(0.093045 0.00411471 0)
(0.0946207 0.00395236 0)
(0.0941011 0.0040045 0)
(0.0956413 0.00385213 3.82955e-26)
(0.095134 0.00390171 0)
(0.0966383 0.00375632 0)
(0.0961427 0.00380368 0)
(0.0976126 0.0036649 0)
(0.0971283 0.00371009 0)
(0.098565 0.00357768 0)
(0.0980915 0.00362079 0)
(0.0994962 0.00349428 0)
(0.0990332 0.00353554 0)
(0.100407 0.00341428 -3.43727e-26)
(0.0999541 0.00345388 0)
(0.101299 0.00333737 8.65866e-29)
(0.100855 0.00337551 0)
(0.102173 0.00326316 0)
(0.101738 0.00329991 0)
(0.10303 0.00319171 6.37676e-26)
(0.102604 0.00322713 0)
(0.103871 0.00312268 0)
(0.103453 0.00315691 0)
(0.104697 0.00305585 0)
(0.104286 0.00308901 0)
(0.105508 0.00299101 0)
(0.105104 0.00302321 0)
(0.106305 0.00292785 0)
(0.105908 0.00295926 0)
(0.10709 0.00286585 0)
(0.106699 0.00289675 0)
(0.107863 0.00280501 5.4007e-26)
(0.107478 0.00283529 0)
(0.108624 0.00274549 -3.33463e-24)
(0.108245 0.0027756 0)
(0.109373 0.00268146 3.17291e-24)
(0.108999 0.00271388 0)
(0.110116 0.00261497 3.01532e-24)
(0.109744 0.00264816 -3.09092e-24)
(0.109119 0.0018266 5.98399e-24)
(0.110492 0.00258398 0)
(0.10976 0.00221568 8.89098e-24)
(0.108192 0.00101197 0)
(0.108594 0.0014237 0)
(0.107788 0.000165436 0)
(0.107921 0.00059082 0)
(0.107937 -0.000686304 0)
(0.107793 -0.000261686 0)
(0.108626 -0.00152241 1.21998e-23)
(0.108216 -0.00110875 3.03758e-24)
(0.109796 -0.00231651 2.98595e-24)
(0.109154 -0.00192448 2.38749e-23)
(0.109797 -0.00272826 1.55026e-23)
(0.110548 -0.00269557 2.95934e-24)
(0.110171 -0.00271052 -6.0263e-24)
(0.109041 -0.00276394 3.18746e-24)
(0.109418 -0.00274477 -1.91122e-23)
(0.108276 -0.00279721 -1.18531e-28)
(0.10866 -0.00278011 0)
(0.107497 -0.00283066 0)
(0.107888 -0.00281324 0)
(0.106707 -0.00286734 -1.42681e-28)
(0.107104 -0.00284879 0)
(0.105904 -0.00290637 0)
(0.106307 -0.00288653 0)
(0.105086 -0.0029485 0)
(0.105497 -0.00292701 0)
(0.104255 -0.00299441 0)
(0.104672 -0.00297096 0)
(0.103408 -0.00304462 0)
(0.103833 -0.00301897 0)
(0.102545 -0.00309951 -1.29077e-25)
(0.102978 -0.00307148 0)
(0.101664 -0.00315945 0)
(0.102107 -0.00312884 0)
(0.100766 -0.00322483 0)
(0.101218 -0.00319146 0)
(0.0998498 -0.00329577 0)
(0.100311 -0.00325962 0)
(0.0989132 -0.00337257 0)
(0.099384 -0.00333344 0)
(0.0979556 -0.0034554 -7.26345e-26)
(0.0984372 -0.00341322 0)
(0.0969757 -0.00354475 0)
(0.0974685 -0.00349926 0)
(0.095972 -0.00364102 0)
(0.0964769 -0.00359202 0)
(0.0949434 -0.00374471 7.7615e-26)
(0.0954609 -0.00369192 0)
(0.0938888 -0.00385647 -2.00514e-28)
(0.0944194 -0.00379956 0)
(0.0928075 -0.00397676 1.6117e-25)
(0.0933515 -0.00391557 0)
(0.0916995 -0.00410558 0)
(0.0922568 -0.00404014 0)
(0.0905648 -0.00424251 0)
(0.0911354 -0.00417291 0)
(0.0894052 -0.00438595 -2.37058e-28)
(0.0899884 -0.00431446 0)
(0.0882211 -0.00453958 0)
(0.088815 -0.00446054 0)
(0.0870598 -0.0047212 -3.38596e-23)
(0.0876366 -0.00462666 0)
(0.0845796 -0.00422855 -3.1133e-25)
(0.0864865 -0.00482338 5.75151e-23)
(0.0822307 0.000950841 0)
(0.0870914 0.00464938 1.31538e-22)
(0.0820178 0.00162768 2.27481e-23)
(0.110978 0.00297573 -3.00965e-24)
(0.111336 0.00294555 0)
(0.110189 -0.00230743 2.90197e-24)
(0.110918 -0.002678 -5.76714e-24)
(0.0820497 -0.000548129 0)
(0.0817414 -0.00131298 0)
(0.0822174 0.00241258 0)
(0.0817824 -0.00207348 -1.12118e-23)
(0.0821735 -0.00283592 -2.25736e-23)
(0.0828999 -0.00358961 0)
(0.0839471 -0.00432436 5.81576e-23)
(0.0858923 -0.00492679 -4.63907e-23)
(0.0819689 0.000201112 0)
(0.0899739 0.00522818 -1.09159e-26)
(0.0862483 0.00461838 4.13044e-23)
(0.0885478 0.00532006 -1.47252e-22)
(0.0892585 0.00529116 4.31332e-23)
(0.0912268 0.00514512 -1.40193e-23)
(0.0906193 0.00516876 -2.24748e-23)
(0.0922512 0.00500203 0)
(0.0917518 0.00508495 0)
(0.0932899 0.00483432 -4.14218e-26)
(0.0927604 0.00491358 0)
(0.0943259 0.00469676 0)
(0.0938121 0.00476306 0)
(0.095334 0.00457129 0)
(0.094833 0.00463306 0)
(0.0963191 0.00445329 0)
(0.0958294 0.00451136 0)
(0.0972814 0.00434154 -3.82955e-26)
(0.096803 0.00439678 0)
(0.0982222 0.00423471 0)
(0.0977544 0.00428754 0)
(0.0991422 0.00413262 0)
(0.0986847 0.00418309 0)
(0.100042 0.00403506 0)
(0.0995946 0.0040833 0)
(0.100923 0.00394175 0)
(0.100485 0.00398791 0)
(0.101785 0.00385232 3.41831e-26)
(0.101356 0.00389657 0)