/*--------------------------------*- C++ -*----------------------------------*\
  =========                 |
  \\      /  F ield         | OpenFOAM: The Open Source CFD Toolbox
   \\    /   O peration     | Website:  https://openfoam.org
    \\  /    A nd           | Version:  10
     \\/     M anipulation  |
\*---------------------------------------------------------------------------*/
FoamFile
{
    format      ascii;
    class       volScalarField;
    location    "16";
    object      p;
}
// * * * * * * * * * * * * * * * * * * * * * * * * * * * * * * * * * * * * * //

dimensions      [0 2 -2 0 0 0 0];

internalField   nonuniform List<scalar> 
8711
(
-0.00358728
-0.00342494
-0.00334533
-0.0272018
-0.0293699
-0.0354474
0.0591111
0.0601309
0.705117
0.700047
0.505154
0.262669
-0.0686161
-0.0441134
-0.189716
-0.180828
-0.0734819
-0.0815067
-0.0924706
-0.00139145
-0.00163671
-0.00230366
-0.00171861
-0.00309393
-0.187749
-0.137162
-0.216916
-0.264202
-0.00374286
-0.00367
-0.00268107
-0.484546
-0.508636
-0.327628
-0.357549
0.188938
0.17985
0.168198
0.175054
0.167341
0.212055
0.185973
-0.350743
-0.329453
0.321293
0.196916
-0.459452
-0.460222
-0.451523
0.000394532
0.000162331
0.000221428
0.000278929
0.0133244
0.0186464
0.0241521
-0.00994005
-0.0205592
-0.0189144
-0.0238226
-0.0220629
-0.0187288
-0.0126642
-0.0152048
0.074694
0.0707252
0.0600914
-0.00230541
-0.00236131
-0.00169388
0.00582196
0.00280205
0.00711547
0.00852122
0.0613128
0.061619
0.0539136
0.0535223
-0.00254036
-0.00235719
-0.00334366
-0.0197115
-0.016421
-0.00316249
-0.00307498
-0.0029303
-0.0708922
-0.0580227
-0.0250789
-0.053444
0.0291945
0.0247998
0.0311696
-0.00161065
0.00795144
0.0600978
0.0761414
0.0781007
0.0641699
0.0391013
0.0418049
0.365528
0.359114
-0.0521724
-0.0608971
-0.068412
-0.0720955
-0.0705657
-0.0649671
-0.0554634
-0.0446476
-0.033482
-0.0230146
-0.0138318
-0.00656754
-0.00110185
0.00313147
0.00603051
0.00634908
0.00786649
0.0072136
0.00133129
0.00444917
-0.00858777
-0.00290739
-0.0235317
-0.0155321
-0.0390707
-0.0317043
-0.0469698
-0.0444511
-0.0405337
-0.045357
-0.0249088
-0.0329032
-0.018441
-0.0891504
-0.079153
-0.0973842
-0.0960052
-0.083078
-0.0930004
-0.0560992
-0.0702071
-0.0293924
-0.0420098
-0.00957912
-0.0181746
0.001828
-0.00312518
0.00797456
0.00544758
0.00943858
-0.0415388
0.00827551
0.0051053
0.0101433
-0.031922
-0.0597629
0.00637424
0.00603056
0.00390555
0.00556888
-0.00260783
0.00107813
-0.0125001
-0.00744927
-0.0213738
-0.0175325
-0.0221546
-0.0239584
-0.0130711
-0.0192153
-0.00090188
-0.00653615
-0.00353195
-5.74205e-05
0.00668436
0.00973766
-0.0919974
-0.0797345
-0.116626
-0.105201
-0.121282
-0.122384
-0.098303
-0.111927
-0.0651437
-0.0825282
-0.0341753
-0.048626
-0.0121473
-0.0219038
0.000694948
-0.00473877
0.0076842
0.00474666
0.0108833
0.00967729
-0.000156689
0.00235711
-0.0449076
0.0113052
-0.0333363
-0.0413608
-0.0134845
-0.0285779
-0.00596558
-0.00928624
-0.00423077
-0.0594742
-0.0661292
0.00282076
-0.000425164
0.00654602
0.00494653
0.00677981
0.00691868
0.00396321
0.00563953
-0.000372807
0.00162805
-0.0030077
-0.00264716
0.0010711
-0.00179659
0.0116175
0.00570217
0.0170463
0.0148228
0.00861492
0.0142974
-0.00111454
0.0108986
0.0118669
-0.0824834
-0.06471
-0.0622957
-0.0705403
-0.115127
-0.0976064
-0.141879
-0.129649
-0.140105
-0.145472
-0.110485
-0.126858
-0.0709138
-0.0909442
-0.0371803
-0.0529516
-0.0141992
-0.0243118
-0.000347117
-0.00638872
0.0071503
0.00398824
0.00941556
0.00447881
-0.00120238
0.011121
0.00852697
-0.0512511
-0.0490137
-0.0459693
-0.0711499
-0.058798
-0.00901672
0.0123205
-0.0636346
-0.0539848
-0.0569062
-0.0570156
-0.0442505
-0.0656456
-0.0720117
-0.0861658
-0.0947933
-0.123269
-0.113706
-0.154927
0.000600033
-0.00371803
0.00712596
0.00417599
0.0104433
0.00902179
0.0114609
0.011128
0.0119512
0.0115828
0.0151581
0.0131034
0.0224316
0.018144
0.0303336
0.0268422
0.029259
0.0310774
0.016453
0.0240783
-0.00742171
0.00535275
-0.0462282
-0.023345
-0.0772408
-0.0920458
-0.0728255
-0.133892
-0.113082
-0.162227
-0.151378
-0.153197
-0.161716
-0.116969
-0.137013
-0.0731058
-0.0947355
-0.0383231
-0.054383
-0.0152542
-0.0254733
-0.00141238
-0.00751741
0.00640494
0.00308012
0.0105751
0.0088454
0.0125351
0.0117633
-0.011333
-0.017279
0.00123133
-0.00478825
0.0101367
0.00639922
0.012975
0.0122354
-0.0591933
-0.0548935
-0.0345915
0.0121605
0.0127744
-0.0701824
-0.0716666
-0.107636
-0.14629
-0.0699772
-0.0988577
-0.130233
-0.167618
-0.0133541
-0.0178205
-0.00128756
-0.00707849
0.00850159
0.00389331
0.0153346
0.0121657
0.0203514
0.0179576
0.0253195
0.0226974
0.0322718
0.028498
0.0397159
0.0361228
0.042839
0.0422095
0.0367496
0.0409185
0.0218209
0.0302186
-0.00264156
0.0106512
-0.0421183
-0.01998
-0.0702858
-0.0103838
-0.0108786
0.0239968
0.00578987
-0.0484837
-0.0281954
-0.0980805
-0.0724337
-0.148521
-0.124131
-0.174133
-0.165706
-0.158764
-0.170713
-0.116912
-0.139426
-0.0719619
-0.0936693
-0.0378974
-0.0534632
-0.0156507
-0.0255528
-0.00222107
-0.0081332
0.00561566
0.00227193
0.00986531
0.00809123
0.0111949
-0.0233326
-0.0139433
-0.0191132
-0.002167
-0.00820158
0.00844122
0.00373929
0.0129813
0.0114954
0.0132008
-0.07169
-0.0234004
-0.0246527
0.0390923
-0.021144
-0.0812659
-0.0963056
-0.0764788
-0.131962
0.0127247
-0.0521409
-0.174841
-0.00911901
-0.213838
-0.0215109
0.0122115
-0.0158518
-0.0214793
-0.00290775
-0.00995264
0.0101772
0.00372726
0.0207598
0.0156468
0.0295729
0.0252981
0.0378036
0.0336783
0.0457955
0.0418938
0.050764
0.0487969
0.0493499
0.0509835
0.0403645
0.045651
0.0246975
0.0333155
0.000688841
0.0137777
-0.0365244
-0.016224
-0.0946354
-0.0629874
-0.178753
-0.132205
0.05816
0.0751905
0.014126
0.037011
-0.0382768
-0.0104798
-0.101233
-0.0693325
-0.156127
-0.130348
-0.177149
-0.171736
-0.155671
-0.170488
-0.111401
-0.134544
-0.0680615
-0.0887193
-0.0361229
-0.0506593
-0.0153957
-0.0246479
-0.00272172
-0.00831828
0.00478104
0.00153223
0.0090037
0.00729297
0.0114534
0.0104476
0.0121834
-0.246629
-0.228356
-0.0242781
-0.0242286
-0.025892
-0.0165157
-0.0209222
-0.00496353
-0.0111025
0.00635998
0.00112449
0.0125617
0.0102662
0.0133579
-0.08987
-0.0955014
-0.125478
0.0131118
0.0121973
0.0119027
-0.0850983
-0.17169
-0.052956
-0.222315
0.00206717
-0.260711
0.0851489
-0.278374
-0.30527
-0.0211056
-0.0232803
-0.320309
-0.0254176
-0.023507
-0.0175293
-0.0213284
-0.0043405
-0.0114465
0.0111191
0.00343371
0.0249508
0.01816
0.0366736
0.0310219
0.046418
0.0417685
0.0534439
0.0503569
0.0555723
0.0551792
0.0511972
0.0540742
0.0411107
0.046748
0.0255
0.0340154
0.00231821
0.0149454
-0.0321109
-0.0134724
-0.0820613
-0.0552236
-0.157869
-0.116356
-0.242667
-0.200302
-0.331051
-0.331066
-0.288031
0.086236
0.11765
0.104673
0.0332011
0.0606834
-0.0302316
0.00325282
-0.10158
-0.0656403
-0.155977
-0.131993
-0.170339
-0.16856
-0.14456
-0.160935
-0.10141
-0.12346
-0.0619066
-0.080563
-0.0332931
-0.0463132
-0.0146152
-0.0229855
-0.00294995
-0.00813742
0.00412843
0.00101346
0.00830716
0.00648853
0.0106241
0.00965192
0.0114738
-0.0240028
-0.0244887
-0.0181574
-0.0218009
-0.00729822
-0.0131549
0.00432752
-0.00125459
0.0117786
0.00883508
0.0132003
-0.112573
-0.0184418
0.0111662
0.0113305
-0.113416
-0.159771
-0.0949526
-0.217059
-0.0496516
-0.273606
0.0263177
0.125173
0.100805
-0.322513
-0.360082
-0.372849
-0.362821
-0.262801
-0.2731
-0.324993
-0.0214426
-0.0205929
-0.0163211
-0.0195855
-0.00461889
-0.011155
0.0110857
0.0030704
0.0267272
0.0190598
0.0400346
0.0336954
0.0499957
0.0454473
0.0555521
0.0533612
0.0557011
0.056295
0.0503355
0.0536508
0.0401846
0.0457611
0.0251498
0.0333098
0.00339789
0.0152046
-0.027896
-0.01102
-0.0710217
-0.0481736
-0.134748
-0.100949
-0.203777
-0.17031
-0.235532
0.128386
0.132656
0.134735
0.134239
0.0975639
0.11619
0.0417847
0.0714979
-0.026717
0.00940953
-0.0985068
-0.0631232
-0.146707
-0.126646
-0.154214
-0.15517
-0.127296
-0.143448
-0.088511
-0.108005
-0.0544895
-0.0704899
-0.0298715
-0.0411147
-0.0134922
-0.020877
-0.00300504
-0.00769879
0.00352999
0.000620962
0.00748089
0.00572841
0.00984725
0.00876856
0.0104867
-0.020551
-0.0144895
-0.0176605
-0.0223664
-0.021904
-0.0184697
-0.0211617
-0.00890385
-0.0142149
0.00243417
-0.00317082
0.0107434
0.00726327
0.0134708
0.0127742
0.0112779
0.0118764
-0.139579
-0.133533
-0.198884
-0.102327
-0.263668
0.0116916
0.0107376
0.0108484
-0.0434335
0.040031
0.10605
0.131107
0.129535
-0.324354
-0.372821
-0.398
-0.396582
-0.366244
-0.0115973
-0.277679
-0.320813
-0.271434
-0.0119417
-0.00931992
-0.0148876
-0.0131658
-0.0167444
-0.0163005
-0.0130385
-0.0157037
-0.00323452
-0.00884843
0.0111954
0.00363534
0.0267009
0.0190267
0.0400766
0.0337422
0.0495393
0.045324
0.0541143
0.0524325
0.0534451
0.0543872
0.0478372
0.0511833
0.0379951
0.0433729
0.0237408
0.0314386
0.00370833
0.0145029
-0.0241334
-0.00919817
-0.0617047
-0.041715
-0.112809
-0.0861275
-0.169678
-0.142562
-0.214146
-0.193572
-0.23166
-0.22762
0.125894
0.116917
0.106221
0.117111
0.122127
0.127229
0.0940202
0.111104
0.0416055
0.0707001
-0.0246232
0.00999579
-0.0896923
-0.0586439
-0.129036
-0.113204
-0.131193
-0.134039
-0.106616
-0.120788
-0.0744799
-0.0904914
-0.0466705
-0.0597736
-0.0261885
-0.035608
-0.0121562
-0.0185325
-0.0029093
-0.00707833
0.00299921
0.000355984
0.00668378
0.00506471
0.00882432
0.00787356
0.0100763
0.00951855
0.0104768
-0.0174401
-0.0148859
-0.0200171
-0.0190053
-0.0176022
-0.0195286
-0.00961365
-0.0142437
0.000863745
-0.00448158
0.00956708
0.00578251
0.0129031
0.011964
0.012469
-0.169709
-0.227145
-0.263797
-0.222441
-0.152622
-0.238227
0.0119146
0.0110151
-0.10721
-0.032244
0.0515311
0.10847
0.118172
0.0890624
0.0981462
-0.367776
-0.407283
-0.417714
-0.399546
-0.359096
-0.299849
-0.00978866
-0.00740339
-0.00860684
0.0099164
0.00973765
-0.007398
-0.307416
-0.0106784
-0.00963256
-0.0112143
-0.0114062
-0.00833215
-0.0103195
-0.000211493
-0.00487922
0.0122955
0.00568972
0.0262843
0.0193029
0.0386152
0.0327765
0.0471747
0.0434041
0.0509708
0.049645
0.0499054
0.0509783
0.0444075
0.0476362
0.0350659
0.040158
0.0217385
0.028906
0.00345555
0.0132412
-0.0210674
-0.00801759
-0.0531504
-0.0361388
-0.0938023
-0.0726853
-0.139014
-0.11755
-0.172593
-0.159121
-0.188359
-0.182894
-0.239687
-0.190603
-0.190438
0.0932232
0.0670985
0.0571311
0.0770976
0.112503
0.104912
0.110168
0.113912
0.0847657
0.100391
0.0386541
0.0643921
-0.0198272
0.0101667
-0.0738037
-0.0485672
-0.104314
-0.0925244
-0.104849
-0.107704
-0.0855077
-0.096494
-0.0608742
-0.0731653
-0.0391176
-0.0494501
-0.0225187
-0.0302247
-0.0107231
-0.0161307
-0.00269864
-0.00634575
0.00256456
0.000193408
0.00589018
0.00441506
0.0079438
0.00711437
0.00910394
0.00860791
0.00950837
-0.0144292
-0.0122101
-0.0173182
-0.0161633
-0.0158587
-0.0171914
-0.0096037
-0.0132751
-0.00026995
-0.00514798
0.00837478
0.00445037
0.0124543
0.0111327
0.0125155
-0.19937
0.00995141
-0.167655
-0.105947
-0.020135
0.0615563
0.102794
0.0995832
-0.396434
-0.422453
-0.417528
-0.38585
0.074344
0.0333594
0.0404222
-0.331867
-0.269904
-0.176742
-0.00528371
-0.273352
-0.211113
-0.3424
0.00900553
-0.00558002
-0.00532057
-0.00667712
-0.00622219
-0.00623749
-0.00688589
-0.0033728
-0.00529136
0.00368325
-0.000312319
0.0142288
0.00864387
0.0261562
0.0201868
0.0367684
0.0317445
0.044053
0.0408676
0.0470614
0.0460653
0.0457649
0.0468854
0.0405185
0.0435686
0.0318019
0.0365477
0.0195011
0.0260944
0.00294829
0.011763
-0.0186646
-0.00723505
-0.0460213
-0.0316524
-0.0787471
-0.0618736
-0.113857
-0.0965972
-0.138376
-0.128856
-0.152626
-0.146415
-0.153086
-0.156704
-0.146556
-0.12132
-0.14086
0.0466303
0.00647854
0.00254109
0.0258728
0.0801224
0.0648837
0.0973132
0.0909583
0.0968629
0.100283
0.0758179
0.0890825
0.0378157
0.0591612
-0.0103823
0.0140104
-0.0535266
-0.0333873
-0.0780459
-0.0686919
-0.0794724
-0.0810417
-0.0663692
-0.0739264
-0.0486843
-0.0576187
-0.0322202
-0.0401372
-0.0190428
-0.0252271
-0.00928873
-0.0138017
-0.00242542
-0.00556906
0.00221389
0.000104308
0.00521322
0.00386849
0.00706499
0.00626841
0.00821229
0.00782291
0.0086515
0.00858974
0.00875103
0.0089934
-0.00773278
-0.00552433
-0.0117319
-0.00979954
-0.0143715
-0.0133125
-0.0136438
-0.014536
-0.00885997
-0.01172
-0.000925876
-0.00517189
0.00734534
0.00348089
0.0118904
0.0103278
0.0119324
0.0122952
0.0102456
0.0111611
0.00946705
-0.224709
-0.175594
-0.0985246
-0.00724772
0.0641909
0.0882567
-0.407335
-0.419077
-0.399971
0.0750474
0.0454199
0.0102932
-0.35548
-0.295905
-0.232317
-0.0229554
-0.0226017
-0.174058
-0.0989463
-0.117173
0.00776505
-0.00138548
-0.00182268
0.00933042
-0.299556
0.00776916
-0.364603
-0.00315172
-0.00253953
-0.00335054
-0.00329646
-0.00224551
-0.00301736
0.000936029
-0.000985889
0.00721469
0.00372443
0.0160963
0.0114255
0.0259852
0.0210463
0.0347369
0.030603
0.040644
0.0380817
0.0428834
0.0421976
0.0414254
0.0425588
0.0364826
0.0393278
0.0284297
0.0328076
0.0171766
0.0231914
0.00229873
0.0101847
-0.0166708
-0.00669413
-0.0399623
-0.0278279
-0.0668632
-0.0530947
-0.0940621
-0.0808426
-0.112866
-0.104898
-0.124019
-0.11971
-0.122525
-0.126391
-0.0991361
-0.113095
-0.0760973
-0.0671031
-0.0829805
-0.00133026
-0.0497246
-0.0461616
-0.0234189
0.0378376
0.0190698
0.0675486
0.0542944
0.0838625
0.0773644
0.0847546
0.0863441
0.0689756
0.0787573
0.0386059
0.0553807
0.000277874
0.0196279
-0.0340469
-0.0179598
-0.0544466
-0.0461585
-0.0579471
-0.0578615
-0.0503355
-0.0549866
-0.0382913
-0.044511
-0.0261605
-0.0320849
-0.0158825
-0.0207642
-0.00793027
-0.0116453
-0.00213315
-0.00480921
0.00190042
5.49953e-05
0.0045866
0.00336423
0.00629744
0.00552657
0.00735633
0.00689993
0.00779701
0.00761459
0.00795805
0.00791236
0.00819284
-0.00574119
-0.00387395
-0.00915112
-0.00752565
-0.0114359
-0.0104862
-0.0111157
-0.0116673
-0.00758146
-0.00974568
-0.00105469
-0.00463396
0.00657182
0.00284942
0.0113024
0.0095115
0.0118003
0.0119532
0.0105941
0.0112499
0.0100724
-0.241602
-0.175286
-0.0867653
0.00305189
0.0580337
-0.399928
-0.398266
0.0652356
0.0443027
0.011241
-0.366221
-0.313031
-0.249714
-0.0238062
-0.191014
-0.0545326
-0.131507
-0.068691
-0.0772695
-0.0854309
-0.0534151
-0.0567092
0.00713848
-0.000489177
-0.000729466
0.00881726
-0.314834
-0.00104986
-0.00181571
0.00751334
-0.36916
-0.0011029
-0.000962844
-0.000693922
-0.00116253
0.000817982
-0.000143816
0.00416763
0.00224075
0.00978557
0.00671328
0.0172718
0.013372
0.025375
0.0213459
0.032439
0.0291138
0.037104
0.0350983
0.0386811
0.0382586
0.037067
0.0382346
0.032485
0.0351161
0.0250806
0.0290996
0.0148392
0.0202983
0.00152113
0.00854913
-0.0150658
-0.00639364
-0.0348112
-0.0245993
-0.0569287
-0.045694
-0.0782577
-0.0680155
-0.093532
-0.0866823
-0.101261
-0.0987697
-0.0998605
-0.102459
-0.0816661
-0.0923694
-0.0597972
-0.0707654
-0.0427359
-0.0426951
-0.0500981
-0.0421307
-0.091012
-0.0795213
-0.0611866
-0.00378085
-0.0227634
0.0308625
0.0142677
0.0564597
0.0451149
0.0717982
0.0658888
0.0737978
0.074308
0.0623576
0.0696289
0.0387997
0.0517381
0.00895434
0.0240727
-0.0183219
-0.00543618
-0.035701
-0.0283637
-0.0410033
-0.0396068
-0.0374805
-0.0399701
-0.0297023
-0.0338517
-0.0209821
-0.0253206
-0.0130905
-0.0168876
-0.00668964
-0.00970955
-0.00184999
-0.00410157
0.00161634
2.08147e-05
0.00398385
0.00290109
0.00552366
0.00481683
0.00650095
0.00604094
0.00696625
0.0066745
0.0073101
0.00686481
0.00728946
-0.00411949
-0.00281299
-0.00681588
-0.00548983
-0.00863056
-0.00787118
-0.00852445
-0.0088619
-0.00595663
-0.00756202
-0.000766565
-0.00367077
0.00597864
0.00258626
0.0106906
0.00881961
0.0114858
0.0114787
0.0104993
0.0110914
0.0098194
-0.247569
-0.000311335
-0.167356
-0.073193
0.00606208
-0.377617
0.040719
0.0341572
0.00726548
-0.362928
-0.320256
-0.260581
-0.0279464
-0.198034
-0.0614281
-0.140068
-0.0880145
-0.0927228
-0.104959
-0.0589574
-0.0966304
-0.112237
-0.0413759
-0.0385616
-0.0363694
0.00666692
0.00795795
-0.314564
0.00614375
0.00641779
-0.360376
0.000145751
0.00028217
0.000208287
0.000378607
0.000120105
0.00116524
0.000579843
0.0029544
0.00188106
0.00628397
0.00442864
0.0113022
0.00860679
0.0176174
0.0143589
0.0242399
0.0209641
0.0298999
0.027247
0.0335397
0.031992
0.0345911
0.0343736
0.0329231
0.0340663
0.0286432
0.0310764
0.0218595
0.0255354
0.0125733
0.0175097
0.000678396
0.00693126
-0.0138336
-0.00628601
-0.0306573
-0.0220111
-0.0489141
-0.0397223
-0.0658768
-0.057779
-0.0782473
-0.072658
-0.0845709
-0.082225
-0.0819003
-0.0848181
-0.0709899
-0.0774239
-0.0542469
-0.0625311
-0.0418686
-0.0470266
-0.0371529
-0.0383851
-0.0391551
-0.0388764
-0.0696279
-0.111506
-0.0950176
-0.0833241
-0.0378682
-0.0542748
-0.00492251
-0.0215101
0.0249054
0.0106959
0.0478452
0.0372359
0.0611671
0.0556125
0.0639856
0.0638161
0.0557579
0.0611293
0.0378498
0.0476929
0.0147858
0.0265462
-0.00698093
0.00339782
-0.0219603
-0.015437
-0.0282164
-0.0260382
-0.0274522
-0.0284552
-0.0227547
-0.0253866
-0.0166502
-0.0197548
-0.0106897
-0.0135983
-0.00560258
-0.00802753
-0.00160628
-0.00348035
0.00134315
-2.27624e-05
0.00340509
0.00245934
0.00476284
0.00414402
0.00557698
0.00521281
0.00605901
0.00583491
0.00630811
0.00607681
0.00629509
-0.000125342
-0.00135949
-0.000724545
-0.0029394
-0.00206443
-0.00484658
-0.00389031
-0.00614229
-0.00560399
-0.00606623
-0.00630699
-0.004177
-0.00536613
-0.000158993
-0.00244078
0.00558509
0.00261635
0.0100435
0.0082147
0.0109727
0.0108868
0.00997923
0.010605
0.0090895
-0.244834
0.000328522
0.0059372
-0.153968
-0.0630152
-0.338588
-0.0020532
0.0123313
-0.00454969
-0.343554
-0.317233
-0.266282
-0.0364012
-0.203214
-0.0717504
-0.142268
-0.102075
-0.092349
-0.122272
-0.0563787
-0.131887
-0.03707
-0.131401
-0.0315765
-0.104976
-0.1243
-0.0337307
-0.0380919
-0.040351
-0.0400633
-0.0393317
0.000602787
0.000644006
-0.303312
-0.0817883
-0.0893277
0.000803521
0.000700858
0.00125295
0.000911004
0.0023517
0.00169015
0.00432829
0.00319854
0.00750853
0.00576643
0.0119452
0.00959372
0.0172699
0.0145428
0.0226896
0.0200233
0.0272253
0.0251099
0.0300507
0.0288663
0.0306929
0.0306334
0.0290026
0.0301141
0.0250192
0.0272682
0.0188184
0.0221711
0.0104209
0.014873
-0.000180153
0.00537197
-0.0128674
-0.00629992
-0.0272463
-0.0198963
-0.0424087
-0.0348335
-0.0561478
-0.0495999
-0.066235
-0.0616835
-0.071298
-0.0694361
-0.0693856
-0.0712088
-0.0609718
-0.0658612
-0.0497544
-0.0553862
-0.0407103
-0.0447205
-0.0376517
-0.038443
-0.0381497
-0.0604439
-0.0719325
-0.0336575
-0.047718
-0.00554649
-0.0197342
0.0199811
0.00777162
0.0397255
0.0305761
0.0518714
0.0467332
0.05519
0.0545728
0.0494361
0.0533116
0.0359393
0.0434098
0.0180532
0.0272323
0.000639052
0.00901278
-0.0122346
-0.00647905
-0.0187776
-0.0162254
-0.019757
-0.0197883
-0.0172302
-0.0187727
-0.0131013
-0.0152603
-0.0086798
-0.0108719
-0.00468719
-0.0066113
-0.00142144
-0.00296538
0.0010645
-9.34943e-05
0.00284427
0.00202523
0.00403803
0.00349383
0.00475021
0.0044346
0.00519173
0.00502099
0.00534205
0.00532752
0.00530558
0.00529864
0.00517961
0.00531666
0.000578904
6.79437e-05
0.000376078
-0.000861849
-0.000364125
-0.00201507
-0.00140751
-0.00324759
-0.00263308
-0.00403389
-0.00371995
-0.00385486
-0.00408615
-0.00240492
-0.00330235
0.000644263
-0.00110156
0.00535883
0.0028644
0.00937631
0.00768576
0.0102805
0.0101872
0.00923927
0.00989721
0.00729655
0.00834953
0.00576626
0.00641445
0.00501618
-0.232606
-0.113517
-0.0958129
-0.139777
-0.283302
-0.06229
-0.0240104
-0.0263047
-0.302869
-0.266694
-0.0514295
-0.209132
-0.0863064
-0.144849
-0.119873
-0.0884447
-0.144233
-0.0483697
-0.156213
-0.0284645
-0.156417
-0.022878
-0.148055
-0.0271942
-0.135429
-0.0411075
-0.0349543
0.000693609
0.000537391
0.000585459
0.00408249
-0.12156
-0.0443835
-0.0413171
-0.10174
0.000862132
0.0007553
0.0011886
0.00099641
0.00183607
0.00144787
0.00307847
0.00237688
0.00508757
0.00397606
0.00804685
0.00645288
0.0119429
0.00990263
0.0164319
0.0141486
0.02088
0.0187034
0.0245217
0.0228331
0.0267046
0.0258066
0.0270311
0.0270917
0.0253441
0.0264194
0.0216456
0.0237222
0.0159858
0.0190383
0.00840572
0.0124144
-0.00103473
0.00389266
-0.0121387
-0.00641472
-0.0244715
-0.0181992
-0.0371443
-0.0308528
-0.0484318
-0.0430559
-0.0567242
-0.0529879
-0.0608391
-0.059337
-0.0596551
-0.0608587
-0.0533031
-0.0570667
-0.0453255
-0.0495888
-0.0390624
-0.0420917
-0.035736
-0.0368432
-0.03713
-0.0359218
-0.0387347
-0.0808206
-0.0807769
-0.0815212
-0.0704701
-0.0769305
-0.052242
-0.0621153
-0.0298034
-0.0416582
-0.00586689
-0.0178286
0.015855
0.00542223
0.0329489
0.0250166
0.0438752
0.0391756
0.0474584
0.0465351
0.0435985
0.0463343
0.0334112
0.0391053
0.0194686
0.026667
0.00551486
0.0122669
-0.00552225
-0.000482954
-0.0119246
-0.00927158
-0.0139379
-0.0133615
-0.012908
-0.0136831
-0.0102495
-0.0116939
-0.00704059
-0.00866125
-0.00395011
-0.00545731
-0.0013097
-0.00256878
0.000766256
-0.000206565
0.00228939
0.00158654
0.00333251
0.00285787
0.0039818
0.0036933
0.00436399
0.00420131
0.00450293
0.00445941
0.00446012
0.00444683
0.00436339
0.00446918
0.00423831
0.000232421
0.000424513
-0.00039875
-5.93216e-05
-0.00118464
-0.000774602
-0.00193384
-0.00157491
-0.00228613
-0.00217329
-0.00193904
-0.0022103
-0.000754723
-0.00145705
0.00152376
0.000220354
0.00525778
0.00324055
0.00870235
0.00722613
0.00948465
0.00941614
0.00850889
0.00911924
0.00693738
0.00775629
0.00561213
0.00625847
0.00483944
-0.215396
-0.131359
-0.0752339
0.00323843
-0.104918
-0.308812
-0.0592539
-0.261945
-0.0749063
-0.216665
-0.106891
-0.153939
-0.14258
-0.0902024
-0.171304
-0.0406579
-0.0910683
-0.186558
-0.0140276
-0.105441
-0.1875
-0.00883134
-0.125337
-0.0434659
-0.0489294
-0.177892
-0.0163246
-0.144089
-0.046542
-0.162094
-0.0285884
-0.0466551
0.00336062
-0.0395109
-0.0379555
0.000682382
0.00392863
-0.260002
-0.070653
-0.277273
0.00059683
0.000544681
0.000541924
0.000952264
0.000792349
0.00137453
0.00112324
0.00215167
0.0017216
0.0034379
0.00272892
0.00538571
0.00432749
0.00809245
0.00665239
0.0114872
0.00972818
0.0152743
0.0133611
0.018935
0.0171529
0.0218638
0.0205148
0.0235378
0.0228664
0.0236197
0.0237719
0.0219568
0.0229907
0.0185275
0.020443
0.0133671
0.0161431
0.0065327
0.0101381
-0.0018712
0.0025014
-0.0116042
-0.00660524
-0.0222225
-0.0168469
-0.032898
-0.0276237
-0.0422889
-0.0378199
-0.0491696
-0.0460736
-0.0525943
-0.05133
-0.0518818
-0.0527224
-0.0474194
-0.0499669
-0.0418575
-0.0445817
-0.0368979
-0.0391996
-0.0338674
-0.0350055
-0.035047
-0.0339388
-0.0365451
-0.0681923
-0.0689745
-0.060306
-0.0655793
-0.0449381
-0.0536657
-0.0261527
-0.0361067
-0.00597824
-0.0160097
0.0125192
0.00358667
0.0273298
0.0204394
0.0370794
0.0327763
0.0407624
0.0396426
0.0382896
0.0401908
0.0305853
0.0349369
0.0196711
0.0253399
0.00833478
0.0139094
-0.00101183
0.00334594
-0.00702312
-0.00443053
-0.00959808
-0.0086622
-0.00957986
-0.00982294
-0.00800587
-0.00891482
-0.005745
-0.00691359
-0.00339157
-0.00455497
-0.00128085
-0.00229688
0.000437307
-0.000373423
0.00173144
0.00113152
0.00263622
0.0022244
0.00321518
0.00295798
0.003544
0.00340317
0.00364721
0.00361606
0.00362738
0.00368786
0.00355808
0.00364071
0.00349678
0.000373045
0.000488413
-1.56974e-05
0.000191207
-0.000478333
-0.000238019
-0.000852807
-0.000687935
-0.000856251
-0.000910236
-0.000328452
-0.00065935
0.000705065
0.000128923
0.00238471
0.00143669
0.00522922
0.00366315
0.00803164
0.00681671
0.00865279
0.00861297
0.00786635
0.00834643
0.00666846
0.00729917
0.00538834
0.00604766
0.00465165
-0.199512
-0.134583
-0.0395633
0.0029958
0.00372696
-0.103107
-0.250835
-0.106928
-0.226195
-0.134107
-0.172141
-0.171021
-0.104772
-0.204252
-0.0434739
-0.0718507
-0.0860378
-0.223827
-0.00242917
-0.104269
-0.0417471
-0.0503903
-0.226492
0.0102029
-0.124993
-0.0540781
-0.215353
0.000577357
-0.148222
-0.0533175
-0.194944
-0.0173274
-0.24017
-0.172197
-0.0652873
-0.0594575
-0.0537346
0.000477721
0.000571108
0.000483105
0.000899381
0.000720859
0.00141301
0.00112183
0.00223656
0.00177998
0.00350825
0.0028139
0.00534096
0.00435572
0.00778155
0.00649413
0.0107274
0.00921638
0.013921
0.0123167
0.0169399
0.015478
0.0192956
0.0182191
0.0205636
0.0200726
0.0204565
0.0206774
0.0188314
0.0198209
0.0156541
0.0174199
0.0109521
0.0134751
0.00479386
0.00803478
-0.0026882
0.00119354
-0.0112343
-0.00685924
-0.0204089
-0.0157831
-0.0294695
-0.0250094
-0.0373657
-0.0336111
-0.0431379
-0.040542
-0.0460435
-0.0449545
-0.0456545
-0.0462295
-0.0424631
-0.0442898
-0.0382555
-0.0403659
-0.0343563
-0.0361997
-0.0319423
-0.0329136
-0.0323971
-0.0318635
-0.0331249
-0.0328485
-0.0342141
-0.0335644
-0.0439067
-0.060761
-0.0616262
-0.0575146
-0.0592505
-0.0512958
-0.0550848
-0.0387176
-0.0455681
-0.0228459
-0.0310965
-0.00589571
-0.0143388
0.0098791
0.00222903
0.0227481
0.0167292
0.031386
0.0276768
0.0350008
0.0337834
0.033521
0.0348127
0.027696
0.0310267
0.0191085
0.0235971
0.00988483
0.0145036
0.00192707
0.00567991
-0.00358348
-0.00113866
-0.00641476
-0.005284
-0.00706649
-0.00694624
-0.0062857
-0.0067965
-0.00476107
-0.00557437
-0.00300601
-0.00388766
-0.00134087
-0.00215091
6.76605e-05
-0.000602141
0.00115966
0.000650404
0.00194101
0.00158383
0.00245148
0.00222426
0.00274374
0.00261824
0.00286711
0.0028206
0.00286898
0.00288949
0.00279271
0.00283364
0.00265904
0.00272623
0.000333943
0.000516457
0.000459066
0.000477762
0.000515779
0.000288167
0.000392867
8.20893e-05
0.000183917
1.36025e-05
2.16414e-05
0.00029262
0.000102729
0.000987933
0.000594677
0.00194068
0.00144504
0.00315852
0.00249256
0.0052198
0.00406437
0.00736191
0.00642932
0.00780095
0.00779229
0.00721834
0.0075631
0.00628861
0.00680602
0.00511012
0.00572314
0.00442255
-0.191816
-0.0471214
0.000175883
0.00228426
-0.152526
-0.230257
-0.03495
-0.145582
-0.234271
-0.16676
-0.199585
-0.204064
-0.136081
-0.0465535
-0.0572724
-0.0352956
-0.242999
-0.064857
-0.0786522
-0.0441318
-0.268824
-0.00657746
-0.100863
-0.0534565
-0.274689
0.0246857
-0.122946
-0.0594361
-0.262493
0.0222162
-0.148334
-0.060838
-0.237436
0.000487168
-0.177604
-0.0564967
-0.207702
-0.0379946
-0.0374071
0.000179528
6.59413e-05
-0.0294902
0.000396575
0.000250482
0.00075723
0.000554522
0.00129969
0.000999095
0.00213042
0.0016771
0.00335175
0.00269233
0.00504246
0.00414173
0.00721437
0.00607776
0.00976398
0.00845127
0.0124593
0.0111132
0.0149492
0.0137499
0.0168395
0.015984
0.0177801
0.017434
0.017527
0.0177991
0.0159491
0.0168932
0.0130067
0.0146338
0.00872415
0.011016
0.00317718
0.0060895
-0.00348614
-3.83191e-05
-0.0110024
-0.00716596
-0.0189562
-0.0149602
-0.0266964
-0.0228971
-0.0333898
-0.0302099
-0.0382784
-0.0360785
-0.0407818
-0.039829
-0.0406333
-0.0410054
-0.0383277
-0.0396637
-0.0350598
-0.0367408
-0.0318021
-0.0333671
-0.0298302
-0.0306077
-0.029281
-0.0295154
-0.0286889
-0.0289296
-0.0293176
-0.0288906
-0.048217
-0.0436899
-0.0510224
-0.0507973
-0.0485913
-0.050104
-0.0430791
-0.0464533
-0.0332384
-0.0389029
-0.0198992
-0.026778
-0.00564742
-0.0127746
0.00781104
0.00126486
0.018942
0.0137173
0.0265658
0.0232126
0.0300484
0.0287962
0.0292825
0.0301261
0.0248759
0.0274333
0.0180659
0.0216541
0.0105182
0.0142493
0.00375452
0.00698132
-0.00123148
0.00102793
-0.00413104
-0.00291085
-0.00521484
-0.00485093
-0.00501019
-0.00522663
-0.0040554
-0.00459033
-0.00278473
-0.00343617
-0.00149297
-0.00212912
-0.000350942
-0.000898801
0.000563875
0.000134236
0.00123632
0.000926984
0.0016869
0.00148484
0.00195489
0.00183838
0.00208376
0.00203242
0.0021032
0.00210215
0.002038
0.0020713
0.00191871
0.00195086
0.00210767
0.00156607
0.00176368
0.000224417
0.000275909
0.000190493
0.000494113
0.000394361
0.000541643
0.000535848
0.000505114
0.000525142
0.000505743
0.000496673
0.000684396
0.000565527
0.00119312
0.000892853
0.00203305
0.00158303
0.00294228
0.00249997
0.00379885
0.00335833
0.0051789
0.0043901
0.00667432
0.00602808
0.00691139
0.00694291
0.0064969
0.00673045
0.00579552
0.00620666
0.00477181
0.00531498
0.00345858
0.00413025
0.0027648
-0.197339
-0.02537
2.24258e-05
-0.185724
-0.233813
-0.0449909
4.17478e-05
-0.00017562
0.00202032
0.00146929
-0.201639
-0.230089
-0.02028
-0.0283835
-0.238468
-0.183467
-0.0478534
-0.0236492
-0.0312299
-0.283756
-0.109777
-0.0705595
-0.0434809
-0.319392
-0.0350347
-0.0953747
-0.0549413
-0.332841
0.0186826
-0.119523
-0.064202
-0.321071
0.0394676
-0.146865
-0.0684799
-0.291455
0.022496
-0.179092
-0.0670004
-0.252708
-0.00959677
-0.214821
0.000115297
-0.00978505
-0.0127857
-0.00329667
-7.25028e-05
0.000156034
6.15403e-05
0.000525401
0.000324339
0.00107162
0.000776836
0.00187785
0.00144282
0.0030229
0.00240927
0.00455916
0.0037461
0.00647841
0.00547929
0.00867702
0.00755464
0.0109454
0.00981706
0.0129958
0.0120142
0.0145028
0.0138288
0.0151777
0.0149486
0.0148118
0.015122
0.0132866
0.0141853
0.0105625
0.0120616
0.00666294
0.00874428
0.00166799
0.00428442
-0.00426796
-0.00120402
-0.0108875
-0.00751792
-0.0178029
-0.0143393
-0.0244503
-0.0211952
-0.0301581
-0.0274491
-0.0343219
-0.0324467
-0.0364893
-0.0356531
-0.0365006
-0.0367317
-0.0347939
-0.0357986
-0.0321733
-0.0335481
-0.0294246
-0.0307505
-0.0275648
-0.0283652
-0.0261545
-0.026912
-0.0248375
-0.0255827
-0.0244744
-0.0247066
-0.0207029
-0.0231664
-0.018595
-0.0126889
-0.0173764
-0.0117905
-0.00572293
-0.0288849
-0.0215495
-0.0386223
-0.0343189
-0.0418624
-0.0411397
-0.0408648
-0.0418688
-0.0364249
-0.0392864
-0.0283
-0.0328507
-0.0172224
-0.0229521
-0.00523806
-0.011251
0.00622072
0.000632422
0.0158184
0.0112971
0.0225316
0.0195494
0.0258032
0.0245715
0.0255409
0.0260596
0.022205
0.024175
0.0167906
0.0196645
0.0105694
0.0136878
0.0047947
0.007574
0.000313286
0.00237808
-0.00254377
-0.00129972
-0.00389685
-0.00337278
-0.00410912
-0.00410836
-0.00359552
-0.00391227
-0.00271722
-0.00318048
-0.00173828
-0.0022277
-0.000825217
-0.00126776
-6.50347e-05
-0.000425008
0.000512355
0.000244663
0.000913172
0.000731474
0.00116426
0.00105334
0.0012974
0.00124164
0.00133996
0.00132402
0.00129509
0.00132145
0.00119858
0.00130454
0.00101959
0.00111427
0.000276504
0.000180108
0.000464454
0.000372065
0.000580846
0.00053231
0.000659449
0.000617383
0.000819232
0.000724258
0.00118951
0.000972015
0.00187972
0.00149218
0.00283667
0.00233996
0.00371623
0.00331404
0.00427909
0.0040237
0.00506556
0.00460231
0.00594746
0.00557935
0.00597644
0.00605292
0.00571168
0.0058452
0.00524371
0.0055379
0.00440321
0.0048617
0.00323389
0.00383978
0.00260518
-0.217749
0.0057688
0.00125034
-0.0578449
-0.000452838
-0.000434806