/*--------------------------------*- C++ -*----------------------------------*\
  =========                 |
  \\      /  F ield         | OpenFOAM: The Open Source CFD Toolbox
   \\    /   O peration     | Website:  https://openfoam.org
    \\  /    A nd           | Version:  10
     \\/     M anipulation  |
\*---------------------------------------------------------------------------*/
FoamFile
{
    format      ascii;
    class       volScalarField;
    location    "30";
    object      p;
}
// * * * * * * * * * * * * * * * * * * * * * * * * * * * * * * * * * * * * * //

dimensions      [0 2 -2 0 0 0 0];

internalField   nonuniform List<scalar> 
40874
(
0.629099
0.706759
0.205601
0.278835
0.194187
0.109544
0.0021363
0.17736
0.258036
0.39115
0.563888
0.523846
0.386844
0.489638
0.498051
0.555196
-0.0765604
-0.051436
0.287239
0.366171
0.365868
0.339513
0.251298
0.440663
0.419859
0.14194
0.164239
0.169454
0.122642
-0.0412828
-0.0218321
0.0762775
0.061699
-0.370599
-0.318598
-0.296436
-0.335597
0.00716887
0.00684455
0.00539045
0.00743396
0.00780173
0.00863791
0.00451874
0.00717902
0.00712755
0.00445389
0.256196
0.374628
0.461342
0.356122
0.0756725
0.187476
-0.0872032
-0.123482
-0.0218625
0.0056019
-0.0166129
-0.137337
-0.260568
-0.234824
-0.127704
0.021041
-0.00281571
-0.12861
-0.381357
-0.41808
-0.380127
-0.598998
-0.593602
-0.602272
0.921915
0.924717
0.915466
-0.000594961
0.0241833
0.0300979
-0.0228053
0.00665538
0.0101052
0.00639742
0.00720047
0.443578
0.495583
0.51039
0.472687
-0.110908
-0.106041
-0.0884344
-0.220463
-0.395469
-0.314602
-0.340823
-0.245907
-0.179631
0.00331981
0.00518602
-0.00295616
-0.000669592
0.00261335
0.213688
0.198965
-0.641848
-0.651162
-0.311929
-0.306575
0.36765
0.369883
0.908962
0.895509
-0.326549
-0.317556
0.186597
-0.00629653
-0.00468689
0.00696259
0.00889753
0.0318618
0.0728105
0.38252
0.54452
0.60074
0.493662
0.387917
0.00575847
0.00504824
0.0084274
0.00338646
-0.00972544
-0.0200955
0.198021
0.00584088
0.044364
0.0446602
0.672617
-0.138693
-0.141741
-0.202017
-0.497244
-0.457903
-0.43704
-0.47776
-0.557866
-0.544147
-0.232969
-0.245212
-0.258948
0.901632
0.925113
0.922134
-0.100342
-0.120382
-0.0421607
-0.311189
-0.314856
-0.317928
-0.314738
-0.310911
-0.316797
-0.321508
-0.794514
-0.800049
-0.785262
0.889617
0.835161
0.744755
0.655776
0.681156
0.127059
-0.695699
0.782186
0.731304
0.608604
0.818751
0.00822181
0.013522
-0.569345
-0.561431
-0.604546
-0.309578
-0.29421
-0.226046
-0.234991
-0.356377
-0.347935
0.00521218
0.00489211
0.00484843
0.401549
0.416034
0.392103
0.256073
0.190901
0.854576
0.868237
0.893295
0.848487
-0.201251
-0.308052
-0.453742
-0.334785
-0.697553
-0.690063
-0.684505
-0.704804
0.00489019
0.00544126
-0.673173
-0.00579003
-0.0117096
0.177919
0.173776
0.24841
0.222981
0.222595
0.184987
0.184333
0.209407
0.201283
0.70243
0.789833
0.817698
0.00655864
0.00609005
0.122411
0.0015516
0.0420989
0.177462
-0.281227
-0.528364
-0.532391
-0.638571
-0.637839
-0.103207
-0.582759
-0.606518
-0.590517
-0.557218
-0.558873
0.172999
0.232195
-0.547864
-0.564838
-0.12557
-0.139893
-0.274014
-0.241563
0.591575
0.595802
0.725097
0.688454
-0.213487
-0.195709
-0.209116
-0.23037
-0.545317
-0.568439
-0.560597
-0.539541
-0.50001
-0.53337
-0.343545
-0.342952
-0.358062
0.837601
0.789372
0.849569
0.608558
0.587126
0.589261
-0.662797
0.00466987
-0.279096
0.0413104
-0.0623457
-0.0536449
-0.0454249
-0.0376739
-0.030045
-0.0235382
-0.0183383
-0.0123044
-0.00703867
-0.0024032
0.00193939
0.00583237
0.00951329
0.0128301
0.0159694
0.0188071
0.021493
0.023868
0.026198
0.0283009
0.0302486
0.0320172
0.0336796
0.0351802
0.0365793
0.0378335
0.0389917
0.0400182
0.0409521
0.0417637
0.0424828
0.0430823
0.0436101
0.0441085
0.0443687
0.0442682
0.0438886
0.0443845
-0.0866387
-0.0785747
-0.0897843
-0.101602
-0.110552
-0.0978009
-0.0668793
-0.077071
-0.049608
-0.0578424
-0.0338569
-0.0415205
-0.0207013
-0.0263844
-0.00984054
-0.0150308
-0.000711328
-0.00509113
0.00705412
0.00331946
0.0136936
0.0104964
0.0192579
0.016641
0.0243171
0.0219054
0.028477
0.026472
0.0320523
0.0303314
0.0350889
0.0336322
0.0376326
0.0364173
0.0397213
0.0387297
0.041385
0.0406032
0.0426003
0.0420541
0.0432158
0.0430265
0.0434502
-0.0569164
-0.0661647
-0.0408652
-0.048621
-0.0262496
-0.0334274
-0.0154357
-0.0205045
-0.0055403
-0.0104902
0.0032063
-0.000988811
0.0106152
0.00704612
0.0169698
0.0139045
0.0224487
0.0198038
0.0271176
0.0248497
0.0311805
0.029227
0.0346446
0.0329783
0.0375913
0.0361777
0.040066
0.038884
0.0421026
0.0411364
0.0437213
0.0429635
0.0449353
0.0443736
0.0458005
0.0454364
0.0458453
0.0458299
-0.124665
-0.140523
-0.129387
-0.114682
-0.159404
-0.146281
-0.180873
0.042702
0.0428535
0.0460199
-0.0808809
-0.0705451
-0.0917528
-0.117907
-0.133432
-0.238244
-0.199847
-0.186419
-0.15009
-0.168269
-0.118407
-0.133192
-0.0930406
-0.105034
-0.0719536
-0.0830115
-0.0533585
-0.0623154
-0.0376636
-0.0453957
-0.0246913
-0.0306202
-0.0142279
-0.0193277
-0.00493272
-0.00940883
0.00309411
-0.000764324
0.0100048
0.00668401
0.0159402
0.01307
0.0211267
0.0186238
0.0255791
0.0234428
0.0293904
0.0275594
0.032644
0.0310838
0.0353939
0.0340794
0.0376823
0.0365937
0.0395476
0.0386653
0.0409687
0.0403245
0.0419613
0.0414888
0.0423924
0.0429654
0.0460816
0.0435457
0.0441376
-0.0514133
-0.0607689
-0.0356461
-0.0432324
-0.0223865
-0.028536
-0.0111792
-0.0167307
-0.00174093
-0.0062684
0.00652428
0.00255013
0.0135941
0.0101976
0.0196731
0.0167477
0.0249117
0.0223931
0.0294213
0.0272474
0.0333255
0.0314476
0.0366696
0.0350637
0.039517
0.0381527
0.0419096
0.0407683
0.0438764
0.042945
0.0454343
0.0447058
0.0466219
0.0460689
0.0473842
0.0470725
0.0477801
0.0475751
0.0477679
0.0478472
-0.104073
-0.0711825
-0.0620273
-0.0814344
-0.105518
-0.120163
0.0495333
0.0475839
0.0493238
-0.225245
-0.165101
0.042684
-0.151293
0.0422163
-0.244586
-0.273096
-0.315381
-0.319224
-0.281809
-0.190577
-0.215619
-0.156793
-0.173726
-0.124459
-0.139819
-0.0978063
-0.110555
-0.0761919
-0.0866985
-0.0569353
-0.0663206
-0.0414731
-0.0489561
-0.0282947
-0.0345738
-0.0173212
-0.0226019
-0.00779778
-0.0123807
0.00042756
-0.00352985
0.0075251
0.00411181
0.0136461
0.0106784
0.0189438
0.0163892
0.0235231
0.021323
0.0274468
0.0255623
0.0307959
0.0291899
0.0336298
0.0322747
0.0359945
0.0348689
0.0379318
0.0370134
0.0394613
0.0387551
0.0405512
0.0400221
0.0413033
0.0410148
0.0414296
0.041449
0.0413587
0.0443683
0.0432226
0.0459222
-0.044999
-0.0534249
-0.0298457
-0.0370401
-0.017461
-0.0233332
-0.00659092
-0.0118797
0.00240145
-0.00189328
0.0101503
0.00641147
0.0168406
0.0136209
0.0226146
0.0198325
0.0276094
0.0252031
0.0319284
0.0298466
0.0356742
0.033869
0.0389
0.0373491
0.0416559
0.040334
0.04398
0.0428702
0.0458968
0.0449883
0.0474192
0.0467068
0.0485489
0.048035
0.0492388
0.0489457
0.0495794
0.049464
0.0496029
-0.0927068
-0.13764
-0.0613466
-0.0529334
0.0472897
0.0489822
-0.0707313
-0.260449
0.0400029
0.0395275
-0.307358
-0.186095
-0.209244
-0.315173
-0.349877
-0.355793
-0.17185
-0.15751
-0.252597
-0.282215
-0.199731
-0.224657
-0.161139
-0.179428
-0.128887
-0.144454
-0.101542
-0.114564
-0.0791692
-0.0897265
-0.0603934
-0.0694036
-0.0445879
-0.0521289
-0.0310936
-0.0375649
-0.0196354
-0.025127
-0.00986895
-0.0145562
-0.00148518
-0.00551698
0.00573881
0.00226283
0.0119626
0.00896642
0.0173369
0.0147504
0.0219645
0.0197395
0.0259339
0.0240274
0.0293189
0.0276961
0.0321796
0.030812
0.0345643
0.0334293
0.0365141
0.0355906
0.0380663
0.0373436
0.0391744
0.0386545
0.0399528
0.0396144
0.040107
0.0401322
0.0400026
0.0418049
0.0407088
0.0442333
0.0429696
0.0456743
-0.0373179
-0.0450498
-0.0232855
-0.0299555
-0.0116888
-0.0172661
-0.00157428
-0.00644059
0.00689309
0.00284331
0.0141467
0.0106501
0.0204201
0.0173979
0.0258498
0.0232318
0.0305595
0.0282881
0.0346495
0.0326764
0.0382
0.0364878
0.0412675
0.0397913
0.0438946
0.0426337
0.0461131
0.0450534
0.0479426
0.0470756
0.0493931
0.0487147
0.0504658
0.0499777
0.0511431
0.050852
0.0514699
0.051353
0.0513856
0.0514954
-0.399107
-0.386353
-0.193515
-0.345782
0.0507692
0.0511497
-0.0926411
-0.08123
-0.121613
-0.105498
-0.181422
-0.438351
-0.392035
-0.339267
-0.438293
-0.385862
-0.0433589
-0.0511836
-0.241582
-0.487304
-0.481172
-0.140726
0.05265
0.0502641
0.0521205
-0.479539
-0.302998
-0.379157
-0.311748
-0.344164
-0.25662
-0.282333
-0.206384
-0.230531
-0.165157
-0.184601
-0.132038
-0.147695
-0.104538
-0.117648
-0.0817641
-0.0925433
-0.0629464
-0.0719315
-0.0469299
-0.0545886
-0.0332386
-0.0398057
-0.0215892
-0.0271766
-0.0116606
-0.0164229
-0.00315621
-0.00724359
0.0041567
0.000633694
0.0104563
0.00742869
0.0158821
0.0132715
0.0205488
0.0183053
0.0245511
0.0226288
0.0279631
0.0263276
0.0308453
0.0294677
0.0332472
0.0321041
0.0352079
0.0342804
0.0367688
0.0360387
0.0379019
0.0373809
0.0386978
0.0383467
0.0389874
0.0389285
0.038898
0.0389343
0.041356
0.0388186
0.0402416
0.0438905
0.0425946
0.0468565
0.045313
0.0485089
-0.0291495
-0.0360858
-0.016243
-0.0224237
-0.00547851
-0.0106427
0.00375102
-0.000682115
0.0115829
0.00782684
0.0183038
0.015064
0.0241339
0.0213217
0.0292015
0.0267555
0.0336166
0.0314846
0.0374666
0.0356073
0.0408222
0.0392024
0.0437338
0.042331
0.0462377
0.0450348
0.0483599
0.0473454
0.0501147
0.0492827
0.0515065
0.0508561
0.0525262
0.0520641
0.0531629
0.0528914
0.0534222
0.0533417
0.0533002
0.0534048
0.0530416
-0.0598479
-0.0790905
-0.0691247
-0.104546
-0.0906077
-0.226098
-0.43516
-0.389962
-0.519711
-0.532847
0.0377511
0.0377088
-0.164531
-0.120844
0.0496248
0.0514156
-0.445501
-0.343256
-0.47773
-0.291136
-0.219827
-0.0404802
-0.0333148
-0.313651
-0.347863
-0.257722
-0.284446
-0.209224
-0.232404
-0.167779
-0.187406
-0.13423
-0.150043
-0.106719
-0.119809
-0.0838468
-0.0947239
-0.0648095
-0.0738897
-0.0486855
-0.056402
-0.0349409
-0.0415261
-0.0232511
-0.0288607
-0.0132563
-0.0180526
-0.00468515
-0.00880424
0.00268741
-0.000859345
0.00903502
0.00598327
0.0145012
0.0118715
0.019203
0.0169427
0.0232351
0.0212987
0.0266733
0.0250251
0.0295791
0.02819
0.0320026
0.030849
0.0339827
0.0330462
0.0355579
0.0348198
0.0367284
0.0361893
0.0375479
0.0371838
0.0379503
0.0378169
0.0379462
0.0409169
0.0385809
0.0397259
0.0434056
0.0421354
0.0462979
0.044799
0.0479114
-0.0203371
-0.0266578
-0.00878309
-0.0143535
0.000993784
-0.00369535
0.00934693
0.00533167
0.0165006
0.0130614
0.0226669
0.0196937
0.0280304
0.0254406
0.0327134
0.0304505
0.0368124
0.0348307
0.0404048
0.0386679
0.0435498
0.0420302
0.0462914
0.044969
0.0486599
0.0475208
0.0506749
0.0497108
0.0523457
0.0515532
0.0536721
0.0530524
0.054644
0.0542033
0.0552482
0.0549927
0.0554701
0.0554088
0.0552787
0.0554268
0.0546065
0.055026
-0.536601
0.0376802
-0.139209
-0.190238
0.0533118
0.0540448
-0.384416
-0.571449
-0.522648
-0.100327
-0.0480834
-0.0562562
-0.0651052
-0.0753676
-0.0868695
-0.263726
-0.505228
-0.343963
-0.392162
-0.43628
-0.0228334
-0.0291374
0.0383805
0.037509
-0.115813
-0.614304
-0.216654
0.0553308
0.0524404
0.054399
-0.317257
-0.352363
-0.257837
-0.286033
-0.20907
-0.232051
-0.168573
-0.18778
-0.135312
-0.151056
-0.107924
-0.120937
-0.0851374
-0.0959925
-0.0660637
-0.0751556
-0.0499364
-0.0576486
-0.0362264
-0.0427921
-0.0245567
-0.0301566
-0.0145629
-0.0193589
-0.00597494
-0.0101028
0.00141362
-0.00213983
0.00777852
0.00471728
0.0132633
0.0106248
0.0179833
0.0157142
0.0220322
0.0200878
0.0254864
0.0238305
0.0284082
0.0270113
0.0308482
0.0296864
0.0328458
0.0319007
0.0344367
0.0336907
0.035635
0.035082
0.0364727
0.0360998
0.0369065
0.0367489
0.0368513
0.036937
0.0368643
0.0368742
0.0404509
0.0393353
0.0428599
0.0416333
0.0456258
0.0441819
0.0488486
0.0471885
0.050591
-0.0111664
-0.0167595
-0.00100376
-0.00591628
0.00769972
0.00352149
0.0151563
0.0115681
0.0215868
0.0184892
0.0271657
0.0244726
0.0320434
0.0296851
0.0363273
0.0342543
0.0401
0.0382734
0.0434266
0.0418159
0.0463569
0.0449391
0.0489271
0.0476856
0.0511609
0.0500851
0.053072
0.0521565
0.0546643
0.0539084
0.0559319
0.0553397
0.0568595
0.0564396
0.0574268
0.0571897
0.0576075
0.0575676
0.0573678
0.0575428
0.0566577
0.0570809
0.0560734
-0.419104
-0.583174
-0.481343
-0.0358279
-0.0429113
-0.0507149
-0.0593845
-0.0689636
-0.0799981
0.036711
-0.483652
-0.580287
-0.0924032
-0.0518608
-0.0434401
-0.160594
-0.617298
-0.632367
-0.637431
-0.260591
0.0574548
0.0565175
0.0514126
0.0533186
-0.391607
-0.436322
-0.316534
-0.351714
-0.256031
-0.284743
-0.207441
-0.230301
-0.167776
-0.186521
-0.13514
-0.150644
-0.108103
-0.120964
-0.0855587
-0.0963081
-0.0666968
-0.0756416
-0.0506653
-0.0583177
-0.0370603
-0.0435723
-0.0254582
-0.0310236
-0.0155142
-0.0202893
-0.00696553
-0.0110752
0.00039725
-0.00314403
0.00674551
0.00369185
0.0122198
0.00958653
0.0169336
0.0146676
0.0209794
0.0190365
0.0244332
0.0227774
0.0273571
0.0259591
0.029802
0.0286376
0.0318078
0.0308584
0.0334086
0.0326577
0.0346226
0.034062
0.0354715
0.0350934
0.0359356
0.0357552
0.0360403
0.0360239
0.0360691
0.0360744
0.0364259
0.0356446
0.0359284
0.0380144
0.0372163
0.0399677
0.0389569
0.0422748
0.0410959
0.0448882
0.0435333
0.0479475
0.046374
0.0496288
-0.0702712
-0.0607996
-0.023199
-0.0359795
-0.0292958
-0.0118075
-0.0173943
-0.00173507
-0.00663356
0.00701849
0.002781
0.0146005
0.0109528
0.0211432
0.0179905
0.0268289
0.0240851
0.0318001
0.029397
0.0361761
0.0340574
0.040047
0.038171
0.0434813
0.0418159
0.0465325
0.0450528
0.0492405
0.0479281
0.0516331
0.0504757
0.0537282
0.0527177
0.0555332
0.0546675
0.0570463
0.0563273
0.0582569
0.0576911
0.0591453
0.0587435
0.0596845
0.0594611
0.0598386
0.0598128
0.0595616
0.0597578
0.0588087
0.0592429
0.0582069
-0.104294
-0.132136
-0.641792
-0.0792053
-0.623102
-0.592365
0.0362246
0.0351134
0.0553355
0.0502808
0.0520747
-0.182009
-0.647974
-0.632025
-0.650033
-0.643211
-0.478099
-0.517215
-0.386275
-0.432279
-0.311187
-0.346038
-0.252171
-0.280073
-0.204558
-0.227069
-0.165645
-0.184004
-0.133759
-0.148917
-0.107285
-0.119896
-0.0851664
-0.0957199
-0.0665816
-0.0754516
-0.0508244
-0.0583668
-0.0374099
-0.0438369
-0.0259452
-0.0314473
-0.0161109
-0.0208345
-0.00764997
-0.0117174
-0.000353934
-0.00386336
0.00594304
0.00291402
0.0113773
0.00876358
0.0160598
0.0138091
0.0200817
0.0181505
0.0235178
0.0218707
0.0264295
0.0250374
0.0288671
0.0277061
0.0308709
0.0299221
0.0324739
0.0317216
0.0336967
0.0331315
0.0345602
0.0341734
0.0350684
0.0348591
0.0352601
0.0351997
0.0352378
0.0352849
0.0350348
0.0351546
0.0375747
0.0368035
0.0394266
0.0384634
0.0416388
0.0405145
0.0441172
0.0428417
0.0469802
0.0454964
0.0485573
-0.0697084
-0.0486593
-0.05686
-0.0342517
-0.0413758
-0.0209902
-0.0274088
-0.0101622
-0.0153746
-0.000661038
-0.00531825
0.00782441
0.00372887
0.0152198
0.0116447
0.0216592
0.018555
0.0272677
0.0245606
0.0321883
0.029809
0.036534
0.0344293
0.0403959
0.0385227
0.0438444
0.04217
0.0469332
0.0454326
0.0497036
0.0483576
0.0521863
0.0509808
0.0544002
0.0533274
0.0563573
0.0554117
0.0580586
0.0572414
0.0594971
0.0588126
0.0606565
0.0601142
0.0615115
0.0611251
0.0620278
0.0618156
0.0621612
0.0621466
0.0618547
0.0620683
0.061049
0.0615171
0.0596837
0.0604502
0.0346887
0.0540156
0.0575301
0.0587174
-0.0927685
-0.659462
-0.642446
-0.61379
-0.660188
0.0330716
0.0560997
-0.588433
0.722619
0.190767
0.191623
-0.133431
0.659017
-0.632834
-0.630354
-0.651421
-0.602538
-0.522852
-0.375498
-0.41805
-0.302835
-0.336724
-0.24603
-0.272766
-0.200038
-0.221868
-0.162223
-0.180119
-0.131242
-0.145985
-0.105511
-0.117789
-0.0839808
-0.0942763
-0.0658326
-0.074512
-0.0504259
-0.0578118
-0.0372842
-0.0435906
-0.0260328
-0.031438
-0.016369
-0.0210122
-0.00804326
-0.0120478
-0.00085358
-0.00431313
0.00535885
0.0023696
0.0107253
0.0081438
0.0153535
0.0131286
0.0193322
0.0174216
0.0227346
0.0211036
0.0256209
0.0242408
0.0280403
0.0268878
0.0300331
0.0290892
0.0316318
0.030881
0.0328594
0.0322911
0.0337384
0.0333421
0.0342828
0.0340524
0.0345141
0.0344365
0.0344792
0.0345361
0.034238
0.0343594
0.032909
0.0339483
0.0377498
0.0408068
0.0384301
0.0389887
0.0393438
0.039514
0.0396482
0.0397245
0.039775
0.0397967
0.0397945
0.0397697
0.039724
0.0396588
0.0395753
0.0394748
0.0393583
0.0392271
0.0390821
0.0389247
0.038756
0.0385771
0.0383893
0.0381937
0.0379914
0.0377838
0.0375718
0.0373568
0.0371398
0.0369219
0.0367042
0.0364877
0.0362735
0.0360624
0.0358554
0.0356534
0.0354572
0.0352674
0.0350848
0.03491
0.0347435
0.0345858
0.0344372
0.0342983
0.034169
0.0340497
0.0339404
0.0338411
0.0337518
0.0336722
0.0336021
0.0335411
0.0334889
0.0334451
0.0334089
0.0333798
0.0333572
0.0333402
0.033328
0.0333199
0.0333149
0.0333122
0.0333108
0.0333099
0.0333083
0.0333054
0.0333004
0.0332931
0.0332822
0.0332632
0.0332338
0.0332147
0.0332488
0.0332675
0.0328997
0.0321082
0.0334291
0.0328573
0.0328821
0.0327182
0.0326344
0.0325136
0.0324006
0.0322755
0.0321472
0.0320122
0.0318731
0.0317298
0.0315838
0.0314359
0.0312875
0.0311398
0.0309941
0.0308519
0.0307148
0.0305843
0.0304621
0.0303499
0.0302494
0.0301625
0.030091
0.0300366
0.0300015
0.0299875
0.029997
0.030032
0.0300938
0.0301835
0.0303075
0.0304854
0.0307419
0.0310468
0.031225
0.0311575
0.0324103
0.0332189
0.0323401
0.0326721
0.0339481
0.0338764
0.0357805
0.0358177
0.0370609
0.0364714
0.0388644
0.0379368
0.0409653
0.0398985
0.0433146
0.042108
0.0459914
0.0446065
0.0490352
0.0474681
0.0525416
0.0507372
0.0583514
0.0566218
0.0545
0.175964
0.0589322
0.0614055
0.0639435
0.0666845
0.0696457
0.0729257
0.07652
0.0804784
0.0847998
0.0896436
0.0950979
0.101192
0.107971
0.115466
0.123457
0.131942
0.141962
0.156248
-0.628618
-0.749597
-0.652012
-0.698409
0.0598428
0.0610503
0.0620046
0.0627878
0.0634209
0.0639106
0.0642605
0.0644799
0.0645786
0.0645667
0.0644525
0.0642443
0.0639483
0.0635715
0.0631187
0.0625953
0.0620048
0.0613514
0.0606375
0.0598661
0.059038
0.0581555
0.0572189
0.0562287
0.0551841
0.0540851
0.0529298
0.0517174
0.0504444
0.0491088
0.0477065
0.0462343
0.0446869
0.04306
0.0413467
0.0395414
0.0376354
0.0356217
0.0334897
0.0312307
0.0288314
0.0262808
0.0235646
0.020669
0.0175727
0.0142423
0.0107578
0.00705303
0.00318581
-0.000996797
-0.00565694
-0.0108412
-0.0154893
-0.021853
-0.026991
-0.033635
-0.0464415
-0.0690838
-0.112425
-0.216638
0.0607422
0.0632953
0.0659705
0.0688255
0.0719099
0.0752699
0.078922
0.0829062
0.0872416
0.0919205
0.0971726
0.102901
0.109118
0.11572
0.122513
0.129362
0.137919
0.150251
0.16473
0.174122
0.177267
0.0379998
0.177591
-0.62764
0.157589
0.144478
0.133738
0.123536
0.114131
0.105715
0.0984387
0.0920726
0.086501
0.0816317
0.0773353
0.0734825
0.0700312
0.0668934
0.064102
0.0614593
0.0593099
0.0569977
0.0548423
0.0528403
0.0510697
0.0493734
0.0478358
0.0463839
0.0449991
0.0437056
0.0424943
0.0413586
0.0402833
0.0392822
0.0383229
0.0374722
0.0366192
0.0360859
0.0357031
0.03489
0.0334994
0.032834
0.0327879
0.0322272
0.0322834
0.0317517
0.0311973
0.0309612
0.0308065
0.0306019
0.0304024
0.0302439
0.0301249
0.0300368
0.0299758
0.0299406
0.0299299
0.0299417
0.0299741
0.0300252
0.030093
0.0301758
0.0302718
0.0303793
0.0304965
0.0306219
0.0307538
0.0308908
0.0310312
0.0311738
0.0313172
0.0314602
0.0316015
0.0317402
0.031875
0.0320058
0.0321304
0.0322515
0.0323616
0.0324778
0.0325614
0.0327141
0.0326982
0.0330995
0.032144
0.0330249
0.03321
0.0331045
0.0330547
0.0330688
0.033093
0.0331095
0.0331206
0.0331291
0.0331356
0.0331402
0.0331434
0.0331463
0.0331497
0.0331545
0.0331615
0.0331718
0.0331861
0.0332053
0.0332301
0.0332613
0.0332996
0.0333455
0.0333997
0.0334626
0.0335346
0.033616
0.033707
0.0338079
0.0339187
0.0340394
0.0341699
0.03431
0.0344596
0.0346182
0.0347856
0.0349611
0.0351444
0.0353347
0.0355314
0.0357338
0.0359411
0.0361524
0.0363668
0.0365834
0.0368013
0.0370193
0.0372364
0.0374516
0.0376636
0.0378714
0.0380739
0.0382698
0.038458
0.0386373
0.0388065
0.0389645
0.0391102
0.0392423
0.0393599
0.0394616
0.0395466
0.0396135
0.0396612
0.0396885
0.0396936
0.0396759
0.03963
0.0395661
0.039442
0.0394255
0.038759
0.0383046
0.176472
-0.327612
-0.332417
-0.37395
-0.344025
-0.384328
-0.374255
-0.380847
-0.321187
0.0326064
0.0331737
0.033432
0.0336445
0.0337972
0.0338542
0.033824
0.0337319
0.0335644
0.0333206
0.0329967
0.032593
0.0321068
0.0315366
0.0308793
0.0301317
0.0292912
0.0283547
0.0273179
0.026177
0.024927
0.0235631
0.0220791
0.0204692
0.018726
0.0168423
0.0148094
0.0126183
0.0102585
0.00771918
0.00498771
0.00205065
-0.00110668
-0.00450112
-0.00814994
-0.012072
-0.0162859
-0.0208273
-0.0257212
-0.0309963
-0.0366849
-0.042827
-0.0494635
-0.0566415
-0.0644135
-0.0728389
-0.0819986
-0.091965
-0.102761
-0.114617
-0.127559
-0.14179
-0.157411
-0.174615
-0.193673
-0.214684
-0.237825
-0.263487
-0.292129
-0.324165
-0.360348
-0.398281
-0.530517
-0.60041
-0.593994
-0.582299
-0.633583
-0.629245
-0.618825
-0.654774
-0.654452
-0.645464
-0.667749
-0.666935
-0.661367
-0.666862
-0.66381
-0.667715
-0.658981
0.0322925
0.0325923
0.0327213
0.0324797
0.0329188
0.0325485
0.0330934
0.0326663
0.0332183
0.032728
0.0332499
0.0327211
0.0332032
0.0326533
0.0330949
0.0325281
0.0329147
0.0323355
0.0326609
0.0320731
0.0323304
0.0317382
0.0319228
0.0313291
0.0314356
0.0308434
0.0308667
0.0302788
0.0302135
0.0296326
0.0294728
0.028902
0.0286419
0.0280838
0.0277173
0.0271748
0.0266953
0.0261713
0.0255716
0.025069
0.0243417
0.0238637
0.0230005
0.0225504
0.0215426
0.0211237
0.0199617
0.0195778
0.0182513
0.0179062
0.0164038
0.016102
0.0144114
0.0141573
0.012265
0.0120638
0.0099552
0.00981232
0.00747082
0.00739251
0.00480064
0.0047934
0.00193092
0.00200245
-0.0011521
-0.000994034
-0.0044651
-0.00421187
-0.00802254
-0.00766954
-0.0118447
-0.0113971
-0.0159279
-0.0152886
-0.0203445
-0.0195824
-0.0250983
-0.0241808
-0.0302158
-0.0291204
-0.0357276
-0.0344341
-0.0416718
-0.0401569
-0.0480865
-0.0463249
-0.0550166
-0.0529792
-0.0625126
-0.0601674
-0.0706274
-0.0679047
-0.0794483
-0.076339
-0.0890754
-0.0854752
-0.0992593
-0.0953503
-0.110681
-0.106167
-0.123107
-0.117966
-0.136714
-0.130869
-0.151621
-0.144992
-0.167999
-0.160478
-0.186067
-0.177506
-0.206007
-0.196278
-0.227997
-0.217014
-0.252352
-0.239964
-0.27955
-0.265525
-0.309625
-0.294105
-0.342854
-0.326245
-0.379272
-0.362791
-0.419601
-0.404523
-0.46601
-0.451145
-0.515752
-0.496219
-0.56264
-0.541022
-0.602027
-0.580042
-0.631149
-0.609204
-0.648592
-0.627956
-0.653911
-0.636877
-0.637986
-0.635503
-0.626027
-0.61105
-0.599734
-0.5789
-0.534804
-0.472729
0.0405174
0.0402219
0.0392226
0.0388775
0.0383607
0.0383599
0.0378759
0.0376843
0.0371338
0.0367885
0.0365464
0.0360603
0.035626
0.0352165
0.0347925
0.0343525
0.0339029
0.0334462
0.0329825
0.0325124
0.0320379
0.0315605
0.0310816
0.0306028
0.0301277
0.029664
0.029229
0.0287821
0.0282691
0.027812
0.0272468
0.0270445
0.0264809
0.025872
0.0253948
0.0249953
0.0246533
0.0240604
0.0235863
0.0231756
0.0228827
0.0223592
0.0218783
0.0214524
0.0210509
0.020349
0.0201625
0.0196389
0.0191209
0.0184643
0.0182424
0.0175618
0.0171523
0.0168054
0.0161464
0.0155447
0.015023
0.0145365
0.0139095
0.0133875
0.0126385
0.0119897
0.0115813
0.0106753
0.0101623
0.00959178
0.00876197
0.0081279
0.00759219
0.00697983
0.00655496
0.00565234
0.00545013
0.0325289
0.0310967
0.0310926
0.0310501
0.0308129
0.0305666
0.0303883
0.030265
0.0301757
0.0301132
0.0300774
0.0300679
0.0300828
0.0301198
0.0301766
0.0302514
0.0303421
0.0304469
0.0305638
0.0306911
0.0308269
0.0309695
0.0311173
0.0312688
0.0314223
0.0315766
0.0317302
0.0318819
0.0320307
0.0321753
0.0323154
0.032449
0.0325785
0.032697
0.0328191
0.0329141
0.0330477
0.0330774
0.033233
0.033032
0.0331842
0.0334048
0.0334546
0.0334476
0.0334627
0.03349
0.0335112
0.0335239
0.0335318
0.0335369
0.0335399
0.0335413
0.0335419
0.0335427
0.0335446
0.0335486
0.0335556
0.0335664
0.033582
0.0336031
0.0336305
0.0336649
0.033707
0.0337572
0.0338161
0.0338841
0.0339616
0.0340488
0.0341459
0.034253
0.0343701
0.034497
0.0346338
0.0347801
0.0349356
0.0350999
0.0352725
0.035453
0.0356407
0.0358349
0.0360349
0.0362399
0.0364491
0.0366615
0.0368762
0.0370922
0.0373085
0.0375239
0.0377374
0.0379479
0.0381542
0.0383551
0.0385494
0.038736
0.0389136
0.0390812
0.0392373
0.039381
0.039511
0.0396261
0.0397252
0.0398071
0.0398706
0.0399143
0.0399369
0.0399366
0.0399115
0.039858
0.0397723
0.0396451
0.0394606
0.0393047
0.0389485
0.0395892
0.0386258
0.0393271
0.0395878
0.0395071
0.0390882
0.0386462
0.0383315
0.0379369
0.0376151
0.0374051
0.036895
0.0364561
0.0361052
0.0356742
0.0352348
0.0347958
0.0343491
0.0338942
0.0334328
0.0329656
0.0324935
0.0320184
0.0315419
0.0310651
0.030589
0.0301147
0.0296432
0.0291776
0.028731
0.0282696
0.027826
0.0272961
0.0268417
0.0264179
0.0259009
0.0254354
0.0249779
0.0245599
0.0240957
0.0235636
0.0231334
0.0228674
0.0224628
0.021915
0.0214029
0.0209844
0.0204926
0.0200759
0.0196394
0.0191357
0.018597
0.0181681
0.0177102
0.0172243
0.0167607
0.0162242
0.0156384
0.0151151
0.0145309
0.0141649
0.0133955
0.0127824
0.0122085
0.0116566
0.01099
0.0103748
0.00977272
0.00909714
0.0084394
0.00791323
0.00736529
0.00681811
0.00608714
0.0322488
0.031617
0.0313077
0.0311256
0.0308964
0.0306607
0.0304737
0.0303392
0.0302427
0.0301763
0.0301384
0.0301281
0.0301435
0.0301821
0.0302417
0.0303201
0.0304152
0.0305251
0.0306477
0.0307811
0.0309235
0.0310731
0.0312281
0.0313869
0.031548
0.0317099
0.0318711
0.0320305
0.0321869
0.032339
0.0324864
0.0326273
0.0327632
0.0328891
0.0330131
0.0331177
0.0332305
0.033292
0.0333878
0.0334191
0.0334617
0.0335824
0.0336612
0.0336902
0.0337126
0.0337393
0.0337625
0.0337785
0.0337891
0.0337961
0.0338007
0.0338033
0.033805
0.0338065
0.0338088
0.033813
0.0338198
0.0338303
0.0338451
0.0338653
0.0338915
0.0339244
0.0339648
0.0340131
0.0340699
0.0341356
0.0342107
0.0342952
0.0343896
0.0344938
0.0346079
0.0347319
0.0348655
0.0350087
0.035161
0.0353222
0.0354917
0.0356691
0.0358538
0.0360451
0.0362423
0.0364446
0.0366511
0.0368611
0.0370735
0.0372874
0.0375017
0.0377154
0.0379273
0.0381364
0.0383414
0.0385413
0.0387348
0.0389207
0.0390978
0.0392649
0.0394208
0.0395643
0.0396942
0.0398092
0.0399083
0.0399901
0.0400536
0.0400972
0.0401199
0.0401198
0.0400953
0.0400442
0.0399644
0.0398547
0.0397182
0.0395664
0.0394557
0.0393729
0.0392068
0.039337
0.0396418
0.0395484
0.0392223
0.0388061
0.0384357
0.0380813
0.0377081
0.0373951
0.0369659
0.0365184
0.0361603
0.0357476
0.035304
0.0348559
0.0344043
0.0339466
0.0334828
0.0330136
0.0325402
0.0320647
0.031589
0.0311143
0.0306416
0.030172
0.0297045
0.0292409
0.0287751
0.0283385
0.0278599
0.0273782
0.0268395
0.0263522
0.0259276
0.0254704
0.0250221
0.0245754
0.0241625
0.0236542
0.0232357
0.0229279
0.0225936
0.0220087
0.0214623
0.0210338
0.0205977
0.0201546
0.0197142
0.0192493
0.0187563
0.0182959
0.0178111
0.017343
0.0168777
0.0163554
0.0158167
0.0153041
0.0147428
0.0142971
0.0134907
0.0130279
0.0124906
0.0119034
0.0112883
0.0106799
0.0100772
0.00947611
0.00887531
0.00834349
0.00777644
0.00719496
0.00671788
0.0068293
0.00699807
0.00721782
0.0072054
0.00700272
0.0057791
0.0322604
0.0318519
0.0314582
0.0311741
0.0309331
0.03071
0.0305226
0.0303801
0.0302773
0.0302079
0.0301687
0.0301582
0.0301744
0.0302149
0.0302774
0.0303596
0.0304594
0.0305745
0.0307031
0.0308431
0.0309925
0.0311495
0.0313122
0.031479
0.0316483
0.0318185
0.0319883
0.0321561
0.032321
0.0324816
0.0326374
0.0327866
0.03293
0.0330641
0.0331927
0.0333064
0.0334179
0.0335041
0.0335998
0.033662
0.0337133
0.0338007
0.0338824
0.0339328
0.0339667
0.0339974
0.0340246
0.0340459
0.0340613
0.0340726
0.0340809
0.0340869
0.0340916
0.0340958
0.0341005
0.0341065
0.0341149
0.0341265
0.0341422
0.0341628
0.0341891
0.0342217
0.0342614
0.0343087
0.0343642
0.0344283
0.0345015
0.0345838
0.0346757
0.0347772
0.0348884
0.0350093
0.0351397
0.0352795
0.0354283
0.0355859
0.0357518
0.0359255
0.0361065
0.0362941
0.0364877
0.0366864
0.0368896
0.0370962
0.0373055
0.0375163
0.0377278
0.0379388
0.0381483
0.0383552
0.0385583
0.0387564
0.0389483
0.0391329
0.039309
0.0394752
0.0396305
0.0397735
0.0399031
0.0400181
0.0401173
0.0401994
0.0402633
0.0403077
0.0403315
0.0403334
0.0403121
0.0402669
0.0401974
0.0401056
0.0399947
0.0398785
0.0397514
0.0396865
0.0396068
0.0396152
0.0396953
0.0395882
0.0392868
0.0389207
0.0385704
0.0382288
0.0378713
0.0375092
0.0371148
0.0367005
0.0362991
0.0358805
0.0354398
0.0349901
0.0345357
0.0340759
0.0336102
0.0331392
0.0326646
0.0321884
0.0317121
0.031237
0.030764
0.0302936
0.0298246
0.0293578
0.0288891
0.0284348
0.0279646
0.0274865
0.0269594
0.0264971
0.0260628
0.025616
0.025171
0.0247247
0.0242983
0.0238106
0.0234029
0.0230568
0.0226847
0.022125
0.0216278
0.0211965
0.0207662
0.0203251
0.0198779
0.0194206
0.0189479
0.0184824
0.0180112
0.0175401
0.0170645
0.0165632
0.0160446
0.0155295
0.0149933
0.0144587
0.0138711
0.0133335
0.0127864
0.0122157
0.0116301
0.0110452
0.0104678
0.00989589
0.00933022
0.00878759
0.00825846
0.00777159
0.00738918
0.00729046
0.00734201
0.00731145
0.00708597
0.00681975
0.00643035
0.0322964
0.0319008
0.0315087
0.0311915
0.0309373
0.0307183
0.0305327
0.0303868
0.0302806
0.0302098
0.030171
0.0301618
0.0301802
0.0302239
0.0302905
0.0303777
0.0304832
0.0306048
0.0307404
0.0308879
0.0310453
0.0312106
0.031382
0.0315577
0.031736
0.0319154
0.0320944
0.0322716
0.0324458
0.0326157
0.0327805
0.0329389
0.0330908
0.0332339
0.0333698
0.0334939
0.0336116
0.0337142
0.0338117
0.0338919
0.033963
0.0340437
0.0341226
0.0341834
0.0342287
0.0342668
0.0343002
0.0343281
0.0343503
0.0343679
0.0343819
0.0343935
0.0344033
0.0344122
0.0344213
0.0344313
0.0344433
0.034458
0.0344764
0.0344993
0.0345273
0.0345613
0.0346019
0.0346497
0.0347052
0.0347689
0.0348412
0.0349223
0.0350125
0.0351121
0.0352209
0.0353391
0.0354665
0.035603
0.0357484
0.0359022
0.0360642
0.0362339
0.0364108
0.0365942
0.0367835
0.0369779
0.0371768
0.0373792
0.0375843
0.0377911
0.0379987
0.0382059
0.0384119
0.0386153
0.0388152
0.0390104
0.0391996
0.0393817
0.0395555
0.0397198
0.0398734
0.040015
0.0401434
0.0402574
0.040356
0.0404378
0.0405017
0.0405467
0.0405717
0.0405757
0.0405582
0.0405189
0.0404584
0.0403791
0.040283
0.0401814
0.0400711
0.0399976
0.0399203
0.0398599
0.0397992
0.0396529
0.0393969
0.0390818
0.0387529
0.0384164
0.038063
0.0376946
0.0373076
0.0369011
0.0364869
0.036063
0.0356246
0.0351755
0.0347196
0.0342577
0.0337902
0.033318
0.0328425
0.0323654
0.0318879
0.0314112
0.0309358
0.0304624
0.0299907
0.0295214
0.0290526
0.0285862
0.0281138
0.0276362