/*--------------------------------*- C++ -*----------------------------------*\
  =========                 |
  \\      /  F ield         | OpenFOAM: The Open Source CFD Toolbox
   \\    /   O peration     | Website:  https://openfoam.org
    \\  /    A nd           | Version:  10
     \\/     M anipulation  |
\*---------------------------------------------------------------------------*/
FoamFile
{
    format      ascii;
    class       surfaceScalarField;
    location    "30";
    object      phi;
}
// * * * * * * * * * * * * * * * * * * * * * * * * * * * * * * * * * * * * * //

dimensions      [0 3 -1 0 0 0 0];

internalField   nonuniform List<scalar> 
81299
(
0.0335542
0.0247279
-0.0389672
-0.0193149
0.0496886
-0.0290334
0.012899
-0.0517852
-0.0240399
0.0195661
0.056259
-0.00851918
0.0283958
-0.0716619
0.0735533
-0.0770121
-0.00506041
0.0570791
-0.00756567
0.0811433
-0.00449813
-0.0429407
0.0338387
0.065361
0.0429718
-0.0575168
-0.0552123
-0.0298267
0.00980963
0.0752293
0.002574
-0.0350181
-0.0227681
0.0354293
-0.00697652
-0.0258788
-0.0169028
0.0225054
-0.041247
-0.0011521
0.0522088
-0.0183131
0.00817831
-0.0311123
-0.0286033
-0.123482
0.0300589
0.108336
-0.0149128
-0.00850035
0.0179694
-0.0197522
0.0206031
0.0242378
-0.0199504
-0.0248905
0.00202204
0.0514481
-0.0328671
-0.0371833
-0.0324565
-0.0109616
0.00327571
0.0149713
-0.00728544
-0.0167229
-0.00121522
-0.00134733
-0.036988
-0.0772479
0.0260427
0.0812641
0.0349752
-0.0468621
0.0782687
0.0134433
-0.0656694
0.0734856
-0.00619867
0.0109818
-0.0591625
0.0328114
0.0458909
-0.0195398
-0.00903722
-0.0892388
0.0391135
0.0718709
-0.00742251
-0.0141734
0.0049033
0.0101674
-0.00101752
-0.0140532
0.0110596
0.00535912
-0.0115154
-0.00256148
0.00713928
0.0064818
0.00592424
0.00168167
0.0223214
-0.0222432
-0.00794301
0.00786483
-5.27884e-05
0.0241378
-0.00176361
0.00286597
-0.0140497
-0.0110594
-0.0187188
0.0200639
0.00152084
0.000617247
-0.0196493
0.000313288
0.00248356
-0.015916
-0.0178797
0.00930387
0.00135538
-0.0198072
-0.00119745
0.00418534
-0.018746
-0.01631
0.00261561
-0.0364737
-0.0360464
0.0230834
0.0494368
-0.0323545
0.0196535
-0.0237728
0.0219449
-0.0449338
-0.00936561
-0.0379746
0.0238732
-0.044261
0.0271497
0.0407383
-0.0236269
0.0229793
-0.0441569
0.0885409
0.0175846
-0.0528058
-0.0533197
-0.00470485
0.0268537
0.0663921
-0.0625359
0.0564052
0.00142589
0.0102993
-0.0552506
0.021104
-0.0410984
0.0629754
-0.0704042
0.0905822
-0.0454578
0.017851
0.0597909
0.057645
-0.0460797
0.036942
0.0417177
-0.03258
0.0288886
-0.0478187
0.051736
0.0237937
-0.0466411
0.0167962
0.0718818
0.000855703
-0.000417971
-0.00150925
0.00107152
-0.00101924
0.00187494
-0.00143721
-0.000465029
0.000334857
0.00170048
-0.00157031
0.000320621
-0.000785649
0.000655478
5.74727e-05
0.000485567
0.000391343
-0.000934383
0.000253754
-0.000196281
0.000739321
0.0350163
0.00176018
-0.00669537
-0.0300811
0.0259393
-0.0204607
0.0295377
-0.0252222
-0.0123331
-0.0111289
0.00492395
-0.00876968
-0.00475439
0.00860012
-0.0307973
0.0116245
0.01912
-0.0145845
-0.0112889
-0.0137009
0.0253254
0.00932642
-0.0252686
0.0317035
-0.0157613
-0.0297677
-0.0058397
-0.000198676
-0.00268048
-0.0268886
-0.000403647
-0.0250637
-0.0204743
-0.0238423
0.0296134
0.0147032
-0.00814731
0.0195532
-0.0318801
0.00398153
-0.0359712
0.06949
0.0412921
-0.0220774
-0.0887047
0.0142029
-0.121064
0.10815
-0.00128858
0.0950727
-0.0113798
0.00195098
-0.0649588
-0.0580564
0.0434402
-0.0779655
-0.00945488
0.0439801
0.0121496
0.0238212
-0.0143446
-0.0190462
0.00956956
-0.0210468
0.0426246
0.00224343
-0.00992263
-0.0178195
-0.00349435
-0.0207729
-0.0226146
7.41096e-05
0.117961
0.00174404
-0.0476397
0.0455337
0.0716609
0.000766577
-0.00308739
0.000481323
-0.00137201
0.00397808
-0.000351961
0.00252973
-0.00526516
-0.00392133
0.00371151
-0.00029521
0.000505029
-0.00184011
0.000172145
-0.00225336
0.0285923
0.0230432
-0.0315355
-0.0201
0.0223211
0.0142273
0.00168894
-0.0122629
-0.00365334
0.00298967
0.00521547
0.00602213
-0.00175727
0.000257931
0.00120854
0.000290798
0.00389254
0.000274423
-0.0146661
0.0373999
0.0227999
0.0135059
0.00676173
-0.00515092
-0.0151167
-0.0145092
-0.00206605
0.017455
-0.00957177
0.0162545
0.012564
0.024011
-0.0263763
-0.00454936
0.0309256
-0.01131
-0.0150663
-0.0256501
0.036526
-0.0221859
0.00502501
-0.0129526
-0.0177225
-0.000985853
-0.00402514
0.00501099
-0.00620714
-0.00701982
0.0122411
-0.0100413
0.00204379
-0.00210042
-0.0186894
-0.0156019
0.00133572
-0.0132236
-0.0128179
0.00220986
0.00662754
-0.00351163
-0.00311592
-0.00570557
0.0341058
0.00248786
0.00205876
0.02587
-0.0379153
0.00377216
0.0333525
0.000790615
-0.0280347
0.00280224
-0.0126828
0.0288133
0.0145899
-0.0264537
-0.0169495
0.0229546
0.028425
-0.0318265
0.0144359
0.0381321
0.0537324
0.0159847
-0.0071254
0.0380155
0.00726
-0.0381501
0.0414263
-0.0395643
-0.00898741
0.0054198
-0.00537527
0.0413818
-0.00050172
0.043937
0.0397104
-0.0302115
-0.0137101
0.00421119
0.0456068
0.00136353
-0.00433678
-0.000229315
0.000114066
0.00445203
-0.00243382
0.000449038
-0.002352
-0.00314189
5.24076e-05
0.000655669
-0.00317858
0.00243062
0.0011393
-0.000763836
-0.000399611
0.000229064
-0.000952743
0.0161975
-0.0166675
0.0300542
0.0530053
0.0441316
-0.00439388
0.000237726
0.00133385
0.00213994
-0.000328615
0.000380997
0.000185345
-0.000758211
0.000134386
0.000251516
0.00146333
0.000498187
-4.96866e-05
-0.00228861
-0.000522143
0.000262119
-0.000940352
0.000368523
-0.00957778
0.0107869
-2.49766e-05
-0.00118417
-0.0151421
0.00737292
-0.00180861
-0.0158865
0.001241
-0.000496578
-0.000176212
0.000912413
0.0179038
-0.000517467
-0.0296493
0.0218414
0.00127791
-0.026403
-0.00150176
0.0497462
-0.0445577
0.0197183
0.0499139
0.00260137
-0.0417283
0.00656713
-0.00782682
-0.000242076
-0.000918191
0.00744163
4.3692e-05
0.0229492
-0.0071161
0.000567191
-0.0261227
-0.0138778
0.0184694
0.0215311
-0.0039588
0.0296465
0.0260239
-0.0136639
-0.0420065
-0.015471
0.00496823
0.0401493
0.0352487
-0.0246958
-0.000802166
0.00196513
-0.000657938
0.000462879
-0.0010929
-0.00607429
0.00470661
0.00113836
-0.00500664
-0.000618603
0.0633583
-0.00254713
-0.0486616
0.0249229
-0.00702239
0.0265081
0.00810829
-0.00202646
-0.03259
-0.0171499
0.00365077
0.0400073
0.0226484
-0.03169
-0.0187287
-0.0165749
0.0233725
0.011931
0.00424709
0.00169474
-0.0246705
0.0157934
-0.0281212
0.0230677
-0.0433514
0.0183846
-0.0398746
0.00313446
0.000886996
0.00744815
-0.0114696
-0.00185393
0.00508292
-9.4522e-05
-0.00253978
0.000509631
-0.00530612
0.0498349
0.0156514
-0.0291854
-0.036301
0.0139304
0.0776222
-0.0299046
0.00101175
0.0428233
-0.0267479
0.0124947
-0.00422717
-5.27408e-05
0.00110006
0.00317985
-0.000226269
-0.00435286
0.00211918
-0.00234545
0.00206644
-0.0294065
0.0342028
-0.00114554
0.00200063
-0.0334336
-0.00453914
0.000667598
0.00123436
-0.00946256
-0.00290072
-0.00136847
-0.0119063
0.0382366
-0.0051901
-0.0477126
0.0182863
0.0238851
-0.00393478
0.0516302
0.0354461
0.0381185
-0.0222027
-0.0513619
0.0296938
0.0357824
-0.0300301
-0.0251928
0.0262953
0.0285913
-0.0201872
0.0331129
0.059026
0.0237224
-0.0110875
-0.00685917
0.0436824
0.0180327
-0.0182529
0.0220564
-0.0269294
0.0229057
-0.0205194
-0.00138828
0.00116702
-0.0203267
-0.00135973
-0.00314464
0.0413399
0.0134349
-0.027781
0.017566
0.010215
0.021829
0.0226471
-0.0181809
-0.00654908
0.00231679
0.0095914
-0.0478284
0.0227247
-0.00700976
0.0321135
-0.0433583
-0.000474836
-0.00399527
0.00551286
0.000128052
-0.0047985
-0.000842411
0.00453658
-0.000395731
0.039087
-0.0229233
0.0138905
0.00420767
-0.00640724
-0.003694
0.00589356
-0.00421296
0.00275154
0.00566909
5.52491e-06
0.00207786
-0.00629635
0.000834694
-0.0072364
-0.00895453
0.00428647
0.000974069
0.00594156
-0.00594163
0.00327578
0.00401005
0.0017389
0.000201063
-0.00193997
0.000441217
0.00129769
0.0187401
0.0140895
-0.00877551
-0.0240541
0.0188436
-0.0292889
-0.0223845
0.0144802
-0.0113189
0.00302396
0.0368899
-0.00819597
-0.0345337
-0.00569693
0.0332212
-0.0342229
0.00363511
0.0248908
-0.0131218
-0.029297
0.0168324
0.0343875
-0.0102934
-0.0409265
0.0269509
-0.0414165
0.0312979
-0.0158119
0.00286438
0.0398985
0.042498
-0.0239225
0.00588456
-0.0216843
-0.00405066
0.0198504
-0.0204445
-0.00388243
-0.0194041
-0.00713908
-0.00098076
0.00187534
-0.00415984
-0.00485458
0.0027157
-0.00182112
5.90542e-05
0.000620935
-0.000422058
0.00136031
-0.00130126
0.00198125
0.0019293
0.000139079
0.00301454
-0.00109977
0.00302907
-0.000960694
-0.0151398
-0.00994067
0.016106
0.00897447
0.00384646
0.0050583
-0.0240445
0.0185283
-0.0246225
-0.0101791
-0.0199943
0.00803018
0.0221432
0.0159112
-0.0327982
0.0395353
-0.0411215
0.00792033
0.0507291
-0.017528
-0.0329469
0.000633886
0.0324973
-0.000184341
0.00108646
0.0332645
-0.0327233
-0.00162763
0.00079007
0.0345437
-0.0342473
0.00123097
0.0345356
-0.0349765
0.00118571
0.0347937
-0.0347484
7.33057e-05
0.0345467
-0.0334343
0.00223978
0.033773
-0.0359395
0.00457714
0.0328595
-0.0351969
0.00453142
0.0340876
-0.0340419
0.00588598
0.0326153
-0.0339698
0.00583336
0.033682
-0.0336294
0.0070147
0.032411
-0.0335923
0.00696239
0.0333393
-0.033287
0.00798676
0.0322533
-0.0332776
0.00793642
0.0330529
-0.0330025
0.00882044
0.0321341
-0.0330181
0.00877333
0.0328166
-0.0327695
0.0107274
0.030853
-0.0328071
0.0100853
0.0332268
-0.0325847
0.010144
0.0325848
-0.0326435
0.0101056
0.0324773
-0.0324389
0.010666
0.031958
-0.0325184
0.0106332
0.0323679
-0.0323351
0.0111154
0.0319511
-0.0324333
0.0110883
0.0322959
-0.0322688
0.0115052
0.0319685
-0.0323854
0.0114844
0.0322604
-0.0322396
0.0118479
0.0320112
-0.0323747
0.0118338
0.0322618
-0.0322477
0.0121547
0.0320814
-0.0324022
0.0121481
0.0323013
-0.0322948
0.012436
0.0321824
-0.0324703
0.012438
0.0323821
-0.0323841
0.0126992
0.0323202
-0.0325814
0.00944064
0.0357768
-0.0325182
0.0109811
0.0312014
-0.0327419
0.020867
0.0269415
-0.0368274
-0.0125661
0.00362399
0.0298091
-0.0378529
0.029059
-0.0356556
-0.00218772
0.00310958
0.0347338
-0.00211827
6.77962e-07
-0.033538
-0.00336862
0.0355543
-0.0343039
0.0358168
-0.00462975
-0.0345556
0.00293961
-0.0035557
0.0364329
0.0363062
-0.00434508
0.00181002
0.0357995
0.0346512
-0.0358867
-0.00144127
0.000866699
0.0351102
0.0349125
-0.000445906
0.000420895
0.0345717
0.0352145
-0.000558906
0.00070502
0.0327134
0.033635
-0.000631256
0.000557465
0.0326891
0.0341614
-0.000481656
0.000409293
0.0324833
0.0337578
-0.000336684
0.000267521
0.0323224
0.0334119
-0.000198258
0.000131718
0.0322007
0.0331221
-0.000630563
-0.00119205
0.0326756
0.0323177
0.000655519
-0.000123509
0.0320528
0.0326902
0.000185996
-0.000246648
0.0320187
0.0325397
0.000307234
-0.000366469
0.0320103
0.0324285
0.000425814
-0.000484109
0.0320268
0.0323552
0.000542534
-0.00060012
0.0320688
0.0323189
0.000657847
-0.00071491
0.0321384
0.0323195
0.000772129
-0.000828788
0.0322391
0.0323586
0.000885488
-0.000713911
0.0321486
0.0324388
-0.00295031
0.0016307
0.0325211
0.0321125
0.0321962
0.00317431
0.000881807
-0.0367794
-0.0343394
0.0375143
-0.00173757
0.00148648
-0.0347254
-0.0351031
-0.0011417
0.00289438
-0.035187
-0.0344036
-0.00282793
0.00156426
-0.0339332
-0.0358731
-0.000740339
0.000648989
-0.0338785
-0.0332179
-0.000558494
0.000473466
-0.0335073
-0.0335389
-0.000389701
0.000310512
-0.0331984
-0.0332032
-0.000232544
0.000158045
-0.0329436
-0.0329246
-8.4623e-05
1.45835e-05
-0.032737
-0.032696
5.65264e-05
-0.000124479
-0.0325755
-0.0325136
0.00019047
-0.000255608
-0.0324532
-0.0323729
0.000320089
-0.000383692
-0.0323697
-0.0322707
0.000446474
-0.00050871
-0.0323232
-0.0322061
0.000570191
-0.000631419
-0.0323135
-0.0321781
0.000691955
-0.000752488
-0.0323417
-0.0321871
0.00081236
-0.000872273
-0.0324104
-0.0322349
0.000930846
-0.000987369
-0.0325249
-0.0323255
0.00104139
0.000282526
-0.0340658
-0.0324641
0.00278618
-0.00790442
-0.0327347
-0.0337587
-0.00445287
-0.0367306
0.0376277
-0.0377868
-0.00475277
0.0380867
0.00542506
-0.00656998
-0.0366419
-0.0359352
-0.0382146
-0.00797196
0.0414338
-0.0372958
-0.00748878
-0.0105267
-0.0388617
-0.00326609
0.00196127
0.0311139
-0.00464184
0.0304347
-0.00127912
-0.03466
0.00274123
-0.00406886
-0.0329763
0.00226426
-0.0330611
-0.00446152
-0.034163
-0.00636064
0.00518373
-0.035465
-0.0361006
-0.00755586
-0.0476329
-0.00411091
0.0414505
-0.00762194
-0.0438313
-0.00333079
0.0374931
-0.00181179
0.00235521
0.0375433
0.0362912
-0.00237049
0.00180475
0.0369986
0.0376125
-0.00182385
0.000409524
0.0361481
0.0362871
-0.000165097
0.000347175
0.0356174
0.0348956
-0.000462123
0.00089198
0.0346804
0.0347975
-0.000815802
0.00101737
0.0343702
0.0352907
-0.00139277
0.000603874
0.0335023
0.0332596
-0.00053011
0.000460915
0.0327582
0.0342351
-0.000394714
0.000328634
0.0325494
0.033824
-0.000264525
0.000200638
0.0323863
0.033476
-0.000138518
7.67702e-05
0.0322624
0.0331842
0.000213847
-4.45831e-05
0.0325063
0.0326083
0.000103403
-0.000161581
0.032111
0.0327491
0.000219549
-0.000277426
0.0320765
0.0325977
0.000334523
-0.00039141
0.0320672
0.0324856
0.000447727
-0.0005039
0.0320829
0.0324116
0.000559665
-0.000615311
0.0321244
0.0323746
0.000670669
-0.000725928
0.0321937
0.0323749
0.000781007
-0.000835952
0.032294
0.0324136
0.000890533
-0.00117179
0.0324298
0.0324934
0.00106592
-0.00132066
0.0327758
0.0320067
0.0328368
-0.00323649
0.0319471
-0.0342124
-0.00442828
0.0373616
-0.0341086
0.036139
-0.0012398
-0.00662766
-0.0246787
-0.00220865
0.0012474
-0.0358182
-0.0342837
-0.00123279
0.00126363
-0.0347563
-0.0350885
-0.00201588
0.00181772
-0.0349888
-0.0351559
-0.000370075
0.000254867
-0.033818
-0.0344254
-0.000865808
0.000762801
-0.0337755
-0.0338289
-0.000667584
0.000575313
-0.033415
-0.0334437
-0.000488027
0.000402775
-0.0331132
-0.0331159
-0.000321685
0.000242073
-0.032864
-0.0328435
-0.000166104
9.13709e-05
-0.0326623
-0.0326201
-1.93416e-05
-5.24592e-05
-0.0325037
-0.0324415
0.000121691
-0.000190324
-0.0323846
-0.0323037
0.000256809
-0.000323172
-0.0323033
-0.0322042
0.000387723
-0.000452377
-0.0322585
-0.0321415
0.000515485
-0.000578877
-0.0322501
-0.032115
0.000640935
-0.000703426
-0.0322792
-0.0321251
0.00076477
-0.000826854
-0.0323483
-0.0321736
0.000888832
-0.000952978
-0.0324607
-0.0322635
0.00101616
-0.00185799
-0.033224
-0.032401
0.00286103
-0.00177429
-0.0338214
-0.0327556
0.00276424
-0.0340652
-0.00291146
-0.03367
-0.035213
0.00326799
-0.00360808
-0.0326362
0.00250493
-0.032298
-0.00433621
-0.0334349
-0.004521
0.00426104
-0.0352051
-0.00428985
-0.0363317
-0.00273932
0.00250724
-0.0338331
-0.033736
0.0347338
-0.00390922
-0.00247316
-0.0340022
-0.00974478
-0.0455101
-0.039231
-0.00711946
0.000197753
0.0327048
-0.039198
-0.00758884
-0.0326366
-0.000112539
-0.00452172
0.00515514
0.0418646
-0.0462364
0.00100402
0.0455056
-0.0439631
0.00637784
-0.00476078
0.0416145
0.00865184
0.0414466
-0.00421466
0.00304216
0.0386656
0.0408389
-0.00122939
0.000995649
0.037777
0.038104
-0.00137337
0.00207199
0.0363
0.0372347
-0.000669617
0.00179643
0.0350213
0.0376895
9.71518e-05
0.0011471
0.0343732
0.0367892
7.58425e-05
0.000744167
0.0338603
0.0360205
-0.000675608
0.00161011
0.0334357
0.0353592
-8.09849e-05
0.000490111
0.0330932
0.0347888
-0.00042844
0.000365439
0.0328213
0.0342968
-0.000307614
0.000247604
0.0326094
0.0338818
-0.000191368
0.000132931
0.0324447
0.0335323
-7.75694e-05
2.04061e-05
0.0323196
0.0332396
0.000369198
-9.08793e-05
0.032228
0.0329979
0.000145252
-0.000200752
0.0321665
0.0328034
0.000254463
-0.000309372
0.0321314
0.0326514
0.000362897
-0.000417329
0.0321217
0.0325391
0.000470617
-0.000524638
0.032137
0.0324649
0.000577754
-0.000631469
0.0321781
0.0324277
0.000684481
-0.00073797
0.0322472
0.0324279
0.000790934
-0.000844332
0.0323474
0.0324666
0.000897528
-0.000951008
0.0324833
0.0325466
0.00137959
-0.00150517
0.0329014
0.0324353
0.0011807
-0.00231326
0.0322465
0.0325123
0.00305597
-0.00271881
0.03161
0.0311774
0.0306199
0.031478
-0.0338455
-0.00426008
-0.00239839
-0.00354005
-0.00207552
0.00155583
-0.0352985
-0.0338543
-0.0017475
0.00199035
-0.0349991
-0.0352802
-0.00151884
0.00107037
-0.0345404
-0.0346844
-0.000807814
0.00105996
-0.0340701
-0.0341629
-0.000945956
0.000833796
-0.0336633
-0.0337149
-0.00072982
0.000629605
-0.0333148
-0.0333397
-0.000535477
0.000443699
-0.0330214
-0.0330218
-0.000357013
0.000272001
-0.032779
-0.0327568
-0.000191372
0.000111706
-0.0325826
-0.0325394
-3.56649e-05
-3.97581e-05
-0.0324283
-0.0323655
0.000111857
-0.000183733
-0.0323127
-0.0322316
0.000252851
-0.000322166
-0.032234
-0.032135
0.000389054
-0.000456402
-0.0321911
-0.0320746
0.000521606
-0.000587515
-0.0321842
-0.0320498
0.00065152
-0.000716425
-0.0322143
-0.0320611
0.000779594
-0.000843743
-0.0322841
-0.0321104
0.000905917
-0.000968262
-0.0323984
-0.0322013
0.00102939
-0.00168917
-0.0325642
-0.0323398
0.00173356
-0.00219558
-0.0333594
-0.0327112
-0.0333584
-0.0352882
-0.00552116
-0.0379667
0.00331084
-0.00335481
-0.0325923
0.00356475
-0.0325519
-0.0347167
0.0336451
-0.00283761
-0.0344719
-0.00271799
-0.00288552
-0.0339041
-0.0523077
-0.00367346
0.00470657
0.00218172
0.025609
-0.0302574
0.0201556
0.0148084
0.00381141
-0.0467704
-0.0103167
-0.040634
-0.0414841
-0.0143427
-0.000294642
0.00046289
0.0414462
-0.0386021
-0.00406341
0.0423709
0.0169801
-0.0469303
-0.0392792
-0.0089436
-0.00557565
-0.0392247
-0.000641324
0.00183184
0.0406741
0.0412682
-0.00287444
0.00228048
0.0392596
0.0397963
-0.00105272
0.00197524
0.0368545
0.0393317
-0.000442162
0.000870733
0.0358714
0.0387678
-0.000829176
0.000769622
0.0350808
0.037731
-0.000725004
0.00066186
0.0344363
0.0368338
-0.000618025
0.000566093
0.0339123
0.0360643
-0.000523455
0.000469097
0.03349
0.0354019
-0.000425127
0.000369198
0.0331491
0.0348327
-0.000323307
0.000267904
0.0328767
0.0343427
-0.000220999
0.000166446
0.032664
0.0339288
-0.000119206
6.53124e-05
0.0324986
0.0335795
-1.75398e-05
-3.5976e-05
0.0323731
0.0332874
8.46259e-05
-0.000137693
0.0322811
0.0330466
0.000186426
-0.000239237
0.0322193
0.0328522
0.000288495
-0.000341025
0.032184
0.0327007
0.000390664
-0.000442992
0.032174
0.0325887
0.000492966
-0.000545119
0.0321891
0.0325148
0.000595377
-0.000647393
0.0322301
0.032478
0.000697909
-0.00074984
0.0322991
0.0324784
0.000800619
-0.000852583
0.0323994
0.0325174
0.000903768
-0.000955952
0.0325355
0.0325978
0.00124444
-0.00106053
0.0327175
0.0327238
0.00145643
-0.00155539
0.0323455
0.0329082
0.00273762
-0.00220169
0.031074
0.0323597
0.0305999
0.0318413
-0.0316585
-0.000295433
0.00139957
0.03187
-0.0330961
-0.00303401
-0.0021868
-0.00299109
-0.00287542
0.00208138
-0.0345044
-0.033165
-0.00190146
0.00173354
-0.0348312
-0.0351003
-0.001576
0.00142406
-0.0343884
-0.0345268
-0.00128625
0.00115717
-0.0339411
-0.0340251
-0.00103703
0.000919828
-0.0335461
-0.0335947
-0.000810792
0.00070435
-0.0332083
-0.0332307
-0.000605452
0.000508276
-0.0329242
-0.0329229
-0.000417622
0.000327943
-0.0326893
-0.0326661
-0.000243973
0.000160313
-0.032499
-0.0324555
-8.16767e-05
2.73974e-06
-0.0323494
-0.0322869
7.17679e-05
-0.000146911
-0.0322376
-0.0321571
0.000218037
-0.00029021
-0.0321618
-0.0320639
0.000358786
-0.000428746
-0.0321212
-0.032006
0.000495439
-0.000563798
-0.0321158
-0.0319831
0.00062917
-0.000696459
-0.032147
-0.0319957
0.000761041
-0.000827868
-0.0322173
-0.0320458
0.000892355
-0.000959456
-0.0323313
-0.0321368
0.00102447
-0.00109244
-0.0324962
-0.0322748
0.00133647
-0.00197506
-0.0327208
-0.0324672
0.00194951
-0.00231226
-0.0334703
-0.0333839
0.0405487
0.0305339
-0.0541025
-0.00781288
0.0442981
-0.0388411
-0.0115866
0.00486257
-0.0454151
0.00228142
-0.0341687
-0.00258459
-0.034033
0.0037286
-0.00436391
-0.0345697
-0.0344451
0.00375754
-0.00441592
-0.0373084
-0.0369381
-0.0404943
-0.00392246
0.0424203
-0.0196992
0.00358591
-0.0528259
0.0035165
-0.0451201
0.00487972
-0.00519124
0.0427318
0.0035808
0.0455971
-0.00204285
0.00246999
-0.0329791
-0.00102895
-0.0336062
-0.0523073
-0.0143432
0.0430878
-0.0636338
0.000846787
-0.00439869
0.0422953
-0.00525522
-0.0383854
-0.00255254
0.00231205
-0.0339282
-0.0345564
0.0347785
-0.00280677
-0.00238758
-0.0347213
-0.0562113
-0.00383663
0.00286744
-0.0533113
-0.00895613
-0.0403532
-0.00170919
0.000950925
0.0422045
0.0442425
-0.00130123
0.00164932
0.040326
0.0409179
-0.000129528
0.00128642
0.0381027
0.0413161
-0.000636703
0.000603356
0.0368879
0.0399815
-0.000601433
0.00055794
0.0359149
0.0387697
-0.000554995
0.000511508
0.0351243
0.037734
-0.000501686
0.00045584
0.0344822
0.0368437
-0.000439984
0.000392635
0.0339596
0.0360802
-0.000373116
0.000325254
0.0335379
0.0354214
-0.000299929
0.000250008
0.033199
0.0348581
-0.000220187
0.000169641
0.0329272
0.0343725
-0.000136508
8.54565e-05
0.032715
0.0339619
-4.94544e-05
-1.91821e-06
0.03255
0.0336155
4.04504e-05
-9.17435e-05
0.0324244
0.0333259
0.000132272
-0.000183688
0.0323325
0.0330871
0.000225957
-0.0002772
0.0322706
0.0328944
0.00032098
-0.000372168
0.0322352
0.0327445
0.000417187
-0.000468259
0.0322251
0.0326338
0.000514306
-0.000565267
0.0322401
0.0325609
0.000612172
-0.000663036
0.032281
0.0325249
0.000710668
-0.000761472
0.0323499
0.032526
0.000809747
-0.000860571
0.0324502
0.0325657
0.000909506
-0.000960542
0.0325865
0.0326467
0.00101048
-0.00106156
0.0327685
0.0327737
0.0011113
-0.00140502
0.0326392
0.032958
0.00196787
-0.00311021
0.0322164
0.0329225
0.00657037
0.0391942
0.0340601
0.0325717
-0.0322124
-0.000654671
-0.0313698
0.0408228
0.00535537
0.00260146
0.0326148
-0.0336805
-0.00196828
-0.00178442
0.0345111
-0.0348729
-0.00247585
-0.00216049
-0.00281234
-0.00279245
0.0022344
-0.0339464
-0.0334875
-0.00204145
0.00186128
-0.034651
-0.0349073
-0.00169265
0.00153063
-0.0342264
-0.0343582
-0.00138478
0.00124367
-0.0337999
-0.0338792
-0.00111563
0.00098936
-0.0334198
-0.0334667
-0.000874581
0.000760891
-0.0330946
-0.0331159
-0.000657509
0.000554193
-0.0328209
-0.0328195
-0.000459996
0.000365014
-0.0325943
-0.0325719
-0.000278209
0.000189898
-0.0324107
-0.0323687
-0.000108988
2.60004e-05
-0.0322664
-0.032206
5.01914e-05
-0.000128967
-0.0321588
-0.0320809
0.000201482
-0.000277019
-0.0320863
-0.0319914
0.000346747
-0.000419871
-0.0320481
-0.0319363
0.000487555
-0.000558956
-0.0320444
-0.0319154
0.000625227
-0.000695491
-0.0320767
-0.0319294
0.000760864
-0.000830416
-0.0321478
-0.0319805
0.000895188
-0.000964362
-0.0322621
-0.0320721
0.00102925
-0.00109886
-0.0324266
-0.0322099
0.0011638
-0.00123383
-0.0326508
-0.0324023
0.00195832
-0.00183048
-0.0335982
-0.0326594
-0.0335514
-0.00205131
-0.0328818
0.00303282
-0.0033102
-0.0342924
-0.0334636
0.00403196
-0.00498375
-0.0363566
-0.0362163
-0.0229294
-0.0409645
-0.000533193
-0.00261666
0.0458816
0.000610319
0.0444536
-0.0396579
0.0402275
-0.052475
-0.000736868
0.0030974
0.0368337
0.00292455
0.0371614
-0.0381374
-0.00761212
-0.00690082
-0.0364684
-0.0350548
0.0351656
-0.00291758
-0.034749
-0.00269336
-0.0282577
-0.0369097
0.0172924
-0.0595451
-0.00565765
0.0453362
-0.0527674
-0.0148872
-0.0343817
0.0174795
-0.0279848
0.044887
0.00157588
-0.00205591
-0.0331261
0.00206295
-0.0334661
-0.00119849
0.000989586
0.0424134
0.0436543
-0.000298983
2.15487e-05
0.0406034
0.0416085
-0.000128923
0.000139112
0.0380925
0.0412088
-0.000231009
0.00021748
0.0369014
0.0398896
-0.000278986
0.000250754
0.0359431
0.0387082
-0.000294395
0.000259101
0.0351596
0.0376903
-0.000289537
0.000249332
0.0345224
0.0368132
-0.000268228
0.000223138
0.0340047
0.0360613
-0.00023149
0.000183752
0.0335856
0.035413
-0.000183214
0.000133154
0.0332491
0.0348586
-0.000124352
7.28987e-05
0.0329787
0.0343813
-5.76484e-05
5.41537e-06
0.0327672
0.0339771
1.58038e-05
-6.81675e-05
0.0326024
0.0336367
9.40488e-05
-0.000146606
0.0324769
0.0333518
0.000176632
-0.00022905
0.0323849
0.0331171
0.000262579
-0.000314677
0.0323227
0.032928
0.000351112
-0.000402911
0.032287
0.0327809
0.000441796
-0.000493239
0.0322765
0.0326726
0.000534137
-0.000585231
0.0322912
0.0326018
0.0006278
-0.00067858
0.0323318
0.0325675
0.000722541
-0.000773066
0.0324004
0.03257
0.000818207
-0.000868563
0.0325005
0.0326108
0.000914766
-0.000965166
0.0326369
0.0326929
0.00101262
-0.00106301
0.0328189
0.0328211
0.00111096
-0.00152393
0.0330521
0.0330059
0.0018518
-0.00285935
0.0332239
0.0332504
0.0342981
0.0331334
-0.0331639
-0.000624092
-0.0345905
0.0374418
0.00250404
0.00114434
0.0334469
-0.0338892
-0.00152598
-0.00150143
0.0345074
-0.0350149
-0.00196829
-0.00154236
-0.00266163
-0.0021977
0.00238473
-0.0341334
-0.0336222
-0.00217158
0.00197656
-0.034456
-0.0346942
-0.00179927
0.00162728
-0.0340544
-0.0341809
-0.00147534
0.00132416
-0.0336488
-0.0337273
-0.00119159
0.00105735
-0.0332856
-0.0333341
-0.000939566
0.000818734
-0.0329738
-0.0329981
-0.00071294
0.0006032
-0.0327112
-0.0327137
-0.00050724
0.000406499
-0.0324936
-0.032476
-0.000318494
0.000224988
-0.0323172
-0.0322807
-0.000143366
5.56154e-05
-0.0321786
-0.0321243
2.09635e-05
-0.000104179
-0.0320756
-0.0320043
0.000176794
-0.000256511
-0.0320065
-0.0319188
0.000326122
-0.000403245
-0.0319709
-0.0318667
0.000470675
-0.000545976
-0.0319691
-0.031848
0.000611933
-0.000686087
-0.0320026
-0.0318635
0.000751206
-0.000824848
-0.0320741
-0.0319153
0.000889756
-0.000963531
-0.0321883
-0.0320072
0.00102878
-0.00110315
-0.0323523
-0.0321447
0.00116906
-0.0012438
-0.0325761
-0.0323363
0.00130995
-0.00203779
-0.0328704
-0.0325933
0.00193477
-0.00215032
-0.0337127
-0.0336545
-0.0623806
0.00606892
0.00295628
0.0374101
-0.0377738
-0.00726439
-0.00110133
-0.0408925
0.00233122
-0.0344607
-0.00261952
-0.0345404
-0.0513185
0.00878846
-0.00830502
0.0396658
0.00630163
-0.00747123
-0.0352988
-0.00178457
-0.0331531
-0.00233359
-0.0329146
-0.00300156
-0.0336244
-0.00475277
-0.0344651
-0.0348077
-0.0582172
-0.0774718
-0.0218185
0.0206404
-0.0004057
-0.0003793
0.0452386
0.000143185
0.0453328
-0.00202725
0.00179745
-0.0332363
-0.00190323
-0.0332502
0.036833
-0.0356597
0.00133083
0.0380904
0.00169887
-0.0350269
-0.0102181
0.034648
-0.00770427
0.0158645
-0.0449506
-0.0022562
0.00238078
-0.0345853
-0.0350517
0.0350948
-0.00266271
-0.0346118
-0.00269605
0.00102517
-0.000759096
0.0421473
0.0443002
0.000591641
-0.000927224
0.040939
0.041441
-0.000260241
-0.000306998
0.0386597
0.0400213
0.000140232
-0.000156079
0.0369172
0.0397228
2.04331e-05
-5.24469e-05
0.0359752
0.0385726
-5.7105e-05
1.22743e-05
0.0352044
0.0375808
-9.89621e-05
4.64773e-05
0.0345749
0.0367265
-0.000114208
5.66521e-05
0.0340623
0.0359935
-0.000106942
4.62261e-05
0.0336463
0.0353627
-8.18771e-05
1.95586e-05
0.0333114
0.0348229
-4.18254e-05
-2.12081e-05
0.0330417
0.034359
1.01488e-05
-7.25755e-05
0.0328297
0.0339661
7.10897e-05
-0.000132738
0.032664
0.0336352
0.000139759
-0.00020021
0.0325374
0.0333588
0.000214389
-0.000273498
0.032444
0.0331313
0.00029377
-0.000351439
0.0323803
0.0329482
0.000376823
-0.000433132
0.0323433
0.0328063
0.000462833
-0.000517851
0.0323315
0.0327023
0.000551131
-0.000604971
0.032345
0.0326351
0.000641219
-0.000694024
0.0323846
0.0326037
0.000732731
-0.000784662
0.0324524
0.0326087
0.00082542
-0.000876654
0.0325518
0.0326516
0.00091917
-0.000970015
0.0326878
0.0327354
0.00101431
-0.00106479
0.0328694
0.0328654
0.00111014
-0.00116105
0.0331031
0.0330513
0.00120735
-0.00137854
0.0333951
0.0332967
0.00109124
0.000374724
0.0353677
0.0340108
-0.00244176
0.00269121
0.0371606
0.0350944
0.0345335
-0.0340385
-0.00111908
1.80799e-05
0.0340205
-0.0339988
-0.00154763
-0.00151945
0.0339724
-0.0343413
-0.00159935
-0.00156879
0.034734
-0.0351393
-0.00251226
-0.00226895
-0.00273785
-0.00256392
0.00251397
-0.0340835
-0.0343887
-0.00228465
0.00207798
-0.0342494
-0.0344648
-0.00189452
0.00171058
-0.0338705
-0.0339975
-0.00155544
0.00139292
-0.0334863
-0.0335721
-0.0012584
0.00111383
-0.033141
-0.0331996
-0.000995234
0.000865295
-0.0328439
-0.0328795
-0.000759555
0.000641567
-0.0325932
-0.032608
-0.000546289
0.000437965
-0.0323853
-0.0323807
-0.00035115
0.000250587
-0.0322166
-0.0321938
-0.000170565
7.61815e-05
-0.0320842
-0.0320443
-1.55578e-06
-8.79791e-05
-0.031986
-0.0319297
0.000158414
-0.000244231
-0.0319207
-0.0318484
0.0003115
-0.000394588
-0.0318879
-0.0317994
0.000459583
-0.000540787
-0.0318879
-0.031783
0.000604275
-0.000684327
-0.0319225
-0.0318
0.00074696
-0.000826477
-0.0319946
-0.0318527
0.000888813
-0.00096838
-0.0321088
-0.0319448
0.00103099
-0.00111114
-0.0322721
-0.0320821
0.00117443
-0.00125559
-0.0324949
-0.0322731
0.00131962
-0.00140161
-0.0327884
-0.0325292
0.00174612
-0.00207347
-0.0333853
-0.0333099
-0.0342331
0.0347931
-0.0707307
0.0450046
-0.00225047
-0.0328059
-0.0025841
-0.032581
-0.00348309
-0.0327254
-0.0047361
-0.0332121
-0.00577099
-0.0337728
-0.00772713
-0.0333426
0.0033303
0.0374513
-0.000594673
0.0385895
-0.00302076
0.0386913
-0.0329988
-0.00975525
0.00386844
-0.00612216
-0.0315191
0.00333949
-0.0326832
-0.0389907
-0.00916615
-0.00292343
0.0345506
0.0316324
-0.0215351
0.0294901
-0.00556194
-0.00287764
0.00236377
-0.0340714
-0.00231579
-0.0351737
-0.0352501
0.0354343
-0.00284691
-0.0352383
-0.00270781
0.00163729
-0.00174203
0.0453433
0.0463754
0.00150253
-0.00141639
0.0420612
0.0440607
0.00110965
-0.000617943
0.0404473
0.0411343
0.000305271
-0.000734711
0.0390891
0.0397086
0.000449837
-0.000509675
0.0369771
0.0394379
0.000264495
-0.000342658
0.0360533
0.0383274
0.000135225
-0.000225549
0.0352948
0.0373733
5.18892e-05
-0.000148926
0.0346719
0.0365529
4.37593e-06
-0.000104174
0.0341621
0.035849
-1.4093e-05
-8.62642e-05
0.0337467
0.0352445
-8.47592e-06
-8.99786e-05
0.0334099
0.0347282
1.66312e-05
-0.000111831
0.0331369
0.0342857
5.67851e-05
-0.000147777
0.0329207
0.033911
0.000108902
-0.00019531
0.0327504
0.0335964
0.000170582
-0.000252234
0.032619
0.0333341
0.000239718
-0.000316733
0.032521
0.0331188
0.000314681
-0.000387276
0.0324529
0.0329462
0.000394106
-0.000462678
0.0324118
0.0328131
0.000477036
-0.00054199
0.0323965
0.0327167
0.000562645
-0.000624408
0.0324068
0.0326557
0.000650304
-0.000709311
0.0324436
0.0326296
0.000739551
-0.000796229
0.032509
0.0326389
0.000830069
-0.000884832
0.0326065
0.0326854
0.00092169
-0.000975036
0.0327411
0.0327723
0.00101463
-0.00106675
0.0329215
0.032905
0.00110817
-0.0011595
0.0331544
0.0330927
0.00120192
-0.00125008
0.0334433
0.0333391
0.000875447
0.000425315
0.034067
0.0336362
-0.000239237
0.00242053
0.0349793
0.0352805
0.0375104
-0.0362164
0.00203634
-0.00311609
0.00378352
0.036843
0.0367557