/*--------------------------------*- C++ -*----------------------------------*\
  =========                 |
  \\      /  F ield         | OpenFOAM: The Open Source CFD Toolbox
   \\    /   O peration     | Website:  https://openfoam.org
    \\  /    A nd           | Version:  10
     \\/     M anipulation  |
\*---------------------------------------------------------------------------*/
FoamFile
{
    format      ascii;
    class       surfaceScalarField;
    location    "30";
    object      phi;
}
// * * * * * * * * * * * * * * * * * * * * * * * * * * * * * * * * * * * * * //

dimensions      [0 3 -1 0 0 0 0];

internalField   nonuniform List<scalar> 
17221
(
0.0866221
-0.0279913
-0.07136
0.0127293
0.000185376
0.0794358
0.00700087
0.0675253
-0.0212871
-0.0742294
0.0843297
-0.0106192
-0.0762595
0.00254898
0.0132045
0.0757506
-0.00462541
0.0718623
0.0164227
-0.0750806
0.00134183
-0.00509117
0.0692941
-0.0655448
-0.00660441
-0.0675937
0.0755399
-0.000474921
-0.0429524
0.0105872
0.0328401
-0.0427253
0.00632863
0.0359217
0.000349175
0.0463235
-0.0539933
0.00732059
-0.052937
0.0532862
0.0275351
0.0602354
-0.0612506
-0.0265199
0.0549804
0.0242837
-0.0517289
0.0624
0.0447376
-0.042464
-0.0646736
0.0386039
0.000852088
0.022944
0.0201109
0.0576477
-0.0695829
-0.00817572
0.0101777
0.0496479
-0.0397148
-0.0441643
-0.00466223
0.0590043
-0.0280357
-0.0621216
0.0722086
0.0179488
-0.0670497
0.00332037
0.0356936
0.0431225
0.0478858
-0.0524808
-0.0385275
0.103114
-0.066861
0.00686935
-0.031673
0.010788
0.0884103
-0.117563
-0.0603719
0.0905895
0.0873452
-0.0474177
0.028401
-0.0985461
0.106738
-0.101145
-0.0530109
0.0945645
-0.0481986
-0.0263967
-0.0458996
0.0123489
0.0599474
-0.0125748
-0.0503599
0.036538
-0.0566989
0.00217439
0.0419498
-0.109498
-0.00459635
0.0767703
0.0373238
0.0189366
-0.102773
-0.0256619
0.117489
0.0183962
-0.116949
0.0088382
0.104054
0.0664696
-1.0528e-05
-0.0191203
-0.0473388
0.0116965
0.0672319
-0.0124588
-0.0417517
0.0410986
0.063872
-0.0632189
0.102471
-0.0792998
-0.02495
0.00177919
0.071336
-0.0106172
0.0349092
0.0938341
-0.0377067
0.0238629
0.0356017
-0.00408726
-0.0315144
0.0212132
-0.00486797
0.0192565
0.0882802
-0.0423727
-0.0459075
-0.0584002
0.0458979
0.100782
0.00624805
0.00214988
-0.0128854
0.00448744
0.00252838
-0.00760207
0.0113217
-0.00305948
0.00773774
0.0411696
0.0672077
-0.0620396
-0.0463376
0.0534493
-0.0719089
0.0596291
-0.0297459
0.0453114
0.0378839
-0.0180813
0.0555431
-0.0827768
0.0151691
0.068134
-0.000526352
-0.0733062
-0.00823993
-0.00123072
-0.00870873
-0.065293
0.000695609
-0.0509613
0.00033977
0.0549547
-0.0043332
0.0133785
-0.0523383
-0.0120015
-0.0471124
0.0533511
0.00336393
-0.00960265
0.00941098
-0.0561836
-0.085172
0.0155896
0.0789678
-0.00938549
0.013537
-0.0836863
-0.0150227
0.0840604
0.00468659
-0.0732937
-0.0154533
0.0126704
0.084927
0.00778888
-0.0578433
0.00215175
0.0479026
0.062852
0.00114398
-0.0562071
0.069439
-0.0116782
-0.10058
0.0037066
0.0345961
0.0622778
-0.00474712
-0.106599
0.0107652
-0.00341715
0.101784
-0.0340303
-0.0529051
0.0298523
0.0570831
-0.0602368
0.0571029
-0.0308964
0.0277691
-0.0588705
-0.0218037
-0.0562943
0.0210219
0.0630415
0.0138641
0.0590965
-0.0132652
-0.0596954
0.0579524
-0.061357
0.0172688
-0.0142792
0.0603331
0.0130427
-0.0124296
0.0585729
-0.0604226
0.0269824
-0.0856952
-0.0642054
-0.0160228
0.0157813
0.0644469
-0.0679416
0.0272309
-0.0234946
-0.0271117
-0.0588781
0.024936
0.0610538
-0.0604471
0.0610878
-0.0277524
0.090322
-0.0756256
0.012286
0.0934849
0.00760236
0.0759043
-0.00522852
0.0587499
-0.0541834
0.000662007
0.0541367
-0.00896262
-0.0504026
-0.0424882
0.0543414
-0.0575817
0.0457285
0.053812
-0.0415482
-0.054752
0.0824367
-0.0513928
-0.0397526
0.0709321
0.00326468
-0.000631548
-0.00183667
-0.0628248
0.0235056
0.0774799
-0.0285799
-0.0724056
0.0187105
0.0754508
-0.0706557
-0.047624
-0.0188059
0.0537894
0.0126405
-0.00766889
0.0405696
-0.0805248
0.058252
0.00328528
-0.0692062
0.042965
-0.00351892
-0.0110892
-0.0613809
0.0698444
0.00262565
-0.0373374
0.0800376
0.0676313
0.00540485
-0.00775208
-0.0652841
0.00763255
0.069543
-0.00954415
0.0595628
0.0286911
-0.0332734
0.0601117
0.0358692
-0.0364182
0.0621464
0.0381843
-0.040219
0.0613646
0.0401989
-0.0394171
0.0628889
0.0362065
-0.0377307
0.0625304
0.0377156
-0.0373571
0.0626103
0.0351854
-0.0352653
0.0609339
0.0362794
-0.034603
0.0609337
0.0370344
-0.0370342
0.0583279
0.0381929
-0.035587
0.0584598
0.0366162
-0.0367481
0.057456
0.0339411
-0.0329373
0.0565484
0.0261604
-0.0252527
0.0561083
0.0172756
-0.0168355
0.00534565
0.0571031
-0.00634042
0.0588914
-0.0584709
0.0049251
-0.00739143
0.00820021
-0.00737045
0.0592286
-0.0592092
0.026141
0.0180333
0.0603961
-0.0612712
0.0374913
0.035128
0.0621102
-0.0622009
0.0371252
0.0390318
0.0629008
-0.0630921
0.0353767
0.0369792
0.0628864
-0.0634299
0.03675
0.0375098
0.0610338
-0.0590351
0.0361855
0.0378028
0.0580431
-0.057572
0.02822
0.0348772
0.0200628
-0.0621953
0.063488
-0.0377109
-0.0352333
-0.0638982
0.0634713
-0.0389902
-0.0406292
-0.0637614
0.0618
-0.0353958
-0.0380208
-0.0624749
0.0617269
-0.033855
-0.0359401
-0.0587479
0.059896
-0.0367351
-0.0340553
-0.0579608
0.0549145
-0.0298911
-0.0348129
-0.0541834
0.0542942
-0.0169463
-0.0245216
-0.0550653
0.057526
0.00573951
-0.00711148
0.05787
0.0206779
-0.000992927
-0.0509277
0.0613316
0.0312675
0.0616263
-0.0615743
-0.0204663
0.0642491
0.0248884
0.0121739
-0.0549791
-0.00810686
0.0614618
-0.063022
0.0064853
-0.00748292
0.0622329
-0.0647107
0.0286188
0.0172442
0.0624987
-0.0646998
0.0396924
0.032916
0.064689
-0.0648836
0.0373197
0.0390211
0.0637295
-0.0653882
0.0370354
0.0358252
0.0621789
-0.0645153
0.0390864
0.0343005
0.0611575
-0.0598585
0.0348866
0.034445
0.0575158
-0.0553845
0.0260887
0.0325344
0.0523749
0.00594371
0.0170533
0.03434
-0.0380441
0.0653304
0.0321619
0.0664272
-0.0654307
0.0651594
-0.0262487
-0.0147877
-0.065511
0.0673774
-0.0395773
-0.0355848
-0.0652756
0.0664423
-0.0401569
-0.0385274
-0.0648964
0.0638441
-0.0343435
-0.0364748
-0.0624582
0.0637209
-0.0351176
-0.0345542
-0.060117
0.0596643
-0.0362825
-0.0304514
-0.0571741
0.0563567
-0.0290737
-0.0323227
-0.0537031
0.0538398
-0.017083
-0.0218679
-0.0535507
0.0565503
0.00273994
-0.00682239
-0.0619396
0.0634275
0.0234005
0.0152885
0.0545442
0.0310805
-0.0285218
0.0735831
-0.0477164
0.0308474
0.064742
0.0224429
-0.0257273
-0.0490539
0.0175054
-0.0500415
-0.0469973
0.0500903
-0.0150945
-0.0467957
-0.0259288
0.092392
-0.056625
0.0300217
0.0750407
-0.0618437
-0.023303
0.0188979
-0.0223584
-0.0469421
-0.0506891
0.0154037
0.0630875
-0.0655511
-0.0180027
-0.0296526
0.0666215
-0.0667664
0.00663025
-0.00641261
0.0657904
-0.0668172
0.0296456
0.0162681
0.0654267
-0.0668433
0.041109
0.0315256
0.0636666
-0.0675427
0.0411958
0.0358444
0.0653656
-0.0651843
0.0368541
0.0336481
0.0643902
-0.0628708
0.0375669
0.0335065
0.0599767
-0.0602767
0.0351866
0.0315509
0.0545003
-0.053802
0.0253904
0.0267581
0.0517364
-0.0507951
0.0050024
0.0149876
-0.00503798
0.0597009
-0.0569842
0.0206837
0.0635491
0.0269993
-0.0572623
0.0634461
-0.00552175
0.0283909
-0.0295908
-0.0494892
0.0547974
0.0261813
-0.0525879
0.0129388
-0.0658304
0.0730499
-0.0334682
-0.017172
-0.0704049
0.0706981
-0.0398705
-0.0329398
-0.0700212
0.0691124
-0.0392482
-0.0378505
-0.0654568
0.0670681
-0.0359548
-0.0328192
-0.0638995
0.0633684
-0.0345865
-0.0313856
-0.0615432
0.0592287
-0.033968
-0.0286262
-0.0545518
0.0553421
-0.0298641
-0.0276458
-0.0539909
0.0537095
-0.0168016
-0.0205167
-0.053334
0.0540408
0.00203309
-0.00644686
0.0123452
-0.0345614
0.0331733
0.0667186
0.0690435
-0.0324636
0.0328697
0.0643359
0.0671369
-0.0525695
-0.0340743
0.0282384
-0.043218
-0.032597
-0.0482731
-0.0140367
0.0307344
-0.0492947
-0.0493217
-0.0129881
-0.0650398
-0.0315568
0.0307504
0.0656684
-0.0260539
-0.050479
0.0286248
-0.050428
-0.0539809
0.0606954
0.0194669
0.0383833
-0.0397778
-0.0511934
-0.0537512
0.0381535
-0.0364666
-0.0528003
0.0345043
-0.0469879
0.0276788
-0.0502299
-0.0267705
0.0300957
-0.0517116
-0.0288526
0.0299801
-0.0513574
-0.040853
0.0485184
-0.036518
0.0225928
-0.0248419
0.0712134
-0.0711749
-0.0180412
-0.023479
0.0707049
-0.0703062
0.00623155
-0.00688254
0.0701308
-0.0698161
0.0293309
0.0160927
0.069472
-0.0689001
0.040537
0.0311815
0.0683085
-0.067533
0.0404203
0.0352527
0.0667639
-0.0670001
0.0370903
0.032879
0.0642988
-0.0624052
0.0356733
0.0308051
0.0604653
-0.0578261
0.0325474
0.029611
0.0553253
-0.0522786
0.0223437
0.0242573
0.0493952
-0.0491066
0.00471379
0.0121042
0.0481557
-0.0486436
-0.0146066
-0.00598891
0.0537153
-0.0461697
-0.0205338
-0.0208571
-0.0244218
-0.0670695
0.0707796
-0.00923188
0.00656471
-0.0751908
0.0746924
-0.0329698
-0.0215832
-0.0744024
0.0750213
-0.0404894
-0.0326497
-0.0708377
0.0703436
-0.0387541
-0.0336669
-0.0687441
0.0683293
-0.0355399
-0.0312197
-0.0654146
0.0634317
-0.0326036
-0.028471
-0.0615066
0.0589533
-0.0314146
-0.0267011
-0.0568095
0.0547705
-0.0278251
-0.025502
-0.0535177
0.0527547
-0.0160386
-0.0192639
-0.0527131
0.0533169
0.00142924
-0.00640523
-0.0559627
0.0592698
0.0173766
0.00969942
-0.0618721
0.0638338
0.0287887
0.0243969
-0.0247683
0.0305398
0.0692692
0.0757483
-0.0316159
0.0324171
0.0659174
0.0679673
-0.0333296
0.0323018
0.0653636
0.0662244
-0.0327859
0.0307477
0.0658721
0.0651843
-0.0499986
0.0436735
-0.0410549
0.0442636
0.0644399
-0.0603905
0.0247392
0.0662378
0.0289498
-0.0356708
-0.0512748
0.0330431
-0.0489667
-0.064633
0.0502507
-0.0221358
-0.0217933
0.00189787
-0.0417751
-0.0520801
0.0338626
-0.0507547
0.029736
-0.0514675
0.0240892
-0.0528538
0.0731835
-0.0742227
-0.0305176
-0.0259561
0.0726942
-0.0743408
-0.0163946
-0.0250074
0.0741517
-0.0738763
0.00595614
-0.00707164
0.0734371
-0.0727278
0.0286216
0.0156535
0.0719741
-0.0708789
0.0394418
0.0304279
0.0698584
-0.0685856
0.0391475
0.0342322
0.0674124
-0.0658579
0.0355359
0.0317057
0.0642903
-0.0620866
0.0334696
0.0292376
0.059891
-0.0570323
0.0296887
0.0274154
0.0544587
-0.0515109
0.0193959
0.0216837
0.0492741
-0.0472555
0.00269514
0.0098674
0.0472497
-0.0479468
-0.0139094
-0.00599471
0.0497001
-0.0496562
-0.0205776
-0.0191038
-0.0238272
-0.0556731
0.0588632
0.0410736
0.0631857
-0.043759
-0.0770084
0.0551186
-0.035353
0.0434201
0.0451739
-0.0663154
0.0686483
0.017134
0.0307013
-0.0734298
0.0762189
-0.012021
0.00178322
-0.0783093
0.0783013
-0.0329618
-0.0236736
-0.0773635
0.0755412
-0.0386672
-0.0317119
-0.0737167
0.0714766
-0.0365139
-0.0318424
-0.0696049
0.0674984
-0.0334335
-0.029348
-0.0657676
0.0636353
-0.0304713
-0.0267401
-0.0616363
0.0590269
-0.0288052
-0.0247022
-0.0568477
0.0546332
-0.0256106
-0.0233229
-0.0532945
0.0524289
-0.015173
-0.0179252
-0.0525479
0.0533304
0.000646663
-0.00652416
-0.0547735
0.0576469
0.0145032
0.00825639
0.0216533
0.0256421
-0.0200832
0.073409
-0.0311518
0.031499
0.068922
0.0702386
-0.0337123
0.0327075
0.0669223
0.065754
-0.0332462
0.0332069
0.0654029
0.0656857
-0.0320938
0.031045
0.0669209
0.0662974
0.0306034
0.0666794
-0.0526263
0.0695716
-0.0997945
0.0208374
-0.0348406
0.084329
-0.00191301
0.0271033
-0.0605433
-0.0798081
-0.035009
-0.0386039
-0.054446
0.0369702
-0.0520743
-0.0394358
-0.0541925
0.0336891
-0.0547078
-0.068859
-0.0283449
0.0739069
0.0232971
-0.0418733
-0.0566377
0.0317197
-0.0590981
-0.0389522
-0.0399692
0.0264659
-0.0784676
0.0404567
-0.0544599
-0.0701614
0.0319058
0.0745099
-0.0764122
-0.0286153
-0.0312544
0.077882
-0.0771563
-0.0171204
-0.0235376
0.0775598
-0.0771627
0.00555906
-0.00666812
0.0764883
-0.075412
0.0275452
0.0149791
0.074266
-0.0726969
0.0378727
0.0292819
0.0712772
-0.0695641
0.0374344
0.0328126
0.0680652
-0.0661806
0.0336512
0.0302069
0.0643705
-0.0619244
0.0310236
0.0274275
0.0595524
-0.0565528
0.0266891
0.0250434
0.0539512
-0.0510621
0.0165069
0.0190821
0.0489481
-0.0472153
0.000962388
0.00775335
0.047089
-0.0471829
-0.0138155
-0.00612108
0.0504967
-0.0500426
-0.0210317
-0.0157901
0.0549205
-0.0567728
-0.0202834
-0.0189493
0.0533107
-0.06478
-0.0309947
-0.0252555
-0.0517345
0.0560004
0.0391543
-0.0577307
0.0330995
-0.0582316
0.0638364
0.0354689
0.0429426
-0.0697495
0.0749912
0.0118922
0.0247882
-0.0782434
0.0824141
-0.0161918
-0.00146894
-0.0814158
0.0814711
-0.0330172
-0.0226753
-0.0797493
0.0772148
-0.0361326
-0.0299901
-0.0749831
0.0723758
-0.0339066
-0.0296107
-0.0702872
0.0679642
-0.0311104
-0.0272594
-0.066137
0.0639519
-0.0282861
-0.024913
-0.0619631
0.0593616
-0.0262037
-0.0227134
-0.0571403
0.0548166
-0.0232869
-0.0211016
-0.0534119
0.0526071
-0.0143683
-0.0165205
-0.052415
0.053165
-0.000103334
-0.00633202
-0.0554178
0.056403
0.013518
0.0060035
-0.0594779
0.0629675
0.0212497
0.0185784
0.0217559
-0.0373875
0.0406788
-0.0679649
-0.0683006
-0.0338669
-0.0255487
0.0291568
0.0698009
0.00599742
-0.0287905
0.0632498
0.0647777
-0.0309788
0.0327918
0.067109
0.0684165
-0.0319017
0.0316899
0.067134
0.0666442
-0.0328704
0.0318719
0.0664014
0.0645052
-0.0311901
0.0308808
0.0672301
0.0669792
0.0692153
-0.05426
-0.0394607
-0.0544212
0.0376548
-0.0560401
0.0288863
-0.0277516
0.0727722
-0.0584518
0.0383587
0.0519989
0.0296115
0.0745708
-0.075296
-0.0402702
-0.0557956
0.0354507
-0.0584387
-0.040851
-0.0547389
0.0323436
-0.0649758
-0.0430697
-0.0574428
0.0297386
-0.0675274
0.0330242
-0.0360288
-0.0547261
0.0366663
-0.0321219
-0.0728451
0.0400485
-0.0713471
-0.0552967
-0.032372
0.0261601
0.0620256
0.0332478
-0.0283049
-0.0680718
0.0631289
0.0740946
-0.0767984
-0.0323052
-0.0356619
0.0789663
-0.0800088
-0.0275728
-0.0290865
0.0807615
-0.0803473
-0.0175346
-0.0227849
0.0808387
-0.0800468
0.00476718
-0.00617672
0.0790888
-0.0776634
0.0261198
0.0140211
0.0761755
-0.0742149
0.035912
0.0277941
0.0724591
-0.070387
0.0353622
0.0310568
0.068628
-0.0664895
0.0315128
0.0284479
0.0645019
-0.0618833
0.0284049
0.0254399
0.0594032
-0.0563241
0.0236101
0.0225632
0.0537119
-0.0508943
0.0136894
0.0164698
0.0489699
-0.0476614
-0.000346144
0.00582895
0.0477369
-0.0492495
-0.0123029
-0.00604552
0.0515975
-0.0547365
-0.0178927
-0.0134421
0.0567883
-0.0576055
-0.0194663
-0.0168976
0.0589877
-0.0639774
-0.026005
-0.0238732
0.0698281
-0.0737914
-0.0281586
-0.0280161
-0.0343356
0.0377694
-0.0762789
0.0866138
0.0420865
-0.0570598
-0.0716405
-0.0215132
-0.0565033
0.0590481
0.0366095
0.0569335
-0.0548843
0.030975
0.0335297
-0.0656906
0.0724244
0.0287351
0.0363001
-0.0765267
0.0805163
0.00790259
0.020686
-0.084083
0.0859622
-0.018071
-0.00503562
-0.0854987
0.0836152
-0.0311337
-0.0222118
-0.0813053
0.0782708
-0.0330982
-0.0276802
-0.0757784
0.0729881
-0.0311163
-0.0271183
-0.070797
0.0683633
-0.0286767
-0.0250683
-0.0664688
0.0642842
-0.0261015
-0.0230185
-0.0623616
0.0598558
-0.0236978
-0.0207909
-0.0576709
0.0553048
-0.0209208
-0.0189167
-0.053804
0.0528422
-0.0134065
-0.0150197
-0.0527482
0.0534258
-0.000780877
-0.00623803
-0.0544608
0.0559116
0.0120672
0.00496847
-0.059449
0.0611237
0.019575
0.015041
0.0244279
-0.0246257
0.029122
0.0653045
0.0663122
-0.0310536
0.0300813
0.0680813
0.066485
-0.0313764
0.0314013
0.0671091
0.0653491
-0.0311547
0.0306155
0.0669405
0.0647519
-0.0308648
0.0307398
0.0673552
0.0667299
0.0722034
-0.0560658
-0.0666995
-0.0261196
0.0705923
-0.0614205
0.0291869
0.0728214
0.0273823
-0.0389664
-0.055725
0.0373538
-0.0579432
-0.0400915
-0.0565551
0.0357186
-0.0618137
-0.0401965
-0.0576121
0.0373405
-0.0725777
-0.0379012
-0.0555705
-0.0305996
-0.0522171
0.0279323
-0.0319921
-0.0533335
0.0411989
-0.0686778
0.0398831
-0.0734609
0.0401127
-0.0743051
0.0415155
-0.0653275
-0.0648268
0.0751085
-0.0187934
0.00851167
-0.068924
-0.0242076
0.0325605
-0.0295983
-0.071034
0.0737134
-0.0777933
-0.0282254
-0.028648
0.0791289
-0.0809856
-0.0257161
-0.0277509
0.0827828
-0.0834093
-0.0169081
-0.0209876
0.0832838
-0.0823387
0.00382203
-0.00630221
0.0811445
-0.0793567
0.0243319
0.012827
0.0775861
-0.0753034
0.0336293
0.0260234
0.073297
-0.0709768
0.0330421
0.0290504
0.0690467
-0.0667504
0.0292165
0.0265178
0.0646591
-0.0619444
0.0256902
0.0233485
0.0594092
-0.0563008
0.0205017
0.0200281
0.0537145
-0.0510439
0.0110188
0.0138835
0.0494073
-0.0486276
-0.00112582
0.00419229
0.0491796
-0.0511271
-0.0103553
-0.00549357
0.0534302
-0.0561391
-0.0151839
-0.011139
0.0581736
-0.057966
-0.0196739
-0.014863
0.0625114
-0.0661231
-0.0223933
-0.0193278
0.0698577
-0.074689
-0.0233273
-0.0242815
-0.0210937
-0.0546062
0.0566951
0.0288861
0.022665
-0.0258019
-0.0490802
0.0527984
-0.0491243
0.0189909
0.0261245
-0.0595987
0.064202
0.0320063
0.0306261
-0.0719421
0.0751217
0.0255555
0.02856
-0.081324
0.0856956
0.003531
0.0144837
-0.0881421
0.0887577
-0.0186867
-0.00748214
-0.0875589
0.0848847
-0.0284595
-0.0210129
-0.0821874
0.0788898
-0.0298006
-0.0249829
-0.0762695
0.073399
-0.0282459
-0.0244979
-0.0711741
0.0687067
-0.0262093
-0.0228434
-0.0667884
0.0646303
-0.0239433
-0.0211002
-0.0628055
0.0604639
-0.0213563
-0.0189661
-0.0583889
0.0560403
-0.0185722
-0.0168417
-0.0544707
0.0533941
-0.0123298
-0.0134501
-0.0532092
0.0538203
-0.00139201
-0.00605313
-0.0548768
0.0565895
0.0103546
0.00391195
-0.0579466
0.0592675
0.018254
0.0136839
0.022275
-0.0282068
0.0274063
0.0628261
0.0288316
-0.0265298
0.058786
0.0616786
-0.0282005
0.0284694
0.0650356
0.065518
-0.0295234
0.0303806
0.0672241
0.065431
-0.0309276
0.0312064
0.0668303
0.0648021
-0.0312129
0.0309401
0.0672133
0.0647454
-0.0307243
0.0305581
0.0675214
0.0669458
-0.0304774
0.0300597
0.0731899
0.0722841
-0.0304471
0.0747914
0.0284771
0.0741834
-0.0576784
-0.0382667
-0.0575497
0.037173
-0.0593977
-0.0393963
-0.0573552
0.0372135
-0.0616867
0.0314674
-0.0322977
0.0756217
0.0741458
-0.0731648
0.0274961
0.0760776
0.0295355
-0.0382179
-0.0572954
-0.0348313
-0.0527312
-0.0295652
-0.0495702
-0.0177937
-0.0456578
0.0143272
-0.0218976
-0.0449763
-0.0672049
0.0358262
0.0421738
-0.0709685
0.0395724
-0.0729206
0.0386941
-0.0714837
0.0362164
-0.0689833
0.0578992
-0.0648829
-0.0195461
-0.0724728
-0.0260494
-0.0277131
0.0289796
-0.0723005
-0.0225633
-0.0776227
-0.0281583
0.0271959
0.0597484
0.056339
-0.0265982
0.0693409
-0.0708317
-0.0246288
-0.0232944
0.0739247
-0.0778964
-0.0242536
-0.025555
0.0813972
-0.0821086
-0.0250048
-0.0242501
0.0845742
-0.0853909
-0.0160914
-0.0185219
0.0852192
-0.084093
0.00269584
-0.00647394
0.0826047
-0.0804789
0.0222061
0.0113387
0.0784713
-0.0759654
0.0311235
0.0240158
0.0738051
-0.07133
0.030567
0.02689
0.0692976
-0.0669058
0.0268246
0.0244855
0.0647469
-0.0619706
0.0229139
0.0211896
0.0594093
-0.0563259
0.0174183
0.0174667
0.0538562
-0.0515022
0.00866483
0.0114138
0.0503171
-0.0501891
-0.00125377
0.00300719
0.0511956
-0.0532813
-0.00826966
-0.00448707
0.0552964
-0.0574732
-0.0130071
-0.00912392
0.059169
-0.0611581
-0.0176848
-0.0131671
0.0637634
-0.0657966
-0.0203601
-0.0167226
0.0696259
-0.0709509
-0.0220022
-0.0204523
0.0703659
-0.0694262
-0.019733
-0.0216787
0.0716612
-0.0738377
-0.023873
-0.0219727
-0.0516748
0.0525009
0.0181648
0.0107016
-0.0115815
-0.0447779
0.0506674
-0.0503978
0.010432
0.0133197
-0.0556793
0.0592942
0.0252711
0.0229462
-0.0628386
0.0683706
0.0264743
0.0270817
-0.0739701
0.0796183
0.0199072
0.0229606
-0.0854912
0.0896906
-0.000668453
0.00861086
-0.0910354
0.0903922
-0.0180434
-0.00882695
-0.0884953
0.085317
-0.0252812
-0.0191161
-0.0824086
0.0790225
-0.0264145
-0.0220744
-0.0763943
0.0735589
-0.0254105
-0.0218697
-0.0713837
0.06897
-0.0237956
-0.0206682
-0.0670797
0.0649754
-0.0218391
-0.0192098
-0.0632616
0.0611289
-0.0192237
-0.0172522
-0.0592295
0.0569833
-0.0163259
-0.0149423
-0.0553932
0.0541829
-0.0111195
-0.0118601
-0.0538704
0.0543245
-0.00184604
-0.00574069
-0.05511
0.0576357
0.00782887
0.00312646
-0.0587162
0.0609383
0.0160319
0.0126033
-0.0639172
0.0697448
0.0233593
0.019296
0.0239624
-0.0268094
0.027489
0.0621466
0.0620651
-0.0274204
0.0276459
0.06481
0.0655866
-0.0289023
0.0299747
0.0661517
0.0641746
-0.0307545
0.0312801
0.0663046
0.0640224
-0.0315145
0.0314715
0.0672563
0.0645111
-0.0314721
0.0315521
0.0674413
0.0669452
-0.032107
0.033791
0.0715058
0.0717292
0.0756767
-0.0587721
-0.0718901
-0.0245108
-0.024921
0.0141154
-0.0668171
-0.0416056
-0.0552055
-0.0386869
-0.0582592
0.0382229
-0.060407
0.0315633
-0.0315862
0.0756446
0.0324304
0.0752105
-0.0392356
-0.0563376
-0.0380867
-0.0540401
-0.0330984
-0.0491981
-0.0255934
-0.0458744
-0.014685
-0.0418728
-0.00562049
-0.0519166
0.00713932
-0.00605946
-0.0443389
-0.0665777
0.0415466
0.0395957
-0.0709918
0.0389541
-0.0731806
0.0390358
-0.0743031
0.0349842
-0.0749879
0.0226447
-0.0808297
-0.0312172
0.0271802
0.0637854
-0.0399403
0.0650622
0.0662405
-0.0683635
-0.0174232
-0.0735
0.0753826
0.0276529
-0.0721405
0.0261367
0.043177
-0.00353468
0.0391206
-0.0649811
0.070681
-0.073492
-0.0218177
-0.0209769
0.0762886
-0.0782642
-0.022278
-0.0227585
0.0816525
-0.0841048
-0.0225525
-0.0208618
0.0857258
-0.0867333
-0.0150838
-0.016901
0.0865846
-0.0852777
0.00138896
-0.00662268
0.0834987
-0.0810135
0.0197209
0.00955971
0.0787951
-0.076154
0.0284824
0.0217974
0.073914
-0.071341
0.0279939
0.0246501
0.0692102
-0.0667021
0.0243165
0.0223547
0.064464
-0.0616499
0.0200998
0.0189515
0.0591417
-0.0562653
0.0145419
0.0149586
0.0541428
-0.0524057
0.0069277
0.00929127
0.0518493
-0.0523588
-0.000744233
0.00245081
0.0535809
-0.0554334
-0.00641722
-0.00326498
0.0569819
-0.0586464
-0.0113426
-0.00757538
0.0600838
-0.0619698
-0.0157988
-0.0117298
0.0637691
-0.0652938
-0.0188354
-0.0149232
0.0686127
-0.0696066
-0.0210082
-0.0171334
0.0721513
-0.0723088
-0.0195755
-0.0191341
0.0743015
-0.0769495
-0.021225
-0.0199799
0.0012985
-0.109721
0.073695
-0.101052
-0.0278482
-0.0277653
-0.0589198
0.0580297
0.011322
0.00401396
-0.00146026
-0.0544703
0.0596495
-0.0605458
0.00491029
0.00786906
-0.0568448
0.0580338
0.0169758
0.0145047
-0.060696
0.0644505
0.0215166
0.020284
-0.0684611
0.0740043
0.0209311
0.0230711
-0.0791162
0.0852901
0.0137334
0.0178487
-0.0893483
0.092035
-0.0033551
0.00455262
-0.092289
0.0906053
-0.0163597
-0.00908099
-0.0882024
0.0848301
-0.0219089
-0.0167132
-0.0819587
0.0787252
-0.0231811
-0.019203
-0.076238
0.0735517
-0.0227242
-0.0193825
-0.0714877
0.0691873
-0.0214952
-0.0186042
-0.0673666
0.0653334
-0.0198058
-0.0173891
-0.0637218
0.0618005
-0.0173024
-0.0156406
-0.060119
0.0580639
-0.0142708
-0.0132607
-0.0565209
0.0552
-0.00979862
-0.0103171
-0.0547523
0.0550668
-0.00216061
-0.00529293
-0.0561505
0.0569496
0.00702971
0.00204281
-0.0595233
0.0625161
0.0130392
0.0100297
-0.0650787
0.069562
0.0188759
0.0167335
0.0213838
-0.0259937
0.0252617
0.0628786
0.0632517
-0.0263275
0.0279841
0.0631534
0.0645208
-0.0284933
0.0297721
0.0648729
0.0636654
-0.0307609
0.031498
0.0655676
0.0630335
-0.0319218
0.0320562
0.0671219
0.0640873
-0.0329136
0.0307691
0.0695858
0.0660878
-0.0317588
0.0317481
0.0715166
0.0707395
0.0758387
-0.0592361
0.0344228
0.0733902
-0.0398369
-0.0576579
-0.0396867
-0.0547375
-0.0363045
-0.050834
-0.0291074
-0.0456841
-0.0193963
-0.0411632
-0.00811997
-0.0398123
-0.0682794
0.0412975
0.0410935
-0.0731313
0.0396454
-0.0737902
0.0368175
-0.0761365
-1.75209e-05
-0.0457816
-0.000766726
-0.0615093
0.00173025
0.0027509
-0.0579879
0.0284311
-0.0807743
0.0157154
-0.0952466
0.0185967
-0.0978161
-0.021833
-0.0647048
0.0398411
-0.0611276
0.0105722
-0.101697
0.0408089
-0.0642435
-0.0395157
0.0540364
0.0226051
-0.0371258
0.0688798
-0.0696522
-0.0166508
0.000640265
0.0714279
-0.0739512
-0.0192944
-0.0192012
0.0775171
-0.0787535
-0.0210416
-0.0191926
0.0818658
-0.0844729
-0.0199454
-0.0177494
0.0862595
-0.0874635
-0.0138798
-0.0151144
0.0874115
-0.0860244
1.82639e-06
-0.00667472
0.0839671
-0.0810502
0.016804
0.0075024
0.0785227
-0.075678
0.0256377
0.01927
0.0733592
-0.0707094
0.0253442
0.0223313
0.0684933
-0.0658936
0.0217168
0.0201386
0.0636426
-0.0609598
0.017417
0.0167005
0.0587352
-0.0564118
0.0122184
0.0127341
0.0549259
-0.0540123
0.00601414
0.00780537
0.0540383
-0.0548529
7.04342e-05
0.00247675
0.0559177
-0.0572481
-0.00508682
-0.00220021
0.0583251
-0.0596204
-0.0100473
-0.00649837
0.0608842
-0.0625879
-0.0140951
-0.0104659
0.0641671
-0.0660955
-0.016907
-0.013344
0.0678588
-0.0700298
-0.0188373
-0.0153701
0.0725392
-0.0728984
-0.0192163
-0.0166247
0.0746386
-0.0767284
-0.0191352
-0.0182397
0.0843237
-0.0923148
-0.0198571
-0.02017
-0.0172856
0.0205383
-0.101069
0.0947737
-0.0958783
-0.016181
-0.0193741
-0.0651583
0.0642894
0.00577925
-0.00219907
0.00386594
-0.0631762
0.0650105
-0.0648303
-0.00237931
0.00158247
-0.0638741
0.0642134
0.0109828
0.00828433
-0.0650486
0.0643074
0.017717
0.0136695
-0.0683756
0.0697153
0.0201768
0.0162159
-0.0759242
0.0784762
0.0183791
0.0168622
-0.0839827
0.088769
0.00894708
0.0123422
-0.0914373
0.0924818
-0.00439958
0.00188425
-0.0917479
0.0894875
-0.0140993
-0.00834703
-0.0869883
0.0837882
-0.0187088
-0.014214
-0.0811534
0.0782031
-0.0202308
-0.0165682
-0.0759154
0.0734146
-0.0202234
-0.0170948
-0.0714812
0.0693236
-0.0193376
-0.0166707
-0.0676068
0.0656737
-0.0178727
-0.0156724
-0.06416
0.0624295
-0.015572
-0.0141269
-0.0609768
0.0591882
-0.0124822
-0.011808
-0.0577777
0.0564259
-0.00844685
-0.00890652
-0.055835
0.0558868
-0.00221233
-0.00470204
-0.0565659
0.0580628
0.00553288
0.00136364
-0.0604025
0.0610957
0.0123459
0.00768995
-0.0646931
0.0669387
0.0166303
0.0131361
-0.07086
0.0733948
0.0236019
0.0174626
-0.074861
0.0647836
0.0445002
0.0261867
-0.0246426
0.0233425
0.0650855
0.0676504
-0.0227002
0.0228828
0.0626959
0.063894
-0.0258785
0.0256726
0.0633593
0.0615251
-0.0280936
0.029482
0.0634845
0.0612444
-0.0306035
0.0314916
0.0646795
0.0619121
-0.0320608
0.0323371
0.0668456
0.063518
-0.0322758
0.0318422
0.0700195
0.066149
-0.033062
0.0309891
0.0735894
0.0695196
-0.031767
0.031639
0.0757727
0.0750608
-0.0315819
0.0359051
0.069067
0.0752676
0.0611729
-0.0592319
-0.0408574
-0.0564872
-0.039137
-0.051905
-0.0336897
-0.0462516
-0.0242831
-0.0407972
-0.0124348
-0.0368483
-0.0694797
0.0422939
0.0414527
-0.0749386
0.0392412
-0.0762138
-0.00111987
-0.0387099
0.00400198
-0.0470327
0.0037582
-0.0578802
0.0328311
-0.0805365
0.0244865
-0.0895454
0.0184025
-0.103077
0.00561453
-0.0655529
-0.00489194
0.00390487
-0.0614666
0.0206481
-0.101807
0.0154441
-0.0988558
-0.0124666
0.0140877
-0.0997124
0.00786065
-0.0642862
0.0997537
-0.0433281
-0.0682586
-0.0133359
0.0655716
-0.0774748
-0.0142784
-0.0146907
0.0765877
0.0412418
-0.0615604
-0.0584069
0.0167258
0.0420812
-0.0650273
0.0684162
-0.0698298
-0.0152372
-0.00841835
0.0712094
-0.0747931
-0.0157107
-0.0178215
0.0768096
-0.0793831
-0.0184681
-0.0171762
0.0816535
-0.0842721
-0.0173268
-0.015479
0.0861644
-0.0875953
-0.0124489
-0.0132221
0.0877582
-0.0865049
-0.00125139
-0.00651186
0.0843288
-0.0810116
0.0134867
0.00532623
0.078057
-0.0748179
0.0223985
0.0163155
0.0723155
-0.0695867
0.0226154
0.0198289
0.0673736
-0.0648674
0.0192105
0.0179255
0.0628196
-0.0605728
0.0151702
0.0146528
0.0588955
-0.0573633
0.0106861
0.0110568
0.0565642
-0.0562815
0.00573144
0.00700633
0.0565324
-0.0571877
0.000725688
0.00272762
0.0578576
-0.0586801
-0.00426426
-0.0015303
0.0594495
-0.0605432
-0.00895358
-0.00572905
0.0616803
-0.0631991
-0.0125763
-0.00932883
0.064599
-0.0663396
-0.0151663
-0.0119441
0.06792
-0.0698795
-0.0168778
-0.0137898
0.0716586
-0.0732804
-0.0175946
-0.0148455
0.0759568
-0.0785716
-0.0165204
-0.0155633
0.0834382
-0.0885332
-0.014762
-0.0153034
0.0912321
-0.0935519
-0.0138611
-0.0166753
-0.00815703
0.00785095
-0.0985498
0.0950039
-0.0947549
-0.00840601
-0.0110147
-0.0656989
0.0652642
-0.0019446
-0.00814227
0.00715422
-0.0645649
0.0676593
-0.0686439
-0.00715766
-0.00293151
-0.0649011
0.0649359
0.00574443
0.00194556
-0.0652665
0.0658362
0.010413
0.00795373
-0.0674971
0.0698127
0.0154014
0.0120086
-0.0722121
0.075632
0.0167569
0.0138164
-0.0789846
0.0833053
0.0140583
0.0135096
-0.0867402
0.0898162
0.00587116
0.00890727
-0.0911378
0.0910375
-0.00429927
0.000562623
-0.0898331
0.0875338
-0.0118
-0.00714268
-0.0852536
0.0824303
-0.0158854
-0.0119338
-0.0801141
0.0774988
-0.0176155
-0.0142521
-0.0754435
0.0731645
-0.0179444
-0.0150395
-0.0713847
0.0693934
-0.0173463
-0.014891
-0.0678052
0.0660028
-0.0160703
-0.0140843
-0.0645879
0.0630144
-0.0139986
-0.0127119
-0.0617595
0.0602629
-0.0109856
-0.0105531
-0.059056
0.0577923
-0.00718313
-0.00769966
-0.0571135
0.0569303
-0.00202914
-0.00402328
-0.0573546
0.0585436
0.00434386
0.000939409
-0.059851
0.0619213
0.0102756
0.00638254
-0.0637345
0.0667878
0.013577
0.011323
-0.0676357
0.0719748
0.0192628
0.0166146
-0.0739153
0.102851
0.0155648
0.0242462
0.00731801
-0.0183416
0.0185441
0.0648829
0.0650901
-0.0216936
0.0222397
0.0621498
0.0607445
-0.023987
0.0257063
0.0616401
0.0597778
-0.0272335
0.028641
0.062077
0.0597172
-0.0298143
0.0307844
0.0637094
0.0607387
-0.0314518
0.0318311
0.0664663
0.0628506
-0.031877
0.0315706
0.0703259
0.0661031
-0.0309564
0.0299517
0.0745942
0.0701338
-0.0294314
0.0289699
0.0762342
0.075581
-0.0268557
0.0243863
0.0715364
0.0773819
0.0708685
-0.0588476
-0.0409701
-0.0546541
-0.0369618
-0.0486328
-0.0286216
-0.0419132
-0.0167988
-0.0364333
-0.0700125
0.0419854
0.0399362
-0.0756336
-0.00385165
-0.0341166
0.00506
-0.039768
0.00631435
-0.0495889
0.0360404
-0.0794231
0.0284898
-0.0845399
0.0216874
-0.0928303
0.00433216
-0.0583074
0.0177804
-0.100209
0.00800697
-0.0623193
0.0146936
-0.102412
0.00774046
-0.0674987
-0.00888563
0.00947285
-0.0662972
0.00888132
-0.100743
0.00415085
-0.0937976
-0.00510808
0.00499551
-0.0993944
-0.00252847
0.0901636
0.0121185
-0.070925
0.0665057
-0.00891655
-0.0720432
-0.0131603
-0.0105346
0.0845939
0.041952
-0.0614312
0.0111361
-0.00980583
0.0642414
0.0123526
0.0632304
-0.0669966
0.0403943
0.0424192
-0.0651526
0.0691812
-0.0700838
-0.0143346
-0.0112803
0.0734785
-0.0738609
-0.0153283
-0.0144269
0.0765728
-0.0789634
-0.0160775
-0.0144643
0.0810932
-0.083591
-0.014829
-0.0133492
0.0854953
-0.0871183
-0.0108259
-0.0113178
0.0875879
-0.086744
-0.00209534
-0.0060422
0.0847831
-0.0814155
0.0101192
0.00336533
0.0781822
-0.0745313
0.0187476
0.0130822
0.0717815
-0.0689696
0.0198034
0.0170791
0.0668544
-0.064634
0.0169901
0.0158104
0.0629636
-0.061295
0.0135016
0.0129824
0.0601724
-0.0592533
0.00976702
0.00993425
0.0588225
-0.0586772
0.00558618
0.00657549
0.0587719
-0.0590317
0.000985495
0.00282229
0.0593425
-0.0598427
-0.00376405
-0.00121951
0.0604504
-0.0614083
-0.00799569
-0.00512135
0.0624111
-0.0637419
-0.0112456