/*--------------------------------*- C++ -*----------------------------------*\
  =========                 |
  \\      /  F ield         | OpenFOAM: The Open Source CFD Toolbox
   \\    /   O peration     | Website:  https://openfoam.org
    \\  /    A nd           | Version:  10
     \\/     M anipulation  |
\*---------------------------------------------------------------------------*/
FoamFile
{
    format      ascii;
    class       volScalarField;
    location    "12";
    object      p;
}
// * * * * * * * * * * * * * * * * * * * * * * * * * * * * * * * * * * * * * //

dimensions      [0 2 -2 0 0 0 0];

internalField   nonuniform List<scalar> 
28942
(
-0.00285727
-0.00202809
0.00329345
0.0112183
0.0115172
0.000243331
0.000639602
9.11977e-05
0.00446249
0.00453751
-0.000948307
-0.00118683
-0.00166791
-0.00159902
0.00040195
0.000821139
0.0113443
0.0116129
0.00701484
0.00855333
0.00959072
0.00959294
-0.00443536
-0.00411314
-0.00278835
-0.00295068
0.0153479
0.0152961
0.00487337
0.00484138
5.76977e-05
0.000105801
0.00159046
0.000696509
0.00849098
0.00970944
0.0122773
0.0142637
7.76064e-05
0.0164819
0.0107973
0.0132943
0.00375167
0.00371135
0.00374834
0.000568067
0.000409455
0.00045485
0.000522676
0.000802061
0.00141571
0.00474367
0.00480211
0.0045525
0.00472172
-0.00128062
-5.14203e-05
-0.00216598
-0.00202375
-0.00238076
-0.00240459
-0.00232193
-0.00221945
0.000999642
-0.000869141
0.000864729
0.00228173
0.0108969
0.010401
-0.00223413
-0.0025443
-0.00228053
0.0104338
0.0102998
0.0105739
-0.000434543
1.21996e-05
0.000496807
0.00367694
0.00408605
0.00309662
0.00193846
-0.00565447
-0.0070127
0.00223052
0.00501836
0.00609584
0.00690272
0.00524321
0.00541159
0.00741892
0.00676348
0.000663013
0.000173515
-0.000332525
-8.32691e-05
0.000297494
0.00664568
0.00796393
-0.00732041
0.0130149
0.0122155
0.0075126
0.0111046
0.00305116
0.00309978
0.00290911
0.00699921
0.00718518
0.00718112
-0.00197785
-0.00189853
-0.00213849
-0.00151381
-0.00146355
0.0172942
0.0152876
0.0147077
0.0163506
0.00283768
0.00603788
0.00469907
0.00644628
0.00613509
0.0169809
0.0172696
0.0159086
0.00731624
0.00839753
0.000424744
0.000557529
0.000292853
0.0119441
0.0124552
0.00937574
0.00902467
0.0144838
0.00808367
0.00939777
0.0104142
-0.000195636
-0.000810935
0.00877886
0.00374481
0.00375335
3.67326e-05
-3.39955e-05
0.000472227
-0.000985703
0.00790483
0.0070193
0.00489454
0.000470323
0.000387721
0.000221603
0.000401985
0.00886709
0.00813872
-0.000262603
-0.000371706
-0.000184865
-0.00349393
-0.00289538
0.000200018
-0.00193342
0.000475059
0.00982375
0.0099183
0.0110495
0.0105821
0.00913814
0.00496899
0.00490397
0.00501554
0.00492381
0.0065995
0.00637741
0.0066947
0.00691451
0.00683539
0.00685603
0.00705319
0.00758573
0.00729026
0.00687232
0.00719322
0.00790341
0.00863064
0.00893991
0.00175968
0.00173516
-0.00114753
0.000440692
0.000243386
-0.000571622
-0.000550608
0.000616209
0.00062366
0.000575429
0.000526252
0.00302215
0.00301673
0.00299961
-0.00163811
-0.0018257
-0.00128268
-0.00332802
-0.00389602
-0.00301843
-0.00380523
-0.00566574
-0.00421688
0.0174873
0.0182034
0.0179674
0.00321043
0.00332628
0.00321953
0.011827
0.0114026
0.0114813
0.00243505
0.00240798
0.00246192
0.00238085
0.00235372
0.00232665
0.00232752
0.00229958
0.00230096
0.00235424
0.00238137
0.00240844
0.00243568
0.00246241
0.00227282
0.00227422
0.00248891
0.00248956
0.00251629
0.00224613
0.00224712
0.00251682
0.00221919
0.00219224
0.00222017
0.00219326
0.00254281
0.00254363
0.00216538
0.00216623
0.00256958
0.00257068
0.00213851
0.00213924
0.00259652
0.00259775
0.00211162
0.00211225
0.00262353
0.00262479
0.00208475
0.00208527
0.00265057
0.00265184
0.0020578
0.00205829
0.0026778
0.00267869
0.00203087
0.00203131
0.00270477
0.0027056
0.00200387
0.00200427
0.0027322
0.00273282
0.00197682
0.00197701
0.0027594
0.00275996
0.00194989
0.00194932
0.00278726
0.00278753
0.00192233
0.00192169
0.00281507
0.00281525
0.00189369
0.00189374
0.00278672
0.00281461
0.00284323
0.0028431
0.00273154
0.00275923
0.00267714
0.00270457
0.00262308
0.00265009
0.00256906
0.00259608
0.00251479
0.00254201
0.00246145
0.00248838
0.00240757
0.00243425
0.00235367
0.00238074
0.0022994
0.00232663
0.00224555
0.00227249
0.00219167
0.00221862
0.00213781
0.00216476
0.00208394
0.00211091
0.00203017
0.00205709
0.0019764
0.0020033
0.00192169
0.0019494
0.00189375
0.00186534
0.00186543
0.00194969
0.00189426
0.00192213
0.00200447
0.00197721
0.00205847
0.00203152
0.00211235
0.00208541
0.00216625
0.0021393
0.00222015
0.00219321
0.0022741
0.00224711
0.00232799
0.00230123
0.00238171
0.00235497
0.00243576
0.00240869
0.00248986
0.00246293
0.00254383
0.0025166
0.00259791
0.00257088
0.00265201
0.00262496
0.00270616
0.00267905
0.00276044
0.0027332
0.00281492
0.00278756
0.00284269
0.00284261
0.00186548
0.00186597
0.00287137
0.00287064
0.00287057
0.00287136
0.0027863
0.00284151
0.00281386
0.00273123
0.00275877
0.00267698
0.00270406
0.00262298
0.00264997
0.00256897
0.00259598
0.00251498
0.00254197
0.00246098
0.00248807
0.00240714
0.00243425
0.00235346
0.00238006
0.0022993
0.00232641
0.00224547
0.00227239
0.00219163
0.00221855
0.0021378
0.00216471
0.00208398
0.00211089
0.00203017
0.00205708
0.00197637
0.00200327
0.00192182
0.00194927
0.00183687
0.00183723
0.00186614
0.0018942
0.00189519
0.00186751
0.00183808
0.00183708
0.00195031
0.00192295
0.00200461
0.00197741
0.00205851
0.00203157
0.00211238
0.00208544
0.00216626
0.00213932
0.00222016
0.00219321
0.00227407
0.00224711
0.00232802
0.00230107
0.00238202
0.002355
0.00243581
0.00240888
0.00248984
0.002463
0.0025439
0.00251686
0.00259794
0.00257092
0.00265202
0.00262498
0.00270612
0.00267907
0.00276026
0.00273317
0.00281453
0.00278735
0.00286959
0.00284203
0.00286921
0.00289862
0.00289752
0.00289929
0.00183831
0.00183913
0.00289837
0.00289678
0.00292664
0.00292553
0.00289951
0.00186707
0.00183941
0.00180992
0.00181084
0.00289508
0.00292464
0.0029507
0.00292334
0.00284036
0.00286773
0.00278569
0.00281299
0.00273109
0.00275835
0.00267692
0.00270392
0.00262291
0.00264992
0.00256892
0.00259591
0.00251495
0.00254193
0.00246098
0.00248797
0.00240705
0.00243404
0.00235319
0.00238008
0.00229925
0.00232622
0.00224543
0.00227234
0.00219159
0.00221851
0.00213776
0.00216467
0.00208394
0.00211085
0.00203013
0.00205704
0.00197631
0.00200322
0.00192208
0.00194923
0.00189466
0.00180896
0.00181013
0.00180934
0.00180919
0.00189595
0.00184034
0.00186831
0.00195072
0.00192342
0.00200467
0.00197763
0.00205853
0.0020316
0.00211241
0.00208547
0.0021663
0.00213935
0.00222019
0.00219324
0.0022741
0.00224714
0.00232802
0.00230106
0.00238197
0.00235499
0.00243591
0.00240894
0.0024899
0.00246292
0.00254391
0.00251691
0.00259794
0.00257092
0.00265201
0.00262497
0.00270609
0.00267905
0.00276019
0.00273314
0.00281436
0.00278726
0.00286877
0.00284151
0.00292422
0.00289636
0.00295342
0.00295194
0.00292609
0.00292737
0.00181139
0.00181221
0.00295287
0.00295462
0.00298289
0.00297968
0.00298109
0.00299023
0.00302089
0.00292703
0.00294677
0.00296981
0.00289406
0.0029213
0.00283948
0.00286674
0.00278507
0.00281221
0.00273085
0.002758
0.00267682
0.00270382
0.00262281
0.00264982
0.00256882
0.00259582
0.00251485
0.00254184
0.00246091
0.00248788
0.00240699
0.00243395
0.00235308
0.00238003
0.0022992
0.00232614
0.00224535
0.00227227
0.00219151
0.00221843
0.00213769
0.0021646
0.00208387
0.00211078
0.00203006
0.00205696
0.00197624
0.00200315
0.00192225
0.00194923
0.00186781
0.00189513
0.00181243
0.00184018
0.00178228
0.00178431
0.00178319
0.00178136
0.00178158
0.00178197
0.00178147
0.00178418
0.00178293
0.0018414
0.00178602
0.00181365
0.0018965
0.00186906
0.00195083
0.00192373
0.0020047
0.00197776
0.00205857
0.00203164
0.00211244
0.00208551
0.00216632
0.00213938
0.00222022
0.00219327
0.00227412
0.00224717
0.00232803
0.00230108
0.00238197
0.002355
0.00243592
0.00240895
0.0024899
0.00246291
0.00254391
0.0025169
0.00259794
0.00257092
0.002652
0.00262497
0.00270608
0.00267904
0.00276019
0.00273313
0.00281431
0.00278725
0.00286849
0.00284139
0.00292302
0.00289566
0.00297823
0.0029506
0.00300748
0.00300595
0.00295378
0.00295491
0.00298038
0.00298212
0.00181328
0.00178548
0.00175625
0.00175739
0.00301112
0.00300876
0.00303804
0.00299575
0.00303519
0.00303378
0.00302376
0.00295443
0.00294631
0.00297135
0.00289348
0.00292036
0.00283892
0.00286622
0.0027848
0.00281184
0.00273073
0.00275777
0.00267671
0.00270372
0.0026227
0.00264971
0.00256872
0.00259571
0.00251475
0.00254173
0.00246081
0.00248778
0.0024069
0.00243385
0.002353
0.00237994
0.00229912
0.00232606
0.00224527
0.00227219
0.00219143
0.00221835
0.00213761
0.00216452
0.00208379
0.0021107
0.00202998
0.00205689
0.00197617
0.00200308
0.00192234
0.00194926
0.00186824
0.00189527
0.00184078
0.00175461
0.00175627
0.00175525
0.001754
0.00175435
0.00175453
0.00175424
0.00175515
0.00184226
0.00178682
0.00181485
0.00189681
0.00186964
0.00195087
0.00192391
0.00200473
0.0019778
0.0020586
0.00203167
0.00211247
0.00208553
0.00216634
0.00213941
0.00222023
0.00219329
0.00227413
0.00224718
0.00232804
0.00230109
0.00238197
0.00235501
0.00243592
0.00240895
0.0024899
0.00246291
0.0025439
0.0025169
0.00259793
0.00257091
0.00265198
0.00262495
0.00270606
0.00267902
0.00276016
0.00273311
0.00281429
0.00278722
0.00286842
0.00284136
0.00292263
0.00289552
0.00297711
0.00294969
0.00303236
0.00300471
0.00306172
0.00306023
0.00298094
0.00298218
0.00175723
0.0017588
0.00300899
0.00303753
0.00303852
0.00300928
0.00303614
0.00304938
0.00307395
0.0030671
0.00306285
0.00308947
0.00308833
0.0029817
0.00299948
0.00305457
0.00302771
0.00294662
0.00297273
0.00289309
0.00292024
0.00283879
0.00286592
0.0027847
0.00281174
0.00273063
0.00275766
0.00267659
0.00270361
0.00262258
0.00264959
0.0025686
0.00259559
0.00251464
0.00254162
0.00246071
0.00248767
0.00240679
0.00243375
0.0023529
0.00237985
0.00229903
0.00232596
0.00224518
0.0022721
0.00219135
0.00221826
0.00213753
0.00216444
0.00208372
0.00211062
0.00202991
0.00205681
0.00197611
0.00200301
0.0019223
0.00194921
0.00186836
0.00189537
0.00181379
0.00184118
0.00175804
0.00178622
0.00172833
0.00172977
0.00172885
0.00172743
0.00172776
0.00172719
0.00172718
0.00172738
0.00172727
0.00172852
0.00172785
0.00173092
0.00172956
0.00178779
0.00173228
0.0017601
0.0018428
0.00181549
0.00189703
0.00186996
0.00195091
0.00192398
0.00200477
0.00197784
0.00205863
0.0020317
0.00211249
0.00208556
0.00216636
0.00213942
0.00222024
0.0021933
0.00227413
0.00224719
0.00232804
0.00230109
0.00238197
0.002355
0.00243591
0.00240894
0.00248988
0.0024629
0.00254388
0.00251688
0.0025979
0.00257089
0.00265195
0.00262492
0.00270602
0.00267898
0.00276012
0.00273307
0.00281424
0.00278718
0.00286839
0.00284132
0.00292255
0.00289548
0.00297676
0.00294963
0.00303115
0.00300395
0.00308649
0.00305867
0.00311609
0.00311447
0.00300863
0.00307935
0.00303699
0.00175901
0.00173122
0.00170295
0.00170407
0.00300929
0.00303639
0.00306519
0.00306347
0.00309051
0.00311735
0.00314377
0.00314224
0.00300896
0.00305556
0.0031054
0.00310782
0.00308172
0.00300073
0.00302862
0.00294676
0.00297345
0.00289291
0.00292007
0.00283869
0.00286578
0.00278457
0.00281163
0.0027305
0.00275753
0.00267646
0.00270348
0.00262246
0.00264946
0.00256848
0.00259546
0.00251452
0.0025415
0.00246059
0.00248755
0.00240668
0.00243364
0.0023528
0.00237974
0.00229893
0.00232586
0.00224509
0.00227201
0.00219126
0.00221817
0.00213744
0.00216435
0.00208364
0.00211054
0.00202983
0.00205674
0.00197603
0.00200294
0.00192223
0.00194914
0.00186842
0.00189534
0.00181417
0.00184134
0.00178668
0.00170071
0.00170189
0.00170117
0.00170035
0.00170055
0.00170042
0.00170035
0.00170054
0.00170048
0.00170114
0.0017008
0.0017019
0.00178872
0.00173338
0.00176114
0.00184307
0.00181597
0.00189709
0.00187014
0.00195094
0.00192402
0.00200479
0.00197787
0.00205865
0.00203172
0.0021125
0.00208558
0.00216637
0.00213944
0.00222024
0.00219331
0.00227413
0.00224719
0.00232803
0.00230108
0.00238195
0.00235499
0.0024359
0.00240892
0.00248986
0.00246288
0.00254385
0.00251685
0.00259786
0.00257085
0.00265191
0.00262488
0.00270597
0.00267894
0.00276006
0.00273302
0.00281418
0.00278712
0.00286833
0.00284125
0.0029225
0.00289541
0.00297668
0.00294959
0.00303086
0.00300377
0.00308541
0.00305801
0.00314067
0.00311296
0.00309508
0.00310053
0.00317005
0.00316837
0.00303619
0.00170352
0.00170521
0.0031336
0.00303638
0.00313263
0.00306409
0.00306353
0.00309114
0.00309068
0.00311776
0.00314463
0.00317126
0.00319769
0.00319617
0.00303623
0.00310878
0.0031599
0.00316173
0.00313524
0.00305532
0.00308227
0.003001
0.00302816
0.00294669
0.00297371
0.0028927
0.00291981
0.00283853
0.0028656
0.00278442
0.00281147
0.00273035
0.00275738
0.00267632
0.00270333
0.00262232
0.00264931
0.00256834
0.00259533
0.00251439
0.00254137
0.00246047
0.00248743
0.00240657
0.00243352
0.00235269
0.00237962
0.00229883
0.00232575
0.00224499
0.0022719
0.00219116
0.00221807
0.00213735
0.00216426
0.00208355
0.00211045
0.00202976
0.00205665
0.00197596
0.00200286
0.00192217
0.00194907
0.00186838
0.00189527
0.00181441
0.00184145
0.00175984
0.00178716
0.00170446
0.00173244
0.00167452
0.00167633
0.00167526
0.00167366
0.00167392
0.00167351
0.00167351
0.00167363
0.00167356
0.00167372
0.00167368
0.00167408
0.00167381
0.00167509
0.00167446
0.00167723
0.00167591
0.00173428
0.00167855
0.00170654
0.0017892
0.00176184
0.00184327
0.00181632
0.00189713
0.00187021
0.00195098
0.00192405
0.00200482
0.0019779
0.00205867
0.00203175
0.00211252
0.00208559
0.00216637
0.00213944
0.00222024
0.00219331
0.00227412
0.00224718
0.00232802
0.00230107
0.00238193
0.00235497
0.00243587
0.0024089
0.00248982
0.00246284
0.00254381
0.00251681
0.00259782
0.00257081
0.00265185
0.00262483
0.00270591
0.00267888
0.00275999
0.00273295
0.0028141
0.00278705
0.00286824
0.00284117
0.0029224
0.00289532
0.00297658
0.00294949
0.00303076
0.00300367
0.00308496
0.00305786
0.00313937
0.00311207
0.00319431
0.0031668
0.00312332
0.00312955
0.00322387
0.00322208
0.00306358
0.00306349
0.00318786
0.0031863
0.00315911
0.00309051
0.00309068
0.00170534
0.00167772
0.00164936
0.00165059
0.00311812
0.00311782
0.00314487
0.00317184
0.00319865
0.00322514
0.00321381
0.00321537
0.00324135
0.00325154
0.00325014
0.00324026
0.00306343
0.00316338
0.00318964
0.00310868
0.00313573
0.00305496
0.0030821
0.00300065
0.0030277
0.00294656
0.0029736
0.00289247
0.00291954
0.00283833
0.0028654
0.00278424
0.00281128
0.00273019
0.00275721
0.00267616
0.00270317
0.00262217
0.00264916
0.0025682
0.00259518
0.00251425
0.00254122
0.00246034
0.00248729
0.00240644
0.00243339
0.00235257
0.0023795
0.00229871
0.00232564
0.00224488
0.00227179
0.00219106
0.00221797
0.00213726
0.00216416
0.00208346
0.00211036
0.00202968
0.00205657
0.00197589
0.00200278
0.0019221
0.001949
0.00186832
0.00189521
0.00181452
0.00184143
0.00176033
0.00178746
0.00173297
0.00164698
0.00164847
0.00164753
0.00164666
0.00164683
0.00164671
0.00164666
0.00164682
0.00164676
0.00164693
0.00164687
0.00164709
0.00164698
0.00164782
0.00164741
0.00164846
0.00173505
0.00167983
0.00170753
0.00178946
0.00176227
0.00184334
0.00181642
0.00189717
0.00187025
0.00195101
0.00192409
0.00200485
0.00197793
0.00205868
0.00203177
0.00211252
0.0020856
0.00216637
0.00213945
0.00222023
0.0021933
0.0022741
0.00224717
0.00232799
0.00230105
0.0023819
0.00235494
0.00243583
0.00240886
0.00248978
0.0024628
0.00254376
0.00251677
0.00259776
0.00257075
0.00265178
0.00262477
0.00270584
0.00267881
0.00275991
0.00273287
0.00281401
0.00278696
0.00286813
0.00284107
0.00292228
0.00289521
0.00297644
0.00294936
0.00303061
0.00300353
0.00308475
0.00305769
0.00313889
0.00311182
0.00319306
0.00316598
0.003248
0.00322018
0.00321271
0.00327771
0.00327938
0.0033054
0.00330389
0.00327561
0.00315026
0.00315939
0.00309071
0.00309064
0.00164991
0.00165167
0.00318671
0.00311742
0.00311782
0.00314545
0.00314495
0.00317202
0.003199
0.00322588
0.00325263
0.00326735
0.00326845
0.00329459
0.00330165
0.00332958
0.003332
0.00329349
0.00326639
0.00323958
0.00330645
0.00333299
0.00309062
0.00321656
0.00324229
0.00316298
0.00318951
0.00310846
0.00313578
0.00305444
0.00308147
0.00300036
0.0030274
0.00294631
0.00297334
0.00289222
0.00291927
0.00283813
0.00286517
0.00278405
0.00281109
0.00273001
0.00275703
0.00267599
0.002703
0.002622
0.002649
0.00256804
0.00259502
0.00251411
0.00254107
0.00246019
0.00248715
0.00240631
0.00243325
0.00235244
0.00237937
0.00229859
0.00232551
0.00224477
0.00227168
0.00219096
0.00221786
0.00213716
0.00216406
0.00208337
0.00211027
0.00202959
0.00205648
0.00197582
0.0020027
0.00192204
0.00194893
0.00186826
0.00189515
0.00181448
0.00184137
0.00176055
0.00178757
0.00170618
0.00173341
0.00165094
0.00167862
0.001621
0.00162302
0.00162193
0.00161994
0.00162022
0.00161981
0.0016198
0.0016199
0.00161986
0.00162
0.00161995
0.00162012
0.00162006
0.00162026
0.00162018
0.00162066
0.00162046
0.00162173
0.00162107
0.00162355
0.00162257
0.00168052
0.00162476
0.00165282
0.00173551
0.00170816
0.00178955
0.0017626
0.00184338
0.00181647
0.00189722
0.0018703
0.00195104
0.00192413
0.00200487
0.00197796
0.00205869
0.00203178
0.00211253
0.00208561
0.00216636
0.00213945
0.00222021
0.00219329
0.00227408
0.00224715
0.00232796
0.00230102
0.00238186
0.00235491
0.00243578
0.00240882
0.00248972
0.00246275
0.00254369
0.00251671
0.00259769
0.00257069
0.0026517
0.00262469
0.00270575
0.00267872
0.00275982
0.00273278
0.00281391
0.00278686
0.00286802
0.00284096
0.00292214
0.00289508
0.00297628
0.00294921
0.00303043
0.00300336
0.00308456
0.0030575
0.00313866
0.00311162
0.00319268
0.00316568
0.00324672
0.00321973
0.00327357
0.00317639
0.00318643
0.00335944
0.00335717
0.00311776
0.00311782
0.00321325
0.00314446
0.00314497
0.00165167
0.00162398
0.00159558
0.00159656
0.00317268
0.00317209
0.00319915
0.00322614
0.00325308
0.00327986
0.00332048
0.00332173
0.00334775
0.00334643
0.00332019
0.00329275
0.00326633
0.0033336
0.00335992
0.00338458
0.00338662
0.00311781
0.00326976
0.00329557
0.00321638
0.00324311
0.00316209
0.00318927
0.00310811
0.00313512
0.00305412
0.00308111
0.00300009
0.00302711
0.00294604
0.00297306
0.00289198
0.00291901
0.0028379
0.00286494
0.00278385
0.00281088
0.00272982
0.00275683
0.00267581
0.00270281
0.00262183
0.00264882
0.00256788
0.00259485
0.00251395
0.00254091
0.00246004
0.00248699
0.00240616
0.0024331
0.0023523
0.00237923
0.00229847
0.00232538
0.00224465
0.00227155
0.00219084
0.00221774
0.00213705
0.00216395
0.00208328
0.00211017
0.00202951
0.00205639
0.00197574
0.00200262
0.00192197
0.00194886
0.0018682
0.00189509
0.00181443
0.00184132
0.00176064
0.00178755
0.00170659
0.00173359
0.00167928
0.00159352
0.00159507
0.00159423
0.00159296
0.0015932
0.001593
0.00159296
0.00159308
0.00159304
0.00159318
0.00159313
0.0015933
0.00159324
0.00159343
0.00159337
0.00159363
0.00159352
0.00159422
0.0015939
0.00159475
0.00168117
0.00162583
0.00165371
0.00173576
0.0017085
0.00178961
0.0017627
0.00184344
0.00181653
0.00189726
0.00187035
0.00195107
0.00192417
0.00200489
0.00197798
0.0020587
0.0020318
0.00211252
0.00208561
0.00216635
0.00213944
0.00222019
0.00219327
0.00227405
0.00224712
0.00232792
0.00230098
0.00238181
0.00235486
0.00243572
0.00240877
0.00248966
0.00246269
0.00254362
0.00251664
0.00259761
0.00257061
0.00265161
0.00262461
0.00270565
0.00267863
0.00275971
0.00273268
0.00281379
0.00278675
0.00286788
0.00284083
0.00292199
0.00289494
0.00297611
0.00294905
0.00303023
0.00300317
0.00308433
0.00305729
0.00313841
0.00311138
0.00319242
0.00316543
0.0032463
0.0032194
0.00330011
0.0032732
0.00335486
0.00332748
0.00341187
0.00340974
0.00338198
0.00320308
0.00321377
0.00314489
0.00314498
0.001596
0.00159776
0.00324039
0.00317161
0.00317213
0.00319987
0.00319924
0.0032263
0.00325328
0.00328018
0.00330694
0.00337337
0.00337467
0.00340005
0.00340733
0.00343444
0.00343737
0.0033992
0.00337308
0.00334619
0.00331991
0.00329325
0.00336058
0.00338694
0.00341326
0.00343878
0.00314499
0.00332329
0.00334932
0.00326969
0.00329574
0.00321556
0.00324291
0.00316167
0.00318862
0.00310777
0.00313473
0.00305381
0.00308079
0.0029998
0.00302681
0.00294576
0.00297278
0.00289172
0.00291875
0.00283767
0.0028647
0.00278363
0.00281065
0.00272961
0.00275662
0.00267562
0.00270261
0.00262165
0.00264863
0.0025677
0.00259467
0.00251378
0.00254074
0.00245988
0.00248683
0.00240601
0.00243295
0.00235216
0.00237908
0.00229833
0.00232524
0.00224452
0.00227142
0.00219073
0.00221762
0.00213695
0.00216384
0.00208318
0.00211006
0.00202942
0.0020563
0.00197566
0.00200254
0.0019219
0.00194878
0.00186815
0.00189503
0.00181438
0.00184127
0.00176062
0.0017875
0.00170681
0.00173371
0.00165224
0.00167956
0.00159668
0.00162475
0.00156729
0.00156864
0.00156777
0.00156639
0.00156673
0.00156609
0.00156612
0.00156618
0.00156614
0.00156626
0.00156622
0.00156635
0.0015663
0.00156648
0.00156641
0.00156662
0.00156655
0.00156679
0.0015667
0.00156706
0.00156689
0.0015681
0.0015675
0.00157011
0.00156896
0.00162676
0.00157146
0.00159936
0.00168166
0.00165436
0.00173585
0.0017088
0.00178968
0.00176277
0.00184349
0.00181659
0.0018973
0.0018704
0.0019511
0.0019242
0.0020049
0.001978
0.00205871
0.00203181
0.00211252
0.00208561
0.00216633
0.00213942
0.00222016
0.00219325
0.00227401
0.00224709
0.00232787
0.00230094
0.00238175
0.00235481
0.00243566
0.00240871
0.00248959
0.00246262
0.00254354
0.00251656
0.00259751
0.00257052
0.00265151
0.00262451
0.00270554
0.00267852
0.00275959
0.00273256
0.00281365
0.00278662
0.00286774
0.00284069
0.00292183
0.00289478
0.00297593
0.00294888
0.00303002
0.00300298
0.00308409
0.00305706
0.00313812
0.00311111
0.00319209
0.00316512
0.00324595
0.00321904
0.00329964
0.00327283
0.00335319
0.00332647
0.00337972
0.00322985
0.00324095
0.00346443
0.00346257
0.00317202
0.00317214
0.00326743
0.00319876
0.00319929
0.00159766
0.00157003
0.00154231
0.00154332
0.00322705
0.0032264
0.00325344
0.00328041
0.00330728
0.00333402
0.00342534
0.00342605
0.00345088
0.00345111
0.0034254
0.00339922
0.00337326
0.00334678
0.00332034
0.00338756
0.00341379
0.00343985
0.00346564
0.0034891
0.00349051
0.00317214
0.00337544
0.00340088
0.00332263
0.00334937
0.00326875
0.00329575
0.00321505
0.00324194
0.00316129
0.00318818
0.00310741
0.00313436
0.00305348
0.00308045
0.00299949
0.00302649
0.00294548
0.00297249
0.00289146
0.00291847
0.00283743
0.00286444
0.0027834
0.00281041
0.0027294
0.0027564
0.00267541
0.0027024
0.00262145
0.00264843
0.00256752
0.00259448
0.0025136
0.00254056
0.00245972
0.00248666
0.00240585
0.00243278
0.00235201
0.00237893
0.00229819
0.0023251
0.00224439
0.00227129
0.0021906
0.00221749
0.00213683
0.00216372
0.00208307
0.00210995
0.00202932
0.0020562
0.00197558
0.00200245
0.00192183
0.00194871
0.00186809
0.00189496
0.00181434
0.00184121
0.00176058
0.00178746
0.00170682
0.0017337
0.00165265
0.00167977
0.00162522
0.0015397
0.00154073
0.00154013
0.0015393
0.00153952
0.00153928
0.00153925
0.00153935
0.00153932
0.00153942
0.00153938
0.00153952
0.00153947
0.00153965
0.00153958
0.0015398
0.00153972
0.00153998
0.00153989
0.00154019
0.00154007
0.00154076
0.00154045
0.00154133
0.00162752
0.00157244
0.00160026
0.00168196
0.00165484
0.00173593
0.001709
0.00178974
0.00176284
0.00184354
0.00181665
0.00189734
0.00187044
0.00195113
0.00192423
0.00200491
0.00197802
0.00205871
0.00203181
0.0021125
0.0020856
0.00216631
0.00213941
0.00222013
0.00219322
0.00227396
0.00224705
0.00232782
0.00230089
0.00238169
0.00235475
0.00243558
0.00240863
0.0024895
0.00246254
0.00254344
0.00251647
0.00259741
0.00257042
0.0026514
0.0026244
0.00270542
0.00267841
0.00275945
0.00273243
0.00281351
0.00278648
0.00286758
0.00284054
0.00292165
0.00289462
0.00297573
0.0029487
0.0030298
0.00300277
0.00308383
0.00305682
0.00313782
0.00311084
0.00319174
0.00316479
0.00324554
0.00321866
0.00329919
0.00327239
0.00335258
0.00332593
0.00340571
0.0033792
0.00345975
0.00343228
0.00351602
0.00351313
0.00348605
0.00325668
0.00326808
0.00319915
0.00319931
0.00154238
0.00154458
0.00329469
0.00322591
0.00322646
0.00325425
0.00325357
0.0032806
0.00330755
0.00333438
0.00336107
0.00347634
0.00347737
0.00350207
0.00351091
0.00353722
0.00353979
0.00350208
0.00347709
0.00345141
0.00342603
0.00340005
0.0033739
0.00334746
0.00341449
0.00344063
0.00346648
0.00349218
0.00351696
0.00354198
0.0031993
0.00342807
0.00345316
0.0033753
0.00340085
0.00332157
0.00334883
0.00326816
0.00329489
0.00321461
0.00324141
0.00316088
0.00318776
0.00310704
0.00313397
0.00305314
0.0030801
0.00299918
0.00302616
0.00294519
0.00297219
0.00289118
0.00291819
0.00283717
0.00286418
0.00278317
0.00281017
0.00272917
0.00275617
0.0026752
0.00270218
0.00262125
0.00264822
0.00256732
0.00259428
0.00251342
0.00254037
0.00245954
0.00248648
0.00240568
0.00243261
0.00235185
0.00237877
0.00229804
0.00232494
0.00224425
0.00227114
0.00219047
0.00221736
0.00213671
0.00216359
0.00208297
0.00210984
0.00202923
0.0020561
0.00197549
0.00200236
0.00192176
0.00194863
0.00186803
0.0018949
0.00181429
0.00184116
0.00176055
0.00178742
0.00170679
0.00173367
0.00165289
0.00167989
0.00159844
0.00162567
0.00154308
0.00157101
0.00151349
0.00151461
0.00151409
0.00151265
0.00151294
0.00151244
0.00151248
0.00151247
0.00151245
0.00151251
0.00151249
0.00151259
0.00151255
0.00151269
0.00151263
0.00151281
0.00151275
0.00151297
0.00151289
0.00151315
0.00151306
0.00151336
0.00151326
0.00151365
0.00151347
0.00151473
0.00151409
0.00151694
0.00151569
0.00157337
0.00151821
0.00154586
0.00162809
0.00160093
0.00168219
0.00165513
0.00173601
0.00170912
0.00178981
0.00176291
0.0018436
0.00181671
0.00189737
0.00187049
0.00195115
0.00192426
0.00200492
0.00197804
0.0020587
0.00203181
0.00211249
0.00208559
0.00216628
0.00213938
0.00222009
0.00219318
0.00227391
0.002247
0.00232775
0.00230083
0.00238161
0.00235468
0.0024355
0.00240855
0.00248941
0.00246245
0.00254334
0.00251637
0.0025973
0.00257032
0.00265128
0.00262429
0.00270528
0.00267828
0.00275931
0.00273229
0.00281335
0.00278633
0.00286741
0.00284038
0.00292147
0.00289444
0.00297552
0.0029485
0.00302956
0.00300255
0.00308357
0.00305657
0.00313752
0.00311055
0.00319138
0.00316446
0.00324512
0.00321827
0.0032987
0.00327194
0.00335205
0.00332541
0.00340502
0.00337861
0.00345764
0.00343142
0.00348376
0.00328353
0.00329516
0.00356655
0.00356446
0.00322629
0.00322648
0.0033217
0.00325307
0.00325364
0.00154404
0.00151677
0.0014892
0.00149043
0.00328147
0.00328074
0.00330777
0.00333469
0.00336147
0.0033881
0.00352713
0.00352752
0.00355166
0.00355126
0.00352807
0.00350287
0.00347812
0.00345223
0.00342669
0.00340058
0.00337433
0.00344141
0.00346742
0.00349314
0.00351832
0.00354346
0.00356787
0.00358997
0.00359188
0.00322646
0.00347862
0.00350213
0.00342771
0.00345391
0.00337439
0.00340033
0.00332093
0.0033479
0.00326766
0.0032943
0.00321415
0.00324093
0.00316047
0.00318733
0.00310667
0.00313358
0.00305279
0.00307974
0.00299886
0.00302583
0.00294489
0.00297188
0.0028909
0.0029179
0.00283691
0.00286391
0.00278292
0.00280991
0.00272894
0.00275592
0.00267497
0.00270195
0.00262103
0.002648
0.00256711
0.00259407
0.00251322
0.00254017
0.00245935
0.00248628
0.00240551
0.00243243
0.00235169
0.00237859
0.00229788
0.00232478
0.0022441
0.00227099
0.00219034
0.00221722
0.00213659
0.00216346
0.00208285
0.00210972
0.00202913
0.00205599
0.00197541
0.00200227
0.00192169
0.00194855
0.00186797
0.00189483
0.00181424
0.00184111
0.00176051
0.00178738
0.00170677
0.00173365
0.00165301
0.0016799
0.00159888
0.00162591
0.00157156
0.00148608
0.001487
0.00148653
0.00148568
0.00148587
0.00148562
0.00148563
0.00148563
0.00148562
0.00148567
0.00148565
0.00148574
0.0014857
0.00148584
0.00148579
0.00148597
0.0014859
0.00148613
0.00148604
0.00148632
0.00148622
0.00148654
0.00148643
0.00148679
0.00148665
0.00148744
0.00148708
0.00148816
0.00157422
0.00151938
0.00154684
0.00162846
0.00160133
0.00168231
0.00165539
0.0017361
0.00170921
0.00178988
0.00176299
0.00184365
0.00181677
0.00189741
0.00187053
0.00195117
0.00192429
0.00200493
0.00197805
0.00205869
0.00203181
0.00211246
0.00208558
0.00216624
0.00213935
0.00222004
0.00219314
0.00227385
0.00224694
0.00232768
0.00230076
0.00238153
0.0023546
0.0024354
0.00240847
0.0024893
0.00246235
0.00254322
0.00251626
0.00259717
0.0025702
0.00265114
0.00262416
0.00270514
0.00267814
0.00275915
0.00273214
0.00281318
0.00278617
0.00286722
0.0028402
0.00292127
0.00289425
0.00297531
0.00294829
0.00302932
0.00300232
0.0030833
0.00305632
0.00313721
0.00311026
0.00319103
0.00316413
0.00324471
0.00321789
0.00329821
0.00327149
0.00335146
0.00332487
0.00340438
0.00337797
0.00345679
0.00343068
0.00350866
0.00348283
0.00356147
0.00353441
0.00361525
0.00361286
0.00358722
0.00331037
0.00332231
0.00325345
0.00325366
0.00148886
0.00149138
0.00334874
0.00328025
0.00328082
0.00330871
0.00330792
0.00333493
0.00336182
0.00338856
0.0034151
0.00357543
0.00357667
0.00360028
0.00360191
0.00357765
0.00355352
0.00352949
0.00350408
0.00347893
0.00345326
0.00342734
0.00340122
0.00346828
0.00349415
0.00351965
0.00354476
0.00356933
0.00359326
0.0036167
0.00360938
0.00363882
0.00363499
0.00325364
0.00352946
0.00355195
0.00347815
0.00350319
0.00342643
0.00345261
0.00337325
0.0033999
0.00332036
0.00334686
0.00326715
0.00329379
0.00321369
0.00324045
0.00316005
0.00318689
0.00310629
0.00313319
0.00305244
0.00307938
0.00299854
0.0030255
0.00294459
0.00297157
0.00289061
0.0029176
0.00283663
0.00286363
0.00278266
0.00280965
0.00272869
0.00275567
0.00267474
0.00270171
0.00262081
0.00264777
0.0025669
0.00259385
0.00251302
0.00253996
0.00245916
0.00248608
0.00240532
0.00243224
0.00235151
0.00237841
0.00229772
0.00232461
0.00224395
0.00227083
0.0021902
0.00221707
0.00213646
0.00216333
0.00208274
0.0021096
0.00202902
0.00205588
0.00197532
0.00200217
0.00192161
0.00194846
0.00186791
0.00189476
0.0018142
0.00184105
0.00176048
0.00178734
0.00170676
0.00173362
0.00165302
0.00167989
0.0015991
0.00162604
0.00154478
0.00157205
0.00148938
0.00151731
0.00145989
0.00146134
0.00146055
0.00145906
0.00145938
0.00145881
0.00145886
0.00145879
0.0014588
0.00145879
0.00145879
0.00145882
0.0014588
0.00145889
0.00145885
0.00145899
0.00145894
0.00145912
0.00145905
0.00145928
0.0014592
0.00145948
0.00145937
0.00145971
0.00145959
0.00145995
0.00145983
0.00146042
0.00146011
0.00146154
0.00146084
0.00146363
0.00146241
0.00152005
0.00146476
0.00149246
0.00157467
0.00154746