/*--------------------------------*- C++ -*----------------------------------*\
  =========                 |
  \\      /  F ield         | OpenFOAM: The Open Source CFD Toolbox
   \\    /   O peration     | Website:  https://openfoam.org
    \\  /    A nd           | Version:  10
     \\/     M anipulation  |
\*---------------------------------------------------------------------------*/
FoamFile
{
    format      ascii;
    class       volVectorField;
    location    "12";
    object      U;
}
// * * * * * * * * * * * * * * * * * * * * * * * * * * * * * * * * * * * * * //

dimensions      [0 1 -1 0 0 0 0];

internalField   nonuniform List<vector> 
28942
(
(0.00598686 -0.00328313 -2.37728e-22)
(0.00802129 -0.00387244 -3.80339e-23)
(0.0185416 -0.0127653 -1.12287e-21)
(0.103307 0.0182192 -6.204e-21)
(0.102348 0.0222624 2.02268e-21)
(0.0297314 0.00124535 0)
(0.0354425 0.00103971 2.73033e-23)
(0.0403979 0.00157958 -2.41096e-23)
(0.132897 -0.0121219 -4.15655e-22)
(0.131365 -0.0107933 1.16976e-21)
(0.015175 0.00923345 -2.99569e-22)
(0.0225111 0.0113667 6.93537e-23)
(0.0107542 0.00654268 0)
(0.00792728 0.00515036 0)
(0.0795007 0.00240499 -3.38318e-23)
(0.077439 0.00362823 -1.02721e-23)
(0.0895555 0.0158928 7.66159e-22)
(0.0872314 0.0139036 1.22817e-21)
(0.0122714 -0.0152173 3.61288e-21)
(0.0296169 -0.0306664 -9.5374e-22)
(0.0987477 0.0371003 1.11653e-21)
(0.0978493 0.0341846 0)
(0.0224556 0.00713848 9.6019e-22)
(0.00976808 0.00352419 4.12878e-22)
(0.0421454 0.00977271 7.34607e-22)
(0.0626647 0.00516372 -6.69689e-22)
(0.00768818 -0.0184338 9.43612e-21)
(0.00672734 -0.0164977 -3.45482e-21)
(0.0362 -0.0256601 7.78033e-22)
(0.0196482 -0.013879 2.73519e-22)
(0.0304214 -0.003027 0)
(0.0379794 -0.00309663 -2.63078e-23)
(0.0468047 0.00680867 6.14118e-22)
(0.0637004 0.00209258 -1.1891e-22)
(0.0190981 0.0182279 1.54969e-21)
(0.0159297 0.0193444 -1.62733e-21)
(0.03258 0.0380258 -3.46401e-21)
(0.0188835 0.0308904 -1.17333e-21)
(0.0169716 0.000529968 -2.18542e-23)
(0.00875705 0.0163906 -2.91615e-21)
(0.0306534 -0.00620141 0)
(0.0513508 -0.0109657 0)
(0.105022 -0.00687287 -5.87816e-23)
(0.105039 -0.00644204 1.72783e-22)
(0.105515 -0.00695642 1.50748e-22)
(0.0550392 0.00104057 2.60259e-23)
(0.0515076 -8.05359e-05 -4.41234e-23)
(0.0696803 -0.000217371 -1.74178e-22)
(0.0672803 -0.000252437 4.84483e-23)
(0.0565775 -0.00391197 -4.43246e-22)
(0.0441596 -0.0052998 2.79818e-22)
(0.1213 0.0038252 -6.94282e-22)
(0.12135 0.00332864 -6.26344e-22)
(0.13284 -0.0154424 -4.14458e-24)
(0.131116 -0.0140623 2.16741e-22)
(0.0930066 0.0147997 5.03496e-22)
(0.111926 0.00791955 1.05737e-22)
(0.00487409 0.0031545 -3.72943e-22)
(0.0124838 0.00669788 0)
(0.0110332 0.00545189 1.78558e-22)
(0.00436025 0.00266495 3.18926e-22)
(0.0008686 0.000624339 -2.6434e-22)
(0.000693686 0.000542121 -2.35723e-22)
(0.113774 -0.0416152 0)
(0.110352 -0.0237357 5.07533e-23)
(0.126526 -0.0298077 4.57306e-25)
(0.126852 -0.0413232 0)
(0.0904835 -0.0324702 -7.35548e-22)
(0.0940264 -0.0348786 -4.86529e-22)
(0.00265206 -0.00159036 7.74315e-22)
(0.00346109 -0.00268712 -2.50949e-22)
(0.00644369 -0.00425777 6.30623e-22)
(0.0854193 -0.0454077 0)
(0.0916923 -0.039236 2.51274e-21)
(0.0811752 -0.0527096 6.82962e-22)
(0.121898 0.00631281 5.3249e-23)
(0.121646 -0.0010296 -7.06838e-23)
(0.132127 0.00190679 8.15245e-23)
(0.0048358 -0.00295209 -7.16252e-23)
(0.00654617 -0.00456293 6.82367e-22)
(0.0526776 -0.0317006 2.09852e-22)
(0.0344246 -0.0211409 -3.14873e-22)
(0.00260096 -0.000935162 2.90706e-21)
(0.00607221 -0.0026501 -1.13882e-21)
(0.104274 0.047922 6.42687e-23)
(0.0995054 0.05518 -9.76477e-22)
(0.0825583 0.0544004 9.07912e-22)
(0.0482805 0.0350336 -3.35671e-21)
(0.0455255 0.0321582 2.37978e-21)
(0.030167 0.0209821 -1.50651e-22)
(0.0334164 0.0236532 -7.79869e-22)
(0.0387385 0.0287981 1.06615e-21)
(0.0103063 0.00742925 8.03832e-24)
(0.0149515 0.01022 -1.26013e-24)
(0.00698518 0.00564373 2.52513e-24)
(0.00529482 0.00475028 9.59012e-25)
(0.0048237 0.00441384 -2.8754e-23)
(0.016048 0.0117418 -3.99732e-21)
(0.0178114 0.0138444 9.28983e-22)
(0.0100463 -0.00457223 0)
(0.101389 0.00515666 0)
(0.0984003 0.0156772 -4.51757e-21)
(0.0604627 0.0104742 2.4051e-21)
(0.0887111 0.0178726 0)
(0.129994 -0.0172806 0)
(0.129033 -0.0181485 0)
(0.128974 -0.0190541 -1.04649e-21)
(0.115206 0.0254304 -2.7143e-22)
(0.114374 0.0269196 2.65149e-21)
(0.113509 0.0244597 1.42353e-21)
(0.00411996 0.00296653 6.43117e-22)
(0.00318648 0.0023099 -7.21838e-22)
(0.0238915 -0.00885021 -3.68144e-22)
(0.0265127 -0.00991345 2.70688e-22)
(0.0128442 -0.00576655 4.7199e-22)
(0.00652512 0.0113361 1.61792e-21)
(0.0190954 0.0184397 3.80754e-21)
(0.013589 0.0230988 2.75257e-22)
(0.00496564 0.014499 -9.4736e-21)
(0.120421 0.0463551 8.14805e-23)
(0.109965 0.0575719 1.41099e-21)
(0.120738 0.0535501 -2.43723e-21)
(0.0397063 -0.0297266 8.96308e-22)
(0.0243724 -0.017475 -6.0741e-22)
(0.00533157 -0.00061916 -4.49756e-21)
(0.00454685 -0.00348591 0)
(0.0125402 -0.00149782 2.217e-21)
(0.022254 -0.0163042 9.28176e-22)
(0.0347041 -0.0280326 -2.38671e-21)
(0.0667046 0.000398878 1.3048e-22)
(0.0700591 0.000526535 -8.3858e-23)
(0.0633132 0.0006229 -3.96814e-24)
(0.028315 -0.042114 0)
(0.0298508 -0.0428986 0)
(0.089677 -0.0186225 -5.78396e-22)
(0.0996487 -0.0220453 3.86828e-21)
(0.0870454 -0.0252725 0)
(0.0477251 -0.040436 0)
(0.0588777 -0.0515181 -9.44692e-22)
(0.0419074 0.0397596 2.37238e-21)
(0.00111552 0.00128698 1.41094e-22)
(0.000706139 0.00103341 -5.2177e-23)
(0.0225699 -0.019407 -9.51243e-22)
(0.106112 -0.00734038 8.79202e-22)
(0.106015 -0.00697335 -1.6263e-22)
(0.124156 0.00424142 -9.60026e-26)
(0.118195 0.0127683 1.27941e-25)
(0.125856 0.0122767 -1.92472e-22)
(0.000972084 0.00108056 7.80184e-23)
(0.0445919 0.0348759 3.81017e-21)
(0.0631671 0.0467977 -9.48261e-22)
(0.0608985 0.0399556 -4.03712e-24)
(0.0461408 -0.00170164 1.02844e-23)
(0.0455858 -0.00194386 5.75821e-23)
(0.0490602 -0.00231312 3.58712e-24)
(0.0541282 -0.00167345 -2.93894e-23)
(0.046192 0.0385259 1.38318e-22)
(0.0192693 0.0162731 0)
(0.00123777 -0.000998793 6.18795e-23)
(0.00174626 -0.00166917 -6.90863e-23)
(0.00499388 -0.00370603 -1.70089e-24)
(0.041126 -0.010149 -1.61442e-21)
(0.0711553 -0.00486862 -6.20876e-22)
(0.0612984 -0.00142543 -1.31601e-24)
(0.0790302 -0.00645341 2.39698e-22)
(0.0744149 -0.015443 -1.11884e-22)
(0.0949654 0.0397174 2.49837e-21)
(0.0921629 0.0452812 9.77737e-23)
(0.0891599 0.029065 1.40206e-21)
(0.0919158 0.0307381 -1.01606e-21)
(0.0994076 0.0407495 0)
(0.12082 -0.00221818 2.38585e-22)
(0.120924 -0.00271863 4.65144e-22)
(0.125659 -0.00814238 -4.5872e-22)
(0.126728 -0.00739978 7.92961e-22)
(0.117104 0.0227188 3.41503e-22)
(0.119125 0.0233285 -9.71335e-22)
(0.117247 0.0247335 0)
(0.115291 0.0236995 1.96222e-22)
(0.116927 0.0267131 0)
(0.117791 0.0346222 -7.03869e-22)
(0.116428 0.036818 -3.77014e-22)
(0.112192 0.0409685 -6.67206e-22)
(0.114527 0.0389326 0)
(0.117398 0.0416546 2.26064e-21)
(0.114733 0.0437986 4.69067e-23)
(0.109246 0.043347 -3.67772e-22)
(0.100641 0.0498211 -1.54624e-21)
(0.099243 0.0451201 -2.71024e-22)
(0.0424631 -0.0215042 -1.74445e-22)
(0.0513579 -0.024177 6.70457e-23)
(0.00986274 -0.00566626 -3.63282e-22)
(0.0606081 0.000383961 -9.05946e-23)
(0.0738014 -3.58694e-05 0)
(0.000431358 -0.000413837 1.24893e-22)
(0.000407576 -0.000373018 5.61027e-23)
(0.0680213 -0.00239044 3.88202e-23)
(0.0772817 -0.00224045 1.30675e-23)
(0.0766392 -0.00131235 0)
(0.0662323 -0.000675147 1.62785e-23)
(0.106692 0.000398162 -1.88847e-22)
(0.106678 0.000348329 9.06314e-22)
(0.106742 0.00035874 4.42424e-22)
(0.00200914 0.00148898 2.00857e-22)
(0.000158732 0.000151076 -3.36086e-22)
(0.000158682 0.000117698 2.25761e-22)
(0.00229727 0.00121067 0)
(0.000262799 0.000251855 9.2356e-22)
(0.000410938 0.000113926 -5.845e-22)
(0.00899517 0.00457146 -8.05559e-22)
(0.00192176 0.00105709 -1.03713e-21)
(0.00219065 0.00111776 0)
(0.00158565 0.00765273 0)
(0.000582742 0.00332765 0)
(0.000316142 0.0020065 0)
(0.129299 -0.016814 1.885e-22)
(0.128886 -0.0161659 0)
(0.12833 -0.0177009 -2.14922e-22)
(0.0882923 -0.0146571 5.06104e-21)
(0.0902955 -0.0150514 -1.83842e-21)
(0.0892003 -0.0126894 0)
(0.10776 7.28055e-06 -1.10941e-23)
(0.107787 7.2646e-06 2.22054e-23)
(0.107732 8.0014e-06 -7.49984e-24)
(0.107813 7.33841e-06 0)
(0.107838 7.78042e-06 -1.41771e-23)
(0.107862 7.62926e-06 0)
(0.10786 -1.77187e-05 0)
(0.107884 6.69073e-06 5.26432e-23)
(0.107882 -1.81408e-05 0)
(0.107838 -1.84509e-05 -1.42678e-23)
(0.107813 -1.94352e-05 0)
(0.107787 -2.05594e-05 7.4277e-24)
(0.10776 -2.18201e-05 -1.10908e-23)
(0.107731 -2.31011e-05 7.49046e-24)
(0.107905 5.97504e-06 -5.03753e-23)
(0.107904 -1.81295e-05 -1.76398e-24)
(0.107702 8.50601e-06 8.95923e-28)
(0.107701 -2.39977e-05 -1.145e-23)
(0.10767 9.11145e-06 6.08789e-23)
(0.107924 5.72281e-06 4.71275e-26)
(0.107924 -1.74564e-05 -1.76661e-24)
(0.10767 -2.48405e-05 2.25611e-23)
(0.107943 5.25605e-06 4.74858e-23)
(0.107962 4.74652e-06 -4.74468e-23)
(0.107943 -1.6847e-05 3.55604e-24)
(0.107961 -1.62673e-05 7.03401e-24)
(0.107637 1.1287e-05 -5.92322e-23)
(0.107637 -2.62468e-05 -1.48483e-23)
(0.107979 4.25958e-06 0)
(0.107979 -1.571e-05 -6.93791e-24)
(0.107602 1.25077e-05 7.32212e-27)
(0.107602 -2.71396e-05 -7.34048e-27)
(0.107995 3.78197e-06 0)
(0.107995 -1.51536e-05 0)
(0.107566 1.37613e-05 0)
(0.107565 -2.80961e-05 0)
(0.108011 3.27038e-06 0)
(0.108011 -1.46802e-05 3.33784e-24)
(0.107527 1.53043e-05 -3.07082e-23)
(0.107527 -2.88002e-05 -7.49467e-27)
(0.108026 2.74345e-06 1.75022e-25)
(0.108026 -1.41721e-05 -3.56488e-24)
(0.107487 1.70457e-05 3.0855e-23)
(0.107486 -2.94589e-05 0)
(0.10804 2.21845e-06 0)
(0.10804 -1.3741e-05 0)
(0.107444 1.92428e-05 -1.95215e-24)
(0.107443 -2.98507e-05 3.34998e-23)
(0.108053 1.62915e-06 2.16725e-23)
(0.108053 -1.32162e-05 0)
(0.107398 2.14107e-05 -1.62783e-25)
(0.107398 -3.05755e-05 -3.17067e-23)
(0.108066 8.75405e-07 -3.24234e-23)
(0.108066 -1.28152e-05 -9.4133e-24)
(0.10735 2.27155e-05 3.23317e-23)
(0.10735 -3.12085e-05 0)
(0.108078 1.79482e-08 1.06839e-23)
(0.108078 -1.2403e-05 6.27851e-24)
(0.107299 2.47279e-05 -1.63615e-23)
(0.1073 -3.24513e-05 3.31835e-23)
(0.10809 -8.56661e-07 -4.27239e-23)
(0.10809 -1.14399e-05 4.81538e-23)
(0.107244 2.49757e-05 1.68798e-23)
(0.107245 -3.35552e-05 5.34241e-25)
(0.108101 -1.76024e-06 0)
(0.108101 -1.09664e-05 2.29724e-23)
(0.107186 2.58364e-05 -3.39597e-23)
(0.107187 -3.55151e-05 6.79451e-23)
(0.108113 -1.88434e-06 0)
(0.108113 -1.1286e-05 0)
(0.107247 8.21189e-05 -1.67025e-23)
(0.107188 8.66036e-05 -6.76346e-23)
(0.107124 2.62333e-05 0)
(0.107126 -3.8562e-05 -3.46321e-23)
(0.107353 7.27049e-05 -1.04965e-23)
(0.107301 7.76071e-05 2.06017e-24)
(0.107446 6.34301e-05 0)
(0.1074 6.81972e-05 -3.38647e-23)
(0.10753 5.54028e-05 -6.53842e-26)
(0.107489 5.92636e-05 0)
(0.107605 4.84565e-05 0)
(0.107568 5.18191e-05 0)
(0.107673 4.21865e-05 0)
(0.10764 4.52112e-05 0)
(0.107734 3.82229e-05 1.48185e-23)
(0.107704 4.02922e-05 3.73314e-24)
(0.107789 3.48536e-05 -1.42922e-23)
(0.107762 3.65263e-05 -1.4801e-23)
(0.107839 3.17238e-05 2.53973e-23)
(0.107815 3.29252e-05 3.24752e-23)
(0.107885 2.87828e-05 0)
(0.107863 3.03689e-05 0)
(0.107926 2.55003e-05 -1.1182e-25)
(0.107906 2.71553e-05 0)
(0.107963 2.2502e-05 0)
(0.107945 2.39705e-05 0)
(0.107997 1.95641e-05 0)
(0.10798 2.10171e-05 0)
(0.108027 1.68002e-05 0)
(0.108012 1.81652e-05 0)
(0.108054 1.43081e-05 0)
(0.108041 1.55378e-05 0)
(0.108079 1.19869e-05 0)
(0.108067 1.31253e-05 0)
(0.108102 9.14547e-06 -1.74829e-23)
(0.108091 1.08861e-05 0)
(0.108113 7.79104e-06 -5.65644e-24)
(0.108123 -2.39613e-06 5.51882e-24)
(0.108123 -1.12899e-05 -5.4729e-24)
(0.108091 -2.27616e-05 0)
(0.108113 -2.08866e-05 -2.24519e-23)
(0.108102 -2.15296e-05 -1.15447e-23)
(0.108067 -2.54923e-05 3.15423e-24)
(0.108079 -2.40114e-05 -1.23603e-23)
(0.108041 -2.78789e-05 1.02093e-25)
(0.108054 -2.68431e-05 0)
(0.108011 -2.99459e-05 0)
(0.108026 -2.88817e-05 0)
(0.107979 -3.2277e-05 0)
(0.107996 -3.10634e-05 0)
(0.107944 -3.50656e-05 0)
(0.107962 -3.35759e-05 1.3404e-29)
(0.107905 -3.84062e-05 1.12952e-25)
(0.107925 -3.66614e-05 0)
(0.107861 -4.26247e-05 0)
(0.107883 -4.05663e-05 0)
(0.107814 -4.62921e-05 0)
(0.107838 -4.45408e-05 0)
(0.107761 -5.06588e-05 0)
(0.107788 -4.81983e-05 -7.50776e-24)
(0.107703 -5.60056e-05 1.96894e-24)
(0.107733 -5.38382e-05 -9.67844e-24)
(0.107639 -6.21429e-05 0)
(0.107672 -5.86078e-05 -7.87242e-24)
(0.107568 -6.78775e-05 0)
(0.107604 -6.50417e-05 0)
(0.107488 -7.38087e-05 0)
(0.107529 -7.07857e-05 0)
(0.1074 -8.03839e-05 0)
(0.107446 -7.70574e-05 0)
(0.107302 -8.74796e-05 -8.57104e-24)
(0.107353 -8.36134e-05 0)
(0.107191 -9.62465e-05 -3.47689e-23)
(0.107248 -9.13568e-05 -8.62417e-24)
(0.10713 -0.000102052 3.54048e-23)
(0.107126 9.13537e-05 6.70558e-23)
(0.108124 6.79785e-06 1.10735e-23)
(0.108123 -2.04287e-05 -2.16511e-23)
(0.107059 -4.25051e-05 0)
(0.107065 -0.000109272 0)
(0.10706 9.61162e-05 0)
(0.107057 2.58723e-05 0)
(0.107252 0.000138184 0)
(0.107134 0.000155007 1.68189e-23)
(0.107195 0.000146288 1.69688e-23)
(0.107358 0.000122012 2.15685e-23)
(0.107307 0.000129957 -4.31006e-24)
(0.107451 0.000107379 6.67052e-26)
(0.107406 0.000114241 0)
(0.107534 9.49811e-05 0)
(0.107494 0.000100984 0)
(0.107609 8.42592e-05 0)
(0.107573 8.9404e-05 0)
(0.107677 7.54593e-05 0)
(0.107644 7.95614e-05 0)
(0.107738 6.74005e-05 0)
(0.107708 7.12569e-05 0)
(0.107793 6.10212e-05 -5.99489e-26)
(0.107766 6.4357e-05 1.5455e-23)
(0.107842 5.54724e-05 -5.76195e-26)
(0.107819 5.79232e-05 -3.02035e-23)
(0.107888 5.00716e-05 0)
(0.107866 5.26816e-05 0)
(0.107929 4.49864e-05 5.58599e-26)
(0.107909 4.75028e-05 0)
(0.107965 4.02201e-05 0)
(0.107947 4.2551e-05 0)
(0.107999 3.57456e-05 0)
(0.107982 3.79289e-05 0)
(0.108029 3.16004e-05 0)
(0.108014 3.36115e-05 0)
(0.108056 2.76756e-05 0)
(0.108043 2.95883e-05 0)
(0.108081 2.39514e-05 0)
(0.108069 2.57938e-05 0)
(0.108104 1.97672e-05 1.19402e-23)
(0.108092 2.19194e-05 0)
(0.108133 -3.22054e-06 0)
(0.108134 6.05851e-06 1.08455e-23)
(0.108124 1.57274e-05 0)
(0.108114 1.75654e-05 1.1645e-23)
(0.108113 -3.11433e-05 2.3173e-23)
(0.108124 -3.00839e-05 5.70029e-24)
(0.108133 -1.99336e-05 4.44575e-23)
(0.108133 -1.10518e-05 0)
(0.108092 -3.46988e-05 0)
(0.108103 -3.26785e-05 -3.49763e-23)
(0.108068 -3.83313e-05 9.93947e-26)
(0.10808 -3.64799e-05 1.24354e-23)
(0.108042 -4.1543e-05 -1.02093e-25)
(0.108055 -3.99188e-05 0)
(0.108013 -4.50321e-05 0)
(0.108028 -4.32393e-05 0)
(0.107981 -4.89795e-05 0)
(0.107997 -4.69379e-05 0)
(0.107946 -5.35357e-05 0)
(0.107964 -5.1163e-05 -1.3404e-29)
(0.107907 -5.87585e-05 -2.25871e-25)
(0.107927 -5.60638e-05 0)
(0.107864 -6.50142e-05 0)
(0.107886 -6.16902e-05 0)
(0.107816 -7.17405e-05 3.79179e-24)
(0.107841 -6.82889e-05 0)
(0.107764 -7.89806e-05 0)
(0.107791 -7.51598e-05 -3.77597e-24)
(0.107706 -8.71685e-05 7.89331e-24)
(0.107736 -8.3042e-05 7.84322e-24)
(0.107643 -9.5909e-05 0)
(0.107675 -9.15621e-05 0)
(0.107572 -0.000105189 0)
(0.107608 -0.000100462 0)
(0.107493 -0.000115281 0)
(0.107533 -0.000110118 0)
(0.107405 -0.000126441 0)
(0.10745 -0.000120737 0)
(0.107308 -0.000138859 1.37464e-25)
(0.107358 -0.000132473 0)
(0.107198 -0.000153484 -1.3949e-25)
(0.107255 -0.000145813 0)
(0.107075 -0.000172433 -3.64885e-23)
(0.107138 -0.000162529 3.64717e-23)
(0.107069 0.000164083 3.41943e-23)
(0.106996 -0.00011783 0)
(0.107007 -0.000184399 -7.42982e-23)
(0.106989 -4.67023e-05 0)
(0.108134 1.46827e-05 0)
(0.108134 -2.8852e-05 -5.53557e-24)
(0.10699 0.000100719 8.6651e-23)
(0.107 0.000173704 3.46512e-23)
(0.106923 -0.000126934 1.87621e-23)
(0.106934 -0.00019727 9.38889e-23)
(0.106986 2.59057e-05 0)
(0.108126 2.61495e-05 4.56169e-23)
(0.108135 2.38224e-05 -2.25425e-23)
(0.108143 -1.97477e-05 -1.09646e-23)
(0.108144 -2.76534e-05 5.45398e-23)
(0.107016 0.000245304 1.21463e-22)
(0.106927 0.000184247 -6.82582e-23)
(0.106865 0.000278545 -3.09023e-22)
(0.106943 0.000260728 -6.93423e-23)
(0.107146 0.000217997 3.38798e-23)
(0.107083 0.000231284 -1.0342e-22)
(0.107262 0.00019321 -3.46254e-23)
(0.107206 0.000205386 -2.61085e-23)
(0.107366 0.000170914 -8.6296e-24)
(0.107316 0.00018183 -8.64504e-24)
(0.107459 0.000151318 -6.67052e-26)
(0.107414 0.000160677 0)
(0.107541 0.000134404 0)
(0.107501 0.000142577 0)
(0.107616 0.000119778 0)
(0.10758 0.00012681 0)
(0.107683 0.000107337 0)
(0.10765 0.000113294 0)
(0.107743 9.65568e-05 0)
(0.107714 0.000101676 0)
(0.107798 8.7116e-05 0)
(0.107771 9.16132e-05 0)
(0.107847 7.87099e-05 4.66206e-30)
(0.107823 8.29604e-05 0)
(0.107892 7.12557e-05 0)
(0.10787 7.48294e-05 0)
(0.107932 6.42354e-05 5.58569e-26)
(0.107912 6.77071e-05 0)
(0.107968 5.76409e-05 0)
(0.107951 6.08755e-05 0)
(0.108001 5.15196e-05 0)
(0.107985 5.45175e-05 0)
(0.108031 4.58728e-05 0)
(0.108016 4.86337e-05 0)
(0.108058 4.06432e-05 0)
(0.108045 4.32039e-05 0)
(0.108083 3.57528e-05 0)
(0.108071 3.81717e-05 0)
(0.108105 3.08252e-05 6.0865e-24)
(0.108094 3.32674e-05 -3.06178e-24)
(0.108116 2.84269e-05 -2.32593e-23)
(0.108143 -3.42961e-06 -5.19181e-24)
(0.108144 1.36674e-05 2.17289e-23)
(0.108143 4.89494e-06 -1.65911e-23)
(0.108143 -1.08128e-05 0)
(0.108115 -4.20807e-05 -1.72749e-23)
(0.108135 -3.78881e-05 -4.9929e-23)
(0.108125 -3.9812e-05 4.01661e-23)
(0.108093 -4.67661e-05 0)
(0.108104 -4.4489e-05 0)
(0.10807 -5.07752e-05 2.17156e-30)
(0.108082 -4.86449e-05 0)
(0.108044 -5.5178e-05 0)
(0.108057 -5.29183e-05 0)
(0.108015 -6.00969e-05 -1.04804e-25)
(0.10803 -5.7567e-05 0)
(0.107983 -6.56488e-05 0)
(0.107999 -6.27861e-05 0)
(0.107948 -7.19592e-05 0)
(0.107966 -6.87004e-05 0)
(0.10791 -7.91122e-05 1.12936e-25)
(0.107929 -7.54282e-05 0)
(0.107867 -8.72697e-05 1.15652e-25)
(0.107889 -8.3036e-05 0)
(0.10782 -9.63131e-05 0)
(0.107844 -9.16675e-05 0)
(0.107768 -0.000106406 0)
(0.107795 -0.000101286 0)
(0.107711 -0.000117365 0)
(0.107741 -0.000111645 0)
(0.107648 -0.000129245 0)
(0.10768 -0.000123212 0)
(0.107578 -0.000142214 -1.29258e-25)
(0.107614 -0.000135582 0)
(0.1075 -0.000156473 0)
(0.10754 -0.000149167 0)
(0.107413 -0.00017232 0)
(0.107458 -0.000164184 0)
(0.107316 -0.000190088 -1.70248e-30)
(0.107366 -0.000180946 0)
(0.107208 -0.000210333 5.49182e-30)
(0.107264 -0.000199872 0)
(0.107087 -0.000234676 1.44555e-25)
(0.107149 -0.000221699 0)
(0.106949 -0.000265464 -7.60994e-23)
(0.10702 -0.000249128 1.87096e-23)
(0.106858 -0.000210547 1.91461e-23)
(0.106875 -0.000283142 3.80082e-23)
(0.106917 0.000105435 -3.38889e-23)
(0.106915 -5.1875e-05 -3.63694e-23)
(0.108145 2.21829e-05 5.52946e-24)
(0.108144 -3.63941e-05 3.92494e-23)
(0.106847 0.000193614 4.15773e-24)
(0.106845 -0.00013682 0)
(0.106771 0.00028591 4.71592e-22)
(0.106796 -0.000301659 5.86341e-23)
(0.106777 -0.000225092 7.81902e-23)
(0.106781 0.000392148 -7.95423e-22)
(0.10671 0.000427592 1.41308e-22)
(0.106913 2.59745e-05 0)
(0.1069 0.000352387 7.81736e-23)
(0.106837 0.000376514 4.07006e-23)
(0.107036 0.000313546 7.04693e-23)
(0.106968 0.000332015 -1.07533e-22)
(0.107163 0.000278269 -3.51071e-23)
(0.107101 0.000295719 -1.75387e-23)
(0.107276 0.000246712 1.76032e-23)
(0.107221 0.000261875 1.78264e-23)
(0.107378 0.000218981 0)
(0.107328 0.000232425 -4.24501e-26)
(0.107469 0.000194704 0)
(0.107425 0.000206467 0)
(0.107551 0.000173378 6.53422e-26)
(0.107511 0.000183682 0)
(0.107624 0.000154851 0)
(0.107589 0.000163779 0)
(0.107691 0.000138873 0)
(0.107658 0.000146564 0)
(0.10775 0.000125036 0)
(0.107721 0.000131699 0)
(0.107804 0.000112872 5.99159e-26)
(0.107778 0.000118731 0)
(0.107853 0.000101989 2.35306e-30)
(0.107829 0.000107354 0)
(0.107897 9.22135e-05 0)
(0.107875 9.69603e-05 0)
(0.107936 8.31607e-05 -1.11712e-25)
(0.107917 8.7613e-05 0)
(0.107972 7.47582e-05 0)
(0.107955 7.88756e-05 0)
(0.108005 6.70143e-05 0)
(0.107989 7.0805e-05 0)
(0.108034 5.99112e-05 0)
(0.10802 6.33841e-05 0)
(0.108061 5.34115e-05 0)
(0.108048 5.6589e-05 0)
(0.108085 4.74311e-05 0)
(0.108073 5.03703e-05 0)
(0.108108 4.17724e-05 -3.04132e-24)
(0.108097 4.44743e-05 0)
(0.108128 3.65972e-05 0)
(0.108118 3.91959e-05 -5.9069e-24)
(0.108146 3.10222e-05 2.91558e-27)
(0.108137 3.37544e-05 0)
(0.108153 1.25356e-05 -2.20307e-23)
(0.108155 2.88221e-05 1.33191e-24)
(0.108154 2.10114e-05 1.08023e-23)
(0.108153 -3.30587e-06 7.92568e-24)
(0.108153 4.31614e-06 -5.47075e-24)
(0.108152 -1.96666e-05 -2.75366e-24)
(0.108152 -1.10982e-05 2.74923e-24)
(0.108153 -3.56012e-05 0)
(0.108153 -2.70426e-05 -2.49829e-23)
(0.108136 -4.79466e-05 -1.12282e-23)
(0.108154 -4.45584e-05 -2.14934e-23)
(0.108145 -4.60106e-05 4.94623e-23)
(0.108116 -5.27074e-05 -5.88065e-24)
(0.108127 -5.01831e-05 0)
(0.108095 -5.81067e-05 0)
(0.108106 -5.54553e-05 0)
(0.108072 -6.31031e-05 1.68196e-30)
(0.108084 -6.05955e-05 0)
(0.108046 -6.87177e-05 0)
(0.108059 -6.58258e-05 0)
(0.108018 -7.50288e-05 1.04804e-25)
(0.108032 -7.17821e-05 0)
(0.107986 -8.21368e-05 0)
(0.108002 -7.84765e-05 0)
(0.107952 -9.01631e-05 0)
(0.10797 -8.60284e-05 0)
(0.107914 -9.92143e-05 0)
(0.107933 -9.45556e-05 0)
(0.107872 -0.000109404 6.80753e-31)
(0.107893 -0.000104161 0)
(0.107825 -0.000120725 0)
(0.107849 -0.000114916 0)
(0.107774 -0.000133296 0)
(0.1078 -0.000126875 0)
(0.107718 -0.000147098 0)
(0.107747 -0.000139995 0)
(0.107655 -0.00016223 0)
(0.107687 -0.000154495 0)
(0.107586 -0.000178867 1.29258e-25)
(0.107622 -0.000170348 0)
(0.107509 -0.000197273 0)
(0.107549 -0.000187829 0)
(0.107423 -0.000217813 0)
(0.107467 -0.000207254 0)
(0.107328 -0.000240912 -1.37449e-25)
(0.107377 -0.000229016 0)
(0.107221 -0.000267043 1.40184e-25)
(0.107276 -0.000253576 0)
(0.107102 -0.000296829 -1.42922e-25)
(0.107163 -0.000281414 0)
(0.106968 -0.000332353 1.88257e-23)
(0.107037 -0.000313488 -3.71123e-23)
(0.106818 -0.000375751 -1.90123e-23)
(0.106895 -0.000353044 3.85722e-23)
(0.106712 -0.000321202 7.24181e-25)
(0.106736 -0.00039962 3.91016e-23)
(0.106838 0.000109686 -3.48405e-23)
(0.106838 -5.66895e-05 0)
(0.106765 0.000203239 -3.38028e-22)
(0.106763 -0.000144565 0)
(0.108148 4.13867e-05 -5.53969e-24)
(0.108157 3.8986e-05 4.05825e-24)
(0.108162 -3.45665e-05 -2.11714e-23)
(0.108163 -4.31167e-05 -2.39969e-23)
(0.106679 0.000285799 -3.31744e-22)
(0.106692 -0.000240276 -7.89552e-23)
(0.106643 0.00043207 0)
(0.106802 0.000472629 -9.19279e-23)
(0.106623 -0.00034202 -3.87722e-23)
(0.106649 -0.000425178 5.94028e-23)
(0.106724 0.000495251 1.84475e-22)
(0.106835 2.58183e-05 0)
(0.106931 0.000423748 0)
(0.106867 0.00044921 -8.1814e-23)
(0.107061 0.000378412 0)
(0.106996 0.000400541 0)
(0.107183 0.00033623 0)
(0.107124 0.000356757 1.81703e-23)
(0.107293 0.000299231 0)
(0.10724 0.00031716 0)
(0.107392 0.000266459 0)
(0.107344 0.000282319 0)
(0.107482 0.00023743 0)
(0.107438 0.000251515 0)
(0.107562 0.000211831 -6.53422e-26)
(0.107523 0.000224211 0)
(0.107635 0.000189475 0)
(0.107599 0.000200267 0)
(0.1077 0.000170043 0)
(0.107668 0.000179419 0)
(0.107759 0.0001531 0)
(0.10773 0.000161287 0)
(0.107812 0.000138183 -2.41561e-30)
(0.107786 0.00014541 0)
(0.10786 0.000124862 2.25855e-30)
(0.107836 0.000131362 0)
(0.107903 0.000112827 0)
(0.107882 0.000118695 0)
(0.107942 0.000101789 2.1223e-30)
(0.107923 0.000107198 0)
(0.107977 9.16257e-05 0)
(0.10796 9.66003e-05 0)
(0.108009 8.23033e-05 0)
(0.107993 8.68621e-05 0)
(0.108038 7.37882e-05 0)
(0.108024 7.79477e-05 0)
(0.108064 6.60378e-05 0)
(0.108051 6.98209e-05 0)
(0.108088 5.90102e-05 0)
(0.108077 6.24354e-05 0)
(0.10811 5.27527e-05 0)
(0.1081 5.58147e-05 0)
(0.10813 4.64011e-05 5.86845e-24)
(0.10812 4.9447e-05 5.9966e-24)
(0.108139 4.36961e-05 -1.12728e-23)
(0.108162 1.16273e-05 -1.08213e-23)
(0.108164 2.7496e-05 0)
(0.108163 1.99354e-05 -1.09284e-23)
(0.108161 -3.43559e-06 0)
(0.108161 4.20757e-06 1.10438e-23)
(0.108161 -1.96266e-05 1.64823e-23)
(0.108161 -1.15677e-05 -5.57028e-24)
(0.108161 -2.67318e-05 -3.23888e-23)
(0.108138 -5.80171e-05 5.66423e-24)
(0.108155 -5.27075e-05 2.11266e-23)
(0.108147 -5.5905e-05 0)
(0.108119 -6.34786e-05 -1.17185e-23)
(0.108128 -6.05876e-05 1.17572e-23)
(0.108098 -6.91879e-05 0)
(0.108109 -6.64356e-05 0)
(0.108075 -7.52564e-05 1.61364e-30)
(0.108087 -7.2152e-05 0)
(0.108049 -8.20896e-05 0)
(0.108062 -7.85721e-05 0)
(0.108021 -8.97698e-05 0)
(0.108036 -8.5819e-05 0)
(0.10799 -9.84029e-05 0)
(0.108006 -9.39608e-05 0)
(0.107956 -0.000108111 0)
(0.107974 -0.000103116 0)
(0.107919 -0.000119013 1.12938e-25)
(0.107938 -0.000113407 0)
(0.107877 -0.000131224 -1.15652e-25)
(0.107899 -0.000124951 0)
(0.107832 -0.0001448 0)
(0.107855 -0.000137836 0)
(0.107782 -0.000159843 0)
(0.107807 -0.000152139 0)
(0.107726 -0.000176451 0)
(0.107754 -0.000167936 0)
(0.107665 -0.000194765 0)
(0.107696 -0.000185387 0)
(0.107596 -0.000215004 0)
(0.107631 -0.000204628 0)
(0.107521 -0.000237492 0)
(0.107559 -0.000225945 0)
(0.107436 -0.000262646 -1.34715e-25)
(0.107479 -0.00024971 0)
(0.107342 -0.000290955 1.37447e-25)
(0.10739 -0.000276375 0)
(0.107237 -0.000322967 -1.4018e-25)
(0.107291 -0.000306468 0)
(0.10712 -0.000359239 0)
(0.10718 -0.000340532 0)
(0.106989 -0.00040043 0)
(0.107056 -0.000379161 0)
(0.106843 -0.00044873 1.50248e-25)
(0.106918 -0.000423264 1.90072e-23)
(0.106679 -0.000506882 -9.95729e-23)
(0.106763 -0.000476661 0)
(0.106557 -0.00045358 -5.89026e-23)
(0.106589 -0.000539543 -7.2807e-25)
(0.106757 0.000113999 1.08989e-22)
(0.106756 -6.10734e-05 0)
(0.108165 3.61591e-05 -2.10974e-23)
(0.108164 -5.06119e-05 -4.06767e-23)
(0.106673 0.000204588 -5.80478e-23)
(0.106605 0.000370942 7.6523e-25)
(0.106586 0.000287931 1.69187e-22)
(0.106678 -0.000152855 0)
(0.106602 -0.00025423 1.9855e-23)
(0.106636 0.000517106 -1.68934e-22)
(0.106549 0.000521913 1.46306e-22)
(0.106528 0.00041134 -1.45109e-22)
(0.10653 -0.000363337 -5.97065e-23)
(0.10646 -0.000482585 3.99929e-23)
(0.106494 -0.000575769 3.92344e-23)
(0.106754 2.5261e-05 0)
(0.106825 0.00055122 5.13618e-24)
(0.106655 0.000614734 -7.92754e-25)
(0.106743 0.000581907 3.97886e-23)
(0.106961 0.000493496 3.93482e-23)
(0.106895 0.00052159 -3.95526e-23)
(0.107088 0.000440596 7.2148e-26)
(0.107025 0.000466596 0)
(0.107206 0.000393071 0)
(0.107149 0.000416104 0)
(0.107313 0.000350719 0)
(0.107261 0.000371308 0)
(0.107409 0.000312933 0)
(0.107362 0.000331267 0)
(0.107497 0.000279332 6.66947e-26)
(0.107454 0.000295636 0)
(0.107576 0.000249619 0)
(0.107537 0.000264006 0)
(0.107647 0.000223528 0)
(0.107612 0.000236143 0)
(0.107711 0.000200708 0)
(0.10768 0.000211737 0)
(0.107769 0.000180705 0)
(0.107741 0.000190384 0)
(0.107821 0.000163045 -5.99134e-26)
(0.107795 0.000171611 0)
(0.107868 0.00014728 2.50596e-30)
(0.107845 0.000154957 0)
(0.10791 0.00013305 0)
(0.107889 0.00013999 0)
(0.107948 0.000120075 1.11703e-25)
(0.107929 0.000126421 0)
(0.107983 0.000108192 0)
(0.107966 0.000114003 0)
(0.108014 9.73319e-05 0)
(0.107999 0.000102639 0)
(0.108042 8.74401e-05 0)
(0.108029 9.22689e-05 0)
(0.108068 7.8463e-05 0)
(0.108056 8.28413e-05 0)
(0.108092 7.03546e-05 0)
(0.10808 7.43021e-05 0)
(0.108113 6.31254e-05 9.5498e-26)
(0.108103 6.66411e-05 0)
(0.108133 5.63942e-05 -5.89409e-24)
(0.108123 5.98147e-05 0)
(0.108151 4.96389e-05 5.61304e-24)
(0.108142 5.29656e-05 0)
(0.108168 4.38434e-05 5.37057e-24)
(0.108159 4.66786e-05 -5.4842e-24)
(0.108172 2.62101e-05 1.06135e-23)
(0.108175 4.08221e-05 0)
(0.108174 3.42971e-05 1.57971e-23)
(0.10817 1.13564e-05 0)
(0.108171 1.85627e-05 0)
(0.108169 -3.79785e-06 0)
(0.10817 4.05037e-06 0)
(0.108169 -1.97188e-05 0)
(0.108169 -1.1762e-05 0)
(0.10817 -3.39824e-05 2.15771e-23)
(0.10817 -2.66766e-05 5.36515e-24)
(0.108172 -4.89486e-05 5.31178e-24)
(0.108171 -4.15146e-05 4.23148e-23)
(0.108157 -6.13941e-05 2.75394e-23)
(0.108173 -5.67676e-05 5.29234e-24)
(0.108165 -5.88665e-05 -1.0739e-23)
(0.10814 -6.73614e-05 5.65919e-24)
(0.108149 -6.42183e-05 -3.3922e-23)
(0.108122 -7.38258e-05 6.8825e-30)
(0.108131 -7.05706e-05 0)
(0.108101 -8.00813e-05 0)
(0.108111 -7.68575e-05 0)
(0.108078 -8.72202e-05 1.52302e-30)
(0.10809 -8.35477e-05 0)
(0.108053 -9.52561e-05 0)
(0.108066 -9.11215e-05 0)
(0.108026 -0.000104281 0)
(0.10804 -9.96394e-05 0)
(0.107995 -0.000114407 0)
(0.108011 -0.0001092 0)
(0.107962 -0.000125763 0)
(0.107979 -0.000119925 0)
(0.107925 -0.000138474 -2.25876e-25)
(0.107944 -0.000131942 0)
(0.107884 -0.000152668 0)
(0.107905 -0.00014538 0)
(0.10784 -0.00016845 0)
(0.107862 -0.000160354 0)
(0.10779 -0.000185945 0)
(0.107815 -0.000176978 0)
(0.107736 -0.000205311 0)
(0.107764 -0.000195382 0)
(0.107675 -0.000226743 -1.2653e-25)
(0.107706 -0.000215756 0)
(0.107608 -0.000250517 0)
(0.107643 -0.000238318 0)
(0.107534 -0.000277008 0)
(0.107572 -0.000263398 0)
(0.107451 -0.000306678 1.34715e-25)
(0.107494 -0.000291416 0)
(0.107359 -0.000340067 -2.48217e-30)
(0.107406 -0.000322873 0)
(0.107256 -0.000377785 2.80358e-25)
(0.107309 -0.000358349 0)
(0.107141 -0.000420475 0)
(0.1072 -0.00039847 0)
(0.107013 -0.000468788 0)
(0.107079 -0.00044388 0)
(0.106871 -0.000523529 -1.09159e-29)
(0.106944 -0.00049532 0)
(0.106712 -0.000586237 0)
(0.106793 -0.000553745 0)
(0.106533 -0.000662369 -5.95668e-23)
(0.106625 -0.000622274 0)
(0.106393 -0.000613339 -7.21871e-25)
(0.106435 -0.000706579 1.01462e-22)
(0.106668 0.000116459 0)
(0.106569 0.000637162 2.30361e-22)
(0.106578 0.000206755 3.97636e-23)
(0.10817 5.13998e-05 -5.36047e-24)
(0.108177 4.86779e-05 0)
(0.10818 -4.76407e-05 5.18106e-24)
(0.108181 -5.47568e-05 -1.02685e-23)
(0.106669 -6.47992e-05 0)
(0.106588 -0.000161918 0)
(0.106497 0.000311367 0)
(0.106508 -0.000268913 -1.95554e-23)
(0.10643 -0.000386397 -3.95754e-23)
(0.106356 -0.000514822 0)
(0.106287 -0.000653571 1.02401e-22)
(0.106331 -0.000752634 -8.18222e-23)
(0.106666 2.53145e-05 0)
(0.106686 0.000702516 -1.91481e-26)
(0.106474 0.000662134 7.31057e-23)
(0.106507 0.000772339 -2.61548e-22)
(0.106599 0.000737729 7.59161e-23)
(0.106851 0.000626819 -2.47989e-23)
(0.10677 0.00066321 -3.945e-23)
(0.106991 0.000560804 0)
(0.106924 0.000592797 0)
(0.107116 0.000501415 -7.21414e-26)
(0.107054 0.000530388 0)
(0.107231 0.000448315 0)
(0.107175 0.000474109 0)
(0.107335 0.000400758 0)
(0.107284 0.000423887 0)
(0.107429 0.000358218 0)
(0.107383 0.000378886 0)
(0.107514 0.000320284 -6.66947e-26)
(0.107472 0.000338702 0)
(0.107591 0.000286612 0)
(0.107554 0.000302936 0)
(0.107661 0.000256895 0)
(0.107627 0.000271283 0)
(0.107723 0.000230762 0)
(0.107693 0.000243409 0)
(0.10778 0.000207757 0)
(0.107752 0.0002189 0)