/*--------------------------------*- C++ -*----------------------------------*\
  =========                 |
  \\      /  F ield         | OpenFOAM: The Open Source CFD Toolbox
   \\    /   O peration     | Website:  https://openfoam.org
    \\  /    A nd           | Version:  10
     \\/     M anipulation  |
\*---------------------------------------------------------------------------*/
FoamFile
{
    format      ascii;
    class       volVectorField;
    location    "15.5";
    object      U;
}
// * * * * * * * * * * * * * * * * * * * * * * * * * * * * * * * * * * * * * //

dimensions      [0 1 -1 0 0 0 0];

internalField   nonuniform List<vector> 
8711
(
(1.04305 0.00947634 0)
(1.04274 0.00999323 -1.4068e-22)
(1.06034 0.00832576 -1.10106e-21)
(1.18793 0.0424397 3.04418e-21)
(1.19402 0.0361666 1.26843e-21)
(1.20723 0.0433801 6.82522e-21)
(1.08808 -0.0138714 1.52352e-22)
(1.09004 -0.0192117 2.75303e-21)
(0.610616 -0.0533619 -1.21066e-21)
(0.61096 0.0418198 9.44384e-21)
(0.790326 -0.507613 0)
(0.453397 -0.716752 -3.42789e-20)
(0.573006 -0.151566 2.1959e-21)
(0.523383 -0.193335 5.53402e-22)
(1.05815 -0.511047 -6.96376e-21)
(1.01729 -0.520875 0)
(1.22463 0.0324408 -7.58052e-21)
(1.23742 0.040861 7.80673e-21)
(1.2535 0.0394019 5.0616e-21)
(1.07897 -0.0103969 -1.49194e-22)
(1.08159 -0.0092712 2.14233e-22)
(1.07936 -0.000134704 2.20448e-22)
(1.07727 -0.00158815 0)
(1.06459 0.00780914 4.58142e-22)
(1.43304 -0.337262 6.59169e-20)
(1.43814 -0.354328 -1.53997e-20)
(1.48822 -0.420236 2.70505e-20)
(1.25192 -0.303119 -5.37065e-20)
(0.826714 -0.015216 7.45455e-22)
(0.896729 -0.0139738 -9.96695e-22)
(0.966758 -0.0130487 1.75408e-23)
(1.04477 0.186846 1.13864e-19)
(0.948394 0.222943 2.92324e-20)
(1.37388 0.279686 4.81469e-21)
(1.37541 0.224294 -3.57278e-20)
(1.03905 0.0572599 -3.87129e-20)
(1.04761 0.0690077 1.11342e-20)
(1.03924 -0.0760084 0)
(1.02313 -0.0449676 -5.36872e-20)
(1.02829 -0.0477906 7.53693e-20)
(1.01545 -0.0336392 0)
(1.0083 -0.0181197 0)
(-0.087472 -0.15903 8.17882e-21)
(-0.0933533 -0.167935 9.73838e-20)
(0.489661 0.676549 4.19453e-20)
(0.78624 0.688302 2.27213e-20)
(-0.0017741 0.019088 -1.12328e-19)
(0.112189 0.000244134 4.00604e-20)
(-0.0540727 -0.0364691 -5.66496e-20)
(1.096 -0.0365114 5.58192e-23)
(1.09235 -0.0312681 -2.42003e-23)
(1.09177 -0.0333636 1.73475e-24)
(1.09422 -0.0373644 0)
(1.12267 0.0406434 0)
(1.11711 0.0432372 9.66456e-22)
(1.10989 0.0438627 -1.2739e-21)
(0.546687 -0.332604 2.00424e-22)
(0.594085 -0.366557 -7.38476e-22)
(0.488444 -0.293515 0)
(0.480181 -0.370449 -2.9741e-21)
(1.1318 -0.096923 1.35792e-21)
(1.12283 -0.0779422 7.23625e-22)
(1.0246 -0.00807734 -1.76735e-21)
(1.0399 -0.0336475 -7.35278e-22)
(1.07194 -0.00582381 -5.26094e-21)
(1.0759 -0.00778796 0)
(1.08545 -0.00653856 2.42189e-21)
(1.07629 0.0035877 0)
(1.07698 0.00232297 -6.9286e-22)
(1.07571 -5.03697e-05 2.57316e-23)
(0.831683 0.166776 -4.00522e-22)
(0.846768 0.152886 2.97923e-22)
(0.832083 0.197218 -2.30943e-23)
(0.855115 0.189603 0)
(1.06508 0.00691958 -5.01756e-21)
(1.06576 0.00079834 0)
(1.07287 0.00898848 4.32427e-21)
(1.07314 0.0156641 -3.37449e-21)
(1.07857 0.00213107 6.43319e-22)
(1.16335 -0.0954091 -4.70172e-24)
(1.17425 -0.0994279 2.0118e-23)
(1.2328 -0.146652 -9.92561e-23)
(1.2358 -0.137421 0)
(1.07269 0.00515208 2.55722e-22)
(1.07201 0.0053887 8.71212e-22)
(1.07108 0.00615026 -1.23177e-21)
(0.517873 -0.318323 -4.46419e-21)
(0.463459 -0.37589 1.57744e-20)
(0.360342 -0.511046 -9.00701e-22)
(0.32634 -0.547776 -8.44143e-24)
(1.10218 0.0351546 -1.90072e-21)
(1.10708 0.0345346 8.08963e-22)
(1.10298 0.0464562 7.7948e-22)
(1.22607 -0.130216 2.38183e-21)
(1.20433 -0.109826 -2.33782e-21)
(1.10554 0.106962 1.14874e-20)
(1.09059 0.105225 -4.72906e-22)
(1.08193 0.0937392 -5.05558e-21)
(1.09495 0.0978123 -1.88701e-21)
(1.12833 0.120788 2.33308e-23)
(1.11726 0.097913 0)
(0.979613 -0.177378 -6.29727e-21)
(0.98739 -0.240761 1.58364e-20)
(0.586525 -0.0748473 -1.3224e-21)
(0.646758 0.0355497 -5.35795e-22)
(0.708479 0.133043 -4.54722e-23)
(0.767109 0.210031 0)
(0.815911 0.264473 -4.34094e-22)
(0.857492 0.300773 4.70496e-22)
(0.889831 0.319643 1.67274e-23)
(0.912971 0.325601 2.38677e-24)
(0.930541 0.321266 3.68431e-23)
(0.941144 0.308964 -5.45594e-23)
(0.946905 0.291239 -4.79404e-23)
(0.947652 0.27066 -1.11944e-22)
(0.941781 0.24993 1.36837e-22)
(0.925674 0.233587 6.07e-23)
(0.906405 0.217657 9.09564e-23)
(0.858622 0.23709 -1.6305e-22)
(0.879655 0.207192 1.44669e-22)
(0.837364 0.224444 -2.05107e-22)
(0.894324 0.260273 2.01319e-23)
(0.875938 0.250411 9.05752e-23)
(0.904845 0.287201 -5.82734e-24)
(0.903286 0.27371 5.07618e-23)
(0.883541 0.305699 2.84619e-23)
(0.897832 0.298929 1.62635e-23)
(0.833889 0.29209 0)
(0.862291 0.30435 -2.36987e-24)
(0.752148 0.222689 -2.87314e-23)
(0.797435 0.266186 0)
(0.643989 0.081719 3.37401e-23)
(0.702447 0.163437 0)
(0.537487 -0.114406 1.82455e-22)
(0.588656 -0.013231 7.51e-23)
(0.502273 -0.204628 1.61319e-21)
(0.715308 0.090293 -1.30275e-21)
(0.647237 -0.021762 -4.50715e-22)
(0.837166 0.254801 -7.87493e-22)
(0.780898 0.184063 6.57843e-22)
(0.91901 0.330922 4.20741e-22)
(0.884341 0.30315 8.1474e-22)
(0.964633 0.342118 2.04153e-22)
(0.947057 0.34316 -5.54754e-22)
(0.981579 0.315018 1.42082e-22)
(0.976077 0.331916 4.4768e-24)
(0.9828 0.269259 -5.8719e-24)
(0.983391 0.293373 -1.1949e-22)
(0.967249 0.220226 1.07759e-22)
(0.977708 0.243704 -1.79635e-22)
(0.92744 0.183731 0)
(0.951162 0.199152 0)
(0.895802 0.171967 -9.22785e-23)
(0.477501 -0.32885 -7.14823e-21)
(0.839822 0.168014 4.46215e-22)
(0.829354 0.191494 -1.98075e-23)
(0.868875 0.15732 1.50983e-23)
(0.49392 -0.416366 2.38603e-22)
(0.512256 -0.276971 3.78492e-21)
(0.819166 0.250161 1.14334e-22)
(0.813693 0.228933 6.86204e-23)
(0.8392 0.273767 -8.35575e-23)
(0.825891 0.265837 -3.26976e-23)
(0.851372 0.28543 9.83417e-23)
(0.848832 0.280367 -8.3587e-23)
(0.831256 0.287316 -2.81823e-23)
(0.846732 0.288666 0)
(0.777555 0.259456 -5.54503e-23)
(0.809252 0.279035 6.08315e-23)
(0.692895 0.177937 -1.13575e-22)
(0.740295 0.227814 -4.72054e-24)
(0.594395 0.0339839 -1.44796e-23)
(0.645588 0.114283 1.48452e-22)
(0.517157 -0.145981 -2.24867e-22)
(0.551343 -0.0545864 4.84964e-23)
(0.519475 -0.292603 0)
(0.507145 -0.227127 -4.07748e-23)
(0.842881 0.133242 -2.24474e-24)
(0.853104 0.134565 1.43622e-22)
(0.654382 -0.0813869 -8.54765e-22)
(0.582666 -0.205344 6.16713e-21)
(0.80333 0.150184 -7.72526e-22)
(0.730977 0.0422111 -4.97412e-22)
(0.918166 0.298342 -1.40843e-22)
(0.865096 0.235525 7.60765e-23)
(0.983879 0.356337 3.78914e-22)
(0.956156 0.336585 -3.70652e-22)
(1.01527 0.353209 -2.03029e-22)
(1.0038 0.36118 0)
(1.02002 0.316315 -1.67843e-23)
(1.01962 0.337445 1.24504e-22)
(1.01297 0.265385 -8.6474e-23)
(1.01705 0.29145 8.57299e-23)
(0.998978 0.211455 -2.5204e-22)
(1.00557 0.238834 2.55928e-22)
(0.970942 0.163784 -1.64617e-23)
(0.986264 0.185903 -8.37795e-24)
(0.915395 0.134602 -3.877e-22)
(0.942992 0.147982 -2.47294e-22)
(0.890335 0.0951079 2.32741e-21)
(0.863724 0.111553 9.3133e-23)
(0.448816 -0.418783 0)
(0.888047 0.120612 0)
(0.646492 -0.384435 3.04295e-22)
(0.522552 -0.447642 6.60591e-22)
(0.708089 -0.297344 -1.31798e-21)
(0.76249 -0.327905 1.22791e-21)
(0.941819 0.0497278 -9.39668e-21)
(0.958467 0.021687 4.44768e-21)
(0.948836 0.0594733 -1.56826e-21)
(0.430596 -0.461548 1.80466e-21)
(0.458733 -0.419931 3.38893e-21)
(0.856658 0.169077 2.69444e-23)
(0.878999 0.129433 -5.44874e-22)
(0.805515 0.245835 0)
(0.817307 0.215724 -2.55277e-23)
(0.792492 0.280253 9.70894e-23)
(0.791892 0.269034 -1.16936e-22)
(0.792133 0.285089 1.71773e-22)
(0.792159 0.285665 -2.07012e-22)
(0.770833 0.27055 5.90163e-22)
(0.786204 0.280718 -4.32833e-22)
(0.719711 0.227882 -7.76105e-23)
(0.750908 0.254482 -1.12523e-22)
(0.642362 0.137667 0)
(0.683774 0.190137 -1.0197e-23)
(0.563029 -0.00210425 -3.02082e-22)
(0.600621 0.0722313 1.47636e-22)
(0.531975 -0.152837 6.50927e-25)
(0.53982 -0.0792085 1.84337e-22)
(0.595399 -0.250686 4.7956e-22)
(0.55271 -0.212492 5.60765e-23)
(0.649612 -0.275411 -4.41078e-22)
(0.96299 0.111452 -2.75279e-22)
(0.936238 0.0983055 0)
(0.605652 -0.248526 -4.37975e-21)
(0.414124 -0.4948 1.08842e-22)
(0.464699 -0.445263 -5.63657e-21)
(0.528171 -0.358707 2.07338e-21)
(0.764433 -0.00517814 2.23065e-21)
(0.678084 -0.133525 -6.95594e-21)
(0.90385 0.206213 -1.94717e-21)
(0.834931 0.107054 2.58174e-21)
(1.00159 0.333652 7.14004e-23)
(0.958673 0.281526 4.75754e-23)
(1.04908 0.373911 0)
(1.02912 0.362494 0)
(1.0615 0.356977 0)
(1.05835 0.370516 0)
(1.0542 0.313002 0)
(1.05932 0.337062 0)
(1.03843 0.258933 -2.80441e-22)
(1.04643 0.286499 3.08663e-22)
(1.02197 0.203613 -1.84957e-24)
(1.02926 0.231837 0)
(1.00238 0.150221 1.70453e-23)
(1.01194 0.176498 8.8018e-24)
(0.984984 0.128373 5.32067e-22)
(0.861323 0.0921506 0)
(0.894835 0.0663118 -6.28065e-23)
(0.870519 0.101085 0)
(0.852178 0.104626 0)
(0.448772 -0.476448 -5.34587e-21)
(0.679386 -0.404019 0)
(0.790323 -0.368994 -4.83746e-22)
(0.774186 -0.416411 5.35033e-22)
(0.848186 -0.374046 5.09223e-22)
(1.00579 0.0237534 2.35929e-21)
(0.911122 0.0846145 -4.98856e-22)
(0.411716 -0.517978 -6.69139e-22)
(0.561467 -0.462751 0)
(0.558138 -0.378744 -1.01033e-21)
(0.407568 -0.511209 0)
(0.476275 -0.45773 9.1864e-22)
(0.386439 -0.54534 3.47195e-22)
(0.695987 -0.43365 -1.11273e-22)
(0.869624 -0.433864 7.43974e-22)
(0.82243 -0.454165 -1.44411e-22)
(0.896134 -0.479099 -2.80545e-21)
(0.943317 -0.45303 2.02113e-21)
(0.979993 -0.492972 0)
(0.905418 0.135004 -8.08089e-23)
(0.946161 0.0846105 1.5791e-23)
(0.823188 0.225221 0)
(0.857271 0.184879 -4.80941e-23)
(0.77323 0.273172 0)
(0.792688 0.254555 0)
(0.74617 0.280049 3.75042e-25)
(0.757597 0.280889 0)
(0.716991 0.255704 -1.23331e-24)
(0.733106 0.271292 0)
(0.668546 0.199876 -1.55977e-24)
(0.695442 0.232126 0)
(0.608009 0.10473 0)
(0.639253 0.158005 0)
(0.565818 -0.0202529 -1.08174e-24)
(0.581511 0.0438938 0)
(0.591223 -0.130998 0)
(0.567688 -0.0812399 0)
(0.701054 -0.189036 0)
(0.640156 -0.167187 0)
(0.810984 -0.247168 -9.19438e-23)
(0.761342 -0.213926 1.18691e-21)
(0.863091 -0.35509 -4.20651e-22)
(0.840239 -0.296325 -8.59044e-22)
(0.919058 -0.398993 -1.32959e-22)
(0.721229 -0.172592 3.93937e-23)
(0.63473 -0.285674 -4.01674e-23)
(0.884678 0.066834 4.34987e-24)
(0.802429 -0.0552976 0)
(1.01213 0.257368 0)
(0.953354 0.171439 0)
(1.08493 0.361262 0)
(1.0542 0.319862 0)
(1.10912 0.381515 0)
(1.1017 0.379372 0)
(1.10171 0.353429 -4.63209e-25)
(1.10803 0.37144 0)
(1.0816 0.304906 0)
(1.09256 0.330614 0)
(1.05919 0.250768 0)
(1.07038 0.278016 0)
(1.03937 0.195753 0)
(1.04873 0.223473 0)
(1.02318 0.141642 3.0434e-23)
(1.03086 0.168491 0)
(0.999944 0.0944992 6.84912e-23)
(1.01309 0.116107 7.01839e-23)
(0.960019 0.063806 5.06591e-22)
(0.981991 0.0774813 -5.53003e-22)
(0.985841 -0.0160742 -1.88366e-22)
(1.05852 -0.0596728 1.50591e-22)
(0.883697 0.0518944 1.55211e-23)
(0.92687 0.0216439 8.72047e-23)
(0.864164 0.0766595 0)
(0.861219 0.0712058 4.65647e-24)
(0.938031 0.0506085 -4.60242e-22)
(0.892405 0.0681194 4.16868e-22)
(0.464343 -0.507664 3.37721e-23)
(0.363603 -0.54135 -1.40058e-21)
(0.416912 -0.497464 1.48497e-21)
(1.00171 0.0467018 0)
(0.986238 0.0327909 0)
(0.416065 -0.548476 6.28794e-22)
(0.597496 -0.470798 4.08961e-22)
(0.979732 -0.432104 -1.72487e-21)
(1.00629 -0.479564 8.20696e-21)
(0.373505 -0.562805 -9.59067e-22)
(0.743971 -0.469365 -4.49059e-22)
(0.81752 -0.505388 5.24137e-22)
(0.920341 -0.525009 1.87989e-21)
(1.07323 -0.0140621 -1.29991e-24)
(1.10491 -0.0524914 8.58537e-22)
(0.9787 0.0900989 0)
(1.02519 0.0387874 0)
(0.877368 0.188137 -1.049e-23)
(0.92627 0.141635 -5.02457e-23)
(0.79652 0.248358 0)
(0.834006 0.222974 0)
(0.739193 0.263207 -4.82862e-25)
(0.765244 0.260939 0)
(0.69455 0.237574 2.83092e-24)
(0.716284 0.254585 0)
(0.650362 0.177175 1.53069e-24)
(0.672527 0.211315 0)
(0.614188 0.0862346 0)
(0.629888 0.134611 0)
(0.61713 -0.0145215 5.37686e-24)
(0.608517 0.0348001 0)
(0.689405 -0.0876751 0)
(0.64458 -0.0562661 0)
(0.798191 -0.13536 0)
(0.745351 -0.111122 0)
(0.867188 -0.21846 6.64975e-24)
(0.841127 -0.171358 -1.81714e-22)
(0.913674 -0.327941 3.00611e-22)
(0.889393 -0.272872 8.658e-23)
(0.945661 -0.38083 2.14352e-22)
(0.513324 -0.43799 -9.42788e-22)
(0.311821 -0.489783 3.47676e-21)
(0.370946 -0.450453 0)
(0.436805 -0.461284 1.42802e-21)
(0.678986 -0.306432 -1.13891e-21)
(0.585838 -0.389772 -1.43599e-21)
(0.857839 -0.0935766 0)
(0.768982 -0.205858 0)
(1.01638 0.134716 4.81026e-24)
(0.940643 0.0220445 0)
(1.11938 0.299737 -3.56948e-24)
(1.07469 0.226284 0)
(1.16211 0.376045 0)
(1.14766 0.348851 0)
(1.15885 0.379018 0)
(1.16485 0.384334 0)
(1.13261 0.342861 4.63087e-25)
(1.14723 0.363945 0)
(1.10183 0.292697 0)
(1.11723 0.318589 0)
(1.07439 0.239771 0)
(1.08758 0.266334 0)
(1.05261 0.187266 0)
(1.06292 0.213626 0)
(1.03736 0.135097 -1.72052e-23)
(1.0444 0.161012 6.2195e-26)
(1.02422 0.0849148 -1.40379e-22)
(1.03132 0.109177 -8.19575e-24)
(1.01522 0.0640232 5.52851e-22)
(1.14581 -0.117358 5.58196e-22)
(1.0184 -0.0538139 -8.96684e-23)
(1.08286 -0.0882447 -2.18654e-22)
(0.911387 0.0110325 -3.19097e-23)
(0.959494 -0.0198419 1.74174e-22)
(0.866391 0.0486004 1.13323e-22)
(0.877467 0.0356486 3.59185e-23)
(0.919285 0.03627 0)
(0.88144 0.0480614 -8.74346e-23)
(0.967851 0.0202769 0)
(0.494009 -0.520136 0)
(1.18919 -0.1199 1.27384e-21)
(1.20178 -0.134564 1.27531e-21)
(0.300603 -0.392768 0)
(1.2018 -0.110459 -2.24117e-21)
(0.432401 -0.555509 1.21666e-21)
(0.648264 -0.489139 0)
(0.365877 -0.560237 -6.52047e-22)
(0.741589 -0.514839 4.8083e-22)
(1.00079 -0.00313611 -9.9495e-22)
(0.297764 -0.529747 9.76221e-22)
(0.844108 -0.544342 -4.91332e-22)
(0.296642 -0.445732 -4.59904e-21)
(0.944444 -0.567277 0)
(1.2235 -0.138266 -1.54107e-21)
(1.01164 0.00842207 -5.79995e-22)
(1.14774 -0.0470999 -4.7402e-22)
(1.17085 -0.0826407 1.51687e-21)
(1.06503 0.0451875 1.19814e-22)
(1.10834 -0.00392403 -1.87364e-22)
(0.961522 0.141864 1.16819e-23)
(1.01483 0.0937451 6.94553e-24)
(0.863913 0.209901 0)
(0.912021 0.179625 0)
(0.784297 0.234474 4.82869e-25)
(0.821572 0.227601 0)
(0.726066 0.214883 -3.46359e-24)
(0.752909 0.229341 0)
(0.687413 0.160089 2.59177e-24)
(0.704226 0.190863 0)
(0.678586 0.0843427 0)
(0.678185 0.123271 0)
(0.71996 0.0125786 -6.78967e-24)
(0.692465 0.0462109 0)
(0.805649 -0.0400212 0)
(0.76024 -0.0153741 0)
(0.880005 -0.102069 0)
(0.848174 -0.0669782 0)
(0.919468 -0.199289 1.93815e-23)
(0.902105 -0.148146 1.61519e-24)
(0.964822 -0.301821 3.67968e-22)
(0.939008 -0.25225 -3.91166e-22)
(1.03046 -0.395086 0)
(0.995975 -0.350755 5.58033e-25)
(1.11355 -0.477205 0)
(1.06895 -0.436073 0)
(0.490709 -0.390819 -2.62026e-22)
(0.400033 -0.359167 -4.34079e-21)
(0.650748 -0.363986 -6.59919e-22)
(0.567493 -0.392739 6.82831e-22)
(0.832582 -0.224934 5.64536e-21)
(0.736317 -0.307645 -3.38068e-22)
(1.01276 -0.0151885 4.13539e-21)
(0.922085 -0.125885 -1.07045e-21)
(1.14677 0.188329 -4.72696e-24)
(1.08382 0.0888928 -5.67811e-21)
(1.21671 0.324939 3.56936e-24)
(1.18998 0.26667 0)
(1.22431 0.376082 -3.09393e-28)
(1.22696 0.360221 3.6834e-28)
(1.19469 0.365623 0)
(1.21238 0.376259 0)
(1.15372 0.326084 0)
(1.17452 0.347915 0)
(1.11574 0.277606 0)
(1.13401 0.30231 0)
(1.0852 0.227869 0)
(1.09953 0.252803 0)
(1.06252 0.178661 0)
(1.07302 0.203387 0)
(1.04743 0.129397 -3.15148e-23)
(1.05426 0.154154 -2.53313e-22)
(1.03843 0.081018 0)
(1.04333 0.105064 2.6957e-22)
(1.02834 0.0379505 -2.67702e-22)
(1.03661 0.0580698 0)
(1.02547 0.0203221 7.97856e-22)
(1.05878 -0.565391 2.48262e-21)
(1.14599 -0.520748 7.34288e-21)
(1.1614 -0.1349 -5.93001e-22)
(1.22174 -0.147573 0)
(1.20436 -0.144761 4.18098e-22)
(1.04955 -0.0868002 4.55426e-23)
(1.10754 -0.114344 1.53753e-22)
(0.939547 -0.0260163 0)
(0.992101 -0.056753 -4.52608e-23)
(0.876445 0.0183044 -7.04149e-23)
(0.898507 0.000575294 1.43598e-23)
(0.906705 0.0197997 0)
(0.878651 0.0249858 5.57104e-23)
(0.952202 0.00745061 0)
(0.536225 -0.52379 0)
(0.448793 -0.550756 3.18961e-22)
(0.661819 -0.515005 -4.62025e-22)
(0.990897 -0.015457 8.95625e-22)
(1.04316 -0.00247117 0)
(1.03308 -0.019872 2.81855e-21)
(0.364538 -0.540108 6.15427e-22)
(0.757484 -0.550837 0)
(0.264465 -0.498431 -1.29959e-21)
(0.859087 -0.573859 8.92371e-22)
(0.229737 -0.418215 1.78762e-22)
(0.988143 -0.57695 -6.81101e-21)
(0.33328 -0.30402 2.8272e-21)
(1.17666 -0.550499 4.92984e-21)
(1.10386 -0.574809 -5.03821e-21)
(1.24037 -0.142616 0)
(1.2196 -0.152722 3.97372e-23)
(1.40165 -0.448772 -6.37421e-21)
(1.23747 -0.121973 -7.62266e-22)
(1.24457 -0.1347 0)
(1.21135 -0.0724222 -1.78812e-22)
(1.22931 -0.100137 -1.55531e-22)
(1.15254 0.00457258 1.07647e-27)
(1.18603 -0.0369276 9.53257e-23)
(1.0638 0.0933783 -1.11194e-23)
(1.10931 0.0496672 1.76716e-23)
(0.965226 0.165174 0)
(1.0137 0.133014 0)
(0.87763 0.199096 -5.08612e-25)
(0.918796 0.187367 0)
(0.814614 0.190875 3.83368e-24)
(0.84263 0.19958 0)
(0.7838 0.150657 -2.59175e-24)
(0.794898 0.173481 0)
(0.79359 0.0966569 -3.37622e-24)
(0.783495 0.12386 0)
(0.842703 0.0459934 -3.58312e-26)
(0.814739 0.070418 0)
(0.900603 -0.00756525 0)
(0.873736 0.0210955 0)
(0.932215 -0.0865618 0)
(0.920085 -0.0434883 0)
(0.954618 -0.18432 0)
(0.942229 -0.135009 0)
(0.995533 -0.278967 6.40695e-26)
(0.972582 -0.23259 0)
(1.05681 -0.364631 -6.27429e-23)
(1.0241 -0.324602 6.89964e-24)
(1.14176 -0.439956 -1.09144e-21)
(1.09642 -0.402684 6.18458e-23)
(1.23545 -0.500731 2.00998e-21)
(1.1903 -0.472905 0)
(1.2179 -0.55215 0)
(1.33627 -0.497258 -8.21888e-20)
(1.28476 -0.51225 2.37601e-20)
(0.666824 -0.330095 -3.26159e-22)
(0.532276 -0.272241 2.43793e-21)
(0.58785 -0.317042 2.56648e-21)
(0.83195 -0.283737 5.98306e-22)
(0.749165 -0.319494 -9.16701e-22)
(1.00813 -0.141891 0)
(0.916195 -0.224672 -1.60777e-22)
(1.16466 0.0518642 4.52419e-24)
(1.08837 -0.0492253 0)
(1.26491 0.227221 0)
(1.223 0.145145 0)
(1.29333 0.333231 0)
(1.2875 0.290286 0)
(1.26687 0.362859 0)
(1.28498 0.356054 0)
(1.21731 0.344467 0)
(1.2433 0.357602 0)
(1.16718 0.305733 0)
(1.19165 0.326478 0)
(1.1253 0.261012 0)
(1.14519 0.283687 0)
(1.09311 0.215415 3.46254e-25)
(1.10826 0.238262 0)
(1.06988 0.17003 0)
(1.08079 0.192783 0)
(1.05489 0.124563 0)
(1.06194 0.147475 0)
(1.04774 0.0790903 -8.73056e-25)
(1.05139 0.101909 0)
(1.04561 0.0351687 2.70805e-22)
(1.04795 0.0568557 0)
(1.04665 0.0177154 -3.95668e-22)
(1.17166 -0.148286 1.66173e-23)
(1.20491 -0.153204 -7.818e-22)
(1.0757 -0.112991 3.80725e-23)
(1.12768 -0.134418 1.05021e-22)
(0.967401 -0.058469 -5.67517e-28)
(1.02031 -0.0867413 -3.83559e-23)
(0.890969 -0.0109206 1.70952e-28)
(0.921755 -0.0316739 0)
(0.899748 0.00144001 5.9656e-24)
(0.882109 0.000770754 4.17953e-23)
(0.940223 -0.00639531 -4.63955e-22)
(0.560341 -0.528325 0)
(1.24693 -0.135693 0)
(1.05888 -0.00257377 2.14041e-22)
(1.06035 -0.0191461 -8.03304e-22)
(0.4618 -0.53897 8.97004e-23)
(0.668677 -0.543446 0)
(0.351641 -0.507535 -6.18372e-22)
(0.754368 -0.575911 -8.82167e-22)
(0.242556 -0.444362 0)
(0.872966 -0.58632 6.46993e-21)
(0.227954 -0.336373 -8.34277e-22)
(0.50714 -0.221786 1.36505e-21)
(0.301018 -0.231534 2.4475e-21)
(0.98722 -0.595586 -4.72947e-21)
(1.1083 -0.576293 0)
(1.23738 -0.536908 9.2211e-21)
(1.32314 -0.503906 -1.07226e-20)
(1.371 -0.440486 0)
(1.43013 -0.397164 2.57927e-21)
(1.41473 -0.415353 4.61638e-20)
(1.26206 -0.122516 4.08727e-22)
(1.25657 -0.131562 0)
(1.25837 -0.085969 -6.75122e-23)
(1.26316 -0.107162 0)
(1.22549 -0.0242137 -1.92122e-27)
(1.24593 -0.0583463 6.88046e-23)
(1.16142 0.0528652 0)
(1.19655 0.0137633 6.70316e-29)
(1.07877 0.122913 0)
(1.12097 0.0903495 0)
(0.998329 0.164327 5.08655e-25)
(1.03677 0.147957 -5.23949e-29)
(0.939148 0.169986 -2.99428e-26)
(0.965203 0.171224 0)
(0.912553 0.147787 -2.74461e-24)
(0.92158 0.161293 -1.85575e-28)
(0.919563 0.111371 3.37625e-24)
(0.91266 0.130478 0)
(0.944323 0.0660489 3.68431e-24)
(0.931672 0.0900333 2.56872e-28)
(0.961541 0.00315087 3.36832e-24)
(0.955101 0.0372698 2.54247e-28)
(0.96755 -0.0807114 0)
(0.964918 -0.036955 0)
(0.984617 -0.170347 0)
(0.973617 -0.126103 0)
(1.02301 -0.254207 1.07106e-25)
(1.00143 -0.213209 0)
(1.08098 -0.330381 1.38643e-22)
(1.04993 -0.294005 -1.47113e-22)
(1.16214 -0.395313 1.41743e-21)
(1.11825 -0.365484 -2.07712e-22)
(1.26226 -0.441837 -6.25416e-21)
(1.21074 -0.421554 -1.50399e-22)
(1.31373 -0.451991 4.28781e-21)
(0.779373 -0.251877 7.34638e-22)
(0.503679 -0.158539 -4.89599e-21)
(0.764064 -0.183546 2.50332e-21)
(0.760528 -0.222059 -2.63531e-21)
(0.883658 -0.273937 2.26215e-23)
(0.820474 -0.272497 0)
(1.03374 -0.211221 7.09048e-23)
(0.952639 -0.254759 1.60262e-22)
(1.18297 -0.0708806 -2.07436e-21)
(1.10539 -0.150596 2.19207e-22)
(1.3019 0.101937 -4.45957e-24)
(1.2479 0.0145032 2.32772e-21)
(1.35581 0.246154 0)
(1.33755 0.180494 0)
(1.34294 0.32334 0)
(1.35634 0.293555 0)
(1.29086 0.338598 0)
(1.31969 0.33704 0)
(1.22984 0.318502 0)
(1.26024 0.331384 0)
(1.17554 0.283597 -3.85729e-25)
(1.20156 0.302096 0)
(1.13215 0.243753 0)
(1.15263 0.263992 0)
(1.09933 0.20267 -6.39866e-25)
(1.11475 0.223325 0)
(1.07585 0.161303 0)
(1.0869 0.182101 0)
(1.0608 0.119636 0)
(1.06795 0.140658 0)
(1.05395 0.0775617 8.60634e-25)
(1.0574 0.0988201 0)
(1.05448 0.0362581 1.0225e-22)
(1.05502 0.0565494 -2.49591e-22)
(1.05859 0.0171272 3.93015e-24)
(1.215 -0.153449 -1.27106e-22)
(1.2234 -0.134907 -1.72644e-22)
(1.22361 -0.145362 2.28872e-22)
(1.17889 -0.156784 1.65402e-22)
(1.20416 -0.157351 2.69547e-22)
(1.09663 -0.132229 0)
(1.14232 -0.148215 0)
(0.99355 -0.0855389 5.67509e-28)
(1.04543 -0.110614 0)
(0.908553 -0.0381801 3.91267e-29)
(0.945564 -0.0600502 0)
(0.898627 -0.0177709 2.53403e-23)
(0.890553 -0.0232369 0)
(0.982657 -0.0279388 -4.66186e-22)
(0.932701 -0.0208871 2.9228e-22)
(1.06155 -0.0329797 1.07631e-21)
(1.02875 -0.0328659 -1.47727e-21)
(0.572018 -0.534734 3.16735e-28)
(0.453443 -0.521049 -1.09689e-21)
(0.651875 -0.562882 0)
(0.323343 -0.467149 7.7133e-22)
(0.750391 -0.583266 1.2128e-21)
(1.06106 -0.0444975 -4.00739e-22)
(1.07837 -0.0282395 1.84454e-22)
(1.08301 -0.0401662 1.90894e-22)
(0.205332 -0.37352 6.37056e-22)
(0.184558 -0.256512 0)
(0.28776 -0.147522 -2.50389e-21)
(0.779601 -0.146775 0)
(0.52141 -0.0986968 0)
(0.862928 -0.590977 6.55891e-22)
(0.98229 -0.576883 6.47635e-22)
(1.11578 -0.54459 -1.42119e-20)
(1.22659 -0.505865 -2.83605e-21)
(1.3382 -0.426901 -6.09813e-21)
(1.21884 -0.123652 -2.01604e-23)
(1.45849 -0.377421 -3.85674e-21)
(1.42368 -0.349113 -2.52057e-20)
(1.48409 -0.320238 0)
(1.21133 -0.132283 -9.88057e-23)
(1.2068 -0.122228 2.06926e-23)
(1.24502 -0.125272 -7.85021e-23)
(1.23239 -0.125912 6.13273e-23)
(1.26932 -0.115667 -1.66473e-22)
(1.25814 -0.122239 6.83951e-23)
(1.28243 -0.0881854 1.71167e-22)
(1.2778 -0.104441 -2.51717e-22)
(1.27395 -0.0399868 1.37953e-27)
(1.28123 -0.0667866 0)
(1.23728 0.0241692 8.1636e-29)
(1.25891 -0.00903724 0)
(1.17831 0.0886973 0)
(1.20961 0.057765 0)
(1.1133 0.13437 0)
(1.14521 0.114815 0)
(1.06026 0.151625 -1.93763e-24)
(1.08438 0.146522 0)
(1.02901 0.143021 2.74479e-24)
(1.04187 0.14997 0)
(1.01643 0.114879 -1.8844e-28)
(1.02125 0.130994 2.20957e-28)
(1.00919 0.0682392 0)
(1.01318 0.0938924 0)
(0.998944 0.00147395 -3.06854e-25)
(1.00436 0.03704 0)
(0.994846 -0.0782271 0)
(0.995222 -0.0377415 0)
(1.00973 -0.158397 1.7723e-24)
(0.999752 -0.118948 0)
(1.04503 -0.233286 7.49724e-25)
(1.02509 -0.196721 0)
(1.09965 -0.300312 -3.2588e-26)
(1.07013 -0.268001 0)
(1.17459 -0.355738 -2.69525e-22)
(1.13504 -0.330334 0)
(1.26919 -0.391811 -5.89893e-23)
(1.22049 -0.37686 2.72177e-22)
(1.36921 -0.39522 2.58309e-21)
(1.31969 -0.398811 -2.38438e-21)
(1.45914 -0.343238 0)
(1.41832 -0.372647 1.79014e-21)
(0.990101 -0.198884 2.33827e-21)
(0.81218 -0.10745 -2.04344e-21)
(0.987223 -0.133801 -2.51706e-21)
(0.983233 -0.170925 -7.5459e-22)
(1.01423 -0.235398 -5.90431e-22)
(0.993774 -0.22121 0)
(1.10063 -0.225463 -5.86671e-24)
(1.05095 -0.237664 5.63622e-22)
(1.21908 -0.14826 -6.6543e-23)
(1.15594 -0.196387 1.56857e-22)
(1.3299 -0.0159035 3.45023e-24)
(1.27597 -0.0874813 4.1415e-28)
(1.40211 0.131729 0)
(1.37284 0.0587216 0)
(1.41004 0.245235 -2.77267e-24)
(1.41387 0.194903 4.72827e-28)
(1.3657 0.300766 0)
(1.39257 0.280007 0)
(1.29935 0.309082 0)
(1.33354 0.309412 0)
(1.23413 0.291032 0)
(1.26585 0.302229 0)
(1.17932 0.261101 4.11378e-26)
(1.20535 0.276973 0)
(1.1363 0.226409 0)
(1.15653 0.244113 0)
(1.10388 0.189903 2.93612e-25)
(1.11905 0.208325 0)
(1.08065 0.152573 0)
(1.09146 0.171387 0)
(1.06571 0.114665 0)
(1.0726 0.133829 0)
(1.05887 0.076358 -2.04507e-22)
(1.06185 0.0955906 2.17392e-22)
(1.06019 0.0380837 5.51037e-23)
(1.05926 0.0571851 1.76693e-24)
(1.06802 0.00155936 -1.95261e-22)
(1.06388 0.0199645 -5.2159e-23)
(1.07282 -0.014416 0)
(1.20847 -0.151649 0)
(1.21336 -0.142706 9.60849e-23)
(1.18176 -0.160405 0)
(1.20105 -0.15773 0)
(1.11262 -0.145145 0)
(1.15181 -0.156297 0)
(1.01692 -0.106853 0)
(1.06632 -0.128111 0)
(0.927427 -0.0623319 7.63701e-28)
(0.968484 -0.0837804 0)
(0.901276 -0.0368963 -2.20394e-23)
(0.902095 -0.045704 3.38294e-24)
(0.973875 -0.040263 3.53634e-22)
(0.92755 -0.0360913 0)
(1.02239 -0.0442744 4.40521e-22)
(0.557519 -0.537462 0)
(1.48752 -0.307077 1.99412e-21)
(1.49222 -0.269622 -1.39852e-20)
(1.50748 -0.259813 -3.41198e-20)
(0.429188 -0.493484 -8.25891e-22)
(0.631189 -0.564621 -5.8082e-28)
(1.06129 -0.0539087 4.24837e-22)
(1.08771 -0.0497814 -3.8897e-22)
(0.289216 -0.40801 7.60988e-22)
(0.177187 -0.287398 0)
(0.160112 -0.154892 -6.63324e-22)
(0.289356 -0.0604735 -1.65965e-21)
(0.568372 -0.0445683 4.02233e-21)
(0.99459 -0.091134 5.2927e-23)
(0.8501 -0.0670642 -2.06009e-21)
(0.840961 -0.562208 6.95169e-26)
(0.966151 -0.533913 4.40185e-21)
(1.08761 -0.489692 1.28059e-21)
(1.21643 -0.421974 -3.4275e-21)
(1.31474 -0.356225 0)
(1.40806 -0.279888 -1.4824e-20)
(1.19859 -0.126406 -5.16591e-23)
(1.19261 -0.114836 -1.12858e-23)
(1.21011 -0.111084 -8.36973e-26)
(1.09208 -0.0326698 6.93979e-22)
(1.08463 -0.0209626 -3.57056e-22)
(1.20098 -0.113208 3.29735e-23)
(0.72401 -0.572175 -7.55178e-28)
(1.23711 -0.112546 7.56675e-23)
(1.22377 -0.113948 -5.96386e-23)
(1.26468 -0.10491 0)
(1.25113 -0.110396 -2.89429e-23)
(1.28664 -0.0829091 -1.07345e-27)
(1.27649 -0.0959241 -4.39175e-24)
(1.29425 -0.0448432 -2.69642e-28)
(1.29266 -0.0658647 0)
(1.27979 0.00759069 -8.16346e-29)
(1.28995 -0.0197697 0)
(1.2431 0.0640707 0)
(1.26368 0.0363994 0)
(1.19384 0.109201 0)
(1.21907 0.0890095 0)
(1.14535 0.132075 0)
(1.16874 0.123728 0)
(1.10556 0.130211 -2.4289e-24)
(1.12424 0.134063 -1.67833e-28)
(1.07357 0.105213 0)
(1.08894 0.12036 0)
(1.04531 0.0587074 1.88112e-28)
(1.05912 0.0843402 -2.20479e-28)
(1.02331 -0.00499773 -3.06192e-24)
(1.03305 0.0283176 2.11831e-28)
(1.01656 -0.0764772 1.56846e-28)
(1.01766 -0.0405678 -1.83707e-28)
(1.02962 -0.14716 -1.77219e-24)
(1.02075 -0.112358 -1.342e-28)
(1.06178 -0.213035 0)
(1.04351 -0.18095 0)
(1.11255 -0.270996 -1.46618e-26)
(1.08498 -0.243239 3.65746e-29)
(1.18237 -0.316795 0)
(1.14532 -0.296034 0)
(1.27133 -0.341706 0)
(1.22553 -0.332449 0)
(1.36718 -0.337879 -1.59316e-21)
(1.32048 -0.344656 1.04425e-21)
(1.45726 -0.292533 1.3976e-21)
(1.4136 -0.32047 -2.00377e-21)
(1.4999 -0.206777 1.87461e-20)
(1.53248 -0.213192 -9.08067e-21)
(1.49636 -0.257356 1.83068e-20)
(1.08722 -0.130157 9.46712e-22)
(1.00025 -0.0412146 -5.26698e-23)
(1.06868 -0.0426359 -1.17981e-21)
(1.07583 -0.0886441 0)
(1.12642 -0.190631 6.93209e-22)
(1.10464 -0.164513 -1.37535e-21)
(1.18026 -0.212688 4.13772e-22)
(1.14957 -0.207663 0)
(1.2602 -0.185927 6.0103e-24)
(1.21701 -0.206443 1.27697e-22)
(1.3505 -0.104042 0)
(1.30424 -0.152833 0)
(1.4242 0.0167693 -2.1749e-24)
(1.39093 -0.0466516 0)
(1.45272 0.139762 -3.38084e-28)
(1.44526 0.0800802 4.02198e-28)
(1.42692 0.22847 5.99873e-25)
(1.44575 0.189741 0)
(1.36602 0.270664 -2.44806e-28)
(1.3991 0.25488 2.91402e-28)
(1.29601 0.277366 0)
(1.33095 0.277401 0)
(1.23224 0.26347 -6.45401e-25)
(1.26294 0.272214 1.20546e-28)
(1.17971 0.239062 3.44591e-25)
(1.2046 0.25215 0)
(1.13844 0.209515 -1.54749e-29)
(1.15783 0.22472 1.84392e-29)
(1.10711 0.177442 -2.06578e-25)
(1.12172 0.1937 0)
(1.08446 0.144015 0)
(1.09488 0.160868 0)
(1.06973 0.10975 -5.52614e-25)
(1.07628 0.127011 0)
(1.06271 0.0750107 3.05898e-24)
(1.06538 0.0924028 -1.93772e-22)
(1.06338 0.0405348 -4.75464e-23)
(1.06216 0.057625 1.89728e-22)
(1.07139 0.00754873 5.74781e-22)
(1.06656 0.0242382 0)
(1.07742 -0.00714001 -3.69573e-22)
(1.20046 -0.14753 0)
(1.20255 -0.137707 5.18658e-23)
(1.18162 -0.160148 -1.38136e-23)
(1.19568 -0.155272 0)
(1.12419 -0.152468 0)
(1.15771 -0.159394 1.36242e-23)
(1.03695 -0.122508 0)
(1.08299 -0.13977 0)
(0.946172 -0.0826386 9.42778e-28)
(0.989438 -0.102511 0)
(0.907943 -0.0551243 4.42118e-23)
(0.915626 -0.0658892 -3.4178e-24)
(0.969914 -0.0519818 1.12853e-22)
(0.927622 -0.0507744 -9.01768e-23)
(1.01888 -0.0542182 0)
(0.529839 -0.528338 0)
(1.10007 -0.0427022 0)
(0.389584 -0.448922 0)
(0.242799 -0.327302 2.51538e-26)
(0.13542 -0.182815 0)
(0.144103 -0.0489799 1.08245e-21)
(0.320932 0.0219495 -1.17093e-21)
(0.627199 0.000920311 1.06051e-21)
(0.806372 -0.50425 -1.11713e-25)
(0.928478 -0.457721 -2.94656e-24)
(1.0643 -0.396032 5.03493e-21)
(1.17597 -0.335836 -7.5787e-21)
(0.88608 -0.0197831 0)
(1.07037 0.00513554 2.36888e-23)
(1.01078 0.0121097 0)
(1.28685 -0.261053 1.39184e-20)
(1.40669 -0.199927 3.85638e-20)
(1.53723 -0.179549 8.81832e-22)
(1.18636 -0.104 -8.69946e-23)
(0.596903 -0.541721 1.57195e-27)
(1.52851 -0.174594 -3.98059e-21)
(0.696589 -0.530904 1.853e-27)
(1.11345 -0.0379988 -1.85692e-21)
(1.20122 -0.101195 -4.42545e-25)
(1.18568 -0.0989411 -2.42159e-24)
(1.22616 -0.100422 0)
(1.21123 -0.100694 -2.48481e-23)
(1.25305 -0.092548 -8.577e-28)
(1.23865 -0.0971923 2.26343e-23)
(1.27723 -0.0739861 2.44335e-28)
(1.26542 -0.0846201 -3.24387e-28)
(1.29218 -0.042923 -2.29036e-28)
(1.28618 -0.0599783 0)
(1.29078 -0.000101012 -1.47489e-30)
(1.29382 -0.0225649 1.73178e-30)
(1.26952 0.0474206 0)
(1.28245 0.0238471 0)
(1.23234 0.0879508 0)
(1.25235 0.0694137 0)
(1.18769 0.110793 9.7101e-29)
(1.21033 0.102051 -1.1395e-28)
(1.14269 0.110864 2.42905e-24)
(1.16491 0.113712 0)
(1.10067 0.0878506 1.59656e-28)
(1.12116 0.10202 -1.87199e-28)
(1.06455 0.0445782 2.62028e-24)
(1.08159 0.0682801 0)
(1.04017 -0.0125792 -2.41504e-24)
(1.05049 0.0170503 0)
(1.03315 -0.0752293 0)
(1.03443 -0.0438241 0)
(1.04441 -0.13721 1.28297e-24)