/*--------------------------------*- C++ -*----------------------------------*\
  =========                 |
  \\      /  F ield         | OpenFOAM: The Open Source CFD Toolbox
   \\    /   O peration     | Website:  https://openfoam.org
    \\  /    A nd           | Version:  10
     \\/     M anipulation  |
\*---------------------------------------------------------------------------*/
FoamFile
{
    format      ascii;
    class       volScalarField;
    location    "15";
    object      p;
}
// * * * * * * * * * * * * * * * * * * * * * * * * * * * * * * * * * * * * * //

dimensions      [0 2 -2 0 0 0 0];

internalField   nonuniform List<scalar> 
6397
(
0.276947
0.266282
0.00815527
0.00847162
0.00932912
0.00901675
0.490714
0.258878
-0.347307
-0.32251
0.29474
0.174464
-0.00509789
-0.00659722
-0.0130333
-0.493761
-0.483674
-0.465611
0.838287
0.785913
0.747407
-0.334461
-0.296816
-0.286025
-0.00591789
-0.00784933
-0.00531883
0.00159261
0.000578818
0.00353886
0.00273791
0.00832535
0.00812605
0.00874563
0.00699787
0.00699744
0.00784894
0.00769348
0.00533849
0.00530051
0.00613905
0.00621387
0.00378087
0.00906239
0.00859026
0.00867591
0.00934461
0.00898591
0.00361515
0.00325519
0.00286733
0.00211126
0.00277389
0.302475
0.284927
0.177412
0.188361
0.0181621
-0.0387416
-0.0259014
-0.0539436
-0.0705924
-0.0862113
-0.0985393
-0.103656
-0.10134
-0.0908454
-0.0771458
-0.0208337
-0.0159697
-0.0126385
-0.0310827
-0.0426927
-0.0542164
-0.0641718
-0.0701853
-0.070515
-0.0646397
-0.0547229
-0.0438899
-0.00695125
-0.00889528
-0.0636778
-0.036965
-0.00322846
-0.00411223
-0.055912
-0.0361144
-0.00111304
-0.00121681
-0.0544405
-0.0409654
3.54586e-05
0.000274544
-0.0586343
-0.0504402
-0.000558358
-0.00128348
-0.000264406
-0.00395256
-0.00160892
-0.0133562
-0.00777699
-0.0277404
-0.0202945
-0.0390159
-0.0345694
-0.0365815
-0.0400576
-0.0215278
-0.0297277
-0.0146947
-0.0158333
-0.0282273
-0.0193792
-0.0414577
-0.0774073
-0.0650921
-0.0681797
-0.111661
-0.0930663
-0.134709
-0.127475
-0.121269
-0.133416
-0.0817707
-0.102837
-0.0435731
-0.0611722
-0.018229
-0.0290798
-0.00477778
-0.0102574
0.00127072
-0.00109714
-0.000433777
0.00184844
-0.00356596
-0.0605349
-0.0654518
-0.0683754
-0.0674296
-0.0628128
-0.0870541
-0.0544611
-0.083085
0.00453645
-0.00304992
-0.00711198
0.00528295
-0.0680296
0.000521655
-0.000626133
0.000227324
0.000891598
-0.00417516
-0.001441
-0.0110139
-0.00762524
-0.0135157
-0.0133994
-0.00581613
-0.0110235
0.00474344
0.000132986
0.00152763
0.0054037
-0.0176325
-0.0063782
-0.0331097
-0.0975589
-0.0796877
-0.142431
-0.120062
-0.159865
-0.15746
-0.137116
-0.154275
-0.0886758
-0.113479
-0.0465552
-0.065784
-0.0198693
-0.031402
-0.00543745
-0.0113914
0.00156312
-0.00124997
0.00339481
-0.00192562
0.00143992
-0.0120282
-0.00677503
-0.0621244
-0.0750587
-0.0874544
-0.0468934
-0.0753607
-0.120223
-0.122055
-0.0411073
-0.0641816
-0.0341998
0.00349178
0.00581116
-0.0171833
-0.0164666
-0.0219196
0.00624552
0.00526004
-0.0834847
-0.00480987
-0.0102744
0.00229493
-0.000723487
0.00548222
0.00436175
0.00594872
0.00593331
0.00580307
0.00563016
0.0100432
0.00689804
0.0190372
0.0140829
0.022815
0.0223048
0.0124109
0.0191324
-0.00911022
0.00293616
-0.025306
-0.064835
-0.0505069
-0.112452
-0.0857848
-0.166572
-0.141153
-0.184645
-0.181479
-0.145407
-0.168732
-0.0909636
-0.118053
-0.0473816
-0.0670979
-0.020491
-0.0321422
-0.00577452
-0.011969
0.001671
-0.00134783
0.00378447
-0.00523131
-0.000181233
-0.0112313
-0.112263
-0.0871208
-0.117268
-0.0278634
-0.0682926
-0.166259
-0.165299
-0.0214324
-0.025845
0.00226948
0.00556406
0.00560358
0.00672722
-0.019661
-0.024766
-0.158002
-0.210858
-0.219418
0.00700221
-0.105257
-0.00606211
-0.0130636
0.00501485
-1.97652e-05
0.0123233
0.00903236
0.0174443
0.015036
0.0227693
0.0199607
0.0302228
0.0262902
0.0363497
0.0339751
0.0330199
0.0361374
0.0194639
0.0271714
-0.00231304
0.00980462
-0.0386953
-0.0182079
-0.0992786
-0.0652412
-0.190423
-0.141082
-0.011781
0.0189583
0.00417061
-0.0556062
-0.0310028
-0.121407
-0.0864771
-0.180193
-0.154525
-0.188629
-0.1924
-0.143699
-0.170036
-0.0874963
-0.114781
-0.0453917
-0.0642377
-0.0198883
-0.0309187
-0.00573017
-0.011732
0.00179435
-0.00136865
0.00404738
-0.00886545
-0.00250105
-0.0154666
-0.0209011
0.0342467
-0.26681
-0.242951
-0.102247
-0.153985
-0.027895
0.00744294
0.00578882
0.00702538
-0.0720776
-0.214318
0.0509694
-0.0111414
-0.274567
-0.318492
-0.292828
0.00760799
-0.132164
-0.0211227
-0.0275456
-0.0256524
-0.0067858
-0.0146951
0.00811159
0.000865959
0.0199186
0.0144439
0.0293124
0.0248337
0.0377285
0.0336208
0.0443522
0.0414867
0.0452633
0.0457651
0.0378202
0.0425316
0.0236716
0.0314331
0.00240679
0.0141725
-0.0309504
-0.0124707
-0.0836257
-0.0544972
-0.161578
-0.119872
-0.252108
-0.206958
0.0629091
0.0989322
0.0818123
0.017669
0.0417857
-0.0450465
-0.0109735
-0.123497
-0.0837476
-0.180983
-0.157752
-0.180122
-0.187856
-0.132418
-0.159317
-0.079342
-0.104613
-0.0413903
-0.0582901
-0.0184375
-0.0284009
-0.00539521
-0.0109903
0.00183064
-0.00122316
0.00409877
0.0677972
0.11251
-0.332651
-0.289451
0.00825877
0.0079773
0.00739026
0.00854923
-2.12736e-05
0.00458398
-0.0127389
-0.006045
-0.0245759
-0.0191749
-0.0288031
-0.027985
-0.0270398
-0.118671
-0.194851
-0.0727748
-0.263899
0.00395894
-0.323899
0.120565
0.0833033
-0.357529
-0.31283
-0.355004
-0.0244521
-0.0231262
-0.161366
-0.0202216
-0.023692
-0.00682982
-0.0145235
0.0102579
0.0015161
0.0256363
0.0183131
0.037755
0.0321004
0.0465205
0.0426019
0.0505265
0.0492844
0.0479987
0.0502212
0.0392396
0.0442868
0.0254824
0.0329591
0.00548789
0.0164495
-0.0242411
-0.00795054
-0.0687324
-0.0442919
-0.131432
-0.0982762
-0.204574
-0.167781
-0.257826
-0.236201
0.123198
0.127498
0.129638
0.0906251
0.10963
0.0373594
0.0664281
-0.0368986
0.00277807
-0.118653
-0.0788598
-0.169086
-0.150099
-0.159902
-0.171055
-0.114161
-0.138924
-0.0682256
-0.0898109
-0.036103
-0.0504209
-0.0163367
-0.0249858
-0.00477136
-0.00978088
0.00183563
-0.00100354
0.00568506
0.00403589
0.00784048
0.00688853
0.00849625
0.00663602
0.00943657
0.00853382
-0.00270536
0.00282505
-0.0157643
-0.0092171
-0.0257326
-0.0214709
-0.0274549
-0.0278573
0.117027
0.119243
-0.318955
-0.265906
-0.0204356
-0.0247726
-0.132446
-0.234404
-0.0677683
-0.30606
0.0207952
-0.358272
0.0912998
-0.376392
0.102219
0.103409
-0.355649
-0.258069
-0.30545
0.094932
0.0791171
0.0734005
-0.235623
-0.202462
-0.18551
-0.015333
-0.017207
-0.0129583
-0.188153
-0.0191468
-0.0177201
-0.0164911
-0.018905
-0.00528658
-0.011839
0.0113457
0.00262548
0.027927
0.0199153
0.0408726
0.0349547
0.0487724
0.0455001
0.0509862
0.0506032
0.047315
0.0498846
0.038552
0.0434443
0.0255917
0.0326223
0.00725981
0.0172072
-0.018704
-0.00461371
-0.0555178
-0.0355683
-0.104467
-0.0787605
-0.159841
-0.132512
-0.200286
-0.183311
-0.206753
0.121902
0.111237
0.123636
0.126157
0.0973777
0.114027
0.0437718
0.0739016
-0.0310983
0.00814898
-0.105687
-0.0706245
-0.143669
-0.1311
-0.131021
-0.142672
-0.0924001
-0.112699
-0.0559856
-0.0730287
-0.0303051
-0.0418408
-0.0139371
-0.0211753
-0.00396795
-0.00833769
0.00191729
-0.0006391
0.0054002
0.00388893
0.00747895
0.00656272
0.00820052
0.00957525
0.00961332
0.00554397
0.00827656
-0.00497717
0.000932232
-0.017282
-0.0113489
-0.0250588
-0.0220355
-0.024577
-0.0259215
-0.0214142
-0.138932
-0.265873
-0.0555487
-0.333302
0.037125
-0.371522
0.0880552
-0.372269
0.0803299
-0.333897
0.0474064
0.0505441
-0.271215
-0.158733
-0.196588
0.0415196
0.0172871
0.0151171
-0.124605
-0.120679
-0.0957652
-0.0137254
-0.00992724
-0.0103054
-0.00885807
-0.206772
-0.0126679
-0.0117495
-0.0104672
-0.0123215
-0.00147265
-0.00671985
0.0128615
0.00525301
0.0281841
0.020692
0.0403236
0.0348097
0.0472819
0.0444908
0.0486305
0.0486366
0.0447845
0.0472924
0.0365532
0.0411209
0.0245904
0.0310595
0.00809375
0.0169749
-0.0143634
-0.00229626
-0.044498
-0.028408
-0.0824247
-0.0626436
-0.122559
-0.103186
-0.15163
-0.139962
-0.151683
-0.156111
-0.139781
0.0844091
0.0648022
0.110146
0.0996673
0.113674
0.115069
0.0914144
0.105755
0.0432023
0.070325
-0.0228406
0.011236
-0.0834167
-0.0556385
-0.11059
-0.102909
-0.0990992
-0.108468
-0.0708538
-0.0855474
-0.0442254
-0.0567965
-0.0245953
-0.0335363
-0.0114426
-0.0173342
-0.00307599
-0.00678181
0.0020409
-0.000207605
0.00514788
0.00379037
0.00704307
0.00620668
0.00772222
0.00958287
0.00905159
0.00954763
0.00970911
0.00446332
0.00781803
-0.00634532
-0.000522136
-0.0171147
-0.0121246
-0.0226067
-0.0207163
-0.0208082
-0.0225981
-0.0176391
-0.135523
-0.283704
-0.03862
-0.339608
0.0460494
-0.361951
0.0707752
-0.343851
0.049334
-0.291262
0.0165619
-0.221099
-0.0142611
-0.0170648
-0.149421
-0.0692566
-0.0869874
-0.0071919
-0.212519
-0.00587359
-0.00458168
-0.00494736
-0.00649008
-0.00627902
-0.00383966
-0.00567772
0.00367558
-0.000624325
0.0153518
0.00914949
0.0281514
0.0218652
0.0384482
0.0337717
0.044223
0.0419491
0.0450197
0.0452148
0.0413117
0.043677
0.0337928
0.037963
0.0229319
0.0287895
0.00827026
0.0161125
-0.0110323
-0.000753702
-0.0356662
-0.0226927
-0.0649148
-0.0498593
-0.0943774
-0.080149
-0.114327
-0.106411
-0.113561
-0.11686
-0.0903928
-0.104178
-0.0554101
-0.0735407
0.0356114
-0.0124299
0.0127668
0.0734204
0.0559226
0.0965106
0.0869778
0.100922
0.101331
0.0828914
0.0946855
0.0433155
0.0654484
-0.00910201
0.0176693
-0.0553396
-0.0343151
-0.076103
-0.0690615
-0.0700569
-0.0755457
-0.0521194
-0.0616333
-0.0338217
-0.0426334
-0.0193295
-0.0260453
-0.00903258
-0.0137096
-0.00217106
-0.00524344
0.00218389
0.000255623
0.00487609
0.00369758
0.00654519
0.00582057
0.00751873
0.00710068
0.00784658
0.00974829
0.00851646
0.00928452
0.00931521
0.00983377
0.00356457
0.00725895
-0.00676647
-0.00136887
-0.0155384
-0.0116406
-0.0191812
-0.0181079
-0.0168874
-0.0187292
-0.0108307
-0.0140513
-0.00477076
-0.00757067
-0.0463006
-0.0390447
-0.0443277
-0.0386606
-0.123136
-0.282517
0.0075106
-0.0228028
-0.325855
-0.00121868
-0.00239237
-0.000429799
0.0403757
-0.331213
0.0403777
-0.296778
0.0113465
-0.233438
-0.0232456
-0.161175
-0.0556695
-0.0970196
-0.0666062
-0.0801526
-0.0499198
-0.0234273
-0.0252304
-0.206956
-0.00212273
-0.00185218
-0.00141935
-0.00198612
0.00177222
-0.00026663
0.0082038
0.00448854
0.017702
0.0126995
0.0279205
0.0229071
0.0361163
0.0324055
0.0405846
0.0388589
0.0409148
0.0412434
0.0374465
0.0396368
0.0306699
0.0344268
0.0209295
0.0261697
0.00800497
0.0148816
-0.00851561
0.00020851
-0.0287184
-0.0181976
-0.0514601
-0.0399224
-0.0732004
-0.0627927
-0.0869043
-0.0816794
-0.0862702
-0.0889591
-0.0702878
-0.0801415
-0.045838
-0.0581558
-0.0262454
-0.0347872
-0.0106119
-0.0553713
-0.0327906
0.030238
0.0104972
0.0627866
0.047883
0.0833571
0.0748058
0.0882425
0.0878622
0.0752003
0.0839546
0.0451154
0.0619614
0.00542982
0.0256633
-0.029836
-0.0136631
-0.0475048
-0.0411045
-0.0469885
-0.0489802
-0.0370073
-0.0425977
-0.0250728
-0.0309846
-0.0146982
-0.0196025
-0.00682391
-0.0104537
-0.0013112
-0.00380778
0.00232352
0.000700747
0.00461042
0.00360575
0.00603089
0.00541206
0.00700585
0.00657147
0.00731265
0.0086449
0.00791046
0.0097726
0.00934751
0.00900326
0.00982381
0.00290409
0.00672115
-0.00631278
-0.00172837
-0.0130987
-0.0102004
-0.0154072
-0.0148608
-0.0130875
-0.0147445
-0.00815518
-0.0107708
-0.00536488
-0.094056
-0.0773284
-0.0164934
-0.0211117
-0.106014
-0.266573
0.000714293
0.000868136
-0.0169834
-0.296381
0.0166363
-0.286123
-0.000680141
-0.238058
-0.0341047
-0.167718
-0.069207
-0.0980718
-0.0978263
-0.0465094
-0.114769
-0.0180056
-0.0977528
-0.120365
-0.00886675
-0.0798338
-0.0944467
-0.116141
0.00694934
-0.0132812
-0.0198941
-0.190465
0.000659716
0.000785762
0.00206785
0.00120509
0.00546355
0.00351095
0.0112566
0.00805751
0.019009
0.0149832
0.0270596
0.0231308
0.033414
0.0305492
0.0367588
0.0354974
0.0367124
0.0371465
0.0334962
0.0354379
0.0274426
0.0307993
0.0187713
0.0234262
0.00743314
0.0134382
-0.00668388
0.000714843
-0.0233161
-0.0147393
-0.041204
-0.0322387
-0.0574803
-0.049793
-0.0673679
-0.0635254
-0.0670706
-0.0685958
-0.0560862
-0.0628344
-0.0395695
-0.0480498
-0.0266105
-0.0320837
-0.0234194
-0.0236676
-0.0458177
-0.0635519
-0.00889264
-0.0272574
0.0254914
0.0088556
0.0533723
0.0403661
0.0714349
0.0638853
0.076737
0.0757108
0.0679301
0.074094
0.0458061
0.0582542
0.0161925
0.0313466
-0.0109224
0.00169576
-0.0266958
-0.0204262
-0.0299059
-0.0296022
-0.0253193
-0.0282101
-0.0179733
-0.0217566
-0.010774
-0.0142561
-0.00488846
-0.00764476
-0.000545528
-0.00253569
0.00243184
0.00109056
0.00434773
0.00350014
0.00553118
0.00501267
0.00623099
0.00593717
0.00676273
0.00650518
0.00692457
0.00859081
0.00781432
0.00963311
0.00921442
0.00859519
0.00959764
0.00253632
0.00619327
-0.00522969
-0.00152115
-0.010262
-0.00817572
-0.01168
-0.0114375
-0.00963622
-0.0110214
-0.00569685
-0.00778676
-0.00154606
-0.0035201
0.000933231
-0.000182777
-0.0928594
-0.241598
-0.0257663
-0.0223821
0.00165254
0.0011238
0.00155979
-0.0248651
-0.0267943
-0.0290067
-0.259572
-0.0239443
-0.235686
-0.0520343
-0.176261
-0.0882
-0.102256
-0.120832
-0.0397243
-0.142101
-0.00409712
-0.148365
0.00488958
-0.106701
-0.0864928
-0.0932835
-0.115571
-0.143925
-0.00196051
-0.131724
0.000283221
0.0061767
0.00118409
-0.171447
0.00192515
0.00183527
0.00261231
0.00227057
0.00436791
0.00333052
0.00773391
0.00585244
0.0128269
0.0100808
0.0191735
0.0159123
0.0255262
0.0224439
0.030437
0.0282335
0.0329207
0.0320098
0.0326397
0.0331192
0.0296782
0.031467
0.0242717
0.0272618
0.0165838
0.0207028
0.00666487
0.0118965
-0.00540325
0.000880237
-0.0191803
-0.0121343
-0.0334584
-0.0263724
-0.0459033
-0.0400984
-0.0532568
-0.0503897
-0.0532306
-0.0542075
-0.0459333
-0.0503398
-0.0348785
-0.0405099
-0.0263978
-0.029929
-0.0246886
-0.0652526
-0.076986
-0.0376035
-0.0519681
-0.00720002
-0.022468
0.0216289
0.00763153
0.0452252
0.0341575
0.0609719
0.0542148
0.0664489
0.0650337
0.060698
0.0649513
0.0445723
0.0537114
0.0224294
0.0338315
0.00140415
0.0113246
-0.0125691
-0.00668156
-0.017704
-0.0161144
-0.0165164
-0.0176588
-0.0123597
-0.014629
-0.00755005
-0.00994138
-0.00325938
-0.00530431
9.36669e-05
-0.00146208
0.00248563
0.001399
0.00406587
0.00336128
0.00503948
0.00461235
0.00559762
0.00535289
0.00597417
0.00581173
0.00612829
0.00682588
0.00602515
0.00832751
0.00759902
0.00931489
0.00892726
0.00810977
0.00919175
0.00248527
0.00576567
-0.00374549
-0.00088176
-0.00739921
-0.00591011
-0.00832241
-0.00820077
-0.00676024
-0.00780266
-0.00385338
-0.00537082
-0.00116446
-0.00238498
-0.000272786
-0.0155299
0.00134018
-0.0303357
-0.0302977
-0.0939169
-0.217525
-0.0621669
-0.226065
-0.0793422
-0.189344
-0.0282112
-0.115355
-0.119517
-0.151207
-0.0443074
-0.176421
0.00847966
-0.0969817
-0.0776282
-0.0775953
-0.0972246
-0.185933
0.0257909
-0.120457
-0.179664
0.0165922
-0.143186
-0.163875
-0.00346884
0.00134149
0.00439946
0.00525308
-0.036566
-0.0348538
0.00453867
-0.160874
0.0022037
0.00178063
0.00201961
0.00276814
0.00242831
0.00380464
0.00318001
0.00571687
0.00461819
0.00888311
0.00714804
0.0133034
0.0109623
0.018507
0.0158594
0.0235503
0.0211168
0.0273676
0.0256646
0.0292086
0.0285575
0.0287704
0.029273
0.0260628
0.0276867
0.0212381
0.0238998
0.0144372
0.0180732
0.0057738
0.0103257
-0.0045507
0.000793862
-0.0160215
-0.0101962
-0.0275601
-0.021877
-0.0373158
-0.0328
-0.0430188
-0.0407831
-0.0432688
-0.0438384
-0.0384214
-0.0413637
-0.0310945
-0.0348302
-0.0255848
-0.0278614
-0.0248525
-0.0245683
-0.0288443
-0.0263521
-0.0399724
-0.0356333
-0.0320678
-0.0700485
-0.0751137
-0.0530374
-0.0624649
-0.030618
-0.0423176
-0.00568739
-0.0182287
0.0184074
0.00667666
0.0383876
0.028981
0.0520236
0.0460603
0.0573918
0.0557891
0.0537649
0.0566622
0.0419904
0.0487257
0.0252901
0.033954
0.00887886
0.0166945
-0.00329083
0.00204053
-0.0091765
-0.00696965
-0.0100189
-0.0100736
-0.00802823
-0.00924338
-0.00498347
-0.00655395
-0.00194815
-0.0034247
0.000584542
-0.000606678
0.00247098
0.00160607
0.00375156
0.00317766
0.0045448
0.00419682
0.00498856
0.00479753
0.00521245
0.0051166
0.00539375
0.00531645
0.00543282
0.00659912
0.00583244
0.00798107
0.00731927
0.00883512
0.00852342
0.00760059
0.00865585
0.00269801
0.00547437
-0.00210592
3.33495e-05
-0.00477083
-0.0036812
-0.00550057
-0.00537347
-0.00449634
-0.00518223
-0.00258125
-0.00357152
-0.000864522
-0.00165367
0.000536439
-0.000180435
0.00124254
-0.115672
-0.205426
-0.0389062
-0.0309828
-0.0328227
-0.115577
-0.205017
-0.0229601
-0.149392
-0.153787
-0.191092
-0.073366
-0.0368621
-0.0749526
-0.0584472
-0.0531287
-0.0694166
-0.221701
0.00114136
-0.0943831
-0.232921
0.0430901
-0.0452722
-0.0440219
-0.121427
-0.226184
0.0408649
-0.149977
-0.205695
0.0159634
-0.178704
0.00200431
0.00164128
0.00179505
0.00135664
0.00450151
0.0039596
0.00153321
-0.168315
0.0025219
0.00227784
0.00322356
0.00281937
0.00440713
0.00373164
0.00636805
0.00527832
0.00926103
0.00769989
0.0130576
0.0110711
0.0173319
0.0151739
0.0213598
0.0194266
0.024343
0.0230215
0.0256987
0.0252429
0.0251556
0.0256659
0.0226823
0.024151
0.0183762
0.0207461
0.0123652
0.0155715
0.0048014
0.00876165
-0.00404995
0.000508955
-0.0136579
-0.00880806
-0.0230815
-0.0184693
-0.0308847
-0.0272853
-0.0354819
-0.0336562
-0.0359695
-0.0362398
-0.0327837
-0.0347372
-0.0279686
-0.0304014
-0.0242776
-0.0258219
-0.0238433
-0.0236189
-0.0266014
-0.0249002
-0.0287655
-0.061877
-0.0614237
-0.0562117
-0.0601275
-0.0427967
-0.0503378
-0.0246767
-0.034145
-0.00427763
-0.014632
0.0158165
0.00600628
0.0327568
0.0247693
0.0444891
0.0394011
0.049566
0.0478984
0.0474072
0.0493513
0.0387592
0.0437623
0.0260205
0.0326795
0.0128424
0.0192627
0.00261059
0.00726962
-0.00332454
-0.000901082
-0.00531645
-0.004719
-0.00476892
-0.00526234
-0.00300942
-0.00397076
-0.000947949
-0.0019771
0.000916289
2.56395e-05
0.00237506
0.00169937
0.00339516
0.00293551
0.00403376
0.0037541
0.00438148
0.00423626
0.0045141
0.00445258
0.0045779
0.00454672
0.00459145
0.00512196
0.00382791
0.00434349
0.00633713
0.00569359
0.00754191
0.00697147
0.0082074
0.00798308
0.0070805
0.00801358
0.00305685
0.0052844
-0.000522208
0.00103433
-0.00251961
-0.00167602
-0.00324406
-0.00304332
-0.00276131
-0.00313504
-0.00157152
-0.00220351
-0.000363021
-0.00094467
0.00088474
0.000222237
0.0013158
-0.0417565
-0.0339001
-0.159287
-0.212252
-0.0130232
-0.186827
-0.200013
-0.0462096
-0.0334634
-0.0252555
-0.0376856
-0.233978
-0.131073
-0.0350121
-0.0615331
-0.276452
-0.0403238
-0.0886584
-0.295394
0.0318401
-0.0504874
-0.0477332
-0.118467
-0.286214
0.0616619
-0.0521267
-0.151712
-0.260072
0.0407557
-0.187581
-0.224685
0.00161027
0.00351957
-0.0438464
-0.0341824
-0.197067
0.00205012
0.0015919
0.00180802
0.00264344
0.00233333
0.0034376
0.00300082
0.00466201
0.00397722
0.00653321
0.00550939
0.00912018
0.00774033
0.012358
0.0106797
0.0158701
0.0141092
0.0191016
0.0175587
0.0214383
0.0204123
0.0224186
0.0221136
0.0218037
0.0223129
0.0195421
0.0208723
0.0156966
0.0178072
0.0103849
0.0132115
0.00377997
0.00722699
-0.00382669
7.42556e-05
-0.0119235
-0.00785722
-0.0197001
-0.0159136
-0.0260449
-0.0231227
-0.0298444
-0.0283105
-0.0305124
-0.0305653
-0.0284566
-0.0297455
-0.0252132
-0.0268605
-0.0226911
-0.0237597
-0.0222521
-0.0221601
-0.0239366
-0.0228989
-0.0263505
-0.0252291
-0.0270265
-0.0270992
-0.0334865
-0.0238093
-0.026097
-0.0450129
-0.0403541
-0.0485795
-0.0477417
-0.0445876
-0.0475252
-0.0342535
-0.0400913
-0.0196686
-0.0273526
-0.00289032
-0.0114887
0.0137783
0.00560896
0.0281052
0.0213569
0.0381613
0.03373
0.04288
0.0412293
0.0417169
0.0429973
0.0353166
0.0390682
0.025501
0.0306674
0.0149569
0.0201647
0.00624746
0.0102879
0.000597086
0.0030205
-0.00199516
-0.00102604
-0.00238951
-0.00239725
-0.00155464
-0.00206917
-0.000240776
-0.000921447
0.00108504
0.000439249
0.00218702
0.00167051
0.00298583
0.00262337
0.00349247
0.00327106
0.00375312
0.00364802
0.00384053
0.00382051
0.00387175
0.00385937
0.00383842
0.00385001
0.00377175
0.00486127
0.00413072
0.00604854
0.00546825
0.00701918
0.00658118
0.00744507
0.00731791
0.00652344
0.00726888
0.00342958
0.00511646
0.00086284
0.00196411
-0.000693799
4.8565e-06
-0.00149863
-0.00120402
-0.00143074
-0.00156861
-0.000722261
-0.00112749
0.000154144
-0.000277473
0.00106776
0.000591494
0.00132941
0.00133064
0.0014884
0.0014469
0.00353198
-0.222635
-0.237805
0.00147496
0.00342574
-0.01653
-0.0281816
-0.273037
-0.208873
-0.0204635
-0.0310833
-0.0295461
-0.0522477
-0.32917
-0.119878
-0.0449518
-0.0804792
-0.365241
-0.0204199
-0.0551483
-0.0503624
-0.112314
-0.364921
0.0471262
-0.0604056
-0.148286
-0.331845
0.0628961
-0.0596399
-0.190028
-0.284796
0.0260158
-0.235731
-0.01595
-0.00695872
-0.00345446
-0.00713293
0.00417916
-0.245
0.00150218
0.00114883
0.00128763
0.00198581
0.0017091
0.00260925
0.00226178
0.00342848
0.00297595
0.00463431
0.00396758
0.00636017
0.00542543
0.00864185
0.00743498
0.0113792
0.00997163
0.0142665
0.012828
0.0168611
0.0156296
0.0186859
0.0178935
0.019369
0.0191833
0.0187045
0.0192081
0.0166324
0.01784
0.0131945
0.0150755
0.00850013
0.0109923
0.00272962
0.0057321
-0.00382184
-0.000474596
-0.0106815
-0.00725107
-0.0171588
-0.0140179
-0.0223887
-0.0199813
-0.0255757
-0.0242693
-0.0263417
-0.026254
-0.0250358
-0.0258879
-0.0227827
-0.0239394
-0.0209386
-0.0217391
-0.0203147
-0.0204613
-0.0210987
-0.0206074
-0.0219338
-0.0216255
-0.0208542
-0.0217287
-0.0162925
-0.0192064
-0.0119395
-0.00658673
0.0118176
0.0018076
-0.0225504
-0.0148343
-0.0334787
-0.029006
-0.0373912
-0.036395
-0.0347873
-0.0369028
-0.0270994
-0.0316385
-0.0153297
-0.021667
-0.00158441
-0.00863525
0.0122939
0.00547117
0.0243123
0.0186269
0.0329304
0.0291002
0.0371971
0.0356288
0.0366992
0.0375183
0.0319261
0.0347652
0.0242857
0.0283332
0.0157963
0.020042
0.00836238
0.0118611
0.00313585
0.00545106
0.000276018
0.00144082
-0.000721031
-0.000406394
-0.000547299
-0.000735835
0.000195596
-0.000215166
0.00109081
0.000642912
0.00189828
0.00151415
0.00251175
0.0022311
0.0029109
0.00273593
0.00312021
0.00303499
0.00319091
0.00316928
0.00318212
0.00318531
0.00318555
0.00317911
0.00293135
0.00311491
0.00458531
0.00396776
0.00567512
0.00515148
0.00638686
0.00609851
0.00656039
0.00653156
0.00588668
0.00641529
0.00370317
0.00488516
0.00196618
0.00271107
0.000713115
0.00132189
-0.000188094
0.000192171
-0.000429143
-0.000396404
-7.42325e-05
-0.000308507
0.000509213
0.000218546
0.00110909
0.00079863
0.00126104
0.00127169
0.00128305
0.00132838
0.0012241
-0.0175205
-0.301296
-0.277388
-0.0109575
-0.0051043
0.00173917
0.0018159
0.000856945
-0.0261988
-0.0188582
-0.0417009
-0.368652
-0.226092
-0.0436926
-0.0701647
-0.425698
-0.117239
-0.0583045
-0.050923
-0.103142
-0.447412
-0.0129067
-0.0682017
-0.14082
-0.422333
0.0474086
-0.067298
-0.0718152
-0.186006
-0.365044
0.0451574
-0.238624
-0.299059
0.0248502
0.00897933
-0.0054978
-0.307503
0.00134453
0.00106112
0.00183069
0.00154526
0.00243409
0.00209545
0.00325433
0.00280654
0.00439252
0.0037727
0.00595012
0.00511511
0.00793867
0.00689481
0.0102386
0.00906622
0.0126062
0.0114329
0.0146831
0.0137042
0.0160927
0.0154901
0.0165356
0.0164459
0.0158356
0.0163316
0.0139314
0.0150309
0.0108534
0.0125316
0.006703
0.00890073
0.00165874
0.0042759
-0.00399427
-0.0011157
-0.00982919
-0.00692167
-0.0152634
-0.0126365
-0.0196179
-0.0176138
-0.0223121
-0.0211941
-0.0230997
-0.022936
-0.0222679
-0.022842
-0.0206231
-0.0214846
-0.0191167
-0.019803
-0.018363
-0.01863
-0.018184
-0.018247
-0.0177389
-0.0181072
-0.0154096
-0.0168598
-0.0100337
-0.0132015
-0.00123876
-0.00578293
-0.00989238
6.06697e-05
0.00875415
0.00320447
0.000972411
0.0189432
0.00902755
-0.0131958
-0.00630734
-0.023698
-0.0190889
-0.0281144
-0.0267473
-0.0268139
-0.0280691
-0.0209762
-0.0244227
-0.0115552
-0.0166055
-0.000300582
-0.00606201
0.0111698
0.00551353
0.0212277
0.0164549
0.0285777
0.0252965
0.0323787
0.0309396
0.0323129
0.0328131
0.0287269
0.0308952
0.0227247
0.0259243
0.0157944
0.0192742
0.00945294
0.0124757
0.00468768
0.00684882
0.00175243
0.00300655
0.000376975
0.00090329
7.87594e-05
0.000127828
0.000385539
0.000183761
0.000936799
0.000648402
0.00150248
0.00122741
0.00196303
0.00174948
0.00227714
0.00213828
0.00245062
0.00237961
0.00251462
0.00249454
0.00251021
0.00251841
0.00248951
0.00250656
0.00228689
0.00243536
0.00310797
0.00236912
0.00426481
0.00369877
0.00520618
0.00475927
0.00567025
0.00552433
0.00558713
0.0056631
0.00514899
0.00546518
0.00381047
0.00453695
0.00276076
0.00321914
0.00173799
0.00228145
0.000758001
0.00120485
0.000287995
0.000446821
0.000360556
0.000268284
0.000693294
0.000521874
0.00105386
0.000862659
0.00115029
0.00116113
0.00111272
0.00117822
0.00102583
-0.0180893
-0.00275687
-0.0303343
-0.387813
-0.323062
0.000591765
0.0309907
-0.0383106
-0.0582521
-0.4634
-0.245724
8.64673e-05
0.0100566
0.0174288
-0.0580812
0.0343329
0.0275451
-0.0481259
-0.0917732
-0.510667
-0.120716
-0.0739673
-0.130126
-0.511424
-0.0168874
-0.0745786
-0.0833657
-0.176401
-0.461008
0.0309107
-0.0844341
-0.233585
-0.382159
0.00881591
-0.0173888
-0.0067236
-0.302155
0.00337464
-0.00181316
-0.0177427
-0.376663
0.00111305
0.000910218
0.00159105
0.00135031
0.00217219
0.00186437
0.00294798
0.00253132
0.00399642
0.00343373
0.00537796
0.00464422
0.00708684
0.00619615
0.00901282
0.00803291
0.0109388
0.00998955
0.0125863
0.0118159
0.0136522
0.0132069
0.0138962
0.0138861
0.0131678
0.0136564
0.0114111
0.0124156
0.00865023
0.0101495
0.00497966
0.00691794
0.000570007
0.00285159
-0.00431225
-0.00183374
-0.00928725
-0.00681613
-0.013866
-0.0116584
-0.0175123
-0.0158345
-0.0197917
-0.0188377
-0.0205398
-0.0203493
-0.0199854
-0.0203928
-0.0187009
-0.0193911
-0.0173411
-0.0179951
-0.0163294
-0.0167863
-0.0154899
-0.0159217
-0.0139921
-0.014907
-0.010783
-0.0126956
-0.00492168
-0.00825355
0.00363588
-0.000835796
0.0145226
0.0082561
0.0440074
0.0395984
0.0475133
0.0247151
0.0356888
0.00762194
0.0153437
-0.00547522
0.000773401
-0.0155473
-0.0111045
-0.0202798
-0.0185863
-0.0200137
-0.0206882
-0.0156994
-0.0183029
-0.00827611
-0.0122857
0.000861709
-0.00382922
0.0103125
0.00563399
0.018721
0.0147182
0.02497
0.0221634
0.0283188
0.0270226
0.0285016
0.0287896
0.0257829
0.0274544
0.020987
0.0235725
0.0152827
0.0181716
0.00985596
0.0124739
0.00553671
0.00753213
0.00263019
0.00391215
0.00102075
0.00168565
0.000382368
0.00060649
0.000352273
0.000314026
0.000626624
0.000467633
0.000993636
0.000808245
0.00133007
0.00117018
0.00158087
0.0014672
0.0017357
0.0016696
0.00180991
0.00178176
0.00182997
0.00182712
0.00180768
0.00183017
0.00163356
0.001765
0.00133288
0.00148996
0.00276831
0.00164685
0.00213738
0.00390312
0.00335742
0.00471548
0.00435196
0.00492035
0.00491849
0.00455858
0.00475697
0.00429058
0.00442956
0.00370308
0.0040262
0.00324794
0.00345939
0.00243262
0.00291374
0.00140374
0.0018972
0.000763915
0.0010172
0.000616271
0.000636694
0.000752014
0.00067103
0.000964599
0.000844642
0.00100574
0.0010246
0.000936098
0.00101528
0.000535738
0.00077966
0.000324006
-0.02893
-0.0455851
-0.471621
-0.3668
0.000293425
0.0226942
0.00120235
-0.0528432
-0.0174839
-0.0295134
0.0517833
0.0466832
-0.0428394
-0.0790203
-0.543627
-0.263204
-0.0754318
-0.117231
-0.571498
-0.129605
-0.0808271
-0.00557288
-0.0925867
-0.162955
-0.547458
-0.0360359
-0.100839
-0.221056
-0.476858
-0.00195084
-0.098338
-0.293737
-0.38174
0.0219285
-0.0146018
0.0178252
0.00701873
0.015225
-0.0318489
-0.442501
0.000833587
0.000548328
0.00129605
0.00105607
0.00183511
0.00154358
0.00254949
0.00216628
0.00349195
0.00298921
0.00469752
0.00406163
0.00614654
0.00539619
0.00773729
0.00693427
0.00929226
0.00853377
0.010576
0.00998202
0.0113515
0.0110393
0.0114241
0.0114831
0.0106695
0.0111526
0.00904043
0.00996219
0.00655893
0.00790023
0.00331284
0.0050216
-0.000538522
0.00144852
-0.00475201
-0.00261925
-0.00899392
-0.00689322
-0.0128547
-0.0109979
-0.0159081
-0.0145044
-0.0178227
-0.0170184
-0.0184832
-0.0183028
-0.0180653
-0.0183851
-0.0169744
-0.0175737
-0.0156574
-0.0163203
-0.0143779
-0.0150117
-0.0129654
-0.0137177
-0.0107797
-0.0120202
-0.00695705
-0.0091313
-0.000674788
-0.00414442
0.00747248
0.00319079
0.0188871
0.0125819
0.0316743
0.0348316
0.0264275
0.0276908
0.0578399
0.0548266
0.0502529
0.0617704
0.0599742
0.0294465
0.0394281
0.0131636
0.0206867
0.000707531
0.0066139
-0.0087148
-0.00446591
-0.0136887
-0.0117769
-0.0142539
-0.0144587
-0.0112197
-0.0131251
-0.0054549
-0.00860607
0.00191437
-0.00189029
0.00967898
0.00582079
0.0166838
0.0133383
0.0219681
0.0195817
0.0248919
0.0237404
0.025208
0.0253659
0.0231125
0.0244231
0.0192401
0.0213433
0.014488
0.0169103
0.009805
0.0120881
0.00588856
0.00772574
0.00305935
0.00433693
0.00130378
0.00206143
0.000413063
0.000769849
0.00011605
0.000208868
0.00016327
0.00011102
0.00036581
0.0002545
0.000603025
0.000485161
0.000810919
0.000712622
0.000965455
0.000895078
0.00106758
0.00102247
0.00112717
0.00110299
0.00112488
0.0011388
0.00104321
0.00112714
0.000831334
0.000940324
0.000720635
0.00157563
0.000639046
0.0011189
0.00254486
0.00204452
0.00356213
0.00305926
0.00423924
0.00396156
0.00418851
0.00432677
0.00353211
0.00386928
0.00333374
0.00335504
0.00337418
0.00335156
0.00345328
0.00343709
0.00285654
0.0032642
0.00181354
0.00233446
0.00105406
0.00137493
0.000748863
0.000850058
0.000744259
0.000726826
0.000854807
0.000784565
0.000853218
0.000882878
0.00073667
0.000835926
0.000328524
0.000554308
-8.46809e-05
0.000138466
-0.0426297
0.0401063
-0.0062189
0.0220735
0.0319729
-0.0401548
-0.0297488
-0.0652433
-0.540151
-0.400837
-0.0708888
-0.103366
-0.597025
-0.27625
0.0415515
0.0439273
-0.0895682
0.00816304
0.0340335
0.029006
0.0525771
0.0632116
0.000569709
0.000160899
0.000107096
-0.00037887
-0.0002181
-0.000530603
-0.0968159
-0.147771
-0.59933
-0.145953
-0.0455271
-0.0317789
-0.114654
-0.203345
-0.553337
-0.0699994
-0.113272
-0.120889
-0.0235289
0.00905646
-0.275293
-0.469564
-0.0534753
-0.365564
-0.0491942
-0.494444
-2.4792e-05
-0.000210186
0.000453
0.000193908
0.000920179
0.000690644
0.0014309
0.00116116
0.00207915
0.00173469
0.00291096
0.00247037
0.00394646
0.00340393
0.00515788
0.00453453
0.00645417
0.00580359
0.00768173
0.00708774
0.00865143
0.00820997
0.00917329
0.0089776
0.00909211
0.00921383
0.00830927
0.00879007
0.00678843
0.00763903
0.00455263
0.00575439
0.00168373
0.00318832
-0.00167216
5.37991e-05
-0.00529738
-0.00346796
-0.0089026
-0.00712261
-0.0121461
-0.0105905