/*--------------------------------*- C++ -*----------------------------------*\
  =========                 |
  \\      /  F ield         | OpenFOAM: The Open Source CFD Toolbox
   \\    /   O peration     | Website:  https://openfoam.org
    \\  /    A nd           | Version:  10
     \\/     M anipulation  |
\*---------------------------------------------------------------------------*/
FoamFile
{
    format      ascii;
    class       volVectorField;
    location    "22.5";
    object      U;
}
// * * * * * * * * * * * * * * * * * * * * * * * * * * * * * * * * * * * * * //

dimensions      [0 1 -1 0 0 0 0];

internalField   nonuniform List<vector> 
28942
(
(-0.106176 0.0501396 -3.34858e-20)
(-0.10723 0.0392036 -7.01359e-21)
(0.513821 -0.355327 7.2601e-20)
(1.01557 0.0427624 -1.13798e-19)
(0.993834 0.052495 3.73871e-20)
(0.22364 0.00718653 0)
(0.272373 0.0253382 3.49841e-23)
(0.30703 0.00585428 2.62793e-23)
(1.21568 -0.103797 3.78921e-21)
(1.20312 -0.0926286 -8.59928e-21)
(-0.038769 -0.152313 -1.82459e-19)
(0.0297029 -0.140984 8.32481e-20)
(-0.0625403 -0.143121 0)
(-0.0860145 -0.159293 0)
(0.695654 -0.00857832 -3.78259e-22)
(0.685773 -0.00577339 -1.01325e-22)
(0.931547 0.0889692 3.20293e-20)
(0.915724 0.0737143 5.07528e-20)
(0.34034 -0.463889 4.05132e-20)
(0.648557 -0.734304 -1.1983e-20)
(0.984585 0.233501 4.50227e-20)
(0.984978 0.21734 0)
(0.0904216 -4.7098e-05 1.65545e-19)
(-0.0654478 -0.0421889 9.16914e-20)
(0.804257 -0.152602 1.82118e-19)
(1.18616 -0.255046 -1.65509e-19)
(0.1943 -0.469153 4.57748e-19)
(0.20193 -0.391453 -1.79541e-19)
(0.775943 -0.55744 -1.70532e-20)
(0.477382 -0.328773 -7.11077e-21)
(0.24578 -0.0169581 0)
(0.318167 -0.0228875 1.46668e-22)
(0.39991 0.000568254 8.61946e-21)
(0.552251 -0.0128404 -1.39926e-21)
(0.438668 0.477031 3.63741e-20)
(0.367776 0.524579 -3.71061e-20)
(0.585383 0.686609 -1.38556e-19)
(0.380837 0.61417 -5.27341e-20)
(0.117894 0.0110329 1.07984e-23)
(0.202805 0.4764 -9.0094e-20)
(0.657017 -0.0597645 0)
(0.855973 -0.0778837 0)
(1.02345 -0.275237 -3.82931e-22)
(1.00025 -0.266414 1.43765e-21)
(1.02702 -0.255531 9.83404e-22)
(0.436027 0.00636235 9.35664e-23)
(0.408339 0.0166423 -1.72985e-22)
(0.561292 0.00349889 -4.91299e-22)
(0.541957 0.00393784 1.39343e-22)
(0.449358 0.00417551 -4.05912e-21)
(0.361256 -0.00260523 2.57331e-21)
(1.1233 -0.000604721 -7.67031e-22)
(1.12212 -0.00358948 -7.18977e-22)
(1.21596 -0.121317 -2.52474e-22)
(1.20147 -0.109776 -1.24498e-21)
(1.40505 -0.10765 1.46537e-19)
(1.5744 -0.17663 7.70449e-20)
(-0.0819204 -0.0953898 -1.0772e-19)
(-0.0440389 -0.113653 0)
(-0.0486738 -0.0728341 3.90959e-20)
(-0.0761871 -0.0710738 9.44224e-20)
(-0.0443222 -0.0405275 -7.56617e-20)
(-0.0481182 -0.0472978 -7.8395e-20)
(1.38809 -0.554157 0)
(1.54453 -0.461399 3.00633e-20)
(1.40812 -0.398045 -1.34575e-20)
(1.33343 -0.405311 0)
(0.94404 -0.234827 -2.66255e-20)
(0.964851 -0.253451 -1.6937e-20)
(-0.0609528 0.0374373 1.11267e-19)
(-0.0786051 0.0467623 -3.55418e-20)
(-0.106829 0.070075 8.98197e-20)
(0.94906 -0.321169 0)
(0.959857 -0.282847 8.94597e-20)
(0.898106 -0.436359 2.13947e-20)
(1.42938 0.332121 3.2436e-20)
(1.46262 0.314774 -3.5438e-20)
(1.44414 0.275014 -2.03564e-20)
(0.161187 -0.0904646 3.6985e-21)
(0.23218 -0.142915 -7.25601e-20)
(1.05565 -0.644616 -1.61008e-20)
(0.799365 -0.535875 2.15034e-20)
(-0.0795493 0.046303 1.91686e-19)
(-0.086001 0.0488648 -7.38641e-20)
(1.24361 0.595776 -2.08041e-21)
(1.17542 0.562375 -2.62926e-20)
(1.07016 0.661657 2.15918e-20)
(0.918494 0.651618 -7.07019e-20)
(0.875733 0.624759 4.88849e-20)
(0.653785 0.451769 -2.13433e-21)
(0.719709 0.542195 -1.54801e-20)
(0.760547 0.624536 2.42103e-20)
(-0.18611 -0.065779 -2.1242e-20)
(-0.104199 -0.0546643 -5.76887e-21)
(-0.158749 -0.137701 1.15462e-20)
(-0.186461 -0.133413 -1.43837e-19)
(-0.1827 -0.122073 1.82593e-19)
(0.364126 0.289082 -8.85003e-20)
(0.411413 0.355019 1.96544e-20)
(-0.0280398 0.0240004 0)
(1.00708 0.00433518 0)
(0.96531 0.0535583 -8.53661e-20)
(0.889715 0.135639 6.20056e-20)
(1.07999 0.118451 0)
(1.42435 0.0713079 0)
(1.4294 0.0658128 0)
(1.44612 0.0756025 4.01552e-20)
(1.07981 0.169528 -8.44947e-21)
(1.07613 0.180804 8.70255e-20)
(1.0696 0.159297 4.60627e-20)
(-0.0911744 -0.115811 2.15653e-19)
(-0.0973194 -0.125418 -2.41921e-19)
(-0.0167117 0.0266129 -5.94578e-20)
(-0.0652543 0.00642482 5.45682e-20)
(-0.108539 0.0106497 1.1277e-19)
(0.167741 0.226623 8.28417e-20)
(0.385648 0.225276 2.00388e-19)
(0.295737 0.442986 1.49704e-20)
(0.131701 0.342749 -4.84414e-19)
(1.26629 0.47076 2.47086e-21)
(1.12189 0.445921 4.50324e-20)
(1.15748 0.428614 -7.77574e-20)
(0.852594 -0.656898 -1.51453e-21)
(0.583185 -0.422266 7.25552e-21)
(0.160208 -0.0182895 -2.44063e-19)
(0.149086 -0.0944563 0)
(0.311216 -0.0612896 1.32941e-19)
(0.541987 -0.415626 2.75608e-21)
(0.766778 -0.645806 3.36107e-21)
(0.5313 0.00603843 1.97824e-22)
(0.56524 0.00455193 -4.37511e-22)
(0.495274 0.00518976 -1.42268e-23)
(0.52434 -0.789712 0)
(0.550394 -0.615224 0)
(1.06175 -0.133083 -1.78763e-20)
(1.04798 -0.114779 1.04995e-19)
(1.03213 -0.0810367 0)
(0.862808 -0.756801 0)
(0.85717 -0.692003 -2.03915e-20)
(0.734552 0.721033 8.77138e-20)
(-0.119621 -0.122613 1.35242e-19)
(-0.107265 -0.113392 -9.8151e-20)
(0.584711 -0.538563 -4.10374e-21)
(1.05036 -0.242567 4.30447e-21)
(1.03559 -0.23262 -1.27791e-21)
(1.51634 -0.11248 -2.16355e-20)
(1.51974 -0.0734692 2.89455e-20)
(1.50205 -0.0557922 9.61016e-20)
(-0.101873 -0.108161 4.80608e-20)
(0.843959 0.701574 1.16354e-19)
(0.977588 0.680416 -3.37257e-20)
(1.05196 0.72179 9.32935e-24)
(0.383646 -0.0110007 9.25899e-24)
(0.3816 -0.012468 -3.20964e-22)
(0.417471 -0.0165358 -2.33904e-23)
(0.458384 -0.0134864 -9.12955e-23)
(0.792985 0.693728 1.65231e-20)
(0.428233 0.409474 0)
(-0.00314559 -0.032606 7.49096e-20)
(-0.00872313 -0.00991612 -8.25703e-20)
(-0.0752776 0.0493358 5.72052e-20)
(0.456037 0.0802102 -1.34364e-19)
(0.988069 0.254837 -6.44633e-20)
(0.52404 -0.0136594 1.33295e-22)
(1.38599 -0.469759 3.23486e-20)
(1.33779 -0.554653 8.44159e-20)
(0.965857 0.257084 1.04044e-19)
(0.946831 0.295717 7.31456e-21)
(0.92761 0.175456 5.82407e-20)
(0.943998 0.182044 -4.20732e-20)
(0.990169 0.259148 0)
(1.13376 0.0145509 3.57961e-21)
(1.13828 0.0105547 6.3756e-21)
(1.15781 -0.0666462 8.49922e-22)
(1.16625 -0.0682032 -1.9911e-21)
(1.0919 0.158421 9.98087e-21)
(1.10478 0.16693 -2.80998e-20)
(1.09228 0.169468 0)
(1.07978 0.158918 6.14155e-21)
(1.09023 0.180527 0)
(1.09455 0.235396 -2.29787e-20)
(1.08802 0.249269 -1.28795e-20)
(1.06539 0.273392 -2.41109e-20)
(1.07822 0.262251 0)
(1.09888 0.283711 7.72807e-20)
(1.08203 0.297607 2.65287e-21)
(1.04909 0.289864 -1.41005e-20)
(0.996907 0.345102 -6.17885e-20)
(0.995264 0.286557 -1.0771e-20)
(0.0680119 0.282906 2.83452e-20)
(0.181233 0.248174 -1.08562e-20)
(-0.0948035 0.0364273 -8.21342e-20)
(0.474531 0.0037227 8.08505e-24)
(0.597902 0.00294415 0)
(0.00366054 -0.00120453 7.92307e-20)
(0.00485626 -0.000716571 3.84633e-20)
(0.547604 0.00551115 3.1039e-22)
(0.636653 0.00407087 8.37651e-23)
(0.63029 0.00417078 0)
(0.535814 0.00760275 8.55717e-23)
(0.999289 0.56878 4.77667e-21)
(0.991 0.578232 -2.39997e-20)
(0.983763 0.565758 -1.04487e-20)
(-0.105042 -0.127232 9.18449e-20)
(-0.052355 -0.055372 -1.1778e-19)
(-0.0640235 -0.0677021 1.10923e-19)
(-0.0694588 -0.05083 0)
(-0.0340723 -0.0213833 1.61833e-19)
(-0.0328797 -0.0250559 -1.39899e-19)
(-0.0617732 -0.0198335 -1.44518e-19)
(-0.105724 -0.0460303 -1.43488e-19)
(-0.063054 -0.0316638 0)
(0.0565019 0.219392 0)
(0.0254327 0.131366 0)
(0.0100096 0.0734351 0)
(1.40999 0.056917 -5.09667e-21)
(1.39123 0.0425956 0)
(1.41325 0.0472793 5.62925e-21)
(0.929287 -0.105057 1.9303e-19)
(0.942827 -0.111664 -7.00839e-20)
(0.939541 -0.0944923 0)
(0.951262 -0.595417 9.03367e-22)
(0.962196 -0.637883 -1.82644e-21)
(0.938612 -0.537754 6.92917e-22)
(0.971551 -0.666183 0)
(0.978873 -0.682046 9.55728e-22)
(0.98371 -0.68819 0)
(1.00126 -0.691127 0)
(0.987247 -0.687184 -3.21601e-21)
(1.0023 -0.688127 0)
(0.998896 -0.686988 1.00784e-21)
(0.993849 -0.673198 0)
(0.986946 -0.646758 -6.46405e-22)
(0.978357 -0.605477 9.52145e-22)
(0.968037 -0.548352 -6.91811e-22)
(0.988996 -0.681368 3.0759e-21)
(1.00119 -0.680608 1.02709e-22)
(0.925214 -0.463634 -1.70971e-23)
(0.955663 -0.473888 1.1487e-21)
(0.912503 -0.375161 -6.13876e-21)
(0.988469 -0.672936 -2.71294e-24)
(0.998168 -0.670486 9.52948e-23)
(0.944587 -0.384689 -2.3532e-21)
(0.986385 -0.663094 -2.66333e-21)
(0.983005 -0.652893 2.66104e-21)
(0.993805 -0.659232 -1.99491e-22)
(0.988211 -0.647784 -3.80128e-22)
(0.899516 -0.2763 5.97417e-21)
(0.933747 -0.283352 1.56725e-21)
(0.978485 -0.643188 0)
(0.981529 -0.636856 3.74919e-22)
(0.888488 -0.166051 -7.76772e-25)
(0.922914 -0.172107 7.78347e-25)
(0.972766 -0.63492 0)
(0.97374 -0.62725 0)
(0.879166 -0.0508311 0)
(0.91375 -0.0550676 0)
(0.965722 -0.629023 0)
(0.964714 -0.619825 -1.86968e-22)
(0.87164 0.0660056 3.05102e-21)
(0.905976 0.0634559 7.77941e-25)
(0.957216 -0.62619 -1.02127e-23)
(0.95425 -0.61535 2.00142e-22)
(0.866386 0.180089 -3.06505e-21)
(0.899995 0.179251 0)
(0.947223 -0.626188 0)
(0.942264 -0.613793 0)
(0.863605 0.287462 1.85509e-22)
(0.895637 0.288318 -3.16111e-21)
(0.935906 -0.62761 -1.48986e-21)
(0.928825 -0.613982 0)
(0.863584 0.383978 -9.50431e-24)
(0.89349 0.386709 2.99066e-21)
(0.923576 -0.627704 2.28236e-21)
(0.914232 -0.613215 6.31564e-22)
(0.866773 0.466647 -2.68799e-21)
(0.893609 0.471363 0)
(0.910606 -0.623052 -7.87742e-22)
(0.899029 -0.608375 -4.31228e-22)
(0.872636 0.531193 1.21775e-21)
(0.896667 0.537882 -2.52221e-21)
(0.897602 -0.610635 3.40919e-21)
(0.883682 -0.595467 -3.83569e-21)
(0.882312 0.577285 -1.07282e-21)
(0.902593 0.586287 -3.47222e-23)
(0.885047 -0.58756 0)
(0.86858 -0.571539 -1.84505e-21)
(0.894089 0.60461 2.04096e-21)
(0.911097 0.614866 -4.1593e-21)
(0.872228 -0.549692 0)
(0.854199 -0.535058 0)
(0.864017 0.565073 1.06131e-21)
(0.878992 0.590984 3.58883e-21)
(0.908272 0.615891 0)
(0.92203 0.627652 1.92861e-21)
(0.842846 0.457941 7.55818e-22)
(0.851811 0.521345 -1.47431e-22)
(0.835992 0.285266 0)
(0.837696 0.379441 2.83943e-21)
(0.841566 0.0696771 6.41453e-24)
(0.837352 0.180841 0)
(0.857725 -0.156624 0)
(0.848307 -0.0440087 0)
(0.882554 -0.363902 0)
(0.868533 -0.263694 0)
(0.911662 -0.524311 -1.24367e-21)
(0.89691 -0.45066 -3.47192e-22)
(0.939363 -0.626539 1.13257e-21)
(0.926299 -0.583307 1.24139e-21)
(0.960772 -0.673856 -1.75035e-21)
(0.951134 -0.656266 -2.28672e-21)
(0.973903 -0.683178 0)
(0.968103 -0.681973 0)
(0.979987 -0.672657 6.4188e-24)
(0.977908 -0.679408 0)
(0.979401 -0.655628 0)
(0.98039 -0.664381 0)
(0.973657 -0.640564 0)
(0.977163 -0.647355 0)
(0.96246 -0.635091 0)
(0.968782 -0.636283 0)
(0.94578 -0.639367 0)
(0.954737 -0.63666 0)
(0.925419 -0.636335 0)
(0.935939 -0.64041 0)
(0.903244 -0.599489 1.73848e-21)
(0.914674 -0.623808 0)
(0.892166 -0.561952 6.51821e-22)
(0.859406 -0.498413 -5.70675e-22)
(0.840337 -0.484901 5.6584e-22)
(0.872571 -0.579649 0)
(0.839077 -0.520659 1.95382e-21)
(0.855307 -0.556456 1.00919e-21)
(0.907128 -0.597699 -2.0201e-22)
(0.889894 -0.592477 7.80464e-22)
(0.938489 -0.600284 -5.45979e-24)
(0.923389 -0.599216 0)
(0.964356 -0.609121 0)
(0.95216 -0.603238 0)
(0.984939 -0.628458 0)
(0.975205 -0.61777 0)
(1.00153 -0.652923 0)
(0.993712 -0.640386 -6.85614e-28)
(1.01373 -0.677049 -6.52775e-24)
(1.00827 -0.66545 0)
(1.01974 -0.691021 0)
(1.01774 -0.686245 0)
(1.0179 -0.677465 0)
(1.01998 -0.68896 0)
(1.00727 -0.613968 0)
(1.0134 -0.653337 6.22389e-22)
(0.989236 -0.485284 -2.09129e-22)
(0.999534 -0.557862 9.40955e-22)
(0.96899 -0.293306 0)
(0.979309 -0.396649 8.22726e-22)
(0.949544 -0.062563 0)
(0.958835 -0.180825 0)
(0.93446 0.174528 0)
(0.941341 0.0572506 0)
(0.924891 0.38555 0)
(0.928923 0.285232 0)
(0.922495 0.540161 6.88467e-22)
(0.922476 0.471456 0)
(0.929727 0.620771 2.1696e-21)
(0.924657 0.58984 6.45728e-22)
(0.936819 0.635207 -1.97179e-21)
(0.895848 0.601058 -3.3797e-21)
(0.881059 -0.510539 -1.31975e-21)
(0.823913 -0.471767 2.19105e-21)
(0.934106 0.628677 0)
(0.945293 0.637049 0)
(0.91335 0.600775 0)
(0.923278 0.616185 0)
(0.8481 0.550008 0)
(0.884617 0.582024 -7.72859e-22)
(0.865427 0.573141 -9.89641e-22)
(0.822148 0.450609 -1.48152e-21)
(0.833482 0.509449 2.85763e-22)
(0.811411 0.284798 -5.16623e-24)
(0.81477 0.374764 0)
(0.81524 0.0752321 0)
(0.811665 0.183563 0)
(0.830981 -0.14615 0)
(0.821631 -0.0358776 0)
(0.856309 -0.349234 0)
(0.842301 -0.251216 0)
(0.887886 -0.508972 0)
(0.87161 -0.435355 0)
(0.918735 -0.612059 4.48159e-24)
(0.903754 -0.567515 -1.22447e-21)
(0.944885 -0.663299 3.65279e-24)
(0.932836 -0.643743 2.12771e-21)
(0.962897 -0.676951 0)
(0.954872 -0.673645 0)
(0.973406 -0.670246 -3.18417e-24)
(0.969075 -0.67521 0)
(0.977225 -0.65618 0)
(0.976043 -0.663528 0)
(0.975633 -0.643852 0)
(0.977086 -0.64926 0)
(0.968567 -0.641235 0)
(0.972801 -0.641005 0)
(0.956353 -0.647831 0)
(0.963025 -0.644092 0)
(0.940753 -0.646019 0)
(0.948875 -0.64964 0)
(0.923264 -0.61006 -1.17869e-21)
(0.93228 -0.633885 0)
(0.847007 -0.434743 0)
(0.869965 -0.446785 -1.48877e-21)
(0.904864 -0.522686 0)
(0.914216 -0.573437 -1.25661e-21)
(0.827373 -0.506062 -1.68099e-21)
(0.811015 -0.459224 -4.38981e-22)
(0.809348 -0.411298 -4.18021e-21)
(0.82688 -0.422327 0)
(0.864084 -0.562892 0)
(0.845314 -0.540692 2.54508e-21)
(0.90173 -0.580613 -5.34638e-24)
(0.882916 -0.575268 -7.85178e-22)
(0.93623 -0.585218 5.45982e-24)
(0.919528 -0.582916 0)
(0.965221 -0.596864 0)
(0.951449 -0.5896 0)
(0.989275 -0.618354 0)
(0.977743 -0.606691 0)
(1.0099 -0.644625 0)
(0.999991 -0.631161 6.85616e-28)
(1.02682 -0.67112 1.28331e-23)
(1.01891 -0.65823 0)
(1.0384 -0.688474 0)
(1.03341 -0.681868 0)
(1.04247 -0.67894 -3.0445e-22)
(1.04147 -0.688465 0)
(1.0372 -0.619909 0)
(1.04086 -0.657006 3.03168e-22)
(1.02375 -0.494123 -8.11298e-22)
(1.03148 -0.565622 -7.58833e-22)
(1.00525 -0.303687 0)
(1.01502 -0.405806 0)
(0.985982 -0.0717426 0)
(0.995481 -0.190777 0)
(0.969105 0.167677 0)
(0.97712 0.0491715 0)
(0.956268 0.381677 0)
(0.962116 0.279809 0)
(0.948991 0.540262 -1.11207e-23)
(0.951772 0.46952 0)
(0.949432 0.624292 9.03706e-24)
(0.948094 0.591733 0)
(0.957653 0.643165 1.97902e-21)
(0.952843 0.640267 -1.9777e-21)
(0.9045 0.581826 -1.37847e-21)
(0.954426 0.63218 0)
(0.963528 0.638391 3.22072e-21)
(0.9462 0.623731 0)
(0.89582 -0.459823 0)
(0.795874 -0.400315 4.58411e-22)
(0.930391 0.596458 -3.42383e-21)
(0.923907 0.57869 -1.244e-21)
(0.962958 0.626358 -7.59628e-22)
(0.968955 0.631832 -4.02571e-21)
(0.938105 0.611649 0)
(0.931027 -0.532892 -5.70668e-21)
(0.923483 -0.471048 2.93828e-21)
(0.796277 -0.340829 1.08364e-21)
(0.782242 -0.33075 -5.27959e-21)
(0.919132 0.558084 -4.41615e-21)
(0.942094 0.577355 2.53649e-21)
(0.955613 0.562087 9.06628e-21)
(0.938899 0.55824 2.37135e-21)
(0.875392 0.56052 -1.43957e-21)
(0.897598 0.560174 3.94167e-21)
(0.83454 0.532676 1.71388e-21)
(0.853968 0.553168 1.07545e-21)
(0.804392 0.44066 5.73517e-22)
(0.817807 0.495415 4.73233e-22)
(0.78979 0.28256 5.16623e-24)
(0.79488 0.368841 0)
(0.791739 0.0799076 0)
(0.788866 0.184913 0)
(0.807231 -0.135623 0)
(0.797877 -0.0281485 0)
(0.833581 -0.334225 0)
(0.819126 -0.238454 0)
(0.867049 -0.492086 0)
(0.849764 -0.419208 0)
(0.901202 -0.596544 0)
(0.884489 -0.551124 0)
(0.931099 -0.651044 -2.17353e-25)
(0.916954 -0.629528 0)
(0.953421 -0.668681 0)
(0.943257 -0.663351 0)
(0.968129 -0.665739 -3.01648e-24)
(0.961685 -0.668906 0)
(0.976177 -0.654683 0)
(0.972892 -0.660606 0)
(0.978695 -0.645054 0)
(0.978102 -0.649113 0)
(0.975846 -0.645075 0)
(0.977934 -0.643557 0)
(0.968274 -0.653689 0)
(0.972562 -0.649059 0)
(0.957698 -0.653039 0)
(0.963263 -0.656149 0)
(0.945266 -0.618187 -6.27407e-22)
(0.951706 -0.641278 3.06578e-22)
(0.938362 -0.582378 2.78887e-21)
(0.835628 -0.361872 6.65961e-22)
(0.886745 -0.385472 -3.13235e-21)
(0.859673 -0.373479 2.12435e-21)
(0.814124 -0.350559 0)
(0.818688 -0.490613 1.2462e-21)
(0.785434 -0.389235 3.97144e-21)
(0.80135 -0.445733 -2.8866e-21)
(0.857651 -0.544188 0)
(0.837843 -0.52327 0)
(0.897881 -0.561837 5.63008e-25)
(0.877717 -0.556077 0)
(0.935202 -0.568609 0)
(0.917139 -0.565011 0)
(0.967026 -0.582959 4.49792e-24)
(0.951808 -0.574412 0)
(0.994395 -0.606308 0)
(0.98113 -0.593823 0)
(1.01895 -0.634104 0)
(1.007 -0.619852 0)
(1.04045 -0.662643 -6.30509e-24)
(1.03015 -0.648634 0)
(1.05742 -0.683067 -7.21249e-24)
(1.04964 -0.674762 0)
(1.0674 -0.677865 0)
(1.06347 -0.685073 0)
(1.068 -0.623582 0)
(1.06899 -0.658272 0)
(1.0589 -0.501601 0)
(1.06454 -0.571637 0)
(1.0428 -0.312751 0)
(1.05145 -0.414464 0)
(1.02379 -0.0809044 1.48847e-23)
(1.03342 -0.200107 0)
(1.00502 0.15957 0)
(1.01424 0.0404394 0)
(0.98839 0.375426 0)
(0.996337 0.272515 0)
(0.975848 0.53712 -1.0871e-26)
(0.981455 0.46467 0)
(0.969913 0.625124 -1.06695e-26)
(0.971927 0.590617 0)
(0.971056 0.646333 -7.34814e-24)
(0.969679 0.642447 0)
(0.975698 0.634829 2.94221e-21)
(0.973362 0.642113 -8.44376e-22)
(0.972999 0.627374 -7.08559e-22)
(0.977221 0.628956 -1.5502e-21)
(0.946529 0.594002 1.43448e-21)
(0.95746 0.618887 1.48392e-21)
(0.916017 -0.39712 -8.18285e-22)
(0.771312 -0.322131 -3.17562e-21)
(0.958425 0.58109 -5.3521e-23)
(0.969704 0.623647 0)
(0.973633 0.57415 -1.39288e-20)
(0.977293 0.626964 -1.86669e-21)
(0.975326 0.62711 -2.58891e-21)
(0.981307 0.555702 2.00799e-20)
(0.999975 0.561595 -3.53099e-21)
(0.951703 0.608088 0)
(0.95216 0.540946 -2.21265e-21)
(0.968056 0.547384 -1.11728e-21)
(0.915024 0.535234 -2.26565e-21)
(0.9352 0.536529 3.12742e-21)
(0.868191 0.536744 1.40521e-21)
(0.89218 0.5364 5.69365e-22)
(0.823183 0.512219 -8.23002e-22)
(0.844727 0.530427 -7.13235e-22)
(0.789283 0.427793 0)
(0.804589 0.478576 -4.62647e-23)
(0.771404 0.278614 0)
(0.778087 0.360539 0)
(0.771372 0.0840234 -4.54682e-24)
(0.769258 0.185168 0)
(0.78663 -0.12496 0)
(0.777254 -0.0206042 0)
(0.813894 -0.318587 0)
(0.798953 -0.225198 0)
(0.849036 -0.474128 0)
(0.830819 -0.402097 0)
(0.885994 -0.579532 -3.61008e-24)
(0.867731 -0.533302 0)
(0.919248 -0.637006 -2.47429e-25)
(0.903331 -0.613721 0)
(0.945463 -0.658499 0)
(0.933329 -0.65124 0)
(0.964133 -0.659178 5.90007e-24)
(0.955695 -0.660603 0)
(0.976226 -0.6511 0)
(0.97092 -0.655605 0)
(0.982775 -0.644126 0)
(0.980162 -0.646869 0)
(0.984176 -0.646595 0)
(0.984089 -0.643903 0)
(0.98137 -0.656987 0)
(0.983199 -0.651576 0)
(0.976001 -0.657396 0)
(0.978906 -0.660038 0)
(0.968849 -0.623867 3.22587e-22)
(0.9726 -0.646154 0)
(0.959293 -0.540638 0)
(0.96427 -0.588858 7.01339e-22)
(0.947093 -0.407325 -2.17248e-23)
(0.953441 -0.479683 0)
(0.877967 -0.302825 3.17637e-21)
(0.940929 -0.324134 -2.15475e-22)
(0.90859 -0.313208 -1.718e-21)
(0.825182 -0.281691 -1.05162e-21)
(0.850053 -0.291617 7.42483e-22)
(0.785186 -0.26264 3.47916e-22)
(0.803264 -0.271703 -2.88308e-22)
(0.759465 -0.247557 0)
(0.770631 -0.254197 2.32236e-21)
(0.777632 -0.377292 8.20232e-22)
(0.751448 -0.241143 1.67021e-21)
(0.763613 -0.313176 -3.70173e-21)
(0.812347 -0.473406 3.71247e-22)
(0.794223 -0.430873 0)
(0.853175 -0.524127 0)
(0.832391 -0.504187 0)
(0.895732 -0.541701 5.83146e-25)
(0.874487 -0.53559 0)
(0.935456 -0.550754 0)
(0.916239 -0.545845 0)
(0.969751 -0.567656 -4.49792e-24)
(0.953252 -0.557929 0)
(1.00015 -0.592558 0)
(0.985287 -0.579411 0)
(1.02839 -0.621526 0)
(1.01451 -0.60667 0)
(1.05434 -0.65169 0)
(1.04172 -0.636777 0)
(1.07663 -0.674757 3.3947e-25)
(1.06608 -0.664967 0)
(1.09263 -0.673626 0)
(1.08563 -0.67861 0)
(1.09915 -0.624498 0)
(1.09723 -0.656578 0)
(1.09469 -0.507308 0)
(1.09826 -0.575041 0)
(1.08108 -0.321364 0)
(1.0888 -0.421895 0)
(1.06228 -0.0904708 -1.48847e-23)
(1.07209 -0.209363 0)
(1.04156 0.150156 0)
(1.05202 0.0308427 0)
(1.02102 0.366997 0)
(1.03115 0.263483 0)
(1.00303 0.530907 1.11284e-23)
(1.01153 0.45716 0)
(0.990632 0.622484 -9.06815e-24)
(0.99597 0.586122 0)
(0.985038 0.646815 7.26498e-24)
(0.987061 0.641519 0)
(0.983445 0.635734 -7.95258e-22)
(0.984045 0.643224 1.62108e-21)
(0.979966 0.625254 6.62977e-22)
(0.982225 0.628902 -1.32996e-21)
(0.975625 0.629128 1.6364e-22)
(0.97589 0.625436 -1.0926e-21)
(0.961098 0.596591 1.27467e-21)
(0.966602 0.617468 0)
(0.973224 0.588907 1.02946e-20)
(0.974171 0.625257 0)
(0.980785 -0.414545 9.11195e-22)
(0.97587 -0.332259 -6.70736e-22)
(0.74996 -0.167247 1.97606e-21)
(0.742357 -0.162443 1.94088e-21)
(0.987113 0.588662 9.22619e-21)
(0.975979 0.631055 2.61477e-21)
(1.01284 0.576155 0)
(0.98796 0.540341 2.05178e-21)
(0.971876 0.634275 1.22223e-21)
(0.969774 0.628478 -1.45166e-21)
(1.00885 0.552712 -4.16637e-21)
(0.96367 0.608685 0)
(0.952485 0.521411 0)
(0.969879 0.530028 1.84682e-21)
(0.913075 0.511879 0)
(0.934072 0.514737 0)
(0.863847 0.512052 0)
(0.889341 0.512061 -5.89926e-22)
(0.814998 0.491061 0)
(0.838583 0.506825 0)
(0.777325 0.413932 0)
(0.794324 0.460685 0)
(0.756416 0.273481 0)
(0.764559 0.350909 0)
(0.754353 0.0876541 4.54682e-24)
(0.753063 0.184539 0)
(0.769218 -0.114081 0)
(0.75988 -0.0131502 0)
(0.797223 -0.302354 0)
(0.781831 -0.211432 0)
(0.833807 -0.455174 0)
(0.814786 -0.38416 0)
(0.873078 -0.561047 3.42487e-25)
(0.853521 -0.514207 0)
(0.909301 -0.621199 -2.73247e-25)
(0.891833 -0.596321 0)
(0.939012 -0.646424 0)
(0.925085 -0.637277 0)
(0.961392 -0.650639 -1.62574e-25)
(0.951078 -0.65036 0)
(0.977334 -0.645513 0)
(0.970094 -0.648607 0)
(0.987815 -0.641148 0)
(0.983219 -0.642613 0)
(0.993453 -0.645875 0)
(0.991187 -0.642121 0)
(0.995453 -0.657804 0)
(0.994799 -0.651719 0)
(0.995342 -0.659175 0)
(0.995574 -0.661349 0)
(0.993507 -0.626537 0)
(0.9946 -0.648324 0)
(0.988782 -0.545959 -7.70602e-22)
(0.991386 -0.592465 -7.1204e-22)
(0.985162 -0.48605 1.66648e-21)
(0.869794 -0.213457 1.63679e-21)
(0.935106 -0.232684 0)
(0.901091 -0.222491 1.73823e-21)
(0.816095 -0.196351 0)
(0.841463 -0.20483 -1.67054e-21)
(0.775784 -0.179819 -1.8643e-21)
(0.794099 -0.188075 6.7239e-22)
(0.761098 -0.172439 3.36485e-21)
(0.772626 -0.36401 -3.05256e-22)
(0.746745 -0.233822 -1.34629e-21)
(0.758925 -0.303498 0)
(0.808397 -0.455206 6.18599e-22)
(0.789646 -0.415078 -6.20138e-22)
(0.850604 -0.502739 0)
(0.828992 -0.483991 0)
(0.895259 -0.52043 5.92515e-25)
(0.873003 -0.513873 0)
(0.936876 -0.531824 0)
(0.916718 -0.525583 0)
(0.973285 -0.551067 0)
(0.955662 -0.540297 0)
(1.00644 -0.577193 0)
(0.990112 -0.563548 0)
(1.0381 -0.606996 0)
(1.02243 -0.591713 0)
(1.06827 -0.638355 -5.2312e-24)
(1.05342 -0.622766 0)
(1.09576 -0.663628 6.87302e-24)
(1.08249 -0.652557 0)
(1.11774 -0.666392 0)
(1.10768 -0.669197 0)
(1.13031 -0.622711 0)
(1.12544 -0.651935 0)
(1.13071 -0.511103 0)
(1.13209 -0.576144 0)
(1.11969 -0.329267 0)
(1.12643 -0.428004 0)
(1.10099 -0.100542 0)
(1.11105 -0.218559 0)
(1.07819 0.139202 0)
(1.08994 0.0202014 0)
(1.0537 0.356215 1.26449e-23)
(1.06602 0.252468 0)
(1.03021 0.521692 -1.07084e-23)
(1.04163 0.446961 0)
(1.01128 0.616338 8.64991e-24)
(1.01997 0.57831 0)
(0.999144 0.6439 0)
(1.00438 0.63709 0)
(0.991691 0.634091 0)
(0.995145 0.64127 0)
(0.983443 0.621295 -4.35319e-24)
(0.987973 0.626587 -6.59775e-22)
(0.968735 0.620216 2.38083e-21)
(0.977128 0.619347 0)
(0.961366 0.632721 1.52031e-21)
(0.957968 0.622377 -1.25771e-22)
(0.973239 0.603257 -3.60125e-21)
(0.973511 0.620579 0)
(0.970635 -0.241131 3.71621e-21)
(0.737536 -0.158393 2.72717e-21)
(0.984495 0.601721 1.73705e-21)
(1.0099 0.591943 8.80217e-23)
(1.0029 0.603956 -4.60598e-21)
(0.977003 0.63062 0)
(0.974777 0.637823 -5.86165e-22)
(1.02711 0.570625 3.75133e-21)
(1.03737 0.58851 -3.9739e-21)
(1.02717 0.602499 3.86852e-21)
(0.9662 0.640545 1.62934e-21)
(0.950717 0.636316 -9.99371e-22)
(0.944658 0.623669 -8.57987e-22)
(0.973262 0.613643 0)
(0.994081 0.52394 -9.52419e-23)
(1.03327 0.551442 -9.679e-23)
(1.01497 0.536894 -7.51564e-22)
(0.954792 0.501637 -8.05636e-22)
(0.974112 0.511966 8.10321e-22)
(0.912832 0.488464 -1.59639e-24)
(0.935047 0.493259 0)
(0.861775 0.486246 0)
(0.888194 0.486975 0)
(0.809613 0.468046 0)
(0.835011 0.481681 0)
(0.768399 0.398207 0)
(0.787085 0.44096 0)
(0.744708 0.267041 -3.18835e-24)
(0.754164 0.339689 0)
(0.740697 0.0906753 0)
(0.740239 0.182923 0)
(0.754978 -0.103101 0)
(0.745769 -0.00590832 0)
(0.783514 -0.285628 0)
(0.76776 -0.197303 0)
(0.821296 -0.435397 0)
(0.801602 -0.365549 0)
(0.862448 -0.541295 3.26759e-24)
(0.841842 -0.494064 0)
(0.901244 -0.603839 -2.93317e-25)
(0.882419 -0.577527 0)
(0.934063 -0.632597 0)
(0.918525 -0.621636 0)
(0.959882 -0.640254 -5.25365e-24)
(0.947818 -0.638312 0)
(0.979457 -0.638035 0)
(0.970382 -0.639738 0)
(0.993734 -0.636192 0)
(0.987212 -0.636436 0)
(1.00354 -0.642948 0)
(0.999125 -0.638264 0)
(1.0103 -0.656131 0)
(1.00719 -0.649506 0)
(1.01539 -0.65831 0)
(1.01299 -0.660071 0)
(1.01877 -0.626785 -1.03794e-23)
(1.01732 -0.647886 0)
(1.01911 -0.547849 7.73971e-22)
(1.01948 -0.593501 0)
(1.01522 -0.419469 -8.61391e-22)
(1.01773 -0.489568 0)
(1.00763 -0.24875 -9.38183e-22)
(1.01197 -0.339035 9.01603e-22)
(0.928666 -0.136599 -1.88436e-21)
(1.00277 -0.151823 0)
(0.965257 -0.14337 -2.80126e-21)
(0.862538 -0.120968 0)
(0.894107 -0.128198 0)
(0.808619 -0.107752 0)
(0.833887 -0.114209 0)
(0.768885 -0.0945138 0)
(0.786935 -0.10116 0)
(0.743263 -0.0845537 -2.01409e-21)
(0.754182 -0.0887442 -5.80613e-22)
(0.731414 -0.0807438 -3.50257e-22)
(0.735931 -0.0819484 -3.50693e-21)
(0.744359 -0.226531 -1.47027e-21)
(0.729707 -0.0797813 -2.35032e-22)
(0.735361 -0.154862 5.69896e-22)
(0.770452 -0.350021 -2.7135e-22)
(0.756245 -0.292263 1.79843e-21)
(0.806532 -0.435786 7.47083e-25)
(0.78743 -0.398237 0)
(0.850056 -0.480456 0)
(0.827556 -0.462713 0)
(0.896311 -0.498293 5.92546e-25)
(0.873269 -0.491251 0)
(0.939346 -0.512037 0)
(0.918478 -0.504502 0)
(0.977508 -0.533359 0)
(0.958931 -0.521706 0)
(1.0131 -0.560367 0)
(0.995472 -0.546393 0)
(1.04788 -0.590648 0)
(1.03056 -0.575124 0)
(1.08197 -0.622733 9.99483e-24)
(1.06504 -0.606716 0)
(1.11442 -0.649703 0)
(1.09853 -0.6376 0)
(1.1423 -0.656064 0)
(1.1292 -0.656791 0)
(1.16101 -0.618078 0)
(1.15311 -0.644235 0)
(1.16645 -0.513011 0)
(1.16554 -0.574809 0)
(1.15813 -0.336528 1.31782e-23)
(1.16386 -0.432834 0)
(1.13946 -0.111148 0)
(1.14981 -0.227719 0)
(1.11449 0.126678 0)
(1.12757 0.00849631 0)
(1.086 0.343001 -1.26449e-23)
(1.10053 0.239434 0)
(1.05705 0.509441 4.15233e-25)
(1.07135 0.433993 0)
(1.03171 0.606819 -1.69105e-23)
(1.04368 0.56725 0)
(1.0131 0.637626 0)
(1.02152 0.62926 0)
(1.00004 0.629362 0)
(1.00616 0.636103 0)
(0.987001 0.615109 4.02262e-25)
(0.993933 0.621438 0)
(0.967805 0.610386 0)
(0.978387 0.611535 0)
(0.939602 0.609101 1.0894e-21)
(0.954872 0.610224 0)
(0.928828 0.622574 -4.18658e-23)
(0.921469 0.605403 -1.61257e-21)
(0.982794 0.613498 0)
(1.04983 0.568365 -5.26532e-21)
(0.997261 0.614475 -1.17719e-21)
(1.04559 -0.255908 9.36551e-22)
(1.04249 -0.161524 0)
(0.728035 -0.00175221 -2.9154e-22)
(0.726769 -0.00274108 6.95545e-22)
(0.978625 0.627522 0)
(0.978455 0.638552 0)
(1.01666 0.616389 0)
(0.971907 0.64582 5.7726e-22)
(0.958284 0.646276 9.89215e-22)
(0.937474 0.637447 0)
(0.909955 0.617329 -2.05482e-21)
(0.900434 0.597733 1.32411e-21)
(0.980754 0.622021 0)
(1.04142 0.532714 3.41136e-25)
(1.06731 0.585125 -1.61431e-21)
(1.08103 0.564547 5.60188e-21)
(1.06102 0.54839 -1.5583e-21)
(0.999249 0.505597 4.03968e-22)
(1.02069 0.519036 7.44449e-22)
(0.957289 0.481172 0)
(0.978076 0.492813 0)
(0.913445 0.464547 1.59651e-24)
(0.936275 0.471274 0)
(0.861352 0.459364 0)
(0.888374 0.461185 0)
(0.806802 0.44336 0)
(0.833599 0.455092 0)
(0.762433 0.380991 0)
(0.782673 0.419553 0)
(0.736198 0.259482 3.18835e-24)
(0.746833 0.327173 0)
(0.730356 0.09305 0)
(0.730717 0.180394 0)
(0.743857 -0.0921582 0)
(0.734891 0.00100663 0)
(0.772668 -0.26853 0)
(0.756673 -0.182964 0)
(0.81138 -0.414952 0)
(0.791152 -0.346408 0)
(0.854045 -0.520514 -2.54149e-24)
(0.832597 -0.47308 0)
(0.89502 -0.58515 -3.07318e-25)
(0.875032 -0.557556 0)
(0.930585 -0.617207 0)
(0.91361 -0.604533 0)
(0.959555 -0.628166 2.10067e-25)
(0.945878 -0.624621 0)
(0.982527 -0.62877 0)
(0.97173 -0.62912 0)
(1.00042 -0.629309 0)
(0.992056 -0.628416 0)
(1.01428 -0.637828 0)
(1.00777 -0.63236 0)
(1.02567 -0.651966 0)
(1.02017 -0.644945 0)
(1.03585 -0.654805 0)
(1.03088 -0.656212 0)
(1.04444 -0.624416 2.06202e-23)
(1.04041 -0.64487 0)
(1.04993 -0.547441 1.20945e-23)
(1.04764 -0.592065 0)
(1.05042 -0.422681 -1.6983e-21)
(1.05077 -0.490721 1.72199e-21)
(1.04856 -0.343672 -1.79902e-21)
(0.922708 -0.038187 -4.81613e-22)
(0.998459 -0.0529104 -1.24156e-22)
(0.959433 -0.0446503 1.45779e-21)
(0.856371 -0.0267964 0)
(0.888095 -0.0322826 0)
(0.802956 -0.0169611 1.19611e-26)
(0.827915 -0.0218086 0)
(0.764038 -0.00831792 0)
(0.781629 -0.0124766 0)
(0.739165 -0.0020222 -1.03204e-21)
(0.749745 -0.00487222 1.14581e-21)
(0.732197 -0.00127712 5.61043e-23)
(0.744379 -0.21906 5.24257e-23)
(0.730424 -0.0787615 5.82756e-22)
(0.735763 -0.150651 -1.07004e-22)
(0.770166 -0.335516 2.40542e-22)
(0.755891 -0.281194 -2.40966e-22)
(0.806558 -0.415594 3.65499e-24)
(0.787166 -0.3806 0)
(0.851353 -0.457384 2.61362e-24)
(0.828212 -0.440748 0)
(0.898754 -0.475531 5.84328e-25)
(0.875188 -0.467944 0)
(0.942746 -0.491602 0)
(0.921389 -0.482826 0)
(0.982305 -0.514694 0)
(0.962941 -0.502331 0)
(1.02001 -0.542244 0)
(1.00124 -0.528104 0)
(1.05754 -0.572653 0)
(1.03877 -0.557076 0)
(1.0952 -0.60499 -4.76364e-24)
(1.07637 -0.588798 0)
(1.13227 -0.63312 -5.43206e-24)
(1.11393 -0.620252 0)
(1.16583 -0.642689 0)
(1.14978 -0.641494 0)
(1.1907 -0.610525 0)
(1.17974 -0.633464 0)
(1.20139 -0.512885 0)
(1.19807 -0.570904 0)
(1.19593 -0.343123 -1.31782e-23)
(1.20059 -0.436294 0)
(1.1773 -0.122345 1.32398e-23)
(1.18795 -0.236881 0)
(1.15006 0.11258 0)
(1.16452 -0.00431501 0)
(1.11756 0.327397 0)
(1.13429 0.224386 0)
(1.08323 0.494212 5.38027e-25)
(1.10036 0.4183 0)
(1.05168 0.594097 1.60273e-23)
(1.06682 0.553044 0)
(1.02678 0.628287 0)
(1.0383 0.618264 0)
(1.00816 0.621863 0)
(1.01694 0.628011 0)
(0.990473 0.606436 4.74018e-25)
(0.99965 0.613731 0)
(0.967235 0.598 0)
(0.979821 0.601232 0)
(0.935152 0.592105 -5.94526e-22)
(0.952407 0.595558 0)
(0.892228 0.57602 -5.0473e-22)
(0.915041 0.586296 1.07433e-21)
(1.04266 0.619321 7.27158e-21)
(1.06113 0.605612 5.38024e-21)
(0.876041 0.58385 5.54124e-22)
(0.866555 0.560044 -5.53776e-22)
(0.992132 0.624127 0)
(1.03856 -0.0629977 -1.8261e-21)
(0.72801 -0.00464844 2.24089e-21)
(1.10189 0.580373 -9.52183e-22)
(0.982635 0.636552 0)
(1.08772 0.602742 -4.32689e-22)