/*--------------------------------*- C++ -*----------------------------------*\
  =========                 |
  \\      /  F ield         | OpenFOAM: The Open Source CFD Toolbox
   \\    /   O peration     | Website:  https://openfoam.org
    \\  /    A nd           | Version:  10
     \\/     M anipulation  |
\*---------------------------------------------------------------------------*/
FoamFile
{
    format      ascii;
    class       volVectorField;
    location    "33.5";
    object      U;
}
// * * * * * * * * * * * * * * * * * * * * * * * * * * * * * * * * * * * * * //

dimensions      [0 1 -1 0 0 0 0];

internalField   nonuniform List<vector> 
40874
(
(0.72405 -0.280311 0)
(0.618478 -0.257352 3.60279e-19)
(1.13211 -0.618077 -3.16083e-20)
(1.061 -0.551774 1.34304e-19)
(1.07082 -0.800968 8.15361e-20)
(1.06624 -0.808494 5.37063e-20)
(1.10039 -0.806335 -3.42287e-20)
(1.21446 -0.543335 8.45527e-21)
(1.09934 -0.4959 -2.15385e-21)
(0.797614 -0.710741 9.94477e-20)
(0.785091 -0.531974 -1.60101e-19)
(0.468336 -0.70513 1.46668e-19)
(0.893923 -0.741736 9.32656e-21)
(0.868307 -0.467014 9.07199e-20)
(0.866432 -0.361116 -8.82834e-20)
(0.805337 -0.342242 8.65402e-20)
(1.05532 -0.702473 -6.50288e-21)
(1.21453 -0.775142 0)
(1.00096 -0.807884 -2.26003e-19)
(1.01629 -0.340358 -7.5737e-20)
(1.01339 -0.409511 -5.48047e-21)
(1.00986 -0.500051 -1.28972e-19)
(0.637114 -0.611803 6.72764e-21)
(0.610842 -0.749073 3.87751e-20)
(0.948098 -0.402907 1.21693e-19)
(1.1946 -0.515072 -7.96933e-22)
(1.22215 -0.523282 1.33581e-20)
(1.19701 -0.449005 5.60807e-21)
(1.24058 -0.469531 0)
(1.35302 -0.485769 -1.70626e-20)
(1.35317 -0.519899 -4.26459e-21)
(1.27935 -0.458939 6.49079e-21)
(1.23545 -0.517728 0)
(-0.0592736 -0.442122 7.65796e-20)
(0.0641595 -0.376 0)
(0.042928 -0.360452 0)
(-0.0576821 -0.414524 -1.71067e-21)
(0.541736 0.010423 -2.4537e-22)
(0.50587 0.00986738 6.50551e-22)
(0.569926 0.0137022 -4.66854e-21)
(0.644488 0.0118458 0)
(0.650938 0.00927388 -1.39247e-21)
(0.590736 0.0119955 2.02795e-21)
(0.524264 0.0127939 6.04991e-22)
(0.648467 0.0101157 1.40303e-21)
(0.582292 0.0103979 -9.34991e-22)
(0.504213 0.0111711 0)
(0.870494 0.531684 -2.51188e-20)
(0.75407 0.521723 5.08873e-20)
(0.750492 0.387325 -1.51485e-20)
(0.857299 0.407406 0)
(1.02408 0.537705 0)
(0.971795 0.485667 4.39641e-21)
(1.44368 -0.433626 6.14228e-20)
(1.49809 -0.367971 0)
(1.40428 -0.332347 0)
(1.36908 -0.361027 0)
(1.34767 -0.441476 -6.61804e-21)
(1.52483 -0.457825 -3.11727e-20)
(1.35598 -0.333305 1.2965e-19)
(1.53449 -0.306409 -1.72734e-19)
(1.19158 0.512801 0)
(1.09593 0.514766 0)
(1.11444 0.458803 1.81754e-21)
(1.24986 0.50404 -1.51389e-21)
(-0.0672267 -0.0460099 7.97515e-20)
(-0.0931276 -0.039935 -6.30635e-20)
(-0.0644898 -0.0396206 -5.98397e-20)
(-0.00264548 -0.0107126 0)
(-0.00105238 -0.00263652 -1.14338e-19)
(-0.00470201 -0.000669193 -1.19359e-19)
(0.0312213 -0.102034 2.4487e-19)
(0.0102622 -0.0365727 4.23413e-20)
(0.0186726 -0.0586323 4.02302e-20)
(0.42638 -0.0513468 -1.92222e-22)
(0.475371 -0.00663634 1.01824e-20)
(0.297491 0.0273903 -3.232e-21)
(0.20488 -0.0275797 -2.47333e-22)
(0.235459 0.0171561 7.91326e-22)
(0.381823 0.014194 0)
(0.368504 0.0140328 -6.34748e-22)
(0.179216 0.0116831 -2.31704e-21)
(0.817373 0.304288 7.20669e-20)
(0.767823 0.287298 7.64288e-20)
(0.792469 0.211566 -3.86552e-20)
(0.832611 0.212918 1.70547e-19)
(1.25118 0.239182 -2.88911e-25)
(1.25067 0.248066 -3.45595e-21)
(1.23579 0.234037 3.46979e-22)
(1.31844 0.287914 4.52702e-21)
(1.46237 0.266764 5.09618e-20)
(1.39193 0.231814 -3.96133e-21)
(1.49752 0.377877 5.09673e-20)
(1.34886 -0.743267 0)
(1.38805 -0.479787 -5.01898e-20)
(0.692257 -0.0236833 8.05537e-22)
(0.630052 -0.0290802 6.45461e-23)
(0.5675 -0.0307189 -1.02785e-21)
(0.648043 -0.0267705 2.32334e-22)
(0.715318 -0.0234167 3.99285e-22)
(0.995577 -0.0387947 0)
(0.988909 -0.0319233 4.35873e-22)
(0.0335746 -0.0139034 -5.23743e-21)
(0.116203 -0.0273331 -3.54254e-20)
(-0.0953558 -0.0794752 0)
(-0.0864367 -0.102934 0)
(0.900685 0.289958 0)
(0.876941 0.331982 -7.01537e-20)
(0.221037 -0.194676 5.63717e-19)
(0.199286 -0.283843 -8.59105e-19)
(-0.116964 -0.199592 0)
(-0.0898909 -0.327657 2.43539e-20)
(0.994001 -0.0368458 -3.51615e-20)
(0.525251 -0.0169466 -4.39882e-22)
(0.484266 -0.0119278 6.96842e-22)
(0.54395 0.00493765 -2.83703e-21)
(0.455328 0.00110459 1.36338e-21)
(0.491477 0.532358 1.04445e-20)
(0.435638 0.582767 -2.89846e-20)
(0.617612 0.687087 5.14484e-21)
(0.373892 0.56967 1.17851e-19)
(0.19071 -0.330083 -8.92318e-20)
(0.346111 -0.704137 8.02154e-20)
(0.216414 0.493429 -2.46065e-20)
(0.571777 0.00951576 0)
(0.494636 0.00874303 0)
(0.468519 0.0126578 1.38462e-21)
(0.417198 0.0105686 0)
(0.101108 -0.0079806 0)
(0.135629 -0.00811502 3.48162e-22)
(1.0031 -0.015902 -8.83493e-20)
(0.618945 0.0107898 1.52495e-21)
(1.11016 -0.0384481 0)
(1.10977 -0.0387444 -3.22133e-21)
(0.674553 -0.0876132 0)
(1.27911 0.242375 2.24627e-21)
(1.27635 0.234174 -3.92108e-21)
(1.31434 0.260866 -4.74489e-21)
(1.14485 -0.0560818 1.99353e-20)
(1.27574 -0.0194607 -1.35013e-20)
(1.24704 -0.0278571 6.79218e-21)
(1.10754 -0.0643959 2.45069e-20)
(1.00655 -0.0787479 -1.08427e-22)
(0.983011 -0.0863316 -4.90667e-21)
(0.379699 -0.17286 -8.23321e-20)
(0.246382 -0.205365 1.03932e-19)
(0.135324 -0.221434 -8.30743e-20)
(0.0742165 -0.205376 -2.05933e-19)
(0.0363013 -0.0986316 -2.81003e-19)
(0.0953905 -0.189271 1.76976e-19)
(1.22617 -0.671362 0)
(1.50091 -0.334107 -1.54958e-20)
(1.42889 -0.298379 5.25011e-20)
(-0.0999029 -0.0681781 1.69883e-19)
(-0.0593404 -0.0329583 0)
(-0.070799 -0.0451797 0)
(-0.0822858 -0.0460321 0)
(-0.0948374 -0.106759 -3.10381e-20)
(-0.0828476 -0.0573883 6.13609e-20)
(-0.0998642 -0.0932029 0)
(0.140776 0.0181603 8.75552e-20)
(0.324385 0.0255878 -1.85058e-19)
(0.411137 0.0568298 -6.34656e-20)
(0.0694462 -0.0707546 0)
(0.386306 -0.288126 -1.50118e-21)
(0.336422 -0.500359 2.69958e-19)
(0.480977 -0.573386 -2.49781e-20)
(0.649091 -0.391255 -3.11539e-19)
(1.04127 0.439988 -4.75862e-21)
(0.768445 0.041791 0)
(0.11352 -0.475561 -9.64956e-20)
(0.12391 -0.529491 -1.7643e-19)
(0.507965 -0.638427 -1.04955e-19)
(0.128355 -0.425945 9.12968e-20)
(0.698984 -0.0208537 0)
(0.629496 -0.0203226 -5.12433e-21)
(1.26732 0.0739939 1.00752e-19)
(1.20928 0.0325098 -5.16054e-20)
(1.08142 0.0104053 -7.69985e-20)
(-0.0284436 -0.067821 -8.83182e-20)
(0.0196791 -0.0755526 3.88918e-20)
(0.487912 -0.127181 2.17331e-20)
(0.384719 -0.141851 3.02125e-20)
(1.26046 -0.425907 8.33783e-20)
(1.13974 -0.316871 2.30324e-20)
(1.06437 -0.0373089 4.24688e-22)
(1.06631 -0.0409104 0)
(1.06901 -0.0381207 0)
(0.891534 0.232781 4.40366e-20)
(0.887564 0.207902 -1.0736e-19)
(0.906296 0.216136 -8.19552e-22)
(0.948846 0.404677 2.38063e-20)
(1.01006 0.389727 5.28801e-21)
(0.263622 0.0615073 3.51944e-19)
(0.0829423 0.0893602 0)
(0.0661907 -0.00168666 0)
(0.21557 -0.0326859 0)
(1.15861 0.673905 -1.52293e-21)
(1.28889 0.617493 5.72441e-20)
(1.26971 0.656093 -2.62309e-20)
(1.04897 0.634942 -1.72396e-20)
(-0.0678439 0.0402896 -4.77696e-20)
(-0.0768064 0.0362955 -1.80479e-19)
(-0.061946 0.0388718 -3.37903e-20)
(-0.0668672 0.0365198 0)
(1.06086 -0.0429417 3.3746e-22)
(1.06 -0.0380277 1.94645e-22)
(-0.0879007 0.0457541 3.71208e-19)
(0.354264 0.00183243 1.35456e-21)
(0.404358 -0.00225545 0)
(1.01368 -0.0342579 -3.10927e-20)
(1.01778 -0.037395 7.12853e-20)
(0.793458 0.679523 -1.39747e-19)
(1.09917 -0.0941615 -7.26803e-20)
(1.01816 -0.117418 0)
(1.08385 -0.118925 -5.20872e-20)
(1.08814 -0.101614 4.26051e-20)
(1.01849 -0.0773126 1.35074e-20)
(1.00977 -0.0962329 2.306e-20)
(0.630973 -0.161236 -2.33821e-19)
(0.487773 -0.0625931 1.39112e-19)
(0.412476 -0.172009 -4.08533e-19)
(0.643698 0.0100765 0)
(0.639415 0.00935356 -2.73997e-22)
(0.838962 0.720581 1.33933e-19)
(0.448143 0.451269 -1.1616e-20)
(0.506363 0.496815 0)
(1.03306 -0.128118 0)
(0.197506 -0.305383 0)
(1.22743 -0.0134369 0)
(1.21821 -0.0116895 2.28801e-21)
(-0.0705958 0.0105925 1.0504e-19)
(-0.0744508 0.029917 4.37569e-20)
(1.49232 -0.284003 0)
(-0.0389226 -0.198369 -8.07314e-20)
(-0.0652714 -0.189342 1.08725e-19)
(-0.115263 -0.281768 -2.35243e-19)
(-0.0654299 -0.28321 2.21905e-19)
(0.0269359 -0.187549 -3.36775e-20)
(0.575177 -0.338573 0)
(0.710066 -0.435475 -3.19781e-20)
(0.0336209 -0.0612845 3.65333e-20)
(0.0168048 -0.0286644 -3.64758e-20)
(0.885359 0.64978 0)
(1.0429 0.674495 5.38447e-21)
(0.918744 0.588636 -2.77933e-20)
(0.677693 0.497786 0)
(0.676477 0.246574 -1.17811e-19)
(0.613601 0.347263 8.25526e-20)
(0.46889 0.221978 -3.04486e-19)
(0.588806 0.126912 3.72869e-20)
(1.32039 0.134936 -9.56287e-21)
(1.3045 0.127155 1.04858e-20)
(1.31543 0.120054 4.37096e-21)
(1.33249 0.127643 0)
(1.09952 -0.0641427 1.21113e-20)
(1.01381 -0.0712082 -1.04173e-20)
(1.11167 -0.0460459 0)
(0.0227755 -0.252816 0)
(0.0224517 -0.343675 3.93962e-20)
(0.0570086 -0.206916 4.07312e-20)
(-0.116087 -0.206166 2.01808e-20)
(-0.0311371 -0.0610661 -8.23366e-20)
(-0.0219333 -0.0931346 2.3409e-19)
(0.0912987 0.191955 -5.08259e-19)
(0.0234965 0.123665 -3.06606e-19)
(0.0157375 0.0740182 -4.27112e-20)
(0.763738 -0.0361741 5.70765e-20)
(0.786432 -0.0506174 -1.11115e-19)
(0.779459 -0.0140052 0)
(0.168025 -0.182202 2.59116e-20)
(1.07281 -0.0383383 1.8771e-22)
(1.3623 0.128093 0)
(1.12645 -0.0428559 -1.35067e-20)
(1.18488 0.0829252 0)
(1.17587 0.0774686 4.14996e-22)
(1.16716 0.072651 -1.05015e-22)
(1.15888 0.0679884 -1.12788e-22)
(1.15068 0.063993 2.58575e-21)
(1.14337 0.0596975 -4.50193e-21)
(1.13699 0.054219 -1.67658e-20)
(1.13079 0.0502974 1.82525e-21)
(1.12494 0.0464041 -1.36109e-21)
(1.11971 0.0425563 -1.84731e-27)
(1.11475 0.0387637 5.02514e-22)
(1.11036 0.0351542 4.17878e-21)
(1.1062 0.0315973 -4.71747e-21)
(1.10253 0.028195 -2.60354e-25)
(1.09909 0.0248347 5.48718e-22)
(1.09607 0.0216181 -8.97635e-21)
(1.09328 0.0184488 8.508e-21)
(1.09096 0.0154997 0)
(1.08872 0.0124171 -1.11326e-21)
(1.08683 0.0094431 0)
(1.08522 0.00655604 -9.39611e-21)
(1.08393 0.00376501 9.27962e-21)
(1.08287 0.000996917 5.84349e-22)
(1.08211 -0.00169325 -2.85328e-25)
(1.08161 -0.00436323 0)
(1.08139 -0.00696553 -9.44284e-21)
(1.08145 -0.00955048 8.78106e-21)
(1.0818 -0.0120781 -9.41304e-21)
(1.08244 -0.0145914 1.87063e-20)
(1.0834 -0.0170548 -1.86649e-20)
(1.08468 -0.0195058 9.26254e-21)
(1.08631 -0.0219173 0)
(1.0883 -0.0243555 9.69891e-21)
(1.0909 -0.0269696 -1.68644e-20)
(1.09398 -0.0292132 1.01404e-20)
(1.09771 -0.031713 0)
(1.10096 -0.033298 7.8973e-21)
(1.10459 -0.0360632 0)
(1.20949 0.0912371 7.10548e-24)
(1.20249 0.0954392 -2.31014e-22)
(1.21379 0.10154 -1.54544e-23)
(1.22551 0.108132 0)
(1.23292 0.10243 1.6778e-22)
(1.22066 0.0964795 1.43609e-22)
(1.18966 0.080292 0)
(1.19949 0.0851222 -2.02831e-21)
(1.17135 0.0701516 1.66998e-22)
(1.18017 0.0748831 -6.18468e-22)
(1.15456 0.061379 0)
(1.1627 0.0653447 0)
(1.14003 0.0526271 0)
(1.14667 0.0574701 4.52831e-21)
(1.12796 0.0450799 -9.58257e-24)
(1.13374 0.0488565 5.99155e-26)
(1.11768 0.0376938 -2.89419e-22)
(1.12264 0.0413822 -1.25881e-25)
(1.10898 0.0306826 1.60431e-22)
(1.11317 0.0341748 1.38523e-25)
(1.10172 0.0240414 -1.69663e-22)
(1.1052 0.0273484 7.86055e-26)
(1.09587 0.0176992 -1.43975e-21)
(1.09861 0.0209177 -3.25553e-22)
(1.091 0.0117901 3.67697e-22)
(1.09328 0.014744 1.40207e-21)
(1.08741 0.00603263 -1.82768e-22)
(1.08907 0.00889288 1.77612e-25)
(1.08493 0.00053677 -1.9367e-22)
(1.08604 0.00327659 0)
(1.08354 -0.00475708 1.8894e-25)
(1.0841 -0.00211574 9.06249e-26)
(1.08326 -0.00987797 2.00255e-22)
(1.08326 -0.00732182 -9.09033e-26)
(1.08414 -0.0148527 0)
(1.08355 -0.0123683 0)
(1.08626 -0.0196991 -9.83499e-26)
(1.08503 -0.0172791 -9.50514e-26)
(1.08978 -0.0244859 1.3867e-21)
(1.08782 -0.0220674 1.94777e-25)
(1.09531 -0.0290052 -1.98217e-21)
(1.09213 -0.0269644 0)
(1.09868 -0.0316394 0)
(1.1803 0.0856969 0)
(1.1917 0.0909185 0)
(1.16289 0.075385 0)
(1.17139 0.0805024 -2.68016e-22)
(1.14681 0.0661982 -4.24355e-21)
(1.15464 0.0703312 1.09784e-22)
(1.1333 0.0545477 9.45228e-21)
(1.13981 0.0608853 -1.17112e-21)
(1.12166 0.0463768 0)
(1.12742 0.0505217 0)
(1.11155 0.0382462 1.5569e-25)
(1.11636 0.0422019 5.62079e-28)
(1.10314 0.0307689 -3.28953e-25)
(1.10714 0.0344249 -1.56331e-25)
(1.09622 0.023773 0)
(1.0995 0.0271999 0)
(1.09066 0.0172327 0)
(1.09327 0.0204289 0)
(1.08629 0.0109513 0)
(1.08832 0.0140131 0)
(1.08313 0.00507595 -1.19844e-26)
(1.08456 0.00797355 0)
(1.08108 -0.000564765 -9.38324e-26)
(1.08197 0.00222024 0)
(1.08015 -0.00599927 0)
(1.08048 -0.00331372 1.00375e-25)
(1.08035 -0.0112544 -1.01812e-25)
(1.08011 -0.00865347 0)
(1.08175 -0.0163608 -1.04616e-25)
(1.0809 -0.0138301 1.0384e-25)
(1.08444 -0.0213438 -1.06294e-25)
(1.08293 -0.0188702 1.05039e-25)
(1.08852 -0.0261882 -1.02693e-25)
(1.08633 -0.0238062 1.0589e-25)
(1.09361 -0.0305629 0)
(1.09075 -0.0282644 1.05753e-25)
(1.10129 -0.0352532 0)
(1.09786 -0.0333778 0)
(1.24623 0.108709 1.63441e-23)
(1.26073 0.114808 0)
(1.25195 0.122314 4.40237e-22)
(1.23818 0.114945 8.54722e-22)
(1.27709 0.120798 -1.58672e-21)
(1.2669 0.130346 4.13915e-22)
(1.29449 0.125102 4.38641e-21)
(1.10356 -0.033725 -5.55049e-21)
(1.10763 -0.0363911 -1.74089e-21)
(1.10513 -0.037407 0)
(1.20646 0.106949 2.14976e-23)
(1.19593 0.101473 1.99243e-22)
(1.2175 0.113652 -7.91098e-26)
(1.24293 0.128554 2.72434e-22)
(1.25715 0.136976 -1.47446e-21)
(1.33913 0.14155 6.09182e-21)
(1.31105 0.141443 3.20356e-21)
(1.29949 0.115106 -7.13447e-21)
(1.2677 0.106598 -4.27458e-22)
(1.28301 0.111133 1.03963e-21)
(1.23934 0.0964512 7.78316e-23)
(1.25299 0.101906 -4.16344e-22)
(1.21514 0.08633 -3.17311e-23)
(1.22678 0.0912098 -1.62454e-22)
(1.19428 0.0762882 -7.96337e-23)
(1.20469 0.0806374 9.5003e-24)
(1.17536 0.067476 4.95219e-22)
(1.18455 0.0715844 5.18443e-22)
(1.15858 0.0586812 -2.44405e-22)
(1.16676 0.0627327 4.37789e-23)
(1.14448 0.0506818 0)
(1.15116 0.0550145 -6.72319e-22)
(1.1324 0.0430894 -2.52122e-22)
(1.13818 0.0468574 2.13352e-25)
(1.122 0.0359196 8.29187e-24)
(1.12703 0.0394903 -1.14104e-25)
(1.11309 0.0291297 0)
(1.11738 0.0325169 -1.43035e-25)
(1.10561 0.0226767 0)
(1.10919 0.0258958 2.93501e-25)
(1.09944 0.016535 0)
(1.1024 0.0196067 3.39794e-22)
(1.09447 0.0107007 6.8921e-25)
(1.09681 0.0136075 -6.77412e-25)
(1.09065 0.0050898 6.24584e-24)
(1.09242 0.00788634 0)
(1.08798 -0.000291318 -1.87042e-22)
(1.08918 0.00239489 0)
(1.08641 -0.00547763 -3.76837e-25)
(1.08706 -0.00288724 1.84776e-25)
(1.08596 -0.0104935 0)
(1.08605 -0.00798673 -1.82018e-25)
(1.08669 -0.0153664 1.98041e-22)
(1.08617 -0.0129294 3.81529e-25)
(1.08865 -0.0201111 0)
(1.08751 -0.0177404 5.8536e-25)
(1.09204 -0.0248037 -1.68301e-21)
(1.09015 -0.0224192 1.91239e-25)
(1.09718 -0.0293294 1.60862e-21)
(1.09429 -0.0272259 -2.21292e-22)
(1.10038 -0.0317075 4.64938e-22)
(1.11248 -0.0386393 1.7205e-21)
(1.11134 -0.0402931 0)
(1.11617 -0.0404146 -8.44482e-21)
(1.1148 -0.040586 2.54978e-21)
(1.17596 0.0894168 -8.23516e-23)
(1.1856 0.0956372 4.90198e-23)
(1.15802 0.0777643 0)
(1.16658 0.083203 -1.3343e-22)
(1.14271 0.0677351 2.57454e-21)
(1.15002 0.0727948 4.935e-22)
(1.12962 0.057432 -3.05939e-22)
(1.13585 0.0620322 -1.14279e-21)
(1.11875 0.0492092 0)
(1.12397 0.0532327 0)
(1.10911 0.0410858 0)
(1.11376 0.0450875 -1.22208e-27)
(1.10093 0.033538 1.64574e-25)
(1.10484 0.0372499 -6.83963e-28)
(1.09411 0.0264737 0)
(1.09737 0.0299553 0)
(1.08854 0.0198227 2.33177e-25)
(1.09118 0.023106 0)
(1.08417 0.0135468 -2.4252e-26)
(1.08622 0.016662 -1.87745e-25)
(1.08086 0.00751986 1.24581e-26)
(1.08238 0.0104968 0)
(1.07863 0.00177462 0)
(1.07961 0.00461975 0)
(1.07747 -0.00375583 3.24233e-27)
(1.07792 -0.00101252 0)
(1.07739 -0.00910902 -8.02121e-28)
(1.07729 -0.00645064 0)
(1.07844 -0.0143157 8.31547e-28)
(1.07777 -0.0117272 0)
(1.08073 -0.0194092 -2.12318e-25)
(1.07942 -0.0168721 0)
(1.08448 -0.0244595 -1.64662e-27)
(1.0824 -0.0219299 2.13167e-25)
(1.09026 -0.0297683 4.26771e-22)
(1.0871 -0.0270762 0)
(1.09832 -0.0351799 2.08618e-21)
(1.0939 -0.0324195 -1.67069e-21)
(1.10844 -0.0403382 -1.63949e-21)
(1.10336 -0.0379517 -4.14819e-22)
(1.22969 0.120695 -2.71603e-22)
(1.19857 0.111509 2.1886e-23)
(1.18884 0.104947 -1.67056e-23)
(1.20917 0.118681 -1.20719e-22)
(1.23325 0.135049 4.84972e-23)
(1.24686 0.144639 -2.85377e-22)
(1.10565 -0.0403447 0)
(1.11446 -0.0428293 2.02436e-21)
(1.1115 -0.0428167 -4.17116e-22)
(1.33091 0.14956 1.90271e-21)
(1.28326 0.13936 -2.28403e-21)
(1.11746 -0.0401513 -2.8322e-21)
(1.273 0.145365 1.28224e-21)
(1.12387 -0.0425388 -6.80556e-21)
(1.34057 0.113574 -6.79094e-21)
(1.36108 0.143086 -3.14529e-22)
(1.38432 0.131383 -1.88086e-20)
(1.38379 0.117475 3.69592e-21)
(1.36224 0.114295 2.4827e-21)
(1.30323 0.107594 -5.95404e-21)
(1.32048 0.110546 3.823e-21)
(1.27272 0.0992294 3.1316e-22)
(1.28759 0.103974 -1.71997e-21)
(1.24465 0.0903998 1.80787e-23)
(1.25819 0.0948186 1.40178e-22)
(1.21978 0.081577 -3.51388e-24)
(1.23184 0.0858377 0)
(1.19855 0.0722899 0)
(1.20887 0.0765445 2.5775e-23)
(1.17931 0.0641627 -4.69721e-22)
(1.18879 0.0679055 0)
(1.16286 0.0560258 -3.34941e-22)
(1.17082 0.0599321 -2.33557e-25)
(1.14859 0.0483421 0)
(1.15553 0.0523621 3.32454e-22)
(1.13617 0.0410404 8.70827e-24)
(1.1421 0.0447088 -1.52798e-24)
(1.12558 0.0340727 7.56558e-24)
(1.13069 0.0375372 -2.70199e-25)
(1.11649 0.0274855 1.42488e-22)
(1.12086 0.0307706 0)
(1.10882 0.0212187 -1.53198e-22)
(1.11249 0.0243452 -2.93511e-25)
(1.10248 0.0152231 1.61742e-22)
(1.10551 0.0182022 0)
(1.09739 0.00953214 1.69941e-22)
(1.09978 0.0123785 0)
(1.09345 0.0040585 1.81742e-22)
(1.09528 0.00678738 0)
(1.09065 -0.00119805 1.87038e-22)
(1.09191 0.00142793 0)
(1.08899 -0.0062711 -7.3323e-25)
(1.08968 -0.00373708 7.26447e-25)
(1.08845 -0.0111779 -3.74309e-25)
(1.08858 -0.00872451 7.46068e-25)
(1.0891 -0.0159456 -3.91771e-22)
(1.08862 -0.0135597 7.41399e-25)
(1.09101 -0.0205927 0)
(1.08989 -0.0182682 -1.14329e-24)
(1.0943 -0.0251567 0)
(1.09247 -0.0228482 -1.15658e-24)
(1.09934 -0.0296578 6.20868e-22)
(1.09654 -0.0275228 4.03412e-22)
(1.10594 -0.0339825 -1.88581e-21)
(1.10256 -0.0318686 -4.11974e-22)
(1.11504 -0.0387444 0)
(1.11022 -0.036525 1.75969e-21)
(1.12002 -0.0403812 8.81035e-22)
(1.1202 -0.0428337 4.60899e-22)
(1.1226 -0.0428741 7.30208e-21)
(1.11703 -0.0424319 0)
(1.17003 0.0920745 3.39949e-22)
(1.17953 0.0984259 0)
(1.1529 0.0804729 0)
(1.16113 0.086005 -1.7828e-22)
(1.138 0.0693607 3.17812e-23)
(1.14516 0.0749643 -5.21644e-22)
(1.12504 0.059233 2.80785e-22)
(1.13139 0.064151 5.35837e-22)
(1.11387 0.0501586 0)
(1.11921 0.0546633 0)
(1.10448 0.0416945 3.39755e-25)
(1.10898 0.0458399 3.80304e-27)
(1.0966 0.0338868 0)
(1.10036 0.0377134 1.30917e-27)
(1.09007 0.0266248 -7.42872e-25)
(1.09317 0.0301926 0)
(1.0848 0.0198206 -4.69459e-26)
(1.08728 0.0231688 7.45911e-25)
(1.08067 0.0133849 2.42523e-26)
(1.08259 0.016555 7.49248e-28)
(1.07764 0.0072849 3.94319e-25)
(1.07902 0.0102977 0)
(1.07568 0.00145116 4.1513e-25)
(1.07653 0.00433723 -4.08433e-25)
(1.07477 -0.00416492 8.64477e-29)
(1.07509 -0.00138205 -4.1682e-25)
(1.07495 -0.00960291 4.2847e-25)
(1.07472 -0.00690444 0)
(1.07627 -0.014898 4.31937e-25)
(1.07546 -0.0122668 -4.29367e-25)
(1.07884 -0.0200787 4.34894e-25)
(1.07739 -0.0175019 -4.33674e-25)
(1.08277 -0.0251277 -1.72392e-27)
(1.08063 -0.0226252 -4.36684e-25)
(1.08828 -0.0301238 -4.3496e-22)
(1.08528 -0.0275898 0)
(1.09567 -0.0351529 0)
(1.09175 -0.0326703 0)
(1.10024 -0.0377315 0)
(1.22067 0.126434 -4.74643e-23)
(1.26253 0.154024 1.89691e-22)
(1.19058 0.115799 -3.6173e-23)
(1.18136 0.108799 1.542e-22)
(1.1207 -0.0451493 -2.03529e-21)
(1.11799 -0.0453635 0)
(1.20059 0.123161 0)
(1.35385 0.157749 -8.13085e-21)
(1.12637 -0.0424865 2.37322e-20)
(1.13306 -0.0435399 -2.47493e-20)
(1.38084 0.143545 0)
(1.30136 0.148205 1.52322e-21)
(1.32052 0.160318 -1.47871e-20)
(1.38069 0.103264 7.60647e-22)
(1.40919 0.106889 -2.51957e-22)
(1.40606 0.119033 9.58245e-21)
(1.29072 0.155285 2.68448e-21)
(1.27998 0.163753 6.28047e-22)
(1.34404 0.101575 2.28177e-21)
(1.36146 0.101199 -3.484e-21)
(1.30905 0.0988492 -2.01575e-22)
(1.32584 0.100264 4.62965e-22)
(1.27674 0.0923969 -1.32629e-22)
(1.29224 0.0962527 6.03867e-22)
(1.24886 0.0843105 0)
(1.26247 0.0882955 -1.47991e-24)
(1.22395 0.0765841 -1.07511e-24)
(1.23601 0.0804189 1.73258e-24)
(1.20238 0.068379 0)
(1.21273 0.0723306 0)
(1.18344 0.0606992 0)
(1.19266 0.0643659 0)
(1.16684 0.053111 2.0466e-24)
(1.17485 0.056824 -1.72035e-24)
(1.15236 0.0458282 8.77099e-23)
(1.1594 0.0495939 2.32243e-24)
(1.13962 0.0388481 1.14812e-22)
(1.14572 0.0423538 -3.99565e-25)
(1.12881 0.0321417 1.29809e-22)
(1.13402 0.0354824 4.18557e-25)
(1.11956 0.0257641 -2.81579e-22)
(1.12401 0.0289452 3.06676e-24)
(1.11175 0.0196836 2.98586e-24)
(1.11548 0.0227161 2.25538e-24)
(1.10527 0.0138577 -1.59787e-22)
(1.10835 0.0167589 -2.40961e-24)
(1.10006 0.00830642 -1.69931e-22)
(1.10251 0.0110802 0)
(1.09603 0.00297052 -1.7161e-22)
(1.09791 0.00563151 0)
(1.09315 -0.00215933 1.39145e-24)
(1.09445 0.000403459 -1.37576e-24)
(1.09141 -0.00711257 1.42946e-24)
(1.09214 -0.00463818 -1.41632e-24)
(1.09082 -0.0119056 0)
(1.09097 -0.00950867 0)
(1.09142 -0.0165633 1.92604e-22)
(1.09097 -0.0142318 1.44863e-24)
(1.09329 -0.0211085 0)
(1.09219 -0.0188327 2.23421e-24)
(1.09657 -0.0255557 0)
(1.09474 -0.0233145 7.65204e-25)
(1.10158 -0.0299627 -1.98579e-22)
(1.0988 -0.0278338 -3.9959e-22)
(1.10829 -0.0342322 -1.00328e-21)
(1.1048 -0.0321264 3.96224e-22)
(1.11724 -0.0387133 8.36327e-22)
(1.11258 -0.0365959 2.07411e-21)
(1.12188 -0.040496 -8.88367e-22)
(1.12993 -0.0444597 0)
(1.13175 -0.0440824 3.25726e-21)
(1.12592 -0.044903 -1.76481e-21)
(1.12833 -0.0448487 0)
(1.12337 -0.0449114 -1.27216e-21)
(1.16372 0.095477 -3.77805e-22)
(1.17249 0.102128 3.81392e-22)
(1.14703 0.0827704 -7.92655e-24)
(1.15509 0.0889466 9.00779e-25)
(1.13281 0.0714211 -2.25869e-24)
(1.13965 0.0769496 1.33202e-25)
(1.12033 0.0610934 0)
(1.12635 0.0660918 0)
(1.10979 0.0518496 3.36544e-25)
(1.11482 0.0563531 0)
(1.10081 0.0433031 -6.97003e-25)
(1.10513 0.0474998 -2.58091e-27)
(1.09322 0.0353762 0)
(1.09685 0.0392652 0)
(1.08691 0.0280037 0)
(1.08991 0.031627 0)
(1.08178 0.0210974 7.46996e-25)
(1.0842 0.0244979 0)
(1.07778 0.0145849 0)
(1.07965 0.0177985 -8.00546e-25)
(1.07482 0.00838969 0)
(1.07617 0.0114503 0)
(1.07289 0.00246899 0)
(1.07373 0.00539855 0)
(1.07199 -0.00322897 -3.3289e-27)
(1.07231 -0.00040445 0)
(1.07214 -0.00874926 -8.43385e-28)
(1.07193 -0.00600866 0)
(1.0734 -0.0141306 -1.72502e-27)
(1.07263 -0.0114549 0)
(1.07589 -0.0194108 8.91025e-25)
(1.07448 -0.0167807 0)
(1.07978 -0.0246412 8.96514e-25)
(1.07764 -0.0220269 -8.93747e-25)
(1.08537 -0.0298848 -7.05988e-27)
(1.08236 -0.0272667 -8.96618e-25)
(1.09299 -0.0351983 0)
(1.08887 -0.0325297 0)
(1.10293 -0.0405221 8.80737e-22)
(1.09768 -0.0378879 0)
(1.48101 0.140861 2.46523e-21)
(1.46716 0.118611 0)
(1.30879 0.165961 -2.34426e-22)
(1.41328 0.134987 7.02739e-21)
(1.11533 -0.0456926 -8.66773e-22)
(1.10887 -0.0431405 -8.66543e-22)
(1.22341 0.140884 4.19803e-23)
(1.21163 0.131349 0)
(1.25102 0.162134 4.28045e-22)
(1.23609 0.15176 1.6526e-22)
(1.2997 0.174138 1.81516e-21)
(1.47687 0.0990767 2.81861e-20)
(1.49393 0.143759 2.36334e-20)
(1.40141 0.14615 -1.43825e-20)
(1.45787 0.0770071 -1.55509e-20)
(1.45808 0.0956823 0)
(1.17352 0.111779 -3.5944e-22)
(1.18247 0.119377 3.84151e-22)
(1.34247 0.174077 1.4555e-20)
(1.46494 0.0947081 -3.04356e-20)
(1.42542 0.0699757 0)
(1.26774 0.174058 2.84754e-22)
(1.11257 -0.0460342 1.74174e-21)
(1.12213 -0.0481931 -1.68873e-21)
(1.11944 -0.0486622 1.70933e-21)
(1.483 0.117307 7.16042e-21)
(1.38019 0.160223 4.75194e-21)
(1.49224 0.183043 0)
(1.37943 0.0916316 7.6296e-22)
(1.40988 0.0930661 0)
(1.34522 0.091531 -1.0293e-21)
(1.36059 0.0909983 1.42007e-21)
(1.31278 0.0898969 1.96661e-22)
(1.32868 0.0905298 0)
(1.2805 0.0852102 2.58526e-22)
(1.29621 0.0881201 -4.90514e-24)
(1.25249 0.0785824 -1.50006e-22)
(1.26599 0.0820006 -3.75113e-24)
(1.22779 0.0717107 2.52393e-24)
(1.23975 0.0751628 -3.10058e-24)
(1.20614 0.0644368 1.12063e-23)
(1.21657 0.0680211 3.61226e-25)
(1.18719 0.0572753 -3.6657e-23)
(1.19638 0.0607853 6.48061e-25)
(1.17049 0.0501512 0)
(1.17856 0.0536767 0)
(1.15587 0.0432354 -9.04404e-23)
(1.16297 0.0467726 0)
(1.14298 0.0365635 0)
(1.14917 0.0399121 0)
(1.13199 0.0301301 3.67235e-24)
(1.13728 0.0333402 -6.1212e-24)
(1.12259 0.023971 1.41042e-22)
(1.1271 0.0270455 -6.88253e-24)
(1.11464 0.0180778 2.90664e-22)
(1.11844 0.0210173 0)
(1.10803 0.0124271 0)
(1.11117 0.0152439 0)
(1.10271 0.00702195 -5.01628e-24)
(1.10521 0.00972061 7.33364e-24)
(1.09858 0.00182724 4.69069e-24)
(1.1005 0.0044189 2.51933e-24)
(1.09561 -0.00317345 -2.70986e-24)
(1.09695 -0.000675311 5.79163e-26)
(1.0938 -0.00800226 -2.78747e-24)
(1.09456 -0.00558975 5.35429e-26)
(1.09314 -0.0126771 0)
(1.09332 -0.010339 -2.78138e-24)
(1.09368 -0.0172203 -1.84571e-22)
(1.09326 -0.014946 -1.45446e-24)
(1.09552 -0.0216564 0)
(1.09443 -0.0194338 1.4117e-24)
(1.09877 -0.0259923 0)
(1.09696 -0.0238128 2.92733e-24)
(1.10374 -0.0302892 0)
(1.10099 -0.0281768 1.50869e-24)
(1.11049 -0.0344778 3.95262e-22)
(1.10693 -0.0323975 0)
(1.11945 -0.0388136 -1.68362e-21)
(1.11472 -0.0366844 -1.95241e-22)
(1.13037 -0.0431726 7.67931e-21)
(1.12468 -0.040967 0)
(1.13547 -0.0459972 -1.67524e-21)
(1.13746 -0.0444175 5.30283e-21)
(1.13749 -0.0458149 -3.18692e-21)
(1.13179 -0.0467482 -1.6983e-21)
(1.13398 -0.0465025 3.37657e-21)
(1.12725 -0.0473954 3.30023e-21)
(1.12964 -0.0470659 4.08671e-21)
(1.12478 -0.047782 8.44841e-22)
(1.15675 0.0979864 1.24624e-22)
(1.16502 0.104735 -2.33965e-22)
(1.141 0.0849861 1.67597e-23)
(1.14864 0.0913331 0)
(1.12726 0.0731755 1.04943e-24)
(1.1339 0.0789495 -1.33138e-25)
(1.11532 0.0625426 -3.34058e-25)
(1.12108 0.0677189 1.2119e-24)
(1.10509 0.05293 2.83169e-24)
(1.11 0.0576286 0)
(1.09643 0.0441366 -1.8047e-26)
(1.10058 0.048439 -2.81168e-24)
(1.08915 0.0360422 -3.09376e-24)
(1.09262 0.0400088 0)
(1.08312 0.0285383 0)
(1.08598 0.032223 3.10604e-24)
(1.07824 0.021526 1.69999e-24)
(1.08054 0.0249763 0)
(1.07445 0.0149201 1.71686e-24)
(1.07621 0.0181764 -1.65614e-24)
(1.07168 0.00865445 0)
(1.07294 0.011749 -1.69682e-24)
(1.06993 0.00266511 1.76094e-24)
(1.07068 0.00562876 0)
(1.06918 -0.00310214 -3.50827e-27)
(1.06942 -0.000243066 -1.7609e-24)
(1.06946 -0.00869438 1.79878e-24)
(1.06919 -0.0059175 0)
(1.07085 -0.0141534 1.81368e-24)
(1.07001 -0.0114382 -1.80495e-24)
(1.07345 -0.0195134 1.82293e-24)
(1.07199 -0.0168441 -1.81992e-24)
(1.0774 -0.0247988 1.82435e-24)
(1.07524 -0.0221638 -1.83009e-24)
(1.08294 -0.0300574 1.83472e-24)
(1.07995 -0.0274257 -1.83509e-24)
(1.09033 -0.0352951 -1.83632e-24)
(1.08638 -0.0326787 -1.83466e-24)
(1.10017 -0.0406923 -8.92627e-22)
(1.09492 -0.0379732 1.80447e-24)
(1.10607 -0.0433803 8.83995e-22)
(1.19214 0.127363 -4.6399e-22)
(1.21295 0.145525 -2.21446e-22)
(1.20231 0.135842 6.18449e-22)
(1.23827 0.169318 -2.79123e-22)
(1.22477 0.157416 1.81927e-22)
(1.3307 0.185835 5.94236e-22)
(1.43842 0.0597349 -4.34756e-21)
(1.44997 0.0776506 -3.9291e-21)
(1.33767 0.0532588 6.28384e-21)
(1.38491 0.0865938 -1.54778e-20)
(1.13253 -0.0430037 4.92794e-21)
(1.13889 -0.0443955 -2.60951e-21)
(1.2869 0.188432 2.16228e-22)
(1.25318 0.182317 -8.25684e-22)
(1.12893 -0.0505388 -2.52704e-21)
(1.12647 -0.051105 1.69678e-21)
(1.4814 0.156285 -4.09807e-20)
(1.40018 0.162408 -4.36162e-20)
(1.38677 0.0460672 1.68661e-20)
(1.37455 0.181916 -3.08325e-20)
(1.32534 0.201914 0)
(1.17435 0.12304 -2.3293e-23)
(1.16569 0.115012 0)
(1.38083 0.0806688 -2.32212e-21)
(1.41165 0.0796343 -9.65626e-23)
(1.34509 0.0823743 0)
(1.36104 0.0814091 0)
(1.31436 0.0815545 0)
(1.32943 0.0820459 -1.39068e-23)
(1.28336 0.0782425 2.68613e-22)
(1.29862 0.0803219 4.87109e-24)
(1.25566 0.07303 3.15997e-22)
(1.26903 0.075812 0)
(1.23126 0.0670206 -7.15828e-23)
(1.24308 0.0701001 0)
(1.2097 0.0605025 -1.07068e-23)
(1.22013 0.0637666 2.98323e-25)
(1.19068 0.053869 7.19741e-23)
(1.1999 0.0571777 -4.8709e-24)
(1.17392 0.0471695 -5.78544e-23)
(1.18202 0.0505129 0)
(1.15922 0.0406086 0)
(1.16635 0.0439425 0)
(1.14625 0.0342253 -8.60389e-23)
(1.15249 0.0374305 -1.15873e-23)
(1.13513 0.0280477 -1.13567e-22)
(1.14048 0.0311331 1.68125e-24)
(1.12559 0.0221066 1.2672e-22)
(1.13017 0.0250743 1.90443e-24)
(1.1175 0.0164022 -1.42746e-22)
(1.12137 0.0192485 0)
(1.11078 0.0109252 0)
(1.11398 0.0136571 4.37161e-24)
(1.10534 0.0056721 -1.55467e-22)
(1.1079 0.0082941 -2.39953e-24)
(1.10111 0.000621721 1.6687e-22)
(1.10308 0.00314213 -7.41774e-24)
(1.09805 -0.00424598 0)
(1.09943 -0.00181446 7.72764e-24)
(1.09615 -0.00894652 -5.43511e-24)
(1.09695 -0.00659795 8.0959e-24)
(1.09542 -0.0134991 -1.79864e-22)
(1.09563 -0.0112222 5.5452e-24)
(1.0959 -0.0179239 1.8739e-22)
(1.0955 -0.0157089 -2.82129e-24)
(1.09769 -0.0222447 0)
(1.09662 -0.0200793 -2.88984e-24)
(1.1009 -0.0264703 1.45672e-24)
(1.09911 -0.0243487 -4.3789e-24)
(1.10583 -0.0306552 -1.8632e-22)
(1.10311 -0.0285783 0)
(1.11263 -0.0347759 0)
(1.10901 -0.0327116 0)
(1.12163 -0.0389928 -7.81452e-22)
(1.11688 -0.0368971 1.98836e-22)
(1.12677 -0.0410029 1.58993e-21)
(1.14024 -0.0475004 -7.8707e-22)
(1.14239 -0.0463955 -8.40024e-21)
(1.14166 -0.0469962 5.95721e-22)
(1.13717 -0.0483972 -1.00793e-25)
(1.13885 -0.047959 0)
(1.13347 -0.0494484 -4.23179e-22)
(1.13541 -0.0489035 -1.65169e-21)
(1.1313 -0.0499875 -2.47076e-21)
(1.14959 0.100458 -1.25071e-22)
(1.15749 0.107556 2.32771e-22)
(1.13465 0.0868835 -1.00292e-23)
(1.14194 0.0935587 0)
(1.12158 0.0747194 -2.66824e-24)
(1.12788 0.080617 1.19533e-24)
(1.11026 0.0638484 6.30657e-24)
(1.11571 0.0691362 1.73519e-25)
(1.10057 0.0540618 -3.56486e-25)
(1.10522 0.0588311 -5.63658e-24)
(1.09232 0.0451475 -6.23459e-24)
(1.09627 0.0495082 -3.56972e-26)
(1.08536 0.0369461 -2.04175e-25)
(1.08869 0.0409647 6.23971e-24)
(1.07959 0.0293497 1.05182e-25)
(1.08233 0.0330789 0)
(1.07493 0.0222583 5.39231e-26)
(1.07713 0.0257467 6.6852e-27)
(1.0713 0.0155854 8.49162e-28)
(1.07299 0.0188748 3.42016e-27)
(1.06867 0.00925451 0)
(1.06987 0.0123814 0)
(1.06701 0.00320272 1.91707e-28)
(1.06772 0.00619741 -8.86094e-28)
(1.06633 -0.00262667 -9.22432e-29)
(1.06654 0.000263779 0)
(1.06666 -0.00828404 -8.86919e-28)
(1.06636 -0.005474 0)
(1.06806 -0.013815 -3.71381e-24)
(1.06722 -0.0110628 0)
(1.07066 -0.0192607 -3.73235e-24)
(1.0692 -0.0165458 3.72768e-24)