/*--------------------------------*- C++ -*----------------------------------*\
  =========                 |
  \\      /  F ield         | OpenFOAM: The Open Source CFD Toolbox
   \\    /   O peration     | Website:  https://openfoam.org
    \\  /    A nd           | Version:  10
     \\/     M anipulation  |
\*---------------------------------------------------------------------------*/
FoamFile
{
    format      ascii;
    class       volScalarField;
    location    "28.5";
    object      p;
}
// * * * * * * * * * * * * * * * * * * * * * * * * * * * * * * * * * * * * * //

dimensions      [0 2 -2 0 0 0 0];

internalField   nonuniform List<scalar> 
28942
(
-0.519007
-0.513054
-0.317515
0.230973
0.241155
0.00114483
0.00343054
-0.00120014
-0.00117089
0.00577601
-0.51783
-0.508632
-0.535548
-0.537768
0.00575551
0.00946912
0.454988
0.477478
0.0474921
0.141313
0.345948
0.348639
-0.564118
-0.56675
-0.571997
-0.602708
0.754239
0.772866
-0.111508
-0.100258
-0.00547814
-0.00479773
0.027247
0.0112022
0.208408
0.262476
0.487521
0.614328
-0.00268363
0.519027
0.32071
0.34854
-0.0421364
-0.0345636
-0.0256778
0.00367342
0.0038504
0.00380668
0.00502476
0.0095467
0.0176517
0.0249333
0.0265991
0.00741884
0.0158647
-0.46059
-0.3882
-0.541228
-0.533132
-0.537253
-0.543432
-0.544701
-0.544293
-0.22488
-0.330063
-0.183164
-0.10443
0.409757
0.380326
-0.519454
-0.526974
-0.529068
0.398265
0.381827
0.389136
-0.288583
-0.279798
-0.206619
-0.290737
-0.35156
-0.26067
-0.405635
-0.597024
-0.643322
-0.0551622
0.0437572
0.119469
0.0962096
0.0249804
0.042111
0.0842602
0.106989
-0.563916
-0.548249
-0.556256
-0.559634
-0.568992
0.115264
0.167842
-0.67835
0.259327
0.261437
0.238938
0.245714
-0.0461179
-0.0400224
-0.0505679
0.182001
0.190926
0.192475
-0.540625
-0.541969
-0.532704
-0.502901
-0.494033
0.867979
0.801425
0.75315
0.823905
-0.0140777
0.141533
0.073428
-0.0254749
-0.046943
0.901382
0.911172
0.879287
-0.021125
0.025091
0.00403434
0.0058386
0.00310604
0.372326
0.491176
0.247399
0.237643
0.317444
0.11327
0.278695
0.368021
-0.623681
-0.602541
0.0323816
-0.00904433
-0.0104966
-0.335911
-0.351681
-0.320678
-0.591301
0.185246
0.179368
-0.040246
0.00136571
1.611e-05
4.37328e-05
0.00126214
0.263232
0.194089
-0.495795
-0.459887
-0.459689
-0.542463
-0.50881
0.00241689
-0.578591
-0.546783
0.36784
0.380521
0.434499
0.41283
0.337446
0.0721941
0.0698824
0.0321661
0.0242489
0.157111
0.144353
0.163895
0.175841
0.172895
0.180484
0.192885
0.228959
0.209353
0.187106
0.207999
0.250774
0.308023
0.326827
-0.347796
-0.298827
-0.473625
0.00224631
0.003132
-0.422526
-0.422881
0.00673242
0.00637627
0.00565255
0.00538159
-0.301294
-0.290184
-0.285754
-0.543938
-0.550648
-0.573724
-0.551359
-0.552287
-0.550296
-0.583455
-0.649444
-0.605993
0.858662
0.834088
0.872266
-0.0310737
-0.0220862
-0.0267135
0.459405
0.442757
0.452119
-0.113979
-0.123221
-0.106492
-0.13408
-0.146599
-0.16025
-0.16687
-0.174276
-0.181808
-0.152411
-0.139035
-0.12728
-0.117225
-0.109121
-0.188297
-0.197194
-0.100503
-0.102516
-0.0959352
-0.201866
-0.212482
-0.0973844
-0.214151
-0.223892
-0.225961
-0.236721
-0.0929013
-0.0938263
-0.230638
-0.244322
-0.0911378
-0.0915672
-0.233974
-0.248211
-0.0907072
-0.0906135
-0.23376
-0.248242
-0.0916576
-0.0910211
-0.229908
-0.244261
-0.0940678
-0.0928563
-0.22278
-0.236631
-0.0980365
-0.0962273
-0.212814
-0.225823
-0.103681
-0.101242
-0.200784
-0.212704
-0.111351
-0.108111
-0.187323
-0.197888
-0.120848
-0.116831
-0.173375
-0.182185
-0.132786
-0.127642
-0.158918
-0.166638
-0.146659
-0.140347
-0.144786
-0.151694
-0.135581
-0.150526
-0.162722
-0.154801
-0.112715
-0.12304
-0.0982368
-0.10456
-0.0907936
-0.0937215
-0.0892423
-0.0893273
-0.0930511
-0.0904784
-0.102149
-0.0968708
-0.117303
-0.109041
-0.138535
-0.127098
-0.163951
-0.151014
-0.189057
-0.176725
-0.208958
-0.200123
-0.217795
-0.214953
-0.213506
-0.217284
-0.197454
-0.206729
-0.174055
-0.186323
-0.148614
-0.161351
-0.13648
-0.132381
-0.138073
-0.18861
-0.156769
-0.172404
-0.220713
-0.205042
-0.246106
-0.234734
-0.258061
-0.254058
-0.253492
-0.257839
-0.23375
-0.245275
-0.203503
-0.219524
-0.170908
-0.186909
-0.141705
-0.155544
-0.118745
-0.129373
-0.102849
-0.109905
-0.093143
-0.0973059
-0.0889046
-0.0903625
-0.0900282
-0.0887777
-0.0970509
-0.0927503
-0.110844
-0.103024
-0.131564
-0.12033
-0.144514
-0.167848
-0.125396
-0.142311
-0.170687
-0.158481
-0.187089
-0.180295
-0.136242
-0.169909
-0.151848
-0.112222
-0.123078
-0.0969076
-0.103617
-0.0886024
-0.09196
-0.0861487
-0.0866999
-0.0888408
-0.0868737
-0.0966263
-0.0920376
-0.110036
-0.102568
-0.129152
-0.118962
-0.152431
-0.140597
-0.175195
-0.164108
-0.192873
-0.185025
-0.200574
-0.19816
-0.196425
-0.199969
-0.181752
-0.190192
-0.160714
-0.171706
-0.138014
-0.149351
-0.12167
-0.115918
-0.117595
-0.127331
-0.159671
-0.144731
-0.129724
-0.126288
-0.192768
-0.175914
-0.226126
-0.209804
-0.252323
-0.240609
-0.264375
-0.260425
-0.259094
-0.263888
-0.238184
-0.250319
-0.206951
-0.22342
-0.172847
-0.189772
-0.142239
-0.156814
-0.118502
-0.129503
-0.101691
-0.109194
-0.0911046
-0.0956937
-0.0858641
-0.0878326
-0.0858198
-0.0851837
-0.0912914
-0.0878329
-0.102933
-0.0962934
-0.121049
-0.111187
-0.144505
-0.132289
-0.190059
-0.172788
-0.157177
-0.186938
-0.109177
-0.131444
-0.207128
-0.211183
-0.18685
-0.169574
-0.198722
-0.108866
-0.101546
-0.11908
-0.120147
-0.211853
-0.231998
-0.256092
-0.23458
-0.16938
-0.189944
-0.134861
-0.150879
-0.110136
-0.121288
-0.094164
-0.101171
-0.0851862
-0.088894
-0.0819376
-0.0829067
-0.0836634
-0.0822059
-0.0901826
-0.0863045
-0.101904
-0.0953472
-0.118873
-0.109788
-0.139663
-0.129034
-0.160051
-0.150174
-0.175585
-0.168716
-0.182178
-0.180164
-0.178225
-0.181501
-0.165081
-0.172607
-0.146465
-0.15618
-0.126539
-0.136427
-0.117226
-0.11277
-0.102069
-0.107914
-0.116561
-0.16027
-0.131365
-0.144978
-0.194314
-0.176896
-0.228423
-0.211737
-0.255072
-0.243204
-0.267002
-0.263179
-0.261121
-0.266268
-0.23932
-0.251915
-0.207341
-0.224139
-0.172523
-0.189852
-0.141118
-0.156093
-0.116597
-0.127933
-0.0991277
-0.10703
-0.0877715
-0.0927639
-0.0815774
-0.0840524
-0.0803284
-0.0803298
-0.0842355
-0.0816133
-0.0937577
-0.0882678
-0.109119
-0.100723
-0.129241
-0.118776
-0.150987
-0.140261
-0.180767
-0.160412
-0.226505
-0.203101
-0.0953626
-0.11967
-0.251729
-0.199531
-0.277963
-0.167864
-0.189332
-0.280219
-0.294496
-0.216584
-0.253653
-0.269082
-0.210441
-0.233621
-0.166413
-0.187514
-0.131455
-0.147635
-0.106454
-0.117793
-0.0901049
-0.0973134
-0.0806322
-0.0846067
-0.0767174
-0.0780433
-0.0775555
-0.0765746
-0.0828698
-0.0796485
-0.0929263
-0.087279
-0.1078
-0.0998074
-0.126048
-0.116686
-0.144046
-0.135348
-0.157562
-0.151613
-0.163132
-0.16148
-0.159453
-0.162421
-0.147851
-0.154468
-0.131595
-0.140066
-0.114344
-0.122902
-0.0992606
-0.106411
-0.0878042
-0.0929916
-0.0963726
-0.0835539
-0.090345
-0.105599
-0.101474
-0.110303
-0.108548
-0.109893
-0.110819
-0.129389
-0.107553
-0.11752
-0.158549
-0.143111
-0.193036
-0.175344
-0.227542
-0.210747
-0.254164
-0.24235
-0.265743
-0.262127
-0.259363
-0.264767
-0.237075
-0.249903
-0.204734
-0.221693
-0.169698
-0.187123
-0.138069
-0.153171
-0.113151
-0.124694
-0.0952171
-0.103375
-0.083203
-0.0885475
-0.0761462
-0.0790877
-0.0737394
-0.0743603
-0.0761201
-0.0743134
-0.0836117
-0.079211
-0.096286
-0.0893257
-0.113241
-0.104349
-0.131684
-0.122605
-0.146061
-0.139791
-0.172511
-0.149961
-0.244402
-0.217557
-0.270324
-0.210142
-0.0794351
-0.076086
-0.101955
-0.099262
-0.290739
-0.194832
-0.300273
-0.281542
-0.1734
-0.150701
-0.293521
-0.232834
-0.249639
-0.267077
-0.20564
-0.228847
-0.160952
-0.182349
-0.126197
-0.142271
-0.101297
-0.112597
-0.0848422
-0.0921271
-0.0750767
-0.0792237
-0.0706393
-0.0722573
-0.0706858
-0.0701377
-0.0748653
-0.0722608
-0.0833249
-0.0785417
-0.0961221
-0.089219
-0.111961
-0.103822
-0.127629
-0.120065
-0.139264
-0.134167
-0.143908
-0.142576
-0.140545
-0.143195
-0.13044
-0.13618
-0.116431
-0.123718
-0.101765
-0.108982
-0.0890241
-0.0950792
-0.0837725
-0.0920576
-0.0804295
-0.0866911
-0.0999973
-0.0965623
-0.103416
-0.102294
-0.103327
-0.125634
-0.10373
-0.113772
-0.154668
-0.139275
-0.189091
-0.171457
-0.223436
-0.206752
-0.249603
-0.238044
-0.260622
-0.257281
-0.253832
-0.25941
-0.231426
-0.244273
-0.199235
-0.216098
-0.164461
-0.181744
-0.133069
-0.148074
-0.108153
-0.119732
-0.0899781
-0.0982827
-0.0774664
-0.0830902
-0.0696557
-0.0730109
-0.0661772
-0.067378
-0.0671025
-0.066076
-0.0726707
-0.0692956
-0.0828734
-0.0772219
-0.0967868
-0.0894777
-0.112047
-0.10447
-0.124349
-0.118892
-0.12762
-0.127456
-0.147846
-0.125066
-0.259726
-0.229247
-0.0735455
-0.0953565
-0.283401
-0.294858
-0.296469
-0.217457
-0.196731
-0.301186
-0.300335
-0.293117
-0.171187
-0.142383
-0.119756
-0.246021
-0.276491
-0.29439
-0.288979
-0.241299
-0.260081
-0.196947
-0.220111
-0.153205
-0.174111
-0.11914
-0.134884
-0.0947628
-0.10583
-0.0785226
-0.08574
-0.068673
-0.0728986
-0.0638576
-0.0657014
-0.0632205
-0.0630544
-0.0663559
-0.0643242
-0.0733143
-0.0693438
-0.0841373
-0.0782728
-0.0977025
-0.0907189
-0.111175
-0.104673
-0.121096
-0.11677
-0.124923
-0.123864
-0.121901
-0.124232
-0.113215
-0.118129
-0.10134
-0.107497
-0.0890386
-0.0950836
-0.0784427
-0.0834179
-0.0706731
-0.0741781
-0.0661183
-0.0679978
-0.0784457
-0.0650343
-0.0719788
-0.0890815
-0.0841756
-0.0958643
-0.0930161
-0.0981598
-0.0975874
-0.0957686
-0.0975804
-0.0886951
-0.092791
-0.0985471
-0.083565
-0.0902858
-0.120141
-0.108513
-0.148739
-0.133584
-0.182621
-0.165275
-0.21624
-0.199944
-0.241545
-0.230423
-0.251828
-0.248817
-0.244737
-0.2504
-0.222559
-0.235228
-0.191007
-0.207516
-0.157008
-0.173903
-0.126273
-0.140979
-0.101706
-0.113157
-0.0835246
-0.0918737
-0.0706839
-0.0765099
-0.0622384
-0.0659502
-0.0577931
-0.0595221
-0.0573659
-0.0570677
-0.0611336
-0.0587178
-0.0690585
-0.0646045
-0.0802716
-0.0743589
-0.0925362
-0.0864736
-0.102394
-0.0979852
-0.105395
-0.10504
-0.098685
-0.103227
-0.112522
-0.0919899
-0.271222
-0.293955
-0.288204
-0.0582118
-0.057551
-0.0834975
-0.0783099
-0.237608
-0.22058
-0.293605
-0.194953
-0.165298
-0.134102
-0.103656
-0.084338
-0.255655
-0.283786
-0.283895
-0.273122
-0.282544
-0.265761
-0.278303
-0.229277
-0.248775
-0.185433
-0.207973
-0.143316
-0.163442
-0.110504
-0.125655
-0.0870643
-0.0977129
-0.0713264
-0.0783464
-0.0615864
-0.0658021
-0.0565354
-0.0585385
-0.0553304
-0.0554904
-0.0575308
-0.0560168
-0.0631097
-0.0598886
-0.0720959
-0.0672004
-0.0835515
-0.0776374
-0.0950046
-0.0894748
-0.103389
-0.0997486
-0.106519
-0.105685
-0.10385
-0.105872
-0.0964825
-0.100633
-0.0865592
-0.0916886
-0.0763928
-0.0813776
-0.067749
-0.0717989
-0.0615564
-0.0643453
-0.0595339
-0.077497
-0.0646964
-0.0714755
-0.0872099
-0.0827702
-0.0930146
-0.0906347
-0.0944004
-0.0942827
-0.0911769
-0.0933723
-0.0878704
-0.0922056
-0.0775549
-0.0841254
-0.113129
-0.101842
-0.140943
-0.126213
-0.173809
-0.157003
-0.206217
-0.190543
-0.2303
-0.219771
-0.239708
-0.237066
-0.232423
-0.238086
-0.210803
-0.223109
-0.180329
-0.196254
-0.147575
-0.16385
-0.117897
-0.132116
-0.0939863
-0.105165
-0.0760226
-0.084315
-0.0630168
-0.0689691
-0.0540647
-0.0580714
-0.0487718
-0.0509688
-0.0471229
-0.0474853
-0.0492463
-0.0477081
-0.055088
-0.0517277
-0.0638764
-0.0592076
-0.0735927
-0.0687994
-0.0811415
-0.0778431
-0.0830113
-0.0829754
-0.0774651
-0.0812248
-0.0656415
-0.0720802
-0.287866
-0.287025
-0.0761031
-0.0590105
-0.276714
-0.0576073
-0.0722901
-0.258214
-0.241469
-0.269189
-0.286141
-0.218431
-0.289094
-0.189128
-0.156964
-0.124377
-0.094271
-0.068217
-0.0524002
-0.260408
-0.257433
-0.238958
-0.224535
-0.242971
-0.268125
-0.266425
-0.25073
-0.262597
-0.214077
-0.233876
-0.171358
-0.19298
-0.131537
-0.150535
-0.100569
-0.114866
-0.0784311
-0.0884985
-0.0634441
-0.0701535
-0.0539887
-0.0581141
-0.0488365
-0.050935
-0.0471804
-0.0476091
-0.048565
-0.0475077
-0.0529024
-0.0503588
-0.0602132
-0.0562033
-0.0697425
-0.0648033
-0.0793708
-0.0747161
-0.086404
-0.0833597
-0.0889561
-0.0882994
-0.086638
-0.0883684
-0.0804661
-0.083928
-0.0722848
-0.0764994
-0.0640213
-0.0680574
-0.0571243
-0.0603385
-0.0523587
-0.0544431
-0.0500124
-0.0508662
-0.0502647
-0.0498257
-0.0653279
-0.0513702
-0.0585173
-0.0774611
-0.0717251
-0.0863364
-0.0823579
-0.0913193
-0.0893412
-0.0919355
-0.092199
-0.0880023
-0.09052
-0.0797889
-0.0844018
-0.0682481
-0.0743377
-0.070675
-0.0614903
-0.0655547
-0.0848138
-0.0770589
-0.104869
-0.0940213
-0.131533
-0.117422
-0.16294
-0.146895
-0.193725
-0.17887
-0.216298
-0.206487
-0.224733
-0.222485
-0.217361
-0.222944
-0.196582
-0.208365
-0.167569
-0.182713
-0.136456
-0.151917
-0.108181
-0.121748
-0.0851955
-0.0959773
-0.0676514
-0.0757932
-0.0546366
-0.0606415
-0.0453121
-0.0495481
-0.0393042
-0.0419016
-0.0365855
-0.0375288
-0.037253
-0.0364928
-0.0412419
-0.0388552
-0.0478734
-0.0443091
-0.0553957
-0.0516791
-0.0610844
-0.0586585
-0.0620289
-0.0622876
-0.0571127
-0.0602779
-0.0477221
-0.0528199
-0.0374708
-0.0424804
-0.270468
-0.271462
-0.0465964
-0.0330404
-0.275293
-0.239919
-0.203131
-0.217033
-0.249775
-0.278591
-0.212037
-0.0426648
-0.0438665
-0.0653561
-0.0585511
-0.278702
-0.179777
-0.146166
-0.113736
-0.0850105
-0.0610801
-0.180164
-0.164072
-0.141495
-0.0421146
-0.0296282
-0.157129
-0.259193
-0.207591
-0.186048
-0.239281
-0.225995
-0.248954
-0.247347
-0.231784
-0.243396
-0.196188
-0.215458
-0.155292
-0.175709
-0.118344
-0.135929
-0.0896662
-0.102912
-0.0691114
-0.0784718
-0.0550724
-0.0613803
-0.0460492
-0.0500151
-0.040917
-0.0430525
-0.0389234
-0.0395639
-0.0396157
-0.0389509
-0.0428597
-0.040916
-0.0486698
-0.0454554
-0.0564654
-0.0524032
-0.0644679
-0.0605894
-0.0703295
-0.0677962
-0.0724117
-0.0718919
-0.0704333
-0.0718934
-0.0653252
-0.0681781
-0.0586706
-0.0620846
-0.052073
-0.0552782
-0.0467104
-0.0491866
-0.0432047
-0.0447066
-0.0417797
-0.0422392
-0.0419611
-0.0668375
-0.0530714
-0.0602136
-0.0782966
-0.0728848
-0.0864643
-0.082838
-0.0907214
-0.0891115
-0.0906329
-0.0912382
-0.0860628
-0.0888953
-0.077338
-0.0821764
-0.0716853
-0.0631718
-0.0543286
-0.0582288
-0.0765784
-0.0692687
-0.0956069
-0.0853318
-0.12078
-0.107467
-0.150362
-0.135262
-0.179202
-0.165317
-0.200059
-0.191049
-0.207465
-0.205617
-0.200109
-0.205545
-0.180393
-0.191529
-0.153149
-0.167353
-0.123987
-0.138481
-0.0973881
-0.110174
-0.075548
-0.0858295
-0.0585965
-0.0665059
-0.0457169
-0.0517047
-0.0361548
-0.0405528
-0.0295734
-0.0324986
-0.0259502
-0.0273876
-0.0253692
-0.0252771
-0.0277644
-0.0262156
-0.0325348
-0.029924
-0.0381724
-0.035378
-0.0423333
-0.0406019
-0.0426052
-0.0430631
-0.0381361
-0.0409194
-0.0306106
-0.034575
-0.0230531
-0.0266339
-0.0178222
-0.0202198
-0.193181
-0.0269647
-0.0385042
-0.0254559
-0.0153157
-0.0161839
-0.250717
-0.251662
-0.267947
-0.233295
-0.0457135
-0.0514087
-0.226105
-0.266073
-0.201724
-0.261554
-0.167678
-0.133963
-0.103092
-0.0766113
-0.0552341
-0.119602
-0.102378
-0.082875
-0.00587
-0.0063326
-0.0153023
-0.099771
-0.134905
-0.16898
-0.0362976
-0.0247649
-0.252219
-0.145569
-0.123501
-0.188649
-0.167973
-0.219018
-0.206321
-0.227148
-0.226189
-0.210058
-0.221503
-0.175955
-0.194289
-0.137833
-0.156716
-0.104162
-0.120143
-0.0781026
-0.0901472
-0.0593422
-0.0679011
-0.046401
-0.0522376
-0.0379292
-0.0416788
-0.0329226
-0.035043
-0.0306976
-0.0314959
-0.0308193
-0.0304833
-0.0331211
-0.0316976
-0.0376106
-0.0350989
-0.0438662
-0.0405831
-0.0504352
-0.0472379
-0.0552914
-0.0531918
-0.0569986
-0.0565802
-0.0553427
-0.0565563
-0.0511656
-0.0534888
-0.045828
-0.0485525
-0.040664
-0.0431539
-0.0366304
-0.0384653
-0.0342309
-0.0352111
-0.033633
-0.0337001
-0.0349484
-0.0340488
-0.0382437
-0.0363021
-0.0555158
-0.0407584
-0.0481811
-0.0690744
-0.0625533
-0.080021
-0.0749291
-0.0876123
-0.0842757
-0.0912075
-0.0899422
-0.0904187
-0.091369
-0.0852273
-0.0883599
-0.0759706
-0.0810663
-0.0635749
-0.0700926
-0.0492748
-0.0566172
-0.0468434
-0.0418924
-0.0440291
-0.0552541
-0.0505524
-0.0677882
-0.060929
-0.0855596
-0.0759707
-0.108988
-0.0966028
-0.136466
-0.122448
-0.163129
-0.150317
-0.182148
-0.173987
-0.188517
-0.18706
-0.181265
-0.186499
-0.162783
-0.173178
-0.137518
-0.150673
-0.110527
-0.123946
-0.0857994
-0.0977098
-0.0652687
-0.0749712
-0.0490502
-0.0566594
-0.0364335
-0.0423412
-0.0267629
-0.0312572
-0.0197519
-0.0229303
-0.0153961
-0.0172373
-0.0137803
-0.0142434
-0.0148466
-0.0139969
-0.0180619
-0.0162482
-0.0221204
-0.0200995
-0.0250225
-0.0238543
-0.0248027
-0.0253839
-0.0209023
-0.0232601
-0.014949
-0.0180142
-0.00965403
-0.0120577
-0.00662325
-0.00789364
-0.0060291
-0.23129
-0.229589
-0.0158797
-0.00730444
-0.255731
-0.22221
-0.201045
-0.249519
-0.188341
-0.0307758
-0.0332472
-0.0481404
-0.0405237
-0.239885
-0.153913
-0.121534
-0.0931327
-0.0696467
-0.0510718
-0.0652874
-0.0478463
-0.033382
-0.0500677
-0.0815933
-0.113941
-0.145402
-0.0352166
-0.025252
-0.0089587
-0.01741
-0.240334
-0.0838767
-0.0642696
-0.12684
-0.105086
-0.168227
-0.148396
-0.196915
-0.184894
-0.203288
-0.203183
-0.186155
-0.197324
-0.154215
-0.171227
-0.119532
-0.136611
-0.0894346
-0.103681
-0.0661971
-0.0769492
-0.049359
-0.0570594
-0.0376114
-0.0429307
-0.0297778
-0.0332681
-0.024984
-0.0270451
-0.0226231
-0.0235297
-0.0222901
-0.0222214
-0.0237982
-0.0228162
-0.0271458
-0.0252446
-0.0320502
-0.0294521
-0.0373644
-0.0347612
-0.0413626
-0.0396287
-0.0427755
-0.0424291
-0.0414206
-0.0424126
-0.0380476
-0.0399161
-0.0338289
-0.0359686
-0.0298786
-0.0317628
-0.0269737
-0.0282635
-0.0255114
-0.0260515
-0.0256164
-0.0253722
-0.0273204
-0.0262927
-0.0287959
-0.0587146
-0.0438101
-0.0514021
-0.0720802
-0.0656515
-0.0826747
-0.077767
-0.0898059
-0.0867186
-0.092785
-0.0918455
-0.0912858
-0.0925957
-0.08543
-0.0888798
-0.0756584
-0.080995
-0.0627766
-0.0695243
-0.0556029
-0.0391818
-0.0344328
-0.0364361
-0.0470311
-0.0426875
-0.0586269
-0.0522957
-0.0749767
-0.0661618
-0.0964741
-0.0851143
-0.121653
-0.108812
-0.146
-0.134321
-0.163141
-0.155836
-0.168507
-0.167418
-0.161436
-0.166425
-0.144294
-0.153891
-0.12113
-0.133175
-0.0964349
-0.108718
-0.0736942
-0.0846723
-0.0545823
-0.0636517
-0.0392034
-0.046459
-0.026959
-0.0327311
-0.0173
-0.0218287
-0.0100008
-0.0133584
-0.00508412
-0.00723885
-0.00264456
-0.00355202
-0.00263656
-0.00235327
-0.00458757
-0.00342233
-0.00735866
-0.00596882
-0.00924752
-0.00852783
-0.00868375
-0.00933107
-0.00541114
-0.00732435
-0.00100183
-0.00320281
0.00237372
0.00091972
0.00375368
0.00331057
0.00314565
0.00366819
0.000866819
0.00220637
-0.0115468
-0.00365352
-0.00103
-0.211322
-0.20608
-0.239485
-0.207668
-0.0362135
-0.0329802
-0.17573
-0.229633
-0.17303
-0.216254
-0.139703
-0.109785
-0.084536
-0.0641697
-0.0480034
-0.0198295
-0.00304955
0.00892424
0.00377177
0.00036879
-0.0070294
-0.00739274
-0.0360281
-0.0652392
-0.0947468
-0.123344
-0.0351105
-0.0265801
-0.0199739
-0.0149941
-0.224716
-0.0305807
-0.0160067
-0.0661403
-0.0474217
-0.108158
-0.0868286
-0.147228
-0.128643
-0.173306
-0.162561
-0.177754
-0.178459
-0.160861
-0.171554
-0.131673
-0.147065
-0.100897
-0.115974
-0.0745596
-0.0870037
-0.054228
-0.0636508
-0.0393668
-0.0461833
-0.0288632
-0.0336393
-0.021726
-0.0249268
-0.0172138
-0.0191798
-0.0148006
-0.0157716
-0.0141198
-0.0142614
-0.0149753
-0.0143596
-0.0173539
-0.0159741
-0.0210867
-0.0190849
-0.0253074
-0.0232211
-0.0285738
-0.0271481
-0.0297579
-0.0294605
-0.0286794
-0.0294742
-0.0259934
-0.0274762
-0.0227123
-0.0243633
-0.019773
-0.0211527
-0.0178092
-0.0186441
-0.0171311
-0.0173018
-0.0178292
-0.0173106
-0.0198961
-0.0186884
-0.0234124
-0.0214873
-0.0287605
-0.0258309
-0.047575
-0.0320814
-0.0397773
-0.0626658
-0.0552838
-0.0759164
-0.0696162
-0.0863211
-0.0815163
-0.0930806
-0.0902091
-0.0954793
-0.0948522
-0.0932571
-0.0949411
-0.0866514
-0.0904689
-0.0762792
-0.0818894
-0.0629234
-0.0699167
-0.0476902
-0.0554237
-0.0321653
-0.0399054
-0.0269505
-0.0245709
-0.0255413
-0.0314757
-0.0288933
-0.0387007
-0.0347374
-0.0492755
-0.0435101
-0.0641054
-0.0561179
-0.0835524
-0.0732792
-0.106318
-0.0947081
-0.128294
-0.117764
-0.143587
-0.137113
-0.148023
-0.147266
-0.141197
-0.145908
-0.125441
-0.134223
-0.104416
-0.115331
-0.0820495
-0.0931791
-0.0613375
-0.0713609
-0.0437013
-0.0521069
-0.0292365
-0.0360993
-0.0174554
-0.0230444
-0.00791806
-0.0124233
-0.000465674
-0.00393145
0.00484554
0.00246461
0.00790717
0.00666076
0.00875264
0.00859196
0.00780406
0.00845369
0.00606043
0.00694655
0.00496601
0.00533875
0.00573312
0.00508014
0.00833193
0.0068719
0.0112871
0.00988376
0.0130091
0.012359
0.0130665
0.0132377
0.0115793
0.01251
0.00862034
0.0102899
0.0064417
-0.190837
-0.183024
-0.0113082
-0.00367548
-0.22036
-0.1909
-0.152251
-0.208036
-0.157065
-0.0213282
-0.0243914
-0.0320004
-0.0242824
-0.192626
-0.12611
-0.0994272
-0.0775171
-0.0599949
-0.0460775
0.0199163
0.0359272
0.0451502
0.0301484
0.00424429
-0.0229685
-0.0503757
-0.0775689
-0.104103
-0.0360484
-0.0289119
-0.0234755
-0.019466
-0.00839874
-0.0164681
-0.206587
0.0133258
0.0253545
-0.0148511
2.49422e-06
-0.0497075
-0.0313107
-0.0896202
-0.0695214
-0.125814
-0.108758
-0.148682
-0.139511
-0.151178
-0.152603
-0.134992
-0.144951
-0.10906
-0.122596
-0.0824684
-0.0954399
-0.0599225
-0.0705688
-0.0424598
-0.0505717
-0.0295539
-0.0354945
-0.0202984
-0.0245258
-0.0138869
-0.0167807
-0.0097063
-0.0115496
-0.00731122
-0.00830873
-0.00637807
-0.00667836
-0.00671151
-0.00639199
-0.00828431
-0.00734141
-0.0110145
-0.00952607
-0.0142847
-0.012648
-0.0169232
-0.0157593
-0.0179281
-0.017663
-0.0170999
-0.0177207
-0.0149957
-0.0161543
-0.0124905
-0.0137385
-0.0103803
-0.0113468
-0.00918623
-0.00964883
-0.00914934
-0.0090178
-0.0103259
-0.00958707
-0.0127102
-0.0113637
-0.016252
-0.0143551
-0.0186176
-0.0520296
-0.0358438
-0.0440176
-0.0674043
-0.0598662
-0.0806736
-0.0743539
-0.091035
-0.0862788
-0.0974893
-0.0948049
-0.099331
-0.0990104
-0.0963609
-0.0984381
-0.0889072
-0.0931535
-0.0777459
-0.0837301
-0.0638026
-0.0710697
-0.0480373
-0.0560456
-0.0399863
-0.019625
-0.0173536
-0.0182203
-0.0238536
-0.021458
-0.030389
-0.0267905
-0.0399148
-0.0347325
-0.0531763
-0.0460412
-0.0705188
-0.0613594
-0.0908292
-0.0804677
-0.110446
-0.10105
-0.123978
-0.118285
-0.127592
-0.127115
-0.121066
-0.125483
-0.106686
-0.114661
-0.0877606
-0.0975681
-0.067678
-0.077676
-0.0489698
-0.0580472
-0.0328194
-0.0405516
-0.0193136
-0.0257571
-0.00806908
-0.013435
0.00124724
-0.00318167
0.00872598
0.00521899
0.0142754
0.0117502
0.0177725
0.0162841
0.0192421
0.018747
0.0190678
0.0193166
0.018131
0.0186212
0.0176411
0.0177567
0.018471
0.0178757
0.0203461
0.0193476
0.0219753
0.0212784
0.022333
0.0223356
0.0213511
0.021994
0.0192072
0.0204225
0.0158141
0.0176882
0.010751
0.0134992
0.00360317
0.00741336
-0.0140866
-0.00605383
-0.000886884
-0.170693
-0.161439
-0.199782
-0.173254
-0.0278726
-0.0168018
-0.130839
-0.186366
-0.141624
-0.170375
-0.113937
-0.0907811
-0.0720532
-0.0571108
-0.045261
0.0541074
0.0681989
0.0760451
0.00140526
-0.00408459
-0.0121079
0.0624264
0.0395995
0.0149823
-0.01065
-0.0368322
-0.0625464
-0.0872648
-0.0380729
-0.0323355
-0.0281099
-0.024975
-0.0226975
-0.0207191
-0.187381
0.0507103
0.0599445
0.0281235
0.040244
-0.000364671
0.0145359
-0.0341454
-0.0165066
-0.0714051
-0.0527637
-0.104204
-0.0889434
-0.123566
-0.116057
-0.124289
-0.126266
-0.109341
-0.118299
-0.0870161
-0.0985578
-0.0646728
-0.0755389
-0.0458088
-0.0547228
-0.0310919
-0.0379493
-0.0200673
-0.0251627
-0.0120311
-0.0157192
-0.00635164
-0.0089315
-0.00253628
-0.00423708
-0.000216527
-0.001209
0.000885776
0.000472017
0.000957011
0.00104376
3.88664e-05
0.000623622
-0.00184584
-0.000794084
-0.0042926
-0.00304743
-0.00638571
-0.00544795
-0.00724492
-0.00700209
-0.00664005
-0.00710856
-0.00502535
-0.0059135
-0.00315564
-0.00407515
-0.0017143
-0.00234825
-0.00113696
-0.00130162
-0.00161066
-0.00123887
-0.00316284
-0.00225344
-0.00576386
-0.00433288
-0.00935942
-0.00743968
-0.0141147
-0.0115705
-0.0202639
-0.0169791
-0.0402904
-0.0240044
-0.0320135
-0.0570732
-0.0487234
-0.0728479
-0.0651862
-0.0864247
-0.0799541
-0.0968758
-0.0921168
-0.103089
-0.100565
-0.104384
-0.104372
-0.100622
-0.10312
-0.0922256
-0.096956
-0.0800983
-0.0865567
-0.0653877
-0.0729975
-0.0491146
-0.0573838
-0.0324089
-0.0406984
-0.016741
-0.0244086
-0.0103005
-0.00949559
-0.00972773
-0.0125379
-0.0112212
-0.0163792
-0.014245
-0.0222478
-0.0190325
-0.0307069
-0.0261158
-0.0423971
-0.0361153
-0.0576399
-0.0495909
-0.0755154
-0.066389
-0.0928357
-0.0845347
-0.104733
-0.0997513
-0.107659
-0.107399
-0.101471
-0.105592
-0.0884219
-0.0956188
-0.0714934
-0.0802497
-0.0535845
-0.062504
-0.0368006
-0.0449661
-0.0221071
-0.0291737
-0.00957956
-0.0155888
0.00107111
-0.00403895
0.0100783
0.00577338
0.017467
0.0139804
0.0231117
0.0205169
0.0268776
0.0252333
0.0287865
0.028051
0.0291949
0.0291384
0.0288818
0.0290659
0.0288282
0.0287688
0.0295802
0.0291069
0.0306935
0.0301554
0.0311524
0.0310589
0.0304292
0.0309381
0.0286678
0.0296625
0.026014
0.0274551
0.0223145
0.0243154
0.0172245
0.0199643
0.010388
0.0140262
0.00616661
-0.151532
-0.141578
-0.0190176
-0.0101887
-0.179221
-0.156004
-0.112435
-0.165951
-0.127616
-0.0129297
-0.0161814
-0.0170718
-0.00962151
-0.150471
-0.103598
-0.0839002
-0.0680835
-0.0554885
-0.0456268
0.0833852
0.0952169
0.101293
0.0899232
0.0700902
0.04843
0.025051
0.000498692
-0.0246001
-0.0492617
-0.0727954
-0.0413435
-0.0370517
-0.0339632
-0.0318116
-0.0300668
-0.0284797
-0.0168812
-0.0266287
-0.168455
0.0809459
0.0885766
0.0630023
0.0724305
0.0407486
0.0525362
0.0127818
0.0273597
-0.0195136
-0.0028378
-0.0537752
-0.0367811
-0.0826606
-0.0694271
-0.098414
-0.0925322
-0.0977985
-0.100061
-0.0846139
-0.0923333
-0.066092
-0.0755912
-0.0478774
-0.0567243
-0.0324644
-0.039764
-0.0202958
-0.0259884
-0.0110308
-0.0153329
-0.00415457
-0.00732646
0.000807646
-0.00146096
0.00423978
0.00269408
0.00643968
0.00547762
0.00764066
0.00715217
0.0080137
0.00792367
0.00761331
0.00791181
0.00642823
0.00711469
0.00469121
0.00559582
0.00307938
0.00381702
0.00234751
0.0025717
0.00275757
0.00242191
0.00396213
0.0032987
0.00531601
0.0046614
0.00622611
0.00585512
0.00632099
0.00638862
0.00545342
0.00600954
0.00362049
0.00465465
0.000875934
0.00235815
-0.00272521
-0.000824443
-0.00724379
-0.00485752
-0.00992859
-0.0453567
-0.0280205
-0.036679
-0.0627568
-0.0540629
-0.0790972
-0.0711441
-0.0932138
-0.0864996
-0.103875
-0.0990592
-0.109913
-0.107525
-0.110661
-0.110966
-0.10605
-0.109004
-0.0966139
-0.10188
-0.0833792
-0.0903912
-0.0676715
-0.0757498
-0.0506943
-0.0592861
-0.0333664
-0.0419813
-0.0250183
-0.00361432
-0.00268053
-0.00299982
-0.00571652
-0.00454154
-0.0091905
-0.00727115
-0.0143894
-0.011552
-0.021793
-0.0177835
-0.0319474
-0.026498
-0.0451456
-0.0381773
-0.0606567
-0.0527281
-0.0757789
-0.0685185
-0.0861846
-0.0818374
-0.0885603
-0.0884563
-0.082763
-0.0865762
-0.0709639
-0.077439
-0.0558823
-0.0636669
-0.0399864
-0.0479055
-0.0250055
-0.0323128
-0.0117089
-0.018132
-0.000158175
-0.00572738
0.00985537
0.00502752
0.0184765
0.0143378
0.025671
0.02226
0.0312847
0.0286859
0.0351764
0.0334493
0.0373719
0.0364731
0.0382091
0.037924
0.0383666
0.0383215
0.0385893
0.0384357
0.0391264
0.0388356
0.0394717
0.0393731
0.0389452
0.0393424
0.0374035
0.0382879
0.0350803
0.0363275
0.0320544
0.0336616
0.0281513
0.0302293
0.023092
0.0257845
0.0165966
0.02004
0.00832178
0.0126898
-0.00205595
0.00335934
-0.0244989
-0.0146144
-0.00802304
-0.133947
-0.1239
-0.159947
-0.140164
-0.0197924
-0.00272516
-0.0965485
-0.147604
-0.115556
-0.13326
-0.0952097
-0.0787162
-0.0655408
-0.0551805
-0.0472486
0.106768
0.115229
0.119046
0.111455
0.096027
0.0773506
0.0565417
0.0341637
0.0104695
-0.0136625
-0.0373921
-0.060111
-0.0460608
-0.0432015
-0.0412984
-0.0399808
-0.0387649
-0.0373099
-0.0353782
-0.00562372
-0.0219332
-0.011796
-0.150917
0.104821
0.110344
0.0908532
0.0982558
0.0728535
0.082327
0.0510579
0.0625917
0.0243039
0.0382167
-0.00601696
0.00948346
-0.0367696
-0.0216985
-0.0613822
-0.0502923
-0.0737214
-0.06931
-0.0723899
-0.074608
-0.061435
-0.0677346
-0.046714
-0.0542266
-0.0323361
-0.039327
-0.0200491
-0.0258907
-0.0101848
-0.0148221
-0.00253019
-0.0061031
0.00326447
0.000576802
0.00753915
0.00557197
0.0105828
0.00919862
0.01263
0.0117179
0.0138714
0.0133405
0.0144584
0.0142397
0.0144544
0.014531
0.0138347
0.0142221
0.0127033
0.0133132
0.0115223
0.0120786
0.0109113
0.0111154
0.0111586
0.0109302
0.0120216
0.0115442
0.0129592
0.0125166
0.013454
0.0132871
0.0131816
0.0134249
0.0120225
0.0127138
0.00999183
0.0111119
0.00715873
0.00867062
0.00357807
0.00545925
-0.000706134
0.00151633
-0.00590354
-0.00320111
-0.0121789
-0.00884762
-0.0325358
-0.0157187
-0.0238874
-0.0508001
-0.0415935
-0.0690396
-0.0599955
-0.0862106
-0.0778306
-0.101034
-0.0940064
-0.112019
-0.107093
-0.117943
-0.115669
-0.118138
-0.118772
-0.112612
-0.116061
-0.102029
-0.107888
-0.0875608
-0.095193
-0.0706636
-0.0793204
-0.0527614
-0.0617662
-0.034792
-0.0437377
-0.0178583
-0.0261182
-0.00295297
-0.0101801
0.00360736
0.0036244
0.00371067
0.00262874
0.00324156
0.000717643
0.00180008
-0.00236489
-0.000666408
-0.00690094
-0.00443074
-0.0132867
-0.00983599
-0.0219743
-0.0173188
-0.0332249
-0.0272862
-0.0464817
-0.0396952
-0.0595234
-0.0532431
-0.0685808
-0.0647925
-0.0705462
-0.0705342
-0.0651893
-0.068689
-0.0545511
-0.0603665
-0.0411344
-0.0480438
-0.0270569
-0.0340705
-0.0137272
-0.0202444
-0.00174435
-0.00755665
0.00884801
0.00371679
0.0181938
0.0136686
0.0263634
0.0224273
0.0332734
0.0299857
0.0387487
0.0362011
0.0426499
0.0408989
0.0450137
0.0440108
0.0461592
0.0457065
0.0466509
0.0464481
0.0469889
0.0468233
0.0471906
0.0471296
0.0468081
0.0471042
0.0454988
0.0462721
0.0433693
0.0445188
0.040655
0.042078
0.0373743
0.0390934
0.0333589
0.0354722
0.0283818
0.031005
0.0222136
0.0254617
0.0146045
0.0186043
0.00535093
0.0101641
7.43535e-05
-0.118247
-0.108439
-0.0329971
-0.142796
-0.126352
-0.082881
-0.131693
-0.105613
-0.00490722
-0.00797712
-0.00353282
0.00326815
-0.1187
-0.0887085
-0.0751381
-0.0644551
-0.0562828
-0.0502846
0.1221
0.125876
0.127021
-0.0296708
-0.018415
0.124412
0.115557
0.101209
0.0836694
0.0637921
0.0422531
0.0193504
-0.00399999
-0.02703
-0.0491358
-0.0524219
-0.0510138
-0.0502699
-0.0496989
-0.04886
-0.047458
-0.0452489
-0.135463
0.120393
0.123359
0.110752
0.115986
0.0973695