/*--------------------------------*- C++ -*----------------------------------*\
  =========                 |
  \\      /  F ield         | OpenFOAM: The Open Source CFD Toolbox
   \\    /   O peration     | Website:  https://openfoam.org
    \\  /    A nd           | Version:  10
     \\/     M anipulation  |
\*---------------------------------------------------------------------------*/
FoamFile
{
    format      ascii;
    class       surfaceScalarField;
    location    "13";
    object      phi;
}
// * * * * * * * * * * * * * * * * * * * * * * * * * * * * * * * * * * * * * //

dimensions      [0 3 -1 0 0 0 0];

internalField   nonuniform List<scalar> 
29080
(
0.0907725
-0.145255
-0.0153247
0.0698077
0.0509823
0.0397902
0.0119685
0.0296189
-0.0264503
-0.0151371
0.0420379
0.00577585
-0.0358452
0.0386429
-0.00173855
0.00513351
0.0314793
-0.0585399
0.047679
-0.0206184
-0.0485526
0.0290787
0.0509531
0.0342737
0.00502488
-0.0470803
0.00778172
-0.031678
0.0715631
-0.00561142
0.0119898
-0.103357
-0.015946
0.060763
-0.0837957
0.0552931
0.0822867
0.0663407
-0.0191999
-0.107364
0.0377776
0.0651783
0.00440781
0.000789662
0.0379673
-0.0127997
-0.0227888
0.049988
0.0264745
0.0536009
-0.0883046
0.00822923
0.0200059
0.074823
0.0203997
0.0635856
-0.00408738
0.00163547
-0.000562992
-0.00470181
0.00362933
-0.0111042
-0.0183228
0.0310625
-0.00678364
-0.00386121
-0.000459396
-0.00741252
6.58883e-05
-0.00303877
-0.00907556
-0.0691808
0.00487937
0.00508769
0.0592137
-0.033479
-0.048328
0.0126263
0.0416465
-0.0387093
-0.0364163
0.00042
0.000751191
0.00216438
-0.00333558
0.00521693
-0.00479693
-0.00321483
0.00843176
0.00245191
-0.00491555
0.003026
0.0015903
-0.0265237
-0.00301016
0.0220753
0.00745859
0.00164413
-0.0207237
-0.00744411
0.0258616
0.00143644
-0.0256539
0.0166494
0.00620204
0.0172519
0.0214728
-0.0368856
0.0122475
0.0312758
-0.00663768
0.0247585
-0.0480787
-0.0135653
0.018631
0.0119819
-0.00585449
0.0209525
0.00992598
0.020773
0.0314553
0.0675434
0.000233953
-0.0322177
-0.0355597
-0.0050678
0.0624562
0.0101551
-0.0359994
0.0398073
-0.00887576
-0.0246246
-0.0111408
-0.0576863
-0.00503115
0.0154012
0.0473163
-0.0660264
0.0132194
-0.0446748
0.0202949
0.07563
0.0286668
-0.0413328
-0.062964
-0.0288822
0.0252861
0.0792261
0.0706129
-0.0976138
0.0606644
-0.0336634
-0.034415
0.0510359
0.053992
0.00720111
0.00723794
-0.00649259
-0.00794646
0.0148515
0.00455079
-0.0122012
-0.00590492
0.0059708
-0.00894369
-0.0611362
-0.0385424
0.00829228
0.0913863
-0.0283669
0.0250016
-0.0577709
0.054522
-0.0585542
-0.0243347
0.0534531
-0.0374735
0.0691942
-0.00744883
0.0861045
-0.0392535
-0.046851
-0.0590101
0.0496385
0.0954761
-0.0282331
-0.0299292
0.019453
-0.00404458
0.0172633
-0.0414518
0.0127423
-0.0467161
0.00787177
0.00411017
0.0177977
0.0113656
0.0406145
-0.0121728
-0.0252734
0.0382266
0.0128026
-0.0257557
-0.070206
0.00272171
0.0422109
0.00361574
0.0216468
-0.0407998
0.0195438
-0.0425718
0.0046234
-0.0278889
0.0294675
-0.0359263
0.000202345
0.0403473
-0.0286045
0.00215212
0.0426532
-0.0415542
-0.00225689
0.00115788
-0.00116979
-0.00106051
0.0448835
-0.00175604
-0.00710505
-0.00247703
0.0113381
-0.00915362
0.0172742
-0.00987662
0.00570185
0.0186742
-0.00952456
0.0286999
0.00309628
-0.0260943
0.0774517
-0.00441519
-0.0885304
0.0154939
-0.00331056
0.0523393
0.0284229
0.0560468
-0.0120713
0.0131365
-0.0571121
0.0558811
0.010155
-0.00998925
-0.00707605
-0.0448016
0.0453511
0.00652652
-0.046764
0.047599
-0.0079111
0.0157547
0.0375889
-0.0376957
-0.015648
0.0359196
0.0145504
-0.0347153
0.0186257
0.0444369
-0.0445764
-0.0184862
0.0417762
0.0176439
-0.0407944
0.0197649
0.0464026
-0.045712
-0.0204555
0.0441179
0.0178025
-0.0421555
0.0338988
0.0850434
-0.123357
-0.0734388
0.0784553
-0.0115772
-0.0512671
0.00928331
0.053561
-0.0484977
-0.0165357
0.0534561
0.0113317
-0.011966
-0.0478634
0.00892103
-0.0488564
-0.0520728
0.00707382
0.0515635
-0.00656461
0.00970813
-0.0524976
-0.000769721
-0.0210459
0.00217483
0.0196408
-0.0122923
0.0115877
-6.50386e-05
0.00132707
-0.0133371
-0.000282363
0.00281041
-0.0225293
-0.0201549
-0.00333237
0.00276357
0.0119037
-0.0298838
0.0182849
0.0409406
-0.0160001
-0.0432255
0.0244761
0.0553834
-0.0615746
0.00652807
0.0588886
-0.00955921
-0.0130104
0.0151255
-0.00329799
0.00532644
-0.00837418
-0.0431878
0.00676039
-0.040688
-0.0144501
-0.0393902
0.00652455
-0.00782241
-0.00505944
-0.0266188
-0.00771189
0.041477
-0.049924
0.00338754
0.00481372
-0.0261299
0.0069445
-0.00743347
0.00639668
-0.0255093
-0.00701723
0.0477225
-0.0466463
0.00532051
0.00474304
-0.0247258
0.00559486
-0.00637838
0.00468119
-0.0238302
-0.00557684
0.045478
-0.0442039
0.00340702
0.00442657
-0.0227826
0.0034789
-0.00452642
0.00215319
-0.0216325
-0.0033033
0.0428944
-0.0415635
0.000822322
0.0021694
-0.0203958
0.000629023
-0.00186574
-0.000977825
-0.0191435
-0.00027445
0.0402505
-0.0390186
-0.0022098
-0.000683947
-0.0178708
-0.00267033
0.00139756
-0.00441436
-0.0166073
0.00315091
0.0379851
-0.037198
-0.00520141
-0.00370383
-0.0154801
-0.00603184
0.00490458
-0.00763901
-0.0144634
0.00662234
0.0367193
-0.0365682
-0.00779013
-0.00651052
-0.0136632
-0.00895417
0.00815398
-0.010234
-0.012997
0.0095678
0.0367315
-0.0371627
-0.00980277
-0.00879091
-0.0227174
-0.0112184
0.0209387
-0.0121983
-0.0244828
0.0139638
0.0378017
-0.0398341
-0.0101659
-0.0105794
-0.0294739
-0.00668459
0.0116757
-0.0107989
-0.0311116
0.0124366
0.0364159
-0.0349156
-0.0122992
-0.0101028
-0.0327863
-0.0108375
0.0125122
-0.0122167
-0.0320836
0.011514
0.034817
-0.0365655
-0.0104682
-0.0109362
0.0133774
-0.0140233
-0.0331604
0.0144542
-0.00786872
0.00616953
0.0470503
-0.00785641
0.0475867
0.0139209
-0.0325309
0.0455864
-0.0434028
0.00398591
-0.00629433
0.0463022
0.00557859
-0.00797781
0.0487338
0.0503175
-0.0503378
-0.00789082
0.0530027
-0.0105416
0.0316556
-0.0308414
0.01364
-0.0297322
0.0289366
0.0133077
0.0134374
-0.0277843
0.0268464
0.0126136
0.013589
-0.0240342
0.0345855
0.0103875
0.016776
-0.0352711
0.0362566
0.00716854
0.00888213
-0.037515
0.0389808
0.00343878
0.00536392
-0.0406187
0.0423329
-0.000316614
0.00151299
-0.0440468
0.0456699
-0.00348882
-0.00198834
-0.0471896
0.0485638
-0.00590062
-0.00482305
-0.0497843
0.0508357
-0.00742979
-0.00679728
-0.0517242
0.0524573
-0.00816651
-0.00790578
-0.0530396
0.0544147
-0.00919754
-0.0082942
-0.0103732
0.0103396
-0.00921408
0.0518771
0.0499485
0.0418037
-0.0424586
0.00741523
0.00492744
0.0428108
-0.0451086
0.00568537
0.00516592
0.0453851
-0.0443499
0.00428534
0.00501953
0.0432483
-0.0421192
0.00227791
0.00332491
0.0410202
-0.0400084
-0.000189476
0.0010704
0.0391695
-0.038519
-0.00286028
-0.00152285
0.0381301
-0.0380357
-0.00529584
-0.0040927
0.0382506
-0.0387476
-0.00729313
-0.00629555
0.0394442
-0.0402426
-0.0090044
-0.00809434
0.0410238
-0.0405097
-0.01068
-0.00979821
0.0394155
-0.0405599
-0.0111549
-0.011197
0.0402293
-0.0379678
-0.0127296
-0.0112668
-0.0144021
0.00641557
-0.00691921
0.0492375
0.00459534
0.0481224
0.0145682
-0.0314887
-0.0167835
0.0162335
-0.0341654
0.0535133
-0.0533185
-0.00940884
0.00869095
0.0528177
-0.00799537
0.0084025
0.0521656
-0.0381728
-0.0163063
0.0281351
-0.0284901
0.0139951
-0.0280938
0.0271113
0.0142903
0.0134787
-0.0279888
0.0278864
0.012716
0.0127114
-0.033675
0.0349208
0.00914159
0.0109874
-0.0363804
0.0380506
0.00549838
0.00742252
-0.0398812
0.0417713
0.00154873
0.0035333
-0.0436594
0.0454836
-0.00214083
-0.000375146
-0.0472275
0.0488184
-0.00507971
-0.00373223
-0.0502379
0.0514622
-0.00712493
-0.00624254
-0.0524968
0.0533446
-0.00827752
-0.00783191
-0.0540251
0.0545445
-0.00868594
-0.0085863
-0.054942
0.0542895
-0.0085451
-0.00869166
-0.0530819
0.0541993
-0.00900824
-0.00916551
-0.00966083
0.0514318
-0.0453323
0.0043625
0.0455652
0.0444903
-0.0455005
0.00499602
0.0047366
0.0466518
-0.0450775
0.00584092
0.00607883
0.0452615
-0.0444575
0.00488141
0.00534989
0.043592
-0.0427042
0.00339752
0.00415399
0.0418314
-0.0410147
0.00146128
0.00245209
0.0403158
-0.0397718
-0.000733527
0.000371484
0.039458
-0.0394033
-0.00291506
-0.00183656
0.0396236
-0.0401085
-0.00481098
-0.00387235
0.0408005
-0.0416331
-0.00646056
-0.0056035
0.0424962
-0.0433116
-0.00818896
-0.00723124
0.0439944
-0.0443706
-0.0103038
-0.00911543
0.0441497
-0.0435507
-0.0117539
-0.0114178
0.0420709
-0.0394165
-0.015384
-0.0127465
0.0399163
-0.0389959
-0.0165684
-0.0139023
-0.0161928
0.0152304
-0.0372104
0.0403764
-0.0403474
-0.0162218
-0.0149258
-0.0281215
0.0141996
0.0155354
-0.0318328
0.0153452
-0.0342802
-0.00798841
0.00715492
0.0529991
-0.0161295
0.0151172
-0.0361981
-0.0173485
-0.0391284
-0.00927426
0.0541036
0.0451855
-0.0448089
0.00398588
0.0540997
-0.0545568
-0.00895173
0.0549303
-0.00882599
-0.00415215
0.0457295
0.00360808
-0.00502322
0.0464362
-0.0152702
0.0144586
-0.0273099
-0.0312235
0.0264258
-0.0254102
0.0134431
-0.0273392
0.0277709
0.0135633
0.0132862
-0.0283834
0.0299229
0.0127508
0.0128662
-0.03091
0.0331697
0.0104564
0.0117243
-0.035146
0.0370273
0.00726026
0.00901109
-0.0390513
0.0411413
0.00340835
0.0053985
-0.0432522
0.045303
-0.000502077
0.00142247
-0.0472456
0.0490259
-0.00392114
-0.00231775
-0.0506337
0.0520322
-0.00647824
-0.00534
-0.0532212
0.0541954
-0.00809915
-0.00743159
-0.0549736
0.0555687
-0.00887266
-0.00861005
-0.0560071
0.0563066
-0.00898551
-0.00902464
-0.0564961
0.056593
-0.00864201
-0.00888112
-0.0560755
0.0551827
-0.00811546
-0.00864803
-0.00903485
-0.00636609
0.00458749
0.0510161
0.0522206
0.0476867
0.0450902
-0.0459074
0.00581321
0.00501791
0.0453376
-0.0447134
0.00521665
0.0055091
0.044073
-0.0433942
0.00420263
0.00470954
0.0427354
-0.0421134
0.00277553
0.00349514
0.0415782
-0.0411676
0.00105066
0.00191688
0.0409299
-0.0408962
-0.000767166
0.000133801
0.0410928
-0.0415203
-0.00248754
-0.00164003
0.0421412
-0.0429099
-0.00404227
-0.00325147
0.0437364
-0.0445558
-0.00564116
-0.00477697
0.0452876
-0.0459056
-0.00757098
-0.00649948
0.0463917
-0.0467756
-0.00991986
-0.00862933
0.0470738
-0.046289
-0.0125387
-0.0111196
0.0452598
-0.0461918
-0.014452
-0.0137758
0.0449077
-0.0448127
-0.0166634
-0.0151864
0.0435148
-0.0426474
-0.0170892
-0.0162237
0.0420576
0.018234
-0.0414756
-0.018816
-0.0179383
0.0154955
-0.0319831
0.0141355
-0.014914
-0.0265314
-0.0237919
0.0125172
0.00405966
-0.00518717
0.0475638
0.00371774
0.0460715
0.0150015
-0.0341645
0.0175513
-0.0384458
0.0166921
-0.0353389
-0.0195068
0.0184217
-0.0373606
-0.00870468
0.0543607
-0.0192062
-0.0306421
0.0121463
-0.0133624
-0.0225759
0.0229704
-0.0212768
0.0104527
-0.0243786
0.0261153
0.0117064
0.011109
-0.0274873
0.0290392
0.0120114
0.0119142
-0.0302687
0.0321896
0.0108299
0.0116367
-0.034116
0.0361805
0.00839186
0.00979794
-0.038377
0.0406367
0.00500046
0.0068146
-0.042923
0.0451556
0.00117575
0.00311221
-0.0472944
0.0492722
-0.00247989
-0.000716274
-0.0510611
0.0526233
-0.00548337
-0.00410668
-0.0539608
0.0550615
-0.00757891
-0.0066775
-0.0559408
0.056609
-0.00876734
-0.00831089
-0.0570931
0.057415
-0.00919454
-0.00909417
-0.0576041
0.0576833
-0.00906477
-0.00921371
-0.0576788
0.0576091
-0.00857232
-0.00887662
-0.0572192
0.0569702
-0.00786639
-0.00825813
-0.0558062
0.054906
-0.00805151
-0.00787089
-0.0547836
0.0550769
-0.00899801
-0.00870356
0.00854018
-0.00847144
0.054292
-0.00801221
0.00716181
0.0538495
0.0546315
-0.00673394
0.00642978
0.0513202
0.0526485
0.0489293
-0.0453744
0.00304385
0.0460483
0.0454888
-0.0457683
0.00426541
0.00372244
0.0461236
-0.0455908
0.00528036
0.00537326
0.0450555
-0.0445235
0.00468463
0.00497379
0.0440161
-0.0435414
0.00372794
0.00420214
0.0431403
-0.0428338
0.00246894
0.00309409
0.0426596
-0.0426433
0.00103439
0.0017427
0.0428031
-0.0431448
-0.000425451
0.000293562
0.0436526
-0.0442965
-0.00184355
-0.00113224
0.0450091
-0.0457393
-0.00331203
-0.00253891
0.0464154
-0.0470095
-0.00504705
-0.00410088
0.0474958
-0.0478924
-0.0071744
-0.0060132
0.048218
-0.0485087
-0.00962919
-0.00830373
0.0487835
-0.0490622
-0.01226
-0.0108447
0.049335
-0.0488198
-0.0149673
-0.013503
0.0478122
-0.0475333
-0.0169424
-0.016194
0.0460406
-0.0451963
-0.0179336
-0.0177163
0.0441803
-0.0447577
-0.0182385
-0.0189543
-0.019527
-0.00751358
0.054119
0.0152383
-0.0322199
-0.014262
-0.0256318
0.0162453
-0.0337177
-0.0106897
-0.0197063
0.00911914
-0.0122486
-0.0210169
0.0174944
-0.0344117
0.0474645
-0.0474057
0.00298501
-0.00290865
0.0475202
0.00285303
-0.00393791
0.0470776
0.0171684
-0.0368851
-0.0176449
0.0167973
-0.0399467
0.0547203
-0.0561805
-0.00753781
0.0546836
-0.00747689
-0.0181035
-0.0296657
0.00765154
-0.00903028
-0.0183275
0.0217248
-0.0205794
0.00650616
-0.0231575
0.0248087
0.00880144
0.00768646
-0.0263723
0.0280387
0.01004
0.00954544
-0.0297997
0.0317025
0.0101086
0.0101533
-0.0337454
0.0359114
0.00866386
0.00959383
-0.0381947
0.04054
0.00604656
0.00751466
-0.0429246
0.0452692
0.0026558
0.00443001
-0.047538
0.0496565
-0.000942736
0.000843403
-0.0515972
0.0533088
-0.00419149
-0.00265698
-0.0547825
0.0559993
-0.00670021
-0.00558031
-0.0569738
0.0577126
-0.00831768
-0.00765202
-0.0582418
0.0585836
-0.00910919
-0.00884006
-0.0587694
0.0588265
-0.00925162
-0.00927997
-0.0587835
0.0586643
-0.00894561
-0.00917068
-0.058491
0.0582805
-0.00836185
-0.00870328
-0.0580477
0.0578041
-0.00762275
-0.00802531
-0.0575179
0.0569981
-0.00753165
-0.00758474
-0.00788601
-0.00644522
0.00641568
0.0543215
0.00649437
-0.00583395
0.0540232
0.0541682
-0.00636959
0.00643767
0.0537814
0.0546776
-0.00611804
0.00616938
0.0512689
0.0529681
-0.00573533
0.00515488
0.0481442
0.0493633
0.0472884
0.046855
-0.047517
0.00492736
0.00317175
0.0469795
-0.0464695
0.00477039
0.00483581
0.0460041
-0.0455868
0.00426735
0.00450834
0.0452386
-0.0449712
0.00346062
0.0038539
0.0448097
-0.044769
0.00242822
0.00293258
0.0448631
-0.0450984
0.00126969
0.00183681
0.0454614
-0.0459352
4.83403e-05
0.000656524
0.0464739
-0.0470459
-0.0012716
-0.000593482
0.0475928
-0.0480877
-0.00281708
-0.00199204
0.0485013
-0.0488414
-0.00470695
-0.00368732
0.0491184
-0.0493644
-0.00692849
-0.00573613
0.0496027
-0.0498601
-0.00937186
-0.00806537
0.0501453
-0.0504686
-0.0119368
-0.0105595
0.0508252
-0.0512193
-0.0145732
-0.0131464
0.0516321
-0.0518937
-0.0166808
-0.0157812
0.0518825
-0.0514613
-0.0183548
-0.0177274
0.0514585
-0.0501658
-0.0195312
-0.0189571
0.0496419
-0.0479136
-0.0202146
-0.0200509
-0.0196145
0.0149993
-0.0309739
-0.0134449
-0.0244355
0.00266096
-0.00389608
0.0483127
0.00145938
0.0487217
0.0161776
-0.0324008
-0.0108352
-0.019212
0.0174299
-0.0346732
-0.00562694
-0.0198823
0.00492986
-0.00704559
-0.0169089
0.016657
-0.0367448
0.0166726
-0.0388168
0.0540973
-0.0519902
-0.00794105
-0.0183699
0.0175122
-0.0412978
-0.0448572
-0.0192247
-0.00673727
0.00654849
0.054212
0.0543017
-0.00694162
-0.0281114
0.00264212
-0.00326126
-0.0192632
0.0261808
-0.0263939
0.00285523
-0.0266301
0.0274606
0.00567571
0.00448054
-0.0285057
0.0298543
0.00745283
0.00664139
-0.0314684
0.0330289
0.0084795
0.00793127
-0.0347155
0.036773
0.00805115
0.00846667
-0.0389698
0.0412494
0.0063842
0.00739707
-0.0435912
0.0459208
0.00371696
0.00517291
-0.0482059
0.0503696
0.000492147
0.00214488
-0.0523806
0.0541778
-0.00273998
-0.00116761
-0.055746
0.057054
-0.00549951
-0.00422516
-0.0581076
0.0589066
-0.00749913
-0.00663394
-0.0594751
0.0598341
-0.00867668
-0.0082206
-0.0600154
0.0600486
-0.00914231
-0.00902138
-0.0599645
0.0597918
-0.00907886
-0.00919594
-0.0595548
0.0592755
-0.00866633
-0.00893371
-0.0589705
0.0586541
-0.00804548
-0.00839821
-0.0583362
0.0580251
-0.00731163
-0.00770747
-0.0573779
0.0567149
-0.00686865
-0.00693756
-0.0556378
0.0549882
-0.00688819
-0.00680888
-0.00447897
-0.00612857
0.00617595
0.0542741
0.0545881
-0.00575841
0.00563124
0.0539086
0.0550951
-0.00578976
0.00588129
0.0511774
0.0528096
-0.00522746
0.00446476
0.0489069
0.0500172
0.0478571
-0.0503356
0.00172079
0.0500742
0.0493228
-0.0488984
0.00256063
0.00184019
0.0499395
-0.0493718
0.0043597
0.00421278
0.0488611
-0.0484028
0.00431204
0.00432514
0.0480163
-0.0477041
0.00395515
0.00412184
0.0474824
-0.0473569
0.00333511
0.00363222
0.0473365
-0.047423
0.00251467
0.00291222
0.0476085
-0.0478824
0.00154362
0.00202235
0.0482154
-0.0485844
0.000417367
0.000989504
0.0489479
-0.0492853
-0.000934174
-0.000230049
0.0495704
-0.0498029
-0.00258462
-0.0017069
0.0499856
-0.0501407
-0.00455185
-0.00350457
0.0502889
-0.0504564
-0.00676106
-0.00558793
0.0506586
-0.0509118
-0.00911865
-0.0078631
0.0512185
-0.0515869
-0.0115684
-0.0102528
0.0520123
-0.0525005
-0.014085
-0.0127209
0.0530399
-0.0530975
-0.0166232
-0.0152418
0.0530956
-0.0532085
-0.0182419
-0.0177293
0.052754
-0.052137
-0.0201482
-0.0194116
0.0515499
-0.0496466
-0.0221179
-0.0206379
0.0495987
-0.0510081
-0.0190461
-0.0196623
-0.0158399
0.0155829
-0.0446001
0.0515592
-0.0496666
-0.0177325
-0.0186737
0.0149861
-0.0297825
-0.0128942
-0.0223765
0.0159601
-0.030931
-0.00873419
-0.0175234
0.0154344
-0.0334506
-0.00456971
-0.0156004
0.015901
-0.0359732
-0.000880697
-0.0266876
0.00117438
-0.000800924
-0.019343
0.0156286
-0.0369332
0.0141346
-0.0398496
0.0146005
-0.0478408
-0.0164263
0.0129413
-0.042941
0.0548817
-0.0566292
-0.00619355
-0.0171722
0.00818549
-0.0388541
0.0531324
-0.0516151
0.000203458
-0.0061664
0.00593956
0.0544388
-0.00684539
0.0549807
-3.91643e-05
0.0531902
-1.86615e-05
-0.0013675
0.0514026
0.0481729
-0.0379895
-0.0273556
0.0547089
-0.0067688
-0.0260194
-0.000574805
0.00169486
-0.0278076
0.0360226
-0.0371257
0.000528311
-0.0353932
0.0352235
0.00302485
0.00180377
-0.0349832
0.0354749
0.00518401
0.00472086
-0.0360155
0.0368839
0.00658444
0.00610078
-0.0379186
0.0395154
0.00688271
0.00689657
-0.0413224
0.0432757
0.00609786
0.00665972
-0.0453476
0.0474627
0.00426914
0.00532513
-0.0495856
0.0516385
0.00166407
0.00304993
-0.0535856
0.0553609
-0.0012831
0.000197804
-0.0569369
0.0582717
-0.0040748
-0.00274363
-0.0593615
0.0601949
-0.00633295
-0.00531496
-0.0607887
0.0611581
-0.00786845
-0.00722773
-0.0613329
0.0613427
-0.00868643
-0.00839547
-0.0612195
0.0609944
-0.00891728
-0.00889817
-0.0606944
0.060345
-0.00872947
-0.00889593
-0.0599648
0.0595715
-0.00827299
-0.0085535
-0.0591759
0.0587889
-0.00765843
-0.00800266
-0.0584157
0.0580621
-0.00695804
-0.0073343
-0.0577298
0.0570766
-0.00621549
-0.00660521
-0.056115
0.0546807
-0.00545396
-0.00584724
-0.00642742
-0.00525585
0.0048304
0.0546996
0.0552718
-0.00504092
0.00525841
0.0536911
0.0548846
-0.00545207
0.00556819
0.0510612
0.052616
-0.00553998
0.00531063
0.0491363
0.0500454
-0.00382268
0.00214109
0.0499943
0.049345
0.0494953
0.0519501
-0.052873
0.00348354
0.0021752
0.0523092
-0.0517874
0.00383794
0.003649
0.0513239
-0.0509198
0.00390794
0.00386157
0.0505898
-0.0503347
0.00369998
0.00379192
0.0501624
-0.0500708
0.00324346
0.00345998
0.050057
-0.0501118
0.00256949
0.00289841
0.0502189
-0.0503614
0.00168612
0.00212948
0.0505146
-0.0506611
0.000563937
0.00114265
0.0507827
-0.0508723
-0.000844632
-0.000108466
0.0509305
-0.0509686
-0.00254659
-0.00164863
0.0510029
-0.0510537
-0.00450107
-0.00347027
0.051138
-0.0512722
-0.00662682
-0.00550362
0.0514645
-0.051725
-0.00885812
-0.00767084
0.0520539
-0.05246
-0.0111622
-0.0099239
0.0529396
-0.0535023
-0.0135223
-0.0122414
0.0541414
-0.0548622
-0.0159023
-0.0146027
0.0556418
-0.0556721
-0.0182116
-0.0169498
0.0559441
-0.0558477
-0.0202446
-0.0191395
0.0555868
-0.057417
-0.0202878
-0.0208988
0.0562141
-0.0543276
-0.0209326
-0.0208652
0.0541912
-0.0527548
-0.0191689
-0.0188101
-0.0210081
0.0135427
-0.0273651
-0.0111749
-0.0199358
0.000174756
-0.00200368
0.0532315
-0.000694671
0.0540596
0.0561455
-0.0694979
-0.0246371
0.0136067
-0.0291033
-0.00659473
-0.0154984
0.0135581
-0.0311077
-0.00175955
-0.0146418
0.0137097
-0.0340543
0.00182735
-0.0194755
0.0135878
-0.0363864
0.00180251
-0.0382195
-0.000708728
0.00343281
-0.029438
0.0115469
-0.0384551
0.00918874
-0.0439442
0.00192653
-0.0681362
-0.00617547
0.054039
-0.0236516
-0.00178274
-0.0399
0.0034633
0.0462105
-0.0470333
-0.000959957
-0.0450657
0.0443579
0.00123613
0.000436088
-0.0435475
0.0429185
0.00365383
0.00261411
-0.0430324
0.0430813
0.00513503
0.00460704
-0.043632
0.0444846
0.00573185
0.00555014
-0.0456117
0.0469615
0.00553295
0.00576939
-0.048502
0.050164
0.00443591
0.00511923
-0.0519074
0.0536528
0.00252374
0.0035817
-0.0553614
0.0569588
6.66235e-05
0.00134137
-0.0584217
0.0596851
-0.00254653
-0.00126508
-0.0607374
0.0615549
-0.00489228
-0.00379594
-0.0621435
0.0625087
-0.00669811
-0.00590359
-0.0626734
0.0626628
-0.00785781
-0.00739244
-0.0625071
0.062238
-0.00841733
-0.00823977
-0.0618832
0.0614709
-0.00850503
-0.00854337
-0.0610214
0.0605551
-0.00826325
-0.00844638
-0.0600844
0.0596221
-0.00781068
-0.00808274
-0.0591742
0.0587479
-0.00723217
-0.00755477
-0.0583454
0.0579702
-0.00658283
-0.00693178
-0.0576221
0.0573031
-0.00589646
-0.00625711
-0.0570122
0.0567516
-0.00519336
-0.0055564
-0.0558387
0.0549245
-0.00527929
-0.00551449
-0.0545203
0.0541939
-0.00584909
-0.00636467
0.00541453
-0.00555218
0.0541766
-0.00515159
0.00473539
0.054855
0.0552436
-0.00486961
0.00441333
0.0551559
0.0551376
-0.00464443
0.00488872
0.0534468
0.0546535
-0.00510578
0.00522978
0.0509372
0.0523989
-0.00519001
0.0049353
0.049391
0.0500851
-0.00446419
0.00383351
0.050625
0.0498162
0.0513252
-0.0548078
-0.00147376
0.0555869
0.0550694
-0.0559259
0.00105995
0.0002429
0.0556813
-0.0551601
0.00296233
0.00193065
0.0546684
-0.0542043
0.00337383
0.00315729
0.0537868
-0.0534149
0.00353598
0.0034441
0.0531007
-0.0528406
0.00343985
0.00347775
0.0526383
-0.0524857
0.00309091
0.00325772
0.0523775
-0.0523008
0.00249271
0.00279021
0.0522436
-0.0521921
0.00163457
0.00207233
0.0521357
-0.0520669
0.000495136
0.00108626
0.0519855
-0.0518952
-0.000934966
-0.000189829
0.0518075
-0.0517348
-0.00261931
-0.0017363
0.0516934
-0.0516966
-0.00449789
-0.00351161
0.0517554
-0.0518791
-0.00650316
-0.00544482
0.0520713
-0.0523399
-0.00858958
-0.00747861
0.052684
-0.0531134
-0.0107329
-0.00957974
0.0536251
-0.0542319
-0.0129154
-0.0117297
0.0549283
-0.0557264
-0.0151042
-0.0139063
0.0566152
-0.0576004
-0.0172265
-0.016061
0.0586523
-0.0597654
-0.0191314
-0.0180876
0.0608847
-0.0606452
-0.0205273
-0.0197796
0.0607518
-0.0621386
-0.0195458
-0.0207586
0.0610398
-0.0589719
-0.0212368
-0.019909
-0.0238346
-0.00526917
0.0539109
0.0115333
-0.0252917
-0.00897918
-0.0175514
0.00280298
-0.0476557
-0.00218053
-0.0417796
0.0046826
0.0118047
-0.0273498
-0.00383326
-0.0134247
0.0118471
-0.0292451
0.00108185
-0.0138963
0.0108421
-0.0313085
0.00440008
-0.0204427
0.0101083
-0.0349478
0.00540159
-0.0313762
0.0091732
-0.0384396
0.0055893
-0.047607
0.0146587
-0.0657118
-0.0184448
0.00446359
-0.0579411
-0.0147644
0.012529
-0.0634765
0.0536467
-0.054524
-0.00497183
0.0561327
-0.0560188
-0.00158761
0.00121191
0.0570409
-0.0021201
0.0530805
-0.00470296
0.000570214
0.0562286
-0.0210974
-0.00420616
0.00480113
-0.0482507
0.0518671
-0.0518567
-0.00421652
-0.0513755
0.0514098
-0.000994298
-0.00168888
-0.0509776
0.0507076
0.00150606
0.000868328
-0.0501457
0.0499159
0.00388361
0.00317606
-0.0500807
0.0504336
0.00478207
0.00444227
-0.0509862
0.0517372
0.00498081
0.00499758
-0.0526824
0.0537834
0.0044319
0.00482424
-0.0550135
0.0563108
0.0031386
0.00388916
-0.0576385
0.0589281
0.00123414
0.00225395
-0.060143
0.0612379
-0.00102825
0.00012648
-0.0621688
0.062909
-0.00328677
-0.00219594
-0.0634522
0.0637922
-0.00523223
-0.00433916
-0.0639413
0.0639165
-0.00667323
-0.00605275
-0.0637418
0.0634458
-0.00756188
-0.00721776
-0.0630548
0.0625975
-0.0079601
-0.00784868
-0.0620949
0.0615698
-0.00797997
-0.00804076
-0.0610355
0.0605073
-0.00773503
-0.00791207
-0.0599919
0.0594982
-0.007317
-0.00756729
-0.0590286
0.0585878
-0.00679136
-0.00708521
-0.0581758
0.0577945
-0.00620155
-0.00651975
-0.0574431
0.0571218
-0.00557521
-0.00590571
-0.0568303
0.0565666
-0.00492967
-0.00526481
-0.0559196
0.0551153
-0.00447499
-0.00486751
-0.00577337
-0.0431838
0.00620527
-0.00571496
0.00678356
-0.0493193
-0.0524351
-0.00513658
-0.00435379
0.00443959
0.0540908
0.00451403
-0.00455737
0.0531239
0.0540712
-0.00432998
0.00428692
0.0548981
0.0553532
-0.00379731
0.00401027
0.0549429
0.0556272
-0.00426007
0.00452342
0.0531835
0.0544037
-0.00474972
0.00486432
0.0508226
0.0521726
-0.00479646
0.00450498
0.0496825
0.050153
-0.00400057
0.00335006
0.0512755
0.0503206
-0.00206407
0.000675451
0.0546201
0.0526111
0.0553053
0.0567682
-0.057131
0.00142274
0.000992329
0.0574205
-0.0569909
0.00253277
0.00222011
0.0565694
-0.0561571
0.00296149
0.0027358
0.0557696
-0.0554044
0.00317078
0.00305664
0.0550721
-0.0547663
0.00313409
0.00314538
0.0544913
-0.0542375
0.00283705
0.00298274
0.0540038
-0.0537792
0.00226815
0.00255655
0.0535619
-0.0533435
0.00141616
0.00185503
0.0531268
-0.05291
0.000278352
0.000869488
0.0527056
-0.0525161
-0.00112443
-0.000394248
0.0523567
-0.0522368
-0.00273925
-0.00189566
0.052168
-0.0521578
-0.0045081
-0.00358045
0.0522126
-0.0523381
-0.00637764
-0.00539
0.0525358
-0.0528123
-0.0083131
-0.0072809
0.0531662
-0.0536071
-0.010292
-0.00922581
0.054132
-0.0547541
-0.0122933
-0.0112048
0.0554681
-0.0562895
-0.0142828
-0.0131924
0.0572093
-0.0582419
-0.0161938
-0.0151412
0.0593683
-0.0605948
-0.0179049
-0.0169612
0.0618842
-0.0632119
-0.0191995
-0.0184902
0.0645175
-0.0643393
-0.019724
-0.0194531
0.0648228
-0.0658149
-0.0202447
-0.0194254
0.0681389
-0.0728795
-0.0198965
-0.0215105
0.073465
-0.0820434
-0.00618598
-0.0178592
-0.037202
-0.0479098
0.00306839
-0.0126437
0.026689
-0.0512473
-0.0597955
-0.000757949
0.00904482
-0.0225318
-0.0063073
-0.0150773
-0.00209028
0.000333553
0.0579853
-0.00196177
0.0569123
0.00895795
-0.0244607
-0.000710186
-0.0116327
0.00865695
-0.02706
0.00405161
-0.0135479
0.00822055
-0.0294208
0.00683861
-0.0218797
0.00667222
-0.0324468
0.00706556
-0.0337592
0.00581244
-0.0386627
0.00534342
-0.0484868
0.00760447
-0.0530165
0.0114827
-0.0482702
-0.0443475
0.00794728
0.00775112
-0.053175
-0.00701126
0.00864274
-0.0502109
-0.00893374
0.0097028
-0.053944
0.0537002
-0.0529475
-0.00531009
-0.00252674
0.00529229
-0.0540129
-0.00470849
0.00396926
0.0538631
-0.0566049
-0.00571736
-0.00420105
0.0531928
-0.0183599
-0.0550578
0.0545341
-0.00648749
-0.00811046
-0.0544319
0.0538931
-0.00367773
-0.00503443
-0.0543475
0.0543627
-0.00100948
-0.00214325
-0.0543181
0.0538757
0.00194849
0.00091287
-0.0542402
0.0546642
0.00345963
0.00281159
-0.0551537
0.0557209
0.00421493
0.0039527
-0.0563866
0.0571448
0.00422262
0.00433184
-0.0579976
0.0589163
0.00351325
0.00397141
-0.0598834
0.0608531
0.00216894
0.00292204
-0.0617963
0.0626634
0.000366984
0.00131073
-0.0634399
0.064069
-0.0016574
-0.00064996
-0.0645438
0.0648488
-0.00359176
-0.00267074
-0.0649858
0.0649615
-0.00520793
-0.00447615
-0.0647914
0.0644976
-0.00637945
-0.00588265
-0.0641017
0.0636308
-0.00709096
-0.00682184
-0.0631047
0.0625474
-0.00740283
-0.00732256
-0.0619728
0.0613985
-0.00740565
-0.0074662
-0.060832
0.0602844
-0.00718744
-0.00734556
-0.0597587
0.059261
-0.00681931
-0.00704151
-0.0587915
0.0583533
-0.00635321
-0.00661571
-0.0579453
0.0575687
-0.00582493
-0.00611173
-0.057222
0.0569051
-0.00525836
-0.005559
-0.0566172
0.0563567
-0.00466911
-0.0049769
-0.0558677
0.0558179
-0.00442518
-0.00437855
-0.0544194
0.0540195
-0.0045719
-0.00437487
-0.00363102
-0.0041283
0.00364242
0.0545767
0.0539121
-0.00381183
0.00321891
0.055491
0.0551838
-0.00339817
0.00362182
0.0547193
0.0554479
-0.00388688
0.00415985
0.0529105
0.0541387
-0.00438042
0.00446907
0.050734
0.051952
-0.00435961
0.00402404
0.050018
0.0502625
-0.00348573
0.00281995
0.0519412
0.0508589
-0.00153621
0.00061091
0.0555454
0.0538949
0.0562498
-0.0561602
-0.00311382
0.0573123
0.057849
-0.0591222
-0.000314367
-0.000431343
0.0586465
-0.0588457
0.0016219
0.000516618
0.0585122
-0.0581572
0.00217779
0.00188662
0.0577932
-0.0574192
0.00258742
0.00237181
0.0570484
-0.0566774
0.00279979
0.0026859
0.0563167
-0.0559599
0.00277726
0.00278465
0.0556142
-0.0552715
0.00249437
0.00263702
0.0549375
-0.0546047
0.00193539
0.00222253
0.0542802
-0.05396
0.00109596
0.0015305
0.0536548
-0.0533652
-1.11723e-05
0.000564284
0.0531063
-0.0528809
-0.00134981
-0.000653201
0.0527016
-0.0525734
-0.00286749
-0.00207496
0.0525051
-0.0525005
-0.00451269
-0.00364876
0.0525635
-0.0526984
-0.00624276
-0.00532697
0.0529056
-0.0531913
-0.00802736
-0.00707374
0.0535539
-0.0540029
-0.00984304
-0.00886321
0.0545348
-0.0551626
-0.0116655
-0.0106728
0.0558808
-0.056705
-0.0134586
-0.0124742
0.0576259
-0.0586596
-0.0151602
-0.0142203
0.0597899
-0.0610289
-0.0166659
-0.0158308
0.0623466
-0.0637419
-0.0178041
-0.0171726
0.0651668
-0.0665852
-0.0183056
-0.0180282
0.06791
-0.0702605
-0.0178941
-0.0181007
0.072445
-0.0750386
-0.0173029
-0.019326
0.0796449
-0.0749543
-0.0108766
-0.0132529
0.0667785
-0.063131
-0.0044054
-0.00510743
0.00994214
-0.00344718
-0.0630999
0.0643819
-0.0486978
-0.00574187
-0.0044665
0.00599112
-0.019565
-0.00315299
-0.0126345
0.00556019
-0.0213639
0.00267419
-0.0102553
0.00504033
-0.0238798
0.00711723
-0.0138265
0.00440539
-0.027154
0.00876305
-0.0235772
0.00381497
-0.0304493
0.00810623
-0.0356602
0.002559
-0.0358783
0.00241607
-0.0432984
0.00459718
-0.046131
0.00408123
-0.0470591
-0.00206602
-0.0553941
-0.0131453
0.0498425
-0.0853951
-0.00630666
-0.0699386
0.0580966
-0.0126864
-0.0590693
0.0136591
-0.0456854
0.00998061
0.0105998
-0.0511079
0.0116937
-0.0554828
-0.00426298
0.00429316
0.0538329
0.0531438
-0.0541232
-0.00433072
0.0567242
-0.0578915
-0.00194656
0.00287268
0.0560979
-0.00224638
0.00211844
0.0580665
0.0536713
-0.00472852
-0.00493812
0.0538679
-0.0155218
-0.0572726
0.0567895
-0.00950613
-0.0112473
-0.0564213
0.0560499
-0.00611605
-0.00774227
-0.0558458
0.055752
-0.0035839
-0.00483041
-0.055456
0.0550822
-0.000635672
-0.00184729
-0.0555472
0.0561037
0.00139205
0.000447863
-0.0567247
0.0573884
0.00279594
0.0021906
-0.0580963
0.058833
0.00347824
0.00324481
-0.0596047
0.060395
0.00343227
0.0035601
-0.061203
0.0620027
0.00271355
0.00316344
-0.062782
0.0635074
0.00144348
0.00214278
-0.0641619
0.0647198
-0.000190911
0.000656301
-0.0651542
0.0654504
-0.00195361
-0.00108441
-0.0656041
0.065614
-0.00360167
-0.00282441
-0.0654875
0.0652388
-0.00495926
-0.00434964
-0.0648835
0.0644444
-0.00594032
-0.00552734
-0.0639387
0.0633898
-0.00654209
-0.00631611
-0.0628117
0.0622234
-0.00681455
-0.00674444
-0.0616335
0.0610555