/*--------------------------------*- C++ -*----------------------------------*\
  =========                 |
  \\      /  F ield         | OpenFOAM: The Open Source CFD Toolbox
   \\    /   O peration     | Website:  https://openfoam.org
    \\  /    A nd           | Version:  10
     \\/     M anipulation  |
\*---------------------------------------------------------------------------*/
FoamFile
{
    format      ascii;
    class       volVectorField;
    location    "13";
    object      U;
}
// * * * * * * * * * * * * * * * * * * * * * * * * * * * * * * * * * * * * * //

dimensions      [0 1 -1 0 0 0 0];

internalField   nonuniform List<vector> 
14667
(
(1.03751 0.0665988 -1.08035e-19)
(0.887771 0.0444763 -4.48378e-20)
(0.573293 0.0249723 -3.25288e-21)
(0.693119 0.021953 4.88355e-22)
(0.676771 0.0234815 9.6633e-22)
(0.991086 -0.0891717 -2.63343e-20)
(1.033 -0.0818496 5.78462e-20)
(0.452028 0.0376923 -1.50009e-21)
(0.539401 0.0276438 0)
(0.666841 0.0260384 -2.93095e-22)
(1.03703 -0.0666648 -2.51973e-20)
(1.02544 -0.039277 1.35351e-20)
(0.986108 -0.0231219 -3.40425e-20)
(0.886403 -0.0751977 1.00719e-19)
(0.500702 0.022786 -2.40952e-21)
(1.01838 -0.0305317 0)
(1.01868 -0.0289727 0)
(0.615913 0.0114386 -8.54085e-22)
(0.367228 0.0135829 0)
(1.04005 -0.0580461 0)
(1.05603 0.0848918 -7.66667e-20)
(0.885547 -0.00306176 5.64875e-20)
(0.99739 0.0158719 0)
(1.00134 0.0404283 3.61278e-21)
(0.00249012 -0.0977397 6.32484e-20)
(0.353723 -0.104706 2.13656e-19)
(-0.0313212 -0.0603262 6.41971e-20)
(-0.123036 -0.11863 -2.45997e-19)
(-0.122855 -0.111653 4.53471e-21)
(0.805703 0.0768897 1.61113e-20)
(0.856861 0.0488058 -1.50583e-21)
(0.871577 0.0211226 -4.50759e-20)
(-0.036855 0.0262286 1.22812e-20)
(-0.066716 0.0165683 6.55559e-20)
(-0.146007 0.00282821 6.96098e-20)
(0.00715379 0.0125323 -1.06047e-19)
(0.0250294 0.062276 -1.48476e-21)
(0.47563 -0.0559967 1.49085e-21)
(0.471546 -0.0327761 1.14279e-21)
(0.604758 -0.0207049 -1.58861e-22)
(0.593783 -0.0158377 0)
(0.484783 0.00857678 -1.52279e-20)
(0.546737 -0.21347 5.20131e-19)
(0.605543 -0.092327 -1.70624e-19)
(0.42509 -0.0580896 -1.19528e-19)
(0.349027 -0.269707 8.02799e-20)
(0.573694 -0.430115 -8.33704e-21)
(0.935278 0.140641 -7.85163e-20)
(0.972164 0.139593 2.42911e-20)
(0.609389 0.158412 0)
(0.583411 0.149705 0)
(0.731844 0.0176995 0)
(0.792372 -0.00244134 0)
(0.848986 -0.00280817 -7.86208e-20)
(1.36975 -0.283892 2.33452e-20)
(1.40488 -0.257965 1.38398e-20)
(1.27466 0.263983 2.99646e-20)
(1.35365 0.263312 1.99549e-20)
(0.135304 0.158586 -2.58533e-20)
(0.262608 0.125197 2.07295e-20)
(-0.107478 -0.0852964 1.83727e-19)
(-0.101051 -0.0779385 0)
(0.983123 -0.48251 -6.13311e-21)
(0.996592 -0.403799 -5.50053e-20)
(0.916902 -0.357134 -4.80568e-21)
(0.862612 -0.623426 -8.78285e-21)
(0.939463 -0.554275 4.63113e-20)
(0.471004 0.673857 5.9221e-20)
(0.769956 0.702061 -2.90808e-20)
(0.901344 0.0278373 4.03654e-20)
(0.920137 0.0117082 -3.69496e-20)
(0.924367 0.0362228 -4.0499e-20)
(0.142725 -0.0255242 0)
(0.143133 -0.258725 4.04165e-20)
(0.640898 0.165442 3.29409e-20)
(0.847374 0.136646 4.77413e-20)
(1.0131 0.123499 -1.54383e-19)
(0.91647 0.143784 9.31133e-20)
(0.909711 -0.00645495 2.12018e-19)
(0.895298 -0.038223 -9.02282e-24)
(0.688569 -0.012896 -7.40801e-22)
(0.76558 -0.0115428 0)
(0.697889 -0.0156097 1.30255e-21)
(0.877662 0.0204909 -2.20588e-22)
(0.876517 0.0214737 0)
(-0.141023 0.0690594 0)
(-0.212775 0.101907 -8.8702e-20)
(0.307934 0.162154 1.34684e-20)
(0.491029 0.131638 -7.85953e-20)
(1.03897 -0.162313 -3.99355e-20)
(1.23388 -0.17364 5.47264e-20)
(1.09826 -0.227165 -2.30399e-23)
(1.08112 -0.194469 5.37648e-22)
(1.00631 -0.145452 -1.29856e-21)
(1.04191 -0.152237 6.38686e-22)
(0.857605 0.346666 -1.94707e-21)
(0.800464 0.336375 -1.46508e-21)
(1.00773 0.446031 1.39441e-21)
(0.928952 0.431217 -2.01958e-21)
(1.07312 0.435867 5.28394e-21)
(0.985306 0.420628 -1.90956e-21)
(1.44906 -0.319791 6.38093e-21)
(1.44114 -0.258599 4.32025e-20)
(0.929391 0.122552 7.1156e-21)
(0.909494 0.0966033 -2.52246e-20)
(0.935874 0.079873 3.2874e-21)
(0.955578 0.102123 3.16334e-21)
(0.957762 0.165826 2.20011e-20)
(0.947498 0.13719 4.6581e-22)
(0.406661 -0.0155362 5.66027e-22)
(0.246771 -0.00982296 -7.13751e-23)
(0.268308 -0.00527126 -9.72882e-22)
(0.430498 -0.00935093 0)
(0.53038 -0.0242552 1.40816e-21)
(0.544227 -0.0162363 -5.75203e-22)
(1.23368 -0.13023 -1.23051e-20)
(1.25355 -0.143266 3.11372e-20)
(1.24168 -0.131149 0)
(0.365642 -0.0341758 -1.27529e-21)
(0.279761 -0.0322011 -4.86183e-22)
(0.419671 -0.0250442 -2.27035e-22)
(0.997085 -0.144634 5.71771e-22)
(1.03342 -0.153318 -2.74247e-21)
(1.01789 -0.151196 1.40696e-21)
(1.00875 -0.147817 -1.51518e-21)
(0.97203 -0.135359 0)
(0.98385 -0.140967 -3.23188e-22)
(0.998167 -0.14262 4.12011e-21)
(0.976466 -0.131761 -2.00277e-21)
(0.937971 -0.114698 0)
(0.962216 -0.128746 0)
(0.956519 -0.118272 0)
(0.931592 -0.100409 1.69642e-21)
(0.89209 -0.077912 0)
(0.917963 -0.0987128 0)
(0.905617 -0.0787276 -1.70489e-21)
(0.877011 -0.0529416 0)
(0.840144 -0.0256255 0)
(0.867066 -0.0536538 0)
(0.847851 -0.023743 1.55211e-21)
(0.819005 0.00721829 -1.54092e-21)
(0.787823 0.0394038 0)
(0.813745 0.0057853 0)
(0.791551 0.0397455 0)
(0.765491 0.0739152 -2.20394e-21)
(0.746558 0.104291 -5.6463e-25)
(0.765051 0.0724 0)
(0.743267 0.107556 2.21828e-21)
(0.725846 0.139491 0)
(0.727286 0.161966 0)
(0.733758 0.134523 0)
(0.714112 0.168471 -2.86783e-24)
(0.707907 0.19392 0)
(0.734015 0.205465 0)
(0.727548 0.185802 0)
(0.704777 0.21897 -5.6707e-21)
(0.704264 0.240081 4.99314e-21)
(0.758313 0.236088 5.89552e-22)
(0.745133 0.220956 0)
(0.7104 0.257118 0)
(0.726094 0.270301 0)
(0.789829 0.264363 9.92934e-22)
(0.772626 0.249686 -6.35015e-22)
(0.732028 0.283329 -1.25494e-21)
(0.741773 0.296797 -1.2427e-21)
(0.80528 0.29973 1.21951e-21)
(0.795679 0.281775 -1.36117e-21)
(0.80638 0.318518 -2.30217e-21)
(0.743041 0.310457 2.34559e-21)
(1.01389 -0.144391 8.45731e-23)
(1.04759 -0.14941 -5.57189e-22)
(0.737223 0.323495 1.66894e-23)
(0.977673 -0.137628 -4.69861e-22)
(0.9839 -0.136891 9.16932e-22)
(1.01931 -0.141883 5.03995e-24)
(1.07612 -0.157499 0)
(1.08037 -0.152846 5.87265e-22)
(0.673072 0.30378 5.73694e-22)
(0.667369 0.284667 3.01301e-21)
(0.671142 0.29536 -1.18723e-21)
(0.664734 0.256496 -2.34544e-21)
(0.666473 0.27264 2.41293e-21)
(0.683193 0.213762 0)
(0.670311 0.236915 0)
(0.710074 0.155016 2.4431e-24)
(0.693584 0.186251 0)
(0.760112 0.0831742 -7.41773e-25)
(0.732585 0.12031 0)
(0.825091 0.00756475 0)
(0.79138 0.0451087 0)
(0.89308 -0.0580348 -1.33089e-24)
(0.859618 -0.0274611 0)
(0.953381 -0.107986 -1.09379e-25)
(0.924573 -0.0850186 0)
(1.00174 -0.14101 0)
(0.979392 -0.126737 0)
(1.03669 -0.15782 -6.28649e-26)
(1.02146 -0.151433 0)
(1.05862 -0.161766 0)
(1.05118 -0.161218 0)
(1.07121 -0.161004 1.45089e-21)
(1.08355 -0.147304 5.84383e-22)
(1.05316 -0.145386 -6.02795e-22)
(0.95861 -0.133722 2.5577e-22)
(0.970022 -0.136909 0)
(0.930266 -0.119827 2.90258e-23)
(0.94406 -0.127584 2.75193e-22)
(0.892909 -0.0942144 0)
(0.913369 -0.109284 9.40008e-24)
(0.849113 -0.0549835 0)
(0.872019 -0.0764537 0)
(0.805448 -0.00464267 0)
(0.827024 -0.0310136 0)
(0.771693 0.0511344 0)
(0.786948 0.022858 0)
(0.756108 0.105228 0)
(0.761145 0.0790087 0)
(0.764688 0.149969 0)
(0.757379 0.128967 0)
(0.792418 0.185814 0)
(0.777051 0.168616 0)
(0.823447 0.220058 6.42213e-22)
(0.808591 0.202621 0)
(0.847859 0.258906 -3.38811e-22)
(0.836552 0.238937 -4.05943e-24)
(0.859652 0.302435 1.1844e-21)
(0.853793 0.280566 0)
(0.861143 0.325411 2.6911e-21)
(1.02358 -0.13816 3.68118e-22)
(0.988933 -0.13475 -7.63188e-23)
(0.665712 0.31085 -4.93837e-22)
(0.790417 0.351442 9.22751e-22)
(1.10724 -0.147431 0)
(1.10683 -0.139835 -1.3573e-22)
(1.0852 -0.140657 -1.41674e-22)
(0.850451 0.365456 0)
(0.602704 0.29644 5.69877e-22)
(0.616919 0.280159 4.17617e-22)
(0.609579 0.290389 0)
(0.6408 0.247214 1.90314e-21)
(0.62758 0.266386 -2.19013e-21)
(0.681363 0.197942 0)
(0.65948 0.225227 -7.44906e-22)
(0.739529 0.128699 -1.66405e-24)
(0.708117 0.164929 0)
(0.812205 0.0514097 3.77714e-25)
(0.774743 0.0904028 0)
(0.88734 -0.0226481 2.81088e-25)
(0.850217 0.0133266 0)
(0.956391 -0.0851555 2.19295e-25)
(0.923062 -0.0557571 0)
(1.01276 -0.130389 -1.403e-25)
(0.986488 -0.110096 0)
(1.05384 -0.157384 0)
(1.03527 -0.146023 0)
(1.08076 -0.168768 -6.5715e-26)
(1.06905 -0.164705 0)
(1.09613 -0.168501 0)
(1.08993 -0.16968 0)
(1.10403 -0.160296 8.75242e-25)
(1.10179 -0.165272 -7.69678e-23)
(1.10632 -0.154365 -9.1554e-22)
(1.05636 -0.140102 1.14764e-24)
(0.957403 -0.129605 -1.35722e-22)
(0.943247 -0.12924 -4.65324e-22)
(0.951379 -0.130315 -2.96046e-22)
(0.922153 -0.121347 -1.4311e-22)
(0.934313 -0.126592 1.53055e-22)
(0.893377 -0.103639 -6.49302e-25)
(0.907538 -0.113322 -9.91659e-24)
(0.858665 -0.0747185 0)
(0.875983 -0.0906243 0)
(0.823792 -0.0351933 0)
(0.840878 -0.0562423 0)
(0.79576 0.0119469 0)
(0.808504 -0.0123252 0)
(0.783143 0.0598855 0)
(0.787034 0.0363595 0)
(0.791919 0.101746 0)
(0.784811 0.08182 0)
(0.819601 0.136131 0)
(0.80398 0.11967 0)
(0.854036 0.168742 0)
(0.837 0.152093 0)
(0.881433 0.207756 0)
(0.869138 0.187136 0)
(0.897438 0.254294 -3.19934e-22)
(0.890634 0.230366 3.13281e-22)
(0.906903 0.303905 -1.72576e-21)
(0.903162 0.278972 0)
(0.908979 0.352624 9.33643e-22)
(0.907842 0.329093 -1.46605e-21)
(0.840737 0.380398 3.14508e-22)
(0.903289 0.393169 -2.67745e-22)
(0.905278 0.374464 1.02998e-22)
(0.593258 0.299191 -3.13753e-24)
(0.726747 0.333838 1.00352e-21)
(0.774183 0.362008 -2.44939e-22)
(1.08484 -0.133512 1.42195e-22)
(0.82836 0.390624 0)
(0.895523 0.407281 -1.90682e-22)
(1.10546 -0.131775 2.76e-22)
(0.936783 -0.122494 0)
(1.1246 -0.145868 2.59624e-22)
(1.1225 -0.137502 8.22296e-24)
(0.944681 -0.121326 0)
(0.962368 -0.127669 1.40963e-22)
(0.579355 0.298029 -2.11616e-21)
(0.655207 0.315291 0)
(0.518129 0.279204 5.72118e-22)
(0.556873 0.282966 -7.1426e-22)
(0.538451 0.283704 -3.15867e-22)
(0.597153 0.265538 5.82485e-23)
(0.576011 0.276552 -5.47412e-22)
(0.64935 0.226672 1.31788e-23)
(0.621363 0.248763 -1.20018e-23)
(0.717213 0.166419 0)
(0.681369 0.199256 -8.16525e-23)
(0.797613 0.0903775 3.69568e-25)
(0.756333 0.129598 0)
(0.881503 0.0104699 3.65766e-25)
(0.839795 0.0501729 0)
(0.95871 -0.0614558 -2.81088e-25)
(0.921532 -0.0272238 0)
(1.0225 -0.116797 1.31812e-25)
(0.992549 -0.091395 0)
(1.0697 -0.153489 -8.47278e-26)
(1.04827 -0.137478 0)
(1.10057 -0.172591 0)
(1.08708 -0.165047 0)
(1.11792 -0.177542 -8.54931e-25)
(1.1108 -0.176542 0)
(1.12529 -0.172445 0)
(1.12282 -0.175957 0)
(1.12661 -0.160992 4.80451e-23)
(1.12678 -0.167287 -1.91466e-22)
(1.12592 -0.153747 1.28649e-23)
(1.02431 -0.133514 2.77607e-22)
(1.05692 -0.134174 0)
(0.990993 -0.131544 -1.41288e-22)
(0.918656 -0.119605 3.01971e-22)
(0.928225 -0.122031 0)
(0.896051 -0.108535 0)
(0.908171 -0.115297 0)
(0.870312 -0.0886114 6.49434e-25)
(0.883436 -0.0996617 0)
(0.843903 -0.0594407 0)
(0.856687 -0.0750821 0)
(0.822485 -0.0228187 0)
(0.832084 -0.0418602 0)
(0.812932 0.0171042 0)
(0.815816 -0.00292924 0)
(0.820737 0.0550359 0)
(0.8145 0.0366263 0)
(0.845539 0.0878797 1.11738e-24)
(0.831406 0.0720566 0)
(0.878603 0.118711 1.18516e-24)
(0.861839 0.103121 0)
(0.907825 0.154513 0)
(0.894326 0.135597 0)
(0.92726 0.199246 0)
(0.918735 0.175791 0)
(0.939335 0.250196 0)
(0.933963 0.224281 0)
(0.948066 0.303162 -2.44481e-22)
(0.9442 0.276579 0)
(0.95489 0.35448 0)
(0.951052 0.329111 9.36686e-22)
(0.958441 0.399471 -2.26375e-22)
(0.955721 0.378184 6.52457e-23)
(0.95265 0.429239 -5.78329e-22)
(0.957223 0.41702 0)
(0.706673 0.339611 6.27056e-22)
(0.558075 0.291757 1.29018e-21)
(0.49488 0.268636 -8.38207e-22)
(0.966501 -0.124409 0)
(0.952302 -0.118492 1.22162e-22)
(0.75773 0.367825 -4.3096e-22)
(0.884844 0.415789 2.05967e-22)
(0.811706 0.394952 0)
(0.867825 0.416751 0)
(1.12007 -0.128996 -3.82537e-22)
(0.944104 0.434686 5.81613e-22)
(0.634413 0.315194 3.64053e-22)
(0.468184 0.252337 8.27522e-22)
(0.441535 0.223589 1.1124e-21)
(0.499431 0.253853 -3.28818e-22)
(0.471005 0.241724 6.62066e-22)
(0.557218 0.257753 -4.39592e-22)
(0.528488 0.258576 8.64274e-22)
(0.62189 0.236477 3.44848e-24)
(0.588377 0.250017 0)
(0.698549 0.190426 -1.17484e-24)
(0.658658 0.21644 0)
(0.785819 0.123441 0)
(0.741215 0.15903 0)
(0.876698 0.0455913 2.90336e-25)
(0.831413 0.085112 0)
(0.961687 -0.0309138 0)
(0.920519 0.00641442 0)
(1.03275 -0.0955073 -4.34574e-26)
(0.999353 -0.0652258 0)
(1.08583 -0.142095 2.45159e-25)
(1.06163 -0.121186 0)
(1.12072 -0.170007 -4.53486e-25)
(1.10546 -0.158288 0)
(1.13992 -0.181694 0)
(1.13207 -0.177637 0)
(1.14739 -0.181175 -7.63884e-25)
(1.14489 -0.182678 0)
(1.14714 -0.172497 0)
(1.14808 -0.177605 4.98555e-29)
(1.14252 -0.158938 1.54118e-23)
(1.14536 -0.166142 0)
(1.13614 -0.142774 -1.32003e-22)
(1.13951 -0.15107 1.30992e-22)
(1.12923 -0.125384 4.9947e-22)
(1.13275 -0.134144 1.33358e-22)
(1.11772 -0.120173 2.48272e-22)
(1.08392 -0.125919 -1.38337e-22)
(1.10408 -0.123372 -1.28458e-22)
(1.02508 -0.128313 0)
(1.05684 -0.127677 0)
(0.992928 -0.127488 -1.35453e-22)
(0.955258 -0.109631 -2.29701e-22)
(0.933324 -0.113279 -6.38665e-23)
(0.944096 -0.112403 -1.1849e-22)
(0.912533 -0.109136 0)
(0.922864 -0.112296 -7.19699e-23)
(0.89115 -0.0970087 0)
(0.901802 -0.104105 0)
(0.870833 -0.0771105 0)
(0.880717 -0.0880163 0)
(0.85478 -0.0502375 0)
(0.861947 -0.0644082 0)
(0.847801 -0.0189228 0)
(0.849811 -0.0349087 0)
(0.854137 0.0131168 0)
(0.849154 -0.00275419 0)
(0.874398 0.0430421 0)
(0.862726 0.0284103 0)
(0.90288 0.0718085 -1.11738e-24)
(0.888221 0.0573146 0)
(0.929922 0.104354 -1.18516e-24)
(0.917144 0.0872607 0)
(0.949341 0.14485 0)
(0.94068 0.12352 0)
(0.962351 0.192947 0)
(0.956364 0.168138 0)
(0.973321 0.245273 0)
(0.967897 0.218792 0)
(0.984303 0.298972 2.38501e-22)
(0.978779 0.272094 0)
(0.995787 0.351928 0)
(0.990073 0.325719 0)
(1.00669 0.399694 0)
(1.00135 0.376855 -6.19897e-23)
(1.01306 0.434993 -1.05607e-21)
(1.01128 0.419514 -2.64848e-22)
(1.0136 0.444345 1.84395e-21)
(1.12588 -0.116541 -6.09087e-22)
(0.685521 0.340399 -7.57471e-23)
(0.533089 0.280314 -1.04372e-21)
(0.734885 0.367345 2.76344e-23)
(0.411228 0.197431 -7.30397e-22)
(0.436927 0.228633 0)
(0.78683 0.390493 6.12399e-22)
(0.976693 -0.0983274 4.79661e-22)
(0.990896 -0.0934567 -1.03138e-22)
(0.967314 -0.105076 2.86378e-22)
(0.842976 0.407432 2.00583e-21)
(0.911574 0.418374 -1.10858e-21)
(1.13399 -0.121157 0)
(1.12984 -0.112395 0)
(0.999777 0.438373 3.13958e-21)
(0.610418 0.310084 1.91488e-23)
(0.37997 0.164537 -1.36201e-23)
(0.420503 0.137497 1.36011e-23)
(0.47433 0.193344 4.88021e-23)
(0.446119 0.16843 0)
(0.538375 0.221684 -4.25778e-22)
(0.505749 0.210706 0)
(0.610998 0.222355 0)
(0.574227 0.225161 8.41585e-23)
(0.692256 0.195934 0)
(0.650362 0.212461 0)
(0.782974 0.144661 0)
(0.736677 0.17307 0)
(0.877705 0.0759184 -3.82069e-26)
(0.830358 0.111803 0)
(0.967872 0.00100658 -2.67866e-25)
(0.923961 0.0384651 0)
(1.04496 -0.0684247 0)
(1.00851 -0.0350525 0)
(1.10347 -0.123628 -5.59075e-26)
(1.07673 -0.0981836 0)
(1.14213 -0.160601 -1.40578e-25)
(1.12521 -0.144437 0)
(1.16312 -0.180061 3.8438e-25)
(1.15462 -0.172349 0)
(1.17047 -0.185351 0)
(1.16822 -0.184215 0)
(1.16874 -0.180614 7.63884e-25)
(1.17048 -0.183978 0)
(1.16183 -0.169547 0)
(1.16574 -0.175666 -4.98554e-29)
(1.15256 -0.154876 0)
(1.15738 -0.162518 0)
(1.14293 -0.138409 1.11417e-22)
(1.14772 -0.146777 0)
(1.13836 -0.129831 -2.2352e-22)
(1.11448 -0.111496 0)
(1.12593 -0.10384 -1.07652e-22)
(1.12228 -0.107805 2.37778e-22)
(1.08171 -0.118139 -1.28888e-22)
(1.10127 -0.114994 1.25854e-22)
(1.02452 -0.122607 0)
(1.05525 -0.120836 0)
(0.970756 -0.120352 0)
(0.994311 -0.122774 0)
(0.960363 -0.114458 -3.55329e-22)
(0.950845 -0.102508 0)
(0.96329 -0.101416 0)
(0.929503 -0.0986183 0)
(0.939994 -0.101515 0)
(0.910922 -0.0874918 -6.84674e-25)
(0.919766 -0.0939471 0)
(0.896997 -0.0698295 0)
(0.903224 -0.0794098 0)
(0.890534 -0.0471549 0)
(0.892636 -0.058975 0)
(0.894288 -0.0218833 0)
(0.891017 -0.0346763 0)
(0.908784 0.00381093 0)
(0.900329 -0.00901659 0)
(0.930346 0.0299786 0)
(0.919074 0.0167327 0)
(0.952215 0.0593338 0)
(0.941708 0.0440088 0)
(0.968757 0.0953949 0)
(0.961313 0.0763908 0)
(0.979812 0.138914 0)
(0.974773 0.11632 0)
(0.989338 0.187712 1.05237e-24)
(0.9845 0.162834 1.34021e-28)
(1.0007 0.239322 0)
(0.994693 0.213272 0)
(1.01487 0.292418 -1.05254e-25)
(1.00743 0.265749 0)
(1.03159 0.345326 0)
(1.02298 0.319091 0)
(1.04996 0.394327 2.10276e-23)
(1.04076 0.370609 5.823e-23)
(1.06723 0.433131 9.81828e-22)
(1.05926 0.415549 2.20907e-22)
(1.07778 0.451472 -2.82784e-21)
(1.07472 0.445598 -1.1379e-21)
(1.07791 0.448694 -4.93939e-21)
(0.656943 0.334411 7.0054e-23)
(0.501031 0.261913 5.72899e-22)
(0.979111 -0.0992292 1.57161e-22)
(1.00566 -0.0869198 1.04186e-22)
(0.703488 0.357219 0)
(0.401863 0.19754 5.18061e-22)
(0.754507 0.375432 3.00228e-22)
(0.399015 0.100311 -5.71973e-23)
(0.349359 0.124016 5.70937e-23)
(0.817273 0.388705 2.70745e-21)
(0.886786 0.394374 2.00753e-21)
(1.12652 -0.0997333 -3.06072e-22)
(0.958841 0.389976 5.26268e-21)
(1.05698 0.411528 8.90776e-22)
(1.12228 -0.0952979 -1.05064e-22)
(1.12276 -0.0915808 0)
(0.57844 0.297911 0)
(0.383991 0.0586496 2.81086e-21)
(0.513284 0.0551715 -5.85375e-22)
(0.526948 0.118456 -1.13591e-21)
(0.515635 0.0882129 1.14746e-21)
(0.570277 0.16429 -2.12806e-22)
(0.546164 0.143943 0)
(0.633458 0.186002 -8.39428e-23)
(0.600726 0.178111 0)
(0.710384 0.181161 0)
(0.670637 0.186872 8.44485e-23)
(0.79761 0.149843 0)
(0.752911 0.168642 0)
(0.890622 0.0964537 3.30405e-25)
(0.843862 0.125445 0)
(0.981438 0.0297912 3.82069e-26)
(0.936893 0.0640865 0)
(1.06134 -0.0388302 5.50509e-25)
(1.02327 -0.00498763 0)
(1.12361 -0.0990061 2.75942e-25)
(1.09497 -0.0705135 0)
(1.16542 -0.143927 9.9365e-26)
(1.1471 -0.123618 0)
(1.18796 -0.171512 -1.79358e-26)
(1.1789 -0.159839 0)
(1.19513 -0.183622 5.89302e-27)
(1.19317 -0.179289 0)
(1.19177 -0.183965 0)
(1.19447 -0.18501 0)
(1.18234 -0.176415 0)
(1.18758 -0.180955 0)
(1.17021 -0.16411 0)
(1.17646 -0.170696 0)
(1.15756 -0.149209 0)
(1.16386 -0.156881 0)
(1.14572 -0.133072 -1.12066e-22)
(1.15151 -0.141246 0)
(1.13528 -0.116366 -2.13805e-22)
(1.14038 -0.124836 3.32842e-22)
(1.13079 -0.108166 0)
(1.11129 -0.102751 0)
(1.11884 -0.0990532 -1.10241e-22)
(1.07851 -0.110277 5.98262e-23)
(1.09816 -0.106508 -6.04031e-23)
(1.02301 -0.116527 0)
(1.05253 -0.113828 0)
(0.974665 -0.115122 0)
(0.994936 -0.117373 0)
(0.968389 -0.10903 -1.84726e-22)
(1.04314 -0.0738485 -8.7799e-23)
(1.01323 -0.0860045 1.15596e-22)
(1.028 -0.0807047 1.08629e-22)
(0.987673 -0.0910975 0)
(0.99951 -0.0895398 0)
(0.967281 -0.0889484 0)
(0.97708 -0.0908368 0)
(0.951853 -0.0803502 6.84674e-25)
(0.9589 -0.0854033 0)
(0.942996 -0.0662907 0)
(0.94652 -0.0739152 0)
(0.942184 -0.0482762 0)
(0.94154 -0.0576684 0)
(0.949602 -0.0278136 0)
(0.944954 -0.0382816 0)
(0.962924 -0.00534196 0)
(0.955789 -0.0168699 0)
(0.977469 0.020622 0)
(0.970387 0.00705018 0)
(0.988878 0.0523609 1.05716e-24)
(0.983737 0.0356563 0)
(0.996183 0.0909101 1.05942e-24)
(0.992945 0.0708144 0)
(1.00209 0.135071 0)
(0.999075 0.112428 0)
(1.01017 0.182704 -1.05237e-24)
(1.00569 0.158571 -1.34021e-28)
(1.02239 0.232389 0)
(1.01571 0.207339 0)
(1.03931 0.283504 -1.08581e-25)
(1.03025 0.257806 0)
(1.06096 0.334965 0)
(1.0496 0.309339 0)
(1.08634 0.383957 0)
(1.07331 0.36003 0)
(1.11329 0.424704 3.43277e-22)
(1.09999 0.405775 0)
(1.13633 0.447692 0)
(1.12586 0.439202 5.85322e-23)
(1.14761 0.44046 5.86447e-22)
(1.14264 0.448922 -1.78865e-21)
(1.0357 0.375137 -8.44289e-21)
(1.13631 0.392935 -3.22924e-21)
(1.14458 0.422197 4.4874e-21)
(0.620418 0.318572 4.30372e-24)
(0.463764 0.235449 -1.70194e-22)
(0.665434 0.336856 0)
(0.363262 0.157462 -3.37447e-22)
(0.719297 0.350609 -4.18815e-22)
(0.320568 0.0773066 8.28358e-22)
(0.782048 0.358081 -9.35476e-22)
(0.517127 0.0211312 0)
(0.374145 0.0139744 -2.22763e-21)
(0.852344 0.357339 0)
(0.926086 0.346945 -5.19777e-21)
(1.12131 0.352905 -5.77064e-21)
(1.01029 0.330487 5.248e-21)
(1.12513 -0.0956533 3.93577e-22)
(1.09773 0.305769 1.78917e-20)
(1.08539 -0.061183 0)
(1.11892 -0.0868509 2.04706e-22)
(1.11933 -0.0834403 9.39165e-23)
(1.10005 -0.0527556 3.19082e-22)
(1.05959 -0.0652708 -2.35388e-22)
(1.1835 0.326853 7.32958e-20)
(1.12121 -0.0878555 -9.16929e-23)
(0.54057 0.277016 0)
(0.532622 -0.0132756 -2.04319e-21)
(0.713442 0.0143498 7.08291e-22)
(0.684849 0.0636282 -1.3184e-21)
(0.693616 0.0392309 1.33115e-21)
(0.683351 0.108176 -1.13081e-21)
(0.679117 0.0868914 4.45962e-22)
(0.713717 0.139995 -2.36297e-22)
(0.695542 0.126091 5.46649e-22)
(0.769053 0.151788 0)
(0.739315 0.148586 0)
(0.84088 0.139848 0)
(0.803267 0.148858 0)
(0.92313 0.104718 0)
(0.881206 0.124941 0)
(1.00749 0.0516899 -3.30405e-25)
(0.965649 0.0799492 0)
(1.08489 -0.0102215 0)
(1.04762 0.021149 0)
(1.14751 -0.0704992 -2.22003e-26)
(1.11845 -0.041178 0)
(1.19077 -0.120507 -6.09444e-26)
(1.17169 -0.097195 0)
(1.21431 -0.155474 0)
(1.20488 -0.139993 0)
(1.22122 -0.174926 -4.83953e-26)
(1.21956 -0.167028 0)
(1.21629 -0.181388 2.19929e-26)
(1.21992 -0.17956 0)
(1.20436 -0.178457 0)
(1.21093 -0.18087 0)
(1.18924 -0.169465 0)
(1.19701 -0.174538 0)
(1.17352 -0.156918 0)
(1.18134 -0.163513 0)
(1.15868 -0.142461 -7.62643e-25)
(1.16592 -0.149853 0)
(1.14549 -0.127092 5.01624e-23)
(1.15184 -0.134852 0)
(1.13428 -0.111338 2.03254e-22)
(1.13963 -0.119255 -5.05927e-23)
(1.12945 -0.103467 -9.90778e-23)
(1.10759 -0.0941794 -5.39542e-23)
(1.11538 -0.0904257 1.6279e-22)
(1.0745 -0.102497 0)
(1.09426 -0.0982038 0)
(1.02086 -0.110123 0)
(1.04897 -0.106755 0)
(0.978997 -0.108983 0)
(0.995444 -0.111323 0)
(0.992504 -0.0914545 -9.55186e-23)
(0.977255 -0.102235 6.98411e-23)
(1.02167 -0.0786119 -8.31269e-23)
(1.05805 -0.0738845 -2.2105e-22)
(1.0712 -0.0683357 -9.81755e-23)
(1.03547 -0.080211 0)
(1.04602 -0.0778899 0)
(1.01686 -0.0805043 0)
(1.02547 -0.0811349 0)
(1.00365 -0.0750512 0)
(1.0095 -0.0784563 0)
(0.996762 -0.0646803 0)
(0.999396 -0.0704159 0)
(0.996212 -0.050339 0)
(0.995762 -0.0579539 0)
(1.0005 -0.0324951 0)
(0.997925 -0.041859 0)
(1.00663 -0.0106109 0)
(1.00356 -0.0221293 0)
(1.01148 0.0166103 0)
(1.00937 0.00224632 0)
(1.0138 0.0500847 -6.82835e-26)
(1.01292 0.0325738 0)
(1.01517 0.0891771 -7.99385e-26)
(1.01443 0.0690253 0)
(1.01853 0.132203 0)
(1.01643 0.110314 0)
(1.0262 0.17763 0)
(1.02173 0.154684 0)
(1.03931 0.224683 0)
(1.03204 0.20098 0)
(1.05844 0.272998 -1.10902e-24)
(1.0481 0.24871 0)
(1.08392 0.321809 0)
(1.07039 0.297435 0)
(1.11515 0.369007 6.09747e-23)
(1.09893 0.345829 0)
(1.1502 0.410061 -1.07024e-24)
(1.13248 0.390687 -6.17161e-23)
(1.18414 0.437 -1.11097e-21)
(1.16769 0.425955 8.82031e-22)
(1.2087 0.43886 2.04407e-21)
(1.19762 0.441777 1.3305e-21)
(1.2162 0.404945 5.75401e-21)
(1.21456 0.427086 -4.41539e-21)
(1.20785 0.372359 -1.71115e-20)
(0.578187 0.292711 -4.75743e-23)
(0.42015 0.198958 -1.85685e-22)
(1.07552 -0.0557275 -1.08168e-22)
(1.11449 -0.0434 6.54528e-23)
(1.27438 0.317194 1.23806e-20)
(0.621194 0.305259 -8.92192e-22)
(0.323907 0.110063 0)
(0.675432 0.313625 -1.31535e-21)
(0.295131 0.0249863 -8.28705e-22)
(0.739227 0.314671 1.52855e-22)
(0.375745 -0.0319854 0)
(0.809701 0.307726 2.75304e-21)
(0.735507 -0.0116891 -1.39201e-21)
(0.556094 -0.0464756 2.73069e-21)
(0.890819 0.295239 0)
(0.974726 0.278133 5.56138e-21)
(1.0753 0.256366 -3.816e-21)
(1.11776 -0.0801723 9.19249e-23)
(0.495402 0.245435 0)
(0.765308 -0.0386591 0)
(0.90266 -0.0133687 3.06922e-22)
(0.874105 0.0361234 -1.96274e-21)
(0.886826 0.0129507 1.01386e-21)
(0.855701 0.0747075 -6.48498e-22)
(0.862346 0.0565885 6.49699e-22)
(0.852917 0.104053 0)
(0.851104 0.0906325 1.55061e-22)
(0.874981 0.12158 1.18595e-25)
(0.861009 0.11458 0)
(0.919783 0.122333 0)
(0.894943 0.124314 0)
(0.980989 0.103288 0)
(0.948855 0.115309 0)
(1.05024 0.06562 0)
(1.01521 0.086531 0)
(1.1181 0.0146786 2.04016e-25)
(1.08494 0.0413232 0)
(1.17613 -0.0407592 1.09341e-25)
(1.14883 -0.0130472 0)
(1.21791 -0.091968 -4.82597e-25)
(1.19929 -0.0673956 0)
(1.24126 -0.132238 -1.18329e-25)
(1.23188 -0.113746 0)
(1.24776 -0.158679 7.82175e-26)
(1.2464 -0.147216 0)
(1.24155 -0.171922 2.06909e-25)
(1.24594 -0.166808 0)
(1.22743 -0.174653 2.98748e-26)
(1.23519 -0.174399 0)
(1.20956 -0.170025 0)
(1.21875 -0.173072 0)
(1.19084 -0.16072 0)
(1.20017 -0.165817 0)
(1.17304 -0.148665 0)
(1.18175 -0.154942 0)
(1.15704 -0.135107 7.62643e-25)
(1.16477 -0.142014 0)
(1.14322 -0.120794 0)
(1.14982 -0.128002 0)
(1.13168 -0.10615 -7.33774e-25)
(1.1371 -0.113454 0)
(1.12232 -0.0915112 8.56142e-23)
(1.12668 -0.0987552 0)
(1.11487 -0.0769636 -8.2128e-23)
(1.11832 -0.0841715 -1.68977e-22)
(1.11477 -0.0725973 -1.67486e-22)
(1.11576 -0.0785813 -5.01905e-24)
(1.11633 -0.0754871 -1.86507e-22)
(1.10374 -0.0857184 0)
(1.112 -0.0819793 -4.91808e-23)
(1.06986 -0.0948549 0)
(1.08986 -0.0900432 0)
(1.01838 -0.103404 0)
(1.04482 -0.0996754 0)
(0.983762 -0.101798 0)
(0.996035 -0.10457 0)
(1.00496 -0.0830974 0)
(0.986305 -0.0944491 0)
(1.03674 -0.0695224 1.48933e-22)
(1.14805 -0.0333958 -2.7292e-22)
(1.12502 -0.0501077 8.6507e-23)
(1.13634 -0.0422373 0)
(1.10256 -0.0628987 0)
(1.11312 -0.0572117 9.25909e-23)
(1.08293 -0.0705935 0)
(1.09252 -0.0673557 0)
(1.06624 -0.0730675 0)
(1.07412 -0.0724834 0)
(1.05367 -0.0703163 -6.37321e-25)
(1.0594 -0.0723199 0)
(1.04558 -0.0626802 0)
(1.04909 -0.0670787 0)
(1.04126 -0.0504448 0)
(1.04305 -0.0571285 0)
(1.03897 -0.0334681 0)
(1.04 -0.0425752 0)
(1.03672 -0.0111518 0)
(1.03796 -0.0230177 0)
(1.03348 0.0170174 0)
(1.03523 0.00219335 0)
(1.02997 0.0507582 -9.88877e-25)
(1.03165 0.0332595 0)
(1.02831 0.0888064 -9.79486e-25)
(1.02877 0.0693462 0)
(1.03065 0.129679 0)
(1.02888 0.108972 0)
(1.03832 0.172344 0)
(1.03377 0.150831 0)
(1.05205 0.216292 0)
(1.04439 0.194179 0)
(1.07247 0.261198 9.01647e-25)
(1.06138 0.238652 0)
(1.10027 0.306418 0)
(1.08541 0.283839 0)
(1.13572 0.350342 0)
(1.11707 0.328705 0)
(1.17774 0.389491 7.65106e-27)
(1.15604 0.370834 0)
(1.22257 0.417294 0)
(1.20028 0.405368 0)
(1.26229 0.422853 1.16155e-22)
(1.24413 0.423421 -6.76699e-22)
(1.2864 0.393829 2.15543e-21)
(1.27666 0.41341 -2.09535e-21)
(1.28746 0.36286 -2.8219e-21)
(1.11191 -0.0698505 2.50194e-22)
(0.529324 0.255234 4.75465e-23)
(0.373899 0.153651 0)
(0.916441 -0.0434712 -1.5686e-22)
(0.794037 -0.0675444 1.00798e-23)
(0.571933 0.262378 1.01723e-21)
(0.284505 0.0549034 0)
(0.62509 0.263937 1.31706e-21)
(0.275905 -0.0309189 0)
(0.689736 0.259509 -2.09456e-21)
(0.385104 -0.0768011 0)
(0.764375 0.249294 -2.71823e-21)
(0.591417 -0.0777576 0)
(0.845887 0.234452 -8.83948e-21)
(0.943366 0.219766 3.5945e-21)
(1.23161 0.273803 2.7143e-21)
(1.11722 0.231342 -5.43838e-20)
(1.20523 0.206798 7.48228e-21)
(1.11124 -0.0738022 -7.6515e-23)
(1.17195 -0.0260894 5.43651e-22)
(1.17915 -0.0179343 1.19012e-22)
(1.10829 -0.0671425 2.26114e-22)
(1.15817 -0.0244761 0)
(0.446313 0.203655 0)
(0.931729 -0.0769623 5.63672e-22)
(1.00495 -0.0655506 1.84525e-21)
(0.997538 -0.00302182 -1.49652e-21)
(0.999499 -0.0328214 -1.9767e-21)
(0.99303 0.045473 -5.36996e-22)
(0.993861 0.0230363 1.37969e-21)
(0.991867 0.0793828 -6.05458e-22)
(0.991697 0.0641374 1.21395e-21)
(0.998914 0.0997903 0)
(0.993848 0.0911637 0)
(1.02076 0.106784 1.37897e-25)
(1.00782 0.10506 0)
(1.05833 0.0985132 0)
(1.03779 0.104666 0)
(1.1072 0.0740156 0)
(1.08179 0.0882448 0)
(1.15995 0.0353316 0)
(1.13364 0.0561849 0)
(1.20835 -0.0120403 -2.04017e-25)
(1.18514 0.0122247 0)
(1.24542 -0.0605034 -1.09341e-25)
(1.22871 -0.036572 0)
(1.26699 -0.103127 2.09969e-25)
(1.25824 -0.0829244 0)
(1.27288 -0.13514 -1.45835e-25)
(1.27178 -0.120623 0)
(1.26591 -0.155109 1.09694e-25)
(1.27075 -0.1466 0)
(1.25035 -0.164227 -3.39685e-25)
(1.25893 -0.160882 0)
(1.23037 -0.164957 3.08306e-26)
(1.24068 -0.16547 0)
(1.20913 -0.159863 0)
(1.21975 -0.162991 0)
(1.18864 -0.151025 0)
(1.1987 -0.155804 0)
(1.16997 -0.139917 0)
(1.17903 -0.145683 0)
(1.15359 -0.127501 0)
(1.16147 -0.133826 0)
(1.13962 -0.114374 0)
(1.14629 -0.120993 0)
(1.12803 -0.100901 6.4239e-25)
(1.13349 -0.107638 0)
(1.11868 -0.0873645 -1.2628e-22)
(1.12301 -0.0940801 4.13805e-23)
(1.11469 -0.0805309 1.10814e-23)
(0.82384 -0.0993128 -2.96234e-22)
(0.944351 -0.114074 0)
(1.00963 -0.101123 4.98333e-23)
(1.11225 -0.065196 8.05645e-23)
(1.1058 -0.0605589 -7.01572e-24)
(1.10941 -0.0628297 7.45444e-23)
(1.11283 -0.0704692 0)
(1.11367 -0.0676861 0)
(1.09961 -0.0775407 0)
(1.10856 -0.0736934 4.86357e-23)
(1.06474 -0.0874076 0)
(1.08505 -0.0821625 0)
(1.01591 -0.0963279 0)
(1.04034 -0.092572 0)
(0.989189 -0.0936091 0)
(0.99704 -0.0970976 0)
(1.01783 -0.0735984 0)
(0.996037 -0.085501 0)
(1.08989 -0.0458258 3.38766e-23)
(1.05109 -0.0597031 9.05035e-24)
(1.12756 -0.0337322 -6.57816e-23)
(1.15556 -0.0412511 -6.67844e-23)
(1.16359 -0.0340772 -4.01979e-23)
(1.13824 -0.0536025 0)
(1.14671 -0.0478906 2.18669e-23)
(1.12137 -0.0620726 0)
(1.12972 -0.058364 0)
(1.10587 -0.0659644 0)
(1.11339 -0.0646122 0)
(1.09257 -0.064909 6.37321e-25)
(1.09893 -0.0660573 0)
(1.08158 -0.0587753 -6.75001e-25)
(1.08682 -0.0624764 0)
(1.07224 -0.0474201 0)
(1.07677 -0.0537594 0)
(1.06355 -0.030568 0)
(1.06788 -0.0396963 0)
(1.05488 -0.00798469 0)
(1.05922 -0.0199902 0)
(1.04668 0.0201253 -8.33167e-25)
(1.05066 0.00542011 0)
(1.04032 0.0528738 0)
(1.04316 0.0360044 0)
(1.03756 0.0889591 0)
(1.0384 0.0705839 0)
(1.03974 0.127228 0)
(1.03798 0.10788 0)
(1.04763 0.166932 6.6095e-25)
(1.04294 0.146935 0)
(1.06176 0.20763 0)
(1.05389 0.18718 0)
(1.08271 0.248938 -9.40268e-26)
(1.07134 0.228238 0)
(1.11123 0.290213 4.6405e-28)
(1.09598 0.26964 0)
(1.14794 0.330133 0)
(1.12854 0.310467 0)
(1.19291 0.366119 1.79294e-26)
(1.16942 0.348847 0)
(1.24469 0.393407 0)
(1.21821 0.381259 0)
(1.29621 0.404023 7.63813e-22)
(1.27119 0.401496 0)
(1.33939 0.386501 -2.74518e-22)
(1.31946 0.399155 -9.23056e-22)
(1.36113 0.333599 -8.31579e-21)
(1.35458 0.364924 -4.59607e-21)
(1.33761 0.243661 3.72911e-20)
(1.35482 0.292134 8.36079e-21)
(1.3242 0.197838 -6.06231e-20)
(1.25531 0.172628 -7.94852e-21)
(1.37082 0.168807 9.68507e-21)
(0.477534 0.207988 0)
(0.325014 0.0992783 0)
(1.16713 -0.0154989 -1.10393e-22)
(1.18519 -0.00991834 1.1189e-22)
(0.517497 0.208114 0)
(0.247523 -0.0065415 0)
(0.56909 0.202882 5.81302e-22)
(0.265203 -0.0871099 0)
(0.634524 0.194358 0)