/*--------------------------------*- C++ -*----------------------------------*\
  =========                 |
  \\      /  F ield         | OpenFOAM: The Open Source CFD Toolbox
   \\    /   O peration     | Website:  https://openfoam.org
    \\  /    A nd           | Version:  10
     \\/     M anipulation  |
\*---------------------------------------------------------------------------*/
FoamFile
{
    format      ascii;
    class       surfaceScalarField;
    location    "85.5";
    object      phi;
}
// * * * * * * * * * * * * * * * * * * * * * * * * * * * * * * * * * * * * * //

dimensions      [0 3 -1 0 0 0 0];

internalField   nonuniform List<scalar> 
57492
(
0.000235168
-1.05731e-05
-4.36116e-05
-0.000180983
-0.00016206
0.00026682
0.000130408
-2.87426e-05
8.07987e-05
0.000323155
-0.000375211
0.0031599
0.00338638
-0.00027214
-0.00627415
-0.00862825
0.00404525
0.0077429
0.000655692
-0.000602427
-0.000316101
0.000262836
-0.0011668
0.000198002
-6.67835e-05
0.00103559
0.000251903
-0.000763016
0.00159288
-0.00463285
0.00442505
-0.00138508
0.00134429
0.00424843
-0.00399984
-0.000610342
-0.000206031
0.000682635
0.000133738
-0.000122133
-0.000830507
0.000342299
0.000231351
-0.000324573
-2.89112e-05
-5.31314e-05
7.84515e-05
0.0015663
-0.00151343
-0.000566926
0.000514055
0.000226805
0.00126458
7.49172e-05
-0.00032493
0.000788787
0.00333523
-0.00379908
-0.000661054
0.00326113
-0.002925
0.000135385
-0.000288411
0.000153025
-0.00166257
0.0012194
0.00057855
-0.00465976
0.000189107
0.0033354
0.00113525
0.00122865
-0.00472993
-0.00115848
-0.000132862
-0.00019583
-0.000700999
0.00102969
-0.000286525
0.000175657
-2.19941e-05
-0.00254227
0.00215805
0.000733395
-0.000349177
-0.00304597
0.000925678
-0.000421983
-0.00112669
0.000595809
0.000456413
7.4472e-05
-0.000778324
-0.000361899
1.35288e-05
-0.000366969
-0.00113289
0.00128964
0.000210217
-0.000415696
0.000116276
-6.75497e-05
0.000682782
-0.000454115
-0.000423234
0.000194566
-0.000588809
0.000475718
0.000795873
-0.000807973
-0.00154909
0.00150779
0.000849273
-0.00184839
-0.000439607
0.00148003
-0.000707285
-0.000151969
0.000859255
-0.000271197
-0.000436088
-0.00137458
0.00189189
-0.000788512
0.000203037
-0.000767358
-0.000810255
-0.000515244
0.000713246
-0.000233052
-0.00190189
0.00115086
0.000751033
-0.00432179
0.0024199
0.00486426
-0.000802221
0.000333009
-0.00439504
0.00357505
-9.62351e-05
0.00138544
-0.000709878
0.00488258
-0.00497492
0.00128487
0.000278836
-0.0013118
0.00129725
-7.91645e-05
0.00157433
-0.00059041
-0.00117312
0.000189201
0.00176238
9.07896e-05
0.000797708
-0.00049756
0.000997104
0.000782477
0.00105082
-0.00475722
-0.000632436
0.000542984
0.00484668
-0.0048905
-0.000295924
0.000429196
0.00122058
0.0045124
-0.0044372
-0.00129578
0.000892435
-0.00430471
-0.00277279
0.00252603
0.00253048
-0.00228372
-0.000270337
0.00319972
-0.00570218
1.48e-05
-0.00011638
-7.97656e-07
0.000102377
-0.000320376
1.06029e-05
6.68504e-05
-0.000135637
-0.00025159
-5.61773e-05
6.64806e-06
1.10968e-05
-1.18945e-05
8.82633e-06
2.27051e-06
0.00729845
0.00378495
-0.00587607
-0.00520733
0.0023372
-0.000701993
0.00566323
-0.00784875
0.00309918
0.00708677
0.00229331
-0.00635711
0.00162383
-0.00286527
0.00213316
-0.000891724
0.00235566
-0.00291383
0.002182
-2.97747e-05
2.17541e-05
-2.55244e-06
-6.99981e-05
-3.38825e-06
-0.000222088
-2.88937e-05
-0.0029375
0.00534613
0.00339223
-0.00580086
0.00436234
-0.00494419
0.00298386
0.00474583
-0.00238357
0.0100792
-0.00147783
-0.00179158
-0.00680984
0.00224516
0.00541547
0.00241861
0.00160758
-0.00500169
0.00563926
4.67573e-05
-7.55e-05
0.000127556
0.000815458
0.00175639
-0.000625907
-0.00194594
0.00103908
9.95376e-05
-9.54823e-05
2.62225e-05
6.92597e-05
-0.000297424
0.000201942
-0.00660266
0.00342361
-0.00201298
0.00519203
-0.00574041
-0.00249459
0.00163234
-0.00262455
0.0020874
-0.00520326
0.00195099
-2.66207e-05
-0.0009439
-0.000980466
-0.000711295
0.0022266
0.000435687
-0.00083424
-8.52143e-05
0.000208159
-0.000771216
-8.96441e-05
-0.000271376
-0.00144374
-0.000237892
-6.23555e-05
1.89864e-05
0.000281261
-0.000214856
-0.00052118
0.000498144
0.000137713
1.69461e-05
-0.000369515
7.95383e-05
-4.18066e-06
0.000101131
-2.60671e-06
-0.000640858
0.000369482
8.34524e-05
-0.00072431
0.000172155
-0.000469579
0.00427364
0.00333161
-0.000178532
0.00212861
-0.00648322
-1.04177e-05
0.00226403
-0.00179751
-0.000456112
0.000291655
0.00316422
-0.00346629
0.00326806
0.00183803
-0.000497073
-0.00460901
-0.0010344
0.000503136
0.00379932
0.0039853
-0.00318167
-0.00164302
-0.00303445
0.00125211
0.00342535
-0.00118423
0.00350468
-0.00396347
0.000424136
-0.00464281
8.22923e-05
3.37293e-05
-4.56839e-06
0.00104285
-0.000615121
-0.000589787
7.62524e-05
-0.000322844
0.00128944
0.000362218
-1.91459e-05
-0.000187111
0.000331906
6.83231e-05
-0.000213118
0.000991927
-0.00121578
3.67381e-05
-0.000357772
0.000830978
0.000518721
-0.000125167
9.93005e-05
-0.00611095
0.00365197
0.00588259
0.00772172
-0.00200509
-0.00821121
-0.00285415
0.00446491
-9.70689e-05
-0.000873804
-0.000162015
-0.000521883
9.11882e-06
4.77306e-05
-0.000130058
3.74823e-05
4.48454e-05
-0.000129925
0.00014427
3.33857e-05
-0.000298948
3.89647e-05
-0.000265121
-0.00031256
5.57984e-05
-0.00080319
-0.000335736
-0.000740386
-0.000793966
0.000906654
0.000627698
3.02513e-05
0.000392423
-0.00116306
-0.00103488
0.000271169
-0.00293275
0.00133014
-5.99523e-05
-0.00350124
0.000809204
-0.000240721
0.000875896
-0.0033474
0.00256425
-9.2745e-05
0.000678943
-0.00272859
0.00292554
0.00252812
-0.0101973
-0.00176482
0.00218103
0.00302046
-0.00345514
0.00206061
-0.000320684
2.68274e-07
1.66778e-05
-3.50263e-06
3.7709e-06
0.000284092
-4.12772e-05
0.00557799
-0.0034091
-0.00249487
0.000325982
0.00482974
3.83692e-05
0.00463726
0.000169533
-0.00507713
0.00138017
0.00329297
-3.58911e-05
0.000551489
-0.00290876
0.00373744
5.31722e-06
-8.81985e-06
0.000759149
-0.00211944
-0.00284587
0.00123139
0.00308261
0.000770053
-4.41442e-05
-0.000809463
8.35541e-05
0.000256329
-7.50846e-05
-0.000991986
0.00022121
0.00124649
0.000181056
-0.000916713
-0.000134945
7.61133e-05
-7.0167e-06
1.03295e-05
-2.98047e-06
-3.32297e-07
1.09368e-05
-2.55643e-07
-1.76978e-05
4.67824e-05
-0.000103239
6.73931e-05
-0.00171429
0.00264696
-0.000760516
0.00291542
-0.00378044
-0.000849269
6.94742e-06
-0.00136594
0.00158021
-0.00398884
0.000240876
-0.0027346
-0.00182969
0.000575453
0.00269064
0.00291173
-0.00541327
0.00260579
0.00429242
-0.00420757
0.00224082
-0.00308399
0.00160583
-0.00076266
0.00245609
-0.00302311
0.00280784
0.00437008
0.00187705
0.0050026
-0.000228945
-0.00496808
0.000194432
0.00554378
-0.000657475
0.000116287
0.00552832
-0.00090664
8.6335e-05
-0.00470802
0.00396775
-0.0013787
0.00293927
0.00430744
-0.00140611
0.0011431
-0.00404444
0.00127188
0.00438735
-0.00135179
-0.00387567
-0.00166751
0.00413708
0.00106866
-0.00369222
-0.00186195
0.00361979
-0.0023804
-0.00323861
0.00215638
0.00346263
-0.00239622
-0.00326663
0.00328245
0.00223602
0.00304539
-0.00147548
-0.00380592
0.00301913
-0.00317933
-0.00259033
0.00261503
0.00299443
-0.00204159
0.00249665
-0.00406848
0.00361453
-0.00102153
-0.0050648
0.00105441
0.00537418
-0.00136379
0.00191107
-0.000263029
0.000988638
-0.00105438
0.000328766
-0.000106847
0.0012675
-0.00142368
-5.2903e-05
0.000304726
0.000110396
-0.00099556
-0.00156417
0.00101875
-1.50183e-07
-1.0546e-07
3.08058e-07
-4.58241e-07
-9.08727e-05
-0.00172438
0.00131769
-0.0015403
-6.08136e-05
0.00151024
4.11645e-05
-0.00161429
3.28282e-05
-0.000245445
0.00152575
0.000270971
-0.00155128
0.0015739
0.000430204
-0.00224955
0.00155122
0.00154843
-2.44899e-06
5.0939e-07
3.56689e-05
-4.74687e-06
2.29788e-06
-4.23748e-06
-5.5347e-06
4.224e-06
-5.48666e-05
1.02243e-06
-6.55713e-06
5.24644e-06
-4.38689e-05
2.12594e-05
-0.000263915
2.21377e-05
-6.60067e-05
4.33971e-05
5.32169e-05
-5.34433e-06
-0.000173039
-1.69145e-05
7.01314e-05
-2.22589e-05
0.00142781
0.0032779
-0.00420257
0.00132261
-0.00446085
0.00456605
0.00471316
-0.000112654
-0.00118219
-0.0024441
0.00115806
0.00246823
-0.000710338
0.00272147
-0.00319332
0.000157404
-0.00331184
0.00358666
-0.00360032
-9.51356e-06
2.31729e-05
0.00360507
3.4104e-05
-5.25136e-05
-2.02787e-05
-0.00357457
-5.46844e-06
0.00365207
1.93509e-07
-4.71954e-05
0.00373743
5.44771e-05
-0.000139835
2.72717e-05
0.00385111
-0.000140958
0.00380411
-0.00376158
-1.52529e-05
-0.000179485
0.0040522
-2.16062e-05
0.00371781
-9.31827e-05
-0.00362673
-8.03739e-05
-0.00359449
-3.20522e-05
-0.00356949
9.11259e-06
-0.00362565
4.66376e-05
-0.00354598
-9.99459e-05
-0.000175906
0.00424955
-2.1439e-05
0.00356276
-2.08611e-05
-1.53099e-05
-0.00352387
-3.53843e-05
-0.00355423
-7.05915e-06
-2.23855e-05
-0.00370625
0.000204757
-1.55915e-06
0.00427201
-2.09056e-05
0.00358236
-2.11569e-05
-0.0036633
8.66859e-05
0.0042944
-1.76662e-06
-2.06255e-05
-2.18744e-06
0.00431656
-1.99734e-05
0.00360161
-2.10178e-05
0.00362084
-2.14175e-05
-1.80199e-05
-0.00366214
-2.60859e-05
-0.00366101
-2.03094e-05
-2.28396e-06
0.00433854
-1.96908e-05
0.00363985
-2.12897e-05
3.02296e-06
-0.00363865
-2.65127e-05
-0.00363742
-2.05658e-05
-2.56098e-06
0.00436013
-1.90267e-05
0.00365898
-2.16927e-05
3.33706e-06
-0.00361488
-2.71059e-05
-0.00361373
-2.03519e-05
-2.40907e-06
0.0043813
-1.87622e-05
0.00367813
-2.15576e-05
3.44567e-06
-0.0035909
-2.74244e-05
-0.00358965
-2.06335e-05
-2.21324e-06
0.00440161
-1.80973e-05
0.00369786
-2.19489e-05
3.7214e-06
-0.0035667
-2.79254e-05
-0.00356548
-2.04503e-05
-1.12026e-06
0.00442059
-1.78571e-05
0.00371853
-2.17911e-05
1.20708e-05
-0.0035506
-2.81712e-05
-0.0035327
-2.07106e-05
9.43343e-07
0.00443684
-1.71951e-05
0.00374162
-2.21462e-05
2.70978e-05
-0.00342667
-0.000151024
-0.00344866
-5.69455e-05
5.76156e-06
0.00444806
-1.69804e-05
0.00375216
-4.77162e-06
2.68005e-05
-0.00341952
-3.39569e-05
-0.00339936
-2.24963e-05
1.52462e-05
0.00444915
-1.63345e-05
0.00374343
2.39691e-05
5.26644e-05
-0.00327511
-0.000197069
-0.00327791
-6.87834e-05
0.000187136
0.00427814
-1.61314e-05
0.00387532
5.52498e-05
5.94268e-05
-0.00323662
-9.79226e-05
-0.00321875
2.64986e-07
0.000165918
0.00398157
0.000130656
0.0039575
8.37418e-05
9.14683e-05
-0.000151667
-0.00317642
-0.00318256
5.52813e-05
8.26435e-06
2.34807e-05
0.00394982
0.0039499
1.58604e-05
-0.00325947
0.00333481
-0.000173262
-0.00325393
-0.00015721
0.000151821
-0.000157197
-0.00317104
5.42487e-05
-0.00308499
-0.00328621
0.00333822
-8.59593e-05
-0.000148471
-0.00323846
0.00326089
-5.06025e-05
-5.12654e-05
-0.00328295
0.00330485
-4.9325e-05
-4.99846e-05
-0.00332642
0.00334787
-4.79704e-05
-4.86726e-05
-0.00336907
0.0036205
-4.66732e-05
-4.72803e-05
-0.00363117
0.00360214
2.35694e-05
-4.60604e-05
-0.00373915
0.0037307
-4.40655e-05
-0.000113841
-0.00363065
0.00359731
-0.000106493
5.28563e-05
-0.00353125
0.00355094
-4.1295e-05
-7.49013e-05
-0.00357026
0.00358946
-4.01095e-05
-4.07536e-05
-0.0036084
0.00362731
-3.8882e-05
-3.9563e-05
-0.00364595
0.00366458
-3.76522e-05
-3.8339e-05
-0.00368294
0.00370129
-3.64418e-05
-3.71258e-05
-0.00371937
0.00373743
-3.52603e-05
-3.59383e-05
-0.00375523
0.00377299
-3.40894e-05
-3.47791e-05
-0.00376849
0.0038745
2.46443e-05
-1.16325e-05
0.00388227
1.5715e-05
-2.76968e-05
6.23613e-05
0.00391516
-2.54092e-05
0.00394761
0.00387183
-0.00379086
-2.57268e-05
-0.00392744
0.00393691
6.39135e-06
2.81373e-05
0.00377285
-0.00373776
-3.986e-05
5.96242e-06
0.00371982
-0.00370156
-4.00538e-05
-4.00833e-05
0.00368331
-0.00366475
-4.01196e-05
-4.01963e-05
0.0036462
-0.00362733
-4.01598e-05
-4.02451e-05
0.00360846
-0.00358926
-4.02159e-05
-4.02908e-05
0.00357004
-0.00355056
-4.03421e-05
-4.0373e-05
0.00360321
-0.003578
-4.04573e-05
-4.05377e-05
0.00361778
-0.00355832
-9.15074e-05
-4.05974e-05
0.00351487
-0.00347178
3.55151e-06
-3.43437e-05
0.00349455
-0.00349636
-5.24684e-06
-7.71792e-05
0.00336818
-0.00334691
-4.15772e-05
-4.14974e-05
0.00332553
-0.00330379
-4.20987e-05
-4.19419e-05
0.00328193
-0.0032597
-4.26846e-05
-4.24891e-05
0.0032373
-0.0032509
-4.33505e-05
-4.31043e-05
0.00322956
-0.00325418
-4.41676e-05
-4.3831e-05
0.00320911
-0.00313969
-1.41445e-05
-4.47989e-05
-0.00308322
-2.22199e-06
-0.00325443
-0.000156699
0.00391225
3.23729e-05
-3.91034e-05
0.0039506
9.47077e-05
-0.000107053
-0.00307265
4.83444e-05
-0.00303686
0.000135057
-0.000152857
-0.00323663
-0.00314304
-0.00326259
0.00323227
-0.00014294
0.00327694
-0.00328059
-0.000153053
-0.000142859
-0.00321319
0.0032358
-0.000108573
-0.000129388
-0.003258
0.00328005
-7.26579e-05
-7.34637e-05
-0.00330174
0.00332329
-7.08674e-05
-7.16746e-05
-0.00334449
0.00336559
-6.90685e-05
-6.98803e-05
-0.0033864
0.00340705
-6.73222e-05
-6.80925e-05
-0.00342739
0.00351662
-6.56664e-05
-6.63943e-05
-0.00346752
0.00348742
-6.39638e-05
-6.47408e-05
-0.00360341
0.00355927
-6.23558e-05
-6.31325e-05
-0.00354575
0.00356507
-6.06101e-05
-6.13826e-05
-0.00358407
0.00360299
-5.90332e-05
-5.97539e-05
-0.00362164
0.00364025
-5.74929e-05
-5.82071e-05
-0.00365859
0.00367691
-5.59755e-05
-5.66837e-05
-0.00369497
0.00371302
-5.44861e-05
-5.51859e-05
-0.0037308
0.00374856
-5.30252e-05
-5.37179e-05
-0.00376605
0.00378351
-5.15441e-05
-5.22694e-05
-0.00380044
0.00384775
-2.26673e-05
-2.85634e-05
-4.68373e-06
-2.14736e-05
0.00394131
-2.87577e-05
0.00393633
-0.00385297
0.00390799
-2.26405e-05
1.04929e-05
0.00389416
-0.00387795
-9.82708e-06
0.00387963
-2.45686e-05
1.94132e-05
6.44974e-06
0.00392474
0.00394555
0.00386143
-0.00381664
-7.05183e-05
1.16229e-05
0.00376692
-0.0037492
-5.75813e-05
-4.3759e-05
0.00373151
-0.00371352
-5.80466e-05
-5.7768e-05
0.00369555
-0.00367726
-5.84049e-05
-5.81675e-05
0.00365899
-0.0036404
-5.87462e-05
-5.8517e-05
0.00362182
-0.00360293
-5.91098e-05
-5.88714e-05
0.00358404
-0.00356486
-5.95221e-05
-5.92628e-05
0.0035457
-0.00352619
-5.99614e-05
-5.97029e-05
0.00350663
-0.00353765
-6.0488e-05
-6.01621e-05
0.00351125
-0.00344663
-6.1065e-05
-6.0744e-05
0.00346242
-0.00340583
-6.18356e-05
-6.13896e-05
0.00338517
-0.00336414
-6.26033e-05
-6.21618e-05
0.00334304
-0.00332159
-6.35525e-05
-6.30377e-05
0.00330003
-0.00327808
-6.46283e-05
-6.40514e-05
0.00325599
-0.00323349
-6.58506e-05
-6.51944e-05
0.00321081
-0.0031877
-6.72792e-05
-6.65099e-05
0.00316443
-0.00310961
-6.89635e-05
-6.80766e-05
0.00306891
-0.00300484
-1.57239e-05
-4.29186e-05
-0.00327947
-0.000153976
3.48778e-05
-0.000104746
-0.00296699
-0.00296365
-6.30909e-06
-0.000174099
-0.00300329
-2.29057e-05
0.00390213
0.00390296
-1.68801e-05
-0.000100488
9.40545e-05
-0.00323019
-0.000122643
-0.00325731
1.28098e-05
-0.000100642
-0.00287916
-2.92464e-05
-0.0029216
-0.00322308
0.00393105
-0.00390372
-4.99663e-05
0.00390723
9.06036e-07
3.03913e-05
-8.28963e-06
0.00390264
-9.89882e-06
0.00394325
-0.00325711
0.00331626
-0.000181797
-0.000167859
0.000125534
-0.00321499
0.00330875
1.26757e-05
0.00017278
-0.0034942
-0.000116222
-0.00333586
0.00333219
-0.000149375
-0.000173576
-0.00331124
0.00327954
-0.000111237
-0.000121915
-0.00327673
0.00326469
-9.65318e-05
-0.000126578
-0.00328638
0.0033079
-9.41736e-05
-9.51618e-05
-0.00332905
0.00335004
-9.18655e-05
-9.28205e-05
-0.00337072
0.00339127
-8.96269e-05
-9.0551e-05
-0.00341153
0.00343168
-8.74694e-05
-8.8349e-05
-0.00345152
0.00347125
-8.53951e-05
-8.62379e-05
-0.0034907
0.0035101
-8.33601e-05
-8.41942e-05
-0.00352917
0.0035482
-8.13892e-05
-8.22032e-05
-0.00356702
0.0035858
-7.93949e-05
-8.01986e-05
-0.00360432
0.00362279
-7.75011e-05
-7.82674e-05
-0.00364098
0.00365915
-7.5661e-05
-7.6406e-05
-0.00367706
0.00369495
-7.38615e-05
-7.45905e-05
-0.00371257
0.00373018
-7.20981e-05
-7.28132e-05
-0.00374754
0.00376487
-7.03633e-05
-7.10699e-05
-0.00378195
0.003799
-6.86029e-05
-6.93409e-05
-0.00382622
0.00384875
-4.51982e-05
-5.57819e-05
-4.44731e-05
1.23329e-05
-1.33416e-05
0.00394232
-1.07601e-05
-3.64292e-05
0.00394932
0.0039379
0.00392392
0.00389768
-0.00387741
-3.0104e-05
-0.00390823
0.00390254
-1.11921e-05
-3.51165e-05
0.00381724
-0.00381364
-7.41127e-05
-4.85458e-05
0.00378312
-0.00376579
-7.49121e-05
-7.42776e-05
0.00374851
-0.00373093
-7.56325e-05
-7.50505e-05
0.00371336
-0.00369549
-7.62765e-05
-7.57314e-05
0.00367763
-0.00365947
-7.69103e-05
-7.63742e-05
0.00364131
-0.00362285
-7.75694e-05
-7.70267e-05
0.0036044
-0.00358565
-7.82761e-05
-7.7717e-05
0.00356689
-0.00354781
-7.90363e-05
-7.84589e-05
0.00352871
-0.0035093
-7.98962e-05
-7.92655e-05
0.00348986
-0.00347008
-8.08488e-05
-8.01877e-05
0.00345025
-0.00343013
-8.19527e-05
-8.12146e-05
0.00340992
-0.00338937
-8.31577e-05
-8.23743e-05
0.00336873
-0.00334775
-8.45391e-05
-8.3672e-05
0.00332665
-0.00330519
-8.60952e-05
-8.51444e-05
0.00328358
-0.00326158
-8.78517e-05
-8.67995e-05
0.00323941
-0.00321683
-8.98611e-05
-8.86784e-05
0.00319407
-0.00317086
-9.21661e-05
-9.08388e-05
0.00312048
-0.00304135
-9.48542e-05
-9.33067e-05
0.00298705
-0.00297252
-4.37746e-05
-6.06038e-05
-1.87558e-05
-2.24425e-06
-0.0029006
-0.00293658
-5.47023e-05
0.00011988
-0.00322454
-7.50827e-05
-0.00302885
-2.56074e-05
0.00389641
0.00393241
-3.97628e-05
0.000163015
-0.00336533
2.91075e-05
-0.00291051
0.000735805
-0.0026958
0.00351121
2.4243e-05
-6.40573e-05
-0.00289676
-2.57934e-05
-0.00285056
-0.0021754
0.00332624
0.000397598
-0.00165761
-0.00024682
-0.00317828
-0.00317692
0.00333143
1.82669e-05
0.000166328
-1.70088e-05
-0.00331889
0.00330954
-0.000172451
-0.000103675
-0.00330391
0.00327877
-0.00012423
-0.00016795
-0.00327911
0.00328877
-0.000120898
-0.000122255
-0.00328118
0.00330242
-0.000117774
-0.000118987
-0.0033233
0.00334403
-0.000114903
-0.000116044
-0.00336444
0.00338471
-0.000112142
-0.000113224
-0.00340468
0.00342454
-0.000109491
-0.00011052
-0.00344412
0.00346359
-0.000106945
-0.000107921
-0.00348278
0.00350188
-0.000104498
-0.000105426
-0.00352071
0.00353947
-0.000102125
-0.000103019
-0.00355796
0.00357639
-9.98229e-05
-0.000100688
-0.00359459
0.00361275
-9.756e-05
-9.83972e-05
-0.00363066
0.00364854
-9.53763e-05
-9.61774e-05
-0.00366616
0.00368375
-9.3254e-05
-9.40264e-05
-0.00370109
0.00371842
-9.11829e-05
-9.19319e-05
-0.00373549
0.00375254
-8.91545e-05
-8.98844e-05
-0.00376935
0.00378614
-8.71553e-05
-8.78747e-05
-0.00380268
0.00381921
-8.51371e-05
-8.58783e-05
-0.00384727
0.00388518
-8.31103e-05
-8.38412e-05
-0.00389156
0.00390447
-6.2872e-05
-5.08527e-05
-0.00393546
0.00394503
-3.51788e-05
-3.00882e-05
8.18024e-06
-7.59734e-07
0.0039419
3.05115e-05
-7.33997e-05
0.00398792
0.0039351
2.56234e-05
1.13959e-05
0.0039053
0.00396276
-5.37477e-06
-1.97948e-05
0.00392781
0.00392994
3.28018e-05
-6.93262e-05
0.00396893
0.00395626
0.00395664
-0.00392733
-4.05037e-05
-0.00403261
0.00394326
2.00238e-05
-0.000115734
0.00390233
-0.00387826
-5.41736e-05
-6.01185e-05
0.00383718
-0.00382065
-9.06364e-05
-8.9629e-05
0.00380415
-0.00378735
-9.17116e-05
-9.07804e-05
0.00377059
-0.00375354
-9.26853e-05
-9.18099e-05
0.00373651
-0.00371918
-9.36067e-05
-9.27635e-05
0.00370186
-0.00368425
-9.45237e-05
-9.36907e-05
0.00366664
-0.00364874
-9.54699e-05
-9.4632e-05
0.00363084
-0.00361265
-9.64697e-05
-9.56152e-05
0.00359445
-0.00357594
-9.75434e-05
-9.66614e-05
0.00355741
-0.00353858
-9.87264e-05
-9.77964e-05
0.00351971
-0.00350053
-0.00010003
-9.90523e-05
0.00348131
-0.00346178
-0.000101486
-0.000100437
0.00344217
-0.00342224
-0.000103092
-0.000101976
0.00340223
-0.00338187
-0.000104893
-0.000103686
0.00336142
-0.00334061
-0.000106907
-0.000105599
0.00331967
-0.00329835
-0.000109164
-0.000107738
0.00327689
-0.00325504
-0.00011171
-0.00011014
0.00323303
-0.00321062
-0.000114582
-0.000112852
0.00318802
-0.00316505
-0.000117821
-0.000115901
0.00310633
-0.00302866
-0.000121445
-0.000119325
0.00301181
-0.00297983
-9.60408e-05
-7.15557e-05
-5.90113e-05
3.98925e-05
-0.00287764
-0.00293795
-0.00010089
0.000115011
-0.00317653
-2.10088e-05
-0.00297874
0.000283078
-0.0029126
3.03145e-05
-0.00296661
0.00397034
-0.00396016
-4.53605e-05
0.00396976
-7.28216e-05
-2.27097e-05
2.14327e-05
0.00397021
-7.36388e-05
0.00399419
0.000297945
-0.00256354
5.80417e-05
-0.00286871
-0.00145989
-0.001749
-0.00261011
0.00302701
-1.93041e-05
-3.99585e-05
3.62733e-05
-0.00287396
-7.89934e-05
-0.00289891
-0.00239739
-0.000459542
-0.00308428
-0.00318025
0.00324179
-4.32719e-05
1.30907e-05
-0.00328951
0.00326638
-0.000149321
-0.000151395
-0.00324522
0.00326621
-0.000145221
-0.000146791
-0.00328692
0.00330751
-0.000141491
-0.000142964
-0.00332786
0.00334808
-0.000137992
-0.000139335
-0.003368
0.00338781
-0.000134708
-0.000135965
-0.00340732
0.00342673
-0.000131551
-0.00013274
-0.00344586
0.00346489
-0.000128524
-0.000129647
-0.00348365
0.00350232
-0.000125621
-0.00012668
-0.00352073
0.00353906
-0.000122831
-0.000123833
-0.00355714
0.00357515
-0.000120138
-0.000121091
-0.0035929
0.00361061
-0.000117532
-0.000118443
-0.00362808
0.00364552
-0.000114996
-0.000115868
-0.00366271
0.00367988
-0.00011254
-0.000113372
-0.0036968
0.0037137
-0.000110153
-0.00011095
-0.00373036
0.003747
-0.000107823
-0.000108591
-0.0037634
0.00377979
-0.000105541
-0.000106285
-0.00379593
0.00381207
-0.000103291
-0.000104021
-0.00382796
0.00384387
-0.000101041
-0.000101776
-0.00385954
0.0038752
-9.87639e-05
-9.95137e-05
-0.00392158
0.00392365
-6.49381e-05
-9.72408e-05
-6.65975e-05
-3.68971e-06
-3.83755e-05
0.00398397
4.40928e-05
-4.90946e-05
0.00399292
0.00397551
-1.20953e-05
-4.56408e-06
0.00392196
0.00391229
-1.68458e-05
1.84077e-05
0.00392624
0.00390853
0.0039961
0.00398126
-0.00395498
-6.67893e-05
-0.00394786
0.00399933
-3.14412e-05
-8.23345e-05
0.00392807
-0.0038771
-0.000105144
-8.70298e-05
0.00386148
-0.00384557
-0.000106539
-0.00010525
0.00382971
-0.00381356
-0.000107857
-0.000106645
0.00379745
-0.00378105
-0.000109087
-0.000107927
0.00376466
-0.00374799
-0.000110277
-0.000109147
0.00373133
-0.00371439
-0.000111468
-0.00011035
0.00369745
-0.00368023
-0.000112693
-0.00011157
0.003663
-0.00364549
-0.000113979
-0.000112839
0.00362797
-0.00361016
-0.000115354
-0.000114182
0.00359233
-0.00357421
-0.000116849
-0.000115628
0.00355606
-0.0035376
-0.000118483
-0.000117206
0.00351911
-0.00350031
-0.000120282
-0.000118932
0.00348145
-0.00346228
-0.000122264
-0.000120834
0.00344304
-0.00342347
-0.000124462
-0.000122933
0.0034038
-0.00338381
-0.000126903
-0.000125261
0.0033637
-0.00334325
-0.000129618
-0.000127846
0.00332267
-0.00330173
-0.000132645
-0.000130722
0.00328066
-0.00325923
-0.000136012
-0.000133926
0.00323765
-0.00321573
-0.000139739
-0.000137479
0.00319368
-0.0031713
-0.000143818
-0.000141379
0.00309716
-0.00304499
-0.000148218
-0.000145695
0.00299565
-0.00295302
-0.000121618
-0.000150228
-5.03589e-05
5.54429e-05
-0.002904
-0.00291846
-8.49208e-05
8.95384e-05
-0.00298299
3.48726e-06
-0.00295191
-4.60405e-05
0.00396671
0.00400038
-7.4689e-05
0.000179525
-0.00279418
-0.000288803
-0.00342063
1.13476e-05
-0.00286369
3.15193e-05
-0.00294009
5.92242e-05
-0.00289166
-0.00341198
-0.000734409
0.000239698
-0.000491769
-0.00315991
-0.000154916
-0.00302602
3.7533e-05
-0.00285605
-8.2342e-05
1.62075e-05
-0.00283786
-6.99765e-05
-0.00293083
-0.00299126
-0.00291191
0.00306256
-0.000169955
0.00304145
-0.00331318
-0.000462682
-0.000330001
-0.00317727
0.00324282
-0.00010883
-0.000101615
-0.00326315
0.00328341
-0.000169576
-0.000171725
-0.00330342
0.00332328
-0.000165086
-0.000166802
-0.00334289
0.00336241
-0.000161003
-0.000162574
-0.00338167
0.00340082
-0.000157146
-0.000158596
-0.0034197
0.00343849
-0.00015349
-0.000154847
-0.00345701
0.00347544
-0.000149979
-0.00015126
-0.00349361
0.00351169
-0.000146612
-0.000147818
-0.00352953
0.00354729
-0.000143382
-0.000144515
-0.0035648
0.00358225
-0.000140278
-0.000141345
-0.00359945
0.0036166
-0.000137287
-0.000138295
-0.00363351
0.00365038
-0.000134399
-0.000135354
-0.00366702
0.00368363
-0.000131601
-0.000132506
-0.0037
0.00371635
-0.000128888
-0.000129748
-0.00373247
0.00374857
-0.000126251
-0.00012707
-0.00376444
0.00378029
-0.000123677
-0.000124462
-0.00379592
0.00381153
-0.000121154
-0.000121912
-0.00382692
0.00384229
-0.000118666
-0.000119406
-0.00385744
0.00387259
-0.000116188
-0.000116924
-0.00388751
0.00390244
-0.000113697
-0.000114439
-0.00391714
0.00396341
-0.000111209
-0.000111934
-0.00397982
0.00400268
-6.82219e-05
-8.30072e-05
-0.00396353
0.00399343
-7.59436e-05
-3.36725e-05
-1.01703e-05
1.1655e-05
0.00399144
7.99539e-05
-0.000114737
0.00402822
0.00403649
4.92181e-06
2.81232e-05
0.00395092
0.00399208
-1.182e-05
-4.69378e-06
0.00393848
0.0039286
2.1128e-05
-3.74304e-05
0.00394255
0.00392497
2.49634e-05
-4.73972e-05
0.00399264
0.00398363
6.99296e-05
-7.93411e-05
0.00400979
0.00401672
0.0040379
-0.0039785
-9.08469e-05
-0.00403243
0.0040243
-7.12098e-05
-6.92164e-05
0.00397371
-0.00395093
-8.95612e-05
-8.71263e-05
0.00391953
-0.00390464
-0.000120032
-0.000118434
0.00388975
-0.0038746
-0.000121692
-0.000120138
0.00385948
-0.00384409
-0.000123249
-0.000121764
0.00382872
-0.00381307
-0.000124732
-0.000123297
0.00379744
-0.00378154
-0.000126181
-0.000124777
0.00376565
-0.00374948
-0.000127636
-0.000126244
0.00373331
-0.00371688
-0.000129129
-0.000127734
0.00370044
-0.00368373
-0.000130691
-0.000129278
0.003667
-0.00365
-0.000132353
-0.000130905
0.00363298
-0.00361569
-0.000134145
-0.000132647
0.00359836
-0.00358076
-0.00013609
-0.000134531
0.00356311
-0.00354517
-0.000138215
-0.00013658
0.00352719
-0.0035089
-0.000140545
-0.000138821
0.00349056
-0.00347191
-0.000143112
-0.000141282
0.00345317
-0.00343413
-0.000145943
-0.000143992
0.003415
-0.00339555
-0.000149068
-0.000146981
0.00337599
-0.00335612
-0.00015252
-0.000150279
0.00333613
-0.00331582
-0.000156318
-0.000153915
0.0032954
-0.00327467
-0.000160471
-0.000157903
0.0032538
-0.00323264
-0.000164978
-0.00016224
0.00321141
-0.00318985
-0.000169773
-0.000166931
0.0031682
-0.00311486
-0.000174955
-0.000171886
0.0030636
-0.00299271
-0.000140865
-0.000136177
-0.000114487
6.73335e-05
-0.00288367
-0.00297295
-0.000134246
6.50702e-05
-0.00286854
-0.00332485
-0.000480096
6.11983e-05
-0.00284403
0.00406931
-0.00406749
-7.77603e-05
0.00407894
-0.00012437
-5.93895e-05
4.8296e-05
0.00402089
-6.21126e-05
0.00402702
4.49476e-06
-0.00292489
3.24777e-05
-0.00291335
-1.91428e-05
-0.00299947
6.01711e-05
-0.0029143
8.80073e-05
-0.00292785
0.000115981
-0.00288651
-0.000102115
0.000106715
-0.00288827
-0.000154943
-0.00292013
-0.00292169
-0.00332739
0.00319814
-0.000333435
-0.000417876
0.000494991
-0.00340197
0.00343988
-0.00354952
-0.000308234
-0.000367604
-0.00310093
0.0031733
-0.000242323
-0.000232794
-0.00325523
0.00331071
-0.000164306
-0.000183548
-0.00332998
0.00334915
-0.000188742
-0.000190999
-0.00336806
0.00338682
-0.00018385
-0.000185709
-0.00340531
0.00342369
-0.00017938
-0.000181063
-0.00344181
0.00345984
-0.000175171
-0.000176723
-0.00347761
0.00349529
-0.000171171
-0.000172621
-0.00351273
0.00353009
-0.000167338
-0.0001687
-0.00354721
0.00356426
-0.000163661
-0.000164939
-0.00358108
0.00359783
-0.000160132
-0.000161331
-0.00361435
0.00363081
-0.000156742
-0.000157867
-0.00364705
0.00366325
-0.000153478
-0.000154535
-0.00367921
0.00369514
-0.000150329
-0.000151323
-0.00371086
0.00372654
-0.000147282
-0.00014822
-0.00374201
0.00375745
-0.000144329
-0.000145215
-0.00377267
0.00378788
-0.000141456
-0.000142297
-0.00380287
0.00381785
-0.000138652
-0.000139454
-0.00383261
0.00384735
-0.000135901
-0.000136673
-0.00386189
0.00387641
-0.000133188
-0.000133938
-0.00389072
0.00390502
-0.000130489
-0.00013123
-0.0039191
0.00393319
-0.000127782
-0.000128526
-0.00394706
0.00396089
-0.00012504
-0.000125802
-0.00400095
0.00402869
-9.5968e-05
-0.000123067
-7.24706e-05
-5.56468e-05
1.52378e-05
0.00403185
5.70961e-05
-0.00010219
0.00407331
0.00403794
-4.35634e-05
2.76658e-05
0.00396682
0.00396376
-1.15287e-05
-4.7947e-06
0.0039548
0.00394473
2.10457e-05
-3.71933e-05
0.00395869
0.00394122
6.95252e-06
-3.49209e-05
0.00402061
0.00395339
0.0040301
0.00406016
-0.00404926
-0.000101749
-0.00406427
0.00405807
-6.50105e-05
-7.33298e-05
0.00400616
-0.00396358
-0.000132138
-0.000130224
0.00394979
-0.00393571
-0.00013411
-0.000132224
0.00392166
-0.00390735
-0.000136003
-0.00013419
0.00389306
-0.00387852
-0.000137798
-0.000136052
0.00386398
-0.00384919
-0.000139525
-0.000137829
0.00383441
-0.00381937
-0.000141224
-0.000139559
0.00380433
-0.00378903
-0.000142932
-0.000141281
0.00377374
-0.00375819
-0.000144682
-0.000143029
0.00374263
-0.00372681
-0.000146508
-0.000144835
0.00371098
-0.0036949
-0.000148441
-0.000146733
0.00367879
-0.00366242
-0.000150511
-0.000148754
0.00364603
-0.00362937
-0.000152747
-0.000150925
0.00361268
-0.00359572
-0.000155176
-0.000153275
0.00357871
-0.00356143
-0.000157826
-0.000155831
0.00354409
-0.00352647
-0.000160727
-0.000158622
0.00350879
-0.00349082
-0.000163908
-0.000161677
0.00347278
-0.00345445
-0.000167396
-0.000165026
0.00343603
-0.00341733
-0.000171217
-0.000168694
0.00339854
-0.00337947
-0.000175388
-0.000172706
0.00336031
-0.00334087
-0.000179913
-0.00017707
0.00332132
-0.00330151
-0.00018479
-0.000181785
0.00328159
-0.00326139
-0.000189981
-0.000186845
0.00324105
-0.00322045
-0.000195554
-0.000192221
0.00315867
-0.00309823
-0.000201298
-0.000197963
0.00306246
-0.00304896
-0.000168444
-0.000170019
-0.000294642
0.000113512
-0.00284489
-0.00295956
-0.000123425
0.000130457
-0.00292716
-0.00298494
-0.000187448
2.19061e-05
-0.00282925
-7.21866e-05
0.00404894
0.0041049
-0.000108942
0.000247763
-0.00349837
-0.000298911
5.37027e-06
-0.00289778
0.000317165
-0.00347137
1.83129e-05
-0.00288149
3.31083e-05
-0.00288628
3.77159e-05
-0.00292367
6.11223e-05
-0.00288741
8.94889e-05
-0.00290136
0.000117894
-0.00289769
0.000115498
-0.00287331
-0.00015096
0.000129805
-0.002906
-0.000166628
-0.00296927
-0.00289441
-0.00359607
0.0034734
-0.000185563
-0.000382177
-0.00342112
0.000304926
0.0036712
-0.00355626
-0.000497119
-0.000223781
-0.00339727
0.00334403
-0.000280203
-0.000291469
-0.00333029
0.00330544
-0.000217471
-0.000219048
-0.00333661
0.00338493
-0.000212623
-0.000214725
-0.00340292
0.00342085
-0.000206666
-0.000208991
-0.00343853
0.00345607
-0.000201396
-0.000203387
-0.00347336
0.00349053
-0.000196551
-0.000198348
-0.00350746
0.00352429
-0.000192002
-0.000193653
-0.00354089
0.0035574
-0.000187684
-0.000189218
-0.00357369
0.0035899
-0.000183554
-0.000184989
-0.0036059
0.00362184
-0.000179594
-0.000180938
-0.00363756
0.00365322