/*--------------------------------*- C++ -*----------------------------------*\
  =========                 |
  \\      /  F ield         | OpenFOAM: The Open Source CFD Toolbox
   \\    /   O peration     | Website:  https://openfoam.org
    \\  /    A nd           | Version:  10
     \\/     M anipulation  |
\*---------------------------------------------------------------------------*/
FoamFile
{
    format      ascii;
    class       surfaceScalarField;
    location    "33";
    object      phi;
}
// * * * * * * * * * * * * * * * * * * * * * * * * * * * * * * * * * * * * * //

dimensions      [0 3 -1 0 0 0 0];

internalField   nonuniform List<scalar> 
57492
(
-0.00415183
7.3327e-05
0.000937066
0.00314144
0.00114047
-0.00270478
-0.00258752
-0.000855491
0.00260839
0.00895196
-0.0107049
0.0386089
0.0296179
-0.00602255
-0.0622042
-0.0831336
0.0348284
0.0869141
0.0129991
-0.0122939
-0.00628298
0.00557774
-0.0234908
0.00667792
-0.00392944
0.0207424
0.00468171
-0.0151734
0.0116579
-0.0424335
0.0405145
-0.00973879
0.0101471
0.0389725
-0.0374618
0.0109681
0.0029211
-0.00562751
-0.00826174
-0.00148566
0.00402061
0.00843319
-0.00725819
0.00603959
-0.000267049
0.00143224
-0.00576933
0.0298698
-0.0259311
-0.0112529
0.00731414
0.0014742
0.0227683
0.00562731
-0.000238492
0.00479752
0.0343246
-0.0388836
-0.00422696
0.0338041
-0.0298156
0.00480728
-0.00968553
0.00487825
-0.036684
0.0263691
0.0151221
-0.0456166
0.00598144
0.033444
0.00619114
0.00757318
-0.0463874
-0.00680236
-0.00065034
0.00277816
-0.00284255
0.000714734
0.00312751
-0.00410882
0.000330964
-0.0409698
0.0441465
0.00359786
-0.00677462
-0.0604375
0.0310703
-0.0116026
-0.0292536
0.012927
0.0134015
0.00292512
-0.0199293
-0.0101535
0.000829209
-0.00880523
-0.0258582
0.0306061
0.00405737
-0.01035
0.00317137
-0.00162664
0.0141668
-0.00925568
-0.00864171
0.00373054
-0.0120653
0.0093912
0.016841
-0.0183909
-0.0308554
0.0217863
0.02746
-0.0341863
-0.0107824
0.0265778
-0.0170469
-0.00301412
0.020061
-0.0057476
-0.0112993
-0.0247489
0.032554
-0.0135527
0.00455632
-0.0148574
-0.0144479
-0.0108332
0.0175111
-0.006743
-0.0378163
0.0203279
0.0174884
-0.073099
0.0352828
0.0563721
-0.0167245
0.0117866
-0.0514342
0.0417552
0.00716177
0.0074551
-0.0145365
0.0526038
-0.0547917
0.0251639
0.00455672
-0.0250389
0.0242675
-0.00303312
0.0290892
-0.0103487
-0.0214865
0.00274594
0.0327846
0.000861361
0.0193742
-0.0114644
0.0163578
0.00948442
0.0306321
-0.0414559
-0.00600811
0.00562549
0.0418385
-0.0427831
-0.00315
0.00447721
0.00812111
0.0414054
-0.0407193
-0.00880716
0.00503367
-0.0393461
-0.0321986
0.0476124
0.0425182
-0.0579319
0.00351909
0.0535837
-0.0893014
0.000693535
0.00374748
-0.000100747
-0.00434026
0.00388489
0.00284823
-0.00169665
0.00217688
0.00340466
0.00238432
-0.000333491
-0.00136128
0.00126054
-0.000435964
-0.000925318
0.104987
0.0430494
-0.0717357
-0.0763003
0.0353112
-0.0220139
0.0916892
-0.0913201
0.0345223
0.0921089
0.0201229
-0.0683935
0.0133559
-0.0312916
0.0245146
-0.00657881
0.0267116
-0.0315747
0.018219
0.000883699
-0.000940924
0.000130551
0.00139274
0.000428022
0.00350851
0.00102567
-0.0342343
0.0628633
0.0308066
-0.0594357
0.0408369
-0.0483596
0.0257123
0.0586866
-0.0215356
0.132682
-0.014351
-0.0350296
-0.0833015
0.0332586
0.0730935
0.02633
0.0194508
-0.0525178
0.0663256
0.00161568
-0.00247117
0.00422407
0.0183855
0.0350154
-0.0145423
-0.0388587
0.0248119
0.00252562
0.00262102
-0.00118176
-0.00143926
0.00240414
0.000216879
-0.0762811
0.0351678
-0.0268873
0.0680007
-0.0648249
-0.0357344
0.0242783
-0.0346594
0.032441
-0.0626066
0.0369186
-0.000501965
-0.0181919
-0.0182247
-0.0147059
0.0415208
0.0101037
-0.0181768
-0.00183394
0.00530482
-0.0164227
-0.00225604
-0.00602616
-0.0285885
0.0376352
0.000159767
-0.0120424
-0.0257526
0.0037703
0.0267037
0.00716119
-0.0199507
-0.00361152
0.0273325
-0.018008
-0.00178291
-0.0282702
-0.00178016
-0.0153586
0.00933242
0.00196732
-0.0173259
0.00307507
-0.000670923
0.0464876
0.0310482
-0.0032687
0.0174478
-0.0540937
-0.00311262
0.0358472
-0.0265214
-0.00621325
-0.00488259
0.0413636
-0.0395936
0.0318603
0.0161022
-0.00287429
-0.0450882
-0.0117387
0.00663891
0.0369602
0.0383138
-0.0339504
-0.0134532
-0.0285385
0.00857443
0.0334173
-0.013704
0.0330697
-0.0328189
0.00103624
-0.0432787
-0.00504328
-0.00391475
0.000303709
0.00341677
-0.000710009
-0.00156629
0.00263638
-0.00241215
0.00319254
-0.00125701
0.00118861
-0.00509658
0.00642212
0.0017472
-0.00307275
0.0152632
-0.0121727
-0.00818701
-0.00615166
0.0165161
0.00489869
-0.00252952
0.00279999
-0.0630917
0.0333723
0.0648872
0.0675095
-0.0260148
-0.0772292
-0.0316369
0.0360546
-0.0025954
-0.020355
-0.00290788
-0.0131589
0.000213594
0.00190782
-0.0029027
-0.000263262
0.00125814
-0.00390066
0.00463732
0.00117116
-0.00912
0.00231664
-0.00596279
-0.00854282
0.00134666
-0.0171422
-0.00917554
-0.0136435
-0.0143354
0.0170527
0.0109261
0.00079696
0.00667086
-0.0211113
-0.0188974
0.00535902
-0.0554449
0.0221471
-0.00338615
-0.0568247
0.00787892
-0.00649908
0.00223178
-0.0368505
0.0325347
0.00208403
0.00195462
-0.0340469
0.034324
0.00246212
-0.112412
-0.0305503
0.0397772
0.0404004
-0.0488036
0.0355894
-0.00604949
0.00258495
-0.00619647
0.00222815
0.000356802
0.00749094
-0.00154436
0.0605446
-0.0361797
-0.0229098
-0.001455
0.0507202
-0.00471215
0.0635906
0.00551356
-0.0655851
0.0239115
0.0490322
-0.00935307
0.00891633
-0.0352258
0.050221
0.000131231
0.00209692
0.0120227
-0.0386439
-0.0408614
0.0244
0.0495619
0.0154149
-0.00090643
-0.0160665
0.00155803
0.00496874
-0.00161913
-0.0199885
0.00370377
0.025676
0.00301116
-0.0180309
-0.00273514
-0.000319363
-0.00876288
-0.00204168
0.0101472
0.000657403
-0.00283844
0.000498149
-0.0064226
-0.0119613
-0.00742801
0.0165509
-0.0175951
0.0311944
-0.0105243
0.0611272
-0.0582076
-0.0205147
-0.000591211
-0.0262294
0.0305244
-0.0806177
-0.00183357
-0.0586047
-0.0311444
0.00913141
0.0326879
0.0241954
-0.0509019
0.0182309
0.0472761
-0.0328191
0.0170919
-0.0321604
0.0191806
-0.00411202
0.0187419
-0.0312657
0.0296157
0.0445979
0.0130415
0.0444158
-0.00104379
-0.0442014
0.000829354
0.0491786
-0.00481223
4.94511e-05
0.0509333
-0.0065011
-0.00115005
-0.0432822
0.0365567
-0.0109165
0.0252931
0.0401288
-0.0100578
0.00779339
-0.0378644
0.00887084
0.040731
-0.00947304
-0.036623
-0.0124796
0.0390448
0.00696262
-0.0350112
-0.0130339
0.0339716
-0.0170963
-0.0311006
0.0150987
0.0330981
-0.017484
-0.0317282
0.0321159
0.0160226
0.0299876
-0.00918324
-0.036827
0.0296322
-0.0310936
-0.018926
0.0188866
0.0296716
-0.0148291
0.0258907
-0.0390033
0.0344108
-0.00459067
-0.050392
0.0034296
0.0508791
-0.00391673
0.0124367
-0.0136379
-0.00739716
0.00405876
0.0169763
-0.00870814
-0.00292004
-0.00200976
0.00240604
-0.00630635
0.0026433
-0.0183348
-0.0280731
0.0175128
-0.00109294
0.00159109
-0.000238936
-0.000854003
-0.0033252
-0.0317121
0.0235729
-0.0277006
-0.0028309
0.0272063
0.00196061
-0.0289425
-0.000718676
0.00911485
0.0219567
-0.00835469
-0.0227168
0.0133408
0.0226236
-0.0268496
0.0307172
0.00458026
0.000421318
-0.000291899
-0.00404417
-0.000200291
0.000621609
-0.00049219
0.000437986
-0.000534583
0.00248092
-0.000392461
0.000830448
-0.000927045
0.00156574
-0.000213304
0.00177508
-0.00149709
0.00306283
-0.00171039
0.00168772
-9.7256e-05
-0.00411999
-0.000596509
0.00228423
-0.000693765
0.0147976
0.0310388
-0.0391975
0.0107888
-0.0402118
0.0442207
0.045514
-0.00368644
-0.0131395
-0.0255623
0.0129863
0.0257156
-0.00671733
0.0275784
-0.0340006
0.0023399
-0.0346196
0.0360794
-0.0367826
0.0201924
-0.0194892
0.0355117
0.0198159
-0.0192482
0.0206867
-0.037183
-0.0202863
0.0353789
0.0179595
-0.0178267
0.0356361
0.0165004
-0.0167576
0.0137822
0.0361102
-0.0142564
0.0371595
-0.0372668
0.0138894
0.0089353
0.0375371
-0.0103622
0.0357243
0.0103706
-0.0363586
0.0155922
-0.0364313
0.0180323
-0.0366421
0.0200267
-0.0378598
0.0214101
-0.0374822
0.020309
0.00597903
0.0387419
-0.00718377
0.033765
0.00793827
0.0209956
-0.0372523
-0.0209263
-0.0378601
0.0213736
0.0208078
-0.0400661
-0.017994
0.00423873
0.0383718
-0.00386871
0.0335883
0.00441544
-0.0395569
0.0225046
0.0380829
0.000661126
-0.000372164
-0.00295193
0.0378776
0.00315717
0.0334384
0.000811012
0.0333573
-0.00287085
0.0205351
-0.0400515
-0.0205496
-0.0402182
0.0211964
-0.00652142
0.0378422
0.00655689
0.033367
-0.00653107
0.0207935
-0.0402841
-0.0205609
-0.0403134
0.0208886
-0.00985975
0.0378498
0.00985209
0.0334009
-0.00989365
0.0207182
-0.0405753
-0.0204271
-0.0405208
0.0209256
-0.0129485
0.0380989
0.0126994
0.0335728
-0.0131203
0.02076
-0.0407453
-0.02059
-0.0405584
0.0207976
-0.0155565
0.0383178
0.0153376
0.0337167
-0.0157004
0.0208876
-0.0409754
-0.0206575
-0.0407071
0.0210363
-0.0177946
0.0388086
0.0173038
0.034007
-0.0180849
0.0211974
-0.0411733
-0.0209995
-0.0406112
0.0211015
-0.019432
0.0391838
0.0190567
0.0341907
-0.0196156
0.0217372
-0.0400456
-0.022865
-0.0399232
0.0210492
-0.0207297
0.0398428
0.0200707
0.0345749
-0.0211139
0.02223
-0.0405238
-0.0217518
-0.0394454
0.0217522
-0.0214992
0.0403529
0.0209891
0.0346639
-0.0215881
0.0230262
-0.0387508
-0.0247992
-0.0380986
0.0216793
-0.0205803
0.0397031
0.0212301
0.0359073
-0.0218238
0.0235934
-0.0384457
-0.0238985
-0.037412
0.0229068
-0.021053
0.0366918
0.0240643
0.0367554
-0.0219011
0.0246088
-0.0252095
-0.037845
-0.0367967
0.0239935
-0.0225895
0.0229534
0.0363279
0.0366036
-0.0224377
-0.039129
0.0395799
-0.0243494
-0.0397124
-0.024626
0.0257416
-0.0257874
-0.0377993
0.0244319
-0.035487
-0.0381909
0.0386317
-0.0221926
-0.0234101
-0.0367938
0.0365781
-0.0207839
-0.021027
-0.0363393
0.0360713
-0.020322
-0.0204187
-0.0357717
0.0354339
-0.020223
-0.0201275
-0.0350733
0.0374463
-0.020367
-0.020189
-0.0367348
0.0358786
-0.01943
-0.0202148
-0.0364436
0.035703
-0.0185076
-0.0200542
-0.0338684
0.0327952
-0.0156844
-0.0159921
-0.0316461
0.031316
-0.0100321
-0.0131072
-0.0310593
0.0308716
-0.00368104
-0.00692711
-0.0307684
0.0307694
0.00315615
-0.00026892
-0.0308729
0.0310806
0.00964438
0.00645343
-0.0313818
0.0317658
0.0149536
0.0123982
-0.0322063
0.0326841
0.0185789
0.0168633
-0.0331686
0.0336449
0.0205128
0.0195863
-0.0335298
0.0352617
0.0223325
0.0213451
0.035843
0.0223721
-0.0229902
0.023009
0.0363091
-0.0228926
0.036506
0.0360381
-0.0355857
-0.0222762
-0.0364643
0.0364546
-0.0224281
-0.0223273
0.035438
-0.0353425
-0.0212094
-0.0217359
0.0351555
-0.0349905
-0.0182499
-0.0198025
0.0348659
-0.0347911
-0.0131951
-0.015825
0.0347708
-0.034804
-0.00649779
-0.009914
0.0348847
-0.0350055
0.000931747
-0.00279016
0.0351533
-0.0353107
0.00809566
0.00456325
0.036142
-0.0363765
0.014124
0.0112019
0.0371938
-0.0369974
0.0178359
0.0164095
0.03689
-0.036742
0.0212621
0.0199193
0.0372986
-0.0377585
0.0218335
0.0208657
0.0365389
-0.0366054
0.0212629
0.0212849
0.0366524
-0.036678
0.0209511
0.0209356
0.0366774
-0.0366509
0.0210099
0.020797
0.0365984
-0.0369554
0.0214062
0.021049
0.0367487
-0.0370128
0.0219434
0.0215456
0.0361766
-0.0353795
0.0231964
0.0220706
-0.0341462
0.0231986
-0.04033
-0.0251699
0.0360616
0.0227904
-0.0225077
0.0360697
0.0248565
-0.0251235
-0.03522
0.0238624
-0.0331521
0.0254587
-0.0252703
-0.0405184
-0.0374641
-0.0394298
0.0384209
-0.0233406
0.0403579
-0.0410258
-0.0245019
-0.0236979
-0.0375143
0.0371773
-0.0218556
-0.0225036
-0.0369035
0.0366077
-0.0204881
-0.0207533
-0.0362923
0.0359488
-0.0199785
-0.0201033
-0.0355734
0.0351565
-0.0198061
-0.0197521
-0.0347005
0.0342016
-0.0198681
-0.0197329
-0.0336954
0.0338181
-0.0195528
-0.0197086
-0.0326282
0.0321116
-0.017991
-0.0188643
-0.0325743
0.0315428
-0.0146529
-0.0164548
-0.030714
0.0303497
-0.00966776
-0.0122784
-0.0300685
0.0298787
-0.00349126
-0.00664588
-0.0297962
0.0298217
0.00313066
-0.000186411
-0.029964
0.0302211
0.00938733
0.0063111
-0.030579
0.0310252
0.0145075
0.0120402
-0.0315307
0.0320765
0.018033
0.0163578
-0.0326291
0.0331753
0.0199666
0.0190337
-0.0337504
0.0349082
0.0211747
0.02077
0.0221857
-0.0226862
0.0368095
0.0214331
0.0368142
-0.03548
0.0365549
0.0217155
0.0218003
0.036278
-0.0364188
-0.0222873
0.0357969
-0.0220266
0.0219932
-0.0219643
0.0360408
0.035813
0.0365699
-0.0365843
-0.0222617
-0.0221762
0.0364509
-0.0363675
-0.0212928
-0.0218693
0.0362883
-0.036227
-0.0183112
-0.0198818
0.0361966
-0.0362031
-0.0131886
-0.0158554
0.0362458
-0.0363201
-0.00642344
-0.00987136
0.0364166
-0.0365283
0.00104337
-0.00269363
0.0366439
-0.0367571
0.00820885
0.00467886
0.0368616
-0.0369615
0.0142238
0.0113064
0.0370302
-0.0377045
0.0185101
0.0164782
0.0375444
-0.0371182
0.0208358
0.0197592
0.0374329
-0.037084
0.0214846
0.0211803
0.0370621
-0.0370233
0.0212241
0.0212631
0.0369733
-0.0369086
0.0208865
0.0208856
0.0368235
-0.0367148
0.0209012
0.0207119
0.0365796
-0.0364102
0.0212368
0.0209138
0.0362004
-0.0359366
0.0216795
0.0213358
0.0356057
-0.0343567
0.0219475
0.0217398
0.0335464
-0.0321424
0.0224584
0.0223883
-0.0416096
-0.0246865
0.0232974
-0.0244109
-0.0320386
-0.0310332
0.0221882
-0.0252985
-0.0343324
0.0215697
0.0364183
0.0358824
-0.0220498
-0.0244801
0.0241341
-0.0401725
-0.0244225
-0.0416671
0.0217322
-0.0233866
-0.0303842
0.0208526
-0.0301536
-0.0386284
0.0363468
-0.0353884
0.0207571
0.0364059
0.0215106
-0.021333
0.0214711
0.0359027
-0.0211112
0.0356605
-0.0420576
0.0423191
-0.024684
-0.0250122
0.0244239
-0.0410788
0.0438469
0.0229147
-0.0167997
-0.0499619
-0.0232229
-0.0419906
0.041234
-0.0237454
-0.024358
-0.0403072
0.0390237
-0.0220571
-0.022771
-0.0383172
0.0373818
-0.0209202
-0.021797
-0.0370273
0.0366554
-0.0201162
-0.0203987
-0.0362669
0.0358521
-0.0195637
-0.0197149
-0.0354064
0.0349182
-0.0193179
-0.0193064
-0.0343903
0.033821
-0.0192988
-0.019205
-0.033229
0.0326207
-0.0189445
-0.0191167
-0.0320232
0.031432
-0.0173999
-0.0182667
-0.0308823
0.0303759
-0.0141466
-0.0159051
-0.0299195
0.0295355
-0.00928376
-0.011822
-0.0292455
0.0290595
-0.0033053
-0.00635586
-0.0289914
0.0290451
0.0030769
-0.000118227
-0.029224
0.0295251
0.00908623
0.0061322
-0.0299315
0.0304297
0.0140093
0.0116338
-0.0309885
0.0315894
0.0174321
0.0157991
-0.0321969
0.0327988
0.0193647
0.0184262
-0.0335448
0.0344075
0.020312
0.020024
0.0208193
0.0217746
-0.0213138
0.0363487
-0.0218917
0.021406
0.036904
0.0366971
0.0359704
0.0369218
-0.0372564
-0.0219526
-0.0365279
0.0357676
-0.0212894
-0.0216328
0.0373178
-0.0373084
-0.0222712
-0.0221148
0.037421
-0.037453
-0.0212608
-0.0217566
0.0374841
-0.0375268
-0.0182685
-0.0198507
0.0375889
-0.0376742
-0.0131034
-0.0157933
0.0377767
-0.0378898
-0.00631034
-0.00976878
0.0380004
-0.0381011
0.00114408
-0.00258305
0.0381823
-0.0382415
0.00826799
0.00476006
0.0382743
-0.0382789
0.0142284
0.0113393
0.0382478
-0.0381852
0.0184475
0.0164471
0.0380984
-0.0379894
0.0207268
0.0196724
0.0378602
-0.0377293
0.0213536
0.0210512
0.0375946
-0.0374557
0.0210852
0.0211284
0.0373123
-0.0371585
0.0207327
0.0207421
0.0369901
-0.0368
0.0207112
0.0205435
0.0365838
-0.0363318
0.0209847
0.0206976
0.0360371
-0.0356846
0.021327
0.0210411
0.0352646
-0.0347619
0.0214447
0.0213198
0.0335485
-0.0319724
0.0208822
0.0211749
0.0305562
-0.0294937
0.0197901
0.020772
0.0190859
-0.0200219
-0.0292177
-0.0285269
0.0181191
0.023898
-0.0396466
-0.0231401
-0.0345789
0.0212602
0.0365517
0.0356649
-0.0210085
0.0234736
-0.0416377
-0.0194975
-0.0309086
0.0294613
-0.0320393
0.0332952
-0.0168291
0.0158833
-0.0275811
-0.0179331
-0.0281137
-0.0265916
0.042099
-0.0109271
-0.0164896
-0.0184567
-0.0378705
-0.0413786
0.0437973
-0.0192184
-0.0159464
0.0166667
-0.0429318
0.0420612
-0.0238134
-0.0223574
-0.0413772
0.0402254
-0.0225936
-0.023674
-0.0394417
0.0389118
-0.0215272
-0.0219873
-0.0380182
0.0375947
-0.0204968
-0.0209035
-0.0371639
0.036721
-0.0196733
-0.0199678
-0.036266
0.0357872
-0.0190849
-0.0192598
-0.0352798
0.03473
-0.0187681
-0.018799
-0.0341396
0.0335059
-0.0186652
-0.0186146
-0.0328483
0.0321763
-0.0182725
-0.0184591
-0.0315164
0.0308776
-0.016761
-0.0176069
-0.0302828
0.0297411
-0.0136048
-0.0153103
-0.02927
0.0288786
-0.00889238
-0.0113509
-0.0285894
0.028413
-0.00312889
-0.0060667
-0.0283623
0.0284424
0.00299683
-6.75354e-05
-0.0286533
0.0289912
0.00874836
0.00592127
-0.0294369
0.0299761
0.01347
0.0111881
-0.0305762
0.0312192
0.016789
0.015199
-0.0318695
0.0325156
0.0187186
0.0177759
-0.0334343
0.0341664
0.0195799
0.0191053
-0.034766
0.0354757
0.0200475
0.0202197
-0.0362017
0.0371154
0.0203465
0.0207846
0.0213848
-0.0212851
0.0368043
-0.0214364
0.0208704
0.0376815
0.0365001
0.0213972
-0.020957
0.0359085
0.0368091
0.0209767
-0.020924
0.0358499
0.0359901
0.0210626
-0.0210999
0.0357022
0.0357992
0.0368358
-0.0371806
-0.0209446
-0.0367169
0.0360214
-0.0204045
-0.0208896
0.0375566
-0.0377926
-0.0217167
-0.0212567
0.038087
-0.0382655
-0.0220927
-0.0218203
0.0384226
-0.0385699
-0.0211134
-0.0215995
0.0387114
-0.0388575
-0.0181223
-0.0197093
0.0390099
-0.0391703
-0.0129429
-0.0156409
0.0393283
-0.0394752
-0.00616339
-0.00961085
0.0395959
-0.0396828
0.00123104
-0.0024624
0.0397276
-0.039729
0.00826941
0.00480485
0.0396856
-0.0395966
0.0141393
0.0112959
0.0394637
-0.0392918
0.0182756
0.0163142
0.0390885
-0.0388595
0.0204979
0.0194691
0.0386196
-0.0383751
0.0211091
0.0208113
0.0381338
-0.0378963
0.0208477
0.0208872
0.0376619
-0.0374223
0.020493
0.0205078
0.0371729
-0.0369035
0.0204417
0.0202941
0.036609
-0.0362775
0.0206533
0.0204031
0.0359025
-0.0354681
0.0208925
0.0206661
0.0349666
-0.0343815
0.0208597
0.0208184
0.0337109
-0.0329473
0.0201185
0.0205043
0.0313863
-0.0296971
0.0181009
0.0192111
0.0285542
-0.0275444
0.0148735
0.0169762
0.0131271
-0.013886
-0.0268222
-0.026608
0.0121907
0.0225283
-0.0387013
-0.0207565
-0.0333199
0.0230586
-0.035235
-0.0174145
-0.0314272
0.0361751
-0.0359909
0.0201623
0.0369535
0.020092
-0.0203342
0.0204544
0.035582
-0.0199521
0.0356393
0.0211146
-0.0305302
-0.0138483
-0.0281514
-0.00570994
-0.0334965
-0.0318378
0.0384976
-0.0175869
0.0102252
-0.010514
-0.0265333
0.00919147
-0.0255743
-0.0284247
-0.0218698
-0.0360987
-0.0411382
0.0419246
-0.0200048
-0.0185869
-0.0423579
0.041425
-0.0228805
-0.0227907
-0.0402552
0.0397919
-0.0221303
-0.0225043
-0.0393081
0.0388117
-0.0210308
-0.0215034
-0.0383135
0.037812
-0.0199952
-0.0204053
-0.0373108
0.0368026
-0.0191651
-0.0194667
-0.0362872
0.0357516
-0.0185493
-0.0187444
-0.0351907
0.0345888
-0.0181662
-0.0182381
-0.0339465
0.0332602
-0.0179788
-0.0179723
-0.0325489
0.031824
-0.0175476
-0.0177478
-0.0311151
0.0304348
-0.0160807
-0.016898
-0.0298084
0.0292449
-0.0130413
-0.0146839
-0.0287643
0.0283741
-0.00850214
-0.0108703
-0.0280932
0.0279317
-0.00296738
-0.00578581
-0.0279011
0.0280059
0.00289205
-3.69633e-05
-0.0282442
0.0286114
0.00838116
0.00568296
-0.029087
0.0296566
0.0129005
0.0107125
-0.0302867
0.0309602
0.0161155
0.0145689
-0.031642
0.0323204
0.0180402
0.0170941
-0.0329702
0.0335914
0.0189587
0.0184556
-0.0348037
0.0351608
0.0196904
0.0190074
0.0199544
0.0211559
-0.0212886
0.036937
-0.0205392
0.0209349
0.0372858
0.0371168
0.0203624
-0.0203937
0.0359398
0.0358829
0.0201891
-0.0202568
0.0359176
0.0357855
0.0359968
0.0375359
-0.0379889
-0.0204915
-0.0369005
0.0360366
-0.0195405
-0.0202542
0.0383023
-0.0385628
-0.0214561
-0.0209434
0.0388688
-0.0391619
-0.0217996
-0.0215144
0.0394339
-0.0396944
-0.0208529
-0.0213276
0.0399422
-0.0401865
-0.017878
-0.0194615
0.0404233
-0.0406528
-0.0127134
-0.0154042
0.0408605
-0.0410364
-0.00598749
-0.00940321
0.0411632
-0.0412339
0.00130176
-0.00233559
0.0412402
-0.0411829
0.00821209
0.00481114
0.0410633
-0.040883
0.013959
0.0111763
0.04065
-0.040369
0.0179947
0.0160812
0.0400535
-0.0397113
0.0201557
0.0191535
0.0393613
-0.0390098
0.0207576
0.0204614
0.0386684
-0.0383366
0.0205158
0.0205457
0.0380149
-0.0376931
0.0201712
0.0201861
0.0373661
-0.0370208
0.0200964
0.0199671
0.0366518
-0.0362455
0.020247
0.0200342
0.0357961
-0.0352872
0.0203837
0.0202167
0.034713
-0.0340576
0.0202042
0.0202442
0.0333214
-0.0324969
0.019294
0.0197681
0.0316005
-0.030647
0.0171474
0.0183148
0.0290762
-0.0275566
0.013354
0.0154054
0.0261194
-0.0251528
0.00822491
0.0107534
0.00600051
-0.00618825
-0.0253866
-0.0244038
0.00525146
0.0199517
-0.0355944
-0.0182324
-0.0325019
0.020719
0.0371693
0.0356816
-0.0195971
0.0190758
-0.0331962
0.00969325
-0.0422528
0.013556
-0.034393
-0.0147259
-0.0305496
-0.0105996
-0.0280658
-0.0412238
-0.0206974
0.0124088
-0.0143157
-0.039317
0.00734094
-0.0371849
-0.00673448
-0.0259871
0.00177904
-0.00263466
-0.0245309
0.00175502
-0.0243798
-0.0343794
-0.0380634
0.0401053
-0.0196289
0.0402063
-0.0431943
-0.0177094
-0.0197268
-0.0416109
0.042409
-0.0208029
-0.0200925
-0.0419828
0.0414729
-0.0223706
-0.0223645
-0.0409179
0.0403378
-0.0215502
-0.0219493
-0.0397525
0.0391676
-0.020446
-0.0209181
-0.0385927
0.0380226
-0.0194251
-0.0198303
-0.0374598
0.036895
-0.0186003
-0.0189039
-0.0363275
0.0357436
-0.0179654
-0.0181769
-0.0351382
0.0344942
-0.0175222
-0.0176327
-0.033811
0.0330831
-0.0172509
-0.0172892
-0.0323298
0.0315633
-0.0167811
-0.0169944
-0.0308162
0.0301041
-0.0153685
-0.0161509
-0.0294551
0.0288788
-0.012465
-0.0140349
-0.0283958
0.0280127
-0.00811899
-0.0103874
-0.0277459
0.0276032
-0.00282471
-0.00551902
-0.0275941
0.0277222
0.00276398
-2.78761e-05
-0.0279838
0.0283737
0.00799129
0.00542138
-0.0288707
0.0294607
0.0123105
0.0102154
-0.0301106
0.0308043
0.0154219
0.013919
-0.0315074
0.03221
0.0173376
0.016391
-0.0328863
0.0335353
0.0183097
0.0177792
-0.0341437
0.0351497
0.0186844
0.018399
-0.0359343
0.0366822
0.0194145
0.0191698
-0.0366519
0.0375319
0.019839
0.0201223
0.0209885
-0.0208995
0.0371968
-0.0206838
0.0194655
0.0387502
0.0374741
0.0208776
-0.0202059
0.0362653
0.0370949
0.0202739
-0.0202643
0.0359302
0.0359509
0.0201784
-0.0200165
0.0357558
0.0356996
0.019869
-0.019904
0.035617
0.0358493
0.0196972
-0.0191561
0.0351404
0.0354325
0.03686
-0.0370075
-0.019393
-0.0360066
0.0355376
-0.0186871
-0.0187437
0.0378342
-0.038263
-0.0200628
-0.0194274
0.0388091
-0.0392353
-0.0210299
-0.0203973
0.0396474
-0.0400499
-0.0213971
-0.0211023
0.0404316
-0.0408002
-0.0204843
-0.0209458
0.0411482
-0.0414829
-0.0175433
-0.0191136
0.0417954
-0.0420853
-0.0124235
-0.0150916
0.0423349
-0.0425337
-0.0057887
-0.00915364
0.0426628
-0.0427148
0.0013537
-0.0022064
0.042683
-0.0425672
0.00809629
0.00477938
0.0423745
-0.0421072
0.0136917
0.0109836
0.0417783
-0.041394
0.0176104
0.0157524
0.040973
-0.040525
0.0197077
0.0187325
0.0400721
-0.0396211
0.0203067
0.0200085
0.0391868
-0.038767
0.020096
0.0201114
0.0383634
-0.0379642
0.019772
0.0197825
0.037564
-0.0371475
0.01968
0.0195669
0.0367093
-0.0362341
0.0197718
0.0195959
0.0357171
-0.0351417
0.0198083
0.0196997
0.034504
-0.0337885
0.0194888
0.0196064
0.0329983
-0.0321273
0.018423
0.0189779
0.0311935
-0.030206
0.0161599
0.017381
0.0291948
-0.0281941
0.0123533
0.0143942
0.0272498
-0.026029
0.00700411
0.00980904
0.0250247
-0.0241084
0.000838757
0.0042472
-0.00233372
0.00196964
-0.0240157
-0.0239342
-0.00250795
0.0170229
-0.0335415
-0.0431054
-0.0144046
0.0140162
-0.0336564
0.0383622
-0.0376613
0.0191381
0.0389168
0.0189109
-0.0191806
0.0191571
0.0351639
-0.0184375
0.0347945
-0.0155602
-0.0316677
-0.0114489
-0.0297003
0.00905914
-0.0361112
-0.00689584
-0.0279045
-0.00219646
-0.0264253
0.00228911
-0.0248504
-0.0057804
0.00597514
-0.0242104
-0.00592191
-0.0237927
-0.0329166
-0.0448096
0.0435197
-0.0164195
-0.00939452
0.010502
-0.0442129
0.0459902
-0.0471842
-0.00820057
-0.0132239
-0.0417382
0.042344
-0.0202347
-0.0179453
-0.0430748
0.0433859
-0.0211139
-0.0208234
-0.0428223
0.0421852
-0.0217335
-0.0218009
-0.0415148
0.0408319
-0.0208673
-0.0212788
-0.0401586
0.0394975
-0.0197848
-0.0202448
-0.0388563
0.0382273
-0.0187961
-0.0191891
-0.0376117
0.0369984
-0.0179871
-0.0182883
-0.0363867
0.0357624
-0.0173411
-0.0175652
-0.0351209
0.0344442
-0.0168454
-0.0169912
-0.0337306
0.0329725
-0.0164928
-0.0165757
-0.0321886
0.0313912
-0.0159837
-0.0162105
-0.0306157
0.0298801
-0.014633
-0.0153754
-0.0292159
0.0286335
-0.0118827
-0.0133707
-0.0281539
0.0277822
-0.00774734
-0.00990768
-0.0275328
0.0274112
-0.00270311
-0.00526964
-0.0274243
0.0275741
0.00261409
-4.08998e-05
-0.0278555
0.0282625
0.00758429
0.00514007
-0.0287738
0.029376
0.0117083
0.00970404
-0.0300369
0.0307415
0.0147172
0.0132582
-0.0314571
0.0321746
0.01662
0.0156754
-0.0328689
0.0335403
0.0176383
0.0170849
-0.0341738
0.0347783
0.0180799
0.0177655
-0.0359222
0.0366372
0.0186995
0.0180259
0.0190981
0.0203275
-0.0206448
0.0375141
-0.0197171
0.0196149
0.0388524
0.0380845
0.0200902
-0.0202047
0.0363798
0.0365403
0.0202387
-0.0201936
0.0358851
0.0359849
0.0200708
-0.0198724
0.0355573
0.0355769
0.0193653
-0.0193691
0.0356208
0.0353422
0.0352205
0.0373307
-0.0379353
-0.0187885
-0.0366505
0.0356788
-0.0177154
-0.0180635
0.0384208
-0.0388569
-0.0196267
-0.0189419
0.0393723
-0.0398937
-0.0205085
-0.0198819
0.0404043
-0.0409098
-0.0208915
-0.0205918
0.0413945
-0.0418633
-0.0200156
-0.0204611
0.0423025
-0.0427175
-0.0171283
-0.0186743
0.0430952
-0.0434348
-0.0120839
-0.0147139
0.0437171
-0.0439316
-0.00557414
-0.00887137
0.044059
-0.0440903
0.00138501
-0.00207903
0.0440214
-0.0438506
0.00792553
0.00471043
0.043589
-0.0432406
0.0133432
0.010722
0.0428232
-0.0423442
0.0171314
0.0153349
0.0418273
-0.0412832
0.0191636
0.0182156
0.0407373
-0.0401966
0.019766
0.0194625
0.0396781
-0.0391781
0.019596
0.019593
0.0386998
-0.0382294
0.0193016
0.0193042
0.0377618
-0.0372802
0.0191983
0.0190994
0.0367789
-0.0362417
0.0192346
0.0190946
0.0356644
-0.0350305
0.0191745
0.0191224
0.0343377
-0.0335714
0.0187225
0.0189135
0.0327369
-0.0318291
0.0175152
0.0181433
0.0308673
-0.0298609
0.0151535
0.0164193
0.0288446
-0.0278471
0.0113558
0.0133778
0.0269138
-0.0260762
0.00616652
0.00887574
0.0249902
-0.0242028
5.13908e-05
0.0031612
0.0238923
-0.0240284
-0.00578586
-0.00281845
-0.00847721
0.00627216
-0.0349799
-0.0372922
-0.00871799
0.00920192
-0.0242766
-0.0241555
-0.00859086
0.0130178
-0.0325431
0.0198355
0.0386962
0.0352789
-0.0180376
0.00271117
-0.0462174
-0.00367792
-0.0122577
-0.0308589
0.0032945
-0.0447962
0.00946193
-0.0340592
-0.00768084
-0.0289153
0.00563709
-0.0354761
-0.00285324
-0.0272477
0.00184778
-0.0259839
0.0061011
-0.0249764
0.00939141
-0.0243999
-0.0113548
0.0118596
-0.0247815
-0.0107198
-0.0247905
-0.0321565
-0.0486094
0.0473628
-0.00695394
-0.000276964
-0.0448592
-0.00108127
0.0492031
-0.0472148
-0.00226524
-0.00308423
-0.0465861
0.0459768
-0.0158102
-0.0124472
-0.0455394
0.0447131
-0.0194085
-0.0175079
-0.044347
0.0442988
-0.0210657
-0.0204572
-0.0435901
0.0428252
-0.0209686
-0.0210922
-0.042047
0.0412734
-0.0200938
-0.0205006
-0.0405241
0.039798
-0.0190587
-0.0194955
-0.0391008
0.0384223
-0.0181176
-0.0184919
-0.0377626
0.0371092
-0.0173337
-0.0176286
-0.0364613
0.0358045
-0.0166844
-0.0169173
-0.0351351
0.0344347
-0.016145
-0.0163218
-0.0337009
0.0329237
-0.0157156
-0.0158418
-0.0321203
0.0313026
-0.015166
-0.0154071
-0.0305076
0.0297559
-0.0138813
-0.0145804
-0.0290821
0.0284982
-0.0112988
-0.0126968
-0.0280253
0.0276678
-0.00738989
-0.00943479
-0.0274377
0.027338
-0.00260334
-0.00503954
-0.0273729
0.0275428
0.00244414
-7.58149e-05
-0.0278407
0.0282602
0.00716473
0.00484221
-0.0287802
0.0293879
0.0111005
0.0091841
-0.0300525
0.0307607
0.014009
0.0125936
-0.031481
0.032206
0.015895
0.0149551
-0.0329112
0.0335978
0.0169517
0.0163798
-0.0342503
0.0348772
0.017453
0.017113
-0.0354703
0.0365001
0.0176697
0.0174328
-0.0375349
0.0382535
0.0184195
0.0180633
-0.0384132
0.0391449
0.0191038
0.0187512
0.0203503
-0.0200572
0.0385593
-0.0198217
0.0188449
0.0401217
0.0392248
0.0202338
-0.0199688
0.0372491
0.0382611
0.0201399
-0.0202284
0.0364684
0.0367115
0.0202341
-0.0201577
0.0358087
0.0359906
0.0200016
-0.019768
0.0353238
0.0354208
0.0194634
-0.0188816
0.035039
0.0350375
0.0187122
-0.0184138
0.0348655
0.0350512
0.0186823
-0.0175495
0.0341461
0.0350631
0.0363907
-0.0368306
-0.0172755
-0.0352801
0.034796
-0.0170654
-0.016927
0.0374793
-0.0381515
-0.0181162
-0.0174148
0.0387276
-0.0393208
-0.0190335
-0.0183659
0.0399157
-0.0405227
-0.0199016
-0.0192869
0.0411236
-0.0417242
-0.0202908
-0.0199908
0.0423029
-0.0428621
-0.0194564
-0.0198825
0.043382
-0.0438656
-0.0166447
-0.0181545
0.0442963
-0.0446738
-0.0117064
-0.0142832
0.0449785
-0.045201
-0.00535164
-0.00856664
0.0453216
-0.0453317
0.00139504
-0.00195837
0.0452255
-0.0450047
0.00770481
0.00460422
0.0446801
-0.0442593
0.0129224
0.0103974
0.0437627
-0.0432
0.0165687
0.0148383
0.0425987
-0.0419705
0.0185353
0.0176144
0.0413434
-0.0407244
0.019147
0.0188355
0.0401321
-0.0395617
0.0190255
0.0190007
0.0390171
-0.0384832
0.0187677
0.0187596
0.0379554
-0.0374154
0.0186582
0.0185716
0.0368578
-0.0362656
0.0186424
0.0185371
0.0356354
-0.0349506
0.0184897
0.0184921
0.0342107
-0.0334021
0.0179139
0.0181736
0.0325319
-0.0315963
0.0165795
0.0172732
0.0306161
-0.0296014
0.0141388
0.0154391
0.0285885
-0.0276026
0.01037
0.0123649
0.0266887
-0.0258785
0.00535634
0.0079618
0.0252232
-0.0247641
-0.000407711
0.00250587
0.0242995
-0.0240838
-0.00600165
-0.00328295
0.0243189
-0.0247143
-0.0103243
-0.00835573
-0.00381582
0.00234913
-0.0335132
-0.0378135
-0.0124107
0.0132784
-0.0256582
-0.0258789
-0.0112461
0.00919274
-0.0322739
-0.00845102
-0.0300888
-0.00401927
-0.0457365
0.00254097
-0.043162
-0.00571651
-0.00505429
-0.0408232
0.00502651
-0.0334486
-0.00352797
-0.0282406
0.0401674
-0.0389224
0.0178587
0.0404417
0.0185707
-0.0171793
0.0172108
0.0341145
-0.0165705
0.0341872
0.00138723
-0.0345142
0.00135842
-0.0267583
0.00585666
-0.0257395
0.00965317
-0.0252381
0.0124743
-0.0250146
0.0138771
-0.0253803
0.00747843
-0.0441876
-0.0090274
-0.0456074
0.0478532
0.00523261
-0.0108381
-0.0449484
0.0101791
-0.0134487
-0.0263769
0.0141675
-0.0126284
-0.0266992
-0.0433904
-0.0116352
-0.0314148
-0.0460591
0.0449529
-0.00115905
0.00433506
-0.0467909
0.0481289
-0.0082919
-0.00492219
-0.0476599
0.0469449
-0.0150951
-0.0119783
-0.0468001
0.0463942
-0.0190026
-0.0173632
-0.0457929
0.0450494
-0.0203222
-0.0198559
-0.0442213
0.0433543
-0.0201017
-0.0202641
-0.0424916
0.0416474
-0.0192496
-0.0196378
-0.0408389
0.0400619
-0.0182817
-0.018687
-0.0393206
0.038603
-0.0174
-0.0177505
-0.0379086
0.0372238
-0.0166489
-0.0169342
-0.0365479
0.0358667
-0.0160032
-0.0162414
-0.0351774
0.0344618
-0.0154295
-0.0156324
-0.0337171
0.0329313
-0.0149297
-0.0150971
-0.0321192
0.0312912
-0.0143381
-0.014595
-0.0304851