/*--------------------------------*- C++ -*----------------------------------*\
  =========                 |
  \\      /  F ield         | OpenFOAM: The Open Source CFD Toolbox
   \\    /   O peration     | Website:  https://openfoam.org
    \\  /    A nd           | Version:  10
     \\/     M anipulation  |
\*---------------------------------------------------------------------------*/
FoamFile
{
    format      ascii;
    class       volScalarField;
    location    "37";
    object      p;
}
// * * * * * * * * * * * * * * * * * * * * * * * * * * * * * * * * * * * * * //

dimensions      [0 2 -2 0 0 0 0];

internalField   nonuniform List<scalar> 
6397
(
2.48587
2.06019
0.850675
1.01952
0.950484
0.799528
4.22533
-0.703511
-16.651
-17.1285
7.91523
5.27955
-0.164985
-0.0801216
-0.145898
-4.56507
-3.88683
-6.05683
12.1788
11.3701
10.9801
-23.3838
-21.7657
-19.6833
-0.0327207
0.0301919
0.0561888
-1.88009
-2.1004
-2.19552
-2.51551
1.33224
1.25546
1.15129
1.34142
1.32507
1.37298
1.35684
1.14012
1.11195
1.2475
1.26539
-1.94031
-0.156032
-0.482955
0.594246
0.483346
0.258001
0.836991
0.784715
0.692484
0.679588
0.724418
5.99493
5.79443
1.58997
1.63007
0.00211535
-2.27884
-2.49446
-2.10788
-2.04202
-2.1019
-2.3172
-2.70086
-3.23791
-3.89047
-4.51158
-1.54072
-2.67009
-1.57955
-1.50086
-1.52613
-1.64309
-1.89538
-2.30601
-2.89917
-3.67978
-4.57638
-5.42633
-1.57306
-2.7033
-4.94014
-5.96123
-1.50839
-2.58765
-5.03057
-6.0239
-1.41257
-2.34606
-4.69609
-5.55119
-1.3088
-1.22683
-4.06207
-4.73791
-0.580404
-0.606102
-0.568138
-0.655246
-0.626203
-0.723647
-0.687168
-0.933709
-0.792702
-1.54229
-1.17105
-2.82259
-2.08387
-4.86049
-3.77916
-6.53329
-5.88298
-5.96644
-6.5424
-5.01325
-3.82288
-3.16604
-3.59534
-3.405
-3.71153
-2.59308
-2.97482
-2.16388
-2.29585
-2.36951
-2.18731
-3.12761
-2.70117
-3.88167
-3.58126
-3.75016
-3.94792
-2.92059
-3.38111
-1.18414
-1.71431
-0.651576
-3.93482
-3.8066
-2.23094
-2.67155
-1.94197
-2.95004
-3.65755
-2.64111
-2.53985
-0.0509769
-0.153084
-2.13007
-3.3303
0.07985
0.0343893
0.0778188
0.0969818
-0.0530547
0.0273358
-0.376187
-0.183572
-1.09441
-0.668864
-2.50788
-1.6964
-4.70648
-3.53688
-6.48808
-5.79966
-5.81512
-6.47497
-4.78169
-2.5951
-2.49006
-2.31677
-2.53252
-1.89662
-2.08573
-1.95926
-1.85828
-2.67727
-2.23169
-4.00218
-3.26969
-5.12971
-4.64862
-4.93214
-5.10275
-3.69684
-4.37902
-3.04832
-1.18972
-1.60926
-0.348166
-0.759176
-1.73479
-2.26871
-2.95372
-3.04432
-2.07866
-1.85239
-2.19752
-1.18005
-1.67787
-1.24016
-1.74365
-1.78337
-0.699383
0.00375247
-0.391925
-2.11712
-2.68021
-2.69935
0.416529
0.243002
0.607602
0.543467
0.617941
0.647635
0.468802
0.556736
0.116534
0.320089
-0.614997
-0.18791
-2.01773
-1.2186
-4.15609
-3.02795
-5.88655
-5.21684
-5.18688
-5.85236
-4.15099
-1.37466
-1.24814
-1.52308
-1.486
-1.3627
-1.47867
-1.30065
-1.29816
-1.74101
-1.44624
-2.86943
-2.21359
-4.67878
-3.7192
-6.22542
-5.5822
-6.01477
-6.42872
-4.26379
-5.21118
-3.38453
-1.30931
-1.5744
-1.00347
-1.31671
-2.05433
-2.34987
-1.44777
-1.80917
-1.31475
-1.73309
-1.20224
-0.928686
-1.6289
-1.511
-2.58383
-1.87027
0.30699
-0.0925988
-0.768153
-0.41484
-0.984826
-1.64645
-2.30319
0.792793
0.581115
1.00533
0.933882
0.999995
1.01604
0.856325
0.940561
0.528138
0.721739
-0.148327
0.248163
-1.41304
-0.693334
-3.29486
-2.30417
-4.75282
-4.1974
-4.11517
-4.69457
-2.25194
-3.2142
-0.697189
-1.37277
0.140091
-0.201779
-0.65918
-1.02084
-0.780996
-0.654392
-0.633827
-0.646654
-0.669848
-0.592973
-0.620795
-0.753491
-0.625735
-1.43925
-1.01908
-2.86981
-2.0526
-5.03939
-3.89996
-6.88234
-6.11446
-6.62593
-7.12788
-4.55744
-5.6831
-3.48202
-1.57486
-1.64915
-1.41542
-1.81931
-1.39739
-0.188399
0.381286
-2.05013
-2.02135
-0.594212
-1.27143
-2.28168
-1.50779
-2.11432
-1.49651
-1.95647
-2.40612
-0.819373
-0.0714666
0.539389
-1.32472
-2.14637
0.586195
-0.266538
0.206769
1.07937
0.873024
1.27251
1.20755
1.2641
1.27594
1.13879
1.20958
0.848764
1.01739
0.280903
0.608628
-0.737147
-0.160202
-2.26098
-1.4588
-3.39678
-2.97485
-2.82217
-3.30576
-1.34442
-2.11053
-0.102096
-0.659193
0.620952
0.308738
0.990819
0.842828
-0.584931
-1.40674
-0.928105
-0.197032
-0.346201
-0.0808199
-0.12479
-0.00517207
-0.0497124
0.0168672
0.0246702
-0.250451
-0.0653352
-1.06165
-0.576249
-2.651
-1.74978
-4.99611
-3.76775
-6.95284
-6.14144
-6.6993
-7.15948
-4.48815
-5.71257
-3.29558
-2.78418
-2.11249
0.624377
1.08965
-0.917021
-0.902367
-1.01431
-0.602945
-1.6806
-1.38762
-1.99195
-1.88897
-1.82454
-1.96539
-1.20673
-1.5656
-0.811154
-2.24492
-1.91777
-2.64129
-1.44021
-3.29282
-0.77212
-3.15289
-4.00615
-0.0315716
1.15246
0.662386
0.0569859
-0.431219
-2.19297
0.844648
0.496339
1.27479
1.09943
1.43187
1.37236
1.43384
1.43598
1.33275
1.38797
1.09896
1.22999
0.665839
0.910253
-0.0909203
0.336239
-1.21811
-0.62941
-1.98406
-1.72439
-1.57672
-1.9322
-0.515942
-1.05689
0.412725
-0.00979675
0.993289
0.741902
1.29758
1.17153
1.45628
1.38868
-0.822288
-2.13586
-1.37303
-0.164035
-0.443961
0.191621
0.0415812
0.339934
0.277505
0.450891
0.39554
0.475855
0.486507
0.187852
0.384688
-0.640184
-0.147684
-2.22881
-1.33115
-4.53043
-3.32796
-6.44641
-5.64899
-6.22882
-6.65346
-4.05502
-5.26221
-1.86682
-2.87897
-0.471654
-1.06685
-0.0381419
-0.929681
0.0805125
-0.414415
-1.88639
-1.42977
-2.52786
-2.26866
-2.52891
-2.61237
-1.88913
-2.26873
-4.58812
-3.16414
1.19618
1.51045
-0.954016
-1.42565
-2.65518
-2.00661
-3.48429
-1.53257
-4.60182
-0.843108
-5.72793
-0.0784639
-4.43634
-6.36376
0.680183
1.5527
1.24346
-2.62391
-5.6109
-3.3107
1.56464
1.71119
1.68479
-0.508258
-1.41442
-0.849883
-2.43378
0.368453
-0.0592481
1.05454
0.755236
1.39746
1.25726
1.52515
1.47435
1.53771
1.53629
1.47046
1.50854
1.29768
1.39333
0.977556
1.15443
0.441498
0.737566
-0.285817
0.0829605
-0.70566
-0.586324
-0.459975
-0.675871
0.195128
-0.143384
0.8186
0.527774
1.2477
1.06022
1.49837
1.3889
1.65048
1.58219
1.69117
-1.12495
-1.80369
-0.234294
-0.618169
0.239934
0.0299223
0.524087
0.399065
0.668245
0.607751
0.771903
0.722026
0.798385
0.804975
0.542896
0.718593
-0.210176
0.239686
-1.65647
-0.839426
-3.73734
-2.65162
-5.4622
-4.74923
-5.27486
-5.65174
-3.34113
-4.41764
-1.34723
-2.26876
-0.0834924
-0.628498
0.321287
0.189647
0.630413
-0.910669
-0.330511
-2.11913
-1.51592
-3.07426
-2.6621
-3.26912
-3.2894
-2.5812
-3.02157
-2.01487
-3.34524
-2.28012
-4.73165
-1.76725
-6.40102
-1.01441
-7.84569
-0.17369
-8.02142
0.7374
-3.41924
-5.95497
1.27439
1.61946
1.48658
-1.35115
-2.80206
-0.800513
1.54037
1.899
1.81015
-1.83959
-1.14572
-0.0517429
-0.401917
-2.91556
0.653643
0.278748
1.20067
0.948414
1.46731
1.35015
1.5697
1.52477
1.59493
1.58597
1.56026
1.58608
1.44331
1.51221
1.22524
1.34752
0.8737
1.06747
0.423922
0.647601
0.232113
0.26541
0.444162
0.305678
0.77314
0.60211
1.13998
0.958454
1.43957
1.30226
1.66081
1.55595
1.83003
1.74815
1.92746
1.9076
1.93402
-1.118
-1.42738
-0.321914
-0.706247
0.249402
-0.0111788
0.59218
0.443241
0.806934
0.710764
0.924418
0.877706
0.992504
0.960234
1.01269
1.01719
0.808501
0.949812
0.183747
0.558231
-1.03277
-0.346062
-2.7629
-1.86814
-4.17308
-3.58844
-4.04608
-4.34837
-2.43856
-3.33931
-0.793978
-1.54518
0.26088
-0.195793
0.600854
1.0436
1.24879
0.280767
0.715366
-0.85167
-0.237925
-2.29409
-1.55171
-3.54984
-2.98673
-3.9214
-3.88087
-3.18177
-3.67346
-2.5448
-4.38472
-2.75354
-6.40459
-2.12769
-8.54366
-1.23274
-9.78855
-0.279851
-8.75809
0.654607
-5.34933
1.26308
0.103081
-1.58007
1.31867
1.67851
1.46245
-0.596007
-3.6744
0.317987
-0.180248
0.00246651
0.872784
0.567532
1.28057
1.08711
1.48865
1.39982
1.58579
1.54848
1.63099
1.6171
1.6225
1.63857
1.54697
1.5974
1.39253
1.4833
1.15762
1.28544
0.915843
1.02825
0.868994
0.854713
1.03192
0.938367
1.18313
1.10679
1.38273
1.27296
1.58191
1.48681
1.74323
1.66406
1.88177
1.81885
1.92543
1.9143
1.86136
1.90629
1.73993
1.79977
0.0823597
1.1601
0.523097
-0.0367074
-0.0749154
0.266019
0.104326
0.568876
0.418657
0.826206
0.707672
1.00906
0.926281
1.11062
1.0734
1.14182
1.13067
1.14614
1.15241
0.99453
1.09997
0.512832
0.801942
-0.435141
0.0968009
-1.75597
-1.07861
-2.82782
-2.38014
-2.74848
-2.97152
-1.52682
-2.20986
-0.271253
-0.848522
0.539158
0.185699
1.01771
0.818664
1.16508
1.11009
1.38428
1.29899
0.423691
0.823621
-0.769703
-0.106598
-2.39955
-1.54423
-3.86811
-3.203
-4.36747
-4.27956
-3.57596
-4.11555
-2.07896
-2.8656
-0.609232
-1.28851
0.996339
1.74305
1.51775
1.67105
-5.7614
-3.39241
1.29732
-8.31604
-2.52693
0.227484
-0.366635
0.300946
-10.428
-1.42126
-10.6888
-0.230447
-7.92076
0.621787
-3.78868
1.18048
-0.297775
1.11769
2.11719
1.64954
1.37932
1.36347
1.57228
-4.66945
0.563008
0.364677
0.998712
0.792835
1.30973
1.18111
1.48897
1.42003
1.58886
1.55103
1.63763
1.62127
1.63493
1.64587
1.58317
1.61867
1.48822
1.54322
1.37171
1.43275
1.26348
1.31346
1.26259
1.24035
1.38103
1.31862
1.45195
1.41927
1.55382
1.49262
1.68401
1.61972
1.8076
1.74484
1.93022
1.87288
1.98612
1.9737
1.94914
1.98083
1.80818
1.88955
1.62792
1.72055
1.68666
2.25625
2.04895
0.925744
1.26899
0.663445
0.720986
0.721287
0.669121
0.86083
0.790827
0.992312
0.929655
1.11012
1.05303
1.20673
1.16641
1.23437
1.22896
1.22266
1.23324
1.11562
1.1876
0.769129
0.977499
0.0761883
0.462989
-0.875145
-0.388619
-1.63306
-1.31621
-1.57725
-1.73238
-0.71884
-1.19673
0.167057
-0.241995
0.749434
0.490844
1.11792
0.963286
1.23195
1.41215
1.40326
1.17451
1.31887
0.518825
0.919633
-0.71191
-0.0328626
-2.44036
-1.4821
-3.95197
-3.26918
-4.51106
-4.39722
-3.70752
-4.26319
-2.11948
-2.95282
-1.26697
2.26653
2.29932
1.43561
1.53321
-7.2837
-4.07629
0.640703
0.646278
-9.9244
-2.82867
-11.1755
-1.44188
-9.69312
-0.202149
-6.00433
0.585843
-2.07351
0.999636
0.691358
0.984794
2.00291
1.22957
2.2243
2.25485
1.20191
2.12569
1.98164
2.07686
1.33819
1.29556
1.45336
-5.73729
0.770296
0.659906
1.07893
0.93617
1.31959
1.22286
1.47534
1.41453
1.57184
1.53198
1.62124
1.60202
1.63077
1.63032
1.61463
1.62779
1.57768
1.60104
1.52137
1.55288
1.47338
1.49269
1.50227
1.47586
1.5916
1.54758
1.6315
1.61679
1.67535
1.64741
1.75677
1.71307
1.85247
1.80373
1.93888
1.90021
1.98087
1.96064
1.9562
1.97881
1.87175
1.91885
1.73586
1.81423
1.5761
1.64678
2.22178
2.21687
1.8949
2.11098
1.36979
1.62474
1.07564
1.19091
1.01588
1.02061
1.08251
1.04485
1.15208
1.1203
1.21018
1.18283
1.26603
1.24095
1.28752
1.28245
1.2702
1.28257
1.18528
1.23699
0.944172
1.08644
0.463395
0.730804
-0.18575
0.142448
-0.666571
-0.472263
-0.607917
-0.715742
-0.0717669
-0.368996
0.491368
0.229695
0.891654
0.715916
1.16007
1.04928
1.28646
1.24847
1.31372
1.36932
1.3818
1.16214
1.29524
0.509539
0.913957
-0.70488
-0.0369234
-2.32714
-1.47913
-3.77368
-3.11843
-4.29687
-4.1967
-3.48759
-4.04384
-1.86699
-2.72236
-0.0865019
-0.958554
0.652354
0.429399
-8.5073
-4.59586
1.54146
1.39645
0.784833
0.692958
0.808462
1.69278
1.66261
-10.4975
-2.91016
-10.2218
-1.34181
-7.5081
-0.199564
-3.8754
0.524746
-0.733597
0.751024
1.30552
0.894403
2.12558
0.974056
1.79674
1.70469
1.51039
1.57991
2.14083
1.02636
1.88702
0.66538
1.2755
0.813841
-6.55441
0.839346
0.819562
0.928062
0.871547
1.13245
1.03308
1.32104
1.24066
1.45806
1.40203
1.55346
1.51357
1.61307
1.58826
1.64004
1.62941
1.63834
1.6422
1.61419
1.62781
1.59279
1.60117
1.60165
1.59211
1.65066
1.62137
1.71123
1.68187
1.73725
1.72947
1.75648
1.74362
1.80884
1.77887
1.88467
1.84552
1.95214
1.92218
1.98687
1.97318
1.96471
1.98463
1.89428
1.93272
1.79788
1.84986
1.74227
2.00627
1.87261
2.12883
2.09897
1.93667
2.07321
1.57811
1.75486
1.33404
1.43816
1.21697
1.26274
1.20015
1.19873
1.2382
1.21569
1.28907
1.2657
1.3219
1.30882
1.32664
1.32804
1.30017
1.31622
1.22195
1.26645
1.04862
1.14823
0.723585
0.902266
0.31413
0.514027
0.0496231
0.14907
0.0887157
0.0316307
0.378113
0.220769
0.715324
0.55488
0.984673
0.866352
1.17027
1.09201
1.26234
1.23414
1.27687
1.28567
1.21069
1.29098
1.31004
1.07417
1.2218
0.413055
0.805801
-0.705347
-0.0924537
-2.13589
-1.40375
-3.3622
-2.81347
-3.76414
-3.7026
-2.97793
-3.50988
-1.42949
-2.24904
0.0423491
-0.622072
0.456213
1.19319
0.897785
1.52804
1.65255
-8.85983
-4.71951
-9.61051
-2.72899
-8.04088
-1.19754
1.36594
-5.06779
-0.226595
-2.14916
0.387184
0.165322
0.445064
1.27998
1.24652
1.02343
1.01515
1.64539
0.737073
1.32154
2.09093
0.667998
1.65174
1.96637
0.850725
0.98346
1.0103
1.08419
1.52227
1.6549
1.00609
-6.76842
0.879719
0.957623
0.900704
0.923581
0.89631
1.01941
0.964184
1.16637
1.08859
1.31679
1.24645
1.43661
1.38332
1.52526
1.48686
1.58515
1.55835
1.61901
1.60281
1.63617
1.6279
1.64515
1.64091
1.65132
1.64835
1.67079
1.65821
1.71894
1.69507
1.77332
1.74785
1.79765
1.79003
1.80887
1.80199
1.84336
1.82265
1.90125
1.8709
1.95562
1.93103
1.98499
1.97366
1.97328
1.98519
1.92403
1.95178
1.8472
1.88888
1.77635
1.80693
1.75319
1.75787
1.66102
1.78197
1.76199
1.61776
1.44529
1.88682
1.76674
2.0083
1.97167
1.90475
1.98482
1.6525
1.78808
1.44405
1.54121
1.33153
1.37408
1.30935
1.31338
1.31164
1.31014
1.32049
1.31531
1.33226
1.32674
1.33018
1.33371
1.30061
1.32023
1.22938
1.27133
1.09297
1.17142
0.870108
0.990303
0.63088
0.742413
0.498567
0.54551
0.519055
0.488888
0.658023
0.578414
0.853399
0.75169
1.03405
0.946625
1.16273
1.10301
1.22253
1.20326
1.21451
1.23797
1.19298
1.17005
1.13637
1.13168
1.16662
0.875804
1.04563
0.255904
0.611464
-0.716595
-0.189639
-1.88222
-1.29492
-2.80437
-2.40737
-2.9925
-3.01211
-2.2394
-2.72445
-0.952601
-1.61658
0.147569
-0.344756
0.718054
0.497467
0.881008
-8.09658
-4.37619
1.80759
1.87962
1.92061
-7.66626
-2.41216
1.11862
-5.62878
-1.09486
-3.08032
-0.322428
1.34491
0.786838
0.833013
0.635667
0.549137
-0.949517
0.12545
0.736017
0.779281
0.0738973
1.66483
1.51155
1.01999
1.81151
0.388967
1.36554
1.96999
0.437859
1.72619
0.99519
1.02468
1.04318
1.04222
1.06984
0.9267
1.07719
-6.21713
0.949802
0.966188
0.974879
0.954231
1.06263
1.0124
1.18489
1.12097
1.31145
1.24916
1.41878
1.36768
1.50403
1.465
1.56656
1.53873
1.60756
1.58862
1.63192
1.62075
1.6472
1.63955
1.66813
1.65621
1.70565
1.68527
1.75462
1.72803
1.79943
1.77882
1.82465
1.81448
1.83988
1.83196
1.86709
1.85112
1.91161
1.8881
1.9555
1.93502
1.98082
1.97131
1.97617
1.98242
1.94444
1.96293
1.8943
1.92086
1.84659
1.86708
1.83687
1.83625
1.85042
1.21759
1.02858
1.53734
1.38849
1.77268
1.66626
1.89466
1.85222
1.83977
1.89042
1.66552
1.75788
1.51714
1.58502
1.41342
1.4608
1.35563
1.37758
1.34055
1.34443
1.34377
1.34093
1.34533
1.34543
1.33291
1.34109
1.29696
1.31908
1.22761
1.26772
1.11241
1.17816
0.95199
1.03754
0.809134
0.875112
0.742392
0.76673
0.749432
0.735457
0.821712
0.769964
0.935087
0.869821
1.04885
0.989842
1.1307
1.0951
1.16957
1.16299
1.15704
1.17681
1.11756
0.990199
0.907083
0.972376
1.00035
0.997475
0.913733
0.975424
0.589909
0.787101
0.0190991
0.333982
-0.770953
-0.35466
-1.60812
-1.19901
-2.18192
-1.95162
-2.15198
-2.25447
-1.44186
-1.87274
-0.426294
-0.931047
0.381213
0.0180511
0.849779
0.666887
0.96472
1.8337
1.96585
-6.55391
-3.7571
0.701523
-5.56026
-2.12825
0.441994
0.552343
0.402975
0.259749
-3.67971
-1.10233
1.0375
0.315898
-1.69646
-0.544421
0.456885
-0.100571
-0.327552
1.66872
1.30585
0.688452
1.24558
-0.383365
1.48199
1.02184
1.84384
-0.127175
1.42144
1.75926
1.08418
0.854509
1.87517
2.01857
-5.16892
1.01612
1.07401
1.04724
0.992883
0.999237
1.01556
0.999395
1.08973
1.04621
1.19501
1.13996
1.30429
1.24914
1.40104
1.35348
1.48108
1.4433
1.54317
1.51472
1.58932
1.56783
1.62422
1.60736
1.65285
1.63876
1.6803
1.66632
1.71487
1.69659
1.7627
1.73571
1.80902
1.78798
1.8362
1.82466
1.85407
1.84499
1.87959
1.86499
1.91698
1.89746
1.95394
1.93628
1.97639
1.96729
1.97873
1.98007
1.96132
1.97235
1.93077
1.94652
1.90644
1.91671
1.91
1.90344
1.96167
1.92801
2.06705
2.01028
2.09015
2.21133
2.13011
0.872376
0.709843
1.1957
1.03679
1.46747
1.34017
1.67608
1.58062
1.78422
1.74566
1.76273
1.78975
1.65598
1.71577
1.53244
1.59349
1.43459
1.47822
1.38644
1.40445
1.36757
1.37555
1.35568
1.36085
1.34475
1.35011
1.32567
1.33638
1.28708
1.309
1.22273
1.25798
1.127
1.17914
1.00989
1.07104
0.916968
0.959951
0.875956
0.893276
0.873799
0.871442
0.90863
0.886451
0.973387
0.940145
1.04384
1.01357
1.09649
1.07879
1.12172
1.11389
1.10862
1.10218
1.03777
1.04745
0.934795
0.838103
0.857542
0.78375
0.821314
0.572958
0.704998
0.164227
0.383895
-0.333978
-0.0716331
-0.9049
-0.618526
-1.38127
-1.16744
-1.57189
-1.52393
-1.31187
-1.5033
-0.648558
-1.01834
0.13113
-0.245112
0.717451
0.455612
1.03564
0.918756
1.11724
1.09202
1.11382
1.12413
0.278397
-4.95288
-3.16737
1.09591
0.6976
0.256751
0.0884087
-3.9013
-1.98411
2.30421
2.188
0.614851
0.094884
-2.32658
-1.3277
1.94212
0.174652
-0.711251
-0.927311
1.69308
0.969993
0.354318
0.543221
-0.991643
1.4553
0.621192
1.58222
-0.954098
1.24071
1.03768
1.69542
-0.685002
1.45279
2.391
2.45624
2.49973
0.125687
0.0356191
-4.11954
1.06605
1.08055
1.08514
1.02336
1.043
1.01727
1.01561
1.04624
1.02697
1.11004
1.07235
1.20072
1.15244
1.29704
1.24817
1.38566
1.34171
1.4616
1.42512
1.52327
1.49473
1.57155
1.54921
1.6102
1.59177
1.64452
1.62746
1.68064
1.66206
1.72091
1.70055
1.76455
1.74219
1.80539
1.78618
1.83564
1.82155
1.85877
1.84743
1.88408
1.8703
1.91672
1.89975
1.95065
1.93379
1.97143
1.96226
1.9798
1.97729
1.97498
1.97891
1.96133
1.96855
1.95468
1.95577
1.97233
1.95907
2.0331
1.99597
2.14889
2.08552
2.29485
2.21791
2.38151
0.404657
0.204883
0.291099
0.644698
0.522333
0.9099
0.77327
1.17651
1.04571
1.40772
1.2979
1.58768
1.50657
1.68725
1.64988
1.69109
1.70211
1.61464
1.65931
1.52222
1.56739
1.45033
1.48342
1.40035
1.42244
1.37158
1.38403
1.35337
1.36164
1.33751
1.34555
1.31472
1.32736
1.27603
1.29745
1.21721
1.24879
1.13914
1.18047
1.05199
1.09595
0.986187
1.01573
0.953127
0.966876
0.943346
0.945748
0.957096
0.947908
0.992189
0.972777
1.03405
1.01376
1.06508
1.05204
1.07005
1.06979
1.03825
1.0532
0.955478
1.00534
0.805107
0.897963
0.62413
0.673944
0.473344
0.568922
0.115496
0.324879
-0.38162
-0.134516
-0.813008
-0.605544
-1.12773
-0.99132
-1.22855
-1.21107
-1.0472
-1.17462
-0.58671
-0.850734
0.0582867
-0.275046
0.677527
0.389995
1.05642
0.899403
1.20988
1.1613
1.19557
1.21707
1.13577
1.17009
1.10718
-0.0651502
-3.76716
-2.79875
2.44594
2.47869
2.52176
0.571039
1.0577
2.29473
0.0996112
-0.109653
-2.81435
-2.06608
2.04808
-0.097768
-1.38283
-1.83076
1.7656
0.582727
0.0117594
0.0180267
-1.60134
1.47575
0.219605
0.970523
-1.86969
0.930695
1.20111
0.572567
1.69166
-1.63419
1.04332
1.34119
0.188372
-0.226731
-0.178944
-3.40032
1.04799
1.06139
1.02525
1.03302
1.03056
1.02331
1.06454
1.04298
1.12418
1.08989
1.20348
1.16115
1.28952
1.24618
1.37123
1.33107
1.44348
1.40888
1.50473
1.47607
1.55513
1.53155
1.59781
1.57757
1.63567
1.61717
1.6732
1.65413
1.71469
1.69346
1.7591
1.73684
1.79896
1.78018
1.82976
1.81516
1.85543
1.84267
1.88267
1.86836
1.91324
1.89771
1.94113
1.92836
1.96635
1.95552
1.98047
1.97465
1.9862
1.98411
1.98781
1.98728
1.99476
1.9894
2.02699
2.00666
2.09533
2.05548
2.21335
2.14845
2.3589
2.28544
2.47678
2.42429
2.45283
2.54211
2.59079
2.51873
0.520718
0.366598
0.428516
0.723396
0.620516
0.942645
0.830843
1.16253
1.0546
1.35585
1.26351
1.51242
1.43958
1.60629
1.5695
1.61766
1.62119
1.57207
1.59946
1.50659
1.54031
1.44275
1.47312
1.39627
1.41673
1.36853
1.38088
1.34741
1.35752
1.3273
1.33759
1.30179
1.3156
1.26402
1.28482
1.2108
1.23946
1.14639
1.1807
1.0793
1.11308
1.02793
1.05111
0.997178
1.00936
0.981004
0.9858
0.981146
0.978948
0.997174
0.988419
1.01905
1.00877
1.03113
1.02566
1.01982
1.02609
0.974237
1.0012
0.89226
0.944572
0.7637
0.849224
0.523402
0.563738
0.396032
0.47131
0.111903
0.289188
-0.460205
-0.144544
-1.08512
-0.79348
-1.42486
-1.29459
-1.4407
-1.47259
-1.1494
-1.33071
-0.615589
-0.907234
0.0381153
-0.294854
0.652801
0.361892
1.10277
0.901948
1.32172
1.24226
1.3487
1.35346
1.25551
1.31401
1.15233
1.2073
1.10815
2.39119
-1.09066
-0.301569
-3.08817
-2.69248
0.997332
0.353378
2.18231
-0.351585
-2.15372
-2.52744
0.928913
2.6567
2.70054
1.88972
0.0461801
-0.161595
-0.0947044
-0.33331
-0.730885
-2.63025
1.55586
-0.191252
0.455486
-2.86982
0.556248
1.21276
0.082676
1.12631
-3.053
0.906109
0.493247
1.4635
-2.32878
2.41989
2.52712
0.952873
2.63311
-0.514379
-0.458742
-3.07481
1.02753
1.0219
1.0232
1.02364
1.03685
1.02687
1.07371
1.05194
1.13156
1.09973
1.20383
1.16604
1.28224
1.24315
1.3583
1.32125
1.4274
1.39426
1.48753
1.45907
1.53872
1.51445
1.58371
1.56207
1.62486
1.60463
1.66527
1.64494
1.70646
1.68569
1.7483
1.72739
1.78748
1.7685
1.82104
1.80495
1.84921
1.83549
1.877
1.86274
1.90694
1.89172
1.93612
1.92206
1.96148
1.94966
1.98042
1.97172
1.99523
1.98813
2.00882
2.00207
2.02857
2.01679
2.07241
2.04699
2.14753
2.10522
2.26343
2.20008
2.39903
2.33223
2.50235
2.45497
2.63873
2.55594
0.390846
0.240143
0.525221
0.499598
0.492867
0.622829
0.549389
0.791096
0.705203
0.970048
0.878089
1.15262
1.06311
1.31443
1.23648
1.45
1.38656
1.53233
1.49937
1.55543
1.54928
1.52582
1.54358
1.47557
1.50209
1.42518
1.449
1.3867
1.40432
1.35872
1.37181
1.33561
1.34685
1.31345
1.32486
1.28701
1.30108
1.25198
1.27111
1.20397
1.22948
1.14977
1.17834
1.09508
1.12244
1.05079
1.07089
1.02036
1.03304
1.00022
1.0078
0.991902
0.994222
0.993181
0.991493
0.998143
0.995643
0.995001
0.99758
0.973194
0.986861
0.921993
0.954833
0.843882
0.893313
0.723875
0.797518
0.563863
0.644019
0.387329
0.473922
0.445851
0.149495
0.294142
-0.356015
-0.0584402
-1.15753
-0.739325
-1.88568
-1.55843
-2.13333
-2.08075
-1.82546
-2.0417
-1.13146
-1.5122
-0.284795
-0.714422
0.515854
0.131885
1.12633
0.8516
1.45178
1.32506
1.51444
1.50992
1.43751
1.48308
1.29222
1.37454
1.15958
1.23223
1.02018
1.09033
0.969048
2.30921
-0.591129
-2.80504
-2.90542
0.951492
2.7364
0.478832
2.04367
2.4683
2.34329
0.174992
-0.0296742
-1.27442
-0.664231
-1.83057
-3.47542
1.69037
-0.625413
-0.393177
-4.02007
-0.177309
2.59248
1.28878
-0.414546
0.579814
-4.84655
0.904405
-0.122581
1.07202
-4.57766
0.519765
0.361257
0.993566
2.7851
-0.884088
-0.445792
-0.804631
2.75488
-0.799241
-3.06712
0.997267
0.976908
1.0152
1.00706
1.03809
1.02424
1.07801
1.05543
1.13458
1.10402
1.20227
1.16718
1.27491
1.23857
1.34648
1.31149
1.41277
1.38077
1.47186
1.44366
1.52353
1.49881
1.5696
1.54732
1.61215
1.59128
1.65368
1.6329
1.69559
1.67457
1.73692
1.71649
1.77502
1.75645
1.80897
1.79243
1.83984
1.82466
1.8694
1.85463
1.89906
1.88412
1.92866
1.91406
1.95588
1.94278
1.9794
1.96804
2.00201
1.99069
2.02493
2.01333
2.0563
2.03855
2.10939
2.07993
2.18887
2.14529
2.30268
2.24181
2.42844
2.36711
2.53238
2.48116
2.67277
2.59485
2.83956
2.8561
2.76121
2.81972
0.473504
0.337895
0.639243
0.691692
0.591194
0.617757
0.613042
0.711726
0.653971
0.845908
0.777273
0.99366
0.917613
1.14564
1.07095
1.28121
1.21577
1.395
1.34157
1.46889
1.43808
1.488
1.48553
1.47659
1.48666
1.44243
1.46084
1.40348
1.42262
1.3701
1.38585
1.3435
1.35621
1.32057
1.33186
1.29783
1.30951
1.27134
1.28542
1.23992
1.25639
1.19569
1.21852
1.14894
1.17314
1.10252
1.1253
1.06285
1.08084
1.03159
1.04554
1.00751
1.01833
0.991872
0.9989
0.983577
0.986925
0.977094
0.979929
0.962756
0.970839
0.932382
0.950643
0.878958
0.911028
0.799133
0.845662
0.688813
0.750719
0.546501
0.618595
0.466336
0.379097
0.372744
0.373163
0.279392
0.358168
-0.0995592
0.134194
-0.849442
-0.425357
-1.89197
-1.35824
-2.76059
-2.38145
-2.91792
-2.9495
-2.26234
-2.67355
-1.16908
-1.7439
-0.0230915
-0.583314
0.91042
0.482332
1.47943
1.24205
1.69579
1.62552
1.66258
1.70405
1.5101
1.58883
1.32567
1.4244
1.16185
1.25173
0.996082
1.07244
0.909106
0.948585
2.20001
-0.270472
-1.25453
-0.982919
-0.58509
-2.84962
-1.33145
-0.9707
-2.86946
-3.65189
1.86805
-1.0494
-1.81756
-4.99288
2.94786
2.95459
-1.17489
2.73007
2.91185
2.89245
0.736901
0.778075
0.291246
0.378523
0.307515
0.870584
0.890365
0.843628
1.4342
-0.951982
-0.296182
-6.27454
2.22944
2.37829
0.973024
-0.728227
0.500839
-7.07159
-0.111621
0.528743
-1.84198
-1.50094
-0.320858
0.715706
-5.72826
0.389489
-1.21908
-3.44423
0.919185
0.894923
0.965862
0.943132
1.00059
0.984664
1.0337
1.01595
1.07765
1.05401
1.13393
1.10421
1.19898
1.16554
1.26755
1.23315
1.33543
1.30199
1.39927
1.3682
1.45727
1.42936
1.50912
1.4841
1.55605
1.53324
1.5996
1.57821
1.64155
1.62072
1.68312
1.66231
1.72392
1.70376
1.7621
1.74339
1.79663
1.7798
1.82833
1.81266
1.85918
1.84376
1.89014
1.87462
1.92049
1.9055
1.94958
1.9352
1.97784
1.96379
2.00698
1.99226
2.03779
2.02199
2.07908
2.05628
2.13912
2.10684
2.22197
2.177
2.33394
2.27497
2.45324
2.39498
2.56442
2.50784
2.70268
2.62958
2.86994
2.78295
2.93318
0.326728
-0.0388451
0.153666
0.582391
0.466163
0.761952
0.678856
0.717389
0.715104
0.787686
0.744053
0.89267
0.837863
1.01352
0.95131
1.14013
1.07756
1.25312
1.19877
1.34902
1.30347
1.41438
1.38672
1.43632
1.43009
1.43122
1.43636
1.40822
1.42135
1.37722
1.39281
1.34927
1.36269
1.32541
1.33706
1.30344
1.31439
1.281
1.2925
1.25482
1.26879
1.22004
1.23942
1.18585
1.20502
1.14519
1.16597
1.10435
1.12428
1.06694
1.08444
1.03475
1.04974
1.0082
1.02087
0.987575
0.997434
0.971571
0.979063
0.955474
0.963403
0.932317
0.944975
0.895602
0.916599
0.839841
0.871638
0.761085
0.80403
0.657333
0.712166
0.524841
0.594532
0.453312
0.264364
0.27269
0.152212
0.242368
-0.353467
-0.0402738
-1.35165
-0.797038
-2.63443
-1.98518
-3.61894
-3.20753
-3.66068
-3.78138
-2.68867
-3.27522
-1.23765
-1.98257
0.15163
-0.511832
1.18776
0.722823
1.76286
1.53279
1.91036
1.8841
1.78854
1.87016
1.58
1.68471
1.36113
1.4746
1.16902
1.26948
0.993019
1.07135
0.938429
2.06193
-0.284478
-1.92694
-1.44662
-3.31785
-5.08004
2.96027
-2.94985
2.87584
0.834346
0.379998
0.313953
0.831114
0.798509
1.63953
-1.50971
-1.90974
-7.17884
2.52492
1.11561
-1.40331
-0.201889
-8.69345
2.08473
2.25892
-0.901503
0.59745
-2.62462
-2.17524
-1.06734
0.221225
-8.43106
0.0540915
-0.551827
-0.0214585
-0.593472
-0.997668
-1.76705
-4.38692
0.890029
0.861716
0.93985
0.916183
0.983289
0.961782
1.02563
1.00402
1.07399
1.04883
1.13063
1.1013
1.19383
1.16152
1.25976
1.22667
1.32492
1.29266
1.38676
1.35646
1.44368
1.41601
1.49541
1.47024
1.5428
1.51966
1.5869
1.56521
1.62922
1.60826
1.67042
1.64993
1.71054
1.69059
1.74835
1.72974
1.78359
1.76627
1.81637
1.80021
1.84765
1.83207
1.87938
1.86338
1.91123
1.89541
1.94254
1.92691
1.9749
1.95847
2.00976
1.9921
2.04773
2.02804
2.09754
2.07056
2.16364
2.12874
2.249
2.20324
2.35859
2.30149
2.47549
2.41739
2.59329
2.53322
2.7279
2.65839
2.88424
2.8037
3.05184
3.05365
2.96872
3.05155
3.05118
3.03415
3.04613
-5.66905
3.02324
3.02636
0.489545
0.210545
0.35695
0.695647
0.601569
0.841439
0.773642
0.900571
0.958264
0.902742
0.820605
0.853747
0.802103
0.802765
0.851245
0.819645
0.932481
0.889612
1.03032
0.979668
1.1351
1.08304
1.22991
1.18427
1.31004
1.27193
1.36625
1.34198
1.38931
1.38148
1.38876
1.39113
1.37306
1.38241
1.34935
1.36156
1.32631
1.33756
1.30537
1.31574
1.28475
1.29513
1.26316
1.27421
1.23829
1.25148
1.20801
1.2241
1.17554
1.19265
1.13898
1.15747
1.10161
1.11996
1.0659
1.08308
1.03379
1.04936
1.00509
1.01923
0.980085
0.992122
0.957575
0.96841
0.934046
0.945941
0.904352
0.920462
0.862977
0.885799
0.804856
0.836502
0.7264
0.768476
0.628099
0.679896
0.505516
0.569083
0.444077
0.221704
0.246169
0.239243
0.151637
0.190685
-0.0177614
0.0962486
-0.602039
-0.239618
-1.76067
-1.12312
-3.20959
-2.47842
-4.30155
-3.85344
-4.27437
-4.45539
-3.03882
-3.77289
-1.2976
-2.18037
0.284077
-0.461477
1.3925
0.907099
1.93602
1.73174
2.04202
2.03173
1.89341
1.98866
1.65091
1.77379
1.39467
1.52717
1.17823
1.28438
0.999516
1.08126
0.871437
0.931689
0.76384
0.8141
1.86781
0.0310283
-2.72201
-2.05406
-4.00564
-7.01204
2.68269
1.33377
-2.13078
-1.64065
-9.38461
2.41556
3.14142
3.13754
0.959325
1.00877
-2.49468
0.183937
0.252022
0.195566
0.719694
0.726593
0.677883
0.729784
-1.49379
-1.91392
-0.235753
-9.8955
1.86601
2.06437
0.176959
-0.587276
-1.6057
-0.54539
-7.93253
-3.71226
-3.096
-1.05163
3.01683
3.1736
3.18688
-0.187586
-0.453626
-2.49899
-5.74175
2.84884
0.79435
0.758205
0.860817
0.828514
0.916247
0.889751
0.96562
0.941449
1.01495
0.989976
1.06766
1.04075
1.12552
1.09599
1.18759
1.15613
1.25153
1.21949
1.31467
1.28336
1.37496
1.34529
1.43104
1.40358
1.48256
1.4574
1.5301
1.50681
1.57446
1.55263
1.61672
1.5958
1.65768
1.63735
1.69731
1.67767
1.73467
1.71626
1.76994
1.75252
1.80341
1.78687
1.83549
1.81953
1.8678
1.85154
1.90079
1.88422
1.93449
1.9175
1.97057
1.9521
2.01024
1.99003
2.05482
2.03156
2.11157
2.08135
2.18311
2.14556
2.27166
2.22496
2.37873
2.32336
2.49483
2.43623
2.6172
2.55493
2.75098
2.6825
2.89965
2.8236
3.05726
2.97814
3.15299
3.14514
3.15573
3.15319
3.16346
0.465546
0.209845
0.346961
0.659298
0.567588
0.811498
0.740236
0.927408
0.872363
1.02219
0.976966
0.892329
0.920242
0.873824
0.876523
0.905552
0.884296
0.966574
0.933666
1.04482
1.004
1.13074
1.08776
1.21002
1.17186
1.27609
1.24472
1.32426
1.30294
1.34675
1.33854
1.34896
1.34964
1.33875
1.34511
1.32089
1.33039
1.30196
1.31129
1.28388
1.29294
1.26498
1.27455
1.2449
1.25519
1.22189
1.23402
1.19463
1.2089
1.16428
1.17996
1.13094
1.14771
1.09633
1.11351
1.06221
1.07902
1.02976
1.0459
0.999017
1.01424
0.970572
0.984429
0.943178
0.956635
0.91405
0.928962
0.879015
0.897763
0.833586
0.857966
0.773497
0.80554
0.695996
0.736979
0.599848
0.650417
0.49022
0.546726
0.375743
0.434186
0.314219
0.153051
0.17215
0.0565731
0.115708
-0.189556
-0.0349076
-0.811989
-0.427558
-2.03567
-1.36214
-3.59044
-2.8049
-4.73643
-4.27465
-4.63137
-4.86959
-3.21296
-4.04065
-1.31591
-2.26964
0.359999
-0.424235
1.5122
1.00892
2.07753
1.86693
2.14796
2.16123
1.96121
2.06948
1.69744
1.8316
1.41518
1.55995
1.17757
1.2892
0.99525
1.08035
0.845578
0.917833
0.781069
1.6034
0.062621
-3.87591
-2.80415
-4.55727
-8.77424
2.59321
3.20631
3.0011
3.13555
1.06343
-4.39195
0.255534
0.203076
0.679498
0.635447
0.923669
-0.782369
-2.77704
-1.52952
-10.399
2.23462
0.259508
-1.60122
-2.74885
-0.82575
-9.10167
-2.27558
-0.334674
-2.18319
-1.81592
3.24297
1.73534
0.606993
0.559742
1.49627
3.40708
3.48039
-3.43964
-6.89062
2.79307
0.760842
0.722053
0.831194
0.797181
0.89319
0.863323
0.948665
0.92132
1.0031
0.975712
1.05941
1.03096
1.1187
1.08873
1.18049
1.14941
1.24314
1.21183
1.30478
1.27421
1.36381
1.33469
1.41916
1.39197
1.47047
1.44532
1.51801
1.49467
1.5625
1.54058
1.60458
1.58378
1.64511
1.625
1.68409
1.66483
1.72113
1.70287
1.7563
1.7389
1.7898
1.77324
1.82224
1.80602
1.85534
1.83862
1.88931
1.87219
1.92511
1.90686
1.9647
1.94433
2.00866
1.98616
2.05922
2.03274
2.12181