/*--------------------------------*- C++ -*----------------------------------*\
  =========                 |
  \\      /  F ield         | OpenFOAM: The Open Source CFD Toolbox
   \\    /   O peration     | Website:  https://openfoam.org
    \\  /    A nd           | Version:  10
     \\/     M anipulation  |
\*---------------------------------------------------------------------------*/
FoamFile
{
    format      ascii;
    class       surfaceScalarField;
    location    "4.5";
    object      phi;
}
// * * * * * * * * * * * * * * * * * * * * * * * * * * * * * * * * * * * * * //

dimensions      [0 3 -1 0 0 0 0];

internalField   nonuniform List<scalar> 
12623
(
0.380196
0.0934437
-0.148588
-0.325051
0.293611
-0.121366
0.207951
0.37466
-0.0792107
-0.3409
0.0454507
-0.0862908
0.388366
0.0725846
-0.390588
0.0820949
-0.0862701
0.394763
-0.373887
-0.102992
-0.017279
0.171985
-0.196678
0.0419719
-0.21975
0.202471
0.113704
-0.00718454
-0.106519
0.0975515
0.0206776
-0.00452546
0.424783
-0.185586
-0.239197
-0.275039
0.221108
0.478714
-0.1966
-0.137792
0.147872
0.186519
0.0165737
0.038555
-0.251728
-0.179921
0.0587029
0.103502
0.0288844
-0.117268
-0.015119
0.00904441
-0.109415
0.203873
0.00409354
0.0338353
-0.0150866
-0.0442636
0.0185504
0.0407998
-0.0959807
0.0125049
0.0683892
-0.0778609
-0.0623834
-0.0237678
-0.00288977
-0.0158964
0.042554
-0.00799667
-0.0539539
0.0381828
-0.0545549
0.0436685
-0.276898
0.0346381
0.280815
0.0506269
-0.312912
-0.0146124
-0.323061
0.0373338
0.320365
-0.287097
0.106089
-0.123031
0.304039
-0.271458
-0.104575
0.0889363
-0.310729
0.324531
-0.11187
0.0980677
-0.293049
0.0884095
-0.39052
0.0851334
-0.0793081
0.384694
-0.080653
-0.370531
0.0606644
0.389808
-0.369487
0.0691157
-0.067109
0.367481
-0.0715286
-0.352894
0.0549353
-0.39142
-0.0671885
0.38708
-0.366767
0.0604808
0.33012
-0.0752983
-0.341097
0.0862751
-0.0605687
0.094199
0.29649
-0.34711
-0.0723318
0.344144
-0.338782
0.0607877
0.109828
-0.122885
0.337588
-0.374198
0.111312
-0.12075
0.383637
-0.118385
-0.347063
0.0912494
-0.0932609
-0.359836
-0.379818
-0.106005
0.38283
-0.361767
-0.00157427
-0.281742
-0.012825
0.296141
0.223399
0.0599081
-0.284881
-0.203342
0.0421171
0.384624
-0.124867
0.346624
-0.277818
0.056061
-0.268302
0.306197
0.0713717
-0.077861
-0.299707
0.0637566
0.286074
-0.0436336
-0.0282903
0.0171065
0.314351
-0.303167
-0.325303
0.322581
-0.0255686
0.319258
-0.034496
0.0389913
-0.323753
0.237158
-0.245086
0.154826
-0.146898
0.114764
0.233972
-0.111578
-0.257515
0.178311
-0.165882
-0.263017
0.189469
-0.183967
-0.269649
0.193987
-0.187355
-0.266598
0.19972
-0.202771
-0.264868
0.208106
-0.209836
-0.251578
0.212225
-0.225515
-0.240579
0.21108
-0.222079
0.191298
-0.223214
-0.208664
0.235583
-0.23727
0.116451
0.0679163
0.23761
-0.0715543
0.239585
0.0639148
-0.244838
0.162394
-0.248746
0.182218
-0.255842
0.196565
-0.258562
0.196707
-0.259487
0.200646
-0.248213
0.196832
-0.237123
0.201135
-0.216752
0.19071
-0.201824
0.17637
-0.011727
0.244757
0.00655425
0.245805
-0.0199214
0.153572
-0.208758
-0.168028
-0.182203
0.13395
0.0335137
0.254226
-0.0429819
0.255569
0.0237496
0.0927707
-0.193943
-0.107586
-0.171191
0.0817593
0.0748361
0.265005
-0.0856158
0.0589466
0.0169207
-0.190926
-0.0199377
-0.166988
0.012717
0.279887
-0.119456
-0.148832
0.305687
-0.0663923
0.0699688
-0.194502
-0.0552415
-0.178138
0.269571
-0.256791
-0.098396
-0.275666
0.296834
-0.169999
-0.125551
0.250372
-0.24468
0.000861856
-0.0494007
0.240156
-0.23866
0.114954
0.0593912
0.241111
-0.243708
0.184815
0.164846
0.247427
-0.249402
0.198683
0.200283
0.246468
-0.236516
0.18688
0.197711
0.2197
-0.199696
0.170706
0.184319
0.177732
-0.165985
0.122203
0.154406
0.156241
-0.155578
0.0120537
0.072016
-0.165695
-0.0451247
-0.23656
0.241459
-0.112485
0.227457
0.0731528
-0.230641
-0.0290407
-0.257934
0.262446
-0.213176
-0.184502
-0.281151
0.271597
-0.21596
-0.240784
-0.283705
0.269778
-0.188844
-0.221945
-0.273634
0.254267
-0.1646
-0.191212
-0.254231
0.237825
-0.130492
-0.165845
-0.240896
0.236253
-0.0669115
-0.114649
-0.248042
0.261114
0.0106782
-0.0317105
-0.275
0.0708877
0.0450603
0.133705
-0.158405
0.330387
0.325874
-0.160913
0.299342
0.119055
-0.182994
-0.101756
0.13468
-0.193764
-0.279633
0.277216
0.0755704
0.165784
-0.152801
-0.243624
-0.287412
0.173563
-0.149547
0.17176
-0.205207
-0.179027
0.163843
-0.0865708
-0.129101
-0.199474
0.342015
-0.32052
0.076572
0.289605
-0.296896
-0.162709
0.31488
-0.186188
0.348173
0.103671
-0.212623
0.282744
-0.27402
-0.10712
-0.139703
0.264331
-0.253849
-0.00962016
-0.0590892
0.248435
-0.241404
0.107924
0.0539768
0.236244
-0.23733
0.185901
0.159686
0.236768
-0.237549
0.199464
0.199721
0.231922
-0.224239
0.179197
0.192084
0.207824
-0.191095
0.153977
0.167904
0.173707
-0.159131
0.107627
0.137018
0.152138
-0.155648
0.0155629
0.0650232
-0.0369297
-0.276849
0.280828
-0.116464
-0.028674
-0.280376
0.286181
-0.218981
-0.18405
-0.274644
0.284649
-0.225965
-0.229247
-0.266558
0.274973
-0.197259
-0.203854
-0.2551
0.257034
-0.166534
-0.171338
-0.237112
0.242479
-0.135859
-0.145924
-0.232105
0.241078
-0.0758844
-0.104275
-0.247063
0.260255
-0.00251337
-0.0376956
-0.276404
0.296918
0.050374
0.0289112
0.0648075
0.139687
-0.134846
0.325546
0.342676
0.156674
0.314126
-0.15592
0.32117
-0.239687
0.241318
-0.289043
-0.220237
-0.263074
0.196118
-0.218122
-0.182029
0.167482
-0.0720235
-0.200506
-0.110624
0.180848
-0.156153
-0.224169
0.207143
-0.231502
-0.326818
0.334072
0.234064
0.283219
-0.267101
-0.305161
-0.319094
0.275494
0.127441
-0.129278
0.339425
0.354228
0.121386
-0.176636
0.170397
0.320365
0.29805
-0.289498
-0.164472
0.31195
-0.190536
-0.334248
0.0883876
0.349531
-0.314871
0.0571944
-0.236742
0.305233
-0.30278
-0.165161
-0.170453
0.298699
-0.294094
-0.111725
-0.143784
0.280019
-0.271899
-0.0177399
-0.0731646
0.260413
-0.258587
0.106098
0.0424901
0.249662
-0.251767
0.188006
0.150761
0.245728
-0.246225
0.199961
0.193683
0.236842
-0.231391
0.173746
0.182701
0.214614
-0.201011
0.140375
0.151127
0.180604
-0.167428
0.0944505
0.116611
0.159283
-0.159989
0.0162692
0.0568781
-0.0294369
-0.341082
0.338205
0.078448
0.166552
-0.332952
0.32877
-0.112282
-0.0234214
-0.316911
0.314634
-0.216704
-0.172191
-0.300634
0.295051
-0.220383
-0.215247
-0.286229
0.277904
-0.188934
-0.195032
-0.269332
0.259128
-0.15633
-0.162767
-0.248953
0.241589
-0.128495
-0.135749
-0.239721
0.243891
-0.0800543
-0.102407
-0.250701
0.261947
-0.0137601
-0.0445053
-0.27631
0.294477
0.0322065
0.0145484
0.0444144
0.148832
-0.158296
0.33501
0.36223
0.333271
-0.222022
-0.134636
-0.254424
-0.275751
0.232611
-0.24359
-0.283847
0.282924
-0.31817
-0.27994
-0.309068
0.195566
-0.170982
-0.248753
0.222321
-0.258257
-0.184621
0.178443
0.326543
-0.190359
0.317688
0.151914
-0.156954
0.344465
0.134928
0.371214
0.310725
-0.300349
0.0468191
0.0642384
0.334874
0.307376
-0.302655
-0.169193
0.301009
-0.184168
-0.24347
-0.149535
0.180171
-0.162524
-0.261117
0.202461
-0.271042
0.360458
0.110459
-0.258555
0.310242
-0.31823
-0.157174
-0.162866
0.320196
-0.308937
-0.122983
-0.141819
0.302796
-0.292323
-0.0282135
-0.0793053
0.283262
-0.275368
0.0982034
0.0334298
0.269256
-0.264699
0.183448
0.14465
0.26011
-0.254007
0.193857
0.189095
0.246367
-0.235921
0.1633
0.175061
0.222693
-0.206537
0.124219
0.137899
0.191327
-0.179002
0.0821254
0.1014
0.172447
-0.171585
0.015407
0.0503233
0.17673
-0.186775
-0.0619787
-0.0242913
0.203024
-0.225337
-0.112324
-0.0943749
0.241759
-0.264786
-0.139497
-0.133112
-0.377517
0.388693
0.222889
0.35766
-0.339872
0.265136
0.255637
-0.396036
0.398288
0.0761961
0.159209
-0.389309
0.378208
-0.101182
-0.014442
-0.362785
0.34769
-0.20161
-0.156767
-0.33295
0.318384
-0.205816
-0.200507
-0.304963
0.292316
-0.176288
-0.18161
-0.281707
0.270998
-0.145621
-0.152158
-0.26082
0.25149
-0.119165
-0.125571
-0.246951
0.248059
-0.0811628
-0.0978675
-0.255278
0.26625
-0.0247316
-0.0517243
-0.277341
0.28853
0.021018
0.00345685
0.0325947
0.149811
-0.165009
0.350207
0.355087
0.346705
0.268098
-0.270002
-0.316267
-0.321904
0.25013
-0.170451
0.189795
-0.280461
-0.287638
-0.1476
-0.264626
-0.291064
0.246401
-0.26767
-0.185534
0.296183
0.130199
0.365187
0.311338
-0.300028
0.0355096
0.325171
0.0504051
-0.267275
-0.311795
0.225173
-0.28097
-0.235653
0.224248
-0.310499
-0.244766
-0.307154
0.209655
-0.290902
-0.181281
0.206887
-0.306067
-0.155697
-0.313222
0.356915
0.0884181
-0.27678
0.311998
-0.322706
-0.158484
-0.298657
0.288977
-0.175854
-0.170827
0.33142
-0.338941
-0.149653
-0.154152
0.335637
-0.332656
-0.125964
-0.145123
0.326469
-0.318072
-0.0366109
-0.0854922
0.309651
-0.300636
0.0891885
0.0250089
0.292614
-0.28454
0.175374
0.136628
0.276543
-0.266896
0.184211
0.181097
0.25682
-0.245433
0.151913
0.164985
0.233244
-0.219744
0.110719
0.12571
0.207295
-0.196684
0.071514
0.0889516
0.189355
-0.185838
0.0118895
0.0429946
0.187735
-0.195143
-0.0545708
-0.0223943
0.213041
-0.228166
-0.097199
-0.0764769
0.251342
-0.271944
-0.118895
-0.109936
0.294727
-0.32063
-0.129794
-0.124816
-0.362015
0.388581
0.238571
0.336988
-0.319404
0.206664
0.225103
-0.411949
0.433711
0.201127
0.232269
-0.444982
0.4417
0.0794781
0.147938
-0.433522
0.418391
-0.0860512
-0.0062639
-0.399062
0.377194
-0.179741
-0.137438
-0.357408
0.33847
-0.186878
-0.180721
-0.322345
0.307305
-0.161248
-0.165486
-0.29482
0.283282
-0.134084
-0.139672
-0.2727
0.262703
-0.109169
-0.114988
-0.255847
0.254169
-0.0794854
-0.0910109
-0.257439
0.266568
-0.033861
-0.0549935
-0.278732
0.290465
0.00928426
-0.00870673
0.0230319
0.19629
-0.209583
-0.297206
-0.30411
0.180997
-0.161108
0.187839
-0.339953
-0.3442
-0.137538
0.368729
0.0665261
0.129296
-0.14061
0.376501
0.377275
0.13311
-0.157744
0.369099
0.363714
0.165815
-0.172886
0.357279
0.363158
0.178305
-0.182621
0.330859
0.352124
0.183979
-0.181076
0.29328
0.319046
-0.172402
0.280304
-0.257409
-0.30093
0.2439
-0.286397
-0.246127
-0.310434
0.225473
-0.296788
-0.218965
-0.297772
0.220769
-0.304784
-0.171388
0.155614
-0.288336
-0.184876
-0.283718
0.21254
-0.330768
0.172006
-0.150316
-0.36589
0.194559
-0.362506
0.284558
-0.293361
-0.167051
0.271895
-0.159739
-0.290289
0.309758
-0.321935
-0.146307
-0.154431
0.33923
-0.343196
-0.145686
-0.136857
0.352268
-0.353671
-0.124561
-0.136051
0.351549
-0.345684
-0.0424757
-0.0876146
0.338014
-0.328859
0.0800341
0.0173387
0.319249
-0.308795
0.164919
0.127018
0.298107
-0.286172
0.172276
0.170409
0.274513
-0.262205
0.139605
0.153326
0.250436
-0.237818
0.0981015
0.113941
0.225485
-0.214049
0.060078
0.0766185
0.205636
-0.201623
0.00787713
0.0345811
0.203958
-0.213185
-0.0453439
-0.0200594
0.227387
-0.244754
-0.0798317
-0.0622751
0.264868
-0.282969
-0.100794
-0.0898216
0.300245
-0.321102
-0.108937
-0.10754
0.342595
-0.37064
-0.12227
-0.116046
-0.33105
0.352726
0.184988
0.312907
-0.297901
0.140609
0.162853
-0.378307
0.407194
0.209683
0.199523
-0.438358
0.452858
0.186627
0.201105
-0.468673
0.472628
0.0755234
0.132123
-0.464887
0.447893
-0.0690569
0.00147681
-0.426344
0.400841
-0.154238
-0.11589
-0.377241
0.355055
-0.164692
-0.157122
-0.336962
0.320428
-0.144714
-0.147393
-0.306848
0.294762
-0.121998
-0.126092
-0.284145
0.274169
-0.0991926
-0.104372
-0.265913
0.261275
-0.0748471
-0.0827546
-0.261809
0.268168
-0.0402196
-0.0555276
-0.278049
0.28775
-0.000416371
-0.0185881
-0.296077
0.307753
0.023834
0.0147041
-0.321068
0.3394
0.0481943
0.0370899
0.0688826
0.115983
-0.126896
0.387414
-0.112196
0.389828
0.381062
0.141367
-0.154953
0.382685
0.378185
0.165104
-0.178035
0.370209
0.37331
0.176357
-0.181462
0.335964
0.350446
0.171576
-0.169365
0.291069
0.30916
0.129653
-0.146296
-0.271693
-0.27754
0.109291
-0.151944
0.181166
-0.395113
-0.402322
-0.120262
0.1575
-0.141528
0.255923
0.268439
-0.243272
-0.303785
0.236551
-0.297475
-0.228945
-0.300454
0.230299
-0.306318
-0.200662
-0.281986
0.229466
-0.32171
-0.163966
-0.266048
0.215864
-0.352073
-0.0942183
0.06817
-0.251492
-0.115745
-0.250166
0.20349
-0.384829
0.148582
-0.429452
-0.121453
0.178744
-0.425274
-0.240984
0.268582
0.0405717
0.0187381
-0.0442087
-0.226021
-0.224911
0.00266503
-0.113141
0.140864
-0.457175
-0.422631
0.395366
-0.0941883
-0.447508
-0.0882634
0.255789
-0.267894
-0.129423
-0.119775
0.13179
0.243908
0.225612
-0.0895986
-0.29701
0.281269
-0.301489
-0.146832
-0.146364
0.316188
-0.332925
-0.12957
-0.139731
0.343434
-0.356104
-0.133017
-0.126348
0.365235
-0.373088
-0.116708
-0.12692
0.374401
-0.371798
-0.0450791
-0.0863016
0.364936
-0.35533
0.070428
0.0104774
0.344673
-0.332104
0.15235
0.116361
0.319552
-0.30564
0.158364
0.157857
0.292022
-0.277863
0.125445
0.139708
0.264956
-0.251713
0.0848589
0.101034
0.239511
-0.228476
0.0490429
0.0644162
0.220718
-0.217958
0.00511723
0.0268232
0.221401
-0.232194
-0.0345513
-0.0166159
0.248016
-0.267641
-0.0602072
-0.0464531
0.286786
-0.302546
-0.0850346
-0.0706765
0.318844
-0.333852
-0.0939288
-0.0912415
0.348924
-0.374671
-0.0965232
-0.100974
-0.0995667
-0.297143
0.323786
0.113965
0.0807309
-0.346827
0.365622
0.166192
0.139812
-0.394571
0.416077
0.188178
0.170573
-0.444882
0.470348
0.16116
0.1723
-0.485342
0.489262
0.071604
0.117129
-0.481079
0.463018
-0.0509962
0.00966009
-0.440348
0.413712
-0.127602
-0.0932194
-0.388878
0.365358
-0.141172
-0.132287
-0.346533
0.329717
-0.127898
-0.128568
-0.315835
0.303472
-0.109634
-0.11221
-0.293358
0.284072
-0.0899073
-0.094258
-0.276061
0.269878
-0.0686641
-0.0747439
-0.267355
0.269791
-0.0426557
-0.053004
-0.276662
0.287393
-0.0111467
-0.0254595
-0.298251
0.308192
0.0138929
0.00384546
-0.318923
0.334082
0.0330351
0.0263596
0.0431282
0.0948674
-0.0978148
0.392776
0.391428
0.112926
-0.128762
0.40325
0.396173
0.142184
-0.153076
0.393578
0.391607
0.160127
-0.162564
0.372646
0.380361
0.160854
-0.153633
0.328743
0.348735
0.14754
-0.141349
0.284878
0.303067
0.25888
-0.232858
-0.299872
0.23338
-0.300556
-0.216493
-0.284622
0.235953
-0.312805
-0.183319
-0.262633
0.231444
-0.33729
-0.13607
-0.245723
0.221252
-0.369835
-0.068964
-0.225411
0.200503
-0.406588
0.0266077
-0.0245186
-0.227
0.0144114
-0.213825
0.160853
-0.445264
0.0914558
-0.471205
-0.0677587
0.105421
-0.47114
-0.251029
0.243685
-0.0171749
-0.0430025
0.0527657
-0.236763
-0.260311
-0.0337202
-0.0386876
0.0459617
-0.47848
-0.447102
0.431258
-0.0519147
-0.457661
-0.028128
-0.0863887
0.0946098
0.235686
-0.0774244
0.216648
0.256036
-0.272007
-0.113452
0.249657
-0.0832201
-0.296488
0.286454
-0.306904
-0.126381
-0.131916
0.322062
-0.337294
-0.114338
-0.124574
0.348324
-0.36244
-0.118901
-0.115319
0.375509
-0.38669
-0.105526
-0.113851
0.392724
-0.391896
-0.0459076
-0.0802675
0.38726
-0.376259
0.0594266
0.00584177
0.364286
-0.348901
0.136965
0.104389
0.334405
-0.318474
0.142433
0.143362
0.303769
-0.288938
0.110615
0.125003
0.276076
-0.26316
0.0719428
0.0881716
0.251613
-0.241221
0.038651
0.052869
0.235121
-0.235544
0.00554017
0.0207237
0.243552
-0.258741
-0.019362
-0.00860829
0.275557
-0.29113
-0.0446344
-0.0296373
0.303174
-0.314977
-0.0732315
-0.0586325
0.328224
-0.337085
-0.0850675
-0.0779944
0.352855
-0.365455
-0.0839232
-0.0852042
0.385188
-0.40666
-0.0727167
-0.0798336
-0.0636653
-0.245418
0.258754
0.0272359
0.00093151
-0.283686
0.311263
0.0863888
0.0557987
-0.343734
0.373796
0.13613
0.107341
-0.400971
0.430611
0.158538
0.143398
-0.456509
0.478121
0.139548
0.146402
-0.489025
0.489103
0.0715266
0.106224
-0.480552
0.463615
-0.034059
0.0182106
-0.442627
0.417578
-0.102553
-0.0722316
-0.393714
0.370438
-0.117895
-0.108424
-0.351513
0.334878
-0.111262
-0.109643
-0.321552
0.309423
-0.0975049
-0.0988844
-0.299787
0.291252
-0.0813717
-0.0846228
-0.284517
0.278331
-0.0624781
-0.0680088
-0.274603
0.273689
-0.0417424
-0.0492758
-0.276903
0.28418
-0.0184237
-0.0286736
-0.294315
0.304308
0.00390026
-0.00628944
-0.317793
0.326652
0.0241763
0.0128741
0.0288805
0.0788639
-0.0738106
0.389709
0.389364
0.0805612
-0.0964865
0.408701
0.398178
0.109831
-0.122682
0.416101
0.409518
0.133085
-0.139923
0.400415
0.402009
0.142218
-0.140161
0.370589
0.382657
0.133869
-0.125976
0.32085
0.342443
0.11733
-0.104866
0.272413
0.294421
0.248625
-0.227774
-0.288592
0.234134
-0.298736
-0.204138
-0.263804
0.235477
-0.316837
-0.158105
-0.240599
0.227887
-0.343926
-0.0917522
-0.222935
0.209777
-0.379109
-0.00496791
-0.206032
0.169988
-0.415723
0.0633498
-0.224409
0.109468
-0.44931
0.0572931
-0.0482934
-0.269311
0.0651686
-0.244639
0.0427579
-0.467936
-0.00134569
-0.000287112
-0.456028
-0.0158201
-0.464005
0.00441502
0.167818
-0.290128
0.252295
-0.271679
-0.0940674
-0.22724
0.159721
0.071934
-0.0581647
0.292939
-0.309417
-0.109904
-0.110656
0.327817
-0.3413
-0.100855
-0.106173
0.351666
-0.365789
-0.104778
-0.104953
0.381565
-0.393948
-0.0931433
-0.0980749
0.404031
-0.405299
-0.0446403
-0.0701843
0.401998
-0.390904
0.0483323
0.0025409
0.378413
-0.361529
0.120081
0.0918985
0.346123
-0.328889
0.125199
0.127956
0.31328
-0.29715
0.0944853
0.109394
0.282992
-0.269082
0.0580328
0.0740133
0.257167
-0.247947
0.0294311
0.0409538
0.244039
-0.246119
0.00761955
0.016816
0.252684
-0.259459
-0.012587
-0.00204288
0.263437
-0.26628
-0.0417914
-0.0256593
0.271729
-0.282761
-0.0621986
-0.053184
0.29797
-0.316564
-0.0664735
-0.0627856
0.336138
-0.353794
-0.0662672
-0.0656309
0.368017
-0.385213
-0.0555207
-0.0656104
0.402376
-0.421301
-0.0329902
-0.0465017
0.429668
-0.429003
-0.000951692
-0.0197608
-0.260525
0.256953
-0.0136032
0.262014
-0.271965
-0.0383425
-0.0322313
-0.254249
0.261044
0.0204409
0.00363566
-0.276084
0.298383
0.0640892
0.0407591
-0.324824
0.356019
0.104935
0.0809011
-0.386361
0.416834
0.128065
0.113055
-0.440512
0.456851
0.123209
0.122725
-0.464516
0.466628
0.0694155
0.0985591
-0.463227
0.452328
-0.0231605
0.0216115
-0.435841
0.414631
-0.0813434
-0.055744
-0.393765
0.372725
-0.0968552
-0.087558
-0.354673
0.338176
-0.0947658
-0.091591
-0.325088
0.313372
-0.0857886
-0.0857963
-0.304156
0.296127
-0.0733424
-0.0754073
-0.29025
0.28527
-0.0574983
-0.0621324
-0.281859
0.279673
-0.0395566
-0.0458644
-0.280082
0.283454
-0.0217952
-0.0290829
-0.289775
0.297533
-0.00385783
-0.0126104
-0.30717
0.320826
0.0105196
0.00323731
-0.329939
0.344716
0.0306742
0.0197675
0.0467695
0.0654281
-0.0679052
0.392187
-0.0664224
0.383928
0.388369
0.074241
-0.0885622
0.423022
0.404514
0.0986181
-0.107049
0.424532
0.419574
0.112982
-0.114263
0.401696
0.407942
0.110904
-0.103491
0.363176
0.379298
0.0923865
-0.0811293
0.309593
0.331339
0.0653951
-0.0501626
0.257181
0.278687
0.0436452
-0.0368485
0.22889
0.242107
0.0560399
0.271498
0.235839
-0.0593749
0.0727152
-0.282651
-0.27828
-0.0530592
0.0322675
-0.047488
-0.440808
-0.419588
0.0228525
-0.22148
-0.27125
0.231508
-0.294767
-0.351907
0.0458043
-0.181953
-0.239955
0.226238
-0.315189
0.277239
-0.230993
0.0256881
0.0418043
-0.0200175
0.249712
0.0533795
0.265664
-0.114984
-0.217367
0.208378
-0.342526
-0.0265124
-0.20139
0.167688
-0.376808
0.0632725
-0.205954
0.100244
-0.406499
0.0872832
-0.246523
0.0202276
-0.42678
0.0805246
-0.252448
-0.0494715
-0.434285
0.0720118
-0.0638171
-0.286475
0.0869671
-0.297606
-0.0802311
-0.431262
0.056639
-0.0830212
-0.414426
0.0398877
-0.402837
-0.2801
0.257245
-0.274126
-0.0771857
-0.0319128
0.292597
-0.309454
-0.0930464
-0.0921864
0.328542
-0.338361
-0.0910364
-0.0870848
0.354256
-0.36648
-0.092554
-0.0890578
0.382199
-0.396163
-0.0791789
-0.0823557
0.407478
-0.410528
-0.0415903
-0.0588696
0.407757
-0.396437
0.0370124
-0.000230433
0.382985
-0.365656
0.102751
0.0784465
0.349773
-0.332315
0.107741
0.112072
0.315927
-0.29907
0.0776277
0.0930059
0.284535
-0.272574
0.0460725
0.0594783
0.265012
-0.262018
0.0264369
0.0333917
0.263882
-0.268826
0.0125636
0.0186804
0.273565
-0.277178
-0.00897404
0.00269613
0.281501
-0.289407
-0.0338845
-0.0213372
0.300919
-0.31397
-0.0491478
-0.0416722
0.325066
-0.334816
-0.0567241
-0.0516893
0.343942
-0.352433
-0.0577758
-0.0565048
0.365582
-0.37318
-0.0479228
-0.0524613
0.382158
-0.388165
-0.0269835
-0.0375239
0.395209
-0.399116
0.00295561
-0.0127168
0.393181
-0.383047
0.0297532
0.0169176
-0.277067
0.274659
-0.0359348
0.286708
-0.297787
-0.052738
-0.0434177
-0.267378
0.265742
-0.0119676
-0.0249502
-0.267045
0.269101
0.0183844
0.00233298
-0.276398
0.289698
0.0507891
0.0334624
-0.307975
0.332103
0.0808075
0.0626243
-0.356775
0.381347
0.103493
0.0883831
-0.400704
0.417236
0.106677
0.103368
-0.430559
0.441334
0.058641
0.085236
-0.444584
0.438436
-0.0170125
0.018361
-0.425202
0.407175
-0.0633165
-0.0425103
-0.389367
0.371371
-0.0788589
-0.0697496
-0.355777
0.340862
-0.0798512
-0.0759972
-0.328668
0.317522
-0.0746425
-0.073602
-0.308668
0.300698
-0.065373
-0.0665534
-0.294843
0.290239
-0.0528939
-0.056277
-0.287304
0.285436
-0.0376884
-0.0429301
-0.284798
0.285959
-0.0229568
-0.0284444
-0.288639
0.294306
-0.00952489
-0.01529
-0.300136
0.306626
0.00402957
-0.00259316
-0.314987
0.328741
0.0169204
0.0114071
0.0236029
0.0607312
-0.0591987
0.382396
0.380702
0.0560729
-0.0659966
0.40211
0.385244
0.0708683
-0.0757119
0.427866
0.409386
0.0804429
-0.0832418
0.427331
0.424305
0.0833831
-0.0789205
0.397234
0.408083
0.0697231
-0.0567839
0.350236
0.3701
0.0406569
-0.0229381
0.291874
0.315212
0.00486559
0.0101087
0.242207
0.260614
-0.0231763
0.0288551
0.223211
0.22904
0.244677
-0.0687217
0.0799327
-0.297686
-0.308904
-0.0576044
0.0498723
-0.0701971
-0.382512
-0.369493
0.0363181
-0.20384
-0.249363
0.218299
-0.286828
0.275027
-0.262499
0.0131599
0.277334
0.0510721
-0.139088
-0.215851
0.198193
-0.305004
-0.048114
-0.195766
0.156252
-0.331091
0.0523521
-0.19047
0.0815348
-0.3581
0.110972
-0.229644
-0.0130569
-0.373214
0.0956522
-0.261651
-0.0956739
-0.380577
0.100022
-0.265503
-0.129561
-0.384955
0.095006
-0.312679
-0.123039
-0.391245
0.0742024
-0.0640674
-0.319039
0.0899856
-0.313469
-0.0981432
-0.38648
-0.315592
0.304812
-0.0532877
0.0623834
-0.321593
-0.056382
0.077328
-0.333984
-0.0602822
0.355431
0.055885
-0.0729018
-0.365496
0.0386916
-0.352299
-0.26564
0.263485
-0.278394
-0.0622771
-0.0309262
0.295486
-0.309149
-0.0793833
-0.0750946
0.324753
-0.336282
-0.0795073
-0.0714807
0.351371
-0.364032
-0.0798933
-0.0739688
0.379537
-0.392204
-0.0665112
-0.0668508
0.40383
-0.408958
-0.0364625
-0.0472436
0.406685
-0.395536
0.0258633
-0.00250336
0.379374
-0.360742
0.0841193
0.0622844
0.343132
-0.326545
0.0911544
0.0944622
0.311616
-0.298262
0.0642741
0.0780767
0.287942
-0.281494
0.0396253
0.0491577
0.278896
-0.278802
0.0263431
0.0307933
0.279682
-0.280206
0.0130876
0.0195598
0.280518
-0.281928
-0.00756405
0.00300882
0.285325
-0.291337
-0.0278725
-0.0179404
0.298717
-0.306577
-0.0412878
-0.0342922
0.31418
-0.322836
-0.048069
-0.044086
0.332693
-0.343873
-0.0465954
-0.0466478
0.354316
-0.363462
-0.0387767
-0.042018
0.370082
-0.37408
-0.0229859
-0.0309038
0.374471
-0.370969
-0.000546032
-0.0123262
0.364921
-0.358933
0.0237656
0.0108694
0.352383
-0.342624
0.0289329
0.0297682
-0.29697
0.289619
-0.0453871
-0.0497626
-0.285725
0.280358
-0.0305677
-0.0395231
-0.276265
0.274703
-0.0104061
-0.0208576
-0.275194
0.277648
0.0159306
0.00184215
-0.283443
0.292137
0.0420952
0.0276672
-0.303599
0.318909
0.065498
0.051162
-0.335275
0.353463
0.0853054
0.0720166
-0.371396
0.39158
0.0864929
0.0854348
-0.409962
0.424044
0.0445592
0.0668534
-0.428238
0.423043
-0.0118182
0.0141673
-0.411663
0.396501
-0.048154
-0.0311303
-0.381499
0.366552
-0.0639127
-0.0547473
-0.353631
0.341351
-0.0675717
-0.0630753
-0.330834
0.320951
-0.0647599
-0.0630846
-0.312711
0.30514
-0.0578024
-0.0583132
-0.299139
0.294284
-0.0480387
-0.0502759
-0.291048
0.2892
-0.0358398
-0.0396941
-0.288241
0.28852
-0.0232358
-0.0274854
-0.289494
0.291954
-0.0119848
-0.016264
-0.295349
0.30038
-0.00100122
-0.00598876
-0.306828
0.315137
0.008611
0.00495926
-0.317766
0.337396
0.0261749
0.0209737
0.0449828
0.0543968
-0.0542393
0.382238
0.374816
0.0569092
-0.0591656
0.404367
0.387914
0.0595526
-0.0580531
0.426366
0.409773
0.0559183
-0.0518465
0.423259
0.42217
0.0454847
-0.0352243
0.386974
0.401721
0.0207117
-0.00301201
0.332537
0.355588
-0.0164487
0.0362157
0.272107
0.295751
-0.0552463
0.0672752
0.230178
0.241584
-0.0843531
0.087982
0.219582
0.211962
-0.112237
0.116457
0.245492
0.220422
-0.101676
0.0356007
0.34341
0.280444
-0.163481
-0.22497
0.183412
-0.272047
-0.038089
0.0269211
-0.331456
-0.0539449
-0.336443
0.292362
-0.308226
0.0514653
0.037441
0.101866
0.204103
0.254705
0.0750979
-0.329236
0.333792
0.0243767
-0.31973
0.0174154
-0.0697082
-0.194257
0.137813
-0.286565
0.0372551
-0.180669
0.0601301
-0.309686
0.123513
-0.20301
-0.0438859
-0.327271
0.126571
-0.260562
-0.139227
-0.329661
0.111565
-0.273194
-0.188599
-0.321539
0.114215
-0.284712
-0.17396
-0.334034
0.102224
-0.324918
-0.128434
-0.360954
-0.0575063
-0.333409
0.0693226
-0.33206
0.322338
-0.0477849
0.054262
-0.340704
-0.0456179
-0.347179
0.0680317
0.0931138
-0.329255
-0.0968165
-0.362565
-0.346209
0.0815474
0.139172
-0.239826
0.20252
-0.326428
0.0425811
0.102746
0.240529
-0.24571
0.283718
-0.275724
0.005166
0.0265641
0.274443
-0.280681
-0.0560396
-0.0322076
0.293854
-0.306088
-0.0671487
-0.0619212
0.319542
-0.331727
-0.0673225
-0.0580271
0.345595
-0.35933
-0.0661587
-0.0601003
0.372555
-0.385542
-0.0535242
-0.0536261
0.39552
-0.403349
-0.028634
-0.0372653
0.402418
-0.393968
0.0174136
-0.00343383
0.377146
-0.358003
0.0649769
0.0454617
0.339069
-0.323515
0.0756006
0.075528
0.311334
-0.302596
0.055536
0.0658955
0.297057
-0.294014
0.0365819
0.0436188
0.292485
-0.29113
0.0249876
0.0292647
0.289586
-0.287826
0.0113281
0.0180162
0.287043
-0.287691
-0.00691589
0.00222503
0.290591
-0.295475
-0.0229884
-0.0150405
0.301607
-0.309049
-0.0338454
-0.0281601
0.317175
-0.325914
-0.0393302
-0.0359599
0.33374
-0.340799
-0.039536
-0.0388223
0.347092
-0.353417
-0.0324517
-0.0357248
0.358822
-0.362442
-0.0193662
-0.0254989
0.363573
-0.360675
-0.0034432
-0.0111957
0.353761
-0.343545
0.0135495
0.00395456
0.0200156
-0.315361
0.308139
-0.0460656
-0.0494048
-0.302768
0.296628
-0.0392472
-0.0443912
-0.290495
0.28639
-0.0264629
-0.03339
-0.282636
0.281157
-0.00892684
-0.0171041
-0.281802
0.284843
0.0128894
0.00119772
-0.289686
0.296809
0.0349718
0.0228243
-0.305364
0.316362
0.0545005
0.0426068
-0.328692
0.34428
0.0697169
0.0596865
-0.361664
0.381521
0.0666361
0.0680514
-0.398051
0.409084
0.0335261
0.0503234
-0.411603
0.406938
-0.00715387
0.0116484
-0.397643
0.385293
-0.0358033
-0.0218351
-0.372954
0.360532
-0.051491
-0.0424088
-0.349879
0.339731
-0.0574232
-0.052422
-0.331202
0.322766
-0.0563244
-0.0545558
-0.315831
0.308872
-0.0508432
-0.0513779
-0.303486
0.298307
-0.0428591
-0.0448906
-0.294941
0.292235
-0.0331335
-0.0363282
-0.291016
0.290343
-0.0225623
-0.0262671
-0.290482
0.29123
-0.0127326
-0.0164029
-0.292366
0.294268
-0.00290295
-0.00712551
-0.296471
0.296816
0.00826544
0.00275674
-0.302973
0.309729
0.0194191
0.0148165
0.0282836
0.0608903
-0.0578646
0.352405
0.344466
0.0520082
-0.0511868
0.381417
0.36896
0.0513966
-0.0501215
0.403092
0.388123
0.0458999
-0.0384746
0.418941
0.405551
0.029242
-0.0179995
0.412017
0.412937
0.00482272
0.0114406
0.37071
0.388544
-0.0301212
0.0511037
0.311554
0.336907
-0.0714592
0.0912124
0.252354
0.275395
-0.10905
0.121435
0.217793
0.223746
-0.132433
0.143103
0.208912
0.200964
-0.150962
0.167943
0.228511
0.212562
0.208561
-0.076139
-0.343301
0.246743
0.110708
0.0281531
-0.0382924
-0.321317
-0.318714
0.0271367
-0.0931404
-0.201537
0.116565
-0.2508
0.0210726
-0.178075
0.037627
-0.264062
0.124428
-0.181584
-0.0680144
-0.285557
-0.0507987
-0.323937
0.158723
-0.235163
-0.169817
-0.296681
0.13299
-0.281987
-0.228341
-0.289919
0.133671
-0.29265
-0.223509
-0.271991
-0.0419304
-0.349127
0.0503537
-0.342377
0.334399
-0.0339528
0.0365756
-0.349018
-0.0299339
-0.357174
0.0446225
0.122469
-0.304957
-0.165693
-0.296774
-0.359767
0.0629419
0.111158
-0.342962
-0.114282
-0.343489
-0.358364
0.0801872
0.0981638
-0.345871
-0.0917071
-0.346997
-0.149421
0.121595
0.27457
0.218347
-0.342152
0.218004
0.0765745
-0.0794624
0.299378
0.0265347
-0.035123
-0.312729
-0.316971
0.0247919
-0.0096489
0.30457
-0.222284
0.28641
-0.293369
0.0584245
-0.275464
0.0988971
0.287275
0.0860432
0.287062
-0.277563
-0.00433321
0.0202572
0.27838
-0.285626
-0.0487938
-0.0313906
0.29651
-0.309921
-0.0537371
-0.0510371
0.319213
-0.331042
-0.0554932
-0.0487352
0.341418
-0.355013
-0.0525646
-0.0497243
0.365796
-0.377766
-0.0415536
-0.0428429
0.385685
-0.393307
-0.0210122
-0.0293462
0.394044
-0.389531
0.0129008
-0.00269741
0.376738
-0.360229
0.0484681
0.0326684
0.342743
-0.328124
0.0609818
0.0580425
0.317268
-0.310224
0.0484916
0.0550389
0.305741
-0.302658
0.0334993
0.0391359
0.299978
-0.297106
0.0221154
0.0265848
0.294464
-0.29243
0.00929366
0.0153742
0.291904
-0.293208
-0.00561158
0.00169949
0.295981
-0.300074
-0.0188958
-0.0122675
0.304858
-0.310317
-0.0283869
-0.0233761
0.315959
-0.322181
-0.0331089
-0.0303171
0.328626
-0.335533
-0.0326297
-0.0323767
0.341727
-0.346894
-0.0272849
-0.0295305
0.350359
-0.35253
-0.0171951
-0.0220337
0.353179
-0.35201
-0.00461199
-0.0105463
0.349
-0.342318
0.0068679
0.000944153
0.333735
-0.323897
0.014539
0.011432
0.320297
-0.314854
0.0216934
0.0138156
0.0115614
-0.30463
-0.023902
0.306241
-0.307167
0.0124868
0.0161791
-0.328909
0.323266
-0.0421423
-0.0401276
-0.317271
0.311367
-0.0401619
-0.0434097
-0.305139
0.298425
-0.0325333
-0.0381625
-0.2945
0.290697
-0.02266
-0.0294654
-0.288261
0.286745
-0.00741099
-0.0146677
-0.287311
0.289775
0.0104254
0.000631602
-0.29398
0.300229
0.0287231
0.0186195
-0.30773
0.317381
0.0448497
0.0351054
-0.328483
0.342566
0.0556339
0.0485849
-0.35769
0.373417
0.0509094
0.052927
-0.385326
0.392451
0.0264007
0.0384145
-0.393738
0.390463
-0.00387943
0.0103616
-0.384416
0.376206
-0.0275938
-0.0157872
-0.367335
0.357583
-0.0417388
-0.0335376
-0.348058
0.338613
-0.0479787
-0.0428972
-0.330082
0.322254
-0.0484963
-0.0460241
-0.315541
0.309592
-0.0448938
-0.0446655
-0.304661
0.300291
-0.0384892
-0.0399597
-0.297013
0.294297
-0.0304179
-0.0330503
-0.292721
0.291606
-0.0214473
-0.0246911
-0.291159
0.290952
-0.0125258
-0.0159556
-0.291288
0.291534
-0.00314869
-0.00746164
-0.292501
0.293343
0.00742337
0.00179017
-0.296135
0.296944
0.0186097
0.0120247
-0.301203
0.313971
0.0298134
0.0240245
0.0336618
0.0530776
-0.0467015
0.346029
0.318081
0.0465522
-0.0452092
0.380074
0.368811
0.0420683
-0.0371209
0.398144
0.384982
0.0288175
-0.0167493