/*--------------------------------*- C++ -*----------------------------------*\
  =========                 |
  \\      /  F ield         | OpenFOAM: The Open Source CFD Toolbox
   \\    /   O peration     | Website:  https://openfoam.org
    \\  /    A nd           | Version:  10
     \\/     M anipulation  |
\*---------------------------------------------------------------------------*/
FoamFile
{
    format      ascii;
    class       volVectorField;
    location    "4.5";
    object      U;
}
// * * * * * * * * * * * * * * * * * * * * * * * * * * * * * * * * * * * * * //

dimensions      [0 1 -1 0 0 0 0];

internalField   nonuniform List<vector> 
6397
(
(4.25515 -0.831606 1.93491e-19)
(4.05835 -0.497068 -9.39689e-19)
(4.56811 -0.547751 0)
(4.68056 -0.63077 9.40044e-22)
(4.88594 -0.815613 2.09005e-20)
(4.75703 -0.75961 4.16812e-20)
(3.17513 -2.0682 -8.68216e-19)
(1.58036 -3.09741 1.77278e-18)
(0.0679198 -1.23006 3.33067e-19)
(0.535079 -0.787967 -8.31408e-20)
(2.44104 3.09504 6.98516e-19)
(3.52427 3.76284 2.56287e-20)
(3.47189 0.0693741 -4.73714e-20)
(3.61413 0.0401518 -2.01126e-20)
(2.33127 0.0900235 3.99559e-20)
(1.52944 1.31262 -4.81021e-18)
(2.40456 -0.678424 -2.28541e-18)
(-0.0154649 0.0217401 2.28436e-18)
(0.978854 0.266032 7.93925e-19)
(2.18024 -0.406813 -2.48681e-18)
(1.65461 0.0265912 -1.28413e-18)
(-1.10934 0.423279 -1.03742e-18)
(-1.00808 0.487132 4.80827e-20)
(1.28226 -0.168144 -6.21756e-19)
(4.13238 0.0320307 0)
(4.36463 -0.0272178 6.457e-21)
(4.60205 -0.0102657 1.20455e-21)
(3.88884 -1.28947 4.40615e-20)
(3.71883 -1.09027 -5.80478e-21)
(4.07432 -1.27119 5.79168e-21)
(3.92521 -1.1235 -1.1018e-20)
(4.79241 -0.638276 6.83761e-20)
(4.68551 -0.568211 4.44057e-20)
(4.7905 -0.688265 -1.53397e-19)
(4.51805 -0.593246 2.56131e-20)
(4.45181 -0.525994 0)
(4.73663 -0.591176 -2.1399e-20)
(4.62723 -0.534788 -4.37259e-20)
(4.13775 -0.545251 6.07169e-20)
(4.18067 -0.590257 -3.35644e-20)
(4.31028 -0.595575 0)
(4.22042 -0.554179 0)
(4.20189 -1.40015 6.19297e-22)
(4.71022 -1.01352 3.60133e-20)
(4.56186 -0.911216 -3.83446e-20)
(4.63405 -0.678002 8.55746e-20)
(4.82886 -0.916227 3.839e-20)
(4.67943 -0.825861 -1.16456e-19)
(4.27651 -0.501572 6.64919e-20)
(4.22241 -0.474199 -1.0424e-20)
(4.21002 -0.464835 1.22091e-19)
(4.17131 -0.420228 -4.66955e-20)
(4.21511 -0.440039 -3.25825e-19)
(4.39496 1.10622 -7.87816e-20)
(3.72415 0.622058 5.05373e-20)
(4.03912 0.044669 7.36693e-20)
(4.05548 0.0611124 7.07254e-20)
(4.51071 -0.117427 -1.2622e-19)
(2.96182 1.90449 -6.03886e-20)
(2.9819 1.41132 6.04016e-20)
(3.03968 2.20592 6.51546e-20)
(3.11071 2.38356 -6.42061e-20)
(3.20558 2.47539 -8.49263e-20)
(3.23887 2.55216 8.34655e-20)
(3.18846 2.67126 0)
(3.07129 2.7549 1.55367e-19)
(2.91661 2.72797 -1.63695e-19)
(2.73239 2.49604 0)
(2.98166 1.44372 -7.72007e-20)
(3.03012 0.847429 1.40601e-21)
(3.0613 0.81517 7.41975e-20)
(2.96325 1.98027 0)
(3.01359 2.29786 0)
(3.06652 2.47951 0)
(3.13692 2.54206 -3.37863e-22)
(3.14652 2.55951 4.47658e-23)
(3.07944 2.60162 0)
(2.91613 2.6239 -1.42957e-23)
(2.70925 2.5508 0)
(2.47853 2.28956 0)
(3.20559 0.127739 -6.83608e-20)
(3.19522 0.208597 3.81894e-21)
(2.56873 2.01918 0)
(2.27617 1.81776 0)
(3.36841 -0.461404 7.86561e-21)
(3.34872 -0.336178 0)
(2.45565 1.25393 0)
(2.12316 1.10421 0)
(3.54675 -0.937448 1.08081e-19)
(3.54563 -0.770482 -5.59996e-21)
(2.44431 0.258136 0)
(2.10201 0.212178 0)
(3.72844 -1.28991 -6.81557e-20)
(3.90739 -1.50517 -4.54156e-20)
(2.54049 -0.827628 0)
(2.19691 -0.751022 3.02135e-20)
(3.60183 -1.10972 0)
(3.94964 -1.69123 1.01485e-19)
(3.76609 -1.45395 7.60625e-21)
(3.25948 0.0606343 -9.94486e-20)
(3.42265 -0.574433 0)
(3.04155 1.4773 -4.68859e-20)
(3.13704 0.796471 1.00235e-19)
(3.02708 2.39228 4.53554e-20)
(3.01397 2.0438 3.65638e-20)
(3.10897 2.59966 3.38485e-22)
(3.07429 2.56312 -4.78072e-20)
(3.03443 2.50708 -4.83286e-21)
(3.11314 2.54618 -5.15406e-20)
(2.62638 2.35746 -5.22451e-20)
(2.85939 2.459 1.03407e-19)
(2.1435 1.64849 0)
(2.36962 2.10093 0)
(1.97292 0.213547 0)
(1.9912 1.00152 0)
(2.04613 -0.63058 -5.14209e-20)
(2.99231 1.38811 -4.0692e-19)
(3.0947 -0.871521 -2.05468e-19)
(3.0226 0.318 4.00828e-19)
(3.12491 2.67524 2.8946e-19)
(3.04558 2.20734 -2.82985e-19)
(3.30072 2.83975 1.1026e-21)
(3.24203 2.86112 5.66313e-21)
(3.36316 2.53223 0)
(3.35802 2.7114 0)
(3.20985 2.26028 5.04284e-20)
(3.32295 2.38791 7.6572e-21)
(3.01242 1.80851 7.15187e-21)
(3.10619 2.08885 -5.02513e-20)
(3.04372 0.881255 1.60157e-20)
(3.01093 1.38033 -2.81561e-21)
(3.35686 -0.209072 -1.56125e-20)
(3.19543 0.301049 -1.39138e-20)
(3.75026 -0.926372 0)
(3.56887 -0.627659 2.04329e-20)
(4.08072 -1.69339 -2.86804e-20)
(4.04805 -1.46043 -1.26411e-21)
(4.1088 -1.85475 2.70119e-20)
(2.24075 -1.443 -7.11137e-20)
(2.39468 -1.6536 1.83501e-20)
(3.8038 -0.948543 -3.65068e-21)
(3.24025 -1.99366 2.0585e-19)
(3.88037 -2.12943 0)
(2.52136 -2.11904 4.3295e-20)
(2.20267 -1.23186 -5.55557e-20)
(2.4625 -1.81559 5.52429e-20)
(4.11056 -1.10766 -6.01827e-22)
(4.06542 -1.85524 -6.07311e-20)
(4.19804 -1.98377 -2.59038e-20)
(4.2423 -1.24466 -6.08504e-22)
(2.72774 -1.83829 8.54867e-21)
(3.72504 -1.24217 0)
(3.88732 -1.61831 -2.07658e-20)
(3.4053 -0.0289003 4.81625e-21)
(3.55997 -0.693961 0)
(3.18577 1.45081 -2.04299e-20)
(3.28394 0.729886 4.04273e-20)
(3.12578 2.40006 0)
(3.12878 2.04297 5.9265e-21)
(3.12747 2.59803 0)
(3.12007 2.58111 2.83441e-21)
(3.02021 2.39386 0)
(3.09734 2.51516 5.33981e-21)
(2.63164 2.13224 -1.40804e-21)
(2.85548 2.27689 4.98816e-21)
(2.17717 1.47825 3.49591e-21)
(2.38458 1.88581 -6.2531e-21)
(2.00384 0.213406 -1.23796e-21)
(2.048 0.903453 -2.08182e-21)
(2.0414 -0.523769 2.08728e-20)
(3.67985 1.51504 6.61267e-21)
(3.72989 0.347046 6.93324e-21)
(3.61905 2.81591 -2.55781e-22)
(3.62536 2.35677 0)
(3.59234 2.88661 0)
(3.60818 2.95586 -2.99348e-21)
(3.50907 2.5019 0)
(3.55413 2.72135 0)
(3.3301 2.14212 -3.42337e-23)
(3.44412 2.30186 -7.76551e-21)
(3.1046 1.73559 -4.03613e-21)
(3.19976 1.9854 0)
(3.10483 0.922308 -4.6391e-21)
(3.06891 1.37988 0)
(3.36248 -0.0486369 3.24746e-22)
(3.19915 0.432196 4.65057e-21)
(3.7582 -0.74745 -1.12866e-23)
(3.55118 -0.441474 6.22669e-22)
(3.94036 -0.96495 2.82078e-22)
(4.22658 -1.80112 7.05518e-21)
(4.19988 -1.59162 0)
(4.2967 -2.0542 1.34323e-20)
(4.24495 -1.94137 -1.01373e-20)
(3.97171 -3.02701 0)
(3.39589 -2.86044 0)
(2.6849 -2.40206 -2.47746e-20)
(2.24634 -1.03891 -5.85567e-21)
(2.48313 -1.55509 0)
(2.77597 -2.20744 -6.64179e-21)
(2.87013 -2.54477 1.85799e-21)
(4.55851 -3.01845 0)
(4.04723 -3.54346 0)
(4.45788 -3.5284 -1.11668e-19)
(4.33761 -1.5332 6.15629e-21)
(4.37557 -1.36284 0)
(4.37379 -2.161 -2.78561e-20)
(4.29401 -2.08984 -2.29632e-22)
(4.30584 -2.18469 7.11034e-20)
(4.25579 -1.06923 0)
(4.10018 -0.926639 7.72691e-21)
(2.96919 -2.66182 0)
(4.19146 -1.96197 1.03645e-20)
(4.25558 -2.04126 0)
(3.93735 -1.40815 4.31509e-22)
(4.0685 -1.76609 -2.85512e-22)
(3.63882 -0.178901 -8.32587e-21)
(3.80261 -0.87092 0)
(3.40124 1.38456 1.43726e-22)
(3.52258 0.612429 -8.77771e-21)
(3.28962 2.40079 -1.06394e-22)
(3.32496 2.0214 -7.74974e-21)
(3.23049 2.56591 8.74224e-21)
(3.255 2.57413 0)
(3.08374 2.26703 0)
(3.16115 2.45168 -8.91198e-21)
(2.7272 1.8948 -2.38287e-21)
(2.92952 2.08367 1.13276e-21)
(2.29684 1.29793 0)
(2.49691 1.65766 -3.35095e-22)
(2.08483 0.224503 -1.45016e-21)
(2.15721 0.813149 4.80635e-21)
(2.11342 -0.417238 8.59622e-21)
(4.57813 -0.976161 -5.4352e-20)
(4.59329 -2.13597 1.97414e-22)
(4.40618 1.44476 -2.17752e-20)
(4.51642 0.299412 8.57747e-20)
(4.15574 2.76192 9.84477e-21)
(4.27108 2.29161 -3.80322e-20)
(3.94257 2.81766 0)
(4.04408 2.8998 3.18747e-20)
(3.72158 2.42456 0)
(3.82483 2.65016 0)
(3.49799 2.01981 5.35466e-23)
(3.61198 2.21742 0)
(3.22919 1.66417 0)
(3.35002 1.86579 0)
(3.18321 0.980517 0)
(3.1568 1.37631 0)
(3.39537 0.104879 -3.44167e-21)
(3.25338 0.538928 0)
(3.75413 -0.56158 1.1178e-23)
(3.55959 -0.279158 3.51818e-21)
(3.92547 -0.786351 -9.32502e-21)
(4.38623 -1.93922 7.24899e-21)
(4.35261 -1.74406 -5.75681e-21)
(4.38309 -2.06263 2.11043e-20)
(2.75839 -1.8991 1.92377e-20)
(3.59681 -3.38003 0)
(3.0296 -2.87499 2.9895e-20)
(4.38114 -3.65428 1.18357e-19)
(4.10455 -3.66961 0)
(3.13266 -2.41013 5.46086e-21)
(3.22359 -2.7374 1.90224e-20)
(4.39968 -2.2621 1.96777e-22)
(4.28294 -2.2721 -1.38478e-21)
(4.48618 -1.71085 7.25918e-21)
(4.50535 -1.52702 -8.54292e-22)
(4.107 -0.748251 -1.27642e-20)
(4.26194 -0.882006 0)
(4.28797 -2.08374 6.69848e-21)
(4.24507 -2.15327 8.71184e-21)
(3.09289 -2.09092 -1.92988e-20)
(3.3789 -2.23437 -2.91555e-21)
(3.46759 -2.51955 -2.79303e-20)
(4.39829 -1.19361 5.38714e-21)
(3.25837 -3.17384 0)
(4.30337 -2.0057 7.56138e-21)
(4.30961 -2.03581 -3.09453e-20)
(4.17193 -1.51893 -1.28507e-20)
(4.25916 -1.84464 2.8958e-20)
(3.9352 -0.286446 0)
(4.07766 -0.980679 0)
(3.69473 1.29951 4.31236e-24)
(3.8291 0.501252 -9.50238e-27)
(3.52303 2.36682 1.05455e-22)
(3.60228 1.95087 0)
(3.39979 2.50842 0)
(3.46037 2.5311 -4.85781e-27)
(3.19823 2.14738 0)
(3.29926 2.3698 0)
(2.83804 1.68137 0)
(3.03513 1.90963 0)
(2.4339 1.1251 0)
(2.62076 1.44055 0)
(2.2523 0.208099 0)
(2.31151 0.714715 0)
(2.37709 -0.88956 -3.67486e-21)
(2.27521 -0.352691 0)
(2.80116 -1.61154 0)
(2.56565 -1.31962 1.21046e-21)
(3.33778 -1.97086 0)
(3.09495 -1.79904 1.09191e-21)
(5.13349 -2.98919 -3.43341e-20)
(4.69534 -3.55225 -2.26978e-20)
(4.92622 -3.45362 3.44813e-20)
(5.33329 -1.02801 2.05978e-20)
(5.27968 -2.15316 -1.97395e-22)
(5.11581 1.31654 -1.23749e-20)
(5.27308 0.191669 -2.84134e-20)
(4.69298 2.61879 -3.42873e-23)
(4.91302 2.14848 0)
(4.29014 2.67424 0)
(4.48298 2.75622 0)
(3.93687 2.28767 0)
(4.10352 2.49811 0)
(3.65415 1.88441 -1.31045e-23)
(3.78266 2.08897 0)
(3.37883 1.54491 0)
(3.50949 1.72718 0)
(3.25565 1.01521 0)
(3.27269 1.33103 0)
(3.43937 0.24616 -2.49658e-21)
(3.31065 0.635817 2.59724e-21)
(3.76794 -0.38954 -3.37061e-21)
(3.59367 -0.122935 4.49967e-22)
(3.94031 -0.614468 1.7401e-20)
(4.51969 -2.08153 -1.28281e-20)
(4.51471 -1.90907 -8.12351e-21)
(4.47036 -2.19147 0)
(4.26605 -3.48989 0)
(4.47061 -3.37339 1.86802e-20)
(3.64683 -2.415 1.9087e-20)
(3.6204 -2.13557 0)
(3.74728 -3.53416 0)
(3.36207 -3.07174 0)
(4.19431 -2.25378 0)
(4.53705 -1.33449 1.73442e-20)
(4.11005 -0.581645 -1.36033e-20)
(4.26731 -0.711247 0)
(4.14219 -3.51863 4.60409e-21)
(3.5545 -2.79211 -2.4356e-20)
(4.27527 -3.04453 5.97684e-21)
(4.15872 -3.17679 -3.35148e-21)
(3.74843 -2.65371 3.10961e-20)
(3.91782 -2.57959 6.09542e-21)
(3.93503 -2.24997 0)
(4.41106 -0.986583 -2.27394e-20)
(3.51384 -3.34681 0)
(4.29349 -2.01721 -2.48946e-20)
(4.10529 -2.1554 -1.57575e-20)
(4.19391 -2.08353 -6.07685e-20)
(4.42865 -1.99628 -1.45637e-20)
(4.36496 -1.99328 2.62578e-20)
(4.42863 -1.5953 0)
(4.45685 -1.88204 9.37307e-21)
(4.2731 -0.413799 8.29984e-27)
(4.38428 -1.09431 -8.62937e-27)
(4.04339 1.19316 -5.43386e-24)
(4.17716 0.386695 0)
(3.8128 2.29219 0)
(3.93087 1.87109 0)
(3.59294 2.41941 -4.0154e-23)
(3.69619 2.45795 4.85735e-27)
(3.32485 2.01948 1.43129e-27)
(3.4476 2.26239 -1.48592e-27)
(2.99578 1.49993 0)
(3.15714 1.75042 0)
(2.66169 0.981294 -1.32492e-23)
(2.8144 1.25746 0)
(2.46697 0.180334 1.74876e-23)
(2.54361 0.620751 0)
(2.51842 -0.75177 -1.42228e-22)
(2.45647 -0.301632 0)
(2.92124 -1.35556 -5.15613e-21)
(2.68617 -1.10369 -8.02993e-23)
(3.41743 -1.73525 -4.55105e-21)
(3.18117 -1.55722 4.0377e-21)
(4.0282 -1.89976 -1.80997e-21)
(3.69754 -1.85163 4.54115e-21)
(5.00444 -3.3012 1.29457e-20)
(4.37573 -2.80478 -8.16002e-23)
(4.67243 -3.12063 -1.43296e-20)
(5.64441 -2.79447 4.92529e-20)
(5.34544 -3.21461 -2.78856e-20)
(5.92325 -1.0295 -3.74781e-20)
(5.84182 -2.0465 -1.58639e-20)
(5.6922 1.14056 0)
(5.87302 0.102874 4.66781e-20)
(5.12758 2.37608 -3.60098e-22)
(5.42638 1.92615 -1.38076e-26)
(4.58151 2.45209 0)
(4.83784 2.52037 0)
(4.14998 2.10983 -2.06048e-23)
(4.35212 2.29441 0)
(3.8175 1.75105 -7.02203e-24)
(3.96841 1.93274 0)
(3.53641 1.43018 0)
(3.6698 1.5953 0)
(3.35284 1.01429 0)
(3.41059 1.25962 0)
(3.4567 0.379279 0)
(3.36328 0.715335 0)
(3.77178 -0.223536 0)
(3.60386 0.0441107 -1.71844e-22)
(3.94438 -0.440083 8.69864e-21)
(4.06407 -2.70223 -7.87388e-21)
(4.12943 -2.46953 0)
(4.31143 -2.3504 6.05508e-22)
(4.37552 -1.98757 -1.47976e-22)
(4.55228 -1.1168 0)
(4.41865 -0.802268 9.25041e-21)
(4.69869 -1.48302 2.86553e-21)
(4.71406 -1.24551 -1.07451e-20)
(4.67154 -1.87425 6.22887e-21)
(4.66965 -1.67265 -2.00229e-21)
(4.65595 -2.20357 -1.30525e-21)
(4.68888 -2.06742 -5.81584e-21)
(4.43296 -2.34255 -3.41109e-20)
(4.56216 -2.29858 2.36021e-21)
(4.12129 -2.26664 0)
(4.27135 -2.32908 3.46847e-20)
(3.99219 -2.18007 3.06506e-20)
(3.90637 -3.42476 -4.64099e-21)
(3.66255 -3.07649 -1.23988e-26)
(4.11849 -3.23926 3.36425e-21)
(3.82879 -2.85028 0)
(4.01905 -2.85502 0)
(3.95497 -2.8206 0)
(3.91735 -2.16947 -2.03615e-22)
(3.85979 -2.38275 4.56179e-23)
(4.23708 -2.69374 -2.39167e-20)
(4.69032 -2.14611 4.53814e-21)
(4.65386 -2.48194 3.10234e-20)
(4.03718 -2.04288 2.10451e-20)
(3.90495 -2.04003 -2.42886e-20)
(3.74066 -3.28025 -1.52867e-26)
(4.2714 -1.86803 1.41413e-21)
(4.17735 -1.96361 -8.58816e-21)
(4.51591 -1.88547 -6.97781e-21)
(4.42939 -1.8959 0)
(4.67198 -1.57817 4.93393e-27)
(4.63857 -1.84711 7.98969e-21)
(4.62526 -0.490881 0)
(4.69497 -1.14181 0)
(4.42178 1.08394 -1.41435e-22)
(4.5539 0.277222 0)
(4.14673 2.18422 0)
(4.29954 1.75685 0)
(3.8555 2.28966 6.41999e-23)
(4.00528 2.34297 0)
(3.543 1.87008 -9.26063e-24)
(3.69386 2.12429 0)
(3.22768 1.33712 0)
(3.38329 1.59732 0)
(2.8987 0.840352 -1.93831e-23)
(3.06122 1.09967 0)
(2.67018 0.120884 2.07779e-23)
(2.76428 0.512823 0)
(2.73356 -0.651166 -4.39134e-23)
(2.65886 -0.288166 2.14614e-27)
(3.11935 -1.15415 -1.87907e-23)
(2.90408 -0.937775 0)
(3.59534 -1.43906 1.05071e-21)
(3.35536 -1.3301 -5.2369e-21)
(4.11236 -1.50672 4.65185e-21)
(3.86056 -1.47786 1.41885e-20)
(4.64731 -1.76223 -7.92146e-21)
(4.35835 -1.61297 -7.204e-21)
(4.49811 -2.53007 9.94958e-22)
(4.03419 -1.98293 1.63778e-22)
(4.25605 -2.26319 0)
(5.17872 -2.90011 -1.24119e-21)
(4.8023 -2.77653 1.73288e-21)
(5.89385 -2.50355 -3.40996e-21)
(5.55626 -2.83216 -4.105e-22)
(6.301 -0.989171 1.03095e-22)
(6.16175 -1.8655 -2.19533e-21)
(6.08756 0.93436 0)
(6.27323 0.000451769 0)
(5.4682 2.07957 1.5741e-22)
(5.80392 1.65349 -2.03385e-26)
(4.82042 2.20335 8.99957e-27)
(5.12902 2.23762 -9.5283e-27)
(4.33246 1.91514 1.60551e-23)
(4.55954 2.07518 0)
(3.96872 1.59987 0)
(4.13656 1.76148 0)
(3.68651 1.30056 -2.74406e-23)
(3.82375 1.44945 0)
(3.46931 0.973161 0)
(3.56188 1.15321 0)
(3.48548 0.476548 -3.63844e-23)
(3.43965 0.74609 0)
(3.74922 -0.0625722 7.87687e-23)
(3.59964 0.190232 -2.76554e-22)
(4.09371 -0.435425 1.47394e-20)
(3.92272 -0.278422 0)
(4.4036 -0.655772 6.94799e-20)
(4.25139 -0.563104 -4.9928e-20)
(4.54211 -0.739297 -2.79143e-21)
(4.90695 -1.59273 0)
(4.88261 -1.11655 1.23595e-20)
(4.90337 -1.35441 -1.48511e-21)
(4.86529 -1.98412 0)
(4.87289 -1.78554 0)
(4.76043 -2.24535 -1.65869e-20)
(4.85336 -2.15186 -3.18222e-27)
(4.41743 -2.29879 8.4911e-21)
(4.61139 -2.30363 3.02813e-20)
(4.03979 -2.15916 0)
(4.20575 -2.24248 -3.03299e-20)
(3.70936 -1.86863 -4.28602e-24)
(3.78364 -1.62392 -1.127e-21)
(5.02638 -2.25789 -2.77732e-20)
(5.03759 -1.85086 -1.7023e-20)
(3.76386 -1.90641 -2.85177e-20)
(3.8471 -2.00149 1.06237e-20)
(3.99314 -3.20501 -1.76036e-25)
(3.87373 -3.02869 0)
(4.04815 -2.9707 0)
(3.98559 -2.96287 -3.26377e-25)
(3.82901 -2.59298 -1.93962e-23)
(4.17134 -2.94001 -1.24728e-20)
(3.63721 -2.07478 1.32411e-23)
(4.53208 -2.76852 0)
(3.44546 -1.10029 -8.63996e-21)
(3.45629 -1.45442 4.62321e-23)
(4.96892 -2.5953 -4.29188e-20)
(5.4484 -1.83528 1.88804e-20)
(5.40416 -2.22484 5.51751e-21)
(3.30975 -0.687766 9.90742e-21)
(3.0849 -0.397789 8.67419e-21)
(3.00699 -0.0976436 1.27126e-20)
(5.82132 -1.70666 3.45709e-20)
(5.35447 -1.40363 1.74491e-20)
(5.68384 -1.31224 1.48272e-22)
(3.65522 -1.68874 -8.10305e-21)
(3.54057 -1.49541 0)
(3.52322 -1.36575 9.65053e-21)
(3.88761 -3.14131 -1.19281e-26)
(4.0154 -1.91884 -2.30383e-21)
(3.85941 -1.87215 -7.15831e-21)
(4.33304 -1.77741 6.759e-21)
(4.16361 -1.76108 2.27733e-21)
(4.64131 -1.80984 0)
(4.45799 -1.6927 0)
(4.91603 -1.5583 0)
(4.75459 -1.71357 0)
(4.97432 -0.554722 0)
(4.95381 -1.13395 0)
(4.79103 0.963908 0)
(4.89302 0.194404 0)
(4.4797 2.04309 9.93154e-27)
(4.63464 1.63207 -1.03181e-26)
(4.13686 2.13017 -2.40423e-23)
(4.29254 2.19441 -3.55065e-27)
(3.7699 1.70676 9.2607e-24)
(3.93071 1.95934 0)
(3.41948 1.17925 0)
(3.57471 1.4372 0)
(3.08772 0.706269 -1.34193e-23)
(3.24133 0.943512 0)
(2.87819 0.0850957 1.34981e-23)
(2.95487 0.41233 0)
(2.97703 -0.507497 4.39093e-23)
(2.88303 -0.24483 0)
(3.39988 -0.842969 1.07097e-22)
(3.16237 -0.700113 3.7195e-27)
(3.90661 -1.12157 5.62188e-21)
(3.66254 -0.981512 0)
(4.31533 -1.34938 -4.91061e-21)
(4.12796 -1.2483 -7.16322e-21)
(4.75178 -1.46028 1.59143e-20)
(4.51428 -1.42448 -9.15652e-21)
(5.0475 -1.44794 -1.50392e-20)
(4.07783 -1.68252 5.22836e-21)
(3.70181 -1.24492 -1.54943e-20)
(4.69167 -2.26672 1.03238e-23)
(4.39354 -2.00721 5.44251e-22)
(5.34351 -2.5594 -2.89496e-21)
(4.99851 -2.45883 3.23512e-21)
(6.07228 -2.21358 -3.99441e-23)
(5.71969 -2.4934 4.16822e-22)
(6.50808 -0.934244 -1.03e-22)
(6.36068 -1.68043 -3.92409e-26)
(6.28921 0.730903 0)
(6.48109 -0.0826914 0)
(5.64764 1.74708 -2.44614e-26)
(5.99432 1.36572 2.58927e-26)
(4.9677 1.90759 0)
(5.29557 1.90387 0)
(4.45834 1.70391 1.48619e-23)
(4.69153 1.82452 0)
(4.08466 1.4512 0)
(4.2594 1.57796 0)
(3.81366 1.18043 2.74407e-23)
(3.94027 1.31531 0)
(3.59932 0.899923 0)
(3.69895 1.03887 0)
(3.53549 0.530537 -4.0907e-24)
(3.5361 0.725703 9.90078e-27)
(3.72308 0.0815718 -7.65558e-23)
(3.59799 0.30372 0)
(4.04825 -0.289922 0)
(3.87816 -0.125193 -5.33228e-24)
(4.36768 -0.525188 -2.13456e-20)
(4.20906 -0.420506 -4.24833e-23)
(4.50552 -0.59987 -2.25943e-20)
(5.08404 -1.16464 2.30803e-20)
(4.99785 -0.976426 -1.46686e-20)
(5.12862 -1.62733 0)
(5.11742 -1.39655 0)
(5.04131 -1.97798 -1.63397e-24)
(5.077 -1.80685 -2.08244e-27)
(4.82937 -2.15211 -2.12927e-24)
(4.983 -2.10879 -4.36376e-27)
(4.37453 -2.10634 -3.01524e-21)
(4.62351 -2.16006 -1.13516e-26)
(3.88725 -1.8678 -2.43241e-20)
(4.11752 -2.00974 1.41863e-20)
(3.70556 -1.71713 -3.10868e-21)
(4.00035 -3.03697 4.33902e-25)
(3.96163 -3.05359 -7.28371e-26)
(3.87193 -2.76231 0)
(4.08704 -3.0691 3.72541e-25)
(3.60788 -2.33507 2.85409e-23)
(4.37578 -2.9841 1.2496e-20)
(3.38402 -1.68338 -2.75765e-23)
(4.77937 -2.82593 3.31847e-21)
(3.13817 -0.806264 8.00222e-23)
(5.25714 -2.53216 0)
(2.90928 0.360138 -1.44073e-20)
(2.81944 0.325558 0)
(5.7681 -2.01338 2.44949e-20)
(5.98462 -1.067 -1.2535e-20)
(6.09897 -1.348 -3.33868e-20)
(3.23625 0.299027 -2.37667e-22)
(3.03698 0.599496 -2.35552e-20)
(3.38602 0.517686 -2.37152e-22)
(6.18192 -0.619968 7.05314e-21)
(5.69086 -0.761297 3.20164e-20)
(5.86723 -0.436678 4.11963e-20)
(3.37366 -1.02871 0)
(3.2246 -0.749448 2.63593e-20)
(3.6321 -1.55889 -5.90228e-21)
(3.48283 -1.10127 6.1838e-21)
(3.92986 -3.04307 8.02241e-26)
(4.03525 -1.68348 -2.16927e-22)
(3.837 -1.69321 6.11628e-21)
(4.38747 -1.50537 3.28409e-23)
(4.20247 -1.66778 2.65392e-22)
(4.69773 -1.54983 7.005e-24)
(4.52359 -1.63562 -8.64083e-27)
(5.03696 -1.3814 0)
(4.88569 -1.6298 0)
(5.19164 -0.553524 0)
(5.20352 -1.12115 0)
(5.04788 0.844001 -6.6982e-23)
(5.21193 0.0984641 0)
(4.69643 1.87053 0)
(4.93204 1.47335 0)
(4.29926 1.94045 0)
(4.5238 2.01512 0)
(3.9058 1.5213 0)
(4.11011 1.77212 0)
(3.55947 1.00983 0)
(3.73084 1.26755 0)
(3.24561 0.558264 4.60515e-23)
(3.40345 0.784475 0)
(3.08168 0.0401774 8.18838e-24)
(3.13542 0.30313 1.4048e-26)
(3.299 -0.381075 0)
(3.14519 -0.20004 0)
(3.75462 -0.726863 3.93573e-24)
(3.53413 -0.54133 -3.71952e-27)
(4.08586 -1.13288 5.35253e-23)
(3.94029 -0.95068 1.4237e-26)
(4.40447 -1.23113 6.3055e-21)
(4.24659 -1.22008 6.3619e-24)
(4.74886 -1.19658 -3.0726e-21)
(4.57271 -1.2264 -3.35759e-21)
(5.20572 -1.07447 -1.43254e-20)
(4.974 -1.14289 1.07667e-20)
(5.45538 -0.969347 -3.39429e-20)
(3.27066 -0.37614 1.6841e-21)
(3.16641 0.0129845 -2.79515e-22)
(3.95321 -1.26034 -1.70103e-22)
(3.55958 -0.825188 0)
(4.74432 -1.91404 -1.02018e-23)
(4.35966 -1.6176 -5.51217e-22)
(5.48842 -2.20141 0)
(5.11876 -2.10968 0)
(6.20848 -1.88741 2.68967e-23)
(5.86996 -2.13409 0)
(6.51242 -0.891886 0)
(6.43797 -1.47 0)
(6.27969 0.514525 0)
(6.45318 -0.190959 0)
(5.69255 1.43031 2.28332e-23)
(6.01249 1.08149 0)
(5.039 1.61435 0)
(5.3582 1.58607 0)
(4.52525 1.49259 -1.03123e-23)
(4.75911 1.57376 0)
(4.16387 1.29311 -3.36929e-23)
(4.33224 1.39398 0)
(3.90243 1.07133 -3.95681e-23)
(4.02078 1.18461 2.3977e-27)
(3.71812 0.818456 -4.26113e-23)
(3.80204 0.942875 -2.07427e-26)
(3.61446 0.536923 -3.18374e-24)
(3.6449 0.679439 0)
(3.70006 0.199524 0)
(3.62377 0.371659 0)
(3.96727 -0.128724 0)
(3.81539 0.0281684 5.34005e-24)
(4.28975 -0.376421 2.10137e-20)
(4.12492 -0.260789 4.17133e-23)
(4.43508 -0.46894 -1.84102e-20)
(5.01219 -0.851752 0)
(4.89058 -0.74033 6.4229e-20)
(5.29047 -1.16296 -9.67797e-21)
(5.16899 -0.99687 -3.68323e-21)
(5.33748 -1.56811 1.55489e-24)
(5.33299 -1.37053 1.19329e-27)
(5.1785 -1.82755 3.80112e-24)
(5.25946 -1.70843 6.24201e-27)
(4.84935 -1.88542 -1.11426e-26)
(5.06294 -1.90208 1.13296e-26)
(4.28258 -1.71653 -7.289e-21)
(4.58526 -1.83233 1.39833e-26)
(3.71995 -1.40243 2.42349e-20)
(3.96933 -1.56548 7.42643e-21)
(3.48596 -1.17122 2.03707e-20)
(3.9012 -2.92706 0)
(3.95764 -3.10062 2.6162e-26)
(3.63138 -2.56445 0)
(4.16191 -3.07964 -2.29914e-24)
(3.32048 -1.9756 -3.17182e-23)
(4.50395 -2.96961 -3.43304e-23)
(3.09783 -1.08381 2.63787e-23)
(4.97166 -2.72847 1.80851e-22)
(2.80633 0.0545209 -1.30574e-22)
(5.49888 -2.18012 4.27435e-22)
(2.82904 0.821924 0)
(5.96774 -1.46182 4.20111e-20)
(3.50643 0.735861 -2.63887e-20)
(3.20613 0.761179 4.47782e-20)
(6.21018 -0.657785 -8.09331e-22)
(5.88576 -0.00587405 -4.40588e-20)
(6.10964 0.0394171 7.56483e-21)
(3.31097 -0.74754 -2.27885e-20)
(3.87908 -3.03135 -1.66243e-25)
(3.55913 -1.24935 -6.28395e-21)
(3.23624 -0.255299 -1.80277e-21)
(3.49425 -0.988763 -6.81708e-21)
(3.98436 -1.48833 -5.29069e-22)
(3.88935 -1.49788 5.65059e-21)
(4.38282 -1.41129 -3.27995e-23)
(4.29584 -1.42968 1.13284e-21)
(4.7094 -1.44943 2.37263e-22)
(4.61227 -1.39356 -3.86408e-22)
(5.10435 -1.27581 1.75985e-23)
(4.97155 -1.36452 -1.12336e-26)
(5.36318 -0.578418 3.66569e-23)
(5.32914 -0.97003 2.359e-26)
(5.26054 0.691302 3.35134e-23)
(5.38558 0.068824 0)
(4.89189 1.65474 0)
(5.10394 1.3163 0)
(4.45453 1.72454 -2.45977e-23)
(4.67411 1.81504 0)
(4.02539 1.32573 1.7373e-26)
(4.24113 1.56843 -1.80353e-26)
(3.64077 0.837095 2.43451e-26)
(3.83351 1.08601 -2.52648e-26)
(3.31933 0.426109 -2.78434e-26)
(3.47865 0.618328 2.88862e-26)
(3.21394 0.0894193 -1.25438e-22)
(3.2386 0.238107 3.1348e-26)
(3.38676 -0.136256 6.80696e-23)
(3.29428 -0.0395913 3.30693e-26)
(3.49734 -0.449728 5.22054e-24)
(3.46978 -0.274652 0)
(3.64695 -0.757409 6.55504e-23)
(3.54641 -0.633964 3.19136e-26)
(4.05333 -0.915738 5.55559e-23)
(3.8291 -0.842069 0)
(4.56995 -0.989779 3.80574e-21)
(4.31203 -0.977557 0)
(5.01488 -0.885113 1.513e-20)
(4.80341 -0.962558 -1.70716e-20)
(5.40426 -0.509843 0)
(5.21694 -0.726152 1.90724e-21)
(5.55443 -0.00453942 6.63079e-20)
(5.52973 -0.270777 -6.42059e-20)
(3.41671 0.193107 1.96777e-21)
(3.53803 0.574926 1.53769e-20)
(3.47392 0.395285 -1.48613e-20)
(3.37807 -0.280481 5.36768e-22)
(3.36915 -0.0275291 6.22163e-23)
(3.75802 -0.896689 0)
(3.50399 -0.568838 0)
(4.49298 -1.47279 -2.60034e-23)
(4.1018 -1.20338 0)
(5.31823 -1.7485 0)
(4.90834 -1.66097 0)
(5.9654 -1.599 1.30385e-23)
(5.68948 -1.72791 0)
(6.17799 -0.891151 0)
(6.11505 -1.33828 0)
(6.09008 0.343597 0)
(6.1751 -0.283895 0)
(5.63223 1.14031 -2.99142e-23)
(5.89465 0.835264 0)
(5.06233 1.33841 0)
(5.34179 1.2891 0)
(4.57088 1.29153 -2.53393e-26)
(4.7995 1.33189 2.68332e-26)
(4.21483 1.14637 3.36582e-23)
(4.37579 1.22521 3.68396e-26)
(3.96291 0.965843 8.3713e-23)
(4.07579 1.0582 4.01099e-26)
(3.80197 0.745513 -3.21898e-24)
(3.87088 0.859043 0)
(3.70524 0.506722 4.3701e-23)
(3.74482 0.626764 -4.6552e-26)
(3.71336 0.262609 4.35684e-26)
(3.69235 0.389157 -4.62167e-26)
(3.88134 0.00981512 0)
(3.78317 0.137811 0)
(4.15963 -0.216942 -3.51536e-21)
(4.01908 -0.107794 5.58672e-21)
(4.44315 -0.405592 0)
(4.31174 -0.322233 -6.81175e-22)
(4.57209 -0.499825 0)
(5.13494 -0.850631 0)
(4.89333 -0.676015 -8.90087e-22)
(4.99201 -0.759887 -2.05508e-20)
(5.46715 -1.0879 7.38548e-22)
(5.31996 -0.966621 2.91859e-21)
(5.50024 -1.39099 5.24345e-25)
(5.51352 -1.24322 0)
(5.25186 -1.52308 -2.17125e-24)
(5.39116 -1.47391 0)
(4.80263 -1.43379 0)
(5.07316 -1.52375 0)
(4.1418 -1.13645 1.07902e-24)
(4.4835 -1.31189 0)
(3.52445 -0.726402 0)
(3.79147 -0.930154 0)
(3.17266 -0.291678 0)
(3.30448 -0.523317 1.21315e-20)
(3.07832 -0.0708848 0)
(3.14063 -0.177448 -1.00582e-20)
(3.65451 0.939325 4.94431e-20)
(3.64443 0.730411 0)
(5.70947 0.45644 3.20396e-21)
(5.45267 0.294308 5.66467e-21)
(3.70486 -2.81821 3.39673e-24)
(3.91495 -3.08292 0)
(4.51893 -0.447217 0)
(3.32069 -2.25498 4.80199e-24)
(4.18555 -2.9906 1.65265e-24)
(3.32996 -0.186318 2.48234e-20)
(3.08744 0.457513 0)
(3.02637 0.55341 0)
(3.02697 -1.39434 1.71065e-23)
(4.559 -2.76688 6.06019e-23)
(2.78281 -0.223115 0)
(5.07788 -2.24106 -4.01592e-22)
(2.62737 0.877357 0)
(5.55144 -1.37781 0)
(3.101 1.02169 0)
(5.86548 -0.441879 -2.14426e-20)
(3.30972 0.980166 -3.42657e-21)
(5.9329 0.361139 -1.13782e-21)
(3.76695 0.880074 0)
(3.86312 1.08056 -2.40911e-20)
(5.73163 0.761135 -2.88651e-20)
(5.37585 0.82282 1.01081e-19)
(5.2354 0.551213 -1.05732e-19)
(3.76624 -2.99243 1.13235e-25)
(3.63526 -1.11945 7.26216e-21)
(3.42455 -0.683319 0)
(4.03173 -1.28639 -1.90808e-21)
(3.81941 -1.26294 -3.14777e-21)
(4.402 -1.2212 0)
(4.25968 -1.25225 2.03376e-21)
(4.71935 -1.24311 0)
(4.61412 -1.26711 1.38324e-22)
(5.13117 -1.07514 -1.75876e-23)
(4.98036 -1.20097 0)
(5.43704 -0.540212 -4.59543e-23)
(5.35061 -0.863549 0)
(5.34979 0.556311 2.88171e-23)
(5.44319 0.0138264 0)
(4.96081 1.43041 -1.68172e-23)
(5.15533 1.14073 2.2486e-28)
(4.51361 1.48857 2.45728e-23)
(4.71634 1.60012 2.5919e-26)
(4.06166 1.09585 -5.21363e-23)
(4.27861 1.34513 4.26097e-26)
(3.66631 0.650408 -5.49079e-26)
(3.85024 0.880573 5.33831e-26)
(3.45973 0.33324 -6.49023e-23)
(3.54573 0.47355 6.31758e-26)
(3.50863 0.119707 1.33789e-22)
(3.47065 0.219946 0)
(3.63878 -0.168993 2.19624e-24)
(3.59648 -0.00919466 7.09597e-26)
(3.75382 -0.570108 -1.38521e-22)
(3.69084 -0.374324 0)
(4.06525 -0.771944 -6.55127e-23)
(3.89546 -0.712658 -7.02534e-26)
(4.36798 -0.772393 0)
(4.23608 -0.779005 0)
(4.60707 -0.772888 7.84075e-21)
(4.48949 -0.775254 -8.20633e-21)
(4.895 -0.662418 0)
(4.74626 -0.739171 -3.99851e-27)
(5.13728 -0.422166 2.74998e-21)
(5.03723 -0.554697 -4.0207e-21)
(5.21808 -0.00145013 3.99726e-20)
(5.20266 -0.2361 -3.98962e-20)
(5.02589 0.372323 0)
(5.16432 0.217673 -5.64114e-21)
(3.65499 0.517617 8.21283e-21)
(3.88337 0.75108 -4.33121e-22)
(3.75982 0.642995 -1.44703e-20)
(3.53738 0.180795 1.74314e-20)
(3.57964 0.361472 -8.09195e-21)
(3.53636 -0.24179 8.48976e-21)
(3.52383 -0.0263918 -2.6313e-20)
(3.71855 -0.681566 -3.31917e-23)
(3.59018 -0.455251 2.81386e-22)
(4.21728 -1.11048 2.60023e-23)
(3.92908 -0.903825 0)
(4.89245 -1.39766 9.32109e-26)
(4.5508 -1.27905 -9.85236e-26)
(5.42027 -1.42817 -6.37497e-26)
(5.18499 -1.46073 6.74013e-26)
(5.78382 -0.810008 -1.53175e-23)
(5.60824 -1.22555 0)
(5.8785 0.25748 2.63313e-26)
(5.88958 -0.267165 -2.7858e-26)
(5.51319 0.897583 7.047e-24)
(5.73197 0.649991 3.56072e-26)
(5.02616 1.08469 0)
(5.26371 1.02818 0)
(4.6005 1.08201 4.24639e-23)
(4.80113 1.09467 -2.56892e-27)
(4.26705 1.00295 -8.32223e-26)
(4.41884 1.04995 8.8147e-26)
(4.02388 0.870391 3.83812e-24)
(4.13428 0.942132 0)
(3.86226 0.693116 4.58503e-23)
(3.93177 0.789535 0)
(3.78095 0.482452 -4.80321e-23)
(3.81528 0.591716 0)
(3.7649 0.284108 9.05806e-26)
(3.76721 0.383431 -9.60603e-26)
(3.84332 0.0977727 0)
(3.79528 0.192991 0)
(4.03142 -0.0858179 3.92798e-21)
(3.93202 0.00411574 5.76025e-21)
(4.28201 -0.27143 -2.22474e-20)
(4.15724 -0.183897 1.07672e-20)
(4.40356 -0.369345 0)
(4.96543 -0.70216 -4.98722e-21)
(4.80726 -0.638873 2.26968e-20)
(5.21504 -0.829235 0)
(5.06735 -0.76582 4.89727e-21)
(5.56804 -0.962923 -1.94175e-24)
(5.40951 -0.90438 0)
(5.57948 -1.10972 -2.06891e-24)
(5.61807 -1.03662 -1.17269e-26)
(5.2344 -1.0916 0)
(5.43633 -1.12403 0)
(4.67461 -0.843866 0)
(4.99341 -1.01424 0)
(3.93618 -0.414395 -1.07288e-24)
(4.30884 -0.662794 0)
(3.28515 0.0657479 0)
(3.59398 -0.195095 0)
(2.96134 0.415337 1.337e-20)
(3.11972 0.25388 -1.1722e-20)
(2.98335 0.652053 -3.6868e-21)
(3.90957 1.02979 0)
(4.02948 0.824825 9.68738e-21)
(4.98699 0.683169 7.86518e-20)
(4.843 0.457974 -1.06433e-19)
(3.43985 -2.56707 -3.44637e-25)
(3.84683 -2.93808 1.01128e-24)
(3.30074 -0.0309484 -4.28897e-20)
(3.35336 0.439537 3.0546e-20)
(3.00763 -1.69271 -6.52984e-23)
(4.1239 -2.67364 0)
(2.71269 -0.516858 -1.07749e-22)
(4.52246 -2.14448 -1.90242e-22)
(2.52776 0.790434 0)
(4.9759 -1.17278 0)
(2.79741 1.33773 4.0105e-22)
(5.2861 -0.0422052 -1.79396e-21)
(3.38495 1.16123 0)
(5.34321 0.915946 -1.98764e-20)
(3.42598 1.20104 -1.64362e-20)
(5.25692 1.36614 0)
(4.07638 1.18961 1.29324e-20)
(5.15271 1.28802 2.55849e-20)
(4.18888 0.866084 -1.99737e-20)
(4.07684 1.13959 1.59873e-20)
(5.01848 0.987338 -7.36826e-20)
(4.15781 0.807759 -6.68318e-21)
(4.29147 0.835109 -5.16475e-21)
(4.35814 0.89988 2.47296e-20)
(4.58911 -0.626453 -5.02472e-20)
(4.75599 0.696496 1.98693e-21)
(4.66454 0.483764 2.40645e-19)
(3.60941 -2.80023 0)
(3.59558 -0.910165 -3.54117e-21)
(3.51052 -0.619965 1.7006e-20)
(3.95575 -1.08868 0)
(3.83414 -1.08315 0)
(4.31663 -1.0921 0)
(4.2453 -1.06182 0)
(4.67816 -1.10822 0)
(4.6013 -1.08958 0)
(5.08706 -0.934666 1.93117e-23)
(4.95402 -0.983476 1.50312e-27)
(5.40176 -0.510975 9.26525e-24)
(5.28984 -0.69333 1.01234e-26)
(5.33911 0.389596 4.64015e-24)
(5.42726 -0.0159828 1.19243e-26)
(4.89382 1.18854 1.67747e-23)
(5.13239 0.940174 4.4063e-26)
(4.41782 1.25886 0)
(4.64666 1.37205 -2.65427e-27)
(4.01461 0.884499 5.20918e-23)
(4.2191 1.1223 2.88005e-27)
(3.73799 0.528153 0)
(3.87235 0.698389 3.59944e-27)
(3.67022 0.336843 -2.03894e-24)
(3.7057 0.413615 0)
(3.69342 0.180994 -1.37801e-22)
(3.703 0.263272 0)
(3.70674 -0.0743605 -7.05041e-23)
(3.7142 0.0607642 1.41526e-25)
(3.80147 -0.339636 1.41648e-22)