/*--------------------------------*- C++ -*----------------------------------*\
  =========                 |
  \\      /  F ield         | OpenFOAM: The Open Source CFD Toolbox
   \\    /   O peration     | Website:  https://openfoam.org
    \\  /    A nd           | Version:  10
     \\/     M anipulation  |
\*---------------------------------------------------------------------------*/
FoamFile
{
    format      ascii;
    class       surfaceScalarField;
    location    "7.5";
    object      phi;
}
// * * * * * * * * * * * * * * * * * * * * * * * * * * * * * * * * * * * * * //

dimensions      [0 3 -1 0 0 0 0];

internalField   nonuniform List<scalar> 
12623
(
0.387242
0.100768
-0.156091
-0.331919
0.299982
-0.139447
0.226707
0.470771
0.0132369
-0.440246
-0.0437618
0.0434324
0.455507
-0.0281684
-0.430277
-0.0626671
0.0903978
0.402546
-0.437369
0.0505251
-0.0418146
0.193158
-0.217196
0.0658528
-0.262919
0.221104
0.349358
0.00692554
-0.356283
0.231169
-0.0186418
0.13683
0.377872
-0.176031
-0.20184
-0.250806
0.199174
0.429503
-0.20465
-0.14774
0.149603
0.202787
0.0193231
0.0330012
-0.256974
-0.194641
0.0662233
0.0641786
0.0351631
-0.117116
0.0177747
0.049083
-0.110602
0.125697
-0.0316083
0.115854
0.00664309
-0.0410773
-0.0127647
0.0471989
-0.105875
0.0409131
0.0716051
-0.109453
-0.0374989
-0.07063
0.0282122
0.0599578
-0.01754
0.0304993
-0.149446
0.0483166
-0.0655695
0.124281
-0.271885
0.024415
0.280471
0.039634
-0.302974
-0.00854572
-0.309292
0.0226205
0.311087
-0.195324
0.15835
-0.152667
0.189641
-0.202134
-0.176253
0.183063
-0.198449
0.197081
-0.120346
0.121714
-0.203126
0.163028
-0.454542
-0.0191106
0.058181
0.415472
0.038795
-0.458734
-0.0346036
0.431635
-0.412819
-0.00423305
0.0281977
0.388855
0.018085
-0.419683
-0.0112216
-0.451255
0.0513321
0.418008
-0.446147
-0.0242182
0.373219
-0.0172898
-0.401048
0.0451188
0.000348075
0.049939
0.322932
-0.393275
0.00678234
0.369203
-0.401948
0.00443939
0.0854347
-0.0835452
0.195192
-0.363479
-0.0224307
0.0315882
0.354321
-0.017862
-0.354333
0.0087161
0.018255
-0.442387
-0.401261
0.0730323
0.378754
-0.405437
-0.0470951
-0.281746
0.0350302
0.29381
0.219236
0.0308559
-0.297187
-0.234072
0.0804253
0.372883
-0.0835241
0.354317
-0.293672
0.022879
-0.286741
0.295918
0.0612056
-0.0621083
-0.295015
0.0515524
0.276769
-0.0324036
-0.0285171
0.0174032
0.314221
-0.303107
-0.325239
0.322467
-0.0257455
0.314518
-0.0484196
0.0551865
-0.321285
0.214908
-0.212745
-0.180484
0.178321
-0.201563
0.222525
0.193946
-0.207946
-0.143614
0.138815
-0.210989
-0.0873696
0.0904126
-0.21639
-0.0230022
0.0284035
-0.226841
0.0471775
-0.0367262
-0.2428
0.115342
-0.0993834
-0.25504
0.168956
-0.156716
-0.270735
0.206243
-0.190548
0.221504
-0.280034
-0.212205
0.224347
-0.228312
-0.197598
-0.205016
0.217526
0.210014
0.224553
-0.205222
-0.228311
-0.180485
-0.231846
-0.140079
-0.232304
-0.0869123
-0.240122
-0.0151838
-0.251815
0.0588701
-0.262739
0.126266
-0.277338
0.183555
-0.283737
0.212642
-0.294808
0.232574
0.203199
0.218988
-0.197635
0.215294
0.205431
0.222463
-0.288391
-0.214106
-0.29297
0.220626
0.198988
0.212215
-0.192215
0.203783
0.210499
0.213566
-0.285051
-0.216906
-0.291631
0.212227
0.192051
0.201159
-0.180995
0.1937
0.203993
-0.281485
-0.207559
-0.276324
0.188686
0.193895
-0.168988
-0.151567
0.192794
0.192326
-0.213894
-0.259917
0.181448
-0.265446
0.213753
-0.222338
-0.17241
-0.197254
0.192595
-0.146908
-0.152489
0.23538
-0.24411
-0.188905
-0.179173
0.251596
-0.256227
-0.192966
-0.197736
0.260543
-0.260954
-0.139669
-0.176169
0.267507
-0.271753
-0.010938
-0.0803588
0.281059
-0.287597
0.132804
0.0681766
0.292881
-0.294332
0.214094
0.188839
0.290312
-0.29345
0.223764
0.228554
0.284838
-0.27277
0.176619
0.203615
-0.255784
0.164462
-0.292618
0.280333
-0.204621
0.279274
-0.227097
-0.266071
-0.220904
-0.275763
0.25622
-0.192662
-0.209536
-0.24888
0.224521
-0.132357
-0.183208
-0.217158
0.205422
-0.024991
-0.09202
-0.201697
0.203935
0.0881753
0.0321286
-0.206446
0.217322
0.167445
0.136304
-0.220785
0.227562
0.203238
0.190483
-0.22022
0.221955
0.208764
0.212773
-0.206029
0.185966
0.209626
0.118792
-0.117791
0.191794
0.188086
-0.104231
0.179036
-0.169859
-0.235675
0.149749
-0.197896
-0.237408
-0.281078
0.282526
-0.228545
-0.22967
0.217918
-0.254319
-0.279658
-0.23109
0.129507
-0.154286
-0.210896
-0.238579
0.257136
0.131192
0.110643
-0.219715
0.229062
-0.228317
0.120969
0.193677
-0.217651
-0.122935
0.194396
-0.10495
0.222853
0.0916436
-0.239895
0.228742
-0.245375
-0.155777
-0.141398
0.260658
-0.269582
-0.179982
-0.16389
0.281942
-0.286677
-0.188231
-0.185376
0.293265
-0.298167
-0.134767
-0.169581
0.301853
-0.306698
-0.00609359
-0.0766721
0.308366
-0.311085
0.135523
0.0698442
0.307729
-0.305517
0.211882
0.185482
0.298692
-0.28832
0.213391
0.22173
0.276639
-0.270414
0.170393
0.191934
0.151184
-0.277319
0.27289
-0.200192
-0.215697
-0.258219
0.247432
-0.181875
-0.194865
-0.224616
0.219578
-0.127319
-0.160392
-0.205061
0.205454
-0.0253834
-0.0775027
-0.207514
0.21022
0.0854687
0.0300686
-0.224478
0.228034
0.163889
0.122047
-0.240584
0.237736
0.206086
0.177932
-0.24134
0.238085
0.212019
0.209169
-0.234178
0.222813
0.197331
0.213533
0.157524
0.0811337
-0.0632791
0.173939
0.185675
0.0627753
0.183871
-0.0522504
0.178532
0.218689
-0.224222
-0.274125
0.203495
-0.239125
-0.182453
-0.209241
-0.243669
0.254268
0.120592
-0.225668
0.0926424
-0.0993348
0.0804545
-0.200835
-0.119253
-0.190977
-0.307608
0.305214
-0.221827
-0.185964
0.173527
-0.261687
-0.307955
-0.185617
0.0461428
-0.0366162
0.185665
0.218119
0.050877
-0.0277326
0.0285581
0.183046
0.190687
-0.19189
-0.0510479
0.195383
-0.0324291
-0.26261
0.0901606
0.264093
-0.261773
0.120132
-0.218853
0.210532
-0.22406
-0.109407
-0.0863072
0.241134
-0.261538
-0.135374
-0.124324
0.271283
-0.286199
-0.165066
-0.154145
0.300707
-0.311412
-0.177526
-0.170868
0.324214
-0.331767
-0.127214
-0.156779
0.340168
-0.346635
0.000373676
-0.0682715
0.347738
-0.349643
0.137428
0.0709467
0.339803
-0.33391
0.205988
0.175642
0.313897
-0.299263
0.198757
0.201717
0.280839
-0.270332
0.159886
0.17351
0.135121
-0.301904
0.291535
-0.218177
-0.22778
-0.280876
0.271535
-0.19085
-0.205038
-0.253124
0.242811
-0.171563
-0.176453
-0.22546
0.216275
-0.118134
-0.143041
-0.209338
0.207962
-0.0240084
-0.0705656
-0.211797
0.220154
0.0771115
0.026234
-0.229894
0.240197
0.153585
0.112307
-0.248796
0.255244
0.199637
0.169334
-0.263229
0.253363
0.221885
0.201185
-0.257519
0.261103
0.193747
0.209377
0.156855
0.0346634
-0.0304494
0.169725
0.183722
0.17664
-0.211649
0.0664352
0.160808
-0.226407
-0.140598
-0.187897
0.111007
-0.116432
-0.30253
0.103155
-0.253835
-0.0528365
0.038291
-0.186289
-0.0663005
-0.177513
0.00714883
-0.0100513
0.185948
0.000700986
0.201831
0.0013887
0.00850644
0.17577
0.00385417
0.215654
0.287393
-0.286611
0.11935
0.0778153
0.299738
0.20932
-0.209052
-0.0513157
0.208185
-0.0312939
-0.201114
0.0277562
0.0108637
-0.0191431
-0.192835
0.0053946
-0.18082
0.260712
0.0542579
-0.198643
0.221974
-0.239932
-0.0914485
-0.0733855
0.258171
-0.268432
-0.125113
-0.106085
0.2882
-0.30193
-0.151336
-0.134377
0.319143
-0.336821
-0.159848
-0.153655
0.352993
-0.366272
-0.113935
-0.140608
0.37552
-0.381311
0.00616453
-0.059024
0.38159
-0.375866
0.131705
0.071226
0.36532
-0.349683
0.190351
0.165096
0.331934
-0.312451
0.179275
0.183969
0.29461
-0.277332
0.142608
0.155668
0.263932
-0.244965
0.101625
0.121721
0.232471
-0.221128
0.0550919
0.0801488
0.209468
-0.209177
-0.0194339
0.0160961
-0.348531
0.33619
-0.209487
0.352239
-0.355908
-0.112762
-0.181909
-0.323789
0.310366
-0.204754
-0.21538
-0.290733
0.27906
-0.179178
-0.185405
-0.261639
0.24646
-0.156383
-0.159032
-0.2334
0.223573
-0.108307
-0.129982
-0.218107
0.217217
-0.0231184
-0.0650992
-0.221328
0.22983
0.0686099
0.0221233
-0.239809
0.251373
0.142021
0.102328
-0.261439
0.2711
0.189976
0.159268
-0.275292
0.28717
0.210007
0.196993
-0.28554
0.287521
0.191766
0.211007
0.157765
-0.0187801
0.0154371
0.173068
0.173449
0.182026
-0.0116439
0.0111416
-0.302028
-0.35566
-0.0118925
-0.0622398
0.0659944
-0.196589
-0.216009
-0.0554077
0.0916245
-0.214877
-0.0801349
-0.174062
0.000588327
0.208297
0.0142038
0.250362
0.330321
-0.327093
0.116122
0.337854
0.0702829
0.00904144
-0.251735
0.0007176
-0.172836
-0.103848
0.104779
-0.356591
-0.100095
-0.305781
0.0706489
-0.185475
-0.103474
0.119048
-0.212163
-0.0877105
-0.231773
0.309934
0.0440622
-0.187153
0.228397
-0.234269
-0.0454433
-0.221903
0.223609
-0.00111708
-0.0248006
0.245129
-0.257703
-0.0788744
-0.0625259
0.268786
-0.282984
-0.110915
-0.0950014
0.299536
-0.317217
-0.133654
-0.117825
0.337136
-0.357853
-0.139132
-0.133736
0.377386
-0.394028
-0.0972932
-0.121074
0.405772
-0.411669
0.0120613
-0.0472798
0.411015
-0.402817
0.123507
0.0705721
0.388679
-0.369842
0.171514
0.150959
0.349587
-0.328498
0.158186
0.163714
0.30917
-0.289589
0.123027
0.136341
0.268656
-0.253624
0.086593
0.100788
0.237033
-0.22435
0.0424093
0.0635576
0.220458
-0.222692
-0.0171992
0.0122033
0.229823
-0.241274
-0.0762598
-0.0482766
-0.405015
0.399702
-0.107449
0.405823
-0.403651
0.102607
-0.0110843
-0.384538
0.367793
-0.192741
-0.166745
-0.342024
0.324895
-0.187625
-0.189611
-0.304221
0.28635
-0.161307
-0.16473
-0.269722
0.253612
-0.140274
-0.142404
-0.241295
0.232638
-0.0996498
-0.117664
-0.228728
0.22944
-0.0238307
-0.0611895
-0.233718
0.242353
0.0599752
0.0178454
-0.252673
0.265236
0.129458
0.0920078
-0.277089
0.289354
0.177711
0.147415
-0.30259
0.306722
0.205875
0.183757
-0.317412
0.324777
0.184402
0.200316
0.155448
0.196484
-0.19808
-0.354996
-0.396318
0.189151
-0.110577
0.129711
-0.250907
-0.253977
-0.0978743
0.306275
0.0275835
-0.0520544
0.0575713
0.244845
0.285809
-0.0760316
0.0675908
0.184211
0.197193
-0.0657953
0.0614253
0.177438
0.175244
-0.0550479
0.0474798
0.193516
0.188404
-0.0402155
0.0342666
0.214246
0.209096
0.0294365
0.228439
0.0050154
-0.210851
-0.00193935
-0.171405
-0.0952294
-0.256601
0.0757451
-0.177932
-0.193332
-0.310529
0.131881
-0.198308
-0.24919
0.234829
-0.381956
-0.25334
-0.350846
0.153294
-0.235745
0.126692
-0.113351
-0.267318
0.145233
-0.269448
0.235469
-0.235291
-0.00129489
0.241314
0.0235915
-0.184077
0.239231
-0.246265
-0.038409
-0.0208606
0.258143
-0.266617
-0.0704001
-0.0506481
0.282092
-0.296317
-0.0966898
-0.0795268
0.313465
-0.332059
-0.11506
-0.100677
0.353035
-0.374562
-0.117605
-0.112759
0.395248
-0.41276
-0.079781
-0.100388
0.424953
-0.430221
0.0173296
-0.0350872
0.428735
-0.420038
0.11481
0.0690859
0.404604
-0.384112
0.151021
0.135525
0.362241
-0.339705
0.135649
0.141843
0.318388
-0.29812
0.102759
0.115024
0.279479
-0.261699
0.0688125
0.0821469
0.247315
-0.236497
0.0315907
0.0491743
0.231929
-0.231887
-0.0172411
0.00763588
0.235776
-0.246966
-0.0650698
-0.0443881
0.26077
-0.277011
-0.0971104
-0.0840696
-0.440977
0.448805
0.0947793
0.42654
-0.411382
0.219671
0.174714
-0.444735
0.431401
-0.0941153
-0.00701416
-0.408031
0.386089
-0.170799
-0.143375
-0.359
0.335293
-0.163918
-0.162522
-0.315324
0.296483
-0.142466
-0.144761
-0.279563
0.263104
-0.123815
-0.125484
-0.250419
0.242105
-0.0913359
-0.104979
-0.23927
0.241409
-0.02597
-0.0583537
-0.246736
0.255765
0.0509459
0.0125186
-0.266492
0.280015
0.115934
0.0812806
-0.293495
0.308513
0.162693
0.133935
-0.322536
0.337719
0.190693
0.169734
-0.355738
0.357443
0.182697
0.182298
-0.359963
0.370042
0.106043
0.152928
-0.376805
0.387121
0.0172681
0.0635196
-0.00959981
-0.1109
0.12507
0.230675
0.0867464
0.340607
0.261656
-0.120326
0.114252
0.190284
0.201938
-0.107587
0.0965987
0.188426
0.18191
-0.0902767
0.0763369
0.207456
0.194726
-0.0701594
0.0590041
0.225402
0.215273
0.245422
-0.264376
-0.363002
-0.392502
0.226541
-0.121069
0.139216
-0.285464
-0.295034
-0.103046
-0.0547075
0.0504235
0.245598
0.232735
-0.0896037
-0.216476
0.0829654
-0.178626
-0.18552
-0.264412
0.145379
-0.19143
-0.25422
-0.309649
0.176726
-0.221741
-0.276162
-0.33906
0.17171
-0.262222
-0.234696
0.214473
-0.37228
-0.256905
-0.340793
0.156636
-0.286869
0.12829
-0.313068
-0.110255
0.15064
-0.307814
-0.374584
0.405311
0.183747
0.190319
-0.214517
-0.348082
-0.344281
0.160015
-0.113988
0.138753
-0.337834
-0.314624
0.294732
-0.0903636
-0.330698
-0.0979136
0.260627
-0.255883
0.0456789
0.0633037
-0.0791647
0.261459
0.264265
0.0596663
-0.190715
0.246701
-0.254475
0.00647851
0.0144102
0.254924
-0.263533
-0.0297999
-0.0204117
0.2705
-0.280988
-0.0599118
-0.0436808
0.294751
-0.309165
-0.0822764
-0.0657637
0.326637
-0.344452
-0.0972451
-0.0832045
0.364227
-0.384553
-0.097279
-0.0929849
0.404173
-0.421376
-0.0625781
-0.0807677
0.432675
-0.436286
0.0209403
-0.0237875
0.432569
-0.421771
0.104013
0.0653688
0.405995
-0.385812
0.130839
0.119748
0.364027
-0.341814
0.113436
0.120058
0.320599
-0.30067
0.0828301
0.0938092
0.282434
-0.265986
0.0523651
0.0639105
0.251989
-0.241621
0.0212227
0.0351766
0.235929
-0.235172
-0.0179972
0.00194392
0.24096
-0.250234
-0.0557953
-0.0386008
0.260972
-0.279392
-0.0786905
-0.0733323
-0.0877061
-0.427966
0.447409
0.200228
0.203886
-0.460684
0.46688
0.0885831
0.16144
-0.463885
0.449145
-0.0793751
-0.00401963
-0.42429
0.397368
-0.143877
-0.118521
-0.372529
0.349347
-0.140737
-0.137682
-0.330148
0.311514
-0.123832
-0.125561
-0.293921
0.276283
-0.106177
-0.107891
-0.262052
0.25227
-0.0815541
-0.0907473
-0.248863
0.251521
-0.0286285
-0.054947
-0.258219
0.26857
0.0405944
0.00582154
-0.28029
0.29462
0.101605
0.0695603
-0.309436
0.326122
0.146007
0.119118
-0.3429
0.360839
0.172754
0.152957
-0.378059
0.393012
0.167744
0.165077
-0.40747
0.410831
0.102683
0.138469
-0.413172
0.417961
0.0124788
0.0611789
-0.0340265
-0.118797
0.157603
0.301802
0.350354
-0.160081
0.157814
0.232943
0.259177
-0.153469
0.147277
0.196476
0.206282
-0.140454
0.133385
0.195496
0.188732
-0.126505
0.120195
0.213766
0.201605
-0.109978
0.0947262
0.240654
0.22549
0.248297
-0.174167
-0.227829
0.160502
-0.193749
-0.247439
-0.271194
0.197427
-0.21213
-0.280649
-0.305162
0.200013
-0.250044
-0.272723
-0.323242
0.18276
-0.288346
-0.237755
-0.317554
0.168682
-0.30491
-0.160484
0.128599
-0.312397
-0.192082
-0.316484
0.162186
-0.331248
0.117633
-0.348112
-0.100218
0.139272
-0.359473
-0.285737
0.316655
0.0976816
0.0963282
-0.134204
-0.274521
-0.258863
0.0694544
-0.0993321
0.118374
-0.367154
-0.358919
0.346485
-0.0877845
-0.376208
-0.0820426
0.0786422
-0.0969492
0.279766
0.0616961
0.281211
0.270507
-0.266852
0.042024
0.280667
0.0495063
-0.204381
0.263587
-0.264286
0.00717772
0.0111451
0.269264
-0.273507
-0.0255572
-0.0154334
0.283342
-0.292439
-0.0508144
-0.0338462
0.306783
-0.319757
-0.0693021
-0.0514202
0.335337
-0.351298
-0.0812841
-0.0676243
0.368545
-0.387288
-0.0785359
-0.0757384
0.405058
-0.421498
-0.0461374
-0.062998
0.43168
-0.434207
0.0234676
-0.0136056
0.428371
-0.415854
0.0914962
0.059532
0.399613
-0.379588
0.110814
0.103507
0.358851
-0.337222
0.091807
0.0993211
0.316809
-0.297553
0.0635743
0.073396
0.281051
-0.267617
0.0389307
0.0474088
0.258529
-0.254053
0.0167465
0.0260883
0.254963
-0.260447
-0.0125126
0.00285414
0.271092
-0.281076
-0.0458115
-0.0279562
0.297224
-0.308382
-0.0675324
-0.0571846
0.322112
-0.332163
-0.0803129
-0.0739754
-0.0835915
-0.352938
0.38039
0.156295
0.123732
-0.407261
0.428018
0.179471
0.177016
-0.453549
0.46839
0.0737419
0.135908
-0.467574
0.452157
-0.0639579
-0.00320307
-0.427952
0.400457
-0.116382
-0.0943157
-0.376593
0.354848
-0.118992
-0.113818
-0.337141
0.320727
-0.107417
-0.107854
-0.305309
0.288646
-0.0895142
-0.0924735
-0.273914
0.262723
-0.0703638
-0.0760152
-0.2579
0.25984
-0.0305679
-0.050124
-0.266659
0.278193
0.0290602
-0.000997798
-0.291349
0.307095
0.0858596
0.0564043
-0.323291
0.341187
0.128111
0.102922
-0.35988
0.379724
0.152909
0.134264
-0.399503
0.417882
0.149365
0.145298
-0.432598
0.439861
0.0954193
0.123753
-0.44711
0.441769
0.0178201
0.0539299
-0.0325038
-0.0900388
0.129546
0.363039
0.399777
-0.160128
0.17361
0.288319
0.319773
-0.176884
0.175945
0.233882
0.255904
-0.172339
0.16737
0.201446
0.209888
-0.161783
0.155747
0.201532
0.194318
-0.149592
0.139956
0.223402
0.20776
-0.126723
0.112797
0.254579
0.238724
0.264145
-0.234416
-0.240851
0.217259
-0.213581
-0.277229
-0.274614
0.225449
-0.237566
-0.280597
-0.297288
0.207494
-0.274777
-0.256201
-0.304797
0.189703
-0.309368
-0.215517
-0.29412
0.18238
-0.325104
-0.167569
-0.283119
0.167807
-0.359783
-0.0645608
0.0481997
-0.242502
-0.0990312
-0.240051
0.145415
-0.386514
0.0941523
-0.0781591
-0.392201
0.118124
-0.391126
0.104291
0.238072
-0.221538
0.277427
-0.272684
0.0372811
-0.258059
0.154275
0.208075
0.0688745
0.278857
-0.273074
0.00139453
0.0173182
0.281172
-0.284559
-0.0221699
-0.00733571
0.293289
-0.302577
-0.0415268
-0.0251161
0.313235
-0.324847
-0.0576904
-0.0407617
0.336907
-0.352091
-0.0661001
-0.0555638
0.367211
-0.384348
-0.0613985
-0.0606189
0.399246
-0.412226
-0.0331574
-0.0481007
0.419414
-0.42013
0.0241836
-0.00641709
0.414298
-0.402393
0.0795907
0.0537
0.387009
-0.36772
0.0915247
0.0881226
0.348188
-0.327353
0.0709715
0.0797895
0.309289
-0.292574
0.046859
0.0553323
0.280684
-0.271807
0.0300539
0.0355183
0.267225
-0.26467
0.0141917
0.0215066
0.264644
-0.266018
-0.0111379
0.00282781
0.269097
-0.27376
-0.0411492
-0.0248774
0.281329
-0.289507
-0.0593536
-0.0496155
0.297867
-0.311666
-0.0665136
-0.0656164
0.32669
-0.346958
-0.0675166
-0.0685674
0.361748
-0.375709
-0.0641977
-0.0672527
-0.27594
0.297171
0.0764513
0.261803
-0.260734
0.0471312
0.0553169
-0.318267
0.350098
0.124463
0.102636
-0.38144
0.412534
0.148376
0.145675
-0.440968
0.459734
0.0549759
0.107475
-0.460509
0.445243
-0.0486911
-0.00397872
-0.422265
0.396236
-0.0903529
-0.0713384
-0.373893
0.35335
-0.0984486
-0.0914749
-0.336531
0.321703
-0.0925893
-0.0910356
-0.309405
0.296522
-0.0766313
-0.080176
-0.283706
0.272302
-0.0589599
-0.0631987
-0.265963
0.266118
-0.0307225
-0.0437849
-0.272056
0.283515
0.0176018
-0.00693655
-0.297547
0.314391
0.0690156
0.0423723
-0.331992
0.35123
0.108873
0.0853214
-0.371098
0.391945
0.132062
0.114396
-0.412465
0.431825
0.130005
0.124779
-0.449082
0.455875
0.0886265
0.106496
-0.459167
0.460531
0.0164566
0.0506377
-0.4492
0.444889
-0.0394504
-0.021173
-0.0420133
-0.11358
0.147239
0.32938
0.0803278
0.386476
0.366525
-0.166095
0.174053
0.280361
0.300917
-0.17999
0.182738
0.231133
0.249967
-0.182554
0.180511
0.203489
0.210072
-0.177273
0.173119
0.205686
0.197556
-0.168124
0.159001
0.232524
0.212756
-0.149496
0.135673
0.268402
0.248229
-0.110164
0.085453
0.304477
0.289654
-0.0287143
0.421061
0.33795
0.0309261
-0.0340433
-0.239385
-0.258446
0.0286377
-0.0646239
0.083373
-0.41095
-0.389237
-0.0510958
-0.265808
-0.252272
0.247761
-0.235894
-0.448301
-0.0324496
-0.281035
-0.274176
0.233001
-0.263074
0.388222
-0.283462
0.103314
0.100793
-0.0678839
0.388152
0.0962811
0.392734
-0.266661
-0.286827
0.210896
-0.29597
-0.237087
-0.283226
0.201486
-0.328474
-0.192678
-0.269011
0.196834
-0.35413
-0.134565
-0.247585
0.174441
-0.388809
-0.0556341
-0.21846
0.146772
-0.415161
-0.0127457
0.0119165
-0.257617
-0.00775262
-0.244378
0.112614
-0.420368
-0.0540137
0.0687518
-0.425688
-0.0400507
-0.4032
-0.239584
0.289628
-0.285811
0.0334639
0.0750413
0.284498
-0.285913
0.00280997
0.0160047
0.289565
-0.294877
-0.0168584
-0.00368383
0.300659
-0.308646
-0.0335401
-0.0193337
0.314508
-0.325047
-0.0471516
-0.0348989
0.334854
-0.348737
-0.0522176
-0.0457567
0.362119
-0.376888
-0.0466296
-0.0472365
0.389597
-0.39962
-0.0231346
-0.0353918
0.403875
-0.401563
0.0218706
-0.0021614
0.393367
-0.380336
0.066559
0.045505
0.365906
-0.349408
0.0750266
0.0736933
0.333837
-0.318027
0.0551617
0.0642178
0.305663
-0.295099
0.0362951
0.0429688
0.288581
-0.283636
0.0251087
0.0290002
0.280735
-0.278103
0.01156
0.0186054
0.276547
-0.276372
-0.0113132
0.0012718
0.278929
-0.285166
-0.0349128
-0.0223198
0.293532
-0.302785
-0.0501002
-0.0412492
0.316197
-0.324176
-0.0585346
-0.0522047
0.334304
-0.342362
-0.0594582
-0.0584399
0.352895
-0.367668
-0.0494247
-0.0567192
0.37667
-0.384508
-0.0322127
-0.0420946
-0.269749
0.277922
0.0389588
0.26802
-0.267719
0.011616
0.0269081
-0.281577
0.291453
0.0665744
0.0516619
-0.313443
0.333861
0.104045
0.0806468
-0.365307
0.401397
0.112286
0.114228
-0.430998
0.447421
0.0385527
0.0778743
-0.446166
0.431951
-0.0344758
-0.00272389
-0.412574
0.390294
-0.0680727
-0.0519619
-0.369873
0.350176
-0.078752
-0.0710541
-0.333463
0.318537
-0.0776638
-0.0743219
-0.307435
0.298024
-0.0672209
-0.0690733
-0.289347
0.280169
-0.0497825
-0.0545211
-0.273566
0.271302
-0.0284587
-0.0371813
-0.275357
0.285119
0.00783891
-0.0109913
-0.298987
0.316008
0.0519952
0.0285042
-0.334316
0.354168
0.0890199
0.0670136
-0.374372
0.395289
0.111146
0.0941916
-0.415599
0.435086
0.110518
0.104469
-0.45211
0.460653
0.0800838
0.0894714
-0.463765
0.457212
0.023009
0.0475259
-0.447182
0.443949
-0.0362178
-0.0111427
-0.0463651
-0.0678512
0.0967209
0.357606
0.378354
-0.13149
0.145907
0.314963
0.331756
-0.158881
0.169149
0.270092
0.287943
-0.176234
0.180528
0.226839
0.242882
-0.182353
0.182554
0.203288
0.208247
-0.181637
0.179621
0.207702
0.198473
-0.176289
0.171105
0.237708
0.216088
-0.163551
0.151698
0.280256
0.255783
-0.134988
0.110377
0.329088
0.306363
0.380443
-0.00593793
0.00767739
-0.259356
-0.268707
-0.00495022
-0.0254449
0.0347275
-0.412483
-0.390077
-0.0198754
-0.272165
-0.261142
0.255515
-0.258407
0.363942
-0.324491
0.0638634
0.381616
0.078607
-0.270324
-0.270514
0.232533
-0.284711
-0.249898
-0.274017
0.219349
-0.313832
-0.216819
-0.259084
0.218459
-0.350099
-0.162589
-0.240987
0.205341
-0.385031
-0.0870905
-0.216128
0.179995
-0.422032
-0.0102071
-0.216005
0.143352
-0.445899
0.0135201
-0.250221
0.0955699
-0.447186
0.0238309
-0.0204213
-0.272116
0.0301731
-0.265698
0.0448551
-0.435816
-0.27916
0.273561
-0.0148217
0.0279746
-0.281376
-0.0257589
0.0379896
-0.282131
0.0392692
0.356368
-0.00732061
0.0117611
-0.416923
-0.00932459
-0.388073
-0.256234
0.303833
-0.296555
0.0261852
0.0543833
0.295982
-0.2955
0.0023281
0.0154319
0.296325
-0.300579
-0.0126039
-0.00285892
0.302607
-0.308721
-0.0274256
-0.017306
0.313553
-0.323208
-0.0374958
-0.0300676
0.33273
-0.345435
-0.0395133
-0.0362349
0.357703
-0.370645
-0.0336875
-0.034968
0.38131
-0.388768
-0.0156761
-0.0247274
0.39084
-0.38668
0.0177108
-8.92677e-05
0.377107
-0.36322
0.0526715
0.0359316
0.348617
-0.334545
0.0609547
0.0590906
0.323201
-0.31361
0.0455713
0.0528737
0.306675
-0.300962
0.0305817
0.0360339
0.296706
-0.292419
0.0208216
0.0247436
0.288509
-0.28495
0.00800018
0.0146963
0.282832
-0.283266
-0.0108791
-0.000846036
0.285933
-0.291332
-0.0295141
-0.0196525
0.297459
-0.30463
-0.0429294
-0.0351221
0.311451
-0.319412
-0.050574
-0.0453834
0.328416
-0.336854
-0.0510201
-0.0494358
0.346396
-0.351944
-0.0438765
-0.0471776
0.357303
-0.364775
-0.0247411
-0.0367354
0.370086
-0.370734
-0.00867715
-0.0145636
-0.272515
0.274671
0.0094604
-0.00390472
-0.280625
0.286873
0.0327103
0.0209541
-0.294957
0.30469
0.0568416
0.0435782
-0.317187
0.336676
0.0845554
0.0681498
-0.36543
0.396009
0.0817071
0.0854746
-0.417959
0.427381
0.0291308
0.0559246
-0.424201
0.413005
-0.0232796
0.000455512
-0.399407
0.383752
-0.0524182
-0.0383635
-0.368379
0.352263
-0.0626359
-0.0556805
-0.337525
0.322974
-0.0631127
-0.0595841
-0.311046
0.301119
-0.0572942
-0.0571456
-0.29378
0.286744
-0.0427465
-0.0471815
-0.280976
0.277098
-0.0245809
-0.0314134
-0.278082
0.28459
0.00133051
-0.0119748
-0.296151
0.311927
0.0362188
0.0169431
-0.329787
0.349639
0.0691681
0.0491539
-0.369581
0.390343
0.0903839
0.0742498
-0.409919
0.428133
0.0923043
0.0848925
-0.44207
0.452208
0.0699453
0.0755342
-0.456575
0.455303
0.0242806
0.0431598
-0.447134
0.434104
-0.0231877
-0.00297329
-0.418565
0.419888
-0.0337721
-0.0308271
-0.024013
-0.0687867
0.0942186
0.332174
0.348837
-0.113996
0.129636
0.299322
0.311979
-0.143568
0.155653
0.258006
0.274012
-0.16486
0.171428
0.220271
0.233676
-0.175616
0.178013
0.200891
0.20406
-0.178958
0.178759
0.2079
0.197528
-0.176741
0.17232
0.242129
0.218106
-0.165183
0.150966
0.294472
0.26292
-0.141523
0.120745
0.349866
0.315805
-0.131165
0.112208
0.407109
0.370023
-0.0759087
-0.00548768
0.463013
0.429034
-0.265005
-0.266461
0.251871
-0.277746
-0.00168711
-0.00218762
-0.366859
-0.00675195
-0.383008
0.377842
-0.396583
0.0132538
-0.0388396
0.234566
0.267286
0.337392
0.00161003
-0.351562
0.34837
-0.00548452
-0.347151
-0.00659892
-0.256478
-0.263934
0.23565
-0.301012
-0.233926
-0.25691
0.235787
-0.33116
-0.189626
-0.232046
0.23064
-0.375397
-0.117554
-0.210524
0.210128
-0.415164
-0.0257255
-0.20061
0.175721
-0.454401
0.0246207
-0.227106
0.123722
-0.474051
0.0360145
-0.256062
0.0659914
-0.468322
-0.0346488
-0.289286
0.0425587
-0.294523
0.287243
-0.0273695
0.0400377
-0.301797
-0.0327632
-0.299744
0.0504956
0.0473829
-0.275092
0.0155555
-0.439611
-0.291313
0.0517403
0.0941326
-0.197961
0.338394
-0.395258
-0.0179114
-0.000912961
0.362332
-0.269367
0.353352
-0.332194
0.042705
0.035376
0.314779
-0.306337
0.0177432
0.0369684
0.303072
-0.30446
0.00371618
0.0121666
0.304346
-0.308297
-0.00865306
-0.00297262
0.310643
-0.31728
-0.0207891
-0.0149597
0.322955
-0.331688
-0.0287629
-0.0243919
0.339113
-0.347687
-0.0309393
-0.0288105
0.355379
-0.363421
-0.0256459
-0.0272751
0.370567
-0.37597
-0.0102731
-0.0175812
0.378089
-0.375111
0.014733
0.00202904
0.367386
-0.355067
0.0403521
0.0282072
0.342002
-0.329597
0.048549
0.0460258
0.320276
-0.313362
0.0386573
0.043553
0.308517
-0.304501
0.0265663
0.0311886
0.300636
-0.296723
0.016909
0.0208782
0.292911
-0.290023
0.00511169
0.0108847
0.288238
-0.288798
-0.0103198
-0.00263059
0.290891
-0.295152
-0.0252523
-0.0175596
0.300176
-0.306815
-0.0362904
-0.0300984
0.313789
-0.321569
-0.0427936
-0.0384098
0.32871
-0.335587
-0.0441432
-0.0422946
0.34211
-0.34669
-0.0392958
-0.0406554
0.350031
-0.349748
-0.025024
-0.0333945
-0.0159423
-0.283628
0.281245
-0.012438
-0.0221438
-0.281771
0.284231
0.00700064
-0.0044311
-0.288221
0.294129
0.0268026
0.0169639
-0.299526
0.309807
0.0465604
0.0381811
-0.322875
0.341818
0.0656122
0.0550822
-0.363599
0.385595
0.0597106
0.0636937
-0.40008
0.405849
0.0233621
0.0414398
-0.403482
0.394641
-0.0144386
0.00282235
-0.383423
0.37083
-0.0398253
-0.0271452
-0.359759
0.349254
-0.0521306
-0.0446098
-0.340215
0.330524
-0.0534225
-0.0505451
-0.321133
0.311404
-0.0475653
-0.0477544
-0.303579
0.296598
-0.0357649
-0.0393565
-0.291125
0.286472
-0.0199281
-0.0259404
-0.284718
0.287069
-0.00102
-0.010221
-0.294065
0.306091
0.0241928
0.0099465
-0.321186
0.339466
0.0508881
0.0340593
-0.35827
0.378229
0.0704241
0.0554462
-0.396443
0.41348
0.0752669
0.066679
-0.42677
0.43686
0.0598555
0.0622446
-0.441588
0.439725
0.0261437
0.0384312
-0.430922
0.414322
-0.00658713
0.00582955
-0.401458
0.394861
-0.0271755
-0.0179633
-0.0244097
-0.022125
0.0435377
0.334955
0.347426
-0.0677431
0.0878045
0.312113
0.324631
-0.104002
0.118916
0.284408
0.295781
-0.131281
0.141651
0.247636
0.261646
-0.149452
0.155225
0.214498
0.225875
-0.15941
0.162718
0.197582
0.199874
-0.165235
0.166758
0.206377
0.19501
-0.166542
0.163814
0.244857
0.218322
-0.158435
0.149774
0.303134
0.268299
-0.138044
0.126917
0.360993
0.327536
-0.119558
0.126799
0.399867
0.377383
0.357872
-0.0157351
-0.40794
0.32721
0.00926935
0.00902171
-0.0148615
-0.361019
-0.349536
0.0114067
-0.25651
-0.266428
0.24889
-0.290986
-0.244659
-0.253201
0.247466
-0.312692
-0.212956
-0.23358
0.249284
-0.349804
-0.0216154
-0.376254
-0.146511
-0.203089
0.232764
-0.398033
-0.0515319
-0.184717
0.202511
-0.441954
0.0346325
-0.210622
0.150844
-0.481523
-0.036373
-0.310285
0.0448609
-0.30966
0.30161
-0.0283238
0.0382319
-0.317554
-0.0303377
-0.319247
0.047194
0.0460737
-0.237165
0.0873826
-0.495442
-0.31146
0.0565768
0.0613126
-0.269992
0.0272023
-0.479969
-0.30205
0.0612331
0.0615973
-0.284949
-0.0148398
-0.440506
-0.0256169
-0.00690971
0.359736
0.246489
-0.397765
0.201215
0.0176577
-0.00384467
0.309119
0.0174482
-0.0253288
-0.353139
-0.348668
0.0165801
-0.0513405
0.315487
-0.276987
0.350715
-0.362174
0.0247128
-0.337302
0.00212096
0.34445
0.0150238
0.346329
-0.329844
0.0262193
0.0195309
0.317185
-0.312902
0.0134601
0.0243099
0.308377
-0.308414
0.00375347
0.00764118
0.308652
-0.310564
-0.00674086
-0.00273439
0.312874
-0.317236
-0.0164271
-0.01265
0.321747
-0.327876
-0.0226331
-0.0198813
0.33379
-0.340799
-0.0239301
-0.0228974
0.347537
-0.354616
-0.0185674
-0.0205366
0.36067
-0.365198
-0.00574569
-0.0115266
0.366833
-0.364809
0.0127087
0.0036642
0.35894
-0.349576
0.0309879
0.0223382
0.339096
-0.328744
0.0381964
0.0355465
0.320454
-0.314189
0.0323918
0.0352634
0.309491
-0.30569
0.0227653
0.0264911
0.302088
-0.298813
0.0136337
0.017276
0.295792
-0.293788
0.00310687
0.00786463
0.292889
-0.293687
-0.00952192
-0.00352913
0.295572
-0.299052
-0.0217725
-0.0156741
0.303089
-0.308188
-0.0311918
-0.0260612
0.313499
-0.31958
-0.0367134
-0.0330983
0.325769
-0.332229
-0.037683
-0.0361049
0.33804
-0.343183
-0.0341532
-0.0348447
0.346983
-0.34808
-0.023927
-0.0295938
0.346641
-0.341698
-0.0104277
-0.0173816
0.342389
-0.33905
0.008067
-0.00590747
0.00920583
-0.334082
-0.0237921
0.330594
-0.331023
0.00963474
0.00812464
-0.297004
0.293681
-0.0240457
-0.0281572
-0.290887
0.289345
-0.0108957
-0.0193504
-0.288794
0.289524
0.00627103
-0.00388045
-0.293127
0.29779
0.022139
0.0133612
-0.304496
0.313637
0.0374201
0.031475
-0.324923
0.34029
0.0502447
0.0437958
-0.356309
0.37154
0.0444792
0.0476754
-0.3815
0.386141
0.0187208
0.0314804
-0.385471
0.380862
-0.00982932
0.00349235
-0.373675
0.36397
-0.0301203
-0.0199582
-0.353885
0.342875
-0.0411203
-0.0345256
-0.33329
0.323992
-0.0441247
-0.0409596
-0.31648
0.309205
-0.0402902
-0.040243
-0.303656
0.298784
-0.0308932
-0.0338071
-0.295413
0.292642
-0.0171579
-0.0225689
-0.291141
0.291687
-0.00156638
-0.00871913
-0.295095
0.302897
0.0163908
0.00653842
-0.313384
0.328288
0.0359843
0.0235719
-0.343627
0.361631
0.0524197
0.0401076
-0.377336
0.393441
0.0591626
0.0509739
-0.40527
0.414666
0.0504592
0.0504151
-0.417739
0.415363
0.0285201
0.0353583
-0.408202
0.397388
0.00422745
0.0129901
-0.387719
0.374427
-0.0138835
-0.00829401
-0.370904
0.373331
-0.0203386
-0.0208873
-0.0232771
-0.0318739
0.051454
0.315375
0.311708
-0.0643925
0.0764327
0.300073
0.311693
-0.0875068
0.0985592
0.273356
0.284707
-0.108749
0.11775
0.238635
0.251457
-0.124899
0.13064
0.208757