/*--------------------------------*- C++ -*----------------------------------*\
  =========                 |
  \\      /  F ield         | OpenFOAM: The Open Source CFD Toolbox
   \\    /   O peration     | Website:  https://openfoam.org
    \\  /    A nd           | Version:  10
     \\/     M anipulation  |
\*---------------------------------------------------------------------------*/
FoamFile
{
    format      ascii;
    class       volVectorField;
    location    "7.5";
    object      U;
}
// * * * * * * * * * * * * * * * * * * * * * * * * * * * * * * * * * * * * * //

dimensions      [0 1 -1 0 0 0 0];

internalField   nonuniform List<vector> 
6397
(
(4.2956 -0.902021 1.76542e-19)
(4.1664 -0.694584 -8.30885e-19)
(5.67495 0.882792 0)
(5.47517 1.27308 4.23894e-20)
(4.84959 1.72808 -4.21501e-20)
(5.12335 1.4665 -1.14954e-19)
(3.30922 -2.59244 -5.76903e-19)
(1.6139 -3.76616 1.52926e-18)
(0.886994 -3.45589 6.54862e-19)
(0.55272 -3.36017 -1.90314e-19)
(2.1652 2.66849 1.21782e-18)
(3.42925 3.2269 -9.98834e-20)
(3.70395 0.111643 -2.60956e-20)
(3.67999 0.102329 -1.01938e-20)
(2.56116 0.115162 1.82337e-20)
(1.12394 0.169939 -2.88579e-18)
(2.36031 -1.42603 -1.15921e-18)
(-0.147532 -1.20544 1.32538e-18)
(1.06618 -0.32463 8.34972e-19)
(2.15758 -0.806534 -2.59767e-18)
(1.59363 -0.402002 -1.3473e-18)
(-1.76792 -1.06566 -2.22081e-18)
(-2.18111 0.0165045 1.4214e-19)
(1.76889 -0.957588 -2.04565e-18)
(4.04088 0.145053 0)
(4.30568 0.0872372 -1.92496e-21)
(4.41413 0.142465 -2.57027e-21)
(2.61815 -1.98527 2.0084e-19)
(2.7585 -2.30548 -5.77866e-20)
(2.57684 -1.62981 1.47125e-19)
(2.70072 -2.10482 -2.1751e-19)
(5.14958 1.35117 3.83011e-20)
(5.38171 1.20848 -3.83275e-20)
(5.18374 1.48533 2.02792e-19)
(4.72632 0.750291 4.07031e-20)
(4.89891 0.771728 0)
(4.94276 1.0426 -1.64702e-20)
(5.19839 1.00881 -1.68917e-20)
(4.51875 0.406334 8.75794e-20)
(4.46613 0.354898 -4.69685e-20)
(4.53295 0.570083 0)
(4.70365 0.516459 0)
(2.46857 -1.06168 -1.01246e-19)
(4.18066 1.09389 -2.41245e-19)
(4.3824 0.47935 2.81619e-19)
(5.32426 1.01454 -4.06516e-19)
(4.63597 1.60106 -2.10013e-19)
(4.80842 1.09178 6.63275e-19)
(4.25999 0.142819 9.11532e-20)
(4.3235 0.112133 -1.40244e-20)
(4.3178 0.0522988 1.59081e-19)
(4.36119 0.0177886 -5.90364e-20)
(4.31147 0.0531864 -4.31859e-19)
(4.20868 0.880884 -1.22054e-19)
(3.67663 0.484367 7.88747e-20)
(4.03824 0.0480549 6.64982e-20)
(4.05467 0.0633982 6.39897e-20)
(4.47677 0.0597335 -8.45733e-20)
(3.08415 -2.28912 -9.98895e-20)
(3.14694 -2.51653 9.94238e-20)
(2.99886 -1.8513 1.355e-19)
(2.9228 -1.20156 -1.33639e-19)
(2.88532 -0.371665 -1.61344e-19)
(2.89224 0.529355 1.58592e-19)
(2.96996 1.37823 0)
(3.07696 2.06767 1.22271e-19)
(3.21808 2.54268 -1.2749e-19)
(3.33685 2.7903 0)
(3.2754 -2.57195 -8.80628e-20)
(3.16416 -2.62993 4.64917e-22)
(3.26253 -2.63446 8.42893e-20)
(3.24792 -2.35338 0)
(3.1945 -1.89117 0)
(3.15568 -1.19172 0)
(3.14512 -0.29718 -8.61024e-22)
(3.17486 0.667326 8.87183e-23)
(3.24446 1.56458 0)
(3.33317 2.27803 -2.05965e-23)
(3.44031 2.73761 0)
(3.5211 2.94146 0)
(3.19284 -2.5983 -6.39197e-20)
(3.11763 -2.64558 4.63396e-21)
(3.44816 2.8481 0)
(3.56734 2.93482 0)
(3.08463 -2.53393 5.55568e-21)
(3.02964 -2.60235 0)
(3.50508 2.80688 0)
(3.55425 2.828 0)
(2.9371 -2.38821 1.11447e-19)
(2.89332 -2.49559 -2.14322e-20)
(3.49056 2.76371 0)
(3.47952 2.69193 0)
(2.79805 -2.18075 -9.28744e-20)
(2.64435 -1.8374 -4.39598e-20)
(3.37739 2.74664 0)
(3.32105 2.57929 9.2051e-21)
(3.04622 -2.24094 0)
(2.7513 -1.67713 5.78829e-20)
(2.89538 -2.01323 3.70436e-21)
(3.3384 -2.53427 -6.36348e-20)
(3.20458 -2.41804 0)
(3.48415 -2.55188 -5.77545e-20)
(3.43526 -2.5982 6.32265e-20)
(3.51219 -1.84778 9.86114e-20)
(3.5053 -2.33315 4.285e-20)
(3.53503 -0.166913 8.62444e-22)
(3.51707 -1.10197 -1.04677e-19)
(3.62647 1.72735 1.36277e-20)
(3.56995 0.82454 -1.24989e-19)
(3.70179 2.81798 -7.11619e-20)
(3.65413 2.40883 1.64482e-19)
(3.67819 2.92021 0)
(3.6941 2.97321 0)
(3.49869 2.55584 0)
(3.60687 2.75536 0)
(3.30922 2.39405 -1.52134e-20)
(3.52404 2.73467 -8.42472e-20)
(3.49374 2.83891 -6.6511e-20)
(3.55879 2.76569 8.30554e-20)
(3.26206 2.61643 7.64799e-20)
(3.42335 2.71245 -7.47671e-20)
(2.93306 1.86702 9.1045e-22)
(3.10103 2.34388 3.10032e-21)
(2.75922 0.375428 0)
(2.81874 1.17521 0)
(2.8172 -1.19152 9.3437e-20)
(2.76012 -0.450197 1.09142e-20)
(3.01805 -2.19354 1.32962e-20)
(2.90541 -1.77895 -9.32451e-20)
(3.14413 -2.60108 3.59383e-20)
(3.09958 -2.45283 -4.67121e-21)
(3.07798 -2.67994 -8.72238e-20)
(3.13143 -2.66258 -3.26674e-20)
(2.83488 -2.42133 0)
(2.97183 -2.58349 9.43432e-20)
(2.56029 -1.41272 -7.5446e-20)
(2.48625 -1.53509 5.72678e-21)
(2.67006 -1.28349 6.82329e-21)
(3.06552 2.22174 -2.81825e-20)
(3.09107 2.46619 6.69256e-21)
(3.68694 2.89422 -8.62953e-22)
(3.37431 2.85101 6.66924e-20)
(3.65503 2.95866 0)
(2.78617 1.94916 1.77946e-20)
(3.09439 1.93565 -1.66129e-20)
(2.82013 1.64816 1.65171e-20)
(2.87985 -1.66084 9.51281e-20)
(2.88009 -1.51794 -1.52798e-20)
(2.78675 -1.14459 -6.5396e-21)
(2.78049 -1.05975 9.94532e-20)
(3.1952 2.69215 3.32812e-21)
(3.17468 -2.07161 0)
(3.03869 -1.8321 1.65802e-21)
(3.50196 -2.3862 4.67481e-22)
(3.35917 -2.24585 0)
(3.7356 -2.48028 -8.69416e-21)
(3.64874 -2.49479 2.37412e-20)
(3.90972 -1.77489 0)
(3.84116 -2.26716 1.09433e-20)
(4.03521 -0.0977041 0)
(3.99829 -1.03295 6.89164e-21)
(4.10081 1.76753 0)
(4.09206 0.87865 1.49759e-20)
(4.04391 2.81783 -1.09234e-21)
(4.08076 2.43196 8.56263e-21)
(3.86904 2.83567 2.53253e-21)
(3.9447 2.93543 -5.77753e-21)
(3.56651 2.38457 -1.02006e-22)
(3.72485 2.6212 -6.85516e-22)
(3.33337 2.16477 5.90105e-21)
(3.57534 2.64023 9.4677e-22)
(3.67111 2.75642 1.3711e-21)
(3.23909 2.4174 -6.5541e-23)
(3.42541 2.55869 0)
(2.88158 1.68099 0)
(3.06492 2.13752 -6.87367e-22)
(2.7002 0.33381 0)
(2.76422 1.06949 0)
(2.78589 -1.0908 -4.11009e-23)
(2.72433 -0.409204 -1.1074e-20)
(3.01609 -2.06727 -7.68245e-21)
(2.9066 -1.6457 0)
(3.19294 -2.55623 -2.84708e-20)
(3.12985 -2.35597 0)
(3.20532 -2.71176 2.54201e-21)
(3.22501 -2.67295 2.85462e-20)
(3.06128 -2.50398 1.5051e-22)
(3.15577 -2.68342 1.27261e-20)
(2.9539 -2.1459 -8.05492e-20)
(2.40367 -0.928549 1.49687e-20)
(2.3657 -1.00307 0)
(2.65242 -0.712527 -2.10372e-21)
(2.51174 -0.812495 -5.03532e-21)
(3.59332 2.80213 0)
(3.20642 2.66956 0)
(2.82172 2.22623 -1.68105e-20)
(3.16136 1.68986 -1.08481e-21)
(2.932 1.42015 0)
(2.59697 1.22759 -4.05845e-21)
(2.5321 1.49672 3.43179e-22)
(4.02323 2.81499 0)
(3.50502 2.3143 0)
(4.06157 2.34878 -1.71208e-19)
(2.41925 -0.40537 7.517e-20)
(2.73943 -0.354517 0)
(2.59576 -0.228602 4.88646e-21)
(2.8133 -0.647683 1.40746e-22)
(2.7485 -0.187719 -5.68247e-20)
(3.29013 -1.06001 0)
(3.37636 -1.70567 -9.97778e-20)
(2.95924 2.48507 0)
(3.00583 -1.38145 -2.6121e-21)
(2.9243 -1.04033 0)
(3.32259 -1.87564 -7.27667e-23)
(3.17702 -1.66009 4.24633e-21)
(3.68407 -2.2423 -1.94029e-21)
(3.5301 -2.0809 0)
(4.03201 -2.36402 6.92427e-23)
(3.88416 -2.3653 -3.57593e-21)
(4.34013 -1.69483 -1.52313e-22)
(4.22338 -2.16789 -8.3766e-21)
(4.54392 -0.0250001 2.88197e-20)
(4.49069 -0.951309 0)
(4.58928 1.79175 0)
(4.62607 0.93914 -2.93733e-20)
(4.40961 2.73198 -3.91821e-21)
(4.54451 2.40362 2.71542e-21)
(4.0588 2.67015 0)
(4.24429 2.80042 -3.38882e-22)
(3.62041 2.17619 -3.77954e-22)
(3.83328 2.43525 1.17639e-21)
(3.37782 1.93271 2.47056e-22)
(3.86704 2.83335 -1.0242e-20)
(3.9569 2.93388 7.02478e-23)
(3.62654 2.49765 -3.54128e-21)
(3.76539 2.65565 1.50518e-20)
(3.25842 2.2378 5.59329e-22)
(3.45571 2.38827 -4.50538e-21)
(2.91691 1.53971 0)
(3.08177 1.97536 4.7376e-21)
(2.73803 0.314194 0)
(2.79845 0.978531 0)
(2.84139 -0.994852 4.92118e-23)
(2.76316 -0.359199 0)
(3.09913 -1.96292 0)
(2.97171 -1.53051 0)
(3.3319 -2.52169 0)
(3.23017 -2.28114 0)
(3.43536 -2.77018 2.50657e-20)
(3.39223 -2.67416 0)
(3.42442 -2.57319 -1.49123e-22)
(3.39772 -2.74781 -2.56359e-20)
(3.35682 -2.2377 1.18002e-19)
(2.34951 -0.335486 2.18682e-20)
(2.30952 -0.366591 -7.03898e-20)
(2.45339 -0.280571 1.80939e-20)
(2.72947 1.04287 -1.77006e-22)
(3.03685 2.16272 0)
(2.56759 1.75012 2.07513e-20)
(4.07337 1.43866 1.84652e-19)
(3.41828 1.41103 0)
(2.41423 0.647029 4.68374e-21)
(2.33883 0.834443 2.2242e-20)
(2.62417 0.250647 6.77573e-21)
(2.81095 0.248502 6.37968e-21)
(2.37684 0.278681 6.46009e-20)
(2.64841 0.346407 1.07212e-19)
(3.94094 -1.69739 1.093e-19)
(3.89399 -1.027 0)
(2.99571 -0.582986 -7.63182e-21)
(2.92377 -0.160352 -3.01744e-20)
(2.56085 0.514391 1.77513e-22)
(2.48874 -0.142028 -1.45546e-21)
(2.3375 -0.0955716 -2.16218e-20)
(3.25062 -0.337917 -1.26119e-20)
(2.73622 1.99178 0)
(3.17894 -1.22912 -6.22531e-21)
(3.04503 -0.930689 2.62195e-20)
(3.48898 -1.68457 3.99235e-21)
(3.30886 -1.491 -9.79638e-21)
(3.8815 -2.02683 0)
(3.68203 -1.87303 0)
(4.32502 -2.1469 -2.3832e-23)
(4.10018 -2.15026 -2.65564e-27)
(4.76773 -1.52106 1.50949e-22)
(4.57787 -1.95995 0)
(5.03561 0.0550541 0)
(4.95512 -0.820091 -9.56955e-27)
(5.02217 1.73997 0)
(5.10047 0.954225 0)
(4.71912 2.56419 0)
(4.93083 2.28974 0)
(4.23807 2.44155 0)
(4.50367 2.58702 0)
(3.76709 1.95567 0)
(3.99481 2.20616 0)
(3.33677 1.46921 1.45018e-21)
(3.54199 1.70925 0)
(2.89008 0.818702 0)
(3.10933 1.18755 7.53821e-22)
(2.65324 -0.256542 0)
(2.73038 0.315817 5.30718e-21)
(4.49534 2.7835 -3.00577e-20)
(4.7653 1.47412 -6.01922e-20)
(4.64674 2.37348 3.01833e-20)
(4.13355 2.71614 3.25973e-21)
(4.32139 2.84478 -7.02224e-23)
(3.75768 2.35262 -1.31954e-21)
(3.95171 2.52966 -4.61646e-21)
(3.34877 2.05228 -2.07607e-23)
(3.56307 2.21048 0)
(3.00525 1.41211 0)
(3.16205 1.80311 0)
(2.85493 0.289695 0)
(2.90991 0.893359 0)
(2.96575 -0.917556 -2.57838e-23)
(2.88654 -0.325815 0)
(3.23929 -1.85493 0)
(3.09712 -1.42772 0)
(3.52449 -2.44552 0)
(3.3795 -2.18688 0)
(3.72856 -2.7488 7.56168e-21)
(3.60909 -2.63435 -7.86804e-21)
(3.85832 -2.59431 2.40487e-20)
(3.7426 -2.7579 -1.73889e-21)
(3.84779 -2.23643 -1.4793e-19)
(2.32133 0.270803 -2.10109e-20)
(2.27985 0.278669 -6.85132e-20)
(2.44941 0.259709 0)
(4.07632 0.124146 0)
(4.84224 0.119762 5.44745e-20)
(2.50081 -0.835778 -1.86901e-21)
(2.70719 -0.833492 0)
(2.89887 1.28577 0)
(2.36626 1.00543 0)
(3.00818 0.235868 0)
(3.09699 0.384132 -2.94053e-19)
(4.52588 -1.63558 8.99095e-20)
(4.53073 -0.955452 0)
(3.37112 0.140693 1.17803e-20)
(2.25065 -0.0108135 -2.67896e-20)
(4.83445 -1.38147 3.58468e-20)
(4.09133 -1.33947 -1.299e-20)
(2.36236 -0.911502 2.32614e-20)
(2.67343 -1.44558 -1.63799e-21)
(2.8936 -1.30829 0)
(3.86802 -0.296087 3.0571e-19)
(2.5508 1.16997 0)
(3.18649 -0.51518 3.00531e-20)
(3.20153 0.209015 2.91468e-20)
(3.09843 -0.130163 7.90205e-20)
(3.34253 -1.10288 1.07296e-20)
(3.18072 -0.816458 -2.8819e-20)
(3.66195 -1.5096 0)
(3.44287 -1.31799 -6.72487e-21)
(4.07603 -1.82398 -1.39161e-27)
(3.83055 -1.67857 1.44707e-27)
(4.59422 -1.90811 -2.52944e-23)
(4.3085 -1.91404 0)
(5.12208 -1.33711 0)
(4.86728 -1.73375 0)
(5.44408 0.128838 -1.15891e-22)
(5.33303 -0.686017 9.56989e-27)
(5.40406 1.66362 8.03351e-27)
(5.49278 0.965848 -8.34059e-27)
(4.99984 2.35847 0)
(5.2637 2.13871 0)
(4.45603 2.19655 -1.27183e-23)
(4.75697 2.35157 0)
(3.94869 1.72845 4.02526e-23)
(4.20943 1.97138 0)
(3.46077 1.23532 1.15824e-21)
(3.70782 1.48111 0)
(3.01869 0.628755 -1.33244e-20)
(3.22299 0.960954 -2.5276e-21)
(2.84001 -0.206377 -1.41029e-20)
(2.88371 0.223182 7.9524e-21)
(3.04581 -1.00606 -2.76346e-20)
(2.90407 -0.63819 1.40749e-20)
(5.39205 1.39566 4.10949e-20)
(5.47224 -1.33117 -7.1115e-21)
(5.50251 0.119 -4.63088e-20)
(4.94706 2.56845 3.53918e-20)
(5.19372 2.21748 -2.48974e-20)
(4.38837 2.48765 -4.57992e-21)
(4.67079 2.6081 -7.71663e-21)
(3.89617 2.13188 0)
(4.13534 2.30382 6.10983e-21)
(3.44745 1.85614 2.01622e-23)
(3.66861 1.99579 3.86084e-28)
(3.11454 1.29447 0)
(3.26116 1.63825 0)
(3.00913 0.285326 3.53483e-23)
(3.03873 0.827317 0)
(3.13232 -0.825082 1.66889e-23)
(3.04889 -0.281473 0)
(3.42112 -1.72689 0)
(3.2582 -1.31241 0)
(3.75402 -2.33087 0)
(3.56328 -2.06251 0)
(4.04296 -2.66659 0)
(3.85842 -2.54176 0)
(4.3036 -2.52495 0)
(4.12376 -2.69086 9.93224e-22)
(4.39032 -2.1714 -5.81043e-20)
(4.78433 -2.63501 -4.76605e-20)
(5.34984 -2.53665 0)
(3.15946 -1.65194 -4.96565e-21)
(3.2356 -1.31597 3.37355e-20)
(3.69503 0.438878 0)
(4.52153 -0.219079 -7.0827e-20)
(3.02296 1.09029 -1.10327e-19)
(3.56626 1.10168 1.22544e-19)
(2.39022 1.00161 3.64873e-20)
(2.61979 1.06124 5.04727e-21)
(2.33825 0.872158 2.70348e-21)
(2.30062 0.931684 -3.13971e-20)
(2.64028 0.755917 5.94255e-21)
(2.46461 0.813782 3.64579e-21)
(3.00753 0.663639 0)
(2.82759 0.707886 -1.82271e-20)
(3.19806 0.606306 -4.66863e-20)
(2.82464 0.10387 -1.18768e-20)
(2.27297 0.0213124 -1.77563e-26)
(3.38948 -1.26211 1.30419e-20)
(2.2826 -0.938022 0)
(4.10711 -2.56874 0)
(2.50756 -1.66609 0)
(5.15538 -3.22031 5.34165e-21)
(4.68339 -3.38492 5.12116e-22)
(2.93564 -1.86181 2.83294e-21)
(3.43837 -1.5418 -5.26102e-21)
(3.44673 -1.8643 -9.20214e-21)
(3.34596 0.210251 -3.77197e-20)
(3.42011 0.527221 3.80032e-20)
(2.45636 0.0855658 -3.20734e-26)
(3.33163 -0.441038 6.17426e-22)
(3.28895 -0.142417 1.93123e-20)
(3.50391 -0.960364 7.16968e-21)
(3.34389 -0.729192 0)
(3.84138 -1.31938 -3.46503e-27)
(3.6061 -1.14402 -8.22219e-21)
(4.27781 -1.5782 0)
(3.99958 -1.4433 0)
(4.82065 -1.62956 -1.95578e-23)
(4.50497 -1.622 0)
(5.37135 -1.12321 0)
(5.08846 -1.4615 0)
(5.69694 0.198817 1.81559e-22)
(5.574 -0.532189 0)
(5.63918 1.53558 5.07811e-23)
(5.72186 0.941779 0)
(5.20739 2.07383 0)
(5.47919 1.9136 0)
(4.61602 1.89051 -1.90651e-23)
(4.93763 2.0418 0)
(4.05736 1.44817 1.36916e-23)
(4.35088 1.67902 0)
(3.56417 0.986059 -6.41709e-23)
(3.81626 1.21462 3.62398e-27)
(3.18519 0.461465 -1.15762e-23)
(3.36094 0.739263 0)
(3.03125 -0.259658 1.07473e-21)
(3.07735 0.115217 -8.69331e-21)
(3.16925 -1.02462 1.72133e-20)
(3.06317 -0.671163 2.7617e-20)
(3.52843 -1.47755 -3.38879e-20)
(3.33662 -1.30065 -5.83856e-21)
(5.96327 -1.27053 1.06501e-20)
(5.52483 -3.01836 -5.81886e-21)
(5.79625 -2.39622 0)
(5.86227 1.24249 -4.53427e-21)
(6.00254 0.0713418 1.07827e-20)
(5.24369 2.30704 -2.12794e-21)
(5.58384 1.99778 -5.36142e-22)
(4.57177 2.20015 8.53385e-24)
(4.9014 2.31785 -6.83257e-22)
(4.0377 1.89632 0)
(4.28414 2.04677 0)
(3.57813 1.65438 -1.96649e-23)
(3.80148 1.77215 3.17373e-27)
(3.24022 1.19761 -4.40989e-27)
(3.3792 1.47907 4.66828e-27)
(3.16651 0.304101 1.52406e-23)
(3.16353 0.788914 0)
(3.31753 -0.710861 0)
(3.20847 -0.217009 0)
(3.61746 -1.55827 -4.42378e-23)
(3.42768 -1.16816 0)
(3.99176 -2.16394 0)
(3.76046 -1.89412 0)
(4.36889 -2.52143 2.99634e-23)
(4.13521 -2.38466 0)
(4.73705 -2.43334 -2.1869e-22)
(4.52144 -2.55511 7.36113e-22)
(5.06361 -1.55789 -9.16502e-20)
(4.90378 -2.08393 0)
(5.11039 -0.166693 -4.49986e-19)
(5.13606 -0.886785 3.25529e-19)
(5.03202 0.530229 -1.08527e-20)
(2.97614 1.68001 0)
(4.05074 1.63612 -1.11747e-19)
(3.45988 1.70259 -1.30798e-20)
(2.40019 1.56216 0)
(2.61087 1.6428 0)
(2.38934 1.37288 -8.59272e-21)
(2.32958 1.46387 -4.23739e-27)
(2.72855 1.20141 -3.30665e-21)
(2.53057 1.28889 1.02433e-20)
(3.16533 1.0257 0)
(2.94958 1.11033 1.29128e-20)
(4.91 -3.42417 -8.08634e-23)
(5.22501 -3.16914 2.00195e-21)
(3.6701 -1.75324 2.27708e-20)
(3.74438 -1.59046 5.86837e-20)
(3.50866 0.859585 3.65882e-20)
(3.35081 0.939921 -2.01706e-20)
(2.83634 -1.21017 -5.80133e-25)
(2.30083 -1.05039 0)
(3.45601 -2.48691 0)
(2.41988 -1.79472 -2.74411e-25)
(4.09162 -3.35713 -9.5632e-23)
(2.76181 -2.21156 -3.49291e-21)
(4.53198 -3.65519 1.29292e-22)
(3.2965 -2.10524 0)
(4.90245 -3.02472 4.95153e-21)
(4.61714 -3.32139 -2.00102e-23)
(3.70542 -1.98459 1.71201e-20)
(3.98808 -1.62117 -6.30578e-20)
(3.90375 -1.94553 -1.30363e-20)
(5.04812 -2.67805 -5.29535e-21)
(4.60188 -2.74176 -4.88428e-21)
(4.6566 -2.36976 1.00493e-20)
(4.29031 -1.63013 -2.821e-20)
(4.01085 -1.2426 8.80501e-20)
(4.26515 -1.36416 1.27745e-20)
(3.6902 0.739597 1.9692e-20)
(3.67407 1.15334 0)
(3.859 1.01577 -2.29687e-20)
(2.47375 -1.10281 -2.80665e-26)
(3.50105 0.140443 1.0132e-20)
(3.56687 0.483466 4.32235e-20)
(3.47057 -0.416794 -1.88679e-20)
(3.4299 -0.106073 -1.00173e-20)
(3.66035 -0.838112 0)
(3.502 -0.607533 0)
(4.00796 -1.14265 0)
(3.77825 -0.960973 0)
(4.44807 -1.35311 0)
(4.17716 -1.22168 0)
(4.95823 -1.36339 0)
(4.66697 -1.36217 0)
(5.48205 -0.894615 1.35944e-27)
(5.21539 -1.18941 -1.4127e-27)
(5.78532 0.256027 -6.56642e-23)
(5.68207 -0.375903 -4.86885e-27)
(5.66928 1.41211 -5.07816e-23)
(5.78243 0.906585 0)
(5.23185 1.80567 0)
(5.49558 1.70327 0)
(4.64596 1.59625 -1.51289e-23)
(4.96301 1.73771 0)
(4.08558 1.19484 9.83768e-24)
(4.38127 1.39292 0)
(3.61052 0.778624 6.41735e-23)
(3.85816 0.977405 0)
(3.24508 0.338243 1.45698e-22)
(3.42432 0.562418 4.72152e-27)
(3.08883 -0.204093 8.90049e-21)
(3.13698 0.0705291 0)
(3.22776 -0.697492 -1.05393e-20)
(3.13049 -0.474833 -1.14622e-20)
(3.53778 -1.02214 4.15562e-20)
(3.37044 -0.877064 -2.61059e-20)
(3.76194 -1.13814 -7.83528e-20)
(5.72797 -2.77644 -7.43187e-21)
(5.42283 -2.85264 1.0037e-20)
(6.17217 -1.20904 -5.16118e-23)
(5.98167 -2.24464 -1.23683e-21)
(6.1038 1.06706 -1.78116e-20)
(6.25146 0.0236405 1.91184e-20)
(5.42766 1.94597 -1.87163e-23)
(5.79759 1.69967 5.44558e-22)
(4.75675 1.88143 -8.52157e-24)
(5.07452 1.95712 -4.13428e-27)
(4.23951 1.65313 0)
(4.47861 1.7709 0)
(3.76753 1.43851 9.82921e-27)
(3.99789 1.53922 -1.04035e-26)
(3.38736 1.08388 0)
(3.53865 1.29767 0)
(3.30198 0.339909 1.06499e-23)
(3.28488 0.75268 0)
(3.48756 -0.58904 0)
(3.34328 -0.132224 0)
(3.80792 -1.38066 4.4238e-23)
(3.60001 -1.01955 0)
(4.20524 -1.9534 0)
(3.96367 -1.70149 0)
(4.64555 -2.30227 -2.10172e-23)
(4.39653 -2.16957 -1.50308e-27)
(5.11051 -2.23048 2.1252e-22)
(4.87635 -2.34226 0)
(5.49004 -1.45735 0)
(5.35125 -1.93568 1.45066e-23)
(5.57816 -0.16089 1.0485e-19)
(5.64127 -0.842459 1.73187e-22)
(5.56468 0.505849 9.17546e-20)
(3.91372 1.99359 -1.42968e-19)
(4.39865 1.93358 8.08546e-20)
(3.01411 2.11725 0)
(3.4263 2.10839 0)
(2.52119 1.99422 -3.03069e-24)
(2.70329 2.07033 -7.48694e-27)
(2.49274 1.8017 -1.49294e-24)
(2.45328 1.90037 -3.81354e-27)
(2.77893 1.6247 5.30646e-22)
(2.60717 1.71426 -7.49263e-28)
(3.21053 1.40656 9.8235e-21)
(2.98359 1.51907 -4.38872e-21)
(3.44661 1.28162 -2.40085e-21)
(2.9396 -2.355 1.24701e-24)
(2.45316 -2.0189 -9.83769e-26)
(3.52844 -3.30434 0)
(2.63812 -2.43674 3.36333e-25)
(4.03226 -3.68777 9.83274e-23)
(3.12217 -2.47588 3.49905e-21)
(4.34893 -3.57868 -2.82378e-22)
(3.64154 -2.24617 -4.19463e-22)
(4.3193 -3.05687 -1.14963e-22)
(3.92415 -2.10715 0)
(4.21645 -1.98576 -1.19045e-20)
(4.28155 -2.42163 0)
(4.20824 -2.05857 -8.48703e-21)
(4.47705 -1.47433 5.48167e-20)
(4.60008 -1.67911 2.48854e-20)
(3.88034 -1.47826 -5.4006e-22)
(3.74364 -1.56242 -3.4944e-20)
(3.48187 -1.06792 -3.33993e-22)
(4.6989 -1.508 -7.13955e-21)
(4.60914 -1.23004 7.52285e-20)
(4.83168 -1.16612 6.28628e-20)
(3.79129 1.42965 0)
(3.95649 1.29236 -6.86119e-20)
(3.72457 0.762176 3.9474e-20)
(4.08948 0.758672 -4.13886e-20)
(2.60618 -2.16871 1.63462e-25)
(3.53454 0.225717 -2.0493e-20)
(3.77816 0.260412 -2.05206e-20)
(3.55432 -0.296634 2.5788e-21)
(3.62671 -0.212996 -1.03281e-20)
(3.78629 -0.687571 -3.84609e-23)
(3.69747 -0.558303 3.89429e-26)
(4.13572 -0.956975 0)
(3.96353 -0.790202 0)
(4.53223 -1.1271 0)
(4.32861 -0.988033 0)
(4.98901 -1.11114 4.27619e-23)
(4.75828 -1.09953 0)
(5.47524 -0.686996 0)
(5.24997 -0.937438 0)
(5.75625 0.287145 0)
(5.68137 -0.235718 0)
(5.59537 1.25239 0)
(5.73976 0.833751 0)
(5.14955 1.55148 0)
(5.41165 1.48995 0)
(4.58525 1.31533 4.69122e-23)
(4.88885 1.46122 0)
(4.03855 0.930804 6.88096e-24)
(4.32762 1.10721 1.6401e-26)
(3.60142 0.563299 0)
(3.82913 0.723364 0)
(3.35811 0.205195 5.20821e-24)
(3.47878 0.371348 -4.7216e-27)
(3.38282 -0.240834 8.15596e-23)
(3.35864 -0.0142621 2.13562e-26)
(3.64117 -0.76206 1.1153e-20)
(3.50553 -0.506077 1.06965e-23)
(4.01546 -1.09773 -5.57941e-21)
(3.83433 -0.9739 -5.78705e-21)
(4.32298 -1.17861 -3.31859e-20)
(4.20085 -1.13949 2.28877e-20)
(4.44742 -1.21392 -8.42419e-20)
(4.80523 -2.21212 5.32059e-22)
(4.34973 -1.86696 -2.23868e-22)
(5.55514 -2.44564 1.72316e-22)
(5.22041 -2.45757 0)
(6.15829 -1.0294 5.10609e-23)
(5.88114 -1.96292 1.25275e-21)
(6.1448 0.90327 0)
(6.27278 0.0430826 0)
(5.4714 1.63947 1.94205e-23)
(5.84131 1.41531 0)
(4.82382 1.63376 0)
(5.12372 1.67462 0)
(4.34775 1.44408 0)
(4.55996 1.54934 0)
(3.93278 1.22016 -5.89926e-23)
(4.13551 1.3195 0)
(3.54059 0.956593 0)
(3.70044 1.10722 0)
(3.41813 0.375922 -6.12391e-23)
(3.40849 0.704399 0)
(3.60816 -0.441341 -6.9634e-23)
(3.448 -0.0309383 0)
(3.96386 -1.18793 -6.42944e-23)
(3.73757 -0.844884 4.41263e-27)
(4.39131 -1.73663 -4.62676e-23)
(4.14332 -1.48971 -2.44474e-26)
(4.87606 -2.06333 -1.98962e-23)
(4.61646 -1.928 0)
(5.3966 -2.0076 0)
(5.14816 -2.08351 0)
(5.8203 -1.34609 0)
(5.66656 -1.73432 -1.45299e-23)
(5.93742 -0.19825 -7.17849e-20)
(5.98032 -0.776555 -1.70036e-22)
(5.91921 0.43109 6.13542e-20)
(4.67169 1.90719 0)
(4.96072 1.65485 -5.15397e-20)
(3.8445 2.23023 7.06876e-20)
(4.27019 2.14047 1.20937e-20)
(3.03828 2.34465 6.01833e-24)
(3.41696 2.32561 1.42147e-26)
(2.59458 2.24576 5.48623e-24)
(2.75462 2.30773 1.19284e-26)
(2.59224 2.08857 -6.81955e-27)
(2.54307 2.17228 6.93415e-27)
(2.90435 1.93212 4.47312e-22)
(2.71698 2.01229 1.54163e-27)
(3.37637 1.71066 -9.78288e-21)
(3.13178 1.83465 -4.55856e-22)
(3.59867 1.57034 -1.34716e-20)
(3.08213 -3.15229 0)
(2.67306 -2.73257 3.60269e-26)
(3.5814 -3.67439 0)
(2.96056 -2.78981 -9.67957e-25)
(3.94791 -3.66865 -1.03225e-22)
(3.46756 -2.55756 -3.02485e-24)
(4.12896 -3.34295 1.84465e-22)
(3.96142 -2.37956 1.0268e-23)
(4.02134 -2.75289 1.49327e-22)
(4.13952 -2.27942 2.04038e-23)
(3.90359 -2.06129 0)
(4.5622 -2.06882 -2.03442e-21)
(3.19556 -0.698585 -4.39793e-20)
(3.26818 -1.0652 7.29241e-20)
(4.91494 -1.7892 6.3621e-22)
(5.05468 -1.07942 -6.73247e-20)
(4.98377 -1.47998 -4.849e-20)
(4.06799 1.16872 -3.46727e-21)
(2.79716 -2.94696 -2.70237e-25)
(3.91939 0.523554 -4.36394e-20)
(4.34312 0.971284 2.35261e-19)
(4.03866 0.739486 -1.4879e-19)
(3.69489 0.0505739 5.09156e-21)
(3.77543 0.323222 4.05268e-20)
(3.7118 -0.34411 -2.5756e-21)
(3.70421 -0.0628193 5.15631e-21)
(3.92546 -0.605512 -1.00602e-20)
(3.82954 -0.34018 8.97252e-21)
(4.20586 -0.808453 -7.31636e-23)
(4.07852 -0.571082 3.75623e-26)
(4.53792 -0.944947 -6.56355e-23)
(4.3795 -0.799277 -3.33277e-26)
(4.95806 -0.897374 1.25567e-23)
(4.76395 -0.905832 0)
(5.37329 -0.503242 0)
(5.20009 -0.739137 0)
(5.5705 0.30643 -4.14259e-23)
(5.53305 -0.133604 0)
(5.41123 1.08107 1.71519e-26)
(5.54643 0.741969 -1.78068e-26)
(4.9931 1.2713 2.21057e-26)
(5.23734 1.24743 -2.29402e-26)
(4.45688 1.01342 -2.89315e-26)
(4.73701 1.15717 3.00128e-26)
(3.9618 0.672742 -1.45965e-22)
(4.20393 0.817315 3.60318e-26)
(3.6318 0.415919 8.09311e-23)
(3.78258 0.515098 3.95857e-26)
(3.49972 0.203299 3.17483e-24)
(3.56143 0.302822 0)
(3.49578 -0.0967019 8.86296e-23)
(3.50154 0.0700573 4.36464e-26)
(3.57559 -0.465294 8.69597e-23)
(3.53719 -0.272846 0)
(3.76856 -0.750308 5.97147e-21)
(3.66434 -0.601078 0)
(4.04926 -0.988206 2.4961e-20)
(3.89892 -0.865859 -2.75966e-20)
(4.46116 -1.02419 0)
(4.24752 -1.02131 2.74024e-21)
(4.83726 -0.99316 7.95814e-20)
(4.66783 -1.00748 -7.60627e-20)
(3.7109 -1.06227 2.40337e-21)
(3.38576 -0.579557 2.33031e-20)
(3.4947 -0.781303 -2.25324e-20)
(4.40873 -1.76745 5.92784e-22)
(4.03334 -1.39607 6.28495e-23)
(5.20491 -2.07496 0)
(4.79863 -2.06445 0)
(6.02299 -0.805387 -1.34102e-23)
(5.65616 -1.62506 0)
(6.0459 0.707987 0)
(6.16477 0.0569818 0)
(5.40826 1.28647 -7.10617e-25)
(5.75442 1.09189 0)
(4.80147 1.35739 0)
(5.07956 1.35264 0)
(4.34682 1.2525 0)
(4.54705 1.31719 0)
(4.01687 1.0254 -6.87096e-24)
(4.16345 1.13616 0)
(3.67635 0.805394 0)
(3.82455 0.908113 0)
(3.51159 0.389062 -6.90261e-26)
(3.52619 0.625046 7.3083e-26)
(3.67473 -0.292356 6.95636e-23)
(3.5231 0.053671 7.4538e-26)
(4.05064 -0.974227 1.33674e-22)
(3.81581 -0.660191 6.72378e-26)
(4.5131 -1.49368 -9.35734e-24)
(4.25448 -1.25805 0)
(5.03312 -1.79681 1.09662e-23)
(4.7626 -1.66347 -3.06523e-26)
(5.57469 -1.76471 -1.29647e-26)
(5.31778 -1.80658 1.37533e-26)
(6.00947 -1.2177 0)
(5.8443 -1.51523 0)
(6.14259 -0.238124 7.50649e-21)
(6.15372 -0.70883 -1.15364e-20)
(5.86401 0.710606 0)
(6.08033 0.334932 1.76791e-21)
(5.65042 1.05806 0)
(4.38717 1.87733 0)
(4.8723 1.35613 9.45286e-21)
(4.67144 1.64047 -6.05214e-21)
(3.68687 2.23051 -5.33646e-21)
(4.03433 2.1087 -8.52583e-21)
(3.04138 2.4093 -2.0913e-24)
(3.34308 2.34662 0)
(2.6599 2.39592 -2.45991e-24)
(2.80588 2.4206 0)
(2.65216 2.30479 0)
(2.60705 2.35912 0)
(2.96643 2.17989 1.75887e-25)
(2.77202 2.24947 0)
(3.49476 1.96167 0)
(3.20999 2.08966 0)
(4.06141 1.59355 0)
(3.79361 1.78861 -2.42984e-21)
(4.38105 1.15183 0)
(4.26261 1.41543 1.1196e-20)
(3.08606 -0.385064 8.79065e-20)
(3.37579 -0.376973 0)
(5.27448 -0.995872 3.0749e-21)
(5.00657 -0.887814 5.27434e-21)
(3.23554 -3.56422 5.09481e-24)
(2.95112 -3.1125 0)
(5.42999 0.909876 0)
(3.59816 -3.70201 1.32927e-23)
(3.30308 -2.89279 6.72785e-25)
(4.35775 0.822935 5.70294e-20)
(4.53348 1.25706 0)
(4.55278 1.04831 0)
(3.83393 -3.46801 2.53007e-23)
(3.77807 -2.61645 1.05585e-23)
(3.87172 -3.06792 0)
(4.20782 -2.54911 -1.0025e-23)
(3.70029 -2.43119 0)
(4.45611 -2.44344 0)
(3.46065 -1.57722 0)
(4.92419 -2.08701 3.52554e-21)
(2.90075 -0.54895 6.58717e-22)
(5.26878 -1.82651 9.234e-22)
(3.37919 -0.163473 0)
(3.14703 -0.124965 -4.62167e-20)
(5.34068 -1.4074 -2.01679e-20)
(5.45874 -0.908807 6.18231e-20)
(5.17303 -0.693529 -8.03533e-20)
(3.02748 -3.36041 1.66914e-25)
(3.97789 0.428486 2.15121e-20)
(4.09374 0.603021 0)
(3.82433 0.0478722 -5.06812e-21)
(3.83278 0.22039 -9.81555e-21)
(3.87453 -0.249003 0)
(3.79814 -0.0760466 5.08142e-21)
(4.03012 -0.482943 0)
(3.93024 -0.294984 1.28807e-21)
(4.21758 -0.680621 7.31279e-23)
(4.11825 -0.519287 0)
(4.50099 -0.759915 1.35983e-22)
(4.36601 -0.69227 0)
(4.8739 -0.683279 8.87493e-24)
(4.71204 -0.719372 0)
(5.22692 -0.35457 -5.82939e-23)
(5.08769 -0.547833 -5.57516e-26)
(5.34624 0.294252 4.13761e-23)
(5.34348 -0.0522496 5.22397e-26)
(5.12441 0.919712 -6.13741e-23)
(5.27593 0.658757 5.16368e-26)
(4.73177 1.03098 -5.80112e-26)
(4.9403 1.05722 5.62067e-26)
(4.30444 0.764416 -7.13907e-23)
(4.51545 0.922316 6.76578e-26)
(3.96137 0.495741 1.53291e-22)
(4.11246 0.616816 0)
(3.77687 0.334471 1.96413e-24)
(3.84781 0.403533 8.21618e-26)
(3.69252 0.154532 -1.72395e-22)
(3.7281 0.256731 0)
(3.64692 -0.174015 -8.85848e-23)
(3.66355 0.0119632 -9.06619e-26)
(3.71827 -0.538891 0)
(3.65986 -0.356336 0)
(3.94401 -0.738751 1.1447e-20)
(3.81876 -0.651634 -1.19912e-20)
(4.24022 -0.784669 0)
(4.0884 -0.757629 -5.59203e-27)
(4.51182 -0.819508 3.51288e-21)
(4.39539 -0.794818 -5.45899e-21)
(4.75658 -0.743661 4.37795e-20)
(4.62661 -0.796959 -4.36961e-20)
(5.01159 -0.58082 0)
(4.90575 -0.664099 -5.25143e-21)
(3.60688 -0.520254 1.21162e-20)
(3.51912 -0.135481 -1.91909e-21)
(3.56598 -0.340277 -2.36586e-20)
(3.80037 -0.871964 2.31047e-20)
(3.68316 -0.675575 -1.19375e-20)
(4.24821 -1.43765 1.07556e-20)
(3.99234 -1.13729 -3.42649e-20)
(5.0552 -1.60645 -4.07281e-23)
(4.60729 -1.66275 3.56605e-22)
(5.87244 -0.551649 1.341e-23)
(5.53176 -1.19287 0)
(5.8449 0.517262 7.44772e-26)
(5.97224 0.0643527 -7.87532e-26)
(5.31132 0.96874 -8.32016e-26)
(5.59838 0.794389 8.80077e-26)
(4.75705 1.11227 -3.05285e-23)
(5.01972 1.06606 0)
(4.30513 1.0829 1.20137e-25)
(4.50895 1.10606 -1.27123e-25)
(4.00782 0.910868 6.57345e-23)
(4.12247 1.00611 1.39434e-25)
(3.77484 0.67989 0)
(3.87514 0.779439 0)
(3.597 0.383285 7.61282e-23)
(3.6374 0.539928 -4.89592e-27)
(3.70161 -0.147761 -1.46678e-25)
(3.57965 0.129665 1.55322e-25)
(4.06774 -0.754854 3.03244e-24)
(3.83674 -0.465396 0)
(4.54917 -1.23745 5.56486e-23)
(4.28327 -1.01056 0)
(5.0803 -1.51841 -4.22417e-23)
(4.80743 -1.38121 0)
(5.61969 -1.5005 2.22018e-26)
(5.36208 -1.51693 -2.35417e-26)
(6.0403 -1.05765 0)
(5.87949 -1.28326 0)
(6.15067 -0.266568 -2.32311e-21)
(6.16903 -0.650238 -5.40389e-21)
(5.89642 0.530787 1.43535e-20)
(6.10155 0.208507 -4.17818e-21)
(5.69795 0.793588 0)
(4.64729 1.30783 -4.30936e-21)
(4.72908 1.00715 3.04108e-20)
(4.22955 1.81767 0)
(4.4717 1.58757 4.2307e-21)
(3.611 2.16807 1.045e-23)
(3.92696 2.0347 0)
(2.99187 2.3641 -3.92033e-24)
(3.2845 2.2913 -2.10874e-26)
(2.64174 2.4041 0)
(2.76732 2.40008 0)
(2.69481 2.37549 0)
(2.61907 2.3998 0)
(3.0675 2.29535 -1.74869e-25)
(2.84646 2.34441 0)
(3.61306 2.12244 0)
(3.33408 2.22378 0)
(4.17219 1.77245 -7.20753e-21)
(3.90145 1.96758 2.34674e-21)
(4.40653 1.56395 -3.34775e-21)
(3.39875 0.111057 0)
(3.52478 0.108417 1.69293e-20)
(5.32996 -0.487735 6.24046e-20)
(5.07223 -0.448972 -9.68052e-20)
(3.36611 -3.64366 -5.94761e-25)
(3.25219 -3.21118 4.71052e-25)
(4.3133 0.597918 -9.19186e-20)
(4.45723 0.769541 5.35836e-20)
(3.57732 -3.54445 -7.51315e-23)
(3.62533 -2.90586 0)
(3.69651 -3.23347 -1.17384e-22)
(4.02636 -2.75888 -2.91748e-23)
(3.57427 -2.7769 0)
(4.45064 -2.75868 0)
(3.35316 -2.01233 1.15135e-21)
(4.87552 -2.5317 -4.76855e-22)
(2.99661 -0.921358 0)
(5.27746 -2.13686 -1.51513e-21)
(2.76274 -0.0910898 -3.5693e-20)
(5.64324 -1.73473 0)
(3.2463 0.155621 3.44372e-20)
(5.69547 -1.21947 1.7049e-20)
(3.58016 0.304279 -3.80549e-20)
(3.45965 0.370383 3.57369e-20)
(5.61027 -0.732264 -4.35882e-20)
(3.69338 0.250166 -1.06491e-20)
(3.76704 0.395663 -9.1127e-21)
(3.68018 0.470252 4.63917e-20)
(4.52734 0.763997 -7.38822e-20)
(5.39383 -0.30735 -2.85135e-21)
(5.10124 -0.280367 2.23988e-19)
(3.25831 -3.45598 0)
(3.99951 0.268883 -9.20364e-21)
(4.1026 0.505026 3.20569e-20)
(3.8897 0.0160583 0)
(3.92196 0.211481 0)
(3.93195 -0.182504 0)
(3.91781 -0.024221 0)
(4.02623 -0.374575 0)
(3.9977 -0.220968 0)
(4.19097 -0.518585 7.5813e-23)
(4.11929 -0.408354 4.8831e-27)
(4.46869 -0.562337 -7.04585e-23)
(4.34278 -0.515684 1.49017e-25)
(4.8111 -0.499301 -6.43294e-23)
(4.65753 -0.523968 1.39936e-25)
(5.10555 -0.242651 5.82223e-23)
(4.98736 -0.389205 1.30769e-25)
(5.1635 0.250018 0)
(5.17702 -0.0161301 -4.23697e-27)
(4.905 0.751836 6.13209e-23)
(5.06591 0.529351 3.76911e-27)
(4.51478 0.854508 0)
(4.70239 0.866563 3.9952e-27)
(4.20497 0.622882 -4.07589e-24)
(4.33818 0.756297 0)
(4.01489 0.413253 -1.57916e-22)
(4.09164 0.504836 0)
(3.89559 0.288932 -8.31723e-23)
(3.9474 0.348992 1.67027e-25)
(3.7882 0.124349 1.74658e-22)
(3.83888 0.21976 0)
(3.73326 -0.128776 0)
(3.74686 0.00887973 0)
(3.80858 -0.386003 0)
(3.75477 -0.256453 0)