/*--------------------------------*- C++ -*----------------------------------*\
  =========                 |
  \\      /  F ield         | OpenFOAM: The Open Source CFD Toolbox
   \\    /   O peration     | Website:  https://openfoam.org
    \\  /    A nd           | Version:  10
     \\/     M anipulation  |
\*---------------------------------------------------------------------------*/
FoamFile
{
    format      ascii;
    class       surfaceScalarField;
    location    "20.5";
    object      phi;
}
// * * * * * * * * * * * * * * * * * * * * * * * * * * * * * * * * * * * * * //

dimensions      [0 3 -1 0 0 0 0];

internalField   nonuniform List<scalar> 
57492
(
-0.00600221
4.18703e-05
0.00130246
0.00465787
0.00375393
-0.00441809
-0.00533804
-0.000758293
0.00224341
0.0078836
-0.00936871
0.0386502
0.0296007
-0.00604054
-0.0622104
-0.0831269
0.034814
0.0869631
0.0109682
-0.0103319
-0.00520646
0.00457021
-0.0199452
0.00566269
-0.00342598
0.0177085
0.00400986
-0.0129868
0.0138841
-0.0413621
0.0394168
-0.0119387
0.0118575
0.0379126
-0.035886
0.00383159
0.00270202
-0.00577612
-0.000757494
0.0011132
0.00310221
-0.000383817
-0.0024449
0.00297204
0.000586055
0.00104952
-0.000792397
0.0263542
-0.0232861
-0.00988414
0.00681599
0.00166184
0.020166
0.00452635
-0.0022402
0.00667994
0.0349709
-0.0394106
-0.00618147
0.03451
-0.0305687
0.00374825
-0.00793517
0.00418692
-0.0320175
0.0225918
0.013174
-0.0472359
0.00490708
0.0344488
0.00788006
0.00920778
-0.0478299
-0.00861386
-0.000409839
0.00226657
-0.00215035
0.000293617
0.00191985
-0.00256621
0.00023652
-0.0317248
0.0338487
0.00317553
-0.00529946
-0.051177
0.0291269
-0.00967462
-0.0209937
0.00848479
0.0102768
0.00223215
-0.0149426
-0.00673327
0.000682135
-0.00786625
-0.0228653
0.0272143
0.00351718
-0.00922883
0.00283618
-0.0014736
0.0118718
-0.0077833
-0.00721338
0.00312483
-0.0102255
0.00801923
0.0140781
-0.0157061
-0.0262493
0.0193405
0.022615
-0.029952
-0.00916358
0.0234095
-0.0195939
-0.00284881
0.0224427
-0.0061642
-0.0134297
-0.0300999
0.0377986
-0.0138629
0.00504981
-0.0192435
-0.0159062
-0.00879634
0.014459
-0.00837993
-0.0378002
0.0203214
0.0174787
-0.0730728
0.0352726
0.0519047
0.00471335
-0.00969297
-0.0469251
0.0373847
-0.014357
0.028877
0.00475509
0.0550793
-0.055121
0.0219376
0.00401534
-0.0219431
0.0211842
-0.00267253
0.025857
-0.00916869
-0.0191441
0.00245579
0.0291005
0.000771805
0.0167484
-0.0100909
0.0145266
0.00854578
0.0259111
-0.0431551
-0.00471108
0.00379013
0.0440761
-0.0445021
-0.00158316
0.00293016
0.0100635
0.040189
-0.0395691
-0.0106834
0.00716738
-0.038466
-0.0213961
0.0407275
0.0325708
-0.0519022
0.0103923
0.0478455
-0.0796339
-0.000224523
0.00207166
5.39848e-05
-0.00190112
0.00248615
0.000261367
-0.000809021
0.00145675
0.00183842
0.00142883
-0.000166191
-0.000699962
0.000753947
-0.000307378
-0.000392584
0.0951069
0.0411325
-0.0654465
-0.0707929
0.0345986
-0.0210226
0.0815309
-0.0841989
0.034292
0.0845055
0.0202111
-0.0632775
0.011212
-0.0307913
0.0245227
-0.0049434
0.0264898
-0.0310803
0.0158025
0.00116835
-0.00128409
0.000157608
0.00193332
0.000537503
0.00523256
0.00135863
-0.0336583
0.0607855
0.0273254
-0.0544526
0.0373402
-0.0445087
0.0218544
0.0549918
-0.0160607
0.142583
-0.0155354
-0.0378869
-0.0891604
0.0347692
0.0791189
0.0286946
0.0200599
-0.05653
0.0712393
0.00139868
-0.00215697
0.00364209
0.0161327
0.0315371
-0.0130446
-0.0346253
0.0218771
0.00213926
0.00328246
-0.00146252
-0.00181994
0.00337804
-9.55814e-05
-0.0823412
0.0391853
-0.029626
0.0727819
-0.0714007
-0.0365857
0.0256452
-0.0389455
0.0348588
-0.067314
0.040325
-0.000718726
-0.0201276
-0.0194786
-0.0160097
0.0454184
0.0109163
-0.0197432
-0.00197893
0.00571248
-0.0179667
-0.00249525
-0.00667654
-0.0314178
0.000754638
0.00221311
0.00218623
-0.00515398
0.00366263
0.00343369
-0.00634168
-0.000413982
0.000521426
0.00355518
0.000957159
0.00084197
0.00218146
0.00096193
-0.0166566
0.00998005
0.00234273
-0.0189993
0.00328183
9.62137e-05
0.0464987
0.0310413
-0.00327283
0.0174308
-0.054059
-0.00314885
0.0358942
-0.0265385
-0.00620688
-0.00494387
0.0414054
-0.0396104
0.0325355
0.0189963
-0.0055377
-0.045994
-0.0101138
0.00446646
0.0381828
0.0415007
-0.0326182
-0.0141838
-0.0291988
0.00937073
0.0340118
-0.0135047
0.033905
-0.0345841
0.00164952
-0.0443529
-0.00162244
-0.000782432
0.000209514
0.00182679
0.000464533
0.00146261
-0.00495084
0.00328532
0.0034923
-0.00801013
-0.0013588
-0.00455627
0.00906076
0.00200816
-0.00651266
0.0198181
-0.0204872
-0.00388722
-0.0095237
0.0207759
0.00856588
-0.00407531
0.00361237
-0.0665939
0.0367516
0.0690276
0.0731994
-0.0261672
-0.0836179
-0.0326048
0.0392103
-0.00221608
-0.0177744
-0.00287474
-0.0116444
0.000199529
5.54181e-06
-0.00471299
0.00298805
0.0017194
-0.00338819
0.0019847
0.00140903
-0.00526524
-0.00283594
-0.00538884
-0.00747938
0.00122378
-0.0153387
-0.00782458
-0.0121133
-0.0126573
0.0150576
0.00971294
0.000720017
0.00593319
-0.0187665
-0.0166353
0.00469805
-0.0482343
0.0184708
-0.00225409
-0.0486632
0.00515464
-0.00472565
0.00225922
-0.036847
0.0325218
0.00206595
0.00197596
-0.0340185
0.0343017
0.00248317
-0.112403
-0.0277094
0.0349626
0.0354036
-0.0446422
0.0403754
-0.00542565
-0.000856636
0.00137806
-0.00042559
-0.000431046
0.00660799
-0.00125862
0.0574526
-0.0360537
-0.034163
0.0127641
0.0525195
0.00968817
0.0558282
0.0127038
-0.0581397
0.0285445
0.0428693
-0.0155856
0.0125894
-0.0284202
0.0443753
-0.000420299
-5.2904e-06
0.0137957
-0.0428708
-0.0446283
0.0263605
0.0539167
0.0132053
-0.000672494
-0.0138121
0.00127927
0.00439418
-0.00141436
-0.017196
0.0033641
0.0218511
0.00283776
-0.0156396
-0.00344343
0.000948057
0.00663587
-0.00159098
-0.00497225
-7.26347e-05
-1.37493e-05
-0.000174284
0.00682391
0.002775
0.0115579
-0.0143466
-0.0174619
0.0316018
-0.0108581
0.0664482
-0.0617215
-0.0221887
-0.000288203
-0.0229997
0.026652
-0.0706821
-0.00151758
-0.051821
-0.0266091
0.00774799
0.0322216
0.0264871
-0.0538016
0.0211578
0.0486383
-0.0375745
0.0196956
-0.0327624
0.0187598
-0.00569299
0.0213546
-0.0317275
0.0300684
0.0459003
0.0150356
0.0443232
-0.00163595
-0.0441902
0.00150291
0.0489182
-0.0053825
0.000787543
0.0498823
-0.00798388
0.000736668
-0.0426351
0.0356403
-0.0123334
0.0265754
0.0411205
-0.0108063
0.00840665
-0.0387208
0.00949871
0.0418271
-0.0102053
-0.037443
-0.0133585
0.0399952
0.0076591
-0.0357314
-0.0142302
0.0348835
-0.0187996
-0.031948
0.016608
0.0341396
-0.0192731
-0.0325762
0.0330496
0.0178422
0.0309512
-0.0107468
-0.0380466
0.0305241
-0.031955
-0.020931
0.0208268
0.0306283
-0.016536
0.0265562
-0.0405311
0.0359015
-0.00611711
-0.0524896
0.00541009
0.0538997
-0.00682015
0.0145685
-0.0028222
0.00898404
-0.00965686
0.00349503
-0.00129619
0.0166373
-0.0181633
2.68421e-05
-0.00127238
-0.00676459
-0.0160542
-0.0251208
0.0156897
0.00112119
-0.00129548
-1.49844e-05
0.00113618
-0.00295109
-0.0281741
0.0210344
-0.0249024
-0.0025317
0.024483
0.00174616
-0.026005
-0.000643565
-0.0225365
0.0119587
0.021658
-0.0110802
0.026448
-0.0228542
-0.0261303
0.000535355
0.0378714
0.000157082
2.33006e-05
-0.000962815
-2.59872e-05
0.000183069
-2.68667e-06
0.000286856
-0.000333016
0.00147499
-0.00025474
0.000541597
-0.000587756
0.00113843
-8.60938e-05
0.000867511
-0.00105755
0.00219598
-0.00114364
0.00236129
-0.000224528
-0.00621207
-0.000873811
0.0032351
-0.00109834
0.0133396
0.0319913
-0.0408644
0.0133275
-0.0426512
0.0426633
0.0457206
-0.000401797
-0.0137353
-0.0248469
0.0136517
0.0249305
-0.00572329
0.0262603
-0.0342723
0.0035751
-0.0341453
0.0289874
-0.0288495
-0.000227849
8.99674e-05
0.0294399
0.00385819
-0.00431071
-0.00402386
-0.0284908
0.00366521
0.0302
0.00713296
-0.00789311
0.0314141
0.0109248
-0.0121389
0.0136761
0.0328743
-0.0151363
0.0313697
-0.0305143
0.0128207
0.0142472
0.0353192
-0.0166921
0.0308613
0.0147556
-0.0289051
0.00931552
-0.0282591
0.00648694
-0.0277683
0.00336745
-0.0280094
1.32098e-05
-0.0273065
-0.00472671
0.0164825
0.0375368
-0.0187001
0.0297935
0.0175503
-0.00770162
-0.0280065
0.00721722
-0.0274606
-0.00754756
-0.0112297
-0.0293093
0.0125325
0.0197446
0.0382386
-0.0204463
0.0304154
0.0191227
-0.0284056
-0.0102847
0.0386695
0.0210245
-0.0214555
0.0217734
0.0392079
-0.0223118
0.0308627
0.0205772
0.0313708
0.0212653
-0.0142746
-0.0291644
0.0141297
-0.0284748
-0.0142053
0.0222879
0.0394321
-0.022512
0.0316806
0.0219781
-0.0171035
-0.0292675
0.0172066
-0.0287436
-0.0168347
0.0223704
0.0397717
-0.0227101
0.0320547
0.0219963
-0.0194785
-0.0294211
0.019632
-0.0290381
-0.0191839
0.0223583
0.0397863
-0.0223729
0.032224
0.022189
-0.0213092
-0.0298217
0.0217099
-0.0296193
-0.020728
0.0220407
0.0399217
-0.0221761
0.0324764
0.0217883
-0.0225122
-0.0302727
0.0229633
-0.0302062
-0.0219254
0.0217582
0.0397236
-0.02156
0.03255
0.0216846
-0.0230717
-0.0310365
0.0238354
-0.0309533
-0.0223246
0.0212893
0.0396175
-0.0211832
0.0327613
0.021078
-0.0232065
-0.0309872
0.0231573
-0.0312876
-0.0228722
0.0209736
0.0391111
-0.0204672
0.0324861
0.0212488
-0.0232489
-0.0316716
0.0239332
-0.0320511
-0.0224854
0.0206133
0.0385394
-0.0200417
0.032099
0.0210005
-0.0229557
-0.0316748
0.022959
-0.0320463
-0.0229606
0.0217991
0.0360574
-0.0193171
0.0329778
0.0209202
-0.0229033
-0.0322558
0.0234842
-0.0325041
-0.0224455
0.021203
0.0335032
-0.0186488
0.0332736
0.0209073
-0.0230022
0.0232223
-0.0324759
-0.0332048
-0.0223015
0.0194782
-0.0189083
0.0329333
0.0328592
0.0198926
-0.032264
0.0322939
0.0234543
-0.0325373
0.0234956
-0.0228858
0.0235769
-0.0331669
-0.0230274
-0.0330632
-0.0314441
0.0307618
0.0246155
0.0238088
-0.0293687
0.0288783
0.0243258
0.0245504
-0.0284941
0.0282171
0.0219869
0.0233474
-0.0280478
0.0279832
0.0172713
0.0198014
-0.028006
0.0298316
0.0107069
0.0141068
-0.0300759
0.0299865
0.00375456
0.00697297
-0.0314028
0.0316595
-0.00456733
-0.00132636
-0.0310333
0.0310273
-0.0121329
-0.00726694
-0.0308397
0.0313473
-0.0171998
-0.0149486
-0.0318203
0.0322479
-0.020874
-0.019173
-0.0326177
0.0329195
-0.0226135
-0.0218253
-0.0331441
0.0332944
-0.0228604
-0.0227366
-0.0333726
0.0333853
-0.0221888
-0.0224511
-0.0333389
0.0332386
-0.0210829
-0.0215137
-0.0330922
0.0329009
-0.0198504
-0.0203207
-0.0327953
0.0328242
-0.0186777
-0.0192115
0.0321541
-0.0182383
0.0189529
-0.0179464
0.0319268
0.0194496
0.0323625
0.0331136
-0.0324224
0.020229
-0.0332822
0.032962
0.0202128
0.0207387
0.0324557
-0.0320463
0.0208393
0.0210338
0.0319778
-0.0318423
0.0215491
0.0210095
0.0316385
-0.0313598
0.0219102
0.0215845
0.0310101
-0.0305849
0.0215529
0.0216466
0.0300972
-0.0295492
0.0200292
0.0207777
0.0289676
-0.0283772
0.0169599
0.0185411
0.0283052
-0.0277525
0.012268
0.0146836
0.0276985
-0.0269522
0.00574065
0.00926155
0.0263858
-0.0259234
-0.000449115
0.00280098
0.0260811
-0.0261593
-0.00746937
-0.00456902
0.0254825
-0.025658
-0.0140298
-0.0109615
0.025982
-0.0264521
-0.0187138
-0.0165108
0.0270569
-0.0277837
-0.0211986
-0.0201233
0.0285945
-0.0297541
-0.0217126
-0.0215138
0.0307209
-0.0320875
-0.021594
-0.0215186
0.0329201
-0.0330395
-0.0221821
-0.0216128
-0.0336901
-0.0223769
-0.0327469
0.0237865
0.0320319
-0.0178241
0.019485
0.0329266
-0.0231959
0.0237358
-0.0336032
-0.0226925
-0.0341935
-0.0240214
0.0240535
-0.0327789
-0.0334525
-0.0320316
0.0312564
0.0242294
0.032418
-0.0327006
0.024069
0.023882
-0.0305931
0.0302012
0.0250074
0.0244722
-0.0297733
0.0294049
0.0246942
0.0249784
-0.0291325
0.0289621
0.0221573
0.0236198
-0.0288918
0.0289188
0.0172443
0.0198717
-0.0290344
0.0292137
0.0105277
0.0139912
-0.0294689
0.0303922
0.00283121
0.00671779
-0.0301734
0.0305898
-0.00498382
-0.00110751
-0.0319612
0.0319236
-0.0120953
-0.0086383
-0.0319968
0.0324633
-0.0176664
-0.0150218
-0.0328853
0.0332532
-0.0212419
-0.019595
-0.0335527
0.0337802
-0.0228411
-0.0221247
-0.0339303
0.0340073
-0.0229373
-0.0228868
-0.0340156
0.0339623
-0.0221355
-0.0224594
-0.0338555
0.0337
-0.0209274
-0.0214069
-0.0335044
0.0332696
-0.0196156
-0.0201251
-0.0329398
0.0325503
-0.0182881
-0.0188817
-0.0180623
0.0186559
0.0313332
-0.017317
0.0312865
-0.0319087
0.0315582
-0.0174737
-0.0175966
0.0326405
-0.032775
0.0203473
0.0321908
0.0199347
-0.0187635
0.0198735
0.0318166
0.0322549
0.0327905
-0.0323291
0.0197675
0.0207542
0.0318283
-0.0317748
0.0207858
0.0205331
0.0316587
-0.0314741
0.0213645
0.0208934
0.0312205
-0.0308912
0.0215809
0.021331
0.0304924
-0.0300202
0.0210806
0.0212478
0.0294903
-0.0289065
0.0194454
0.0202478
0.0282971
-0.027675
0.0163378
0.0179317
0.0270685
-0.0264755
0.011675
0.0140771
0.025955
-0.0259131
0.00569871
0.00874109
0.025488
-0.0249182
-0.00101901
0.00237594
0.0250722
-0.024781
-0.0077605
-0.00441499
0.0248971
-0.0251621
-0.0137649
-0.0108455
0.0255627
-0.0261142
-0.0181623
-0.0161102
0.0268033
-0.0276177
-0.0203842
-0.0194341
0.0285094
-0.0294296
-0.0207924
-0.020622
0.0303166
-0.0311312
-0.0207794
-0.0206316
0.0318548
-0.032636
-0.021401
-0.0208891
0.0331734
-0.0336618
-0.0222041
-0.0218395
-0.0327716
0.0241245
-0.023609
0.0235661
-0.0341505
-0.03426
-0.0230108
0.0232602
-0.0332973
-0.0168801
0.0311213
0.0317285
0.0203358
0.0249547
-0.0242814
-0.0334522
0.024882
-0.0326989
-0.0242072
0.0242085
-0.0341519
-0.0239546
-0.0345126
-0.0344737
0.0320725
-0.0327026
-0.0168435
0.0312734
-0.0160811
0.0199157
-0.0188551
0.030756
0.0199227
0.0317215
-0.0322561
0.0328013
0.0243368
0.0252342
-0.0253111
-0.032622
0.0317749
-0.0281913
0.0254159
-0.0289996
0.024753
-0.0328185
0.0325831
0.0243044
0.0241074
-0.0320065
0.0315213
0.0247147
0.0244585
-0.0310023
0.0305652
0.0254444
0.0249913
-0.0302448
0.0299985
0.0249405
0.0252988
-0.0298448
0.0297868
0.0222153
0.0237735
-0.0298202
0.0299378
0.0171267
0.0198383
-0.03013
0.030385
0.0102727
0.0137989
-0.0307004
0.0310588
0.00247285
0.0064024
-0.0314585
0.0318947
-0.00542005
-0.00150723
-0.0323409
0.0327936
-0.012548
-0.00908446
-0.0332388
0.0336571
-0.0180846
-0.015467
-0.0340218
0.034323
-0.0215431
-0.0199598
-0.0345484
0.0346969
-0.0229896
-0.0223501
-0.0347675
0.0347657
-0.0229356
-0.0229574
-0.0346993
0.0345757
-0.0220119
-0.022393
-0.0344049
0.0341916
-0.0207141
-0.0212361
-0.0339445
0.0336641
-0.0193353
-0.019878
-0.0333721
0.0328574
-0.0177735
-0.0185897
-0.0174418
-0.0173091
0.017621
0.0310213
0.0167863
-0.0165569
0.0308919
0.0307638
0.0310208
0.0323607
-0.0322956
0.0202821
-0.032205
0.0320071
0.0205338
0.0200904
0.0316752
-0.0320068
0.0200991
0.0201338
0.0316593
-0.0315602
0.0206866
0.0201856
0.0313983
-0.0311675
0.0211336
0.0207315
0.0308681
-0.0304934
0.0212062
0.0210316
0.0300514
-0.0295387
0.0205679
0.0208058
0.0289732
-0.0283587
0.0188309
0.0196823
0.0277239
-0.0270785
0.0156923
0.0172969
0.0264537
-0.0258636
0.0110849
0.0134524
0.0253487
-0.0249134
0.00526346
0.00822616
0.0245758
-0.0243537
-0.00124116
0.00203833
0.024261
-0.024286
-0.00773554
-0.00450763
0.0244578
-0.0247782
-0.0134445
-0.0106737
0.0252501
-0.025881
-0.0175314
-0.0156383
0.0266535
-0.0275503
-0.0194875
-0.0186616
0.0285124
-0.0294894
-0.0198154
-0.01966
0.0304131
-0.0312582
-0.0199343
-0.0197079
0.032014
-0.0327116
-0.0207034
-0.0201333
0.0333827
-0.0336989
-0.0218879
-0.0211684
0.0343207
-0.0354251
-0.0228502
-0.022389
-0.0242168
0.0249885
-0.0352843
-0.0359043
-0.0237376
-0.024633
-0.0341304
0.0247036
-0.0337923
-0.0157914
0.0305079
0.0316949
0.0202349
-0.0250059
-0.0358074
0.0251987
-0.034362
-0.0200528
-0.0309384
0.0515266
0.0249009
-0.0245729
-0.0362323
0.0251145
-0.035498
-0.0240749
0.0347011
0.0272452
-0.0248678
0.0224509
-0.0344031
-0.0315217
0.032323
0.0246146
0.0257063
-0.022527
-0.0325648
0.0326658
0.0242358
0.0245113
-0.0324447
0.0321567
0.0245924
0.0243284
-0.0319523
0.03158
0.025087
0.024663
-0.0312289
0.0309815
0.0256918
0.0253423
-0.0307826
0.030661
0.0250621
0.0254977
-0.0306291
0.030686
0.0221583
0.0238055
-0.0308245
0.0310359
0.0169152
0.0196999
-0.03131
0.0316362
0.00994647
0.0135249
-0.032003
0.0324024
0.00207344
0.00603558
-0.0328259
0.0332668
-0.00586103
-0.00193067
-0.0337095
0.0341455
-0.012984
-0.00952713
-0.0345529
0.0349183
-0.0184501
-0.0158743
-0.0352196
0.0354471
-0.0217705
-0.0202611
-0.0355915
0.0356545
-0.0230525
-0.0224945
-0.0356397
0.0355548
-0.0228506
-0.0229426
-0.0354105
0.0352148
-0.0218161
-0.0222488
-0.0349792
0.0347078
-0.0204427
-0.0210005
-0.0344098
0.0340849
-0.0190104
-0.01958
-0.0336697
0.0335269
-0.0176308
-0.0181745
-0.0329377
0.0323201
-0.016226
-0.0168525
-0.0318985
0.0309597
-0.0148525
-0.0156595
-0.0155628
0.0162739
0.0301809
0.0155452
-0.015221
0.0306355
0.0304902
-0.0167381
0.0177473
0.0300121
0.0302995
-0.0185272
0.0189855
0.0302977
0.0302409
-0.0198635
0.0202884
0.03127
0.0308435
0.0321001
-0.0321309
0.0205646
-0.0325707
0.0306678
0.0221913
0.0197643
0.0320948
-0.0321061
0.0202935
0.0200543
0.0316383
-0.0316238
0.0200846
0.019666
0.0315452
-0.0314024
0.0205438
0.0201071
0.0311975
-0.0309235
0.0208596
0.0205267
0.0305825
-0.0301673
0.020791
0.0206906
0.0296875
-0.0291401
0.0200205
0.0203261
0.0285446
-0.0279046
0.0181909
0.0190867
0.0272494
-0.0265887
0.0150317
0.0166418
0.025956
-0.025367
0.0104959
0.0128197
0.0248558
-0.0244295
0.00483722
0.0077149
0.024111
-0.0239129
-0.00143929
0.00171982
0.0238441
-0.0239125
-0.00766721
-0.00457638
0.0241307
-0.0245079
-0.0130673
-0.0104554
0.0250458
-0.0257506
-0.0168266
-0.0151005
0.0265993
-0.0275673
-0.0185195
-0.0178129
0.0285868
-0.0296044
-0.0187978
-0.0186405
0.0305538
-0.0314205
-0.0190676
-0.0187585
0.0322024
-0.0329346
-0.0199712
-0.0193515
0.0336386
-0.0343374
-0.021189
-0.0204643
0.0349877
-0.0353249
-0.022513
-0.0217387
0.0364429
-0.0370694
-0.0239464
-0.0226197
-0.0250316
0.0256802
-0.0368809
-0.0373846
-0.0247164
-0.0251322
-0.0340041
0.0254309
-0.0340246
-0.0240033
-0.0318568
0.025723
-0.0349705
0.0320717
-0.0324464
-0.0144778
0.031071
-0.0142204
0.0206039
-0.019694
0.03036
0.0203967
0.0308751
-0.0244685
-0.0293241
0.0259297
-0.0357475
-0.0396748
0.00372678
-0.0290275
0.0312895
0.0249832
-0.0256762
0.0258572
-0.0370618
-0.0249033
-0.0381575
-0.0282092
0.0216327
-0.0341043
-0.0317699
0.0320533
0.0243313
0.0252259
-0.0321716
0.031951
0.0244565
0.0243929
-0.0319182
0.0319358
0.0245748
0.0243612
-0.0318637
0.0317317
0.025219
0.0247351
-0.031584
0.0314542
0.0258215
0.02549
-0.0313818
0.0313877
0.0250561
0.0255702
-0.0314789
0.0316523
0.0219849
0.0237143
-0.0318973
0.032205
0.0166075
0.0194549
-0.0325612
0.0329564
0.0095513
0.0131687
-0.0333758
0.0338146
0.00163462
0.00561617
-0.0342607
0.03471
-0.00631036
-0.00237678
-0.0351463
0.0355592
-0.0133969
-0.00996342
-0.0359263
0.0362348
-0.0187585
-0.0162415
-0.0364658
0.036612
-0.0219167
-0.0204921
-0.0366688
0.0366406
-0.0230242
-0.0225514
-0.036536
0.0363646
-0.0226792
-0.0228381
-0.0361404
0.0358713
-0.021547
-0.0220246
-0.0355706
0.0352413
-0.0201134
-0.0206998
-0.0348931
0.0345241
-0.0186414
-0.0192318
-0.0341423
0.0337454
-0.0172339
-0.0177927
-0.0333208
0.0328276
-0.0157328
-0.0164279
-0.0152782
-0.0153059
0.0155751
0.0299117
0.0147431
-0.0144339
0.0303263
0.0299274
-0.0164208
0.0170473
0.0293856
0.0294538
-0.0181026
0.0191408
0.0292595
0.0291856
0.0302904
0.0320303
-0.0320383
0.0205726
-0.0310913
0.0318591
0.0214235
0.0207033
0.032074
-0.0316252
0.0198447
0.02009
0.0316524
-0.0316019
0.020034
0.0196932
0.0314848
-0.0313013
0.0203603
0.01999
0.0310561
-0.0307421
0.0205456
0.0202815
0.0303632
-0.029912
0.0203398
0.0203116
0.0293996
-0.028823
0.0194439
0.0198137
0.0282028
-0.0275429
0.017531
0.0184666
0.0268733
-0.0262038
0.0143622
0.0159721
0.0255689
-0.0249829
0.00991
0.0121847
0.0244779
-0.0240634
0.00442272
0.00720989
0.0237635
-0.0235859
-0.00161686
0.0014199
0.0235461
-0.0236525
-0.00756072
-0.00461627
0.0239158
-0.0243474
-0.0126357
-0.0101921
0.0249484
-0.0257229
-0.016052
-0.0144995
0.0266408
-0.0276691
-0.0174912
-0.016895
0.0287318
-0.0297746
-0.0177551
-0.0175778
0.0307374
-0.0316172
-0.0181878
-0.0177956
0.0324207
-0.0331866
-0.0192053
-0.018548
0.0339325
-0.0346781
-0.0204434
-0.0197185
0.0354228
-0.0361747
-0.021761
-0.020994
0.036439
-0.0372375
-0.0231479
-0.0223554
0.0382317
-0.0388628
-0.0242722
-0.0237222
-0.0253524
0.0256662
-0.0384713
-0.0397339
-0.0244813
-0.0254085
-0.0325989
0.0258953
-0.0341969
-0.013684
0.0303212
0.031175
0.0210808
-0.0252489
-0.0310764
-0.0290964
-0.0367088
-0.026497
-0.0319235
0.0261506
-0.0351914
0.0262803
-0.0361706
-0.0395869
0.0151045
-0.0229245
0.0172015
-0.033864
-0.0261456
-0.0334877
0.0259756
-0.0373712
-0.0254747
0.0254786
-0.0384752
-0.0247193
-0.0404894
-0.0336175
-0.0283955
0.0298599
0.0235187
0.0285033
-0.0316987
0.0182999
0.0217405
-0.0307756
0.031059
0.0240479
0.0243102
-0.0314629
0.0317698
0.0241496
0.023989
-0.0319668
0.0320589
0.0244826
0.0241642
-0.0320688
0.0320307
0.0252571
0.0247252
-0.0319887
0.0319808
0.0258294
0.025532
-0.0320364
0.0321713
0.0249212
0.0255146
-0.0323867
0.0326775
0.0216942
0.023499
-0.0330297
0.0334333
0.0162039
0.0191027
-0.0338708
0.0343331
0.00908891
0.0127312
-0.0348048
0.0352819
0.0011576
0.00514446
-0.0357513
0.0362086
-0.00676768
-0.00284617
-0.0366361
0.0370222
-0.013783
-0.0103909
-0.0373446
0.0375904
-0.0190043
-0.016564
-0.0377444
0.0378024
-0.0219747
-0.020646
-0.0377655
0.0376412
-0.0228999
-0.0225146
-0.0374433
0.0371832
-0.022419
-0.0226402
-0.0368781
0.0365356
-0.0212046
-0.0217194
-0.0361706
0.0357847
-0.0197274
-0.0203348
-0.0353883
0.0349784
-0.0182315
-0.0188354
-0.0345622
0.0341339
-0.0168055
-0.0173764
-0.0337019
0.033417
-0.0154479
-0.015996
-0.0328143
0.0322928
-0.0139563
-0.0146755
-0.0313508
0.0307219
-0.0130552
-0.0132783
-0.0135238
0.0142096
0.0296405
0.0135945
-0.0127662
0.0298936
0.0303919
-0.0147409
0.0155389
0.0291137
0.029396
-0.0162033
0.0168415
0.0287474
0.0287895
-0.0174394
0.0179883
0.0287107
0.0285877
-0.0190412
0.0197354
0.0296658
0.0292374
-0.0202027
0.02052
0.0308578
0.0304078
0.0319052
-0.031754
0.0212723
-0.0316803
0.0309797
0.0212206
0.0213057
0.0317906
-0.0319029
0.0206849
0.0207398
0.0316378
-0.0317203
0.0199272
0.0198249
0.0317156
-0.0316318
0.0199503
0.0196885
0.0314781
-0.0312562
0.0201383
0.0198363
0.030973
-0.030622
0.0201946
0.0199983
0.0302088
-0.0297259
0.0198569
0.0198984
0.0291855
-0.0285848
0.0188432
0.0192733
0.0279454
-0.0272712
0.0168568
0.0178272
0.0265925
-0.0259193
0.013689
0.0152934
0.0252861
-0.024706
0.00932991
0.0115514
0.02421
-0.023809
0.00402175
0.00671389
0.0235265
-0.0233716
-0.0017718
0.00113743
0.02336
-0.0235023
-0.00741843
-0.00462786
0.0238088
-0.0242935
-0.012151
-0.0098856
0.0249554
-0.0257955
-0.0152119
-0.0138376
0.0267746
-0.0278504
-0.0164154
-0.015916
0.02894
-0.0299913
-0.0167038
-0.0164881
0.0309541
-0.0318376
-0.0173043
-0.0168328
0.0326567
-0.0334514
-0.0184106
-0.0177289
0.034235
-0.0350249
-0.0196535
-0.0189348
0.0358164
-0.0366187
-0.0209587
-0.0202025
0.037428
-0.0382525
-0.0223234
-0.0215461
0.0390808
-0.0397554
-0.0235977
-0.0228938
0.0404489
-0.0410753
-0.0240929
-0.0237877
-0.0248832
0.0248665
-0.0404727
-0.0416986
-0.0242599
-0.0259727
-0.0318752
-0.0318478
0.0173507
-0.0262028
-0.0313707
0.0314842
-0.0323019
-0.0122376
0.0307995
-0.0120815
0.0204374
-0.019557
0.0299774
0.0206019
0.0308152
0.0262394
-0.0342857
0.0264149
-0.035326
-0.025423
-0.032646
0.0263864
-0.0365814
0.0261115
-0.0380041
0.0255445
-0.0391532
-0.0242101
0.0244726
-0.0407352
-0.024038
-0.0418707
-0.0333508
-0.0288952
0.027641
0.0195541
0.0162487
-0.01809
-0.0300065
0.0294894
-0.0298478
0.0166072
0.0179448
-0.02797
0.0293062
0.0221826
0.0214115
-0.0303543
0.0309292
0.023473
0.023262
-0.0314093
0.0317852
0.0237737
0.0235089
-0.0320518
0.0322198
0.0243146
0.0238976
-0.032314
0.0323735
0.0251976
0.024631
-0.0324418
0.0325564
0.0257148
0.0254637
-0.03274
0.0330039
0.0246573
0.025331
-0.0333432
0.033751
0.0212864
0.0231596
-0.0342092
0.0347068
0.0157062
0.0186444
-0.035224
0.0357523
0.00856057
0.0122141
-0.0362758
0.0367909
0.000642489
0.004621
-0.0372835
0.0377478
-0.00723197
-0.00333877
-0.0381641
0.0385194
-0.0141382
-0.0108072
-0.0387914
0.0389679
-0.0191807
-0.016836
-0.039038
0.0390013
-0.021938
-0.0207161
-0.0388654
0.0386412
-0.0226757
-0.0223787
-0.0383479
0.0379983
-0.0220694
-0.022347
-0.0376127
0.0371983
-0.0207902
-0.0213338
-0.0367707
0.0363305
-0.0192872
-0.0199072
-0.0358882
0.0354394
-0.0177826
-0.0183932
-0.0349914
0.0345371
-0.0163512
-0.0169285
-0.0340837
0.0336253
-0.0149895
-0.0155426
-0.033155
0.0327707
-0.013572
-0.0142052
-0.0128095
-0.0133183
0.0137429
0.0292159
0.0122786
-0.0121633
0.0297783
0.0293522
-0.0145436
0.0152222
0.0284351
0.0285953
-0.0158647
0.0164672
0.028145
0.0281469
-0.0170176
0.0175133
0.028215
0.0280372
-0.0184499
0.0189794
0.0291363
0.0283008
0.0298302
0.0320522
-0.03226
0.0214801
-0.0318328
0.0318029
0.0212505
0.021525
0.0319534
-0.0316922
0.0204236
0.0204333
0.0318155
-0.0318624
0.0199741
0.0199482
0.0318269
-0.031711
0.0198344
0.019653
0.0315231
-0.0312653
0.0198806
0.0196484
0.0309466
-0.0305613
0.0198093
0.0196796
0.030117
-0.0296062
0.0193461
0.0194541
0.0290422
-0.0284222
0.0182231
0.0187093
0.0277685
-0.0270849
0.0161733
0.0171735
0.026402
-0.0257294
0.0130165
0.0146105
0.0251011
-0.0245295
0.00875832
0.0109231
0.024045
-0.023659
0.00363578
0.00622939
0.0233947
-0.0232627
-0.00190376
0.000873101
0.0232782
-0.023456
-0.00724063
-0.00461243
0.0238055
-0.0243428
-0.0116137
-0.00953608
0.0250644
-0.0259659
-0.0143104
-0.013116
0.0269966
-0.0281052
-0.0153068
-0.0148853
0.0292045
-0.0302485
-0.0156598
-0.0153888
0.0311996
-0.032079
-0.0164248
-0.0158817
0.0329074
-0.0337235
-0.0175945
-0.0169005
0.0345363
-0.0353608
-0.0188289
-0.0181221
0.0361925
-0.0370434
-0.0201079
-0.0193709
0.0379097
-0.0388
-0.0214331
-0.0206798
0.0397013
-0.0406107
-0.0226882
-0.0219925
0.0412717
-0.0417649
-0.0235997
-0.0231268
0.0425797
-0.0433887
-0.023229
-0.0234451
0.0216628
-0.0204482
-0.0347023
-0.0302912
-0.0230183
0.0234241
-0.0422765
-0.0435184
-0.0228886
-0.0262405
-0.0318375
-0.01133
0.0299662
0.0320588
0.0203459
-0.0165502
-0.028171
0.0148734
0.0264015
-0.0342724
-0.0176286
-0.0289281
-0.0258323
-0.0309614
0.0264129
-0.0353525
-0.0240574
-0.0290369
0.0261646
-0.0366344
0.0256079
-0.0380674
0.0247159
-0.0393965
0.0232438
-0.040555
-0.0218279
0.0216764
-0.0421249
-0.021663
-0.0436834
-0.0331898
-0.0279623
0.027616
0.0169534
0.0120442
-0.0264584
-0.0137567
0.0278738
-0.0260144
0.0101847
0.0147849
-0.0277599
0.0279101
0.019404
0.0178009
-0.0285564
0.0290637
0.0216753
0.0207652
-0.0301128
0.0308514
0.0227344
0.0222129
-0.0313975
0.0318349
0.0233364
0.0229628
-0.032166
0.0324086
0.024072
0.0235665
-0.0325901
0.0327516
0.0250362
0.0244495
-0.0329338
0.033172
0.0254766
0.0252815
-0.0334832
0.0338748
0.0242658
0.0250198
-0.0343366
0.0348592
0.0207638
0.0226979
-0.0354213
0.0360108
0.0151167
0.0180824
-0.036606
0.0371996
0.00796702
0.0116188
-0.0377748
0.0383281
8.91508e-05
0.00404583
-0.0388434
0.039313
-0.00770151
-0.00385409
-0.0397147
0.0400338
-0.0144573
-0.011209
-0.0402486
0.0403485
-0.0192806
-0.0170508
-0.0403277
0.0401905
-0.0218007
-0.0206954
-0.0399512
0.0396248
-0.0223492
-0.0221395
-0.0392355
0.0387974
-0.0216313
-0.0219577
-0.0383333
0.0378496
-0.0203065
-0.0208697
-0.0373626
0.0368711
-0.0187958
-0.0194202
-0.036386
0.0359012
-0.0172979
-0.0179081
-0.0354242
0.0349466
-0.0158737
-0.0164514
-0.0344749
0.0340011
-0.0145157
-0.0150708
-0.0335333
0.0331401
-0.0131787
-0.0137373
-0.0327534
0.0321768
-0.011661
-0.0124228
-0.0311368
0.03049
-0.0106831
-0.0110415
-0.0113186
0.0119839
0.0291129
0.0111073
-0.0103048
0.0296875
0.0297549
-0.0125785
0.013446
0.0283484
0.0287577
-0.0141071
0.0147317
0.0278105
0.0279342
-0.0153078
0.0158332
0.0276196
0.0275709
-0.0163003
0.0167087
0.0278065
0.0275701
-0.0170534
0.0177956
0.0283941
0.0279562
-0.0181935
0.0184161
0.0297547
0.0294324
-0.0184233
0.0188395
0.0316426
0.030808
0.0324945
-0.0322874
0.0210434
-0.0325983
0.0325937
0.0188441
0.0202421
0.0322123
-0.0316859
0.0209537
0.02145
0.0318367
-0.0319646
0.0205515
0.0205841
0.0320412
-0.0320511
0.019984
0.0200248
0.0319835
-0.0318363
0.0196872
0.0195854
0.0316165
-0.0313255
0.0195896
0.0194285
0.0309739
-0.0305572
0.0193926
0.019328
0.0300848
-0.0295496
0.0188109
0.0189816
0.0289659
-0.0283308
0.017588
0.0181256
0.0276672
-0.0269786
0.0154847
0.0165098
0.0262955
-0.0256271
0.0123481
0.0139274
0.0250066
-0.0244459
0.00819764
0.0103026
0.0239748
-0.0236051
0.00326604
0.0057583
0.0233597
-0.0232507
-0.00201279
0.000627741
0.0232946
-0.0235073
-0.00702795
-0.00456852
0.0239011
-0.0244923
-0.0110224
-0.00914229
0.0252728
-0.02623
-0.0133532
-0.0123355
0.0273005
-0.0284248
-0.0141826
-0.0138147
0.0295159
-0.0305379
-0.0146378
-0.0142977
0.0314678
-0.0323373
-0.0155554
-0.0149518
0.0331695
-0.0339995
-0.0167645
-0.0160683
0.0348316
-0.0356793
-0.0179812
-0.01729
0.0365384
-0.0374229
-0.0192234
-0.0185118
0.0383298
-0.0392696
-0.0204933
-0.0197729
0.0402316
-0.0412151
-0.0217047
-0.0210305
0.0421986
-0.0431634
-0.0226349
-0.0221433
0.0438226
-0.0442092
-0.0228425
-0.0227858
0.044696
-0.0446806
-0.0216784
-0.0224017
0.021941
-0.021853
-0.0347903
-0.0259789
-0.0199379
0.0198761
-0.0436216
-0.0452859
-0.0193326
-0.025999
-0.0316708
0.0262795
-0.034139
-0.00945566
-0.0243331
0.00777437
-0.0244707
-0.0114434
-0.0174252
-0.0252596
-0.0249646
-0.0300542
0.0260539
-0.0352418
0.0315227
-0.0320456
-0.0101602
0.0305862
-0.00936828
0.0170367
-0.0168376
0.0314435
0.0172697
0.0323608
-0.0226248
-0.0282651
0.0255054
-0.0365319
0.0246024
-0.0379539
0.0233247
-0.0394773
0.0217085
-0.0405871
0.0193272
-0.041576
0.0057791
-0.0228475
-0.00726475
-0.0225073
0.0241379
0.00414848
-0.00281703
-0.0218427
0.00215245
-0.0175848
-0.0426391
0.0166023
-0.0181992
-0.0446714
-0.0219564
-0.00370814
-0.0329092
-0.0234831
0.0232887
0.0103792
0.00842923
-0.0249049
0.0262509
0.0156073
0.0131687
-0.026781
0.0274448
0.0187402
0.0172709
-0.0283997
0.0292931
0.0207819
0.0198102
-0.0301032
0.030817
0.0220206
0.0214028
-0.0314166
0.0319075
0.0228454
0.0223631
-0.0322981
0.0326132
0.0237569
0.023176
-0.0328832
0.0331498
0.0247696
0.0241794
-0.0334491
0.0338126
0.0251131
0.0249821
-0.0342513
0.0347694
0.0237477
0.024581
-0.0353516
0.0359871
0.0201283
0.0221156
-0.0366507
0.0373304
0.014437
0.0174187
-0.0380033
0.0386621
0.00730821
0.0109459
-0.0392893
0.0398807
-0.00050223
0.00341866
-0.0404174
0.0408891
-0.00817324
-0.0043908
-0.0412712
0.0415472
-0.0147333
-0.0115911
-0.0416969
0.0417121
-0.0192958
-0.0172005