/*--------------------------------*- C++ -*----------------------------------*\
  =========                 |
  \\      /  F ield         | OpenFOAM: The Open Source CFD Toolbox
   \\    /   O peration     | Website:  https://openfoam.org
    \\  /    A nd           | Version:  10
     \\/     M anipulation  |
\*---------------------------------------------------------------------------*/
FoamFile
{
    format      ascii;
    class       surfaceScalarField;
    location    "40";
    object      phi;
}
// * * * * * * * * * * * * * * * * * * * * * * * * * * * * * * * * * * * * * //

dimensions      [0 3 -1 0 0 0 0];

internalField   nonuniform List<scalar> 
12623
(
0.095284
0.0218347
-0.0347174
-0.0824014
0.0741023
-0.03662
0.0578018
0.0751173
-0.00115325
-0.0697281
-0.00423591
-0.00467869
0.0752043
0.00459165
-0.0737221
0.00745037
-0.0063416
0.0726133
-0.0730474
-0.00535344
-0.000339085
0.0423402
-0.0484543
0.0064532
-0.0475477
0.0472086
-0.00351949
-0.00683023
0.0103497
-0.00033112
-0.00795368
0.00476532
0.0979914
-0.0422028
-0.0557886
-0.0636647
0.0536695
0.107987
-0.0277983
-0.0182291
0.0205317
0.0254956
0.003251
0.00527796
-0.0363273
-0.0240382
0.00906015
0.00997383
-0.000980214
-0.0128371
0.00384346
-0.00251178
-0.0104045
0.0228901
-0.00308864
-0.000403359
-0.00245395
-0.0138398
0.00337831
0.0129154
-0.0258551
0.0044801
0.018921
-0.0211499
-0.0185449
0.000659862
0.00818766
-0.00920427
0.000356744
0.000286389
-0.00336206
0.00373553
-0.0143165
0.0227906
-0.0432821
0.00486886
0.0436912
0.00685319
-0.0489282
-0.00120701
-0.0555672
0.00490323
0.0555328
-0.0857437
-0.0279747
0.0287981
0.0849203
-0.0861996
0.0302946
-0.0298387
-0.0874908
0.084456
0.0276309
-0.0245961
-0.0857676
-0.0296979
-0.0771632
0.0126404
-0.0106108
0.0751336
-0.00836878
-0.0746432
0.00584879
0.0742859
-0.0814682
0.0133929
-0.0132235
0.0812987
-0.0125731
-0.0783283
0.00943322
-0.080549
-0.0112885
0.0792643
-0.0764559
0.00854733
0.0825316
-0.0160944
-0.0857937
0.0193565
-0.0132782
0.0216599
0.0741498
-0.0828329
-0.0155367
0.0822752
-0.0809728
0.0115328
-0.023825
0.0257826
0.0824984
-0.0750723
0.000442632
0.00158681
0.0730429
0.00475268
-0.0748154
-0.00500959
-0.000887614
-0.073313
-0.0728091
-0.00291083
0.0703665
-0.0732541
0.000141278
-0.0722243
-0.00448855
0.0765715
0.0580128
0.0155164
-0.0733879
-0.0529426
0.0101446
0.100811
-0.0319674
0.0909192
-0.0725472
0.0135954
-0.0693936
0.074536
0.0166652
-0.0152052
-0.0759961
0.0191754
0.0728158
-0.0174552
-0.0107358
0.0072205
0.080794
-0.0772788
-0.0830544
0.0827727
-0.010454
0.0816285
-0.00828349
0.00921455
-0.0825595
0.0825951
-0.0809045
0.0360781
-0.0377686
0.0398774
0.0834416
-0.040724
-0.0787707
0.0291293
-0.0312631
-0.0746867
0.0187632
-0.0228472
-0.070914
0.00532323
-0.0090959
-0.0682212
-0.00931288
0.00662013
-0.066318
-0.0238556
0.0219524
-0.0668237
-0.0352128
0.0357185
-0.0674657
-0.0420798
0.0427218
-0.0442828
-0.069182
0.0459991
0.0821848
-0.0797035
0.0373962
0.0407755
0.0849457
-0.0422795
0.0841351
0.0388251
-0.0774931
0.0338677
-0.0737926
0.0254287
-0.0700789
0.0150495
-0.0671449
0.00238919
-0.0649124
-0.0115454
-0.0645487
-0.0242194
-0.0648914
-0.03487
-0.0672873
-0.039684
-0.0694924
-0.0420776
-0.0382954
0.0846421
0.0377885
0.0854314
-0.0387811
-0.0438297
-0.0717048
0.0463526
-0.0734788
-0.0398433
-0.0358729
0.0848186
0.0356964
0.0870115
-0.0374531
-0.0426253
-0.0738922
0.0448127
-0.0751621
-0.040942
-0.0332456
0.0850772
0.032987
-0.0324337
-0.0433071
-0.0745595
0.0439744
-0.0772898
-0.0411793
0.085026
0.0303457
0.0299554
0.0838687
-0.0456132
0.0450858
-0.074032
-0.043649
-0.079254
0.0814119
-0.083494
0.0350691
-0.0760134
0.076936
0.0290329
0.0357442
0.0835415
-0.0817606
0.0360076
0.0357438
0.079186
-0.0761477
0.0343579
0.0362505
0.0732194
-0.0695822
0.0217915
0.0309395
0.0668737
-0.0642765
-0.000207988
0.0123409
0.0636145
-0.0634001
-0.0244338
-0.0122074
0.0660352
-0.0683758
-0.0373434
-0.0322349
0.0723845
-0.074931
-0.0372968
-0.0380689
0.0781699
-0.0794649
-0.0398843
-0.0377032
-0.0816111
-0.0415028
-0.0727125
0.0727967
0.0447284
0.0732664
0.0443126
-0.0724932
0.0445283
-0.0708881
0.0705057
0.0463815
0.0482612
-0.0696994
0.0708985
0.0345194
0.0435281
-0.0731016
0.0753694
0.00435233
0.0197493
-0.080323
0.081646
-0.0241701
-0.0140495
-0.086548
0.0850585
-0.0362791
-0.0361651
-0.0874049
0.0837149
-0.0385895
-0.0430704
-0.0853463
0.0839384
-0.0360451
-0.0404125
-0.0863531
-0.0292532
-0.0348484
-0.0287617
0.0293906
0.0832397
0.0837896
0.0342159
0.0721107
0.0446281
-0.0830833
-0.0431559
0.0445719
-0.0791978
-0.0719578
0.0741702
0.0421001
0.04453
-0.0453695
-0.0716537
-0.0698422
0.0424144
-0.0444953
0.044537
-0.083125
-0.0853083
0.0828574
-0.0407051
-0.0428034
-0.0870002
0.0843432
-0.0832412
-0.0256981
0.0759954
-0.0806271
0.0336646
0.0758179
0.0343933
0.0814078
-0.0208896
-0.0748297
0.0795109
-0.0795856
0.0351439
0.034628
0.0788428
-0.0772519
0.0344168
0.035001
0.0755263
-0.0719649
0.0307965
0.0345248
0.0682854
-0.0658307
0.0193369
0.02726
0.0634708
-0.0623243
-0.00135447
0.00998101
0.0618753
-0.0632738
-0.0230353
-0.0126564
0.0656133
-0.0692244
-0.0337323
-0.0298954
0.0727144
-0.0756691
-0.0343421
-0.0345789
0.0782524
-0.0808892
-0.0372475
-0.0351198
-0.0395346
-0.0760508
0.0760255
0.0447537
0.0426477
-0.076659
0.0757895
0.047251
0.0476277
-0.0759604
0.0763555
0.0341242
0.0433572
-0.0779441
0.0809058
0.00139058
0.0181608
-0.081392
0.0854673
-0.0282455
-0.0145357
-0.0835519
0.0873274
-0.0400545
-0.0342498
-0.0829897
0.0847068
-0.0403066
-0.0387327
-0.0817003
0.0809037
-0.0352486
-0.037406
-0.0800436
0.0844757
-0.0336853
-0.0339883
-0.0284633
-0.0278307
0.0373775
0.0736929
0.0817415
-0.0353733
0.0748904
0.0363009
0.074115
-0.0435883
0.0395544
-0.0658083
-0.0445607
-0.0706812
0.0445396
-0.0792005
-0.0879666
0.0844626
-0.0372011
-0.0906113
-0.0401587
0.0444852
-0.0434698
-0.0880155
0.0440976
-0.0827374
-0.0641664
0.0683188
0.035402
0.0349343
-0.0368536
-0.0638891
-0.0600894
0.0308574
-0.0178224
0.024783
0.0755377
0.0782082
-0.0146227
0.0276138
-0.0288155
0.0760921
0.0772337
-0.0765665
0.0356337
0.0792642
0.0255834
-0.081633
-0.0187967
0.07954
-0.0789492
-0.0283819
-0.0748508
0.0768488
-0.0779628
0.0347785
0.0346757
0.0789984
-0.0788772
0.0350227
0.0356635
0.0781134
-0.076638
0.0329414
0.0342371
0.0727872
-0.0710562
0.0290656
0.030674
0.0670893
-0.0647743
0.0170218
0.0232931
0.0623649
-0.0611409
-0.00257846
0.00757166
0.0612308
-0.0623669
-0.0218993
-0.0125665
0.0655122
-0.0688077
-0.0304368
-0.0267501
0.0733246
-0.075854
-0.0318127
-0.030062
0.0788639
-0.0807963
-0.035315
-0.0321099
-0.0358684
-0.0728819
0.0754055
0.0395765
0.0378514
-0.0770906
0.0781536
0.0436908
0.0409626
-0.079901
0.0788196
0.0483323
0.0458803
-0.0807372
0.081612
0.0332493
0.0414397
-0.0833128
0.0852837
-0.000580242
0.01646
-0.0867443
0.0875653
-0.0290664
-0.0159963
-0.0875102
0.0867091
-0.0392535
-0.0341946
-0.0853919
0.083751
-0.0386657
-0.0374155
-0.0812755
0.0812083
-0.0351813
-0.0349306
-0.079046
0.077029
-0.0316684
-0.0318259
-0.0303836
-0.0286131
0.029578
0.0727281
0.0779114
0.0748775
-0.0927244
-0.0413568
-0.0401176
-0.0674173
0.0425339
-0.0776367
-0.0258317
0.0222994
-0.0565572
-0.0299987
-0.059722
0.042039
-0.0425374
-0.0875172
0.0405934
-0.0812917
0.0213696
-0.0223814
0.0771039
0.0187835
0.0818502
-0.0143403
0.0207969
0.0690811
-0.0106715
0.0745394
0.0722658
-0.0751085
-0.0255392
-0.0213784
0.0748476
0.0813942
-0.0790749
0.0333143
0.082905
0.0240726
-0.0940781
-0.0411836
0.0375634
-0.038638
-0.0930036
0.0356677
-0.0856215
0.077479
-0.0125616
-0.0724344
0.0791895
-0.08136
0.0369491
0.0347902
0.0809322
-0.0802902
0.0343807
0.0352358
0.0772162
-0.075169
0.0308941
0.0311631
0.0723777
-0.0692842
0.0259721
0.0278827
0.0663503
-0.0636658
0.0143373
0.0203592
0.0617032
-0.0606868
-0.00359478
0.005609
0.0610052
-0.0628521
-0.0200523
-0.0122482
0.0658686
-0.0696039
-0.0267015
-0.0237336
0.0730704
-0.0761626
-0.0287205
-0.0265956
0.0789158
-0.0819887
-0.0322422
-0.0293567
0.0850517
-0.0884192
-0.0338336
-0.0328054
0.0919001
-0.0966754
-0.0365814
-0.0366778
0.098578
-0.101732
-0.0354839
-0.0392811
-0.0647585
0.068869
0.0312915
0.0596451
-0.0553913
0.0180457
0.0257439
-0.0726491
0.0760775
0.0361481
0.0340713
-0.0786824
0.0789169
0.0434563
0.0383576
-0.0809383
0.0825351
0.0467355
0.0438589
-0.0842974
0.0865142
0.0310324
0.0396775
-0.0887714
0.0908808
-0.00268966
0.0142028
-0.0920597
0.092188
-0.0291948
-0.0171752
-0.0913227
0.0896436
-0.0375744
-0.0333293
-0.0876175
0.0852783
-0.0363265
-0.0353895
-0.0835321
0.0805605
-0.0322097
-0.0331843
-0.0789206
0.0765195
-0.0292672
-0.0301861
-0.0289725
-0.0257851
0.0245444
0.0739688
0.0729232
0.0770405
0.0110552
-0.0145252
-0.0530873
-0.0518974
0.0075613
-0.0295148
0.027736
-0.0912248
-0.101293
-0.0299537
-0.0336211
-0.0637949
0.0374564
-0.0744998
0.0190604
0.0826281
-0.00625955
0.073067
0.0737704
-0.0744779
-0.0248317
0.0727063
-0.0203143
-0.018658
-0.0555892
0.0324326
-0.0780567
0.0016395
-0.0032339
-0.050303
-0.000917582
-0.0505302
0.024172
-0.0820575
-0.0190106
0.0142118
-0.086426
-0.0216848
-0.0986189
0.0760919
-0.013806
-0.0685991
0.0871436
-0.0852561
0.0314268
-0.0853598
0.0867257
0.0176945
0.0258564
0.086017
-0.0843066
0.0352386
0.0355512
0.0826568
-0.0804123
0.0321363
0.033586
0.0780365
-0.0752161
0.0280737
0.0287873
0.0722362
-0.0690182
0.0227541
0.0249029
0.0660361
-0.0633886
0.0116898
0.0173772
0.0615693
-0.060816
-0.00434809
0.00378973
0.0614743
-0.0636592
-0.0178674
-0.0115898
0.0668209
-0.0704388
-0.0230836
-0.0205719
0.0736169
-0.0765016
-0.0258357
-0.0234175
0.0792588
-0.0824237
-0.0290774
-0.0265995
0.08603
-0.0883782
-0.0314854
-0.0291991
0.0934475
-0.0963487
-0.0336802
-0.0316085
0.102315
-0.106256
-0.0315431
-0.0333149
0.108035
-0.107169
-0.022551
-0.0281739
-0.0552488
0.0598379
0.0134566
0.0522493
-0.0518489
-0.00363436
0.00456182
-0.0644815
0.069515
0.026258
0.0211003
-0.0738651
0.0758732
0.03414
0.0297212
-0.0788015
0.0810412
0.0412166
0.0354293
-0.083165
0.0856033
0.0442973
0.041735
-0.0882089
0.0912648
0.0279766
0.0370718
-0.0940535
0.0962346
-0.0048708
0.0114142
-0.0970017
0.0963243
-0.0285174
-0.0179423
-0.0945968
0.0920843
-0.0350618
-0.0316018
-0.0894468
0.0866278
-0.0335075
-0.032752
-0.083676
0.0819177
-0.0304514
-0.0302325
-0.0795057
0.0770878
-0.0268493
-0.0277742
-0.0263626
-0.0125077
0.0135087
-0.0513041
-0.0541227
-0.0102338
-0.00913246
0.00256643
-0.0920529
-0.10285
-0.0134514
0.0745851
-0.0159151
-0.00626115
0.00880732
0.0705208
0.0699107
-0.0157236
0.0144148
0.0703899
0.0676231
-0.0159309
0.016113
0.0737867
0.0714071
-0.0152956
0.0134415
0.078958
0.0778578
-0.0116212
0.0102996
0.0839497
0.0836705
0.0095254
0.0874999
-0.0234196
-0.0590333
0.0281617
-0.0702288
-0.00473494
-0.0517718
0.0193329
-0.0732176
0.0126653
-0.0496867
0.00830434
-0.07615
0.018164
-0.0136045
-0.0586822
0.0215711
-0.0547112
-0.00402401
-0.0798356
-0.00502919
-0.00210895
-0.0957122
-0.0138831
-0.083199
0.0888313
-0.0887436
0.0176068
0.0900678
0.00828892
-0.0638569
0.0882077
-0.0881702
0.0313893
0.0253206
0.0868894
-0.086091
0.0344402
0.0342704
0.083392
-0.0808385
0.0295827
0.030887
0.0782459
-0.0753056
0.0251334
0.0261947
0.0722633
-0.0690401
0.0195309
0.0218605
0.0661073
-0.063574
0.00915656
0.0144444
0.0619667
-0.0615418
-0.00477306
0.00218242
0.0625769
-0.0650374
-0.0154069
-0.0105547
0.0681692
-0.0714494
-0.0198033
-0.0174402
0.074235
-0.0769041
-0.0231667
-0.0206319
0.0796274
-0.0827416
-0.0259632
-0.0238762
0.0859494
-0.0895069
-0.0279278
-0.0259912
0.0933513
-0.0977545
-0.029277
-0.0277641
0.102838
-0.106716
-0.0276651
-0.0282318
0.109334
-0.111577
-0.0203082
-0.0255556
0.110784
-0.107292
-0.00560128
-0.0142439
-0.0553376
0.0544646
-0.00276131
0.0586139
-0.0626017
-0.00961669
-0.00695753
-0.055986
0.0596046
0.00983798
0.00304037
-0.0646179
0.0685204
0.0223555
0.0160871
-0.0729939
0.0765683
0.0305656
0.0252477
-0.0794178
0.0822051
0.0384293
0.0325798
-0.0849188
0.0881155
0.0411006
0.0390213
-0.0915848
0.0955384
0.0240229
0.0336025
-0.0988115
0.100901
-0.00696067
0.00814109
-0.101103
0.0995889
-0.0270032
-0.018144
-0.0970799
0.093902
-0.031884
-0.0290928
-0.0908128
0.0876519
-0.0303466
-0.0296628
-0.0848809
0.0822174
-0.0277879
-0.0274615
-0.0793448
0.0772846
-0.0247891
-0.0249016
-0.0745708
0.0717208
-0.0219817
-0.0236488
-0.0713034
0.0708616
-0.0154734
-0.0198969
-0.00740206
-0.00311236
0.00586361
0.0677695
-0.000658463
0.0707905
0.0661399
-0.00581392
0.00577377
0.07043
0.0676728
-0.00577879
0.00409233
0.0754732
0.0714021
-0.00429116
0.00134195
0.0819072
0.077659
-0.00145566
-0.00093569
0.086341
0.0835568
-0.016127
0.0205198
-0.063075
-0.065751
-0.0129778
0.0105175
-0.0192286
-0.0870012
-0.10106
0.0042863
0.000819822
-0.000561466
0.0898094
0.087384
-0.0092011
-0.0545672
0.0141647
-0.0650607
0.0107336
-0.0498402
0.00202398
-0.0669372
0.0238922
-0.0520079
-0.0113007
-0.0688733
0.0254892
-0.0596806
-0.0227051
-0.0710136
0.0192791
-0.016908
-0.0681221
0.0226113
-0.0664071
-0.0290267
-0.0734009
-0.0191596
-0.0926899
0.010789
-0.0303146
-0.0758462
-0.0701199
0.0677171
-0.0145052
-0.0203497
0.0231729
-0.0709453
-0.0725938
-0.0178757
0.0172119
-0.0262799
-0.0836219
-0.104166
0.109138
0.00581705
-0.097847
0.0108933
0.0935073
-0.09253
-0.00153886
-0.0121809
0.011134
0.0908564
0.0888806
-0.00755413
-0.0588933
0.0916581
-0.0928827
0.0188314
0.00741708
0.0924183
-0.0916739
0.0306449
0.0248562
0.089147
-0.0864055
0.0316987
0.0317435
0.0838089
-0.081107
0.0268809
0.0282904
0.0784374
-0.075481
0.022177
0.0235252
0.0724702
-0.0693099
0.0163706
0.0188497
0.0664813
-0.0641415
0.00681676
0.0116157
0.0628525
-0.0628735
-0.00475207
0.000893462
0.0642894
-0.066843
-0.0128534
-0.00913879
0.0696717
-0.0724205
-0.0170546
-0.0146115
0.0748072
-0.0773036
-0.0206702
-0.0182452
0.079934
-0.0828555
-0.0230416
-0.0212458
0.085803
-0.0890995
-0.0246313
-0.0230438
0.0926319
-0.0966693
-0.0252396
-0.0242318
0.100876
-0.104689
-0.0238519
-0.024025
0.108925
-0.11178
-0.0174528
-0.0213204
0.112742
-0.112753
-0.00559068
-0.0132819
0.000671313
-0.0657535
0.0636735
-0.00753673
-0.0110142
-0.060627
0.0584388
-0.000573119
-0.00391095
-0.0581303
0.059625
0.00834328
0.00334886
-0.0630503
0.0672159
0.0181899
0.0126618
-0.0711753
0.0750459
0.0266949
0.0212883
-0.0784136
0.0818741
0.0349688
0.0292121
-0.0853513
0.0896103
0.0368416
0.0355441
-0.0942507
0.0991903
0.0190833
0.0289622
-0.102809
0.104544
-0.00869475
0.00452194
-0.104032
0.10171
-0.0246812
-0.0176328
-0.0985791
0.0949518
-0.0282567
-0.0259615
-0.0916198
0.0883285
-0.0270552
-0.0263308
-0.085474
0.0827185
-0.0250324
-0.024607
-0.0803305
0.0781211
-0.0225797
-0.0225136
-0.0748548
0.0725962
-0.0197232
-0.0203825
-0.0703474
0.0696553
-0.0147812
-0.0176481
-0.0110598
0.0052355
-0.00198564
0.0675406
0.0692604
0.00280839
-0.00365191
0.0686131
0.0669626
0.00437116
-0.00496111
0.07102
0.0683921
0.00544155
-0.00583806
0.0758697
0.0718826
0.00613663
-0.00598111
0.0817517
0.0779575
0.00708717
-0.00932782
0.0885817
0.0846628
0.0891902
0.00753779
-0.0513713
-0.00323715
-0.0597995
0.0247599
-0.0507078
-0.0173286
-0.0609092
0.030198
-0.0567167
-0.0301038
-0.0614746
0.0269645
-0.0640338
-0.0385626
-0.0614777
0.0260378
-0.0692721
-0.0406849
-0.0630306
0.0232093
-0.0196717
-0.0761314
0.0265425
-0.0742785
-0.0358881
-0.066238
-0.0197677
-0.0924725
0.0143932
-0.027935
-0.0754546
-0.0764872
0.0741561
-0.0173405
-0.0220962
0.025023
-0.0790583
-0.0791599
-0.0194235
0.0159096
-0.0212294
-0.0871527
-0.10004
0.104679
0.00975408
-0.0956223
0.0114917
-0.0230877
0.0211077
0.0928363
-0.0239334
0.0897263
0.0955131
-0.0957511
-0.00130086
0.0968996
-0.00894058
-0.0545927
0.0953267
-0.0950325
0.0185372
0.0069927
0.0943391
-0.0925427
0.0288484
0.0241627
0.0897799
-0.0868752
0.028794
0.0289807
0.0841362
-0.0813409
0.0240855
0.0255514
0.0786095
-0.0756252
0.0191927
0.0207937
0.0726417
-0.0695793
0.0133083
0.0158662
0.0669737
-0.0650266
0.0048696
0.00901008
0.0642567
-0.0647998
-0.004209
0.000123597
0.0664424
-0.0687739
-0.0105219
-0.00749618
0.071064
-0.0732613
-0.0148573
-0.0123213
0.0753465
-0.0776922
-0.0183245
-0.01616
0.0801464
-0.0828048
-0.0203832
-0.0187916
0.0854859
-0.0884855
-0.0216316
-0.0203627
0.0916354
-0.0951528
-0.0217223
-0.0210819
0.0987487
-0.102555
-0.0200453
-0.0204291
0.106354
-0.108539
-0.0152672
-0.0175219
0.1109
-0.11034
-0.00615076
-0.010921
0.108972
-0.107712
0.00455703
-0.000697222
0.00786097
-0.0717299
0.0699296
-0.0127049
-0.0154496
-0.0684261
0.0671087
-0.00621933
-0.00951063
-0.0655369
0.0637223
0.00124154
-0.00233922
-0.0625376
0.0625018
0.00837905
0.00453354
-0.063818
0.0663549
0.015653
0.0113456
-0.0694094
0.072991
0.0231133
0.0182338
-0.0765944
0.0807484
0.0308149
0.0256087
-0.0852882
0.0909844
0.0311453
0.0310043
-0.0968791
0.102482
0.0134801
0.0230675
-0.105919
0.106877
-0.00965265
0.00108513
-0.105531
0.102537
-0.0216868
-0.016287
-0.0990438
0.0952569
-0.0244698
-0.0224686
-0.0919013
0.0886571
-0.0238111
-0.0229752
-0.0858591
0.0831482
-0.0223215
-0.021809
-0.0808139
0.0784892
-0.020255
-0.0201792
-0.0763757
0.0737786
-0.0171261
-0.018269
-0.0719213
0.0703753
-0.0132351
-0.0157908
-0.0104126
0.0098636
-0.00807798
0.0708277
0.0735387
0.00813232
-0.00963157
0.0690399
0.0693148
0.011112
-0.0125087
0.0700098
0.068443
0.0137074
-0.0147616
0.0720741
0.0695908
0.015649
-0.0163726
0.0765933
0.07277
0.0168626
-0.017716
0.082605
0.0784476
0.019069
-0.0198918
0.0894044
0.0860159
0.0904061
0.0240965
-0.0507079
-0.0216664
-0.0554617
0.0340385
-0.0545483
-0.0349572
-0.0560558
0.032147
-0.0618992
-0.0446176
-0.0554197
0.0292606
-0.0672566
-0.0483878
-0.0537748
0.0300512
-0.0727808
-0.0454739
-0.0534448
0.0289697
-0.0782252
-0.0369358
-0.0572371
0.0238619
-0.0208712
-0.0821506
0.0268198
-0.0820162
-0.0273765
-0.0693074
-0.0158689
0.0122242
-0.0919775
-0.0199574
-0.0830643
0.00223052
0.0707356
-0.0521626
0.0958808
-0.0968875
-0.000294152
-0.0907946
0.0743168
0.0187083
-0.00385435
0.098073
-0.0960008
0.016465
0.00817818
0.0949054
-0.0922738
0.0262168
0.0230673
0.0903021
-0.0869562
0.025448
0.027009
0.0841154
-0.0811876
0.0211578
0.0227106
0.0783462
-0.0753416
0.0161881
0.0179523
0.0724859
-0.0697541
0.0105765
0.0130105
0.0676732
-0.0664084
0.0036048
0.00692916
0.0662633
-0.0671584
-0.00331392
-2.14645e-05
0.0686826
-0.0705012
-0.00870324
-0.00597201
0.0722264
-0.0740259
-0.0130578
-0.0105962
0.0759144
-0.0780783
-0.0161606
-0.0142715
0.0802882
-0.0826648
-0.0180066
-0.0165817
0.0850777
-0.0877527
-0.0189566
-0.0179498
0.0904965
-0.0934892
-0.0187296
-0.0183381
0.0964868
-0.0996271
-0.016905
-0.0174314
0.10252
-0.105058
-0.0127296
-0.0146287
0.106799
-0.107188
-0.00576148
-0.00918001
0.10591
-0.104114
0.00276061
-0.00197509
0.102223
-0.100258
0.00778872
0.00597058
0.0970431
-0.093531
0.00871202
0.0082767
-0.0774468
0.0751413
-0.015035
0.0790614
-0.0830585
-0.0168741
-0.017809
-0.0731232
0.0716402
-0.0112219
-0.0134314
-0.0703906
0.0695911
-0.00541978
-0.00826105
-0.0689929
0.0683698
0.00186464
-0.00174103
-0.067813
0.0675298
0.0086622
0.00509036
-0.06786
0.0690295
0.0144834
0.0110155
-0.0709246
0.0737245
0.0203134
0.0163388
-0.0771363
0.0817136
0.0262376
0.0221968
-0.0871161
0.0938062
0.0244552
0.0256018
-0.100115
0.105307
0.0082878
0.0167586
-0.107763
0.107584
-0.00947386
-0.00137054
-0.105475
0.102112
-0.018324
-0.0141778
-0.0985853
0.0949283
-0.0208128
-0.0189416
-0.0917444
0.0886885
-0.0207552
-0.0197912
-0.0860519
0.0834751
-0.0197448
-0.0191724
-0.0812339
0.0790438
-0.0180649
-0.017938
-0.0768924
0.0748061
-0.0150399
-0.0161176
-0.0727662
0.0714506
-0.0119195
-0.0137509
-0.0699769
0.070712
-0.00497094
-0.00893896
0.000660396
0.0112112
-0.0120577
0.0716743
-0.0111724
0.0750175
0.0735775
0.0135924
-0.016238
0.0716855
0.0708494
0.0181193
-0.0198699
0.0717604
0.0703244
0.0214024
-0.0227658
0.0734375
0.0711234
0.02388
-0.0247157
0.0774291
0.0738841
0.0251816
-0.0260645
0.083488
0.0789134
0.0255417
-0.0251433
0.089006
0.085493
0.0274496
-0.0286533
0.09404
0.0927124
0.0378855
0.107167
0.0989586
-0.0211883
0.0249213
-0.0858836
-0.0854637
-0.0187831
0.01187
-0.015039
-0.0888085
-0.0905498
0.00888873
0.0364918
-0.0531613
-0.0369954
-0.0534236
-0.0745661
0.00395902
0.0375613
-0.0599626
-0.0469922
-0.0536812
0.111408
-0.0927577
5.75218e-05
-0.0216678
0.029372
0.0994628
-0.0115298
0.10127
0.0333578
-0.0659964
-0.0522016
-0.0516058
0.0334003
-0.0706057
-0.0514683
-0.0477804
0.0331283
-0.0769395
-0.0449116
-0.045469
0.031164
-0.0825694
-0.0342704
-0.0503432
0.0292024
-0.0862973
-0.0236954
-0.0655694
0.022354
-0.0195059
-0.0883118
0.0259176
-0.0894472
-0.0174243
-0.080679
0.0103529
-0.013074
-0.0860874
0.00783657
-0.0880335
-0.0526662
0.0979535
-0.0992026
0.000955031
0.00134138
0.0980187
-0.0968026
0.0152488
0.00699429
0.0940004
-0.0918385
0.0240549
0.0202651
0.0882961
-0.0858685
0.0230204
0.0234666
0.0831019
-0.0802217
0.0182776
0.019944
0.0774768
-0.0747421
0.0134534
0.0152073
0.0723487
-0.0703071
0.00853481
0.0106172
0.0689862
-0.0684279
0.00304655
0.00560826
0.0686647
-0.0695069
-0.00247172
0.000215345
0.0706253
-0.0719062
-0.00742234
-0.00485362
0.0732406
-0.074808
-0.0114903
-0.00926181
0.0765241
-0.07846
-0.0142247
-0.0125554
0.0804127
-0.0825241
-0.0158953
-0.014629
0.0846676
-0.0870076
-0.0166167
-0.0158063
0.0893606
-0.0918778
-0.0162123
-0.0159851
0.0943434
-0.0968586
-0.0143899
-0.0149658
0.099113
-0.101081
-0.010762
-0.0123743
0.102313
-0.102773
-0.00530091
-0.00794768
0.102606
-0.10061
0.000764632
-0.00214291
0.098141
-0.0955386
0.00518633
0.00350194
0.0938606
-0.0920874
0.00693886
0.00659865
0.0897019
-0.0879491
0.00608376
0.00650321
-0.0821128
0.0810459
-0.0158073
0.084983
-0.0880116
-0.0164773
-0.0159129
-0.0780904
0.0765335
-0.0134781
-0.0148534
-0.0745678
0.0732676
-0.00992168
-0.0114658
-0.0722065
0.0715275
-0.00474074
-0.00719992
-0.0713376
0.0714909
0.00171126
-0.00155112
-0.0718237
0.0723176
0.00816831
0.00475755
-0.072987
0.0740617
0.0134088
0.0103461
-0.0755923
0.0779623
0.0179433
0.0148081
-0.0811443
0.0857497
0.0216322
0.0190148
-0.0912563
0.0976621
0.0180493
0.0200952
-0.103033
0.106701
0.00462027
0.0113876
-0.107709
0.106515
-0.00827935
-0.00237918
-0.10402
0.100711
-0.0150157
-0.0116826
-0.0974604
0.0941571
-0.0175095
-0.0156907
-0.0912774
0.0884938
-0.0179716
-0.0169116
-0.0860816
0.0836999
-0.0173631
-0.0167602
-0.0816033
0.0795511
-0.0160127
-0.0158414
-0.0775495
0.0761648
-0.0136551
-0.0141161
-0.0738359
0.0722268
-0.0103103
-0.011422
-0.0710941
0.0717123
-0.00558918
-0.00780631
-0.0021934
0.0124859
-0.0130541
0.0755857
0.0785267
0.0136926
-0.0169083
0.07489
0.074216
0.019176
-0.0213883
0.0738977
0.0731171
0.0234544
-0.0253769
0.0736828
0.0723905
0.0270676
-0.0285439
0.0749139
0.072814
0.0296856
-0.0304476
0.0781911
0.0750258
0.0307408
-0.0305237
0.0832709
0.0792066
0.0297911
-0.0289919
0.0882068
0.0847604
0.0274358
-0.0274032
0.0940075
0.0911563
0.100927
-0.0184712
0.0217629
-0.0916034
-0.0906089
-0.015874
0.00642476
-0.00865607
-0.0858022
-0.0864776
0.00495329
0.0424297
-0.0580296
-0.0459123
-0.0545034
0.105624
-0.10159
-0.00397684
0.100107
-0.00601219
0.0382976
-0.0649024
-0.0517192
-0.0541636
0.0368749
-0.069471
-0.0532355
-0.0498386
0.0375969
-0.0750742
-0.0495754
-0.0431166
0.0355556
-0.081331
-0.0404941
-0.0392453
0.0333803
-0.0867472
-0.0282158
-0.0458228
0.030367
-0.0907468
-0.0180348
-0.064959
0.0260167
-0.093701
-0.0144284
-0.0793245
0.0179956
-0.0158816
-0.0927228
0.0218665
-0.0954744
-0.0108425
-0.083901
-0.0908929
0.0883103
-0.013299
0.0134322
-0.0916649
-0.0126602
0.01673
-0.0960206
-0.0137928
0.0795549
0.00550964
-0.00640019
-0.0849116
0.00353181
-0.0844998
-0.0561488
0.100202
-0.100728
0.00148133
-4.63741e-05
0.0996989
-0.0965897
0.0121396
0.00596485
0.0931532
-0.0897427
0.0206444
0.0168286
0.0867912
-0.0840012
0.0202304
0.0205152
0.0814707
-0.0789754
0.0157823
0.0174136
0.0767198
-0.0746269
0.0113605
0.0129518
0.0729491
-0.0716662
0.00725193
0.00893939
0.0709423
-0.0707169
0.00282114
0.00488431
0.0709214
-0.0714398
-0.00195331
0.000419876
0.0721434
-0.0730705
-0.00649529
-0.00414999
0.0741816
-0.0755686
-0.0101033
-0.00815071
0.0770831
-0.0787731
-0.0125346
-0.011041
0.0804859
-0.0823512
-0.01403
-0.0129162
0.0842355
-0.0862649
-0.0145873
-0.0139221
0.0882739
-0.0903843
-0.014102
-0.0139761
0.092404
-0.0944077
-0.0123862
-0.0129462
0.096155
-0.0976481
-0.00926895
-0.0106269
0.0986346
-0.099027
-0.00490851
-0.00696115
0.0987247
-0.0976982
-0.000261808
-0.00244526
0.0958299
-0.0938182
0.00317464
0.00163362
0.0911182
-0.0887406
0.00456127
0.00389868
0.0867919
-0.0857246
0.00501642
0.00455447
0.0851329
-0.0843044
0.00270332
0.00436166
-0.0863489
0.0842412
-0.0143696
-0.0139126
-0.0828926
0.0808262
-0.0137409
-0.0145642
-0.0787323
0.0771785
-0.0119243
-0.0127595
-0.0758989
0.0746872
-0.00870998
-0.0101862
-0.0737229
0.0731753
-0.00419308
-0.00623564
-0.0731104
0.0735322
0.0012895
-0.0014863
-0.0743212
0.075466
0.00702354
0.00396854
-0.0767723
0.0783934
0.0117877
0.00903975
-0.0802464
0.0827597
0.01543
0.0129552
-0.0859197
0.0902744
0.0172775
0.0158548
-0.0951148
0.100172
0.0129919
0.0152549
-0.103841
0.10578
0.00268181
0.0077185
-0.105689
0.104055
-0.00664506
-0.00228838
-0.101668
0.0987692
-0.0121168
-0.00929599
-0.0959855
0.0931459
-0.0146699
-0.0129071
-0.0906311
0.0881582
-0.0154987
-0.0143967
-0.0859914
0.0838381
-0.0152097
-0.0145935
-0.081921
0.0800235
-0.0141152
-0.0139243
-0.0783792
0.0767782
-0.0120542
-0.0124717
-0.0753688
0.0740012
-0.00894279
-0.0100125
-0.0729635
0.0725923
-0.00521799
-0.00676856
-0.072286
0.0754032
0.000841772
-0.00188706
0.00562225
0.0140834
-0.0158475
0.0773498
0.0788174
0.0182564
-0.0206788
0.0773125
0.0766248
0.0229783
-0.0252053
0.0761248
0.0754165
0.027271
-0.0291735
0.0755853
0.0744562
0.0308213
-0.0322076
0.0763002
0.0744618
0.0332055
-0.0337715
0.0787571
0.0760237
0.0338302
-0.0333362
0.082777
0.0792653
0.0322927
-0.0315817
0.0874958
0.0837169
0.0286265
-0.026818
0.092199
0.0882011
0.0188538
-0.0181941
0.0988031
0.0929632
0.0214803
-0.026921
0.105547
0.104557
0.0434797
-0.0632117
-0.0482623
-0.0579603
-0.00219477
0.00121746
-0.0833271
-0.0035342
-0.0831604
0.0987663
-0.107886
-0.0178018
-0.0331158
0.0783543
0.0603088
0.0863027
-0.0206522
-0.0824645
0.0824669
0.00270096
-0.081305
5.79368e-05
0.0406728
-0.0687003
-0.05136
-0.0560391
0.0419122
-0.0737863
-0.0509218
-0.0484923
0.0408511
-0.0803698
-0.0450487
-0.038562
0.038378
-0.0863287
-0.033559
-0.0339021
0.0351456
-0.0915258
-0.0201891
-0.0436685
0.0309243
-0.0956544
-0.0129169
-0.0664705
0.0255178
-0.0973523
-0.0109978
-0.0791692
-0.0116304
-0.0936453
0.0136107
-0.0919839
0.0902054
-0.00985196
0.0096109
-0.093219
-0.00837573
-0.0957426
0.0117082
0.0200881
-0.0988325
-0.00770176
-0.0825994
-0.0983289
0.0159191
0.00181567
-0.0060875
0.0826262
-0.0779219
0.00638237
-0.0254115
0.087536
-0.0609315
0.103987
-0.103799
-0.00416464
-0.0099107
0.102652
-0.100967
-0.000203284
-0.00119371
0.0993681
-0.0963441
0.00911565
0.00436569
0.0927262
-0.0889386
0.0168568
0.0132107
0.0856993
-0.0828776
0.0174087
0.0172758
0.0806115
-0.0785982
0.0137689
0.0151475
0.0769386
-0.0754876
0.00990951
0.0112922
0.0743714
-0.0735142
0.00639475
0.00782318
0.072981
-0.0727072
0.00254735
0.00435108
0.0726895
-0.0729138
-0.00172896
0.000402176
0.0733704
-0.0741111
-0.00575459
-0.00369337
0.0750732
-0.0762841
-0.00889245
-0.00718861
0.0775953
-0.0790641
-0.0110659
-0.00972974
0.0805654
-0.0822038
-0.0123916
-0.0114148
0.0838461
-0.0855944
-0.0128389
-0.0122797
0.0873011
-0.0890624
-0.0123406
-0.0122694
0.0907119
-0.0923095
-0.0107885
-0.0112967
0.0936688
-0.0947963
-0.00814142
-0.00926767
0.0955134
-0.0957841
-0.00463783
-0.00624408
0.0955402
-0.0947788
-0.00102317
-0.00268917
0.0936077
-0.0920816
0.00164857
0.000462473
0.090462
-0.0885212
0.00262046
0.00227911
0.0863367
-0.0841142
0.002794
0.00236993
0.00271433
-0.0890077
0.0875197
-0.011811
-0.0114625
-0.0863516
0.0847087
-0.0127268
-0.0127444
-0.0827272
0.081173
-0.0121867
-0.0125828
-0.0795609
0.078011
-0.0103744
-0.0111474
-0.0767735
0.0757205
-0.00765703
-0.00894869
-0.0749981
0.074583
-0.00377795
-0.00551325
-0.0745721
0.0750278
0.000833798
-0.00147539
-0.0758999
0.0772432
0.00568025
0.00309641
-0.0788365
0.0808083
0.00981591
0.00744645
-0.0829596
0.0856591
0.0127306
0.0108038
-0.088751
0.0925913
0.0134373
0.0127628
-0.0964059
0.0999407
0.00945708
0.0114403
-0.102157
0.102996
0.00184322
0.0055022
-0.102503
0.100997
-0.00513946
-0.00179539
-0.0990337
0.0966924
-0.00977542
-0.00733271
-0.0944202
0.0920531
-0.0123028
-0.0106349
-0.089907
0.0877493
-0.013341
-0.0122506
-0.0858303
0.0839086
-0.013288
-0.0126745
-0.0821887
0.0804699
-0.0123964
-0.0122044
-0.0789725
0.0775419
-0.0106236
-0.0109743
-0.0763488
0.0752248
-0.0078188
-0.00881949
-0.07421
0.0731679
-0.00417587
-0.00575373
-0.07339
0.0745593
-0.000327577
-0.00210913
0.00225964
0.0142957
-0.0153996
0.0806588
0.0832927
0.0164726
-0.0187683
0.0796455
0.0798903
0.0212222
-0.0236264
0.0797166
0.0790787
0.0258728
-0.0280115
0.0782635
0.0776629
0.0299408
-0.0316622
0.0773067
0.0763855
0.0330893
-0.0342079
0.0774188
0.0758889
0.0349198
-0.0351941
0.0790314
0.0767355
0.0349772
-0.0342251
0.0820249
0.0790484
0.0329623
-0.0311879
0.0857214
0.0824541
0.0290449
-0.0259819
0.089136
0.0860581
0.0219792
-0.014424
0.0912479
0.0889605
0.0840451
-0.00500191
-0.0834439
0.0794255
-0.0185342
0.00125742
-0.00180623
-0.0827783
-0.0824384
0.00239076
0.0444289
-0.0669679
-0.0479796
-0.0613408
0.0457153
-0.0725034
-0.0502512
-0.0567097
0.0461712
-0.0791064
-0.0479952
-0.0455458
-0.00204224
-0.0829244
0.0442742
-0.086266
-0.0389613
-0.0331597
0.0412445
-0.0924275
-0.0244496
-0.0296416
0.0363414
-0.0969429
-0.0112778
-0.0453075
-0.00677586
-0.0941425
0.00769927
-0.0918818
0.0907349
-0.00562889
0.0050439
-0.0926357
-0.00429008
-0.094936
0.00583744
0.0307361
-0.100873
-0.00788894
-0.0695794
-0.097445
0.00940168
0.02471
-0.101974
-0.0066204
-0.0802506
-0.100248
0.013627
0.0187675
-0.101681
-0.00407173
-0.0835296
0.016446
-0.0206849
0.0836643
0.0557407
-0.0881469
0.0540661
0.0183088
-0.0195613
0.0754023
0.00107425
-0.00138636
-0.0824662
-0.0832859
0.00192175
-0.00336532
0.0774148
-0.0644821
0.0944838
-0.102228
-0.0100572
-0.0875528
-0.0163967
0.0854152
-0.0137212
0.102647
-0.101813
-0.00499886
-0.00949183