/*--------------------------------*- C++ -*----------------------------------*\
  =========                 |
  \\      /  F ield         | OpenFOAM: The Open Source CFD Toolbox
   \\    /   O peration     | Website:  https://openfoam.org
    \\  /    A nd           | Version:  10
     \\/     M anipulation  |
\*---------------------------------------------------------------------------*/
FoamFile
{
    format      ascii;
    class       surfaceScalarField;
    location    "52";
    object      phi;
}
// * * * * * * * * * * * * * * * * * * * * * * * * * * * * * * * * * * * * * //

dimensions      [0 3 -1 0 0 0 0];

internalField   nonuniform List<scalar> 
57492
(
0.000236331
-1.06227e-05
-4.38378e-05
-0.000181871
-0.000163029
0.00026817
0.00013119
-2.8781e-05
8.0916e-05
0.000323592
-0.000375727
0.00315973
0.00338644
-0.000272059
-0.00627411
-0.00862822
0.00404529
0.00774267
0.000778847
-0.000717761
-0.000376295
0.000315208
-0.00138995
0.000244225
-8.67809e-05
0.00123251
0.000296368
-0.000907471
0.00158437
-0.00463356
0.00442619
-0.00137699
0.00133757
0.00424979
-0.004003
-0.000613819
-0.000207345
0.000686911
0.000134253
-0.000122855
-0.000834881
0.000343917
0.0002326
-0.000326331
-2.91239e-05
-5.34866e-05
7.87417e-05
0.00183541
-0.00176924
-0.000663547
0.000597373
0.000262092
0.00148051
9.28116e-05
-0.000324187
0.000788034
0.00333534
-0.00379919
-0.000660415
0.0032612
-0.00292497
0.000135499
-0.000288654
0.000153155
-0.00166394
0.0012204
0.000579046
-0.0046602
0.000190168
0.00333606
0.00113398
0.00122751
-0.00473029
-0.00115742
-0.000133161
-0.000197347
-0.000703492
0.001034
-0.000287698
0.000176608
-2.20699e-05
-0.00254989
0.00216387
0.000736056
-0.000350033
-0.0030525
0.000925224
-0.000422614
-0.00112788
0.000596518
0.000456828
7.45379e-05
-0.000779068
-0.00036235
1.35339e-05
-0.000367302
-0.00113398
0.00129103
0.000210251
-0.000416097
0.000116404
-6.76092e-05
0.000811
-0.000540011
-0.000503023
0.000232034
-0.000700012
0.000560592
0.00095042
-0.000957864
-0.00183562
0.00177069
0.00102279
-0.00217428
-0.0005217
0.00173811
-0.000707416
-0.000152095
0.000859511
-0.000271295
-0.000436121
-0.00137451
0.0018921
-0.000788886
0.000203086
-0.000767183
-0.000810415
-0.000617036
0.000861261
-0.000233035
-0.00190182
0.00115082
0.000751002
-0.00432163
0.00241981
0.00490528
-0.000869131
0.000391804
-0.00442796
0.00361343
-3.87801e-05
0.00133063
-0.000775409
0.00490068
-0.0049944
0.00152361
0.000327117
-0.00155436
0.00153471
-9.78738e-05
0.00185671
-0.000695848
-0.00138206
0.000221197
0.00207888
0.000104952
0.000953248
-0.000591991
0.00117345
0.000918413
0.00126734
-0.0047501
-0.000639597
0.000552874
0.00483682
-0.00488312
-0.000304061
0.000437082
0.00121307
0.00451353
-0.00443804
-0.00128855
0.000884384
-0.00430488
-0.00278778
0.00253375
0.00254113
-0.0022871
-0.000279494
0.00320812
-0.00571642
1.48986e-05
-0.000117048
-8.10269e-07
0.000102959
-0.000322025
1.05925e-05
6.72116e-05
-0.00013631
-0.000252926
-5.65238e-05
6.6876e-06
1.11919e-05
-1.20022e-05
8.89417e-06
2.29775e-06
0.00730935
0.00378596
-0.00588333
-0.00521198
0.00233642
-0.00070114
0.00567407
-0.0078582
0.00309721
0.00709741
0.00229111
-0.00636336
0.00162391
-0.00286609
0.00213398
-0.000891789
0.00235671
-0.00291476
0.00218195
-2.9934e-05
2.18839e-05
-2.57256e-06
-7.03379e-05
-3.43386e-06
-0.000223133
-2.90751e-05
-0.00293902
0.00534912
0.00339298
-0.00580308
0.00436323
-0.00494553
0.00298443
0.00474912
-0.00238444
0.0100939
-0.0014866
-0.00178839
-0.00681893
0.00223898
0.0054259
0.00242904
0.00160328
-0.00501196
0.00564767
4.68241e-05
-7.56051e-05
0.00012774
0.00081671
0.00175826
-0.000626584
-0.00194839
0.0010406
9.97046e-05
-9.59161e-05
2.63746e-05
6.95415e-05
-0.000298415
0.000202499
-0.00660659
0.00342271
-0.00201331
0.00519719
-0.00574227
-0.00249855
0.00163423
-0.00262518
0.00208897
-0.00520606
0.00195213
-2.65737e-05
-0.000944328
-0.000981225
-0.000711688
0.00222781
0.000436006
-0.00083474
-8.52538e-05
0.000208306
-0.00077164
-8.96736e-05
-0.000271483
-0.00144449
-0.000237577
-6.28013e-05
1.85355e-05
0.000281843
-0.000216332
-0.000523662
0.000502417
0.000137775
1.68553e-05
-0.000370963
7.92473e-05
-4.27337e-06
0.000100443
-2.65993e-06
-0.000641166
0.000369683
8.34409e-05
-0.000724607
0.000172479
-0.000470894
0.00427359
0.00333163
-0.000178513
0.00212866
-0.00648329
-1.03386e-05
0.00226391
-0.00179746
-0.000456114
0.000291802
0.00316407
-0.00346621
0.00327156
0.00184788
-0.000506305
-0.00461314
-0.0010299
0.000496136
0.00380532
0.00399739
-0.0031794
-0.00164177
-0.00303474
0.0012497
0.0034268
-0.00118612
0.0035053
-0.00396095
0.000421916
-0.00464277
8.27297e-05
3.3852e-05
-4.60899e-06
0.00104742
-0.000617502
-0.000592943
7.7208e-05
-0.000325598
0.00129581
0.000364489
-1.91116e-05
-0.000187267
0.000331746
6.83295e-05
-0.000212808
0.000991613
-0.00121482
3.594e-05
-0.000357538
0.000830844
0.000518307
-0.00012507
9.92782e-05
-0.0061162
0.00365028
0.00588863
0.00772253
-0.00200822
-0.00821286
-0.00285759
0.00446392
-9.71233e-05
-0.000874567
-0.000162286
-0.000522355
9.13467e-06
4.79589e-05
-0.000129923
3.71405e-05
4.48238e-05
-0.000130046
0.000144625
3.33792e-05
-0.000299601
3.96322e-05
-0.000265374
-0.000312833
5.58518e-05
-0.000803925
-0.000336016
-0.000873402
-0.000937548
0.00107189
0.000739058
3.58001e-05
0.000461887
-0.00137109
-0.00122318
0.000321436
-0.00293507
0.00133113
-6.0012e-05
-0.00350387
0.000809756
-0.000240955
0.000876059
-0.00334732
0.00256409
-9.28309e-05
0.000679076
-0.00272833
0.00292531
0.00252827
-0.0101972
-0.00176637
0.00218285
0.00302257
-0.00345781
0.00206111
-0.000321097
4.81087e-07
1.63742e-05
-3.36007e-06
3.84115e-06
0.000284341
-4.13109e-05
0.00560459
-0.00341527
-0.00246379
0.00027448
0.00484389
-1.47103e-05
0.00465212
0.000159105
-0.00509072
0.00137526
0.00330439
-2.75324e-05
0.000546789
-0.00292155
0.00375002
5.40043e-06
-8.76051e-06
0.000759254
-0.0021203
-0.00284715
0.00123235
0.00308443
0.000914061
-5.18102e-05
-0.000961092
9.88415e-05
0.000303022
-8.89729e-05
-0.00117582
0.000257471
0.00147894
0.000212966
-0.00108576
-0.000134904
7.57115e-05
-7.38758e-06
1.02985e-05
-2.59494e-06
-3.16003e-07
1.09315e-05
-2.39157e-07
-1.808e-05
4.65868e-05
-0.000104416
6.87603e-05
-0.00171976
0.00265456
-0.000762328
0.0029188
-0.00378824
-0.000850322
6.01712e-06
-0.00161241
0.00186386
-0.0039955
0.000241855
-0.0027388
-0.00183339
0.000576699
0.00269236
0.002911
-0.0054132
0.00260453
0.00429408
-0.00420625
0.00223983
-0.00308432
0.00160647
-0.00076198
0.00245498
-0.00302351
0.00280835
0.00437127
0.00187579
0.0049979
-0.000235525
-0.00496393
0.000201559
0.00553734
-0.000663681
0.000124235
0.00552961
-0.00090072
7.92305e-05
-0.00470812
0.00396927
-0.00137286
0.0029332
0.00430804
-0.00140336
0.00114016
-0.00404484
0.00126865
0.00438818
-0.00134879
-0.00387642
-0.0016651
0.00413816
0.00106602
-0.00369274
-0.00185886
0.00362057
-0.0023778
-0.00323968
0.00215347
0.00346401
-0.00239404
-0.00326782
0.00328406
0.00223408
0.00304666
-0.00147379
-0.00380695
0.00302051
-0.00318046
-0.00258837
0.00261263
0.00299626
-0.00204017
0.00249846
-0.00406933
0.00361542
-0.00101988
-0.00506612
0.00105254
0.00537532
-0.00136174
0.00190967
-0.000266692
0.000995799
-0.00106169
0.000332582
-0.000109529
0.00127664
-0.0014338
-5.31579e-05
0.000306354
0.000111294
-0.00117832
-0.00183882
0.00119582
-1.75625e-07
-6.35319e-08
3.11332e-07
-4.86955e-07
-0.000110269
-0.00203223
0.00155051
-0.00180792
-7.45067e-05
0.00177216
5.1225e-05
-0.001895
3.58564e-05
-0.000255793
0.00169015
0.000280728
-0.00171509
0.0017357
0.000495565
-0.00248705
0.00173323
0.00169262
-2.46834e-06
4.88824e-07
3.58315e-05
-4.77958e-06
2.31124e-06
-4.29075e-06
-5.57356e-06
4.2707e-06
-5.52209e-05
1.04388e-06
-6.61744e-06
5.31458e-06
-4.40698e-05
2.13483e-05
-0.000264977
2.22627e-05
-6.63324e-05
4.36109e-05
5.31922e-05
-5.33616e-06
-0.000172926
-1.69041e-05
7.00963e-05
-2.22402e-05
0.00142301
0.00328276
-0.00420964
0.0013324
-0.0044714
0.00456201
0.00471719
-0.000102024
-0.00118225
-0.00244443
0.00115809
0.0024686
-0.000710518
0.00272187
-0.0031936
0.000157236
-0.00331219
0.00408032
-0.00410013
-1.47142e-05
3.45273e-05
0.00409633
3.52884e-05
-5.13042e-05
-2.7397e-05
-0.0040744
1.66008e-06
0.00414412
-2.8039e-06
-4.49787e-05
0.00423447
5.91144e-05
-0.000149462
2.8622e-05
0.00435605
-0.00015021
0.00430303
-0.00426189
-1.2516e-05
-0.000204455
0.00457543
-1.49189e-05
0.00419789
-9.93185e-05
-0.00411532
-8.74605e-05
-0.00408429
-3.38268e-05
-0.00406082
1.18148e-05
-0.00412897
5.34379e-05
-0.00404195
-0.000114423
-0.000199384
0.00478929
-1.44839e-05
0.00401507
-1.65574e-05
-2.22415e-05
-0.0040196
-3.25492e-05
-0.00405437
-9.81743e-06
-3.07151e-05
-0.0042297
0.000240809
-2.12385e-06
0.00480494
-1.35212e-05
0.00402891
-1.59686e-05
-0.00418106
9.5974e-05
0.00481985
-1.87005e-06
-1.30375e-05
-1.90037e-06
0.00483377
-1.20218e-05
0.00404179
-1.47474e-05
0.00405421
-1.43186e-05
-2.6149e-05
-0.00418105
-2.25026e-05
-0.00418008
-2.71261e-05
-1.57323e-06
0.00484693
-1.15855e-05
0.00406579
-1.31537e-05
-2.58926e-06
-0.00415519
-2.32652e-05
-0.00415414
-2.85321e-05
-1.48771e-06
0.00485901
-1.05903e-05
0.00407712
-1.28177e-05
-2.63172e-06
-0.00412828
-2.42804e-05
-0.00412733
-2.94405e-05
-9.1545e-07
0.00487013
-1.02126e-05
0.0040879
-1.17034e-05
-2.90122e-06
-0.00410046
-2.4917e-05
-0.00409942
-3.08083e-05
-3.38236e-07
0.00487972
-9.24614e-06
0.00409902
-1.14532e-05
-2.96123e-06
-0.00407167
-2.58258e-05
-0.00407067
-3.17095e-05
1.23034e-06
0.00488742
-8.92847e-06
0.00411064
-1.03867e-05
6.20029e-06
-0.00405149
-2.63893e-05
-0.00403149
-3.29883e-05
3.80779e-06
0.0048916
-7.99036e-06
0.00412466
-1.02125e-05
2.29339e-05
-0.0039078
-0.000166623
-0.00393322
-7.53272e-05
9.42082e-06
0.00488991
-7.73373e-06
0.00412423
9.85034e-06
2.21578e-05
-0.00389653
-3.34269e-05
-0.00387408
-3.69914e-05
2.0021e-05
0.00487672
-6.82881e-06
0.00410246
4.17894e-05
5.11825e-05
-0.00372868
-0.000219026
-0.00373228
-9.06116e-05
0.000208061
0.00467528
-6.62228e-06
0.00423418
7.63436e-05
5.84269e-05
-0.00368086
-0.000106249
-0.00366096
-1.28935e-05
0.00018409
0.00433736
0.000153831
0.00431059
0.000107672
9.42979e-05
-0.000167247
-0.00360791
-0.00361532
4.86617e-05
1.20575e-05
3.64728e-05
0.00428883
0.0042887
3.39484e-05
-0.00369989
0.00378935
-0.000195713
-0.00368915
-0.00017799
0.000162222
-0.000173373
-0.00359676
4.64002e-05
-0.0034995
-0.0037374
0.00379935
-9.53799e-05
-0.000167069
-0.00368798
0.00371517
-5.35826e-05
-5.52496e-05
-0.00374135
0.00376675
-5.03207e-05
-5.20066e-05
-0.00379116
0.00381481
-4.69144e-05
-4.86832e-05
-0.00383753
0.00412181
-4.34719e-05
-4.52265e-05
-0.00413116
0.00409467
3.81512e-05
-4.18987e-05
-0.00424607
0.00423147
-3.67043e-05
-0.000116872
-0.0041128
0.00406884
-0.000105506
7.3695e-05
-0.00398743
0.00400257
-3.00627e-05
-6.87986e-05
-0.00401679
0.00403032
-2.70462e-05
-2.87074e-05
-0.00404305
0.00405517
-2.41383e-05
-2.57693e-05
-0.00406654
0.00407734
-2.13914e-05
-2.29595e-05
-0.00408746
0.00409704
-1.88308e-05
-2.03257e-05
-0.004106
0.00411447
-1.64643e-05
-1.78834e-05
-0.00412237
0.00412982
-1.42832e-05
-1.5634e-05
-0.00411247
0.00421557
5.07327e-05
1.07316e-05
0.00421097
4.10672e-05
-2.66906e-05
7.81889e-05
0.00423733
-1.02258e-05
0.00427224
0.00422526
-0.004149
8.28149e-08
-0.00427291
0.00426987
3.69849e-05
6.00228e-05
0.00414136
-0.00411436
-1.71438e-05
3.41459e-05
0.00410594
-0.0040969
-1.94332e-05
-1.86324e-05
0.00408737
-0.00407715
-2.19201e-05
-2.09856e-05
0.0040664
-0.0040549
-2.46497e-05
-2.35657e-05
0.00404283
-0.00402994
-2.76335e-05
-2.63942e-05
0.00401643
-0.00400209
-3.08928e-05
-2.94821e-05
0.00406856
-0.00404673
-3.43425e-05
-3.28524e-05
0.00409787
-0.00403604
-9.5659e-05
-3.63258e-05
0.0039915
-0.00394655
8.49702e-06
-3.27262e-05
0.00397606
-0.00398091
-4.9656e-06
-8.49163e-05
0.00383701
-0.00381427
-4.98608e-05
-4.79335e-05
0.00379079
-0.00376626
-5.39676e-05
-5.20169e-05
0.00374099
-0.00371469
-5.80151e-05
-5.60754e-05
0.00368763
-0.003701
-6.19577e-05
-6.00461e-05
0.00367409
-0.00369891
-6.57865e-05
-6.39023e-05
0.0036441
-0.00356079
-3.46489e-05
-6.77077e-05
-0.00349214
-2.22433e-05
-0.00368468
-0.000177835
0.00422974
5.94244e-05
-1.17708e-05
0.00427142
9.1278e-05
-0.000110886
-0.00347989
3.34247e-05
-0.00343429
0.000148203
-0.00017388
-0.00365901
-0.00355944
-0.00368996
0.00365933
-0.000165085
0.00370193
-0.00370123
-0.000178532
-0.000166021
-0.00364084
0.00366922
-0.000123764
-0.000148576
-0.00369665
0.00372339
-8.03178e-05
-8.26791e-05
-0.00374912
0.00377408
-7.52888e-05
-7.77353e-05
-0.00379806
0.00382128
-7.01366e-05
-7.26578e-05
-0.00384354
0.00386501
-6.49407e-05
-6.74858e-05
-0.00388547
0.00398344
-5.98251e-05
-6.23571e-05
-0.00392388
0.00394192
-5.47446e-05
-5.73069e-05
-0.00406792
0.00401225
-4.98408e-05
-5.23033e-05
-0.00399086
0.00400575
-4.4946e-05
-4.74091e-05
-0.00401976
0.00403309
-4.03842e-05
-4.27179e-05
-0.00404564
0.00405757
-3.60731e-05
-3.83115e-05
-0.00406877
0.00407941
-3.2029e-05
-3.41587e-05
-0.00408937
0.00409881
-2.82734e-05
-3.02845e-05
-0.00410763
0.00411598
-2.48148e-05
-2.67044e-05
-0.00412377
0.00413112
-2.16361e-05
-2.34181e-05
-0.00413767
0.00417726
1.11448e-05
4.17611e-06
5.43427e-06
-1.96902e-05
0.00425159
-7.22563e-06
0.0042424
-0.00417055
0.00421731
1.26616e-05
4.77811e-05
0.00421432
-0.0042094
3.20673e-05
0.00418582
1.67286e-05
3.75017e-06
3.82734e-05
0.0042294
0.0042563
0.00420377
-0.00416662
-3.70702e-05
5.43913e-05
0.00412372
-0.00411583
-2.50345e-05
-8.7483e-06
0.00410752
-0.0040986
-2.83567e-05
-2.69444e-05
0.0040892
-0.00407913
-3.19915e-05
-3.03818e-05
0.00406854
-0.00405721
-3.59752e-05
-3.41558e-05
0.00404532
-0.00403264
-4.03134e-05
-3.82822e-05
0.00401937
-0.00400526
-4.50014e-05
-4.27617e-05
0.00399053
-0.00397489
-4.99814e-05
-4.75756e-05
0.00395857
-0.00399896
-5.52662e-05
-5.26537e-05
0.00397367
-0.00390445
-6.07275e-05
-5.80118e-05
0.00392576
-0.00386426
-6.64663e-05
-6.36058e-05
0.00384289
-0.00382052
-7.22374e-05
-6.9299e-05
0.00379742
-0.00377331
-7.80843e-05
-7.51108e-05
0.00374846
-0.00372259
-8.38852e-05
-8.09174e-05
0.003696
-0.00366838
-8.95765e-05
-8.66445e-05
0.00364004
-0.00361071
-9.51152e-05
-9.22406e-05
0.00358074
-0.00351496
-0.000100432
-9.7678e-05
0.00346436
-0.00338714
-4.37947e-05
-7.28407e-05
-0.0036947
-0.000180407
1.6849e-05
-0.000101772
-0.00334937
-0.00333522
-3.50699e-05
-0.00018636
-0.00339531
1.26313e-05
0.00419745
0.00419746
2.66323e-05
-0.000115229
0.000101956
-0.00364573
-0.00014609
-0.00366384
-8.83976e-06
-9.62226e-05
-0.00324431
-6.22476e-05
-0.00328181
-0.00364385
0.00422912
-0.00421153
-4.92447e-06
0.00419085
5.08951e-05
6.42254e-05
-2.64821e-05
0.00419165
3.37277e-05
0.00422796
-0.00364509
0.00371697
-0.000217968
-0.000197809
0.000143982
-0.00361002
0.00369696
2.56528e-05
0.000175433
-0.00389805
-0.000145935
-0.00374408
0.0037447
-0.000179147
-0.000207526
-0.00372546
0.00369347
-0.000133102
-0.000146779
-0.00369349
0.00368267
-0.000112947
-0.000148589
-0.00370942
0.00373544
-0.000106335
-0.000109431
-0.00376047
0.00378477
-9.95837e-05
-0.00010277
-0.0038081
0.00383069
-9.2732e-05
-9.59861e-05
-0.00385234
0.00387324
-8.58475e-05
-8.91311e-05
-0.00389319
0.00391239
-7.9027e-05
-8.23e-05
-0.00393065
0.00394822
-7.23145e-05
-7.55672e-05
-0.00396487
0.00398082
-6.5789e-05
-6.89569e-05
-0.00399596
0.00401045
-5.94371e-05
-6.25449e-05
-0.00402411
0.00403714
-5.34135e-05
-5.63838e-05
-0.0040494
0.00406106
-4.7737e-05
-5.05661e-05
-0.00407201
0.00408241
-4.24286e-05
-4.51045e-05
-0.00409214
0.00410138
-3.75087e-05
-4.00218e-05
-0.00411001
0.00411818
-3.29866e-05
-3.53333e-05
-0.0041258
0.00413301
-2.88451e-05
-3.10389e-05
-0.00415112
0.00416417
-1.90309e-06
-1.39327e-05
4.16944e-07
2.35638e-05
-1.08157e-05
0.00423884
-3.57422e-05
-1.36876e-06
0.00423456
0.00423022
0.004219
0.00420389
-0.00419376
2.19386e-05
-0.00420316
0.00418512
4.46719e-05
1.74567e-05
0.00413973
-0.00414796
-2.88436e-05
3.58027e-07
0.00412571
-0.00411798
-3.27668e-05
-3.09926e-05
0.00410984
-0.0041011
-3.70931e-05
-3.50829e-05
0.00409191
-0.00408205
-4.18456e-05
-3.95775e-05
0.0040717
-0.00406062
-4.70476e-05
-4.45129e-05
0.00404901
-0.00403662
-5.26986e-05
-4.98985e-05
0.00402366
-0.00400988
-5.87814e-05
-5.57263e-05
0.00399549
-0.00398022
-6.52499e-05
-6.19667e-05
0.0039643
-0.00394748
-7.20818e-05
-6.85746e-05
0.00392998
-0.00391152
-7.91919e-05
-7.55138e-05
0.00389239
-0.0038723
-8.65529e-05
-8.27314e-05
0.00385149
-0.0038297
-9.4032e-05
-9.01122e-05
0.0038072
-0.00378371
-0.000101574
-9.76061e-05
0.00375952
-0.00373433
-0.000109072
-0.000105108
0.00370845
-0.00368158
-0.000116446
-0.000112527
0.00365403
-0.00362552
-0.000123627
-0.00011979
0.00359637
-0.00356626
-0.000130542
-0.000126834
0.0035055
-0.00341206
-0.000137233
-0.000133595
0.00334617
-0.0033246
-8.38207e-05
-0.000100961
-5.13611e-05
2.17287e-05
-0.00325218
-0.0032783
-9.76609e-05
0.00013117
-0.00363292
-7.39776e-05
-0.00341755
2.30421e-05
0.00416644
0.00420428
1.45729e-05
0.000186539
-0.0037709
4.99821e-05
-0.00327256
0.000833539
-0.00300086
0.00390056
5.85451e-05
-0.000109426
-0.00322742
-4.07331e-06
-0.00318956
-0.00239548
0.00367564
0.000412448
-0.00181623
-0.000298521
-0.00358666
-0.00351954
0.00369838
-3.41084e-06
0.000158615
-2.50981e-06
-0.0036902
0.00368496
-0.00021273
-0.000137754
-0.00368361
0.00366009
-0.000155623
-0.000206176
-0.00366461
0.0036792
-0.000147695
-0.000151294
-0.00367387
0.00370048
-0.000139555
-0.000143266
-0.00372618
0.00375119
-0.000131342
-0.000135127
-0.00377527
0.00379867
-0.000122977
-0.000126858
-0.00382114
0.00384292
-0.000114509
-0.000118461
-0.00386378
0.00388395
-0.000106011
-0.000109996
-0.0039032
0.00392175
-9.75795e-05
-0.000101552
-0.00393941
0.00395638
-8.92926e-05
-9.32205e-05
-0.0039725
0.00398794
-8.12307e-05
-8.50701e-05
-0.00400257
0.00401658
-7.3445e-05
-7.71769e-05
-0.0040298
0.00404242
-6.60319e-05
-6.96066e-05
-0.00405429
0.0040656
-5.90451e-05
-6.24414e-05
-0.00407622
0.00408631
-5.25181e-05
-5.57203e-05
-0.00409576
0.00410472
-4.6475e-05
-4.94719e-05
-0.0041131
0.00412104
-4.0926e-05
-4.37136e-05
-0.00412845
0.00413547
-3.58595e-05
-3.84466e-05
-0.00415517
0.00418452
-3.12467e-05
-3.3641e-05
-0.00418004
0.00418263
-7.51236e-06
4.8937e-06
-0.00420401
0.00420345
2.36015e-05
2.95176e-05
4.60645e-05
-2.46063e-05
0.00421311
-1.89131e-05
-1.36958e-05
0.00423606
0.00419359
3.75296e-05
1.59588e-05
0.00418535
0.00424314
-2.335e-05
9.87827e-06
0.00420512
0.00421161
-1.00251e-05
-1.55957e-05
0.0042299
0.00422781
0.00422538
-0.00420565
2.49441e-05
-0.00429503
0.00418544
9.39962e-05
-5.50783e-05
0.00419014
-0.00417576
7.55301e-06
1.94838e-06
0.00414194
-0.00413531
-3.54798e-05
-3.34541e-05
0.00412831
-0.0041208
-4.02821e-05
-3.79898e-05
0.00411288
-0.00410439
-4.55831e-05
-4.29941e-05
0.00409546
-0.00408589
-5.14144e-05
-4.85106e-05
0.00407584
-0.0040651
-5.77901e-05
-5.45658e-05
0.00405383
-0.00404183
-6.47047e-05
-6.11637e-05
0.00402926
-0.00401591
-7.21338e-05
-6.82901e-05
0.00400197
-0.00398718
-8.00333e-05
-7.59112e-05
0.00397178
-0.0039555
-8.83573e-05
-8.39807e-05
0.00393857
-0.00392074
-9.70282e-05
-9.24402e-05
0.00390225
-0.00388284
-0.000105969
-0.000101217
0.00386274
-0.00384171
-0.000115068
-0.000110204
0.00382
-0.00379735
-0.00012423
-0.000119312
0.00377402
-0.00374975
-0.000133345
-0.000128431
0.00372482
-0.00369896
-0.000142311
-0.000137455
0.00367246
-0.00364504
-0.000151041
-0.00014629
0.00361702
-0.00358811
-0.000159457
-0.000154856
0.00355862
-0.00352832
-0.000167526
-0.000163083
0.00345834
-0.00336692
-0.000175245
-0.000170944
0.00334292
-0.00330138
-0.00015096
-0.00012166
-0.000104802
7.69948e-05
-0.00319961
-0.00324851
-0.000157676
0.000125656
-0.00357204
-1.2925e-05
-0.00335464
0.00032112
-0.00325848
5.15968e-05
-0.00332823
0.00420759
-0.00420903
2.5045e-05
0.0041966
-2.70163e-06
3.46609e-05
-2.21846e-05
0.00421742
-7.968e-06
0.00422807
0.00034383
-0.00284913
8.97971e-05
-0.00320236
-0.00158839
-0.00194293
-0.00285486
0.00332138
-5.4074e-05
-8.53341e-05
7.34752e-05
-0.00318775
-0.000134481
-0.00319936
-0.00261601
-0.000537367
-0.00347392
-0.00349752
0.00357162
-7.75128e-05
-1.75305e-05
-0.00362987
0.00360925
-0.000192109
-0.000196003
-0.00359023
0.00361784
-0.000183232
-0.000187157
-0.00364479
0.00367125
-0.000174151
-0.000178243
-0.00369699
0.00372219
-0.000164749
-0.00016901
-0.00374657
0.00377034
-0.000155113
-0.000159511
-0.00379327
0.00381556
-0.000145269
-0.000149787
-0.003837
0.00385778
-0.000135293
-0.000139896
-0.0038777
0.00389697
-0.000125279
-0.000129921
-0.00391538
0.00393314
-0.000115332
-0.000119963
-0.00395004
0.00396631
-0.000105557
-0.000110129
-0.00398175
0.00399657
-9.60468e-05
-0.000100516
-0.00401061
0.00402404
-8.68829e-05
-9.12119e-05
-0.00403674
0.00404886
-7.81516e-05
-8.22984e-05
-0.00406027
0.00407114
-6.99191e-05
-7.38546e-05
-0.00408136
0.00409107
-6.22303e-05
-6.5934e-05
-0.00410017
0.00410881
-5.51136e-05
-5.85728e-05
-0.00411689
0.00412454
-4.85823e-05
-5.17913e-05
-0.00413169
0.00413846
-4.26295e-05
-4.55934e-05
-0.00414478
0.00415075
-3.72252e-05
-3.99583e-05
-0.0041905
0.00418126
1.73102e-06
-3.48536e-05
1.74295e-06
3.33858e-05
-6.45138e-05
0.00424423
-3.07179e-06
1.20909e-05
0.00422704
0.00422391
-3.21202e-06
-1.14378e-06
0.00418971
0.00417542
-3.53621e-05
5.09071e-05
0.00418958
0.0041751
0.00425653
0.0042298
-0.00421267
7.81424e-06
-0.00418197
0.00422774
4.82294e-05
-7.25099e-06
0.00419499
-0.00415064
-3.67995e-05
-1.57289e-05
0.00414467
-0.00413826
-4.18908e-05
-3.94256e-05
0.00413151
-0.00412426
-4.75327e-05
-4.47412e-05
0.00411662
-0.00410844
-5.37714e-05
-5.06268e-05
0.00409982
-0.0040906
-6.06344e-05
-5.71224e-05
0.00408092
-0.00407058
-6.81309e-05
-6.42476e-05
0.00405974
-0.0040482
-7.62506e-05
-7.20023e-05
0.00403612
-0.00402329
-8.49645e-05
-8.03677e-05
0.0040099
-0.0039957
-9.42241e-05
-8.93053e-05
0.00398092
-0.00396531
-0.000103968
-9.87609e-05
0.00394909
-0.00393201
-0.00011411
-0.000108662
0.00391431
-0.00389573
-0.000124552
-0.000118919
0.00387651
-0.0038564
-0.000135176
-0.000129419
0.00383566
-0.00381403
-0.000145864
-0.00014005
0.00379177
-0.00376863
-0.000156492
-0.000150688
0.00374487
-0.00372024
-0.000166941
-0.00016121
0.00369503
-0.00366896
-0.000177103
-0.000171505
0.00364235
-0.00361492
-0.000186884
-0.000181472
0.00358698
-0.00355829
-0.000196212
-0.000191023
0.00352916
-0.00349938
-0.000205018
-0.000200081
0.00341243
-0.00335023
-0.000213163
-0.000208609
0.00329145
-0.00323886
-0.000187072
-0.00021646
-0.000104948
0.000102497
-0.00319691
-0.00319518
-0.000148624
9.70383e-05
-0.00334796
1.45767e-05
-0.00331762
2.73875e-05
0.0041813
0.00421609
3.68066e-06
0.000205053
-0.00311971
-0.00030308
-0.00377236
2.37043e-05
-0.00317591
5.30819e-05
-0.00329151
9.14998e-05
-0.00322039
-0.00372551
-0.000833431
0.000291558
-0.000568757
-0.00344831
-0.000153891
-0.00332691
7.53746e-05
-0.00316063
-0.000139979
6.04827e-05
-0.00311742
-0.000133857
-0.0032013
-0.00336231
-0.00316454
0.00333511
-0.000224648
0.00330155
-0.00359263
-0.000542353
-0.000400353
-0.00346661
0.00354421
-0.000155109
-0.00014903
-0.00357097
0.00359755
-0.000218686
-0.00022276
-0.00362369
0.0036495
-0.000209037
-0.000213302
-0.00367471
0.0036995
-0.000198943
-0.000203459
-0.00372364
0.00374728
-0.000188392
-0.000193142
-0.00377019
0.00379256
-0.000177482
-0.000182425
-0.00381416
0.00383519
-0.000166292
-0.000171389
-0.00385542
0.00387506
-0.00015493
-0.000160131
-0.0038939
0.00391213
-0.000143511
-0.000148761
-0.00392957
0.00394639
-0.000132158
-0.000137399
-0.00396243
0.00397787
-0.000120994
-0.000126168
-0.00399254
0.00400662
-0.000110129
-0.000115186
-0.00401997
0.00403275
-9.96656e-05
-0.000104558
-0.00404483
0.00405637
-8.96938e-05
-9.43779e-05
-0.00406725
0.00407762
-8.02883e-05
-8.4731e-05
-0.00408736
0.00409664
-7.15026e-05
-7.56796e-05
-0.00410533
0.00411359
-6.33707e-05
-6.72667e-05
-0.00412131
0.00412864
-5.5908e-05
-5.95165e-05
-0.00413548
0.00414196
-4.91109e-05
-5.24347e-05
-0.00414801
0.00415374
-4.29555e-05
-4.60067e-05
-0.00415908
0.00419822
-3.74007e-05
-4.01976e-05
-0.0042057
0.00421964
1.1113e-05
-5.74534e-06
-0.00416737
0.00418869
6.07021e-06
4.95647e-05
5.24191e-05
-3.77849e-05
0.0042124
7.05701e-06
-3.41492e-05
0.00421578
0.00424077
4.19369e-05
6.93177e-06
0.00419537
0.00422806
-2.90515e-06
-1.16446e-06
0.00419378
0.00417944
5.215e-06
-9.24409e-06
0.00419361
0.00417915
-1.79452e-05
7.8328e-06
0.00422753
0.00422934
2.9942e-06
-1.08438e-06
0.00421418
0.00423889
0.00424402
-0.00419214
-3.64487e-06
-0.00422798
0.00420707
1.98182e-05
1.97236e-05
0.00419667
-0.004183
-5.85561e-06
-2.72643e-06
0.00415903
-0.0041536
-4.22288e-05
-3.96983e-05
0.00414788
-0.00414174
-4.80319e-05
-4.51437e-05
0.00413527
-0.00412833
-5.44764e-05
-5.12072e-05
0.00412102
-0.00411319
-6.16067e-05
-5.7934e-05
0.00410495
-0.00409614
-6.94469e-05
-6.53584e-05
0.00408689
-0.00407702
-7.80029e-05
-7.34961e-05
0.00406668
-0.00405567
-8.72606e-05
-8.23438e-05
0.00404416
-0.00403194
-9.71856e-05
-9.18782e-05
0.00401919
-0.00400569
-0.000107723
-0.000102055
0.00399164
-0.0039768
-0.000118799
-0.000112812
0.0039614
-0.0039452
-0.000130317
-0.000124064
0.00392841
-0.0039108
-0.000142161
-0.000135706
0.00389261
-0.00387358
-0.000154203
-0.000147615
0.00385397
-0.00383353
-0.000166305
-0.00015966
0.00381251
-0.00379068
-0.000178327
-0.000171701
0.00376829
-0.00374509
-0.000190134
-0.000183601
0.00372137
-0.00369688
-0.000201598
-0.000195227
0.00367189
-0.00364617
-0.000212606
-0.000206461
0.00362
-0.00359315
-0.000223058
-0.000217193
0.0035659
-0.00353806
-0.000232865
-0.000227328
0.00350989
-0.00348115
-0.000241898
-0.000236777
0.00345218
-0.00338906
-0.000250185
-0.000245437
0.00332794
-0.00324626
-0.000215541
-0.000209749
-0.000182156
0.000123837
-0.00314298
-0.00321864
-0.000209769
6.96988e-05
-0.0032126
-0.00360033
-0.000561059
7.24573e-05
-0.00316846
0.00424433
-0.00425158
1.33191e-05
0.00424397
-3.37897e-05
2.25239e-05
-1.98854e-05
0.00421154
3.05488e-05
0.00419905
1.56055e-05
-0.00328015
5.43353e-05
-0.00325435
-1.04057e-05
-0.0033194
9.28156e-05
-0.00323783
0.00013118
-0.00323133
0.000169219
-0.0031628
-0.000169183
0.000166653
-0.00314045
-0.000231946
-0.00315588
-0.00327701
-0.00357864
0.00344478
-0.000408493
-0.000493263
0.000575598
-0.00368266
0.00369466
-0.00380694
-0.000380985
-0.000445038
-0.00334375
0.00342694
-0.000307834
-0.000299322
-0.00352105
0.0035864
-0.000220466
-0.000243138
-0.00361143
0.00363621
-0.00024346
-0.000247791
-0.00366051
0.00368449
-0.000233012
-0.000237608
-0.00370791
0.00373093
-0.00022197
-0.000226878
-0.00375335
0.00377533
-0.000210371
-0.000215563
-0.00379665
0.00381749
-0.000198316
-0.000203746
-0.00383763
0.00385725
-0.000185913
-0.00019153
-0.00387615
0.00389451
-0.000173291
-0.000179034
-0.00391214
0.00392922
-0.000160588
-0.000166392
-0.00394557
0.00396135
-0.000147945
-0.000153744
-0.00397642
0.00399092
-0.000135501
-0.00014123
-0.00400472
0.00401798
-0.000123386
-0.000128984
-0.00403055
0.0040426
-0.000111714
-0.000117129
-0.00405399
0.00406489
-0.000100588
-0.000105771
-0.00407516
0.00408496
-9.00892e-05
-9.50041e-05
-0.00409418
0.00410295
-8.02792e-05
-8.48978e-05
-0.00411119
0.00411902
-7.11968e-05
-7.55015e-05
-0.00412634
0.00413329
-6.28604e-05
-6.68434e-05
-0.00413979
0.00414595
-5.52684e-05
-5.89313e-05
-0.0041517
0.00415714
-4.83995e-05
-5.17532e-05
-0.00416222
0.00416703
-4.22123e-05
-4.52778e-05
-0.00420074
0.00421998
-8.1236e-06
-3.9456e-05
1.7964e-05
3.67582e-06
-3.33479e-05
0.00424207
-1.26868e-05
-2.07172e-05
0.00424918
0.00423176
-1.00944e-05
6.37476e-06
0.00419909
0.00418462
-2.61445e-06
-1.18414e-06
0.00419758
0.0041832
4.96712e-06
-8.735e-06
0.00419738
0.00418294
-3.67892e-05
2.07152e-05
0.00424361
0.00418382
0.00423972
0.00424032
-0.00423906
-4.90236e-06
-0.0042347
0.00421924
3.52782e-05
2.53458e-05
0.0042027
-0.00416696
-4.15973e-05
-3.90888e-05
0.00416216
-0.00415699
-4.73938e-05
-4.45014e-05
0.00415156
-0.00414572
-5.38702e-05
-5.05777e-05
0.00413957
-0.00413298
-6.10732e-05
-5.73527e-05
0.00412604
-0.0041186
-6.90419e-05
-6.48726e-05
0.00411079
-0.00410244
-7.77982e-05
-7.31688e-05
0.00409368
-0.00408434
-8.73451e-05
-8.22545e-05
0.00407456
-0.00406416
-9.7665e-05
-9.21235e-05
0.00405329
-0.00404175
-0.000108718
-0.000102748
0.00402973
-0.00401701
-0.000120442
-0.000114078
0.00400378
-0.00398983
-0.000132752
-0.000126041
0.00397535
-0.00396013
-0.000145538
-0.000138541
0.00394438
-0.00392787
-0.000158673
-0.00015146
0.00391082
-0.00389301
-0.000172013
-0.000164662
0.00387467
-0.00385557
-0.000185405
-0.000178
0.00383595
-0.00381559
-0.000198692
-0.000191318
0.00379473
-0.00377314
-0.000211721
-0.000204462
0.00375108
-0.00372833
-0.000224349
-0.000217284
0.00370515
-0.00368131
-0.000236443
-0.000229645
0.00365708
-0.00363225
-0.000247889
-0.000241421
0.00360707
-0.00358136
-0.000258585
-0.000252504
0.00355534
-0.00352881
-0.000268428
-0.000262797
0.00350202
-0.00347479
-0.000277411
-0.000272222
0.0034038
-0.00333394
-0.0002854
-0.000280744
0.00329077
-0.00327109
-0.00025163
-0.000252934
-0.000352878
0.000142555
-0.00311659
-0.00322559
-0.00019891
0.000199605
-0.00315657
-0.00319807
-0.000271934
2.13394e-05
-0.00316149
2.24358e-05
0.00420082
0.00425779
-7.99749e-06
0.000311007
-0.00374697
-0.000370985
1.66156e-05
-0.00324243
0.00038131
-0.00375297
2.44154e-05
-0.00320328
5.52033e-05
-0.00321674
5.32674e-05
-0.00323011
9.39917e-05
-0.00320064
0.000132848
-0.00319496
0.000171298
-0.00316744
0.000175912
-0.00311676
-0.000227683
0.000198342
-0.00312723
-0.000250217
-0.00317553
-0.00323905
-0.00382294
0.00369863
-0.000256672
-0.000459709
-0.00365917
0.000371912
0.00389588
-0.00376975
-0.00058584
-0.000298042
-0.00362206
0.0035699
-0.000356328
-0.000368474
-0.00355988
0.00353795
-0.000285896
-0.000289307
-0.00357562
0.00363205
-0.000276896
-0.000280808
-0.00365516
0.003678
-0.0002663
-0.000270901
-0.00370037
0.00372241
-0.000255058
-0.000259978
-0.00374394
0.00376511
-0.000243138
-0.000248406
-0.00378572
0.00380594
-0.000230588
-0.000236178
-0.00382557
0.00384476
-0.000217507
-0.000223372
-0.00386333
0.00388143
-0.00020402
-0.0002101
-0.0038989
0.00391588
-0.000190269
-0.000196496
-0.00393219
0.00394802
-0.00017641
-0.000182712
-0.00396317
0.00397783
-0.000162599