/*--------------------------------*- C++ -*----------------------------------*\
  =========                 |
  \\      /  F ield         | OpenFOAM: The Open Source CFD Toolbox
   \\    /   O peration     | Website:  https://openfoam.org
    \\  /    A nd           | Version:  10
     \\/     M anipulation  |
\*---------------------------------------------------------------------------*/
FoamFile
{
    format      ascii;
    class       volVectorField;
    location    "23.5";
    object      U;
}
// * * * * * * * * * * * * * * * * * * * * * * * * * * * * * * * * * * * * * //

dimensions      [0 1 -1 0 0 0 0];

internalField   nonuniform List<vector> 
28942
(
(-0.090638 0.0484059 -4.08651e-20)
(-0.0881083 0.0394812 -8.63313e-21)
(0.502263 -0.34893 6.36374e-20)
(1.01559 0.0427383 -1.24509e-19)
(0.993884 0.0524867 4.08485e-20)
(0.239194 0.00710292 0)
(0.286869 0.023185 7.04146e-22)
(0.32379 0.00427937 -7.21524e-22)
(1.23516 -0.111328 1.15386e-21)
(1.22159 -0.0979091 -1.51425e-21)
(-0.0775372 -0.228621 -1.50491e-19)
(-0.0359056 -0.18716 6.91393e-20)
(-0.0988611 -0.142634 0)
(-0.113986 -0.166289 0)
(0.697656 -0.010552 -3.19807e-22)
(0.688375 -0.00768594 -9.40928e-23)
(0.93125 0.080132 3.23926e-20)
(0.915184 0.0640329 5.15221e-20)
(0.349528 -0.484604 3.26487e-20)
(0.664361 -0.771897 -9.78169e-21)
(0.981374 0.216347 4.47285e-20)
(0.982747 0.201917 0)
(0.0412439 -0.0155565 1.41736e-19)
(-0.084173 -0.0466341 7.87922e-20)
(0.749996 -0.17724 1.57835e-19)
(1.14326 -0.283677 -1.4344e-19)
(0.205448 -0.508581 4.63636e-19)
(0.213855 -0.425624 -1.82206e-19)
(0.780953 -0.566436 -1.39054e-20)
(0.47516 -0.329181 -6.31722e-21)
(0.246146 -0.0171397 0)
(0.319195 -0.0231919 2.33031e-22)
(0.402617 -0.000526781 8.54865e-21)
(0.554867 -0.0141116 -1.18378e-21)
(0.432933 0.457904 4.26373e-20)
(0.36116 0.499668 -4.51419e-20)
(0.576036 0.646032 -1.43356e-19)
(0.374565 0.571583 -5.40335e-20)
(0.129312 0.01366 -7.4159e-22)
(0.199131 0.450528 -9.63716e-20)
(0.65699 -0.0597897 0)
(0.855976 -0.0779179 0)
(1.29087 -0.355745 3.88969e-22)
(1.26566 -0.367932 -1.16201e-21)
(1.2739 -0.331775 -9.51821e-22)
(0.453978 0.00343248 6.03261e-22)
(0.423532 0.0133309 -9.66528e-22)
(0.583489 -0.00187635 -4.86338e-21)
(0.562066 -0.00132755 1.36773e-21)
(0.463299 0.00033368 -6.27488e-21)
(0.370599 -0.00620585 3.79456e-21)
(1.1285 0.0214123 -2.33917e-21)
(1.12824 0.0163532 -2.34825e-21)
(1.23379 -0.131444 -2.19511e-22)
(1.2182 -0.11781 1.49112e-22)
(1.40677 -0.16284 1.25916e-19)
(1.60381 -0.23106 6.71177e-20)
(-0.0894723 -0.0768475 -9.29601e-20)
(-0.0806511 -0.108758 0)
(-0.0776894 -0.0701395 3.34735e-20)
(-0.0825109 -0.0583019 8.15e-20)
(-0.0372552 -0.025885 -6.54942e-20)
(-0.0364863 -0.0271031 -6.90647e-20)
(1.40136 -0.588393 0)
(1.55668 -0.503732 2.56306e-20)
(1.42606 -0.436452 -1.12593e-20)
(1.34895 -0.437209 0)
(0.947513 -0.249816 -2.80372e-20)
(0.968418 -0.268246 -1.79942e-20)
(-0.057379 0.0406302 1.35619e-19)
(-0.071478 0.0440176 -4.34531e-20)
(-0.090474 0.0636461 1.09701e-19)
(0.955952 -0.342358 0)
(0.964545 -0.301238 9.49816e-20)
(0.903163 -0.465185 2.2924e-20)
(1.41191 0.280155 3.88686e-20)
(1.43814 0.257076 -4.29132e-20)
(1.40716 0.221953 -2.42746e-20)
(0.155778 -0.0879438 3.22604e-21)
(0.223597 -0.139391 -6.44268e-20)
(1.05314 -0.655986 -1.34814e-20)
(0.785411 -0.532789 1.90486e-20)
(-0.0785836 0.0442723 2.36362e-19)
(-0.0807797 0.0441805 -9.09491e-20)
(1.23604 0.563052 -3.53642e-21)
(1.16408 0.525252 -2.4219e-20)
(1.06023 0.630416 1.92293e-20)
(0.911332 0.62981 -6.73604e-20)
(0.874859 0.614259 4.63302e-20)
(0.655997 0.44893 -2.22015e-21)
(0.716275 0.531929 -1.54891e-20)
(0.75548 0.607159 2.43449e-20)
(-0.133238 -0.430718 -2.06145e-20)
(-0.0689398 -0.396352 -5.29272e-21)
(-0.141609 -0.31229 1.06021e-20)
(-0.184845 -0.393021 -1.45081e-19)
(-0.178945 -0.445889 1.85655e-19)
(0.368522 0.289616 -9.74437e-20)
(0.412338 0.349138 2.21901e-20)
(-0.0111422 0.0135598 0)
(1.00707 0.0043185 0)
(0.96535 0.0535499 -9.17709e-20)
(0.889649 0.135692 6.73228e-20)
(1.07996 0.118521 0)
(1.34218 0.0955799 0)
(1.34477 0.0936468 0)
(1.35525 0.0977877 1.67535e-20)
(1.07591 0.15743 -8.24456e-21)
(1.07238 0.168159 8.48783e-20)
(1.06658 0.148308 4.5054e-20)
(-0.0962245 -0.0930767 1.88417e-19)
(-0.0994686 -0.0984784 -2.11397e-19)
(0.0538012 0.0146047 -7.54245e-20)
(0.00693021 -0.0454377 7.08748e-20)
(-0.0825172 -0.024834 1.36924e-19)
(0.158924 0.190184 8.37918e-20)
(0.372288 0.186933 2.02682e-19)
(0.287115 0.398719 1.48069e-20)
(0.12705 0.307106 -4.91173e-19)
(1.25361 0.437052 2.10725e-21)
(1.11148 0.416176 4.08179e-20)
(1.14879 0.398375 -7.05115e-20)
(0.86534 -0.675949 -7.11954e-22)
(0.585957 -0.427481 6.54607e-21)
(0.156006 -0.0438696 -2.46855e-19)
(0.150295 -0.117845 0)
(0.30806 -0.0981181 1.34129e-19)
(0.546849 -0.423899 3.12265e-21)
(0.780078 -0.66877 1.87977e-21)
(0.553681 0.00183297 4.1644e-21)
(0.58959 3.24519e-05 -2.74524e-21)
(0.517007 0.00149806 -1.4952e-22)
(0.535743 -0.836578 0)
(0.562015 -0.656723 0)
(1.06173 -0.133013 -1.84557e-20)
(1.04794 -0.114697 1.086e-19)
(1.0321 -0.0810634 0)
(0.875755 -0.793568 0)
(0.869479 -0.730551 -2.2546e-20)
(0.721172 0.682471 9.21641e-20)
(-0.0701668 -0.100014 1.39154e-19)
(-0.06331 -0.0682251 -1.06064e-19)
(0.597441 -0.558697 -3.3503e-21)
(1.27449 -0.291665 -4.3376e-21)
(1.25924 -0.298847 5.45023e-22)
(1.55693 -0.157832 -1.91837e-20)
(1.57057 -0.124506 2.5668e-20)
(1.55878 -0.10011 8.67295e-20)
(-0.0655219 -0.0507498 4.73664e-20)
(0.832466 0.673439 1.21022e-19)
(0.964936 0.649666 -3.37911e-20)
(1.05095 0.704725 2.51868e-23)
(0.384576 -0.0113313 -1.7949e-23)
(0.382776 -0.0128284 -5.09958e-22)
(0.419175 -0.0170101 -4.94722e-23)
(0.459877 -0.0140946 -1.19984e-23)
(0.781014 0.661303 1.61318e-20)
(0.426817 0.397856 0)
(0.0978466 -0.272953 8.35557e-20)
(0.0798614 -0.184873 -9.17049e-20)
(-0.0210891 -0.248002 6.43935e-20)
(0.532715 0.0607489 -1.66328e-19)
(1.05718 0.215354 -7.96632e-20)
(0.525876 -0.0145584 1.46979e-22)
(1.35634 -0.489393 2.83455e-20)
(1.31138 -0.567311 7.35438e-20)
(0.962227 0.238046 1.03483e-19)
(0.942828 0.272593 7.591e-21)
(0.925843 0.160576 5.841e-20)
(0.942424 0.167041 -4.21977e-20)
(0.98629 0.240021 0)
(1.12598 0.0281287 4.27889e-21)
(1.13074 0.0258541 7.96912e-21)
(1.17103 -0.0664845 -1.4221e-21)
(1.18148 -0.06795 1.93055e-21)
(1.08685 0.146942 9.7055e-21)
(1.09857 0.154395 -2.72365e-20)
(1.08721 0.15695 0)
(1.07579 0.147563 5.9926e-21)
(1.08525 0.167095 0)
(1.08898 0.217759 -2.20957e-20)
(1.08251 0.230967 -1.2462e-20)
(1.05995 0.254017 -2.33617e-20)
(1.07277 0.243443 0)
(1.09216 0.262762 7.3837e-20)
(1.07553 0.27611 2.76319e-21)
(1.04347 0.269471 -1.37897e-20)
(0.990731 0.320864 -6.05042e-20)
(0.990742 0.265139 -1.06074e-20)
(-0.144268 -0.162773 2.69712e-20)
(-0.0477704 -0.139251 -1.14246e-20)
(-0.0869241 -0.0548701 -1.01128e-19)
(0.494861 0.000176172 -3.42093e-21)
(0.622802 -0.00289898 0)
(0.0503391 -0.0484075 8.24881e-20)
(0.0313537 -0.0280065 4.06384e-20)
(0.564508 -0.000233123 7.72135e-22)
(0.656947 -0.00318801 2.47156e-22)
(0.651759 -0.00306542 0)
(0.553965 0.00215511 3.89975e-22)
(1.14164 0.518196 1.48962e-20)
(1.11413 0.523332 -6.76416e-20)
(1.13356 0.559724 -2.87477e-20)
(-0.099006 -0.0912126 8.16239e-20)
(-0.0271192 -0.0194362 -1.05873e-19)
(-0.0258998 -0.0153947 1.03681e-19)
(-0.0717963 -0.0452508 0)
(-0.0327601 -0.019217 1.38403e-19)
(-0.0306964 -0.0195733 -1.2044e-19)
(-0.0822558 -0.0247869 -1.24168e-19)
(-0.112161 -0.0487592 -1.24491e-19)
(-0.0680591 -0.0334702 0)
(0.0535492 0.194965 0)
(0.0241374 0.11902 0)
(0.00933746 0.0659794 0)
(1.33297 0.0885807 -1.49936e-21)
(1.32164 0.0805129 0)
(1.33533 0.0853927 1.52935e-21)
(0.930268 -0.113667 2.00563e-19)
(0.943741 -0.119119 -7.28509e-20)
(0.94012 -0.102122 0)
(0.960753 0.568134 7.4551e-22)
(0.951881 0.538445 -1.5102e-21)
(0.969801 0.583655 4.31079e-22)
(0.943975 0.49325 0)
(0.93669 0.431636 1.11338e-21)
(0.929979 0.355475 0)
(0.959934 0.362868 0)
(0.92498 0.267089 -5.28479e-21)
(0.957411 0.27469 0)
(0.96467 0.439006 1.23298e-21)
(0.969315 0.50095 0)
(0.974973 0.546487 -5.26425e-22)
(0.981295 0.576829 7.45211e-22)
(0.987858 0.592393 -4.30601e-22)
(0.922093 0.169324 5.05746e-21)
(0.955954 0.177045 1.93665e-22)
(0.979496 0.588138 -7.64897e-24)
(0.994566 0.59719 5.78202e-22)
(0.989114 0.586466 -2.67942e-21)
(0.92057 0.0653256 -4.89034e-24)
(0.954457 0.0709245 2.05915e-22)
(1.00149 0.595287 -1.05619e-21)
(0.920598 -0.0428416 -5.20078e-21)
(0.921773 -0.150997 5.1966e-21)
(0.953845 -0.0385811 -4.02088e-22)
(0.954441 -0.148037 -8.03653e-22)
(0.997862 0.582016 2.60607e-21)
(1.00828 0.590619 6.72366e-22)
(0.924749 -0.255227 0)
(0.95647 -0.253841 7.92536e-22)
(1.00679 0.579445 -2.87456e-25)
(1.01452 0.587201 2.88663e-25)
(0.929398 -0.351984 0)
(0.959812 -0.3523 0)
(1.01439 0.579682 0)
(1.01973 0.58656 0)
(0.93569 -0.438101 0)
(0.964452 -0.440154 -3.46406e-22)
(1.02126 0.583646 1.03159e-21)
(1.02419 0.589739 2.59213e-25)
(0.943009 -0.511073 -1.74132e-23)
(0.969898 -0.514582 3.68953e-22)
(1.02728 0.590651 -1.0365e-21)
(1.02775 0.595996 0)
(0.951029 -0.569588 0)
(0.975838 -0.57412 0)
(1.03274 0.599742 6.27872e-23)
(1.0307 0.604447 -1.07469e-21)
(0.95896 -0.613326 -1.81759e-21)
(0.981547 -0.618358 0)
(1.03766 0.610162 1.97385e-23)
(1.033 0.614193 1.01678e-21)
(0.966382 -0.643332 2.6635e-21)
(0.986765 -0.648321 7.64806e-22)
(1.04184 0.621732 -1.03769e-21)
(1.03455 0.62472 0)
(0.972845 -0.661289 -8.40431e-22)
(0.990658 -0.665648 -5.03495e-22)
(1.04532 0.633324 5.4107e-22)
(1.03505 0.635168 -1.08488e-21)
(0.977552 -0.66949 3.07907e-21)
(0.992931 -0.672847 -3.4637e-21)
(1.04696 0.644992 -5.90655e-22)
(1.03394 0.644977 -1.89081e-23)
(0.980692 -0.670537 0)
(0.993481 -0.672386 -1.55443e-21)
(1.04718 0.654336 1.25349e-21)
(1.0308 0.652163 -2.46476e-21)
(0.982645 -0.666604 0)
(0.992785 -0.666782 0)
(1.0601 0.641518 5.84301e-22)
(1.06351 0.652828 2.58707e-21)
(1.04441 0.659875 0)
(1.02455 0.654873 1.326e-21)
(1.04905 0.61577 3.32842e-22)
(1.05533 0.628659 -6.70349e-23)
(1.03486 0.592561 0)
(1.04227 0.603689 1.07101e-21)
(1.01878 0.575148 2.20455e-24)
(1.02709 0.582851 0)
(0.999804 0.569107 0)
(1.00977 0.570343 0)
(0.97722 0.574694 0)
(0.988839 0.570919 0)
(0.952914 0.571732 -8.40678e-22)
(0.964999 0.576104 -1.85246e-22)
(0.929911 0.527514 9.01049e-22)
(0.941164 0.556395 7.63139e-22)
(0.9112 0.422893 -2.11543e-21)
(0.920182 0.4835 -2.32233e-21)
(0.896822 0.260797 0)
(0.903246 0.348144 0)
(0.89024 0.0613602 1.12736e-23)
(0.89244 0.164194 0)
(0.891833 -0.149585 0)
(0.890056 -0.0442522 0)
(0.901643 -0.34547 0)
(0.89571 -0.251109 0)
(0.918523 -0.501303 0)
(0.909409 -0.429613 0)
(0.938504 -0.603114 0)
(0.928431 -0.559195 0)
(0.956835 -0.65324 0)
(0.948074 -0.633891 0)
(0.970263 -0.666331 1.14408e-21)
(0.964081 -0.663225 0)
(0.97457 -0.664219 3.47209e-22)
(0.983219 -0.65955 -3.41993e-22)
(0.990791 -0.658093 3.3908e-22)
(1.00877 -0.673725 0)
(1.00386 -0.664816 1.38753e-21)
(1.00704 -0.671822 7.93147e-22)
(1.00742 -0.651853 -2.63309e-22)
(1.00868 -0.668049 9.56504e-22)
(1.00118 -0.579525 -9.93177e-24)
(1.00462 -0.622999 0)
(0.993597 -0.445318 0)
(0.997307 -0.520177 0)
(0.988116 -0.256765 0)
(0.990426 -0.356522 0)
(0.986466 -0.0388848 0)
(0.986808 -0.149545 -1.59329e-27)
(0.987977 0.17813 -1.25676e-23)
(0.986928 0.0715289 0)
(0.991232 0.366593 0)
(0.989517 0.277589 0)
(0.995898 0.505172 0)
(0.993755 0.443692 0)
(1.00244 0.581753 0)
(0.998891 0.551427 5.50585e-22)
(1.00994 0.602702 -8.99612e-23)
(1.00644 0.597668 5.69748e-22)
(1.01869 0.595493 0)
(1.0145 0.600505 3.98693e-22)
(1.02509 0.590008 0)
(1.0222 0.591354 0)
(1.02843 0.598008 0)
(1.02718 0.592449 0)
(1.02877 0.61493 0)
(1.02898 0.605853 0)
(1.0254 0.633608 2.76457e-22)
(1.02769 0.624426 0)
(1.01524 0.646554 1.2389e-21)
(1.02152 0.64152 2.79197e-22)
(1.00601 0.646725 -1.35566e-21)
(1.06474 0.660775 -2.67888e-21)
(0.977317 -0.658876 -6.84773e-22)
(0.99938 -0.654767 1.21445e-21)
(1.01463 0.649921 0)
(0.993223 0.639115 0)
(1.0632 0.662825 0)
(1.0383 0.65845 0)
(1.07286 0.635132 0)
(1.08474 0.658001 -6.0649e-22)
(1.07952 0.647876 -5.67973e-22)
(1.05631 0.607866 -6.70854e-22)
(1.06502 0.621377 1.36731e-22)
(1.03746 0.583953 -1.96454e-24)
(1.04701 0.59534 0)
(1.01732 0.565597 0)
(1.0276 0.573864 0)
(0.994471 0.557723 0)
(1.00638 0.559972 0)
(0.967399 0.561438 0)
(0.981484 0.558737 0)
(0.938018 0.55776 0)
(0.952721 0.562412 0)
(0.910507 0.514895 3.84314e-24)
(0.923816 0.542958 -8.92937e-22)
(0.888157 0.413238 4.15494e-24)
(0.898535 0.471364 2.1393e-21)
(0.872366 0.255324 0)
(0.879478 0.340507 0)
(0.864897 0.0602933 -5.46809e-24)
(0.867395 0.160896 0)
(0.867196 -0.146292 0)
(0.864861 -0.0431949 0)
(0.878982 -0.337848 0)
(0.871932 -0.245567 0)
(0.898673 -0.490746 0)
(0.888056 -0.420254 0)
(0.922068 -0.592095 0)
(0.910215 -0.548067 0)
(0.944186 -0.644087 0)
(0.933518 -0.623567 0)
(0.961552 -0.660344 -7.82142e-22)
(0.953521 -0.655622 0)
(0.982179 -0.650966 0)
(0.978435 -0.651921 -6.60571e-22)
(0.97272 -0.656371 0)
(0.967892 -0.659998 -7.3698e-22)
(1.01614 -0.660484 -1.47891e-21)
(1.00943 -0.649331 -3.22471e-22)
(0.993604 -0.643516 -2.62336e-21)
(0.987249 -0.648103 0)
(1.02581 -0.671741 0)
(1.02173 -0.668655 2.26489e-21)
(1.02933 -0.652463 -8.23731e-24)
(1.02804 -0.667325 -9.62278e-22)
(1.02787 -0.581804 9.9318e-24)
(1.02898 -0.624722 0)
(1.02429 -0.447581 0)
(1.02614 -0.522632 0)
(1.02148 -0.257947 0)
(1.02266 -0.358319 0)
(1.02067 -0.0387897 0)
(1.02085 -0.150072 1.59329e-27)
(1.02117 0.178998 2.52166e-23)
(1.02083 0.072125 0)
(1.02219 0.368096 0)
(1.02168 0.278622 0)
(1.02282 0.506989 -2.98438e-22)
(1.02263 0.445076 0)
(1.02396 0.58363 0)
(1.02309 0.55315 2.97159e-22)
(1.0258 0.604969 -4.20656e-22)
(1.02492 0.599935 -4.6661e-22)
(1.02888 0.597789 0)
(1.02766 0.602891 0)
(1.03055 0.591163 0)
(1.03 0.593107 0)
(1.02948 0.597681 0)
(1.03041 0.592845 0)
(1.02516 0.612958 0)
(1.02776 0.604776 0)
(1.01646 0.628923 -3.97035e-24)
(1.0215 0.621298 0)
(1.00053 0.63753 4.3338e-24)
(1.00962 0.634823 0)
(0.972878 0.624671 1.31304e-21)
(0.988346 0.63495 -1.31217e-21)
(1.08773 0.663199 -1.51209e-21)
(0.976318 0.620874 0)
(0.953421 0.603671 3.15014e-21)
(1.00102 0.634706 0)
(0.975909 -0.651003 0)
(1.00142 -0.63698 2.97002e-22)
(1.05815 0.656166 -4.50202e-21)
(1.08758 0.660508 -1.91603e-21)
(0.955312 0.589163 -1.0021e-21)
(0.930432 0.569527 -4.05048e-21)
(1.02855 0.647176 0)
(0.969397 -0.651867 -2.74508e-21)
(0.974512 -0.648081 1.35282e-21)
(0.986588 -0.632445 6.01321e-22)
(0.992125 -0.624696 -2.90197e-21)
(1.11517 0.660301 -5.97752e-21)
(1.08344 0.646599 3.57844e-21)
(1.11281 0.629992 1.91909e-20)
(1.11619 0.651436 3.57565e-21)
(1.10372 0.651326 -1.25181e-21)
(1.11079 0.659133 4.70988e-21)
(1.08504 0.625952 1.19558e-21)
(1.09495 0.639579 1.04661e-21)
(1.06333 0.597753 2.6228e-22)
(1.07449 0.611582 2.614e-22)
(1.04016 0.573212 1.96454e-24)
(1.05182 0.5849 0)
(1.01617 0.553996 0)
(1.02832 0.562782 0)
(0.989726 0.544337 0)
(1.00341 0.547587 0)
(0.958952 0.54604 0)
(0.974891 0.544253 0)
(0.925393 0.542112 0)
(0.942274 0.546608 0)
(0.893721 0.501261 0)
(0.90903 0.528064 0)
(0.867982 0.402526 -3.5052e-25)
(0.879896 0.459579 0)
(0.85043 0.249016 0)
(0.858152 0.331702 0)
(0.842449 0.0589935 -4.66125e-24)
(0.845098 0.157062 0)
(0.845501 -0.142353 0)
(0.8426 -0.0418795 0)
(0.859229 -0.329144 0)
(0.851099 -0.239116 0)
(0.881537 -0.4789 0)
(0.869542 -0.409702 0)
(0.908007 -0.579601 0)
(0.89457 -0.535566 0)
(0.933525 -0.633232 0)
(0.921151 -0.611671 0)
(0.954452 -0.652447 -3.76124e-22)
(0.944704 -0.646191 1.93254e-22)
(0.962683 -0.653811 1.40305e-21)
(0.979601 -0.642562 3.16257e-22)
(0.977629 -0.64535 -1.34947e-21)
(0.978026 -0.644917 1.021e-21)
(0.982368 -0.638316 0)
(1.02937 -0.653815 9.84809e-22)
(1.0101 -0.628644 2.59716e-21)
(1.02045 -0.641694 -2.21725e-21)
(1.04384 -0.667417 0)
(1.03736 -0.66299 0)
(1.05237 -0.65098 1.84332e-25)
(1.04862 -0.664412 0)
(1.05586 -0.582341 0)
(1.05465 -0.624377 0)
(1.05618 -0.448603 1.14699e-23)
(1.05626 -0.523609 0)
(1.05583 -0.258307 0)
(1.05598 -0.359075 0)
(1.05575 -0.0385789 0)
(1.05579 -0.150073 0)
(1.05511 0.179107 -1.26527e-23)
(1.05557 0.0723669 0)
(1.05315 0.367763 -1.13482e-23)
(1.05433 0.278511 0)
(1.04957 0.506217 0)
(1.05154 0.444381 0)
(1.04548 0.583013 0)
(1.04749 0.552364 0)
(1.04189 0.604796 0)
(1.04354 0.599517 0)
(1.03943 0.597744 0)
(1.04077 0.602942 0)
(1.0364 0.590272 4.44283e-24)
(1.03817 0.592753 0)
(1.03095 0.595263 0)
(1.03407 0.591216 0)
(1.02202 0.608617 0)
(1.02698 0.601472 0)
(1.00818 0.621587 3.39243e-25)
(1.01586 0.61565 0)
(0.986634 0.625518 -4.31065e-25)
(0.998564 0.625349 0)
(0.954146 0.607415 -4.57744e-24)
(0.971968 0.620325 0)
(0.908423 0.54861 3.14228e-21)
(0.932852 0.584281 -6.40614e-22)
(0.904858 0.521169 -8.70984e-22)
(0.881413 0.499324 -1.50976e-21)
(1.04908 0.637363 1.5891e-21)
(0.982894 0.606231 1.81175e-21)
(0.978216 -0.64386 -3.32682e-22)
(0.998941 -0.615282 -2.0172e-21)
(1.07314 0.617489 -2.60488e-22)
(0.930784 0.541807 0)
(1.10268 0.576997 -3.29596e-20)
(0.852345 0.435493 -2.88013e-21)
(0.87717 0.458084 -4.18105e-21)
(1.14476 0.579646 5.61545e-20)
(1.15643 0.530841 -1.08867e-20)
(1.01496 0.623559 0)
(1.1492 0.638783 -4.35817e-21)
(1.14958 0.613289 -2.62112e-21)
(1.14121 0.656009 -3.45469e-21)
(1.14696 0.652639 5.79522e-21)
(1.12162 0.641463 1.30829e-21)
(1.13255 0.651304 7.17692e-22)
(1.09665 0.614045 -5.56798e-22)
(1.10946 0.628487 -6.60689e-22)
(1.07004 0.585284 0)
(1.08351 0.599354 2.89398e-24)
(1.04295 0.560485 0)
(1.05652 0.572298 0)
(1.01547 0.540685 -1.70118e-24)
(1.02932 0.549866 0)
(0.985863 0.529294 0)
(1.00111 0.533565 0)
(0.951825 0.528901 0)
(0.969447 0.528085 0)
(0.914561 0.524632 0)
(0.933328 0.529039 0)
(0.879159 0.48586 -2.95488e-24)
(0.896276 0.511377 0)
(0.850492 0.391051 -3.76825e-25)
(0.863773 0.445871 0)
(0.831327 0.242235 0)
(0.839628 0.322486 0)
(0.823109 0.0577214 8.87635e-24)
(0.825762 0.152965 0)
(0.826956 -0.137834 0)
(0.823511 -0.0402533 0)
(0.842462 -0.319417 0)
(0.833349 -0.231841 0)
(0.867129 -0.465766 0)
(0.853901 -0.397979 0)
(0.896318 -0.565612 0)
(0.881486 -0.521674 0)
(0.924858 -0.620708 0)
(0.910946 -0.598187 0)
(0.948984 -0.642628 1.83925e-22)
(0.937626 -0.634951 0)
(0.967406 -0.64526 0)
(0.958912 -0.64564 3.32917e-22)
(0.979894 -0.640279 9.52178e-24)
(0.974364 -0.643034 0)
(0.977855 -0.64073 1.36845e-21)
(0.984059 -0.638333 -8.0686e-23)
(0.980538 -0.640505 -6.88262e-22)
(0.975687 -0.635211 -4.82247e-22)
(0.976201 -0.638933 3.36067e-22)
(0.978643 -0.62227 1.66e-22)
(0.976429 -0.629579 -1.50137e-22)
(0.98703 -0.602653 0)
(0.982099 -0.613182 1.33761e-21)
(1.0197 -0.618138 5.63307e-22)
(0.993231 -0.590514 1.03308e-21)
(1.00701 -0.603895 -2.22866e-21)
(1.04316 -0.644776 3.37192e-22)
(1.03209 -0.631816 0)
(1.0623 -0.660503 0)
(1.05345 -0.654912 0)
(1.07611 -0.646742 2.84413e-25)
(1.06988 -0.658743 0)
(1.08461 -0.580424 0)
(1.08102 -0.621391 0)
(1.08882 -0.44793 -1.14699e-23)
(1.08713 -0.522467 0)
(1.09071 -0.257955 0)
(1.08996 -0.358621 0)
(1.0911 -0.0386122 0)
(1.09113 -0.149848 0)
(1.08914 0.178146 0)
(1.09049 0.0719224 0)
(1.08408 0.365601 2.34231e-25)
(1.08702 0.276976 0)
(1.07616 0.503088 0)
(1.08042 0.441611 0)
(1.06682 0.579685 0)
(1.07156 0.549053 0)
(1.05789 0.602041 0)
(1.06219 0.596377 0)
(1.0502 0.595261 0)
(1.05399 0.600393 0)
(1.04256 0.587202 -4.44283e-24)
(1.04656 0.59012 0)
(1.03279 0.590704 0)
(1.03807 0.587478 0)
(1.01933 0.601926 0)
(1.02661 0.595934 0)
(1.00054 0.611683 3.62988e-24)
(1.01075 0.607531 0)
(0.973752 0.610838 -3.92272e-24)
(0.988333 0.613246 0)
(0.936364 0.587013 4.52564e-24)
(0.956472 0.602739 0)
(0.887773 0.524686 -6.26721e-22)
(0.913476 0.56173 1.25297e-21)
(0.830034 0.41075 6.5467e-22)
(0.859734 0.474745 -1.60619e-21)
(0.822063 0.356896 -2.39777e-22)
(0.799662 0.332979 -1.70879e-21)
(1.03449 0.60261 2.12056e-21)
(0.962121 0.563703 0)
(1.06055 0.568388 2.29353e-20)
(0.905049 0.48009 0)
(0.982727 -0.63461 3.17437e-22)
(0.988827 -0.63382 -2.34666e-22)
(0.974049 -0.591702 1.00579e-21)
(0.978542 -0.578424 1.01228e-21)
(1.07495 0.519764 2.45129e-20)
(0.847464 0.379079 4.22242e-21)
(1.13416 0.467974 0)
(1.18602 0.573648 7.11289e-21)
(0.791786 0.265152 1.87474e-21)
(0.769847 0.243225 -2.6604e-21)
(1.18131 0.515055 -1.3246e-20)
(0.997047 0.584513 0)
(1.18272 0.633913 0)
(1.18621 0.610632 5.33844e-21)
(1.16601 0.645811 0)
(1.17626 0.644974 0)
(1.13839 0.628261 0)
(1.153 0.639369 -7.43622e-22)
(1.10767 0.599657 0)
(1.12318 0.614497 0)
(1.07655 0.570794 0)
(1.09207 0.584856 0)
(1.04582 0.546024 0)
(1.06113 0.557827 0)
(1.01518 0.52583 1.70118e-24)
(1.03055 0.535318 0)
(0.982816 0.512793 0)
(0.999407 0.518063 0)
(0.946024 0.51014 0)
(0.965059 0.510394 0)
(0.90559 0.505299 0)
(0.926 0.509649 0)
(0.866896 0.468834 3.38423e-25)
(0.885625 0.492876 0)
(0.835663 0.37846 -3.93097e-25)
(0.850092 0.430877 0)
(0.815163 0.235048 0)
(0.823961 0.3125 0)
(0.806872 0.056631 -4.60831e-25)
(0.809431 0.148765 0)
(0.811572 -0.132657 0)
(0.807593 -0.0381915 0)
(0.828666 -0.308681 0)
(0.818686 -0.223717 0)
(0.855387 -0.451403 0)
(0.841088 -0.385125 0)
(0.886938 -0.55024 0)
(0.870894 -0.506474 0)
(0.918121 -0.606673 0)
(0.902855 -0.583244 0)
(0.945223 -0.631177 0)
(0.932303 -0.622108 0)
(0.966695 -0.636795 -3.1222e-22)
(0.956698 -0.635673 -3.37997e-22)
(0.975396 -0.636047 6.37823e-22)
(0.976588 -0.638095 6.94822e-22)
(0.987106 -0.638178 0)
(0.981376 -0.639095 6.96379e-22)
(0.970437 -0.62992 0)
(0.972924 -0.634993 -7.09107e-22)
(0.969449 -0.614243 -9.09196e-22)
(0.969258 -0.622995 3.20693e-22)
(0.970909 -0.603658 1.70751e-21)
(1.03003 -0.605423 -2.35159e-22)
(1.00012 -0.576885 -7.40114e-22)
(1.0159 -0.590638 0)
(1.05742 -0.633341 5.80899e-22)
(1.04429 -0.619721 -5.82855e-22)
(1.08113 -0.651109 0)
(1.06986 -0.644408 0)
(1.10026 -0.639973 3.79906e-25)
(1.09137 -0.650615 0)
(1.11368 -0.576358 0)
(1.10772 -0.616032 0)
(1.12162 -0.44577 0)
(1.11825 -0.519482 0)
(1.12554 -0.256944 0)
(1.124 -0.357078 0)
(1.12615 -0.0389152 0)
(1.12629 -0.149422 0)
(1.12268 0.17599 -1.19615e-23)
(1.12499 0.0707384 0)
(1.11449 0.361515 1.1114e-23)
(1.11917 0.273838 0)
(1.10223 0.497533 0)
(1.10878 0.436676 0)
(1.08779 0.573665 0)
(1.09514 0.543129 0)
(1.07364 0.596583 0)
(1.08055 0.590546 0)
(1.061 0.590345 0)
(1.06715 0.595247 0)
(1.04889 0.581913 0)
(1.05505 0.585163 0)
(1.03491 0.583961 0)
(1.04229 0.581575 0)
(1.01707 0.592898 2.91239e-24)
(1.02658 0.58815 0)
(0.9936 0.599303 -2.78365e-24)
(1.00618 0.596991 0)
(0.96206 0.593756 2.90519e-24)
(0.979003 0.598672 0)
(0.920294 0.564401 0)
(0.942513 0.582919 0)
(0.868532 0.497653 0)
(0.895515 0.536447 0)
(0.810598 0.384177 -4.64309e-24)
(0.840045 0.447306 -6.57609e-22)
(0.751692 0.222353 3.84595e-21)
(0.780965 0.308974 0)
(0.741154 0.14263 2.57886e-21)
(0.724237 0.125869 5.52179e-23)
(1.01644 0.55039 -7.20332e-21)
(0.938575 0.505671 0)
(0.99364 -0.634946 1.37082e-21)
(0.983879 -0.56377 1.55056e-21)
(1.03223 0.503231 4.37146e-21)
(1.09272 0.44303 -2.94822e-22)
(1.05031 0.435611 -1.3697e-20)
(0.878145 0.404312 0)
(0.818347 0.287914 -1.17104e-21)
(1.15648 0.430784 1.34812e-20)
(1.12254 0.355613 -1.27223e-20)
(1.09103 0.358467 1.19693e-20)
(0.762952 0.162888 3.0553e-21)
(0.716466 0.0366654 -1.98093e-21)
(0.700483 0.0228892 -1.40085e-21)
(0.975627 0.528905 0)
(1.22464 0.571484 -3.25481e-22)
(1.20595 0.448463 1.88681e-22)
(1.22133 0.518058 -2.78708e-21)
(1.21358 0.626299 -2.20137e-21)
(1.22134 0.606304 2.21456e-21)
(1.18795 0.632352 -2.8835e-24)
(1.20271 0.633928 0)
(1.15338 0.612013 0)
(1.17111 0.624205 0)
(1.11746 0.582896 0)
(1.13539 0.597781 0)
(1.08244 0.554401 0)
(1.09979 0.568249 0)
(1.0486 0.52997 -1.34248e-24)
(1.0654 0.541631 0)
(1.01527 0.509604 0)
(1.03194 0.519291 0)
(0.980596 0.495067 0)
(0.998297 0.501285 0)
(0.941593 0.490051 0)
(0.961759 0.491463 0)
(0.898535 0.484473 0)
(0.920319 0.488833 0)
(0.857006 0.450435 2.61645e-24)
(0.877134 0.472875 0)
(0.823532 0.364942 -4.00665e-25)
(0.838959 0.414697 0)
(0.801924 0.227598 0)
(0.811122 0.301921 0)
(0.793683 0.0558079 -7.04257e-24)
(0.796092 0.144583 0)
(0.799252 -0.12684 0)
(0.794754 -0.0356576 0)
(0.817754 -0.297063 0)
(0.80702 -0.214819 0)
(0.846217 -0.435995 0)
(0.831013 -0.3713 0)
(0.879773 -0.533695 0)
(0.862696 -0.490163 0)
(0.913248 -0.59133 0)
(0.896797 -0.567058 0)
(0.942946 -0.618307 -4.63935e-24)
(0.928704 -0.607903 0)
(0.967412 -0.626628 3.13592e-22)
(0.95587 -0.624062 0)
(0.986546 -0.6272 -3.31136e-22)
(0.97764 -0.62726 0)
(1.00111 -0.629691 -3.19429e-22)
(0.994327 -0.627607 3.20876e-22)
(0.988675 -0.640236 -7.17265e-22)
(1.00687 -0.63395 0)
(0.997485 -0.638152 -1.02396e-21)
(0.973913 -0.637774 0)
(0.980781 -0.64005 0)
(0.963871 -0.626957 0)
(0.968235 -0.633329 0)
(0.959239 -0.608429 0)
(0.960878 -0.618649 0)
(0.96023 -0.58286 -1.02526e-21)
(0.958839 -0.596311 -2.85046e-22)
(0.967121 -0.552385 -1.79386e-22)
(0.963083 -0.568191 -1.79459e-21)
(1.00769 -0.5615 -9.43441e-22)
(0.972436 -0.535577 -1.17704e-22)
(0.990272 -0.547977 3.1444e-22)
(1.04079 -0.590732 -1.91133e-22)
(1.02452 -0.575916 1.21852e-21)
(1.07173 -0.619629 4.50454e-25)
(1.05655 -0.605571 0)
(1.10002 -0.639123 0)
(1.08622 -0.631498 0)
(1.12432 -0.630601 4.67256e-25)
(1.1128 -0.639842 0)
(1.14258 -0.570091 0)
(1.1343 -0.608205 0)
(1.15408 -0.442223 0)
(1.14915 -0.51467 0)
(1.15973 -0.255457 0)
(1.15756 -0.35461 0)
(1.16029 -0.0395875 0)
(1.16067 -0.148948 0)
(1.15515 0.172632 2.33918e-23)
(1.15849 0.0687694 0)
(1.14383 0.355507 0)
(1.15024 0.269103 0)
(1.12734 0.489617 0)
(1.13612 0.429579 0)
(1.10806 0.565094 0)
(1.11787 0.534707 0)
(1.08893 0.588585 0)
(1.09832 0.582158 0)
(1.07162 0.58312 4.37374e-24)
(1.08005 0.587682 0)
(1.05524 0.574496 0)
(1.06348 0.577998 0)
(1.03722 0.575105 0)
(1.04662 0.573575 0)
(1.01523 0.581641 -2.91239e-24)
(1.02684 0.578202 0)
(0.987415 0.584627 4.90403e-25)
(1.00217 0.58417 0)
(0.951641 0.574509 -5.24194e-24)
(0.970662 0.581835 0)
(0.906219 0.540119 0)
(0.930164 0.56113 0)
(0.851817 0.469326 0)
(0.879968 0.509913 0)
(0.792537 0.354343 9.50163e-25)
(0.822399 0.417568 0)
(0.735366 0.19774 0)
(0.763227 0.280644 0)
(0.688571 0.00996447 1.92842e-21)
(0.70988 0.106378 0)
(0.682191 -0.0798743 -8.19387e-23)
(0.672355 -0.0869981 -2.92453e-21)
(0.990678 0.480497 0)
(1.17928 0.362223 -1.89119e-20)
(1.01017 0.415724 -3.07786e-21)
(1.00917 -0.622627 3.18873e-22)
(1.01697 -0.627425 0)
(0.949128 -0.543094 -1.41895e-22)
(0.95321 -0.525227 3.4337e-22)
(0.912973 0.431476 0)
(0.850536 0.314638 0)
(1.03308 0.342957 0)
(0.790024 0.18587 1.15321e-21)
(0.737057 0.0538239 1.96053e-21)
(0.69652 -0.0713238 0)
(0.670329 -0.178318 -3.79754e-21)
(0.66283 -0.178812 2.40227e-21)
(0.950719 0.456603 0)
(1.25015 0.453111 1.35793e-24)
(1.14882 0.261254 -6.10355e-21)
(1.20562 0.275008 2.15171e-20)
(1.23134 0.371831 -6.11466e-21)
(1.25795 0.566736 1.47877e-21)
(1.25779 0.518434 2.76084e-21)
(1.24014 0.613738 0)
(1.25156 0.597487 0)
(1.20676 0.614747 2.88384e-24)
(1.22509 0.618428 0)
(1.16636 0.592791 0)
(1.18682 0.605411 0)
(1.12607 0.564082 0)
(1.14601 0.578627 0)
(1.08781 0.536454 0)
(1.10667 0.549876 0)
(1.05135 0.512615 1.34248e-24)
(1.06941 0.52403 0)
(1.01576 0.492252 0)
(1.03352 0.502048 0)
(0.979198 0.476377 0)
(0.997791 0.483475 0)
(0.938519 0.468918 0)
(0.959533 0.471566 0)
(0.893419 0.462363 0)
(0.916293 0.466845 0)
(0.849504 0.430806 -1.92005e-24)
(0.870827 0.45156 0)
(0.814077 0.350639 -4.00646e-25)
(0.830375 0.397476 0)
(0.79154 0.219946 0)
(0.801062 0.290852 0)
(0.783419 0.0552449 4.6259e-25)
(0.785649 0.140453 0)
(0.789838 -0.12045 0)
(0.784855 -0.0326828 0)
(0.809573 -0.28471 0)
(0.798189 -0.205257 0)
(0.839483 -0.41974 0)
(0.823533 -0.356683 0)
(0.874696 -0.516182 0)
(0.85676 -0.472948 0)
(0.910117 -0.574853 0)
(0.892651 -0.549826 0)
(0.942121 -0.604124 8.82282e-24)
(0.92668 -0.592484 0)
(0.969276 -0.614936 4.22516e-24)
(0.956305 -0.611173 0)
(0.991393 -0.617975 -5.92275e-22)
(0.980952 -0.616827 5.82495e-22)
(1.00075 -0.619624 -5.75457e-22)
(0.98912 -0.644001 -1.91648e-22)
(1.01203 -0.63948 -4.59198e-23)
(1.00023 -0.642797 5.64769e-22)
(0.969956 -0.639255 0)
(0.978994 -0.642733 0)
(0.955869 -0.625972 5.60826e-27)
(0.962192 -0.633616 0)
(0.947656 -0.604809 0)
(0.951046 -0.61635 0)
(0.945236 -0.57653 -5.12035e-22)
(0.945596 -0.591415 5.6432e-22)
(0.94645 -0.560335 3.12227e-23)
(1.01587 -0.544774 2.98586e-23)
(0.97843 -0.518006 2.95787e-22)
(0.997416 -0.530838 -6.05545e-23)
(1.05139 -0.574385 1.86717e-22)
(1.03377 -0.559434 -1.87035e-22)
(1.08573 -0.603866 4.19425e-24)
(1.06875 -0.589429 0)
(1.11856 -0.624711 4.87251e-24)
(1.10245 -0.616268 0)
(1.14787 -0.618719 5.44221e-25)
(1.13384 -0.626535 0)
(1.17085 -0.561725 0)
(1.16032 -0.598008 0)
(1.18571 -0.437411 0)
(1.17932 -0.508139 0)
(1.19278 -0.25365 0)
(1.19014 -0.351356 0)
(1.19298 -0.0407653 0)
(1.19373 -0.148583 0)
(1.18603 0.168043 -1.14303e-23)
(1.19045 0.0659221 0)
(1.17161 0.347642 -9.61169e-24)
(1.17972 0.262802 0)
(1.15107 0.479446 0)
(1.16196 0.420398 0)
(1.12725 0.554132 0)
(1.13937 0.523933 0)
(1.10352 0.578252 0)
(1.1152 0.571383 0)
(1.08186 0.573743 -4.37374e-24)
(1.09242 0.577875 0)
(1.06147 0.565083 3.08586e-24)
(1.07167 0.568773 0)
(1.03963 0.564271 0)
(1.05092 0.563606 0)
(1.01378 0.56833 0)
(1.02734 0.566241 0)
(0.982032 0.567889 5.21047e-25)
(0.998755 0.569273 0)
(0.942538 0.553374 4.08087e-24)
(0.963366 0.562997 0)
(0.894063 0.514373 0)
(0.919423 0.53763 0)
(0.837716 0.440249 0)
(0.866677 0.482243 0)
(0.777959 0.324816 9.28842e-25)
(0.807839 0.387747 0)
(0.722188 0.17186 0)
(0.749072 0.252372 0)
(0.679302 -0.00497372 -1.02193e-21)
(0.69851 0.0852227 0)
(0.658953 -0.178916 -9.12222e-22)
(0.665597 -0.0943561 1.92023e-21)
(1.0655 0.250605 2.11089e-20)
(1.09375 0.234725 1.85156e-20)
(0.661059 -0.261809 9.47825e-22)
(0.66021 -0.25356 -9.47378e-22)
(0.968149 0.393101 0)
(1.02413 -0.63368 -6.47685e-22)
(0.958405 -0.506433 1.03508e-21)
(1.1746 0.167612 -4.39045e-21)
(0.886674 0.34212 0)
(1.11422 0.144348 -1.51545e-21)
(0.987009 0.318442 0)
(0.822613 0.212794 0)
(1.00534 0.238752 0)
(0.764276 0.0766673 0)
(0.716549 -0.0556355 0)
(0.682883 -0.173476 3.73319e-22)
(0.666046 -0.267355 9.3318e-22)
(0.668109 -0.330242 0)
(0.670316 -0.314619 1.34484e-21)
(0.926118 0.368224 0)
(1.2603 0.297563 -1.012e-20)
(1.13992 0.0504942 -1.82182e-20)
(1.19996 0.0814017 -1.09679e-20)
(1.23414 0.193708 1.12282e-20)
(1.29428 0.465562 -6.80452e-22)