/*--------------------------------*- C++ -*----------------------------------*\
  =========                 |
  \\      /  F ield         | OpenFOAM: The Open Source CFD Toolbox
   \\    /   O peration     | Website:  https://openfoam.org
    \\  /    A nd           | Version:  10
     \\/     M anipulation  |
\*---------------------------------------------------------------------------*/
FoamFile
{
    format      ascii;
    class       surfaceScalarField;
    location    "14.5";
    object      phi;
}
// * * * * * * * * * * * * * * * * * * * * * * * * * * * * * * * * * * * * * //

dimensions      [0 3 -1 0 0 0 0];

internalField   nonuniform List<scalar> 
57492
(
-0.0280408
0.00262044
0.00615781
0.0192626
0.00303954
-0.0240082
-0.00707219
-0.00320345
0.0104659
0.0305842
-0.0378467
0.098959
0.0723377
-0.0163968
-0.1549
-0.20989
0.0849646
0.223884
0.0518337
-0.0507657
-0.0264531
0.0253851
-0.0946341
0.0229564
-0.0136495
0.0853272
0.0172294
-0.0600299
0.0261572
-0.0996001
0.0945082
-0.0210652
0.0234191
0.0910897
-0.0883516
0.00940435
0.00943608
-0.0222801
0.00343964
-0.0030449
0.00307085
0.0093784
-0.00638034
0.00345743
-0.00012199
0.00229624
0.000759509
0.102209
-0.0862059
-0.0381138
0.022111
0.00188406
0.0768443
0.0234804
-0.0051196
0.0160832
0.0875598
-0.0985234
-0.0150647
0.0867068
-0.0767617
0.0137927
-0.0298527
0.01606
-0.084843
0.0562905
0.0423451
-0.118494
0.013056
0.0866327
0.0188057
0.0220058
-0.119776
-0.0207244
0.00416776
0.00283963
-0.0154726
0.00846522
0.00985412
-0.0072421
0.00155574
-0.138199
0.149405
0.0112136
-0.0224197
-0.170799
0.0713497
-0.03875
-0.058552
0.018862
0.031313
0.00837698
-0.0406387
-0.0206941
0.00278084
-0.0256146
-0.0680139
0.0863654
0.0072632
-0.0320398
0.011501
-0.00507586
0.0616181
-0.0390615
-0.037647
0.0150904
-0.049131
0.0405528
0.0701963
-0.0739019
-0.128289
0.073792
0.128398
-0.127042
-0.0412055
0.0943454
-0.0666668
-0.00947705
0.0761439
-0.017228
-0.0494388
-0.0865497
0.104025
-0.0347036
0.0172993
-0.0587997
-0.0450493
-0.0491299
0.0720864
-0.0321394
-0.113185
0.054942
0.0582434
-0.204551
0.0913659
0.0856224
0.00441943
-0.0115321
-0.0785097
0.0602255
-0.021607
0.0470039
0.00537467
0.0907614
-0.0917167
0.0944509
0.0153734
-0.0925949
0.0924387
-0.0116374
0.103806
-0.036172
-0.0761827
0.00854881
0.117274
0.00190491
0.0775766
-0.0430699
0.057932
0.0287342
0.13417
-0.102033
-0.0112157
0.00917865
0.10407
-0.105315
-0.004061
0.00734286
0.0169926
0.0967415
-0.0955839
-0.0181502
0.00998836
-0.0925959
-0.0925983
0.113127
0.112405
-0.132934
-0.00480018
0.120527
-0.208325
-0.000966947
0.000663729
0.000279651
2.35667e-05
0.00160765
0.000882827
0.00395982
0.00647691
-0.00882908
0.00370109
0.000922463
-0.000725269
0.00100492
4.74541e-05
-0.000772723
0.239916
0.0830927
-0.166142
-0.156866
0.0700784
-0.0503962
0.220234
-0.205687
0.0676388
0.208127
0.0351133
-0.157708
0.0251987
-0.0789256
0.0639517
-0.0102247
0.0687071
-0.0799949
0.0364864
0.00406765
-0.00252701
0.00107981
0.00793459
0.00229087
0.0220133
0.00518382
-0.0872257
0.157222
0.0649473
-0.134944
0.0891402
-0.107659
0.045112
0.144496
-0.0323854
0.379025
-0.0411465
-0.105409
-0.232469
0.0897897
0.206066
0.0831692
0.0499987
-0.14607
0.185861
0.00659429
-0.00979774
0.0170602
0.0542911
0.0822087
-0.0391808
-0.097319
0.0738943
0.010981
0.0147208
-0.00544668
-0.00927413
0.0208968
-0.00617595
-0.200848
0.0991437
-0.0776916
0.179396
-0.170772
-0.096173
0.0660969
-0.0968887
0.0949016
-0.168785
0.115216
-0.00266646
-0.0573852
-0.0551645
-0.0509719
0.129467
0.0367215
-0.0628185
-0.00750073
0.0193473
-0.0555789
-0.00990604
-0.0216442
-0.0913199
-0.103934
0.0195585
0.0404391
0.0439368
0.0218037
-0.0623463
-0.0633917
0.023456
0.0117832
-0.0134356
0.0333715
0.00964303
0.0631189
0.0106917
-0.0575356
0.0358914
0.0073508
-0.0648864
0.00910465
0.0117921
0.117895
0.076455
-0.0086817
0.0422264
-0.134222
-0.0154174
0.0956825
-0.0672097
-0.0130554
-0.0229711
0.100844
-0.0932899
0.0812535
0.0514655
-0.0183414
-0.114378
-0.0221521
0.00711532
0.0962904
0.107431
-0.0781172
-0.0343528
-0.072632
0.0219945
0.0849904
-0.0345819
0.084196
-0.0839669
0.00309966
-0.110314
-5.09695e-05
0.00187899
0.000366274
-0.027874
0.0200876
0.010826
0.01506
-0.00577284
-0.0371612
-0.022041
0.0130928
-0.0145891
0.0290142
0.00685605
-0.0212812
0.0524525
-0.0564112
-0.0106304
-0.0302976
0.0624837
0.0202664
-0.015752
0.0144686
-0.171431
0.0965285
0.174046
0.184401
-0.0666964
-0.213877
-0.0822815
0.0952509
-0.0057661
-0.0507087
-0.0115392
-0.0385298
0.000723912
-0.00223279
-0.0177931
0.0124906
0.00753524
-0.0118392
0.00270339
0.006903
-0.012399
-0.0172332
-0.0168071
-0.0260271
0.00430434
-0.043127
-0.0243887
-0.0487528
-0.0513363
0.0621207
0.0379684
0.00330206
0.0223434
-0.0743983
-0.0684359
0.0204016
-0.116756
0.0403303
-0.00841718
-0.110429
0.00620707
-0.0125345
-0.00515808
-0.0859047
0.0791305
0.0119323
-0.000398792
-0.0890522
0.084293
-0.0096527
-0.280803
-0.0723087
0.0854722
0.0787857
-0.110764
0.112057
-0.0175088
-0.0105795
0.0223628
-0.00728582
-0.00329371
0.0228253
-0.00486893
0.0982374
-0.0619826
-0.054717
0.0184623
0.0884031
0.015209
0.141196
0.000249674
-0.146246
0.0438462
0.106583
-0.00923332
0.0156978
-0.0806419
0.10879
-0.00322046
-0.00406537
0.037567
-0.121536
-0.114486
0.0773969
0.146971
0.0613492
-0.00373359
-0.0639119
0.00629626
0.0190634
-0.00684524
-0.0780515
0.0136023
0.105002
0.00991718
-0.0689052
-0.0112575
0.00177838
0.0137461
0.0278264
-0.0350966
-0.00647588
0.0163216
-0.00117954
-0.00139594
0.0663993
0.0405474
-0.0906251
-0.0442867
0.0795604
-0.0261691
0.200414
-0.16908
-0.0756205
-0.00347836
-0.0964964
0.113577
-0.211108
-0.0100873
-0.160578
-0.085162
0.0346324
0.0806705
0.0661045
-0.133719
0.0514947
0.125016
-0.0958398
0.0484233
-0.0829964
0.0481957
-0.0136226
0.0524257
-0.0798538
0.0758514
0.115798
0.0369394
0.107967
-0.00649773
-0.107871
0.00640104
0.118572
-0.0156307
0.00502616
0.120823
-0.0153752
-0.00243412
-0.103013
0.0862245
-0.0258271
0.0604254
0.102185
-0.0255679
0.0195934
-0.0962107
0.0222616
0.104094
-0.0241708
-0.0931846
-0.0320859
0.0997027
0.0178145
-0.0890046
-0.0340756
0.0869801
-0.0453992
-0.0796862
0.0393987
0.0856868
-0.0475212
-0.0813421
0.083464
0.0440901
0.0777347
-0.0261699
-0.0956549
0.0767607
-0.0801918
-0.0512613
0.0512338
0.0767882
-0.0407612
0.0672346
-0.101696
0.0901755
-0.014649
-0.131837
0.012501
0.134122
-0.0147861
0.0354552
0.0352295
0.0666308
-0.0460499
-0.0558104
0.0190975
0.0825418
-0.0664098
0.0116205
-0.025219
-0.00844251
-0.0666461
-0.0971932
0.058979
-0.00661244
0.0054329
0.000372817
-0.00698526
-0.012858
-0.113665
0.0834529
-0.0948889
-0.011168
0.093199
0.00802778
-0.0991357
-0.003781
-0.0524537
0.0199054
0.0496773
-0.0171291
0.0552443
-0.0584543
-0.0492436
-0.00863296
0.0837826
0.000332604
0.000898194
0.000648195
-7.38458e-05
0.000406449
0.000824349
0.00167408
-0.000760047
0.00278705
-0.00116734
0.00284142
-0.00192738
0.0043239
-0.00134705
0.00687727
-0.00507197
0.00939586
-0.00641901
0.00985198
-0.00139447
-0.0242095
-0.00413481
0.0139868
-0.00552928
0.0301552
0.0805873
-0.103627
0.037665
-0.109545
0.102035
0.113418
0.00483409
-0.0353587
-0.062754
0.0352729
0.0628398
-0.0138192
0.0654324
-0.0869719
0.00940692
-0.0859801
0.0776689
-0.078373
-0.0294936
0.0301977
0.0782195
-0.0168601
0.0163095
-0.0404865
-0.0783676
0.0404811
0.0794079
-0.00500692
0.00381855
0.0818484
0.00888436
-0.0113248
0.0204414
0.0849892
-0.0235823
0.0775917
-0.0758835
0.0187333
0.0263316
0.0905953
-0.0319377
0.0759811
0.0279422
-0.0725291
0.00552994
-0.0718897
-0.00564632
-0.0716955
-0.0170543
-0.073318
-0.0278711
-0.0728536
-0.0409509
0.0364489
0.0959081
-0.0417616
0.0731613
0.0392687
-0.0499911
-0.0780477
0.0496712
-0.0748821
-0.0479626
-0.057498
-0.0822444
0.0616947
0.0490636
0.097427
-0.0505825
0.0748387
0.0473862
-0.0785695
-0.0538105
0.0984177
0.0560749
-0.0570656
0.0612379
0.0998633
-0.0626835
0.076166
0.0547476
0.0778239
0.05958
-0.0629524
-0.0828725
0.0635804
-0.0797767
-0.0617452
0.0652505
0.100597
-0.0659837
0.0790874
0.063987
-0.0675215
-0.0838191
0.0684681
-0.0815378
-0.0657604
0.0675373
0.101854
-0.0687946
0.0806982
0.0659265
-0.0705876
-0.0844185
0.071187
-0.0827908
-0.0693346
0.0691234
0.102268
-0.0695376
0.081813
0.0680085
-0.0726185
-0.085331
0.0735309
-0.0844016
-0.0710078
0.0694751
0.103172
-0.0703788
0.0832695
0.0680186
-0.0737429
-0.0857927
0.0742047
-0.085408
-0.0727365
0.0697746
0.103082
-0.0696851
0.084212
0.0688321
-0.0740905
-0.086674
0.0749718
-0.0864513
-0.0730471
0.0694379
0.103353
-0.0697085
0.0856039
0.0680461
-0.0742729
-0.0849782
0.0725771
-0.086036
-0.0746882
0.0696821
0.102341
-0.0686703
0.0854859
0.0698
-0.0749552
-0.0848766
0.0748535
-0.0866816
-0.0743096
0.0699841
0.101107
-0.0687497
0.0851603
0.0703097
-0.0752311
-0.0832359
0.0735905
-0.0852648
-0.0766479
0.0746121
0.0944224
-0.0679279
0.0881642
0.0716082
-0.0763316
-0.0829534
0.0760491
-0.085155
-0.0764413
0.0749402
0.0885389
-0.0690568
0.0896845
0.0734199
-0.0779062
0.0767073
-0.0817545
-0.0858491
-0.0772121
0.0724866
-0.0715431
0.0875954
0.0895121
0.072659
-0.0819325
0.084215
0.0737666
-0.080188
0.0749628
-0.0786206
0.0786281
-0.081762
-0.080155
-0.0843147
-0.0843382
0.0843152
0.0748765
0.0734673
-0.082329
0.0823482
0.0749526
0.0745633
-0.0822856
0.0821303
0.0736862
0.0742673
-0.0819102
0.0817017
0.0686767
0.071407
-0.081561
0.0856009
0.0576548
0.0637211
-0.0858225
0.0845807
0.041723
0.0494496
-0.0878748
0.0876806
0.0165037
0.0269035
-0.0853726
0.0847346
-0.0106869
0.00612655
-0.0833386
0.083918
-0.0325171
-0.0221862
-0.0843841
0.0847581
-0.0509565
-0.0422277
-0.0851324
0.085481
-0.0630322
-0.0574399
-0.0857845
0.0860302
-0.0690403
-0.0662872
-0.0862039
0.0862861
-0.070461
-0.0697113
-0.0862597
0.0861129
-0.0695617
-0.0696586
-0.0858368
0.0854158
-0.0683287
-0.0683942
-0.0855647
0.0852316
-0.0687237
-0.0680768
0.0832259
-0.0695374
0.0732422
-0.0709006
0.0852539
0.0735039
0.0892504
0.0901981
-0.0871071
0.0685171
-0.0918066
0.0922687
0.0721969
0.0718114
0.0861336
-0.0838588
0.0675252
0.0693363
0.0826616
-0.0812726
0.0674431
0.0668488
0.0797249
-0.078011
0.0662946
0.0664709
0.076197
-0.074299
0.062089
0.0641126
0.0724021
-0.0705297
0.0528752
0.0576831
0.0688004
-0.0673069
0.0377752
0.0456569
0.0673338
-0.0661838
0.0175833
0.0279691
0.0666506
-0.0657741
-0.00652274
0.00599672
0.0656018
-0.0658166
-0.0276563
-0.0172267
0.0678538
-0.0695792
-0.0462372
-0.0389137
0.0694785
-0.0712696
-0.0599541
-0.0539112
0.0731652
-0.0750762
-0.0674235
-0.0638648
0.0768626
-0.0785255
-0.0710737
-0.0692214
0.0800328
-0.0822127
-0.0725083
-0.0715397
0.0837964
-0.0864078
-0.0740365
-0.0727259
0.087838
-0.0871788
-0.0778713
-0.0750112
-0.0883649
-0.078969
-0.0781958
0.0766359
0.0831581
-0.0708328
0.0716869
0.0940856
-0.0810562
0.0811489
-0.0844074
-0.0803712
-0.0890498
-0.0799618
0.0775594
-0.0757935
-0.0805749
-0.0805057
0.0810729
0.0731994
0.078724
-0.0765808
0.0744927
0.073181
-0.0817399
0.0828608
0.0737556
0.0728003
-0.0836121
0.0841961
0.0743686
0.0738121
-0.0846896
0.0851285
0.0732473
0.0737737
-0.0854979
0.085899
0.0682756
0.0710376
-0.0862974
0.0866174
0.0573348
0.0633227
-0.0870369
0.089235
0.0395248
0.0490301
-0.0879882
0.0884298
0.0160621
0.0281504
-0.0913141
0.0901617
-0.00953449
0.00324222
-0.0895343
0.0897928
-0.0327756
-0.0215588
-0.089888
0.089839
-0.0509075
-0.0423229
-0.0896906
0.0894784
-0.0628199
-0.0572915
-0.0892199
0.0889193
-0.0687397
-0.0660288
-0.088576
0.088171
-0.070056
-0.0693679
-0.0876952
0.0871228
-0.0689892
-0.0691828
-0.0864562
0.0856794
-0.0675519
-0.0677277
-0.084601
0.0829251
-0.0670477
-0.0669983
-0.0726663
0.0738312
0.084089
-0.0703729
0.0808646
-0.0806765
0.0789217
-0.069078
-0.0672889
0.0935001
-0.0921199
0.0708167
0.0942437
0.0709434
-0.072207
0.0738971
0.0923955
0.0908747
0.090598
-0.0877629
0.0656821
0.0702894
0.0849746
-0.0835328
0.0660834
0.066548
0.0819615
-0.0801964
0.065678
0.0652775
0.0782744
-0.076174
0.0641943
0.064549
0.0739697
-0.0716816
0.0598009
0.0619082
0.0694155
-0.0672208
0.0506804
0.055417
0.0652168
-0.0634603
0.0360187
0.0436529
0.06202
-0.060858
0.0164213
0.0265287
0.060201
-0.0609738
-0.00574998
0.00533974
0.061342
-0.0614866
-0.0275117
-0.0168585
0.0636719
-0.0646644
-0.0452446
-0.0367285
0.0667805
-0.0690811
-0.0576535
-0.0517951
0.0713994
-0.0736954
-0.0651274
-0.0615465
0.0758894
-0.0779819
-0.0689812
-0.0670274
0.0799447
-0.0817452
-0.0707078
-0.0695769
0.0833721
-0.0848028
-0.0726058
-0.0710991
0.0860652
-0.087938
-0.0759985
-0.0737488
0.0890162
-0.0902261
-0.0791613
-0.0778908
-0.0737601
0.0747388
-0.0825618
0.081569
-0.088057
-0.0916571
-0.0811308
0.0793818
-0.0822203
-0.0692151
0.0777639
0.0950614
0.0730794
0.0793204
-0.0796765
-0.0754374
0.076187
-0.0706268
-0.0822723
0.0816033
-0.0873879
-0.0819581
-0.0919714
-0.0808695
0.0785602
-0.0814104
-0.0662278
0.0757569
-0.0664118
0.0740006
-0.0727122
0.0911071
0.0713185
0.0977435
-0.0685941
0.0728204
0.0719607
0.0760099
-0.0788872
-0.0677494
0.0639494
-0.0803173
0.069174
-0.0528061
0.0713651
-0.0758227
0.0782915
0.0720239
0.0717365
-0.0797866
0.0814777
0.0715083
0.071686
-0.0827257
0.0840095
0.0724717
0.0715523
-0.085214
0.0863234
0.0732592
0.0726076
-0.0873442
0.0883276
0.072264
0.0727529
-0.0892783
0.0902203
0.0673336
0.0700868
-0.0911462
0.0920522
0.0564288
0.0623968
-0.0929248
0.0937405
0.0387091
0.0481575
-0.09445
0.0950536
0.0154586
0.0274409
-0.0955031
0.0957367
-0.00976812
0.00279274
-0.0958037
0.0957087
-0.0326807
-0.0216258
-0.0954096
0.0949097
-0.0504076
-0.0420238
-0.0942639
0.0935231
-0.0620791
-0.0566457
-0.092737
0.0919134
-0.067916
-0.0652427
-0.0910644
0.0901738
-0.0691655
-0.0685189
-0.0892409
0.0882392
-0.0679875
-0.06825
-0.0871789
0.0860275
-0.0664005
-0.0666674
-0.0847415
0.0826332
-0.0649394
-0.0657123
-0.0660661
-0.070975
0.0703506
0.0847134
0.0702357
-0.0695411
0.0770693
0.0801254
0.088513
0.0943648
-0.0920068
0.0684587
-0.0963253
0.0985957
0.070809
0.0689828
0.0883188
-0.0877377
0.065101
0.0666015
0.0851854
-0.0833967
0.0642947
0.0639957
0.0814983
-0.0793993
0.0635791
0.0633791
0.0771592
-0.0747316
0.0617666
0.0623089
0.0722111
-0.0696083
0.0571982
0.0593877
0.0670525
-0.06459
0.0482179
0.0528612
0.0623514
-0.060382
0.0340494
0.0414143
0.0587902
-0.0576499
0.0152811
0.0249369
0.0570667
-0.0570355
-0.00578117
0.00475653
0.0575982
-0.0587789
-0.0263309
-0.0162959
0.0604693
-0.0625657
-0.0431482
-0.035038
0.064983
-0.0675735
-0.0550631
-0.0493778
0.0702043
-0.0728056
-0.0625261
-0.0589157
0.0753074
-0.0777302
-0.0665584
-0.0645255
0.0800405
-0.082232
-0.0685163
-0.0672666
0.0842443
-0.0860954
-0.0707547
-0.0690868
0.0878078
-0.0894684
-0.0743379
-0.0720363
0.0913585
-0.0922995
-0.0782203
-0.0760007
0.0941973
-0.0974826
-0.0786727
-0.0792331
-0.0787483
0.0807526
-0.0939757
-0.0989047
-0.0773262
-0.0793928
-0.0749319
0.0813839
-0.0820009
-0.0668516
0.0730674
0.100462
0.0694519
-0.075636
-0.0724306
0.0801122
-0.0867476
-0.0598101
-0.0615695
0.112747
0.0744106
-0.0733549
-0.0999604
0.0748862
-0.0944513
-0.0457721
0.0661588
0.0633959
-0.0479757
0.0518809
-0.0788784
-0.061573
0.0653794
0.0653676
0.0645264
-0.0599405
-0.0690233
0.0724335
0.0685504
0.0677212
-0.0749036
0.0772909
0.0696366
0.0692665
-0.0797352
0.0815859
0.0696576
0.0692417
-0.083409
0.0852614
0.0706193
0.0697291
-0.0869589
0.0885822
0.0716359
0.0709101
-0.0901313
0.091657
0.0707382
0.0712038
-0.0931663
0.0946494
0.0658505
0.0685776
-0.0961056
0.097494
0.0550404
0.0609406
-0.0987811
0.0999078
0.0375824
0.0468704
-0.100859
0.10157
0.0147471
0.0264902
-0.101961
0.102105
-0.00991129
0.00240131
-0.101954
0.101525
-0.0322518
-0.021475
-0.100831
0.0998868
-0.0494633
-0.04133
-0.0987602
0.0975055
-0.0608244
-0.0555191
-0.0961991
0.094859
-0.0665759
-0.0639364
-0.0935196
0.0921645
-0.0678103
-0.0671796
-0.0908005
0.0893994
-0.0665864
-0.066886
-0.0879635
0.0864631
-0.0649
-0.0652315
-0.0845228
0.0833565
-0.0637731
-0.0637721
-0.080776
0.0779273
-0.0633792
-0.0634856
-0.0756004
0.0715325
-0.0627837
-0.0640849
-0.0665668
0.0680761
0.07556
0.0667286
-0.064979
0.0697829
0.0732292
-0.068501
0.0700043
0.0832101
0.0797004
-0.0706051
0.0696791
0.0920331
0.0879122
-0.0698631
0.0681272
0.102198
0.0975595
0.100811
-0.097899
0.0678973
-0.105606
0.10279
0.0709429
0.0646567
0.0950605
-0.0927843
0.0661825
0.0661443
0.0892938
-0.0874175
0.0632247
0.0631109
0.0854928
-0.0834425
0.0622443
0.062071
0.0812621
-0.0788955
0.0612125
0.0611987
0.0763926
-0.0737091
0.0590831
0.0598059
0.0709448
-0.0681052
0.0543586
0.0566234
0.0653322
-0.0626661
0.0455518
0.0500882
0.0602561
-0.0581544
0.0319476
0.0390044
0.0564957
-0.0553603
0.0141456
0.0232782
0.0548344
-0.0548666
-0.00574901
0.00423064
0.0556207
-0.0569851
-0.0249665
-0.0155418
0.0588751
-0.0612226
-0.0408007
-0.033148
0.0638457
-0.0666535
-0.0522552
-0.0467547
0.0694891
-0.0723159
-0.0596994
-0.0560801
0.0750754
-0.0777885
-0.0638454
-0.0617659
0.0804088
-0.0829357
-0.0659893
-0.0646463
0.0853162
-0.0875945
-0.0684763
-0.0667063
0.0897895
-0.0919758
-0.0721516
-0.0698413
0.0941882
-0.0964673
-0.0759412
-0.0737882
0.0989184
-0.100444
-0.077147
-0.076782
0.104261
-0.10655
-0.071066
-0.0735095
-0.065743
0.0678924
-0.10211
-0.107989
-0.0643037
-0.077898
-0.0726699
0.0798444
-0.0817331
-0.0690915
-0.0631492
0.0759788
-0.0878401
0.073299
-0.0754021
-0.0606806
0.0689747
-0.0606546
0.0667225
-0.0667907
0.102267
0.0626397
0.106873
-0.0634655
-0.0565583
0.0688099
-0.0953689
-0.0779102
0.0128054
-0.0537815
0.0591073
0.0580701
-0.0560693
0.0575548
-0.103595
-0.0537612
-0.110297
-0.0496663
0.0477657
-0.076932
-0.0620274
0.0651559
0.0622391
0.0616063
-0.0681699
0.0707643
0.065956
0.0647073
-0.0738617
0.0768364
0.0666618
0.0661691
-0.0795158
0.0820102
0.0671632
0.0665623
-0.0843412
0.0865654
0.0683951
0.0673982
-0.0887132
0.0908212
0.069528
0.0687622
-0.0928852
0.0949434
0.06868
0.0691398
-0.0969775
0.0989836
0.0638444
0.0665435
-0.100913
0.102747
0.0532069
0.0590108
-0.104421
0.105846
0.0361567
0.0451965
-0.106995
0.107787
0.013955
0.025342
-0.108162
0.10818
-0.00992845
0.00202569
-0.107804
0.107049
-0.0314974
-0.021099
-0.105963
0.104583
-0.0480833
-0.0402436
-0.102999
0.10127
-0.0590963
-0.0539349
-0.0994924
0.0976876
-0.0647711
-0.0621584
-0.0959059
0.0941257
-0.0660301
-0.0653978
-0.0923663
0.0905898
-0.0648099
-0.0651266
-0.0887997
0.0869488
-0.0630492
-0.0634413
-0.0850307
0.0830335
-0.0617759
-0.061854
-0.0804641
0.0780025
-0.0609176
-0.0609162
-0.0614845
-0.0641601
0.0641776
0.0755425
0.0624695
-0.0618312
0.0691445
0.0715386
-0.0650739
0.0654132
0.0828708
0.0788041
-0.0667229
0.0677221
0.0910338
0.0866026
0.0984909
0.102249
-0.099079
0.0647271
-0.102732
0.108934
0.0647412
0.0641735
0.096303
-0.0923877
0.0622672
0.0633683
0.09027
-0.0881348
0.0610895
0.0609933
0.0859406
-0.083659
0.0599628
0.0598769
0.081247
-0.0786753
0.0586408
0.0587867
0.075969
-0.0731027
0.0562169
0.0570996
0.0701654
-0.0671688
0.051362
0.053686
0.0642522
-0.0614613
0.0427609
0.0471716
0.0589542
-0.0567916
0.029785
0.0364973
0.0551173
-0.0539997
0.013028
0.021604
0.0535214
-0.0536853
-0.00558512
0.00375235
0.0545607
-0.0560699
-0.0234573
-0.0146664
0.0580989
-0.0605879
-0.0383118
-0.031119
0.06334
-0.0662701
-0.0493251
-0.0440026
0.0692392
-0.0722279
-0.0567107
-0.053111
0.0751804
-0.0781164
-0.0609095
-0.0588134
0.0809705
-0.083742
-0.0632179
-0.0617922
0.0863912
-0.0889867
-0.0658808
-0.0640572
0.0915534
-0.0941629
-0.0695422
-0.0672747
0.09682
-0.099573
-0.0731882
-0.071131
0.102449
-0.105509
-0.0740866
-0.0739061
0.107217
-0.110343
-0.0679401
-0.0718023
0.113531
-0.115549
-0.0517435
-0.0611152
-0.0416037
0.0438159
-0.112509
-0.117584
-0.0395681
-0.0735171
-0.0682443
0.0758092
-0.0815635
-0.0590298
0.0661734
0.110181
0.0613925
-0.0658793
-0.0607354
-0.0619454
-0.0652084
-0.059641
-0.0588627
0.0695113
-0.0885415
0.0595267
-0.0973409
-0.0656321
0.0287712
-0.0398262
0.0279313
-0.0537372
-0.048184
-0.0568505
0.0455258
-0.105305
-0.0290306
0.0289564
-0.112435
-0.0263687
-0.120246
-0.0746399
-0.0501371
0.0555598
0.0526473
0.0470398
-0.0511657
0.0328971
0.0446685
-0.0597539
0.0627798
0.0592131
0.0574123
-0.0666133
0.0703366
0.0622327
0.0608738
-0.0738154
0.0770506
0.0634266
0.0626904
-0.0800251
0.0828035
0.0643847
0.0635879
-0.0854266
0.0879835
0.0658382
0.0647751
-0.0904991
0.0930223
0.0670048
0.0662466
-0.0955373
0.0980682
0.0661492
0.0666247
-0.100573
0.10305
0.0613673
0.0640383
-0.105419
0.10766
0.0509663
0.0566422
-0.109673
0.111383
0.0344468
0.0431833
-0.112683
0.113527
0.013111
0.0240418
-0.113909
0.113768
-0.00978711
0.00164334
-0.113157
0.112098
-0.0304385
-0.020488
-0.110657
0.108886
-0.0463122
-0.0388027
-0.106894
0.104747
-0.0569495
-0.0519431
-0.102553
0.100337
-0.0625545
-0.0599641
-0.0981582
0.0959974
-0.0638692
-0.0632194
-0.0938826
0.09177
-0.0626973
-0.0630118
-0.0896691
0.0875287
-0.0609088
-0.0613405
-0.0853435
0.0830502
-0.0594826
-0.0596688
-0.0806523
0.0783071
-0.0585724
-0.0585182
-0.0749452
0.0717796
-0.0575151
-0.0581225
-0.0679691
0.0647102
-0.0557709
-0.0568442
-0.056595
0.058296
0.0674435
0.05648
-0.0529329
0.061163
0.0660584
-0.0591816
0.0603101
0.074414
0.0706531
-0.0611175
0.0614534
0.0825349
0.0779966
-0.0613026
0.0606361
0.0917002
0.0867534
-0.0613868
0.0607074
0.102946
0.0977403
-0.0590166
0.056876
0.112322
0.108564
0.110638
-0.106456
0.0605583
-0.113423
0.114501
0.0557982
0.0586082
0.102982
-0.0999312
0.0616766
0.0606996
0.0960592
-0.0936336
0.0598415
0.0594963
0.0912802
-0.0889058
0.058715
0.0586399
0.0865109
-0.0840277
0.0574795
0.057482
0.0814431
-0.0787159
0.0559136
0.0562022
0.0758724
-0.0728887
0.0532332
0.054256
0.0698512
-0.0667732
0.048284
0.0506485
0.0637895
-0.0609521
0.0399234
0.044188
0.0584179
-0.0562552
0.0276223
0.0339631
0.0546059
-0.0535345
0.0119567
0.0199546
0.0531236
-0.0533922
-0.00531656
0.00334144
0.0543557
-0.0559536
-0.0218594
-0.0137029
0.0580618
-0.0606037
-0.0357699
-0.0290108
0.0634004
-0.0663743
-0.0463513
-0.0412058
0.0694028
-0.0724846
-0.0536289
-0.0500825
0.075569
-0.078674
-0.0578045
-0.0557289
0.0817217
-0.0847124
-0.0602272
-0.0587444
0.0876143
-0.0905135
-0.0629816
-0.0611553
0.0934453
-0.0964902
-0.0664972
-0.0643428
0.0996368
-0.102924
-0.0699007
-0.0679844
0.106322
-0.109836
-0.0705724
-0.0705081
0.113391
-0.117007
-0.0643237
-0.0682477
0.120576
-0.123107
-0.0492121
-0.0575468
0.125099
-0.125359
-0.0261092
-0.0375763
-0.014122
0.0138231
-0.119947
-0.126405
-0.0130752
-0.0682848
-0.0658388
-0.0492053
0.0259709
-0.0601981
-0.0601783
0.0644333
-0.0684297
-0.0517745
0.0613145
-0.0498141
0.0534776
-0.0537078
0.112552
0.0511605
0.116818
0.0695414
-0.0815936
0.0605008
-0.0895155
-0.0479385
-0.0591082
0.0479227
-0.0997378
0.0333257
-0.109674
0.0175547
-0.116167
0.00130671
0.000229032
-0.121483
-6.5917e-05
-0.125033
-0.0733834
-0.0473827
0.0464346
0.0338452
0.0171902
-0.0201289
-0.0462666
0.0472374
-0.0477962
0.017749
0.0258256
-0.0492887
0.0544964
0.0474397
0.0418144
-0.0591175
0.0628656
0.0554651
0.0527911
-0.0666925
0.0704229
0.0585023
0.0570468
-0.0739977
0.0774048
0.0600194
0.0591156
-0.0806084
0.0836612
0.0613319
0.0603842
-0.0865886
0.0894711
0.0629557
0.0618477
-0.092328
0.0952126
0.0641202
0.0633898
-0.0981069
0.101033
0.063223
0.0637304
-0.103938
0.106813
0.0584925
0.0611331
-0.109561
0.112141
0.0483864
0.0538943
-0.114432
0.116362
0.0325165
0.0408927
-0.117773
0.11865
0.0122339
0.0226311
-0.118962
0.118685
-0.00950945
0.00133071
-0.117868
0.116544
-0.0291144
-0.0196716
-0.114791
0.112674
-0.0441956
-0.0370494
-0.110328
0.107825
-0.0544467
-0.0495967
-0.105283
0.102722
-0.0599936
-0.0574216
-0.10021
0.0977261
-0.0613854
-0.0607077
-0.0953076
0.0929069
-0.0602966
-0.0605933
-0.090541
0.0881493
-0.058517
-0.0589747
-0.085736
0.0832292
-0.0569757
-0.0572556
-0.080638
0.0779105
-0.0558449
-0.055927
-0.0746427
0.0717774
-0.0546498
-0.0548547
-0.0534965
-0.0513604
0.0523491
0.0664548
0.0483027
-0.0479067
0.060767
0.0630007
-0.053798
0.0549444
0.0732676
0.0692043
-0.0556503
0.0559085
0.0822767
0.0772907
-0.0557145
0.0550571
0.0923576
0.0869474
-0.0556784
0.0547063
0.103918
0.097119
0.109562
0.112143
-0.109092
0.0575074
-0.115042
0.118138
0.0527025
0.0557092
0.104527
-0.100215
0.0573646
0.0561348
0.0974978
-0.0948483
0.057192
0.0567787
0.0922916
-0.0897274
0.0561508
0.0560833
0.087172
-0.0845336
0.0548411
0.0549266
0.0818294
-0.0789961
0.0530802
0.053498
0.0760759
-0.0730349
0.0501922
0.0513359
0.0699643
-0.0668713
0.0451909
0.0475779
0.0638909
-0.0610734
0.037106
0.0412076
0.0585733
-0.056461
0.02551
0.031463
0.0548736
-0.0538747
0.0109577
0.0183672
0.05354
-0.0538882
-0.00496839
0.00300674
0.0548952
-0.0565255
-0.020229
-0.0126959
0.0586431
-0.0611621
-0.0332509
-0.0268932
0.0639229
-0.0668643
-0.0434098
-0.038445
0.0698867
-0.0730034
-0.0505122
-0.04706
0.0761668
-0.079382
-0.0545893
-0.0525656
0.0825546
-0.0856835
-0.0570983
-0.0555718
0.0887419
-0.0918237
-0.0598998
-0.0580969
0.0949678
-0.0982665
-0.0631986
-0.0611987
0.101718
-0.105366
-0.0662526
-0.0645328
0.109157
-0.113085
-0.0666442
-0.0667177
0.11706
-0.121044
-0.0603397
-0.0642728
0.124868
-0.128421
-0.0456587
-0.053723
0.130091
-0.130823
-0.0253768
-0.0359065
0.131594
-0.132122
0.000462085
-0.0123041
0.0271961
-0.0288044
-0.0552422
-0.04667
0.0157909
-0.0150202
-0.125803
-0.128949
0.0126175
-0.0602837
-0.0657533
-0.0454586
0.0588664
0.121956
0.0473423
-0.0107619
-0.0461137
0.00907949
0.0607776
-0.0818704
-0.0107857
-0.0462428
-0.0494856
-0.0586312
0.0490426
-0.0906355
-0.0351541
-0.0527585
0.0345154
-0.100927
0.0186961
-0.110816
0.00251331
-0.118451
-0.0145365
-0.121967
0.0280673
-0.0291349
-0.124736
0.0266117
-0.127493
-0.0728895
-0.0475691
0.0467093
0.0186088
-0.00193758
-0.0451403
0.000964145
0.0481086
-0.0465744
-0.00347182
0.00961899
-0.0474896
0.0488623
0.0324724
0.0250452
-0.0516614
0.0548437
0.0442574
0.0390153
-0.059461
0.0635107
0.0514153
0.0481739
-0.0673089
0.070988
0.0548233
0.0532487
-0.0745341
0.0779748
0.0565787
0.0555695
-0.0812916
0.0845349
0.0580886
0.0570675
-0.0877143
0.09089
0.0597801
0.0586683
-0.0940611
0.0972718
0.0609094
0.0602187
-0.100498
0.103761
0.0599605
0.060504
-0.106998
0.110193
0.0552973
0.0578958
-0.113237
0.116071
0.045553
0.0508503
-0.118557
0.120616
0.0304579
0.038406
-0.122084
0.12296
0.0113585
0.021163
-0.123206
0.122812
-0.00911535
0.00108417
-0.12182
0.120265
-0.0275595
-0.0186794
-0.118247
0.11585
-0.0417994
-0.0350312
-0.113228
0.110453
-0.0516721
-0.0469745
-0.107644
0.104815
-0.0571646
-0.0546119
-0.102038
0.0992922
-0.05864
-0.0579306
-0.0966236
0.0939872
-0.0576602
-0.0579247
-0.0914049
0.0888129
-0.0559251
-0.0563924
-0.0862202
0.083553
-0.0543086
-0.0546628
-0.0808123
0.0779223
-0.0529548
-0.0531864
-0.0749329
0.0717581
-0.051475
-0.0518654
-0.0684987
0.0650476
-0.0483234
-0.0502371
-0.0610202
0.0582369
-0.0426752
-0.0457867
-0.0411041
0.0425928
0.0592782
0.040246
-0.0376149
0.0556057
0.0580084
-0.0438979
0.0457512
0.0646015
0.0616956
-0.0470771
0.0480491
0.0722957
0.0678783
-0.0486203
0.048798
0.0820991
0.0767195
-0.0485691
0.0479335
0.0929932
0.0871762
-0.0469274
0.0471493
0.103696
0.0981252
-0.0460553
0.0442994
0.114308
0.110656
-0.0414369
0.0407075
0.122685
0.11968
0.120755
-0.116796
0.0487437
-0.123574
0.125963
0.0383193
0.044523
0.113069
-0.107805
0.0522444
0.0519814
0.104711
-0.101695
0.0543482
0.0530405
0.0988256
-0.0960047
0.0543711
0.0539095
0.0932921
-0.090585
0.0534437
0.0533707
0.0879085
-0.085163
0.0520956
0.0522501
0.0823819
-0.0794911
0.0501894
0.0507169
0.0765425
-0.0734974
0.0471471
0.0483873
0.0704484
-0.0673972
0.0421398
0.0445288
0.0644787
-0.0617363
0.0343635
0.0382891
0.0593217
-0.0573013
0.0234895
0.0290484
0.0558059
-0.054894
0.0100458
0.0168719
0.0546314
-0.055031
-0.00456885
0.00274421
0.056049
-0.0576566
-0.0186214
-0.0116779
0.0597174
-0.0621511
-0.0308173
-0.0248324
0.064819
-0.0676816
-0.0405472
-0.0357772
0.0706621
-0.0737831
-0.0473913
-0.0440795
0.0769894
-0.0802676
-0.051311
-0.0493593
0.0835171
-0.0867501
-0.0538653
-0.0523223
0.0899555
-0.0932293
-0.056626
-0.0548916
0.0965937
-0.100128
-0.0596647
-0.0578343
0.103823
-0.107729
-0.0623474
-0.060837
0.111779
-0.115947
-0.0624758
-0.0626677
0.120106
-0.124203
-0.056243
-0.0601131
0.128107
-0.131733
-0.0420329
-0.0498189
0.134954
-0.137597
-0.0227331
-0.032686
0.137889
-0.13664
-0.000786465
-0.0120125
0.134769
-0.130226
0.0220679
0.0107466
0.0148882
-0.021234
-0.0488964
-0.0425676
0.0395679
-0.0408996
-0.126162
-0.128515
0.0378574
-0.0494402
-0.0657987
0.049421
-0.0822487
0.011566
-0.0467342
-0.0114062
-0.0453365
0.0117622
-0.0024429
-0.0428357
-0.0364534
-0.0573319
0.035555
-0.091675
0.0590352
-0.062062
-0.0396484
0.0561573
-0.034737
0.0332765
-0.0348234
0.124232
0.0322308
0.127008
-0.0215624
-0.0524301
0.0197092
-0.101941
0.00329835
-0.111601
-0.0128361
-0.120151
-0.0272758
-0.123826
-0.0418851
-0.12375
-0.0192599
-0.047739
0.0202648
-0.0496551
0.0491881
-0.0187929
0.0273153
-0.0522604
-0.02471
0.048422
-0.12042
-0.0541638
0.043601
-0.123694
-0.0504676
0.0300439
-0.0729087
-0.0458363
0.0435171
-0.00115259
-0.00805439
-0.0452305
0.0470914
0.0167478
0.00790562
-0.0482072
0.050245
0.0304346
0.0239294
-0.0533758
0.0568988
0.0407344
0.0358845
-0.0606672
0.0645392
0.0475433
0.0444055
-0.0682921
0.0719178
0.0511975
0.0494957
-0.0754099
0.0788225
0.053166
0.0520775
-0.0821594
0.0854827
0.0547652
0.0537306
-0.0888018
0.0921713
0.0564106
0.0553493
-0.0955764
0.0990485
0.0574374
0.0568135
-0.10255
0.106088
0.0564225
0.0570029
-0.109588
0.113024
0.051861
0.0543956
-0.116278
0.119278
0.042553
0.0475966
-0.121878
0.123997
0.0283394
0.0358052
-0.125496
0.126361
0.0104937
0.019664
-0.126552
0.12606
-0.0086232
0.000892562
-0.124923
0.123187
-0.0258232
-0.0175428
-0.120972
0.118376
-0.0392034
-0.0328156
-0.115561
0.112597
-0.0487081
-0.0441597
-0.109598
0.106574
-0.0541403
-0.0516133
-0.103599
0.100653
-0.0556943
-0.0549551
-0.0977914
0.0949719
-0.0548408
-0.0550632
-0.0922226
0.0894771
-0.0531796
-0.0536431
-0.0867493
0.0839632
-0.0515225
-0.051935
-0.0811239
0.0781554
-0.0499863
-0.0503471
-0.0750865
0.0718935
-0.0482819
-0.0487965
-0.0683146
0.065248
-0.0452568
-0.0466582
-0.0426007
-0.0339612
0.0349654
0.058274
0.0321235
-0.0316739
0.0551561
0.0561706
-0.0366374
0.0379238
0.0633151
0.0600236
-0.0389418
0.0396794
0.0715581
0.0668603
-0.0401079
0.0401931