/*--------------------------------*- C++ -*----------------------------------*\
  =========                 |
  \\      /  F ield         | OpenFOAM: The Open Source CFD Toolbox
   \\    /   O peration     | Website:  https://openfoam.org
    \\  /    A nd           | Version:  10
     \\/     M anipulation  |
\*---------------------------------------------------------------------------*/
FoamFile
{
    format      ascii;
    class       surfaceScalarField;
    location    "12";
    object      phi;
}
// * * * * * * * * * * * * * * * * * * * * * * * * * * * * * * * * * * * * * //

dimensions      [0 3 -1 0 0 0 0];

internalField   nonuniform List<scalar> 
57492
(
-0.00515523
0.00017455
0.00110678
0.0038739
0.00222984
-0.00393565
-0.00344943
-0.00076475
0.0022543
0.00795771
-0.00944726
0.0386786
0.0295892
-0.00605293
-0.0622148
-0.083122
0.0348043
0.0869962
0.0148709
-0.0140529
-0.00711493
0.00629695
-0.0268186
0.00745393
-0.00436621
0.0237309
0.00540785
-0.0173556
0.0149011
-0.0418662
0.0398544
-0.0128893
0.01265
0.0382628
-0.0360117
0.00777607
0.00253871
-0.00588285
-0.00443193
-0.00108982
0.00371794
0.00514794
-0.00573745
0.00510441
-0.000456787
0.00106665
-0.00426539
0.0317763
-0.0279553
-0.0117594
0.00793829
0.00176954
0.0242746
0.00573224
-0.00142599
0.00592785
0.0344637
-0.0389656
-0.00532904
0.0339813
-0.0300783
0.00407867
-0.00843116
0.00435249
-0.033155
0.0236311
0.0136026
-0.0460273
0.00488605
0.0334864
0.00765484
0.00890489
-0.0467441
-0.00818815
-0.000792266
0.00273207
-0.00191081
-2.90023e-05
0.0021575
-0.00316081
0.000211046
-0.0309082
0.0332527
0.00283812
-0.00518261
-0.0510055
0.0297891
-0.00969182
-0.0239792
0.0101911
0.0113273
0.00246074
-0.0165927
-0.0081053
0.000718804
-0.00802973
-0.0233937
0.027672
0.00375139
-0.00940101
0.00287037
-0.0014991
0.0156793
-0.0102092
-0.0094893
0.00401918
-0.0133168
0.0106094
0.0183868
-0.0201216
-0.0341362
0.0238213
0.0304365
-0.0376339
-0.0114608
0.028973
-0.0178185
-0.0026629
0.0204814
-0.00572446
-0.0120941
-0.0273492
0.0348334
-0.0132086
0.00465786
-0.0171128
-0.0148943
-0.0121629
0.0196168
-0.00743621
-0.0378751
0.0203518
0.0175233
-0.0731935
0.0353184
0.0578851
-0.0141481
0.00891333
-0.0526504
0.0427711
0.00380576
0.0113082
-0.0122632
0.0549197
-0.0568046
0.0286178
0.00518278
-0.0283927
0.0276075
-0.00335593
0.0325726
-0.0116498
-0.0239865
0.00306377
0.036778
0.00097734
0.0220622
-0.012884
0.0184293
0.0105849
0.0352083
-0.0439294
-0.00396419
0.0028021
0.0450914
-0.0453364
-0.000735539
0.00214262
0.0110045
0.040681
-0.0400672
-0.0116183
0.00811446
-0.0389762
-0.020284
0.0411254
0.032149
-0.0529904
0.0115632
0.0483787
-0.0802259
0.000975544
0.00322789
-0.000284927
-0.0039185
0.00328705
0.00279291
-0.00184009
0.00148893
0.00363821
0.00184826
-0.000460465
-0.00154344
0.00125851
-0.000237988
-0.00130545
0.0961317
0.0425745
-0.0662871
-0.0724191
0.0358471
-0.0216718
0.0819564
-0.0854248
0.0357526
0.0855192
0.0214479
-0.0642981
0.0124217
-0.0307677
0.0242049
-0.00585895
0.0262073
-0.0310101
0.0172244
0.000922516
-0.000897812
0.000149845
0.00159782
0.000431476
0.00436306
0.00110867
-0.0333621
0.060792
0.0289403
-0.0563703
0.0390048
-0.0461596
0.0236814
0.0555244
-0.0184138
0.133998
-0.00805175
-0.04241
-0.083536
0.0426461
0.0735331
0.0178186
0.0249483
-0.0507069
0.0684047
0.00140557
-0.00217032
0.00365987
0.0162314
0.0321171
-0.0132485
-0.0351001
0.0220536
0.00213553
0.00254528
-0.00112814
-0.00141714
0.0029268
-0.000381518
-0.077917
0.0394531
-0.0290055
0.0674693
-0.0682727
-0.0327865
0.0231423
-0.0369065
0.0318776
-0.0632437
0.0370368
-0.000730995
-0.0186105
-0.0176954
-0.014625
0.0419116
0.00975022
-0.0179118
-0.00180542
0.0050922
-0.0163708
-0.00227197
-0.00613351
-0.0288478
0.00442718
0.00338133
0.00053008
-0.00833859
0.0056457
0.00638493
-0.00760345
-0.00699953
-0.00131772
0.0139629
-0.00450623
0.000888034
-0.00520715
0.001231
-0.0151107
0.00897719
0.00218496
-0.0172957
0.00232878
0.000598013
0.0465064
0.0310365
-0.00327581
0.0174191
-0.0540346
-0.00317341
0.0359264
-0.0265504
-0.00620262
-0.00498526
0.0414338
-0.039622
0.0350483
0.0160629
-0.00143272
-0.0496785
-0.0140882
0.00862119
0.0405153
0.0410498
-0.039075
-0.0143916
-0.0287037
0.010081
0.0330143
-0.0126878
0.0331477
-0.0348515
0.00238639
-0.0437778
-0.00461328
-0.00366256
0.000115934
-0.00256453
0.00268286
0.0021115
-0.0020374
0.00262631
-0.00315344
-0.00575967
-0.000213372
-0.0047441
0.00782572
0.00187686
-0.00495848
0.0177296
-0.017034
-0.00543973
-0.00799807
0.0186322
0.00709549
-0.00334917
0.00317682
-0.0620373
0.0374289
0.0640615
0.0711547
-0.0240047
-0.0799365
-0.0300542
0.0391715
-0.00233056
-0.018337
-0.00272613
-0.0119249
0.000193373
0.000823534
-0.00386874
0.00155484
0.00149036
-0.00353435
0.00310791
0.00124997
-0.00676036
-0.000642725
-0.00546394
-0.00769938
0.00123839
-0.0156407
-0.00816022
-0.0153019
-0.016188
0.0192364
0.0122534
0.000870979
0.00745212
-0.023625
-0.0213723
0.0060553
-0.0501615
0.0196918
-0.00268538
-0.0511347
0.00635347
-0.00538023
0.00214641
-0.036865
0.0325773
0.00214132
0.00189041
-0.0341412
0.0343972
0.00238868
-0.112447
-0.0281854
0.0361758
0.0370149
-0.0455085
0.0373617
-0.00519121
0.00351548
-0.0048332
0.00370614
-0.000190654
0.0067808
-0.00133841
0.0623902
-0.0375561
-0.0253128
0.000478712
0.0528421
-0.00271506
0.0562054
0.0138046
-0.0584467
0.0294929
0.0432521
-0.0165396
0.0130886
-0.0283611
0.0447654
-1.12691e-05
0.0037174
0.0129733
-0.0396361
-0.0416286
0.0237115
0.0500777
0.0171127
-0.000871909
-0.0178951
0.0016543
0.0056678
-0.00187196
-0.0221531
0.00431421
0.0284483
0.00351231
-0.0199976
-0.00318577
0.000911362
0.00190061
-0.00154091
-0.000444584
8.4881e-05
-0.000465744
-4.40144e-05
0.00241037
0.000366948
0.0058683
-0.00670099
-0.0100062
0.0199177
-0.00758266
0.0592092
-0.0505965
-0.0186189
-0.000437726
-0.0289149
0.0336668
-0.0710205
-0.00165684
-0.0521974
-0.0264682
0.00764502
0.0313893
0.0256453
-0.0521486
0.0203491
0.0467591
-0.0357189
0.0187405
-0.03217
0.0185846
-0.00515508
0.0204673
-0.0311857
0.0294589
0.0444629
0.0146688
0.0461404
-0.000150169
-0.0458223
-0.000167872
0.0512275
-0.00411354
-0.00097362
0.050216
-0.00869114
0.00150573
-0.0430306
0.0358296
-0.0130308
0.0274172
0.0403529
-0.0116847
0.00941545
-0.0380837
0.0106268
0.0409356
-0.0112094
-0.0366658
-0.0140388
0.0390199
0.00851449
-0.0350994
-0.0150752
0.0340507
-0.0192684
-0.0309586
0.0173016
0.0329254
-0.0194956
-0.0315129
0.03174
0.0179308
0.0297526
-0.0108524
-0.0368309
0.0293269
-0.0308918
-0.0210168
0.0211573
0.0291865
-0.016474
0.0252097
-0.0392339
0.0346291
-0.00624759
-0.0505733
0.00547384
0.0517569
-0.00665735
0.0142387
0.00721846
-0.000372732
0.000930859
-0.00777659
0.00603773
0.0030731
-0.00189237
0.000600882
-0.00269955
-0.003661
-0.0208062
-0.0310967
0.0193636
0.000404507
-0.000448522
-1.90884e-05
0.000423596
-0.00364072
-0.0355635
0.0263202
-0.0304929
-0.00305395
0.0299061
0.00214137
-0.0318789
-0.000755329
0.00313484
0.017358
-0.00249289
-0.0179999
0.0136747
0.0119512
-0.0224911
0.0204889
0.0105438
0.000253756
-0.000701717
-0.0032146
-0.000935762
0.00118952
-0.00163748
0.000289996
-0.000487649
0.00204591
-0.0003104
0.000600396
-0.000798049
0.0011695
-0.000106585
0.00109458
-0.00107888
0.00224839
-0.00118547
0.0020122
-0.000162127
-0.00519924
-0.000727748
0.00273995
-0.000889875
0.0171359
0.0338206
-0.0423354
0.0105342
-0.0428044
0.0494061
0.0502027
-0.00584788
-0.0133192
-0.0251348
0.013212
0.0252419
-0.00627434
0.0268992
-0.033944
0.00286718
-0.0342763
0.0314332
-0.0314183
0.000901287
-0.000916144
0.0317422
0.000976144
-0.00128517
0.00113981
-0.0310826
-0.00147554
0.0323214
0.000362497
-0.000941682
0.0332531
0.000542752
-0.00147451
2.93542e-05
0.0344444
-0.00122068
0.0347302
-0.0340772
-0.000623703
-0.00211148
0.0364477
0.000108274
0.0342334
-0.00161464
-0.0325882
-0.000946186
-0.0320247
-0.000201036
-0.0315343
0.000485785
-0.031772
0.00113891
-0.0308018
0.000169672
-0.00235619
0.0384404
0.000363487
0.0330613
-0.00118413
0.0015285
-0.0305531
-0.00205798
-0.0306134
0.00134011
0.00178947
-0.0321332
-0.000209391
-0.000999154
0.0388353
0.000604194
0.0334557
-0.00139352
-0.03132
0.00249603
0.0392337
-0.00121414
0.000815712
-0.00140363
0.0396111
0.00102623
0.0338383
-0.00159672
0.0341925
-0.00175785
0.00214352
-0.0317045
-0.00257217
-0.0310952
0.0019187
-0.00157675
0.0399887
0.00119917
0.0345345
-0.00191873
0.00266559
-0.0314837
-0.00288641
-0.0306792
0.0022496
-0.0017211
0.0403346
0.00137523
0.0348456
-0.00203222
0.00299018
-0.0312941
-0.00317981
-0.0302984
0.00260935
-0.00185105
0.0406785
0.00150717
0.0351474
-0.00215282
0.00330551
-0.0311053
-0.00349423
-0.0299139
0.00292103
-0.00194963
0.0409807
0.00164746
0.0354199
-0.00222222
0.00361245
-0.0309407
-0.00377709
-0.0295654
0.00326397
-0.00203345
0.0412751
0.00173903
0.0356923
-0.00230575
0.00397802
-0.0308299
-0.00408883
-0.0291346
0.00354721
-0.00207906
0.0415093
0.00184483
0.0359492
-0.00233603
0.00440477
-0.0297317
-0.00550295
-0.0282922
0.00356243
-0.00209799
0.0417095
0.00189783
0.0360984
-0.00224713
0.00470483
-0.029719
-0.0047175
-0.0277031
0.00411572
-0.00205302
0.0417896
0.00197285
0.0360258
-0.00198047
0.00521335
-0.0283176
-0.00661481
-0.0265174
0.00402766
-0.000463729
0.0402639
0.00198942
0.0372579
-0.00169584
0.00553296
-0.0278814
-0.00596916
-0.0258162
0.00483174
-0.000686516
0.0374398
0.00351063
0.0380067
-0.00143527
0.00610411
-0.006779
-0.0272065
-0.0252189
0.00550676
-0.00219402
0.00250763
0.0371262
0.0378862
-0.00207354
-0.0301772
0.0308564
-0.00664831
-0.0301542
-0.00680203
0.00684971
-0.00713046
-0.0269257
0.00573925
-0.0241084
-0.0303021
0.0307341
-0.00514958
-0.00606048
-0.0296684
0.0297303
-0.00415075
-0.00443718
-0.0297862
0.0298414
-0.0035494
-0.00383304
-0.0299008
0.0299721
-0.00295772
-0.00323918
-0.0300547
0.0322181
-0.00237283
-0.00265475
-0.0322336
0.0319326
-0.00117448
-0.00207348
-0.0331348
0.0330743
-0.00122467
-0.00211841
-0.0322084
0.0319764
-0.00124253
-7.57174e-05
-0.031462
0.0317238
-0.000153524
-0.000706317
-0.0319972
0.0322749
0.000326428
9.01557e-05
-0.0325527
0.032832
0.000746985
0.000537928
-0.0331069
0.0333789
0.00110323
0.000924207
-0.0336425
0.0338998
0.00139021
0.00124355
-0.0341459
0.0343837
0.00160707
0.00149288
-0.0346086
0.0348253
0.0017562
0.00167288
-0.0347912
0.0358675
0.00243434
0.00202349
0.0359975
0.0023776
-0.0025445
0.00284949
0.0368212
-0.00247242
0.0378141
0.0380675
-0.0373462
-0.00241711
-0.0385385
0.0385546
-0.00208973
-0.00190627
0.0372001
-0.0368832
-0.00256403
-0.00212658
0.0366859
-0.036463
-0.0025287
-0.00253326
0.0362176
-0.0359447
-0.00242577
-0.0024676
0.0356479
-0.035322
-0.00224463
-0.00232894
0.0349721
-0.0345927
-0.00197614
-0.0021078
0.0341898
-0.0337588
-0.00161517
-0.00179634
0.0339809
-0.0334442
-0.00116044
-0.00139252
0.0334926
-0.0326001
-0.00109352
-0.000897735
0.031862
-0.0311335
0.000410404
-0.000252388
0.0309644
-0.030625
0.00100067
5.90973e-07
0.0291422
-0.0286029
0.00137939
0.00101333
0.0280712
-0.0275433
0.00208153
0.00171782
0.027027
-0.0265155
0.00275243
0.00240473
0.0260133
-0.0258106
0.00335981
0.00304497
0.025305
-0.0251556
0.00387827
0.0036101
0.0243992
-0.0235093
0.00461684
0.00407527
-0.0225934
0.00482342
-0.0301463
-0.00713833
0.0362748
0.00257223
-0.00248801
0.0385702
0.00620072
-0.00664331
-0.0236658
0.00536553
-0.0217582
0.00712921
-0.00737374
-0.0299018
-0.0264398
-0.0321666
0.0317593
-0.00624096
0.0324183
-0.0325057
-0.00705089
-0.00655038
-0.0314245
0.0314702
-0.00519525
-0.00572575
-0.0314974
0.0315032
-0.0041565
-0.00446439
-0.0314947
0.0314774
-0.0035321
-0.00382453
-0.0314566
0.0314379
-0.00293904
-0.00321842
-0.0314251
0.0314243
-0.00237206
-0.00264191
-0.0314392
0.032092
-0.00182722
-0.00208839
-0.0315268
0.0316011
-0.00129892
-0.00155326
-0.032564
0.0321123
-0.000790862
-0.00103864
-0.0319534
0.0321116
-0.000311772
-0.00054735
-0.0322871
0.0324789
0.000134697
-8.53611e-05
-0.0326807
0.0328928
0.000534953
0.000336041
-0.0331098
0.0333321
0.000880874
0.000707209
-0.0335546
0.0337784
0.00116644
0.00102107
-0.0339985
0.034217
0.0013885
0.0012728
-0.0344289
0.0346383
0.00154684
0.00146098
-0.0348438
0.0353609
0.00191727
0.001818
0.00220564
-0.00245617
0.0370717
0.00193281
0.0365476
-0.0354696
0.0360434
0.00199843
0.00226887
0.0389131
-0.0388711
-0.00213177
0.038641
-0.00221584
0.00231922
-0.00200556
0.0382566
0.0376772
0.0388225
-0.038477
-0.0027626
-0.00195486
0.038063
-0.0379229
-0.00270416
-0.00254062
0.0377616
-0.0375767
-0.00271359
-0.0026945
0.0373688
-0.0371332
-0.00266135
-0.00267554
0.0368723
-0.0365807
-0.00253624
-0.0025898
0.0362621
-0.0359104
-0.00232785
-0.00242644
0.0355306
-0.035117
-0.00202881
-0.00217611
0.0346759
-0.0342014
-0.00163486
-0.00183365
0.0337027
-0.0336477
-0.00114853
-0.00139644
0.0330305
-0.0320436
-0.000576514
-0.000869602
0.0317758
-0.0308378
6.26166e-05
-0.00026719
0.0302166
-0.0295804
0.000743285
0.00039213
0.0289427
-0.0282979
0.00143667
0.00108011
0.027656
-0.027011
0.00210743
0.00176285
0.0263716
-0.0257313
0.00271949
0.00240561
0.0250946
-0.0244552
0.00323887
0.00297341
0.0238135
-0.0228309
0.00363428
0.00343349
0.0220174
-0.0209699
0.00431804
0.00400996
-0.0325158
-0.00736372
0.00535978
-0.00634948
-0.0207685
-0.0200916
0.00448143
-0.007261
-0.0227543
0.00198777
0.0359884
0.0387512
-0.00211583
-0.00713775
0.0068182
-0.0295822
-0.00739961
-0.0322539
0.00515125
-0.00635472
-0.0195651
0.00431666
-0.019257
-0.0268827
0.0362546
-0.035928
0.00167185
0.0360691
0.00217331
-0.00170183
0.00200314
0.0379553
-0.00193123
0.0389806
-0.0340939
0.0346642
-0.00796985
-0.00828435
0.00766961
-0.0316392
0.0348816
0.0072658
-0.0041371
-0.0380103
-0.00749665
-0.0348068
0.0346512
-0.00689534
-0.00750631
-0.0342978
0.033761
-0.00570414
-0.00619697
-0.0335555
0.0332041
-0.00484383
-0.00552025
-0.0332117
0.0332003
-0.00414518
-0.004472
-0.0331718
0.0331292
-0.00348946
-0.003796
-0.0330769
0.0330184
-0.00288053
-0.00316615
-0.0329585
0.0329016
-0.00231518
-0.00258197
-0.0328519
0.0328116
-0.00178692
-0.00203866
-0.0327876
0.0327788
-0.0012901
-0.00152933
-0.0327889
0.0328196
-0.000821543
-0.00104875
-0.0328693
0.0329392
-0.00038166
-0.000597055
-0.033029
0.0331377
2.59992e-05
-0.000175161
-0.0332625
0.0334029
0.000394528
0.000211217
-0.0335552
0.0337193
0.000716841
0.000554911
-0.0338908
0.0340701
0.000987075
0.000849563
-0.0342529
0.0344404
0.00120104
0.00108999
-0.0346279
0.0348179
0.00135689
0.00127345
-0.0351086
0.0353758
0.00165003
0.00152732
0.00171662
0.00229806
-0.00223286
0.0370066
-0.002302
0.00185447
0.036436
0.0365437
0.0374474
0.0396496
-0.0396059
-0.00217551
-0.0395929
0.0393442
-0.00186708
-0.00215912
0.0391564
-0.0392075
-0.00271145
-0.00240435
0.0390079
-0.0389079
-0.00280417
-0.00274027
0.0387895
-0.0386493
-0.00285371
-0.00281293
0.0384878
-0.0383005
-0.00284864
-0.00283705
0.0380887
-0.0378472
-0.00277778
-0.0028016
0.0375782
-0.0372758
-0.00263024
-0.00269543
0.0369435
-0.0365752
-0.0023971
-0.00250838
0.0361761
-0.0357389
-0.002072
-0.00223283
0.035271
-0.0347657
-0.00165386
-0.00186434
0.0342311
-0.0336609
-0.00114672
-0.0014042
0.0330655
-0.0324382
-0.000564674
-0.000862583
0.0317914
-0.0311186
7.05158e-05
-0.000254699
0.0304319
-0.0297259
0.000730733
0.00039338
0.0290125
-0.0282857
0.00138068
0.00104938
0.0275566
-0.0268189
0.00198172
0.00167653
0.0260815
-0.0253377
0.00249499
0.00223608
0.0245941
-0.0238428
0.00288302
0.00268989
0.0228348
-0.0216279
0.00311112
0.00300195
0.0205998
-0.0198421
0.00355897
0.00345336
0.0042713
-0.00503948
-0.0184888
-0.0190006
0.00342983
0.0072569
-0.0291695
-0.00653337
-0.0225756
0.00191942
0.0360041
0.0394818
-0.00206888
0.0081637
-0.0325371
-0.00518928
-0.0194153
0.0146314
-0.0264971
0.0323546
-0.00411042
0.00324477
-0.018135
-0.00506391
-0.0175353
-0.022991
0.0356163
-0.00208148
-0.0154908
-0.00999308
-0.0261591
-0.034477
0.0362757
-0.00593583
-0.00451638
0.00565569
-0.0360094
0.035781
-0.00774147
-0.00723028
-0.0356218
0.0351767
-0.00645025
-0.00734715
-0.0350032
0.0349465
-0.00564747
-0.00602344
-0.0346602
0.034687
-0.00487066
-0.00523388
-0.0346948
0.0346857
-0.00413603
-0.00447984
-0.0346612
0.0346226
-0.0034508
-0.00377153
-0.0345723
0.0345122
-0.00282044
-0.00311594
-0.034446
0.0343756
-0.00224478
-0.00251571
-0.0343053
0.0342378
-0.0017194
-0.00196837
-0.0341769
0.0341252
-0.00123836
-0.00146848
-0.0340863
0.0340611
-0.000796397
-0.00100984
-0.0340523
0.0340605
-0.000389847
-0.000588218
-0.0340867
0.034131
-1.83051e-05
-0.000201426
-0.0341926
0.0342713
0.000315816
0.00014961
-0.0343652
0.034474
0.000608045
0.000461057
-0.0345949
0.0347279
0.000854093
0.000728671
-0.0348696
0.0350205
0.00105015
0.000948263
-0.035177
0.0353399
0.00119404
0.00111691
-0.0356339
0.0359992
0.00128468
0.00123333
-0.0360935
0.0362614
0.00150387
0.00162239
-0.0365853
0.0367556
0.00174914
0.00184945
0.00220393
-0.00213857
0.0363706
-0.00187525
0.00145071
0.0371801
0.0363328
0.00234903
-0.00195934
0.0366169
0.0367541
0.00194865
-0.00207431
0.0380809
0.0374367
0.00209034
-0.00229921
0.0396907
0.0389967
0.0404065
-0.0403015
-0.00197206
-0.0409723
0.0399218
-0.00124869
-0.00263466
0.0402316
-0.0401545
-0.0022526
-0.00222903
0.0399092
-0.0398773
-0.00274343
-0.00264966
0.039833
-0.0397735
-0.00286366
-0.00278457
0.039699
-0.0396061
-0.00294661
-0.0028874
0.0394947
-0.039361
-0.00298238
-0.0029484
0.0392052
-0.0390228
-0.00296023
-0.00295737
0.0388147
-0.0385755
-0.0028694
-0.00290355
0.0383073
-0.0380042
-0.00270023
-0.00277659
0.0376693
-0.0372962
-0.00244506
-0.00256767
0.0368897
-0.0364435
-0.00210014
-0.00227084
0.0359631
-0.0354426
-0.00166721
-0.00188458
0.0348905
-0.0342994
-0.00115571
-0.00141471
0.0336802
-0.0330266
-0.000583141
-0.000873906
0.0323494
-0.0316433
2.46014e-05
-0.000283759
0.03092
-0.0301742
0.000634899
0.000326108
0.0294177
-0.0286451
0.00120907
0.000920013
0.0278675
-0.0270792
0.00170675
0.00145848
0.0262904
-0.0254952
0.00208783
0.00190107
0.0247023
-0.0239064
0.00231516
0.00220905
0.0228012
-0.0215996
0.00235736
0.0023482
0.0208521
-0.0200451
0.00243778
0.00268233
0.00307418
-0.00382305
-0.0173861
-0.0192108
0.00223984
0.00735177
-0.0283576
-0.00608395
-0.021681
0.00947126
-0.0273769
-0.0051444
-0.0193348
0.037368
-0.0372799
0.00166103
0.0374327
0.00138607
-0.00174135
0.00187831
0.0395537
-0.00204304
0.0402235
0.0102194
-0.0247653
-0.00424563
-0.0171128
-0.00801325
-0.0254775
-0.0280498
0.0332366
-0.00726821
0.00298416
-0.00356478
-0.0168055
0.00214954
-0.0183761
-0.0250491
-0.0129938
-0.0248913
-0.0352068
0.0359323
-0.00666134
-0.00648661
-0.0364764
0.0361077
-0.0073728
-0.00777436
-0.0356814
0.0357556
-0.00652446
-0.00692083
-0.0358151
0.0358598
-0.0056922
-0.00608288
-0.035892
0.0359116
-0.00489019
-0.00526613
-0.0359193
0.0359158
-0.00413255
-0.00448757
-0.0359018
0.0358775
-0.00342645
-0.00375755
-0.0358438
0.0358011
-0.00277774
-0.00308224
-0.0357513
0.0356951
-0.00218858
-0.00246589
-0.0356353
0.0355734
-0.00165742
-0.00190863
-0.0355124
0.0354543
-0.00118023
-0.00140753
-0.0354022
0.0353577
-0.000751904
-0.000957784
-0.0353238
0.0353015
-0.000367579
-0.000554248
-0.035293
0.0352989
-2.42126e-05
-0.00019289
-0.0353197
0.035356
0.000279565
0.000128738
-0.0354072
0.0354733
0.00054188
0.000409875
-0.035553
0.0356463
0.00076086
0.000648975
-0.0357508
0.0358669
0.000934095
0.0008437
-0.0359918
0.036126
0.00105985
0.000991969
-0.0362666
0.0364132
0.00113805
0.00109273
-0.0368896
0.0369108
0.00148261
0.00114608
0.00148036
0.00204722
-0.00241768
0.0367411
-0.00163586
0.00162069
0.0371953
0.0367442
0.00189362
-0.00200129
0.0367245
0.0362301
0.00172902
-0.00162246
0.0379744
0.0371645
0.0392525
0.0409881
-0.040922
-0.00203822
-0.0404694
0.0407402
-0.00151947
-0.00211596
0.0408346
-0.0405066
-0.0025806
-0.00231641
0.0405144
-0.0405136
-0.00274426
-0.00264186
0.0405036
-0.0404826
-0.00288462
-0.00279456
0.0404498
-0.0404027
-0.00299371
-0.00292025
0.0403405
-0.0402604
-0.0030625
-0.0030105
0.0401618
-0.0400408
-0.00308117
-0.00305605
0.0398975
-0.0397273
-0.00303958
-0.00304688
0.0395309
-0.039303
-0.00292805
-0.00297303
0.0390454
-0.0387521
-0.00273832
-0.00282536
0.0384261
-0.0380612
-0.00246503
-0.00259688
0.0376615
-0.0372211
-0.00210763
-0.00228423
0.0367459
-0.0362297
-0.0016719
-0.0018899
0.0356804
-0.0350922
-0.00117136
-0.00142322
0.0344744
-0.033822
-0.000627778
-0.000901549
0.0331454
-0.03244
-7.0539e-05
-0.000350518
0.031717
-0.0309724
0.000464414
0.000197079
0.0302176
-0.0294488
0.000937888
0.00070374
0.0286772
-0.0278993
0.00130994
0.00112954
0.0271259
-0.0263539
0.00154319
0.00143561
0.025593
-0.0248405
0.00160486
0.00158724
0.0237127
-0.0227489
0.00147393
0.00155456
0.0218308
-0.0210754
0.00139413
0.00132176
0.00207536
-0.00249053
-0.017961
-0.0204421
0.0014421
0.00712798
-0.0260143
-0.00585068
-0.0209747
0.00162994
0.0374234
0.0405703
-0.00187313
0.00850641
-0.0256639
0.00454341
-0.0350478
0.00737481
-0.0275967
-0.00504941
-0.018531
-0.00404301
-0.0166345
-0.0351508
-0.0153758
0.0106482
-0.0129248
-0.0328743
0.00585866
-0.0302582
-0.00321932
-0.0160767
0.00145002
-0.00234789
-0.0170631
0.00124908
-0.0202412
-0.023614
-0.0328837
0.0346169
-0.00900142
0.0345364
-0.037139
-0.0127732
-0.0113411
-0.0359213
0.0366633
-0.00740332
-0.007791
-0.0367243
0.0367727
-0.00742129
-0.00783534
-0.0368109
0.0368391
-0.00655269
-0.00695896
-0.0368605
0.0368765
-0.0057082
-0.00610426
-0.0368877
0.0368947
-0.00489713
-0.00527739
-0.0368973
0.0368954
-0.00413069
-0.00449018
-0.0368892
0.0368781
-0.00341538
-0.0037513
-0.0368622
0.036841
-0.00275655
-0.00306634
-0.036815
0.0367839
-0.00215755
-0.00243983
-0.0367491
0.0367108
-0.00161912
-0.00187377
-0.0366709
0.0366303
-0.00113965
-0.00136764
-0.0365913
0.0365552
-0.000715735
-0.000918811
-0.0365243
0.0364998
-0.000343103
-0.000523322
-0.0364839
0.0364778
-1.81533e-05
-0.00017697
-0.0364824
0.0364988
0.000263182
0.000124103
-0.0365274
0.0365686
0.00050065
0.000381288
-0.0366221
0.036688
0.000694903
0.000595522
-0.0367652
0.036854
0.000845365
0.000766496
-0.0369523
0.0370606
0.000951557
0.000893636
-0.0371765
0.0373009
0.00101367
0.000976858
-0.0374299
0.0378797
0.00103281
0.00101702
-0.0380556
0.0382895
0.00142714
0.0013045
-0.0379166
0.0382357
0.00131082
0.00175893
0.00190057
-0.00189132
0.037186
-0.00127274
0.00087215
0.0386363
0.0380512
0.00204212
-0.00170811
0.0364071
0.036895
0.00183786
-0.0019384
0.0368251
0.0363598
0.00200555
-0.00204193
0.0380107
0.0372316
0.00179834
-0.00187071
0.0396261
0.0390089
0.00191805
-0.00181757
0.0404698
0.0402708
0.0412836
-0.0408804
-0.00192267
-0.0410196
0.0407531
-0.00155107
-0.00160914
0.041044
-0.0410101
-0.00207215
-0.00195237
0.0408957
-0.0409322
-0.00254408
-0.00243081
0.0409632
-0.0409898
-0.0027177
-0.00261079
0.0410097
-0.0410226
-0.00287176
-0.00277466
0.0410267
-0.0410209
-0.0029995
-0.0029161
0.0410037
-0.0409732
-0.00309304
-0.00302772
0.040928
-0.0408655
-0.00314366
-0.00310126
0.0407846
-0.0406821
-0.0031421
-0.00312771
0.0405573
-0.0404062
-0.00307917
-0.00309781
0.0402289
-0.0400206
-0.00294658
-0.00300269
0.0397826
-0.0395094
-0.00273817
-0.00283496
0.0392036
-0.0388596
-0.00245162
-0.00259009
0.0384813
-0.0380633
-0.00208992
-0.00226819
0.0376111
-0.0371196
-0.00166288
-0.00187539
0.036596
-0.0360358
-0.00118801
-0.0014251
0.0354477
-0.0348278
-0.000690428
-0.00093856
0.0341865
-0.0335202
-0.000201915
-0.000444273
0.0328397
-0.0321429
0.000241098
2.32438e-05
0.0314409
-0.030732
0.000600978
0.000427616
0.0300275
-0.029326
0.000841713
0.000731081
0.0286385
-0.0279654
0.000931803
0.000899725
0.0273176
-0.0266932
0.000849497
0.000906744
0.0261024
-0.0252842
0.000575925
0.000730995
0.0245796
-0.0237814
0.000450862
0.000737502
0.000525928
-0.00111119
-0.0196559
-0.0234848
0.000229322
0.00693887
-0.0244468
-0.0368038
-0.01326
0.00747273
-0.0257619
0.0395372
-0.0394981
0.00127176
0.039638
0.000771355
-0.00154541
0.00159968
0.0404156
-0.0013711
0.0405788
-0.00581256
-0.0202115
-0.00490338
-0.0176706
0.00697492
-0.028713
-0.00376818
-0.0160857
-0.00250637
-0.0159182
-0.00124354
-0.0169308
0.00020922
-0.000380346
-0.0194848
-0.000294849
-0.0229807
-0.0224877
-0.0386961
0.0373303
-0.0114073
-0.0126585
0.0139539
-0.0380992
0.0398845
-0.041012
-0.011531
-0.0120717
-0.0358644
0.036486
-0.00962299
-0.00987527
-0.0372636
0.037753
-0.00789271
-0.00856864
-0.0377413
0.0377279
-0.00740784
-0.00782366
-0.0377132
0.0376982
-0.00653767
-0.00694427
-0.0376842
0.037672
-0.00569598
-0.0060903
-0.0376621
0.0376543
-0.0048894
-0.00526746
-0.0376487
0.0376446
-0.00412662
-0.00448453
-0.0376418
0.0376396
-0.00341318
-0.00374852
-0.0376375
0.0376345
-0.00275363
-0.00306418
-0.0376304
0.0376245
-0.00215166
-0.00243573
-0.0376168
0.037607
-0.00160932
-0.00186603
-0.0375956
0.0375829
-0.00112696
-0.00135626
-0.03757
0.0375574
-0.000703201
-0.000905861
-0.0375468
0.037539
-0.000335285
-0.000512659
-0.0375355
0.0375373
-1.9936e-05
-0.000173525
-0.037546
0.0375622
0.000246919
0.000115418
-0.0375869
0.0376207
0.000466848
0.000356644
-0.0376637
0.0377167
0.000641992
0.000552467
-0.0377788
0.0378507
0.000773505
0.000704357
-0.037931
0.0380201
0.00086237
0.000813341
-0.0381165
0.0382203
0.000909888
0.000880528
-0.0383297
0.0384441
0.000918404
0.000907549
-0.0388519
0.0391098
0.00116926
0.000896738
0.00137059
0.00138288
-0.00177146
0.0375746
-0.00131074
0.000922739
0.0390243
0.0381234
0.00149981
-0.00164965
0.0365569
0.0366233
0.00177473
-0.00186947
0.0369198
0.0364849
0.00193039
-0.00196002
0.0380404
0.0372925
0.00152386
-0.00164103
0.0397433
0.0385728
0.0402295
0.04148
-0.0415701
-0.00183266
-0.0413246
0.0410585
-0.001285
-0.00145364
0.0413368
-0.0411071
-0.00230181
-0.00218565
0.0411609
-0.0412139
-0.00249107
-0.00237702
0.0412644
-0.041313
-0.00266913
-0.00256028
0.0413576
-0.0413985
-0.00283087
-0.00273004
0.0414337
-0.0414628
-0.00297037
-0.00288092
0.0414839
-0.0414961
-0.00308083
-0.00300659
0.0414976
-0.0414866
-0.00315461
-0.00309985
0.0414616
-0.0414202
-0.00318348
-0.00315276
0.041361
-0.0412812
-0.00315902
-0.00315696
0.0411796
-0.0410529
-0.00307333
-0.00310421
0.0409007
-0.0407188
-0.00292002
-0.0029872
0.0405081
-0.040264
-0.00269567
-0.00280082
0.0399887
-0.0396774
-0.00240117
-0.00254356
0.0393338
-0.0389535
-0.00204322
-0.00221898
0.0385416
-0.0380943
-0.00163536
-0.00183697
0.0376183
-0.0371105
-0.00119826
-0.0014145
0.0365792
-0.036022
-0.000759185
-0.00097552
0.0354488
-0.0348575
-0.000350224
-0.000549872
0.0342591
-0.0336525
-5.68875e-06
-0.000170781
0.0330482
-0.0324469
0.000240367
0.000126856
0.0318591
-0.0312858
0.000358544
0.000311935
0.0307364
-0.0302124
0.000325472
0.000357343
0.0297233
-0.0292708
0.000123422
0.000241843
0.0284893
-0.0277892
-0.000249225
-4.39568e-05
0.0273844
-0.0272456
-0.000433684
-0.000175494
-0.0117104
0.00802507
-0.0265729
-0.0306308
-0.000399763
0.000452978
-0.0230339
-0.0267188
-0.000926495
0.00653991
-0.023514
0.00124634
0.0393144
0.0413349
-0.00164747
0.0111054
-0.0404751
-0.0116423
-0.00574132
-0.0193736
0.0119499
-0.0389436
0.00700341
-0.0257903
-0.00468525
-0.0167535
0.00758406
-0.028272
-0.00342313
-0.0151689
-0.00206143
-0.0151004
-0.000751315
-0.0165598
0.000184118
-0.0192159
-0.0010555
0.000936265
-0.0229147
-0.00108333
-0.026691
-0.0216891
-0.0426945
0.0411819
-0.0100184
-0.01282
-0.0394657
0.0118107
0.0435416
-0.0421972
-0.0141644
-0.0107952
-0.0401006
0.0392772
-0.0105839
-0.0109904
-0.0388322
0.0382564
-0.00904719
-0.0094303
-0.0382883
0.0386037
-0.00820808
-0.00860057
-0.0385303
0.0384642
-0.00734174
-0.00775028
-0.0384051
0.0383526
-0.00648514
-0.00688519
-0.0383076
0.03827
-0.00565838
-0.00604526
-0.0382402
0.0382178
-0.00486698
-0.00523774
-0.0382025
0.0381936
-0.00411769
-0.00446923
-0.0381905
0.0381926
-0.00341519
-0.00374547
-0.0381989
0.0382086
-0.00276334
-0.00307048
-0.0382208
0.0382348
-0.00216565
-0.00244796
-0.0382498
0.0382653
-0.0016248
-0.00188102
-0.0382808
0.0382962
-0.00114236
-0.00137177
-0.0383114
0.0383268
-0.000718563
-0.000921105
-0.0383426
0.0383596
-0.000352254
-0.000528507
-0.0383783
0.0383996
-4.12565e-05
-0.000192241
-0.0384244
0.0384534
0.000217882
9.06724e-05
-0.0384872
0.0385268
0.000427313
0.000322834
-0.0385721
0.0386242
0.000589961
0.000507105
-0.0386824
0.0387477
0.000708218
0.00064606
-0.0388191
0.0388971
0.000784324
0.000741995
-0.0389804
0.0390696
0.000820693
0.00079721
-0.0391628
0.0392611
0.000820152
0.00081435
-0.0393611
0.0397444
0.000785958
0.000796708
-0.040147
0.0402907
0.00112805
0.000968012
-0.0398786
0.0400477
0.00107725
0.00118347
0.00145449
-0.00131254
0.0388824
-0.000939738
0.000744265
0.0402431
0.0398291
0.00147812
-0.00127457
0.0373711
0.0382889
0.00143697
-0.00158387
0.0367038
0.0367857
0.00170492
-0.00179485
0.0370097
0.0366059
0.00185066
-0.00187532
0.038065
0.0373484
0.00187361
-0.00144505
0.0393147
0.038571
0.00149146
-0.00154678
0.0404709
0.0402759
0.00210617
-0.00149976
0.0407285
0.0411382
0.0415184
-0.0413194
-0.00148395
-0.0411973
0.0412362
-0.00153866
-0.00132638
0.0413222
-0.0411117
-0.00204314
-0.00145088
0.0411748
-0.0412393
-0.00223725
-0.0021226
0.0413038
-0.0413696
-0.00242524
-0.00231259
0.0414348
-0.0415003
-0.00260362
-0.00249512
0.0415641
-0.0416269
-0.00276806
-0.00266623
0.0416866
-0.0417435
-0.00291348
-0.00282123
0.0417954
-0.0418422
-0.00303403
-0.00295468
0.0418817
-0.0419132
-0.00312308
-0.00306036
0.0419346
-0.0419446
-0.00317343
-0.00313136
0.0419413
-0.0419228
-0.00317756
-0.00316029
0.0418873
-0.0418324
-0.0031282
-0.00313969
0.0417569
-0.0416578
-0.00301914
-0.0030627
0.0415346
-0.0413838
-0.0028464
-0.00292406
0.0412061
-0.0409978
-0.00260947
-0.0027213
0.0407607
-0.0404913
-0.00231261
-0.00245608
0.0401928
-0.0398622
-0.00196598
-0.00213541
0.0395043
-0.0391164
-0.00158614
-0.00177247
0.038705
-0.0382684
-0.00119584
-0.00138688
0.0378143
-0.0373418
-0.000822765
-0.00100392
0.0368597
-0.0363679
-0.000497505
-0.000652831
0.0358762
-0.0353847
-0.000251171
-0.000364811
0.0349032
-0.0344326
-0.000112019
-0.000169606
0.0339817
-0.0335519
-0.000104285
-9.35818e-05
0.0331514
-0.032782
-0.00024604
-0.00015862
0.032448
-0.032148
-0.000549183
-0.00037796
0.0315592
-0.0309732
-0.00101964
-0.000764345
0.030582
-0.0299994
-0.00166601
-0.00131766
-0.0136115
0.00883284
-0.0217942
-0.0322924
-0.00133366
0.00147462
-0.026832
-0.0302962
-0.00103682
0.00647605