/*--------------------------------*- C++ -*----------------------------------*\
  =========                 |
  \\      /  F ield         | OpenFOAM: The Open Source CFD Toolbox
   \\    /   O peration     | Website:  https://openfoam.org
    \\  /    A nd           | Version:  10
     \\/     M anipulation  |
\*---------------------------------------------------------------------------*/
FoamFile
{
    format      ascii;
    class       volVectorField;
    location    "12";
    object      U;
}
// * * * * * * * * * * * * * * * * * * * * * * * * * * * * * * * * * * * * * //

dimensions      [0 1 -1 0 0 0 0];

internalField   nonuniform List<vector> 
28942
(
(-0.106075 0.0598509 -3.38324e-20)
(-0.106386 0.0615651 -7.063e-21)
(0.449067 -0.315157 3.51189e-20)
(1.01583 0.0416429 -9.79234e-20)
(0.994185 0.0515733 3.22739e-20)
(0.311791 0.0123492 0)
(0.381321 0.0361619 -4.49618e-22)
(0.423757 0.00905573 5.92855e-22)
(1.21921 -0.178187 2.01273e-21)
(1.20941 -0.164564 -4.28283e-21)
(-0.0977969 -0.121641 -1.07183e-19)
(-0.0578463 -0.127008 4.84757e-20)
(-0.0884558 -0.110313 0)
(-0.0985302 -0.112632 0)
(0.813104 -0.01511 -2.35502e-24)
(0.808551 -0.0121884 -5.29759e-23)
(0.931004 0.107581 3.09994e-20)
(0.914676 0.0921611 4.96084e-20)
(0.317445 -0.431256 8.6468e-20)
(0.611596 -0.693662 -2.43016e-20)
(0.984618 0.255583 4.15253e-20)
(0.985993 0.239378 0)
(0.0235479 -0.0309725 9.92681e-20)
(-0.0644988 -0.0411099 5.50188e-20)
(0.588936 -0.150795 1.07641e-19)
(0.950555 -0.267909 -9.78362e-20)
(0.186772 -0.432364 4.76274e-19)
(0.193843 -0.358878 -1.83534e-19)
(0.719693 -0.524096 2.04638e-21)
(0.437379 -0.3047 -1.30716e-22)
(0.310604 -0.0196536 0)
(0.406622 -0.0272501 1.15344e-21)
(0.512208 -0.00954526 9.57102e-21)
(0.679407 -0.0190038 3.28061e-22)
(0.438551 0.481731 2.9362e-20)
(0.368813 0.532382 -2.72186e-20)
(0.585059 0.700953 -1.28522e-19)
(0.379417 0.629692 -5.07124e-20)
(0.160953 0.0154594 5.79535e-22)
(0.20315 0.485829 -8.22093e-20)
(0.657901 -0.0596896 0)
(0.856846 -0.0777241 0)
(1.32934 -0.267893 2.64223e-21)
(1.3107 -0.273915 -7.10087e-21)
(1.32146 -0.252842 -6.74871e-21)
(0.586176 0.0126356 -2.11524e-22)
(0.555393 0.0256537 3.18783e-22)
(0.722583 0.0136896 1.80393e-21)
(0.703489 0.0131362 -5.06059e-22)
(0.604479 0.0126792 -3.82586e-21)
(0.505401 0.00613223 2.50401e-21)
(1.17034 -0.0472564 7.16531e-21)
(1.16614 -0.0508442 5.25426e-21)
(1.21333 -0.191796 -1.18839e-22)
(1.20201 -0.178098 -1.20683e-22)
(1.21781 -0.227723 8.92783e-20)
(1.45419 -0.318992 4.85732e-20)
(-0.0770613 -0.0742541 -6.47898e-20)
(-0.0754488 -0.0965863 0)
(-0.0679582 -0.0710519 2.34816e-20)
(-0.0696563 -0.0594148 5.68026e-20)
(-0.0356269 -0.0306405 -4.53386e-20)
(-0.0366932 -0.0331269 -4.68611e-20)
(1.30402 -0.584758 0)
(1.43282 -0.520953 1.7881e-20)
(1.33383 -0.462541 -7.68114e-21)
(1.27277 -0.456618 0)
(0.928416 -0.229104 -2.83736e-20)
(0.947436 -0.25045 -1.83738e-20)
(-0.0620863 0.0409993 1.12476e-19)
(-0.0781712 0.0481481 -3.5794e-20)
(-0.104729 0.07272 9.02157e-20)
(0.920753 -0.313255 0)
(0.938464 -0.277941 9.78499e-20)
(0.86987 -0.425212 2.53635e-20)
(1.39715 0.366993 3.96626e-20)
(1.42464 0.3559 -4.26332e-20)
(1.42035 0.322765 -2.86337e-20)
(0.13866 -0.079062 1.58464e-21)
(0.196914 -0.124832 -3.93129e-20)
(0.961633 -0.609243 -6.20073e-21)
(0.703399 -0.48447 1.29006e-20)
(-0.0737409 0.0445494 1.92491e-19)
(-0.0792711 0.0472294 -7.40899e-20)
(1.22534 0.611635 -3.68217e-21)
(1.16838 0.582878 -2.00593e-20)
(1.06155 0.67449 1.52903e-20)
(0.90949 0.6549 -5.21671e-20)
(0.864756 0.623529 3.60606e-20)
(0.645078 0.448435 -1.11887e-21)
(0.712238 0.540539 -1.16693e-20)
(0.754755 0.625777 1.86658e-20)
(-0.162126 -0.0516669 -1.3083e-20)
(-0.141718 -0.0672016 -3.43306e-21)
(-0.128062 -0.0933245 6.87586e-21)
(-0.133625 -0.0768461 -9.07244e-20)
(-0.131395 -0.056383 1.14979e-19)
(0.360454 0.286998 -6.70751e-20)
(0.40842 0.354442 1.4273e-20)
(-0.0277038 0.0252146 0)
(1.00712 0.00413332 0)
(0.965134 0.0530028 -7.57371e-20)
(0.891172 0.135045 5.35655e-20)
(1.0812 0.117539 0)
(1.43383 0.157956 0)
(1.43956 0.156112 0)
(1.45159 0.16585 7.58323e-20)
(1.08325 0.195127 -6.45539e-21)
(1.07933 0.206372 6.93211e-20)
(1.07283 0.183858 3.62312e-20)
(-0.0811584 -0.0831141 1.29194e-19)
(-0.0812388 -0.08437 -1.44962e-19)
(-0.0237348 0.0452456 -6.0412e-20)
(-0.0536854 0.0469388 5.66224e-20)
(-0.106569 0.056934 1.13297e-19)
(0.165349 0.247754 8.12809e-20)
(0.381403 0.24655 1.98315e-19)
(0.292151 0.464454 1.54573e-20)
(0.130312 0.361113 -4.73238e-19)
(1.25081 0.491571 1.59251e-21)
(1.11375 0.466955 3.44014e-20)
(1.15282 0.452716 -5.92787e-20)
(0.793757 -0.619367 1.16466e-20)
(0.539007 -0.393715 -4.60736e-21)
(0.159282 0.00530158 -2.43911e-19)
(0.145669 -0.0706507 0)
(0.306572 -0.0371894 1.31495e-19)
(0.503152 -0.388129 1.41515e-20)
(0.717629 -0.609444 -3.12959e-20)
(0.691188 0.015478 -1.99971e-21)
(0.725781 0.0138609 7.47944e-22)
(0.649122 0.0139324 6.04333e-23)
(0.498573 -0.751315 0)
(0.52608 -0.585102 0)
(1.06262 -0.132226 -1.20822e-20)
(1.0489 -0.113461 6.89782e-20)
(1.03256 -0.0809479 0)
(0.81477 -0.721909 0)
(0.816312 -0.665749 -3.01015e-20)
(0.733508 0.733053 8.04062e-20)
(-0.0705536 -0.0627233 8.25973e-20)
(-0.0642801 -0.06031 -6.05197e-20)
(0.544738 -0.50312 -1.61446e-20)
(1.32293 -0.228236 -4.09018e-20)
(1.31192 -0.229394 6.79539e-21)
(1.43484 -0.261696 -1.44492e-20)
(1.43406 -0.244646 1.93247e-20)
(1.44567 -0.230175 6.76059e-20)
(-0.0637583 -0.0602339 2.91025e-20)
(0.838919 0.707022 9.91098e-20)
(0.970633 0.690098 -2.93508e-20)
(1.03777 0.722398 3.53022e-23)
(0.48437 -0.0133719 -2.87925e-22)
(0.482995 -0.0148056 -2.52404e-21)
(0.529654 -0.018702 -2.56782e-22)
(0.574066 -0.0175774 6.7867e-22)
(0.790663 0.702989 1.66452e-20)
(0.426478 0.411141 0)
(-0.0477205 0.0441751 6.14932e-20)
(-0.0544569 0.0573434 -6.80743e-20)
(-0.103679 0.0923248 5.18628e-20)
(0.407624 0.0786249 -1.3595e-19)
(0.926739 0.257526 -6.58172e-20)
(0.647304 -0.0182351 3.21085e-22)
(1.20717 -0.448317 2.02619e-20)
(1.16874 -0.524952 4.89833e-20)
(0.965452 0.279459 9.68083e-20)
(0.946971 0.316932 7.74128e-21)
(0.927251 0.196035 5.52728e-20)
(0.944233 0.202914 -3.99269e-20)
(0.989928 0.281414 0)
(1.15729 0.0533618 -9.01969e-22)
(1.16356 0.0511749 -2.94006e-21)
(1.16961 -0.126639 5.97675e-22)
(1.18086 -0.131541 -1.7738e-21)
(1.09615 0.185492 7.05344e-21)
(1.10913 0.195341 -1.96349e-20)
(1.09609 0.196355 0)
(1.08338 0.184576 4.69198e-21)
(1.09348 0.207156 0)
(1.0959 0.262636 -1.80707e-20)
(1.08895 0.275809 -1.05639e-20)
(1.06535 0.298377 -2.04916e-20)
(1.07866 0.28798 0)
(1.098 0.310103 6.29678e-20)
(1.08094 0.323258 2.854e-21)
(1.04857 0.314109 -1.23977e-20)
(0.995151 0.367766 -5.51892e-20)
(0.99502 0.308696 -9.70259e-21)
(0.00334894 0.15013 3.27037e-20)
(0.0958854 0.143925 -1.27686e-20)
(-0.10135 0.081018 -8.32098e-20)
(0.627124 0.0123618 2.03273e-21)
(0.759225 0.013341 0)
(-0.0200754 0.0166345 6.77847e-20)
(-0.0195562 0.0145747 3.38468e-20)
(0.711939 0.0143239 1.48745e-22)
(0.797988 0.0139855 2.00047e-23)
(0.792093 0.0144559 0)
(0.699048 0.0167359 -7.01534e-23)
(0.924809 0.246488 -4.42764e-21)
(0.887602 0.240768 2.25699e-20)
(0.916775 0.237995 1.04494e-20)
(-0.0781105 -0.08051 5.51997e-20)
(-0.0335742 -0.0328239 -7.04986e-20)
(-0.0393224 -0.0381025 6.68141e-20)
(-0.0566827 -0.0413871 0)
(-0.025783 -0.0166615 9.68555e-20)
(-0.0256644 -0.0192374 -8.39638e-20)
(-0.0627816 -0.0156685 -8.68489e-20)
(-0.0882814 -0.0363957 -8.7999e-20)
(-0.0520429 -0.02415 0)
(0.0560155 0.234619 0)
(0.0255167 0.139708 0)
(0.00968126 0.079398 0)
(1.42444 0.146259 -1.11785e-20)
(1.41087 0.131153 0)
(1.4296 0.139343 1.24966e-20)
(0.922213 -0.0941036 1.99664e-19)
(0.935991 -0.101414 -7.24964e-20)
(0.932934 -0.0824969 0)
(0.840883 0.0335224 -2.40239e-22)
(0.850077 0.0248053 4.75674e-22)
(0.83235 0.0426689 -1.66825e-22)
(0.859479 0.0160804 0)
(0.869332 0.00776915 -2.98366e-22)
(0.878896 0.000133252 0)
(0.896018 -0.0117919 0)
(0.888977 -0.00771387 9.98749e-22)
(0.908756 -0.0196872 0)
(0.884239 -0.00410396 -2.83812e-22)
(0.871264 0.00455068 0)
(0.858861 0.0133831 1.50279e-22)
(0.846391 0.0224028 -2.347e-22)
(0.834218 0.0316996 1.66602e-22)
(0.899515 -0.015247 -9.55596e-22)
(0.921235 -0.0269298 -3.16869e-23)
(0.824331 0.0518503 -2.4109e-24)
(0.821598 0.0416608 -2.61842e-22)
(0.816767 0.0609124 1.47791e-21)
(0.909264 -0.0218031 8.71857e-25)
(0.932773 -0.0332942 -3.02958e-23)
(0.810109 0.0511193 5.26525e-22)
(0.918982 -0.0279166 8.37847e-22)
(0.928371 -0.0334759 -8.3714e-22)
(0.943753 -0.0390695 6.24399e-23)
(0.954068 -0.0442008 1.18685e-22)
(0.811289 0.0701528 -1.43796e-21)
(0.798968 0.0606485 -3.49955e-22)
(0.937523 -0.0385074 0)
(0.963848 -0.0487256 -1.17044e-22)
(0.80466 0.0788973 1.8288e-25)
(0.787934 0.0702214 -1.83379e-25)
(0.946253 -0.0429457 0)
(0.972949 -0.0526126 0)
(0.799251 0.0877258 0)
(0.777572 0.0795439 0)
(0.954648 -0.0468416 0)
(0.981489 -0.0559236 5.33354e-23)
(0.794015 0.0962926 -8.30281e-22)
(0.767522 0.0886358 -1.97839e-25)
(0.962554 -0.0501592 2.79134e-24)
(0.989335 -0.0586377 -5.69551e-23)
(0.789175 0.104724 8.34221e-22)
(0.757919 0.0974152 0)
(0.970026 -0.0529527 0)
(0.996602 -0.0608286 0)
(0.784447 0.112969 -5.42141e-23)
(0.748605 0.105839 9.33534e-22)
(0.977059 -0.0552242 3.32216e-22)
(1.00323 -0.0624774 0)
(0.779586 0.120999 -1.19058e-23)
(0.739425 0.113794 -8.83744e-22)
(0.983485 -0.0569794 -4.93975e-22)
(1.00924 -0.0636695 -1.40719e-22)
(0.772963 0.12874 9.35234e-22)
(0.730064 0.12139 0)
(0.989795 -0.0583425 1.60759e-22)
(1.01479 -0.0643871 9.374e-23)
(0.767782 0.136402 -4.84451e-22)
(0.720667 0.128439 9.7604e-22)
(0.994919 -0.059069 -6.22496e-22)
(1.0192 -0.0645581 7.01268e-22)
(0.758447 0.143421 5.08157e-22)
(0.710174 0.134992 1.61748e-23)
(0.999875 -0.0594687 0)
(1.02274 -0.0642885 3.26523e-22)
(0.750555 0.150382 -1.03803e-21)
(0.699052 0.140973 2.07128e-21)
(1.00486 -0.0594722 0)
(1.02649 -0.0638182 0)
(0.816821 0.148954 -5.02797e-22)
(0.810189 0.156993 -2.05222e-21)
(0.739096 0.156609 0)
(0.685707 0.145914 -1.06902e-21)
(0.827288 0.132274 -3.06172e-22)
(0.823643 0.140757 6.07049e-23)
(0.832829 0.11554 0)
(0.830755 0.123981 -9.71899e-22)
(0.835947 0.098914 -1.756e-24)
(0.834489 0.10722 0)
(0.839184 0.0822694 0)
(0.837584 0.0906337 0)
(0.843304 0.0654372 0)
(0.841797 0.0740439 0)
(0.849825 0.0489056 3.38397e-22)
(0.846541 0.0572883 8.77611e-23)
(0.859845 0.0323981 -3.17618e-22)
(0.854489 0.0404554 -3.4494e-22)
(0.87174 0.0162997 5.18004e-22)
(0.865095 0.0241764 6.95768e-22)
(0.885805 0.00141606 0)
(0.878634 0.00886117 0)
(0.901058 -0.0123656 -2.08801e-24)
(0.893335 -0.00571392 0)
(0.91672 -0.0242422 0)
(0.90889 -0.0185391 0)
(0.932182 -0.0341686 0)
(0.924503 -0.0294561 0)
(0.947023 -0.0420449 0)
(0.939699 -0.0383609 0)
(0.960898 -0.0478865 0)
(0.954064 -0.0452029 0)
(0.973634 -0.0518032 0)
(0.967309 -0.0500335 0)
(0.985433 -0.0540123 -2.50021e-22)
(0.979309 -0.0529656 0)
(0.990886 -0.0544762 -7.83645e-23)
(1.00978 -0.0592115 7.59903e-23)
(1.03029 -0.0630806 -7.53551e-23)
(1.04533 -0.0688948 0)
(1.05123 -0.0672824 -3.10477e-22)
(1.04836 -0.068233 -1.65204e-22)
(1.03694 -0.0690874 4.72723e-23)
(1.04128 -0.0691557 -1.80363e-22)
(1.02574 -0.0674943 1.55975e-24)
(1.03159 -0.0685014 0)
(1.01191 -0.0639421 0)
(1.01916 -0.0659743 0)
(0.995202 -0.058154 0)
(1.00392 -0.0613408 0)
(0.9755 -0.0498939 0)
(0.985727 -0.0543445 2.21227e-28)
(0.952818 -0.0390447 1.96953e-24)
(0.964521 -0.0447874 0)
(0.927024 -0.0254997 0)
(0.940349 -0.0326523 0)
(0.899131 -0.00965466 0)
(0.913568 -0.0179323 0)
(0.869848 0.00808818 0)
(0.884405 -0.000849264 -1.52171e-22)
(0.839261 0.0273592 4.81547e-23)
(0.855126 0.0172762 -2.01556e-22)
(0.809589 0.0466029 0)
(0.824862 0.0368085 -1.73551e-22)
(0.779666 0.0662047 0)
(0.794519 0.0564976 0)
(0.750614 0.0848117 0)
(0.765012 0.0756739 0)
(0.722351 0.101685 0)
(0.736415 0.093507 0)
(0.694576 0.116216 -2.49589e-22)
(0.708545 0.109341 0)
(0.665986 0.127828 -1.057e-21)
(0.680715 0.122507 -2.52878e-22)
(0.650159 0.132083 1.09288e-21)
(0.801188 0.164742 2.04115e-21)
(0.996229 -0.0546049 1.50572e-22)
(1.0539 -0.066059 -2.88617e-22)
(0.670715 0.150006 0)
(0.633265 0.135268 0)
(0.790998 0.171918 0)
(0.726276 0.162002 0)
(0.874945 0.1526 0)
(0.863083 0.170917 4.86129e-22)
(0.869576 0.161748 5.06615e-22)
(0.881813 0.134073 6.24532e-22)
(0.879183 0.143246 -1.25724e-22)
(0.883403 0.116181 1.86006e-24)
(0.882992 0.124981 0)
(0.882898 0.0991606 0)
(0.883325 0.10759 0)
(0.88171 0.0827434 0)
(0.882356 0.0908825 0)
(0.880967 0.0668224 0)
(0.881339 0.0747122 0)
(0.881531 0.0511273 0)
(0.881406 0.0589739 0)
(0.885032 0.0359395 -1.32479e-24)
(0.88298 0.0435004 3.50876e-22)
(0.890203 0.021178 -1.2207e-24)
(0.887031 0.0283691 -6.48504e-22)
(0.898076 0.0072183 0)
(0.893889 0.0141149 0)
(0.907927 -0.00577251 1.05245e-24)
(0.90277 0.000565898 0)
(0.919299 -0.0173053 0)
(0.913473 -0.0117337 0)
(0.931508 -0.0271822 0)
(0.925332 -0.0224598 0)
(0.944032 -0.0352463 0)
(0.937755 -0.0314434 0)
(0.956433 -0.0414364 0)
(0.950252 -0.0385678 0)
(0.968402 -0.0457772 0)
(0.962441 -0.0438188 0)
(0.979893 -0.0484682 1.71359e-22)
(0.974123 -0.0472805 0)
(1.01418 -0.0585567 0)
(1.00112 -0.0542683 1.40703e-22)
(0.9909 -0.0496111 0)
(0.985396 -0.0492264 1.63385e-22)
(1.07634 -0.0698237 3.2326e-22)
(1.07804 -0.0682041 7.71631e-23)
(1.05638 -0.0645996 6.04027e-22)
(1.03357 -0.0619959 0)
(1.0722 -0.0723205 0)
(1.07445 -0.0712202 -4.89683e-22)
(1.06565 -0.0735434 1.45564e-24)
(1.06887 -0.0730705 1.81478e-22)
(1.05647 -0.0732253 -1.55975e-24)
(1.06118 -0.0735767 0)
(1.04473 -0.0711019 0)
(1.0509 -0.0724062 0)
(1.03003 -0.0668655 0)
(1.03776 -0.0692657 0)
(1.01208 -0.060236 0)
(1.02148 -0.0638654 -2.21226e-28)
(0.990707 -0.0510218 -3.88704e-24)
(1.00183 -0.0559569 0)
(0.965868 -0.039171 0)
(0.978728 -0.0454287 0)
(0.937733 -0.0247316 7.1904e-23)
(0.952238 -0.0322563 0)
(0.906672 -0.0079591 0)
(0.922229 -0.0164916 -7.15979e-23)
(0.873183 0.0105179 1.67917e-22)
(0.890351 0.0010165 1.62191e-22)
(0.838337 0.0298993 0)
(0.856219 0.0200397 0)
(0.802519 0.0495061 0)
(0.820563 0.0397223 0)
(0.766416 0.068363 0)
(0.784481 0.0590861 0)
(0.730462 0.0854964 0)
(0.74841 0.0771982 0)
(0.694691 0.100036 3.84313e-24)
(0.712584 0.0931549 0)
(0.658548 0.111182 -4.11674e-24)
(0.67676 0.106107 0)
(0.620633 0.117692 -1.12369e-21)
(0.639841 0.115001 1.12307e-21)
(0.855031 0.179772 1.01389e-21)
(0.614845 0.13703 0)
(0.600448 0.118654 -2.3682e-21)
(0.654544 0.153089 0)
(0.996071 -0.0495014 0)
(1.0795 -0.0663567 -7.36722e-23)
(0.779408 0.178408 2.65105e-21)
(0.845617 0.18814 1.03579e-21)
(0.595019 0.137328 5.92232e-22)
(0.579515 0.118191 2.995e-21)
(0.712248 0.166673 0)
(0.994782 -0.0443133 6.19986e-22)
(0.999929 -0.0444184 -3.02507e-22)
(1.05803 -0.0628993 -1.44294e-22)
(1.08007 -0.0643102 7.11315e-22)
(0.904948 0.19541 3.56174e-21)
(0.835349 0.195852 -2.04362e-21)
(0.888303 0.213407 -8.44787e-21)
(0.896558 0.204649 -2.01223e-21)
(0.918268 0.175568 9.71009e-22)
(0.912368 0.185693 -3.03195e-21)
(0.926251 0.155084 -1.00605e-21)
(0.922931 0.165301 -7.66633e-22)
(0.930671 0.135016 -2.47771e-22)
(0.929064 0.144942 -2.44715e-22)
(0.931251 0.115975 -1.86006e-24)
(0.931317 0.125339 0)
(0.929615 0.0981111 0)
(0.930654 0.1069 0)
(0.926674 0.0813887 0)
(0.92827 0.0896096 0)
(0.923307 0.0656948 0)
(0.925011 0.0734177 0)
(0.920508 0.0508144 0)
(0.921821 0.058139 0)
(0.919132 0.0365851 0)
(0.919591 0.0436117 0)
(0.919696 0.023052 -3.77295e-27)
(0.919124 0.0297513 0)
(0.922503 0.0102625 0)
(0.920827 0.0165533 0)
(0.927536 -0.00164258 1.07149e-24)
(0.924751 0.00418939 0)
(0.934561 -0.0123938 0)
(0.930828 -0.00717792 0)
(0.943131 -0.0217621 0)
(0.938683 -0.0172606 0)
(0.952784 -0.0295709 0)
(0.947848 -0.0258678 0)
(0.963082 -0.0357095 0)
(0.957867 -0.0328497 0)
(0.973664 -0.0401438 0)
(0.968327 -0.03814 0)
(0.984243 -0.0429909 8.7252e-23)
(0.978941 -0.0417623 -4.42562e-23)
(0.989467 -0.0438665 -3.20032e-22)
(1.01802 -0.0575469 -6.842e-23)
(1.00115 -0.0490456 2.79842e-22)
(1.00568 -0.0536068 -2.212e-22)
(1.03652 -0.0606498 0)
(1.09962 -0.0714433 -2.34471e-22)
(1.10082 -0.0673085 -6.59157e-22)
(1.10044 -0.0694847 5.4044e-22)
(1.09726 -0.0747179 0)
(1.09865 -0.0732075 0)
(1.09261 -0.0768934 -2.17724e-26)
(1.09492 -0.0759395 0)
(1.08588 -0.077774 0)
(1.08942 -0.0775224 0)
(1.07677 -0.0770358 -1.59462e-24)
(1.08162 -0.0776311 0)
(1.06484 -0.0743617 0)
(1.07118 -0.0759618 0)
(1.04969 -0.0694508 0)
(1.05769 -0.0722036 0)
(1.03098 -0.0620639 1.91792e-24)
(1.0408 -0.0660783 0)
(1.0085 -0.0520556 1.98212e-24)
(1.02023 -0.0573924 0)
(0.982167 -0.0394188 0)
(0.995819 -0.04606 0)
(0.95208 -0.0243227 0)
(0.967568 -0.0321599 0)
(0.918535 -0.00722363 0)
(0.935722 -0.0159957 0)
(0.882124 0.0112607 0)
(0.900698 0.00189476 0)
(0.843503 0.0302676 -2.87276e-24)
(0.863077 0.0207576 0)
(0.803371 0.048824 0)
(0.823596 0.0396658 0)
(0.762366 0.0658727 0)
(0.782952 0.0575986 0)
(0.720913 0.0803757 -1.16662e-25)
(0.741687 0.0735049 0)
(0.679103 0.0913114 9.93667e-26)
(0.700069 0.0863616 0)
(0.636856 0.0975049 4.39747e-24)
(0.65798 0.0951094 0)
(0.593608 0.0976473 -2.46064e-21)
(0.615252 0.098406 5.83208e-22)
(0.557902 0.116479 6.23107e-22)
(0.571747 0.095406 1.22137e-21)
(0.766744 0.184276 -1.04538e-21)
(0.635768 0.15467 -1.15637e-21)
(1.00511 -0.0441187 7.08984e-23)
(1.10089 -0.065015 5.16251e-22)
(0.821508 0.20252 8.62503e-23)
(0.574011 0.136156 0)
(0.871972 0.223819 1.31512e-20)
(0.549445 0.0915516 1.95771e-21)
(0.535774 0.113188 2.56875e-21)
(0.941227 0.239789 -1.93617e-20)
(0.949329 0.249812 3.3508e-21)
(0.696754 0.170346 0)
(0.94379 0.221356 2.10799e-21)
(0.942939 0.231306 1.06596e-21)
(0.954269 0.200767 1.97904e-21)
(0.948271 0.211216 -2.92494e-21)
(0.964104 0.17899 -9.95198e-22)
(0.959955 0.190015 -4.78845e-22)
(0.969496 0.156978 4.92556e-22)
(0.967235 0.167913 5.0526e-22)
(0.972361 0.135711 0)
(0.971283 0.146246 2.0768e-24)
(0.972839 0.115627 0)
(0.972869 0.125516 0)
(0.971445 0.0968597 1.69339e-24)
(0.972352 0.106067 0)
(0.968622 0.079554 0)
(0.970191 0.0880223 0)
(0.964892 0.0636687 0)
(0.966839 0.071441 0)
(0.960942 0.049049 0)
(0.962905 0.0562081 0)
(0.957524 0.0354995 1.32651e-24)
(0.959124 0.0421491 0)
(0.955321 0.0228918 8.35188e-27)
(0.956238 0.0290892 0)
(0.954823 0.0111619 0)
(0.954843 0.0169162 0)
(0.956293 0.000344193 -2.13915e-24)
(0.955309 0.0056335 0)
(0.959757 -0.00943383 0)
(0.957787 -0.00468445 0)
(0.965039 -0.0180083 0)
(0.962191 -0.0138793 0)
(0.971842 -0.0252291 0)
(0.968271 -0.0217948 0)
(0.979825 -0.0309777 0)
(0.9757 -0.0282918 0)
(0.988657 -0.0351906 0)
(0.984121 -0.033283 0)
(0.998002 -0.0379011 -4.32419e-23)
(0.993203 -0.0367526 0)
(1.0076 -0.0391682 0)
(1.00267 -0.0387298 -8.0985e-23)
(1.01722 -0.039121 -9.90006e-25)
(1.01242 -0.039307 0)
(1.00595 -0.0482837 -2.83793e-22)
(1.02222 -0.0385349 1.63765e-23)
(1.01021 -0.0434722 1.34104e-22)
(1.02155 -0.0562991 1.02145e-22)
(1.01003 -0.0526311 -7.04454e-23)
(1.05964 -0.0610467 -3.57402e-23)
(1.03902 -0.0591048 3.56748e-23)
(1.10102 -0.0626017 0)
(1.08098 -0.062159 -3.29853e-22)
(1.11931 -0.0675501 -1.47631e-22)
(1.11841 -0.0624646 -2.78397e-22)
(1.11898 -0.0650597 6.30822e-22)
(1.11963 -0.0721657 -7.9877e-23)
(1.11975 -0.0699388 0)
(1.11871 -0.076081 0)
(1.11944 -0.0742206 0)
(1.1162 -0.0791032 -2.47454e-26)
(1.11764 -0.0777198 0)
(1.112 -0.0810182 0)
(1.11433 -0.0802261 0)
(1.10573 -0.0815195 1.59462e-24)
(1.10914 -0.0814683 0)
(1.09695 -0.0802987 0)
(1.10168 -0.0811452 0)
(1.08523 -0.0770505 0)
(1.09149 -0.0789464 0)
(1.07013 -0.0715079 0)
(1.07813 -0.0745806 0)
(1.05128 -0.0634694 -5.29138e-26)
(1.0612 -0.0678092 0)
(1.0284 -0.052859 0)
(1.04036 -0.0584866 0)
(1.00138 -0.0397606 0)
(1.01541 -0.0466061 0)
(0.970286 -0.0244865 0)
(0.986334 -0.032371 0)
(0.935438 -0.00757927 0)
(0.953315 -0.0161998 0)
(0.897343 0.0101926 2.87276e-24)
(0.916772 0.00125417 0)
(0.856658 0.0278635 0)
(0.877289 0.0191043 0)
(0.81411 0.0443518 0)
(0.835581 0.0363221 0)
(0.770385 0.0585355 -3.72596e-24)
(0.792364 0.0517973 0)
(0.726045 0.0693184 4.03736e-24)
(0.748271 0.0644177 0)
(0.681471 0.0756252 -4.34777e-24)
(0.70377 0.0730964 0)
(0.637493 0.0762371 5.89506e-22)
(0.659166 0.076777 -1.15945e-21)
(0.59483 0.0701467 -6.16352e-22)
(0.61572 0.0741474 1.27147e-21)
(0.526587 0.0860076 5.24442e-23)
(0.573328 0.0647843 1.32855e-21)
(0.7506 0.188812 -1.0689e-21)
(0.617476 0.155164 0)
(0.806665 0.208809 -9.63096e-21)
(0.553221 0.134295 0)
(1.0361 -0.03427 -6.66885e-23)
(1.04071 -0.0336639 4.87087e-23)
(1.1007 -0.0601019 -2.63731e-22)
(1.1175 -0.0597537 -2.95358e-22)
(0.837652 0.226724 -8.60188e-21)
(0.512341 0.107973 -2.59404e-21)
(0.926171 0.254848 0)
(0.985959 0.248417 -1.92989e-21)
(0.503744 0.0786941 -1.29517e-21)
(0.55237 0.0576807 2.05955e-21)
(0.982946 0.25792 4.0535e-21)
(0.679795 0.172873 0)
(0.988954 0.227807 0)
(0.987614 0.23859 -1.86595e-21)
(0.995652 0.204951 0)
(0.992041 0.216527 0)
(1.00166 0.181576 0)
(0.999066 0.193282 4.96105e-22)
(1.00499 0.158598 0)
(1.00358 0.170004 0)
(1.00676 0.136435 0)
(1.00604 0.147382 0)
(1.00721 0.115495 0)
(1.00715 0.125801 0)
(1.00642 0.0959791 -1.69339e-24)
(1.00696 0.105545 0)
(1.00452 0.078067 0)
(1.0056 0.0868174 0)
(1.00172 0.0617925 0)
(1.00322 0.0697277 0)
(0.998353 0.0470768 0)
(1.00008 0.0542486 0)
(0.994925 0.0337699 -2.52799e-26)
(0.996617 0.0402584 0)
(0.991994 0.0217075 2.0036e-26)
(0.993369 0.0275924 0)
(0.990081 0.0107602 0)
(0.990887 0.0161012 0)
(0.989598 0.000862141 1.31057e-26)
(0.989647 0.00568082 0)
(0.990772 -0.00797394 0)
(0.989977 -0.00369211 0)
(0.993651 -0.0156721 0)
(0.992006 -0.0119692 0)
(0.998135 -0.0221406 0)
(0.995706 -0.0190647 0)
(1.00402 -0.0272889 0)
(1.00092 -0.024883 0)
(1.01106 -0.0310577 0)
(1.0074 -0.029348 0)
(1.019 -0.0334207 0)
(1.01488 -0.0324241 0)
(1.02739 -0.0344822 7.70855e-23)
(1.02308 -0.0341281 8.22183e-23)
(1.03173 -0.0345308 -1.43315e-22)
(1.01062 -0.0472294 -1.35089e-22)
(1.02739 -0.0375735 0)
(1.01521 -0.0424996 -1.35681e-22)
(1.02473 -0.054815 0)
(1.014 -0.0513933 1.37884e-22)
(1.0607 -0.0590417 2.092e-22)
(1.04112 -0.0573777 -7.07624e-23)
(1.08121 -0.0598907 -4.1297e-22)
(1.13406 -0.0671593 7.19248e-23)
(1.13207 -0.0617874 2.55261e-22)
(1.13349 -0.0645188 0)
(1.13555 -0.0721106 -1.54072e-22)
(1.13512 -0.0696838 1.54591e-22)
(1.13605 -0.0765115 0)
(1.13604 -0.074379 0)
(1.13551 -0.0802001 -2.76632e-26)
(1.13596 -0.0784561 0)
(1.13366 -0.0829452 0)
(1.13478 -0.0817071 0)
(1.13016 -0.0844799 0)
(1.13215 -0.0838821 0)
(1.12461 -0.0845159 0)
(1.12767 -0.084704 0)
(1.11654 -0.082759 0)
(1.12092 -0.0838794 0)
(1.10548 -0.0789341 1.78409e-24)
(1.11142 -0.0811207 0)
(1.09097 -0.0728128 -1.92921e-24)
(1.09869 -0.0761714 0)
(1.07262 -0.0642623 0)
(1.08231 -0.0688452 0)
(1.05013 -0.0532942 0)
(1.06191 -0.0590716 0)
(1.02339 -0.0401112 0)
(1.0373 -0.0469599 0)
(0.992483 -0.0251465 0)
(1.00845 -0.0328191 0)
(0.95773 -0.00905883 0)
(0.975566 -0.0171947 0)
(0.919673 0.00726789 0)
(0.939084 -0.000865674 0)
(0.879016 0.0227919 -3.1497e-24)
(0.89963 0.0151975 0)
(0.836576 0.0363833 3.44981e-24)
(0.857976 0.0298952 0)
(0.793204 0.0469233 -3.77229e-24)
(0.814963 0.0420986 0)
(0.749728 0.0533631 0)
(0.771439 0.0507143 0)
(0.707012 0.0547518 0)
(0.728204 0.0547445 0)
(0.666525 0.050069 4.8474e-24)
(0.686251 0.0533064 6.10859e-22)
(0.628829 0.0389317 -3.41962e-21)
(0.64699 0.045325 0)
(0.532827 0.0483347 -2.03102e-21)
(0.612122 0.0306609 -6.86568e-23)
(0.733034 0.192073 3.23563e-21)
(0.598404 0.154555 0)
(1.04534 -0.0327897 -2.46429e-22)
(1.13095 -0.0589569 -5.00677e-22)
(0.776126 0.209508 -1.59562e-21)
(0.882575 0.248247 -2.23422e-22)
(0.824325 0.230501 4.05225e-21)
(0.531234 0.130692 0)
(0.488431 0.101632 6.55256e-22)
(0.963984 0.265587 -3.34384e-21)
(0.939542 0.266626 2.7322e-21)
(0.888137 0.255664 -3.27752e-21)
(0.480703 0.0694651 -2.03541e-21)
(0.513515 0.0374896 1.38318e-21)
(0.597923 0.0204932 1.33449e-21)
(0.66131 0.173917 0)
(1.02591 0.25378 1.02993e-22)
(1.01246 0.273549 2.88899e-22)
(1.02154 0.264125 7.58111e-22)
(1.0279 0.231511 8.82221e-22)
(1.02749 0.242997 -8.87322e-22)
(1.03028 0.207263 1.71613e-24)
(1.02899 0.219556 0)
(1.03261 0.18305 0)
(1.03158 0.195067 0)
(1.03384 0.159505 0)
(1.03334 0.171189 0)
(1.03445 0.136858 0)
(1.0342 0.148043 0)
(1.03461 0.115461 1.63303e-24)
(1.03459 0.125989 0)
(1.03425 0.0955176 0)
(1.0345 0.105297 0)
(1.03336 0.0771894 0)
(1.03388 0.0861449 0)
(1.03189 0.0605572 0)
(1.0327 0.06866 0)
(1.02993 0.0456154 0)
(1.03097 0.052879 0)
(1.02768 0.0322852 -1.30123e-24)
(1.02883 0.0387567 0)
(1.02549 0.020442 3.01235e-26)
(1.02656 0.0261867 0)
(1.02375 0.00994763 0)
(1.02454 0.015035 0)
(1.02285 0.000688423 2.08769e-24)
(1.02318 0.00516914 0)
(1.02312 -0.00738715 0)
(1.02283 -0.00349326 0)
(1.02473 -0.014298 0)
(1.02375 -0.0109883 0)
(1.02773 -0.020016 0)
(1.02606 -0.0173074 0)
(1.03208 -0.0244998 0)
(1.02975 -0.0224133 0)
(1.03761 -0.0277169 0)
(1.03471 -0.0262665 0)
(1.04412 -0.0296627 1.29967e-24)
(1.04076 -0.0288454 0)
(1.05138 -0.0303672 -7.74195e-23)
(1.04773 -0.0301615 0)
(1.05894 -0.0299373 7.1061e-23)
(1.05516 -0.0302849 0)
(1.06688 -0.0284265 6.17314e-23)
(1.06288 -0.0293151 -6.62279e-23)
(1.03214 -0.0364397 1.23426e-22)
(1.07104 -0.0272593 0)
(1.05009 -0.0316001 1.8355e-22)
(1.015 -0.0458844 0)
(1.01997 -0.0413003 0)
(1.02763 -0.0531601 0)
(1.01776 -0.0498962 0)
(1.06179 -0.0569459 0)
(1.04309 -0.055515 0)
(1.10035 -0.057538 2.68813e-22)
(1.08157 -0.057558 6.61743e-23)
(1.12973 -0.0561272 6.30207e-23)
(1.11665 -0.0570219 5.16075e-22)
(1.14221 -0.0606828 3.36279e-22)
(1.13928 -0.0549624 6.00566e-23)
(1.1407 -0.0578502 -1.26792e-22)
(1.14492 -0.0662142 6.92393e-23)
(1.14365 -0.0634799 -4.18285e-22)
(1.14726 -0.0713818 -2.71907e-26)
(1.14621 -0.0688316 0)
(1.14902 -0.0761219 0)
(1.14823 -0.0738019 0)
(1.15015 -0.0802787 -3.03923e-26)
(1.1497 -0.0782804 0)
(1.15039 -0.0836434 0)
(1.15041 -0.0820721 0)
(1.14942 -0.0859809 0)
(1.15008 -0.0849555 0)
(1.14688 -0.0870319 0)
(1.14838 -0.0866836 0)
(1.14233 -0.0865239 0)
(1.14489 -0.0869893 0)
(1.13531 -0.0841904 -3.52754e-24)
(1.13916 -0.0856007 0)
(1.12532 -0.0797957 0)
(1.13072 -0.0822627 0)
(1.11193 -0.073174 0)
(1.11908 -0.0767695 0)
(1.09471 -0.0642786 0)
(1.10382 -0.0690071 0)
(1.07343 -0.0532257 0)
(1.0846 -0.0590074 0)
(1.04799 -0.0403362 -2.34918e-24)
(1.06123 -0.0469831 0)
(1.01853 -0.0261559 0)
(1.03375 -0.0333658 0)
(0.985458 -0.0114462 0)
(1.00242 -0.0188132 0)
(0.949386 0.00284331 3.1497e-24)
(0.967758 -0.00418618 0)
(0.911129 0.0156462 -1.48354e-25)
(0.930483 0.00949826 0)
(0.871668 0.0258633 7.38845e-24)
(0.891496 0.0211414 0)
(0.832059 0.0324774 0)
(0.851825 0.0296748 0)
(0.793457 0.0345983 0)
(0.812566 0.0341462 0)
(0.756997 0.0316109 -1.50116e-25)
(0.774881 0.0337742 0)
(0.723894 0.02285 0)
(0.739907 0.0279701 0)
(0.698518 0.0076354 -2.06399e-21)
(0.709858 0.016064 0)
(0.584237 0.00927066 -4.97192e-23)
(0.688804 -0.00216674 3.56642e-21)
(0.709704 0.192221 0)
(0.999836 0.280598 4.29797e-21)
(0.760653 0.213076 1.07719e-21)
(1.08942 -0.0246097 -6.16246e-23)
(1.09314 -0.0234066 0)
(1.12843 -0.0532677 5.92924e-23)
(1.13764 -0.0520592 -1.1972e-22)
(0.577855 0.152661 0)
(0.507951 0.12564 0)
(0.812894 0.23603 0)
(0.463674 0.0931758 -6.45337e-22)
(0.457599 0.0582153 -1.36889e-21)
(0.495721 0.0248019 0)
(0.572063 -0.0033448 3.64971e-21)
(0.679904 -0.0131018 -2.88786e-21)
(0.641003 0.173337 0)
(1.05559 0.277028 -3.32346e-25)
(0.987073 0.2862 1.0291e-21)
(1.04399 0.294142 -3.25184e-21)
(1.05024 0.286258 1.21073e-21)
(1.05991 0.255245 -4.63488e-22)
(1.05825 0.266339 -7.51384e-22)
(1.05926 0.232227 0)
(1.06009 0.243956 0)
(1.05797 0.207625 -1.71608e-24)
(1.05853 0.220046 0)
(1.05723 0.183201 0)
(1.05759 0.195319 0)
(1.05648 0.159537 0)
(1.05686 0.171268 0)
(1.05591 0.136842 0)
(1.05617 0.148049 0)
(1.0556 0.115393 -1.63303e-24)
(1.05573 0.12595 0)
(1.05545 0.0953629 0)
(1.05551 0.105192 0)
(1.05532 0.0768877 0)
(1.05539 0.0859239 0)
(1.05509 0.060068 0)
(1.05523 0.0682673 0)
(1.05466 0.0449485 0)
(1.05491 0.0522958 0)
(1.05401 0.0315156 1.221e-24)
(1.05436 0.0380249 0)
(1.05328 0.0197033 3.81596e-26)
(1.05365 0.0254133 0)
(1.05268 0.00940854 0)
(1.05295 0.0143739 0)
(1.05248 0.000520464 -2.83277e-26)
(1.05252 0.00479574 0)
(1.05297 -0.00704554 0)
(1.05263 -0.00342073 0)
(1.05435 -0.0133608 0)
(1.05354 -0.0103563 0)
(1.05677 -0.0184549 0)
(1.05543 -0.0160585 0)
(1.06027 -0.0223389 0)
(1.05839 -0.0205468 0)
(1.06479 -0.0250207 0)
(1.06241 -0.0238287 0)
(1.07021 -0.0265207 -2.57031e-24)
(1.06739 -0.0259176 0)
(1.07639 -0.0268803 -1.16951e-24)
(1.07318 -0.0268476 0)
(1.08292 -0.0262025 1.40684e-22)
(1.07958 -0.0266764 -1.41582e-22)
(1.08613 -0.0255188 1.26625e-22)
(1.03695 -0.0349945 2.99484e-23)
(1.07548 -0.025844 7.17318e-24)
(1.05462 -0.030216 -9.08205e-23)
(1.01926 -0.044293 0)
(1.02462 -0.0398055 0)
(1.03034 -0.0513174 -9.85836e-28)
(1.02133 -0.0482001 0)
(1.06268 -0.0547454 0)
(1.04487 -0.0534999 0)
(1.09973 -0.0549516 1.28529e-22)
(1.08159 -0.0551697 -1.32719e-22)
(1.11567 -0.0542744 -9.51253e-24)
(1.14867 -0.0593081 -1.60514e-24)
(1.14535 -0.0536012 -1.22592e-22)
(1.14699 -0.0564736 3.1046e-24)
(1.15186 -0.0648407 -6.99692e-23)
(1.15026 -0.0621024 7.0087e-23)
(1.15491 -0.0701112 -1.20554e-24)
(1.15343 -0.0675036 0)
(1.15776 -0.0750444 -1.24659e-24)
(1.15638 -0.072624 0)
(1.16028 -0.0794912 -3.26477e-26)
(1.15908 -0.0773364 0)
(1.16227 -0.0832724 0)
(1.16136 -0.0814756 0)
(1.16346 -0.0861839 0)
(1.16298 -0.0848496 0)
(1.16354 -0.0879973 0)
(1.16366 -0.0872421 0)
(1.16213 -0.0884681 0)
(1.16305 -0.0884154 0)
(1.1588 -0.0873486 1.74345e-24)
(1.16074 -0.0881215 0)
(1.15309 -0.0844098 1.79146e-24)
(1.15628 -0.0861187 0)
(1.14452 -0.0794724 0)
(1.1492 -0.0821985 0)
(1.13267 -0.07245 0)
(1.13903 -0.076222 0)
(1.11717 -0.0633913 0)
(1.1254 -0.0681655 0)
(1.09784 -0.0525204 2.34918e-24)
(1.108 -0.0581608 0)
(1.07467 -0.0402662 -2.44582e-24)
(1.08673 -0.0465319 0)
(1.0479 -0.0272667 0)
(1.06172 -0.033813 0)
(1.01802 -0.0143454 0)
(1.03332 -0.0207411 0)
(0.985785 -0.00245991 -1.45793e-25)
(1.00215 -0.00821044 0)
(0.952135 0.0073728 -7.07099e-24)
(0.969081 0.00277281 0)
(0.918174 0.0141781 0)
(0.93513 0.0112101 0)
(0.885145 0.0171001 0)
(0.901478 0.0161652 0)
(0.854268 0.0155318 -1.91359e-25)
(0.86937 0.0169101 0)
(0.826818 0.00896153 0)
(0.840046 0.0128823 0)
(0.805045 -0.002847 1.35652e-21)