/*--------------------------------*- C++ -*----------------------------------*\
  =========                 |
  \\      /  F ield         | OpenFOAM: The Open Source CFD Toolbox
   \\    /   O peration     | Website:  https://openfoam.org
    \\  /    A nd           | Version:  10
     \\/     M anipulation  |
\*---------------------------------------------------------------------------*/
FoamFile
{
    format      ascii;
    class       surfaceScalarField;
    location    "21";
    object      phi;
}
// * * * * * * * * * * * * * * * * * * * * * * * * * * * * * * * * * * * * * //

dimensions      [0 3 -1 0 0 0 0];

internalField   nonuniform List<scalar> 
66213
(
0.00823963
-0.00982232
-0.00524721
0.0068299
0.0256334
-0.00380565
-0.0135882
0.00724526
-0.0119736
0.0303618
-0.0133407
0.020586
0.0206282
-0.0143256
-0.0168602
0.0105576
0.0198395
-0.0196017
0.0203905
0.0362494
-0.0283835
-0.0382505
0.0280586
-0.0293976
-0.00107735
-0.0110989
-0.0162072
-0.00782492
-0.0128542
0.00017454
-8.15331e-05
-0.000755208
0.000662201
-9.25204e-05
0.00026706
-0.000174054
-0.0026412
0.0013472
0.0119822
-0.0106882
0.00172073
-0.00436192
0.00306792
0.0876206
0.106704
-0.0990373
-0.0952877
0.0611095
0.0616808
-0.0351696
-0.0577007
0.0274529
0.0913572
-0.0176556
0.0666594
0.0328453
0.0393989
-0.0456542
-0.02659
0.000762144
-0.000114136
0.0321972
-0.0115108
0.01034
0.00193299
0.0166216
0.0112666
0.053551
0.0176398
-0.00994157
-0.0612492
-0.00608127
0.0522325
0.00739973
-0.07462
0.00657042
0.0619683
-0.0217174
0.0291482
0.023844
-0.0312748
-0.0618428
0.00673023
0.0333951
-0.0246734
-0.0695305
0.0323611
0.0301577
-0.0308125
0.0635296
-0.088203
-0.000188406
-0.00531415
0.00190012
0.00360244
-0.00366822
0.00347981
-0.00201115
-0.00165707
-0.000864346
-0.00646096
0.0443377
-0.00896195
0.0058459
-0.0412217
0.0334352
-0.0116245
0.022527
0.0229298
-0.0253978
0.0429131
-0.0404451
0.0107201
0.0418014
-0.0295917
7.69928e-05
0.0217307
-0.0303188
0.00851117
0.029739
0.00282186
-0.0324839
-0.00173228
-0.00017592
0.00104386
0.00176474
-0.000458769
-0.00385486
0.00254889
0.00295886
-0.00169044
0.000496319
-0.0108959
0.0123099
-0.000102532
-0.00131143
0.00203354
-0.00258949
-0.00913591
0.021092
-0.0172728
0.00531676
-0.0153962
-0.00456556
0.0108258
-0.0374819
0.0608185
0.0124386
-0.0357752
-0.0287321
-0.0782803
-0.0643927
-0.00275084
0.0382898
0.0288537
0.0780211
-0.135843
-0.0212245
-0.00486718
0.0260916
-0.00895205
-0.0122724
-0.0253192
0.0360277
-0.0196605
0.00408725
-0.00889583
-0.0205106
-0.00153228
-0.0064357
0.00796798
-0.00724623
-0.00863684
0.0143508
-0.00818516
0.00572617
-0.00915514
0.0200505
0.00289242
-0.00354188
0.00637563
-0.00221696
0.00302434
0.00208503
0.00456285
-0.00279662
-0.00176623
0.00805993
-0.00349708
0.0402028
-0.0512867
-0.019804
0.0308879
0.0764914
-0.0177944
-0.0763526
0.0646268
0.0281563
-0.0162917
0.0173891
-0.0126225
-0.016812
0.0120454
-0.0143362
0.0181642
0.0135611
-0.00960108
0.0253681
-0.0301032
-0.0013928
0.0187141
-0.0128052
-0.00451617
0.0248953
0.0398522
-0.0901453
-0.0031139
0.00530475
0.0034369
-0.00562775
-0.00304307
0.00976476
-0.00983558
0.0263517
0.00546761
-0.0113039
-0.0205155
0.0315973
0.00396908
-0.00921469
0.0689883
0.0289436
-0.0137584
-0.0841735
0.0774135
0.0137269
-0.0221521
-0.0436091
0.0327553
-0.00396033
0.0148141
0.0120308
-0.0252709
-0.0303691
-0.0254824
0.032903
0.0253347
-0.0497125
0.0275346
0.0470732
-0.0205078
0.0473942
-0.0765989
-0.00161623
0.0240185
-0.0429101
-0.00253429
-0.0108528
0.0136412
-0.000254111
-0.00348144
0.000772675
0.000174478
0.000200594
-0.000723174
0.00158379
0.000758124
-0.000275642
-0.00206627
0.0280309
0.0033673
-0.00744737
-0.0239508
0.00411749
0.0240166
-0.000103147
-0.0185504
-0.00264444
0.0253124
-0.0160272
0.000844049
-0.0185606
-0.00491393
-0.0107431
0.0352431
0.0363185
0.0297621
-0.000933758
-0.0395715
0.0155016
-0.0278326
0.033423
-0.0230828
0.00104707
0.0375373
-0.0395732
-0.0080785
-0.00284991
0.0505016
0.0395931
-0.012507
0.0589675
-0.0357871
-0.0186853
0.0145884
0.039884
0.00249606
-0.0109337
-0.0273495
0.0476435
-0.0638327
-0.00831347
-0.0020386
0.0115638
-0.00121171
-0.00144601
-0.00459931
-0.00226814
-0.000832599
0.000432126
-0.00104554
-0.000971078
-0.0576139
-0.0437383
0.0308096
0.0705426
-0.0207679
0.0304425
-0.0672885
0.0298551
-0.0046868
-0.0459362
-0.0150763
0.00119309
0.00455909
0.0112743
-0.00595066
-0.00988277
0.00279347
0.00176562
0.000748522
0.0133193
0.00275308
0.00721359
0.0012999
0.000817417
0.00386865
0.0342233
0.00204262
-0.0471996
0.00581813
0.0429935
-1.15318e-05
-0.00347398
-0.00550002
0.00898553
-0.00114861
0.00126551
-0.000128434
-0.00405103
-0.000571556
0.00459932
0.00899244
-0.00907685
-0.00451491
-0.00129881
-0.0113747
0.0223691
0.042077
-0.0109165
0.0488364
-0.0503051
-0.00126983
0.00273855
0.0524637
0.00196865
-0.0055959
-0.0163617
-0.010043
0.0116402
0.0147646
-0.00578279
-0.0098467
-0.00073221
0.00426605
-0.00691049
0.00377637
0.00048968
0.0180704
0.0235913
-0.00483623
-0.0368255
0.0175074
0.052935
-0.052372
-0.0262944
0.0195146
0.0242872
-0.00632653
0.00362347
-0.0135763
-0.0029486
0.00144859
-0.018966
0.000702883
0.0449752
-0.0425508
0.00388981
-0.00631426
0.00805282
-0.00901386
-0.0171794
-0.0334308
0.00805944
-0.0492243
-0.00438256
0.0502075
0.00339933
-0.032457
-0.0236307
0.00686338
0.00131246
-0.0560001
0.0385559
0.00619867
-0.0268863
-0.0178682
-0.0146949
0.0488396
0.00441116
0.0392119
-0.00501447
-0.0488923
0.0279662
0.0186913
-0.00744559
0.0222221
-0.0150153
-0.0254506
0.0182437
0.0150187
-0.0178864
0.0250899
0.0285933
0.0199667
-0.0139387
-0.0346213
-0.0106362
0.0242143
0.0393787
0.006625
-0.0256245
-0.0203792
-0.00302615
0.00214803
0.0402568
0.0379649
0.00100928
-0.0420004
0.0254295
-0.00719855
0.019734
0.0183985
-0.00392202
-0.0175196
-0.00914305
0.00778013
0.00666767
-0.0120008
0.00134647
0.00242989
-0.020059
0.0152227
-0.0249461
0.00488713
-0.00114554
0.0445727
-0.00135019
-0.00665701
-0.00192238
0.00810765
0.000471739
-0.00277977
0.00036433
-0.00424157
-0.00678811
-0.00215433
0.00616268
0.00527287
-0.0122439
-0.00388178
-0.00221263
-0.0218628
0.0205955
0.00347994
-0.0242649
-0.00141986
0.0234722
0.00578675
-0.0155769
0.0412167
-0.0314266
0.0390457
0.0036844
-0.0369434
0.000256111
0.0337845
0.000458368
-0.034499
0.0333778
0.000852133
-0.0339738
0.0140377
0.0366761
-0.0534646
0.0114369
0.0396498
-0.037049
0.00498109
0.000193278
-0.0061874
0.00101303
0.00275803
-0.00195841
0.00418146
-0.0424925
-0.00512008
0.0414697
0.00614293
-0.00414998
-0.0410799
0.0027374
-0.00155193
0.0335947
-0.03346
0.00141727
0.033096
-0.000413915
-0.034234
-0.0111582
-0.0297045
0.0395007
0.00136196
0.024261
-0.00547051
-0.0299487
0.0427176
-0.0102836
-0.0431464
0.0107124
0.0430755
-0.0113201
0.0109622
0.000547775
0.00442334
-0.00221308
-0.000530713
-0.00171392
0.00279241
-0.00494832
0.00358888
0.00188025
0.00277401
-0.00121736
-0.0331483
-0.00742837
0.036428
0.00414866
-0.00557459
-0.0307275
0.00315377
-0.00818011
-0.00201397
0.00597583
0.00421825
-0.0014903
-0.00925852
0.00256871
0.0351056
-0.0330572
0.0290004
-0.0310488
0.0554944
0.0240081
-0.0443969
0.0234233
-0.0227866
0.0548576
0.0361851
-0.0437476
0.0452837
-0.0377212
0.0680115
0.0327818
-0.0646082
0.023116
0.0661149
-0.0212194
-0.0349914
0.00867176
0.0383505
-0.0324098
-0.01001
-0.0369686
0.0066335
0.0386338
-0.00829866
-0.00762148
0.00713301
-0.0364802
0.00279017
0.00207767
-0.00621256
0.00134471
0.00346415
-0.00111392
0.00043994
0.0856411
-0.0606426
0.00721441
-0.0322129
0.0316979
0.0754625
-0.0215193
0.0371641
0.00475467
-0.0133515
-0.0285673
0.0409795
-0.000183196
-0.0219673
-0.0201202
0.00307683
-0.000862417
-0.0188336
-0.00042423
-0.0163604
-0.00646939
0.00106899
-0.000716897
0.00108123
-0.000229878
-0.000487018
-0.0312731
0.00362538
0.0294056
-0.00175784
0.0027686
-0.00233987
-0.0317019
0.0311772
0.00286365
-0.0312722
0.0298371
0.00496545
0.0354282
0.0152278
-0.0448378
-0.0195528
0.0572894
-0.00230851
0.0269305
-0.0312554
-0.0244767
-0.00432338
0.0238997
0.00490032
0.0208957
-0.0418588
-0.00351354
-0.00587902
0.0224513
-0.000284015
0.000371027
-0.00177745
0.000212016
-0.000496031
0.000583043
0.0018912
-0.00483979
0.00333979
0.0214528
-0.00557915
-0.0314505
-0.00072849
0.0338087
-0.0331803
0.000100141
0.034515
-0.00104864
-0.0341949
0.050376
-0.00824272
-0.0413848
0.00478129
0.0323806
-0.00456707
-0.0325948
0.0393301
-0.0326673
-0.0169856
0.0103228
0.0371728
0.0228954
-0.0207381
0.0442094
0.0168491
-0.0238857
0.0435822
0.0208541
-0.020227
0.0468277
0.0167279
-0.0199733
0.0463087
0.0205951
-0.0200761
0.0454267
0.0208857
-0.0200036
0.0448323
0.0207945
-0.0202001
0.0439026
0.0209088
-0.019979
0.0433035
0.0203789
-0.0197798
0.0424018
0.0198273
-0.0189257
0.0418454
0.0184708
-0.0179143
0.0410417
0.0169882
-0.0161845
0.0405632
0.01474
-0.0142615
0.0399263
0.0123741
-0.0117372
0.0395616
0.00943791
-0.00907324
0.0391525
0.0064437
-0.00603456
0.0389386
0.00314654
-0.00293263
0.0387933
-0.000130808
0.000276122
0.038719
-0.00339988
0.00347411
0.0388543
-0.00663711
0.00650185
0.0389452
-0.00955695
0.00946607
0.0393533
-0.0124121
0.0120041
0.0395829
-0.0146767
0.0144471
0.0401947
-0.0168831
0.0162712
0.0405072
-0.0183222
0.0180097
0.0379746
-0.0197696
0.0223021
0.0382937
-0.0203893
0.0200702
0.0337205
-0.0186574
0.0232306
0.0328163
-0.0195693
0.0204736
0.0329491
-0.0201745
0.0200417
0.0332324
-0.0204485
0.0201652
-0.0280437
0.0364238
0.0244925
-0.0328726
0.0229966
-0.0161215
-0.0294249
0.0225497
-0.0285294
0.0234823
-0.0308162
-0.0179726
-0.0358141
0.027204
0.0162761
-0.00766596
-0.0204994
0.0179177
0.0338092
-0.0341103
-0.0198734
-0.0332104
0.0340325
-0.0213215
-0.0198497
0.0317716
-0.0298779
-0.0205512
-0.021908
0.029663
-0.0293591
-0.0200734
-0.0206041
0.0290485
-0.0287383
-0.0171933
-0.0186329
0.0284535
-0.0282047
-0.012661
-0.0149615
0.0280077
-0.0278659
-0.00677894
-0.00975387
0.0277845
-0.0277643
-0.000150996
-0.00348126
0.0278083
-0.0278946
0.00653006
0.00319045
0.0280326
-0.028223
0.0125645
0.00957589
0.0284614
-0.0287504
0.0172772
0.0149784
0.0290795
-0.0294493
0.0201971
0.0187999
0.029844
-0.0302611
0.0213258
0.0207736
0.0306787
-0.031091
0.021298
0.0212121
0.031483
-0.0355219
0.0207667
0.0209871
0.0346032
-0.0375003
0.0197462
0.0199355
0.0218189
0.0207957
-0.0196193
-0.0306012
-0.0307212
0.0229875
0.0280436
-0.0242076
0.0301965
-0.0307384
-0.0196972
0.0181899
-0.0234746
0.0278152
-0.0225305
0.0170917
0.0283021
0.0208161
-0.0208311
-0.0305862
-0.0295603
0.0196552
-0.0234184
0.0279875
0.0296492
-0.0312645
0.0178915
-0.030532
-0.0210375
0.0282026
0.0185383
-0.0209143
0.0224272
-0.0310731
0.0218841
-0.0215839
-0.0308322
-0.0296164
-0.0317221
0.0329159
-0.0191664
0.0309881
-0.0307007
-0.0213249
-0.0204312
-0.0350101
0.034375
-0.020103
-0.0190797
-0.0314127
0.0315576
-0.0203719
-0.0209235
-0.0310726
0.0305532
-0.0195567
-0.0194883
-0.0299951
0.0294107
-0.0196157
-0.0194456
-0.0288311
0.0282704
-0.0192191
-0.0193994
-0.0277529
0.0272838
-0.0174452
-0.0184082
-0.0268762
0.026532
-0.0139173
-0.0157769
-0.0262592
0.02606
-0.00887398
-0.0114644
-0.0259376
0.0258938
-0.00288884
-0.00591217
-0.0259312
0.0260484
0.00335692
0.000238684
-0.026239
0.0265011
0.0092039
0.0063113
-0.0268202
0.0271898
0.0140775
0.011685
-0.0275837
0.0279957
0.0175977
0.0158773
-0.0309862
0.0315075
0.0195489
0.0193116
-0.0333783
0.0331874
0.0206645
0.0213599
-0.0324299
0.0327771
0.019818
0.0207992
0.0194303
0.0194575
-0.0204044
0.0287622
-0.0190238
0.0284711
0.0187553
0.0287358
0.0329428
-0.0336465
-0.0206179
-0.0305035
-0.0220543
0.0291394
-0.0217683
0.0320536
-0.030783
-0.0211441
-0.0214426
0.031636
-0.0306097
-0.0215776
-0.0210549
0.0303279
-0.0300776
-0.0203237
-0.0208859
0.0298124
-0.0295448
-0.0174609
-0.018898
0.0292968
-0.029078
-0.0128798
-0.0152095
0.0289038
-0.0287777
-0.00690499
-0.00992806
0.028705
-0.0286846
-0.000171323
-0.00355402
0.0287136
-0.0287871
0.00660361
0.00321939
0.0288996
-0.0290525
0.0127174
0.00968838
0.0292414
-0.0294693
0.017505
0.0151673
0.0297299
-0.0300245
0.0204917
0.0190605
0.0303428
-0.0306823
0.0216654
0.0210918
0.0310256
-0.0313644
0.0216368
0.0215554
0.0316767
-0.0322768
0.0213668
0.0212994
0.033531
-0.0352683
0.0214835
0.0211897
0.0349642
-0.0321392
0.0216675
0.0215148
0.0313049
-0.0307998
0.0224825
0.0226479
0.0332487
-0.033063
0.0222415
0.0221041
-0.0211859
0.0287689
-0.0307058
-0.0215787
0.021271
-0.0210043
-0.0313399
-0.0342086
0.0224166
0.0180654
-0.018449
0.0288546
0.0287029
-0.0283725
0.0184249
0.0285363
0.018232
-0.0216852
0.0207901
-0.0299371
0.0300986
-0.0312269
-0.0209261
-0.0212784
0.0292319
0.029458
-0.0206378
-0.0210379
-0.0313531
-0.0298306
-0.0322447
0.0314103
-0.0204906
0.0322798
-0.0318158
-0.0215019
-0.0215437
-0.0322339
0.0330751
-0.0200076
-0.0212548
-0.0338454
0.033649
-0.0199066
-0.01985
-0.0326207
0.031544
-0.0192952
-0.0198952
-0.0310147
0.0304384
-0.0189803
-0.018959
-0.0298253
0.0291814
-0.0189718
-0.0188325
-0.0285394
0.0279149
-0.0185947
-0.0187573
-0.027338
0.0268151
-0.0169223
-0.0178312
-0.0263639
0.0259844
-0.0135377
-0.0153258
-0.0256868
0.0254696
-0.0086568
-0.0111669
-0.0253383
0.0252937
-0.00284416
-0.00578087
-0.0253353
0.0254626
0.00322964
0.000197009
-0.0256694
0.0259523
0.008921
0.00610447
-0.0262956
0.0266909
0.0136822
0.0113418
-0.0271131
0.0275483
0.0171625
0.0154551
-0.0286138
0.028837
0.0193257
0.018246
-0.0304251
0.0307459
0.0203437
0.0197718
-0.0312226
0.030525
0.0205156
0.0203225
-0.0301025
0.0288377
0.0191563
0.0198528
0.0190035
0.0189254
-0.0195695
0.0294063
0.0292122
0.0202463
-0.0206206
0.0296062
0.0294458
0.0325073
-0.0321082
-0.0210169
-0.0204879
0.032401
-0.0318178
-0.0217274
-0.0211497
0.0313512
-0.0312219
-0.0217069
-0.0215214
0.031054
-0.0308558
-0.020522
-0.0210538
0.030642
-0.0304224
-0.0176805
-0.0191118
0.0302168
-0.0300339
-0.0130627
-0.0154151
0.0298873
-0.0297797
-0.00701267
-0.0100747
0.0297149
-0.0296914
-0.000194822
-0.00361875
0.0297061
-0.0297551
0.00665259
0.00323407
0.0298351
-0.0299452
0.0128275
0.0097684
0.0300824
-0.0302487
0.0176714
0.0153044
0.0304405
-0.0306597
0.0207109
0.0192523
0.0308992
-0.0311578
0.021924
0.0213314
0.0314217
-0.0316822
0.0218974
0.0218192
0.0319204
-0.0321266
0.021573
0.0215375
0.0322959
-0.0324229
0.0216104
0.021359
0.0325207
-0.0328745
0.0220214
0.0216127
0.0323393
-0.0323509
0.022494
0.0221126
0.0328236
-0.0329913
0.0224092
0.0225769
0.0217614
-0.0230076
-0.0329624
0.0329773
-0.0328043
0.0215885
0.0224025
-0.0210998
0.0208279
-0.0310812
-0.0323088
-0.0206068
0.0209229
-0.0300322
-0.0216404
-0.0327071
-0.0206105
0.0294479
-0.0213703
-0.032452
0.0210179
-0.021668
-0.0326647
0.0185376
-0.0187164
0.0290334
0.0179143
0.0291596
0.0285644
-0.0282721
0.0181325
-0.0217829
0.0214572
-0.0307554
-0.0213314
-0.0327603
0.0286024
0.018194
-0.0305481
-0.0341715
0.0338769
-0.0212072
0.0335188
-0.0337177
-0.0211325
-0.0212595
-0.0335046
0.0338109
-0.020797
-0.0211714
-0.0332412
0.0335658
-0.0203322
-0.0206851
-0.0334722
0.0330262
-0.0194606
-0.0197564
-0.0320869
0.0315461
-0.0187544
-0.0189558
-0.0309708
0.0303487
-0.0183583
-0.0183836
-0.0296898
0.0289972
-0.0182792
-0.0181736
-0.0283038
0.0276262
-0.0179172
-0.0180639
-0.0269983
0.0264284
-0.0163525
-0.0172033
-0.0259372
0.0255251
-0.0131257
-0.0148345
-0.0252038
0.0249716
-0.00842461
-0.0108456
-0.0248336
0.0247888
-0.00279938
-0.00564283
-0.0248364
0.024975
0.00309106
0.000149388
-0.0251972
0.025499
0.00861923
0.00588223
-0.0258635
0.0262821
0.0132636
0.0109773
-0.0267315
0.0271968
0.0166973
0.0150056
-0.0276697
0.0281199
0.0188755
0.0177731
-0.0285431
0.0289214
0.0199654
0.0193486
-0.0292469
0.0294722
0.0202902
0.0199971
-0.0292601
0.0290161
0.0194003
0.0200649
0.0197476
0.0186971
-0.0193393
0.0300485
0.0291929
0.0196267
-0.0199496
0.0299291
0.0297332
0.0307093
-0.0314878
-0.0201476
-0.0301913
-0.0196879
0.0292688
-0.0201199
0.0318243
-0.0319404
-0.0209008
-0.0201514
0.0320111
-0.0320705
-0.021668
-0.021079
0.0320151
-0.0319496
-0.0217724
-0.0215769
0.0318442
-0.0317045
-0.0206617
-0.0211592
0.0315445
-0.031374
-0.0178509
-0.0192718
0.0312105
-0.0310629
-0.0132104
-0.0155786
0.0309427
-0.0308525
-0.00710287
-0.0101948
0.0307949
-0.0307675
-0.000222234
-0.00367632
0.0307672
-0.0307911
0.00667644
0.00323375
0.0308344
-0.0308976
0.0128906
0.0098118
0.0309787
-0.0310801
0.0177728
0.0153855
0.0312004
-0.0313421
0.0208525
0.0193727
0.0315008
-0.0316758
0.0220991
0.0214901
0.0318567
-0.0320357
0.0220764
0.022
0.0321972
-0.032333
0.0217088
0.0216991
0.0324328
-0.0324916
0.0216693
0.0214587
0.0325127
-0.0324877
0.0219964
0.0216337
0.0324122
-0.032307
0.0223889
0.0220371
0.0320875
-0.0322819
0.0226036
0.0223573
0.0321946
-0.0323001
0.021694
0.0223152
0.0206076
-0.0212213
-0.0318382
0.0322286
-0.031433
0.019812
0.0209464
-0.0202046
0.0297029
-0.0207293
0.0199467
-0.0319777
-0.0329083
-0.0215387
0.0211816
-0.0297566
-0.0223451
-0.03203
0.0175131
0.0290036
0.0187044
-0.0195867
-0.0305507
-0.0302967
0.0304009
0.0197077
-0.0296676
0.0180754
0.0203556
-0.0311643
-0.0218121
-0.0320739
-0.0205278
-0.0308972
-0.0213544
0.0207253
-0.0313486
0.0302774
-0.0307781
-0.0191872
-0.0198998
0.028964
0.0297001
-0.0193225
-0.0223998
-0.0318629
-0.0317117
-0.0342881
0.0347627
-0.0216071
0.0341089
-0.035592
-0.0209168
-0.0217179
-0.0349599
0.034856
-0.0211033
-0.0214567
-0.0348493
0.0348361
-0.0207838
-0.0211646
-0.0343093
0.0337766
-0.0197994
-0.0201583
-0.0332436
0.0327022
-0.0189192
-0.0192234
-0.0321519
0.0315735
-0.018176
-0.0184055
-0.0309639
0.0303062
-0.0177006
-0.017774
-0.0296091
0.0288741
-0.0175442
-0.0174765
-0.0281348
0.027409
-0.0171914
-0.0173246
-0.0267348
0.0261229
-0.0157406
-0.016529
-0.0255966
0.0251565
-0.0126855
-0.0143082
-0.0248148
0.0245695
-0.00817925
-0.0105039
-0.024426
0.0243818
-0.00275515
-0.0054994
-0.0244356
0.0245849
0.00294178
9.55924e-05
-0.0248211
0.0251395
0.00830084
0.00564604
-0.0255225
0.0259614
0.0128246
0.0105943
-0.0264332
0.0269236
0.0162068
0.0145339
-0.0274157
0.0278943
0.0183969
0.0172811
-0.0283413
0.0287515
0.0195552
0.0189016
-0.0291106
0.0294239
0.0199768
0.019638
-0.0296833
0.0291123
0.0199712
0.0198056
-0.0291801
0.0290016
0.018311
0.0196798
-0.0288053
0.0288598
0.0174585
0.0183903
0.0180163
-0.018215
0.0292321
-0.0175524
0.0176511
0.0289049
0.0296236
0.0189065
-0.0189436
0.0300856
0.0298844
0.0188799
-0.0188099
0.0298591
0.0296694
0.0185089
-0.0191021
0.0295572
0.0294019
0.0315688
-0.0320752
-0.0196411
-0.0193292
0.0322837
-0.0324565
-0.0207279
-0.0199429
0.0325884
-0.0326791
-0.0215773
-0.0209471
0.0327234
-0.0327253
-0.0217706
-0.0215326
0.0326853
-0.0326088
-0.0207383
-0.0211991
0.0325064
-0.032388
-0.0179694
-0.0193742
0.0322682
-0.0321557
-0.0133228
-0.0156984
0.0320608
-0.0319858
-0.00717789
-0.0102897
0.0319326
-0.0318984
-0.000256428
-0.00372956
0.0318805
-0.0318758
0.00667168
0.00321591
0.0318811
-0.0318955
0.012905
0.00981711
0.0319187
-0.0319528
0.017807
0.0154087
0.0319992
-0.0320605
0.0209138
0.019419
0.0321359
-0.032225
0.0221882
0.0215655
0.0323211
-0.0324177
0.0221729
0.0220962
0.0325021
-0.032565
0.0217718
0.0217835
0.0325948
-0.0325836
0.0216581
0.0214885
0.032529
-0.0324235
0.0218908
0.0215792
0.0322667
-0.032048
0.0221702
0.0218803
0.0317631
-0.0313446
0.0221851
0.0220724
0.0309588
-0.0307582
0.0214934
0.0219295
0.0205891
0.0172897
-0.0182488
-0.0295916
-0.0289138
0.0165359
0.0178098
0.0287011
-0.0187408
0.0196995
-0.0328216
-0.0341261
-0.0202066
0.0213128
-0.0307139
-0.0218729
-0.0319692
0.0295584
-0.0189605
0.0208072
-0.0312462
-0.0213909
-0.0312108
0.0196463
-0.0312954
-0.0192127
-0.0299333
-0.0154167
-0.0278896
0.0143925
-0.0164625
-0.0285458
-0.0196618
0.0184891
-0.0316488
0.0291154
-0.0290543
0.0173974
0.0288267
0.0180985
-0.0211959
-0.0325921
-0.0322717
-0.0359121
0.0366568
-0.0216615
0.03551
-0.0374414
-0.0192645
-0.0206087
-0.0363315
0.0361832
-0.0214588
-0.0213926
-0.0362355
0.0363262
-0.021194
-0.021509
-0.0357444
0.0351579
-0.0201973
-0.0205829
-0.0345755
0.0339911
-0.0192151
-0.0195759
-0.0334112
0.0328259
-0.0183339
-0.0186435
-0.0322368
0.0316253
-0.0175646
-0.0178164
-0.0309866
0.0303008
-0.0170147
-0.0171353
-0.0295742
0.028806
-0.016776
-0.01675
-0.0280293
0.0272627
-0.0164248
-0.0165478
-0.0265476
0.025898
-0.0150909
-0.015814
-0.02534
0.024875
-0.0122206
-0.0137503
-0.0245159
0.0242599
-0.00792328
-0.0101447
-0.0241122
0.0240693
-0.0027123
-0.00535167
-0.0241292
0.0242882
0.00278276
3.57131e-05
-0.0245366
0.0248692
0.0079683
0.00539762
-0.0252676
0.0257232
0.0123689
0.0101959
-0.0262123
0.0267227
0.0156964
0.0140449
-0.0272328
0.0277332
0.0178964
0.0167711
-0.0282028
0.0286397
0.0191183
0.018432
-0.0290282
0.0293728
0.0196322
0.0192495
-0.0296662
0.0299134
0.019724
0.0195123
-0.0301115
0.0295868
0.0188358
0.0194816
0.0189228
0.0186685
-0.0187522
0.0289887
-0.0178391
0.0282462
0.0184196
0.0295305
0.0182689
-0.0189276
0.0298908
0.0291402
0.0186921
-0.0184234
0.0298169
0.0296489
0.0184275
-0.0182507
0.0296823
0.0296735
0.0183135
-0.0183321
0.0295759
0.0294647
-0.0179288
0.0291551
0.0307124
-0.0314191
-0.0184805
-0.029983
0.029287
-0.0182645
-0.018593
0.0322206
-0.0325129
-0.0193489
-0.0185276
0.0327714
-0.0330027
-0.0204966
-0.0196844
0.0331971
-0.0333551
-0.0214193
-0.0207528
0.0334696
-0.033542
-0.0216981
-0.0214181
0.0335707
-0.0335604
-0.0207486
-0.0211704
0.033518
-0.0334529
-0.0180345
-0.0194165
0.033377
-0.0332992
-0.0134006
-0.0157742
0.033228
-0.0331659
-0.00724001
-0.0103609
0.0331141
-0.03307
-0.000300536
-0.0037813
0.0330313
-0.0329946
0.00663501
0.00317719
0.0329585
-0.0329216
0.0128681
0.00978096
0.0328851
-0.0328506
0.0177725
0.0153722
0.0328218
-0.0328016
0.0208936
0.0193902
0.0327927
-0.0327956
0.022191
0.0215566
0.0328074
-0.0328221
0.0221877
0.022108
0.0328297
-0.0328185
0.0217606
0.0217911
0.0327765
-0.032693
0.0215746
0.0214465
0.0325633
-0.0323798
0.0217073
0.0214494
0.0321437
-0.0318446
0.0218712
0.0216442
0.0314796
-0.0310361
0.0217416
0.0217074
0.0304211
-0.0298956
0.0209679
0.0213145
0.0295158
-0.0289544
0.0191463
0.0202094
0.0285114
-0.0277894
0.0158139
0.0176323
0.0123417
-0.02705
-0.0131812
0.0272687
-0.0259801
0.011053
0.0138718
-0.0152413
0.0164474
-0.0337982
-0.036219
-0.0164637
0.0214407
-0.0313473
-0.0214271
-0.031933
-0.00941915
-0.0249661
0.00840515
-0.0258841
-0.0105851
0.0200951
-0.0316951
-0.0201263
-0.0302972
0.0189596
-0.0317659
-0.0177082
-0.0286876
0.0185596
-0.0192522
0.0289388
0.0291083
-0.0288321
0.0181434
0.0291137
0.0185543
0.0167307
-0.0319321
-0.0143329
-0.0273942
-0.0133061
0.0132159
-0.033708
-0.0179338
0.029292
-0.013898
-0.0356272
-0.0322581
-0.0380944
0.0387834
-0.0199535
0.0378462
-0.036553
-0.0151912
-0.0167119
-0.0381263
0.0380563
-0.0215914
-0.0199516
-0.0381259
0.0380272
-0.0213601
-0.0214622
-0.0373942
0.0367467
-0.0205465
-0.020876
-0.0361017
0.0354588
-0.0195544
-0.0199378
-0.0348278
0.0341998
-0.0185871
-0.0189449
-0.0335806
0.0329588
-0.0177121
-0.0180242
-0.0323372
0.0316981
-0.0169254
-0.0171949
-0.0310366
0.0303306
-0.0163087
-0.0164739
-0.0295836
0.0287913
-0.0159837
-0.016003
-0.0279855
0.0271852
-0.0156245
-0.015742
-0.0264351
0.0257519
-0.0144078
-0.0150639
-0.0251656
0.0246784
-0.0117334
-0.0131639
-0.0243039
0.0240388
-0.00765815
-0.00977018
-0.0238876
0.0238463
-0.00267098
-0.00520049
-0.0239117
0.0240792
0.0026152
-2.9683e-05
-0.0243381
0.0246823
0.00762408
0.00513877
-0.025093
0.0255618
0.0119001
0.00978522
-0.0260643
0.0265905
0.0151701
0.0135424
-0.027116
0.0276345
0.0173779
0.0162456
-0.028124
0.0285837
0.0186586
0.0179426
-0.0289977
0.0293708
0.0192591
0.0188355
-0.0296944
0.0299745
0.019444
0.0191887
-0.0302065
0.029963
0.0190794
0.0192495
-0.0298546
0.0292162
0.0180359
0.0190311
0.0184826
0.0185706
-0.0186431
0.0290611
0.0288489
0.0190978
-0.0188381
0.029631
0.0295949
0.0185448
-0.018217
0.0294891
0.0293557
0.0178644
-0.0177345
0.0295524
0.0293209
0.0177605
-0.017278
0.0290933
0.0294907
0.0297489
-0.0305758
-0.0174376
0.0293535
-0.0175383
0.0175418
-0.017441
0.0291911
0.0294189
0.0316208
-0.0322783
-0.0178231
-0.0175481
0.032633
-0.0329705
-0.0190114
-0.0181729
0.0332816
-0.0335718
-0.0202064
-0.0193733
0.0338295
-0.0340565
-0.0211923
-0.0204951
0.0342425
-0.0343885
-0.0215522
-0.0212321
0.0344888
-0.0345474
-0.02069
-0.02107
0.0345671
-0.0345563
-0.0180453
-0.0193969
0.0345243
-0.0344797
-0.0134452
-0.0158062
0.0344301
-0.034378
-0.00729211
-0.0104106
0.0343245
-0.0342671
-0.000357928
-0.00383473
0.0342042
-0.0341324
0.0065632
0.00311423
0.0340516
-0.0339605
0.012777
0.0097002
0.0338621
-0.0337577
0.0176681
0.0152738
0.0336533
-0.0335521
0.0207924
0.0192858
0.03346
-0.0333783
0.0221093
0.0214646
0.0333076
-0.0332419
0.022122
0.0220372
0.033173
-0.0330871
0.0216747
0.0217221
0.0329723
-0.032816
0.0214183
0.0213317
0.0326131
-0.0323557
0.0214499
0.0212465
0.0320449
-0.0316708
0.021497
0.0213334
0.0312329
-0.0307183
0.021227
0.0212694
0.030129
-0.0294597
0.0202986
0.0207253
0.0285978
-0.0278006
0.0183491
0.0193475
0.0269552
-0.0262302
0.0150889
0.0167869
0.0254863
-0.0246243
0.010191
0.0131279
0.00549296
-0.00633563
-0.0241234
0.0239066
-0.023327
0.00491337
0.0076875
-0.0123799
0.0115067
-0.034754
-0.0360657
-0.0128672
-0.0245834
-0.00763637
0.00262568
-0.0035215
-0.0232276
-0.0226121
0.00191077
0.0204665
-0.0317187
-0.0206757
-0.0313836
0.0192517
-0.0319871
-0.0183545
-0.0296509
0.0185941
-0.0187321
0.0290768
0.0183457
0.0293621
0.0170352
-0.0320704
-0.0153403
-0.0276802
0.0144868
-0.033203
-0.0118697
-0.0261095
0.0117563
-0.0339575
0.0286296
-0.0167171
0.0106905
-0.0356896
-0.0110666
0.0106362
-0.0346997
-0.0235869
-0.00451796
-0.000499045
-0.00039049
-0.022338
-0.00112741
-0.0219837
-0.00840002
0.00760499
-0.0348945
-0.0363126
0.0374758
-0.0122298
0.0293006
-0.0289476
0.0177904
0.0296353
0.0182196
-0.036611
-0.00810169
-0.0324672
-0.0380899
0.0396558
-0.0167571
-0.0134813
-0.04037
0.0402144
-0.0197979
-0.0174261
-0.0404717
0.0398869
-0.0210066
-0.0202089
-0.0392374
0.0385435
-0.0206662
-0.0208127
-0.0378364
0.037125
-0.0198351
-0.0201689
-0.0364268
0.0357377
-0.0188653
-0.0192397
-0.0350664
0.0344022
-0.017923
-0.0182736
-0.0337505
0.0330989
-0.0170606
-0.0173724
-0.032451
0.0317899
-0.0162643
-0.016547
-0.0311117
0.0303927
-0.0155897
-0.0157956
-0.0296338
0.0288266
-0.0151765
-0.015244
-0.0280007
0.0271744
-0.0147982
-0.0149161
-0.0263949
0.0256822
-0.0136951
-0.0142843
-0.0250701
0.0245626
-0.011226
-0.0125518
-0.0241742
0.023901
-0.00738488
-0.00938179
-0.0237468
0.0237068
-0.00263099
-0.00504631
-0.0237767
0.0239514
0.00244049
-9.96087e-05
-0.0242188
0.0245724
0.00727051
0.00487138
-0.0249926
0.0254715
0.0114212
0.00936497
-0.0259842
0.0265225
0.0146319
0.0130297
-0.0270607
0.027594
0.0168446
0.0157074
-0.0281003
0.0285797
0.0181792
0.0174364
-0.0290162
0.0294151
0.0188602
0.0183989
-0.0297667
0.0300777
0.019133
0.018837
-0.0303418
0.0301951
0.0192261
0.0189854
-0.0301597
0.0296923
0.0185032
0.0190665
0.0192273
0.0193091
-0.0193834
0.0291354
0.0294259
0.0191161
-0.0188053
0.0293203
0.0293276
0.0184569
-0.0180734
0.0291056
0.0290073
0.0176652
-0.0172316
0.0291188
0.0289127
0.0167825
-0.0167484
0.0290592
0.0290417
0.0162664
-0.0160703
0.028995
0.0289369
-0.0213344
0.021873
-0.00166601
-0.0041287
0.00340206
-0.0212571
-0.02097
-0.0044931
-0.0162415
0.0288008
0.0304861
-0.0313179
-0.0166058
-0.0295821
0.0290655
-0.0162005
-0.0166344
0.0322563
-0.0326689
-0.0174104
-0.0166097
0.0330606
-0.033444
-0.0186281
-0.0177811
0.0338069
-0.0341557
-0.0198576
-0.0190104
0.0344772
-0.034774
-0.0208954
-0.0201737
0.0350327
-0.035254
-0.0213309
-0.0209734
0.035428
-0.0355573
-0.0205607
-0.020896
0.0356404
-0.0356844
-0.0180012
-0.0193138
0.0356957
-0.0356828
-0.0134581
-0.0157949
0.0356522
-0.035607
-0.00733729
-0.0104412
0.0355485
-0.0354744
-0.000432049
-0.00389321
0.0353839
-0.0352738
0.00645312
0.00302372
0.0351457
-0.0349981
0.0126295
0.00957204
0.0348361
-0.0346609
0.0174929
0.0151117
0.0344812
-0.0343002
0.0206115
0.0191061
0.0341271
-0.0339634
0.0219455
0.0212915
0.0338125
-0.0336682
0.0219777
0.0218864
0.0335235
-0.0333636
0.0215147
0.0215775
0.0331771
-0.0329499
0.0211911
0.0211453
0.0326776
-0.0323511
0.0211234
0.0209742
0.0319718
-0.0315296
0.0210548
0.0209541
0.0310259
-0.0304487
0.0206497
0.0207658
0.029803
-0.0290819
0.0195774
0.0200797
0.0282982
-0.0274558
0.0175067
0.0185638
0.0265812
-0.0256875
0.0141951
0.0159123
0.0245355
-0.0239384
0.00959396
0.0119759
0.0232261
-0.0225073
0.00419454
0.00697517
0.00127644
0.019558
-0.032025
-0.0189951
-0.030743
0.0181511
0.0298298
0.0173997
-0.0323516
-0.016111
-0.0288802
0.0148105
-0.0323941
-0.012614
-0.0269359
0.0124741
-0.0339208
-0.00874945
-0.0249964
0.0104392
-0.0337606
0.00732693
-0.0344216
0.00509151
-0.0361193
-0.00558314
0.00505698
-0.03486
-0.0228459
-0.00113148
0.00283023
-0.0217662
0.00677249
-0.00709052
-0.0206519
0.00637737
-0.020862
-0.0158387
0.0286628
-0.00262139
0.00163556
-0.0351335
-0.0372243
0.0361877
-0.00454649
0.0294813
-0.0303013
-0.0153804
0.0289656
-0.015323
-0.036741
-0.0031047
-0.0319043
-0.0384618
0.0385591
-0.0123271
-0.0103758
-0.040869
0.0407521
-0.0166403
-0.0157911
-0.0417823
0.041299
-0.0193146
-0.0184563
-0.0411972
0.0405043
-0.0203138
-0.0201071
-0.0397635
0.0389939
-0.0198966
-0.0200719
-0.0382252
0.0374616
-0.0190716
-0.0194002
-0.0367196
0.0359925
-0.0181382
-0.0184977
-0.0352883
0.034595
-0.0172297
-0.0175694
-0.0339174
0.0332426
-0.0163857
-0.0166948
-0.0325746
0.0318973
-0.015587
-0.0158791
-0.0312081
0.030483
-0.0148647
-0.0151065
-0.0297203
0.0289077
-0.0143639
-0.0144813
-0.0280709
0.0272266
-0.0139539
-0.0140794
-0.0264238
0.0256855
-0.0129569
-0.0134815
-0.0250499
0.0245234
-0.0106995
-0.0119161
-0.0241218
0.0238408
-0.00710384
-0.00898022
-0.0236836
0.0236443
-0.00259173
-0.00488909
-0.0237173
0.0238977
0.00226015
-0.000172631
-0.0241717
0.0245323
0.00690985
0.00459741
-0.0249597
0.0254459
0.010935
0.00893762
-0.0259662
0.0265132
0.0140849
0.0125094
-0.0270613
0.0276067
0.0162992
0.0151592
-0.0281271
0.0286236
0.0176827
0.0169159
-0.0290802
0.0295024
0.0184381
0.0179423
-0.02988
0.03022
0.0187931
0.0184594
-0.0305151
0.030771
0.0189702
0.0186903
-0.0309813
0.0302919
0.0191926
0.0188562
-0.0303598
0.0299709
0.0181793
0.0191594
-0.0297901
0.0299778
0.0179635
0.0184004
0.0188149
-0.0188194
0.0290813