/*--------------------------------*- C++ -*----------------------------------*\
  =========                 |
  \\      /  F ield         | OpenFOAM: The Open Source CFD Toolbox
   \\    /   O peration     | Website:  https://openfoam.org
    \\  /    A nd           | Version:  10
     \\/     M anipulation  |
\*---------------------------------------------------------------------------*/
FoamFile
{
    format      ascii;
    class       volScalarField;
    location    "40.5";
    object      p;
}
// * * * * * * * * * * * * * * * * * * * * * * * * * * * * * * * * * * * * * //

dimensions      [0 2 -2 0 0 0 0];

internalField   nonuniform List<scalar> 
28942
(
-0.00370352
-0.00307125
0.002111
0.00961535
0.00991563
0.000123606
0.000363493
4.25234e-05
0.00282555
0.00291369
-0.00224449
-0.00251466
-0.00290156
-0.0028187
0.000239647
0.000590804
0.00998664
0.0102564
0.00567808
0.00723848
0.00825836
0.00825059
-0.00517694
-0.00499789
-0.00352676
-0.00374675
0.013986
0.0139349
0.00362372
0.0035682
3.10656e-05
7.06191e-05
0.000937846
0.000393657
0.00724668
0.00845334
0.0109923
0.0129527
1.01737e-05
0.0151499
0.00921975
0.0117175
0.00204254
0.00198378
0.00201897
0.000358933
0.000208194
0.000287566
0.000331682
0.00046595
0.000868089
0.00292339
0.0029928
0.00295592
0.00311276
-0.0022873
-0.000980029
-0.00331231
-0.00315714
-0.00343128
-0.00350387
-0.00350495
-0.00340218
-3.72677e-05
-0.00174908
-0.000279423
0.00105936
0.00952778
0.00903111
-0.00329141
-0.00350299
-0.00323605
0.00909082
0.00894338
0.00923481
-0.0013991
-0.0010093
-0.000663937
0.00244829
0.00284797
0.00193436
0.000834189
-0.00625781
-0.00749184
0.00117141
0.00390207
0.00494568
0.00573506
0.00411606
0.00424225
0.00621239
0.00558871
-0.00130166
-0.00160009
-0.0018832
-0.00171727
-0.00153814
0.00543438
0.00672751
-0.00780336
0.0114128
0.0106138
0.00590772
0.00950522
0.00101261
0.000929839
0.000831387
0.00558333
0.00577589
0.0057697
-0.00315439
-0.00307435
-0.00305615
-0.00253496
-0.00265554
0.015942
0.0139355
0.0133766
0.015009
0.0017348
0.00482336
0.00351851
0.00516628
0.00484374
0.0156139
0.0159093
0.014568
0.00601032
0.00709022
0.00024457
0.000359092
0.00014843
0.0106018
0.0111061
0.00779695
0.00744922
0.012906
0.00679445
0.00808779
0.00915524
-0.0018172
-0.00233671
0.0074569
0.00196831
0.00204052
-0.00110526
-0.00137504
-0.000901724
-0.00243751
0.00669391
0.00582016
0.00380545
0.000321471
0.000257736
0.000113867
0.000261584
0.00763231
0.00689713
-0.00177009
-0.00188939
-0.00178282
-0.0040762
-0.00361645
9.28935e-05
-0.00279137
-0.000432771
0.00850023
0.00860872
0.00970397
0.00923916
0.00781605
0.00321517
0.00313393
0.00337005
0.0032477
0.00515472
0.00493237
0.00526664
0.00548718
0.00542411
0.00549242
0.00570292
0.00625587
0.00595041
0.00554729
0.00587718
0.00658321
0.00733551
0.00762841
-0.000462764
-0.000446314
-0.00238918
0.000270157
9.59231e-05
-0.00190182
-0.00199255
0.000365252
0.000426797
0.000385697
0.000314442
0.00214213
0.00211183
0.00208123
-0.0028484
-0.0030387
-0.00269786
-0.00428166
-0.00476827
-0.00407318
-0.00466521
-0.00643785
-0.00512972
0.016136
0.0168468
0.016614
0.00105963
0.00120567
0.0010889
0.0104564
0.0100287
0.0101091
0.00161916
0.00159749
0.0016409
0.00157591
0.00155462
0.00153348
0.00153426
0.00151256
0.00151359
0.0015551
0.00157634
0.0015978
0.00161962
0.00164134
0.00149209
0.00149289
0.00166275
0.00166328
0.00168509
0.0014718
0.00147219
0.00168554
0.00145138
0.00143112
0.00145186
0.00143168
0.00170742
0.00170802
0.00141105
0.00141162
0.00172965
0.00173057
0.00139113
0.00139171
0.00175226
0.0017533
0.00137135
0.00137196
0.00177511
0.00177619
0.00135174
0.00135231
0.00179816
0.00179924
0.0013323
0.00133275
0.00182155
0.0018223
0.00131294
0.00131335
0.00184489
0.0018456
0.00129368
0.00129401
0.00186852
0.00186906
0.0012745
0.00127465
0.0018924
0.00189291
0.00125548
0.00125511
0.00191644
0.00191666
0.00123607
0.00123574
0.00194073
0.00194094
0.00121613
0.00121628
0.00191561
0.00193991
0.00196536
0.00196531
0.00186726
0.00189151
0.00182013
0.00184386
0.00177414
0.00179707
0.00172865
0.00175134
0.00168363
0.00170605
0.00164011
0.00166222
0.00159697
0.00161831
0.00155424
0.0015755
0.00151205
0.0015331
0.00147092
0.00149142
0.00143039
0.00145058
0.00139049
0.00141037
0.00135116
0.00137076
0.00131236
0.0013317
0.00127405
0.00129315
0.00123553
0.001255
0.00121605
0.00119651
0.00119663
0.00125528
0.00121653
0.00123595
0.00129405
0.00127467
0.00133274
0.00131338
0.00137188
0.00135225
0.00141155
0.00139165
0.00145182
0.00143162
0.0014927
0.00147219
0.00153434
0.00151355
0.00157649
0.00155542
0.0016194
0.00159779
0.00166337
0.00164147
0.00170773
0.00168523
0.00175303
0.00173034
0.0017989
0.00177591
0.00184539
0.00182203
0.00189262
0.00186878
0.00194011
0.00191635
0.00196448
0.00196468
0.00119645
0.00119703
0.00198973
0.0019886
0.00198948
0.00198997
0.00191392
0.00196268
0.00193819
0.00186571
0.00188979
0.00181901
0.00184216
0.00177307
0.00179598
0.00172769
0.00175031
0.00168303
0.00170526
0.00163896
0.00166096
0.00159578
0.00161753
0.00155356
0.00157436
0.00151146
0.00153241
0.00147033
0.00149082
0.00142986
0.00145002
0.00139
0.00140986
0.00135071
0.00137029
0.00131195
0.00133127
0.00127369
0.00129276
0.00123534
0.00125457
0.00117686
0.00117695
0.00119663
0.00121607
0.0012169
0.00119763
0.00117777
0.00117699
0.00125551
0.00123627
0.00129391
0.0012746
0.0013325
0.00131316
0.00137159
0.00135198
0.00141123
0.00139135
0.00145147
0.00143128
0.00149233
0.00147183
0.00153388
0.00151302
0.00157617
0.00155491
0.00161898
0.00159749
0.00166268
0.00164088
0.00170712
0.00168484
0.00175226
0.00172962
0.00179803
0.00177508
0.00184435
0.00182114
0.0018911
0.0018677
0.00193836
0.00191466
0.00198605
0.0019623
0.00198719
0.00201297
0.00201035
0.00201375
0.00117752
0.00117817
0.00201355
0.00201112
0.00203713
0.00203464
0.00201448
0.00119692
0.00117783
0.00115835
0.00115878
0.00200731
0.00203638
0.0020634
0.00203606
0.00195956
0.0019835
0.00191142
0.0019354
0.00186388
0.00188763
0.00181739
0.00184039
0.00177163
0.00179446
0.00172642
0.00174894
0.00168187
0.00170406
0.00163799
0.00165983
0.00159483
0.00161632
0.00155242
0.00157354
0.00151069
0.00153147
0.00146964
0.00149008
0.00142923
0.00144936
0.00138942
0.00140925
0.00135018
0.00136973
0.00131146
0.00133076
0.00127322
0.00129228
0.00123513
0.00125413
0.00121602
0.00115776
0.00115815
0.00115785
0.00115793
0.00121714
0.00117871
0.00119798
0.00125547
0.00123631
0.00129358
0.00127442
0.00133212
0.00131279
0.00137116
0.00135157
0.00141075
0.00139089
0.00145093
0.00143077
0.00149173
0.00147126
0.0015332
0.00151238
0.00157534
0.00155419
0.00161822
0.0015967
0.00166178
0.00163989
0.00170607
0.00168386
0.00175105
0.00172848
0.00179667
0.00177379
0.00184279
0.00181968
0.00188927
0.00186602
0.00193606
0.0019126
0.0019831
0.00195952
0.00203088
0.00200666
0.00205795
0.00205438
0.00203778
0.00203797
0.00115863
0.00115945
0.00206016
0.00206072
0.00207033
0.00207754
0.00208104
0.00203485
0.00210672
0.00203875
0.00204737
0.00205654
0.00200347
0.00202814
0.00195515
0.00197918
0.00190795
0.00193132
0.0018613
0.00188473
0.00181531
0.00183824
0.00176974
0.00179247
0.00172472
0.00174716
0.00168034
0.00170245
0.00163663
0.0016584
0.00159361
0.00161503
0.00155128
0.00157238
0.00150967
0.0015304
0.00146872
0.00148912
0.00142839
0.00144848
0.00138865
0.00140845
0.00134947
0.001369
0.00131081
0.00133008
0.00127263
0.00129167
0.00123475
0.00125362
0.00119697
0.00121588
0.00115891
0.00117792
0.00113915
0.00113969
0.00113943
0.00113891
0.00113891
0.00113928
0.00113901
0.00114036
0.00113976
0.00117907
0.00114119
0.00116009
0.00121712
0.00119812
0.00125509
0.00123612
0.00129311
0.00127405
0.00133159
0.00131229
0.00137057
0.00135102
0.0014101
0.00139027
0.0014502
0.00143008
0.00149092
0.00147049
0.00153229
0.00151152
0.00157432
0.00155323
0.00161708
0.00159562
0.00166051
0.00163869
0.00170465
0.0016825
0.00174945
0.00172697
0.00179485
0.00177209
0.00184075
0.00181775
0.00188697
0.00186384
0.0019333
0.00191013
0.00197955
0.00195646
0.00202589
0.00200266
0.00207225
0.00204883
0.00210001
0.00209457
0.00206129
0.00206205
0.0020822
0.00208291
0.00115906
0.00114021
0.00112138
0.00112182
0.00210108
0.00210372
0.00213047
0.00206276
0.00212113
0.00211632
0.00209863
0.00206205
0.00203852
0.00205282
0.0019981
0.00202034
0.00195041
0.0019742
0.00190443
0.00192741
0.00185846
0.00188145
0.00181275
0.00183556
0.00176744
0.00179004
0.00172265
0.00174497
0.00167847
0.00170048
0.00163495
0.00165663
0.0015921
0.00161344
0.00154993
0.00157093
0.00150843
0.0015291
0.00146758
0.00148793
0.00142735
0.0014474
0.00138771
0.00140746
0.00134861
0.0013681
0.00131003
0.00132926
0.00127191
0.00129092
0.00123423
0.00125302
0.00119671
0.00121541
0.00117783
0.00112036
0.00112077
0.00112052
0.00112035
0.00112039
0.00112064
0.0011205
0.00112089
0.00117921
0.00114132
0.00116049
0.00121686
0.00119805
0.00125455
0.00123572
0.0012925
0.00127348
0.00133092
0.00131165
0.00136983
0.00135031
0.00140927
0.00138948
0.00144928
0.0014292
0.0014899
0.00146951
0.00153115
0.00151044
0.00157306
0.00155202
0.00161565
0.00159427
0.00165892
0.0016372
0.00170287
0.00168082
0.00174745
0.00172509
0.0017926
0.00176997
0.00183821
0.00181536
0.00188411
0.00186114
0.00193007
0.0019071
0.00197577
0.00195298
0.00202099
0.00199856
0.00206558
0.00204273
0.00211045
0.00208873
0.0021371
0.00213102
0.00208502
0.00208457
0.00112097
0.00112236
0.00210464
0.00208486
0.00211288
0.00210562
0.0021246
0.00212234
0.00214135
0.00213697
0.00214197
0.00215709
0.00215223
0.00208504
0.00207116
0.00212414
0.00210124
0.00203263
0.00204969
0.00199195
0.00201447
0.00194618
0.00196899
0.00190066
0.00192346
0.0018551
0.00187787
0.00180972
0.00183237
0.00176473
0.00178717
0.00172022
0.00174241
0.00167628
0.00169818
0.00163298
0.00165455
0.00159032
0.00161157
0.00154832
0.00156924
0.00150697
0.00152757
0.00146626
0.00148654
0.00142615
0.00144613
0.00138661
0.00140631
0.00134761
0.00136705
0.00130911
0.0013283
0.00127108
0.00129004
0.00123348
0.00125223
0.00119618
0.00121482
0.00115876
0.00117749
0.00112096
0.00114003
0.00110195
0.00110195
0.00110186
0.00110202
0.00110194
0.00110218
0.00110207
0.0011023
0.00110226
0.00110266
0.00110244
0.00110356
0.00110304
0.00114149
0.00110401
0.00112274
0.00117902
0.00116034
0.00121642
0.00119772
0.00125389
0.00123511
0.00129177
0.00127278
0.00133011
0.00131088
0.00136893
0.00134946
0.00140827
0.00138853
0.00144817
0.00142815
0.00148866
0.00146834
0.00152977
0.00150914
0.00157153
0.00155057
0.00161394
0.00159266
0.00165702
0.0016354
0.00170074
0.00167881
0.00174507
0.00172284
0.00178992
0.00176744
0.00183519
0.00181252
0.00188071
0.00185794
0.00192625
0.0019035
0.0019715
0.00194894
0.00201605
0.00199394
0.00205958
0.0020379
0.00210165
0.00208103
0.00214291
0.00212159
0.00217202
0.00216362
0.0021064
0.00213931
0.00212282
0.00112095
0.00110228
0.00108478
0.00108508
0.00210668
0.00212696
0.00214008
0.00214536
0.0021617
0.00217771
0.00219036
0.00218257
0.00210686
0.00211678
0.00215681
0.00214897
0.00213399
0.00206897
0.00209463
0.00202708
0.00204627
0.00198608
0.00200806
0.00194131
0.00196368
0.00189632
0.00191886
0.00185122
0.00187377
0.00180626
0.00182871
0.00176163
0.0017839
0.00171743
0.00173947
0.00167378
0.00169554
0.00163072
0.00165217
0.00158827
0.00160942
0.00154647
0.0015673
0.0015053
0.00152581
0.00146473
0.00148494
0.00142476
0.00144468
0.00138535
0.00140499
0.00134646
0.00136584
0.00130806
0.0013272
0.00127012
0.00128904
0.0012326
0.00125131
0.00119548
0.001214
0.00115832
0.0011769
0.00113964
0.00108341
0.00108327
0.00108332
0.00108381
0.00108365
0.00108414
0.00108399
0.00108421
0.00108421
0.00108426
0.00108425
0.00108446
0.00114155
0.00110418
0.00112288
0.0011786
0.00116008
0.00121574
0.00119718
0.00125312
0.00123438
0.00129092
0.00127197
0.00132915
0.00130998
0.00136787
0.00134845
0.0014071
0.00138742
0.00144687
0.00142692
0.00148722
0.00146697
0.00152817
0.00150762
0.00156975
0.00154888
0.00161197
0.00159078
0.00165482
0.00163332
0.00169828
0.00167648
0.00174231
0.00172024
0.00178683
0.00176452
0.00183172
0.00180925
0.00187681
0.00185426
0.00192186
0.00189936
0.00196659
0.0019443
0.00201059
0.00198872
0.00205343
0.00203221
0.00209442
0.00207421
0.00213439
0.00211414
0.00217229
0.00215307
0.00216152
0.00215976
0.0022001
0.00219044
0.00212596
0.00108367
0.0010853
0.00216379
0.00212804
0.00217518
0.00214485
0.00214807
0.00216598
0.00216633
0.00218253
0.00219607
0.0022077
0.00221682
0.0022076
0.00212773
0.00213805
0.00218424
0.00217732
0.0021545
0.00210654
0.00212512
0.00206354
0.00208486
0.00202108
0.00204163
0.00197974
0.00200117
0.00193582
0.00195784
0.00189146
0.00191369
0.00184689
0.00186918
0.00180239
0.00182462
0.00175815
0.00178023
0.00171431
0.00173618
0.00167097
0.00169258
0.00162818
0.0016495
0.00158598
0.00160701
0.00154439
0.00156511
0.00150341
0.00152383
0.00146302
0.00148315
0.0014232
0.00144305
0.00138393
0.0014035
0.00134517
0.00136449
0.00130689
0.00132597
0.00126905
0.00128792
0.00123163
0.00125029
0.00119459
0.00121306
0.00115777
0.0011762
0.00112082
0.00113926
0.00108368
0.00110239
0.00106497
0.00106495
0.0010649
0.00106533
0.00106507
0.00106581
0.00106556
0.00106616
0.00106602
0.00106622
0.00106623
0.00106614
0.00106616
0.00106619
0.0010661
0.00106664
0.00106631
0.00110418
0.00106693
0.00108562
0.00114125
0.0011227
0.00117801
0.00115967
0.00121494
0.00119644
0.00125224
0.00123354
0.00128994
0.00127104
0.00132807
0.00130895
0.00136666
0.00134731
0.00140576
0.00138615
0.00144539
0.00142551
0.00148558
0.00146541
0.00152635
0.00150589
0.00156773
0.00154697
0.00160972
0.00158865
0.00165232
0.00163095
0.00169549
0.00167384
0.0017392
0.00171729
0.00178335
0.00176123
0.00182782
0.00180557
0.00187244
0.00185013
0.00191696
0.00189474
0.0019611
0.00193911
0.00200446
0.00198291
0.00204662
0.00202573
0.00208694
0.00206706
0.00212519
0.00210642
0.00216103
0.00214298
0.00219544
0.00217911
0.00217965
0.00218201
0.00222081
0.00220819
0.00214737
0.00214932
0.0021915
0.00220113
0.00219248
0.00216646
0.00216895
0.00108356
0.00106521
0.00104812
0.00104839
0.00218763
0.0021864
0.00220145
0.00221351
0.00222375
0.00223023
0.0022043
0.0021961
0.00220657
0.00223417
0.00222525
0.00222123
0.00214909
0.00216894
0.00217948
0.00212853
0.00214679
0.0020961
0.00211457
0.00205537
0.00207546
0.0020146
0.00203508
0.00197297
0.00199404
0.00192987
0.00195153
0.00188614
0.00190807
0.00184214
0.00186416
0.00179813
0.00182013
0.00175433
0.0017762
0.00171087
0.00173255
0.00166786
0.00168931
0.00162538
0.00164656
0.00158345
0.00160434
0.00154209
0.0015627
0.00150133
0.00152164
0.00146113
0.00148116
0.00142148
0.00144124
0.00138235
0.00140185
0.00134374
0.00136299
0.00130558
0.00132461
0.00126786
0.00128667
0.00123055
0.00124916
0.00119361
0.00121203
0.00115701
0.00117527
0.00112038
0.0011387
0.00110203
0.00104669
0.00104651
0.00104654
0.00104734
0.00104704
0.00104791
0.00104764
0.00104825
0.00104811
0.00104831
0.00104831
0.00104814
0.00104824
0.00104802
0.00104807
0.00104804
0.00110403
0.0010672
0.00108564
0.0011407
0.00112234
0.00117722
0.00115894
0.00121405
0.00119559
0.00125125
0.0012326
0.00128883
0.00126999
0.00132684
0.00130779
0.00136531
0.00134602
0.00140426
0.00138473
0.00144373
0.00142393
0.00148374
0.00146367
0.00152432
0.00150396
0.00156547
0.00154483
0.00160722
0.00158628
0.00164954
0.00162831
0.0016924
0.00167091
0.00173575
0.00171402
0.0017795
0.00175759
0.00182352
0.00180149
0.00186763
0.00184558
0.00191159
0.00188965
0.00195509
0.00193342
0.00199776
0.00197656
0.00203917
0.00201866
0.00207878
0.00205925
0.00211607
0.0020978
0.00215055
0.00213369
0.00218135
0.00216671
0.00221164
0.00219451
0.00221447
0.00223446
0.00224774
0.00224476
0.00223317
0.00221869
0.0021983
0.00220346
0.00216888
0.0021703
0.00104676
0.00104846
0.00221456
0.00218783
0.00218921
0.00220669
0.00220573
0.00221954
0.00223072
0.00223783
0.0022418
0.00221825
0.00220444
0.00221304
0.00221771
0.00222871
0.00224342
0.00222838
0.00223361
0.00223449
0.00225424
0.00225337
0.00217028
0.00218514
0.00219189
0.00215462
0.0021674
0.00211929
0.00213761
0.00208527
0.00210284
0.00204694
0.00206644
0.002007
0.00202713
0.00196586
0.00198661
0.0019235
0.0019448
0.00188042
0.00190203
0.001837
0.00185874
0.00179352
0.00181526
0.00175017
0.00177182
0.00170712
0.00172861
0.00166448
0.00168575
0.00162232
0.00164334
0.00158067
0.00160143
0.00153958
0.00156006
0.00149904
0.00151924
0.00145905
0.00147898
0.00141959
0.00143926
0.00138063
0.00140005
0.00134217
0.00136134
0.00130415
0.00132311
0.00126656
0.00128531
0.00122936
0.00124792
0.00119253
0.0012109
0.00115604
0.00117424
0.00111973
0.0011379
0.00108344
0.00110155
0.00104677
0.00106508
0.00102836
0.00102839
0.00102831
0.00102879
0.00102845
0.00102949
0.00102913
0.00103007
0.00102981
0.0010304
0.00103027
0.00103046
0.00103046
0.00103029
0.0010304
0.00102999
0.00103017
0.00102985
0.00102988
0.00102998
0.0010299
0.00106698
0.00103011
0.00104872
0.00110365
0.00108533
0.00113992
0.00112181
0.00117633
0.00115808
0.00121306
0.00119465
0.00125014
0.00123156
0.00128761
0.00126883
0.00132549
0.0013065
0.00136381
0.0013446
0.00140261
0.00138315
0.0014419
0.00142219
0.00148172
0.00146174
0.00152208
0.00150183
0.00156299
0.00154247
0.00160447
0.00158366
0.00164649
0.00162542
0.00168901
0.00166769
0.00173198
0.00171045
0.0017753
0.00175361
0.00181884
0.00179706
0.00186241
0.00184064
0.00190577
0.00188414
0.00194861
0.00192728
0.00199057
0.00196974
0.0020312
0.00201109
0.00207
0.00205087
0.00210647
0.00208858
0.00214001
0.00212368
0.0021696
0.0021554
0.00219547
0.00218322
0.00220356
0.00221463
0.00222531
0.00224912
0.00223558
0.00218987
0.00219076
0.00222529
0.00220709
0.00220874
0.00104649
0.0010283
0.0010116
0.00101158
0.00222553
0.00222419
0.00223683
0.00224626
0.00225254
0.00225651
0.00222352
0.00220923
0.00222287
0.00223437
0.00224337
0.00224218
0.00224646
0.00226506
0.00225801
0.00223948
0.00225415
0.002191
0.00219277
0.00219222
0.00216961
0.00218255
0.00214022
0.00215529
0.00210908
0.00212528
0.00207512
0.00209245
0.00203798
0.00205691
0.00199885
0.0020186
0.00195839
0.0019788
0.00191674
0.00193769
0.00187433
0.00189561
0.00183151
0.00185296
0.00178856
0.00181004
0.0017457
0.00176712
0.00170309
0.00172436
0.00166083
0.00168191
0.00161901
0.00163986
0.00157768
0.00159828
0.00153686
0.00155721
0.00149657
0.00151665
0.0014568
0.00147662
0.00141754
0.00143711
0.00137877
0.0013981
0.00134047
0.00135956
0.00130261
0.00132149
0.00126515
0.00128383
0.00122808
0.00124657
0.00119136
0.00120968
0.00115497
0.00117313
0.00111888
0.0011369
0.00108283
0.0011008
0.00106471
0.00101028
0.00101003
0.00101016
0.00101098
0.00101063
0.00101174
0.00101137
0.00101229
0.00101204
0.0010126
0.00101248
0.00101268
0.00101267
0.00101251
0.00101262
0.00101214
0.00101234
0.00101173
0.00101194
0.00101157
0.00106667
0.00103016
0.00104857
0.00110301
0.0010848
0.00113904
0.001121
0.00117535
0.00115716
0.00121197
0.00119362
0.00124894
0.00123041
0.00128627
0.00126756
0.00132401
0.00130509
0.00136218
0.00134304
0.0014008
0.00138143
0.0014399
0.00142029
0.00147951
0.00145964
0.00151964
0.00149951
0.00156029
0.0015399
0.00160148
0.00158082
0.00164317
0.00162227
0.00168534
0.0016642
0.0017279
0.00170658
0.00177077
0.00174931
0.0018138
0.00179228
0.00185681
0.00183533
0.00189955
0.00187824
0.00194171
0.00192073
0.00198293
0.00196247
0.00202277
0.00200306
0.00206074
0.00204203
0.00209632
0.00207887
0.00212893
0.00211305
0.00215777
0.00214389
0.00218214
0.00217072
0.00220131
0.00219213
0.00222004
0.00221197
0.00224273
0.00222864
0.00222032
0.00223054
0.00223709
0.00220935
0.0022104
0.00100996
0.00101184
0.00224456
0.00222575
0.0022274
0.0022432
0.00224169
0.00225296
0.002261
0.00226577
0.00226688
0.00222829
0.00221131
0.00221271
0.00221206
0.0022111
0.00223089
0.00223035
0.00224692
0.00224848
0.00225731
0.00225448
0.00227235
0.00226622
0.00225671
0.00224388
0.00221067
0.00219828
0.00220764
0.00217729
0.0021805
0.00215432
0.00216851
0.00212818
0.00214176
0.00209803
0.0021136
0.00206474
0.00208175
0.00202856
0.00204698
0.00199031
0.00200965
0.00195056
0.00197061
0.00190963
0.00193022
0.00186789
0.00188884
0.00182569
0.00184683
0.0017833
0.00180451
0.00174095
0.00176211
0.00169878
0.00171984
0.00165693
0.00167781
0.00161547
0.00163615
0.00157446
0.00159491
0.00153394
0.00155414
0.00149391
0.00151387
0.00145438
0.00147409
0.00141534
0.0014348
0.00137676
0.00139599
0.00133864
0.00135765
0.00130094
0.00131974
0.00126363
0.00128224
0.0012267
0.00124512
0.00119011
0.00120836
0.00115383
0.00117193
0.00111785
0.0011358
0.00108211
0.00109995
0.00104603
0.00106405
0.00100962
0.00102801
0.000991873
0.000991288
0.000991525
0.000992493
0.000992129
0.000993278
0.000992854
0.000994038
0.000993687
0.000994562
0.000994328
0.000994864
0.000994741
0.000994942
0.000994931
0.000994796
0.000994897
0.000994432
0.00099464
0.000993907
0.000994174
0.000993566
0.000993702
0.000993665
0.000993534
0.00103001
0.000993862
0.001012
0.00106618
0.00104818
0.00110217
0.00108421
0.00113809
0.0011201
0.00117429
0.00115616
0.00121079
0.0011925
0.00124763
0.00122917
0.00128482
0.00126618
0.0013224
0.00130357
0.0013604
0.00134135
0.00139884
0.00137957
0.00143774
0.00141823
0.00147712
0.00145737
0.001517
0.001497
0.00155738
0.00153713
0.00159826
0.00157776
0.00163962
0.00161889
0.0016814
0.00166046
0.00172354
0.00170243
0.00176593
0.00174472
0.00180844
0.00178719
0.00185087
0.00182968
0.00189297
0.00187198
0.00193443
0.00191381
0.0019749
0.00195483
0.00201394
0.00199464
0.00205107
0.00203278
0.00208576
0.00206876
0.00211743
0.00210202
0.00214542
0.00213195
0.00216909
0.00215789
0.002188
0.00217909
0.00220209
0.00219625
0.00220379
0.0022471
0.00225518
0.0022315
0.00221788
0.00222801
0.00222918
0.00225749
0.00224343
0.0022451
0.00100946
0.000991468
0.000975547
0.000975575
0.00225984
0.00225812
0.00226798
0.00227448
0.00227746
0.00227682
0.00221282
0.0021963
0.00219549
0.002214
0.00223229
0.00224865
0.00226119
0.00226196
0.00226833
0.00227919
0.00227007
0.0022568
0.00224366
0.00220854
0.00222164
0.00222945
0.00219572
0.00219322
0.00218017
0.00219137
0.00216144
0.00217036
0.00214121
0.00215246
0.0021159
0.00212906
0.00208656
0.0021017
0.00205407
0.00207069
0.0020188
0.00203676
0.0019814
0.00200034
0.00194241
0.00196209
0.0019022
0.00192244
0.00186115
0.00188176
0.00181957
0.00184041
0.00177775
0.00179868
0.00173592
0.00175683
0.00169422
0.00171505
0.00165278
0.00167347
0.00161171
0.0016322
0.00157105
0.00159132
0.00153083
0.00155088
0.00149108
0.0015109
0.0014518
0.00147139
0.00141299
0.00143234
0.00137462
0.00139375
0.00133669
0.0013556
0.00129916
0.00131787
0.00126201
0.00128054
0.00122522
0.00124358
0.00118877
0.00120696
0.00115261
0.00117065
0.00111674
0.00113464
0.00108114
0.00109891
0.00104541
0.00106329
0.00102742
0.000973902
0.000973283
0.000973577
0.000974794
0.000974374
0.00097567
0.000975234
0.000976389
0.000976059
0.00097689
0.000976665
0.000977181
0.000977062
0.000977261
0.000977247
0.000977134
0.000977223
0.000976801
0.000976994
0.000976277
0.000976555
0.000975708
0.000976006
0.000975511
0.00102977
0.000993802
0.00101197
0.00106556
0.00104768
0.00110125
0.00108343
0.00113706
0.00111912
0.00117315
0.00115507
0.00120952
0.0011913
0.00124622
0.00122783
0.00128326
0.0012647
0.00132068
0.00130193
0.00135849
0.00133954
0.00139673
0.00137756
0.00143542
0.00141602
0.00147457
0.00145494
0.00151418
0.00149432
0.00155427
0.00153417
0.00159483
0.0015745
0.00163583
0.00161528
0.00167721
0.00165648
0.00171891
0.00169803
0.00176082
0.00173985
0.00180278
0.00178181
0.00184461
0.00182373
0.00188606
0.00186541
0.00192682
0.00190656
0.00196654
0.00194685
0.00200477
0.00198588
0.00204107
0.00202321
0.00207489
0.00205833
0.00210568
0.00209072
0.00213283
0.00211976
0.00215574
0.00214487
0.00217406
0.00216546
0.0021869
0.0021814
0.00219396
0.00219092
0.00219983
0.00219452
0.00220653
0.00219128
0.00219164
0.00226225
0.00226931
0.00224577
0.002247
0.000973401
0.0009757
0.00226848
0.00226013
0.00226175
0.00227518
0.00227343
0.00228179
0.00228659
0.00228774
0.00228518
0.00219589
0.00217908
0.00217222
0.00217666
0.00216716
0.00218337
0.00219231
0.00221535
0.00223174
0.00225104
0.00226331
0.00227428
0.00227699
0.00228383
0.00227194
0.00225629
0.00223914
0.0022184
0.00219844
0.0022473
0.00218628
0.00218542
0.00217847
0.00217249
0.00216324
0.00217508
0.00214778
0.00215573
0.00212798
0.00213861
0.00210334
0.00211617
0.00207486
0.00208955
0.00204319
0.0020594
0.00200878
0.0020263
0.00197221
0.00199074
0.00193398
0.00195328
0.0018945
0.00191438
0.00185412
0.0018744
0.00181318
0.00183371
0.00177194
0.00179259
0.00173064
0.00175129
0.00168942
0.00171001
0.00164842
0.00166889
0.00160774
0.00162804
0.00156743
0.00158754
0.00152754
0.00154744
0.00148808
0.00150776
0.00144907
0.00146852
0.00141049
0.00142973
0.00137235
0.00139137
0.00133461
0.00135343
0.00129727
0.0013159
0.00126029
0.00127873
0.00122366
0.00124193
0.00118734
0.00120546
0.00115132
0.0011693
0.00111557
0.00113341
0.00108007
0.00109779
0.00104468
0.00106239
0.00100913
0.00102685
0.000973224
0.000991305
0.000955551
0.00095508
0.000955275
0.000956323
0.000955862
0.00095725
0.000956781
0.000958114
0.000957701
0.00095879
0.000958477
0.000959268
0.000959054
0.000959549
0.000959433
0.000959632
0.000959615
0.00095952
0.0009596
0.000959216
0.000959392
0.000958712
0.00095899
0.000958069
0.000958393
0.000957653
0.000957813
0.000957823
0.00095764
0.00099364
0.000957851
0.000975816
0.00102932
0.00101156
0.0010648
0.00104702
0.00110026
0.00108251
0.00113597
0.00111809
0.00117192
0.00115391
0.00120816
0.00119001
0.00124471
0.0012264
0.00128159
0.00126311
0.00131884
0.00130017
0.00135646
0.0013376
0.00139449
0.00137543
0.00143295
0.00141367
0.00147184
0.00145234
0.00151119
0.00149146
0.00155097
0.00153103
0.00159119
0.00157103
0.00163182
0.00161146
0.00167278
0.00165226
0.00171403
0.00169338
0.00175543
0.00173473
0.00179684
0.00177616
0.00183807
0.0018175
0.00187887
0.00185855
0.00191892
0.00189902
0.00195788
0.00193858
0.00199533
0.00197684
0.00203081
0.00201336
0.0020638
0.00204766
0.00209376
0.00207921
0.00212011
0.00210743
0.00214229
0.00213178
0.00215992
0.0021517
0.0021723
0.00216688
0.00217886
0.00217637
0.00218012
0.00218024
0.00217567
0.00227618
0.00228198
0.00217951
0.00216677
0.00226255
0.00226379
0.00228007
0.00227563
0.00227727
0.00097294
0.000955124
0.000939909
0.000940005
0.00228923
0.00228752
0.00229425
0.00229728
0.00229651
0.00229202
0.00217136
0.00215722
0.00214355
0.00215768
0.00219303
0.00221037
0.00223422
0.00224573
0.00226584
0.0022774
0.00228537
0.00228652
0.00227212
0.00225484
0.00223241
0.00221352
0.00219043
0.00215339
0.00216612
0.00226413
0.00216539
0.00215036
0.00216953
0.00217172
0.00216064
0.00215935
0.00214893
0.00215753
0.00213407
0.00214182
0.00211462
0.002125
0.0020907
0.00210317
0.00206302
0.0020773
0.00203214
0.00204796
0.00199855
0.00201566
0.00196278
0.00198091
0.00192531
0.00194424
0.00188654
0.00190607
0.00184685
0.0018668
0.00180654
0.00182676
0.00176589
0.00178625
0.00172512
0.00174552
0.0016844
0.00170475
0.00164385
0.0016641
0.00160357
0.00162367
0.00156363
0.00158356
0.00152408
0.00154381
0.00148492
0.00150445
0.00144619
0.0014655
0.00140786
0.00142697
0.00136995
0.00138886
0.00133242
0.00135114
0.00129527
0.0013138
0.00125847
0.00127683
0.001222
0.0012402
0.00118584
0.00120388
0.00114995
0.00116786
0.00111433
0.00113211
0.00107895
0.00109661
0.00104378
0.00106134
0.00100851
0.00102609
0.000990773
0.000937848
0.000937222
0.000937514
0.000938827
0.000938347
0.000939785
0.000939317
0.0009406
0.000940215
0.000941237
0.00094094
0.000941693
0.000941489
0.000941964
0.000941852
0.000942051
0.000942031
0.000941953
0.000942025
0.000941675
0.000941837
0.000941215
0.000941469
0.000940592
0.000940917
0.000939986
0.000940295
0.000939855
0.000993424
0.000958065
0.00097572
0.00102871
0.00101103
0.00106388
0.00104627
0.00109922
0.00108152
0.0011348
0.00111698
0.00117062
0.00115268
0.00120672
0.00118864
0.00124311
0.00122488
0.00127982
0.00126143
0.00131688
0.00129831
0.00135431
0.00133555
0.00139212
0.00137317
0.00143034
0.00141118
0.00146897
0.0014496
0.00150802
0.00148845
0.00154749
0.00152771
0.00158736
0.00156738
0.0016276
0.00160744
0.00166814
0.00164784
0.00170892
0.00168851
0.00174981
0.00172937
0.00179066
0.00177026
0.00183128
0.00181102
0.00187142
0.00185144
0.00191077
0.00189122
0.00194899
0.00193006
0.00198567
0.00196756
0.00202035
0.0020033
0.00205255
0.00203681
0.00208173
0.00206756
0.00210735
0.00209503
0.00212888
0.00211867
0.00214589
0.00213799
0.00215783
0.00215256
0.00216427
0.00216175
0.00216481
0.00216545
0.00215902
0.00216251
0.002152
0.00215201
0.00213903
0.00212829
0.00214004
0.00228874
0.00229283
0.00227819
0.00227944
0.00093727
0.000939951
0.00228998
0.00228987
0.00229156
0.00230196
0.00230027
0.00230528
0.00230643
0.00230369
0.00229702
0.00213048
0.00212467
0.00211685
0.0021378
0.00215743
0.00218016
0.0022108
0.00222667
0.00224954
0.00226357
0.00227892
0.00228956
0.00228726
0.00227063
0.00225062
0.00222922
0.00220474
0.00217816
0.00215119
0.00211683
0.00212262
0.00210838
0.00227982
0.00214647
0.00212392
0.00214748
0.00214154
0.00215171
0.00215216
0.00214428
0.0021478
0.00213507
0.00214089
0.00212038
0.0021282
0.00210133
0.00211144
0.00207806
0.0020902
0.00205111
0.00206502
0.00202098
0.00203642
0.00198817
0.00200488
0.00195316
0.00197091
0.00191643
0.00193499
0.00187838
0.00189755
0.00183936
0.00185897
0.00179968
0.00181959
0.00175963
0.00177969
0.0017194
0.00173953
0.00167917
0.00169928
0.00163908
0.0016591
0.00159922
0.00161912
0.00155966
0.0015794
0.00152045
0.00154001
0.00148161
0.00150098
0.00144316
0.00146234
0.0014051
0.00142408
0.00136743
0.00138622
0.00133012
0.00134873
0.00129317
0.00131161
0.00125656
0.00127482
0.00122026
0.00123837
0.00118425
0.00120222
0.00114852
0.00116635
0.00111303
0.00113075
0.00107777
0.00109538
0.00104272
0.00106022
0.0010077
0.00102518
0.00097263
0.000990221
0.000937055
0.000954922
0.000919646
0.000919149
0.000919353
0.000920442
0.000919975
0.000921425
0.00092092
0.000922359
0.000921912
0.000923126
0.000922763
0.000923728
0.000923447
0.000924162
0.000923966
0.000924425
0.000924315
0.000924515
0.000924492
0.000924431
0.000924495
0.000924178
0.000924325
0.000923758
0.000923989