/*--------------------------------*- C++ -*----------------------------------*\
  =========                 |
  \\      /  F ield         | OpenFOAM: The Open Source CFD Toolbox
   \\    /   O peration     | Website:  https://openfoam.org
    \\  /    A nd           | Version:  10
     \\/     M anipulation  |
\*---------------------------------------------------------------------------*/
FoamFile
{
    format      ascii;
    class       surfaceScalarField;
    location    "40.5";
    object      phi;
}
// * * * * * * * * * * * * * * * * * * * * * * * * * * * * * * * * * * * * * //

dimensions      [0 3 -1 0 0 0 0];

internalField   nonuniform List<scalar> 
57492
(
0.000237864
-1.07089e-05
-4.41321e-05
-0.000183023
-0.000164182
0.000270021
0.000132026
-2.88338e-05
8.10812e-05
0.000324196
-0.000376443
0.00315959
0.00338648
-0.000271992
-0.00627408
-0.0086282
0.00404532
0.00774248
0.000853326
-0.000787854
-0.000412821
0.000347348
-0.00152553
0.000273526
-9.99949e-05
0.001352
0.000322725
-0.000994934
0.00157034
-0.00463298
0.0044262
-0.00136355
0.00132657
0.00425022
-0.00400645
-0.000621364
-0.000209895
0.000695225
0.000136034
-0.000123869
-0.000843065
0.00034557
0.000235486
-0.000329937
-2.94176e-05
-5.41992e-05
7.97904e-05
0.00199287
-0.00191793
-0.00071983
0.000644889
0.000281767
0.0016067
0.000104402
-0.000323989
0.000787776
0.00333586
-0.00379965
-0.000660385
0.00326171
-0.00292531
0.000135559
-0.000288841
0.000153282
-0.00166524
0.00122125
0.000579547
-0.00466172
0.000191308
0.00333759
0.00113282
0.00122653
-0.00473159
-0.00115666
-0.000133548
-0.000200253
-0.000707722
0.00104152
-0.000289782
0.000178428
-2.21947e-05
-0.00256232
0.00217306
0.000740624
-0.000351361
-0.00306257
0.000923726
-0.000423479
-0.00112795
0.000596449
0.000456951
7.45542e-05
-0.000779153
-0.000362341
1.35401e-05
-0.000367687
-0.00113527
0.00129279
0.000210162
-0.000416578
0.000116568
-6.76775e-05
0.000888754
-0.000592191
-0.000551469
0.000254906
-0.000767479
0.000611296
0.00104494
-0.00104811
-0.0020085
0.00192622
0.00113038
-0.00236732
-0.00057112
0.00189033
-0.000708002
-0.000152295
0.000860297
-0.00027154
-0.000436463
-0.00137553
0.00189357
-0.000789587
0.000203248
-0.000767772
-0.000811002
-0.000679355
0.000952882
-0.000233215
-0.00190176
0.00115078
0.000750975
-0.00432149
0.00241973
0.00490469
-0.000963505
0.000483574
-0.00442476
0.00362274
5.30233e-05
0.00122893
-0.000864399
0.00486334
-0.00496244
0.00166724
0.000355448
-0.00169997
0.001677
-0.000109754
0.00202423
-0.000758251
-0.00150563
0.000239646
0.00226682
0.000112856
0.00104797
-0.000648955
0.00127799
0.000998681
0.00140129
-0.00473652
-0.000648251
0.000565429
0.00481934
-0.00486939
-0.000314337
0.000447203
0.00120073
0.00451365
-0.00443788
-0.00127649
0.000871451
-0.0043037
-0.00281348
0.00254541
0.00255892
-0.00229085
-0.000296137
0.00322093
-0.00573828
1.49531e-05
-0.000118438
-8.11158e-07
0.000104296
-0.00032516
1.01763e-05
6.80009e-05
-0.000137538
-0.000255623
-5.7228e-05
6.79128e-06
1.14541e-05
-1.22653e-05
9.03206e-06
2.42204e-06
0.00732489
0.00378589
-0.00589327
-0.0052175
0.00233378
-0.000699166
0.00569028
-0.007871
0.0030923
0.00711249
0.00228626
-0.00637138
0.00162285
-0.00286723
0.00213536
-0.000890983
0.0023584
-0.00291608
0.00218053
-3.0125e-05
2.20148e-05
-2.59866e-06
-7.07721e-05
-3.48504e-06
-0.00022449
-2.93052e-05
-0.00294134
0.00535311
0.0033923
-0.00580407
0.00436272
-0.00494566
0.00298332
0.00475314
-0.00238335
0.0101209
-0.00150154
-0.00178371
-0.0068356
0.00222891
0.00544487
0.00244708
0.00159613
-0.00503033
0.00566311
4.69177e-05
-7.57515e-05
0.000127999
0.000818504
0.00176065
-0.000627455
-0.0019517
0.00104275
9.99497e-05
-9.655e-05
2.65807e-05
6.99693e-05
-0.000299963
0.000203413
-0.00661492
0.00342257
-0.00201456
0.00520691
-0.00574745
-0.0025051
0.00163763
-0.00262733
0.00209209
-0.00521221
0.0019546
-2.65262e-05
-0.00094537
-0.000982703
-0.000712556
0.00223051
0.000436644
-0.000835811
-8.53459e-05
0.000208601
-0.000772583
-8.97547e-05
-0.000271759
-0.00144619
-0.000242732
-6.35586e-05
1.92856e-05
0.000287005
-0.0002194
-0.000532662
0.00050933
0.00013991
1.70847e-05
-0.000376395
8.06421e-05
-4.29105e-06
0.000102534
-2.60656e-06
-0.00064188
0.000370121
8.34732e-05
-0.000725353
0.000173042
-0.000473005
0.00427355
0.00333166
-0.000178496
0.00212871
-0.00648336
-1.02761e-05
0.00226381
-0.00179742
-0.000456116
0.000291917
0.00316396
-0.00346615
0.00327693
0.00186592
-0.000523491
-0.00461935
-0.00102089
0.000482695
0.00381512
0.00401885
-0.00317382
-0.00164015
-0.00303538
0.00124636
0.00342917
-0.00118887
0.00350653
-0.00395781
0.000418823
-0.00464307
8.39101e-05
3.44062e-05
-4.69525e-06
0.00105457
-0.000621259
-0.000597496
7.78758e-05
-0.0003293
0.001306
0.000367178
-1.92813e-05
-0.000187328
0.000332013
6.83696e-05
-0.000213054
0.000992368
-0.00121586
3.61636e-05
-0.000357839
0.000831481
0.000518726
-0.00012518
9.93533e-05
-0.0061261
0.00364881
0.00589987
0.00772645
-0.0020132
-0.00821834
-0.00286348
0.00446382
-9.71461e-05
-0.000875381
-0.00016274
-0.000522885
9.16058e-06
4.78813e-05
-0.000130052
3.7315e-05
4.48559e-05
-0.000130059
0.000144542
3.33985e-05
-0.000299453
3.93421e-05
-0.000265681
-0.000313121
5.59173e-05
-0.000804789
-0.000336274
-0.000952337
-0.00102289
0.00117054
0.000804685
3.92443e-05
0.000502596
-0.00149418
-0.00133537
0.000351731
-0.00293697
0.00133169
-5.99549e-05
-0.0035055
0.000809493
-0.00024097
0.000876197
-0.00334725
0.00256395
-9.2904e-05
0.000679187
-0.00272811
0.00292512
0.0025284
-0.0101971
-0.00176822
0.00218468
0.00302422
-0.00346075
0.00206291
-0.000321626
5.1651e-07
1.65681e-05
-3.40898e-06
3.92548e-06
0.00028461
-4.13363e-05
0.00557532
-0.00338435
-0.00238641
0.000195441
0.00480126
-9.0334e-05
0.00467557
0.000140084
-0.00511179
0.00136477
0.00332219
-1.13954e-05
0.000537674
-0.00294244
0.00376953
5.51515e-06
-8.92413e-06
0.000759799
-0.00212252
-0.00285024
0.00123427
0.00308834
0.00100113
-5.64517e-05
-0.00105276
0.00010808
0.000330979
-9.73277e-05
-0.00128661
0.000278459
0.00161945
0.000231762
-0.0011874
-0.000134944
7.53305e-05
-7.01952e-06
1.03133e-05
-2.96259e-06
-3.31183e-07
1.1049e-05
-2.5502e-07
-1.78135e-05
4.75118e-05
-0.000104456
6.7993e-05
-0.00172868
0.00266707
-0.000765345
0.00292522
-0.00380164
-0.000852259
4.94932e-06
-0.00175936
0.00203287
-0.00400525
0.000243516
-0.00274482
-0.00183907
0.00057864
0.00269484
0.00291102
-0.00541455
0.00260399
0.00429731
-0.00420646
0.0022396
-0.00308514
0.00160727
-0.000761727
0.00245457
-0.00302438
0.0028094
0.00437379
0.00187482
0.00498819
-0.000244599
-0.00495533
0.00021174
0.00552446
-0.000671939
0.000135665
0.00552936
-0.00089146
6.87286e-05
-0.00470662
0.00396992
-0.00136347
0.00292291
0.00430916
-0.00139946
0.00113595
-0.00404564
0.00126395
0.00438969
-0.00134448
-0.00387777
-0.00166175
0.00414006
0.00106231
-0.00369371
-0.00185463
0.00362205
-0.00237451
-0.00324168
0.00214962
0.00346658
-0.00239145
-0.00327002
0.00328696
0.00223192
0.00304909
-0.00147189
-0.00380912
0.00302307
-0.0031826
-0.00258626
0.00260977
0.00299956
-0.00203876
0.00250159
-0.00407139
0.00361752
-0.00101802
-0.00506923
0.00105053
0.0053786
-0.0013599
0.00190855
-0.00027142
0.00101062
-0.00107586
0.000336659
-0.000113443
0.00129536
-0.00145334
-5.36392e-05
0.000308985
0.000111832
-0.00128768
-0.00200021
0.00129927
-1.21297e-07
-1.33723e-07
3.09841e-07
-4.31139e-07
-0.000122293
-0.00221478
0.00168812
-0.00196474
-8.31827e-05
0.00192563
5.77102e-05
-0.00205946
3.70096e-05
-0.000306822
0.00183521
0.000333205
-0.00186159
0.00190643
0.000509404
-0.00272266
0.00186916
0.00187248
-2.53039e-06
5.0259e-07
3.64339e-05
-4.80359e-06
2.27321e-06
-4.301e-06
-5.64995e-06
4.38e-06
-5.59581e-05
1.09398e-06
-6.74392e-06
5.47397e-06
-4.44293e-05
2.15106e-05
-0.000266863
2.24956e-05
-6.69249e-05
4.40061e-05
5.32344e-05
-5.34188e-06
-0.000173072
-1.69179e-05
7.01522e-05
-2.22597e-05
0.00141341
0.00329053
-0.00422125
0.00135021
-0.00448916
0.00455236
0.00472252
-8.17803e-05
-0.00118264
-0.00244461
0.00115847
0.00246877
-0.000710307
0.00272186
-0.0031942
0.000157575
-0.00331249
0.00418852
-0.00422077
-1.34834e-05
4.57419e-05
0.00419347
3.76096e-05
-4.25682e-05
-2.63749e-05
-0.00420658
1.21766e-05
0.00423122
-1.63949e-06
-3.61071e-05
0.00431248
6.1235e-05
-0.000142492
2.99173e-05
0.00442558
-0.000143022
0.00437214
-0.00434074
-1.48855e-06
-0.000206532
0.00463776
-5.64854e-06
0.00425553
-8.99236e-05
-0.004202
-7.75023e-05
-0.00418129
-2.23525e-05
-0.00416869
2.50146e-05
-0.00425072
6.85428e-05
-0.00417337
-0.00010372
-0.000200728
0.00484401
-5.52332e-06
0.00406122
-6.41495e-06
-2.09851e-05
-0.00416271
-2.2885e-05
-0.00419887
4.50864e-06
-2.96388e-05
-0.00439365
0.000260585
-9.72075e-07
0.00484976
-4.77496e-06
0.00406673
-6.47589e-06
-0.00434352
0.000115017
0.00485525
-7.98609e-07
-4.68972e-06
-9.32335e-07
0.00486014
-3.96357e-06
0.0040716
-5.67068e-06
0.00407648
-5.8135e-06
-2.48947e-05
-0.00435691
-1.18512e-05
-0.00435642
-1.20014e-05
-6.84392e-07
0.00486477
-3.94298e-06
0.00408084
-5.04178e-06
-2.17559e-07
-0.00434415
-1.25364e-05
-0.00434347
-1.31637e-05
-6.89517e-07
0.00486872
-3.2553e-06
0.00408539
-5.23856e-06
-5.20751e-08
-0.0043304
-1.37036e-05
-0.00432989
-1.36367e-05
-1.7869e-07
0.00487219
-3.29495e-06
0.0040897
-4.492e-06
-1.35625e-07
-0.00431584
-1.44228e-05
-0.00431514
-1.48773e-05
3.1767e-07
0.00487451
-2.63962e-06
0.00409475
-4.73489e-06
2.86454e-08
-0.00430025
-1.56204e-05
-0.00429964
-1.5471e-05
1.82876e-06
0.00487541
-2.72947e-06
0.00410059
-4.01108e-06
9.89432e-06
-0.00429374
-1.64009e-05
-0.00427296
-1.6788e-05
4.33515e-06
0.00487318
-2.101e-06
0.00410922
-4.2902e-06
2.7898e-05
-0.00415606
-0.000165579
-0.00418344
-6.16209e-05
9.87149e-06
0.00486554
-2.23695e-06
0.00410367
1.54195e-05
2.74476e-05
-0.00415863
-2.4875e-05
-0.00413497
-2.10258e-05
2.03317e-05
0.00484684
-1.63085e-06
0.00407726
4.674e-05
5.88098e-05
-0.00399395
-0.000223494
-0.00399779
-7.83732e-05
0.000206941
0.0046417
-1.79787e-06
0.00420358
8.06185e-05
6.7165e-05
-0.00395696
-0.000104154
-0.00393533
4.71246e-06
0.000182765
0.00430169
0.000157249
0.00427506
0.000111289
0.000106478
-0.000170798
-0.00389264
-0.00390004
7.11867e-05
1.19802e-05
4.03241e-05
0.00424938
0.00424926
3.77767e-05
-0.00397354
0.00405513
-0.000185742
-0.00397603
-0.000168303
0.000180853
-0.00017875
-0.00389474
6.93601e-05
-0.00378855
-0.00398552
0.0040372
-7.65519e-05
-0.000153886
-0.00390548
0.00392074
-3.16647e-05
-3.38577e-05
-0.003935
0.00394843
-2.78588e-05
-2.98792e-05
-0.00396098
0.0039728
-2.43575e-05
-2.62445e-05
-0.00398386
0.00426564
-2.11988e-05
-2.29152e-05
-0.00426275
0.00421283
6.20895e-05
-1.99867e-05
-0.00435647
0.0043298
-1.58993e-05
-9.78947e-05
-0.00419775
0.00414258
-8.73253e-05
9.59435e-05
-0.00404991
0.00405598
-1.17176e-05
-5.03467e-05
-0.0040616
0.00406687
-1.00477e-05
-1.11415e-05
-0.00407177
0.00407639
-8.57774e-06
-9.59209e-06
-0.00408068
0.00408471
-7.29415e-06
-8.23229e-06
-0.00408847
0.00409201
-6.17705e-06
-7.04906e-06
-0.0040953
0.0040984
-5.20319e-06
-6.01989e-06
-0.00410128
0.004104
-4.34864e-06
-5.12187e-06
-0.00408228
0.00418047
5.90605e-05
1.99205e-05
0.00417199
4.88063e-05
-2.6392e-05
8.12139e-05
0.00419456
-6.23933e-06
0.00422911
0.00419447
-0.00412312
9.27803e-06
-0.00423744
0.00423039
4.48254e-05
6.83133e-05
0.00412029
-0.00409839
-6.4856e-06
4.39056e-05
0.0040953
-0.00409198
-7.33492e-06
-7.37245e-06
0.00408846
-0.00408466
-8.28878e-06
-8.25536e-06
0.00408064
-0.0040763
-9.38081e-06
-9.26073e-06
0.0040717
-0.00406673
-1.0637e-05
-1.0416e-05
0.00406146
-0.00405578
-1.20893e-05
-1.17485e-05
0.00413241
-0.00412016
-1.37455e-05
-1.32945e-05
0.00418263
-0.00413027
-7.4713e-05
-1.50299e-05
0.00409574
-0.00406094
3.37415e-05
-9.51479e-06
0.00410316
-0.00412049
2.18295e-05
-6.14934e-05
0.00398352
-0.00397244
-2.30856e-05
-2.19457e-05
0.00396068
-0.00394805
-2.62675e-05
-2.49249e-05
0.00393466
-0.0039203
-2.98279e-05
-2.8267e-05
0.00390509
-0.00393292
-3.37936e-05
-3.19981e-05
0.0039178
-0.00395799
-3.81905e-05
-3.61409e-05
0.00391251
-0.00383648
-4.84414e-06
-4.07657e-05
-0.00377508
7.96313e-06
-0.00398527
-0.000169513
0.00418676
6.64424e-05
-4.06701e-06
0.00422822
0.000118495
-0.000126437
-0.00378061
6.83308e-05
-0.00372492
0.000152985
-0.000166894
-0.00397136
-0.00386819
-0.00395498
0.00390872
-0.000139478
0.00398113
-0.00399386
-0.000156783
-0.000142151
-0.00387575
0.00389263
-9.34411e-05
-0.000120913
-0.00390855
0.0039236
-4.67107e-05
-4.9776e-05
-0.00393765
0.00395089
-4.11001e-05
-4.39301e-05
-0.00396325
0.00397489
-3.59966e-05
-3.86e-05
-0.00398574
0.00399595
-3.14039e-05
-3.3774e-05
-0.00400544
0.00409487
-2.7336e-05
-2.9477e-05
-0.00402264
0.00403046
-2.37167e-05
-2.56725e-05
-0.0041487
0.00408192
-2.0546e-05
-2.22933e-05
-0.00405088
0.00405687
-1.77077e-05
-1.93059e-05
-0.00406242
0.00406764
-1.5266e-05
-1.66976e-05
-0.00407249
0.00407705
-1.314e-05
-1.44394e-05
-0.00408129
0.00408528
-1.12875e-05
-1.24723e-05
-0.004089
0.0040925
-9.67609e-06
-1.07611e-05
-0.00409575
0.00409882
-8.27281e-06
-9.27343e-06
-0.00410167
0.00410437
-7.04151e-06
-7.97677e-06
-0.00410657
0.0041419
2.37274e-05
1.77196e-05
8.85794e-06
-1.94293e-05
0.00420513
-2.85055e-07
0.0041959
-0.00413146
0.00417421
2.36939e-05
5.92439e-05
0.00417488
-0.00417389
4.38429e-05
0.00414306
2.77482e-05
1.5528e-07
4.49999e-05
0.00418306
0.00420984
0.00417245
-0.0041398
-2.3368e-05
6.68649e-05
0.0041017
-0.00409881
-9.38031e-06
5.80819e-06
0.00409575
-0.00409246
-1.06289e-05
-1.043e-05
0.00408897
-0.00408521
-1.20471e-05
-1.17405e-05
0.00408123
-0.00407694
-1.36749e-05
-1.32417e-05
0.00407239
-0.00406748
-1.55463e-05
-1.49679e-05
0.00406227
-0.00405666
-1.76975e-05
-1.69542e-05
0.00405072
-0.00404431
-2.01598e-05
-1.92381e-05
0.00403749
-0.00408921
-2.29875e-05
-2.18463e-05
0.00407389
-0.00401396
-2.61915e-05
-2.48375e-05
0.00404719
-0.00399548
-2.98823e-05
-2.82604e-05
0.00398529
-0.00397435
-3.40342e-05
-3.21316e-05
0.00396274
-0.00395027
-3.87311e-05
-3.65327e-05
0.00393706
-0.0039229
-4.39932e-05
-4.14773e-05
0.00390789
-0.00389184
-4.98513e-05
-4.70018e-05
0.00387485
-0.00385671
-5.63254e-05
-5.31302e-05
0.00383759
-0.00377903
-6.34023e-05
-5.98868e-05
0.00373683
-0.00366485
-3.64576e-06
-3.42422e-05
-0.00400004
-0.000160721
5.04759e-05
-0.000130471
-0.00364492
-0.00361982
5.44588e-06
-0.000209607
-0.00370147
2.28484e-05
0.00415108
0.00415109
3.69707e-05
-0.000104867
0.000104185
-0.00397068
-0.000125277
-0.00397963
2.18195e-05
-0.000125019
-0.00354172
-2.50161e-05
-0.00357299
-0.00397362
0.00418512
-0.00417106
9.63206e-06
0.00414395
6.40172e-05
7.00855e-05
-2.94924e-05
0.00414247
4.29952e-05
0.00417818
-0.0039443
0.00400967
-0.000190641
-0.000182829
0.00013757
-0.00393437
0.00401101
-3.70989e-06
0.000226644
-0.00423394
-0.000116124
-0.00402621
0.00401416
-0.000144729
-0.000177267
-0.00398078
0.00393428
-9.2979e-05
-0.000108771
-0.00392146
0.00389753
-6.9511e-05
-0.000108093
-0.00391311
0.0039278
-6.14078e-05
-6.5353e-05
-0.00394153
0.00395447
-5.40373e-05
-5.76562e-05
-0.00396654
0.00397791
-4.73707e-05
-5.06731e-05
-0.00398852
0.00399851
-4.13891e-05
-4.43812e-05
-0.0040078
0.00401653
-3.60725e-05
-3.87681e-05
-0.00402466
0.00403231
-3.13669e-05
-3.37962e-05
-0.00403941
0.0040461
-2.72279e-05
-2.93996e-05
-0.00405233
0.00405819
-2.35749e-05
-2.55361e-05
-0.00406364
0.00406877
-2.03935e-05
-2.21489e-05
-0.00407354
0.00407802
-1.7625e-05
-1.92032e-05
-0.00408219
0.00408612
-1.52152e-05
-1.6641e-05
-0.00408977
0.00409321
-1.3119e-05
-1.44124e-05
-0.00409641
0.00409944
-1.12949e-05
-1.24754e-05
-0.00410225
0.00410491
-9.69893e-06
-1.0789e-05
-0.0041187
0.00412784
1.45934e-05
3.92265e-06
1.60231e-05
2.64632e-05
-1.06255e-05
0.00418929
-4.17534e-05
8.27931e-06
0.00418455
0.00418061
0.00416972
0.0041636
-0.00415724
3.74805e-05
-0.00415942
0.00413842
5.79791e-05
3.19239e-05
0.00410744
-0.00412001
-1.07955e-05
1.70622e-05
0.00410228
-0.00409942
-1.2235e-05
-1.19244e-05
0.00409641
-0.00409316
-1.38743e-05
-1.34419e-05
0.00408973
-0.00408603
-1.57481e-05
-1.51733e-05
0.00408211
-0.00407788
-1.79006e-05
-1.71604e-05
0.00407341
-0.00406858
-2.03729e-05
-1.94451e-05
0.00406347
-0.00405795
-2.32104e-05
-2.20697e-05
0.00405211
-0.00404581
-2.64626e-05
-2.50829e-05
0.00403912
-0.00403191
-3.0189e-05
-2.85355e-05
0.00402427
-0.00401602
-3.44353e-05
-3.24854e-05
0.00400729
-0.00399789
-3.92791e-05
-3.69969e-05
0.00398791
-0.00397719
-4.47574e-05
-4.21117e-05
0.00396582
-0.00395361
-5.09345e-05
-4.7901e-05
0.00394069
-0.00392683
-5.7852e-05
-5.44063e-05
0.00391216
-0.00389647
-6.55437e-05
-6.16702e-05
0.00387988
-0.00386217
-7.40293e-05
-6.97179e-05
0.0038435
-0.0038236
-8.33016e-05
-7.85626e-05
0.00376965
-0.00367989
-9.34035e-05
-8.81906e-05
0.00361899
-0.0036053
-3.87041e-05
-5.54548e-05
-1.49595e-05
-7.22055e-06
-0.00355081
-0.0035648
-5.54633e-05
0.000137225
-0.00397033
-8.80612e-05
-0.00373843
3.54892e-05
0.00411674
0.00415426
2.71539e-05
0.000186457
-0.00412454
3.55518e-05
-0.00358449
0.000884615
-0.0032849
0.00426944
2.43295e-05
-7.03758e-05
-0.00351875
-3.44516e-05
-0.00349203
-0.00260343
0.00398868
0.000487235
-0.00198782
-0.000282402
-0.00392445
-0.00380911
0.00399297
4.2779e-05
0.00021507
-3.54993e-05
-0.00397419
0.00395772
-0.000174164
-9.73469e-05
-0.00394469
0.00390835
-0.000108391
-0.000164236
-0.00390175
0.0039053
-9.65254e-05
-0.000102175
-0.00388802
0.00390408
-8.55727e-05
-9.08082e-05
-0.00391912
0.00393332
-7.56095e-05
-8.03959e-05
-0.0039466
0.00395913
-6.65638e-05
-7.0935e-05
-0.00397083
0.00398185
-5.83983e-05
-6.23713e-05
-0.00399214
0.00400183
-5.10799e-05
-5.46692e-05
-0.00401086
0.00401936
-4.45703e-05
-4.77958e-05
-0.00402726
0.00403471
-3.88115e-05
-4.17026e-05
-0.00404163
0.00404815
-3.3743e-05
-3.6326e-05
-0.00405422
0.00405993
-2.929e-05
-3.16029e-05
-0.00406525
0.00407025
-2.53988e-05
-2.74647e-05
-0.00407491
0.00407929
-2.2008e-05
-2.38565e-05
-0.00408336
0.00408721
-1.90566e-05
-2.07163e-05
-0.00409078
0.00409415
-1.6489e-05
-1.79851e-05
-0.00409728
0.00410024
-1.4255e-05
-1.56106e-05
-0.004103
0.00410561
-1.23057e-05
-1.35445e-05
-0.00412127
0.00414646
-1.05982e-05
-1.17374e-05
-0.00413848
0.00413782
1.02923e-05
2.39995e-05
-0.00415583
0.00415265
3.86675e-05
4.60091e-05
5.43107e-05
-3.01557e-05
0.0041604
-3.06365e-05
1.3597e-06
0.00418193
0.00414041
3.99496e-05
1.58471e-05
0.0041335
0.00419041
-2.61224e-05
1.57364e-05
0.00415286
0.00415944
-1.89455e-05
-3.38845e-06
0.00417659
0.00417497
0.0041771
-0.00416072
4.1595e-05
-0.00424314
0.00413164
0.000108113
-3.88845e-05
0.00414865
-0.00413802
2.68542e-05
1.98527e-05
0.00410808
-0.00410562
-1.32598e-05
-1.28775e-05
0.00410302
-0.00410022
-1.50317e-05
-1.45225e-05
0.00409727
-0.00409409
-1.70549e-05
-1.63941e-05
0.00409073
-0.0040871
-1.93731e-05
-1.85365e-05
0.00408327
-0.00407913
-2.20357e-05
-2.09968e-05
0.00407475
-0.00407003
-2.50919e-05
-2.38239e-05
0.00406503
-0.00405965
-2.85982e-05
-2.70697e-05
0.00405393
-0.00404778
-3.2617e-05
-3.07946e-05
0.00404125
-0.00403423
-3.72164e-05
-3.50628e-05
0.00402677
-0.00401874
-4.24637e-05
-3.99427e-05
0.00401023
-0.00400108
-4.84321e-05
-4.55075e-05
0.00399137
-0.00398094
-5.51843e-05
-5.1819e-05
0.00396989
-0.00395804
-6.27876e-05
-5.89495e-05
0.00394549
-0.00393205
-7.12941e-05
-6.69561e-05
0.00391783
-0.00390263
-8.07418e-05
-7.58862e-05
0.00388658
-0.00386946
-9.11501e-05
-8.5768e-05
0.00385141
-0.0038322
-0.000102515
-9.66124e-05
0.00381198
-0.00379056
-0.00011483
-0.000108406
0.00372489
-0.00363551
-0.000128083
-0.000121125
0.00361786
-0.00358144
-0.000106791
-7.31138e-05
-6.81726e-05
4.63677e-05
-0.00349695
-0.00353232
-0.000117294
0.000132662
-0.00391654
-2.16595e-05
-0.00368122
0.000336495
-0.00357642
3.79478e-05
-0.00365689
0.00415488
-0.00415935
4.31368e-05
0.00414169
1.45488e-05
4.53702e-05
-3.02326e-05
0.00416145
5.68594e-06
0.00417133
0.000353246
-0.00312874
7.05749e-05
-0.00351623
-0.00176917
-0.00208024
-0.00309002
0.00358474
-7.49018e-06
-4.91657e-05
4.50895e-05
-0.00349287
-9.60672e-05
-0.00348542
-0.00284193
-0.000530486
-0.00381345
-0.00376546
0.00383642
-2.81781e-05
3.4351e-05
-0.0038886
0.00385658
-0.000142144
-0.00014953
-0.00382669
0.00384566
-0.000127362
-0.00013434
-0.00386361
0.0038807
-0.000113613
-0.00012013
-0.00389681
0.00391211
-0.00010087
-0.000106924
-0.00392647
0.00394006
-8.91979e-05
-9.47584e-05
-0.00395279
0.00396481
-7.85844e-05
-8.36608e-05
-0.00397605
0.00398665
-6.90033e-05
-7.36101e-05
-0.00399656
0.00400589
-6.04159e-05
-6.45715e-05
-0.0040146
0.0040228
-5.27721e-05
-5.65017e-05
-0.00403044
0.00403764
-4.60088e-05
-4.93434e-05
-0.00404434
0.00405065
-4.00532e-05
-4.30273e-05
-0.00405652
0.00406206
-3.48266e-05
-3.74782e-05
-0.00406721
0.00407207
-3.02546e-05
-3.2618e-05
-0.00407659
0.00408085
-2.62661e-05
-2.83743e-05
-0.00408481
0.00408854
-2.27924e-05
-2.46777e-05
-0.00409202
0.0040953
-1.97696e-05
-2.14611e-05
-0.00409835
0.00410124
-1.71392e-05
-1.86642e-05
-0.00410392
0.00410646
-1.48471e-05
-1.62305e-05
-0.00410884
0.00411108
-1.28425e-05
-1.41076e-05
-0.00414733
0.00413486
2.27604e-05
-1.22491e-05
2.15234e-05
4.10844e-05
-6.90329e-05
0.00418835
-1.37337e-05
2.56036e-05
0.00417006
0.00416777
-5.86764e-07
-1.04002e-06
0.00413512
0.00412079
-3.76981e-05
5.58066e-05
0.00413475
0.0041207
0.00420055
0.00418005
-0.00416606
2.76097e-05
-0.00412974
0.00417283
6.50275e-05
1.14168e-05
0.0041518
-0.00411112
-1.38277e-05
5.59237e-06
0.00410888
-0.00410647
-1.56643e-05
-1.51164e-05
0.00410394
-0.00410121
-1.7758e-05
-1.70562e-05
0.00409834
-0.00409524
-2.01548e-05
-1.92724e-05
0.00409196
-0.00408843
-2.29034e-05
-2.18135e-05
0.00408469
-0.00408067
-2.60594e-05
-2.47316e-05
0.00407641
-0.00407182
-2.96794e-05
-2.8083e-05
0.00406697
-0.00406173
-3.38313e-05
-3.19284e-05
0.00405619
-0.00405022
-3.85885e-05
-3.634e-05
0.00404389
-0.00403708
-4.40277e-05
-4.13919e-05
0.00402985
-0.00402209
-5.02311e-05
-4.7164e-05
0.00401386
-0.00400501
-5.72781e-05
-5.37389e-05
0.00399564
-0.00398558
-6.52444e-05
-6.11914e-05
0.00397492
-0.00396351
-7.42057e-05
-6.96015e-05
0.00395143
-0.0039385
-8.42191e-05
-7.90345e-05
0.00392485
-0.00391026
-9.53264e-05
-8.95419e-05
0.00389488
-0.00387848
-0.000107546
-0.000101154
0.00386122
-0.00384287
-0.000120865
-0.000113877
0.00382359
-0.00380317
-0.000135246
-0.000127684
0.00378178
-0.00375926
-0.000150612
-0.000142514
0.00367411
-0.00361415
-0.000166756
-0.000158259
0.00355668
-0.00350611
-0.000146641
-0.000174756
-6.70761e-05
7.20733e-05
-0.00349042
-0.00346392
-0.000109266
0.000102642
-0.00368269
8.42229e-06
-0.00365169
4.32294e-05
0.00412406
0.00415865
1.98641e-05
0.000211892
-0.00343506
-0.000360855
-0.00413097
5.3359e-06
-0.00349493
4.0355e-05
-0.00362667
7.43047e-05
-0.00354545
-0.00405985
-0.000862323
0.000283911
-0.000580734
-0.00376303
-0.000195258
-0.0036518
4.99197e-05
-0.00347072
-0.000110229
2.90466e-05
-0.00340923
-9.7764e-05
-0.00347639
-0.00370238
-0.00339978
0.00357565
-0.000183361
0.00355387
-0.00387895
-0.00053724
-0.000376403
-0.00370869
0.0037829
-0.000102387
-9.86878e-05
-0.00380301
0.00382243
-0.000161563
-0.000169643
-0.003841
0.00385879
-0.00014516
-0.000152904
-0.00387567
0.00389177
-0.000129709
-0.000137007
-0.00390697
0.00392142
-0.000115323
-0.000122124
-0.00393502
0.0039479
-0.000102085
-0.000108354
-0.00395999
0.00397143
-9.0021e-05
-9.57503e-05
-0.00398214
0.00399225
-7.91195e-05
-8.43174e-05
-0.00400171
0.00401064
-6.93413e-05
-7.40281e-05
-0.00401897
0.00402683
-6.06309e-05
-6.48342e-05
-0.00403416
0.00404106
-5.29184e-05
-5.66725e-05
-0.0040475
0.00405357
-4.61223e-05
-4.94666e-05
-0.00405923
0.00406456
-4.01575e-05
-4.31322e-05
-0.00406952
0.00407421
-3.4937e-05
-3.75834e-05
-0.00407857
0.00408268
-3.0378e-05
-3.27341e-05
-0.00408651
0.00409012
-2.64047e-05
-2.85058e-05
-0.00409348
0.00409666
-2.29456e-05
-2.48244e-05
-0.00409962
0.00410241
-1.99347e-05
-2.16223e-05
-0.00410501
0.00410748
-1.73104e-05
-1.88344e-05
-0.00410978
0.00411195
-1.5021e-05
-1.64053e-05
-0.00411399
0.00414976
-1.30137e-05
-1.42822e-05
-0.00415447
0.00416565
3.19576e-05
1.68173e-05
-0.00411148
0.00413033
2.43767e-05
6.87136e-05
6.41382e-05
-4.72059e-05
0.00415313
-8.19597e-06
-1.66762e-05
0.00415521
0.00418
4.87692e-05
1.99785e-06
0.00413758
0.00416933
-4.82013e-07
-1.0458e-06
0.00413665
0.0041223
2.56586e-06
-4.08248e-06
0.00413627
0.00412222
-2.53189e-05
1.79095e-05
0.00416886
0.00417115
-9.70691e-06
1.38947e-05
0.00415446
0.00417953
0.00418737
-0.0041387
1.63528e-05
-0.00416929
0.00414621
3.69765e-05
3.79463e-05
0.00414561
-0.00413498
1.69798e-05
1.83312e-05
0.00411405
-0.00411199
-1.58891e-05
-1.53367e-05
0.00410982
-0.00410749
-1.79955e-05
-1.72871e-05
0.00410503
-0.00410239
-2.04021e-05
-1.95132e-05
0.0040996
-0.00409659
-2.31597e-05
-2.20633e-05
0.00409342
-0.00409
-2.63224e-05
-2.49884e-05
0.00408638
-0.00408249
-2.99516e-05
-2.83467e-05
0.00407837
-0.00407394
-3.41128e-05
-3.22007e-05
0.00406925
-0.0040642
-3.88826e-05
-3.66212e-05
0.00405885
-0.00405309
-4.43438e-05
-4.16889e-05
0.004047
-0.00404044
-5.05833e-05
-4.74876e-05
0.0040335
-0.00402603
-5.76933e-05
-5.41077e-05
0.00401813
-0.00400965
-6.5761e-05
-6.16406e-05
0.00400067
-0.00399104
-7.48734e-05
-7.01708e-05
0.00398086
-0.00396995
-8.51113e-05
-7.97862e-05
0.00395843
-0.00394611
-9.6537e-05
-9.05585e-05
0.00393311
-0.00391924
-0.000109193
-0.000102541
0.00390463
-0.00388909
-0.000123093
-0.000115764
0.00387274
-0.00385539
-0.000138214
-0.000130226
0.00383719
-0.00381794
-0.000154494
-0.000145883
0.00379781
-0.0037766
-0.000171818
-0.000162649
0.00375449
-0.00373126
-0.000189985
-0.000180374
0.00370715
-0.00364499
-0.000208804
-0.00019886
0.00358393
-0.00349934
-0.000182349
-0.000170328
-0.000155936
9.74466e-05
-0.0034179
-0.0034736
-0.000181674
7.37769e-05
-0.00354457
-0.00389717
-0.000562513
6.82007e-05
-0.00349793
0.00418404
-0.00419321
3.35466e-05
0.0041816
-1.42355e-05
3.64731e-05
-3.13166e-05
0.00414931
4.63954e-05
0.00413629
9.53223e-06
-0.00362087
4.27689e-05
-0.00359514
-2.9977e-05
-0.00366022
7.78802e-05
-0.00357341
0.000114856
-0.00355653
0.000153424
-0.00346521
-0.000147317
0.000149265
-0.00341985
-0.000211946
-0.00340897
-0.00361908
-0.00382947
0.0036775
-0.000385275
-0.000496043
0.000590677
-0.0039918
0.00396174
-0.00408928
-0.000368495
-0.000430242
-0.00356439
0.00364708
-0.000266043
-0.000263296
-0.00374037
0.00380211
-0.000164125
-0.000191985
-0.00382103
0.00383923
-0.000179758
-0.000188565
-0.00385657
0.0038732
-0.000161788
-0.00017025
-0.00388898
0.00390404
-0.000144769
-0.000152781
-0.00391827
0.00393182
-0.000128874
-0.00013636
-0.00394459
0.00395671
-0.000114207
-0.000121122
-0.0039681
0.00397889
-0.000100812
-0.00010714
-0.00398901
0.00399858
-8.86912e-05
-9.44347e-05
-0.00400754
0.00401601
-7.78078e-05
-8.29875e-05
-0.00402392
0.0040314
-6.81037e-05
-7.27482e-05
-0.00403837
0.00404496
-5.95036e-05
-6.36502e-05
-0.0040511
0.0040569
-5.1919e-05
-5.56101e-05
-0.0040623
0.0040674
-4.52574e-05
-4.85371e-05
-0.00407216
0.00407664
-3.94234e-05
-4.23372e-05
-0.00408082
0.00408477
-3.43247e-05
-3.69148e-05
-0.00408845
0.00409192
-2.98772e-05
-3.21831e-05
-0.00409516
0.00409821
-2.60032e-05
-2.80601e-05
-0.00410106
0.00410376
-2.26284e-05
-2.44714e-05
-0.00410627
0.00410864
-1.96862e-05
-2.13451e-05
-0.00411086
0.00411296
-1.71209e-05
-1.86211e-05
-0.00411492
0.00411678
-1.4875e-05
-1.62441e-05
-0.00414776
0.00416421
1.55101e-05
-1.41603e-05
3.97075e-05
1.49618e-05
-4.19424e-05
0.00418011
-2.57093e-05
-4.70364e-06
0.00418562
0.00416926
-3.22668e-06
1.81046e-06
0.004139
0.00412416
-3.84775e-07
-1.0528e-06
0.00413809
0.00412373
2.48415e-06
-3.91251e-06
0.00413769
0.00412366
-4.32887e-05
2.97892e-05
0.00418236
0.00412394
0.004178
0.00418205
-0.00418324
1.7548e-05
-0.00417428
0.00415715
5.4106e-05
4.57172e-05
0.00414963
-0.00411684
-1.58095e-05
-1.52776e-05
0.00411499
-0.004113
-1.78798e-05
-1.71904e-05
0.00411091
-0.00410866
-2.02447e-05
-1.93797e-05
0.00410629
-0.00410374
-2.29525e-05
-2.18837e-05
0.00410105
-0.00409815
-2.60558e-05
-2.47544e-05
0.00409509
-0.0040918
-2.96139e-05
-2.8047e-05
0.00408832
-0.00408458
-3.3694e-05
-3.18246e-05
0.00408062
-0.00407637
-3.83697e-05
-3.61573e-05
0.00407186
-0.00406702
-4.37264e-05
-4.11246e-05
0.00406189
-0.00405638
-4.98531e-05
-4.68139e-05
0.00405055
-0.00404429
-5.68465e-05
-5.33173e-05
0.00403766
-0.00403055
-6.48076e-05
-6.07352e-05
0.00402302
-0.00401495
-7.38318e-05
-6.91661e-05
0.00400642
-0.00399728
-8.40127e-05
-7.87042e-05
0.00398762
-0.0039773
-9.54368e-05
-8.94415e-05
0.0039664
-0.00395477
-0.000108169
-0.000101455
0.00394251
-0.00392945
-0.00012225
-0.0001148
0.00391572
-0.00390112
-0.00013769
-0.000129502
0.00388579
-0.00386955
-0.000154453
-0.000145551
0.00385255
-0.00383459
-0.000172457
-0.00016289
0.00381582
-0.00379608
-0.000191562
-0.000181411
0.00377551
-0.00375394
-0.000211559
-0.000200941
0.00373155
-0.00370815
-0.0002322
-0.000221251
0.00363645
-0.00356564
-0.000253162
-0.000242025
0.00352246
-0.0035042
-0.000230204
-0.000224855
-0.000354571
0.000134634
-0.00343186
-0.00352693
-0.000182315
0.000186242
-0.0034129
-0.00342776
-0.000258761
2.13924e-05
-0.00349776
4.0032e-05
0.00413687
0.00419319
1.03557e-05
0.000303884
-0.00402965
-0.000363521
1.07874e-05
-0.00358889
0.000385394
-0.00407331
1.64758e-05
-0.00354438
4.50351e-05
-0.00356229
4.14848e-05
-0.00356707
8.14559e-05
-0.00354001
0.000119871
-0.00352298
0.00015984
-0.00347579
0.000164486
-0.00339809
-0.000220106
0.000190863
-0.00338366
-0.000242396
-0.00340547
-0.0035869
-0.00406471
0.00392769
-0.000231472
-0.000464142
-0.00394026
0.000374759
0.00414701
-0.00401795
-0.000593205
-0.000281217
-0.00384087
0.00377953
-0.000323931
-0.000343428
-0.0037637
0.00373516
-0.000237502
-0.000247462
-0.00376975
0.00382258
-0.000216953
-0.000226579
-0.00384023
0.00385717
-0.000196695
-0.000206222
-0.00387328
0.00388871
-0.000177218
-0.000186362
-0.00390335
0.00391734
-0.000158754
-0.000167421
-0.00393057
0.00394317
-0.00014148
-0.000149589
-0.00395507
0.00396637
-0.000125513
-0.000133015
-0.00397701
0.00398711
-0.000110907
-0.000117779
-0.00399659
0.00400557
-9.76722e-05
-0.000103914
-0.00401399
0.00402195
-8.57743e-05
-9.14058e-05
-0.00402941
0.00403646
-7.51542e-05
-8.0205e-05
-0.00404305
0.00404928