/*--------------------------------*- C++ -*----------------------------------*\
  =========                 |
  \\      /  F ield         | OpenFOAM: The Open Source CFD Toolbox
   \\    /   O peration     | Website:  https://openfoam.org
    \\  /    A nd           | Version:  10
     \\/     M anipulation  |
\*---------------------------------------------------------------------------*/
FoamFile
{
    format      ascii;
    class       volScalarField;
    location    "37";
    object      p;
}
// * * * * * * * * * * * * * * * * * * * * * * * * * * * * * * * * * * * * * //

dimensions      [0 2 -2 0 0 0 0];

internalField   nonuniform List<scalar> 
28942
(
-3.35034
-3.37709
-2.91872
0.871913
0.920703
-0.0702153
-0.0589277
-0.06939
-0.323817
-0.266601
-5.66605
-5.71095
-5.65727
-5.67839
-0.0212126
-0.0130143
2.54991
2.66829
-0.922968
0.171711
1.99439
1.99196
-5.79612
-5.74772
-6.0613
-5.63821
3.78401
4.10546
-1.50614
-1.50371
-0.125677
-0.123562
0.0327064
-0.0281322
1.33784
1.66741
3.07669
3.73424
-0.0870895
2.92103
1.68018
1.63969
0.090033
0.11797
0.167521
-0.0541061
-0.0478851
-0.0406602
-0.0406916
-0.0367766
-0.0227344
0.0562703
0.0496018
-0.309073
-0.240726
-4.14675
-3.41158
-5.73818
-5.65129
-5.67258
-5.72358
-5.74346
-5.7648
-2.21733
-2.74438
-1.64652
-1.25866
2.03909
1.85957
-3.27387
-3.36872
-3.46522
1.84758
1.82758
1.78165
-1.51112
-1.52035
-1.00312
-2.80677
-3.3392
-2.50891
-3.46436
-3.50393
-3.65261
-0.118398
0.423736
0.911981
0.815702
0.387932
0.555756
0.789445
1.05916
-5.61333
-5.32337
-6.03442
-6.0641
-6.03487
0.978852
1.18072
-3.7699
0.964748
0.979682
1.03541
0.968191
0.113389
0.139541
0.105592
1.12282
1.16122
1.1744
-5.74629
-5.76239
-3.70861
-3.73575
-3.31197
4.98997
4.63915
4.51749
4.81488
0.0625601
0.95115
0.573486
-1.0199
-1.26447
5.18273
5.28199
5.08156
-1.16621
-0.817705
-0.0420973
-0.0366542
-0.0468694
1.61791
2.44111
1.36084
1.3259
1.52906
-0.0469874
1.06562
2.45892
-6.97954
-6.79318
-0.888971
0.242743
0.23891
-2.90208
-3.00334
-2.69003
-6.58008
1.46427
1.2858
0.0593797
-0.0771365
-0.0911517
-0.0906038
-0.0833672
1.92596
1.26882
-5.05136
-4.17314
-4.06426
-3.18746
-2.79933
-0.0570047
-5.11175
-4.8945
2.1311
2.22743
2.457
2.35175
1.9852
0.612853
0.60332
-0.088907
-0.126226
1.00382
0.937024
1.03924
1.09786
1.08186
1.12515
1.19496
1.39487
1.2864
1.18136
1.30315
1.51719
1.85944
1.94373
-2.68217
-1.79747
-3.17988
-0.0535171
-0.0363963
-4.53796
-4.01021
-0.0319503
-0.0254918
-0.028125
-0.0372177
-1.32249
-1.35961
-1.29835
-5.84329
-5.96771
-6.30829
-5.73426
-5.72745
-5.73627
-5.83726
-6.10738
-5.92506
4.93161
4.77228
4.97624
0.171493
0.214438
0.202354
2.38715
2.29319
2.35223
-3.49919
-3.20735
-3.76505
-2.90981
-2.62388
-2.36393
-2.37756
-2.13406
-2.14243
-2.64355
-2.9397
-3.24841
-3.55518
-3.83325
-1.94247
-1.93961
-3.98764
-4.06988
-4.15483
-1.79014
-1.77246
-4.24389
-1.67079
-1.58297
-1.64404
-1.54906
-4.24166
-4.3361
-1.52482
-1.48357
-4.24365
-4.33902
-1.49479
-1.44588
-4.16356
-4.2555
-1.49158
-1.43425
-4.004
-4.09016
-1.51427
-1.448
-3.77951
-3.85715
-1.56157
-1.48553
-3.50672
-3.57476
-1.6329
-1.54598
-3.20763
-3.26418
-1.7267
-1.62688
-2.8989
-2.94391
-1.84169
-1.72807
-2.60995
-2.63976
-1.97134
-1.8477
-2.34429
-2.3624
-2.11645
-1.97705
-2.11566
-2.12167
-2.26468
-2.11121
-2.27351
-2.06003
-1.91977
-1.91793
-2.78445
-2.51597
-3.35276
-3.06658
-3.82829
-3.61324
-4.05805
-3.98103
-3.96669
-4.05284
-3.60984
-3.81781
-3.09043
-3.35913
-2.54545
-2.81385
-2.08369
-2.30036
-1.76362
-1.90535
-1.57755
-1.65515
-1.50958
-1.52954
-1.55005
-1.51674
-1.69323
-1.60902
-1.9309
-1.80155
-2.22991
-2.07506
-2.38166
-2.39113
-2.2327
-1.70767
-1.93364
-1.81772
-1.51575
-1.60395
-1.39367
-1.44455
-1.35888
-1.36481
-1.42024
-1.37703
-1.59015
-1.49047
-1.8925
-1.72321
-2.33759
-2.09889
-2.90716
-2.61103
-3.52611
-3.21757
-4.05302
-3.814
-4.32096
-4.22462
-4.24344
-4.32683
-3.84182
-4.07724
-3.23853
-3.5556
-2.60426
-2.91539
-2.0828
-2.32634
-1.87631
-1.88135
-2.51412
-2.04394
-1.75164
-1.70729
-1.74356
-1.76529
-2.15254
-1.80149
-1.95854
-2.62377
-2.37668
-3.14345
-2.88209
-3.58725
-3.38593
-3.80341
-3.73051
-3.72299
-3.80002
-3.38878
-3.58293
-2.90843
-3.16073
-2.41081
-2.65062
-1.99407
-2.18899
-1.70743
-1.83405
-1.5467
-1.61225
-1.50046
-1.50982
-1.56144
-1.51789
-1.72542
-1.63075
-1.98296
-1.8441
-2.29873
-2.13717
-2.48343
-2.60936
-2.5903
-2.45445
-1.74259
-1.83696
-2.12501
-2.32226
-1.55051
-1.64487
-1.38566
-1.46248
-1.28416
-1.32543
-1.26448
-1.26356
-1.33556
-1.28811
-1.5108
-1.40893
-1.81284
-1.64473
-2.25304
-2.01599
-2.81671
-2.52256
-3.4257
-3.12236
-3.94753
-3.71095
-4.21511
-4.11968
-4.14275
-4.22299
-3.75048
-3.98066
-3.15975
-3.47023
-2.53294
-2.84049
-2.01264
-2.25438
-1.63995
-1.80688
-1.68357
-1.57872
-1.50954
-1.62912
-2.69168
-1.91343
-1.64737
-1.59889
-1.48685
-1.41289
-1.65434
-2.61778
-2.72121
-2.17406
-1.96338
-1.50779
-1.53222
-1.37129
-1.43623
-1.68666
-1.58657
-1.99438
-1.82138
-2.4224
-2.19837
-2.88926
-2.65553
-3.29126
-3.10805
-3.49031
-3.42233
-3.42419
-3.49034
-3.12396
-3.29847
-2.68902
-2.9163
-2.2422
-2.45913
-1.87414
-2.0449
-1.6252
-1.73443
-1.49267
-1.54507
-1.46814
-1.46727
-1.54659
-1.49474
-1.72522
-1.62351
-1.9963
-1.85072
-2.32258
-2.15726
-2.48124
-2.53414
-2.74938
-2.66004
-2.36847
-1.54509
-1.69299
-1.62446
-1.38064
-1.46356
-1.24162
-1.30629
-1.16043
-1.19234
-1.15439
-1.14752
-1.23252
-1.18234
-1.40869
-1.30715
-1.70395
-1.54029
-2.13046
-1.90099
-2.67174
-2.38967
-3.26016
-2.9667
-3.76352
-3.53298
-4.02433
-3.932
-3.95667
-4.03265
-3.58231
-3.80201
-3.02048
-3.31515
-2.42422
-2.71734
-1.91935
-2.15523
-1.55668
-1.71977
-1.32873
-1.42758
-1.34434
-1.25661
-1.58153
-1.54481
-2.78232
-1.73756
-1.47253
-1.4229
-1.34902
-1.20951
-1.30151
-1.23978
-1.28549
-1.58175
-1.25751
-1.23308
-1.38294
-1.31177
-1.54737
-1.45895
-1.81083
-1.66228
-2.18779
-1.98996
-2.59945
-2.39395
-2.95432
-2.79179
-3.13407
-3.07184
-3.08131
-3.13706
-2.82018
-2.97229
-2.43928
-2.63773
-2.04952
-2.23932
-1.7312
-1.8782
-1.51984
-1.61174
-1.41489
-1.45461
-1.40969
-1.40008
-1.50146
-1.44353
-1.69078
-1.58391
-1.97159
-1.82135
-2.30214
-2.13578
-2.59785
-2.46041
-2.7631
-2.70277
-2.75868
-2.77561
-2.7937
-2.53777
-2.65263
-2.18973
-2.37756
-1.75559
-1.97966
-1.46629
-1.52337
-1.50698
-1.34357
-1.40891
-1.20485
-1.27509
-1.08954
-1.14183
-1.02818
-1.05112
-1.03382
-1.02212
-1.11585
-1.06464
-1.28839
-1.18969
-1.57064
-1.41477
-1.97411
-1.75735
-2.48349
-2.21816
-3.03709
-2.76103
-3.51038
-3.2933
-3.75803
-3.66987
-3.69601
-3.7667
-3.34656
-3.55173
-2.82177
-3.09669
-2.26936
-2.54053
-1.79907
-2.01994
-1.45441
-1.61013
-1.23244
-1.33034
-1.10879
-1.15919
-1.18363
-1.0777
-1.52996
-1.49082
-1.43013
-1.38548
-2.6935
-2.70937
-1.74682
-1.52209
-1.39024
-1.28112
-1.3479
-1.16347
-1.1751
-1.06351
-1.22486
-1.53203
-1.14313
-1.13428
-1.24155
-1.18119
-1.39303
-1.31296
-1.61546
-1.49089
-1.93566
-1.76657
-2.28943
-2.11287
-2.59499
-2.45459
-2.75321
-2.69766
-2.71213
-2.75794
-2.49107
-2.6202
-2.1675
-2.33594
-1.83652
-1.99763
-1.56831
-1.69181
-1.39363
-1.46876
-1.31438
-1.34247
-1.32616
-1.30901
-1.42945
-1.36622
-1.62743
-1.51663
-1.91219
-1.76071
-2.24037
-2.07531
-2.53115
-2.39684
-2.63412
-2.71168
-2.72495
-2.74534
-2.50701
-2.62741
-2.16982
-2.35218
-1.96595
-1.24261
-1.29855
-1.27733
-1.14326
-1.19623
-1.02724
-1.08456
-0.935338
-0.976349
-0.891307
-0.906578
-0.906288
-0.890897
-0.989844
-0.938847
-1.15526
-1.06131
-1.41962
-1.27417
-1.79249
-1.59268
-2.26033
-2.01677
-2.76829
-2.51501
-3.20337
-3.00377
-3.4317
-3.35004
-3.37639
-3.44046
-3.05804
-3.24499
-2.57889
-2.83009
-2.07487
-2.32196
-1.6481
-1.84853
-1.33183
-1.47582
-1.12016
-1.21423
-0.997516
-1.04878
-0.942708
-0.962941
-1.06541
-0.938952
-1.48799
-1.45714
-2.65687
-1.29505
-1.42654
-1.40954
-1.44217
-1.37194
-1.28135
-1.30588
-1.39942
-1.48696
-1.18678
-1.08673
-0.949823
-1.49652
-1.06949
-1.21101
-1.13447
-1.02879
-1.03315
-1.09861
-1.05264
-1.22895
-1.15888
-1.41417
-1.31169
-1.67828
-1.53827
-1.97359
-1.82607
-2.22969
-2.11171
-2.36543
-2.31693
-2.33422
-2.37102
-2.15185
-2.25862
-1.88389
-2.0234
-1.61006
-1.74321
-1.39019
-1.49104
-1.25083
-1.3099
-1.19571
-1.21293
-1.22338
-1.19914
-1.33691
-1.26917
-1.53938
-1.42717
-1.82111
-1.67197
-2.14118
-1.98032
-2.42228
-2.29238
-2.57342
-2.51897
-2.53866
-2.5804
-2.6308
-2.44757
-2.56171
-2.62327
-2.65142
-2.43566
-2.5479
-2.11898
-2.2914
-1.71208
-1.92281
-1.27544
-1.4948
-1.07556
-1.06198
-1.07597
-1.03006
-1.06001
-0.946907
-0.992448
-0.853375
-0.898984
-0.783052
-0.813889
-0.753996
-0.762703
-0.776133
-0.758159
-0.858742
-0.809251
-1.01414
-0.926457
-1.25696
-1.12389
-1.59455
-1.41416
-2.01429
-1.79607
-2.46885
-2.24218
-2.85902
-2.67986
-3.06459
-2.99086
-3.01671
-3.07331
-2.73305
-2.89957
-2.30675
-2.5303
-1.85557
-2.07732
-1.47252
-1.65219
-1.1889
-1.3184
-0.994835
-1.08176
-0.874832
-0.926565
-0.813448
-0.837175
-0.808063
-0.80397
-0.976122
-0.824156
-1.46563
-1.29796
-1.4585
-2.37989
-2.29639
-1.23743
-1.03599
-1.44304
-1.37897
-1.52448
-1.30301
-1.21862
-1.12465
-1.01612
-0.85265
-1.47699
-1.08729
-1.41972
-1.28712
-1.1734
-0.962531
-1.0191
-0.912159
-0.925667
-0.95589
-0.923455
-1.06171
-1.00345
-1.21284
-1.13024
-1.42456
-1.31199
-1.66414
-1.54423
-1.87311
-1.77663
-1.98623
-1.94508
-1.96318
-1.99211
-1.81646
-1.90252
-1.59992
-1.71269
-1.37924
-1.48639
-1.20422
-1.28403
-1.09787
-1.14193
-1.06519
-1.07233
-1.10714
-1.07668
-1.22765
-1.15733
-1.42928
-1.31845
-1.70265
-1.55854
-2.00891
-1.85555
-2.27527
-2.15243
-2.41588
-2.36663
-2.42222
-2.49836
-2.31847
-2.4311
-2.49766
-2.52083
-2.33243
-2.43274
-2.03981
-2.20042
-1.65487
-1.85506
-1.4472
-0.866472
-0.861018
-0.868485
-0.830167
-0.853859
-0.761064
-0.797959
-0.688443
-0.723425
-0.636764
-0.658923
-0.619928
-0.623428
-0.646919
-0.62744
-0.726668
-0.679627
-0.870006
-0.789641
-1.08895
-0.969472
-1.3884
-1.22891
-1.75666
-1.56557
-2.15389
-1.95582
-2.49536
-2.33843
-2.67631
-2.61117
-2.63595
-2.68477
-2.38933
-2.53411
-2.01846
-2.21296
-1.62428
-1.81869
-1.2846
-1.44434
-1.03234
-1.14743
-0.85923
-0.937065
-0.746605
-0.796491
-0.681037
-0.708055
-0.663036
-0.666473
-0.689012
-0.671108
-1.6265
-1.52905
-0.891345
-0.716925
-1.47943
-2.17848
-0.842066
-1.43366
-1.45181
-1.57799
-1.52639
-1.40878
-1.6418
-1.34825
-1.27278
-1.18104
-1.07018
-0.940429
-0.751093
-1.48512
-1.13244
-1.61391
-1.42879
-1.26524
-0.953954
-1.03118
-0.844674
-0.893236
-0.793643
-0.8108
-0.815365
-0.795667
-0.896001
-0.849981
-1.01684
-0.951267
-1.18266
-1.09451
-1.37132
-1.27675
-1.53693
-1.46026
-1.6281
-1.59456
-1.61152
-1.63367
-1.49648
-1.56411
-1.32591
-1.41475
-1.15285
-1.23668
-1.01802
-1.07897
-0.941194
-0.971834
-0.928101
-0.92658
-0.981146
-0.94616
-1.10464
-1.03382
-1.30145
-1.194
-1.56238
-1.42544
-1.85013
-1.70652
-2.0977
-1.9837
-2.22872
-2.1821
-2.19238
-2.23282
-2.00848
-2.11705
-2.16922
-1.87441
-2.03579
-2.3395
-2.27242
-2.34852
-2.36421
-2.2065
-2.29489
-1.93816
-2.08632
-1.58058
-1.76715
-1.18948
-1.38574
-0.812739
-0.996845
-0.671942
-0.637431
-0.659096
-0.676056
-0.677914
-0.643454
-0.663263
-0.589375
-0.6179
-0.534996
-0.560874
-0.49882
-0.513853
-0.491634
-0.491107
-0.521653
-0.501513
-0.597055
-0.553176
-0.72714
-0.654647
-0.921403
-0.815871
-1.18219
-1.04386
-1.49834
-1.33472
-1.83731
-1.66835
-2.12923
-1.99489
-2.28523
-2.22886
-2.25161
-2.29294
-2.04261
-2.16542
-1.72699
-1.89272
-1.39039
-1.55665
-1.09542
-1.23499
-0.872223
-0.97431
-0.718528
-0.787732
-0.61628
-0.662173
-0.551599
-0.579527
-0.522566
-0.532535
-0.530844
-0.52227
-0.572263
-0.548364
-1.81835
-1.71242
-0.79187
-0.601129
-1.53176
-1.48744
-1.62226
-1.8284
-1.7661
-1.61976
-1.46432
-1.81538
-1.69353
-0.775704
-0.611075
-1.80538
-1.41752
-1.34835
-1.25607
-1.13911
-0.99761
-1.84198
-1.6124
-1.82372
-0.838834
-0.633951
-2.0856
-1.52691
-1.24194
-1.41678
-0.97382
-1.09207
-0.815351
-0.884837
-0.717018
-0.75944
-0.671166
-0.687882
-0.678272
-0.667714
-0.736694
-0.702098
-0.830357
-0.779624
-0.956981
-0.889746
-1.10146
-1.02895
-1.229
-1.16986
-1.29977
-1.27368
-1.28828
-1.30474
-1.20041
-1.25221
-1.06954
-1.13769
-0.937634
-1.00132
-0.837411
-0.882171
-0.785641
-0.804975
-0.788312
-0.779991
-0.848946
-0.811132
-0.972395
-0.90253
-1.1614
-1.05888
-1.40628
-1.27834
-1.67213
-1.53991
-1.89805
-1.79443
-2.01758
-1.97473
-1.98442
-2.02173
-1.91453
-2.00585
-1.72593
-1.88011
-2.16593
-2.10171
-2.18704
-2.19466
-2.06607
-2.14355
-1.82259
-1.95757
-1.49533
-1.66647
-1.1332
-1.31524
-0.951695
-0.500308
-0.47701
-0.490762
-0.501732
-0.505414
-0.47511
-0.491135
-0.434082
-0.455359
-0.395045
-0.41333
-0.371298
-0.38067
-0.371334
-0.36789
-0.402691
-0.382646
-0.47271
-0.432441
-0.589071
-0.524607
-0.758951
-0.667096
-0.982453
-0.86446
-1.24855
-1.11133
-1.53121
-1.39045
-1.77492
-1.66257
-1.90645
-1.85874
-1.87908
-1.91318
-1.70594
-1.80789
-1.44308
-1.58136
-1.16095
-1.30036
-0.911033
-1.02995
-0.716489
-0.806249
-0.57937
-0.641403
-0.486779
-0.528501
-0.425639
-0.452783
-0.390429
-0.404789
-0.383282
-0.383085
-0.404511
-0.390642
-0.448636
-0.425392
-2.07505
-0.668464
-0.885835
-0.700381
-0.497082
-0.473748
-2.04497
-1.92177
-1.61286
-1.55235
-1.56088
-0.459487
-1.99322
-1.74917
-1.54806
-2.00995
-1.51233
-1.44661
-1.35026
-1.22163
-1.06408
-2.03702
-1.7151
-1.89118
-0.319471
-0.336512
-0.519236
-2.24219
-2.33417
-2.34977
-0.933915
-0.727673
-1.59997
-1.35945
-1.53326
-1.04453
-1.19229
-0.818823
-0.92023
-0.677777
-0.739635
-0.592428
-0.629416
-0.548759
-0.565651
-0.546398
-0.542177
-0.586102
-0.561471
-0.656726
-0.618293
-0.75134
-0.701274
-0.858824
-0.804863
-0.95398
-0.909796
-1.00707
-0.987474
-0.99905
-1.01111
-0.933489
-0.972215
-0.835646
-0.886558
-0.737966
-0.784908
-0.666303
-0.697751
-0.634735
-0.645039
-0.649426
-0.63605
-0.714816
-0.675495
-0.835834
-0.768125
-1.01437
-0.91814
-1.24055
-1.1229
-1.48247
-1.36255
-1.6857
-1.59276
-1.79236
-1.75393
-1.76484
-1.79645
-1.61208
-1.70057
-1.38577
-1.5036
-1.57859
-1.26532
-1.42503
-1.83858
-1.71927
-1.99155
-1.92904
-2.02211
-2.02342
-1.91941
-1.98688
-1.70143
-1.82276
-1.40476
-1.56033
-1.07084
-1.23984
-0.737793
-0.90203
-0.438895
-0.583629
-0.332444
-0.308574
-0.321601
-0.348423
-0.341383
-0.346467
-0.349859
-0.325838
-0.338005
-0.295994
-0.311242
-0.269309
-0.281561
-0.255156
-0.260225
-0.260377
-0.254925
-0.291843
-0.272427
-0.35585
-0.319427
-0.458638
-0.402012
-0.605387
-0.526424
-0.794301
-0.695098
-1.0144
-0.901444
-1.24501
-1.13038
-1.44365
-1.35195
-1.5518
-1.51244
-1.53012
-1.55753
-1.38982
-1.47267
-1.17519
-1.28826
-0.9423
-1.05763
-0.734536
-0.833706
-0.568984
-0.646172
-0.447337
-0.502979
-0.362385
-0.400913
-0.304311
-0.330526
-0.266632
-0.283054
-0.249235
-0.25524
-0.253526
-0.248598
-0.280129
-0.264368
-0.299424
-2.29093
-2.15537
-0.531206
-0.347561
-1.72619
-1.64888
-2.25057
-1.92179
-1.66168
-1.20722
-1.10154
-0.421029
-0.294972
-2.25031
-1.63413
-1.56747
-1.46111
-1.31544
-1.13651
-2.03387
-1.66606
-1.74061
-2.12758
-2.40531
-2.5688
-2.62707
-0.97831
-0.752731
-0.351393
-0.538788
-1.7058
-1.40982
-1.54642
-1.12181
-1.26688
-0.858626
-0.98253
-0.669793
-0.755242
-0.546461
-0.600821
-0.471113
-0.503939
-0.43115
-0.447058
-0.422846
-0.423023
-0.447209
-0.431044
-0.49807
-0.470029
-0.566935
-0.530592
-0.644664
-0.605669
-0.713426
-0.681473
-0.751765
-0.73768
-0.746075
-0.754857
-0.698117
-0.726455
-0.626725
-0.663816
-0.556453
-0.590004
-0.507461
-0.528382
-0.49159
-0.494938
-0.515089
-0.498127
-0.582787
-0.543133
-0.699142
-0.634691
-0.865159
-0.776199
-1.07114
-0.96447
-1.28818
-1.18092
-1.46859
-1.38628
-1.56242
-1.52879
-1.53926
-1.56602
-1.40534
-1.48402
-1.31089
-1.43605
-1.14553
-1.29578
-1.67524
-1.56466
-1.82435
-1.7625
-1.86099
-1.858
-1.7747
-1.83267
-1.58217
-1.68992
-1.31484
-1.45563
-1.01
-1.1647
-0.701697
-0.854123
-0.557112
-0.204185
-0.190289
-0.197165
-0.214287
-0.210583
-0.210997
-0.214345
-0.195594
-0.204467
-0.175002
-0.185357
-0.157947
-0.165566
-0.150911
-0.152839
-0.159597
-0.152902
-0.190193
-0.171812
-0.247914
-0.215382
-0.337724
-0.288509
-0.463253
-0.396027
-0.621265
-0.538777
-0.800696
-0.709177
-0.985075
-0.893711
-1.14317
-1.07014
-1.22973
-1.1981
-1.21302
-1.23462
-1.10143
-1.16742
-0.929189
-1.02003
-0.740088
-0.834172
-0.569202
-0.650981
-0.430955
-0.495864
-0.324963
-0.374162
-0.246719
-0.28273
-0.190325
-0.216169
-0.150989
-0.168671
-0.127651
-0.13727
-0.121357
-0.122256
-0.133229
-0.125055
-0.162105
-0.145616
-0.186866
-0.17697
-0.348366
-0.190914
-0.191151
-2.57486
-2.44105
-1.87966
-1.77856
-0.99638
-0.181962
-2.5394
-2.14019
-1.8062
-2.52624
-1.78261
-1.70791
-1.58354
-1.41275
-1.20527
-1.74916
-1.39254
-1.34124
-0.0553232
-0.0535253
-0.184054
-1.69757
-2.14756
-2.49855
-2.75706
-2.87894
-1.01045
-0.764858
-0.537028
-0.338977
-1.84762
-1.34337
-1.39472
-1.12502
-1.24218
-0.885477
-1.00568
-0.676949
-0.774492
-0.525073
-0.594031
-0.421925
-0.468367
-0.355366
-0.38451
-0.318798
-0.33375
-0.307255
-0.309994
-0.320615
-0.31083
-0.355446
-0.335865
-0.404086
-0.378444
-0.458623
-0.431307
-0.50663
-0.48433
-0.533589
-0.523593
-0.528911
-0.535375
-0.494432
-0.514769
-0.443536
-0.469906
-0.394506
-0.417688
-0.362955
-0.375804
-0.358876
-0.35706
-0.38832
-0.369112
-0.456029
-0.417136
-0.56586
-0.505533
-0.718107
-0.636978
-0.903279
-0.807788
-1.09547
-1.0008
-1.25367
-1.18168
-1.33542
-1.30624
-1.31589
-1.3386
-1.20295
-1.26899
-1.03229
-1.12243
-0.850288
-0.940389
-1.03467
-0.762069
-0.895977
-1.30395
-1.17306
-1.52483
-1.422
-1.6689
-1.60838
-1.70971
-1.7033
-1.63905
-1.68781
-1.47083
-1.56569
-1.23104
-1.35793
-0.953468
-1.09473
-0.669865
-0.810724
-0.404141
-0.533293
-0.176182
-0.284589
-0.0848291
-0.0792538
-0.0814752
-0.0927186
-0.0888176
-0.098342
-0.0968335
-0.094546
-0.0974297
-0.0836058
-0.0897283
-0.0703549
-0.0768681
-0.060517
-0.0647161
-0.0585238
-0.0582665
-0.0693351
-0.0619765
-0.0983751
-0.0812989
-0.149801
-0.121067
-0.227542
-0.185154
-0.334051
-0.277268
-0.465258
-0.397168
-0.610079
-0.536775
-0.754972
-0.683536
-0.877901
-0.821155
-0.94534
-0.920599
-0.932688
-0.94946
-0.844918
-0.896802
-0.708662
-0.780659
-0.557559
-0.633088
-0.418105
-0.485178
-0.303291
-0.357449
-0.212404
-0.255148
-0.141151
-0.174561
-0.0861318
-0.111789
-0.0452087
-0.0639683
-0.0180577
-0.0298689
-0.00567703
-0.00993436
-0.00885472
-0.0053279
-0.0267879
-0.0161709
-0.0466905
-0.0378262
-0.0534148
-2.8739
-2.74946
-0.173547
-0.0484691
-2.07766
-1.94292
-2.83537
-2.40185
-1.98176
-0.708089
-0.632788
-0.17407
-0.0811052
-2.82862
-1.95395
-1.8615
-1.70876
-1.50405
-1.26388
-1.26309
-0.947972
-0.866907
-1.15973
-1.6087
-2.09469
-2.5195
-2.86785
-3.07475
-1.02519
-0.76155
-0.523877
-0.324011
-0.0428518
-0.162766
-2.02892
-1.07392
-1.01705
-1.04486
-1.08584
-0.866523
-0.964062
-0.678883
-0.770432
-0.516639
-0.593589
-0.392429
-0.449519
-0.30562
-0.344728
-0.249319
-0.274205
-0.215777
-0.230041
-0.201403
-0.206254
-0.20623
-0.20138
-0.228509
-0.215556
-0.26181
-0.244207
-0.298957
-0.280412
-0.331234
-0.316288
-0.349107
-0.342528
-0.34524
-0.349993
-0.320898
-0.335202
-0.285495
-0.30376
-0.25249
-0.267861
-0.233967
-0.240816
-0.238323
-0.232901
-0.271171
-0.250905
-0.336962
-0.299714
-0.438975
-0.383342
-0.576827
-0.503746
-0.74131
-0.656827
-0.909569
-0.826959
-1.04674
-0.98446
-1.11734
-1.09211
-1.10166
-1.12048
-1.00787
-1.0629
-0.863992
-0.940429
-0.785607
-0.934789
-0.679324
-0.807092
-1.18485
-1.06276
-1.39097
-1.29471
-1.52866
-1.4702
-1.57329
-1.5635
-1.51773
-1.55771
-1.37177
-1.45493
-1.15692
-1.27123
-0.903472
-1.03294
-0.64145
-0.772074
-0.391734
-0.513688
-0.278106
0.00626316
0.00465802
0.00676815
0.00266536
0.00466177
0.000928919
0.00123022
0.00428424
0.00201203
0.0114718
0.00757565
0.0191127
0.015472
0.0238006
0.0220037
0.022409
0.0240996
0.0104895
0.0180783
-0.0165376
-0.000924153
-0.0618639
-0.0367389
-0.128604
-0.0923804
-0.218411
-0.170725
-0.326884
-0.270908
-0.443143
-0.384807
-0.555581
-0.500557
-0.649242
-0.606096
-0.700448
-0.68168
-0.690363
-0.703447
-0.622202
-0.66249
-0.515566
-0.572098
-0.395932
-0.455928
-0.283017
-0.337747
-0.187303
-0.232764
-0.109466
-0.146402
-0.045428
-0.075949
0.00740485
-0.01767
0.0492097
0.0297382
0.0788583
0.065647
0.0948645
0.0886463
0.0965287
0.0974688
0.085717
0.0923122
0.0717878
0.0784371
0.0627726
0.0662549
0.0600152
0.0601224
-0.0426706
0.0540083
0.058533
-3.16821
-3.06618
-2.32055
-2.14308
-0.561206
0.00210202
-3.11091
-2.70161
-2.1839
-3.14285
-2.14048
-2.0177
-1.82553
-1.57999
-1.30443
-0.765211
-0.524238
-0.428874
0.136104
0.12521
0.0460904
-0.654837
-1.03542
-1.47973
-1.96642
-2.45609
-2.88654
-3.19035
-1.0194
-0.742826
-0.502676
-0.306675
-0.157823
-0.046737
-2.2513
-0.70154
-0.614976
-0.803233
-0.768814
-0.777736
-0.811457
-0.640318
-0.715255
-0.49177
-0.564109
-0.365109
-0.425032
-0.267969
-0.31276
-0.198514
-0.230193
-0.15065
-0.172151
-0.121059
-0.133756
-0.106509
-0.112086
-0.105611
-0.104319
-0.117933
-0.110314
-0.139216
-0.127809
-0.163419
-0.151363
-0.184075
-0.174579
-0.195087
-0.191129
-0.191741
-0.195276
-0.17488
-0.184716
-0.150969
-0.163223
-0.129794
-0.139412
-0.1207
-0.123247
-0.130705
-0.122972
-0.164905
-0.14452
-0.227368
-0.192398
-0.320769
-0.270152
-0.444113
-0.379028
-0.588659
-0.514705
-0.734503
-0.663116
-0.852259
-0.798873
-0.912929
-0.89109
-0.901205
-0.91624
-0.824243
-0.869566
-0.706678
-0.768831
-0.575526
-0.640808
-0.450733
-0.511918
-0.60868
-0.393442
-0.497477
-0.847131
-0.726534
-1.07998
-0.966465
-1.27391
-1.1831
-1.40616
-1.34933
-1.45539
-1.44195
-1.41399
-1.44593
-1.28772
-1.36058
-1.09482
-1.19806
-0.862276
-0.98162
-0.618231
-0.740215
-0.384541
-0.499012
-0.175772
-0.275859
-0.00359099
-0.0850755
0.0791595
0.0676332
0.0744227
0.0834874
0.0819004
0.0839538
0.0837606
0.084438
0.0839184
0.0871234
0.0854509
0.0912693
0.0891296
0.0948483
0.0932301
0.096076
0.0958659
0.0925646
0.0951297
0.0802715
0.0877767
0.0555371
0.0696129
0.0159752
0.0377474
-0.0408989
-0.0101601
-0.11623
-0.0763629
-0.2058
-0.159794
-0.29915
-0.252749
-0.385725
-0.34381
-0.45576
-0.423632
-0.493555
-0.479809
-0.485172
-0.495423
-0.432726
-0.463765
-0.349757
-0.393888
-0.25528
-0.302835
-0.164213
-0.208709
-0.0840295
-0.12253
-0.0164674
-0.0487729
0.0410221
0.0133288
0.0907554
0.0668284
0.132156
0.112622
0.162969
0.149037
0.181054
0.173695
0.185642
0.18499
0.17937
0.183454
0.169589
0.174493
0.161865
0.165383
0.152911
0.157769
0.145051
-3.42823
-3.35757
0.0352863
0.113286
-2.60432
-2.37477
-3.33318
-3.0256
-2.40371
-0.346978
-0.296284
-0.0122659
0.0580257
-3.44797
-2.32927
-2.16248
-1.92152
-1.63106
-1.32083
-0.33452
-0.161625
-0.0872429
-0.247263
-0.540486
-0.898409
-1.32206
-1.80538
-2.32266
-2.81534
-3.21128
-0.992974
-0.712427
-0.477635
-0.29371
-0.157447
-0.0554836
0.0997584
0.0227258
-2.51087
-0.323856
-0.23664
-0.496851
-0.415703
-0.569849
-0.547563
-0.541515
-0.569514
-0.439003
-0.4946
-0.327759
-0.381927
-0.233232
-0.278102
-0.158327
-0.193292
-0.102475
-0.128177
-0.0628687
-0.0808429
-0.036508
-0.0481965
-0.0212024
-0.0275685
-0.0162355
-0.0174075
-0.0214926
-0.0176878
-0.0340718
-0.0271479
-0.0491009
-0.0416134
-0.0615771
-0.0559194
-0.0676772
-0.0656076
-0.064677
-0.0673462
-0.053222
-0.0598182
-0.0376981
-0.0455624
-0.0251148
-0.030571
-0.0226498
-0.0222202
-0.0361571
-0.0271048
-0.0701978
-0.0503723
-0.128383
-0.0961007
-0.212788
-0.167298
-0.32196
-0.264602
-0.44778
-0.383649
-0.573051
-0.511911
-0.67337
-0.627919
-0.725523
-0.706555
-0.71764
-0.729105
-0.656245
-0.692505
-0.561716
-0.611745
-0.453394
-0.508116
-0.399266
-0.547973
-0.340878
-0.44261
-0.771128
-0.657998
-0.98936
-0.882842
-1.17375
-1.08707
-1.30303
-1.24666
-1.35791
-1.34059
-1.32932
-1.35415
-1.22015
-1.28409
-1.04616
-1.13987
-0.831475
-0.942203
-0.602473
-0.717262
-0.38158
-0.489989
-0.181212
-0.27801
-0.09231
0.142527
0.129311
0.137009
0.149064
0.146028
0.151994
0.150818
0.153775
0.152865
0.155728
0.154672
0.157569
0.156717
0.158418
0.158143
0.157503
0.158255
0.152766
0.155821
0.140619
0.147823
0.118306
0.130838
0.0840781
0.102792
0.035952
0.0618582
-0.026893
0.00627721
-0.100808
-0.0629552
-0.176234
-0.139053
-0.243054
-0.21117
-0.294519
-0.271157
-0.321204
-0.311687
-0.314412
-0.322279
-0.273623
-0.297799
-0.209172
-0.243516
-0.134374
-0.172244
-0.0605788
-0.0968787
0.00680865
-0.025937
0.0662824
0.037543
0.118464
0.093175
0.164722
0.14231
0.204416
0.185526
0.234976
0.221018
0.253872
0.245988
0.260318
0.25858
0.257294
0.259604
0.250557
0.254208
0.242387
0.246739
0.22897
0.236713
0.207157
0.2187
0.180533
0.193775
0.0823202
0.149086
0.165903
-3.63054
-3.58975
-2.91594
-2.62761
-0.250023
0.118928
-3.47495
-3.34985
-2.62597
-3.72177
-2.50319
-2.28046
-1.98482
-1.65018
-1.31048
-0.0206297
0.0990712
0.156215
0.0374534
-0.165297
-0.426245
-0.756546
-1.15249
-1.62076
-2.14046
-2.67082
-3.14437
-0.950253
-0.675331
-0.454334
-0.287771
-0.163017
-0.067848
0.00564476
0.207965
0.129923
0.190412
-2.79568
-0.0203588
0.0460802
-0.171844
-0.0958256
-0.314614
-0.249387
-0.364394
-0.352266
-0.339041
-0.359205
-0.266964
-0.30658
-0.185445
-0.225385
-0.115478
-0.14871
-0.0592551
-0.0856976
-0.0158454
-0.0360379
0.0164027
0.00155839
0.0389646
0.0288194
0.0532812
0.0470348
0.0605961
0.0578153
0.0607268
0.0615533
0.054895
0.0583689
0.0465992
0.0507955
0.0397703
0.0427952
0.0370221
0.0378015
0.0397214
0.0376831
0.0473006
0.0430293
0.0567737
0.0520797
0.0631886
0.0607077
0.0610931
0.0635243
0.0456314
0.0552964
0.0127897
0.0315957
-0.0405532
-0.0111808
-0.115945
-0.075509
-0.211644
-0.161566
-0.320229
-0.265085
-0.427027
-0.375023
-0.51212
-0.473562
-0.557182
-0.540527
-0.553078
-0.561234
-0.50568
-0.533886
-0.430798
-0.470623
-0.341973
-0.387494
-0.252225
-0.296905
-0.168526
-0.208309
-0.297493
-0.131867
-0.210412
-0.495433
-0.393524
-0.706674
-0.600362
-0.91294
-0.811858
-1.0909
-1.00674
-1.21997
-1.16284
-1.2812
-1.25994
-1.26406
-1.28265
-1.16964
-1.22591
-1.01168
-1.09735
-0.811948
-0.915485
-0.595152
-0.704223
-0.383447
-0.487541
-0.190444
-0.284197
-0.0244585
-0.103428
0.107027
0.045061
0.181427
0.159926
0.171713
0.195356
0.189335
0.203697
0.200138
0.208261
0.206344
0.210715
0.209661
0.211963
0.211448
0.212164
0.212186
0.211399
0.211901
0.2093
0.210581
0.203942
0.207221
0.192308
0.199062
0.172445
0.183472
0.14307
0.159035
0.102604
0.124304
0.0504295
0.0779086
-0.0105266
0.0206455
-0.0719602
-0.0418521
-0.124179
-0.0996607
-0.161795
-0.145031
-0.179908
-0.173724
-0.17336
-0.179919
-0.141592
-0.160402
-0.0910063
-0.118017
-0.0313138
-0.0617371
0.0293063
-0.000727528
0.0864109
0.0584035
0.139014
0.113289
0.186838
0.163531
0.229767
0.208934
0.266922
0.249183
0.296008
0.282643
0.314615
0.30672
0.322225
0.319695
0.321794
0.322704
0.316987
0.320058
0.307196
0.312864
0.290317
0.299717
0.267111
0.279278
0.239888
0.253841
0.224421
-3.75918
-3.74058
0.0623419
-3.23323
-2.8841
-3.50989
-3.64383
-2.82999
-0.0931385
-0.0605966
0.0920577
0.145923
-3.93264
-2.64367
-2.35708
-2.00697
-1.63401
-1.27401
0.207319
0.293069
0.338983
0.11052
0.171661
0.259924
0.103357
-0.0912286
-0.325251
-0.619778
-0.983348
-1.42208
-1.92752
-2.47281
-3.00462
-0.897644
-0.638261
-0.437749
-0.287731
-0.173605
-0.0851878
-0.015699
-3.08597
0.196902
0.247209
0.0816581
0.142843
-0.0482649
0.0145457
-0.14935
-0.104248
-0.187128
-0.177525
-0.167895
-0.182653
-0.118605
-0.145443
-0.0635363
-0.0906069
-0.0148732
-0.0382509
0.0262536
0.00663368
0.0596458
0.0439209
0.0856192
0.0735011
0.105035
0.0960994
0.118669
0.112516
0.127335
0.123609
0.130956
0.12979
0.12987
0.130902
0.126327
0.128209
0.123273
0.124582
0.122648
0.12262
0.125007
0.123467
0.129778
0.127182
0.134903
0.132487
0.136919
0.13655
0.131729
0.135479
0.115358
0.125166
0.0843499
0.101868
0.0360575
0.0624732
-0.0306319
0.00497923
-0.113831
-0.0704577
-0.206872
-0.159775
-0.297495
-0.253436
-0.369592
-0.336873
-0.408821
-0.393985
-0.408382
-0.413513
-0.373052
-0.394407
-0.314362
-0.345922
-0.242653
-0.279548
-0.166296
-0.204775
-0.1286
-0.261479
-0.0991751
-0.177356
-0.450699
-0.352883
-0.652691
-0.551275
-0.850712
-0.753238
-1.02561
-0.942331
-1.15675
-1.09796
-1.22469
-1.19956
-1.21789
-1.23092
-1.13625
-1.18591
-0.991694
-1.07071
-0.804039
-0.901813
-0.596653
-0.701401
-0.39127
-0.4925
-0.203652
-0.294744
-0.0404233
-0.118214
0.0302662
0.225487
0.204898
0.216265
0.239437
0.232954
0.248802
0.244698
0.254251
0.25194
0.256946
0.25589
0.257622
0.257493
0.256836
0.257368
0.255249
0.256124
0.252637
0.254153
0.247051
0.250376
0.236168
0.242376
0.218694
0.2283
0.193669
0.207195
0.159879
0.177929
0.116845
0.139469
0.0666962
0.0923513
0.0161947
0.0408994
-0.025531
-0.00623039
-0.0532104
-0.0412444
-0.0646147
-0.061165
-0.0579837
-0.0637642
-0.0327185
-0.0475463
0.0075852
-0.0140289
0.0559407
0.0311658
0.106556
0.0812574
0.155763
0.131453
0.20244
0.179424
0.246242
0.224756
0.286066
0.266736
0.320376
0.304022
0.347205
0.334855
0.364815
0.357217
0.373252
0.370071
0.374687
0.3747
0.370331
0.373128
0.358709
0.365535
0.339917
0.350044
0.316754
0.328753
0.290022
0.303888
0.259345
0.275049
0.225795
0.243019
0.182956
0.152428
0.20596
-3.80779
-3.82538
0.0420337
-3.52565
-3.11984
-0.0312319
0.191722
-3.46959
0.0919083
-3.87249
-2.99327
0.134709
-4.05523
-2.73335
-2.38187
-1.98429
-1.58434
-1.21608
0.380096
0.310753
0.1648
-0.0172153
-0.230459
-0.49319
-0.821663
-1.22529
-1.70721
-2.24552
-2.80019
-0.843531
-0.607711
-0.428887
-0.293726
-0.188845
-0.105954
-0.0376662
-3.35354
0.43358
0.418252
0.50575
0.467392
0.359265
0.399526
0.26758
0.316534
0.164986
0.216858
0.066208
0.113231
-0.00541727
0.0262292
-0.0350298
-0.0262438
-0.0249731
-0.0335447
0.0038727
-0.0119033
0.038472
0.0210174
0.0717547
0.0555126
0.101203
0.0870137
0.126156
0.114259
0.146538
0.136899
0.16266
0.155112
0.174918
0.169234
0.183982
0.179816
0.189897
0.187362
0.192332
0.191533
0.192259
0.192479
0.191819
0.191973
0.192429
0.191958
0.19437
0.193258
0.197067
0.195691
0.199066
0.198285
0.197949
0.199078
0.190668
0.195277
0.174034
0.183708
0.145144
0.161276
0.101795
0.125361
0.0432287
0.0743663
-0.0286521
0.00869015
-0.108005
-0.067941
-0.184706
-0.147475
-0.245918
-0.21802
-0.280399
-0.267001
-0.283296
-0.28576
-0.257996
-0.273696
-0.212493
-0.237312
-0.154011
-0.184521
-0.0895426
-0.122045
-0.0262018
-0.0572729
0.0284634
0.00253035
-0.072827
0.0515688
-0.00648812
-0.231062
-0.148293
-0.413558
-0.319827