/*--------------------------------*- C++ -*----------------------------------*\
  =========                 |
  \\      /  F ield         | OpenFOAM: The Open Source CFD Toolbox
   \\    /   O peration     | Website:  https://openfoam.org
    \\  /    A nd           | Version:  10
     \\/     M anipulation  |
\*---------------------------------------------------------------------------*/
FoamFile
{
    format      ascii;
    class       volScalarField;
    location    "25.5";
    object      p;
}
// * * * * * * * * * * * * * * * * * * * * * * * * * * * * * * * * * * * * * //

dimensions      [0 2 -2 0 0 0 0];

internalField   nonuniform List<scalar> 
40874
(
0.642295
0.720503
0.213734
0.287492
0.20385
0.118496
0.0109652
0.18489
0.266243
0.402436
0.575879
0.535592
0.397074
0.500183
0.50931
0.567199
-0.0692577
-0.0429971
0.297824
0.375374
0.374985
0.348675
0.263677
0.453546
0.429778
0.147509
0.170994
0.175322
0.12868
-0.0361948
-0.0166277
0.0821061
0.067123
-0.352175
-0.30523
-0.287359
-0.321079
0.0122213
0.0109331
0.0109777
0.012771
0.0135348
0.0145275
0.0103504
0.0132664
0.013288
0.0104435
0.282292
0.398556
0.48383
0.380321
0.106074
0.215089
-0.0829928
-0.119634
-0.0178401
0.00986908
-0.011739
-0.133192
-0.257215
-0.231226
-0.0914286
0.0526804
0.0287647
-0.0931084
-0.379538
-0.416359
-0.378299
-0.544346
-0.542383
-0.546149
0.936741
0.939697
0.930243
0.00404254
0.0224034
0.0266919
-0.0154465
0.0116758
0.013823
0.0112174
0.011291
0.465466
0.51706
0.530693
0.493761
-0.0826854
-0.0770993
-0.0604149
-0.185851
-0.355149
-0.27676
-0.298957
-0.241056
-0.174915
0.00655676
0.00747744
0.000789184
0.0033587
0.00675474
0.226313
0.211579
-0.568402
-0.577196
-0.307544
-0.302935
0.390629
0.39336
0.923697
0.90991
-0.313295
-0.304584
0.199219
0.000184089
0.00147139
0.009807
0.010715
0.0587308
0.0980784
0.40525
0.565002
0.614732
0.507487
0.41003
0.0121813
0.0113847
0.0135966
0.00918858
-0.0025653
-0.0125323
0.210716
0.0106134
0.0544301
0.0547854
0.688195
-0.108484
-0.112655
-0.169801
-0.49428
-0.457253
-0.445411
-0.484803
-0.540467
-0.535695
-0.23283
-0.247299
-0.261118
0.916271
0.940094
0.936919
-0.0950776
-0.116409
-0.0382194
-0.307007
-0.309075
-0.310015
-0.310902
-0.303781
-0.307816
-0.311826
-0.718992
-0.724714
-0.708631
0.904615
0.849419
0.758588
0.669288
0.694245
0.155813
-0.61942
0.796063
0.745012
0.621944
0.832831
0.00877828
0.0144975
-0.51874
-0.51593
-0.548483
-0.308601
-0.293208
-0.226347
-0.238117
-0.352469
-0.344945
0.00340132
0.0029892
0.0034582
0.423498
0.43742
0.413819
0.282026
0.217773
0.870823
0.884334
0.90938
0.863949
-0.162794
-0.26531
-0.403808
-0.290897
-0.62308
-0.615855
-0.610031
-0.629267
0.0022089
0.00275294
-0.599531
0.000556371
-0.00462869
0.190599
0.186453
0.273541
0.23545
0.235013
0.197399
0.196782
0.221958
0.213791
0.717323
0.805629
0.832562
0.0129876
0.012857
0.150096
0.0310016
0.0701296
0.189841
-0.266971
-0.503129
-0.500713
-0.569472
-0.568291
-0.0992093
-0.526775
-0.542852
-0.536183
-0.509557
-0.511258
0.185569
0.244051
-0.513507
-0.523522
-0.0915483
-0.104349
-0.233816
-0.204188
0.611604
0.616255
0.743468
0.706706
-0.192488
-0.176621
-0.190711
-0.210414
-0.524646
-0.544047
-0.531501
-0.497724
-0.467276
-0.501319
-0.327084
-0.32397
-0.336221
0.854433
0.807199
0.866427
0.624692
0.603154
0.605724
-0.592256
0.00389363
-0.25578
0.0511064
-0.048414
-0.0402032
-0.0324026
-0.0249847
-0.0175991
-0.0113041
-0.00634304
-0.000646702
0.00444778
0.00893137
0.0131409
0.0169065
0.0204805
0.0236977
0.0267534
0.0295135
0.0321291
0.0344414
0.0367246
0.0387827
0.0406901
0.0424212
0.0440524
0.0455243
0.0468993
0.0481315
0.0492714
0.050281
0.0512011
0.0519999
0.0527085
0.0532977
0.0538168
0.0542935
0.0545403
0.0544069
0.0539586
0.0544723
-0.0723536
-0.0630662
-0.0738232
-0.0849859
-0.0949752
-0.0829513
-0.0536732
-0.0632771
-0.0372363
-0.0451009
-0.0220045
-0.02946
-0.00921409
-0.0147044
0.00128087
-0.00376221
0.0101636
0.0059038
0.0177262
0.0140868
0.0242099
0.0210858
0.0296465
0.0270943
0.0346261
0.0322513
0.038717
0.0367444
0.0422413
0.0405439
0.0452408
0.0438012
0.0477582
0.046555
0.0498289
0.0488455
0.0514808
0.0507043
0.0526848
0.0521451
0.0532688
0.0530993
0.0534956
-0.0424438
-0.0515624
-0.0272222
-0.0345458
-0.0132668
-0.020153
-0.00308839
-0.00782255
0.00629889
0.00157996
0.0147065
0.0106674
0.0218476
0.0184045
0.0279891
0.0250237
0.0332969
0.0307332
0.0378334
0.0356309
0.0417904
0.0398864
0.04517
0.0435433
0.04805
0.0466676
0.0504723
0.0493148
0.052468
0.0515208
0.0540546
0.0533118
0.0552435
0.0546933
0.056093
0.0557375
0.0560932
0.0560896
-0.108274
-0.123217
-0.111018
-0.097251
-0.140982
-0.126779
-0.16089
0.0526528
0.0528002
0.0562829
-0.064019
-0.054283
-0.0742204
-0.098601
-0.113062
-0.215269
-0.178096
-0.168815
-0.134056
-0.151287
-0.103996
-0.118033
-0.0798825
-0.0913015
-0.0596185
-0.070192
-0.041714
-0.050363
-0.026482
-0.0340078
-0.0138371
-0.0196013
-0.00364911
-0.00862539
0.00544793
0.00106506
0.0133253
0.00953642
0.0201256
0.0168563
0.0259839
0.0231493
0.0311129
0.0286335
0.035528
0.0334089
0.0393153
0.037495
0.0425556
0.0410011
0.0453003
0.0439877
0.0475895
0.0464999
0.0494604
0.0485748
0.0508884
0.0502417
0.0518832
0.0514083
0.0523294
0.0529088
0.0563366
0.0535749
0.0542419
-0.0363562
-0.0452394
-0.0214209
-0.0285745
-0.00889323
-0.0146974
0.00165599
-0.00359614
0.010622
0.00633917
0.0184922
0.014701
0.0252506
0.0220021
0.0310766
0.0282711
0.0361098
0.0336887
0.0404538
0.0383595
0.0442229
0.0424093
0.0474566
0.0459031
0.0502143
0.0488926
0.0525341
0.0514274
0.0544418
0.0535384
0.0559516
0.0552459
0.0571009
0.0565657
0.0578258
0.0575343
0.0581947
0.0579975
0.0581656
0.0582529
-0.0857168
-0.0535885
-0.0450896
-0.0631176
-0.0854155
-0.0990078
0.0600688
0.0579734
0.0598484
-0.201581
-0.144283
0.0526181
-0.129671
0.0521283
-0.225929
-0.247628
-0.289453
-0.295373
-0.260718
-0.174429
-0.198403
-0.142285
-0.158373
-0.111369
-0.126093
-0.0857403
-0.0980411
-0.0648729
-0.075035
-0.0461446
-0.0553077
-0.0310318
-0.0383494
-0.0181031
-0.024277
-0.00733326
-0.0125221
0.00205387
-0.00246726
0.0101891
0.00627223
0.0172282
0.0138416
0.0233167
0.0203634
0.0285952
0.0260468
0.033172
0.0309722
0.0371017
0.0352134
0.0404635
0.0388506
0.043315
0.0419508
0.0457004
0.0445642
0.0476612
0.0467308
0.0492166
0.0484979
0.0503256
0.0497847
0.0511106
0.0508094
0.0512375
0.0512605
0.0511659
0.0544914
0.0532377
0.0561764
-0.0292816
-0.0371334
-0.0150432
-0.0218007
-0.00346134
-0.00894399
0.0067492
0.00175979
0.015231
0.0111876
0.0225407
0.0190085
0.0288788
0.0258265
0.0343641
0.0317193
0.039122
0.0368283
0.0432463
0.0412573
0.0468315
0.0451027
0.0499247
0.048437
0.0525709
0.0513012
0.0548045
0.0537378
0.0566465
0.0557736
0.0581071
0.0574242
0.0591861
0.0586963
0.0598313
0.0595603
0.0601398
0.060039
0.0601502
-0.0735519
-0.115263
-0.0431092
-0.0353681
0.0576739
0.0594954
-0.051744
-0.234158
0.0496917
0.0491814
-0.279905
-0.163699
-0.185131
-0.294304
-0.326662
-0.329106
-0.14878
-0.133738
-0.235628
-0.263655
-0.185294
-0.209078
-0.148339
-0.165859
-0.117281
-0.132333
-0.0907476
-0.103408
-0.0689652
-0.0792544
-0.050548
-0.0594082
-0.0349785
-0.0424056
-0.0216324
-0.028038
-0.0102837
-0.0157278
-0.000576336
-0.00523873
0.00778306
0.00375998
0.0150078
0.0115304
0.0212433
0.0182389
0.026644
0.0240432
0.0313053
0.0290631
0.0353127
0.033387
0.0387381
0.0370951
0.0416405
0.0402521
0.0440669
0.0429112
0.0460582
0.045114
0.0476521
0.0469089
0.0487942
0.0482566
0.0496132
0.0492545
0.0497822
0.0498039
0.0496817
0.0516994
0.0504827
0.0543637
0.0529814
0.0559288
-0.0209809
-0.0281229
-0.00793364
-0.0141344
0.0028172
-0.00235371
0.0122459
0.00770041
0.0201595
0.0163757
0.0269444
0.0236711
0.0328318
0.0299934
0.0379417
0.0354762
0.0423858
0.0402411
0.0462546
0.0443871
0.0496206
0.0479968
0.0525338
0.0511313
0.0550317
0.0538325
0.0571421
0.056134
0.0588811
0.0580574
0.0602558
0.0596136
0.061265
0.0608074
0.0618884
0.0616229
0.0621736
0.0620762
0.0620568
0.0621825
-0.370056
-0.360847
-0.168979
-0.317057
0.0614102
0.0618058
-0.0718707
-0.0613914
-0.0986691
-0.0837257
-0.156136
-0.408074
-0.360042
-0.308733
-0.410851
-0.363181
-0.0252345
-0.0323677
-0.215202
-0.450276
-0.448242
-0.116415
0.0634172
0.0608917
0.0628715
-0.44028
-0.273656
-0.34532
-0.294011
-0.324313
-0.242028
-0.266461
-0.194019
-0.21722
-0.15422
-0.17301
-0.122036
-0.137287
-0.0951205
-0.107976
-0.0727316
-0.0833355
-0.0541064
-0.0630205
-0.0381935
-0.0458031
-0.0245425
-0.0310945
-0.0129007
-0.0184896
-0.0029456
-0.00772374
0.0056036
0.00149224
0.0129761
0.00943103
0.0193422
0.0162809
0.0248399
0.0221936
0.029578
0.027299
0.0336513
0.0316939
0.0371324
0.0354628
0.0400809
0.0386706
0.0425458
0.0413718
0.0445662
0.0436094
0.0461841
0.0454259
0.0473664
0.0468214
0.0482126
0.0478367
0.0485316
0.0484625
0.0484674
0.0484847
0.0512436
0.0484462
0.0500078
0.0540214
0.0526035
0.0572348
0.0555668
0.0590119
-0.0122688
-0.0186048
-0.000397535
-0.00608642
0.0094991
0.00475115
0.018011
0.0139182
0.0252515
0.0217781
0.0314748
0.0284728
0.0368897
0.0342757
0.0416104
0.0393302
0.0457346
0.0437417
0.0493403
0.0475979
0.0524899
0.0509689
0.055228
0.0539083
0.0575853
0.0564526
0.0595835
0.0586284
0.0612336
0.0604518
0.062537
0.0619289
0.063482
0.0630558
0.0640561
0.0638144
0.064265
0.0642083
0.0641031
0.064226
0.063826
-0.0402973
-0.0578162
-0.0487449
-0.0812046
-0.0683661
-0.199513
-0.411946
-0.370477
-0.481445
-0.488138
0.0472091
0.047201
-0.138467
-0.0962309
0.0602395
0.0621501
-0.406691
-0.309974
-0.449653
-0.260704
-0.191508
-0.0212074
-0.0147221
-0.299066
-0.331127
-0.246005
-0.271499
-0.199262
-0.221711
-0.158883
-0.178044
-0.125953
-0.14151
-0.0987699
-0.111729
-0.076048
-0.0868634
-0.0570244
-0.0661155
-0.0408588
-0.0485984
-0.027033
-0.0336613
-0.0152434
-0.0209055
-0.00513178
-0.00998786
0.00355918
-0.000618746
0.011054
0.00744818
0.0175227
0.0144109
0.023106
0.0204188
0.0279188
0.025604
0.0320557
0.0300679
0.0355922
0.0338959
0.0385894
0.0371556
0.0410977
0.0399026
0.0431559
0.0421813
0.0448036
0.04403
0.0460389
0.0454683
0.0469197
0.0465258
0.0473701
0.0472158
0.0473844
0.0508046
0.0482185
0.0494885
0.0535351
0.0521444
0.0566701
0.0550496
0.0584051
-0.00298812
-0.00870656
0.0075022
0.00243837
0.0163933
0.0121281
0.0240063
0.0203441
0.0305423
0.0273985
0.0361881
0.0334642
0.0411126
0.038733
0.0454254
0.0433398
0.0492114
0.0473797
0.0525386
0.0509289
0.0554584
0.0540468
0.0580085
0.056778
0.0602139
0.0591531
0.0620901
0.0611926
0.0636427
0.0629069
0.0648685
0.064297
0.0657549
0.0653553
0.066287
0.0660659
0.0664492
0.0664163
0.0662092
0.0663805
0.0654968
0.0659363
-0.489005
0.0472026
-0.113099
-0.161994
0.0641645
0.0649157
-0.347541
-0.525602
-0.487562
-0.0756015
-0.0280739
-0.0354599
-0.0434672
-0.0527907
-0.0632755
-0.23382
-0.458164
-0.308025
-0.37693
-0.417312
-0.00386471
-0.0094986
0.0480383
0.0470535
-0.0898412
-0.554693
-0.186635
0.0662999
0.0632764
0.0653486
-0.306248
-0.339354
-0.249264
-0.27642
-0.20178
-0.224236
-0.161883
-0.180832
-0.128881
-0.144538
-0.101526
-0.114553
-0.0786419
-0.0895548
-0.0593735
-0.0685831
-0.0430484
-0.0508605
-0.029126
-0.0357985
-0.0172439
-0.0229502
-0.00704069
-0.0119418
0.0017441
-0.00247968
0.00932235
0.00567643
0.0158644
0.0127166
0.0215133
0.0187947
0.0263849
0.0240419
0.0305734
0.0285609
0.0341556
0.0324373
0.0371945
0.0357405
0.0397412
0.0385273
0.0418357
0.0408434
0.0435149
0.0427259
0.0447927
0.044201
0.0457038
0.0452951
0.0462006
0.0460134
0.0461959
0.0462581
0.0462717
0.0462491
0.0503441
0.0491088
0.0529898
0.0516457
0.0559917
0.0544293
0.059452
0.0576734
0.0613113
0.00656918
0.00157548
0.0156657
0.0112634
0.0234743
0.0197248
0.0301759
0.0269491
0.0359695
0.0331771
0.0410085
0.0385744
0.0454276
0.0432893
0.0493218
0.0474359
0.0527626
0.0510954
0.0558059
0.0543313
0.0584939
0.0571924
0.0608567
0.0597149
0.0629125
0.0619223
0.0646713
0.0638291
0.0661331
0.0654399
0.067289
0.0667505
0.0681211
0.0677471
0.0686074
0.0684091
0.0687202
0.0687127
0.0684244
0.0686261
0.0676677
0.0681133
0.067062
-0.377501
-0.526657
-0.457128
-0.0154753
-0.0218033
-0.0288078
-0.0366009
-0.0452403
-0.0552738
0.0461424
-0.464144
-0.535542
-0.066512
-0.0280261
-0.0205029
-0.132801
-0.559842
-0.567298
-0.568154
-0.227995
0.0685371
0.0675797
0.062233
0.0642507
-0.381398
-0.422929
-0.309702
-0.343387
-0.250882
-0.278909
-0.202976
-0.2256
-0.16344
-0.182142
-0.130663
-0.146252
-0.10333
-0.116354
-0.0804275
-0.0913525
-0.0611118
-0.0703462
-0.0447396
-0.0525739
-0.0307829
-0.037473
-0.0188537
-0.0245805
-0.00860635
-0.0135283
0.000224901
-0.00402146
0.00784582
0.00417943
0.0144283
0.011261
0.0201153
0.0173787
0.025022
0.0226623
0.0292427
0.0272148
0.0328547
0.0311221
0.0359215
0.034454
0.0384952
0.0372682
0.0406169
0.0396112
0.042322
0.0415204
0.0436292
0.0430234
0.0445625
0.0441434
0.0450996
0.0448844
0.0452667
0.0452203
0.0453615
0.045331
0.0458731
0.0449807
0.045246
0.0476882
0.0467786
0.0498705
0.0487451
0.0524077
0.0511141
0.0552498
0.0537805
0.0585406
0.0568516
0.0603363
-0.0443647
-0.0360156
-0.00257938
-0.0138707
-0.00794336
0.00746148
0.00253259
0.0163225
0.0120103
0.0240199
0.0202896
0.0307055
0.0274879
0.0364857
0.033699
0.0415224
0.0390902
0.0459398
0.0438028
0.0498419
0.047951
0.0533071
0.0516262
0.0563935
0.0548955
0.0591456
0.0578099
0.0615962
0.0604077
0.0637671
0.0627164
0.0656706
0.0647525
0.0673109
0.0665245
0.0686822
0.0680314
0.0697707
0.0692636
0.0705542
0.0702028
0.0710037
0.0708234
0.071082
0.0710925
0.0707415
0.0709681
0.069936
0.0703949
0.0693107
-0.0771291
-0.104693
-0.573825
-0.0521545
-0.571929
-0.553345
0.0456903
0.0444633
0.0663769
0.0610879
0.0629907
-0.152176
-0.574176
-0.557994
-0.58205
-0.582173
-0.466882
-0.499669
-0.381969
-0.425486
-0.309063
-0.343041
-0.250761
-0.278426
-0.203085
-0.225703
-0.163785
-0.182331
-0.131315
-0.146766
-0.104186
-0.117107
-0.0814153
-0.0922781
-0.0621991
-0.0713869
-0.0458893
-0.0536968
-0.0319724
-0.0386447
-0.0200592
-0.0257757
-0.00981717
-0.0147377
-0.000988545
-0.0052331
0.00663517
0.00296786
0.0132246
0.0100544
0.0189208
0.0161804
0.0238381
0.0214737
0.0280704
0.0260374
0.031695
0.0299566
0.0347754
0.0333016
0.0373639
0.0361298
0.0395025
0.0384883
0.0412258
0.0404151
0.0425553
0.0419384
0.0435136
0.0430809
0.0441035
0.0438553
0.0443654
0.0442707
0.044411
0.0444247
0.0442623
0.0443593
0.047263
0.0463792
0.0493388
0.0482631
0.0517757
0.050539
0.0544775
0.0530905
0.0575646
0.0559685
0.0592533
-0.0416554
-0.0228128
-0.0300372
-0.010286
-0.0164395
0.0012989
-0.00431458
0.0106819
0.00618747
0.0188481
0.0148412
0.026147
0.0226264
0.0325037
0.0294288
0.038052
0.0353762
0.0428967
0.040557
0.0471619
0.045098
0.0509442
0.0491107
0.0543208
0.0526813
0.057351
0.0558782
0.0600788
0.0587522
0.062537
0.0613415
0.064749
0.0636742
0.0667287
0.0657688
0.0684821
0.0676349
0.0700075
0.0692751
0.0712938
0.0706828
0.0723216
0.0718428
0.0730631
0.0727314
0.0734818
0.0733166
0.0735321
0.0735574
0.0731551
0.0734025
0.0722905
0.0727867
0.0708769
0.0716665
0.0439243
0.0650388
0.0686799
0.0698883
-0.0635513
-0.583537
-0.566001
-0.543939
-0.59992
0.0422907
0.067228
-0.529762
0.739212
0.203311
0.204203
-0.102476
0.675757
-0.558284
-0.585951
-0.597735
-0.569641
-0.509964
-0.377869
-0.419082
-0.30577
-0.339569
-0.248584
-0.275594
-0.201709
-0.224023
-0.162966
-0.181247
-0.130887
-0.146166
-0.104119
-0.116883
-0.0816309
-0.092373
-0.0626343
-0.0717265
-0.0464867
-0.0542251
-0.0326912
-0.0393108
-0.0208646
-0.0265443
-0.0106882
-0.0155794
-0.001908
-0.00613038
0.00567976
0.00202917
0.0122435
0.00908516
0.0179214
0.0151896
0.0228262
0.0204677
0.027051
0.0250215
0.0306721
0.0289354
0.0337528
0.0322787
0.036345
0.0351089
0.0384912
0.037473
0.0402259
0.0394093
0.0415736
0.0409472
0.0425581
0.0421109
0.0431936
0.0429196
0.0435019
0.0433872
0.0435385
0.04356
0.0433561
0.0434503
0.0420482
0.0430827
0.0518774
0.0548663
0.0523124
0.0527369
0.0529452
0.0529659
0.0529493
0.0528749
0.0527753
0.052648
0.0524985
0.0523286
0.0521406
0.0519362
0.051717
0.0514847
0.0512406
0.0509862
0.0507228
0.0504519
0.0501748
0.0498927
0.0496069
0.0493187
0.0490293
0.0487399
0.0484516
0.0481654
0.0478825
0.0476038
0.0473303
0.0470628
0.0468022
0.0465493
0.0463047
0.0460691
0.045843
0.0456269
0.0454213
0.0452264
0.0450425
0.0448697
0.0447082
0.0445579
0.0444187
0.0442905
0.044173
0.0440658
0.0439685
0.0438806
0.0438015
0.0437306
0.043667
0.0436101
0.043559
0.0435128
0.0434705
0.0434313
0.043394
0.0433578
0.0433215
0.0432843
0.043245
0.0432028
0.0431567
0.0431059
0.0430499
0.0429885
0.0429204
0.0428414
0.0427496
0.0426659
0.0426335
0.0425829
0.0421436
0.0412837
0.0425302
0.0418854
0.0418393
0.041603
0.0414487
0.0412579
0.0410768
0.0408856
0.0406934
0.0404973
0.0403001
0.0401022
0.0399052
0.0397105
0.0395194
0.0393337
0.0391548
0.0389845
0.0388245
0.0386765
0.0385423
0.0384238
0.0383228
0.0382411
0.0381806
0.0381433
0.0381309
0.0381455
0.0381892
0.0382641
0.0383714
0.0385119
0.0386919
0.0389309
0.0392533
0.0396285
0.0398815
0.0398977
0.0412285
0.0421225
0.041464
0.0416635
0.0432354
0.0430789
0.0452639
0.0451919
0.0467611
0.0460632
0.0487843
0.0477463
0.051106
0.0499288
0.053675
0.0523588
0.0565695
0.0550758
0.0598299
0.0581554
0.0635479
0.0616386
0.0695829
0.0678302
0.0656088
0.188471
0.0702392
0.0728106
0.0754414
0.07827
0.0813162
0.0846787
0.0883528
0.0923881
0.0967825
0.101696
0.107218
0.113377
0.120217
0.12777
0.135815
0.144346
0.154406
0.168724
-0.557061
-0.671936
-0.580764
-0.621287
0.0710973
0.0723275
0.0733047
0.0741133
0.0747745
0.075295
0.0756786
0.0759348
0.0760734
0.0761049
0.0760374
0.0758797
0.0756382
0.0753201
0.0749302
0.0744745
0.0739566
0.0733811
0.0727508
0.0720689
0.0713371
0.0705583
0.0697327
0.0688607
0.0679433
0.0669805
0.0659709
0.0649144
0.0638085
0.0626523
0.0614422
0.0601764
0.0588503
0.0574612
0.0560031
0.054472
0.0528604
0.0511631
0.0493712
0.0474779
0.045472
0.0433447
0.0410841
0.0386789
0.0361095
0.0333415
0.0304569
0.0273895
0.0242004
0.0207311
0.016793
0.0124802
0.0083665
0.00317083
-0.00123686
-0.00703348
-0.0186315
-0.0399157
-0.0813766
-0.182217
0.0720741
0.0747256
0.077495
0.0804399
0.0836111
0.0870551
0.0907882
0.0948501
0.0992598
0.104009
0.109329
0.115121
0.1214
0.128059
0.134903
0.141797
0.150393
0.16276
0.177271
0.1867
0.189877
0.0520039
0.19007
-0.558772
0.17004
0.156896
0.146115
0.135863
0.126402
0.117926
0.110589
0.104159
0.0985203
0.0935814
0.0892124
0.0852837
0.0817536
0.0785342
0.0756588
0.0729303
0.0706934
0.0682843
0.0660327
0.0639331
0.0620623
0.0602631
0.0586216
0.0570643
0.0555735
0.0541734
0.0528549
0.0516111
0.0504273
0.0493176
0.0482497
0.0472909
0.0463313
0.0456917
0.0452045
0.0442931
0.0428099
0.042048
0.0419049
0.0412446
0.0412078
0.0405937
0.0399573
0.0396407
0.0394114
0.0391372
0.0388724
0.0386533
0.0384785
0.0383398
0.0382335
0.0381583
0.0381132
0.0380963
0.0381057
0.0381394
0.0381957
0.0382728
0.0383687
0.0384819
0.0386104
0.0387525
0.0389065
0.0390707
0.0392434
0.039423
0.0396079
0.0397967
0.0399878
0.0401801
0.0403718
0.0405626
0.0407499
0.040936
0.0411131
0.041298
0.0414511
0.0416748
0.0417286
0.0422016
0.041317
0.0422707
0.0425257
0.0424876
0.0425033
0.0425811
0.042667
0.0427428
0.0428105
0.0428727
0.0429298
0.0429818
0.0430294
0.0430733
0.0431144
0.0431536
0.043192
0.0432304
0.0432699
0.0433115
0.0433561
0.0434047
0.0434583
0.0435175
0.0435834
0.0436567
0.043738
0.0438281
0.0439275
0.0440367
0.0441561
0.0442861
0.0444269
0.0445788
0.0447418
0.0449158
0.0451009
0.0452968
0.0455034
0.0457202
0.045947
0.0461831
0.0464281
0.0466814
0.0469422
0.0472098
0.0474833
0.047762
0.0480448
0.0483308
0.048619
0.0489082
0.0491973
0.0494853
0.0497709
0.0500528
0.0503298
0.0506006
0.050864
0.0511185
0.0513628
0.0515956
0.0518153
0.0520206
0.0522097
0.0523812
0.0525327
0.052663
0.0527662
0.052852
0.0528772
0.0530104
0.0524884
0.0521702
0.189111
-0.325406
-0.330316
-0.372182
-0.342516
-0.38208
-0.372909
-0.378624
-0.318794
0.0416594
0.042212
0.0424456
0.0426288
0.0427485
0.0427692
0.0427006
0.0425675
0.0423556
0.0420634
0.0416872
0.0412273
0.0406808
0.0400462
0.0393201
0.0384993
0.0375806
0.036561
0.0354356
0.0342006
0.0328504
0.03138
0.0297827
0.0280524
0.0261811
0.0241612
0.0219833
0.0196381
0.0171142
0.0144003
0.0114829
0.00834796
0.00497908
0.00135921
-0.00253156
-0.00671469
-0.0112131
-0.0160526
-0.0212622
-0.026875
-0.0329261
-0.0394575
-0.0465121
-0.0541382
-0.0623939
-0.0713399
-0.081045
-0.0916002
-0.103098
-0.115636
-0.129331
-0.144352
-0.16089
-0.178515
-0.198557
-0.220495
-0.244507
-0.27099
-0.300396
-0.333131
-0.369812
-0.407688
-0.531357
-0.573638
-0.574473
-0.572346
-0.595777
-0.598967
-0.598162
-0.607477
-0.613752
-0.614016
-0.611947
-0.61749
-0.620619
-0.602315
-0.607569
-0.621718
-0.604197
0.0412578
0.0414734
0.0416661
0.0413351
0.041837
0.0413752
0.0419798
0.0414599
0.0420693
0.041483
0.0420619
0.0414339
0.0419733
0.0413206
0.0418198
0.0411464
0.0415907
0.0409007
0.0412838
0.040581
0.0408963
0.0401843
0.0404272
0.0397087
0.039874
0.0391517
0.0392346
0.0385106
0.038506
0.0377825
0.0376847
0.0369642
0.0367678
0.0360524
0.0357515
0.0350433
0.0346316
0.0339328
0.0334036
0.0327163
0.0320625
0.0313891
0.0306029
0.0299456
0.0290187
0.0283799
0.0273032
0.0266856
0.0254494
0.0248555
0.0234489
0.0228819
0.0212935
0.0207563
0.0189731
0.0184693
0.0164777
0.0160108
0.0137951
0.0133695
0.0109134
0.0105333
0.00781773
0.00748842
0.00449348
0.00422027
0.000922722
0.000712042
-0.00291228
-0.00305398
-0.00703361
-0.00709784
-0.0114617
-0.011441
-0.0162231
-0.0161079
-0.0213441
-0.0211214
-0.0268589
-0.026518
-0.0327992
-0.0323276
-0.0392069
-0.0385883
-0.0461217
-0.0453397
-0.0535931
-0.0526288
-0.0616745
-0.0605082
-0.0704261
-0.0690412
-0.0798981
-0.0782145
-0.0902066
-0.0882591
-0.101421
-0.0991565
-0.113648
-0.111021
-0.126989
-0.123973
-0.141593
-0.138115
-0.157567
-0.153573
-0.175016
-0.170508
-0.194322
-0.189124
-0.21556
-0.209597
-0.23889
-0.232145
-0.264623
-0.257022
-0.293219
-0.284612
-0.32474
-0.315321
-0.359337
-0.349604
-0.396577
-0.3879
-0.436707
-0.43039
-0.481483
-0.476314
-0.526092
-0.518123
-0.564486
-0.556208
-0.593244
-0.585821
-0.611743
-0.605166
-0.620254
-0.614612
-0.618401
-0.615401
-0.598168
-0.608083
-0.594421
-0.570046
-0.571683
-0.546199
-0.505688
-0.453358
0.0547967
0.0546202
0.0537328
0.0535201
0.0531171
0.0532296
0.0528501
0.0527597
0.0523058
0.0520389
0.0518683
0.0514472
0.0510687
0.0507058
0.0503192
0.0499074
0.0494771
0.0490307
0.0485684
0.0480911
0.0476011
0.0471
0.0465895
0.0460715
0.0455504
0.0450355
0.0445539
0.0440325
0.0434419
0.0429075
0.0422622
0.041976
0.041311
0.0406017
0.0400296
0.039534
0.0390894
0.0383813
0.0377922
0.0372649
0.036851
0.0362006
0.0355894
0.0350249
0.0344801
0.0336319
0.0333019
0.0326153
0.0319353
0.0311162
0.0307272
0.0298632
0.0292735
0.0287384
0.0278788
0.0270714
0.0263386
0.0256289
0.0247805
0.0240316
0.0230268
0.0221198
0.0214738
0.0203013
0.0195137
0.0186574
0.0175265
0.0165858
0.0157317
0.0147907
0.0140217
0.0127564
0.0122012
0.041322
0.0398058
0.0397242
0.0396068
0.0392984
0.0389856
0.0387458
0.0385664
0.0384261
0.0383181
0.0382425
0.0381988
0.0381854
0.0381998
0.0382401
0.0383043
0.0383903
0.0384962
0.0386201
0.03876
0.0389141
0.0390805
0.0392573
0.0394428
0.0396353
0.039833
0.0400345
0.040238
0.0404424
0.040646
0.0408483
0.0410466
0.0412433
0.0414308
0.0416237
0.0417903
0.0419969
0.0420997
0.0423292
0.0422014
0.0424235
0.0427147
0.0428344
0.042895
0.0429754
0.0430658
0.0431475
0.043218
0.0432806
0.0433374
0.0433887
0.0434351
0.0434774
0.0435164
0.0435532
0.0435889
0.0436243
0.0436605
0.0436986
0.0437394
0.0437841
0.0438336
0.0438887
0.0439504
0.0440194
0.0440964
0.0441821
0.0442772
0.0443821
0.0444974
0.0446233
0.0447601
0.044908
0.0450672
0.0452376
0.0454191
0.0456117
0.045815
0.0460288
0.0462527
0.0464861
0.0467286
0.0469795
0.0472381
0.0475036
0.0477753
0.0480523
0.0483336
0.0486182
0.0489051
0.0491932
0.0494814
0.0497685
0.0500532
0.0503344
0.0506108
0.0508809
0.0511436
0.0513974
0.0516409
0.0518727
0.0520912
0.0522948
0.052482
0.0526508
0.0527989
0.0529241
0.053022
0.0530882
0.0531131
0.0530789
0.0530735
0.0528627
0.0536549
0.0528141
0.0536471
0.054045
0.0540916
0.0537944
0.0534719
0.0532722
0.0529837
0.0527581
0.0526354
0.0522083
0.0518421
0.0515547
0.0511769
0.0507819
0.0503781
0.0499574
0.0495194
0.0490657
0.0485972
0.0481153
0.047622
0.047119
0.0466079
0.0460899
0.0455658
0.0450357
0.0445002
0.0439919
0.0434664
0.0429445
0.042327
0.0417809
0.0412537
0.0406534
0.0400877
0.0395226
0.0389973
0.0384219
0.0377721
0.0372222
0.0368387
0.0363051
0.0356209
0.0349722
0.0344148
0.0337783
0.0332097
0.0326197
0.0319549
0.0312497
0.0306496
0.0300168
0.0293464
0.0286929
0.027959
0.027168
0.0264344
0.0256312
0.0250406
0.0240306
0.0231788
0.0223605
0.0215549
0.0206219
0.0197291
0.0188391
0.0178668
0.0169026
0.0160576
0.0151777
0.0142817
0.0131948
0.0410149
0.0402978
0.039909
0.0396507
0.0393493
0.0390462
0.0387973
0.038606
0.0384583
0.0383462
0.0382684
0.038224
0.0382112
0.0382276
0.038271
0.0383392
0.0384302
0.0385418
0.0386721
0.0388189
0.0389804
0.0391545
0.0393394
0.0395332
0.0397341
0.0399404
0.0401505
0.0403626
0.0405756
0.0407876
0.0409981
0.0412047
0.0414086
0.0416045
0.0418001
0.0419773
0.0421637
0.0422992
0.0424687
0.0425732
0.0426876
0.0428794
0.0430285
0.0431259
0.0432144
0.0433049
0.0433893
0.0434638
0.0435298
0.0435891
0.0436427
0.0436911
0.043735
0.0437754
0.0438133
0.0438496
0.0438855
0.0439219
0.0439598
0.0440002
0.0440442
0.0440926
0.0441465
0.0442066
0.0442738
0.0443488
0.0444323
0.044525
0.0446273
0.0447398
0.0448628
0.0449966
0.0451414
0.0452973
0.0454644
0.0456426
0.0458318
0.0460318
0.0462423
0.0464629
0.0466931
0.0469324
0.0471802
0.0474359
0.0476988
0.0479679
0.0482425
0.0485215
0.0488042
0.0490894
0.049376
0.0496629
0.049949
0.050233
0.0505137
0.0507898
0.05106
0.0513229
0.0515771
0.0518212
0.0520537
0.0522732
0.052478
0.0526664
0.0528366
0.0529865
0.0531139
0.053216
0.0532899
0.053334
0.0533504
0.0533508
0.0533888
0.0534534
0.0534294
0.0536975
0.0541413
0.0541812
0.0539827
0.0536885
0.0534325
0.0531846
0.0529095
0.0526883
0.0523397
0.0519631
0.0516684
0.0513091
0.050909
0.0504951
0.0500682
0.0496259
0.0491682
0.048696
0.0482108
0.0477151
0.0472108
0.0466998
0.0461833
0.0456625
0.0451377
0.0446128
0.0440848
0.0435699
0.043007
0.0424383
0.0418088
0.0412362
0.0407011
0.0401433
0.0395918
0.0390337
0.0385075
0.0378803
0.0373426
0.036914
0.0364528
0.0357315
0.0350455
0.0344767
0.0338955
0.0333034
0.0327087
0.0320838
0.0314245
0.0307936
0.0301298
0.029479
0.028825
0.0281048
0.0273624
0.0266398
0.0258594
0.0251877
0.024139
0.0234432
0.0226596
0.0218143
0.0209306
0.0200454
0.0191557
0.0182581
0.0173502
0.0164985
0.0155947
0.0146612
0.0138311
0.0136037
0.0134096
0.0132493
0.0128324
0.0121704
0.0104384
0.0409978
0.0405023
0.0400263
0.0396643
0.0393501
0.0390589
0.0388087
0.0386089
0.0384545
0.0383391
0.0382599
0.0382153
0.0382034
0.038222
0.0382686
0.0383411
0.0384372
0.0385548
0.0386918
0.0388459
0.0390152
0.0391975
0.039391
0.0395937
0.0398037
0.0400193
0.0402387
0.0404603
0.0406826
0.040904
0.0411236
0.0413393
0.0415515
0.0417563
0.0419572
0.0421442
0.0423298
0.0424904
0.0426602
0.0427963
0.0429205
0.0430795
0.0432319
0.0433512
0.0434518
0.0435468
0.0436358
0.0437161
0.0437876
0.0438517
0.0439096
0.043962
0.0440097
0.0440534
0.0440943
0.0441334
0.0441715
0.0442098
0.0442493
0.0442909
0.0443357
0.0443846
0.0444385
0.0444984
0.0445649
0.044639
0.0447212
0.0448122
0.0449126
0.0450229
0.0451434
0.0452744
0.0454163
0.0455691
0.0457328
0.0459075
0.0460931
0.0462894
0.0464961
0.0467128
0.0469392
0.0471748
0.0474188
0.0476709
0.0479301
0.0481958
0.0484671
0.0487432
0.049023
0.0493055
0.0495898
0.0498746
0.0501589
0.0504414
0.0507209
0.0509961
0.0512657
0.0515284
0.0517827
0.0520272
0.0522604
0.0524809
0.0526871
0.0528774
0.05305
0.0532033
0.0533356
0.0534452
0.0535315
0.0535956
0.05364
0.053678
0.0537027
0.0537889
0.0538563
0.0540074
0.0542282
0.0542588
0.0540893
0.0538474
0.0536133
0.0533801
0.0531227
0.0528523
0.0525399
0.0521981
0.0518605
0.051496
0.0510993
0.0506838
0.050254
0.0498092
0.0493491
0.0488746
0.0483874
0.0478898
0.0473839
0.0468713
0.0463532
0.0458308
0.0453034
0.0447725
0.0442334
0.0437007
0.0431493
0.0425842
0.0419645
0.0414071
0.0408716
0.040323
0.0397717
0.0392124
0.0386691
0.0380614
0.0375347
0.0370667
0.0365668
0.0358692
0.0352343
0.0346627
0.0340875
0.0334967
0.0328944
0.0322765
0.0316377
0.0310008
0.0303518
0.0296975
0.0290319
0.0283333
0.0276106
0.0268844
0.0261291
0.0253678
0.024546
0.0237681
0.0229717
0.0221423
0.0212885
0.0204264
0.0195618
0.0186919
0.0178171
0.0169527
0.0160885
0.0152539
0.0145143
0.0140579
0.0137344
0.013288
0.0126006
0.0118691
0.0109661
0.0409986
0.0405144
0.040038
0.0396416
0.0393132
0.0390253
0.0387762
0.0385724
0.0384141
0.0382971
0.0382181
0.0381749
0.0381655
0.0381876
0.0382389
0.038317
0.0384196
0.0385445
0.0386894
0.0388521
0.0390304
0.0392222
0.0394254
0.0396381
0.0398583
0.0400842
0.040314
0.040546
0.0407786
0.0410103
0.0412399
0.0414656
0.0416871
0.0419016
0.0421103
0.0423083
0.0425006
0.042678
0.0428501
0.0430045
0.043149
0.0433018
0.0434515
0.0435814
0.0436936
0.0437962
0.0438917
0.0439789
0.0440575
0.0441283
0.0441924
0.0442508
0.044304
0.0443532
0.0443991
0.0444428
0.0444853
0.0445275
0.0445705
0.0446153
0.0446629
0.0447141
0.0447699
0.0448312
0.0448987
0.0449734
0.0450557
0.0451465
0.0452462
0.0453553
0.0454743
0.0456035
0.0457431
0.0458933
0.0460542
0.0462258
0.0464079
0.0466006
0.0468034
0.0470162
0.0472385
0.0474698
0.0477096
0.0479574
0.0482124
0.0484739
0.0487411
0.0490132
0.0492891
0.049568
0.0498489
0.0501305
0.0504119
0.0506918
0.050969
0.0512422
0.0515102
0.0517715
0.0520249
0.0522689
0.052502
0.0527228
0.0529299
0.0531216
0.0532966
0.0534533
0.0535907
0.0537079
0.0538048
0.0538834
0.0539447
0.0539997
0.0540441
0.0541236
0.0541961
0.0542821
0.0543647
0.0543579
0.0542355
0.0540465
0.0538359
0.0536098
0.0533585
0.0530833
0.0527802
0.0524482
0.0520989
0.0517301
0.0513367
0.0509226
0.0504919
0.0500454
0.0495837
0.0491078
0.0486195
0.0481206
0.047613
0.047098
0.0465767
0.0460502
0.0455186
0.0449831
0.044442
0.0438976
0.0433421
0.0427758
0.0422024
0.0416453
0.0410978
0.0405467
0.0399932
0.039436
0.0388834
0.038327
0.0377855
0.0372527
0.0366986
0.0360957
0.0354937
0.0349124
0.0343315