/*--------------------------------*- C++ -*----------------------------------*\
  =========                 |
  \\      /  F ield         | OpenFOAM: The Open Source CFD Toolbox
   \\    /   O peration     | Website:  https://openfoam.org
    \\  /    A nd           | Version:  10
     \\/     M anipulation  |
\*---------------------------------------------------------------------------*/
FoamFile
{
    format      ascii;
    class       volScalarField;
    location    "9.5";
    object      p;
}
// * * * * * * * * * * * * * * * * * * * * * * * * * * * * * * * * * * * * * //

dimensions      [0 2 -2 0 0 0 0];

internalField   nonuniform List<scalar> 
33313
(
-0.012556
-0.0133506
-0.00920855
-0.0150724
-0.00129482
-0.000593184
-0.00182748
0.00949219
0.00830561
-0.0107575
-0.00644927
-0.326016
-0.326513
-0.326419
0.00861695
-0.00910697
0.0122009
-0.266777
-0.358923
-0.311665
-0.227898
0.788929
0.712002
0.852881
0.853496
0.185176
0.19016
0.192233
0.181493
0.172745
0.184505
0.207967
0.216234
-0.434628
-0.446878
-0.436457
-0.418062
-0.0331096
-0.0396272
-0.201306
-0.191145
0.278775
0.263632
-0.419966
-0.33923
-0.357044
0.750351
0.825665
-0.0139841
-0.0135955
0.181568
0.209978
0.210578
0.257522
0.177296
0.202247
0.438131
0.556651
0.448201
0.355104
0.456433
0.841444
0.906762
0.935604
-0.0193887
-0.0378835
-0.231277
-0.130324
-0.132118
-0.4315
-0.435203
-0.429333
-0.381561
-0.224291
-0.408214
-0.40837
-0.412826
-0.415437
-0.117208
-0.165113
0.559384
0.548577
0.570427
-0.267708
-0.286455
-0.311703
-0.401125
-0.381189
-0.379842
0.923793
-0.375475
-0.389469
-0.379187
-0.366909
-0.36364
0.169547
0.158954
-0.000924189
-0.00272372
-0.217621
-0.198823
-0.261697
-0.301315
-0.297417
-0.324484
-0.451948
-0.492068
-0.482527
-0.452252
-0.0664415
0.11477
0.0564938
-0.0777383
-0.642729
-0.752469
-0.589359
0.914295
0.875521
-0.288734
-0.285626
-0.398077
-0.399556
-0.397927
-0.0189389
-0.0166953
-0.0321389
0.358669
-0.144653
-0.144516
-0.336952
-0.343239
-0.36807
-0.372804
0.137116
0.119039
0.00333497
0.0705395
-0.103898
-0.0187305
0.196138
0.0879718
0.311101
-0.131096
-0.128106
-0.144965
0.00609837
0.0014354
0.00123758
-0.00292692
0.306754
0.287094
0.316426
0.300545
0.439282
0.444643
0.414526
0.419391
-0.411753
-0.42311
-0.423949
-0.378796
0.128923
0.167176
0.28604
0.183349
-0.321594
-0.322819
-0.321771
-0.392796
-0.0101933
-0.00888352
0.0234405
0.0225134
0.0364282
0.0358411
0.184367
0.168015
-0.319506
-0.328172
-0.0851956
-0.0925315
-0.0070521
-0.0100517
0.152363
0.15189
-0.418493
-0.417232
-0.33611
-0.34847
-0.339872
-0.410393
0.548098
0.522803
-0.366909
-0.377126
0.430968
0.452106
0.456445
0.354635
0.376651
0.365967
0.569952
0.546339
0.139739
0.145714
-0.323709
-0.325089
-0.165026
-0.275266
0.159027
0.154016
-0.00500029
-0.00119728
-0.00473685
-0.00739093
0.00540522
-0.306614
-0.315154
0.356301
0.358897
0.338422
0.334141
-0.267696
-0.270151
-0.249786
0.193271
0.212446
0.183618
-0.35113
-0.348399
-0.351047
-0.119379
-0.0741524
0.0256165
0.0315817
0.0303781
-0.469468
0.237056
0.0686118
0.0670013
0.0648886
0.0627846
0.060367
0.0583147
0.0562759
0.0542616
0.0523109
0.0504326
0.0486305
0.0468963
0.0452325
0.0436333
0.0421013
0.0406314
0.0392251
0.0378761
0.0365862
0.0353554
0.0341557
0.033013
0.0319172
0.0308706
0.0298543
0.0289017
0.0279283
0.0270345
0.0261376
0.0252701
0.0244727
0.0236902
0.0694159
0.0718064
0.0716479
0.0715613
0.022182
0.0229448
0.024544
0.0229813
0.0237683
0.0261444
0.0253464
0.0279243
0.0270506
0.0297932
0.0288591
0.0318045
0.0307835
0.0339857
0.0328737
0.036358
0.0351488
0.0389426
0.0376224
0.041765
0.0403231
0.0448445
0.0432712
0.0481995
0.0464871
0.0518384
0.0499832
0.0557388
0.0537602
0.0599572
0.0577793
0.0643644
0.0622568
0.0668472
0.0742787
0.0741798
0.022399
0.0740491
0.0216922
0.0215338
0.0766911
0.0765376
0.0217009
0.0221694
0.0764696
0.0214672
0.0790803
0.0787948
0.0790251
0.0709306
0.0758537
0.0734168
0.0667466
0.0686209
0.06249
0.0649346
0.0580936
0.0602029
0.0541196
0.0560849
0.0503614
0.0522084
0.0468698
0.0485837
0.0436316
0.0452203
0.0406376
0.0421054
0.037873
0.0392285
0.0353104
0.0365707
0.0329827
0.0341286
0.0308191
0.0318782
0.0288131
0.0297921
0.0269763
0.0278273
0.0252528
0.0260704
0.0236486
0.0244431
0.0229002
0.0209674
0.0207528
0.0208606
0.0230694
0.0217336
0.0224251
0.0245013
0.023761
0.0261188
0.0253175
0.0278431
0.0269655
0.0296673
0.0287419
0.0316329
0.0306328
0.0337628
0.0326769
0.0360781
0.0348968
0.038604
0.0373133
0.0413671
0.0399552
0.0443898
0.0428446
0.0476954
0.0460068
0.0512981
0.0494595
0.0551914
0.0532095
0.0594365
0.0572602
0.0639483
0.0616953
0.0687344
0.0663387
0.0737786
0.0711899
0.0789231
0.0762907
0.0209792
0.0781396
0.0815077
0.0814895
0.0201023
0.0206366
0.0199776
0.0809094
0.0216961
0.0210132
0.0210073
0.0802256
0.0812942
0.0748083
0.0790279
0.0770452
0.0702145
0.0725203
0.0661517
0.0681193
0.0619381
0.0641746
0.0576678
0.0597246
0.0538035
0.0557122
0.0501323
0.0519405
0.0466983
0.0483858
0.0434993
0.0450704
0.0405285
0.0419863
0.0377764
0.0391262
0.0352304
0.0364791
0.0328851
0.0340357
0.0307131
0.031778
0.0286971
0.0296875
0.0268465
0.0277523
0.0251382
0.025967
0.0235312
0.0243215
0.0220604
0.0227812
0.0213353
0.0202913
0.0201996
0.0203443
0.0203195
0.0230384
0.0223689
0.0244553
0.0237469
0.0260387
0.0252199
0.0277033
0.0268488
0.0294888
0.0285811
0.0314072
0.0304306
0.0334821
0.0324243
0.035736
0.0345859
0.0381942
0.0369384
0.040885
0.0395095
0.0438327
0.0423259
0.0470642
0.0454115
0.0506029
0.0487951
0.0544582
0.0524901
0.0586759
0.0565201
0.0632107
0.0609122
0.0679984
0.0655927
0.0731454
0.0705107
0.0784374
0.0757696
0.0841741
0.0838456
0.0810994
0.0823557
0.0811433
0.0831641
0.0841515
0.0203402
0.0865792
0.0868052
0.0194681
0.0193385
0.0204939
0.0845611
0.0833104
0.0198339
0.0837685
0.0774975
0.0814386
0.0794464
0.0733898
0.0755368
0.0691614
0.0713066
0.0650917
0.0671015
0.0609924
0.0630861
0.0569639
0.0589351
0.0532176
0.0550674
0.049654
0.0514115
0.0463033
0.0479517
0.043169
0.0447098
0.0402469
0.0416821
0.0375307
0.038864
0.0350107
0.0362473
0.0326792
0.0338226
0.0305201
0.0315797
0.0285186
0.029502
0.026671
0.0275829
0.0249614
0.025805
0.0233597
0.0241448
0.0218938
0.0226109
0.0211689
0.019659
0.0195676
0.0197325
0.0197039
0.0216111
0.0203072
0.020958
0.0229521
0.0222667
0.0243707
0.0236551
0.0259003
0.0251106
0.0275288
0.0266981
0.0292717
0.028385
0.031143
0.0301905
0.033163
0.0321336
0.0353538
0.0342362
0.0377408
0.0365217
0.0403519
0.0390171
0.0432145
0.0417509
0.0463563
0.0447491
0.0498058
0.0480422
0.0535844
0.0516529
0.057725
0.0556094
0.0622263
0.059931
0.0670606
0.064611
0.0722137
0.0696037
0.0776116
0.0749112
0.0831628
0.0803653
0.0894004
0.0888648
0.0859661
0.0197308
0.085156
0.0832897
0.0854683
0.0866972
0.0191965
0.09178
0.0878407
0.0908073
0.0866044
0.0895464
0.0922508
0.0871226
0.020225
0.0196937
0.019616
0.0851234
0.0862274
0.0791551
0.0827148
0.0809721
0.0754972
0.07735
0.0716291
0.0736015
0.0676387
0.0696547
0.0636586
0.0656346
0.0597652
0.0617097
0.0559592
0.0578401
0.0523507
0.0541323
0.0489183
0.0506124
0.0456771
0.0472733
0.0426332
0.044131
0.0397845
0.041185
0.037127
0.0384326
0.0346543
0.0358683
0.0323597
0.0334858
0.030231
0.0312758
0.0282576
0.0292264
0.0264297
0.027328
0.0247328
0.0255671
0.0231539
0.0239255
0.0216907
0.0223967
0.0203289
0.0209722
0.0190379
0.0196657
0.018861
0.0186017
0.0187408
0.0190533
0.0189632
0.0191199
0.0190991
0.0190692
0.0191084
0.0214892
0.020865
0.0228199
0.0221424
0.0242237
0.023513
0.0257176
0.0249581
0.0273133
0.0265027
0.0290166
0.0281507
0.0308431
0.0299138
0.0328109
0.0318086
0.0349408
0.0338547
0.037257
0.0360745
0.0397868
0.038494
0.0425592
0.0411415
0.0456041
0.0440464
0.0489509
0.0472389
0.0526285
0.0507469
0.0566647
0.0546019
0.0610699
0.0588207
0.0658517
0.0634158
0.0710116
0.0683884
0.0764475
0.0737145
0.0820822
0.0792505
0.0849342
0.0947002
0.0937786
0.018437
0.0866924
0.0841635
0.0878208
0.0893162
0.0190136
0.0888114
0.0923171
0.0888806
0.095133
0.0967498
0.0976651
0.0883137
0.0188643
0.018252
0.085677
0.0887519
0.0797542
0.0824883
0.0812572
0.0765758
0.0782287
0.0731233
0.0748822
0.0694983
0.071351
0.0657088
0.067609
0.0619474
0.0638175
0.0582773
0.0601039
0.0546824
0.0564658
0.051239
0.0529401
0.047958
0.0495785
0.0448471
0.0463808
0.0419141
0.0433587
0.0391591
0.0405148
0.0365802
0.0378482
0.0341731
0.0353558
0.0319322
0.0330327
0.029849
0.0308718
0.0279145
0.0288643
0.0261185
0.0270002
0.0244494
0.0252687
0.0228958
0.0236569
0.0214494
0.0221541
0.0201192
0.0207484
0.0194653
0.0179891
0.0176494
0.0178298
0.0182676
0.0181412
0.0184536
0.0183715
0.0185225
0.0184997
0.0184835
0.0185132
0.0184184
0.020096
0.0189099
0.0195014
0.0213311
0.0207106
0.0226433
0.0219815
0.0240257
0.0233256
0.0254926
0.0247489
0.0270549
0.0262616
0.028722
0.0278749
0.0305071
0.0295993
0.0324265
0.0314494
0.0344992
0.0334429
0.0367479
0.0356006
0.0391987
0.0379469
0.0418802
0.0405094
0.0448234
0.0433179
0.0480588
0.0464034
0.0516182
0.0497967
0.0555288
0.0535294
0.059806
0.0576215
0.064464
0.0620872
0.0695177
0.0669492
0.0749279
0.0721874
0.0805262
0.0776917
0.086336
0.0833846
0.0922603
0.089271
0.0996985
0.0983009
0.0952972
0.0862969
0.0829516
0.090204
0.0920012
0.101231
0.102723
0.0908286
0.095105
0.090687
0.0980357
0.0170829
0.0174599
0.0169013
0.0893248
0.100641
0.0871562
0.0183089
0.0836445
0.0912796
0.0788228
0.0798273
0.0793384
0.0765716
0.0778644
0.0736293
0.0751367
0.0704424
0.0720788
0.06703
0.068757
0.0635154
0.0652768
0.060012
0.0617582
0.0565659
0.0582821
0.0531857
0.0548646
0.0499274
0.0515392
0.0468115
0.0483517
0.0438458
0.0453095
0.041039
0.0424226
0.0383931
0.0396962
0.0359078
0.0371308
0.0335807
0.034725
0.0314075
0.0324755
0.0293822
0.0303771
0.027497
0.0284229
0.0257435
0.0266046
0.0241118
0.0249129
0.0225914
0.0233372
0.0211743
0.021867
0.0198661
0.0204942
0.0186556
0.0192303
0.0180467
0.0174179
0.017255
0.0176836
0.017559
0.0178648
0.0177853
0.0179415
0.0179137
0.0179164
0.0179461
0.0187557
0.0181794
0.0177515
0.0178462
0.0199152
0.0193404
0.0211334
0.0205134
0.0224214
0.02177
0.0237798
0.0230914
0.0252207
0.0244899
0.0267529
0.025975
0.0283867
0.0275567
0.0301337
0.0292456
0.0320084
0.0310545
0.0340279
0.0329993
0.0362131
0.0350988
0.0385883
0.0373759
0.0411812
0.0398564
0.0440217
0.0425693
0.0471405
0.0455451
0.0505695
0.048815
0.0543364
0.0524102
0.05846
0.0563536
0.0629509
0.06066
0.0678244
0.0653332
0.0730677
0.0704044
0.0785802
0.0758026
0.0842621
0.0813734
0.0901996
0.0872254
0.096094
0.0930468
0.104167
0.101594
0.0988493
0.0842034
0.080231
0.105685
0.106895
0.104272
0.0924838
0.0946627
0.0928567
0.097906
0.0165559
0.0163813
0.0921107
0.100957
0.0904935
0.103665
0.0880215
0.0176195
0.080419
0.0846776
0.108627
0.109697
0.106925
0.0802358
0.0761374
0.017253
0.0167089
0.0756556
0.0937862
0.0758681
0.076077
0.0749473
0.0754247
0.0730557
0.0741186
0.0704086
0.0717855
0.0674818
0.0689739
0.0643639
0.0659409
0.0611442
0.0627614
0.0579013
0.0595219
0.0546852
0.0562883
0.0515247
0.0530958
0.0484615
0.049979
0.045519
0.0469747
0.0427079
0.0440966
0.0400375
0.041355
0.0375114
0.0387565
0.0351308
0.0363032
0.0328944
0.0339949
0.0307993
0.0318297
0.0288412
0.0298037
0.027014
0.0279118
0.0253105
0.0261474
0.0237229
0.0245027
0.0222421
0.022969
0.0208617
0.0215377
0.0195812
0.0202024
0.0184019
0.018969
0.017811
0.0168639
0.0167143
0.0171187
0.0169997
0.0172948
0.0172168
0.0173742
0.0173464
0.0173463
0.0173746
0.0171904
0.0172871
0.103176
0.10931
0.10542
0.0170642
0.0185588
0.0174511
0.0180096
0.0196884
0.0191212
0.0208883
0.020282
0.0221528
0.021513
0.0234878
0.0228112
0.0249033
0.0241852
0.0264078
0.0256441
0.0280104
0.0271965
0.0297216
0.028852
0.0315542
0.0306222
0.0335236
0.0325211
0.0356488
0.0345659
0.0379521
0.0367771
0.0404591
0.039179
0.0431981
0.0417984
0.0461983
0.0446643
0.04949
0.0478066
0.0530999
0.0512545
0.0570485
0.0550317
0.0613476
0.0591546
0.0660029
0.0636306
0.0709967
0.0684605
0.0762774
0.0736088
0.081766
0.0789969
0.0873783
0.084577
0.0931864
0.0902875
0.0983795
0.0957803
0.10084
0.0947356
0.0972912
0.0161892
0.0946419
0.100691
0.0936612
0.103888
0.0917469
0.106638
0.0888674
0.0847679
0.0749864
0.0797992
0.111576
0.112351
0.10739
0.111566
0.0169124
0.0739665
0.0701651
0.0172551
0.016729
0.0690095
0.0962337
0.0717344
0.0711402
0.0716916
0.0718076
0.0708988
0.0713342
0.069307
0.0702116
0.066998
0.0682087
0.0643904
0.0657216
0.0615848
0.0630085
0.0586528
0.0601297
0.0556691
0.0571635
0.0526889
0.0541761
0.049749
0.0512119
0.0468842
0.0483054
0.0441194
0.0454885
0.041468
0.042779
0.0389399
0.0401883
0.0365402
0.037724
0.0342711
0.0353895
0.0321326
0.0331858
0.0301227
0.0311119
0.0282383
0.0291653
0.0264749
0.027342
0.0248269
0.0256369
0.0232877
0.0240441
0.021851
0.0225566
0.0205112
0.0211681
0.0192655
0.0198739
0.0181112
0.018669
0.0170228
0.0175461
0.015984
0.0164941
0.0160594
0.0157024
0.0158891
0.0163431
0.0162105
0.0165766
0.0164658
0.0167449
0.0166698
0.0168241
0.0167966
0.0167993
0.0168246
0.0166509
0.0167434
0.0163854
0.0165326
0.0183204
0.0177911
0.0194273
0.0188638
0.0206017
0.0200072
0.0218416
0.0212135
0.0231532
0.0224883
0.0245442
0.0238386
0.026022
0.025272
0.0275944
0.0267961
0.029271
0.0284193
0.0310628
0.0301519
0.0329837
0.0320064
0.0350509
0.0339982
0.0372846
0.0361459
0.0397079
0.0384714
0.0423466
0.0409992
0.0452277
0.0437557
0.0483785
0.0467683
0.0518235
0.0500635
0.0555818
0.0536632
0.0596648
0.057583
0.0640733
0.0618296
0.0687845
0.0663942
0.0737552
0.0712416
0.0789255
0.0763217
0.0842094
0.0815557
0.0895635
0.0869116
0.0944454
0.092047
0.0988516
0.0966885
0.102554
0.100788
0.10912
0.104013
0.0155012
0.0968361
0.0998705
0.0162181
0.0965206
0.103443
0.0952119
0.106778
0.0928521
0.109597
0.0892541
0.0846929
0.0790512
0.0674013
0.0726029
0.114351
0.114854
0.113671
0.11075
0.105128
0.0653814
0.0623267
0.0157595
0.0152823
0.0601509
0.0985754
0.0654564
0.0641479
0.0671806
0.0665335
0.0673851
0.0674426
0.066789
0.0671804
0.0654772
0.0662368
0.0635239
0.0645551
0.0612454
0.0624163
0.0587428
0.060018
0.0560911
0.0574306
0.0533654
0.0547336
0.0506219
0.0519932
0.0479003
0.0492563
0.0452337
0.0465584
0.0426475
0.0439296
0.0401573
0.0413898
0.0377739
0.0389519
0.0355036
0.0366245
0.0333497
0.0344122
0.031313
0.0323169
0.0293925
0.0303385
0.0275859
0.0284753
0.02589
0.0267245
0.0243005
0.0250823
0.0228128
0.0235442
0.0214225
0.0221056
0.0201256
0.0207621
0.0189182
0.0195098
0.0177948
0.0183437
0.0167534
0.0172561
0.0162511
0.0152132
0.0148064
0.0150183
0.0155538
0.0153927
0.0158322
0.0156995
0.0160544
0.0159502
0.0162139
0.0161426
0.0162923
0.0162643
0.0162699
0.0162949
0.0161402
0.0162193
0.0158895
0.0160272
0.098925
0.105969
0.0993749
0.0157228
0.017021
0.016022
0.0165173
0.0180484
0.0175345
0.0191301
0.0185803
0.0202782
0.0196963
0.0214935
0.0208773
0.0227816
0.0221283
0.0241483
0.0234549
0.0255994
0.024863
0.0271417
0.0263589
0.0287833
0.0279497
0.0305342
0.0296446
0.0324069
0.0314547
0.0344165
0.0333938
0.0365812
0.0354785
0.0389216
0.0377284
0.0414605
0.0401651
0.0442218
0.0428122
0.0472293
0.0456938
0.0505042
0.0488327
0.0540627
0.0522478
0.0579132
0.0559518
0.0620527
0.0599483
0.0664568
0.0642247
0.0710809
0.0687451
0.0758649
0.073459
0.0807275
0.0782892
0.0855703
0.0831713
0.0900291
0.0878726
0.0939911
0.0921111
0.0970346
0.0956801
0.0981252
0.0989494
0.102408
0.098309
0.10613
0.0965337
0.109609
0.0143625
0.0145924
0.014157
0.0935331
0.112474
0.0894532
0.084176
0.0780067
0.0708283
0.0575591
0.0629539
0.117038
0.117218
0.115535
0.111974
0.0994396
0.106422
0.0155318
0.0544993
0.0524222
0.0157935
0.0153253
0.049239
0.100896
0.0574628
0.0551954
0.0607107
0.0592831
0.0625398
0.0617981
0.0630629
0.0629366
0.0626903
0.0629696
0.0616498
0.0622502
0.0600504
0.0609063
0.0580898
0.0591063
0.0558802
0.057011
0.0535028
0.0547075
0.0510309
0.0522747
0.0485203
0.0497776
0.0460128
0.047264
0.0435414
0.0447708
0.0411321
0.0423278
0.038802
0.0399564
0.0365629
0.0376706
0.0344225
0.0354802
0.0323849
0.0333908
0.0304516
0.0314052
0.0286223
0.0295241
0.0268956
0.0277464
0.025269
0.02607
0.0237397
0.0244924
0.022305
0.0230107
0.0209625
0.0216223
0.0197098
0.0203248
0.0185438
0.0191157
0.0174594
0.0179909
0.0164538
0.0169438
0.0155135
0.0159755
0.0150522
0.0147391
0.0145522
0.0150657
0.0149142
0.0153342
0.0152056
0.0155483
0.0154486
0.0157003
0.0156326
0.0157761
0.0157486
0.0157584
0.0157804
0.015636
0.015709
0.0154059
0.0155366
0.0150633
0.0152447
0.0167543
0.0162773
0.0177479
0.0172432
0.0188033
0.0182679
0.0199242
0.0193555
0.0211148
0.0205107
0.0223791
0.0217376
0.023721
0.0230402
0.0251448
0.0244225
0.026656
0.0258893
0.0282615
0.0274466
0.0299702
0.0291025
0.0317933
0.0308669
0.0337444
0.0327521
0.0358392
0.0347729
0.0380959
0.0369464
0.0405342
0.0392914
0.0431744
0.0418281
0.0460365
0.0445769
0.0491377
0.0475567
0.0524901
0.0507824
0.0560982
0.0542627
0.0599545
0.0579969
0.0640332
0.061969
0.068288
0.0661425
0.0726533
0.0704625
0.0770451
0.0748515
0.0813346
0.0792166
0.0853011
0.0833723
0.0886991
0.0870996
0.0911154
0.0901115
0.092382
0.0919018
0.0921417
0.0925083
0.0990271
0.0913
0.100924
0.104857
0.0998289
0.108734
0.0139403
0.0137457
0.0975238
0.112319
0.0940145
0.11522
0.0892294
0.0833953
0.0764306
0.0686815
0.0600835
0.0148656
0.0456451
0.0509868
0.119445
0.119227
0.117028
0.112777
0.106374
0.0980728
0.0900264
0.0415312
0.0406434
0.0143599
0.0139392
0.0364917
0.103098
0.0475944
0.0443754
0.0526099
0.0503209
0.0559707
0.0544813
0.0579353
0.05711
0.058711
0.0584523
0.0586266
0.0587592
0.0578909
0.058333
0.0566187
0.0573127
0.0549602
0.0558289
0.0530333
0.0540247
0.0509214
0.0519957
0.0486956
0.0498189
0.0464116
0.047558
0.0441123
0.0452616
0.0418315
0.0429678
0.0395954
0.0407066
0.0374225
0.0385002
0.0353258
0.0363641
0.0333139
0.034309
0.0313918
0.0323415
0.0295617
0.0304652
0.027824
0.0286814
0.0261776
0.0269895
0.024621
0.0253882
0.0231525
0.0238759
0.0217714
0.0224512
0.0204772
0.0211134
0.0192693
0.0198624
0.0181463
0.0186971
0.017104
0.0176149
0.0161389
0.0166107
0.0152398
0.0156831
0.0147941
0.0142955
0.0141241
0.0145994
0.0144537
0.0148548
0.0147336
0.0150582
0.0149632
0.0152027
0.0151385
0.0152747
0.0152486
0.01526
0.0152793
0.0151432
0.0152145
0.0149262
0.0150475
0.0146093
0.014777
0.0817948
0.0881318
0.0795753
0.0144257
0.0155455
0.0146531
0.0150935
0.0164643
0.0160126
0.0174258
0.0169364
0.0184527
0.0179314
0.0195465
0.018991
0.020712
0.0201202
0.0219518
0.0213226
0.0232681
0.0226003
0.0246633
0.0239557
0.0261417
0.0253919
0.0277092
0.026914
0.0293736
0.0285288
0.031145
0.0302453
0.0330352
0.0320745
0.0350581
0.0340293
0.0372292
0.0361243
0.0395649
0.0383756
0.042082
0.0407999
0.0447965
0.0434139
0.0477212
0.0462322
0.0508639
0.0492654
0.0542243
0.0525176
0.0577905
0.0559833
0.0615339
0.0596429
0.0654068
0.0634583
0.0693396
0.0673712
0.0732421
0.0713017
0.0769738
0.0751412
0.0803534
0.0787188
0.0831723
0.0818489
0.0850662
0.0842753
0.0857346
0.0855225
0.0847314
0.0855446
0.0835517
0.102696
0.107198
0.0135386
0.101102
0.111215
0.0982882
0.114896
0.0941176
0.117828
0.0887272
0.082105
0.0745108
0.0659313
0.0567647
0.0469737
0.0318319
0.0369123
0.121482
0.120897
0.118192
0.113109
0.105752
0.0965511
0.0766419
0.0855158
0.0142174
0.0267497
0.027237
0.0144225
0.0139977
0.0221426
0.105158
0.0360177
0.0318559
0.0428287
0.0396735
0.0478481
0.0455575
0.0512999
0.0497534
0.0534176
0.0525068
0.0544667
0.0540622
0.0546761
0.0546619
0.0542324
0.0545277
0.0532578
0.0538033
0.0518851
0.0526129
0.0502283
0.0510865
0.0483706
0.0493198
0.0463813
0.0473886
0.0443159
0.0453551
0.0422179
0.0432686
0.0401217
0.0411678
0.0380541
0.039083
0.0360345
0.0370373
0.0340769
0.0350473
0.032191
0.0331246
0.0303824
0.0312768
0.0286542
0.0295082
0.0270071
0.0278206
0.0254406
0.0262139
0.0239538
0.0246873
0.0225463
0.0232401
0.0212188
0.0218726
0.0199729
0.0205855
0.01881
0.019381
0.0177302
0.0182597
0.0167305
0.0172204
0.0158049
0.0162583
0.0149435
0.0153657
0.0141128
0.0145231
0.0133176
0.0137081
0.0135365
0.0131469
0.0133479
0.0138697
0.0137118
0.0141533
0.0140162
0.0143926
0.014279
0.0145843
0.0144946
0.0147207
0.0146602
0.0147879
0.0147637
0.0147741
0.0147919
0.0146662
0.0147326
0.0144635
0.0145748
0.0141682
0.0143309
0.013796
0.01399
0.0152706
0.0148442
0.0161501
0.0156963
0.017087
0.016612
0.0180846
0.0175776
0.0191512
0.018609
0.0202911
0.0197119
0.0215054
0.0208889
0.0227946
0.0221407
0.0241596
0.0234676
0.0256032
0.0248714
0.0271303
0.026356
0.0287478
0.0279273
0.0304646
0.0295932
0.0322912
0.0313636
0.0342394
0.0332494
0.036322
0.0352631
0.0385525
0.0374181
0.0409443
0.0397276
0.0435091
0.0422046
0.0462554
0.0448594
0.0491866
0.0476982
0.0522976
0.0507205
0.0555723
0.0539163
0.0589789
0.057262
0.0624673
0.060717
0.065966
0.0642208
0.0693801
0.0676911
0.0725693
0.0710136
0.0753599
0.0740257
0.077551
0.0765451
0.0788543
0.0783356
0.0789249
0.0790672
0.0773534
0.0783765
0.0738023
0.0758274
0.0680213
0.0712364
0.0730279
0.0641623
0.0129327
0.10428
0.109398
0.0135898
0.102157
0.113549
0.0986839
0.117298
0.0939057
0.120138
0.0877544
0.0804337
0.0720026
0.062765
0.0527732
0.0424625
0.0317802
0.0165689
0.0210851
0.123211
0.12216
0.118702
0.112714
0.104485
0.0942353
0.0821423
0.0686706
0.0594776
0.0105705
0.0125481
0.0130891
0.0127129
0.00660346
0.107054
0.0230298
0.0179744
0.0315039
0.0274745
0.0382184
0.0350726
0.0432333
0.0409236
0.0467682
0.0451688
0.0490814
0.0480633
0.050383
0.0498467
0.0508621
0.0507133
0.0506874
0.0508477
0.049987
0.0503951
0.0488831
0.049478
0.0474821
0.0482141
0.0458661
0.0466964
0.0441027
0.044999
0.042247
0.0431834
0.0403428
0.0412986
0.0384247
0.0393836
0.0365199
0.0374692
0.034649
0.0355792
0.0328268
0.033731
0.0310636
0.0319373
0.029366
0.0302063
0.0277375
0.028543
0.0261794
0.0269497
0.0246917
0.0254268
0.023274
0.023974
0.0219271
0.0225916
0.0206531
0.0212808
0.0194554
0.0200445
0.0183375
0.0188863
0.0173007
0.0178089
0.0163428
0.0168121
0.0154568
0.0158911
0.0146318
0.0150364
0.0138481
0.0142357
0.0134645
0.0127667
0.0123556
0.0125704
0.0131424
0.0129589
0.0134546
0.0133044
0.0137217
0.0135936
0.0139457
0.013839
0.014126
0.0140417
0.0142537
0.0141972
0.0143158
0.0142937
0.0143019
0.0143189
0.0142034
0.0142636
0.0140141
0.0141202
0.0137411
0.0138881
0.0133887
0.0135722
0.0507896
0.0540941
0.0451932
0.0131906
0.0141754
0.0133743
0.0137704
0.0149843
0.0145772
0.0158308
0.015398
0.0167363
0.0162764
0.0177044
0.0172119
0.0187436
0.0182149
0.019857
0.019291
0.0210447
0.0204417
0.0223052
0.0216659
0.0236379
0.0229625
0.0250444
0.0243318
0.0265286
0.0257765
0.0280964
0.0273016
0.0297557
0.0289141
0.0315156
0.0306225
0.0333858
0.0324363
0.0353771
0.0343657
0.0374998
0.0364214
0.0397639
0.0386137
0.0421773
0.0409517
0.0447444
0.0434417
0.0474641
0.0460856
0.0503271
0.0488788
0.0533132
0.0518067
0.0563874
0.0548422
0.0594974
0.0579421
0.0625702
0.0610439
0.0655088
0.0640638
0.0681781
0.066887
0.07041
0.0693602
0.0720027
0.0713008
0.0727067
0.0724816
0.0722321
0.0726407
0.0701358
0.0714126
0.0661747
0.0684194
0.0598245
0.0632802
0.0555792
0.105647
0.111429
0.102903
0.11569
0.0987846
0.119459
0.0120051
0.0121391
0.0117939
0.0932308
0.122166
0.0863683
0.0782036
0.0690185
0.0589436
0.0483146
0.0372273
0.0261093
0.0149343
0.000214017
0.00398676
0.124502
0.122803
0.118516
0.111651
0.102483
0.0910782
0.0778006
0.0632481
0.0388417
0.0477398
0.012985
-0.00657496
-0.00311702
0.0131513
0.0127729
-0.00976687
0.108753
0.00888499
0.00310411
0.0189484
0.0141462
0.027181
0.0232855
0.0337935
0.0306811
0.0388133
0.0364949
0.0424576
0.0407912
0.044951
0.0438362
0.0464728
0.0458224
0.0471926
0.0469223
0.0472657
0.0473013
0.0468191
0.0470999
0.0459659
0.0464365
0.0448057
0.0454187
0.0434183
0.0441359
0.0418698
0.0426605
0.0402144
0.0410525
0.0384958
0.0393606
0.0367488
0.0376239
0.0350012
0.0358736
0.0332739
0.0341339
0.0315827
0.032423
0.0299386
0.0307542
0.028349
0.0291367
0.0268178
0.0275759
0.0253468
0.0260747
0.0239363
0.0246339
0.0225868
0.0232539
0.0213
0.0219354
0.0200793
0.0206811
0.0189298
0.0194953
0.0178566
0.0183834
0.0168625
0.0173496
0.0159457
0.0163947
0.0150992
0.0155142
0.0143114
0.0146986
0.0135691
0.0139348
0.0128489
0.0132072
0.0124903
0.0124028
0.0122084
0.0127527
0.0125839
0.0130507
0.0129075
0.013302
0.0131817
0.0135128
0.0134123
0.0136823
0.0136032
0.0138013
0.0137489
0.0138582
0.0138382
0.0138438
0.0138603
0.0137523
0.0138078
0.0135784
0.0136762
0.0133225
0.0134599
0.0129972
0.0131686
0.0126089
0.0128098
0.0139118
0.0135293
0.0146867
0.014295
0.0155042
0.0150883
0.0163779
0.0159334
0.0173168
0.0168387
0.018328
0.0178131
0.0194141
0.0188617
0.0205735
0.0199848
0.0218034
0.0211798
0.0231018
0.0224441
0.0244689
0.0237767
0.0259076
0.025179
0.027423
0.0266553
0.0290219
0.0282116
0.030712
0.0298551
0.0325015
0.0315938
0.0343985
0.033436
0.036411
0.0353899
0.0385456
0.0374627
0.0408067
0.0396602
0.0431948
0.0419851
0.0457048
0.0444352
0.0483236
0.0470018
0.0510272
0.0496668
0.0537781
0.0523997
0.0565219
0.055155
0.0591848
0.0578689
0.0616693
0.0604566
0.0638459
0.0628053
0.0655547
0.0647699
0.0665988
0.0661737
0.066746
0.066799
0.0657263
0.0664038
0.0631898
0.0646626
0.058864
0.0612802
0.0521114
0.0558248
0.0427811
0.0477682
0.0307199
0.0371507
0.0315165
0.0235276
0.106751
0.11325
0.103346
0.11759
0.0116727
0.0114689
0.0984724
0.12134
0.0921584
0.123858
0.0844193
0.0754711
0.0654013
0.0545668
0.0431549
0.0314986
0.0197207
0.0082186
-0.0030518
0.0124027
-0.0167266
-0.0138
0.12526
0.122841
0.117659
0.109813
0.0994652
0.0868177
0.0724556
0.056928
0.0403186
0.0119151
0.0115818
-0.024082
-0.0192299
0.0233739
0.015466
-0.0263627
0.110219
-0.00611723
-0.0124466
0.00539232
-0.000125131
0.0151315
0.0104618
0.0231354
0.0193392
0.0296165
0.0265549
0.0346439
0.0323064
0.0383816
0.0366594
0.0410262
0.03983
0.0427381
0.0419885
0.0436731
0.0432931
0.0439738
0.0438945
0.0437609
0.0439245
0.0431404
0.0434952
0.0422055
0.0427069
0.0410335
0.0416448
0.0396887
0.0403791
0.0382239
0.0389683
0.0366827
0.0374604
0.0350998
0.0358945
0.0335032
0.0343017
0.0319144
0.0327066
0.0303498
0.0311282
0.0288211
0.0295804
0.0273362
0.0280728
0.0258996
0.0266116
0.0245135
0.0252001
0.0231787
0.0238396
0.0218964
0.0225309
0.0206691
0.0212756
0.0195016
0.0200775
0.0184002
0.0189422
0.0173716
0.0178765
0.0164196
0.016886
0.0155433
0.0159723
0.0147356
0.0151314
0.0139849
0.0143538
0.013278
0.0136261
0.0125979
0.0129358
0.0122566
0.0120474
0.0118642
0.0123754
0.0122196
0.0126567
0.0125212
0.012894
0.0127804
0.0130932
0.0129983
0.0132524
0.0131782
0.0133629
0.0133144
0.0134145
0.0133966
0.0133995
0.0134157
0.0133133
0.0133653
0.0131533
0.0132428
0.0129182
0.013045
0.0126101
0.0127726
0.0122471
0.0124346
0.00826488
0.00657673
-0.000493206
0.0120509
0.0129139
0.0121962
0.0125531
0.0136385
0.0132754
0.0143835
0.0140064
0.0151718
0.0147716
0.0160154
0.015586
0.0169251
0.0164614
0.0179079
0.0174072
0.0189653
0.0184274
0.0200948
0.0195213
0.0212923
0.0206853
0.0225542
0.0219153
0.0238797
0.0232089
0.0252705
0.0245667
0.026731
0.0259917
0.0282669
0.0274891
0.0298846
0.0290651
0.0315906
0.0307261
0.0333911
0.0324787
0.0352915
0.0343285
0.0372955
0.0362804
0.0394042
0.0383368
0.0416148
0.0404972
0.0439186
0.0427559
0.0462989
0.0451006
0.0487289
0.0475098
0.0511686
0.0499506
0.0535625
0.0523754
0.0558365
0.0547199
0.0578939
0.0568992
0.0596107
0.0588035
0.0608348
0.0602948
0.0613801
0.0612051
0.0610287
0.0613307
0.0595237
0.060439
0.05657
0.0582433
0.0518742
0.0544659
0.0449191
0.048706
0.0355587
0.0405601
0.0233925
0.0298809
0.0162366
0.107567
0.114823
0.0112579
0.10342
0.119213
0.0977551
0.122883
0.090569
0.125123
0.0819762
0.0720876
0.0612106
0.0495061
0.0373853
0.0250589
0.0128234
0.000809178
-0.0105626
-0.0214613
-0.033727
-0.0318226
0.125412
0.122159
0.115974
0.106971
0.0953523
0.0815241
0.0661112
0.0493908
0.0317241
0.0141092
-0.0100999
-0.00338948
0.0118433
-0.041505
-0.0352444
0.0119807
0.0116365
-0.0427045
0.11142
-0.0213006
-0.0280657
-0.00880607
-0.0148463
0.00216501
-0.00316278
0.0115484
0.0070643
0.0193539
0.0156395
0.025713
0.0227045
0.0307263
0.0283812
0.0345335
0.032769
0.0373019
0.0360379
0.0391788
0.0383424
0.0403061
0.0398274
0.0408138
0.0406297
0.0408151
0.040871
0.0404096
0.0406572
0.0396851
0.0400822
0.0387155
0.0392267
0.0375629
0.0381585
0.0362792
0.0369345
0.034907
0.0356018
0.0334811
0.0341988
0.0320294
0.0327569
0.0305739
0.031301
0.0291315
0.0298502
0.0277143
0.0284191
0.0263308
0.0270179
0.0249861
0.0256534
0.0236827
0.0243291
0.022422
0.0230469
0.0212058
0.0218082
0.0200376
0.0206154
0.0189231
0.0194731
0.0178699
0.0183883
0.0168858
0.0173688
0.0159756
0.0164213
0.0151388
0.0155482
0.0143686
0.014746
0.0136534
0.014005
0.0129789
0.0133118
0.0123321
0.012653
0.0116875
0.0120097
0.0110452
0.011363
0.0113447
0.0109463
0.0111469
0.0117007
0.0115289
0.0120113
0.0118633
0.012274
0.0121476
0.012498
0.0123905
0.0126862
0.0125967
0.0128355
0.0127661
0.0129379
0.0128932
0.0129844
0.0129686
0.0129685
0.0129845
0.0128868
0.012936
0.0127382
0.0128209
0.0125223
0.0126387
0.012236
0.0123877
0.0118924
0.0120724
0.0115031
0.0116986
0.0126651
0.0123244
0.0133586
0.0130117
0.014077
0.0137138
0.0148366
0.0144509
0.0156511
0.0152363
0.0165319
0.0160827
0.0174856
0.0169994
0.0185132
0.0179903
0.0196111
0.0190536
0.0207741
0.0201847
0.0219975
0.0213784
0.0232792
0.022631
0.0246201
0.023942
0.0260235
0.0253137
0.0274941
0.02675
0.0290372
0.0282562
0.0306577
0.0298374
0.03236
0.0314983
0.0341471
0.0332428
0.0360202
0.0350729
0.0379777
0.0369887
0.0400134
0.0389863
0.0421156
0.0410571
0.0442648
0.0431859
0.0464318
0.0453484
0.0485749
0.0475094
0.0506377
0.0496204
0.0525465
0.0516166
0.0542066
0.0534143
0.0554994
0.0549071
0.0562802
0.0559637
0.0563751
0.0564251
0.0555809
0.0561026
0.0536579
0.0547766
0.0503439
0.0521903
0.0453454
0.0480781
0.0382903
0.0420914
0.0289087
0.0339098
0.0168054
0.0232341
0.00183197
0.00972459
-0.0160582
-0.00668929
-0.0206589
-0.0261576
0.0107355
0.108046
0.116104
0.0113007
0.103102
0.1205
0.0965612
0.124015
0.088471
0.125883
0.0789213
0.0681296
0.0563033
0.0438287
0.0309136
0.0179844
0.00524399
-0.00702406
-0.0186632
-0.0296363
-0.0400125
-0.0504257
-0.0495468
0.124842
0.120636
0.113331
0.103081
0.0901593
0.075089
0.0583953
0.0404031
0.0219383
0.00358366
-0.0146207
-0.0370598
-0.0323129