/*--------------------------------*- C++ -*----------------------------------*\
  =========                 |
  \\      /  F ield         | OpenFOAM: The Open Source CFD Toolbox
   \\    /   O peration     | Website:  https://openfoam.org
    \\  /    A nd           | Version:  10
     \\/     M anipulation  |
\*---------------------------------------------------------------------------*/
FoamFile
{
    format      ascii;
    class       surfaceScalarField;
    location    "9.5";
    object      phi;
}
// * * * * * * * * * * * * * * * * * * * * * * * * * * * * * * * * * * * * * //

dimensions      [0 3 -1 0 0 0 0];

internalField   nonuniform List<scalar> 
66213
(
0.0113501
-0.0139841
-0.00741812
0.0100521
0.0361369
-0.00577822
-0.0190086
0.0105124
-0.0162626
0.0418871
-0.0192748
0.0297872
0.0265619
-0.0182982
-0.021305
0.0130413
0.0262445
-0.0255236
0.025841
0.0480622
-0.0380802
-0.0503552
0.0382998
-0.0375033
-0.00159544
-0.0147805
-0.0217043
-0.0103037
-0.0168153
-0.000171187
0.000171459
0.00092585
-0.000926122
0.000128697
-0.000299884
0.000300156
-0.00245794
0.00125894
0.0111134
-0.00991439
0.00161794
-0.00407588
0.00287688
0.0788285
0.105946
-0.0928143
-0.0919606
0.061536
0.0515554
-0.034263
-0.051519
0.0302528
0.0828022
-0.0124883
0.0669158
0.035173
0.0380346
-0.0443799
-0.0288277
-0.00144082
0.00180956
0.0348043
-0.0134547
0.011169
0.000844886
0.0134192
0.0111606
0.0535642
0.0176273
-0.00995026
-0.0612412
-0.00605261
0.0522354
0.00738142
-0.0746178
0.00659165
0.0619736
-0.0217881
0.0291796
0.0238907
-0.0312822
-0.0618713
0.00666911
0.0334141
-0.0246346
-0.0695554
0.0323188
0.0301422
-0.0307948
0.0636102
-0.0882448
-9.58762e-05
-0.0043548
0.00169744
0.00275323
-0.00291743
0.00282155
-0.00161248
-0.00130495
-0.000701728
-0.00526555
0.0452796
-0.010943
0.00778531
-0.0421219
0.0340903
-0.0138281
0.0250174
0.0259011
-0.0306111
0.042469
-0.037759
0.0129918
0.04152
-0.0286108
4.7708e-05
0.0213745
-0.029851
0.0084288
0.0292696
0.00281223
-0.0320342
-0.00138463
-0.000140509
0.000823414
0.00232658
-0.000527674
-0.00549149
0.00369259
0.00356244
-0.00183235
0.000596491
-0.0122758
0.0133618
0.000473132
-0.00155915
0.0021881
-0.00329489
-0.012756
0.0305292
-0.0253728
0.00759957
-0.021715
-0.00622793
0.0151869
-0.0374373
0.0608434
0.0123982
-0.0358043
-0.0287543
-0.0782385
-0.0643946
-0.00279005
0.0383009
0.0288837
0.0780581
-0.135861
-0.022202
-0.00470262
0.0269046
-0.00917355
-0.0130284
-0.0273558
0.0381699
-0.0199877
0.00418876
-0.0098263
-0.0217182
-0.00148169
-0.00573238
0.00721407
-0.00654444
-0.00802175
0.0130845
-0.00883969
0.00649743
-0.0109422
0.0178639
0.00291875
-0.0020193
0.00559798
-0.00148654
0.0025421
0.00186319
0.00697527
-0.00425692
-0.00271835
0.0121495
-0.00517427
0.0429163
-0.0546886
-0.0214829
0.0332552
0.0763903
-0.0155466
-0.073332
0.060694
0.0290392
-0.0133429
-0.000397095
0.000505342
0.0002776
-0.000385848
-0.000737161
-0.00062803
0.000968097
0.000193655
0.00361831
-0.00454913
-0.00209009
0.0112765
-0.00812926
-0.00105716
0.0209658
0.0398473
-0.0914243
0.00677903
-0.00352206
-0.00909615
0.00583918
0.00313784
-0.00123261
0.0048738
0.0091381
0.00431891
-0.00504351
-0.00841349
0.00913922
0.00383975
-0.00384088
0.0681683
0.0309663
-0.0122238
-0.0869108
0.079085
0.0161078
-0.0270245
-0.0421306
0.0311693
-0.00478585
0.0157471
0.0128877
-0.0255646
-0.0294536
-0.0254792
0.033456
0.0231925
-0.0522137
0.0299254
0.0432542
-0.0216084
0.0417158
-0.072321
-0.00345668
0.0168533
-0.0350051
-0.0052381
-0.00728858
0.0125736
-4.6908e-05
-0.00421577
-0.00122913
0.000206796
0.000190792
-0.000844125
0.00129822
0.000646643
-0.000201415
-0.00174345
0.00787789
0.00396206
-0.000531218
-0.0113087
0.00526124
0.0105539
-0.00793724
-0.00906206
-0.00109853
0.0154218
-0.00633028
0.00123028
-0.00648113
-0.000380371
-0.010816
0.0352489
0.0364105
0.0297714
-0.000994956
-0.0395925
0.0212093
-0.0384158
0.0477358
-0.0305962
0.001328
0.0504775
-0.0388276
-0.0104993
0.000830378
0.0484965
0.0354702
-0.007382
0.0552237
-0.0329841
-0.0186041
0.0169712
0.0346171
0.00022118
-0.00656181
-0.0266435
0.0415312
-0.0599142
-0.00651926
-0.00167368
0.00836666
-0.000173722
-0.00121588
-0.00364039
-0.00166299
-0.000790372
0.000415411
-0.000840917
-0.000766612
-0.0537257
-0.0406687
0.0292646
0.0651298
-0.019248
0.0284576
-0.0629353
0.0276307
-0.00434366
-0.042535
-0.0140877
0.00104967
0.00391192
0.00974106
-0.00503035
-0.00862263
0.00241201
0.0014999
0.00092707
0.011226
0.00435446
0.00519489
0.00161129
0.000643583
0.00455577
0.0320045
0.00553562
-0.044102
0.00922686
0.0397489
-9.52215e-05
-0.00309138
-0.00450191
0.00768851
-0.00095945
0.0010651
-0.000200875
-0.00343065
-0.00062018
0.00691589
0.0134235
-0.0134432
-0.00689619
-0.00189942
-0.0165575
0.0331726
0.0438649
-0.0103976
0.0502017
-0.0517889
-0.00131171
0.00289889
0.0538348
0.00210986
-0.00574293
-0.00907877
0.00716839
0.00814189
-0.00623151
0.00623623
-0.00370539
-0.0116096
0.00352688
-0.00462542
0.00351217
1.47151e-05
0.0188724
0.0237216
-0.00502159
-0.0375724
0.0173297
0.0547687
-0.053226
-0.0265598
0.0199049
0.0239846
-0.00638689
0.00354872
-0.0126136
-0.00277567
0.00130162
-0.0176037
0.000646393
0.0417437
-0.0393931
0.00332896
-0.00567955
0.00749004
-0.00828138
-0.0164276
-0.0306181
0.00765264
-0.0507348
-0.0045007
0.051673
0.00356253
-0.0334917
-0.0243855
0.00714235
0.00142122
-0.0577108
0.038996
0.00719453
-0.0273645
-0.018826
-0.0157204
0.0493035
0.00541285
0.0397711
-0.00612757
-0.049364
0.0285431
0.0198753
-0.00864721
0.0216021
-0.0148331
-0.0246822
0.0179132
0.0146376
-0.0175862
0.0245507
0.0279349
0.0197016
-0.0134681
-0.0341685
-0.010592
0.0236939
0.0395332
0.00596832
-0.0257234
-0.0197781
-0.00228648
0.00136435
0.0404553
0.038235
0.00173507
-0.0422565
0.025611
-0.00650162
0.0191255
0.00231422
0.0015602
-0.000736574
0.00207748
-0.00367641
-0.00192313
0.00135021
0.000973728
0.00253844
-0.0201181
0.0150965
-0.025375
0.0052569
-0.00152961
0.0460036
-0.000609083
0.00185235
-0.00208967
8.16983e-05
0.000155623
-0.000508988
-1.37484e-05
0.00237508
-0.000343018
0.00327861
-0.00344458
0.00630226
-0.0103654
-0.00322545
-0.00299563
-0.0272891
0.0256683
0.00461638
-0.0293487
-0.00203452
0.0283876
0.00499804
-0.014859
0.0417825
-0.0319215
0.039527
0.00278609
-0.037315
-0.000286542
0.0342588
0.000974654
-0.034947
0.0338897
0.000282554
-0.0344588
0.0140144
0.0367038
-0.0535083
0.0114128
0.039689
-0.0370874
0.00273571
0.0061714
-0.00169867
-0.00720843
0.00267958
0.00565792
-0.00560179
-0.0484907
0.00692915
0.0467818
-0.00522026
0.00770508
-0.0482408
-0.00795492
-0.00205807
0.0343315
-0.0341704
0.00189697
0.0339381
-0.000985052
-0.0350112
-0.00993226
-0.0301061
0.0398421
0.000196228
0.0251707
-0.00469631
-0.0304067
0.0212236
0.000911347
-0.0219111
-0.000223788
0.0211713
0.000715228
-0.00066299
0.0029037
-0.00543338
0.00520926
0.00357163
0.00471298
-0.00538091
-0.000517491
0.00132035
-0.00579149
-0.00748141
0.00417675
-0.0329793
-0.00853392
0.036065
0.00544823
-0.00646578
-0.0306597
0.00414616
-0.00517202
0.00492334
0.00263723
-0.00238854
0.0046004
-0.00618058
-0.00359185
0.0345483
-0.0327931
0.0306767
-0.0324319
0.0550327
0.0257162
-0.0462007
0.0258741
-0.0251408
0.0542994
0.0353425
-0.0427494
0.043635
-0.0362281
0.0657402
0.0314137
-0.0618114
0.0215705
0.0631773
-0.0190076
-0.0343806
0.00995462
0.0373136
-0.0320596
-0.0108549
-0.0369933
0.00658651
0.038665
-0.00825821
-0.00758722
0.00709053
-0.0364966
0.00731847
0.000316513
-0.00283373
-0.00480125
0.0040901
0.004149
-0.000920625
0.0798549
-0.0560651
0.00645209
-0.0302419
0.0308886
0.0688456
-0.0198793
0.0371892
0.00472202
-0.0133353
-0.0285759
0.0410147
-0.000352412
-0.0282496
-0.0251782
0.00352082
-0.000952391
-0.0234645
-0.000761338
-0.0208984
-0.00830353
0.000999765
0.000444944
-0.000458693
4.27269e-05
0.000402218
-0.0313327
0.004507
0.0294407
-0.00261496
0.00359964
-0.00318623
-0.0317461
0.0312188
0.00370465
-0.0313238
0.0298255
0.00590032
0.0337768
0.0172085
-0.0417585
-0.0156576
0.0555714
-0.00613696
0.0307742
-0.0292233
-0.0245866
-0.00351471
0.0239762
0.00412507
0.0218083
-0.0417666
-0.00462829
-0.00433224
0.0226258
-0.000283218
0.000410463
-0.0019596
0.000215931
-0.000499148
0.000626394
0.00174737
-0.00452304
0.00304899
0.0222696
-0.00509672
-0.0320318
-0.00110133
0.0342559
-0.0336113
0.000456785
0.0349804
-0.00144249
-0.0346392
0.0436646
-0.00572034
-0.0370172
0.00484667
0.0318252
-0.0045659
-0.032106
0.0347559
-0.0284464
0.00118868
-0.00749827
0.0340394
0.00309374
-0.00237719
0.0410547
-0.00160121
-0.0054141
0.0410274
0.00198946
-0.00196215
0.0448656
-0.00203505
-0.00180316
0.0451314
0.00140315
-0.00166891
0.0453685
0.001281
-0.00151816
0.0456248
0.00112972
-0.00138603
0.0458596
0.00100697
-0.00124174
0.0461108
0.000861456
-0.00111271
0.0463447
0.000742223
-0.000976078
0.0465915
0.000605379
-0.000852179
0.0468246
0.000492161
-0.00072528
0.0470666
0.000366466
-0.000608412
0.0472978
0.000261745
-0.000492987
0.0475334
0.000149264
-0.000384827
0.0477609
5.47837e-05
-0.000282323
0.0479885
-4.31758e-05
-0.000184406
0.0482106
-0.00012611
-9.59669e-05
0.0484283
-0.000208359
-9.38322e-06
0.0486418
-0.000278949
6.5418e-05
0.0488469
-0.000345289
0.000140259
0.0490497
-0.000403181
0.000200334
0.0492407
-0.000453453
0.000262438
0.0494298
-0.000499494
0.000310432
0.0496059
-0.00053326
0.000357153
0.0458003
-0.000567899
0.00437353
0.0459785
-0.000590637
0.000412393
0.0396206
0.00235877
0.00399913
0.0382439
0.00148998
-0.00011324
0.0380144
0.000729636
-0.00050014
0.0382499
0.000381924
-0.000617463
-0.0254112
0.0328765
0.00441331
-0.0118787
0.00344565
0.0024482
-0.0252708
0.0193769
-0.0246546
0.00268908
-0.0267451
0.000746979
-0.0402653
0.030166
-0.00450814
0.0146074
0.000452256
-0.00246764
0.0387699
-0.0389869
0.00094665
-0.038376
0.0405874
-0.00175921
0.000775823
0.0364846
-0.0341961
7.02748e-05
-0.00101225
0.0344669
-0.0343457
-0.000689087
-0.000319921
0.034216
-0.0340787
-0.000636773
-0.000662923
0.0339344
-0.0337813
-0.000556278
-0.000597749
0.0336222
-0.0334541
-0.000447052
-0.000504393
0.0332805
-0.033098
-0.000308627
-0.000382023
0.0329104
-0.0327143
-0.000141384
-0.000230693
0.0325137
-0.0323049
5.29653e-05
-5.12837e-05
0.0320922
-0.0318717
0.000271653
0.000153749
0.0316476
-0.0314158
0.00051039
0.00038125
0.0311803
-0.0309368
0.00076345
0.000626031
0.0306889
-0.0304314
0.00102354
0.000881797
0.0301693
-0.0331071
0.000902735
0.00114105
0.0314549
-0.0335167
0.000460558
0.000337244
0.00245362
0.00165278
-0.000734233
-0.0261893
-0.0259192
0.0029174
0.0326527
-0.00480356
0.0127383
-0.0268046
-0.000674804
-0.00133861
-0.003791
0.0324753
-0.0273457
-0.00391368
0.0327411
0.00148828
-0.00175283
-0.0259248
-0.0244799
4.8887e-05
-0.00393051
0.0327922
0.0342914
-0.0365774
-0.00222207
-0.0268647
-0.00169269
0.0320313
-0.00165366
-0.00152116
0.00246571
-0.0254244
0.00246688
-0.00244618
-0.0268854
-0.0249791
-0.0291024
0.0307805
-0.000931159
0.0280855
-0.0274315
-0.00234669
-0.00169172
-0.0332944
0.0331957
-0.00227851
-0.00132514
-0.0309745
0.0315941
-0.00258185
-0.00319286
-0.0317251
0.0318526
-0.00179639
-0.00193416
-0.0319758
0.0320969
-0.00150714
-0.00164131
-0.0322157
0.0323348
-0.00123173
-0.00136058
-0.0324531
0.0325728
-0.000971842
-0.00109443
-0.0326924
0.0328138
-0.000729808
-0.000844946
-0.0329353
0.0330584
-0.000507943
-0.000614436
-0.0331812
0.0333052
-0.000308374
-0.000405138
-0.0334281
0.0335512
-0.000132517
-0.000218848
-0.0336729
0.0337943
1.89301e-05
-5.63038e-05
-0.033913
0.0340301
0.000145345
8.16096e-05
-0.0341444
0.0342551
0.00024646
0.000196102
-0.037852
0.0379471
0.000317284
0.000776604
-0.0401446
0.0395266
0.000504684
0.0018017
-0.0385575
0.0381443
-0.000204244
0.000469003
-0.000900802
0.000489984
-0.00145473
0.0334401
0.000104876
0.0331848
-0.00125834
0.0333359
0.0373988
-0.0384868
-0.000671294
-0.03484
-0.00273216
0.0336417
-0.00224476
0.036512
-0.035191
-0.00037435
-0.00119896
0.036155
-0.0352711
-0.000813625
-4.82452e-05
0.034784
-0.0346695
-0.000803501
-0.000807041
0.0345472
-0.0344151
-0.000768868
-0.000785263
0.034275
-0.0341244
-0.000706873
-0.000737826
0.033966
-0.0337965
-0.000616551
-0.000662842
0.0336192
-0.0334305
-0.00049727
-0.000559329
0.0332342
-0.0330265
-0.000349157
-0.000426995
0.0328113
-0.0325848
-0.000173517
-0.000266455
0.0323514
-0.0321065
2.68052e-05
-7.96686e-05
0.0318552
-0.031593
0.000248173
0.000129929
0.0313246
-0.0310453
0.000484205
0.000357581
0.0307601
-0.0304644
0.000727838
0.00059657
0.0301632
-0.0302324
0.00097196
0.000839814
0.0309742
-0.0317193
0.00120559
0.00107911
0.0305733
-0.0276794
0.00151933
0.0013077
0.0268467
-0.0257655
0.00183623
0.0018564
0.0272021
-0.0265604
0.00182403
0.00148545
-0.00211729
0.0334547
-0.027376
-0.0025017
0.0016307
-0.00154884
-0.0255063
-0.0268356
0.00190592
-0.00113438
0.000345265
0.0339739
0.0334057
-0.0333462
-0.00131785
0.0335762
-0.00130487
-0.00222674
0.00142393
-0.0260826
0.0345201
-0.0353833
-0.00186899
-0.00238913
0.0339135
0.0341488
-0.00201785
-0.00197366
-0.027629
-0.025104
-0.0298417
0.0296254
-0.00213038
0.0295023
-0.0289011
-0.00257489
-0.00284113
-0.0309024
0.0322674
-0.00229618
-0.00296872
-0.0331769
0.0334936
-0.00259513
-0.00223466
-0.0329821
0.0325863
-0.00218609
-0.00268138
-0.0326722
0.032755
-0.00187925
-0.00202001
-0.0328349
0.0329135
-0.00158576
-0.00172121
-0.0329908
0.0330686
-0.00130953
-0.00143787
-0.0331466
0.0332264
-0.00105161
-0.00117244
-0.0333073
0.0333907
-0.000813174
-0.000925825
-0.0334755
0.0335631
-0.000595509
-0.00069928
-0.033652
0.0337434
-0.000399807
-0.00049406
-0.0338358
0.0339301
-0.000226896
-0.000311186
-0.0340249
0.0341209
-7.70096e-05
-0.00015108
-0.0342163
0.0343117
4.99475e-05
-1.38363e-05
-0.0344064
0.0344981
0.000154772
0.000101361
-0.035079
0.0351563
0.000240043
0.000195714
-0.0366874
0.0368842
0.00030784
0.00027057
-0.0370253
0.0362207
0.000600419
0.000327886
-0.0355823
0.0340212
-0.000660995
-0.000262405
-0.00097865
0.000352556
-0.00112552
0.0342131
0.0340338
0.00171843
-0.00217132
0.0343664
0.0340477
0.0364905
-0.0363466
-0.000815156
-0.00113753
0.0367086
-0.0359729
-0.00111002
-0.000836997
0.035389
-0.0353076
-0.000894956
-0.000632219
0.0352184
-0.0351189
-0.000902955
-0.000896283
0.0350115
-0.0348936
-0.000886753
-0.000892728
0.0347671
-0.0346292
-0.000844723
-0.000864331
0.0344824
-0.0343233
-0.000775626
-0.000809709
0.0341548
-0.0339735
-0.00067862
-0.000727774
0.0337825
-0.0335782
-0.000553494
-0.000617932
0.0333642
-0.0331366
-0.000401126
-0.000480424
0.0328995
-0.032649
-0.000223785
-0.000316756
0.0323891
-0.0321158
-2.51693e-05
-0.000129894
0.0318338
-0.0315386
0.000188992
7.55615e-05
0.0312353
-0.0309193
0.000411807
0.000293315
0.0305954
-0.0302585
0.000635006
0.000515943
0.0299129
-0.0295547
0.000847366
0.000733579
0.0291835
-0.0287013
0.00103714
0.0009365
0.0279546
-0.0275866
0.00146822
0.00110973
0.0273839
-0.0270748
0.00151487
0.00128273
0.00165631
-0.0025595
-0.0259324
0.0266431
-0.0262568
0.00127003
0.00147425
-0.00174501
0.00161657
-0.0275006
-0.028693
-0.00195308
0.00173231
-0.0261983
-0.00200445
-0.0260613
-0.00253746
0.034515
-0.00158495
-0.0259417
0.00126986
-0.001962
-0.0255554
-0.000435523
0.000191797
0.0342177
-0.00127022
0.0344109
0.0336955
-0.0334264
-0.001587
-0.00256247
0.00225186
-0.02719
-0.00261322
-0.0286422
0.0337772
-0.0013866
-0.0253761
-0.0311834
0.0314908
-0.00288226
0.0303288
-0.030128
-0.00281402
-0.00280765
-0.0316554
0.032499
-0.00297405
-0.00300573
-0.0326326
0.0332758
-0.00293932
-0.00310233
-0.0337883
0.0337812
-0.00258803
-0.00274718
-0.0335024
0.0335648
-0.00224853
-0.00240253
-0.0336208
0.0336729
-0.00193139
-0.00207599
-0.0337222
0.0337699
-0.00163355
-0.00177045
-0.0338166
0.0338634
-0.00135632
-0.0014845
-0.0339105
0.0339591
-0.00110025
-0.00121957
-0.0340092
0.0340616
-0.000865616
-0.000975854
-0.034116
0.0341734
-0.000652844
-0.000753715
-0.0342329
0.0342954
-0.000462307
-0.00055356
-0.0343599
0.0344271
-0.000294113
-0.000375652
-0.0344958
0.0345667
-0.000147921
-0.000219821
-0.0346384
0.0347113
-2.29566e-05
-8.55504e-05
-0.0347843
0.0348568
8.23075e-05
2.83876e-05
-0.0349288
0.0349988
0.000170014
0.000123733
-0.0350668
0.0351324
0.000242249
0.000202557
-0.0351938
0.0354946
0.000299697
0.000266446
-0.0349152
0.0345061
-0.000251911
0.000316924
0.000101135
0.00016599
-0.000967308
0.0350144
0.0343915
0.00155972
-0.00223977
0.0350465
0.0346401
0.0351333
-0.0356862
-0.00131605
-0.0349272
-0.00183046
0.0342202
-0.00181174
0.0360211
-0.0359905
-0.000845753
-0.000802716
0.0359528
-0.0361521
-0.000910677
-0.000874662
0.0358541
-0.0357924
-0.000956643
-0.000930241
0.035723
-0.0356444
-0.000981565
-0.000965696
0.0355577
-0.0354608
-0.000983638
-0.000979463
0.0353552
-0.0352383
-0.000961587
-0.000969938
0.035112
-0.0349733
-0.000914309
-0.00093601
0.0348245
-0.0346623
-0.000840809
-0.000876566
0.0344895
-0.0343024
-0.000740563
-0.00079077
0.0341044
-0.0338915
-0.000614004
-0.000678483
0.0336675
-0.0334284
-0.000462887
-0.000540735
0.0331783
-0.032913
-0.000290514
-0.000379985
0.032637
-0.032346
-0.000102068
-0.000200397
0.0320448
-0.0317287
9.57354e-05
-7.89792e-06
0.0314028
-0.0310621
0.000294316
0.000190058
0.0307122
-0.030348
0.000483183
0.000383674
0.0299743
-0.0295884
0.000651239
0.000562778
0.0291942
-0.0285129
0.000786917
0.000715552
0.0280596
-0.027651
0.00110633
0.000829402
0.0272437
-0.02705
0.00107634
0.00106694
0.00126
-0.00183047
-0.0253712
0.0267474
-0.0263655
0.000878053
0.000967224
-0.00260126
0.0348764
-0.00254895
0.00204525
-0.0281385
-0.0294655
-0.00321147
0.00167231
-0.0256188
-0.00245765
-0.0255656
-0.00179605
0.0343031
0.000674062
-0.00129734
-0.0257422
-0.0275088
0.0278719
0.000514931
-0.0272134
0.000378704
0.00194909
-0.0270938
-0.00220107
-0.0251848
-0.00184587
-0.0248227
-0.00336678
0.00272463
-0.0274964
0.0352623
-0.0354571
-0.00163564
-0.00251696
0.0341359
0.0350667
-0.00232141
-0.00436976
-0.0284625
-0.0261614
-0.031278
0.0320355
-0.00357149
0.0307073
-0.031469
-0.00360811
-0.00378219
-0.0326514
0.0331201
-0.00335103
-0.0034235
-0.033684
0.0341014
-0.00339142
-0.00356958
-0.0341784
0.0342451
-0.00300601
-0.00317941
-0.0343029
0.0343539
-0.0026391
-0.00280493
-0.0344
0.0344412
-0.00228979
-0.00244856
-0.0344777
0.0345106
-0.00196433
-0.00211243
-0.0345408
0.0345694
-0.00166215
-0.00180066
-0.0345968
0.0346239
-0.00138341
-0.00151188
-0.034651
0.0346791
-0.00112832
-0.00124673
-0.0347083
0.0347393
-0.000896608
-0.00100501
-0.034772
0.0348073
-0.000688075
-0.000786499
-0.0348447
0.0348848
-0.000502434
-0.000590947
-0.0349271
0.0349721
-0.00033916
-0.000417966
-0.0350191
0.0350686
-0.000197331
-0.000266827
-0.0351194
0.0351719
-7.54716e-05
-0.000136359
-0.035225
0.0352787
2.85957e-05
-2.47268e-05
-0.035332
0.0353847
0.000117378
7.0402e-05
-0.0354357
0.0354849
0.000193107
0.000151509
-0.0355309
0.0355735
0.000257075
0.000220437
-0.0356126
0.0350513
0.000309404
0.000277793
-0.0348286
0.034285
-0.00104348
0.000323895
-0.0339899
0.0341894
-0.00199554
-0.00109144
-0.000772685
0.000285153
0.0347052
0.00143598
-0.00155519
0.0344223
0.0350742
0.000508868
-0.000938215
0.0354437
0.0351856
0.00117932
-0.00136048
0.0352277
0.0348812
0.00128392
-0.00228275
0.0351347
0.0347999
0.0358814
-0.0364312
-0.000766235
-0.00138747
0.0364252
-0.0364128
-0.000858237
-0.000808687
0.0363937
-0.0363677
-0.000936673
-0.000893716
0.0363352
-0.0362949
-0.000996956
-0.000962767
0.0362477
-0.0361923
-0.00103695
-0.00101287
0.0361295
-0.0360574
-0.00105567
-0.00104229
0.0359771
-0.0358865
-0.00105228
-0.00105023
0.0357866
-0.0356751
-0.00102584
-0.00103587
0.0355535
-0.035419
-0.000975288
-0.000998151
0.0352737
-0.0351144
-0.000899843
-0.000936075
0.0349437
-0.0347582
-0.000799545
-0.000849182
0.0345609
-0.0343481
-0.000675669
-0.000738061
0.0341234
-0.0338829
-0.000531004
-0.000604673
0.0336307
-0.0333626
-0.000370099
-0.000452619
0.0330833
-0.0327884
-0.000199177
-0.000287237
0.0324827
-0.032162
-2.64014e-05
-0.000115586
0.0318316
-0.0314868
0.000138441
5.32336e-05
0.0311332
-0.0307665
0.00028454
0.000209128
0.0303918
-0.030005
0.000400171
0.000340845
0.0296111
-0.0289767
0.00047196
0.000435461
0.0286771
-0.0282268
0.000626027
0.000767346
0.000612328
0.000698964
-0.00125522
-0.0251859
-0.026719
0.000204509
-0.00178735
0.0344215
-0.00234143
0.00279169
-0.0289128
-0.0302764
-0.00353402
0.00223992
-0.0259096
-0.00233712
-0.0254296
0.0351565
-0.00237248
0.00247667
-0.0268459
-0.00242962
-0.024601
0.00263149
-0.0273362
-0.00178514
-0.0242928
-0.000564535
-0.0262027
4.82941e-05
-0.00111601
-0.0246345
-0.00392234
0.00299084
-0.0279813
0.0343827
-0.0343361
-0.00204215
0.0338505
-0.00125513
-0.00547434
-0.0287244
-0.0262586
-0.032295
0.0330814
-0.00439449
0.0315026
-0.0329453
-0.00403161
-0.00432643
-0.0333052
0.0336694
-0.00393568
-0.00400602
-0.0343009
0.0348153
-0.00386543
-0.004055
-0.0348818
0.0349398
-0.0034494
-0.0036361
-0.0349908
0.0350359
-0.00305105
-0.00323047
-0.0350749
0.035109
-0.0026732
-0.00284392
-0.0351391
0.0351663
-0.00231703
-0.0024787
-0.0351905
0.035212
-0.0019859
-0.00213654
-0.0352315
0.0352496
-0.00168027
-0.00182014
-0.0352667
0.0352833
-0.00140004
-0.00152896
-0.0352998
0.0353167
-0.0011452
-0.0012632
-0.0353342
0.0353529
-0.000915292
-0.00102254
-0.0353728
0.0353945
-0.000709748
-0.000806446
-0.0354179
0.0354433
-0.000527861
-0.000614286
-0.0354706
0.0355
-0.000368658
-0.000445236
-0.0355313
0.0355647
-0.000230701
-0.000298105
-0.0355995
0.0356359
-0.000111894
-0.000171154
-0.0356731
0.0357111
-9.43878e-06
-6.19267e-05
-0.035749
0.0357865
7.98038e-05
3.2576e-05
-0.0358227
0.0358573
0.000158493
0.00011534
-0.0358893
0.0359183
0.00022807
0.000188519
-0.0359434
0.0359645
0.000288271
0.000252696
-0.0359815
0.0352066
-0.000268579
0.000306909
-0.000220961
-0.000365983
9.02382e-05
0.034698
0.000966076
0.0340263
-0.00114188
0.0350216
-0.000327627
-0.000455135
0.035488
0.0348368
0.000490702
-0.000522488
0.0354755
0.0352211
0.00102562
-0.00115387
0.0353559
0.0353843
0.00163538
-0.00198419
0.0354835
0.0352814
-0.00184553
0.0350178
0.0356992
-0.0360872
-0.00124761
-0.0352627
0.0349528
-0.00206261
-0.00188492
0.0367827
-0.0367981
-0.000750817
-0.000692021
0.036808
-0.0368122
-0.00085411
-0.000798749
0.0368106
-0.0368033
-0.000944
-0.000895273
0.0367901
-0.0367709
-0.00101616
-0.000975914
0.0367457
-0.0367137
-0.00106894
-0.00103807
0.0366752
-0.036629
-0.00110192
-0.00108078
0.0365754
-0.0365128
-0.00111487
-0.00110384
0.0364418
-0.0363606
-0.00110709
-0.00110681
0.03627
-0.0361678
-0.0010775
-0.00108875
0.0360553
-0.03593
-0.00102513
-0.00104853
0.0357937
-0.0356436
-0.000949709
-0.000985478
0.0354818
-0.0353054
-0.000852088
-0.000899797
0.0351171
-0.0349136
-0.000734522
-0.000792977
0.0346982
-0.0344674
-0.000600884
-0.000668024
0.0342251
-0.0339675
-0.000456718
-0.000529582
0.0336991
-0.0334161
-0.000309413
-0.000384034
0.0331233
-0.0328169
-0.000167929
-0.000239574
0.032502
-0.032175
-4.25061e-05
-0.000105731
0.0318409
-0.0314962
5.54669e-05
6.76151e-06
0.0311466
-0.0307883
0.000113653
8.58999e-05
0.0301403
-0.0296343
0.000120009
0.000119361
0.0293783
-0.0290807
0.000217303
0.000356317
0.028721
-0.0282773
-0.000239164
1.90329e-05
0.000303635
-0.0258491
-0.000657287
0.0285748
-0.0276774
-0.000593789
0.000345751
-0.0020337
0.00293056
-0.0296212
-0.0318876
-0.00309144
0.00270041
-0.0261334
-0.00250762
-0.0253516
0.000156872
-0.0274348
-0.000399473
-0.0252887
-0.00040354
0.00283839
-0.0270528
-0.00229362
-0.0240925
0.00321673
-0.0275621
-0.00186886
-0.0235399
-0.000751302
0.000114659
0.0346629
0.0343098
-0.0341228
-0.00132887
0.0346264
-0.00106793
0.00298629
-0.028037
-0.001097
-0.0241947
-0.00196536
0.00204556
-0.0297014
-0.00223518
0.0353425
-0.00250912
-0.0313438
-0.0260659
-0.0334469
0.0342595
-0.0048442
0.0331493
-0.0321446
-0.00351387
-0.00338896
-0.0340732
0.0344726
-0.00479385
-0.00414018
-0.0350137
0.0354253
-0.0043473
-0.00454716
-0.0354744
0.0355164
-0.00390741
-0.0041041
-0.0355538
0.0355872
-0.00348277
-0.00367351
-0.0356165
0.0356428
-0.00307732
-0.00325982
-0.0356661
0.035687
-0.00269413
-0.0028672
-0.035706
0.0357237
-0.00233468
-0.00249769
-0.0357398
0.0357548
-0.00200085
-0.00215272
-0.0357686
0.0357818
-0.00169343
-0.00183399
-0.0357944
0.0358067
-0.00141238
-0.00154154
-0.0358189
0.0358314
-0.00115764
-0.00127542
-0.0358442
0.0358576
-0.000928739
-0.00103531
-0.0358718
0.035887
-0.000725001
-0.000820633
-0.0359034
0.035921
-0.000545532
-0.000630593
-0.0359399
0.0359604
-0.000389105
-0.00046415
-0.0359821
0.0360053
-0.000253928
-0.000319823
-0.0360296
0.0360551
-0.000137413
-0.000195453
-0.0360813
0.036108
-3.61567e-05
-8.80369e-05
-0.0361345
0.0361606
5.36479e-05
6.08177e-06
-0.0361854
0.0362087
0.000135221
9.05174e-05
-0.0362294
0.0362472
0.000210262
0.000167818
-0.0362613
0.0362713
0.000278315
0.000238593
-0.0362769
0.0358532
0.000155029
0.000301345
-0.0355796
0.0345722
-0.00103478
5.2685e-05
-0.000805724
-0.000421151
0.000170921
0.0349483
0.0347151
0.000412278
-0.000440784
0.0355165
0.03542
0.000471435
-0.000498707
0.0355028
0.0352518
0.000518981
-0.000959482
0.0357964
0.0354046
0.00151005
-0.00128085
0.0352543
0.035832
0.0353318
-0.0358089
-0.00158544
0.0353563
-0.0022597
0.00202262
-0.00223943
0.0355593
0.0357596
0.0364143
-0.0370592
-0.000602649
-0.0012796
0.0370914
-0.0371196
-0.00072263
-0.000659852
0.0371423
-0.0371606
-0.000835799
-0.000776056
0.0371739
-0.0371829
-0.000935066
-0.000881904
0.037187
-0.0371866
-0.0010166
-0.000971753
0.0371813
-0.0371708
-0.00107942
-0.00104338
0.0371549
-0.037133
-0.00112388
-0.00109665
0.0371048
-0.0370694
-0.0011503
-0.00113201
0.0370268
-0.0369756
-0.00115825
-0.00114942
0.0369163
-0.036847
-0.00114671
-0.00114811
0.0367687
-0.0366792
-0.00111459
-0.0011269
0.0365797
-0.0364681
-0.00106139
-0.00108494
0.0363457
-0.0362102
-0.000987599
-0.00102216
0.0360635
-0.0359031
-0.000894988
-0.000939633
0.0357313
-0.0355454
-0.000786782
-0.000839796
0.0353484
-0.0351373
-0.000667792
-0.000726603
0.0349157
-0.0346805
-0.000544542
-0.00060566
0.0344359
-0.0341787
-0.000425098
-0.000484238
0.0339134
-0.033637
-0.0003189
-0.000371042
0.0333542
-0.0330621
-0.000236582
-0.000276047
0.0327658
-0.0324625
-0.000189649
-0.000210411
0.0321579
-0.0318484
-0.000189415
-0.000185322
0.0312792
-0.0308153
-0.000246646
-0.000212879
0.0304969
-0.0305586
-0.000177445
-0.000299371
0.0299208
-0.0295809
-0.000933736
-0.000292009
-0.00045347
0.00035094
-0.0273323
0.0295476
-0.029483
-0.000518057
-0.000432808
-0.00320817
0.00272251
-0.0308581
-0.0318199
-0.00353289
-0.0246569
-0.00028083
-0.000572059
0.000197322
-0.0269575
-0.0293681
-0.000686913
0.00287852
-0.0261735
-0.00280611
-0.0248391
0.00320386
-0.0270399
-0.00225723
-0.0237042
-0.000949974
0.000626287
0.0349866
-0.00138639
0.0350629
0.0031402
-0.027716
-0.00160908
-0.0230279
0.00315472
-0.0291462
-0.00107787
-0.0235204
0.00315519
-0.0301341
0.0349105
-0.00179361
0.00435481
-0.0318209
-0.0043538
0.00457014
-0.0310735
-0.0243255
-0.000134096
-0.000869624
0.000404451
-0.0264923
-0.00107935
-0.0291584
-0.00490233
0.00451159
-0.0314301
-0.0319974
0.0327298
-0.0050862
0.0345339
-0.0342393
-0.00162341
0.0347852
-0.00131921
-0.0326964
-0.00420326
-0.0259934
-0.0331369
0.0344887
-0.00486571
-0.00394002
-0.0352287
0.0353701
-0.0049856
-0.0041289
-0.0359305
0.0359605
-0.00482386
-0.0047006
-0.0359836
0.0360028
-0.00436641
-0.0045703
-0.0360193
0.0360337
-0.00392177
-0.00412069
-0.0360464
0.0360581
-0.00349446
-0.00368616
-0.036069
0.0360795
-0.00308784
-0.00327075
-0.0360897
0.0360999
-0.0027043
-0.00287744
-0.0361101
0.0361206
-0.00234514
-0.00250791
-0.0361312
0.0361419
-0.00201158
-0.0021633
-0.0361527
0.0361637
-0.00170441
-0.00184478
-0.0361748
0.0361861
-0.00142373
-0.00155265
-0.0361977
0.0362095
-0.00116951
-0.00128694
-0.0362217
0.0362343
-0.00094138
-0.00104747
-0.0362474
0.0362611
-0.000738704
-0.000833693
-0.0362753
0.0362904
-0.000560585
-0.000644851
-0.0363061
0.0363227
-0.00040572
-0.000479862
-0.03634
0.0363582
-0.000272133
-0.000337127
-0.036377
0.0363965
-0.000156892
-0.000214227
-0.0364162
0.0364361
-5.60581e-05
-0.000107723
-0.0364555
0.0364744
3.48124e-05
-1.33717e-05
-0.0364918
0.0365074
0.000119567
7.31281e-05
-0.0365204
0.0365304
0.00020027
0.0001548
-0.0365366
0.0365386
0.000276344
0.000232408
-0.0365359
0.0363463
0.000344696
0.000303987
-0.036033
0.0352626
-0.000264324
0.000365938
0.000217494
8.47994e-05
-0.000383576
0.035247
0.0354262
0.000400708
-0.000425047
0.0355408
0.0354371
0.000451433
-0.000474767
0.0355261
0.0352782
0.000491094
-0.000496276
0.0358016
0.0354209
0.000487478
-0.00109546
0.0358623
0.0358232
0.00105688
-0.00129302
0.0357954
0.035721
-0.0310357
0.0312548
-0.00129842
-0.00154244
0.00100118
-0.0286171
-0.0308628
-0.00171535
-0.00191109
0.0355285
0.0359899
-0.0364658
-0.00110958
-0.0354203
0.0353609
-0.0017342
-0.00169009
0.0372539
-0.0372996
-0.000556927
-0.000491476
0.0373408
-0.037378
-0.000685416
-0.00061874
0.0374106
-0.0374399
-0.000806562
-0.000743391
0.0374651
-0.0374871
-0.00091305
-0.000856708
0.0375054
-0.0375205
-0.00100149
-0.000953449
0.0375319
-0.0375396
-0.00107166
-0.00103201
0.0375432
-0.0375424
-0.00112472
-0.00109307
0.0375366
-0.0375253
-0.00116157
-0.00113779
0.0375082
-0.0374843
-0.00118208
-0.00116657
0.0374537
-0.0374151
-0.0011853
-0.00117878
0.0373687
-0.0373132
-0.00117009
-0.00117328
0.037249
-0.0371746
-0.00113579
-0.0011491
0.0370908
-0.0369958
-0.00108264
-0.00110598
0.0368908
-0.0367737
-0.00101199
-0.00104466
0.0366465
-0.0365067
-0.000926505
-0.000967085
0.0363568
-0.0361943
-0.000830293
-0.000876589
0.0360219
-0.0358374
-0.00072905
-0.000778022
0.0356438
-0.035439
-0.000629965
-0.000677785
0.0352263
-0.0350036
-0.000541603
-0.000583713
0.0347747
-0.0345375
-0.000473761
-0.000504942
0.0342962
-0.0340488
-0.000437089
-0.000451736
0.0337993
-0.0335462
-0.000442471
-0.000434821
0.0332943
-0.0330412
-0.000499778
-0.000464764
0.0327886
-0.0323443
-0.00062175
-0.000551907
0.0319304
-0.0320522
-0.00081194
-0.000705903
0.0318077
-0.0315253
-0.000800448
-0.000677354
-0.000957404
0.00331714
-0.0262868
-0.00280566
-0.0242907
-0.00165234
0.0350511
0.00336927
-0.027269
-0.00219447
-0.0231188
0.00339548
-0.0279567
-0.0014924
-0.0226133
0.00380007
-0.0297911
-0.000886499
-0.0229147
0.00454346
-0.0301074
0.00452016
-0.031082
0.00493849