/*--------------------------------*- C++ -*----------------------------------*\
  =========                 |
  \\      /  F ield         | OpenFOAM: The Open Source CFD Toolbox
   \\    /   O peration     | Website:  https://openfoam.org
    \\  /    A nd           | Version:  10
     \\/     M anipulation  |
\*---------------------------------------------------------------------------*/
FoamFile
{
    format      ascii;
    class       volVectorField;
    location    "9.5";
    object      U;
}
// * * * * * * * * * * * * * * * * * * * * * * * * * * * * * * * * * * * * * //

dimensions      [0 1 -1 0 0 0 0];

internalField   nonuniform List<vector> 
33313
(
(0.364884 0.0174986 -5.90178e-21)
(0.526348 0.00971017 3.19116e-21)
(0.469843 0.030452 0)
(0.207395 0.0138148 0)
(0.854777 0.025528 -9.83386e-23)
(0.81647 0.0266406 0)
(0.703978 0.0296264 -1.17645e-21)
(0.728019 0.0234521 0)
(0.825108 0.019769 2.2703e-22)
(0.700728 0.0204867 1.61596e-21)
(0.777723 0.0265588 0)
(-0.0369651 0.0288918 -1.90794e-20)
(-0.0128639 0.00906166 -6.78718e-20)
(-0.0121027 0.00927148 -1.41102e-19)
(0.432014 -0.354221 3.51228e-22)
(0.164917 -0.122177 -1.32747e-21)
(0.145823 -0.11585 2.99262e-21)
(1.41513 -0.443883 0)
(1.41574 -0.326173 0)
(1.39369 -0.294625 0)
(1.43434 -0.368893 3.04487e-20)
(0.521404 0.0142574 0)
(0.440373 0.313562 -1.27242e-19)
(0.290972 0.269493 3.85113e-19)
(0.399493 0.00433411 -8.25684e-20)
(1.00471 -0.0198141 -4.89906e-20)
(1.00464 -0.0387434 3.40061e-20)
(1.00497 -0.0781206 0)
(0.963888 0.104953 -4.26847e-20)
(1.03652 0.0999732 3.39552e-20)
(1.01611 0.0814807 2.36571e-20)
(0.996581 -0.0191125 -3.05953e-20)
(0.882298 0.0570793 -1.67143e-20)
(-0.0576653 -0.0741305 7.48168e-20)
(-0.0671955 -0.0438467 -1.5565e-19)
(-0.0682547 -0.0401254 9.68279e-20)
(-0.106052 -0.0683835 1.34102e-20)
(1.15231 -0.0536529 9.32281e-23)
(1.16003 -0.0549238 4.3728e-21)
(1.43629 0.307529 -1.37042e-20)
(1.42299 0.289236 2.54598e-20)
(1.01432 -0.195929 -5.35155e-20)
(1.02118 -0.192338 -4.35709e-21)
(-0.0682381 -0.0375285 -6.41369e-20)
(-0.0785278 0.0612078 2.55955e-20)
(-0.08767 0.0617815 -1.04021e-19)
(0.19292 0.48243 9.12468e-20)
(0.17456 0.348216 3.32158e-20)
(0.535674 -0.0535137 2.05529e-21)
(0.664871 -0.0287199 -2.7767e-21)
(1.04193 0.0677565 -2.99877e-20)
(1.05975 0.0623577 1.6607e-20)
(1.06437 -0.0970187 -4.48853e-20)
(1.01927 -0.0604188 1.21749e-19)
(0.462513 0.525254 1.59502e-19)
(0.401492 0.579744 -7.76579e-20)
(0.617577 0.716154 -9.42517e-20)
(0.36608 0.657906 2.13327e-19)
(0.223533 -0.377127 4.05684e-20)
(0.356617 -0.699872 -3.26799e-21)
(0.20852 0.519205 -6.44843e-20)
(0.406765 -0.277943 2.33708e-19)
(0.227388 -0.208681 -7.02868e-20)
(0.0977142 -0.150513 0)
(0.111387 -0.00509662 0)
(0.149875 -0.0166885 1.95146e-20)
(1.47253 0.1135 5.00667e-20)
(1.35177 -0.318904 0)
(1.35028 -0.311848 0)
(-0.0143533 -0.0101705 3.4153e-20)
(-0.00709054 0.0212812 0)
(0.114603 0.0168805 0)
(0.18745 -0.0523058 9.10977e-21)
(1.44176 0.343377 4.95432e-20)
(-0.188145 -0.0240862 7.71575e-20)
(-0.0954351 -0.0380686 5.65259e-20)
(0.245374 -0.0508885 0)
(0.204621 -0.0522213 3.35164e-20)
(1.37054 0.373631 4.27376e-20)
(1.39072 0.3285 -2.64119e-20)
(0.819112 -0.0636542 1.47413e-19)
(0.834099 -0.0432485 -4.93382e-20)
(0.793779 -0.0994125 0)
(1.22486 0.24095 1.38644e-20)
(1.08028 0.245201 -2.86313e-21)
(0.461728 0.0658006 -1.1236e-20)
(0.0304789 0.0362028 0)
(-0.0612379 0.0646468 1.24835e-20)
(-0.0724566 0.0557925 7.02718e-20)
(0.03812 -0.138668 2.82069e-19)
(-0.161086 -0.0993798 6.25346e-21)
(-0.118421 -0.113519 -2.53242e-21)
(-0.119856 -0.122264 -4.34812e-19)
(-0.131872 -0.109758 0)
(-0.13428 -0.0977871 4.43671e-20)
(1.04239 0.0622159 0)
(1.01596 0.0596704 -3.50993e-21)
(0.611847 -0.0589027 -3.7952e-21)
(0.758118 -0.0397408 8.43242e-22)
(1.44927 -0.310778 0)
(1.44736 -0.347274 -6.68651e-20)
(1.44128 -0.27994 0)
(1.45014 -0.230553 3.13147e-20)
(1.47418 -0.24463 5.19061e-21)
(1.3938 -0.225688 -3.48379e-20)
(0.238446 -0.0246424 -1.6451e-21)
(0.164008 -0.0528326 -8.45979e-20)
(-0.0280259 -0.0531168 -5.96672e-20)
(-0.0259009 -0.0537445 -2.99612e-22)
(0.902992 -0.614787 1.08762e-21)
(1.09733 -0.785169 1.22454e-20)
(0.926023 -0.731291 3.27375e-20)
(0.713096 -0.499911 0)
(0.707973 -0.214173 7.29897e-20)
(0.259433 -0.045006 3.57596e-20)
(0.622732 -0.0983009 -3.24554e-20)
(0.206457 0.0554709 -4.34007e-19)
(0.170739 0.201016 4.97477e-20)
(1.46832 -0.234291 1.56238e-21)
(1.46238 -0.22562 0)
(-0.0876465 -0.0854158 0)
(-0.0568511 -0.0497657 9.99141e-20)
(-0.0774692 -0.0716157 0)
(0.449601 -0.0180509 -4.51629e-21)
(0.523997 -0.0132925 3.46632e-21)
(0.26767 -0.0433131 -9.35467e-21)
(0.756648 0.71035 1.66113e-19)
(1.30605 -0.0373725 1.97884e-21)
(1.3056 -0.0470752 0)
(-0.128278 0.134933 1.89464e-20)
(-0.137981 0.139751 -2.51687e-20)
(-0.0683907 -0.0673926 -1.51301e-19)
(-0.0628774 -0.0623909 2.79102e-19)
(0.860443 0.672117 3.27485e-20)
(1.0176 0.692392 5.39356e-20)
(0.877723 0.635294 0)
(0.72912 0.574862 0)
(0.488545 -0.340282 -7.42234e-21)
(0.613778 -0.435742 0)
(0.856392 -0.764913 -1.00945e-19)
(0.858075 -0.729715 -3.33059e-20)
(0.726627 -0.779035 1.12319e-19)
(1.28774 -0.0283701 3.87201e-21)
(1.28502 -0.0203496 3.28223e-20)
(1.30827 -0.0298812 -4.67772e-22)
(1.09483 -0.0240011 0)
(1.09974 -0.0241839 -1.44523e-22)
(1.10183 -0.0279268 4.07888e-22)
(1.10633 -0.0306316 -1.2306e-22)
(0.996737 -0.236514 4.04925e-20)
(1.01033 -0.242213 0)
(0.993981 -0.192219 -7.00097e-20)
(1.00156 -0.207646 4.01042e-20)
(0.936746 0.0984433 2.98588e-20)
(0.929091 0.117678 -4.62251e-20)
(0.949488 0.126746 2.83392e-20)
(0.942441 0.13841 1.65769e-19)
(0.0251522 -0.046088 2.38516e-20)
(-0.130717 -0.0146466 0)
(-0.0334591 -0.0280651 -3.0476e-20)
(-0.0583969 -0.0558797 -2.37057e-19)
(0.429009 0.351066 3.19777e-21)
(0.459341 0.41594 -1.82384e-20)
(0.832938 0.700127 -4.17655e-20)
(0.467492 0.466836 -6.4765e-20)
(-0.0485392 0.0307502 0)
(-0.0571868 0.0546862 6.62627e-20)
(-0.102912 0.0744101 -4.48608e-20)
(0.354016 0.0763486 0)
(0.877274 0.020309 0)
(0.922476 0.020127 -5.56816e-22)
(1.07542 -0.00969504 1.16595e-21)
(1.07679 -0.0137482 -6.77609e-22)
(1.09906 0.0525797 5.75769e-22)
(1.1026 0.0581102 2.98114e-23)
(1.01362 -0.0908471 1.00506e-20)
(1.02542 -0.075012 -4.32733e-20)
(0.196561 0.109536 8.15326e-20)
(0.146163 0.120533 -6.56719e-20)
(1.30857 0.166421 0)
(1.31627 0.162937 0)
(1.14057 0.0436574 7.69611e-23)
(1.14611 0.0479704 1.59368e-21)
(1.09713 0.208714 -3.1782e-20)
(1.09321 0.20185 1.14433e-20)
(0.624949 0.00923719 0)
(0.612335 0.0188458 -1.23999e-20)
(0.122339 0.129865 1.62552e-20)
(0.122163 0.143176 1.96166e-20)
(-0.00630561 0.140276 1.27643e-22)
(-0.261349 0.00386324 -2.02881e-19)
(0.834733 0.0369499 -5.29351e-20)
(0.865199 0.0363735 2.25173e-20)
(-0.0989518 0.164735 6.30136e-21)
(-0.128364 0.170008 0)
(0.915464 0.245087 0)
(0.889102 0.276046 -4.33634e-21)
(0.8558 0.368632 -5.86513e-20)
(0.962085 -0.285772 2.53215e-20)
(0.934183 -0.314314 0)
(0.92859 -0.46979 3.05162e-20)
(0.810918 -0.00743429 -4.43308e-20)
(0.83959 -0.000484622 5.39253e-20)
(1.04098 -0.0667731 3.7676e-21)
(1.03402 -0.0599209 -8.30893e-21)
(-0.0992354 0.100503 0)
(-0.0910595 0.0772968 -3.66615e-20)
(1.21885 -0.661144 -2.04697e-20)
(1.15698 -0.666926 9.18933e-21)
(1.02929 -0.0564422 -2.93657e-20)
(1.03436 -0.0652792 3.50109e-20)
(0.827549 0.0267395 6.73919e-24)
(0.884789 0.0240026 -7.80905e-24)
(0.883176 0.0234686 -8.98956e-22)
(0.836362 0.0248834 -5.35649e-22)
(0.559139 -0.430746 3.70246e-21)
(-0.0212757 0.0164347 6.69639e-20)
(-0.0202837 0.0155 -3.50361e-20)
(0.976741 0.194371 1.25985e-20)
(0.976338 0.176366 -5.88404e-21)
(0.98817 0.176656 5.90912e-21)
(0.990529 0.195451 0)
(1.47158 -0.22887 -2.63859e-20)
(1.47179 -0.211997 1.47758e-21)
(1.46413 -0.206158 2.56654e-20)
(1.09291 0.306721 0)
(1.07773 0.299962 -3.44108e-20)
(1.0965 0.304897 0)
(-0.0589525 0.0400513 -4.18251e-20)
(-0.0208895 0.0135245 -9.41368e-20)
(-0.0258717 0.016943 0)
(0.193375 -0.131966 -4.40332e-20)
(0.159695 -0.114999 1.41592e-20)
(1.07327 -0.00807833 8.84354e-22)
(1.08975 0.0203017 -2.2315e-21)
(1.09213 0.0243521 -9.26996e-22)
(1.25364 -0.407706 0)
(1.03646 -0.200339 0)
(0.899354 0.0672421 1.94683e-21)
(0.904988 0.0636353 1.69831e-21)
(0.911608 0.0594578 -2.34669e-21)
(0.917921 0.0558787 1.70272e-22)
(0.922496 0.0510927 0)
(0.927911 0.0470237 1.16186e-21)
(0.933291 0.0428756 -1.16169e-21)
(0.93872 0.0387485 -1.08106e-21)
(0.944044 0.0346324 1.0804e-21)
(0.94938 0.0305937 1.00493e-21)
(0.954629 0.0266177 -1.00427e-21)
(0.959889 0.0227663 -9.34628e-22)
(0.965077 0.0190164 9.33968e-22)
(0.97026 0.0154275 0)
(0.975368 0.0119711 0)
(0.980443 0.00870659 0)
(0.985431 0.0055998 -7.8161e-22)
(0.990359 0.00270751 7.82266e-22)
(0.995192 -1.15338e-05 0)
(0.999942 -0.00249868 0)
(1.00456 -0.00480264 0)
(1.00908 -0.00686346 -6.5885e-22)
(1.01342 -0.00876698 2.173e-23)
(1.01769 -0.0103873 1.25395e-21)
(1.02167 -0.0119389 -6.16786e-22)
(1.02575 -0.0130492 5.76175e-22)
(1.02916 -0.0144263 -1.78044e-21)
(1.03303 -0.0152727 -4.65408e-24)
(1.03605 -0.0160319 0)
(1.03926 -0.0164539 -1.63606e-22)
(1.04234 -0.0167469 0)
(1.045 -0.0168531 3.13033e-22)
(0.871023 0.0585231 0)
(0.874754 0.0678875 -4.1395e-21)
(0.858506 0.0597323 -1.18033e-21)
(0.900821 0.0738708 -1.08446e-21)
(1.04942 -0.0163654 3.09102e-22)
(1.04793 -0.01699 -2.96541e-22)
(1.04734 -0.0199426 0)
(1.0517 -0.0194488 1.46409e-22)
(1.0498 -0.0198899 1.54482e-22)
(1.04193 -0.0197523 0)
(1.04495 -0.0200021 0)
(1.03538 -0.0188554 0)
(1.0391 -0.0195425 0)
(1.02763 -0.0170606 4.99283e-27)
(1.03171 -0.018048 0)
(1.01893 -0.01441 0)
(1.02343 -0.0158247 0)
(1.00931 -0.0109015 1.92611e-24)
(1.01425 -0.0127588 0)
(0.99881 -0.00652382 0)
(1.00418 -0.0088186 0)
(0.987467 -0.00129532 2.20624e-24)
(0.993244 -0.00401537 0)
(0.975335 0.00474476 2.36599e-24)
(0.981498 0.00162653 0)
(0.962472 0.0115011 2.54057e-24)
(0.968994 0.00803903 3.01993e-28)
(0.94892 0.0188579 0)
(0.955783 0.0151119 0)
(0.934683 0.0266552 0)
(0.941891 0.02271 0)
(0.919714 0.0346994 0)
(0.927297 0.0306582 0)
(0.903738 0.0428498 0)
(0.911913 0.0387481 0)
(0.888061 0.0511597 -8.8826e-22)
(0.896964 0.0474196 -2.11992e-22)
(0.881485 0.0556061 -1.72443e-23)
(0.868704 0.0713285 1.02206e-23)
(0.849296 0.0632251 -6.24133e-22)
(1.05482 -0.0197559 0)
(0.896456 0.0780937 3.61272e-21)
(1.05395 -0.0177385 0)
(1.0518 -0.0159923 -3.50087e-22)
(0.860781 0.0748724 -2.78353e-25)
(0.839387 0.0657402 6.42147e-22)
(1.05755 -0.0194715 6.6286e-22)
(1.05105 -0.0141215 0)
(0.890891 0.0823582 6.18633e-22)
(1.05328 -0.014049 3.17444e-22)
(0.829813 0.0689946 6.67106e-22)
(0.884047 0.0860322 -6.42849e-22)
(0.85272 0.0779964 0)
(0.932349 0.0787788 -1.2465e-23)
(0.924927 0.0883258 -1.07155e-21)
(0.929283 0.0836193 -2.31183e-21)
(0.937113 0.0695663 -5.70174e-23)
(0.933779 0.0740042 1.01931e-21)
(0.948679 0.0611228 1.79418e-24)
(0.943677 0.065648 1.9178e-21)
(0.956684 0.0522411 0)
(0.952789 0.056665 0)
(0.964072 0.0436245 0)
(0.960419 0.047886 0)
(0.971255 0.0353972 0)
(0.967682 0.0394607 0)
(0.978401 0.0276064 0)
(0.974826 0.0314425 0)
(0.985627 0.0203337 0)
(0.982004 0.0239003 0)
(0.992963 0.0136618 0)
(0.989285 0.016918 0)
(1.00038 0.00766294 0)
(0.996668 0.0105746 0)
(1.00781 0.00239481 0)
(1.0041 0.00493366 0)
(1.01516 -0.00210573 0)
(1.01149 4.49153e-05 0)
(1.02235 -0.00583289 -2.10703e-27)
(1.01875 -0.00408977 0)
(1.02931 -0.00874918 2.67952e-27)
(1.02575 -0.00750345 0)
(1.03549 -0.0112591 9.84952e-23)
(1.03229 -0.0103727 1.3669e-21)
(1.04095 -0.0131002 3.2929e-22)
(1.0382 -0.0124444 -5.91103e-22)
(1.04619 -0.0139802 -3.15915e-22)
(1.04366 -0.0136087 1.62241e-22)
(1.04867 -0.0142055 0)
(1.05566 -0.0174044 8.36944e-23)
(1.05527 -0.0140458 1.36212e-23)
(1.05374 -0.0158032 0)
(1.06031 -0.0219853 1.99659e-23)
(1.06483 -0.0210183 -6.44719e-22)
(1.06262 -0.0215856 0)
(1.05632 -0.0227123 0)
(1.05849 -0.0223871 -8.20415e-23)
(1.0513 -0.0229407 9.60003e-23)
(1.05409 -0.0229606 0)
(1.0451 -0.0224493 0)
(1.04839 -0.0227895 -9.62324e-23)
(1.0377 -0.0211439 8.63038e-27)
(1.04153 -0.0218824 0)
(1.02924 -0.0190111 0)
(1.03361 -0.0201745 0)
(1.01965 -0.016021 -1.92237e-24)
(1.02459 -0.0176217 0)
(1.00893 -0.0121553 0)
(1.01444 -0.014197 0)
(0.997058 -0.00742269 -2.20181e-24)
(1.00314 -0.00989623 0)
(0.984048 -0.00186739 -2.36114e-24)
(0.990695 -0.00474477 0)
(0.969929 0.0044273 -2.53524e-24)
(0.977129 0.00119295 -3.01362e-28)
(0.954734 0.0113291 0)
(0.962464 0.00781052 0)
(0.938505 0.0186693 0)
(0.946749 0.014955 0)
(0.92128 0.0262359 0)
(0.930016 0.0224366 0)
(0.903012 0.0338404 -3.33457e-24)
(0.912293 0.0300391 0)
(0.883861 0.0414276 0)
(0.893555 0.0376923 0)
(0.863905 0.0483082 0)
(0.874376 0.0452811 0)
(0.841813 0.0533754 3.0333e-22)
(0.852602 0.0505555 1.33771e-21)
(0.819149 0.0583078 4.37527e-22)
(0.830057 0.0554851 -1.80098e-21)
(1.05958 -0.0189489 -2.42157e-22)
(0.919739 0.0927832 1.14216e-21)
(0.819211 0.0709589 -6.71222e-22)
(0.806964 0.0596152 9.43052e-22)
(1.05702 -0.0139097 -1.73545e-22)
(1.05967 -0.0125636 -2.38264e-22)
(1.06133 -0.0125829 -1.1638e-22)
(0.876428 0.0894173 0)
(1.07431 -0.022143 -3.21026e-22)
(1.0666 -0.0202896 -7.83197e-23)
(1.07561 -0.0211936 -3.55273e-22)
(0.913547 0.0969477 1.72058e-23)
(0.843629 0.0807851 0)
(0.959869 0.0931751 2.97209e-22)
(0.951262 0.103045 1.55358e-21)
(0.956183 0.0982159 -6.03478e-22)
(0.966771 0.0832453 1.07311e-21)
(0.963984 0.0882018 0)
(0.972106 0.073832 -2.9475e-23)
(0.969382 0.0785242 -4.9164e-22)
(0.979157 0.064374 1.12101e-22)
(0.975912 0.0690743 -1.41715e-22)
(0.984497 0.0552622 0)
(0.98195 0.0597652 0)
(0.989283 0.0465475 0)
(0.98692 0.0508507 0)
(0.993954 0.0383009 0)
(0.991627 0.0423638 0)
(0.998665 0.0305612 0)
(0.996298 0.0343653 0)
(1.00355 0.0233783 0)
(1.00108 0.0268975 0)
(1.00867 0.0168053 1.14873e-24)
(1.00608 0.0200129 0)
(1.01405 0.0108919 0)
(1.01133 0.0137638 0)
(1.01963 0.00567415 0)
(1.01682 0.00819561 0)
(1.02535 0.00115666 0)
(1.02247 0.00332365 0)
(1.03112 -0.00264469 -4.24797e-27)
(1.02822 -0.000842288 0)
(1.03684 -0.00574873 4.18235e-27)
(1.03394 -0.00431768 0)
(1.04227 -0.00825533 1.34176e-23)
(1.03947 -0.00714262 0)
(1.04716 -0.0102186 4.13782e-23)
(1.0447 -0.009365 3.58072e-22)
(1.05168 -0.0115378 -8.28804e-23)
(1.04949 -0.0109608 -4.28047e-23)
(1.05593 -0.0122415 8.07397e-23)
(1.05378 -0.0119924 1.61941e-22)
(1.0579 -0.0124438 -8.19947e-23)
(1.05718 -0.0169689 9.90719e-23)
(1.05547 -0.0155033 0)
(1.06794 -0.0194689 -2.19602e-22)
(1.06118 -0.018337 4.09101e-23)
(1.07135 -0.0237888 -8.87946e-24)
(1.07281 -0.023013 0)
(1.06795 -0.0249867 -2.197e-23)
(1.06987 -0.0244715 3.1452e-23)
(1.06386 -0.0256997 -1.47788e-24)
(1.06601 -0.0254022 -2.23988e-23)
(1.0584 -0.0256681 0)
(1.06121 -0.0257559 0)
(1.0519 -0.0249163 1.12192e-26)
(1.05528 -0.0253845 0)
(1.04424 -0.023369 1.77429e-24)
(1.04822 -0.0242417 0)
(1.03536 -0.0209907 0)
(1.03996 -0.0222843 0)
(1.02517 -0.0177586 0)
(1.03044 -0.0194819 0)
(1.01363 -0.0136701 0)
(1.01958 -0.0158208 0)
(1.00069 -0.00875784 2.30731e-24)
(1.00733 -0.0113139 0)
(0.986357 -0.00309109 0)
(0.993698 -0.00601369 0)
(0.970652 0.00320023 0)
(0.978679 -1.56275e-05 0)
(0.953607 0.00995025 0)
(0.962296 0.00652935 0)
(0.935285 0.0169464 0)
(0.944606 0.0134296 0)
(0.915701 0.0239564 3.35976e-24)
(0.925654 0.0204661 0)
(0.894859 0.0306537 0)
(0.905449 0.0273619 0)
(0.872588 0.036781 -5.06738e-22)
(0.883919 0.0338692 0)
(0.849118 0.0418491 6.13805e-24)
(0.860921 0.0394731 5.15344e-22)
(0.824588 0.0457087 1.09365e-22)
(0.837031 0.0437335 -1.15559e-21)
(0.79496 0.0613024 1.30143e-21)
(0.798891 0.0476505 0)
(0.811956 0.0467542 9.00723e-22)
(0.908292 0.101216 -3.29604e-21)
(0.94704 0.10798 1.66627e-21)
(0.869605 0.0929874 -1.40306e-21)
(0.808517 0.0733858 0)
(1.07659 -0.0201768 3.45993e-22)
(0.785312 0.047949 0)
(0.781668 0.0618729 -3.01574e-21)
(1.05845 -0.0137364 7.81903e-23)
(1.06264 -0.0125547 -1.087e-22)
(1.06629 -0.0113689 -3.54072e-22)
(0.902392 0.105353 0)
(0.942777 0.112933 9.95861e-22)
(1.06766 -0.0115581 0)
(0.835119 0.0838023 0)
(0.987346 0.108075 -1.27689e-21)
(0.980287 0.118843 -9.92957e-22)
(0.98402 0.113422 1.02223e-21)
(0.994045 0.0972309 2.07786e-22)
(0.991232 0.102694 -6.40739e-22)
(1.00024 0.086783 7.75054e-22)
(0.997372 0.0919724 -1.26445e-22)
(1.00484 0.076591 1.75347e-22)
(1.00254 0.0816536 0)
(1.00913 0.0665607 3.08896e-26)
(1.00713 0.0715181 -1.16712e-22)
(1.01257 0.0572079 0)
(1.01094 0.0618129 0)
(1.01552 0.0483745 0)
(1.01408 0.0527257 0)
(1.01834 0.0401048 0)
(1.01694 0.0441671 0)
(1.02118 0.0324271 0)
(1.01975 0.0361915 0)
(1.0242 0.0253618 -1.22049e-24)
(1.02267 0.028817 0)
(1.02749 0.0189334 -1.14873e-24)
(1.02581 0.0220671 0)
(1.03109 0.0131641 0)
(1.02925 0.0159659 0)
(1.03498 0.00806536 0)
(1.033 0.0105314 0)
(1.03913 0.00363766 0)
(1.03703 0.00576682 0)
(1.04347 -0.000132131 -6.8491e-27)
(1.04128 0.0016697 0)
(1.04786 -0.00328201 6.24299e-27)
(1.04566 -0.00179036 0)
(1.05218 -0.00587177 7.54137e-25)
(1.05002 -0.00464936 0)
(1.05627 -0.00795661 1.42287e-24)
(1.05425 -0.00697568 0)
(1.05998 -0.00956636 8.54381e-23)
(1.05818 -0.00882449 0)
(1.06333 -0.0106841 8.2706e-23)
(1.06157 -0.0102036 -1.66545e-22)
(1.06471 -0.0111082 1.20961e-22)
(1.0585 -0.0164618 -1.84309e-23)
(1.05694 -0.0151327 -7.33611e-23)
(1.06913 -0.0186065 -3.05989e-22)
(1.06251 -0.0176664 -3.64898e-23)
(1.08513 -0.02283 3.84248e-22)
(1.08633 -0.0204545 -3.07826e-22)
(1.08586 -0.0216572 2.10378e-23)
(1.08356 -0.0249755 -6.16576e-27)
(1.08437 -0.0239404 -8.12129e-23)
(1.08129 -0.0266956 8.72379e-23)
(1.08255 -0.0259004 0)
(1.07813 -0.027844 1.4626e-24)
(1.07974 -0.0273292 0)
(1.0739 -0.0283473 0)
(1.07609 -0.0281789 0)
(1.06865 -0.0281533 1.33907e-26)
(1.0714 -0.0283412 0)
(1.06226 -0.0272124 -1.77429e-24)
(1.0656 -0.0277782 0)
(1.05462 -0.0254884 0)
(1.0586 -0.0264501 0)
(1.04562 -0.0229531 0)
(1.0503 -0.0243235 0)
(1.03517 -0.0195943 0)
(1.04058 -0.0213767 0)
(1.02319 -0.0154305 -2.30731e-24)
(1.02938 -0.0176109 0)
(1.00965 -0.0105213 0)
(1.01662 -0.0130643 0)
(0.994535 -0.00496929 0)
(1.0023 -0.00781759 0)
(0.977857 0.00106085 0)
(0.986393 -0.0020028 0)
(0.959655 0.00736097 0)
(0.968948 0.00418986 0)
(0.939962 0.0136736 -3.2538e-24)
(0.949997 0.0105342 0)
(0.918821 0.0196634 0)
(0.929575 0.0167262 0)
(0.896284 0.025023 -6.11689e-26)
(0.90772 0.0224493 0)
(0.872553 0.0294929 0)
(0.88455 0.0273971 0)
(0.847611 0.032592 -2.89603e-22)
(0.860216 0.031179 0)
(0.821911 0.0338355 2.25951e-21)
(0.834932 0.0333936 -1.50108e-22)
(0.771432 0.0478133 2.79565e-21)
(0.795045 0.0331714 -2.68935e-21)
(0.80865 0.0337592 2.49135e-22)
(1.07761 -0.0191181 4.86562e-24)
(0.936775 0.117359 0)
(0.975719 0.124151 3.33497e-23)
(0.861853 0.0963438 1.38323e-21)
(0.796629 0.0749018 6.77895e-22)
(1.06882 -0.0116597 2.95899e-22)
(0.781261 0.0318721 -4.34105e-23)
(0.836694 0.0191565 -2.61737e-21)
(0.82382 0.0177765 5.47007e-21)
(0.894727 0.108933 1.46105e-21)
(0.768149 0.0624824 1.33889e-21)
(0.756819 0.0469512 -2.70605e-21)
(0.930939 0.121737 0)
(1.0964 -0.0202778 2.87892e-22)
(1.08689 -0.0191929 3.7961e-23)
(1.09635 -0.0188427 2.93454e-22)
(0.970491 0.129243 -1.37243e-21)
(0.825119 0.0863901 -6.93839e-22)
(1.01357 0.123582 -6.27052e-22)
(1.0056 0.135277 0)
(1.00991 0.129474 1.93573e-21)
(1.01956 0.111921 -2.89581e-22)
(1.01679 0.117739 2.92657e-22)
(1.02502 0.100395 -2.6681e-22)
(1.02244 0.106107 5.55637e-22)
(1.02959 0.0892095 0)
(1.02744 0.0947593 0)
(1.03309 0.0783964 0)
(1.03146 0.0837529 0)
(1.03584 0.0680475 3.40037e-24)
(1.03454 0.0731357 0)
(1.03805 0.0584252 0)
(1.03701 0.063152 0)
(1.03987 0.0494466 0)
(1.039 0.053856 0)
(1.04152 0.0411339 0)
(1.04071 0.0452059 0)
(1.04316 0.0334983 0)
(1.04234 0.0372323 0)
(1.04492 0.0265374 1.22049e-24)
(1.04402 0.0299341 0)
(1.0469 0.0202518 0)
(1.04588 0.0233108 0)
(1.04916 0.0146403 0)
(1.048 0.0173626 0)
(1.05172 0.00969598 0)
(1.0504 0.0120862 0)
(1.05455 0.00539936 0)
(1.0531 0.00746846 0)
(1.05762 0.00171529 -9.53411e-27)
(1.05607 0.00348282 0)
(1.06083 -0.00140989 8.5815e-27)
(1.05922 8.38172e-05 0)
(1.06405 -0.00404611 -7.54086e-25)
(1.06244 -0.00278815 0)
(1.06713 -0.00625544 0)
(1.0656 -0.00520216 0)
(1.06994 -0.00806626 0)
(1.06854 -0.00721331 0)
(1.07237 -0.00948834 -1.6197e-22)
(1.07105 -0.00884365 0)
(1.07435 -0.0105009 3.87368e-22)
(1.07314 -0.0100775 -7.70574e-23)
(1.07625 -0.0111106 -6.01873e-22)
(1.07528 -0.0108654 1.8419e-23)
(1.05978 -0.0134567 7.2562e-23)
(1.06997 -0.0116717 -6.99481e-23)
(1.06391 -0.0124163 0)
(1.05968 -0.0159016 0)
(1.05827 -0.0147046 0)
(1.06993 -0.0176949 3.49925e-23)
(1.06359 -0.0169398 -1.43169e-22)
(1.08698 -0.0179326 -1.82209e-22)
(1.07801 -0.0180341 2.8332e-22)
(1.09636 -0.0230524 1.22839e-24)
(1.0965 -0.0216751 3.33074e-22)
(1.096 -0.025608 -8.74462e-27)
(1.09627 -0.0243659 0)
(1.09485 -0.0277633 2.74338e-24)
(1.09553 -0.0267467 0)
(1.09288 -0.0293626 -1.15536e-26)
(1.09397 -0.0286375 0)
(1.09002 -0.0303538 0)
(1.09156 -0.0299411 0)
(1.08622 -0.0306867 1.5588e-26)
(1.08825 -0.0306057 0)
(1.08136 -0.0303304 0)
(1.08393 -0.0305969 0)
(1.07532 -0.0292529 0)
(1.0785 -0.0298839 0)
(1.06797 -0.0274226 0)
(1.07182 -0.0284337 0)
(1.05919 -0.0248189 0)
(1.06377 -0.0262181 0)
(1.04886 -0.0214475 0)
(1.05423 -0.0232278 0)
(1.03694 -0.017353 2.39901e-24)
(1.04311 -0.0194866 0)
(1.02335 -0.0126258 0)
(1.03036 -0.0150615 0)
(1.00811 -0.00741042 2.75781e-24)
(1.01595 -0.0100692 0)
(0.991232 -0.00190189 0)
(0.999879 -0.00467981 0)
(0.972765 0.00364701 3.2538e-24)
(0.982197 0.000884688 0)
(0.952801 0.00892804 0)
(0.96297 0.00633907 0)
(0.931447 0.0135999 -7.39033e-26)
(0.942294 0.0113616 0)
(0.90881 0.0173343 0)
(0.92029 0.0156088 0)
(0.885128 0.0197716 -3.02691e-24)
(0.897075 0.0187278 0)
(0.861298 0.0203986 9.33143e-22)
(0.873089 0.0203505 4.38315e-22)
(0.84893 0.0200688 -7.91078e-22)
(0.766925 0.0300564 -2.90996e-21)
(0.811045 0.0157017 -2.93991e-21)
(1.07712 -0.0112834 0)
(0.963358 0.134007 4.29498e-21)
(1.00055 0.14077 -1.37495e-21)
(0.853211 0.0994874 -1.45745e-21)
(0.783915 0.0761864 -3.35224e-22)
(1.09619 -0.0174175 2.837e-22)
(0.88795 0.112786 0)
(0.753616 0.0621683 0)
(0.922871 0.125795 1.48997e-21)
(0.741757 0.0453857 0)
(0.797949 0.0130219 0)
(0.752451 0.0274454 2.94167e-21)
(0.958743 0.139045 -5.09463e-21)
(1.0842 -0.0109224 1.15559e-21)
(1.08456 -0.0112521 -3.47726e-22)
(0.996523 0.14636 2.58171e-23)
(0.814508 0.0886904 -3.39195e-22)
(1.03629 0.139671 1.24437e-21)
(1.0293 0.152001 6.47378e-22)
(1.0327 0.145853 -1.27628e-21)
(1.04203 0.127204 -6.33998e-24)
(1.03934 0.133446 2.95663e-22)
(1.0467 0.114791 2.06829e-24)
(1.04449 0.12097 -2.83117e-22)
(1.0506 0.102635 0)
(1.04876 0.108684 0)
(1.05369 0.0908406 0)
(1.05225 0.0966731 0)
(1.05605 0.0796233 0)
(1.05496 0.085155 0)
(1.05786 0.0690426 -3.31615e-24)
(1.05701 0.0742467 0)
(1.05932 0.0591999 0)
(1.05863 0.0640278 0)
(1.0605 0.0500945 0)
(1.05994 0.0545559 0)
(1.06153 0.0417315 0)
(1.06102 0.04582 0)
(1.06252 0.034111 1.26189e-24)
(1.06202 0.0378297 0)
(1.06358 0.0272195 -1.17997e-24)
(1.06304 0.0305755 0)
(1.06478 0.021043 0)
(1.06416 0.0240434 0)
(1.06619 0.0155645 0)
(1.06546 0.0182183 0)
(1.06784 0.0107598 0)
(1.06699 0.0130803 0)
(1.06973 0.00659174 0)
(1.06876 0.00859931 0)
(1.07183 0.00300622 -1.20606e-26)
(1.07076 0.00473029 0)
(1.07408 -7.09176e-05 1.08042e-26)
(1.07294 0.00140857 0)
(1.07636 -0.00272412 7.36496e-25)
(1.07522 -0.00144594 0)
(1.07855 -0.00502626 0)
(1.07747 -0.00391484 0)
(1.0805 -0.00701503 0)
(1.07954 -0.00605588 0)
(1.08206 -0.00869077 1.22429e-24)
(1.08125 -0.00788848 0)
(1.08319 -0.00999923 4.60957e-24)
(1.08244 -0.00940079 0)
(1.0835 -0.0105164 1.41584e-22)
(1.0706 -0.0116396 6.94375e-23)
(1.08481 -0.011485 -6.58628e-23)
(1.0775 -0.0113772 0)
(1.06089 -0.0131479 0)
(1.06484 -0.0122479 6.68536e-23)
(1.0607 -0.0152842 0)
(1.0594 -0.0142418 0)
(1.07053 -0.0167702 -2.0637e-22)
(1.06447 -0.0161688 0)
(1.0869 -0.0167121 -3.11259e-22)
(1.07824 -0.0169579 1.56465e-22)
(1.0957 -0.016044 3.79212e-23)
(1.10608 -0.0196725 3.827e-23)
(1.10489 -0.0165056 -1.95333e-24)
(1.10552 -0.0180853 -2.93384e-22)
(1.10713 -0.0227976 -1.00944e-26)
(1.10668 -0.0212396 -3.78887e-23)
(1.10776 -0.0257186 -1.1284e-26)
(1.10757 -0.0242938 0)
(1.10767 -0.0282449 -1.25752e-26)
(1.10781 -0.0270409 0)
(1.10688 -0.0302403 -1.40814e-26)
(1.10736 -0.0293134 0)
(1.10535 -0.0316484 0)
(1.10621 -0.0310199 0)
(1.10302 -0.0324462 1.78623e-26)
(1.1043 -0.0321249 0)
(1.09978 -0.032617 1.72013e-24)
(1.10153 -0.0326113 0)
(1.09549 -0.0321355 0)
(1.09778 -0.0324597 0)
(1.09001 -0.0309689 0)
(1.09291 -0.0316399 0)
(1.08321 -0.0290897 0)
(1.08679 -0.0301194 0)
(1.07497 -0.0264935 2.20932e-24)
(1.07928 -0.0278805 0)
(1.0652 -0.0232108 -2.39901e-24)
(1.07029 -0.0249348 0)
(1.05381 -0.0193162 0)
(1.05971 -0.0213339 0)
(1.0408 -0.0149352 -2.75781e-24)
(1.04752 -0.0171775 0)
(1.02615 -0.0102438 0)
(1.03368 -0.0126161 0)
(1.00993 -0.00547361 3.1251e-24)
(1.01824 -0.00785297 0)
(0.992245 -0.000904676 0)
(1.00127 -0.00314664 0)
(0.97323 0.00313934 -7.33527e-24)
(0.982899 0.00120309 0)
(0.953048 0.0063045 0)
(0.96328 0.004855 0)
(0.931926 0.0082198 -4.21368e-24)
(0.94259 0.00743629 0)
(0.910556 0.00855081 3.14537e-22)
(0.921214 0.00862434 2.92936e-22)
(0.889037 0.00693358 1.18484e-21)
(0.899594 0.00805217 -1.89193e-21)
(0.866913 0.00326972 2.70572e-21)
(0.878137 0.00535522 -2.69279e-21)
(0.785044 0.00964328 2.87587e-21)
(0.845499 -0.00296983 0)
(0.855426 0.000579005 0)
(0.989343 0.151359 -3.59356e-21)
(1.02466 0.157715 2.02352e-21)
(0.843998 0.102495 1.41507e-21)
(0.770278 0.0769176 0)
(0.833964 -0.00684557 0)
(0.772577 0.00542597 -3.03096e-21)
(0.878573 0.116083 3.21424e-23)
(0.738164 0.0612227 -3.59945e-22)
(0.915749 0.129982 1.46979e-21)
(0.726141 0.0430975 -4.59677e-23)
(1.08462 -0.0115954 1.98782e-22)
(1.09166 -0.011893 1.71135e-23)
(1.09128 -0.0121287 0)
(0.950433 0.143312 1.48383e-21)
(0.737565 0.024123 1.89282e-22)
(0.986554 0.157001 -1.43386e-21)
(1.104 -0.0149868 1.81527e-24)
(1.02311 0.163811 0)
(0.802753 0.0905809 9.48396e-24)
(1.05746 0.155838 9.00609e-22)
(1.05408 0.168633 0)
(1.05515 0.162309 -1.84143e-21)
(1.06171 0.142758 -2.89299e-22)
(1.05945 0.1493 2.95574e-22)
(1.06531 0.129587 0)
(1.06365 0.136147 0)
(1.06819 0.116627 -2.04593e-24)
(1.06684 0.123081 0)
(1.07044 0.103971 -1.87204e-24)
(1.06938 0.110242 0)
(1.07222 0.0918666 0)
(1.07138 0.0978401 0)
(1.07362 0.080429 0)
(1.07296 0.0860617 0)
(1.07477 0.0696936 5.11483e-26)
(1.07422 0.0749715 0)
(1.07574 0.0597204 0)
(1.07528 0.0646088 0)
(1.07658 0.0505335 0)
(1.07618 0.0550295 0)
(1.07734 0.0421319 0)
(1.07697 0.0462348 0)
(1.07808 0.0345121 -1.26189e-24)
(1.07771 0.0382255 0)
(1.07885 0.0276588 1.17997e-24)
(1.07846 0.0309913 0)
(1.07971 0.0215513 1.07946e-24)
(1.07927 0.0245137 0)
(1.08069 0.016164 0)
(1.08018 0.01877 0)
(1.08183 0.0114619 0)
(1.08124 0.0137304 0)
(1.08314 0.00739529 0)
(1.08247 0.00935337 0)
(1.08461 0.00389276 -1.43198e-26)
(1.08386 0.0055791 0)
(1.08619 0.000860686 1.27915e-26)
(1.08539 0.0023245 0)
(1.08779 -0.00180365 -7.36496e-25)
(1.08699 -0.000510637 0)
(1.08929 -0.00418864 -1.35826e-24)
(1.08856 -0.00302542 0)
(1.09055 -0.00634008 0)
(1.08995 -0.00528901 0)
(1.09143 -0.00824771 -1.193e-24)
(1.091 -0.00731928 0)
(1.09183 -0.00984225 7.26514e-23)
(1.09155 -0.00907842 0)
(1.09192 -0.0110612 -8.49864e-22)
(1.09168 -0.0104926 -1.80239e-22)
(1.09182 -0.0115294 2.62328e-22)
(1.07115 -0.0115281 0)
(1.07772 -0.0113879 0)
(1.06181 -0.0127928 0)
(1.0656 -0.012017 -6.63215e-23)
(1.06158 -0.014636 0)
(1.0604 -0.0137338 0)
(1.07093 -0.015853 9.9611e-23)
(1.06515 -0.015384 0)
(1.08665 -0.0155364 1.0255e-22)
(1.07838 -0.0159118 -8.37917e-23)
(1.11256 -0.0152777 -5.64808e-22)
(1.11141 -0.0136267 2.73308e-22)
(1.10311 -0.0135354 -2.67234e-22)
(1.09508 -0.0147233 -1.02955e-22)
(1.1147 -0.0186997 1.13783e-24)
(1.11368 -0.016973 1.47682e-22)
(1.11665 -0.0221291 -2.39162e-24)
(1.11573 -0.0204161 0)
(1.11803 -0.0253661 -1.38915e-26)
(1.11741 -0.0237834 0)
(1.11884 -0.0282014 -1.52395e-26)
(1.11851 -0.0268424 0)
(1.11909 -0.0305142 -1.43708e-24)
(1.11904 -0.0294263 0)
(1.11877 -0.0322622 0)
(1.11901 -0.0314587 0)
(1.11781 -0.0334449 2.01786e-26)
(1.11838 -0.0329237 0)
(1.11611 -0.0340624 -1.72013e-24)
(1.11707 -0.0338247 0)
(1.11353 -0.0340972 1.8036e-24)
(1.11494 -0.0341542 0)
(1.10995 -0.0335169 0)
(1.11188 -0.033886 0)
(1.10521 -0.0322899 0)
(1.10773 -0.0329855 0)
(1.0992 -0.0304036 -3.54063e-26)
(1.10237 -0.0314288 0)
(1.0918 -0.0278767 0)
(1.09568 -0.0292177 0)
(1.08293 -0.0247683 0)
(1.08756 -0.02639 0)
(1.07255 -0.0211835 0)
(1.07794 -0.0230274 0)
(1.06065 -0.0172768 0)
(1.0668 -0.0192593 0)
(1.04726 -0.0132557 -3.1251e-24)
(1.05414 -0.0152665 0)
(1.03248 -0.00937398 0)
(1.04004 -0.0112812 0)
(1.01646 -0.00592543 7.16401e-24)
(1.02462 -0.00757717 0)
(0.999376 -0.00324179 0)
(1.00804 -0.00446632 0)
(0.981475 -0.00170487 4.21441e-24)
(0.990519 -0.00230766 0)
(0.963084 -0.00163064 0)
(0.972314 -0.00147538 0)
(0.944863 -0.0033349 1.53244e-22)
(0.953865 -0.00222429 -1.52991e-22)
(0.926356 -0.00707444 -4.87448e-22)
(0.935552 -0.00494784 6.3977e-22)
(0.909096 -0.013116 1.40132e-21)
(0.917648 -0.00976813 -1.41156e-21)
(0.823903 -0.0117027 3.20243e-21)
(0.891972 -0.0214638 -3.12105e-21)
(0.899237 -0.0168015 0)
(1.01992 0.16975 -2.76518e-21)
(1.05207 0.17502 0)
(0.759554 0.000496001 0)
(0.813969 -0.0170736 -2.99139e-21)
(0.883808 -0.0266084 2.72853e-21)
(0.83271 0.104826 -7.33986e-22)
(0.755445 0.076968 0)
(0.868985 0.119286 -2.18117e-21)
(0.721868 0.0595848 3.56942e-22)
(1.08436 -0.0116069 1.87771e-22)
(1.09075 -0.0122469 -2.52713e-22)
(0.906276 0.133542 0)
(0.709796 0.039973 0)
(0.944459 0.148162 1.50157e-21)
(0.722999 0.0197835 -1.94235e-22)
(0.981441 0.162287 2.79588e-21)
(1.11013 -0.0120767 2.69998e-22)
(1.04986 0.181239 -3.85333e-21)
(1.01565 0.175345 -3.51168e-23)
(0.746914 -0.00525899 -3.45743e-21)
(0.804717 -0.0232948 -3.61579e-21)
(0.876865 -0.0325129 3.33662e-21)
(1.04592 0.18692 1.35527e-21)
(1.07752 0.184781 1.252e-21)
(1.09783 -0.012573 5.63779e-22)
(1.09718 -0.0129278 -3.26472e-23)
(1.07586 0.191112 -1.23058e-21)
(0.789386 0.0918037 -3.43324e-22)
(1.07906 0.171484 1.16324e-21)
(1.07805 0.17815 -1.78289e-21)
(1.0802 0.158057 -2.87796e-22)
(1.07921 0.164787 1.18564e-21)
(1.08172 0.144354 0)
(1.08085 0.15117 0)
(1.08316 0.130745 -1.95838e-24)