/*--------------------------------*- C++ -*----------------------------------*\
  =========                 |
  \\      /  F ield         | OpenFOAM: The Open Source CFD Toolbox
   \\    /   O peration     | Website:  https://openfoam.org
    \\  /    A nd           | Version:  10
     \\/     M anipulation  |
\*---------------------------------------------------------------------------*/
FoamFile
{
    format      ascii;
    class       surfaceScalarField;
    location    "25.5";
    object      phi;
}
// * * * * * * * * * * * * * * * * * * * * * * * * * * * * * * * * * * * * * //

dimensions      [0 3 -1 0 0 0 0];

internalField   nonuniform List<scalar> 
66213
(
0.00905859
-0.0109796
-0.00587282
0.00779388
0.028474
-0.00438115
-0.0150343
0.00815485
-0.0131618
0.0334809
-0.015156
0.0233109
0.0224105
-0.015458
-0.0182359
0.0112834
0.0216912
-0.0212434
0.0219627
0.0395396
-0.0310102
-0.0419093
0.0310405
-0.0320841
-0.00128964
-0.0121012
-0.0176193
-0.00858914
-0.0139439
0.000304182
-0.000194
-0.00130318
0.001193
-0.000198128
0.00050231
-0.000392128
-0.0027042
0.00138075
0.0122636
-0.0109401
0.00176377
-0.00446797
0.00314452
0.090148
0.105657
-0.100716
-0.0950883
0.0592416
0.0652951
-0.0343888
-0.0596301
0.0256478
0.093224
-0.0197228
0.0657494
0.0321494
0.039732
-0.0459011
-0.0259803
0.00124423
-0.000695145
0.0316003
-0.0110712
0.0101114
0.00220401
0.0173446
0.0113161
0.0535508
0.0176399
-0.00994153
-0.0612492
-0.00608185
0.0522326
0.00740002
-0.0746201
0.00656984
0.0619684
-0.0217043
0.0291423
0.0238353
-0.0312732
-0.0618372
0.00674156
0.0333913
-0.0246806
-0.0695256
0.032369
0.0301577
-0.0308126
0.0635145
-0.0881952
-0.000272275
-0.00544891
0.00165901
0.00406217
-0.00393299
0.00366071
-0.00209909
-0.0018339
-0.000978918
-0.00656907
0.04401
-0.00860484
0.00552056
-0.0409257
0.033183
-0.0112248
0.0220518
0.0230755
-0.0257207
0.0426492
-0.0400041
0.0108725
0.0415532
-0.0293502
8.71174e-05
0.0218413
-0.0304667
0.00853831
0.0298852
0.00282931
-0.0326273
-0.00190933
-0.000211119
0.00114154
0.00179872
-0.000322382
-0.0034297
0.00195336
0.00288519
-0.00157996
0.000493495
-0.010532
0.0120055
-0.000226782
-0.00124668
0.00198782
-0.00240841
-0.0107058
0.0252248
-0.0209263
0.00640728
-0.018136
-0.00529288
0.0127231
-0.0374904
0.0608134
0.0124464
-0.0357694
-0.0287278
-0.0782882
-0.064393
-0.0027495
0.0382898
0.0288527
0.0780201
-0.135843
-0.0208669
-0.00484686
0.0257138
-0.00884409
-0.0120228
-0.0247978
0.0354429
-0.0194892
0.00404573
-0.00863993
-0.0202036
-0.00155214
-0.00662985
0.00818199
-0.00742997
-0.00880908
0.0146869
-0.00797709
0.0055259
-0.00874243
0.0205612
0.00288159
-0.00392998
0.00657428
-0.00242201
0.00315786
0.00214575
0.00614769
-0.0037121
-0.00243559
0.0105907
-0.00444305
0.0408113
-0.0519144
-0.0199503
0.0310534
0.0757255
-0.0185611
-0.0768872
0.0655105
0.0275266
-0.0173115
0.0190759
-0.0133095
-0.028004
0.0222375
-0.0229733
0.0201096
0.0219397
-0.014679
0.027788
-0.0360823
-0.000702283
0.0237233
-0.0159172
-0.00710376
0.0243845
0.039639
-0.0897442
-0.0178649
0.00287977
0.0146219
0.000363287
-0.0150579
0.0102148
-0.0130218
0.0328898
0.00224469
-0.0104689
-0.0246657
0.0396856
0.000115198
-0.006911
0.0685353
0.0288855
-0.0136206
-0.0838002
0.0771181
0.0138128
-0.0223956
-0.0439974
0.0331645
-0.00372974
0.0145626
0.0117877
-0.0251684
-0.0306167
-0.0254724
0.03274
0.025897
-0.0495891
0.0276013
0.0463723
-0.0203021
0.0464989
-0.0757859
-0.00134417
0.0228946
-0.0418525
-0.0027135
-0.0104699
0.0134224
-0.000239024
-0.00339592
0.000508235
0.00017418
0.000196676
-0.000707402
0.00166811
0.000790396
-0.000300262
-0.00215824
0.0273383
0.00317519
-0.00802241
-0.022491
0.00316163
0.0196661
0.00451054
-0.019576
-0.00288311
0.0256207
-0.0172861
0.000885347
-0.0198126
-0.00549595
-0.0107292
0.0352417
0.0363009
0.0297602
-0.000922072
-0.0395673
0.0182264
-0.0324126
0.0394109
-0.0266272
0.00132049
0.0435332
-0.0393902
-0.00692608
-0.00430833
0.0506246
0.0408396
-0.0144804
0.0595613
-0.0360682
-0.0181299
0.013165
0.0410331
0.00345152
-0.0125628
-0.0269569
0.0489076
-0.063586
-0.00937203
-0.0020514
0.0136089
-0.0021855
-0.00138245
-0.00520016
-0.00278941
-0.000636078
0.00035564
-0.00110201
-0.00102847
-0.0587194
-0.0446861
0.0311194
0.0722861
-0.0210882
0.0307554
-0.0683867
0.0305245
-0.00476753
-0.0468451
-0.0154149
0.00125328
0.00490567
0.0119694
-0.00643276
-0.0104423
0.00294252
0.00196315
0.000517697
0.0143942
0.00235209
0.00773993
0.00122409
0.000864926
0.00369118
0.0344029
0.00062033
-0.047586
0.00429627
0.0432717
-7.57309e-06
-0.00363301
-0.00542245
0.00906303
-0.00125346
0.00139588
-0.000149992
-0.0042606
-0.000625873
0.00561208
0.0112634
-0.0111578
-0.00571764
-0.00159615
-0.0137181
0.0282614
0.0415175
-0.0109215
0.0483992
-0.0499708
-0.00190399
0.00347557
0.0518846
0.00275239
-0.00623781
-0.0167411
-0.00670536
0.0124313
0.0110151
-0.00146499
-0.00932628
-0.0059498
0.00491826
-0.00780137
0.00435274
0.000565525
0.0178565
0.0233333
-0.00477373
-0.0364161
0.0173369
0.0524137
-0.0518941
-0.026007
0.0193206
0.0240233
-0.00625455
0.00358085
-0.0139078
-0.00301465
0.00150751
-0.0194013
0.000726027
0.0458726
-0.043357
0.00393795
-0.00645363
0.00823471
-0.00920717
-0.0174373
-0.0341197
0.0082
-0.0489397
-0.00375661
0.0498346
0.00286174
-0.0322275
-0.0230197
0.00630746
0.00203574
-0.0557631
0.0384295
0.00604094
-0.0267762
-0.0176943
-0.0145157
0.0486879
0.00425739
0.0390559
-0.00483242
-0.0487392
0.0278249
0.0184786
-0.0072476
0.0223988
-0.0150766
-0.0256729
0.0183506
0.0151204
-0.0179827
0.0252611
0.0288023
0.0200509
-0.0140905
-0.0347627
-0.0106483
0.024374
0.0392914
0.00681705
-0.0255708
-0.0205377
-0.00323547
0.00237067
0.0401562
0.0378385
0.000808346
-0.0418823
0.0253424
-0.00737388
0.0198699
0.021931
-0.0121938
-0.0247951
-0.0208119
0.00745537
0.0162363
-0.0239066
0.00150549
0.00284725
-0.0198153
0.0150415
-0.024623
0.00480772
-0.00109079
0.0440435
-0.0014352
-0.0082415
-0.00177102
0.00955197
0.000460549
-0.00295756
0.00040569
-0.00568963
-0.00719871
-0.00319999
0.00744115
0.00530996
-0.011985
-0.00379488
-0.00251975
-0.0234205
0.0220781
0.00386219
-0.0258569
-0.00169689
0.0250341
0.00590607
-0.0156756
0.0410934
-0.0313239
0.038934
0.003825
-0.036853
0.000313861
0.0337407
0.000401098
-0.0344557
0.0333286
0.000910727
-0.0339255
0.0140387
0.0366754
-0.0534636
0.011438
0.0396488
-0.037048
0.00309635
0.000869475
-0.00467031
0.000704488
0.000787225
-0.000197466
0.00250659
-0.0445193
-0.00587972
0.0435698
0.00682921
-0.00516017
-0.042883
0.00352386
-0.00145104
0.0335304
-0.0333987
0.00131932
0.0330141
-0.000298986
-0.0341662
-0.0112436
-0.029579
0.0393486
0.00147398
0.024109
-0.00553339
-0.0298192
0.0425354
-0.0135434
-0.0435581
0.0145661
0.0421818
-0.0141766
0.0145302
-0.000522636
0.000880657
0.000429205
-0.000784079
0.00142905
-0.00116761
-0.00536121
0.00477688
-0.000336183
0.00740195
0.0075561
-0.0331736
-0.00711404
0.0365016
0.00378605
-0.00531142
-0.0307276
0.0028654
-0.00919585
0.00209662
0.0060048
0.00109443
0.00314669
-0.0100316
-0.00231089
0.0351348
-0.0330366
0.028555
-0.0306532
0.0554085
0.0235769
-0.0438506
0.0228598
-0.022182
0.0547307
0.036454
-0.0440468
0.0457195
-0.0381266
0.068698
0.0331262
-0.0653702
0.0234442
0.0669825
-0.0217287
-0.0351419
0.00831992
0.0386097
-0.032493
-0.00976299
-0.0369684
0.00663558
0.0386335
-0.00830064
-0.00762288
0.00713458
-0.0364801
0.00188578
0.00237391
-0.0066904
0.00243071
0.00361792
-0.00270811
0.000975973
0.0873588
-0.0621421
0.00751741
-0.0327341
0.0316787
0.0777326
-0.0220525
0.0371637
0.00475574
-0.0133521
-0.0285673
0.0409788
-0.000281274
-0.0237659
-0.0216708
0.00315367
-0.000831849
-0.0202346
-0.000604312
-0.0176536
-0.00694417
0.00109698
-0.00108237
0.00148806
-0.000273398
-0.000808976
-0.0311979
0.00342243
0.0293315
-0.00155604
0.00257164
-0.00213223
-0.0316373
0.0311043
0.00267222
-0.0312049
0.029769
0.00475777
0.0353174
0.014179
-0.0452002
-0.0205992
0.0566344
-0.000717748
0.025029
-0.0314492
-0.024358
-0.00438971
0.0237834
0.00496432
0.0207045
-0.0417026
-0.00335991
-0.00601762
0.0223324
-0.000257581
0.000363068
-0.00168545
0.000199279
-0.00045686
0.000562347
0.00195287
-0.00496752
0.00346038
0.0213106
-0.00564969
-0.0313365
-0.000672194
0.0337686
-0.0331425
4.61335e-05
0.0344743
-0.000990425
-0.0341561
0.0532085
-0.00969402
-0.0429968
0.0047611
0.0325515
-0.0045651
-0.0327475
0.0396273
-0.0327655
-0.0143397
0.00747784
0.0375985
0.0204153
-0.0183865
0.0447317
0.0147364
-0.0218696
0.0441542
0.0190826
-0.018505
0.0475547
0.015058
-0.0184585
0.0471495
0.0189375
-0.0185324
0.0464416
0.0188773
-0.0181693
0.0460189
0.0181692
-0.0177465
0.0453295
0.0173767
-0.0166873
0.0449214
0.0158456
-0.0154376
0.0443045
0.0141578
-0.0135409
0.04395
0.011794
-0.0114394
0.0434915
0.00928036
-0.00882192
0.0432529
0.00628941
-0.00605078
0.0430425
0.00320887
-0.00299845
0.0429642
-3.6805e-05
0.000115101
0.0430286
-0.00327842
0.00321405
0.0431294
-0.0063708
0.00627001
0.0434956
-0.00938386
0.00901763
0.0437749
-0.0119225
0.0116432
0.0443905
-0.0143369
0.0137213
0.0447806
-0.0160496
0.0156594
0.0455297
-0.0176733
0.0169242
0.0459309
-0.0185157
0.0181146
0.0466883
-0.0193922
0.0186348
0.0470277
-0.0195355
0.0191961
0.0439671
-0.0198768
0.0229374
0.0442333
-0.01958
0.0193139
0.0387391
-0.0167698
0.0222639
0.0375749
-0.0172882
0.0184524
0.0376033
-0.0176812
0.0176529
0.0378929
-0.0178209
0.0175313
-0.0288426
0.0372905
0.0218243
-0.0302722
0.0200909
-0.0131237
-0.0297616
0.0227943
-0.0291923
0.0204407
-0.0308649
-0.0150242
-0.0406223
0.0308315
0.0131335
-0.00334274
-0.0177803
0.0150509
0.0382971
-0.0386612
-0.0173172
-0.0376673
0.038885
-0.018998
-0.017191
0.036126
-0.0340378
-0.0188579
-0.0198234
0.0339648
-0.0337304
-0.0201113
-0.019653
0.0334526
-0.033135
-0.0197099
-0.0198132
0.0327907
-0.0324275
-0.0180365
-0.01886
0.0320691
-0.0317272
-0.0146788
-0.0164079
0.0314256
-0.0311725
-0.00963695
-0.0122241
0.0309813
-0.0308509
-0.00340876
-0.00656206
0.0307879
-0.0307843
0.00320527
-9.9887e-05
0.0308254
-0.0309133
0.00936819
0.00633058
0.0310438
-0.0312142
0.0143282
0.0119245
0.0314146
-0.0316426
0.0176047
0.016046
0.0318885
-0.0321538
0.0191426
0.0184151
0.0324347
-0.036426
0.0190492
0.0192184
0.0353947
-0.0382703
0.017612
0.0180513
0.0194355
0.0177475
-0.016524
-0.030985
-0.0313837
0.0199389
0.0318109
-0.0222216
0.0292957
-0.0308349
-0.0165541
0.01567
-0.0215039
0.0317869
-0.0259529
0.0140257
0.0324759
0.0176597
-0.0176479
-0.0309968
-0.0301928
0.0164688
-0.021492
0.0317989
0.0340816
-0.0359622
0.0150141
-0.0307317
-0.0177511
0.0323708
0.0157364
-0.0177514
0.0193583
-0.0317997
0.0186542
-0.018313
-0.031073
-0.030094
-0.0316723
0.0329659
-0.0163179
0.0308911
-0.0305689
-0.0180733
-0.0173353
-0.0351407
0.0345313
-0.0177771
-0.0165144
-0.0315683
0.0317266
-0.0186633
-0.0189066
-0.0312879
0.0308526
-0.0180971
-0.0180198
-0.0304211
0.0300053
-0.0173307
-0.0177378
-0.0296237
0.0292817
-0.0150956
-0.0163057
-0.0289912
0.028759
-0.0112072
-0.0132505
-0.028597
0.0285129
-0.00596671
-0.0086599
-0.0285112
0.0286025
2.38231e-05
-0.00299679
-0.0287806
0.029046
0.0060046
0.003036
-0.0293863
0.0297954
0.0112341
0.0086773
-0.0302498
0.0307379
0.0151713
0.0132668
-0.031231
0.0317201
0.0176255
0.0164311
-0.0321787
0.0326077
0.0187671
0.0181762
-0.0360444
0.0365277
0.0188306
0.0195007
-0.0386437
0.0383154
0.0187808
0.0201479
-0.0374113
0.0376208
0.0173218
0.0185569
0.0167094
0.0173543
-0.0184826
0.0329151
-0.0167414
0.0329902
0.0161219
0.0330888
0.036872
-0.0377546
-0.0181153
-0.0341725
-0.0200411
0.0327216
-0.0195221
0.0359866
-0.0346504
-0.0186533
-0.0189591
0.0356908
-0.0346879
-0.0198608
-0.018783
0.0344464
-0.0342855
-0.0202722
-0.0198945
0.0340841
-0.0338413
-0.0199527
-0.0200146
0.0335696
-0.0332749
-0.0183312
-0.0191317
0.0329784
-0.032691
-0.0149661
-0.0167045
0.0324347
-0.0322177
-0.00985402
-0.0124804
0.0320521
-0.0319381
-0.00352285
-0.00672759
0.0318768
-0.0318614
0.0031899
-0.000161181
0.0318844
-0.0319408
0.00942463
0.00635355
0.0320253
-0.032136
0.014439
0.012009
0.0322677
-0.0324189
0.0177559
0.0161777
0.0325835
-0.0327613
0.0193204
0.0185797
0.0329428
-0.0334602
0.0195667
0.0193999
0.0346947
-0.0363772
0.0192945
0.0192858
0.0359677
-0.0330685
0.0189252
0.0190259
0.0322647
-0.0317069
0.0193811
0.0196368
0.0342069
-0.0340757
0.019227
0.0189688
-0.0193621
0.0326785
-0.0306266
-0.0182553
0.0183566
-0.0179508
-0.0322054
-0.0353185
0.0195994
0.0156906
-0.0163595
0.0336592
0.0333661
-0.0329315
0.0156873
0.033429
0.0156276
-0.0184194
0.0176181
-0.0302717
0.0334431
-0.0346103
-0.0188738
-0.0195287
0.0328881
0.0328166
-0.0189021
-0.017752
-0.031294
-0.0304267
-0.0318802
0.0311275
-0.0173205
0.0318962
-0.0314713
-0.0181769
-0.0182393
-0.0320054
0.0329142
-0.0172267
-0.0182132
-0.03368
0.0335169
-0.017614
-0.0172802
-0.0325068
0.0314581
-0.0176146
-0.0178966
-0.0309615
0.030452
-0.0175877
-0.0175231
-0.0299515
0.0294693
-0.0168485
-0.0172372
-0.0290286
0.0286356
-0.0147026
-0.015865
-0.0283054
0.0280426
-0.0109444
-0.0129203
-0.0278602
0.027765
-0.00587145
-0.00847749
-0.0277655
0.0278624
-7.30586e-05
-0.00299729
-0.0280549
0.028342
0.00571749
0.00284346
-0.0287103
0.0291525
0.010792
0.00830899
-0.0296437
0.0301723
0.0146427
0.0127756
-0.0307083
0.0312424
0.0170914
0.015895
-0.0317491
0.0322213
0.0182949
0.0176695
-0.0333412
0.0335436
0.0186281
0.0183808
-0.0352831
0.0356036
0.0184602
0.0184085
-0.0360603
0.0352806
0.0181015
0.0181002
-0.0348074
0.033403
0.0164186
0.0171826
0.0162079
0.0170636
-0.0179099
0.0337615
0.0337929
0.0187167
-0.0191983
0.0333696
0.0334853
0.0359679
-0.0356249
-0.0184583
-0.0181645
0.0360197
-0.0354431
-0.0192299
-0.0185642
0.0350122
-0.0349978
-0.0198752
-0.019214
0.0349511
-0.0348678
-0.0203555
-0.0199412
0.0347454
-0.034583
-0.0201151
-0.020137
0.0343894
-0.0341703
-0.0185503
-0.0193253
0.0339433
-0.033719
-0.0151905
-0.0169314
0.0335158
-0.033341
-0.0100288
-0.0126835
0.0332044
-0.0331054
-0.00362186
-0.0068642
0.0330439
-0.0330134
0.00315938
-0.000222649
0.033009
-0.0330253
0.00944087
0.00634918
0.0330584
-0.0331067
0.0144872
0.0120422
0.0331667
-0.0332378
0.0178269
0.0162378
0.0333167
-0.0334034
0.0194071
0.0186586
0.0334933
-0.0335829
0.0196562
0.0194899
0.0336668
-0.0337392
0.0193669
0.0193698
0.0338075
-0.0340909
0.0192085
0.0190943
0.0335661
-0.033608
0.019423
0.019112
0.0341014
-0.0343592
0.0194849
0.0194622
0.0193244
-0.0203348
-0.0343082
0.0344797
-0.0345235
0.0193683
0.0197199
-0.0179261
0.0177792
-0.0311472
-0.0319338
-0.0174636
0.0180058
-0.0304983
-0.0188322
-0.033708
-0.0192852
0.0329035
-0.0195058
-0.0344606
0.0194429
-0.0195461
-0.0342678
0.0164442
-0.0168461
0.0340611
0.0154797
0.0343935
0.0333875
-0.0329209
0.0152208
-0.0189669
0.0187846
-0.0309649
-0.0184547
-0.032446
0.0336271
0.015388
-0.031253
-0.0333883
0.0331461
-0.0179348
0.032785
-0.0330352
-0.0182045
-0.0180668
-0.0328364
0.0332096
-0.0176937
-0.0179296
-0.0327396
0.0330936
-0.0175808
-0.0177431
-0.0330642
0.0326488
-0.0171986
-0.0172508
-0.0317521
0.0312266
-0.0170891
-0.0169999
-0.0306736
0.0301054
-0.0170195
-0.0169702
-0.0295475
0.0290107
-0.0163116
-0.0166793
-0.0285201
0.0280834
-0.014266
-0.0153744
-0.0277185
0.0274298
-0.0106557
-0.0125554
-0.0272312
0.0271281
-0.00576839
-0.00827889
-0.0271279
0.0272328
-0.000177914
-0.00299708
-0.0274399
0.0277472
0.00541019
0.00263628
-0.0281396
0.0286094
0.0103222
0.00791661
-0.0291308
0.0296923
0.0140812
0.0122543
-0.0302637
0.0308354
0.0165198
0.0153236
-0.0313833
0.0319003
0.0177779
0.0171215
-0.0323832
0.0328225
0.0181888
0.0178979
-0.0332217
0.0335823
0.0180995
0.0180093
-0.033904
0.0342117
0.0177938
0.0177786
-0.0339504
0.033725
0.0166439
0.017444
0.017012
0.0170687
-0.0179588
0.0346516
0.0340154
0.0184444
-0.018942
0.0338672
0.0339709
0.033764
-0.0345576
-0.0180803
-0.0332709
-0.0183494
0.032335
-0.018409
0.0349338
-0.035073
-0.0183191
-0.0177883
0.0351954
-0.0353814
-0.019044
-0.0184418
0.035389
-0.0354513
-0.0198129
-0.0192064
0.0354837
-0.0354825
-0.0203568
-0.0199088
0.0354441
-0.035367
-0.0201921
-0.0201754
0.035256
-0.035116
-0.0186903
-0.0194363
0.0349608
-0.0348004
-0.0153509
-0.0170866
0.0346502
-0.0345172
-0.0101619
-0.0128337
0.0344088
-0.0343238
-0.00370689
-0.00697259
0.0342607
-0.0342139
0.00311255
-0.00028573
0.0341784
-0.0341499
0.0094124
0.00631372
0.0341264
-0.0341065
0.0144673
0.0120186
0.0340901
-0.0340771
0.017814
0.0162214
0.0340679
-0.0340634
0.0194025
0.0186494
0.0340639
-0.0340689
0.0196611
0.0194904
0.0340733
-0.0340698
0.0193634
0.0193742
0.034056
-0.0340216
0.0191741
0.0190806
0.0339656
-0.033846
0.0193035
0.019056
0.0337082
-0.0339763
0.019753
0.0193243
0.0340503
-0.0343889
0.0197069
0.0197938
0.0198739
-0.0201786
-0.034156
0.0346009
-0.0341582
0.0194312
0.019655
-0.0192892
0.0332507
-0.018411
0.0178311
-0.0318661
-0.0324031
-0.019043
0.0186069
-0.0303205
-0.0199751
-0.033279
0.0147621
0.0343447
0.0194401
-0.0199802
-0.0336181
-0.0333564
0.0331496
0.0196379
-0.0330811
0.0191649
0.0183521
-0.0314859
-0.0204487
-0.0339977
-0.0205804
-0.0335558
-0.0197975
0.0193852
-0.0314538
0.0330578
-0.0335312
-0.017876
-0.0190247
0.0320706
0.0325075
-0.0184744
-0.0206266
-0.031574
-0.0326213
-0.0332759
0.0336882
-0.0186168
0.0331966
-0.0348025
-0.0190207
-0.0191224
-0.0338861
0.033841
-0.0178896
-0.0182648
-0.0339043
0.0339486
-0.017738
-0.0179929
-0.0335176
0.0330738
-0.017137
-0.017312
-0.0326153
0.0321282
-0.0167115
-0.0167923
-0.0316084
0.0310424
-0.0165231
-0.0164801
-0.0304465
0.0298293
-0.0164023
-0.0163742
-0.0292208
0.0286349
-0.0157257
-0.0160709
-0.0281003
0.0276265
-0.0137921
-0.0148399
-0.0272328
0.0269234
-0.0103464
-0.0121617
-0.0267118
0.026603
-0.00565956
-0.00806727
-0.026604
0.0267166
-0.000290447
-0.00299811
-0.0269366
0.0272609
0.00508584
0.00241627
-0.0276731
0.0281649
0.00983028
0.00750447
-0.0287099
0.0292972
0.0134939
0.0117093
-0.0298963
0.0304984
0.0159177
0.0147245
-0.031079
0.0316329
0.0172239
0.0165409
-0.0321489
0.0326284
0.0177093
0.017382
-0.0330646
0.033467
0.0176972
0.017573
-0.0338312
0.034171
0.0174539
0.0174143
-0.0344827
0.0339541
0.0171726
0.0171323
-0.0340822
0.0339497
0.0153532
0.016884
-0.0339027
0.0342528
0.014412
0.0154351
0.0160455
-0.0165737
0.0345893
-0.0152019
0.0149717
0.0345749
0.0352371
0.0175877
-0.0178872
0.0349511
0.0350294
0.0180192
-0.0181037
0.0339517
0.034103
0.0178991
-0.0186527
0.0328242
0.0330461
0.0343068
-0.0348562
-0.0175309
-0.0176334
0.0350636
-0.0352621
-0.0181207
-0.0175808
0.0354472
-0.0356216
-0.0188696
-0.0182566
0.035778
-0.0359171
-0.0196737
-0.01905
0.0360301
-0.0361142
-0.0202727
-0.0197958
0.036163
-0.0361749
-0.0201801
-0.0201267
0.0361502
-0.0360931
-0.0187475
-0.019461
0.0360126
-0.0359178
-0.0154457
-0.0171671
0.0358209
-0.0357283
-0.0102545
-0.0129306
0.0356455
-0.0355711
-0.00378135
-0.00705537
0.0355029
-0.0354356
0.00304524
-0.000353855
0.0353656
-0.035289
0.00933579
0.00624374
0.0352058
-0.0351151
0.0143766
0.0119353
0.0350199
-0.0349215
0.0177155
0.0161263
0.0348241
-0.0347296
0.0193081
0.018552
0.0346424
-0.0345619
0.0195806
0.0194032
0.0344853
-0.0344036
0.0192818
0.0192975
0.0343124
-0.0342017
0.0190635
0.0189893
0.0340724
-0.0339173
0.0191484
0.0189266
0.0337352
-0.0334238
0.0194416
0.0191422
0.0332433
-0.033239
0.0197025
0.0196134
0.0195656
0.0193925
-0.0200091
-0.0330015
-0.0326865
0.0189979
0.0147424
0.0344821
-0.0181214
0.0193036
-0.0327562
-0.0336326
-0.0192914
0.019448
-0.0314164
-0.0202274
-0.0335004
0.0324126
-0.0185577
0.0196697
-0.0317704
-0.0211214
-0.0334568
0.0195
-0.0316502
-0.0206497
-0.0329152
-0.0190753
-0.0319688
0.0183575
-0.019815
-0.0322618
-0.0204059
0.0195424
-0.0318926
0.0345436
-0.0342158
0.0140841
0.0344548
0.0148312
-0.0215673
-0.0324711
-0.0334007
-0.0347302
0.0352761
-0.0195665
0.034579
-0.0368279
-0.0193185
-0.0194426
-0.0348989
0.0347483
-0.0184662
-0.0187453
-0.0348412
0.0349751
-0.0180235
-0.0183577
-0.0345036
0.034032
-0.0172665
-0.0175214
-0.033561
0.033079
-0.0166549
-0.0168411
-0.0325844
0.0320614
-0.0161886
-0.0162977
-0.0315072
0.0309085
-0.0159244
-0.0159259
-0.0302775
0.0296208
-0.0157456
-0.0157432
-0.0289704
0.0283424
-0.0150977
-0.0154205
-0.0277697
0.0272635
-0.0132858
-0.0142672
-0.0268454
0.0265193
-0.0100203
-0.0117436
-0.0262987
0.0261867
-0.00554757
-0.00784663
-0.0261898
0.026309
-0.000409576
-0.00300126
-0.0265397
0.0268776
0.00474789
0.00218557
-0.0273052
0.0278139
0.00932156
0.00707692
-0.0283766
0.0289831
0.0128875
0.0111465
-0.029603
0.0302283
0.0152924
0.0141046
-0.0308339
0.0314169
0.0166409
0.0159354
-0.0319619
0.0324739
0.0171973
0.016837
-0.0329434
0.0333815
0.0172591
0.0171035
-0.0337829
0.0341605
0.0170763
0.0170129
-0.0345119
0.0348491
0.0168354
0.0167808
-0.0351679
0.0346929
0.0158283
0.0165651
0.0159122
0.0161536
-0.0166372
0.0350585
-0.0149086
0.0343753
0.0149881
0.0357271
0.0164604
-0.0175356
0.0356644
0.0350603
0.0175897
-0.0175784
0.0349398
0.0350836
0.0178618
-0.0178717
0.0339615
0.0343864
0.0181187
-0.0182654
0.0329709
0.0332931
-0.0179167
0.0320638
0.0331451
-0.033842
-0.0171791
-0.0324135
0.0317249
-0.0178691
-0.0177429
0.0346681
-0.0349429
-0.0172561
-0.0168073
0.0352036
-0.03546
-0.0178642
-0.0173201
0.0357061
-0.0359469
-0.0186288
-0.0180105
0.0361741
-0.0363898
-0.019458
-0.0188228
0.0365837
-0.0367545
-0.0201019
-0.0196019
0.0368921
-0.036995
-0.0200772
-0.0199891
0.0370585
-0.0370856
-0.0187204
-0.0193975
0.0370805
-0.0370512
-0.015475
-0.0171722
0.0370064
-0.0369521
-0.0103088
-0.0129754
0.0368923
-0.0368251
-0.00384847
-0.00711524
0.0367484
-0.036657
0.00295382
-0.000430553
0.0365487
-0.0364205
0.00920759
0.00613545
0.036275
-0.0361121
0.0142136
0.0117898
0.0359381
-0.0357551
0.0175325
0.0159524
0.0355713
-0.0353892
0.019126
0.0183682
0.035216
-0.0350507
0.0194153
0.01923
0.0348929
-0.0347339
0.0191227
0.0191398
0.0345687
-0.0343874
0.0188822
0.0188241
0.0341896
-0.033967
0.0189259
0.0187288
0.0337186
-0.0334361
0.0191591
0.0188938
0.0329779
-0.0326622
0.0193868
0.0191551
0.0325526
-0.0322919
0.0193772
0.019456
0.0321776
-0.0317893
0.0186096
0.0190506
0.0179363
-0.0314392
-0.0184658
0.0315653
-0.0305004
0.0168714
0.0181335
-0.0172805
0.0189142
-0.0341049
-0.0360444
-0.018064
0.0205505
-0.0322972
-0.0208296
-0.0337921
-0.0166359
-0.0295227
0.0156582
-0.0304454
-0.0176297
0.0202287
-0.0324992
-0.0212539
-0.0328525
0.0203465
-0.0324543
-0.0208114
-0.0319188
0.0149929
-0.0161885
0.035571
0.0351817
-0.0345248
0.0143312
0.0357036
0.014471
0.0195865
-0.032565
-0.0194569
-0.0312706
-0.017243
0.0175809
-0.0344427
-0.0179805
0.0317887
-0.017291
-0.0359964
-0.0336797
-0.0370013
0.0373185
-0.0196357
0.0371927
-0.0364142
-0.0180695
-0.0178725
-0.0364625
0.0362666
-0.0193706
-0.0185865
-0.0362868
0.0362046
-0.0183839
-0.0187655
-0.0356696
0.0351455
-0.0174994
-0.0178227
-0.0346335
0.0341233
-0.0167563
-0.0170095
-0.0336168
0.0331018
-0.0161398
-0.0163346
-0.0325771
0.0320262
-0.0156377
-0.015773
-0.0314461
0.0308223
-0.0153006
-0.0153458
-0.030165
0.0294782
-0.0150589
-0.0150858
-0.0287945
0.0281318
-0.014435
-0.0147367
-0.0275264
0.0269922
-0.0127516
-0.0136618
-0.026553
0.0262135
-0.00968078
-0.0113044
-0.025986
0.0258725
-0.00543406
-0.00761912
-0.0258779
0.0260034
-0.00053509
-0.00300667
-0.0262421
0.02659
0.00439992
0.00194689
-0.0270287
0.0275494
0.0088009
0.00663822
-0.0281246
0.0287445
0.0122676
0.0105713
-0.029379
0.0300213
0.0146502
0.0134701
-0.0306455
0.0312508
0.0160356
0.0153111
-0.0318195
0.0323582
0.0166587
0.0162682
-0.0328561
0.0333246
0.0167906
0.0166056
-0.0337578
0.0341686
0.0166655
0.0165797
-0.0345541
0.0349265
0.016463
0.0163954
-0.0352841
0.0351559
0.0159564
0.0162076
-0.0352175
0.0346642
0.0146374
0.0158506
0.0149706
0.0159148
-0.0164362
0.0355799
0.0354534
0.0173655
-0.0174828
0.0357817
0.0359896
0.0175339
-0.0175172
0.0349231
0.0351347
0.0174333
-0.0175811
0.0341093
0.0343025
0.0178409
-0.0174696
0.0325997
0.0335529
0.031815
-0.0326544
-0.0170297
0.0314265
-0.0175921
0.0178863
-0.0178538
0.0317563
0.0324805
0.0337015
-0.0343846
-0.016496
-0.0166958
0.0347158
-0.0350394
-0.0169325
-0.0164762
0.0353517
-0.0356636
-0.0175523
-0.0170078
0.0359684
-0.0362733
-0.0183239
-0.0177058
0.0365693
-0.0368603
-0.019167
-0.0185269
0.0371343
-0.0373913
-0.0198449
-0.0193278
0.0376179
-0.0378123
-0.0198828
-0.0197625
0.0379647
-0.0380764
-0.0186087
-0.0192452
0.0381462
-0.038181
-0.0154403
-0.0171023
0.0381859
-0.0381668
-0.0103279
-0.0129705
0.0381263
-0.0380631
-0.0039117
-0.00715567
0.0379748
-0.0378563
0.00283531
-0.000518831
0.0377074
-0.0375256
0.00902574
0.00598655
0.0373164
-0.0370808
0.0139781
0.0115806
0.0368287
-0.036563
0.0172667
0.0157003
0.0362954
-0.0360286
0.0188592
0.0181006
0.0357725
-0.0355255
0.0191683
0.0189739
0.0352898
-0.0350567
0.0188896
0.0189041
0.0348223
-0.0345757
0.0186355
0.0185898
0.0343148
-0.0340298
0.0186409
0.0184679
0.0337202
-0.0333748
0.0188137
0.0185842
0.0329903
-0.0325542
0.0189507
0.0187707
0.0319088
-0.0313463
0.0188147
0.0188106
0.03073
-0.0302043
0.0180838
0.0184344
0.0296913
-0.0289511
0.0161312
0.0176205
0.0139646
-0.0149388
-0.0285485
0.0282263
-0.0277301
0.0134685
0.0149334
-0.0178334
0.0174056
-0.0355686
-0.0365507
-0.0176969
-0.0290755
-0.0163087
0.0123527
-0.0133686
-0.0275327
-0.0267173
0.0113399
0.0209166
-0.0329851
-0.0214802
-0.0335658
0.021002
-0.0331547
-0.021165
-0.032499
0.0146087
-0.0152815
0.0362437
0.0138017
0.0365106
0.020283
-0.0331507
-0.0202921
-0.0310836
0.019305
-0.0342891
-0.0188824
-0.030018
0.0180883
-0.0351254
0.0306998
-0.0171271
0.0181708
-0.0366969
-0.0180246
0.0185935
-0.0359913
-0.0276795
-0.0147645
0.00994967
-0.0113799
-0.0261025
0.0088784
-0.025646
-0.0171271
0.0169075
-0.0364772
-0.0371413
0.0375842
-0.0184676
0.0353653
-0.0346159
0.0135818
0.0361308
0.0137055
-0.0380702
-0.0161982
-0.0342433
-0.0375274
0.0384956
-0.0190376
-0.0176401
-0.0387457
0.0382723
-0.0191623
-0.0181227
-0.0383133
0.0376669
-0.0187241
-0.0186276
-0.037047
0.0364464
-0.0177833
-0.0181456
-0.0358701
0.0353079
-0.0169371
-0.0172464
-0.0347618
0.03422
-0.0162145
-0.0164634
-0.0336841
0.0331419
-0.0155976
-0.0157987
-0.0325929
0.0320207
-0.0150654
-0.0152241
-0.0314222
0.0307814
-0.0146598
-0.0147473
-0.0301065
0.0293991
-0.0143514
-0.014411
-0.0286908
0.0280004
-0.0137447
-0.0140284
-0.0273677
0.026809
-0.0121929
-0.0130291
-0.0263513
0.0259997
-0.00932923
-0.0108467
-0.0257666
0.0256525
-0.00531993
-0.00738598
-0.0256603
0.0257904
-0.000665163
-0.00301454
-0.026035
0.0263897
0.00404526
0.00170227
-0.0268355
0.0273635
0.00827284
0.00619246
-0.0279464
0.0285746
0.0116393
0.00998849
-0.0292186
0.0298723
0.0139965
0.0128261
-0.0305098
0.0311315
0.015414
0.0146736
-0.0317189
0.0322789
0.0160987
0.0156809
-0.0328002
0.0332941
0.0162966
0.0160843
-0.0337544
0.0341939
0.0162259
0.0161194
-0.0346092
0.0350128
0.0160593
0.0159801
-0.0354031
0.0354332
0.0159263
0.0158173
-0.0355568
0.0352239
0.0149703
0.0157271
0.0155787
0.0164397
-0.0170222
0.0361624
0.0366116
0.0172
-0.0173141
0.0358958
0.0361674
0.01736
-0.0173373
0.0349004
0.0351805
0.0172481
-0.0170931
0.0339543
0.0342132
0.0168749
-0.0170821
0.0328069
0.0333348
0.0167332
-0.0166492
0.0316722
0.0321316
-0.0248605
0.0254972
0.00824173
0.00646487
-0.00767058
-0.0244403
-0.0239299
0.00553427
-0.0169083
0.0309589
0.0321944
-0.0330439
-0.0161801
-0.0312554
0.0307305
-0.0166022
-0.0166531
0.0340082
-0.0344013
-0.0161029
-0.0157316
0.0347746
-0.0351443
-0.0165628
-0.0161028
0.0355051
-0.0358692
-0.0171881
-0.0166471
0.0362295
-0.0365955
-0.0179579
-0.0173455
0.0369572
-0.0373208
-0.0188034
-0.0181651
0.0376725
-0.0380138
-0.0195036
-0.0189761
0.0383279
-0.0386126
-0.0195981
-0.0194484
0.0388527
-0.0390478
-0.0184136
-0.019005
0.0391911
-0.0392874
-0.0153439
-0.016959
0.0393388
-0.0393511
-0.0103156
-0.0129191
0.0393261
-0.0392632
-0.00397463
-0.0071806
0.0391604
-0.0390132
0.00268806
-0.000621605
0.0388224
-0.0385864
0.00878975
0.00579575
0.0383138
-0.0380066
0.0136708
0.011308
0.0376782
-0.0373325
0.016921
0.0153719
0.0369845
-0.0366372
0.0185119
0.0177526
0.0363029
-0.0359797
0.0188451
0.0186396
0.0356719
-0.0353704
0.018588
0.0185963
0.0350724
-0.0347655
0.0183286
0.0182918
0.0344468
-0.0341048
0.0182988
0.0181492
0.0337385
-0.033336
0.0184111
0.0182179
0.0328949
-0.032401
0.0184567
0.0183296
0.0318508
-0.0312313
0.0181952
0.0182604
0.0305451
-0.0297979
0.0173366
0.0177483
0.0286512
-0.0280489
0.0155288
0.0164738
0.0272695
-0.0263745
0.0125735
0.014154
0.0104626
0.0216926
-0.0336757
-0.0214828
-0.033248
0.0131077
0.0368248
0.0210553
-0.033927
-0.0208106
-0.0319805
0.0200636
-0.0339093
-0.0194957
-0.0304704
0.0193517
-0.0355525
-0.0175237
-0.028803
0.0189613
-0.0354932
0.0173042
-0.036388
0.0156341
-0.0383014
-0.0154029
0.016138
-0.0369811
-0.026431
-0.0126284
-0.00891471
-0.0248584
-0.00388459
0.00300258
-0.0230479
-0.00497305
-0.0233518
-0.0165179
0.0303401
-0.013788
0.0132859
-0.0377993
-0.0392819
0.037414
-0.013535
0.030747
-0.0316079
-0.0157413
0.0302102
-0.0159811
-0.0394566
-0.0136133
-0.0340335
-0.0389428
0.0381658
-0.0176906
-0.0177269
-0.0397742
0.0390774
-0.0183409
-0.0192485
-0.039654
0.0389151
-0.0184235
-0.0186992
-0.0386625
0.037966
-0.0180277
-0.0183749
-0.037303
0.0366647
-0.017145
-0.0174827
-0.0360552
0.0354626
-0.0163445
-0.0166368
-0.0348887
0.034321
-0.0156468
-0.0158894
-0.0337612
0.0331972
-0.0150335
-0.015239
-0.0326294
0.0320417
-0.0144778
-0.0146563
-0.0314315
0.0307816
-0.0140099
-0.0141371
-0.0300979
0.0293791
-0.0136326
-0.0137273
-0.028655
0.0279445
-0.0130341
-0.0133043
-0.0272895
0.0267096
-0.0116129
-0.0123742
-0.0262347
0.0258715
-0.00896606
-0.0103718
-0.0256325
0.0255171
-0.00520447
-0.00714703
-0.0255274
0.0256605
-0.000798273
-0.00302488
-0.0259089
0.0262671
0.00368698
0.00145394
-0.0267163
0.0272476
0.00774154
0.00574333
-0.0278337
0.0284659
0.0110071
0.00940232
-0.0291148
0.0297752
0.0133361
0.0121772
-0.0304216
0.0310548
0.0147807
0.0140273
-0.0316561
0.0322328
0.015522
0.0150796
-0.0327729
0.0332879
0.0157816
0.0155442
-0.0337708
0.0342347
0.0157621
0.0156366
-0.0346754
0.0351061
0.0156287
0.0155394
-0.0355252
0.0359451
0.0155064
0.0153982
-0.0363638
0.0358853
0.0154487
0.0153084
-0.0362026
0.0359865
0.0137979
0.0152613
-0.0361551
0.0368104
0.0124524
0.0135369
0.0143727
-0.0149256
0.0367966
-0.0131545
0.0125788
0.0374005
0.0377288
0.0157349