/*--------------------------------*- C++ -*----------------------------------*\
  =========                 |
  \\      /  F ield         | OpenFOAM: The Open Source CFD Toolbox
   \\    /   O peration     | Website:  https://openfoam.org
    \\  /    A nd           | Version:  10
     \\/     M anipulation  |
\*---------------------------------------------------------------------------*/
FoamFile
{
    format      ascii;
    class       volScalarField;
    location    "11.5";
    object      p;
}
// * * * * * * * * * * * * * * * * * * * * * * * * * * * * * * * * * * * * * //

dimensions      [0 2 -2 0 0 0 0];

internalField   nonuniform List<scalar> 
28942
(
-0.354552
-0.350466
-0.186135
0.180913
0.190487
-0.00909497
-0.00375673
-0.010994
-0.0157393
-0.0118312
-0.371956
-0.377806
-0.377842
-0.373471
-0.000167566
0.00473352
0.454313
0.477537
0.175971
0.246869
0.343949
0.345578
-0.400932
-0.403517
-0.389584
-0.422007
0.781353
0.796209
0.00190332
0.0152496
-0.0172307
-0.0155008
0.024396
0.00469708
0.167679
0.214439
0.462511
0.588653
-0.0111264
0.480159
0.241503
0.269608
-0.139208
-0.123564
-0.133845
-0.00517548
-0.00322508
-0.00519679
-0.00320872
0.00488265
0.0152331
-0.040203
-0.0361217
-0.00264439
0.00207468
-0.338725
-0.290768
-0.380831
-0.380994
-0.384362
-0.384973
-0.382657
-0.378706
-0.141198
-0.233454
-0.121946
-0.0532712
0.422829
0.393897
-0.360102
-0.362444
-0.364685
0.42214
0.400049
0.420176
-0.232316
-0.233161
-0.191981
-0.162623
-0.214453
-0.140113
-0.263815
-0.40622
-0.438911
-0.0188349
0.0668634
0.132284
0.10654
0.0471369
0.0483814
0.0844553
0.102812
-0.350478
-0.358821
-0.357181
-0.347555
-0.341973
0.094628
0.142489
-0.47163
0.209266
0.21101
0.186787
0.193906
-0.212859
-0.21634
-0.225632
0.163244
0.174282
0.173503
-0.375889
-0.372234
-0.351581
-0.325608
-0.334317
0.863858
0.797466
0.739333
0.812972
0.0155236
0.154723
0.0898783
0.0827398
0.0674341
0.905085
0.915955
0.883089
0.096354
0.135347
-0.00635271
-0.00543816
-0.00824039
0.445195
0.544734
0.168674
0.158919
0.239029
0.205617
0.343608
0.345134
-0.342757
-0.347037
0.152811
-0.139205
-0.129016
-0.256331
-0.273758
-0.254242
-0.352042
0.174297
0.18124
-0.00950015
-0.0116661
-0.0119036
-0.0100183
-0.0103962
0.245182
0.162456
-0.32928
-0.332345
-0.331824
-0.361533
-0.367554
-0.00725501
-0.404915
-0.379903
0.367004
0.381145
0.433647
0.411326
0.336549
-0.0286987
-0.0345964
0.00544679
-0.00364543
0.13266
0.120002
0.142906
0.154553
0.155179
0.172388
0.187009
0.226608
0.205377
0.185806
0.20791
0.24993
0.310007
0.327297
-0.356257
-0.358409
-0.334418
-0.00758908
-0.00642617
-0.329293
-0.333929
0.00138124
0.000985435
-0.00105214
-0.0015755
0.090572
0.0903653
0.0907884
-0.368068
-0.367305
-0.363421
-0.391495
-0.393562
-0.390505
-0.414153
-0.465891
-0.432646
0.8511
0.82249
0.864152
-0.20407
-0.197314
-0.210214
0.466893
0.449894
0.458815
0.0528352
0.0509977
0.0547364
0.0492811
0.0476574
0.0460359
0.0453197
0.0445903
0.0439707
0.0468516
0.048348
0.0499439
0.0516799
0.053513
0.0431964
0.0426152
0.0566923
0.0552861
0.0588086
0.0417296
0.0412139
0.05729
0.0403196
0.0389961
0.03991
0.038681
0.0610669
0.059407
0.0377246
0.0374851
0.0633424
0.0615583
0.0364856
0.0363124
0.0657393
0.0638585
0.0352746
0.03516
0.0682052
0.06625
0.0340945
0.0340333
0.0707589
0.0687519
0.032941
0.0329285
0.0734013
0.0713578
0.0318184
0.0318484
0.0761083
0.0740372
0.0307096
0.0307768
0.0787764
0.0767886
0.0296432
0.029726
0.0815905
0.0795814
0.0285489
0.0286397
0.0841501
0.0823553
0.0274803
0.0275617
0.0869032
0.0851873
0.0264045
0.0265612
0.0851438
0.087754
0.0894857
0.0878938
0.0798598
0.0826509
0.0745888
0.0772833
0.0695033
0.0720165
0.0646213
0.0670356
0.0600247
0.062288
0.055818
0.0579441
0.0519306
0.0538377
0.0483013
0.0500631
0.0450402
0.046611
0.0420265
0.0435357
0.0391683
0.0405637
0.0365283
0.0378283
0.0340329
0.0352631
0.0316706
0.0328342
0.0294294
0.0305291
0.0272717
0.028329
0.026197
0.0253794
0.0255665
0.0286313
0.0265994
0.0275883
0.0307159
0.029653
0.0327932
0.0317453
0.0349465
0.0338589
0.037181
0.0360544
0.0395044
0.0383291
0.0419905
0.0407256
0.0445832
0.0432984
0.0473881
0.0459932
0.0504513
0.0488429
0.0538029
0.052187
0.0576205
0.0556733
0.061795
0.0596445
0.0664469
0.0640631
0.0715558
0.0689449
0.0770782
0.0742718
0.0827931
0.0799274
0.0856472
0.0902364
0.0251407
0.0256281
0.0905237
0.0884591
0.0925241
0.0919105
0.0851997
0.0898703
0.0875802
0.0801831
0.0827418
0.0751489
0.0776352
0.070245
0.0726918
0.0654322
0.0678165
0.0608705
0.0631018
0.0565195
0.0586845
0.0525159
0.0545112
0.0488103
0.0505984
0.0453626
0.0470411
0.0422065
0.0437651
0.0392376
0.0406938
0.0364813
0.0378364
0.0338922
0.035167
0.0314542
0.0326537
0.0291588
0.0302849
0.0269614
0.0280436
0.0243669
0.024109
0.0248219
0.0258785
0.0265211
0.0255792
0.0246463
0.0245551
0.0285128
0.0275019
0.0305167
0.029483
0.0325366
0.0315102
0.0346226
0.033569
0.0367778
0.0356915
0.0390133
0.037884
0.0413532
0.040171
0.043816
0.0425676
0.0464353
0.0451032
0.0492504
0.0477871
0.0523538
0.0508042
0.055855
0.0540774
0.0597702
0.0577661
0.0641506
0.0619005
0.0690178
0.0665265
0.0743361
0.07163
0.0800331
0.0771484
0.0858458
0.0829257
0.091968
0.0912099
0.0887636
0.0931037
0.0237827
0.0246339
0.0945039
0.0938185
0.0937382
0.091592
0.0942782
0.0244503
0.0234145
0.0236825
0.0236804
0.092196
0.095512
0.0943205
0.0939189
0.0884259
0.0903442
0.0842225
0.0863826
0.0796438
0.081977
0.0749418
0.0772643
0.0702729
0.0726159
0.0656183
0.0679322
0.0611216
0.0633424
0.0568244
0.0589413
0.0527654
0.0547693
0.0489896
0.0508501
0.0454686
0.047192
0.0422115
0.0438142
0.0391553
0.0406574
0.036308
0.0377072
0.0336429
0.034954
0.0311434
0.0323722
0.028801
0.0299504
0.0265722
0.0276687
0.0254876
0.0233844
0.0227874
0.0231218
0.023569
0.0263309
0.0244869
0.0254087
0.0282563
0.0272922
0.0301865
0.029198
0.0321588
0.0311603
0.0341876
0.0331647
0.0362748
0.0352237
0.0384309
0.0373435
0.040664
0.0395388
0.0429948
0.0418139
0.0454462
0.0442042
0.0480846
0.0467389
0.0509652
0.0494863
0.054163
0.0525208
0.0577645
0.0559131
0.0618294
0.0597363
0.0664014
0.0640531
0.0714698
0.0688782
0.0769887
0.074176
0.0828467
0.0798923
0.0888622
0.0858283
0.0942708
0.0917929
0.0963323
0.0953617
0.0224195
0.0235675
0.0967749
0.0960123
0.0951988
0.0946601
0.0967938
0.0859561
0.0867041
0.096308
0.0901626
0.0884886
0.0894429
0.090539
0.0859836
0.0877613
0.0822828
0.0841662
0.0782293
0.080333
0.0739342
0.076089
0.0695469
0.0717538
0.0651243
0.0673311
0.0607857
0.0629392
0.0565989
0.0586707
0.052598
0.0545723
0.0488239
0.0506853
0.0452838
0.0470233
0.0419783
0.0436048
0.038876
0.0404022
0.0359769
0.0374019
0.033266
0.0345991
0.0307297
0.0319761
0.0283597
0.0295223
0.0261271
0.027222
0.0240227
0.0250556
0.0220305
0.0230035
0.0218361
0.0210862
0.0214586
0.0224412
0.0221729
0.0227888
0.0226513
0.022712
0.0228015
0.0242169
0.0225135
0.0233598
0.0260066
0.0251139
0.0278651
0.0269433
0.0297379
0.028793
0.0316637
0.0306935
0.0336404
0.0326454
0.0356685
0.034648
0.0377547
0.0367042
0.0399032
0.0388216
0.0421263
0.0410042
0.044448
0.043273
0.0469218
0.0456656
0.049593
0.0482252
0.0525367
0.0510268
0.0558354
0.0541381
0.0595696
0.0576444
0.0638048
0.0616233
0.0685629
0.066121
0.0738249
0.0711362
0.0795441
0.0766354
0.0855896
0.0825491
0.0917662
0.088642
0.0973075
0.0947027
0.0979099
0.097305
0.0981747
0.0981729
0.0216018
0.0207076
0.0218647
0.0216852
0.0935069
0.0990136
0.0874536
0.0825164
0.09974
0.097534
0.0831244
0.0979863
0.0854698
0.0839273
0.0855963
0.0861068
0.0827787
0.0843174
0.0796615
0.0812536
0.0760979
0.0779452
0.0721901
0.0741692
0.068126
0.0701738
0.0639883
0.0660599
0.0598767
0.0619244
0.0558605
0.0578545
0.0519828
0.0539026
0.0482842
0.0501104
0.0447847
0.0465094
0.0414897
0.0431127
0.0383891
0.0399158
0.0354823
0.036912
0.0327624
0.0340999
0.0302202
0.0314695
0.0278469
0.0290125
0.0256406
0.0267191
0.0235584
0.0245879
0.022563
0.0209408
0.0201892
0.0205774
0.0215544
0.0212736
0.0219156
0.0217831
0.0219397
0.0238457
0.0221953
0.0230456
0.0255769
0.0247125
0.0273604
0.0264733
0.0291859
0.0282692
0.0310619
0.0301179
0.0329877
0.032019
0.0349617
0.033969
0.0369861
0.0359678
0.0390632
0.0380182
0.0412003
0.0401239
0.0434168
0.0422969
0.0457516
0.0445682
0.0482479
0.0469757
0.0509718
0.0495778
0.0539992
0.0524433
0.0574156
0.0556546
0.0613007
0.0592963
0.0657098
0.063439
0.070655
0.068118
0.076113
0.0733236
0.081964
0.0790156
0.0881952
0.0849726
0.0942894
0.091354
0.100123
0.097144
0.0990314
0.0989363
0.0198048
0.0213773
0.0969215
0.0886538
0.092715
0.100014
0.100994
0.0832582
0.0808936
0.0880363
0.101968
0.102578
0.0999803
0.0992005
0.0786015
0.0771927
0.0785123
0.0804684
0.0793429
0.0810699
0.0812534
0.079033
0.0801912
0.0764298
0.0777837
0.0733181
0.0749386
0.0698149
0.0716002
0.0661099
0.0679819
0.0622929
0.0642101
0.0584524
0.060371
0.0546574
0.0565463
0.0509576
0.0527935
0.0473913
0.0491574
0.0439866
0.045668
0.0407576
0.0423503
0.0377064
0.0392102
0.0348356
0.0362487
0.032145
0.0334684
0.0296299
0.0308661
0.0272859
0.0284372
0.0251091
0.0261782
0.0230912
0.0240853
0.0211936
0.0221309
0.019443
0.0203019
0.0193431
0.0186284
0.0189645
0.0200905
0.0197242
0.0207279
0.020429
0.0211072
0.0209644
0.0210641
0.0211381
0.0206045
0.020883
0.0217805
0.0202558
0.0210011
0.0233854
0.0225884
0.0250536
0.0242173
0.0267708
0.0259072
0.0285442
0.027652
0.0303696
0.0294509
0.0322444
0.0313013
0.0341661
0.0331998
0.0361337
0.0351445
0.0381475
0.037135
0.0402122
0.0391734
0.0423417
0.0412677
0.0445637
0.0434397
0.0469167
0.0457213
0.0494552
0.0481593
0.0522486
0.050816
0.0553777
0.0537667
0.0589258
0.0570953
0.0629649
0.0608815
0.0675396
0.0651852
0.0726566
0.0700333
0.0782235
0.0753964
0.0841899
0.081162
0.090197
0.0872318
0.0961414
0.0931285
0.10253
0.098911
0.0990316
0.0748245
0.0963895
0.0190792
0.0183007
0.0198483
0.0195169
0.100292
0.101496
0.0922124
0.102733
0.103908
0.104822
0.10479
0.101447
0.0999976
0.070818
0.0720782
0.0644876
0.06806
0.0736012
0.0727016
0.0752898
0.0743729
0.0761294
0.0760427
0.0748004
0.0756242
0.0726873
0.0738118
0.0700277
0.0714227
0.066948
0.0685275
0.063622
0.0653091
0.0601466
0.061898
0.0566053
0.0583798
0.0530669
0.0548326
0.0495853
0.0513163
0.046195
0.047881
0.0429311
0.0445456
0.0398145
0.0413542
0.0368548
0.038315
0.0340596
0.0354366
0.0314333
0.0327256
0.0289765
0.0301842
0.0266881
0.0278117
0.0245657
0.0256066
0.0226106
0.0235653
0.0207801
0.0216823
0.0199087
0.0185634
0.0178484
0.0182068
0.0192948
0.0189291
0.0199348
0.0196363
0.0203147
0.020169
0.0202832
0.0203536
0.0201096
0.0213047
0.0198337
0.0205587
0.0228454
0.0220659
0.024451
0.0236438
0.0261127
0.0252753
0.0278327
0.0269663
0.029606
0.0287132
0.0314289
0.0305117
0.033298
0.0323581
0.0352106
0.0342492
0.0371657
0.0361831
0.0391656
0.0381599
0.0412201
0.0401853
0.0433491
0.0422741
0.0455839
0.0444513
0.0479692
0.0467548
0.0505649
0.0492371
0.0534438
0.0519648
0.0566852
0.055015
0.0603645
0.0584668
0.0645417
0.062389
0.0692448
0.0668293
0.0744319
0.0717827
0.0800171
0.0771926
0.0857156
0.0828668
0.091421
0.0885778
0.0965869
0.0940589
0.0846169
0.0786757
0.103545
0.0988717
0.0989104
0.0175474
0.0191116
0.0604045
0.101291
0.0681323
0.095617
0.102631
0.0909936
0.104136
0.105666
0.10663
0.106681
0.105261
0.1007
0.100467
0.0570765
0.055748
0.0481589
0.0528523
0.0642114
0.0610438
0.0679672
0.0664405
0.0699618
0.06907
0.070954
0.070679
0.0702325
0.0707584
0.0686015
0.0694966
0.0663892
0.0675615
0.0637324
0.0651053
0.0607895
0.0622894
0.0576639
0.0592444
0.0544373
0.0560588
0.0511771
0.0528081
0.0479366
0.0495518
0.0447556
0.0463325
0.0416692
0.0431991
0.0387011
0.0401697
0.0358673
0.037267
0.03318
0.0345051
0.0306477
0.0318945
0.0282745
0.0294414
0.0260622
0.0271486
0.0240098
0.0250164
0.0221141
0.0230435
0.0203637
0.0212241
0.0187321
0.0195297
0.0172659
0.0179906
0.0171283
0.0165721
0.0168342
0.0178206
0.0174628
0.0185375
0.0181828
0.0191627
0.0188705
0.0195387
0.0193924
0.0195335
0.0195906
0.0191275
0.0193646
0.0184219
0.0188055
0.0193465
0.017992
0.0186631
0.0207741
0.0200491
0.022252
0.0215056
0.0237984
0.0230179
0.0254058
0.024595
0.0270714
0.0262319
0.028791
0.0279249
0.0305601
0.0296697
0.032375
0.0314622
0.0342323
0.0332987
0.0361299
0.0351763
0.0380684
0.0370939
0.0400546
0.039055
0.0421028
0.04107
0.0442373
0.0431576
0.0464945
0.0453482
0.048924
0.0476845
0.0515884
0.0502231
0.0545585
0.0530313
0.0579056
0.0561815
0.0616914
0.0597413
0.0659508
0.0637627
0.0706717
0.068256
0.0757749
0.0731899
0.0810445
0.078399
0.0862638
0.0836969
0.0910895
0.0887231
0.094959
0.0932492
0.0805344
0.0751067
0.101895
0.0961674
0.0983268
0.101842
0.0422551
0.0498815
0.0634201
0.0945385
0.103349
0.0169792
0.01631
0.0177431
0.0173415
0.0879477
0.10511
0.106878
0.108074
0.108105
0.106323
0.03538
0.0279367
0.0197112
0.102726
0.097058
0.0272939
0.10044
0.0408921
0.0346331
0.05037
0.0460922
0.0576503
0.0542926
0.0620525
0.0601776
0.0645072
0.0634532
0.0656986
0.0652733
0.0654879
0.0657503
0.0643228
0.0649939
0.0625412
0.0634997
0.0602938
0.0614659
0.0577282
0.0590432
0.0549511
0.0563608
0.0520436
0.0535093
0.049072
0.0505625
0.0460893
0.0475793
0.0431402
0.044608
0.0402508
0.0416852
0.0374565
0.0388411
0.0347742
0.0361006
0.0322194
0.0334804
0.0298033
0.0309938
0.0275333
0.0286501
0.0254129
0.0264546
0.023443
0.0244095
0.0216209
0.0225141
0.0199428
0.0207636
0.0183892
0.0191521
0.0176651
0.0164693
0.0159149
0.0161901
0.0171181
0.0167766
0.0178028
0.017463
0.0184121
0.0181259
0.0187875
0.0186393
0.018808
0.0188465
0.0184355
0.0186642
0.0181221
0.0188297
0.0175369
0.018175
0.0202003
0.0195054
0.0216248
0.0209045
0.0231149
0.0223618
0.0246675
0.0238839
0.0262778
0.0254658
0.0279417
0.0271034
0.0296549
0.0287925
0.0314135
0.0305289
0.0332135
0.0323086
0.0350525
0.0341284
0.0369298
0.0359863
0.03885
0.0378842
0.0408233
0.0398293
0.0428685
0.0418356
0.0450141
0.0439268
0.0473006
0.0461371
0.0497796
0.0485129
0.052511
0.0511103
0.0555573
0.0539916
0.0589743
0.0572172
0.0627947
0.0608342
0.0670151
0.0648574
0.0715635
0.0692588
0.0762777
0.0739109
0.0809144
0.0786324
0.0851459
0.083104
0.0884009
0.0869513
0.090208
0.0895258
0.04292
0.0969091
0.102898
0.096256
0.0893336
0.0899081
0.075934
0.0700384
0.0973776
0.101892
0.0156662
0.0169054
0.0575375
0.0924398
0.103549
0.0840165
0.105577
0.107653
0.109096
0.109009
0.106938
0.0104323
0.00370204
-0.00649739
0.081567
0.0798004
0.0876895
-1.49256e-05
0.0177396
0.0349067
0.102055
0.094635
0.0998913
0.0208411
0.0126597
0.0341894
0.0279983
0.0441085
0.0396072
0.0513663
0.0480053
0.0561777
0.0540783
0.059006
0.0577855
0.0604765
0.0598992
0.0606988
0.0607328
0.0599694
0.0604282
0.0585948
0.0593515
0.0567371
0.0577171
0.054536
0.0556719
0.0520987
0.0533415
0.0495063
0.0508176
0.0468242
0.048173
0.0441051
0.0454665
0.0413921
0.0427463
0.0387186
0.0400495
0.0361138
0.0374062
0.0335999
0.0348445
0.0311942
0.0323828
0.02891
0.0300365
0.0267567
0.0278168
0.0247396
0.0257311
0.0228609
0.0237832
0.0211193
0.0219733
0.0195112
0.0202992
0.0180315
0.0187564
0.0166825
0.0173355
0.0154586
0.0160459
0.0152904
0.0149553
0.0149882
0.0158425
0.0155611
0.0164481
0.0161379
0.0170937
0.0167692
0.0176864
0.0174064
0.0180616
0.0179114
0.0180968
0.0181253
0.0177446
0.0179689
0.0170977
0.0174479
0.0162918
0.0167111
0.0170459
0.0158498
0.0164424
0.0182952
0.0176608
0.0196052
0.0189421
0.0209781
0.0202834
0.0224145
0.0216885
0.0239117
0.0231558
0.0254656
0.0246819
0.0270722
0.0262626
0.0287273
0.027894
0.0304269
0.0295718
0.032167
0.0312922
0.0339447
0.0330514
0.035759
0.0348473
0.0376122
0.0366804
0.0395118
0.0385556
0.041472
0.0404833
0.043515
0.0424815
0.0456727
0.0445774
0.0479862
0.0468073
0.0505039
0.0492167
0.0532769
0.0518558
0.0563505
0.0547743
0.0597504
0.0580097
0.0634696
0.0615729
0.0674396
0.0654315
0.0715213
0.069478
0.0754871
0.0735383
0.0790038
0.0773307
0.0815668
0.0804373
0.0825652
0.0823381
0.0822754
0.0706868
0.0644321
0.085056
0.0770939
0.0956875
0.101338
0.0501282
0.0892932
0.103177
0.0151831
0.0146429
0.0157006
0.0152707
0.0792549
0.105508
0.107912
0.109543
0.109538
0.107222
-0.0176311
-0.0224411
-0.0338228
-0.0296716
-0.0117781
0.0067542
0.024862
0.100854
0.0922577
0.0732824
0.0815014
0.098669
-0.00224709
-0.012279
0.014849
0.00685839
0.0281357
0.0219599
0.038128
0.033517
0.0454097
0.0420567
0.0504459
0.0481993
0.0535935
0.0522171
0.0553612
0.0546315
0.0559599
0.0557957
0.0556292
0.0558912
0.0546351
0.0552032
0.0531441
0.0539428
0.0512901
0.0522551
0.0491789
0.0502611
0.0468914
0.0480528
0.0444928
0.0457025
0.0420356
0.0432687
0.0395627
0.0407989
0.0371078
0.0383313
0.0346998
0.0358962
0.0323634
0.0335216
0.0301164
0.0312278
0.0279736
0.0290314
0.0259455
0.0269449
0.0240389
0.0249769
0.0222571
0.0231325
0.0206003
0.0214133
0.0190663
0.0198183
0.0176532
0.0183441
0.0163595
0.0169895
0.0157561
0.0147291
0.0143232
0.0145091
0.015244
0.014975
0.0158039
0.0155177
0.0164148
0.0161056
0.0169875
0.0167158
0.0173595
0.0172087
0.0174043
0.0174266
0.0170905
0.0172916
0.0164754
0.0168111
0.016098
0.0165432
0.0153988
0.015963
0.0177448
0.0171343
0.0190026
0.018366
0.020324
0.0196553
0.021707
0.021008
0.0231485
0.0224206
0.0246451
0.0238901
0.0261928
0.0254128
0.0277877
0.0269846
0.0294256
0.0286015
0.0311028
0.0302596
0.032816
0.0319551
0.0345636
0.0336855
0.0363468
0.0354506
0.0381707
0.0372532
0.0400456
0.0391009
0.0419885
0.0410073
0.0440238
0.0429929
0.0461829
0.0450858
0.0485032
0.0473207
0.0510231
0.0497361
0.0537754
0.052369
0.0567757
0.055245
0.0600083
0.0583661
0.0634038
0.061693
0.0668298
0.0651245
0.0700728
0.0684913
0.0728163
0.0715334
0.0746161
0.0738644
0.0748678
0.0749842
0.0732072
0.0742952
0.0685247
0.0713756
0.0684289
0.0598828
0.0645879
0.0641029
0.0568396
0.0930806
0.100134
0.0140805
0.0148416
0.0420822
0.0851334
0.10218
0.0734019
0.104842
0.107592
0.109441
0.109319
0.106526
-0.0467522
-0.0498
-0.063128
0.0510255
0.0450347
0.0537762
-0.0611515
-0.0432861
-0.0249813
-0.00562565
0.0133017
0.0985451
0.0890899
0.0768326
0.0624561
0.0967085
-0.0263544
-0.037605
-0.00689463
-0.0161506
0.00968907
0.00184671
0.0226091
0.0165727
0.0324566
0.0278812
0.0397505
0.036388
0.0449374
0.0425896
0.0483544
0.0468392
0.0504057
0.0495315
0.0513371
0.0509992
0.0513667
0.0514487
0.0507245
0.0511178
0.0495753
0.0502046
0.0480478
0.0488517
0.0462457
0.0471756
0.0442495
0.0452675
0.0421238
0.0431993
0.039921
0.0410292
0.0376835
0.0388042
0.035446
0.036563
0.0332367
0.0343363
0.0310801
0.0321505
0.0289958
0.030028
0.0269986
0.0279856
0.0251
0.0260365
0.0233078
0.0241904
0.0216261
0.022453
0.0200565
0.0208274
0.0185978
0.0193135
0.0172483
0.0179097
0.0160091
0.0166142
0.0148763
0.0154302
0.0138133
0.0143453
0.013776
0.0133067
0.0135365
0.0142032
0.0139884
0.0146705
0.0144322
0.0151878
0.01492
0.0157666
0.015473
0.0163158
0.0160541
0.0166812
0.0165312
0.0167368
0.0167519
0.0164533
0.0166362
0.0158834
0.0161976
0.0151268
0.0155177
0.0143078
0.0147198
0.0149405
0.0138974
0.0144105
0.0160342
0.0154811
0.0171888
0.0166022
0.0183993
0.0177865
0.0196699
0.019027
0.0209993
0.0203274
0.0223849
0.0216852
0.0238232
0.0230976
0.0253107
0.024561
0.0268433
0.0260716
0.0284171
0.0276253
0.0300283
0.0292182
0.0316733
0.0308467
0.0333503
0.0325079
0.0350592
0.0342007
0.0368033
0.0359265
0.0385897
0.0376906
0.0404307
0.0395024
0.0423442
0.0413772
0.0443532
0.0433352
0.0464842
0.0454019
0.0487639
0.0476041
0.051212
0.0499663
0.053832
0.0525014
0.0565983
0.0552004
0.0594377
0.0580158
0.0622187
0.0608466
0.0647361
0.0635265
0.0666928
0.0658077
0.0676879
0.0673397
0.0672077
0.0676644
0.0648008
0.0662815
0.0596029
0.0626228
0.055798
0.0564614
0.0487242
0.0463687
0.0378767
0.0895765
0.0982162
0.0320059
0.0799522
0.100502
0.0135173
0.0130288
0.01379
0.0133985
0.0664148
0.103535
0.106642
0.108632
0.108361
0.105095
-0.0774211
-0.0776215
-0.0911959
-0.0926062
-0.076786
-0.058625
-0.0394732
-0.0198593
0.000641067
0.0952464
0.0845234
0.070901
0.0551673
0.0291548
0.037549
0.0939436
-0.0520119
-0.0646179
-0.0294445
-0.0402603
-0.0106368
-0.0195895
0.00503562
-0.00241247
0.0174923
0.011649
0.0271336
0.0226332
0.0344086
0.0310404
0.0397043
0.0372837
0.0433398
0.0417078
0.0456466
0.0446411
0.0468733
0.0463822
0.0472255
0.0471451
0.0469059
0.0471386
0.0460727
0.0465451
0.0448499
0.045503
0.0433382
0.0441246
0.0416174
0.0424996
0.0397515
0.0406991
0.0377924
0.0387807
0.0357823
0.0367914
0.0337559
0.0347693
0.0317421
0.0327457
0.0297635
0.0307468
0.0278411
0.0287943
0.02599
0.0269059
0.0242219
0.025095
0.0225451
0.0233717
0.0209649
0.0217428
0.0194835
0.0202118
0.018101
0.01878
0.0168164
0.0174468
0.0156297
0.0162113
0.0145365
0.015073
0.0140232
0.0132728
0.0128087
0.0130475
0.0136993
0.0134882
0.014122
0.0139074
0.0146026
0.0143522
0.0151478
0.0148707
0.0156709
0.0154206
0.0160272
0.0158792
0.0160924
0.0161006
0.0158325
0.0160017
0.0152989
0.0155946
0.0145781
0.0149547
0.0141844
0.0144821
0.0134845
0.0139768
0.0155292
0.0149985
0.0166365
0.0160752
0.0177998
0.0172108
0.01902
0.0184028
0.020296
0.0196511
0.0216252
0.0209541
0.0230045
0.0223088
0.0244304
0.0237119
0.0258991
0.0251596
0.0274064
0.0266481
0.0289486
0.0281733
0.030522
0.0297315
0.0321242
0.0313196
0.0337542
0.0329356
0.0354135
0.0345799
0.0371065
0.0362553
0.0388415
0.0379681
0.0406305
0.0397284
0.0424889
0.04155
0.0444339
0.0434496
0.0464806
0.0454438
0.0486367
0.0475451
0.0508939
0.0497542
0.053216
0.0520507
0.0555252
0.0543791
0.0576899
0.0566363
0.0595118
0.058659
0.060712
0.0602105
0.0609228
0.0609678
0.0597058
0.060519
0.0565917
0.0584256
0.0508974
0.0541034
0.0421149
0.0469439
0.0293458
0.0363721
0.0193436
0.0115442
0.0209911
0.0474235
0.0388232
0.0850986
0.0955218
0.0125497
0.0129946
0.0205478
0.0736831
0.098095
0.0581461
0.101532
0.104976
0.107067
0.106547
0.102648
-0.105709
-0.102893
-0.116971
0.0042726
-0.0060467
0.000663311
-0.121271
-0.108647
-0.0932547
-0.0755015
-0.0558764
-0.0349553
-0.0137324
0.09065
0.078678
0.0636642
0.0463921
0.0276927
0.00810547
0.0902999
-0.0769897
-0.0896316
-0.0530572
-0.0647728
-0.0317337
-0.0419676
-0.0139697
-0.0224423
0.000807315
-0.00623278
0.0127767
0.00713626
0.0221823
0.0177742
0.0294028
0.0260436
0.0347701
0.0322988
0.038577
0.0368502
0.0411064
0.0399848
0.0425936
0.0419676
0.0432333
0.0430074
0.043207
0.043293
0.0426641
0.042992
0.0417237
0.0422369
0.0404833
0.0411356
0.0390211
0.0397756
0.0374004
0.0382271
0.0356725
0.036547
0.0338795
0.0347818
0.0320557
0.0329695
0.0302292
0.0311412
0.028425
0.0293233
0.026661
0.0275369
0.0249535
0.0257994
0.0233144
0.0241248
0.0217524
0.0225233
0.0202733
0.0210022
0.0188802
0.0195659
0.0175743
0.0182164
0.016355
0.016954
0.0152207
0.0157778
0.0141674
0.0146848
0.0131935
0.0136738
0.0122673
0.0127269
0.0123382
0.0118242
0.0120804
0.0128
0.0125763
0.0132055
0.0130082
0.0135988
0.0133987
0.0140472
0.0138138
0.0145571
0.0142973
0.0150525
0.0148145
0.0153972
0.0152527
0.0154696
0.0154721
0.0152302
0.0153877
0.0147257
0.0150058
0.0140501
0.0144038
0.0132892
0.0136714
0.0125261
0.0129071
0.0130628
0.0121492
0.0126005
0.0140193
0.0135389
0.0150282
0.0145182
0.0160908
0.0155538
0.017207
0.0166422
0.018377
0.0177853
0.0195994
0.0189817
0.020872
0.0202296
0.0221916
0.0215261
0.0235549
0.022868
0.0249579
0.0242517
0.0263967
0.0256731
0.0278673
0.0271282
0.0293658
0.0286132
0.0308893
0.0301245
0.0324358
0.0316597
0.0340053
0.0332176
0.0355997
0.0347991
0.0372236
0.0364076
0.0388839
0.0380487
0.0405893
0.0397304
0.0423485
0.0414617
0.0441666
0.0432501
0.0460405
0.0450973
0.0479507
0.0469931
0.0498521
0.0489067
0.0516618
0.0507754
0.0532487
0.0524935
0.0544222
0.0539015
0.0549217
0.0547752
0.0544107
0.0548162
0.0525007
0.0536549
0.0487455
0.0508883
0.0425983
0.0459991
0.0335766
0.0384832
0.0209927
0.0277958
0.0132359
0.0371608
0.0276611
-0.0113876
-0.0175242
0.0796027
0.0920021
0.007732
0.0662262
0.0949127
0.0119501
0.0115247
0.0120719
0.011714
0.0486288
0.098773
0.102536
0.104634
0.103728
0.0991051
-0.131446
-0.125352
-0.13857
-0.146173
-0.137273
-0.125436
-0.110777
-0.0934776
-0.073258
-0.0517836
-0.0292872
0.084686
0.0713534
0.0549793
0.0361771
0.0161982
-0.00444904
-0.0302795
-0.0248064
0.0857297
-0.100044
-0.112687
-0.0755754
-0.0877215
-0.0533336
-0.0640018
-0.0336176
-0.043142
-0.0169623
-0.0249241
-0.00300223
-0.00966723
0.00846125
0.00303596
0.0176053
0.0133035
0.0247366
0.0214037
0.0301402
0.0276371
0.0340777
0.0322761
0.0367962
0.0355745
0.0385114
0.037767
0.0394058
0.0390502
0.0396442
0.0395974
0.0393667
0.0395622
0.0386868
0.0390706
0.0376985
0.038226
0.036478
0.037113
0.0350875
0.0358005
0.0335777
0.0343446
0.0319902
0.0327913
0.0303591
0.0311782
0.0287127
0.0295362
0.0270747
0.0278913
0.0254638
0.0262649
0.0238956
0.0246735
0.0223822
0.0231314
0.0209328
0.0216491
0.0195536
0.0202341
0.0182482
0.0188915
0.0170184
0.0176238
0.0158644
0.0164321
0.0147845
0.0153158
0.0137757
0.0142727
0.0128399
0.0132995
0.0123904
0.0118893
0.0113836
0.0116432
0.0123414
0.0121241
0.0127277
0.0125407
0.0131006
0.0129113
0.0135191
0.013302
0.0139939
0.0137516
0.0144604
0.0142354
0.0147913
0.0146514
0.0148681
0.0148662
0.0146482
0.0147943
0.0141731
0.0144374
0.0135335
0.0138686
0.0128062
0.0131762
0.0124325
0.0126507
0.0117791
0.0122122
0.0135683
0.0131057
0.0145352
0.0140465
0.0155531
0.0150383
0.0166222
0.0160814
0.017742
0.0171759
0.0189109
0.0183204
0.0201265
0.019513
0.0213859
0.0207509
0.0226855
0.0220309
0.0240216
0.0233492
0.0253901
0.024702
0.0267867
0.0260851
0.0282075
0.0274943
0.0296488
0.0289257
0.0311079
0.0303762
0.032583
0.0318434
0.0340739
0.0333263
0.0355818
0.0348255
0.0371091
0.0363428
0.0386586
0.0378809
0.0402316
0.0394422
0.0418246
0.041026
0.043425
0.0426252
0.0450043
0.0442199
0.0465094
0.0457705
0.0478536
0.0472085
0.048907
0.0484266
0.0494876
0.0492699
0.0493535
0.0495273
0.0481993
0.0489248
0.0456744
0.0471311
0.041371
0.0437738
0.0348346
0.0384076
0.0256253
0.0305944
0.0132293
0.019855
-0.00278248
0.00571921
-0.0229798
-0.0122492
-0.0441486
-0.0480073
-0.034948
0.0254832
0.0148667
0.0730234
0.087611
0.0111021
0.0113574
-0.00647454
0.0575696
0.0909098
0.0377787
0.095201
0.099249
0.101207
0.0997975
0.0942806
-0.152243
-0.143587
-0.155534
-0.165818
-0.16142
-0.153955
-0.142934
-0.129067
-0.111772
-0.0919736
-0.0697447
-0.0463605
0.0771662
0.0624583
0.0446189
0.0246001
0.00327299
-0.0184192
-0.0395806
-0.0511389
-0.062156
-0.0643217
0.0801833
-0.119803
-0.131743
-0.0964608
-0.10793
-0.0739034
-0.0850691
-0.053344
-0.0632944
-0.0352434
-0.0440012
-0.0196391
-0.0271266
-0.00643646
-0.0127513
0.00452162
-0.000683744
0.0133863
0.00920068
0.020401
0.0171088
0.0258098
0.023291
0.0298432
0.0279842
0.0327185
0.0314124
0.034631
0.0337838
0.0357499
0.0352796
0.0362263
0.0360596
0.0361901
0.0362649
0.0357497
0.0360143
0.0349947
0.0354064
0.0339993
0.0345229
0.0328241
0.0334307
0.031519
0.032185
0.0301253
0.0308309
0.0286765
0.0294058
0.0272008
0.0279404
0.0257212
0.0264601
0.0242568
0.024986
0.0228228
0.0235353
0.0214311
0.0221209
0.0200911
0.0207541
0.0188095
0.0194427
0.0175904
0.0181919
0.0164362
0.0170051
0.0153476
0.0158839
0.0143234
0.0148279
0.0133614
0.0138359
0.0124602
0.0129044
0.0116112
0.0120329
0.0108009
0.0112035
0.0109642
0.0104086
0.0106862
0.0114652
0.011224
0.0118983
0.0116895
0.0122712
0.0120907
0.0126264
0.0124472
0.0130164
0.0128148
0.0134572
0.0132319
0.0138941
0.0136827
0.0142092
0.0140751
0.0142883
0.014283
0.0140868
0.014222
0.0136402
0.0138895
0.0130295
0.0133501
0.012339
0.0126904
0.0116312
0.0119754
0.0109383
0.0112805
0.0114053
0.010599
0.0109993
0.0122424
0.01182
0.0131234
0.0126777
0.0140492
0.0135806
0.0150234
0.0145304
0.0160458
0.0155286
0.0171154
0.0165747
0.0182306
0.0176674
0.0193891
0.0188046
0.0205877
0.0199835
0.021823
0.021201
0.0230911
0.0224532
0.0243878
0.0237361
0.0257086
0.0250454
0.0270492
0.0263766
0.0284055
0.0277256
0.0297736
0.0290882
0.0311505
0.0304611
0.0325338
0.0318414
0.0339216
0.0332271
0.0353125
0.0346167
0.036704
0.0360084
0.0380911
0.0373985
0.039463
0.0387799
0.0407994
0.0401374
0.042064
0.0414436
0.0431982
0.0426521
0.0441127
0.0436898
0.04468
0.0444493
0.0447272
0.0447812
0.0440305
0.0444877
0.0423145
0.0433185
0.0392627
0.0409766
0.034511
0.0371235
0.0276704
0.031375
0.0183471
0.0233448
0.00614173
0.0126242
-0.00926045
-0.00113923
-0.0282662
-0.0182704
-0.0391715
0.0125721
0.000828204
-0.0591699
0.0653377
0.0823137
-0.022196
0.047667
0.0860462
0.0104778
0.0101002
0.0105369
0.0102076
0.0256598
0.0907399
0.0949474
0.0966901
0.094595
0.088052
-0.167551
-0.157315
-0.16754
-0.0773721
-0.078517
-0.179456
-0.179039
-0.176267
-0.170282
-0.160643
-0.147408
-0.131029
-0.1112
-0.0887564
-0.0644743
0.0679767
0.0518104
0.0325475
0.0112194
-0.0111904
-0.033672
-0.0552157
0.0736324
-0.135958
-0.146686
-0.114205
-0.124982
-0.0926004
-0.103384
-0.0721328
-0.0821947
-0.0533505
-0.0624909
-0.0366288
-0.0447357
-0.0220106
-0.0290488
-0.00952754
-0.0155097
0.000933884
-0.00405151
0.00950623
0.00544471
0.0163822
0.0131428
0.0217692
0.0192487
0.025868
0.023967
0.0288702
0.0274944
0.0309515
0.0300156
0.0322673
0.0316958
0.0329562
0.0326819
0.0331389
0.0331039
0.0329177
0.0330729
0.0323781
0.0326828
0.0315916
0.0320116
0.0306173
0.0311245
0.029504
0.0300752
0.0282923
0.0289081
0.0270153
0.02766
0.0257009
0.0263612
0.0243718
0.0250369
0.0230467
0.0237077
0.0217409
0.0223904
0.0204663
0.021099
0.0192323
0.0198437
0.0180455
0.0186326
0.016911
0.0174715
0.0158314
0.0163642
0.0148079
0.0153127
0.0138401
0.0143174
0.0129258
0.0133772
0.0120617
0.0124893
0.0112504
0.0116546
0.0108666
0.0105599
0.010018
0.0102933
0.0110526
0.010816
0.0114744
0.0112719
0.0118363
0.0116613
0.0121748
0.0120053
0.012538
0.0123509
0.0129461
0.0127376
0.013353
0.0131555
0.0136508
0.0135233
0.0137302
0.0137225
0.0135452
0.0136704
0.0131253
0.0133605
0.012544
0.0128498
0.0118843
0.0122194
0.0112028
0.0115431
0.010863
0.0110356
0.0102675
0.0106482
0.0118387
0.0114328
0.0126833
0.0122567
0.0135702
0.0131215
0.0145014
0.0140303
0.0154774
0.0149839
0.016497
0.0159818
0.0175585
0.0170226
0.0186596
0.0181043
0.0197971
0.019224
0.0209675
0.0203784
0.0221668
0.0215637
0.0233905
0.0227758
0.024634
0.02401
0.0258927
0.0252617
0.0271616
0.0265261
0.0284362
0.0277984
0.0297119
0.0290741
0.0309845
0.0303488
0.0322494
0.0316181
0.0335016
0.0328774
0.0347343
0.0341209
0.035937
0.0353402
0.0370931
0.0365222
0.0381758