/*--------------------------------*- C++ -*----------------------------------*\
  =========                 |
  \\      /  F ield         | OpenFOAM: The Open Source CFD Toolbox
   \\    /   O peration     | Website:  https://openfoam.org
    \\  /    A nd           | Version:  10
     \\/     M anipulation  |
\*---------------------------------------------------------------------------*/
FoamFile
{
    format      ascii;
    class       surfaceScalarField;
    location    "11.5";
    object      phi;
}
// * * * * * * * * * * * * * * * * * * * * * * * * * * * * * * * * * * * * * //

dimensions      [0 3 -1 0 0 0 0];

internalField   nonuniform List<scalar> 
57492
(
-0.00526434
0.000171488
0.0011277
0.00396515
0.00240914
-0.00405045
-0.00362304
-0.000760413
0.00223964
0.00790954
-0.00938876
0.0386805
0.0295884
-0.00605378
-0.0622151
-0.0831219
0.0348037
0.0869987
0.0151751
-0.014345
-0.00726491
0.00643482
-0.0273578
0.007593
-0.00444067
0.0242055
0.00551299
-0.0176957
0.0149665
-0.041765
0.0397516
-0.012953
0.0127024
0.038168
-0.0359038
0.00708404
0.00259076
-0.00591768
-0.00375712
-0.000791039
0.00360492
0.00427016
-0.00530519
0.00484122
-0.000327074
0.00107939
-0.00379382
0.0321928
-0.0283262
-0.0118998
0.00803317
0.00178577
0.0245897
0.00581733
-0.00156247
0.00605654
0.0345119
-0.0390059
-0.00546393
0.0340346
-0.0301332
0.00400915
-0.00832085
0.0043117
-0.0328725
0.0233925
0.0134891
-0.046147
0.00482129
0.0335641
0.00776156
0.00900969
-0.0468508
-0.00830583
-0.000788489
0.00270318
-0.00192569
1.0998e-05
0.00211267
-0.00310753
0.000206373
-0.0306757
0.0329753
0.00284481
-0.00514444
-0.0506686
0.0296124
-0.00961957
-0.0234257
0.00988977
0.0111209
0.00241501
-0.0162609
-0.00787391
0.000709185
-0.00797824
-0.0232272
0.0274957
0.00370969
-0.00934179
0.00285445
-0.0014909
0.0160133
-0.0104191
-0.00969202
0.00409776
-0.0135777
0.010832
0.018759
-0.0204764
-0.0347931
0.0241811
0.0310885
-0.0382543
-0.0116357
0.0294135
-0.0180048
-0.00265521
0.02066
-0.0057577
-0.0122471
-0.0277237
0.0352059
-0.0132399
0.00469523
-0.0174157
-0.0150033
-0.0124308
0.0200238
-0.0075519
-0.0378713
0.0203503
0.0175211
-0.0731874
0.0353161
0.0565661
-0.0126693
0.00750886
-0.0514057
0.0417665
0.00239965
0.0123999
-0.0109709
0.0539758
-0.0556742
0.0291309
0.00526876
-0.0288867
0.0281004
-0.00341019
0.0330776
-0.0118363
-0.0243501
0.00310877
0.0373548
0.00099156
0.0224788
-0.0130993
0.0187209
0.010727
0.0359573
-0.043999
-0.00390172
0.00271024
0.0451905
-0.0454049
-0.000659532
0.00206541
0.0110577
0.0405726
-0.0399666
-0.0116637
0.00818326
-0.0388906
-0.0200442
0.0407366
0.0318349
-0.0525274
0.0116457
0.0480141
-0.079704
0.000851127
0.003124
-0.000256504
-0.00371863
0.00319625
0.0024961
-0.00175598
0.00147106
0.00348117
0.00181067
-0.000442654
-0.00148868
0.00123217
-0.000247426
-0.00124125
0.0956036
0.0423637
-0.0659468
-0.0720205
0.0356801
-0.0215546
0.0814781
-0.0849991
0.0356058
0.0850734
0.0213554
-0.0639908
0.0122649
-0.030745
0.0242192
-0.00573905
0.0262089
-0.0309887
0.0170447
0.000939691
-0.000919022
0.000150819
0.00163078
0.000436614
0.00446955
0.00112638
-0.0333482
0.0606922
0.0286956
-0.0560397
0.0387581
-0.0458974
0.0234028
0.0553233
-0.0180338
0.134828
-0.00819509
-0.0426217
-0.0840116
0.0427285
0.07408
0.0180198
0.0249635
-0.0510736
0.0688386
0.00139679
-0.00215721
0.00363643
0.0161344
0.0319202
-0.01317
-0.0348845
0.0219222
0.00212175
0.00257923
-0.00114205
-0.00143718
0.00297881
-0.000399579
-0.0783645
0.0397112
-0.0291934
0.0678467
-0.0687361
-0.0328894
0.023261
-0.037208
0.0320683
-0.0635964
0.0372985
-0.000744906
-0.0187552
-0.0177983
-0.0147268
0.0422088
0.00981649
-0.0180357
-0.00181699
0.00512591
-0.0164904
-0.00229027
-0.00618258
-0.029063
0.00199587
0.00340898
0.00137308
-0.00677794
0.00550446
0.00460331
-0.0081119
-0.00555924
-0.000941954
0.0120056
-0.0031597
0.00100945
-0.00309137
0.00130476
-0.0152143
0.00903176
0.00221149
-0.0174258
0.00234559
0.000633216
0.046507
0.0310362
-0.00327602
0.0174183
-0.0540332
-0.00317492
0.0359284
-0.0265511
-0.00620235
-0.00498783
0.0414356
-0.0396227
0.035155
0.0164052
-0.00174735
-0.0498129
-0.0139161
0.00837165
0.0406994
0.0414556
-0.0389664
-0.0144325
-0.0287556
0.0101152
0.0330729
-0.0126927
0.033215
-0.0349549
0.00240869
-0.043857
-0.00429313
-0.00334368
0.00012995
-0.00268222
0.00275633
0.00233503
-0.00258575
0.00307929
-0.00317576
-0.00626327
-0.000372931
-0.00471001
0.00800671
0.00189674
-0.00519343
0.0180448
-0.0176062
-0.00514858
-0.00822657
0.0189286
0.0073428
-0.00345342
0.00323356
-0.062326
0.0376429
0.0643944
0.0715477
-0.0240469
-0.0803902
-0.0301526
0.0393742
-0.00230581
-0.0181853
-0.00273607
-0.0118409
0.000193285
0.000694741
-0.00399289
0.00177396
0.00152419
-0.00350255
0.00293138
0.00126591
-0.00649285
-0.00100259
-0.00543419
-0.00763894
0.00123224
-0.0155412
-0.00807822
-0.0155428
-0.016456
0.019554
0.0124448
0.000882366
0.00756667
-0.0239918
-0.0217333
0.00615965
-0.0497124
0.0194469
-0.00260696
-0.050611
0.00615898
-0.00526033
0.00215247
-0.0368642
0.0325745
0.00213722
0.00189494
-0.0341349
0.0343924
0.00239346
-0.112445
-0.0280271
0.0358783
0.0366843
-0.0452645
0.0377069
-0.0051562
0.00297768
-0.00391964
0.00324697
-0.000269288
0.00673141
-0.00132048
0.060952
-0.0367822
-0.0253582
0.00118833
0.0518863
-0.00190514
0.055762
0.0139273
-0.0580436
0.0294682
0.042863
-0.0165693
0.0131386
-0.0280446
0.0443742
-8.91137e-05
0.00333609
0.013098
-0.0399495
-0.0419083
0.0238687
0.0504084
0.0174424
-0.000883294
-0.0182424
0.00168333
0.00577831
-0.00191362
-0.0225632
0.00439685
0.0289984
0.00357344
-0.0203584
-0.00323422
0.000991604
0.00280044
-0.00144252
-0.00138993
3.2018e-05
-0.000291443
-8.97767e-05
0.00318166
0.00133351
0.00713314
-0.00875809
-0.0100333
0.0200053
-0.00762639
0.0596564
-0.0509313
-0.0187585
-0.000442616
-0.0293963
0.0342358
-0.0705913
-0.00163192
-0.0518927
-0.0263033
0.0076047
0.031376
0.0257991
-0.0523539
0.0205404
0.0468737
-0.036038
0.0189161
-0.0322168
0.0185623
-0.00526158
0.020642
-0.0312231
0.0294972
0.0445667
0.0147966
0.046092
-0.000276347
-0.0457828
-3.29072e-05
0.0511471
-0.00423433
-0.000820752
0.0501223
-0.00874335
0.00158439
-0.0429633
0.0357531
-0.0130771
0.0274462
0.0404336
-0.0117123
0.00943125
-0.0381525
0.0106411
0.0410262
-0.0112337
-0.0367347
-0.0140792
0.0391015
0.00853922
-0.0351587
-0.0151319
0.0341256
-0.019365
-0.03103
0.0173817
0.0330133
-0.0196019
-0.0315851
0.031822
0.018041
0.0298326
-0.0109464
-0.0369273
0.0294032
-0.0309641
-0.0211393
0.0212719
0.0292707
-0.0165803
0.0252736
-0.0393498
0.0347422
-0.00633878
-0.0507332
0.00559395
0.0519781
-0.00683884
0.0143739
0.00796669
0.000384344
0.000329541
-0.00868057
0.00661183
0.00397622
-0.00262136
0.000473792
-0.00245494
-0.00428212
-0.021169
-0.0315435
0.0196382
0.000495531
-0.000585308
-1.04753e-05
0.000506007
-0.00369506
-0.0361174
0.0267132
-0.0309052
-0.00309401
0.0303041
0.00217281
-0.0323136
-0.000764356
0.00202735
0.0169149
-0.00139527
-0.017547
0.0140403
0.0104442
-0.0224571
0.0193039
0.0116513
0.000246501
-0.000630246
-0.00295994
-0.000864803
0.0011113
-0.00149505
0.000286668
-0.000481686
0.00200569
-0.000307835
0.000594503
-0.00078952
0.00115228
-0.000104856
0.00106525
-0.00106524
0.00221752
-0.0011701
0.00205874
-0.000170424
-0.00534174
-0.000746729
0.00280547
-0.000917153
0.0169709
0.0339652
-0.0425644
0.0108551
-0.0431373
0.0492531
0.0502834
-0.00546313
-0.0133654
-0.0250867
0.0132627
0.0251895
-0.00620226
0.026807
-0.0339701
0.00295741
-0.0342464
0.0326385
-0.0325359
-0.00108697
0.000984403
0.033024
-0.000902627
0.000517103
-0.000952674
-0.0320608
0.000477571
0.0336525
-0.00140276
0.000774254
0.0346083
-0.00106622
0.000110451
-0.00145158
0.0358212
0.000238702
0.0364231
-0.0358412
-0.00203344
-0.00351524
0.037855
0.00148145
0.0358124
-0.00290452
-0.0343685
-0.00253893
-0.0338467
-0.00192454
-0.0333776
-0.00137171
-0.0336322
-0.000832417
-0.0325876
-0.00199729
-0.00361873
0.0398731
0.00160059
0.0344801
-0.00228646
-0.000643125
-0.0313715
-4.6189e-05
-0.0323605
-0.000870168
-0.000432434
-0.0327476
0.00180855
-0.00205251
0.040207
0.00171866
0.034761
-0.00233346
-0.0330293
0.000236317
0.0405401
-0.00212451
0.00179135
-0.00216945
0.0408335
0.00187606
0.0350302
-0.0023937
0.0352652
-0.00240441
-9.88151e-05
-0.0321149
-0.00053389
-0.0326531
-0.000475049
-0.00220704
0.0411273
0.00191328
0.0354909
-0.00243277
0.00039429
-0.0316791
-0.000830147
-0.032084
-0.000174802
-0.00221819
0.041379
0.00196648
0.0356854
-0.0024127
0.00071806
-0.0312541
-0.00114305
-0.0315109
0.000144947
-0.00222432
0.041632
0.00197127
0.0358758
-0.00241465
0.00105085
-0.0308384
-0.00146659
-0.0309316
0.000471587
-0.00220414
0.0418401
0.00199607
0.0360411
-0.00236949
0.00139305
-0.0304437
-0.00178774
-0.0303606
0.000822028
-0.00217795
0.0420454
0.00197262
0.0362127
-0.00234957
0.0018089
-0.0301264
-0.00212616
-0.0297168
0.0011651
-0.00212021
0.0421927
0.00197295
0.036377
-0.00228451
0.00228916
-0.0288878
-0.00352779
-0.0286521
0.00122453
-0.00204281
0.0423105
0.00192498
0.0364379
-0.00210365
0.00265003
-0.0287
-0.00283778
-0.0278809
0.00187876
-0.00190751
0.0423128
0.00190523
0.036286
-0.00175562
0.00322867
-0.0272645
-0.0046642
-0.0265259
0.00187374
-0.000220557
0.040698
0.0018354
0.0374607
-0.00139531
0.00363861
-0.0267724
-0.00413067
-0.0256962
0.00280892
-0.000372219
0.037794
0.0032762
0.0381537
-0.00106518
0.00428562
-0.00496944
-0.0260886
-0.0250249
0.00361429
-0.00181699
0.00217766
0.0374333
0.0379805
-0.00164382
-0.0285543
0.0292132
-0.00478958
-0.0285393
-0.00498448
0.00512531
-0.0053847
-0.0258292
0.00397783
-0.0238774
-0.0287578
0.0292334
-0.0033134
-0.00420882
-0.0283446
0.0285491
-0.00233061
-0.00263901
-0.0287705
0.0290102
-0.00170625
-0.00200913
-0.0292662
0.0295407
-0.00110468
-0.00139905
-0.0298269
0.0321701
-0.000534672
-0.00082005
-0.032396
0.032269
0.00060461
-0.000272152
-0.0336518
0.0337218
0.00044707
-0.000398403
-0.0329758
0.0328197
0.000266605
0.00152027
-0.032338
0.0326457
0.0011737
0.000720392
-0.0329447
0.0332315
0.00143186
0.00130161
-0.0335039
0.0337656
0.00161435
0.00151901
-0.0340134
0.0342507
0.00172917
0.00166547
-0.0344746
0.0346889
0.00178185
0.00174731
-0.0348909
0.0350847
0.00177916
0.00177054
-0.0352677
0.0354447
0.00172818
0.00174203
-0.0353733
0.0364199
0.00222967
0.00190679
0.0365127
0.00208486
-0.00209705
0.0024499
0.0370804
-0.00197991
0.0378634
0.0381056
-0.0374516
-0.00204935
-0.0385143
0.0384753
-0.00160487
-0.00147385
0.0373871
-0.0371595
-0.00233125
-0.00182012
0.0370631
-0.0369509
-0.00246171
-0.00238093
0.0368237
-0.0366778
-0.00256053
-0.00249669
0.036514
-0.0363281
-0.00261871
-0.00257652
0.0361214
-0.0358894
-0.00262575
-0.00261107
0.0356336
-0.0353489
-0.00257113
-0.00258923
0.0357521
-0.0353421
-0.00244349
-0.00250133
0.0355452
-0.0347378
-0.00273192
-0.00233579
0.0340845
-0.033427
-0.00148992
-0.00202505
0.0333328
-0.0330244
-0.00117856
-0.00209144
0.0314919
-0.0309238
-0.00104306
-0.00129628
0.0303342
-0.0297209
-0.000468438
-0.000764404
0.0290934
-0.0284477
0.000176326
-0.000155891
0.0277941
-0.0274357
0.000866145
0.000511474
0.0267677
-0.0264664
0.00157245
0.00121078
0.0255672
-0.0245198
0.00256692
0.00190968
-0.0235143
0.00297232
-0.0285758
-0.00534814
0.0367672
0.00219533
-0.00195681
0.0384522
0.00461538
-0.00507479
-0.023418
0.00371395
-0.0226128
0.00550136
-0.0056459
-0.0284313
-0.0254027
-0.0304807
0.0300647
-0.00437352
0.0307701
-0.0309364
-0.00518191
-0.00469504
-0.0297445
0.0298081
-0.00337701
-0.00388868
-0.0298745
0.0299508
-0.00240697
-0.00270538
-0.0300416
0.0301502
-0.00181481
-0.00209989
-0.0302764
0.0304238
-0.0012521
-0.00152527
-0.0305858
0.0307734
-0.000722298
-0.000982034
-0.0309742
0.0318106
-0.000231731
-0.000472994
-0.0314191
0.0316581
0.000208159
-6.95711e-06
-0.0327724
0.0324433
0.000595694
0.000405917
-0.0324069
0.032663
0.000917632
0.000756776
-0.0329185
0.0331732
0.00117711
0.00104612
-0.0334223
0.0336678
0.00136883
0.00126998
-0.0339059
0.0341394
0.00149574
0.00142732
-0.0343646
0.0345847
0.00156173
0.00152208
-0.0347965
0.0350037
0.00157204
0.00155873
-0.0352025
0.0353979
0.00153286
0.00154315
-0.0355887
0.0360919
0.00172648
0.00171594
0.00173039
-0.00194673
0.0372968
0.00148543
0.0370122
-0.0361793
0.0367398
0.00163484
0.00199744
0.0386974
-0.0387051
-0.00159717
0.0383862
-0.0016456
0.00178907
-0.00143056
0.0380937
0.0377057
0.0387138
-0.038433
-0.00233021
-0.00146515
0.0380938
-0.0380424
-0.00238268
-0.00215923
0.0379787
-0.0379018
-0.00253858
-0.00244465
0.0378106
-0.0377025
-0.00266868
-0.0025879
0.0375772
-0.0374314
-0.00276452
-0.00270174
0.0372656
-0.0370752
-0.00281609
-0.00277694
0.0368614
-0.0366195
-0.00281303
-0.00280301
0.036351
-0.0360509
-0.0027436
-0.00276982
0.0357221
-0.0358565
-0.00259752
-0.0026646
0.0354038
-0.0345304
-0.00236337
-0.00247774
0.0344207
-0.0335624
-0.00203686
-0.00220111
0.0330294
-0.0324567
-0.00161574
-0.00182929
0.0318559
-0.0312202
-0.0011041
-0.00136525
0.0305594
-0.0298681
-0.000515
-0.000816699
0.0291569
-0.0284209
0.000130147
-0.000199724
0.0276706
-0.0269023
0.000804099
0.000460545
0.0261245
-0.0250293
0.00147163
0.00113195
0.0240876
-0.0229345
0.00256081
0.00203067
-0.0310519
-0.00553041
0.00391544
-0.00496467
-0.0215636
-0.0219663
0.00294727
-0.00585136
-0.0225313
0.00154967
0.0366756
0.0384574
-0.00150171
-0.00550783
0.00535714
-0.0282806
-0.005615
-0.0309447
0.00396664
-0.00519374
-0.0203365
0.00302665
-0.0210263
-0.0258969
0.0371351
-0.0368133
0.00131299
0.0369375
0.00174726
-0.00109511
0.00142922
0.0377596
-0.00130481
0.0386671
-0.0329562
0.033389
-0.00604783
-0.00652034
0.00611176
-0.0305361
0.0338006
0.00558426
-0.00261313
-0.0367718
-0.00567588
-0.0334238
0.0331915
-0.00494959
-0.00556524
-0.0327795
0.0322262
-0.00382018
-0.00428306
-0.0319889
0.0316396
-0.00302773
-0.00365139
-0.0316374
0.0316396
-0.00240923
-0.00270311
-0.031649
0.0316691
-0.00183495
-0.00210924
-0.0317025
0.0317525
-0.00130213
-0.00155867
-0.0318186
0.031905
-0.000808766
-0.00104807
-0.0320084
0.0321315
-0.000354832
-0.000576395
-0.032271
0.0324252
5.39389e-05
-0.000146368
-0.0325942
0.0327756
0.000414297
0.000236879
-0.0329649
0.0331634
0.000719146
0.000567468
-0.0333676
0.0335782
0.000966537
0.000841875
-0.0337906
0.034006
0.00115341
0.00105759
-0.0342206
0.0344362
0.00128018
0.00121275
-0.034649
0.0348614
0.00134932
0.00130925
-0.0350699
0.0352772
0.00136471
0.00135024
-0.0354798
0.0356811
0.00133158
0.00134054
-0.0359818
0.0362525
0.00145574
0.00141525
0.00143668
0.00177165
-0.0016958
0.0372209
-0.00178871
0.00134257
0.0371217
0.0369951
0.0374392
0.0393223
-0.0393172
-0.00160219
-0.0392337
0.0389674
-0.00123539
-0.00155705
0.0389135
-0.0390282
-0.00221556
-0.00186887
0.038893
-0.03887
-0.00240571
-0.00229435
0.0388372
-0.038793
-0.0025827
-0.00247751
0.0387367
-0.038666
-0.00273936
-0.00264423
0.0385805
-0.0384771
-0.00286788
-0.00278731
0.0383558
-0.0382128
-0.00295906
-0.00289824
0.0380485
-0.0378585
-0.00300301
-0.00296736
0.0376439
-0.037399
-0.00298852
-0.00298438
0.0371259
-0.0368186
-0.00290478
-0.00293772
0.03648
-0.0361032
-0.00274025
-0.00281634
0.0356922
-0.0352407
-0.00248838
-0.00261206
0.0347533
-0.0342241
-0.00214495
-0.00231666
0.0336592
-0.0330525
-0.00171079
-0.00193014
0.0324122
-0.0317321
-0.00119508
-0.001457
0.0310219
-0.0302765
-0.000615263
-0.000909974
0.0295054
-0.0287043
3.01075e-06
-0.000310561
0.0278836
-0.0270379
0.000625936
0.000311298
0.0259275
-0.0245819
0.00121516
0.000920259
0.0234379
-0.0225929
0.00218167
0.00180331
0.00328953
-0.00412423
-0.0201916
-0.0216201
0.00231664
0.00590592
-0.0280748
-0.00532939
-0.0223957
0.00141743
0.0368627
0.0390804
-0.00141787
0.00674033
-0.0316922
-0.00430285
-0.0201579
0.0129824
-0.0261938
0.0325153
-0.00343216
0.00242634
-0.0206142
-0.00445532
-0.0191684
-0.0228055
0.0350882
-0.000631359
-0.0157899
-0.00841091
-0.0253203
-0.0337478
0.0353523
-0.00421769
-0.00291601
0.00425643
-0.0350206
0.0347355
-0.00576272
-0.00534412
-0.0345115
0.0340325
-0.00447064
-0.00534127
-0.0338172
0.0337082
-0.00371113
-0.00406773
-0.0333995
0.0333882
-0.00301645
-0.00334269
-0.0333694
0.0333469
-0.00238682
-0.00268429
-0.0333246
0.0333055
-0.00181575
-0.00208695
-0.0332927
0.0332893
-0.00129875
-0.00154591
-0.0332975
0.0333196
-0.000830876
-0.00105627
-0.0333568
0.0334107
-0.000408724
-0.000613587
-0.0334807
0.033567
-3.23978e-05
-0.000216321
-0.0336691
0.0337864
0.000297026
0.00013473
-0.0339165
0.0340596
0.000576069
0.00043734
-0.0342129
0.0343767
0.000802678
0.00068861
-0.0345477
0.0347264
0.000974716
0.000886628
-0.0349093
0.0350977
0.00109184
0.00102981
-0.0352879
0.0354816
0.00115564
0.00111902
-0.0356753
0.0358708
0.00116919
0.00115658
-0.0360649
0.0362593
0.00113712
0.00114645
-0.0365808
0.0369724
0.00106416
0.00109376
-0.0370779
0.0372517
0.00113928
0.00133116
-0.0375818
0.0377385
0.00126082
0.00141707
0.00164734
-0.00157397
0.0370483
-0.0013026
0.00087271
0.0381683
0.0372074
0.00177867
-0.00137383
0.0368161
0.0371998
0.00134351
-0.00145078
0.0378669
0.0374088
0.00143647
-0.00162193
0.0392659
0.0386527
0.039954
-0.0398668
-0.00132261
-0.0405075
0.0394362
-0.000550658
-0.00197135
0.039819
-0.0397734
-0.00164782
-0.00160488
0.0395604
-0.039574
-0.00220193
-0.00208182
0.0395821
-0.0395831
-0.00240471
-0.00228628
0.0395769
-0.0395619
-0.00259768
-0.00248374
0.0395374
-0.0395018
-0.00277502
-0.0026687
0.0394542
-0.0393924
-0.00292967
-0.00283494
0.0393157
-0.0392213
-0.00305345
-0.00297489
0.0391088
-0.0389746
-0.00313721
-0.0030799
0.0388187
-0.0386366
-0.00317065
-0.00314027
0.0384288
-0.0381905
-0.00314312
-0.00314549
0.0379222
-0.0376184
-0.00304401
-0.00308463
0.037282
-0.0369055
-0.00286486
-0.0029485
0.0364931
-0.0360382
-0.00259989
-0.00272908
0.0355453
-0.0350081
-0.00224797
-0.00242303
0.0344329
-0.0338134
-0.00181456
-0.00203221
0.0331576
-0.0324597
-0.00131317
-0.00156579
0.0317289
-0.0309601
-0.000765776
-0.00104131
0.0301639
-0.0293352
-0.000202764
-0.000484934
0.0284847
-0.0276082
0.000338688
6.97522e-05
0.0263889
-0.0250245
0.000817231
0.000583978
0.0241676
-0.0231949
0.00145362
0.00145983
0.00259331
-0.0034661
-0.0197415
-0.0221612
0.00155955
0.00616393
-0.0274983
-0.00510296
-0.0215956
0.00818073
-0.0268906
-0.00451185
-0.0201014
0.0384216
-0.0383254
0.00116462
0.0384673
0.000826967
-0.00105683
0.00121388
0.0391088
-0.00135818
0.0397376
0.00890935
-0.024659
-0.00392798
-0.0187066
-0.00923319
-0.0241037
-0.0278564
0.0327604
-0.00553537
0.00286432
-0.00355988
-0.0190459
0.00182191
-0.0211187
-0.0250686
-0.0111986
-0.0242594
-0.0345477
0.0351688
-0.00483879
-0.00470334
-0.0356233
0.0352258
-0.0053652
-0.00579867
-0.0347982
0.0348434
-0.00451584
-0.00491364
-0.0348767
0.0348974
-0.00373182
-0.00410104
-0.0349079
0.0349077
-0.00301625
-0.00335318
-0.0348992
0.0348843
-0.00237188
-0.00267581
-0.0348654
0.0348447
-0.00179503
-0.00206812
-0.0348248
0.034808
-0.00128192
-0.00152603
-0.0347969
0.0347934
-0.000827407
-0.00104512
-0.0347999
0.0348177
-0.000426581
-0.00062008
-0.0348482
0.0348924
-7.65971e-05
-0.000246822
-0.0349501
0.0350221
0.000225098
7.70299e-05
-0.0351073
0.035206
0.000477353
0.000352152
-0.0353165
0.0354392
0.000679979
0.000578066
-0.0355716
0.0357141
0.000832234
0.00075423
-0.0358638
0.0360215
0.000934143
0.00088008
-0.0361841
0.0363525
0.000987185
0.00095645
-0.0365237
0.0366987
0.000994124
0.000985462
-0.0368746
0.0370526
0.000959066
0.000970614
-0.0372297
0.0374062
0.000887641
0.000916662
-0.0379083
0.0379435
0.0011041
0.000829033
0.00103522
0.00143547
-0.0018143
0.0374272
-0.00102622
0.00100137
0.0381932
0.0376167
0.00129042
-0.00139242
0.0369181
0.036676
0.00110633
-0.000978823
0.0377394
0.0371227
0.0388878
0.0404877
-0.0404288
-0.00138154
-0.03996
0.0402487
-0.00083933
-0.00144367
0.0403559
-0.0400438
-0.00195998
-0.00167774
0.0400758
-0.0401046
-0.00217314
-0.00204982
0.0401297
-0.0401506
-0.0023838
-0.00226118
0.0401664
-0.0401763
-0.00258768
-0.00246795
0.0401796
-0.040175
-0.00277957
-0.00266549
0.0401616
-0.0401379
-0.00295335
-0.00284835
0.0401029
-0.0400545
-0.00310186
-0.00300993
0.0399917
-0.0399119
-0.00321698
-0.00314266
0.0398144
-0.0396956
-0.00328947
-0.00323784
0.0395551
-0.0393887
-0.00330947
-0.00328598
0.0391964
-0.0389732
-0.00326712
-0.00327698
0.0387202
-0.0384316
-0.00315351
-0.00320151
0.0381092
-0.0377471
-0.00296199
-0.0030515
0.0373482
-0.0369065
-0.00268965
-0.00282191
0.0364263
-0.0359018
-0.00233911
-0.00251236
0.0353388
-0.0347319
-0.00192015
-0.00212875
0.0340885
-0.0334036
-0.00145061
-0.00168469
0.0326866
-0.0319328
-0.000956561
-0.00120203
0.0311525
-0.0303424
-0.000471386
-0.00071049
0.0295123
-0.0286593
-3.57599e-05
-0.000246141
0.0273479
-0.0262065
0.000312137
0.000148437
0.0250805
-0.0240769
0.00081829
0.000433603
0.00211594
-0.00272027
-0.0205144
-0.0231646
0.00120366
0.00614897
-0.0254666
-0.00510021
-0.0210072
0.00102299
0.0384457
0.0400713
-0.00118074
0.00747206
-0.0254533
0.00335917
-0.0350495
0.00635965
-0.0276594
-0.00468492
-0.0193444
-0.00405003
-0.0182164
-0.0352763
-0.013896
0.00940609
-0.0116493
-0.0330331
0.00486385
-0.0305072
-0.00357502
-0.0181911
0.00180758
-0.00298578
-0.0193362
0.00133278
-0.0226898
-0.0232106
-0.032357
0.0339917
-0.00717014
0.0340126
-0.0367424
-0.0111662
-0.00954301
-0.0352084
0.0358764
-0.00550675
-0.00592004
-0.0359312
0.0359808
-0.00541483
-0.00585349
-0.0360245
0.0360609
-0.00455221
-0.00495732
-0.0360916
0.0361169
-0.00375714
-0.0041318
-0.0361366
0.0361508
-0.00303042
-0.00337287
-0.0361595
0.0361634
-0.0023757
-0.00268456
-0.0361633
0.0361602
-0.00179196
-0.00206803
-0.0361556
0.0361508
-0.00127708
-0.00152144
-0.0361475
0.0361474
-0.000827273
-0.00104188
-0.0361523
0.0361635
-0.000437867
-0.000624935
-0.0361828
0.0362112
-0.000104955
-0.000266118
-0.0362495
0.0362987
0.00017593
3.86888e-05
-0.0363587
0.0364302
0.00040589
0.00029215
-0.0365123
0.0366056
0.00058667
0.000495934
-0.0367085
0.0368215
0.000719259
0.000651302
-0.0369424
0.0370718
0.000804786
0.00075919
-0.037207
0.037349
0.000845261
0.000821172
-0.0374947
0.0376451
0.000843666
0.000839742
-0.0377973
0.0379523
0.000804099
0.000818451
-0.0381069
0.0382629
0.000731664
0.000762004
-0.0384159
0.038888
0.000632029
0.00067601
-0.0390692
0.0393038
0.000930089
0.000853987
-0.0389132
0.0392168
0.000719349
0.00121755
0.00125802
-0.00124266
0.0381778
-0.000612231
0.000243398
0.0395857
0.0390915
0.0013966
-0.0010648
0.0370954
0.0377706
0.00119575
-0.00129623
0.0370186
0.0368069
0.00136071
-0.00139161
0.0377703
0.0371872
0.00113212
-0.00118743
0.0391642
0.0386283
0.00122578
-0.00112811
0.0399736
0.039776
0.0407699
-0.0403661
-0.00124314
-0.0405201
0.0402537
-0.000861695
-0.000930952
0.0405174
-0.0404835
-0.00141545
-0.0012924
0.0403659
-0.040409
-0.00191684
-0.00179532
0.04045
-0.0404904
-0.00213269
-0.00200885
0.0405286
-0.040565
-0.00234733
-0.00222303
0.0405985
-0.040629
-0.00255719
-0.00243452
0.0406552
-0.040677
-0.00275782
-0.00263925
0.0406928
-0.0407022
-0.00294399
-0.00283246
0.0407036
-0.0406959
-0.00310955
-0.00300852
0.0406777
-0.0406473
-0.00324742
-0.00316085
0.0406032
-0.0405432
-0.00334953
-0.0032819
0.0404659
-0.0403683
-0.00340706
-0.00336322
0.0402495
-0.0401056
-0.00341098
-0.00339581
0.0399364
-0.0397372
-0.0033527
-0.0033708
0.0395084
-0.0392452
-0.00322525
-0.00328024
0.0389487
-0.0386138
-0.00302454
-0.00311837
0.038243
-0.0378311
-0.00275103
-0.00288314
0.0373821
-0.036891
-0.00241129
-0.00257778
0.0363634
-0.0357948
-0.00201914
-0.00221227
0.0351927
-0.0345531
-0.00159617
-0.00180419
0.0338849
-0.033185
-0.00117125
-0.00137869
0.0324631
-0.0317188
-0.000780075
-0.00096804
0.0309621
-0.0301907
-0.000459342
-0.000608227
0.0294158
-0.0283464
-0.000251115
-0.000341269
0.0273483
-0.0261975
0.000181956
0.000205579
0.000880108
-0.00182259
-0.0217473
-0.0255558
0.000238395
0.00618944
-0.024184
-0.0365864
-0.0118053
0.00669801
-0.0257916
0.0404235
-0.0404119
0.000707818
0.0404961
0.000170766
-0.000841351
0.000912186
0.0399028
-0.000679911
0.0400923
-0.00530186
-0.0203903
-0.00483346
-0.018561
0.00620051
-0.0289961
-0.00411381
-0.0176776
-0.00319355
-0.0179834
-0.00214774
-0.0190111
0.000878749
-0.0013907
-0.0212354
-3.01353e-05
-0.0246469
-0.022323
-0.0379509
0.0365138
-0.00972911
-0.0114316
0.0128067
-0.0379616
0.0392277
-0.0404686
-0.0101907
-0.0105285
-0.0350905
0.035698
-0.00777763
-0.00811971
-0.0364538
0.0369288
-0.00598169
-0.00667593
-0.0369459
0.0369666
-0.0054355
-0.00587061
-0.0369891
0.037013
-0.00457609
-0.00497985
-0.0370379
0.0370635
-0.00378278
-0.0041567
-0.0370892
0.0371145
-0.00305565
-0.00339855
-0.0371386
0.0371612
-0.00239838
-0.00270864
-0.0371824
0.0372021
-0.00181166
-0.00208915
-0.0372205
0.0372383
-0.00129488
-0.00153992
-0.0372561
0.0372748
-0.000845958
-0.00105966
-0.0372954
0.037319
-0.000461482
-0.00064551
-0.0373466
0.0373793
-0.000137681
-0.000293729
-0.0374182
0.037464
0.000130159
-1.93636e-07
-0.037517
0.0375783
0.000344668
0.000239097
-0.0376473
0.037725
0.000509039
0.000426879
-0.0378102
0.0379036
0.000625806
0.000566061
-0.0380038
0.0381111
0.000697422
0.000659072
-0.0382237
0.0383422
0.000726799
0.000708572
-0.0384641
0.0385903
0.000717502
0.000717788
-0.0387181
0.0388483
0.000673917
0.000690685
-0.0389782
0.0391087
0.000601221
0.000632054
-0.0392373
0.0393637
0.000505541
0.000547398
-0.0397751
0.0400333
0.00067192
0.000442588
0.000838937
0.000704044
-0.00109338
0.0385672
-0.000664761
0.000275209
0.0399752
0.0391308
0.000818692
-0.00096969
0.0372464
0.0374959
0.0010989
-0.00119841
0.0371181
0.0369361
0.00126274
-0.0012934
0.0378009
0.0372516
0.000854989
-0.000961221
0.0392704
0.0381899
0.0397269
0.040961
-0.0410379
-0.00116627
-0.0408205
0.0405784
-0.000619532
-0.000790466
0.0407898
-0.0405487
-0.00165651
-0.00154048
0.0405955
-0.0406433
-0.00186903
-0.00174857
0.040691
-0.0407395
-0.00208417
-0.00196118
0.0407874
-0.0408357
-0.0022991
-0.00217509
0.0408828
-0.0409294
-0.00251061
-0.00238741
0.040974
-0.0410169
-0.00271491
-0.00259466
0.0410566
-0.041093
-0.00290754
-0.00279278
0.0411246
-0.0411509
-0.00308326
-0.00297694
0.0411702
-0.0411816
-0.00323598
-0.00314154
0.0411835
-0.0411743
-0.00335873
-0.00328005
0.0411523
-0.0411156
-0.0034438
-0.00338515
0.0410625
-0.0409904
-0.00348312
-0.0034489
0.0408979
-0.0407818
-0.00346877
-0.00346325
0.0406414
-0.0404728
-0.0033939
-0.00342068
0.0402759
-0.0400466
-0.00325383
-0.00331524
0.0397859
-0.0394894
-0.00304751
-0.00314386
0.0391594
-0.0387918
-0.00277894
-0.00290775
0.0383902
-0.0379509
-0.00245841
-0.00261385
0.0374793
-0.0369723
-0.00210322
-0.0022758
0.0364367
-0.0358703
-0.00173767
-0.00191426
0.0352815
-0.0346695
-0.00139211
-0.00155681
0.0340426
-0.0334014
-0.00110055
-0.00123508
0.0327564
-0.0321081
-0.000899472
-0.000986243
0.0310623
-0.0300629
-0.000817487
-0.000840152
0.0293416
-0.028871
-0.000500703
-0.000482948
-0.0107071
0.00732058
-0.0271207
-0.0309334
0.000153631
-0.000489439
-0.0243111
-0.0279555
-0.000761834
0.00604299
-0.0235289
0.00062788
0.0401434
0.0408678
-0.000969318
0.0101029
-0.0400696
-0.0105019
-0.00549323
-0.0197305
0.0111233
-0.038982
0.00648711
-0.0260782
-0.00493146
-0.0177434
0.00705575
-0.0287313
-0.00412555
-0.0167456
-0.00312214
-0.017009
-0.00202025
-0.0183815
-0.0011404
-0.0205844
-0.000268252
-0.000278847
-0.023764
-0.000667946
-0.0275558
-0.0217733
-0.0417212
0.0401722
-0.00864168
-0.011891
-0.0392552
0.0110767
0.0426579
-0.0414812
-0.0130677
-0.00956522
-0.0390797
0.0382582
-0.00890761
-0.00943596
-0.0378401
0.037309
-0.00724657
-0.0077016
-0.0373913
0.0377349
-0.00632525
-0.0067582
-0.0377183
0.0377126
-0.00542982
-0.00585403
-0.0377155
0.0377257
-0.00458626
-0.00498279
-0.0377423
0.0377648
-0.00380524
-0.00417333
-0.0377922
0.0378237
-0.00308715
-0.00342591
-0.0378582
0.0378951
-0.00243531
-0.00274315
-0.0379335
0.0379732
-0.00185133
-0.00212759
-0.0380134
0.0380542
-0.00133567
-0.00158012
-0.0380952
0.0381369
-0.000887663
-0.00110069
-0.0381793
0.0382231
-0.00050529
-0.000687887
-0.0382685
0.0383164
-0.000185599
-0.000339133
-0.0383674
0.0384221
7.54489e-05
-5.12104e-05
-0.0384808
0.0385443
0.00028117
0.000180481
-0.0386123
0.0386859
0.000435491
0.000358809
-0.0387642
0.038848
0.000542011
0.000487777
-0.0389361
0.0390292
0.000604316
0.000570967
-0.0391257
0.0392262
0.000626242
0.000612065
-0.0393289
0.0394344
0.000612058
0.000615111
-0.0395404
0.0396478
0.000566566
0.000584626
-0.0397541
0.0398602
0.000495119
0.000525681
-0.0399638
0.0400658
0.000403475
0.000443869
-0.0401633
0.0405378
0.000297392
0.000345157
-0.0409255
0.0410448
0.000588585
0.000451199
-0.0405926
0.0407268
0.00049365
0.000622925
0.00080174
-0.000639857
0.0398133
-0.000300929
0.000153224
0.0408745
0.0406442
0.000789898
-0.000568444
0.0383457
0.0392808
0.000724988
-0.000873091
0.0373945
0.0376525
0.00100043
-0.00109917
0.0372168
0.0370635
0.00116373
-0.00119529
0.0378325
0.0373161
0.00119832
-0.000772222
0.0388443
0.0381929
0.000813583
-0.000868671
0.0399578
0.0397683
0.00141772
-0.000833302
0.0402834
0.0406413
0.0410436
-0.0408269
-0.000836172
-0.0407539
0.0408064
-0.000885798
-0.000679638
0.040808
-0.0405701
-0.00140413
-0.000809433
0.040616
-0.0406638
-0.00160876
-0.00149458
0.0407124
-0.0407633
-0.00181808
-0.00169996
0.0408153
-0.0408694
-0.00203006
-0.00190923
0.0409243
-0.0409811
-0.0022423
-0.00212017
0.0410384
-0.041097
-0.00245198
-0.00233015
0.0411555
-0.0412145
-0.00265585
-0.00253618
0.0412725
-0.04133
-0.00285009
-0.00273477
0.0413851
-0.0414381
-0.00303024
-0.00292181
0.0414872
-0.0415321
-0.00319108
-0.00309249
0.0415709
-0.041603
-0.00332664
-0.00324125
0.0416264
-0.0416399
-0.00343025
-0.00336177
0.0416417
-0.0416299
-0.00349484
-0.00344716
0.0416029
-0.0415584
-0.00351331
-0.00349027
0.0414948
-0.0414095
-0.00347922
-0.00348424
0.0413014
-0.0411674
-0.0033878
-0.00342333
0.0410074
-0.0408178
-0.00323704
-0.00330394
0.0405996
-0.0403495
-0.00302908
-0.00312594
0.0400695
-0.0397565
-0.00277134
-0.0028939
0.0394142
-0.03904
-0.00247738
-0.00261813
0.038639
-0.0382095
-0.0021672
-0.00231529
0.037758
-0.0372837
-0.00186637
-0.00200831
0.036794
-0.0362895
-0.00160506
-0.00172477
0.0357791
-0.035264
-0.0014146
-0.00149665
0.0347511
-0.0342422
-0.00132633
-0.00135306
0.0333981
-0.032533
-0.00136578
-0.00132708
0.0318558
-0.0309638
-0.00155992
-0.00143906