/*--------------------------------*- C++ -*----------------------------------*\
  =========                 |
  \\      /  F ield         | OpenFOAM: The Open Source CFD Toolbox
   \\    /   O peration     | Website:  https://openfoam.org
    \\  /    A nd           | Version:  10
     \\/     M anipulation  |
\*---------------------------------------------------------------------------*/
FoamFile
{
    format      ascii;
    class       volVectorField;
    location    "11.5";
    object      U;
}
// * * * * * * * * * * * * * * * * * * * * * * * * * * * * * * * * * * * * * //

dimensions      [0 1 -1 0 0 0 0];

internalField   nonuniform List<vector> 
28942
(
(-0.108307 0.0622472 -3.53874e-20)
(-0.108721 0.0659023 -7.39074e-21)
(0.446302 -0.313288 3.21028e-20)
(1.01583 0.0416096 -1.00279e-19)
(0.994196 0.0515459 3.30353e-20)
(0.31832 0.012635 0)
(0.389084 0.0367055 -4.71494e-22)
(0.432162 0.00913005 6.17772e-22)
(1.21626 -0.18008 1.27109e-21)
(1.20678 -0.166588 -2.30085e-21)
(-0.0993304 -0.103045 -1.02799e-19)
(-0.0598848 -0.111739 4.63561e-20)
(-0.087421 -0.0988196 0)
(-0.0960289 -0.0986725 0)
(0.823482 -0.0153708 4.33913e-24)
(0.8192 -0.0124709 -5.1949e-23)
(0.931723 0.111139 3.07809e-20)
(0.915358 0.0959285 4.93372e-20)
(0.314415 -0.425766 9.33846e-20)
(0.606759 -0.685366 -2.61701e-20)
(0.986857 0.259078 4.08341e-20)
(0.98801 0.242965 0)
(0.0242155 -0.0303539 9.58502e-20)
(-0.0632481 -0.0404765 5.30523e-20)
(0.583916 -0.148901 1.03787e-19)
(0.943398 -0.26553 -9.43349e-20)
(0.185097 -0.423131 4.78908e-19)
(0.191911 -0.350545 -1.8406e-19)
(0.715243 -0.520531 4.00404e-21)
(0.434819 -0.302891 6.16422e-22)
(0.317005 -0.0198495 0)
(0.415084 -0.0276073 1.19445e-21)
(0.5221 -0.0102808 9.73064e-21)
(0.690422 -0.0193403 3.74364e-22)
(0.442002 0.487328 2.64829e-20)
(0.371813 0.53931 -2.31841e-20)
(0.58891 0.710015 -1.25368e-19)
(0.381894 0.63929 -5.01468e-20)
(0.164107 0.015785 6.0322e-22)
(0.204692 0.492872 -7.93327e-20)
(0.657833 -0.059697 0)
(0.85678 -0.077738 0)
(1.29908 -0.229681 2.10287e-21)
(1.28474 -0.232092 -5.40909e-21)
(1.29455 -0.217755 -5.38736e-21)
(0.59661 0.0128197 -2.24301e-22)
(0.565559 0.0260316 3.40889e-22)
(0.733692 0.0139157 1.87995e-21)
(0.714502 0.0133761 -5.26891e-22)
(0.614992 0.0130753 -3.81037e-21)
(0.515423 0.00669496 2.49739e-21)
(1.17178 -0.0497824 6.48101e-21)
(1.16732 -0.0533247 4.6085e-21)
(1.21019 -0.193196 -1.12625e-22)
(1.1992 -0.179619 2.37108e-22)
(1.20738 -0.226265 8.59726e-20)
(1.44412 -0.318702 4.62663e-20)
(-0.0750956 -0.0696679 -6.23759e-20)
(-0.0749702 -0.0888838 0)
(-0.0671983 -0.0676313 2.26465e-20)
(-0.0684023 -0.057072 5.46927e-20)
(-0.0348343 -0.0296455 -4.35625e-20)
(-0.0354314 -0.0314491 -4.49448e-20)
(1.29726 -0.581489 0)
(1.42493 -0.51866 1.69185e-20)
(1.32713 -0.460447 -7.19526e-21)
(1.26676 -0.454485 0)
(0.926812 -0.225148 -2.85856e-20)
(0.945679 -0.246669 -1.85474e-20)
(-0.0632595 0.0418173 1.17679e-19)
(-0.0795024 0.0490725 -3.73799e-20)
(-0.106577 0.0743889 9.41209e-20)
(0.917695 -0.308361 0)
(0.936196 -0.273676 9.88357e-20)
(0.867036 -0.419383 2.58175e-20)
(1.40596 0.367878 4.24174e-20)
(1.43451 0.356708 -4.55505e-20)
(1.42946 0.321991 -3.10858e-20)
(0.137824 -0.0786063 1.40446e-21)
(0.19565 -0.12407 -3.67518e-20)
(0.956004 -0.605457 -5.34075e-21)
(0.699098 -0.481533 1.23602e-20)
(-0.0747126 0.0450221 2.00003e-19)
(-0.0805569 0.0476883 -7.69594e-20)
(1.23218 0.615698 -4.29639e-21)
(1.17441 0.587318 -1.80739e-20)
(1.06753 0.680349 1.32445e-20)
(0.915614 0.660367 -4.49845e-20)
(0.870338 0.628036 3.10853e-20)
(0.649362 0.451681 -6.92857e-22)
(0.71727 0.54505 -1.01864e-20)
(0.759802 0.631319 1.65534e-20)
(-0.157255 -0.0167565 -1.26231e-20)
(-0.142734 -0.0375989 -3.28924e-21)
(-0.11941 -0.0680409 6.58819e-21)
(-0.121081 -0.0445235 -8.78901e-20)
(-0.119052 -0.0173939 1.1133e-19)
(0.362582 0.288958 -5.86752e-20)
(0.411142 0.357503 1.21257e-20)
(-0.0289351 0.025657 0)
(1.00712 0.0041274 0)
(0.96513 0.0529865 -7.71434e-20)
(0.891215 0.135028 5.47242e-20)
(1.08124 0.117512 0)
(1.43974 0.145316 0)
(1.44507 0.142739 0)
(1.45832 0.15258 8.28699e-20)
(1.08534 0.196062 -6.17095e-21)
(1.08147 0.207596 6.66467e-20)
(1.07474 0.184807 3.48092e-20)
(-0.078113 -0.0762354 1.24152e-19)
(-0.0772002 -0.0761673 -1.3931e-19)
(-0.0255654 0.050517 -6.30469e-20)
(-0.0530028 0.0577373 5.92838e-20)
(-0.109273 0.067291 1.18772e-19)
(0.166608 0.256209 8.09162e-20)
(0.38326 0.25496 1.97724e-19)
(0.293723 0.474348 1.56472e-20)
(0.131239 0.369467 -4.70469e-19)
(1.25744 0.49464 1.39179e-21)
(1.11909 0.470742 3.17189e-20)
(1.15792 0.455886 -5.46867e-20)
(0.788172 -0.61421 1.3199e-20)
(0.535519 -0.390974 -5.98058e-21)
(0.160261 0.0123389 -2.43814e-19)
(0.145557 -0.0642321 0)
(0.306888 -0.0294034 1.31251e-19)
(0.499701 -0.385028 1.55458e-20)
(0.712405 -0.603704 -3.54486e-20)
(0.702383 0.0156564 -2.06455e-21)
(0.737072 0.0139546 7.77162e-22)
(0.660004 0.0140919 6.23983e-23)
(0.495356 -0.741525 0)
(0.523028 -0.576323 0)
(1.06256 -0.132294 -1.17183e-20)
(1.04883 -0.11356 6.67057e-20)
(1.03252 -0.0809565 0)
(0.809576 -0.714193 0)
(0.81191 -0.657995 -3.12298e-20)
(0.738779 0.741676 7.79223e-20)
(-0.0619881 -0.0484748 7.90996e-20)
(-0.0573138 -0.0495399 -5.79249e-20)
(0.540168 -0.497805 -1.77581e-20)
(1.2968 -0.201532 -3.39631e-20)
(1.28748 -0.200082 5.49705e-21)
(1.4252 -0.263477 -1.3612e-20)
(1.42276 -0.246554 1.82044e-20)
(1.435 -0.233374 6.33271e-20)
(-0.0576851 -0.0517713 2.78706e-20)
(0.844902 0.713839 9.30808e-20)
(0.976861 0.696183 -2.79695e-20)
(1.04426 0.727795 4.72893e-23)
(0.493711 -0.0135255 -2.96826e-22)
(0.492349 -0.0149691 -2.61377e-21)
(0.539837 -0.018832 -2.63626e-22)
(0.584452 -0.01786 7.03347e-22)
(0.79597 0.71024 1.69615e-20)
(0.429402 0.415182 0)
(-0.0624411 0.0774567 6.36945e-20)
(-0.0697256 0.0817388 -7.05849e-20)
(-0.115029 0.130546 5.42091e-20)
(0.410595 0.0801398 -1.41444e-19)
(0.933274 0.260086 -6.8676e-20)
(0.65819 -0.0185011 3.28725e-22)
(1.20011 -0.445019 1.96038e-20)
(1.16193 -0.521496 4.66767e-20)
(0.967852 0.283564 9.52506e-20)
(0.949802 0.321454 7.75801e-21)
(0.928718 0.200043 5.46756e-20)
(0.94584 0.206832 -3.94948e-20)
(0.992487 0.285183 0)
(1.15652 0.0495048 -1.22225e-21)
(1.16257 0.0470403 -3.56803e-21)
(1.16797 -0.128597 -5.68682e-23)
(1.17917 -0.133653 -6.13404e-22)
(1.09824 0.185893 6.64823e-21)
(1.11145 0.195641 -1.84456e-20)
(1.09831 0.196986 0)
(1.08537 0.185253 4.48529e-21)
(1.0958 0.208059 0)
(1.09883 0.264316 -1.72588e-20)
(1.09196 0.277824 -1.01686e-20)
(1.06845 0.30106 -1.98139e-20)
(1.08172 0.290338 0)
(1.10151 0.312416 6.02572e-20)
(1.08443 0.32594 2.87974e-21)
(1.05174 0.317222 -1.20698e-20)
(0.998535 0.371997 -5.37552e-20)
(0.997977 0.312624 -9.48924e-21)
(0.0222974 0.164657 3.60796e-20)
(0.120031 0.155774 -1.4014e-20)
(-0.105119 0.0969264 -8.72188e-20)
(0.637812 0.0126147 2.09408e-21)
(0.770457 0.0134735 0)
(-0.0258438 0.0226218 7.19475e-20)
(-0.0235249 0.0180298 3.56342e-20)
(0.722914 0.0146377 1.40471e-22)
(0.808629 0.0142341 1.69724e-23)
(0.802915 0.0146695 0)
(0.710054 0.0170164 -7.62993e-23)
(0.911757 0.203079 -5.53417e-21)
(0.875509 0.19941 2.73854e-20)
(0.902026 0.192987 1.26239e-20)
(-0.072817 -0.0718356 5.30439e-20)
(-0.0314496 -0.0301578 -6.75981e-20)
(-0.0365504 -0.034536 6.40106e-20)
(-0.0558382 -0.0406252 0)
(-0.0255497 -0.0164915 9.33498e-20)
(-0.025476 -0.019131 -8.08073e-20)
(-0.0615157 -0.0152414 -8.38695e-20)
(-0.0871361 -0.0359199 -8.52131e-20)
(-0.0513387 -0.0238713 0)
(0.0565943 0.240827 0)
(0.025832 0.143172 0)
(0.00975648 0.0815881 0)
(1.42885 0.133035 -1.21474e-20)
(1.41415 0.117991 0)
(1.43356 0.125445 1.35525e-20)
(0.921645 -0.0906598 2.00357e-19)
(0.935407 -0.0981035 -7.27534e-20)
(0.932358 -0.0790356 0)
(0.873416 -0.0212268 -2.37785e-22)
(0.884598 -0.0273083 4.72494e-22)
(0.861688 -0.0142482 -1.64876e-22)
(0.895529 -0.0330128 0)
(0.905928 -0.0379798 -2.93415e-22)
(0.915277 -0.0420807 0)
(0.942076 -0.0529299 0)
(0.925158 -0.0461927 1.01048e-21)
(0.952697 -0.0565444 0)
(0.932342 -0.0492924 -2.86362e-22)
(0.920719 -0.0446598 0)
(0.909087 -0.0395473 1.52495e-22)
(0.896899 -0.0339459 -2.34446e-22)
(0.884113 -0.0276621 1.64651e-22)
(0.935034 -0.0498418 -9.66795e-22)
(0.962625 -0.0594577 -3.27042e-23)
(0.849871 -0.00676778 -2.01575e-24)
(0.869719 -0.0202362 -2.57506e-22)
(0.837933 0.00100997 1.44259e-21)
(0.943473 -0.0525356 8.78921e-25)
(0.971117 -0.0615421 -3.13909e-23)
(0.856241 -0.0128535 5.16052e-22)
(0.951516 -0.0547405 8.53764e-22)
(0.958958 -0.0564362 -8.5305e-22)
(0.978891 -0.0631323 6.45666e-23)
(0.985909 -0.0642213 1.22887e-22)
(0.826333 0.00974629 -1.40366e-21)
(0.842246 -0.00485937 -3.42415e-22)
(0.965972 -0.0576827 0)
(0.992359 -0.0648653 -1.21196e-22)
(0.814718 0.0182164 1.77915e-25)
(0.827322 0.00389234 -1.7837e-25)
(0.972446 -0.0584666 0)
(0.998165 -0.0650753 0)
(0.803344 0.0272629 0)
(0.812605 0.012907 0)
(0.978527 -0.0588509 0)
(1.00348 -0.0649134 5.501e-23)
(0.792228 0.0364743 -8.09091e-22)
(0.79755 0.0223467 -1.92006e-25)
(0.984123 -0.0588374 2.8591e-24)
(1.00824 -0.064389 -5.87202e-23)
(0.781475 0.0459009 8.12934e-22)
(0.782612 0.0320152 0)
(0.989342 -0.0584776 0)
(1.01256 -0.0635606 0)
(0.771102 0.0554638 -5.27528e-23)
(0.767667 0.0418968 9.04665e-22)
(0.994195 -0.057796 3.35853e-22)
(1.01643 -0.0624309 0)
(0.761133 0.0650607 -8.59076e-24)
(0.752907 0.0517915 -8.56224e-22)
(0.998623 -0.0567942 -4.9885e-22)
(1.0199 -0.06105 -1.43448e-22)
(0.750545 0.0745172 9.21112e-22)
(0.737979 0.0618292 0)
(1.00298 -0.0555804 1.61987e-22)
(1.02309 -0.0594188 9.53791e-23)
(0.741331 0.084242 -4.77773e-22)
(0.723576 0.0716424 9.55204e-22)
(1.00655 -0.0539771 -6.26671e-22)
(1.02551 -0.0574702 7.05977e-22)
(0.730144 0.0934287 5.12676e-22)
(0.708636 0.0814583 1.59761e-23)
(1.01005 -0.0522014 0)
(1.0274 -0.0553015 3.29474e-22)
(0.720458 0.102885 -1.03816e-21)
(0.694172 0.0909126 2.05236e-21)
(1.01376 -0.0501156 0)
(1.02963 -0.0530605 0)
(0.773756 0.100242 -5.07278e-22)
(0.767468 0.10966 -2.11772e-21)
(0.709129 0.111879 0)
(0.678991 0.0997534 -1.05704e-21)
(0.786133 0.0815379 -3.08224e-22)
(0.780661 0.0910508 6.0975e-23)
(0.797554 0.0632083 0)
(0.79188 0.0724659 -9.60599e-22)
(0.80997 0.0452327 -1.71679e-24)
(0.803523 0.0541626 0)
(0.824369 0.0278792 0)
(0.816904 0.0365244 0)
(0.840407 0.0112933 0)
(0.832238 0.0198153 0)
(0.857446 -0.00348218 3.31924e-22)
(0.848883 0.003868 8.59561e-23)
(0.87578 -0.0165714 -3.12246e-22)
(0.866765 -0.0104342 -3.37484e-22)
(0.893824 -0.0278207 5.16392e-22)
(0.884741 -0.0226172 6.85526e-22)
(0.911144 -0.036641 0)
(0.902439 -0.0323261 0)
(0.927867 -0.0436738 -2.09183e-24)
(0.919672 -0.0404591 0)
(0.94322 -0.0484961 0)
(0.935728 -0.0463354 0)
(0.957156 -0.0514087 0)
(0.950359 -0.0501785 0)
(0.969763 -0.0525942 0)
(0.963617 -0.0522013 0)
(0.98115 -0.0522635 0)
(0.975582 -0.0525945 0)
(0.991494 -0.0506344 0)
(0.986384 -0.051564 0)
(1.00116 -0.0478864 -2.4599e-22)
(0.996214 -0.0492867 0)
(1.00574 -0.0460953 -7.62184e-23)
(1.01748 -0.0479513 7.53632e-23)
(1.03204 -0.050697 -7.47334e-23)
(1.04703 -0.0597639 0)
(1.0494 -0.0549832 -3.11798e-22)
(1.0482 -0.0574371 -1.65807e-22)
(1.04329 -0.0639164 4.83677e-23)
(1.04521 -0.0619112 -1.84803e-22)
(1.03781 -0.0671963 1.62006e-24)
(1.04069 -0.065657 0)
(1.03063 -0.0695028 0)
(1.03444 -0.0684808 0)
(1.02141 -0.07059 0)
(1.0263 -0.0702147 0)
(1.00978 -0.070157 0)
(1.01592 -0.0705839 2.3289e-28)
(0.995369 -0.0679087 2.06993e-24)
(1.00294 -0.0692699 0)
(0.977485 -0.0634779 0)
(0.986965 -0.066045 0)
(0.956504 -0.056636 0)
(0.967723 -0.0604351 0)
(0.932537 -0.0472976 0)
(0.944649 -0.0521738 -1.5395e-22)
(0.90463 -0.0351749 4.64362e-23)
(0.919754 -0.0418681 -2.03287e-22)
(0.875355 -0.0211173 0)
(0.890806 -0.0285509 -1.72137e-22)
(0.842132 -0.00427508 0)
(0.858965 -0.0129287 0)
(0.806831 0.0143449 0)
(0.824687 0.00484728 0)
(0.770026 0.0340803 0)
(0.788586 0.0241229 0)
(0.732401 0.0541353 -2.43814e-22)
(0.751203 0.0442074 0)
(0.694671 0.07354 -1.03745e-21)
(0.713473 0.0640764 -2.44104e-22)
(0.675422 0.0825364 1.08063e-21)
(0.760248 0.118928 2.11742e-21)
(1.01024 -0.0441368 1.47292e-22)
(1.05064 -0.0524141 -2.86755e-22)
(0.663195 0.108271 0)
(0.655996 0.0909841 0)
(0.75269 0.128066 0)
(0.697473 0.120487 0)
(0.829208 0.103059 0)
(0.821728 0.122233 5.17306e-22)
(0.82564 0.112531 5.16921e-22)
(0.83486 0.084513 6.33326e-22)
(0.832412 0.0936666 -1.27919e-22)
(0.838681 0.066826 1.87001e-24)
(0.836721 0.0755303 0)
(0.843761 0.0499302 0)
(0.840988 0.0583099 0)
(0.850882 0.0337155 0)
(0.847042 0.0417571 0)
(0.860102 0.0184145 0)
(0.855241 0.0260029 0)
(0.871308 0.00410702 0)
(0.865669 0.0111885 0)
(0.884316 -0.00847819 -1.30081e-24)
(0.877647 -0.00237646 3.44023e-22)
(0.898016 -0.0195844 -1.19724e-24)
(0.89104 -0.0144249 -6.3867e-22)
(0.912293 -0.0287076 0)
(0.905121 -0.0243407 0)
(0.926631 -0.0360127 1.0477e-24)
(0.919473 -0.0326104 0)
(0.940653 -0.0413144 0)
(0.933709 -0.0389041 0)
(0.954051 -0.0447505 0)
(0.947438 -0.0432556 0)
(0.966729 -0.0464556 0)
(0.96048 -0.0458069 0)
(0.978661 -0.0465984 0)
(0.972775 -0.0467057 0)
(0.989889 -0.0453623 0)
(0.984329 -0.0461336 0)
(1.00057 -0.0429883 1.68419e-22)
(0.995245 -0.0442813 0)
(1.02096 -0.0455766 0)
(1.01455 -0.0419144 1.36607e-22)
(1.01081 -0.0396214 0)
(1.0057 -0.0414292 1.60027e-22)
(1.07051 -0.0559988 3.27871e-22)
(1.07084 -0.0532899 7.77813e-23)
(1.05188 -0.0497754 6.03471e-22)
(1.03424 -0.0481627 0)
(1.06978 -0.0611457 0)
(1.07022 -0.0586408 -4.96706e-22)
(1.06766 -0.0657931 1.5045e-24)
(1.06859 -0.0635205 1.85946e-22)
(1.06399 -0.0698125 -1.62005e-24)
(1.06584 -0.0678832 0)
(1.05883 -0.0730389 0)
(1.06159 -0.071538 0)
(1.05178 -0.0752284 0)
(1.05556 -0.07428 0)
(1.04243 -0.0760904 0)
(1.04742 -0.0758454 -2.3289e-28)
(1.0304 -0.0753196 -4.10609e-24)
(1.03678 -0.0759252 0)
(1.01529 -0.0726345 0)
(1.02327 -0.0742392 0)
(0.996741 -0.067681 7.45787e-23)
(1.0065 -0.0704456 0)
(0.97443 -0.060136 0)
(0.985745 -0.0641531 -7.42609e-23)
(0.948106 -0.0500125 1.68235e-22)
(0.962003 -0.0554768 1.63965e-22)
(0.918278 -0.037296 0)
(0.934047 -0.0440452 0)
(0.884537 -0.022071 0)
(0.90193 -0.0299916 0)
(0.847374 -0.00473574 0)
(0.866362 -0.013635 0)
(0.80738 0.0140653 0)
(0.827696 0.00452734 0)
(0.765219 0.0334758 3.63075e-24)
(0.786522 0.0237611 0)
(0.721378 0.0525101 -3.89184e-24)
(0.743499 0.0431027 0)
(0.67663 0.0697632 -1.07832e-21)
(0.699154 0.0613726 1.07772e-21)
(0.81695 0.132075 1.08667e-21)
(0.636256 0.0985631 0)
(0.653981 0.077139 -2.30141e-21)
(0.64732 0.116217 0)
(1.01578 -0.0375274 0)
(1.07113 -0.0505067 -7.38913e-23)
(0.744742 0.136929 2.83445e-21)
(0.8115 0.141931 1.13455e-21)
(0.615696 0.105466 6.17686e-22)
(0.630702 0.0838347 2.92093e-21)
(0.685618 0.128818 0)
(1.01951 -0.0344682 5.97292e-22)
(1.0247 -0.0325672 -2.91085e-22)
(1.05265 -0.0470537 -1.43473e-22)
(1.07085 -0.0476651 7.07201e-22)
(0.875213 0.144774 3.88728e-21)
(0.805934 0.151745 -2.22078e-21)
(0.866499 0.16636 -9.68217e-21)
(0.87063 0.155524 -2.2179e-21)
(0.882255 0.123626 1.03606e-21)
(0.879299 0.134137 -3.27927e-21)
(0.885523 0.103579 -1.0552e-21)
(0.884367 0.113422 -8.17454e-22)
(0.887116 0.0849163 -2.52545e-22)
(0.8867 0.0940605 -2.54377e-22)
(0.88713 0.06762 -1.87001e-24)
(0.887157 0.0761042 0)
(0.887628 0.0514389 0)
(0.887247 0.0594109 0)
(0.889522 0.0362324 0)
(0.888368 0.043728 0)
(0.893269 0.0220095 0)
(0.891155 0.0290156 0)
(0.899119 0.00885091 0)
(0.895953 0.0152781 0)
(0.906946 -0.00305827 0)
(0.902817 0.0027081 0)
(0.916416 -0.0135249 -1.49096e-28)
(0.911491 -0.00848226 0)
(0.92708 -0.0223351 0)
(0.921631 -0.0181369 0)
(0.938558 -0.0294607 1.04716e-24)
(0.932738 -0.0261146 0)
(0.95051 -0.0348041 0)
(0.944502 -0.0323534 0)
(0.962584 -0.0384004 0)
(0.956549 -0.0368142 0)
(0.974562 -0.0403335 0)
(0.968593 -0.0395661 0)
(0.986304 -0.0407294 0)
(0.980459 -0.0407131 0)
(0.997736 -0.0397464 0)
(0.992031 -0.0404042 0)
(1.00878 -0.037619 8.43374e-23)
(1.00328 -0.0388171 -4.28953e-23)
(1.01411 -0.0361945 -3.08673e-22)
(1.02417 -0.0430628 -6.67988e-23)
(1.02067 -0.0352551 2.69903e-22)
(1.01868 -0.0395613 -2.1548e-22)
(1.03633 -0.0455506 0)
(1.09068 -0.0562458 -2.37082e-22)
(1.08974 -0.0505266 -6.61614e-22)
(1.09033 -0.0534201 5.45881e-22)
(1.09121 -0.0617003 0)
(1.09106 -0.0590206 0)
(1.09039 -0.0668011 -1.93048e-26)
(1.0907 -0.0642952 0)
(1.08849 -0.0714761 0)
(1.0895 -0.0692139 0)
(1.08531 -0.0755189 -1.68257e-24)
(1.08706 -0.0735942 0)
(1.08048 -0.0787005 0)
(1.08312 -0.0772346 0)
(1.07365 -0.0807528 0)
(1.07735 -0.0798865 0)
(1.0644 -0.0813833 2.03657e-24)
(1.06936 -0.0812645 0)
(1.05231 -0.0802802 2.11432e-24)
(1.05875 -0.0810687 0)
(1.03695 -0.0771311 0)
(1.04507 -0.0789796 0)
(1.01789 -0.0716192 0)
(1.0279 -0.074691 0)
(0.994742 -0.0635921 0)
(1.00685 -0.067929 0)
(0.967331 -0.0529127 0)
(0.981625 -0.0585668 0)
(0.935568 -0.0396958 -2.82604e-24)
(0.952021 -0.0466048 0)
(0.899555 -0.0242235 0)
(0.918091 -0.0322142 0)
(0.85962 -0.00702394 0)
(0.880056 -0.015799 0)
(0.816281 0.0111264 -1.43744e-25)
(0.838346 0.00198757 0)
(0.770129 0.0292372 1.54695e-25)
(0.793525 0.0202619 0)
(0.722102 0.0459576 4.09253e-24)
(0.746162 0.0379024 0)
(0.672875 0.0598176 -2.33953e-21)
(0.697499 0.0533685 5.44049e-22)
(0.606921 0.0899044 6.03205e-22)
(0.64794 0.0654358 1.15718e-21)
(0.736604 0.145727 -1.10102e-21)
(0.630133 0.123331 -1.17463e-21)
(1.02991 -0.0304241 6.78228e-23)
(1.08904 -0.0476314 5.17548e-22)
(0.797532 0.161449 1.16889e-22)
(0.594822 0.111503 0)
(0.855304 0.18106 1.52249e-20)
(0.622544 0.0700902 1.89491e-21)
(0.583238 0.0949 2.55595e-21)
(0.925961 0.192224 -2.34451e-20)
(0.935803 0.204403 4.15982e-21)
(0.673482 0.136556 0)
(0.923059 0.169878 2.40227e-21)
(0.925027 0.181578 1.24402e-21)
(0.928546 0.146798 2.19526e-21)
(0.924954 0.158278 -3.31174e-21)
(0.934225 0.124439 -1.06747e-21)
(0.932075 0.13551 -5.26247e-22)
(0.936158 0.103504 5.19962e-22)
(0.935539 0.113732 5.41782e-22)
(0.936411 0.0844003 0)
(0.936539 0.0937473 -4.97715e-25)
(0.935386 0.0670455 0)
(0.935995 0.0755314 0)
(0.934117 0.0511468 1.71496e-24)
(0.93473 0.0589243 0)
(0.933406 0.0365882 0)
(0.933656 0.0437128 0)
(0.933872 0.0232546 0)
(0.933466 0.0297794 0)
(0.935967 0.0111012 0)
(0.934703 0.0170297 0)
(0.939903 0.000176229 1.30166e-24)
(0.93771 0.00547479 0)
(0.945631 -0.00943879 8.77712e-27)
(0.942553 -0.00480118 0)
(0.952953 -0.0176013 0)
(0.949116 -0.0137061 0)
(0.961571 -0.0242405 -2.08535e-24)
(0.957121 -0.0211144 0)
(0.971188 -0.0292827 0)
(0.966279 -0.026962 0)
(0.981482 -0.0327223 0)
(0.976271 -0.0311987 0)
(0.992188 -0.0346106 0)
(0.986797 -0.033854 0)
(1.00309 -0.0350424 0)
(0.997617 -0.0350007 0)
(1.01404 -0.034153 0)
(1.00853 -0.0347597 0)
(1.02485 -0.0321339 -4.16801e-23)
(1.01938 -0.0332957 0)
(1.03537 -0.0291401 0)
(1.03004 -0.0307687 -7.73477e-23)
(1.0454 -0.0254045 -1.25942e-24)
(1.04045 -0.0273524 0)
(1.02534 -0.032876 -2.73716e-22)
(1.05047 -0.023213 1.55903e-23)
(1.035 -0.0281196 1.28346e-22)
(1.02724 -0.0404897 9.95825e-23)
(1.02272 -0.0370743 -6.85405e-23)
(1.05358 -0.0443097 -3.50296e-23)
(1.03825 -0.0428924 3.5336e-23)
(1.08855 -0.0447313 0)
(1.07104 -0.0448401 -3.2901e-22)
(1.10639 -0.0500182 -1.48509e-22)
(1.10447 -0.0441513 -2.7885e-22)
(1.10549 -0.0470825 6.31249e-22)
(1.10826 -0.0558686 -8.113e-23)
(1.10752 -0.052955 0)
(1.10952 -0.0615806 0)
(1.10907 -0.058744 0)
(1.10996 -0.0670794 -2.48059e-26)
(1.10982 -0.0643667 0)
(1.1096 -0.0722752 0)
(1.10988 -0.069735 0)
(1.10822 -0.0769802 1.68257e-24)
(1.10905 -0.0747049 0)
(1.10554 -0.0809867 0)
(1.10706 -0.0790865 0)
(1.10122 -0.0840527 0)
(1.10361 -0.0826539 0)
(1.09489 -0.0859083 0)
(1.09834 -0.08515 0)
(1.08611 -0.0862508 -4.45719e-26)
(1.09084 -0.086288 0)
(1.07443 -0.0847774 0)
(1.08067 -0.0857612 0)
(1.05933 -0.0811847 0)
(1.06734 -0.0832619 0)
(1.04038 -0.0752398 0)
(1.05037 -0.0785209 0)
(1.01718 -0.0667997 0)
(1.02934 -0.071336 0)
(0.989457 -0.0558615 2.82604e-24)
(1.00391 -0.0616336 0)
(0.957105 -0.0426225 0)
(0.973868 -0.0495088 0)
(0.920223 -0.0275121 0)
(0.939223 -0.0352661 0)
(0.879135 -0.0111877 -3.48661e-24)
(0.900184 -0.0194516 0)
(0.834372 0.00545636 3.75607e-24)
(0.857183 -0.00284138 0)
(0.786567 0.0212899 -4.04627e-24)
(0.810806 0.013551 0)
(0.73705 0.0348102 5.4398e-22)
(0.761685 0.0285208 -1.07573e-21)
(0.687124 0.0444203 -5.61892e-22)
(0.711807 0.0402631 1.19562e-21)
(0.596528 0.0737226 6.62779e-23)
(0.661094 0.0479225 1.24455e-21)
(0.726029 0.154099 -1.15863e-21)
(0.613784 0.129847 0)
(0.788787 0.171617 -1.10002e-20)
(0.574078 0.117329 0)
(1.06551 -0.020451 -6.34122e-23)
(1.07017 -0.0183892 4.62681e-23)
(1.0878 -0.0418477 -2.60876e-22)
(1.10326 -0.041199 -2.93192e-22)
(0.826366 0.189273 -1.02573e-20)
(0.558878 0.0986974 -2.58112e-21)
(0.916544 0.213736 0)
(0.968678 0.198682 -2.4973e-21)
(0.570529 0.0760465 -1.24573e-21)
(0.63519 0.0501518 1.93393e-21)
(0.968392 0.211457 5.09173e-21)
(0.660712 0.143906 0)
(0.968202 0.174071 0)
(0.968494 0.18659 -2.27971e-21)
(0.972311 0.149165 0)
(0.96987 0.161508 0)
(0.976475 0.125615 0)
(0.974754 0.137198 5.4521e-22)
(0.978329 0.103953 0)
(0.977629 0.114537 0)
(0.978867 0.0842109 0)
(0.978742 0.093832 0)
(0.978405 0.066416 0)
(0.978749 0.0750834 0)
(0.97734 0.0504136 -1.71496e-24)
(0.977919 0.0581979 0)
(0.976223 0.0360908 0)
(0.97676 0.0430537 0)
(0.975597 0.0232908 0)
(0.975822 0.0295114 0)
(0.975957 0.0118826 0)
(0.975632 0.0174192 0)
(0.977673 0.00180892 -2.04181e-26)
(0.976635 0.00668003 0)
(0.980919 -0.00694052 1.7827e-26)
(0.979106 -0.00273158 0)
(0.985709 -0.0143252 0)
(0.98313 -0.0108052 0)
(0.991925 -0.0203031 1.51833e-26)
(0.988654 -0.0174913 0)
(0.999371 -0.0248292 0)
(0.995514 -0.0227481 0)
(1.0078 -0.0278946 0)
(1.00348 -0.0265414 0)
(1.01694 -0.0295375 0)
(1.0123 -0.0288884 0)
(1.02658 -0.0298366 0)
(1.02171 -0.0298471 0)
(1.03648 -0.0289127 0)
(1.03149 -0.0295188 0)
(1.04648 -0.0269063 0)
(1.04142 -0.028045 0)
(1.05618 -0.0240462 7.3236e-23)
(1.0513 -0.0255859 7.85257e-23)
(1.06091 -0.0223231 -1.36218e-22)
(1.02988 -0.0303885 -1.30239e-22)
(1.05563 -0.0208506 0)
(1.03995 -0.0256913 -1.29856e-22)
(1.03017 -0.0378443 0)
(1.02653 -0.0345219 1.32934e-22)
(1.05425 -0.041546 2.0583e-22)
(1.04003 -0.0401991 -6.94073e-23)
(1.07083 -0.042012 -4.08136e-22)
(1.1199 -0.0491418 7.25853e-23)
(1.11741 -0.043213 2.54704e-22)
(1.11903 -0.0461717 0)
(1.12226 -0.0550739 -1.56412e-22)
(1.12133 -0.0520966 1.56942e-22)
(1.12413 -0.0609612 0)
(1.12337 -0.0580156 0)
(1.12556 -0.0667493 -2.95914e-26)
(1.12494 -0.0638729 0)
(1.12646 -0.0723179 0)
(1.1261 -0.0695712 0)
(1.12664 -0.0775122 0)
(1.12665 -0.0749735 0)
(1.12588 -0.0821487 0)
(1.1264 -0.0799132 0)
(1.12391 -0.0860137 0)
(1.12507 -0.0841921 0)
(1.12038 -0.0888651 1.91722e-24)
(1.12237 -0.0875824 0)
(1.11489 -0.0904285 -2.06975e-24)
(1.11791 -0.0898255 0)
(1.10698 -0.0904151 0)
(1.11127 -0.0906375 0)
(1.09616 -0.0885391 0)
(1.10197 -0.0897254 0)
(1.08192 -0.0845481 0)
(1.08951 -0.0868226 0)
(1.06378 -0.0782662 0)
(1.07337 -0.0817021 0)
(1.04135 -0.0696289 0)
(1.05313 -0.0742398 0)
(1.01434 -0.0587448 0)
(1.02843 -0.0644535 0)
(0.982683 -0.0459351 -2.99262e-24)
(0.999099 -0.0525525 0)
(0.946505 -0.0317552 3.20381e-24)
(0.965149 -0.0389738 0)
(0.90619 -0.0169825 -3.44179e-24)
(0.92684 -0.0243891 0)
(0.862325 -0.00259936 0)
(0.884667 -0.00967449 0)
(0.815738 0.0101992 0)
(0.839296 0.00408571 0)
(0.767973 0.0198501 4.35126e-24)
(0.791727 0.0155887 5.59387e-22)
(0.719516 0.0253151 -3.13297e-21)
(0.743442 0.0231943 0)
(0.610276 0.0505251 -1.89875e-21)
(0.696113 0.0259306 -7.40359e-23)
(0.714741 0.162023 3.60871e-21)
(0.597414 0.135807 0)
(1.07471 -0.016231 -2.34616e-22)
(1.11618 -0.0402394 -5.00119e-22)
(0.764773 0.178289 -1.86539e-21)
(0.877337 0.211024 -1.32969e-22)
(0.820166 0.19881 5.04894e-21)
(0.553249 0.121827 0)
(0.533826 0.101826 6.63216e-22)
(0.953853 0.224478 -4.46043e-21)
(0.93386 0.230926 3.87065e-21)
(0.886063 0.222638 -4.20589e-21)
(0.544216 0.0769226 -1.97339e-21)
(0.584704 0.0496425 1.336e-21)
(0.674147 0.0248161 1.19934e-21)
(0.647399 0.150504 0)
(1.00542 0.202772 1.30459e-22)
(0.995955 0.229312 2.25594e-22)
(1.00261 0.21614 9.94252e-22)
(1.00597 0.176765 1.06197e-21)
(1.0061 0.189787 -1.06808e-21)
(1.00802 0.15095 1.96009e-24)
(1.00677 0.163796 0)
(1.01067 0.12683 0)
(1.00944 0.138618 0)
(1.01242 0.104679 0)
(1.01165 0.115522 0)
(1.0135 0.0844533 0)
(1.01303 0.0943157 0)
(1.014 0.0662491 1.70395e-24)
(1.01383 0.0751011 0)
(1.01399 0.0500191 0)
(1.01405 0.0578923 0)
(1.01373 0.0356797 0)
(1.01388 0.0426214 0)
(1.01355 0.0230975 0)
(1.01361 0.0291791 0)
(1.01382 0.0121266 0)
(1.01361 0.0174194 0)
(1.0149 0.00265078 -1.28124e-24)
(1.01425 0.00720821 0)
(1.01706 -0.00539949 2.59972e-26)
(1.01584 -0.0015464 0)
(1.02043 -0.012074 0)
(1.01859 -0.008907 0)
(1.02505 -0.0173832 2.02517e-24)
(1.02259 -0.0148977 0)
(1.03083 -0.0213295 0)
(1.02781 -0.0195253 0)
(1.03764 -0.0239275 0)
(1.03412 -0.0227936 0)
(1.04525 -0.0252227 0)
(1.04136 -0.0247325 0)
(1.05345 -0.0252931 0)
(1.04929 -0.0254032 0)
(1.06201 -0.0242523 0)
(1.0577 -0.0249017 0)
(1.07071 -0.0222456 1.23392e-24)
(1.06636 -0.0233569 0)
(1.07932 -0.0194372 -7.35532e-23)
(1.07509 -0.020926 0)
(1.08745 -0.0160141 6.75002e-23)
(1.08348 -0.0177871 0)
(1.0952 -0.0121306 5.88138e-23)
(1.0914 -0.0141258 -6.29452e-23)
(1.0602 -0.0185249 1.17645e-22)
(1.09898 -0.0100408 0)
(1.07918 -0.0139594 1.74718e-22)
(1.03423 -0.0278164 0)
(1.04461 -0.0232475 0)
(1.033 -0.0351699 0)
(1.03026 -0.0318729 0)
(1.0551 -0.0388027 0)
(1.04184 -0.0374919 0)
(1.08718 -0.0389945 2.65902e-22)
(1.07089 -0.0392242 6.4956e-23)
(1.11492 -0.0373503 6.26623e-23)
(1.10223 -0.0383118 5.11166e-22)
(1.12728 -0.0420704 3.37566e-22)
(1.12459 -0.0362651 5.99826e-23)
(1.12586 -0.0391547 -1.26737e-22)
(1.12993 -0.048017 6.96681e-23)
(1.12865 -0.0450297 -4.20508e-22)
(1.13247 -0.053984 -2.78429e-26)
(1.13128 -0.050983 0)
(1.1348 -0.0599753 0)
(1.13367 -0.0569681 0)
(1.13695 -0.0659273 -3.35452e-26)
(1.13592 -0.0629584 0)
(1.13884 -0.0717264 0)
(1.13795 -0.0688523 0)
(1.14032 -0.0772403 0)
(1.13965 -0.0745278 0)
(1.14122 -0.0823109 0)
(1.14086 -0.0798416 0)
(1.1413 -0.0867534 0)
(1.14138 -0.0846229 0)
(1.14028 -0.0903554 -3.78732e-24)
(1.14095 -0.0886735 0)
(1.1378 -0.0928755 0)
(1.13925 -0.0917662 0)
(1.13345 -0.0940512 0)
(1.13589 -0.093648 0)
(1.12677 -0.093617 0)
(1.13044 -0.0940507 0)
(1.11724 -0.0913255 0)
(1.1224 -0.0927173 0)
(1.10438 -0.0869814 -2.42292e-24)
(1.11126 -0.0894193 0)
(1.0877 -0.0804815 0)
(1.09654 -0.0840026 0)
(1.06685 -0.0718628 0)
(1.07782 -0.0764281 0)
(1.0416 -0.0613485 2.99262e-24)
(1.05478 -0.0668211 0)
(1.01193 -0.049379 -1.33091e-25)
(1.02731 -0.0555102 0)
(0.978075 -0.036619 6.73132e-24)
(0.99551 -0.04305 0)
(0.940502 -0.0239327 0)
(0.959723 -0.0302076 0)
(0.899972 -0.0123633 0)
(0.920556 -0.0179395 0)
(0.857402 -0.0029645 -2.04772e-25)
(0.878866 -0.00731921 0)
(0.813945 0.00279807 0)
(0.835677 0.000434152 0)
(0.773551 0.00342448 -1.86478e-21)
(0.792998 0.00387504 0)
(0.651615 0.0226772 -6.26177e-23)
(0.754604 0.0016072 3.228e-21)
(0.698457 0.168149 0)
(0.987083 0.241074 5.91607e-21)
(0.756685 0.187924 1.27044e-21)
(1.11495 -0.00870771 -5.87123e-23)
(1.11813 -0.00677331 0)
(1.11366 -0.0345014 5.89377e-23)
(1.12313 -0.0334233 -1.18655e-22)
(0.580589 0.141029 0)
(0.531621 0.125485 0)
(0.814883 0.209944 0)
(0.508556 0.10322 -6.53176e-22)
(0.517575 0.0760895 -1.32222e-21)
(0.559944 0.0469355 0)
(0.629581 0.0189636 3.40156e-21)
(0.735529 -0.00138022 -2.62023e-21)
(0.633078 0.156272 0)
(1.0329 0.231373 -4.51643e-25)
(0.978897 0.252531 1.6086e-21)
(1.02617 0.25739 -5.36528e-21)
(1.02956 0.244592 1.76064e-21)
(1.0359 0.203902 -5.9431e-22)
(1.03462 0.217521 -9.85508e-22)
(1.03579 0.177693 0)
(1.03619 0.190731 0)
(1.03611 0.151873 -1.96e-24)
(1.03576 0.164696 0)
(1.03748 0.127699 0)
(1.03676 0.139533 0)
(1.03891 0.10542 0)
(1.0382 0.116332 0)
(1.04034 0.0850297 0)
(1.03963 0.09498 0)
(1.0417 0.0666387 -1.70396e-24)
(1.04104 0.075583 0)
(1.04288 0.0502526 0)
(1.04232 0.0581975 0)
(1.04392 0.035833 0)
(1.04342 0.0428018 0)
(1.04492 0.0232968 0)
(1.04442 0.0293371 0)
(1.04607 0.0125268 0)
(1.04547 0.0176995 0)
(1.04762 0.0034002 1.2138e-24)
(1.04679 0.00776602 0)
(1.0498 -0.00418633 3.27985e-26)
(1.04863 -0.000577546 0)
(1.05279 -0.01033 0)
(1.05119 -0.00743359 0)
(1.05667 -0.0150929 -2.55792e-26)
(1.05462 -0.0128795 0)
(1.06146 -0.0185271 0)
(1.05896 -0.0169721 0)
(1.06709 -0.0206839 0)
(1.06418 -0.0197603 0)
(1.07343 -0.0216313 0)
(1.07019 -0.0213026 0)
(1.08029 -0.0214598 0)
(1.07681 -0.0216777 0)
(1.08748 -0.0202864 0)
(1.08386 -0.0209895 0)
(1.0948 -0.0182538 -2.44053e-24)
(1.09113 -0.0193689 0)
(1.10206 -0.0155226 -1.11055e-24)
(1.09842 -0.0169731 0)
(1.10888 -0.0122813 1.33485e-22)
(1.10549 -0.0139655 -1.34449e-22)
(1.11197 -0.0105285 1.20682e-22)
(1.06475 -0.0161014 2.85889e-23)
(1.10281 -0.00792243 6.87066e-24)
(1.0833 -0.0117179 -8.66417e-23)
(1.03851 -0.0251779 0)
(1.04916 -0.0207148 0)
(1.03579 -0.0324365 -9.5247e-28)
(1.0339 -0.0291781 0)
(1.05594 -0.0360553 0)
(1.04364 -0.034745 0)
(1.08647 -0.0362015 1.26387e-22)
(1.07083 -0.0364715 -1.30274e-22)
(1.10119 -0.0354851 -1.00394e-23)
(1.13368 -0.0408927 -1.54547e-24)
(1.131 -0.0351512 -1.22162e-22)
(1.13231 -0.038005 2.92627e-24)
(1.13632 -0.0467592 -7.0547e-23)
(1.13498 -0.0438136 7.0666e-23)
(1.13897 -0.0527064 -1.22633e-24)
(1.13766 -0.0497153 0)
(1.14166 -0.0587214 -1.27667e-24)
(1.14032 -0.0557055 0)
(1.14437 -0.0647271 -3.65093e-26)
(1.14302 -0.0617286 0)
(1.14702 -0.0706268 0)
(1.14571 -0.0676957 0)
(1.14954 -0.0763068 0)
(1.14831 -0.0735015 0)
(1.15177 -0.0816325 0)
(1.1507 -0.0790227 0)
(1.15355 -0.0864461 0)
(1.15274 -0.0841137 0)
(1.15464 -0.0905643 1.8701e-24)
(1.1542 -0.0886041 0)
(1.15475 -0.093778 1.91841e-24)
(1.15484 -0.0922977 0)
(1.15352 -0.095856 0)
(1.15433 -0.0949735 0)
(1.15053 -0.0965582 0)
(1.15227 -0.0963934 0)
(1.14533 -0.0956525 0)
(1.14824 -0.0963194 0)
(1.13743 -0.0929417 2.42292e-24)
(1.14175 -0.0945324 0)
(1.12636 -0.0882992 -2.475e-24)
(1.13232 -0.0908658 0)
(1.1117 -0.0817107 0)
(1.1195 -0.0852434 0)
(1.09314 -0.073318 0)
(1.10292 -0.0777241 0)
(1.07056 -0.0634535 -1.25971e-25)
(1.08236 -0.0685415 0)
(1.04404 -0.052658 -6.43341e-24)
(1.05779 -0.0581314 0)
(1.01393 -0.0416753 0)
(1.02941 -0.0471375 0)
(0.980846 -0.0314204 0)
(0.997723 -0.036399 0)
(0.945617 -0.0228692 -2.09746e-25)