/*--------------------------------*- C++ -*----------------------------------*\
  =========                 |
  \\      /  F ield         | OpenFOAM: The Open Source CFD Toolbox
   \\    /   O peration     | Website:  https://openfoam.org
    \\  /    A nd           | Version:  10
     \\/     M anipulation  |
\*---------------------------------------------------------------------------*/
FoamFile
{
    format      ascii;
    class       volVectorField;
    location    "3.5";
    object      U;
}
// * * * * * * * * * * * * * * * * * * * * * * * * * * * * * * * * * * * * * //

dimensions      [0 1 -1 0 0 0 0];

internalField   nonuniform List<vector> 
14667
(
(1.03744 0.0666902 -1.2527e-19)
(0.887573 0.044496 -5.33686e-20)
(0.874706 0.0297656 -3.8566e-21)
(0.95999 0.0262 5.48827e-22)
(0.936793 0.0286834 1.05733e-21)
(0.990578 -0.089528 -2.80506e-20)
(1.03254 -0.0823967 6.16974e-20)
(0.742879 0.0403289 -1.60957e-21)
(0.814216 0.0334947 0)
(0.950721 0.0295292 -3.07078e-22)
(1.03696 -0.066935 -2.66469e-20)
(1.02555 -0.039432 1.43173e-20)
(0.986124 -0.023111 -3.57148e-20)
(0.886099 -0.0752231 1.05745e-19)
(0.775995 0.0282401 -2.98349e-21)
(1.01848 -0.0309687 0)
(1.01883 -0.0292068 0)
(0.900412 0.0221706 -6.21641e-22)
(0.576013 0.0208729 0)
(1.03992 -0.0586006 0)
(1.05592 0.0851124 -9.32586e-20)
(0.885585 -0.00309305 6.56922e-20)
(0.997417 0.0159079 0)
(1.00133 0.040547 4.91944e-21)
(0.0352396 -0.167587 5.748e-20)
(0.364577 -0.0999516 1.90413e-19)
(-0.0156378 -0.0443058 6.02698e-20)
(-0.0952408 -0.163702 -2.35251e-19)
(-0.0997 -0.22943 4.37164e-21)
(0.81033 0.0892617 1.58743e-20)
(0.862483 0.0593769 -1.51374e-21)
(0.874359 0.0326828 -4.48308e-20)
(-0.0525459 0.146731 1.94174e-20)
(-0.181696 0.0952009 9.50884e-20)
(-0.228277 0.0564535 1.10339e-19)
(0.0280226 0.0706855 -1.65784e-19)
(0.0900752 0.135948 -2.30187e-21)
(0.785156 -0.0880131 2.25263e-21)
(0.772572 -0.0452948 2.76867e-21)
(0.891638 -0.0373395 -8.85721e-23)
(0.884964 -0.0291327 0)
(0.78682 0.0035264 -2.77724e-20)
(0.545792 -0.198618 5.27026e-19)
(0.607293 -0.0768421 -1.72272e-19)
(0.429596 -0.0410558 -1.20396e-19)
(0.351993 -0.254331 8.05315e-20)
(0.573321 -0.412008 -7.23407e-21)
(1.35891 -0.20001 -9.22335e-20)
(1.3565 -0.240632 3.6384e-20)
(1.15519 -0.268908 0)
(1.15625 -0.214178 0)
(0.73633 0.0314489 0)
(0.795439 0.0109918 0)
(0.850738 0.00877169 -7.89048e-20)
(1.37783 -0.254335 1.96425e-20)
(1.41767 -0.227037 1.25834e-20)
(1.4186 0.182942 4.79753e-20)
(1.47019 0.15484 3.22444e-20)
(0.412929 -0.00350471 -5.28063e-20)
(0.680731 -0.0417575 4.32973e-20)
(-0.108473 -0.0948854 1.77231e-19)
(-0.157265 -0.127458 0)
(0.985221 -0.468793 -1.08224e-20)
(0.995444 -0.388643 -5.96893e-20)
(0.916082 -0.341336 -4.90142e-21)
(0.862493 -0.610938 -9.29902e-21)
(0.937334 -0.541497 5.15794e-20)
(0.483351 0.701859 5.24427e-20)
(0.800159 0.731203 -1.72717e-20)
(0.90437 0.037162 3.95821e-20)
(0.922561 0.0213351 -3.69358e-20)
(0.926837 0.0449593 -4.00525e-20)
(0.144911 -0.00885088 0)
(0.14355 -0.244733 4.12861e-20)
(1.14462 -0.319588 2.89017e-20)
(1.24668 -0.345315 3.37298e-20)
(1.32538 -0.301572 -1.1638e-19)
(1.31161 -0.30735 7.97606e-20)
(0.911973 0.00354681 2.113e-19)
(0.897208 -0.0269686 5.11107e-22)
(0.944614 -0.0312883 -8.31888e-22)
(0.981992 -0.0238552 0)
(0.957257 -0.0280378 1.01296e-21)
(1.02981 0.0209304 -2.30261e-22)
(1.02733 0.0215136 0)
(-0.214713 -0.116655 0)
(-0.448048 -0.0994181 -1.26991e-19)
(0.775345 -0.114631 2.53115e-20)
(1.04644 -0.137471 -1.38449e-19)
(1.08023 -0.16128 -3.61403e-20)
(1.28196 -0.174348 5.10301e-20)
(1.02093 -0.0596056 -1.87763e-21)
(1.02076 -0.0544544 3.71522e-21)
(1.03962 4.30544e-05 -1.64382e-21)
(1.03961 -0.000232086 8.17655e-22)
(1.02558 0.0015024 -3.08372e-21)
(1.02552 0.000165303 -2.30375e-21)
(1.01692 0.0105553 -9.49762e-22)
(1.01593 0.00846535 1.88416e-21)
(1.01437 0.0158122 -2.50128e-21)
(1.01272 0.0136587 9.99401e-22)
(1.47481 -0.303568 6.30894e-21)
(1.45933 -0.233602 3.63768e-20)
(0.93517 0.129578 7.02544e-21)
(0.914691 0.105297 -2.45031e-20)
(0.940622 0.087337 3.21299e-21)
(0.961133 0.108183 3.07168e-21)
(0.967434 0.170017 2.10107e-20)
(0.953735 0.141914 4.69801e-22)
(0.688607 -0.0257417 1.19411e-21)
(0.448714 -0.0130975 -1.6529e-22)
(0.492215 -0.0119191 -2.10336e-21)
(0.728988 -0.0181707 0)
(0.848704 -0.0428819 3.30222e-21)
(0.849516 -0.0280817 -1.25224e-21)
(1.22739 -0.0900856 -4.89087e-21)
(1.249 -0.0998786 1.45339e-20)
(1.23517 -0.0875805 0)
(0.66061 -0.0525398 -3.08634e-21)
(0.505234 -0.0497125 -1.20651e-21)
(0.718362 -0.0401961 -5.89484e-22)
(1.03949 1.90793e-05 7.3159e-22)
(1.03945 -0.000332764 -3.74698e-21)
(1.03923 -0.00041782 1.93978e-21)
(1.03897 -0.00047013 -2.36666e-21)
(1.03914 7.58197e-05 0)
(1.03934 9.06966e-06 -4.3348e-22)
(1.03874 -0.000695128 6.66819e-21)
(1.03857 -0.000675023 -3.35884e-21)
(1.03865 -5.41158e-05 0)
(1.03888 -7.67836e-05 0)
(1.03832 -0.000742637 0)
(1.03809 -0.00074828 3.62413e-21)
(1.03813 -7.36428e-05 0)
(1.03839 -0.000110695 0)
(1.0378 -0.000760105 -3.64187e-21)
(1.03749 -0.00074629 0)
(1.0375 2.7911e-05 0)
(1.03784 -4.12186e-05 0)
(1.03713 -0.000739853 3.93396e-21)
(1.03672 -0.000744912 -3.90557e-21)
(1.03667 0.000127993 0)
(1.03711 8.39851e-05 0)
(1.03627 -0.000775519 0)
(1.03579 -0.000827167 -4.20906e-21)
(1.03568 0.000124565 -9.93123e-25)
(1.03619 0.000141283 0)
(1.03527 -0.000900587 4.2365e-21)
(1.03472 -0.000982519 0)
(1.03455 4.34654e-05 0)
(1.03514 8.95003e-05 0)
(1.03408 -0.00103741 -4.39446e-24)
(1.03336 -0.00105105 0)
(1.03318 2.39382e-05 0)
(1.03389 1.37776e-05 0)
(1.03269 -0.00112872 -6.77586e-21)
(1.032 -0.00128546 5.95949e-21)
(1.03169 -0.00010785 6.07021e-22)
(1.03244 2.17279e-05 0)
(1.03109 -0.00128819 0)
(1.03018 -0.00115785 0)
(1.0301 -0.000180893 1.07539e-21)
(1.03095 -0.000253753 -6.53873e-22)
(1.02917 -0.00124142 -1.44053e-21)
(1.02807 -0.00116422 -1.50548e-21)
(1.02801 -7.0887e-05 1.50345e-21)
(1.02911 -0.000256465 -1.45732e-21)
(1.02683 3.96216e-05 -2.95061e-21)
(1.02686 -0.00113234 2.97786e-21)
(1.03975 5.86577e-05 1.1421e-22)
(1.03975 -0.000147586 -7.15291e-22)
(1.02555 -0.00109993 -1.40156e-24)
(1.03971 0.000139551 -5.69779e-22)
(1.03979 0.000123745 1.11473e-21)
(1.03985 6.22747e-05 1.03284e-23)
(1.03951 -0.000126591 0)
(1.03971 -0.000147455 7.74159e-22)
(1.02701 -0.00221455 7.04623e-22)
(1.02933 -0.00207383 3.5338e-21)
(1.0282 -0.0021435 -1.40115e-21)
(1.03127 -0.00183247 -2.85292e-21)
(1.03034 -0.00194712 2.94005e-21)
(1.03302 -0.0014299 0)
(1.03216 -0.00170183 0)
(1.03436 -0.000849497 4.30102e-24)
(1.03374 -0.00108928 0)
(1.03541 -0.000619024 -2.03949e-24)
(1.03491 -0.000712618 0)
(1.03634 -0.000498945 0)
(1.03589 -0.000545667 0)
(1.03715 -0.000467023 -3.69786e-24)
(1.03677 -0.000473122 0)
(1.03781 -0.000454191 -6.90309e-27)
(1.0375 -0.00046019 0)
(1.03831 -0.000393305 0)
(1.03808 -0.000425423 0)
(1.03871 -0.000277215 -6.29641e-27)
(1.03852 -0.00033781 0)
(1.03907 -0.000114211 0)
(1.03887 -0.000207878 0)
(1.03927 -0.000118375 1.98184e-21)
(1.03988 -0.000174497 7.34293e-22)
(1.03988 -0.000111556 -7.57437e-22)
(1.03949 0.00015639 3.19154e-22)
(1.03961 0.000150469 0)
(1.03911 2.42071e-05 3.82327e-23)
(1.03934 0.000118791 3.69576e-22)
(1.03862 -0.000128199 0)
(1.03885 -6.2514e-05 1.2797e-23)
(1.03811 -0.000146299 0)
(1.03837 -0.000162887 0)
(1.03746 -2.55968e-05 0)
(1.0378 -0.000103854 0)
(1.03666 0.000124307 0)
(1.03708 5.17486e-05 0)
(1.0357 0.000182867 0)
(1.0362 0.000167286 0)
(1.03464 0.000200267 0)
(1.03518 0.000183854 0)
(1.0334 0.000378718 0)
(1.03405 0.000261165 0)
(1.0318 0.000666077 6.25044e-22)
(1.03265 0.000532658 0)
(1.03005 0.000847471 -3.3037e-22)
(1.03095 0.00076858 1.6295e-23)
(1.02807 0.00103927 1.44965e-21)
(1.02909 0.000867075 0)
(1.02689 0.00127205 3.80834e-21)
(1.03994 5.26432e-05 4.49274e-22)
(1.03985 9.75407e-05 -9.29426e-23)
(1.02567 -0.00235201 -7.21891e-22)
(1.02408 0.000314311 1.57388e-21)
(1.03999 -0.000440124 0)
(1.04017 -0.000431821 -1.78735e-22)
(1.04005 -0.000200615 -1.76764e-22)
(1.02414 0.00175728 0)
(1.02726 -0.00337098 6.988e-22)
(1.02957 -0.00292564 5.7686e-22)
(1.02846 -0.00316313 0)
(1.03154 -0.00243399 2.72677e-21)
(1.03062 -0.00267542 -2.8956e-21)
(1.03316 -0.00193537 0)
(1.03242 -0.002103 -1.09096e-21)
(1.03438 -0.00173956 -4.29177e-24)
(1.0338 -0.0018277 0)
(1.03546 -0.00155077 4.07309e-28)
(1.03493 -0.00164825 0)
(1.03641 -0.00135872 1.94247e-24)
(1.03596 -0.00144925 0)
(1.03721 -0.00121456 4.66556e-28)
(1.03683 -0.00127821 0)
(1.03783 -0.00110189 -2.95651e-28)
(1.03754 -0.00115474 0)
(1.03831 -0.00097663 0)
(1.03809 -0.00103828 0)
(1.03872 -0.000826673 -3.79989e-28)
(1.03852 -0.000900986 0)
(1.03913 -0.000618201 0)
(1.03892 -0.000723682 0)
(1.03958 -0.000463481 -2.65184e-24)
(1.03935 -0.00053496 -9.96931e-23)
(1.03979 -0.00044765 -1.22448e-21)
(1.04 -9.33423e-05 1.40326e-24)
(1.03983 0.000207265 -1.66881e-22)
(1.03973 0.00031273 -5.54287e-22)
(1.03979 0.000255823 -3.57126e-22)
(1.03956 0.00034589 -1.76716e-22)
(1.03965 0.000333582 1.83635e-22)
(1.03923 0.000289793 -7.69991e-25)
(1.03942 0.000334468 -1.20657e-23)
(1.03875 0.000278207 0)
(1.039 0.000277308 0)
(1.03816 0.000364594 0)
(1.03846 0.000299255 0)
(1.03746 0.000606636 0)
(1.03782 0.00046903 0)
(1.03664 0.000858027 0)
(1.03706 0.000745391 0)
(1.03572 0.000956414 0)
(1.03619 0.000924182 0)
(1.0347 0.0010086 0)
(1.03523 0.000972321 0)
(1.03348 0.00119759 0)
(1.03412 0.00108195 0)
(1.03193 0.0014907 0)
(1.03275 0.0013358 0)
(1.03015 0.00178333 -3.2169e-22)
(1.03106 0.00165106 3.15012e-22)
(1.0282 0.00221281 -2.1818e-21)
(1.02921 0.00197562 0)
(1.02576 0.00282305 1.58708e-21)
(1.02703 0.00245485 -2.33787e-21)
(1.0226 0.00202014 1.65618e-21)
(1.02282 0.00364439 -1.25185e-21)
(1.02434 0.00314906 4.1828e-22)
(1.02595 -0.00358017 2.85461e-23)
(1.0241 -0.00102501 1.54505e-21)
(1.02249 0.000433661 2.47836e-23)
(1.04019 -0.000210514 1.71937e-22)
(1.02093 0.00242829 0)
(1.02119 0.0041473 1.73354e-21)
(1.04034 -0.000412455 3.48182e-22)
(1.03988 0.000245978 0)
(1.04009 -0.00058856 3.63195e-22)
(1.04028 -0.000572555 -1.8158e-24)
(1.03992 0.000177605 0)
(1.03987 0.000145045 1.719e-22)
(1.02451 -0.00387388 -2.85467e-21)
(1.02421 -0.00241006 0)
(1.02504 -0.00524353 6.76295e-22)
(1.02767 -0.0044428 -8.42966e-22)
(1.02641 -0.0048339 -3.56028e-22)
(1.02994 -0.00370291 7.53336e-23)
(1.02886 -0.00409857 -6.75268e-22)
(1.03181 -0.00307824 2.19588e-23)
(1.03092 -0.00338386 -1.9585e-23)
(1.0333 -0.00266799 0)
(1.0326 -0.00284423 -1.48368e-22)
(1.03452 -0.00231035 6.1393e-27)
(1.03393 -0.00249567 0)
(1.0356 -0.00194397 2.04209e-24)
(1.03508 -0.00212203 0)
(1.03651 -0.00164542 -1.94247e-24)
(1.03608 -0.00178482 0)
(1.03727 -0.00141938 5.1748e-27)
(1.03691 -0.00152449 0)
(1.03788 -0.00123134 -4.65039e-27)
(1.03759 -0.00132335 0)
(1.03837 -0.00104319 0)
(1.03814 -0.00113682 0)
(1.03879 -0.000867143 -1.58559e-24)
(1.03858 -0.000951944 0)
(1.0392 -0.000710769 0)
(1.03899 -0.000785635 0)
(1.03965 -0.000601258 7.14444e-23)
(1.03941 -0.000640772 -2.84853e-22)
(1.03988 -0.00058983 6.13642e-25)
(1.04001 3.54492e-05 3.38148e-22)
(1.0401 -8.99708e-05 0)
(1.0399 6.92501e-05 -1.71058e-22)
(1.03977 0.000352054 3.58385e-22)
(1.03983 0.000303697 0)
(1.03961 0.000443988 0)
(1.0397 0.00040375 0)
(1.0393 0.000455879 7.70082e-25)
(1.03947 0.000455404 0)
(1.03881 0.000455992 0)
(1.03907 0.000450211 0)
(1.03818 0.000574956 0)
(1.03851 0.00049286 0)
(1.03745 0.000864038 0)
(1.03782 0.000704161 0)
(1.03667 0.00116694 0)
(1.03706 0.00102821 0)
(1.03583 0.00132775 9.94067e-25)
(1.03626 0.0012643 0)
(1.03487 0.00149297 1.04551e-24)
(1.03537 0.0013906 0)
(1.03366 0.00188127 0)
(1.0343 0.00165964 0)
(1.03212 0.00236659 0)
(1.03292 0.00212654 0)
(1.03037 0.00279914 0)
(1.03126 0.00259089 0)
(1.02839 0.00335693 -3.41888e-22)
(1.02943 0.00305698 0)
(1.02604 0.00411147 0)
(1.02728 0.0036667 1.43522e-21)
(1.02321 0.00517068 -2.0297e-21)
(1.02468 0.00451518 3.98122e-22)
(1.01987 0.0066127 8.96789e-22)
(1.02161 0.00583763 0)
(1.02248 -0.00103185 1.60227e-21)
(1.02292 -0.00419542 1.79268e-21)
(1.02352 -0.00574035 -1.06789e-21)
(1.03991 8.10524e-05 0)
(1.03998 0.000113845 1.60146e-22)
(1.02077 0.00075016 -2.544e-21)
(1.01939 0.00477836 -8.76401e-22)
(1.01908 0.00290889 0)
(1.0174 0.00546459 0)
(1.04044 -0.000544937 -5.18485e-22)
(1.01797 0.00749906 -9.01872e-22)
(1.02259 -0.00256878 7.45463e-22)
(1.02181 -0.00627633 1.08337e-21)
(1.02276 -0.00793528 1.07916e-21)
(1.02579 -0.00663481 -3.4979e-22)
(1.02434 -0.0072651 6.86095e-22)
(1.02828 -0.00555937 -4.97921e-22)
(1.0271 -0.00609115 9.90987e-22)
(1.03038 -0.00465528 4.95237e-24)
(1.02938 -0.00508377 0)
(1.0321 -0.00394506 -2.36325e-24)
(1.03128 -0.00427206 0)
(1.03352 -0.00338412 0)
(1.03284 -0.00365593 0)
(1.03472 -0.00287022 8.16003e-27)
(1.03415 -0.00312291 0)
(1.03575 -0.00242327 0)
(1.03526 -0.0026352 0)
(1.03662 -0.002064 1.93066e-24)
(1.0362 -0.00223384 0)
(1.03734 -0.00177232 1.84231e-24)
(1.037 -0.00191049 0)
(1.03795 -0.00152593 -1.752e-24)
(1.03766 -0.00164508 0)
(1.03846 -0.00130275 0)
(1.03821 -0.00141071 0)
(1.03891 -0.00111834 -1.57804e-24)
(1.03869 -0.00120452 0)
(1.03935 -0.000963049 0)
(1.03913 -0.0010395 9.3661e-29)
(1.03979 -0.000829307 2.29576e-23)
(1.03957 -0.000891067 0)
(1.04021 -0.000767153 -1.77682e-22)
(1.04 -0.000794212 1.85695e-22)
(1.04052 -0.000692472 6.90096e-22)
(1.04038 -0.000740937 1.80203e-22)
(1.04058 -0.000492978 3.37287e-22)
(1.04032 -0.000208073 -1.71762e-22)
(1.04048 -0.000376803 -1.64046e-22)
(1.04006 -7.06429e-06 0)
(1.04018 -9.81461e-05 0)
(1.03994 1.97942e-05 -1.66027e-22)
(1.0401 0.000169144 -3.20997e-22)
(1.03997 0.000285848 -8.20906e-23)
(1.04003 0.000230334 -1.59996e-22)
(1.03984 0.000410016 0)
(1.0399 0.000341432 -8.61166e-23)
(1.03966 0.000558733 0)
(1.03976 0.00048695 0)
(1.03934 0.000674438 0)
(1.03952 0.000620801 0)
(1.03883 0.000780201 0)
(1.03911 0.00072381 0)
(1.03815 0.000965874 0)
(1.03851 0.000857249 0)
(1.03742 0.00126767 0)
(1.03778 0.00110646 0)
(1.03671 0.00156036 0)
(1.03706 0.00142649 0)
(1.03599 0.00174275 -9.94067e-25)
(1.03636 0.00166057 0)
(1.0351 0.00200478 -1.04551e-24)
(1.03558 0.00184383 0)
(1.03389 0.00255079 0)
(1.03454 0.00224575 0)
(1.03237 0.00318552 0)
(1.03316 0.00287783 0)
(1.03066 0.00374044 0)
(1.03154 0.00346462 0)
(1.02874 0.00441774 3.33722e-22)
(1.02974 0.00405007 0)
(1.02643 0.00539216 0)
(1.02764 0.00487554 0)
(1.02372 0.00664497 0)
(1.02513 0.00595836 -3.82298e-22)
(1.02055 0.00833044 1.76075e-21)
(1.02221 0.00743388 8.54701e-22)
(1.0188 0.00940297 -1.84841e-21)
(1.04062 -0.000613932 -8.40232e-22)
(1.0207 -0.000922467 -4.1151e-22)
(1.02116 -0.00454709 -1.87523e-21)
(1.01885 0.00106329 8.394e-22)
(1.02103 -0.00878994 -7.29269e-22)
(1.01997 -0.00696355 0)
(1.01698 0.00343109 -9.2516e-22)
(1.04025 0.000246297 6.43123e-22)
(1.04034 0.000192301 -1.55586e-22)
(1.04017 0.000116427 3.94789e-22)
(1.01517 0.00622948 -1.87162e-21)
(1.0137 0.00973537 9.62995e-22)
(1.04055 -0.000771877 0)
(1.04062 -0.000680704 0)
(1.01491 0.0120043 -1.92145e-21)
(1.02081 -0.00270497 9.71257e-24)
(1.01912 -0.00974441 -1.18741e-23)
(1.02057 -0.0115807 1.18585e-23)
(1.02391 -0.00948703 -3.64608e-24)
(1.02231 -0.0104646 0)
(1.02671 -0.00786361 -4.30328e-22)
(1.02538 -0.00862748 0)
(1.02902 -0.00655909 0)
(1.02792 -0.00718498 8.55687e-23)
(1.03091 -0.00553052 0)
(1.03001 -0.00601019 0)
(1.03248 -0.00471118 0)
(1.03173 -0.00510216 0)
(1.03382 -0.00400986 -2.2291e-24)
(1.03318 -0.00434914 0)
(1.03495 -0.0034005 4.2533e-24)
(1.03441 -0.00369371 0)
(1.03591 -0.00288709 0)
(1.03545 -0.00313162 0)
(1.03674 -0.00246246 -6.91677e-27)
(1.03634 -0.00266501 0)
(1.03745 -0.00210935 -1.83107e-24)
(1.03711 -0.00227758 0)
(1.03806 -0.00181338 1.74205e-24)
(1.03776 -0.00195556 0)
(1.0386 -0.00155805 0)
(1.03834 -0.00168049 0)
(1.0391 -0.00135217 1.57804e-24)
(1.03886 -0.00144845 0)
(1.03956 -0.00118141 0)
(1.03934 -0.00126465 -9.3661e-29)
(1.03997 -0.00102017 0)
(1.03977 -0.00109864 0)
(1.04031 -0.0008973 1.74009e-22)
(1.04015 -0.000954207 0)
(1.04044 -0.000845602 -3.42998e-22)
(1.04069 -0.000404522 0)
(1.04069 -0.000562202 -1.63237e-22)
(1.04071 -0.000509372 3.3135e-22)
(1.04041 -0.000195349 -1.60051e-22)
(1.04059 -0.000314698 1.6072e-22)
(1.04009 -6.48442e-05 0)
(1.04024 -0.000119893 0)
(1.03995 -5.8162e-06 0)
(1.03997 -5.14985e-05 0)
(1.04003 3.82815e-05 -4.78375e-22)
(1.04008 0.000343649 0)
(1.04017 0.000296073 0)
(1.03991 0.000487718 0)
(1.04 0.000407405 0)
(1.03968 0.00067979 -7.27608e-25)
(1.03981 0.000580064 0)
(1.03933 0.000884103 0)
(1.03952 0.000782395 0)
(1.03879 0.00108859 0)
(1.03908 0.000984899 0)
(1.03811 0.00132999 0)
(1.03846 0.00120199 0)
(1.03742 0.00162116 0)
(1.03775 0.00147246 0)
(1.03681 0.00188689 0)
(1.03711 0.00176296 0)
(1.03621 0.00211346 0)
(1.03652 0.00199618 0)
(1.03536 0.00251834 0)
(1.03583 0.00227637 0)
(1.03416 0.00323351 0)
(1.03481 0.00284725 0)
(1.03268 0.0039816 1.14841e-24)
(1.03344 0.00362571 1.37861e-28)
(1.03104 0.00462765 0)
(1.03187 0.00430121 0)
(1.02918 0.00550536 -6.98041e-27)
(1.03015 0.00501772 0)
(1.02697 0.00670497 0)
(1.02812 0.00608204 0)
(1.02439 0.00812168 -9.46121e-23)
(1.02572 0.00738426 3.59156e-22)
(1.02146 0.00995863 -1.63699e-21)
(1.02298 0.00897851 -6.85757e-22)
(1.01815 0.0124188 2.2736e-21)
(1.01985 0.0111473 1.28788e-21)
(1.01634 0.0139859 2.89476e-21)
(1.01875 -0.000856011 8.21142e-22)
(1.01923 -0.00497144 1.13179e-21)
(1.04026 5.81445e-05 2.27349e-22)
(1.04043 0.000140734 1.57163e-22)
(1.01669 0.00134982 0)
(1.01794 -0.00770439 7.86077e-22)
(1.01458 0.00400778 -2.87385e-23)
(1.01867 -0.0129142 -4.90301e-23)
(1.01706 -0.0109056 4.89401e-23)
(1.01269 0.00735623 -1.91201e-21)
(1.01124 0.0112042 -1.00935e-21)
(1.04065 -0.00061074 -5.02201e-22)
(1.01028 0.0154816 -2.10112e-21)
(1.01221 0.0177871 -6.25698e-23)
(1.04073 -0.000447358 -1.56155e-22)
(1.04067 -0.000494342 0)
(1.01886 -0.0028888 0)
(1.01661 -0.0144748 2.02177e-21)
(1.01859 -0.0163543 -3.96899e-22)
(1.02216 -0.0131929 -7.53678e-22)
(1.02044 -0.0146507 7.61383e-22)
(1.02519 -0.0108412 -1.81031e-22)
(1.02375 -0.011934 0)
(1.02774 -0.00901134 -8.44944e-23)
(1.02653 -0.0098821 0)
(1.02981 -0.00754072 0)
(1.02883 -0.00823636 8.50046e-23)
(1.03151 -0.00637359 0)
(1.0307 -0.00692498 0)
(1.03295 -0.00541423 2.3286e-24)
(1.03226 -0.00587396 0)
(1.03417 -0.00459825 2.2291e-24)
(1.03358 -0.00498984 0)
(1.03522 -0.00390679 -4.23349e-24)
(1.03471 -0.00423812 0)
(1.03612 -0.0033246 -2.01137e-24)
(1.03568 -0.00360279 0)
(1.03691 -0.00283978 -1.92375e-24)
(1.03653 -0.00307105 0)
(1.03761 -0.00243813 7.1306e-27)
(1.03727 -0.0026293 0)
(1.03824 -0.0021059 -6.34188e-27)
(1.03793 -0.00226461 0)
(1.03882 -0.00182566 0)
(1.03853 -0.00195984 0)
(1.03934 -0.00159353 0)
(1.03908 -0.00170395 0)
(1.03978 -0.00138996 0)
(1.03957 -0.00149049 0)
(1.04013 -0.00119014 0)
(1.03997 -0.00128943 0)
(1.04039 -0.00101768 -1.75028e-22)
(1.04027 -0.00109871 0)
(1.04054 -0.00084284 -3.40319e-22)
(1.04048 -0.000932961 5.14875e-22)
(1.0406 -0.000729157 0)
(1.04076 -0.000321118 0)
(1.04077 -0.000401812 -1.55222e-22)
(1.04047 -0.000188733 7.60536e-23)
(1.04066 -0.000257408 -7.67889e-23)
(1.0401 -0.000141328 0)
(1.04027 -0.000155162 0)
(1.03999 -8.95836e-05 0)
(1.03999 -0.000137113 0)
(1.04009 -3.32705e-05 -2.66727e-22)
(1.04058 0.000209367 -1.5099e-22)
(1.0404 0.000314692 1.64302e-22)
(1.04049 0.000262252 1.59131e-22)
(1.04019 0.00042661 0)
(1.04029 0.000365218 0)
(1.03996 0.00059818 0)
(1.04008 0.000506355 0)
(1.03967 0.000834058 7.27608e-25)
(1.03983 0.000709083 0)
(1.03927 0.00111324 0)
(1.03948 0.000971059 0)
(1.03873 0.0013959 0)
(1.03901 0.00125613 0)
(1.03811 0.0016635 0)
(1.03842 0.00153177 0)
(1.03753 0.00191402 0)
(1.03781 0.00179139 0)
(1.03702 0.0021464 0)
(1.03727 0.00203097 0)
(1.03646 0.00244682 9.85395e-25)
(1.03676 0.00227596 0)
(1.03562 0.00302788 1.03511e-24)
(1.03609 0.00269112 0)
(1.03444 0.00390722 0)
(1.03507 0.00344775 0)
(1.03303 0.00473854 -1.14841e-24)
(1.03375 0.00434988 -1.37861e-28)
(1.03149 0.00544949 0)
(1.03228 0.00508573 0)
(1.02972 0.00647144 -8.50111e-27)
(1.03064 0.00589979 0)
(1.02763 0.00787902 0)
(1.02872 0.00714701 0)
(1.02522 0.00949631 0)
(1.02646 0.00865798 0)
(1.02253 0.0115264 -4.10802e-22)
(1.02392 0.0104477 0)
(1.01949 0.0142258 0)
(1.02105 0.0127909 -1.16781e-23)
(1.01609 0.0178583 -4.61614e-22)
(1.01783 0.0158636 9.61533e-22)
(1.00997 0.0201485 3.20274e-21)
(1.01247 0.0225967 1.05629e-21)
(1.01426 0.0200564 -1.95e-21)
(1.01656 -0.000845407 -4.08726e-22)
(1.01713 -0.00544905 -3.87677e-22)
(1.01422 0.00165419 0)
(1.01572 -0.00861897 -3.8658e-22)
(1.01192 0.00475532 4.41187e-22)
(1.0148 -0.0122439 8.28227e-22)
(1.00994 0.00852703 4.73518e-22)
(1.01659 -0.0182818 0)
(1.01435 -0.0162653 -1.62654e-21)
(1.00852 0.0128883 0)
(1.00765 0.0176158 2.07537e-21)
(1.01058 0.0255155 1.70562e-21)
(1.0077 0.0228758 -1.69825e-21)
(1.0406 -0.000622745 6.32721e-22)
(1.00875 0.0285597 -5.49839e-21)
(1.04069 0.000291779 0)
(1.04075 -0.000352627 3.05659e-22)
(1.0407 -0.000393526 1.49555e-22)
(1.04076 0.000246433 5.87255e-22)
(1.04067 0.000169371 -4.43837e-22)
(1.01083 0.0294338 -2.22002e-20)
(1.04064 -0.000516546 -1.53663e-22)
(1.01668 -0.00311536 0)
(1.01445 -0.0206105 -1.28844e-21)
(1.01707 -0.0223727 4.17888e-22)
(1.02066 -0.0180177 -7.82197e-22)
(1.01888 -0.0200372 7.89724e-22)
(1.02381 -0.0146714 -7.40074e-22)
(1.02229 -0.0162222 2.84709e-22)
(1.0265 -0.0120922 -1.81097e-22)
(1.02521 -0.0133059 3.68809e-22)
(1.02878 -0.0100438 0)
(1.0277 -0.011015 0)
(1.03063 -0.00842084 0)
(1.02976 -0.00918418 0)
(1.03216 -0.00711739 0)
(1.03143 -0.00773637 0)
(1.03346 -0.00604056 -2.3286e-24)
(1.03284 -0.00655498 0)
(1.03457 -0.0051365 0)
(1.03403 -0.00556915 0)
(1.03553 -0.00437537 1.18193e-26)
(1.03506 -0.00473972 0)
(1.03638 -0.00373691 1.03484e-26)
(1.03597 -0.0040417 0)
(1.03715 -0.00320786 0)
(1.03677 -0.00345978 0)
(1.03785 -0.00277207 8.02894e-27)
(1.03751 -0.00297934 0)
(1.0385 -0.00241192 -7.13366e-27)
(1.03818 -0.00258402 0)
(1.03908 -0.00210472 0)
(1.03879 -0.00225296 0)
(1.03958 -0.00183399 0)
(1.03934 -0.00196574 0)
(1.03997 -0.00157855 0)
(1.03979 -0.00170581 0)
(1.04025 -0.00132317 -1.4063e-24)
(1.04013 -0.00144948 0)
(1.04042 -0.00108018 8.49179e-23)
(1.04035 -0.00119697 0)
(1.04053 -0.000858239 3.32467e-22)
(1.04048 -0.000965062 -8.56454e-23)
(1.04058 -0.000731385 -1.64501e-22)
(1.0408 -0.000257857 -7.45037e-23)
(1.04081 -0.000315917 2.27733e-22)
(1.04049 -0.000204276 0)
(1.0407 -0.000223801 0)
(1.0401 -0.000218263 0)
(1.04028 -0.000208522 0)
(1.04004 -0.000169268 0)
(1.04001 -0.000217843 0)
(1.04035 1.49695e-05 -1.46761e-22)
(1.04017 -9.52263e-05 1.09678e-22)
(1.04053 9.67674e-05 -1.47458e-22)
(1.04051 0.000396857 -3.1887e-22)
(1.04061 0.000344979 -1.58537e-22)
(1.04028 0.000541932 0)
(1.0404 0.00045936 0)
(1.04 0.000744695 0)
(1.04015 0.00063381 0)
(1.03966 0.00102089 0)
(1.03984 0.000873615 0)
(1.03924 0.00134969 0)
(1.03946 0.00118198 0)
(1.03876 0.0016722 0)
(1.03901 0.00151575 0)
(1.03827 0.0019394 0)
(1.03851 0.00181402 0)
(1.03779 0.00215491 0)
(1.03803 0.00205101 0)
(1.03732 0.00238688 0)
(1.03756 0.00226165 0)
(1.03671 0.00278803 -4.07135e-27)
(1.03704 0.00255345 0)
(1.03584 0.00353552 -4.78728e-27)
(1.03631 0.00311385 0)
(1.03473 0.00454624 0)
(1.03531 0.00402999 0)
(1.03345 0.00545033 0)
(1.03411 0.00502931 0)
(1.03201 0.00624248 0)
(1.03276 0.00583253 0)
(1.03035 0.00740107 -2.51582e-24)
(1.03121 0.00675413 0)
(1.02841 0.00898945 0)
(1.02941 0.00816279 0)
(1.02622 0.0107597 -1.82611e-22)
(1.02734 0.0098506 0)
(1.02373 0.0129477 1.50751e-24)
(1.02501 0.0117892 1.84821e-22)
(1.02094 0.0157744 8.37883e-22)
(1.02237 0.0142756 -8.20022e-22)
(1.01793 0.0192995 -9.36262e-22)
(1.01946 0.0173979 -8.55384e-22)
(1.01467 0.0238705 -2.01433e-21)
(1.01631 0.0214384 1.93436e-21)
(1.01287 0.0264841 5.6198e-21)
(1.01408 -0.000884283 1.07221e-22)
(1.01479 -0.00611549 -4.09996e-22)
(1.04074 0.000135852 -2.12504e-22)
(1.04082 0.000196864 1.40889e-22)
(1.01359 0.0331123 -3.99503e-21)
(1.01141 0.00193545 9.0078e-22)
(1.01328 -0.00966921 0)
(1.00894 0.00556115 9.35073e-22)
(1.01231 -0.013822 -8.28602e-22)
(1.00686 0.0098964 -6.64939e-24)
(1.01196 -0.0184129 0)
(1.00539 0.0148121 -1.04274e-21)
(1.01518 -0.0250587 -8.30323e-22)
(1.01221 -0.0232254 1.70311e-21)
(1.00488 0.0202696 0)
(1.00538 0.025791 -1.71202e-21)
(1.0077 0.0321934 1.77149e-21)
(1.04067 -0.000422783 1.54056e-22)
(1.01424 -0.00352818 0)
(1.01331 -0.0281926 0)
(1.01673 -0.0295085 2.08748e-22)
(1.01972 -0.0238394 -1.21257e-21)
(1.01818 -0.0265076 6.11702e-22)
(1.02274 -0.0194159 -3.94814e-22)
(1.02125 -0.0214764 3.95555e-22)
(1.02542 -0.0159574 0)
(1.02414 -0.0175611 9.7519e-23)
(1.02776 -0.0132122 1.82689e-26)
(1.02663 -0.0145102 0)
(1.02976 -0.011002 0)
(1.0288 -0.0120464 0)
(1.03142 -0.00922561 0)
(1.03063 -0.010066 0)
(1.03281 -0.00778589 0)
(1.03215 -0.008469 0)
(1.03399 -0.00660708 2.29492e-24)
(1.03342 -0.00716812 0)
(1.035 -0.00562938 -2.18811e-24)
(1.03451 -0.00609613 0)
(1.0359 -0.00481343 4.18625e-24)
(1.03546 -0.00520303 0)
(1.03672 -0.0041353 1.1453e-26)
(1.03632 -0.0044584 0)
(1.03748 -0.00357527 1.89654e-24)
(1.03711 -0.00384201 0)
(1.03818 -0.00311063 1.81591e-24)
(1.03784 -0.0033325 0)
(1.03881 -0.00271774 -7.88185e-27)
(1.03851 -0.00290694 0)
(1.03935 -0.00236984 0)
(1.03909 -0.00253978 0)
(1.03979 -0.00204548 0)
(1.03958 -0.00220583 0)
(1.0401 -0.0017285 0)
(1.03996 -0.00188693 0)
(1.04031 -0.00141562 1.4063e-24)
(1.04022 -0.00157099 0)
(1.04044 -0.00112211 0)
(1.04038 -0.00126686 0)
(1.04052 -0.00085149 -1.25778e-24)
(1.04048 -0.000987349 0)
(1.0406 -0.000635029 1.5618e-22)
(1.04056 -0.000742393 0)
(1.0407 -0.000455018 -1.48376e-22)
(1.04065 -0.000540612 -3.09884e-22)
(1.04071 -0.000346992 -2.94877e-22)
(1.04077 -0.000284121 -2.4912e-24)
(1.04072 -0.000315658 -2.9339e-22)
(1.04081 -0.000233545 0)
(1.04082 -0.00026334 -7.07515e-23)
(1.04049 -0.000241426 0)
(1.0407 -0.000229138 0)
(1.0401 -0.000277702 0)
(1.04026 -0.000263175 0)
(1.0401 -0.000215472 0)
(1.04003 -0.000270611 0)
(1.04044 -2.61575e-05 0)
(1.04025 -0.000132827 0)
(1.04061 5.60355e-05 2.73254e-22)
(1.04088 0.000233224 -5.69428e-22)
(1.04076 0.000362498 1.54181e-22)
(1.04083 0.000294935 0)
(1.04059 0.000489223 0)
(1.04068 0.0004184 1.49272e-22)
(1.04036 0.000671531 0)
(1.04048 0.000575877 0)
(1.04006 0.000909827 0)
(1.04021 0.000782758 0)
(1.0397 0.00121488 -7.22257e-25)
(1.03988 0.00105461 0)
(1.03933 0.00156073 0)
(1.03952 0.00138622 0)
(1.03897 0.00188638 0)
(1.03915 0.00173002 0)
(1.0386 0.00214944 0)
(1.03878 0.00202596 0)
(1.03818 0.00237738 0)
(1.0384 0.00226311 0)
(1.03762 0.00266794 0)
(1.03792 0.00250656 0)
(1.03688 0.00317184 -9.81324e-25)
(1.03727 0.00288259 0)
(1.036 0.00402147 -1.03032e-24)
(1.03646 0.0035519 0)
(1.03504 0.00510687 0)
(1.03553 0.00455576 0)
(1.03395 0.00608952 0)
(1.03452 0.00562595 0)
(1.03263 0.00698915 0)
(1.03332 0.00652247 0)
(1.03106 0.00826572 2.49537e-24)
(1.03187 0.00755974 0)
(1.02931 0.0099763 0)
(1.03021 0.00908734 0)
(1.02735 0.0118926 0)
(1.02836 0.0109053 0)
(1.02514 0.0142604 -1.89962e-26)
(1.02628 0.0129922 0)
(1.02267 0.0172996 0)
(1.02393 0.0156994 0)
(1.02002 0.0211513 -9.61074e-24)
(1.02137 0.0191177 4.17283e-22)
(1.01726 0.0262365 -8.99802e-22)
(1.01868 0.0234915 8.8847e-22)
(1.01566 0.0293983 9.26078e-22)
(1.04075 -0.000380457 4.44301e-22)
(1.01123 -0.000980033 -1.07151e-22)
(1.01215 -0.00686616 0)
(1.01538 -0.0328598 -1.15396e-22)
(1.01149 -0.0316673 7.00218e-24)
(1.00823 0.00236618 -8.9958e-22)
(1.01056 -0.0109726 0)
(1.00551 0.00651176 -7.17523e-22)
(1.00958 -0.0156648 0)
(1.00338 0.0115112 9.89372e-22)
(1.00933 -0.0208354 0)
(1.002 0.0171607 1.02953e-21)
(1.00991 -0.026292 0)
(1.00185 0.0232155 2.73612e-21)
(1.00316 0.0294509 -1.0987e-21)
(1.01123 0.0354882 -8.12153e-22)
(1.00693 0.0350108 1.5698e-20)
(1.00987 0.0404708 -2.11935e-21)
(1.04076 -0.000499539 -1.47369e-22)
(1.04092 0.000252873 1.14107e-21)
(1.04095 0.000186444 2.70185e-22)
(1.04082 -0.000434593 4.39688e-22)
(1.04091 0.000173415 0)
(1.01147 -0.00396028 0)
(1.0142 -0.0365968 4.51815e-22)
(1.01819 -0.0371647 1.50757e-21)
(1.02006 -0.0304423 -1.0294e-21)
(1.01903 -0.0336258 -1.62995e-21)
(1.02238 -0.0249848 -3.82189e-22)
(1.02117 -0.0275501 9.3501e-22)
(1.02477 -0.0206044 -3.94513e-22)
(1.02359 -0.0226728 7.89328e-22)
(1.02696 -0.0170918 0)
(1.0259 -0.0187526 0)
(1.02892 -0.0142309 1.91753e-26)
(1.02797 -0.015592 0)
(1.03066 -0.0118797 0)
(1.02982 -0.0129966 0)
(1.03216 -0.00995897 0)
(1.03144 -0.0108704 0)
(1.03343 -0.00839737 0)
(1.03282 -0.00913751 0)
(1.03452 -0.00712859 -2.29492e-24)
(1.034 -0.00773063 0)
(1.03548 -0.00609011 2.18811e-24)
(1.03501 -0.00658401 0)
(1.03634 -0.00523522 -4.15886e-24)
(1.03592 -0.00564211 0)
(1.03715 -0.00452955 1.24725e-26)
(1.03676 -0.0048658 0)
(1.03791 -0.00394128 -1.09448e-26)
(1.03754 -0.00422281 0)
(1.03858 -0.00344007 -1.79737e-24)
(1.03826 -0.00368158 0)
(1.03916 -0.00299955 -8.60022e-27)
(1.03888 -0.00321388 0)
(1.03961 -0.00259537 0)
(1.0394 -0.00279429 0)
(1.03995 -0.00221063 0)
(1.0398 -0.00240128 0)
(1.04018 -0.00183843 0)
(1.04008 -0.0020231 0)
(1.04034 -0.00148466 0)
(1.04027 -0.00165848 0)
(1.04045 -0.00116675 0)
(1.0404 -0.00132103 0)
(1.04054 -0.000894739 1.24841e-24)
(1.0405 -0.00102627 0)
(1.04064 -0.000671747 -2.32817e-22)
(1.04059 -0.000781441 7.79333e-23)
(1.0407 -0.000582639 1.17334e-24)
(1.00981 -0.0355161 -2.29897e-22)
(1.01315 -0.0406682 0)
(1.01746 -0.0410351 5.52053e-23)
(1.04074 -0.000291955 1.40594e-22)
(1.04086 -0.000377288 -8.93889e-24)
(1.04079 -0.000315458 1.38949e-22)
(1.04077 -0.000249775 0)
(1.04074 -0.000261455 0)
(1.04079 -0.000242116 0)
(1.04081 -0.000245123 6.99667e-23)
(1.04047 -0.000283785 0)
(1.04068 -0.000262415 0)
(1.0401 -0.000302527 0)
(1.04024 -0.000300419 0)
(1.04017 -0.000219348 0)
(1.04007 -0.000280957 0)
(1.04052 -4.41721e-05 0)
(1.04034 -0.000137131 0)
(1.04079 0.000100684 7.02282e-23)
(1.04068 3.23614e-05 1.76324e-23)
(1.04086 0.000147062 -1.41595e-22)
(1.04081 0.000409573 -1.14919e-22)
(1.04087 0.000327691 -7.50172e-23)
(1.04065 0.000587515 0)
(1.04073 0.00049394 3.79829e-23)
(1.04043 0.000804724 0)
(1.04055 0.000690533 0)
(1.04015 0.00107092 0)
(1.04029 0.000931256 0)
(1.03984 0.00138512 7.22257e-25)
(1.03999 0.00122312 0)
(1.03955 0.00171932 -7.58691e-25)
(1.03969 0.00155249 0)
(1.0393 0.00203356 0)