/*--------------------------------*- C++ -*----------------------------------*\
  =========                 |
  \\      /  F ield         | OpenFOAM: The Open Source CFD Toolbox
   \\    /   O peration     | Website:  https://openfoam.org
    \\  /    A nd           | Version:  10
     \\/     M anipulation  |
\*---------------------------------------------------------------------------*/
FoamFile
{
    format      ascii;
    class       volScalarField;
    location    "32.5";
    object      p;
}
// * * * * * * * * * * * * * * * * * * * * * * * * * * * * * * * * * * * * * //

dimensions      [0 2 -2 0 0 0 0];

internalField   nonuniform List<scalar> 
8711
(
0.0121615
0.0105609
0.0137194
0.0201677
0.0178351
0.00909934
0.0891622
0.0880427
0.701984
0.705834
0.473947
0.225151
-0.165187
-0.196732
-0.0243384
-0.0364376
0.0381231
0.0369794
0.0362924
0.0275865
0.0279705
0.0216183
0.0222475
0.0132082
-0.294475
-0.237734
-0.367898
-0.420551
0.00703532
0.0081117
0.0100908
-0.40671
-0.456971
-0.259565
-0.28678
0.213987
0.205314
0.221915
0.228254
0.220628
0.265615
0.239188
-0.431196
-0.476707
0.336976
0.227272
-0.362847
-0.371061
-0.381691
0.0327882
0.0338473
0.0318824
0.031366
0.0650847
0.0707118
0.0763307
-0.237169
-0.225039
-0.218872
-0.224499
-0.0355957
-0.0362766
-0.0542154
-0.0518034
0.103024
0.0988775
0.0913423
0.0173531
0.0180731
0.0210644
-0.117145
-0.100556
-0.129273
-0.145787
0.113832
0.114319
0.106571
0.106031
0.0190696
-0.00250626
0.000615355
-0.00845807
-0.000376065
0.0170668
0.0161399
0.015655
-0.130745
-0.158737
-0.0172284
-0.0321049
0.0814227
0.0769257
0.0837652
0.0103145
0.0242685
0.112634
0.127835
0.129592
0.116399
0.0924835
0.0949008
0.341275
0.329746
-0.167599
-0.140985
-0.117462
-0.098536
-0.0838555
-0.0746625
-0.0700955
-0.069544
-0.0727245
-0.0796
-0.0907499
-0.105538
-0.123023
-0.139052
-0.14988
-0.129706
-0.152762
-0.132874
-0.107441
-0.120676
-0.080797
-0.0931499
-0.0671411
-0.0719416
-0.0677173
-0.0656276
-0.0850557
-0.0738221
-0.123245
-0.101352
-0.181555
-0.151242
-0.204372
-0.127272
-0.147758
-0.0914891
-0.107871
-0.0720328
-0.0791875
-0.0704707
-0.0692498
-0.0840765
-0.0752819
-0.115111
-0.0976045
-0.154432
-0.135614
-0.17215
-0.167472
-0.167487
-0.200148
-0.134594
-0.108398
-0.152537
-0.209802
-0.170719
-0.107837
-0.110943
-0.0893841
-0.100756
-0.0685934
-0.0786834
-0.0590992
-0.0622766
-0.0623704
-0.0590872
-0.0822475
-0.0700129
-0.124391
-0.100445
-0.18797
-0.155464
-0.233877
-0.216141
-0.119863
-0.13469
-0.136189
-0.13899
-0.10919
-0.125019
-0.0799003
-0.093697
-0.0658369
-0.0707647
-0.0679602
-0.0649005
-0.0852633
-0.0747322
-0.122241
-0.101538
-0.166334
-0.14494
-0.186609
-0.180712
-0.165461
-0.18082
-0.0887632
-0.102117
-0.18361
-0.145696
-0.200686
-0.185294
-0.226073
-0.197231
-0.0701737
-0.0683083
-0.0717384
-0.137098
-0.113076
-0.0865439
-0.0810036
-0.0859771
-0.0889342
-0.0712143
-0.0802583
-0.0553549
-0.0629021
-0.048796
-0.0510251
-0.0545171
-0.0504361
-0.0758599
-0.0629313
-0.118859
-0.0946599
-0.185197
-0.150961
-0.239275
-0.217931
-0.245073
-0.172245
-0.151008
-0.101761
-0.0907307
-0.0682747
-0.0868342
-0.105891
-0.109037
-0.087253
-0.0994119
-0.0650992
-0.0752323
-0.0561965
-0.0590434
-0.0622435
-0.0578052
-0.0832832
-0.0706969
-0.1252
-0.102129
-0.172988
-0.149836
-0.195594
-0.188904
-0.189067
-0.104127
-0.0888822
-0.125294
-0.116469
-0.160028
-0.169544
-0.164507
-0.133801
-0.136891
-0.057503
-0.128999
-0.112566
-0.155166
-0.0461674
-0.0511898
-0.0325736
-0.0702455
-0.137575
-0.108563
-0.109229
-0.0804254
-0.0725049
-0.0509162
-0.0656104
-0.0627495
-0.0654558
-0.0671597
-0.0534312
-0.0604003
-0.0412812
-0.0466905
-0.0377985
-0.0384086
-0.044796
-0.0400849
-0.0662209
-0.0536019
-0.10817
-0.0844391
-0.173168
-0.138804
-0.225851
-0.20623
-0.214107
-0.224438
-0.149138
-0.18796
-0.104076
-0.0713308
-0.0602856
-0.0772399
-0.0766425
-0.0628588
-0.0715553
-0.0479707
-0.0551721
-0.0443788
-0.044561
-0.053705
-0.0479197
-0.0775883
-0.0634905
-0.121562
-0.0975257
-0.172256
-0.147659
-0.196462
-0.189542
-0.172514
-0.189752
-0.126676
-0.149872
-0.0657101
-0.0507259
-0.0903106
-0.0784944
-0.106404
-0.10006
-0.105721
-0.108582
-0.135219
-0.0391341
-0.0226281
-0.118361
-0.0979436
-0.0901373
-0.126846
-0.0593005
-0.0366311
-0.056421
-0.108177
-0.0873977
-0.0596912
-0.0413439
-0.0377117
-0.0469519
-0.0451396
-0.0453907
-0.0471889
-0.0361187
-0.0414163
-0.0274297
-0.0311339
-0.026306
-0.0258889
-0.0339628
-0.02904
-0.0540702
-0.0422312
-0.0930217
-0.0709711
-0.153655
-0.121454
-0.207255
-0.184628
-0.199084
-0.21345
-0.133825
-0.170001
-0.0934774
-0.00809831
-0.0176256
-0.00948106
-0.00582057
-0.0235456
-0.0148736
-0.0424281
-0.0335511
-0.0486027
-0.0478118
-0.0396393
-0.0450954
-0.0302593
-0.0341984
-0.0309791
-0.0292483
-0.0428427
-0.0357198
-0.0685091
-0.0536693
-0.112933
-0.0886974
-0.164619
-0.139513
-0.190342
-0.182798
-0.165108
-0.183067
-0.141653
-0.0359861
-0.0609746
-0.0492059
-0.0798363
-0.07116
-0.0904649
-0.0866529
-0.087396
-0.0908118
-0.0800575
-0.109618
-0.0237393
-0.0246833
-0.0174756
-0.0211511
-0.0730727
-0.101266
-0.0473092
-0.0872002
-0.0555382
-0.0304071
-0.0669058
-0.0226401
-0.0418394
-0.0140094
-0.0686623
-0.0254698
-0.0224827
-0.0292641
-0.0280084
-0.0275598
-0.0293806
-0.020222
-0.0242435
-0.0143297
-0.0167052
-0.0148489
-0.0137962
-0.0224786
-0.0177557
-0.0404793
-0.0299747
-0.0747527
-0.0553617
-0.128289
-0.0997538
-0.179154
-0.1566
-0.173904
-0.186684
-0.106302
-0.144278
-0.0402035
-0.0704029
-0.00248147
-0.0189484
-0.000883978
-0.00807644
0.00474531
0.00415722
-0.00336655
0.00169507
-0.0159674
-0.00978907
-0.022585
-0.0222045
-0.0175205
-0.020667
-0.0128079
-0.0144661
-0.0166887
-0.0135932
-0.0305115
-0.0224851
-0.0566807
-0.0418239
-0.0999358
-0.0763972
-0.150091
-0.125767
-0.174948
-0.167659
-0.151289
-0.169138
-0.105079
-0.128599
-0.084537
-0.00974605
0.0133446
-0.036572
-0.0149435
-0.0251897
-0.0571902
-0.0474941
-0.0722999
-0.0656193
-0.0780631
-0.0766244
-0.0722085
-0.0766041
-0.0651777
-0.0885682
-0.0615877
-0.0820723
-0.0437453
-0.052624
-0.0338884
-0.042977
-0.0706064
-0.0330766
-0.0533311
-0.0269579
-0.0291741
-0.01609
0.0240823
0.000611051
-0.00585565
-0.0176093
0.0797073
-0.0080449
-0.00585041
-0.0101731
-0.00884301
-0.0127803
-0.0120218
-0.011538
-0.0134097
-0.00603095
-0.00892924
-0.00239028
-0.00369011
-0.00391152
-0.00254494
-0.0109386
-0.0066997
-0.0263159
-0.0174066
-0.0549015
-0.0387753
-0.0996221
-0.0756758
-0.144395
-0.124167
-0.142073
-0.151109
-0.0780201
-0.114375
-0.0167129
-0.0430015
0.0193421
0.00311401
0.046637
0.0354872
0.0295971
0.0564384
0.0533445
0.0090016
-0.00303299
0.00360012
0.0167378
0.0143026
0.0137378
0.0164144
0.00537051
0.00925311
0.000296053
0.0015318
0.002468
0.000903065
0.00379242
0.00374941
-0.00235786
0.00171363
-0.01719
-0.0088042
-0.0425287
-0.0283456
-0.0828699
-0.0609939
-0.129773
-0.106941
-0.155215
-0.146539
-0.133556
-0.148617
-0.0889293
-0.112037
-0.0681464
-0.0369842
-0.02707
-0.0552572
-0.0469534
-0.0671615
-0.0622295
-0.0691793
-0.0695251
-0.0604335
-0.0660577
-0.0528694
-0.0737226
0.00212364
-0.0371151
-0.0227742
-0.0545279
-0.0694053
-0.0432798
-0.0601713
-0.0379789
-0.0443477
-0.0335062
-0.0127934
-0.0289046
-0.0210317
0.00550278
0.0337963
0.0584623
0.0855111
0.0952727
0.0819385
0.00299666
0.00297935
0.00245751
0.00303323
0.000722979
0.00135297
0.00215401
0.000926738
0.00624012
0.00421364
0.00818087
0.00767199
0.00618446
0.00762394
8.92496e-05
0.00370297
-0.0124503
-0.00524613
-0.0350585
-0.0223599
-0.0702686
-0.0513418
-0.107114
-0.0901679
-0.106671
-0.113585
-0.0502768
-0.0828246
0.00823732
-0.0179868
0.0415361
0.0260758
0.0677088
0.0558004
0.0772978
0.00900957
-0.0266889
-0.010255
0.000836291
0.0198129
0.0150763
0.0274326
0.0239559
0.0279028
0.0282329
0.0231757
0.0253981
0.0194272
0.0208345
0.0197729
0.0192684
0.0188625
0.0198799
0.0113484
0.0159552
-0.00346302
0.00475116
-0.0269583
-0.0139472
-0.0631398
-0.0436022
-0.105115
-0.0846778
-0.126381
-0.120129
-0.110295
-0.122858
-0.0715737
-0.0907814
-0.0528723
-0.0223076
-0.00401714
-0.0130294
-0.0398109
-0.0310793
-0.055492
-0.048291
-0.0643565
-0.0610374
-0.0632838
-0.065131
-0.0519297
-0.0587494
-0.0336704
-0.04338
-0.0131553
-0.0235199
-0.0637669
-0.0522034
-0.0619195
-0.047398
-0.0542935
-0.00684437
-0.00296512
0.00279655
-0.0482484
-0.046113
-0.0452499
-0.0239482
-0.044368
-0.0396624
-0.0181994
0.00868254
0.0354039
0.0601024
0.00411256
0.0986343
0.0838776
0.100676
-0.00946518
-0.00090512
0.00998388
0.00710396
0.0126975
0.0114201
0.0133953
0.0132224
0.0123269
0.0125186
0.0138339
0.0128038
0.0166016
0.0153071
0.0173288
0.0173324
0.0152477
0.0165913
0.0102074
0.0131577
0.000417488
0.00598097
-0.0164124
-0.00703825
-0.0420506
-0.0282697
-0.0698663
-0.0568109
-0.0707768
-0.0755786
-0.0239962
-0.0515233
0.0290417
0.00465247
0.0632931
0.0479389
0.08556
0.0753052
0.0994442
0.09452
0.106265
0.103975
0.0035814
-0.0405231
-0.0188326
-0.00673849
0.019354
0.0122758
0.0290975
0.0248267
0.0358604
0.032644
0.0383909
0.0373994
0.0372553
0.038153
0.0349063
0.0360024
0.0340563
0.0342783
0.0318077
0.0334162
0.0238645
0.0285475
0.00990964
0.0175513
-0.0110529
0.000448155
-0.0422045
-0.0254544
-0.0784164
-0.0606515
-0.0978246
-0.0916991
-0.0853936
-0.0952436
-0.0521521
-0.0682867
-0.0224607
-0.0361881
-0.0113412
-0.0278988
-0.0186329
-0.0446632
-0.0363863
-0.0580244
-0.0520509
-0.0638286
-0.0621212
-0.05984
-0.0630787
-0.0462992
-0.0540927
-0.0268137
-0.0369343
-0.0167749
-0.0589508
0.104522
0.0968368
0.0988985
-0.054721
-0.0593279
-0.00232955
0.00712341
-0.057696
-0.0617782
-0.0647281
-0.0674818
-0.0668085
-0.0327264
-0.0602584
-0.0399625
-0.0188272
0.00764526
0.036464
0.0624633
0.0853772
-0.0150343
-0.00599927
0.0108123
0.0120068
0.00699817
0.00623614
-0.0535412
0.0174594
0.0141591
0.0209548
0.0193062
0.0219021
0.0215007
0.0220425
0.0219639
0.0234247
0.0225831
0.0251368
0.0244257
0.0250968
0.0253744
0.0232194
0.0243555
0.0192695
0.0215572
0.0120215
0.0160935
0.000198763
0.00671716
-0.0170233
-0.00783975
-0.0354683
-0.0267713
-0.0360628
-0.0394226
-0.000160647
-0.0218132
0.0461747
0.0239574
0.0792564
0.0645603
0.0986607
0.0900428
0.108792
0.105226
0.109621
0.11011
0.0927104
0.100758
0.106729
-0.00187456
-0.0479509
-0.0212072
-0.0112413
0.0148705
0.00686176
0.0277634
0.0219955
0.0366698
0.0326008
0.0426504
0.0398657
0.0464613
0.044758
0.0477854
0.0474722
0.0467851
0.0474972
0.0454725
0.0461402
0.0424562
0.0443445
0.0348223
0.0392122
0.0223364
0.0291156
0.00439997
0.0141408
-0.0212872
-0.00751867
-0.0516283
-0.0365518
-0.0694355
-0.063354
-0.058475
-0.0671699
-0.0331273
-0.0467175
-0.00912984
-0.0200685
-6.52843e-05
-0.0342901
-0.0248755
-0.0512743
-0.0429562
-0.0629723
-0.0580933
-0.0656884
-0.0656243
-0.0586789
-0.0633445
-0.0432653
-0.051869
-0.0227765
-0.033311
-0.012393
-0.059058
0.0159691
-0.0633585
-0.072696
-0.0823794
-0.0910645
-0.0961823
-0.0939625
-0.0455287
-0.0234252
0.00599449
0.0369584
-0.0821267
-0.0299789
-0.0624907
0.0663796
0.0847067
0.0917353
0.00261175
-0.0620569
0.0872752
-0.0581008
0.0291255
0.0171573
0.0129257
0.0238291
0.0210728
0.0278325
0.0261854
0.0290774
0.0286363
0.0298426
0.0294967
0.031095
0.0304403
0.0320031
0.0316992
0.0315782
0.0319461
0.0300469
0.0309377
0.0271013
0.0287885
0.0220283
0.0248385
0.0143035
0.0184966
0.00393662
0.00935646
-0.00610894
-0.00152299
-0.00456699
-0.00764089
0.0217488
0.00591893
0.0592538
0.0406268
0.0884125
0.0752881
0.105036
0.0980062
0.111457
0.109718
0.109137
0.111234
0.0988865
0.104554
0.0798308
0.0801752
0.0907115
-0.00111809
-0.0357942
-0.00945455
-0.00630033
0.0113461
0.00498639
0.0246044
0.0178464
0.0347993
0.0295733
0.042725
0.0387845
0.0481933
0.0454968
0.0525324
0.0505209
0.0552116
0.0541022
0.0557416
0.0557584
0.0544568
0.0552755
0.0511171
0.0530864
0.0442236
0.0481029
0.0335633
0.0393089
0.0188779
0.0267642
-0.00145212
0.0094375
-0.026471
-0.0138514
-0.0422446
-0.0367068
-0.0348323
-0.040994
-0.0140405
-0.0251565
0.00299634
-0.00572639
0.0161441
0.0103544
0.0242634
0.0203822
-0.0214507
-0.0109419
-0.0424202
-0.0321887
-0.0602675
-0.0516559
-0.0705585
-0.0666049
-0.070193
-0.0717934
-0.059841
-0.0661219
-0.0422494
-0.051763
-0.0207363
-0.0316772
0.000481584
-0.00979528
0.0174349
0.00967849
0.0237472
-0.0651281
-0.0778394
-0.0946665
-0.111354
-0.124713
-0.12994
-0.055371
-0.029614
0.00446934
-0.123116
-0.103201
-0.072524
0.0400268
0.0689
0.0784458
-0.00977409
-0.0376017
0.0769551
0.0677594
0.0672849
0.0344241
0.00833312
0.0126982
0.0298192
-0.0707621
0.0318419
-0.0686545
0.0227272
0.0180933
0.0293594
0.0265925
0.0332977
0.0317048
0.0349639
0.0343557
0.0360358
0.0355003
0.0370571
0.0365748
0.037424
0.0373557
0.036915
0.0372456
0.0357884
0.0364293
0.0337544
0.0349036
0.0304931
0.0322714
0.0259269
0.0283531
0.0205773
0.0232612
0.0168787
0.0182713
0.0215143
0.0177085
0.0415076
0.0302285
0.0698564
0.0555248
0.0931294
0.0825615
0.106559
0.100903
0.110379
0.109643
0.106874
0.109517
0.0960854
0.102292
0.0783216
0.0880877
0.0537533
0.0543129
0.0669126
0.00894418
-0.00629771
0.0126099
0.0096932
0.0132319
0.0104801
0.0220387
0.0169198
0.0319322
0.0269987
0.0403283
0.0362142
0.0472169
0.0439173
0.0525732
0.0500031
0.056992
0.0549045
0.0602924
0.0587819
0.0619481
0.0613679
0.0612885
0.0618925
0.0582016
0.0600228
0.0523152
0.0555733
0.0436296
0.0482762
0.0321062
0.0382334
0.0163423
0.0248546
-0.00436919
0.0061976
-0.0180798
-0.0131452
-0.0131831
-0.017557
0.00114739
-0.00628303
0.0138466
0.00792806
0.0237587
0.0195161
0.0301191
0.0279011
0.0325478
-0.0288041
-0.0153397
-0.0530949
-0.0412394
-0.0720936
-0.0633469
-0.0810343
-0.0781032
-0.0774204
-0.0807638
-0.0632933
-0.0714437
-0.0428266
-0.0535903
-0.0199677
-0.031442
0.00156754
-0.00874995
0.0177446
0.0105517
0.0236863
-0.0773385
-0.0997719
-0.125186
-0.148481
-0.164471
-0.0676044
-0.0353025
-0.166592
-0.151158
-0.119164
0.00568539
0.043817
0.0665079
-0.0762853
0.0705213
-0.0340573
0.0644064
0.0180614
0.00130686
0.052174
0.0405336
0.0381935
0.0372146
0.0173076
0.0214931
0.0322737
-0.0863653
0.0031694
-0.00827838
0.0347706
-0.0844941
0.0277311
0.024899
0.0340587
0.0313268
0.0376266
0.0360614
0.0395824
0.0387134
0.0408029
0.0401901
0.0415614
0.0412259
0.0416505
0.0416709
0.0412479
0.0414773
0.0405173
0.0409284
0.0392668
0.0399608
0.0374404
0.0384137
0.0352207
0.0363505
0.0333588
0.034169
0.033819
0.0331422
0.04052
0.0362004
0.0568206
0.0474006
0.0782564
0.0674943
0.0958836
0.0878626
0.105828
0.101723
0.107941
0.10777
0.103307
0.106484
0.0928524
0.0987214
0.0758719
0.0850203
0.0545334
0.0656765
0.0257778
0.0295966
0.0424671
0.0246177
0.0250633
0.0335092
0.0287056
0.0213093
0.0221914
0.0237379
0.0215572
0.0304275
0.0265214
0.0377627
0.0339042
0.044775
0.0413716
0.0508246
0.0479088
0.0559236
0.0534737
0.0602353
0.0581751
0.0637282
0.0620778
0.0659859
0.0650524
0.0661316
0.0663414
0.0638387
0.065256
0.0592117
0.0617646
0.0525298
0.0560877
0.0437786
0.0484304
0.0312886
0.0381429
0.0140038
0.0228143
0.00254231
0.00675284
0.00518221
0.00252007
0.0144881
0.00961293
0.0231952
0.0192505
0.0303913
0.0271566
0.035055
0.0335471
0.0356988
-0.0380594
-0.0226697
-0.0666166
-0.0529774
-0.0869734
-0.0780724
-0.0942564
-0.0924689
-0.0870722
-0.0923245
-0.0687645
-0.0789978
-0.0447699
-0.0571278
-0.0199558
-0.0322211
0.00218336
-0.00835705
0.0191118
0.0113496
0.0258097
-0.0969335
0.0123603
-0.129683
-0.163946
-0.192536
-0.0795479
-0.206988
-0.200965
-0.172428
-0.0379295
0.00904449
0.0452307
-0.126236
0.0598337
-0.0725979
0.0584966
-0.0246391
0.0488588
0.0113546
0.035278
0.0383656
0.032792
0.0213478
0.0161638
0.0105821
0.0392289
0.0347296
-0.108276
0.0413569
0.0405067
-0.104082
0.0279323
0.0202556
0.0240873
0.0327314
0.030473
0.0375412
0.0353142
0.040963
0.039487
0.0430726
0.0421358
0.0443163
0.0437399
0.0448847
0.0446472
0.0449217
0.0449303
0.0447127
0.0448237
0.044346
0.0445515
0.0437527
0.0440729
0.0430267
0.0433929
0.0424732
0.0426984
0.0428734
0.0424937
0.0457681
0.0439131
0.053463
0.0489485
0.067236
0.0596387
0.0836821
0.0755166
0.0969567
0.0909225
0.104035
0.101243
0.104657
0.105049
0.0995575
0.102724
0.0891221
0.0950431
0.074135
0.0821346
0.0547833
0.0648886
0.0331102
0.0441641
0.00276256
0.00963882
0.0215165
-0.000742406
0.0384383
0.042703
0.0442692
0.0415863
0.0326253
0.0353563
0.0298985
0.0304724
0.0318
0.0300262
0.0365512
0.033939
0.0423655
0.0393652
0.0482811
0.0453766
0.053643
0.05103
0.0583925
0.0560925
0.0625259
0.0605328
0.0660065
0.0643472
0.068502
0.067406
0.0693073
0.0691406
0.0679833
0.068886
0.0647255
0.066544
0.0599118
0.0624859
0.053312
0.0568814
0.0430179
0.0487259
0.0288006
0.0359626
0.0194819
0.0230253
0.0200714
0.0189018
0.0253282
0.0225333
0.0311419
0.0283492
0.0357505
0.0335158
0.0388901
0.0377228
0.0396415
0.00665461
-0.0177573
-0.00441787
-0.0506386
-0.0336105
-0.0825541
-0.0673327
-0.104013
-0.0950406
-0.109467
-0.108903
-0.0984065
-0.105738
-0.0756488
-0.0880856
-0.0478002
-0.0619474
-0.0204829
-0.033817
0.00292136
-0.00819322
0.0210863
0.0126631
0.028448
-0.123946
0.0163499
0.0423331
-0.167458
-0.208765
-0.123748
-0.237716
-0.24466
-0.225057
-0.0871676
-0.0353135
0.0136528
-0.180377
0.0427628
-0.120378
0.0490129
-0.0588198
0.0429649
-0.00895779
0.0306081
0.0234578
0.0160552
0.0400136
0.00358299
0.0454378
0.0453823
-0.00494757
-0.00946857
-0.00857163
-0.000906209
0.00288241
0.0245372
0.0272159
-0.135517
0.0449303
0.0455215
0.0327387
0.0299923
0.0368957
0.0348778
0.0406388
0.0389805
0.0436167
0.0423587
0.0456439
0.0447668
0.0468129
0.0463072
0.0473085
0.0471029
0.0474308
0.0473791
0.047435
0.0474319
0.0473897
0.0474167
0.0473288
0.047353
0.0474205
0.0473422
0.0480156
0.0476288
0.0498134
0.0487211
0.0539454
0.0515333
0.0617375
0.0573765
0.0734192
0.0671526
0.0862605
0.0799627
0.0962896
0.0917578
0.10132
0.0994263
0.100944
0.101717
0.0956989
0.0988545
0.086003
0.0913102
0.0723047
0.0795676
0.0552213
0.0640943
0.0363768
0.0459387
0.0174502
0.026641
0.00988311
0.0416374
0.0435412
0.0379694
0.0396864
0.0360671
0.036478
0.0376028
0.0364809
0.0412211
0.0392421
0.045975
0.0435159
0.0510248
0.0485142
0.0557995
0.0534536
0.0601716
0.0580383
0.0640822
0.0621837
0.0674536
0.0658392
0.070006
0.0688515
0.0712275
0.0707984
0.0707393
0.0711797
0.0686891
0.0698672
0.065379
0.0671798
0.0603198
0.0631281
0.0517936
0.0565114
0.040466
0.0461123
0.032786
0.0358925
0.0316312
0.0316232
0.0339111
0.0325756
0.0372825
0.0355458
0.0401246
0.0385394
0.0421811
0.0410831
0.04379
0.0430853
0.0448299
0.044248
0.021435
0.000390123
0.0121509
-0.0294404
-0.0134916
-0.0652498
-0.0468852
-0.099542
-0.0831015
-0.121853
-0.11287
-0.125324
-0.126052
-0.110244
-0.119736
-0.0829991
-0.0976385
-0.0513535
-0.0672727
-0.0214021
-0.035907
0.00359913
-0.00821333
0.022678
0.013905
0.0362862
0.0302096
0.04324
0.0403363
0.0454309
-0.157663
0.0448712
0.0448134
-0.209591
-0.164111
-0.252868
-0.275193
-0.267614
-0.0868038
-0.0286622
-0.230293
0.01612
-0.169634
0.0346157
-0.10066
0.0337819
-0.0369665
0.0237524
0.00953845
0.00925972
0.0355106
-0.00483279
0.0453918
-0.0147941
0.0459128
-0.0200054
-0.0200034
0.0281013
0.0180548
0.0257986
0.047292
0.0427235
-0.0163448
-0.00257882
0.042568
0.0326756
0.0308711
0.0366121
0.0346729
0.0401666
0.0383679
0.0432147
0.0418042
0.0456932
0.0445947
0.0474836
0.0467018
0.0485491
0.0480931
0.0490649
0.0488413
0.049326
0.0491994
0.0495322
0.0494255
0.0497635
0.0496395
0.0501188
0.0499171
0.0507952
0.0504044
0.0521421
0.0513635
0.054744
0.0532575
0.0593908
0.056786
0.066783
0.0627634
0.0766431
0.0714725
0.0868176
0.0818721
0.0944836
0.0910581
0.0980166
0.0967614
0.0970384
0.0980242
0.0918947
0.0949268
0.0829648
0.0878188
0.0705881
0.0771459
0.055671
0.0634023
0.0389397
0.0473978
0.0233773
0.0306624
0.010104
0.0165517
0.00450674
0.0452553
0.0409759
0.0437067
0.0456411
0.0457741
0.0439005
0.0449622
0.041691
0.0427223
0.0406983
0.0409555
0.0419171
0.0410787
0.0448415
0.0432245
0.0488117
0.0467503
0.0531513
0.0509731
0.0574081
0.0553028
0.0614118
0.059446
0.0650739
0.0632879
0.0682817
0.0667406
0.0708057
0.0696451
0.0722597
0.0716726
0.072373
0.0724716
0.0712197
0.071924
0.0689698
0.0702303
0.0650456
0.0672676
0.0581693
0.0619498
0.0492698
0.0537143
0.0426376
0.0455125
0.0401805
0.0410024
0.040423
0.0400907
0.0418357
0.0410488
0.0433885
0.0425804
0.044778
0.044101
0.0459322
0.045469
0.0466169
0.0463063
0.0469147
-0.00583468
0.00766659
-0.0406077
-0.0221454
-0.0794001
-0.059672
-0.115737
-0.0983725
-0.138662
-0.129689
-0.140063
-0.14211
-0.121096
-0.132667
-0.0896625
-0.106338
-0.0546326
-0.0721203
-0.0223865
-0.0379058
0.00393402
-0.00841843
0.0235759
0.0145833
0.0367611
0.03098
0.0438193
0.0407858
0.0460105
-0.194101
-0.249049
-0.28665
0.0480859
0.0392928
-0.138119
-0.294342
-0.0798018
-0.267058
-0.0210338
-0.211844
0.0129462
-0.140654
0.0203465
-0.0685379
0.0139985
0.0321365
-0.00928085
0.00044136
0.0347852
0.0286585
-0.0149296
0.0392271
-0.00740757
-0.0242741
0.0454421
-0.0267637
0.0441924
-0.0292859
0.048049
-0.0329028
-0.0123598
0.0478731
0.0021382
0.00548879
0.0330556
0.0476525
-0.188234
0.0423337
-0.140195
0.0309292
0.0144394
0.0227444
0.0366731
0.0353646
0.0396672
0.038143
0.0425717
0.0411352
0.045135
0.0439083
0.047209
0.0462537
0.0487483
0.0480603
0.0497355
0.0493024
0.0503176
0.0500545
0.0507228
0.0505236
0.0511093
0.0509107
0.0515727
0.0513249
0.0522434
0.0518743
0.0533239
0.0527215
0.0551342
0.0541218
0.058138
0.0564694
0.0628658
0.0602781
0.0696387
0.0660271
0.0779533
0.0736728
0.086092
0.0821623
0.0920484
0.0894146
0.0945255
0.0937166
0.0931964
0.0942862
0.0882997
0.0911366
0.0801471
0.0845813
0.0691088
0.0749005
0.0560022
0.0627572
0.0413415
0.0487866
0.0279599
0.034159
0.0153619
0.0217004
0.00932793
0.0459386
0.044731
0.0465167
0.0464518
0.0458334
0.0462335
0.0445174
0.0450942
0.0441119
0.044181
0.0451617
0.0444611
0.0476229
0.0462584
0.0509899
0.049236
0.0547585
0.0528531
0.0585683
0.0566733
0.0622299
0.0604241
0.0656319
0.0639677
0.0686529
0.067196
0.0710926
0.0699568
0.0726617
0.0719875
0.0731685
0.0730383
0.0726264
0.0730075
0.0710848
0.0719824
0.0680183
0.0697749
0.0625363
0.0655437
0.055415
0.0590097
0.0494749
0.0521551
0.0462317
0.0475635
0.0451503
0.0455007
0.0452993
0.0451274
0.0459319
0.0455872
0.0467738
0.0463303
0.0474255
0.0470506
0.0478192
0.0476728
0.0479846
-0.0115927
0.00301458
-0.0489106
-0.0290212
-0.0908058
-0.0697045
-0.129015
-0.110962
-0.152229
-0.143308
-0.151656
-0.154925
-0.129358
-0.14269
-0.0945037
-0.112826
-0.0568404
-0.0755264
-0.0229373
-0.039163
0.00417924
-0.00847226
0.0239352
0.0149511
0.0367995
0.0311532
0.0441686
0.0410033
0.0463448
-0.226527
-0.276586
-0.0338776
0.048407
0.0479643
-0.300133
-0.136704
-0.287941
-0.0677915
-0.240703
-0.0177075
-0.171342
0.00186453
-0.0967358
0.000320316
0.033404
0.0287695
-0.0297836
-0.0112433
0.02927
-0.000975399
-0.016752
0.0196168
-0.0272643
0.0337513
-0.0295679
0.0454177
-0.041324
0.040101
-0.0388672
0.0515828
-0.0491126
-0.203082
0.0473405
0.030227
0.0376954
0.035439
0.0285332
0.0366492
0.0347157
0.0395295
0.0382732
0.0419097
0.0408711
0.0443038
0.0431858
0.0464518
0.0454195
0.0482223
0.047391
0.0495717
0.0489534
0.0505188
0.0500882
0.0511791
0.050871
0.0517149
0.0514506
0.0522564
0.0519784
0.0529089
0.0525626
0.0538107
0.0533216
0.0551573
0.0544192
0.0572284
0.056091
0.060379
0.0586595
0.0649468
0.0624879
0.0710248
0.0678301
0.0780506
0.0744845
0.0846295
0.0814732
0.089312
0.087262
0.0910591
0.0905497
0.0895674
0.0906788
0.0849941
0.0876153
0.0776228
0.0816166
0.067856
0.0729654
0.0564359
0.0623038
0.043896
0.0502343
0.0324229
0.0377758
0.0217587
0.0270949
0.0144455
0.0173435
0.0109578
0.0126528
-0.00404914
0.0436089
0.04073
0.0468882
0.045725
0.0475618
0.0474336
0.0473226
0.0475372
0.0466875
0.0469933
0.0466187
0.0465571
0.0476064
0.046976
0.0497334
0.0485583
0.0526382
0.0511211
0.0559485
0.0542663
0.0593706
0.0576608
0.0627151
0.0610604
0.0658588
0.0643173
0.0686784
0.0673139
0.0710077
0.0699134
0.0726061
0.0718957
0.0733465
0.0730766
0.0731929
0.0733673
0.072107
0.0727687
0.0696419
0.0710657
0.0651797
0.0676305
0.0593203
0.0623088
0.0539636
0.0564946
0.0503504
0.0519424
0.0484895
0.0492503
0.0478281
0.0480533
0.0478169
0.0477684
0.0480952
0.0479307
0.0483627
0.0482172
0.048519
0.048473
0.04853
0.0486255
0.0257176
0.0110754
0.0198058
-0.0157282
-0.000726039
-0.0537723
-0.0334447
-0.0976887
-0.0755291
-0.137151
-0.118736
-0.160427
-0.151418
-0.158171
-0.162414
-0.133582
-0.148086
-0.0965883
-0.115924
-0.0573609
-0.076736
-0.0226174
-0.0391838
0.00476926
-0.00795246
0.0243922
0.0155067
0.0369524
0.0314442
0.0443285
0.0411612
0.0465404
-0.246963
-0.0466913
0.0291045
0.0478057
-0.283534
-0.19635
-0.0504411
-0.288009
-0.12148
-0.255274
-0.057457
-0.192845
-0.0231964
0.033921
0.0279327
0.00931071
-0.11659
-0.0171371
0.0246172
-0.00324141
-0.0451048
-0.0263098
0.0235912
-0.0193449
0.0112352
-0.042632
0.0268332
-0.0344424
0.0456113
-0.0588525
0.0335186
-0.0471938
0.0570557
-0.0694159
0.0429673
-0.0584839
0.0528533
0.0333709
0.0391594
0.0297796
0.0326972
0.0392937
0.038472
0.0363313
0.0414796
0.0398416
0.043579
0.0425331
0.0455148
0.0445573
0.0472995
0.0464189
0.0488319
0.0480947
0.0500568
0.0494798
0.0509925
0.0505548
0.0517254
0.0513744
0.0523765
0.0520539
0.0530486
0.052704
0.0538505
0.053428
0.0549165
0.0543444
0.0564275
0.055609
0.0586202
0.0574311
0.0617596
0.0600679
0.0660473
0.063768
0.0714424
0.068638
0.0773871
0.074405
0.0827764
0.0802048
0.0865005
0.0848886
0.0877333
0.0874257
0.0862017
0.087282
0.0820023
0.0843942
0.075381
0.0789505
0.0667849
0.0712717
0.0568461
0.0619381
0.0462324
0.0515515
0.0363499
0.041128
0.0277697
0.0317195
0.0224642
0.0246763
0.0187079
0.0205068
0.041537
0.0400214
0.0453508
0.0433479
0.047901
0.0469046
0.0486665
0.0484452
0.0485461
0.0486198
0.0483384
0.0484374
0.0484887
0.0483418
0.0494512
0.0488635
0.0513239
0.0502952
0.0538672
0.0525366
0.0568015
0.0553053
0.059884
0.0583385
0.0629361
0.0614223
0.0658304
0.0644087
0.0684466
0.067178
0.070646
0.0696031
0.0722138
0.0715007
0.0730693
0.0727269
0.0731352
0.073192
0.0723148
0.0728373
0.0702343
0.0714413
0.0664828
0.0685411
0.0615534
0.0640791
0.0567344
0.0590854
0.0530349
0.054722
0.0507583
0.0517496
0.0495837
0.0500689
0.0491001
0.0492831
0.048961
0.0490027
0.048903
0.0489264
0.0487896
0.0488515
0.0485866
0.0486371
0.0475282
0.047757
0.0482309
0.0283516
0.0229742
0.0264466
0.00854644
0.0172651
-0.0177409
-0.00316261
-0.0551464
-0.0350922
-0.0993488
-0.0769862
-0.138552
-0.120489
-0.162074
-0.152065
-0.158302
-0.16312
-0.132856
-0.147742
-0.0953484
-0.114897
-0.0559099
-0.0753491
-0.0212425
-0.0377419
0.00588842
-0.00668552
0.0251393
0.0164444
0.0373133
0.0319993
0.0444748
0.0413933
0.0480324
0.0466289
0.0487375
-0.24706
-0.0711947
0.0323164
-0.267352
-0.177686
-0.0672715
0.0358905
0.034707
0.0479521
0.0474834
-0.252986
-0.10399
0.0407185
0.0341456
-0.204524
-0.0556924
0.0266405
0.0243338
0.014874
-0.132384
-0.0391963
0.0208411
-0.0010635
-0.0554275
-0.0446885
0.0177347
-0.0185939
0.00858212
-0.061077
0.0188975
-0.0371461
0.0489603
-0.0803592
0.0249631
-0.0538581
0.0653707
-0.0938872
0.0352905
-0.068648
0.0616974
-0.0976885
0.0489033
0.0274912
0.0435308
0.0464823
0.0492731
0.0299208
0.0395713
0.0375988
0.0425
0.0409355
0.0445213
0.0434913
0.0462192
0.04537
0.0477627
0.0469968
0.0491253
0.048461
0.0502729
0.0497214
0.0512159
0.0507662
0.0520154
0.0516259
0.0527643
0.0523916
0.0535465
0.0531464
0.0544639
0.0539836
0.0556427
0.0550154
0.0572455
0.0563853
0.0594685
0.0582748
0.0625053
0.0608853
0.0664638
0.0643803
0.0712266
0.0687742
0.0762695
0.073765
0.0807477
0.0786333
0.0837467
0.0824613
0.0846178
0.0844467
0.0831187
0.084139
0.0793096
0.081469
0.0734147
0.0765815
0.0658718
0.0698013
0.0572328
0.0616453
0.0482474
0.0527155
0.0398794
0.0439724
0.0330969
0.0360776
0.0290745
0.0305744
0.0259882
0.0272921
0.0287549
0.0265333
0.0304617
0.037049
0.0321626
0.0383583
0.0447049
0.0438741
0.044618
0.0449217
0.044173
0.0472862
0.0459809
0.0489702
0.0482488
0.0496454
0.0493932
0.0496404
0.049672
0.0496339
0.0496225
0.0499189
0.0497212
0.0508475
0.0502986
0.0525136
0.0516032
0.0547635
0.0535851
0.0573813
0.0560434
0.060164
0.058765
0.0629475
0.0615643
0.0656047
0.0642977
0.0680192
0.0668473
0.0700358
0.0690861
0.071574
0.0708759
0.0724618
0.0720939
0.0726282
0.0726296
0.0719435
0.0723932
0.0701054
0.0711712
0.0668595
0.0686336
0.0626382
0.0648017
0.0583074
0.0605175
0.0546802
0.0563649
0.0522159
0.0533236
0.0507245
0.0513759
0.0499001
0.0502532
0.04944
0.0496402
0.0491049
0.0492645
0.0487477
0.0489267
0.0482465
0.0485265
0.0474457
0.0479441
0.0214168
0.0252852
0.00731949
0.015652
-0.0174888
-0.00369949
-0.0532927
-0.0340841
-0.0958688
-0.0743253
-0.133618
-0.116198
-0.154946
-0.14677
-0.151634
-0.156299
-0.127095
-0.141455
-0.0908427
-0.109756
-0.0526094
-0.0714739
-0.0189109
-0.0349562
0.00745869
-0.00476026
0.0261107
0.0176975
0.0378385
0.0327386
0.0445693
0.0416998
0.047745
0.0465369
0.0482615
-0.228657
0.0522858
0.0475665
-0.0823724
0.0348122
0.0325936
0.0469015
-0.233351
-0.153108
0.0367441
-0.0927324
0.0275302
0.0295488
0.0570381
0.047892
0.0572924
0.0556694
0.0614347
-0.205
-0.0936287
0.060084
0.0473652
0.0531744
0.0262706
0.0214785
-0.14641
-0.0663767
0.0178688
0.00345131
-0.0694048
-0.0664262
0.0124686
-0.0153386
0.00459653
-0.0826908
0.0108321
-0.0367776
0.0571
-0.105449
0.0148332
-0.0569074
0.0786895
-0.123544
0.0245298
-0.0766143
0.0753918
-0.130338
0.0399268
-0.0949712
0.0590115
0.0581912
0.0635303
0.0367072
0.0338394
0.0355855
0.0401332
0.0385296
0.0428817
0.0415676
0.0448848
0.0439132
0.0464953
0.0457115
0.04791
0.0472158
0.0491685
0.0485532
0.0502701
0.0497346
0.0512317
0.0507652
0.0520926
0.0516696
0.0529241
0.0525084
0.0537979
0.0533519
0.0548041
0.0542803
0.056058
0.0553956
0.057703
0.0568272
0.0598996
0.0587298
0.0627865
0.0612592
0.0664083
0.0645177
0.070609
0.0684628
0.0749333
0.0727951
0.0786783
0.0769205
0.0811227
0.0800832
0.0817425
0.0816601
0.0803207
0.081266
0.076898
0.0788295
0.0716945
0.074481
0.0651
0.0685297
0.0576169
0.0614276
0.0499718
0.0537586
0.0429438
0.04636
0.0374752
0.0399228
0.0342978
0.0356517
0.0328684
0.03319
0.0363385
0.0338627
0.0447833
0.0396629
0.0512863
0.0512921
0.0541016
0.0482642
0.0493646
0.0480887
0.0476976
0.0491011
0.0484865
0.0501753
0.0496805
0.0505624
0.0504007
0.0506132