/*--------------------------------*- C++ -*----------------------------------*\
  =========                 |
  \\      /  F ield         | OpenFOAM: The Open Source CFD Toolbox
   \\    /   O peration     | Website:  https://openfoam.org
    \\  /    A nd           | Version:  10
     \\/     M anipulation  |
\*---------------------------------------------------------------------------*/
FoamFile
{
    format      ascii;
    class       volVectorField;
    location    "32.5";
    object      U;
}
// * * * * * * * * * * * * * * * * * * * * * * * * * * * * * * * * * * * * * //

dimensions      [0 1 -1 0 0 0 0];

internalField   nonuniform List<vector> 
8711
(
(1.09371 0.00347667 0)
(1.09066 0.00575562 4.10904e-22)
(1.1219 -0.000337203 4.41461e-21)
(1.15101 -0.0469897 -1.81874e-21)
(1.147 -0.0565508 1.82878e-22)
(1.16073 -0.0619222 -1.91384e-22)
(1.07307 -0.00222801 3.02056e-22)
(1.07429 -0.00632885 5.00822e-21)
(0.614519 -0.0202461 -1.20349e-21)
(0.619266 0.0745488 9.47584e-21)
(0.792745 -0.484379 0)
(0.455854 -0.694096 -3.32731e-20)
(0.860341 -0.191931 3.38077e-21)
(0.910363 -0.235709 -5.70146e-22)
(0.964978 0.5495 -1.20885e-21)
(0.967909 0.573209 0)
(1.17808 -0.00433486 3.50004e-21)
(1.18817 -0.0057703 -3.41585e-21)
(1.19811 -0.0135542 -1.98486e-21)
(1.19012 -0.0239013 2.37985e-21)
(1.18806 -0.0187144 -3.47965e-21)
(1.17109 -0.0189601 -1.95007e-21)
(1.1718 -0.0239382 0)
(1.13036 -0.00210947 -1.82012e-21)
(1.43955 -0.190526 8.99199e-20)
(1.43175 -0.222173 -2.23933e-20)
(1.53685 -0.293997 3.98541e-20)
(1.34221 -0.171796 -7.38212e-20)
(0.831133 -0.0169407 -1.51868e-21)
(0.913109 -0.0151497 2.03052e-21)
(1.00522 -0.0158472 -5.51285e-23)
(1.11091 0.228014 1.08652e-19)
(0.99651 0.265835 2.90106e-20)
(1.44248 0.293535 3.75823e-21)
(1.45805 0.232469 -3.36228e-20)
(1.03857 0.0584322 -4.71576e-20)
(1.04683 0.0704053 1.37565e-20)
(1.03888 -0.0774564 0)
(1.02335 -0.045876 -6.76466e-20)
(1.02831 -0.0491375 9.50613e-20)
(1.01556 -0.0337389 0)
(1.00841 -0.0183171 0)
(-0.0355645 0.167613 9.66833e-21)
(-0.104477 0.111218 1.32435e-19)
(0.498431 0.725076 4.04814e-20)
(0.802176 0.727472 2.17494e-20)
(-0.0684833 0.059979 -1.05277e-19)
(0.0769229 0.0681846 3.6218e-20)
(-0.12295 0.0307129 -5.301e-20)
(1.25451 0.0796031 4.94083e-21)
(1.2448 0.0495481 1.14879e-20)
(1.26176 0.0484204 3.63828e-21)
(1.27243 0.0675444 0)
(1.10907 -0.00817823 0)
(1.1058 -0.00286871 2.44548e-21)
(1.10099 0.00253371 -2.88931e-21)
(0.965113 0.0527643 -7.46362e-21)
(0.942596 0.251041 1.42045e-20)
(0.936676 -0.122405 0)
(0.901772 0.0807942 -1.55876e-20)
(0.954405 0.380166 2.28396e-21)
(0.932663 0.344742 1.67332e-21)
(0.911443 0.325912 -4.44443e-21)
(0.929748 0.368255 -1.70144e-21)
(1.06114 0.00464831 -8.68938e-21)
(1.0637 0.002629 0)
(1.07196 0.00359812 4.84964e-21)
(1.15996 -0.013225 0)
(1.16352 -0.015952 4.8558e-21)
(1.16608 -0.0220241 -2.67605e-22)
(0.902821 0.235595 -1.53435e-20)
(0.882297 0.205944 7.26901e-21)
(0.888788 0.105973 -2.74959e-21)
(0.914084 0.124565 0)
(1.05864 -0.0142261 -8.30423e-21)
(1.05903 -0.0192641 0)
(1.06496 -0.0151137 7.55019e-21)
(1.06564 -0.00969891 -5.83944e-21)
(1.16604 -0.0147714 -4.59906e-21)
(1.20634 0.347806 -1.07887e-23)
(1.17522 0.338884 5.0357e-22)
(1.04429 0.375092 -1.66168e-22)
(1.05131 0.349655 0)
(1.15 -0.00858659 -1.19789e-21)
(1.14865 -0.00880894 -4.56887e-21)
(1.14499 -0.006958 6.21014e-21)
(0.769881 0.202407 -8.0255e-21)
(0.79533 0.211066 2.59156e-20)
(0.931196 0.42977 -1.98885e-22)
(0.925825 0.466801 -3.48559e-24)
(1.09246 -0.00260471 -3.72037e-21)
(1.09525 -0.00631062 2.14267e-21)
(1.09562 0.00819814 1.59084e-21)
(1.17702 -0.0753045 -2.35462e-21)
(1.15883 -0.0641163 2.31354e-21)
(1.11066 0.084015 1.74502e-20)
(1.0944 0.0859731 -4.27665e-22)
(1.08454 0.0741149 -7.08105e-21)
(1.09856 0.0753336 -2.73649e-21)
(1.13667 0.093856 3.42846e-23)
(1.12207 0.0701726 0)
(0.985857 -0.156388 -6.07568e-21)
(0.990971 -0.213886 1.49514e-20)
(0.941678 -0.386473 -3.95018e-21)
(0.975028 -0.487839 -1.64022e-21)
(1.00082 -0.543265 -1.17714e-22)
(1.01524 -0.56515 0)
(1.02353 -0.564916 -1.18057e-21)
(1.02609 -0.552178 1.24958e-21)
(1.0249 -0.537021 6.93018e-23)
(1.01871 -0.529352 6.7158e-23)
(1.00642 -0.532553 -5.57619e-22)
(0.988355 -0.539717 7.57962e-22)
(0.966797 -0.538646 3.84858e-22)
(0.945432 -0.50752 8.9431e-22)
(0.927665 -0.437778 -1.1135e-21)
(0.914357 -0.329625 -5.43247e-22)
(0.905974 -0.189108 -1.07043e-21)
(0.878503 -0.188011 1.98514e-21)
(0.90698 -0.0314326 -2.19013e-21)
(0.880138 -0.0361912 3.58717e-21)
(0.903672 -0.421127 -1.62336e-22)
(0.887758 -0.319207 -9.6408e-22)
(0.952443 -0.51564 3.66732e-23)
(0.926138 -0.485678 -3.83976e-22)
(1.00255 -0.51628 -2.50206e-22)
(0.978993 -0.519954 -1.48131e-22)
(1.03195 -0.530591 0)
(1.02024 -0.518013 -6.66876e-23)
(1.04448 -0.565909 -1.62211e-22)
(1.03947 -0.54863 0)
(1.04005 -0.560438 5.771e-23)
(1.04515 -0.572091 0)
(1.00317 -0.433841 1.47927e-21)
(1.02605 -0.519141 1.33437e-22)
(0.972285 -0.302496 6.92171e-21)
(0.938347 -0.460516 -2.10622e-21)
(0.900152 -0.352017 -7.41324e-22)
(0.991231 -0.552323 -1.25177e-21)
(0.969291 -0.523422 7.83841e-22)
(1.01589 -0.549656 1.13061e-21)
(1.00619 -0.557567 1.25705e-21)
(1.02015 -0.535042 1.10473e-21)
(1.02088 -0.538827 -1.75919e-21)
(1.00069 -0.554073 -1.73856e-21)
(1.0129 -0.543451 1.12095e-22)
(0.969909 -0.524233 5.28222e-23)
(0.985152 -0.552096 1.37455e-21)
(0.947298 -0.342635 -1.00222e-21)
(0.95706 -0.455369 1.63649e-21)
(0.944584 -0.0269759 0)
(0.941846 -0.194924 0)
(0.950449 0.132591 1.17999e-21)
(0.866724 0.0232395 -1.01269e-20)
(0.929 0.256586 -4.87046e-21)
(0.871235 0.0894783 3.65012e-21)
(0.961122 0.269852 2.61927e-21)
(0.88433 0.246799 6.9878e-21)
(0.819718 0.0147869 1.25094e-20)
(0.858085 -0.185536 -1.69046e-21)
(0.858321 -0.0443815 -1.70416e-21)
(0.885576 -0.401167 7.43884e-22)
(0.868071 -0.307293 5.81371e-22)
(0.941636 -0.489477 -6.02119e-22)
(0.911915 -0.461856 5.10752e-22)
(1.00132 -0.495109 2.47786e-22)
(0.973579 -0.494999 0)
(1.04077 -0.518031 1.461e-21)
(1.02349 -0.50151 -9.55984e-22)
(1.0681 -0.558929 -1.21046e-21)
(1.05523 -0.539247 -5.16729e-22)
(1.08087 -0.564532 -3.27826e-22)
(1.07692 -0.569623 1.43591e-21)
(1.06552 -0.455404 -3.06553e-21)
(1.07701 -0.531176 4.08991e-22)
(1.00608 -0.145349 0)
(1.04157 -0.322979 3.35681e-21)
(0.944878 0.354409 1.08233e-20)
(0.973507 0.371147 -3.7342e-21)
(0.820823 -0.163114 -1.16504e-21)
(0.786034 0.0189254 6.03429e-21)
(0.906315 -0.429312 -7.78937e-22)
(0.863488 -0.317148 -4.31893e-22)
(0.969913 -0.532445 -1.51901e-22)
(0.941879 -0.497289 -3.66529e-23)
(1.00865 -0.540535 5.46143e-22)
(0.992876 -0.544045 -5.3438e-22)
(1.02483 -0.536655 -1.60183e-21)
(1.01949 -0.535195 0)
(1.01794 -0.563381 3.02851e-22)
(1.02384 -0.548084 1.01076e-21)
(1.00306 -0.531161 8.82342e-22)
(1.00972 -0.563412 -8.75005e-22)
(0.988939 -0.351376 2.46025e-21)
(0.994305 -0.46126 -2.49915e-21)
(0.988993 -0.0276259 1.74653e-22)
(0.984329 -0.200385 8.82229e-23)
(1.00289 0.283937 4.57534e-21)
(0.993831 0.144133 2.57855e-21)
(0.90859 0.302466 1.26345e-20)
(0.921593 0.333487 -1.89431e-21)
(0.825315 0.237347 0)
(1.01073 0.385663 0)
(0.924993 0.410157 -1.40697e-20)
(0.862462 0.409926 2.84836e-21)
(1.00095 0.267412 1.31364e-20)
(0.973019 0.456854 -1.22235e-20)
(0.907026 0.332381 -4.10802e-20)
(0.932305 0.382651 1.7052e-20)
(0.897827 0.277656 -5.66213e-21)
(0.7932 0.377246 5.20518e-21)
(0.773234 0.356058 3.48718e-21)
(0.858126 0.0749004 3.66155e-22)
(0.868512 0.182803 -2.50486e-21)
(0.845017 -0.179544 0)
(0.844361 -0.0487255 -3.46926e-22)
(0.87447 -0.381184 -1.10227e-21)
(0.854807 -0.294598 1.33975e-21)
(0.936964 -0.46062 -8.59074e-22)
(0.903687 -0.436301 1.04758e-21)
(1.00207 -0.469924 -2.24366e-21)
(0.972067 -0.467116 1.62537e-21)
(1.05098 -0.500091 3.36527e-22)
(1.02825 -0.480891 3.81474e-22)
(1.09319 -0.544865 0)
(1.07181 -0.522982 5.91056e-23)
(1.12412 -0.561669 3.67845e-21)
(1.11137 -0.559844 -1.73969e-21)
(1.12804 -0.465957 -2.18021e-23)
(1.12976 -0.535197 -2.16608e-21)
(1.0847 -0.162106 -4.05574e-21)
(1.1116 -0.338418 -1.48408e-21)
(1.04248 0.0503493 3.72252e-21)
(1.05062 0.290793 2.71589e-21)
(1.05527 0.394227 0)
(0.752028 0.197663 -3.96656e-21)
(0.795016 0.458037 -7.877e-22)
(0.786216 0.424472 -4.12457e-21)
(0.758292 0.335277 1.3458e-21)
(0.793001 -0.134723 1.6169e-21)
(0.763243 0.0350614 -5.88226e-21)
(0.87831 -0.389933 -1.3844e-21)
(0.836211 -0.281821 1.91612e-21)
(0.952745 -0.506456 6.60801e-23)
(0.918168 -0.464945 4.08606e-23)
(1.00287 -0.524796 0)
(0.980863 -0.523704 0)
(1.03185 -0.532208 0)
(1.02054 -0.524872 0)
(1.0402 -0.565519 0)
(1.03772 -0.547791 0)
(1.03948 -0.541238 3.30409e-21)
(1.03913 -0.568614 -3.63848e-21)
(1.03725 -0.355956 1.88947e-23)
(1.0373 -0.470751 0)
(1.04037 -0.0292166 -1.80965e-22)
(1.03566 -0.202851 -9.26873e-23)
(1.04506 0.146511 -5.39653e-21)
(0.961681 0.422454 0)
(0.941633 0.398179 -1.48895e-21)
(1.01896 0.453005 0)
(0.986558 0.439475 0)
(0.820507 0.395722 -1.3161e-20)
(0.907626 0.529536 0)
(0.952629 0.557754 2.28387e-20)
(0.915626 0.641527 4.32977e-21)
(0.956625 0.555415 -2.4008e-20)
(0.895462 0.265109 7.69283e-21)
(1.05748 0.459852 3.81947e-21)
(0.808575 0.489884 -9.77125e-22)
(0.86385 0.524753 0)
(0.784066 0.391045 -3.47727e-22)
(0.829521 0.462718 0)
(0.831286 0.421913 3.20027e-22)
(0.833029 0.502593 2.82914e-22)
(0.907509 0.603298 -1.3704e-21)
(0.961407 0.648957 2.55652e-21)
(0.945599 0.634009 -1.27877e-21)
(0.960105 0.622303 -6.35948e-21)
(0.979899 0.62457 4.84681e-21)
(0.967801 0.612228 0)
(0.849197 0.0616694 -2.44337e-22)
(0.863311 0.168364 9.25592e-22)
(0.837942 -0.174286 0)
(0.835538 -0.0543633 -2.60746e-22)
(0.869611 -0.355698 0)
(0.848091 -0.277517 0)
(0.935793 -0.427736 -1.34434e-24)
(0.90032 -0.404623 0)
(1.00572 -0.442846 1.78339e-24)
(0.972685 -0.435021 0)
(1.06064 -0.477809 2.23496e-24)
(1.0345 -0.456242 0)
(1.11607 -0.522999 0)
(1.08785 -0.500874 0)
(1.16576 -0.548566 -7.21217e-25)
(1.14272 -0.541163 0)
(1.18948 -0.47295 0)
(1.18232 -0.53182 0)
(1.15964 -0.187551 0)
(1.1826 -0.356932 0)
(1.07293 0.251189 -2.39283e-22)
(1.11769 0.0293263 -6.69059e-21)
(1.00281 0.574177 4.24119e-21)
(1.03444 0.442458 5.57755e-21)
(0.9968 0.640182 -3.34598e-21)
(0.73877 0.196042 1.67573e-23)
(0.750358 0.313843 -1.70901e-23)
(0.777201 -0.108155 2.5571e-24)
(0.747668 0.0493446 0)
(0.858737 -0.351348 0)
(0.815218 -0.243167 0)
(0.939255 -0.475042 0)
(0.901697 -0.429976 0)
(1.00079 -0.503978 0)
(0.972329 -0.497239 0)
(1.04117 -0.520745 -1.32349e-24)
(1.02416 -0.508383 0)
(1.06363 -0.560819 0)
(1.05363 -0.539869 0)
(1.07794 -0.53758 0)
(1.07137 -0.564689 0)
(1.08731 -0.353241 0)
(1.08295 -0.467982 0)
(1.09579 -0.0278257 -3.31466e-22)
(1.09136 -0.201688 0)
(1.10376 0.295083 -5.75667e-22)
(1.10087 0.150225 -6.75642e-22)
(1.09979 0.460699 -3.87854e-21)
(1.10416 0.397167 4.32097e-21)
(0.957518 0.42379 -8.64734e-22)
(0.952177 0.402099 5.45387e-22)
(0.978495 0.464962 -4.0461e-23)
(0.963296 0.4447 7.2891e-22)
(1.02588 0.490679 0)
(0.999104 0.479985 3.71001e-22)
(1.09341 0.491994 3.26385e-21)
(1.05775 0.494876 -2.91173e-21)
(0.829238 0.510035 6.60477e-23)
(0.881879 0.467199 -5.56872e-22)
(0.885709 0.425934 5.81574e-22)
(1.14338 0.455921 0)
(1.13094 0.481992 0)
(0.840284 0.538923 9.0123e-22)
(0.87611 0.593433 2.23583e-21)
(0.993107 0.609911 -4.26725e-21)
(0.971363 0.597031 5.618e-21)
(0.879059 0.507702 -9.76831e-22)
(0.916411 0.634725 -2.20531e-21)
(0.943431 0.638065 7.20401e-22)
(0.955833 0.614352 2.72269e-21)
(0.888528 0.242726 -1.93877e-24)
(0.916131 0.302405 1.90265e-21)
(0.845345 0.0492361 0)
(0.863615 0.153538 0)
(0.834507 -0.170377 -4.22533e-23)
(0.833878 -0.0601449 -1.03958e-22)
(0.869358 -0.331573 0)
(0.846304 -0.262626 0)
(0.93951 -0.393941 5.80636e-25)
(0.902022 -0.373704 0)
(1.01141 -0.41356 -2.92812e-24)
(0.977313 -0.402293 0)
(1.07128 -0.451588 -2.1929e-24)
(1.04169 -0.429663 0)
(1.13554 -0.494844 0)
(1.10226 -0.473313 0)
(1.20147 -0.52567 -1.0277e-23)
(1.16926 -0.514067 0)
(1.248 -0.470311 0)
(1.22962 -0.516418 0)
(1.23134 -0.21128 0)
(1.24974 -0.370365 0)
(1.14495 0.214825 8.86423e-23)
(1.19298 -0.00110184 8.24288e-22)
(1.05539 0.548166 -2.98627e-21)
(1.097 0.408665 -5.76573e-22)
(1.028 0.615225 2.07162e-21)
(0.896957 0.388706 -1.0847e-22)
(0.9718 0.453302 2.58982e-21)
(0.978598 0.42916 0)
(0.941097 0.401133 2.56616e-22)
(0.79136 0.356419 -1.09497e-22)
(0.841843 0.381287 -6.13603e-23)
(0.736582 0.193645 0)
(0.752813 0.293806 0)
(0.765509 -0.0800605 1.01198e-24)
(0.740666 0.0622773 0)
(0.844344 -0.312017 -7.8404e-25)
(0.80118 -0.205499 0)
(0.930368 -0.440156 0)
(0.888421 -0.390203 0)
(1.00085 -0.478927 0)
(0.967981 -0.466786 0)
(1.05117 -0.503669 1.32327e-24)
(1.02859 -0.487451 0)
(1.08711 -0.548742 0)
(1.07023 -0.525866 0)
(1.11701 -0.529329 0)
(1.10303 -0.554828 0)
(1.1387 -0.348309 0)
(1.12943 -0.462253 0)
(1.15326 -0.0230914 1.86854e-22)
(1.14855 -0.195722 -7.00458e-25)
(1.15752 0.295579 1.26603e-21)
(1.15789 0.150271 8.21211e-23)
(1.15435 0.396392 -4.31953e-21)
(0.976934 0.407345 1.31979e-21)
(0.978001 0.449867 -3.82223e-22)
(0.975917 0.4272 -7.06991e-22)
(0.994213 0.487047 -6.8309e-22)
(0.982966 0.470366 1.26256e-21)
(1.03022 0.506326 -7.33805e-22)
(1.0096 0.498943 -3.75433e-22)
(1.08351 0.501433 0)
(1.05523 0.507282 1.02612e-21)
(1.1128 0.489357 0)
(0.85386 0.570568 0)
(0.957765 0.35383 1.2005e-21)
(0.987082 0.37681 1.69956e-21)
(1.021 0.455572 0)
(0.953189 0.317692 -3.10929e-21)
(0.880402 0.54618 1.12337e-21)
(0.900939 0.607814 0)
(0.921271 0.503352 -4.71091e-22)
(0.936777 0.616942 7.50427e-22)
(1.11976 0.462651 2.98736e-21)
(0.964022 0.483598 5.81963e-22)
(0.958069 0.610392 -6.75647e-22)
(1.01281 0.471623 -3.53856e-21)
(0.952347 0.581586 0)
(0.98662 0.355279 -2.03542e-21)
(1.14056 0.470225 2.51558e-21)
(0.892726 0.215236 -5.73216e-22)
(0.910785 0.275687 1.64369e-21)
(0.846443 0.0360013 1.66534e-22)
(0.862318 0.133339 -2.11095e-22)
(0.836627 -0.164209 1.86324e-23)
(0.83484 -0.0641795 7.0428e-23)
(0.873993 -0.305145 0)
(0.849166 -0.245217 0)
(0.945976 -0.359098 -5.80636e-25)
(0.90769 -0.340535 0)
(1.01691 -0.383699 1.66673e-24)
(0.982886 -0.369385 0)
(1.07971 -0.422095 -9.30007e-25)
(1.0478 -0.401175 0)
(1.15056 -0.461729 0)
(1.11383 -0.441743 0)
(1.22857 -0.493812 8.28432e-24)
(1.18909 -0.480661 0)
(1.29763 -0.457056 0)
(1.26685 -0.490645 0)
(1.30399 -0.238244 0)
(1.31222 -0.376163 0)
(1.21522 0.168164 -8.6114e-23)
(1.26921 -0.0448073 -6.40469e-24)
(1.09434 0.50719 -1.91423e-21)
(1.15229 0.363791 2.03624e-21)
(1.00499 0.588898 0)
(1.04621 0.581261 -1.27278e-22)
(0.956441 0.522171 0)
(0.979315 0.56932 0)
(0.99997 0.404907 1.94735e-22)
(1.04659 0.44063 7.28459e-22)
(0.915462 0.35055 8.76637e-23)
(0.958889 0.372465 -1.48459e-22)
(0.811127 0.317733 2.25729e-22)
(0.864027 0.337364 9.96201e-23)
(0.743554 0.183972 4.87394e-22)
(0.766275 0.269081 -1.97313e-24)
(0.761533 -0.0532638 -9.94445e-25)
(0.743564 0.0726953 -6.10132e-22)
(0.835265 -0.272039 7.84062e-25)
(0.793699 -0.169862 0)
(0.924703 -0.402316 -4.58999e-29)
(0.87999 -0.349766 5.46372e-29)
(1.00277 -0.449632 0)
(0.965935 -0.432607 0)
(1.06179 -0.482338 0)
(1.03447 -0.462704 0)
(1.10975 -0.530727 0)
(1.0864 -0.50674 0)
(1.15407 -0.515143 0)
(1.13249 -0.538049 0)
(1.1887 -0.339578 0)
(1.17269 -0.450186 0)
(1.20978 -0.0181226 1.77787e-22)
(1.20007 -0.188573 2.80172e-21)
(1.2098 0.289875 0)
(1.21373 0.149044 -2.78978e-21)
(1.1837 0.443337 1.40701e-21)
(1.20294 0.387194 0)
(1.16902 0.462299 -3.70796e-21)
(0.923006 0.544887 1.66348e-21)
(0.910468 0.503418 -1.30519e-22)
(1.0009 0.425409 -1.40392e-21)
(1.01178 0.380604 0)
(1.00491 0.395362 9.49168e-22)
(0.99695 0.46568 2.56013e-22)
(0.997204 0.444916 4.48022e-22)
(1.00663 0.495627 0)
(0.999767 0.482669 -2.54438e-22)
(1.03188 0.507463 1.24445e-21)
(1.01703 0.503906 -6.37086e-22)
(1.07194 0.496775 0)
(1.05051 0.505057 -6.14659e-22)
(1.09513 0.483039 0)
(0.886564 0.580132 0)
(0.919196 0.537679 2.49477e-22)
(0.924724 0.601265 -7.20703e-22)
(1.09685 0.449596 -2.76121e-21)
(1.16183 0.437986 0)
(1.11828 0.427344 -6.48563e-21)
(0.956102 0.512705 3.5763e-22)
(0.950297 0.603728 0)
(0.997741 0.504848 -8.27235e-22)
(0.95027 0.597461 4.75394e-22)
(1.03889 0.505436 2.43594e-22)
(0.943811 0.568489 -1.27489e-21)
(1.07947 0.46111 -8.74085e-22)
(0.882003 0.454968 -3.59725e-22)
(0.896084 0.50653 3.67454e-22)
(1.01826 0.3533 0)
(1.03658 0.397309 6.32799e-23)
(0.675833 0.175237 1.92453e-21)
(0.951505 0.295027 -4.9699e-22)
(0.986486 0.327112 0)
(0.893724 0.188998 -1.46661e-22)
(0.920239 0.249868 -1.2485e-22)
(0.849781 0.0227399 3.42223e-28)
(0.865756 0.114008 8.32458e-23)
(0.842498 -0.156587 -1.76552e-23)
(0.839086 -0.0680869 2.15354e-23)
(0.882927 -0.277939 0)
(0.856082 -0.226493 0)
(0.954788 -0.325004 -8.05143e-26)
(0.916934 -0.307217 0)
(1.02302 -0.354107 -4.58651e-25)
(0.989975 -0.337459 0)
(1.08743 -0.390849 9.30005e-25)
(1.0541 -0.371949 0)
(1.16215 -0.425509 1.07932e-24)
(1.12338 -0.407974 0)
(1.24721 -0.454644 -1.1056e-24)
(1.20352 -0.442396 0)
(1.33122 -0.42995 0)
(1.29165 -0.454124 0)
(1.36253 -0.254406 0)
(1.35788 -0.367329 0)
(1.28199 0.111869 0)
(1.33647 -0.0871986 0)
(1.13332 0.451434 -1.57679e-24)
(1.20831 0.305026 0)
(1.01852 0.547068 -1.39471e-23)
(1.06691 0.531663 4.55169e-22)
(0.937102 0.493616 4.74346e-22)
(0.978491 0.530707 1.37427e-23)
(0.850615 0.397119 -8.44778e-22)
(0.88954 0.452638 0)
(0.822125 0.432699 0)
(0.747263 0.285361 2.28558e-20)
(0.790541 0.351002 -6.01668e-21)
(1.00171 0.368025 -4.20024e-22)
(1.08907 0.415077 -2.27257e-22)
(1.0448 0.391349 -3.78159e-23)
(0.922935 0.313049 -7.5763e-23)
(0.960567 0.339438 2.75811e-22)
(0.832427 0.273224 0)
(0.88021 0.29297 3.89313e-23)
(0.757835 0.168096 -3.96821e-25)
(0.787562 0.237702 0)
(0.764305 -0.0310927 0)
(0.751321 0.0771816 0)
(0.83156 -0.232955 0)
(0.792716 -0.137372 0)
(0.921689 -0.361974 0)
(0.875736 -0.308299 0)
(1.00522 -0.416746 0)
(0.965305 -0.395255 0)
(1.07159 -0.456536 0)
(1.04032 -0.434087 0)
(1.12959 -0.506632 0)
(1.10078 -0.482344 0)
(1.1863 -0.493934 -4.00014e-24)
(1.15834 -0.514724 0)
(1.23269 -0.325565 0)
(1.21129 -0.432402 0)
(1.2607 -0.0132413 0)
(1.2493 -0.179995 0)
(1.25938 0.278241 6.76783e-24)
(1.26472 0.147082 0)
(1.22014 0.421207 -1.24711e-21)
(1.2458 0.369899 0)
(1.19903 0.439643 1.69597e-21)
(1.02007 0.440134 -1.12366e-22)
(1.02892 0.415088 -2.08868e-21)
(1.01311 0.475859 2.42382e-22)
(1.01624 0.457178 4.03773e-22)
(1.01529 0.497334 -8.11458e-27)
(1.01254 0.488617 -2.44185e-22)
(1.03096 0.50139 -1.82013e-27)
(1.02129 0.501756 0)
(1.05892 0.484978 2.84524e-23)
(1.04367 0.495719 -2.55574e-22)
(1.07665 0.469438 1.51363e-21)
(0.920356 0.570974 0)
(1.02244 0.325764 0)
(1.17749 0.414078 -6.06715e-22)
(1.13996 0.400503 9.49443e-22)
(0.950975 0.541252 6.09091e-24)
(0.947481 0.588718 0)
(0.9854 0.534524 -3.61267e-22)
(0.958774 0.598226 -4.69994e-22)
(1.02607 0.538032 0)
(0.943039 0.592794 1.53554e-21)
(1.08254 0.501742 -1.07517e-21)
(1.13111 0.435453 -3.84673e-22)
(1.13389 0.482821 -1.08326e-21)
(0.899166 0.560772 -7.45017e-22)
(0.841008 0.494231 0)
(0.775172 0.372835 -6.83503e-22)
(0.684334 0.24278 2.59702e-21)
(0.731103 0.21313 0)
(0.725059 0.143712 -1.0975e-21)
(0.649488 0.0931255 -1.19275e-20)
(0.957978 0.268229 -8.60895e-23)
(0.989332 0.300694 0)
(0.897217 0.164192 7.47101e-24)
(0.9267 0.223523 0)
(0.855497 0.0112144 2.71192e-29)
(0.872253 0.093936 -7.61096e-24)
(0.851461 -0.147073 0)
(0.846828 -0.0711644 -3.32018e-30)
(0.895125 -0.249615 0)
(0.867592 -0.206832 0)
(0.964674 -0.292249 8.05414e-26)
(0.928991 -0.274504 -3.15106e-29)
(1.02885 -0.324975 5.32976e-25)
(0.997527 -0.307087 0)
(1.09376 -0.358461 -2.86549e-25)
(1.05991 -0.34211 -8.13385e-30)
(1.17001 -0.388033 -1.07932e-24)
(1.13046 -0.373032 0)
(1.25992 -0.413096 -2.50554e-24)
(1.21316 -0.402415 -1.1241e-28)
(1.35525 -0.397412 -3.12939e-24)
(1.30896 -0.414267 -2.39354e-28)
(1.40769 -0.260311 0)
(1.39146 -0.34998 0)
(1.344 0.0524672 0)
(1.39287 -0.121551 0)
(1.17848 0.380431 -1.50748e-24)
(1.26606 0.23411 0)
(1.02812 0.494461 8.11754e-23)
(1.09533 0.468357 -8.80085e-23)
(0.919101 0.450566 -6.8312e-22)
(0.969696 0.486752 1.32933e-22)
(0.821564 0.343985 2.96822e-21)
(0.866568 0.404733 9.06339e-23)
(0.771239 0.289112 -2.14587e-21)
(1.08839 0.372191 -3.1229e-23)
(1.18388 0.454348 8.50304e-22)
(1.17919 0.404493 -3.0405e-22)
(1.13185 0.390088 6.49289e-24)
(1.00818 0.336303 2.1265e-22)
(1.04764 0.354697 0)
(0.93696 0.28178 -3.01689e-23)
(0.970435 0.312307 -3.73272e-23)
(0.85849 0.230879 3.87658e-22)
(0.901175 0.255766 -4.38806e-23)
(0.780603 0.150944 3.91182e-25)
(0.815201 0.202121 -4.34839e-22)
(0.773884 -0.0140749 0)
(0.767027 0.0771075 0)
(0.833519 -0.195579 0)
(0.797845 -0.107982 0)
(0.921735 -0.320487 0)
(0.876095 -0.267018 0)
(1.00754 -0.381219 0)
(0.966138 -0.355983 0)
(1.07892 -0.426839 8.83582e-26)
(1.04478 -0.402233 0)
(1.14495 -0.477417 0)
(1.11172 -0.453372 0)
(1.21201 -0.467175 6.88625e-24)
(1.17875 -0.48598 0)
(1.26882 -0.306734 0)
(1.24237 -0.409445 0)
(1.30436 -0.00560115 0)
(1.28988 -0.16689 0)
(1.30081 0.270538 -6.67127e-24)
(1.30857 0.145589 0)
(1.25262 0.397843 -6.86267e-22)
(1.28091 0.352686 1.29361e-21)
(1.22133 0.40926 -2.36816e-22)
(1.06265 0.412951 -5.01705e-22)
(1.08061 0.366128 -3.24819e-22)
(1.07255 0.390904 4.2163e-22)
(1.04049 0.454592 6.65284e-22)
(1.05189 0.432217 9.77338e-22)
(1.02569 0.485287 0)
(1.03267 0.469497 0)
(1.0198 0.498176 8.11476e-27)
(1.02146 0.493498 0)
(1.0266 0.493883 -1.15264e-27)
(1.02166 0.498404 0)
(1.04478 0.470666 -6.57809e-23)
(1.0344 0.484485 0)
(1.07224 0.432369 8.47573e-22)
(1.05734 0.453125 -1.00701e-21)
(1.10564 0.383252 -1.279e-21)
(1.08836 0.409755 2.32918e-21)
(0.948652 0.567408 2.35146e-28)
(0.97648 0.5596 -6.41514e-22)
(0.960979 0.593081 0)
(1.01199 0.56496 3.82447e-22)
(0.951907 0.609289 4.06852e-22)
(1.07439 0.365415 1.29429e-22)
(1.12001 0.354144 2.79707e-23)
(1.08645 0.337758 3.67809e-23)
(1.06838 0.551004 1.38222e-21)
(1.12079 0.537689 0)
(1.17649 0.509713 1.10837e-21)
(1.23153 0.41642 0)
(1.23597 0.471418 0)
(0.922897 0.593533 -3.62466e-22)
(0.863594 0.543262 4.51825e-23)
(0.78679 0.443155 6.02739e-22)
(0.704173 0.304737 1.7867e-22)
(0.634519 0.136985 1.33643e-21)
(1.08628 0.339925 1.54958e-23)
(0.714897 0.0862325 1.91054e-21)
(0.642054 0.0251688 6.56582e-21)
(0.73726 0.036161 0)
(1.1088 0.383426 -5.29133e-22)
(1.11481 0.360502 -1.59216e-23)
(1.02729 0.300216 2.32567e-22)
(1.05775 0.321204 -1.93316e-22)
(0.964495 0.241559 1.22033e-22)
(0.995923 0.273623 -9.93084e-23)
(0.903029 0.140322 -1.9854e-22)
(0.932988 0.197564 2.98564e-22)
(0.86385 0.000422752 -1.2875e-27)
(0.87949 0.0735607 0)
(0.864114 -0.13659 -2.52926e-28)
(0.857588 -0.0722591 0)
(0.910163 -0.221304 0)
(0.882414 -0.186153 0)
(0.974843 -0.26204 0)
(0.942477 -0.24366 0)
(1.03426 -0.29685 -5.96207e-25)
(1.00485 -0.278889 0)
(1.09794 -0.326188 2.86556e-25)
(1.06479 -0.312458 0)
(1.17185 -0.349902 -1.16281e-29)
(1.13359 -0.338138 1.36364e-29)
(1.26047 -0.367501 0)
(1.21403 -0.360352 0)
(1.36101 -0.355675 1.48358e-24)
(1.31065 -0.367823 0)
(1.43435 -0.254373 0)
(1.40555 -0.321379 0)
(1.39936 -0.00277945 -2.97936e-24)
(1.43489 -0.146086 0)
(1.23528 0.296396 -2.07199e-24)
(1.32734 0.156916 0)
(1.05815 0.427971 -1.06903e-24)
(1.14052 0.389639 0)
(0.924399 0.399156 2.60659e-22)
(0.986059 0.42635 0)
(0.83043 0.303914 4.19749e-23)
(0.870565 0.357792 -2.63353e-22)
(0.777483 0.195316 -1.61136e-21)
(0.793984 0.252049 1.48322e-21)
(0.788118 0.10118 0)
(0.78339 0.145476 -8.27487e-22)
(1.17363 0.358032 4.49039e-23)
(1.28718 0.423442 7.93585e-22)
(1.27108 0.370339 2.47259e-22)
(1.22008 0.366561 -7.05066e-23)
(1.08857 0.33436 -3.88112e-22)
(1.12946 0.348563 0)
(1.01408 0.301212 6.19103e-23)
(1.0508 0.318308 2.19148e-22)
(0.948381 0.25296 2.83087e-23)
(0.979815 0.281548 -1.12466e-22)
(0.884608 0.193954 -9.08964e-25)
(0.91911 0.222997 -1.47922e-28)
(0.811173 0.12668 0)
(0.846586 0.165413 0)
(0.789727 -0.00242502 1.12089e-24)
(0.79075 0.0705065 -1.41501e-28)
(0.839434 -0.160355 0)
(0.807714 -0.0822054 0)
(0.924253 -0.279264 0)
(0.879778 -0.226865 0)
(1.00996 -0.344672 0)
(0.968352 -0.316409 0)
(1.0838 -0.394728 3.53611e-25)
(1.04805 -0.368665 0)
(1.15539 -0.44452 0)
(1.11901 -0.421261 0)
(1.22984 -0.436019 -2.8861e-24)
(1.19282 -0.453074 0)
(1.29544 -0.283477 0)
(1.26437 -0.381759 0)
(1.33876 0.00338073 0)
(1.32132 -0.149799 0)
(1.33308 0.256434 1.38011e-21)
(1.34374 0.144577 -1.48307e-21)
(1.27517 0.368619 -1.6974e-22)
(1.30853 0.330234 -9.51852e-24)
(1.19498 0.380084 2.23694e-22)
(1.23729 0.380748 1.60679e-22)
(1.15594 0.368468 0)
(1.08733 0.42952 0)
(1.09889 0.407621 5.14419e-22)
(1.05809 0.471213 0)
(1.07353 0.450012 0)
(1.03515 0.496609 0)
(1.04639 0.484277 0)
(1.01997 0.501748 0)
(1.02624 0.500778 0)
(1.01805 0.489158 -1.51953e-26)
(1.01757 0.497721 0)
(1.02779 0.459707 1.00841e-22)
(1.02166 0.476153 -2.71559e-23)
(1.04707 0.416678 -7.35055e-22)
(1.03599 0.439694 0)
(1.06001 0.392315 -5.86187e-22)
(0.968551 0.579623 0)
(0.811218 0.0561049 -9.39874e-22)
(0.766329 -0.00193907 4.88731e-21)
(0.832936 0.0133518 1.16203e-20)
(0.997268 0.58762 -4.32583e-22)
(0.966451 0.610972 -2.26358e-28)
(1.04431 0.349314 -1.37207e-22)
(1.05518 0.322325 -1.47511e-22)
(1.04577 0.586163 4.46628e-22)
(1.10121 0.582098 0)
(1.16451 0.560065 1.22236e-21)
(1.23342 0.52817 1.23266e-21)
(1.2966 0.481533 -2.04613e-21)
(1.32496 0.365146 -1.88446e-23)
(1.34694 0.421657 1.16232e-21)
(0.884598 0.589325 1.04478e-26)
(0.80602 0.50525 4.63636e-23)
(0.723094 0.369484 -1.52302e-22)
(0.641648 0.202373 1.86515e-22)
(0.59861 0.0389133 0)
(0.666965 -0.0379727 3.03497e-21)
(1.13875 0.396604 -8.77846e-22)
(1.14777 0.367381 -2.80299e-22)
(1.09613 0.306147 9.95362e-25)
(1.09745 0.30864 6.98101e-22)
(1.13159 0.322965 -1.5971e-22)
(1.11541 0.341092 -4.4133e-22)
(0.939664 0.620179 -2.30189e-28)
(1.03414 0.26934 -2.24251e-22)
(1.06075 0.298301 1.88034e-22)
(0.969946 0.212338 0)
(0.999446 0.247807 1.8146e-22)
(0.910886 0.117253 1.91148e-27)
(0.938142 0.171343 8.57186e-24)
(0.874471 -0.0083807 -4.75628e-28)
(0.887936 0.0548182 0)
(0.880211 -0.1239 2.52925e-28)
(0.871298 -0.071323 0)
(0.926882 -0.194093 0)
(0.900067 -0.164862 0)
(0.984791 -0.234833 0)
(0.956285 -0.215585 0)
(1.0398 -0.269795 0)
(1.01201 -0.252798 0)
(1.10141 -0.295119 -1.29044e-24)
(1.06951 -0.283564 -8.17252e-29)
(1.17184 -0.313876 0)
(1.13542 -0.304956 0)
(1.25607 -0.324199 1.26398e-29)
(1.21197 -0.320698 -1.48171e-29)
(1.35396 -0.311152 1.64602e-24)
(1.30409 -0.322178 -4.80941e-29)
(1.43965 -0.235225 -1.04714e-28)
(1.4018 -0.284693 1.22659e-28)
(1.44031 -0.0441877 2.97915e-24)
(1.45601 -0.154786 1.50951e-28)
(1.30476 0.209981 0)
(1.38667 0.0863871 0)
(1.1216 0.350892 -8.42963e-25)
(1.21029 0.302687 -1.36247e-28)
(0.97932 0.344855 0)
(1.04332 0.361017 0)
(0.897166 0.272401 0)
(0.92994 0.312595 0)
(0.870322 0.188984 1.30316e-21)
(0.872792 0.232653 -8.45827e-22)
(0.885082 0.11081 -8.76296e-22)
(0.876127 0.150678 1.31937e-21)
(0.814641 -0.0338901 -8.2725e-21)
(0.899977 0.0143478 4.54726e-21)
(0.896603 0.0653789 -9.194e-21)
(1.25191 0.323043 -1.86026e-22)
(1.381 0.352238 1.87531e-23)
(1.34705 0.302342 1.65336e-22)
(1.29884 0.316413 0)
(1.16514 0.318532 9.50356e-23)
(1.20722 0.322119 -1.59327e-22)
(1.08794 0.299925 1.73834e-22)
(1.12488 0.311423 0)
(1.01997 0.269898 -6.34207e-23)
(1.05323 0.285951 1.39916e-22)
(0.95886 0.226746 0)
(0.988852 0.251857 0)
(0.907085 0.165249 1.35868e-24)
(0.933164 0.19694 0)
(0.846899 0.100218 1.59514e-28)
(0.877942 0.134201 -1.89785e-28)
(0.813716 0.00145561 2.85847e-25)
(0.823146 0.057081 0)
(0.847535 -0.128871 1.53494e-28)
(0.822797 -0.0624827 -1.82679e-28)
(0.925454 -0.238967 0)
(0.883461 -0.188747 0)
(1.01005 -0.307986 1.08384e-24)
(0.968533 -0.27718 -1.48294e-28)
(1.08575 -0.361367 -4.41971e-25)
(1.04872 -0.334394 0)
(1.16092 -0.40932 3.24434e-29)
(1.12259 -0.387265 -3.86511e-29)
(1.23926 -0.401909 6.22987e-25)
(1.20005 -0.41749 0)
(1.3126 -0.256223 0)
(1.27668 -0.350065 0)
(1.3641 0.0131513 3.05706e-24)
(1.34299 -0.128343 0)
(1.35481 0.240836 -2.19935e-22)
(1.36778 0.142716 1.03225e-21)
(1.29055 0.335281 9.18822e-23)
(1.32794 0.302728 -8.00258e-22)
(1.20782 0.343476 -3.60911e-22)
(1.25071 0.345491 0)
(1.16934 0.333524 1.30828e-22)
(1.11155 0.446481 0)
(1.12647 0.422784 8.44792e-22)
(1.07433 0.488061 -2.29726e-22)
(1.09291 0.468594 0)
(1.04119 0.509171 0)
(1.05836 0.499898 2.26624e-22)
(1.01618 0.507799 0)
(1.02739 0.51001 0)
(1.00547 0.487853 -1.46263e-26)
(1.00928 0.499944 0)
(1.0086 0.451748 -1.5644e-22)
(1.00548 0.471648 2.74365e-23)
(1.02239 0.403352 -1.97133e-22)
(1.01423 0.428525 2.82946e-22)
(1.03229 0.377133 0)
(0.981338 0.603978 0)
(1.06586 0.295424 0)
(1.02029 0.611675 0)
(1.07203 0.616088 1.6581e-26)
(1.13933 0.60386 0)
(1.2121 0.582629 -2.07664e-21)
(1.2865 0.540877 8.6963e-22)
(1.35506 0.482398 -3.51149e-22)
(0.846054 0.554622 -1.81824e-26)
(0.75011 0.433013 -6.35798e-26)
(0.657113 0.26193 -2.14133e-22)
(0.587128 0.0763585 6.85849e-22)
(1.40685 0.408112 0)
(1.39338 0.278385 2.19967e-22)
(1.43459 0.326147 0)
(0.594349 -0.0568417 -2.84926e-21)
(0.725381 -0.0720282 -9.51451e-21)
(0.891782 -0.0394586 -5.36205e-23)
(1.14727 0.332519 2.30127e-21)
(0.965045 0.629863 4.94824e-28)
(0.866554 -0.0500528 1.31468e-21)
(0.920781 0.618642 5.04264e-28)
(1.04085 0.229614 -5.80924e-21)
(1.09373 0.285364 3.69111e-22)
(1.13861 0.308015 -5.13338e-21)
(1.03522 0.244856 0)
(1.06964 0.266636 4.42671e-22)
(0.973486 0.186047 1.37007e-26)
(1.00539 0.216963 -6.61769e-23)
(0.918088 0.0959732 -3.47763e-27)
(0.943639 0.14205 1.56964e-27)
(0.88769 -0.0142207 -3.79978e-28)
(0.898003 0.0384261 0)
(0.899343 -0.109546 2.08683e-28)
(0.887972 -0.0676341 -2.45039e-28)
(0.943879 -0.169319 0)
(0.91936 -0.143771 0)
(0.994032 -0.210692 0)
(0.969285 -0.190946 0)
(1.04507 -0.243942 1.03667e-28)
(1.0188 -0.228579 -1.21673e-28)
(1.10332 -0.265693 1.29051e-24)
(1.07336 -0.255924 0)
(1.16894 -0.279808 8.00244e-29)
(1.13505 -0.273594 -9.38442e-29)
(1.24627 -0.283383 1.12054e-24)
(1.20599 -0.283294 0)
(1.33591 -0.266955 -6.83038e-25)
(1.28994 -0.278618 0)
(1.42294 -0.206443 0)
(1.38201 -0.244417 0)
(1.45408 -0.06563 4.72572e-25)
(1.45026 -0.147269 0)
(1.36721 0.136265 -4.49799e-29)
(1.42564 0.0345384 5.264e-29)
(1.2082 0.27493 6.54484e-24)
(1.28897 0.221457 0)
(1.07389 0.293592 2.77124e-28)
(1.13439 0.296572 -3.2412e-28)