/*--------------------------------*- C++ -*----------------------------------*\
  =========                 |
  \\      /  F ield         | OpenFOAM: The Open Source CFD Toolbox
   \\    /   O peration     | Website:  https://openfoam.org
    \\  /    A nd           | Version:  10
     \\/     M anipulation  |
\*---------------------------------------------------------------------------*/
FoamFile
{
    format      ascii;
    class       volVectorField;
    location    "14.5";
    object      U;
}
// * * * * * * * * * * * * * * * * * * * * * * * * * * * * * * * * * * * * * //

dimensions      [0 1 -1 0 0 0 0];

internalField   nonuniform List<vector> 
25879
(
(1.09437 0.0374584 3.7561e-21)
(1.09037 0.0369901 -6.05289e-21)
(1.09067 0.033543 1.06838e-20)
(1.09449 0.0339959 -1.04439e-20)
(0.930964 -0.453583 8.43129e-24)
(0.921288 -0.416606 3.83179e-22)
(1.31558 0.17046 0)
(1.29874 0.171848 -7.35451e-21)
(1.27851 0.164495 0)
(1.28485 0.154357 0)
(1.39915 0.215617 -3.65603e-21)
(1.36329 0.197554 1.02796e-20)
(1.44136 0.232655 -8.31695e-20)
(0.0325253 -0.201095 2.73397e-20)
(0.0870092 -0.212499 -4.04208e-20)
(1.00187 0.505523 -2.12412e-20)
(1.05618 0.634916 -2.49946e-20)
(1.24282 -0.673371 3.87962e-20)
(1.37386 -0.640318 -3.28592e-20)
(0.464806 -0.132305 6.64019e-20)
(0.453127 -0.287118 2.99434e-19)
(0.374356 0.711215 -1.18889e-19)
(0.641694 0.630874 1.00134e-19)
(1.03761 0.0400302 3.65802e-21)
(1.04303 0.0449008 4.65389e-21)
(1.03688 0.0442975 3.43271e-22)
(1.03052 0.0368951 -6.66363e-23)
(1.03503 0.0327792 -4.72367e-21)
(1.03086 0.0329959 -6.63864e-21)
(1.04051 0.0372751 -2.65174e-21)
(1.04627 0.0422335 3.05147e-20)
(-0.0557757 -0.0802369 4.10743e-20)
(-0.0539474 -0.0605444 -1.76386e-20)
(-0.0991564 -0.145738 2.62563e-20)
(0.858742 -0.0784456 -1.76831e-20)
(1.08096 0.0373102 -1.25858e-21)
(1.08319 0.0631977 1.17756e-21)
(1.52133 -0.0636885 2.53166e-21)
(1.52874 -0.0821988 3.37241e-20)
(1.52798 0.303687 -6.00149e-20)
(1.49183 0.283013 -7.88176e-21)
(1.44122 0.297878 -9.38205e-21)
(0.988953 -0.255955 -1.65469e-20)
(0.980359 -0.233087 0)
(0.978744 -0.213595 -1.4442e-21)
(1.42252 -0.318311 0)
(1.4341 -0.308202 3.71713e-20)
(0.182926 0.0102577 8.38086e-20)
(0.484944 0.0311304 4.23772e-21)
(0.645334 0.0806114 0)
(1.17002 -0.454088 2.52985e-21)
(1.17507 -0.41273 -9.81517e-21)
(0.754712 0.257095 -1.20822e-19)
(0.999967 0.419731 0)
(0.614854 0.00305104 -2.81083e-23)
(0.603134 0.00151742 0)
(0.643184 0.00313612 1.41254e-22)
(0.842604 0.226543 -9.21692e-20)
(0.841094 0.201607 8.92359e-20)
(0.886401 0.182229 -1.72024e-19)
(0.890538 0.221348 1.61131e-19)
(0.893506 0.338611 9.04072e-22)
(0.907885 0.274465 -4.31299e-21)
(0.755681 -0.00149993 -2.90073e-22)
(0.815743 -0.00188586 5.71401e-22)
(0.778052 -0.000801463 -4.07773e-22)
(-0.0849092 -0.0382348 1.64433e-21)
(-0.0665567 -0.049174 0)
(-0.0476383 -0.0420365 0)
(-0.0636666 -0.191138 8.26327e-20)
(-0.0723745 -0.145214 -2.27096e-19)
(1.00647 0.0286908 1.23476e-20)
(1.01035 0.0403767 0)
(1.01364 0.0442772 -6.82997e-21)
(1.06514 -0.109356 4.12005e-20)
(1.01922 -0.123669 0)
(1.00434 -0.0842573 1.61164e-20)
(1.08274 0.0301053 0)
(1.08105 0.0242535 6.80963e-21)
(1.08525 0.0266256 7.02548e-21)
(0.96517 -0.245038 0)
(0.972801 -0.276737 4.16603e-20)
(0.326557 0.225542 6.36209e-20)
(0.502921 0.176981 3.33979e-19)
(0.423981 0.35371 0)
(0.998756 -0.0137955 1.4313e-20)
(1.0003 -0.0184641 -1.34137e-20)
(1.00497 -0.0212931 0)
(1.13071 0.0770088 1.40213e-21)
(1.12374 0.0706892 -3.8084e-23)
(0.00578319 -0.133434 -1.02085e-19)
(0.126647 -0.127998 1.22708e-19)
(-0.0252357 -0.105773 2.99499e-20)
(1.04306 0.036295 1.21966e-20)
(1.0387 0.0317558 -3.69879e-22)
(1.01032 -0.467034 8.50324e-21)
(0.983134 -0.476982 -2.02736e-21)
(0.962824 -0.435344 6.44956e-22)
(1.01791 -0.0115665 -2.40351e-20)
(0.996901 -0.0430564 -1.1882e-21)
(0.939706 -0.0375871 2.33781e-21)
(0.889692 -0.0492592 1.35353e-20)
(1.12903 0.0829838 1.54907e-21)
(1.13338 0.0856135 -3.60743e-23)
(1.13802 0.0822675 -7.36054e-23)
(1.07266 -0.0782721 6.99971e-21)
(1.05488 -0.0630118 -2.0706e-21)
(1.17107 -0.527823 -1.65276e-20)
(1.07821 -0.660773 1.90565e-20)
(1.09442 0.0895931 -4.22428e-22)
(1.10563 0.113369 2.00432e-22)
(1.29282 0.0415721 5.72707e-21)
(1.28337 0.0345891 0)
(1.06716 -0.0106158 4.16459e-22)
(1.06564 -0.0115678 -5.35492e-22)
(1.05974 0.177201 -2.22457e-21)
(1.0707 0.189356 2.38159e-21)
(1.38312 0.187011 1.38547e-20)
(1.23798 0.293609 1.22549e-22)
(1.21405 0.264439 -1.40656e-21)
(1.20785 0.238769 1.11556e-20)
(1.47206 -0.272456 -5.01701e-21)
(1.47125 -0.261596 0)
(1.42494 0.35913 -2.95824e-20)
(1.42445 0.342269 6.16518e-20)
(0.272434 -0.0982454 -5.90128e-20)
(0.512134 -0.0632031 0)
(-0.136371 -0.265134 -1.44767e-20)
(-0.0800879 -0.26511 0)
(-0.0563211 -0.252906 0)
(-0.11808 -0.25065 -8.48343e-20)
(-0.112807 -0.213073 1.62181e-19)
(0.905365 -0.0713572 0)
(0.919132 -0.0878811 9.98876e-20)
(0.934271 -0.0674576 3.1237e-20)
(0.924752 -0.0559521 -2.58121e-20)
(1.08848 0.0306786 -1.58359e-20)
(1.08611 0.0336226 1.00561e-20)
(1.30347 0.157666 -9.23071e-21)
(0.629647 -0.00326542 -6.61889e-23)
(0.914354 0.173109 2.84522e-21)
(0.92522 0.165593 0)
(0.929772 0.175663 5.0655e-22)
(0.930299 0.18273 0)
(0.944311 0.191976 0)
(0.953432 0.199556 -1.63935e-21)
(0.961994 0.208766 -1.03083e-22)
(0.969016 0.218201 3.77245e-21)
(0.974779 0.228506 -1.89994e-21)
(0.979135 0.239284 2.01669e-21)
(0.982291 0.250554 1.84874e-23)
(0.984099 0.262035 -2.0354e-21)
(0.984824 0.273512 0)
(0.984206 0.284753 1.94488e-21)
(0.982441 0.295493 -1.92318e-21)
(0.979162 0.305435 0)
(0.974478 0.314276 -1.54208e-21)
(0.967943 0.321565 1.55946e-21)
(0.959614 0.326929 -1.07569e-21)
(0.94899 0.32972 1.86798e-21)
(0.93613 0.329498 -1.18544e-21)
(0.920506 0.325417 4.31e-22)
(0.902254 0.317029 -1.22404e-23)
(0.880866 0.303365 0)
(0.856628 0.284095 0)
(0.829115 0.258279 1.96606e-21)
(0.79885 0.225889 5.08585e-22)
(0.765582 0.186257 -2.48039e-21)
(0.730197 0.139874 -3.34168e-21)
(0.69282 0.0866468 3.37781e-21)
(0.654917 0.0277992 -3.92206e-21)
(0.61702 -0.035592 4.11771e-21)
(0.580474 -0.101379 -3.04595e-22)
(0.546461 -0.168737 0)
(0.518251 -0.235236 0)
(0.499938 -0.297191 -1.0261e-21)
(0.491827 -0.347848 -3.37901e-21)
(0.514827 -0.243183 0)
(0.505386 -0.298072 3.03835e-22)
(0.512116 -0.282743 -1.62057e-21)
(0.942902 0.15801 -4.76807e-22)
(0.933025 0.149132 2.07611e-22)
(0.916775 0.157556 0)
(0.492527 -0.340877 0)
(0.57319 -0.146216 0)
(0.538348 -0.216453 2.66254e-21)
(0.652954 -0.00714013 5.42272e-21)
(0.612544 -0.0755303 2.98832e-22)
(0.732882 0.116785 4.63239e-22)
(0.693675 0.057814 -1.04349e-20)
(0.805671 0.214703 0)
(0.770743 0.169553 4.60382e-21)
(0.86714 0.283307 -5.24777e-21)
(0.838195 0.252863 2.84332e-21)
(0.915736 0.324167 1.08795e-21)
(0.893274 0.307141 2.23006e-21)
(0.951667 0.341822 5.2913e-23)
(0.9354 0.335682 -1.05179e-21)
(0.976324 0.342024 0)
(0.965441 0.343843 -5.11541e-23)
(0.991724 0.330329 0)
(0.98518 0.337422 0)
(0.999962 0.311285 -1.70672e-21)
(0.996733 0.321538 0)
(1.00282 0.2882 -1.92288e-21)
(1.00208 0.300114 1.64996e-21)
(1.00154 0.263323 2.01368e-21)
(1.00275 0.275887 1.85892e-21)
(0.996661 0.238265 2.00931e-21)
(0.999666 0.250725 -1.94668e-21)
(0.987927 0.21444 1.925e-21)
(0.992949 0.226093 -1.94176e-21)
(0.974515 0.193129 1.77995e-21)
(0.981931 0.203336 -1.83731e-21)
(0.957565 0.175276 0)
(0.965041 0.183782 -1.74241e-21)
(0.949778 0.166485 9.21495e-23)
(0.921972 0.199657 0)
(0.90313 0.181685 -1.67581e-21)
(0.913627 0.190857 0)
(0.939638 0.215111 -1.57402e-21)
(0.931281 0.207212 1.61172e-21)
(0.953469 0.231512 -5.80972e-23)
(0.947422 0.223033 -1.12878e-25)
(0.962329 0.250275 -4.05576e-21)
(0.958406 0.240641 1.94208e-21)
(0.964997 0.270293 0)
(0.963972 0.260231 1.98938e-21)
(0.961549 0.28951 0)
(0.963577 0.280086 0)
(0.951567 0.305389 -1.80939e-21)
(0.95696 0.297925 0)
(0.934014 0.314804 -1.45032e-21)
(0.943352 0.310958 1.75393e-21)
(0.907452 0.313789 -9.21625e-22)
(0.921473 0.315661 1.40586e-21)
(0.870429 0.297561 0)
(0.889828 0.307636 8.9338e-22)
(0.821999 0.261034 -5.61363e-22)
(0.847151 0.281855 0)
(0.762438 0.199957 2.19264e-23)
(0.793012 0.233476 5.54796e-22)
(0.694278 0.112728 1.67446e-21)
(0.72867 0.159319 -1.6316e-21)
(0.623549 0.00256364 -4.53845e-21)
(0.658341 0.0599182 2.10424e-21)
(0.55935 -0.11976 4.95932e-23)
(0.589591 -0.0580719 2.26341e-21)
(0.53363 -0.18285 0)
(0.905925 0.164079 2.6585e-22)
(0.909952 0.147554 -1.5398e-23)
(0.924069 0.14005 8.08352e-23)
(0.474381 -0.389488 2.12904e-21)
(0.482322 -0.389951 -3.32538e-21)
(0.481495 -0.379004 -2.74484e-21)
(0.467268 -0.435111 0)
(0.462596 -0.431292 3.36937e-21)
(0.509473 -0.337208 -2.05814e-22)
(0.523407 -0.243697 1.99105e-23)
(0.524408 -0.286853 -2.07123e-22)
(0.893533 0.185255 -6.23509e-22)
(0.897355 0.168976 -6.14102e-22)
(0.892817 0.170508 2.38751e-22)
(0.896139 0.154062 2.8849e-22)
(0.901187 0.152125 -1.66614e-22)
(0.538186 -0.254707 -3.74407e-21)
(0.508022 -0.320313 1.86909e-21)
(0.613497 -0.112698 -5.36205e-22)
(0.573214 -0.184906 2.09452e-21)
(0.698756 0.0284164 0)
(0.656135 -0.0406558 0)
(0.779436 0.150148 1.53268e-21)
(0.739887 0.0924543 -5.90155e-24)
(0.850376 0.243805 -1.16382e-21)
(0.816242 0.20073 -1.47161e-21)
(0.908504 0.307277 0)
(0.88103 0.279252 1.11758e-21)
(0.952803 0.342805 0)
(0.932269 0.328253 0)
(0.983967 0.35547 0)
(0.969835 0.35161 0)
(1.00392 0.351403 -1.27021e-23)
(0.995116 0.355145 1.21975e-23)
(1.01509 0.336311 -2.10768e-22)
(1.01038 0.344922 2.02393e-22)
(1.01983 0.314691 -3.48505e-22)
(1.01807 0.326094 3.34656e-22)
(1.02006 0.289671 0)
(1.02037 0.302463 0)
(1.0171 0.263244 0)
(1.01888 0.276548 0)
(1.01165 0.236671 -5.07725e-22)
(1.01465 0.249916 4.87545e-22)
(1.00365 0.210974 0)
(1.00803 0.22364 0)
(0.992163 0.187208 -2.38408e-22)
(0.998593 0.19875 0)
(0.977243 0.166559 0)
(0.984983 0.176508 0)
(0.960321 0.147996 4.27676e-22)
(0.969003 0.157064 -4.38977e-22)
(0.940923 0.130781 0)
(0.950915 0.139402 -2.00384e-22)
(0.903167 0.20661 -2.61021e-22)
(0.897534 0.197206 2.72791e-22)
(0.917195 0.222486 7.24054e-22)
(0.909787 0.214977 -7.26625e-22)
(0.930628 0.236808 5.96516e-23)
(0.924239 0.229647 2.47997e-26)
(0.93972 0.252117 -1.01777e-21)
(0.935877 0.244269 9.68742e-22)
(0.942399 0.268454 -1.09119e-21)
(0.941861 0.260253 1.03863e-21)
(0.937966 0.284016 -1.11751e-21)
(0.941005 0.276502 1.06369e-21)
(0.925976 0.296078 -1.08752e-21)
(0.932858 0.290691 1.03515e-21)
(0.905648 0.3013 -9.90688e-22)
(0.916821 0.299786 9.42987e-22)
(0.875911 0.295693 -8.19102e-22)
(0.891928 0.300128 7.79671e-22)
(0.835822 0.274721 -5.73542e-22)
(0.857105 0.287419 5.4594e-22)
(0.785216 0.233893 -2.71201e-22)
(0.811705 0.257032 2.58153e-22)
(0.72556 0.170001 7.22594e-23)
(0.756263 0.204917 -1.07095e-23)
(0.66094 0.0829495 2.46528e-22)
(0.693425 0.129166 -1.21444e-22)
(0.598782 -0.0224334 -4.25413e-24)
(0.628917 0.031948 -1.48978e-22)
(0.548589 -0.135955 -4.95775e-23)
(0.571477 -0.0790762 0)
(0.531902 -0.191641 0)
(0.506365 -0.385766 4.91889e-22)
(0.896616 0.151901 -6.3342e-23)
(0.487573 -0.428186 -8.80688e-22)
(0.932143 0.121622 1.78726e-22)
(0.958914 0.120871 -1.91201e-22)
(0.949471 0.112088 2.57665e-23)
(0.469214 -0.469589 0)
(0.451966 -0.473944 1.41577e-22)
(0.541573 -0.320055 7.73774e-24)
(0.573358 -0.342356 -2.47167e-22)
(0.538963 -0.367959 2.67542e-22)
(0.904968 0.135749 2.14257e-23)
(0.916507 0.130007 1.85683e-23)
(0.898838 0.136208 -6.55559e-23)
(0.899311 0.137913 -9.27105e-24)
(0.503084 -0.355743 3.93073e-22)
(0.451123 -0.46459 -1.7545e-21)
(0.473463 -0.415101 1.15611e-21)
(0.578181 -0.217468 1.59842e-22)
(0.538454 -0.289217 0)
(0.664439 -0.0701127 5.51527e-22)
(0.620486 -0.143745 -2.69077e-22)
(0.752166 0.0698843 0)
(0.708868 0.00204089 0)
(0.832234 0.187044 0)
(0.793545 0.131938 0)
(0.900114 0.274597 0)
(0.867922 0.234771 0)
(0.953445 0.331198 0)
(0.928702 0.306701 0)
(0.991855 0.359924 0)
(0.974482 0.348748 0)
(1.01685 0.366602 0)
(1.0059 0.365621 0)
(1.03104 0.357773 0)
(1.02512 0.363744 0)
(1.03729 0.339196 0)
(1.03499 0.349401 0)
(1.03813 0.315173 0)
(1.03826 0.327656 0)
(1.03544 0.288549 0)
(1.03713 0.302056 0)
(1.03052 0.261022 0)
(1.03321 0.274823 0)
(1.02405 0.233547 0)
(1.02748 0.247226 0)
(1.01615 0.206776 0)
(1.02037 0.220008 0)
(1.00618 0.181403 2.47678e-22)
(1.01172 0.193813 0)
(0.993448 0.158472 0)
(1.00044 0.169513 -1.21999e-22)
(0.977438 0.138575 0)
(0.985947 0.148176 -3.69973e-24)
(0.968524 0.12954 -5.45231e-23)
(0.889636 0.1848 1.74363e-22)
(0.903953 0.145468 -1.26196e-23)
(0.894597 0.167002 6.89129e-23)
(0.889093 0.211244 -3.75432e-23)
(0.887859 0.199554 2.84606e-23)
(0.896931 0.229214 0)
(0.892213 0.221087 7.97098e-26)
(0.907609 0.242727 0)
(0.902256 0.236259 -2.5217e-26)
(0.91584 0.255194 0)
(0.912277 0.248961 0)
(0.918125 0.267731 0)
(0.917828 0.261485 0)
(0.912795 0.279173 0)
(0.916423 0.273729 0)
(0.899097 0.286876 0)
(0.906977 0.283686 0)
(0.876423 0.287386 0)
(0.888867 0.288255 0)
(0.844148 0.276719 0)
(0.861459 0.283692 0)
(0.802011 0.250654 0)
(0.824237 0.265841 0)
(0.750793 0.205422 0)
(0.777365 0.230585 0)
(0.693128 0.138967 0)
(0.72245 0.174822 0)
(0.634211 0.0525858 0)
(0.663329 0.0979596 0)
(0.582221 -0.0475998 4.32358e-24)
(0.606701 0.0035471 0)
(0.547753 -0.149354 1.04318e-22)
(0.561951 -0.0992377 0)
(0.544063 -0.237258 1.52451e-23)
(0.541249 -0.19622 -1.00822e-22)
(0.582543 -0.296086 -1.24663e-21)
(0.556652 -0.270219 -6.89585e-23)
(0.449899 -0.505444 4.27503e-22)
(0.43601 -0.504955 1.37806e-21)
(0.904664 0.130407 0)
(0.51952 -0.411261 -3.49229e-22)
(0.923779 0.111862 -9.74219e-23)
(0.940432 0.103014 1.99485e-22)
(0.500127 -0.45491 0)
(0.478641 -0.494156 -1.0842e-21)
(0.619691 -0.312486 6.87816e-22)
(0.611402 -0.357236 2.5817e-22)
(0.919859 0.133252 3.87322e-23)
(0.454807 -0.527878 0)
(0.429329 -0.534211 -5.80686e-22)
(0.917728 0.120272 1.33332e-22)
(0.937815 0.106114 -1.34615e-22)
(0.659762 -0.324929 -1.02393e-21)
(0.562152 -0.386993 0)
(0.902273 0.121966 -2.5785e-23)
(0.910516 0.118658 -9.27183e-23)
(0.905253 0.115881 0)
(0.900635 0.121092 2.41584e-24)
(0.93616 0.0919637 0)
(0.917276 0.105749 0)
(0.468113 -0.441826 0)
(0.421003 -0.52685 1.53215e-21)
(0.440935 -0.488972 -1.00382e-21)
(0.540262 -0.320314 1.88912e-21)
(0.501513 -0.385661 -2.47123e-21)
(0.629917 -0.173016 -8.45523e-22)
(0.584119 -0.248068 6.80335e-22)
(0.723779 -0.0229404 0)
(0.67732 -0.0969095 0)
(0.812772 0.113635 0)
(0.76935 0.047973 0)
(0.890697 0.224906 0)
(0.853461 0.17301 0)
(0.953702 0.304875 0)
(0.924251 0.268998 0)
(1.00024 0.353282 0)
(0.979062 0.332881 0)
(1.03108 0.374381 0)
(1.01751 0.366885 0)
(1.04876 0.374793 0)
(1.04138 0.376746 0)
(1.05659 0.361329 0)
(1.05371 0.369416 0)
(1.05768 0.339603 0)
(1.05781 0.351215 0)
(1.05456 0.313589 0)
(1.05652 0.326946 0)
(1.049 0.285772 0)
(1.052 0.299797 0)
(1.04213 0.25754 0)
(1.04568 0.27165 0)
(1.03455 0.229585 0)
(1.03841 0.243496 0)
(1.02645 0.202275 0)
(1.03059 0.215817 0)
(1.01749 0.176021 0)
(1.02214 0.188959 0)
(1.00674 0.151586 0)
(1.01243 0.163501 0)
(0.993061 0.129918 0)
(1.00031 0.140419 3.6341e-24)
(0.976699 0.111092 1.02292e-22)
(0.985106 0.120223 5.80561e-23)
(0.958606 0.0935106 -4.10648e-22)
(0.967519 0.102354 0)
(0.894043 0.178686 -2.72859e-23)
(0.904619 0.15798 -3.17133e-24)
(0.882237 0.211136 0)
(0.886536 0.196401 2.67689e-23)
(0.88117 0.232894 0)
(0.88056 0.223209 0)
(0.886169 0.247235 0)
(0.883247 0.240741 0)
(0.891532 0.257892 0)
(0.889132 0.252844 0)
(0.892516 0.266961 0)
(0.892787 0.262596 0)
(0.886235 0.274154 0)
(0.89039 0.270902 0)
(0.871294 0.277249 0)
(0.879891 0.276409 0)
(0.847065 0.272903 0)
(0.860358 0.276244 0)
(0.813348 0.257272 0)
(0.831381 0.266749 0)
(0.770587 0.226534 0)
(0.793024 0.244016 0)
(0.720473 0.177708 0)
(0.746269 0.204512 0)
(0.666649 0.109883 0)
(0.693696 0.146112 0)
(0.615347 0.02575 0)
(0.640159 0.0695069 0)
(0.575757 -0.0669423 0)
(0.593375 -0.0202749 0)
(0.559675 -0.15487 0)
(0.563936 -0.11249 0)
(0.578201 -0.223112 3.4058e-22)
(0.56417 -0.192207 0)
(0.63144 -0.265402 1.79132e-22)
(0.601329 -0.246973 -4.4548e-22)
(0.706242 -0.292968 0)
(0.67017 -0.279047 6.3774e-22)
(0.429706 -0.553466 -2.57351e-21)
(0.408844 -0.552693 2.32738e-21)
(0.698059 -0.338975 1.47564e-21)
(0.741018 -0.310508 2.78264e-21)
(0.54237 -0.431655 -1.08728e-22)
(0.647395 -0.370264 -2.56738e-22)
(0.96114 0.0750935 -3.34116e-22)
(0.519962 -0.473836 0)
(0.949787 0.0847142 -9.60269e-23)
(0.976809 0.0842856 2.11133e-22)
(0.968079 0.0756927 -1.08814e-22)
(0.493991 -0.511289 1.03661e-21)
(0.466237 -0.54272 -1.33797e-21)
(0.730427 -0.358457 5.07735e-23)
(0.433721 -0.564941 1.41245e-21)
(0.40222 -0.568952 -9.50084e-23)
(0.771282 -0.33374 -1.80193e-21)
(0.593691 -0.402609 1.16766e-23)
(0.917189 0.100808 1.61192e-22)
(0.932063 0.0935345 -1.51463e-22)
(0.902483 0.105761 2.02464e-23)
(0.906772 0.105241 0)
(0.915135 0.0932325 -8.6572e-24)
(0.905327 0.101845 0)
(0.955874 0.063458 -2.19493e-23)
(0.932009 0.0803472 3.05537e-23)
(0.433262 -0.505359 -1.65841e-21)
(0.388511 -0.561745 2.02861e-21)
(0.408004 -0.538269 5.96379e-22)
(0.504127 -0.406564 0)
(0.465468 -0.460697 1.43367e-21)
(0.593471 -0.274865 0)
(0.546902 -0.344425 0)
(0.69317 -0.123878 0)
(0.64309 -0.199964 0)
(0.79066 0.024606 0)
(0.742777 -0.0482521 0)
(0.878719 0.15589 0)
(0.836277 0.0932257 0)
(0.952157 0.259572 0)
(0.917557 0.211694 0)
(1.00803 0.330801 0)
(0.982402 0.299355 0)
(1.04607 0.370628 0)
(1.02922 0.354416 0)
(1.06836 0.384384 0)
(1.059 0.380355 0)
(1.07838 0.379214 0)
(1.07468 0.383726 0)
(1.07986 0.361925 0)
(1.07997 0.371718 0)
(1.076 0.33782 0)
(1.07843 0.350465 0)
(1.06918 0.310468 0)
(1.07285 0.324389 0)
(1.06097 0.281988 0)
(1.06518 0.29628 0)
(1.05229 0.253482 0)
(1.05665 0.267695 0)
(1.04364 0.225433 0)
(1.04794 0.239382 0)
(1.03516 0.198015 0)
(1.03939 0.211632 0)
(1.02667 0.171396 0)
(1.03096 0.184576 0)
(1.01747 0.146066 0)
(1.02226 0.158507 0)
(1.00637 0.122834 9.21792e-25)
(1.01233 0.134172 -9.22749e-25)
(0.992641 0.10249 -2.07978e-24)
(0.999953 0.112198 1.28862e-24)
(0.984801 0.0931863 5.70713e-23)
(0.944553 0.115883 -3.46407e-23)
(0.991579 0.0560437 4.09628e-22)
(0.966026 0.0872152 -1.67161e-22)
(0.908828 0.166206 -8.48811e-25)
(0.924419 0.142964 -4.86488e-24)
(0.884814 0.205184 0)
(0.894985 0.187416 0)
(0.8726 0.232002 0)
(0.877288 0.220079 0)
(0.869003 0.2488 0)
(0.869988 0.241461 0)
(0.868854 0.259034 0)
(0.868833 0.25454 0)
(0.866832 0.265421 0)
(0.868361 0.262624 0)
(0.858954 0.268605 0)
(0.863804 0.267473 0)
(0.842961 0.267088 0)
(0.85206 0.268602 0)
(0.817939 0.257951 0)
(0.831604 0.263697 0)
(0.783948 0.237695 0)
(0.802035 0.249448 0)
(0.742071 0.203029 0)
(0.763887 0.222357 0)
(0.694872 0.151817 0)
(0.71891 0.17957 0)
(0.647038 0.0843421 0)
(0.670645 0.119984 0)
(0.606035 0.00478524 0)
(0.625075 0.0456409 0)
(0.58222 -0.0775689 0)
(0.591236 -0.0368164 0)
(0.586935 -0.149259 0)
(0.580347 -0.115629 0)
(0.625714 -0.199121 0)
(0.602231 -0.177237 0)
(0.688237 -0.230853 0)
(0.655223 -0.216233 0)
(0.750835 -0.263039 -4.28391e-22)
(0.720986 -0.245332 0)
(0.803692 -0.311683 0)
(0.778469 -0.284915 -1.49438e-21)
(0.40008 -0.577034 -9.20456e-22)
(0.375337 -0.572876 8.79009e-22)
(0.79342 -0.363151 0)
(0.823504 -0.343218 0)
(0.984909 0.044556 0)
(0.571118 -0.446557 -8.1981e-23)
(0.681633 -0.38554 0)
(0.941458 0.0754311 -5.35396e-23)
(0.959945 0.0668353 -2.25602e-22)
(0.54497 -0.487957 1.34929e-22)
(0.755478 -0.384216 -1.00212e-22)
(0.514387 -0.523569 3.18743e-22)
(0.47935 -0.552336 -4.86661e-22)
(0.441253 -0.571204 0)
(1.02812 0.0340078 -1.17257e-22)
(0.810149 -0.397247 3.58083e-22)
(0.399811 -0.578918 -2.28363e-21)
(0.365394 -0.576905 -1.84666e-21)
(0.840971 -0.376609 2.44597e-22)
(1.01758 0.0245577 0)
(1.05296 0.00423506 3.69191e-22)
(0.627311 -0.415829 -2.28048e-23)
(0.912479 0.0881807 0)
(0.924988 0.0829474 -1.03611e-23)
(0.905706 0.0876183 -9.04973e-24)
(0.905654 0.0900776 1.13284e-23)
(0.927984 0.0690391 1.50426e-24)
(0.913411 0.0803904 0)
(0.97705 0.0348343 0)
(0.949416 0.0534759 -1.53064e-24)
(1.04484 -0.0067943 4.47684e-22)
(1.00977 0.0139876 -2.0971e-22)
(0.398185 -0.539735 -9.7039e-22)
(0.351671 -0.564628 -8.71857e-22)
(0.372683 -0.55683 -9.61777e-23)
(0.4674 -0.470432 6.30455e-23)
(0.429033 -0.510844 0)
(0.558788 -0.36035 0)
(0.510761 -0.42 -9.50887e-22)
(0.6611 -0.222421 7.96703e-22)
(0.60941 -0.293725 -9.97418e-22)
(0.766311 -0.0721764 0)
(0.714212 -0.147426 0)
(0.864125 0.0719565 0)
(0.816626 0.00167121 0)
(0.948406 0.196039 0)
(0.908332 0.137281 0)
(1.01479 0.290675 0)
(0.984054 0.247466 0)
(1.06155 0.352361 0)
(1.04064 0.325657 0)
(1.08988 0.38347 0)
(1.07787 0.371438 0)
(1.10308 0.390248 0)
(1.09812 0.389454 0)
(1.10536 0.380135 0)
(1.10533 0.386865 0)
(1.10071 0.359738 0)
(1.10369 0.370879 0)
(1.09221 0.333922 0)
(1.09678 0.347277 0)
(1.08201 0.305797 0)
(1.08723 0.320012 0)
(1.07141 0.277111 0)
(1.0767 0.291454 0)
(1.06112 0.248707 0)
(1.06619 0.262844 0)
(1.05148 0.220893 0)
(1.05621 0.234718 0)
(1.04259 0.19371 0)
(1.04695 0.20722 0)
(1.03432 0.167167 0)
(1.03841 0.180345 0)
(1.02619 0.141493 0)
(1.03033 0.154172 0)
(1.01729 0.117297 -1.19514e-22)
(1.02206 0.129141 1.17885e-22)
(1.00648 0.0953779 4.94091e-23)
(1.01237 0.10598 -6.54943e-23)
(0.993427 0.0760788 0)
(1.00025 0.0854441 2.87811e-23)
(0.978583 0.0585225 4.31534e-22)
(0.985965 0.067185 9.32258e-23)
(0.977361 0.0943831 -3.17141e-23)
(1.00126 0.0651388 8.63694e-23)
(0.933506 0.148464 8.51261e-25)
(0.954328 0.122438 3.5705e-23)
(0.898349 0.193066 0)
(0.914494 0.172242 0)
(0.874079 0.22544 0)
(0.884783 0.210847 0)
(0.859652 0.246036 0)
(0.86579 0.2371 0)
(0.851279 0.257408 0)
(0.854997 0.252699 0)
(0.843937 0.262357 0)
(0.847782 0.260568 0)
(0.833076 0.262268 0)
(0.839176 0.262948 0)
(0.815651 0.256522 0)
(0.825312 0.260225 0)
(0.790291 0.24292 0)
(0.803998 0.250894 0)
(0.757123 0.21857 0)
(0.774632 0.232287 0)
(0.717769 0.180893 0)
(0.738066 0.20154 0)
(0.675683 0.128732 0)
(0.696775 0.156631 0)
(0.636703 0.0636781 0)
(0.655333 0.0975964 0)
(0.609464 -0.00860422 0)
(0.62096 0.0279201 0)
(0.604464 -0.0778917 0)
(0.603517 -0.044381 0)
(0.629724 -0.132782 0)
(0.613073 -0.107708 0)
(0.682314 -0.169313 0)
(0.653393 -0.153033 0)
(0.744306 -0.19879 0)
(0.713566 -0.183754 0)
(0.795616 -0.238285 0)
(0.772019 -0.216475 0)
(0.832681 -0.293751 -7.58333e-22)
(0.815166 -0.264201 4.27472e-22)
(0.865546 -0.359128 2.10648e-21)
(0.849476 -0.325528 -4.40846e-22)
(0.857767 -0.410748 0)
(0.882393 -0.391694 -8.52736e-22)
(0.357817 -0.57397 8.63029e-22)
(0.334589 -0.56359 6.1363e-23)
(0.601835 -0.459655 6.58353e-23)
(0.7105 -0.406405 9.58505e-23)
(1.0801 -0.0262607 2.73721e-22)
(0.570104 -0.500095 -1.51014e-22)
(0.774501 -0.415793 -6.71003e-24)
(0.971149 0.0498645 -2.14688e-22)
(0.995965 0.051097 -5.61584e-23)
(0.98946 0.0425122 7.61393e-23)
(0.533842 -0.533756 2.56637e-22)
(0.828537 -0.431969 -3.5855e-22)
(0.493371 -0.559008 6.71164e-22)
(0.878901 -0.446388 0)
(0.447489 -0.573774 8.07316e-22)
(0.399044 -0.576092 0)
(0.349369 -0.56507 1.60485e-21)
(0.318828 -0.554761 -1.3512e-21)
(0.658224 -0.431414 1.11251e-23)
(0.93438 0.0654182 -4.43501e-23)
(0.95219 0.0578792 0)
(0.910459 0.0741438 5.01707e-23)
(0.919846 0.0713091 0)
(0.912147 0.0676013 0)
(0.907634 0.0729371 -6.06873e-23)
(0.943015 0.0438898 0)
(0.924182 0.0577553 0)
(0.998431 0.0069123 3.05712e-25)
(0.968009 0.026667 0)
(1.06902 -0.0351097 0)
(1.03285 -0.0141875 0)
(0.363794 -0.540444 7.2585e-22)
(0.311393 -0.53683 0)
(0.336145 -0.543287 -2.10881e-23)
(0.43362 -0.504202 0)
(0.395666 -0.528062 4.52068e-22)
(0.523376 -0.424718 0)
(0.47634 -0.469385 0)
(0.629539 -0.307448 -8.15687e-22)
(0.575494 -0.369836 0)
(0.740556 -0.167123 0)
(0.685371 -0.238926 1.00079e-21)
(0.847308 -0.0200556 0)
(0.795038 -0.0933213 0)
(0.942196 0.117591 0)
(0.896676 0.0509321 0)
(1.01973 0.232676 0)
(0.983451 0.178663 0)
(1.07665 0.31703 0)
(1.0509 0.279025 0)
(1.11268 0.368664 0)
(1.09719 0.346859 0)
(1.13048 0.391257 0)
(1.12363 0.383227 0)
(1.13443 0.391739 0)
(1.13389 0.393797 0)
(1.12925 0.377562 0)
(1.13271 0.386063 0)
(1.1189 0.354911 0)
(1.12451 0.366986 0)
(1.10625 0.328103 0)
(1.11273 0.341829 0)
(1.09308 0.299765 0)
(1.09965 0.314014 0)
(1.08041 0.271298 0)
(1.08664 0.285494 0)
(1.06872 0.243322 0)
(1.07442 0.257228 0)
(1.05822 0.216012 0)
(1.06332 0.229581 0)
(1.04892 0.189325 0)
(1.05342 0.202595 0)
(1.04072 0.16317 0)
(1.0447 0.176179 0)
(1.03334 0.137593 0)
(1.03698 0.150284 0)
(1.0261 0.112978 0)
(1.0298 0.125103 0)
(1.01794 0.0900469 1.44279e-23)
(1.02231 0.101247 0)
(1.00791 0.0694474 1.15145e-22)
(1.01326 0.0793911 -1.41319e-22)
(1.00215 0.0600855 5.58411e-23)
(1.06833 0.0108742 0)
(1.11576 -0.0446493 -6.30035e-22)
(1.09203 -0.0173722 2.59385e-22)
(1.0176 0.0695465 0)
(1.04232 0.0405209 0)
(0.967971 0.125961 0)
(0.992279 0.0983491 0)
(0.923501 0.175008 0)
(0.944751 0.151731 0)
(0.887741 0.212689 0)
(0.904371 0.195428 0)
(0.861588 0.237819 0)
(0.873503 0.226806 0)
(0.843049 0.251704 0)
(0.851567 0.246043 0)
(0.828167 0.256702 0)
(0.835421 0.255193 0)
(0.812572 0.25457 0)
(0.820701 0.256492 0)
(0.792853 0.245503 0)
(0.803381 0.250972 0)
(0.767268 0.228201 0)
(0.780837 0.238019 0)
(0.735936 0.200648 0)
(0.752248 0.215851 0)
(0.700937 0.161207 0)
(0.718691 0.18249 0)
(0.66658 0.109878 0)
(0.683317 0.136952 0)
(0.639694 0.0496117 0)
(0.651672 0.0805511 0)
(0.629257 -0.0128136 0)
(0.631803 0.0181094 0)
(0.64372 -0.0677803 0)
(0.632973 -0.041826 0)
(0.684938 -0.108409 0)
(0.661304 -0.0899997 0)
(0.741812 -0.138375 0)
(0.712573 -0.123984 0)
(0.795097 -0.171917 0)
(0.769966 -0.15375 0)
(0.833808 -0.219708 0)
(0.816289 -0.19388 0)
(0.862333 -0.279306 0)
(0.848703 -0.248493 0)
(0.891059 -0.34455 -2.48868e-22)
(0.876118 -0.311314 0)
(0.907136 -0.378032 -4.77805e-22)
(0.303192 -0.539726 7.73557e-22)
(0.289402 -0.521853 5.7694e-22)
(1.10437 -0.0539731 -2.46709e-22)
(0.626933 -0.475281 4.20574e-23)
(0.731792 -0.432893 0)
(0.963975 0.0411627 -1.43344e-22)
(0.983147 0.0339381 2.68536e-23)
(0.591909 -0.51335 -4.4168e-23)
(0.790991 -0.448719 6.74512e-24)
(0.550223 -0.54388 0)
(0.845485 -0.466478 0)
(0.502571 -0.564796 0)
(0.904941 -0.472428 0)
(0.450564 -0.573837 -1.66219e-21)
(0.395306 -0.569727 0)
(0.338544 -0.551229 -2.42695e-21)
(0.952121 -0.491997 3.5592e-22)
(1.1518 -0.0622111 2.65799e-22)
(0.285811 -0.518177 -1.42076e-21)
(0.267412 -0.49983 0)
(1.13795 -0.0702286 -3.63651e-22)
(1.17004 -0.0846204 1.20673e-22)
(0.681706 -0.452505 0)
(0.928461 0.0545861 0)
(0.945106 0.048444 2.37081e-22)
(0.910854 0.0585276 0)
(0.916519 0.0582214 0)
(0.921392 0.0463202 0)
(0.912394 0.0545085 0)
(0.960039 0.0183471 0)
(0.937483 0.0341284 0)
(1.01948 -0.0197517 -3.01021e-25)
(0.987497 0.000222694 0)
(1.09059 -0.060358 1.334e-22)
(1.05456 -0.0404105 -1.3573e-23)
(1.1573 -0.0926423 2.18245e-22)
(1.12554 -0.0781198 -3.31911e-22)
(0.333658 -0.509167 -1.2924e-22)
(0.277464 -0.475886 2.66707e-22)
(0.304211 -0.496891 -2.66349e-22)
(0.404459 -0.504873 -3.2866e-22)
(0.366884 -0.512015 4.53323e-22)
(0.494278 -0.458038 5.62548e-22)
(0.447417 -0.486514 -4.34401e-22)
(0.600705 -0.37017 0)
(0.54626 -0.418664 -5.56382e-22)
(0.715388 -0.249786 0)
(0.657628 -0.31323 0)
(0.829156 -0.110852 0)
(0.773009 -0.181586 0)
(0.93374 0.0307595 0)
(0.883113 -0.0393493 0)
(1.02238 0.159899 0)
(0.98046 0.0978117 0)
(1.09037 0.264458 0)
(1.0592 0.215878 0)
(1.13575 0.337696 0)
(1.11591 0.305212 0)
(1.1599 0.379242 0)
(1.1503 0.362258 0)
(1.16686 0.393926 0)
(1.16523 0.389531 0)
(1.16185 0.389055 0)
(1.16553 0.393473 0)
(1.14977 0.3718 0)
(1.15642 0.381587 0)
(1.13437 0.347752 0)
(1.1423 0.360353 0)
(1.11814 0.320624 0)
(1.12625 0.334408 0)
(1.10247 0.292572 0)
(1.11018 0.306625 0)
(1.08808 0.264688 0)
(1.09509 0.278569 0)
(1.07523 0.237413 0)
(1.08145 0.250962 0)
(1.06399 0.210829 0)
(1.0694 0.224037 0)
(1.05431 0.184839 0)
(1.05896 0.197767 0)
(1.04611 0.159303 0)
(1.05004 0.172019 0)
(1.03917 0.134164 0)
(1.0425 0.146675 0)
(1.03308 0.109611 0)
(1.03607 0.121782 0)
(1.02704 0.0861687 0)
(1.03011 0.0977028 0)
(1.01996 0.0645312 1.2763e-22)
(1.02366 0.0751399 -1.12214e-22)
(1.01118 0.045232 4.15574e-23)
(1.01577 0.0546263 -1.40022e-23)
(1.00127 0.0277111 3.38975e-24)
(1.00628 0.0362847 2.29656e-22)
(1.11047 -0.0122067 0)
(1.13256 -0.0383036 -1.60933e-22)
(1.06237 0.0435524 0)
(1.08726 0.0151568 0)
(1.01042 0.100268 0)
(1.03657 0.0721483 0)
(0.959638 0.152063 0)
(0.984568 0.127128 0)
(0.914435 0.194072 0)
(0.936116 0.174523 0)
(0.877283 0.223733 0)
(0.894786 0.210518 0)
(0.848039 0.241 0)
(0.861766 0.23386 0)
(0.824292 0.247429 0)
(0.835675 0.245471 0)
(0.802552 0.244738 0)
(0.813383 0.247165 0)
(0.779655 0.233721 0)
(0.791397 0.240289 0)
(0.753836 0.214007 0)
(0.767149 0.225028 0)
(0.725308 0.184636 0)
(0.739815 0.200605 0)
(0.696556 0.145132 0)
(0.710713 0.166148 0)
(0.672493 0.0967664 0)
(0.683533 0.121896 0)
(0.660213 0.0436369 0)
(0.664365 0.0704309 0)
(0.667349 -0.00734624 0)
(0.660932 0.0173875 0)
(0.697865 -0.0492129 0)
(0.679701 -0.0297071 0)
(0.746404 -0.0809703 0)
(0.720645 -0.0660368 0)
(0.797806 -0.111296 0)
(0.772815 -0.0955041 0)
(0.838165 -0.151813 0)
(0.819785 -0.129804 0)
(0.866287 -0.205475 0)
(0.853339 -0.17725 0)
(0.890365 -0.266439 0)
(0.878262 -0.235452 0)
(0.917727 -0.329746 0)
(0.903379 -0.297779 0)
(0.947504 -0.396417 0)
(0.932538 -0.362587 1.80423e-22)
(0.245537 -0.470982 0)
(0.252131 -0.447546 -3.95416e-23)
(0.998295 -0.523273 -4.52526e-21)
(1.02745 -0.511504 -4.13477e-21)
(0.648099 -0.49409 -1.71915e-22)
(0.748223 -0.462735 0)
(1.18599 -0.104207 2.17749e-22)
(0.607639 -0.529261 2.1648e-22)
(0.805661 -0.481733 0)
(0.99598 0.019321 -1.31232e-23)
(1.01687 0.0229342 -2.73028e-23)
(1.01308 0.0144155 2.73822e-23)
(0.560723 -0.555451 0)
(0.864189 -0.497156 1.25267e-22)
(0.507459 -0.570303 9.7637e-22)
(0.91509 -0.512636 -1.54486e-21)
(0.449236 -0.572154 8.31053e-22)
(0.965984 -0.535167 1.37814e-21)
(0.38733 -0.559896 8.21592e-22)
(0.324463 -0.532743 1.41381e-21)
(0.266426 -0.490915 1.19165e-22)
(0.228623 -0.412399 -9.82726e-23)
(0.223618 -0.435758 -2.18987e-22)
(1.02518 -0.549989 0)
(1.0558 -0.530891 9.52006e-22)
(0.700551 -0.477344 0)
(0.957118 0.0321983 2.03828e-23)
(0.976874 0.0254824 -2.51549e-23)
(0.92476 0.0426767 8.03382e-23)
(0.939068 0.038392 -1.70707e-22)
(0.914195 0.0415174 0)
(0.915933 0.0439284 0)
(0.933016 0.0243844 0)
(0.919952 0.0349187 0)
(0.977653 -0.00639213 0)