/*--------------------------------*- C++ -*----------------------------------*\
  =========                 |
  \\      /  F ield         | OpenFOAM: The Open Source CFD Toolbox
   \\    /   O peration     | Website:  https://openfoam.org
    \\  /    A nd           | Version:  10
     \\/     M anipulation  |
\*---------------------------------------------------------------------------*/
FoamFile
{
    format      ascii;
    class       volScalarField;
    location    "11.5";
    object      p;
}
// * * * * * * * * * * * * * * * * * * * * * * * * * * * * * * * * * * * * * //

dimensions      [0 2 -2 0 0 0 0];

internalField   nonuniform List<scalar> 
8711
(
-0.00254191
-0.00256013
-0.00206276
-0.0763331
-0.0824863
-0.0921658
0.0425566
0.0442449
0.707273
0.703396
0.507993
0.277058
0.0740325
0.0700988
-0.0194868
-0.0072021
-0.102
-0.108899
-0.119318
0.000536168
0.00040041
-0.000639554
-0.000379063
-0.00190354
-0.186412
-0.137198
-0.214393
-0.261741
-0.00473472
-0.00436195
-0.00344512
-0.390645
-0.437957
-0.284703
-0.310849
0.172108
0.162901
0.146478
0.153786
0.145977
0.190643
0.164772
-0.301543
-0.310429
0.328527
0.214495
-0.371371
-0.377561
-0.378131
0.00329491
0.0026899
0.00283695
0.00331319
-0.0178243
-0.0104861
-0.00309346
0.0563649
0.0539557
0.0649235
0.0633248
0.018393
0.0191721
0.0209154
0.0199978
0.0578914
0.0541526
0.0429535
-0.0011617
-0.00122365
-0.000486063
0.0239158
0.0245659
0.0256071
0.0246624
0.0377523
0.0376682
0.0292856
0.0293124
-0.00121948
0.0083427
0.0090441
0.0137552
0.0132422
-0.00170769
-0.00169968
-0.00161139
0.0861805
0.0802745
0.0906231
0.0971596
0.00212502
-0.0037801
0.00578137
-0.0101942
-0.00189179
0.0492822
0.06722
0.0675693
0.0524521
0.0281528
0.0285385
0.363593
0.35722
0.0688216
0.0661236
0.0634439
0.0605749
0.0577447
0.0545397
0.0512571
0.047957
0.0446143
0.0413727
0.0383086
0.0353968
0.0326991
0.0302884
0.0282013
0.0295526
0.0263262
0.0275091
0.0343016
0.0317935
0.0398555
0.0369862
0.0458052
0.0427656
0.0519196
0.0488518
0.05746
0.0547192
0.0620318
0.05973
0.0652158
0.0638931
0.0650987
0.0677811
0.0711107
0.060716
0.0642546
0.053387
0.0571063
0.0459412
0.0495693
0.0390127
0.0424611
0.0333019
0.0360018
0.0285431
0.0307491
0.0249586
0.026638
0.0234482
0.0702855
0.0230904
0.0262838
0.0222321
0.0636948
0.0764434
0.030392
0.0282558
0.035087
0.0326594
0.0402873
0.0376202
0.0457137
0.0429718
0.0510569
0.0484063
0.0558124
0.0536301
0.0595583
0.0578834
0.061085
0.0607874
0.0592886
0.0607481
0.0217649
0.0211774
0.0774909
0.0816199
0.0690072
0.073301
0.0600583
0.0645421
0.0514642
0.0556793
0.0433097
0.047297
0.0364297
0.0398638
0.0307945
0.0333175
0.0268592
0.0287749
0.0238541
0.0252361
0.021496
0.022503
0.0228483
0.0224233
0.0728155
0.0205698
0.0527251
0.0639389
0.0444001
0.0407848
0.0216856
0.0210146
0.0234798
0.0837774
0.0908639
0.0264686
0.0245579
0.030445
0.0282704
0.0348611
0.0325979
0.0395745
0.037182
0.0442988
0.0420023
0.0489315
0.0466742
0.0530497
0.0510695
0.0558411
0.0547222
0.0565965
0.056795
0.0530719
0.0557176
0.0489568
0.0208616
0.019996
0.0891492
0.0948191
0.0974497
0.0936462
0.0792903
0.0841614
0.0689947
0.0744044
0.0584245
0.0636598
0.0487482
0.0534238
0.0405686
0.0446921
0.0339983
0.0370688
0.0288043
0.0312834
0.0254484
0.0269946
0.0229115
0.0241367
0.0218504
0.0206809
0.021013
0.0197584
0.0202878
0.0747485
0.0503407
0.0396431
0.0358526
0.0320939
0.0226022
0.0192677
0.0866587
0.0630648
0.0950366
0.0993253
0.0961046
0.0972656
0.0467949
0.021457
0.0323328
0.0125775
0.00609009
0.00209078
0.0258816
0.0242438
0.0295714
0.0275771
0.0335947
0.0315409
0.0378058
0.0356772
0.0420133
0.0399269
0.0458412
0.0439912
0.0493636
0.0477377
0.0514964
0.050618
0.0515842
0.0518785
0.04712
0.0501882
0.0380194
0.0431782
0.0238151
0.0316467
0.0155799
0.0879506
0.0918428
0.0783202
0.0833153
0.0669375
0.0726411
0.0555582
0.0613607
0.0459076
0.0504982
0.0379711
0.0419067
0.0317804
0.034632
0.0273462
0.0293772
0.0244396
0.0257868
0.0222192
0.0232759
0.0203125
0.0212131
0.0187582
0.0195018
0.0198964
0.0192819
0.0197226
0.019905
0.0190318
0.0194215
0.0180744
0.0185931
0.0759409
0.0997984
0.095263
0.01816
0.0174561
0.0888576
0.0603249
-0.00234336
-0.0147343
0.0982858
0.0439551
0.0236409
0.00192123
0.0214932
0.0200642
0.024845
0.0231269
0.0282189
0.0264461
0.0317794
0.0299585
0.0354774
0.0336166
0.0391362
0.037322
0.0424583
0.040848
0.0452463
0.0439534
0.0467592
0.0461894
0.0461033
0.0467592
0.0416641
0.0444047
0.0322658
0.0376531
0.0178237
0.025537
0.00924755
0.0863844
0.0829946
0.0749058
0.0812322
0.0884162
0.0884771
0.0831255
0.0863191
0.0739776
0.0790113
0.0630823
0.0686409
0.0523399
0.0576358
0.0431795
0.0475649
0.0357685
0.0392082
0.0302454
0.0327893
0.0263892
0.0281608
0.0236905
0.024955
0.0216186
0.022589
0.0197697
0.0206545
0.0189134
0.0176566
0.0186645
0.0183109
0.0187362
0.0187974
0.0182816
0.0185596
0.0174255
0.017915
0.0167962
0.0760752
0.0173574
0.0168475
0.0661887
0.0182204
0.0897887
0.0589658
0.0971844
0.0386552
0.0153606
0.0923641
0.0153435
0.0786901
-0.00570491
0.0164058
0.0160436
0.020457
0.0190684
0.0234241
0.0218848
0.0265321
0.0249536
0.0296664
0.0280667
0.0328834
0.0312708
0.036017
0.0344685
0.0388384
0.0374762
0.0410285
0.0400338
0.0420056
0.0417004
0.0408444
0.0417376
0.0364897
0.0390789
0.0274048
0.0326514
0.0136574
0.021166
-0.0043335
0.0053335
-0.0238552
-0.0137984
0.0663565
0.0610869
0.0759419
0.0709775
0.0796003
0.078824
0.0759445
0.078424
0.0681235
0.0730374
0.0585246
0.063382
0.0490366
0.0536983
0.040747
0.0447185
0.0341662
0.0373538
0.0292044
0.0314955
0.0256806
0.0273105
0.0230953
0.0243055
0.0209961
0.0220147
0.0191617
0.0200841
0.0174916
0.0182978
0.0167509
-0.0282072
-0.0326468
0.0167046
0.0150115
0.0158904
0.0175016
0.0171617
0.0177542
0.0177029
0.0174854
0.0176707
0.0167253
0.0171892
0.0161057
0.0754531
0.0894001
0.056166
0.0147082
0.0152657
0.0140539
0.0934579
0.0337311
0.0848636
0.0104402
0.0653166
-0.0106205
0.0454251
-0.0382285
-0.0297715
0.0147904
0.0140801
-0.0514806
0.0171189
0.0160645
0.0193501
0.0182408
0.0218976
0.0206161
0.0246832
0.0233364
0.027442
0.0260463
0.030225
0.0288366
0.0328805
0.0315756
0.0352051
0.0340944
0.0368654
0.036136
0.0373438
0.0372805
0.0358226
0.0368651
0.0314709
0.0340197
0.0231168
0.0278198
0.0103287
0.0172148
-0.00572092
0.00239754
-0.0245794
-0.0146783
-0.0395785
-0.0329646
-0.0408208
-0.0470967
-0.044286
0.0554087
0.0326323
0.0468057
0.0640513
0.0600084
0.0692004
0.0672538
0.0674147
0.0694053
0.0615563
0.0648108
0.0537318
0.0577462
0.0457237
0.0496791
0.0385838
0.0419997
0.0327789
0.035537
0.0283183
0.0304007
0.0250056
0.0265531
0.0224601
0.023664
0.0203574
0.0213656
0.0185032
0.019409
0.0168084
0.017653
0.0160195
0.0154719
0.0148168
0.0163697
0.0159841
0.0167862
0.0166433
0.0166998
0.0168004
0.0159826
0.0164347
0.0153912
0.0740849
0.0141993
0.0144835
0.0134827
0.0864451
0.0531384
0.086632
0.0293471
0.0735965
0.0066809
0.054242
0.0136438
0.0244408
-0.0167145
-0.0329081
-0.0425421
-0.0504571
-0.0485236
-0.0512319
-0.0527511
0.0161771
0.0152135
0.0181543
0.0171057
0.0204333
0.0192639
0.0228152
0.0216248
0.0252247
0.0240178
0.0276117
0.0264266
0.0298399
0.0287529
0.0317105
0.0308303
0.0329118
0.0324104
0.0329779
0.0331101
0.0312338
0.0323554
0.0269701
0.029437
0.0193453
0.0235875
0.00792423
0.0140489
-0.00637285
0.000976393
-0.0232995
-0.0146322
-0.0378564
-0.0311929
-0.0436672
0.0202394
-0.00935387
-0.0172801
0.00305852
0.0436531
0.0340921
0.0525808
0.0491475
0.0586981
0.056453
0.0589445
0.0598525
0.0548056
0.0571136
0.0488529
0.0519729
0.0423608
0.045597
0.0363693
0.0392697
0.0313387
0.033739
0.0273287
0.0292217
0.0242071
0.0256797
0.0217194
0.0229031
0.0196325
0.0206341
0.0178026
0.0186796
0.0161163
0.0169065
0.0152823
0.01334
0.0123942
0.012914
0.0143984
0.0139212
0.0152968
0.0148588
0.01585
0.0156273
0.0158914
0.0159409
0.0152201
0.0156501
0.0139578
0.0146323
0.0127301
0.0131719
0.0718321
0.0810084
0.0490578
0.076541
0.0248228
0.0119923
0.0121293
0.011405
0.058955
0.0335847
-0.000624189
-0.0416471
-0.0370583
0.000660453
-0.0196524
-0.0336925
-0.044718
-0.0487114
0.0118962
-0.0543933
-0.0540175
-0.0566391
0.0115804
0.0111426
0.0134251
0.0126478
0.0151745
0.0142951
0.0169163
0.0160453
0.0189279
0.0179122
0.0209862
0.0199565
0.0230675
0.0220302
0.0250907
0.0240919
0.0269278
0.0260399
0.028384
0.0277135
0.0291716
0.0288749
0.0288766
0.0291777
0.0269538
0.0281353
0.0228055
0.0251735
0.0158042
0.0196615
0.00570247
0.0110907
-0.00694556
-0.000367338
-0.0219161
-0.0143452
-0.0356224
-0.0292765
-0.0461205
-0.0411564
-0.0545837
-0.0505053
-0.023999
-0.0709708
-0.0711871
-0.0457966
0.00981882
-0.0055443
0.0320945
0.0224652
0.0427378
0.0383537
0.0491374
0.04662
0.0505792
0.0504373
0.0481766
0.0496618
0.0439018
0.0461882
0.0388676
0.0414128
0.0339711
0.0363684
0.0296768
0.0317439
0.026112
0.0278127
0.0232162
0.0245951
0.020835
0.0219757
0.0188011
0.0197842
0.0170091
0.0178631
0.0153348
0.0161293
0.0136404
0.0145127
0.012863
0.0125895
0.012125
0.0134707
0.0130789
0.0142966
0.0138632
0.0149445
0.0146654
0.01508
0.0150916
0.0144589
0.0148679
0.0132574
0.0138895
0.0125541
0.0675326
-0.0585267
-0.058527
-0.0616039
0.0722386
0.0432517
0.0113405
0.0107204
0.0615167
0.0397454
0.00757373
-0.0316188
-0.0704088
-0.10018
-0.10456
-0.00502342
-0.0226299
-0.0354939
-0.0434544
-0.049712
-0.055665
0.0108252
0.01026
0.0112558
0.0108043
0.0115215
0.0108202
0.0179667
0.0126168
0.0119548
0.0140791
0.0133671
0.0157233
0.0148964
0.0174423
0.0165735
0.0192194
0.0183312
0.0209938
0.0201122
0.0226831
0.0218546
0.0241624
0.0234561
0.0252452
0.0247624
0.0256679
0.0255508
0.0250668
0.0255093
0.022999
0.024228
0.0189768
0.021243
0.0125206
0.0160473
0.00353682
0.00830152
-0.00766109
-0.00180857
-0.0207556
-0.014104
-0.0336222
-0.0275117
-0.0439711
-0.0391243
-0.0537422
-0.0489012
-0.0622968
-0.0636815
-0.0584232
-0.0717271
-0.132601
-0.123742
-0.096437
-0.0296554
-0.0494491
0.00108852
-0.0129507
0.0216955
0.0126279
0.0336203
0.02839
0.0402868
0.0374518
0.0427987
0.04199
0.0418781
0.0426373
0.0390272
0.0406066
0.0352678
0.0372016
0.0313663
0.0333015
0.0277731
0.0295206
0.0246619
0.0261606
0.0220353
0.023297
0.0198097
0.0208836
0.0178738
0.0188159
0.0161161
0.016988
0.0145234
0.0153028
0.012978
0.0137439
0.0122358
0.0117953
0.0113668
0.012611
0.012234
0.0133807
0.0129838
0.0140684
0.0137559
0.0142818
0.0142585
0.0137072
0.0140922
0.0126009
0.0131982
0.0119301
0.0601662
0.0101178
0.0584448
0.041288
0.0128183
-0.0261421
-0.0688119
-0.109164
-0.0111342
-0.0251747
-0.0348125
-0.0434701
-0.14218
-0.152497
-0.167452
-0.0501307
-0.0587214
-0.0705125
0.00985384
0.0340554
-0.0673725
0.00949492
0.00845859
0.0105395
0.0100271
0.0118023
0.0111537
0.0130648
0.0124517
0.0145038
0.0137803
0.0159964
0.0152485
0.0175181
0.0167588
0.019011
0.0182727
0.020394
0.0197213
0.0215465
0.0210054
0.0222935
0.0219786
0.022395
0.0224348
0.0215344
0.0220957
0.0193455
0.0206144
0.0154353
0.017612
0.00944281
0.0126904
0.00133784
0.0056204
-0.00866622
-0.00345259
-0.0201613
-0.0142959
-0.0320107
-0.0261761
-0.042312
-0.0374294
-0.0528702
-0.0474855
-0.0649713
-0.058664
-0.0786342
-0.0801422
-0.0718159
-0.11557
-0.18129
-0.162578
-0.139063
-0.0713073
-0.0927803
-0.0341986
-0.0518241
-0.00633218
-0.0189182
0.0127711
0.00453344
0.0253466
0.0199358
0.0323397
0.0292927
0.0356872
0.0344023
0.0359538
0.0361097
0.0342895
0.0352798
0.0316224
0.0330282
0.0286111
0.0301272
0.0256773
0.0271204
0.0230221
0.0243132
0.020696
0.0218222
0.0186663
0.0196508
0.0168606
0.0177417
0.015216
0.0160196
0.0136631
0.014445
0.0122747
0.0129926
0.0108647
0.0115778
0.00954281
0.0102299
0.0101229
0.00956399
0.0109989
0.0106113
0.0117565
0.011411
0.0125067
0.0121238
0.013219
0.012886
0.0134996
0.013442
0.013002
0.0133463
0.0119442
0.0125197
0.010697
0.0113084
0.00950583
0.0100832
0.00895028
0.0484032
0.0389956
0.0146356
-0.021573
-0.0661413
-0.111942
-0.0177903
-0.0276323
-0.0357815
-0.152085
-0.182649
-0.202022
-0.0431119
-0.0519597
-0.0621369
-0.185119
-0.208785
-0.0751751
-0.0898282
-0.0887539
0.00763656
0.0078414
0.00844529
0.00807587
0.0215499
0.00812201
-0.00199464
0.0097753
0.00918598
0.0109401
0.0103886
0.012091
0.0115159
0.0133166
0.0127055
0.0145959
0.0139571
0.0158827
0.0152436
0.0171172
0.0165108
0.0182189
0.0176892
0.0190729
0.0186825
0.0195173
0.0193532
0.0193354
0.0195128
0.0182535
0.0189151
0.0159653
0.0172661
0.0121524
0.0142524
0.00654824
0.00956401
-0.000866484
0.00304183
-0.00993764
-0.00522421
-0.0202697
-0.0149943
-0.0310557
-0.0256799
-0.0411546
-0.0362133
-0.0519705
-0.0464022
-0.0648551
-0.0581878
-0.0801433
-0.0720548
-0.100955
-0.0991995
-0.0892145
-0.146517
-0.205298
-0.18093
-0.16464
-0.107651
-0.127203
-0.0696764
-0.0885906
-0.0372
-0.0526984
-0.0121772
-0.0238556
0.00574471
-0.00241176
0.0179308
0.0124418
0.0252818
0.0220512
0.0292409
0.0276092
0.0304337
0.0301065
0.0297513
0.0302525
0.0280091
0.0289643
0.0257812
0.0269247
0.0234561
0.0246147
0.0212468
0.0223318
0.0192366
0.0202176
0.0174289
0.0183108
0.0157854
0.016589
0.0142704
0.0150107
0.0128608
0.0135434
0.0115546
0.012189
0.0102438
0.0108886
0.00902656
0.00959831
0.00851779
0.00942169
0.00888001
0.0102458
0.00988355
0.0109573
0.010624
0.0116714
0.0113026
0.0123936
0.0120488
0.0127317
0.0126415
0.0122996
0.0126139
0.0112942
0.0118413
0.010088
0.0106943
0.00898139
0.00950513
0.00851814
0.0318696
0.0134734
-0.0194206
-0.0632574
-0.113176
-0.0265298
-0.0316321
-0.160602
-0.198803
-0.224734
-0.036356
-0.0441164
-0.0545306
-0.236054
-0.0687293
-0.234569
-0.085197
-0.19419
-0.222263
-0.100867
-0.110088
-0.113552
0.0070416
0.00734272
0.00786337
0.00762126
0.00446476
0.00731827
0.00776747
0.00753891
-0.0157279
0.0090039
0.00842045
0.010065
0.00960202
0.0111163
0.0105984
0.0121637
0.0116424
0.0132432
0.012705
0.0143118
0.0137838
0.0153068
0.0148224
0.0161493
0.0157511
0.0167305
0.0164775
0.0169016
0.0168732
0.0164685
0.0167672
0.0151958
0.0159432
0.0128265
0.0141522
0.00910238
0.0111343
0.00382742
0.00664847
-0.0030155
0.000582424
-0.011321
-0.00701008
-0.0207896
-0.0159503
-0.0307457
-0.0257618
-0.0405935
-0.0356667
-0.0512355
-0.0457799
-0.0639521
-0.0573513
-0.0789637
-0.0712606
-0.0961186
-0.0872804
-0.121654
-0.115224
-0.105402
-0.160458
-0.204844
-0.179246
-0.170944
-0.132611
-0.147464
-0.0999283
-0.117032
-0.0673312
-0.083514
-0.0392897
-0.0527665
-0.0169595
-0.0274776
-0.000252708
-0.00798617
0.0114718
0.00612481
0.0190263
0.0156635
0.0234266
0.0215424
0.0253313
0.0246257
0.0254527
0.0255508
0.024487
0.0250613
0.022941
0.0237569
0.0211693
0.0220662
0.0193861
0.0202716
0.0176947
0.0185273
0.016124
0.0168956
0.0146627
0.0153808
0.0132962
0.0139667
0.0120209
0.0126426
0.0108157
0.0113872
0.00960118
0.0101943
0.00844064
0.0089913
0.00806745
0.00874001
0.00824107
0.00955434
0.00918097
0.0102224
0.00991083
0.0108834
0.0105405
0.0115941
0.0112479
0.0119728
0.0118573
0.0116047
0.0118864
0.0106522
0.0111743
0.00952483
0.0100888
0.00851479
0.00901173
0.00808018
0.00973303
0.00684668
-0.0185842
-0.0605784
-0.112503
-0.0375647
-0.166392
-0.213863
-0.248325
-0.0369452
-0.0393034
-0.0471144
-0.267044
-0.0610152
-0.268415
-0.079037
-0.256853
-0.0985275
-0.236487
-0.115134
-0.185032
-0.212278
-0.127232
-0.125477
-0.13345
0.00643066
0.0070141
-0.017041
0.00643516
0.00705455
-0.0330019
0.00728365
0.00634557
0.00680961
0.00825029
0.00777301
0.00922461
0.00878905
0.0101477
0.00970295
0.0110399
0.0105975
0.0119363
0.0114915
0.0128011
0.0123768
0.0135735
0.0132024
0.0141765
0.0138997
0.014508
0.0143804
0.0144319
0.0145259
0.0137758
0.0141816
0.0123368
0.0131585
0.00989937
0.0112453
0.00625374
0.00822638
0.00125315
0.00391298
-0.00511415
-0.00177616
-0.0127688
-0.00880012
-0.0215011
-0.0170333
-0.0307857
-0.026114
-0.0403358
-0.0355071
-0.0506936
-0.0453921
-0.0626098
-0.0564695
-0.0768085
-0.0695936
-0.0922957
-0.0844217
-0.108503
-0.100259
-0.135004
-0.1268
-0.117453
-0.132798
-0.158756
-0.187458
-0.163971
-0.162731
-0.143114
-0.151997
-0.12043
-0.133163
-0.0926582
-0.107279
-0.0652007
-0.0787035
-0.0408181
-0.0526004
-0.0207938
-0.0302794
-0.0053275
-0.0125507
0.00588511
0.000727023
0.0134812
0.0100547
0.0181923
0.0161255
0.0206386
0.0196409
0.0214103
0.0211789
0.0210934
0.0213471
0.0201373
0.0206674
0.0188637
0.0195229
0.0174805
0.0181767
0.0161023
0.0167873
0.0147751
0.015432
0.0135076
0.0141341
0.0123018
0.0128961
0.0111613
0.0117217
0.010043
0.0105881
0.00897852
0.00949693
0.0079513
0.00840037
0.00748929
0.00638627
0.00726648
0.00683893
0.00812891
0.00768414
0.00892595
0.00855289
0.00955057
0.00926352
0.0101477
0.00983697
0.0108253
0.0104895
0.011224
0.0110923
0.0109182
0.0111652
0.0100258
0.0105193
0.00897623
0.00949742
0.00801695
0.00848327
0.00753962
-0.0181978
0.00591732
0.00593789
-0.0573833
-0.109194
-0.0537146
-0.167908
-0.224576
-0.2702
-0.0508186
-0.0450836
-0.0458585
-0.298824
-0.054844
-0.30688
-0.0718442
-0.296773
-0.093824
-0.274219
-0.114754
-0.246398
-0.13124
-0.216007
-0.141663
-0.163572
-0.187361
-0.144914
-0.14291
-0.132959
-0.124048
-0.122909
0.00546309
0.00585376
-0.0434447
-0.145769
-0.144738
0.00670688
0.00626141
0.00757814
0.00714438
0.0084071
0.0080011
0.00919424
0.00880816
0.00994516
0.00957412
0.0106722
0.0103136
0.0113464
0.011019
0.011911
0.0116454
0.0122922
0.0121275
0.0123947
0.0123819
0.0120951
0.0122992
0.0112405
0.0117412
0.0096567
0.0105428
0.00716253
0.00852459
0.00358788
0.00550795
-0.00118021
0.00134396
-0.00715118
-0.0040296
-0.014261
-0.0105804
-0.0223457
-0.0182087
-0.0310328
-0.0266396
-0.0401951
-0.0355433
-0.0501519
-0.0450606
-0.0613017
-0.0555785
-0.0740129
-0.0675855
-0.0881403
-0.0809941
-0.102168
-0.0952767
-0.11435
-0.108932
-0.118788
-0.141554
-0.14467
-0.128706
-0.136272
-0.109829
-0.120412
-0.0863714
-0.0983183
-0.0631348
-0.0746181
-0.0418326
-0.0521763
-0.0238412
-0.0324149
-0.0095889
-0.0162903
0.00106791
-0.00387352
0.00857696
0.0051512
0.0134868
0.0112947
0.0163373
0.015118
0.0176282
0.0171307
0.0178512
0.0178362
0.0174028
0.0176849
0.0165736
0.0170187
0.0155614
0.0160804
0.0144847
0.0150264
0.0134008
0.0139422
0.012332
0.0128639
0.0112921
0.0118078
0.0102862
0.010785
0.00927564
0.00978154
0.00830676
0.00882062
0.00739698
0.00786738
0.00644768
0.00693048
0.00561846
0.00601394
0.00511029
0.00596959
0.00553345
0.00681011
0.00640227
0.00760835
0.00720114
0.00835602
0.00800342
0.00893048
0.00866816
0.00946345
0.00918599
0.0100919
0.00977619
0.0104905
0.0103517
0.0102414
0.0104541
0.00942068
0.00987891
0.00842196
0.00892299
0.00746541
0.00793734
0.00643068
0.00696156
0.00556423
0.00596673
0.00522776
-0.0521134
-0.16199
-0.143238
-0.102831
-0.0745869
-0.163899
-0.228376
-0.285553
-0.0667712
-0.0563831
-0.326939
-0.0564628
-0.346154
-0.0673909
-0.341964
-0.0877823
-0.319594
-0.11233
-0.28731
-0.133841
-0.251272
-0.148659
-0.2163
-0.155827
-0.185591
-0.148007
-0.154584
0.00468278
0.00479044
0.00436705
0.00452237
-0.160498
-0.13651
-0.122671
-0.141533
0.00536757
0.00500545
0.00613152
0.00574025
0.00689068
0.0065057
0.00760336
0.00725292
0.00826388
0.00793994
0.00887877
0.00857665
0.00944758
0.00916986
0.0099431
0.00970661
0.0103131
0.0101462
0.0104884
0.0104277
0.0103808
0.010473
0.00987866
0.0101823
0.00884748
0.0094322
0.00713762
0.00807937
0.00459705
0.00597135
0.00108813
0.00296061
-0.00347676
-0.00107059
-0.00910615
-0.0061706
-0.0157498
-0.0123159
-0.0232681
-0.0194222
-0.0314029
-0.0272752
-0.0400999
-0.0356771
-0.0495456
-0.0447248
-0.0599396
-0.0546232
-0.0713136
-0.0655951
-0.0837268
-0.0775692
-0.0962723
-0.0903189
-0.104898
-0.101314
-0.111701
-0.108143
-0.115415
-0.126579
-0.114235
-0.121193
-0.130465
-0.129516
-0.127006
-0.129656
-0.116615
-0.122863
-0.100371
-0.109087
-0.0808733
-0.0907879
-0.0609815
-0.0708731
-0.0423303
-0.0514271
-0.026212
-0.0339367
-0.0131371
-0.0193226
-0.00308018
-0.00777744
0.00424681
0.000872189
0.00925831
0.00698985
0.0124016
0.0110181
0.0141015
0.0133913
0.0147712
0.0145319
0.0147581
0.0148259
0.0143234
0.0145769
0.013652
0.0140069
0.0128618
0.0132662
0.0120161
0.0124433
0.0111467
0.0115829
0.0102744
0.0107096
0.0094076
0.00983945
0.00854151
0.00896933
0.00768712
0.00811573
0.00683702
0.00725386
0.00595585
0.00636868
0.00519624
0.00558277
0.00483324
0.00559888
0.00519288
0.0063927
0.00600105
0.00714612
0.00676954
0.00783444
0.00750991
0.0083559
0.00811822
0.0088274
0.00858239
0.00939635
0.00910785
0.00977805
0.00964033
0.00957738
0.0097583
0.00883204
0.00925296
0.00787617
0.00836242
0.00692179
0.00739681
0.00596705
0.00644082
0.00523419
0.0055951
0.00489254
-0.0917467
-0.153682
-0.223213
0.00387929
-0.137029
-0.0774029
-0.290924
-0.085198
-0.34592
-0.0720551
-0.379993
-0.0714894
-0.38763
-0.085073
-0.370331
-0.108809
-0.114322
-0.336018
-0.134788
-0.130519
-0.293846
-0.154887
-0.155801
-0.123479
-0.14041
-0.251519
-0.167048
-0.182199
-0.153214
-0.213776
-0.168991
-0.123997
0.00412788
-0.107619
-0.108207
0.00428852
0.00424837
-0.109405
-0.104454
-0.1036
0.0039304
0.00451134
0.0041228
0.00488909
0.0045516
0.00555523
0.00523507
0.00620955
0.00588299
0.00681542
0.00652044
0.00735748
0.00709389
0.00784071
0.00760592
0.00825953
0.00805874
0.00858659
0.00843605
0.00877392
0.00869962
0.00875744
0.00879326
0.00845626
0.00864483
0.00777023
0.00816385
0.00658163
0.0072409
0.00476224
0.0057519
0.00218478
0.00356767
-0.00126198
0.000566608
-0.00564579
-0.00334435
-0.0109733
-0.00820211
-0.0172035
-0.0139886
-0.0242178
-0.0206311
-0.0318331
-0.0279626
-0.0400145
-0.0358536
-0.0488615
-0.0443557
-0.0584474
-0.053568
-0.068689
-0.0635156
-0.0795475
-0.0740695
-0.090244
-0.0850878
-0.0974046
-0.0943718
-0.104753
-0.100929
-0.1078
-0.112296
-0.107731
-0.11715
-0.115866
-0.114131
-0.116993
-0.105874
-0.111037
-0.0922128
-0.0994352
-0.0759272
-0.0842658
-0.0588106
-0.0673634
-0.042481
-0.0504787
-0.0280701
-0.0350146
-0.0161058
-0.0217983
-0.00666581
-0.011104
0.000417951
-0.00287138
0.00545298
0.00314818
0.00880004
0.00729786
0.0108181
0.00993978
0.0118557
0.0114298
0.0122147
0.0120978
0.012129
0.0122117
0.011769
0.0119729
0.0112484
0.0115227
0.010633
0.0109492
0.00996005
0.0103016
0.00925502
0.00961013
0.00853155
0.00889482
0.00779462
0.00816405
0.00704477
0.00742183
0.00625134
0.00665793
0.00548657
0.0058781
0.00477165
0.00514242
0.00443831
0.00525333
0.00488321
0.0059954
0.00562508
0.00671263
0.00635597
0.00735153
0.00705202
0.00782302
0.00760904
0.00823614
0.00802227
0.00874015
0.00848307
0.00909177
0.00896197
0.00892998
0.00908302
0.0082616
0.00864291
0.00736415
0.00782677
0.00645724
0.00690698
0.00560938
0.00601782
0.00491903
0.00526998
0.00459111
-0.135889
-0.20842
-0.163148
0.00361998
0.00397891
-0.284038
-0.131397
-0.352076
-0.10591
-0.401643
-0.0908446
-0.425441
-0.0919823
-0.420111
-0.108625
-0.0954496
-0.106354
-0.389935
-0.134923
-0.124609
-0.107347
-0.124391
-0.344372
-0.160453
-0.148021
-0.142327
-0.294388
-0.177158
-0.176036
-0.15794
-0.247347
-0.184429
-0.14686
-0.208456
-0.0852978
-0.0847355
-0.075878
0.003708
0.00387658
0.00364599
0.00441756
0.00414361
0.00499288
0.00470777
0.00554497
0.00527517
0.00604451
0.00580342
0.00647342
0.00626767
0.00683011
0.00666036
0.00710552
0.00697834
0.00727264
0.0072037
0.00728748
0.00730054
0.00709156
0.00721753
0.00661141
0.00688888
0.0057579
0.00623316
0.00442861
0.00515413
0.0025143
0.00354499
-9.11569e-05
0.00129677
-0.00347729
-0.00169034
-0.00769617
-0.00548963
-0.0127518
-0.0101287
-0.0186075
-0.0155914
-0.0251633
-0.021813
-0.0322853
-0.0286638
-0.0399333
-0.0360472
-0.0481398
-0.043971
-0.05689
-0.052458
-0.0660375
-0.0614288
-0.0753888
-0.0707086
-0.0841629
-0.0799443
-0.0903361
-0.0877033
-0.0961166
-0.0932334
-0.0967215
-0.0973057
-0.0937541
-0.0953933
-0.10672
-0.094704
-0.0910992
-0.100786
-0.0976725
-0.105577
-0.103691
-0.103525
-0.10515
-0.0964782
-0.100613
-0.0851791
-0.0911809
-0.0714431
-0.0785149
-0.0566964
-0.0640937
-0.042394
-0.0494281
-0.0295177
-0.0357545
-0.0185919
-0.0238176
-0.00977029
-0.0139423
-0.00297221
-0.0061515
0.00202308
-0.000285098
0.00550134
0.00391764
0.00776276
0.0067533
0.00910142
0.00852119
0.00977811
0.00950217
0.0100005
0.00993122
0.00992388
0.00998933
0.00965543
0.00980725
0.00926077
0.00947005
0.00877987
0.00902853
0.00824075
0.00851581
0.00766097
0.00795491
0.0070467
0.00735801
0.00639623
0.00672564
0.00571062
0.00605304
0.0050315
0.00536989
0.00436641
0.00469402
0.00375543
0.0040568
0.0035633
0.00424971
0.00389995
0.00493962
0.00459461
0.0056308
0.0052836
0.00630696
0.0059713
0.00690122
0.00662377
0.00732736
0.0071354
0.00768625
0.00750151
0.00812357
0.00789995
0.00843545
0.00831898
0.00830368
0.00843264
0.00771462
0.00805308
0.00689735
0.0073196
0.00606243
0.0064743
0.00529417
0.00566607
0.0046151
0.0049603
0.0042936
-0.183168
-0.171484
0.00328814
0.0032435
-0.26424
-0.185197
-0.18122
-0.343024
-0.159823
-0.407686
-0.129878
-0.448517
-0.114204
-0.0661133
-0.0748258
-0.0869303
-0.45997
-0.11837
-0.0960926
-0.102285
-0.44155
-0.137922
-0.117633
-0.122961
-0.399311
-0.165515
-0.139898
-0.142796
-0.344529
-0.188554
-0.16797
-0.16126
-0.288705
-0.200502
-0.200758
-0.17803
-0.24033
-0.0556185
-0.0587105
0.00296658
0.00261123
-0.0488577
0.0034924
0.00335593
0.00395108
0.00373007
0.00443689
0.00420023
0.00489581
0.00467566
0.00529209
0.00510314
0.00561112
0.00546127
0.00584564
0.00573861
0.00598311
0.00592669
0.00599731
0.00600633
0.0058484
0.00594428
0.0054837
0.00569427
0.00483729
0.00519707
0.00383057
0.00438021
0.00237529
0.00315978
0.000379043
0.00144462
-0.00224596
-0.0008565
-0.00557119
-0.00382486
-0.009636
-0.00751758
-0.0144412
-0.0119544
-0.0199518
-0.0171189
-0.0260826
-0.0229521
-0.0327305
-0.0293511
-0.0398458
-0.0362354
-0.0474083
-0.0435781
-0.0553457
-0.0513421
-0.0634906
-0.0594069
-0.0715305
-0.0675554
-0.0786572
-0.0752657
-0.0840484
-0.081545
-0.0877167
-0.0863655
-0.0869225
-0.0877263
-0.0849026
-0.0860022
-0.0750003
-0.0675013
-0.085312
-0.0811085
-0.0911842
-0.0884296
-0.0948748
-0.0935248
-0.0942123
-0.0954161
-0.0883465
-0.0917247
-0.0790219
-0.0840155
-0.06738
-0.0733975
-0.0546749
-0.0610719
-0.0421398
-0.0483306
-0.0306387
-0.0362353
-0.0206811
-0.025467
-0.0124682
-0.0163734
-0.00598389
-0.00903583
-0.0010773
-0.00336286
0.00247394
0.000838528
0.00491769
0.00380743
0.00650128
0.00579384
0.0074487
0.00703607
0.00794299
0.00773867
0.00812406
0.00806286
0.00809084
0.00812779
0.00790672
0.00801351
0.00761217
0.00777036
0.007236
0.0074322
0.00679697
0.00702307
0.00630234
0.00655594
0.00575537
0.0060342
0.00516937
0.00546434
0.00456498
0.00486615
0.0039645
0.0042517
0.00339005
0.0036447
0.00298554
0.00273245
0.00304702
0.00283564
0.00342314
0.00315891
0.00402027
0.00371187
0.00464753
0.0043324
0.00529782
0.00497033
0.00593241
0.00561877
0.00648055
0.00622548
0.00686394
0.00669252
0.00717357
0.00701541
0.00754563
0.00735565
0.00781179
0.00771234
0.00770232
0.00781072
0.00719238
0.00748701
0.00646304
0.00684243
0.00570206
0.00607869
0.00498034
0.00533474
0.00431899
0.00465183
0.0036695
0.00399491
0.00332467
-0.231284
-0.201088
0.00245343
-0.318169
-0.222647
-0.192239
0.0027466
0.00235772
0.0027745
0.00249342
-0.39617
-0.187652
-0.0381384
-0.0446501
-0.453797
-0.155931
-0.0636468
-0.0687512
-0.0781158
-0.48322
-0.142396
-0.0856544
-0.0969336
-0.481056
-0.150393
-0.109325
-0.118513
-0.450784
-0.172893
-0.132107
-0.141346
-0.39853
-0.19957
-0.159214
-0.16263
-0.336675
-0.21793
-0.191711
-0.182676
-0.278189
-0.222601
-0.230592
0.00265212
-0.0264554
-0.0319611
-0.0212796
0.00232308
0.0031224
0.00297265
0.00349624
0.00330339
0.00389611
0.00369888
0.00426177
0.00408571
0.00455871
0.00441963
0.0047705
0.00467507
0.00488616
0.00484005
0.00489007
0.0049021
0.00475708
0.00484105
0.00445168
0.00462656
0.00392726
0.00421769
0.00312548
0.00356194
0.00197792
0.00259562
0.000409434
0.00124652
-0.00165722
-0.000562256
-0.00429387
-0.00290625
-0.00755671
-0.00585085
-0.0114745
-0.00943967
-0.0160445
-0.0136856
-0.0212319
-0.0185705
-0.0269625
-0.0240398
-0.0331505
-0.0300077
-0.0397372
-0.0364007
-0.046664
-0.0431665
-0.0538222
-0.0502253
-0.0610341
-0.0574366
-0.0679292
-0.0645554
-0.0737722
-0.0710144
-0.0781996
-0.0761374
-0.080176
-0.0797427
-0.0788692
-0.080126
-0.0765679
-0.0780345
-0.0674536
-0.0729002
-0.0597485
-0.052958
-0.0609301
-0.0489965
-0.0426021
-0.0515563
-0.0422972
-0.0664302
-0.0594073
-0.076176
-0.0720215
-0.0826406
-0.0798827
-0.0861165
-0.0849516
-0.0858939
-0.0865626
-0.0812696
-0.0839877
-0.0735682
-0.0777215
-0.0637045
-0.0688228
-0.0527607
-0.0582923
-0.0417712
-0.0472211
-0.031505
-0.0365222
-0.0224473
-0.0268206
-0.0148256
-0.0184678
-0.00867184
-0.011585
-0.0038907
-0.00613371
-0.00031282
-0.00197607
0.00226357
0.00107737
0.0040453
0.00323341
0.00522355
0.00469327
0.00595824
0.00563363
0.00637377
0.00619664
0.00655989
0.00648916
0.00657613
0.00658497
0.00646168
0.00653217
0.00624443
0.00636361
0.00594283
0.00610262
0.00556645
0.00576275
0.00512355
0.00535172
0.00462707
0.00488014
0.00409545
0.00436259
0.00354628
0.00381832
0.0030061
0.0032847
0.0024746
0.0027398
0.00322637
0.00295457
0.00379757
0.00351077
0.00438582
0.00408819
0.00499538
0.00468877
0.00558624
0.00529563
0.00608612
0.00585443
0.00642815
0.00627612
0.00669373
0.00655935
0.00700414
0.00684659
0.00722247
0.00714187
0.00712875
0.00722
0.00669274
0.00694509
0.00604998
0.0063869
0.00535543
0.0057021
0.00467451
0.00501189
0.0040369
0.00435675
0.00338962
0.00371508
0.00306728
-0.277857
-0.0112935
-0.0146914
-0.201121
0.00224903
0.00198255
0.00221584
-0.366697
-0.257242
-0.0327796
-0.215862
0.0024073
0.00207806
-0.026449
-0.0365853
-0.0068555
-0.00133893
0.00339157
-0.439902
-0.216294
0.0087134
-0.00790663
0.00410435
-0.0528571
-0.0685448
-0.487388
-0.184481
-0.0749579
-0.0894662
-0.503109
-0.175271
-0.0987653
-0.11143
-0.488208
-0.188436
-0.123503
-0.136588
-0.447279
-0.212498
-0.150092
-0.160922
-0.387963
-0.235727
-0.181377
-0.184748
-0.322868
-0.246222
-0.218998
-0.207357
-0.265538
-0.0267339
-0.017687
0.00230946
0.00205439
0.00213266
0.00270291
0.00251129
0.0030456
0.00288153
0.00336736
0.00320766
0.00364371
0.00351255
0.00384444
0.00375392
0.00395159
0.00390949
0.00395087
0.00396442
0.00382449
0.00390323
0.00354873
0.00370529
0.00309271
0.00334348
0.00241605
0.0027824
0.00146802
0.0019764
0.00019011
0.000870503
-0.00148053
-0.000596375
-0.00360745
-0.00248797
-0.00624844
-0.00486588
-0.00944674
-0.00778172