/*--------------------------------*- C++ -*----------------------------------*\
  =========                 |
  \\      /  F ield         | OpenFOAM: The Open Source CFD Toolbox
   \\    /   O peration     | Website:  https://openfoam.org
    \\  /    A nd           | Version:  10
     \\/     M anipulation  |
\*---------------------------------------------------------------------------*/
FoamFile
{
    format      ascii;
    class       surfaceScalarField;
    location    "11.5";
    object      phi;
}
// * * * * * * * * * * * * * * * * * * * * * * * * * * * * * * * * * * * * * //

dimensions      [0 3 -1 0 0 0 0];

internalField   nonuniform List<scalar> 
17221
(
0.0839201
-0.0260224
-0.0696494
0.0117517
0.00128918
0.0765433
0.0060876
0.065688
-0.0197628
-0.0719475
0.0875817
-0.0117415
-0.0791096
0.0032695
0.0133824
0.0786157
-0.00441642
0.0750111
0.0170694
-0.078698
-0.00160091
-0.00257545
0.0704027
-0.0662264
-0.00886392
-0.0681737
0.0754367
0.00302283
-0.0421707
0.00711672
0.0320312
-0.0424339
0.00939265
0.0360641
0.00218064
0.0431203
-0.051122
0.00582108
-0.0475069
0.0496876
-0.00941061
0.0424311
-0.0400665
0.00704601
0.0480219
-0.00506186
-0.0523706
0.0468822
0.0499369
-0.0286076
-0.0682115
0.0345852
-0.0171444
0.0294414
0.0130312
0.0649604
-0.0761598
-0.00183182
0.00525014
0.0567578
-0.0489767
-0.0481306
-0.0143386
0.0677194
-0.028687
-0.0614557
0.0730711
0.0170717
-0.0666341
0.00276996
0.0351771
0.0438255
0.0455912
-0.0510832
-0.0383336
0.100567
-0.0655506
0.00880878
-0.0297754
0.0111941
0.0842692
-0.108983
-0.0586963
0.0808708
0.0868087
-0.0481975
0.0318966
-0.0926822
0.0962597
-0.0932976
-0.0511596
0.0813971
-0.0438337
-0.0272355
-0.050083
0.0128472
0.0644714
-0.0123741
-0.0535777
0.0387163
-0.0585756
0.00305225
0.0431492
-0.0928622
0.00349543
0.0663683
0.0229985
0.0239301
-0.0932715
-0.0235209
0.113738
0.0247467
-0.114555
0.0160156
0.101218
0.0665323
-0.000155572
-0.0190419
-0.0473348
0.0115347
0.0673283
-0.0123307
-0.0418389
0.0410286
0.0639536
-0.0631432
0.102446
-0.0792987
-0.0248591
0.00171176
0.0713114
-0.0107044
0.0348743
0.0938476
-0.0376854
0.0238292
0.00266506
-0.0094777
0.00681265
0.00350416
-0.0091559
0.0083168
0.0911199
-0.042158
-0.0489619
-0.0585257
0.0480649
0.101581
0.00256833
-0.00349748
-0.00395061
0.00487976
-0.00212215
0.000741181
0.00394929
-0.0059675
0.00034788
0.0437701
0.0678935
-0.0662751
-0.0453886
0.0538997
-0.0723376
0.0622079
-0.0328236
0.0466125
0.0401109
-0.022898
0.0579679
-0.0852339
0.0146667
0.0700368
0.00053033
-0.0752988
-0.00751773
-0.00241735
-0.00793488
-0.0668329
-0.000531011
-0.0563774
0.0118121
0.0605073
-0.015942
0.0140051
-0.0575981
-0.0127844
-0.043861
0.0493316
-0.018211
0.0127405
0.0189131
-0.050962
-0.0772231
-0.00927875
0.0715724
0.0149295
-0.0102936
-0.0759608
0.00903129
0.0747451
-0.0150755
-0.0669956
0.00732595
-0.0107626
0.0752141
0.00575326
-0.0588526
0.00355683
0.0495425
0.0639662
-0.00120734
-0.0570056
0.0705245
-0.00913382
-0.0975106
0.00256965
0.0348077
0.0601333
-0.00296243
-0.103935
0.00938678
-0.00113974
0.0987446
-0.00776815
-0.0537536
0.00435601
0.0571658
-0.0589732
0.0572824
-0.00607735
0.00979105
-0.0587043
-0.0048404
-0.0584782
0.00448744
0.0637818
0.0147222
0.0596589
-0.0141772
-0.060204
0.0584718
-0.0618408
0.0180912
-0.0152772
0.0609914
0.0139447
-0.0134917
0.0592615
-0.061047
0.0253381
-0.0836819
-0.0723591
-0.000490468
-0.000733626
0.0735832
-0.0792167
0.0128573
-0.0059997
-0.00205218
-0.06141
-0.00031868
0.0637809
-0.0604484
0.0635874
-0.00519119
0.0876414
-0.0734534
0.01115
0.0906786
0.00634961
0.0734854
-0.00693078
0.0359108
-0.0338899
0.00490991
0.034097
-0.00909074
-0.031937
0.00806848
0.0485879
-0.0502146
-0.00644179
0.0425217
0.00825693
-0.0427101
0.0846951
-0.0526857
-0.0399443
0.0726608
0.00451656
-0.00198163
-0.000678116
-0.0641732
0.0283222
0.0772849
-0.0334021
-0.072205
0.0232714
0.0756609
-0.0706101
-0.0485357
-0.0167268
0.0549143
0.0103483
-0.00580551
0.0389931
-0.0817234
0.0590971
0.00510245
-0.0700051
0.0444672
-0.00209691
-0.00904136
-0.0624813
0.0712996
0.00022299
-0.0359664
0.0818393
0.0666479
0.00529763
-0.00735352
-0.064592
0.00711374
0.0681292
-0.00859499
0.0499393
-0.0110989
0.00918147
0.0504623
-0.0105162
0.00999323
0.0518333
-0.00974111
0.00837016
0.0510705
-0.00781661
0.00857941
0.0533118
-0.0104492
0.00820784
0.0528392
-0.00712581
0.00759841
0.0541294
-0.00825938
0.00696921
0.0541518
-0.00658905
0.00656669
0.0549463
-0.00605994
0.00526542
0.0543576
-0.00435772
0.00494635
0.0556686
-0.00413295
0.00282195
0.0567354
-0.00244743
0.0013807
0.0570181
-0.00225653
0.00197382
0.0577497
-0.00133058
0.000599019
-0.00141533
0.0593954
-0.000230452
0.0585345
-0.0576183
-0.00233146
-0.00151843
0.00243566
-0.00168823
0.0579336
-0.0575343
-0.00265585
-0.00101529
0.0574648
-0.0578063
-0.00379146
-0.00251696
0.0573237
-0.057457
-0.00592666
-0.0048403
0.0577609
-0.0589267
-0.00709361
-0.00628512
0.0576154
-0.0589728
-0.00909187
-0.00843704
0.0568656
-0.0562923
-0.0103144
-0.00992375
0.0555541
-0.0567562
-0.00989684
-0.0112544
-0.0124865
-0.0444716
0.0462459
0.00821894
0.00714095
-0.0477775
0.0490288
0.0073282
0.00683848
-0.049418
0.0502193
0.00679711
0.00781857
-0.0519403
0.0525045
0.00600254
0.00524822
-0.0534129
0.054606
0.00375321
0.004357
-0.0567488
0.0571377
0.000991846
0.000679111
-0.0580691
0.0596716
-0.00100357
0.00104247
-0.0612466
0.0638709
-0.0001886
-0.00180541
0.0639273
0.00443104
0.015778
-0.0364951
0.0396301
0.00582259
0.0623152
-0.0596416
-0.00417207
0.068459
0.00129083
0.0115471
-0.048504
0.00980856
0.0596893
-0.0609016
-0.00111922
-0.00164046
0.0606921
-0.0609851
-0.00236284
-0.00122479
0.0609377
-0.0608066
-0.00392262
-0.00256431
0.0620309
-0.0623388
-0.00561878
-0.00361596
0.062426
-0.0625068
-0.00701272
-0.00619796
0.06315
-0.0625321
-0.00970972
-0.00779392
0.0629073
-0.0620872
-0.0111346
-0.00954854
0.0620398
-0.0593978
-0.0125389
-0.0113018
0.0574125
-0.0151162
-0.0144718
0.00390407
-0.00656855
0.0649797
0.00269677
0.0696663
-0.0402367
0.0414451
0.00583751
0.00548272
-0.0430626
0.0460347
0.00524686
0.00552347
-0.0469517
0.0479889
0.00629108
0.00592145
-0.0503984
0.0525129
0.00468257
0.00540905
-0.0530824
0.0550145
0.00407044
0.00467872
-0.0569243
0.0588635
0.00181401
0.00244726
-0.0593528
0.0602481
9.66042e-05
0.000189755
-0.0623683
0.0634376
-0.00207293
-0.00107776
-0.0641615
0.0674867
-0.00351382
-0.00252925
-0.0725082
0.0728336
0.000965455
-0.00059044
0.0194851
0.043101
-0.0053037
0.0700824
-0.0340387
0.00352243
0.0720079
0.012926
-0.0194451
-0.051079
0.00553295
-0.0411109
-0.0607999
0.0646838
-0.0166683
-0.0622387
-0.0180063
0.0727744
-0.0447489
-0.00459139
0.0666032
-0.0587944
0.00874184
0.00375553
-0.00657726
-0.0291153
-0.0328746
0.00274021
0.0603588
-0.0628528
-0.00167806
-0.00451292
0.0640382
-0.0644207
-0.000736747
-0.000455076
0.0645115
-0.0648441
-0.00203028
-0.00113396
0.0650597
-0.0654165
-0.00356591
-0.00234866
0.0652546
-0.0655038
-0.00536964
-0.00377777
0.066269
-0.0661653
-0.00711644
-0.00543273
0.0663464
-0.0663766
-0.00967953
-0.00761282
0.0666914
-0.065865
-0.011961
-0.00923375
0.0660457
-0.0645274
-0.0140572
-0.0111211
0.065776
-0.0652387
-0.0156534
-0.0132233
-0.016497
0.0726216
-0.0709482
-0.000707933
0.0754456
0.000698474
-0.0387159
0.0413396
0.00228619
8.16033e-05
-0.000123533
-0.0328327
0.0394972
0.00077872
-0.0401944
0.00352159
-0.04318
0.0460261
0.00299142
0.0036423
-0.0482831
0.0492441
0.00428587
0.00326648
-0.0509245
0.0528033
0.00441233
0.00424103
-0.0546055
0.055758
0.00353003
0.00360685
-0.0577584
0.0597497
0.00207917
0.00267827
-0.06126
0.0629476
0.000126418
0.000936976
-0.0638462
0.0657118
-0.00176895
-0.00070889
-0.066783
0.0679533
-0.00324323
-0.00214896
-0.0686032
0.0693087
-0.00421925
-0.00317918
-0.00223001
-0.000673269
-0.000210803
0.0658638
0.0648177
-0.000311158
0.00158885
0.0707302
0.0691444
-0.035083
-0.0197356
0.00909223
-0.0404356
-0.0375727
-0.0444016
0.000134838
0.0080076
-0.0457152
-0.0518595
0.00759279
-0.0595151
0.00126142
0.0016739
0.0753605
0.000445242
-0.0296841
0.0045723
-0.036591
-0.0454673
0.0479119
-0.00166592
-0.000768493
0.000812169
-0.040238
-0.0471615
0.000925673
0.00266632
-0.0346869
0.00522883
-0.0376568
0.00743652
-0.0494449
-0.00985113
0.00401019
-0.0422888
-0.0118068
0.00701636
-0.0446545
-0.0458758
0.0563391
-0.0222701
0.00326076
-0.0145514
0.0665077
-0.067244
-0.000941788
0.00247968
0.0669998
-0.0670369
-0.000699659
-0.000699293
0.0671563
-0.0673323
-0.00185437
-0.00101449
0.0674798
-0.0676558
-0.00338992
-0.00220114
0.0677905
-0.067942
-0.00521807
-0.00364309
0.0680578
-0.0678735
-0.0073008
-0.00531694
0.0683207
-0.068464
-0.00953622
-0.00716557
0.0685731
-0.068688
-0.0118461
-0.00912466
0.0687344
-0.0687369
-0.0140546
-0.0110747
0.0691146
-0.0688421
-0.0159258
-0.0128456
0.0693489
-0.0700369
-0.0159803
-0.0159903
0.0730968
-0.0568324
-0.00867163
-0.0149464
-0.0103445
-0.0501044
0.0511587
0.00123188
0.00132913
-0.0527264
0.0534992
0.00221857
0.00207462
-0.0544671
0.0556753
0.00307764
0.00229865
-0.0572571
0.0587022
0.00296729
0.0026592
-0.0601452
0.0616791
0.00199606
0.00216384
-0.0632822
0.0649057
0.000455643
0.00107522
-0.0661908
0.0675906
-0.00127338
-0.000348103
-0.0686309
0.0696771
-0.00281518
-0.00174915
-0.0704125
0.0711074
-0.00393809
-0.00288437
-0.0715501
0.0715205
-0.00418972
-0.00362191
-0.0735491
0.0760123
-0.00317108
-0.00425859
-0.0767554
0.0768049
0.00162437
-4.46293e-05
0.00361321
-0.0031714
0.0661614
0.0695485
0.00289072
-0.00202652
0.0649996
0.064537
0.000906108
-0.000573789
0.0703979
0.068024
-0.0014309
0.00139385
0.0768419
0.0733558
-0.0300655
-0.00343922
0.00572284
-0.00201281
0.0795839
-0.0771032
-0.000856287
0.0784866
0.00249112
0.00159244
-0.0286102
-1.95319e-05
-0.0313426
-0.0727127
0.0625415
-0.0120989
-0.00788579
-0.01489
0.00470918
-0.0336732
0.000482774
-0.0341294
0.00121747
-0.03649
-0.00106474
-0.0403289
0.0690713
-0.0686904
0.000880501
0.000436486
0.0671038
-0.0686626
0.000616956
0.000893112
0.0686836
-0.0687794
-0.00060388
-0.000678221
0.0687868
-0.0688126
-0.00182857
-0.00100708
0.0688372
-0.06888
-0.00334711
-0.00217659
0.0689281
-0.0690102
-0.00513596
-0.00359496
0.0691076
-0.0692709
-0.00713757
-0.0052195
0.0694404
-0.0696851
-0.00929151
-0.00699603
0.0699314
-0.0702513
-0.0115262
-0.00887837
0.070537
-0.070856
-0.0137356
-0.010789
0.0710843
-0.0712922
-0.0157179
-0.0126173
0.0726567
-0.0728181
-0.0158189
-0.0146258
0.0719484
-0.0673088
-0.0133112
-0.0158161
-0.0151118
-0.053027
0.0543277
-0.00331349
0.00555797
0.00548504
-0.0612576
0.0535281
-0.0358063
-0.0121638
-0.00594072
-0.0575457
0.057093
-0.00121318
-0.00229237
-0.0587981
0.0594735
0.000556501
-0.000375979
-0.0603231
0.0611137
0.00142789
0.00122504
-0.061832
0.0628658
0.00204382
0.00158038
-0.0638651
0.0651211
0.00171126
0.00165995
-0.0662238
0.067536
0.000683874
0.00106113
-0.0686076
0.0697896
-0.000726299
3.56347e-06
-0.0706794
0.0715953
-0.00218929
-0.00123787
-0.0722312
0.0728222
-0.00340617
-0.00238506
-0.073188
0.0734788
-0.00422889
-0.00325021
-0.0737838
0.0736555
-0.00406148
-0.00392686
-0.073714
0.0749144
-0.00437154
-0.00431704
-0.00223339
-0.00440435
0.00608886
0.0698878
0.00196045
-0.00160938
0.0658103
0.0671046
0.000934484
-0.0023098
0.0663749
0.0638621
0.00159478
-0.000994889
0.069798
0.0673089
0.000605265
0.000885381
0.0753513
0.0729662
0.00333602
0.076036
-0.0284926
0.061066
-0.0851558
0.0390193
-0.0168793
0.0840341
0.0304187
-0.0442929
-0.0219321
-0.0727647
-0.00335982
0.00484766
-0.0287487
-0.00246241
-0.0283974
0.00941454
-0.0348308
-0.0019818
-0.0309301
-0.0770734
0.000321085
0.0770377
-0.000285331
0.00929649
-0.0465216
-0.000527677
-0.037027
0.0107382
-0.0415772
-0.000324625
-0.0571487
0.040898
-0.018758
-0.0845688
0.0108314
0.0714024
-0.0698406
-0.000681301
-0.000925789
0.0700782
-0.069381
-8.02359e-05
0.00113064
0.0696213
-0.0696433
-0.000581855
-0.000437907
0.0695597
-0.0694812
-0.00190713
-0.00109068
0.0694335
-0.0694099
-0.00337073
-0.00222425
0.0694246
-0.069492
-0.0050685
-0.00358026
0.0696007
-0.0697944
-0.00694393
-0.00511083
0.0700196
-0.0703598
-0.00895131
-0.00677081
0.0707163
-0.0712117
-0.0110308
-0.0085218
0.0716967
-0.0723302
-0.0131021
-0.0103041
0.07292
-0.0736364
-0.0150016
-0.0120275
0.0747572
-0.0740897
-0.0164863
-0.013505
0.075462
-0.0716671
-0.0171061
-0.0144439
0.0733255
-0.0727584
-0.0126659
-0.0134534
0.0654018
-0.0750933
-0.0189161
-0.0152424
-0.0536699
0.0583232
-0.0168171
-0.0771091
-0.0208536
-0.0590151
0.0603818
-0.00468024
-0.00663259
-0.0622143
0.063922
-0.00292086
-0.00412487
-0.0645473
0.0656242
-0.000520479
-0.00100123
-0.066627
0.0672265
0.00082844
0.000222249
-0.0678605
0.0686902
0.00121411
0.000946376
-0.0694394
0.070359
0.000791701
0.000910697
-0.071129
0.0720069
-0.000194038
0.000291098
-0.0726852
0.0733905
-0.00143164
-0.000674664
-0.0738794
0.0743282
-0.00263802
-0.0017268
-0.0745926
0.0747756
-0.00358909
-0.00264952
-0.0748301
0.0747861
-0.0041849
-0.00330473
-0.0745173
0.0748915
-0.00443564
-0.00365809
-0.0743061
0.0739289
-0.0039943
-0.0037317
-0.0752338
0.0788639
-0.00448632
-0.00353834
-0.00321385
-0.0179023
0.0109292
-0.0612384
-0.0738531
-0.0191425
0.000623361
-0.00128242
0.0705469
-0.0216679
-0.00110586
0.0636718
0.0629896
0.00146514
-0.0012656
0.0656108
0.0672874
0.00257129
-0.00298166
0.0667853
0.0651678
0.00172912
-0.00226278
0.0703316
0.0660564
0.00188113
-0.000525301
0.0739955
0.0725846
0.0758317
-0.0261073
0.00776541
-0.0270995
-0.00518428
-0.025195
-0.00137888
0.00245984
0.0759567
-0.0720708
0.00835128
0.074551
-0.00299853
0.0758853
-0.0742657
0.0106758
-0.0362101
-0.00400054
-0.0274573
0.0103133
-0.0460966
-0.00280623
-0.0345454
0.00643689
-0.0699461
-0.000621181
-0.0455983
-0.0195718
0.0143485
-0.0718858
0.0123518
-0.0128827
-0.0733222
0.00739981
-0.0562864
-0.0576939
-0.00482205
-0.000409898
0.063763
0.0099173
-0.00955347
-0.0691551
0.0687913
0.069175
-0.0700834
-0.00245142
-0.00727681
0.0710652
-0.0712744
-0.000472047
5.59538e-05
0.070061
-0.0701146
-2.6629e-05
-8.27571e-05
0.0701891
-0.0698748
-0.000896162
-0.000363393
0.0697464
-0.0696228
-0.00203079
-0.0012191
0.0695495
-0.0695071
-0.00341313
-0.00229752
0.069517
-0.0695886
-0.00499693
-0.00357031
0.0697079
-0.0699196
-0.00673219
-0.00499158
0.070167
-0.0705398
-0.00857853
-0.00652341
0.0709313
-0.0714789
-0.0104832
-0.00813029
0.0720239
-0.0727558
-0.0123702
-0.00975909
0.0734586
-0.0743532
-0.014107
-0.0113247
0.0751685
-0.0761659
-0.0154889
-0.0126897
0.0769863
-0.0778774
-0.0162149
-0.0136235
0.0779792
-0.0766816
-0.0139636
-0.0133517
0.0759968
-0.079168
-0.0157449
-0.0159272
0.0832091
-0.0833869
-0.012705
-0.0151014
-0.0134098
0.00919752
-0.0691098
0.095662
0.0177399
-0.0596891
-0.0537128
-0.00113473
-0.0677228
0.0635341
-0.0126284
0.072574
-0.0749242
-0.0172216
-0.0160025
-0.0663514
0.0677337
-0.00606256
-0.00944988
-0.0679326
0.0682473
-0.00323563
-0.00432374
-0.0690714
0.0697354
-0.00118444
-0.0018253
-0.0702978
0.0709857
0.000140508
-0.000340138
-0.071581
0.0722986
0.000496572
0.000351069
-0.0728926
0.0735655
0.000118804
0.000316639
-0.074086
0.0746272
-0.000735193
-0.00022944
-0.0750027
0.075343
-0.00177192
-0.00105018
-0.075533
0.0756448
-0.00274977
-0.00191684
-0.075649
0.0755569
-0.00349706
-0.0026537
-0.0754097
0.0751704
-0.00394562
-0.00315749
-0.0749241
0.0745984
-0.00410991
-0.00341178
-0.0743069
0.0743316
-0.00401895
-0.00344024
-0.0741932
0.07336
-0.00365313
-0.00339995
-0.00192472
0.00489887
-0.000600478
0.0662485
0.0674786
0.00077007
-0.0030198
0.0678605
0.0674569
0.00257176
-0.00294235
0.0671559
0.0647198
0.00318912
-0.00329834
0.0704409
0.0663032
0.00239181
-0.0014836
0.0730873
0.071678
0.076808
-0.0235262
-0.0638997
-0.00137074
0.0767611
-0.0718963
0.00348646
0.0740334
-0.000270852
0.0101869
-0.0266107
-0.00785377
-0.0213417
0.0118925
-0.0377892
-0.00685061
-0.0234129
0.0119173
-0.051577
-0.00406405
-0.0311025
0.010982
-0.0665796
0.0201493
-0.0759902
-0.0190832
0.0220719
-0.0738084
-9.122e-05
-0.0381073
0.00247218
-0.0495611
0.00732773
-0.0586977
0.00993436
-0.0597061
-0.0688601
0.084561
-0.000622437
-0.0150785
-0.0731544
-0.00525911
0.00701672
-0.00795581
-0.068216
0.0690731
-0.0700692
-0.00145537
-0.0021034
0.0700039
-0.0703195
-0.000156501
-9.26816e-06
0.0703107
-0.0700972
-0.000240133
-9.15597e-05
0.0699218
-0.0697364
-0.00108152
-0.000538778
0.0696017
-0.0694776
-0.00215487
-0.00135386
0.0694088
-0.0693773
-0.00344462
-0.00236632
0.0693997
-0.0694887
-0.00490794
-0.00354788
0.0696238
-0.0698557
-0.00650027
-0.0048565
0.0701213
-0.0705165
-0.00818334
-0.00625788
0.0709286
-0.0715036
-0.0099082
-0.00771813
0.0720754
-0.072844
-0.0116016
-0.00918723
0.0735816
-0.0745366
-0.013152
-0.0105871
0.0754239
-0.0765255
-0.0143873
-0.0118024
0.0774983
-0.078652
-0.0150612
-0.0126507
0.0790954
-0.0781719
-0.0148871
-0.0129082
0.0813759
-0.0835356
-0.0135851
-0.0127232
0.0854389
-0.088836
-0.00930792
-0.0131981
-0.00540964
-0.0751888
0.0734152
-0.015448
-0.0217667
0.0231395
-0.077363
0.0774379
-0.0786788
-0.0205258
-0.0168341
-0.0709608
0.06902
-0.0106876
-0.0135481
-0.0682108
0.0691064
-0.00695815
-0.00864065
-0.0693675
0.0701538
-0.00402191
-0.00458485
-0.0706718
0.0712999
-0.00181257
-0.00234328
-0.0718773
0.0725837
-0.000565844
-0.00091758
-0.0731618
0.0738122
-0.000153787
-0.000227071
-0.0743121
0.0748364
-0.000405518
-0.000183282
-0.0752025
0.0755405
-0.00107318
-0.000595549
-0.0757375
0.0758661
-0.00190049
-0.00124717
-0.075888
0.0758174
-0.00267908
-0.00193883
-0.075687
0.0754592
-0.00326925
-0.00252331
-0.0752197
0.0748922
-0.00361814
-0.00291802
-0.0745914
0.0742184
-0.00373684
-0.00311099
-0.0738927
0.0735138
-0.00364
-0.0031146
-0.0733157
0.0719234
-0.00226082
-0.00320189
-0.00189757
-0.00408633
0.00161122
0.0662381
0.00626082
-0.00511299
0.0624396
0.0659554
3.62556e-05
-0.00139001
0.0676023
0.069126
0.00170049
-0.00210538
0.0682654
0.0677674
0.00250964
-0.00284738
0.0674936
0.065124
0.00305123
-0.00311691
0.0705065
0.066507
0.00270802
-0.00210847
0.0724877
0.0712692
0.00133941
-0.000920676
0.075538
0.0760389
-1.3582e-05
0.0745541
-0.000507097
0.0749511
-0.0211931
0.0125533
-0.0272716
-0.0106214
-0.0175709
0.0138647
-0.0397367
-0.00954157
-0.0179354
0.00108906
-0.000383895
0.0738489
0.0737661
-0.0750968
0.000823617
0.073257
0.0015981
0.0153418
-0.0559369
0.0192796
-0.0637873
0.0220236
-0.0726925
0.0243854
-0.0800376
-0.0230266
0.0250837
-0.0780613
-0.0235203
-0.00767351
-0.0034958
-0.0321393
-0.000268986
-0.0419644
0.00212974
-0.0508931
0.0043323
-0.0570217
0.0606363
-0.065374
-0.00037529
-0.0739941
-0.00711614
-0.0066287
0.0026478
-0.0642351
-0.00393008
-0.0766927
-0.00819781
0.00545072
0.0651867
0.0601704
-0.0077319
0.0677922
-0.0672988
-0.00186413
-0.00277304
0.0679647
-0.0693421
-7.79044e-05
-0.00143749
0.0696428
-0.0699614
0.000162148
0.000291354
0.0699556
-0.069752
-0.000443684
-9.73808e-05
0.0695905
-0.0694213
-0.00125073
-0.000700287
0.0693021
-0.0691988
-0.00225821
-0.00147307
0.069149
-0.0691404
-0.00345323
-0.00241611
0.0691815
-0.0692907
-0.00479865
-0.00350677
0.0694409
-0.0696882
-0.00625296
-0.00470633
0.0699644
-0.0703692
-0.00777854
-0.00598172
0.0707873
-0.0713672
-0.00932828
-0.0073
0.0719418
-0.0727115
-0.0108319
-0.00861269
0.0734502
-0.0744104
-0.0121918
-0.00984833
0.075305
-0.0764265
-0.0132659
-0.0109078
0.0774322
-0.0786362
-0.0138572
-0.0116449
0.0796692
-0.0808114
-0.0137449
-0.0118752
0.0820836
-0.08325
-0.0124187
-0.011451
0.0854607
-0.0846085
-0.0101601
-0.0109874
0.0820732
-0.0778144
-0.00488126
-0.00794495
0.0774748
-0.0774396
-0.00715126
-0.00559876
-0.0793513
0.0768123
-0.0179869
-0.0230106
0.0263807
-0.0834077
0.0809949
-0.0828845
-0.021121
-0.021383
-0.0742683
0.0731561
-0.0143358
-0.0142901
-0.0718995
0.0711096
-0.00989773
-0.0122915
-0.069904
0.0700332
-0.00708736
-0.00743498
-0.0702215
0.0706195
-0.00441991
-0.00477322
-0.0710845
0.0716941
-0.00242218
-0.00280826
-0.0722303
0.0728784
-0.00121402
-0.00145369
-0.0734038
0.0739809
-0.000730977
-0.000752397
-0.0744088
0.0748354
-0.000832182
-0.000611098
-0.0751145
0.0753465
-0.00130512
-0.000874669
-0.0754567
0.0754896
-0.00193348
-0.00135735
-0.0754413
0.0753013
-0.00253909
-0.00189049
-0.0751255
0.0748584
-0.0030022
-0.00234746
-0.0745984
0.0742571
-0.00327685
-0.00265801
-0.0739557
0.0735844
-0.00336557
-0.00280955
-0.0733941
0.0729431
-0.003189
-0.00292432
-0.0721392
0.0719066
-0.00202825
-0.00239793
-0.0719548
0.0750959
0.000345376
-0.0019458
-0.000271721
-0.00406439
0.00294166
0.0673608
0.0673417
-0.00062034
-0.00129667
0.0695193
0.0714474
0.00161524
-0.00201147
0.0686616
0.068086
0.00239611
-0.00270443
0.0678019
0.0655087
0.00287346
-0.00290693
0.07054
0.066676
0.00256972
-0.00171387
0.0716319
0.0709319
0.000677919
0.00101232
0.0738477
0.075003
0.0755795
-0.0192612
-0.0738786
-0.00749111
-0.0120313
-0.00533158
-0.0593299
-0.0503776
-0.0355323
0.0147518
-0.0281586
-0.0131461
-0.0139663
0.00115983
-0.000184241
0.0728733
0.00304435
0.0713725
0.016661
-0.0410558
0.0180162
-0.0546735
0.0223378
-0.0641015
0.025614
-0.0732229
0.0275702
-0.0792508
0.0248623
-0.0855275
-0.0222193
0.0262517
-0.0847971
-0.0175192
-0.00949688
-0.00643207
-0.0259762
-0.00306623
-0.0367684
0.000933297
-0.0474941
0.00223839
-0.0566123
-0.00221803
-0.0673487
-0.0131051
0.00732165
0.0709702
-0.025531
0.0725962
0.0664109
-0.067251
0.00046482
-0.0733759
0.0729021
0.00207197
-0.0744891
0.00193677
0.0492879
0.0093911
-0.0121733
-0.0134355
0.0681148
-0.0691288
-0.000850117
-0.00190922
0.0694806
-0.069924
0.000365527
-0.00108569
0.0698274
-0.0696467
-1.85595e-05
0.000194772
0.0694933
-0.0693172
-0.000619735
-0.00025083
0.0691796
-0.0690393
-0.00139107
-0.000837899
0.0689448
-0.0688698
-0.00233326
-0.00156756
0.0688426
-0.0688585
-0.00343729
-0.00244329
0.0689176
-0.0690441
-0.00467209
-0.00344771
0.069205
-0.0694601
-0.00599791
-0.00454547
0.0697381
-0.0701394
-0.0073772
-0.00570367
0.0705494
-0.0711134
-0.00876428
-0.00689003
0.0716685
-0.0724084
-0.0100921
-0.00805761
0.0731166
-0.0740362
-0.0112722
-0.00914009
0.0748935
-0.0759739
-0.0121855
-0.0100506
0.0769491
-0.078133
-0.0126733
-0.0106697
0.079155
-0.0803196
-0.0125803
-0.0108532
0.0812716
-0.0819065
-0.0117838
-0.010499
0.0833802
-0.0832209
-0.0103194
-0.00951378
0.083074
-0.0812777
-0.00667757
-0.0080918
0.0807533
-0.0812335
-0.00667103
-0.00612318
-0.0147757
-0.0949317
0.0760337
-0.0974577
-0.0141083
-0.012691
-0.0828164
0.0805246
-0.0188292
-0.0230344
0.0260634
-0.0885565
0.0848282
-0.087658
-0.0202045
-0.0202075
-0.0771178
0.0739829
-0.014852
-0.0179762
-0.0741326
0.072443
-0.0126461
-0.0144398
-0.0707356
0.070216
-0.00937819
-0.0105841
-0.070139
0.0701737
-0.00712203
-0.00735798
-0.0703457
0.0706761
-0.00475033
-0.00494517
-0.0710404
0.0715514
-0.0029332
-0.00317256
-0.0720092
0.0725626
-0.00176745
-0.00191151
-0.0730121
0.0735048
-0.00122368
-0.00120182
-0.0738661
0.0742196
-0.00118567
-0.000972389
-0.0744439
0.0746203
-0.00148146
-0.00109903
-0.0746926
0.0746925
-0.00193332
-0.00142974
-0.0746261
0.0744766
-0.00238957
-0.00182408
-0.0743012
0.0740446
-0.00274565
-0.0021721
-0.0737991
0.073482
-0.00295976
-0.00241246
-0.0732023
0.0728593
-0.00302264
-0.00252981
-0.0724525
0.0721895
-0.00292597
-0.00251748
-0.0723412
0.0721262
-0.00181328
-0.00254968
-0.0723065
0.0739858
-0.00133388
-0.00212608
-0.000775028
-0.00423461
0.00125087
0.0703445
0.0704288
-0.000276652
-0.000248094
0.070044
0.0724216
0.00148692
-0.00187441
0.0690491
0.0693248
0.00223896
-0.0025213
0.0680843
0.0658732
0.0026628
-0.00267131
0.0705485
0.0668175
0.00152129
-0.00320493
0.0733155
0.0697819
0.00152776
-0.000791054
0.073111
0.0733258
0.0746042
-0.0176555
0.0065477
0.0693987
0.0167054
-0.028203
0.0185258
-0.0415654
0.0215802
-0.0539159
0.0248701
-0.0633576
0.0269574
-0.0726101
0.0284302
-0.0814293
-0.0125362
-0.0114151
-0.00758765
-0.0214548
-0.00362901
-0.0322061
-0.000891141
-0.0443645
0.0276815
-0.0864153
0.0230376
-0.0903796
-0.0203161
0.0279343
-0.0934532
-0.00102795
-0.0578024
-0.00502686
-0.0770976
0.0020312
-0.0908348
-0.0086541
-0.0554598
-0.0153825
-0.0107572
-0.00436673
-0.0885338
-0.0140849
-0.00884747
-0.010525
0.0543079
0.0035581
-0.047341
0.0667482
-0.0675229
0.00123953
0.0206795
0.0684432
-0.0688015
-0.000491818
-0.000988968
0.0695578
-0.0694332
0.000240907
-0.000329397
0.0692931
-0.0691398
-0.000171872
5.47093e-05
0.0690113
-0.0688687
-0.00076239
-0.000379274
0.0687591
-0.0686509
-0.00149928
-0.000947508
0.0685825
-0.0685363
-0.00237948
-0.00163594
0.0685311
-0.0685698
-0.0033986
-0.00244841
0.0686447
-0.0687854
-0.00453146
-0.00337282
0.0689536
-0.0692117
-0.00573985
-0.00437718
0.0694867
-0.0698776
-0.00698635
-0.00542862
0.0702719
-0.0708089
-0.00822733
-0.00649572
0.0713324
-0.0720246
-0.00939985
-0.00753407
0.0726824
-0.073531
-0.0104237
-0.00848227
0.0743178
-0.075306
-0.0111972
-0.00926377
0.076196
-0.0772753
-0.011594
-0.00977967
0.0782071
-0.0792862
-0.0115013
-0.00992147
0.0801789
-0.0811309
-0.0108318
-0.00960621
0.0818519
-0.0825472
-0.00962415
-0.00879272
0.0830337
-0.0818631
-0.00784814
-0.00760527
0.0812772
-0.0809128
-0.00703543
-0.00670912
0.0855804
-0.0912663
-0.00842251
-0.0080233
-0.00689062
0.00721379
-0.0911579
0.0908579
-0.0900886
-0.00765993
-0.00906247
-0.0873678
0.0837709
-0.0166076
-0.0207189
0.0249219
-0.0945826
0.08986
-0.091782
-0.0187969
-0.0178238
-0.0815926
0.0797369
-0.0169736
-0.0180293
-0.0755574
0.0754369
-0.0147314
-0.0137967
-0.0723254
0.071887
-0.0122077
-0.0113283
-0.0704278
0.0706387
-0.00958904
-0.00912491
-0.070261
0.0702203
-0.00708129
-0.00698032
-0.0703104
0.0705423
-0.00498225
-0.00503529
-0.0708161
0.0712142
-0.00333132
-0.00344634
-0.0715814
0.0720313
-0.00221732
-0.00227871
-0.0723996
0.0728059
-0.00163002
-0.00157012
-0.0731046
0.0733963
-0.00147745
-0.00127106
-0.0735804
0.0737229
-0.00162394
-0.00128308
-0.0737783
0.0737706
-0.00192569
-0.00148513
-0.0737075
0.0735718
-0.00225386
-0.00176092
-0.073415
0.0731869
-0.00251761
-0.00201531
-0.0729693
0.0726881
-0.0026786
-0.0021948
-0.0724395
0.0721362
-0.00271932
-0.00228119
-0.0718767
0.0715686
-0.00261783
-0.00225801
-0.0711382
0.071722
-0.00239708
-0.00211933
-0.0715054
0.0714119
-0.00124031
-0.00190949
-0.0728661
0.0730744
0.0017285
-0.00222926
-0.0722721
0.064251
0.0145688
0.00287428
-0.00760758
0.00442747
0.0741503
0.0778459
-0.00158657
-0.000602223
0.0725333
0.0732697
-0.000522149
-0.00197313
0.0725393
0.0712972
0.00134047
-0.001706
0.0694146
0.0686922
0.00204763
-0.00230614
0.0683428
0.0662149
0.00242512
-0.00241431
0.0705377
0.0669365
0.00231157
-0.00215862
0.0731626
0.0696792
0.000317309
-0.00130556
0.0740993
0.0714845
2.27318e-05
0.000746251
0.0721044
0.0733214
-0.00168795
0.00643775
0.0646489
0.0704308
0.0601637
-0.0163327
0.0183251
-0.0280023
0.0202984
-0.0402836
0.0227213
-0.0517672
0.0257766
-0.0621768
0.0272839
-0.0714637
-0.0079095
-0.0122143
-0.00792493
-0.0171589
-0.00383296
-0.0292643
0.0273617
-0.0811095
0.026877
-0.085358
0.0245999
-0.0931312
-0.0014258
-0.0439667
-0.000970191
-0.061859
-0.000277103
-0.0811872
0.0202859
-0.0945593
-0.0175086
0.0193244
-0.0936211
0.00526287
-0.0865828
0.00760474
-0.0913496
-0.00634367
0.00508295
-0.0886361
0.0230054
-0.0551752
0.0812184
-0.0490486
-0.0736518
0.000900837
0.0722605
-0.0804825
0.000831023
0.00765036
0.069663
-0.0171002
-0.00774187
-0.052324
0.000706899
-0.0156033
-0.00465926
0.0672052
-0.0674176
0.001452
0.00740217
0.0678323
-0.0689948
0.000670637
-0.00057426
0.069023
-0.0688962
0.000114018
-0.000301155
0.0687854
-0.0686603
-0.000296939
-5.60649e-05
0.0685575
-0.0684469
-0.000872948
-0.000482125
0.0683646
-0.0682876
-0.00157623
-0.00102983
0.0682442
-0.068225
-0.00239875
-0.00167933
0.0682403
-0.0682995
-0.00333937
-0.00243311
0.0683885
-0.0685413
-0.00437866
-0.00328382
0.0687156
-0.0689752
-0.00548029
-0.00420287
0.0692462
-0.0696255
-0.00660703
-0.00515761
0.0700035
-0.0705129
-0.00771792
-0.00611772
0.0710049
-0.0716497
-0.00875497
-0.00704211
0.0722575
-0.0730355
-0.00964572
-0.0078745
0.0737517
-0.0746454
-0.0103035
-0.00854753
0.0754455
-0.0764112
-0.0106283
-0.00897961
0.0772441
-0.0782098
-0.0105355
-0.00908857
0.0790039
-0.0798652
-0.00997057
-0.00881211
0.0805216
-0.0811737
-0.00897206
-0.00813632
0.0816324
-0.0817795
-0.00770099
-0.00714657
0.0822554
-0.0829687
-0.00632212
-0.00623328
0.0854465
-0.0888389
-0.00503019
-0.00554543
0.0895116
-0.0901447
-0.00702683
-0.00838977
-0.00459259
0.0039188
-0.0906758
0.0905513
-0.0897731
-0.00537078
-0.00593709
-0.0888124
0.0859848
-0.0159693
-0.0175921
0.0172707
-0.0942379
0.0928541
-0.0953639
-0.0150823
-0.0134669
-0.0837873
0.0818514
-0.0146717
-0.0156263
-0.0778899
0.075488
-0.0145717
-0.0140678
-0.0743158
0.073049
-0.0134646
-0.0126244
-0.0722058
0.0713893
-0.0113912
-0.0104851
-0.0709042
0.0704668
-0.00915164
-0.00863978
-0.0702636
0.0701793
-0.00699695
-0.00677715
-0.0702058
0.0703465
-0.00512299
-0.00506179
-0.0705382
0.0708327
-0.00362588
-0.003638
-0.0711141
0.0714666
-0.00256975
-0.0025601
-0.071759
0.0720851
-0.00195611
-0.00186256
-0.0723267
0.0725643
-0.00171507
-0.0015127
-0.072715
0.072832
-0.00174099
-0.00143373
-0.0728774
0.0728699
-0.00191819
-0.00153046
-0.0728157
0.0726993
-0.00213752
-0.00170671
-0.0725649
0.0723684
-0.00232116
-0.00188088
-0.0721807
0.0719362
-0.00243409
-0.00200705
-0.0717196
0.0714514
-0.00245115
-0.00206459
-0.0712232
0.0709512
-0.00234584
-0.00202982
-0.0707288
0.0704695
-0.00213783
-0.0018969
-0.0704163
0.0710265
-0.00185051
-0.00185624
-0.0695774
0.0713707
-6.47294e-05
-0.000780178
-0.0712312
0.0885998
-0.0027998
0.00301375
-0.0110653
-0.00187558
-0.000286003
0.0763118
0.0752367
-0.00109088
-0.000615634
0.0742399
0.0718928
0.00072073
-0.000911316
0.0727299
0.0714023
0.00118023
-0.00151757
0.069752
0.0689611
0.00183265
-0.00206795
0.0685781
0.06653
0.0021683
-0.00214287
0.0705123
0.0670369
0.00203122
-0.00187487
0.0730062
0.0695675
0.00171517
-0.00156255
0.0739466
0.0713248
0.000886072
-0.000250776
0.0714691
0.0726449
0.00142626
-0.00220472
0.0654274
0.0716063
0.0656094
-0.0151078
0.0196612
-0.0273651
0.0217077
-0.0392699
0.0241363
-0.0501269
0.025892
-0.0607848
-0.0035019
-0.0123325
-0.00763158
-0.0133603
0.0265489
-0.0706509
0.0259749
-0.0802074
0.0250722
-0.0858303
-0.00313653
-0.0275535
-0.000505979
-0.0444309