/*--------------------------------*- C++ -*----------------------------------*\
  =========                 |
  \\      /  F ield         | OpenFOAM: The Open Source CFD Toolbox
   \\    /   O peration     | Website:  https://openfoam.org
    \\  /    A nd           | Version:  10
     \\/     M anipulation  |
\*---------------------------------------------------------------------------*/
FoamFile
{
    format      ascii;
    class       surfaceScalarField;
    location    "36.5";
    object      phi;
}
// * * * * * * * * * * * * * * * * * * * * * * * * * * * * * * * * * * * * * //

dimensions      [0 3 -1 0 0 0 0];

internalField   nonuniform List<scalar> 
12623
(
0.375854
0.0838576
-0.136836
-0.322875
0.28739
-0.117228
0.205692
0.367942
-0.176117
-0.341327
0.149501
-0.177296
0.389843
0.155396
-0.340177
0.155213
-0.161808
0.346772
-0.326478
-0.190995
0.00126754
0.15967
-0.184319
0.0233817
-0.196069
0.197337
-0.120446
-0.0228146
0.14326
-0.0365855
0.000617814
-0.0844782
0.448609
-0.185434
-0.263175
-0.287759
0.232199
0.504169
-0.204276
-0.147233
0.149953
0.201555
0.019039
0.0335493
-0.256864
-0.193679
0.0654854
0.101232
0.0182578
-0.0999643
-0.019526
-0.00830174
-0.0822307
0.191765
0.000997675
0.00895838
-0.0255451
-0.0511076
0.0330435
0.0436092
-0.0915467
-0.00343739
0.0694389
-0.0622678
-0.0803864
-0.00427838
0.010112
-0.043835
0.0380015
-0.0365949
-0.0246209
0.0569374
-0.102688
0.0762053
-0.272729
0.0255494
0.280729
0.0407212
-0.304273
-0.00917745
-0.310504
0.0242163
0.311837
-0.20268
0.138977
-0.14429
0.207994
-0.202539
-0.0998547
0.0997137
-0.198069
0.20556
-0.157873
0.150381
-0.194053
0.134961
-0.434673
0.135472
-0.132178
0.431379
-0.153115
-0.408176
0.126619
0.39194
-0.493679
0.0672287
-0.0627906
0.489241
-0.093026
-0.467929
0.0672754
-0.472117
-0.0929081
0.471999
-0.4405
0.103855
0.468059
-0.060299
-0.488352
0.0805924
-0.0231436
0.0802151
0.410987
-0.491871
-0.0472371
0.478809
-0.480944
0.0563019
0.168918
-0.172804
0.209447
-0.257253
0.199192
-0.197328
0.255389
-0.196877
-0.242266
0.18189
-0.188398
-0.314197
-0.289602
-0.188934
0.287541
-0.278808
-0.0465999
-0.324734
0.0404891
0.330845
0.241052
0.0391757
-0.326828
-0.247831
0.0883091
0.400574
-0.0959833
0.371919
-0.307747
0.0318107
-0.304638
0.310236
0.0756345
-0.0844935
-0.301377
0.073224
0.290314
-0.0533013
-0.028278
0.0170965
0.314334
-0.303153
-0.32529
0.322565
-0.025552
0.316219
-0.0290635
0.0330493
-0.320205
0.251729
-0.261692
0.206098
-0.196135
0.185244
0.237521
-0.171036
-0.271789
0.21335
-0.203253
-0.269013
0.208255
-0.211031
-0.265836
0.199276
-0.202452
-0.253136
0.190907
-0.203608
-0.242677
0.179
-0.189459
-0.222534
0.158508
-0.178651
-0.205459
0.127825
-0.1449
0.0786089
-0.188007
-0.096061
0.263547
-0.270408
0.192105
0.145675
0.226389
-0.134543
0.253721
0.155501
-0.277798
0.213487
-0.27538
0.210932
-0.273439
0.206314
-0.265151
0.190988
-0.255781
0.181537
-0.237569
0.160788
-0.221113
0.142053
-0.200084
0.106796
-0.186064
0.0645895
-0.0875841
0.240847
0.100457
0.214447
-0.0756419
0.0149925
-0.179101
-0.0238986
-0.177845
0.00677263
-0.0220135
0.22926
0.0336008
0.206167
-0.0137338
-0.0550072
-0.178338
0.0542451
-0.178287
-0.0545645
0.0421251
0.220649
-0.0335139
0.0457532
-0.120428
-0.186598
0.128688
-0.189757
-0.108959
0.218131
-0.0973369
-0.153761
0.227602
-0.172954
0.187936
-0.20158
-0.154112
-0.208599
0.253834
-0.264126
-0.0232223
-0.240262
0.246254
-0.159754
-0.0837643
0.277747
-0.286173
0.108884
0.0472218
0.290867
-0.292136
0.193374
0.160195
0.291844
-0.286336
0.205425
0.213195
0.278728
-0.268472
0.180731
0.198706
0.254654
-0.237916
0.144051
0.167719
0.219829
-0.202111
0.0890786
0.123965
0.188845
-0.185264
0.00319137
0.0513235
0.189569
-0.198838
-0.0996901
-0.0502593
-0.216203
-0.136748
-0.19086
0.192752
0.0523537
0.19845
0.201838
-0.212351
0.136278
-0.204005
0.215319
-0.107376
-0.0351516
-0.240515
0.24406
-0.182196
-0.170096
-0.26502
0.259185
-0.197773
-0.21042
-0.271107
0.256455
-0.196379
-0.214374
-0.258835
0.236437
-0.173736
-0.205633
-0.22922
0.20753
-0.112853
-0.16382
-0.201117
0.19543
-0.00804747
-0.0692289
-0.190932
0.0965929
0.0502519
0.16702
-0.177831
0.238412
0.217142
-0.170022
0.238446
0.184428
-0.234272
-0.166359
0.203014
-0.227184
-0.23278
0.22347
0.211147
0.243552
-0.226055
-0.229848
-0.244746
0.255518
-0.186438
0.202768
-0.250602
-0.240985
0.223878
-0.149252
-0.169759
-0.257664
0.216465
-0.209622
0.143538
0.263156
-0.287091
-0.135819
0.273078
-0.179944
0.213365
0.172017
-0.224622
0.291359
-0.300629
-0.013952
-0.0794964
0.308556
-0.311292
0.111619
0.0551486
0.31388
-0.306309
0.185803
0.162784
0.295906
-0.288841
0.19836
0.202792
0.277718
-0.267696
0.170709
0.187583
0.252301
-0.238687
0.130437
0.152324
0.221666
-0.208415
0.075827
0.106944
0.197925
-0.193115
-0.0016193
0.0408343
0.197548
-0.210075
-0.0871639
-0.0458256
-0.122944
-0.218617
0.218217
0.052753
0.141131
-0.222426
0.233708
-0.118658
-0.0393607
-0.235458
0.255909
-0.202647
-0.171845
-0.247988
0.262426
-0.212212
-0.202499
-0.245017
0.250939
-0.202301
-0.196965
-0.228325
0.230055
-0.175466
-0.183019
-0.206741
0.203205
-0.109316
-0.140506
-0.193086
0.19171
-0.00667111
-0.0591105
-0.193859
0.196229
0.0942236
0.0481026
0.121567
0.1792
-0.16968
0.228892
0.223537
0.175571
0.257962
-0.160455
0.244336
-0.264869
0.268567
-0.248443
-0.245586
-0.249132
0.223072
-0.247488
-0.253191
0.235625
-0.131686
-0.271224
-0.151726
0.199467
-0.182404
-0.274726
0.215657
-0.266793
-0.268806
0.269209
0.268164
0.26536
-0.251435
-0.262368
-0.267
0.263554
0.180682
-0.178752
0.207517
0.211089
0.182958
-0.176226
0.182312
0.251877
0.270019
-0.275342
-0.155132
0.272482
-0.17869
-0.21868
0.167452
0.223245
-0.216565
0.141423
-0.247136
0.302496
-0.31639
-0.121925
-0.15279
0.329591
-0.341653
-0.00188966
-0.0662953
0.34625
-0.349175
0.114544
0.0597459
0.338603
-0.336922
0.184122
0.152212
0.320181
-0.312051
0.190231
0.18605
0.29485
-0.284193
0.160052
0.170382
0.2657
-0.252458
0.117194
0.133831
0.233941
-0.221484
0.0633696
0.0884282
0.210147
-0.20667
-0.00509599
0.0294972
0.211965
-0.220491
-0.078638
-0.0405311
-0.10781
-0.270113
0.264695
0.216566
0.254613
-0.259788
0.257657
0.0548838
0.146039
-0.256313
0.261276
-0.123621
-0.0380163
-0.260216
0.26666
-0.209092
-0.170784
-0.268086
0.265974
-0.2101
-0.203924
-0.258881
0.248715
-0.192136
-0.189872
-0.236613
0.224196
-0.163049
-0.170917
-0.21232
0.202847
-0.0998436
-0.12863
-0.195866
0.193678
-0.00448315
-0.0521293
-0.198056
0.207952
0.0843278
0.043724
0.112954
0.188628
-0.185567
0.225832
0.233413
0.241081
-0.289079
-0.16455
-0.243544
-0.257022
0.229982
-0.261813
-0.243704
0.243367
-0.266663
-0.244778
-0.261294
0.209715
-0.195083
-0.289358
0.22392
-0.280997
-0.169598
0.175941
0.245534
-0.163135
0.26602
0.199578
-0.198595
0.206534
0.190811
0.219855
0.222193
-0.216219
0.135449
0.159836
0.229809
0.30556
-0.312265
-0.148426
0.290122
-0.163252
-0.306994
-0.177168
0.207587
-0.191398
-0.323184
0.222753
-0.304524
0.22127
0.184933
-0.260698
0.332119
-0.357529
-0.0965152
-0.132936
0.374042
-0.381273
0.00534217
-0.0497826
0.380153
-0.377359
0.111751
0.0586251
0.368655
-0.355984
0.171451
0.143508
0.341983
-0.325703
0.173951
0.172049
0.309486
-0.291967
0.142534
0.154164
0.275081
-0.25826
0.100373
0.116945
0.243302
-0.231261
0.0513287
0.0734697
0.224039
-0.222272
-0.00686334
0.0222757
0.225328
-0.233461
-0.0705047
-0.0374748
0.245771
-0.262519
-0.114938
-0.0955007
0.281442
-0.306077
-0.139915
-0.132802
0.324171
-0.351716
-0.163852
-0.159074
-0.302059
0.307477
0.262746
0.290393
-0.278672
0.231646
0.251888
-0.310627
0.31326
0.213932
0.251463
-0.312467
0.306196
0.0611548
0.146832
-0.304004
0.301587
-0.121203
-0.035825
-0.298292
0.294499
-0.205299
-0.16749
-0.289842
0.282503
-0.202761
-0.199267
-0.272272
0.258792
-0.178656
-0.179641
-0.245314
0.231969
-0.149704
-0.157438
-0.22069
0.210927
-0.0900811
-0.11735
-0.205674
0.204954
-0.00376309
-0.0468764
-0.206797
0.211903
0.0792214
0.0418817
0.108638
0.180788
-0.178715
0.223759
0.215606
0.238307
0.219373
-0.225573
-0.260462
-0.263037
0.203738
-0.195119
0.214107
-0.342172
-0.375163
-0.171672
-0.23939
-0.26241
0.23348
-0.271373
-0.147898
0.274884
0.193308
0.218773
0.233248
-0.230329
0.13253
0.23981
0.153275
-0.231211
-0.255656
0.232819
-0.291063
-0.188891
0.174203
-0.248348
-0.205027
-0.244326
0.230832
-0.321249
-0.198263
0.218329
-0.362238
-0.176117
-0.397309
0.233257
0.181486
-0.266608
0.334361
-0.355324
-0.127463
-0.310622
0.292963
-0.130239
-0.139513
0.377638
-0.397225
-0.0769284
-0.110622
0.406734
-0.413064
0.0116723
-0.040274
0.411908
-0.405102
0.104944
0.0574691
0.392323
-0.375932
0.15506
0.130729
0.357684
-0.337863
0.15413
0.153801
0.318905
-0.299411
0.123039
0.135206
0.282347
-0.266242
0.0842678
0.0998811
0.253505
-0.243308
0.0411314
0.0607331
0.237182
-0.234811
-0.00923387
0.0161498
0.236868
-0.244044
-0.0633281
-0.0354183
0.256831
-0.269075
-0.102693
-0.0827141
0.291463
-0.307628
-0.12375
-0.110415
0.33609
-0.361945
-0.137997
-0.130611
0.388141
-0.415934
-0.148324
-0.145476
-0.293969
0.311488
0.214127
0.274866
-0.257383
0.15672
0.184634
-0.326818
0.343856
0.245707
0.236558
-0.358474
0.358277
0.21413
0.236845
-0.362619
0.360249
0.0635239
0.14249
-0.355049
0.346587
-0.112741
-0.0306243
-0.336397
0.324678
-0.193581
-0.1573
-0.31388
0.302122
-0.191003
-0.188469
-0.289219
0.273209
-0.162646
-0.166738
-0.257687
0.242897
-0.134915
-0.141916
-0.2317
0.223159
-0.0815396
-0.106153
-0.217938
0.216418
-0.00224288
-0.0416556
-0.219793
0.226124
0.07289
0.0385065
0.104434
0.140671
-0.159366
-0.229653
-0.238336
0.121624
-0.157759
0.175448
-0.414998
-0.437863
-0.13583
0.229687
0.17903
0.201508
-0.199185
0.21645
0.233868
0.185939
-0.186842
0.207437
0.206609
0.17732
-0.167534
0.213973
0.206084
0.158434
-0.151138
0.238238
0.229206
0.143073
-0.132411
0.264222
0.257954
-0.118587
0.27914
-0.235585
-0.258036
0.236771
-0.275325
-0.21707
-0.243613
0.237646
-0.297877
-0.17745
-0.226243
0.226476
-0.329396
-0.0991698
0.080722
-0.219888
-0.116531
-0.212291
0.19006
-0.376849
0.112936
-0.101017
-0.449782
0.120899
-0.422962
0.307415
-0.324674
-0.11298
0.291423
-0.102596
-0.265422
0.348667
-0.372879
-0.103251
-0.115519
0.399172
-0.416621
-0.0594786
-0.0843289
0.429326
-0.434615
0.0169609
-0.0275689
0.431183
-0.421857
0.0956183
0.0540372
0.406501
-0.387547
0.136106
0.115373
0.366587
-0.344802
0.132344
0.132841
0.324844
-0.305417
0.103612
0.115249
0.289815
-0.275043
0.069495
0.0842793
0.264307
-0.25475
0.0315741
0.0499974
0.249427
-0.246958
-0.0117026
0.0108272
0.249714
-0.257574
-0.0554688
-0.0326623
0.269932
-0.285633
-0.0869929
-0.0703555
0.302258
-0.319866
-0.106142
-0.0937904
0.340437
-0.361505
-0.11693
-0.11004
0.386372
-0.420095
-0.114601
-0.120609
0.448591
-0.466759
-0.0828495
-0.107335
-0.265917
0.287864
0.134773
0.24595
-0.23058
0.0653514
0.101657
-0.310007
0.333109
0.191025
0.162491
-0.359659
0.371995
0.233371
0.210008
-0.392205
0.405428
0.200907
0.216635
-0.411189
0.409997
0.0647158
0.136728
-0.402421
0.389197
-0.0995169
-0.0230481
-0.373291
0.354377
-0.174667
-0.141394
-0.336631
0.319433
-0.173805
-0.170723
-0.303714
0.286403
-0.145335
-0.151019
-0.269865
0.254391
-0.119441
-0.125378
-0.24321
0.235332
-0.0736615
-0.0949722
-0.231819
0.232169
-0.00259279
-0.0381424
-0.237368
0.238877
0.0713809
0.0333075
-0.24156
0.253203
0.120887
0.101751
-0.259035
0.274066
0.163999
0.147443
0.177148
0.184384
-0.184145
0.216211
-0.185247
0.251702
0.233004
0.176896
-0.168178
0.198719
0.19936
0.159582
-0.154173
0.208563
0.197488
0.142288
-0.137783
0.233733
0.217321
0.123038
-0.115779
0.256962
0.24321
0.0333423
-0.0465257
-0.206705
-0.217824
0.0205863
-0.0314062
0.0329613
-0.451337
-0.466382
-0.031783
0.100666
-0.084173
0.274931
0.264027
-0.229593
-0.245514
0.237152
-0.274832
-0.19607
-0.224993
0.228512
-0.299913
-0.136593
-0.206181
0.195944
-0.335281
-0.0605394
-0.198278
0.126724
-0.382673
0.0189337
-0.0267184
-0.210039
0.0131313
-0.200903
0.0347036
-0.424704
-0.0500295
-0.446806
0.0304538
-0.0681279
-0.433238
-0.219779
0.223407
-0.0303465
-0.066393
0.0696971
-0.213343
-0.229281
-0.0568906
0.101292
-0.134206
-0.413892
-0.449781
0.465283
0.0149513
-0.41485
0.0663614
0.290092
-0.30273
-0.0715349
-0.0793032
0.0881626
0.266071
0.264282
-0.0534932
-0.257862
0.317406
-0.343982
-0.0864038
-0.0879197
0.365899
-0.391365
-0.0777845
-0.0936032
0.410567
-0.428381
-0.0416653
-0.0651267
0.439547
-0.444568
0.021982
-0.0164026
0.440362
-0.429784
0.0850402
0.0498314
0.41292
-0.392709
0.115896
0.0985093
0.371143
-0.349436
0.110637
0.111275
0.330031
-0.311615
0.0851963
0.0958447
0.296865
-0.282527
0.055157
0.0695286
0.272191
-0.262602
0.0219855
0.0396614
0.257891
-0.256361
-0.0132323
0.00611621
0.260836
-0.269929
-0.0463759
-0.0281877
0.282554
-0.297311
-0.0722355
-0.0577305
0.312247
-0.329351
-0.089038
-0.0788548
0.348142
-0.367743
-0.0973287
-0.0912485
0.391755
-0.415648
-0.0907077
-0.0965974
0.437916
-0.461958
-0.058807
-0.0850667
-0.0284578
-0.238131
0.257931
0.0455521
0.00586173
-0.277551
0.295242
0.117082
0.0820372
-0.320683
0.340598
0.171109
0.137051
-0.368721
0.396452
0.20564
0.181886
-0.418789
0.436201
0.183495
0.194299
-0.445224
0.445853
0.0640865
0.127705
-0.437175
0.420643
-0.0829847
-0.0143701
-0.399995
0.375311
-0.149983
-0.120746
-0.35179
0.32967
-0.151685
-0.147201
-0.311943
0.29477
-0.128161
-0.133292
-0.279192
0.264473
-0.104723
-0.1098
-0.253761
0.247265
-0.0671651
-0.0842599
-0.244752
0.24641
-0.00425089
-0.0356294
-0.250615
0.257875
0.0641206
0.0291026
-0.26902
0.275784
0.114122
0.0906062
-0.286279
0.30209
0.148188
0.136948
0.16504
0.171256
-0.176851
0.257297
0.296989
0.173266
-0.165899
0.208844
0.229419
0.157231
-0.147269
0.188757
0.190692
0.137726
-0.128411
0.199248
0.187946
0.119262
-0.108447
0.222918
0.208172
0.100576
-0.094913
0.251299
0.235339
0.257276
-0.212156
-0.229428
0.223923
-0.270242
-0.155386
-0.2062
0.193282
-0.297252
-0.0750891
-0.191632
0.128705
-0.337262
0.00781907
-0.192965
0.0314758
-0.379445
0.0734583
-0.204664
-0.076648
-0.416184
0.0897209
-0.0698183
-0.249184
0.103772
-0.227395
-0.151966
-0.415478
-0.140432
-0.378138
0.10372
-0.176529
-0.377795
-0.271225
0.255617
-0.0542095
-0.083039
0.0993833
-0.265528
-0.284599
-0.0696649
0.1116
-0.147064
-0.342673
-0.390944
0.423943
0.070721
-0.362062
0.0827179
-0.0720957
0.0723029
0.265864
-0.0702233
0.262409
0.299055
-0.31398
-0.0566095
0.294842
-0.0492801
-0.246096
0.328875
-0.350284
-0.0649952
-0.0730247
0.372713
-0.393837
-0.0566597
-0.0711743
0.412911
-0.428209
-0.0263672
-0.0460534
0.439815
-0.442243
0.02441
-0.00479599
0.439816
-0.427862
0.0730865
0.0474039
0.413246
-0.392613
0.0952625
0.0838936
0.372966
-0.351405
0.0890755
0.0916281
0.333143
-0.314863
0.0669164
0.0775824
0.30027
-0.286303
0.0411894
0.0549357
0.276776
-0.26963
0.0148397
0.030135
0.267765
-0.269749
-0.0112482
0.00425119
0.276056
-0.285062
-0.0373704
-0.0218809
0.294939
-0.30597
-0.0612045
-0.0478534
0.317731
-0.331845
-0.0749239
-0.0670939
0.346829
-0.363719
-0.0804386
-0.076264
0.383099
-0.39967
-0.0741368
-0.0772179
0.422418
-0.436313
-0.0449115
-0.0623188
0.445138
-0.444433
0.014247
-0.0196335
0.0458709
-0.23968
0.233403
-0.0240687
-0.0409545
-0.240699
0.257706
0.0285455
-0.00143464
-0.282068
0.306696
0.0924542
0.0576746
-0.329496
0.355299
0.145306
0.114251
-0.380825
0.408182
0.178283
0.15636
-0.432398
0.453154
0.16274
0.170082
-0.465286
0.467515
0.0618567
0.115573
-0.458732
0.440107
-0.0643595
-0.00558662
-0.416772
0.389564
-0.122775
-0.0974105
-0.363636
0.339147
-0.127196
-0.121273
-0.319811
0.302674
-0.111024
-0.113956
-0.287884
0.273833
-0.0906721
-0.0950103
-0.263501
0.257439
-0.0611024
-0.0739279
-0.256131
0.259294
-0.00741374
-0.0343219
-0.265388
0.274461
0.0550486
0.023008
-0.285188
0.296412
0.102898
0.0798787
-0.312415
0.318822
0.141782
0.120945
0.142536
0.134708
-0.133931
0.345996
0.394469
0.140971
-0.147078
0.263405
0.304029
0.143527
-0.136662
0.201979
0.225868
0.128347
-0.118906
0.179316
0.182378
0.109724
-0.10107
0.190594
0.178764
0.0931764
-0.0866704
0.216412
0.200278
0.0818677
-0.0759945
0.245426
0.230536
0.253585
-0.171449
-0.213365
0.184921
-0.26188
-0.0896281
-0.191661
0.123475
-0.292022
0.00299172
-0.186804
0.027865
-0.333651
0.0786242
-0.198131
-0.0839624
-0.372131
0.118682
-0.219574
-0.168939
-0.399211
0.118435
-0.246447
-0.199785
-0.392223
0.0959228
-0.0815221
-0.299
0.108471
-0.278077
-0.182293
-0.342566
-0.0991361
0.0809043
-0.34383
-0.126072
-0.315738
0.0136756
0.210943
-0.232624
0.302338
-0.316622
-0.0423258
-0.277938
0.20873
0.0828832
-0.0248793
0.337895
-0.351574
-0.0513167
-0.0517516
0.373164
-0.390077
-0.0397465
-0.0495837
0.40591
-0.418667
-0.0136111
-0.0302204
0.429085
-0.431138
0.0264636
0.0056223
0.42908
-0.418224
0.0622313
0.0453452
0.404863
-0.38572
0.0761196
0.0705319
0.367139
-0.346545
0.0684816
0.0730474
0.328704
-0.311587
0.0497992
0.059741
0.297743
-0.28641
0.0298571
0.0410919
0.27878
-0.274908
0.0109678
0.0225041
0.273888
-0.27554
-0.00959601
0.00323137
0.277861
-0.281495
-0.0337371
-0.0195598
0.28643
-0.294327
-0.0533072
-0.042918
0.304905
-0.318284
-0.0615447
-0.0565162
0.333333
-0.350423
-0.0633478
-0.0612154
0.368435
-0.386838
-0.0557344
-0.0592061
0.404251
-0.417198
-0.0319646
-0.0449056
0.422486
-0.41983
0.0115906
-0.014345
0.409531
-0.392355
0.0535443
0.0355724
0.37083
-0.352283
0.0623572
0.0611934
-0.261839
0.256462
-0.0488326
0.265156
-0.27944
-0.0672386
-0.0663474
-0.249352
0.244255
-0.0189718
-0.0338441
-0.245661
0.25742
0.0167861
-0.00284068
-0.276904
0.302972
0.0663854
0.0381914
-0.329903
0.358972
0.116237
0.0873201
-0.386598
0.415059
0.149822
0.128733
-0.439485
0.460141
0.142084
0.145657
-0.471515
0.473063
0.0603082
0.1042
-0.46323
0.444011
-0.0451403
0.00424673
-0.421258
0.395964
-0.0974811
-0.0746577
-0.37218
0.34867
-0.103687
-0.0974891
-0.32905
0.311726
-0.0936993
-0.094336
-0.297326
0.283457
-0.076803
-0.0806102
-0.273175
0.266208
-0.0541356
-0.0636461
-0.265553
0.268969
-0.0108295
-0.0336672
-0.277222
0.287223
0.0450475
0.0147555
-0.301239
0.312116
0.0920214
0.0658619
-0.326484
0.348439
0.119826
0.106577
-0.364761
0.383582
0.13068
0.126214
0.130802
0.096084
-0.100706
0.350618
-0.0936276
0.432099
0.396925
0.102046
-0.104023
0.265381
0.305369
0.100424
-0.0947343
0.19629
0.222269
0.0882569
-0.0812497
0.172309
0.1759
0.0743008
-0.0676765
0.18397
0.171815
0.0617947
-0.0589387
0.213556
0.194396
0.0545374
-0.0509373
0.241826
0.226135
0.0551886
-0.0566873
0.267363
0.257836
0.084782
0.334891
0.290504
-0.0869009
0.10405
-0.316149
-0.289843
-0.0764984
0.071591
-0.0845031
-0.330918
-0.33996
0.0592682
-0.102301
-0.200692
0.114129
-0.252534
-0.420342
0.106461
-0.00278065
-0.185889
0.0222405
-0.286397
0.344255
-0.285473
0.0241005
-0.0179199
0.0433458
0.309465
0.00459713
0.321738
0.0850461
-0.193226
-0.0898022
-0.327811
0.135683
-0.215132
-0.181543
-0.359527
0.140549
-0.241687
-0.220186
-0.378809
0.126037
-0.264012
-0.208233
-0.366283
0.121041
-0.295067
-0.159854
-0.308784
0.0957761
-0.0820541
-0.303564
0.10952
-0.329893
-0.10151
-0.29873
0.0657259
-0.0772398
-0.319404
0.0541514
-0.328386
-0.220796
0.308615
-0.322686
-0.0282548
-0.0017371
0.336328
-0.351274
-0.0363709
-0.0381092
0.368017
-0.379735
-0.0280283
-0.0328411
0.392839
-0.402306
-0.00414409
-0.0171165
0.408919
-0.411515
0.0290591
0.0122356
0.40854
-0.400327
0.054019
0.0423701
0.387666
-0.371847
0.0603005
0.0578709
0.354584
-0.337313
0.0512105
0.0557845
0.321444
-0.308438
0.0367932
0.0438722
0.297972
-0.291555
0.0234399
0.0306256
0.287278
-0.286231
0.0099204
0.0182275
0.285953
-0.287481
-0.00806789
0.00295334
0.290178
-0.295789
-0.0281265
-0.0168622
0.303798
-0.314127
-0.0429776
-0.0349095
0.32472
-0.335206
-0.0510592
-0.0459234
0.345277
-0.355644
-0.0529817
-0.0511436
0.366182
-0.377101
-0.044815
-0.0486678
0.387102
-0.394842
-0.024225
-0.0349047
0.400055
-0.395867
0.00740204
-0.0091314
0.385681
-0.371254
0.0391174
0.0253865
0.359198
-0.347116
0.0502758
0.0491371
0.335066
-0.325492
0.0445774
0.0472179
-0.297794
0.289646
-0.0590907
0.311316
-0.324782
-0.0685873
-0.0629766
-0.275632
0.26883
-0.0420304
-0.0523338
-0.263548
0.259522
-0.0149454
-0.0285626
-0.257638
0.261061
0.0133632
-0.00095699
-0.272334
0.292668
0.0460513
0.026919
-0.317623
0.347634
0.0862265
0.0623645
-0.376432
0.405225
0.121029
0.0999351
-0.428113
0.446659
0.123537
0.122769
-0.457194
0.459462
0.0580409
0.0936642
-0.452497
0.436207
-0.0288504
0.0112118
-0.416075
0.393487
-0.0748939
-0.0545256
-0.373014
0.352652
-0.0833256
-0.0770153
-0.33542
0.319467
-0.0777459
-0.0771045
-0.306509
0.293447
-0.0637413
-0.0676518
-0.283189
0.274906
-0.0458521
-0.0533885
-0.273221
0.275901
-0.0135102
-0.0319821
-0.28453
0.295967
0.0336105
0.00612713
-0.310889
0.324615
0.078295
0.0509399
-0.342893
0.353374
0.109346
0.0882985
-0.366778
0.386176
0.111281
0.11281
0.0966363
0.0554087
-0.051626
0.428316
0.464617
0.0463035
-0.0524379
0.356752
0.391603
0.0524321
-0.0507101
0.263659
0.305363
0.0476343
-0.0442315
0.192887
0.219193
0.0407389
-0.0373376
0.168907
0.172408
0.0340958
-0.0308153
0.180689
0.168573
0.0276541
-0.0249046
0.210806
0.191235
0.022807
-0.0223707
0.24139
0.224037
0.0225654
-0.0285183
0.273315
0.258031
0.305331
-0.0808889
0.0989834
-0.321659
-0.336189
-0.0694827
0.0494692
-0.0631539
-0.314701
-0.315101
0.0390778
-0.00918981
-0.194283
0.0156394
-0.245933
0.334413
-0.317611
0.00729855
0.324396
0.0146135
0.090222
-0.191065
-0.0928566
-0.283343
0.153862
-0.211405
-0.190028
-0.319326
0.166399
-0.240982
-0.239365
-0.340348
0.147488
-0.263138
-0.229131
-0.357911
0.137785
-0.280757
-0.190042
-0.336095
0.126215
-0.311763
-0.129748
-0.280546
0.114215
-0.345124
-0.0887409
-0.287229
0.0812254
-0.072153
-0.345261
0.102442
-0.342876
-0.0759877
-0.306571
-0.336801
0.323337
-0.0586885
0.0653156
-0.344263
-0.0578539
0.0795864
-0.359532
-0.0240573
0.466061
0.0445382
-0.0559401
-0.303299
0.0319485
-0.302511
-0.214346
0.317161
-0.329665
-0.0157506
-0.00218724
0.342324
-0.353065
-0.025629
-0.0254503
0.363181
-0.372952
-0.0182577
-0.0227252
0.380597
-0.385714
0.000973128
-0.00947169
0.387979
-0.386968
0.0280485
0.0145006
0.383029
-0.375815
0.0468056
0.0384305
0.365884
-0.35387
0.0482867
0.0479392
0.341031
-0.328767
0.0389462
0.0429457
0.317797
-0.309434
0.0284304
0.032902
0.302731
-0.298606
0.0193152
0.0239221
0.295116
-0.293214
0.00801883
0.0147374
0.291671
-0.291969
-0.00777023
0.00141036
0.293661
-0.29764
-0.0241475
-0.0151701
0.303017
-0.309742
-0.0362526
-0.0295321
0.316812
-0.324816
-0.043055
-0.0388533
0.333548
-0.343682
-0.042848
-0.0424116
0.354078
-0.364315
-0.0345788
-0.0382715
0.372651
-0.378679
-0.0181966
-0.0265686
0.381268
-0.379521
0.00565512
-0.00654261
0.371558
-0.360897
0.0284563
0.0174233
0.3454
-0.332763
0.0376388
0.0336402
0.322412
-0.315239
0.0374041
0.036867
0.309635
-0.302803
0.025117
0.0334739
-0.313275
0.30369
-0.0590022
-0.0594211
-0.297986
0.2896
-0.0507053
-0.0572725
-0.281417
0.27553
-0.0361428
-0.0441505
-0.272081
0.269997
-0.0128612
-0.0251137
-0.269567
0.271267
0.0116639
-0.000527748
-0.276663
0.28832
0.0343943
0.0215222
-0.305178
0.328094
0.063311
0.0455068
-0.351317
0.37561
0.0967363
0.0767114
-0.396431
0.415895
0.104073
0.101948
-0.429252
0.436042
0.05125
0.0803077
-0.433358
0.422014
-0.0175062
0.0138963
-0.405807
0.38694
-0.0560269
-0.0383189
-0.370096
0.353683
-0.0669133
-0.0601708
-0.339773
0.326083
-0.0640564
-0.0631939
-0.315118
0.303567
-0.0521904
-0.056686
-0.294181
0.284837
-0.0365075
-0.0440031
-0.280993
0.281273
-0.0137899
-0.0281386
-0.287947
0.299235
0.0223233
-0.000547576
-0.312879
0.330663
0.060511
0.037296
-0.347361
0.368239
0.0884672
0.0716
-0.388515
0.409695
0.0901012
0.0925349
-0.410436
0.443287
0.0736107
0.0958949
0.0792128
0.0111762
-0.00481742
0.421957
0.451736
0.00123658
0.00152025
0.353996
0.388022
-0.00398372
0.00630655
0.261336
0.3029
-0.00843604
0.00994109
0.191382
0.217064
-0.0105544
0.0104771
0.168985
0.171795
-0.0100975
0.00972247
0.181064
0.168953
-0.00922554
0.0082642
0.211768
0.191732
-0.00660822
0.00193943
0.246059
0.225693
-0.00340347
-3.83684e-05
0.276757
0.256567
-0.0184737
0.0132687
0.31467
0.286819
0.00467021
-0.0496378
0.369364
0.339677
0.0930633
-0.197124
-0.0937482
-0.245042
-0.0232267
0.0166554
-0.296232
-0.0330548
-0.292683
0.335789
-0.35999
-0.0254363
-0.0648493
0.22032
0.213894
0.297898
-0.0269583
-0.298259
0.300825
0.0225514
-0.292103
0.010499
0.171427
-0.20863
-0.192559
-0.280812
0.194221
-0.239227
-0.252288
-0.306402
0.173272
-0.266766
-0.252823
-0.316656
0.158076
-0.283428
-0.211923
-0.336031
0.149307
-0.303849
-0.166187
-0.299657
0.130587
-0.328135
-0.112999
-0.256288
0.117474
-0.360156
-0.0833594
-0.279858
-0.0550708
-0.356196
0.0670039
-0.3491
0.339554
-0.0455254
0.0475291
-0.357162
-0.0394665
-0.367999
0.0593318
0.0990473
-0.362337
-0.0700308
-0.29248
-0.371193
0.0786651
0.0475661
-0.0980182
0.270772
-0.459978
0.0463091
-0.0346249
0.296085
-0.215031
0.340351
-0.334806
0.00175308
-0.00502562
0.334956
-0.336257
-0.0144497
-0.0020369
0.344618
-0.351507
-0.018741
-0.0170886
0.358279
-0.364615
-0.011921
-0.0159531
0.369307
-0.372264
0.00392992
-0.00477976
0.371787
-0.368848
0.0251095
0.0140238
0.362986
-0.355877
0.0396965
0.0325682
0.347492
-0.339141
0.039936
0.0395545
0.330725
-0.323456
0.0316777
0.034529
0.316871
-0.311815
0.0233748
0.0263167
0.307274
-0.303778
0.0158192
0.0193804
0.300462
-0.298164
0.00572097
0.0114215
0.296639
-0.296799
-0.00761043
-0.000114516
0.298518
-0.302107
-0.0205578
-0.0134512
0.306839
-0.312879
-0.030213
-0.0248001
0.319674
-0.327527
-0.0352019
-0.0320584
0.335382
-0.343111
-0.0351191
-0.0345561
0.349762
-0.355851
-0.0284892
-0.0316212
0.360895
-0.364749
-0.0143428
-0.0215247
0.366101
-0.364257
0.00381157
-0.00519088
0.359251
-0.351286
0.0204914
0.0124173
0.342045
-0.331595
0.0271893
0.0243984
0.320203
-0.309324
0.0265252
0.0254755
0.0249742
-0.332901
0.325448
-0.0512346
-0.0512009
-0.31921
0.311066
-0.0508577
-0.0531835
-0.30203
0.294864
-0.0435395
-0.0482372
-0.287887
0.28206
-0.030316
-0.0371732
-0.278849
0.277567
-0.0115792
-0.0219027
-0.278286
0.280425
0.0095258
-0.00124692
-0.283997
0.290378
0.0280134
0.01795
-0.299488
0.31289
0.0499084
0.0363966
-0.328359
0.347457
0.0776379
0.0612432
-0.367235
0.388374
0.0829336
0.0821707
-0.404785
0.41463
0.041405
0.0638972
-0.41472
0.406605
-0.00939148
0.0138057
-0.393772
0.378056
-0.0403114
-0.0254854
-0.363721
0.349729
-0.0529217
-0.0458355
-0.338168
0.326797
-0.0526855
-0.0516326
-0.318052
0.309246
-0.0433853
-0.0479404
-0.302278
0.294567
-0.0287962
-0.0370347
-0.289666
0.287568
-0.0116918
-0.0232381
-0.290846
0.29958
0.0135886
-0.00382491
-0.31182
0.328587
0.0437442
0.0250558
-0.345652
0.365744
0.0683759
0.0545349
-0.384279
0.396619
0.0777608
0.0739998
-0.417277
0.432264
0.0586228
0.0752376
0.0514997
0.0050525
0.0126526
0.448356
0.460718
-0.0301208
0.0399654
0.412113
0.434268
-0.048237
0.0559068
0.346326
0.379751
-0.0611234
0.0638027
0.258657
0.297683
-0.0641967
0.0625869
0.192992
0.21667
-0.05971
0.0562254
0.172469
0.174671
-0.0528803
0.0497086
0.184236
0.172298
-0.0468096
0.0437274
0.21485
0.194631
-0.0399532
0.0344996
0.251512
0.229467
-0.0279576
0.0230959
0.281619
0.263109
-0.0220872
0.0336655
0.303092
0.287828
0.275324
-0.0459956
-0.290358
0.280313
-0.0170405
0.0125264
-0.0162736
-0.292485
-0.29514
0.0155637
0.183762
-0.209459
-0.190296
-0.247305
0.220649
-0.235058
-0.256288
-0.276812
0.203395
-0.26935
-0.269236
-0.289989
-0.0201345
-0.288822
0.178738
-0.287428
-0.234022
-0.294557
0.174154
-0.308275
-0.18774
-0.314478
0.156734
-0.329997
-0.149267
-0.263389
-0.0325266
-0.363686
0.0390504
-0.353738
0.347453
-0.0262415
0.0241162
-0.358135
-0.0197196
-0.368366
0.0287957
0.14005
-0.35071
-0.0981581
-0.241489
-0.377259
0.0483111
0.118715
-0.379823
-0.075077
-0.274811
-0.383037
0.0711759
0.09856
-0.382232
-0.0522949
-0.286181
-0.00274491
-0.0198423
0.302901
0.296419
-0.468403
0.252199
0.0338972
-0.0177792
0.394869
0.00777217
-0.00939306
-0.290864
-0.298172
0.0108038
-0.0506081
0.380924
-0.221566
0.3255
-0.34596
-0.00497619
-0.308003
-0.0171124
0.308074
-0.00946087
0.341694
-0.335729
-0.00421218
-0.00929151
0.334252
-0.335836
-0.012865
-0.0035143
0.339795
-0.345881
-0.0126555
-0.0131294
0.351451
-0.356953
-0.00641887
-0.0103829
0.360531
-0.362542
0.00594157
-0.00120232
0.361416
-0.357801
0.0214942
0.0128979
0.351899
-0.34474
0.0325377
0.0266659
0.337578
-0.330862
0.0332193
0.0323928
0.325156
-0.320338
0.0268594
0.0288239
0.316154
-0.312509
0.0197296
0.0221327
0.308994
-0.305863
0.0126879
0.0158656
0.303056
-0.301101
0.003766
0.00861438
0.300192
-0.300742
-0.00706043
-0.00102318
0.302508
-0.305601
-0.0174649
-0.0116855
0.309507
-0.314305
-0.025415
-0.0208934
0.319354
-0.324965
-0.029591
-0.0270096
0.33064
-0.336859
-0.0289005
-0.0288812
0.342835
-0.348455
-0.0228689
-0.0256454
0.352522
-0.354821
-0.0120441
-0.0174577
0.35497
-0.353212
0.00205368
-0.00504135
0.349292
-0.343322
0.0145217
0.00849661
0.336471
-0.329157
0.0198753
0.0175476
0.322758
-0.314775
0.0185428
0.0190761
0.306776
-0.2988
0.0145756
0.0169745
0.297629
-0.29539
0.0133252
0.00932786
-0.00365417
-0.290646
-0.00387179
0.290172
-0.294442
0.000615709
0.00558585
-0.343444
0.338626
-0.040707
-0.0354577
-0.332518
0.32585
-0.0445669
-0.0450926
-0.318323
0.309837
-0.042372
-0.0456563
-0.303961
0.297807
-0.0373852
-0.0423616
-0.292494
0.287555
-0.0253774
-0.0318599
-0.284762
0.283601
-0.0104179
-0.0191093
-0.284083
0.28625
0.0073588
-0.00172897
-0.289352
0.293751
0.023614
0.0148477
-0.299425
0.30773
0.0416043
0.0307224
-0.318847
0.334512
0.0619724
0.0501259
-0.352646
0.372146
0.0634332
0.0640372
-0.38703
0.395514
0.0329208
0.049014
-0.396246
0.39119
-0.00433467
0.0130732
-0.382795
0.371659
-0.0291748
-0.0170912
-0.359913
0.347466
-0.0404751
-0.0340897
-0.336174
0.325571
-0.0420824
-0.0403401
-0.316977
0.309899
-0.0363079
-0.0393462
-0.304495
0.299828
-0.0241294
-0.0316308
-0.296048
0.293762
-0.00940629
-0.0194576
-0.294607
0.29961
0.00858555
-0.00466915
-0.30902
0.322192
0.030572
0.0156452
-0.338159
0.355933
0.0506016
0.0385685
-0.374256
0.392362
0.0596549
0.055677
-0.409216
0.418551
0.0492882
0.058383
-0.427861
0.447047
0.0271225
0.0421901
0.0149968
-0.0303343
0.0547496
0.423941
0.412604
-0.0691422
0.0811757
0.400079
0.419875
-0.0920925
0.101007
0.337411
0.368834
-0.10731
0.110329
0.255638