/*--------------------------------*- C++ -*----------------------------------*\
  =========                 |
  \\      /  F ield         | OpenFOAM: The Open Source CFD Toolbox
   \\    /   O peration     | Website:  https://openfoam.org
    \\  /    A nd           | Version:  10
     \\/     M anipulation  |
\*---------------------------------------------------------------------------*/
FoamFile
{
    format      ascii;
    class       volScalarField;
    location    "14";
    object      p;
}
// * * * * * * * * * * * * * * * * * * * * * * * * * * * * * * * * * * * * * //

dimensions      [0 2 -2 0 0 0 0];

internalField   nonuniform List<scalar> 
25879
(
0.0494401
0.05229
0.0507278
0.0474024
0.0518086
0.0602597
-0.0776399
-0.0616941
-0.0462083
-0.0561623
-0.139595
-0.112194
-0.169624
-0.407116
-0.425678
0.273153
0.196279
-0.0778437
-0.20676
0.77372
0.757761
0.29161
0.398375
0.112347
0.11362
0.119884
0.11774
0.107017
0.111711
0.106839
0.105897
-0.390495
-0.392314
-0.388353
0.104197
0.0711487
0.06629
-0.206794
-0.203465
-0.263359
-0.227807
-0.177029
0.334898
0.348442
0.352389
-0.194167
-0.214137
-0.363238
-0.339051
-0.359327
0.0550305
0.0812602
-0.623328
-0.432951
6.11725e-05
0.00200347
0.00325249
0.517104
0.523669
0.484869
0.470986
0.443605
0.43842
-0.000220255
0.00189088
0.000679426
-0.416704
-0.421237
-0.392674
-0.374212
-0.395982
0.16839
0.171823
0.176346
0.278659
0.421912
0.346674
0.0579573
0.0580784
0.0541388
0.367538
0.353369
0.832935
0.771337
0.768171
0.191346
0.199787
0.187207
0.0346257
0.0378565
-0.297717
-0.273208
-0.319637
0.10198
0.101704
0.0349867
0.0385931
0.0524035
0.0930177
0.095681
0.113728
0.105422
0.0406674
0.0402721
0.0314757
0.16268
0.160347
0.072663
0.12373
0.0591423
0.0495946
-0.0889326
-0.0848607
0.00376702
0.00375485
0.214184
0.202571
-0.127417
0.0108807
0.0419027
0.0467887
-0.261064
-0.270085
-0.156553
-0.157765
-0.269352
-0.260713
-0.412055
-0.434507
-0.418091
-0.39626
-0.39101
0.488407
0.468918
0.458226
0.472624
0.051778
0.055824
-0.0704362
0.00310771
0.00857183
0.0100165
0.011231
0.0116705
0.0130162
0.0151971
0.0171994
0.0192897
0.021287
0.0231709
0.0249564
0.0265734
0.028058
0.0293338
0.0304439
0.031319
0.0319816
0.0323723
0.0324774
0.0322517
0.0316421
0.0306223
0.0291031
0.0270864
0.0244578
0.0212666
0.0173927
0.0129572
0.00785028
0.00228396
-0.00377412
-0.0098243
-0.0156916
-0.0206674
-0.025609
-0.0309392
-0.0373325
-0.00960411
-0.0117182
-0.0495365
0.0129861
0.0119442
0.00898552
-0.0550501
-0.0354573
-0.0423635
-0.0212479
-0.0286745
-0.006403
-0.0137713
0.00649963
0.000330199
0.0165783
0.0118725
0.0237806
0.020502
0.0284157
0.0263755
0.0309491
0.0299052
0.0318501
0.0315725
0.0315187
0.0318188
0.0302538
0.0309952
0.0282525
0.029348
0.0256315
0.0270286
0.0224861
0.0241282
0.01912
0.0207946
0.016476
0.0175054
0.0145982
0.00914365
0.00515818
0.00696472
0.0132253
0.011096
0.0177064
0.0154951
0.0221473
0.0198908
0.0261261
0.0241509
0.0293686
0.0277929
0.0317377
0.0306281
0.0330914
0.0325279
0.0332115
0.033316
0.0317997
0.0327298
0.0285366
0.0304512
0.0231985
0.0261905
0.0158022
0.0198308
0.00675969
0.0115419
-0.00230752
0.00223108
-0.00643476
0.00645125
0.00809938
0.0111179
-0.0598721
-0.043534
-0.0793663
-0.0639396
-0.0833676
-0.011696
0.00536756
0.00540888
0.00202407
0.00366428
0.00108608
0.00273691
0.00521656
-0.0661852
-0.0738388
-0.0490751
-0.0577188
-0.0313412
-0.0403043
-0.0139111
-0.0223893
0.000987945
-0.0060442
0.0125698
0.00722187
0.0209002
0.017136
0.0264137
0.023988
0.0296677
0.028298
0.0311969
0.0306246
0.0314482
0.0314634
0.0307605
0.0312076
0.0293669
0.0301423
0.0274059
0.0284498
0.0249813
0.02624
0.0222605
0.0236466
0.0193472
0.0208487
0.0160683
0.0176184
0.0140733
0.0149563
0.00519688
0.00336691
0.00917078
0.00701992
0.0139071
0.0114219
0.0190137
0.016496
0.0237893
0.0214734
0.0279072
0.025948
0.0311656
0.0296497
0.0334236
0.0324183
0.0345133
0.0341078
0.0342081
0.0345205
0.0322654
0.0334115
0.0285437
0.0305693
0.0231406
0.0259615
0.0165164
0.0198267
0.0100208
0.013029
0.00708764
-0.0254067
0.000652743
-0.0452555
0.0132963
0.0167814
0.0158867
-0.0655143
-0.0857991
0.00658497
0.008316
-0.00777002
0.00754553
0.0103995
0.00256551
0.00488422
-0.0960267
-0.104564
-0.101157
-0.0804489
-0.0889349
-0.0603172
-0.070743
-0.0391599
-0.0496156
-0.0196206
-0.0290751
-0.00323153
-0.0109564
0.00939228
0.00355819
0.0184778
0.0143539
0.0245832
0.0218692
0.0283409
0.0267216
0.0303297
0.0295272
0.0310245
0.0308157
0.0307877
0.0310053
0.0298746
0.0304042
0.0284441
0.0292174
0.0265898
0.0275686
0.024334
0.0255397
0.0217119
0.0231104
0.0189249
0.0203114
0.0177665
-0.000657923
-0.00125848
-0.00120789
0.00168405
0.000325136
0.005461
0.00338407
0.0103412
0.00778213
0.0158418
0.0130655
0.0212731
0.018604
0.0261663
0.0238105
0.0302504
0.0283228
0.0333686
0.0319392
0.035385
0.0345231
0.0361384
0.0359273
0.035471
0.0359838
0.0333357
0.0345717
0.0299288
0.0317552
0.025789
0.0278702
0.0220979
0.0238
0.020168
0.0206812
0.0226797
0.0208601
-0.0861629
-0.106097
0.000647319
-0.0254227
0.0125531
0.0151152
-0.0449587
-0.0649807
0.0250265
0.0119981
-0.00273338
-0.0847901
-0.10543
-0.000951515
-0.00208629
0.0288014
-0.00629944
0.00729662
0.00991015
0.0028469
0.00494036
-0.000150148
0.00114356
-0.120962
-0.124521
-0.124099
-0.110645
-0.117417
-0.0918672
-0.10206
-0.0686874
-0.0806484
-0.0450813
-0.0566603
-0.0240023
-0.0341345
-0.00663052
-0.0147989
0.00665798
0.000519746
0.0162318
0.0118775
0.022742
0.0198314
0.0268688
0.0250672
0.0292137
0.0282338
0.0302636
0.0298769
0.0303918
0.0304253
0.0298689
0.0301999
0.0288704
0.0294226
0.0274856
0.028226
0.0257231
0.0266607
0.0236085
0.0247131
0.0213044
0.0224629
0.0192225
0.0202044
0.0175104
0.018278
-0.00296216
-0.00308926
-0.00140619
-0.00242847
0.00197703
6.46352e-05
0.00684873
0.00425268
0.0126567
0.00967964
0.0186831
0.0156866
0.0243273
0.021582
0.0292283
0.0268861
0.0332059
0.0313412
0.0361548
0.0348164
0.0379806
0.0372152
0.0386137
0.0384485
0.0380991
0.0384888
0.0367095
0.0374846
0.0350365
0.0358476
0.0340568
0.0344064
0.0344723
0.0340127
0.037813
0.0361186
0.0439167
0.0405946
-0.102868
-0.122321
0.033316
0.0476901
-0.0241733
0.0157364
-0.000958313
-0.0434163
0.0168554
0.019631
0.0188985
-0.0632964
-0.0820751
0.0366105
-0.0989582
-0.118312
0.050691
-0.00374045
0.0120507
0.0144812
0.00725382
0.00961945
0.00330175
0.00512209
0.00081278
0.00183248
-0.140897
-0.135269
-0.139
-0.137733
-0.140305
-0.122564
-0.131015
-0.100448
-0.112188
-0.074793
-0.0878331
-0.0495166
-0.0618735
-0.0273724
-0.037959
-0.00938623
-0.0178242
0.00430352
-0.00201757
0.0141846
0.00968316
0.0209742
0.0179249
0.0253798
0.023438
0.0280102
0.0268864
0.0293534
0.0288189
0.0297838
0.0296648
0.0295781
0.029748
0.0289224
0.0292993
0.027916
0.0284615
0.0265867
0.0272938
0.0249532
0.0258075
0.0230829
0.0240438
0.0212263
0.0221426
0.0203867
-0.0037056
-0.00145029
-0.00273234
-0.00469178
-0.00444432
-0.00388189
-0.00454173
-0.0010939
-0.00274759
0.0035531
0.00101848
0.00952697
0.00641788
0.0160707
0.0127766
0.0224661
0.0193238
0.0282302
0.0254471
0.0331255
0.030795
0.0370612
0.0352171
0.0400056
0.0386591
0.0419736
0.0411088
0.0430889
0.0426242
0.0436685
0.043417
0.0442871
0.0439237
0.0457264
0.0448607
0.0486486
0.0469423
0.0528091
0.0506153
0.0573706
0.0550915
0.061533
0.0595774
-0.112151
-0.128792
0.0520906
0.0620365
0.000217583
-0.0220538
0.0192205
0.0163039
0.018316
-0.0412046
0.0385517
-0.0605936
-0.0783799
-0.0941049
-0.00150788
0.0511773
-0.105757
-0.121141
0.0606743
-8.58566e-05
-6.49005e-05
-0.000673343
0.0117517
0.0140684
0.00736464
0.00946396
0.00394552
0.00551433
0.00196581
0.0027791
0.00142806
0.00156209
-0.149883
-0.134822
-0.143337
-0.154501
-0.153372
-0.148386
-0.152889
-0.13084
-0.140824
-0.106081
-0.119058
-0.0786538
-0.0924501
-0.052348
-0.0651576
-0.0296535
-0.040458
-0.0114402
-0.0199674
0.00236993
-0.00400635
0.0123659
0.00780438
0.0193031
0.0161751
0.0238944
0.0218553
0.0267405
0.0255058
0.0283191
0.027665
0.0289975
0.0287532
0.02905
0.0290893
0.0286684
0.0289056
0.0279661
0.0283543
0.0269902
0.0275131
0.0257547
0.0264079
0.0242858
0.0250623
0.0227485
0.0235259
0.0212996
0.0220302
0.0200124
0.0206065
-0.00415493
-0.00296018
-0.00569309
-0.00512118
-0.00563989
-0.00590752
-0.00353793
-0.00486428
0.000673661
-0.00168551
0.00660149
0.00346217
0.0135129
0.00998575
0.0206071
0.0170822
0.0272677
0.0240194
0.0331578
0.0303207
0.038162
0.0357728
0.0422879
0.0403322
0.0456197
0.0440456
0.048341
0.0470408
0.0507808
0.0495698
0.0534293
0.0520433
0.0568043
0.0550035
0.0611437
0.0588483
0.0658218
0.0635091
0.0694629
0.0679053
0.070057
0.0701061
0.0668775
0.0693068
0.0574161
0.0625338
-0.112817
-0.125098
-0.0191836
0.0218694
0.00155444
-0.0383968
0.0392409
0.0194739
0.0213294
0.0207818
-0.0573361
0.049328
-0.0744509
0.0521377
-0.0888794
-0.099092
-0.104215
-0.114554
0.00223439
0.0158368
0.0177917
0.0116405
0.0137438
0.00772304
0.00959459
0.00476078
0.006095
0.00317773
0.00380368
0.0028398
0.00287042
-0.146452
-0.123551
-0.135654
-0.161449
-0.155284
-0.164673
-0.164729
-0.155549
-0.161693
-0.135514
-0.14669
-0.10884
-0.12269
-0.080323
-0.0945545
-0.0536195
-0.0665642
-0.030905
-0.041685
-0.0128358
-0.0212833
0.00084019
-0.00547683
0.0107813
0.00623593
0.0177501
0.014596
0.0224441
0.0203461
0.0254422
0.0241266
0.0272032
0.0264551
0.0280808
0.0277354
0.028342
0.0282759
0.0281789
0.0283051
0.0277155
0.0279805
0.0270142
0.0273939
0.0260962
0.026584
0.0249842
0.0255679
0.0237547
0.0243951
0.0225087
0.0231339
0.0219022
-0.00122618
0.0018342
0.000284272
-0.00402714
-0.00273417
-0.00601965
-0.0051609
-0.00660762
-0.00653302
-0.0052249
-0.0061935
-0.0016055
-0.00369758
0.00405173
0.000997212
0.0111234
0.00746016
0.0187883
0.0149324
0.0263169
0.022606
0.0332469
0.0298745
0.0393912
0.0364209
0.0447534
0.0421655
0.0494528
0.0471758
0.0537002
0.0516171
0.0577941
0.0557459
0.0620773
0.0598931
0.0667581
0.0643701
0.071634
0.0692105
0.0757995
0.0738898
0.0778691
0.077207
0.0761722
0.0775342
0.0699478
0.0737854
0.0651641
-0.103653
-0.110554
0.00305136
-0.0164801
0.0235017
0.0189973
0.0202821
-0.0354973
0.0379745
-0.0540726
0.0448595
-0.0706409
0.0473875
-0.0839649
-0.0925929
-0.0959
0.0407886
0.00242143
-0.0928939
-0.0970465
0.00335729
0.00384599
0.00448873
0.0155367
0.0173832
0.0116844
0.0136036
0.00825122
0.00987273
0.0057523
0.00686849
0.00440327
0.00492836
0.004192
0.00417449
0.00473071
0.00439659
-0.131378
-0.10103
-0.116782
-0.155483
-0.144219
-0.16966
-0.164258
-0.170854
-0.172048
-0.158879
-0.1664
-0.13666
-0.148806
-0.108771
-0.123119
-0.0798992
-0.0942073
-0.0534465
-0.0662151
-0.0312126
-0.0417411
-0.0136235
-0.0218409
-0.000305005
-0.00646256
0.00943204
0.00496998
0.0163299
0.0131965
0.0210519
0.0189295
0.0241446
0.0227751
0.0260405
0.0252211
0.0270749
0.0266492
0.0275036
0.0273528
0.0275148
0.0275529
0.0272372
0.0274071
0.0267452
0.0270161
0.0260722
0.0264313
0.0252399
0.0256761
0.0242798
0.024775
0.0232457
0.0237578
0.0222078
0.0227324
0.0212259
0.0216999
-0.000499299
0.000988055
-0.00333874
-0.00195675
-0.00562962
-0.00459034
-0.00674981
-0.00638193
-0.00605926
-0.0066696
-0.00312999
-0.00488994
0.00204876
-0.000807237
0.0090317
0.00535697
0.0170543
0.0129648
0.0253254
0.0212024
0.0332587
0.0293601
0.0405558
0.0369954
0.0471608
0.0439418
0.0531739
0.0502317
0.0587824
0.056016
0.0642022
0.0615044
0.0695864
0.0668974
0.0748412
0.0722536
0.0794471
0.0772856
0.0824288
0.0812205
0.0826836
0.0829656
0.0792395
0.0814764
0.07153
0.0759169
0.0611002
0.0666743
-0.0834812
-0.0847585
0.0245465
0.0223095
-0.014186
0.0235812
0.0051696
-0.0332093
0.0348257
0.020738
0.0217703
0.0213015
-0.0514477
0.0386394
-0.0675129
0.0377559
-0.0798619
0.0267916
-0.0871515
-0.0882399
-0.0826472
-0.0682688
-0.0702879
0.0121095
0.0116053
0.00585774
0.0185496
0.0198168
0.0153177
0.0170083
0.0118531
0.013562
0.00888567
0.0102751
0.00678104
0.00771426
0.00566615
0.00612164
0.00544406
0.00545139
0.00590526
0.00561933
-0.104794
-0.0676578
-0.0867509
-0.137171
-0.121958
-0.161534
-0.150676
-0.17398
-0.169486
-0.172461
-0.175015
-0.158047
-0.166702
-0.134342
-0.147086
-0.106062
-0.12048
-0.077621
-0.0916322
-0.0520281
-0.0643392
-0.030707
-0.0407895
-0.0138794
-0.0217418
-0.00110158
-0.00701772
0.0083085
0.0039853
0.0150489
0.011976
0.0197347
0.017618
0.0228712
0.0214719
0.0248599
0.0239895
0.0260143
0.0255262
0.0265759
0.0263576
0.0267259
0.0266939
0.0265934
0.0266895
0.0262602
0.0264491
0.0257702
0.026034
0.0251449
0.0254747
0.0244019
0.0247889
0.0235687
0.0240049
0.0226825
0.0231297
0.0222397
0.0032188
0.00567391
0.00448763
0.000551189
0.00192353
-0.00218901
-0.000824455
-0.00459763
-0.00346954
-0.00608373
-0.00549998
-0.00598996
-0.0062775
-0.00377578
-0.00517481
0.000764999
-0.00179598
0.00739602
0.00384983
0.0154858
0.0113062
0.024254
0.0198323
0.0330229
0.0286722
0.0413654
0.0372639
0.0491155
0.0453172
0.0562907
0.0527701
0.0629946
0.0596954
0.0693167
0.0662026
0.0752161
0.0723326
0.0803822
0.0779258
0.0841877
0.0825068
0.0857947
0.0853365
0.0844547
0.0855309
0.0796235
0.0825106
0.0713464
0.0758602
0.0601404
0.066218
0.0426341
0.0519578
0.0226844
0.0342566
-0.00193492
-0.00264668
0.0111347
0.00628484
-0.0525426
-0.0491133
-0.0130517
0.0217446
0.020259
0.0208291
-0.032163
0.0290846
-0.0502997
0.0310767
-0.065893
0.0262838
-0.0773332
0.0130744
-0.0830608
-0.00204017
-0.0819059
-0.0734167
-0.0581713
-0.00384957
-0.037349
0.00629816
0.00672152
0.00721625
-0.0309433
-0.0183288
-0.0176226
-0.0173484
0.00559057
0.0181689
0.0193621
0.0151676
0.0167317
0.0121023
0.0135978
0.00958037
0.0107517
0.00782517
0.0086006
0.00686551
0.00725086
0.00661955
0.00665579
0.00696751
0.00673345
0.00761692
0.00727149
-0.0685024
-0.0280256
-0.0480137
-0.107872
-0.0889555
-0.140588
-0.125374
-0.163871
-0.153736
-0.17373
-0.170605
-0.169563
-0.173373
-0.153307
-0.162749
-0.128945
-0.141861
-0.10112
-0.115191
-0.0738266
-0.0872075
-0.0496059
-0.0612281
-0.0295391
-0.0390236
-0.01369
-0.0211016
-0.00159242
-0.00720453
0.00739489
0.00325427
0.013908
0.0109279
0.0185033
0.0164177
0.0216397
0.0202315
0.0236844
0.0227806
0.0249267
0.0243917
0.025592
0.0253205
0.0258522
0.0257646
0.0258337
0.0258722
0.0256216
0.0257485
0.0252666
0.0254606
0.0247938
0.0250448
0.0242165
0.024519
0.0235437
0.0238936
0.0227932
0.0231766
0.0219712
0.0224043
0.0211048
0.021535
0.00421134
0.00529569
0.00183835
0.00306753
-0.000690455
0.000579544
-0.00303946
-0.00191634
-0.00469689
-0.00399437
-0.00504149
-0.00507652
-0.00348083
-0.00453362
0.000344327
-0.00186173
0.00639978
0.00310979
0.0142357
0.0101342
0.0231558
0.0186067
0.0324491
0.0277955
0.041576
0.0370586
0.0502316
0.0459743
0.0583005
0.0543429
0.0657558
0.0621076
0.0725439
0.0692425
0.0784744
0.0756382
0.083146
0.0810033
0.0859805
0.0848356
0.0863825
0.086507
0.083891
0.085517
0.0781989
0.0814607
0.0696919
0.0742584
0.0574707
0.0643285
0.040156
0.0488767
0.0206317
0.0313191
0.00932804
-0.0130501
-0.00772888
-0.0348234
-0.0348861
-0.0135946
0.0175822
0.00799333
-0.0328962
0.0220692
0.0206265
0.0210973
0.0206302
-0.0510292
0.0209809
-0.066288
0.0120516
-0.0767815
-0.00242734
-0.0808334
-0.0178673
-0.07723
-0.0354072
-0.0656491
-0.0469482
-0.0228268
-0.0541358
0.00408428
0.0116524
-0.0532117
0.00326754
0.0198086
0.0203748
0.0178279
0.0189469
0.0150999
0.0165069
0.0124273
0.0137198
0.0102919
0.011277
0.00881303
0.00946881
0.00797001
0.00831167
0.00769271
0.00777754
0.0078748
0.00773234
0.00836405
0.00810002
-0.0278627
0.0138385
-0.00662713
-0.0701648
-0.0489176
-0.109519
-0.090691
-0.141409
-0.126696
-0.162019
-0.153256
-0.168919
-0.16717
-0.162482
-0.167304
-0.145135
-0.154954
-0.120999
-0.133644
-0.0944288
-0.107774
-0.0688865
-0.0813629
-0.0464349
-0.0571934
-0.0278667
-0.0366464
-0.0131456
-0.0200407
-0.00182501
-0.00708946
0.00667026
0.00274434
0.0129022
0.0100404
0.017363
0.0153295
0.0204622
0.0190628
0.022531
0.0216093
0.0238335
0.0232651
0.0245778
0.0242653
0.0249252
0.0247934
0.0249967
0.0249898
0.0248778
0.0249574
0.024623
0.0247656
0.0242614
0.0244551
0.0238061
0.0240459
0.0232572
0.0235442
0.0226102
0.0229504
0.021892
0.0222593
0.0215177
0.00864539
0.00700517
0.00841088
0.00775999
0.00528521
0.00619408
0.00325295
0.00430768
0.0010344
0.00215486
-0.00110311
-6.7734e-05
-0.00273803
-0.00201747
-0.00332035
-0.00320091
-0.00226862
-0.00303662
0.000854779
-0.000989003
0.00621159
0.0032627
0.0135148
0.00964675
0.0222127
0.0177307
0.0316277
0.0268722
0.0411517
0.0364088
0.0503496
0.0458126
0.0589561
0.0547401
0.0667979
0.0629845
0.0736917
0.0703798
0.0793612
0.0767039
0.0834133
0.0816199
0.0854
0.0846949
0.0849119
0.08549
0.0816952
0.083672
0.0755805
0.0789977
0.0669339
0.071579
0.0546468
0.0614009
0.0381942
0.0466794
0.0187174
0.0290004
-0.00517234
0.00743155
-0.0348916
-0.0192573
-0.0733959
-0.0707859
-0.0518847
0.0299249
0.0336902
-0.016262
0.0114586
0.0201444
0.0201703
-0.0359138
0.0129045
-0.0541221
0.00801709
-0.0689942
-0.00367441
-0.0785035
-0.0193675
-0.0807431
-0.0366355
-0.0743452
-0.0557591
-0.0593049
-0.0761717
-0.0367132
-0.00903731
0.0201895
0.0472328
-0.0679235
-0.09579
0.00895728
-0.0912866
-0.0868618
0.052251
-0.00124278
0.0193416
0.0198838
0.0175221
0.0185379
0.0150912
0.0163306
0.0127936
0.0138952
0.0109875
0.0118191
0.00972157
0.0102878
0.00894943
0.00927435
0.00862667
0.00873756
0.00866688
0.00860447
0.00898151
0.00879993
0.0093941
0.009178
0.0125496
0.0512868
0.0326552
-0.0292883
-0.0079231
-0.0712497
-0.0506715
-0.109048
-0.0909147
-0.138229
-0.124989
-0.155547
-0.148557
-0.159893
-0.159447
-0.151787
-0.157264
-0.134218
-0.143964
-0.111177
-0.123132
-0.0865405
-0.0988494
-0.0631967
-0.0745729
-0.0427729
-0.0525577
-0.0258455
-0.0338597
-0.0123356
-0.0186776
-0.001848
-0.00673887
0.00611057
0.00242072
0.0120226
0.0092978
0.0163145
0.0143498
0.019346
0.0179702
0.021412
0.0204852
0.022751
0.0221607
0.0235535
0.02321
0.0239689
0.0238023
0.0241118
0.024069
0.0240657
0.0241087
0.0238865
0.0239906
0.0236067
0.0237584
0.0232393
0.0234341
0.0227869
0.0230253
0.0222375
0.0225255
0.0216018
0.0219311
0.0208676
0.0212498
0.0200039
0.0204548
0.0088583
0.00963587
0.00928757
0.00775902
0.00834703
0.00637323
0.00710766
0.00470725
0.00557241
0.00286346
0.0037978
0.00104954
0.00193428
-0.000396821
0.000252383
-0.00101264
-0.000843744
-0.000273192
-0.000848198
0.00224545
0.000751659
0.00691806
0.00433465
0.0135168
0.00998761
0.0216826
0.0174371
0.0308236
0.0261712
0.040319
0.0355638
0.0496442
0.0450318
0.0584058
0.0541176
0.0663012
0.0624812
0.0730494
0.0698395
0.078338
0.0758999
0.0818184
0.0803293
0.0831494
0.082775
0.082066
0.0829267
0.0783839
0.0805653
0.0720639
0.0755454
0.0632659
0.0680079
0.0511004
0.0576629
0.0356347
0.0437188
0.0166456
0.0265997
-0.00628001
0.00577768
-0.0344425
-0.0196794
-0.0505455
0.069346
0.0688781
-0.113727
-0.107409
-0.0213189
0.00328889
-0.0414282
0.00127168
0.00975791
0.00991205
0.019512
0.0196768
0.0192286
-0.0597565
-0.00704374
-0.0742255
-0.0214612
-0.0825802
-0.0387991
-0.0827372
-0.0581509
-0.0732664
-0.0792919
-0.0543149
-0.100451
-0.0274657
-0.120462
0.00404206
0.0359775
0.0642378
-0.137671
0.085435
0.0849445
-0.129102
-0.00807222
0.0196531
0.0196593
0.0189213
0.0194083
0.0172411
0.0181822
0.0151225
0.0161954
0.0131683
0.0140988
0.0116412
0.0123462
0.0105377
0.0110384
0.00980377
0.0101255
0.00941575
0.0095678
0.00932862
0.00933413
0.00946895
0.00937948
0.00959998
0.0797714
0.0990336
0.0945112
0.0471059
0.064235
0.00967849
0.0292035
-0.0308661
-0.0105914
-0.0707334
-0.0512038
-0.105568
-0.0890467
-0.13122
-0.119769
-0.145333
-0.139819
-0.147292
-0.147841
-0.138332
-0.144037
-0.121429
-0.130663
-0.10022
-0.111145
-0.0780056
-0.0890668
-0.0571246
-0.0672921
-0.038849
-0.047613
-0.0236129
-0.0308416
-0.0113404
-0.0171176
-0.00170768
-0.00621401
0.00569065
0.00224893
0.0112574
0.00868244
0.0153549
0.0134717
0.0182944
0.0169541
0.0203353
0.0194144
0.0216909
0.0210882
0.0225338
0.0221679
0.0230015
0.0228078
0.0232012
0.0231298
0.0232128
0.0232269
0.023092
0.0231667
0.022873
0.0229938
0.0225715
0.0227324
0.0221902
0.0223923
0.0217169
0.0219659
0.0211544
0.0214507
0.0204698
0.0208153
0.0200836
0.00931055
0.00988675
0.00963328
0.00849438
0.00893117
0.00742693
0.00799258
0.00613043
0.00680404
0.00468818
0.00541956
0.00326342
0.00395894
0.0021238
0.00263544
0.0016461
0.00177273
0.00228133
0.00179245
0.00451141
0.00316033
0.00846649
0.00623258
0.0143208
0.0111672
0.0217767
0.0178736
0.0303466
0.0259577
0.0394485
0.0348682
0.048523
0.0440226
0.0570942
0.0528998
0.0647677
0.0610679
0.0711965
0.068161
0.076052
0.0738438
0.079022
0.0777941
0.0798414
0.0797178
0.0783377
0.0793926
0.074383
0.0766755
0.0680091
0.0714947
0.0591682
0.0639369
0.0474409
0.0536737
0.0326603
0.0403911
0.0145826
0.0240834
-0.00715237
0.00422267
-0.0336039
-0.0197508
-0.0647846
-0.0486508
-0.100905
-0.0822219
-0.151896
-0.141373
-0.120746
-0.028937
-0.00730449
0.0100799
0.0190253
0.0187453
-0.0495759
-0.0129724
-0.068033
-0.0248911
-0.0819895
-0.0418148
-0.0889618
-0.0614046
-0.0867096
-0.0831405
-0.0737998
-0.105693
-0.0504931
-0.127405
-0.0190467
-0.14695
0.0163207
-0.163514
0.0510227
0.0792621
0.0993428
0.108095
-0.131401
-0.17608
-0.163169
-0.150877
-0.0174127
0.0191608
0.0191713
0.018487
0.0189413
0.0169988
0.0178333
0.0151737
0.0160917
0.0135257
0.0143068
0.0122324
0.0128335
0.0112516
0.0117056
0.0105334
0.01086
0.0100757
0.0102708
0.00986942
0.00994811
0.00987484
0.00985249
0.00999947
0.00992705
0.0101941
0.010085
0.0898255
0.0986213
0.0718522
0.0839973
0.0417649
0.0576559
0.00660011
0.0246042
-0.0312556
-0.0122867
-0.0677017
-0.0499226
-0.098615
-0.0841012
-0.120591
-0.110921
-0.131793
-0.1276
-0.132138
-0.133282
-0.123184
-0.128687
-0.107706
-0.116073
-0.088845
-0.0985163
-0.0693157
-0.0790258
-0.0509837
-0.0599158
-0.0348554
-0.0426053
-0.0212854
-0.0277418
-0.0102308
-0.0154514
-0.001447
-0.00557007
0.00538521
0.00219581
0.010593
0.00817543
0.0144787
0.012686
0.0173074
0.016012
0.0193053
0.0183991
0.0206609
0.020054
0.0215296
0.0211485
0.0220366
0.0218221
0.0222814
0.022187
0.0223393
0.0223302
0.0222648
0.0223163
0.0220926
0.0221897
0.0218413
0.0219765
0.0215131
0.0216878
0.0210996
0.0213176
0.0205933
0.0208588
0.019981
0.0202999
0.0192715
0.0196415
0.0184168
0.0188621
0.0101304
0.0103124
0.0102486
0.0097546
0.00997305
0.0091828
0.00949303
0.00841221
0.00882204
0.00746849
0.00795893
0.00642292
0.00695176
0.00540822
0.0058999
0.00463799
0.00497454
0.00441379
0.00443372
0.00510539
0.00461817
0.00709393
0.00591134
0.0106321
0.00865108
0.0158262
0.0130223
0.0225345
0.0190085
0.0303757
0.0263428
0.0388388
0.0345641
0.0473783
0.0431334
0.0554849
0.051517
0.0627133
0.0592366
0.0686772
0.0658781
0.0730399
0.0710808
0.0755183
0.0745333
0.0759053
0.0759865
0.0740874
0.0752815
0.069986
0.0723283
0.0636355
0.0670927
0.054948
0.0596102
0.0436328
0.0496415
0.0295674
0.0369465
0.0124716
0.021456
-0.00805534
0.00267082
-0.0327361
-0.0198146
-0.0615033
-0.0465668
-0.0945198
-0.077548
-0.112523
-0.185722
-0.170651
-0.0392266
-0.0205958
-0.0604783
-0.030203
0.010269
0.0103303
0.0179488
0.0180041
0.0175761
-0.0789967
-0.0456829
-0.0922279
-0.0653206
-0.0974858
-0.0875614
-0.0923966
-0.111552
-0.075598
-0.134945
-0.0475282
-0.156999
-0.0114565
-0.176166
0.0278717
-0.191059
0.0641949
-0.20204
0.0928808
0.109766
0.114753
-0.208193
-0.190299
0.102474
0.0937554
-0.0294239
0.0185094
0.018252
0.0186427
0.0186503
0.0180601
0.0184566
0.0167721
0.0174898
0.0152239
0.0159977
0.0138463
0.0144981
0.0127466
0.0132635
0.0118572
0.0122785
0.0111397
0.011476
0.0106145
0.0108508
0.0103007
0.0104321
0.0101746
0.0102139
0.0101891
0.0101696
0.0102256
0.0874517
0.0957588
0.0642246
0.0755541
0.03717
0.051391
0.00477622
0.0214196
-0.0294938
-0.0123711
-0.0617789
-0.0461169
-0.0886026
-0.0760706
-0.107171
-0.0992822
-0.116079
-0.112864
-0.11565
-0.116978
-0.107448
-0.112395
-0.0939159
-0.10119
-0.07766
-0.0859813
-0.0608629
-0.069219
-0.0450152
-0.0527525
-0.0309395
-0.0377227
-0.018955
-0.024676
-0.00906545
-0.0137522
-0.00110383
-0.00485416
0.0051702
0.00223106
0.0100151
0.00775798
0.0136784
0.011982
0.0163831
0.0151394
0.0183238
0.0174393
0.019666
0.0190615
0.0205482
0.0201577
0.0210838
0.0208537
0.0213642
0.0212515
0.0214598
0.0214317
0.0214229
0.0214557
0.0212883
0.0213665
0.0210756
0.0211913
0.0207889
0.0209421
0.0204239
0.0206169
0.0199721
0.0202093
0.019424
0.0197112
0.0187728
0.0191129
0.0184089
0.0103627
0.0104222
0.0104152
0.0101655
0.0102873
0.00980972
0.010008
0.00930648
0.00957587
0.00868464
0.00900751
0.00800801
0.00834736
0.00738851
0.00768135
0.00699973
0.00715076
0.00708277
0.00696312
0.00793331
0.00739024
0.00985637
0.00874018
0.0130991
0.0113005
0.0177728
0.0152563
0.02379
0.0206245
0.0308661
0.0272191
0.0385684
0.0346695
0.0463948
0.0424989
0.0538434
0.0501979
0.060455
0.0572824
0.0658305
0.0633223
0.0696387
0.0679515
0.0716257
0.070876
0.0716286
0.0718857
0.0695715
0.0708655
0.0653961
0.0677535
0.059127
0.0625276
0.0506719
0.0551908
0.0398256
0.0455642
0.0264663
0.0334711
0.010346
0.0188225
-0.00899339
0.00108195
-0.0318354
-0.0199584
-0.0583681
-0.0445994
-0.0884395
-0.0729323
-0.12175
-0.104698
-0.156739
-0.139305
-0.210043
-0.191307
-0.174335
-0.0523493
-0.0368345
0.010393
0.0174563
0.0171149
-0.0742376
-0.0505941
0.0792359
0.0917729
0.0801283
-0.0926656
-0.0697534
-0.104838
-0.092545
-0.107912
-0.117529
-0.0994588
-0.14328
-0.0782303
-0.167559
-0.0451388
-0.189445
-0.00420897
-0.207334
0.0388193
-0.219535
0.0766959
-0.227762
0.103893
-0.230218
0.118991
0.123256
0.115351
0.10244
-0.174542
-0.229142
-0.208223
-0.189394
-0.044322
0.0179772
0.0177479
0.0181168
0.0181115
0.0176337
0.0179667
0.016546
0.0171496
0.0152555
0.0158973
0.0141153
0.0146557
0.0131746
0.0136238
0.0123525
0.0127514
0.0116261
0.0119751
0.0110373
0.0113113
0.0106262
0.0108082
0.0103908
0.0104861
0.0103001
0.0103298
0.0102775
0.0102849
0.0103028
0.0102874
0.0809472
0.0795268
0.0771961
0.0816653
0.0567058
0.067195
0.0330248
0.0455606
0.00436693
0.0191221
-0.0256398
-0.010698
-0.0535675
-0.0400596
-0.0764734
-0.065824
-0.0921272
-0.0850863
-0.0995573
-0.0969214
-0.0990579
-0.100239
-0.0921083
-0.0962811
-0.0807593
-0.0868551
-0.0671154
-0.0741069
-0.0529209
-0.0599987
-0.0393844
-0.0460142
-0.027205
-0.0330954
-0.0166904
-0.0217285
-0.0078916
-0.0120769
-0.000710769
-0.00410553
0.00502347
0.00232772
0.00950939
0.00741215
0.0129457
0.0113487
0.0155175
0.0143303
0.0173905
0.0165331
0.0187086
0.0181117
0.0195943
0.0191994
0.0201497
0.0199083
0.020458
0.0203307
0.0205847
0.0205409
0.0205791
0.0205962
0.0204756
0.0205383
0.0202942
0.0203941
0.020042
0.0201772
0.0197172
0.0198893
0.019313
0.0195256
0.0188199
0.0190786
0.0182303
0.0185378
0.0175373
0.0178998
0.0167334
0.0171487
0.0105213
0.0103343
0.0104513
0.010582
0.0105727
0.0105304
0.0105697
0.0103643
0.0104616
0.0100958
0.0102415
0.0097573
0.00993241
0.00940795
0.00957873
0.00914492
0.00925735
0.00911227
0.00908792
0.00950423
0.00923983
0.0105552
0.00992991
0.0125063
0.0114022
0.0155623
0.0138824
0.019835
0.0175465
0.0252506
0.022407
0.0315957
0.0283259
0.0385064
0.0350067
0.0455363
0.0420365
0.0522168
0.0489504
0.0581049
0.0552877
0.0628146
0.060631
0.0660351
0.0646303
0.0675428
0.0670171
0.0672043
0.0676134
0.0649606
0.066327
0.0607627
0.0631105
0.0546135
0.0579379
0.0464279
0.0507892
0.0360556
0.0415277
0.0233625
0.0300169
0.00811988
0.0160805
-0.00993304
-0.000558819
-0.0309912
-0.0200612
-0.0552538
-0.0427138
-0.08258
-0.0685349
-0.112643
-0.0971675
-0.144233
-0.128287
-0.159379
-0.224362
-0.203723
-0.0684785
-0.0562635
0.085919
-0.0909525
-0.0744135
0.0102054
0.0101969
0.0163005
0.016319
0.0159303
-0.109012
-0.0974283
-0.119651
-0.123539
-0.119935
-0.151183
-0.10748
-0.178171
-0.0812828
-0.202792
-0.0429018
-0.224297
0.00292275
-0.239696
0.0490454
-0.249511
0.0875611
-0.25375
0.114001
-0.253101
0.126578
-0.247932
0.126943
0.114095
0.0985943
-0.239771
-0.216941
-0.0623416
0.0169517
0.0166436
0.0174275
0.0172211
0.0175818
0.0175598
0.0172015
0.01747
0.0163087
0.0168038
0.0152552
0.0157775
0.0143219
0.0147668
0.0135119
0.0139067
0.0127397
0.0131233
0.0119994
0.0123622
0.0113537
0.0116605
0.0108604
0.0110859
0.0105322
0.0106756
0.0103469
0.0104229
0.0102571
0.0102942
0.0102308
0.0707633
0.0808758
0.0707443
0.0701159
0.0667564
0.0702895
0.0503968
0.0593335
0.029842
0.0406691
0.00528435
0.0179302
-0.020394
-0.00761759
-0.044232
-0.0327104
-0.0639845
-0.0547134
-0.0771105
-0.0712829
-0.0835277
-0.0812023
-0.0833859
-0.0842299
-0.0778921
-0.0812199
-0.0687004
-0.0736563
-0.0574871
-0.0632534
-0.0456512
-0.0515754
-0.0341915
-0.0398266
-0.0237197
-0.0288048
-0.0145406
-0.0189562
-0.00674583
-0.0104676
-0.000295039
-0.0033558
0.00492533
0.00246253
0.00906218
0.00712144
0.0122719
0.0107749
0.0147058
0.0135782
0.0165037
0.0156773
0.0177895
0.0172044
0.0186708
0.0182753
0.0192386
0.0189893
0.0195685
0.0194296
0.0197209
0.019664
0.0197422
0.0197458
0.0196652
0.0197146
0.0195106
0.019597
0.0192878
0.0194077
0.0189971
0.0191513
0.0186338
0.0188251
0.0181899
0.0184226
0.0176589
0.0179355
0.0170351
0.0173587
0.0166853
0.0106107
0.0103645
0.010497
0.0107683
0.0106982
0.0108434
0.0108168
0.0108399
0.0108511
0.0107732
0.0108129
0.0106769
0.0107259
0.0106069
0.0106338
0.0106491
0.0106068
0.010925
0.010748
0.0115924
0.0111974
0.0128368
0.0121287
0.0148469
0.0137333
0.017783
0.016188
0.0217266
0.0196255
0.0266261
0.0240638
0.0322993
0.0293812
0.0384414
0.0353345
0.0446623
0.0415687
0.0505405
0.0476718
0.05567
0.0532246
0.0596957
0.0578429
0.0623369
0.0612068
0.0633973
0.0630772
0.0627612
0.0632995
0.0603681
0.0617917
0.0561859
0.0585071
0.0501845
0.0534188
0.0422905
0.0464852
0.0323872
0.0376011
0.0203511
0.0266496
0.00602208
0.0134939
-0.0107913
-0.00206188
-0.0302414
-0.0201754
-0.0523707
-0.0409682
-0.077073
-0.064408
-0.104014
-0.0902644
-0.132167
-0.118088
-0.159146
-0.145744
-0.185251
-0.172477
-0.228726
-0.206859
-0.196865
-0.0877953
-0.079156
0.0101943
0.0158582
0.0155247
-0.110674
-0.10188
-0.127935
-0.128913
-0.136405
-0.158418
-0.133164
-0.18831
-0.115997
-0.216331
-0.0843075
-0.241122
-0.0403851
-0.260367
0.00996179
-0.273141
0.0584719
-0.279869
0.0973558
-0.27992
-0.253301
0.121529
-0.275108
-0.265704
0.130556
0.125674
0.111437
0.0935576
0.0726525
-0.187314
-0.23857
-0.215237
-0.194571
-0.083729
0.0164161
0.0161428
0.016857