/*--------------------------------*- C++ -*----------------------------------*\
  =========                 |
  \\      /  F ield         | OpenFOAM: The Open Source CFD Toolbox
   \\    /   O peration     | Website:  https://openfoam.org
    \\  /    A nd           | Version:  10
     \\/     M anipulation  |
\*---------------------------------------------------------------------------*/
FoamFile
{
    format      ascii;
    class       volScalarField;
    location    "23.5";
    object      p;
}
// * * * * * * * * * * * * * * * * * * * * * * * * * * * * * * * * * * * * * //

dimensions      [0 2 -2 0 0 0 0];

internalField   nonuniform List<scalar> 
28942
(
-3.09277
-3.11325
-3.12866
0.815236
0.864224
-0.0691532
-0.0580674
-0.0683835
-0.412159
-0.352154
-5.91133
-5.95204
-5.87822
-5.89658
-0.0244472
-0.01533
2.56681
2.67936
-1.03292
0.0723417
2.04514
2.04031
-6.09605
-6.06125
-6.34543
-5.87487
3.73516
4.06156
-1.65257
-1.64662
-0.13144
-0.128864
0.0304274
-0.0317159
1.40316
1.72329
3.1236
3.76961
-0.0861008
2.96414
1.71466
1.67428
0.104935
0.131936
0.178083
-0.0530933
-0.0469678
-0.0395852
-0.0396792
-0.0359007
-0.0219298
0.00513193
-0.0030778
-0.400832
-0.329038
-4.32239
-3.57247
-5.99291
-5.88941
-5.93635
-5.99024
-6.00884
-6.02662
-2.38997
-2.91704
-1.79537
-1.39805
1.98057
1.79621
-3.02026
-3.11203
-3.21593
1.7735
1.75983
1.70275
-1.34769
-1.35176
-0.855703
-3.00598
-3.56573
-2.69868
-3.69253
-3.23163
-3.35709
0.00937983
0.536029
1.0107
0.915729
0.501417
0.657403
0.884833
1.14869
-5.88741
-5.65393
-6.12592
-6.16014
-6.16536
1.06318
1.25967
-3.48737
0.90808
0.92312
0.979321
0.912021
0.140734
0.158754
0.129295
1.18759
1.22588
1.23697
-5.99426
-5.99604
-3.46365
-3.44742
-3.07562
4.99855
4.64932
4.53805
4.83066
0.18251
1.04665
0.674871
-1.15089
-1.39841
5.17546
5.27005
5.06729
-1.29305
-0.938853
-0.0408888
-0.0353948
-0.0456364
1.53582
2.37223
1.39538
1.36047
1.56382
-0.157613
0.9722
2.51894
-7.07641
-6.96064
-1.00384
0.245695
0.244636
-3.0551
-3.17152
-2.8336
-6.67988
1.54552
1.37525
0.182342
-0.0842758
-0.0975361
-0.0957039
-0.0896354
1.99783
1.34207
-5.20793
-4.28418
-4.11933
-2.92377
-2.568
-0.0621992
-5.37625
-5.17551
2.1813
2.28002
2.4897
2.38819
2.03959
0.646043
0.634569
-0.166116
-0.202866
1.0694
1.00505
1.10575
1.16198
1.14902
1.19771
1.26723
1.4648
1.35768
1.25807
1.37812
1.58572
1.92476
2.00272
-2.52208
-1.61911
-3.00654
-0.0524076
-0.0352318
-4.68415
-4.13116
-0.0311017
-0.0246504
-0.0271598
-0.0362705
-1.28141
-1.32276
-1.27885
-6.0462
-6.17355
-6.49392
-6.02243
-6.01859
-6.01793
-6.15696
-6.41944
-6.23971
4.94478
4.78934
4.9885
0.189503
0.228254
0.212266
2.35244
2.25647
2.31883
-3.15276
-2.85523
-3.44923
-2.57296
-2.31766
-2.0982
-2.10086
-1.91466
-1.91118
-2.32683
-2.59216
-2.88543
-3.19762
-3.50682
-1.77024
-1.75613
-3.7286
-3.80389
-3.97871
-1.66247
-1.63559
-4.06495
-1.58484
-1.53599
-1.5495
-1.49329
-4.1637
-4.26218
-1.51477
-1.46406
-4.27334
-4.38158
-1.52053
-1.46113
-4.29863
-4.42024
-1.55249
-1.4834
-4.24515
-4.35178
-1.61005
-1.53055
-4.10716
-4.20394
-1.69154
-1.60064
-3.89806
-3.98397
-1.79565
-1.69208
-3.63548
-3.70893
-1.91854
-1.80048
-3.33396
-3.39543
-2.05575
-1.92371
-3.02545
-3.07118
-2.1962
-2.05564
-2.721
-2.7539
-2.33869
-2.18464
-2.44501
-2.46312
-2.46659
-2.30266
-2.6275
-2.36998
-2.1975
-2.20666
-3.19287
-2.90543
-3.72252
-3.47045
-4.053
-3.92165
-4.07888
-4.10479
-3.79129
-3.97171
-3.31008
-3.56932
-2.75748
-3.03118
-2.25682
-2.49554
-1.87997
-2.05134
-1.64926
-1.74737
-1.54248
-1.58163
-1.54742
-1.53129
-1.65977
-1.5905
-1.87221
-1.75426
-2.15978
-2.00972
-2.46132
-2.31276
-2.59029
-2.55724
-2.39219
-1.89666
-2.11133
-2.0077
-1.67139
-1.78046
-1.49387
-1.57392
-1.39714
-1.43441
-1.39328
-1.38323
-1.49006
-1.4284
-1.70526
-1.58134
-2.05801
-1.86445
-2.55693
-2.29112
-3.16597
-2.85216
-3.78402
-3.48498
-4.2454
-4.04101
-4.4133
-4.37231
-4.19651
-4.34662
-3.69187
-3.97317
-3.04186
-3.37455
-2.42882
-2.72309
-2.16862
-2.14216
-2.68411
-2.19428
-1.98642
-1.94628
-1.95513
-1.99071
-2.47671
-2.03926
-2.24165
-2.99682
-2.73278
-3.48335
-3.2514
-3.79412
-3.67026
-3.82024
-3.8439
-3.55852
-3.72117
-3.10935
-3.35055
-2.60124
-2.85701
-2.14695
-2.35852
-1.81057
-1.96281
-1.60865
-1.69372
-1.52451
-1.55272
-1.55028
-1.52379
-1.68312
-1.60363
-1.91523
-1.78764
-2.21975
-2.06174
-2.53474
-2.38124
-2.60208
-2.72875
-2.76025
-2.66564
-1.90307
-1.97562
-2.23523
-2.4377
-1.71785
-1.81437
-1.52155
-1.61776
-1.36942
-1.43726
-1.29276
-1.32079
-1.30249
-1.28641
-1.40754
-1.3423
-1.62592
-1.5012
-1.97772
-1.78424
-2.47238
-2.2082
-3.07103
-2.76279
-3.68095
-3.3864
-4.1393
-3.93808
-4.31427
-4.26696
-4.09909
-4.24655
-3.60582
-3.88048
-2.96654
-3.29386
-2.35645
-2.64814
-1.8787
-2.09739
-1.87733
-1.76782
-1.69972
-1.81388
-2.80787
-2.01796
-1.81428
-1.75332
-1.63144
-1.55995
-1.83101
-2.78629
-2.83374
-2.23574
-2.02497
-1.6445
-1.65143
-1.43667
-1.53749
-1.89665
-1.75849
-2.28317
-2.07194
-2.75584
-2.5165
-3.19338
-2.98528
-3.4773
-3.36326
-3.50509
-3.52572
-3.27494
-3.41828
-2.8705
-3.08743
-2.41187
-2.64122
-2.00692
-2.19671
-1.71367
-1.84504
-1.54336
-1.61389
-1.48328
-1.50016
-1.52817
-1.49265
-1.67606
-1.58952
-1.92072
-1.78705
-2.23736
-2.0733
-2.56006
-2.40431
-2.6921
-2.59825
-2.80366
-2.72316
-2.43235
-1.68674
-1.79184
-1.74956
-1.52577
-1.61178
-1.35812
-1.4403
-1.23134
-1.2872
-1.17345
-1.19302
-1.19486
-1.17381
-1.30515
-1.23807
-1.52179
-1.39887
-1.86529
-1.67676
-2.34166
-2.0879
-2.91912
-2.62165
-3.5055
-3.2201
-3.94854
-3.75518
-4.11052
-4.06967
-3.91336
-4.05201
-3.44414
-3.70522
-2.83901
-3.14858
-2.25308
-2.53491
-1.79119
-2.00348
-1.47584
-1.616
-1.45318
-1.36748
-1.71086
-1.68516
-2.82942
-1.80517
-1.55656
-1.52813
-1.3659
-1.28861
-1.37675
-1.22154
-1.24138
-1.71726
-1.30147
-1.24531
-1.49836
-1.39133
-1.72842
-1.60709
-2.06081
-1.87841
-2.4782
-2.26651
-2.86523
-2.68162
-3.11769
-3.01538
-3.14738
-3.16301
-2.9495
-3.07371
-2.5963
-2.78576
-2.19557
-2.39513
-1.84472
-2.00946
-1.59444
-1.70571
-1.4548
-1.51128
-1.417
-1.42366
-1.47716
-1.43482
-1.63559
-1.54414
-1.88966
-1.75141
-2.21389
-2.04645
-2.53756
-2.38228
-2.7623
-2.66851
-2.80316
-2.80882
-2.74605
-2.74601
-2.77241
-2.54907
-2.66985
-2.20512
-2.39028
-1.78332
-2.00074
-1.55559
-1.55459
-1.57028
-1.4662
-1.51878
-1.32867
-1.40255
-1.18705
-1.25505
-1.0854
-1.12949
-1.04491
-1.05684
-1.07535
-1.05078
-1.18716
-1.12024
-1.39722
-1.2787
-1.72466
-1.54542
-2.1743
-1.93511
-2.71696
-2.43773
-3.26701
-2.99899
-3.68276
-3.50154
-3.82635
-3.79424
-3.65211
-3.77805
-3.21554
-3.45914
-2.65413
-2.9404
-2.11306
-2.37395
-1.6795
-1.87982
-1.37715
-1.5134
-1.18986
-1.26983
-1.23478
-1.13313
-1.62528
-1.59326
-1.47439
-1.45617
-2.7298
-2.67548
-1.73775
-1.52108
-1.36832
-1.32642
-1.288
-1.14256
-1.20036
-1.09541
-1.18077
-1.63189
-1.17307
-1.13617
-1.33612
-1.24284
-1.54689
-1.4381
-1.82683
-1.67389
-2.18192
-2.00063
-2.51548
-2.35725
-2.73416
-2.64495
-2.76395
-2.77452
-2.5982
-2.70302
-2.29823
-2.45926
-1.95869
-2.12746
-1.66284
-1.80152
-1.45505
-1.54682
-1.34464
-1.38792
-1.32671
-1.32444
-1.39972
-1.35169
-1.56717
-1.47151
-1.82704
-1.68647
-2.15109
-1.98446
-2.4698
-2.31689
-2.68804
-2.59796
-2.73356
-2.64398
-2.64163
-2.66783
-2.45962
-2.5736
-2.1399
-2.31293
-1.94656
-1.32076
-1.32996
-1.33402
-1.24763
-1.2906
-1.13075
-1.19192
-1.01551
-1.0703
-0.936594
-0.970202
-0.910899
-0.916478
-0.948061
-0.921096
-1.05856
-0.993354
-1.25797
-1.14605
-1.5631
-1.39665
-1.97753
-1.75745
-2.47488
-2.21923
-2.97896
-2.73325
-3.35889
-3.19355
-3.48244
-3.45892
-3.33234
-3.44419
-2.93702
-3.15816
-2.42515
-2.68614
-1.93531
-2.17096
-1.54216
-1.72482
-1.25935
-1.38759
-1.07917
-1.15743
-0.979427
-1.02099
-1.07488
-0.955826
-1.54798
-1.52509
-2.57085
-1.3007
-1.42873
-1.34194
-1.38505
-1.41171
-1.29852
-1.23549
-1.29886
-1.38536
-1.18675
-1.07415
-0.94765
-1.56232
-1.04832
-1.13742
-1.08953
-1.05039
-1.03255
-1.17428
-1.10003
-1.35662
-1.26171
-1.58906
-1.4634
-1.88193
-1.73181
-2.16068
-2.02821
-2.34495
-2.26935
-2.37298
-2.37951
-2.23778
-2.32382
-1.98993
-2.12307
-1.70973
-1.84886
-1.46699
-1.58048
-1.29973
-1.37293
-1.21708
-1.2479
-1.21757
-1.20705
-1.30237
-1.24915
-1.47616
-1.37804
-1.73549
-1.59612
-2.05215
-1.88985
-2.36049
-2.21268
-2.57016
-2.48312
-2.60707
-2.61272
-2.4542
-2.55329
-2.49972
-2.31731
-2.42858
-2.50713
-2.526
-2.34197
-2.44311
-2.05093
-2.21
-1.67149
-1.86877
-1.25768
-1.46636
-1.10576
-1.0528
-1.08577
-1.09719
-1.11025
-1.03422
-1.07225
-0.938423
-0.987935
-0.847663
-0.8904
-0.788751
-0.813175
-0.775528
-0.775878
-0.817122
-0.788937
-0.923737
-0.861569
-1.10936
-1.00572
-1.38811
-1.23659
-1.76167
-1.56381
-2.20651
-1.97809
-2.65689
-2.43729
-2.99641
-2.84872
-3.10715
-3.08559
-2.97415
-3.07317
-2.62399
-2.81974
-2.16849
-2.4014
-1.72998
-1.94086
-1.37976
-1.54247
-1.12514
-1.24115
-0.955398
-1.03058
-0.854235
-0.896806
-0.814941
-0.827358
-0.955046
-0.814873
-1.48709
-1.1953
-1.42332
-2.29895
-2.17274
-1.20112
-1.01116
-1.47866
-1.38856
-1.43284
-1.29197
-1.19299
-1.08942
-0.976008
-0.827486
-1.50832
-1.01552
-1.28252
-1.15511
-1.07361
-0.939804
-0.973672
-0.926899
-0.921626
-1.01576
-0.959705
-1.16528
-1.08626
-1.35392
-1.2531
-1.58871
-1.46794
-1.81511
-1.70727
-1.96604
-1.90389
-1.99113
-1.99509
-1.88363
-1.95244
-1.68421
-1.79141
-1.45882
-1.57064
-1.26517
-1.35539
-1.13529
-1.19134
-1.07841
-1.09765
-1.09567
-1.07773
-1.18983
-1.13286
-1.36526
-1.26731
-1.61838
-1.48304
-1.92234
-1.76706
-2.21476
-2.07503
-2.41233
-2.33042
-2.44428
-2.45221
-2.39198
-2.33249
-2.15623
-2.26422
-2.34636
-2.36054
-2.20603
-2.29319
-1.94346
-2.08851
-1.59015
-1.77472
-1.39732
-0.894764
-0.858332
-0.880817
-0.88691
-0.897569
-0.832938
-0.864442
-0.75704
-0.795872
-0.687875
-0.72006
-0.645924
-0.662694
-0.642476
-0.638858
-0.68636
-0.65798
-0.7871
-0.728975
-0.956715
-0.862513
-1.20643
-1.07122
-1.53611
-1.36204
-1.92489
-1.72554
-2.31754
-2.12608
-2.61425
-2.48499
-2.71263
-2.69273
-2.59678
-2.68265
-2.29289
-2.46278
-1.89758
-2.1001
-1.51181
-1.69812
-1.20174
-1.34557
-0.977603
-1.07968
-0.823857
-0.893102
-0.725084
-0.767906
-0.678301
-0.695873
-0.676762
-0.672405
-1.48103
-1.38968
-0.850645
-0.691661
-1.46325
-2.02408
-0.826785
-1.26408
-1.45478
-1.39964
-1.45536
-1.38723
-1.51123
-1.30827
-1.22068
-1.12278
-1.01102
-0.885137
-0.713791
-1.48072
-1.01212
-1.40163
-1.23771
-1.11199
-0.887833
-0.939458
-0.820682
-0.849694
-0.803165
-0.804058
-0.861285
-0.82249
-0.978545
-0.915108
-1.12868
-1.04923
-1.31195
-1.21757
-1.49029
-1.40517
-1.61017
-1.56065
-1.63151
-1.63395
-1.54809
-1.60173
-1.39175
-1.47585
-1.21521
-1.30269
-1.06527
-1.13476
-0.968657
-1.00946
-0.934498
-0.9436
-0.965521
-0.941725
-1.06528
-1.00652
-1.23823
-1.1425
-1.4811
-1.35186
-1.76786
-1.6219
-2.04025
-1.91045
-2.22234
-2.14715
-2.25248
-2.25865
-2.116
-2.20262
-1.86396
-2.00123
-1.98884
-1.71423
-1.8637
-2.15428
-2.08701
-2.17698
-2.18396
-2.06034
-2.13501
-1.82383
-1.95548
-1.50031
-1.66987
-1.14066
-1.32175
-0.788877
-0.961503
-0.674179
-0.623213
-0.651653
-0.701889
-0.69159
-0.690938
-0.70074
-0.647654
-0.672612
-0.58942
-0.618933
-0.538592
-0.56194
-0.510487
-0.521064
-0.514535
-0.508
-0.558997
-0.531228
-0.652419
-0.59903
-0.804921
-0.720659
-1.02486
-0.906297
-1.31007
-1.16006
-1.64221
-1.47225
-1.97636
-1.81343
-2.22987
-2.11912
-2.31601
-2.29786
-2.217
-2.28988
-1.95911
-2.10353
-1.62352
-1.79548
-1.29254
-1.45326
-1.02069
-1.14722
-0.823705
-0.913305
-0.687865
-0.749424
-0.596755
-0.637259
-0.544465
-0.56593
-0.529873
-0.532688
-0.549753
-0.536229
-1.62176
-1.52367
-0.744306
-0.569711
-1.47867
-1.45624
-1.39038
-1.56925
-1.54263
-1.51178
-1.41018
-1.68376
-1.54836
-0.747627
-0.593446
-1.62747
-1.34688
-1.26871
-1.17421
-1.06162
-0.929861
-1.57111
-1.37058
-1.55857
-0.783885
-0.595999
-1.78458
-1.48597
-1.0712
-1.20891
-0.866931
-0.95611
-0.754679
-0.802435
-0.693704
-0.718485
-0.677101
-0.67994
-0.713347
-0.687697
-0.80111
-0.75247
-0.91746
-0.856222
-1.05681
-0.985101
-1.19325
-1.12796
-1.28585
-1.24746
-1.30305
-1.30469
-1.23975
-1.28056
-1.12031
-1.18459
-0.98577
-1.05231
-0.873357
-0.925052
-0.805071
-0.832946
-0.789615
-0.790512
-0.830726
-0.802887
-0.932799
-0.873826
-1.10036
-1.00832
-1.32958
-1.20819
-1.59548
-1.46063
-1.8451
-1.72655
-2.01026
-1.94221
-2.0377
-2.04313
-1.91327
-1.99333
-1.80795
-1.82033
-1.56198
-1.70317
-1.97564
-1.91163
-2.00881
-2.00856
-1.91205
-1.97621
-1.70047
-1.81881
-1.40792
-1.56167
-1.07849
-1.24475
-0.911259
-0.506031
-0.470521
-0.48939
-0.525032
-0.519468
-0.51458
-0.523276
-0.480635
-0.499799
-0.437569
-0.459126
-0.401786
-0.417928
-0.384574
-0.390354
-0.393922
-0.38546
-0.437518
-0.411002
-0.522759
-0.47447
-0.657871
-0.583595
-0.848714
-0.746319
-1.09121
-0.96427
-1.36897
-1.22726
-1.64663
-1.51128
-1.85802
-1.76542
-1.93216
-1.91561
-1.84946
-1.91017
-1.63537
-1.75546
-1.35556
-1.49891
-1.07831
-1.2133
-0.845105
-0.954595
-0.671943
-0.751076
-0.551707
-0.606199
-0.469718
-0.506695
-0.416409
-0.439711
-0.391009
-0.400033
-0.393986
-0.389061
-0.423916
-0.406836
-1.77067
-0.627458
-0.828061
-0.660541
-0.468465
-0.445519
-1.79449
-1.67919
-1.52261
-1.48539
-1.41204
-0.45039
-1.71975
-1.59782
-1.45908
-1.78007
-1.40938
-1.33848
-1.24557
-1.12818
-0.987439
-1.76884
-1.48804
-1.68609
-0.298998
-0.317535
-0.4941
-2.00055
-2.02344
-2.0109
-0.879003
-0.694019
-1.52181
-1.15477
-1.30976
-0.900234
-1.01669
-0.727911
-0.804764
-0.624777
-0.668982
-0.569516
-0.59231
-0.550662
-0.555565
-0.572286
-0.555884
-0.6356
-0.599643
-0.72359
-0.677356
-0.827083
-0.773986
-0.92828
-0.879769
-0.997542
-0.968727
-1.01071
-1.01187
-0.963634
-0.994013
-0.874609
-0.922517
-0.774861
-0.824064
-0.693398
-0.730449
-0.648128
-0.66558
-0.647206
-0.641848
-0.69521
-0.664814
-0.79711
-0.739125
-0.956744
-0.8697
-1.16958
-1.05741
-1.41237
-1.28968
-1.63768
-1.53095
-1.78535
-1.72461
-1.80948
-1.81452
-1.70006
-1.77017
-1.49476
-1.60498
-1.25298
-1.37415
-1.41974
-1.136
-1.28042
-1.65916
-1.54818
-1.80766
-1.7455
-1.84826
-1.84285
-1.76788
-1.82286
-1.58071
-1.68589
-1.31794
-1.45651
-1.01619
-1.16962
-0.7096
-0.861475
-0.429997
-0.565902
-0.331913
-0.306585
-0.319278
-0.356582
-0.344468
-0.367605
-0.364322
-0.358325
-0.365446
-0.332732
-0.346923
-0.302156
-0.317248
-0.278292
-0.288793
-0.269338
-0.271532
-0.282236
-0.272616
-0.323913
-0.299102
-0.400577
-0.357492
-0.518788
-0.454129
-0.682249
-0.594975
-0.885397
-0.779638
-1.11329
-0.997513
-1.33873
-1.22893
-1.51068
-1.43521
-1.57258
-1.55805
-1.5055
-1.55488
-1.33152
-1.42916
-1.10215
-1.21985
-0.873604
-0.985012
-0.678636
-0.770919
-0.5285
-0.597847
-0.42105
-0.469973
-0.346251
-0.38029
-0.294365
-0.317787
-0.262564
-0.275888
-0.251908
-0.254417
-0.265523
-0.255723
-0.280619
-1.99096
-1.86084
-0.513625
-0.333162
-1.59426
-1.54363
-1.93077
-1.72054
-1.53573
-1.09165
-0.988771
-0.414641
-0.295294
-1.96776
-1.49763
-1.43157
-1.33658
-1.21085
-1.05639
-1.88095
-1.54853
-1.68734
-2.05033
-2.22409
-2.28121
-2.2804
-0.932465
-0.729983
-0.344921
-0.531785
-1.58728
-1.22492
-1.38469
-0.951807
-1.08129
-0.737537
-0.836222
-0.591896
-0.657141
-0.50143
-0.540551
-0.450961
-0.472113
-0.430972
-0.437343
-0.441367
-0.432069
-0.484433
-0.459222
-0.548724
-0.514823
-0.623684
-0.585369
-0.696485
-0.661586
-0.746518
-0.725651
-0.756064
-0.756957
-0.721698
-0.743862
-0.656874
-0.691729
-0.584905
-0.62026
-0.528024
-0.553477
-0.500724
-0.510099
-0.510649
-0.500719
-0.562893
-0.531182
-0.662354
-0.60647
-0.811911
-0.730908
-1.00668
-0.904522
-1.22527
-1.11518
-1.42568
-1.33094
-1.55593
-1.50258
-1.57725
-1.58157
-1.48235
-1.54305
-1.30277
-1.40008
-1.19806
-1.28878
-1.02487
-1.16088
-1.51026
-1.40695
-1.65497
-1.59374
-1.69994
-1.69118
-1.63409
-1.68049
-1.4704
-1.563
-1.23492
-1.35974
-0.960251
-1.10033
-0.677015
-0.817695
-0.542354
-0.208159
-0.193731
-0.200143
-0.224194
-0.216889
-0.230015
-0.228735
-0.222121
-0.227725
-0.203723
-0.213747
-0.183133
-0.193129
-0.16837
-0.174622
-0.165404
-0.165054
-0.180398
-0.170254
-0.219421
-0.196597
-0.287495
-0.249522
-0.389804
-0.334105
-0.528424
-0.45478
-0.696651
-0.609625
-0.880562
-0.78767
-1.05966
-0.972593
-1.19619
-1.13619
-1.24624
-1.23408
-1.19294
-1.23228
-1.054
-1.13189
-0.869549
-0.964521
-0.683378
-0.774407
-0.523048
-0.599237
-0.395633
-0.455205
-0.299809
-0.344027
-0.229972
-0.26213
-0.179161
-0.2025
-0.144134
-0.159704
-0.125433
-0.132578
-0.12573
-0.123033
-0.147806
-0.133765
-0.175418
-0.162719
-0.351072
-0.191216
-0.185037
-2.2301
-2.09458
-1.70005
-1.63241
-0.890621
-0.187428
-2.18257
-1.88411
-1.64159
-2.19417
-1.61323
-1.54799
-1.44542
-1.30483
-1.12997
-1.77252
-1.42551
-1.43877
-0.0542109
-0.0565282
-0.190803
-1.79944
-2.15648
-2.40077
-2.53272
-2.56367
-0.98071
-0.757205
-0.542918
-0.350885
-1.68465
-1.24435
-1.3571
-0.971352
-1.10384
-0.749439
-0.854786
-0.580449
-0.658051
-0.462649
-0.51579
-0.384188
-0.419221
-0.337616
-0.357154
-0.317663
-0.324712
-0.320915
-0.316294
-0.348618
-0.331869
-0.393701
-0.369738
-0.446379
-0.419544
-0.49703
-0.472791
-0.531739
-0.517248
-0.538178
-0.53895
-0.513537
-0.529385
-0.46742
-0.492176
-0.416942
-0.441587
-0.378971
-0.395528
-0.365248
-0.36857
-0.382849
-0.369808
-0.436914
-0.40504
-0.5319
-0.47908
-0.669915
-0.595614
-0.845818
-0.753971
-1.04002
-0.94255
-1.21594
-1.13303
-1.32973
-1.28317
-1.34842
-1.35204
-1.26743
-1.31927
-1.11549
-1.19743
-0.933975
-1.02633
-0.759406
-0.844215
-0.925986
-0.679067
-0.800144
-1.17264
-1.05222
-1.37934
-1.28243
-1.51932
-1.45951
-1.56753
-1.5559
-1.51561
-1.55376
-1.37367
-1.45476
-1.16275
-1.27518
-0.912453
-1.0405
-0.651498
-0.78173
-0.402311
-0.523965
-0.184913
-0.288752
-0.092405
-0.0913935
-0.0908277
-0.0999716
-0.0957034
-0.109399
-0.105492
-0.111547
-0.111462
-0.105171
-0.109375
-0.0926978
-0.0993475
-0.0798221
-0.0859375
-0.0717219
-0.0749052
-0.0728915
-0.0708268
-0.0888701
-0.0786781
-0.124766
-0.104084
-0.184544
-0.151426
-0.272268
-0.224722
-0.388884
-0.327215
-0.527161
-0.456104
-0.673814
-0.600312
-0.813299
-0.745735
-0.919085
-0.872563
-0.958284
-0.948584
-0.916427
-0.947304
-0.806954
-0.868315
-0.660971
-0.736378
-0.511166
-0.584797
-0.380004
-0.442521
-0.273423
-0.323741
-0.189088
-0.228682
-0.123515
-0.154206
-0.073151
-0.0966013
-0.0361597
-0.053
-0.0131193
-0.0227807
-0.00595929
-0.00740392
-0.0170749
-0.0091311
-0.0378848
-0.0274283
-0.0479124
-2.50357
-2.36448
-0.184525
-0.0534385
-1.84467
-1.753
-2.46678
-2.0895
-1.77894
-0.631807
-0.562304
-0.187073
-0.0968037
-2.45958
-1.75613
-1.68549
-1.56739
-1.40344
-1.20246
-1.40435
-1.07661
-1.01866
-1.33283
-1.76105
-2.18074
-2.51559
-2.73968
-2.83063
-1.01674
-0.771687
-0.542615
-0.342879
-0.0468014
-0.174285
-1.81683
-1.10356
-1.11032
-0.961856
-1.05266
-0.746311
-0.852507
-0.573798
-0.654386
-0.439999
-0.502403
-0.341976
-0.386674
-0.275736
-0.30524
-0.234947
-0.252611
-0.213809
-0.222119
-0.210838
-0.209993
-0.226945
-0.216576
-0.257404
-0.240989
-0.293455
-0.275161
-0.327561
-0.311323
-0.350519
-0.341003
-0.354395
-0.355164
-0.337087
-0.348168
-0.30512
-0.322234
-0.270855
-0.287432
-0.247026
-0.256955
-0.243181
-0.242159
-0.265714
-0.250839
-0.319498
-0.288437
-0.408499
-0.359422
-0.534146
-0.466874
-0.691066
-0.60947
-0.861553
-0.77629
-1.01428
-0.942501
-1.11262
-1.0723
-1.12925
-1.13202
-1.06183
-1.10502
-0.935434
-1.0038
-0.782275
-0.860734
-0.70538
-0.840304
-0.606046
-0.722909
-1.0723
-0.958527
-1.26736
-1.17576
-1.40204
-1.34392
-1.45397
-1.43918
-1.41557
-1.44593
-1.29299
-1.36395
-1.10357
-1.20516
-0.873952
-0.991888
-0.631538
-0.752986
-0.396003
-0.511576
-0.287375
-0.00427016
-0.00984391
-0.00542
-0.00689471
-0.00500283
-0.0107301
-0.00905551
-0.0108459
-0.0113933
-0.00606964
-0.00901743
0.00169709
-0.00233681
0.00887176
0.0055722
0.0123314
0.0112523
0.00846759
0.0116104
-0.00767015
0.00222695
-0.0401946
-0.0217038
-0.0921574
-0.0635479
-0.166779
-0.1265
-0.264295
-0.212938
-0.377475
-0.319692
-0.493642
-0.435962
-0.600624
-0.549121
-0.680712
-0.645536
-0.710147
-0.702952
-0.677626
-0.701513
-0.592363
-0.640284
-0.477883
-0.53711
-0.358579
-0.417586
-0.251207
-0.302727
-0.161974
-0.204385
-0.0885124
-0.123513
-0.027636
-0.0566302
0.0219845
-0.00143605
0.0601624
0.0425633
0.0855968
0.0745808
0.0965375
0.092991
0.0921528
0.0961252
0.0785469
0.0858796
0.0648955
0.0710408
0.0600101
0.0603987
-0.0434691
0.0582991
0.0601708
-2.80161
-2.6692
-2.03169
-1.909
-0.498099
-0.0153706
-2.76765
-2.33967
-1.9477
-2.75766
-1.9239
-1.83863
-1.69467
-1.49876
-1.26566
-0.930353
-0.666989
-0.572194
0.143757
0.134342
0.0529535
-0.823561
-1.22704
-1.67347
-2.1286
-2.5436
-2.86888
-3.0489
-1.03522
-0.770619
-0.531755
-0.328137
-0.166245
-0.0438991
-1.98851
-0.809455
-0.747063
-0.821888
-0.832488
-0.708965
-0.779984
-0.54658
-0.626671
-0.411677
-0.474728
-0.307685
-0.356222
-0.230193
-0.265799
-0.175516
-0.200324
-0.139598
-0.155346
-0.119987
-0.127976
-0.113796
-0.115282
-0.1211
-0.115731
-0.13981
-0.129429
-0.163173
-0.151307
-0.185095
-0.174697
-0.199323
-0.193494
-0.201234
-0.202029
-0.189279
-0.196846
-0.167808
-0.179252
-0.14553
-0.156152
-0.132017
-0.137141
-0.135033
-0.131072
-0.160256
-0.14458
-0.21217
-0.182637
-0.294219
-0.249296
-0.407172
-0.346996
-0.54558
-0.473904
-0.693701
-0.619878
-0.824999
-0.763396
-0.909184
-0.874618
-0.924584
-0.926143
-0.869999
-0.905077
-0.766339
-0.822573
-0.640461
-0.704801
-0.512506
-0.575279
-0.397252
-0.452914
-0.545941
-0.346814
-0.442845
-0.76803
-0.655466
-0.987324
-0.880043
-1.1731
-1.08565
-1.30416
-1.24689
-1.36108
-1.34267
-1.33533
-1.35863
-1.22952
-1.29177
-1.05842
-1.1508
-0.845983
-0.955636
-0.618212
-0.732621
-0.395952
-0.505347
-0.193803
-0.291129
-0.02451
-0.104908
0.0630518
0.0462195
0.055836
0.0710027
0.0678571
0.0728637
0.072253
0.0726373
0.0726732
0.0737081
0.0728618
0.0769279
0.0750771
0.0810986
0.0790086
0.0843004
0.0829162
0.0847299
0.0850048
0.0792444
0.0829918
0.0635327
0.0729015
0.0344655
0.0507957
-0.0102963
0.0142081
-0.0733178
-0.0394245
-0.154518
-0.11189
-0.247143
-0.200125
-0.33908
-0.29393
-0.420196
-0.381519
-0.479566
-0.453564
-0.500818
-0.495843
-0.475408
-0.493849
-0.409471
-0.446587
-0.320155
-0.36651
-0.225529
-0.272586
-0.137588
-0.180234
-0.0618545
-0.0981188
0.00242494
-0.0284945
0.0582113
0.0312703
0.106096
0.0832105
0.144453
0.126607
0.171022
0.159343
0.183927
0.179259
0.183397
0.185122
0.174715
0.179648
0.16495
0.169505
0.157067
0.160862
0.150923
-3.10331
-2.98957
0.0438973
0.123419
-2.26423
-2.10128
-3.05435
-2.63149
-2.14546
-0.302529
-0.257176
-0.0370195
0.0334739
-3.07412
-2.11
-1.99768
-1.81674
-1.58069
-1.31155
-0.471941
-0.280037
-0.197559
-0.376081
-0.704673
-1.09576
-1.54072
-2.01751
-2.49131
-2.90426
-3.18359
-1.03264
-0.754629
-0.51193
-0.312687
-0.161171
-0.0497603
0.111012
0.0330566
-2.20193
-0.448198
-0.360709
-0.583615
-0.52998
-0.5754
-0.594244
-0.486082
-0.538355
-0.371067
-0.428056
-0.271184
-0.318396
-0.191828
-0.229164
-0.130609
-0.159021
-0.08591
-0.106356
-0.0550954
-0.068927
-0.0359133
-0.0441764
-0.0268749
-0.0301601
-0.0280766
-0.0261631
-0.0384022
-0.0323598
-0.0527761
-0.0454454
-0.0660718
-0.0598148
-0.0741552
-0.0710195
-0.0747106
-0.0755073
-0.0666513
-0.071685
-0.0527903
-0.0601132
-0.0392351
-0.045529
-0.0330991
-0.0348182
-0.0406602
-0.0348361
-0.0668993
-0.051182
-0.115855
-0.0883268
-0.190418
-0.149845
-0.290789
-0.237552
-0.411626
-0.349301
-0.539128
-0.475776
-0.651122
-0.598642
-0.722882
-0.69337
-0.737569
-0.737809
-0.694896
-0.7226
-0.611817
-0.656992
-0.509505
-0.561989
-0.402178
-0.455589
-0.350757
-0.496482
-0.302061
-0.397268
-0.70792
-0.600509
-0.916546
-0.814423
-1.0958
-1.01104
-1.22614
-1.16836
-1.28928
-1.26694
-1.27501
-1.29208
-1.18351
-1.23837
-1.02778
-1.11246
-0.829402
-0.932337
-0.613152
-0.72207
-0.40078
-0.505472
-0.204794
-0.299878
-0.116771
0.125515
0.107823
0.117875
0.135333
0.130826
0.140024
0.138163
0.142138
0.14119
0.143801
0.142915
0.145743
0.144755
0.147282
0.146584
0.147926
0.147751
0.146529
0.147611
0.140186
0.144211
0.12529
0.133976
0.0996249
0.113894
0.0613823
0.0822058
0.00854223
0.0368606
-0.0587379
-0.0234953
-0.134666
-0.0962625
-0.208003
-0.172378
-0.269374
-0.240554
-0.312423
-0.293702
-0.32694
-0.323925
-0.306532
-0.320925
-0.255744
-0.284381
-0.185904
-0.222313
-0.110486
-0.148182
-0.0383401
-0.073692
0.0267002
-0.00480948
0.0838842
0.0561929
0.134814
0.110038
0.17993
0.15818
0.217204
0.199728
0.243775
0.231987
0.257613
0.252335
0.259503
0.259815
0.254264
0.257422
0.246637
0.250554
0.236043
0.242132
0.216588
0.227193
0.191123
0.203821
0.0950185
0.161315
0.177171
-3.38236
-3.29853
-2.53953
-2.32743
-0.217078
0.0948613
-3.29478
-2.95421
-2.36484
-3.38979
-2.3025
-2.14931
-1.92084
-1.63931
-1.33383
-0.120965
0.0103336
0.0752117
-0.0545988
-0.282354
-0.578232
-0.949107
-1.38063
-1.8669
-2.37403
-2.85378
-3.22602
-1.00942
-0.725787
-0.487464
-0.301331
-0.162268
-0.0596137
0.0180368
0.219344
0.14329
0.202371
-2.45439
-0.126883
-0.0512491
-0.276156
-0.205253
-0.374778
-0.338013
-0.362006
-0.379319
-0.299636
-0.334238
-0.220359
-0.260568
-0.146787
-0.181891
-0.0874853
-0.115415
-0.0407659
-0.0626763
-0.00508739
-0.0216257
0.0208206
0.00901556
0.0380397
0.0304263
0.0480498
0.0438752
0.0512117
0.0505386
0.0474627
0.0500797
0.0398631
0.0438676
0.0326818
0.0360028
0.0288232
0.0302114
0.0290219
0.0282915
0.0343114
0.0310879
0.0427157
0.0383516
0.0499935
0.046813
0.0509264
0.0515791
0.0404967
0.0474123
0.0143948
0.0296401
-0.030932
-0.00568706
-0.097846
-0.0616324
-0.186118
-0.139491
-0.290673
-0.236943
-0.399611
-0.345623
-0.494569
-0.450115
-0.555766
-0.53045
-0.570273
-0.56916
-0.538339
-0.559487
-0.473271
-0.508869
-0.390828
-0.433424
-0.30116
-0.346376
-0.215796
-0.257634
-0.141048
-0.175939
-0.266694
-0.109872
-0.184033
-0.455513
-0.358073
-0.659008
-0.556412
-0.859315
-0.760869
-1.03534
-0.951546
-1.16782
-1.10829
-1.238
-1.21162
-1.23406
-1.24566
-1.15482
-1.20338
-1.01178
-1.09017
-0.824644
-0.922258
-0.617026
-0.72197
-0.410858
-0.512625
-0.219936
-0.313074
-0.0533438
-0.132848
0.0802076
0.0170875
0.160243
0.134376
0.148405
0.177974
0.170136
0.18935
0.184382
0.195931
0.19314
0.199448
0.197951
0.201302
0.20051
0.202201
0.201867
0.202071
0.20224
0.201229
0.201737
0.198836
0.200362
0.192154
0.196232
0.178355
0.186254
0.155946
0.168293
0.123517
0.141087
0.0794931
0.103009
0.023994
0.0530224
-0.0383168
-0.00684851
-0.0974848
-0.0689833
-0.144422
-0.12281
-0.175021
-0.16198
-0.183976
-0.1826
-0.167431
-0.178781
-0.127735
-0.150126
-0.0726864
-0.101503
-0.0117865
-0.0424331
0.0480792
0.0185214
0.104222
0.0766838
0.155734
0.130585
0.202491
0.17969
0.24431
0.224087
0.279373
0.262858
0.30486
0.293477
0.318879
0.313322
0.322583
0.321796
0.319884
0.3218
0.312691
0.316909
0.29886
0.306799
0.27707
0.288793
0.250363
0.264023
0.23527
-3.60392
-3.55042
0.0767318
-2.84888
-2.57953
-3.4587
-3.28653
-2.59161
-0.0709011
-0.0427646
0.0622936
0.117978
-3.68072
-2.4852
-2.27756
-1.99434
-1.66633
-1.32889
0.133977
0.22631
0.276582
0.12492
0.18418
0.192295
0.0210168
-0.197381
-0.463368
-0.799503
-1.20842
-1.68366
-2.20327
-2.72544
-3.18005
-0.968694
-0.689133
-0.464776
-0.294921
-0.169015
-0.0741502
-0.000949799
-2.73768
0.116412
0.174242
-0.0101409
0.0557087
-0.126671
-0.0744013
-0.187686
-0.164878
-0.183908
-0.193044
-0.142787
-0.165789
-0.0905418
-0.117088
-0.0405714
-0.0647266
0.00194074
-0.0183726
0.0372079
0.0204591
0.0654221
0.0521774
0.0870964
0.0770299
0.102853
0.0956759
0.113457
0.108751
0.119296
0.116993
0.120038
0.120269
0.117262
0.118905
0.114183
0.115544
0.113499
0.113447
0.113641
0.113095
0.116907
0.114979
0.121415
0.119166
0.124204
0.123247
0.1215
0.123787
0.109348
0.116838
0.0840994
0.0985658
0.0426995
0.0655672
-0.0167451
0.0152658
-0.0937106
-0.0532151
-0.183541
-0.137526
-0.276091
-0.230334
-0.356338
-0.318765
-0.408731
-0.386834
-0.423552
-0.421077
-0.400914
-0.416415
-0.351013
-0.378625
-0.284766
-0.319407
-0.210602
-0.24812
-0.136951
-0.173408
-0.102406
-0.238817
-0.082888
-0.15773
-0.422273
-0.32724
-0.619819
-0.520435
-0.815426
-0.718807
-0.991679
-0.907177
-1.12856
-1.06637
-1.20623
-1.17579
-1.2118
-1.21845
-1.14322
-1.18638
-1.0105
-1.08386
-0.831887
-0.92554
-0.630148
-0.732509
-0.427211
-0.527576
-0.23934
-0.330886
-0.0736609
-0.15284
-0.00127074
0.204859
0.180653
0.193862
0.222099
0.214014
0.234313
0.228862
0.241942
0.238632
0.246191
0.24442
0.248051
0.247381
0.248086
0.248247
0.247138
0.247705
0.245627
0.246455
0.242744
0.244485
0.236057
0.240037
0.223523
0.230589
0.204155
0.214745
0.176856
0.191575
0.140449
0.159831
0.0949608
0.118733
0.0438392
0.0696825
-0.00458124
0.0186542
-0.0413873
-0.0247933
-0.0628424
-0.0541158
-0.0674179
-0.0673133
-0.0534489
-0.0628136
-0.0218435
-0.039589
0.0222166
-0.000948347
0.0721297
0.046813
0.122791
0.0975979
0.171676
0.147501
0.218144
0.195256
0.261261
0.240195
0.299781
0.281185
0.33195
0.316797
0.355548
0.344943
0.369351
0.363656
0.374586
0.372881
0.373292
0.374706
0.365109
0.370183
0.348872
0.357953
0.326495
0.338256
0.30013
0.313801
0.269704
0.285298
0.236377
0.253469
0.194501
0.165492
0.216869
-3.75349
-3.71741
0.0580656
-3.17219
-2.84113
-0.0180216
0.165561
-3.52444
0.107261
-3.59781
-2.80647
0.148273
-3.92244
-2.63842
-2.36681
-2.02691
-1.65783
-1.29661
0.322096
0.248473
0.090193
-0.112416
-0.354494
-0.656647
-1.03182
-1.48151
-1.99553
-2.53764
-3.05647
-0.916774
-0.651905
-0.447462
-0.295019
-0.180301
-0.0916148
-0.0203656
-3.03339
0.379587
0.363215
0.456985
0.415638
0.299265
0.342906
0.197189
0.251692
0.0939894
0.144383
0.0115531
0.0480852
-0.0314678
-0.0148493
-0.0362836
-0.0384955
-0.0141388
-0.0271677
0.0171713
0.000962031
0.0499589
0.0337281
0.0798961
0.0654125
0.105788
0.0933572
0.127504
0.11717
0.14511
0.136804
0.158836
0.152441
0.16917
0.164381
0.176544
0.173231
0.180511
0.178988
0.181322
0.181218
0.18098
0.181132
0.182971
0.181329
0.182304
0.181968
0.184134
0.183127
0.185867
0.185125
0.185458
0.186084
0.180217
0.183627
0.167084
0.174827
0.143049
0.156602
0.10555
0.126105
0.0531051
0.0812121
-0.0136047
0.0213663
-0.0904029
-0.051176
-0.168744
-0.130089
-0.236603
-0.204784
-0.281726
-0.262599
-0.297001
-0.293333
-0.282157
-0.292942
-0.244559
-0.265725
-0.191354
-0.219535
-0.129316
-0.161024
-0.066322
-0.0974651
-0.00863322
-0.0365091
0.0386954
0.0165227
-0.0621057
0.0580001
0.00212808
-0.216414
-0.13549