/*--------------------------------*- C++ -*----------------------------------*\
  =========                 |
  \\      /  F ield         | OpenFOAM: The Open Source CFD Toolbox
   \\    /   O peration     | Website:  https://openfoam.org
    \\  /    A nd           | Version:  10
     \\/     M anipulation  |
\*---------------------------------------------------------------------------*/
FoamFile
{
    format      ascii;
    class       volScalarField;
    location    "1";
    object      p;
}
// * * * * * * * * * * * * * * * * * * * * * * * * * * * * * * * * * * * * * //

dimensions      [0 2 -2 0 0 0 0];

internalField   nonuniform List<scalar> 
25879
(
0.166213
0.168535
0.168187
0.16611
0.10155
0.100525
0.0417397
0.0466716
0.0650301
0.0644433
-0.0271703
0.0016753
-0.0663128
-0.209283
-0.088558
0.251622
0.152739
-0.117839
-0.281665
0.799768
0.786608
0.243218
0.370527
0.235797
0.236888
0.242423
0.240378
0.231163
0.234947
0.23136
0.230568
-0.362917
-0.40854
-0.287815
0.116872
0.120296
0.121107
0.123288
0.122564
-0.250895
-0.208512
-0.121665
0.371688
0.386418
0.392494
-0.0984645
-0.104453
-0.496951
-0.460758
-0.540641
0.0546434
0.104344
-0.99421
-0.757987
0.00464718
0.00415145
0.00555554
0.531582
0.542171
0.505502
0.489148
0.448852
0.449596
0.00236715
0.0031745
0.00422967
-0.735881
-0.713561
-0.48091
-0.122158
-0.185593
0.28818
0.291586
0.29598
0.377952
0.520784
0.445787
0.173503
0.174119
0.171413
0.403673
0.387605
0.850411
0.788223
0.778183
0.291822
0.300189
0.287759
0.149861
0.153049
-0.0144573
0.0233605
-0.0932748
0.227368
0.22691
0.103213
0.102883
0.101569
0.118949
0.118131
0.118529
0.11758
0.150796
0.148609
0.146467
0.263763
0.261574
0.0734416
0.125316
0.121912
0.122663
0.124252
0.124675
0.0233465
0.0232451
0.257232
0.244843
-0.00100245
0.0453166
0.0881765
0.0975008
-0.112265
-0.0918356
-0.155063
-0.137693
-0.0015512
-0.0107831
0.0795131
0.0810973
-0.0364771
-0.0432834
-0.168787
0.521743
0.503922
0.493797
0.506821
0.169236
0.171543
0.0531619
0.00720289
0.0608489
0.0608223
0.0616107
0.0623484
0.0633046
0.0642618
0.065215
0.0661682
0.0671131
0.0680431
0.0689703
0.069898
0.0708246
0.0717515
0.0726795
0.073606
0.0745354
0.0754634
0.0763948
0.0773251
0.0782584
0.0791916
0.080126
0.0810606
0.0820025
0.0829458
0.0838589
0.0847942
0.0857359
0.0866857
0.0876384
0.0886009
0.0895022
0.0904054
0.0912984
0.0922312
0.0932763
0.0911763
0.0921568
0.0923725
0.0609505
0.0600228
0.060011
0.093265
0.0905914
0.0914742
0.088759
0.0896881
0.0868655
0.0878207
0.0849591
0.0859072
0.0830835
0.0840159
0.08121
0.0821478
0.0793387
0.0802763
0.0774668
0.0783974
0.0756018
0.0765369
0.0737359
0.0746708
0.0718729
0.0728049
0.070014
0.0709446
0.0681547
0.069085
0.0662914
0.0672263
0.0644332
0.0653689
0.0626579
0.0635168
0.0618332
0.0631445
0.060962
0.0620833
0.0650397
0.0641145
0.0668225
0.0659319
0.0686557
0.0677295
0.0705089
0.0695758
0.0723682
0.071431
0.074231
0.0732916
0.0760956
0.0751556
0.0779598
0.0770205
0.0798235
0.0788856
0.0816805
0.0807474
0.0835632
0.0826032
0.0854252
0.0844911
0.0873119
0.0863532
0.0892487
0.0882516
0.0902136
0.0600026
0.0590987
0.0591137
0.094246
0.0943114
0.0943163
0.0952411
0.0952732
0.0931736
0.0911017
0.0920736
0.0610258
0.0600066
0.06005
0.0591124
0.0590869
0.0925414
0.0934139
0.0907246
0.0916497
0.0888868
0.0897994
0.0870105
0.087963
0.0851021
0.0860516
0.0832335
0.0841737
0.0813594
0.0822952
0.0794935
0.0804253
0.0776311
0.0785686
0.0757658
0.076697
0.0739064
0.0748354
0.072049
0.0729782
0.0701891
0.0711184
0.0683216
0.0692562
0.0664366
0.0673818
0.0645624
0.0654911
0.0628008
0.0636691
0.0609775
0.0619116
0.0591127
0.0600326
0.0629907
0.0620184
0.0649093
0.0639551
0.066741
0.0658319
0.0685824
0.0676643
0.0704307
0.0695097
0.0722836
0.0713599
0.0741398
0.0732142
0.076
0.0750725
0.0778651
0.0769354
0.0797352
0.0788037
0.081605
0.0806735
0.0834811
0.0825445
0.0853376
0.0844134
0.0872158
0.086277
0.0891115
0.0881615
0.0900921
0.0942734
0.05912
0.0952173
0.0581936
0.0591077
0.0581889
0.0961788
0.096231
0.0930421
0.0940912
0.0942114
0.0581833
0.0581971
0.0582014
0.0581832
0.094431
0.0962928
0.0953578
0.0926241
0.0935248
0.0907757
0.0917079
0.0888952
0.0898333
0.0870101
0.0879562
0.0851122
0.0860597
0.0832361
0.0841733
0.0813618
0.0822991
0.0794902
0.0804246
0.0776253
0.0785585
0.0757608
0.0766929
0.0738977
0.0748292
0.0720359
0.0729667
0.0701749
0.0711051
0.0683126
0.0692438
0.0664501
0.0673816
0.0646061
0.0655254
0.062815
0.0637124
0.0609679
0.0619083
0.0600321
0.0610496
0.0591651
0.0600821
0.0629429
0.0620138
0.0648089
0.0638754
0.0666598
0.0657342
0.068507
0.0675827
0.0703587
0.0694329
0.0722141
0.0712862
0.0740725
0.0731429
0.0759338
0.0750027
0.0777983
0.0768656
0.0796651
0.0787317
0.0815319
0.0805978
0.0834052
0.0824687
0.0852629
0.0843338
0.0871607
0.0862074
0.0890354
0.0880978
0.0910019
0.0900061
0.0929714
0.0919721
0.0971529
0.0972261
0.0582109
0.095176
0.057288
0.0572653
0.0961564
0.097122
0.0939862
0.0951284
0.0592067
0.0980996
0.0981513
0.0582315
0.0582677
0.0950255
0.0951718
0.0572981
0.0573078
0.0573019
0.0573018
0.057284
0.0572854
0.0963481
0.0982174
0.0972781
0.0944948
0.0954183
0.0926532
0.093574
0.0907751
0.0917196
0.0888795
0.0898247
0.0869953
0.0879377
0.0851071
0.086051
0.0832296
0.0841672
0.0813566
0.0822931
0.0794867
0.0804208
0.0776214
0.078554
0.0757573
0.0766891
0.0738955
0.0748262
0.0720356
0.0729653
0.0701767
0.0711059
0.0683183
0.0692473
0.0664632
0.0673902
0.0646227
0.0655404
0.0627999
0.063711
0.060959
0.0618881
0.059106
0.0600319
0.0572537
0.0581773
0.0610695
0.0601339
0.0629437
0.0620121
0.0648087
0.0638788
0.0666611
0.0657345
0.0685105
0.0675852
0.0703622
0.0694364
0.0722168
0.0712894
0.0740742
0.0731452
0.0759344
0.0750039
0.0777978
0.0768657
0.0796635
0.0787306
0.0815311
0.0805966
0.0834006
0.0824669
0.0852615
0.0843297
0.0871466
0.0862023
0.089017
0.0880829
0.0909251
0.0899616
0.0928577
0.0918907
0.0948938
0.0938626
0.0990852
0.0991384
0.0960455
0.0959388
0.0961431
0.0961048
0.0572929
0.0971112
0.0563398
0.0572555
0.0563311
0.0980723
0.099055
0.0970357
0.10004
0.100084
0.0969599
0.0961313
0.0563807
0.0563536
0.056404
0.0563958
0.0563886
0.0564009
0.0563416
0.0563739
0.0982543
0.100138
0.0991885
0.096373
0.0973244
0.0945256
0.0954428
0.0926471
0.0935867
0.0907576
0.0917039
0.0888665
0.0898108
0.0869833
0.0879242
0.0851013
0.0860424
0.0832237
0.0841615
0.081352
0.0822876
0.0794831
0.080417
0.0776179
0.0785502
0.0757548
0.0766861
0.0738938
0.0748241
0.0720347
0.072964
0.0701768
0.0711055
0.0683206
0.0692484
0.0664684
0.0673939
0.0646253
0.0655454
0.0627917
0.0637076
0.0609541
0.0618802
0.0591046
0.0600282
0.058172
0.0592233
0.057338
0.0582798
0.0610789
0.060157
0.062942
0.0620127
0.0648026
0.0638738
0.0666564
0.0657294
0.068508
0.0675817
0.0703608
0.0694344
0.0722158
0.0712882
0.0740733
0.0731444
0.0759332
0.0750029
0.0777961
0.0768643
0.079661
0.0787284
0.0815287
0.0805941
0.0833976
0.082464
0.085265
0.0843295
0.0871459
0.0862055
0.0890195
0.0880826
0.0909052
0.0899605
0.0927875
0.0918482
0.0947504
0.0937458
0.0968047
0.0957762
0.101029
0.101074
0.0979604
0.0978266
0.0563439
0.0970982
0.0970681
0.0554151
0.0554019
0.098062
0.0980131
0.0990358
0.100006
0.100984
0.0573586
0.0989666
0.101962
0.102019
0.0988634
0.0563756
0.0564241
0.0970914
0.0554486
0.0554318
0.0554702
0.0554679
0.0554631
0.0554592
0.0554135
0.0554403
0.0554179
0.055396
0.100159
0.102044
0.1011
0.0982796
0.0992348
0.0963848
0.097332
0.0945168
0.0954507
0.0926259
0.0935705
0.0907388
0.0916822
0.0888533
0.0897958
0.0869719
0.0879118
0.0850933
0.0860327
0.0832171
0.0841543
0.0813463
0.0822813
0.0794784
0.0804119
0.0776137
0.0785457
0.0757514
0.0766823
0.073891
0.074821
0.0720326
0.0729616
0.070176
0.0711041
0.0683215
0.0692484
0.0664708
0.0673957
0.0646265
0.0655477
0.0627886
0.0637068
0.0609478
0.0618725
0.0590997
0.0600269
0.05725
0.0581792
0.0554043
0.0563225
0.0592346
0.0583004
0.0610846
0.0601587
0.0629401
0.0620129
0.0647966
0.063869
0.0666506
0.0657237
0.0685033
0.0675766
0.070357
0.0694301
0.0722123
0.0712844
0.0740698
0.0731408
0.0759296
0.0749993
0.077792
0.0768605
0.0796563
0.078724
0.0815234
0.0805894
0.0833914
0.0824579
0.085262
0.084325
0.0871421
0.0862022
0.0890193
0.0880801
0.0909105
0.0899633
0.0927855
0.0918541
0.0946706
0.0937147
0.0966458
0.0956513
0.0987105
0.0976528
0.099849
0.0997371
0.102955
0.102984
0.098062
0.0980497
0.0554545
0.0990298
0.0990213
0.054473
0.0553996
0.0544759
0.0999981
0.0999616
0.100972
0.100776
0.10194
0.102923
0.103897
0.103936
0.0980609
0.054489
0.0544791
0.0545175
0.0545065
0.0545327
0.0545222
0.0545249
0.054526
0.0544713
0.0545233
0.0544655
0.0544673
0.102056
0.103949
0.102991
0.100174
0.101119
0.0982829
0.0992279
0.0963829
0.0973308
0.0944952
0.0954368
0.0926055
0.0935493
0.0907214
0.0916631
0.0888394
0.0897802
0.0869602
0.0878993
0.0850834
0.0860217
0.0832092
0.0841457
0.0813397
0.082274
0.0794729
0.0804059
0.077609
0.0785406
0.0757474
0.0766779
0.0738878
0.0748174
0.0720303
0.0729588
0.0701747
0.0711023
0.0683215
0.0692478
0.0664717
0.0673961
0.0646266
0.0655484
0.0627858
0.0637057
0.0609426
0.0618656
0.0590993
0.0600229
0.057249
0.0581753
0.0563261
0.0573802
0.0555024
0.0564387
0.0592338
0.0583121
0.0610845
0.0601587
0.0629379
0.0620109
0.0647922
0.0638654
0.0666458
0.0657191
0.068499
0.0675722
0.070353
0.0694259
0.0722084
0.0712804
0.0740658
0.0731369
0.0759253
0.0749952
0.0777873
0.0768561
0.0796511
0.0787189
0.0815177
0.0805841
0.0833852
0.0824516
0.0852564
0.0843196
0.0871337
0.086195
0.0890116
0.0880719
0.0909043
0.0899554
0.0927915
0.0918535
0.094664
0.0937205
0.0966069
0.0956324
0.0985813
0.097576
0.0995658
0.104884
0.104898
0.0544851
0.0990363
0.099028
0.0535489
0.0535456
0.100007
0.100004
0.10098
0.100948
0.101948
0.101671
0.102918
0.103892
0.104872
0.102687
0.0555297
0.105844
0.105852
0.0545307
0.0545721
0.0990345
0.0535707
0.0535583
0.0535962
0.0535751
0.0535988
0.053601
0.0535883
0.0535929
0.0535617
0.0535809
0.0535329
0.0535478
0.0535623
0.0535385
0.103947
0.105846
0.104895
0.102059
0.103013
0.100165
0.101111
0.0982638
0.0992113
0.0963628
0.0973119
0.0944733
0.0954165
0.0925871
0.0935299
0.0907046
0.0916454
0.0888251
0.0897646
0.0869473
0.0878859
0.0850726
0.0860096
0.0832006
0.0841362
0.0813322
0.082266
0.0794665
0.080399
0.0776034
0.0785346
0.0757427
0.0766728
0.0738841
0.0748132
0.0720275
0.0729555
0.0701728
0.0710999
0.0683206
0.0692464
0.0664713
0.0673956
0.0646256
0.0655479
0.0627827
0.0637039
0.0609398
0.0618614
0.0590937
0.0600178
0.0572453
0.0581723
0.0554017
0.056325
0.0535555
0.0544765
0.0573853
0.0564599
0.0592338
0.0583117
0.0610831
0.0601578
0.062935
0.0620086
0.0647882
0.0638617
0.0666413
0.0657148
0.0684945
0.0675677
0.0703487
0.0694215
0.0722041
0.0712761
0.0740614
0.0731326
0.0759206
0.0749907
0.0777822
0.0768512
0.0796456
0.0787135
0.0815116
0.0805783
0.0833789
0.0824452
0.0852503
0.0843138
0.0871256
0.0861879
0.0890025
0.0880635
0.0908915
0.0899443
0.0927842
0.0918414
0.0946653
0.0937183
0.0966233
0.0956418
0.098519
0.0975725
0.100499
0.0994941
0.106812
0.106807
0.104023
0.104183
0.100015
0.100007
0.053605
0.100994
0.100985
0.0526198
0.0535541
0.0526226
0.10197
0.101882
0.102942
0.102704
0.103914
0.103882
0.104883
0.105859
0.106823
0.107768
0.10778
0.105019
0.105059
0.10001
0.0526267
0.0526205
0.0526527
0.052641
0.0526616
0.0526515
0.0526613
0.0526647
0.0526554
0.052657
0.0526412
0.0526399
0.0526131
0.0526256
0.0526158
0.0526015
0.105825
0.10775
0.106782
0.10394
0.104883
0.102042
0.102992
0.100136
0.101087
0.098235
0.0991838
0.0963384
0.0972859
0.0944505
0.0953934
0.0925669
0.0935083
0.0906867
0.0916264
0.0888091
0.0897477
0.0869335
0.0878709
0.085061
0.0859969
0.0831909
0.0841256
0.0813237
0.0822569
0.0794593
0.0803912
0.0775974
0.0785281
0.0757377
0.0766672
0.07388
0.0748086
0.0720242
0.0729518
0.0701704
0.0710971
0.0683189
0.0692443
0.0664699
0.0673941
0.0646238
0.0655465
0.0627797
0.0637016
0.0609362
0.0618581
0.0590904
0.0600136
0.0572464
0.0581703
0.0554019
0.0563242
0.0544828
0.0555362
0.0536549
0.0546062
0.0573835
0.0564628
0.0592318
0.058308
0.0610808
0.0601559
0.0629318
0.062006
0.064784
0.0638579
0.0666368
0.0657104
0.0684899
0.0675631
0.070344
0.0694169
0.0721993
0.0712714
0.0740564
0.0731277
0.0759153
0.0749855
0.0777762
0.0768456
0.0796392
0.0787074
0.0815046
0.0805717
0.0833716
0.0824379
0.0852425
0.0843065
0.0871167
0.0861794
0.0889932
0.0880546
0.0908768
0.0899331
0.0927667
0.0918236
0.0946486
0.0937033
0.0965961
0.0956202
0.0984648
0.097534
0.100479
0.099432
0.102487
0.101597
0.10421
0.103432
0.105965
0.106
0.105105
0.0526391
0.108733
0.108716
0.100995
0.10099
0.0516905
0.0516923
0.101977
0.101957
0.102958
0.102815
0.103939
0.103798
0.104919
0.104941
0.105894
0.105959
0.106856
0.107805
0.10876
0.106047
0.10971
0.0536778
0.0526825
0.0527231
0.109689
0.106959
0.106923
0.106898
0.100992
0.0517079
0.0516963
0.0517232
0.0517049
0.051722
0.0517239
0.0517169
0.05172
0.0517113
0.051713
0.0517022
0.0517071
0.0516851
0.0516932
0.0516696
0.0516766
0.0517175
0.0516874
0.10771
0.109638
0.10868
0.105793
0.106746
0.103918
0.104853
0.102011
0.102963
0.1001
0.101052
0.0982028
0.09915
0.0963119
0.0972567
0.0944267
0.0953686
0.0925459
0.0934859
0.0906678
0.0916066
0.0887923
0.0897297
0.0869192
0.0878554
0.0850487
0.0859837
0.0831805
0.0841142
0.0813148
0.0822473
0.0794517
0.080383
0.0775909
0.078521
0.0757321
0.0766612
0.0738752
0.0748034
0.0720203
0.0729475
0.0701672
0.0710935
0.0683164
0.0692415
0.0664677
0.0673918
0.0646214
0.0655443
0.0627768
0.063699
0.0609328
0.0618548
0.0590887
0.0600106
0.0572438
0.0581669
0.0553964
0.0563217
0.0535544
0.0544782
0.0517023
0.0526281
0.0555395
0.0546218
0.0573828
0.0564608
0.0592291
0.0583055
0.0610779
0.0601532
0.0629282
0.0620028
0.0647797
0.0638539
0.0666321
0.0657059
0.068485
0.0675584
0.070339
0.0694119
0.0721942
0.0712663
0.074051
0.0731224
0.0759095
0.0749799
0.0777699
0.0768395
0.0796323
0.0787008
0.081497
0.0805644
0.0833636
0.08243
0.0852335
0.0842981
0.0871063
0.0861696
0.088983
0.0880441
0.090864
0.0899225
0.0927495
0.0918074
0.0946304
0.0936878
0.0965491
0.0955893
0.0984144
0.0974811
0.100409
0.0993782
0.102343
0.101418
0.104251
0.10332
0.10513
0.110647
0.110591
0.107849
0.107887
0.101978
0.101972
0.0517555
0.102966
0.102904
0.0507705
0.0517129
0.0507755
0.103955
0.103825
0.104941
0.104879
0.105927
0.105939
0.106907
0.106893
0.107866
0.107842
0.108807
0.109757
0.110702
0.108802
0.111615
0.111557
0.108832
0.101975
0.0507635
0.0507639
0.0507747
0.0507724
0.0507841
0.0507815
0.0507802
0.0507834
0.0507753
0.050778
0.0507697
0.0507718
0.0507612
0.0507666
0.0507581
0.0507531
0.0507401
0.0507472
0.0507502
0.0507337
0.109571
0.111477
0.110515
0.107661
0.108625
0.105762
0.106707
0.103868
0.104813
0.101964
0.102917
0.100061
0.101009
0.0981697
0.0991143
0.0962837
0.0972263
0.0944017
0.0953422
0.0925236
0.0934623
0.090648
0.0915855
0.088775
0.0897112
0.0869043
0.0878394
0.0850356
0.0859697
0.0831693
0.0841021
0.0813052
0.082237
0.0794434
0.080374
0.0775836
0.0785133
0.0757258
0.0766544
0.0738699
0.0747977
0.0720158
0.0729426
0.0701636
0.0710895
0.0683133
0.0692382
0.066465
0.067389
0.0646187
0.0655416
0.0627738
0.0636962
0.0609297
0.0618517
0.0590857
0.0600077
0.0572411
0.0581634
0.0553954
0.0563194
0.0535509
0.0544778
0.0526324
0.0507892
0.0536874
0.0517907
0.0527551
0.0555359
0.0546134
0.0573802
0.0564577
0.0592262
0.0583029
0.0610745
0.0601501
0.0629243
0.0619992
0.0647753
0.0638496
0.0666272
0.0657012
0.0684798
0.0675533
0.0703336
0.0694066
0.0721885
0.0712608
0.074045
0.0731166
0.0759031
0.0749737
0.077763
0.0768329
0.0796248
0.0786936
0.0814888
0.0805566
0.0833547
0.0824214
0.0852238
0.0842889
0.0870953
0.0861592
0.0889708
0.0880324
0.0908502
0.0899098
0.0927338
0.0917918
0.0946169
0.0936743
0.0965142
0.0955663
0.0983952
0.0974493
0.100342
0.0993605
0.102277
0.101321
0.104196
0.103239
0.106059
0.105135
0.107923
0.106994
0.10978
0.109785
0.108839
0.112528
0.112441
0.102966
0.102946
0.0498328
0.0498426
0.103962
0.103889
0.104957
0.104871
0.10595
0.105909
0.106938
0.10692
0.107915
0.107861
0.108876
0.108816
0.109829
0.109791
0.11077
0.111698
0.112615
0.113495
0.109783
0.110754
0.0508322
0.110738
0.110722
0.113411
0.10296
0.0498376
0.0498324
0.0498435
0.0498384
0.0498454
0.0498474
0.0498409
0.0498437
0.0498388
0.0498418
0.0498332
0.0498357
0.0498253
0.049829
0.0498175
0.0498206
0.0498055
0.0498128
0.0497997
0.049798
0.0498717
0.0498221
0.111379
0.113306
0.112335
0.109505
0.110445
0.107604
0.108554
0.105706
0.106655
0.10381
0.104756
0.101912
0.10286
0.100021
0.100965
0.0981359
0.0990782
0.096254
0.0971946
0.0943756
0.0953143
0.0925004
0.0934377
0.0906276
0.0915637
0.088757
0.0896921
0.0868885
0.0878225
0.0850219
0.085955
0.0831575
0.0840894
0.0812949
0.082226
0.0794345
0.0803644
0.0775759
0.078505
0.0757191
0.0766472
0.0738642
0.0747915
0.072011
0.0729373
0.0701595
0.071085
0.0683098
0.0692344
0.0664618
0.0673856
0.0646156
0.0655385
0.0627706
0.063693
0.0609265
0.0618485
0.0590825
0.0600045
0.0572385
0.0581605
0.0553939
0.0563163
0.0535543
0.0544789
0.0517071
0.0526305
0.0498521
0.0507862
0.05182
0.049919
0.0508756
0.0536867
0.0527648
0.0555315
0.054609
0.0573766
0.056454
0.0592228
0.0582996
0.0610707
0.0601466
0.0629201
0.0619953
0.0647706
0.0638452
0.0666221
0.0656963
0.0684744
0.067548
0.0703279
0.069401
0.0721824
0.0712549
0.0740385
0.0731104
0.0758961
0.0749671
0.0777555
0.0768257
0.0796167
0.0786858
0.0814799
0.0805481
0.083345
0.0824121
0.0852128
0.0842786
0.0870831
0.0861476
0.0889569
0.0880195
0.090834
0.089895
0.0927157
0.0917744
0.0946009
0.0936574
0.0964883
0.0955463
0.0983783
0.0974266
0.100312
0.0993361
0.102236
0.101277
0.104153
0.103195
0.106043
0.105098
0.107931
0.106988
0.108869
0.114372
0.114258
0.111693
0.111674
0.103963
0.103934
0.104965
0.104906
0.0489023
0.0489407
0.0489193
0.0498626
0.0489366
0.105966
0.105907
0.106962
0.106933
0.107952
0.10791
0.10893
0.108862
0.109894
0.109828
0.110856
0.110788
0.111794
0.111734
0.112722
0.11363
0.114501
0.112652
0.115349
0.115228
0.112617
0.103955
0.0489055
0.0489038
0.0489097
0.0489003
0.0489112
0.0488983
0.0489079
0.0489099
0.0489056
0.0489068
0.0489023
0.048905
0.0488985
0.0488994
0.0488907
0.048894
0.0488802
0.0488856
0.0488719
0.0488761
0.0488578
0.0488667
0.0488646
0.115066
0.116173
0.116018
0.11318
0.114118
0.111283
0.11223
0.109427
0.110357
0.10753
0.108479
0.105638
0.106583
0.10375
0.104693
0.101865
0.102807
0.0999813
0.100923
0.0981007
0.0990406
0.0962232
0.0971615
0.0943486
0.0952855
0.0924765
0.0934123
0.0906066
0.0915413
0.0887385
0.0896723
0.0868723
0.0878052
0.0850078
0.0859399
0.0831451
0.0840761
0.0812841
0.0822144
0.0794251
0.0803543
0.0775677
0.0784962
0.075712
0.0766396
0.073858
0.0747848
0.0720056
0.0729316
0.0701549
0.0710801
0.0683058
0.0692301
0.0664582
0.0673818
0.0646122
0.065535
0.0627672
0.0636896
0.0609232
0.0618451
0.0590794
0.0600013
0.0572359
0.0581576
0.055393
0.0563143
0.0535517
0.0544747
0.0517044
0.0526267
0.050784
0.0518377
0.0499506
0.050901
0.0536846
0.0527649
0.0555276
0.0546058
0.0573727
0.0564501
0.059219
0.0582957
0.0610666
0.0601426
0.0629156
0.0619909
0.0647656
0.0638404
0.0666167
0.0656911
0.0684687
0.0675425
0.0703219
0.0693952
0.0721761
0.0712487
0.0740317
0.0731038
0.0758888
0.07496
0.0777476
0.076818
0.079608
0.0786775
0.0814704
0.080539
0.0833347
0.0824023
0.0852015
0.0842678
0.0870706
0.0861357
0.0889428
0.0880063
0.0908176
0.0898798
0.0926965
0.0917567
0.0945795
0.0936368
0.096466
0.0955241
0.0983543
0.0974061
0.100275
0.0993102
0.102191
0.101234
0.104103
0.103149
0.105995
0.105048
0.1079
0.106947
0.109774
0.108844
0.111638
0.110703
0.113541
0.11349
0.112576
0.104966
0.10494
0.0489817
0.0479813
0.0479989
0.105975
0.105928
0.106981
0.10694
0.107981
0.10795
0.108973
0.108922
0.109953
0.109886
0.110924
0.11085
0.111884
0.111791
0.112819
0.112706
0.113741
0.113629
0.114621
0.115484
0.11632
0.117057
0.113436
0.11449
0.114423
0.114353
0.104959
0.0479721
0.047964
0.0479733
0.0479683
0.0479725
0.0479701
0.047971
0.0479718
0.047969
0.0479703
0.0479652
0.0479683
0.0479616
0.0479627
0.0479549
0.0479579
0.047945
0.0479503
0.0479461
0.0479404
0.047929
0.0479265
0.0479307
0.0479246
0.048005
0.0479627
0.116658
0.117222
0.114894
0.115854
0.113062
0.113985
0.111177
0.112111
0.109336
0.11026
0.107447
0.108392
0.10557
0.106508
0.103692
0.104631
0.101816
0.102754
0.0999387
0.100877
0.0980639
0.0990009
0.0961911
0.0971273
0.0943205
0.0952555
0.0924517
0.0933859
0.0905848
0.091518
0.0887194
0.0896519
0.0868555
0.0877872
0.084993
0.0859241
0.0831322
0.0840623
0.0812728
0.0822023
0.0794152
0.0803437
0.077559
0.0784869
0.0757044
0.0766315
0.0738514
0.0747777
0.0719999
0.0729254
0.0701498
0.0710747
0.0683013
0.0692253
0.0664541
0.0673776
0.0646084
0.0655311
0.0627637
0.0636859
0.0609198
0.0618416
0.0590763
0.059998
0.0572333
0.0581547
0.0553912
0.0563121
0.0535474
0.0544702
0.0517039
0.0526249
0.0498677
0.0507861
0.0480143
0.0489484
0.0499732
0.0480623
0.0490285
0.0518347
0.050912
0.0536803
0.0527589
0.0555237
0.0546019
0.0573686
0.056446
0.0592147
0.0582915
0.0610621
0.0601383
0.0629107
0.0619863
0.0647604
0.0638354
0.0666111
0.0656856
0.0684627
0.0675367
0.0703155
0.069389
0.0721693
0.0712422
0.0740245
0.0730968
0.075881
0.0749525
0.0777392
0.07681
0.0795988
0.0786687
0.0814604
0.0805294
0.0833237
0.0823917
0.0851893
0.0842563
0.0870571
0.0861228
0.0889277
0.0879921
0.0908006
0.0898638
0.0926772
0.0917386
0.0945563
0.0936159
0.0964417
0.0954989
0.0983285
0.0973837
0.100233
0.0992786
0.10214
0.101187
0.104043
0.103091
0.105932
0.104988
0.107838
0.106882
0.109719
0.108778
0.111581
0.110652
0.112508
0.115371
0.115284
0.105977
0.105953
0.106992
0.106957
0.0470375
0.0470755
0.0470748
0.0480201
0.0470892
0.108002
0.10797
0.109006
0.108967
0.110002
0.109943
0.110986
0.110918
0.111961
0.111865
0.112916
0.112795
0.113853
0.113722
0.114763
0.114615
0.115634
0.115467
0.116468
0.117261
0.118005
0.116305
0.116193
0.119748
0.119792
0.10597
0.0470346
0.0470535
0.0470359
0.047033
0.0470371
0.0470367
0.047036
0.0470365
0.0470347
0.0470352
0.0470325
0.0470339
0.0470286
0.0470317
0.0470248
0.047026
0.0470186
0.0470212
0.0470111
0.047015
0.0470036
0.0470075
0.0469885
0.0469953
0.0469969
0.046983
0.0469987
0.116567
0.117396
0.114753
0.115654
0.112954
0.113861
0.111068
0.112005
0.109237
0.110155
0.107364
0.108302
0.1055
0.106431
0.103633
0.104567
0.101765
0.102699
0.0998949
0.10083
0.098026
0.0989603
0.0961583
0.0970921
0.0942919
0.0952249
0.0924267
0.0933592
0.0905628
0.0914946
0.0886999
0.0896312
0.0868383
0.0877689
0.0849778
0.085908
0.0831188
0.0840481
0.0812611
0.0821898
0.0794048
0.0803327
0.0775499
0.0784772
0.0756964
0.076623
0.0738443
0.0747702
0.0719937
0.0729188
0.0701443
0.0710689
0.0682964
0.0692202
0.0664498
0.067373
0.0646044
0.0655269
0.0627599
0.063682
0.0609163
0.061838
0.0590731
0.0599947
0.0572305
0.0581518
0.0553883
0.0563094
0.0535458
0.054467
0.0517053
0.052625
0.049867
0.0507865
0.0489487
0.0499845
0.0480996
0.0490536
0.0518316
0.0509124
0.0536753
0.0527533
0.0555194
0.0545973
0.0573642
0.0564417
0.0592102
0.058287
0.0610573
0.0601336
0.0629056
0.0619813
0.0647549
0.0638301
0.0666052
0.0656799
0.0684564
0.0675307
0.0703088
0.0693825
0.0721622
0.0712353
0.0740169
0.0730894
0.0758728
0.0749446
0.0777303
0.0768014
0.0795892
0.0786595
0.0814498
0.0805193
0.0833121
0.0823807
0.0851764
0.084244
0.0870428
0.0861093
0.0889116
0.087977
0.0907825
0.0898467
0.0926567
0.0917194
0.0945328
0.0935942
0.0964137
0.0954728
0.0982989
0.0973553
0.100192
0.099245
0.102085
0.101138
0.103981
0.103031
0.105868
0.104927
0.10776
0.106812
0.109641
0.1087
0.111504
0.110573
0.113354
0.112425
0.115181
0.114271
0.117107
0.116969
0.116089
0.106995
0.106976
0.0471325
0.0461317
0.0461498
0.108015
0.107988
0.119494
0.120274
0.120207
0.10903
0.108998
0.110039
0.109992
0.111039
0.110975
0.112028
0.11195
0.113003
0.112896
0.113957
0.11382
0.114891
0.114731
0.115791
0.115588
0.116645
0.11643
0.117463
0.117236
0.118274
0.118967
0.119599
0.120467
0.116838
0.118023
0.11787
0.117704
0.10699
0.0460971
0.0461088
0.0461014
0.0461002
0.0461015
0.0461019
0.0461005
0.0461009
0.0460991
0.0460997
0.0460965
0.0460982
0.0460928
0.0460957
0.0460889
0.0460902
0.0460825
0.0460849
0.0460753
0.0460794
0.0460666
0.0460712
0.0460544
0.0460608
0.046047
0.0460495
0.0460721
0.0460483
0.046152
0.0461044
0.11799
0.118681
0.11642
0.117282
0.114573
0.115467
0.112822
0.113713
0.110957
0.111888
0.109137
0.110047
0.107283
0.108213
0.10543
0.106356
0.103573
0.104503
0.101713
0.102643
0.0998505
0.100782
0.0979878
0.0989191
0.0961252
0.0970565
0.0942629
0.095194
0.0924011
0.093332
0.0905402
0.0914705
0.0886799
0.08961
0.0868206
0.0877501
0.0849623
0.0858914
0.083105
0.0840335
0.0812489
0.0821769
0.0793941
0.0803213
0.0775404
0.0784671
0.075688
0.076614
0.0738369
0.0747623
0.0719871
0.0729118
0.0701385
0.0710627
0.0682912
0.0692147
0.0664451
0.067368
0.0646001
0.0655224
0.0627559
0.0636779
0.0609126
0.0618342
0.0590698
0.0599911
0.0572276
0.0581486
0.0553856
0.0563066
0.0535443
0.0544648
0.051704
0.052624
0.0498646
0.0507843
0.0480204
0.0489456
0.0461644
0.0470989
0.0481306
0.0462122
0.0471833
0.0499808
0.0490608
0.0518276
0.0509066
0.0536705
0.0527489
0.0555147
0.0545925
0.0573595
0.056437
0.0592053
0.0582823
0.0610522
0.0601286
0.0629002
0.0619761
0.0647491
0.0638245
0.066599
0.065674
0.0684499
0.0675243
0.0703018
0.0693758
0.0721548
0.0712281
0.0740089
0.0730817
0.0758643
0.0749364
0.077721
0.0767925
0.0795791
0.0786498
0.0814387
0.0805088
0.0833
0.0823691
0.085163
0.0842313
0.0870279
0.0860952
0.0888949
0.0879612
0.0907638
0.089829
0.0926352
0.0916993
0.0945087
0.0935714
0.0963853
0.0954468
0.0982655
0.0973245
0.100151
0.0992083
0.102034
0.101093
0.103918
0.102974
0.105801
0.104861
0.107678
0.106741
0.10955
0.108615
0.111409
0.110481
0.113252
0.112327
0.115082
0.114165
0.115955
0.118755
0.118577
0.10802
0.108004
0.120728
0.109046
0.10902
0.0451779
0.0452244
0.045222
0.0461792
0.0452457
0.110067
0.11003
0.111081
0.111027
0.112085
0.112014
0.113078
0.112982
0.114053
0.11392
0.115008
0.114849
0.115936
0.115734
0.116824
0.116588
0.117673
0.117411
0.118496
0.118202
0.119282
0.118946
0.119873
0.12063
0.121246
0.119638
0.119447
0.108016
0.0451873
0.0451973
0.0451617
0.0451658
0.0451663
0.0451658
0.0451661
0.0451663
0.0451654
0.0451657
0.0451639
0.0451646
0.045161
0.0451627
0.0451574
0.04516
0.0451531
0.0451548
0.0451467
0.0451495
0.0451393
0.0451435
0.0451312
0.0451352
0.0451212
0.0451266
0.045109
0.0451158
0.0451183
0.0451044
0.0451307
0.119412
0.121514
0.117875
0.118608
0.11624
0.117097
0.114417
0.115311
0.112678
0.113554
0.110848
0.111767
0.109038
0.109941
0.107204
0.108125
0.105362
0.106282
0.103514
0.104439
0.101661
0.102588
0.0998064
0.100734
0.0979495
0.098878
0.0960916
0.0970207
0.0942334
0.0951625
0.0923752
0.0933043
0.0905173
0.0914461
0.0886597
0.0895884
0.0868027
0.087731
0.0849463
0.0858745
0.0830909
0.0840185
0.0812364
0.0821636
0.0793829
0.0803095
0.0775306
0.0784566
0.0756793
0.0766048
0.0738292
0.0747541
0.0719802
0.0729045
0.0701324
0.0710562
0.0682857
0.0692089
0.0664401
0.0673628
0.0645955
0.0655177
0.0627518
0.0636735
0.0609088
0.0618302
0.0590663
0.0599875
0.0572245
0.0581453
0.055383
0.0563037
0.0535422
0.0544625
0.051702
0.052622
0.0498625
0.0507822
0.0480207
0.0489428
0.0471014
0.0481356
0.0462596
0.0472072
0.0499784
0.0490626
0.0518224
0.0509003
0.0536658
0.0527441
0.0555097
0.0545877
0.0573545
0.0564321
0.0592002
0.0582772
0.0610469
0.0601234
0.0628945
0.0619706
0.0647431
0.0638187
0.0665926
0.0656678
0.0684431
0.0675177
0.0702946
0.0693687
0.072147
0.0712206
0.0740006
0.0730737
0.0758553
0.0749278
0.0777113
0.0767832
0.0795685
0.0786397
0.0814272
0.0804977
0.0832873
0.082357
0.0851491
0.084218
0.0870125
0.0860805
0.0888776
0.0879449
0.0907444
0.0898107
0.092613
0.0916786
0.0944834
0.0935478
0.0963564
0.0954198
0.0982314
0.0972934
0.10011
0.0991705
0.101987
0.101049
0.10386
0.102923
0.105731
0.104796
0.107597
0.106665
0.109453
0.108526
0.111301
0.110378
0.113132
0.112218
0.114951
0.114045
0.116679
0.115819
0.118407
0.117538
0.120272
0.120059
0.119251
0.109052
0.109038
0.0452789
0.0442721
0.0442964
0.110084
0.110059
0.111111
0.11107
0.112132
0.11207
0.113141
0.113057
0.114137
0.114021
0.115114
0.114965
0.116067
0.115879
0.116988
0.116754
0.117868
0.117603
0.118715
0.118399
0.120497
0.119528
0.119161
0.119856
0.120226
0.120855
0.12158
0.122036
0.12233
0.119855
0.121102
0.120852
0.120626
0.109049
0.0442448
0.0442473
0.0442284
0.0442274
0.0442311
0.0442313
0.044231
0.0442309
0.0442305
0.0442307
0.0442287
0.0442296
0.0442257
0.0442274
0.044222
0.0442245
0.0442176
0.0442194
0.0442112
0.0442142
0.044204
0.044208
0.0441961
0.0442001
0.0441875
0.0441919
0.0441761
0.0441827
0.0441646
0.0441668
0.044208
0.0441736
0.0442953
0.0442471
0.120811
0.122254
0.121548
0.119235
0.12005
0.117659
0.118438
0.116028
0.11686
0.114266
0.11515
0.112539
0.113401
0.110743
0.11165
0.108942
0.10984
0.107124
0.108038
0.105293
0.106209
0.103455
0.104375
0.10161
0.102533
0.0997622
0.100687
0.097911
0.0988368
0.096058
0.0969847
0.0942039
0.095131
0.0923492
0.0932766
0.0904942
0.0914217
0.0886392
0.0895667
0.0867845
0.0877117
0.0849302
0.0858573
0.0830765
0.0840032
0.0812236
0.08215
0.0793715
0.0802974
0.0775204
0.0784458
0.0756702
0.0765952
0.0738211
0.0747455
0.071973
0.0728969
0.070126
0.0710493
0.0682799
0.0692028
0.0664348
0.0673573
0.0645907
0.0655127
0.0627474
0.063669
0.0609048
0.061826
0.0590627
0.0599837
0.0572213
0.0581419
0.0553802
0.0563007
0.0535398
0.05446
0.0516999
0.0526198
0.0498607
0.0507802
0.0480234
0.0489415
0.0461833
0.0471086
0.044311
0.0452512
0.0462798
0.0443507
0.0453159
0.0481337
0.0472159
0.0499749
0.0490565
0.0518175
0.050896
0.0536608
0.0527391
0.0555047
0.0545826
0.0573493
0.0564269
0.0591948
0.0582719
0.0610413
0.0601179
0.0628886
0.0619648
0.0647368
0.0638126
0.066586
0.0656613
0.0684361
0.0675109
0.070287
0.0693614
0.072139
0.0712128
0.073992
0.0730654
0.075846
0.0749188
0.0777012
0.0767735
0.0795576
0.0786292
0.0814153
0.0804863
0.0832742
0.0823446
0.0851346
0.0842043
0.0869964
0.0860653
0.0888595
0.0879278
0.0907241
0.0897916
0.0925901
0.091657
0.0944573
0.0935234
0.0963264
0.0953917
0.0981967
0.0972613
0.100068
0.0991324
0.101938
0.101003
0.103803