/*--------------------------------*- C++ -*----------------------------------*\
  =========                 |
  \\      /  F ield         | OpenFOAM: The Open Source CFD Toolbox
   \\    /   O peration     | Website:  https://openfoam.org
    \\  /    A nd           | Version:  10
     \\/     M anipulation  |
\*---------------------------------------------------------------------------*/
FoamFile
{
    format      ascii;
    class       surfaceScalarField;
    location    "78";
    object      phi;
}
// * * * * * * * * * * * * * * * * * * * * * * * * * * * * * * * * * * * * * //

dimensions      [0 3 -1 0 0 0 0];

internalField   nonuniform List<scalar> 
57492
(
0.000235285
-1.05774e-05
-4.36346e-05
-0.000181073
-0.000162162
0.000266954
0.000130493
-2.87452e-05
8.08065e-05
0.000323184
-0.000375246
0.00315989
0.00338639
-0.000272133
-0.00627414
-0.00862825
0.00404526
0.00774288
0.000676222
-0.000621652
-0.000326125
0.000271554
-0.00120406
0.000205623
-7.00749e-05
0.00106851
0.000259311
-0.000787145
0.00159235
-0.00463296
0.00442519
-0.00138459
0.00134387
0.00424858
-0.0040001
-0.000610474
-0.000206088
0.000682822
0.00013374
-0.000122177
-0.000830719
0.000342421
0.000231395
-0.000324649
-2.89233e-05
-5.31459e-05
7.84529e-05
0.00161211
-0.00155691
-0.000583455
0.000528253
0.000232799
0.00130133
7.79814e-05
-0.000324857
0.000788714
0.00333523
-0.00379909
-0.000660988
0.00326113
-0.00292499
0.000135396
-0.000288432
0.000153036
-0.00166268
0.00121949
0.000578589
-0.00465978
0.000189203
0.00333544
0.00113513
0.00122854
-0.00472994
-0.00115838
-0.000132882
-0.0001959
-0.000701135
0.00102992
-0.000286585
0.000175701
-2.19983e-05
-0.00254271
0.00215841
0.000733538
-0.00034923
-0.00304637
0.000925685
-0.000422027
-0.00112682
0.000595889
0.000456455
7.44787e-05
-0.000778404
-0.000361948
1.35292e-05
-0.000366994
-0.00113297
0.00128974
0.000210223
-0.000415725
0.000116285
-6.75541e-05
0.00070416
-0.000468443
-0.000436534
0.000200817
-0.000607385
0.000489927
0.000821618
-0.000833182
-0.00159713
0.0015522
0.00087811
-0.00190336
-0.00045351
0.00152369
-0.000707289
-0.00015198
0.000859269
-0.000271204
-0.000436086
-0.00137455
0.00189189
-0.000788541
0.000203039
-0.000767327
-0.000810262
-0.000532185
0.000737808
-0.000233047
-0.00190188
0.00115085
0.00075103
-0.00432177
0.00241989
0.00486743
-0.000805306
0.000335489
-0.00439761
0.00357784
-9.39507e-05
0.00138354
-0.000713023
0.00488473
-0.00497702
0.0013249
0.000286917
-0.00135251
0.00133714
-8.23142e-05
0.00162195
-0.000608102
-0.00120839
0.000194544
0.00181573
9.31323e-05
0.000823736
-0.000513457
0.00102686
0.000805421
0.00108682
-0.00475685
-0.000633042
0.000543796
0.0048461
-0.0048901
-0.000296593
0.000429836
0.00122012
0.00451253
-0.00443731
-0.00129534
0.000891927
-0.00430477
-0.00277362
0.00252651
0.0025311
-0.00228399
-0.000270812
0.00320027
-0.00570309
1.48077e-05
-0.000116407
-7.98671e-07
0.000102398
-0.000320454
1.06131e-05
6.68646e-05
-0.00013567
-0.000251649
-5.61916e-05
6.64915e-06
1.10989e-05
-1.18976e-05
8.82892e-06
2.26997e-06
0.00729918
0.00378507
-0.00587657
-0.00520768
0.00233721
-0.000701967
0.00566393
-0.00784941
0.00309913
0.00708749
0.00229322
-0.00635756
0.00162387
-0.00286533
0.00213321
-0.000891752
0.00235572
-0.00291389
0.00218203
-2.97914e-05
2.17685e-05
-2.55452e-06
-7.00328e-05
-3.39326e-06
-0.000222193
-2.89124e-05
-0.0029376
0.00534634
0.00339234
-0.00580108
0.00436245
-0.00494433
0.00298396
0.00474608
-0.0023837
0.0100803
-0.00147854
-0.00179127
-0.00681053
0.00224461
0.00541625
0.00241947
0.00160721
-0.00500247
0.00563987
4.67618e-05
-7.5507e-05
0.000127568
0.000815541
0.00175653
-0.000625955
-0.00194611
0.00103918
9.95484e-05
-9.55234e-05
2.62377e-05
6.92858e-05
-0.000297513
0.00020199
-0.00660294
0.0034235
-0.00201299
0.00519242
-0.00574051
-0.00249491
0.00163249
-0.00262458
0.00208752
-0.00520345
0.00195107
-2.66163e-05
-0.000943929
-0.000980524
-0.000711323
0.00222668
0.000435711
-0.000834276
-8.52171e-05
0.00020817
-0.000771247
-8.9646e-05
-0.000271383
-0.00144379
-0.000237659
-6.23809e-05
1.89089e-05
0.000281131
-0.000214914
-0.00052113
0.000498385
0.000137657
1.69324e-05
-0.000369504
7.94667e-05
-4.19028e-06
0.000100991
-2.61551e-06
-0.000640879
0.000369497
8.34505e-05
-0.00072433
0.000172181
-0.000469694
0.00427364
0.00333161
-0.000178531
0.00212862
-0.00648323
-1.04102e-05
0.00226402
-0.0017975
-0.000456112
0.000291669
0.00316421
-0.00346629
0.00326827
0.00183872
-0.000497734
-0.00460926
-0.00103406
0.00050263
0.00379971
0.00398612
-0.00318147
-0.00164291
-0.00303447
0.00125191
0.00342547
-0.00118439
0.00350473
-0.00396326
0.000423952
-0.00464281
8.23036e-05
3.37275e-05
-4.56969e-06
0.00104327
-0.000615336
-0.000590094
7.63728e-05
-0.00032313
0.00129002
0.000362462
-1.91351e-05
-0.000187127
0.000331883
6.83229e-05
-0.000213079
0.000991876
-0.00121565
3.66425e-05
-0.00035774
0.000830951
0.000518666
-0.000125154
9.92966e-05
-0.00611134
0.00365179
0.00588305
0.00772172
-0.00200535
-0.00821128
-0.00285442
0.00446479
-9.70743e-05
-0.000873864
-0.000162031
-0.000521919
9.11976e-06
4.77571e-05
-0.000130041
3.74412e-05
4.48424e-05
-0.000129938
0.000144311
3.33847e-05
-0.000299024
3.9045e-05
-0.00026514
-0.000312581
5.58022e-05
-0.000803245
-0.000335759
-0.000762798
-0.000818052
0.000934451
0.000646399
3.12495e-05
0.000404033
-0.00119808
-0.00106646
0.000279656
-0.00293295
0.00133023
-5.99605e-05
-0.00350148
0.000809274
-0.000240746
0.000875913
-0.00334739
0.00256423
-9.27538e-05
0.000678957
-0.00272856
0.00292552
0.00252813
-0.0101973
-0.00176493
0.00218118
0.00302064
-0.00345534
0.00206063
-0.000320721
2.82493e-07
1.66499e-05
-3.49229e-06
3.77478e-06
0.000284111
-4.12802e-05
0.00558054
-0.00341013
-0.00249401
0.000323606
0.00483166
3.58486e-05
0.00463819
0.000168992
-0.00507799
0.00137998
0.00329369
-3.54873e-05
0.000551268
-0.00290953
0.00373824
5.32107e-06
-8.81336e-06
0.00075915
-0.00211949
-0.00284596
0.00123146
0.00308274
0.000794099
-4.55017e-05
-0.000834745
8.61483e-05
0.000264087
-7.7374e-05
-0.00102276
0.00022729
0.0012854
0.000186337
-0.000945009
-0.000134939
7.60747e-05
-7.07108e-06
1.03325e-05
-2.93102e-06
-3.30414e-07
1.09367e-05
-2.53447e-07
-1.77544e-05
4.67346e-05
-0.000103405
6.76072e-05
-0.00171477
0.00264762
-0.000760669
0.00291566
-0.00378108
-0.00084935
6.72841e-06
-0.00140736
0.00162792
-0.00398927
0.00024093
-0.00273488
-0.00182992
0.000575529
0.00269079
0.00291165
-0.00541323
0.00260566
0.00429254
-0.00420741
0.00224072
-0.00308401
0.00160588
-0.000762591
0.00245598
-0.00302314
0.00280787
0.00437016
0.00187693
0.0050023
-0.000229506
-0.00496782
0.000195027
0.00554337
-0.000658014
0.000116947
0.00552849
-0.000906254
8.58504e-05
-0.00470808
0.00396791
-0.00137833
0.0029389
0.00430749
-0.00140588
0.00114286
-0.00404447
0.00127161
0.00438742
-0.00135154
-0.00387573
-0.00166731
0.00413716
0.00106844
-0.00369226
-0.00186169
0.00361985
-0.00238018
-0.00323869
0.00215613
0.00346273
-0.00239603
-0.00326672
0.00328257
0.00223584
0.00304548
-0.00147533
-0.003806
0.00301923
-0.00317942
-0.00259015
0.00261481
0.00299457
-0.00204145
0.00249679
-0.00406853
0.00361458
-0.00102138
-0.00506489
0.00105424
0.00537424
-0.00136359
0.00191093
-0.000263618
0.000989234
-0.00105503
0.000329417
-0.000107277
0.00126823
-0.00142457
-5.29249e-05
0.000304878
0.000110509
-0.00102616
-0.0016106
0.00104861
-1.54763e-07
-9.86848e-08
3.08705e-07
-4.63468e-07
-9.41841e-05
-0.00177633
0.00135706
-0.00158571
-6.31917e-05
0.00155472
4.29115e-05
-0.0016619
3.32783e-05
-0.000243973
0.0015358
0.000269483
-0.00156131
0.00158233
0.00043659
-0.0022629
0.00156349
0.00155464
-2.44896e-06
5.0792e-07
3.56685e-05
-4.74867e-06
2.29972e-06
-4.24075e-06
-5.53633e-06
4.22538e-06
-5.48807e-05
1.02302e-06
-6.55935e-06
5.2484e-06
-4.38789e-05
2.12637e-05
-0.00026397
2.21435e-05
-6.60225e-05
4.34072e-05
5.32134e-05
-5.34334e-06
-0.000173024
-1.69131e-05
7.01265e-05
-2.22565e-05
0.00142746
0.00327821
-0.00420304
0.0013233
-0.00446158
0.00456574
0.0047134
-0.000111897
-0.00118219
-0.00244413
0.00115805
0.00246827
-0.000710359
0.00272151
-0.00319334
0.00015738
-0.00331187
0.00364088
-0.00365328
-1.27107e-05
2.51138e-05
0.00366105
3.1488e-05
-5.16535e-05
-2.35617e-05
-0.00362568
-4.03668e-06
0.00371025
-2.97291e-06
-4.62328e-05
0.00379844
5.2177e-05
-0.000140365
2.45338e-05
0.00391548
-0.000141576
0.00386774
-0.00382306
-2.01465e-05
-0.000185712
0.00412146
-2.02722e-05
0.00378144
-9.94083e-05
-0.00368461
-8.62786e-05
-0.00365043
-3.71469e-05
-0.00362361
4.66791e-06
-0.00367911
4.27916e-05
-0.00359684
-0.000105835
-0.000182195
0.00432378
-2.01246e-05
0.0036251
-2.58541e-05
-1.84264e-05
-0.00357281
-3.4444e-05
-0.00360379
-1.14786e-05
-2.5471e-05
-0.00375617
0.000208823
-4.82261e-06
0.0043482
-1.95925e-05
0.00364633
-2.60511e-05
-0.00371288
8.36175e-05
0.00437253
-4.99268e-06
-1.93404e-05
-5.34106e-06
0.00439657
-1.86999e-05
0.0036672
-2.58696e-05
0.003688
-2.61367e-05
-2.08943e-05
-0.00371
-2.52753e-05
-0.00370905
-2.4721e-05
-5.36264e-06
0.0044204
-1.84653e-05
0.00370856
-2.59221e-05
5.52045e-07
-0.00368473
-2.58148e-05
-0.0036837
-2.47989e-05
-5.53288e-06
0.00444376
-1.78302e-05
0.00372918
-2.61504e-05
1.00999e-06
-0.00365921
-2.65326e-05
-0.00365825
-2.4439e-05
-5.27079e-06
0.00446666
-1.76297e-05
0.00374979
-2.58847e-05
1.27055e-06
-0.00363351
-2.69687e-05
-0.00363246
-2.45181e-05
-4.93103e-06
0.0044886
-1.70074e-05
0.00377092
-2.60619e-05
1.70841e-06
-0.00360762
-2.76015e-05
-0.00360659
-2.41616e-05
-3.68341e-06
0.00450913
-1.68422e-05
0.00379297
-2.57303e-05
1.0317e-05
-0.00358996
-2.79753e-05
-0.00357207
-2.42005e-05
-1.41323e-06
0.00452677
-1.62318e-05
0.00381739
-2.5832e-05
2.56697e-05
-0.00346336
-0.000152272
-0.00348578
-6.06281e-05
3.65979e-06
0.00453921
-1.60968e-05
0.00382897
-7.9263e-06
2.55241e-05
-0.00345483
-3.4056e-05
-0.00343468
-2.55735e-05
1.35177e-05
0.0045412
-1.55024e-05
0.00382081
2.16796e-05
5.18128e-05
-0.00330772
-0.000198922
-0.00331075
-7.21128e-05
0.00018917
0.0043674
-1.5375e-05
0.00395609
5.38926e-05
5.87945e-05
-0.00326764
-9.8869e-05
-0.00324981
-2.14431e-06
0.000167746
0.00406519
0.000134461
0.00404057
8.32655e-05
9.12811e-05
-0.000153217
-0.00320571
-0.00321213
5.35932e-05
6.99357e-06
2.49702e-05
0.00403323
0.00403327
1.42924e-05
-0.00329018
0.00336743
-0.000176121
-0.00328343
-0.000159961
0.000152313
-0.000158882
-0.00319914
5.27187e-05
-0.00311253
-0.00331955
0.00337332
-8.78344e-05
-0.000151042
-0.00327373
0.00329766
-5.19074e-05
-5.26772e-05
-0.00332125
0.00334471
-5.04298e-05
-5.1185e-05
-0.00336785
0.00339093
-4.8888e-05
-4.968e-05
-0.00341376
0.00367
-4.74176e-05
-4.81077e-05
-0.0036823
0.00365432
2.39391e-05
-4.67414e-05
-0.00379482
0.00378774
-4.45665e-05
-0.000115389
-0.00368762
0.00365515
-0.000107895
5.38872e-05
-0.00358938
0.00361075
-4.16412e-05
-7.58054e-05
-0.00363171
0.00365254
-4.0428e-05
-4.10859e-05
-0.00367308
0.00369356
-3.91844e-05
-3.98755e-05
-0.00371374
0.00373386
-3.79492e-05
-3.86414e-05
-0.00375365
0.00377338
-3.67377e-05
-3.74264e-05
-0.00379278
0.0038121
-3.55493e-05
-3.62368e-05
-0.00383106
0.00384991
-3.43497e-05
-3.50625e-05
-0.00384596
0.00395478
2.56363e-05
-1.14228e-05
0.0039632
1.65548e-05
-2.95348e-05
6.45747e-05
0.00399819
-2.75385e-05
0.00403127
0.00395138
-0.00386813
-2.93554e-05
-0.00400871
0.00401884
4.16294e-06
2.59332e-05
0.00384902
-0.00381247
-4.44834e-05
2.57219e-06
0.00379331
-0.00377375
-4.52927e-05
-4.49906e-05
0.00375415
-0.00373417
-4.58643e-05
-4.56584e-05
0.00371416
-0.00369378
-4.63042e-05
-4.61576e-05
0.00367337
-0.00365259
-4.66525e-05
-4.65479e-05
0.00363177
-0.00361066
-4.69664e-05
-4.68684e-05
0.00366289
-0.00363588
-4.71571e-05
-4.71718e-05
0.00367491
-0.00361313
-9.89286e-05
-4.72493e-05
0.00356762
-0.00352251
-2.31878e-06
-4.08421e-05
0.00354423
-0.00354465
-1.10601e-05
-8.41125e-05
0.00341339
-0.0033905
-4.76098e-05
-4.76476e-05
0.00336753
-0.0033442
-4.77642e-05
-4.77663e-05
0.0033208
-0.00329704
-4.79225e-05
-4.79181e-05
0.00327316
-0.00328567
-4.81135e-05
-4.80838e-05
0.00326293
-0.00328662
-4.84213e-05
-4.83197e-05
0.00323999
-0.00316875
-1.7646e-05
-4.87716e-05
-0.0031107
-5.33053e-06
-0.00328281
-0.000159507
0.00399417
3.3598e-05
-4.18253e-05
0.00403313
9.37159e-05
-0.000107271
-0.00309898
4.58821e-05
-0.00306287
0.000136634
-0.000155684
-0.00326376
-0.00316977
-0.00329244
0.00326296
-0.000146636
0.00330583
-0.00330843
-0.000156911
-0.000146571
-0.00324482
0.00326883
-0.000111847
-0.000132902
-0.00329245
0.00331597
-7.54296e-05
-7.62996e-05
-0.00333915
0.00336222
-7.34957e-05
-7.43637e-05
-0.00338497
0.00340764
-7.15604e-05
-7.243e-05
-0.00343004
0.00345231
-6.9685e-05
-7.0509e-05
-0.00347426
0.00356612
-6.79197e-05
-6.86939e-05
-0.00351768
0.00353923
-6.61231e-05
-6.69438e-05
-0.00365836
0.0036149
-6.44387e-05
-6.52374e-05
-0.00360251
0.00362346
-6.25993e-05
-6.34104e-05
-0.00364408
0.0036646
-6.09498e-05
-6.16985e-05
-0.0036848
0.00370495
-5.93348e-05
-6.00807e-05
-0.00372479
0.00374457
-5.77312e-05
-5.84781e-05
-0.00376403
0.00378343
-5.6136e-05
-5.68861e-05
-0.00380249
0.00382148
-5.45392e-05
-5.52995e-05
-0.00384012
0.00385864
-5.2877e-05
-5.36958e-05
-0.00387657
0.00392542
-2.32139e-05
-2.93493e-05
-3.96635e-06
-2.29717e-05
0.00402513
-2.87829e-05
0.00401899
-0.00393124
0.00398774
-2.29056e-05
1.07396e-05
0.00397303
-0.00395603
-1.28307e-05
0.00395852
-2.73151e-05
2.10544e-05
5.10416e-06
0.00400697
0.00402936
0.00393864
-0.00389239
-7.56014e-05
8.53562e-06
0.00384101
-0.00382217
-6.33237e-05
-4.88053e-05
0.00380331
-0.00378407
-6.45379e-05
-6.38512e-05
0.0037648
-0.00374515
-6.55158e-05
-6.49292e-05
0.00372547
-0.00370543
-6.63489e-05
-6.58315e-05
0.00368536
-0.00366494
-6.70749e-05
-6.66113e-05
0.00364451
-0.00362375
-6.77227e-05
-6.73008e-05
0.00360301
-0.0035819
-6.8267e-05
-6.79136e-05
0.00356073
-0.00359088
-6.87808e-05
-6.84167e-05
0.0035628
-0.00349589
-6.92232e-05
-6.89267e-05
0.0035106
-0.0034519
-6.97668e-05
-6.93998e-05
0.00342965
-0.00340706
-7.02083e-05
-6.98914e-05
0.00338442
-0.00336143
-7.07511e-05
-7.04058e-05
0.00333837
-0.00331494
-7.13518e-05
-7.09814e-05
0.0032914
-0.00326746
-7.20445e-05
-7.16248e-05
0.00324339
-0.00321891
-7.29027e-05
-7.2393e-05
0.0031943
-0.00313796
-7.3987e-05
-7.33783e-05
0.00309585
-0.00303024
-1.97286e-05
-4.74398e-05
-0.00330625
-0.000157857
3.25127e-05
-0.000104016
-0.00299137
-0.00298773
-1.00001e-05
-0.000175014
-0.00302798
-2.30377e-05
0.00398199
0.00398257
-1.89496e-05
-0.000102953
9.53812e-05
-0.00325618
-0.000126322
-0.00328288
1.05333e-05
-0.000100044
-0.00290186
-3.2843e-05
-0.00294435
-0.00324941
0.00400816
-0.00397994
-5.11257e-05
0.00398414
9.81525e-07
3.00108e-05
-7.56306e-06
0.00398452
-1.12045e-05
0.00402379
-0.00328173
0.00334233
-0.000186915
-0.000171966
0.000128291
-0.00323921
0.0033329
1.58462e-05
0.000170477
-0.00351922
-0.000120803
-0.0033631
0.00336043
-0.000154243
-0.000178628
-0.00334037
0.00330944
-0.000115706
-0.000126515
-0.00330771
0.00329667
-0.000100807
-0.00013117
-0.00331974
0.00334267
-9.83569e-05
-9.93728e-05
-0.00336525
0.00338771
-9.59604e-05
-9.69426e-05
-0.00340987
0.00343194
-9.36338e-05
-9.45849e-05
-0.00345373
0.00347543
-9.13879e-05
-9.22944e-05
-0.00349683
0.00351814
-8.92302e-05
-9.00974e-05
-0.00353917
0.00356016
-8.71138e-05
-8.79735e-05
-0.00358082
0.00360144
-8.50598e-05
-8.58963e-05
-0.00362184
0.0036422
-8.29644e-05
-8.38042e-05
-0.00366227
0.00368228
-8.09581e-05
-8.17649e-05
-0.00370198
0.00372163
-7.89852e-05
-7.97833e-05
-0.00374097
0.00376026
-7.7021e-05
-7.78208e-05
-0.00377924
0.00379815
-7.5051e-05
-7.58599e-05
-0.00381674
0.00383526
-7.30564e-05
-7.38861e-05
-0.00385343
0.00387152
-7.09696e-05
-7.18681e-05
-0.0038999
0.00392342
-4.67358e-05
-5.77305e-05
-4.57767e-05
1.33107e-05
-1.4417e-05
0.00402623
-1.1605e-05
-3.6668e-05
0.00403027
0.0040207
0.00400738
0.00397351
-0.00395243
-3.3916e-05
-0.00398458
0.00397899
-1.33623e-05
-3.83831e-05
0.00389062
-0.00388634
-7.98764e-05
-5.3272e-05
0.00385463
-0.00383624
-8.17111e-05
-8.05204e-05
0.00381785
-0.00379907
-8.33096e-05
-8.22458e-05
0.00378028
-0.00376111
-8.46827e-05
-8.37243e-05
0.00374193
-0.00372238
-8.58965e-05
-8.50183e-05
0.00370282
-0.00368291
-8.69856e-05
-8.61738e-05
0.00366299
-0.00364273
-8.79745e-05
-8.72195e-05
0.00362248
-0.00360187
-8.88703e-05
-8.81712e-05
0.00358124
-0.0035603
-8.97296e-05
-8.90458e-05
0.00353932
-0.00351799
-9.05516e-05
-8.99036e-05
0.00349664
-0.003475
-9.14114e-05
-9.07482e-05
0.00345328
-0.00343122
-9.2266e-05
-9.16114e-05
0.00340911
-0.00338665
-9.3206e-05
-9.25172e-05
0.00336412
-0.00334123
-9.42437e-05
-9.3513e-05
0.00331823
-0.00329486
-9.54204e-05
-9.46225e-05
0.00327135
-0.00324745
-9.68033e-05
-9.59015e-05
0.0032234
-0.00319894
-9.84489e-05
-9.74226e-05
0.00314716
-0.00306642
-0.000100464
-9.92256e-05
0.00301077
-0.00299525
-4.8368e-05
-6.56488e-05
-2.19567e-05
-1.03481e-07
-0.00292229
-0.00295812
-5.90791e-05
0.000121528
-0.00324942
-7.53143e-05
-0.00305271
-2.57541e-05
0.00397323
0.00400955
-4.17602e-05
0.000166093
-0.00338946
3.04857e-05
-0.00293245
0.000743835
-0.00271339
0.00353305
2.72045e-05
-6.81905e-05
-0.00291714
-2.4094e-05
-0.00287099
-0.00218824
0.00334715
0.000395727
-0.00166596
-0.0002528
-0.00320319
-0.00319801
0.00335454
1.39435e-05
0.000162975
-1.38317e-05
-0.00334276
0.00333423
-0.000178385
-0.000109019
-0.00332951
0.00330511
-0.000129846
-0.000173909
-0.00330643
0.00331722
-0.000126489
-0.000127837
-0.00331059
0.00333311
-0.000123331
-0.00012454
-0.0033553
0.00337736
-0.000120425
-0.00012156
-0.00339913
0.0034208
-0.000117628
-0.000118706
-0.00344217
0.00346347
-0.000114934
-0.000115962
-0.00348449
0.00350544
-0.000112339
-0.000113316
-0.00352611
0.00354672
-0.000109833
-0.000110766
-0.00356704
0.00358731
-0.000107391
-0.000108295
-0.0036073
0.00362725
-0.000105002
-0.000105886
-0.00364694
0.0036666
-0.000102624
-0.000103497
-0.00368598
0.00370532
-0.000100293
-0.000101146
-0.00372436
0.00374336
-9.79828e-05
-9.88287e-05
-0.00376206
0.00378071
-9.5672e-05
-9.65224e-05
-0.00379906
0.00381735
-9.33406e-05
-9.4206e-05
-0.00383532
0.00385323
-9.0964e-05
-9.18591e-05
-0.00387081
0.00388832
-8.8482e-05
-8.94464e-05
-0.00391748
0.00395662
-8.58719e-05
-8.68926e-05
-0.00396357
0.00397706
-6.46188e-05
-5.27314e-05
-0.00400892
0.00401883
-3.56602e-05
-3.08759e-05
9.00934e-06
-1.43088e-06
0.00402269
3.04411e-05
-7.41286e-05
0.00406251
0.00401268
2.67934e-05
1.10467e-05
0.00398839
0.00404606
-4.93044e-06
-2.07313e-05
0.00401018
0.00401349
3.39842e-05
-7.12061e-05
0.00404677
0.00403704
0.00403005
-0.00399997
-4.34417e-05
-0.00410748
0.00401651
1.97653e-05
-0.00011919
0.00397422
-0.0039493
-5.88357e-05
-6.41374e-05
0.00390705
-0.00388969
-9.72405e-05
-9.55176e-05
0.00387228
-0.00385451
-9.94882e-05
-9.79269e-05
0.00383672
-0.00381856
-0.000101464
-0.000100036
0.00380039
-0.00378185
-0.000103219
-0.000101901
0.00376329
-0.00374439
-0.0001048
-0.000103573
0.00372547
-0.00370622
-0.00010624
-0.000105092
0.00368695
-0.00366736
-0.000107568
-0.000106485
0.00364775
-0.00362781
-0.000108808
-0.000107779
0.00360785
-0.00358758
-0.000110005
-0.000109005
0.00356728
-0.00354665
-0.000111181
-0.000110206
0.00352599
-0.00350502
-0.000112381
-0.000111403
0.003484
-0.00346265
-0.000113615
-0.000112631
0.00344125
-0.00341951
-0.000114945
-0.000113923
0.0033977
-0.00337554
-0.000116403
-0.000115326
0.00335328
-0.00333067
-0.000118035
-0.000116878
0.00330794
-0.00328484
-0.000119903
-0.000118633
0.0032616
-0.00323799
-0.000122063
-0.000120654
0.00321423
-0.00319012
-0.000124572
-0.000122985
0.00313009
-0.00305099
-0.000127466
-0.00012568
0.00303321
-0.00300016
-0.000101241
-7.6861e-05
-6.27799e-05
4.26917e-05
-0.00289705
-0.00295717
-0.000105775
0.000116713
-0.00320004
-2.09809e-05
-0.00300124
0.000287022
-0.00293264
3.1474e-05
-0.00298801
0.00403968
-0.00402916
-4.61846e-05
0.00403913
-7.35762e-05
-2.29563e-05
2.17886e-05
0.00404794
-7.47097e-05
0.00406827
0.000302823
-0.00257963
6.00573e-05
-0.00288836
-0.00146457
-0.00176269
-0.00262444
0.00304489
-2.47246e-05
-4.33445e-05
3.87541e-05
-0.00289246
-8.33751e-05
-0.00291714
-0.00240966
-0.000467573
-0.00310746
-0.00320003
0.00326281
-4.88343e-05
7.83159e-06
-0.00331173
0.00328927
-0.000155932
-0.000157936
-0.00326878
0.00329082
-0.00015189
-0.000153409
-0.00331262
0.00333433
-0.000148208
-0.000149632
-0.00335583
0.00337724
-0.00014474
-0.000146042
-0.00339838
0.00341943
-0.000141478
-0.000142697
-0.00344022
0.00346092
-0.000138335
-0.000139489
-0.00348137
0.00350174
-0.000135309
-0.000136403
-0.00352185
0.0035419
-0.00013239
-0.000133428
-0.00356169
0.00358142
-0.000129565
-0.000130555
-0.00360089
0.00362032
-0.000126814
-0.000127766
-0.00363948
0.00365859
-0.000124119
-0.000125045
-0.00367746
0.00369628
-0.000121453
-0.00012236
-0.00371485
0.00373337
-0.000118816
-0.000119709
-0.00375162
0.00376983
-0.000116189
-0.000117079
-0.00378775
0.00380563
-0.000113549
-0.000114447
-0.00382322
0.00384075
-0.000110873
-0.000111792
-0.00385798
0.00387515
-0.000108134
-0.00010909
-0.00389201
0.00390882
-0.000105289
-0.000106307
-0.00392532
0.00394173
-0.000102286
-0.000103391
-0.00398932
0.00399176
-6.70597e-05
-0.000100318
-6.82778e-05
-2.90632e-06
-3.98816e-05
0.00406548
4.3995e-05
-4.89511e-05
0.00406747
0.00405377
-1.18077e-05
-5.04622e-06
0.00400525
0.00399437
-1.69761e-05
1.87216e-05
0.00400844
0.00399147
0.00407755
0.00405011
-0.00402318
-7.03734e-05
-0.00401623
0.00406862
-3.2625e-05
-8.53023e-05
0.00399554
-0.00394339
-0.000110991
-9.17783e-05
0.00392709
-0.00391043
-0.000113897
-0.00011182
0.00389375
-0.00387672
-0.000116519
-0.000114605
0.00385967
-0.00384226
-0.000118868
-0.000117089
0.00382484
-0.00380707
-0.000120989
-0.000119328
0.00378928
-0.00377116
-0.000122922
-0.000121363
0.00375302
-0.00373455
-0.000124703
-0.00012323
0.00371608
-0.00369728
-0.000126362
-0.000124961
0.00367847
-0.00365935
-0.000127933
-0.000126589
0.00364021
-0.00362075
-0.000129458
-0.00012815
0.00360128
-0.00358149
-0.000130968
-0.000129683
0.00356167
-0.00354155
-0.000132504
-0.00013122
0.00352138
-0.0035009
-0.000134097
-0.000132799
0.00348036
-0.00345951
-0.000135799
-0.00013446
0.00343858
-0.00341733
-0.000137651
-0.000136249
0.003396
-0.00337433
-0.000139703
-0.000138212
0.00335257
-0.00333046
-0.000142009
-0.000140401
0.00330825
-0.00328569
-0.000144616
-0.000142869
0.00326302
-0.00324003
-0.000147561
-0.000145655
0.00321694
-0.00319355
-0.000150855
-0.000148776
0.0031181
-0.00306486
-0.000154477
-0.000152313
0.00301455
-0.00297093
-0.000126992
-0.000156085
-5.43036e-05
5.85667e-05
-0.0029214
-0.00293548
-8.97615e-05
9.11343e-05
-0.00300415
3.52284e-06
-0.00297329
-4.57528e-05
0.00403593
0.00406955
-7.56405e-05
0.000182747
-0.00281257
-0.000287139
-0.00344033
1.4207e-05
-0.00288097
3.24653e-05
-0.00296042
6.09947e-05
-0.0029106
-0.00342926
-0.000743096
0.000245525
-0.000499035
-0.00317575
-0.000152445
-0.00304236
3.97455e-05
-0.00287364
-8.60897e-05
1.88424e-05
-0.00285415
-7.44268e-05
-0.00294714
-0.0030128
-0.00292733
0.00307957
-0.00017696
0.00305709
-0.00332952
-0.000470668
-0.000337813
-0.00319572
0.0032625
-0.000115608
-0.000108327
-0.00328366
0.00330479
-0.000177064
-0.000179097
-0.00332572
0.00334654
-0.000172715
-0.000174336
-0.00336714
0.00338768
-0.000168746
-0.000170232
-0.00340799
0.00342824
-0.000164984
-0.000166356
-0.00344823
0.00346816
-0.000161404
-0.000162691
-0.00348784
0.00350746
-0.000157954
-0.000159172
-0.00352684
0.00354615
-0.000154627
-0.000155778
-0.00356523
0.00358425
-0.000151412
-0.000152503
-0.00360303
0.00362176
-0.000148295
-0.000149333
-0.00364024
0.00365869
-0.000145256
-0.000146252
-0.00367688
0.00369504
-0.000142276
-0.00014324
-0.00371295
0.00373083
-0.00013933
-0.000140274
-0.00374846
0.00376605
-0.000136406
-0.000137337
-0.00378338
0.00380067
-0.000133481
-0.000134411
-0.0038177
0.00383468
-0.00013053
-0.000131473
-0.00385139
0.00386804
-0.000127529
-0.000128499
-0.00388441
0.00390073
-0.000124448
-0.000125461
-0.00391675
0.00393271
-0.000121251
-0.000122328
-0.00394838
0.00396399
-0.000117897
-0.00011906
-0.00397929
0.0040266
-0.000114371
-0.000115616
-0.00404351
0.0040669
-6.95746e-05
-8.51855e-05
-0.00402719
0.00405754
-7.61053e-05
-3.38672e-05
-8.8726e-06
1.06014e-05
0.00406574
7.96249e-05
-0.000114781
0.0040927
0.00410669
6.05046e-06
2.79459e-05
0.00403148
0.00407042
-1.15828e-05
-4.98966e-06
0.00402182
0.00401073
2.14774e-05
-3.78253e-05
0.00402479
0.00400796
2.48076e-05
-4.73992e-05
0.00407053
0.00406453
7.00782e-05
-7.9404e-05
0.00407887
0.00409094
0.00410198
-0.00404161
-9.29928e-05
-0.00409632
0.00408783
-7.09113e-05
-6.99814e-05
0.00403669
-0.00401338
-9.36851e-05
-9.02225e-05
0.0039813
-0.00396588
-0.000126411
-0.00012386
0.00395041
-0.0039346
-0.000129707
-0.000127294
0.00391876
-0.00390259
-0.000132692
-0.000130438
0.00388639
-0.00386986
-0.0001354
-0.000133287
0.0038533
-0.00383642
-0.000137871
-0.000135883
0.00381952
-0.0038023
-0.000140142
-0.000138264
0.00378507
-0.00376752
-0.000142248
-0.000140466
0.00374996
-0.0037321
-0.000144225
-0.000142522
0.00371421
-0.00369603
-0.000146113
-0.000144471
0.00367783
-0.00365934
-0.000147952
-0.000146351
0.00364082
-0.00362201
-0.00014978
-0.000148202
0.00360316
-0.00358403
-0.000151639
-0.000150063
0.00356485
-0.00354538
-0.000153569
-0.000151975
0.00352586
-0.00350604
-0.000155619
-0.000153982
0.00348616
-0.00346597
-0.000157835
-0.000156131
0.00344572
-0.00342515
-0.000160265
-0.000158469
0.00340451
-0.00338356
-0.000162959
-0.000161046
0.00336252
-0.00334118
-0.000165957
-0.000163908
0.00331975
-0.00329802
-0.000169285
-0.000167088
0.0032762
-0.00325409
-0.000172959
-0.0001706
0.00323194
-0.00320949
-0.000176928
-0.000174465
0.00318697
-0.00313266
-0.000181303
-0.000178609
0.00308046
-0.00300861
-0.000146279
-0.00014196
-0.000118783
7.06678e-05
-0.00289902
-0.00298808
-0.000139305
6.66013e-05
-0.00288801
-0.00334056
-0.000487989
6.36152e-05
-0.00286198
0.00412818
-0.00412637
-7.79134e-05
0.00413774
-0.000124339
-5.80749e-05
4.7203e-05
0.00408975
-6.05355e-05
0.00409029
4.35839e-06
-0.00294518
3.3219e-05
-0.00293265
-1.65379e-05
-0.00301688
6.16996e-05
-0.00293255
9.02354e-05
-0.00294503
0.000118825
-0.00290231
-0.00010602
0.000109933
-0.00290294
-0.000159712
-0.00293439
-0.00294184
-0.00334275
0.0032136
-0.000341511
-0.000425212
0.000502586
-0.00341794
0.00345515
-0.00356467
-0.000315692
-0.000375597
-0.00311634
0.00318965
-0.000250278
-0.000240553
-0.0032727
0.00332921
-0.000172113
-0.000191374
-0.00334924
0.00336919
-0.000197021
-0.000199126
-0.00338892
0.00340854
-0.000192337
-0.000194065
-0.00342792
0.00344722
-0.000188044
-0.000189607
-0.00346629
0.00348529
-0.000183985
-0.000185429
-0.00350406
0.00352277
-0.000180113
-0.000181463
-0.00354126
0.00355969
-0.000176382
-0.000177656
-0.00357789
0.00359604
-0.000172781
-0.000173983
-0.00361397
0.00363186
-0.000169296
-0.000170433
-0.00364952
0.00366713
-0.00016591
-0.000166991
-0.00368452
0.00370187
-0.000162606
-0.000163641
-0.00371899
0.00373608
-0.00015936
-0.000160361
-0.00375293
0.00376975
-0.00015615
-0.000157128
-0.00378634
0.00380289
-0.000152956
-0.000153922
-0.00381919
0.00383546
-0.000149751
-0.000150719
-0.00385148
0.00386746
-0.000146509
-0.000147494
-0.00388318
0.00389886
-0.000143202
-0.000144219
-0.00391426
0.00392961
-0.000139801
-0.000140867
-0.00394469
0.00395971
-0.00013627
-0.000137404
-0.00397445
0.00398912
-0.000132573
-0.000133797
-0.00400351
0.0040178
-0.000128665
-0.000130004
-0.00405862
0.00408692
-9.78684e-05
-0.000126007
-7.33197e-05
-5.47286e-05
1.39355e-05
0.00410654
5.59123e-05
-0.000101325
0.00413811
0.00410787
-4.32149e-05
2.73941e-05
0.0040473
0.00404114
-1.13347e-05
-4.90934e-06
0.00403806
0.00402679
2.10776e-05
-3.7137e-05
0.00404084
0.00402413
5.86711e-06
-3.3975e-05
0.00409864
0.00403326
0.00410417
0.004118
-0.00410696
-0.000104033
-0.0041221
0.00411567
-6.44737e-05
-7.40876e-05
0.00406323
-0.00401995
-0.000136968
-0.000133949
0.00400579
-0.00399128
-0.00014092
-0.000138018
0.00397674
-0.00396188
-0.000144569
-0.000141832
0.00394699
-0.00393178
-0.000147904
-0.000145327
0.00391654
-0.00390098
-0.000150955
-0.000148526
0.00388541
-0.00386952
-0.000153757
-0.000151462
0.00385361
-0.00383741
-0.000156348
-0.000154171
0.00382118
-0.00380467
-0.000158765
-0.00015669
0.00378813
-0.00377131
-0.000161046
-0.000159057
0.00375447
-0.00373735
-0.000163234
-0.00016131
0.00372021
-0.00370279
-0.000165372
-0.000163493
0.00368534
-0.00366762
-0.0001675
-0.000165647
0.00364987
-0.00363185
-0.000169663
-0.000167814
0.00361379
-0.00359545
-0.000171906
-0.000170037
0.00357707
-0.00355841
-0.000174277
-0.000172365
0.0035397
-0.00352071
-0.000176823
-0.000174843
0.00350166
-0.00348233
-0.000179591
-0.000177519
0.00346294
-0.00344327
-0.000182626
-0.00018044
0.00342353
-0.00340352
-0.000185965
-0.000183647
0.00338344
-0.0033631
-0.000189629
-0.00018717
0.00334267
-0.003322
-0.000193634
-0.000191023
0.00330125
-0.00328022
-0.000197958
-0.000195218
0.00325908
-0.00323771
-0.000202682
-0.000199741
0.00317501
-0.00311368
-0.000207609
-0.000204651
0.00307717
-0.00306303
-0.000173853
-0.000175815
-0.0003008
0.000117338
-0.0028589
-0.00297396
-0.000127744
0.000134159
-0.00294081
-0.00299821
-0.000192567
2.32277e-05
-0.00284762
-7.05649e-05
0.00410698
0.00416287
-0.000107742
0.000254314
-0.00351283
-0.000306146
5.07723e-06
-0.00291704
0.000323636
-0.00348726
2.04665e-05
-0.00289898
3.36505e-05
-0.0029046
4.07323e-05
-0.00294027
6.24168e-05
-0.00290474
9.14576e-05
-0.00291766
0.000120461
-0.00291284
0.00011845
-0.00288723
-0.000155034
0.000133174
-0.00291895
-0.000171341
-0.0029819
-0.00291354
-0.00361016
0.00348761
-0.000193143
-0.00038957
-0.0034348
0.00031153
0.00368493
-0.00356912
-0.000505373
-0.000231381
-0.00341167
0.00335875
-0.000288594
-0.000299651
-0.00334547
0.00332104
-0.000225853
-0.000227271
-0.00335289
0.00340208
-0.000221303
-0.000223219
-0.00342075
0.00343938
-0.000215649
-0.000217796
-0.00345778
0.00347609
-0.000210641
-0.000212471
-0.00349415
0.00351213
-0.000206025
-0.000207674
-0.00352989
0.00354758
-0.000201675
-0.00020319
-0.00356506
0.00358247
-0.000197528
-0.000198938
-0.00359968
0.00361684
-0.000193538
-0.000194862
-0.00363378
0.00365069
-0.000189685
-0.000190932