/*--------------------------------*- C++ -*----------------------------------*\
  =========                 |
  \\      /  F ield         | OpenFOAM: The Open Source CFD Toolbox
   \\    /   O peration     | Website:  https://openfoam.org
    \\  /    A nd           | Version:  10
     \\/     M anipulation  |
\*---------------------------------------------------------------------------*/
FoamFile
{
    format      ascii;
    class       volVectorField;
    location    "78";
    object      U;
}
// * * * * * * * * * * * * * * * * * * * * * * * * * * * * * * * * * * * * * //

dimensions      [0 1 -1 0 0 0 0];

internalField   nonuniform List<vector> 
28942
(
(0.00443099 -0.00225762 -3.4235e-22)
(0.00599738 -0.00234111 -6.36174e-23)
(0.0179356 -0.0123861 -8.2357e-22)
(0.103306 0.0182356 -5.25284e-21)
(0.102343 0.0222781 1.71992e-21)
(0.0141129 0.000434093 0)
(0.0167733 1.64751e-05 1.062e-23)
(0.019454 0.000560977 -9.38094e-24)
(0.135239 -0.0184291 -2.54404e-22)
(0.133895 -0.0167948 7.24162e-22)
(0.0097966 0.00401528 -6.73523e-22)
(0.0160707 0.00562968 2.554e-22)
(0.00713856 0.00315328 0)
(0.0047082 0.0020701 0)
(0.0441556 0.00196647 -1.47719e-23)
(0.0423686 0.00252902 -5.91563e-24)
(0.0893159 0.0158869 6.67023e-22)
(0.0870038 0.0138555 1.07353e-21)
(0.0121641 -0.0151119 2.91172e-21)
(0.0293296 -0.0304661 -7.66305e-22)
(0.0981183 0.0373963 9.50967e-22)
(0.0972968 0.0344324 0)
(0.0187408 0.00462754 1.16557e-21)
(0.00786432 0.00236379 5.4966e-22)
(0.037799 0.00721195 9.42714e-22)
(0.0575324 0.00291317 -8.59412e-22)
(0.00764749 -0.0184902 8.50028e-21)
(0.00669346 -0.0165548 -3.1309e-21)
(0.0355083 -0.0253216 5.70859e-22)
(0.0192996 -0.0136814 1.97017e-22)
(0.0144853 -0.00132998 0)
(0.0181099 -0.00115096 -1.33692e-23)
(0.0230179 0.00417386 2.7866e-22)
(0.0331819 0.00187085 -4.31688e-23)
(0.0188254 0.0180095 1.31185e-21)
(0.0157199 0.0191195 -1.302e-21)
(0.0321694 0.037617 -3.04903e-21)
(0.0186691 0.0305354 -1.0676e-21)
(0.00773458 -9.53836e-06 -8.87314e-24)
(0.00864881 0.016197 -2.61186e-21)
(0.0306492 -0.00620319 0)
(0.0513425 -0.0109694 0)
(0.111873 -0.011792 -2.69262e-23)
(0.111371 -0.011793 7.94053e-23)
(0.115916 -0.0116904 6.91875e-23)
(0.0274412 0.000185452 1.12679e-23)
(0.0255506 -0.000592207 -1.81204e-23)
(0.0365259 -0.000482854 -8.26886e-23)
(0.0349989 -0.000552752 2.35679e-23)
(0.0284359 -0.00265615 -2.04979e-22)
(0.0211435 -0.00318317 1.33183e-22)
(0.128651 0.0013181 -3.99017e-22)
(0.127966 0.000845438 -3.72843e-22)
(0.134557 -0.0211969 -3.77147e-24)
(0.13301 -0.0194705 1.3829e-22)
(0.0824932 0.00635692 7.15621e-22)
(0.101747 -0.000762013 2.49502e-22)
(0.00305888 0.00162089 -5.64949e-22)
(0.00894372 0.00367975 0)
(0.00825805 0.00328921 2.3715e-22)
(0.00288291 0.00148819 4.87515e-22)
(0.000362267 0.000226272 -4.05303e-22)
(0.000192896 0.00012268 -3.89492e-22)
(0.10977 -0.0426069 0)
(0.104901 -0.0256114 1.26693e-22)
(0.121772 -0.0331149 -4.35882e-23)
(0.123419 -0.0437689 0)
(0.0901068 -0.0328037 -6.37817e-22)
(0.0936107 -0.0352706 -4.1917e-22)
(0.00188595 -0.00113011 1.13191e-21)
(0.0024899 -0.00201818 -3.5666e-22)
(0.00487477 -0.00315713 8.84905e-22)
(0.0848767 -0.0457609 0)
(0.0912026 -0.0396244 2.16485e-21)
(0.0805457 -0.0530267 5.84852e-22)
(0.114139 0.0123991 2.38533e-22)
(0.112739 0.00689535 -2.64493e-22)
(0.125107 0.010999 -1.13693e-22)
(0.00468364 -0.002862 -5.33814e-23)
(0.00633885 -0.0044261 4.46067e-22)
(0.0510106 -0.0311479 1.25365e-22)
(0.0331561 -0.0205376 -2.56958e-22)
(0.00211168 -0.000596447 3.20622e-21)
(0.0051582 -0.00207325 -1.24933e-21)
(0.100988 0.0482484 1.29504e-23)
(0.0970345 0.0552158 -7.62852e-22)
(0.0807247 0.0540129 6.95943e-22)
(0.0472068 0.0345113 -2.67504e-21)
(0.0444351 0.0316074 1.89442e-21)
(0.0294931 0.0205962 -1.13164e-22)
(0.0327137 0.023249 -6.40014e-22)
(0.0379549 0.0283588 8.6756e-22)
(0.00440906 0.00272574 -5.91696e-23)
(0.00776271 0.00397795 -1.70559e-23)
(0.0031889 0.00202097 3.41782e-23)
(0.00192314 0.00164453 -4.57137e-22)
(0.0014498 0.001568 5.60674e-22)
(0.0157428 0.011544 -3.24726e-21)
(0.0174956 0.0136358 7.43626e-22)
(0.0088061 -0.00384782 0)
(0.101389 0.00515945 0)
(0.0984003 0.0156833 -3.95437e-21)
(0.0604411 0.0104756 1.9379e-21)
(0.0886808 0.0178812 0)
(0.135463 -0.00111291 0)
(0.134901 -0.00182766 0)
(0.13321 -0.00232134 -2.47407e-22)
(0.114974 0.0266058 -2.11523e-22)
(0.114066 0.0280088 2.09149e-21)
(0.113268 0.0254688 1.12233e-21)
(0.0022943 0.00129947 1.05366e-21)
(0.00151159 0.000777365 -1.18263e-21)
(0.0190529 -0.00553743 -5.50722e-22)
(0.0201339 -0.00506676 4.70369e-22)
(0.00910251 -0.00292937 9.29763e-22)
(0.00647663 0.0111491 1.47736e-21)
(0.0189679 0.0181601 3.45333e-21)
(0.0134651 0.0227999 2.72185e-22)
(0.00492084 0.0143061 -8.61362e-21)
(0.116992 0.0477505 5.52501e-23)
(0.107866 0.0582398 1.06534e-21)
(0.118327 0.0548771 -1.83728e-21)
(0.0390874 -0.0294151 7.29446e-22)
(0.024007 -0.0172634 -4.66034e-22)
(0.00532104 -0.000741907 -4.09861e-21)
(0.00453809 -0.00359192 0)
(0.0124958 -0.00167211 2.00045e-21)
(0.0219621 -0.0161289 7.76656e-22)
(0.0342519 -0.0277816 -1.95044e-21)
(0.0345385 -2.19413e-05 5.7172e-23)
(0.0367264 0.00013744 -4.18399e-23)
(0.0324296 0.000157242 -1.76802e-24)
(0.0280526 -0.0419445 0)
(0.029602 -0.0428359 0)
(0.089623 -0.018653 -4.62009e-22)
(0.0995909 -0.0220907 3.13945e-21)
(0.0870344 -0.0252786 0)
(0.0471128 -0.0401844 0)
(0.0581727 -0.0513797 -7.81144e-22)
(0.0413117 0.0393376 2.08216e-21)
(-2.50494e-06 0.000214232 5.14504e-22)
(-0.000194402 0.000130868 -3.39203e-22)
(0.0223245 -0.0192387 -7.89306e-22)
(0.120319 -0.0115625 3.90103e-22)
(0.119688 -0.0115099 -7.55007e-23)
(0.115439 -0.0057169 -6.6837e-23)
(0.108367 0.000986224 8.90697e-23)
(0.117632 -0.000312658 1.82369e-22)
(8.2124e-05 0.000259084 1.9853e-22)
(0.0437445 0.0344188 3.19775e-21)
(0.0618739 0.046308 -7.86374e-22)
(0.059309 0.039365 -3.00989e-24)
(0.0225443 -0.000831697 5.5943e-24)
(0.0222137 -0.000814391 2.92626e-23)
(0.0241066 -0.000591395 1.13756e-24)
(0.0269167 -0.000599313 -1.4415e-23)
(0.0454188 0.0380896 1.33773e-22)
(0.0189614 0.0160588 0)
(0.000139322 -2.93683e-05 3.70065e-22)
(0.000422535 -0.000256638 -4.10567e-22)
(0.00186101 -0.00101163 2.86599e-22)
(0.0365558 -0.00772211 -1.84467e-21)
(0.0648676 -0.00210335 -7.52746e-22)
(0.0313057 -0.000210681 -2.18139e-24)
(0.0744763 -0.0076433 2.7143e-22)
(0.0706873 -0.0157274 6.26881e-23)
(0.0943049 0.0399188 2.13999e-21)
(0.0914057 0.0454543 9.92838e-23)
(0.088749 0.0290864 1.21389e-21)
(0.0914744 0.0308032 -8.79695e-22)
(0.098697 0.0410798 0)
(0.126112 -0.000336431 1.48676e-22)
(0.126882 -0.000770296 2.80745e-22)
(0.128094 -0.0123363 -2.93999e-22)
(0.129558 -0.0121409 5.03162e-22)
(0.117055 0.0241492 2.59329e-22)
(0.119113 0.0250498 -7.34336e-22)
(0.117101 0.0261618 0)
(0.115135 0.0248994 1.52914e-22)
(0.116672 0.0280842 0)
(0.117175 0.0361055 -5.49944e-22)
(0.115712 0.0381573 -3.00298e-22)
(0.111338 0.0419701 -5.3953e-22)
(0.113733 0.0401023 0)
(0.116421 0.0430775 1.78425e-21)
(0.113699 0.0450001 4.73877e-23)
(0.108332 0.044181 -3.03135e-22)
(0.09963 0.0502838 -1.28478e-21)
(0.0984202 0.0454955 -2.26368e-22)
(0.0249637 -0.00848469 6.03057e-23)
(0.0328214 -0.00934262 -2.40545e-23)
(0.00628569 -0.00248893 -6.94693e-22)
(0.030699 -8.3571e-05 -3.63655e-23)
(0.0393504 -0.000270756 0)
(-2.85142e-06 -4.02115e-05 4.35153e-22)
(1.33017e-05 -4.73927e-05 2.21581e-22)
(0.0356064 -0.0018103 1.72317e-23)
(0.0420891 -0.00175874 7.07698e-24)
(0.0416363 -0.00120809 0)
(0.0344354 -0.000830138 7.58638e-24)
(0.0860851 0.00353945 -1.08904e-22)
(0.0853239 0.0032062 5.14513e-22)
(0.0861961 0.00329699 2.37997e-22)
(0.000670606 0.000271808 3.93911e-22)
(-0.000159489 -0.000129313 -5.70456e-22)
(-0.000201145 -0.000169033 4.86457e-22)
(0.0015003 0.000617454 0)
(7.99359e-05 8.7798e-05 1.14056e-21)
(0.000171947 -3.89916e-05 -8.2271e-22)
(0.00744823 0.00367349 -9.92874e-22)
(0.00145169 0.000781341 -1.18522e-21)
(0.0017206 0.000860653 0)
(0.00157199 0.00754363 0)
(0.000576949 0.00328109 0)
(0.000313305 0.00197676 0)
(0.136635 -0.00112586 5.54403e-23)
(0.137645 -0.000961337 0)
(0.136008 -0.00191119 -6.46631e-23)
(0.088111 -0.0148536 4.41997e-21)
(0.0901177 -0.0152628 -1.60444e-21)
(0.0890331 -0.0128782 0)
(0.0976778 0.000285888 -6.45344e-24)
(0.0983027 0.000274353 1.29156e-23)
(0.0970515 0.000297452 -4.36212e-24)
(0.0989229 0.000265304 0)
(0.0995417 0.000265052 -8.24517e-24)
(0.100154 0.000259364 0)
(0.100153 -0.000391493 0)
(0.100758 0.000241897 3.0637e-23)
(0.10075 -0.000413626 0)
(0.0995482 -0.000381693 -8.30317e-24)
(0.0989294 -0.000377115 0)
(0.0983082 -0.000371531 4.3171e-24)
(0.0976804 -0.000369709 -6.44917e-24)
(0.0970561 -0.000366302 4.35667e-24)
(0.101349 0.000222818 -2.93171e-23)
(0.101344 -0.000428781 -1.02541e-24)
(0.0964163 0.000314614 -8.04227e-29)
(0.0964157 -0.000355952 -6.65345e-24)
(0.0957709 0.000330145 3.53705e-23)
(0.101932 0.000211228 2.74068e-26)
(0.101943 -0.000434681 -1.02687e-24)
(0.095774 -0.000353617 1.31071e-23)
(0.102516 0.000199034 2.76144e-23)
(0.103097 0.000189836 -2.75917e-23)
(0.102532 -0.000440789 2.06707e-24)
(0.103114 -0.000444453 4.08783e-24)
(0.0951449 0.000357119 -3.44137e-23)
(0.0951402 -0.000349635 -8.62595e-24)
(0.103672 0.000179344 0)
(0.103691 -0.000448681 -4.03198e-24)
(0.0944962 0.000373721 4.2536e-27)
(0.0944928 -0.000339588 -4.26426e-27)
(0.104243 0.000171509 0)
(0.104262 -0.000450686 0)
(0.0938424 0.000386741 0)
(0.0938388 -0.000333007 0)
(0.104808 0.000162102 0)
(0.104827 -0.000453404 1.93804e-24)
(0.0931838 0.000399887 -1.78199e-23)
(0.0931793 -0.000325205 -4.34985e-27)
(0.105368 0.000155271 1.01603e-25)
(0.105387 -0.00045383 -2.06985e-24)
(0.09252 0.000411088 1.79051e-23)
(0.0925149 -0.000319011 0)
(0.105922 0.000146764 0)
(0.105941 -0.000454787 0)
(0.0918517 0.000422861 -1.13189e-24)
(0.091846 -0.000310505 1.942e-23)
(0.10647 0.000140831 1.25648e-23)
(0.106489 -0.000453013 0)
(0.0911797 0.000432617 -9.54822e-26)
(0.0911723 -0.000302181 -1.83803e-23)
(0.107013 0.000133348 -1.87939e-23)
(0.107031 -0.000451633 -5.45397e-24)
(0.0904889 0.000435532 1.87327e-23)
(0.0904844 -0.000294176 0)
(0.10755 0.00012945 6.19032e-24)
(0.10757 -0.000444012 3.63742e-24)
(0.0897964 0.00044526 -9.47397e-24)
(0.0897917 -0.000289249 1.92082e-23)
(0.108078 0.000128255 -2.47191e-23)
(0.108107 -0.000428526 2.78607e-23)
(0.0890731 0.000439611 9.76187e-24)
(0.0890775 -0.000290095 3.08824e-25)
(0.108607 0.000129951 0)
(0.108634 -0.000413409 1.32748e-23)
(0.088343 0.000434284 -1.96246e-23)
(0.0883544 -0.000298491 3.9253e-23)
(0.10915 0.000122924 0)
(0.10916 -0.000404226 0)
(0.0893563 0.00116389 -9.6593e-24)
(0.0886214 0.00116523 -3.90695e-23)
(0.0875897 0.00042233 0)
(0.0876182 -0.000318931 -1.99866e-23)
(0.090778 0.00115146 -6.07093e-24)
(0.0900701 0.00115871 1.19209e-24)
(0.0921343 0.00112246 0)
(0.0914538 0.00113665 -1.96197e-23)
(0.0934589 0.00108883 -3.79396e-26)
(0.0927997 0.00110619 0)
(0.0947602 0.00105139 0)
(0.0941123 0.00107052 0)
(0.0960416 0.00100618 0)
(0.0954034 0.00103062 0)
(0.0972791 0.000959999 8.61567e-24)
(0.0966565 0.00098193 2.17056e-24)
(0.098516 0.000925897 -8.31315e-24)
(0.0979044 0.000942559 -8.60086e-24)
(0.0997324 0.000897207 1.47768e-23)
(0.0991203 0.000905279 1.8867e-23)
(0.100949 0.000873162 0)
(0.100342 0.000888326 0)
(0.102127 0.000846203 -6.49957e-26)
(0.101542 0.000859466 0)
(0.103282 0.000817189 0)
(0.102707 0.000831764 0)
(0.104418 0.000788063 0)
(0.103853 0.000802467 0)
(0.105531 0.000759811 0)
(0.104977 0.000773734 0)
(0.106623 0.000732528 0)
(0.10608 0.000745977 0)
(0.10769 0.000705802 0)
(0.10716 0.000719068 0)
(0.10874 0.000662733 -1.00974e-23)
(0.108215 0.000691415 0)
(0.109264 0.000640272 -3.26e-24)
(0.109679 0.000111726 3.1834e-24)
(0.109687 -0.000399074 -3.15691e-24)
(0.10824 -0.000952557 0)
(0.109283 -0.000920961 -1.29541e-23)
(0.108763 -0.000935693 -6.67651e-24)
(0.107174 -0.000983394 1.82781e-24)
(0.107708 -0.000969865 -7.15119e-24)
(0.106093 -0.00100185 5.91799e-26)
(0.106636 -0.000994551 0)
(0.104989 -0.00101201 0)
(0.105543 -0.00100738 0)
(0.103862 -0.00101871 0)
(0.104428 -0.00101564 0)
(0.102712 -0.00102303 0)
(0.10329 -0.00102101 7.78297e-30)
(0.101541 -0.00102666 6.56111e-26)
(0.102129 -0.0010247 0)
(0.100354 -0.00102191 0)
(0.100947 -0.00102606 0)
(0.0991419 -0.00101407 0)
(0.0997485 -0.00101745 0)
(0.0979082 -0.00101143 0)
(0.0985262 -0.00101003 -4.3647e-24)
(0.0966547 -0.00101439 1.1462e-24)
(0.0972828 -0.00101628 -5.62376e-24)
(0.0953932 -0.00101944 0)
(0.0960308 -0.00101529 -4.57276e-24)
(0.0941008 -0.00101825 0)
(0.09475 -0.00101908 0)
(0.0927848 -0.00101625 0)
(0.0934457 -0.00101725 0)
(0.0914404 -0.00101244 0)
(0.0921172 -0.00101461 0)
(0.0900621 -0.00100895 -4.96425e-24)
(0.090757 -0.00100923 0)
(0.0886537 -0.00102543 -2.00812e-23)
(0.0893619 -0.00101167 -4.98582e-24)
(0.0879278 -0.00104441 2.04325e-23)
(0.0878732 0.00116808 3.87295e-23)
(0.109787 0.000621684 6.38169e-24)
(0.109801 -0.000905682 -1.24636e-23)
(0.0868604 -0.000350776 0)
(0.0871942 -0.00107858 0)
(0.0871126 0.00117062 0)
(0.086823 0.000402608 0)
(0.0899204 0.00187298 0)
(0.0884782 0.00190911 9.70092e-24)
(0.0892042 0.00188908 9.79965e-24)
(0.0913205 0.00183475 1.24662e-23)
(0.0906264 0.00185507 -2.49134e-24)
(0.0926527 0.00178738 3.85796e-26)
(0.0919918 0.00181111 0)
(0.0939555 0.00173961 0)
(0.0933072 0.00176364 0)
(0.0952345 0.00169106 0)
(0.0945978 0.00171542 0)
(0.0964938 0.00164438 0)
(0.0958661 0.00166674 0)
(0.0977265 0.00159659 0)
(0.0971126 0.00162116 0)
(0.0989401 0.00155406 -3.48444e-26)
(0.0983319 0.00157615 8.98452e-24)
(0.100126 0.00150985 -3.34574e-26)
(0.099539 0.00153074 -1.75458e-23)
(0.101311 0.00146466 0)
(0.100719 0.00148622 0)
(0.10247 0.00142409 3.24523e-26)
(0.101893 0.00144403 0)
(0.103607 0.00138431 0)
(0.103041 0.00140417 0)
(0.104723 0.00134474 0)
(0.104167 0.00136446 0)
(0.105818 0.00130558 0)
(0.105273 0.00132509 0)
(0.106891 0.00126673 0)
(0.106357 0.00128612 0)
(0.10794 0.00122662 0)
(0.107418 0.00124711 0)
(0.108971 0.00117219 6.89657e-24)
(0.108457 0.00120206 0)
(0.110203 0.000105592 0)
(0.1103 0.000603663 6.23617e-24)
(0.109994 0.00111752 0)
(0.109483 0.00114443 6.71816e-24)
(0.109511 -0.00142844 1.3367e-23)
(0.110017 -0.00140589 3.28173e-24)
(0.110314 -0.000894457 2.5622e-23)
(0.110207 -0.000391035 0)
(0.108485 -0.00147374 0)
(0.109 -0.0014512 -2.01822e-23)
(0.107441 -0.00151345 5.74937e-26)
(0.107966 -0.00149331 7.19468e-24)
(0.106377 -0.00154182 -5.91796e-26)
(0.106912 -0.00152875 0)
(0.105292 -0.00156363 0)
(0.105837 -0.00155328 0)
(0.104183 -0.00158162 0)
(0.10474 -0.001573 0)
(0.103053 -0.00159694 0)
(0.103621 -0.00158953 -7.78295e-30)
(0.101903 -0.00161058 -1.31124e-25)
(0.102481 -0.00160393 0)
(0.100735 -0.00162069 0)
(0.101321 -0.00161627 0)
(0.0995426 -0.00162893 2.20183e-24)
(0.100142 -0.00162462 0)
(0.0983338 -0.0016354 0)
(0.0989392 -0.00163006 -2.19265e-24)
(0.0971037 -0.00164682 4.58299e-24)
(0.0977174 -0.00164133 4.55712e-24)
(0.0958527 -0.00165508 0)
(0.0964819 -0.0016512 0)
(0.0945791 -0.00166487 0)
(0.0952187 -0.00165987 0)
(0.0932818 -0.00167562 0)
(0.0939335 -0.00167008 0)
(0.0919579 -0.00168812 0)
(0.0926234 -0.00168151 0)
(0.0906041 -0.00170457 7.93228e-26)
(0.091285 -0.00169572 0)
(0.0892172 -0.00172819 -8.03489e-26)
(0.089916 -0.00171561 0)
(0.0877992 -0.00178559 -2.10022e-23)
(0.0885112 -0.00175322 2.09926e-23)
(0.0877382 0.00192914 1.97226e-23)
(0.0864558 -0.00112463 0)
(0.08708 -0.00183101 -4.26713e-23)
(0.0861022 -0.000389862 0)
(0.110497 0.0010973 0)
(0.110521 -0.00138259 -3.18247e-24)
(0.0863461 0.00117314 4.99165e-23)
(0.0869925 0.0019499 1.99631e-23)
(0.0857018 -0.0011735 1.07914e-23)
(0.086351 -0.00188435 5.39241e-23)
(0.086044 0.000378533 0)
(0.1103 0.00160821 2.6243e-23)
(0.110788 0.00157773 -1.29593e-23)
(0.110816 -0.000879057 -6.30346e-24)
(0.111015 -0.00135596 3.13331e-23)
(0.0879691 0.00269821 7.00545e-23)
(0.0862268 0.00196993 -3.93287e-23)
(0.0864734 0.00275815 -1.75535e-22)
(0.0872179 0.00272462 -4.00119e-23)
(0.0893901 0.00262797 1.95167e-23)
(0.0886856 0.00266446 -5.96168e-23)
(0.0907624 0.00255965 -1.99687e-23)
(0.0900829 0.00259368 -1.50514e-23)
(0.0921093 0.00249761 -4.98474e-24)
(0.0914425 0.0025297 -4.98517e-24)
(0.0934097 0.00243729 -3.85796e-26)
(0.0927656 0.00246778 0)
(0.0946788 0.00237645 0)
(0.0940474 0.00240678 0)
(0.0959243 0.00231668 0)
(0.0953043 0.00234643 0)
(0.0971491 0.0022589 0)
(0.0965392 0.00228737 0)
(0.0983525 0.00220369 0)
(0.0977532 0.00223071 0)
(0.0995346 0.00214896 0)
(0.0989455 0.00217606 0)
(0.100697 0.00209611 6.8292e-29)
(0.100119 0.00212323 0)
(0.101844 0.0020418 0)
(0.101272 0.0020685 0)
(0.102973 0.00199027 3.23589e-26)
(0.102411 0.00201578 0)
(0.104081 0.00193994 0)
(0.103529 0.00196503 0)
(0.10517 0.00188998 0)
(0.104628 0.00191494 0)
(0.106237 0.00184008 0)
(0.105706 0.00186504 0)
(0.107283 0.00178982 0)
(0.106763 0.00181504 0)
(0.108307 0.00173725 0)
(0.107798 0.00176414 0)
(0.10931 0.00167395 3.50956e-24)
(0.108811 0.00170687 -1.76657e-24)
(0.109807 0.00164146 -1.33903e-23)
(0.11071 0.000104064 -2.98745e-24)
(0.110993 0.00107575 1.24818e-23)
(0.110803 0.000592341 -9.55227e-24)
(0.110713 -0.000390974 0)
(0.109842 -0.00192401 -9.94509e-24)
(0.110819 -0.0018587 -2.86836e-23)
(0.110333 -0.0018927 2.31043e-23)
(0.108846 -0.00198591 0)
(0.109346 -0.00195452 0)
(0.107828 -0.00203132 -9.69476e-29)
(0.108339 -0.00200775 0)
(0.106792 -0.0020708 0)
(0.107313 -0.00205206 0)
(0.105733 -0.00210395 -6.06179e-26)
(0.106265 -0.00208799 0)
(0.104652 -0.00213288 0)
(0.105195 -0.00211888 0)
(0.10355 -0.0021586 0)
(0.104103 -0.0021461 0)
(0.102428 -0.00218178 6.55228e-26)
(0.102992 -0.00217049 0)
(0.101288 -0.00220226 6.6986e-26)
(0.10186 -0.00219236 0)
(0.100126 -0.00222158 0)
(0.100709 -0.00221188 0)
(0.0989457 -0.00224011 0)
(0.0995389 -0.00223105 0)
(0.0977448 -0.00225959 0)
(0.0983469 -0.00224944 0)
(0.0965229 -0.00227827 0)
(0.0971367 -0.00226869 0)
(0.0952789 -0.00229932 -7.47197e-26)
(0.0959037 -0.00228855 0)
(0.0940115 -0.00232262 0)
(0.0946483 -0.00231065 0)
(0.0927181 -0.0023492 0)
(0.0933682 -0.0023354 0)
(0.0913962 -0.00238091 -1.5209e-28)
(0.0920608 -0.0023643 0)
(0.0900439 -0.00241967 1.68307e-28)
(0.0907242 -0.0023994 0)
(0.0886635 -0.00247569 8.29101e-26)
(0.0893542 -0.00244293 0)
(0.08726 -0.00256778 -4.35712e-23)
(0.0879636 -0.00251631 1.07162e-23)
(0.0856117 -0.00193802 1.09623e-23)
(0.0865602 -0.00262729 2.17857e-23)
(0.0855693 0.00116889 -1.95524e-23)
(0.085327 -0.000432653 -2.09043e-23)
(0.111271 0.00154744 3.17015e-24)
(0.111302 -0.001829 2.25404e-23)
(0.0854251 0.00196938 2.4601e-24)
(0.0849385 -0.00122983 0)
(0.0854835 0.00266664 2.69051e-22)
(0.0858549 -0.00268952 3.34616e-23)
(0.0848786 -0.001997 4.46713e-23)
(0.0871275 0.00367295 -4.42805e-22)
(0.0868558 0.00381832 8.12343e-23)
(0.085272 0.000356716 0)
(0.0879391 0.00351012 4.49618e-23)
(0.0874252 0.00361477 2.29371e-23)
(0.0892252 0.00340272 4.0601e-23)
(0.0885437 0.00344573 -6.1887e-23)
(0.0905715 0.00330958 -2.02055e-23)
(0.0899089 0.00335809 -1.00791e-23)
(0.091871 0.00322344 1.0133e-23)
(0.0912251 0.00326526 1.02581e-23)
(0.0931475 0.0031422 0)
(0.0925098 0.00318124 -1.74853e-26)
(0.0943942 0.00306676 0)
(0.0937742 0.00310438 0)
(0.0956175 0.00299354 3.7695e-26)
(0.0950087 0.00302979 0)
(0.0968192 0.00292295 0)
(0.0962209 0.00295796 0)
(0.0980011 0.00285491 0)
(0.0974126 0.00288859 0)
(0.0991632 0.0027894 0)
(0.0985845 0.00282183 0)
(0.100306 0.00272538 3.46441e-26)
(0.0997368 0.00275713 0)
(0.10143 0.00266277 7.56009e-29)
(0.100871 0.00269424 0)
(0.102538 0.00260035 0)
(0.101986 0.00263133 0)
(0.103628 0.00253942 -6.46478e-26)
(0.103085 0.00256975 0)
(0.1047 0.00247929 0)
(0.104166 0.00250931 0)
(0.105752 0.00241932 0)
(0.105228 0.00244932 0)
(0.106784 0.00235901 0)
(0.106271 0.00238925 0)
(0.107796 0.00229773 0)
(0.107293 0.00232856 0)
(0.108786 0.00223362 0)
(0.108293 0.00226628 0)
(0.109756 0.00216407 -1.75256e-24)
(0.109272 0.00219839 0)
(0.110707 0.00208675 0)
(0.110233 0.00212578 -3.39381e-24)
(0.111638 0.00200527 -3.6977e-27)
(0.111177 0.00204696 0)
(0.111477 0.00105498 -1.26552e-23)
(0.112102 0.00197066 7.6148e-25)
(0.11175 0.00152106 6.19045e-24)
(0.111202 9.85735e-05 4.55582e-24)
(0.111294 0.000579403 -3.14447e-24)
(0.111308 -0.000863004 -1.58404e-24)
(0.111207 -0.000384888 1.58015e-24)
(0.111776 -0.00179956 0)
(0.111499 -0.00133635 -1.43624e-23)
(0.111215 -0.00232889 -6.44539e-24)
(0.112137 -0.00225416 -1.23352e-23)
(0.11168 -0.00229105 2.83296e-23)
(0.110275 -0.00240739 -3.38375e-24)
(0.110747 -0.00236889 0)
(0.109313 -0.00247686 0)
(0.109796 -0.00244228 0)
(0.108332 -0.00253436 -1.20696e-28)
(0.108825 -0.00250674 0)
(0.107329 -0.00258459 0)
(0.107833 -0.00256036 0)
(0.106305 -0.00262873 6.06179e-26)
(0.10682 -0.00260732 0)
(0.10526 -0.00266825 0)
(0.105785 -0.00264901 0)
(0.104194 -0.00270407 0)
(0.10473 -0.00268659 0)
(0.10311 -0.0027369 0)
(0.103654 -0.00272084 0)
(0.102006 -0.00276729 -1.51484e-28)
(0.10256 -0.00275236 0)
(0.100882 -0.00279649 0)
(0.101446 -0.00278196 0)
(0.0997393 -0.00282508 0)
(0.100313 -0.00281086 0)
(0.0985771 -0.00285429 0)
(0.0991604 -0.0028395 0)
(0.0973944 -0.00288408 0)
(0.0979884 -0.00286896 0)
(0.0961901 -0.00291634 7.47197e-26)
(0.096795 -0.00289988 0)
(0.0949631 -0.00295182 0)
(0.0955796 -0.00293364 0)
(0.0937115 -0.00299176 0)
(0.0943405 -0.00297114 0)
(0.0924332 -0.00303794 -7.91632e-26)
(0.0930758 -0.00301396 0)
(0.091127 -0.00309186 8.05836e-26)
(0.0917838 -0.00306393 0)
(0.0897916 -0.00315587 -8.19733e-26)
(0.0904626 -0.00312232 0)
(0.088437 -0.00323873 1.07651e-23)
(0.0891122 -0.00319231 -2.12393e-23)
(0.0870887 -0.00335658 -1.0834e-23)
(0.0877595 -0.00329228 2.20302e-23)
(0.0851379 -0.00274894 2.95916e-25)
(0.0864049 -0.00342152 2.22174e-23)
(0.084775 0.00114598 -2.00246e-23)
(0.0845503 -0.000465326 0)
(0.084609 0.00191807 -1.93531e-22)
(0.0841688 -0.00127026 0)
(0.112099 0.00245584 -3.15899e-24)
(0.112535 0.00240701 2.31367e-24)
(0.112241 -0.00176958 -1.21198e-23)
(0.112588 -0.00220928 -1.37124e-23)
(0.0845159 0.00260486 -1.88236e-22)
(0.0841365 -0.00205213 -4.51083e-23)
(0.0859491 0.0037981 0)
(0.0885445 0.00435522 -5.12778e-23)
(0.0844216 -0.00280954 -2.21386e-23)
(0.085713 -0.00348473 3.35979e-23)
(0.0879523 0.00434519 1.0298e-22)
(0.0844881 0.000332436 0)
(0.0894965 0.00418331 0)
(0.0889884 0.00427297 -4.57069e-23)
(0.0907128 0.00405644 0)
(0.0900866 0.00411679 0)
(0.0919689 0.00394772 0)
(0.0913429 0.00399944 1.04421e-23)
(0.0931921 0.00384942 0)
(0.0925825 0.00389807 0)
(0.0943999 0.00375654 0)
(0.0937979 0.00380166 0)
(0.0955879 0.00366958 0)
(0.0949965 0.00371274 0)
(0.0967561 0.00358586 -3.7695e-26)
(0.0961744 0.00362729 0)
(0.0979052 0.00350537 0)
(0.097333 0.00354525 0)
(0.0990359 0.0034278 0)
(0.0984728 0.00346624 0)
(0.100148 0.00335283 0)
(0.0995944 0.00339003 0)
(0.101243 0.00327982 -9.18361e-29)
(0.100698 0.00331611 0)
(0.102321 0.00320835 8.93022e-29)
(0.101784 0.00324402 0)
(0.103382 0.00313756 0)
(0.102853 0.00317281 0)
(0.104426 0.00306778 8.41332e-29)
(0.103906 0.00310259 0)
(0.105453 0.00299842 0)
(0.104942 0.00303309 0)
(0.106461 0.0029289 0)
(0.105959 0.00296373 0)
(0.107451 0.00285862 0)
(0.106959 0.00289391 0)
(0.108421 0.00278683 0)
(0.107938 0.00282298 0)
(0.10937 0.00271218 0)
(0.108898 0.00275 0)
(0.110299 0.00263356 0)
(0.109837 0.00267344 0)
(0.111208 0.0025475 3.36084e-24)
(0.110755 0.00258963 3.44535e-24)
(0.111656 0.00250108 -6.44991e-24)
(0.11195 0.00103446 -6.20871e-24)
(0.112558 0.00193649 0)
(0.112213 0.00148966 -6.2627e-24)
(0.111682 9.52836e-05 0)
(0.111769 0.000568646 6.33639e-24)
(0.111785 -0.000849024 9.45994e-24)
(0.111687 -0.000378817 -3.1987e-24)
(0.111972 -0.00131299 -1.85855e-23)
(0.111702 -0.00278409 3.23929e-24)
(0.112578 -0.00268448 1.20362e-23)
(0.112146 -0.00274054 0)
(0.110804 -0.00287168 -6.72232e-24)
(0.111256 -0.00282962 6.74447e-24)
(0.109884 -0.00295002 0)
(0.110347 -0.00291262 0)
(0.108944 -0.00301843 -1.42572e-28)
(0.109417 -0.0029853 0)
(0.107983 -0.00307932 0)
(0.108466 -0.00304974 0)
(0.107002 -0.00313403 0)
(0.107495 -0.00310738 0)
(0.105999 -0.00318374 0)
(0.106503 -0.00315946 0)
(0.104978 -0.00322937 0)
(0.105491 -0.00320703 0)
(0.103937 -0.00327173 6.50856e-26)
(0.10446 -0.00325092 0)
(0.102878 -0.00331169 -6.68345e-26)
(0.10341 -0.00329196 0)
(0.101801 -0.00335041 0)
(0.102342 -0.00333115 0)
(0.100704 -0.00338867 0)
(0.101255 -0.00336957 0)
(0.0995892 -0.00342759 0)
(0.100149 -0.003408 0)
(0.0984545 -0.00346786 0)
(0.0990244 -0.00344747 0)
(0.0972991 -0.00351097 0)
(0.0978794 -0.00348901 0)
(0.0961223 -0.00355803 0)
(0.0967135 -0.00353395 0)
(0.0949224 -0.00361038 -7.73106e-26)
(0.0955253 -0.00358346 0)
(0.0936984 -0.00366966 7.87571e-26)
(0.0943135 -0.00363906 0)
(0.0924494 -0.00373728 -8.0169e-26)
(0.0930771 -0.0037024 0)
(0.0911753 -0.00381433 0)
(0.0918154 -0.00377455 0)
(0.0898764 -0.00390147 0)
(0.0905284 -0.00385647 0)
(0.0885687 -0.00400403 8.52111e-26)
(0.0892249 -0.00395025 1.08243e-23)
(0.0872539 -0.00413226 -5.63137e-23)
(0.0879065 -0.00406442 0)
(0.0850357 -0.00355705 -3.33817e-23)
(0.0866023 -0.00420474 -2.94652e-25)
(0.0839798 0.00112101 6.25812e-23)
(0.0837653 -0.000493327 0)
(0.112973 0.00236182 -1.20266e-23)
(0.113013 -0.00263867 -2.32067e-23)
(0.0837061 0.00185452 -3.30215e-23)
(0.0848024 0.00334062 1.05871e-24)
(0.0836969 0.0025478 9.39481e-23)
(0.0834003 -0.00130125 0)
(0.0833793 -0.00208948 1.1276e-23)
(0.0869042 0.00431673 -9.65829e-23)
(0.0859445 0.00422035 8.24031e-23)
(0.0843744 0.0034378 -8.11108e-23)
(0.0836932 -0.00286069 -3.38527e-23)
(0.084338 -0.00362409 2.25675e-23)
(0.0859622 -0.0042908 2.2152e-23)
(0.0836958 0.000308054 0)
(0.0901452 0.00495522 2.87235e-24)
(0.0886462 0.0049687 5.08534e-25)
(0.0894617 0.00495074 2.24419e-23)
(0.0912082 0.00480953 2.21906e-23)
(0.0906792 0.00488909 -2.23058e-23)
(0.0923698 0.00466412 4.11257e-26)
(0.0917715 0.00473306 0)
(0.0935473 0.00454715 0)
(0.0929618 0.00460293 0)
(0.0947044 0.00444004 0)
(0.0941278 0.00449304 0)
(0.0958459 0.00433853 0)
(0.0952772 0.00438836 0)
(0.0969698 0.00424221 3.82178e-26)
(0.0964101 0.00428994 0)
(0.0980761 0.0041494 0)
(0.0975251 0.00419538 0)
(0.0991652 0.00405999 0)
(0.0986228 0.0041043 0)
(0.100238 0.00397368 0)
(0.0997035 0.00401648 0)
(0.101293 0.00389007 0)
(0.100768 0.00393158 0)
(0.102333 0.00380861 -3.45523e-26)
(0.101815 0.00384911 0)
(0.103356 0.00372879 1.03468e-28)
(0.102847 0.00376858 0)
(0.104364 0.00364992 0)
(0.103862 0.00368925 0)
(0.105355 0.00357176 6.43123e-26)
(0.104862 0.0036108 0)
(0.10633 0.00349371 0)
(0.105845 0.00353277 0)
(0.107288 0.00341515 0)
(0.106812 0.00345455 0)
(0.108228 0.00333541 0)
(0.107761 0.00337548 0)
(0.10915 0.0032537 0)
(0.108692 0.00329487 0)
(0.110052 0.00316892 0)
(0.109603 0.00321179 0)
(0.110934 0.00307996 5.46485e-26)
(0.110495 0.00312504 0)
(0.111796 0.0029851 -3.37553e-24)
(0.111368 0.00303381 0)
(0.112637 0.00287995 3.2137e-24)
(0.112218 0.00293338 0)
(0.11346 0.00276816 3.05149e-24)
(0.113049 0.00282494 -3.12883e-24)
(0.112996 0.00189725 6.05495e-24)
(0.113867 0.00271293 0)
(0.113404 0.00231703 8.99871e-24)
(0.112406 0.00101407 0)
(0.112663 0.00146105 0)
(0.11215 9.27964e-05 0)
(0.112234 0.000555875 0)
(0.112249 -0.000833195 0)
(0.112155 -0.0003719 0)
(0.112692 -0.00173793 1.23521e-23)
(0.112429 -0.00129107 3.07337e-24)
(0.113435 -0.00259042 3.02318e-24)
(0.113028 -0.00217066 2.4169e-23)
(0.113103 -0.00310675 1.56982e-23)
(0.113912 -0.00299384 2.99609e-24)
(0.113509 -0.00304967 -6.10259e-24)
(0.112273 -0.00321659 3.22641e-24)
(0.112689 -0.00316192 -1.93527e-23)
(0.111423 -0.00331453 -1.35425e-28)
(0.11185 -0.00326629 0)
(0.11055 -0.00340133 0)
(0.110989 -0.00335875 0)
(0.109658 -0.00348019 -1.64181e-28)
(0.110106 -0.00344181 0)
(0.108745 -0.00355144 0)
(0.109204 -0.0035167 0)
(0.107812 -0.00361628 0)
(0.108281 -0.00358461 0)
(0.10686 -0.00367575 0)
(0.107338 -0.00364664 0)
(0.105889 -0.00373082 0)
(0.106377 -0.00370379 0)
(0.1049 -0.00378242 -1.29972e-25)
(0.105397 -0.00375701 0)
(0.103894 -0.00383157 0)
(0.104399 -0.00380724 0)
(0.102869 -0.00387942 0)
(0.103384 -0.0038556 0)
(0.101827 -0.00392693 0)
(0.10235 -0.00390317 0)
(0.100766 -0.00397523 0)
(0.101299 -0.00395093 0)
(0.0996876 -0.00402538 -7.26e-26)
(0.100229 -0.00400001 0)
(0.0985893 -0.00407873 0)
(0.0991409 -0.00405159 0)
(0.0974711 -0.00413656 0)
(0.0980328 -0.00410702 0)
(0.0963318 -0.00420021 7.73106e-26)
(0.0969041 -0.00416758 0)
(0.0951709 -0.00427116 -2.52964e-28)
(0.0957541 -0.00423471 0)
(0.093988 -0.00435064 1.60081e-25)
(0.0945823 -0.0043098 0)
(0.0927833 -0.00443937 0)
(0.0933884 -0.00439384 0)
(0.0915568 -0.00453762 0)
(0.0921726 -0.00448714 0)
(0.0903106 -0.00464428 -2.84112e-28)
(0.0909365 -0.00459089 0)
(0.0890453 -0.0047635 0)
(0.0896792 -0.00470139 0)
(0.0878065 -0.00491361 -3.34623e-23)
(0.0884216 -0.00483436 0)
(0.0853044 -0.00437149 -2.88258e-25)
(0.087196 -0.00500155 5.67994e-23)
(0.0831447 0.00107659 0)
(0.0878145 0.00497163 1.30185e-22)
(0.0828719 0.00179698 2.25577e-23)
(0.114018 0.00315873 -3.04575e-24)
(0.114402 0.00309987 0)
(0.113851 -0.00254345 2.93787e-24)
(0.114305 -0.00293309 -5.83732e-24)
(0.0829784 -0.000519476 0)
(0.0826234 -0.00132391 0)
(0.083016 0.00262031 0)
(0.0826162 -0.00212 -1.11059e-23)
(0.0829581 -0.00291423 -2.23317e-23)
(0.0836357 -0.00369585 0)
(0.0846346 -0.00445505 5.74605e-23)
(0.0865664 -0.00509127 -4.58138e-23)
(0.0828925 0.000278632 0)
(0.0906842 0.00559095 -1.0801e-26)
(0.0869442 0.00493129 4.08338e-23)
(0.0892086 0.00566477 -1.45524e-22)
(0.089944 0.00564484 4.26602e-23)
(0.0919971 0.00552073 -1.38823e-23)
(0.0913579 0.00553768 -2.22507e-23)
(0.0930864 0.00539326 0)
(0.0925545 0.00546837 0)
(0.0941927 0.0052392 -4.11219e-26)
(0.0936288 0.00531199 0)
(0.0953027 0.00511274 0)
(0.094751 0.00517375 0)
(0.0963913 0.00499674 0)
(0.0958492 0.00505394 0)
(0.0974631 0.00488687 0)
(0.0969293 0.00494105 0)
(0.0985181 0.00478205 -3.82178e-26)
(0.0979927 0.00483397 0)
(0.0995571 0.00468102 0)
(0.0990396 0.00473109 0)
(0.10058 0.0045835 0)
(0.100071 0.00463185 0)
(0.101588 0.0044892 0)
(0.101086 0.00453598 0)
(0.102581 0.00439767 0)
(0.102087 0.00444313 0)
(0.103559 0.00430839 3.43263e-26)
(0.103072 0.00435279 0)
(0.104522 0.00422078 1.16585e-28)
(0.104042 0.00426443 0)
(0.10547 0.0041342 0)
(0.104998 0.0041774 0)