/*--------------------------------*- C++ -*----------------------------------*\
  =========                 |
  \\      /  F ield         | OpenFOAM: The Open Source CFD Toolbox
   \\    /   O peration     | Website:  https://openfoam.org
    \\  /    A nd           | Version:  10
     \\/     M anipulation  |
\*---------------------------------------------------------------------------*/
FoamFile
{
    format      ascii;
    class       volScalarField;
    location    "57";
    object      p;
}
// * * * * * * * * * * * * * * * * * * * * * * * * * * * * * * * * * * * * * //

dimensions      [0 2 -2 0 0 0 0];

internalField   nonuniform List<scalar> 
28942
(
-0.00377858
-0.00315152
0.00202034
0.00949142
0.00979146
0.000100831
0.00031216
3.09246e-05
0.00270988
0.00279787
-0.00232367
-0.00259284
-0.00297645
-0.00289383
0.000207471
0.000529752
0.00987773
0.0101476
0.0055745
0.00713544
0.00815004
0.00814175
-0.00523472
-0.00505934
-0.00358801
-0.00381127
0.0138755
0.0138246
0.00352701
0.00346996
2.31696e-05
5.94901e-05
0.000820419
0.000338624
0.00714219
0.008348
0.0108851
0.0128436
-1.11155e-06
0.0150388
0.00909456
0.0115925
0.00176685
0.00168443
0.00174202
0.000312718
0.000171886
0.000249987
0.000288474
0.000402759
0.000762968
0.00278716
0.00285793
0.00284215
0.00299757
-0.00235666
-0.00105355
-0.00338399
-0.00322949
-0.00350086
-0.00357395
-0.00357483
-0.00347276
-0.000118507
-0.00182056
-0.0003641
0.000968092
0.00941997
0.00892346
-0.0033693
-0.00357947
-0.00331434
0.00898478
0.00883668
0.00912856
-0.00148062
-0.00109279
-0.000753115
0.00235468
0.0027541
0.00184468
0.000749043
-0.00632069
-0.00754962
0.00107944
0.00380563
0.00484748
0.00563542
0.00401939
0.00414306
0.00611033
0.00548892
-0.00140147
-0.00169321
-0.00197177
-0.00180991
-0.00163532
0.0053323
0.00662353
-0.00786088
0.0112887
0.0104897
0.00578362
0.0093807
0.000899188
0.000807286
0.000716775
0.00547107
0.00566375
0.00565782
-0.0032273
-0.00314787
-0.00313466
-0.00261748
-0.00274004
0.0158305
0.0138248
0.0132668
0.0148981
0.00163999
0.00472092
0.00341867
0.00506665
0.00474354
0.0155023
0.0157979
0.0144576
0.00590856
0.00698783
0.000208962
0.000314284
0.000122563
0.0104951
0.0109984
0.00767186
0.00732401
0.012781
0.00669336
0.0079845
0.0090498
-0.00191053
-0.0024206
0.00735333
0.0016864
0.00177363
-0.00117957
-0.00144317
-0.00098331
-0.00251993
0.0065917
0.00571881
0.00371092
0.000285026
0.000226735
9.35806e-05
0.000229215
0.00752846
0.00679282
-0.00186546
-0.00198266
-0.00187793
-0.00414483
-0.00368893
7.39637e-05
-0.00286038
-0.000506637
0.00839218
0.0085011
0.00959514
0.00913051
0.0077083
0.00308322
0.00300079
0.00325082
0.0031268
0.00504114
0.00481894
0.00515388
0.00537439
0.00531218
0.00538276
0.00559381
0.00614766
0.00584178
0.00543958
0.00576968
0.00647539
0.00722899
0.00752106
-0.000577611
-0.00055856
-0.00247536
0.000233849
7.27945e-05
-0.00199426
-0.00208306
0.000315318
0.000378222
0.000340116
0.00027051
0.00191353
0.00187105
0.00184628
-0.00292474
-0.00311231
-0.00277647
-0.00434606
-0.00482872
-0.00413951
-0.00472738
-0.0064939
-0.0051914
0.0160244
0.0167345
0.0165021
0.000935197
0.00108022
0.000967959
0.0103483
0.00992042
0.0100008
0.0015297
0.00151019
0.00154908
0.00149033
0.00147084
0.00145098
0.00145192
0.00143115
0.00143203
0.00147146
0.00149085
0.00151033
0.00152997
0.00154959
0.00141169
0.00141182
0.00156787
0.00156825
0.0015865
0.001392
0.00139183
0.00158691
0.00137189
0.00135185
0.00137209
0.00135228
0.00160609
0.00160641
0.00133195
0.00133241
0.00162422
0.00162478
0.00131209
0.0013126
0.00164237
0.00164289
0.00129233
0.00129281
0.00166027
0.00166083
0.00127259
0.00127312
0.00167792
0.00167846
0.00125296
0.0012535
0.00169534
0.0016959
0.00123344
0.00123391
0.00171257
0.0017131
0.00121402
0.0012143
0.00172912
0.00172961
0.00119465
0.00119464
0.00174624
0.00174656
0.00117528
0.00117485
0.0017621
0.00176217
0.00115535
0.00115529
0.00177815
0.00177811
0.00113532
0.00113571
0.00176108
0.0017771
0.00179401
0.00179374
0.00172729
0.00174475
0.00169317
0.00171071
0.00165872
0.00167618
0.00162264
0.00164089
0.00158522
0.00160403
0.00154772
0.00156755
0.00150962
0.00152884
0.00147005
0.00148945
0.00143004
0.0014501
0.00139044
0.00141033
0.00135075
0.00137062
0.00131114
0.00133095
0.00127174
0.00129143
0.00123266
0.00125217
0.00119396
0.00121327
0.00115486
0.00117467
0.00113521
0.00111562
0.00111585
0.0011749
0.00113566
0.00115525
0.00121416
0.00119443
0.00125324
0.00123373
0.00129255
0.00127288
0.00133212
0.00131233
0.00137186
0.001352
0.00141144
0.00139175
0.00145136
0.00143152
0.00149087
0.00147127
0.00152924
0.00151
0.00156808
0.00154931
0.00160553
0.00158657
0.00164219
0.00162407
0.00167757
0.00166009
0.00171182
0.00169478
0.00174509
0.00172832
0.00177637
0.00176107
0.00179202
0.00179346
0.00111543
0.00111601
0.00180858
0.00180649
0.00180936
0.00180931
0.00175856
0.00179123
0.00177485
0.00172484
0.00174206
0.0016913
0.00170796
0.00165672
0.00167422
0.00162079
0.00163892
0.00158386
0.00160242
0.00154578
0.00156503
0.00150732
0.00152718
0.00146887
0.00148771
0.00142886
0.00144884
0.00138924
0.00140908
0.00134965
0.00136945
0.00131014
0.00132989
0.00127083
0.00129046
0.00123183
0.0012513
0.00119322
0.00121248
0.00115436
0.00117382
0.00109586
0.00109598
0.00111508
0.00113478
0.00113555
0.00111616
0.0010965
0.00109614
0.00117486
0.00115515
0.00121368
0.00119407
0.00125257
0.00123308
0.00129181
0.00127216
0.0013313
0.00131154
0.00137097
0.00135113
0.00141062
0.00139084
0.0014502
0.0014304
0.00148964
0.00146988
0.00152825
0.00150902
0.00156645
0.00154775
0.00160397
0.00158539
0.00164045
0.00162236
0.00167573
0.00165826
0.00170971
0.00169292
0.00174228
0.00172621
0.00177343
0.00175801
0.00180265
0.00178855
0.0018071
0.00182106
0.00181722
0.00182259
0.00109582
0.00109655
0.00182351
0.00182131
0.00183505
0.00183164
0.00182389
0.00111515
0.00109575
0.00107703
0.0010771
0.00181783
0.00183735
0.00185741
0.00183943
0.00178725
0.00180295
0.00175478
0.00177096
0.00172167
0.00173866
0.00168831
0.00170479
0.00165392
0.00167133
0.00161819
0.0016362
0.0015814
0.00159993
0.00154369
0.00156261
0.00150531
0.00152458
0.00146643
0.00148593
0.00142719
0.00144689
0.00138771
0.00140746
0.00134822
0.00136797
0.00130883
0.00132851
0.00126964
0.00128921
0.00123074
0.00125015
0.00119222
0.00121143
0.00115372
0.00117289
0.00113432
0.0010767
0.00107654
0.0010766
0.00107687
0.00113539
0.00109658
0.00111608
0.00117434
0.00115486
0.00121277
0.00119342
0.00125156
0.00123212
0.00129069
0.0012711
0.00133007
0.00131036
0.00136959
0.00134982
0.00140912
0.00138937
0.00144855
0.00142884
0.00148762
0.00146816
0.00152636
0.00150709
0.00156432
0.00154542
0.00160157
0.0015831
0.00163781
0.00161983
0.00167288
0.00165551
0.00170662
0.00168994
0.00173881
0.00172296
0.0017694
0.00175425
0.00179836
0.00178405
0.00182642
0.00181197
0.00184423
0.00183944
0.0018378
0.00183648
0.00107646
0.00107726
0.00184998
0.00184799
0.0018444
0.00185195
0.0018562
0.00178393
0.00186194
0.00183832
0.00183975
0.00183745
0.00181465
0.00183149
0.00178133
0.00179791
0.00174981
0.00176529
0.0017175
0.0017342
0.00168453
0.00170111
0.00165027
0.00166758
0.00161476
0.00163266
0.00157821
0.00159661
0.00154078
0.00155959
0.00150263
0.00152176
0.00146391
0.00148335
0.00142491
0.00144447
0.00138564
0.00140529
0.00134634
0.00136599
0.00130711
0.00132671
0.00126807
0.00128756
0.00122931
0.00124865
0.0011909
0.00121006
0.00115272
0.00117172
0.00111459
0.00113362
0.00107619
0.00109526
0.00105757
0.00105702
0.00105734
0.00105779
0.00105763
0.00105802
0.00105789
0.0010584
0.00105808
0.00109642
0.00105837
0.0010776
0.00113479
0.00111566
0.00117328
0.00115414
0.00121156
0.00119239
0.00125022
0.00123085
0.00128921
0.00126969
0.00132843
0.0013088
0.00136777
0.0013481
0.00140712
0.00138746
0.00144634
0.00142675
0.00148521
0.00146584
0.00152368
0.00150453
0.00156143
0.00154264
0.0015984
0.00158005
0.00163437
0.00161653
0.00166915
0.00165192
0.00170258
0.00168605
0.00173446
0.00171875
0.00176455
0.00174973
0.00179286
0.00177897
0.00181991
0.00180639
0.00184554
0.00183212
0.00186348
0.00185707
0.00185056
0.00185028
0.0018621
0.00185848
0.00107586
0.00105702
0.00103934
0.00103932
0.00185867
0.00186797
0.0018904
0.00181368
0.00187274
0.00186736
0.00185159
0.00185095
0.00182621
0.00182481
0.0018075
0.00182094
0.00177454
0.00179097
0.00174434
0.00175955
0.00171269
0.00172878
0.00167984
0.0016964
0.0016458
0.00166299
0.00161059
0.00162834
0.00157433
0.00159258
0.00153718
0.00155586
0.00149932
0.00151833
0.00146091
0.00148018
0.00142213
0.00144156
0.00138311
0.00140264
0.00134402
0.00136357
0.001305
0.0013245
0.00126615
0.00128555
0.00122756
0.00124682
0.00118931
0.00120839
0.00115147
0.00117035
0.00111355
0.00113246
0.00109459
0.0010388
0.0010381
0.00103861
0.00103927
0.00103913
0.00103939
0.00103941
0.00103929
0.00109598
0.00105782
0.00107738
0.00113396
0.00111495
0.00117191
0.00115304
0.00121004
0.00119094
0.00124855
0.00122926
0.00128736
0.00126793
0.00132639
0.00130686
0.00136552
0.00134595
0.00140464
0.0013851
0.0014436
0.00142416
0.00148223
0.00146298
0.00152039
0.00150139
0.00155787
0.00153923
0.00159452
0.00157632
0.00163015
0.00161248
0.00166459
0.00164754
0.00169766
0.00168132
0.00172919
0.00171364
0.00175896
0.00174431
0.0017868
0.00177315
0.00181297
0.00180026
0.001837
0.00182401
0.00186026
0.00185002
0.00187644
0.00186888
0.00186352
0.00186124
0.00103783
0.00103899
0.00186696
0.00182535
0.0018531
0.00187038
0.00187684
0.00188537
0.00187879
0.00188372
0.00188206
0.00188513
0.00187954
0.00186244
0.00182467
0.00187713
0.00185468
0.00181534
0.00181692
0.00179759
0.00181122
0.00176783
0.00178264
0.00173801
0.0017531
0.00170678
0.00172259
0.00167428
0.00169068
0.00164058
0.00165759
0.00160571
0.00162329
0.0015698
0.00158788
0.00153299
0.0015515
0.00149545
0.00151431
0.00145736
0.00147647
0.00141887
0.00143816
0.00138014
0.00139953
0.00134131
0.00136073
0.00130253
0.00132191
0.00126389
0.00128319
0.00122551
0.00124467
0.00118744
0.00120643
0.00114977
0.00116857
0.00111235
0.00113111
0.00107465
0.00109351
0.00103701
0.00105594
0.00101957
0.00101812
0.00101892
0.00102062
0.00102009
0.00102118
0.00102095
0.0010212
0.00102125
0.00102074
0.00102102
0.00102045
0.00102068
0.00105739
0.00102012
0.00103864
0.00109501
0.00107625
0.00113276
0.00111391
0.00117027
0.00115147
0.00120824
0.00118921
0.00124655
0.00122736
0.00128516
0.00126583
0.00132396
0.00130455
0.00136285
0.00134341
0.0014017
0.00138229
0.00144037
0.00142108
0.0014787
0.0014596
0.00151653
0.0014977
0.00155367
0.0015352
0.00158996
0.00157194
0.00162521
0.00160774
0.00165926
0.00164241
0.00169194
0.0016758
0.00172306
0.00170772
0.00175247
0.001738
0.00177999
0.00176649
0.00180551
0.0017931
0.00182914
0.00181733
0.00185048
0.00184064
0.00187023
0.00185886
0.00188927
0.00188092
0.00187091
0.00187317
0.00187026
0.00103602
0.00101764
0.0010019
0.00100148
0.00187162
0.00188003
0.00187626
0.00188594
0.00189016
0.00189572
0.0018972
0.00188958
0.00187186
0.00186406
0.00187972
0.00186983
0.0018684
0.00182489
0.00184604
0.00180637
0.00181237
0.00178789
0.0018006
0.00175992
0.00177398
0.00173073
0.00174554
0.00170002
0.00171557
0.00166797
0.00168416
0.00163466
0.00165148
0.00160018
0.00161757
0.00156466
0.00158255
0.00152823
0.00154655
0.00149106
0.00150974
0.00145332
0.00147226
0.00141516
0.00143429
0.00137674
0.00139598
0.00133821
0.00135749
0.0012997
0.00131895
0.00126131
0.00128049
0.00122316
0.00124221
0.0011853
0.00120419
0.00114781
0.00116651
0.00111076
0.00112925
0.00107337
0.00109209
0.00105455
0.0010013
0.000999818
0.00100059
0.00100262
0.00100205
0.00100324
0.001003
0.00100322
0.00100331
0.0010026
0.00100299
0.00100223
0.00105671
0.00101954
0.00103811
0.00109383
0.00107525
0.00113102
0.00111249
0.00116837
0.00114964
0.00120614
0.00118722
0.00124425
0.00122516
0.00128261
0.00126341
0.00132116
0.00130188
0.00135977
0.00134047
0.00139832
0.00137907
0.00143667
0.00141754
0.00147466
0.00145573
0.00151212
0.00149348
0.00154888
0.00153061
0.00158477
0.00156696
0.00161961
0.00160234
0.00165324
0.0016366
0.00168548
0.00166956
0.00171617
0.00170105
0.00174517
0.00173091
0.00177232
0.001759
0.0017975
0.0017852
0.00182067
0.00180933
0.00184122
0.00183142
0.00186103
0.00185026
0.00187903
0.00186932
0.00189969
0.00188859
0.00189708
0.00188783
0.00187702
0.000999193
0.0010009
0.00187276
0.00188118
0.00188649
0.00188263
0.00188955
0.00189694
0.00189598
0.001901
0.00190339
0.0019045
0.00190463
0.00189605
0.00188038
0.00185667
0.00188829
0.00188324
0.00186282
0.00185048
0.00185876
0.00182041
0.00183406
0.00179811
0.00180756
0.00177798
0.00178992
0.00175123
0.00176483
0.00172271
0.00173721
0.00169255
0.00170783
0.00166098
0.00167694
0.00162811
0.00164471
0.00159406
0.00161124
0.00155896
0.00157664
0.00152295
0.00154107
0.00148618
0.00150466
0.00144882
0.00146757
0.00141103
0.00142998
0.00137296
0.00139203
0.00133475
0.00135387
0.00129653
0.00131564
0.00125842
0.00127746
0.00122052
0.00123944
0.0011829
0.00120167
0.00114562
0.00116422
0.00110875
0.00112713
0.00107206
0.00109048
0.00103512
0.00105353
0.00099839
0.00101687
0.000981808
0.000980025
0.000980968
0.000983526
0.000982576
0.000984786
0.000984237
0.000985424
0.000985184
0.000985385
0.00098549
0.000984753
0.000985124
0.000983773
0.000984152
0.000982582
0.000983221
0.00101863
0.000982002
0.00100031
0.00105565
0.00103694
0.00109231
0.0010741
0.00112905
0.00111063
0.00116623
0.00114759
0.00120377
0.00118496
0.00124164
0.00122267
0.00127974
0.00126067
0.001318
0.00129887
0.00135631
0.00133716
0.00139453
0.00137545
0.00143252
0.00141357
0.00147014
0.0014514
0.0015072
0.00148876
0.00154355
0.00152549
0.001579
0.00156141
0.0016134
0.00159636
0.00164658
0.00163017
0.00167836
0.00166267
0.00170861
0.00169371
0.00173717
0.00172313
0.00176392
0.0017508
0.00178873
0.0017766
0.00181154
0.0018004
0.00183193
0.0018221
0.00185068
0.00184149
0.00186754
0.00185856
0.00188454
0.00187704
0.00190348
0.0018995
0.00189904
0.00188684
0.0018874
0.00189101
0.0018873
0.00189724
0.00189399
0.00189587
0.00189921
0.000997453
0.000979198
0.000964403
0.00096378
0.00190659
0.00190521
0.0019092
0.00191029
0.00191087
0.00190808
0.00188973
0.00188398
0.00188551
0.00190408
0.00189801
0.00190116
0.00189042
0.00187515
0.00187306
0.00184606
0.00185609
0.00183691
0.00184561
0.00181154
0.00182322
0.00178997
0.00180048
0.00176792
0.00177963
0.00174202
0.00175527
0.0017141
0.0017283
0.00168448
0.0016995
0.0016534
0.00166912
0.001621
0.00163737
0.00158741
0.00160436
0.00155276
0.00157022
0.00151718
0.00153508
0.00148085
0.00149911
0.0014439
0.00146245
0.0014065
0.00142525
0.0013688
0.00138768
0.00133093
0.00134988
0.00129304
0.00131199
0.00125523
0.00127412
0.00121761
0.0012364
0.00118024
0.00119889
0.0011432
0.00116168
0.00110653
0.00112482
0.0010703
0.00108837
0.00103375
0.00105205
0.00101565
0.000964032
0.000962053
0.000963151
0.000965872
0.000964973
0.000967102
0.000966562
0.000967722
0.000967492
0.00096769
0.000967789
0.000967049
0.000967434
0.000965915
0.000966507
0.000965291
0.00101762
0.000981366
0.000999486
0.00105422
0.00103586
0.00109033
0.00107223
0.00112688
0.00110855
0.00116383
0.00114531
0.00120114
0.00118245
0.00123874
0.00121991
0.00127656
0.00125763
0.00131451
0.00129553
0.00135248
0.00133351
0.00139034
0.00137144
0.00142796
0.0014092
0.00146517
0.00144664
0.00150181
0.00148358
0.00153772
0.00151988
0.00157272
0.00155536
0.00160665
0.00158985
0.00163936
0.00162319
0.00167067
0.00165522
0.00170046
0.00168579
0.00172858
0.00171476
0.00175492
0.001742
0.00177935
0.0017674
0.00180181
0.00179085
0.00182209
0.00181226
0.00184039
0.00183153
0.00185692
0.00184881
0.00187082
0.00186472
0.0018867
0.00187483
0.00189883
0.00189856
0.00191122
0.00190235
0.00189349
0.00188331
0.00190954
0.00190533
0.00189874
0.00190081
0.000961305
0.000963338
0.00191119
0.00190696
0.00190841
0.00191327
0.00191371
0.00191663
0.00191771
0.00191475
0.0019102
0.00189003
0.00187841
0.00187947
0.00188075
0.0018873
0.00189865
0.00189255
0.00190537
0.00191466
0.00190898
0.00190592
0.00190072
0.00187575
0.00187151
0.00185907
0.00186209
0.00183782
0.00184865
0.00182369
0.00183184
0.00180203
0.00181305
0.00178043
0.00179121
0.00175778
0.00176948
0.00173239
0.00174538
0.00170499
0.00171893
0.00167589
0.00169065
0.00164531
0.00166079
0.0016134
0.00162952
0.00158028
0.00159699
0.0015461
0.00156332
0.00151099
0.00152866
0.0014751
0.00149314
0.00143858
0.00145692
0.00140159
0.00142015
0.00136428
0.00138298
0.00132679
0.00134556
0.00128924
0.00130802
0.00125176
0.00127049
0.00121443
0.00123307
0.00117734
0.00119585
0.00114055
0.00115891
0.00110411
0.00112229
0.00106807
0.00108604
0.0010322
0.00105021
0.000996394
0.00101418
0.0009605
0.000978337
0.000944404
0.000942724
0.000943533
0.000946583
0.000945423
0.000948338
0.000947527
0.000949541
0.000949013
0.000950137
0.000949916
0.000950114
0.000950203
0.000949487
0.00094987
0.000948244
0.000948961
0.0009467
0.000947496
0.00094536
0.000945825
0.000980122
0.000944132
0.00096241
0.00101642
0.000998183
0.00105223
0.00103444
0.00108814
0.00107013
0.00112449
0.00110627
0.0011612
0.0011428
0.00119824
0.00117969
0.00123556
0.00121688
0.00127307
0.0012543
0.00131069
0.00129189
0.00134831
0.00132952
0.0013858
0.00136709
0.00142301
0.00140446
0.00145979
0.00144148
0.00149599
0.00147799
0.00153144
0.00151383
0.00156597
0.00154885
0.00159943
0.00158286
0.00163165
0.00161572
0.00166249
0.00164727
0.00169181
0.00167737
0.00171949
0.00170588
0.00174541
0.0017327
0.00176948
0.00175771
0.0017916
0.00178081
0.00181167
0.00180193
0.00182977
0.001821
0.00184592
0.00183813
0.00185922
0.0018531
0.00187108
0.00186535
0.00187052
0.00191878
0.00192115
0.00189878
0.00188934
0.00190934
0.0019102
0.00190738
0.00191508
0.00191698
0.000959257
0.000941706
0.000927588
0.0009264
0.00192223
0.00192146
0.00192366
0.00192325
0.00192081
0.00191824
0.00188591
0.00187493
0.00188733
0.0018931
0.00190481
0.0019046
0.00191731
0.00191453
0.00190435
0.00188894
0.00190031
0.00191051
0.00186977
0.00185758
0.00185942
0.00186569
0.00184387
0.00185149
0.00182824
0.0018366
0.00181193
0.00182049
0.00179163
0.00180211
0.00177017
0.00178099
0.00174742
0.00175909
0.00172241
0.00173519
0.00169548
0.00170918
0.00166688
0.00168139
0.00163679
0.00165202
0.00160536
0.00162125
0.00157273
0.0015892
0.00153903
0.00155602
0.00150439
0.00152183
0.00146897
0.00148678
0.0014329
0.00145102
0.00139635
0.00141469
0.00135945
0.00137794
0.00132234
0.00134092
0.00128516
0.00130376
0.00124801
0.00126658
0.001211
0.00122949
0.0011742
0.00119258
0.00113769
0.00115591
0.0011015
0.00111955
0.00106567
0.00108354
0.00103026
0.00104793
0.000994736
0.0010124
0.000976887
0.000926827
0.000925023
0.000926153
0.000929256
0.00092814
0.000930941
0.00093016
0.000932097
0.000931592
0.000932667
0.000932455
0.000932652
0.000932733
0.00093205
0.000932424
0.000930907
0.000931538
0.000929163
0.00093011
0.000928015
0.000978907
0.000943283
0.000961335
0.00101479
0.00099679
0.00105006
0.00103239
0.00108578
0.00106788
0.00112189
0.00110379
0.00115834
0.00114008
0.0011951
0.00117669
0.00123212
0.00121359
0.00126931
0.0012507
0.00130658
0.00128795
0.00134382
0.00132522
0.00138091
0.0013624
0.0014177
0.00139936
0.00145405
0.00143595
0.00148979
0.00147202
0.00152476
0.0015074
0.00155881
0.00154193
0.00159178
0.00157546
0.00162352
0.00160783
0.00165388
0.0016389
0.00168274
0.00166853
0.00170999
0.0016966
0.0017355
0.00172299
0.00175921
0.00174761
0.00178101
0.00177038
0.00180084
0.00179121
0.0018187
0.00181005
0.00183455
0.00182691
0.00184786
0.0018416
0.00185857
0.00185376
0.00186612
0.00186207
0.00187777
0.00187335
0.00188976
0.00188019
0.00187231
0.00192462
0.00191911
0.00191791
0.00191883
0.000923842
0.000925542
0.00192151
0.00192314
0.00192484
0.00192996
0.00192851
0.00192977
0.00192873
0.0019259
0.0019207
0.00188832
0.00187406
0.00187097
0.00186806
0.0018644
0.00188097
0.00188498
0.00190393
0.00190264
0.00191664
0.00191475
0.00191616
0.00190943
0.00189978
0.00188912
0.0019192
0.00186812
0.00187513
0.00185515
0.001849
0.00184439
0.00185345
0.00183223
0.00183862
0.00181709
0.00182501
0.0018003
0.00180901
0.00178067
0.00179079
0.00175949
0.00177025
0.0017368
0.0017484
0.00171213
0.00172472
0.00168564
0.00169912
0.00165751
0.00167178
0.0016279
0.00164289
0.00159697
0.00161261
0.00156483
0.00158105
0.00153161
0.00154835
0.00149746
0.00151465
0.0014625
0.00148008
0.0014269
0.00144478
0.00139079
0.0014089
0.00135431
0.00137259
0.00131761
0.00133599
0.00128081
0.00129922
0.00124402
0.00126241
0.00120733
0.00122566
0.00117085
0.00118907
0.00113462
0.0011527
0.00109869
0.00111662
0.00106312
0.00108086
0.00102792
0.00104547
0.000993115
0.00101047
0.000957685
0.000975367
0.000922638
0.000940247
0.000907543
0.000904807
0.000906294
0.000909856
0.000908618
0.000912027
0.000911037
0.000913661
0.000912904
0.000914763
0.000914282
0.000915311
0.000915107
0.000915303
0.000915377
0.000914739
0.00091509
0.000913644
0.000914253
0.000912066
0.000912903
0.000910003
0.000910985
0.000908102
0.00090899
0.00094213
0.000907304
0.000924794
0.000977302
0.000959825
0.00101267
0.000995032
0.00104774
0.00103015
0.00108323
0.00106545
0.00111908
0.00110112
0.00115526
0.00113714
0.00119173
0.00117347
0.00122843
0.00121006
0.00126528
0.00124685
0.00130218
0.00128374
0.00133903
0.00132063
0.00137571
0.00135741
0.00141207
0.00139395
0.00144796
0.00143009
0.00148324
0.0014657
0.00151773
0.00150061
0.0015513
0.00153466
0.00158378
0.0015677
0.00161503
0.00159958
0.00164492
0.00163017
0.00167333
0.00165934
0.00170015
0.00168697
0.00172528
0.00171296
0.00174863
0.00173721
0.00177014
0.00175965
0.00178972
0.0017802
0.00180735
0.00179881
0.00182295
0.00181544
0.00183621
0.00182992
0.00184698
0.00184199
0.00185548
0.00185129
0.00186249
0.00186016
0.00185967
0.00193194
0.00192988
0.00188154
0.00187305
0.00192589
0.00192678
0.00192537
0.00193056
0.00193199
0.00092121
0.000903829
0.000890752
0.000890034
0.00193701
0.00193479
0.00193524
0.00193353
0.00192972
0.00192394
0.00186776
0.00185696
0.00185407
0.00186742
0.00188338
0.00189975
0.00191379
0.00191269
0.00192379
0.00191853
0.00190958
0.00189727
0.00188808
0.0018613
0.00186937
0.00192721
0.00186285
0.00185491
0.0018518
0.0018621
0.00184104
0.0018445
0.00183269
0.00183825
0.0018204
0.00182682
0.00180543
0.00181322
0.00178859
0.00179729
0.0017694
0.00177928
0.0017485
0.00175915
0.00172597
0.00173747
0.00170162
0.00171404
0.00167554
0.0016888
0.00164785
0.0016619
0.00161872
0.00163347
0.00158826
0.00160366
0.0015566
0.00157259
0.00152388
0.00154038
0.00149021
0.00150716
0.00145573
0.00147307
0.00142059
0.00143825
0.00138494
0.00140283
0.0013489
0.00136696
0.00131261
0.00133078
0.0012762
0.00129442
0.00123978
0.00125799
0.00120344
0.0012216
0.00116728
0.00118534
0.00113135
0.00114928
0.00109571
0.00111349
0.00106039
0.00107801
0.00102542
0.00104286
0.000990856
0.0010081
0.000955943
0.000973449
0.000938411
0.000890375
0.00088758
0.000889188
0.000892913
0.000891655
0.000894922
0.000893969
0.000896489
0.000895768
0.000897539
0.000897079
0.000898065
0.000897868
0.000898062
0.00089813
0.000897533
0.000897863
0.000896486
0.000897073
0.000894968
0.00089578
0.000892883
0.000893985
0.000891706
0.000940928
0.000906178
0.000923798
0.000975654
0.000958222
0.00101039
0.000993103
0.00104527
0.00102778
0.00108051
0.00106285
0.00111609
0.00109826
0.00115198
0.001134
0.00118814
0.00117004
0.0012245
0.00120631
0.00126099
0.00124274
0.00129752
0.00127927
0.00133397
0.00131577
0.00137022
0.00135214
0.00140614
0.00138824
0.00144157
0.00142394
0.00147637
0.00145907
0.00151039
0.0014935
0.00154347
0.00152707
0.00157546
0.00155963
0.00160624
0.00159103
0.00163567
0.00162115
0.00166365
0.00164987
0.00169006
0.00167708
0.00171482
0.00170267
0.00173784
0.00172658
0.00175906
0.00174871
0.00177842
0.00176901
0.00179584
0.0017874
0.00181125
0.00180383
0.00182443
0.00181816
0.00183526
0.00183019
0.00184395
0.00183978
0.00184986
0.00184763
0.00185285
0.00185117
0.00185907
0.00185184
0.00186148
0.00185129
0.00184895
0.00193761
0.0019351
0.00193321
0.00193402
0.000886641
0.000888856
0.0019271
0.00193735
0.00193839
0.00194292
0.00194037
0.00194006
0.00193748
0.00193287
0.00192634
0.00185438
0.0018422
0.00183422
0.00184124
0.00183256
0.00184491
0.00185009
0.00186874
0.00188005
0.00189859
0.00190974
0.00192232
0.00192575
0.00191919
0.00190838
0.00189527
0.00188263
0.00186763
0.00185516
0.00193451
0.00185337
0.00185097
0.00184858
0.00183612
0.00183701
0.00184858
0.00182979
0.00183298
0.00182073
0.0018259
0.00180834
0.00181484
0.00179358
0.00180125
0.00177681
0.00178547
0.00175794
0.00176764
0.00173729
0.00174783
0.00171497
0.00172636
0.00169093
0.00170318
0.00166523
0.0016783
0.00163797
0.0016518
0.00160929
0.00162381
0.0015793
0.00159446
0.00154812
0.00156386
0.00151587
0.00153213
0.00148268
0.0014994
0.00144869
0.00146579
0.00141402
0.00143144
0.00137882
0.00139649
0.00134322
0.00136107
0.00130736
0.00132532
0.00127135
0.00128937
0.00123531
0.00125334
0.00119934
0.00121732
0.00116351
0.0011814
0.00112789
0.00114567
0.00109254
0.00111018
0.0010575
0.00107498
0.00102278
0.0010401
0.000988413
0.00100555
0.000954196
0.000971375
0.000919864
0.000936874
0.000885479
0.000902682
0.000870828
0.000868205
0.000869665
0.000873574
0.000872121
0.000875984
0.000874858
0.000877927
0.000877004
0.000879419
0.000878734
0.00088042
0.000879981
0.000880924
0.000880735
0.000880928
0.000880989
0.000880431
0.000880742
0.000879441
0.000879997
0.000877967
0.000878762
0.000876087
0.000877065
0.000873804
0.000874917
0.000871878
0.000872816
0.000904978
0.000870927
0.000887902
0.000939303
0.000922029
0.000973723
0.000956448
0.00100799
0.000990828
0.00104263
0.00102527
0.00107761
0.00106008
0.00111291
0.00109523
0.0011485
0.00113068
0.00118433
0.0011664
0.00122035
0.00120233
0.00125647
0.00123841
0.00129261
0.00127455
0.00132865
0.00131066
0.00136447
0.0013466
0.00139994
0.00138227
0.00143491
0.0014175
0.00146923
0.00145217
0.00150277
0.00148612
0.00153537
0.00151921
0.00156689
0.00155129
0.00159721
0.00158223
0.00162619
0.00161189
0.00165375
0.00164018
0.00167977
0.00166698
0.00170418
0.00169221
0.0017269
0.00171578
0.00174786
0.00173763
0.001767
0.00175769
0.00178425
0.00177589
0.00179951
0.00179217
0.00181264
0.00180638
0.0018235
0.0018184
0.00183217
0.0018281
0.00183819
0.00183568
0.00184112
0.00184005
0.00184215
0.00184189
0.00183725
0.00194226
0.00193929
0.00184519
0.00183732
0.00193985
0.00194052
0.00193165
0.00194325
0.00194406
0.00088418
0.00086713
0.000854941
0.000853945
0.00194786
0.00194523
0.00194405
0.00194067
0.00193522
0.00192802
0.00183601
0.00182768
0.00181341
0.00182156
0.0018532
0.00186272
0.00188294
0.00188823
0.00190832
0.00191962
0.00192886
0.0019186
0.00190648
0.0018933
0.00187586
0.00186511
0.00185017
0.00182648
0.00183451
0.00194109
0.00183414
0.00181589
0.00184023
0.00184233
0.00183292
0.00182757
0.00182555
0.00183284
0.00181823
0.00182171
0.00180865
0.0018139
0.00179628
0.00180277
0.00178166
0.00178926
0.001765
0.0017736
0.00174636
0.00175594
0.00172594
0.00173638
0.00170386
0.00171512
0.00168011
0.00169221
0.00165476
0.00166765
0.00162791
0.00164153
0.00159966
0.00161396
0.00157012
0.00158505
0.00153941
0.00155491
0.00150763
0.00152366
0.00147492
0.0014914
0.00144141
0.00145827
0.00140721
0.00142439
0.00137247
0.00138991
0.00133732
0.00135494
0.00130188
0.00131963
0.00126629
0.0012841
0.00123064
0.00124847
0.00119503
0.00121283
0.00115955
0.00117727
0.00112426
0.00114188
0.00108921
0.0011067
0.00105445
0.0010718
0.00102
0.00103719
0.000985869
0.00100289
0.000952103
0.000968955
0.000918148
0.000935037
0.000901238
0.000854145
0.000851319
0.00085291
0.000856886
0.000855504
0.000859162
0.000858081
0.00086103
0.000860149
0.000862448
0.000861796
0.000863403
0.000862984
0.000863887
0.000863705
0.000863896
0.000863951
0.00086343
0.000863722
0.000862496
0.000863021
0.000861101
0.000861856
0.000859297
0.000860242
0.000857001
0.000858212
0.000855878
0.000903727
0.000870047
0.000886832
0.000937708
0.000920675
0.000971422
0.000954529
0.00100546
0.000988399
0.00103984
0.00102262
0.00107455
0.00105716
0.00110956
0.00109202
0.00114483
0.00112717
0.00118033
0.00116256
0.00121599
0.00119815
0.00125174
0.00123387
0.00128747
0.00126962
0.00132309
0.00130531
0.00135847
0.00134083
0.00139349
0.00137605
0.001428
0.00141083
0.00146185
0.00144503
0.00149491
0.00147851
0.00152704
0.00151112
0.0015581
0.00154273
0.00158797
0.00157321
0.00161653
0.00160244
0.00164369
0.00163031
0.00166935
0.00165673
0.00169343
0.00168162
0.00171587
0.00170489
0.0017366
0.00172648
0.00175555
0.00174632
0.00177265
0.00176436
0.00178781
0.00178051
0.00180091
0.00179466
0.00181182
0.00180668
0.00182051
0.00181647
0.00182665
0.00182399
0.00182998
0.00182866
0.00183027
0.00183072
0.00182697
0.0018287
0.00182644
0.00182144
0.00181569
0.00180937
0.00181706
0.00194597
0.00194197
0.00194569
0.00194625
0.000850315
0.000852922
0.00193526
0.00194826
0.00194896
0.00195198
0.00194927
0.00194725
0.00194301
0.00193676
0.00192858
0.00180156
0.00180282
0.00179858
0.00181562
0.0018259
0.0018398
0.00186546
0.00187328
0.00189251
0.00190197
0.0019163
0.00192726
0.00191692
0.00190389
0.00188915
0.00187497
0.00185863
0.00184083
0.00182326
0.00180164
0.00181028
0.00179875
0.00194687
0.00182299
0.00179741
0.00181978
0.00181336
0.00182522
0.00182545
0.00181909
0.00182111
0.00181454
0.00181816
0.00180659
0.00181064
0.00179667
0.00180199
0.0017843
0.00179078
0.00176975
0.00177731
0.00175319
0.00176173
0.00173473
0.00174421
0.00171452
0.00172485
0.00169267
0.00170381
0.0016692
0.00168115
0.00164419
0.0016569
0.00161771
0.00163114
0.00158987
0.00160397
0.00156076
0.00157548
0.0015305
0.00154578
0.00149919
0.00151498
0.00146695
0.00148319
0.00143391
0.00145053
0.00140018
0.00141713
0.0013659
0.00138311
0.00133119
0.0013486
0.00129619
0.00131373
0.00126101
0.00127863
0.00122576
0.0012434
0.00119053
0.00120814
0.00115541
0.00117296
0.00112045
0.00113791
0.00108572
0.00110306
0.00105125
0.00106846
0.00101708
0.00103413
0.000983204
0.0010001
0.000949661
0.000966393
0.000916126
0.000932841
0.000882794
0.000899509
0.000849168
0.000865988
0.000834881
0.000832211
0.000833691
0.000837688
0.00083619
0.000840259
0.000839026
0.000842445
0.000841401
0.000844225
0.000843388
0.000845574
0.000844954