/*--------------------------------*- C++ -*----------------------------------*\
  =========                 |
  \\      /  F ield         | OpenFOAM: The Open Source CFD Toolbox
   \\    /   O peration     | Website:  https://openfoam.org
    \\  /    A nd           | Version:  10
     \\/     M anipulation  |
\*---------------------------------------------------------------------------*/
FoamFile
{
    format      ascii;
    class       volVectorField;
    location    "57";
    object      U;
}
// * * * * * * * * * * * * * * * * * * * * * * * * * * * * * * * * * * * * * //

dimensions      [0 1 -1 0 0 0 0];

internalField   nonuniform List<vector> 
28942
(
(0.00444457 -0.0022654 -3.43103e-22)
(0.00601495 -0.00235089 -6.37596e-23)
(0.0179511 -0.0123962 -8.22009e-22)
(0.103305 0.0182373 -5.25569e-21)
(0.102343 0.0222796 1.72082e-21)
(0.0157632 0.000500619 0)
(0.0187442 7.34381e-05 1.25398e-23)
(0.0217075 0.000646223 -1.11472e-23)
(0.135257 -0.0183112 -2.54412e-22)
(0.133906 -0.0166751 7.24246e-22)
(0.00983086 0.0040231 -6.76757e-22)
(0.0161228 0.00564624 2.56713e-22)
(0.00716176 0.00316116 0)
(0.00472403 0.00207296 0)
(0.048734 0.0021208 -1.69648e-23)
(0.0468112 0.00275243 -6.55065e-24)
(0.0893188 0.015873 6.6709e-22)
(0.0870068 0.0138418 1.07361e-21)
(0.0121707 -0.0151202 2.90909e-21)
(0.0293455 -0.0304829 -7.65595e-22)
(0.0981268 0.0373718 9.51131e-22)
(0.0973041 0.034409 0)
(0.0187821 0.00464428 1.16973e-21)
(0.00788334 0.00237169 5.5176e-22)
(0.0378623 0.00723536 9.47e-22)
(0.0576158 0.00293414 -8.63319e-22)
(0.00764965 -0.0185034 8.50023e-21)
(0.00669487 -0.0165669 -3.13096e-21)
(0.0355316 -0.0253359 5.698e-22)
(0.0193118 -0.0136893 1.96646e-22)
(0.0161625 -0.00149427 0)
(0.0202086 -0.00131718 -1.53114e-23)
(0.0256194 0.00456497 3.13704e-22)
(0.0367878 0.00200064 -5.10793e-23)
(0.0188282 0.0180103 1.31236e-21)
(0.0157216 0.0191191 -1.30264e-21)
(0.0321735 0.0376141 -3.04961e-21)
(0.0186714 0.030531 -1.06774e-21)
(0.00867201 1.95155e-05 -1.05169e-23)
(0.0086496 0.0161957 -2.61243e-21)
(0.0306485 -0.00620325 0)
(0.0513416 -0.0109696 0)
(0.112438 -0.01278 -2.74725e-23)
(0.111963 -0.0128226 8.12561e-23)
(0.116327 -0.0126848 7.05992e-23)
(0.0305471 0.000237946 1.30519e-23)
(0.0284492 -0.000597234 -2.11027e-23)
(0.0405172 -0.000510416 -9.48828e-23)
(0.0388411 -0.000578204 2.69757e-23)
(0.0316312 -0.00287632 -2.31395e-22)
(0.0236106 -0.00348262 1.49764e-22)
(0.128578 0.00148268 -4.001e-22)
(0.127901 0.00100268 -3.7358e-22)
(0.134579 -0.0210903 -3.78365e-24)
(0.133025 -0.0193627 1.38288e-22)
(0.0826567 0.00641809 7.19185e-22)
(0.101916 -0.000693744 2.51473e-22)
(0.00306889 0.00162531 -5.67274e-22)
(0.00897074 0.00368995 0)
(0.00828147 0.00329872 2.38069e-22)
(0.00289234 0.00149266 4.89533e-22)
(0.000363932 0.000227174 -4.06976e-22)
(0.000193839 0.000123069 -3.91168e-22)
(0.109865 -0.0426122 0)
(0.105013 -0.0256041 1.27734e-22)
(0.121884 -0.0330911 -4.40772e-23)
(0.123512 -0.0437531 0)
(0.0901235 -0.0328069 -6.3777e-22)
(0.093629 -0.0352713 -4.19128e-22)
(0.00189258 -0.00113401 1.1344e-21)
(0.00249855 -0.00202406 -3.57448e-22)
(0.00488918 -0.0031665 8.8688e-22)
(0.0849019 -0.0457694 0)
(0.0912249 -0.0396278 2.16453e-21)
(0.0805745 -0.0530394 5.84685e-22)
(0.11425 0.0123489 2.39512e-22)
(0.112863 0.00683387 -2.6559e-22)
(0.125222 0.0109227 -1.14292e-22)
(0.00468766 -0.0028644 -5.32971e-23)
(0.00634433 -0.00442979 4.44591e-22)
(0.0510533 -0.0311675 1.24758e-22)
(0.0331863 -0.0205541 -2.56879e-22)
(0.00211749 -0.00059977 3.21172e-21)
(0.00516889 -0.00207938 -1.25146e-21)
(0.101038 0.0482442 1.27885e-23)
(0.097073 0.0552112 -7.62755e-22)
(0.080753 0.0540134 6.95801e-22)
(0.0472232 0.0345173 -2.67506e-21)
(0.0444521 0.0316149 1.89443e-21)
(0.0295035 0.0206017 -1.13186e-22)
(0.0327243 0.0232543 -6.40111e-22)
(0.0379664 0.0283638 8.67636e-22)
(0.00442444 0.00271439 -5.94121e-23)
(0.00779484 0.00397397 -1.71342e-23)
(0.00319834 0.00201692 3.43351e-23)
(0.0019249 0.00163578 -4.59067e-22)
(0.00144934 0.00155556 5.62997e-22)
(0.0157473 0.0115466 -3.24831e-21)
(0.0175 0.0136382 7.439e-22)
(0.00882092 -0.00385606 0)
(0.101389 0.00515979 0)
(0.0984002 0.015684 -3.95608e-21)
(0.0604395 0.0104757 1.93932e-21)
(0.0886788 0.0178817 0)
(0.135564 -0.00131815 0)
(0.135006 -0.00204095 0)
(0.133334 -0.00252662 -2.4823e-22)
(0.114979 0.0265614 -2.11631e-22)
(0.114072 0.0279667 2.09245e-21)
(0.113272 0.0254278 1.12285e-21)
(0.0023019 0.00130231 1.05815e-21)
(0.00151634 0.000777984 -1.18766e-21)
(0.0190974 -0.00555817 -5.52046e-22)
(0.0201875 -0.00509202 4.71549e-22)
(0.00913102 -0.0029441 9.31893e-22)
(0.00647695 0.011141 1.47755e-21)
(0.0189697 0.0181477 3.45357e-21)
(0.0134664 0.0227915 2.72195e-22)
(0.00492113 0.0143003 -8.61476e-21)
(0.117047 0.0477309 5.52552e-23)
(0.107899 0.0582213 1.06538e-21)
(0.118366 0.0548511 -1.83734e-21)
(0.0391108 -0.0294308 7.2882e-22)
(0.0240212 -0.0172729 -4.65444e-22)
(0.0053226 -0.000750821 -4.09896e-21)
(0.00453952 -0.00360096 0)
(0.0124981 -0.001685 2.00071e-21)
(0.0219746 -0.0161376 7.76151e-22)
(0.0342713 -0.0277964 -1.94885e-21)
(0.0383491 -1.45681e-05 6.63677e-23)
(0.0407474 0.000149201 -4.76648e-23)
(0.0360359 0.000177929 -2.05009e-24)
(0.0280669 -0.0419677 0)
(0.0296157 -0.0428599 0)
(0.0896205 -0.018654 -4.62547e-22)
(0.0995882 -0.0220921 3.14283e-21)
(0.0870335 -0.0252789 0)
(0.0471389 -0.0402048 0)
(0.0582028 -0.0514037 -7.80581e-22)
(0.0413185 0.0393367 2.08261e-21)
(-4.93458e-06 0.000211045 5.17013e-22)
(-0.000197119 0.000128724 -3.40878e-22)
(0.0223368 -0.0192492 -7.88765e-22)
(0.120544 -0.0125145 3.98276e-22)
(0.119936 -0.0124977 -7.70141e-23)
(0.115617 -0.00563326 -6.75272e-23)
(0.108563 0.00107218 8.99896e-23)
(0.117825 -0.000202287 1.8514e-22)
(8.10208e-05 0.000258339 1.99453e-22)
(0.0437565 0.0344227 3.19839e-21)
(0.0618933 0.046311 -7.86511e-22)
(0.0593337 0.0393727 -3.0091e-24)
(0.0251202 -0.000917403 6.30909e-24)
(0.0247524 -0.000914857 3.35135e-23)
(0.0268417 -0.000710623 1.46095e-24)
(0.0299519 -0.000680991 -1.64715e-23)
(0.0454291 0.0380913 1.33822e-22)
(0.0189653 0.0160605 0)
(0.000144666 -4.03105e-05 3.70901e-22)
(0.000429176 -0.000264841 -4.11486e-22)
(0.00187209 -0.00102991 2.87217e-22)
(0.0366097 -0.00774556 -1.84856e-21)
(0.0649461 -0.0021285 -7.54467e-22)
(0.0347656 -0.000275733 -2.29016e-24)
(0.0745626 -0.00763552 2.72266e-22)
(0.070763 -0.0157323 6.47228e-23)
(0.0943139 0.0398958 2.14033e-21)
(0.0914164 0.0454321 9.92738e-23)
(0.0887543 0.0290678 1.21406e-21)
(0.0914798 0.0307837 -8.79813e-22)
(0.0987071 0.0410545 0)
(0.126061 -0.000457882 1.49052e-22)
(0.126826 -0.000897898 2.81545e-22)
(0.128087 -0.012224 -2.9415e-22)
(0.12955 -0.0120214 5.03425e-22)
(0.117058 0.0240982 2.59491e-22)
(0.119116 0.0249943 -7.34794e-22)
(0.117105 0.0261121 0)
(0.115139 0.0248536 1.52992e-22)
(0.116678 0.0280366 0)
(0.117186 0.0360601 -5.50162e-22)
(0.115725 0.0381149 -3.00399e-22)
(0.111352 0.0419339 -5.39673e-22)
(0.113746 0.0400631 0)
(0.116439 0.0430367 1.78476e-21)
(0.113716 0.044963 4.73884e-23)
(0.108346 0.0441477 -3.03205e-22)
(0.0996457 0.0502578 -1.28498e-21)
(0.0984324 0.0454698 -2.26414e-22)
(0.0250606 -0.00854324 6.02266e-23)
(0.032947 -0.00941009 -2.40373e-23)
(0.0063094 -0.00250381 -6.96283e-22)
(0.0341374 -7.36939e-05 -4.29526e-23)
(0.0435987 -0.000292216 0)
(-1.49242e-06 -4.21316e-05 4.35723e-22)
(1.43922e-05 -4.84112e-05 2.21968e-22)
(0.0394884 -0.00194703 1.97436e-23)
(0.0465449 -0.00189322 7.93394e-24)
(0.0460573 -0.00129399 0)
(0.0382127 -0.000873936 8.70076e-24)
(0.091569 0.00422406 -1.18645e-22)
(0.0909429 0.00379809 5.61322e-22)
(0.0918562 0.00394884 2.59923e-22)
(0.000671932 0.000270656 3.95606e-22)
(-0.000160192 -0.000130016 -5.72932e-22)
(-0.000202148 -0.000169967 4.88684e-22)
(0.0015056 0.00062009 0)
(8.08788e-05 8.85069e-05 1.14467e-21)
(0.000173163 -3.85619e-05 -8.25924e-22)
(0.00746529 0.00368195 -9.96367e-22)
(0.00145647 0.000783899 -1.18872e-21)
(0.00172537 0.000863099 0)
(0.00157206 0.00753981 0)
(0.000576985 0.00327955 0)
(0.000313304 0.00197565 0)
(0.136719 -0.00134455 5.56762e-23)
(0.137712 -0.00118956 0)
(0.136098 -0.00213825 -6.49356e-23)
(0.0881176 -0.0148601 4.41983e-21)
(0.0901242 -0.0152681 -1.60438e-21)
(0.089039 -0.0128846 0)
(0.106979 0.000232377 -6.96176e-24)
(0.10762 0.000227188 1.39339e-23)
(0.106322 0.000238657 -4.71932e-24)
(0.10824 0.000224573 0)
(0.108841 0.000229096 -8.85373e-24)
(0.10942 0.000227691 0)
(0.109415 -0.000380487 0)
(0.109976 0.000214692 3.27306e-23)
(0.109962 -0.000380329 0)
(0.108842 -0.000392422 -8.91683e-24)
(0.108241 -0.000409495 0)
(0.10762 -0.000426471 4.66086e-24)
(0.106977 -0.000447161 -6.96295e-24)
(0.106323 -0.000465459 4.71342e-24)
(0.110505 0.000199921 -3.13204e-23)
(0.11049 -0.000373664 -1.09383e-24)
(0.105641 0.000249211 5.3411e-28)
(0.105638 -0.000477214 -7.21499e-24)
(0.104933 0.000258558 3.8418e-23)
(0.111009 0.000191949 2.91926e-26)
(0.111008 -0.000358326 -1.0905e-24)
(0.104935 -0.000496673 1.42308e-23)
(0.111499 0.000183141 2.9319e-23)
(0.111968 0.000176368 -2.92948e-23)
(0.1115 -0.000343914 2.20013e-24)
(0.111971 -0.000328307 4.33179e-24)
(0.104232 0.000281792 -3.73788e-23)
(0.104227 -0.000514741 -9.36976e-24)
(0.112418 0.000168161 0)
(0.112421 -0.000313966 -4.27258e-24)
(0.103495 0.000293023 4.62808e-27)
(0.103492 -0.000525299 -4.63968e-27)
(0.112847 0.000161566 0)
(0.11285 -0.000298803 0)
(0.102739 0.000300106 0)
(0.102736 -0.000539137 0)
(0.113257 0.000153435 0)
(0.11326 -0.000285049 2.0404e-24)
(0.101965 0.000307489 -1.94365e-23)
(0.101962 -0.000550675 -4.74257e-27)
(0.113648 0.000146741 1.06848e-25)
(0.113651 -0.000270611 -2.17902e-24)
(0.101174 0.00031282 1.95294e-23)
(0.101171 -0.000563205 0)
(0.114019 0.00013857 0)
(0.114023 -0.000257453 0)
(0.100367 0.000319065 -1.23592e-24)
(0.100365 -0.000572063 2.12099e-23)
(0.114372 0.000131801 1.31465e-23)
(0.114376 -0.000243411 0)
(0.0995469 0.00032288 -1.08737e-25)
(0.0995433 -0.000580147 -2.00747e-23)
(0.114708 0.000123652 -1.96517e-23)
(0.114711 -0.000230685 -5.69797e-24)
(0.098696 0.000317877 2.04664e-23)
(0.0986961 -0.000587043 0)
(0.115026 0.000117224 6.46471e-24)
(0.115031 -0.000215427 3.79893e-24)
(0.0978349 0.000321633 -1.0354e-23)
(0.0978352 -0.000596443 2.09939e-23)
(0.115325 0.000112187 -2.57505e-23)
(0.115336 -0.000196453 2.90231e-23)
(0.0969311 0.000306674 1.06693e-23)
(0.0969414 -0.000610586 3.37575e-25)
(0.115613 0.000108199 0)
(0.115624 -0.000179504 1.38088e-23)
(0.0960125 0.000293442 -2.14497e-23)
(0.0960298 -0.000632404 4.29053e-23)
(0.115895 9.9744e-05 0)
(0.115898 -0.00016736 0)
(0.0971154 0.00121855 -1.05572e-23)
(0.0961958 0.00121854 -4.26848e-23)
(0.0950611 0.000273025 0)
(0.0950963 -0.00066698 -2.18407e-23)
(0.098877 0.00120555 -6.6339e-24)
(0.0980029 0.00121401 1.30273e-24)
(0.100536 0.00116861 0)
(0.0997084 0.00118775 -2.14307e-23)
(0.102124 0.00112261 -4.13611e-26)
(0.101339 0.00114643 0)
(0.103641 0.00107052 0)
(0.102891 0.00109727 0)
(0.105089 0.00100614 0)
(0.104372 0.00104117 0)
(0.106436 0.000941615 9.3122e-24)
(0.105766 0.000973023 2.35167e-24)
(0.107719 0.000886972 -8.96903e-24)
(0.107093 0.000913742 -9.30347e-24)
(0.108919 0.000836089 1.58653e-23)
(0.108325 0.000855699 2.03072e-23)
(0.110049 0.000786946 0)
(0.109493 0.000815027 0)
(0.111084 0.000732063 -6.9238e-26)
(0.110578 0.000759557 0)
(0.112034 0.000674474 0)
(0.111569 0.00070337 0)
(0.112905 0.000616656 0)
(0.112479 0.000645429 0)
(0.113698 0.000559907 0)
(0.113311 0.000588048 0)
(0.114416 0.000504742 0)
(0.114066 0.000532073 0)
(0.115063 0.00045136 0)
(0.114748 0.00047777 0)
(0.115649 0.000391169 -1.05004e-23)
(0.115361 0.000425014 0)
(0.115922 0.000362162 -3.38426e-24)
(0.116158 8.91229e-05 3.30096e-24)
(0.116159 -0.000158091 -3.27349e-24)
(0.115367 -0.000487888 0)
(0.115924 -0.000429775 -1.34445e-23)
(0.115653 -0.000457279 -6.94226e-24)
(0.114747 -0.00055321 1.9108e-24)
(0.115065 -0.000520784 -7.4653e-24)
(0.114063 -0.000617516 6.21394e-26)
(0.114414 -0.000585845 0)
(0.113307 -0.000682683 0)
(0.113694 -0.000649661 0)
(0.112474 -0.000751103 0)
(0.1129 -0.000716436 0)
(0.111561 -0.000822735 0)
(0.112027 -0.000786462 8.26022e-30)
(0.110565 -0.000897997 7.00847e-26)
(0.111073 -0.000859766 0)
(0.109492 -0.000968746 0)
(0.110036 -0.000934984 0)
(0.108332 -0.00103754 0)
(0.10892 -0.00100306 0)
(0.107085 -0.00111153 0)
(0.107718 -0.00107177 -4.70736e-24)
(0.105758 -0.00118986 1.24442e-24)
(0.106429 -0.00115497 -6.08644e-24)
(0.104362 -0.00126893 0)
(0.105075 -0.00122712 -4.96054e-24)
(0.102883 -0.00133688 0)
(0.103632 -0.00130388 0)
(0.101332 -0.00139783 0)
(0.102116 -0.00136818 0)
(0.0997071 -0.00144974 0)
(0.100529 -0.00142501 0)
(0.0980102 -0.00149277 -5.42564e-24)
(0.0988694 -0.00147053 0)
(0.0962468 -0.00154817 -2.19504e-23)
(0.0971382 -0.00151499 -5.45018e-24)
(0.0953281 -0.00158501 2.2328e-23)
(0.095255 0.00122024 4.23056e-23)
(0.116182 0.000336037 6.61348e-24)
(0.116182 -0.000403695 -1.28993e-23)
(0.0941316 -0.000713289 0)
(0.0943927 -0.0016372 0)
(0.094295 0.00122235 0)
(0.09409 0.000244587 0)
(0.0974898 0.00211164 0)
(0.0956852 0.00216276 1.05897e-23)
(0.0965965 0.00213538 1.07102e-23)
(0.0992215 0.00205162 1.36195e-23)
(0.0983649 0.00208415 -2.72177e-24)
(0.100852 0.00197467 4.21071e-26)
(0.100047 0.00201429 0)
(0.102413 0.00189207 0)
(0.101641 0.00193404 0)
(0.103902 0.00180418 0)
(0.103166 0.00184877 0)
(0.10532 0.00171292 0)
(0.10462 0.00175836 0)
(0.106658 0.00161679 0)
(0.105998 0.00166649 0)
(0.107915 0.00152292 -3.75635e-26)
(0.107293 0.00157158 9.70113e-24)
(0.109088 0.00142438 -3.59341e-26)
(0.108516 0.00147181 -1.88875e-23)
(0.110192 0.00132255 0)
(0.109649 0.00137299 0)
(0.111211 0.00122366 3.4574e-26)
(0.110712 0.00127288 0)
(0.112147 0.00112537 0)
(0.111689 0.00117443 0)
(0.113003 0.00102831 0)
(0.112585 0.00107659 0)
(0.113783 0.000933701 0)
(0.113403 0.000980626 0)
(0.11449 0.000842374 0)
(0.114146 0.000887587 0)
(0.115127 0.000754293 0)
(0.114817 0.000798019 0)
(0.115704 0.000662825 7.17376e-24)
(0.115422 0.000709441 0)
(0.116406 8.08301e-05 0)
(0.116426 0.000311442 6.44543e-24)
(0.116226 0.000577181 0)
(0.115971 0.000619015 6.97842e-24)
(0.115973 -0.000688866 1.39027e-23)
(0.116226 -0.000647884 3.40605e-24)
(0.116425 -0.00038142 2.65554e-23)
(0.116406 -0.000148336 0)
(0.115424 -0.000778937 0)
(0.115705 -0.000732681 -2.09948e-23)
(0.114814 -0.000875303 6.01545e-26)
(0.115128 -0.000825698 7.51071e-24)
(0.114141 -0.000973215 -6.21392e-26)
(0.114486 -0.000923872 0)
(0.113397 -0.00107549 0)
(0.113778 -0.00102371 0)
(0.112577 -0.00118278 0)
(0.112996 -0.00112852 0)
(0.111679 -0.00129462 0)
(0.112138 -0.00123816 -8.2602e-30)
(0.110701 -0.00141034 -1.40092e-25)
(0.1112 -0.00135206 0)
(0.109645 -0.00152655 0)
(0.110183 -0.00146877 0)
(0.108503 -0.00164312 2.3733e-24)
(0.109084 -0.00158465 0)
(0.107284 -0.00175662 0)
(0.107904 -0.00169766 -2.3634e-24)
(0.105984 -0.00187329 4.96851e-24)
(0.10664 -0.00181652 4.93124e-24)
(0.104606 -0.00198306 0)
(0.105305 -0.00192889 0)
(0.103153 -0.00208739 0)
(0.103889 -0.00203607 0)
(0.101628 -0.00218438 0)
(0.102399 -0.00213685 0)
(0.100033 -0.00227337 0)
(0.100839 -0.0022298 0)
(0.0983709 -0.00235501 8.6682e-26)
(0.0992105 -0.00231495 0)
(0.0966441 -0.00243047 -8.7795e-26)
(0.0975166 -0.00239373 0)
(0.0948488 -0.00253213 -2.29422e-23)
(0.0957529 -0.00247903 2.29317e-23)
(0.0947536 0.0021893 2.15172e-23)
(0.0934455 -0.00170012 0)
(0.0939279 -0.00259766 -4.65569e-23)
(0.0931627 -0.000764979 0)
(0.116465 0.000540879 0)
(0.116466 -0.000608785 -3.29945e-24)
(0.0933229 0.00122647 5.44755e-23)
(0.0938103 0.00221677 2.17727e-23)
(0.0924777 -0.00176312 1.1779e-23)
(0.0929924 -0.00266851 5.88318e-23)
(0.0931006 0.000213769 0)
(0.116291 0.000817651 2.72447e-23)
(0.116524 0.000765478 -1.34466e-23)
(0.116654 -0.000358934 -6.52323e-24)
(0.116691 -0.00057049 3.24127e-23)
(0.0945501 0.00317369 7.63627e-23)
(0.0928392 0.00224427 -4.28988e-23)
(0.0926502 0.00326715 -1.90901e-22)
(0.0936025 0.00321337 -4.35861e-23)
(0.096341 0.00307751 2.12978e-23)
(0.095454 0.00312776 -6.5012e-23)
(0.0980623 0.0029753 -2.18051e-23)
(0.0972111 0.00302744 -1.64273e-23)
(0.099729 0.00287137 -5.44494e-24)
(0.0989055 0.00292587 -5.4425e-24)
(0.101317 0.0027615 -4.21071e-26)
(0.100534 0.00281767 0)
(0.102834 0.00264412 0)
(0.102084 0.00270358 0)
(0.104282 0.00252079 0)
(0.103567 0.00258319 0)
(0.10566 0.00239238 0)
(0.10498 0.00245705 0)
(0.106963 0.0022607 0)
(0.106321 0.00232683 0)
(0.108188 0.002125 0)
(0.107585 0.00219347 0)
(0.109335 0.0019873 6.14203e-29)
(0.108772 0.00205661 0)
(0.110405 0.00184561 0)
(0.109879 0.00191643 0)
(0.111398 0.00170562 3.44953e-26)
(0.110911 0.00177536 0)
(0.112311 0.00156746 0)
(0.111864 0.00163629 0)
(0.113147 0.00143193 0)
(0.112738 0.00149929 0)
(0.113908 0.00130028 0)
(0.113537 0.00136555 0)
(0.114599 0.00117358 0)
(0.114262 0.00123626 0)
(0.115221 0.00105196 0)
(0.114918 0.00111224 0)
(0.115783 0.00093136 3.65478e-24)
(0.115509 0.000991376 -1.84009e-24)
(0.116044 0.000873532 -1.39088e-23)
(0.116635 7.50051e-05 -3.08994e-24)
(0.116691 0.000505174 1.29082e-23)
(0.116654 0.000290619 -9.88847e-24)
(0.116635 -0.000142939 0)
(0.116044 -0.000943424 -1.03296e-23)
(0.116524 -0.00083208 -2.9738e-23)
(0.116291 -0.000886948 2.39935e-23)
(0.115508 -0.00106601 0)
(0.115783 -0.00100279 0)
(0.114914 -0.0011904 -5.27177e-29)
(0.115219 -0.0011261 0)
(0.114256 -0.00132218 0)
(0.114593 -0.00125553 0)
(0.113529 -0.00146066 -6.39982e-26)
(0.113901 -0.00139056 0)
(0.112729 -0.00160577 0)
(0.113138 -0.00153245 0)
(0.111853 -0.0017565 0)
(0.1123 -0.00168052 0)
(0.1109 -0.00191143 7.00169e-26)
(0.111386 -0.00183356 0)
(0.109869 -0.00206798 7.1906e-26)
(0.110394 -0.00198969 0)
(0.108758 -0.00222536 0)
(0.109323 -0.0021466 0)
(0.107569 -0.00238084 0)
(0.108174 -0.00230336 0)
(0.106304 -0.00253403 0)
(0.106945 -0.00245809 0)
(0.104962 -0.00268078 0)
(0.105642 -0.00260797 0)
(0.103549 -0.00282122 -8.14022e-26)
(0.104264 -0.00275197 0)
(0.102065 -0.00295325 0)
(0.102815 -0.00288836 0)
(0.100514 -0.00307611 0)
(0.101298 -0.00301583 0)
(0.0988989 -0.00318984 -1.94728e-28)
(0.0997144 -0.00313407 0)
(0.097223 -0.00329475 2.21185e-28)
(0.0980686 -0.00324342 0)
(0.0954902 -0.0034023 9.04851e-26)
(0.0963612 -0.00334511 0)
(0.0937027 -0.00353618 -4.74748e-23)
(0.0946016 -0.00346498 1.16883e-23)
(0.0920451 -0.00273556 1.19431e-23)
(0.0928048 -0.00361226 2.37477e-23)
(0.0923363 0.00122372 -2.13488e-23)
(0.0921708 -0.000818882 -2.28102e-23)
(0.116745 0.000715694 3.28465e-24)
(0.116745 -0.000782221 2.33641e-23)
(0.0918207 0.00224897 2.65063e-24)
(0.0914973 -0.0018329 0)
(0.0914526 0.00316 2.92482e-22)
(0.0918998 -0.00368609 3.63856e-23)
(0.0911025 -0.00280437 4.86143e-23)
(0.0926787 0.00442665 -4.83105e-22)
(0.0921948 0.00459204 8.84042e-23)
(0.0921176 0.000187779 0)
(0.0938561 0.00422814 4.89048e-23)
(0.0931633 0.00435591 2.49511e-23)
(0.0955024 0.00407654 4.42e-23)
(0.0946425 0.00413974 -6.73217e-23)
(0.0971939 0.00394328 -2.20438e-23)
(0.0963593 0.00401325 -1.0979e-23)
(0.0988238 0.00380723 1.10595e-23)
(0.0980156 0.00387502 1.11922e-23)
(0.100405 0.00366614 0)
(0.0996186 0.00373646 -1.7746e-26)
(0.101925 0.00352196 0)
(0.101173 0.0035949 0)
(0.103383 0.00337127 4.10584e-26)
(0.102662 0.00344743 0)
(0.104777 0.00321388 0)
(0.104088 0.00329344 0)
(0.106103 0.00305008 0)
(0.105448 0.00313271 0)
(0.107359 0.0028812 0)
(0.10674 0.00296624 0)
(0.108541 0.00270778 3.73637e-26)
(0.107959 0.00279504 0)
(0.109649 0.00253116 6.87103e-29)
(0.109105 0.00261984 0)
(0.110682 0.00235194 0)
(0.110175 0.00244166 0)
(0.111641 0.0021733 -6.89334e-26)
(0.111171 0.00226242 0)
(0.112524 0.00199691 0)
(0.112092 0.00208475 0)
(0.113333 0.00182421 0)
(0.112938 0.00191002 0)
(0.114071 0.00165673 0)
(0.113711 0.00173974 0)
(0.11474 0.00149581 0)
(0.114414 0.00157539 0)
(0.115343 0.00134199 0)
(0.115049 0.00141808 0)
(0.115887 0.00119433 -1.82466e-24)
(0.115622 0.00126663 0)
(0.116377 0.00105322 0)
(0.116139 0.00112259 -3.5314e-24)
(0.116816 0.00092142 -9.13004e-28)
(0.116604 0.000986091 0)
(0.116901 0.000471545 -1.30875e-23)
(0.117019 0.000862564 7.88755e-25)
(0.116953 0.000669907 6.39856e-24)
(0.116848 6.7784e-05 4.7057e-24)
(0.116866 0.000270255 -3.24815e-24)
(0.116867 -0.000337831 -1.6356e-24)
(0.116848 -0.000135813 1.63235e-24)
(0.116952 -0.000736322 0)
(0.116902 -0.000538376 -1.48704e-23)
(0.116603 -0.00105401 -6.68803e-24)
(0.117018 -0.000932205 -1.27772e-23)
(0.116817 -0.000990732 2.93555e-23)
(0.116138 -0.00119266 -3.52017e-24)
(0.116377 -0.00112191 0)
(0.115619 -0.00134171 0)
(0.115885 -0.00126543 0)
(0.115044 -0.00149714 -6.76656e-29)
(0.115339 -0.00141829 0)
(0.114406 -0.00166176 0)
(0.114733 -0.00157834 0)
(0.113702 -0.00183526 6.39982e-26)
(0.114062 -0.00174744 0)
(0.112927 -0.00201685 0)
(0.113323 -0.00192514 0)
(0.112079 -0.00220508 0)
(0.112512 -0.00211026 0)
(0.111158 -0.00239803 0)
(0.111628 -0.00230112 0)
(0.110161 -0.00259333 -1.22791e-28)
(0.110669 -0.00249555 0)
(0.109089 -0.0027892 0)
(0.109634 -0.00269134 0)
(0.107941 -0.00298306 0)
(0.108525 -0.00288647 0)
(0.10672 -0.00317312 0)
(0.10734 -0.00307884 0)
(0.105428 -0.00335642 0)
(0.106083 -0.00326563 0)
(0.104065 -0.00353174 8.14022e-26)
(0.104755 -0.00344523 0)
(0.102637 -0.00369733 0)
(0.103359 -0.00361584 0)
(0.101144 -0.00385232 0)
(0.101898 -0.00377618 0)
(0.0995916 -0.0039966 -8.6479e-26)
(0.100375 -0.00392578 0)
(0.0979822 -0.00413026 8.80141e-26)
(0.0987938 -0.00406477 0)
(0.0963194 -0.00425561 -8.94627e-26)
(0.0971569 -0.00419368 0)
(0.0946149 -0.00438363 1.17325e-23)
(0.0954689 -0.00431582 -2.3157e-23)
(0.0928961 -0.00453235 -1.17876e-23)
(0.0937539 -0.00445457 2.39719e-23)
(0.0909817 -0.00375344 2.71278e-25)
(0.0920246 -0.00460584 2.41123e-23)
(0.0913287 0.00119975 -2.18308e-23)
(0.0911785 -0.000857392 0)
(0.0908032 0.00219366 -2.10344e-22)
(0.0905138 -0.00187847 0)
(0.116907 0.00112547 -3.27593e-24)
(0.117101 0.00105184 2.39993e-24)
(0.117146 -0.000692679 -1.25157e-23)
(0.117208 -0.000873214 -1.41776e-23)
(0.0903299 0.00306211 -2.05149e-22)
(0.0901489 -0.00286695 -4.90898e-23)
(0.0912315 0.00452408 0)
(0.0938019 0.00525718 -5.5887e-23)
(0.0900625 -0.00381865 -2.40751e-23)
(0.0911435 -0.00467284 3.63941e-23)
(0.0930334 0.00524453 1.12311e-22)
(0.0911184 0.000160939 0)
(0.0950946 0.00507091 0)
(0.0944208 0.00517234 -4.988e-23)
(0.0966293 0.00490784 0)
(0.0958437 0.00498849 0)
(0.0982034 0.00474819 0)
(0.0974193 0.0048269 1.13744e-23)
(0.0997323 0.0045876 0)
(0.0989724 0.00466868 0)
(0.101222 0.00442052 0)
(0.100482 0.00450447 0)
(0.102664 0.00424773 0)
(0.10195 0.00433515 0)
(0.10405 0.00406686 -4.10584e-26)
(0.103364 0.00415833 0)
(0.105377 0.00387769 0)
(0.104721 0.00397332 0)
(0.106642 0.0036806 0)
(0.106018 0.00378008 0)
(0.107841 0.00347676 0)
(0.10725 0.00357946 0)
(0.108971 0.00326744 -8.93251e-29)
(0.108415 0.00337274 0)
(0.110031 0.00305425 8.15606e-29)
(0.10951 0.00316123 0)
(0.11102 0.00283866 0)
(0.110534 0.0029466 0)
(0.111938 0.00262336 6.85058e-29)
(0.111488 0.00273083 0)
(0.112784 0.0024106 0)
(0.11237 0.00251655 0)
(0.113561 0.00220238 0)
(0.113181 0.00230582 0)
(0.114269 0.00200059 0)
(0.113923 0.00210059 0)
(0.114912 0.00180689 0)
(0.114598 0.00190265 0)
(0.115492 0.00162237 0)
(0.115209 0.00171346 0)
(0.116015 0.00144745 0)
(0.11576 0.00153369 0)
(0.116485 0.00128091 3.49583e-24)
(0.116257 0.00136185 3.58502e-24)
(0.116702 0.0012009 -6.6958e-24)
(0.117097 0.00043982 -6.40816e-24)
(0.117209 0.000807612 0)
(0.117146 0.000624689 -6.47324e-24)
(0.117046 6.14316e-05 0)
(0.117062 0.000252031 6.53995e-24)
(0.117064 -0.00031928 9.76307e-24)
(0.117046 -0.000129611 -3.30017e-24)
(0.117098 -0.000506728 -1.91944e-23)
(0.116701 -0.00127023 3.36771e-24)
(0.117101 -0.00111848 1.24738e-23)
(0.116907 -0.00119556 0)
(0.116254 -0.00143328 -6.99696e-24)
(0.116484 -0.0013505 7.02009e-24)
(0.115756 -0.00160826 0)
(0.116011 -0.0015199 0)
(0.115203 -0.00179319 -8.22836e-29)
(0.115487 -0.00169929 0)
(0.11459 -0.0019895 0)
(0.114904 -0.00188998 0)
(0.113913 -0.00219653 0)
(0.11426 -0.00209176 0)
(0.113169 -0.00241299 0)
(0.11355 -0.00230371 0)
(0.112357 -0.00263704 0)
(0.112772 -0.00252422 0)
(0.111473 -0.00286642 6.96842e-26)
(0.111924 -0.00275124 0)
(0.110519 -0.00309857 -7.17832e-26)
(0.111005 -0.00298232 0)
(0.109492 -0.00333113 0)
(0.110014 -0.00321498 0)
(0.108395 -0.0035613 0)
(0.108953 -0.00344667 0)
(0.107229 -0.00378659 0)
(0.107821 -0.00367478 0)
(0.105995 -0.00400432 0)
(0.10662 -0.00389652 0)
(0.104696 -0.00421263 0)
(0.105353 -0.00410979 0)
(0.103334 -0.00440978 0)
(0.104023 -0.00431269 0)
(0.101914 -0.00459474 -8.43721e-26)
(0.102631 -0.00450383 0)
(0.100438 -0.0047672 8.59557e-26)
(0.101183 -0.00468254 0)
(0.0989104 -0.00492728 -8.74532e-26)
(0.0996804 -0.0048488 0)
(0.0973358 -0.00507581 0)
(0.0981285 -0.0050029 0)
(0.0957195 -0.005214 0)
(0.096532 -0.0051459 0)
(0.0940802 -0.00534717 9.25182e-26)
(0.0949043 -0.00528028 1.17781e-23)
(0.0924217 -0.00548826 -6.0995e-23)
(0.0932482 -0.00541585 0)
(0.0902715 -0.00474724 -3.61876e-23)
(0.0915925 -0.00556091 -2.50795e-25)
(0.0903216 0.00117102 6.81461e-23)
(0.0901769 -0.000887845 0)
(0.117285 0.000982989 -1.24472e-23)
(0.117284 -0.00105094 -2.4056e-23)
(0.0897007 0.0021183 -3.59662e-23)
(0.090199 0.00395023 7.7451e-25)
(0.0893018 0.00298051 1.02438e-22)
(0.089533 -0.00191037 0)
(0.0891836 -0.0029055 1.22483e-23)
(0.0918851 0.00519524 -1.04128e-22)
(0.0908459 0.00507304 8.93352e-23)
(0.0895638 0.0040868 -8.81203e-23)
(0.0891325 -0.00386915 -3.67222e-23)
(0.0893832 -0.00480955 2.44311e-23)
(0.0907708 -0.00564411 2.40017e-23)
(0.0901086 0.000134373 0)
(0.0950497 0.00599735 3.12404e-24)
(0.0932681 0.00602965 3.26036e-25)
(0.094208 0.00600125 2.4314e-23)
(0.0964262 0.00584571 2.41455e-23)
(0.0957455 0.00593046 -2.42709e-23)
(0.0978754 0.00566905 4.47087e-26)
(0.0971348 0.00575698 0)
(0.0993383 0.00549662 0)
(0.0986105 0.0055826 0)
(0.10077 0.00531836 0)
(0.100058 0.00540871 0)
(0.102167 0.0051306 0)
(0.101473 0.00522555 0)
(0.10352 0.00493323 4.16417e-26)
(0.102849 0.00503325 0)
(0.104825 0.00472528 0)
(0.104179 0.00483058 0)
(0.106076 0.00450698 0)
(0.105457 0.0046174 0)
(0.107269 0.00427904 0)
(0.10668 0.00439415 0)
(0.108402 0.00404279 0)
(0.107843 0.00416186 0)
(0.109471 0.00379993 -3.72744e-26)
(0.108945 0.00392209 0)
(0.110475 0.00355245 9.44048e-29)
(0.109981 0.00367664 0)
(0.111413 0.00330245 0)
(0.110952 0.00342761 0)
(0.112284 0.00305263 6.866e-26)
(0.111857 0.00317736 0)
(0.113088 0.0028056 0)
(0.112694 0.00292862 0)
(0.113826 0.00256381 0)
(0.113465 0.00268392 0)
(0.114501 0.00232952 0)
(0.114171 0.00244561 0)
(0.115113 0.0021047 0)
(0.114814 0.00221583 0)
(0.115667 0.00189086 0)
(0.115397 0.00199635 0)
(0.116165 0.00168885 5.70719e-26)
(0.115922 0.00178834 0)
(0.116613 0.00149823 -3.5111e-24)
(0.116395 0.0015924 0)
(0.117015 0.00131786 3.33268e-24)
(0.11682 0.00140636 0)
(0.117375 0.00115121 3.16554e-24)
(0.117199 0.0012332 -3.24434e-24)
(0.117384 0.000753504 6.25814e-24)
(0.11754 0.00107438 0)
(0.117458 0.000918014 9.3174e-24)
(0.117278 0.000410553 0)
(0.117324 0.000583404 0)
(0.11723 5.54729e-05 0)
(0.117246 0.000233928 0)
(0.117247 -0.000301515 0)
(0.117231 -0.000123612 0)
(0.117325 -0.000651796 1.27556e-23)
(0.117279 -0.000478183 3.16718e-24)
(0.117454 -0.000987053 3.12977e-24)
(0.117384 -0.000821169 2.49721e-23)
(0.1172 -0.00130347 1.63016e-23)
(0.117538 -0.00114869 3.11112e-24)
(0.117374 -0.00122344 -6.33364e-24)
(0.116818 -0.00147709 3.35284e-24)
(0.117014 -0.00138831 -2.01024e-23)
(0.116392 -0.0016642 -7.28645e-29)
(0.116611 -0.00156868 0)
(0.115917 -0.00186354 0)
(0.116161 -0.0017621 0)
(0.11539 -0.00207667 -9.67047e-29)
(0.11566 -0.00196841 0)
(0.114805 -0.00230316 0)
(0.115105 -0.00218832 0)
(0.114161 -0.00254197 0)
(0.114491 -0.00242114 0)
(0.113453 -0.00279142 0)
(0.113815 -0.00266551 0)
(0.112681 -0.00304933 0)
(0.113075 -0.00291949 0)
(0.111842 -0.00331311 -1.39212e-25)
(0.11227 -0.00318068 0)
(0.110936 -0.00357995 0)
(0.111397 -0.00344635 0)
(0.109964 -0.00384697 0)
(0.110458 -0.00371364 0)
(0.108925 -0.00411111 0)
(0.109453 -0.00397959 0)
(0.107822 -0.00436946 0)
(0.108382 -0.00424122 0)
(0.106657 -0.00461923 -7.89545e-26)
(0.107247 -0.00449557 0)
(0.105431 -0.00485819 0)
(0.106051 -0.00474021 0)
(0.104148 -0.00508449 0)
(0.104796 -0.00497303 0)
(0.102811 -0.00529691 8.43721e-26)
(0.103486 -0.00519249 0)
(0.101424 -0.0054949 -3.23999e-28)
(0.102124 -0.00539773 0)
(0.0999909 -0.00567843 1.74563e-25)
(0.100713 -0.00558848 0)
(0.0985161 -0.0058478 0)
(0.0992583 -0.00576488 0)
(0.0970049 -0.0060034 0)
(0.0977646 -0.00592715 0)
(0.0954632 -0.00614435 -4.0896e-28)
(0.096238 -0.00607633 0)
(0.0938963 -0.00627561 0)
(0.0946815 -0.00621048 0)
(0.0923394 -0.00641967 -3.61196e-23)
(0.0931152 -0.00634522 0)
(0.0899365 -0.00571721 -2.29777e-25)
(0.0915663 -0.00650003 6.1136e-23)
(0.0892695 0.0011255 0)
(0.0923354 0.00601246 1.40905e-22)
(0.0886515 0.00204534 2.45784e-23)
(0.117479 0.00131563 -3.15959e-24)
(0.117635 0.00123056 0)
(0.117615 -0.000927701 3.04347e-24)
(0.117692 -0.00107618 -6.03805e-24)
(0.0891724 -0.000913119 0)
(0.0885428 -0.00193216 0)
(0.0884198 0.00305853 0)
(0.0882129 -0.0029333 -1.20635e-23)
(0.088195 -0.0039192 -2.41759e-23)
(0.0884893 -0.00487478 0)
(0.0890923 -0.00578868 6.19295e-23)
(0.0907793 -0.00657583 -4.93086e-23)
(0.0890848 0.000106002 0)
(0.0949129 0.00680654 -1.16765e-26)
(0.0913448 0.00595672 4.41171e-23)
(0.0932133 0.00686182 -1.57115e-22)
(0.0940644 0.00685067 4.61029e-23)
(0.0964961 0.0067069 -1.50669e-23)
(0.0957147 0.0067404 -2.41068e-23)
(0.0978686 0.00656451 0)
(0.0971982 0.00664674 0)
(0.0992334 0.00637908 -4.47047e-26)
(0.0985425 0.00647136 0)
(0.100595 0.00619434 0)
(0.099918 0.00628736 0)
(0.101925 0.00600001 0)
(0.101264 0.00609868 0)
(0.103222 0.00579343 0)
(0.102578 0.00589826 0)
(0.10448 0.00557419 -4.16417e-26)
(0.103857 0.00568546 0)
(0.105695 0.00534195 0)
(0.105093 0.00545968 0)
(0.106861 0.00509725 0)
(0.106284 0.00522112 0)
(0.107975 0.00484114 0)
(0.107424 0.00497055 0)
(0.109034 0.0045752 0)
(0.108512 0.00470929 0)
(0.110035 0.00430145 3.70562e-26)
(0.109542 0.00443917 0)
(0.110977 0.00402225 1.06243e-28)
(0.110514 0.00416239 0)
(0.111857 0.00374021 0)
(0.111424 0.00388143 0)
(0.112675 0.00345823 -8.92891e-29)
(0.112274 0.00359904 0)
(0.113432 0.00317924 0)
(0.113061 0.00331819 0)