/*--------------------------------*- C++ -*----------------------------------*\
  =========                 |
  \\      /  F ield         | OpenFOAM: The Open Source CFD Toolbox
   \\    /   O peration     | Website:  https://openfoam.org
    \\  /    A nd           | Version:  10
     \\/     M anipulation  |
\*---------------------------------------------------------------------------*/
FoamFile
{
    format      ascii;
    class       surfaceScalarField;
    location    "2";
    object      phi;
}
// * * * * * * * * * * * * * * * * * * * * * * * * * * * * * * * * * * * * * //

dimensions      [0 3 -1 0 0 0 0];

internalField   nonuniform List<scalar> 
57492
(
-0.0154656
-0.000200138
0.00295561
0.0127101
0.0159199
-0.0134536
-0.0179319
-0.00281708
0.00903946
0.0284322
-0.0346545
0.0990954
0.0722779
-0.0164442
-0.154929
-0.209832
0.0848808
0.224046
0.0744903
-0.0737551
-0.0401023
0.0393671
-0.13405
0.0311921
-0.0171726
0.120031
0.0222933
-0.0818533
0.034988
-0.104962
0.0998871
-0.0299127
0.0297902
0.0958621
-0.0906642
0.0442481
0.00119529
-0.00497916
-0.0404642
-0.0197826
0.00857604
0.0554546
-0.0364212
0.0264021
-0.00976348
0.000772937
-0.0359989
0.10165
-0.0885901
-0.0363153
0.0232555
0.00359798
0.0768728
0.0211791
-0.00276901
0.0140064
0.0859154
-0.0971527
-0.0123986
0.084868
-0.0752384
0.0163853
-0.0332178
0.0168325
-0.0909934
0.0623965
0.0449823
-0.114647
0.0136984
0.0835607
0.0173875
0.0206392
-0.116384
-0.0189014
0.00551391
0.00484242
0.00429296
-0.0146493
0.0110569
-0.007244
0.00170098
-0.0920891
0.108043
0.000579823
-0.0165338
-0.147928
0.0868827
-0.0310442
-0.0715874
0.0253077
0.0366845
0.0095952
-0.0503831
-0.0242966
0.00309242
-0.0260451
-0.0701953
0.0861238
0.0101166
-0.0317665
0.0106582
-0.00493689
0.0839666
-0.0526126
-0.0514021
0.0200482
-0.0635914
0.0535356
0.0940224
-0.0832405
-0.159343
0.0865756
0.156008
-0.143126
-0.041304
0.10119
-0.0566725
-0.00931364
0.0659862
-0.0160611
-0.0406115
-0.0712158
0.0889447
-0.03379
0.0149181
-0.0461021
-0.0400319
-0.0744774
0.105669
-0.0256933
-0.113814
0.0552633
0.0585512
-0.205471
0.0916569
0.113481
-0.0225973
0.0119884
-0.102872
0.0837726
0.000995441
0.0287134
-0.0199008
0.109626
-0.112322
0.119012
0.0183463
-0.115065
0.115195
-0.0133556
0.116393
-0.0425906
-0.0834462
0.0096436
0.132281
0.00245843
0.096844
-0.0492332
0.0675846
0.0354073
0.181468
-0.106665
-0.0121981
0.0106026
0.108261
-0.11017
-0.00454778
0.00805257
0.0254077
0.101886
-0.100187
-0.0271067
0.0177407
-0.0972955
-0.0469703
0.11736
0.0867199
-0.15711
0.0341318
0.130017
-0.21112
0.010429
0.0118362
-0.0025137
-0.0197514
0.0123866
0.0244445
-0.00843407
0.00403222
0.0167884
0.00494181
-0.00153971
-0.00498683
0.00247313
0.000820627
-0.00580745
0.240904
0.0997641
-0.163089
-0.17758
0.0920037
-0.0647313
0.213632
-0.210006
0.0883947
0.213615
0.0498954
-0.160137
0.0303438
-0.0780385
0.0617522
-0.0140575
0.0663748
-0.0785809
0.0425499
0.00245422
-0.00279995
0.000145599
0.00487481
0.00053502
0.0154515
0.00213337
-0.0843429
0.153357
0.0721065
-0.141121
0.0963878
-0.114356
0.0563337
0.143092
-0.046069
0.345937
-0.0190687
-0.11719
-0.209678
0.109924
0.192254
0.0437581
0.0623161
-0.128569
0.176176
0.00553378
-0.00835087
0.0145732
0.0489169
0.0863495
-0.0394828
-0.0957836
0.0688798
0.00846918
0.00701162
-0.00215384
-0.00485778
0.0143907
-0.00737905
-0.183464
0.0935448
-0.0709886
0.160908
-0.156229
-0.0858132
0.058578
-0.0862974
0.083032
-0.152963
0.101209
-0.00215239
-0.0503708
-0.0486863
-0.0448093
0.114482
0.031537
-0.0551409
-0.00655179
0.0168834
-0.0487522
-0.00854104
-0.0188841
-0.0802389
0.0679787
0.0222287
-0.00905798
-0.0811495
0.0265483
0.0704374
-0.0290069
-0.0699908
-0.0203666
0.116906
-0.0519893
0.00422715
-0.070071
0.00902373
-0.0509145
0.0320304
0.00611985
-0.0570344
0.0059299
0.00846077
0.117926
0.0764311
-0.00868892
0.0421617
-0.134068
-0.0155061
0.0958127
-0.0672719
-0.0130347
-0.0231155
0.100944
-0.0933346
0.0873762
0.0450585
-0.00911622
-0.123319
-0.0310956
0.0162013
0.102271
0.107361
-0.0933981
-0.034714
-0.0715582
0.0236464
0.0826258
-0.0326055
0.0821123
-0.0842208
0.00494267
-0.109106
-0.0286943
-0.0267285
-0.00119285
-0.0174131
0.0144576
0.0188755
-0.0392078
0.0264668
-0.00467211
-0.0408182
-0.0118432
-0.0128222
0.0217239
0.00517568
-0.0140773
0.0413151
-0.0358045
-0.0183328
-0.0219008
0.0501928
0.0130231
-0.0113299
0.011153
-0.155712
0.0942269
0.15503
0.172282
-0.0614162
-0.196679
-0.0747915
0.0913614
-0.00740675
-0.0542856
-0.00850294
-0.0396013
0.000428051
0.0011346
-0.0119768
0.00545969
0.00538248
-0.0114878
0.00661839
0.00600403
-0.0201413
-0.0033233
-0.0163571
-0.027281
0.00403684
-0.0437581
-0.0268846
-0.0551424
-0.0609272
0.0732228
0.0428468
0.00341366
0.0247926
-0.0833487
-0.0823892
0.0248757
-0.127862
0.047242
-0.0103733
-0.124716
0.0117981
-0.0149442
-0.00545307
-0.0849269
0.0788754
0.0115046
-0.000681889
-0.0891904
0.0844192
-0.00789587
-0.282502
-0.0727407
0.091379
0.0874504
-0.112949
0.0966818
-0.0170507
0.0408838
-0.0612504
0.0382805
0.00260336
0.0236167
-0.00551904
0.123445
-0.074628
-0.0522297
0.00341233
0.105906
-0.00236141
0.144935
0.0366648
-0.147468
0.0792288
0.113866
-0.0481604
0.034841
-0.0728726
0.11726
0.00491078
0.0333697
0.0322088
-0.106328
-0.102775
0.0670208
0.130493
0.0789574
-0.00353854
-0.0830267
0.00760785
0.0249523
-0.00958635
-0.0955543
0.0178351
0.131255
0.0129708
-0.0835728
-0.00895182
-0.000694198
0.0150539
-0.0258225
0.00744057
0.00332807
-0.00960036
0.000487606
0.0241666
-0.013555
0.0469547
-0.0430001
-0.0211769
0.0465008
-0.019394
0.174035
-0.135187
-0.0600254
-0.00229016
-0.109805
0.129931
-0.197976
-0.0146833
-0.149844
-0.0720073
0.0238753
0.0790897
0.0626696
-0.128061
0.0472821
0.118717
-0.0869093
0.0449048
-0.0810596
0.0478825
-0.0117277
0.0492202
-0.0782013
0.0738859
0.111168
0.0350625
0.112043
-0.00234841
-0.111571
0.00187647
0.123827
-0.0118856
0.000101641
0.125716
-0.0199854
0.0016811
-0.107412
0.0897184
-0.0306137
0.066611
0.100439
-0.0276326
0.0220244
-0.0948313
0.0248937
0.102038
-0.026492
-0.0914245
-0.033629
0.0974209
0.0198929
-0.0876709
-0.0359022
0.084899
-0.0458065
-0.0769361
0.0404831
0.0822595
-0.0472089
-0.0784187
0.0798211
0.0433139
0.0740918
-0.0254738
-0.0919319
0.073255
-0.0771499
-0.050153
0.0509203
0.0724877
-0.0394304
0.0633691
-0.0974849
0.0858677
-0.0138565
-0.125282
0.0110321
0.126863
-0.0126132
0.0331683
0.0247709
-0.012928
0.0116762
-0.0235191
0.0227256
0.0175359
-0.0154906
-0.00473311
-0.000542333
-0.0355427
-0.0844333
-0.103299
0.0627
0.00714063
-0.00665302
-1.53467e-05
0.00715598
-0.0133692
-0.127147
0.0912833
-0.0983517
-0.0107175
0.0957001
0.00822181
-0.103236
-0.00333764
-0.00943993
0.0446143
0.010113
-0.0452873
0.0476669
0.0102634
-0.0673703
0.0444218
0.0478594
0.000539793
-0.00637137
-0.0208969
-0.00646051
0.0070003
-0.0128319
0.00092279
-0.000488253
0.00450727
-0.000445165
0.00136795
-0.000933418
0.00529736
-0.000164086
0.00592365
-0.00420034
0.0094977
-0.00436443
0.0074009
-0.000962364
-0.0177684
-0.00304866
0.0104496
-0.00401103
0.0386397
0.0850189
-0.107457
0.0316996
-0.11033
0.11727
0.123764
-0.00704589
-0.0338261
-0.0634037
0.0336302
0.0635997
-0.0154826
0.0672998
-0.0856433
0.00714984
-0.0860362
0.0954146
-0.0963276
-0.000293802
0.0012068
0.0953621
0.000868059
-0.000815588
-0.000588658
-0.0961935
0.00045452
0.0960627
-2.15921e-05
-0.000679002
0.0977569
0.00139807
-0.00309221
0.000687319
0.100178
-0.00310827
0.0989756
-0.0984059
0.000117566
-0.00465242
0.104841
-1.04618e-05
0.096208
-0.00188481
-0.0954089
-0.00159893
-0.0950928
-0.000337645
-0.0949746
0.000749828
-0.0970229
0.00175448
-0.0954509
-0.00216061
-0.00451195
0.109369
-1.61905e-05
0.0917009
-4.8198e-06
-0.000469492
-0.0953959
-0.000328023
-0.0962395
0.000319116
-0.000670632
-0.100905
0.0061801
3.31801e-06
0.109373
-7.7322e-06
0.0917182
-1.40211e-05
-0.0997761
0.00286595
0.10938
9.09043e-06
-1.6168e-05
8.65335e-06
0.109381
-9.70517e-06
0.091728
-7.07205e-07
0.091746
-9.30646e-06
-0.000570491
-0.100297
-3.78937e-05
-0.100315
-3.11377e-05
1.69098e-05
0.109384
-1.96705e-05
0.0917575
5.39085e-06
-7.49453e-06
-0.100258
-3.19857e-05
-0.100272
-5.14152e-05
1.93428e-05
0.109378
-1.34374e-05
0.0917804
-3.53462e-06
-1.14979e-05
-0.100205
-4.09757e-05
-0.100229
-5.43906e-05
3.32944e-05
0.109368
-2.33314e-05
0.0918022
1.14742e-05
-2.41772e-05
-0.100148
-3.28643e-05
-0.100172
-8.10114e-05
4.63286e-05
0.109338
-1.61181e-05
0.0918465
2.02055e-06
-3.20915e-05
-0.100078
-3.81676e-05
-0.100111
-9.28654e-05
8.207e-05
0.109281
-2.50153e-05
0.0919121
1.64841e-05
0.000179313
-0.100228
-2.87299e-05
-0.0998018
-0.0001299
0.00013866
0.109159
-1.6164e-05
0.0920446
6.15344e-06
0.000579866
-0.0973318
-0.00347644
-0.0980372
-0.00118476
0.000263091
0.108919
-2.37383e-05
0.0918619
0.0004458
0.000552913
-0.0977128
-0.000171863
-0.0972367
-0.00024757
0.000496813
0.108435
-1.30738e-05
0.091217
0.00114168
0.00127106
-0.0941917
-0.00479217
-0.0943602
-0.00160545
0.00466613
0.103789
-1.93189e-05
0.0939899
0.00189321
0.00145784
-0.0936776
-0.00197196
-0.0932502
0.000347865
0.00412169
0.0961355
0.00353139
0.0955385
0.0025731
0.00238474
-0.0035291
-0.0925332
-0.0927981
0.00193268
0.000303305
0.000914966
0.0949173
0.0949147
0.00092714
-0.093997
0.0955646
-0.00353958
-0.0944265
-0.00309964
0.0041636
-0.00370251
-0.0929943
0.00192131
-0.0905559
-0.0936015
0.0944866
-0.00105698
-0.00282907
-0.0911241
0.0911991
-0.000103697
-0.000113947
-0.0912654
0.0913237
-9.11618e-05
-0.000104469
-0.0913741
0.0914196
-7.7422e-05
-9.14225e-05
-0.0914607
0.097706
-6.52672e-05
-7.89676e-05
-0.0974424
0.0961149
0.00178203
-6.43828e-05
-0.0992091
0.0984346
-4.11431e-05
-0.0018874
-0.0952844
0.093892
-0.00169975
0.00247119
-0.091663
0.0916785
-2.59138e-05
-0.000879311
-0.0916939
0.0917089
-2.26692e-05
-3.16621e-05
-0.0917233
0.0917367
-2.31881e-05
-3.05377e-05
-0.0917496
0.0917617
-2.55175e-05
-3.25657e-05
-0.0917731
0.0917835
-2.65235e-05
-3.4706e-05
-0.091793
0.0918014
-2.4579e-05
-3.4522e-05
-0.0918088
0.0918151
-1.93886e-05
-3.1148e-05
-0.0912779
0.0934226
0.00138668
0.00051791
0.0931862
0.00115136
-0.000553916
0.0018242
0.093647
-5.76324e-05
0.0944184
0.0937847
-0.0922406
0.000349068
-0.0946956
0.094492
0.0011308
0.00166221
0.0922311
-0.091797
1.17337e-05
0.00113218
0.0917885
-0.0917791
7.04689e-06
-2.36654e-06
0.0917693
-0.0917587
9.20543e-07
-7.78073e-06
0.091748
-0.0917366
-6.03403e-06
-1.42364e-05
0.0917249
-0.0917127
-1.28359e-05
-2.10185e-05
0.0916997
-0.091686
-1.85832e-05
-2.70333e-05
0.0935387
-0.0933972
-2.39363e-05
-3.20473e-05
0.0949587
-0.093924
-0.0013724
-3.74457e-05
0.093302
-0.0926828
0.00113521
0.000127904
0.0938333
-0.09443
0.000915866
-0.00101011
0.0914989
-0.0914664
-6.36138e-05
-6.51946e-05
0.0914309
-0.0913911
-9.41802e-05
-8.69229e-05
0.0913462
-0.0912951
-0.000143991
-0.00012589
0.0912385
-0.0922074
-0.000215948
-0.00018645
0.0921872
-0.0934877
-0.00030496
-0.000267706
0.0927807
-0.091375
0.000527013
-0.000359154
-0.0903208
0.000867118
-0.0950428
-0.00308619
0.0934706
0.00153986
3.51375e-05
0.0943992
0.00315082
-0.00290554
-0.0908011
0.00238628
-0.0895563
0.00309664
-0.00299544
-0.095144
-0.0928032
-0.0934899
0.0920557
-0.00210541
0.09447
-0.0951641
-0.00239208
-0.00211948
-0.0909609
0.0910491
-0.00114514
-0.00173429
-0.0911315
0.0912025
-0.000174649
-0.000196414
-0.0912646
0.0913201
-0.000146716
-0.000166541
-0.0913689
0.0914133
-0.000121797
-0.000140237
-0.0914517
0.0914862
-9.97815e-05
-0.000117317
-0.0915192
0.0933832
-8.19629e-05
-9.74542e-05
-0.0915753
0.0915998
-6.56631e-05
-7.94298e-05
-0.0941373
0.0924887
-5.11026e-05
-6.63666e-05
-0.0916632
0.0916803
-4.3026e-05
-5.37921e-05
-0.0916967
0.0917126
-3.85006e-05
-4.81069e-05
-0.0917275
0.0917417
-3.73594e-05
-4.55169e-05
-0.0917548
0.0917671
-3.77553e-05
-4.56793e-05
-0.0917781
0.0917883
-3.66417e-05
-4.57761e-05
-0.0917971
0.091805
-3.24951e-05
-4.33678e-05
-0.0918117
0.0918175
-2.52825e-05
-3.77817e-05
-0.0918155
0.0925568
0.000645438
0.000519943
0.00020818
-0.000400202
0.093839
4.71298e-05
0.0936316
-0.0922771
0.0931864
0.000630506
0.00143105
0.0932469
-0.0932712
0.00115512
0.0924954
0.000786624
-7.0945e-05
0.00112172
0.0933484
0.0939472
0.093288
-0.0926072
-0.000331693
0.00167896
0.0918072
-0.0917992
3.7681e-06
0.000332113
0.0917906
-0.0917814
-2.11499e-06
-1.09862e-05
0.0917719
-0.0917617
-9.20127e-06
-1.732e-05
0.0917513
-0.0917403
-1.70403e-05
-2.4687e-05
0.0917289
-0.0917169
-2.48475e-05
-3.24155e-05
0.0917041
-0.0916904
-3.22759e-05
-3.97839e-05
0.0916754
-0.0916599
-3.94874e-05
-4.70679e-05
0.0916436
-0.0929692
-4.67832e-05
-5.37253e-05
0.0927791
-0.0915871
-5.67584e-05
-6.21939e-05
0.0925252
-0.0915393
-7.00353e-05
-7.20794e-05
0.0915149
-0.0914872
-9.13468e-05
-8.95706e-05
0.0914574
-0.091425
-0.000126597
-0.000116656
0.0913897
-0.0913507
-0.000183008
-0.000161215
0.0913079
-0.0912597
-0.000264112
-0.000229254
0.0912061
-0.0911449
-0.000366238
-0.000321273
0.0910758
-0.0900768
-0.000471969
-0.000428178
0.0894933
-0.0882063
0.00109932
0.000283543
-0.0957278
-0.00243175
0.00206384
-0.00351926
-0.0881009
-0.0875927
0.00145024
-0.00495429
-0.0893661
0.000604594
0.092629
0.0926316
0.000985538
-0.00148645
0.00195059
-0.0956081
-0.00152023
-0.095694
0.00149463
-0.00350416
-0.0860913
0.000869876
-0.086968
-0.0958069
0.0934233
-0.0931525
0.000359634
0.0924632
0.00156472
0.00167449
-0.00072808
0.092402
0.00110762
0.0931985
-0.0947555
0.0958719
-0.00263667
-0.00280965
0.00224116
-0.0951255
0.0967694
-0.00183122
0.00740838
-0.102347
-0.000795726
-0.09585
0.0951761
-0.0017182
-0.0024098
-0.0940203
0.0925929
-0.000678016
-0.000963677
-0.0919645
0.0911024
-0.000283115
-0.00110586
-0.0911713
0.0912334
-0.000236762
-0.000265264
-0.0912883
0.0913378
-0.000196237
-0.000221445
-0.0913822
0.0914226
-0.000162264
-0.00018461
-0.0914591
0.0914932
-0.000133893
-0.00015377
-0.0915242
0.0915525
-0.000110258
-0.000128442
-0.0915798
0.0916042
-8.9984e-05
-0.000106775
-0.0916261
0.0916482
-7.32238e-05
-8.83179e-05
-0.0916683
0.0916863
-6.11115e-05
-7.38188e-05
-0.0917032
0.0917193
-5.45435e-05
-6.49882e-05
-0.0917342
0.0917483
-5.13703e-05
-6.04894e-05
-0.091761
0.0917727
-4.94188e-05
-5.84383e-05
-0.091783
0.0917923
-4.59203e-05
-5.61477e-05
-0.0918004
0.0918075
-3.95886e-05
-5.14287e-05
-0.0918136
0.091819
-3.07001e-05
-4.3883e-05
-0.0920768
0.0922338
0.000488411
0.000262178
0.000512386
0.000598293
-0.000206704
0.0934474
-0.000979309
0.000274056
0.0933342
0.0932506
0.0930125
0.0929876
-0.0928893
0.00105686
-0.0928532
0.0923461
0.00149263
0.000921032
0.0918219
-0.0921552
1.66202e-06
0.000611479
0.0918095
-0.0918018
-4.01756e-06
-1.35609e-05
0.0917935
-0.0917847
-1.08858e-05
-1.92913e-05
0.0917754
-0.0917657
-1.89338e-05
-2.65662e-05
0.0917556
-0.0917449
-2.76947e-05
-3.48248e-05
0.0917338
-0.0917221
-3.66046e-05
-4.34941e-05
0.0917097
-0.0916964
-4.556e-05
-5.21725e-05
0.0916825
-0.0916674
-5.45798e-05
-6.10173e-05
0.0916513
-0.0916339
-6.41912e-05
-6.98097e-05
0.091616
-0.0915972
-7.5583e-05
-8.00314e-05
0.0915762
-0.0915549
-9.14236e-05
-9.30443e-05
0.0915327
-0.091509
-0.000115024
-0.000111728
0.0914844
-0.0914584
-0.000152662
-0.000141235
0.0914314
-0.0914028
-0.000211545
-0.000188213
0.0913729
-0.0913408
-0.000296191
-0.000259175
0.0913064
-0.0912688
-0.000403848
-0.000355702
0.0912281
-0.0911827
-0.000517333
-0.000468872
0.090327
-0.0886277
-0.000599934
-0.000572208
0.0876328
-0.0877958
0.0010328
0.000455342
0.00129074
-0.0013115
-0.0869472
-0.0873512
0.00084614
0.00276832
-0.0961353
-0.00209937
-0.0907709
0.000919639
0.0918176
0.0926607
0.000793033
0.00345833
-0.100415
0.000280227
-0.0876831
0.0198849
-0.0805531
0.10509
-0.00129272
0.000741732
-0.0868002
-0.00217126
-0.0860687
-0.0638914
0.0972966
0.0144542
-0.0497538
-0.00402463
-0.095138
-0.0922895
0.0962393
0.00345862
0.00775044
-0.00274339
-0.0953658
0.0945618
-0.00183273
7.77756e-05
-0.0938441
0.0926155
-0.000489633
-0.00169207
-0.0921084
0.0918454
-0.00041506
-0.000456511
-0.091124
0.0911879
-0.00034702
-0.000384411
-0.0912439
0.0912946
-0.000287458
-0.00032133
-0.0913401
0.0913815
-0.000237634
-0.00026688
-0.0914192
0.0914541
-0.000197192
-0.000222307
-0.0914865
0.0915168
-0.000164249
-0.000186138
-0.0915449
0.0915713
-0.000136707
-0.000156496
-0.0915959
0.0916189
-0.000113012
-0.000131354
-0.0916404
0.0916606
-9.34868e-05
-0.000109754
-0.0916796
0.0916972
-7.87512e-05
-9.27501e-05
-0.0917134
0.0917286
-6.97382e-05
-8.12219e-05
-0.0917426
0.0917555
-6.42898e-05
-7.44856e-05
-0.0917672
0.0917776
-5.9877e-05
-7.0058e-05
-0.0917868
0.091795
-5.40876e-05
-6.53655e-05
-0.0918022
0.0918085
-4.59041e-05
-5.8575e-05
-0.0918141
0.0918193
-3.58619e-05
-4.952e-05
-0.092121
0.0926351
-2.57014e-05
-3.95809e-05
-0.0924124
0.0923566
0.000415435
0.000735096
-0.0927182
0.0926128
0.00102497
0.00120319
0.00129245
-0.000716545
0.0927583
-0.000804611
0.000190205
0.0932272
0.0923055
0.00089736
0.000382992
0.092167
0.0934314
-0.000649872
0.000455257
0.0925966
0.0927456
-0.000566133
0.000106832
0.09312
0.0930876
0.0931989
-0.0928725
0.00116626
-0.0946351
0.092108
0.002634
-0.000643232
0.092643
-0.0924501
0.000864055
0.000691477
0.0918245
-0.0918185
-4.3644e-06
-1.41934e-05
0.091812
-0.0918047
-1.13099e-05
-1.99771e-05
0.0917969
-0.0917885
-1.92867e-05
-2.71795e-05
0.0917796
-0.0917702
-2.82883e-05
-3.54357e-05
0.0917605
-0.0917502
-3.79478e-05
-4.45687e-05
0.0917396
-0.0917282
-4.79288e-05
-5.41714e-05
0.0917164
-0.0917037
-5.82163e-05
-6.40494e-05
0.0916904
-0.0916761
-6.88858e-05
-7.42898e-05
0.0916609
-0.0916447
-8.04161e-05
-8.50341e-05
0.0916277
-0.0916095
-9.37225e-05
-9.70422e-05
0.0915906
-0.0915708
-0.00011124
-0.000111935
0.0915504
-0.0915293
-0.000136119
-0.00013215
0.091508
-0.0914863
-0.000174355
-0.000162577
0.0914649
-0.0914437
-0.00023269
-0.000209623
0.0914233
-0.0914036
-0.000315882
-0.000279555
0.091385
-0.0913673
-0.000421557
-0.000374357
0.0913506
-0.0913347
-0.000533227
-0.000485547
0.0913193
-0.0913029
-0.000616317
-0.000587631
0.0902093
-0.0885552
-0.000621278
-0.000638236
0.0886451
-0.088332
0.00042864
0.000935958
0.00108331
-0.00102017
-0.0868633
-0.087739
0.000490386
0.00271445
-0.0953914
-0.000576261
-0.0899144
0.0071423
-0.0876725
0.000209055
-0.0900634
0.0926454
-0.092784
0.00116358
0.0923198
0.000515739
0.00118315
-0.000808884
0.0927457
0.000330874
0.0929602
0.00699968
-0.0772894
0.000234886
-0.0873237
-0.0462858
-0.0487553
-0.0759296
0.0872953
0.00308856
0.00194388
-0.00132717
-0.08748
0.0013602
-0.0871554
-0.0705534
-0.00940091
-0.0929998
-0.0911179
0.0923636
0.0022129
0.00392793
-0.0931553
0.0919893
-0.000666748
-0.000713951
-0.090922
0.0910079
-0.000575594
-0.000624722
-0.0910848
0.0911537
-0.000484014
-0.000533361
-0.0912147
0.0912681
-0.000400418
-0.000445409
-0.0913152
0.0913576
-0.00032979
-0.000368407
-0.0913956
0.0914305
-0.00027253
-0.000304974
-0.0914625
0.0914924
-0.000227082
-0.000254293
-0.0915203
0.0915467
-0.000190584
-0.000214037
-0.0915713
0.0915948
-0.000160132
-0.000181182
-0.0916167
0.0916376
-0.000133913
-0.00015328
-0.0916572
0.0916757
-0.000111991
-0.000129362
-0.0916931
0.0917094
-9.50698e-05
-0.000110103
-0.0917244
0.0917382
-8.35857e-05
-9.62049e-05
-0.0917508
0.0917622
-7.57291e-05
-8.7056e-05
-0.0917724
0.0917815
-6.89582e-05
-8.02346e-05
-0.0917895
0.0917966
-6.11984e-05
-7.33536e-05
-0.0918029
0.0918086
-5.16405e-05
-6.49071e-05
-0.0918139
0.0918189
-4.08149e-05
-5.48049e-05
-0.0918233
0.0918273
-2.97155e-05
-4.39726e-05
-0.0925964
0.0922763
0.000735581
-3.40609e-05
0.0006955
0.000992866
-0.00157967
0.0933451
-0.00041735
0.000719083
0.0929255
0.092881
-6.21994e-06
5.32133e-06
0.0921679
0.0918455
-0.000903612
0.00134245
0.0921578
0.0918473
0.0936212
0.0932512
-0.0929773
0.000892434
-0.0920892
0.0930224
0.00170073
0.000518781
0.0926999
-0.0918322
-3.60219e-06
0.000413992
0.0918272
-0.0918213
-1.02829e-05
-1.91595e-05
0.091815
-0.0918081
-1.82478e-05
-2.62523e-05
0.0918007
-0.0917926
-2.73414e-05
-3.46085e-05
0.0917842
-0.0917752
-3.72445e-05
-4.38765e-05
0.0917659
-0.0917562
-4.7734e-05
-5.38508e-05
0.091746
-0.0917352
-5.86839e-05
-6.43247e-05
0.091724
-0.091712
-7.01907e-05
-7.52907e-05
0.0916994
-0.0916859
-8.24329e-05
-8.68883e-05
0.0916715
-0.0916561
-9.58084e-05
-9.93951e-05
0.0916399
-0.0916225
-0.000111099
-0.000113311
0.0916044
-0.0915855
-0.000130191
-0.000129975
0.091566
-0.091546
-0.00015609
-0.000151647
0.0915262
-0.0915066
-0.000193914
-0.000182445
0.0914882
-0.0914712
-0.000249594
-0.000228068
0.0914568
-0.0914453
-0.000327369
-0.000294024
0.0914376
-0.0914342
-0.000424948
-0.000382046
0.0914355
-0.0914414
-0.000527322
-0.000484272
0.0914512
-0.0914643
-0.000603287
-0.000577782
0.0914782
-0.091489
-0.000610392
-0.000624354
0.0899694
-0.0890284
-0.000512421
-0.000583643
0.088112
-0.0874206
0.000668784
-0.000426006
0.00255585
-0.00167126
-0.08804
-0.0869022
0.00203747
0.00205693
-0.090306
6.15655e-05
-0.0897669
0.00114508
0.0918938
0.0926704
0.000682943
0.00417551
-0.0848483
-0.0110056
-0.10265
-0.00138095
-0.086914
0.000116513
-0.089945
0.000109406
-0.0887603
-0.101441
-0.0178674
0.00389655
-0.0108908
-0.0944471
-0.00704115
-0.0917128
-0.00150274
-0.0876485
0.00180898
-0.00318703
-0.0866619
0.00280123
-0.0878944
-0.0908813
-0.0830737
0.0867909
-0.000628675
0.0873699
-0.0961409
-0.00909641
-0.00510467
-0.0895024
0.0908067
0.000908641
0.00121642
-0.0908918
0.090974
-0.000748875
-0.000799101
-0.0910502
0.0911194
-0.000644807
-0.000700988
-0.091182
0.0912387
-0.000540688
-0.000595948
-0.0912892
0.0913346
-0.000445755
-0.000495958
-0.0913749
0.0914113
-0.00036618
-0.000408734
-0.0914441
0.0914742
-0.000302642
-0.000337786
-0.0915018
0.0915277
-0.000252903
-0.000281916
-0.0915518
0.0915746
-0.000213411
-0.000238125
-0.0915961
0.0916166
-0.000180684
-0.000202698
-0.0916361
0.0916548
-0.00015261
-0.000172744
-0.0916725
0.0916894
-0.000128865
-0.000147065
-0.0917052
0.0917202
-0.000110016
-0.000125962
-0.0917339
0.0917465
-9.61835e-05
-0.000109928
-0.0917578
0.091768
-8.59054e-05
-9.8361e-05
-0.091777
0.0917849
-7.69395e-05
-8.92079e-05
-0.091792
0.0917983
-6.75477e-05
-8.03905e-05
-0.0918041
0.0918095
-5.70117e-05
-7.06573e-05
-0.0918145
0.0918193
-4.56196e-05
-5.98351e-05
-0.0918239
0.0918285
-3.43645e-05
-4.856e-05
-0.0918325
0.0925926
-2.44709e-05
-3.80547e-05
-0.0926619
0.092877
0.000948515
0.000626169
-0.0916365
0.0920271
0.000754457
0.00175623
0.00156707
-0.0011565
0.0925149
-0.000356387
-0.000172663
0.0925561
0.0931045
0.00115836
5.07562e-06
0.0921817
0.0928828
-4.85086e-06
4.36159e-06
0.0921684
0.0918457
-4.12425e-06
3.33371e-06
0.0921586
0.0918475
-0.000692164
0.000561419
0.0928765
0.0929323
-0.000412168
0.000537423
0.0925451
0.0931095
0.0933311
-0.0922814
0.000651035
-0.092897
0.0923478
0.00108663
0.00111703
0.0924678
-0.0922691
0.000693768
0.000705122
0.0918386
-0.0918347
-7.49918e-06
-1.65547e-05
0.09183
-0.0918246
-1.5724e-05
-2.37857e-05
0.0918186
-0.091812
-2.48901e-05
-3.2203e-05
0.0918049
-0.0917973
-3.50159e-05
-4.16695e-05
0.0917892
-0.0917807
-4.57573e-05
-5.18952e-05
0.0917719
-0.0917627
-5.69799e-05
-6.26374e-05
0.0917531
-0.091743
-6.87914e-05
-7.3881e-05
0.0917325
-0.0917212
-8.14689e-05
-8.58443e-05
0.0917093
-0.0916964
-9.53093e-05
-9.88162e-05
0.0916827
-0.0916679
-0.000110624
-0.0001131
0.0916521
-0.0916352
-0.000128012
-0.00012907
0.0916175
-0.0915988
-0.000148873
-0.000147694
0.0915796
-0.0915599
-0.000175764
-0.000170865
0.0915405
-0.0915218
-0.000212655
-0.000201849
0.0915047
-0.0914901
-0.000264228
-0.000245125
0.0914791
-0.0914727
-0.00033375
-0.000305014
0.091472
-0.0914779
-0.000419094
-0.00038272
0.0914906
-0.0915103
-0.000507625
-0.000471507
0.0915359
-0.0915658
-0.000573379
-0.000552218
0.0915968
-0.0916254
-0.000581749
-0.000593394
0.0916481
-0.0916581
-0.000502396
-0.000560968
0.0916502
-0.0906516
-0.000329869
-0.000433895
0.0896503
-0.0879648
0.00111567
0.00103621
0.00167871
-0.00250819
-0.087065
-0.0878773
0.00159128
0.00143533
-0.0875658
-0.0974212
-0.00961054
0.000781135
-0.0870104
0.0932175
-0.093449
0.00098597
0.0931341
-8.93145e-05
0.00103545
-0.000883969
0.0923936
0.00128566
0.0920976
-2.40832e-05
-0.0896263
3.60501e-06
-0.0898392
-0.00227247
-0.0916827
-2.37071e-05
-0.0902393
-0.00011908
-0.0907165
-0.000240902
-0.0889292
0.00230285
-0.00150525
-0.0878626
0.00116584
-0.0867403
-0.0894701
-0.0944317
0.0899745
-0.00463915
-0.00794919
0.0107892
-0.100261
0.0984605
-0.10245
-0.00395942
-0.00558174
-0.086754
0.088267
-0.00214165
-0.00188418
-0.0900291
0.0910444
-0.00010663
-0.000545699
-0.0910971
0.0911476
-0.000799462
-0.000851801
-0.091196
0.0912423
-0.000691054
-0.000749355
-0.0912858
0.0913268
-0.000581702
-0.00063948
-0.0913649
0.0914003
-0.000481182
-0.000534024
-0.0914328
0.0914627
-0.000396136
-0.000441207
-0.0914901
0.0915156
-0.000328067
-0.000365209
-0.091539
0.091561
-0.000274889
-0.000305375
-0.0915816
0.0916011
-0.000232931
-0.000258663
-0.0916196
0.0916374
-0.000198484
-0.000221187
-0.0916544
0.0916709
-0.000169135
-0.000189779
-0.0916868
0.091702
-0.000144132
-0.000162895
-0.0917165
0.0917301
-0.000123695
-0.000140408
-0.0917428
0.0917543
-0.000107759
-0.000122532
-0.0917647
0.091774
-9.51868e-05
-0.000108715
-0.0917821
0.0917894
-8.42019e-05
-9.73658e-05
-0.0917958
0.0918017
-7.34046e-05
-8.68164e-05
-0.091807
0.0918122
-6.21243e-05
-7.6029e-05
-0.091817
0.0918218
-5.04148e-05
-6.47058e-05
-0.0918265
0.0918311
-3.89896e-05
-5.32435e-05
-0.0918356
0.0918396
-2.84951e-05
-4.24835e-05
-0.092499
0.0928318
0.000615714
-3.32324e-05
0.00113904
0.000462533
-0.00103296
0.0930854
-0.000726966
8.26665e-05
0.0932004
0.0928401
-3.78511e-06
3.6517e-06
0.0921818
0.0918461
-3.4929e-06
3.3777e-06
0.0921685
0.0918459
-3.17523e-06
2.74896e-06
0.092159
0.0918477
-0.00108563
0.000817444
0.0931447
0.0918495
0.093043
0.0931963
-0.0932577
0.000712488
-0.0929911
0.0925823
0.0014954
0.00132226
0.0925406
-0.0918439
-3.02802e-06
-1.19757e-05
0.0918411
-0.0918374
-1.11852e-05
-1.93498e-05
0.0918332
-0.0918282
-2.06642e-05
-2.79912e-05
0.0918227
-0.0918164
-3.11335e-05
-3.77713e-05
0.0918097
-0.0918024
-4.22813e-05
-4.83822e-05
0.0917948
-0.0917868
-5.37877e-05
-5.94939e-05
0.0917785
-0.0917699
-6.56367e-05
-7.09026e-05
0.091761
-0.0917515
-7.82125e-05
-8.28025e-05
0.0917417
-0.0917311
-9.20659e-05
-9.57039e-05
0.0917198
-0.0917075
-0.000107599
-0.000110107
0.0916943
-0.0916799
-0.000125013
-0.000126298
0.0916645
-0.0916479
-0.00014464
-0.000144475
0.0916303
-0.0916118
-0.000167433
-0.000165232
0.0915927
-0.0915732
-0.000195259
-0.000189953
0.0915541
-0.0915359
-0.00023084
-0.000220947
0.0915198
-0.0915067
-0.000277319
-0.000261225
0.091498
-0.0914949
-0.00033692
-0.000313716
0.0914984
-0.0915094
-0.000408076
-0.000379219
0.0915281
-0.0915543
-0.000481443
-0.0004528
0.0915863
-0.0916223
-0.000537462
-0.000520147
0.0916583
-0.0916907
-0.000549369
-0.000557357
0.0917142
-0.0917235
-0.00049307
-0.000537444
0.091714
-0.0916814
-0.000362427
-0.000443448
0.0903631
-0.0890691
-0.000178381
-0.000282066
0.0884121
-0.088419
0.00117268
0.00093433
-0.00551732
0.00120887
-0.0874043
-0.0891752
0.00236591
-0.00162538
-0.0874809
-0.0868498
0.000796787
0.00026155
-0.0870462
0.00110742
0.0921094
0.093356
0.000511928
0.00289417
-0.101685
-0.00365914
-0.000122766
-0.0895
0.00559902
-0.102966
-0.000476411
-0.0888064
-0.000114349
-0.0897486
-0.000579532
-0.0898943
-0.000167321
-0.0901911
-0.000269711
-0.0906877
-0.000380531
-0.0900539
-0.00140436
-0.0880836
0.0016582
-0.00177099
-0.0873681
0.0016061
-0.0867977
-0.0893313
-0.101174
0.0970302
0.000184184
-0.0059816
-0.100261
0.00455695
0.104102
-0.101694
-0.00838935
-0.000730781
-0.094265
0.0921643
-0.0025384
-0.00281658
-0.0912621
0.0900864
-0.000965963
-0.000981989
-0.0904879
0.091293
-0.000911645
-0.00094728
-0.091311
0.0913297
-0.000818126
-0.000869863
-0.0913495
0.0913709
-0.000712419
-0.000769156
-0.0913934
0.0914169
-0.000605235
-0.000662018
-0.0914409
0.091465
-0.000505277
-0.000557964
-0.0914885
0.0915114
-0.000419044
-0.000464785
-0.0915333
0.091554
-0.00034886
-0.000387016
-0.0915736
0.0915921
-0.000293427
-0.000324926
-0.0916096
0.0916262
-0.000249598
-0.000276108
-0.0916421
0.0916575
-0.000213861
-0.000237054
-0.0916723
0.0916869
-0.000183659
-0.000204615
-0.0917009
0.0917146
-0.000157842
-0.000176957
-0.0917277
0.0917402
-0.000136196
-0.000153503
-0.0917518
0.0917625
-0.000118481
-0.000134137
-0.0917722
0.0917808
-0.000103846
-0.000118347
-0.0917885
0.0917953
-9.10119e-05
-0.000104992
-0.0918013
0.0918069
-7.89484e-05
-9.28659e-05
-0.091812
0.0918169
-6.70487e-05
-8.11534e-05
-0.0918217
0.0918264
-5.51709e-05
-6.94732e-05
-0.0918311
0.0918358
-4.36682e-05
-5.79442e-05
-0.0918404
0.091845
-3.30976e-05
-4.70671e-05
-0.0918491
0.0924886
-2.38543e-05
-3.72918e-05
-0.0931736
0.0932607
0.000898851
0.000454069
-0.0920599
0.0922102
0.000957115
0.00111146
0.00146844
-0.000841157
0.0925732
-0.000519117
0.000330727
0.0923986
0.0930587
0.000885142
2.75041e-06
0.0921975
0.0928841
-2.30832e-06
2.3226e-06
0.0921818
0.0918465
-2.46403e-06
2.71674e-06
0.0921683
0.0918458
-2.90286e-06
3.15774e-06
0.0921587
0.0918475
-3.6746e-06
0.000991006
0.0921573
0.0918489
-0.000844763
0.000637863
0.0926005
0.0931892
0.000669896
0.000568811
0.0921173
0.0934054
0.0933191
-0.0927208
0.000897095
-0.092793
0.0929849
0.000376902
0.00103801
0.0925581
-0.0918489
3.31763e-06
0.0011596
0.0918478
-0.091846
-4.83994e-06
-1.31343e-05
0.0918435
-0.0918404
-1.43188e-05
-2.1821e-05
0.0918366
-0.0918321
-2.51348e-05
-3.17383e-05
0.091827
-0.0918213
-3.69225e-05
-4.28679e-05
0.091815
-0.0918081
-4.91084e-05
-5.46701e-05
0.091801
-0.0917935
-6.13114e-05
-6.66373e-05
0.0917858
-0.0917777
-7.36709e-05
-7.8613e-05
0.0917695
-0.0917607
-8.69322e-05
-9.10602e-05
0.0917516
-0.0917417
-0.000101991
-0.000104869
0.091731
-0.0917192
-0.000119351
-0.000120789
0.0917065
-0.0916925
-0.000139004
-0.000139038
0.0916774
-0.0916611
-0.00016094
-0.000159528
0.0916439
-0.0916257
-0.000185658
-0.000182458
0.091607
-0.091588
-0.000214269
-0.000208655
0.0915695
-0.0915522
-0.000248197
-0.000239415
0.0915371
-0.0915254
-0.000289034
-0.00027625
0.0915184
-0.0915171
-0.000338177
-0.000320757
0.0915226
-0.0915356
-0.000395116
-0.000373698
0.0915559
-0.0915829
-0.000454396
-0.000432529
0.0916148
-0.0916492
-0.000503027
-0.000488254