/*--------------------------------*- C++ -*----------------------------------*\
  =========                 |
  \\      /  F ield         | OpenFOAM: The Open Source CFD Toolbox
   \\    /   O peration     | Website:  https://openfoam.org
    \\  /    A nd           | Version:  10
     \\/     M anipulation  |
\*---------------------------------------------------------------------------*/
FoamFile
{
    format      ascii;
    class       volScalarField;
    location    "25.5";
    object      p;
}
// * * * * * * * * * * * * * * * * * * * * * * * * * * * * * * * * * * * * * //

dimensions      [0 2 -2 0 0 0 0];

internalField   nonuniform List<scalar> 
6397
(
3.92556
3.57268
-1.23244
-0.620741
-0.660199
-1.26669
6.2802
2.22273
-18.2919
-15.1051
6.70153
3.28521
-0.20864
-0.137838
-0.199439
-9.79738
-7.96843
-8.65631
12.3926
12.1061
11.5116
-17.0413
-17.9046
-18.3215
-0.0893772
-0.0412215
-0.00193787
-2.20353
-2.16834
-3.31199
-3.37294
0.637973
0.340416
-0.12278
1.32316
1.21282
1.09351
0.913384
1.38196
1.40694
1.41535
1.34004
-3.1345
-3.19531
-4.14834
-2.01638
-1.86598
-2.70034
1.29771
1.23344
1.20787
1.08733
1.16777
5.11435
4.72226
2.40463
2.43973
0.777443
-2.37856
-2.04285
-2.8498
-3.39633
-3.93835
-4.34175
-4.45913
-4.42107
-4.02953
-3.43616
-1.98862
-1.85883
-1.61503
-2.53308
-3.22944
-4.02651
-4.79749
-5.40297
-5.75919
-5.40669
-4.76813
-3.95743
-1.39191
-1.82815
-2.83475
-3.15883
-1.27796
-1.90648
-2.38543
-2.5396
-1.24192
-2.04389
-2.13019
-2.14175
-1.23225
-1.21253
-2.07674
-1.93501
-0.560157
-0.452166
-0.481139
-0.919683
-0.699596
-1.76867
-1.26332
-3.31386
-2.4554
-5.23699
-4.29527
-6.2043
-5.94162
-5.11538
-5.8846
-3.16318
-4.12354
-1.91527
-2.41586
-1.60319
-2.04471
-2.05649
-1.94919
-2.69448
-2.30707
-3.31104
-3.0662
-3.19929
-3.26932
-2.59794
-2.91479
-2.05854
-2.27455
-2.02392
-1.96346
-2.56802
-2.24263
-3.24753
-2.96329
-1.14265
-2.13173
-0.378877
-1.43968
-1.89949
-1.90643
-2.3635
-2.34113
-1.41298
-0.883956
-0.775544
-4.54975
0.138995
0.214388
-4.3066
-2.21281
-0.00949952
0.0830477
-0.449883
-0.17518
-1.41481
-0.855581
-3.11381
-2.16627
-5.2176
-4.18844
-6.19708
-5.95737
-5.00785
-5.84503
-2.88943
-3.92959
-1.48615
-2.0655
-1.11108
-1.61207
-1.66993
-1.90229
-1.70957
-2.23249
-2.12021
-2.1211
-2.24184
-1.78804
-1.97504
-1.70125
-1.70046
-2.16508
-1.85689
-3.21645
-2.6211
-4.36335
-3.84494
-4.57069
-1.02257
-1.99598
0.290766
-0.284002
-3.03259
-2.90234
-2.02539
-0.300195
-0.155748
-0.755087
-1.51455
-2.87596
-4.06252
-4.023
-2.84089
-3.87109
0.307905
0.710088
0.712902
-5.30887
-5.67101
-2.54433
0.600513
0.642012
0.43278
0.536231
-0.0302706
0.254989
-0.98789
-0.434404
-2.66965
-1.73505
-4.75125
-3.74375
-5.66101
-5.46616
-4.48063
-5.30393
-2.3923
-3.42632
-0.953677
-1.56219
-0.557241
-1.61241
-2.10546
-1.15228
-1.30918
-1.16398
-1.12503
-1.27933
-1.25073
-1.20198
-1.26147
-1.11732
-1.13987
-1.38012
-1.1889
-2.22791
-1.72641
-3.73298
-2.91313
-5.2642
-4.56597
-5.65248
-0.933969
-1.81734
-0.23146
-0.069554
-3.71362
-2.31945
-5.58347
-5.43108
-0.800935
-1.72259
0.258561
0.63045
-2.4701
-3.3089
-6.31125
-5.86868
1.01238
0.978475
-0.0300548
-0.0340089
-0.888967
-4.7259
-3.08774
0.947353
0.979836
0.783206
0.881976
0.345277
0.598542
-0.521847
-0.0245354
-2.03919
-1.19756
-3.91911
-3.0081
-4.71625
-4.55568
-3.63993
-4.37546
-1.76405
-2.69427
-0.416331
-0.992803
0.22199
-0.0239951
0.492802
0.387371
0.592061
0.557495
-2.48231
-5.19391
-3.61665
-1.20399
-1.71179
-0.668517
-0.878681
-0.522496
-0.569036
-0.478757
-0.504332
-0.422655
-0.447979
-0.520662
-0.437287
-1.02481
-0.708533
-2.14865
-1.50091
-3.98565
-2.99508
-5.85286
-5.01702
-6.31703
-0.866679
-1.63814
-0.233315
-7.44284
-7.1039
-0.0446372
0.622641
-4.79132
-2.76377
0.900232
-3.99906
-6.50466
-5.99067
-7.02459
-1.98336
-8.90527
-9.19681
-0.982179
-0.039593
0.654156
-5.14459
-3.83181
1.19298
1.08253
1.16583
1.19352
1.2191
1.04068
1.14203
0.665031
0.884744
-0.0576954
0.352281
-1.30845
-0.617486
-2.85484
-2.10947
-3.48774
-3.36677
-2.58737
-3.19385
-1.06678
-1.82472
0.0623949
-0.429136
0.647694
0.41054
0.906287
0.79751
1.03972
0.979884
1.09899
1.08592
-4.35402
-7.69818
-6.0759
-1.91217
-2.9414
-0.731037
-1.21343
-0.203409
-0.418355
0.0188414
-0.0686501
0.145866
0.0862394
0.201459
0.188966
0.0138619
0.149099
-0.619485
-0.236609
-1.90576
-1.17205
-3.94
-2.84926
-5.99029
-5.06947
-6.51247
-9.91183
-8.555
0.6716
1.09748
-4.2959
-5.11947
-3.21651
-3.39778
-2.08426
-2.72471
-0.829796
-1.44097
0.141185
-0.294148
0.755255
0.481413
0.965788
-6.00755
-3.27399
-8.46851
-2.21397
-10.2629
-1.01007
-8.15964
-9.4414
0.0100571
1.06923
0.65703
1.20906
1.10107
-4.67074
1.33263
1.29575
1.35637
1.37187
1.23069
1.31816
0.930618
1.10994
0.356857
0.683701
-0.615356
-0.0814258
-1.76436
-1.21749
-2.20469
-2.13301
-1.51947
-1.97633
-0.388679
-0.954408
0.477259
0.0947729
0.956682
0.758943
1.18148
1.08932
1.30601
1.25231
1.34925
1.34919
1.29925
1.33777
-5.86228
-6.13367
-6.53286
-3.17857
-4.55955
-1.21725
-2.05374
-0.249425
-0.653477
0.23223
0.0318045
0.46393
0.36798
0.61045
0.540749
0.677195
0.663156
0.470325
0.618924
-0.201932
0.202659
-1.53338
-0.777848
-3.58679
-2.49193
-5.62826
-4.71424
-6.17631
-6.17556
-4.65147
-5.59437
-3.6173
-2.48398
-2.3308
-2.55191
-1.79328
-2.19414
-0.881463
-1.34099
-0.0523333
-0.440579
0.544195
0.27475
-6.71074
-4.92416
0.99187
1.22414
0.917288
0.761589
-7.05139
-3.70937
-9.27846
-2.31439
-9.69705
-0.966858
-7.86382
0.0537853
-3.43158
-4.86326
0.592609
1.13481
0.856315
-1.80824
-2.05956
-0.879879
1.0402
1.46698
1.37207
0.998295
0.688457
0.831325
-5.37998
1.28059
1.19633
1.42384
1.39648
1.45097
1.46456
1.36474
1.43009
1.13251
1.27256
0.69297
0.942909
-0.00274534
0.374138
-0.774218
-0.408178
-1.05695
-1.03616
-0.603964
-0.904348
0.17502
-0.221058
0.804074
0.523154
1.16714
1.01514
1.35536
1.27655
1.47121
1.4228
1.55073
1.50206
1.55991
1.57372
1.52461
-3.71589
-2.82774
-3.75841
-4.00657
-1.93231
-2.91248
-0.559186
-1.1562
0.195036
-0.126819
0.610299
0.432329
0.820731
0.735251
0.945593
0.885687
1.01156
0.994778
0.826711
0.962449
0.192926
0.576516
-1.05943
-0.349486
-2.96364
-1.9483
-4.84486
-3.99704
-5.31307
-5.34582
-3.8837
-4.77948
-2.87311
-1.57677
-1.15566
-1.89202
-1.80833
-1.63842
-1.82489
-1.04702
-1.36574
-0.357979
-0.700711
0.239611
-0.0440684
0.489284
-7.48193
-3.91057
-8.87125
-2.2336
-8.15786
-0.858744
-5.85051
0.0502203
-3.14509
0.463168
-0.134519
-0.975049
0.667064
1.22495
0.940373
0.705115
0.443071
1.06151
1.03687
1.3893
1.31198
0.350047
0.562123
1.07872
0.901999
-5.67898
1.33843
1.24197
1.47165
1.42879
1.50254
1.49753
1.44633
1.48429
1.27479
1.37517
0.960467
1.13559
0.500487
0.745644
0.0411228
0.251237
-0.100429
-0.0518981
0.138523
-0.020673
0.606814
0.36049
1.04403
0.844794
1.31581
1.20066
1.48376
1.40761
1.62009
1.55523
1.72645
1.68195
1.72129
1.74336
1.58389
1.66505
1.4821
-0.259572
0.272721
-1.66624
-0.952183
-1.94142
-2.05311
-0.867388
-1.4407
0.00883896
-0.381732
0.553238
0.313777
0.892427
0.742436
1.07851
1.00339
1.1734
1.12872
1.22692
1.2134
1.07981
1.18919
0.541326
0.868371
-0.543704
0.0704439
-2.18409
-1.31351
-3.78187
-3.05408
-4.21213
-4.19845
-2.94681
-3.71821
-2.05761
-0.136127
0.289358
-0.92303
-0.545657
-1.4641
-1.24025
-1.56058
-1.56593
-1.29958
-1.4669
-0.795136
-1.068
-0.194054
-0.495866
0.0908217
-7.33562
-3.79999
-7.58686
-2.01194
-6.19879
-0.742645
-3.98974
-0.0458048
-1.80813
0.272938
-0.176486
0.435746
1.32899
0.869151
0.778351
1.22381
0.854013
0.700859
-5.54757
1.15181
0.805458
0.970811
1.36971
1.25341
1.48719
1.41476
1.52536
1.49926
1.48559
1.50678
1.35988
1.43201
1.14086
1.26257
0.848405
1.00047
0.61314
0.713506
0.574612
0.577378
0.681183
0.614326
0.92205
0.787799
1.21526
1.07417
1.42475
1.33327
1.56253
1.49713
1.67463
1.62211
1.72509
1.70773
1.70715
1.7217
1.66764
1.68941
1.5794
1.63001
1.45556
1.52286
1.40033
1.67868
1.56656
0.866285
1.19052
-0.147724
0.390352
-0.506664
-0.4812
0.00863908
-0.277393
0.480233
0.26291
0.830612
0.668955
1.08457
0.966381
1.25003
1.17972
1.32112
1.29005
1.35489
1.34457
1.24489
1.32685
0.820315
1.0789
-0.0547137
0.439688
-1.36083
-0.672611
-2.61458
-2.04375
-2.90164
-2.92611
-1.9436
-2.54627
-0.548606
-1.21711
-0.0241907
0.311489
0.898878
0.637712
-0.419712
-0.0449739
-1.1001
-0.787447
-1.52595
-1.34566
-1.62594
-1.62343
-1.34026
-1.53191
-0.715341
-1.05217
-0.039234
-0.370152
0.482192
0.250358
1.50931
1.72614
1.08022
1.38575
-6.40088
-3.39791
0.691224
-5.9161
-1.75092
0.88862
0.338319
0.695228
-4.39197
-0.708954
-2.56851
-0.252807
-0.854209
-0.00981524
0.404521
0.184914
1.16051
0.52422
1.71741
1.58474
0.690196
0.93501
1.32727
-4.9153
1.17023
1.01621
1.353
1.25681
1.46091
1.40474
1.49988
1.48292
1.47484
1.49629
1.39432
1.44305
1.26611
1.33675
1.10481
1.18726
0.979852
1.0311
0.97767
0.966916
1.02971
1.00351
1.13344
1.06982
1.32457
1.22382
1.49468
1.41531
1.62214
1.55929
1.73363
1.67848
1.80309
1.77824
1.81053
1.8142
1.75069
1.7894
1.63825
1.69155
1.57212
1.60304
1.50904
1.53793
1.88239
1.79482
1.84927
1.83284
1.87643
1.55662
1.73133
0.878622
1.25001
0.489986
0.610448
0.657164
0.539364
0.895992
0.781617
1.08284
0.995803
1.23028
1.15677
1.35303
1.29503
1.41009
1.38652
1.42523
1.42055
1.34373
1.40368
1.02749
1.22162
0.367214
0.741243
-0.606985
-0.092518
-1.52302
-1.10837
-1.66975
-1.73066
-1.00961
-1.45618
-0.000459205
-0.489735
0.396545
1.13041
1.2528
0.689348
0.945883
0.00671061
0.365133
-0.797707
-0.386422
-1.56796
-1.20112
-2.03543
-1.85581
-1.97583
-2.08185
-1.34672
-1.72026
-0.464778
-0.908329
-0.0475712
1.66047
1.71003
1.29494
1.52084
-5.14407
-2.88159
0.976543
0.913666
-4.37868
-1.56764
-3.04456
-0.837256
-1.58581
-0.568069
-0.176943
-0.403393
0.807366
-0.126863
1.32124
0.159726
1.57726
0.532203
1.5828
1.53585
0.874881
1.59319
1.44143
1.41209
1.43596
1.3166
1.58261
-4.07266
1.16835
1.049
1.32617
1.23882
1.41485
1.37252
1.46619
1.44913
1.46738
1.47554
1.43113
1.45629
1.36
1.40027
1.26342
1.31161
1.20103
1.22302
1.21357
1.20033
1.24509
1.23239
1.28931
1.26109
1.40296
1.33891
1.53203
1.46859
1.64623
1.58976
1.73907
1.6956
1.79352
1.77253
1.8011
1.80106
1.78773
1.7969
1.7421
1.76824
1.67504
1.70945
1.62477
1.64225
1.6805
1.63706
1.8277
1.72407
1.95922
1.90217
2.02467
2.00243
1.93114
2.01493
1.47803
1.73409
1.11705
1.26291
1.07469
1.06722
1.16237
1.11129
1.27682
1.21895
1.37005
1.32452
1.44092
1.4054
1.4736
1.4607
1.46638
1.47263
1.3955
1.44228
1.16968
1.30858
0.696834
0.966716
0.00267722
0.370264
-0.623846
-0.342062
-0.737862
-0.757474
-0.269197
-0.560346
0.422373
0.0828494
0.918125
0.707807
1.07646
1.33014
1.41012
0.978443
1.18985
0.354091
0.703993
-0.619034
-0.0986456
-1.69554
-1.16359
-2.51146
-2.16192
-2.67269
-2.69338
-2.02209
-2.44103
-0.908192
-1.47639
0.203569
-0.31963
0.789199
0.548169
-3.99993
-2.4551
1.75044
1.67999
0.905084
0.66736
0.747151
1.74989
1.79096
-3.2592
-1.5549
-2.16596
-1.15747
-0.920449
-1.01736
0.286246
-0.944348
1.02816
-0.576338
1.36491
-0.288778
1.50698
0.353949
1.27123
1.31012
1.14214
1.08038
1.35831
0.944609
1.20975
0.483808
1.26336
0.53557
-3.32079
1.04603
0.993755
1.16303
1.09648
1.29534
1.22995
1.38784
1.34665
1.44333
1.42303
1.45969
1.45979
1.4394
1.45717
1.39543
1.42065
1.35369
1.37276
1.33872
1.34167
1.35619
1.34528
1.37735
1.36824
1.40004
1.38507
1.46701
1.42765
1.56275
1.51321
1.66074
1.61171
1.74958
1.70638
1.80117
1.77996
1.81412
1.81142
1.79602
1.80911
1.76466
1.77863
1.74507
1.75569
1.71735
1.72811
1.72403
1.60048
1.46186
1.82967
1.72354
1.98809
1.91447
2.10237
2.05301
2.07902
2.12276
1.77216
1.95081
1.47015
1.59921
1.35511
1.39336
1.3444
1.34113
1.38755
1.36042
1.4499
1.41741
1.49589
1.47427
1.51213
1.5071
1.48617
1.50411
1.4217
1.46199
1.25416
1.35523
0.922275
1.11241
0.452352
0.70071
0.0552931
0.231054
-0.00726301
-0.0230193
0.288297
0.109958
0.711291
0.501019
1.04012
0.888064
1.15975
1.51997
1.47741
1.48356
1.525
1.22762
1.39162
0.573206
0.964737
-0.538242
0.0583473
-1.86297
-1.19286
-2.98691
-2.4843
-3.3641
-3.29876
-2.6932
-3.15521
-1.34784
-2.05358
-0.0014752
-0.623155
0.370088
1.42102
0.627752
1.81767
1.83121
-3.20265
-2.25401
-2.57757
-1.77711
-1.63229
-1.67728
1.82974
-0.49163
-1.69019
0.538832
-1.65299
1.09744
-1.235
0.963205
1.05361
0.905616
0.787436
1.2833
-0.731449
0.867846
1.31248
0.22787
0.986751
1.12943
1.10035
0.587181
1.3618
1.44272
1.86467
1.8603
1.36138
-2.84478
0.901887
0.710672
0.796028
1.05121
0.987476
1.1597
1.11277
1.26674
1.21624
1.35131
1.31251
1.40608
1.38312
1.43193
1.42287
1.43632
1.4381
1.42631
1.43397
1.41153
1.41847
1.41242
1.40772
1.43473
1.4209
1.45497
1.44614
1.4706
1.46114
1.51468
1.48863
1.58684
1.54859
1.66665
1.62675
1.74087
1.70497
1.79124
1.77007
1.81315
1.80455
1.81379
1.81686
1.7932
1.80458
1.77267
1.78194
1.76969
1.76777
1.79457
1.77798
1.84418
1.81933
1.85735
1.85958
1.85967
1.34789
1.2043
1.6032
1.48007
1.81849
1.71649
1.98449
1.9067
2.10141
2.05044
2.10162
2.12466
1.89233
2.01898
1.64389
1.7391
1.51899
1.56736
1.48183
1.49361
1.48255
1.47903
1.4982
1.48969
1.51262
1.5061
1.51564
1.51667
1.49135
1.50677
1.42598
1.46328
1.29247
1.36875
1.05918
1.18935
0.7545
0.909968
0.515595
0.616071
0.484965
0.470291
0.645823
0.5475
0.877369
0.763468
1.09942
1.00072
1.26707
1.19083
1.32844
1.59364
1.5348
1.59829
1.61483
1.38133
1.53388
0.691385
1.10377
-0.489129
0.155904
-2.00202
-1.22687
-3.3626
-2.74269
-3.90007
-3.7724
-3.23864
-3.71455
-1.75385
-2.54428
-0.331663
-0.978164
0.234886
0.0646741
0.417074
-2.78479
-2.32487
1.83928
1.86882
1.86093
-2.24743
-2.27502
1.56209
-1.37231
-2.44579
-0.292698
-2.69654
1.84579
0.763439
0.893302
0.789888
0.633364
0.590349
-2.59946
0.615951
1.06388
-2.0733
1.81816
1.85341
0.651109
1.10344
-0.987519
0.729186
1.06782
0.317923
0.887794
0.769301
0.675852
0.725669
0.562008
1.32878
1.31751
0.654778
-2.69004
0.901101
0.831238
1.03326
0.970308
1.14577
1.09478
1.24317
1.19761
1.32319
1.28553
1.38049
1.35443
1.41326
1.39908
1.42507
1.4214
1.42662
1.42672
1.43346
1.42872
1.45074
1.44112
1.47514
1.46279
1.49499
1.48588
1.5117
1.5026
1.54691
1.52634
1.60468
1.57402
1.67045
1.63752
1.73017
1.70216
1.77964
1.75877
1.80424
1.79401
1.81191
1.81012
1.8101
1.81136
1.80126
1.80688
1.79915
1.7967
1.82233
1.80837
1.85292
1.83797
1.86547
1.13128
1.00931
1.37673
1.25514
1.60014
1.49176
1.79772
1.70289
1.95539
1.8821
2.06164
2.01562
2.06923
2.08335
1.92769
2.0133
1.74785
1.82914
1.62579
1.67934
1.55352
1.58432
1.52874
1.53574
1.53222
1.52956
1.53322
1.53499
1.52106
1.53013
1.48775
1.50786
1.42039
1.4582
1.30549
1.36787
1.13027
1.2218
0.927215
1.02302
0.784029
0.840149
0.761173
0.757666
0.84342
0.797861
0.985319
0.912335
1.13159
1.0557
1.24519
1.18591
1.29644
1.47454
1.2947
1.38192
1.60337
1.54376
1.65827
1.64306
1.47239
1.61851
0.781889
1.19357
-0.443865
0.234432
-2.06065
-1.22726
-3.56191
-2.86818
-4.20262
-4.03457
-3.54531
-4.02858
-2.03087
-2.83433
-0.678895
-1.28843
0.0590525
-0.231835
0.328191
1.8007
1.84549
-2.69502
-2.68792
1.29626
-2.21585
-3.10334
0.703737
0.85776
0.79974
0.628258
-1.37793
-3.58733
1.75812
0.523302
-0.321482
-4.10026
0.452473
0.51283
-3.83544
1.75437
1.85247
0.439233
0.909131
-2.79298
1.80057
0.462802
0.821869
-0.788407
0.611597
0.789082
0.704046
1.25569
1.75945
1.82994
-2.84394
0.800223
0.736789
0.758692
0.906319
0.853312
1.01697
0.961726
1.12359
1.07278
1.21652
1.17317
1.29206
1.25689
1.34965
1.32284
1.38908
1.37025
1.41346
1.40208
1.42903
1.42196
1.44354
1.43609
1.46401
1.45309
1.49125
1.47717
1.51566
1.50409
1.53545
1.52542
1.56602
1.54857
1.61456
1.58889
1.67058
1.64236
1.72418
1.69827
1.76778
1.74797
1.79513
1.78316
1.808
1.80313
1.81364
1.81118
1.81612
1.81513
1.82205
1.81793
1.84001
1.82957
1.86269
1.85152
1.88259
1.87388
1.88514
1.88488
1.8191
1.89798
1.88871
1.0026
0.922864
1.19594
1.09587
1.40189
1.29898
1.59488
1.5002
1.77187
1.68658
1.91355
1.84838
2.00407
1.96682
2.01695
2.02361
1.92484
1.98147
1.78148
1.85433
1.6659
1.71739
1.60163
1.62836
1.56927
1.58262
1.55179
1.55963
1.53621
1.545
1.51313
1.52719
1.47471
1.49776
1.40802
1.4464
1.30577
1.36225
1.16649
1.23992
1.02189
1.09152
0.929091
0.968608
0.911949
0.913204
0.96212
0.928461
1.04943
0.992793
1.14253
1.07835
1.21628
1.16998
1.25696
1.24593
1.27068
1.47146
1.39258
1.62965
1.52683
1.70321
1.68335
1.48934
1.64826
0.814714
1.21623
-0.405995
0.269654
-2.00969
-1.18334
-3.50963
-2.8136
-4.17202
-3.98822
-3.57482
-4.02429
-2.11887
-2.90426
-0.828724
-1.42354
0.0494257
-0.328563
0.539446
0.328936
0.6902
0.635263
0.650751
-2.90644
-3.40778
0.722413
1.28774
0.743022
0.558663
-2.47208
-4.32805
1.90409
1.81319
1.59139
0.425654
-1.61034
-5.22879
1.72479
0.305703
-0.487964
-5.7699
1.6827
1.83905
0.229842
0.374843
-4.98176
1.71311
0.212331
0.600709
-2.78254
1.79907
0.300421
0.504961
-0.000662748
0.447416
1.90018
1.9624
1.93628
0.702684
0.707089
-3.32315
0.753793
0.723516
0.73962
0.813875
0.778367
0.908763
0.861309
1.00594
0.957567
1.10358
1.05564
1.19218
1.14962
1.26572
1.23043
1.32285
1.29565
1.36499
1.3447
1.39459
1.38026
1.41819
1.40646
1.44289
1.43047
1.46962
1.45628
1.4967
1.48333
1.52169
1.50949
1.54571
1.53348
1.57629
1.55974
1.61872
1.59648
1.66702
1.64256
1.71506
1.69149
1.75508
1.73634
1.78345
1.77058
1.80107
1.79327
1.81325
1.80759
1.82216
1.81792
1.83439
1.82737
1.85358
1.84332
1.87438
1.86391
1.89856
1.88585
1.92172
1.91045
1.95249
1.9354
1.96535
0.901466
0.866138
0.866054
0.986899
0.943532
1.09627
1.03453
1.25177
1.16937
1.4213
1.33611
1.58878
1.50536
1.74282
1.66956
1.8658
1.80892
1.94557
1.91207
1.96026
1.9628
1.89209
1.93463
1.78648
1.8415
1.69427
1.73696
1.62672
1.65793
1.58176
1.60136
1.5559
1.56753
1.53357
1.5454
1.50437
1.52096
1.46203
1.48611
1.3972
1.43332
1.3062
1.35511
1.1936
1.25195
1.08543
1.13714
1.01655
1.04587
0.9971
1.00202
1.02092
1.00425
1.07014
1.04119
1.12618
1.09705
1.17683
1.15816
1.20971
1.19916
1.20807
1.20695
1.42698
1.36855
1.5829
1.49535
1.65266
1.64087
1.43343
1.58731
0.784338
1.17292
-0.382252
0.258279
-1.87051
-1.10859
-3.2374
-2.60584
-3.81607
-3.66382
-3.23283
-3.6595
-1.92799
-2.62122
-0.669634
-1.25975
0.181778
-0.17941
0.564447
0.407533
0.685281
0.636736
0.709594
0.507955
-3.43035
-4.57234
1.88673
1.88403
1.91365
1.03418
0.705324
1.81139
1.33006
0.336622
-2.96143
-5.95504
1.7023
0.174719
-1.91107
-7.164
1.61793
1.81198
0.0392747
-0.679373
-7.04289
1.60359
-0.0362645
0.181986
-4.98102
1.82084
1.68576
-0.0221766
0.245829
-1.73731
0.00181101
0.167933
0.937327
0.572386
0.501214
-4.19034
0.759762
0.741312
0.821365
0.787188
0.906524
0.862607
0.996696
0.951331
1.08596
1.04128
1.16917
1.1281
1.24007
1.2054
1.29762
1.26994
1.34297
1.32119
1.37788
1.36118
1.40651
1.39265
1.43439
1.42054
1.46449
1.44977
1.49486
1.48004
1.52252
1.50918
1.54823
1.5353
1.57883
1.56247
1.61782
1.59756
1.66128
1.6393
1.70453
1.68328
1.74201
1.72409
1.77115
1.75755
1.79221
1.78242
1.80927
1.80097
1.82496
1.81734
1.84056
1.8324
1.8623
1.85072
1.88554
1.87395
1.91468
1.89843
1.95403
1.93411
1.98833
1.97287
1.98303
1.99374
1.8397
1.88465
1.98247
1.9675
1.02768
1.01452
1.00272
1.09517
1.06219
1.17617
1.13069
1.29948
1.23383
1.4377
1.36771
1.58012
1.50913
1.71398
1.64963
1.82116
1.77145
1.88715
1.85992
1.89997
1.90057
1.85493
1.88348
1.77489
1.82066
1.69275
1.73211
1.62986
1.65871
1.58659
1.60628
1.55589
1.57077
1.5271
1.5424
1.49328
1.51182
1.44891
1.47293
1.38734
1.41993
1.3068
1.34833
1.214
1.26092
1.12838
1.16951
1.07114
1.09576
1.04797
1.05471
1.05343
1.04591
1.08404
1.06457
1.11053
1.09916
1.14119
1.13507
1.15899
1.1559
1.14165
1.15092
1.21412
1.1254
1.34353
1.28123
1.5134
1.42771
1.54404
1.56065
1.28293
1.45118
0.654558
1.02271
-0.390647
0.176727
-1.65814
-1.01781
-2.75983
-2.25909
-3.18492
-3.08553
-2.63556
-3.02808
-1.45746
-2.07985
-0.325931
-0.854971
0.377357
0.0941306
0.632324
0.531149
0.691091
0.665536
0.701681
1.82324
0.834826
0.262118
-4.22388
-6.0751
0.693652
1.07895
1.70231
0.0577763
-3.47502
-7.7357
0.64341
1.94468
2.03282
1.5749
0.916864
0.751584
1.78227
-0.133481
-2.07335
-8.46204
1.50153
-0.277338
-0.793352
-6.85637
1.90081
1.53544
-0.359835
-0.120424
-3.33382
1.71133
-0.443466
-0.121959
-0.0175259
1.77188
1.81104
-0.259183
1.85598
0.311536
0.23223
-5.37008
0.76026
0.729203
0.824073
0.789604
0.901297
0.860493
0.985764
0.942696
1.06945
1.02774
1.1479
1.10917
1.21663
1.18307
1.27393
1.24646
1.32104
1.29861
1.35957
1.34125
1.39321
1.37691
1.42535
1.40956
1.45677
1.44304
1.48736
1.47228
1.51707
1.5024
1.54602
1.53157
1.57717
1.56092
1.61333
1.59473
1.65306
1.63288
1.69288
1.67317
1.72846
1.71121
1.75815
1.74405
1.78172
1.7705
1.80253
1.79222
1.82331
1.81301
1.84321
1.83319
1.86813
1.85486
1.8954
1.88187
1.92934
1.91046
1.97858
1.95271
2.01435
2.00077
2.01357
2.01568
2.04644
2.01885
1.18465
1.06843
1.28843
1.13856
1.19685
1.13619
1.12266
1.1857
1.16031
1.24414
1.21062
1.34071
1.28866
1.45369
1.39634
1.57286
1.51258
1.68815
1.63212
1.7771
1.73669
1.83169
1.80851
1.84543
1.84427
1.81032
1.83353
1.74624
1.77564
1.68148
1.71321
1.62699
1.65307
1.58332
1.60402
1.54882
1.5657
1.5166
1.53343
1.48049
1.4996
1.43586
1.45934
1.37786
1.40768
1.3063
1.34253
1.22788
1.26691
1.15612
1.19035
1.10455
1.1273
1.07662
1.08753
1.06877
1.07076
1.07006
1.07195
1.09252
1.0874
1.10882
1.10524
1.11113
1.11145
1.07338
1.09606
0.977955
1.02631
1.09785
0.964786
1.02111
1.24389
1.17121
1.36318
1.31727
1.29994
1.35819
1.01741
1.18833
0.440153
0.770824
-0.437866
0.0309739
-1.42544
-0.936087
-2.19472
-1.86075
-2.37921
-2.37804
-1.83083
-2.18993
-0.841618
-1.3549
0.0533108
-0.357263
0.558267
0.367544
0.699785
0.651083
0.701562
0.701595
0.679141
0.692672
0.658891
1.7292
-0.0373273
-4.99456
-7.52262
0.677338
2.09538
0.927668
1.56872
1.69482
1.65171
1.11358
0.966361
1.63679
-0.300936
-3.65707
-8.83738
1.42969
-0.516514
-2.04858
-8.03818
2.03464
1.7465
1.38264
-0.699711
-0.92169
-4.75529
1.51601
-0.846355
-0.56211
-0.787886
1.83487
-0.77194
-0.628056
2.02347
-0.0240982
0.510682
0.208658
1.9327
-0.0927312
-6.40741
0.751199
0.714812
0.820595
0.786163
0.893984
0.856161
0.973719
0.933143
1.05349
1.01372
1.12837
1.09138
1.19531
1.16251
1.25261
1.22493
1.30103
1.27786
1.34187
1.32235
1.37804
1.36051
1.41195
1.39545
1.44554
1.42746
1.47854
1.46255
1.50935
1.49424
1.53939
1.52435
1.57135
1.55493
1.60645
1.58857
1.64343
1.62478
1.68012
1.66195
1.71432
1.6976
1.74438
1.72988
1.77003
1.75762
1.79419
1.78205
1.81847
1.80649
1.84252
1.83025
1.87155
1.85637
1.90341
1.88729
1.94255
1.92133
1.99486
1.96798
2.03031
2.01739
2.04657
2.03799
2.09906
2.06668
2.15837
2.20305
2.1449
2.1034
1.3248
1.23058
1.3763
1.47501
1.40553
1.24691
1.29848
1.22885
1.22551
1.26005
1.24328
1.30138
1.27764
1.37643
1.33521
1.46736
1.42117
1.56554
1.51541
1.66192
1.61532
1.73611
1.70212
1.7824
1.7629
1.79374
1.79281
1.76702
1.78455
1.7184
1.74329
1.66499
1.69188
1.61512
1.6394
1.57334
1.59348
1.53829
1.55565
1.50458
1.5219
1.46748
1.48656
1.423
1.44584
1.3682
1.39607
1.30376
1.33656
1.23571
1.26974
1.17359
1.2033
1.12523
1.14693
1.09298
1.10675
1.0758
1.08341
1.06954
1.07349
1.07487
1.07464
1.07654
1.0778
1.06139
1.07037
1.01744
1.04447
0.931343
0.978925
0.880693
0.907139
0.819425
0.868912
0.998464
0.946608
1.11105
1.05773
1.1422
1.14637
0.992529
1.0907
0.64891
0.844965
0.118426
0.405113
-0.545258
-0.202434
-1.19352
-0.884495
-1.60152
-1.44271
-1.56143
-1.64639
-1.02565
-1.34724
-0.239573
-0.635542
0.387129
0.110974
0.692782
0.586619
0.747419
0.737551
0.710463
0.733101
0.652282
0.679932
0.618245
0.631322
1.60074
0.788746
-0.173052
0.243831
0.548409
1.5731
-0.429253
-0.442956
-5.24383
-8.37692
1.40368
-0.770406
-3.41794
-8.22426
2.23177
2.26918
2.19868
1.83029
2.11555
2.03617
1.45286
1.53603
0.74271
0.77619
0.712012
0.606382
0.599584
0.579779
1.25976
-1.03144
-2.00254
-6.01982
1.48643
1.53543
1.27841
-1.23808
-1.2088
-2.11956
2.06285
1.58542
-0.68247
-0.15298
-1.30249
-1.15902
1.41517
-1.29958
-0.504819
-6.58142
0.666358
0.634416
0.738629
0.701711
0.811752
0.775622
0.885128
0.847988
0.961555
0.922883
1.03797
0.999894
1.11015
1.07465
1.17555
1.14357
1.23281
1.20497
1.28235
1.25846
1.32518
1.30451
1.36353
1.34491
1.39919
1.38173
1.4338
1.41706
1.46768
1.451
1.50021
1.48424
1.5313
1.51588
1.56306
1.54695
1.59693
1.57968
1.63232
1.61456
1.66704
1.64984
1.70002
1.6838
1.7302
1.71544
1.75774
1.7442
1.78482
1.77114
1.81195
1.79859
1.83977
1.82535
1.87305
1.85593
1.90916
1.89064
1.95396
1.92996
2.00816
1.98104
2.04795
2.03083
2.08504
2.06455
2.1431
2.10978
2.23991
2.18642
2.18174
1.3191
1.08573
1.2046
1.4786
1.40676
1.58563
1.53527
1.33818
1.38508
1.30951
1.31428
1.3217
1.31368
1.3495
1.33265
1.40639
1.37474
1.47913
1.44185
1.55803
1.51781
1.63724
1.59844
1.69986
1.67137
1.73668
1.72149
1.74646
1.74506
1.72732
1.74025
1.68786
1.70876
1.64266
1.66556
1.59896
1.62042
1.56016
1.57917
1.52544
1.54273
1.49123
1.5086
1.4537
1.47278
1.41007
1.43221
1.3585
1.38483
1.30007
1.3299
1.23955
1.2699
1.18335
1.2105
1.13639
1.15813
1.10147
1.11728
1.07799
1.08912
1.06364
1.07099
1.05586
1.0604
1.0438
1.05094
1.01884
1.03248
0.969787
0.997513
0.887693
0.934164
0.834086
0.834569
0.786318
0.916439
0.878428
0.95061
0.94385
0.841707
0.923565
0.538961
0.709819
0.127169
0.339371
-0.315865
-0.0917259
-0.732826
-0.533362
-1.01294
-0.896745
-1.0499
-1.06869
-0.770485
-0.94964
-0.245433
-0.526574
0.314087
0.0434441
0.690476
0.535386
0.819689
0.785894
0.793176
0.817492
0.721421
0.763383
0.638765
0.674447
0.616445
1.43385
0.914965
-0.970179
-0.975846
-4.85644
-7.48385
2.30078
2.60707
1.94562
1.6296
0.740503
0.68324
0.589568
0.55689
1.19631
-1.33951
-3.07287
-6.42129
1.59813
1.06633
-1.60176
-2.18947
-3.8683
1.26901
1.32729
2.43658
1.21059
-1.35067
-0.673092
-1.84426
-1.70295
-0.06835
1.76917
-2.10124
-1.94047
0.725059
0.456381
-1.04477
-6.19011
0.656189
0.622806
0.726602
0.69072
0.800243
0.763211
0.874171
0.83702
0.948982
0.911483
1.02292
0.986187
1.09317
1.05869
1.15738
1.12602
1.21455
1.18669
1.26483
1.24045
1.30909
1.28759
1.34906
1.32957
1.38601
1.36795
1.42165
1.40329
1.45637
1.43933
1.48951
1.47316
1.52152
1.50565
1.55348
1.53743
1.58625
1.56973
1.61973
1.60297
1.65293
1.63638
1.68529
1.66929
1.71556
1.70068
1.74451
1.73003
1.77429
1.75924
1.80414
1.78932
1.83594
1.81938
1.87327
1.85419
1.91351
1.89281
1.96276
1.9367
2.01847
1.99085
2.06561
2.0432
2.1152
2.08891
2.17941
2.1447
2.27222
2.22217
2.36683
2.39071
2.32955
2.30854
2.3394
2.21126
2.26631
2.86874
2.07908
2.14962
1.52235
1.37643
1.45169
1.62865
1.57945
1.69821
1.66514
1.67204
1.76069
1.73042
1.51941
1.59068
1.41601
1.46048
1.37691
1.3891
1.37375
1.37307
1.38996
1.37904
1.43134
1.40777
1.48833
1.45884
1.55081
1.51897
1.61493
1.58332
1.66582
1.64286
1.69548
1.68318
1.70389
1.70249
1.68835
1.6991
1.6565
1.67366
1.61882
1.63803
1.58055
1.59966
1.5445
1.56232
1.51084
1.52761
1.47686
1.49399
1.43962
1.45848
1.39737
1.41891
1.34876
1.37372
1.29512
1.32253
1.24002
1.26754
1.18785
1.21313
1.14207
1.16379
1.10493
1.12257
1.07619
1.09009
1.05432
1.06502
1.03602
1.04539
1.01393
1.02587
0.979395
0.99874
0.927568
0.956594
0.84518
0.891035
0.793568
0.668605
0.617452
0.64495
0.746121
0.700687
0.812073
0.790463
0.737162
0.796562
0.456619
0.626633
0.00507871
0.244531
-0.495471
-0.25102
-0.860812
-0.701045
-1.00007
-0.962122
-0.892105
-0.974659
-0.581228
-0.759022
-0.12148
-0.365178
0.392853
0.136576
0.792463
0.616731
0.964285
0.908597
0.949898
0.973975
0.846342
0.909134
0.740291
0.7968
0.642333
0.685553
0.583607
0.610737
0.525234
0.553714
1.20875
1.28299
-1.73099
-1.6065
-4.15158
-5.99315
1.69493
0.929975
-2.01149
-3.13947
-4.8162
1.39407
2.43465
2.45375
1.71162
1.7907
3.04965
0.544831
0.590148
0.523351
0.500135
0.495153
0.465412
0.844649
0.113137
-2.3954
-2.62522
-2.52152
0.965489
1.03371
1.19574
2.1475
-2.95563
-2.35937
1.07252
-2.32213
-1.42151
-2.99608
1.99503
2.22257
2.16748
1.17049
1.02923
-1.78429
-5.15255
1.83067
0.571198
0.535496
0.643023
0.607205
0.714059
0.678294
0.787692
0.750729
0.862093
0.824795
0.936224
0.899251
1.00848
0.972648
1.07719
1.04341
1.14055
1.1096
1.19768
1.16985
1.24857
1.22384
1.29397
1.27186
1.33512
1.315
1.37327
1.35453
1.40978
1.39154
1.44493
1.42762
1.47849
1.46193
1.51066
1.49473
1.54237
1.5265
1.57457
1.55842
1.60658
1.59069
1.63823
1.62238
1.66986
1.6541
1.70042
1.6853
1.73055
1.71535
1.76246
1.74629
1.79504
1.77869
1.83079
1.81219
1.87201
1.85093
1.91696
1.89386
1.96968
1.94221
2.02702
1.99849
2.08188
2.05453
2.14082
2.11043
2.21168
2.17412
2.30257
2.25418
2.41255
2.3557
2.38821
2.41224
2.31461
2.35408
2.27152
1.65754
1.58527
1.62482
1.7167
1.68725
1.77164
1.74452
1.81191
1.79132
1.8521
1.83218
1.57754
1.63968
1.48256
1.52478
1.4338
1.45269
1.4182
1.42323
1.42392
1.4184
1.45214
1.43547
1.49517
1.47257
1.54381
1.519
1.59383
1.56911
1.63456
1.61601
1.65846
1.64869
1.66456
1.66374
1.65218
1.6604
1.62608
1.64026
1.59419
1.61053
1.56049
1.5775
1.52728
1.5438
1.49518
1.51119
1.46198
1.47874
1.42563
1.44407
1.38483
1.40575
1.3389
1.36252
1.28912
1.31445
1.23821
1.26359
1.18889
1.21299
1.1437
1.16558
1.10449
1.12352
1.07154
1.08756
1.04341
1.05714
1.01684
1.03027
0.986365
1.00254
0.945373
0.967634
0.887513
0.919348
0.807443
0.851574
0.708812
0.759118
0.653271
0.596672
0.573443
0.636441
0.614795
0.652996
0.65847
0.478331
0.599761
0.0243404
0.287123
-0.641074
-0.291905
-1.27979
-0.990898
-1.52009
-1.45557
-1.33945
-1.47815
-0.840595
-1.1193
-0.194243
-0.525734
0.446393
0.136043
0.929109
0.714149
1.17818
1.08385
1.20049
1.21559
1.07947
1.14935
0.90853
1.00196
0.76642
0.835877
0.654196
0.706256
0.567683
0.609022
0.528563
0.904523
1.55106
-2.82707
-2.49343
-3.89671
-4.87309
1.5076
2.10752
1.88771
2.47135
1.87164
3.92587
0.565273
0.504484
0.476418
0.438764
0.579145
0.856221
-3.01429
-3.73067
-4.14736
1.10955
0.595253
2.74431
-3.67612
-3.39069
-2.06785
-0.403474
1.3008
-4.16885
-3.4396
2.04648
0.593826
1.96673
2.02122
0.504938
2.32642
2.31842
-2.83502
-4.48345
1.67659
0.552912
0.515251
0.626943
0.590059
0.700722
0.663904
0.774862
0.737591
0.849511
0.812177
0.923289
0.886559
0.994636
0.959322
1.06221
1.02897
1.1249
1.09425
1.18199
1.15416
1.23344
1.2084
1.27978
1.25717
1.32193
1.3013
1.36103
1.3418
1.39809
1.37975
1.43345
1.41599
1.4672
1.45052
1.4994
1.48347
1.5306
1.51505
1.56172
1.54616
1.5925
1.57712
1.62319
1.60781
1.65386
1.63853
1.68446
1.66914
1.71592
1.69994
1.7496
1.73252
1.78485
1.76695
1.82434
1.80387
1.86903
1.84614
1.91896
1.89321
1.97542
1.94648
2.03501
2.00516
2.09619
2.0651
2.16323
2.12883
2.2399
2.20014
2.32884
2.28246
2.43294