/*--------------------------------*- C++ -*----------------------------------*\
  =========                 |
  \\      /  F ield         | OpenFOAM: The Open Source CFD Toolbox
   \\    /   O peration     | Website:  https://openfoam.org
    \\  /    A nd           | Version:  10
     \\/     M anipulation  |
\*---------------------------------------------------------------------------*/
FoamFile
{
    format      ascii;
    class       surfaceScalarField;
    location    "28.5";
    object      phi;
}
// * * * * * * * * * * * * * * * * * * * * * * * * * * * * * * * * * * * * * //

dimensions      [0 3 -1 0 0 0 0];

internalField   nonuniform List<scalar> 
57492
(
-0.00431326
2.09323e-05
0.000972346
0.00331998
0.00159388
-0.00276292
-0.00314422
-0.000836386
0.00253146
0.00875336
-0.0104484
0.0386147
0.0296156
-0.00602507
-0.0622052
-0.0831332
0.0348268
0.0869212
0.0136005
-0.0129106
-0.00660411
0.00591418
-0.0246317
0.00704247
-0.00414346
0.0217327
0.00483614
-0.0158674
0.0120559
-0.0423921
0.04048
-0.0101439
0.0104419
0.0389324
-0.0373184
0.0107839
0.0030181
-0.00624299
-0.00755903
-0.00102666
0.00460535
0.00720524
-0.00666531
0.00570197
-6.33211e-05
0.00138786
-0.00503507
0.0309673
-0.0267554
-0.0116977
0.00748581
0.00143317
0.0235938
0.00594028
-0.000501124
0.00504194
0.0344151
-0.0389559
-0.00447667
0.0338948
-0.0299193
0.00469465
-0.00947863
0.00478398
-0.0361261
0.0259546
0.0148662
-0.0458362
0.00588191
0.0335888
0.00636548
0.00775014
-0.0465868
-0.00699955
-0.000534799
0.00280178
-0.00233831
7.13282e-05
0.0030262
-0.00388677
0.000325774
-0.0386887
0.0418938
0.00323179
-0.00643691
-0.0585911
0.0311715
-0.0112691
-0.0283694
0.0124593
0.013062
0.00284816
-0.0194265
-0.00975695
0.000814064
-0.00866658
-0.0254475
0.0300846
0.00402943
-0.0101728
0.00310786
-0.00160167
0.0149391
-0.00974538
-0.00914605
0.00395235
-0.012647
0.00979201
0.017794
-0.0191564
-0.0322274
0.0225659
0.0288179
-0.0354043
-0.0112671
0.027515
-0.0173474
-0.00302335
0.0203707
-0.00581058
-0.0115368
-0.0252958
0.0331076
-0.0136224
0.0046167
-0.0153016
-0.0146109
-0.0114863
0.0185287
-0.00692011
-0.0378135
0.0203267
0.0174868
-0.0730946
0.0352811
0.0593731
-0.0162695
0.0110948
-0.0541984
0.0439658
0.00640954
0.00899775
-0.0139971
0.0553224
-0.0575949
0.0262098
0.00467638
-0.02605
0.0252651
-0.00319875
0.0301487
-0.0106779
-0.0222525
0.0027818
0.0339893
0.000835769
0.020265
-0.0119534
0.0169535
0.00980643
0.0321913
-0.0416959
-0.00594637
0.0055286
0.0421137
-0.0430256
-0.00305275
0.00438247
0.00848456
0.0413453
-0.0406511
-0.00917875
0.00540342
-0.0393109
-0.0297506
0.0468325
0.0406344
-0.0577163
0.005312
0.053077
-0.0881396
0.000467844
0.00343529
-4.38087e-05
-0.00385932
0.00382349
0.00234632
-0.00149923
0.00213431
0.00318841
0.00221038
-0.000274318
-0.00115737
0.00111357
-0.000426396
-0.000730979
0.103681
0.0431503
-0.070874
-0.0759571
0.0356787
-0.0221557
0.0901579
-0.0904976
0.0349347
0.0912415
0.0204265
-0.0677738
0.0131141
-0.031208
0.024488
-0.00639413
0.0266494
-0.0314864
0.0179511
0.000943224
-0.0010488
0.000126508
0.00147246
0.000443115
0.00372279
0.00106964
-0.0341153
0.0625306
0.0304344
-0.0588497
0.0404445
-0.0479105
0.0253505
0.0581744
-0.0209944
0.133556
-0.0150007
-0.0346134
-0.0839422
0.0325801
0.0735988
0.0273775
0.0190577
-0.053084
0.0666064
0.00156917
-0.00240555
0.00410062
0.017962
0.0345703
-0.0143138
-0.0382184
0.0242782
0.0024371
0.00271342
-0.00122676
-0.00148665
0.00244845
0.000264967
-0.0769718
0.0353702
-0.027075
0.0686767
-0.065457
-0.0360634
0.0245485
-0.0350679
0.032817
-0.063206
0.0373793
-0.000511862
-0.0184253
-0.0184421
-0.0148977
0.0420269
0.0102501
-0.0184226
-0.00185828
0.00538318
-0.0166447
-0.00228971
-0.00610937
-0.0289607
0.0373885
-2.67298e-05
-0.011569
-0.0257927
0.00355945
0.0274373
0.00639181
-0.0184067
-0.00327348
0.0252397
-0.016686
-0.00174744
-0.0265492
-0.00170588
-0.0155753
0.00946595
0.00200095
-0.0175763
0.00317374
-0.000725287
0.0464893
0.0310472
-0.00326933
0.0174455
-0.0540894
-0.00311691
0.0358529
-0.0265235
-0.0062125
-0.00488992
0.0413688
-0.0395958
0.03154
0.0162036
-0.00309763
-0.0446459
-0.011431
0.00637071
0.0366003
0.0381128
-0.0333402
-0.0135194
-0.0286284
0.00862764
0.0335202
-0.0137182
0.0331875
-0.0329887
0.00107175
-0.0434184
-0.00434904
-0.0032615
0.00030031
0.00416741
-0.00110004
-0.00147349
0.00153951
-0.00196755
0.00459546
-0.00195815
0.000734744
-0.00500327
0.00669267
0.00176245
-0.00345186
0.0157091
-0.0129793
-0.00773301
-0.0065069
0.0169472
0.00526881
-0.00269935
0.00288513
-0.0636375
0.0335153
0.0654924
0.0680419
-0.0261664
-0.0779388
-0.0318773
0.0362816
-0.00255941
-0.0200318
-0.00285627
-0.0129402
0.000207975
0.00167931
-0.0030877
9.85896e-05
0.0013098
-0.00384577
0.00432322
0.00120186
-0.00872411
0.00179064
-0.0058702
-0.0083943
0.00132434
-0.0168888
-0.00901324
-0.0141413
-0.0148287
0.0177123
0.0112576
0.000866363
0.00682783
-0.0218355
-0.0195764
0.00561408
-0.0546402
0.0217812
-0.00326706
-0.0559562
0.0076247
-0.00630869
0.00223506
-0.0368495
0.0325326
0.00208177
0.00195704
-0.0340427
0.0343207
0.00246581
-0.11241
-0.0301655
0.0392313
0.0398977
-0.0482819
0.0361104
-0.00602609
0.00188489
-0.00515837
0.00155418
0.000330711
0.00736384
-0.00151091
0.0629632
-0.0377097
-0.0247716
-0.000481914
0.0529621
-0.00399597
0.0627389
0.00726281
-0.0646897
0.0253582
0.0484951
-0.0111144
0.00983239
-0.0342307
0.0497565
8.96792e-05
0.0014645
0.0121901
-0.0391498
-0.04132
0.0247282
0.0501156
0.0160896
-0.000992979
-0.0167513
0.0016547
0.00511713
-0.00167447
-0.0208124
0.00377834
0.0268261
0.00303651
-0.0187318
-0.00279447
-0.000244941
-0.00739827
-0.0021765
0.00890304
0.00067173
-0.00275779
0.000463311
-0.0051038
-0.0115024
-0.0058947
0.0146393
-0.0184362
0.0324842
-0.0108743
0.0618266
-0.0593578
-0.0209049
-0.000699025
-0.0271633
0.0316407
-0.0788735
-0.00187331
-0.057402
-0.0302367
0.00876521
0.0326941
0.0244507
-0.051263
0.0185319
0.0475025
-0.0333403
0.017397
-0.0322511
0.0191498
-0.00429576
0.0190475
-0.031339
0.0296885
0.0447943
0.0132452
0.0443636
-0.00103332
-0.0441563
0.000825998
0.0491176
-0.00479016
3.62398e-05
0.0508947
-0.00673003
-0.000890791
-0.0432738
0.0365147
-0.0111459
0.0255259
0.0402565
-0.0100985
0.00781865
-0.0379767
0.00889017
0.0408702
-0.00950381
-0.0367379
-0.012539
0.0391784
0.00700218
-0.0351125
-0.0131156
0.0340968
-0.0172303
-0.03123
0.0152059
0.0332543
-0.0176365
-0.0318623
0.0322686
0.0161831
0.0301385
-0.00931747
-0.0370041
0.0297761
-0.0312296
-0.0190951
0.0190374
0.0298338
-0.0149804
0.0260238
-0.0392118
0.0346108
-0.00471643
-0.0506826
0.00359331
0.0512613
-0.00417202
0.0126437
-0.0164485
-0.00659123
0.00262384
0.0204159
-0.0105332
-0.00154121
-0.00437417
0.00217885
-0.00586679
0.00172979
-0.0190156
-0.0290148
0.0180199
-0.000752824
0.00121614
-0.000233623
-0.000519201
-0.00349876
-0.0328781
0.0244235
-0.0286522
-0.00299564
0.0281491
0.00208762
-0.0299287
-0.000811185
0.00148054
0.0197565
-0.00124265
-0.0199944
0.0162913
0.0118496
-0.0266604
0.0246661
0.0113818
0.000374352
-0.000170612
-0.00346524
-5.63177e-05
0.00043067
-0.000226929
0.000414252
-0.000479496
0.00227562
-0.000359753
0.000774005
-0.000839248
0.00152392
-0.000188846
0.00169113
-0.00143409
0.00295801
-0.00162294
0.001761
-0.000113131
-0.00434722
-0.00062841
0.00238941
-0.000741542
0.0145262
0.0307551
-0.0389106
0.0108538
-0.0399777
0.0436501
0.044981
-0.00337212
-0.0132159
-0.0254655
0.0130701
0.0256114
-0.00658677
0.0274026
-0.0340317
0.00250136
-0.0345537
0.0370781
-0.0377232
0.0202576
-0.0196125
0.0365611
0.0209461
-0.0204292
0.020072
-0.0380443
-0.0197509
0.0364851
0.0204184
-0.0203423
0.0368276
0.0204963
-0.0208388
0.0193279
0.0373767
-0.019877
0.0380156
-0.0380675
0.0193798
0.0158721
0.0389679
-0.0174633
0.0364664
0.0174213
-0.0370519
0.0194808
-0.0370592
0.0204257
-0.0372146
0.0211015
-0.0383944
0.0214374
-0.037953
0.0196307
0.0143555
0.0401989
-0.0155864
0.0343762
0.0164457
0.0200721
-0.0380086
-0.0201078
-0.0382768
0.0203958
0.0198929
-0.0407731
-0.0171284
0.0138712
0.0397845
-0.0134569
0.0341827
0.0140648
-0.0399124
0.0215285
0.0392934
0.0112639
-0.0107728
0.00823231
0.0389436
-0.00788248
0.0339417
0.0115049
0.0337944
0.0083796
0.0198489
-0.0406582
-0.0199639
-0.0404819
0.0204184
0.00497687
0.0386091
-0.00464233
0.0336449
0.00512631
0.0204146
-0.0407972
-0.0202756
-0.0404951
0.0204278
0.00150069
0.0384039
-0.00129555
0.0335569
0.00158872
0.0206585
-0.0410036
-0.0204521
-0.0406224
0.0207858
-0.0019981
0.0382943
0.00210772
0.0335423
-0.00198354
0.0209762
-0.0410923
-0.0208875
-0.0405786
0.0209325
-0.00545964
0.0382635
0.00549045
0.0335714
-0.00548871
0.0213199
-0.0412393
-0.021173
-0.0406395
0.0213808
-0.00878907
0.038436
0.00861662
0.0337116
-0.00892928
0.0217859
-0.0413385
-0.0216867
-0.0404338
0.0215803
-0.0117902
0.0386284
0.0115978
0.0338463
-0.0119248
0.0224148
-0.0400687
-0.0236846
-0.0396087
0.0215896
-0.0145095
0.0390995
0.0140384
0.0341319
-0.0147952
0.0228985
-0.040396
-0.0225712
-0.0389572
0.022247
-0.0167325
0.0395521
0.01628
0.0342187
-0.0168193
0.0235492
-0.0384003
-0.0255449
-0.0374057
0.0219978
-0.0171551
0.0389053
0.0178019
0.0355239
-0.0184603
0.0237601
-0.0378417
-0.0243187
-0.0364793
0.0228336
-0.0187808
0.0361209
0.0215652
0.0364797
-0.0197366
0.0241648
-0.0250582
-0.0369482
-0.0355895
0.023275
-0.0212336
0.0214164
0.035938
0.0364913
-0.0212451
-0.038877
0.0395707
-0.0250124
-0.039155
-0.0247803
0.0243432
-0.0247341
-0.0365572
0.0227694
-0.0340157
-0.0383526
0.0389506
-0.0231692
-0.0243268
-0.0371964
0.037069
-0.0215594
-0.0219304
-0.0369102
0.0367249
-0.0207022
-0.0210141
-0.0365188
0.0362878
-0.0200446
-0.020246
-0.0360393
0.0385855
-0.0196746
-0.0197154
-0.0379872
0.0372007
-0.0189644
-0.0195095
-0.0378858
0.0371842
-0.0197276
-0.0202976
-0.0352863
0.0341511
-0.0197037
-0.0184444
-0.0329474
0.0325384
-0.0170543
-0.0186733
-0.0321694
0.0318377
-0.0131251
-0.0152175
-0.0315521
0.0313287
-0.00765907
-0.0104873
-0.0311807
0.0311201
-0.00123497
-0.00449428
-0.0311584
0.0312973
0.00535157
0.0020694
-0.0315335
0.0318614
0.0112698
0.00838044
-0.0322629
0.0327244
0.0158185
0.0136369
-0.0327137
0.0344759
0.019803
0.0178126
0.0351902
0.0207021
-0.0223104
0.0221502
0.0360982
-0.0223891
0.03657
0.0359822
-0.0354235
-0.019019
-0.0365108
0.0366349
-0.0213692
-0.0202653
0.0352481
-0.0350952
-0.0149481
-0.0169948
0.0349584
-0.0348733
-0.00901435
-0.0120616
0.0348433
-0.0348653
-0.00196157
-0.00551867
0.0349336
-0.0350354
0.00522811
0.00165707
0.03516
-0.0353012
0.0116461
0.00850417
0.0354463
-0.0355838
0.0165832
0.0142099
0.0363596
-0.0365993
0.0196195
0.0181971
0.0373934
-0.0371704
0.0202027
0.0202749
0.0370286
-0.036848
0.0212568
0.0209596
0.037386
-0.0378078
0.0208177
0.0201686
0.0365397
-0.03655
0.0204287
0.0202604
0.0365334
-0.0364898
0.0207423
0.0204111
0.0364149
-0.036302
0.0212679
0.0208576
0.0361426
-0.0363609
0.0218079
0.0214208
0.035981
-0.0360272
0.022044
0.0218672
0.0349653
-0.0339258
0.0222355
0.0217717
-0.0324859
0.0213295
-0.0393787
-0.0245103
0.0355948
0.0217456
-0.0221669
0.0364126
0.0219198
-0.0224817
-0.0334539
0.0207512
-0.0313172
0.0231787
-0.0234499
-0.0391076
-0.0358602
-0.0395473
0.0387397
-0.0242048
0.040202
-0.0405058
-0.0242065
-0.0241256
-0.037975
0.037753
-0.0229472
-0.0235622
-0.0375678
0.0373507
-0.0213423
-0.0217452
-0.0371088
0.036845
-0.0204384
-0.0207722
-0.0365643
0.0362617
-0.019742
-0.0199653
-0.0359363
0.035573
-0.0193112
-0.01939
-0.035184
0.0354335
-0.019214
-0.0191205
-0.0342703
0.0337755
-0.0192328
-0.0191344
-0.0342915
0.0332111
-0.0186233
-0.0189603
-0.0322564
0.0317843
-0.0165821
-0.0177186
-0.031358
0.0309814
-0.0127485
-0.0147912
-0.0306682
0.0304277
-0.00741855
-0.0101741
-0.0302774
0.0302284
-0.00118597
-0.00434399
-0.0302847
0.0304525
0.00518371
0.00201315
-0.0307265
0.0311003
0.010896
0.0081065
-0.0315524
0.0320708
0.0153001
0.0131848
-0.032675
0.0338858
0.0185921
0.0172084
0.021756
-0.022441
0.0367831
0.0208309
0.03652
-0.0345932
0.0358223
0.0205165
0.0199947
0.0367421
-0.036754
-0.0213572
0.0364009
-0.0218257
0.0219257
-0.0220587
0.0365456
0.0360547
0.0367922
-0.0366806
-0.0191306
-0.0202271
0.0364411
-0.0363343
-0.0150549
-0.0172343
0.0362619
-0.0362289
-0.00904744
-0.012134
0.0362317
-0.0362659
-0.00192742
-0.00551582
0.036323
-0.0363951
0.00530022
0.00171419
0.0364727
-0.0365496
0.011723
0.00858173
0.0366175
-0.0366736
0.0166394
0.0142778
0.0367169
-0.0367578
0.0196604
0.0182403
0.0367828
-0.0374349
0.0208547
0.0202999
0.0372533
-0.0368231
0.0208266
0.0207781
0.0371428
-0.0367856
0.0204604
0.0204883
0.0367434
-0.0366736
0.0203589
0.0202182
0.0365795
-0.0364581
0.0206208
0.020317
0.0363046
-0.0361103
0.0210736
0.0207041
0.0358669
-0.0355594
0.0215005
0.0211774
0.0351778
-0.0347096
0.0215757
0.0214856
0.0341467
-0.0326855
0.0207743
0.0212088
0.0316602
-0.0301346
0.0192255
0.0203042
-0.0406341
-0.0233217
0.0187285
-0.019972
-0.0300737
-0.0289581
0.017552
-0.0211177
-0.0323082
0.0207805
0.0358727
0.036642
-0.0222998
-0.0211738
0.0204192
-0.038353
-0.0216154
-0.0401925
0.0156523
-0.0172517
-0.0284743
0.0147395
-0.0280454
-0.0365587
0.0353916
-0.0342971
0.0194219
0.0356265
0.0205456
-0.0216374
0.0216098
0.0365732
-0.0215731
0.0365777
-0.0410669
0.0418235
-0.022372
-0.0203314
0.0192848
-0.0391459
0.0420965
0.016004
-0.0117146
-0.0463859
-0.0193018
-0.0419133
0.0414852
-0.0237784
-0.0234114
-0.0407965
0.0396693
-0.0230775
-0.023437
-0.0390842
0.0382253
-0.0220883
-0.0229771
-0.0379459
0.0376399
-0.0210362
-0.0214658
-0.0373168
0.0369771
-0.0200987
-0.0204492
-0.036625
0.0362547
-0.0193717
-0.0196132
-0.0358646
0.0354416
-0.0188882
-0.0189998
-0.0349843
0.0344803
-0.0187099
-0.0186633
-0.0339443
0.0333709
-0.0186594
-0.0185984
-0.0327885
0.0322146
-0.0180493
-0.0183779
-0.0316573
0.0311327
-0.0160576
-0.0171613
-0.0306631
0.0302538
-0.0123392
-0.0143215
-0.0299204
0.0296714
-0.0071695
-0.00984078
-0.0295223
0.0294841
-0.00114779
-0.00419495
-0.029561
0.0297573
0.00498748
0.00193624
-0.0300652
0.0304781
0.0104831
0.00779862
-0.0309711
0.0315315
0.0147398
0.0126917
-0.0322866
0.0332037
0.0176751
0.0164533
0.0189014
0.0215627
-0.0212808
0.0365012
-0.0214964
0.0208379
0.0365312
0.0365862
0.0363838
0.037666
-0.0378609
-0.0211623
-0.0374082
0.0367762
-0.0216678
-0.0215679
0.0377589
-0.0376729
-0.0192166
-0.0203291
0.0376601
-0.0376331
-0.0150819
-0.017247
0.0376273
-0.0376437
-0.00903102
-0.0121398
0.0376772
-0.0377206
-0.00188402
-0.00548238
0.0377647
-0.037803
0.00533846
0.00175836
0.037828
-0.0378356
0.0117306
0.00860679
0.0378222
-0.0377875
0.0166047
0.0142644
0.0377342
-0.0376634
0.0195896
0.018187
0.0375787
-0.0374872
0.0207632
0.0202152
0.0373957
-0.0373012
0.0207321
0.0206865
0.0371982
-0.0370879
0.0203501
0.0203854
0.0369628
-0.0368169
0.020213
0.0200931
0.0366482
-0.0364511
0.0204237
0.0201484
0.0362216
-0.0359489
0.0208009
0.0204746
0.0356248
-0.0352336
0.0211092
0.0208534
0.0347676
-0.034212
0.0210201
0.0210197
0.0335652
-0.0328223
0.0200314
0.020562
0.0314314
-0.0297571
0.0175512
0.0189133
0.0283335
-0.0273718
0.0137778
0.0161284
0.0115616
-0.0123454
-0.0272616
-0.0265431
0.0107329
0.0184092
-0.0374774
-0.0173318
-0.032228
0.0205281
0.0359364
0.0368242
-0.0216211
0.0163943
-0.0395362
-0.0120777
-0.028742
0.0200291
-0.0313157
0.0359527
-0.00796265
0.0072361
-0.0258166
-0.00883209
-0.0263922
-0.0262676
0.0409983
-0.00334891
-0.0190436
-0.0084666
-0.0354813
-0.0401091
0.0427529
-0.0143585
-0.00954404
0.0104333
-0.0424558
0.0420633
-0.0219794
-0.0190046
-0.0417404
0.0408518
-0.0228898
-0.0230886
-0.0402559
0.039864
-0.0226857
-0.0228411
-0.039051
0.0386985
-0.0217358
-0.0221641
-0.038324
0.0379325
-0.0206447
-0.0210913
-0.0375324
0.0371216
-0.0196879
-0.0200491
-0.0367038
0.0362715
-0.0189395
-0.0191953
-0.0358231
0.0353445
-0.0184096
-0.0185514
-0.0348315
0.0342726
-0.018151
-0.0181502
-0.0336761
0.0330448
-0.0180281
-0.0180019
-0.0324027
0.0317654
-0.017412
-0.0177359
-0.0311584
0.0305918
-0.015491
-0.0165543
-0.0300887
0.0296563
-0.0119068
-0.0138185
-0.0293108
0.0290585
-0.00691718
-0.00949524
-0.0289167
0.0288913
-0.00112241
-0.00405314
-0.0289883
0.0292099
0.00476588
0.00183924
-0.0295464
0.0299905
0.0100391
0.00746205
-0.0305157
0.0311091
0.0141464
0.0121665
-0.0320048
0.0328083
0.0168716
0.0155575
-0.0335122
0.0343462
0.0185879
0.0181974
-0.0352151
0.0362572
0.019486
0.0196767
0.0208817
-0.0209493
0.0365989
-0.0207694
0.0200672
0.0369595
0.0360486
0.0212334
-0.0209633
0.0362311
0.0368703
0.0211577
-0.0212759
0.0366915
0.0365782
0.0215871
-0.0217868
0.0370239
0.0368888
0.038125
-0.0383411
-0.0214517
-0.0381503
0.0375731
-0.0212097
-0.0216464
0.0385859
-0.0386867
-0.0210615
-0.0213231
0.0388178
-0.0388689
-0.0191655
-0.020198
0.038915
-0.0389658
-0.0150311
-0.0172009
0.0390238
-0.0390871
-0.00896773
-0.0120818
0.0391472
-0.0391962
-0.00183504
-0.00542225
0.0392243
-0.0392256
0.00533969
0.0017865
0.0391955
-0.0391315
0.0116666
0.0085767
0.0390343
-0.0389048
0.0164752
0.0141671
0.0387493
-0.0385705
0.0194108
0.0180315
0.0383785
-0.0381808
0.0205656
0.0200232
0.0379845
-0.03779
0.0205376
0.0204902
0.0375986
-0.0374026
0.0201542
0.020194
0.0371984
-0.0369777
0.0199923
0.0198889
0.0367369
-0.0364671
0.0201538
0.0199076
0.0361645
-0.0358167
0.0204531
0.0201721
0.0354166
-0.0349477
0.0206403
0.0204532
0.0344044
-0.0337722
0.0203879
0.0204764
0.0330538
-0.0322443
0.019222
0.0198436
0.0313639
-0.0304273
0.0166146
0.0180328
0.028873
-0.0273098
0.0122146
0.0145741
0.0264042
-0.0256625
0.00649434
0.0098274
0.00349917
-0.00391396
-0.0254018
-0.0250375
0.00287418
0.0151728
-0.0362559
-0.013338
-0.0309677
0.0139517
-0.0334588
-0.008508
-0.0290661
0.0351426
-0.0348172
0.0191606
0.0360278
0.019182
-0.0209395
0.0208952
0.0370683
-0.020704
0.0373376
0.0101817
-0.0296479
-0.00388813
-0.026418
-0.0161399
-0.0228982
-0.0319138
0.0378081
-0.0092432
-0.000248559
0.000125352
-0.0252786
-0.000684816
-0.0246013
-0.0293902
-0.0109902
-0.0336466
-0.0404221
0.0415399
-0.0154763
-0.012158
-0.042378
0.0418489
-0.0214504
-0.0198427
-0.0409942
0.0407623
-0.0226579
-0.0222339
-0.0404381
0.0400466
-0.0222942
-0.0225168
-0.0396151
0.0391591
-0.0212798
-0.0217326
-0.038694
0.0382221
-0.0201728
-0.0206262
-0.0377505
0.0372747
-0.0192121
-0.0195775
-0.036797
0.0363088
-0.0184513
-0.0187177
-0.0358085
0.0352811
-0.0178822
-0.018051
-0.0347217
0.0341165
-0.0175459
-0.0175908
-0.0334722
0.0327912
-0.0173471
-0.0173576
-0.0320992
0.0314124
-0.0167252
-0.017044
-0.0307624
0.0301611
-0.0148897
-0.0159043
-0.0296329
0.0291849
-0.0114588
-0.0132903
-0.0288337
0.0285857
-0.00666917
-0.00914404
-0.0284533
0.0284431
-0.00111224
-0.00392072
-0.0285592
0.0288027
0.00452243
0.00172317
-0.0291624
0.0296303
0.00957127
0.00710227
-0.0301794
0.0307951
0.0135308
0.0116173
-0.0314457
0.0321204
0.0161968
0.0149069
-0.0333817
0.0338684
0.0181011
0.0169362
0.0187279
0.0205867
-0.0208823
0.0368945
-0.0198346
0.0200846
0.0367094
0.0368007
0.0201217
-0.0203215
0.0364309
0.0361096
0.02028
-0.0205161
0.0369276
0.0365367
0.0372678
0.0390958
-0.039432
-0.0211155
-0.0385622
0.0377945
-0.020442
-0.0211128
0.0396192
-0.0397257
-0.020955
-0.0211359
0.0398906
-0.0400399
-0.0190162
-0.0200331
0.0401742
-0.0403013
-0.0149041
-0.0170666
0.0404186
-0.0405244
-0.00886188
-0.0119645
0.0406073
-0.0406585
-0.00178383
-0.00533938
0.0406682
-0.0406304
0.0053019
0.00179618
0.0405436
-0.0404072
0.0115302
0.00848995
0.0402259
-0.0400019
0.0162512
0.0139858
0.0397454
-0.0394615
0.0191269
0.0177751
0.0391654
-0.0388641
0.0202642
0.0197271
0.0385687
-0.0382801
0.020249
0.0201948
0.0380017
-0.0377245
0.019877
0.0199156
0.037445
-0.0371524
0.0196996
0.0196094
0.036842
-0.0365029
0.0198147
0.0195972
0.0361309
-0.0357123
0.0200345
0.0198001
0.0352414
-0.0347017
0.0201006
0.0199823
0.0340896
-0.0333916
0.0196899
0.0198643
0.0326136
-0.0317529
0.0183612
0.0190656
0.0308322
-0.0298654
0.0156479
0.0171121
0.0288945
-0.0279556
0.0112756
0.0136033
0.0265855
-0.0254736
0.0053825
0.0084573
0.0246411
-0.0241969
-0.00112903
0.00204166
-0.00426089
0.00430941
-0.0246498
-0.0241193
-0.0043385
0.0109654
-0.0332697
-0.00930248
-0.0301732
0.0197575
0.0363549
0.0375689
-0.0204784
0.00834231
-0.0316193
-0.00176688
-0.0410334
0.00185687
-0.0332716
-0.00457255
-0.0283816
0.000162194
-0.0264548
-0.0426492
-0.00963923
-0.00035469
-0.00263285
-0.0396616
-0.00439136
-0.0369967
0.00417324
-0.0251424
-0.00800924
0.00777435
-0.0244149
-0.00759379
-0.0245347
-0.0319836
-0.0371667
0.0393877
-0.0114642
0.0386975
-0.0418078
-0.00652891
-0.00945941
-0.0412052
0.0423871
-0.0166583
-0.0139755
-0.0424355
0.0423109
-0.0213258
-0.019891
-0.0420438
0.0416621
-0.0222763
-0.0219667
-0.0411994
0.0406836
-0.0217784
-0.022054
-0.0401438
0.0395929
-0.0207289
-0.0211929
-0.0390456
0.0385016
-0.0196288
-0.0200789
-0.0379664
0.0374327
-0.0186784
-0.0190423
-0.0369023
0.0363651
-0.0179142
-0.0181872
-0.0358199
0.0352511
-0.0173135
-0.0175058
-0.0346535
0.0340115
-0.0169039
-0.0169932
-0.0333301
0.0326103
-0.0166272
-0.0166762
-0.0318788
0.0311526
-0.0159991
-0.0163124
-0.0304674
0.0298381
-0.0142605
-0.015219
-0.0292912
0.0288339
-0.0110015
-0.0127434
-0.0284827
0.0282419
-0.00642837
-0.00879283
-0.0281222
0.0281282
-0.00111833
-0.003801
-0.0282624
0.0285245
0.00426033
0.00158904
-0.0289025
0.0293877
0.00908602
0.00672429
-0.0299537
0.0305865
0.012898
0.0110513
-0.0312538
0.0319418
0.0155088
0.0142396
-0.0326254
0.0337078
0.0170187
0.0162525
-0.0345914
0.035442
0.0183099
0.0178444
-0.0355312
0.0364818
0.0188068
0.0190929
0.0199988
-0.0200369
0.0367475
-0.0195831
0.0183395
0.0377255
0.0367706
0.0201561
-0.0196397
0.0363782
0.03692
0.0198682
-0.0200303
0.036593
0.0363381
0.0201194
-0.0201326
0.0369409
0.0366258
0.0201552
-0.0203675
0.0372806
0.0372904
0.020326
-0.0199236
0.0371665
0.0372961
0.0388473
-0.0388802
-0.0204091
-0.0380796
0.0377306
-0.0195746
-0.0197107
0.0396334
-0.0399605
-0.0207884
-0.0203595
0.0403897
-0.0406845
-0.0206602
-0.0207067
0.0409514
-0.0411954
-0.0187722
-0.0197662
0.0414123
-0.0416091
-0.0147073
-0.0168496
0.0417798
-0.041922
-0.00871964
-0.0117938
0.0420228
-0.0420727
-0.00173387
-0.00523868
0.0420622
-0.0419849
0.00522462
0.00178562
0.041842
-0.0416344
0.0113227
0.00834705
0.0413711
-0.0410557
0.0159358
0.0137225
0.0407029
-0.0403194
0.0187434
0.0174223
0.0399245
-0.0395255
0.0198652
0.0193322
0.0391377
-0.0387612
0.0198724
0.019807
0.038401
-0.0380473
0.0195232
0.0195554
0.0376969
-0.0373359
0.0193387
0.0192589
0.0369597
-0.0365551
0.01941
0.0192211
0.0361181
-0.0356341
0.0195505
0.0193631
0.0350987
-0.0344957
0.0194977
0.0194469
0.0338238
-0.0330706
0.0189366
0.0191924
0.0322448
-0.0313453
0.0174617
0.0182398
0.0303969
-0.0294142
0.0146652
0.0161637
0.0284386
-0.027498
0.010335
0.0126277
0.0266343
-0.0258911
0.00463926
0.00759363
0.0253072
-0.0246674
-0.00176889
0.0014578
0.0243353
-0.0242451
-0.00768398
-0.00467055
-0.0107474
0.0109263
-0.0247137
-0.0246819
-0.0103106
0.006513
-0.0314404
-0.0420778
-0.00236279
0.00229297
-0.0320554
0.0370716
-0.0363168
0.0180519
0.0376646
0.0177465
-0.0198022
0.0196036
0.0373652
-0.0191924
0.0371207
-0.00526407
-0.0294817
-0.000399391
-0.0278201
-0.00284488
-0.0348181
0.0042446
-0.0265262
0.00834053
-0.0257086
0.0115984
-0.025087
-0.012988
0.0136487
-0.0253744
-0.0124804
-0.0251895
-0.0307347
-0.0427068
0.0415805
-0.00540268
0.00270663
-0.00264524
-0.0421392
0.043774
-0.0449063
0.00383891
-0.00129557
-0.0405919
0.0417397
-0.0126119
-0.0084708
-0.0429806
0.0437878
-0.0174655
-0.0152165
-0.0437029
0.0434331
-0.0210559
-0.0198062
-0.0430158
0.0424895
-0.0217499
-0.0215495
-0.0418977
0.0412684
-0.0211491
-0.0214622
-0.0406312
0.0399961
-0.0200937
-0.0205557
-0.0393765
0.038769
-0.0190213
-0.0194593
-0.0381779
0.0375938
-0.0180942
-0.0184512
-0.0370177
0.0364384
-0.0173349
-0.0176111
-0.035855
0.0352521
-0.0167105
-0.0169224
-0.0346244
0.033955
-0.0162344
-0.0163655
-0.033247
0.0324992
-0.0158794
-0.0159683
-0.0317383
0.0309822
-0.0152429
-0.0155515
-0.0302693
0.0296179
-0.0136091
-0.0145061
-0.029057
0.0285945
-0.010539
-0.0121825
-0.0282464
0.0280154
-0.0061974
-0.00844467
-0.0279101
0.0279329
-0.00114113
-0.00369573
-0.0280839
0.0283618
0.00398243
0.00143803
-0.0287536
0.0292507
0.00858891
0.00633248
-0.0298271
0.0304693
0.0122558
0.010475
-0.0311455
0.0318441
0.0148102
0.0135634
-0.0325374
0.0332233
0.0163329
0.0155592
-0.0344267
0.0352292
0.0175075
0.016641
0.0180052
0.0191609
-0.019587
0.0371735
-0.0184981
0.0183241
0.0378994
0.0374335
0.0191696
-0.0194271
0.0366356
0.0365027
0.0196212
-0.0197485
0.0367203
0.0365322
0.019805
-0.0197894
0.0369252
0.0366823
0.0194466
-0.0196384
0.0374724
0.0369477
0.0372612
0.0395139
-0.0400472
-0.0198758
-0.0389065
0.0380084
-0.0186765
-0.0191033
0.0404568
-0.0408023
-0.0204429
-0.01995
0.0412175
-0.0416149
-0.0202628
-0.0202915
0.0419778
-0.04231
-0.01844
-0.0194033
0.042603
-0.0428617
-0.0144486
-0.0165566
0.0430777
-0.043249
-0.00854833
-0.0115778
0.0433618
-0.0434068
-0.00168881
-0.00512589
0.0433742
-0.0432582
0.00510854
0.00175304
0.0430614
-0.0427865
0.0110478
0.00815032
0.0424458
-0.0420447
0.0155348
0.0133818
0.0416025
-0.0411271
0.018268
0.0169801
0.0406416
-0.0401535
0.0193771
0.0188467
0.0396813
-0.0392243
0.0194155
0.0193348
0.0387892
-0.0383648
0.0190988
0.0191203
0.0379481
-0.0375235
0.018914
0.0188423
0.0370859
-0.0366206
0.0189446
0.0187836
0.0361238
-0.0355804
0.0190071
0.0188663
0.0349875
-0.0343293
0.0188395
0.018854
0.0336066
-0.0328081
0.0181381
0.0184697
0.0319449
-0.031017
0.0165338
0.0173766
0.0300509
-0.0290613
0.0136756
0.0151976
0.0280891
-0.0271604
0.00940638
0.0116554
0.0263214
-0.0256083
0.00392617
0.00675457
0.0250611
-0.0247052
-0.00212476
0.000910601
0.0243226
-0.0242358
-0.00777078
-0.00505314
0.0246686
-0.025474
-0.011675
-0.00987783
0.00511047
-0.00509996
-0.0370072
-0.0371964
-0.0138472
0.0148393
-0.0261816
-0.0262215
-0.0130996
0.00156794
-0.0307153
0.0184906
0.0374981
0.0377483
-0.0189324
-0.00920845
-0.0437509
0.00805306
-0.00097717
-0.0289039
-0.0091663
-0.0421814
-0.00266352
-0.0322368
0.00382726
-0.0274027
-0.00661571
-0.0333023
0.00817081
-0.0263565
0.0117273
-0.0258375
0.0142714
-0.0257096
0.0155056
-0.0260407
-0.0148815
0.0158118
-0.0271119
-0.0138346
-0.0272685
-0.0301439
-0.0456449
0.044602
0.00488177
0.0107869
-0.0424058
-0.012132
0.0462733
-0.044353
0.00886664
0.00868147
-0.0442512
0.0441528
-0.00530425
-0.0009448
-0.0443981
0.0442849
-0.0124986
-0.00871613
-0.044622
0.045142
-0.0179855
-0.0155535
-0.0449028
0.0444713
-0.0206244
-0.019567
-0.0439003
0.043235
-0.0210846
-0.0209784
-0.0425235
0.0417923
-0.0204179
-0.0207507
-0.0410696
0.0403616
-0.0193857
-0.019833
-0.03968
0.0390185
-0.0183599
-0.0187777
-0.0383801
0.0377535
-0.0174677
-0.0178128
-0.0371392
0.0365251
-0.0167208
-0.0169968
-0.0359107
0.0352809
-0.0160807
-0.016308
-0.034631
0.033943
-0.0155465
-0.0157157
-0.0332185
0.0324535
-0.0151144
-0.0152438
-0.0316734
0.0308962
-0.0144657
-0.0147714
-0.0301627
0.0294942
-0.0129406
-0.0137727
-0.0289226
0.028457
-0.0100734
-0.0116108
-0.0281134
0.0278933
-0.00597728
-0.00810105
-0.0278027
0.0278417
-0.00118016
-0.00360514
-0.0280081
0.0282992
0.00369133
0.00127165
-0.0287012
0.0292054
0.00808462
0.00593053
-0.0297865
0.0304321
0.0116102
0.00989393
-0.0311113
0.0318142
0.0141073
0.0128842
-0.0325129
0.0332043
0.0156416
0.0148605
-0.0338698
0.0349491
0.0164282
0.0159754
-0.0360268
0.0367852
0.0172936
0.0169275
-0.0369808
0.0377028
0.0177687
0.0175508
0.0188686
-0.0186469
0.0376777
-0.0183193
0.0173973
0.0386247
0.0380474
0.0188959
-0.0187297
0.0370073
0.0376825
0.0190138
-0.0192408
0.0368626
0.0367868
0.0194035
-0.0194999
0.0368167
0.0366949
0.019527
-0.0194841
0.0368823
0.0367094
0.0193706
-0.0189584
0.0370602
0.0368342
0.0189842
-0.0188697
0.0372507
0.037287
0.0193479
-0.0183243
0.0367247
0.0375989
0.0388697
-0.0392231
-0.0183231
-0.0378282
0.0374781
-0.0179741
-0.0178908
0.0398173
-0.0404431
-0.0192499
-0.0185091
0.0409666
-0.0414952
-0.0199143
-0.0194266
0.0420057
-0.0424975
-0.019771
-0.019781
0.0429493
-0.0433627
-0.0180266
-0.0189515
0.0437231
-0.0440344
-0.0141373
-0.0161962
0.0442865
-0.0444785
-0.00835641
-0.0113257
0.0445968
-0.0446331
-0.00165253
-0.00500752
0.0445769
-0.0444236
0.00495526
0.00169683
0.0441766
-0.0438396
0.0107108
0.00790325
0.0434282
-0.0429496
0.0150562
0.0129703
0.0424271
-0.0418696
0.0177105
0.0164575
0.0413036
-0.0407366
0.0188101
0.0182807
0.0401894
-0.0396609
0.0188869
0.0187876
0.0391585
-0.0386702
0.0186104
0.018618
0.0381932
-0.0377103
0.0184311
0.0183654
0.0372168
-0.0366962
0.018424
0.01829
0.0361455
-0.0355493
0.0184109
0.0183157
0.0349061
-0.0342006
0.018134
0.0182107
0.0334355
-0.0326007
0.0173033
0.0177046
0.0317092
-0.030762
0.0155867
0.0164851
0.0297866
-0.028798
0.012687
0.0142223
0.0278366
-0.0269282
0.00849801
0.010694
0.0261194
-0.0254423
0.00324911
0.00594576
0.0249383
-0.0246369
-0.00242609
0.000406547
0.0245765
-0.0247819
-0.00756546
-0.00511355
0.0250839
-0.0255718
-0.011187
-0.0095758
0.0264175
-0.0272319
-0.0130201
-0.012254
0.0109444
-0.0101187
-0.0378329
-0.0354183
-0.0143195
0.0154227
-0.0283717
-0.0286282
-0.0129233
-0.00284745
-0.0305314
0.00336032
-0.028437
-0.0138135
-0.0427028
0.0121634
-0.0405478
-0.0156715
-0.0161104
-0.038203
-0.00716123
-0.0316913
0.00792931
-0.0271612
0.0384778
-0.0372904
0.0165813
0.0387187
0.0171565
-0.017863
0.0177035
0.0368842
-0.0173961
0.0370112
-0.0105871
-0.0328339
0.0117669
-0.0263961
0.0146181
-0.0261842
0.0163214
-0.0265254
0.0168703
-0.0270993
0.016283
-0.0279722
0.0157474
-0.0412423
-0.0172079
-0.0421538
0.0443217
0.0135795
-0.01737
-0.0416361
0.0168523
-0.0145325
-0.029102
0.0152628
-0.0137327
-0.0294279
-0.0405678
-0.0180445
-0.029631
-0.0424066
0.0414689
0.00980435
0.0140784
-0.0434884
0.0451475
0.00322273
0.00666192
-0.0453019
0.0453837
-0.00538598
-0.00109929
-0.0460202
0.0463999
-0.0128783
-0.00935267
-0.046509
0.0463525
-0.0178291
-0.0156627
-0.0459552
0.0453686
-0.0200378
-0.0191696
-0.044658
0.0438716
-0.0202983
-0.0202678
-0.0430587
0.0422429
-0.0196021
-0.0199378
-0.0414501
0.040683
-0.0186187
-0.0190403
-0.0399512
0.0392461
-0.0176547
-0.0180459
-0.0385695
0.0379089
-0.016807
-0.0171362
-0.0372641
0.0366225
-0.0160793
-0.016352
-0.0359842
0.0353343
-0.0154308
-0.0156697
-0.0346696
0.0339713