/*--------------------------------*- C++ -*----------------------------------*\
  =========                 |
  \\      /  F ield         | OpenFOAM: The Open Source CFD Toolbox
   \\    /   O peration     | Website:  https://openfoam.org
    \\  /    A nd           | Version:  10
     \\/     M anipulation  |
\*---------------------------------------------------------------------------*/
FoamFile
{
    format      ascii;
    class       volScalarField;
    location    "28";
    object      p;
}
// * * * * * * * * * * * * * * * * * * * * * * * * * * * * * * * * * * * * * //

dimensions      [0 2 -2 0 0 0 0];

internalField   nonuniform List<scalar> 
28942
(
-0.00355312
-0.00290439
0.00232821
0.00989711
0.0101976
0.000152618
0.000430486
5.62557e-05
0.00310414
0.00319245
-0.00205087
-0.00232277
-0.00271771
-0.00263435
0.000280812
0.00066271
0.0102354
0.0105052
0.00592766
0.00748444
0.00850329
0.00849708
-0.00504055
-0.00485097
-0.00338244
-0.00359456
0.0142438
0.0141923
0.00385537
0.00380397
3.96499e-05
8.29425e-05
0.00109284
0.000466318
0.00747688
0.00868628
0.011233
0.0131995
2.54236e-05
0.0154027
0.00949723
0.0119949
0.00260681
0.0025646
0.00258432
0.000415965
0.00025627
0.00033333
0.000384602
0.000548533
0.00100418
0.00325045
0.00331584
0.00322942
0.00338923
-0.00211545
-0.000819217
-0.00313712
-0.00298092
-0.00326307
-0.00333343
-0.00333334
-0.00322842
0.00015583
-0.00157997
-7.72848e-05
0.00127761
0.00977987
0.00928324
-0.00313164
-0.00334823
-0.00307629
0.00934008
0.00919373
0.00948523
-0.00123126
-0.00083586
-0.000472599
0.00267305
0.00307341
0.00214887
0.00103769
-0.00614533
-0.00739462
0.00136747
0.0041112
0.00515964
0.0059525
0.00432496
0.00445795
0.00643657
0.00580654
-0.00104348
-0.00136123
-0.00166245
-0.00148506
-0.00129044
0.0056578
0.00695652
-0.00770696
0.0116946
0.0108957
0.00618969
0.00978745
0.00130005
0.00124396
0.00112085
0.00583776
0.00603016
0.006023
-0.00297556
-0.00289391
-0.00289783
-0.00236491
-0.00247463
0.0161984
0.0141911
0.0136276
0.0152629
0.00193906
0.00504796
0.00373656
0.0054047
0.005084
0.0158735
0.0161672
0.0148207
0.0062541
0.00733488
0.000289618
0.000413558
0.00018193
0.0108548
0.0113603
0.00807435
0.00772669
0.0131833
0.00703535
0.00833305
0.00939014
-0.0015794
-0.00212257
0.00770455
0.00253975
0.00259069
-0.000915311
-0.00116495
-0.000693367
-0.00222958
0.00691884
0.00604266
0.00400837
0.000364436
0.00029471
0.000139958
0.000300598
0.00786204
0.00712693
-0.00154367
-0.00167088
-0.00155821
-0.00394828
-0.00347686
0.000117586
-0.00262806
-0.000257777
0.00874439
0.00885149
0.00995143
0.00948578
0.00805941
0.00352455
0.0034473
0.00365522
0.00353742
0.00541266
0.00519
0.0055224
0.00574295
0.0056777
0.00573992
0.00594895
0.00649977
0.00619532
0.00578994
0.00611916
0.00682595
0.00757564
0.00787069
-0.000179483
-0.000174287
-0.0022018
0.000315011
0.000127507
-0.00169061
-0.00178516
0.000429342
0.000484957
0.000440558
0.000369985
0.00228972
0.00227553
0.00225402
-0.00266118
-0.00285665
-0.00249995
-0.00412661
-0.0046232
-0.0039121
-0.00451708
-0.00630534
-0.00498238
0.0163925
0.0171051
0.0168712
0.00137765
0.00152625
0.00140021
0.0107073
0.0102801
0.0103605
0.00177941
0.00175787
0.00180093
0.00173637
0.00171499
0.00169375
0.00169449
0.00167261
0.00167371
0.00171545
0.0017368
0.00175824
0.00177993
0.00180137
0.00165182
0.00165284
0.0018226
0.00182316
0.00184472
0.00163119
0.00163179
0.00184519
0.00161039
0.00158966
0.00161101
0.0015903
0.00186638
0.00186707
0.00156902
0.00156967
0.00188827
0.00188918
0.00154846
0.0015491
0.00191046
0.00191146
0.00152798
0.00152859
0.00193282
0.00193386
0.0015076
0.00150812
0.00195538
0.00195642
0.00148727
0.00148771
0.00197822
0.00197899
0.00146698
0.00146738
0.00200104
0.00200177
0.00144671
0.00144705
0.00202435
0.0020249
0.00142645
0.00142662
0.00204772
0.00204823
0.00140631
0.00140592
0.00207171
0.00207197
0.00138575
0.00138533
0.00209591
0.00209612
0.00136446
0.00136456
0.00207104
0.00209529
0.00212063
0.00212057
0.00202349
0.00204725
0.00197734
0.00200052
0.00193218
0.00195467
0.0018876
0.00190983
0.00184335
0.00186547
0.00180036
0.00182206
0.00175741
0.00177864
0.00171479
0.00173613
0.00167232
0.00169357
0.00163055
0.0016514
0.00158906
0.00160977
0.00154791
0.00156845
0.00150704
0.00152745
0.00146642
0.00148671
0.00142605
0.00144622
0.00138521
0.00140588
0.00136443
0.00134344
0.00134355
0.00140617
0.00136491
0.00138563
0.00144717
0.00142673
0.0014878
0.0014675
0.00152861
0.00150818
0.00156968
0.00154911
0.00161103
0.00159032
0.00165273
0.00163183
0.00169477
0.00167384
0.00173703
0.00171595
0.0017799
0.00175837
0.00182334
0.00180167
0.00186708
0.00184495
0.00191148
0.00188923
0.00195642
0.00193388
0.00200201
0.0019791
0.00204842
0.00202503
0.00209567
0.00207188
0.00212007
0.00211994
0.00134346
0.00134399
0.00214552
0.00214474
0.00214479
0.00214554
0.00207011
0.00211847
0.00209414
0.00202268
0.00204631
0.00197675
0.00199957
0.00193166
0.00195413
0.00188713
0.00190933
0.00184316
0.00186507
0.00179965
0.00182141
0.00175673
0.00177831
0.00171438
0.00173531
0.00167199
0.00169315
0.00163022
0.00165107
0.00158878
0.00160946
0.00154765
0.00156818
0.0015068
0.0015272
0.00146621
0.00148648
0.00142586
0.00144601
0.00138516
0.00140562
0.00132237
0.00132256
0.00134382
0.00136462
0.00136549
0.0013449
0.0013233
0.00132254
0.00140655
0.00138614
0.00144718
0.0014268
0.00148773
0.00146744
0.00152851
0.00150809
0.00156956
0.001549
0.0016109
0.00159019
0.00165257
0.00163169
0.00169461
0.00167356
0.00173707
0.00171577
0.00177976
0.00175835
0.00182308
0.00180149
0.00186688
0.00184492
0.00191121
0.00188898
0.00195611
0.00193359
0.00200161
0.00197879
0.0020478
0.00202462
0.00209483
0.00207118
0.00214326
0.00211895
0.00214305
0.00216972
0.00216818
0.00217037
0.00132324
0.00132397
0.00216956
0.00216763
0.00219493
0.0021934
0.00217068
0.00134434
0.00132386
0.00130248
0.00130309
0.00216505
0.00219305
0.00221747
0.00219167
0.00211656
0.00214071
0.00206877
0.00209253
0.00202184
0.00204519
0.00197604
0.00199876
0.00193101
0.00195346
0.00188656
0.00190872
0.00184265
0.00186454
0.00179921
0.00182087
0.00175626
0.0017777
0.00171377
0.00173495
0.00167162
0.00169265
0.00162989
0.00165071
0.00158847
0.00160914
0.00154737
0.00156789
0.00150654
0.00152692
0.00146597
0.00148623
0.00142562
0.00144577
0.00138517
0.00140539
0.00136479
0.00130177
0.00130243
0.00130197
0.00130196
0.00136595
0.00132476
0.00134545
0.00140673
0.00138638
0.00144708
0.00142683
0.00148759
0.00146731
0.00152835
0.00150794
0.00156938
0.00154883
0.0016107
0.00159
0.00165234
0.00163148
0.00169434
0.00167329
0.00173672
0.00171548
0.00177951
0.00175806
0.00182275
0.00180108
0.00186648
0.00184456
0.00191074
0.00188855
0.00195558
0.00193309
0.00200101
0.00197822
0.00204708
0.00202397
0.0020939
0.00207038
0.00214171
0.00211765
0.0021913
0.00216622
0.00221855
0.00221639
0.00219458
0.00219564
0.00130319
0.00130399
0.00221879
0.0022202
0.00224072
0.00224167
0.00224379
0.00223285
0.00227671
0.00219561
0.00220944
0.00222679
0.00216272
0.00218735
0.00211433
0.00213838
0.00206704
0.0020905
0.00202066
0.00204382
0.00197512
0.0019978
0.00193017
0.00195258
0.00188579
0.00190792
0.00184195
0.00186381
0.0017986
0.00182021
0.0017557
0.00177709
0.00171322
0.00173441
0.00167114
0.00169214
0.00162944
0.00165025
0.00158806
0.00160871
0.00154699
0.00156749
0.00150619
0.00152655
0.00146564
0.00148588
0.00142531
0.00144545
0.00138507
0.00140515
0.00134467
0.00136492
0.00130376
0.00132423
0.00128192
0.00128305
0.00128243
0.00128143
0.00128152
0.00128189
0.00128153
0.00128328
0.00128253
0.00132539
0.00128463
0.00130494
0.0013662
0.00134585
0.00140663
0.00138644
0.0014469
0.00142673
0.00148739
0.00146712
0.00152813
0.00150773
0.00156912
0.00154859
0.00161041
0.00158973
0.00165202
0.00163118
0.00169398
0.00167296
0.00173631
0.0017151
0.00177906
0.00175763
0.00182225
0.00180059
0.00186592
0.00184402
0.00191011
0.00188795
0.00195487
0.00193242
0.00200022
0.00197747
0.0020462
0.00202313
0.00209283
0.00206943
0.00214022
0.00211643
0.00218874
0.00216429
0.00223872
0.00221353
0.00226702
0.00226396
0.00221972
0.0022208
0.00224356
0.00224508
0.00130417
0.00128371
0.00126281
0.00126354
0.00226978
0.00226917
0.00229555
0.00224602
0.00229223
0.00228951
0.00227546
0.00222045
0.00220602
0.00222668
0.00216026
0.00218387
0.00211216
0.00213611
0.00206546
0.00208871
0.00201941
0.00204237
0.001974
0.00199663
0.00192915
0.00195151
0.00188487
0.00190695
0.0018411
0.00186292
0.00179783
0.00181941
0.001755
0.00177636
0.00171259
0.00173374
0.00167056
0.00169153
0.0016289
0.00164969
0.00158756
0.00160819
0.00154653
0.00156701
0.00150576
0.00152611
0.00146525
0.00148548
0.00142496
0.00144508
0.00138485
0.00140488
0.00134473
0.00136476
0.00132444
0.00126157
0.00126246
0.00126191
0.0012613
0.00126149
0.00126171
0.00126149
0.00126211
0.00132584
0.00128498
0.00130564
0.00136623
0.00134608
0.00140642
0.00138636
0.00144667
0.00142652
0.00148713
0.00146687
0.00152783
0.00150745
0.00156879
0.00154828
0.00161004
0.00158938
0.00165161
0.00163078
0.00169352
0.00167252
0.00173579
0.00171461
0.00177848
0.00175709
0.00182161
0.00179999
0.00186521
0.00184335
0.00190932
0.0018872
0.00195398
0.00193158
0.00199922
0.00197652
0.00204507
0.00202207
0.00209157
0.00206824
0.00213873
0.00211507
0.00218662
0.00216261
0.00223554
0.00221068
0.00228634
0.00226097
0.00231504
0.0023119
0.00224493
0.00224566
0.00126294
0.00126439
0.00226994
0.00227919
0.00229156
0.00227018
0.00229414
0.00229881
0.00232257
0.0023159
0.00231763
0.00234053
0.00233797
0.00224547
0.00225121
0.00230339
0.00227898
0.0022042
0.00222658
0.00215777
0.00218168
0.00211039
0.00213395
0.00206388
0.00208706
0.00201798
0.00204085
0.00197268
0.00199526
0.00192797
0.00195026
0.00188379
0.00190581
0.00184012
0.00186189
0.00179693
0.00181847
0.00175418
0.0017755
0.00171184
0.00173296
0.00166988
0.00169081
0.00162827
0.00164903
0.00158698
0.00160759
0.001546
0.00156646
0.00150528
0.0015256
0.0014648
0.00148501
0.00142455
0.00144465
0.0013845
0.0014045
0.00134453
0.00136452
0.00130425
0.00132445
0.00126329
0.00128397
0.00124198
0.00124257
0.00124216
0.00124163
0.00124173
0.00124162
0.00124156
0.00124179
0.0012417
0.00124248
0.00124207
0.00124395
0.00124312
0.00128548
0.00124476
0.00126514
0.00132601
0.00130587
0.00136614
0.00134609
0.00140616
0.00138614
0.00144638
0.00142624
0.0014868
0.00146656
0.00152746
0.0015071
0.00156838
0.00154789
0.00160958
0.00158895
0.0016511
0.0016303
0.00169295
0.00167198
0.00173517
0.00171401
0.00177778
0.00175642
0.00182083
0.00179925
0.00186434
0.00184253
0.00190835
0.00188628
0.0019529
0.00193056
0.00199801
0.00197538
0.00204372
0.00202079
0.00209005
0.00206681
0.00213703
0.00211346
0.00218464
0.00216078
0.00223292
0.00220868
0.00228196
0.0022574
0.00233281
0.00230688
0.00236362
0.00235901
0.00227017
0.00232589
0.00229469
0.00126371
0.00124339
0.00122348
0.00122412
0.00227061
0.00229517
0.00231834
0.00231935
0.00234298
0.00236656
0.00238912
0.00238483
0.00227048
0.00230132
0.00234956
0.00234768
0.0023248
0.0022506
0.00227684
0.00220224
0.00222559
0.00215544
0.00217922
0.00210839
0.0021318
0.00206205
0.00208515
0.00201632
0.00203912
0.00197119
0.00199368
0.00192661
0.00194883
0.00188255
0.00190452
0.001839
0.00186072
0.0017959
0.0018174
0.00175324
0.00177452
0.00171098
0.00173207
0.0016691
0.00169
0.00162755
0.00164828
0.00158633
0.0016069
0.00154539
0.00156583
0.00150472
0.00152503
0.00146429
0.00148448
0.00142408
0.00144416
0.00138407
0.00140405
0.00134423
0.00136414
0.00130422
0.00132424
0.001284
0.00122176
0.00122206
0.0012219
0.0012218
0.00122181
0.001222
0.00122189
0.00122211
0.00122207
0.00122242
0.00122226
0.00122287
0.00128593
0.00124533
0.00126568
0.00132594
0.00130597
0.00136588
0.00134594
0.00140586
0.00138584
0.00144603
0.00142592
0.00148641
0.00146619
0.00152702
0.00150669
0.00156789
0.00154743
0.00160904
0.00158843
0.00165049
0.00162973
0.00169228
0.00167134
0.00173442
0.00171331
0.00177696
0.00175564
0.00181992
0.00179838
0.00186333
0.00184156
0.00190722
0.00188521
0.00195164
0.00192937
0.0019966
0.00197405
0.00204214
0.0020193
0.00208828
0.00206514
0.00213504
0.00211159
0.00218242
0.00215866
0.00223038
0.00220635
0.00227885
0.00225455
0.0023285
0.00230338
0.00237938
0.00235361
0.00234214
0.00234645
0.0024105
0.00240515
0.002295
0.00122323
0.00122474
0.00237047
0.00229562
0.00237491
0.00231993
0.00232043
0.00234492
0.00234489
0.00236875
0.00239185
0.00241445
0.00243603
0.00243103
0.0022955
0.00234371
0.00239538
0.00239308
0.00236741
0.00229703
0.00232119
0.00224813
0.00227249
0.0021997
0.00222354
0.00215284
0.0021764
0.00210609
0.00212938
0.00205999
0.00208297
0.00201446
0.00203715
0.0019695
0.00199192
0.00192508
0.00194723
0.00188117
0.00190307
0.00183774
0.0018594
0.00179476
0.00181619
0.0017522
0.00177343
0.00171003
0.00173107
0.00166822
0.00168908
0.00162675
0.00164745
0.00158559
0.00160614
0.00154472
0.00156512
0.0015041
0.00152438
0.00146373
0.00148389
0.00142356
0.00144362
0.0013836
0.00140356
0.00134381
0.00136368
0.00130406
0.00132396
0.00126399
0.00128403
0.00122351
0.00124392
0.00120219
0.00120298
0.00120251
0.001202
0.001202
0.00120217
0.00120205
0.0012024
0.00120229
0.00120249
0.00120246
0.00120264
0.00120251
0.00120314
0.00120281
0.00120431
0.00120356
0.00124574
0.00120504
0.00122546
0.00128601
0.00126592
0.00132578
0.00130595
0.00136556
0.00134566
0.0014055
0.00138551
0.00144563
0.00142554
0.00148596
0.00146577
0.00152652
0.00150621
0.00156733
0.00154689
0.00160842
0.00158784
0.0016498
0.00162907
0.00169151
0.00167061
0.00173357
0.0017125
0.00177602
0.00175475
0.00181887
0.00179739
0.00186217
0.00184046
0.00190593
0.00188399
0.0019502
0.00192801
0.001995
0.00197254
0.00204035
0.00201761
0.00208627
0.00206324
0.00213278
0.00210946
0.00217987
0.00215626
0.00222752
0.00220364
0.00227564
0.00225153
0.00232421
0.00229992
0.00237348
0.00234857
0.00242419
0.00239893
0.00236651
0.00237462
0.0024558
0.00244884
0.00232041
0.00232093
0.00241658
0.00241984
0.00239955
0.00234495
0.00234595
0.00122381
0.00120367
0.001184
0.00118467
0.00237169
0.00237044
0.00239425
0.00241719
0.0024396
0.00246062
0.00243981
0.00243659
0.00245889
0.00248074
0.0024752
0.00246478
0.00232088
0.00239058
0.00241275
0.00233966
0.00236436
0.00229257
0.00231674
0.00224428
0.00226817
0.00219682
0.0022205
0.00214995
0.00217334
0.00210355
0.00212668
0.00205771
0.00208056
0.00201241
0.00203499
0.00196765
0.00198996
0.0019234
0.00194546
0.00187964
0.00190146
0.00183635
0.00185794
0.00179349
0.00181487
0.00175104
0.00177221
0.00170897
0.00172996
0.00166725
0.00168807
0.00162587
0.00164652
0.00158478
0.00160529
0.00154398
0.00156435
0.00150342
0.00152367
0.00146311
0.00148324
0.001423
0.00144303
0.00138308
0.00140302
0.00134334
0.00136319
0.00130375
0.00132353
0.001264
0.00128389
0.00124399
0.00118215
0.0011827
0.00118231
0.00118231
0.00118224
0.0011826
0.00118245
0.00118281
0.00118272
0.00118291
0.00118288
0.00118294
0.00118292
0.00118324
0.00118306
0.00118354
0.00124602
0.00120571
0.00122592
0.00128589
0.00126595
0.00132548
0.00130568
0.0013652
0.00134532
0.00140509
0.00138513
0.00144517
0.00142511
0.00148545
0.00146528
0.00152595
0.00150567
0.00156669
0.00154629
0.00160771
0.00158717
0.00164902
0.00162833
0.00169064
0.00166979
0.00173261
0.00171159
0.00177496
0.00175374
0.0018177
0.00179628
0.00186087
0.00183923
0.00190449
0.00188262
0.0019486
0.00192648
0.00199321
0.00197084
0.00203835
0.00201572
0.00208404
0.00206113
0.00213027
0.00210709
0.00217704
0.00215359
0.00222432
0.00220062
0.00227204
0.00224814
0.00232007
0.00229605
0.00236828
0.00234418
0.00241646
0.00239245
0.00246685
0.00244059
0.00244405
0.00249877
0.00250596
0.00252281
0.00251587
0.0024898
0.00239075
0.00240428
0.00234601
0.00234649
0.00118343
0.00118521
0.00242668
0.00237103
0.00237161
0.00239779
0.00239614
0.0024199
0.00244282
0.00246442
0.0024847
0.00248186
0.00247504
0.00249731
0.00250581
0.0025305
0.00254057
0.00250494
0.00248862
0.00247065
0.00252815
0.00254581
0.0023465
0.00243151
0.002452
0.00238385
0.0024068
0.00233503
0.00235968
0.00228765
0.00231129
0.00224037
0.00226401
0.00219338
0.00221683
0.00214685
0.00217006
0.00210078
0.00212376
0.00205522
0.00207794
0.00201017
0.00203263
0.00196562
0.00198784
0.00192156
0.00194353
0.00187797
0.00189971
0.00183483
0.00185635
0.0017921
0.00181341
0.00174977
0.00177089
0.00170781
0.00172875
0.00166619
0.00168696
0.0016249
0.00164551
0.0015839
0.00160436
0.00154316
0.0015635
0.00150268
0.00152289
0.00146243
0.00148253
0.00142238
0.00144238
0.00138252
0.00140243
0.00134283
0.00136265
0.0013033
0.00132304
0.00126379
0.00128357
0.00122409
0.00124395
0.00118387
0.001204
0.00116273
0.0011636
0.00116312
0.00116246
0.00116243
0.00116273
0.00116256
0.00116305
0.0011629
0.00116326
0.00116316
0.00116336
0.00116332
0.00116337
0.00116337
0.00116345
0.00116343
0.00116389
0.0011636
0.00116478
0.0011643
0.00120593
0.00116538
0.00118579
0.00124605
0.00122607
0.0012856
0.00126587
0.00132512
0.00130534
0.0013648
0.00134494
0.00140464
0.0013847
0.00144466
0.00142463
0.00148487
0.00146474
0.00152531
0.00150506
0.00156599
0.00154562
0.00160692
0.00158642
0.00164815
0.0016275
0.00168968
0.00166888
0.00173155
0.00171057
0.00177378
0.00175262
0.0018164
0.00179504
0.00185943
0.00183786
0.0019029
0.00188111
0.00194683
0.00192481
0.00199125
0.00196898
0.00203616
0.00201364
0.00208159
0.00205881
0.00212752
0.0021045
0.00217395
0.00215068
0.00222084
0.00219734
0.00226811
0.00224443
0.00231565
0.00229186
0.00236328
0.00233949
0.00241063
0.00238701
0.00245766
0.00243436
0.00248009
0.00241362
0.00243123
0.00256309
0.00255343
0.00237182
0.00237226
0.00245008
0.00239687
0.00239743
0.00118406
0.00116399
0.00114448
0.00114493
0.00242371
0.00242196
0.00244566
0.00246833
0.00248984
0.00251017
0.00251948
0.00251206
0.00253585
0.00254254
0.00253005
0.0025116
0.00249497
0.00255239
0.00256728
0.00257502
0.00258448
0.00237235
0.00246971
0.00248763
0.00242416
0.00244758
0.00237652
0.00240046
0.00232981
0.00235327
0.00228296
0.00230634
0.00223621
0.00225959
0.00218967
0.0022129
0.00214353
0.00216656
0.00209781
0.00212062
0.00205254
0.00207512
0.00200775
0.00203009
0.00196343
0.00198554
0.00191958
0.00194145
0.00187617
0.00189782
0.00183318
0.00185462
0.0017906
0.00181184
0.0017484
0.00176946
0.00170656
0.00172744
0.00166505
0.00168576
0.00162385
0.00164441
0.00158294
0.00160336
0.00154229
0.00156258
0.00150188
0.00152205
0.00146169
0.00148176
0.00142171
0.00144168
0.00138191
0.00140179
0.00134228
0.00136207
0.00130279
0.00132252
0.00126344
0.00128311
0.001224
0.00124369
0.00120412
0.00114278
0.00114334
0.00114304
0.00114285
0.0011428
0.00114322
0.00114303
0.00114352
0.00114339
0.00114372
0.00114363
0.00114383
0.00114379
0.00114384
0.00114385
0.00114379
0.00114382
0.00114391
0.00114384
0.00114409
0.00120609
0.00116589
0.00118614
0.00124589
0.001226
0.00128525
0.00126557
0.00132473
0.00130498
0.00136435
0.00134453
0.00140414
0.00138422
0.00144409
0.00142409
0.00148424
0.00146414
0.00152461
0.0015044
0.00156521
0.00154488
0.00160606
0.0015856
0.00164719
0.00162659
0.00168863
0.00166787
0.00173039
0.00170947
0.00177249
0.0017514
0.00181498
0.00179369
0.00185786
0.00183637
0.00190116
0.00187946
0.0019449
0.00192298
0.0019891
0.00196695
0.00203378
0.00201139
0.00207893
0.0020563
0.00212455
0.00210169
0.00217062
0.00214754
0.00221709
0.00219381
0.00226388
0.00224045
0.00231087
0.00228736
0.0023579
0.0023344
0.00240466
0.00238134
0.00245067
0.00242787
0.00249558
0.00247327
0.00254204
0.00251914
0.00259545
0.00258493
0.00256174
0.00243785
0.00245586
0.00239761
0.00239814
0.0011437
0.00114559
0.00247671
0.00242283
0.00242335
0.00244969
0.00244785
0.00247144
0.00249391
0.00251501
0.00253453
0.00255627
0.00254727
0.00256559
0.00257165
0.00259015
0.00260535
0.00257592
0.0025671
0.00255139
0.00253711
0.00251817
0.0025756
0.00259057
0.00260454
0.00261465
0.00239824
0.00250715
0.00252831
0.00246181
0.00248168
0.00241596
0.00243994
0.00237031
0.00239319
0.00232429
0.00234737
0.00227804
0.00230117
0.0022318
0.00225492
0.00218574
0.00220874
0.00214
0.00216283
0.00209464
0.00211727
0.00204968
0.00207211
0.00200517
0.00202737
0.00196109
0.00198307
0.00191745
0.00193922
0.00187423
0.00189579
0.00183141
0.00185277
0.00178899
0.00181016
0.00174693
0.00176791
0.00170521
0.00172603
0.00166382
0.00168448
0.00162272
0.00164323
0.0015819
0.00160228
0.00154134
0.00156159
0.00150102
0.00152115
0.00146091
0.00148094
0.00142099
0.00144093
0.00138126
0.0014011
0.00134168
0.00136145
0.00130226
0.00132195
0.00126296
0.00128259
0.00122377
0.00124335
0.0011841
0.00120394
0.00114385
0.00116418
0.00112323
0.00112358
0.00112328
0.00112312
0.00112311
0.00112334
0.00112316
0.00112373
0.00112355
0.00112401
0.00112388
0.00112421
0.00112412
0.00112432
0.00112428
0.00112435
0.00112435
0.00112429
0.00112433
0.00112421
0.00112423
0.00112455
0.00112433
0.00112552
0.00112494
0.00116624
0.0011262
0.00114633
0.00120611
0.00118627
0.00124558
0.00122586
0.00128488
0.00126521
0.0013243
0.00130457
0.00136387
0.00134407
0.00140358
0.00138371
0.00144347
0.00142351
0.00148355
0.00146349
0.00152384
0.00150367
0.00156436
0.00154407
0.00160512
0.00158471
0.00164615
0.0016256
0.00168748
0.00166678
0.00172912
0.00170826
0.0017711
0.00175007
0.00181344
0.00179222
0.00185616
0.00183475
0.00189928
0.00187767
0.00194282
0.001921
0.0019868
0.00196476
0.00203122
0.00200896
0.00207608
0.0020536
0.00212137
0.00209868
0.00216706
0.00214417
0.00221309
0.00219004
0.00225938
0.00223622
0.0023058
0.00228259
0.00235217
0.00232901
0.0023982
0.00237525
0.00244351
0.002421
0.00248756
0.00246575
0.00252977
0.00250909
0.00254912
0.00246262
0.00248217
0.0026235
0.00261227
0.0024235
0.00242412
0.00250166
0.00244884
0.00244936
0.0011442
0.00112422
0.00110541
0.00110589
0.0024757
0.00247379
0.0024972
0.00251936
0.00254001
0.00255892
0.00258295
0.00257071
0.00258663
0.00260104
0.00259565
0.00258742
0.00257601
0.00255914
0.00254341
0.00259871
0.00261223
0.00262342
0.00263301
0.00262595
0.00263609
0.00242421
0.0025375
0.00255353
0.00249608
0.00251821
0.00245235
0.00247444
0.00240861
0.00243073
0.00236389
0.00238634
0.0023185
0.00234126
0.00227285
0.00229569
0.00222716
0.00225001
0.00218159
0.00220435
0.00213627
0.0021589
0.00209128
0.00211373
0.00204665
0.00206892
0.00200242
0.00202448
0.0019586
0.00198046
0.00191518
0.00193684
0.00187216
0.00189362
0.00182953
0.0018508
0.00178727
0.00180836
0.00174536
0.00176627
0.00170377
0.00172453
0.0016625
0.0016831
0.00162152
0.00164198
0.0015808
0.00160113
0.00154034
0.00156054
0.0015001
0.00152019
0.00146007
0.00148006
0.00142023
0.00144013
0.00138056
0.00140038
0.00134105
0.00136079
0.00130169
0.00132136
0.00126245
0.00128205
0.00122333
0.00124288
0.00118399
0.00120368
0.00116412
0.00110329
0.0011035
0.00110333
0.00110351
0.00110342
0.0011039
0.00110369
0.00110426
0.00110409
0.00110453
0.0011044
0.00110472
0.00110464
0.00110484
0.00110479
0.00110487
0.00110486
0.00110483
0.00110486
0.00110472
0.00110478
0.00110476
0.00110474
0.00110495
0.00116648
0.00112663
0.00114676
0.00120597
0.00118628
0.00124522
0.00122563
0.00128447
0.00126483
0.00132384
0.00130414
0.00136334
0.00134357
0.00140299
0.00138314
0.00144281
0.00142288
0.00148281
0.00146279
0.00152301
0.00150289
0.00156344
0.0015432
0.00160411
0.00158374
0.00164504
0.00162454
0.00168625
0.00166561
0.00172776
0.00170697
0.0017696
0.00174864
0.00181179
0.00179065
0.00185434
0.00183302
0.00189727
0.00187576
0.0019406
0.00191889
0.00198434
0.00196242
0.00202849
0.00200637
0.00207305
0.00205072
0.00211799
0.00209548
0.00216329
0.0021406
0.00220887
0.00218605
0.00225465
0.00223175
0.00230048
0.00227758
0.00234617
0.00232337
0.00239144
0.00236889
0.00243592
0.00241382
0.00247916
0.00245774
0.00252026
0.00250007
0.00255859
0.00253989
0.00259695
0.00257667
0.00264154
0.0026269
0.00261053
0.00248744
0.00250772
0.00244951
0.0024502
0.0011042
0.00110651
0.00252642
0.00247488
0.00247542
0.0025017
0.00249974
0.00252291
0.00254466
0.00256475
0.0025829
0.00260349
0.00259178
0.00260354
0.00261303
0.00262401
0.00263892
0.00261873
0.00261893
0.00261396
0.00260778
0.00259693
0.00258401
0.00256728
0.00262105
0.00263304
0.00264203
0.00264908
0.00265136
0.00265279
0.00245028
0.00256448
0.00257988
0.00252661
0.00254115
0.00248518
0.00250775
0.00244391
0.00246471
0.00240115
0.00242272
0.00235716
0.00237927
0.00231248
0.00233489
0.00226746
0.00229
0.00222232
0.0022449
0.00217725
0.00219977
0.00213236
0.00215478
0.00208774
0.00211002
0.00204345
0.00206556
0.00199952
0.00202144
0.00195596
0.0019777
0.00191278
0.00193433
0.00186998
0.00189134
0.00182754
0.00184871
0.00178545
0.00180645
0.00174369
0.00176453
0.00170225
0.00172293
0.00166111
0.00168164
0.00162024
0.00164064
0.00157964
0.00159991
0.00153927
0.00155942
0.00149912
0.00151917
0.00145918
0.00147913
0.00141942
0.00143928
0.00137983
0.0013996
0.00134039
0.00136009
0.00130109
0.00132072
0.00126191
0.00128148
0.00122284
0.00124236
0.00118376
0.00120333
0.00114439
0.00116406
0.00110447
0.00112458
0.00108377
0.0010842
0.00108393
0.00108375
0.00108367
0.00108407
0.00108388
0.00108447
0.00108428
0.00108481
0.00108465
0.00108506
0.00108494
0.00108525
0.00108517
0.00108537
0.00108532
0.00108541
0.0010854
0.00108539
0.00108541
0.00108528
0.00108535
0.00108516
0.00108521
0.0010855
0.00108526
0.00108658
0.00108594
0.00112698
0.00108719
0.00110713
0.00116654
0.00114689
0.00120575
0.00118612
0.00124484
0.00122529
0.00128403
0.00126442
0.00132333
0.00130367
0.00136277
0.00134304
0.00140235
0.00138254
0.00144209
0.0014222
0.00148201
0.00146203
0.00152213
0.00150204
0.00156246
0.00154227
0.00160302
0.00158271
0.00164384
0.0016234
0.00168493
0.00166435
0.00172631
0.00170558
0.001768
0.00174712
0.00181002
0.00178897
0.0018524
0.00183117
0.00189513
0.00187372
0.00193824
0.00191664
0.00198173
0.00195994
0.0020256
0.00200362
0.00206984
0.00204768
0.00211443
0.0020921
0.00215932
0.00213684
0.00220445
0.00218186
0.0022497
0.00222707
0.00229494
0.00227234
0.00233996
0.0023175
0.00238447
0.0023623
0.0024281
0.00240643
0.0024704
0.00244945
0.00251065
0.00249084
0.00254793
0.0025298
0.0025815
0.00256538
0.00259603
0.00251228
0.00253309
0.00265159
0.00263843
0.00247558
0.00247633
0.00255129
0.00250094
0.00250151
0.0011047
0.00108487
0.00106659
0.0010672
0.00252767
0.00252565
0.00254849
0.00256975
0.00258914
0.00260638
0.00261669
0.0026036
0.00261028
0.00262383
0.00263495
0.00263374
0.00263297
0.00262414
0.00261753
0.00260537
0.00259083
0.0026426
0.0026529
0.00266026
0.00266308
0.00266532
0.00266298
0.00264459
0.00265774
0.00247642
0.00258103
0.00258692
0.00255237
0.00256944
0.00251468
0.00253113
0.00247563
0.00249628
0.00243543
0.00245569
0.00239345
0.00241465
0.00235023
0.00237196
0.00230627
0.00232833
0.00226187
0.00228411
0.0022173
0.0022396
0.00217272
0.002195
0.00212828
0.00215048
0.00208405
0.00210613
0.0020401
0.00206204
0.00199648
0.00201825
0.0019532
0.0019748
0.00191026
0.00193169
0.00186768
0.00188893
0.00182544
0.00184652
0.00178353
0.00180444
0.00174193
0.00176269
0.00170064
0.00172125
0.00165963
0.0016801
0.00161889
0.00163923
0.0015784
0.00159862
0.00153814
0.00155824
0.00149809
0.00151809
0.00145824
0.00147814
0.00141856
0.00143838
0.00137905
0.00139879
0.00133968
0.00135935
0.00130045
0.00132005
0.00126134
0.00128088
0.00122233
0.00124182
0.00118341
0.00120286
0.00114429
0.00116381
0.00112457
0.00106401
0.00106426
0.00106407
0.00106428
0.00106415
0.00106468
0.00106447
0.00106506
0.00106488
0.00106537
0.00106522
0.00106562
0.0010655
0.0010658
0.00106572
0.00106592
0.00106587
0.00106597
0.00106595
0.00106596
0.00106597
0.00106588
0.00106593
0.00106575
0.00106582
0.00106581
0.00106577
0.00106609
0.00112726
0.00108775
0.00110753
0.00116644
0.00114684
0.00120541
0.00118592
0.00124443
0.00122491
0.00128356
0.00126399
0.0013228
0.00130317
0.00136216
0.00134246
0.00140166
0.0013819
0.00144133
0.00142148
0.00148116
0.00146122
0.00152118
0.00150115
0.00156141
0.00154127
0.00160187
0.00158161
0.00164257
0.00162219
0.00168353
0.00166301
0.00172477
0.00170411
0.0017663
0.0017455
0.00180816
0.00178719
0.00185034
0.00182921
0.00189287
0.00187156
0.00193575
0.00191427
0.00197898
0.00195732
0.00202256
0.00200073
0.00206648
0.00204448
0.0021107
0.00208856
0.00215518
0.00213292
0.00219984
0.0021775
0.00224457
0.0022222
0.00228921
0.00226691
0.00233355
0.00231144
0.00237731
0.00235553
0.00242011
0.00239887
0.00246146
0.00244101
0.00250073
0.00248142
0.00253715
0.00251937
0.00256958
0.00255403
0.00259699
0.00258405
0.00262267
0.00260821
0.00264866
0.00263509
0.00262972
0.00253701
0.00255806
0.00250169
0.00250249
0.00106488
0.0010676
0.00257579
0.00252696
0.00252756
0.00255356
0.00255145
0.00257388
0.00259452
0.00261308
0.00262922
0.00261491
0.00260572
0.00261102
0.00263185
0.00263777
0.002644
0.00265035
0.00264679
0.00264403
0.00263588
0.00262603
0.00261304
0.00266316
0.00267168
0.00267671
0.0026785
0.00267631
0.00267013
0.00266105
0.0026193
0.002642
0.00262471
0.00250258
0.00259389
0.00259388
0.00256692
0.00257843
0.0025385
0.00255416
0.00250279
0.00252101
0.00246611
0.00248489
0.00242677
0.00244669
0.0023856
0.00240638
0.00234316
0.00236451
0.00229989
0.00232161
0.00225613
0.00227806
0.00221212
0.00223414
0.00216804
0.00219008
0.00212404
0.00214602
0.00208021
0.0021021
0.00203662
0.00205838
0.00199331
0.00201493
0.00195031
0.00197177
0.00190763
0.00192893
0.00186527
0.00188641
0.00182323
0.00184421
0.00178151
0.00180233
0.00174009
0.00176076
0.00169895
0.00171949
0.00165809
0.00167849
0.00161748
0.00163775
0.0015771
0.00159726
0.00153695
0.001557
0.00149701
0.00151696
0.00145725
0.00147711
0.00141766
0.00143744
0.00137823
0.00139793
0.00133895
0.00135857
0.00129979
0.00131935
0.00126074
0.00128025
0.00122179
0.00124125
0.00118294
0.00120235
0.00114402
0.00116346
0.00110492
0.00112453
0.00106509
0.00108513
0.00104461
0.0010449
0.00104473
0.00104457
0.0010445
0.0010449
0.0010447
0.00104531
0.00104511
0.00104566
0.00104549
0.00104595
0.00104581
0.00104618
0.00104607
0.00104636
0.00104628
0.00104648
0.00104643
0.00104654
0.00104652
0.00104654
0.00104655
0.00104649
0.00104652
0.00104637
0.00104644
0.00104633
0.00104631
0.00104669
0.00104641
0.00104766
0.00104705
0.00108791
0.00104818
0.00106808
0.00112724
0.00110764
0.00116616
0.00114673
0.00120504