/*--------------------------------*- C++ -*----------------------------------*\
  =========                 |
  \\      /  F ield         | OpenFOAM: The Open Source CFD Toolbox
   \\    /   O peration     | Website:  https://openfoam.org
    \\  /    A nd           | Version:  10
     \\/     M anipulation  |
\*---------------------------------------------------------------------------*/
FoamFile
{
    format      ascii;
    class       volVectorField;
    location    "28";
    object      U;
}
// * * * * * * * * * * * * * * * * * * * * * * * * * * * * * * * * * * * * * //

dimensions      [0 1 -1 0 0 0 0];

internalField   nonuniform List<vector> 
28942
(
(0.0045831 -0.00233316 -3.20096e-22)
(0.00620323 -0.00242738 -5.82543e-23)
(0.0181036 -0.0124942 -8.94701e-22)
(0.103304 0.0182423 -5.4786e-21)
(0.102341 0.0222837 1.79177e-21)
(0.020688 0.00072312 0)
(0.0246363 0.000312745 1.79562e-23)
(0.0283931 0.000930702 -1.59944e-23)
(0.135166 -0.0169478 -2.90837e-22)
(0.133739 -0.0153185 8.2505e-22)
(0.0103661 0.00434869 -6.03089e-22)
(0.0168662 0.00605156 2.20873e-22)
(0.00752485 0.00337257 0)
(0.00500381 0.00223168 0)
(0.0613803 0.00243796 -2.32516e-23)
(0.0592 0.0032802 -8.2235e-24)
(0.0893794 0.0158623 6.91261e-22)
(0.0870651 0.0138452 1.1113e-21)
(0.0122077 -0.0151586 3.08181e-21)
(0.0294425 -0.0305575 -8.11755e-22)
(0.0983163 0.0372412 9.91749e-22)
(0.0974669 0.0342897 0)
(0.0193136 0.00489883 1.12086e-21)
(0.00813836 0.00249161 5.22116e-22)
(0.0386111 0.00755605 8.92943e-22)
(0.0585688 0.00322517 -8.14038e-22)
(0.0076662 -0.0184969 8.73402e-21)
(0.00670845 -0.016559 -3.21202e-21)
(0.0357314 -0.0254429 6.20683e-22)
(0.0194147 -0.0137505 2.15376e-22)
(0.0211701 -0.00200196 0)
(0.0264713 -0.00186042 -2.00799e-23)
(0.0332905 0.00559152 4.19148e-22)
(0.047113 0.00225041 -7.46472e-23)
(0.0189121 0.0180806 1.37122e-21)
(0.0157872 0.0191922 -1.38281e-21)
(0.0323038 0.0377506 -3.1531e-21)
(0.0187406 0.0306485 -1.0943e-21)
(0.0115132 0.000139423 -1.49088e-23)
(0.00868383 0.0162585 -2.68854e-21)
(0.0306462 -0.00620345 0)
(0.0513386 -0.0109702 0)
(0.109773 -0.0180341 -4.06255e-23)
(0.109376 -0.0176168 1.21098e-22)
(0.111792 -0.0177527 1.04173e-22)
(0.0396168 0.000445371 1.80197e-23)
(0.0369381 -0.000530618 -2.96182e-23)
(0.0518734 -0.000517195 -1.26929e-22)
(0.0498241 -0.000577135 3.58218e-23)
(0.0409361 -0.00341811 -3.09232e-22)
(0.0309596 -0.00428157 1.98252e-22)
(0.127262 0.00249552 -4.69869e-22)
(0.12671 0.00202316 -4.32992e-22)
(0.134572 -0.0198287 -3.89322e-24)
(0.132944 -0.0181099 1.56123e-22)
(0.0845165 0.00732565 6.70626e-22)
(0.103896 0.000279927 2.18116e-22)
(0.00323434 0.00172448 -5.2759e-22)
(0.00936435 0.00390146 0)
(0.00861012 0.0034692 2.25095e-22)
(0.00303935 0.00157857 4.5444e-22)
(0.000398768 0.000249528 -3.79484e-22)
(0.000220968 0.000140059 -3.60875e-22)
(0.110818 -0.0425508 0)
(0.106191 -0.02542 1.08622e-22)
(0.123016 -0.0326767 -3.33107e-23)
(0.124409 -0.0434205 0)
(0.0902384 -0.0326637 -6.61546e-22)
(0.0937545 -0.0351059 -4.35546e-22)
(0.00195358 -0.00116545 1.0568e-21)
(0.00258278 -0.00208113 -3.33363e-22)
(0.00504366 -0.00325644 8.27243e-22)
(0.0850797 -0.0456431 0)
(0.0913804 -0.0394707 2.24952e-21)
(0.0807836 -0.05295 6.0895e-22)
(0.115857 0.0116934 1.96047e-22)
(0.11467 0.00598902 -2.19137e-22)
(0.126894 0.00987353 -7.04169e-23)
(0.00472704 -0.00288772 -5.77282e-23)
(0.00639815 -0.00446548 5.01797e-22)
(0.0514703 -0.0313346 1.45529e-22)
(0.033491 -0.0207111 -2.70284e-22)
(0.00218381 -0.000632519 3.12974e-21)
(0.0052999 -0.00215063 -1.22079e-21)
(0.101843 0.0483015 2.58858e-23)
(0.0977265 0.0552985 -8.16369e-22)
(0.0812557 0.0541731 7.49079e-22)
(0.0475204 0.0346784 -2.84542e-21)
(0.0447473 0.0317782 2.01577e-21)
(0.0296901 0.0207132 -1.22464e-22)
(0.032922 0.0233737 -6.75004e-22)
(0.0381887 0.0284975 9.17196e-22)
(0.00476187 0.00308163 -4.71726e-23)
(0.00834338 0.00445207 -1.42108e-23)
(0.00343398 0.00221606 2.84768e-23)
(0.00208069 0.00182443 -3.73994e-22)
(0.00157903 0.00176662 4.53983e-22)
(0.0158349 0.0116047 -3.43411e-21)
(0.0175922 0.0137014 7.89738e-22)
(0.00901033 -0.00395814 0)
(0.101389 0.00516084 0)
(0.0983999 0.0156859 -4.08821e-21)
(0.0604349 0.0104758 2.04882e-21)
(0.0886732 0.0178828 0)
(0.136345 -0.00433573 0)
(0.135766 -0.00519209 0)
(0.134407 -0.00563493 -3.94588e-22)
(0.115086 0.0260992 -2.25963e-22)
(0.114195 0.02754 2.22726e-21)
(0.113368 0.02501 1.19506e-21)
(0.00244627 0.00139239 9.74131e-22)
(0.0016291 0.000842462 -1.09336e-21)
(0.019674 -0.00577967 -5.08725e-22)
(0.0209032 -0.00536232 4.26295e-22)
(0.00946529 -0.00306332 8.36545e-22)
(0.00649457 0.0112009 1.51282e-21)
(0.0190166 0.0182388 3.54216e-21)
(0.0135089 0.0228899 2.73148e-22)
(0.00493661 0.0143632 -8.83028e-21)
(0.117917 0.0475943 6.16293e-23)
(0.108489 0.0581507 1.15119e-21)
(0.119041 0.0546684 -1.98617e-21)
(0.0392982 -0.0295344 7.69962e-22)
(0.0241332 -0.0173409 -5.00157e-22)
(0.00532856 -0.000715987 -4.1989e-21)
(0.00454443 -0.00357276 0)
(0.0125175 -0.0016355 2.05475e-21)
(0.0220667 -0.0161956 8.13597e-22)
(0.034414 -0.0278829 -2.05644e-21)
(0.0492553 5.89427e-05 9.0823e-23)
(0.052174 0.000226426 -6.26021e-23)
(0.0464119 0.000279645 -2.78838e-24)
(0.0281571 -0.0420413 0)
(0.029704 -0.0429029 0)
(0.0896123 -0.0186571 -4.89955e-22)
(0.0995795 -0.0220964 3.31474e-21)
(0.0870302 -0.02528 0)
(0.0473318 -0.0403005 0)
(0.0584277 -0.0514746 -8.20955e-22)
(0.0415031 0.0394783 2.15491e-21)
(1.02408e-05 0.000233747 4.46428e-22)
(-0.0001947 0.000141327 -2.85286e-22)
(0.0224176 -0.0193076 -8.28744e-22)
(0.114241 -0.017601 5.94666e-22)
(0.113666 -0.0173141 -1.12587e-22)
(0.117527 -0.00442772 -5.36555e-23)
(0.110689 0.00248548 7.1504e-23)
(0.119852 0.00137367 1.10028e-22)
(0.000101239 0.000276516 1.76472e-22)
(0.0440012 0.0345683 3.35079e-21)
(0.0622583 0.0464804 -8.26822e-22)
(0.0597516 0.0395583 -3.26626e-24)
(0.0327186 -0.00117631 8.03455e-24)
(0.0322538 -0.00123421 4.39506e-23)
(0.0348964 -0.00114243 2.25687e-24)
(0.0388345 -0.000959177 -2.17307e-23)
(0.04566 0.0382359 1.35e-22)
(0.0190576 0.0161278 0)
(0.000125843 1.19476e-05 3.10048e-22)
(0.000419347 -0.000241216 -3.44148e-22)
(0.00194001 -0.00102912 2.33724e-22)
(0.0373356 -0.00803814 -1.7792e-21)
(0.0660403 -0.00243774 -7.16069e-22)
(0.0447617 -0.000545976 -2.22558e-24)
(0.0755051 -0.00749783 2.63919e-22)
(0.0715717 -0.0157419 2.08443e-23)
(0.0945145 0.0398023 2.22872e-21)
(0.0916513 0.0453642 9.9037e-23)
(0.0888735 0.0290297 1.26009e-21)
(0.0916069 0.0307285 -9.13175e-22)
(0.0989254 0.0409227 0)
(0.125098 -0.00142583 1.69984e-22)
(0.125759 -0.00187345 3.24597e-22)
(0.127746 -0.0110355 -3.31805e-22)
(0.129181 -0.0107572 5.69566e-22)
(0.117129 0.0235423 2.7903e-22)
(0.119201 0.024379 -7.91137e-22)
(0.117206 0.025577 0)
(0.115223 0.0243698 1.63353e-22)
(0.116807 0.027534 0)
(0.117424 0.0356048 -5.87351e-22)
(0.115982 0.0377067 -3.19027e-22)
(0.111632 0.0416266 -5.70918e-22)
(0.114016 0.0397057 0)
(0.116772 0.0426555 1.90113e-21)
(0.114055 0.0446384 4.73484e-23)
(0.108639 0.0438932 -3.19054e-22)
(0.0999579 0.0501296 -1.3496e-21)
(0.0986877 0.0453413 -2.37383e-22)
(0.0269745 -0.00965544 2.04127e-23)
(0.035291 -0.0108066 -8.39922e-24)
(0.00656489 -0.00260422 -6.26892e-22)
(0.0440945 7.95396e-06 -6.04675e-23)
(0.0555679 -0.000292089 0)
(-1.25626e-05 -3.44719e-05 3.69378e-22)
(6.27691e-06 -4.5252e-05 1.89848e-22)
(0.0505622 -0.00225187 2.6966e-23)
(0.0589792 -0.00217797 1.01831e-23)
(0.0584032 -0.00144582 0)
(0.0490197 -0.000922125 1.17329e-23)
(0.108101 0.00154867 -1.4302e-22)
(0.10802 0.00138245 6.83009e-22)
(0.108266 0.0014034 3.28751e-22)
(0.000738176 0.000304221 3.56336e-22)
(-0.000156784 -0.000130337 -5.25868e-22)
(-0.000203578 -0.000176645 4.40013e-22)
(0.00158829 0.000668114 0)
(9.78903e-05 0.000101882 1.09595e-21)
(0.000194792 -2.84195e-05 -7.77752e-22)
(0.00768899 0.00379676 -9.53497e-22)
(0.00152338 0.00082022 -1.1542e-21)
(0.00179079 0.000897289 0)
(0.0015768 0.00757487 0)
(0.000578909 0.00329434 0)
(0.0003143 0.00198504 0)
(0.137157 -0.00446669 8.13608e-23)
(0.137836 -0.00435893 0)
(0.136534 -0.00540099 -9.40749e-23)
(0.0881627 -0.0147888 4.57554e-21)
(0.090167 -0.0151944 -1.6612e-21)
(0.0890794 -0.0128199 0)
(0.111725 2.87507e-05 -8.10157e-24)
(0.111808 2.60615e-05 1.62158e-23)
(0.111638 3.22835e-05 -5.48635e-24)
(0.111885 2.38715e-05 0)
(0.111958 2.27143e-05 -1.03286e-23)
(0.112027 2.07733e-05 0)
(0.112026 -5.13965e-05 0)
(0.112092 1.74338e-05 3.82752e-23)
(0.11209 -5.19579e-05 0)
(0.111959 -5.27108e-05 -1.03962e-23)
(0.111885 -5.46983e-05 0)
(0.111808 -5.6909e-05 5.42523e-24)
(0.111725 -5.96897e-05 -8.10215e-24)
(0.111638 -6.23926e-05 5.47949e-24)
(0.112152 1.4333e-05 -3.66262e-23)
(0.112151 -5.16367e-05 -1.28148e-24)
(0.111546 3.62169e-05 8.32734e-28)
(0.111545 -6.43514e-05 -8.38816e-24)
(0.111446 4.03547e-05 4.46575e-23)
(0.112209 1.23869e-05 3.42225e-26)
(0.112209 -5.00632e-05 -1.28134e-24)
(0.111446 -6.72755e-05 1.65441e-23)
(0.112263 1.03076e-05 3.44462e-23)
(0.112314 8.50212e-06 -3.44179e-23)
(0.112263 -4.8655e-05 2.58132e-24)
(0.112314 -4.71956e-05 5.0986e-24)
(0.111344 4.73678e-05 -4.34496e-23)
(0.111343 -7.0823e-05 -1.08924e-23)
(0.112362 6.63437e-06 0)
(0.112362 -4.59297e-05 -5.02894e-24)
(0.111233 5.25548e-05 5.38085e-27)
(0.111232 -7.34051e-05 -5.39435e-27)
(0.112408 5.04992e-06 0)
(0.112408 -4.45951e-05 0)
(0.111114 5.74798e-05 0)
(0.111114 -7.67341e-05 0)
(0.112451 3.4211e-06 0)
(0.112451 -4.34106e-05 2.41477e-24)
(0.110989 6.28713e-05 -2.26389e-23)
(0.110988 -7.99522e-05 -5.52168e-27)
(0.112491 2.06365e-06 1.26575e-25)
(0.112492 -4.21143e-05 -2.57897e-24)
(0.110855 6.83907e-05 2.27471e-23)
(0.110854 -8.36279e-05 0)
(0.11253 6.37617e-07 0)
(0.11253 -4.09242e-05 0)
(0.110712 7.46217e-05 -1.44218e-24)
(0.110711 -8.7018e-05 2.47662e-23)
(0.112566 -6.4666e-07 1.56508e-23)
(0.112566 -3.96171e-05 0)
(0.110561 8.07147e-05 -1.40418e-25)
(0.11056 -9.09666e-05 -2.34416e-23)
(0.1126 -2.08825e-06 -2.34105e-23)
(0.112601 -3.84972e-05 -6.79504e-24)
(0.110396 8.50896e-05 2.39375e-23)
(0.110396 -9.50622e-05 0)
(0.112633 -3.40563e-06 7.71137e-24)
(0.112634 -3.71692e-05 4.53179e-24)
(0.110222 9.16264e-05 -1.2142e-23)
(0.110222 -0.000100463 2.46255e-23)
(0.112664 -4.54856e-06 -3.08138e-23)
(0.112665 -3.51767e-05 3.473e-23)
(0.11003 9.40971e-05 1.25456e-23)
(0.110032 -0.000106924 3.97438e-25)
(0.112693 -5.58377e-06 0)
(0.112694 -3.36544e-05 1.65604e-23)
(0.109825 9.76165e-05 -2.52846e-23)
(0.109828 -0.000115984 5.05878e-23)
(0.112723 -6.3605e-06 0)
(0.112723 -3.30348e-05 0)
(0.110043 0.000293457 -1.24138e-23)
(0.109837 0.000310961 -5.03687e-23)
(0.109602 9.97059e-05 0)
(0.109607 -0.000128996 -2.58297e-23)
(0.110408 0.000259689 -7.77603e-24)
(0.110231 0.00027662 1.52736e-24)
(0.110723 0.000226788 0)
(0.110569 0.000243091 -2.50513e-23)
(0.110999 0.000197215 -4.81662e-26)
(0.110865 0.000211548 0)
(0.111242 0.000170961 0)
(0.111124 0.000183716 0)
(0.111457 0.000146366 0)
(0.111352 0.000158661 0)
(0.111645 0.000126237 1.0833e-23)
(0.111553 0.000136036 2.73362e-24)
(0.111813 0.000109544 -1.04378e-23)
(0.111732 0.000117524 -1.08244e-23)
(0.111962 9.52904e-05 1.85033e-23)
(0.111889 0.000101403 2.3679e-23)
(0.112095 8.29841e-05 0)
(0.11203 8.93522e-05 0)
(0.112213 7.13818e-05 -8.11946e-26)
(0.112156 7.70331e-05 0)
(0.112318 6.10667e-05 0)
(0.112267 6.60593e-05 0)
(0.112411 5.1938e-05 0)
(0.112366 5.63635e-05 0)
(0.112494 4.38083e-05 0)
(0.112454 4.77585e-05 0)
(0.112569 3.65803e-05 0)
(0.112532 4.00811e-05 0)
(0.112635 3.01766e-05 0)
(0.112603 3.32826e-05 0)
(0.112696 2.33544e-05 -1.26007e-23)
(0.112666 2.72271e-05 0)
(0.112724 2.02096e-05 -4.07406e-24)
(0.11275 -7.51465e-06 3.97479e-24)
(0.11275 -3.24196e-05 -3.94171e-24)
(0.112667 -6.5002e-05 0)
(0.112724 -5.94559e-05 -1.61746e-23)
(0.112696 -6.19098e-05 -8.32268e-24)
(0.112603 -7.17529e-05 2.27728e-24)
(0.112636 -6.82999e-05 -8.91877e-24)
(0.112533 -7.83462e-05 7.37877e-26)
(0.112569 -7.51725e-05 0)
(0.112454 -8.5008e-05 0)
(0.112494 -8.15872e-05 0)
(0.112365 -9.25376e-05 0)
(0.112411 -8.86514e-05 0)
(0.112266 -0.000101085 0)
(0.112317 -9.66736e-05 9.719e-30)
(0.112155 -0.000110835 8.20859e-26)
(0.112212 -0.000105786 0)
(0.11203 -0.000121668 0)
(0.112094 -0.000116311 0)
(0.11189 -0.000132976 0)
(0.111962 -0.000127243 0)
(0.111731 -0.000146673 0)
(0.111813 -0.000139153 -5.48083e-24)
(0.111552 -0.000163374 1.44466e-24)
(0.111644 -0.000155589 -7.08035e-24)
(0.111351 -0.00018332 0)
(0.111455 -0.000172339 -5.76821e-24)
(0.111122 -0.000204724 0)
(0.11124 -0.000193757 0)
(0.110863 -0.000228935 0)
(0.110996 -0.000216419 0)
(0.110568 -0.000256523 0)
(0.11072 -0.000242322 0)
(0.110231 -0.000287701 -6.35557e-24)
(0.110405 -0.000271126 0)
(0.109845 -0.000327218 -2.58863e-23)
(0.110045 -0.000305369 -6.40486e-24)
(0.109627 -0.000352384 2.6406e-23)
(0.109616 0.000330216 4.99822e-23)
(0.112751 1.76185e-05 7.97314e-24)
(0.112751 -5.72091e-05 -1.55841e-23)
(0.109367 -0.000146033 0)
(0.109392 -0.000383568 0)
(0.109378 0.000351058 0)
(0.109361 9.97874e-05 0)
(0.110068 0.000489766 0)
(0.109651 0.000559187 1.25099e-23)
(0.109867 0.000522697 1.26066e-23)
(0.110431 0.000428201 1.59754e-23)
(0.110256 0.000458307 -3.19446e-24)
(0.110743 0.000373284 4.92485e-26)
(0.110592 0.000399692 0)
(0.111016 0.000325901 0)
(0.110884 0.000348781 0)
(0.111257 0.000284583 0)
(0.11114 0.000304541 0)
(0.11147 0.000248792 0)
(0.111367 0.000265944 0)
(0.111658 0.000216973 0)
(0.111566 0.000232521 0)
(0.111824 0.000190109 -4.37551e-26)
(0.111743 0.000203468 1.12915e-23)
(0.111971 0.000166378 -4.19679e-26)
(0.1119 0.000177407 -2.20235e-23)
(0.112103 0.000145079 0)
(0.112039 0.000155329 0)
(0.11222 0.000126546 4.05579e-26)
(0.112163 0.000135518 0)
(0.112324 0.000110241 0)
(0.112273 0.000118136 0)
(0.112416 9.58206e-05 0)
(0.112371 0.00010281 0)
(0.112499 8.30416e-05 0)
(0.112459 8.9236e-05 0)
(0.112573 7.17106e-05 0)
(0.112537 7.72017e-05 0)
(0.112639 6.15478e-05 0)
(0.112607 6.65087e-05 0)
(0.112699 5.13783e-05 8.60635e-24)
(0.11267 5.65054e-05 0)
(0.112776 -8.63149e-06 0)
(0.112777 1.53934e-05 7.80253e-24)
(0.112754 4.22141e-05 0)
(0.112727 4.65468e-05 8.38971e-24)
(0.112727 -8.6211e-05 1.67002e-23)
(0.112753 -8.24638e-05 4.10507e-24)
(0.112776 -5.53448e-05 3.20139e-23)
(0.112776 -3.15253e-05 0)
(0.11267 -9.53426e-05 0)
(0.112699 -9.05013e-05 -2.52086e-23)
(0.112607 -0.00010522 7.1752e-26)
(0.112639 -0.000100114 8.97302e-24)
(0.112537 -0.000115274 -7.37873e-26)
(0.112573 -0.000110155 0)
(0.112459 -0.000126351 0)
(0.112499 -0.000120653 0)
(0.112371 -0.000138883 0)
(0.112416 -0.00013242 0)
(0.112273 -0.000153113 0)
(0.112323 -0.000145772 -9.71897e-30)
(0.112162 -0.000169268 -1.64138e-25)
(0.112219 -0.000160937 0)
(0.112038 -0.000187754 0)
(0.112102 -0.000178189 0)
(0.111899 -0.000208556 2.76647e-24)
(0.111971 -0.000197806 0)
(0.111742 -0.000231839 0)
(0.111823 -0.000219487 -2.75492e-24)
(0.111565 -0.000259247 5.77992e-24)
(0.111655 -0.000245304 5.73709e-24)
(0.111364 -0.000290278 0)
(0.111468 -0.000274312 0)
(0.111137 -0.000325694 0)
(0.111254 -0.000307391 0)
(0.11088 -0.000366331 0)
(0.111013 -0.000345303 0)
(0.110588 -0.00041315 0)
(0.110738 -0.000388915 0)
(0.110254 -0.000467242 1.01966e-25)
(0.110426 -0.000439179 0)
(0.109873 -0.000530397 -1.03802e-25)
(0.11007 -0.000497556 0)
(0.109432 -0.000612606 -2.72289e-23)
(0.10966 -0.000569263 2.72164e-23)
(0.109419 0.000598546 2.55328e-23)
(0.10914 -0.00042038 0)
(0.109184 -0.000663929 -5.5651e-23)
(0.109111 -0.000165402 0)
(0.112779 3.89541e-05 0)
(0.112779 -7.88647e-05 -3.98487e-24)
(0.109122 0.000373954 6.49107e-23)
(0.10917 0.000641598 2.59847e-23)
(0.108867 -0.000460655 1.40745e-23)
(0.108918 -0.000721158 7.03408e-23)
(0.109101 0.000100039 0)
(0.112757 6.79818e-05 3.28455e-23)
(0.112782 6.26727e-05 -1.62278e-23)
(0.112801 -5.36259e-05 -7.89034e-24)
(0.112803 -7.53449e-05 3.92416e-23)
(0.109242 0.000902423 9.08667e-23)
(0.108899 0.000689402 -5.11302e-23)
(0.108688 0.00104824 -2.31699e-22)
(0.108975 0.000969898 -5.19221e-23)
(0.109707 0.000783582 2.52165e-23)
(0.109483 0.000840932 -7.72557e-23)
(0.110111 0.000681226 -2.57358e-23)
(0.109917 0.000730624 -1.94658e-23)
(0.110465 0.000593483 -6.38971e-24)
(0.110295 0.000636085 -6.40815e-24)
(0.110773 0.000518154 -4.92485e-26)
(0.110625 0.000554353 0)
(0.111042 0.000453194 0)
(0.110912 0.000484514 0)
(0.11128 0.000396852 0)
(0.111165 0.000424035 0)
(0.111489 0.000347911 0)
(0.111388 0.000371514 0)
(0.111675 0.000305278 0)
(0.111585 0.000325811 0)
(0.111839 0.000267969 0)
(0.111759 0.000285997 0)
(0.111984 0.000235331 1.43499e-29)
(0.111914 0.000251216 0)
(0.112114 0.000206553 0)
(0.112051 0.000220429 0)
(0.11223 0.000181276 4.05399e-26)
(0.112174 0.000193518 0)
(0.112332 0.000159 0)
(0.112282 0.000169789 0)
(0.112424 0.000139322 0)
(0.112379 0.000148859 0)
(0.112506 0.000121915 0)
(0.112466 0.000130353 0)
(0.112579 0.000106495 0)
(0.112543 0.000113974 0)
(0.112645 9.27002e-05 0)
(0.112613 9.94295e-05 0)
(0.112704 7.97007e-05 4.38664e-24)
(0.112675 8.60809e-05 -2.20703e-24)
(0.112731 7.36635e-05 -1.67509e-23)
(0.1128 -9.11316e-06 -3.73609e-24)
(0.112803 3.58262e-05 1.56316e-23)
(0.112801 1.32049e-05 -1.19418e-23)
(0.1128 -3.09285e-05 0)
(0.112731 -0.000113311 -1.24425e-23)
(0.112782 -0.000102387 -3.59384e-23)
(0.112757 -0.000107678 2.89255e-23)
(0.112675 -0.000125676 0)
(0.112704 -0.000119346 0)
(0.112613 -0.000138106 -7.03205e-30)
(0.112645 -0.000131585 0)
(0.112543 -0.000151918 0)
(0.112579 -0.000144832 0)
(0.112466 -0.000167387 -7.58203e-26)
(0.112506 -0.000159423 0)
(0.112379 -0.000184881 0)
(0.112424 -0.000175863 0)
(0.112282 -0.00020472 0)
(0.112332 -0.000194489 0)
(0.112173 -0.000227233 8.20642e-26)
(0.112229 -0.000215624 0)
(0.11205 -0.000252824 8.41623e-26)
(0.112114 -0.000239608 0)
(0.111913 -0.000281911 0)
(0.111984 -0.000266886 0)
(0.111757 -0.000315033 0)
(0.111837 -0.000297952 0)
(0.111582 -0.000352855 0)
(0.111672 -0.000333271 0)
(0.111384 -0.000395959 0)
(0.111486 -0.000373679 0)
(0.11116 -0.000445421 -9.50518e-26)
(0.111276 -0.000419843 0)
(0.110906 -0.000502272 0)
(0.111037 -0.000472852 0)
(0.110618 -0.000567823 0)
(0.110767 -0.000533878 0)
(0.110289 -0.000643604 -3.98352e-29)
(0.110459 -0.00060433 0)
(0.109915 -0.00073152 4.9884e-29)
(0.110108 -0.000685917 0)
(0.109485 -0.00083714 1.07888e-25)
(0.109707 -0.000781122 0)
(0.108986 -0.000972005 -5.7082e-23)
(0.109245 -0.000900281 1.39886e-23)
(0.108633 -0.000782279 1.43787e-23)
(0.108711 -0.00105125 2.84847e-23)
(0.108849 0.000397484 -2.53412e-23)
(0.108834 -0.000187779 -2.72773e-23)
(0.112806 5.81183e-05 3.97785e-24)
(0.112806 -9.784e-05 2.82487e-23)
(0.108598 0.000736184 3.12735e-24)
(0.108574 -0.000506513 0)
(0.108324 0.00110013 3.54701e-22)
(0.108417 -0.00113662 4.41754e-23)
(0.10833 -0.000849366 5.89115e-23)
(0.108411 0.00154283 -5.96076e-22)
(0.108179 0.00168159 1.06808e-22)
(0.108828 0.000101225 0)
(0.108842 0.00133448 5.85747e-23)
(0.108609 0.001446 3.04863e-23)
(0.109334 0.00115215 5.26971e-23)
(0.109088 0.00123793 -8.05287e-23)
(0.109781 0.000998612 -2.61352e-23)
(0.109566 0.0010731 -1.30767e-23)
(0.110171 0.000867561 1.30651e-23)
(0.109983 0.000930192 1.32701e-23)
(0.110513 0.00075567 0)
(0.110347 0.000809415 -3.47218e-26)
(0.110813 0.00066029 0)
(0.110668 0.000706167 0)
(0.111077 0.000578173 4.80748e-26)
(0.110949 0.00061773 0)
(0.11131 0.000507102 0)
(0.111197 0.000541381 0)
(0.111515 0.00044535 0)
(0.111416 0.000475153 0)
(0.111697 0.000391575 0)
(0.111609 0.00041754 0)
(0.111859 0.000344557 4.36958e-26)
(0.11178 0.000367274 0)
(0.112002 0.000303325 1.47414e-29)
(0.111932 0.000323311 0)
(0.112129 0.000267085 0)
(0.112067 0.000284611 0)
(0.112243 0.000235166 -8.10676e-26)
(0.112188 0.000250627 0)
(0.112344 0.000207025 0)
(0.112295 0.000220656 0)
(0.112434 0.000182183 0)
(0.11239 0.000194222 0)
(0.112515 0.000160223 0)
(0.112476 0.000170868 0)
(0.112587 0.000140789 0)
(0.112552 0.000150213 0)
(0.112652 0.000123494 0)
(0.11262 0.00013191 0)
(0.11271 0.000107811 -2.19158e-24)
(0.112682 0.000115347 0)
(0.112763 9.36733e-05 0)
(0.112737 0.00010058 -4.25387e-24)
(0.112811 8.04921e-05 1.50448e-27)
(0.112787 8.68962e-05 0)
(0.112826 3.28379e-05 -1.58487e-23)
(0.112833 7.50038e-05 9.5767e-25)
(0.112829 5.42706e-05 7.76747e-24)
(0.112823 -9.44436e-06 5.70123e-24)
(0.112824 1.1495e-05 -3.9353e-24)
(0.112824 -5.20493e-05 -1.98094e-24)
(0.112823 -3.05527e-05 1.97773e-24)
(0.112828 -9.41754e-05 0)
(0.112825 -7.26445e-05 -1.79798e-23)
(0.112787 -0.000126631 -8.08219e-24)
(0.112832 -0.00011584 -1.5466e-23)
(0.11281 -0.00012083 3.55835e-23)
(0.112737 -0.000139971 -4.23651e-24)
(0.112762 -0.000133071 0)
(0.112681 -0.000154903 0)
(0.11271 -0.000147277 0)
(0.11262 -0.000170568 -1.01802e-29)
(0.112652 -0.000162563 0)
(0.112552 -0.00018812 0)
(0.112587 -0.000179089 0)
(0.112476 -0.000207899 7.58203e-26)
(0.112515 -0.000197711 0)
(0.11239 -0.000230278 0)
(0.112434 -0.000218743 0)
(0.112294 -0.000255644 0)
(0.112344 -0.000242565 0)
(0.112187 -0.000284423 0)
(0.112242 -0.000269581 0)
(0.112066 -0.000317113 -2.03724e-29)
(0.112128 -0.000300248 0)
(0.111931 -0.000354272 0)
(0.112 -0.000335095 0)
(0.111778 -0.000396601 0)
(0.111856 -0.000374752 0)
(0.111605 -0.0004449 0)
(0.111694 -0.000419942 0)
(0.111411 -0.000500086 0)
(0.111511 -0.000471561 0)
(0.111191 -0.000563361 9.50518e-26)
(0.111304 -0.000530641 0)
(0.110941 -0.000636097 0)
(0.11107 -0.000598456 0)
(0.110658 -0.000719976 0)
(0.110804 -0.000676537 0)
(0.110337 -0.000816982 -1.01916e-25)
(0.110503 -0.000766705 0)
(0.10997 -0.000929463 1.04272e-25)
(0.110159 -0.000871135 0)
(0.109551 -0.00106076 -1.06669e-25)
(0.109767 -0.000992495 0)
(0.109071 -0.00121862 1.40837e-23)
(0.109319 -0.00113494 -2.7756e-23)
(0.108522 -0.00141406 -1.42568e-23)
(0.108805 -0.0013112 2.89786e-23)
(0.1081 -0.00122883 6.59546e-25)
(0.108218 -0.00152532 2.94794e-23)
(0.108554 0.00041811 -2.61866e-23)
(0.108541 -0.000207907 0)
(0.108284 0.000773349 -2.5423e-22)
(0.108263 -0.00054776 0)
(0.112816 0.00010405 -3.98223e-24)
(0.112838 9.73347e-05 2.91728e-24)
(0.112849 -9.04175e-05 -1.52207e-23)
(0.112853 -0.000110705 -1.72508e-23)
(0.107982 0.00111951 -2.4989e-22)
(0.108004 -0.00092172 -5.94879e-23)
(0.107905 0.00171094 0)
(0.108528 0.00183079 -6.91854e-23)
(0.107762 -0.00132933 -2.91963e-23)
(0.107891 -0.00164552 4.49097e-23)
(0.108245 0.00193665 1.38561e-22)
(0.108535 0.000102366 0)
(0.108987 0.00159547 0)
(0.108758 0.00171381 -6.13246e-23)
(0.109446 0.00138579 0)
(0.109218 0.00148753 0)
(0.10987 0.00120215 0)
(0.109664 0.00129029 1.35477e-23)
(0.110243 0.00104636 0)
(0.110062 0.00112117 0)
(0.110572 0.000913026 0)
(0.110413 0.000977098 0)
(0.110863 0.000798721 0)
(0.110722 0.000853734 0)
(0.11112 0.000700198 -4.80748e-26)
(0.110995 0.000747664 0)
(0.111346 0.0006149 0)
(0.111237 0.000656043 0)
(0.111547 0.000540759 0)
(0.11145 0.000576551 0)
(0.111725 0.000476121 0)
(0.111639 0.000507348 0)
(0.111883 0.000419605 -1.89162e-29)
(0.111806 0.00044693 0)
(0.112023 0.000370051 1.72152e-29)
(0.111955 0.000394032 0)
(0.112148 0.000326479 0)
(0.112087 0.00034757 0)
(0.112259 0.000288092 1.45573e-29)
(0.112205 0.000306686 0)
(0.112358 0.000254234 0)
(0.11231 0.000270636 0)
(0.112447 0.000224342 0)
(0.112404 0.000238828 0)
(0.112526 0.000197922 0)
(0.112488 0.000210728 0)
(0.112597 0.000174559 0)
(0.112562 0.000185885 0)
(0.112661 0.000153868 0)
(0.11263 0.000163905 0)
(0.112718 0.00013554 0)
(0.11269 0.000144447 0)
(0.112769 0.000118606 4.22355e-24)
(0.112744 0.000126712 4.31847e-24)
(0.112793 0.000110947 -8.1092e-24)
(0.112847 3.01882e-05 -7.78089e-24)
(0.112854 7.04814e-05 0)
(0.11285 5.05899e-05 -7.85812e-24)
(0.112844 -9.85361e-06 0)
(0.112845 1.03042e-05 7.9409e-24)
(0.112845 -5.0721e-05 1.18526e-23)
(0.112844 -3.03692e-05 -4.00567e-24)
(0.112847 -7.02788e-05 -2.32933e-23)
(0.112793 -0.000150679 4.0761e-24)
(0.112837 -0.00013622 1.51864e-23)
(0.112815 -0.000143905 0)
(0.112744 -0.000166358 -8.43877e-24)
(0.112769 -0.000158273 8.46663e-24)
(0.11269 -0.00018358 0)
(0.112717 -0.000174906 0)
(0.112629 -0.00020247 -1.29973e-29)
(0.11266 -0.000192766 0)
(0.112562 -0.00022373 0)
(0.112597 -0.000212783 0)
(0.112487 -0.000247737 0)
(0.112526 -0.000235368 0)
(0.112404 -0.000274908 0)
(0.112447 -0.000260904 0)
(0.11231 -0.000305698 0)
(0.112358 -0.000289824 0)
(0.112204 -0.000340621 8.20095e-26)
(0.112259 -0.000322611 0)
(0.112086 -0.000380282 -8.41419e-26)
(0.112147 -0.000359823 0)
(0.111953 -0.000425368 0)
(0.112021 -0.000402103 0)
(0.111803 -0.000476701 0)
(0.11188 -0.000450202 0)
(0.111634 -0.000535264 0)
(0.111721 -0.000505018 0)
(0.111444 -0.0006022 0)
(0.111542 -0.000567608 0)
(0.111229 -0.000678913 0)
(0.11134 -0.000639246 0)
(0.110985 -0.000767075 0)
(0.111111 -0.000721455 0)
(0.110709 -0.000868693 -9.94968e-26)
(0.110851 -0.000816073 0)
(0.110396 -0.000986169 1.01805e-25)
(0.110557 -0.000925291 0)
(0.110039 -0.00112238 -1.04145e-25)
(0.110223 -0.00105175 0)
(0.109633 -0.00128087 0)
(0.109843 -0.0011986 0)
(0.10917 -0.00146598 0)
(0.109409 -0.00136974 0)
(0.108643 -0.00168499 1.12763e-25)
(0.108916 -0.00157002 1.42523e-23)
(0.108039 -0.00195013 -7.51421e-23)
(0.108351 -0.00181123 0)
(0.107541 -0.00178068 -4.44751e-23)
(0.107704 -0.00210291 -6.71544e-25)
(0.108241 0.000438482 8.2039e-23)
(0.108227 -0.000227236 0)
(0.112859 9.07867e-05 -1.51606e-23)
(0.112858 -0.00013016 -2.92476e-23)
(0.10793 0.000795477 -4.37987e-23)
(0.107719 0.00150988 6.32003e-25)
(0.107621 0.00115468 1.27277e-22)
(0.107935 -0.000589637 0)
(0.107657 -0.000992447 1.50174e-23)
(0.107893 0.00203717 -1.27373e-22)
(0.107565 0.00209448 1.10738e-22)
(0.107427 0.00167099 -1.09211e-22)
(0.1074 -0.00143432 -4.51447e-23)
(0.107166 -0.00192197 3.03086e-23)
(0.107345 -0.00227419 2.95553e-23)
(0.10822 0.000102992 0)
(0.108646 0.00210168 3.85358e-24)
(0.10802 0.00239524 -7.1612e-25)
(0.108345 0.00224174 2.9931e-23)
(0.109128 0.0018395 2.9453e-23)
(0.108898 0.00196719 -2.9606e-23)
(0.109568 0.00160272 5.37832e-26)
(0.10935 0.00171809 0)
(0.109969 0.00139578 0)
(0.109774 0.00149536 0)
(0.110325 0.00121785 0)
(0.110152 0.00130348 0)
(0.110642 0.00106468 0)
(0.110488 0.0011384 0)
(0.110922 0.000932708 4.91374e-26)
(0.110786 0.000996274 0)
(0.11117 0.000818659 0)
(0.11105 0.000873635 0)
(0.11139 0.00071976 0)
(0.111283 0.000767478 0)
(0.111585 0.000633706 0)
(0.11149 0.000675261 0)
(0.111758 0.000558603 0)
(0.111674 0.000594895 0)
(0.111911 0.000492887 -4.36768e-26)
(0.111837 0.000524665 0)
(0.112048 0.00043524 1.99373e-29)
(0.111982 0.000463135 0)
(0.11217 0.000384547 0)
(0.112111 0.000409089 0)
(0.112278 0.000339879 8.10094e-26)
(0.112226 0.000361516 0)
(0.112375 0.000300465 0)
(0.112328 0.000319561 0)
(0.112462 0.000265654 0)
(0.11242 0.000282524 0)
(0.112539 0.000234886 0)
(0.112502 0.000249799 0)
(0.112609 0.000207682 0)
(0.112575 0.000220868 0)
(0.112671 0.000183622 0)
(0.112641 0.000195285 0)
(0.112727 0.000162354 6.87709e-26)
(0.1127 0.000172668 0)
(0.112777 0.000143224 -4.242e-24)
(0.112753 0.000152641 0)
(0.112823 0.000125565 4.03753e-24)
(0.112801 0.000134153 0)
(0.112865 0.000110151 3.85875e-24)
(0.112844 0.000117654 -3.94257e-24)
(0.112874 6.61105e-05 7.62624e-24)
(0.112885 0.000103021 0)
(0.112879 8.52775e-05 1.13512e-23)
(0.112867 2.81816e-05 0)
(0.11287 4.70358e-05 0)
(0.112864 -1.03877e-05 0)
(0.112865 9.11045e-06 0)
(0.112865 -4.95142e-05 0)
(0.112864 -3.00102e-05 0)
(0.112869 -8.72014e-05 1.55124e-23)
(0.112867 -6.82947e-05 3.85619e-24)
(0.112877 -0.000124685 3.81712e-24)
(0.112873 -0.000106038 3.0414e-23)
(0.112843 -0.000157308 1.98043e-23)
(0.112882 -0.000143477 3.80198e-24)
(0.112863 -0.000150013 -7.71844e-24)
(0.1128 -0.00017383 4.07025e-24)
(0.112822 -0.000165282 -2.43985e-23)
(0.112752 -0.00019207 -8.61591e-30)
(0.112777 -0.000182726 0)
(0.112699 -0.000211656 0)
(0.112726 -0.00020158 0)
(0.11264 -0.000233727 -1.58023e-29)
(0.112671 -0.000222367 0)
(0.112575 -0.000258626 0)
(0.112609 -0.000245801 0)
(0.112502 -0.00028677 0)
(0.112539 -0.000272268 0)
(0.11242 -0.000318624 0)
(0.112462 -0.000302206 0)
(0.112328 -0.000354712 0)
(0.112375 -0.000336108 0)
(0.112225 -0.000395635 -1.63991e-25)
(0.112278 -0.000374533 0)
(0.112109 -0.000442093 0)
(0.112169 -0.000418129 0)
(0.111979 -0.000494895 0)
(0.112046 -0.000467651 0)
(0.111833 -0.000554995 0)
(0.111908 -0.000523973 0)
(0.111669 -0.000623528 0)
(0.111753 -0.000588136 0)
(0.111483 -0.000701838 -9.2706e-26)
(0.111579 -0.000661375 0)
(0.111274 -0.000791539 0)
(0.111382 -0.000745161 0)
(0.111037 -0.000894564 0)
(0.111159 -0.000841261 0)
(0.110769 -0.00101322 9.94968e-26)
(0.110908 -0.000951789 0)
(0.110466 -0.00115027 -7.29997e-29)
(0.110623 -0.00107926 0)
(0.110122 -0.00130901 2.08208e-25)
(0.110299 -0.00122671 0)
(0.10973 -0.00149337 0)
(0.109932 -0.00139773 0)
(0.109286 -0.00170781 0)
(0.109515 -0.00159652 0)
(0.10878 -0.0019571 -1.29074e-28)
(0.109041 -0.00182777 0)
(0.108205 -0.00224808 0)
(0.108502 -0.00209691 0)
(0.107548 -0.00260201 -4.50345e-23)
(0.107888 -0.00241586 0)
(0.106963 -0.00245527 -6.66035e-25)
(0.107185 -0.00280812 7.68995e-23)
(0.107895 0.000454246 0)
(0.107699 0.0025147 1.73954e-22)
(0.107562 0.000818868 3.00212e-23)
(0.112872 0.000129348 -3.85149e-24)
(0.11289 0.000121811 0)
(0.112896 -0.000119818 3.7216e-24)
(0.112901 -0.0001372 -7.37688e-24)
(0.107893 -0.000246561 0)
(0.107582 -0.000633996 0)
(0.107275 0.00125573 0)
(0.107286 -0.00106685 -1.47908e-23)
(0.10701 -0.00154916 -2.99921e-23)
(0.106763 -0.00207855 0)
(0.106553 -0.00265041 7.77681e-23)
(0.106797 -0.00302637 -6.20377e-23)
(0.107881 0.000103445 0)
(0.108193 0.002715 -1.44084e-26)
(0.107334 0.0026429 5.52686e-23)
(0.107538 0.00305838 -1.97672e-22)
(0.107876 0.00288534 5.73052e-23)
(0.108784 0.00236619 -1.85923e-23)
(0.108495 0.00253257 -2.96761e-23)
(0.109269 0.00207105 0)
(0.109039 0.0022137 0)
(0.109694 0.00180924 -5.37783e-26)
(0.109486 0.00193633 0)
(0.110077 0.00158027 0)
(0.109891 0.00169072 0)
(0.110417 0.00138182 0)
(0.110252 0.00147746 0)
(0.11072 0.0012102 0)
(0.110573 0.0012929 0)
(0.110989 0.00106174 -4.91374e-26)
(0.110858 0.00113331 0)
(0.111227 0.000933058 0)
(0.111112 0.000995125 0)
(0.111439 0.000821246 0)
(0.111337 0.000875217 0)
(0.111628 0.000723814 0)
(0.111536 0.000770878 0)
(0.111795 0.000638686 0)
(0.111714 0.000679834 0)
(0.111944 0.000564127 4.36303e-26)
(0.111872 0.000600188 0)