/*--------------------------------*- C++ -*----------------------------------*\
  =========                 |
  \\      /  F ield         | OpenFOAM: The Open Source CFD Toolbox
   \\    /   O peration     | Website:  https://openfoam.org
    \\  /    A nd           | Version:  10
     \\/     M anipulation  |
\*---------------------------------------------------------------------------*/
FoamFile
{
    format      ascii;
    class       volVectorField;
    location    "12.5";
    object      U;
}
// * * * * * * * * * * * * * * * * * * * * * * * * * * * * * * * * * * * * * //

dimensions      [0 1 -1 0 0 0 0];

internalField   nonuniform List<vector> 
6397
(
(4.33817 -0.797487 7.99121e-20)
(4.41213 -0.7202 -3.33991e-19)
(3.57122 0.955594 0)
(3.43495 0.711801 6.55736e-21)
(3.19368 0.527929 2.97053e-20)
(3.25981 0.847795 5.32032e-20)
(3.59054 -2.57974 -1.0602e-20)
(1.88281 -4.24243 8.66854e-19)
(-1.13097 -0.337169 6.05425e-19)
(-1.86504 -0.335686 -2.95857e-19)
(1.7329 2.44496 1.47953e-18)
(3.48133 3.19688 -2.10317e-19)
(3.6861 0.103844 -2.23035e-20)
(3.69023 0.0921914 -8.29709e-21)
(2.53673 0.111697 1.4303e-20)
(-0.731157 -0.777824 -1.09495e-18)
(-0.171739 -0.706082 -4.26078e-19)
(-1.41319 0.402193 6.57519e-19)
(1.30558 -0.44061 7.86449e-19)
(2.15043 -1.00358 -2.39156e-18)
(1.79228 -0.490477 -1.18984e-18)
(3.05413 -0.0640138 -4.32874e-18)
(1.29977 0.123871 1.99295e-19)
(4.65886 0.627787 -2.88773e-18)
(4.06643 0.131116 0)
(4.32123 0.0769555 -4.17486e-21)
(4.43821 0.128764 -3.30948e-21)
(2.94752 2.36355 1.74335e-19)
(2.83626 2.16679 -4.91112e-20)
(2.99989 2.51547 1.05825e-19)
(2.95446 2.45864 -1.38038e-19)
(3.51663 0.0961212 1.04999e-19)
(3.60416 0.395398 6.52043e-20)
(3.41351 0.44969 -2.23011e-19)
(3.92162 -0.356535 2.96737e-20)
(3.87783 -0.140356 0)
(3.76472 -0.170262 -3.28667e-20)
(3.67449 0.0774531 -6.65877e-20)
(4.15782 -0.38729 5.53166e-20)
(4.25992 -0.47356 -2.50275e-20)
(4.11858 -0.517573 0)
(4.00443 -0.252385 0)
(2.97617 2.51338 -4.27394e-20)
(2.99196 1.46446 1.79193e-20)
(3.16178 1.72631 -8.96872e-21)
(3.37737 1.11764 7.69831e-20)
(3.07205 0.987154 3.13626e-20)
(3.18189 1.29552 -8.56968e-20)
(4.6255 -0.604312 3.76503e-20)
(4.51232 -0.438037 -6.26729e-21)
(4.56769 -0.354925 6.85818e-20)
(4.43902 -0.245135 -2.20213e-20)
(4.45722 -0.320579 -1.68506e-19)
(4.22118 0.836104 -1.54702e-19)
(3.46931 0.477521 1.00225e-19)
(4.03524 0.0539685 3.37794e-20)
(4.05187 0.0675382 3.30675e-20)
(4.31542 0.0461798 1.15655e-20)
(2.30276 -1.25561 -1.40045e-19)
(2.22194 -0.540663 1.41136e-19)
(2.46406 -1.84499 1.12325e-19)
(2.65588 -2.28289 -1.10436e-19)
(2.83916 -2.58721 -9.8727e-20)
(2.98798 -2.77106 9.70679e-20)
(3.09743 -2.8576 0)
(3.15059 -2.86207 1.20858e-19)
(3.1465 -2.77732 -1.26596e-19)
(3.08586 -2.53854 0)
(2.28377 -0.574825 -8.16451e-20)
(2.22795 0.215372 -3.28964e-21)
(2.28009 0.100089 7.572e-20)
(2.37869 -1.21001 0)
(2.53811 -1.75328 0)
(2.72466 -2.16754 0)
(2.89554 -2.46592 -2.46107e-22)
(3.06554 -2.66487 4.31237e-23)
(3.19589 -2.78546 0)
(3.28219 -2.84021 -1.34372e-23)
(3.3237 -2.79786 0)
(3.31096 -2.58188 0)
(2.37703 0.741472 -8.0018e-20)
(2.33921 0.908824 7.48357e-21)
(3.01245 -2.05828 0)
(3.29282 -2.07112 0)
(2.53353 1.28563 6.01448e-21)
(2.49569 1.47392 0)
(2.93564 -1.27653 0)
(3.27679 -1.23525 0)
(2.7248 1.71179 1.35793e-19)
(2.67909 1.88296 -2.88793e-20)
(2.91743 -0.27243 0)
(3.29317 -0.148072 0)
(2.89961 2.01141 -1.06583e-19)
(3.03183 2.2323 -5.2592e-20)
(2.95253 0.791154 0)
(3.34848 0.975973 3.62807e-20)
(2.80012 1.50631 0)
(3.13657 2.1073 8.1138e-20)
(2.96333 1.84088 5.01573e-21)
(2.49512 0.572929 -3.82494e-20)
(2.63079 1.08213 0)
(2.43243 -0.60224 -1.90271e-20)
(2.4317 0.000216334 3.75788e-20)
(2.681 -1.63717 2.10664e-20)
(2.53526 -1.15202 1.66055e-20)
(3.04544 -2.33128 2.46479e-22)
(2.86181 -2.02632 -2.18188e-20)
(3.3977 -2.68427 -1.14646e-20)
(3.22305 -2.54344 -3.80141e-20)
(3.62056 -2.73686 -5.45495e-20)
(3.51561 -2.76287 1.02452e-19)
(3.71168 -1.98385 0)
(3.65579 -2.51149 0)
(3.82516 0.00993324 0)
(3.75654 -1.10063 0)
(3.87924 1.13852 -7.44247e-20)
(2.75354 -1.28543 -1.69974e-19)
(2.71387 0.644279 -8.49851e-20)
(2.69621 -0.365631 1.67976e-19)
(2.97154 -2.44045 1.37482e-19)
(2.86411 -1.98559 -1.34397e-19)
(3.09531 -2.82751 8.34961e-22)
(3.06165 -2.69331 3.74352e-21)
(2.99632 -2.81736 0)
(3.07451 -2.86613 0)
(2.70541 -2.38368 1.52343e-19)
(2.87768 -2.66544 1.63696e-20)
(2.39839 -1.29673 3.61508e-20)
(2.53074 -1.92969 -1.50831e-19)
(2.34853 0.322966 9.93706e-20)
(2.32605 -0.507413 -1.00726e-20)
(2.58583 1.686 -1.44058e-19)
(2.43277 1.09589 -9.17163e-20)
(2.87735 2.3319 0)
(2.73491 2.09285 1.51482e-19)
(3.11898 2.40787 -7.32227e-20)
(3.00686 2.48961 -2.77064e-21)
(3.27018 2.28763 2.09366e-20)
(3.95919 2.08354 -9.37219e-20)
(3.44047 1.91706 2.50295e-20)
(2.62014 0.539186 -7.59894e-22)
(2.82909 1.55891 8.52194e-20)
(2.7274 1.39617 0)
(3.97888 2.7293 6.11687e-20)
(4.4732 2.17609 -1.16805e-19)
(4.43347 2.76496 1.16133e-19)
(3.04989 2.53342 4.79101e-20)
(3.26372 1.96694 -3.05755e-20)
(3.43524 2.18948 -2.00161e-20)
(3.00473 2.48176 4.19598e-20)
(3.06223 1.7456 6.85868e-21)
(2.96161 1.34183 0)
(3.10377 1.69543 6.53461e-22)
(2.69218 0.459082 -1.3961e-21)
(2.78947 0.932456 0)
(2.65033 -0.568641 -4.87902e-22)
(2.61411 -0.054707 -4.28362e-22)
(2.86902 -1.49475 0)
(2.71441 -1.05431 1.83454e-21)
(3.22682 -2.13929 0)
(3.0088 -1.85671 9.24206e-22)
(3.62639 -2.50379 0)
(3.40959 -2.34112 3.13747e-21)
(3.95601 -2.62529 -3.57376e-23)
(3.78491 -2.61873 4.9787e-21)
(4.22346 -1.88174 6.55198e-21)
(4.08332 -2.41992 -1.07446e-20)
(4.41845 0.126165 -4.47029e-21)
(4.33423 -0.99314 -4.72392e-21)
(4.45733 1.24788 3.77082e-20)
(2.671 -1.17395 1.41926e-21)
(2.61239 -0.361924 2.2994e-21)
(2.95258 -2.28564 -1.07131e-22)
(2.80958 -1.82651 0)
(3.14745 -2.78391 0)
(3.08073 -2.59059 -1.15662e-21)
(3.1357 -2.88875 0)
(3.17321 -2.87942 0)
(2.91228 -2.5097 -1.84964e-22)
(3.03943 -2.77291 -1.66162e-20)
(2.69657 -1.31243 -2.64965e-20)
(2.77697 -2.01151 0)
(2.64734 0.468643 -1.16887e-19)
(2.62813 -0.444502 0)
(2.78963 1.88463 5.44798e-21)
(2.68221 1.27348 1.17141e-19)
(3.00805 2.453 1.3042e-22)
(2.88536 2.26478 1.77745e-20)
(3.03612 2.52596 -5.23183e-20)
(3.13479 2.515 1.34251e-20)
(3.02349 2.53021 0)
(3.521 2.35562 1.62272e-20)
(3.3073 2.42982 -1.69479e-20)
(2.89611 2.07449 0)
(2.98434 2.27996 0)
(3.51981 2.60358 -2.30544e-20)
(4.95207 2.23389 -1.79525e-20)
(4.84873 2.7487 0)
(4.36037 3.01627 -9.95236e-21)
(3.99006 3.05264 4.85757e-21)
(2.91162 1.87034 0)
(3.10347 2.49552 0)
(3.1557 2.26453 -2.7559e-20)
(2.92719 2.44883 4.48339e-20)
(2.92151 2.37649 0)
(3.66539 2.41429 -4.12702e-20)
(3.76825 2.24753 -2.02373e-22)
(3.93733 2.32282 7.96348e-20)
(3.11459 2.38609 0)
(3.20291 2.47545 -4.42085e-20)
(3.19442 2.46521 0)
(3.43092 1.82335 -1.18075e-21)
(3.64778 2.04062 0)
(3.10523 1.19567 -1.20321e-22)
(3.28389 1.53214 3.53936e-21)
(2.88004 0.366663 8.14227e-22)
(2.96851 0.802147 0)
(2.86166 -0.537519 -3.20923e-23)
(2.83031 -0.0745927 8.456e-22)
(3.05664 -1.36571 2.44953e-23)
(2.9125 -0.966139 4.35523e-22)
(3.4351 -1.94523 1.04343e-21)
(3.20669 -1.6838 0)
(3.87397 -2.32502 0)
(3.64214 -2.15179 -1.06322e-21)
(4.29463 -2.44925 -3.70536e-21)
(4.07958 -2.44301 1.25185e-21)
(4.71278 -1.73127 0)
(4.49829 -2.25039 -6.6744e-22)
(4.97512 0.242204 -7.21978e-21)
(4.87515 -0.865906 1.65639e-20)
(4.99348 1.35286 3.06218e-20)
(2.63842 0.482622 -8.17303e-21)
(2.73661 1.25599 2.46634e-23)
(2.72159 -1.0714 -4.23866e-21)
(2.63885 -0.329314 1.32539e-20)
(3.02238 -2.14357 -7.63191e-23)
(2.8621 -1.67782 -7.63647e-21)
(3.28826 -2.73435 0)
(3.17618 -2.48694 9.08468e-21)
(3.37372 -2.9567 0)
(3.36007 -2.88928 0)
(3.27506 -2.63223 3.78329e-22)
(3.33503 -2.88967 0)
(3.14954 -1.4065 0)
(3.20389 -2.1359 0)
(3.08087 0.453501 0)
(3.08895 -0.509713 0)
(3.13258 1.95599 4.91685e-20)
(3.08066 1.31692 0)
(3.21959 2.49633 -1.29128e-22)
(3.1607 2.32881 -5.02374e-20)
(3.2014 2.52604 5.00944e-20)
(3.15743 2.53009 2.44823e-20)
(3.00856 2.50753 -4.20373e-20)
(3.38858 2.48472 4.1482e-20)
(4.69515 2.94705 5.1612e-20)
(3.17207 2.71408 0)
(3.5807 2.97701 2.84882e-20)
(3.42625 2.43708 2.91706e-20)
(3.32373 2.67509 0)
(4.24021 3.00489 7.29135e-21)
(3.94593 3.08914 1.98864e-20)
(3.7673 2.36833 3.45217e-21)
(4.13189 2.27758 2.85523e-21)
(2.82108 2.32081 4.37029e-20)
(2.78917 2.22014 3.43047e-20)
(3.40272 2.38718 3.99318e-20)
(3.26027 2.27586 0)
(4.04051 2.08511 -5.03458e-21)
(4.21954 2.16304 -1.0059e-20)
(4.52597 2.88795 -5.17474e-20)
(4.33625 2.68672 -3.93003e-21)
(4.09517 2.84124 -2.82938e-20)
(3.00147 2.25495 5.63123e-21)
(3.3255 2.89402 0)
(3.60139 1.68076 -1.77025e-21)
(3.84039 1.88441 4.20512e-21)
(3.2543 1.06457 4.66418e-21)
(3.46648 1.37896 -9.40463e-21)
(3.06114 0.303648 0)
(3.19228 0.700657 0)
(3.04134 -0.50466 -1.53175e-23)
(3.06275 -0.0897261 2.65497e-27)
(3.2386 -1.21838 -2.42757e-23)
(3.12412 -0.877649 0)
(3.63759 -1.71676 0)
(3.42406 -1.48377 2.2064e-27)
(4.12421 -2.0813 0)
(3.87725 -1.90764 0)
(4.61389 -2.23663 0)
(4.36944 -2.21318 0)
(5.11828 -1.54909 0)
(4.867 -2.04826 0)
(5.41844 0.313003 0)
(5.31279 -0.73888 0)
(5.36177 2.18254 -1.7509e-20)
(5.41903 1.36975 0)
(4.98139 2.78205 0)
(5.20545 2.63375 2.96203e-21)
(4.46781 2.42184 0)
(4.75082 2.66615 -4.06521e-21)
(2.99363 1.66345 -3.64497e-21)
(3.52907 2.15852 -5.5771e-21)
(3.2356 2.00311 3.66052e-21)
(2.73971 0.451776 1.70364e-21)
(2.82134 1.12626 -2.46551e-23)
(2.85007 -0.95154 -1.47102e-21)
(2.74867 -0.265951 -2.05076e-21)
(3.18616 -2.00911 -2.46118e-23)
(3.0113 -1.53583 0)
(3.50007 -2.64924 0)
(3.35634 -2.37109 0)
(3.6858 -2.9562 0)
(3.61258 -2.84677 0)
(3.73834 -2.68499 2.48955e-24)
(3.71881 -2.92536 0)
(3.72112 -1.46865 0)
(3.7269 -2.20445 0)
(3.67121 0.440391 0)
(3.6851 -0.549872 0)
(3.5965 1.97671 3.21639e-20)
(3.62471 1.31615 -3.34624e-20)
(3.52319 2.48878 1.47674e-20)
(3.55343 2.35376 -2.81132e-21)
(3.46366 2.46471 -5.93687e-20)
(3.13942 2.44216 -3.7089e-20)
(2.93719 2.39817 -4.72481e-20)
(3.42546 2.42842 0)
(3.69808 2.46753 0)
(3.81442 2.21957 4.67623e-21)
(4.13341 2.45021 1.0667e-20)
(4.19629 2.14393 0)
(3.34623 2.87493 0)
(3.60045 3.07711 0)
(4.48545 2.12247 0)
(2.85293 2.07137 -5.36003e-20)
(3.64296 2.22807 2.32139e-20)
(3.48502 2.09834 0)
(3.53283 2.6968 2.71832e-21)
(3.88271 2.95958 -2.70383e-20)
(4.04774 2.32713 6.2844e-21)
(3.9203 2.51837 -2.46693e-21)
(3.92537 2.63393 3.24952e-20)
(3.89534 2.25974 -6.11012e-21)
(3.87609 1.88799 0)
(3.13903 2.1174 4.76913e-20)
(3.43668 3.02215 0)
(4.28868 1.90196 1.35329e-22)
(4.78947 1.92256 -2.27207e-20)
(4.47801 1.98317 -4.87425e-20)
(3.81158 1.5358 7.63158e-21)
(4.02161 1.74255 -5.53468e-21)
(3.44292 0.948952 0)
(3.65726 1.24559 -5.18499e-21)
(3.22521 0.252053 -3.32408e-27)
(3.39808 0.60238 3.45635e-27)
(3.19724 -0.459866 -1.04466e-23)
(3.26142 -0.10816 0)
(3.40892 -1.05637 0)
(3.32709 -0.775171 0)
(3.80525 -1.49482 3.98156e-23)
(3.62255 -1.2888 -2.20649e-27)
(4.29992 -1.84482 -9.0019e-28)
(4.0679 -1.67718 9.34772e-28)
(4.85257 -1.96948 0)
(4.5797 -1.96784 0)
(5.42055 -1.33382 8.44681e-23)
(5.15838 -1.78592 0)
(5.7171 0.351624 -1.16899e-22)
(5.63035 -0.599986 0)
(5.52087 2.03844 -4.4985e-21)
(5.66929 1.30898 0)
(5.03024 2.46613 7.55825e-21)
(5.30294 2.40864 6.56851e-21)
(4.40834 2.05464 -3.64225e-21)
(4.73215 2.30732 -3.45352e-21)
(3.8275 1.54979 -1.96967e-20)
(4.12153 1.78511 3.63618e-21)
(3.63855 1.87803 1.70466e-21)
(4.14232 2.10712 -2.1905e-23)
(3.91166 1.96397 -2.11796e-21)
(3.10894 1.46546 7.91543e-22)
(3.34692 1.75017 -6.20355e-22)
(2.88772 0.416056 9.57883e-23)
(2.95556 1.00573 -3.03956e-22)
(3.02014 -0.834225 0)
(2.91298 -0.21652 2.40886e-22)
(3.37521 -1.84058 -1.7702e-23)
(3.18468 -1.38017 -3.12227e-28)
(3.75707 -2.52409 0)
(3.56943 -2.21984 0)
(4.06066 -2.90654 -8.91092e-23)
(3.91583 -2.76155 0)
(4.26693 -2.6947 -2.00346e-22)
(4.16297 -2.90344 0)
(4.36529 -1.51294 0)
(4.32083 -2.22791 0)
(4.30296 0.374488 0)
(4.34576 -0.597395 0)
(4.12354 1.906 0)
(4.22151 1.25292 0)
(3.88759 2.38805 0)
(4.00821 2.26537 1.50286e-21)
(3.78149 2.34934 -1.73212e-20)
(4.2357 2.50969 -7.53506e-21)
(4.33912 2.27414 0)
(3.55597 1.69489 -3.90274e-21)
(3.58616 1.38899 2.42076e-20)
(2.97805 1.92426 0)
(3.31389 1.92103 -9.26096e-22)
(2.71501 1.79366 -2.74822e-20)
(2.83826 1.6418 7.74961e-21)
(2.73342 2.04336 2.91651e-20)
(2.67004 1.95671 -6.11758e-21)
(3.13709 2.18599 -2.18383e-21)
(2.88589 2.13436 -2.62062e-20)
(3.85355 2.16632 -7.47902e-20)
(3.47497 2.20958 7.47635e-21)
(4.6063 1.95844 0)
(4.23364 2.08568 6.84822e-20)
(4.9409 1.80041 4.94946e-20)
(3.50683 2.8548 -2.7408e-21)
(3.60127 2.98263 -1.17013e-26)
(3.70092 2.70762 2.47716e-21)
(3.77075 2.79069 0)
(4.06439 2.67134 0)
(3.73292 2.47913 0)
(4.59095 2.43694 1.64857e-21)
(4.43317 2.71796 1.815e-22)
(3.59045 2.10752 -4.88767e-21)
(3.33565 1.21898 -4.9986e-21)
(3.23409 1.46226 -1.04382e-20)
(5.01773 1.71528 2.41222e-20)
(5.22004 1.61522 -4.00985e-20)
(3.51762 2.97528 -1.22633e-26)
(4.49156 1.68985 4.95569e-21)
(4.70041 1.80009 1.14952e-21)
(4.01487 1.33732 5.78102e-21)
(4.19921 1.58316 0)
(3.63038 0.799318 -3.41613e-27)
(3.80953 1.10182 -6.50404e-21)
(3.39037 0.180461 0)
(3.53232 0.496308 0)
(3.36673 -0.422017 5.75957e-23)
(3.40983 -0.130102 0)
(3.56222 -0.918265 0)
(3.49304 -0.688773 0)
(3.91538 -1.27925 -9.03281e-23)
(3.76505 -1.11567 0)
(4.36587 -1.57769 -3.30681e-23)
(4.16075 -1.44384 0)
(4.96633 -1.67065 0)
(4.66969 -1.68393 0)
(5.59149 -1.11656 -4.74683e-23)
(5.31319 -1.52017 0)
(5.89696 0.35862 5.99208e-23)
(5.82103 -0.475843 0)
(5.61626 1.84826 3.39269e-23)
(5.82699 1.1998 -4.2855e-27)
(5.03025 2.18676 -3.13357e-23)
(5.33993 2.16903 0)
(4.40423 1.75151 -1.24434e-21)
(4.70472 2.00829 -2.7791e-21)
(3.89481 1.27073 1.61107e-20)
(4.14047 1.48476 1.74187e-20)
(3.42819 0.937327 -3.11913e-20)
(3.66402 1.11438 -1.02063e-21)
(4.14876 1.93057 1.08964e-21)
(4.694 2.20214 -1.81683e-21)
(4.39333 2.09072 0)
(3.68969 1.62899 1.07195e-22)
(3.92919 1.76004 8.77126e-23)
(3.21492 1.28108 8.12121e-23)
(3.43845 1.50583 7.45565e-23)
(3.03592 0.414228 -1.22438e-23)
(3.07992 0.916135 5.05609e-23)
(3.20566 -0.704916 0)
(3.0816 -0.145823 0)
(3.57895 -1.6557 -1.66434e-24)
(3.37351 -1.21348 1.87063e-27)
(4.00497 -2.33888 1.12523e-27)
(3.77954 -2.02557 -1.19078e-27)
(4.41552 -2.75801 2.19287e-23)
(4.19925 -2.58774 0)
(4.76922 -2.60223 0)
(4.5923 -2.78186 0)
(4.97934 -1.5059 2.47194e-22)
(4.90458 -2.17908 0)
(4.94395 0.300045 0)
(5.0113 -0.638511 0)
(4.66071 1.76827 1.80005e-22)
(4.84679 1.14863 0)
(4.27261 2.23522 -1.74276e-22)
(4.48943 2.12852 1.29391e-21)
(3.8972 2.03939 -1.12233e-20)
(4.11342 2.17509 0)
(3.50054 1.73012 1.10089e-20)
(3.71663 1.90199 8.28006e-21)
(3.34498 1.53286 -4.41011e-21)
(2.63915 1.41564 0)
(2.87391 1.13768 -5.69034e-22)
(2.72787 1.30277 -7.48247e-21)
(2.67749 1.60473 0)
(2.6141 1.52635 0)
(3.09729 1.76192 -4.16765e-20)
(2.82894 1.70232 -8.8875e-27)
(3.91793 1.79914 1.82933e-20)
(3.46502 1.81979 7.40478e-20)
(4.84436 1.62393 0)
(4.40223 1.73718 -6.22156e-20)
(4.89099 2.58535 -6.18151e-23)
(5.02819 2.29953 1.62738e-21)
(3.12831 1.02583 2.90483e-20)
(3.22471 0.703368 6.75816e-20)
(5.44298 1.32842 -5.42837e-20)
(5.18785 1.48204 2.00402e-20)
(3.62165 2.8032 -2.14014e-25)
(3.57642 2.84588 0)
(3.80388 2.81078 0)
(3.63383 2.6872 -2.19867e-25)
(4.18898 2.88923 -4.97223e-23)
(3.48786 2.37295 -4.43444e-21)
(4.66885 2.89853 1.00513e-22)
(3.24664 1.91092 0)
(5.39151 2.3815 3.34188e-20)
(5.23359 2.7184 -8.27672e-23)
(2.94979 1.19278 1.85949e-20)
(3.0585 0.348156 -7.24906e-20)
(2.92813 0.685645 -1.33257e-20)
(5.4017 1.91774 -1.01049e-20)
(5.82099 2.31264 -3.36448e-20)
(5.8552 1.85051 -2.64445e-20)
(2.96967 -0.0906576 -4.4433e-20)
(3.04686 0.304281 9.15769e-20)
(2.99841 0.0597528 1.54901e-20)
(5.59233 1.14897 -1.54626e-20)
(5.54577 0.998295 0)
(5.69727 0.908069 1.83599e-20)
(3.54151 2.88868 -1.23199e-26)
(5.14927 1.49466 -2.28769e-23)
(5.37998 1.43093 -1.18778e-20)
(4.60775 1.4588 -5.87357e-21)
(4.84698 1.58654 2.26086e-23)
(4.1329 1.11615 0)
(4.32305 1.36405 0)
(3.75441 0.640249 0)
(3.90694 0.921795 0)
(3.53808 0.124419 0)
(3.63158 0.394533 0)
(3.51672 -0.364197 0)
(3.53201 -0.133277 0)
(3.68167 -0.76402 -7.87511e-27)
(3.61455 -0.595837 8.18292e-27)
(3.97874 -1.07833 5.05057e-23)
(3.85591 -0.949099 7.30828e-27)
(4.40168 -1.32576 3.30681e-23)
(4.19958 -1.24225 0)
(5.01182 -1.35984 0)
(4.71686 -1.40242 0)
(5.59902 -0.881631 -3.91903e-23)
(5.34433 -1.23198 0)
(5.88337 0.36584 5.0435e-23)
(5.81003 -0.337794 0)
(5.65519 1.58771 -3.39278e-23)
(5.84187 1.05915 0)
(5.04922 1.85639 3.72394e-23)
(5.38082 1.85795 1.26845e-27)
(4.37664 1.45085 5.8602e-21)
(4.70225 1.69847 0)
(3.80509 0.995667 -8.48402e-21)
(4.07336 1.21012 -7.38108e-21)
(3.33668 0.692392 3.64366e-20)
(3.55172 0.842141 -2.37569e-20)
(3.15952 0.521471 -8.09186e-20)
(4.68948 1.81666 -2.98798e-21)
(5.01914 1.88837 1.25525e-20)
(4.10326 1.65891 7.67807e-24)
(4.37334 1.75295 1.23686e-22)
(3.69524 1.39806 2.18428e-21)
(3.89416 1.52544 -2.31191e-21)
(3.30614 1.11165 1.64626e-23)
(3.4872 1.28866 -7.57273e-23)
(3.15991 0.414991 1.22323e-23)
(3.18822 0.820328 7.84359e-27)
(3.34712 -0.55067 0)
(3.20629 -0.0568975 0)
(3.75634 -1.44853 7.09818e-27)
(3.52121 -1.02036 -7.50983e-27)
(4.2267 -2.12293 0)
(3.97382 -1.81347 0)
(4.7131 -2.54338 2.4816e-23)
(4.4631 -2.37277 0)
(5.18502 -2.43681 0)
(4.96747 -2.58192 0)
(5.50791 -1.46624 -2.47198e-22)
(5.40008 -2.06847 0)
(5.50491 0.206433 0)
(5.58129 -0.661105 0)
(5.14329 1.57397 -4.00487e-23)
(5.37786 0.994826 -4.78789e-26)
(4.63333 2.01634 1.6933e-22)
(4.90874 1.91512 0)
(4.15312 1.82819 0)
(4.40456 1.96494 3.67132e-24)
(3.69914 1.53024 -1.42429e-20)
(3.9433 1.67658 -1.31447e-23)
(3.53172 1.33674 -2.61863e-20)
(2.82153 0.734061 1.84105e-20)
(2.98363 0.623906 -1.28128e-20)
(2.58726 0.887599 0)
(2.68168 0.840446 0)
(2.61228 1.03421 -3.56314e-24)
(2.55457 0.960536 -5.89032e-27)
(3.08056 1.18419 -5.12718e-24)
(2.77938 1.12025 -9.95177e-27)
(3.94306 1.2674 -6.12695e-21)
(3.47775 1.25222 -2.39203e-26)
(4.86974 1.1883 -4.46177e-20)
(4.42189 1.25126 2.88829e-20)
(5.26062 1.09793 -4.10674e-21)
(3.68269 2.84886 4.00016e-25)
(3.52286 2.77307 -6.00085e-26)
(3.8761 3.00386 0)
(3.41763 2.64692 2.57173e-25)
(4.32317 3.06904 9.88848e-23)
(3.2068 2.22088 4.44298e-21)
(4.9044 3.01182 -6.79431e-22)
(2.88262 1.59821 -4.85595e-22)
(5.58312 2.64031 -1.79123e-21)
(2.74461 0.775975 0)
(6.30561 1.60262 2.92291e-20)
(6.22651 1.92678 0)
(2.74634 0.230827 -1.44261e-20)
(3.04185 -0.190169 7.94702e-20)
(3.01923 -0.603142 4.0216e-20)
(6.14409 1.18109 -1.95723e-21)
(6.603 0.990611 7.1183e-20)
(6.44921 0.779108 9.32582e-23)
(3.12778 -0.436842 -4.80012e-21)
(3.34383 -0.417991 9.09717e-20)
(3.40597 -0.699794 8.36463e-20)
(5.63562 0.53729 0)
(5.77217 0.516308 5.01195e-20)
(5.60355 0.951534 -1.51326e-20)
(5.75536 0.789674 1.58984e-20)
(3.52191 2.87484 7.88415e-26)
(5.16275 1.22964 5.36056e-23)
(5.41791 1.24873 1.15221e-20)
(4.63601 1.17992 1.42995e-21)
(4.90372 1.36574 -2.28518e-21)
(4.1758 0.879346 -2.98811e-23)
(4.39508 1.14361 2.75911e-26)
(3.83047 0.475662 0)
(3.99113 0.752706 0)
(3.64331 0.0471863 0)
(3.73325 0.304927 0)
(3.63597 -0.349203 7.13775e-23)
(3.64163 -0.14577 0)
(3.80208 -0.675127 0)
(3.73265 -0.538521 0)
(4.07326 -0.933678 0)
(3.96007 -0.848836 0)
(4.47531 -1.05613 0)
(4.28467 -1.05606 0)
(5.00046 -1.03554 0)
(4.75309 -1.09675 0)
(5.52844 -0.663576 2.1909e-24)
(5.29439 -0.948894 0)
(5.71251 0.367136 3.54978e-23)
(5.69799 -0.223617 3.65459e-27)
(5.43412 1.34516 0)
(5.62022 0.93411 0)
(4.89658 1.48599 1.98097e-23)
(5.19534 1.53141 -1.26846e-27)
(4.25067 1.09218 5.22197e-23)
(4.57559 1.32596 1.37856e-26)
(3.72181 0.730804 9.37616e-21)
(3.95614 0.90255 7.69023e-24)
(3.43797 0.529254 -5.09171e-21)
(3.55054 0.636213 -4.4719e-21)
(3.34343 0.184865 -3.57918e-20)
(3.37062 0.40044 2.43917e-20)
(3.33018 -0.101277 -1.01543e-19)
(5.37366 1.52169 -1.13532e-21)
(5.75973 1.3943 2.46347e-22)
(4.67848 1.52667 1.08337e-23)
(4.99617 1.56405 0)
(4.12418 1.43303 -7.58793e-24)
(4.38016 1.47997 -1.25267e-22)
(3.75774 1.2272 0)
(3.9133 1.34679 0)
(3.41163 0.982554 4.84248e-24)
(3.5796 1.11596 0)
(3.26508 0.440214 0)
(3.28446 0.76889 0)
(3.45042 -0.387501 0)
(3.31235 0.0403734 0)
(3.85516 -1.20092 -4.1036e-23)
(3.62389 -0.809318 0)
(4.36833 -1.85392 0)
(4.1045 -1.55449 0)
(4.93077 -2.27738 4.23699e-23)
(4.66095 -2.10521 0)
(5.49537 -2.22627 7.99492e-23)
(5.24551 -2.33226 0)
(5.9008 -1.37675 1.39137e-22)
(5.75263 -1.90856 -7.28633e-27)
(5.92649 0.110646 1.48575e-22)
(5.98414 -0.660788 9.37439e-26)
(5.51721 1.34169 -4.41469e-23)
(5.76507 0.817804 0)
(4.8984 1.74891 0)
(5.21004 1.6435 0)
(4.35072 1.58336 0)
(4.59221 1.70581 -3.67634e-24)
(3.89556 1.31142 1.87667e-20)
(4.10003 1.43966 1.29052e-23)
(3.68539 1.14697 -1.62467e-20)
(3.15047 0.174576 0)
(3.32776 0.116271 9.79339e-20)
(2.8132 0.250777 -6.81394e-21)
(2.98381 0.227124 -5.47357e-21)
(2.52034 0.293897 2.50221e-24)
(2.64058 0.281547 3.2618e-27)
(2.52078 0.400182 7.12569e-24)
(2.46998 0.350737 1.19641e-26)
(3.00649 0.506942 -2.05365e-26)
(2.69255 0.456856 2.08809e-26)
(3.94344 0.592891 -1.31122e-20)
(3.43271 0.56345 2.54522e-26)
(4.96943 0.5953 4.44348e-20)
(4.47735 0.609449 1.33609e-20)
(5.36292 0.565482 3.71736e-20)
(3.66935 2.99436 0)
(3.40771 2.78723 2.24122e-26)
(3.91581 3.17359 0)
(3.1582 2.5556 -1.25035e-24)
(4.43204 3.12788 -1.31647e-22)
(2.86963 1.90169 -5.10521e-24)
(5.10939 2.85659 4.9776e-22)
(2.54859 1.11586 3.66356e-24)
(5.87492 2.11023 2.1744e-21)
(2.63228 0.22686 -2.37907e-23)
(6.42793 1.04984 0)
(2.62177 -0.361742 -1.54552e-20)
(6.51872 0.0938979 1.32521e-20)
(6.54574 -0.0790378 -1.31105e-19)
(3.25749 -0.994152 1.2067e-21)
(3.52913 -0.88378 -8.89602e-20)
(3.22208 -0.728561 -7.69918e-20)
(5.78771 0.483173 -3.27875e-20)
(3.43862 2.9534 -1.84184e-25)
(5.51955 0.76369 -3.35798e-21)
(5.74331 0.220893 -4.94429e-20)
(5.70016 0.732111 2.16221e-20)
(5.09239 1.01136 2.43389e-22)
(5.38193 1.0554 3.03085e-21)
(4.59946 0.959799 -1.42826e-21)
(4.89983 1.10764 2.66821e-21)
(4.17341 0.705631 -7.47008e-21)
(4.41617 0.900579 6.69072e-21)
(3.86318 0.371689 -6.81253e-23)
(4.03261 0.564382 3.38132e-26)
(3.71363 0.030642 -7.1399e-23)
(3.79382 0.199259 -3.58106e-26)
(3.75218 -0.264897 1.53409e-24)
(3.73251 -0.14027 0)
(3.92872 -0.518324 0)
(3.84035 -0.424156 0)
(4.19777 -0.7261 -6.94508e-23)
(4.05091 -0.663086 0)
(4.57522 -0.832567 3.10658e-26)
(4.37107 -0.812748 -3.22581e-26)
(5.00192 -0.827694 2.65674e-26)
(4.77586 -0.859922 -2.75777e-26)
(5.41713 -0.513779 -2.16636e-26)
(5.21387 -0.723724 2.24793e-26)
(5.50765 0.284955 -8.07425e-23)
(5.5173 -0.163164 2.12298e-26)
(5.1246 1.1298 5.98212e-23)
(5.35265 0.779625 2.53235e-26)
(4.59828 1.20732 1.39697e-23)
(4.85792 1.2891 0)
(4.12573 0.836399 7.11205e-23)
(4.35022 1.04814 3.311e-26)
(3.81273 0.596623 7.29445e-23)
(3.94662 0.707263 0)
(3.6359 0.477948 5.82882e-21)
(3.71853 0.554058 0)
(3.49408 0.189328 2.5426e-20)
(3.56104 0.371813 -2.77568e-20)
(3.48555 -0.25064 0)
(3.46826 -0.0285059 2.89682e-21)
(3.67254 -0.608568 8.60779e-20)
(3.56443 -0.444848 -8.17658e-20)
(5.81906 0.909157 -7.03065e-22)
(6.18818 0.0707406 3.56643e-21)
(6.05937 0.560736 -3.68119e-21)
(5.28021 1.20694 1.76595e-22)
(5.54209 1.10891 -1.27331e-23)
(4.77042 1.22922 0)
(5.0034 1.23965 0)
(4.34048 1.1794 -1.89433e-23)
(4.54776 1.19883 0)
(3.94097 1.04399 0)
(4.11257 1.13662 0)
(3.59128 0.812162 -2.13016e-23)
(3.76045 0.927053 0)
(3.35586 0.446538 0)
(3.42402 0.670353 0)
(3.50154 -0.231011 0)
(3.37888 0.136155 0)
(3.9021 -0.967301 -6.088e-24)
(3.68407 -0.609736 0)
(4.42877 -1.56451 0)
(4.16895 -1.286 0)
(5.03024 -1.9599 -3.81673e-27)
(4.74127 -1.78974 4.03978e-27)
(5.653 -1.93758 -7.99062e-23)
(5.36355 -2.01438 -4.67094e-26)
(6.09989 -1.23688 -2.24238e-22)
(5.91824 -1.6763 -9.47144e-26)
(6.1485 0.0258545 -5.66242e-23)
(6.17482 -0.645855 0)
(5.72678 1.08101 -9.58934e-23)
(5.97131 0.624597 9.06038e-26)
(5.0722 1.44355 -3.18385e-26)
(5.37944 1.32346 3.37898e-26)
(4.50375 1.35288 0)
(4.72373 1.41629 0)
(4.07887 1.10929 -2.6152e-21)
(4.22794 1.20587 4.58968e-21)
(3.74938 0.829692 0)
(3.82117 0.956412 -7.37983e-22)
(3.57976 0.601165 0)
(3.20533 -0.210989 0)
(3.60669 -0.179605 -1.20431e-21)
(3.41801 -0.205839 -3.26297e-20)
(2.76579 -0.293121 9.83196e-22)
(2.9787 -0.245634 4.50431e-21)
(2.47577 -0.304725 -1.62459e-25)
(2.59392 -0.297762 0)
(2.4862 -0.274368 -3.56852e-24)
(2.42429 -0.281499 0)
(2.97778 -0.224252 0)
(2.66794 -0.251708 0)
(3.88271 -0.108457 1.53993e-24)
(3.3912 -0.170355 0)
(4.90377 0.0149218 0)
(4.40292 -0.034209 0)
(5.62026 0.0799896 0)
(5.32473 0.0492115 1.67264e-20)
(5.77949 0.218157 0)
(5.76354 0.123666 -1.32907e-20)
(6.20608 -0.794847 -8.49912e-21)
(6.05419 -0.520463 0)
(3.72781 -0.956074 4.71738e-21)
(3.78993 -0.773537 5.32065e-21)
(3.59449 3.10459 6.21674e-24)
(3.21522 2.765 0)
(3.74196 0.33421 0)
(3.91327 3.18697 2.28221e-23)
(2.83959 2.28517 8.09007e-25)
(5.61631 0.266112 1.7468e-20)
(5.68797 -0.0792731 0)
(5.58658 -0.0323136 0)
(4.47604 2.88673 8.32477e-23)
(2.55634 1.3287 1.37171e-23)
(5.24208 2.16259 0)
(2.32548 0.477419 3.77561e-23)
(5.95568 0.967562 0)
(2.58083 -0.459158 0)
(6.28505 -0.328664 0)
(2.62079 -0.891665 7.74103e-21)
(6.07401 -1.32866 2.53909e-20)
(3.6237 -1.23909 2.20183e-21)
(5.67576 -1.04959 0)
(5.61671 -1.56043 -4.69357e-21)
(3.32848 -1.0214 -3.81103e-20)
(3.96008 -0.982539 6.82127e-20)
(3.88592 -0.915413 -7.60453e-20)
(3.3025 3.00175 1.29925e-25)
(5.39606 0.674106 5.96855e-21)
(5.55358 0.542917 0)
(4.99331 0.83147 -3.24911e-21)
(5.23553 0.830915 -2.78323e-21)
(4.53688 0.754671 0)
(4.80223 0.852062 2.54506e-21)
(4.1526 0.533785 0)
(4.37081 0.674895 9.29141e-22)
(3.91052 0.264582 6.80921e-23)
(4.03533 0.40642 0)
(3.8409 0.00335531 1.42882e-22)
(3.86589 0.136196 0)
(3.91842 -0.242138 1.3982e-25)
(3.86958 -0.111834 0)
(4.08226 -0.485501 -7.29483e-23)
(3.98898 -0.363044 -7.4348e-26)
(4.32335 -0.659178 6.93816e-23)
(4.18643 -0.587301 7.2409e-26)
(4.60319 -0.714676 -6.90287e-23)
(4.45524 -0.701292 6.4242e-26)
(4.90191 -0.646891 -6.18002e-26)
(4.73791 -0.700104 5.9881e-26)
(5.22754 -0.373931 -6.34598e-23)
(5.06217 -0.54352 6.00756e-26)
(5.33483 0.208377 1.17446e-22)
(5.32665 -0.12208 0)
(4.96791 0.873724 1.15516e-23)
(5.20082 0.574424 6.62053e-26)
(4.44471 0.994282 -1.39662e-22)
(4.69066 1.02775 0)
(4.1223 0.708179 -7.10788e-23)
(4.25822 0.871753 -7.4443e-26)
(3.95298 0.52225 0)
(4.03319 0.606594 0)
(3.78726 0.395194 1.04621e-20)
(3.88069 0.478874 -1.0972e-20)
(3.62227 0.107358 0)
(3.70005 0.283014 -5.44256e-27)
(3.59245 -0.285487 3.71293e-21)
(3.58642 -0.0902691 -5.78499e-21)
(3.73992 -0.562076 4.54207e-20)
(3.65262 -0.442648 -4.53265e-20)
(3.9896 -0.715724 0)
(3.85514 -0.649528 -5.29685e-21)
(5.79834 0.0073552 5.41011e-21)
(5.48221 -0.715956 -6.94632e-21)
(5.72118 -0.376919 -1.93197e-20)
(5.52153 0.646506 8.06764e-21)
(5.7085 0.356716 -5.33114e-21)
(5.04548 0.969681 3.97716e-21)
(5.27675 0.843046 -1.21272e-20)
(4.65455 1.0953 -2.03591e-23)
(4.82614 1.04831 1.60886e-22)
(4.37031 1.05301 1.89439e-23)
(4.4975 1.08814 0)
(4.05833 0.917192 8.89547e-26)
(4.20248 0.996816 -9.40646e-26)
(3.77991 0.667413 -9.78109e-26)
(3.90951 0.799091 1.03448e-25)
(3.50847 0.394419 -2.69838e-23)
(3.62457 0.542818 0)
(3.52953 -0.0820769 1.03024e-25)
(3.46889 0.194911 -1.08987e-25)
(3.89663 -0.724299 4.70251e-23)
(3.68954 -0.392057 1.04514e-25)
(4.43258 -1.28508 0)
(4.16674 -1.01357 0)
(5.04075 -1.64926 2.01607e-23)
(4.74045 -1.48643 -2.07139e-27)
(5.65887 -1.65778 2.86434e-26)
(5.36183 -1.70398 -3.03262e-26)
(6.10605 -1.10954 4.50358e-23)
(5.91087 -1.46651 0)
(6.19595 -0.0519726 -9.20406e-23)
(6.19637 -0.621833 0)
(5.78506 0.813804 1.92254e-23)
(6.02343 0.433887 0)
(5.15097 1.14038 -1.30945e-26)
(5.44173 1.01364 1.38916e-26)
(4.5971 1.12021 0)
(4.80635 1.13969 0)
(4.2071 0.921908 5.69126e-21)
(4.32703 0.994272 5.47201e-21)
(3.88495 0.695006 -2.84796e-20)
(3.952 0.7766 1.54452e-20)
(3.71039 0.499891 0)
(3.59349 -0.528341 -7.58445e-21)
(3.78304 -0.461713 3.15833e-20)
(3.19496 -0.651398 0)
(3.39776 -0.600695 7.44935e-21)
(2.80472 -0.791044 -4.25257e-24)
(3.00109 -0.732665 0)
(2.47969 -0.847461 -2.33236e-24)
(2.61883 -0.810151 -1.0751e-26)
(2.4652 -0.892914 0)
(2.41529 -0.866502 0)
(2.9312 -0.899242 0)
(2.63369 -0.899888 0)
(3.85641 -0.798577 -1.53112e-24)
(3.35293 -0.860518 0)
(4.85957 -0.601928 0)
(4.37748 -0.702134 0)
(5.54289 -0.355483 1.59607e-20)
(5.2594 -0.48133 -1.61624e-20)
(5.68832 -0.209505 -3.21182e-21)
(5.17413 -1.34285 0)
(5.12354 -0.94219 1.70918e-20)
(4.01437 -1.01218 5.93062e-20)
(4.13806 -0.776424 -7.3772e-20)
(3.46132 3.02016 1.17353e-24)
(2.95546 2.53105 7.4437e-25)
(5.36393 0.246394 -3.2033e-20)
(5.35142 0.106482 3.12915e-20)
(3.82308 2.85126 -2.73808e-22)
(2.52439 1.72663 0)
(4.44513 2.09164 -9.53377e-22)
(2.28445 0.522757 -3.04006e-23)
(5.20477 0.814941 0)
(2.25553 -0.245131 0)
(5.73456 -0.69815 -1.34198e-20)
(2.54279 -1.21256 2.01063e-22)
(5.76825 -1.84775 0)
(2.86324 -1.19392 7.46047e-21)
(5.34852 -2.25932 3.39738e-20)
(3.87821 -1.37673 0)
(4.97861 -1.89764 4.04989e-20)
(3.49219 -1.24321 3.32974e-20)
(4.77874 -0.974249 -5.36206e-20)
(4.73894 -1.31957 5.49343e-20)
(4.17675 -1.06315 -5.12033e-20)
(4.73098 -0.715706 -1.24999e-20)
(4.51235 -0.675053 -1.28148e-20)
(4.51249 -0.89349 6.53483e-20)
(4.04035 -0.630201 -6.3799e-20)
(4.19792 -1.02651 -2.0107e-21)
(4.27076 -0.823068 1.60768e-19)
(3.09684 2.85631 0)
(5.19635 0.526206 -2.88197e-21)
(5.31585 0.437801 1.37902e-20)
(4.844 0.630711 0)
(5.03554 0.637315 0)
(4.45326 0.55124 0)
(4.65656 0.63895 0)
(4.14294 0.389231 0)
(4.30167 0.502922 0)
(3.97711 0.21329 6.76601e-23)
(4.05344 0.308818 4.15038e-27)
(3.93926 0.036214 -7.15873e-23)
(3.94241 0.117437 1.43067e-25)
(3.97177 -0.159881 -7.31936e-23)
(3.93465 -0.0713731 1.47327e-25)
(4.05296 -0.34959 7.28777e-23)
(3.98402 -0.269202 1.48486e-25)
(4.2129 -0.482731 0)
(4.10337 -0.428542 -4.66277e-27)
(4.4547 -0.550902 6.89625e-23)
(4.30839 -0.526412 4.46324e-27)
(4.77011 -0.490412 0)
(4.59553 -0.540295 4.26696e-27)
(5.06328 -0.245283 -7.8073e-24)
(4.92232 -0.387984 0)
(5.16059 0.171229 -1.39875e-22)
(5.14438 -0.0547315 0)
(4.90013 0.641464 -7.16059e-23)
(5.07439 0.422629 1.51247e-25)
(4.4508 0.793663 1.54402e-22)
(4.67038 0.781009 0)
(4.16781 0.616934 0)
(4.28415 0.728115 0)
(4.01777 0.452163 0)
(4.09272 0.532241 0)
(3.85516 0.312215 0)
(3.94598 0.396585 0)