/*--------------------------------*- C++ -*----------------------------------*\
  =========                 |
  \\      /  F ield         | OpenFOAM: The Open Source CFD Toolbox
   \\    /   O peration     | Website:  https://openfoam.org
    \\  /    A nd           | Version:  10
     \\/     M anipulation  |
\*---------------------------------------------------------------------------*/
FoamFile
{
    format      ascii;
    class       volScalarField;
    location    "50.5";
    object      p;
}
// * * * * * * * * * * * * * * * * * * * * * * * * * * * * * * * * * * * * * //

dimensions      [0 2 -2 0 0 0 0];

internalField   nonuniform List<scalar> 
28942
(
-0.00376118
-0.00313294
0.00203966
0.00952013
0.00982025
0.00010854
0.000329312
3.4946e-05
0.00273561
0.00282366
-0.00230723
-0.00257667
-0.00296112
-0.00287843
0.000218269
0.000550654
0.00990277
0.0101726
0.0055969
0.00715797
0.00817516
0.00816696
-0.00522357
-0.00504734
-0.00357598
-0.00379846
0.0139005
0.0138496
0.00354787
0.00349117
2.59652e-05
6.33857e-05
0.000859483
0.000356929
0.00716692
0.00837289
0.0109101
0.012869
2.64125e-06
0.0150647
0.0091242
0.0116221
0.00182928
0.0017526
0.00180519
0.000328409
0.000183969
0.000262815
0.00030317
0.000423832
0.000798104
0.00281808
0.00288851
0.00286745
0.00302325
-0.00234269
-0.00103827
-0.00336946
-0.00321478
-0.00348682
-0.00355981
-0.00356078
-0.00345854
-0.000101444
-0.00180596
-0.000346182
0.000987699
0.00944427
0.00894768
-0.00335118
-0.00356169
-0.00329617
0.0090085
0.00886061
0.00915229
-0.00146153
-0.00107327
-0.000732311
0.00237472
0.00277422
0.00186378
0.000766971
-0.00630591
-0.00753597
0.00110107
0.00382828
0.00487052
0.00565887
0.00404216
0.00416648
0.00613437
0.00551242
-0.00137999
-0.00167349
-0.00195305
-0.00179013
-0.00161439
0.00535645
0.0066481
-0.00784728
0.0113175
0.0105185
0.00581238
0.00940961
0.000924824
0.000834934
0.000742711
0.00549717
0.00568982
0.00568383
-0.00321246
-0.00313286
-0.00311641
-0.00259838
-0.00272057
0.0158561
0.0138501
0.0132922
0.0149238
0.00166224
0.00474488
0.00344202
0.00508829
0.00476528
0.0155277
0.0158234
0.0144831
0.00593071
0.00701021
0.000221024
0.000329599
0.000131302
0.0105188
0.0110224
0.00770146
0.00735366
0.0128106
0.00671545
0.00800726
0.00907451
-0.00189095
-0.00240337
0.00737599
0.00175055
0.00183358
-0.00116429
-0.00142926
-0.00096641
-0.00250293
0.00661574
0.00574265
0.00373317
0.000297577
0.000237373
0.000100406
0.000240291
0.00755286
0.00681749
-0.00184406
-0.00196156
-0.00185653
-0.00412873
-0.00367188
8.0312e-05
-0.00284647
-0.000491469
0.00841724
0.00852608
0.00962026
0.00915562
0.00773331
0.00311385
0.00303165
0.00327762
0.00315383
0.00506756
0.00484533
0.00518011
0.00540062
0.00533821
0.00540827
0.00561919
0.00617283
0.00586705
0.00546466
0.00579471
0.00650047
0.00725377
0.007546
-0.000551531
-0.000532908
-0.00245556
0.000246214
8.0493e-05
-0.00197282
-0.00206211
0.000332058
0.000394804
0.000355673
0.000285312
0.0020092
0.00197077
0.00194197
-0.002909
-0.00309731
-0.00276039
-0.00433331
-0.00481695
-0.00412633
-0.00471518
-0.00648329
-0.00517938
0.0160501
0.0167604
0.0165279
0.000963278
0.00110851
0.000995184
0.0103728
0.00994496
0.0100253
0.00156169
0.00154038
0.00158299
0.00151895
0.00149787
0.00147672
0.00147762
0.00145573
0.0014567
0.00149844
0.00151942
0.00154061
0.00156206
0.00158347
0.00143521
0.00143565
0.00160399
0.00160446
0.00162517
0.0014147
0.00141477
0.0016256
0.00139394
0.00137335
0.00139426
0.00137383
0.00164687
0.00164732
0.00135298
0.00135348
0.00166766
0.00166834
0.00133275
0.00133328
0.00168861
0.00168926
0.00131268
0.00131322
0.00170944
0.00171014
0.00129274
0.00129333
0.00173017
0.00173083
0.00127304
0.0012735
0.00175075
0.0017514
0.00125344
0.00125386
0.00177113
0.0017718
0.00123398
0.00123429
0.00179114
0.0017917
0.00121463
0.00121471
0.00181146
0.00181194
0.00119541
0.00119501
0.00183095
0.00183113
0.00117576
0.00117556
0.00185048
0.00185063
0.00115581
0.00115607
0.00182991
0.0018494
0.00186987
0.00186977
0.00178947
0.0018101
0.00174877
0.00176952
0.001708
0.00172855
0.0016662
0.00168723
0.00162375
0.00164497
0.00158186
0.00160357
0.00153983
0.00156081
0.00149726
0.00151829
0.00145489
0.00147605
0.00141342
0.00143415
0.0013724
0.00139286
0.00133192
0.0013521
0.00129203
0.00131191
0.00125274
0.00127233
0.00121405
0.00123333
0.00117523
0.00119485
0.0011557
0.00113621
0.00113639
0.00119509
0.00115617
0.00117563
0.00123422
0.0012146
0.00127337
0.00125378
0.00131304
0.00129315
0.0013533
0.00133311
0.00139412
0.00137366
0.00143537
0.00141474
0.00147736
0.0014564
0.00151952
0.00149851
0.00156157
0.00154043
0.00160444
0.00158337
0.00164667
0.00162528
0.00168882
0.00166787
0.00173023
0.00170966
0.00177094
0.00175064
0.00181094
0.00179084
0.00184924
0.00183039
0.00186839
0.00186916
0.00113608
0.00113665
0.00188822
0.00188649
0.00188847
0.00188873
0.00182751
0.00186682
0.00184718
0.00178718
0.00180761
0.00174708
0.00176704
0.00170628
0.00172682
0.00166466
0.00168556
0.00162266
0.00164368
0.0015802
0.00160151
0.00153795
0.00155948
0.00149628
0.00151677
0.00145397
0.00147504
0.0014125
0.00143319
0.00137156
0.00139197
0.00133116
0.00135129
0.00129134
0.00131118
0.00125211
0.00127165
0.00121349
0.00123273
0.00117487
0.0011942
0.00111661
0.00111672
0.00113599
0.00115548
0.00115629
0.00113702
0.00111733
0.00111684
0.0011952
0.00117573
0.00123391
0.00121438
0.00127291
0.00125334
0.00131252
0.00129265
0.00135271
0.00133255
0.00139349
0.00137304
0.00143475
0.00141408
0.0014765
0.00145555
0.0015187
0.0014975
0.00156083
0.00153976
0.00160321
0.00158223
0.0016455
0.00162445
0.00168744
0.00166655
0.00172875
0.0017082
0.00176918
0.00174912
0.0018085
0.00178904
0.00184661
0.0018277
0.00188296
0.00186524
0.00188597
0.00190457
0.00190097
0.0019058
0.00111684
0.00111759
0.00190619
0.00190367
0.00192196
0.00191868
0.00190689
0.00113609
0.001117
0.00109804
0.0010983
0.00189961
0.001923
0.00194484
0.00192387
0.00186281
0.00188158
0.00182394
0.00184341
0.00178432
0.00180445
0.00174446
0.00176423
0.00170391
0.00172434
0.00166253
0.00168329
0.00162069
0.00164166
0.00157855
0.0015996
0.00153638
0.00155745
0.00149439
0.00151539
0.00145269
0.00147352
0.00141135
0.00143197
0.0013705
0.00139087
0.00133019
0.00135028
0.00129046
0.00131025
0.0012513
0.00127081
0.00121274
0.00123195
0.00117439
0.0011935
0.00115518
0.00109757
0.00109756
0.00109756
0.00109776
0.00115631
0.00111786
0.00113714
0.00119489
0.00117558
0.00123327
0.00121395
0.0012722
0.00125267
0.00131173
0.00129189
0.00135183
0.00133171
0.00139249
0.0013721
0.00143366
0.00141303
0.00147528
0.00145441
0.00151719
0.00149622
0.00155942
0.00153832
0.00160156
0.00158047
0.00164363
0.00162267
0.00168533
0.00166455
0.0017264
0.00170597
0.00176657
0.00174663
0.00180549
0.00178625
0.001843
0.00182439
0.00187889
0.00186112
0.00191366
0.00189599
0.00193459
0.00192991
0.0019239
0.00192319
0.00109801
0.00109871
0.00193948
0.00193821
0.00193592
0.0019455
0.00194982
0.00188236
0.00196128
0.0019247
0.00192696
0.00192778
0.0018957
0.00191522
0.00185699
0.00187631
0.00181918
0.0018379
0.00178049
0.00180026
0.00174115
0.0017609
0.00170081
0.0017211
0.0016597
0.00168034
0.0016181
0.00163895
0.00157624
0.00159719
0.00153432
0.00155526
0.00149248
0.0015134
0.00145098
0.0014717
0.0014098
0.00143034
0.0013691
0.00138939
0.00132892
0.00134894
0.0012893
0.00130904
0.00125025
0.0012697
0.00121177
0.00123094
0.00117373
0.00119265
0.0011359
0.00115479
0.00109789
0.0011168
0.00107882
0.00107884
0.00107888
0.00107884
0.00107876
0.00107914
0.00107894
0.00107984
0.00107944
0.00111794
0.00108022
0.00109912
0.00115598
0.00113697
0.00119416
0.00117511
0.00123241
0.00121323
0.00127125
0.00125176
0.00131067
0.00129089
0.00135065
0.00133059
0.00139118
0.00137085
0.0014322
0.00141164
0.00147365
0.00145288
0.00151539
0.0014945
0.00155737
0.00153638
0.00159932
0.00157834
0.00164113
0.00162027
0.00168255
0.00166191
0.00172331
0.00170303
0.00176314
0.00174337
0.00180171
0.00178262
0.00183863
0.00182039
0.00187372
0.00185645
0.00190722
0.00189058
0.00193896
0.00192273
0.00195994
0.00195335
0.00194012
0.0019403
0.00195341
0.00195218
0.00109774
0.00107897
0.001061
0.00106115
0.00195717
0.00196454
0.00198712
0.00191333
0.00197219
0.00196648
0.00195002
0.0019407
0.00191428
0.00191777
0.00188856
0.00190486
0.00185043
0.00186951
0.00181402
0.00183237
0.0017761
0.00179529
0.00173704
0.00175669
0.00169702
0.00171715
0.00165625
0.00167672
0.00161497
0.00163567
0.0015734
0.00159421
0.00153175
0.00155258
0.00149019
0.00151095
0.00144887
0.0014695
0.0014079
0.00142834
0.00136738
0.00138758
0.00132736
0.0013473
0.00128788
0.00130755
0.00124896
0.00126835
0.0012106
0.00122971
0.00117282
0.00119165
0.00113521
0.00115394
0.00111638
0.00106021
0.00106011
0.00106017
0.00106046
0.00106041
0.00106066
0.0010606
0.00106075
0.00111776
0.00108002
0.00109919
0.00115542
0.00113658
0.00119319
0.00117434
0.00123134
0.0012122
0.00127005
0.00125063
0.00130933
0.00128963
0.00134917
0.00132919
0.00138954
0.0013693
0.00143037
0.00140991
0.00147162
0.00145096
0.00151315
0.00149236
0.00155485
0.00153399
0.00159654
0.00157571
0.00163804
0.00161733
0.00167911
0.00165865
0.00171951
0.00169942
0.00175893
0.00173937
0.00179707
0.00177819
0.00183356
0.00181555
0.00186804
0.00185109
0.00190048
0.00188468
0.00193045
0.00191476
0.00195915
0.00194608
0.00197824
0.00197049
0.00195621
0.0019547
0.00105996
0.0010613
0.00196409
0.00192639
0.00195611
0.00196707
0.00197651
0.00197738
0.00198061
0.00198272
0.00198419
0.00198926
0.00198322
0.00195568
0.00192258
0.00197234
0.00195142
0.00190432
0.00191066
0.00187932
0.00189575
0.00184408
0.00186171
0.00180819
0.00182634
0.0017708
0.00178968
0.00173218
0.00175163
0.00169259
0.0017125
0.00165222
0.00167249
0.00161131
0.00163182
0.00157008
0.00159072
0.00152874
0.00154941
0.00148746
0.00150809
0.0014464
0.0014669
0.00140567
0.00142599
0.00136535
0.00138546
0.00132552
0.00134538
0.00128621
0.0013058
0.00124744
0.00126676
0.00120923
0.00122827
0.00117157
0.00119034
0.00113432
0.00115295
0.00109699
0.00111565
0.00105957
0.00107845
0.00104156
0.00104083
0.00104117
0.00104212
0.00104181
0.00104249
0.00104232
0.00104256
0.00104257
0.00104253
0.00104256
0.00104286
0.00104252
0.00107976
0.00104292
0.00106134
0.00111714
0.00109852
0.00115457
0.00113586
0.00119202
0.00117323
0.00123004
0.00121097
0.00126861
0.00124926
0.00130774
0.00128811
0.0013474
0.00132751
0.00138757
0.00136743
0.0014282
0.00140784
0.0014692
0.00144866
0.00151046
0.00148981
0.00155187
0.00153117
0.00159324
0.00157257
0.00163438
0.00161386
0.00167506
0.0016548
0.00171503
0.00169516
0.00175399
0.00173466
0.00179163
0.00177301
0.00182763
0.00180987
0.00186163
0.00184491
0.00189331
0.00187786
0.00192257
0.00190808
0.00194897
0.00193656
0.00197313
0.00195993
0.00199465
0.00198546
0.00196768
0.00197425
0.00197158
0.00105908
0.00104071
0.00102433
0.00102422
0.00196839
0.00197972
0.00197972
0.00198837
0.00199477
0.0020016
0.00200422
0.0019957
0.00196862
0.00196048
0.00198311
0.00197261
0.00196795
0.00192082
0.00194241
0.00189574
0.00190562
0.00187029
0.00188586
0.00183667
0.00185361
0.0018015
0.00181932
0.00176473
0.0017833
0.00172666
0.00174584
0.00168755
0.00170722
0.00164762
0.00166768
0.00160713
0.00162744
0.00156629
0.00158674
0.0015253
0.00154581
0.00148435
0.00150482
0.00144358
0.00146394
0.00140311
0.00142331
0.00136303
0.00138302
0.00132341
0.00134317
0.0012843
0.00130379
0.00124571
0.00126494
0.00120765
0.00122661
0.00117013
0.00118883
0.00113315
0.00115158
0.00109609
0.00111463
0.00107754
0.00102335
0.00102248
0.00102299
0.0010242
0.00102384
0.00102469
0.00102449
0.00102472
0.00102476
0.00102445
0.00102463
0.00102433
0.00107961
0.00104258
0.00106106
0.00111636
0.00109797
0.00115333
0.00113486
0.00119066
0.00117193
0.00122853
0.00120953
0.00126694
0.00124767
0.00130589
0.00128635
0.00134535
0.00132556
0.0013853
0.00136527
0.00142568
0.00140544
0.0014664
0.00144601
0.00150737
0.00148687
0.00154844
0.00152791
0.00158944
0.00156897
0.00163018
0.00160987
0.00167043
0.00165039
0.00170992
0.0016903
0.00174838
0.00172931
0.00178548
0.00176713
0.00182092
0.00180344
0.00185438
0.00183793
0.00188552
0.00187029
0.00191413
0.00190016
0.00193954
0.00192734
0.00196329
0.00195086
0.00198435
0.00197332
0.00200086
0.00199173
0.00200452
0.00199424
0.0019773
0.00102236
0.00102396
0.00197804
0.00198099
0.0019921
0.00198594
0.001992
0.00200081
0.00200074
0.00200745
0.00201109
0.00201291
0.00201302
0.00200326
0.00198033
0.00195888
0.00199357
0.00198653
0.0019669
0.00194706
0.00195744
0.001915
0.0019302
0.00188742
0.00189996
0.0018609
0.00187573
0.00182849
0.00184495
0.00179411
0.00181155
0.001758
0.00177625
0.00172052
0.00173942
0.00168194
0.00170136
0.00164251
0.00166233
0.00160248
0.00162256
0.00156206
0.00158231
0.00152146
0.00154177
0.00148086
0.00150116
0.00144042
0.00146062
0.00140024
0.00142029
0.00136043
0.00138029
0.00132105
0.00134068
0.00128215
0.00130154
0.00124375
0.00126289
0.00120587
0.00122475
0.00116851
0.00118713
0.00113167
0.00115003
0.00109514
0.00111343
0.0010585
0.00107675
0.00102199
0.00104037
0.00100453
0.00100375
0.001004
0.00100561
0.00100502
0.00100649
0.00100609
0.001007
0.0010068
0.00100701
0.00100707
0.00100666
0.00100685
0.00100615
0.00100633
0.00100555
0.00100588
0.00104213
0.00100587
0.00102399
0.00107885
0.00106036
0.00111526
0.0010971
0.00115192
0.00113353
0.00118911
0.00117046
0.00122681
0.0012079
0.00126504
0.00124587
0.00130378
0.00128435
0.00134302
0.00132335
0.00138272
0.00136282
0.00142283
0.00140274
0.00146325
0.00144301
0.00150388
0.00148355
0.00154458
0.00152424
0.00158518
0.00156492
0.00162549
0.0016054
0.00166526
0.00164546
0.00170424
0.00168487
0.00174214
0.00172335
0.00177868
0.00176061
0.00181352
0.00179634
0.00184638
0.00183023
0.00187694
0.00186199
0.00190496
0.00189129
0.00192994
0.00191788
0.00195237
0.00194149
0.00197199
0.00196186
0.00199063
0.00198236
0.00200868
0.00200455
0.00200732
0.00199402
0.00199026
0.00199355
0.0019921
0.00200331
0.00200106
0.00200065
0.0020041
0.00102143
0.00100337
0.00098761
0.000987583
0.00201297
0.00201206
0.00201748
0.00201958
0.00202042
0.00201749
0.00199604
0.00198817
0.00199065
0.00201277
0.0020049
0.00200739
0.00199305
0.00197678
0.00197706
0.00194739
0.00195843
0.0019335
0.00194403
0.00190538
0.00191879
0.00187896
0.00189212
0.00185122
0.00186571
0.00181978
0.00183582
0.00178613
0.00180321
0.0017507
0.00176862
0.00171384
0.00173244
0.00167582
0.00169497
0.00163692
0.00165648
0.00159738
0.00161722
0.00155741
0.00157744
0.00151724
0.00153735
0.00147702
0.00149713
0.00143693
0.00145696
0.00139707
0.00141697
0.00135755
0.00137727
0.00131843
0.00133794
0.00127977
0.00129904
0.00124159
0.00126062
0.00120391
0.00122269
0.00116672
0.00118525
0.00113003
0.00114832
0.00109384
0.00111188
0.00105757
0.00107571
0.0010395
0.000986711
0.000985696
0.000986202
0.000988003
0.000987398
0.000988919
0.000988508
0.000989406
0.000989221
0.000989422
0.000989474
0.000989006
0.000989253
0.000988377
0.000988699
0.000988048
0.00104152
0.00100543
0.00102348
0.00107777
0.00105959
0.00111383
0.00109575
0.00115036
0.00113203
0.00118738
0.00116881
0.00122489
0.00120608
0.00126292
0.00124385
0.00130144
0.00128212
0.00134043
0.00132088
0.00137986
0.0013601
0.00141966
0.00139972
0.00145975
0.00143968
0.00150002
0.00147988
0.00154033
0.00152019
0.00158049
0.00156045
0.00162032
0.00160047
0.00165959
0.00164005
0.00169802
0.00167894
0.00173536
0.00171686
0.00177129
0.00175353
0.00180552
0.00178865
0.00183776
0.00182192
0.00186771
0.00185306
0.00189514
0.00188177
0.00191971
0.00190782
0.00194145
0.00193099
0.00196042
0.00195124
0.00197589
0.00196905
0.001992
0.00198066
0.00200672
0.00200581
0.00201967
0.00200936
0.00199873
0.00198947
0.00201793
0.00201362
0.00200375
0.0020058
0.000985376
0.000987208
0.00201795
0.0020137
0.00201551
0.00202214
0.00202247
0.00202655
0.0020282
0.00202545
0.00202039
0.00199557
0.00198209
0.00198354
0.00198441
0.00199009
0.00200316
0.00199853
0.00201223
0.00202199
0.00201788
0.00201227
0.00200572
0.00197777
0.00197521
0.00196018
0.00196454
0.00193771
0.00194934
0.00192003
0.00192986
0.00189523
0.00190796
0.00186919
0.00188234
0.00184135
0.00185566
0.00181061
0.0018263
0.00177766
0.00179439
0.0017429
0.00176049
0.00170667
0.00172496
0.00166924
0.0016881
0.0016309
0.00165018
0.00159187
0.00161146
0.00155239
0.00157218
0.00151265
0.00153254
0.00147285
0.00149276
0.00143313
0.00145298
0.00139361
0.00141334
0.0013544
0.00137397
0.00131557
0.00133494
0.00127716
0.00129631
0.00123922
0.00125813
0.00120175
0.00122043
0.00116476
0.0011832
0.00112825
0.00114645
0.00109221
0.00111017
0.00105645
0.00107436
0.00102076
0.00103855
0.000984967
0.00100278
0.000967993
0.000967115
0.000967479
0.000969294
0.000968546
0.000970542
0.000969947
0.000971449
0.000971049
0.000971914
0.000971737
0.000971939
0.000971983
0.000971527
0.000971782
0.000970753
0.000971203
0.000969896
0.000970314
0.000969171
0.00096953
0.00100465
0.000968737
0.000986847
0.00104068
0.00102263
0.00107636
0.00105858
0.00111226
0.00109425
0.00114862
0.00113039
0.00118546
0.00116699
0.00122278
0.00120406
0.00126058
0.00124162
0.00129886
0.00127966
0.00133758
0.00131817
0.00137672
0.00135711
0.00141619
0.00139642
0.00145593
0.00143604
0.00149581
0.00147587
0.00153569
0.00151577
0.0015754
0.00155559
0.00161473
0.00159514
0.00165346
0.0016342
0.00169133
0.00167253
0.00172807
0.00170987
0.00176339
0.00174594
0.001797
0.00178044
0.00182861
0.00181309
0.00185795
0.0018436
0.00188478
0.00187171
0.00190887
0.0018972
0.00193013
0.00191988
0.00194851
0.00193972
0.00196317
0.00195645
0.00197533
0.00196963
0.00197522
0.00202767
0.00202955
0.00200271
0.00199137
0.0020164
0.00201742
0.00201687
0.00202384
0.00202605
0.000984155
0.000966524
0.000951363
0.000950806
0.00203258
0.00203192
0.00203494
0.00203483
0.00203208
0.00202838
0.00198948
0.00197639
0.00198752
0.00199603
0.00200978
0.00201228
0.0020255
0.00202288
0.00201041
0.00199008
0.00200321
0.00201772
0.00197122
0.0019607
0.00196052
0.00196705
0.00194421
0.00195239
0.0019269
0.00193618
0.00190775
0.00191778
0.0018843
0.00189645
0.00185874
0.00187173
0.00183117
0.00184529
0.00180105
0.00181642
0.00176877
0.00178517
0.00173467
0.00175193
0.00169907
0.00171705
0.00166225
0.0016808
0.00162447
0.00164347
0.00158598
0.00160531
0.001547
0.00156654
0.00150773
0.0015274
0.00146836
0.00148806
0.00142904
0.00144869
0.00138988
0.00140944
0.001351
0.00137041
0.00131247
0.0013317
0.00127434
0.00129336
0.00123665
0.00125544
0.00119941
0.00121798
0.00116263
0.00118097
0.00112631
0.00114442
0.00109044
0.00110832
0.001055
0.00107268
0.00101961
0.00103723
0.00100188
0.000950429
0.000949317
0.000949911
0.000951963
0.000951236
0.000953208
0.000952625
0.000954074
0.000953694
0.000954522
0.00095435
0.000954551
0.000954589
0.000954157
0.000954407
0.000953382
0.000953809
0.0009523
0.00095288
0.000951718
0.00100383
0.000968263
0.000986215
0.0010395
0.00102162
0.00107481
0.00105711
0.00111055
0.00109262
0.00114673
0.00112859
0.00118337
0.001165
0.00122047
0.00120187
0.00125803
0.0012392
0.00129605
0.00127699
0.00133449
0.00131522
0.00137331
0.00135386
0.00141244
0.00139285
0.0014518
0.00143211
0.00149127
0.00147154
0.0015307
0.00151101
0.00156993
0.00155036
0.00160875
0.00158941
0.00164693
0.00162794
0.00168422
0.00166571
0.00172035
0.00170246
0.00175505
0.00173791
0.00178803
0.00177178
0.00181901
0.0018038
0.00184775
0.0018337
0.00187401
0.00186122
0.00189758
0.00188616
0.00191834
0.00190834
0.00193619
0.00192767
0.00195063
0.0019439
0.00196155
0.00195673
0.0019685
0.00196496
0.00197807
0.00197468
0.00198963
0.00197817
0.00197213
0.00203481
0.00202985
0.00202696
0.00202806
0.000948697
0.000950489
0.00203072
0.00203361
0.00203566
0.00204164
0.00204041
0.00204219
0.00204108
0.00203749
0.00203098
0.00198814
0.00197209
0.00196871
0.00196438
0.00195957
0.00197741
0.00198467
0.00200562
0.00200784
0.00202335
0.00202412
0.00202395
0.00201432
0.00200161
0.00198759
0.00202843
0.00196713
0.00197331
0.00195529
0.00195007
0.00194445
0.00195328
0.00193143
0.00193835
0.00191475
0.00192354
0.00189552
0.00190553
0.00187288
0.00188458
0.00184787
0.00186064
0.0018207
0.0018346
0.00179116
0.00180622
0.00175951
0.00177559
0.00172606
0.00174301
0.0016911
0.00170876
0.00165489
0.00167314
0.00161769
0.00163641
0.00157975
0.00159881
0.00154129
0.00156058
0.0015025
0.00152193
0.00146358
0.00148305
0.00142467
0.00144412
0.0013859
0.00140526
0.00134737
0.0013666
0.00130916
0.00132822
0.00127132
0.00129019
0.00123389
0.00125256
0.0011969
0.00121535
0.00116035
0.00117857
0.00112423
0.00114224
0.00108854
0.00110634
0.00105327
0.00107086
0.00101838
0.00103578
0.000983106
0.0010007
0.000947883
0.000965614
0.000931744
0.00093013
0.000930927
0.000933257
0.000932437
0.000934747
0.000934025
0.000935967
0.000935404
0.000936793
0.00093643
0.000937223
0.000937058
0.000937257
0.00093729
0.000936894
0.000937125
0.000936146
0.000936565
0.000935066
0.000935632
0.00093387
0.000934442
0.000932903
0.000933327
0.000967573
0.000932663
0.000950164
0.00100276
0.000985236
0.00103799
0.00102039
0.00107313
0.00105551
0.0011087
0.00109087
0.00114469
0.00112664
0.00118111
0.00116285
0.00121798
0.00119949
0.00125529
0.00123658
0.00129302
0.00127411
0.00133116
0.00131205
0.00136965
0.00135037
0.00140842
0.00138901
0.00144738
0.00142789
0.00148642
0.00146691
0.00152539
0.00150594
0.00156412
0.00154481
0.00160241
0.00158334
0.00164002
0.00162132
0.00167672
0.00165852
0.00171225
0.00169466
0.00174632
0.0017295
0.00177868
0.00176275
0.00180906
0.00179415
0.0018372
0.00182344
0.00186291
0.00185039
0.00188597
0.0018748
0.00190626
0.0018965
0.00192364
0.00191535
0.0019378
0.00193116
0.0019486
0.0019437
0.00195624
0.00195262
0.00196143
0.00196003
0.00195793
0.00204316
0.00204102
0.00197626
0.00196592
0.00203668
0.00203778
0.00203536
0.00204248
0.0020443
0.000947059
0.000929638
0.000915487
0.000915093
0.00204977
0.00204789
0.00204853
0.00204636
0.00204147
0.00203398
0.00196491
0.00195189
0.00194822
0.0019635
0.00198239
0.00200129
0.00201767
0.00201992
0.00203267
0.00202547
0.00201343
0.00199789
0.00198497
0.00195303
0.00196299
0.00203821
0.00195884
0.0019509
0.00194957
0.0019586
0.00193989
0.00194318
0.00193144
0.00193702
0.00191851
0.00192535
0.00190218
0.00191075
0.00188317
0.00189304
0.00186116
0.00187253
0.00183669
0.00184922
0.00180997
0.00182363
0.00178099
0.00179577
0.00174996
0.00176573
0.00171714
0.00173377
0.0016828
0.00170016
0.0016472
0.00166515
0.00161059
0.00162901
0.00157321
0.00159199
0.00153527
0.0015543
0.00149698
0.00151616
0.00145852
0.00147777
0.00142004
0.00143928
0.00138166
0.00140084
0.0013435
0.00136255
0.00130562
0.00132453
0.0012681
0.00128682
0.00123095
0.00124948
0.00119422
0.00121254
0.0011579
0.00117601
0.00112201
0.00113991
0.00108652
0.00110421
0.00105142
0.00106892
0.00101673
0.00103403
0.000981895
0.000999325
0.000964396
0.00091443
0.000912757
0.000913683
0.000916179
0.000915333
0.00091765
0.000916941
0.000918813
0.000918279
0.000919601
0.000919254
0.000920015
0.000919855
0.000920054
0.000920082
0.000919718
0.000919932
0.000919012
0.000919411
0.000917966
0.000918524
0.000916633
0.000917338
0.000915944
0.000966808
0.000931982
0.000949546
0.00100159
0.000984189
0.00103635
0.001019
0.00107133
0.0010538
0.00110671
0.00108898
0.00114249
0.00112455
0.00117869
0.00116054
0.00121531
0.00119695
0.00125235
0.00123378
0.00128979
0.00127102
0.00132761
0.00130866
0.00136574
0.00134664
0.00140414
0.00138492
0.00144269
0.00142341
0.00148129
0.001462
0.00151978
0.00150057
0.001558
0.00153895
0.00159574
0.00157695
0.00163279
0.00161438
0.0016689
0.00165099
0.00170382
0.00168654
0.00173728
0.00172076
0.00176903
0.0017534
0.00179881
0.0017842
0.00182639
0.00181291
0.00185157
0.00183931
0.00187415
0.00186322
0.00189401
0.00188446
0.00191099
0.00190289
0.00192488
0.00191835
0.00193556
0.00193067
0.00194325
0.0019397
0.00194738
0.0019461
0.00194791
0.00194761
0.00195057
0.00194557
0.0019511
0.00193938
0.00193928
0.00204979
0.00204695
0.00204549
0.00204655
0.000912285
0.000914522
0.00203783
0.00205046
0.00205196
0.00205659
0.00205441
0.00205394
0.00205056
0.0020445
0.00203591
0.00194718
0.00193317
0.00192426
0.00192797
0.00191762
0.00193111
0.00194171
0.0019634
0.00197818
0.00199938
0.00201349
0.0020285
0.00203457
0.00202514
0.00201104
0.00199443
0.001978
0.00195927
0.00194286
0.00204703
0.00194579
0.0019425
0.00194306
0.00193087
0.00193358
0.00194366
0.00192722
0.00193014
0.00191829
0.00192344
0.00190542
0.00191224
0.00188947
0.00189783
0.00187076
0.00188047
0.00184926
0.00186036
0.00182529
0.00183757
0.00179904
0.00181246
0.00177061
0.0017851
0.00174017
0.00175564
0.00170796
0.00172428
0.00167423
0.00169128
0.00163923
0.00165688
0.0016032
0.00162134
0.00156638
0.00158488
0.00152898
0.00154774
0.00149119
0.00151013
0.00145321
0.00147222
0.00141517
0.00143419
0.0013772
0.00139617
0.00133942
0.00135829
0.00130189
0.00132062
0.00126468
0.00128325
0.00122784
0.00124622
0.00119138
0.00120956
0.00115531
0.0011733
0.00111964
0.00113743
0.00108437
0.00110196
0.00104947
0.00106687
0.00101493
0.00103216
0.0009806
0.000997799
0.000946182
0.000963283
0.00091159
0.00092899
0.000895745
0.000894198
0.000894982
0.000897526
0.000896569
0.000899211
0.000898398
0.000900642
0.000899961
0.000901744
0.000901237
0.000902495
0.000902163
0.000902893
0.000902739
0.000902936
0.000902959
0.000902625
0.000902824
0.000901963
0.000902337
0.000900954
0.000901501
0.000899666
0.000900332
0.000898281
0.000898942
0.00089732
0.00089782
0.000931259
0.00089701
0.000914094
0.000965732
0.000948547
0.00100018
0.000982904
0.00103462
0.00101737
0.00106942
0.00105198
0.00110459
0.00108696
0.00114015
0.00112232
0.00117611
0.00115808
0.00121247
0.00119424
0.00124922
0.0012308
0.00128636
0.00126775
0.00132384
0.00130506
0.00136162
0.0013427
0.00139962
0.0013806
0.00143775
0.00141868
0.00147589
0.00145683
0.00151389
0.00149493
0.00155159
0.0015328
0.00158879
0.00157028
0.00162527
0.00160715
0.00166079
0.00164318
0.00169511
0.00167813
0.00172798
0.00171176
0.00175913
0.0017438
0.00178834
0.00177401
0.00181539
0.00180217
0.00184007
0.00182805
0.00186221
0.00185149
0.00188168
0.00187231
0.00189833
0.00189039
0.00191199
0.00190557
0.00192257
0.00191771
0.00193013
0.00192671
0.00193431
0.00193279
0.00193477
0.00193502
0.00193264
0.00193405
0.00192628
0.00205521
0.00205163
0.00192901
0.00191976
0.00205339
0.00205432
0.00204247
0.00205733
0.00205862
0.000910767
0.000893606
0.000880106
0.000879913
0.00206223
0.00205994
0.00205828
0.00205374
0.0020465
0.0020369
0.00192425
0.00191411
0.00189887
0.00190884
0.00194296
0.00195622
0.00197945
0.00198868
0.00201138
0.00202552
0.00203727
0.00202339
0.00200775
0.00199078
0.00196958
0.00195462
0.00193579
0.00190705
0.0019164
0.00205489
0.00192317
0.00190463
0.00193124
0.00193206
0.00192633
0.00192061
0.00192077
0.00192692
0.0019144
0.00191754
0.0019051
0.00191028
0.00189239
0.00189913
0.00187674
0.00188494
0.00185833
0.00186789
0.00183726
0.00184813
0.00181374
0.0018258
0.00178796
0.00180114
0.00176005
0.00177428
0.00173017
0.00174536
0.00169855
0.00171458
0.00166542
0.00168217
0.00163101
0.00164837
0.00159556
0.00161341
0.0015593
0.00157753
0.00152244
0.00154094
0.00148516
0.00150385
0.00144766
0.00146643
0.00141007
0.00142887
0.00137252
0.00139129
0.00133513
0.00135381
0.00129797
0.00131652
0.00126109
0.00127949
0.00122456
0.00124278
0.00118838
0.00120642
0.00115258
0.00117043
0.00111715
0.00113482
0.0010821
0.00109958
0.0010474
0.00106471
0.00101306
0.00103019
0.000979051
0.000996021
0.000944957
0.000961942
0.000927898
0.000878801
0.000877093
0.000878033
0.0008807
0.000879766
0.000882342
0.000881552
0.000883708
0.000883064
0.000884754
0.000884272
0.000885471
0.000885154
0.000885853
0.000885704
0.0008859
0.000885919
0.000885612
0.000885797
0.000884993
0.000885343
0.000884047
0.000884561
0.000882809
0.000883458
0.000881338
0.00088211
0.000880681
0.000930481
0.000896492
0.000913466
0.000964561
0.000947461
0.000998525
0.000981512
0.00103278
0.00101561
0.00106738
0.00105004
0.00110234
0.00108482
0.00113767
0.00111996
0.00117337
0.00115548
0.00120946
0.00119138
0.00124592
0.00122765
0.00128274
0.0012643
0.00131987
0.00130128
0.00135728
0.00133855
0.00139487
0.00137606
0.00143257
0.00141372
0.00147024
0.00145142
0.00150775
0.00148904
0.00154493
0.00152641
0.00158158
0.00156335
0.0016175
0.00159966
0.00165244
0.00163512
0.00168617
0.00166949
0.00171845
0.00170252
0.00174904
0.00173399
0.00177771
0.00176365
0.00180425
0.00179128
0.00182848
0.00181668
0.00185022
0.00183969
0.00186935
0.00186014
0.00188573
0.00187792
0.00189922
0.00189287
0.00190973
0.00190488
0.00191724
0.00191388
0.00192149
0.00191985
0.00192232
0.00192233
0.00191957
0.00192159
0.00191276
0.00191633
0.00190792
0.0019055
0.00189424
0.00188685
0.00189667
0.00205947
0.00205467
0.00206025
0.00206108
0.000876555
0.000879212
0.00204588
0.00206308
0.00206426
0.00206682
0.00206441
0.00206157
0.00205584
0.00204745
0.00203657
0.00188573
0.00188503
0.00187903
0.00189715
0.00191092
0.00192841
0.00195706
0.00196885
0.0019913
0.00200436
0.00202167
0.00203532
0.00202037
0.00200357
0.00198486
0.00196655
0.00194614
0.00192443
0.00190311
0.0018784
0.00188516
0.00187313
0.00206171
0.00190753
0.00188173
0.00190762
0.00190016
0.00191524
0.00191426
0.00191148
0.00191249
0.0019085
0.0019113
0.00190163
0.00190525
0.00189211
0.0018973
0.00187951
0.00188619
0.00186406
0.00187215
0.00184593
0.00185534
0.00182522
0.0018359
0.00180212
0.00181397
0.00177678
0.00178973
0.00174936
0.00176334
0.00172002
0.00173493
0.00168896
0.0017047
0.00165641
0.00167287
0.00162258
0.00163964
0.0015877
0.00160526
0.00155199
0.00156994
0.00151567
0.0015339
0.00147891
0.00149734
0.00144189
0.00146043
0.00140476
0.00142333
0.00136764
0.0013862
0.00133065
0.00134913
0.00129386
0.00131223
0.00125733
0.00127556
0.00122111
0.00123919
0.00118523
0.00120313
0.0011497
0.00116743
0.00111453
0.00113207
0.00107971
0.00109708
0.00104523
0.00106243
0.00101109
0.00102812
0.000977256
0.000994133
0.000943502
0.000960333
0.000909848
0.000926709
0.000875796
0.000892888
0.000860333
0.000858727
0.000859566
0.000862168
0.000861187
0.000863967
0.000863087
0.000865552
0.000864793
0.000866847
0.000866237
0.00086784
0.000867382
0.000868523
0.000868221