/*--------------------------------*- C++ -*----------------------------------*\
  =========                 |
  \\      /  F ield         | OpenFOAM: The Open Source CFD Toolbox
   \\    /   O peration     | Website:  https://openfoam.org
    \\  /    A nd           | Version:  10
     \\/     M anipulation  |
\*---------------------------------------------------------------------------*/
FoamFile
{
    format      ascii;
    class       surfaceScalarField;
    location    "4";
    object      phi;
}
// * * * * * * * * * * * * * * * * * * * * * * * * * * * * * * * * * * * * * //

dimensions      [0 3 -1 0 0 0 0];

internalField   nonuniform List<scalar> 
17221
(
0.0832432
-0.0253596
-0.0693493
0.0114657
0.00161732
0.0758071
0.00581871
0.0648123
-0.0191714
-0.0710005
0.0844231
-0.00832788
-0.0766615
0.000566239
0.0164109
0.0750162
-0.00700398
0.0710308
0.0190843
-0.0737042
0.000188665
-0.00401597
0.0694069
-0.0655796
-0.00742776
-0.0675541
0.0751705
0.00187112
-0.0425229
0.00823863
0.0324132
-0.0426305
0.00838005
0.0361216
0.00176101
0.0444171
-0.0522888
0.00611071
-0.0496455
0.0514066
-0.000567629
0.0626557
-0.0636439
0.00155582
0.0626079
0.00421253
-0.0673881
0.0412501
0.0487389
-0.0176106
-0.0723785
0.0351001
-0.027232
0.033382
0.018369
0.0584783
-0.0701594
-0.00668791
0.00902632
0.0504771
-0.0411345
-0.0444026
-0.00657432
0.0600033
-0.0285043
-0.0597478
0.0719569
0.0162952
-0.0651428
0.00235808
0.0342804
0.0433795
0.0442617
-0.0498684
-0.0377728
0.0982839
-0.0640844
0.00917997
-0.0289911
0.0111969
0.0826065
-0.113911
-0.0589703
0.087066
0.0858153
-0.0465028
0.0284833
-0.0958916
0.102584
-0.0976264
-0.0514603
0.0900184
-0.0464047
-0.0301006
-0.0580535
0.0151612
0.072993
-0.0129462
-0.0585663
0.0414119
-0.0611567
0.0032209
0.0449896
-0.101134
0.000924827
0.0726392
0.02757
0.022669
-0.0985812
-0.0252219
0.117471
0.0223895
-0.117191
0.013193
0.105202
0.0664968
-8.20695e-05
-0.0190801
-0.0473346
0.0116114
0.0672746
-0.0123893
-0.0418011
0.0410596
0.0639182
-0.0631766
0.102457
-0.079299
-0.0248985
0.00174034
0.0713225
-0.0106665
0.0348887
0.0938413
-0.0376935
0.0238432
0.0253867
-0.0210586
-0.00432812
0.0184583
-0.0155266
0.0224551
0.0905213
-0.0423809
-0.0481404
-0.0588314
0.047532
0.101821
0.00503351
-0.00358236
-0.00559685
0.0041457
-0.00338418
0.000852551
0.00756514
-0.00527693
-0.00168961
0.0427014
0.0670906
-0.0647244
-0.0450676
0.0533621
-0.0715389
0.0608782
-0.0316891
0.0459689
0.0390824
-0.0215429
0.0569443
-0.0831383
0.0156508
0.0683909
-0.000903336
-0.0737032
-0.0084903
-0.000944819
-0.00886354
-0.0657106
0.000871005
-0.067712
0.00297107
0.0695996
-0.0048586
0.00774049
-0.0733037
-0.00214886
-0.0567748
0.061065
-0.00949625
0.00520606
0.0172664
-0.0710701
-0.0740871
-0.00800652
0.0688458
0.0132478
-0.00908869
-0.0727057
0.00770731
0.0740557
-0.0143597
-0.0659871
0.00629107
-0.00978892
0.0747559
0.00687522
-0.0581229
0.00278484
0.0484628
0.0630901
0.000164183
-0.0563791
0.069575
-0.0105008
-0.0954326
0.00222708
0.03438
0.0588256
-0.00244931
-0.101863
0.00887941
-0.000559919
0.0963945
-0.00955633
-0.0577426
0.00649016
0.0608088
-0.0623103
0.0600057
-0.00725173
0.0119677
-0.0637357
-0.00597461
-0.063127
0.00686183
0.0682329
0.0140424
0.0592363
-0.0134464
-0.0598324
0.0580682
-0.0614782
0.0174524
-0.014434
0.0604757
0.0131947
-0.0125829
0.0587417
-0.0605928
0.0244946
-0.0820956
-0.0679117
-0.000924431
-0.000215186
0.0690513
-0.07421
0.0124515
-0.00615331
-0.00274158
-0.056684
0.00058985
0.0588357
-0.0559814
0.0587839
-0.00554409
0.0860871
-0.0722431
0.0106506
0.0890662
0.00590037
0.0721218
-0.00771935
0.0594919
-0.0576291
0.00585652
0.0582932
-0.00825832
-0.0577542
0.00122922
0.0557815
-0.0574733
0.00046261
0.0571646
0.000875547
-0.0568109
0.0827511
-0.0516535
-0.0399611
0.0711855
0.0030753
-0.000612489
-0.00187263
-0.0632255
0.0244454
0.0768071
-0.0294
-0.0718524
0.0197013
0.0749329
-0.0701888
-0.0480915
-0.0182357
0.054374
0.0119532
-0.00705006
0.0401243
-0.0811657
0.0587035
0.00388275
-0.0696363
0.0435688
-0.00310102
-0.0105684
-0.0620583
0.0707423
0.00188439
-0.0371704
0.080976
0.0671975
0.00513812
-0.00733903
-0.0649966
0.00705405
0.0689214
-0.00877791
0.0638328
-0.00168995
0.000465028
0.0629569
-0.000414755
0.00129072
0.0637338
2.62758e-05
-0.000803195
0.0621683
0.00167389
-0.000108383
0.0640927
-0.00204921
0.000124851
0.0632773
0.00090333
-8.79775e-05
0.0642826
-0.00121804
0.00021273
0.0638409
-0.000224913
0.000666609
0.064423
-0.000525456
-5.66232e-05
0.0631972
0.000385514
0.000840298
0.0641188
-0.000347869
-0.000573744
0.0645553
0.000487148
-0.000923697
0.0640661
-0.000374207
0.000863451
0.0640159
-0.000382173
0.000432353
-0.00138945
0.0649124
0.00049298
0.0641535
-0.0636782
-0.0018648
-0.00241368
0.00419907
-0.00199592
0.0644058
-0.0642107
-0.000569325
0.000345511
0.064296
-0.0646507
6.85292e-06
0.00057241
0.064096
-0.0640458
-0.000575652
-0.000169207
0.0642434
-0.0652686
-0.000192882
-2.73057e-05
0.0640769
-0.0657241
-0.000402061
-0.000288326
0.0638131
-0.0636632
-0.000123545
-0.000237099
0.0640449
-0.0666529
0.000918034
-3.30661e-05
-0.00137536
-0.0629868
0.0633266
0.00095085
0.000133941
-0.0636429
0.0637552
-0.000220686
-0.00111943
-0.0632666
0.062867
0.000311592
0.000613431
-0.0639608
0.0636293
0.000998152
-0.000881103
-0.0633209
0.0637556
0.00040555
0.000251812
-0.0647781
0.0639139
-5.94494e-05
-0.00159627
-0.0637659
0.0643619
-0.000163643
0.00101147
-0.0649211
0.0667948
0.00232531
-6.62356e-05
0.0661469
0.00750977
0.014005
-0.0589206
0.062182
0.00869185
0.0660312
-0.0634615
-0.00482347
0.0704164
0.00442239
0.00868347
-0.0720131
0.00865434
0.0637616
-0.0652157
-0.000410771
-0.00169575
0.0649115
-0.0652478
-0.000233016
4.13633e-05
0.0647455
-0.0644908
-0.000247863
7.00958e-05
0.0652866
-0.065274
-0.000588235
0.000626624
0.064924
-0.0651312
1.42701e-05
-0.000377342
0.0651021
-0.0652817
-0.00022252
-0.000317341
0.065285
-0.0650015
-0.000406975
-0.000233827
0.0653822
-0.0640954
-0.000368804
0.000347618
0.0634953
-0.00339195
-0.00197547
0.00680799
-0.00908523
0.0683085
0.00603602
0.0711883
-0.064162
0.0632052
0.00251269
0.00398419
-0.0629421
0.0647261
-0.000833083
0.000396963
-0.0636992
0.0635203
-4.17724e-05
-9.25304e-05
-0.06441
0.0651401
-0.000418533
-0.000276321
-0.0641765
0.0649713
0.00020333
8.25764e-05
-0.0652923
0.0657784
-8.05484e-05
-6.92202e-05
-0.064712
0.0642585
0.000394004
-0.000529804
-0.0653058
0.065135
7.16753e-06
-3.57947e-05
-0.0649599
0.0673886
-0.000103339
0.000108799
-0.071829
0.0716837
0.00456772
0.00306931
0.0223243
0.0440343
-0.00635285
0.0740478
-0.0584955
0.00704045
0.0706793
0.00836041
-0.01238
-0.069284
0.00217743
-0.0658301
-0.0684171
0.0696913
-0.00342302
-0.0763013
-0.00449578
0.0755812
-0.0459066
-0.00288977
0.0686821
-0.0597916
0.00753215
0.00632674
-0.00846809
-0.0556129
-0.0566182
0.00531593
0.0617097
-0.0644307
-0.00210243
-0.00533365
0.0656579
-0.0659281
-0.000140547
-0.000468566
0.0657753
-0.0658833
-0.000125033
-0.000111421
0.0657064
-0.0658252
-0.000129037
-0.000106846
0.0650746
-0.0655104
-0.000152477
-0.00012394
0.0657316
-0.0655376
-0.000179733
-0.000156146
0.0656094
-0.0655395
-0.000292387
-0.000245584
0.065481
-0.0655134
-0.000374588
-0.000292284
0.0648056
-0.0647103
-0.000464053
-0.000360204
0.0662157
-0.0674506
-0.002157
-0.000470148
-0.00261796
0.0685882
-0.0672582
0.0032377
0.0711446
0.00448407
-0.0566925
0.0604641
0.00208487
0.00410368
-0.00407536
-0.0566466
0.0569432
0.00386461
-0.0567041
0.00556661
-0.0621213
0.0650265
-0.000392474
0.00232701
-0.0657132
0.0651168
-0.000236638
-0.000289774
-0.0652642
0.0655044
-0.000281973
-0.000240002
-0.0654114
0.0652248
-0.000231965
-0.000183234
-0.0653879
0.06572
-0.000128782
-8.05025e-05
-0.0657519
0.0657829
-0.000111511
-0.000101153
-0.0653504
0.0658387
-9.43378e-05
-9.72944e-05
-0.0658674
0.0659184
-4.38065e-05
-6.44796e-05
-0.0660542
0.0659697
-1.88658e-05
-2.70539e-05
0.00178087
-0.00308031
0.00268768
0.0687011
0.0680778
-0.00363714
0.00518883
0.0691276
0.0702389
-0.0647862
-0.0149215
0.00578075
-0.0601433
-0.0489362
-0.0422866
0.00873614
0.00249486
-0.0601672
-0.0555379
0.0219874
-0.058597
0.000142018
0.00524085
0.0710926
5.31876e-05
-0.0597414
0.00406278
-0.0641122
-0.0543586
0.0582917
-6.84432e-05
0.0038541
-0.00535296
-0.0552052
-0.0551291
0.00462462
-0.00263946
-0.0593601
0.0031303
-0.0607788
-0.000405414
-0.0568982
0.00176575
-0.00107014
-0.0595024
-0.00297304
0.00109488
-0.0550201
-0.0498025
0.0570109
-0.0101815
-0.00484708
-0.0098553
0.0655637
-0.0663229
-0.0013432
0.0016331
0.0660519
-0.0659488
-0.000243674
-0.000739573
0.0659294
-0.0659036
-0.000150809
-0.000130813
0.0658799
-0.0658507
-0.000158203
-0.000130579
0.0658217
-0.0657815
-0.000192675
-0.000152942
0.0657414
-0.0656609
-0.000260174
-0.000196313
0.0656357
-0.0655707
-0.000357454
-0.000270792
0.0655081
-0.0654302
-0.000452429
-0.000354866
0.065358
-0.0652689
-0.000553184
-0.000432454
0.0652037
-0.0666493
-0.000711384
-0.000535311
0.0674517
-0.0693694
-0.00150537
-0.00181554
0.0732421
-0.055726
0.00447128
-0.000623045
0.00305068
-0.0619357
0.0634233
0.000597317
0.00192254
-0.0652548
0.0652027
-0.00034035
0.000495465
-0.0652931
0.0654446
-0.000388135
-0.000380194
-0.0654995
0.0655307
-0.000313077
-0.000294912
-0.0655855
0.0655939
-0.000240326
-0.000238097
-0.0656895
0.0657336
-0.000172873
-0.000176149
-0.0657655
0.0657948
-0.000140864
-0.000133005
-0.0658138
0.0658375
-0.000117998
-0.000116285
-0.0658617
0.0658951
-7.72416e-05
-8.87025e-05
-0.0659247
0.0656738
0.000232087
-5.66562e-05
-0.0673417
0.069501
0.0010784
0.000112945
-0.0702564
0.0704256
0.0050716
0.00372871
0.00226966
-0.00129509
0.0677075
0.0690191
0.000488257
0.000915848
0.067297
0.0672709
-0.00248947
0.00299614
0.0686209
0.0686653
-0.00492573
0.00472269
0.0706286
0.069163
-0.0606702
0.00245789
-0.000498545
0.00311024
0.0717782
-0.0693312
0.00262456
0.0711074
0.00539344
-0.0023398
-0.0600411
8.99359e-05
-0.0610718
-0.0692179
0.0587511
0.000285258
0.00304773
-0.0235267
-0.00284186
-0.0570167
-0.00110183
-0.0607471
-0.00168916
-0.0567184
-0.00721756
-0.0526496
0.0659776
-0.0657556
-7.99402e-05
-0.000437064
0.0642813
-0.0658298
0.000205214
0.000158839
0.0658832
-0.0659649
-0.000162041
-0.000686104
0.0659504
-0.0659295
-0.000171685
-0.000145287
0.0659088
-0.065881
-0.000185989
-0.000151294
0.0658517
-0.0658088
-0.000235594
-0.000182208
0.065765
-0.0657099
-0.000315334
-0.000240118
0.0656612
-0.065601
-0.000417602
-0.000319471
0.0655473
-0.0654795
-0.000520213
-0.000408599
0.0654169
-0.0653379
-0.000632225
-0.000495074
0.0652608
-0.0651626
-0.000809583
-0.000612411
0.0661548
-0.0667568
-0.000903329
-0.000823291
0.0663413
-0.0626916
0.000821569
-0.00103856
-0.0008898
-0.0562676
0.0580018
0.00137609
0.0162627
-0.0035593
-0.0701767
0.0566108
-0.0373636
-0.00298451
0.000805744
-0.0619995
0.061669
0.000262068
0.000626892
-0.0636721
0.0643525
-8.30767e-05
-8.05695e-05
-0.0650002
0.0652646
-0.000604792
-0.000152174
-0.0653443
0.0654322
-0.000476004
-0.000459901
-0.0654974
0.0655635
-0.000379163
-0.000360098
-0.0656133
0.0656672
-0.000294144
-0.00028798
-0.0657082
0.0657513
-0.000215945
-0.000217233
-0.0657826
0.0658119
-0.000170187
-0.000164275
-0.0658309
0.065851
-0.00013805
-0.000135323
-0.0658687
0.0658937
-0.000102232
-0.000106422
-0.0659208
0.0660219
0.00013096
-8.37077e-05
-0.0661308
0.0673448
-0.000135592
4.04357e-06
0.00174232
-0.00297128
0.00476075
0.0670563
0.000276314
0.00040734
0.0670238
0.0663241
-0.00163591
0.000695957
0.0682369
0.0660424
-0.00177824
0.00254956
0.0678496
0.067583
-0.00289536
0.00405483
0.0694692
0.0688172
0.00598123
0.069181
-0.0629201
0.0575296
-0.0800633
0.0357815
-0.0163841
0.0786745
0.0254027
-0.0297012
-0.0330651
-0.0682408
-0.00411511
-0.000623814
-0.0622591
9.16554e-05
-0.0622653
0.00218584
-0.058327
-0.000738146
-0.0616981
-0.0699462
-0.00251384
0.0704431
0.00201702
-0.000288493
-0.0600817
-0.00062746
-0.0633085
0.000601282
-0.0453753
-0.00285602
-0.0770255
0.038
-0.0186026
-0.0761207
0.0121557
0.0669541
-0.0656893
-0.00134472
-0.00172382
0.0660516
-0.0655089
-0.000337532
0.000521179
0.0658545
-0.065973
-4.34861e-05
-0.000340543
0.0659667
-0.0659529
-0.000185481
-0.000151626
0.0659355
-0.0659077
-0.000213821
-0.00016865
0.0658762
-0.0658299
-0.000281902
-0.00021369
0.0657849
-0.0657303
-0.000369955
-0.00028512
0.0656855
-0.0656354
-0.000467666
-0.000364248
0.0655925
-0.0655377
-0.000574998
-0.000451581
0.0654851
-0.0654157
-0.000701629
-0.000547601
0.0653499
-0.0652666
-0.000892931
-0.000678232
0.0652169
-0.0649649
-0.00115531
-0.000872982
0.0648851
-0.0625827
-0.00148082
-0.00111832
0.0632566
-0.0630861
0.000114782
-0.000215944
0.0571571
-0.0676834
-0.00708433
-0.00288126
-0.0532158
0.0576609
-0.00742962
-0.0734531
-0.00946387
-0.0584739
0.0600621
-0.000212052
-7.3145e-06
-0.0619116
0.0634717
-0.00129802
-0.00122262
-0.0638663
0.0646711
-0.000887812
-0.000475217
-0.0652128
0.065331
-0.000722978
-0.000693954
-0.065405
0.0654844
-0.000555385
-0.000533885
-0.0655434
0.0656046
-0.000440299
-0.000419151
-0.0656493
0.0656965
-0.000341305
-0.000332728
-0.0657328
0.0657731
-0.000256216
-0.000253541
-0.0658035
0.0658342
-0.000200864
-0.000194686
-0.0658548
0.0658749
-0.000158148
-0.000155991
-0.06589
0.065908
-0.00012028
-0.000121458
-0.0659216
0.066152
-9.93764e-05
-9.73354e-05
-0.0662415
0.0659713
0.000134619
-8.54557e-05
-0.0673763
0.0706892
-0.000688302
0.000337238
-3.80232e-05
-0.0112816
0.00859953
-0.0696964
-0.0694879
-0.00947708
-0.000463153
0.000133663
0.0673858
-0.01916
-0.00199243
0.0591524
0.0590513
-0.000267558
0.000907373
0.066384
0.0661902
-9.58189e-06
4.77694e-06
0.0682417
0.0669402
-0.00155485
0.0011758
0.0682286
0.0660329
-0.00152605
0.00263207
0.0683632
0.0684669
0.0692993
-0.0634522
0.000320765
-0.0603941
8.8128e-05
-0.0630916
0.00141976
-0.000459988
0.0694833
-0.0648591
0.0106964
0.0663184
0.000124913
0.0696303
-0.0683354
0.000714312
-0.0593298
0.000569579
-0.0628951
-0.00101299
-0.0584674
-0.000353786
-0.0658107
-0.0064021
-0.0720383
-0.000479
-0.067947
-0.0060128
0.00107413
-0.0685144
0.00872459
-0.00609894
-0.0721135
0.00839379
-0.0693656
-0.0532875
-0.00538896
0.000623012
0.0591193
0.00837027
-0.00708103
-0.0586787
0.0573895
0.0642532
-0.0652374
-0.00313093
-0.00763682
0.0662843
-0.0666221
-0.00100694
-0.00067691
0.0656689
-0.0658832
-0.000123213
-0.000431983
0.0660987
-0.0659764
-0.000165793
-0.000125102
0.0659733
-0.065963
-0.000195742
-0.000154732
0.0659467
-0.0659181
-0.000242476
-0.00018494
0.0658856
-0.0658399
-0.000327527
-0.000246195
0.0657982
-0.0657504
-0.000417774
-0.000326879
0.0657136
-0.0656752
-0.000506062
-0.000400963
0.065643
-0.0656003
-0.000617674
-0.000483832
0.0655567
-0.0654967
-0.000761695
-0.000591201
0.0654395
-0.0653675
-0.000964953
-0.000735355
0.0652997
-0.0652178
-0.00123729
-0.000940752
0.0651393
-0.0650465
-0.0015736
-0.00119678
0.0646809
-0.0629538
-0.00161233
-0.000581543
0.0623541
-0.0650854
-0.00435297
-0.00348101
0.0694252
-0.0705514
-0.00497274
-0.00513729
-0.00909706
0.00823399
-0.0712505
0.0827128
0.0151498
-0.055096
-0.0427666
0.00306434
-0.0637607
0.0605071
-0.00417607
0.0677332
-0.0688999
-0.00484613
-0.00549134
-0.0633739
0.0647848
-0.00162293
-0.00287408
-0.064687
0.0646245
-0.00123555
-0.00112483
-0.0650876
0.0652428
-0.00104306
-0.000938303
-0.0653216
0.0654033
-0.000804746
-0.0007727
-0.0654694
0.0655409
-0.000626863
-0.000600002
-0.0655945
0.0656502
-0.00049603
-0.000472704
-0.0656904
0.0657324
-0.000383226
-0.000372953
-0.0657644
0.0658001
-0.000291839
-0.000285613
-0.0658278
0.0658575
-0.000230567
-0.000222437
-0.0658792
0.065901
-0.000179932
-0.000177667
-0.0659169
0.0659335
-0.000136842
-0.000137397
-0.0659444
0.0659563
-0.000111298
-0.000108268
-0.0659645
0.0661928
-9.36899e-05
-9.3654e-05
-0.0666093
0.0661666
-0.000245513
-7.92773e-05
0.00126939
0.00343037
0.000793436
0.063162
0.0631047
-0.000971486
-0.000879711
0.0682352
0.0660122
-8.32768e-06
5.26728e-06
0.0682448
0.0660521
-5.54058e-06
7.93862e-06
0.0682262
0.0660326
-0.00085794
0.00158575
0.0676353
0.0676169
0.070425
-0.0630433
-0.0593112
-0.00205909
0.070263
-0.0653511
0.00578444
0.0682255
0.00216247
0.000404331
-0.0600841
8.50301e-05
-0.062607
-0.000405048
-0.0599378
0.00065426
-0.0639032
-0.00127094
-0.0635986
0.00286519
-0.0691549
-0.00237718
-0.068587
0.00477769
-0.0688897
-0.00478785
0.005751
-0.0694877
0.00596092
-0.0655141
0.00591589
-0.0670475
0.009041
-0.0651416
0.0105733
-0.0572991
-0.0543815
0.0670287
0.00197575
-0.0146229
-0.0584288
-0.00303374
0.00710703
-0.00691167
-0.0588741
0.0642156
-0.0652971
-0.00204948
-0.00273245
0.0653718
-0.0658258
-0.00055292
-0.000602171
0.0659929
-0.0659862
-0.000129903
-0.000264947
0.0659831
-0.0659783
-0.000170582
-0.000128204
0.0659722
-0.0659583
-0.000209573
-0.000160836
0.0659396
-0.06591
-0.000272071
-0.000203665
0.0658798
-0.0658414
-0.000365932
-0.000276433
0.0658091
-0.0657745
-0.000452423
-0.000359153
0.0657488
-0.0657217
-0.000533105
-0.000426625
0.0656977
-0.0656635
-0.000651871
-0.000507886
0.0656267
-0.0655748
-0.000813593
-0.000628039
0.0655255
-0.0654642
-0.0010262
-0.000784632
0.0654095
-0.0653412
-0.00130566
-0.000995461
0.0652796
-0.0652085
-0.00164464
-0.00125839
0.0642081
-0.063731
-0.00208945
-0.00158193
0.0651742
-0.0663752
-0.00315199
-0.00203781
0.0676764
-0.0706135
-0.00203559
-0.00383613
-0.000520498
-0.0683269
0.0674436
-0.00396283
-0.00576182
0.00586066
-0.0689885
0.0694954
-0.0691541
-0.00610317
-0.00361936
-0.0659043
0.0646465
-0.00291825
-0.00395202
-0.0644571
0.0647922
-0.00195798
-0.00268473
-0.0649335
0.0651377
-0.00143973
-0.00126619
-0.0652654
0.0653424
-0.00112013
-0.00106594
-0.0654084
0.0654824
-0.000878808
-0.000838629
-0.0655406
0.0656039
-0.00069021
-0.000658168
-0.0656511
0.0657001
-0.000545033
-0.000519902
-0.0657356
0.0657725
-0.00042016
-0.000408403
-0.0658003
0.0658304
-0.000321984
-0.000313347
-0.065854
0.0658802
-0.000256849
-0.000245994
-0.065901
0.0659237
-0.000202675
-0.000198427
-0.0659407
0.0659573
-0.000153422
-0.000154337
-0.0659679
0.0659762
-0.000119634
-0.000118907
-0.0659798
0.0659845
-9.83752e-05
-9.72553e-05
-0.0660199
0.0650945
0.00067991
-0.000114634
0.00101279
-0.00460142
0.00245308
0.0612676
0.00653171
-0.00542931
0.0576815
0.060766
-0.00109542
2.44762e-05
0.0642329
0.0644623
-1.63224e-05
9.84067e-06
0.0682417
0.0660203
-6.88277e-06
5.24189e-06
0.0682464
0.0660551
-5.33301e-06
7.32603e-06
0.0682242
0.0660325
-0.000343616
0.000785124
0.0671938
0.0672806
-0.0013559
0.00161353
0.0692256
0.0698543
-0.00237818
0.0688413
0.00176237
0.0688656
-0.062554
0.000510245
-0.0609994
7.48132e-05
-0.0620276
-1.028e-05
-0.0611984
0.000766912
-0.0618049
0.00306484
-0.00254378
0.0683202
0.0685222
-0.0695725
0.00281272
0.0682124
0.00337459
0.000906512
-0.0668823
0.00314696
-0.065983
0.00437144
-0.0679985
0.00669357
-0.0686958
-0.00715186
0.00602284
-0.0683178
-0.0635679
0.000373908
0.00511365
-0.0647119
0.00522754
-0.0632341
0.00559633
-0.0601646
0.00631216
-0.0565042
0.0563408
-0.0608348
-0.000935311
-0.0596197
-0.00572086
-0.00693937
0.00435009
-0.0562848
-0.00424564
-0.0623134
-0.00820678
0.00571359
0.0601747
0.0558953
-0.00776134
0.0631678
-0.0628121
-0.0024148
-0.00321104
0.0635507
-0.0649735
-0.000626669
-0.00199385
0.0654168
-0.0658605
-0.00010917
-0.000158908
0.0660197
-0.0660082
-0.000141402
-0.000105756
0.0659994
-0.0659875
-0.000182533
-0.000137001
0.0659743
-0.0659534
-0.000230389
-0.000174069
0.0659313
-0.0659019
-0.000301471
-0.000225807
0.0658766
-0.0658491
-0.000393435
-0.000301751
0.0658288
-0.0658087
-0.000472582
-0.000379381
0.0657932
-0.0657745
-0.000551836
-0.000442099
0.0657552
-0.0657259
-0.00068114
-0.000527196
0.0656943
-0.0656506
-0.000857336
-0.00065963
0.06561
-0.0655607
-0.00107542
-0.000825243
0.0655177
-0.0654645
-0.00135886
-0.00103848
0.065417
-0.0653618
-0.00169982
-0.00130593
0.0653164
-0.0652871
-0.00211877
-0.00162732
0.0653027
-0.0658782
-0.00257648
-0.00202216
0.066986
-0.0660909
-0.00293074
-0.00272831
0.0641536
-0.0608062
-0.00137167
-0.00245778
0.0608218
-0.0611731
-0.00536953
-0.00301813
-0.0692909
0.068082
-0.0048942
-0.0061042
0.00738993
-0.0699815
0.0694796
-0.0694113
-0.00617251
-0.00696319
-0.0672166
0.067038
-0.00378427
-0.00275396
-0.0663669
0.0660597
-0.00261108
-0.00328089
-0.0651976
0.0651255
-0.00188584
-0.00182265
-0.0652725
0.0653257
-0.00149293
-0.00141326
-0.0653806
0.0654455
-0.00118505
-0.00112082
-0.0655008
0.0655653
-0.000943334
-0.000893838
-0.0656161
0.0656707
-0.000744766
-0.000708993
-0.0657105
0.0657511
-0.00058568
-0.00055973
-0.0657805
0.0658114
-0.000451062
-0.000437765
-0.0658346
0.0658599
-0.000347284
-0.000336541
-0.0658798
0.0659027
-0.000279744
-0.000265948
-0.0659218
0.0659439
-0.000224802
-0.000217439
-0.0659607
0.0659779
-0.000170611
-0.000171141
-0.0659885
0.0659968
-0.000127936
-0.000129548
-0.066005
0.0661467
-0.000240049
-0.000105449
-0.0656289
0.0657127
0.000596075
0.000403158
-0.0660875
0.0692677
0.0026042
0.000638065
0.00185766
-0.00448994
0.00358531
0.0621722
0.0619897
-0.00160017
1.88564e-05
0.0658142
0.0664475
-1.07242e-05
6.20115e-06
0.0682462
0.0660285
-4.4135e-06
3.40989e-06
0.0682474
0.0660569
-3.11469e-06
4.33902e-06
0.068223
0.0660328
-0.000260293
0.000920713
0.0665334
0.0670247
-0.00175268
0.00323017
0.0677482
0.0690223
0.069552
-0.0619689
-0.0586756
-0.0067432
-0.0110708
-0.00248253
-0.0487601
-0.0393213
-0.030425
0.000623024
-0.0616327
7.32985e-05
-0.061334
0.00286648
-0.00204683
0.0675006
0.00456274
0.0665161
0.00144755
-0.0617395
0.00148487
-0.0652202
0.00411311
-0.0657246
0.00575597
-0.0677316
0.00732952
-0.0682574
0.00734312
-0.0700253
-0.0067291
0.00694476
-0.0695831
-0.0615034
0.00304912
0.00278836
-0.0622727
0.00358452
-0.0612223
0.0058236
-0.0596761
0.00554846
-0.0577026
0.000686385
-0.0594537
-0.0126936
0.00734293
0.0655253
-0.0243
0.0675018
0.0622242
-0.0630948
-6.46959e-05
-0.0685975
0.0682945
0.00367758
-0.069461
0.00367619
0.046012
0.0084509
0.000890266
-0.0623212
0.0639656
-0.0650199
-0.00136052
-0.00234023
0.0654644
-0.0659997
-9.13964e-05
-0.00154934
0.0660652
-0.0660552
-0.000119166
-9.34123e-05
0.0660468
-0.0660344
-0.000153885
-0.00011413
0.0660228
-0.0660066
-0.000198674
-0.000148597
0.0659896
-0.0659658
-0.00025421
-0.000191094
0.0659434
-0.0659173
-0.000327593
-0.000248178
0.0658979
-0.0658799
-0.000411408
-0.00032115
0.0658683
-0.065857
-0.0004839
-0.000390943
0.0658466
-0.0658311
-0.000567354
-0.000452532
0.0658137
-0.0657881
-0.000706741
-0.000544575
0.0657622
-0.0657282
-0.000891305
-0.000685515
0.0656977
-0.0656612
-0.00111193
-0.000855821
0.0656296
-0.0655913
-0.00139712
-0.00107008
0.065558
-0.0655216
-0.00173618
-0.00133924
0.0654991
-0.0654873
-0.00213062
-0.0016498
0.0654842
-0.0654306
-0.00263006
-0.00202527
0.0656649
-0.0653594
-0.00323624
-0.00249403
0.0648576
-0.0635184
-0.0027109
-0.00295958
0.0632105
-0.0638103
-0.00476975
-0.00332597
-0.00987991
-0.0782015
0.0600457
-0.0780945
-0.0123762
-0.0105078
-0.0700294
0.0693563
-0.00549937
-0.00726383
0.00813281
-0.0708943
0.070247
-0.0708471
-0.00666372
-0.00651155
-0.0675207
0.0662295
-0.00360293
-0.00512764
-0.067066
0.0664866
-0.00320493
-0.00359046
-0.0655486
0.0654473
-0.00250979
-0.00234283
-0.0653885
0.0654068
-0.00190416
-0.00176385
-0.0654301
0.065465
-0.00152782
-0.00143654
-0.0655021
0.0655526
-0.00123563
-0.00115792
-0.0655973
0.0656505
-0.000996539
-0.00093848
-0.0656926
0.0657368
-0.000789007
-0.000751048
-0.0657682
0.0657993
-0.00061675
-0.000591133
-0.0658217
0.0658462
-0.000475522
-0.000460203
-0.0658655
0.065888
-0.000369768
-0.000355898
-0.0659064
0.0659277
-0.000301051
-0.00028434
-0.0659453
0.0659657
-0.000245214
-0.000235072
-0.0659812
0.0659976
-0.000186945
-0.000186639
-0.0660081
0.0660166
-0.00013645
-0.000140077
-0.0660188
0.0658835
-0.000104774
-0.000107645
-0.066377
0.0665618
0.000411257
-9.02967e-05
-0.0669824
0.0688168
0.000769754
0.000217483
0.00121351
-0.00455691
0.00192051
0.0648086
0.0647757
-0.00116539
0.00090217
0.0660774
0.0672026
-7.35449e-06
3.2565e-06
0.0682503
0.0669233
-1.75907e-06
7.01813e-07
0.0682485
0.0660584
1.6746e-07
5.3269e-07
0.0682223
0.0660337
-0.000998844
-0.000701493
0.0682338
0.0660264
-0.000713172
0.00126493
0.0671964
0.0676076
0.0687701
-0.0612726
0.00777928
0.065078
0.000747437
-0.0609326
0.00167848
-0.0619331
0.00332481
-0.0644319
0.00504466
-0.0650133
0.00607395
-0.066476
0.00738825
-0.0687009
-0.0608846
0.00216958
0.00324217
-0.0619304
0.00414859
-0.0595473
0.00458866
-0.0587163
0.00792964
-0.06938
0.00780968
-0.0715359
-0.00712084
0.00999253
-0.0730772
0.00262854
-0.0596447
-0.00146447
-0.0678692
0.00424991
-0.0734072
-0.00893716
-0.052498
7.41561e-05
-0.0605178
-0.000734563
-0.073217
0.0010579
-0.06033
-0.0113464
0.0513689
0.00426301
-0.0442855
0.0631069
-0.0638815
0.000709963
0.0190598
0.0648108
-0.0652519
-0.000919418
-0.00141092
0.0660914
-0.0660835
-9.93012e-05
-0.000709851
0.0660826
-0.0660753
-0.000126469
-9.43648e-05
0.0660675
-0.0660571
-0.000164255
-0.000121867
0.0660466
-0.0660316
-0.000213666
-0.000159182
0.0660163
-0.0659961
-0.000274364
-0.000206397
0.0659784
-0.0659591
-0.000346855
-0.000265888
0.0659459
-0.0659343
-0.000422995
-0.000334369
0.0659264
-0.065917
-0.000493352
-0.000398828
0.0659064
-0.0658901
-0.000583634
-0.000463125
0.0658734
-0.0658519
-0.000728309
-0.000561279
0.0658326
-0.0658092
-0.000914686
-0.000704751
0.0657885
-0.0657632
-0.00113724
-0.00087659
0.065741
-0.0657151
-0.001423
-0.00109223
0.0656946
-0.0656763
-0.00175447
-0.00135979
0.0656706
-0.0656786
-0.00212262
-0.00165551
0.0657006
-0.0657496
-0.00258109
-0.00200323
0.065801
-0.0658964
-0.00314092
-0.00244257
0.0659125
-0.0650047
-0.00361869
-0.00294341
0.0645924
-0.0645681
-0.00479406
-0.00373834
0.0687091
-0.0736264
-0.0074589
-0.00636678
-0.00819187
0.00936147
-0.0745768
0.0738547
-0.0738428
-0.00820375
-0.00870895
-0.0717474
0.0701259
-0.0050422
-0.0082292
0.0100513
-0.073358
0.072326
-0.0725856
-0.00796958
-0.00654228
-0.0693838
0.0690332
-0.0051488
-0.00576942
-0.0672441
0.0671262
-0.00348503
-0.00333853
-0.0661867
0.0658614
-0.00287962
-0.00265095
-0.0657132
0.0655671
-0.00236367
-0.00219467
-0.0655841
0.0655808
-0.00190083
-0.00178092
-0.065587
0.0656056
-0.00154641
-0.00144272
-0.0656293
0.0656649
-0.0012712
-0.00118165
-0.0656976
0.0657368
-0.00103569
-0.000971217
-0.0657675
0.0657992
-0.000820755
-0.000781781
-0.0658215
0.0658435
-0.000638741
-0.000613432
-0.0658603
0.0658802
-0.000495443
-0.000476919
-0.0658976
0.0659194
-0.000391618
-0.000373299
-0.0659377
0.0659583
-0.000321723
-0.000302584
-0.0659745
0.0659921
-0.000262749
-0.000251272
-0.0660051
0.0660188
-0.000200598
-0.000199681
-0.0660285
0.0660375
-0.00014547
-0.000149793
-0.0660421
0.0660469
-0.000109579
-0.000112225
-0.0660442
0.0665382
-8.26907e-05
-8.76497e-05
-0.0667607
0.0668782
0.000652219
-4.9755e-06
-0.0684521
0.0688052
0.00332311
-0.000360387
-0.0681549
0.0604493
0.0154849
0.00432781
-0.00754624
0.0046084
0.0684631
0.0724071
-0.00203821
0.00011208
0.0667348
0.0673459
-0.00128048
-0.000875069
0.068233
0.0660342
-5.1488e-06
1.42657e-06
0.068254
0.0660431
-3.66349e-07
-4.75158e-07
0.0682493
0.0660594
1.53956e-06
-1.29541e-06
0.0682221
0.0660348
-1.15272e-06
4.88962e-06
0.06823
0.0660239
-0.00157039
0.000517113
0.0682497
0.0660421
-0.00162043
0.00226206
0.0668589
0.0676668
-0.00308364
0.00752101
0.0606406
0.0656946
0.0566239
-0.060451
0.000878004
-0.0601321
0.00195403
-0.0605623
0.00295812
-0.0623454
0.00468339
-0.0636228
0.00569759
-0.0647854
-0.0601983
0.00255588
0.00376138
-0.0615431
0.00477967
-0.0597383
0.0065185
-0.0672898
0.00773781
-0.0671252
0.00815549
-0.0711814
0.00405861
-0.0601463
0.00297495
-0.0640842
0.00354901
-0.0721528
0.00897344
-0.073545
-0.00801398
0.00679318
-0.0711777
0.00855555
-0.0724111
0.0093614
-0.0755346
-0.00766952
0.0080431
-0.0732585
0.0212027
-0.0527396
0.0780206
-0.0464837
-0.069838
0.000437117
0.0684764
-0.0763927
0.00040147
0.0063002
0.0662714
8.85293e-05
-0.0595485
-0.0498769
0.00140029
0.00123938
-0.0593998
0.0640006
-0.0642881
0.000997473
0.00666761
0.0647538
-0.0659711
0.0002979
-0.000945202
0.0660984
-0.0660968
-0.000100919
-0.000582584
0.0660944
-0.0660891
-0.000131717
-9.67983e-05
0.0660832
-0.0660753
-0.000172169
-0.000127792
0.0660674
-0.0660567
-0.000224362
-0.000167053
0.0660464
-0.0660336
-0.000287125
-0.000216743
0.0660231
-0.0660123
-0.00035765
-0.000276373
0.0660051
-0.065998
-0.000430023
-0.000341617
0.0659916
-0.0659815
-0.00050345
-0.000405294
0.0659696
-0.0659526
-0.000600664
-0.000475015
0.0659372
-0.0659203
-0.000745208
-0.000576607
0.0659074
-0.0658929
-0.000929168
-0.000717701
0.0658798
-0.0658629
-0.00115406
-0.000889725
0.0658483
-0.0658332
-0.00143813
-0.00110687
0.0658245
-0.0658229
-0.00175614
-0.00136845
0.0658318
-0.0658572
-0.00209718
-0.00164659
0.0658943
-0.0659565
-0.00251893
-0.00196611
0.0660263
-0.0661285
-0.00303868
-0.00237282
0.0662335
-0.06627
-0.00358222
-0.00283836
0.0666361
-0.0674152
-0.00401499
-0.00337226
0.0696878
-0.0727913
-0.00435539
-0.00409419
0.0737692
-0.0747945
-0.00717851
-0.00773101
-0.00686146
0.006946
-0.0756192
0.0756118
-0.0755838
-0.00688943
-0.00685216
-0.0716888
0.0705715
-0.00685226
-0.00934515
0.00799695
-0.0721968
0.0740121
-0.0750705
-0.00828675
-0.00569069
-0.0696196
0.0688923
-0.00431498
-0.00559035
-0.0671375
0.0661495
-0.00416083
-0.00401459
-0.0660674
0.0659599
-0.00337748
-0.00325642
-0.0659043
0.0658415
-0.00281679
-0.00259537
-0.0658059
0.0657656
-0.00232331
-0.00215914
-0.0657503
0.0657386
-0.00188922
-0.0017656
-0.0657368
0.0657449
-0.00155452
-0.00144089
-0.0657585
0.0657799
-0.00129254
-0.00119525
-0.0657993
0.065822
-0.0010584
-0.000990678
-0.0658396
0.065858
-0.000839184
-0.000799347
-0.065872
0.0658874
-0.000654221
-0.000627371
-0.0659012
0.0659196
-0.000513845
-0.00049068
-0.0659367
0.0659585
-0.000413359
-0.000390406
-0.065976
0.0659947
-0.000340503
-0.000320093
-0.0660082
0.0660215
-0.00027605
-0.000264735
-0.0660311
0.0660411
-0.000210662
-0.000209247
-0.0660487
0.066056
-0.000152849
-0.000157312
-0.0660614
0.0660663
-0.00011444
-0.000117581
-0.0660679
0.06607
-8.48836e-05
-8.92486e-05
-0.0662104
0.0669925
-0.000129879
-0.000145322
-0.0658042
0.0676654
0.00146188
0.000827936
-0.0676107
0.0846606
-0.00156494
0.00438252