/*--------------------------------*- C++ -*----------------------------------*\
  =========                 |
  \\      /  F ield         | OpenFOAM: The Open Source CFD Toolbox
   \\    /   O peration     | Website:  https://openfoam.org
    \\  /    A nd           | Version:  10
     \\/     M anipulation  |
\*---------------------------------------------------------------------------*/
FoamFile
{
    format      ascii;
    class       volScalarField;
    location    "13";
    object      p;
}
// * * * * * * * * * * * * * * * * * * * * * * * * * * * * * * * * * * * * * //

dimensions      [0 2 -2 0 0 0 0];

internalField   nonuniform List<scalar> 
40874
(
0.615604
0.695822
0.144987
0.223733
0.130469
0.0431442
-0.0685905
0.116031
0.201964
0.338921
0.530603
0.474906
0.332737
0.448097
0.465737
0.529119
-0.146559
-0.123064
0.226792
0.323985
0.322851
0.289569
0.185238
0.382606
0.376009
0.0788893
0.103168
0.107305
0.0585728
-0.110885
-0.0894263
0.0102597
-0.00363717
-0.340764
-0.356872
-0.357251
-0.345067
-0.00130062
0.000331591
-0.00410473
-0.00165439
-0.00200807
-0.0013757
-0.00557294
-0.00327886
-0.00344301
-0.00601371
0.364522
0.470687
0.536648
0.442432
0.209824
0.299228
-0.162249
-0.201896
-0.0984513
-0.0690973
-0.0879284
-0.207674
-0.328488
-0.30928
0.0391572
0.157463
0.130186
0.0297784
-0.437948
-0.475081
-0.436313
-0.302103
-0.300283
-0.302234
0.920304
0.925913
0.910921
-0.00385563
0.0245635
0.0308782
-0.0283072
-0.00213464
0.00404899
-0.00186548
0.000440434
0.507912
0.558102
0.561836
0.525578
0.00426494
0.0118394
0.0231577
-0.065992
-0.19288
-0.135949
-0.141375
-0.313088
-0.248868
0.00119099
0.0034842
-0.00561002
-0.0034188
-0.000262483
0.21006
0.19525
-0.315233
-0.324376
-0.361204
-0.355911
0.438345
0.44694
0.904277
0.886573
-0.344829
-0.347122
0.182952
-0.0107735
-0.00877576
0.00232852
0.00563907
0.19651
0.2326
0.488253
0.629749
0.542792
0.43272
0.506389
-0.00538466
-0.00603028
-0.000460829
-0.00684093
-0.0150289
-0.0257442
0.195058
-0.00211372
0.0187107
0.019454
0.681304
-0.0116554
-0.0190347
-0.0589066
-0.255397
-0.246764
-0.246415
-0.255099
-0.255316
-0.256016
-0.370363
-0.365935
-0.360506
0.893831
0.928101
0.919228
-0.166264
-0.202968
-0.121917
-0.361957
-0.363913
-0.360083
-0.36689
-0.355681
-0.356792
-0.353478
-0.44053
-0.45067
-0.433038
0.902199
0.825258
0.719608
0.617624
0.657618
0.241675
-0.344989
0.751809
0.693114
0.563996
0.79482
0.00766581
0.0125608
-0.277338
-0.274404
-0.2911
-0.36595
-0.356754
-0.367286
-0.364547
-0.421515
-0.41117
-0.000334452
-0.000313338
-0.000360464
0.462675
0.472017
0.450534
0.352026
0.291026
0.873256
0.897116
0.907065
0.86446
-0.0120635
-0.100463
-0.204907
-0.112006
-0.358832
-0.352433
-0.345651
-0.361322
-0.000237896
-0.000276843
-0.339403
-0.010392
-0.0170309
0.174834
0.170665
0.370413
0.217804
0.216879
0.179252
0.179002
0.205067
0.196514
0.703682
0.801637
0.816686
-0.00454943
-0.00567869
0.261493
0.167127
0.203377
0.171382
-0.366227
-0.253718
-0.260012
-0.31625
-0.317908
-0.188917
-0.299907
-0.298195
-0.300872
-0.301716
-0.299433
0.100815
0.166706
-0.288995
-0.292984
0.0558424
0.0417285
-0.064054
-0.0391215
0.641685
0.654571
0.766357
0.724166
-0.10394
-0.0969791
-0.10807
-0.118268
-0.26894
-0.263313
-0.262609
-0.301625
-0.304165
-0.29157
-0.340386
-0.339845
-0.338999
0.875958
0.840971
0.891426
0.621945
0.599794
0.605737
-0.284683
-0.000402661
-0.142937
0.0119061
-0.0222737
-0.0184757
-0.0148765
-0.0112909
-0.0074403
-0.00407927
-0.00189348
-8.91728e-05
0.00230235
0.00435277
0.00628732
0.00789527
0.00946966
0.0108093
0.0121253
0.0132535
0.0143211
0.0151599
0.0161551
0.0169869
0.0177234
0.0183475
0.0189498
0.0194519
0.0199225
0.0203016
0.0206459
0.0209054
0.0211261
0.0212664
0.0213629
0.0213751
0.0213556
0.0212281
0.0209695
0.0201309
0.0189343
0.019362
-0.0378085
-0.0269939
-0.0325699
-0.038249
-0.0490874
-0.0430281
-0.0291949
-0.0334163
-0.0214222
-0.0251619
-0.0135665
-0.0175764
-0.00688777
-0.00953587
-0.00212814
-0.00455856
0.00210895
0.000117109
0.00554156
0.00389783
0.00842989
0.00704479
0.0107347
0.00969961
0.0129761
0.011882
0.0146811
0.0138744
0.016095
0.0154184
0.0172463
0.0167021
0.0181416
0.017724
0.0187902
0.0184952
0.0192047
0.0190238
0.0193435
0.0193204
0.0187671
0.0192215
0.0185355
-0.0151965
-0.0206443
-0.00811867
-0.0113841
-0.00148748
-0.00485034
0.00245509
0.000862387
0.00585782
0.00403082
0.00943246
0.00769587
0.0123929
0.0109716
0.0148692
0.0136735
0.0169731
0.0159568
0.0186589
0.0178363
0.0201422
0.0194342
0.0213301
0.0207646
0.0222767
0.0218296
0.0229937
0.0226613
0.0234857
0.023266
0.0237446
0.023645
0.0237426
0.0237714
0.0236071
0.0237264
0.0223642
0.0229198
-0.055953
-0.0638072
-0.0516401
-0.0444971
-0.0732801
-0.0599024
-0.0835567
0.0164686
0.0162745
0.0223396
-0.0218053
-0.0168775
-0.0268883
-0.039237
-0.0469102
-0.116362
-0.0921156
-0.0950214
-0.0751491
-0.0843948
-0.0593565
-0.0666921
-0.0471164
-0.0528584
-0.0368975
-0.0420759
-0.0279488
-0.0323291
-0.0201012
-0.0240287
-0.0136008
-0.0164587
-0.00868325
-0.0111168
-0.0042083
-0.00635198
-0.000385628
-0.00221752
0.00287513
0.00131651
0.00566743
0.00431133
0.008096
0.00691963
0.010136
0.00916585
0.0118483
0.0110308
0.0132719
0.012596
0.0144259
0.0138824
0.0153239
0.014907
0.0159873
0.0156823
0.0163722
0.0162323
0.0163732
0.0163907
0.0164449
0.016005
0.0219984
0.0169854
0.0183356
-0.00802577
-0.012511
-0.000985844
-0.00419292
0.00447344
0.00203232
0.00864479
0.006463
0.0121835
0.0106206
0.0152117
0.0137352
0.0177819
0.016563
0.0199149
0.0188972
0.0216946
0.0208505
0.0231525
0.0224594
0.0243786
0.0237954
0.0253612
0.0249
0.0261237
0.0257694
0.026676
0.0264265
0.0270179
0.0268739
0.0271371
0.0271068
0.0270497
0.0271134
0.0266364
0.0269155
0.0259961
0.0262479
0.0251278
0.025626
-0.032637
-0.0107933
-0.0068374
-0.0153522
-0.0262847
-0.0334752
0.0282842
0.0245405
0.0276592
-0.105304
-0.0692438
0.0151768
-0.0559539
0.0140378
-0.130708
-0.134629
-0.160604
-0.166872
-0.149163
-0.102245
-0.115626
-0.0850373
-0.0935467
-0.0687162
-0.0765082
-0.055279
-0.0617999
-0.0445868
-0.049831
-0.0348782
-0.0397487
-0.0269438
-0.0307764
-0.0201096
-0.0234205
-0.0146532
-0.0172869
-0.00985063
-0.0121641
-0.00568418
-0.00768914
-0.00209085
-0.00381537
0.00100499
-0.000504943
0.00366521
0.00237904
0.00595155
0.00485787
0.00788554
0.00696101
0.00950469
0.00873356
0.010836
0.0102058
0.0118963
0.0114002
0.0127092
0.012331
0.0132786
0.0130369
0.0134925
0.0133736
0.0135618
0.0135988
0.0128944
0.0133416
0.012454
0.0184868
0.016154
0.0214797
0.000270097
-0.00326244
0.00667896
0.00370298
0.0112774
0.00919247
0.015287
0.0132471
0.0184728
0.0170355
0.0209745
0.0197621
0.023113
0.0220948
0.024885
0.02404
0.0263563
0.0256563
0.0275578
0.0269882
0.0285538
0.0280795
0.0293501
0.0289773
0.0299538
0.0296753
0.030372
0.0301863
0.0306001
0.0305106
0.0306225
0.0306384
0.0304169
0.0305512
0.0298959
0.0301978
0.0292122
0.0295879
0.028783
-0.0203425
-0.0424646
0.00016753
0.00353128
0.0238871
0.0269081
-0.00368326
-0.123591
0.00936071
0.00811757
-0.152172
-0.0798621
-0.0920628
-0.169657
-0.186392
-0.18465
-0.0667134
-0.0529539
-0.139594
-0.154151
-0.113244
-0.125757
-0.0936465
-0.102888
-0.0773542
-0.0853503
-0.0633059
-0.0700397
-0.0518829
-0.0572542
-0.0420995
-0.0468579
-0.0337345
-0.0377023
-0.0264489
-0.0299495
-0.0204008
-0.0233049
-0.015193
-0.0176954
-0.0106951
-0.012861
-0.00679813
-0.00867378
-0.00345291
-0.00506096
-0.000551446
-0.00194943
0.00193816
0.000744019
0.00405797
0.00304305
0.00584201
0.00499093
0.00731926
0.00661814
0.00850864
0.00795053
0.00943269
0.0090024
0.0101117
0.00980981
0.0104328
0.0102855
0.0106027
0.0105414
0.0100068
0.0104465
0.00953949
0.0131553
0.0106758
0.0181254
0.0155752
0.0209036
0.00949121
0.00651411
0.0149119
0.0124072
0.0188145
0.0169819
0.0222015
0.0205596
0.0248588
0.0236326
0.026923
0.0259405
0.028633
0.0278202
0.030034
0.0293685
0.0311789
0.0306361
0.032108
0.0316683
0.0328554
0.0325028
0.033436
0.0331665
0.0338536
0.033665
0.0341086
0.0340018
0.0341924
0.0341728
0.0340889
0.0341651
0.0337761
0.0339615
0.0332098
0.0335221
0.0324717
0.0328661
0.0314622
0.0320257
-0.206429
-0.204038
-0.0785764
-0.174956
0.0299794
0.0307887
-0.01308
-0.00809566
-0.0273511
-0.0191586
-0.0664897
-0.228499
-0.200277
-0.167825
-0.23003
-0.207596
0.0141172
0.0112842
-0.109498
-0.247651
-0.245181
-0.0374291
0.0331068
0.0290707
0.0321615
-0.2453
-0.145898
-0.18903
-0.172981
-0.188144
-0.147286
-0.159449
-0.123123
-0.135039
-0.10229
-0.112123
-0.0854115
-0.0934476
-0.0710812
-0.0779615
-0.0590875
-0.0647574
-0.0489617
-0.0538497
-0.0401815
-0.0443694
-0.0325477
-0.036214
-0.0260748
-0.0291924
-0.0204824
-0.0231688
-0.0156576
-0.0179804
-0.0114727
-0.0134888
-0.00786453
-0.00959796
-0.00473278
-0.0062417
-0.00203827
-0.00333223
0.000266778
-0.000838294
0.002218
0.00128571
0.0038446
0.00307104
0.00516889
0.00454534
0.00620986
0.0057248
0.00699315
0.0066353
0.00743839
0.00724773
0.00770384
0.00759939
0.00737503
0.00766499
0.00668354
0.00694274
0.0122343
0.00670626
0.00975233
0.0174804
0.0148392
0.0230953
0.0202313
0.0260451
0.0189432
0.0166159
0.023345
0.0212777
0.0265966
0.0250834
0.0292154
0.0279717
0.0312611
0.0303105
0.0328323
0.0320916
0.0341013
0.0335
0.0351263
0.0346416
0.0359501
0.0355611
0.0366048
0.0362969
0.0371165
0.0368774
0.0374964
0.037323
0.0377441
0.0376369
0.0378551
0.0378173
0.0378169
0.0378559
0.0376091
0.0377358
0.0372007
0.0374328
0.0365658
0.0369103
0.0357204
0.0361719
0.0346438
0.0352045
0.033933
0.00788637
0.000276243
0.00429467
-0.0116467
-0.00489535
-0.097219
-0.230419
-0.212375
-0.259824
-0.263992
0.0040858
0.00398278
-0.0501925
-0.0198419
0.0280413
0.0310396
-0.229369
-0.167394
-0.245243
-0.135714
-0.0872299
0.0224595
0.024821
-0.179215
-0.194266
-0.154121
-0.166301
-0.131214
-0.142384
-0.110399
-0.120318
-0.0931378
-0.101339
-0.0785647
-0.0855601
-0.0661558
-0.0720764
-0.0555756
-0.0606649
-0.046427
-0.0508118
-0.0384768
-0.0422973
-0.031657
-0.0349452
-0.0257298
-0.0285814
-0.0205932
-0.0230672
-0.0161288
-0.0182802
-0.0122577
-0.0141205
-0.00889473
-0.010515
-0.00598979
-0.00738628
-0.00349398
-0.00469179
-0.00136934
-0.00238605
0.000414301
-0.000435434
0.00188322
0.00118833
0.0030533
0.00250633
0.00394875
0.00353484
0.00453697
0.00427623
0.00489838
0.00474929
0.00484713
0.00495951
0.00458007
0.0114954
0.00623414
0.00885668
0.0166815
0.0140785
0.0221879
0.0193913
0.0250789
0.0286936
0.0268491
0.0319461
0.0303989
0.0344
0.0332649
0.036276
0.0353975
0.03771
0.0370446
0.0387866
0.0382856
0.0396167
0.0392278
0.040262
0.0399602
0.0407593
0.0405275
0.0411357
0.0409616
0.0414077
0.0412843
0.041582
0.0415073
0.0416555
0.041632
0.0416189
0.041652
0.0414555
0.0415546
0.041142
0.0413193
0.0406484
0.04092
0.0399476
0.0403247
0.0390212
0.0395154
0.0378244
0.0384592
0.0362562
0.0371207
-0.273157
0.00395742
-0.029178
-0.0635613
0.0341078
0.0352621
-0.189062
-0.271371
-0.258812
-0.00214757
0.0199077
0.0169988
0.0136547
0.00940353
0.00428619
-0.116798
-0.262775
-0.164099
-0.217016
-0.232388
0.0355978
0.0339011
0.00597038
0.00373731
-0.00999462
-0.282695
-0.0792769
0.0372662
0.0328394
0.0359199
-0.186654
-0.20127
-0.160786
-0.17331
-0.138032
-0.148916
-0.117772
-0.127472
-0.100484
-0.108759
-0.0856884
-0.0927911
-0.0729721
-0.0790671
-0.0620058
-0.0672802
-0.0525103
-0.0570687
-0.0442481
-0.0482226
-0.0371032
-0.0405475
-0.0308717
-0.0338731
-0.0254431
-0.0280593
-0.0207094
-0.0229913
-0.0165864
-0.0185726
-0.0129962
-0.014726
-0.0098834
-0.011381
-0.00719811
-0.00848791
-0.00490068
-0.00600143
-0.00295877
-0.00388546
-0.00134479
-0.0021115
-4.16805e-05
-0.000653617
0.000972021
0.000500641
0.00168828
0.00136481
0.00214755
0.00195136
0.00224018
0.002258
0.00178507
0.00208538
0.0017563
0.0017379
0.0108067
0.00829985
0.0158649
0.0133359
0.0211821
0.0184657
0.0268966
0.0240041
0.0298304
0.0384707
0.0371927
0.040624
0.0396051
0.0422195
0.0414925
0.0433526
0.0428335
0.0441577
0.0437921
0.0447128
0.044462
0.0450971
0.044923
0.0453612
0.0452427
0.0455342
0.0454583
0.0456348
0.0455933
0.0456731
0.045662
0.0456504
0.0456702
0.0455594
0.0456146
0.0453863
0.0454847
0.0451106
0.0452634
0.0447043
0.0449261
0.0441342
0.0444425
0.0433664
0.0437773
0.0423651
0.042898
0.0410851
0.0417631
0.0394507
0.040325
0.0384269
-0.209485
-0.290503
-0.245941
0.0319956
0.0298498
0.0272332
0.0240927
0.0202368
0.0152515
0.00155631
-0.244371
-0.264498
0.00975071
0.0357852
0.038863
-0.04052
-0.273892
-0.308063
-0.29276
-0.107368
0.0404822
0.0391376
0.0314302
0.0344502
-0.220678
-0.234207
-0.192514
-0.206289
-0.166867
-0.17938
-0.144399
-0.155191
-0.124585
-0.134064
-0.107404
-0.115669
-0.09246
-0.0996429
-0.0795
-0.0857229
-0.0682324
-0.0736541
-0.0584218
-0.0631357
-0.0498552
-0.0539783
-0.0423983
-0.0459911
-0.0358766
-0.0390182
-0.0301724
-0.0329216
-0.0251815
-0.0275872
-0.0208194
-0.0229212
-0.0170106
-0.0188456
-0.0136972
-0.0152918
-0.0108284
-0.012207
-0.00836325
-0.00954521
-0.00626685
-0.00726872
-0.00451196
-0.00534734
-0.00307794
-0.00375402
-0.00194559
-0.00247425
-0.00111478
-0.00149351
-0.000567409
-0.000803921
-0.00036905
-0.000415521
-0.000497238
-0.000404176
-0.000470894
-0.000516555
0.00115079
-0.00102435
-0.000652436
0.00550595
0.00336642
0.0101644
0.00780203
0.0150626
0.0126066
0.0201524
0.0175671
0.0256471
0.0228684
0.0285047
0.029255
0.0323357
0.0442072
0.04106
0.0428164
0.0466068
0.0454606
0.0482631
0.047488
0.0493279
0.0488358
0.0500296
0.0497265
0.0504177
0.0502572
0.0505952
0.0505301
0.0506267
0.0506274
0.0505653
0.0506063
0.0504485
0.0505136
0.0502975
0.0503777
0.0501235
0.0502142
0.04993
0.0500304
0.0497127
0.0498259
0.0494605
0.049593
0.0491553
0.0493168
0.0487724
0.0489765
0.0482799
0.0485427
0.0476425
0.0479829
0.0468179
0.0472572
0.0457589
0.0463219
0.0444065
0.0451246
0.0427036
0.0435947
0.0416566
0.00516916
-0.0177237
-0.282936
0.0267625
-0.273892
-0.268594
0.000900904
-0.00167109
0.0375399
0.0299487
0.0328338
-0.0506155
-0.28763
-0.293552
-0.278469
-0.277518
-0.245868
-0.250736
-0.223456
-0.23647
-0.196892
-0.209863
-0.17248
-0.184405
-0.150563
-0.161193
-0.131039
-0.140392
-0.113933
-0.122171
-0.0988992
-0.10613
-0.0857415
-0.0920623
-0.0742237
-0.0797633
-0.0641333
-0.068982
-0.0552821
-0.05954
-0.047534
-0.0512633
-0.0407364
-0.0440083
-0.0347713
-0.037644
-0.0295365
-0.0320579
-0.0249476
-0.0271574
-0.0209301
-0.0228644
-0.0174245
-0.019111
-0.0143793
-0.0158424
-0.0117523
-0.013012
-0.00950697
-0.0105809
-0.00761443
-0.00851592
-0.00605331
-0.00679147
-0.00480363
-0.00538907
-0.00386114
-0.00429408
-0.00321304
-0.00349909
-0.00288679
-0.00300541
-0.00282982
-0.00283468
-0.0028361
-0.00280937
-0.00304825
-0.00288721
0.0050265
0.00286164
0.00950011
0.00723065
0.0142445
0.0118656
0.0191452
0.016671
0.0243657
0.0217078
0.0270941
0.0399212
0.048457
0.0462181
0.0521509
0.0504305
0.0551396
0.0538671
0.0567265
0.0560253
0.0575715
0.0571954
0.0579925
0.0578456
0.0580109
0.0580332
0.0578073
0.0579359
0.0574442
0.0576444
0.0569904
0.0572285
0.0564925
0.0567476
0.0559844
0.0562407
0.055489
0.0557367
0.0550176
0.0552523
0.0545736
0.0547944
0.054154
0.0543633
0.0537495
0.0539527
0.0533442
0.0535501
0.0529163
0.0531365
0.0524368
0.0526871
0.0518694
0.0521679
0.0511749
0.0515428
0.0503031
0.0507661
0.0491972
0.049785
0.0477864
0.0485368
0.0459983
0.0469436
0.0437641
0.0449545
-0.00355953
0.0358367
0.0407878
0.0423813
0.0250549
-0.294463
-0.304092
-0.294362
-0.282862
-0.00550961
0.0389511
-0.299295
0.742001
0.186376
0.187578
-0.00358888
0.679247
-0.313322
-0.276243
-0.280357
-0.272129
-0.251235
-0.225443
-0.236834
-0.200769
-0.213028
-0.177598
-0.188922
-0.156423
-0.166756
-0.137203
-0.146449
-0.120157
-0.128371
-0.105058
-0.112325
-0.0917331
-0.0981377
-0.0799919
-0.0856374
-0.0696482
-0.0746189
-0.060534
-0.0649166
-0.0525166
-0.0563731
-0.0454587
-0.0488539
-0.0392461
-0.042236
-0.0337791
-0.0364108
-0.0289735
-0.0312866
-0.0247559
-0.0267858
-0.0210654
-0.0228405
-0.0178501
-0.019395
-0.0150661
-0.0164016
-0.0126764
-0.0138202
-0.0106495
-0.0116157
-0.00896371
-0.00976282
-0.00759731
-0.00823971
-0.00654113
-0.00703006
-0.00578081
-0.0061233
-0.00532106
-0.00551081
-0.00514465
-0.00520047
-0.00511957
-0.00511042
-0.00527979
-0.00519441
-0.00670986
-0.0055913
-0.0156694
-0.01322
-0.0162786
-0.0163424
-0.0166703
-0.0171441
-0.0176457
-0.0181867
-0.018736
-0.0192953
-0.0198599
-0.0204286
-0.0209999
-0.0215725
-0.0221467
-0.0227215
-0.0232967
-0.0238717
-0.0244463
-0.0250205
-0.0255939
-0.0261667
-0.0267387
-0.0273099
-0.0278802
-0.0284497
-0.0290182
-0.0295857
-0.0301522
-0.0307175
-0.0312816
-0.0318444
-0.0324056
-0.0329652
-0.0335228
-0.0340782
-0.0346311
-0.0351812
-0.035728
-0.0362713
-0.0368106
-0.0373453
-0.037875
-0.038399
-0.0389169
-0.0394279
-0.0399315
-0.040427
-0.0409136
-0.0413907
-0.0418574
-0.042313
-0.0427567
-0.0431877
-0.0436052
-0.0440082
-0.0443961
-0.0447678
-0.0451225
-0.0454594
-0.0457776
-0.046076
-0.046354
-0.0466104
-0.0468444
-0.0470552
-0.0472413
-0.0474013
-0.047535
-0.0476452
-0.0477322
-0.0477718
-0.0477199
-0.0476513
-0.0479429
-0.0486083
-0.0471082
-0.0474739
-0.0471812
-0.0470456
-0.0467776
-0.046505
-0.0461767
-0.0458154
-0.0454109
-0.0449672
-0.0444818
-0.043955
-0.043386
-0.0427744
-0.0421198
-0.0414217
-0.0406797
-0.0398935
-0.0390628
-0.0381874
-0.0372669
-0.0363013
-0.0352904
-0.0342341
-0.0331324
-0.0319852
-0.0307926
-0.0295545
-0.0282707
-0.0269413
-0.0255671
-0.024149
-0.0226825
-0.0211501
-0.0195304
-0.0178576
-0.0163015
-0.0149109
-0.0123703
-0.0102575
-0.00776169
-0.0094162
-0.00396569
-0.00518431
0.00043983
-0.000941668
0.00443055
0.00250066
0.00882455
0.0066144
0.0134132
0.0111144
0.0181458
0.0157614
0.0231102
0.0205901
0.0283747
0.025714
0.0339979
0.0311503
0.0422037
0.0400708
0.0369705
0.171234
0.0433249
0.0467104
0.0501202
0.0536831
0.0574376
0.0614821
0.0658118
0.0704724
0.0754566
0.0809372
0.0870033
0.0936812
0.101014
0.109031
0.117499
0.12639
0.136728
0.151271
-0.302841
-0.399372
-0.32634
-0.354483
0.0441054
0.0457207
0.0470835
0.0482992
0.0493925
0.0503707
0.0512388
0.0520067
0.0526852
0.0532869
0.0538212
0.0542986
0.0547265
0.0551136
0.0554664
0.0557931
0.0560977
0.0563875
0.0566653
0.0569377
0.0572082
0.0574814
0.0577598
0.0580474
0.0583458
0.0586584
0.0589861
0.0593317
0.0596954
0.0600793
0.0604828
0.0609078
0.0613527
0.0618186
0.0623033
0.0628068
0.063326
0.0638606
0.0644066
0.0649627
0.0655232
0.0660859
0.0666455
0.0671966
0.0677233
0.0681841
0.0686552
0.0690613
0.0694322
0.0696377
0.069596
0.0692584
0.0685013
0.0689344
0.0679123
0.0663388
0.0604721
0.0465946
0.0163432
-0.061929
0.0455535
0.0490314
0.0525814
0.0562667
0.0601503
0.0642783
0.0686662
0.0733526
0.0783542
0.0836557
0.0895136
0.0958147
0.102571
0.109671
0.116913
0.12414
0.133013
0.145633
0.160362
0.170089
0.17354
-0.0158728
0.172583
-0.300222
0.152353
0.138975
0.127877
0.117229
0.107313
0.0983412
0.0904979
0.0835423
0.0773549
0.0718437
0.0668764
0.0623208
0.0581363
0.0542371
0.0506543
0.0471925
0.044188
0.0409992
0.0379293
0.0349727
0.0322083
0.0294874
0.0269065
0.0243815
0.0219064
0.0195035
0.0171577
0.0148603
0.012597
0.0103839
0.0081886
0.00607963
0.00395339
0.00211713
0.000409465
-0.00164494
-0.00423553
-0.00620648
-0.00763746
-0.00968363
-0.0110379
-0.0128519
-0.0147597
-0.0163942
-0.0179111
-0.0194596
-0.0210018
-0.0224994
-0.0239476
-0.0253515
-0.026713
-0.0280316
-0.0293065
-0.0305374
-0.0317242
-0.0328671
-0.0339659
-0.0350206
-0.0360312
-0.0369977
-0.0379202
-0.0387988
-0.0396338
-0.0404252
-0.0411733
-0.0418785
-0.042541
-0.0431611
-0.0437394
-0.0442761
-0.0447721
-0.045227
-0.0456429
-0.0460165
-0.0463567
-0.0466437
-0.0469217
-0.04708
-0.0473725
-0.0471909
-0.0483264
-0.0475926
-0.0475009
-0.0476722
-0.0477538
-0.0477326
-0.0476643
-0.04757
-0.0474494
-0.0473012
-0.0471265
-0.0469269
-0.0467035
-0.0464574
-0.0461894
-0.0459005
-0.0455915
-0.0452633
-0.0449169
-0.0445531
-0.0441727
-0.0437766
-0.0433657
-0.0429408
-0.0425027
-0.0420524
-0.0415904
-0.0411177
-0.040635
-0.0401431
-0.0396426
-0.0391342
-0.0386186
-0.0380965
-0.0375684
-0.0370348
-0.0364964
-0.0359535
-0.0354068
-0.0348565
-0.0343031
-0.0337468
-0.0331881
-0.0326272
-0.0320643
-0.0314997
-0.0309334
-0.0303656
-0.0297965
-0.0292262
-0.0286546
-0.028082
-0.0275082
-0.0269335
-0.0263577
-0.0257811
-0.0252036
-0.0246253
-0.0240464
-0.0234668
-0.0228867
-0.0223066
-0.0217266
-0.0211505
-0.0205746
-0.0200005
-0.0194301
-0.018864
-0.0183075
-0.0177501
-0.0172336
-0.0165893
-0.0165622
-0.0163424
0.173006
-0.381492
-0.38592
-0.429317
-0.398301
-0.439201
-0.4312
-0.439159
-0.378373
-0.00827398
-0.00768349
-0.00750658
-0.00738176
-0.00730823
-0.00732058
-0.00739584
-0.00751148
-0.00769548
-0.0079504
-0.00827992
-0.00868101
-0.00915472
-0.00970194
-0.0103251
-0.0110265
-0.0118072
-0.0126689
-0.0136151
-0.0146482
-0.0157717
-0.0169878
-0.0183011
-0.0197153
-0.0212356
-0.0228662
-0.0246133
-0.0264819
-0.0284791
-0.0306109
-0.0328855
-0.0353098
-0.037894
-0.040646
-0.0435772
-0.0466968
-0.0500181
-0.0535517
-0.0573134
-0.061315
-0.0655727
-0.0701032
-0.0749224
-0.0800423
-0.0854897
-0.0912764
-0.0974253
-0.103954
-0.110888
-0.118241
-0.126033
-0.13428
-0.142996
-0.152185
-0.161866
-0.171993
-0.182481
-0.193376
-0.20467
-0.216196
-0.2275
-0.237597
-0.258489
-0.266232
-0.263995
-0.263094
-0.274013
-0.270431
-0.266586
-0.277965
-0.274586
-0.270419
-0.281616
-0.278076
-0.275596
-0.285768
-0.278421
-0.285409
-0.290428
-0.00992776
-0.0109581
-0.00954046
-0.011209
-0.00943547
-0.0112518
-0.00937764
-0.011258
-0.00936719
-0.0113497
-0.00944533
-0.0115072
-0.0095822
-0.01171
-0.00976477
-0.0119585
-0.0100128
-0.0122688
-0.0103288
-0.0126438
-0.0107158
-0.0130869
-0.0111734
-0.0135996
-0.0117032
-0.0141842
-0.0123069
-0.0148429
-0.0129865
-0.015578
-0.013745
-0.0163923
-0.0145835
-0.0172879
-0.015505
-0.0182677
-0.0165121
-0.0193347
-0.0176082
-0.0204923
-0.0187961
-0.0217438
-0.0200798
-0.0230931
-0.0214626
-0.0245443
-0.0229496
-0.026102
-0.0245447
-0.0277709
-0.026254
-0.0295564
-0.0280818
-0.031464
-0.0300353
-0.0335001
-0.0321197
-0.0356707
-0.0343432
-0.0379835
-0.0367117
-0.0404454
-0.039235
-0.0430651
-0.0419199
-0.0458506
-0.0447778
-0.048812
-0.0478162
-0.0519582
-0.0510484
-0.0553008
-0.0544827
-0.0588497
-0.0581345
-0.0626179
-0.0620134
-0.0666169
-0.0661367
-0.070861
-0.0705137
-0.0753618
-0.0751658
-0.0801362
-0.0801014
-0.0851951
-0.0853404
-0.0905549
-0.0908969
-0.0962299
-0.0967916
-0.102236
-0.103034
-0.108585
-0.10965
-0.115294
-0.116647
-0.122371
-0.124049
-0.129831
-0.131857
-0.137676
-0.140091
-0.145912
-0.148743
-0.154527
-0.157823
-0.163513
-0.167309
-0.172836
-0.177157
-0.182457
-0.187337
-0.192359
-0.197843
-0.202494
-0.208614
-0.212728
-0.21942
-0.222811
-0.229781
-0.232253
-0.238974
-0.24026
-0.246407
-0.246077
-0.251976
-0.250379
-0.255016
-0.254208
-0.259404
-0.258075
-0.262266
-0.260427
-0.26651
-0.263427
-0.271677
-0.267351
-0.277482
-0.272708
-0.283157
-0.279764
-0.286668
-0.290926
-0.29269
-0.301125
-0.309288
-0.322137
-0.0122494
-0.0118234
-0.0121297
-0.0117224
-0.0114511
-0.010635
-0.0102887
-0.00968324
-0.00938216
-0.00893927
-0.00836828
-0.00802169
-0.00763782
-0.007237
-0.00685565
-0.00649676
-0.00615567
-0.00583132
-0.00552494
-0.00523688
-0.00496632
-0.00471252
-0.00447517
-0.00425363
-0.00404602
-0.00384615
-0.00364566
-0.00343364
-0.0032982
-0.00314376
-0.00315987
-0.00279999
-0.00276219
-0.00281052
-0.00280702
-0.00274595
-0.00262099
-0.00274595
-0.00277407
-0.00275176
-0.0026226
-0.00273745
-0.00282066
-0.00285257
-0.00285895
-0.00320852
-0.00303826
-0.00319102
-0.00334833
-0.00367857
-0.00355455
-0.00388645
-0.00396787
-0.00396497
-0.00427528
-0.00452534
-0.00469437
-0.00480292
-0.00506483
-0.00520546
-0.0055505
-0.00579442
-0.00578192
-0.0062535
-0.00631508
-0.00639565
-0.00671402
-0.00681474
-0.00677895
-0.00679986
-0.00658027
-0.00680477
-0.00634367
-0.0124513
-0.0152898
-0.016661
-0.0180895
-0.0197156
-0.0213444
-0.0228939
-0.0243749
-0.0258074
-0.0271964
-0.0285399
-0.0298361
-0.0310845
-0.0322855
-0.0334392
-0.0345457
-0.035605
-0.0366173
-0.0375826
-0.0385012
-0.0393734
-0.0401995
-0.0409796
-0.0417144
-0.042404
-0.0430491
-0.0436501
-0.0442075
-0.0447219
-0.045194
-0.0456237
-0.0460135
-0.0463598
-0.0466713
-0.0469314
-0.0471749
-0.0473307
-0.047552
-0.0475984
-0.0479682
-0.047928
-0.0477747
-0.0477596
-0.0477676
-0.0477162
-0.0476156
-0.0474872
-0.0473357
-0.0471591
-0.046957
-0.0467307
-0.0464815
-0.0462104
-0.0459184
-0.0456064
-0.0452753
-0.0449261
-0.0445596
-0.0441767
-0.0437783
-0.0433654
-0.0429386
-0.042499
-0.0420473
-0.0415843
-0.0411109
-0.0406277
-0.0401356
-0.0396352
-0.0391272
-0.0386124
-0.0380913
-0.0375646
-0.0370328
-0.0364965
-0.0359561
-0.0354122
-0.0348651
-0.0343153
-0.0337631
-0.0332088
-0.0326528
-0.0320952
-0.0315363
-0.0309763
-0.0304153
-0.0298534
-0.0292907
-0.0287272
-0.0281632
-0.0275984
-0.0270331
-0.0264673
-0.0259009
-0.025334
-0.0247667
-0.0241991
-0.0236312
-0.0230632
-0.0224954
-0.0219281
-0.0213616
-0.0207966
-0.0202336
-0.0196736
-0.019118
-0.0185685
-0.0180286
-0.0175022
-0.0169962
-0.0165275
-0.0160033
-0.0156618
-0.0143674
-0.014646
-0.0132996
-0.0123102
-0.0116492
-0.0112951
-0.0109515
-0.0104989
-0.0100818
-0.00960152
-0.00899722
-0.00865719
-0.00829255
-0.00783414
-0.00744966
-0.00708113
-0.00671769
-0.00636805
-0.00603474
-0.00571788
-0.00541801
-0.00513523
-0.00486879
-0.00461795
-0.00438226
-0.00416119
-0.00395368
-0.003758
-0.00357269
-0.00340083
-0.00323985
-0.00307493
-0.00301106
-0.00290315
-0.0028069
-0.00279112
-0.00276069
-0.00273065
-0.00267388
-0.00267437
-0.00275715
-0.00276438
-0.00262194
-0.00261386
-0.00275656
-0.00289204
-0.00293264
-0.00306025
-0.00311495
-0.00320053
-0.00335385
-0.00355249
-0.00364254
-0.00375989
-0.00390734
-0.004028
-0.0042171
-0.00445358
-0.00462121
-0.00484218
-0.00483928
-0.00521537
-0.00543032
-0.00559904
-0.0057275
-0.00595009
-0.00610211
-0.00621022
-0.00636861
-0.00648658
-0.00643795
-0.00637948
-0.00627323
-0.00633208
-0.0129001
-0.0149488
-0.0166564
-0.0182541
-0.0199011
-0.0215456
-0.0231282
-0.0246438
-0.0261054
-0.027519
-0.0288841
-0.0301993
-0.0314641
-0.0326789
-0.033844
-0.0349595
-0.0360256
-0.0370425
-0.0380104
-0.0389295
-0.0398002
-0.0406229
-0.0413979
-0.0421257
-0.0428069
-0.0434418
-0.0440312
-0.0445757
-0.0450758
-0.0455325
-0.0459458
-0.0463179
-0.0466467
-0.0469381
-0.0471833
-0.0474025
-0.0475656
-0.0477369
-0.0478272
-0.0479371
-0.0479938
-0.0479301
-0.0478696
-0.0478223
-0.047745
-0.0476273
-0.0474791
-0.0473063
-0.0471091
-0.0468874
-0.0466419
-0.046374
-0.0460847
-0.0457751
-0.0454462
-0.0450988
-0.0447339
-0.0443525
-0.0439555
-0.0435437
-0.0431181
-0.0426795
-0.0422287
-0.0417667
-0.0412941
-0.0408118
-0.0403205
-0.039821
-0.039314
-0.0388001
-0.03828
-0.0377544
-0.0372238
-0.0366887
-0.0361497
-0.0356073
-0.035062
-0.034514
-0.0339639
-0.0334118
-0.0328583
-0.0323034
-0.0317474
-0.0311906
-0.0306331
-0.030075
-0.0295163
-0.0289573
-0.028398
-0.0278383
-0.0272784
-0.0267181
-0.0261577
-0.025597
-0.0250361
-0.024475
-0.0239139
-0.0233528
-0.0227918
-0.0222312
-0.0216713
-0.0211124
-0.0205551
-0.0199999
-0.0194478
-0.0188997
-0.0183572
-0.0178222
-0.0172966
-0.0167807
-0.0162738
-0.0157628
-0.0152017
-0.0146053
-0.0140666
-0.0132412
-0.012219
-0.0115677
-0.0111181
-0.0107408
-0.0103088
-0.00985599
-0.00941421
-0.00891541
-0.00853182
-0.0081672
-0.00772032
-0.00732034
-0.00695561
-0.00660242
-0.00626008
-0.00593224
-0.00562047
-0.00532545
-0.0050469
-0.0047839
-0.00453555
-0.00430132
-0.00408095
-0.00387384
-0.00368086
-0.00350019
-0.0033356
-0.00317154
-0.00304577
-0.00294213
-0.00291411
-0.00285032
-0.00277612
-0.00273387
-0.0027045
-0.00268725
-0.00264931
-0.00271363
-0.00270983
-0.0026122
-0.00254222
-0.00272095
-0.00288491
-0.00294334
-0.00301532
-0.0031043
-0.00319594
-0.0033142
-0.00346554
-0.00358831
-0.00373118
-0.00386315
-0.00398965
-0.00416399
-0.00435409
-0.00451068
-0.00470781
-0.00477681
-0.00518242
-0.0052628
-0.00538922
-0.00554318
-0.0057057
-0.00584317
-0.00594883
-0.0060276
-0.00608031
-0.0060308
-0.00597632
-0.00589375
-0.0056996
-0.00494732
-0.00408874
-0.00314677
-0.00239221
-0.00170162
-0.00192479
-0.0129974
-0.014863
-0.0167073
-0.0184427
-0.0201299
-0.0217886
-0.0233981
-0.0249477
-0.0264407
-0.0278813
-0.0292704
-0.0306072
-0.0318914
-0.0331231
-0.0343026
-0.0354302
-0.0365059
-0.03753
-0.0385029
-0.0394247
-0.0402959
-0.041117
-0.0418883
-0.0426105
-0.0432841
-0.0439097
-0.044488
-0.0450198
-0.0455057
-0.0459467
-0.0463431
-0.0466969
-0.0470071
-0.047278
-0.0475054
-0.0477006
-0.04785
-0.0479791
-0.0480524
-0.0481141
-0.0481454
-0.0480985
-0.0480163
-0.0479272
-0.0478181
-0.0476767
-0.0475048
-0.0473071
-0.0470852
-0.0468395
-0.0465708
-0.0462802
-0.0459688
-0.0456377
-0.045288
-0.0449206
-0.0445364
-0.0441366
-0.0437219
-0.0432933
-0.0428517
-0.042398
-0.0419331
-0.0414577
-0.0409727
-0.0404788
-0.0399769
-0.0394676
-0.0389516
-0.0384296
-0.0379022
-0.03737
-0.0368337
-0.0362936
-0.0357504
-0.0352045
-0.0346563
-0.0341062
-0.0335545
-0.0330016
-0.0324478
-0.0318932
-0.0313381
-0.0307827
-0.0302271
-0.0296714
-0.0291157
-0.02856
-0.0280045
-0.0274491
-0.0268938
-0.0263387
-0.0257837
-0.0252289
-0.0246742
-0.0241197
-0.0235654
-0.0230114
-0.0224579
-0.021905
-0.021353
-0.0208022
-0.020253
-0.0197059
-0.0191615
-0.0186206
-0.0180839
-0.0175522
-0.0170256
-0.0165022
-0.0159805
-0.0154463
-0.0149076
-0.0142847
-0.0136714
-0.0129584
-0.012157
-0.0115114
-0.0110356
-0.0106112
-0.0101654
-0.00970837
-0.009262
-0.00882024
-0.00840605
-0.00800985
-0.00760579
-0.00721714
-0.00685294
-0.00650443
-0.00616823
-0.00584596
-0.00553924
-0.00524875
-0.00497416
-0.00471463
-0.00446947
-0.00423824
-0.00402089
-0.0038172
-0.00362859
-0.00345422
-0.00329815
-0.00314702
-0.00302566
-0.00292694
-0.00289323
-0.00282378
-0.00274997
-0.00270139
-0.00266771
-0.00264954
-0.0026233
-0.00266581
-0.00265268
-0.00259381
-0.0025632
-0.00271678
-0.00283488
-0.00289911
-0.00296827
-0.00305528
-0.00315374
-0.00326571
-0.00339716
-0.00352475
-0.00365731
-0.00379074
-0.00392636
-0.00408117
-0.00424942
-0.00440706
-0.00457695
-0.00473362
-0.00492878
-0.00507012
-0.00520073
-0.00533405
-0.00546248
-0.00556984
-0.00564501
-0.00568776
-0.00569638
-0.00564957
-0.0055557
-0.00538502
-0.0050906