/*--------------------------------*- C++ -*----------------------------------*\
  =========                 |
  \\      /  F ield         | OpenFOAM: The Open Source CFD Toolbox
   \\    /   O peration     | Website:  https://openfoam.org
    \\  /    A nd           | Version:  10
     \\/     M anipulation  |
\*---------------------------------------------------------------------------*/
FoamFile
{
    format      ascii;
    class       volScalarField;
    location    "51";
    object      p;
}
// * * * * * * * * * * * * * * * * * * * * * * * * * * * * * * * * * * * * * //

dimensions      [0 2 -2 0 0 0 0];

internalField   nonuniform List<scalar> 
28942
(
-0.00376285
-0.00313473
0.0020377
0.00951729
0.0098174
0.00010791
0.000327882
3.46248e-05
0.00273303
0.00282107
-0.00230889
-0.00257831
-0.00296268
-0.00288
0.000217381
0.000548932
0.00990033
0.0101702
0.00559464
0.00715571
0.00817272
0.00816451
-0.00522473
-0.00504859
-0.00357723
-0.00379979
0.0138981
0.0138471
0.00354576
0.00348902
2.5774e-05
6.30994e-05
0.000856216
0.00035541
0.00716455
0.0083705
0.0109077
0.0128666
2.33373e-06
0.0150622
0.00912139
0.0116193
0.00182304
0.00174584
0.00179888
0.000327114
0.000182963
0.000261762
0.000301959
0.000422071
0.000795164
0.00281499
0.00288546
0.0028649
0.00302067
-0.00234412
-0.00103984
-0.00337094
-0.00321629
-0.00348826
-0.00356126
-0.00356222
-0.00346
-0.000103186
-0.00180746
-0.000348006
0.000985713
0.00944186
0.00894527
-0.00335292
-0.00356339
-0.00329791
0.00900614
0.00885823
0.00914993
-0.00146335
-0.00107513
-0.000734302
0.00237269
0.00277218
0.00186183
0.00076514
-0.00630731
-0.00753726
0.001099
0.0038261
0.00486831
0.00565662
0.00403998
0.00416423
0.00613206
0.00551016
-0.00138213
-0.00167547
-0.00195493
-0.00179211
-0.00161648
0.00535413
0.00664574
-0.00784856
0.0113146
0.0105156
0.00580954
0.00940675
0.000922346
0.000832252
0.000740203
0.00549464
0.0056873
0.00568131
-0.00321398
-0.0031344
-0.00311816
-0.00260022
-0.00272245
0.0158536
0.0138476
0.0132897
0.0149213
0.0016601
0.00474257
0.00343977
0.0050861
0.00476308
0.0155252
0.0158209
0.0144806
0.00592848
0.00700796
0.000220033
0.000328344
0.000130589
0.0105164
0.01102
0.00769865
0.00735085
0.0128078
0.00671323
0.00800498
0.00907213
-0.00189293
-0.00240513
0.00737371
0.00174413
0.00182757
-0.00116585
-0.00143067
-0.000968128
-0.00250466
0.00661343
0.00574036
0.00373104
0.000296586
0.000236533
9.9868e-05
0.000239411
0.00755051
0.00681512
-0.00184615
-0.00196361
-0.00185862
-0.00413026
-0.0036735
7.98115e-05
-0.00284791
-0.000493028
0.0084148
0.00852365
0.00961781
0.00915318
0.00773088
0.00311091
0.00302869
0.00327493
0.00315112
0.005065
0.00484277
0.00517757
0.00539808
0.00533569
0.0054058
0.00561673
0.00617039
0.0058646
0.00546223
0.00579228
0.00649804
0.00725137
0.00754358
-0.000554079
-0.000535405
-0.00245747
0.0002452
7.98599e-05
-0.00197488
-0.00206412
0.000330664
0.000393434
0.000354389
0.000284085
0.00200178
0.00196302
0.00193451
-0.0029106
-0.00309884
-0.00276204
-0.00433463
-0.00481817
-0.00412769
-0.00471645
-0.0064844
-0.00518063
0.0160476
0.0167579
0.0165254
0.000960555
0.00110577
0.000992547
0.0103704
0.00994253
0.0100229
0.00155955
0.00153833
0.00158074
0.00151697
0.00149597
0.00147486
0.00147577
0.00145392
0.00145488
0.00149654
0.00151744
0.00153855
0.00155991
0.00158122
0.00143344
0.00143385
0.00160161
0.00160208
0.00162264
0.00141295
0.001413
0.00162307
0.0013922
0.00137161
0.00139251
0.00137209
0.00164422
0.00164465
0.00135124
0.00135174
0.00166483
0.0016655
0.00133101
0.00133154
0.00168559
0.00168623
0.00131093
0.00131146
0.00170622
0.0017069
0.00129099
0.00129156
0.00172672
0.00172737
0.00127126
0.00127172
0.00174706
0.0017477
0.00125164
0.00125207
0.00176719
0.00176786
0.00123217
0.00123247
0.00178693
0.00178749
0.0012128
0.00121287
0.00180698
0.00180746
0.00119356
0.00119315
0.00182616
0.00182634
0.00117388
0.00117368
0.00184539
0.00184552
0.0011539
0.00115417
0.00182511
0.0018443
0.00186445
0.00186434
0.00178524
0.0018056
0.00174506
0.00176556
0.00170476
0.00172509
0.00166336
0.0016842
0.00162122
0.0016423
0.00157959
0.0016012
0.00153778
0.00155866
0.00149534
0.0015163
0.00145307
0.00147419
0.00141165
0.00143236
0.00137065
0.00139111
0.00133017
0.00135036
0.00129026
0.00131016
0.00125094
0.00127055
0.00121222
0.00123152
0.00117335
0.001193
0.0011538
0.00113428
0.00113446
0.00119321
0.00115426
0.00117374
0.0012324
0.00121275
0.00127159
0.00125198
0.00131128
0.00129138
0.00135155
0.00133136
0.00139237
0.00137191
0.00143356
0.00141297
0.00147549
0.00145457
0.00151754
0.00149659
0.0015594
0.00153836
0.00160205
0.00158111
0.00164398
0.00162275
0.00168577
0.00166501
0.00172675
0.0017064
0.00176696
0.00174692
0.00180641
0.00178659
0.00184411
0.00182556
0.00186293
0.00186375
0.00113415
0.00113472
0.00188245
0.00188069
0.00188274
0.00188298
0.00182269
0.0018614
0.00184207
0.00178292
0.00180308
0.00174335
0.00176305
0.00170301
0.00172333
0.00166179
0.00168249
0.00162011
0.00164098
0.00157791
0.0015991
0.00153586
0.00155731
0.00149435
0.00151476
0.00145212
0.00147316
0.00141071
0.00143138
0.0013698
0.0013902
0.0013294
0.00134954
0.00128956
0.00130941
0.0012503
0.00126986
0.00121165
0.0012309
0.00117298
0.00119233
0.00111466
0.00111475
0.00113405
0.00115356
0.00115436
0.00113507
0.00111537
0.00111489
0.00119334
0.00117383
0.00123207
0.00121252
0.00127111
0.00125152
0.00131074
0.00129086
0.00135095
0.00133078
0.00139171
0.00137127
0.00143293
0.00141229
0.00147461
0.0014537
0.00151668
0.00149555
0.00155864
0.00153767
0.00160078
0.00157994
0.00164279
0.00162189
0.00168436
0.00166366
0.00172524
0.00170491
0.00176517
0.00174536
0.00180393
0.00178475
0.00184143
0.00182284
0.00187712
0.00185975
0.00188024
0.00189843
0.00189479
0.00189968
0.00111484
0.00111563
0.00190012
0.00189761
0.00191548
0.00191217
0.00190079
0.00113418
0.00111511
0.00109607
0.00109632
0.00189357
0.00191661
0.00193822
0.00191757
0.00185738
0.00187585
0.00181909
0.00183826
0.00178003
0.00179989
0.00174069
0.0017602
0.00170059
0.0017208
0.00165961
0.00168019
0.0016181
0.00163891
0.00157622
0.00159715
0.00153426
0.00155523
0.00149242
0.00151334
0.00145082
0.0014716
0.00140953
0.00143013
0.00136872
0.00138907
0.00132841
0.0013485
0.00128866
0.00130847
0.00124948
0.001269
0.00121089
0.00123012
0.00117247
0.00119162
0.00115327
0.0010956
0.00109535
0.00109553
0.00109579
0.00115437
0.00111588
0.00113518
0.001193
0.00117366
0.00123142
0.00121207
0.00127038
0.00125083
0.00130993
0.00129008
0.00135004
0.00132992
0.00139069
0.0013703
0.00143181
0.0014112
0.00147335
0.00145253
0.00151514
0.00149424
0.00155719
0.00153618
0.0015991
0.00157813
0.00164087
0.00162006
0.0016822
0.00166161
0.00172284
0.00170263
0.00176251
0.00174283
0.00180088
0.00178191
0.00183778
0.00181947
0.00187302
0.00185558
0.00190711
0.00188978
0.00192774
0.00192303
0.00191749
0.00191673
0.00109631
0.00109672
0.00193272
0.00193138
0.00192877
0.00193828
0.00194262
0.00187458
0.00195348
0.00191827
0.00192036
0.0019209
0.0018897
0.00190896
0.00185153
0.00187057
0.00181429
0.00183272
0.00177615
0.00179566
0.00173732
0.00175682
0.00169744
0.00171751
0.00165673
0.00167718
0.00161546
0.00163615
0.00157387
0.00159469
0.00153215
0.00155299
0.00149046
0.00151131
0.00144906
0.00146974
0.00140795
0.00142846
0.00136728
0.00138756
0.00132711
0.00134713
0.00128747
0.00130722
0.0012484
0.00126787
0.0012099
0.00122909
0.00117186
0.00119077
0.00113397
0.00115288
0.001096
0.00111488
0.0010768
0.00107689
0.00107696
0.00107686
0.00107677
0.00107716
0.00107696
0.00107784
0.00107745
0.00111594
0.0010782
0.00109711
0.00115401
0.00113498
0.00119224
0.00117318
0.00123053
0.00121133
0.0012694
0.00124989
0.00130883
0.00128905
0.00134882
0.00132877
0.00138933
0.00136902
0.00143031
0.00140977
0.00147168
0.00145095
0.00151329
0.00149247
0.00155509
0.00153419
0.0015968
0.00157595
0.00163831
0.00161761
0.00167935
0.00165891
0.00171968
0.00169963
0.00175902
0.0017395
0.00179703
0.00177823
0.00183335
0.00181541
0.0018678
0.00185085
0.00190065
0.00188433
0.00193173
0.00191581
0.0019524
0.00194579
0.00193336
0.0019335
0.00194639
0.00194498
0.00109578
0.00107699
0.00105899
0.00105914
0.00194944
0.00195701
0.00197949
0.00190547
0.0019643
0.0019586
0.00194221
0.00193392
0.00190754
0.00191056
0.00188253
0.00189854
0.00184491
0.00186373
0.00180907
0.00182715
0.00177171
0.00179062
0.00173315
0.00175255
0.00169359
0.00171349
0.00165321
0.00167349
0.00161226
0.0016328
0.00157096
0.00159165
0.00152952
0.00155025
0.00148811
0.00150881
0.00144691
0.00146748
0.00140601
0.00142641
0.00136552
0.00138571
0.00132551
0.00134545
0.00128602
0.0013057
0.00124709
0.00126649
0.00120871
0.00122783
0.0011709
0.00118974
0.00113326
0.00115201
0.00111442
0.00105822
0.00105814
0.0010582
0.00105847
0.00105842
0.00105867
0.00105861
0.00105874
0.00111574
0.00107798
0.00109715
0.00115344
0.00113458
0.00119124
0.00117239
0.00122942
0.00121027
0.00126817
0.00124873
0.00130747
0.00128775
0.00134731
0.00132732
0.00138765
0.00136742
0.00142843
0.00140799
0.00146959
0.00144898
0.00151098
0.00149027
0.0015525
0.00153175
0.00159395
0.00157325
0.00163514
0.0016146
0.00167585
0.00165558
0.00171581
0.00169595
0.00175473
0.00173543
0.00179231
0.00177372
0.00182821
0.0018105
0.00186205
0.00184542
0.00189386
0.00187838
0.00192319
0.00190779
0.00195125
0.00193851
0.00197003
0.00196226
0.0019491
0.00194754
0.00105796
0.00105923
0.0019565
0.0019183
0.0019479
0.00195954
0.00196863
0.00197
0.00197238
0.00197477
0.00197598
0.00198076
0.00197472
0.00194854
0.00191482
0.00196464
0.00194368
0.00189746
0.00190332
0.00187319
0.00188933
0.0018385
0.00185586
0.00180318
0.00182105
0.00176633
0.00178494
0.00172821
0.00174741
0.00168907
0.00170877
0.0016491
0.00166918
0.00160852
0.00162887
0.00156756
0.00158808
0.00152644
0.00154702
0.00148533
0.00150588
0.00144438
0.00146483
0.00140372
0.00142401
0.00136344
0.00138353
0.00132363
0.00134348
0.00128432
0.00130391
0.00124554
0.00126486
0.0012073
0.00122635
0.00116963
0.0011884
0.00113235
0.00115099
0.00109499
0.00111367
0.00105754
0.00107643
0.00103956
0.00103878
0.00103916
0.00104012
0.00103981
0.0010405
0.00104033
0.00104057
0.00104058
0.00104051
0.00104055
0.00104072
0.00104053
0.00107773
0.00104089
0.00105929
0.00111509
0.00109637
0.00115256
0.00113383
0.00119004
0.00117125
0.00122809
0.001209
0.00126669
0.00124733
0.00130583
0.0012862
0.00134549
0.0013256
0.00138563
0.00136551
0.0014262
0.00140587
0.0014671
0.00144662
0.00150823
0.00148766
0.00154945
0.00152885
0.00159057
0.00157004
0.0016314
0.00161105
0.00167172
0.00165165
0.00171124
0.0016916
0.00174971
0.00173064
0.0017868
0.00176846
0.0018222
0.00180474
0.00185558
0.00183918
0.00188663
0.0018715
0.00191527
0.00190109
0.00194107
0.00192897
0.00196466
0.00195172
0.00198591
0.00197676
0.00196015
0.00196599
0.00196355
0.00105702
0.00103866
0.00102227
0.00102218
0.00196086
0.00197185
0.0019714
0.00198016
0.00198625
0.00199285
0.00199523
0.00198676
0.0019611
0.00195264
0.00197456
0.00196406
0.00195976
0.00191317
0.00193465
0.0018888
0.00189828
0.00186406
0.00187933
0.00183101
0.00184766
0.00179641
0.00181395
0.00176017
0.00177848
0.0017226
0.00174154
0.00168394
0.0017034
0.00164442
0.00166428
0.00160426
0.00162441
0.00156369
0.00158402
0.00152293
0.00154333
0.00148214
0.00150253
0.00144149
0.00146179
0.0014011
0.00142126
0.00136107
0.00138104
0.00132147
0.00134122
0.00128236
0.00130186
0.00124376
0.001263
0.00120569
0.00122466
0.00116815
0.00118685
0.00113115
0.00114959
0.00109406
0.00111261
0.00107548
0.00102132
0.00102043
0.00102096
0.0010222
0.00102182
0.00102269
0.00102249
0.00102272
0.00102276
0.00102242
0.00102262
0.00102231
0.0010775
0.00104049
0.00105896
0.00111431
0.00109598
0.0011513
0.00113282
0.00118865
0.00116991
0.00122654
0.00120753
0.00126497
0.0012457
0.00130393
0.00128439
0.00134338
0.0013236
0.0013833
0.00136329
0.00142361
0.00140341
0.00146424
0.0014439
0.00150506
0.00148464
0.00154594
0.00152551
0.00158669
0.00156635
0.00162712
0.00160697
0.00166699
0.00164715
0.00170604
0.00168665
0.001744
0.00172519
0.00178056
0.00176249
0.00181541
0.00179823
0.00184826
0.00183212
0.00187878
0.00186386
0.00190678
0.00189311
0.00193161
0.00191971
0.00195484
0.00194265
0.00197544
0.00196463
0.00199266
0.0019833
0.00199536
0.00198513
0.00196938
0.00102032
0.00102189
0.00196919
0.00197312
0.00198327
0.00197765
0.00198381
0.00199238
0.00199224
0.00199868
0.00200209
0.00200371
0.00200368
0.00199399
0.00197245
0.00195032
0.00198464
0.00197773
0.0019581
0.00193916
0.00194928
0.00190742
0.00192242
0.00188044
0.00189264
0.00185458
0.00186911
0.00182275
0.00183893
0.00178893
0.00180609
0.00175335
0.00177134
0.00171637
0.00173503
0.00167824
0.00169744
0.00163921
0.00165883
0.00159951
0.00161944
0.00155937
0.00157949
0.001519
0.00153921
0.00147857
0.00149879
0.00143825
0.0014584
0.00139816
0.00141818
0.0013584
0.00137824
0.00131905
0.00133868
0.00128016
0.00129955
0.00124176
0.0012609
0.00120387
0.00122275
0.00116649
0.00118512
0.00112963
0.001148
0.00109308
0.00111139
0.00105642
0.00107467
0.00101992
0.00103829
0.00100243
0.00100172
0.00100204
0.00100356
0.00100294
0.00100448
0.00100406
0.001005
0.0010048
0.001005
0.00100506
0.00100463
0.00100483
0.00100412
0.0010043
0.00100355
0.00100385
0.00103998
0.00100362
0.00102182
0.00107672
0.00105822
0.00111317
0.00109502
0.00114985
0.00113145
0.00118706
0.00116839
0.00122478
0.00120586
0.00126302
0.00124384
0.00130177
0.00128234
0.00134099
0.00132133
0.00138065
0.00136078
0.00142069
0.00140064
0.00146101
0.00144083
0.00150149
0.00148124
0.00154199
0.00152176
0.00158234
0.00156221
0.00162232
0.0016024
0.00166172
0.00164212
0.00170026
0.00168112
0.00173767
0.00171914
0.00177366
0.00175588
0.00180793
0.00179104
0.00184019
0.00182434
0.00187014
0.00185549
0.00189757
0.0018842
0.00192199
0.00191022
0.00194393
0.00193329
0.00196312
0.00195319
0.00198142
0.00197331
0.00200007
0.00199584
0.00199785
0.00198462
0.00198203
0.00198536
0.00198308
0.00199423
0.00199201
0.00199216
0.00199561
0.00101931
0.00100125
0.000985525
0.000985432
0.00200423
0.00200328
0.00200845
0.00201034
0.00201102
0.00200796
0.00198681
0.00197908
0.00198139
0.00200317
0.00199543
0.00199809
0.00198485
0.00196806
0.00196805
0.00193886
0.00194973
0.00192555
0.00193584
0.00189783
0.00191101
0.00187196
0.00188483
0.00184483
0.00185902
0.00181395
0.00182971
0.00178086
0.00179767
0.00174596
0.00176362
0.00170959
0.00172795
0.00167202
0.00169094
0.00163352
0.00165288
0.00159431
0.001614
0.00155463
0.00157452
0.00151468
0.00153469
0.00147465
0.00149467
0.00143468
0.00145465
0.00139492
0.00141477
0.00135546
0.00137515
0.00131637
0.00133587
0.00127772
0.00129699
0.00123954
0.00125858
0.00120186
0.00122064
0.00116466
0.0011832
0.00112796
0.00114625
0.00109175
0.00110981
0.00105547
0.00107362
0.00103736
0.000984321
0.000983742
0.000984529
0.00098594
0.000985253
0.000986898
0.00098647
0.000987401
0.000987211
0.000987415
0.000987468
0.000986986
0.000987241
0.000986336
0.000986669
0.000985992
0.00103936
0.00100322
0.0010213
0.00107563
0.00105744
0.00111171
0.00109362
0.00114824
0.00112991
0.00118528
0.0011667
0.00122281
0.00120399
0.00126084
0.00124177
0.00129936
0.00128005
0.00133833
0.0013188
0.00137772
0.00135798
0.00141745
0.00139755
0.00145743
0.00143742
0.00149754
0.00147748
0.00153764
0.00151761
0.00157755
0.00155764
0.00161706
0.00159738
0.00165594
0.0016366
0.00169394
0.00167508
0.00173078
0.00171254
0.00176618
0.00174869
0.00179984
0.00178326
0.00183149
0.00181595
0.00186086
0.0018465
0.00188771
0.00187463
0.00191175
0.00190012
0.00193302
0.00192279
0.0019516
0.00194259
0.00196674
0.00196005
0.00198264
0.00197135
0.00199739
0.00199621
0.00201
0.0019997
0.0019892
0.00197994
0.00200897
0.00200452
0.00199525
0.00199731
0.00098329
0.000985032
0.00200884
0.00200494
0.00200673
0.00201308
0.00201343
0.00201728
0.00201876
0.00201585
0.00201069
0.0019862
0.00197286
0.0019742
0.001975
0.00198068
0.00199361
0.00198905
0.00200279
0.00201263
0.00200808
0.00200259
0.00199723
0.00196882
0.00196604
0.00195146
0.00195562
0.00192926
0.00194074
0.00191206
0.00192166
0.00188768
0.00190019
0.00186216
0.00187504
0.00183489
0.00184892
0.00180471
0.00182012
0.0017723
0.00178877
0.00173806
0.0017554
0.00170231
0.00172037
0.00166534
0.00168397
0.00162738
0.00164647
0.0015887
0.00160813
0.0015495
0.00156916
0.00151
0.00152978
0.00147038
0.0014902
0.0014308
0.00145058
0.00139138
0.00141107
0.00135224
0.00137177
0.00131344
0.0013328
0.00127506
0.0012942
0.00123712
0.00125603
0.00119965
0.00121833
0.00116265
0.0011811
0.00112613
0.00114434
0.00109009
0.00110805
0.00105433
0.00107224
0.00101863
0.00103646
0.000982849
0.00100064
0.000965972
0.000965003
0.000965403
0.000967185
0.000966586
0.000968489
0.000967866
0.000969428
0.000969014
0.000969908
0.000969727
0.000969931
0.000969976
0.000969507
0.000969769
0.000968708
0.000969172
0.000967804
0.000968251
0.000967017
0.000967399
0.00100244
0.000966532
0.000984641
0.00103849
0.00102042
0.00107419
0.0010564
0.00111009
0.00109208
0.00114647
0.00112822
0.00118331
0.00116483
0.00122064
0.00120192
0.00125844
0.00123949
0.00129671
0.00127753
0.00133541
0.00131601
0.0013745
0.00135491
0.00141389
0.00139417
0.00145351
0.00143369
0.00149323
0.00147338
0.0015329
0.00151309
0.00157235
0.00155268
0.00161136
0.00159193
0.00164971
0.00163064
0.00168714
0.00166857
0.00172339
0.00170545
0.00175818
0.001741
0.00179123
0.00177496
0.00182227
0.00180704
0.00185104
0.00183698
0.00187733
0.00186453
0.0019009
0.00188949
0.00192172
0.00191168
0.00193972
0.00193111
0.00195408
0.0019475
0.00196604
0.00196042
0.0019658
0.00201857
0.00202035
0.00199313
0.00198195
0.00200763
0.00200864
0.00200742
0.00201481
0.002017
0.000982002
0.00096438
0.000949217
0.000948626
0.0020233
0.00202263
0.00202546
0.00202519
0.00202233
0.0020186
0.00198012
0.00196719
0.00197838
0.00198667
0.00200032
0.00200269
0.00201598
0.00201305
0.00200068
0.00198067
0.00199367
0.00200895
0.00196214
0.0019514
0.00195162
0.00195806
0.00193552
0.00194358
0.00191852
0.00192764
0.00189978
0.0019096
0.00187675
0.00188868
0.00185168
0.00186442
0.00182465
0.0018385
0.00179507
0.00181017
0.00176332
0.00177945
0.00172973
0.00174674
0.00169461
0.00171235
0.00165823
0.00167657
0.00162085
0.00163966
0.0015827
0.00160186
0.00154401
0.00156342
0.00150498
0.00152453
0.0014658
0.0014854
0.00142662
0.0014462
0.00138757
0.00140707
0.00134876
0.00136813
0.00131028
0.00132948
0.00127217
0.00129118
0.00123449
0.00125328
0.00119726
0.00121582
0.00116048
0.00117881
0.00112415
0.00114226
0.00108828
0.00110616
0.00105284
0.00107052
0.00101745
0.00103507
0.000999723
0.000948381
0.000947214
0.000947837
0.000949912
0.00094921
0.00095117
0.000950577
0.000952058
0.000951666
0.000952516
0.000952342
0.000952545
0.000952584
0.000952138
0.000952395
0.000951341
0.00095178
0.000950214
0.00095082
0.000949596
0.00100159
0.000966035
0.000983987
0.00103728
0.00101939
0.00107259
0.00105489
0.00110833
0.00109041
0.00114452
0.00112638
0.00118117
0.00116279
0.00121827
0.00119967
0.00125583
0.001237
0.00129383
0.00127478
0.00133224
0.00131299
0.001371
0.00135159
0.00141005
0.0013905
0.00144929
0.00142966
0.00148859
0.00146895
0.00152781
0.00150823
0.00156677
0.00154735
0.00160526
0.0015861
0.00164306
0.00162427
0.00167992
0.00166164
0.00171557
0.00169792
0.00174974
0.00173287
0.00178218
0.00176621
0.00181261
0.00179768
0.00184079
0.00182701
0.00186652
0.001854
0.00188961
0.00187843
0.00190995
0.00190015
0.00192744
0.00191909
0.0019416
0.00193501
0.00195234
0.00194761
0.00195919
0.00195568
0.0019688
0.00196539
0.00198027
0.00196898
0.00196283
0.00202549
0.00202034
0.00201792
0.00201902
0.000946556
0.000948278
0.00202122
0.00202434
0.00202636
0.00203215
0.0020309
0.00203251
0.00203127
0.00202762
0.00202109
0.00197898
0.00196306
0.00195966
0.00195533
0.00195057
0.0019683
0.00197546
0.00199632
0.00199829
0.00201377
0.0020144
0.00201409
0.00200462
0.00199209
0.00197831
0.00201939
0.00195812
0.00196432
0.0019463
0.00194093
0.00193561
0.00194439
0.00192281
0.00192961
0.00190642
0.00191506
0.00188755
0.00189737
0.00186532
0.00187682
0.00184079
0.00185332
0.00181412
0.00182777
0.0017851
0.00179991
0.00175398
0.0017698
0.00172103
0.00173772
0.00168653
0.00170396
0.00165076
0.0016688
0.00161396
0.00163248
0.00157636
0.00159525
0.00153819
0.00155734
0.00149964
0.00151896
0.00146091
0.0014803
0.00142215
0.00144153
0.00138349
0.00140281
0.00134504
0.00136424
0.00130688
0.00132593
0.00126908
0.00128794
0.00123167
0.00125033
0.00119469
0.00121313
0.00115814
0.00117636
0.00112202
0.00114003
0.00108634
0.00110413
0.00105107
0.00106865
0.00101619
0.00103359
0.000980915
0.000998505
0.00094571
0.000963431
0.000929644
0.000927956
0.000928801
0.000931209
0.000930362
0.00093271
0.000931992
0.000933941
0.000933371
0.000934783
0.000934411
0.000935222
0.000935054
0.000935254
0.000935289
0.000934877
0.000935117
0.000934108
0.000934539
0.000932992
0.000933578
0.000931733
0.000932336
0.000930721
0.000931161
0.000965319
0.000930428
0.000947927
0.00100049
0.000982984
0.00103572
0.00101813
0.00107087
0.00105324
0.00110644
0.0010886
0.00114243
0.00112438
0.00117885
0.00116059
0.00121572
0.00119723
0.00125302
0.00123432
0.00129073
0.00127183
0.00132883
0.00130974
0.00136725
0.00134801
0.00140593
0.00138657
0.00144477
0.00142535
0.00148364
0.00146422
0.00152239
0.00150305
0.00156085
0.00154168
0.00159881
0.00157991
0.00163604
0.00161754
0.00167232
0.00165433
0.00170736
0.00169002
0.00174093
0.00172436
0.00177275
0.00175709
0.00180259
0.00178795
0.0018302
0.0018167
0.0018554
0.00184313
0.001878
0.00186706
0.00189789
0.00188832
0.00191493
0.0019068
0.00192885
0.00192233
0.00193948
0.00193465
0.00194705
0.00194345
0.00195227
0.00195085
0.00194877
0.00203365
0.00203139
0.00196726
0.00195708
0.00202739
0.00202848
0.0020257
0.00203298
0.00203478
0.000944849
0.000927439
0.000913314
0.000912889
0.00204009
0.00203817
0.00203867
0.00203641
0.00203149
0.00202403
0.00195587
0.00194304
0.0019394
0.00195451
0.00197319
0.00199193
0.00200819
0.00201022
0.00202293
0.00201561
0.00200376
0.00198842
0.00197578
0.00194424
0.00195403
0.00202891
0.00194998
0.00194199
0.00194065
0.00194975
0.001931
0.00193424
0.00192269
0.0019282
0.00190995
0.00191669
0.00189389
0.00190232
0.00187522
0.00188492
0.0018536
0.00186477
0.00182958
0.00184188
0.00180335
0.00181676
0.00177487
0.00178939
0.00174434
0.00175986
0.00171201
0.00172839
0.00167813
0.00169526
0.00164296
0.0016607
0.00160674
0.00162498
0.0015697
0.00158832
0.00153206
0.00155095
0.00149402
0.00151308
0.00145575
0.00147491
0.00141743
0.00143659
0.00137917
0.00139829
0.00134109
0.00136011
0.00130327
0.00132215
0.00126579
0.00128449
0.00122867
0.00124718
0.00119194
0.00121026
0.00115564
0.00117374
0.00111975
0.00113764
0.00108426
0.00110196
0.00104918
0.00106668
0.0010145
0.0010318
0.000979672
0.000997098
0.000962173
0.000912343
0.000910601
0.00091156
0.000914134
0.000913266
0.000915622
0.000914908
0.000916798
0.000916257
0.000917599
0.000917246
0.00091802
0.000917857
0.000918055
0.000918086
0.000917706
0.000917928
0.000916978
0.000917389
0.000915898
0.000916475
0.000914511
0.000915244
0.00091379
0.000964528
0.000929723
0.000947294
0.000999284
0.000981884
0.00103405
0.0010167
0.00106902
0.00105149
0.0011044
0.00108666
0.00114017
0.00112224
0.00117637
0.00115822
0.00121298
0.00119463
0.00125001
0.00123145
0.00128742
0.00126867
0.00132519
0.00130627
0.00136326
0.0013442
0.00140156
0.00138239
0.00143998
0.00142077
0.0014784
0.0014592
0.00151667
0.00149757
0.00155461
0.0015357
0.00159203
0.00157341
0.0016287
0.00161049
0.00166438
0.00164669
0.00169883
0.00168179
0.0017318
0.00171553
0.00176302
0.00174766
0.00179228
0.00177793
0.00181935
0.00180612
0.00184404
0.00183202
0.00186619
0.00185546
0.00188567
0.00187629
0.00190234
0.00189439
0.001916
0.00190958
0.00192654
0.00192171
0.00193417
0.00193063
0.00193834
0.00193703
0.00193897
0.0019386
0.00194186
0.0019367
0.00194246
0.00193089
0.00193062
0.0020401
0.00203717
0.00203598
0.00203701
0.0009101
0.000912282
0.00202802
0.00204076
0.00204222
0.00204673
0.00204451
0.00204393
0.00204049
0.00203444
0.00202592
0.00193844
0.00192459
0.00191573
0.00191961
0.00190938
0.00192276
0.00193304
0.0019545
0.00196901
0.00199003
0.00200395
0.00201884
0.00202475
0.0020153
0.00200141
0.00198504
0.00196889
0.00195046
0.00193437
0.00203751
0.00193716
0.00193391
0.00193433
0.00192206
0.00192476
0.00193493
0.00191844
0.00192132
0.00190962
0.00191471
0.00189693
0.00190365
0.00188122
0.00188945
0.00186283
0.00187238
0.0018417
0.00185261
0.00181815
0.00183022
0.00179237
0.00180555
0.00176442
0.00177867
0.00173446
0.00174969
0.00170273
0.00171881
0.00166946
0.00168628
0.00163488
0.00165233
0.00159924
0.00161719
0.00156276
0.0015811
0.00152565
0.00154428
0.00148812
0.00150693
0.00145033
0.00146925
0.00141245
0.0014314
0.00137461
0.00139352
0.00133692
0.00135574
0.00129946
0.00131816
0.0012623
0.00128084
0.00122548
0.00124385
0.00118904
0.00120721
0.00115299
0.00117096
0.00111733
0.00113511
0.00108207
0.00109965
0.00104718
0.00106458
0.00101266
0.00102988
0.000978341
0.000995536
0.00094394
0.000961026
0.00090937
0.000926756
0.00089361
0.000891989
0.000892825
0.000895446
0.000894458
0.00089717
0.000896341
0.000898623
0.000897934
0.000899739
0.000899225
0.000900502
0.000900166
0.000900905
0.000900749
0.000900944
0.000900971
0.00090062
0.000900827
0.000899936
0.000900323
0.000898894
0.000899459
0.000897563
0.000898252
0.000896139
0.00089681
0.000895117
0.000895629
0.000928952
0.00089472
0.000911796
0.000963407
0.000946213
0.000997844
0.000980571
0.00103227
0.00101502
0.00106706
0.00104962
0.00110222
0.00108459
0.00113777
0.00111995
0.00117372
0.0011557
0.00121007
0.00119185
0.00124681
0.0012284
0.00128391
0.00126532
0.00132134
0.00130259
0.00135904
0.00134017
0.00139694
0.00137798
0.00143493
0.00141594
0.00147289
0.00145393
0.00151067
0.00149182
0.00154809
0.00152945
0.00158497
0.00156662
0.00162107
0.00160314
0.00165617
0.00163877
0.00169003
0.00167328
0.0017224
0.00170643
0.00175305
0.00173797
0.00178176
0.00176768
0.00180831
0.00179533
0.00183253
0.00182074
0.00185426
0.00184373
0.00187337
0.00186417
0.00188973
0.00188193
0.00190319
0.00189686
0.00191364
0.00190883
0.00192116
0.00191775
0.00192538
0.00192383
0.00192595
0.00192614
0.00192402
0.00192532
0.00191775
0.00204536
0.00204172
0.00192085
0.00191174
0.00204367
0.00204457
0.00203257
0.00204745
0.00204869
0.000908522
0.000891368
0.000877961
0.000877614
0.00205222
0.00204989
0.00204814
0.00204359
0.00203639
0.00202689
0.00191586
0.00190589
0.0018907
0.00190051
0.00193443
0.00194738
0.00197039
0.00197931
0.00200185
0.00201581
0.00202742
0.00201359
0.00199818
0.0019815
0.00196058
0.00194597
0.00192746
0.00189916
0.00190839
0.00204515
0.00191477
0.00189622
0.00192273
0.00192363
0.00191768
0.00191196
0.00191206
0.00191827
0.00190571
0.00190883
0.00189651
0.00190164
0.00188396
0.00189062
0.00186854
0.00187662
0.00185042
0.00185982
0.0018297
0.00184039
0.00180659
0.00181844
0.00178125
0.0017942
0.0017538
0.00176779
0.00172439
0.00173934
0.00169323
0.00170903
0.00166055
0.00167708
0.00162656
0.00164371
0.00159149
0.00160915
0.00155557
0.00157363
0.001519
0.00153736
0.00148198
0.00150054
0.00144467
0.00146336
0.00140725
0.00142597
0.00136984
0.00138854
0.00133254
0.00135117
0.00129545
0.00131397
0.00125863
0.001277
0.00122212
0.00124034
0.00118597
0.00120401
0.00115019
0.00116804
0.00111478
0.00113244
0.00107974
0.00109722
0.00104507
0.00106236
0.00101074
0.00102786
0.000976758
0.000993715
0.000942684
0.000959661
0.000925636
0.000876693
0.00087491
0.00087588
0.000878633
0.000877675
0.00088031
0.000879504
0.0008817
0.000881046
0.000882761
0.000882271
0.000883488
0.000883167
0.000883874
0.000883723
0.000883917
0.000883939
0.000883616
0.000883809
0.000882975
0.000883338
0.000881998
0.000882529
0.000880721
0.00088139
0.000879204
0.000879997
0.000878524
0.000928137
0.000894182
0.000911142
0.000962201
0.000945103
0.000996146
0.000979143
0.00103038
0.00101322
0.00106497
0.00104764
0.00109992
0.0010824
0.00113523
0.00111753
0.00117092
0.00115303
0.00120699
0.00118892
0.00124343
0.00122517
0.0012802
0.00126178
0.00131728
0.00129871
0.0013546
0.00133592
0.00139209
0.00137334
0.00142964
0.00141087
0.00146713
0.00144841
0.00150441
0.00148582
0.00154132
0.00152293
0.00157764
0.00155958
0.00161318
0.00159554
0.00164771
0.0016306
0.00168099
0.00166454
0.0017128
0.00169711
0.0017429
0.00172809
0.00177108
0.00175726
0.00179714
0.00178441
0.00182093
0.00180935
0.00184228
0.00183194
0.00186107
0.00185203
0.00187719
0.0018695
0.00189049
0.00188422
0.00190089
0.00189609
0.00190837
0.00190501
0.00191268
0.001911
0.00191362
0.00191356
0.00191106
0.00191298
0.0019045
0.00190793
0.00189999
0.00189736
0.00188652
0.00187924
0.00188889
0.00204947
0.00204463
0.00205034
0.00205115
0.000874343
0.000876912
0.00203592
0.00205305
0.00205417
0.00205667
0.00205422
0.00205133
0.00204562
0.00203731
0.00202657
0.00187765
0.00187714
0.00187128
0.00188929
0.00190277
0.00191995
0.00194836
0.00195982
0.00198204
0.00199482
0.00201194
0.00202543
0.00201063
0.0019941
0.0019757
0.00195772
0.00193764
0.00191627
0.00189527
0.00187087
0.00187777
0.00186581
0.00205178
0.00189948
0.00187367
0.00189933
0.00189193
0.00190682
0.00190592
0.00190293
0.00190399
0.0018999
0.00190273
0.00189304
0.00189664
0.0018836
0.00188874
0.00187114
0.00187774
0.00185591
0.00186388
0.00183804
0.00184731
0.00181767
0.00182817
0.00179495
0.0018066
0.00177003
0.00178277
0.00174306
0.00175681
0.00171417
0.00172885
0.00168356
0.00169908
0.00165144
0.00166769
0.00161802
0.00163489
0.00158352
0.0016009
0.00154815
0.00156594
0.00151212
0.00153021
0.00147561
0.00149392
0.0014388
0.00145724
0.00140184
0.00142033
0.00136485
0.00138335
0.00132796
0.0013464
0.00129125
0.00130958
0.00125478
0.00127299
0.00121861
0.00123666
0.00118276
0.00120064
0.00114725
0.00116496
0.0011121
0.00112963
0.0010773
0.00109466
0.00104285
0.00106003
0.00100872
0.00102574
0.000974918
0.000991781
0.000941189
0.000958008
0.00090757
0.000924415
0.000873569
0.000890629
0.000858175
0.000856503
0.00085738
0.000860069
0.000859057
0.000861912
0.000861011
0.000863531
0.000862757
0.00086485
0.00086423
0.000865859
0.000865394
0.000866552
0.000866246
0.000866923
0.000866778
0.000866969