/*--------------------------------*- C++ -*----------------------------------*\
  =========                 |
  \\      /  F ield         | OpenFOAM: The Open Source CFD Toolbox
   \\    /   O peration     | Website:  https://openfoam.org
    \\  /    A nd           | Version:  10
     \\/     M anipulation  |
\*---------------------------------------------------------------------------*/
FoamFile
{
    format      ascii;
    class       surfaceScalarField;
    location    "51";
    object      phi;
}
// * * * * * * * * * * * * * * * * * * * * * * * * * * * * * * * * * * * * * //

dimensions      [0 3 -1 0 0 0 0];

internalField   nonuniform List<scalar> 
57492
(
0.000236413
-1.0627e-05
-4.38536e-05
-0.000181933
-0.000163091
0.000268267
0.000131237
-2.8784e-05
8.09255e-05
0.000323626
-0.000375768
0.00315972
0.00338644
-0.000272054
-0.00627411
-0.00862822
0.00404529
0.00774265
0.000784289
-0.000722872
-0.000378959
0.000317542
-0.00139984
0.000246329
-8.77163e-05
0.00124123
0.00029831
-0.00091386
0.00158361
-0.00463356
0.00442622
-0.00137627
0.00133698
0.00424985
-0.00400322
-0.0006142
-0.000207478
0.000687344
0.000134334
-0.000122913
-0.000835311
0.000344024
0.000232743
-0.000326515
-2.91412e-05
-5.35236e-05
7.87891e-05
0.00184707
-0.00178028
-0.000667721
0.000600926
0.000263576
0.00148986
9.36383e-05
-0.00032416
0.000788005
0.00333537
-0.00379921
-0.000660398
0.00326122
-0.00292498
0.000135505
-0.000288668
0.000153163
-0.00166403
0.00122046
0.000579079
-0.00466027
0.000190238
0.00333613
0.0011339
0.00122744
-0.00473035
-0.00115737
-0.000133184
-0.000197499
-0.000703722
0.0010344
-0.000287811
0.000176704
-2.20768e-05
-0.00255058
0.00216438
0.000736304
-0.000350106
-0.00305306
0.000925152
-0.000422664
-0.00112792
0.000596533
0.000456844
7.45402e-05
-0.00077909
-0.000362361
1.35343e-05
-0.000367326
-0.00113406
0.00129113
0.000210248
-0.000416126
0.000116413
-6.76134e-05
0.000816674
-0.000543816
-0.000506556
0.000233699
-0.000704935
0.000564315
0.000957294
-0.000964471
-0.00184826
0.00178216
0.00103058
-0.0021885
-0.000525319
0.00174935
-0.000707441
-0.000152105
0.000859546
-0.000271307
-0.000436134
-0.00137455
0.00189216
-0.000788922
0.000203093
-0.000767201
-0.000810441
-0.000621565
0.000867894
-0.000233041
-0.00190182
0.00115082
0.000751
-0.00432162
0.0024198
0.00490715
-0.000875171
0.00039742
-0.0044294
0.00361543
-3.31704e-05
0.00132489
-0.000781168
0.00490037
-0.00499437
0.00153413
0.000329213
-0.00156504
0.00154514
-9.87268e-05
0.00186905
-0.000700449
-0.00139117
0.000222572
0.00209272
0.000105549
0.000960154
-0.00059616
0.00118115
0.000924333
0.00127705
-0.00474941
-0.000640108
0.000553601
0.00483591
-0.00488241
-0.000304656
0.000437665
0.00121241
0.00451356
-0.00443806
-0.0012879
0.00088368
-0.00430484
-0.00278917
0.00253441
0.00254209
-0.00228734
-0.000280368
0.00320882
-0.00571762
1.49037e-05
-0.000117119
-8.10717e-07
0.000103026
-0.000322189
1.05773e-05
6.72513e-05
-0.000136376
-0.000253064
-5.65604e-05
6.6926e-06
1.12046e-05
-1.20153e-05
8.90134e-06
2.30321e-06
0.00731024
0.00378598
-0.00588391
-0.00521231
0.00233629
-0.00070104
0.00567498
-0.00785894
0.00309697
0.00709826
0.00229087
-0.00636383
0.00162387
-0.00286616
0.00213405
-0.00089176
0.00235681
-0.00291484
0.0021819
-2.99445e-05
2.18915e-05
-2.57395e-06
-7.03614e-05
-3.43672e-06
-0.000223206
-2.90876e-05
-0.00293915
0.00534935
0.00339297
-0.00580318
0.00436323
-0.00494557
0.0029844
0.00474936
-0.00238441
0.0100953
-0.00148736
-0.00178815
-0.00681978
0.00223848
0.00542686
0.00242995
0.00160292
-0.0050129
0.00564846
4.68295e-05
-7.56135e-05
0.000127755
0.000816812
0.00175841
-0.000626636
-0.00194858
0.00104072
9.97185e-05
-9.59494e-05
2.63856e-05
6.95637e-05
-0.000298495
0.000202546
-0.006607
0.00342268
-0.00201337
0.00519768
-0.00574251
-0.00249889
0.0016344
-0.00262528
0.00208913
-0.00520636
0.00195225
-2.65708e-05
-0.000944378
-0.000981298
-0.00071173
0.00222794
0.000436038
-0.000834792
-8.52582e-05
0.00020832
-0.000771686
-8.96773e-05
-0.000271496
-0.00144457
-0.000237777
-6.2841e-05
1.85554e-05
0.000282063
-0.000216489
-0.000524078
0.000502789
0.000137859
1.68613e-05
-0.000371209
7.92941e-05
-4.27615e-06
0.000100508
-2.6586e-06
-0.0006412
0.000369704
8.34419e-05
-0.000724642
0.000172508
-0.000471002
0.00427359
0.00333164
-0.000178511
0.00212867
-0.0064833
-1.03337e-05
0.0022639
-0.00179746
-0.000456114
0.00029181
0.00316406
-0.00346621
0.00327188
0.00184881
-0.000507175
-0.00461351
-0.00102946
0.000495468
0.00380587
0.00399852
-0.00317917
-0.00164168
-0.00303477
0.00124951
0.00342693
-0.00118627
0.00350536
-0.00396076
0.000421743
-0.00464278
8.27864e-05
3.38762e-05
-4.61344e-06
0.00104778
-0.000617694
-0.000593178
7.72487e-05
-0.000325787
0.00129632
0.000364634
-1.91181e-05
-0.000187273
0.000331752
6.83312e-05
-0.000212809
0.000991633
-0.00121484
3.59288e-05
-0.000357543
0.000830864
0.000518312
-0.000125072
9.92804e-05
-0.0061167
0.00365019
0.0058892
0.0077227
-0.00200848
-0.00821311
-0.0028579
0.00446389
-9.71256e-05
-0.000874619
-0.000162311
-0.000522387
9.13609e-06
4.79618e-05
-0.000129925
3.71384e-05
4.48244e-05
-0.000130049
0.000144631
3.33798e-05
-0.000299612
3.96381e-05
-0.000265392
-0.000312851
5.58558e-05
-0.000803978
-0.000336033
-0.000879215
-0.00094383
0.00107914
0.000743906
3.60479e-05
0.000464902
-0.00138017
-0.00123143
0.000323652
-0.0029352
0.00133118
-6.00113e-05
-0.003504
0.000809759
-0.000240962
0.000876069
-0.00334731
0.00256408
-9.28363e-05
0.000679085
-0.00272831
0.0029253
0.00252828
-0.0101972
-0.00176649
0.00218296
0.00302269
-0.00345799
0.00206119
-0.000321127
4.89296e-07
1.6372e-05
-3.35711e-06
3.84639e-06
0.000284358
-4.13127e-05
0.00560501
-0.00341468
-0.00246003
0.000269695
0.00484325
-1.94032e-05
0.0046534
0.000158108
-0.00509188
0.00137474
0.00330537
-2.67063e-05
0.000546321
-0.00292268
0.00375109
5.4073e-06
-8.76441e-06
0.000759277
-0.0021204
-0.0028473
0.00123245
0.00308462
0.000920424
-5.21474e-05
-0.000967793
9.95157e-05
0.000305075
-8.95853e-05
-0.00118393
0.000259032
0.00148921
0.000214357
-0.00109321
-0.000134905
7.56875e-05
-7.38051e-06
1.02966e-05
-2.60009e-06
-3.15972e-07
1.09355e-05
-2.39587e-07
-1.80765e-05
4.66207e-05
-0.000104435
6.875e-05
-0.00172021
0.0026552
-0.000762482
0.00291913
-0.00378892
-0.00085042
5.95528e-06
-0.00162321
0.00187628
-0.00399605
0.000241945
-0.00273915
-0.00183371
0.000576807
0.0026925
0.00291099
-0.00541325
0.00260448
0.00429425
-0.00420623
0.00223979
-0.00308436
0.00160652
-0.000761954
0.00245494
-0.00302355
0.0028084
0.00437139
0.00187573
0.00499743
-0.000236031
-0.00496352
0.00020212
0.00553671
-0.00066415
0.000124864
0.00552964
-0.000900212
7.86389e-05
-0.00470807
0.00396934
-0.00137236
0.00293266
0.0043081
-0.00140314
0.00113993
-0.00404489
0.00126839
0.00438826
-0.00134856
-0.00387649
-0.00166491
0.00413826
0.00106582
-0.00369279
-0.00185863
0.00362065
-0.00237761
-0.00323978
0.00215325
0.00346414
-0.00239388
-0.00326793
0.00328421
0.00223396
0.00304678
-0.00147368
-0.00380706
0.00302064
-0.00318057
-0.00258825
0.00261246
0.00299643
-0.00204008
0.00249862
-0.00406943
0.00361552
-0.00101977
-0.00506627
0.00105242
0.00537548
-0.00136162
0.0019096
-0.000266865
0.000996487
-0.00106235
0.000332728
-0.000109667
0.00127753
-0.00143472
-5.31816e-05
0.000306486
0.000111329
-0.00118635
-0.00185075
0.00120348
-1.73953e-07
-6.56336e-08
3.11373e-07
-4.85325e-07
-0.000111141
-0.00204568
0.00156066
-0.00181953
-7.51302e-05
0.00178352
5.16877e-05
-0.00190718
3.59602e-05
-0.000258103
0.00170219
0.000283079
-0.00172716
0.00174859
0.000498754
-0.00250545
0.00174562
0.00170516
-2.47128e-06
4.88617e-07
3.58589e-05
-4.7815e-06
2.31023e-06
-4.29289e-06
-5.5776e-06
4.27623e-06
-5.52591e-05
1.04644e-06
-6.62404e-06
5.32267e-06
-4.40892e-05
2.13569e-05
-0.000265078
2.22752e-05
-6.63643e-05
4.36321e-05
5.31932e-05
-5.33616e-06
-0.000172929
-1.69043e-05
7.00975e-05
-2.22405e-05
0.00142255
0.0032832
-0.00421028
0.00133332
-0.00447237
0.00456159
0.00471753
-0.000101009
-0.00118227
-0.00244445
0.0011581
0.00246861
-0.000710515
0.00272188
-0.00319363
0.000157245
-0.00331221
0.00409642
-0.00411737
-1.44679e-05
3.54261e-05
0.00411143
3.57094e-05
-5.07259e-05
-2.71876e-05
-0.0040926
2.4084e-06
0.00415833
-2.55107e-06
-4.43436e-05
0.00424791
5.95407e-05
-0.00014912
2.8919e-05
0.0043688
-0.000149811
0.00431566
-0.00427545
-1.12927e-05
-0.000204812
0.00458771
-1.40974e-05
0.0042092
-9.83519e-05
-0.00412944
-8.64672e-05
-0.00409935
-3.26374e-05
-0.00407685
1.32049e-05
-0.00414635
5.50331e-05
-0.00406002
-0.000113519
-0.000199664
0.00480103
-1.36593e-05
0.00402492
-1.53895e-05
-2.20032e-05
-0.00403862
-3.1969e-05
-0.00407355
-8.46583e-06
-3.05093e-05
-0.00425079
0.000242679
-1.90007e-06
0.00481562
-1.26859e-05
0.00403788
-1.4854e-05
-0.00420193
9.78639e-05
0.00482949
-1.66081e-06
-1.22132e-05
-1.70979e-06
0.0048424
-1.11994e-05
0.00404988
-1.36615e-05
0.00406145
-1.32844e-05
-2.59254e-05
-0.00420297
-2.18965e-05
-0.00420203
-2.58253e-05
-1.3981e-06
0.00485458
-1.07816e-05
0.00407221
-1.21514e-05
-2.2371e-06
-0.00417804
-2.26922e-05
-0.004177
-2.72646e-05
-1.33032e-06
0.00486571
-9.79508e-06
0.00408275
-1.18685e-05
-2.27253e-06
-0.00415201
-2.37553e-05
-0.00415108
-2.81929e-05
-7.71813e-07
0.00487592
-9.44178e-06
0.00409276
-1.07879e-05
-2.53899e-06
-0.00412504
-2.44345e-05
-0.00412401
-2.96099e-05
-2.08434e-07
0.00488462
-8.48972e-06
0.00410314
-1.05906e-05
-2.59665e-06
-0.00409705
-2.53973e-05
-0.00409606
-3.05487e-05
1.34615e-06
0.00489147
-8.20038e-06
0.00411405
-9.55953e-06
6.62059e-06
-0.00407766
-2.6009e-05
-0.00405754
-3.18943e-05
3.91161e-06
0.00489484
-7.28097e-06
0.0041274
-9.43768e-06
2.34619e-05
-0.00393391
-0.00016721
-0.00395951
-7.45658e-05
9.51544e-06
0.00489238
-7.05646e-06
0.00412631
1.06077e-05
2.26832e-05
-0.00392338
-3.32076e-05
-0.00390078
-3.60513e-05
2.01037e-05
0.00487845
-6.17341e-06
0.0041039
4.25061e-05
5.19063e-05
-0.00375515
-0.00022014
-0.00375876
-9.0114e-05
0.000208168
0.00467628
-6.00128e-06
0.00423506
7.7012e-05
5.92073e-05
-0.0037077
-0.000106659
-0.00368763
-1.19253e-05
0.000184137
0.00433768
0.000154465
0.0043109
0.000108293
9.53484e-05
-0.000168171
-0.00363488
-0.0036423
5.00177e-05
1.20641e-05
3.70381e-05
0.00428858
0.00428845
3.45133e-05
-0.00372651
0.00381589
-0.000196039
-0.00371635
-0.000178331
0.000163798
-0.000174418
-0.00362426
4.76894e-05
-0.00352619
-0.00376281
0.00382438
-9.47739e-05
-0.000167067
-0.00371147
0.00373799
-5.25299e-05
-5.43052e-05
-0.00376346
0.0037881
-4.9077e-05
-5.08624e-05
-0.00381171
0.00383452
-4.55071e-05
-4.73621e-05
-0.00385639
0.00414099
-4.19294e-05
-4.3759e-05
-0.00414933
0.00411162
4.01198e-05
-4.03087e-05
-0.00426256
0.00424682
-3.49891e-05
-0.000115513
-0.00412671
0.00408159
-0.000104002
7.57741e-05
-0.00399894
0.00401316
-2.83203e-05
-6.71568e-05
-0.00402648
0.00403913
-2.53286e-05
-2.69858e-05
-0.004051
0.00406228
-2.2475e-05
-2.40873e-05
-0.00407284
0.00408285
-1.98055e-05
-2.1344e-05
-0.0040922
0.00410105
-1.73396e-05
-1.87966e-05
-0.00410931
0.00411711
-1.50803e-05
-1.64553e-05
-0.00412437
0.00413121
-1.30153e-05
-1.43172e-05
-0.00411326
0.00421582
5.19055e-05
1.19525e-05
0.00421069
4.21666e-05
-2.66837e-05
7.87018e-05
0.00423656
-9.69086e-06
0.00427146
0.0042261
-0.0041504
1.30938e-06
-0.00427318
0.00426959
3.80993e-05
6.12185e-05
0.00414338
-0.00411701
-1.576e-05
3.5486e-05
0.00410926
-0.00410092
-1.78998e-05
-1.7188e-05
0.00409212
-0.00408267
-2.02403e-05
-1.93942e-05
0.0040727
-0.00406203
-2.28288e-05
-2.18311e-05
0.00405079
-0.00403877
-2.56815e-05
-2.45236e-05
0.00402613
-0.0040127
-2.88239e-05
-2.74878e-05
0.0040803
-0.00405941
-3.21833e-05
-3.07513e-05
0.00411172
-0.0040507
-9.36554e-05
-3.41524e-05
0.00400702
-0.00396291
1.09264e-05
-3.04791e-05
0.00399357
-0.00399947
-2.56447e-06
-8.28638e-05
0.00385585
-0.00383398
-4.77012e-05
-4.57519e-05
0.00381132
-0.00378759
-5.19229e-05
-4.99241e-05
0.00376308
-0.00373749
-5.61379e-05
-5.41226e-05
0.0037111
-0.00372536
-6.02991e-05
-5.82853e-05
0.00369903
-0.00372476
-6.43916e-05
-6.23816e-05
0.00367021
-0.00358693
-3.32672e-05
-6.64672e-05
-0.00351832
-2.09206e-05
-0.00371246
-0.000178299
0.00422893
6.04637e-05
-1.0727e-05
0.00427063
9.28481e-05
-0.000112082
-0.00350696
3.5044e-05
-0.00346051
0.000149131
-0.000174443
-0.00368715
-0.00358721
-0.00371576
0.00368425
-0.000164523
0.00372844
-0.00372833
-0.000178414
-0.000165653
-0.00366492
0.00369275
-0.000122597
-0.000147742
-0.00371957
0.00374565
-7.8608e-05
-8.11313e-05
-0.00377068
0.0037949
-7.33004e-05
-7.58915e-05
-0.0038181
0.0038405
-6.79133e-05
-7.0558e-05
-0.00386192
0.00388252
-6.25301e-05
-6.51766e-05
-0.0039021
0.0039995
-5.72761e-05
-5.98859e-05
-0.00393871
0.00395583
-5.21124e-05
-5.47244e-05
-0.00408127
0.00402444
-4.71736e-05
-4.96634e-05
-0.00400205
0.00401603
-4.23018e-05
-4.47657e-05
-0.00402916
0.00404163
-3.7799e-05
-4.01157e-05
-0.00405333
0.00406444
-3.3584e-05
-3.57872e-05
-0.00407484
0.0040847
-2.96666e-05
-3.17465e-05
-0.00409392
0.00410264
-2.60608e-05
-2.8011e-05
-0.00411077
0.00411846
-2.27681e-05
-2.45889e-05
-0.00412562
0.00413237
-1.9766e-05
-2.14733e-05
-0.00413835
0.00417741
1.28431e-05
5.9673e-06
5.92312e-06
-1.96847e-05
0.00425032
-6.26577e-06
0.00424112
-0.00417019
0.00421646
1.41942e-05
4.93929e-05
0.00421396
-0.00420957
3.37094e-05
0.00418497
1.82615e-05
3.26239e-06
3.92486e-05
0.00422812
0.00425504
0.00420449
-0.0041679
-3.52838e-05
5.61385e-05
0.00412558
-0.00411832
-2.30159e-05
-6.83272e-06
0.00411067
-0.00410244
-2.61297e-05
-2.48421e-05
0.00409376
-0.00408444
-2.95612e-05
-2.80747e-05
0.00407462
-0.0040641
-3.33512e-05
-3.16507e-05
0.00405303
-0.0040412
-3.75129e-05
-3.55919e-05
0.00402878
-0.00401555
-4.20496e-05
-3.9907e-05
0.00400172
-0.00398698
-4.69156e-05
-4.45868e-05
0.00397156
-0.00401309
-5.21296e-05
-4.95727e-05
0.00398868
-0.00392018
-5.75758e-05
-5.48856e-05
0.00394255
-0.00388176
-6.33547e-05
-6.04902e-05
0.00386126
-0.00383972
-6.92365e-05
-6.62579e-05
0.00381743
-0.0037941
-7.52607e-05
-7.22109e-05
0.00376999
-0.00374482
-8.13082e-05
-7.82276e-05
0.00371887
-0.00369186
-8.73124e-05
-8.42329e-05
0.00366407
-0.00363524
-9.32228e-05
-9.01699e-05
0.00360571
-0.00354002
-9.89593e-05
-9.60014e-05
0.00348958
-0.00341223
-4.23008e-05
-7.13587e-05
-0.00372228
-0.000180485
1.82168e-05
-0.00010336
-0.00337537
-0.00336032
-3.36994e-05
-0.00018815
-0.00342217
1.40644e-05
0.00419613
0.00419613
2.80941e-05
-0.000115465
0.000102589
-0.00367428
-0.000146084
-0.00369167
-7.82931e-06
-9.76999e-05
-0.00326984
-6.12919e-05
-0.00330685
-0.00367277
0.00422813
-0.00421101
-2.92644e-06
0.00418942
5.27829e-05
6.51172e-05
-2.69283e-05
0.00418993
3.50587e-05
0.00422619
-0.00367151
0.00374347
-0.000218035
-0.000198347
0.000144551
-0.00363787
0.0037241
2.504e-05
0.000177605
-0.00392675
-0.000145759
-0.00377027
0.00377034
-0.000178485
-0.000207291
-0.00375038
0.00371757
-0.000131714
-0.00014569
-0.00371691
0.00370533
-0.000111017
-0.000147078
-0.0037315
0.00375688
-0.000103991
-0.0001073
-0.00378124
0.00380481
-9.68759e-05
-0.00010025
-0.00382739
0.0038492
-8.97197e-05
-9.31337e-05
-0.00387003
0.00389009
-8.25964e-05
-8.60086e-05
-0.00390918
0.00392751
-7.56056e-05
-7.89743e-05
-0.0039449
0.00396158
-6.87938e-05
-7.21076e-05
-0.00397735
0.00399241
-6.22363e-05
-6.54334e-05
-0.00400667
0.00402029
-5.59196e-05
-5.90248e-05
-0.0040331
0.00404528
-4.99851e-05
-5.29271e-05
-0.00405672
0.00406758
-4.44447e-05
-4.72228e-05
-0.00407775
0.00408739
-3.93108e-05
-4.19173e-05
-0.00409641
0.00410494
-3.45941e-05
-3.7024e-05
-0.0041129
0.00412043
-3.02945e-05
-3.25486e-05
-0.00412744
0.00413406
-2.63878e-05
-2.84823e-05
-0.00415162
0.00416415
3.08164e-07
-1.15914e-05
2.53061e-06
2.40109e-05
-1.08121e-05
0.00423712
-3.66457e-05
1.45652e-08
0.00423276
0.00422848
0.0042173
0.00420339
-0.00419375
2.40788e-05
-0.00420218
0.00418371
4.65658e-05
1.94619e-05
0.00414022
-0.00414904
-2.64707e-05
2.60619e-06
0.00412735
-0.00412024
-3.01295e-05
-2.85141e-05
0.00411274
-0.00410468
-3.41911e-05
-3.234e-05
0.00409618
-0.00408706
-3.86853e-05
-3.65742e-05
0.00407745
-0.00406716
-4.36434e-05
-4.12587e-05
0.00405634
-0.00404478
-4.90745e-05
-4.64121e-05
0.00403265
-0.00401972
-5.49727e-05
-5.20369e-05
0.00400619
-0.0039918
-6.13048e-05
-5.81155e-05
0.00397676
-0.00396083
-6.80582e-05
-6.46148e-05
0.00394421
-0.00392663
-7.51592e-05
-7.1508e-05
0.00390837
-0.00388913
-8.25872e-05
-7.87521e-05
0.00386915
-0.00384817
-9.02184e-05
-8.62404e-05
0.00382645
-0.00380372
-9.79978e-05
-9.39266e-05
0.00378024
-0.00375573
-0.00010582
-0.000101707
0.00373047
-0.00370418
-0.000113598
-0.000109488
0.00367716
-0.00364913
-0.000121256
-0.00011719
0.00362039
-0.00359065
-0.000128707
-0.000124739
0.00352995
-0.00343627
-0.000135978
-0.000132056
0.00337026
-0.00334883
-8.27276e-05
-9.97092e-05
-5.05601e-05
2.09722e-05
-0.00327727
-0.00330244
-9.69444e-05
0.000132087
-0.00366181
-7.48715e-05
-0.00344499
2.48289e-05
0.0041646
0.00420243
1.63427e-05
0.000187582
-0.00380041
4.9783e-05
-0.00329865
0.000839427
-0.00302378
0.00392997
5.80233e-05
-0.000109078
-0.00325139
-4.86649e-06
-0.00321438
-0.00241207
0.00370132
0.000415912
-0.00182901
-0.000299987
-0.00361555
-0.00354398
0.00372388
-2.29344e-06
0.000160571
-3.22324e-06
-0.00371534
0.00370968
-0.00021238
-0.000137223
-0.00370788
0.00368373
-0.00015434
-0.000205483
-0.00368776
0.00370186
-0.000145818
-0.000149719
-0.0036959
0.00372201
-0.00013712
-0.000141117
-0.00374715
0.00377155
-0.000128395
-0.000132443
-0.003795
0.0038177
-0.000119583
-0.000123695
-0.00383946
0.00386048
-0.000110743
-0.00011489
-0.00388057
0.00389993
-0.000101956
-0.000106096
-0.00391837
0.00393608
-9.33216e-05
-9.74083e-05
-0.00395289
0.00396902
-8.49196e-05
-8.89194e-05
-0.00398428
0.00399887
-7.68266e-05
-8.06977e-05
-0.00401266
0.00402583
-6.90891e-05
-7.28149e-05
-0.00403824
0.00405004
-6.17923e-05
-6.53287e-05
-0.00406113
0.00407166
-5.49794e-05
-5.83098e-05
-0.00408153
0.0040909
-4.86723e-05
-5.17866e-05
-0.00409965
0.00410794
-4.28833e-05
-4.57759e-05
-0.00411567
0.00412299
-3.76111e-05
-4.02833e-05
-0.0041298
0.00413625
-3.28345e-05
-3.52993e-05
-0.00415545
0.00418427
-2.85166e-05
-3.07861e-05
-0.00417931
0.00418146
-5.07491e-06
7.49076e-06
-0.0042024
0.00420148
2.57487e-05
3.18451e-05
4.72926e-05
-2.54335e-05
0.0042109
-2.06044e-05
-1.15753e-05
0.00423366
0.00419129
3.79312e-05
1.59509e-05
0.00418324
0.00424098
-2.37595e-05
1.0707e-05
0.00420298
0.00420949
-1.12855e-05
-1.39052e-05
0.00422762
0.00422561
0.00422378
-0.00420449
2.7275e-05
-0.00429302
0.00418302
9.60886e-05
-5.28903e-05
0.00418943
-0.00417554
1.0183e-05
4.40257e-06
0.0041422
-0.00413611
-3.25648e-05
-3.07268e-05
0.00412968
-0.00412276
-3.7048e-05
-3.49469e-05
0.00411547
-0.00410763
-4.20302e-05
-3.96334e-05
0.00409936
-0.0040905
-4.7551e-05
-4.48361e-05
0.00408117
-0.00407118
-5.36349e-05
-5.05903e-05
0.00406068
-0.00404946
-6.02887e-05
-5.69116e-05
0.0040377
-0.00402517
-6.75018e-05
-6.37986e-05
0.00401205
-0.00399812
-7.52444e-05
-7.12316e-05
0.00398355
-0.00396813
-8.34831e-05
-7.91781e-05
0.00395204
-0.00393505
-9.21528e-05
-8.75919e-05
0.00391739
-0.00389879
-0.000101186
-9.64113e-05
0.00387949
-0.00385923
-0.000110478
-0.000105539
0.00383827
-0.00381633
-0.000119937
-0.000114889
0.00379369
-0.00377006
-0.00012945
-0.000124352
0.00374573
-0.00372041
-0.00013891
-0.00013382
0.00369441
-0.00366745
-0.000148218
-0.000143189
0.00363983
-0.00361125
-0.000157281
-0.000152365
0.00358204
-0.00355197
-0.000166049
-0.000161264
0.00348184
-0.00339007
-0.000174502
-0.000169838
0.00336611
-0.00332446
-0.000150725
-0.000120905
-0.000104722
7.68498e-05
-0.00322351
-0.00327135
-0.000157837
0.000126585
-0.00360082
-1.33001e-05
-0.00338191
0.000323361
-0.00328435
5.15165e-05
-0.00335504
0.00420534
-0.0042072
2.76107e-05
0.00419402
-2.53379e-07
3.62128e-05
-2.33437e-05
0.00421475
-6.05514e-06
0.00422529
0.000346122
-0.00287115
8.99384e-05
-0.00322746
-0.00160027
-0.0019559
-0.00287341
0.00334292
-5.36046e-05
-8.54037e-05
7.35521e-05
-0.00321166
-0.000134844
-0.00322191
-0.00263319
-0.000540207
-0.00350227
-0.00352008
0.00359447
-7.66879e-05
-1.65852e-05
-0.00365279
0.0036317
-0.000191291
-0.000195538
-0.0036122
0.00363956
-0.000181693
-0.000185986
-0.0036662
0.00369229
-0.000171909
-0.000176357
-0.00371761
0.00374233
-0.000161842
-0.000166442
-0.0037662
0.00378941
-0.000151601
-0.000156309
-0.00381173
0.00383338
-0.00014123
-0.00014602
-0.00385413
0.00387421
-0.000130816
-0.000135648
-0.0038934
0.00391191
-0.000120463
-0.000125287
-0.00392954
0.0039465
-0.000110282
-0.000115045
-0.00396261
0.00397807
-0.000100375
-0.00010503
-0.00399271
0.00400672
-9.08335e-05
-9.53372e-05
-0.00401995
0.00403259
-8.17301e-05
-8.60501e-05
-0.0040445
0.00405585
-7.31399e-05
-7.72393e-05
-0.00406651
0.00407665
-6.51162e-05
-6.89721e-05
-0.00408615
0.00409517
-5.76899e-05
-6.12884e-05
-0.0041036
0.00411159
-5.08753e-05
-5.42103e-05
-0.00411906
0.00412612
-4.46721e-05
-4.77442e-05
-0.0041327
0.00413893
-3.90614e-05
-4.18811e-05
-0.00414473
0.00415022
-3.40037e-05
-3.65897e-05
-0.00418954
0.00417984
4.61786e-06
-3.18291e-05
4.48875e-06
3.45358e-05
-6.52519e-05
0.00424162
-4.60489e-06
1.40403e-05
0.00422422
0.00422122
-2.82867e-06
-1.14395e-06
0.00418722
0.0041729
-3.57259e-05
5.16551e-05
0.00418705
0.00417262
0.00425392
0.00422798
-0.00421126
1.05552e-05
-0.00417975
0.0042252
5.0643e-05
-4.66082e-06
0.00419403
-0.00415012
-3.37281e-05
-1.28306e-05
0.00414464
-0.00413875
-3.84566e-05
-3.62084e-05
0.00413253
-0.00412585
-4.37282e-05
-4.1159e-05
0.00411881
-0.00411124
-4.95968e-05
-4.66757e-05
0.00410327
-0.00409472
-5.61002e-05
-5.28072e-05
0.00408573
-0.0040761
-6.32601e-05
-5.95845e-05
0.004066
-0.0040552
-7.10811e-05
-6.7021e-05
0.00404389
-0.00403184
-7.95499e-05
-7.51132e-05
0.00401923
-0.00400584
-8.86341e-05
-8.38387e-05
0.00399186
-0.00397706
-9.82871e-05
-9.3159e-05
0.00396163
-0.00394535
-0.000108437
-0.000103016
0.00392843
-0.00391062
-0.000118996
-0.000113332
0.00389215
-0.00387277
-0.000129855
-0.000124005
0.00385274
-0.00383178
-0.000140897
-0.000134926
0.00381016
-0.00378761
-0.000151995
-0.000145972
0.00376442
-0.0037403
-0.000163023
-0.000157017
0.00371556
-0.00368992
-0.00017386
-0.000167936
0.00366367
-0.00363655
-0.000184394
-0.000178614
0.00360887
-0.00358039
-0.000194533
-0.000188945
0.0035514
-0.00352171
-0.000204186
-0.000198831
0.00343441
-0.00337195
-0.000213189
-0.000208208
0.00331287
-0.00325998
-0.000187729
-0.000216914
-0.000105464
0.000103006
-0.00321945
-0.00321601
-0.000149438
9.77807e-05
-0.00337524
1.44638e-05
-0.00334486
2.9681e-05
0.00417837
0.00421318
5.96281e-06
0.00020649
-0.00314471
-0.000305737
-0.00379999
2.36326e-05
-0.00320052
5.31225e-05
-0.00331822
9.18416e-05
-0.00324575
-0.00375054
-0.000838545
0.000293503
-0.000572432
-0.00347161
-0.000155279
-0.0033512
7.57149e-05
-0.00318437
-0.000141085
6.09866e-05
-0.00313935
-0.000134981
-0.00322211
-0.00339002
-0.00318332
0.00335485
-0.000225134
0.00332128
-0.00361441
-0.000545422
-0.000402241
-0.00348701
0.00356488
-0.000154551
-0.000148751
-0.00359154
0.00361798
-0.000217727
-0.000222202
-0.00364393
0.0036695
-0.000207261
-0.000211943
-0.00369443
0.00371888
-0.000196361
-0.000201286
-0.00374263
0.00376584
-0.00018505
-0.000190187
-0.00378827
0.00381012
-0.000173447
-0.000178744
-0.00383116
0.00385158
-0.000161654
-0.000167062
-0.00387119
0.00389016
-0.000149792
-0.000155254
-0.00390832
0.00392584
-0.000137987
-0.000143443
-0.00394256
0.00395864
-0.000126367
-0.000131757
-0.00397393
0.00398861
-0.000115054
-0.000120322
-0.00400252
0.00401585
-0.000104156
-0.000109251
-0.00402844
0.00404047
-9.37636e-05
-9.86441e-05
-0.00405182
0.00406263
-8.39552e-05
-8.85841e-05
-0.0040728
0.00408248
-7.47904e-05
-7.91411e-05
-0.00409155
0.00410017
-6.63065e-05
-7.03624e-05
-0.00410823
0.00411588
-5.85212e-05
-6.22746e-05
-0.00412302
0.00412978
-5.14344e-05
-5.4886e-05
-0.00413609
0.00414206
-4.50284e-05
-4.81876e-05
-0.00414762
0.00415288
-3.92678e-05
-4.21518e-05
-0.00415779
0.00419651
-3.4103e-05
-3.67339e-05
-0.00420362
0.00421719
1.40441e-05
-2.62556e-06
-0.0041646
0.0041856
8.68546e-06
5.23337e-05
5.41778e-05
-3.91974e-05
0.00420924
4.86945e-06
-3.16832e-05
0.00421241
0.00423742
4.29839e-05
6.21836e-06
0.00419241
0.00422501
-2.5462e-06
-1.16419e-06
0.00419093
0.00417657
4.85711e-06
-8.53137e-06
0.00419072
0.00417631
-1.90086e-05
9.26999e-06
0.00422449
0.00422638
1.19197e-06
1.03738e-06
0.00421095
0.00423575
0.00424123
-0.00418974
-8.45525e-07
-0.00422489
0.00420365
2.22703e-05
2.23085e-05
0.00419461
-0.00418133
-2.71788e-06
2.02025e-07
0.00415775
-0.00415276
-3.87129e-05
-3.64176e-05
0.00414751
-0.00414186
-4.41061e-05
-4.14632e-05
0.0041359
-0.0041295
-5.01321e-05
-4.71145e-05
0.00412275
-0.0041155
-5.68445e-05
-5.34245e-05
0.00410787
-0.00409969
-6.42795e-05
-6.04381e-05
0.00409109
-0.00408189
-7.24577e-05
-6.81843e-05
0.00407224
-0.00406194
-8.13819e-05
-7.66757e-05
0.00405115
-0.00403966
-9.10356e-05
-8.59062e-05
0.00402765
-0.0040149
-0.000101382
-9.585e-05
0.0040016
-0.00398752
-0.000112364
-0.000106461
0.00397287
-0.00395741
-0.000123899
-0.000117671
0.00394135
-0.00392446
-0.000135886
-0.00012939
0.00390696
-0.00388861
-0.000148201
-0.000141503
0.00386966
-0.00384984
-0.000160712
-0.000153885
0.00382942
-0.00380814
-0.000173273
-0.000166396
0.00378626
-0.00376355
-0.00018574
-0.000178892
0.00374025
-0.00371614
-0.00019797
-0.000191228
0.00369149
-0.00366605
-0.00020983
-0.000203268
0.00364012
-0.00361345
-0.000221196
-0.000214882
0.00358634
-0.00355857
-0.000231955
-0.000225948
0.00353043
-0.00350167
-0.00024195
-0.000236351
0.00347262
-0.00340917
-0.000251178
-0.000245964
0.00334766
-0.00326543
-0.000217207
-0.000210949
-0.000183963
0.000125177
-0.00316333
-0.00323756
-0.000211836
7.02544e-05
-0.003239
-0.00362233
-0.000564511
7.2908e-05
-0.00319399
0.00424102
-0.00424854
1.62111e-05
0.00424036
-3.10314e-05
2.45374e-05
-2.15344e-05
0.00420795
3.28412e-05
0.00419535
1.5543e-05
-0.00330728
5.45082e-05
-0.00328089
-1.06552e-05
-0.00334514
9.33586e-05
-0.0032634
0.000132199
-0.00325558
0.000170798
-0.00318497
-0.000171283
0.0001686
-0.00316065
-0.00023453
-0.00317431
-0.00330423
-0.00359784
0.00346313
-0.000410707
-0.000496616
0.000579616
-0.00370533
0.00371459
-0.00382751
-0.000383698
-0.000447763
-0.00336148
0.00344505
-0.000308703
-0.000300597
-0.00353956
0.00360511
-0.000220093
-0.000243262
-0.00363005
0.0036547
-0.000242371
-0.000247148
-0.00367883
0.00370258
-0.000231017
-0.000236075
-0.00372574
0.00374846
-0.000219079
-0.000224442
-0.00377053
0.00379211
-0.000206632
-0.000212256
-0.00381299
0.00383335
-0.000193803
-0.000199629
-0.00385298
0.00387205
-0.000180725
-0.00018669
-0.00389038
0.00390813
-0.000167545
-0.00017358
-0.00392513
0.00394156
-0.000154411
-0.000160446
-0.00395724
0.00397234
-0.00014147
-0.000147436
-0.00398671
0.00400052
-0.000128861
-0.000134693
-0.00401361
0.00402617
-0.000116708
-0.000122349
-0.00403804
0.00404939
-0.000105116
-0.000110518
-0.0040601
0.00407032
-9.41729e-05
-9.92944e-05
-0.00407994
0.00408909
-8.39436e-05
-8.87554e-05
-0.00409768
0.00410584
-7.44711e-05
-7.89541e-05
-0.00411349
0.00412075
-6.57761e-05
-6.99213e-05
-0.00412753
0.00413395
-5.78595e-05
-6.16672e-05
-0.00413995
0.00414562
-5.0704e-05
-5.41831e-05
-0.00415091
0.00415592
-4.42749e-05
-4.74424e-05
-0.00416059
0.00416501
-3.85204e-05
-4.1402e-05
-0.00419839
0.00421726
-4.83059e-06
-3.60035e-05
2.10521e-05
5.32134e-06
-3.46452e-05
0.00423856
-1.45908e-05
-1.84291e-05
0.00424543
0.00422815
-9.10117e-06
5.70824e-06
0.00419581
0.00418126
-2.27956e-06
-1.1835e-06
0.00419439
0.00418
4.6323e-06
-8.06792e-06
0.00419416
0.00417976
-3.77556e-05
2.20303e-05
0.00424021
0.00418055
0.00423625
0.00423729
-0.00423636
-1.76855e-06
-0.00423136
0.00421565
3.79815e-05
2.82391e-05
0.00420033
-0.00416495
-3.80977e-05
-3.58306e-05
0.00416054
-0.00415579
-4.34603e-05
-4.0828e-05
0.00415079
-0.00414542
-4.94837e-05
-4.64629e-05
0.00413975
-0.00413366
-5.62236e-05
-5.27818e-05
0.00412724
-0.00412036
-6.37304e-05
-5.98407e-05
0.00411311
-0.00410535
-7.20398e-05
-6.76832e-05
0.0040972
-0.00408848
-8.11717e-05
-7.6338e-05
0.00407934
-0.0040696
-9.1127e-05
-8.58163e-05
0.00405939
-0.00404854
-0.000101886
-9.61096e-05
0.00403721
-0.00402518
-0.000113405
-0.000107188
0.00401265
-0.00399939
-0.000125619
-0.000118997
0.0039856
-0.00397107
-0.000138434
-0.00013146
0.00395599
-0.00394014
-0.000151736
-0.000144473
0.00392373
-0.00390654
-0.000165388
-0.00015791
0.0038888
-0.00387027
-0.00017924
-0.00017163
0.00385119
-0.00383133
-0.000193131
-0.000185476
0.00381094
-0.00378978
-0.000206895
-0.000199286
0.00376811
-0.00374571
-0.000220373
-0.000212897
0.00372283
-0.00369924
-0.000233411
-0.000226151
0.00367522
-0.00365055
-0.000245866
-0.000238902
0.00362549
-0.00359984
-0.000257607
-0.00025101
0.00357384
-0.00354729
-0.000268503
-0.00026235
0.00352044
-0.0034931
-0.000278512
-0.000272814
0.00342172
-0.00335145
-0.000287479
-0.000282333
0.00330798
-0.00328808
-0.000254428
-0.000255307
-0.000355486
0.000143574
-0.00313929
-0.00324748
-0.000201715
0.000202237
-0.00317483
-0.00321456
-0.000275234
2.15107e-05
-0.0031876
2.49975e-05
0.00419694
0.00425389
-5.40045e-06
0.000313579
-0.00376716
-0.000373928
1.66172e-05
-0.00326939
0.000384306
-0.00377606
2.4513e-05
-0.00322916
5.55157e-05
-0.00324304
5.35997e-05
-0.00325516
9.47318e-05
-0.00322593
0.000134112
-0.0032189
0.000173165
-0.00318953
0.000178222
-0.00313663
-0.000230991
0.000201287
-0.00314513
-0.00025382
-0.00319173
-0.0032661
-0.00384062
0.00371582
-0.000258893
-0.000463359
-0.00367884
0.000375042
0.00391377
-0.00378705
-0.000590075
-0.000300783
-0.00363888
0.00358642
-0.000358251
-0.000370823
-0.00357633
0.00355425
-0.000286617
-0.000290507
-0.00359203
0.00364859
-0.000276654
-0.000281043
-0.00367163
0.00369436
-0.000265099
-0.000270189
-0.00371657
0.00373842
-0.000252868
-0.000258291
-0.00375972
0.00378061
-0.000239971
-0.000245736
-0.00380091
0.00382077
-0.000226494
-0.000232556
-0.00384001
0.00385877
-0.000212567
-0.000218864
-0.00387688
0.00389449
-0.000198339
-0.0002048
-0.00391143
0.00392786
-0.000183974
-0.000190522
-0.00394361
0.00395884
-0.00016964
-0.000176196
-0.0039734
0.00398743