/*--------------------------------*- C++ -*----------------------------------*\
  =========                 |
  \\      /  F ield         | OpenFOAM: The Open Source CFD Toolbox
   \\    /   O peration     | Website:  https://openfoam.org
    \\  /    A nd           | Version:  10
     \\/     M anipulation  |
\*---------------------------------------------------------------------------*/
FoamFile
{
    format      ascii;
    class       volVectorField;
    location    "51";
    object      U;
}
// * * * * * * * * * * * * * * * * * * * * * * * * * * * * * * * * * * * * * //

dimensions      [0 1 -1 0 0 0 0];

internalField   nonuniform List<vector> 
28942
(
(0.00445243 -0.00226945 -3.41512e-22)
(0.0060254 -0.00235548 -6.33899e-23)
(0.0179615 -0.012403 -8.26148e-22)
(0.103305 0.0182382 -5.26991e-21)
(0.102343 0.0222803 1.72535e-21)
(0.0164127 0.000527844 0)
(0.0195207 9.91298e-05 1.32672e-23)
(0.0225933 0.000681226 -1.18066e-23)
(0.135259 -0.0182237 -2.56552e-22)
(0.133904 -0.0165871 7.30181e-22)
(0.00986065 0.00403543 -6.72783e-22)
(0.0161657 0.00566441 2.54768e-22)
(0.0071821 0.00317045 0)
(0.00473895 0.00207862 0)
(0.0504975 0.002175 -1.78077e-23)
(0.0485274 0.00283411 -6.79091e-24)
(0.0893218 0.0158681 6.68618e-22)
(0.0870097 0.0138376 1.07599e-21)
(0.0121741 -0.0151242 2.91898e-21)
(0.029354 -0.0304909 -7.68237e-22)
(0.098136 0.0373601 9.53739e-22)
(0.0973119 0.034398 0)
(0.0188148 0.0046589 1.1672e-21)
(0.0078989 0.0023787 5.50213e-22)
(0.0379097 0.00725467 9.44151e-22)
(0.0576769 0.00295164 -8.60722e-22)
(0.00765093 -0.0185073 8.51453e-21)
(0.0066958 -0.0165704 -3.13594e-21)
(0.0355462 -0.0253443 5.7271e-22)
(0.0193194 -0.013694 1.97715e-22)
(0.0168225 -0.00155967 0)
(0.0210346 -0.0013846 -1.60061e-23)
(0.0266407 0.00471289 3.27537e-22)
(0.0381914 0.00204556 -5.41514e-23)
(0.0188319 0.0180128 1.31629e-21)
(0.0157243 0.0191215 -1.30806e-21)
(0.0321791 0.0376178 -3.05636e-21)
(0.0186745 0.0305336 -1.06943e-21)
(0.00904256 3.22696e-05 -1.1124e-23)
(0.00865098 0.0161974 -2.61739e-21)
(0.0306482 -0.00620329 0)
(0.0513411 -0.0109697 0)
(0.112672 -0.0135868 -2.8358e-23)
(0.112199 -0.013651 8.40738e-23)
(0.116427 -0.0134717 7.2848e-23)
(0.031763 0.000261022 1.37281e-23)
(0.0295849 -0.000595297 -2.22442e-23)
(0.0420681 -0.000517767 -9.93894e-23)
(0.0403362 -0.000584584 2.82301e-23)
(0.0328816 -0.00295775 -2.41748e-22)
(0.0245826 -0.00359635 1.56253e-22)
(0.128509 0.0015855 -4.04299e-22)
(0.127839 0.00110122 -3.7715e-22)
(0.134587 -0.0210106 -3.79194e-24)
(0.133028 -0.0192828 1.3934e-22)
(0.0827775 0.00646922 7.16806e-22)
(0.102038 -0.000636667 2.49655e-22)
(0.00307813 0.00163014 -5.65178e-22)
(0.00899356 0.0037003 0)
(0.00830101 0.00330774 2.37389e-22)
(0.00290082 0.00149718 4.87675e-22)
(0.000365781 0.000228289 -4.0554e-22)
(0.000195148 0.000123794 -3.89587e-22)
(0.109929 -0.0426115 0)
(0.105091 -0.0255949 1.26688e-22)
(0.121959 -0.0330684 -4.34812e-23)
(0.123573 -0.0437359 0)
(0.0901331 -0.0328027 -6.39219e-22)
(0.0936395 -0.0352656 -4.20125e-22)
(0.0018962 -0.00113602 1.12904e-21)
(0.00250343 -0.00202739 -3.55779e-22)
(0.00489781 -0.00317174 8.82729e-22)
(0.0849163 -0.0457673 0)
(0.0912377 -0.0396231 2.16968e-21)
(0.0805911 -0.0530399 5.86129e-22)
(0.114335 0.0123147 2.36511e-22)
(0.11296 0.00679106 -2.62363e-22)
(0.125313 0.0108686 -1.11346e-22)
(0.00469037 -0.00286601 -5.35502e-23)
(0.00634804 -0.00443226 4.47824e-22)
(0.051082 -0.0311799 1.25932e-22)
(0.0332069 -0.020565 -2.57652e-22)
(0.00212118 -0.000601659 3.20539e-21)
(0.00517602 -0.0020833 -1.24908e-21)
(0.10108 0.0482453 1.36897e-23)
(0.0971062 0.0552132 -7.66338e-22)
(0.0807782 0.0540191 6.99371e-22)
(0.0472379 0.0345245 -2.68649e-21)
(0.0444669 0.0316226 1.90257e-21)
(0.0295128 0.020607 -1.13811e-22)
(0.032734 0.0232599 -6.42438e-22)
(0.0379772 0.0283697 8.70949e-22)
(0.00443892 0.00272287 -5.87456e-23)
(0.0078228 0.00398762 -1.69762e-23)
(0.00320894 0.00202125 3.40185e-23)
(0.00192996 0.00163873 -4.54434e-22)
(0.0014523 0.00155853 5.57051e-22)
(0.0157515 0.0115493 -3.26075e-21)
(0.0175044 0.013641 7.46978e-22)
(0.00883114 -0.00386161 0)
(0.101389 0.00515997 0)
(0.0984002 0.0156843 -3.96452e-21)
(0.0604386 0.0104757 1.94632e-21)
(0.0886778 0.0178819 0)
(0.135644 -0.00148246 0)
(0.135088 -0.00221252 0)
(0.133431 -0.00269158 -2.56781e-22)
(0.114984 0.0265325 -2.12553e-22)
(0.114078 0.0279398 2.10111e-21)
(0.113277 0.0254014 1.12749e-21)
(0.0023095 0.00130617 1.05369e-21)
(0.00152181 0.000780143 -1.18267e-21)
(0.0191274 -0.00556961 -5.49039e-22)
(0.0202238 -0.00510472 4.68466e-22)
(0.00914845 -0.00295043 9.25609e-22)
(0.00647766 0.0111406 1.47978e-21)
(0.0189719 0.0181471 3.45909e-21)
(0.0134682 0.0227924 2.72227e-22)
(0.00492174 0.0143007 -8.62842e-21)
(0.117092 0.0477212 5.56753e-23)
(0.107928 0.0582142 1.07107e-21)
(0.1184 0.0548381 -1.84719e-21)
(0.0391251 -0.0294395 7.31197e-22)
(0.0240298 -0.0172784 -4.67434e-22)
(0.00532329 -0.000752362 -4.10519e-21)
(0.00454013 -0.00360279 0)
(0.0124996 -0.00168721 2.00414e-21)
(0.0219819 -0.0161425 7.78326e-22)
(0.0342826 -0.0278042 -1.95507e-21)
(0.0398322 -9.30608e-06 6.97514e-23)
(0.0423092 0.000155765 -4.97919e-23)
(0.0374415 0.000187888 -2.15297e-24)
(0.0280747 -0.0419776 0)
(0.0296232 -0.0428689 0)
(0.0896191 -0.0186546 -4.64373e-22)
(0.0995867 -0.0220929 3.15429e-21)
(0.0870329 -0.0252791 0)
(0.0471542 -0.0402146 0)
(0.0582204 -0.0514137 -7.82938e-22)
(0.0413267 0.0393413 2.08735e-21)
(-5.66518e-06 0.000210242 5.1332e-22)
(-0.000198258 0.000127983 -3.37947e-22)
(0.0223437 -0.0192546 -7.9108e-22)
(0.12051 -0.0132585 4.11333e-22)
(0.119902 -0.0132625 -7.94034e-23)
(0.115743 -0.00556441 -6.68613e-23)
(0.108702 0.00114175 8.91022e-23)
(0.11796 -0.000112203 1.81117e-22)
(8.11663e-05 0.000258373 1.98244e-22)
(0.0437682 0.0344287 3.20849e-21)
(0.0619113 0.0463176 -7.89181e-22)
(0.0593548 0.0393812 -3.02649e-24)
(0.026131 -0.000951189 6.56334e-24)
(0.0257491 -0.000955174 3.50341e-23)
(0.0279146 -0.000760834 1.57379e-24)
(0.0311404 -0.000714531 -1.72203e-23)
(0.0454398 0.0380967 1.33875e-22)
(0.0189696 0.0160633 0)
(0.000144407 -4.05588e-05 3.67217e-22)
(0.000429599 -0.000264991 -4.07404e-22)
(0.00187485 -0.00103137 2.84018e-22)
(0.0366484 -0.0077612 -1.84336e-21)
(0.0650041 -0.00214502 -7.51641e-22)
(0.0361156 -0.000304639 -2.30857e-24)
(0.0746242 -0.00762785 2.7184e-22)
(0.0708164 -0.0157341 6.23002e-23)
(0.0943235 0.039886 2.14602e-21)
(0.0914276 0.0454236 9.92605e-23)
(0.08876 0.0290609 1.21699e-21)
(0.0914859 0.0307759 -8.81938e-22)
(0.0987177 0.0410427 0)
(0.126015 -0.000538013 1.50367e-22)
(0.126775 -0.000982211 2.84225e-22)
(0.128073 -0.0121443 -2.96387e-22)
(0.129535 -0.0119366 5.07347e-22)
(0.117061 0.0240642 2.60746e-22)
(0.119121 0.0249571 -7.38413e-22)
(0.117111 0.0260792 0)
(0.115143 0.0248236 1.53658e-22)
(0.116685 0.0280056 0)
(0.117198 0.0360316 -5.5256e-22)
(0.115738 0.0380889 -3.016e-22)
(0.111366 0.0419131 -5.41691e-22)
(0.11376 0.0400397 0)
(0.116455 0.0430123 1.79229e-21)
(0.113733 0.0449416 4.73886e-23)
(0.108361 0.0441294 -3.04227e-22)
(0.0996613 0.0502462 -1.28916e-21)
(0.0984449 0.0454581 -2.27121e-22)
(0.0251389 -0.008567 5.78633e-23)
(0.0330502 -0.00944336 -2.30985e-23)
(0.00632255 -0.00250882 -6.91687e-22)
(0.0354801 -6.74395e-05 -4.53567e-23)
(0.0452447 -0.000297685 0)
(-1.75846e-06 -4.20824e-05 4.31489e-22)
(1.4202e-05 -4.8368e-05 2.19948e-22)
(0.0409983 -0.0019959 2.07146e-23)
(0.0482669 -0.00194052 8.25542e-24)
(0.0477661 -0.00132277 0)
(0.039683 -0.00088716 9.12072e-24)
(0.0951831 0.00441023 -1.24342e-22)
(0.0946607 0.00395883 5.88527e-22)
(0.0955419 0.00411631 2.73121e-22)
(0.00067461 0.000271138 3.93492e-22)
(-0.000160325 -0.000130319 -5.70452e-22)
(-0.00020258 -0.000170614 4.86143e-22)
(0.00151045 0.000622773 0)
(8.18718e-05 8.92688e-05 1.14216e-21)
(0.000174425 -3.79894e-05 -8.23416e-22)
(0.0074791 0.00368896 -9.94146e-22)
(0.00146056 0.000786116 -1.18698e-21)
(0.00172939 0.000865198 0)
(0.00157224 0.00753984 0)
(0.000577061 0.00327958 0)
(0.000313339 0.00197563 0)
(0.136784 -0.00151999 5.71435e-23)
(0.137761 -0.00137271 0)
(0.136166 -0.00232149 -6.65957e-23)
(0.0881214 -0.0148597 4.4294e-21)
(0.0901278 -0.0152673 -1.60788e-21)
(0.0890424 -0.0128844 0)
(0.109999 0.000219074 -7.09346e-24)
(0.110505 0.000210278 1.41977e-23)
(0.109472 0.000229041 -4.81572e-24)
(0.110987 0.000203477 0)
(0.111447 0.000202 -9.00623e-24)
(0.111882 0.000195961 0)
(0.111877 -0.000258446 0)
(0.112295 0.000181295 3.32432e-23)
(0.112283 -0.000256439 0)
(0.111446 -0.000269816 -9.06898e-24)
(0.110986 -0.00028556 0)
(0.110504 -0.000301975 4.75037e-24)
(0.109996 -0.000321998 -7.09711e-24)
(0.109471 -0.000340757 4.80969e-24)
(0.11268 0.000165736 -3.18109e-23)
(0.112669 -0.000249879 -1.11068e-24)
(0.108916 0.000242127 6.6484e-28)
(0.108912 -0.000355044 -7.37349e-24)
(0.10833 0.000254325 3.93115e-23)
(0.113043 0.000155551 2.96353e-26)
(0.11304 -0.000237235 -1.1065e-24)
(0.108329 -0.000376251 1.45571e-23)
(0.113389 0.000144918 2.97505e-23)
(0.113717 0.000135924 -2.9726e-23)
(0.113388 -0.000225702 2.23324e-24)
(0.113717 -0.000213771 4.39494e-24)
(0.107739 0.000278408 -3.82482e-23)
(0.107733 -0.0003974 -9.58803e-24)
(0.114025 0.000126204 0)
(0.114026 -0.000203093 -4.33486e-24)
(0.107109 0.000292175 4.74393e-27)
(0.107105 -0.00041291 -4.75582e-27)
(0.114316 0.000117846 0)
(0.114317 -0.000192207 0)
(0.106453 0.00030222 0)
(0.106449 -0.000431988 0)
(0.11459 0.000108737 0)
(0.114591 -0.000182574 2.0699e-24)
(0.105771 0.0003123 -1.99882e-23)
(0.105767 -0.000449799 -4.87397e-27)
(0.114847 0.000100865 1.08394e-25)
(0.114849 -0.000172754 -2.21052e-24)
(0.105064 0.00032028 2.00837e-23)
(0.105059 -0.000469231 0)
(0.115089 9.23903e-05 0)
(0.11509 -0.000163942 0)
(0.104332 0.000328717 -1.27365e-24)
(0.104327 -0.000486134 2.1872e-23)
(0.115316 8.50345e-05 1.33418e-23)
(0.115317 -0.000154804 0)
(0.103576 0.000334401 -1.26139e-25)
(0.103571 -0.000503137 -2.07022e-23)
(0.115529 7.70283e-05 -1.99451e-23)
(0.11553 -0.000146722 -5.78383e-24)
(0.102783 0.000331017 2.1135e-23)
(0.10278 -0.000519687 0)
(0.115728 7.03299e-05 6.56217e-24)
(0.115731 -0.000137258 3.85632e-24)
(0.101968 0.000335263 -1.07146e-23)
(0.101966 -0.000539328 2.17269e-23)
(0.115914 6.47669e-05 -2.61512e-23)
(0.115921 -0.000125533 2.94748e-23)
(0.101103 0.000320705 1.10573e-23)
(0.10111 -0.00056394 3.50121e-25)
(0.116091 5.99991e-05 0)
(0.116097 -0.000115387 1.40292e-23)
(0.100212 0.000307196 -2.22619e-23)
(0.100225 -0.000596722 4.45336e-23)
(0.116263 5.29623e-05 0)
(0.116264 -0.000108491 0)
(0.101238 0.0012004 -1.09411e-23)
(0.100347 0.00121075 -4.43143e-23)
(0.0992784 0.000285743 0)
(0.0993081 -0.000642741 -2.27027e-23)
(0.102912 0.00116493 -6.85771e-24)
(0.102087 0.00118515 1.3473e-24)
(0.10445 0.00110488 0)
(0.103688 0.00113604 -2.21161e-23)
(0.10588 0.00103565 -4.25075e-26)
(0.105178 0.00107098 0)
(0.107207 0.000961583 0)
(0.106557 0.000999118 0)
(0.108436 0.00087792 0)
(0.107833 0.000922103 0)
(0.109545 0.000797507 9.49894e-24)
(0.108998 0.00083688 2.40222e-24)
(0.110567 0.000727155 -9.14021e-24)
(0.110072 0.00076142 -9.49493e-24)
(0.111493 0.000662487 1.61362e-23)
(0.111038 0.000690005 2.06738e-23)
(0.112337 0.000601885 0)
(0.111924 0.000634513 0)
(0.113086 0.000540133 -7.02946e-26)
(0.112722 0.00057063 0)
(0.113754 0.000480066 0)
(0.113429 0.000509716 0)
(0.114348 0.00042343 0)
(0.11406 0.000451216 0)
(0.114874 0.000370973 0)
(0.114619 0.000396631 0)
(0.115339 0.000322746 0)
(0.115114 0.000346296 0)
(0.115748 0.000278672 0)
(0.11555 0.000300178 0)
(0.11611 0.000232978 -1.06695e-23)
(0.115933 0.000257899 0)
(0.116276 0.000211743 -3.44093e-24)
(0.116421 4.48278e-05 3.35609e-24)
(0.116422 -0.00010331 -3.32817e-24)
(0.115937 -0.000305696 0)
(0.116278 -0.000267264 -1.36673e-23)
(0.116112 -0.000285252 -7.05218e-24)
(0.115549 -0.000350559 1.93945e-24)
(0.115749 -0.00032797 -7.58024e-24)
(0.115112 -0.00039701 6.30541e-26)
(0.115337 -0.000373827 0)
(0.114616 -0.000446587 0)
(0.114871 -0.000421125 0)
(0.114054 -0.000501521 0)
(0.114344 -0.000473329 0)
(0.113421 -0.000562283 0)
(0.113747 -0.000531102 8.38259e-30)
(0.11271 -0.000629709 7.11882e-26)
(0.113076 -0.000595032 0)
(0.11192 -0.000698509 0)
(0.112324 -0.000664772 0)
(0.111039 -0.000770335 0)
(0.111489 -0.00073389 0)
(0.110061 -0.000851309 0)
(0.110562 -0.000807939 -4.79553e-24)
(0.108987 -0.000941185 1.27289e-24)
(0.109535 -0.000899214 -6.21271e-24)
(0.107819 -0.00103772 0)
(0.10842 -0.000986538 -5.07084e-24)
(0.106544 -0.00113028 0)
(0.107195 -0.00108419 0)
(0.105165 -0.00122173 0)
(0.105868 -0.00117614 0)
(0.10368 -0.00130964 0)
(0.104437 -0.00126626 0)
(0.102086 -0.00139282 -5.61079e-24)
(0.102899 -0.00135007 0)
(0.100386 -0.00149003 -2.27851e-23)
(0.101252 -0.00143577 -5.64577e-24)
(0.0994837 -0.00154886 2.32092e-23)
(0.0994246 0.00122178 4.39488e-23)
(0.116434 0.000192908 6.72562e-24)
(0.116434 -0.000250522 -1.3124e-23)
(0.0983491 -0.000701247 0)
(0.0985529 -0.00162332 0)
(0.0984726 0.00123244 0)
(0.0983145 0.000255465 0)
(0.101511 0.0020625 0)
(0.0997521 0.00215322 1.09908e-23)
(0.100646 0.00210648 1.11017e-23)
(0.103157 0.00196034 1.40803e-23)
(0.102348 0.00201415 -2.81528e-24)
(0.10467 0.00184184 4.34083e-26)
(0.103928 0.00190215 0)
(0.106077 0.00171915 0)
(0.105386 0.0017809 0)
(0.107381 0.00159394 0)
(0.106742 0.00165677 0)
(0.108585 0.00146879 0)
(0.107995 0.00153081 0)
(0.109686 0.00134364 0)
(0.109147 0.00140711 0)
(0.110688 0.00122552 -3.82696e-26)
(0.110196 0.00128553 9.89149e-24)
(0.111594 0.00110915 -3.65642e-26)
(0.111156 0.0011649 -1.92295e-23)
(0.11242 0.000995929 0)
(0.112017 0.00105149 0)
(0.113159 0.00089091 3.51049e-26)
(0.1128 0.000942504 0)
(0.113817 0.000792381 0)
(0.113497 0.000840839 0)
(0.114402 0.000700574 0)
(0.114118 0.000745592 0)
(0.114921 0.000615971 0)
(0.114669 0.000657353 0)
(0.115378 0.000538635 0)
(0.115157 0.000576396 0)
(0.115781 0.000468043 0)
(0.115586 0.000502595 0)
(0.116138 0.00039928 7.28901e-24)
(0.115965 0.000433753 0)
(0.11657 3.8231e-05 0)
(0.11658 0.000175565 6.55994e-24)
(0.116456 0.000337699 0)
(0.116301 0.000367451 7.0933e-24)
(0.116303 -0.000424533 1.41302e-23)
(0.116455 -0.000397408 3.46406e-24)
(0.116579 -0.000236423 2.70066e-23)
(0.116569 -9.77809e-05 0)
(0.115966 -0.000486031 0)
(0.116139 -0.000454122 -2.13364e-23)
(0.115584 -0.000554442 6.10726e-26)
(0.115781 -0.000518898 7.62635e-24)
(0.115152 -0.000627468 -6.30538e-26)
(0.115375 -0.000590201 0)
(0.114663 -0.000707764 0)
(0.114915 -0.000666586 0)
(0.11411 -0.000796577 0)
(0.114395 -0.000751075 0)
(0.113487 -0.00089435 0)
(0.113808 -0.000844318 -8.38256e-30)
(0.112788 -0.00100136 -1.42312e-25)
(0.113147 -0.000946704 0)
(0.112008 -0.00111591 0)
(0.112408 -0.00105794 0)
(0.11114 -0.00123826 2.41738e-24)
(0.111585 -0.001176 0)
(0.110182 -0.00136577 0)
(0.110673 -0.00129925 -2.40729e-24)
(0.109128 -0.00150383 5.07678e-24)
(0.109664 -0.0014353 5.03312e-24)
(0.107975 -0.00164434 0)
(0.108565 -0.0015737 0)
(0.106721 -0.00178747 0)
(0.107361 -0.00171574 0)
(0.105365 -0.00193098 0)
(0.106056 -0.00185928 0)
(0.103906 -0.00207319 0)
(0.104648 -0.00200226 0)
(0.102343 -0.00221321 8.97628e-26)
(0.103138 -0.0021434 0)
(0.100679 -0.00235025 -9.11748e-26)
(0.101525 -0.00228235 0)
(0.0989038 -0.00251544 -2.38728e-23)
(0.0998032 -0.00243048 2.38618e-23)
(0.0988287 0.00219838 2.23877e-23)
(0.0975988 -0.0017089 0)
(0.0979759 -0.00261363 -4.85743e-23)
(0.0973747 -0.000765361 0)
(0.116599 0.000312372 0)
(0.1166 -0.000372011 -3.35719e-24)
(0.0974976 0.00124465 5.6793e-23)
(0.097883 0.00224386 2.27123e-23)
(0.096614 -0.00179517 1.22929e-23)
(0.0970233 -0.0027173 6.13876e-23)
(0.0973218 0.000222516 0)
(0.116488 0.000482989 2.77111e-23)
(0.116628 0.000446775 -1.36801e-23)
(0.116715 -0.000222555 -6.63912e-24)
(0.116734 -0.000347602 3.29965e-23)
(0.0984668 0.00321016 7.95404e-23)
(0.096899 0.00228935 -4.47227e-23)
(0.0965309 0.00336261 -1.99606e-22)
(0.097508 0.00327879 -4.542e-23)
(0.100253 0.00305766 2.21216e-23)
(0.0993729 0.00313631 -6.7668e-23)
(0.101933 0.00289633 -2.26191e-23)
(0.101107 0.00297829 -1.70794e-23)
(0.10352 0.00273158 -5.6289e-24)
(0.102741 0.00281646 -5.63477e-24)
(0.104994 0.00256187 -4.34083e-26)
(0.104272 0.00264759 0)
(0.106364 0.00238779 0)
(0.105692 0.00247515 0)
(0.107633 0.00221216 0)
(0.107011 0.00230006 0)
(0.108804 0.00203714 0)
(0.10823 0.00212436 0)
(0.109878 0.00186562 0)
(0.109353 0.00195081 0)
(0.110855 0.00169817 0)
(0.110378 0.00178148 0)
(0.111742 0.00153704 4.81844e-29)
(0.111311 0.00161686 0)
(0.112544 0.00138131 0)
(0.112153 0.00145812 0)
(0.113265 0.00123532 3.50443e-26)
(0.112914 0.00130707 0)
(0.113908 0.00109907 0)
(0.113596 0.00116599 0)
(0.11448 0.000972756 0)
(0.114203 0.00103466 0)
(0.114988 0.000856666 0)
(0.114742 0.00091343 0)
(0.115436 0.000750811 0)
(0.115219 0.00080248 0)
(0.11583 0.0006545 0)
(0.115639 0.000701582 0)
(0.116179 0.000564286 3.71425e-24)
(0.11601 0.00060856 -1.86974e-24)
(0.116339 0.000522491 -1.41436e-23)
(0.116705 3.34566e-05 -3.14418e-24)
(0.116733 0.000288256 1.31383e-23)
(0.116715 0.000160709 -1.00594e-23)
(0.116705 -9.48333e-05 0)
(0.116339 -0.000579708 -1.05046e-23)
(0.116629 -0.000505632 -3.02639e-23)
(0.116488 -0.000541753 2.44049e-23)
(0.116008 -0.000664334 0)
(0.116179 -0.000620367 0)
(0.115635 -0.000754258 -3.81379e-29)
(0.115828 -0.000707355 0)
(0.115213 -0.000854067 0)
(0.115431 -0.000802964 0)
(0.114734 -0.000964426 -6.49621e-26)
(0.114981 -0.000907853 0)
(0.114193 -0.00108631 0)
(0.114471 -0.00102391 0)
(0.113583 -0.00122004 0)
(0.113897 -0.0011517 0)
(0.1129 -0.00136555 7.11344e-26)
(0.113251 -0.00129136 0)
(0.112138 -0.00152179 7.31516e-26)
(0.112529 -0.00144243 0)
(0.111292 -0.00168869 0)
(0.111726 -0.00160392 0)
(0.110356 -0.00186441 0)
(0.110835 -0.00177544 0)
(0.109328 -0.00204859 0)
(0.109853 -0.00195582 0)
(0.108204 -0.00223768 0)
(0.108778 -0.00214238 0)
(0.106982 -0.00243074 -8.36256e-26)
(0.107605 -0.00233393 0)
(0.105661 -0.00262492 0)
(0.106334 -0.00252785 0)
(0.104241 -0.00281801 0)
(0.104964 -0.00272172 0)
(0.102722 -0.00300811 -1.71972e-28)
(0.103494 -0.00291352 0)
(0.101105 -0.00319325 2.01478e-28)
(0.101926 -0.00310145 0)
(0.0993939 -0.00338284 9.42544e-26)
(0.10026 -0.00328456 0)
(0.0975849 -0.00360041 -4.96023e-23)
(0.0984999 -0.00348725 1.21914e-23)
(0.0960501 -0.00281705 1.24848e-23)
(0.0966608 -0.00371795 2.47965e-23)
(0.096498 0.00124963 -2.22305e-23)
(0.096367 -0.000832742 -2.38084e-23)
(0.11676 0.000413185 3.34517e-24)
(0.116761 -0.00047326 2.37799e-23)
(0.0958572 0.00231223 2.75695e-24)
(0.0956064 -0.00188892 0)
(0.0953121 0.00328515 3.05967e-22)
(0.095721 -0.00383232 3.81079e-23)
(0.0950714 -0.00291804 5.09048e-23)
(0.0962614 0.00460763 -5.06805e-22)
(0.0956994 0.00480142 9.2601e-23)
(0.096325 0.000193715 0)
(0.0975328 0.00434794 5.10116e-23)
(0.0968035 0.00450718 2.61098e-23)
(0.0992168 0.00412331 4.60419e-23)
(0.0983454 0.00422414 -7.01939e-23)
(0.100905 0.00391416 -2.29049e-23)
(0.100075 0.00402237 -1.14239e-23)
(0.102498 0.0036996 1.14669e-23)
(0.101713 0.00380675 1.16297e-23)
(0.104006 0.00347969 0)
(0.103261 0.00358955 -2.29022e-26)
(0.105419 0.00325851 0)
(0.104725 0.00336951 0)
(0.106737 0.00303505 4.22413e-26)
(0.10609 0.00314697 0)
(0.10796 0.00281088 0)
(0.10736 0.00292296 0)
(0.109089 0.00258804 0)
(0.108536 0.00269913 0)
(0.110126 0.00236929 0)
(0.109619 0.00247805 0)
(0.111072 0.00215642 3.8107e-26)
(0.11061 0.00226207 0)
(0.11193 0.00195134 5.35794e-29)
(0.111512 0.00205282 0)
(0.112706 0.00175511 0)
(0.112328 0.00185196 0)
(0.113403 0.00157018 -7.00446e-26)
(0.113064 0.00166114 0)
(0.114027 0.00139759 0)
(0.113724 0.00148232 0)
(0.114582 0.00123785 0)
(0.114313 0.00131611 0)
(0.115075 0.00109124 0)
(0.114836 0.00116291 0)
(0.11551 0.000957723 0)
(0.115299 0.00102287 0)
(0.115894 0.000836629 0)
(0.115708 0.000895732 0)
(0.116233 0.000726235 -1.85464e-24)
(0.116069 0.000779654 0)
(0.116532 0.000625718 0)
(0.116387 0.000674594 -3.59189e-24)
(0.116796 0.00053526 -8.13024e-28)
(0.116669 0.000579228 0)
(0.116857 0.000265531 -1.33208e-23)
(0.116916 0.000496069 8.03621e-25)
(0.116883 0.000382474 6.51826e-24)
(0.116831 2.82914e-05 4.79069e-24)
(0.11684 0.000146958 -3.30682e-24)
(0.116841 -0.000209731 -1.66492e-24)
(0.116831 -9.10197e-05 1.66189e-24)
(0.116883 -0.000444107 0)
(0.116858 -0.000327349 -1.51339e-23)
(0.116669 -0.000639164 -6.8064e-24)
(0.116916 -0.000560368 -1.30063e-23)
(0.116797 -0.000597817 2.98949e-23)
(0.116386 -0.00073208 -3.57941e-24)
(0.116532 -0.000684238 0)
(0.116066 -0.000836042 0)
(0.116231 -0.000782378 0)
(0.115703 -0.000949362 -4.94177e-29)
(0.11589 -0.000891229 0)
(0.115292 -0.00107523 0)
(0.115504 -0.00101068 0)
(0.114827 -0.00121475 6.49621e-26)
(0.115067 -0.00114324 0)
(0.114301 -0.00136865 0)
(0.114572 -0.0012899 0)
(0.11371 -0.00153718 0)
(0.114014 -0.00145111 0)
(0.113047 -0.00172009 0)
(0.113388 -0.00162689 0)
(0.112309 -0.00191658 -9.35251e-29)
(0.112688 -0.00181672 0)
(0.111489 -0.00212591 0)
(0.111909 -0.00201973 0)
(0.110584 -0.0023464 0)
(0.111047 -0.00223482 0)
(0.10959 -0.00257647 0)
(0.110098 -0.00246051 0)
(0.108504 -0.00281324 0)
(0.109058 -0.00269409 0)
(0.107324 -0.00305452 8.36256e-26)
(0.107926 -0.00293353 0)
(0.106051 -0.00329733 0)
(0.106699 -0.00317593 0)
(0.104682 -0.00353898 0)
(0.105378 -0.00341847 0)
(0.10322 -0.00377697 -8.95823e-26)
(0.103963 -0.00365858 0)
(0.101667 -0.0040088 9.14305e-26)
(0.102455 -0.00389383 0)
(0.100025 -0.00423414 -9.31894e-26)
(0.100856 -0.00412216 0)
(0.0983036 -0.00446222 1.22459e-23)
(0.0991713 -0.00434435 -2.41619e-23)
(0.0965284 -0.00470913 -1.23265e-23)
(0.0974193 -0.00458281 2.50763e-23)
(0.0947601 -0.00394018 3.39524e-25)
(0.0956166 -0.00483029 2.52773e-23)
(0.0954681 0.00123287 -2.28059e-23)
(0.0953499 -0.000884788 0)
(0.0948127 0.00227419 -2.19905e-22)
(0.0945885 -0.00195726 0)
(0.116842 0.000657876 -3.33916e-24)
(0.116958 0.00060929 2.44614e-24)
(0.116998 -0.0004168 -1.27553e-23)
(0.117029 -0.000523372 -1.44506e-23)
(0.0941818 0.00319329 -2.15021e-22)
(0.0940728 -0.00301333 -5.14027e-23)
(0.0947602 0.00473326 0)
(0.0971688 0.00546544 -5.87225e-23)
(0.0937892 -0.00404527 -2.52112e-23)
(0.0946878 -0.0049439 3.82105e-23)
(0.0963565 0.00548796 1.17904e-22)
(0.095302 0.000163616 0)
(0.0985403 0.00521119 0)
(0.0978337 0.00534913 -5.23156e-23)
(0.100104 0.00496356 0)
(0.0993084 0.00508808 0)
(0.101676 0.00471041 0)
(0.100896 0.00483663 1.18353e-23)
(0.103171 0.00445376 0)
(0.102432 0.00458295 0)
(0.104594 0.00419067 0)
(0.103892 0.00432261 0)
(0.105936 0.0039243 0)
(0.105276 0.00405797 0)
(0.107191 0.00365515 -4.22413e-26)
(0.106574 0.00378996 0)
(0.108358 0.00338528 0)
(0.107785 0.00352018 0)
(0.109437 0.00311716 0)
(0.108908 0.00325084 0)
(0.110429 0.0028537 0)
(0.109943 0.0029847 0)
(0.111335 0.00259747 -7.10373e-29)
(0.110892 0.00272458 0)
(0.112158 0.00235076 6.38887e-29)
(0.111756 0.00247279 0)
(0.112902 0.00211533 0)
(0.11254 0.00223152 0)
(0.113572 0.00189328 5.26483e-29)
(0.113246 0.00200254 0)
(0.114172 0.00168598 0)
(0.113881 0.00178774 0)
(0.114707 0.00149418 0)
(0.114447 0.00158813 0)
(0.115182 0.00131825 0)
(0.114951 0.00140424 0)
(0.115601 0.00115813 0)
(0.115398 0.00123624 0)
(0.115972 0.00101329 0)
(0.115793 0.00108388 0)
(0.116299 0.000882635 0)
(0.11614 0.000946275 0)
(0.116587 0.000763925 3.55819e-24)
(0.116448 0.00082103 3.64643e-24)
(0.116719 0.000708815 -6.81842e-24)
(0.116972 0.000244627 -6.52754e-24)
(0.117028 0.000460306 0)
(0.116997 0.000353121 -6.59433e-24)
(0.116947 2.3723e-05 0)
(0.116955 0.000134887 6.66178e-24)
(0.116956 -0.00019855 9.9446e-24)
(0.116947 -8.77704e-05 -3.36126e-24)
(0.116973 -0.000307873 -1.95505e-23)
(0.116718 -0.00076988 3.42895e-24)
(0.116958 -0.000671231 1.2719e-23)
(0.116842 -0.000720895 0)
(0.116446 -0.000879872 -7.11863e-24)
(0.116587 -0.000823485 7.14216e-24)
(0.116137 -0.00100267 0)
(0.116296 -0.000940015 0)
(0.115787 -0.00113841 -6.04577e-29)
(0.115967 -0.00106871 0)
(0.11539 -0.00128951 0)
(0.115594 -0.00121198 0)
(0.114941 -0.00145706 0)
(0.115172 -0.00137119 0)
(0.114434 -0.0016417 0)
(0.114695 -0.00154724 0)
(0.113864 -0.0018436 0)
(0.114157 -0.00174052 0)
(0.113227 -0.00206245 7.08834e-26)
(0.113555 -0.00195097 0)
(0.112517 -0.00229741 -7.30581e-26)
(0.112882 -0.002178 0)
(0.11173 -0.00254736 0)
(0.112134 -0.00242063 0)
(0.110862 -0.00281043 0)
(0.111307 -0.00267738 0)
(0.10991 -0.00308441 0)
(0.110397 -0.00294629 0)
(0.108871 -0.00336639 0)
(0.109401 -0.00322457 0)
(0.107743 -0.00365343 0)
(0.108318 -0.00350951 0)
(0.106527 -0.00394221 0)
(0.107146 -0.00379783 0)
(0.105223 -0.00422947 -8.72307e-26)
(0.105886 -0.00408624 0)
(0.103831 -0.00451216 8.91145e-26)
(0.104537 -0.00437158 0)
(0.102355 -0.00478739 -9.09147e-26)
(0.103103 -0.0046509 0)
(0.100799 -0.00505297 0)
(0.101587 -0.0049215 0)
(0.0991691 -0.00530726 0)
(0.0999924 -0.00518139 0)
(0.0974833 -0.00555263 9.68666e-26)
(0.0983349 -0.00542995 1.23176e-23)
(0.0957455 -0.00580062 -6.40039e-23)
(0.0966163 -0.00567553 0)
(0.093757 -0.00506436 -3.79678e-23)
(0.0948635 -0.00592448 -3.05139e-25)
(0.0944295 0.00120938 7.12475e-23)
(0.0943143 -0.000928718 0)
(0.117067 0.000564184 -1.26915e-23)
(0.117067 -0.000628516 -2.45196e-23)
(0.0936799 0.00220859 -3.76984e-23)
(0.0938455 0.00413341 6.70574e-25)
(0.0931064 0.00312109 1.07666e-22)
(0.0935651 -0.00201171 0)
(0.0930569 -0.00308343 1.28538e-23)
(0.0952183 0.00546514 -1.08894e-22)
(0.0941893 0.00536151 9.38268e-23)
(0.0931326 0.00430772 -9.24974e-23)
(0.0928009 -0.00413427 -3.85423e-23)
(0.0928062 -0.00516956 2.56717e-23)
(0.0939799 -0.00605713 2.51865e-23)
(0.0942585 0.000132817 0)
(0.0981645 0.00623606 3.2768e-24)
(0.0963334 0.00635986 1.08706e-25)
(0.0972897 0.00628789 2.54809e-23)
(0.0996058 0.00600273 2.52656e-23)
(0.0988976 0.00612904 -2.53968e-23)
(0.101079 0.00573078 4.66012e-26)
(0.100331 0.00586858 0)
(0.102539 0.00545052 0)
(0.101816 0.00559142 0)
(0.10394 0.00516041 0)
(0.103247 0.00530687 0)
(0.105274 0.00486055 0)
(0.104616 0.00501144 0)
(0.106535 0.00455403 4.29943e-26)
(0.105914 0.00470803 0)
(0.107718 0.00424319 0)
(0.107137 0.00439898 0)
(0.10882 0.00393097 0)
(0.108279 0.00408707 0)
(0.109841 0.00362056 0)
(0.109341 0.00377535 0)
(0.110781 0.00331529 0)
(0.110321 0.0034671 0)
(0.111641 0.00301829 -3.80359e-26)
(0.111221 0.0031656 0)
(0.112423 0.00273233 7.42963e-29)
(0.112041 0.00287378 0)
(0.113132 0.00245971 0)
(0.112786 0.00259423 0)
(0.11377 0.00220253 6.98344e-26)
(0.113459 0.00232909 0)
(0.114342 0.00196234 0)
(0.114064 0.00208025 0)
(0.114853 0.00174012 0)
(0.114605 0.00184896 0)
(0.115306 0.00153628 0)
(0.115086 0.00163591 0)
(0.115708 0.00135081 0)
(0.115513 0.00144128 0)
(0.116063 0.0011832 0)
(0.115891 0.00126484 0)
(0.116376 0.00103243 5.80701e-26)
(0.116225 0.00110579 0)
(0.116653 0.000896608 -3.57373e-24)
(0.116519 0.000962949 0)
(0.116897 0.000773498 3.3938e-24)
(0.116778 0.000833286 0)
(0.117112 0.000664284 3.22896e-24)
(0.117007 0.000717567 -3.30648e-24)
(0.117132 0.000425966 6.38165e-24)
(0.11721 0.000614997 0)
(0.117169 0.000522778 9.50113e-24)
(0.117078 0.00022587 0)
(0.117102 0.000326563 0)
(0.117054 1.94767e-05 0)
(0.117062 0.000123188 0)
(0.117063 -0.000188041 0)
(0.117055 -8.45954e-05 0)
(0.117103 -0.000391656 1.29998e-23)
(0.117079 -0.000290598 3.22845e-24)
(0.117168 -0.000588838 3.19273e-24)
(0.117132 -0.000491004 2.5459e-23)
(0.117008 -0.000782174 1.66123e-23)
(0.11721 -0.000684251 3.17584e-24)
(0.117112 -0.00073112 -6.46016e-24)
(0.116778 -0.000895532 3.41604e-24)
(0.116897 -0.000837141 -2.04805e-23)
(0.116517 -0.00102235 -5.28835e-29)
(0.116652 -0.000957002 0)
(0.11622 -0.00116304 0)
(0.116373 -0.0010907 0)
(0.115885 -0.0013203 -7.13946e-29)
(0.116058 -0.00123952 0)
(0.115504 -0.00149554 0)
(0.1157 -0.00140562 0)
(0.115074 -0.0016898 0)
(0.115296 -0.00159027 0)
(0.11459 -0.00190368 0)
(0.114839 -0.00179429 0)
(0.114046 -0.0021373 0)
(0.114326 -0.00201806 0)
(0.113438 -0.00239025 -1.41647e-25)
(0.113751 -0.00226143 0)
(0.112762 -0.00266161 0)
(0.113109 -0.00252373 0)
(0.112013 -0.00294993 0)
(0.112397 -0.00280379 0)
(0.111188 -0.0032531 0)
(0.11161 -0.00309983 0)
(0.110285 -0.00356845 0)
(0.110746 -0.00340948 0)
(0.1093 -0.00389278 -8.10386e-26)
(0.109803 -0.00372972 0)
(0.108233 -0.0042226 0)
(0.108777 -0.00405726 0)
(0.107085 -0.00455414 0)
(0.107669 -0.00438842 0)
(0.105854 -0.00488359 8.72307e-26)
(0.106479 -0.00471938 0)
(0.104544 -0.0052073 -2.92689e-28)
(0.105209 -0.0050464 0)
(0.103158 -0.00552181 1.81511e-25)
(0.103861 -0.00536593 0)
(0.1017 -0.00582396 0)
(0.102438 -0.00567464 0)
(0.100176 -0.00611067 0)
(0.100946 -0.00596931 0)
(0.0985938 -0.00637766 -4.10805e-28)
(0.0993924 -0.00624724 0)
(0.0969607 -0.00662651 0)
(0.0977821 -0.00650398 0)
(0.0953052 -0.00687989 -3.79446e-23)
(0.0961344 -0.00675175 0)
(0.0930811 -0.00617673 -2.67064e-25)
(0.094472 -0.00701191 6.42629e-23)
(0.0933366 0.00116866 0)
(0.0953919 0.00636661 1.47775e-22)
(0.0925817 0.00214153 2.5781e-23)
(0.117165 0.000762288 -3.22289e-24)
(0.117258 0.000707901 0)
(0.117262 -0.000552183 3.10684e-24)
(0.117302 -0.000639456 -6.16183e-24)
(0.0932667 -0.000967277 0)
(0.0925239 -0.00205664 0)
(0.0921643 0.00321455 0)
(0.0920281 -0.00314185 -1.26598e-23)
(0.0917978 -0.00422158 -2.54036e-23)
(0.0918429 -0.00527654 0)
(0.0921684 -0.00629149 6.51178e-23)
(0.0936235 -0.0071346 -5.18328e-23)
(0.0931913 0.000100328 0)
(0.0976785 0.00718293 -1.22341e-26)
(0.0943801 0.00633833 4.63419e-23)
(0.0959319 0.0073055 -1.65083e-22)
(0.0968108 0.00726092 4.83723e-23)
(0.0993204 0.00697931 -1.57939e-23)
(0.0985081 0.00706835 -2.52638e-23)
(0.100748 0.00673756 0)
(0.100054 0.00686885 0)
(0.102135 0.00644511 -4.6597e-26)
(0.101438 0.00659321 0)
(0.103492 0.00613987 0)
(0.10282 0.00629426 0)
(0.104793 0.00581964 0)
(0.10415 0.00598158 0)
(0.106033 0.00548645 0)
(0.105421 0.00565444 0)
(0.107207 0.00514381 -4.29943e-26)
(0.106629 0.00531613 0)
(0.10831 0.00479511 0)
(0.107768 0.00497 0)
(0.109341 0.00444416 0)
(0.108835 0.00461969 0)
(0.110297 0.00409479 0)
(0.109828 0.00426905 0)
(0.111178 0.00375088 0)
(0.110747 0.00392193 0)
(0.111986 0.00341605 3.78612e-26)
(0.111591 0.00358213 0)
(0.112723 0.00309354 8.40172e-29)
(0.112363 0.00325308 0)
(0.113391 0.00278609 0)
(0.113065 0.00293779 0)
(0.113993 0.00249599 -6.91084e-29)
(0.1137 0.00263876 0)
(0.114534 0.00222497 0)