/*--------------------------------*- C++ -*----------------------------------*\
  =========                 |
  \\      /  F ield         | OpenFOAM: The Open Source CFD Toolbox
   \\    /   O peration     | Website:  https://openfoam.org
    \\  /    A nd           | Version:  10
     \\/     M anipulation  |
\*---------------------------------------------------------------------------*/
FoamFile
{
    format      ascii;
    class       volScalarField;
    location    "34.5";
    object      p;
}
// * * * * * * * * * * * * * * * * * * * * * * * * * * * * * * * * * * * * * //

dimensions      [0 2 -2 0 0 0 0];

internalField   nonuniform List<scalar> 
6397
(
0.295768
0.285336
0.0108867
0.00977182
-0.00262387
-7.75691e-05
0.502184
0.26358
-0.405419
-0.352835
0.273548
0.141147
0.00177359
0.00229976
-0.00406651
-0.632635
-0.610292
-0.574652
0.839968
0.79126
0.750218
-0.340686
-0.305874
-0.295453
0.00294501
0.00281234
0.00364385
-0.128468
-0.116329
-0.115443
-0.109326
0.0125056
0.0154334
0.00762032
0.0170612
0.0204378
0.0158137
0.0191485
0.0222609
0.0208949
0.0182062
0.0212604
-0.117248
-0.0266491
-0.0273559
0.00108342
-0.0124596
-0.0113636
0.0233906
0.0289503
0.0265154
0.0298053
0.0308347
0.291929
0.271074
0.216925
0.228193
0.0612469
-0.068813
-0.0674646
-0.0744305
-0.0849037
-0.100919
-0.12224
-0.147138
-0.171678
-0.188838
-0.192832
-0.0690772
-0.0700418
-0.0733583
-0.0689579
-0.0731007
-0.0816377
-0.0950645
-0.112671
-0.13266
-0.151085
-0.163123
-0.162748
-0.0821057
-0.0770476
-0.179798
-0.149917
-0.0952374
-0.0880378
-0.154072
-0.12772
-0.111613
-0.1021
-0.124459
-0.104129
-0.128414
-0.142911
-0.0987948
-0.083893
-0.115082
-0.152041
-0.134389
-0.0822196
-0.0968425
-0.0662208
-0.0720217
-0.0664399
-0.0643611
-0.0829731
-0.0726812
-0.111351
-0.0966238
-0.131932
-0.124454
-0.116714
-0.129106
-0.0807228
-0.0992303
-0.0658925
-0.175006
-0.108554
-0.140624
-0.215876
-0.203847
-0.184154
-0.207876
-0.125111
-0.153833
-0.0830989
-0.100744
-0.0641371
-0.0708487
-0.0624978
-0.0613719
-0.0762373
-0.0674041
-0.0995406
-0.0874393
-0.152496
-0.136173
-0.16345
-0.056804
-0.0704699
-0.111252
-0.0838729
-0.0820996
-0.0525942
-0.0412205
-0.0399765
-0.0930897
-0.154438
-0.168276
-0.0940899
-0.0797946
-0.113428
-0.135137
-0.0771238
-0.0932556
-0.0588373
-0.0657987
-0.055274
-0.0554242
-0.0658255
-0.0587737
-0.0860384
-0.0756036
-0.0977537
-0.094589
-0.085533
-0.0954457
-0.0567443
-0.0713154
-0.0464265
-0.186247
-0.148128
-0.225207
-0.215301
-0.185677
-0.21345
-0.121464
-0.152882
-0.0773856
-0.0964559
-0.0565412
-0.0646868
-0.0520605
-0.0527406
-0.0614209
-0.0551095
-0.0798225
-0.0703086
-0.0885066
-0.155918
-0.138855
-0.171678
-0.166724
-0.0622019
-0.0676906
-0.0626104
-0.0256185
-0.0263087
-0.0424403
-0.0528788
-0.0513403
-0.0487665
-0.0348049
-0.115095
-0.091979
-0.163349
-0.166976
-0.159074
-0.0705299
-0.0695168
-0.06786
-0.152142
-0.165507
-0.107816
-0.131195
-0.0689142
-0.0861653
-0.0482531
-0.056643
-0.0413384
-0.0434429
-0.0466757
-0.0425588
-0.0605622
-0.0534179
-0.0679452
-0.0664364
-0.0562184
-0.0649186
-0.0343941
-0.0450259
-0.028058
-0.106136
-0.074356
-0.185317
-0.145677
-0.221433
-0.213506
-0.177706
-0.207328
-0.112403
-0.143836
-0.0683853
-0.087265
-0.0470567
-0.0554699
-0.0406599
-0.0424335
-0.0458366
-0.041875
-0.0604333
-0.0529487
-0.0662515
-0.150949
-0.135605
-0.160137
-0.0298539
-0.0581466
-0.0599508
-0.0231179
-0.0408721
-0.049708
-0.058722
-0.147305
-0.142302
-0.108633
-0.0877511
-0.0489602
-0.0490467
-0.158499
-0.149191
-0.0376466
-0.0509024
-0.0633668
-0.0688289
-0.0619302
-0.142635
-0.156351
-0.0977535
-0.121355
-0.0581273
-0.0759537
-0.036162
-0.0452692
-0.0264476
-0.0300486
-0.0273804
-0.025574
-0.0360018
-0.0313201
-0.0399076
-0.0394427
-0.0296484
-0.0364838
-0.0150051
-0.0215398
-0.01113
-0.0116342
-0.0165814
-0.0125868
-0.0360281
-0.0240028
-0.0361649
-0.00391742
-0.0180097
-0.0930225
-0.0604377
-0.171876
-0.132732
-0.20459
-0.198725
-0.159301
-0.188523
-0.0967449
-0.126402
-0.0559305
-0.0733647
-0.0358405
-0.0438838
-0.0285986
-0.0310221
-0.0310321
-0.0285835
-0.0411947
-0.0355337
-0.045969
-0.13864
-0.126074
-0.145969
-0.0166223
0.00601505
-0.0709789
-0.0531532
-0.054327
-0.0633193
-0.130612
-0.0660301
-0.029579
-0.0295501
-0.038916
-0.0715918
0.0113163
-0.015696
-0.0850628
-0.0992724
-0.0767158
-0.0474508
-0.0620183
-0.141324
-0.113816
-0.131861
-0.125449
-0.138775
-0.0825057
-0.105029
-0.0447987
-0.0617223
-0.0228246
-0.0320833
-0.0115069
-0.0160958
-0.00910525
-0.00916337
-0.0135657
-0.010932
-0.0150951
-0.015417
-0.00691117
-0.0119625
0.00145996
-0.00183752
0.00209354
0.00252758
-0.00380331
-2.43838e-05
-0.0203356
-0.0105485
-0.0523797
-0.033901
0.0149448
0.0341529
0.0263246
-0.0177426
0.000328453
-0.071755
-0.041121
-0.146536
-0.109449
-0.175285
-0.171037
-0.132073
-0.159212
-0.0768208
-0.102688
-0.0416097
-0.056646
-0.0239305
-0.0310976
-0.0167609
-0.0193993
-0.0168955
-0.015951
-0.0237546
-0.0198574
-0.0275216
0.0123823
0.0384626
-0.107391
-0.0757445
-0.0456945
-0.0283737
-0.0630905
-0.0448867
-0.0984277
-0.0818685
-0.122582
-0.112558
-0.126886
-0.127572
-0.108295
-0.120476
-0.0923164
-0.057132
-0.0740612
-0.0431934
-0.0930496
-0.0189585
-0.116024
0.0409101
0.0116124
-0.136165
-0.102862
-0.143533
-0.0930117
-0.0740485
-0.0692309
-0.117092
-0.109199
-0.101586
-0.114331
-0.0633608
-0.0835506
-0.0295228
-0.0448108
-0.00885391
-0.0177384
0.00290805
-0.00208402
0.00734973
0.0060754
0.00579073
0.00697185
0.00576128
0.0050562
0.0113989
0.00821628
0.0149204
0.0139078
0.0134208
0.0145976
0.00757132
0.0112314
-0.00580115
0.00184616
-0.0296024
-0.016097
-0.0643504
-0.0459755
0.0540888
0.0648496
0.0602646
0.034358
0.045457
0.00522739
0.0209857
-0.0442783
-0.0159822
-0.113276
-0.0791656
-0.137735
-0.135075
-0.0997354
-0.12292
-0.0548323
-0.0756395
-0.0265935
-0.0386923
-0.0120449
-0.0180105
-0.00564056
-0.00812753
-0.00459127
-0.00445963
-0.00853924
-0.00619212
-0.0135719
-0.0115088
-0.0129196
-0.0134157
-0.0115667
-0.0597414
-0.027169
-0.0441369
-0.0876743
-0.0745726
-0.105407
-0.0983414
-0.105516
-0.108099
-0.0859611
-0.0981424
0.043377
0.0681082
-0.132074
-0.083293
-0.0550962
-0.0712426
-0.0669693
-0.0932147
-0.052303
-0.123946
-0.0239771
-0.156204
0.0119305
-0.178853
0.0680757
0.0466856
-0.180633
-0.0992628
-0.156395
0.0793943
0.0645175
0.0731308
-0.106965
-0.0515825
-0.0541952
-0.0384451
-0.0387636
-0.0254542
-0.0842289
-0.0700866
-0.0539967
-0.0885595
-0.0829124
-0.0747525
-0.0856181
-0.042081
-0.059014
-0.0135418
-0.0265165
0.00471121
-0.00328999
0.0159125
0.0110259
0.0211471
0.0193058
0.0214321
0.0216175
0.0223593
0.0215136
0.0253302
0.0239148
0.0254718
0.0258819
0.0229224
0.0244174
0.0173657
0.0207029
0.0066937
0.012674
-0.0105058
-0.0011195
-0.0327002
-0.0211559
-0.0432125
0.0819663
0.082328
0.0732306
0.07874
0.0563151
0.0654739
0.0308189
0.0448711
-0.0148808
0.0115413
-0.0770341
-0.0470274
-0.0962318
-0.0948726
-0.0661554
-0.0840004
-0.0330108
-0.0482742
-0.0120975
-0.0211281
-0.000885274
-0.00554752
0.00437851
0.00226286
0.00594165
0.00560614
0.00367574
0.00524788
-5.5026e-05
0.00146832
-6.06128e-05
-0.00067448
0.00109038
-0.0286022
-0.0149516
-0.0554785
-0.042422
-0.0778024
-0.0675436
-0.0898616
-0.0855131
-0.0861694
-0.0901542
-0.0665431
-0.078013
-0.0529789
-0.082272
-0.120731
-0.0627452
-0.163201
-0.0266501
-0.200965
0.0155919
-0.219885
0.0477546
-0.208082
0.0644749
0.0572632
-0.16437
-0.0474069
-0.0989184
0.0676211
0.0536541
0.0568953
-0.028558
-0.0100631
0.00258452
-0.0249444
-0.0131415
-0.0220789
-0.0119906
-0.106058
-0.0462192
-0.0336447
-0.0596687
-0.0557259
-0.0470387
-0.056444
-0.020382
-0.0338523
0.00186325
-0.00830253
0.0169134
0.0101572
0.0268432
0.0224299
0.0320803
0.0300616
0.0335792
0.0330739
0.0347378
0.0340606
0.0352598
0.0352626
0.0335201
0.0346096
0.0305452
0.0321765
0.0254341
0.0283625
0.0170205
0.0216639
0.00509047
0.0113522
-0.00895002
-0.00206823
-0.0174743
-0.0147762
-0.0166436
0.0837787
0.0766896
0.0910125
0.0887998
0.0872195
0.0902654
0.0753923
0.082212
0.0537607
0.0662867
0.011051
0.0355419
-0.0413112
-0.0170009
-0.055235
-0.0543768
-0.0349353
-0.0467882
-0.0131268
-0.0232042
0.00107785
-0.00513831
0.00913575
0.00572794
0.013124
0.0114931
0.0146764
0.0141637
0.0135928
0.0144737
0.0110745
0.0122746
0.0105819
0.0103791
0.0107123
-0.00605077
0.00426612
-0.0295302
-0.0175975
-0.0523079
-0.0412057
-0.0700626
-0.0622261
-0.0770293
-0.0751666
-0.0701046
-0.0753151
-0.0507251
-0.0616827
-0.0380873
-0.0998885
-0.154668
-0.0702051
-0.204677
-0.0240222
-0.240193
0.0208979
-0.245856
0.0443454
-0.212349
0.0468966
-0.149623
0.0443466
0.040536
-0.075934
0.0203553
-0.00479232
-0.00457741
-0.132057
-0.00662189
0.00591781
0.00131489
-0.0238168
-0.0148518
-0.0330944
-0.0304815
-0.0210526
-0.0292661
0.00019116
-0.0101873
0.0160905
0.00890405
0.0275462
0.0222198
0.0358633
0.0321089
0.0406751
0.0386986
0.0427054
0.0419175
0.0432563
0.0431544
0.0420865
0.0429056
0.0396034
0.0409268
0.0364694
0.0381509
0.0318713
0.0343974
0.0252978
0.0288454
0.0168155
0.0212245
0.00827361
0.0122769
0.00482235
0.00552849
0.0127422
0.007224
0.0310855
0.0212543
0.068893
0.0469862
0.0587214
0.0849198
0.0777128
0.0938457
0.090346
0.0943704
0.0951239
0.0870978
0.0916844
0.0689805
0.0799033
0.0321191
0.0527858
-0.00770299
0.0101472
-0.0189064
-0.0173275
-0.00854086
-0.0147947
0.00376624
-0.00205192
0.0124592
0.00857574
0.0177721
0.0154778
0.0205351
0.0193961
0.0217456
0.0212858
0.0213883
0.0217809
0.0197738
0.0206086
0.0185736
0.0189812
0.0181061
0.0183279
0.0172862
-0.0100782
0.00856908
-8.27405e-05
-0.0311905
-0.0204043
-0.0514371
-0.0417854
-0.0651217
-0.0594608
-0.0676047
-0.0679311
-0.0578132
-0.0641395
-0.0384904
-0.0490817
-0.0150391
-0.0268249
0.0059699
-0.0035583
0.0296682
0.0338121
0.0378156
0.0438509
-0.114753
-0.188719
0.0215257
-0.0701502
-0.23741
0.0183563
0.0146974
0.0230415
-0.0157675
-0.260317
0.0235132
-0.243255
0.0354453
-0.186508
0.0335686
-0.110526
0.024682
-0.0349024
0.0190272
0.0128056
0.0241754
0.0550627
0.054388
-0.156451
0.00691861
0.0126121
-0.00403553
0.00141193
-0.00922965
-0.00831878
0.000906921
-0.0063773
0.0182716
0.00999237
0.0293369
0.0245787
0.0371775
0.0334168
0.043504
0.0405951
0.0474339
0.0457708
0.0490817
0.0485095
0.0487434
0.0491685
0.0467955
0.0479223
0.0441069
0.0454922
0.0409485
0.042618
0.0368424
0.0390259
0.0316478
0.0343801
0.0256118
0.028683
0.0204302
0.022679
0.0192861
0.0189452
0.0255287
0.0212571
0.0388613
0.0318136
0.0519028
0.0461424
0.0487415
0.0241341
0.0369969
0.0689398
0.0593823
0.0840499
0.0771905
0.0936706
0.0896458
0.0962768
0.095838
0.0918452
0.0949549
0.0775777
0.0862999
0.0495185
0.0649329
0.0216555
0.0338078
0.0096366
0.0129328
0.011964
0.00995617
0.0173569
0.0146412
0.0218989
0.0198033
0.0249716
0.0236115
0.0266556
0.0259614
0.0273836
0.0270985
0.0272837
0.027458
0.0262447
0.0268372
0.0251231
0.0254716
0.0241625
0.0247543
0.0231412
0.00362167
0.0113103
-0.0147694
-0.00524509
-0.035096
-0.0246933
-0.0532905
-0.0449402
-0.0631894
-0.0595442
-0.0615686
-0.0638999
-0.048851
-0.0564014
-0.0289164
-0.0394633
-0.00686807
-0.0179076
0.00402322
0.00270115
0.0104285
0.0614619
0.05503
-0.120407
-0.212497
0.025873
0.029246
-0.0611306
-0.24954
-0.00652032
-0.250284
0.0192433
-0.207914
0.0219658
-0.134598
0.0168624
-0.0551992
0.00561045
0.0105901
-0.00643616
0.05315
-0.00378004
-0.0149494
0.0686179
0.00545533
-0.00630612
-0.0183746
0.0130437
0.0638211
0.0546477
-0.17068
0.0182117
0.0226809
0.0117825
0.0149173
0.00970179
0.00982332
0.0183715
0.012567
0.0326957
0.0258265
0.0411086
0.0377288
0.0459592
0.0436668
0.0499411
0.0480867
0.0524525
0.0514005
0.0532224
0.0530533
0.0522193
0.0529214
0.0500005
0.0512011
0.0472994
0.0486872
0.0442247
0.0458233
0.0405915
0.0424794
0.0364031
0.0385578
0.0320091
0.0341814
0.0287148
0.030104
0.0284805
0.0280844
0.0331381
0.0300867
0.0416105
0.0370871
0.0488581
0.0460772
0.0479338
0.0496212
0.0287083
0.0171574
0.0501058
0.0398232
0.0681635
0.0595717
0.0823671
0.0757587
0.0917767
0.0877298
0.0954708
0.0943436
0.0930501
0.0950521
0.0826458
0.0890276
0.0625423
0.0735544
0.0404135
0.0509511
0.0295522
0.0338071
0.0269221
0.0275379
0.0278319
0.0271718
0.0294562
0.0286454
0.0308047
0.0301863
0.0315827
0.0312685
0.0318279
0.0317512
0.0316757
0.0318125
0.0309109
0.0313855
0.0296444
0.0302984
0.028233
0.0289597
0.0256935
0.0273614
0.0234613
-0.00220333
0.00617077
-0.0212913
-0.0114492
-0.0419837
-0.0316446
-0.0581302
-0.0510676
-0.064318
-0.0626613
-0.0586193
-0.062933
-0.0427974
-0.051711
-0.0216895
-0.0325804
-1.29098e-05
-0.0106883
0.0188862
0.0100954
0.0314355
0.0258412
-0.112992
-0.215396
0.0434937
0.0505326
0.0350035
0.0335821
0.0357577
0.0432433
0.0389756
-0.046262
-0.233254
-0.00315044
-0.211138
0.007123
-0.150349
0.00472207
-0.0693574
-0.00426523
0.0048108
-0.0171231
0.0550043
-0.0277701
0.0773515
-0.0177722
-0.00509521
-0.0130685
-0.0282171
-0.0333472
0.0761104
-0.0329554
0.0308187
0.024058
0.0344717
-0.167077
0.0318433
0.033826
0.0273817
0.0297174
0.0240749
0.0254357
0.0244784
0.0236122
0.0318366
0.0273574
0.0431756
0.0375846
0.050105
0.0473789
0.0529905
0.051779
0.0548372
0.0539902
0.0558923
0.0554818
0.0557892
0.0559991
0.0544
0.0552345
0.0521295
0.0533309
0.0494876
0.0508429
0.0465586
0.0480617
0.0433167
0.0449744
0.0398398
0.0415946
0.0365119
0.0381124
0.0342934
0.0351927
0.0343491
0.0339789
0.0374865
0.0355314
0.0427052
0.0400301
0.046041
0.0448327
0.0455589
0.0134892
0.00391338
0.0328405
0.0232031
0.0512242
0.0422683
0.0672406
0.0595701
0.0800229
0.0740347
0.0889913
0.0850204
0.0932543
0.0917298
0.0923028
0.0934517
0.0849621
0.0895178
0.0703826
0.0784211
0.0533874
0.0616618
0.0425322
0.0471999
0.0373913
0.0393933
0.0356512
0.0362512
0.035332
0.0354002
0.0354154
0.0353582
0.0354562
0.0354577
0.0352798
0.0353938
0.0349146
0.0351276
0.0342231
0.0346251
0.0330566
0.0336892
0.0315516
0.0323414
0.0287525
0.0303725
0.0266562
0.0083433
0.0148554
-0.00905706
0.000306728
-0.0304258
-0.019325
-0.0521044
-0.0416816
-0.0662859
-0.0604956
-0.0686237
-0.0690595
-0.0585872
-0.0650071
-0.0394414
-0.0498323
-0.0167595
-0.0282024
0.00483547
-0.0055886
0.0211324
0.013917
0.0266423
0.0609013
0.0362175
0.0365187
0.0328034
-0.0941215
-0.195859
-0.0342715
-0.194921
-0.0104107
-0.156847
0.0427685
-0.0108738
-0.0863064
-0.017405
-0.00423527
-0.0307731
0.0603598
-0.019481
-0.00515639
-0.00808062
-0.0236898
-0.0434801
0.0920445
-0.0368136
-0.0509927
0.0929802
-0.0466311
-0.0519917
0.075705
0.0371923
0.0237563
0.0182576
0.0274116
0.0252771
0.0230237
-0.146369
0.0375477
0.0384155
0.0380629
0.0360252
0.0368594
0.0339024
0.0348505
0.0328734
0.0330843
0.0350339
0.0334486
0.0415055
0.0382978
0.0502183
0.0458785
0.0558154
0.0535979
0.0575937
0.0569974
0.0580499
0.057889
0.0580257
0.0581006
0.057297
0.0577649
0.0557002
0.0565988
0.0534481
0.054628
0.0509
0.0522005
0.0481509
0.0495489
0.0452421
0.0467124
0.0422824
0.0437553
0.0396172
0.0408774
0.0379455
0.0386109
0.037969
0.0377196
0.0399145
0.0387272
0.0428205
0.0413838
0.0438776
0.0437859
0.04019
0.0427199
0.0310295
0.036252
0.0167774
0.0178484
0.0248192
0.00550731
-0.000515168
0.0204337
0.0126744
0.0364593
0.0284133
0.0521105
0.0444391
0.0661339
0.0593915
0.077573
0.0721679
0.0858375
0.082129
0.0902153
0.0885386
0.0901425
0.0907505
0.084845
0.0881884
0.0739359
0.079982
0.0605841
0.0672347
0.050589
0.0551296
0.044483
0.0470941
0.0413113
0.0426276
0.0397657
0.0404062
0.0389648
0.0393105
0.0384309
0.0386866
0.0379024
0.0381772
0.0372962
0.0376175
0.0365328
0.0369417
0.0354319
0.0360194
0.0338415
0.0346909
0.0313347
0.0326397
0.0273656
0.0294408
0.0248041
0.00290647
0.0110034
-0.0176708
-0.006698
-0.0426638
-0.0297953
-0.0656883
-0.0550125
-0.0780821
-0.0735522
-0.0762629
-0.078986
-0.0614299
-0.0701912
-0.0386125
-0.0506342
-0.0140725
-0.0261888
0.0073799
-0.00276792
0.0223613
0.0158292
0.0318512
0.0274394
0.0353321
-0.0738492
-0.161871
0.0107889
0.0199523
0.0145278
-0.0336834
-0.150596
0.0524585
-0.0275363
-0.105606
-0.0345073
-0.0302071
0.0315704
-0.0089196
0.00478211
0.00688837
-0.00721693
-0.0468799
0.0511652
-0.0254388
-0.0627863
0.105615
0.00746091
0.0164493
-0.0430014
-0.072967
0.116288
-0.0584642
-0.0748123
0.0970646
-0.0697952
0.0398062
0.038967
0.0400082
0.0381378
0.0255722
0.0260056
0.0395764
-0.118563
0.0393925
0.0396406
0.0387236
0.0390475
0.0381225
0.0383441
0.0387593
0.0382091
0.0415357
0.0398498
0.0473732
0.0434992
0.054521
0.0511004
0.0589051
0.0571666
0.0600569
0.0597639
0.0598209
0.0600145
0.0591662
0.0595357
0.05806
0.0586782
0.0563546
0.0572943
0.0541542
0.0552935
0.0517211
0.0529587
0.0491513
0.0504498
0.0465135
0.0478355
0.0439359
0.0452046
0.0417048
0.0427519
0.0402921
0.0408673
0.040121
0.04004
0.0411657
0.0405273
0.0424965
0.0418937
0.0422077
0.0426988
0.038337
0.0407957
0.0305054
0.0348476
0.0254351
0.00657801
0.00470074
0.0145673
0.0099416
0.0264212
0.0201671
0.0396193
0.0329583
0.0528447
0.0462873
0.0650221
0.0591344
0.0751492
0.0703626
0.0825998
0.0792327
0.086793
0.08513
0.0871734
0.0874726
0.0832123
0.0857518
0.0748263
0.079485
0.0642115
0.0695801
0.0553516
0.0595072
0.0491233
0.0519059
0.0452805
0.046961
0.0430115
0.0440032
0.0416206
0.0422422
0.0406575
0.0411083
0.0398418
0.0402468
0.0390248
0.0394424
0.0381313
0.038588
0.037029
0.0375867
0.0355079
0.036248
0.033377
0.0343159
0.0301338
0.0316876
0.0283831
0.0140599
0.0263306
0.0205038
-0.0034157
0.00598857
-0.0283073
-0.0149475
-0.0579023
-0.0429718
-0.0826823
-0.0715463
-0.0933625
-0.0901348
-0.0870012
-0.0922328
-0.0668664
-0.0782347
-0.0399416
-0.0537921
-0.0131504
-0.0261545
0.00870611
-0.0014732
0.0236475
0.0171327
0.033394
0.0288489
0.0363934
0.00375912
0.00964722
-0.0637612
-0.129742
0.0669203
-0.0470471
-0.117833
0.0108525
0.0224053
0.0279255
0.0163921
-0.0533095
-0.0702937
0.0386095
-0.00313015
-0.0673768
0.0110606
-0.0244247
-0.0847835
0.0931551
-0.00235401
0.0171991
-0.0460068
-0.0999271
0.136401
0.00409721
-0.067322
-0.104655
0.125068
-0.085641
-0.0981812
0.0403329
0.029936
-0.00281503
0.00544105
-0.0978822
0.0405557
0.0405089
0.0404644
0.0405617
0.0405393
0.0405317
0.0405127
0.0408959
0.0406059
0.0424348
0.0414629
0.0456757
0.0438249
0.0509148
0.0479247
0.0566802
0.053939
0.06019
0.0587992
0.0610308
0.060861
0.0605309
0.0608675
0.0595679
0.0600889
0.0582577
0.0589565
0.0565166
0.0574962
0.0543944
0.0554839
0.0520914
0.05326
0.0496909
0.0508989
0.0472746
0.0484789
0.0449717
0.0460977
0.0430181
0.0439332
0.0417291
0.0422739
0.0413339
0.0414173
0.0417043
0.041458
0.0420325
0.0419483
0.0409987
0.0417714
0.0373122
0.0395292
0.0307667
0.0343315
0.0225351
0.0267025
0.0150879
0.0184542
0.00210563
0.0112018
0.012544
0.0159135
0.0182544
0.016431
0.0153899
0.0223062
0.0187924
0.0315298
0.0266228
0.042328
0.0368191
0.053516
0.0479003
0.0639726
0.0588971
0.072867
0.0686553
0.0794742
0.0764767
0.0833157
0.0817631
0.0838864
0.0840214
0.080818
0.0828083
0.0742264
0.0778886
0.0657042
0.070056
0.0579647
0.0616656
0.0520206
0.0547482
0.0479562
0.0497848
0.0453014
0.0464915
0.0435369
0.0443388
0.0422677
0.0428618
0.0412232
0.0417327
0.0402333
0.0407303
0.0392026
0.0397262
0.0380173
0.0386291
0.0365844
0.0373072
0.0347061
0.0356911
0.032218
0.0337188
0.0300465
0.0311986
0.0298799
0.00992803
0.0169605
-0.0106803
0.000642272
-0.040665
-0.0244905
-0.0752833
-0.058086
-0.102217
-0.0904571
-0.11109
-0.10927
-0.0997974
-0.107739
-0.0740077
-0.0881542
-0.0426436
-0.0584837
-0.0132206
-0.0273353
0.00971253
-0.000832813
0.0250807
0.0183696
0.0347067
0.0303699
0.0390127
0.0374286
0.040715
0.0402003
0.0886579
-0.0701648
-0.113603
0.040679
0.0209066
0.034065
0.0229066
-0.0730657
-0.105258
0.010886
0.000361236
0.0499871
0.00258289
-0.0911143
-0.0531049
-0.00860381
-0.0207689
-0.113375
0.0377984
-0.0121815
0.0201162
-0.0458138
-0.131184
0.121263
-0.00926367
-0.0720266
-0.141188
0.150307
0.00074842
-0.0982051
-0.136578
0.118158
-0.119901
0.011904
0.0208764
0.0216346
0.040983
0.0497892
-0.0943334
0.0404066
0.0399027
0.0398523
0.0408108
0.0405097
0.0411656
0.0409316
0.0415853
0.0413114
0.042556
0.0419591
0.0445709
0.0433984
0.0479554
0.0460875
0.052619
0.0501417
0.0573308
0.0550986
0.0602602
0.0590826
0.0610054
0.0608528
0.0604791
0.0608381
0.0594152
0.0599922
0.0579903
0.0587488
0.0562631
0.0570905
0.0542789
0.0553043
0.0521116
0.0532101
0.0498685
0.0509943
0.0476374
0.0487456
0.0455405
0.0465627
0.0437659
0.0446
0.0425272
0.0430701
0.0419374
0.0421539
0.0418274
0.041852
0.0415488
0.0417653
0.0401566
0.0410457
0.0368382
0.0387665
0.0314985
0.0343715
0.0252062
0.0283735
0.0201012
0.0223525
0.0182764
0.0186037
0.0192827
0.0434371
0.0574147
0.0496425
0.0320576
0.037492
0.02532
0.0278174
0.0247319
0.0242434
0.0288747
0.0262842
0.0358732
0.0320088
0.0447234
0.0401143
0.0541053
0.0493822
0.0630626
0.058697
0.0707527
0.0670928
0.0765546
0.0739185
0.079968
0.0785765
0.0805786
0.0806336
0.0781301
0.0797287
0.0728424
0.0757799
0.0659063
0.0694823
0.0591865
0.0624443
0.0536941
0.0562615
0.0496594
0.0515095
0.0468363
0.0481235
0.0448508
0.0457644
0.0433715
0.0440674
0.0421494
0.0427424
0.0410188
0.0415828
0.0398785
0.0404563
0.0386567
0.0392861
0.0373036
0.0380058
0.035734
0.0365802
0.0340341
0.0349822
0.032757
0.0333515
0.0308557
0.0320814
0.00698918
0.0148593
-0.0177495
-0.00397493
-0.0534733
-0.0343435
-0.0931822
-0.073701
-0.122289
-0.109937
-0.129154
-0.128843
-0.112794
-0.123488
-0.0814082
-0.0982798
-0.0457073
-0.0634966
-0.0136922
-0.0289084
0.0105237
-0.000512557
0.0263746
0.0194583
0.0356726
0.0316309
0.0396769
0.038217
0.040811
0.0405999
0.0406742
0.0305726
-0.092703
-0.117235
0.0142328
0.0185084
0.0244842
0.0282021
0.0389936
0.00147961
0.0682096
0.00965115
-0.114461
-0.111225
-0.0120504
-0.0146427
-0.146224
-0.0502607
-0.0208574
0.0261968
-0.0423099
-0.173983
0.0527838
-0.0229945
-0.0725951
-0.186473
0.13643
-0.00152719
-0.0171305
-0.105796
-0.183761
0.143864
-0.138109
-0.16644
0.0682145
0.051736
0.0398171
-0.109084
0.0400085
0.0395876
0.0406244
0.0402727
0.0412609
0.0409149
0.0420745
0.0416273
0.0434107
0.042652
0.0456599
0.044408
0.0489954
0.0471997
0.0531224
0.0510138
0.0570718
0.0552032
0.0595923
0.0585577
0.0603375
0.0601562
0.0598951
0.0602167
0.0588554
0.0594269
0.057451
0.0581928
0.0557763
0.0566271
0.0538907
0.0548585
0.0518558
0.0528859
0.0497589
0.0508101
0.0476861
0.0487137
0.0457496
0.0466928
0.0440998
0.0448796
0.0428822
0.0434319
0.0421433
0.042458
0.0417098
0.0419122
0.041087
0.0414627
0.0396019
0.040489
0.0367317
0.0383524
0.0325376
0.0347559
0.0279135
0.0301738
0.0245762
0.0260063
0.0241057
0.0238787
0.0270315
0.0253879
0.0128864
0.02055
0.031272
0.0286655
0.0505524
0.0644814
0.0566044
0.0401618
0.0451593
0.033228
0.0360914
0.0316335
0.0317463
0.0342684
0.0325534
0.0396406
0.0366567
0.0468351
0.0430904
0.054657
0.0507181
0.0622424
0.05853
0.0688329
0.0656926
0.0738643
0.071572
0.0768397
0.0756247
0.0774111
0.0774327
0.0754082
0.0767194
0.0710886
0.0734854
0.0653406
0.0683184
0.059514
0.0623683
0.0545182
0.0568862
0.0506425
0.0524453
0.0477835
0.0491044
0.0456793
0.0466575
0.0440589
0.0448257
0.042703
0.0433606
0.0414589
0.0420759
0.0402371
0.0408513
0.0389948
0.039627
0.0377137
0.0383682
0.0363953
0.0370817
0.0351649
0.0357823
0.0340307
0.0344869
0.0319639
0.0329218
0.0186188
0.0255382
0.00451901
0.0130227
-0.0240747
-0.00799565
-0.0651251
-0.0433788
-0.109187
-0.087722
-0.13991
-0.127222
-0.144631
-0.145815
-0.123623
-0.136802
-0.0873758
-0.106588
-0.0480355
-0.0674487
-0.0139682
-0.0300271
0.0111987
-0.000203627
0.0274121
0.020344
0.0364001
0.032613
0.0401572
0.0388205
0.0408327
0.040816
0.0403868
0.00660729
0.095566
0.0176462
-0.133001
-0.138664
0.0378605
0.0745317
-0.0110052
-0.00647718
-0.176178
-0.131818
0.0355811
0.0277021
0.0370731
-0.0262473
0.0750298
0.0678844
0.037559
-0.036081
-0.220823
-0.0574883
-0.0352041
-0.0691827
-0.249028
0.0578559
-0.00227424
-0.0354451
-0.107358
-0.248015
0.138189
-0.024861
-0.149972
-0.224381
0.116797
0.00376701
0.0114231
-0.191271
0.018587
0.0403277
0.0271703
-0.141946
0.0392504
0.0388594
0.0401355
0.0397409
0.0410266
0.0405751
0.0421237
0.0415386
0.0437059
0.0428412
0.0460539
0.0447794
0.0492498
0.0475579
0.0529163
0.0511043
0.0563053
0.0547012
0.0585295
0.0575988
0.0592893
0.0590742
0.0589601
0.0592254
0.0580019
0.0585375
0.0566692
0.0573726
0.0550704
0.0558944
0.0532861
0.0541979
0.0513775
0.0523427
0.0494175
0.0503995
0.0474856
0.0484427
0.0456825
0.0465612
0.0441296
0.044868
0.0429291
0.0434826
0.0420923
0.0424711
0.0414592
0.041769
0.0406624
0.0411097
0.0392351
0.0400525
0.0368485
0.0381657
0.0336296
0.0353073
0.0304031
0.0319319
0.0284739
0.0291648
0.0290222
0.0283556
0.032295
0.0304679
0.0378344
0.0342692
0.0857639
0.081021
0.0896022
0.0701788
0.0793824
0.0566124
0.0626239
0.0467853
0.0514152
0.0397939
0.0427513
0.0374527
0.038067
0.038898
0.0378062
0.0429277
0.0406468
0.048663
0.0456511
0.0551114
0.0518512
0.0614873
0.0583525
0.0671009
0.0644227
0.0714094
0.0694425
0.0739665
0.072923
0.0744605
0.0744755
0.0727811
0.0738794
0.069215
0.0711831
0.0643361
0.0668467
0.0592776
0.0617775
0.0547613
0.0569259
0.0510995
0.0528225
0.0482779
0.0495959
0.046118
0.0471313
0.0444029
0.0452193
0.0429444
0.0436526
0.0416092
0.0422682
0.0403268
0.0409651
0.0390604
0.0396976
0.0378502
0.0384538
0.0366863
0.0372657
0.0356068
0.0361366
0.0343421
0.0349727
0.0321408
0.0334232
0.0291889
0.030852
0.018455
0.0264635
0.0240789
0.00184205
0.0114085
-0.0293484
-0.0117991
-0.0738988
-0.0504519
-0.120634
-0.0979782
-0.151882
-0.139281
-0.154521
-0.157015
-0.130022
-0.145012
-0.0904264
-0.111222
-0.0487417
-0.0691739
-0.0135212
-0.0300214
0.012001
0.000494524
0.0282047
0.0211493
0.0369439
0.0333423
0.0403835
0.0391866
0.0405321
0.0408
0.0380749
0.0396265
0.0369314
-0.00508022
0.00261132
-0.194747
-0.1776
0.0364756
0.0435524
0.0270173
-0.0261024
-0.00173921
-0.0103979
0.0904845
0.0849628
0.0564043
-0.0278882
-0.259361
-0.16382
-0.0433276
-0.062571
-0.312442
-0.0710929
-7.54658e-05
0.00702552
-0.0521806
-0.103291
-0.3323
0.0525176
-0.0494399
-0.15309
-0.309378
0.118691
-0.0327317
-0.208057
-0.259649
0.0371394
0.0265902
0.0574838
0.0455209
0.0281502
0.0126847
-0.195436
0.0382114
0.0373398
0.0393985
0.0388264
0.0405134
0.0399318
0.0418477
0.0411416
0.0436108
0.0426661
0.0459943
0.0447237
0.0489973
0.0474356
0.0522986
0.0506154
0.0552844
0.0538785
0.057277
0.0564306
0.0580369
0.0577998
0.0578068
0.0580197
0.0569427
0.0574337
0.0556909
0.0563551
0.0541833
0.0549643
0.0525028
0.0533597
0.0507158
0.0516188
0.0488853
0.0498018
0.0470845
0.0479763
0.0454023
0.0462229
0.0439376
0.0446377
0.0427646
0.0433132
0.041879
0.0422916
0.0411443
0.0415073
0.0402899
0.0407517
0.0389998
0.0397153
0.0370868
0.0381197
0.0347185
0.0359297
0.0325671
0.033555
0.031683
0.0318982
0.0330908
0.0320534
0.0365935
0.0346113
0.0431437
0.0392389
0.0503921
0.054815
0.0484266
0.044819
0.0979788
0.0946491
0.0926449
0.102806
0.100642
0.0748364
0.0832732
0.0616422
0.0676372
0.0520516
0.0565433
0.0452515
0.0482316
0.0423357
0.0433154
0.0428278
0.042236
0.0457202
0.0440321
0.0502093
0.0478207
0.055476
0.0527954
0.0607953
0.0581694
0.065537
0.0632702
0.0691898
0.0675222
0.071354
0.0704719
0.0717562
0.0717791
0.070313
0.0712533
0.0672032
0.0689449
0.0631146
0.0652546
0.0586978
0.0608979
0.0546145
0.0565897
0.0511771
0.0528104
0.0484258
0.0497234
0.0462436
0.0472759
0.0444604
0.0453142
0.0429192
0.0436687
0.0415104
0.0422037
0.040179
0.0408371
0.0389109
0.0395374
0.0377332
0.0383111
0.0366432
0.0371754
0.0355879
0.036109
0.0342839
0.0349501
0.0322691
0.0334392
0.0292919
0.0310624
0.0271279
0.0238027
0.0248464
0.0245431
0.0168449
0.0215072
-0.000859792
0.00954503
-0.0327844
-0.0149201
-0.0781263
-0.0543183
-0.125053
-0.10244
-0.155472
-0.143412
-0.156485
-0.159849
-0.13038
-0.146161
-0.0895826
-0.110879
-0.0473255
-0.0679261
-0.012038
-0.0284949
0.0132301
0.00187461
0.0290479
0.0221828
0.0373741
0.0340006
0.0404477
0.0394254
0.0400677
0.0406085
0.0375808
0.0389646
0.0346899
0.0361703
-0.0200532
0.0775385
0.0306372
0.0567082
0.0680807
0.0690644
0.0100332
-0.0181521
-0.276988
-0.232032
-0.0449723
-0.054072
-0.358697
-0.201872
0.0583342
0.0620899
0.00622272
0.0182553
0.0473629
0.0400639
0.0952086
0.104603
0.0224299
0.0247203
0.0224115
0.0330351
0.0338223
0.0319852
-0.0643305
-0.0957546
-0.410334
-0.0883528
-0.028839
-0.0187548
-0.0720129
-0.147809
-0.411708
0.0322976
-0.0405818
-0.0642444
0.0110111
0.041543
-0.213182
-0.36114
0.0762035
-0.284912
-0.00582947
-0.267692
0.0349984
0.034031
0.036855
0.0359101
0.0383746
0.0376645
0.0397661
0.0390581
0.0413288
0.0405129
0.0432472
0.0422348
0.0456507
0.0443888
0.0484997
0.0470351
0.0515082
0.0500031
0.0541607
0.0529127
0.0559549
0.055185
0.0566912
0.0564485
0.0565266
0.0567018
0.0557433
0.056194
0.0545719
0.055196
0.0531487
0.053885
0.0515684
0.0523731
0.0498969
0.0507405
0.0481913
0.0490445
0.0465178
0.0473462
0.0449539
0.0457173
0.0435807
0.0442395
0.042454
0.0429858
0.0415638
0.0419842
0.0408008
0.0411774
0.0399681
0.0404067
0.0388567
0.0394567
0.0373791
0.0381586
0.035729
0.0365499
0.0344589
0.0349991
0.0344231
0.034234
0.0363741
0.0351333
0.0403814
0.0381202
0.0474182
0.0434053
0.058402
0.0524217
0.0534622
0.105699
0.097951
0.10211
0.110467
0.108503
0.113253
0.11204
0.0785913
0.0864416
0.0658628
0.0717351
0.0563961
0.0607921
0.049745
0.0527004
0.0464138
0.0476668
0.0461276
0.0459518
0.0480612
0.0468706
0.0515033
0.0496409
0.0557523
0.0535728
0.0601445
0.0579674
0.0641118
0.0622107
0.0671829
0.0657804
0.0689943
0.068259
0.069302
0.0693389
0.0680404
0.0688565
0.0653824
0.0668571
0.0618206
0.0636799
0.0579232
0.0598766
0.0542134
0.0560223
0.0509844
0.0525321
0.0483086
0.0495817
0.0461155
0.0471611
0.0442754
0.0451611
0.0426632
0.0434482
0.0411916
0.041914
0.0398204
0.0404946
0.0385502
0.0391716
0.0373906
0.0379568
0.036325
0.0368477
0.0352555
0.0357968
0.0339207
0.0346351
0.0319541
0.0330436
0.0288993
0.0306428
0.0269074
0.0206995
0.0219391
0.013757
0.0180465
-0.00281947
0.00706464
-0.0333996
-0.0163472
-0.0767342
-0.0539654
-0.121335
-0.0999236
-0.149733
-0.138582
-0.14995
-0.153529
-0.124316
-0.139726
-0.0847014
-0.105372
-0.0437732
-0.0637593
-0.00958231
-0.025549
0.0148812
0.00389353
0.0300197
0.0234835
0.0377571
0.034679
0.0403473
0.0395383
0.0395884
0.0402621
0.0371031
0.0384641
0.0354898
-0.039029
0.0921932
-0.0120881