/*--------------------------------*- C++ -*----------------------------------*\
  =========                 |
  \\      /  F ield         | OpenFOAM: The Open Source CFD Toolbox
   \\    /   O peration     | Website:  https://openfoam.org
    \\  /    A nd           | Version:  10
     \\/     M anipulation  |
\*---------------------------------------------------------------------------*/
FoamFile
{
    format      ascii;
    class       surfaceScalarField;
    location    "25.5";
    object      phi;
}
// * * * * * * * * * * * * * * * * * * * * * * * * * * * * * * * * * * * * * //

dimensions      [0 3 -1 0 0 0 0];

internalField   nonuniform List<scalar> 
17221
(
0.0892511
-0.0290389
-0.0733021
0.0130898
-9.44676e-05
0.0821566
0.00718898
0.0691008
-0.022106
-0.0760337
0.0838641
-0.0102157
-0.0759563
0.00230795
0.0133867
0.0752352
-0.00475784
0.0712689
0.0165528
-0.0744349
0.000934713
-0.00475183
0.0694765
-0.0656594
-0.00693109
-0.0676847
0.0755505
0.00118764
-0.0427325
0.00896244
0.0325824
-0.0427974
0.00778468
0.0362004
0.00112664
0.0450908
-0.0528479
0.00663051
-0.0507817
0.0519083
-0.00584552
0.0566474
-0.0550427
0.00424081
0.0536642
6.87121e-05
-0.0595785
0.0688606
0.0493134
-0.0469179
-0.071256
0.0424182
0.00153304
0.0249093
0.0201116
0.0588491
-0.0708982
-0.00806251
0.0101349
0.0508472
-0.0408705
-0.045127
-0.00527708
0.060539
-0.0277552
-0.0630628
0.0721965
0.0186215
-0.067706
0.00374276
0.036208
0.0428435
0.0492119
-0.0533704
-0.038685
0.104854
-0.0678399
0.0058297
-0.0327663
0.0107
0.0911672
-0.115102
-0.0603272
0.0877896
0.0876395
-0.0478756
0.0295885
-0.0968147
0.103507
-0.0987144
-0.0526687
0.0903805
-0.0472002
-0.0262176
-0.0461844
0.0121078
0.0602942
-0.0124581
-0.0509402
0.0371808
-0.0575832
0.00260382
0.0425213
-0.112319
-0.00505105
0.0789813
0.0383883
0.0191778
-0.104862
-0.0266341
0.119772
0.018297
-0.118891
0.00846263
0.106258
0.0664801
-3.365e-05
-0.0191083
-0.0473382
0.0116727
0.0672476
-0.0124402
-0.0417428
0.0411063
0.0638636
-0.063227
0.102474
-0.0793
-0.0249591
0.00178547
0.0713394
-0.0106086
0.034912
0.093833
-0.0377085
0.0238656
0.0272722
-0.00517737
-0.0220949
0.0174285
-0.00563796
0.0154817
0.0906997
-0.0428964
-0.0478033
-0.0593538
0.0472339
0.10282
0.00730059
0.00134773
-0.0128452
0.00419683
0.00131591
-0.00682155
0.0128062
-0.00285481
0.00551844
0.0414113
0.0679512
-0.0624636
-0.0468988
0.053837
-0.072416
0.0599902
-0.0297373
0.0455568
0.0380175
-0.0176637
0.0558776
-0.0826278
0.0153342
0.068022
-0.000728435
-0.0732214
-0.00839203
-0.00101431
-0.00886519
-0.0652676
0.000911336
-0.0503114
0.0248262
0.0517401
-0.0262548
0.0323626
-0.0536046
-0.0290694
-0.0437964
0.0481151
-0.0219454
0.0176267
0.03268
-0.0516503
-0.0878095
0.012854
0.0819087
-0.00695312
0.00811129
-0.0854514
-0.0104694
0.0842317
-0.00362906
-0.073421
-0.00718165
0.00648768
0.0858553
0.00750807
-0.0579942
0.00234432
0.0481418
0.0630234
0.000813802
-0.0563292
0.0696181
-0.0113465
-0.102462
0.00427372
0.0345822
0.0636059
-0.00572258
-0.108236
0.0114971
-0.00467949
0.103811
-0.00998627
-0.0557342
0.00738169
0.0583388
-0.0625529
0.0598224
-0.00725572
0.000320182
-0.0612155
0.00516108
-0.0581682
-0.00420919
0.0626976
0.0137564
0.0590775
-0.0131542
-0.0596797
0.0579262
-0.0613348
0.017165
-0.0141526
0.0603049
0.0129252
-0.0122969
0.0585549
-0.0604105
0.0278535
-0.086878
-0.0668497
-0.0181333
0.0181033
0.0668797
-0.0707862
0.0299191
-0.0259826
-0.0302494
-0.0626578
0.028094
0.0648132
-0.0645773
0.0649988
-0.0306709
0.0920145
-0.0769817
0.0128207
0.0953246
0.00818699
0.0774923
-0.0373407
0.0528432
-0.0494395
0.0339371
0.0468394
-0.0377716
-0.0464085
-0.0385051
0.0530787
-0.056065
0.0414915
0.0543166
-0.0378022
-0.0550195
0.0822895
-0.051335
-0.0398196
0.0708382
0.00305923
-0.000425507
-0.0020202
-0.0628219
0.0244417
0.0774617
-0.0295737
-0.0723296
0.0195526
0.0755063
-0.0706172
-0.0477636
-0.0189894
0.0539455
0.0128075
-0.00776039
0.0407761
-0.0807793
0.0584168
0.00321448
-0.0693916
0.0430371
-0.00360968
-0.0112906
-0.0616371
0.0701303
0.00279747
-0.0376163
0.0802711
0.0672258
0.00504094
-0.00727574
-0.064991
0.00714449
0.0689862
-0.00890493
0.0564665
0.00671453
-0.00951677
0.0576812
0.0195509
-0.0207657
0.0606507
0.0284017
-0.0313712
0.0608682
0.0354295
-0.0356469
0.063186
0.0349379
-0.0372557
0.0634811
0.0385939
-0.0388889
0.0642466
0.0365209
-0.0372865
0.0633894
0.0365858
-0.0357285
0.064308
0.03565
-0.0365686
0.0623225
0.0362356
-0.0342501
0.0629482
0.03649
-0.0371157
0.0620054
0.0385199
-0.0375771
0.0608825
0.0370135
-0.0358906
0.0598404
0.0350973
-0.0340552
0.028884
0.0601709
-0.0292145
0.0618825
-0.062216
0.0292175
0.0196122
-0.0176096
0.0202793
0.0630111
-0.0628441
0.0368465
0.0358924
0.0639344
-0.0644189
0.0369745
0.0396102
0.0645738
-0.0638841
0.0349603
0.0363905
0.0637037
-0.0630823
0.0358996
0.0364054
0.0621562
-0.0619144
0.0346961
0.0376677
0.058547
-0.0557585
0.0256132
0.0320621
0.05404
-0.0541861
0.00686066
0.0178324
-0.00600228
-0.0591582
0.061495
-0.0231024
-0.0120276
-0.0632502
0.0640077
-0.0364044
-0.0331265
-0.0651301
0.0636564
-0.0374153
-0.0383781
-0.0649675
0.0649576
-0.0357185
-0.0385976
-0.0628167
0.064711
-0.0361444
-0.0344278
-0.0632669
0.0599084
-0.0342186
-0.0356716
-0.0587088
0.0579004
-0.0332468
-0.0346911
-0.0577251
0.0588526
-0.0187372
-0.0290391
0.0585448
-0.00390136
0.0339755
-0.0432473
0.0419518
0.00900847
0.0610708
-0.0633924
0.00600062
0.0628644
0.00468887
0.0355757
-0.0548634
0.0257722
0.0636059
-0.0664376
0.0320492
0.0204927
0.0650224
-0.0679536
0.0397777
0.0344772
0.0650021
-0.0666737
0.0386461
0.0366588
0.066171
-0.0656144
0.0344037
0.0358879
0.0636269
-0.0644552
0.0367279
0.0344178
0.0604584
-0.0617556
0.0359933
0.0336709
0.057768
-0.055456
0.0233012
0.0280745
0.0530399
-0.050271
0.00409175
0.0154163
0.048083
-0.0182882
-0.00819032
0.0181186
-0.021437
0.0643892
0.0163368
0.0646462
-0.0594738
0.0611663
0.00254836
0.0191415
-0.0630303
0.0664687
-0.0265408
-0.0138916
-0.0658807
0.0681327
-0.0386564
-0.0325385
-0.0673337
0.066687
-0.0367686
-0.037579
-0.0657438
0.0677745
-0.0377493
-0.0376544
-0.0648794
0.065238
-0.036503
-0.0315327
-0.0631186
0.0625508
-0.0336509
-0.0335521
-0.0584421
0.0582222
-0.0330269
-0.0305824
-0.0555144
0.0574822
-0.020705
-0.0263313
-0.0612852
0.0617943
0.00417975
-0.00770428
0.036337
0.038759
-0.0152736
0.0732388
-0.0454432
0.015855
0.062276
0.0363583
-0.0365194
-0.0534435
0.0348559
-0.0533609
-0.0497497
0.0502319
-0.0295516
-0.0517331
-0.0345361
0.0875802
-0.0524503
0.019564
0.0745039
-0.0633137
-0.00441017
0.0437762
-0.0438515
-0.0463332
-0.0481222
0.0424589
0.0646163
-0.0674705
0.00885482
-0.00595316
0.067717
-0.0687238
0.0330559
0.0207392
0.0670528
-0.0683891
0.0411141
0.0328062
0.0666055
-0.0676382
0.0396787
0.0348752
0.0642001
-0.0671404
0.037344
0.0324498
0.0643245
-0.0632504
0.0356538
0.0316019
0.0616768
-0.0592932
0.0336097
0.0320973
0.0559319
-0.0547932
0.0221625
0.0247132
0.0505372
-0.0489079
0.00246243
0.0111603
0.0492237
-0.049435
-0.0180769
-0.00787455
-0.0254579
0.0576671
-0.0559142
0.00242683
0.0608515
0.0126706
-0.0516016
0.057735
0.0278038
0.0455845
-0.0443623
-0.0493445
0.0506037
0.0456464
-0.0506656
0.041461
-0.0621672
0.0679639
-0.0032483
0.0147092
-0.0693208
0.0710083
-0.0282283
-0.0152485
-0.0717912
0.0720253
-0.0388905
-0.0333214
-0.0688911
0.0710699
-0.0389475
-0.0344447
-0.0679538
0.0679846
-0.03778
-0.0345382
-0.0667916
0.065209
-0.0349203
-0.0303397
-0.0605591
0.0614279
-0.0345197
-0.0289022
-0.0594758
0.0586129
-0.0321639
-0.0286304
-0.0554232
0.0551645
-0.0204462
-0.0231416
-0.00845404
-0.0241421
0.0227763
0.0657551
0.0686606
-0.0221927
0.0225605
0.0619082
0.0652298
-0.0544388
-0.0406471
0.0361692
-0.0489656
-0.0376509
-0.0547293
-0.014266
0.0329769
-0.0563619
-0.056411
-0.0125843
-0.0646921
-0.013139
0.0208949
0.0625172
-0.03835
-0.0523454
0.0387996
-0.0559913
-0.0506062
0.0558296
0.040423
0.0471159
-0.0467798
-0.0510017
-0.0518648
0.0483745
-0.0418586
-0.0542657
0.0375122
-0.0535008
0.0272212
-0.0565061
-0.0271261
0.0291133
-0.0582541
-0.0313931
0.0316621
-0.056775
-0.0449422
0.0543311
-0.040782
0.0250737
-0.0275976
0.0717303
-0.0726113
0.00973579
0.00108501
0.0725861
-0.0712693
0.0317391
0.020714
0.0707447
-0.0700014
0.0403709
0.0322815
0.0692968
-0.0683794
0.0387613
0.0341705
0.0674803
-0.0661499
0.0360136
0.0315507
0.0647514
-0.064104
0.0350064
0.0302034
0.0607177
-0.0580206
0.0309126
0.028711
0.0555295
-0.0525687
0.0192017
0.0222222
0.0503113
-0.048422
0.00057309
0.00890293
0.0481996
-0.0481837
-0.0180928
-0.00809691
0.0506407
-0.0540801
-0.0261122
-0.023001
0.0621639
-0.0528443
-0.0219038
-0.0264523
-0.0256393
-0.0611541
0.0650537
0.0239042
0.0361365
-0.069293
0.072143
-0.0060983
0.0104699
-0.0739874
0.0764452
-0.0306861
-0.0170929
-0.0740032
0.0744924
-0.0393797
-0.0308794
-0.0733751
0.0732623
-0.0388347
-0.0333274
-0.0702339
0.0684976
-0.0360438
-0.0315098
-0.067041
0.0651936
-0.033073
-0.0288831
-0.0633833
0.0610289
-0.0321652
-0.0270919
-0.0589961
0.0568289
-0.0299967
-0.0265976
-0.0553469
0.0537461
-0.0188455
-0.0216596
-0.0549967
0.057224
0.000199527
-0.00970466
-0.058924
0.0604463
0.0193726
0.0109706
-0.0211918
0.0256069
0.0700888
0.0775175
-0.0263595
0.0269978
0.0651167
0.067908
-0.0276528
0.0265747
0.0629863
0.0645748
-0.0269168
0.0250118
0.0623514
0.062175
-0.0539892
0.0441477
-0.0408328
0.0453616
0.0607554
-0.0573216
0.0159388
0.0623043
0.0234628
-0.039849
-0.054355
0.0363075
-0.0547867
-0.0713802
0.0561009
-0.0255028
-0.0247552
0.00268833
-0.0411782
-0.0539203
0.0326658
-0.0570533
0.0301005
-0.0566925
0.0262086
-0.05791
0.0751867
-0.0753991
-0.0129267
-0.0174464
0.073357
-0.0748206
0.0111993
-0.000957042
0.0744923
-0.073645
0.0308918
0.0203858
0.0727313
-0.0715097
0.0391492
0.0313679
0.0704212
-0.0690807
0.0374208
0.033082
0.0678656
-0.0662119
0.0343599
0.0303356
0.064526
-0.062195
0.0326754
0.0285175
0.059936
-0.0570448
0.0280214
0.026452
0.0544832
-0.0516183
0.0163368
0.0196605
0.0495517
-0.04798
-0.000998614
0.00683628
0.0476401
-0.0484719
-0.0172611
-0.00843678
0.0516995
-0.0548291
-0.0229826
-0.0197733
0.0577825
-0.0569879
-0.0226984
-0.023499
-0.0265264
-0.0534854
0.0555278
0.0433192
0.0563983
-0.0392101
-0.0732532
0.0532965
-0.0338205
0.0369223
0.0413025
-0.0615062
0.062716
0.0392132
0.0423961
-0.0666324
0.0701813
0.0203552
0.0322202
-0.0737729
0.0767902
-0.00911567
0.00687835
-0.0783373
0.0787816
-0.0311304
-0.01864
-0.0781509
0.0766575
-0.0378863
-0.0302487
-0.0750155
0.072869
-0.0366882
-0.0316854
-0.0710194
0.0689433
-0.0339676
-0.0296602
-0.0672906
0.0652785
-0.0310609
-0.0272304
-0.0634012
0.0609108
-0.0296748
-0.0252147
-0.0587439
0.0563417
-0.0275945
-0.0244307
-0.0555673
0.0535361
-0.0168143
-0.0208851
-0.053411
0.0549667
-0.00135609
-0.00957961
0.00861568
0.0255201
-0.0202698
0.0766584
-0.0305544
0.0305186
0.0701247
0.0724832
-0.0323943
0.031136
0.0663751
0.0660323
-0.0313778
0.0310486
0.0633155
0.064333
-0.0296914
0.028444
0.0635989
0.0635322
0.027781
0.0629673
-0.0575307
0.0729018
-0.103256
0.0234007
-0.0364135
0.0890455
0.000274292
0.0208556
-0.0549504
-0.0825931
-0.0311319
-0.037565
-0.0579682
0.0358139
-0.0579348
-0.036075
-0.0556476
0.0330239
-0.0599766
-0.0646696
-0.0276222
0.0700568
0.022235
-0.0381948
-0.0560349
0.0337691
-0.064253
-0.0351418
-0.0378371
0.0292324
-0.0856094
0.0429516
-0.0559644
-0.0658335
0.0289449
0.0782265
-0.0781221
-0.013031
-0.021813
0.0784245
-0.0772911
0.0100659
-0.000654618
0.0768385
-0.0757343
0.0297875
0.0199332
0.0744884
-0.0728273
0.0374882
0.030122
0.0714013
-0.0697042
0.0357236
0.031656
0.0682177
-0.066277
0.0324191
0.0288492
0.0643776
-0.0618129
0.0301107
0.0266181
0.0593789
-0.0563576
0.025
0.0240181
0.0537904
-0.0510534
0.0135998
0.0170933
0.0492048
-0.0479462
-0.00225721
0.00498773
0.047937
-0.0493601
-0.015838
-0.00844597
0.0524483
-0.0540762
-0.0213547
-0.0166851
0.0581651
-0.056488
-0.0243754
-0.0194101
0.0607444
-0.0623267
-0.0239204
-0.02227
0.0584713
-0.0711069
-0.0342824
-0.0286105
-0.0486063
0.05297
0.0325586
-0.0538107
0.0260599
-0.0542829
0.0582498
0.0393523
0.0399897
-0.0625565
0.0667495
0.0350201
0.0380894
-0.0703288
0.0736387
0.0170453
0.0286409
-0.0784
0.0813388
-0.0120545
0.00211706
-0.0822908
0.081885
-0.0307246
-0.019592
-0.0805614
0.0783213
-0.0356462
-0.0289251
-0.0762314
0.073708
-0.0341648
-0.0295955
-0.0716497
0.0693449
-0.0316629
-0.0276019
-0.0675476
0.0654488
-0.0289622
-0.0254331
-0.0635428
0.060999
-0.027131
-0.0233086
-0.0587778
0.0563579
-0.0251746
-0.0222095
-0.0539928
0.0541486
-0.0169701
-0.0185201
-0.0530815
0.0535947
-0.00186927
-0.00851255
-0.0558264
0.0591601
0.0126052
0.00638394
0.0167894
-0.0411309
0.0444586
-0.0745837
-0.0750065
-0.0372313
-0.0276177
0.031321
0.0729551
0.00704095
-0.0311676
0.0670782
0.0684687
-0.0329848
0.0345649
0.0685446
0.0708194
-0.0333719
0.0328631
0.0668838
0.0672253
-0.0336968
0.0323524
0.0646599
0.0634993
-0.0312703
0.0305315
0.0643376
0.0646143
0.0658766
-0.0592817
-0.0368083
-0.0572349
0.035961
-0.060872
0.0289987
-0.0283651
0.0694232
-0.0547222
0.0348586
0.0488085
0.0291662
0.070876
-0.0710435
-0.0376412
-0.0562012
0.0367212
-0.0629288
-0.0385295
-0.0526472
0.0352178
-0.0702383
-0.0396641
-0.0531234
0.0325039
-0.0736546
0.0256006
-0.0303033
-0.049108
0.0402951
-0.0351117
-0.0801898
0.0439003
-0.0781889
-0.0589564
-0.0348689
0.0295298
0.0656424
0.0341701
-0.0285851
-0.0755387
0.0699536
0.0784383
-0.0803804
-0.0291898
-0.0364825
0.0816799
-0.081824
-0.0128869
-0.0205135
0.080341
-0.0804804
0.0102054
-0.00213769
0.0783232
-0.0774183
0.0288826
0.0177761
0.0758758
-0.073884
0.0354963
0.0285795
0.0721727
-0.070191
0.0337419
0.0299448
0.0684823
-0.0663278
0.0302645
0.0271406
0.0642751
-0.0615604
0.0273959
0.0245655
0.059031
-0.0559544
0.0219235
0.0214887
0.0534244
-0.0508335
0.0110089
0.0145633
0.0492167
-0.0483534
-0.00312049
0.00337091
0.0487902
-0.0507012
-0.013927
-0.00800911
0.0531647
-0.0561476
-0.0183718
-0.0142216
0.0584419
-0.0607347
-0.0220826
-0.0171157
0.0621694
-0.0629806
-0.0231093
-0.0208353
0.0645441
-0.0700333
-0.0287932
-0.0270471
0.0765486
-0.0811367
-0.0305237
-0.030716
-0.037158
0.0410664
-0.0840983
0.0956893
0.045145
-0.0635614
-0.0772729
-0.0226054
-0.0521446
0.0538612
0.0308421
0.0521392
-0.049218
0.0226794
0.0260545
-0.0587057
0.063619
0.034439
0.0351452
-0.0660525
0.0690393
0.0320333
0.035656
-0.0752616
0.0797219
0.0125851
0.0224186
-0.0830563
0.0852867
-0.014285
-0.00121728
-0.0855394
0.0842115
-0.0293967
-0.0198446
-0.0822451
0.0794425
-0.0328436
-0.0269586
-0.0770393
0.074285
-0.0314106
-0.0271923
-0.0720965
0.0696582
-0.0292246
-0.0254135
-0.0677708
0.0656262
-0.0268175
-0.0235456
-0.0637434
0.0612672
-0.0246548
-0.0214258
-0.0590492
0.0565224
-0.0226478
-0.0199915
-0.0548145
0.0535376
-0.0156932
-0.0168121
-0.0530931
0.0536278
-0.00240402
-0.00806797
-0.0555174
0.0568034
0.0113192
0.00449435
0.0188706
-0.0280559
0.0326792
0.0683318
0.0699426
-0.0346563
0.0334666
0.0697344
0.0688423
-0.0345165
0.0341924
0.0672079
0.0661754
-0.0335473
0.0325702
0.065637
0.0641444
-0.0323509
0.0317583
0.0649303
0.0648335
0.0692698
-0.060129
-0.0712972
-0.028149
0.0661102
-0.0573175
0.0260659
0.0688954
0.026381
-0.0376095
-0.0572666
0.0374152
-0.0615659
-0.0392028
-0.0555279
0.0381965
-0.0659076
-0.0384662
-0.0538451
0.0405253
-0.0782597
-0.03352
-0.0499067
-0.0213971
-0.0459346
0.0181137
-0.0239547
-0.0465505
0.0447771
-0.0745314
0.0432017
-0.0803242
0.042769
-0.0817223
0.0430939
-0.0724852
-0.0708827
0.0822908
-0.0187274
0.00731924
-0.0758341
-0.0236336
0.0316851
-0.0286885
-0.0785354
0.0785739
-0.0820644
-0.0256994
-0.0292058
0.0824114
-0.0830318
-0.0122665
-0.0201664
0.0829088
-0.08178
0.00907651
-0.00226069
0.0805001
-0.078609
0.0269915
0.0164962
0.0768314
-0.0745846
0.0332496
0.0268019
0.0726731
-0.0704854
0.0315543
0.0280332
0.0686344
-0.0663551
0.0279852
0.0252895
0.0642218
-0.0614408
0.024615
0.0224322
0.0588792
-0.0558084
0.0188527
0.0189271
0.053349
-0.0509516
0.0086115
0.0121039
0.0496364
-0.0492928
-0.0034641
0.0020557
0.0501956
-0.0524191
-0.0117034
-0.00710634
0.0547614
-0.0573708
-0.0157625
-0.0118793
0.0592825
-0.0613569
-0.0200082
-0.015204
0.0634103
-0.0630382
-0.0234813
-0.018782
0.0680857
-0.0719871
-0.0248918
-0.0219996
0.0761505
-0.0816761
-0.024998
-0.0265526
-0.0219907
-0.0488915
0.0509178
0.0206531
0.0116548
-0.014608
-0.0429814
0.0473814
-0.0451885
0.00946189
0.0166036
-0.0530717
0.0562174
0.0276964
0.0239006
-0.0622596
0.0631794
0.0335192
0.029103
-0.0691576
0.0726626
0.0285282
0.0296778
-0.0788151
0.0840768
0.00732338
0.0162661
-0.0870667
0.088366
-0.0155843
-0.00420719
-0.0877929
0.085666
-0.0272698
-0.0192715
-0.083232
0.0800794
-0.029691
-0.0245246
-0.0775003
0.0746331
-0.0285433
-0.0246133
-0.0723959
0.0699077
-0.0267364
-0.0231762
-0.0679793
0.0658286
-0.0246668
-0.0216171
-0.0640115
0.061658
-0.0223014
-0.0196087
-0.0595137
0.0570111
-0.0201452
-0.0178472
-0.0552536
0.053905
-0.0143447
-0.0150546
-0.0534729
0.0537744
-0.00270545
-0.00763589
-0.0545581
0.0553406
0.0105367
0.00371061
0.0168936
-0.0320068
0.0313342
0.066315
0.0324158
-0.0296692
0.0622522
0.0652222
-0.0323772
0.0327039
0.0680051
0.0688996
-0.0337256
0.0344162
0.0690438
0.0678205
-0.0346838
0.0345844
0.0673074
0.0659078
-0.0341674
0.0334261
0.0663782
0.0645614
-0.0327407
0.0321367
0.0655344
0.0655189
-0.031636
0.0308152
0.070244
0.0697704
-0.0307954
0.0711997
0.0284912
0.0708958
-0.0603233
-0.0387003
-0.0577691
0.0388007
-0.0621701
-0.0391255
-0.0548686
0.0398602
-0.0652425
0.0319232
-0.0330466
0.072323
0.0703261
-0.0689536
0.0271187
0.0725153
0.029734
-0.0352384
-0.0521267
-0.027988
-0.0458733
-0.0186893
-0.0424692
-0.00536194
-0.0444614
0.00463488
-0.00773284
-0.0406105
-0.0717348
0.0382523
0.0450242
-0.0763539
0.0414232
-0.0789785
0.0392192
-0.0778476
0.0346903
-0.0754903
0.0613713
-0.0691713
-0.0218692
-0.0797916
-0.024731
-0.0251288
0.0252755
-0.0786822
-0.0197532
-0.0851671
-0.031497
0.0307608
0.0629884
0.0594358
-0.0295615
0.0742074
-0.0759403
-0.0264162
-0.0256348
0.0790661
-0.0825867
-0.0221788
-0.02608
0.0846439
-0.0845991
-0.0123113
-0.0181092
0.0844395
-0.0830244
0.00766141
-0.00242033
0.0814284
-0.0792754
0.0248385
0.0149002
0.0773221
-0.0749131
0.0308406
0.0248486
0.0728841
-0.0705744
0.0292446
0.0260041
0.0686453
-0.0663027
0.0256426
0.0233605
0.0641346
-0.0613303
0.0218107
0.0202641
0.0587742
-0.0557686
0.0158471
0.0163711
0.0534595
-0.0514041
0.00655612
0.00979475
0.050542
-0.0508183
-0.00318782
0.00119364
0.0521061
-0.0543668
-0.00944266
-0.0058186
0.0563843
-0.0584766
-0.0136701
-0.00986189
0.0600795
-0.0620336
-0.0180542
-0.0136011
0.063907
-0.0661885
-0.0211998
-0.0169086
0.069016
-0.0711569
-0.0227509
-0.0191721
0.075398
-0.0769899
-0.0234062
-0.0223114
0.0765773
-0.0756265
-0.0196783
-0.0224032
0.0781021
-0.0806119
-0.0222213
-0.021158
-0.0503803
0.0492593
0.0105829
0.00172812
0.000827402
-0.0470169
0.0516902
-0.0536108
0.00364869
0.00594481
-0.0503928
0.052495
0.0185509
0.0154702
-0.0544261
0.0578839
0.0242386
0.0219695
-0.0617718
0.0654941
0.0297969
0.0252151
-0.0719089
0.0783085
0.0221287
0.023263
-0.083358
0.0880004
0.00268102
0.0112165
-0.0901359
0.0903362
-0.0157846
-0.00634268
-0.0889666
0.0862039
-0.024507
-0.017902
-0.0834788
0.0801776
-0.0263897
-0.0217996
-0.0775642
0.0747165
-0.0256956
-0.0219999
-0.0725199
0.0700717
-0.0242882
-0.0209796
-0.0681583
0.0660369
-0.0225454
-0.0197038
-0.064308
0.0621273
-0.0201207
-0.0178798
-0.0601382
0.0577271
-0.017734
-0.0158582
-0.0559529
0.0544691
-0.0128609
-0.0132804
-0.0542127
0.0544724
-0.00296516
-0.00737942
-0.055029
0.0567577
0.00880804
0.00315398
-0.059488
0.065211
0.0203429
0.0141633
0.0226384
-0.0305208
0.0313969
0.0654389
0.0654622
-0.0314643
0.0317497
0.0677196
0.0688322
-0.03296
0.0338659
0.0681379
0.0666102
-0.0343853
0.0345602
0.0671325
0.0653884
-0.0344069
0.0339419
0.0668433
0.0647147
-0.0335379
0.0332293
0.065843
0.0659229
-0.0334351
0.0347844
0.0688947
0.0695646
0.0726337
-0.0602228
-0.0787005
-0.0216645
-0.0227557
0.00854182
-0.0709533
-0.0492693
-0.0521869
-0.0396717
-0.0572229
0.0401868
-0.0624967
0.03245
-0.032687
0.07256
0.0330696
0.0718957
-0.0375866
-0.0525205
-0.0322755
-0.0478392
-0.0224279
-0.0421347
-0.0107663
-0.0394357
0.000689736
-0.0404728
0.00191919
-0.056202
0.000671944
0.00461734
-0.0497151
-0.0699503
0.0432396
0.0401961
-0.0751268
0.0380438
-0.077803
0.0361002
-0.0792575
0.029732
-0.0799467
0.0153488
-0.0854891
-0.0346108
0.0305745
0.0670247
-0.0433753
0.0682003
0.0702915
-0.0728544
-0.0193063
-0.0695529
0.0716431
0.0276439
-0.0678798
0.0254455
0.0452821
-0.00455219
0.0408445
-0.0678347
0.07563
-0.078861
-0.0231852
-0.0228591
0.0818238
-0.0836159
-0.0203867
-0.0231172
0.0857957
-0.086153
-0.011954
-0.0159294
0.0855019
-0.0837958
0.00595534
-0.00307145
0.0818707
-0.0794271
0.0223949
0.0129751
0.0773209
-0.0748291
0.0283488
0.0227424
0.0727431
-0.0703511
0.0268525
0.0239182
0.0683488
-0.0659307
0.0232246
0.0213582
0.0637261
-0.0609336
0.0190182
0.0180594
0.0584667
-0.0557028
0.0130832
0.0139042
0.0537589
-0.0523181
0.00511535
0.00785087
0.0520561
-0.052894
-0.00234991
0.00093164
0.0543134
-0.0562644
-0.00749166
-0.00439926
0.0578092
-0.0594297
-0.0120497
-0.00831704
0.0608279
-0.0626662
-0.0162158
-0.0122028
0.0643974
-0.0665298
-0.0190674
-0.0151774
0.0684596
-0.0701169
-0.0210936
-0.0172424
0.073794
-0.0749974
-0.0222028
-0.0186343
0.0777606
-0.0780255
-0.0194134
-0.0196399
0.0801377
-0.082957
-0.019402
-0.0190458
-0.00671635
-0.113506
0.0794196
-0.10717
-0.0244361
-0.0252019
-0.0599818
0.0584362
0.00519426
-0.00261951
0.004975
-0.0585574
0.0607677
-0.0615824
-0.00180478
0.0014578
-0.0559533
0.0551228
0.0114134
0.00842769
-0.0557935
0.0572916
0.0170528
0.0147994
-0.0591237
0.0625354
0.0208269
0.0201374
-0.0660394
0.0715447
0.0242916
0.0217112
-0.0767244
0.0829469
0.0159061
0.0180833
-0.0874078
0.0908554
-0.000766554
0.00675557
-0.0918189
0.0908853
-0.014851
-0.00730613
-0.0889021
0.0858048
-0.0214097
-0.0159188
-0.0830342
0.0798271
-0.0231826
-0.0190291
-0.0773273
0.074611
-0.0229793
-0.0195001
-0.0725182
0.0701742
-0.0219442
-0.0188868
-0.0683202
0.0662519
-0.0204771
-0.0178498
-0.0646147
0.0626257
-0.0181317
-0.0162426
-0.0608411
0.0586011
-0.0154941
-0.0140735
-0.0568855
0.0553927
-0.011368
-0.0115648
-0.054544
0.0547517
-0.00317282
-0.00653078
-0.0560494
0.0581966
0.00666088
0.00185624
-0.0606172
0.0650552
0.015905
0.0117427
0.0198138
-0.029495
0.0288274
0.0661066
0.0665417
-0.0299931
0.0317212
0.0659916
0.0676665
-0.032135
0.0332909
0.066982
0.0661963
-0.0340894
0.0345631
0.0666588
0.0645899
-0.0346853
0.0344906
0.067038
0.0645925
-0.0350219
0.0326255
0.0682393
0.0653916
-0.0333299
0.0330888
0.0691358
0.0688602
0.0730355
-0.0597077
0.0347796
0.0699331
-0.0394335
-0.055376
-0.0351295
-0.0496664
-0.0263696
-0.0438975
-0.0143191
-0.0385819
-0.00189858
-0.0368474
0.0069436
-0.0427991
-0.0701483
0.0403941
0.0382707
-0.0753537
0.034405
-0.0761078
0.0289736
-0.0784992
0.00807015
-0.0528102
0.00604885
-0.0625661
-0.0050651
0.00897089
-0.0614795
0.0185163
-0.0831142
0.0054921
-0.0976976
0.0114591
-0.101984
-0.0166454
-0.0688794
0.0405556
-0.0622078
0.0019959
-0.104043
0.0410279
-0.065623
-0.0407412
0.0507517
0.0239282
-0.0339387
0.0729483
-0.0740402
-0.0182145
-0.000483209
0.0762657
-0.0792411
-0.0202097
-0.0206337
0.0830813
-0.084195
-0.0192729
-0.019277
0.0862594
-0.0868393
-0.0113741
-0.013865
0.0861953
-0.0842621
0.00402214
-0.00371546
0.0819935
-0.0791299
0.0195313
0.0107065
0.0767775
-0.0741629
0.0257342
0.02039
0.0720249
-0.0695638
0.0243914
0.0217802
0.0674876
-0.0650086
0.0207455
0.019282
0.0628283
-0.0602095
0.0163993
0.0158791
0.058055
-0.0558646
0.0108928
0.0117497
0.0545566
-0.0539113
0.00447006
0.00654287
0.0541807
-0.0552417
-0.00128894
0.00120103
0.0564451
-0.0578526
-0.00608413
-0.00319587
0.0589506
-0.0602504
-0.0107498
-0.00721904
0.0615087
-0.0631881
-0.0145364
-0.0109445
0.0647368
-0.0666439
-0.0171604
-0.0136287
0.0683658
-0.0705002
-0.0189593
-0.0155204
0.0724618
-0.0748517
-0.0198129
-0.0166727
0.0775308
-0.0779835
-0.0189607
-0.0169609
0.0797281
-0.081677
-0.0174531
-0.0173012
0.0891839
-0.0971181
-0.0165019
-0.0176949
-0.0108007
0.0118188
-0.103002
0.0986251
-0.0983758
-0.01105
-0.0151385
-0.0645741
0.0632718
-0.000502471
-0.00868741
0.0108382
-0.064717
0.0651541
-0.0657546
-0.00808694
-0.00448509
-0.0627357
0.0626724
0.00525757
0.0019939
-0.0623513
0.0609774
0.0127874
0.00874882
-0.0629476
0.0626651
0.0173353
0.0128292
-0.0667864
0.0674805
0.0201328
0.016016
-0.0720646
0.077183
0.0191731
0.017127
-0.0818054
0.0869196
0.010792
0.0134609
-0.0901186
0.0919466
-0.00259463
0.00355656
-0.091799
0.0900584
-0.0131104
-0.00715851
-0.0878197
0.084763
-0.018353
-0.0136801
-0.0821674
0.0792113
-0.0202265
-0.0164334
-0.0769005
0.0743656
-0.0204444
-0.0171893
-0.0724027
0.0701992
-0.0197408
-0.0169239
-0.068441
0.0664571
-0.0184932
-0.0160916
-0.0649099
0.0631079
-0.0163297
-0.0146954
-0.0615501
0.0595685
-0.0135125
-0.0125157
-0.0579627
0.0564064
-0.00981173
-0.00995901
-0.0556784
0.0557301
-0.00322456
-0.00580275
-0.0566241
0.0575631
0.00572191
0.000962255
-0.0604649
0.0626976
0.0136722
0.00884087
-0.0667866
0.0693703
0.0228619
0.0157248
-0.0711709
0.0613406
0.0446099
0.0258432
-0.0275415
0.0263705
0.0681957
0.0705779
-0.025843
0.0261246
0.065825
0.0670692
-0.0293167
0.0291085
0.0661999
0.0644743
-0.0316051
0.0329758
0.0656113
0.0636997
-0.034019
0.0347639
0.0659138
0.0635467
-0.0351395
0.0351894
0.0669881
0.0642169
-0.0349048
0.0342488
0.0688953
0.0656762
-0.035244
0.03302
0.0713598
0.0678651
-0.0336139
0.0333206
0.0728534
0.0724416
-0.033112
0.0371645
0.0658805
0.0721043
0.057764
-0.0585855
-0.0378319
-0.0526737
-0.0305699
-0.0454661
-0.019226
-0.0389906
-0.00553349
-0.034947
0.00624707
-0.0361509
-0.0690717
0.037194
0.0333254
-0.0742741
0.0281773
-0.0753115
0.0109614
-0.0456903
0.00976871
-0.0536081
0.0103236
-0.0609648
0.0193234
-0.0793062
0.0105257
-0.0881478
0.00583301
-0.101535
0.0115057
-0.06726
-0.0100004
0.0105899
-0.0638011
0.0091227
-0.101347
0.00819614
-0.0997329
-0.00683908
0.00455761
-0.0993637
0.0045993
-0.0618475
0.0971386
-0.0398904
-0.0710721
-0.0150602
0.0679989
-0.0811445
-0.0159102
-0.0176679
0.073019
0.0398435
-0.0610234
-0.055998
0.0180786
0.0393357
-0.0645646
0.0720857
-0.0739347
-0.0163655
-0.00954194
0.0757723
-0.0798703
-0.0161117
-0.0187961
0.0821898
-0.0846405
-0.0168222
-0.0169576
0.0862163
-0.087049
-0.0105414
-0.0122892
0.086583
-0.0846514
0.00209054
-0.00418136
0.0821375
-0.0787909
0.0161847
0.00819247
0.0760345
-0.0731092
0.0228089
0.0176337
0.0708426
-0.0683303
0.0218791
0.0195136
0.0662611
-0.0638852
0.0183696
0.0172128
0.0619249
-0.0597678
0.0142423
0.0139188
0.058181
-0.0567964
0.00950821
0.0101628
0.0561699
-0.0561249
0.00442505
0.00591645
0.0565772
-0.0574213
-0.000444792
0.00165324
0.0582065
-0.0591103
-0.00518035
-0.00241067
0.0599238
-0.0610497
-0.00962393
-0.00640555
0.0621973
-0.0637121
-0.0130216
-0.00979693
0.0651
-0.0668233
-0.0154371
-0.0122408
0.0683851
-0.0703207
-0.0170237
-0.0139585
0.0720572
-0.074178
-0.0176921
-0.0149362
0.0760767
-0.0777936
-0.0172438
-0.0150622
0.0804263
-0.0829486
-0.0149308
-0.0146685
0.0875672
-0.0924569
-0.0116121
-0.0130763
0.0944862
-0.0958307
-0.00970557
-0.0131091
-0.00223939
0.000387102
-0.0978806
0.0962373
-0.0947075
-0.00376922
-0.00643243
-0.0662943
0.0650376
-0.00683024
-0.0127336
0.0124167
-0.0669431
0.0688754
-0.0705015
-0.0111076
-0.00741926
-0.0640872
0.0635256
5.91697e-05
-0.00353471
-0.0628864
0.0628617
0.00528234
0.00263307
-0.0638675
0.0652284
0.0114265
0.00774296
-0.066633
0.0686824
0.0152859
0.0114245
-0.0708617
0.0740602
0.0169343
0.0138367
-0.0773106
0.0816145
0.0148692
0.0138766
-0.0852184
0.0887662
0.00724416
0.00985707
-0.0905884
0.0910713
-0.00307754
0.00173441
-0.0902491
0.0882456
-0.0111068
-0.00633639
-0.0861008
0.0833427
-0.015595
-0.0115353
-0.0810369
0.0784048
-0.0175945
-0.0141275
-0.0763242
0.0740097
-0.01813
-0.0151087
-0.0722001
0.0701636
-0.0177043
-0.0151142
-0.0685301
0.0666644
-0.0166275
-0.0144582
-0.0652059
0.063563
-0.0146868
-0.0132369
-0.0622146
0.0605324
-0.0118302
-0.0111673
-0.0591122
0.0576347
-0.00833419
-0.00853885
-0.0567871
0.0565761
-0.00301353
-0.00495515
-0.0569588
0.058331
0.00434966
0.000579532
-0.0598789
0.0627536
0.0107976
0.00729298
-0.0638836
0.0681065
0.018639
0.0145948
-0.0703108
0.0985544
0.0163663
0.0236389
0.00861764
-0.0208863
0.021351
0.0677309
0.0677949
-0.0248544
0.0256048
0.0650746
0.0635658
-0.0275962
0.0295415
0.0642545
0.062483
-0.03125
0.0327853
0.064076
0.0619912
-0.0340132
0.0349674
0.0649595
0.0623189
-0.0355509
0.035798
0.066741
0.0636334
-0.0356855
0.0351951
0.0693857
0.0657887
-0.0344006
0.0332068
0.0725536
0.0686596
-0.0324795
0.0318506
0.0734823
0.0731688
-0.0297419
0.0272468
0.0683757
0.074213
0.0673428
-0.0565739
-0.0341709
-0.0490727
-0.0235494
-0.0411427
-0.00957525
-0.0349489
0.00424809
-0.032948
-0.0666341
0.0308879
0.0253045
-0.0714013
0.0129528
-0.0381423
0.012763
-0.0486846
0.0114822
-0.0547667
0.01848
-0.0744681
0.0102298
-0.0790104
0.00466776
-0.0869826
0.0111657
-0.0615407
0.00265085
-0.0950628
0.0140364
-0.0654209
0.00211581
-0.0989052
0.0117591
-0.0698509
-0.0124096
0.0140156
-0.0691996
-0.000782333
-0.0981942
-0.0014135
-0.0926445
-0.00064949
-0.00210768
-0.0971864
-0.00613957
0.0879099
0.0153683
-0.0736639
0.0688256
-0.0102218
-0.0752008
-0.0143733
-0.0145685
0.0814479
0.0371787
-0.0588664
0.0131947
-0.0115548
0.0663591
0.0146769
0.0653974
-0.0638234
0.0420116
0.0349442
-0.0623147
0.0725577
-0.0738422
-0.015081
-0.0121851
0.0777648
-0.078526
-0.0153505
-0.0148735
0.081568
-0.083982
-0.0144082
-0.0139156
0.0856524
-0.0867629
-0.00943099
-0.0106188
0.086636
-0.0850436
0.000498139
-0.0043082
0.0826038
-0.0790225
0.0126035
0.00575259
0.0759006
-0.0725677
0.019476
0.0145118
0.0700997
-0.067551
0.0193305
0.0170456
0.0655984
-0.0635207
0.0162919
0.0152601
0.0619518
-0.0604
0.0126905
0.0123499
0.0593935
-0.0586447
0.00875941
0.00915639
0.0583872
-0.0584577
0.00449548
0.00565895
0.0587213
-0.0591465
-1.96365e-05
0.00191691
0.059558
-0.0601466
-0.00459175
-0.00199922
0.0608086
-0.0618096
-0.00862301
-0.00574345
0.0628323
-0.064172
-0.0116819
-0.00877419
0.0654069
-0.0669534
-0.0138906
-0.0110059