/*--------------------------------*- C++ -*----------------------------------*\
  =========                 |
  \\      /  F ield         | OpenFOAM: The Open Source CFD Toolbox
   \\    /   O peration     | Website:  https://openfoam.org
    \\  /    A nd           | Version:  10
     \\/     M anipulation  |
\*---------------------------------------------------------------------------*/
FoamFile
{
    format      ascii;
    class       volScalarField;
    location    "28";
    object      p;
}
// * * * * * * * * * * * * * * * * * * * * * * * * * * * * * * * * * * * * * //

dimensions      [0 2 -2 0 0 0 0];

internalField   nonuniform List<scalar> 
33313
(
-0.00200623
-0.00319577
-0.00364604
-0.00651857
0.00515306
0.00480751
0.00292402
0.0125339
0.011811
-0.0017848
0.00213899
-0.675534
-0.701251
-0.674483
0.11321
0.103885
0.117111
-0.210738
-0.310248
-0.243257
-0.15996
0.759976
0.663024
0.814152
0.839014
0.19763
0.203062
0.205551
0.274753
0.265778
0.277324
0.220962
0.309277
-0.440384
-0.450885
-0.439176
-0.42197
0.0774812
0.0731766
-0.380064
-0.351905
0.319153
0.306482
-0.417822
-0.665832
-0.696689
0.680436
0.776349
-0.00668105
-0.00577857
0.274005
0.302562
0.22517
0.272032
-0.0272572
-0.00355698
0.304228
0.444631
0.540484
0.449703
0.302667
0.856341
0.917021
0.943392
-0.00916157
-0.0251224
-0.177094
-0.0567619
-0.0550342
-0.205705
-0.182115
-0.120694
-0.390046
-0.425606
-0.380808
-0.319398
-0.238784
-0.213618
-0.267943
-0.330726
0.556607
0.543201
0.57242
-0.511503
-0.557819
-0.62882
-0.752529
-0.734669
-0.727154
0.93543
-0.4247
-0.380241
-0.3952
-0.423213
-0.457002
0.262127
0.251391
0.00282493
0.000789553
-0.132378
-0.121586
-0.18303
-0.185956
-0.192066
-0.220571
-0.456388
-0.497834
-0.489009
-0.454468
0.00273229
0.183278
0.140447
0.00426037
-0.641543
-0.759022
-0.586968
0.907385
0.85006
-0.180866
-0.165017
-0.39415
-0.390256
-0.391361
-0.00909924
-0.00763451
-0.0211631
0.218317
-0.000567701
0.0054639
-0.757227
-0.805865
-0.398647
-0.389452
-0.0457842
-0.05536
-0.213509
-0.13296
-0.0150061
0.0749343
0.279657
0.176429
0.392891
-0.00101901
-0.00519983
-0.00656293
0.107044
0.103502
0.103179
0.100134
0.345281
0.328065
0.352461
0.338674
0.407925
0.410254
0.376719
0.37903
-0.247103
-0.312138
-0.253404
-0.385632
-0.0716647
-0.0268594
0.137312
-0.0115827
-0.688003
-0.686207
-0.672701
-0.752279
0.000849073
0.00206769
0.120784
0.119873
0.0416391
0.03935
0.1986
0.181894
-0.731941
-0.761604
0.00768917
0.00285025
0.0163811
0.0125906
0.0954351
0.0984057
-0.038356
-0.0336302
-0.79104
-0.803703
-0.80011
-0.433726
0.527618
0.50267
-0.832144
-0.833975
0.372619
0.386072
0.379794
0.392561
0.416621
0.411066
0.557333
0.532282
0.153196
0.158789
-0.640074
-0.634484
-0.105343
-0.222469
0.172295
0.16751
0.00357944
0.00668806
0.0037162
0.00151606
0.102535
-0.776485
-0.742737
0.305471
0.311513
0.290224
0.28243
-0.14471
-0.137161
-0.122569
0.107962
0.133062
0.102441
-0.687657
-0.684145
-0.688488
-0.0274737
0.0103329
0.122653
0.0493264
0.0470792
-0.454619
0.283249
-0.0963846
-0.0989075
-0.102388
-0.10642
-0.111996
-0.118708
-0.127015
-0.137002
-0.148548
-0.161447
-0.175257
-0.189519
-0.203476
-0.216469
-0.227607
-0.236296
-0.241857
-0.244262
-0.242432
-0.237428
-0.229311
-0.218706
-0.20627
-0.192825
-0.179161
-0.165822
-0.153776
-0.142122
-0.132408
-0.123436
-0.116299
-0.11066
-0.0968638
-0.0963949
-0.0966028
-0.095305
-0.102778
-0.106141
-0.114012
-0.105301
-0.109086
-0.127748
-0.120108
-0.147426
-0.137023
-0.170667
-0.15862
-0.19517
-0.183008
-0.216006
-0.206387
-0.227823
-0.223327
-0.227361
-0.228938
-0.214635
-0.222426
-0.19272
-0.204509
-0.16698
-0.179976
-0.142598
-0.154354
-0.123042
-0.132093
-0.109129
-0.11546
-0.100685
-0.104441
-0.0981656
-0.0971059
-0.0976986
-0.102985
-0.0955736
-0.101179
-0.10096
-0.0989474
-0.0999093
-0.100963
-0.102497
-0.0969564
-0.0999444
-0.10368
-0.0995008
-0.101943
-0.0934313
-0.0939959
-0.0930813
-0.0978114
-0.0950715
-0.106261
-0.101467
-0.119838
-0.112346
-0.139713
-0.128943
-0.1657
-0.152051
-0.19518
-0.180255
-0.22327
-0.20977
-0.243854
-0.234855
-0.251874
-0.249685
-0.245299
-0.250457
-0.225685
-0.236833
-0.19835
-0.212582
-0.169513
-0.183805
-0.144474
-0.15623
-0.124933
-0.133974
-0.110961
-0.117205
-0.106095
-0.100346
-0.0983778
-0.0998673
-0.103116
-0.0994362
-0.100985
-0.110546
-0.106223
-0.123004
-0.116232
-0.1408
-0.131356
-0.162164
-0.15114
-0.184569
-0.173458
-0.203697
-0.194847
-0.214776
-0.210493
-0.214607
-0.216185
-0.202974
-0.2101
-0.182791
-0.193667
-0.158952
-0.170999
-0.136376
-0.147248
-0.118397
-0.126699
-0.105791
-0.111475
-0.0981108
-0.1014
-0.0953923
-0.0961311
-0.0972792
-0.0957216
-0.104423
-0.100131
-0.100096
-0.0960527
-0.108724
-0.110172
-0.0977646
-0.096017
-0.0950912
-0.103164
-0.0968806
-0.0989116
-0.0968392
-0.0992335
-0.106307
-0.0899446
-0.0940048
-0.0914428
-0.0904091
-0.0895692
-0.0954026
-0.092368
-0.104799
-0.099482
-0.119461
-0.111425
-0.140262
-0.129057
-0.167034
-0.153002
-0.197257
-0.181965
-0.226116
-0.212225
-0.247571
-0.23813
-0.256317
-0.253779
-0.249786
-0.254937
-0.229718
-0.241175
-0.20138
-0.216163
-0.171368
-0.186208
-0.145041
-0.15749
-0.124595
-0.133989
-0.110001
-0.116555
-0.10079
-0.104771
-0.0978584
-0.100435
-0.0995808
-0.0996006
-0.100475
-0.099627
-0.097843
-0.106194
-0.102424
-0.117297
-0.111163
-0.133016
-0.12461
-0.152261
-0.14232
-0.17253
-0.162478
-0.189921
-0.18186
-0.200121
-0.196147
-0.200119
-0.201562
-0.18958
-0.196051
-0.171181
-0.181103
-0.14941
-0.160411
-0.128841
-0.138734
-0.112544
-0.12006
-0.101312
-0.106321
-0.0947011
-0.0974463
-0.0928223
-0.0931614
-0.0957216
-0.0936735
-0.103842
-0.0990717
-0.117471
-0.118013
-0.110092
-0.103689
-0.0979137
-0.108372
-0.115599
-0.0978474
-0.127765
-0.126614
-0.0981522
-0.0951525
-0.0927831
-0.109651
-0.103147
-0.0915899
-0.112392
-0.0876237
-0.0952773
-0.0907547
-0.0847063
-0.0856443
-0.0860974
-0.0848859
-0.0917738
-0.0884031
-0.102094
-0.0963272
-0.1175
-0.109114
-0.138828
-0.127382
-0.166058
-0.151792
-0.196834
-0.18125
-0.226373
-0.21213
-0.248495
-0.238744
-0.257655
-0.254939
-0.251284
-0.256409
-0.23091
-0.242577
-0.2019
-0.217051
-0.171111
-0.186331
-0.143954
-0.156851
-0.1228
-0.132587
-0.107702
-0.114521
-0.0980356
-0.10228
-0.0949109
-0.101562
-0.100306
-0.101355
-0.101929
-0.0935275
-0.0952287
-0.0939327
-0.0953099
-0.0939531
-0.100871
-0.0976325
-0.110556
-0.10517
-0.124323
-0.116957
-0.141342
-0.132531
-0.159401
-0.150435
-0.174993
-0.167753
-0.184202
-0.180612
-0.184328
-0.1854
-0.174999
-0.180766
-0.158463
-0.167395
-0.138813
-0.148745
-0.120289
-0.129187
-0.105713
-0.112418
-0.0958438
-0.100205
-0.0903956
-0.09258
-0.0893418
-0.0893135
-0.0929487
-0.0905364
-0.101868
-0.0967013
-0.117021
-0.108577
-0.139516
-0.139573
-0.127283
-0.099839
-0.109469
-0.100897
-0.11521
-0.12405
-0.0913363
-0.154093
-0.137678
-0.152801
-0.117154
-0.137851
-0.153505
-0.117365
-0.0917723
-0.0974615
-0.0942362
-0.107893
-0.120213
-0.0862029
-0.0972911
-0.0911589
-0.0800774
-0.0825208
-0.0783263
-0.0787083
-0.0806693
-0.0790066
-0.0871536
-0.0833667
-0.0981582
-0.0920854
-0.114028
-0.105433
-0.135653
-0.124076
-0.163096
-0.148727
-0.194089
-0.178395
-0.223869
-0.209502
-0.246263
-0.236371
-0.255776
-0.252874
-0.249689
-0.254694
-0.229359
-0.241041
-0.200114
-0.215411
-0.168939
-0.18436
-0.141336
-0.154466
-0.119778
-0.129763
-0.104372
-0.111352
-0.0943369
-0.0987662
-0.0887537
-0.0910583
-0.0867675
-0.087321
-0.0995058
-0.0918825
-0.096098
-0.103664
-0.102056
-0.104092
-0.10436
-0.100685
-0.102842
-0.0893629
-0.0901818
-0.0902813
-0.0893807
-0.0947541
-0.0920773
-0.10297
-0.0983725
-0.114886
-0.108498
-0.129722
-0.122029
-0.145574
-0.137692
-0.15936
-0.152945
-0.167596
-0.164367
-0.167819
-0.168744
-0.159606
-0.164701
-0.144898
-0.152854
-0.127374
-0.136231
-0.110914
-0.118806
-0.098084
-0.103966
-0.0895737
-0.0932991
-0.0851944
-0.0868786
-0.0849224
-0.0845352
-0.0891161
-0.0864243
-0.0985147
-0.0931151
-0.114221
-0.105519
-0.124894
-0.171045
-0.170312
-0.0869509
-0.11602
-0.104055
-0.123984
-0.134666
-0.0975827
-0.126287
-0.151271
-0.126754
-0.16985
-0.19023
-0.190357
-0.124722
-0.0815647
-0.0814761
-0.111796
-0.12996
-0.0853049
-0.098016
-0.0913701
-0.076251
-0.0802763
-0.0715453
-0.0733606
-0.0709917
-0.0708047
-0.0742924
-0.0721545
-0.0815802
-0.0774278
-0.0930565
-0.0867817
-0.109208
-0.100493
-0.130932
-0.119333
-0.158264
-0.143974
-0.189026
-0.173454
-0.218613
-0.204326
-0.241021
-0.231088
-0.2508
-0.247741
-0.245091
-0.249904
-0.225071
-0.236617
-0.195966
-0.211213
-0.164808
-0.18023
-0.13716
-0.15032
-0.115519
-0.125549
-0.0999973
-0.107042
-0.0897661
-0.0942931
-0.0839106
-0.0863602
-0.0823513
-0.0932687
-0.0821102
-0.088021
-0.10174
-0.0978658
-0.106726
-0.104689
-0.107872
-0.107815
-0.104894
-0.106903
-0.101933
-0.0874833
-0.0936957
-0.0901804
-0.0844476
-0.0855788
-0.0845852
-0.0841118
-0.0879788
-0.0858701
-0.0947708
-0.0909442
-0.10489
-0.0994417
-0.117638
-0.111014
-0.131363
-0.124526
-0.143394
-0.137783
-0.150672
-0.1478
-0.150954
-0.151746
-0.143784
-0.148243
-0.130839
-0.13785
-0.11539
-0.123195
-0.100953
-0.107859
-0.0898336
-0.0949085
-0.0826468
-0.0857565
-0.0792527
-0.0804841
-0.0796758
-0.078973
-0.0843296
-0.0814341
-0.0940226
-0.0884848
-0.109953
-0.10111
-0.133716
-0.120786
-0.166831
-0.14902
-0.212076
-0.209071
-0.187155
-0.119432
-0.103943
-0.134522
-0.147459
-0.232865
-0.235194
-0.137169
-0.167028
-0.137243
-0.188541
-0.0836365
-0.0759118
-0.0769961
-0.134119
-0.211817
-0.126888
-0.0981522
-0.109972
-0.141735
-0.0829535
-0.09275
-0.0878224
-0.0726726
-0.077642
-0.0654467
-0.0685625
-0.0622543
-0.0633759
-0.0628572
-0.0620971
-0.0671324
-0.0645374
-0.0750867
-0.0706472
-0.0869017
-0.0804874
-0.103182
-0.094429
-0.12476
-0.113275
-0.151635
-0.137607
-0.181778
-0.166521
-0.210825
-0.196783
-0.23298
-0.22313
-0.242881
-0.239714
-0.237615
-0.242177
-0.218162
-0.229421
-0.189581
-0.204577
-0.158855
-0.174073
-0.13154
-0.144547
-0.110118
-0.120052
-0.0946925
-0.101705
-0.0844029
-0.0889762
-0.0783429
-0.0809051
-0.0757598
-0.0766817
-0.0754689
-0.0955417
-0.0898093
-0.104913
-0.100618
-0.110886
-0.108372
-0.112752
-0.112363
-0.110167
-0.112016
-0.0890786
-0.0935763
-0.103605
-0.107372
-0.0824365
-0.085399
-0.0788864
-0.0802932
-0.0783055
-0.078231
-0.0806837
-0.0791199
-0.086122
-0.0830198
-0.0945322
-0.0899788
-0.105313
-0.0996951
-0.117037
-0.111184
-0.127407
-0.122558
-0.133758
-0.131237
-0.134067
-0.134732
-0.127864
-0.131732
-0.11658
-0.122697
-0.103113
-0.109909
-0.0906238
-0.0965809
-0.0811475
-0.0854487
-0.0752129
-0.0777437
-0.0727178
-0.0735407
-0.0737388
-0.0727713
-0.0787201
-0.0756944
-0.0884829
-0.0829388
-0.104264
-0.0955314
-0.127627
-0.114879
-0.160491
-0.142799
-0.202585
-0.180363
-0.256927
-0.250378
-0.22645
-0.116008
-0.0978078
-0.258871
-0.280006
-0.273775
-0.146967
-0.162375
-0.149489
-0.185092
-0.0859351
-0.0788316
-0.148544
-0.209459
-0.143873
-0.234723
-0.134685
-0.0990245
-0.10219
-0.121809
-0.281958
-0.300904
-0.294961
-0.105483
-0.0832119
-0.0692834
-0.0700707
-0.0854138
-0.155611
-0.0756143
-0.0797459
-0.0674819
-0.0714936
-0.0594565
-0.06325
-0.0541046
-0.0563511
-0.0523693
-0.0527904
-0.0541485
-0.0528317
-0.0593001
-0.0563094
-0.0677853
-0.0631223
-0.0798333
-0.0733344
-0.0960747
-0.0873796
-0.117261
-0.10602
-0.143384
-0.12977
-0.172587
-0.157808
-0.200764
-0.187131
-0.222387
-0.212745
-0.232278
-0.229047
-0.227506
-0.231767
-0.208847
-0.219689
-0.181134
-0.195696
-0.151225
-0.166046
-0.124603
-0.137284
-0.103692
-0.113395
-0.0885753
-0.0954588
-0.0783919
-0.0829348
-0.0722189
-0.0748658
-0.0694199
-0.0704722
-0.0690329
-0.0988033
-0.0926434
-0.109205
-0.104345
-0.116221
-0.113217
-0.118779
-0.118092
-0.116659
-0.118283
-0.110153
-0.113888
-0.2846
-0.31248
-0.302262
-0.105521
-0.0837359
-0.0937508
-0.0883023
-0.0767984
-0.0798866
-0.0728079
-0.0744484
-0.0715587
-0.0718499
-0.0729973
-0.0719403
-0.0771749
-0.0747451
-0.0839997
-0.0802767
-0.0929586
-0.0882711
-0.102836
-0.0978908
-0.111668
-0.107527
-0.117145
-0.114959
-0.117457
-0.118009
-0.112132
-0.11546
-0.102384
-0.10767
-0.0907791
-0.0966262
-0.0801292
-0.0851897
-0.0721996
-0.0757742
-0.0674253
-0.0694234
-0.065737
-0.0661971
-0.0672593
-0.0660772
-0.072452
-0.0693575
-0.0821113
-0.0766607
-0.097435
-0.0889768
-0.12001
-0.107705
-0.151535
-0.134593
-0.192986
-0.171049
-0.240199
-0.216331
-0.263533
-0.161089
-0.179353
-0.0714499
-0.162973
-0.205034
-0.160632
-0.231882
-0.153823
-0.258339
-0.142111
-0.126452
-0.0863304
-0.10735
-0.303077
-0.318464
-0.314828
-0.325076
-0.100078
-0.0857475
-0.0668038
-0.0877524
-0.0939655
-0.0656023
-0.171219
-0.0651094
-0.0666117
-0.0587695
-0.0620865
-0.0520971
-0.0552574
-0.0460945
-0.0488787
-0.0425069
-0.043916
-0.0421819
-0.0419363
-0.0450418
-0.0432263
-0.0509322
-0.0476149
-0.0598333
-0.0549997
-0.0720023
-0.06548
-0.0880355
-0.0794903
-0.108615
-0.0977302
-0.133743
-0.120668
-0.161718
-0.147567
-0.188727
-0.17565
-0.20958
-0.200255
-0.21934
-0.216088
-0.215095
-0.219021
-0.197411
-0.207726
-0.170867
-0.184834
-0.142128
-0.156374
-0.116526
-0.128722
-0.0963902
-0.105739
-0.0817794
-0.0884427
-0.0718495
-0.0762935
-0.0657068
-0.0683608
-0.062667
-0.0638624
-0.0623033
-0.0622203
-0.0639105
-0.0628472
-0.0889623
-0.0733807
-0.0813366
-0.103016
-0.0962305
-0.114654
-0.109171
-0.122728
-0.119233
-0.126049
-0.125017
-0.124316
-0.125797
-0.117858
-0.121614
-0.107455
-0.113075
-0.0777134
-0.0823582
-0.0706481
-0.0738329
-0.0663129
-0.0681608
-0.0644667
-0.0650873
-0.0650475
-0.064454
-0.068073
-0.0662568
-0.0734554
-0.0704871
-0.0807612
-0.0769173
-0.0889667
-0.0848431
-0.0963999
-0.0929032
-0.101069
-0.0991972
-0.101367
-0.101824
-0.0968233
-0.0996681
-0.088476
-0.093002
-0.0785932
-0.0835599
-0.0696523
-0.0738798
-0.0631508
-0.0660565
-0.05943
-0.0609476
-0.0584494
-0.0585956
-0.0603728
-0.0590273
-0.0656612
-0.0625583
-0.0750736
-0.0697931
-0.0897354
-0.0816646
-0.11117
-0.0995009
-0.141043
-0.124965
-0.180403
-0.159574
-0.226112
-0.202822
-0.270172
-0.248956
-0.30078
-0.287769
-0.321208
-0.307687
-0.0653795
-0.176565
-0.198015
-0.101027
-0.177282
-0.226292
-0.172915
-0.254745
-0.163087
-0.281299
-0.148221
-0.129184
-0.107486
-0.0633309
-0.0836921
-0.320639
-0.331178
-0.331765
-0.321284
-0.30769
-0.0597262
-0.0447454
-0.0563077
-0.0573649
-0.0413642
-0.188396
-0.0485404
-0.0471821
-0.0472557
-0.0484673
-0.0423339
-0.0450479
-0.0371136
-0.0396123
-0.0329335
-0.0348365
-0.0309537
-0.0315937
-0.0319014
-0.0310626
-0.0356889
-0.0334513
-0.042185
-0.0386032
-0.0513937
-0.0464427
-0.0635619
-0.0570811
-0.0792333
-0.0709182
-0.0990298
-0.0885913
-0.122955
-0.110528
-0.149465
-0.136062
-0.175069
-0.162663
-0.194957
-0.186038
-0.20448
-0.201245
-0.200771
-0.204342
-0.184198
-0.193903
-0.15907
-0.172307
-0.1318
-0.145319
-0.107503
-0.119078
-0.0883757
-0.0972611
-0.0744449
-0.0808077
-0.0648961
-0.0691834
-0.0588668
-0.0614925
-0.0557056
-0.0569719
-0.0550118
-0.0550977
-0.0554473
-0.0758187
-0.0589156
-0.0672809
-0.092601
-0.0843126
-0.108015
-0.100479
-0.121154
-0.114975
-0.130355
-0.126333
-0.134512
-0.133102
-0.133175
-0.134531
-0.126682
-0.130553
-0.115796
-0.121753
-0.289675
-0.301126
-0.283281
-0.109042
-0.0811679
-0.0940111
-0.0871798
-0.0711898
-0.0758167
-0.0641107
-0.0673207
-0.0595053
-0.0615202
-0.0571426
-0.0580522
-0.0569559
-0.0567786
-0.0589473
-0.0576816
-0.06304
-0.0607457
-0.0688737
-0.0657805
-0.0755922
-0.0721997
-0.0817781
-0.0788574
-0.0857148
-0.0841301
-0.0859822
-0.0863624
-0.0821253
-0.0845433
-0.0750381
-0.0788767
-0.0667282
-0.070889
-0.0593518
-0.0628176
-0.0541461
-0.056447
-0.0513638
-0.0524561
-0.050991
-0.0508719
-0.05322
-0.0517591
-0.0584994
-0.0554425
-0.0675368
-0.0624941
-0.081369
-0.0737764
-0.101402
-0.0905133
-0.12924
-0.114251
-0.165958
-0.146511
-0.20929
-0.18716
-0.252317
-0.231583
-0.282674
-0.269956
-0.289438
-0.19285
-0.217776
-0.191543
-0.247812
-0.184209
-0.276755
-0.0609589
-0.0507536
-0.0523364
-0.170749
-0.302031
-0.152277
-0.129947
-0.105339
-0.080023
-0.0374415
-0.0552742
-0.333252
-0.337995
-0.331772
-0.314925
-0.271147
-0.288612
-0.101666
-0.0331811
-0.0215531
-0.0864922
-0.0937344
-0.0180165
-0.206501
-0.0282091
-0.0251512
-0.0310547
-0.030189
-0.0301483
-0.0311216
-0.0265895
-0.0285226
-0.0228418
-0.0246243
-0.0202102
-0.0213322
-0.0196536
-0.0196202
-0.0216826
-0.0203451
-0.0262366
-0.0236526
-0.0332132
-0.0294261
-0.0426173
-0.0376053
-0.0546657
-0.0482872
-0.0698456
-0.0618267
-0.0887155
-0.0787974
-0.111276
-0.0995812
-0.136147
-0.12358
-0.160171
-0.148522
-0.17895
-0.170503
-0.188148
-0.184967
-0.184964
-0.188174
-0.169586
-0.178625
-0.146062
-0.158465
-0.120506
-0.133174
-0.0977502
-0.10859
-0.0798229
-0.0881554
-0.0667175
-0.0727125
-0.0576588
-0.0617393
-0.0518321
-0.0543885
-0.0486108
-0.0499328
-0.0476077
-0.0478629
-0.0485366
-0.0478876
-0.0494735
-0.0788119
-0.0698445
-0.0968635
-0.0878874
-0.113947
-0.105578
-0.12859
-0.1217
-0.139012
-0.13441
-0.144086
-0.142265
-0.143204
-0.144404
-0.136596
-0.140547
-0.125102
-0.131378
-0.110088
-0.117975
-0.0739954
-0.0798846
-0.0643369
-0.0688359
-0.0572939
-0.0605112
-0.0524882
-0.0546318
-0.0496904
-0.0508466
-0.0488324
-0.0490205
-0.0499134
-0.0491324
-0.0528734
-0.0511704
-0.0574194
-0.0549823
-0.0628387
-0.060085
-0.0679305
-0.065516
-0.0712148
-0.0698883
-0.0714382
-0.0717593
-0.068177
-0.0702218
-0.062213
-0.0654357
-0.055325
-0.0587561
-0.0493607
-0.0521406
-0.0453104
-0.0470745
-0.0433481
-0.0440716
-0.0434836
-0.0431471
-0.0459277
-0.0443963
-0.051106
-0.0481419
-0.0596645
-0.0549137
-0.072536
-0.065492
-0.0909801
-0.0809742
-0.116468
-0.102756
-0.150021
-0.132241
-0.190286
-0.169556
-0.231167
-0.211314
-0.260898
-0.248451
-0.268571
-0.267929
-0.251117
-0.262675
-0.253868
-0.234431
-0.209058
-0.237691
-0.204767
-0.268387
-0.0634114
-0.0542442
-0.193715
-0.296458
-0.176367
-0.318937
-0.153923
-0.128409
-0.101418
-0.0747822
-0.0502756
-0.101617
-0.0148995
-0.0290496
-0.339599
-0.337809
-0.324885
-0.302168
-0.270631
-0.232567
-0.214138
-0.0122875
-0.00246051
-0.042728
-0.0440637
-0.000711786
-0.224638
-0.00763791
-0.00487394
-0.0123593
-0.0102105
-0.0146718
-0.0139219
-0.0142657
-0.0148043
-0.0119047
-0.0131971
-0.00945127
-0.0105931
-0.00814385
-0.00860277
-0.00876015
-0.00817587
-0.0116652
-0.00992491
-0.0168295
-0.0139721
-0.0241602
-0.0202285
-0.0336461
-0.0286288
-0.045467
-0.0392439
-0.0600502
-0.0523804
-0.0778855
-0.0685423
-0.0989722
-0.0880634
-0.122091
-0.110417
-0.144426
-0.133588
-0.161998
-0.154068
-0.170809
-0.167712
-0.168111
-0.170973
-0.153968
-0.16231
-0.132177
-0.14367
-0.108519
-0.12024
-0.0874863
-0.097503
-0.0709078
-0.0786177
-0.0587422
-0.064316
-0.0502629
-0.0540944
-0.0447159
-0.0471661
-0.0415187
-0.0428566
-0.0402813
-0.0406829
-0.0408718
-0.0404065
-0.0417063
-0.0824328
-0.0728184
-0.101891
-0.0921697
-0.120675
-0.111476
-0.136818
-0.1292
-0.148562
-0.143327
-0.154623
-0.152363
-0.15424
-0.155259
-0.147421
-0.151586
-0.135268
-0.141931
-0.119099
-0.127597
-0.193984
-0.191247
-0.171682
-0.109994
-0.078478
-0.0927068
-0.0853225
-0.0664916
-0.0721646
-0.0572335
-0.06155
-0.0503017
-0.0534993
-0.0453604
-0.0475994
-0.0422058
-0.0435673
-0.0407746
-0.041276
-0.0410704
-0.0407076
-0.0430547
-0.0418607
-0.0464944
-0.0446207
-0.0507975
-0.048593
-0.0549441
-0.0529682
-0.0576545
-0.0565574
-0.0578248
-0.0581023
-0.0550745
-0.0567957
-0.0501067
-0.0527807
-0.0444931
-0.04727
-0.0397866
-0.0419574
-0.0367489
-0.0380448
-0.0354887
-0.035899
-0.0360374
-0.0355288
-0.0386141
-0.0370524
-0.0436134
-0.040781
-0.0516132
-0.0471949
-0.0634338
-0.0569856
-0.0801769
-0.0711132
-0.103147
-0.0908056
-0.133294
-0.117316
-0.169763
-0.150916
-0.207777
-0.189092
-0.237018
-0.224336
-0.246023
-0.244377
-0.230146
-0.241533
-0.214041
-0.224294
-0.256621
-0.0455178
-0.216185
-0.286684
-0.200688
-0.312301
-0.17907
-0.330588
-0.153028
-0.124532
-0.0958768
-0.0687799
-0.0449407
-0.0254547
0.000356624
-0.0102746
-0.338822
-0.330436
-0.311512
-0.283661
-0.248275
-0.208607
-0.148038
-0.166847
-0.10055
0.000946269
0.00971738
-0.0835316
-0.0908004
0.00969677
-0.241767
0.00834524
0.00931987
0.00537621
0.00694161
0.00220039
0.00367333
0.000215151
0.000971524
0.000176643
-3.68297e-05
0.0015396
0.000771132
0.00290013
0.00230387
0.00313807
0.0032066
0.00160652
0.0026199
-0.00197879
7.306e-05
-0.00759947
-0.00454163
-0.0151566
-0.0111415
-0.0246154
-0.0196453
-0.0361156
-0.030093
-0.0500197
-0.0427389
-0.0667479
-0.0580144
-0.0863003
-0.0762065
-0.107617
-0.0968602
-0.128216
-0.118211
-0.144539
-0.137147
-0.152902
-0.149919
-0.150638
-0.153176
-0.137725
-0.145363
-0.117744
-0.128279
-0.0961114
-0.10682
-0.0769287
-0.0860613
-0.0618025
-0.0688411
-0.0506582
-0.0557724
-0.0428264
-0.046376
-0.0376225
-0.0399348
-0.0345194
-0.0358367
-0.0331704
-0.0336459
-0.0333797
-0.0331134
-0.0349292
-0.0340506
-0.0371745
-0.0360156
-0.0660022
-0.0470825
-0.0562802
-0.0863629
-0.0760347
-0.107457
-0.096867
-0.127919
-0.117902
-0.14563
-0.137237
-0.158792
-0.15288
-0.165899
-0.163176
-0.166036
-0.166864
-0.159087
-0.163414
-0.146102
-0.153208
-0.128627
-0.137753
-0.108681
-0.118899
-0.0700586
-0.0765607
-0.0588333
-0.0641649
-0.0499984
-0.0541324
-0.0432291
-0.0463784
-0.0382129
-0.0405163
-0.0347759
-0.0363032
-0.0328675
-0.0336312
-0.0325021
-0.0324919
-0.0336632
-0.0328986
-0.03617
-0.0347715
-0.0395294
-0.0377898
-0.0428699
-0.0412693
-0.0450803
-0.0441853
-0.0451915
-0.045438
-0.0428788
-0.0443198
-0.0387924
-0.040979
-0.0343125
-0.0365082
-0.0307112
-0.0323494
-0.0285455
-0.0294407
-0.0278739
-0.0280242
-0.0287469
-0.0281081
-0.0313832
-0.0298262
-0.0361407
-0.0334703
-0.0435258
-0.0394673
-0.0542432
-0.0484167
-0.0692288
-0.0611372
-0.0895956
-0.0786725
-0.116213
-0.102106
-0.148573
-0.131811
-0.182886
-0.165905
-0.210583
-0.198259
-0.220662
-0.218423
-0.20691
-0.216735
-0.172934
-0.19186
-0.128555
-0.151398
-0.124349
-0.105673
-0.0383751
-0.237486
-0.27331
-0.0982279
-0.224803
-0.301279
-0.204614
-0.322979
-0.17866
-0.335991
-0.149257
-0.118695
-0.0891047
-0.0625101
-0.0400658
-0.0223353
-0.00900546
0.00919881
0.000981518
-0.330933
-0.316419
-0.292408
-0.260528
-0.223142
-0.183232
-0.142095
-0.101452
-0.0835238
0.00837953
0.0165143
-0.0292438
-0.0301423
0.0153036
-0.256736
0.0179972
0.0173433
0.0181875
0.0182383
0.0170189
0.0177113
0.0150712
0.0160769
0.0134745
0.0141492
0.0131075
0.0131328
0.0136852
0.013337
0.0141587
0.0140038
0.0135695
0.0140397
0.0113508
0.0126855
0.00726644
0.00954395
0.00133908
0.00452587
-0.0063204
-0.00228085
-0.0156517
-0.0107762
-0.0267513
-0.0209667
-0.0399152
-0.0330516
-0.0554979
-0.0473901
-0.0735035
-0.0642278
-0.0930249
-0.0831803
-0.111901
-0.102724
-0.12697
-0.120125
-0.134835
-0.131995
-0.132938
-0.135186
-0.121216
-0.128162
-0.103078
-0.112631
-0.0835438
-0.0932008
-0.0662834
-0.0744972
-0.0526687
-0.0590081
-0.042595
-0.0472256
-0.0354561
-0.0387012
-0.030643
-0.0327932
-0.0276867
-0.0289573
-0.026268
-0.0268014
-0.0262072
-0.0260789
-0.027353
-0.0266543
-0.0282691
-0.0486179
-0.0309997
-0.0395635
-0.0685969
-0.0583267
-0.0904053
-0.079329
-0.113247
-0.101786
-0.13538
-0.124532
-0.154752
-0.145534
-0.169407
-0.162786
-0.177606
-0.174399
-0.178277
-0.178912
-0.171238
-0.175694
-0.157306
-0.16502
-0.138519
-0.148431
-0.117008
-0.127999
-0.0658498
-0.0628676
-0.0454836
-0.105805
-0.0741133
-0.0877517
-0.0808735
-0.0615368
-0.0676178
-0.0510978
-0.0560398
-0.0427329
-0.0466706
-0.0361635
-0.0392426
-0.0311263
-0.0334656
-0.0274774
-0.029133
-0.0251847
-0.0261611
-0.0242771
-0.0245565
-0.0247598
-0.0243493
-0.0264949
-0.0254898
-0.0290683
-0.0277169
-0.0317287
-0.0304462
-0.0335062
-0.0327882
-0.033556
-0.033781
-0.0316209
-0.0328176
-0.0283155
-0.0300691
-0.0248371
-0.0265211
-0.0221931
-0.0233728
-0.0207643
-0.0213232
-0.0205747
-0.0205146
-0.0216911
-0.02096
-0.0243241
-0.0228013
-0.0287916
-0.0263055
-0.0355289
-0.0318448
-0.0451273
-0.0399281
-0.058359
-0.0512356
-0.076136
-0.0666241
-0.0992127
-0.0869911
-0.127338
-0.112741
-0.157606
-0.142542
-0.183003
-0.171498
-0.193783
-0.190811
-0.182783
-0.191128
-0.151992
-0.169445
-0.109605
-0.131475
-0.0871786
-0.24761
-0.286477
-0.22983
-0.310949
-0.204934
-0.327624
-0.0320675
-0.023257
-0.0239482
-0.175099
-0.33462
-0.142984
-0.111164
-0.0817871
-0.0564143
-0.0359289
-0.0201207
-0.0082482
0.000541816
0.0138481
0.00720233
-0.31657
-0.296812
-0.268841
-0.234557
-0.196714
-0.157401
-0.117872
-0.0795995
-0.0270788
-0.043674
-0.0945576
0.0120081
0.0197289
-0.0771936
-0.0834884
0.0177057
-0.268389
0.0229247
0.0214136
0.025382
0.0242356
0.0268841
0.026261
0.0271181
0.0271634
0.0262532
0.0267799
0.0251254
0.025657
0.0245578
0.024752
0.0245327
0.0245129
0.0243186
0.0245044
0.0231107
0.0238777
0.0203997
0.021962
0.0159825
0.0184059
0.00988977
0.0131379
0.00224419
0.00625319
-0.00686829
-0.00212994
-0.0175
-0.011984
-0.0298833
-0.0234533
-0.0443138
-0.0368304
-0.060803
-0.0523258
-0.0785867
-0.0696232
-0.0957993
-0.0874223
-0.10964
-0.103336
-0.116972
-0.114302
-0.115355
-0.117358
-0.104763
-0.11104
-0.0884663
-0.0970318
-0.0710548
-0.0796474
-0.0557388
-0.0630236
-0.0436528
-0.0492846
-0.0346682
-0.0388056
-0.0282467
-0.0311742
-0.0238563
-0.0258276
-0.0210863
-0.0222904
-0.0196493
-0.0202156
-0.0193662
-0.0193716
-0.0201176
-0.0196211
-0.0216752
-0.0208606
-0.0224942
-0.0502473
-0.0408008
-0.0712111
-0.0604026
-0.0944922
-0.0826051
-0.118974
-0.106696
-0.142782
-0.131085
-0.163867
-0.1538
-0.180049
-0.172703
-0.189365
-0.185662
-0.190582
-0.191022
-0.183455
-0.188035
-0.168734
-0.176946
-0.148532
-0.159139
-0.125388
-0.137162
-0.10136
-0.113361
-0.064591
-0.0708647
-0.0530566
-0.0586064
-0.0434004
-0.0479851
-0.0355219
-0.0392517
-0.0291827
-0.0321746
-0.0241715
-0.0265209
-0.0203766
-0.022125
-0.0177877
-0.0189298
-0.01645
-0.0169601
-0.0163882
-0.0162626
-0.0174978
-0.0168125
-0.0194259
-0.0183943
-0.0215169
-0.0205025
-0.0229214
-0.0223579
-0.0229122
-0.0231215
-0.0213086
-0.0222892
-0.0186979
-0.0200668
-0.0160968
-0.0173352
-0.0142689
-0.0150609
-0.0134503
-0.0137329
-0.0136454
-0.0134199
-0.0149333
-0.0141431
-0.0175106
-0.0160459
-0.0216541
-0.019367
-0.0277307
-0.0244246
-0.0362244
-0.0316413
-0.0477526
-0.0415671
-0.0630315
-0.0548801
-0.0826675
-0.0722856
-0.106549
-0.0941444
-0.132562
-0.119546
-0.155168
-0.144774
-0.165985
-0.162594
-0.157929
-0.164508
-0.131008
-0.146554
-0.0915073
-0.1122
-0.0491602
-0.0701092
-0.0111744
-0.0293914
-0.00997753
0.0054365
-0.253769
-0.295013
-0.230749
-0.314843
-0.0329584
-0.0246478
-0.201439
-0.325739
-0.168486
-0.326449
-0.134693
-0.102676
-0.074431
-0.0510467
-0.0326412
-0.0186736
-0.0081593
-0.000236281
0.00556737
-0.0894604
0.0153756
0.00977187
-0.296897
-0.273127
-0.242648
-0.20763
-0.170372
-0.132462
-0.0952522
-0.0596839
-0.0260556
-0.0160679
-0.0166271
0.0125474
0.0203523
0.00534673
0.0204151
0.0175134
-0.275726
0.0249874
0.0228592
0.02878
0.0269979
0.0319567
0.0304398
0.0343802
0.0332728
0.0356837
0.0351853
0.0358007
0.0358726
0.0352085
0.0355481
0.0345865
0.0348713
0.0341345
0.0343556
0.0334027
0.0338452
0.0317445
0.0327237
0.0287053
0.0304145
0.0241035
0.0266008
0.0179739
0.0212218
0.0104485
0.0143767
0.00163675
0.00620009
-0.00847244
-0.00324862
-0.0200543
-0.0140636
-0.0333542
-0.0264787
-0.048394
-0.0406765
-0.0645392
-0.0564048
-0.0801856
-0.0725629
-0.0928435
-0.0870651
-0.099608
-0.0971368
-0.0981744
-0.0999818
-0.0886448
-0.0942795
-0.0741619
-0.08175
-0.0588555
-0.0663932
-0.0454603
-0.0518283
-0.0348824
-0.0398159
-0.0269777
-0.0306248
-0.0212782
-0.0238842
-0.0173284
-0.0191103
-0.0147749
-0.015896
-0.0133641
-0.0139396
-0.0129305
-0.0130322
-0.0133852
-0.013047
-0.0146223
-0.0139069
-0.0153779
-0.0519066
-0.0420577
-0.0738997
-0.0625377
-0.0984559
-0.085896
-0.124396
-0.111367
-0.149847
-0.137309
-0.172627
-0.16172
-0.190318
-0.182254
-0.200747
-0.196549
-0.202513
-0.202756
-0.195296
-0.199999
-0.179889
-0.188521
-0.158266
-0.169685
-0.133463
-0.146073
-0.107775
-0.120648
0.0335361
0.0337416
0.0466966
-0.0951391
-0.0666904
-0.0778637
-0.0724055
-0.0551373
-0.0608919
-0.0447125
-0.0497536
-0.0358316
-0.040078
-0.02844
-0.0319599
-0.0223539
-0.0252454
-0.0174095
-0.0197462
-0.0135297
-0.0153379
-0.010727
-0.0119909
-0.00906273
-0.00974917
-0.00857737
-0.0086744
-0.00919057
-0.00876033
-0.0105953
-0.00982475
-0.0122126
-0.0114229
-0.0132972
-0.0128673
-0.0132369
-0.0134317
-0.0119324
-0.012718
-0.00994163
-0.0109687
-0.0081013
-0.00895671
-0.00695638
-0.00742685
-0.00663185
-0.00669287
-0.0071246
-0.00677379
-0.00852148
-0.00770081
-0.0110011
-0.00961306
-0.0147995
-0.012719
-0.0202196
-0.0172856
-0.0276479
-0.0236561
-0.0375614
-0.0322622
-0.0504975
-0.0436198
-0.0669057
-0.0582532
-0.0867193
-0.076434
-0.108424
-0.0975221
-0.127849
-0.118804
-0.1381
-0.134594
-0.132621
-0.137575
-0.10979
-0.12323
-0.074088
-0.0930239
-0.0343742
-0.0542444
0.00261216
-0.0152441
0.0188987
-0.255343
-0.298142
-0.0170315
-0.227346
-0.312511
-0.194317
-0.317378
-0.159242
-0.31207
-0.124991
-0.0939392
-0.0676476
-0.0465976
-0.0303296
-0.0179301
-0.00860205
-0.00160213
0.00353112
0.00703684
0.0142772
0.00932793
-0.273364
-0.247043
-0.215608
-0.181114
-0.145308
-0.109472
-0.0747145
-0.0414711
-0.00989162
0.0193941
0.0584347
0.0459459
-0.0828392
0.0107254
0.0188547
-0.0665599
-0.0710834
0.0153982
-0.278022
0.0248465
0.0220336
0.0298267
0.0275039
0.0340599
0.032026
0.0377179
0.0359564
0.040724
0.0393123
0.042828
0.0419107
0.0437956
0.0434553
0.043782
0.0438848
0.0432694
0.0435581
0.0425605
0.0429405
0.0414545
0.0420847
0.0394795
0.0406041
0.0362456
0.0380353
0.0315853
0.0340949
0.0255317
0.0287249
0.0182209
0.0220238
0.00978095
0.014137
0.000235683
0.00515077
-0.0105422
-0.00498653
-0.0227579
-0.0164606
-0.0364447
-0.0294329
-0.0510807
-0.0437088
-0.0652819
-0.0583573
-0.0768124
-0.0715446
-0.0829617
-0.0807228
-0.0816235
-0.0832798
-0.0730921
-0.0781122
-0.0603808
-0.0670128
-0.0471249
-0.0536372
-0.0355871
-0.0410697
-0.026464
-0.0307235
-0.0196063
-0.0227768
-0.0146163
-0.0169046
-0.0111124
-0.0127003
-0.00879614
-0.00982193
-0.00744871
-0.00801274
-0.00692311
-0.0070896
-0.00714517
-0.00694176
-0.00804011
-0.00751563
-0.00927763
-0.00868202
-0.0100606
-0.00976284
-0.0337455
-0.0172915
-0.0251254
-0.0533885
-0.0431312
-0.0762633
-0.064412
-0.101998