/*--------------------------------*- C++ -*----------------------------------*\
  =========                 |
  \\      /  F ield         | OpenFOAM: The Open Source CFD Toolbox
   \\    /   O peration     | Website:  https://openfoam.org
    \\  /    A nd           | Version:  10
     \\/     M anipulation  |
\*---------------------------------------------------------------------------*/
FoamFile
{
    format      ascii;
    class       volVectorField;
    location    "28";
    object      U;
}
// * * * * * * * * * * * * * * * * * * * * * * * * * * * * * * * * * * * * * //

dimensions      [0 1 -1 0 0 0 0];

internalField   nonuniform List<vector> 
33313
(
(0.314385 0.0161449 -1.00579e-21)
(0.453461 0.0109037 6.18562e-22)
(0.395422 0.0306907 0)
(0.179924 0.0142797 0)
(0.77421 0.0305072 6.95884e-22)
(0.729034 0.0311123 0)
(0.609753 0.0343259 -4.74832e-22)
(0.647679 0.0238937 0)
(0.748326 0.0230691 5.12126e-22)
(0.615644 0.0221992 -6.87868e-23)
(0.689652 0.0296905 0)
(-0.0789279 0.0502634 -4.02655e-20)
(-0.0127611 0.00292116 -1.46497e-19)
(-0.0175517 0.0120014 -2.91087e-19)
(0.421388 -0.339909 -2.91902e-21)
(0.164065 -0.120394 2.59825e-20)
(0.145803 -0.114076 2.15079e-20)
(1.39519 -0.383365 0)
(1.42779 -0.262706 0)
(1.37954 -0.222435 0)
(1.40231 -0.301851 1.9797e-20)
(0.55417 0.0891009 0)
(0.468623 0.396741 -1.20584e-19)
(0.31275 0.35818 3.67296e-19)
(0.41287 0.0815929 -7.98082e-20)
(1.00478 -0.0204681 -5.22997e-20)
(1.00447 -0.0398458 3.62929e-20)
(1.00482 -0.0790886 0)
(0.96322 0.105218 -6.51041e-20)
(1.03612 0.10048 5.17899e-20)
(1.01594 0.081724 3.37062e-20)
(0.996741 -0.0193516 -3.25739e-20)
(0.882032 0.0570368 -2.45207e-20)
(-0.0245633 -0.0520514 7.61032e-20)
(-0.0593228 -0.0388776 -1.56749e-19)
(-0.062545 -0.0350085 9.81603e-20)
(-0.0856788 -0.0401355 1.33924e-20)
(1.12532 -0.0337852 -2.48819e-22)
(1.13173 -0.0345369 -7.56419e-21)
(1.57328 0.134019 -2.54872e-20)
(1.53986 0.113227 4.72872e-20)
(1.00468 -0.155151 -6.10607e-20)
(1.0114 -0.152704 -5.17072e-21)
(-0.0583806 -0.0269812 -6.39119e-20)
(-0.0745449 0.0915307 5.03011e-20)
(-0.105807 0.08172 -2.01139e-19)
(0.215587 0.581949 8.43221e-20)
(0.190402 0.438292 3.40827e-20)
(0.444734 -0.0481756 2.40539e-22)
(0.559593 -0.0278873 -1.23771e-21)
(1.04196 0.0682781 -4.55593e-20)
(1.05972 0.0627544 2.41146e-20)
(1.06365 -0.0981084 -4.76868e-20)
(1.01879 -0.061112 1.28567e-19)
(0.520887 0.616003 -1.5143e-20)
(0.452181 0.685101 3.19308e-20)
(0.687197 0.834344 -6.15366e-20)
(0.409563 0.771487 1.7866e-19)
(0.20595 -0.333753 5.50078e-20)
(0.337065 -0.618996 -4.03259e-21)
(0.23314 0.61551 -3.0346e-20)
(0.387179 -0.182877 2.37967e-19)
(0.22532 -0.122362 -7.20181e-20)
(0.0977103 -0.0843703 0)
(0.0934912 -0.00470108 0)
(0.126689 -0.0149583 1.2914e-20)
(1.32241 -0.171176 3.7106e-20)
(1.31671 -0.253659 0)
(1.31315 -0.249864 0)
(-0.214089 -0.0986469 1.45638e-20)
(-0.189823 -0.186392 0)
(-0.0737546 -0.17882 0)
(0.269263 0.00897948 9.21451e-21)
(1.61454 0.20173 9.53038e-20)
(-0.305099 0.121711 7.75417e-20)
(-0.241846 0.119463 4.47117e-20)
(0.0993234 0.147359 0)
(0.0153379 0.125773 1.62174e-20)
(1.47598 0.276987 9.30923e-20)
(1.52339 0.197885 -5.63786e-20)
(0.821672 -0.00657995 1.46146e-19)
(0.838342 0.00820289 -4.9317e-20)
(0.796228 -0.040649 0)
(1.51826 0.0968071 2.54702e-20)
(1.39772 0.149829 -5.59898e-21)
(0.850151 0.0590427 -2.22744e-20)
(0.104427 0.0323089 0)
(-0.029421 0.0674312 2.39497e-20)
(-0.073432 0.0642281 1.36218e-19)
(0.0366816 -0.0996948 2.86362e-19)
(-0.132773 0.298025 6.74069e-21)
(-0.174419 0.194802 -2.74565e-21)
(-0.0373679 0.183507 -4.51847e-19)
(0.00215676 0.257391 0)
(0.00330644 0.332277 5.52285e-20)
(1.04218 0.0630113 0)
(1.01566 0.0605526 -5.62414e-21)
(0.515874 -0.0535486 -6.349e-22)
(0.654886 -0.0373452 -6.54976e-22)
(1.40464 -0.240402 0)
(1.40491 -0.27876 -4.34571e-20)
(1.40818 -0.210783 0)
(1.40621 -0.158223 2.04979e-20)
(1.42902 -0.17156 3.27452e-21)
(1.37045 -0.153048 -2.26539e-20)
(0.300932 0.00060201 -2.54835e-21)
(0.211496 -0.0331906 -8.5603e-20)
(-0.00436666 -0.0408806 -6.04586e-20)
(0.00538235 -0.036861 -3.02478e-22)
(0.884894 -0.586571 -1.23467e-20)
(1.06743 -0.718747 2.39059e-20)
(0.895582 -0.684126 6.96362e-20)
(0.698476 -0.484957 0)
(0.750228 -0.208611 7.18463e-20)
(0.286517 -0.0375348 3.58764e-20)
(0.671673 -0.0859121 -3.25724e-20)
(0.21759 0.13294 -4.30745e-19)
(0.184719 0.287016 4.81965e-20)
(1.41718 -0.165672 9.44392e-22)
(1.40738 -0.157293 0)
(-0.0480358 0.0126147 0)
(-0.0303681 -0.00772152 9.71988e-20)
(-0.032504 0.00734082 0)
(0.370233 -0.0162687 -2.2252e-21)
(0.433914 -0.012319 1.60968e-21)
(0.226592 -0.0374607 -7.07222e-21)
(0.839908 0.813866 1.01228e-19)
(1.09939 -0.0789673 3.64972e-23)
(1.09244 -0.0761708 0)
(0.176796 0.271222 4.31868e-20)
(0.257182 0.103443 -5.92738e-20)
(0.0502004 0.114716 -1.61904e-19)
(0.0322313 0.0780129 2.92422e-19)
(0.972748 0.755222 -1.19757e-21)
(1.13571 0.759544 -3.00632e-20)
(1.00491 0.709396 0)
(0.831689 0.64773 0)
(0.482678 -0.336601 1.81895e-22)
(0.600179 -0.422634 0)
(0.82219 -0.692989 -1.30899e-19)
(0.825966 -0.671922 -7.50713e-20)
(0.699054 -0.694085 1.42809e-19)
(1.10183 -0.0759314 8.94071e-23)
(1.10663 -0.0768569 2.25896e-21)
(1.10606 -0.0817071 -2.84217e-23)
(1.08003 -0.0100301 0)
(1.08398 -0.0100073 -5.85127e-21)
(1.08522 -0.0132847 9.12026e-21)
(1.08879 -0.0152574 5.75846e-21)
(0.985856 -0.190198 4.56079e-20)
(0.998672 -0.195745 0)
(0.985175 -0.150502 -7.84359e-20)
(0.992219 -0.16485 4.47086e-20)
(0.948509 0.126222 2.76412e-20)
(0.943305 0.148005 -4.25652e-20)
(0.964765 0.155286 2.6157e-20)
(0.96006 0.165468 1.50172e-19)
(-0.148052 0.105838 1.24879e-20)
(-0.296501 -0.000110288 0)
(-0.229125 0.0181834 -2.05323e-20)
(0.0195838 0.0526437 -2.41378e-19)
(0.486312 0.402699 1.83445e-20)
(0.515859 0.477902 1.21295e-20)
(0.928452 0.791951 -2.35132e-20)
(0.524304 0.54074 7.10001e-21)
(-0.152373 0.374709 0)
(-0.172243 0.264678 1.40058e-19)
(-0.180609 0.434093 -9.42202e-20)
(0.549539 0.0854303 0)
(0.793571 0.027545 0)
(0.851218 0.0290582 1.31849e-22)
(1.06525 0.00123665 6.10573e-21)
(1.06591 -0.00222643 -3.85507e-21)
(1.08163 0.00577531 6.45169e-22)
(1.08567 0.00925275 -2.81371e-23)
(1.0125 -0.0925787 1.08844e-20)
(1.02431 -0.0772432 -4.6992e-20)
(0.835947 -0.059633 1.86804e-19)
(0.777415 -0.0702424 -1.51794e-19)
(1.14779 0.29305 0)
(1.16695 0.29459 0)
(1.10149 -0.0144267 -1.30728e-22)
(1.10634 -0.013277 -1.45085e-21)
(1.12829 0.181934 -2.02761e-20)
(1.12093 0.174189 7.26888e-21)
(0.432348 -0.0868344 0)
(0.433863 -0.125808 -1.24331e-21)
(0.793584 -0.133227 3.8294e-20)
(0.836606 -0.21045 4.43703e-20)
(0.510829 -0.0206138 2.72316e-22)
(-0.32448 0.00968778 -2.15651e-19)
(0.845876 0.0874826 -5.12316e-20)
(0.875332 0.0818275 2.18882e-20)
(0.464976 -0.134454 1.41139e-20)
(0.480283 -0.221588 0)
(0.951976 0.280913 0)
(0.931466 0.324145 -6.46495e-21)
(0.909157 0.421114 -4.95162e-20)
(0.947287 -0.231686 2.74005e-20)
(0.915236 -0.253678 0)
(0.908392 -0.401769 3.34868e-20)
(0.818059 0.0470851 -4.3614e-20)
(0.847546 0.0503228 5.22244e-20)
(1.03965 -0.0701636 4.11336e-21)
(1.03302 -0.0629465 -9.0542e-21)
(-0.123617 0.199755 0)
(-0.0907332 0.136449 -7.20816e-20)
(1.20569 -0.618691 -9.69203e-21)
(1.15172 -0.633942 7.54883e-21)
(1.02844 -0.0588372 -3.18637e-20)
(1.0333 -0.0679422 3.79961e-20)
(0.740749 0.0310155 -1.16142e-23)
(0.809661 0.029303 1.34509e-23)
(0.806796 0.0296839 4.75117e-22)
(0.750002 0.0300092 3.08505e-22)
(0.543864 -0.41225 1.24902e-20)
(-0.031525 0.0551689 1.69505e-19)
(-0.0173143 0.0217922 -7.92175e-20)
(1.00191 0.213721 1.07177e-20)
(0.997847 0.195173 -5.07747e-21)
(1.00971 0.191726 5.09902e-21)
(1.01583 0.210701 0)
(1.40953 -0.161857 -1.35857e-20)
(1.40534 -0.149713 7.87118e-22)
(1.39814 -0.145151 1.32285e-20)
(1.15099 0.299302 0)
(1.13057 0.299385 -2.23647e-20)
(1.15104 0.295647 0)
(-0.0760517 0.0546766 -8.17673e-20)
(-0.0277956 0.0186621 -1.8484e-19)
(-0.033819 0.0228565 0)
(0.194041 -0.133644 -2.43923e-21)
(0.161796 -0.115898 -3.469e-22)
(1.06379 0.00268523 4.14465e-21)
(1.06786 -0.0156055 -3.34721e-21)
(1.06994 -0.013632 -1.50645e-21)
(1.29402 -0.379451 0)
(1.02527 -0.160511 0)
(1.00871 -0.567472 -2.63745e-21)
(1.00758 -0.561982 -2.5472e-21)
(1.00484 -0.558216 3.65068e-21)
(1.00165 -0.557665 -2.87162e-22)
(0.996693 -0.558677 0)
(0.991734 -0.561267 -2.49153e-21)
(0.9863 -0.563168 2.49119e-21)
(0.980827 -0.56159 2.89675e-21)
(0.975329 -0.553615 -2.89493e-21)
(0.970123 -0.536342 -3.41579e-21)
(0.965106 -0.50781 3.41349e-21)
(0.960645 -0.466727 3.98697e-21)
(0.956581 -0.41294 -3.98411e-21)
(0.953318 -0.346993 0)
(0.950608 -0.27034 0)
(0.948849 -0.184938 0)
(0.947659 -0.0932832 4.9281e-21)
(0.947792 0.00186447 -4.93219e-21)
(0.949412 0.0975518 0)
(0.952931 0.190818 0)
(0.957826 0.278407 0)
(0.964422 0.357663 4.3121e-21)
(0.971933 0.426039 -2.62486e-22)
(0.980667 0.482279 -7.82802e-21)
(0.988926 0.525547 3.77784e-21)
(0.998582 0.556851 -3.23955e-21)
(1.00452 0.576037 9.94979e-21)
(1.01218 0.586831 2.47375e-23)
(1.01707 0.589963 0)
(1.02218 0.588198 8.04652e-22)
(1.02621 0.582887 0)
(1.02897 0.57565 -1.46543e-21)
(1.00872 -0.56397 0)
(1.01134 -0.574876 5.5238e-21)
(1.01266 -0.571967 1.59363e-21)
(1.01031 -0.575259 1.45104e-21)
(1.03128 0.560195 -1.45053e-21)
(1.03034 0.567297 1.36455e-21)
(1.01638 0.578422 0)
(1.02482 0.565678 -6.77158e-22)
(1.02108 0.572619 -7.08664e-22)
(1.00288 0.582514 0)
(1.0103 0.582152 0)
(0.984715 0.565638 0)
(0.994114 0.57746 0)
(0.963195 0.513469 -4.4005e-25)
(0.974658 0.545113 0)
(0.941676 0.414628 0)
(0.952405 0.470194 0)
(0.924153 0.269572 -1.19552e-23)
(0.932222 0.347293 0)
(0.913784 0.0918795 0)
(0.917983 0.183539 0)
(0.910958 -0.0965565 -1.25667e-23)
(0.911515 -0.00253822 0)
(0.914914 -0.271521 -1.18638e-23)
(0.912131 -0.187143 0)
(0.924591 -0.411843 -1.0661e-23)
(0.919122 -0.347116 -1.39304e-27)
(0.938531 -0.504035 0)
(0.931144 -0.464321 0)
(0.954939 -0.547385 0)
(0.946535 -0.53127 0)
(0.972013 -0.555793 0)
(0.963525 -0.55456 0)
(0.987323 -0.552112 0)
(0.980052 -0.554094 0)
(0.999769 -0.553825 1.34472e-21)
(0.994129 -0.552054 3.56352e-22)
(1.00474 -0.558137 -1.17048e-23)
(1.01275 -0.584038 -5.55618e-24)
(1.01612 -0.582247 8.195e-22)
(1.02652 0.558975 0)
(1.00986 -0.584216 -4.65638e-21)
(1.03023 0.552145 0)
(1.03132 0.551864 1.63376e-21)
(1.01358 -0.594312 1.22721e-23)
(1.0187 -0.593045 -8.33982e-22)
(1.02829 0.552153 -3.05458e-21)
(1.03648 0.557877 0)
(1.00892 -0.593933 -7.59516e-22)
(1.03413 0.549617 -1.49229e-21)
(1.02025 -0.605483 -8.79503e-22)
(1.00658 -0.604157 8.00867e-22)
(1.01329 -0.605503 0)
(1.00983 -0.574894 -2.9744e-23)
(1.00469 -0.591545 1.34565e-21)
(1.00753 -0.582715 2.95572e-21)
(1.01073 -0.56346 8.63886e-23)
(1.01043 -0.56816 -1.39715e-21)
(1.00981 -0.56056 -3.05644e-24)
(1.01068 -0.560607 -3.01281e-21)
(1.00576 -0.565772 0)
(1.00794 -0.562538 0)
(1.00096 -0.566843 0)
(1.00335 -0.568155 0)
(0.996596 -0.541388 0)
(0.998694 -0.55884 0)
(0.992916 -0.470807 0)
(0.994664 -0.512445 0)
(0.989989 -0.349194 0)
(0.99135 -0.416196 0)
(0.98809 -0.18413 0)
(0.988862 -0.271182 0)
(0.988933 0.00677222 0)
(0.988073 -0.0905516 0)
(0.993271 0.200111 0)
(0.990591 0.10472 0)
(1.00188 0.369973 0)
(0.997072 0.289516 0)
(1.01351 0.494992 -1.0696e-25)
(1.00745 0.438963 0)
(1.0255 0.567258 6.89786e-26)
(1.01938 0.53755 0)
(1.03365 0.593957 -5.59295e-22)
(1.02911 0.585425 -7.60064e-21)
(1.0373 0.591579 -1.66697e-21)
(1.03534 0.595277 2.99493e-21)
(1.03822 0.576096 1.47823e-21)
(1.03827 0.58471 -7.90138e-22)
(1.03761 0.56724 0)
(1.02959 0.546701 -3.92801e-22)
(1.03053 0.54247 -6.5805e-23)
(1.0295 0.545596 0)
(1.0198 0.56172 -8.78463e-23)
(1.02727 0.549685 2.97371e-21)
(1.02386 0.55552 0)
(1.00784 0.572128 0)
(1.01453 0.567408 3.60469e-22)
(0.990961 0.573815 -4.59859e-22)
(0.999938 0.574677 0)
(0.969427 0.554938 0)
(0.980664 0.567717 4.61121e-22)
(0.944426 0.501762 -5.21932e-25)
(0.957278 0.533554 0)
(0.919703 0.404005 0)
(0.931869 0.458734 0)
(0.899608 0.262077 1.19092e-23)
(0.908856 0.338007 0)
(0.887467 0.0886923 0)
(0.892432 0.178104 0)
(0.884217 -0.0952174 1.25489e-23)
(0.884767 -0.00339779 0)
(0.889298 -0.266414 1.1861e-23)
(0.885762 -0.183875 0)
(0.901621 -0.403687 1.06686e-23)
(0.894669 -0.340333 1.39342e-27)
(0.919149 -0.494213 0)
(0.909881 -0.455149 0)
(0.939775 -0.537162 0)
(0.929201 -0.521101 0)
(0.961306 -0.546249 0)
(0.9506 -0.544551 0)
(0.980792 -0.544048 5.84364e-24)
(0.971492 -0.545202 0)
(0.996378 -0.547323 0)
(0.989098 -0.544605 0)
(1.00892 -0.559253 0)
(1.00282 -0.55236 0)
(1.01988 -0.578492 -3.99949e-22)
(1.01473 -0.568002 -1.80095e-21)
(1.0282 -0.603391 -5.77088e-22)
(1.02458 -0.590424 2.37491e-21)
(1.02944 0.546809 1.16312e-21)
(1.00011 -0.600799 -1.41597e-21)
(1.02137 -0.617707 9.02565e-22)
(1.03177 -0.616934 -1.27112e-21)
(1.02625 0.536839 8.56112e-22)
(1.03215 0.538189 1.11872e-21)
(1.02634 0.531776 5.52715e-22)
(1.00286 -0.614087 0)
(1.02705 0.545622 1.41134e-21)
(1.0301 0.545049 3.75845e-22)
(1.03153 0.541759 1.62121e-21)
(0.994149 -0.609562 -3.11442e-23)
(1.01183 -0.616739 0)
(1.00054 -0.587536 -3.54676e-22)
(0.985914 -0.60287 -1.81058e-21)
(0.994029 -0.595449 7.18239e-22)
(1.00965 -0.57275 -1.40665e-21)
(1.00554 -0.579604 0)
(1.01462 -0.562668 4.00419e-23)
(1.01252 -0.566885 6.98954e-22)
(1.01752 -0.560943 -1.81461e-22)
(1.01638 -0.560496 2.25976e-22)
(1.01819 -0.567087 0)
(1.01802 -0.563511 0)
(1.01835 -0.568262 0)
(1.01824 -0.569592 0)
(1.01904 -0.542448 0)
(1.01863 -0.560095 0)
(1.02007 -0.471426 0)
(1.01955 -0.513268 0)
(1.02104 -0.349478 0)
(1.02058 -0.416621 0)
(1.02203 -0.184194 -7.05471e-24)
(1.02149 -0.271348 0)
(1.02376 0.00731711 0)
(1.02277 -0.0904537 0)
(1.02719 0.201825 0)
(1.0252 0.105843 0)
(1.03307 0.372938 0)
(1.02983 0.291859 0)
(1.0407 0.498704 -5.04438e-26)
(1.03679 0.442414 0)
(1.04781 0.570415 2.26904e-26)
(1.0445 0.541192 0)
(1.05199 0.595847 -7.09648e-23)
(1.05028 0.587928 0)
(1.0517 0.591654 -2.01369e-22)
(1.0522 0.596291 -1.8401e-21)
(1.04777 0.574375 3.84378e-22)
(1.05012 0.58378 2.08445e-22)
(1.04143 0.554743 -3.69457e-22)
(1.04484 0.56447 -7.38062e-22)
(1.03716 0.54601 3.75357e-22)
(1.02839 0.542619 -4.85765e-22)
(1.02681 0.540662 0)
(1.03245 0.542002 1.06827e-21)
(1.03011 0.543173 -1.90991e-22)
(1.01603 0.55578 4.00627e-23)
(1.02193 0.550529 0)
(1.00091 0.564231 8.63686e-23)
(1.00903 0.560555 -1.41625e-22)
(0.980707 0.563412 6.80896e-24)
(0.991483 0.565624 9.80259e-23)
(0.955953 0.542397 0)
(0.968849 0.556182 0)
(0.927966 0.48832 -5.90426e-25)
(0.942187 0.520247 0)
(0.900511 0.391912 -9.41553e-24)
(0.91393 0.445652 0)
(0.878159 0.253489 0)
(0.888449 0.327441 0)
(0.864428 0.0847339 0)
(0.870086 0.171771 0)
(0.860683 -0.0945616 0)
(0.861301 -0.00503061 0)
(0.866672 -0.261558 -1.03548e-23)
(0.86252 -0.181018 0)
(0.88108 -0.395654 0)
(0.872955 -0.333747 0)
(0.901714 -0.483999 0)
(0.890768 -0.44592 0)
(0.926279 -0.525691 0)
(0.913665 -0.510118 0)
(0.951906 -0.534936 0)
(0.939183 -0.532959 0)
(0.975184 -0.534218 -5.89037e-24)
(0.964021 -0.534523 0)
(0.994313 -0.539167 0)
(0.985251 -0.535564 0)
(1.01035 -0.552772 6.82247e-22)
(1.00263 -0.545048 0)
(1.02472 -0.573134 -6.82791e-24)
(1.0177 -0.562159 -6.89225e-22)
(1.03735 -0.599335 -1.147e-22)
(1.03132 -0.585534 1.52128e-21)
(1.03401 -0.630547 -1.85885e-21)
(1.04793 -0.628507 0)
(1.043 -0.613776 -1.20362e-21)
(0.985986 -0.61696 4.07311e-21)
(0.97577 -0.608588 -2.12494e-21)
(0.99711 -0.623221 1.85963e-21)
(1.02095 -0.630183 0)
(1.03546 0.539288 -1.67359e-21)
(1.05178 -0.642457 0)
(1.03527 -0.643226 4.41004e-21)
(1.0213 0.532998 -3.87258e-22)
(1.01981 0.527059 5.04968e-22)
(1.03421 0.531983 1.57738e-21)
(0.975658 -0.621542 0)
(0.963333 -0.611022 -1.19342e-21)
(1.02692 0.525124 0)
(1.00873 -0.62756 0)
(0.978262 -0.593798 1.47951e-21)
(0.951651 -0.598045 1.21115e-21)
(0.966064 -0.597589 -1.20362e-21)
(0.996825 -0.581247 -2.28369e-22)
(0.988358 -0.587869 7.08842e-22)
(1.0098 -0.568272 -9.686e-22)
(1.00381 -0.574433 1.59898e-22)
(1.01896 -0.559645 -2.54949e-22)
(1.01479 -0.56317 0)
(1.02578 -0.559163 -9.44218e-26)
(1.02262 -0.558191 1.71332e-22)
(1.03106 -0.565802 0)
(1.02853 -0.562089 0)
(1.03619 -0.566733 0)
(1.03356 -0.568233 0)
(1.04197 -0.540622 0)
(1.03902 -0.558376 0)
(1.04785 -0.469757 0)
(1.04496 -0.51145 0)
(1.05291 -0.348376 6.40446e-24)
(1.05053 -0.415206 0)
(1.05669 -0.183485 7.05472e-24)
(1.05497 -0.270513 0)
(1.05944 0.0083029 0)
(1.05815 -0.0896322 0)
(1.06209 0.203672 0)
(1.06071 0.107157 0)
(1.06554 0.375948 0)
(1.06369 0.294325 0)
(1.06941 0.501975 1.7988e-26)
(1.06752 0.445722 0)
(1.07179 0.572516 -3.44968e-26)
(1.07093 0.544009 0)
(1.07085 0.595731 -4.05116e-24)
(1.07182 0.588976 0)
(1.06596 0.58941 -7.02138e-24)
(1.06891 0.595079 0)
(1.0576 0.570378 -3.96445e-22)
(1.06214 0.580676 0)
(1.04699 0.549572 -3.59725e-22)
(1.05245 0.559928 7.59382e-22)
(1.04076 0.540523 -5.43051e-22)
(1.02665 0.540185 9.14171e-23)
(1.02349 0.53745 3.68308e-22)
(1.03434 0.540665 1.55921e-21)
(1.03018 0.541298 1.92917e-22)
(1.02746 0.54022 -1.67895e-21)
(1.03896 0.535133 1.42021e-21)
(1.03357 0.537042 -1.37906e-22)
(1.01331 0.548425 2.63562e-25)
(1.02079 0.544231 3.47017e-22)
(0.995108 0.554646 -3.70254e-22)
(1.00478 0.552145 0)
(0.972128 0.551437 -6.05038e-24)
(0.984301 0.554883 0)
(0.944519 0.528354 0)
(0.958861 0.543129 0)
(0.913953 0.473526 -6.39121e-25)
(0.92941 0.505566 0)
(0.884209 0.378606 9.41553e-24)
(0.898705 0.431289 0)
(0.859915 0.243876 0)
(0.871117 0.315747 0)
(0.844761 0.0801096 0)
(0.851044 0.16456 0)
(0.840444 -0.0939108 0)
(0.841217 -0.00701049 0)
(0.847051 -0.255956 1.03548e-23)
(0.842435 -0.177808 0)
(0.863224 -0.386069 0)
(0.854087 -0.326006 0)
(0.886649 -0.471649 0)
(0.874187 -0.434796 0)
(0.914744 -0.512007 0)
(0.90031 -0.496894 0)
(0.943985 -0.521714 0)
(0.929486 -0.519279 0)
(0.970582 -0.522827 5.27416e-24)
(0.957788 -0.522123 0)
(0.993009 -0.5296 0)
(0.982285 -0.525142 0)
(1.01245 -0.544378 2.25119e-25)
(1.00299 -0.536103 0)
(1.03024 -0.565536 0)
(1.02152 -0.554216 0)
(1.04694 -0.592712 3.76754e-22)
(1.03878 -0.57844 0)
(1.06224 -0.623596 -3.27834e-21)
(1.05484 -0.607937 2.01352e-22)
(1.05438 -0.654367 -4.5082e-21)
(1.0745 -0.65202 4.10653e-21)
(1.06887 -0.638697 -5.82421e-22)
(1.03918 0.538381 -5.33497e-23)
(0.948554 -0.609204 0)
(0.934933 -0.593966 -1.34368e-22)
(0.989586 -0.6301 -1.83443e-21)
(1.0193 -0.641127 -9.88448e-22)
(1.01894 0.519543 -1.43181e-21)
(1.07872 -0.661917 7.25625e-23)
(1.09497 -0.645994 4.26119e-21)
(1.1024 -0.657537 -9.23956e-21)
(0.963343 -0.622254 -2.01984e-21)
(1.03458 -0.653447 -2.00806e-21)
(1.05509 -0.662402 4.36275e-21)
(0.931307 -0.601155 0)
(1.043 0.529435 -1.33186e-21)
(1.04435 0.534581 -2.32081e-22)
(1.0498 0.529268 -1.43149e-21)
(0.915744 -0.583386 1.70063e-21)
(1.00403 -0.636716 9.92918e-22)
(0.941043 -0.583031 6.94134e-22)
(0.902122 -0.5644 0)
(0.922795 -0.576974 -2.22304e-21)
(0.9711 -0.582443 3.07899e-22)
(0.95713 -0.584434 -3.11152e-22)
(0.993423 -0.572773 2.99942e-22)
(0.983081 -0.578134 -6.12237e-22)
(1.01027 -0.561738 0)
(1.00239 -0.567048 0)
(1.02349 -0.554649 0)
(1.01727 -0.557414 0)
(1.03431 -0.555225 -5.57425e-24)
(1.02913 -0.55385 0)
(1.04401 -0.562053 0)
(1.03921 -0.558346 0)
(1.05404 -0.562621 0)
(1.04892 -0.564323 0)
(1.06491 -0.53635 0)
(1.05941 -0.554115 0)
(1.07562 -0.465943 0)
(1.07038 -0.507328 0)
(1.08474 -0.345464 -6.40447e-24)
(1.08046 -0.411814 0)
(1.09138 -0.181502 0)
(1.0884 -0.268084 0)
(1.0954 0.00956354 0)
(1.09369 -0.0880559 0)
(1.09752 0.20471 0)
(1.09664 0.108244 0)
(1.09865 0.376966 0)
(1.09818 0.295371 0)
(1.09868 0.502448 8.43172e-26)
(1.09888 0.446574 0)
(1.09621 0.571577 -8.95272e-26)
(1.09785 0.543876 0)
(1.09006 0.592922 4.05142e-24)
(1.09362 0.587144 0)
(1.0802 0.584851 0)
(1.08555 0.591365 0)
(1.06749 0.564497 0)
(1.07411 0.575392 0)
(1.05288 0.542729 7.14942e-22)
(1.06025 0.55348 0)
(1.03681 0.52437 -1.71624e-21)
(1.0448 0.533315 3.35612e-22)
(1.01871 0.510657 2.67412e-21)
(1.02801 0.517109 -8.28651e-23)
(1.01552 0.530447 -3.74185e-22)
(1.01018 0.515275 3.53852e-22)
(1.01247 0.523598 0)
(1.02424 0.539286 0)
(1.01937 0.535739 0)
(1.0356 0.540985 -2.02944e-22)
(1.02965 0.541054 7.80973e-22)
(1.04916 0.535654 9.63299e-22)
(1.04216 0.539162 -1.52308e-21)
(1.02852 0.533403 -4.9856e-24)
(1.03614 0.530828 -1.46656e-21)
(1.01155 0.539731 3.03701e-25)
(1.02048 0.536543 0)
(0.990662 0.543752 -1.07182e-23)
(1.00165 0.542411 0)
(0.965108 0.538127 4.47324e-25)
(0.978497 0.54271 0)
(0.935107 0.513078 0)
(0.950622 0.528735 0)
(0.902424 0.457669 -6.72164e-25)
(0.918905 0.489759 0)
(0.870812 0.364363 0)
(0.886203 0.415936 0)
(0.844877 0.233465 0)
(0.856865 0.30318 0)
(0.828437 0.07498 0)
(0.835299 0.156671 0)
(0.823572 -0.0932447 0)
(0.824502 -0.00924726 0)
(0.830597 -0.249856 0)
(0.825653 -0.174328 0)
(0.848165 -0.375546 -7.83396e-24)
(0.838206 -0.317545 0)
(0.873982 -0.457934 0)
(0.860206 -0.422515 0)
(0.905182 -0.496677 -6.02299e-24)
(0.889144 -0.482133 0)
(0.937598 -0.506831 0)
(0.92154 -0.503915 0)
(0.967081 -0.509882 -5.27416e-24)
(0.952876 -0.508116 0)
(0.992369 -0.51851 0)
(0.980192 -0.513225 0)
(1.0149 -0.534265 2.75103e-25)
(1.00386 -0.525595 0)
(1.03623 -0.556032 0)
(1.02566 -0.544406 0)
(1.0569 -0.583696 6.74243e-24)
(1.04665 -0.569163 0)
(1.07695 -0.615487 -1.32614e-21)
(1.06703 -0.599382 -5.79053e-22)
(1.08628 -0.631486 1.13966e-21)
(1.0807 -0.66608 5.46694e-21)
(1.1082 -0.663736 5.15659e-21)
(1.00863 0.505707 0)
(0.894185 -0.565385 -5.65908e-21)
(0.879275 -0.544319 1.79589e-21)
(0.97965 -0.633546 2.03851e-21)
(1.01548 -0.649457 4.92815e-22)
(1.05645 0.530454 -1.4302e-21)
(0.948391 -0.617067 0)
(1.03199 -0.659259 0)
(0.911499 -0.585516 -2.18816e-21)
(1.05345 -0.664007 0)
(1.11141 -0.66178 0)
(1.08 -0.661417 -5.52899e-21)
(0.870084 -0.536617 7.24606e-21)
(1.0192 0.500505 -4.9908e-21)
(1.00774 0.495137 1.51935e-21)
(0.854081 -0.513306 -1.48246e-22)
(0.997134 -0.642756 4.68534e-22)
(0.889636 -0.543192 -1.36488e-21)
(0.839454 -0.488303 -7.89777e-22)
(0.865707 -0.521007 1.39991e-21)
(0.931512 -0.566031 1.30979e-23)
(0.91173 -0.557843 -2.98732e-22)
(0.964766 -0.569019 -1.92721e-24)
(0.949176 -0.569308 2.79526e-22)
(0.990644 -0.562273 0)
(0.978516 -0.566293 0)
(1.01113 -0.553356 0)
(1.00143 -0.557712 0)
(1.02812 -0.547772 0)
(1.01998 -0.54985 0)
(1.04285 -0.549198 5.28528e-24)
(1.03569 -0.547507 0)
(1.0568 -0.556014 0)
(1.04981 -0.552409 0)
(1.07154 -0.556102 0)
(1.06402 -0.558053 0)
(1.08729 -0.529668 0)
(1.07935 -0.547431 0)
(1.10269 -0.459862 -5.27565e-24)
(1.09516 -0.500846 0)
(1.11588 -0.340684 6.10854e-24)
(1.10966 -0.406313 0)
(1.12551 -0.178421 0)
(1.12121 -0.264127 0)
(1.13099 0.0110051 0)
(1.12877 -0.0858401 0)
(1.13275 0.205029 0)
(1.13227 0.109047 0)
(1.13174 0.376548 0)
(1.13255 0.295314 0)
(1.12805 0.500941 1.49659e-25)
(1.13028 0.445698 0)
(1.12077 0.568305 -1.4324e-25)
(1.12492 0.541553 0)
(1.10941 0.587676 -3.81582e-24)
(1.11559 0.582871 0)
(1.0946 0.578008 0)
(1.10237 0.585252 0)
(1.07754 0.556632 0)
(1.08628 0.56796 0)
(1.05915 0.534157 -5.22583e-24)
(1.06845 0.545191 0)
(1.03988 0.515139 -1.93656e-23)
(1.04941 0.524325 0)
(1.02963 0.507692 -5.81784e-22)
(1.00044 0.512656 -3.51267e-22)
(0.995525 0.490601 3.29278e-22)
(0.997574 0.502235 0)
(1.0089 0.529371 0)
(1.00424 0.521738 -3.71573e-22)
(1.0211 0.539674 0)
(1.01446 0.535381 0)
(1.03644 0.542516 1.19955e-21)
(1.02848 0.542078 0)
(1.05372 0.537761 1.75502e-21)
(1.04485 0.541077 -9.1098e-22)
(1.06281 0.532678 -2.61352e-22)
(1.04742 0.522276 -1.62271e-22)
(1.06385 0.523726 6.4414e-23)
(1.0556 0.522414 1.32624e-21)
(1.03025 0.525131 2.97224e-25)
(1.0391 0.523235 1.60651e-22)
(1.01068 0.52975 3.3913e-25)
(1.02091 0.527427 0)
(0.987384 0.531625 3.98582e-25)
(0.999562 0.531411 0)
(0.959639 0.5237 4.77435e-25)
(0.974086 0.52941 0)
(0.92767 0.496793 0)
(0.944125 0.513259 0)
(0.893312 0.440947 -6.92158e-25)
(0.910599 0.473022 0)
(0.860226 0.349355 -7.0461e-24)
(0.876332 0.399777 0)
(0.832942 0.222383 0)
(0.845586 0.289888 0)
(0.815397 0.0693901 0)
(0.822764 0.148195 0)
(0.80999 -0.0926689 0)
(0.811103 -0.0117814 0)
(0.817244 -0.243379 -7.71542e-24)
(0.812085 -0.170711 0)
(0.835909 -0.364145 7.83396e-24)
(0.825284 -0.308463 0)
(0.86378 -0.442885 0)
(0.848865 -0.409106 0)
(0.897664 -0.479852 6.02299e-24)
(0.880247 -0.465912 0)
(0.932752 -0.490576 0)
(0.915391 -0.487102 0)
(0.964666 -0.495634 -4.49029e-24)
(0.949265 -0.492795 0)
(0.992419 -0.506033 0)
(0.978985 -0.499973 0)
(1.01769 -0.522616 9.05094e-24)
(1.00524 -0.513635 0)
(1.04212 -0.544627 0)
(1.02995 -0.532925 0)
(1.06652 -0.572329 5.19645e-24)
(1.05429 -0.557774 0)
(1.09106 -0.604537 -4.6463e-22)
(1.07874 -0.588054 -3.90791e-22)
(1.11496 -0.636377 -1.7718e-21)
(1.10315 -0.62109 2.78062e-21)
(1.13507 -0.656868 -4.71009e-21)
(1.12579 -0.649059 4.68676e-21)
(1.11142 -0.648462 -6.37175e-21)
(1.1466 -0.645421 0)
(1.14206 -0.656751 0)
(0.826477 -0.472821 4.76409e-21)
(0.811799 -0.447832 -2.73933e-21)
(0.967261 -0.631434 -2.05622e-21)
(1.00944 -0.652866 0)
(1.14594 -0.619654 0)
(1.10751 -0.620236 6.69582e-21)
(0.930757 -0.604342 -1.83793e-22)
(1.02666 -0.658101 6.56524e-22)
(0.889011 -0.559756 -2.15212e-21)
(1.04881 -0.65626 8.89945e-23)
(0.98258 0.487149 -9.6577e-22)
(0.994463 0.478292 -7.29653e-23)
(0.980365 0.473816 0)
(0.843839 -0.497485 -2.16363e-21)
(1.07569 -0.644633 -4.00528e-22)
(0.797919 -0.419492 2.14062e-21)
(1.07184 0.526046 -6.34727e-23)
(0.782862 -0.393256 0)
(0.987717 -0.643578 -4.83449e-23)
(0.827347 -0.462792 -9.42544e-22)
(0.77022 -0.365855 0)
(0.798976 -0.420561 1.9279e-21)
(0.878911 -0.520299 2.81489e-22)
(0.853874 -0.496077 -2.87567e-22)
(0.923252 -0.547073 0)
(0.902124 -0.536877 0)
(0.959466 -0.553718 1.90695e-24)
(0.942356 -0.55222 0)
(0.988531 -0.549988 1.66705e-24)
(0.974777 -0.552618 0)
(1.01238 -0.543254 0)
(1.00099 -0.546626 0)
(1.03282 -0.539062 0)
(1.02294 -0.540532 0)
(1.05121 -0.541169 -1.8829e-25)
(1.04218 -0.539237 0)
(1.0692 -0.547816 0)
(1.06015 -0.544396 0)
(1.08834 -0.547261 0)
(1.07858 -0.549538 0)
(1.10868 -0.520604 0)
(1.09844 -0.538376 0)
(1.12858 -0.451558 5.27565e-24)
(1.11883 -0.492028 0)
(1.1458 -0.334108 -6.10854e-24)
(1.13766 -0.398768 0)
(1.15847 -0.1742 -6.47593e-24)
(1.15281 -0.258679 0)
(1.16551 0.0127727 0)
(1.16272 -0.0828741 0)
(1.16712 0.204793 0)
(1.16693 0.10974 0)
(1.16422 0.374688 0)
(1.16619 0.294256 0)
(1.157 0.497232 2.10735e-25)
(1.16118 0.442969 0)
(1.145 0.562419 -1.92931e-25)
(1.15161 0.53677 0)
(1.12851 0.579829 3.81582e-24)
(1.13725 0.57594 0)
(1.10888 0.568851 6.07112e-24)
(1.11898 0.576659 0)
(1.08764 0.546781 0)
(1.09838 0.558393 0)
(1.06572 0.523907 4.62016e-24)
(1.07672 0.535101 0)
(1.0434 0.504455 -2.82704e-22)
(1.05448 0.513775 0)
(1.02026 0.489251 3.48745e-21)
(1.03178 0.496703 7.35819e-22)
(1.0077 0.483502 -1.13529e-21)
(0.989929 0.510587 0)
(0.985733 0.499425 0)
(1.00146 0.528872 0)
(0.995167 0.520464 3.68593e-22)
(1.01735 0.540556 0)
(1.00883 0.535595 0)
(1.03672 0.544475 -6.16783e-22)
(1.02671 0.543567 0)
(1.05821 0.540145 -5.94754e-22)
(1.04734 0.543298 5.20517e-22)
(1.07123 0.515595 2.67753e-21)
(1.08095 0.517719 -1.43741e-21)
(1.08035 0.528297 1.53096e-21)
(1.0693 0.535121 6.0138e-22)
(1.05218 0.513766 -4.57435e-24)
(1.06173 0.514154 -6.99702e-22)
(1.03259 0.515464 8.91779e-24)
(1.0426 0.514249 0)
(1.01065 0.518578 3.68883e-25)
(1.02201 0.517085 0)
(0.985249 0.518435 4.24391e-25)
(0.998455 0.519283 0)
(0.955659 0.508334 5.12604e-24)
(0.970994 0.515118 0)
(0.922123 0.479712 0)
(0.939316 0.496914 0)
(0.886482 0.423543 -6.99826e-25)
(0.904381 0.45555 0)
(0.852273 0.333728 7.0461e-24)
(0.868929 0.382976 0)
(0.823924 0.210733 -6.78378e-24)
(0.837093 0.275996 0)
(0.805467 0.0633952 0)
(0.813257 0.139213 0)
(0.79955 -0.0922079 0)
(0.800854 -0.0145851 0)
(0.806879 -0.236655 8.98995e-25)
(0.801602 -0.167036 0)
(0.826398 -0.35204 0)
(0.815234 -0.298914 0)
(0.856019 -0.426719 0)
(0.840128 -0.394765 0)
(0.892168 -0.461773 0)
(0.873598 -0.448463 0)
(0.929418 -0.473178 0)
(0.911013 -0.469076 0)
(0.963291 -0.4803 4.49028e-24)
(0.946916 -0.476383 0)
(0.993146 -0.492354 0)
(0.978624 -0.48559 0)
(1.02085 -0.509628 -8.37926e-24)
(1.00714 -0.500405 0)
(1.04808 -0.531712 0)
(1.03446 -0.520029 0)
(1.07584 -0.559134 -5.19712e-24)
(1.06185 -0.544753 0)
(1.10465 -0.591093 0)
(1.09013 -0.574697 0)
(1.13388 -0.623353 -2.24389e-22)
(1.11927 -0.607658 2.2402e-22)
(1.16102 -0.645688 8.18977e-22)
(1.14799 -0.636748 -1.09488e-21)
(1.18056 -0.638957 -2.83629e-21)
(1.17205 -0.647566 2.85735e-21)
(1.14172 -0.576787 -8.14674e-21)
(1.18411 -0.578093 7.94689e-21)
(1.18404 -0.616837 0)
(0.754577 -0.327578 4.02553e-21)
(0.742339 -0.30082 0)
(1.09887 -0.57427 0)
(1.13234 -0.5166 7.59784e-21)
(1.17843 -0.521152 -6.91799e-21)
(0.952221 -0.621849 1.20863e-21)
(1.00066 -0.649075 0)
(0.910525 -0.581803 3.48441e-21)
(1.01827 -0.647185 -6.51032e-22)
(0.968885 0.483189 -9.36563e-22)
(0.965708 0.469048 1.26401e-21)
(0.864412 -0.523016 0)
(1.04074 -0.635895 0)
(0.816115 -0.445796 -2.4826e-21)
(1.06799 -0.612734 4.36687e-22)
(0.769942 -0.354542 -3.96782e-21)
(1.09092 0.519926 -1.54672e-21)
(0.71628 -0.226536 4.93091e-21)
(0.728243 -0.252874 1.95906e-22)
(1.0859 -0.509274 9.18357e-21)
(1.11892 -0.437788 1.00723e-20)
(1.16819 -0.446046 -9.3704e-21)
(0.693104 -0.147124 -1.85541e-21)
(0.708172 -0.202764 -1.48241e-21)
(0.994128 0.464847 -2.17452e-21)
(0.979264 0.459739 1.33962e-22)
(0.685325 -0.124324 1.40322e-21)
(0.975614 -0.63701 5.52018e-22)
(0.760783 -0.338937 -1.12557e-21)
(0.733219 -0.275233 1.74919e-21)
(0.817303 -0.436024 2.81716e-22)
(0.788958 -0.393324 -1.22133e-21)
(0.870113 -0.496115 0)
(0.84435 -0.470414 0)
(0.916448 -0.526533 1.37686e-24)
(0.894243 -0.514457 0)
(0.955171 -0.536823 -1.34737e-24)
(0.93674 -0.533556 0)
(0.987119 -0.536135 -1.66705e-24)
(0.971893 -0.53736 0)
(1.01401 -0.531537 0)
(1.00109 -0.533951 0)
(1.03754 -0.528645 0)
(1.0261 -0.529562 0)
(1.05929 -0.53128 -2.12159e-25)
(1.04854 -0.529186 0)
(1.08101 -0.537589 0)
(1.07004 -0.534439 0)
(1.10418 -0.536244 0)
(1.09237 -0.538916 0)
(1.12878 -0.509307 0)
(1.11639 -0.527098 0)
(1.15293 -0.44114 0)
(1.14107 -0.481013 0)
(1.17404 -0.325754 0)
(1.16403 -0.389248 0)
(1.18969 -0.168787 6.47593e-24)
(1.18268 -0.251715 0)
(1.19834 0.0149491 0)
(1.19493 -0.0790917 0)
(1.20002 0.204114 0)
(1.2 0.110419 0)
(1.19552 0.371533 0)
(1.19851 0.292325 0)
(1.18501 0.491499 2.65889e-25)