/*--------------------------------*- C++ -*----------------------------------*\
  =========                 |
  \\      /  F ield         | OpenFOAM: The Open Source CFD Toolbox
   \\    /   O peration     | Website:  https://openfoam.org
    \\  /    A nd           | Version:  10
     \\/     M anipulation  |
\*---------------------------------------------------------------------------*/
FoamFile
{
    format      ascii;
    class       volVectorField;
    location    "14.5";
    object      U;
}
// * * * * * * * * * * * * * * * * * * * * * * * * * * * * * * * * * * * * * //

dimensions      [0 1 -1 0 0 0 0];

internalField   nonuniform List<vector> 
33313
(
(0.300606 0.0130207 -4.95158e-21)
(0.440108 0.00666887 2.69372e-21)
(0.386676 0.0276897 0)
(0.168411 0.00934619 0)
(0.753968 0.0237721 -1.30349e-23)
(0.712146 0.025078 0)
(0.599906 0.0282319 -1.0551e-21)
(0.628285 0.020419 0)
(0.724737 0.0175613 2.65488e-22)
(0.603161 0.0179459 1.34368e-21)
(0.676266 0.0239735 0)
(-0.0362181 0.0278124 -2.08178e-20)
(-0.00980139 0.00628827 -7.46438e-20)
(-0.00963111 0.00767134 -1.52338e-19)
(0.43179 -0.352642 -8.45952e-23)
(0.165846 -0.122552 2.69533e-21)
(0.146903 -0.116183 5.49088e-21)
(1.41328 -0.424373 0)
(1.42496 -0.302483 0)
(1.392 -0.26641 0)
(1.42723 -0.344924 2.97839e-20)
(0.526306 0.0299724 0)
(0.444292 0.329745 -1.26979e-19)
(0.295445 0.285903 3.84535e-19)
(0.402231 0.0197842 -8.25579e-20)
(1.00472 -0.0198644 -4.995e-20)
(1.00462 -0.0388257 3.46688e-20)
(1.00496 -0.0781904 0)
(0.963942 0.104912 -4.71616e-20)
(1.03653 0.0999118 3.75166e-20)
(1.0161 0.0814673 2.56673e-20)
(0.996592 -0.0191322 -3.11693e-20)
(0.882306 0.0570789 -1.8276e-20)
(-0.0470739 -0.0730059 7.98407e-20)
(-0.0661356 -0.0439856 -1.65624e-19)
(-0.0686226 -0.0410961 1.03171e-19)
(-0.102242 -0.0670362 1.42359e-20)
(1.14438 -0.0625494 7.86181e-24)
(1.15152 -0.0646499 1.30197e-21)
(1.45527 0.310123 -1.43811e-20)
(1.44167 0.290287 2.67148e-20)
(1.01322 -0.188191 -5.47695e-20)
(1.01999 -0.184793 -4.49049e-21)
(-0.0691635 -0.0390969 -6.80463e-20)
(-0.0822915 0.0603323 2.65446e-20)
(-0.0904607 0.0623409 -1.07872e-19)
(0.196608 0.500223 9.07734e-20)
(0.177599 0.364206 3.34699e-20)
(0.440503 -0.0457557 1.28495e-21)
(0.55902 -0.0250487 -2.02643e-21)
(1.04191 0.0677416 -3.31208e-20)
(1.05974 0.0623367 1.81186e-20)
(1.06432 -0.0970964 -4.56197e-20)
(1.01924 -0.0604689 1.23549e-19)
(0.469351 0.5392 1.40537e-19)
(0.407946 0.59622 -6.54295e-20)
(0.6266 0.737238 -9.10762e-20)
(0.371993 0.677908 2.10089e-19)
(0.220581 -0.36912 4.30489e-20)
(0.353405 -0.684372 -3.39803e-21)
(0.21179 0.534395 -6.06831e-20)
(0.402243 -0.258791 2.35078e-19)
(0.226563 -0.192423 -7.0746e-20)
(0.0975967 -0.138777 0)
(0.0888679 -0.00443893 0)
(0.121314 -0.0147759 1.45519e-20)
(1.48853 0.084478 5.31452e-20)
(1.34291 -0.297875 0)
(1.33986 -0.291987 0)
(-0.119175 0.184568 2.50068e-20)
(-0.126926 0.196546 0)
(-0.0326791 0.175523 0)
(0.227967 -0.0342926 9.76473e-21)
(1.46064 0.347743 5.17214e-20)
(-0.201998 0.187831 6.78327e-20)
(-0.147053 0.165393 5.01695e-20)
(0.216875 0.0853976 0)
(0.146617 0.102494 2.92453e-20)
(1.38521 0.37739 4.52523e-20)
(1.40709 0.331637 -2.79105e-20)
(0.819355 -0.0531361 1.48039e-19)
(0.834661 -0.0338262 -4.95636e-20)
(0.794045 -0.0884703 0)
(1.24202 0.244868 1.45088e-20)
(1.0935 0.249507 -2.96831e-21)
(0.46309 0.0677846 -1.15456e-20)
(0.0244902 0.0369246 0)
(-0.0664869 0.0665262 1.2941e-20)
(-0.0756014 0.0575574 7.28954e-20)
(0.0377414 -0.132027 2.83503e-19)
(-0.147267 0.0561497 6.27096e-21)
(-0.139082 0.0344973 -2.53262e-21)
(-0.113363 -0.0278378 -4.48469e-19)
(-0.106916 0.00225869 0)
(-0.0980129 0.0265578 4.42806e-20)
(1.04237 0.0621701 0)
(1.01593 0.0596261 -3.93565e-21)
(0.512648 -0.0505882 -2.43385e-21)
(0.65104 -0.0335063 3.88753e-22)
(1.43492 -0.284249 0)
(1.43512 -0.322593 -6.53965e-20)
(1.43209 -0.252482 0)
(1.43276 -0.195503 3.00023e-20)
(1.4575 -0.210973 4.92879e-21)
(1.38735 -0.191033 -3.33089e-20)
(0.265741 -0.0160068 -2.02707e-21)
(0.183965 -0.0463899 -8.96666e-20)
(-0.0197043 -0.0503261 -6.32334e-20)
(-0.0150422 -0.0512269 -3.1786e-22)
(0.901999 -0.610366 3.48774e-22)
(1.09322 -0.771597 1.29497e-20)
(0.922069 -0.722116 3.69323e-20)
(0.713007 -0.498471 0)
(0.728154 -0.213763 7.59144e-20)
(0.271075 -0.0426684 3.73781e-20)
(0.644837 -0.0941995 -3.3927e-20)
(0.208686 0.0707222 -4.35247e-19)
(0.173218 0.216523 4.97373e-20)
(1.44949 -0.203192 1.46775e-21)
(1.43956 -0.192846 0)
(-0.0828891 -0.0739004 0)
(-0.0570889 -0.0495113 1.04723e-19)
(-0.0750626 -0.0668336 0)
(0.364164 -0.0152259 -3.17064e-21)
(0.430257 -0.0109049 2.43712e-21)
(0.218923 -0.0350727 -7.31181e-21)
(0.767289 0.729394 1.60019e-19)
(1.28245 -0.0494892 1.79159e-21)
(1.27911 -0.0579448 0)
(-0.0684711 0.234061 2.01597e-20)
(-0.0521145 0.241641 -2.7478e-20)
(-0.0549461 -0.0334575 -1.51394e-19)
(-0.0550907 -0.0415311 2.80521e-19)
(0.872462 0.685375 2.98852e-20)
(1.03046 0.705609 4.79714e-20)
(0.888798 0.64473 0)
(0.738883 0.584205 0)
(0.489935 -0.341181 -6.75892e-21)
(0.613536 -0.434633 0)
(0.85102 -0.749906 -1.05101e-19)
(0.853617 -0.718156 -3.83543e-20)
(0.722417 -0.761876 1.16904e-19)
(1.26755 -0.0396087 3.50393e-21)
(1.26691 -0.0322663 3.01119e-20)
(1.28679 -0.0432163 -4.29126e-22)
(1.09201 -0.029395 0)
(1.09673 -0.0302099 -1.44319e-21)
(1.09837 -0.0338895 2.39974e-21)
(1.10265 -0.0368919 1.23586e-21)
(0.995406 -0.227733 4.1326e-20)
(1.00885 -0.233303 0)
(0.993052 -0.18465 -7.14305e-20)
(1.00049 -0.199754 4.09085e-20)
(0.938124 0.103623 2.98713e-20)
(0.930767 0.123467 -4.62303e-20)
(0.951244 0.132227 2.83593e-20)
(0.944492 0.144001 1.65627e-19)
(-0.0503547 0.138559 2.0466e-20)
(-0.183552 0.197841 0)
(-0.118524 0.177706 -2.54954e-20)
(-0.0550919 -0.0455166 -2.39874e-19)
(0.43336 0.356699 4.53522e-21)
(0.464389 0.424119 -1.52037e-20)
(0.844703 0.717106 -3.99741e-20)
(0.473328 0.477699 -5.71701e-20)
(-0.067959 0.10346 0)
(-0.0723991 0.0933695 7.27968e-20)
(-0.103686 0.150928 -4.92032e-20)
(0.352795 0.0782241 0)
(0.777365 0.0187519 0)
(0.829236 0.0187925 -4.70819e-22)
(1.07371 -0.013503 2.25138e-21)
(1.07479 -0.0175771 -1.37648e-21)
(1.09918 0.0495288 6.13882e-22)
(1.10291 0.0549914 2.45212e-23)
(1.01354 -0.0909704 1.02707e-20)
(1.02533 -0.0751704 -4.42796e-20)
(0.226544 0.155923 8.66974e-20)
(0.190112 0.17549 -7.05423e-20)
(1.52145 0.136918 0)
(1.52636 0.116739 0)
(1.13946 0.0391479 4.65743e-23)
(1.1452 0.0432184 1.17062e-21)
(1.10146 0.21093 -3.15007e-20)
(1.09726 0.203662 1.13166e-20)
(0.476528 0.112371 0)
(0.435781 0.11448 -6.63979e-21)
(0.181236 0.187729 1.77772e-20)
(0.195648 0.202131 2.21209e-20)
(0.0625695 0.21514 3.40575e-23)
(-0.249876 0.205828 -1.79693e-19)
(0.836222 0.0462659 -5.30539e-20)
(0.8665 0.0445709 2.25804e-20)
(0.0154735 0.259079 7.11298e-21)
(0.0063163 0.262922 0)
(0.919908 0.253388 0)
(0.894153 0.286435 -4.54183e-21)
(0.862572 0.380372 -5.81915e-20)
(0.960227 -0.275489 2.56435e-20)
(0.931932 -0.302562 0)
(0.92539 -0.455996 3.09453e-20)
(0.811823 0.00272168 -4.44865e-20)
(0.840663 0.00881848 5.40478e-20)
(1.04088 -0.067012 3.8674e-21)
(1.03394 -0.0601372 -8.5229e-21)
(-0.102678 0.113214 0)
(-0.0961378 0.0796485 -3.82181e-20)
(1.22063 -0.651424 -2.04628e-20)
(1.16075 -0.659593 9.45844e-21)
(1.02922 -0.0566144 -3.00647e-20)
(1.03428 -0.0654684 3.58366e-20)
(0.724916 0.0245949 3.65774e-24)
(0.786415 0.022024 -4.23544e-24)
(0.78543 0.0216011 -6.97636e-22)
(0.734265 0.0231087 -4.04408e-22)
(0.558193 -0.428281 4.81259e-21)
(-0.0214673 0.0238428 7.88255e-20)
(-0.0161913 0.0153566 -3.93612e-20)
(0.979666 0.199735 1.25515e-20)
(0.978813 0.181339 -5.86944e-21)
(0.990639 0.181198 5.89444e-21)
(0.993464 0.20037 0)
(1.44528 -0.197812 -2.37238e-20)
(1.44179 -0.182124 1.33437e-21)
(1.43441 -0.177826 2.30868e-20)
(1.09986 0.312157 0)
(1.08401 0.305694 -3.39601e-20)
(1.10314 0.310026 0)
(-0.0598928 0.0396554 -4.34223e-20)
(-0.0208511 0.0131853 -9.78334e-20)
(-0.0261501 0.0168828 0)
(0.194936 -0.133361 -3.95695e-20)
(0.161805 -0.116133 1.28938e-20)
(1.07182 -0.0117892 1.59301e-21)
(1.0887 0.0177461 -2.47911e-21)
(1.09116 0.021653 -1.05006e-21)
(1.27567 -0.399403 0)
(1.03501 -0.192671 0)
(0.555143 0.144144 2.87416e-22)
(0.575442 0.109183 7.65536e-23)
(0.602231 0.0675698 -3.77628e-22)
(0.626851 0.031151 -2.51814e-24)
(0.657878 -0.00890523 0)
(0.686934 -0.0431379 1.46867e-22)
(0.716173 -0.0752907 -1.46833e-22)
(0.744287 -0.104408 -2.09503e-22)
(0.771533 -0.130403 2.09375e-22)
(0.797241 -0.152896 2.93247e-22)
(0.821549 -0.17211 -2.93056e-22)
(0.84384 -0.187926 -3.78541e-22)
(0.864418 -0.200702 3.78277e-22)
(0.882841 -0.210469 0)
(0.899508 -0.217635 0)
(0.914077 -0.222319 0)
(0.926987 -0.224923 -5.43695e-22)
(0.937952 -0.225606 5.44159e-22)
(0.947428 -0.224722 0)
(0.955141 -0.222447 0)
(0.961572 -0.219061 0)
(0.96637 -0.214765 -6.02944e-22)
(0.970167 -0.209719 2.36881e-25)
(0.972224 -0.204221 1.20284e-21)
(0.97396 -0.198194 -6.00079e-22)
(0.972881 -0.192194 5.84595e-22)
(0.974058 -0.185823 -1.81589e-21)
(0.97178 -0.179533 -4.7603e-24)
(0.969771 -0.173263 0)
(0.965102 -0.167187 -1.67584e-22)
(0.959893 -0.161225 0)
(0.953743 -0.155611 3.12293e-22)
(0.579294 0.119096 0)
(0.53982 0.174657 -4.96688e-22)
(0.554975 0.154346 2.05912e-22)
(0.539268 0.18517 -6.40806e-22)
(0.937948 -0.145084 2.9009e-22)
(0.949181 -0.1496 -3.0247e-22)
(0.986868 -0.155824 0)
(0.972702 -0.143485 1.45916e-22)
(0.981759 -0.149616 1.6099e-22)
(0.996769 -0.169416 0)
(0.992816 -0.16237 0)
(1.00267 -0.18416 0)
(1.00135 -0.176659 0)
(1.00426 -0.199038 2.47687e-26)
(1.00408 -0.191696 0)
(1.0019 -0.213149 0)
(1.00358 -0.206286 0)
(0.995306 -0.225367 1.57647e-24)
(0.999159 -0.219585 0)
(0.983837 -0.234308 0)
(0.990231 -0.230347 0)
(0.966613 -0.238273 1.31657e-24)
(0.976006 -0.237031 0)
(0.942639 -0.235234 1.09198e-24)
(0.955534 -0.237764 0)
(0.910968 -0.222922 8.0324e-25)
(0.927818 -0.23038 1.17678e-28)
(0.870911 -0.199049 0)
(0.892013 -0.212561 0)
(0.82236 -0.161683 0)
(0.847668 -0.182143 0)
(0.766117 -0.109641 0)
(0.795127 -0.137524 0)
(0.70283 -0.0431279 0)
(0.735363 -0.0781201 0)
(0.635933 0.0368036 9.44468e-23)
(0.668843 -0.00413417 2.78168e-24)
(0.604527 0.0800331 -8.52214e-23)
(0.52461 0.211147 -3.74364e-23)
(0.530656 0.195947 1.90577e-24)
(0.973161 -0.137299 0)
(0.53169 0.219101 9.0278e-22)
(0.947849 -0.134822 0)
(0.929726 -0.139095 -3.29123e-22)
(0.513746 0.244654 9.20141e-23)
(0.511939 0.232648 1.42793e-23)
(0.969228 -0.130251 6.88096e-22)
(0.918038 -0.148869 0)
(0.529748 0.247976 2.71484e-22)
(0.913941 -0.142181 2.71248e-22)
(0.497607 0.268997 -6.38832e-23)
(0.533997 0.272621 -2.03542e-22)
(0.508972 0.274454 0)
(0.54839 0.192089 -3.38192e-22)
(0.558297 0.243259 -3.1275e-22)
(0.550804 0.219585 -6.44663e-22)
(0.56606 0.127007 -1.60333e-23)
(0.553825 0.159704 3.94137e-22)
(0.601486 0.0584859 3.54394e-25)
(0.582363 0.093962 3.76301e-22)
(0.648461 -0.0108159 0)
(0.623877 0.0229828 0)
(0.699888 -0.0719904 0)
(0.674099 -0.0425511 0)
(0.750292 -0.122661 0)
(0.725412 -0.0987727 0)
(0.796695 -0.161307 0)
(0.774153 -0.1435 0)
(0.837038 -0.188145 0)
(0.817698 -0.176133 0)
(0.870439 -0.204453 0)
(0.854626 -0.197504 0)
(0.89675 -0.212034 0)
(0.884469 -0.209207 0)
(0.916253 -0.212851 0)
(0.907331 -0.213162 0)
(0.929418 -0.208783 0)
(0.923639 -0.211309 0)
(0.936711 -0.201504 5.82621e-27)
(0.933992 -0.205426 0)
(0.938305 -0.192416 3.83086e-27)
(0.939211 -0.197027 0)
(0.93828 -0.182276 1.0027e-22)
(0.94088 -0.187204 1.40047e-21)
(0.935557 -0.171455 3.38252e-22)
(0.938598 -0.17675 -5.97904e-22)
(0.927639 -0.160478 -3.15184e-22)
(0.931771 -0.166078 1.62903e-22)
(0.923342 -0.154988 0)
(0.942848 -0.128576 8.54797e-23)
(0.912232 -0.134639 -7.70736e-24)
(0.925568 -0.132615 0)
(0.999983 -0.137248 2.12808e-23)
(0.991027 -0.123278 -6.69157e-22)
(0.995636 -0.13021 0)
(1.01103 -0.150961 0)
(1.00585 -0.14375 -8.72895e-23)
(1.0193 -0.166218 9.93312e-23)
(1.01606 -0.158384 0)
(1.02441 -0.182553 0)
(1.02242 -0.174236 -9.95733e-23)
(1.02628 -0.199057 3.68153e-26)
(1.02572 -0.190819 0)
(1.02511 -0.214956 0)
(1.0261 -0.207143 0)
(1.02044 -0.229259 -1.57565e-24)
(1.02325 -0.222381 0)
(1.01156 -0.240713 0)
(1.01659 -0.235434 0)
(0.997497 -0.247715 -1.31596e-24)
(1.00525 -0.244885 0)
(0.977088 -0.248276 -1.09144e-24)
(0.988163 -0.248937 0)
(0.949138 -0.240074 -8.02774e-25)
(0.964129 -0.245422 -1.17616e-28)
(0.912611 -0.220644 0)
(0.931999 -0.231909 0)
(0.866923 -0.187742 0)
(0.890922 -0.205992 0)
(0.812227 -0.139757 0)
(0.840666 -0.165696 0)
(0.749357 -0.0764629 9.97217e-25)
(0.78172 -0.109928 0)
(0.680829 0.000816623 0)
(0.715228 -0.0392412 0)
(0.614321 0.0861299 0)
(0.646975 0.0429766 0)
(0.551463 0.172465 -3.92997e-23)
(0.581865 0.129095 -2.78975e-22)
(0.50157 0.254058 -1.32047e-22)
(0.524041 0.214207 3.62715e-22)
(0.963533 -0.123475 -2.39932e-22)
(0.571163 0.263115 3.93437e-22)
(0.489227 0.298417 4.45079e-23)
(0.483653 0.289095 -1.10707e-22)
(0.912192 -0.126261 -1.33751e-22)
(0.905153 -0.13367 -1.95115e-22)
(0.908813 -0.123768 -8.31777e-23)
(0.543118 0.293017 0)
(1.01144 -0.116896 -3.44108e-22)
(0.985209 -0.116662 -8.08585e-23)
(1.00584 -0.110085 -3.79105e-22)
(0.587555 0.279855 5.02818e-24)
(0.509607 0.299728 0)
(0.597947 0.231588 1.45998e-22)
(0.638719 0.261543 8.03252e-22)
(0.61747 0.24728 -2.94829e-22)
(0.57274 0.191027 3.16555e-22)
(0.583232 0.212816 0)
(0.572359 0.137074 -1.81811e-23)
(0.569073 0.165375 -1.47479e-22)
(0.592377 0.0763577 4.9006e-23)
(0.580581 0.107591 -6.24146e-23)
(0.627065 0.0120797 0)
(0.608073 0.0439649 0)
(0.670622 -0.0475475 0)
(0.648236 -0.0185726 0)
(0.716597 -0.0988616 0)
(0.693578 -0.0744155 0)
(0.760981 -0.139663 0)
(0.73919 -0.120633 0)
(0.800976 -0.169516 0)
(0.781641 -0.155923 0)
(0.835049 -0.189213 8.85837e-25)
(0.818803 -0.180547 0)
(0.862557 -0.200235 0)
(0.849633 -0.195696 0)
(0.883433 -0.204352 0)
(0.873814 -0.20304 0)
(0.897959 -0.203344 0)
(0.891496 -0.204383 0)
(0.906624 -0.198806 3.02062e-27)
(0.903139 -0.201433 0)
(0.910117 -0.192005 6.67513e-27)
(0.909478 -0.195646 0)
(0.91021 -0.183824 1.33878e-23)
(0.91141 -0.188054 0)
(0.908568 -0.174361 4.00669e-23)
(0.910095 -0.179212 3.60833e-22)
(0.90543 -0.163424 -7.49817e-23)
(0.907014 -0.169105 -4.1431e-23)
(0.903076 -0.150299 6.7223e-23)
(0.904106 -0.157242 1.40429e-22)
(0.903345 -0.14246 -6.82644e-23)
(0.938276 -0.122065 9.36523e-23)
(0.922678 -0.125526 0)
(0.97881 -0.110272 -2.29407e-22)
(0.957705 -0.116959 4.16933e-23)
(1.02173 -0.13131 -9.44394e-24)
(1.01659 -0.124002 0)
(1.03091 -0.146649 -2.27412e-23)
(1.02684 -0.138752 3.35279e-23)
(1.03831 -0.163334 -1.5329e-24)
(1.03491 -0.154811 -2.35818e-23)
(1.04289 -0.18086 0)
(1.04079 -0.172006 0)
(1.04538 -0.198637 4.65141e-26)
(1.04439 -0.189755 0)
(1.04556 -0.215961 1.51904e-24)
(1.04578 -0.207404 0)
(1.04299 -0.231983 0)
(1.04466 -0.224197 0)
(1.0369 -0.245594 0)
(1.04044 -0.239172 0)
(1.02629 -0.255316 0)
(1.03224 -0.25105 0)
(1.00987 -0.259238 8.50469e-25)
(1.01889 -0.258137 0)
(0.986278 -0.255036 0)
(0.999064 -0.258309 0)
(0.954163 -0.240129 0)
(0.971361 -0.249081 0)
(0.912525 -0.212009 0)
(0.934578 -0.227858 0)
(0.860949 -0.168704 0)
(0.88798 -0.192338 0)
(0.799872 -0.109499 -1.00487e-24)
(0.831516 -0.141045 0)
(0.731378 -0.0355984 0)
(0.766323 -0.0742287 0)
(0.658752 0.050571 2.23077e-22)
(0.695345 0.00628613 0)
(0.585978 0.141859 2.49445e-23)
(0.621681 0.0962066 -2.46346e-22)
(0.521949 0.229938 -6.94102e-23)
(0.552539 0.186434 4.10961e-22)
(0.470781 0.320714 -1.23747e-22)
(0.472552 0.306746 0)
(0.495342 0.269956 -3.16909e-22)
(0.609025 0.294037 -1.3513e-21)
(0.66278 0.274898 6.00278e-22)
(0.558633 0.310128 -3.76383e-22)
(0.486466 0.325029 0)
(0.999608 -0.103513 3.60783e-22)
(0.454605 0.339096 0)
(0.462655 0.347965 2.28886e-22)
(0.913586 -0.117136 7.63381e-23)
(0.913944 -0.113066 -4.96543e-23)
(0.905792 -0.129152 -2.29864e-22)
(0.632702 0.306782 0)
(0.687622 0.287971 4.77006e-22)
(0.913389 -0.117866 0)
(0.516834 0.320995 0)
(0.693685 0.241041 -6.72426e-22)
(0.738683 0.269999 -4.5214e-22)
(0.716937 0.254879 5.10104e-22)
(0.64802 0.213795 1.3829e-22)
(0.670939 0.227437 -4.04653e-22)
(0.612267 0.181224 4.43408e-22)
(0.628509 0.198654 -7.90371e-23)
(0.594764 0.137971 1.01889e-22)
(0.60057 0.160882 0)
(0.597818 0.0863145 -2.49924e-25)
(0.594075 0.113157 -7.06835e-23)
(0.618121 0.0292117 0)
(0.60597 0.0580244 0)
(0.650923 -0.0268353 0)
(0.633404 0.000729155 0)
(0.689845 -0.0772204 0)
(0.669947 -0.05295 0)
(0.730049 -0.119039 0)
(0.710035 -0.0993038 0)
(0.767998 -0.151144 -9.59503e-25)
(0.749466 -0.13631 0)
(0.801473 -0.173764 -8.85837e-25)
(0.785381 -0.163581 0)
(0.829297 -0.187976 0)
(0.816126 -0.181828 0)
(0.851046 -0.19528 0)
(0.840933 -0.192389 0)
(0.866827 -0.197268 0)
(0.859675 -0.196846 0)
(0.877176 -0.195375 2.06941e-27)
(0.872702 -0.196742 0)
(0.883071 -0.190701 9.36144e-27)
(0.88077 -0.193362 0)
(0.885998 -0.183864 7.32129e-25)
(0.884977 -0.187547 0)
(0.887804 -0.174868 1.36561e-24)
(0.886968 -0.179661 0)
(0.890451 -0.163207 7.72877e-23)
(0.888812 -0.169452 0)
(0.895691 -0.148252 6.21088e-23)
(0.892518 -0.156302 -1.44405e-22)
(0.899834 -0.139513 9.03596e-23)
(0.934174 -0.115162 -1.18304e-23)
(0.92081 -0.117704 -5.14997e-23)
(0.972729 -0.103905 -3.14787e-22)
(0.952115 -0.110434 -3.23723e-23)
(1.02965 -0.111096 4.11949e-22)
(1.01885 -0.0970964 -3.30436e-22)
(1.02451 -0.103908 2.06249e-23)
(1.03939 -0.126306 -1.60759e-26)
(1.03463 -0.118533 -8.71686e-23)
(1.04747 -0.142867 9.18578e-23)
(1.0437 -0.134415 0)
(1.0538 -0.160557 1.47392e-24)
(1.05073 -0.151577 0)
(1.05847 -0.178997 0)
(1.05625 -0.16972 0)
(1.06171 -0.197688 5.47067e-26)
(1.06026 -0.188345 0)
(1.06334 -0.216077 -1.51904e-24)
(1.06275 -0.20696 0)
(1.06292 -0.233462 0)
(1.06343 -0.224948 0)
(1.05972 -0.248882 0)
(1.06173 -0.241491 0)
(1.0527 -0.260999 0)
(1.05676 -0.255453 0)
(1.04056 -0.268014 -8.50468e-25)
(1.04736 -0.265274 0)
(1.02177 -0.267651 0)
(1.0321 -0.268911 0)
(0.994758 -0.257269 0)
(1.00939 -0.263882 0)
(0.958118 -0.234153 0)
(0.977714 -0.24746 0)
(0.910927 -0.195983 0)
(0.935875 -0.217057 0)
(0.853072 -0.141534 1.7804e-24)
(0.883293 -0.170801 0)
(0.785753 -0.0712721 0)
(0.820468 -0.108275 0)
(0.711195 0.0127216 -5.54671e-25)
(0.749207 -0.0307492 0)
(0.633271 0.104996 0)
(0.672227 0.0583516 0)
(0.557936 0.198212 1.6901e-22)
(0.594686 0.151986 0)
(0.492324 0.283546 -8.33759e-22)
(0.523626 0.242339 8.03671e-23)
(0.441755 0.366946 -4.8399e-22)
(0.442127 0.353118 8.97226e-22)
(0.4651 0.320596 2.44553e-23)
(0.99387 -0.0969283 -3.25355e-24)
(0.708225 0.302586 0)
(0.757254 0.287222 -5.0468e-23)
(0.577835 0.324218 3.70983e-22)
(0.488631 0.34707 1.16023e-23)
(0.922476 -0.105541 1.79097e-22)
(0.423729 0.380675 9.32283e-24)
(0.46316 0.328355 1.07365e-21)
(0.434631 0.360756 -2.11061e-21)
(0.654026 0.319677 4.28859e-22)
(0.460163 0.371035 -9.5943e-23)
(0.433511 0.390195 4.63524e-22)
(0.727167 0.31863 0)
(1.03579 -0.0913287 3.09016e-22)
(1.01344 -0.0902777 3.60211e-23)
(1.03083 -0.0842872 3.14412e-22)
(0.773136 0.306377 -5.96982e-22)
(0.528608 0.338559 -1.12772e-22)
(0.785603 0.254435 -3.34946e-22)
(0.814294 0.295949 0)
(0.801053 0.274306 9.68783e-22)
(0.747815 0.220702 -1.8152e-22)
(0.767874 0.236634 1.83452e-22)
(0.704686 0.19239 -1.74805e-22)
(0.726649 0.20604 3.53128e-22)
(0.662987 0.164349 0)
(0.683126 0.178784 0)
(0.63228 0.130217 0)
(0.645671 0.148275 0)
(0.619024 0.0881888 2.52001e-24)
(0.623383 0.11021 0)
(0.623839 0.0394127 0)
(0.619259 0.0643747 0)
(0.643658 -0.0112154 0)
(0.632216 0.0140169 0)
(0.673001 -0.0589809 0)
(0.657476 -0.0356992 0)
(0.706743 -0.100451 0)
(0.689605 -0.0806485 0)
(0.740771 -0.133802 9.59503e-25)
(0.723924 -0.118187 0)
(0.772241 -0.158649 0)
(0.756951 -0.147263 0)
(0.799449 -0.175584 0)
(0.78644 -0.168038 0)
(0.821611 -0.185745 0)
(0.811176 -0.181427 0)
(0.83867 -0.190438 0)
(0.830763 -0.188696 0)
(0.851178 -0.190854 2.24303e-27)
(0.84546 -0.191125 0)
(0.860249 -0.187846 1.05745e-26)
(0.856095 -0.18975 0)
(0.867464 -0.181772 -7.32051e-25)
(0.864001 -0.185182 0)
(0.874751 -0.172519 0)
(0.870956 -0.177567 0)
(0.88409 -0.15962 0)
(0.878966 -0.166607 0)
(0.897076 -0.142583 -1.22694e-22)
(0.889847 -0.15179 0)
(0.914826 -0.121119 2.47884e-22)
(0.90487 -0.132768 -4.88207e-23)
(0.938986 -0.0948745 -2.63049e-22)
(0.925938 -0.108728 9.29873e-24)
(0.916654 -0.106849 5.18948e-23)
(0.933704 -0.0920858 -3.28805e-23)
(0.921087 -0.101129 0)
(0.93099 -0.107657 0)
(0.920353 -0.108937 0)
(0.966432 -0.0976567 2.73548e-23)
(0.946981 -0.103682 -1.3793e-22)
(1.00723 -0.0838829 -1.91155e-22)
(0.987187 -0.0908039 2.91405e-22)
(1.04525 -0.106086 1.30736e-24)
(1.04076 -0.0984994 3.57871e-22)
(1.05372 -0.122157 -2.77691e-26)
(1.04967 -0.113933 0)
(1.06069 -0.139548 2.82549e-24)
(1.05738 -0.130706 0)
(1.0665 -0.157896 -4.57318e-26)
(1.06373 -0.148619 0)
(1.0714 -0.1769 0)
(1.06905 -0.167345 0)
(1.07547 -0.196171 6.11885e-26)
(1.07354 -0.186528 0)
(1.07857 -0.215287 0)
(1.07716 -0.20578 0)
(1.08027 -0.233683 0)
(1.07963 -0.224619 0)
(1.07992 -0.250542 0)
(1.08041 -0.242368 0)
(1.07652 -0.26468 0)
(1.07867 -0.258042 0)
(1.06878 -0.274442 0)
(1.07328 -0.27023 0)
(1.05511 -0.277652 2.51862e-25)
(1.06279 -0.277019 0)
(1.03375 -0.27168 0)
(1.0455 -0.275988 0)
(1.00295 -0.253677 -8.11568e-25)
(1.01963 -0.264354 0)
(0.961324 -0.221027 0)
(0.983557 -0.239315 0)
(0.908194 -0.172027 -1.7804e-24)
(0.936199 -0.198618 0)
(0.844012 -0.10648 0)
(0.877415 -0.141261 0)
(0.770274 -0.0260827 -4.89058e-25)
(0.8082 -0.0679259 0)
(0.689873 0.0649086 0)
(0.730658 0.0184531 0)
(0.607655 0.159947 1.79895e-23)
(0.648562 0.112426 0)
(0.530307 0.250391 -4.79903e-22)
(0.567745 0.206535 -2.65075e-22)
(0.495019 0.291492 4.02951e-22)
(0.409738 0.403452 6.55185e-22)
(0.410485 0.387835 1.06148e-21)
(0.953656 -0.0802062 0)
(0.785351 0.327781 1.49079e-21)
(0.825216 0.318628 -5.26142e-22)
(0.598673 0.33702 -4.77101e-22)
(0.495464 0.365725 -1.71599e-23)
(1.02571 -0.0775229 3.04731e-22)
(0.67582 0.333032 0)
(0.462046 0.389798 0)
(0.74208 0.337244 4.24616e-22)
(0.429639 0.408674 0)
(0.390419 0.40969 0)
(0.400044 0.42108 -6.59937e-22)
(0.798906 0.349238 -1.41252e-21)
(0.962824 -0.0816467 4.60477e-22)
(0.979299 -0.0666456 -1.03252e-22)
(0.836766 0.341903 -8.28205e-23)
(0.543981 0.353394 -1.20746e-22)
(0.851137 0.286296 5.48492e-22)
(0.871168 0.334873 1.79587e-22)
(0.86105 0.31032 -5.62543e-22)
(0.827882 0.241476 1.29112e-23)
(0.840179 0.263271 1.70009e-22)
(0.798235 0.202781 1.5157e-24)
(0.814003 0.221219 -1.79109e-22)
(0.76128 0.171179 0)
(0.780691 0.186161 0)
(0.71981 0.143998 0)
(0.740695 0.157336 0)
(0.681842 0.115808 0)
(0.699804 0.130376 0)
(0.655745 0.0822189 -2.90999e-24)
(0.666954 0.0998512 0)
(0.645732 0.04212 0)
(0.648641 0.0628769 0)
(0.651508 -0.00172946 0)
(0.646844 0.0204221 0)
(0.669333 -0.0452914 0)
(0.659204 -0.0237944 0)
(0.694525 -0.0849384 1.22583e-24)
(0.681296 -0.0657785 0)
(0.722779 -0.118327 -1.16709e-24)
(0.7085 -0.1025 0)
(0.750804 -0.144466 0)
(0.736977 -0.132314 0)
(0.776449 -0.163406 0)
(0.764013 -0.154798 0)
(0.798594 -0.175835 0)
(0.78799 -0.170374 0)
(0.817001 -0.18269 0)
(0.80825 -0.179899 0)
(0.832173 -0.184838 2.44244e-27)
(0.824939 -0.184308 0)
(0.845233 -0.182858 1.12966e-26)
(0.838884 -0.184342 0)
(0.857738 -0.176916 6.86385e-25)
(0.851446 -0.180379 0)
(0.871438 -0.166847 0)
(0.864309 -0.172418 0)
(0.887942 -0.152336 0)
(0.87918 -0.160197 0)
(0.908346 -0.13318 8.44905e-25)
(0.897396 -0.143444 0)
(0.932953 -0.109616 2.27117e-24)
(0.919519 -0.122252 0)
(0.94636 -0.0966706 5.93789e-23)
(0.945243 -0.0785348 3.26401e-23)
(0.996625 -0.0511046 -1.21485e-23)
(0.968139 -0.0656467 0)
(0.921314 -0.095859 0)
(0.929346 -0.0888125 3.3996e-23)
(0.928871 -0.0994857 0)
(0.92136 -0.0994608 0)
(0.960516 -0.0912432 -2.0281e-22)
(0.942516 -0.0965338 0)
(1.001 -0.0777164 -3.28868e-22)
(0.980611 -0.0846741 1.55314e-22)
(1.02008 -0.0711465 3.68199e-23)
(1.05013 -0.0864374 4.08679e-23)
(1.04164 -0.0720764 -2.68075e-24)
(1.04595 -0.0791236 -3.13647e-22)
(1.05812 -0.101886 -2.95697e-26)
(1.05429 -0.0939661 -4.04601e-23)
(1.06518 -0.118667 -3.74219e-26)
(1.06185 -0.110111 0)
(1.07128 -0.136556 -4.52809e-26)
(1.06834 -0.127489 0)
(1.0768 -0.155264 -5.27672e-26)
(1.0741 -0.145823 0)
(1.08198 -0.17453 0)
(1.07943 -0.164845 0)
(1.08689 -0.194088 6.58367e-26)
(1.08448 -0.184291 0)
(1.09138 -0.213623 1.31629e-24)
(1.08921 -0.203882 0)
(1.0951 -0.23269 0)
(1.09337 -0.22325 0)
(1.09746 -0.250612 0)
(1.0965 -0.241848 0)
(1.09757 -0.266365 0)
(1.09787 -0.25884 0)
(1.0942 -0.27846 5.53133e-25)
(1.09641 -0.272982 0)
(1.08577 -0.284872 -2.51862e-25)
(1.09073 -0.282523 0)
(1.07042 -0.283046 0)
(1.07909 -0.285162 0)
(1.04614 -0.270084 8.11568e-25)
(1.05952 -0.278139 0)
(1.01111 -0.243148 0)
(1.03007 -0.258517 0)
(0.964097 -0.200103 -2.31574e-24)
(0.989147 -0.223721 0)
(0.904835 -0.140169 0)
(0.935972 -0.172223 0)
(0.834175 -0.0645002 6.55133e-24)
(0.87083 -0.10413 0)
(0.754311 0.0233567 0)
(0.795202 -0.0217812 0)
(0.668923 0.117708 3.79011e-24)
(0.712019 0.0701378 0)
(0.583384 0.210998 -1.92542e-22)
(0.625851 0.165016 -2.16621e-22)
(0.503161 0.294899 -7.23587e-22)
(0.542048 0.254828 1.1855e-21)
(0.432873 0.362674 -1.23903e-21)
(0.466563 0.33109 1.24799e-21)
(0.374385 0.426046 -7.14192e-22)
(0.377694 0.408025 0)
(0.402902 0.388681 0)
(0.844643 0.366725 -8.40578e-22)
(0.879579 0.359527 4.24418e-22)
(0.620087 0.349312 3.44445e-22)
(0.506426 0.381085 0)
(0.355166 0.422665 0)
(0.361706 0.437108 7.48954e-22)
(0.6933 0.348674 -6.50805e-23)
(0.467411 0.404957 1.81726e-23)
(0.756319 0.357006 3.90668e-22)
(0.429561 0.422961 7.94647e-24)
(1.01276 -0.0361508 4.54704e-23)
(1.02811 -0.0361051 4.02894e-24)
(1.04538 -0.020966 0)
(0.807564 0.372593 3.60396e-22)
(0.393959 0.43396 -4.31503e-23)
(0.856833 0.390154 -1.07385e-22)
(1.03683 -0.0653808 1.47343e-24)
(0.891749 0.383624 0)
(0.561756 0.36632 -4.45996e-24)
(0.902752 0.326797 2.72051e-22)
(0.923649 0.376012 0)
(0.912238 0.351797 -4.66327e-22)
(0.884332 0.277693 -1.33119e-22)
(0.893273 0.302263 1.36014e-22)
(0.865189 0.230589 0)
(0.875042 0.253654 0)
(0.842488 0.188288 -1.4992e-24)
(0.854549 0.208703 0)
(0.813093 0.152709 -1.64135e-24)
(0.828732 0.169583 0)
(0.776899 0.123686 0)
(0.795686 0.137529 0)
(0.738386 0.0976892 0)
(0.757491 0.110616 0)
(0.705083 0.0700102 -1.23925e-25)
(0.720629 0.084313 0)
(0.683363 0.037678 0)
(0.692512 0.0544784 0)
(0.675955 0.0011066 0)
(0.677881 0.0197875 0)
(0.68156 -0.0370136 0)
(0.677319 -0.0179679 0)
(0.696803 -0.0734158 -1.22582e-24)
(0.688227 -0.0556106 0)
(0.717767 -0.105508 1.16709e-24)
(0.706802 -0.0901156 0)
(0.741056 -0.131792 1.18915e-24)
(0.729296 -0.119423 0)
(0.764235 -0.15177 0)
(0.752769 -0.142565 0)
(0.785906 -0.165628 0)
(0.775307 -0.159432 0)
(0.805621 -0.173869 0)
(0.796003 -0.170412 0)
(0.823735 -0.177007 1.34133e-27)
(0.814831 -0.176047 0)
(0.841213 -0.175356 1.26877e-26)
(0.832478 -0.176767 0)
(0.85937 -0.16896 -6.86385e-25)
(0.850117 -0.172751 0)
(0.879556 -0.157693 -1.10319e-24)
(0.869117 -0.163945 0)
(0.902815 -0.141455 0)
(0.890695 -0.150211 0)
(0.929613 -0.120412 -6.66758e-25)
(0.915577 -0.131577 0)
(0.959604 -0.0952466 3.06286e-23)
(0.943727 -0.108493 0)
(0.992711 -0.0666688 -2.89286e-22)
(0.974773 -0.0818141 -7.5963e-23)
(1.0101 -0.0516662 7.8696e-23)
(0.958032 -0.0643729 0)
(0.983056 -0.050969 0)
(0.927355 -0.0842062 0)
(0.938971 -0.0757465 -3.37258e-23)
(0.928053 -0.0906317 0)
(0.923874 -0.0891796 0)
(0.95506 -0.0845811 9.58507e-23)
(0.93892 -0.0889314 0)
(0.9948 -0.0716995 1.08687e-22)
(0.974486 -0.0784834 -8.16862e-23)
(1.05478 -0.0676573 -6.02548e-22)
(1.05115 -0.0606473 2.9321e-22)
(1.03215 -0.0589118 -2.86655e-22)
(1.01433 -0.0649633 -1.08005e-22)
(1.0618 -0.0824779 1.19203e-24)
(1.0584 -0.0749128 1.59839e-22)
(1.06836 -0.0984967 -2.48319e-24)
(1.06518 -0.0903062 0)
(1.07416 -0.1157 -4.48612e-26)
(1.07134 -0.106965 0)
(1.07959 -0.133809 -5.15269e-26)
(1.0769 -0.124655 0)
(1.08497 -0.152597 -1.37553e-24)
(1.08227 -0.14313 0)
(1.09048 -0.171876 0)
(1.0877 -0.162186 0)
(1.09619 -0.191466 6.87185e-26)
(1.09332 -0.181645 0)
(1.10196 -0.211143 -1.31629e-24)
(1.09908 -0.201311 0)
(1.10753 -0.230566 1.14649e-24)
(1.1048 -0.220914 0)
(1.11239 -0.249184 0)
(1.11009 -0.24002 0)
(1.11578 -0.266129 0)
(1.11433 -0.257935 0)
(1.11659 -0.280098 -7.95349e-26)
(1.11659 -0.273586 0)
(1.11332 -0.289249 0)
(1.11558 -0.285411 0)
(1.1041 -0.291173 0)
(1.10959 -0.291283 0)
(1.08677 -0.283008 0)
(1.09659 -0.288537 0)
(1.05915 -0.261781 0)
(1.07437 -0.274198 0)
(1.01947 -0.224997 2.31573e-24)
(1.0409 -0.245446 0)
(0.96677 -0.171345 0)
(0.994767 -0.200291 0)
(0.901224 -0.101373 -7.27533e-24)
(0.935543 -0.13827 0)
(0.824361 -0.0179482 0)
(0.864057 -0.0610694 0)
(0.739065 0.0738579 -3.79069e-24)
(0.782544 0.0272988 0)
(0.64942 0.167317 0)
(0.694482 0.120855 0)
(0.560833 0.254317 -1.13148e-22)
(0.604663 0.212154 1.12965e-22)
(0.477643 0.327556 2.93128e-22)
(0.518103 0.293147 -3.64902e-22)
(0.405753 0.380264 -5.79601e-22)
(0.440604 0.356505 5.83732e-22)
(0.336583 0.431175 -7.35142e-22)
(0.347106 0.409615 7.36609e-22)
(0.374073 0.398469 0)
(0.902822 0.40793 -5.97515e-23)
(0.934938 0.400665 0)
(0.351731 0.443644 0)
(0.320362 0.434705 6.8897e-22)
(0.322658 0.415474 -6.53346e-22)
(0.638583 0.362586 -1.3134e-22)
(0.519268 0.39394 0)
(0.70852 0.365902 -4.70093e-22)
(0.475432 0.417027 -1.80216e-23)
(1.02889 -0.0212428 2.49549e-23)
(1.06191 -0.0062895 -3.76769e-23)
(0.766313 0.378332 0)
(0.431885 0.433689 0)
(0.818448 0.395602 1.62808e-22)
(0.390217 0.442727 3.2986e-23)
(0.86696 0.413896 2.19422e-22)
(1.04725 -0.0539667 2.89621e-22)
(0.946799 0.424814 5.73334e-22)
(0.913277 0.431784 9.15195e-23)
(0.343308 0.446003 7.62089e-22)
(0.305688 0.433822 7.23653e-22)
(0.300943 0.41576 -5.43507e-22)
(0.957247 0.448288 -1.4412e-22)
(0.976298 0.415793 -1.65287e-22)
(1.0623 -0.0208377 8.37302e-23)
(1.07915 -0.00627951 -4.67075e-24)
(0.988539 0.439567 4.88294e-22)
(0.579082 0.378536 -4.77363e-23)
(0.952245 0.367259 1.05469e-22)
(0.963484 0.391888 -2.76536e-23)
(0.931518 0.318416 -9.68436e-23)
(0.940906 0.343081 2.80838e-22)
(0.913786 0.269337 0)
(0.922193 0.293818 0)
(0.89742 0.221545 -1.31658e-24)
(0.905611 0.24513 0)
(0.879726 0.177161 1.51209e-24)
(0.888917 0.198797 0)
(0.857805 0.13826 1.64135e-24)
(0.869477 0.156907 0)
(0.829519 0.106057 0)
(0.844498 0.121334 0)
(0.795892 0.0792533 0)
(0.813149 0.0921675 0)
(0.761801 0.0543323 -7.4101e-26)