/*--------------------------------*- C++ -*----------------------------------*\
  =========                 |
  \\      /  F ield         | OpenFOAM: The Open Source CFD Toolbox
   \\    /   O peration     | Website:  https://openfoam.org
    \\  /    A nd           | Version:  10
     \\/     M anipulation  |
\*---------------------------------------------------------------------------*/
FoamFile
{
    format      ascii;
    class       volScalarField;
    location    "2.5";
    object      p;
}
// * * * * * * * * * * * * * * * * * * * * * * * * * * * * * * * * * * * * * //

dimensions      [0 2 -2 0 0 0 0];

internalField   nonuniform List<scalar> 
28942
(
-0.539766
-0.535611
-0.240023
0.236435
0.246251
-0.0197625
-0.0111072
-0.021895
0.0226613
0.0289006
-0.53503
-0.512551
-0.504333
-0.511639
-0.0014569
0.00185912
0.453477
0.476877
0.161021
0.235415
0.336686
0.33996
-0.502871
-0.510154
-0.508808
-0.535189
0.787715
0.803203
-0.0270666
-0.0111392
-0.0405746
-0.0365672
0.0359854
0.00226001
0.125517
0.176192
0.442547
0.575873
-0.0228714
0.456697
0.293426
0.32139
0.0767693
0.0763628
0.0744439
-0.0134983
-0.00956867
-0.0105103
-0.00963152
0.000210344
0.0146263
0.0436566
0.0450094
0.0312198
0.0388567
-0.423884
-0.350205
-0.497208
-0.490685
-0.485521
-0.495588
-0.509257
-0.509526
-0.17256
-0.274464
-0.140136
-0.0628254
0.42928
0.400778
-0.555096
-0.551013
-0.547205
0.425419
0.405402
0.421827
-0.324276
-0.322748
-0.247053
-0.212175
-0.27431
-0.185723
-0.328943
-0.609744
-0.657616
-0.0816766
0.0135414
0.0853733
0.0480025
-0.0213485
-0.0153024
0.0251064
0.0488154
-0.580573
-0.622176
-0.534291
-0.510678
-0.504152
0.04377
0.096245
-0.698473
0.264786
0.266679
0.243072
0.250077
-0.112106
-0.104574
-0.122384
0.16907
0.178398
0.179739
-0.498368
-0.498727
-0.532994
-0.50723
-0.520988
0.866593
0.797909
0.7358
0.812691
-0.0347721
0.120574
0.0542983
0.0607873
0.044396
0.912405
0.925213
0.890474
0.0747458
0.116405
-0.0130112
-0.013077
-0.0156091
0.442469
0.545997
0.220333
0.210575
0.290514
0.192779
0.338891
0.317729
-0.480622
-0.483164
0.134921
0.0710403
0.0719588
-0.298393
-0.318476
-0.285866
-0.48768
0.129742
0.137072
-0.0840165
-0.026637
-0.0281482
-0.0221209
-0.0242698
0.209489
0.118819
-0.436705
-0.480516
-0.513175
-0.550783
-0.530244
-0.0131321
-0.510807
-0.478829
0.358138
0.369115
0.429308
0.406596
0.327101
0.0471987
0.0448755
0.0528852
0.045413
0.142905
0.129743
0.150248
0.162523
0.159757
0.167745
0.180279
0.21659
0.196877
0.173742
0.194608
0.238333
0.294196
0.315228
-0.58463
-0.583656
-0.536028
-0.0141842
-0.0107389
-0.425278
-0.47183
-0.0034554
-0.00384639
-0.00625509
-0.00782759
0.060796
0.0606544
0.0600989
-0.493914
-0.500943
-0.500809
-0.501824
-0.505337
-0.506432
-0.525273
-0.589263
-0.548304
0.852282
0.821267
0.865785
-0.0901293
-0.0770071
-0.0861248
0.471937
0.455672
0.464078
0.0440251
0.043364
0.0446873
0.0427052
0.0420544
0.0414115
0.0414222
0.0407758
0.0408004
0.042052
0.0427021
0.043359
0.0440256
0.0446844
0.0401526
0.040174
0.0453611
0.0453619
0.0460571
0.0395372
0.039542
0.0460543
0.0389187
0.0383021
0.0389211
0.0383071
0.046739
0.04674
0.0376915
0.0376986
0.0474296
0.0474371
0.0370866
0.0370937
0.0481318
0.048146
0.0364876
0.036493
0.0488458
0.0488647
0.035894
0.0358956
0.0495734
0.0495934
0.0353049
0.0353036
0.0503172
0.0503257
0.0347192
0.0347174
0.0510645
0.0510666
0.0341373
0.034135
0.051835
0.0518269
0.0335562
0.0335506
0.0526072
0.0525967
0.0329813
0.03296
0.0534084
0.053391
0.0323913
0.0323708
0.0542225
0.054204
0.0317803
0.0317756
0.0533989
0.0542143
0.0550586
0.0550317
0.051819
0.0526069
0.0502967
0.0510603
0.048837
0.0495588
0.0474192
0.0481248
0.0460256
0.046719
0.0446894
0.0453611
0.043365
0.0440169
0.0420631
0.0427145
0.0407743
0.0414173
0.0395251
0.0401475
0.0382924
0.0389063
0.0370785
0.0376825
0.035884
0.036479
0.0347054
0.0352921
0.0335444
0.0341215
0.0323781
0.0329669
0.0317866
0.0311807
0.0311766
0.0329482
0.0317778
0.0323661
0.0341191
0.033534
0.035289
0.0347027
0.0364766
0.0358804
0.0376822
0.0370774
0.0389039
0.0382909
0.040152
0.0395237
0.0414167
0.0407888
0.0426919
0.0420529
0.0440045
0.0433432
0.0453472
0.0446755
0.0467135
0.0460202
0.0481193
0.047412
0.0495634
0.0488367
0.0510427
0.0502977
0.0525711
0.0517977
0.0541537
0.0533531
0.0549795
0.0550485
0.0311902
0.031181
0.0558861
0.0558245
0.0558976
0.0559093
0.0533713
0.0550054
0.0541789
0.0517934
0.0525759
0.0502854
0.0510323
0.0488335
0.0495537
0.0474168
0.0481213
0.0460347
0.0467202
0.0446817
0.0453574
0.0433558
0.0440207
0.0420604
0.0426995
0.0407729
0.0414139
0.0395243
0.0401455
0.0382931
0.0389067
0.0370798
0.0376841
0.0358846
0.0364801
0.0347059
0.0352937
0.0335432
0.0341222
0.0323778
0.0329622
0.0305849
0.0305972
0.0312074
0.0317948
0.0317819
0.0312009
0.030595
0.0305818
0.0329378
0.0323625
0.0340985
0.033514
0.03527
0.0346826
0.0364567
0.0358613
0.0376608
0.0370567
0.0388821
0.0382693
0.0401251
0.0395005
0.0413898
0.0407559
0.0426753
0.0420294
0.0439763
0.0433215
0.045316
0.0446474
0.0466804
0.045993
0.048082
0.047377
0.0495193
0.0487962
0.0509933
0.0502515
0.0525116
0.051746
0.0540837
0.0532902
0.0557313
0.0548992
0.0558509
0.0566816
0.0565878
0.0567447
0.0306266
0.0306033
0.0567606
0.0567057
0.0575537
0.0574632
0.0567801
0.0312223
0.0306476
0.0300051
0.030012
0.0566189
0.0575638
0.0582721
0.0574787
0.0549394
0.0557717
0.053324
0.0541237
0.0517639
0.0525356
0.0502694
0.0510082
0.0488211
0.0495409
0.0474063
0.0481095
0.0460254
0.0467117
0.0446734
0.0453457
0.0433474
0.0440085
0.04205
0.042695
0.0407701
0.041407
0.0395201
0.040142
0.038289
0.0389025
0.0370759
0.0376802
0.0358801
0.0364758
0.0347004
0.0352885
0.0335354
0.0341161
0.0323755
0.0329541
0.0317975
0.030003
0.030037
0.030017
0.0299982
0.031772
0.0306087
0.0311943
0.032921
0.0323461
0.0340758
0.0334943
0.0352471
0.0346598
0.0364332
0.0358383
0.0376358
0.0370324
0.0388562
0.0382437
0.0400963
0.0394737
0.0413568
0.0407238
0.0426402
0.0419958
0.0439441
0.0432889
0.0452784
0.0446084
0.04664
0.0459551
0.0480361
0.0473337
0.0494676
0.0487474
0.0509361
0.050197
0.052446
0.0516856
0.0540042
0.0532184
0.055624
0.0548058
0.0573397
0.0564691
0.0583549
0.0582251
0.0576325
0.0576214
0.0300649
0.0300244
0.0584317
0.0584462
0.0594335
0.0591303
0.0592575
0.0597579
0.0607593
0.0576479
0.0581682
0.058909
0.0565501
0.0573919
0.054874
0.0557032
0.0532704
0.0540624
0.0517286
0.0524942
0.0502439
0.0509799
0.0487981
0.0495169
0.0473861
0.0480878
0.0460067
0.0466926
0.0446573
0.0453284
0.0433344
0.0439927
0.0420368
0.0426827
0.0407616
0.0413963
0.0395106
0.0401332
0.0382798
0.038893
0.0370668
0.0376711
0.0358712
0.0364669
0.0346911
0.0352793
0.0335248
0.0341064
0.0323703
0.0329448
0.031228
0.0317992
0.0300786
0.0306532
0.0294592
0.0294995
0.0294794
0.0294257
0.0294405
0.029424
0.0294195
0.0294476
0.0294353
0.0306065
0.0294713
0.0300367
0.0317524
0.0311806
0.0328967
0.0323232
0.0340507
0.0334714
0.0352205
0.0346339
0.0364054
0.0358111
0.0376064
0.0370038
0.0388251
0.0382134
0.0400629
0.0394416
0.0413202
0.040689
0.0425999
0.0419573
0.0439028
0.0432482
0.0452323
0.0445642
0.0465907
0.0459077
0.0479814
0.0472819
0.0494067
0.0486897
0.0508692
0.0501331
0.0523724
0.0516156
0.0539197
0.0531402
0.05552
0.0547126
0.0571977
0.0563466
0.0589756
0.0580768
0.0600556
0.0598956
0.05851
0.0584993
0.0593367
0.0593498
0.0300869
0.0295162
0.0288769
0.0288828
0.0604211
0.0601788
0.0612761
0.0597899
0.0609986
0.0608368
0.060715
0.0585233
0.0581677
0.0589759
0.0564941
0.0573423
0.0548119
0.055644
0.0532226
0.0540076
0.0516918
0.0524514
0.0502096
0.0509452
0.0487662
0.0494835
0.0473575
0.0480577
0.0459812
0.0466656
0.0446345
0.0453044
0.0433144
0.0439713
0.0420188
0.0426636
0.0407463
0.0413798
0.0394959
0.0401184
0.0382659
0.0388786
0.0370536
0.0376576
0.0358584
0.036454
0.0346786
0.0352667
0.0335126
0.034094
0.0323614
0.0329346
0.0312244
0.0317901
0.0306542
0.0288885
0.0289245
0.0289041
0.0288553
0.0288768
0.0288584
0.0288563
0.0288655
0.0305975
0.0294617
0.0300351
0.0317268
0.0311621
0.0328684
0.0322962
0.0340223
0.0334438
0.0351903
0.0346045
0.0363733
0.0357799
0.0375724
0.0369708
0.0387888
0.0381783
0.040024
0.0394041
0.0412786
0.0406488
0.0425546
0.0419139
0.0438541
0.0432013
0.0451792
0.0445134
0.0465329
0.0458524
0.0479176
0.0472212
0.0493361
0.0486226
0.0507913
0.050059
0.052287
0.0515339
0.0538265
0.0530511
0.0554143
0.0546139
0.0570645
0.0562304
0.0588013
0.0579179
0.0606381
0.0597092
0.0617983
0.0615947
0.0593823
0.059394
0.0289367
0.028888
0.0603187
0.0613681
0.0613758
0.060265
0.0611194
0.0616109
0.0624532
0.062299
0.0619603
0.062778
0.0625749
0.0594071
0.0597917
0.0616178
0.06069
0.0581081
0.0589458
0.0564117
0.0572662
0.0547472
0.0555685
0.0531685
0.0539494
0.0516438
0.0524004
0.0501644
0.0508987
0.0487251
0.0494402
0.0473208
0.0480188
0.0459484
0.0466308
0.044605
0.0452733
0.0432879
0.0439433
0.041995
0.0426385
0.040725
0.0413573
0.0394762
0.040098
0.0382474
0.0388595
0.0370363
0.0376397
0.0358417
0.036437
0.0346626
0.0352504
0.0334978
0.0340785
0.032347
0.0329207
0.0312113
0.0317769
0.0300848
0.0306482
0.028939
0.029518
0.0283521
0.0283614
0.0283566
0.0283298
0.0283406
0.0283088
0.0283161
0.0283015
0.0283056
0.0283102
0.0283067
0.0283195
0.0283135
0.0294486
0.0283232
0.0288866
0.0305755
0.030015
0.0316995
0.0311357
0.0328378
0.0322667
0.0339902
0.0334123
0.0351563
0.0345715
0.0363373
0.0357449
0.037534
0.0369336
0.0387478
0.0381387
0.0399799
0.0393615
0.0412313
0.0406031
0.0425035
0.0418647
0.0437988
0.0431482
0.0451191
0.0444557
0.046467
0.0457895
0.0478452
0.0471522
0.0492561
0.0485464
0.0507029
0.0499748
0.0521892
0.0514409
0.0537194
0.0529486
0.055298
0.0545023
0.0569313
0.0561075
0.0586329
0.0577714
0.0604226
0.0595175
0.0623207
0.0613582
0.0635669
0.0633076
0.0603043
0.0624925
0.0613425
0.0289424
0.0283777
0.0277519
0.027753
0.0603135
0.0612044
0.0623115
0.0620844
0.0629497
0.0637834
0.0645813
0.0643161
0.0603193
0.0615188
0.0634192
0.0633612
0.062435
0.0596922
0.0605951
0.0579892
0.0588296
0.0563087
0.057152
0.0546681
0.0554787
0.0530992
0.0538762
0.0515816
0.0523347
0.0501084
0.0508397
0.0486749
0.0493871
0.0472759
0.0479713
0.0459081
0.0465883
0.0445687
0.045235
0.0432552
0.0439089
0.0419656
0.0426075
0.0406982
0.0413293
0.0394516
0.0400724
0.0382244
0.0388358
0.0370147
0.0376175
0.0358212
0.036416
0.0346431
0.0352303
0.0334794
0.0340595
0.0323295
0.0329027
0.0311941
0.0317598
0.0300706
0.0306305
0.0295075
0.0277888
0.0277955
0.0277934
0.0277756
0.0277843
0.02777
0.0277716
0.0277566
0.0277651
0.0277514
0.0277538
0.0277509
0.0294329
0.028315
0.0288754
0.0305429
0.0299868
0.0316674
0.0311039
0.0328042
0.0322342
0.0339544
0.0333776
0.0351185
0.0345348
0.0362972
0.035706
0.0374914
0.0368923
0.0387022
0.0380947
0.0399309
0.0393143
0.0411785
0.0405523
0.0424466
0.04181
0.0437371
0.043089
0.045052
0.0443914
0.0463935
0.0457193
0.0477643
0.0470752
0.0491669
0.0484615
0.0506042
0.049881
0.0520799
0.0513371
0.0535983
0.0528335
0.0551649
0.0543752
0.0567851
0.0559681
0.0584657
0.0576172
0.0602155
0.0593318
0.0620547
0.0611211
0.0640108
0.0630194
0.0633822
0.0634496
0.0653474
0.0650282
0.0612999
0.0278171
0.0277471
0.0643115
0.0612612
0.0644346
0.0623459
0.0621732
0.0632438
0.0630709
0.0639494
0.0647983
0.0656147
0.0663954
0.0660622
0.0612836
0.0632227
0.065299
0.0651244
0.064166
0.0613603
0.0622906
0.0595509
0.0604398
0.0578482
0.0586886
0.0561907
0.0570192
0.0545724
0.0553735
0.0530152
0.053787
0.0515074
0.0522557
0.0500424
0.0507698
0.0486158
0.0493247
0.047223
0.0479154
0.0458605
0.0465381
0.0445258
0.0451899
0.0432165
0.0438681
0.0419305
0.0425707
0.0406662
0.0412958
0.0394222
0.0400418
0.0381969
0.0388073
0.0369889
0.0375908
0.0357969
0.0363909
0.03462
0.0352066
0.0334574
0.034037
0.0323085
0.0328812
0.031173
0.0317391
0.0300505
0.0306101
0.0289384
0.0294929
0.0278168
0.028384
0.0272418
0.0272486
0.0272452
0.0272391
0.0272397
0.0272342
0.0272349
0.0272339
0.0272352
0.0272176
0.0272283
0.0272022
0.0272067
0.0271901
0.0271956
0.027185
0.0271858
0.028296
0.027179
0.02774
0.029403
0.0288503
0.0305101
0.0299556
0.0316321
0.0310694
0.0327671
0.032198
0.0339153
0.0333396
0.0350771
0.0344945
0.0362532
0.0356634
0.0374446
0.036847
0.0386522
0.0380463
0.0398771
0.0392624
0.0411206
0.0404965
0.042384
0.0417497
0.0436692
0.0430238
0.044978
0.0443205
0.0463126
0.0456419
0.0476753
0.0469903
0.0490687
0.0483681
0.0504957
0.0497779
0.0519597
0.0512229
0.0534647
0.0527068
0.0550159
0.0542342
0.0566192
0.0558107
0.0582806
0.0574424
0.060003
0.059134
0.0617986
0.0608904
0.0636873
0.0627303
0.0656817
0.0646698
0.0645042
0.064555
0.0671222
0.0667323
0.0623133
0.0622365
0.0661161
0.0663236
0.0654667
0.0633173
0.0631666
0.0278081
0.0272527
0.0266262
0.0266209
0.0642318
0.0640814
0.0649725
0.0658399
0.066674
0.0674641
0.0671367
0.0668784
0.0679034
0.0682108
0.0678084
0.0682009
0.0622742
0.0649179
0.0659003
0.0629893
0.0639317
0.0611602
0.0620768
0.0593795
0.0602543
0.0576961
0.0585291
0.0560579
0.0568735
0.0544614
0.0552529
0.0529184
0.0536836
0.0514221
0.0521649
0.0499668
0.0506896
0.0485481
0.0492531
0.0471622
0.0478513
0.0458059
0.0464806
0.0444765
0.045138
0.0431719
0.0438213
0.0418899
0.0425282
0.0406291
0.041257
0.0393879
0.0400062
0.038165
0.0387743
0.0369589
0.03756
0.0357686
0.0363619
0.0345932
0.0351791
0.0334319
0.0340109
0.0322841
0.0328564
0.0311494
0.0317152
0.0300283
0.0305871
0.0289202
0.0294722
0.0283664
0.0266865
0.0266876
0.0266867
0.0266929
0.0266908
0.0266998
0.0266963
0.0266994
0.0267015
0.0266837
0.0266938
0.026659
0.0266703
0.0266428
0.0266519
0.0266343
0.02827
0.0271689
0.0277213
0.0293665
0.0288156
0.0304738
0.0299188
0.0315937
0.0310321
0.0327267
0.0321586
0.0338727
0.0332981
0.035032
0.0344507
0.0362054
0.035617
0.0373937
0.0367977
0.0385977
0.0379937
0.0398186
0.039206
0.0410575
0.0404357
0.0423158
0.0416842
0.0435951
0.0429528
0.0448973
0.0442433
0.0462243
0.0455576
0.0475784
0.0468979
0.0489619
0.0482663
0.0503777
0.0496656
0.0518289
0.0510987
0.0533193
0.052569
0.0548534
0.0540806
0.0564368
0.0556386
0.0580754
0.057249
0.0597728
0.0589166
0.0615349
0.0606452
0.0633728
0.0624439
0.0652986
0.0643235
0.067329
0.066301
0.0673816
0.0688928
0.0693228
0.0700132
0.0695137
0.068404
0.0655379
0.0656976
0.0633252
0.0632362
0.0266943
0.0266083
0.0665507
0.064317
0.0641841
0.0652652
0.0651164
0.0660271
0.0669093
0.067761
0.068572
0.0689634
0.0686045
0.0696663
0.0689428
0.0700273
0.0706413
0.0700625
0.0692928
0.0684691
0.0704605
0.0711545
0.0632841
0.0665953
0.067583
0.0646337
0.0656019
0.0627327
0.0636705
0.0609321
0.0618259
0.0591943
0.0600531
0.0575295
0.0583545
0.0559118
0.0567158
0.0543369
0.0551185
0.0528097
0.0535675
0.0513263
0.0520629
0.0498816
0.0505994
0.048472
0.0491727
0.0470939
0.0477792
0.0457444
0.0464158
0.044421
0.0450796
0.0431215
0.0437684
0.041844
0.0424801
0.040587
0.0412131
0.0393491
0.0399658
0.0381288
0.0387368
0.036925
0.037525
0.0357367
0.036329
0.0345629
0.035148
0.033403
0.0339813
0.0322564
0.0328281
0.0311228
0.031688
0.0300021
0.0305609
0.0288944
0.0294466
0.0277958
0.0283444
0.026689
0.0272425
0.0261367
0.0261333
0.0261348
0.0261432
0.0261379
0.0261561
0.0261478
0.0261684
0.0261638
0.0261671
0.0261694
0.0261529
0.0261619
0.0261257
0.0261402
0.0260994
0.0261138
0.0260752
0.026086
0.0260514
0.0260646
0.0271408
0.0260377
0.0265925
0.028235
0.0276898
0.0293275
0.0287796
0.0304338
0.0298792
0.0315521
0.0309915
0.032683
0.032116
0.0338267
0.0332533
0.0349834
0.0344034
0.0361539
0.0355669
0.0373388
0.0367445
0.038539
0.0379369
0.0397555
0.0391452
0.0409895
0.0403703
0.0422423
0.0416135
0.0435153
0.0428762
0.0448103
0.04416
0.0461291
0.0454666
0.0474738
0.0467981
0.0488467
0.0481567
0.0502504
0.0495446
0.0516879
0.0509648
0.0531625
0.0524203
0.0546785
0.0539151
0.0562404
0.0554534
0.0578534
0.0570403
0.0595223
0.0586807
0.0612524
0.0603794
0.0630491
0.0621423
0.0649175
0.0639738
0.0668663
0.0658826
0.0678795
0.0665596
0.0667496
0.0717639
0.0711256
0.0643401
0.0642595
0.0676309
0.0653498
0.0652278
0.0266747
0.026124
0.0254995
0.0254808
0.0663277
0.066181
0.0671121
0.0680135
0.0688812
0.069698
0.0707565
0.0702811
0.0713485
0.0718744
0.0712053
0.0704227
0.0695953
0.0716298
0.0723231
0.0722248
0.0729347
0.0643105
0.0682199
0.0692413
0.0662435
0.0672241
0.0643037
0.0652651
0.0624597
0.06337
0.0606972
0.0615705
0.0589938
0.059838
0.0573497
0.0581649
0.0557538
0.0565464
0.0542
0.0549715
0.0526899
0.0534396
0.0512203
0.0519503
0.0497874
0.0504995
0.0483877
0.0490836
0.0470183
0.0476995
0.0456763
0.046344
0.0443594
0.0450148
0.0430655
0.0437097
0.0417929
0.0424267
0.0405401
0.0411641
0.0393057
0.0399207
0.0380884
0.038695
0.0368872
0.0374859
0.035701
0.0362923
0.0345291
0.0351134
0.0333708
0.0339483
0.0322255
0.0327966
0.031093
0.0316577
0.029973
0.0305315
0.0288658
0.0294177
0.0277713
0.0283158
0.0272253
0.0255887
0.0255785
0.0255852
0.0256038
0.0255966
0.0256266
0.0256153
0.0256389
0.0256349
0.0256378
0.0256399
0.0256247
0.0256329
0.0255975
0.0256129
0.0255625
0.0255805
0.0255294
0.0255454
0.0255149
0.0271073
0.0260142
0.0265645
0.0281946
0.0276497
0.0292862
0.0287387
0.0303907
0.0298369
0.0315073
0.0309476
0.0326361
0.0320702
0.0337773
0.0332052
0.0349313
0.0343527
0.0360986
0.0355133
0.03728
0.0366875
0.0384761
0.0378762
0.039688
0.0390801
0.0409168
0.0403003
0.0421636
0.0415379
0.0434298
0.0427942
0.0447171
0.0440708
0.0460272
0.0453693
0.047362
0.0466914
0.0487236
0.0480393
0.0501144
0.0494152
0.0515371
0.0508216
0.0529949
0.0522614
0.0544914
0.0537381
0.0560306
0.0552554
0.0576167
0.0568176
0.0592543
0.0584288
0.0609486
0.0600941
0.0627041
0.0618186
0.0645242
0.063606
0.0664087
0.0654587
0.0683777
0.06738
0.0704532
0.0694082
0.0733829
0.0726275
0.0715238
0.0676378
0.0678645
0.0653807
0.065308
0.0255689
0.0254632
0.0687405
0.066418
0.0663003
0.0674194
0.0672772
0.0682307
0.0691539
0.070036
0.070861
0.0724511
0.0718758
0.0729513
0.0718347
0.0729058
0.0737494
0.0736026
0.0730328
0.0723599
0.0716034
0.0707671
0.0728372
0.0735205
0.074097
0.0745403
0.0653587
0.069785
0.0708216
0.0677761
0.06875
0.065837
0.0668088
0.0639637
0.0648893
0.0621737
0.0630597
0.0604481
0.0613037
0.0587763
0.0596057
0.057157
0.0579603
0.055584
0.0563653
0.0540517
0.0548129
0.0525594
0.0533007
0.0511048
0.0518276
0.0496846
0.0503906
0.0482958
0.0489864
0.0469357
0.0476123
0.0456018
0.0462656
0.0442919
0.044944
0.0430041
0.0436453
0.0417367
0.042368
0.0404885
0.0411103
0.0392579
0.0398711
0.0380439
0.0386489
0.0368455
0.0374429
0.0356618
0.0362519
0.0344919
0.0350752
0.0333352
0.033912
0.0321914
0.0327618
0.03106
0.0316242
0.0299408
0.0304989
0.0288339
0.0293858
0.0277418
0.0282853
0.0266523
0.0271958
0.0255489
0.0261061
0.025029
0.0249952
0.0250106
0.0250502
0.0250411
0.0250733
0.0250574
0.0251005
0.0250887
0.0251125
0.0251083
0.0251118
0.0251136
0.0250991
0.025107
0.0250731
0.0250879
0.0250355
0.0250555
0.0249925
0.0250133
0.024958
0.0249774
0.0249222
0.0249392
0.0259854
0.0249053
0.025449
0.0270676
0.0265284
0.0281499
0.0276069
0.0292415
0.0286943
0.0303446
0.0297916
0.0314595
0.0309006
0.0325861
0.0320213
0.0337248
0.0331539
0.0348759
0.0342988
0.0360399
0.0354562
0.0372174
0.0366269
0.0384093
0.0378115
0.0396163
0.0390108
0.0408394
0.0402258
0.0420799
0.0414575
0.043339
0.0427071
0.0446181
0.043976
0.045919
0.0452658
0.0472432
0.0465781
0.0485928
0.0479148
0.04997
0.0492779
0.0513772
0.0506697
0.0528171
0.0520929
0.054293
0.0535504
0.0558082
0.0550455
0.0573664
0.0565818
0.0589713
0.0581628
0.0606272
0.0597926
0.0623379
0.0614755
0.0641069
0.0632151
0.0659342
0.0650133
0.0678235
0.0668705
0.0697826
0.068796
0.0707895
0.068762
0.0689982
0.0748732
0.0739896
0.066453
0.0663849
0.0698848
0.0675184
0.0674046
0.0255311
0.0249869
0.0243808
0.0243575
0.0685485
0.0684079
0.0693861
0.0703301
0.071227
0.0720669
0.074054
0.0733063
0.0743487
0.0751878
0.0747807
0.0742175
0.0735706
0.072821
0.071969
0.0740824
0.0747477
0.0752993
0.0757216
0.0750465
0.0760009
0.0664356
0.0712572
0.0722834
0.0692377
0.0702471
0.0672838
0.0682467
0.0654184
0.0663454
0.0636135
0.0645075
0.061871
0.0627353
0.0601826
0.0610203
0.0585437
0.0593572
0.0569521
0.0577422
0.0554033
0.0561727
0.0538928
0.0546434
0.0524192
0.0531515
0.0509803
0.0516956
0.0495736
0.0502732
0.0481965
0.0488815
0.0468464
0.0475182
0.0455211
0.0461808
0.0442187
0.0448672
0.0429374
0.0435755
0.0416757
0.0423042
0.0404323
0.0410518
0.0392059
0.0398171
0.0379955
0.0385988
0.0368002
0.0373961
0.035619
0.0362079
0.0344513
0.0350335
0.0332965
0.0338723
0.0321541
0.0327238
0.0310239
0.0315875
0.0299056
0.0304633
0.0287993
0.0293509
0.0277054
0.0282508
0.0266198
0.0271608
0.0260761
0.0244855
0.0244464
0.0244667
0.0245147
0.0245038
0.0245501
0.024531
0.0245768
0.0245655
0.024589
0.0245845
0.0245889
0.0245905
0.0245766
0.0245843
0.0245517
0.0245657
0.0245146
0.0245347
0.0244667
0.0244912
0.0244203
0.0244445
0.024399
0.0259514
0.0248766
0.025419
0.0270223
0.0264869
0.0281027
0.0275611
0.0291938
0.028647
0.0302956
0.0297434
0.0314086
0.0308508
0.032533
0.0319694
0.0336691
0.0330996
0.0348171
0.0342416
0.0359776
0.0353958
0.0371512
0.0365628
0.0383385
0.0377431
0.0395404
0.0389376
0.0407577
0.0401471
0.0419915
0.0413725
0.043243
0.042615
0.0445136
0.0438759
0.0458047
0.0451565
0.0471178
0.0464584
0.0484549
0.0477833
0.0498178
0.049133
0.0512086
0.0505096
0.0526298
0.0519153
0.0540841
0.0533527
0.0555744
0.0548246
0.0571035
0.0563339
0.0586747
0.0578837
0.0602909
0.059477
0.0619551
0.0611169
0.0636695
0.062806
0.0654354
0.0645459
0.0672539
0.0663384
0.0691185
0.0681809
0.0710404
0.0700711
0.0730415
0.0720341
0.0761213
0.0750425
0.0740376
0.0699227
0.070161
0.0675596
0.0674937
0.024443
0.024334
0.0710842
0.0686551
0.0685439
0.069716
0.0695759
0.0705801
0.071546
0.0724601
0.0733103
0.0754178
0.0745042
0.0755178
0.0739584
0.074888
0.0760499
0.0765339
0.0763429
0.0759708
0.0754573
0.074811
0.0740637
0.0732124
0.0753625
0.0760145
0.0765411
0.0769259
0.077149
0.0771858
0.067545
0.0725581
0.0735183
0.0705814
0.0715562
0.0686475
0.0696179
0.0667847
0.0677039
0.0649937
0.0658833
0.0632482
0.0641149
0.0615517
0.0623939
0.0599027
0.0607215
0.0582982
0.0590951
0.0567358
0.0575119
0.0552122
0.0559694
0.0537241
0.0544639
0.0522698
0.0529928
0.0508476
0.0515548
0.0494551
0.0501478
0.0480902
0.0487694
0.0467506
0.0474174
0.0454345
0.0460898
0.0441401
0.0447847
0.0428657
0.0435005
0.04161
0.0422356
0.0403718
0.0409888
0.0391499
0.0397589
0.0379433
0.0385448
0.0367512
0.0373456
0.0355728
0.0361604
0.0344075
0.0349886
0.0332546
0.0338295
0.0321138
0.0326827
0.0309848
0.0315478
0.0298673
0.0304246
0.0287615
0.029313
0.0276666
0.0282128
0.0265824
0.0271231
0.0255062
0.0260429
0.0244205
0.0249672
0.0239115
0.0238683
0.023891
0.023954
0.0239321
0.0239912
0.0239723
0.0240304
0.0240117
0.024056
0.024045
0.0240688
0.024064
0.0240692
0.0240706
0.0240572
0.0240647
0.0240329
0.0240466
0.0239968
0.0240164
0.0239467
0.0239735
0.02389
0.0239183
0.0238444
0.0238679
0.0237986
0.0238208
0.0248405
0.023774
0.0243078
0.0259076
0.0253772
0.0269747
0.0264386
0.0280537
0.0275127
0.0291435
0.0285973
0.0302438
0.0296924
0.0313549
0.030798
0.032477
0.0319146
0.0336103
0.0330422
0.0347552
0.0341813
0.0359121
0.0353322
0.0370815
0.0364953
0.0382641
0.0376712
0.0394606
0.0388606
0.0406717
0.0400643
0.0418986
0.0412832
0.0431422
0.0425183
0.0444038
0.0437707
0.0456847
0.0450418
0.0469863
0.0463328
0.0483102
0.0476454
0.0496582
0.0489811
0.051032
0.0503418
0.0524338
0.0517293
0.0538656
0.0531458
0.05533
0.0545936
0.0568292
0.0560751
0.0583656
0.0575927
0.0599415
0.0591486
0.0615583
0.0607447
0.0632169
0.0623824
0.064918
0.0640621
0.0666618
0.0657848
0.0684417
0.0675477
0.0702525
0.0693436
0.0720939
0.0711717
0.0730228
0.0711279
0.0713649
0.0770435
0.0758003
0.0687028
0.068638
0.0723086
0.0698306
0.0697212
0.0243938
0.023858
0.0232631
0.0232393
0.0709268
0.070784
0.0718161
0.0728047
0.073736
0.0745959
0.0765328
0.0754065
0.0763095
0.0775499
0.077656
0.0775194
0.0772044
0.0767196
0.0760774
0.0753322
0.0744864
0.0766864
0.0773244
0.0778192
0.0781588
0.0783123
0.0782632
0.0766587
0.077994
0.0686905
0.073591
0.074492
0.0717463
0.0726869
0.0698732
0.070787
0.0680499
0.0689642
0.0662784
0.0671556
0.0645554
0.0654127
0.0628666
0.0637063
0.0612181
0.0620372
0.0596104
0.0604093
0.0580413
0.0588212
0.056509
0.0572707
0.0550115
0.0557561
0.0535464
0.054275
0.0521121
0.0528255
0.050707
0.051406
0.0493294
0.050015
0.0479773
0.0486503
0.0466489
0.0473103
0.0453424
0.045993
0.0440563
0.0446969
0.0427892
0.0434205
0.0415398
0.0421624
0.0403071
0.0409215
0.0390899
0.0396966
0.0378874
0.0384869
0.0366988
0.0372915
0.0355234
0.0361095
0.0343605
0.0349404
0.0332096
0.0337836
0.0320704
0.0326386
0.0309427
0.0315052
0.0298262
0.0303831
0.0287208
0.0292721
0.0276261
0.0281721
0.0265432
0.027083
0.0254696
0.0260037
0.0249324
0.0233778
0.0233274
0.0233543
0.0234264
0.023403
0.0234741
0.0234509
0.023513
0.0234953
0.0235384
0.0235273
0.0235517
0.0235466
0.0235525
0.0235537
0.0235409
0.0235483
0.023517
0.0235305
0.0234812
0.0235006
0.0234319
0.0234584
0.023371
0.0234025
0.0233149
0.0233431
0.0232882
0.0248007
0.0237433
0.0242724
0.0258576
0.0253267
0.026924
0.0263889
0.0280021
0.0274618
0.0290905
0.0285451
0.0301892
0.0296386
0.0312983
0.0307425
0.0324181
0.0318569
0.0335486
0.032982
0.0346902
0.034118
0.0358434
0.0352654
0.0370085
0.0364244
0.0381861
0.0375957
0.039377
0.0387799
0.0405818
0.0399776
0.0418014
0.0411897
0.0430368
0.0424171
0.044289
0.0436607
0.0455593
0.0449219
0.0468489
0.0462017
0.0481593
0.0475015
0.0494918
0.0488227
0.050848
0.0501669
0.0522296
0.0515356
0.0536384
0.0529306
0.0550762
0.0543536
0.0565447
0.0558065
0.0580457
0.0572911
0.0595803
0.0588087
0.0611492
0.0603605
0.0627518
0.0619464
0.0643874
0.0635656
0.066054
0.0652171
0.0677463
0.0668974
0.0694554
0.0685996
0.0711634
0.0703114
0.0728591
0.072014
0.0745387
0.0737072
0.0775189
0.076085
0.0753228
0.0723772
0.072622
0.0698852
0.0698208
0.023316
0.0232051
0.0735718
0.071049
0.0709397
0.0721826
0.0720357
0.073097
0.0741095
0.075058
0.0759242
0.0772501
0.0759265
0.076707
0.0782249
0.0786219
0.078796
0.0787373
0.0784622
0.0780095
0.0773986
0.0766575
0.0758047
0.0780571
0.0786769
0.0791366
0.0794185
0.0794904
0.0793374
0.0789503
0.0746479
0.0768294
0.075286
0.0698753
0.0742993
0.0751006
0.0726277
0.0734641
0.0709064
0.0717791
0.0691558
0.0700271
0.0674473
0.0682995
0.0657615
0.0666007
0.0641033
0.0649293
0.062472
0.0632839
0.0608728
0.0616682
0.0593071
0.0600859
0.0577741
0.0585366
0.0562728
0.0570195
0.0548021
0.0555337
0.0533605
0.0540778
0.0519467
0.0526502
0.0505594
0.0512498
0.0491971
0.0498753
0.0478583
0.0485249
0.0465414
0.0471973
0.045245
0.0458908
0.0439676
0.044604
0.0427081
0.0433357
0.0414654
0.0420848
0.0402384
0.04085
0.0390262
0.0396305
0.037828
0.0384254
0.0366431
0.037234
0.0354707
0.0360554
0.0343104
0.0348891
0.0331617
0.0337346
0.0320242
0.0325916
0.0308978
0.0314597
0.0297822
0.0303387
0.0286774
0.0292285
0.0275831
0.0281289
0.0264995
0.02704
0.0254261
0.0259603
0.0243622
0.0248948
0.023284
0.0238264
0.0227985
0.0227402
0.0227695
0.022854
0.0228267
0.0229076
0.0228791
0.0229597
0.0229354
0.0229982
0.0229806
0.0230241
0.0230126
0.0230377
0.0230325
0.0230389
0.0230399
0.0230277
0.0230349
0.023004
0.0230174
0.0229683
0.0229876
0.0229201
0.0229458
0.0228578
0.022891
0.0227932
0.0228234
0.0227316
0.022762
0.0226731
0.022701
0.0236976
0.0226386
0.0231684
0.02475
0.0242248
0.0258047
0.0252759
0.0268709
0.0263365
0.0279479
0.0274082
0.029035
0.0284902
0.030132
0.0295823
0.0312391
0.0306843
0.0323564
0.0317965
0.0334841
0.032919
0.0346224
0.0340519
0.0357716
0.0351956
0.0369322
0.0363505
0.0381048
0.037517
0.0392898
0.0386957
0.040488
0.0398872
0.0417001
0.0410923
0.042927
0.0423117
0.0441696
0.0435463
0.045429
0.0447972
0.0467062
0.0460653
0.0480025
0.0473519
0.0493191
0.0486582
0.0506572
0.0499854
0.0520182
0.0513348
0.0534034
0.0527077
0.054814
0.0541055
0.0562513
0.0555293
0.0577162
0.0569803
0.0592091
0.0584592
0.0607296
0.059966
0.0622763
0.0614999
0.0638467
0.0630588
0.0654368
0.0646397
0.0670399
0.0662372
0.0686464
0.0678437
0.0702361
0.0694451
0.0717846
0.0710169
0.0732706
0.0725402
0.0739737
0.0736738
0.0739201
0.0783599
0.0711104
0.0710458
0.0748865
0.072313
0.0722029
0.0232503
0.0227206
0.0221432
0.0221058
0.0734869
0.0733343
0.0744264
0.0754638
0.0764287
0.0773008
0.0775039
0.0759813
0.0765378
0.0775027
0.0758817
0.0782426
0.0791038
0.079654
0.0799336
0.0799468
0.0797408
0.079339
0.0787625
0.0780307
0.0771776
0.0794774
0.0800725
0.0804904
0.0807024
0.0806868
0.0804251
0.0799055
0.0711025
0.0746344
0.0753187
0.0731886
0.0739084
0.0716486
0.072442
0.070063
0.0708583
0.068452
0.0692596
0.0668415
0.0676464
0.0652341
0.0660367
0.063641
0.0644353
0.0620675
0.0628515
0.0605178
0.0612895
0.0589944
0.0597528
0.0574978
0.0582428
0.0560281
0.0567596
0.0545848
0.0553032
0.0531672
0.0538729
0.0517743
0.0524677
0.0504052
0.0510868
0.0490587
0.0497292
0.0477336
0.0483936
0.0464286
0.0470787
0.0451426
0.0457833
0.0438743
0.0445063
0.0426228
0.0432465
0.0413869
0.042003
0.0401659
0.0407747
0.038959
0.0395608
0.0377652
0.0383605
0.0365841
0.0371732
0.035415
0.0359981
0.0342574
0.0348348
0.0331109
0.0336828
0.0319752
0.0325418
0.0308502
0.0314114
0.0297356
0.0302916
0.0286313
0.0291822
0.0275374
0.0280831
0.0264535
0.0269942
0.0253814
0.0259155
0.0243179
0.0248477
0.0237861
0.022271
0.0222036
0.022239
0.0223334
0.0223035
0.0223952
0.0223643
0.0224476
0.0224233
0.0224863
0.0224685
0.0225128
0.0225011
0.0225269
0.0225214
0.0225284
0.0225292
0.0225175
0.0225245
0.0224941
0.0225074
0.0224585
0.0224778
0.0224106
0.0224361
0.0223492
0.022382
0.0222762
0.0223129
0.0222087
0.022245
0.0221763
0.0236465
0.0225966
0.0231229
0.024694
0.0241685
0.0257494
0.0252205
0.0268152
0.0262811
0.0278912
0.027352
0.0289769
0.0284328
0.0300723
0.0295234
0.0311773
0.0306236
0.0322921
0.0317335
0.0334168
0.0328533
0.0345517
0.033983
0.0356969
0.035123
0.036853
0.0362736
0.0380202
0.0374352
0.0391993
0.0386083
0.0403906
0.0397934
0.041595
0.0409912
0.0428131
0.0422023
0.0440458
0.0434277
0.045294
0.044668
0.0465585
0.0459242
0.0478404
0.0471973
0.0491407
0.0484882
0.0504603
0.049798
0.0518002
0.0511277
0.0531613
0.0524781
0.0545444
0.0538501
0.0559501
0.0552445
0.0573786
0.0566616
0.0588296
0.0581014
0.0603018