/*--------------------------------*- C++ -*----------------------------------*\
  =========                 |
  \\      /  F ield         | OpenFOAM: The Open Source CFD Toolbox
   \\    /   O peration     | Website:  https://openfoam.org
    \\  /    A nd           | Version:  10
     \\/     M anipulation  |
\*---------------------------------------------------------------------------*/
FoamFile
{
    format      ascii;
    class       surfaceScalarField;
    location    "16.5";
    object      phi;
}
// * * * * * * * * * * * * * * * * * * * * * * * * * * * * * * * * * * * * * //

dimensions      [0 3 -1 0 0 0 0];

internalField   nonuniform List<scalar> 
51391
(
-0.0356293
0.0124833
-0.011076
0.034222
0.0151478
-0.0168285
-0.0339486
0.023803
-0.0155539
0.00689859
0.0359034
0.000382978
0.0370935
0.00445925
-0.00926475
-0.032288
0.0327167
0.00018768
0.00418913
-0.0579323
0.0373347
0.044062
-0.0234644
0.00844944
-0.0515102
-0.0148715
0.0599458
-0.000249061
-0.0512473
0.0269528
0.0396347
-0.00664173
0.0229085
-0.0284115
0.0631258
-0.0576228
0.058114
0.0207093
-0.0559148
0.0738089
-0.0564194
-0.045801
-0.00359103
-0.00338101
0.00128543
0.0056866
-0.00236799
-0.00417623
0.0029532
0.0552439
0.0408161
-0.0508933
-0.0451666
0.0800316
0.0223526
-0.0471404
0.102326
-0.0609619
-0.0586938
0.0173297
0.040117
0.0711496
-0.00894065
0.0357353
-0.00588411
-0.0363914
0.00654027
0.00518948
0.0261864
0.00435933
0.0122546
-0.0380225
0.0257679
0.024861
0.0123726
-0.024979
-0.00370517
-0.0427885
-0.000189654
0.0466833
-0.0459362
0.0513838
-0.00915273
0.00586624
-0.00718835
-0.0446141
0.00620502
-0.0431273
-0.0440249
0.0106972
0.0363842
-0.0030565
2.4722e-05
-0.0442392
0.0261208
0.0312597
0.0203671
0.0255602
-0.0198065
0.00109756
-0.00239028
0.00129272
0.00195287
-0.000855305
-0.00194647
-0.00312117
0.00267736
-0.0351246
0.0442666
0.0173597
-0.0265017
-0.0623703
0.0342822
0.0458917
-0.0178036
-0.0623739
0.0141076
-0.014104
0.048165
0.000993582
-0.0461693
-0.00298933
0.0331753
-0.00884508
0.0238348
0.0237947
0.0512798
0.0158827
-0.0909571
0.0208224
-0.0549197
0.057892
0.0612007
0.0201682
-0.0605465
-0.0374573
0.00342619
0.00621275
0.0278184
-0.0377989
0.00104671
-0.000705137
-1.41809e-05
-0.0370977
-0.00068709
0.0638528
0.0241913
-0.0333107
-0.0547335
0.0156105
0.0683452
-0.0201028
0.00357039
-0.00718203
0.00698772
-0.00337608
-0.0280093
0.0108074
0.0207723
0.0247026
-0.0279607
-0.0247512
0.0133941
-0.0452225
-0.0514644
0.0832928
-0.0155133
0.0849148
-0.0560073
-0.0485282
0.0317281
0.0168001
-0.0314173
-0.0171109
0.029067
-0.0184655
0.00311035
-0.0137119
0.00441518
0.000588007
0.0240638
0.000309434
-0.0226098
0.00383486
-0.0662253
-0.0184442
0.0302305
0.0544389
-0.0168297
-0.0483023
-0.00109326
0.0218834
-0.00159737
-0.0371157
0.0280014
-0.0245622
-0.0520458
0.0287305
-0.0256707
0.048986
0.0201003
-0.0419156
-0.0167998
0.00837786
-0.0169291
0.0253511
-0.0315027
-0.00755305
0.022256
-0.0324546
-0.00484841
0.00580023
0.00558369
-0.00198056
-0.00360313
0.00286757
0.00271612
-0.000199458
0.00215233
-0.00942648
-0.0143829
0.0124591
0.0113503
-0.0054564
-0.00397008
0.0191362
0.016748
-0.00621947
-0.0296647
0.0218231
0.0239997
-0.0266866
0.0465643
0.00499212
-0.0297333
-0.0471276
0.0468076
-0.005179
0.00549896
0.00518293
0.0385656
-0.00643507
-0.00463123
0.00294876
0.0303243
0.00590274
-0.0391758
0.029187
-0.037362
0.0111238
0.0154057
0.0441056
0.0359288
-0.0361845
0.0013024
0.0240688
0.0152862
-0.00944992
0.0140359
-0.00823901
0.00365306
0.0196645
-0.0280024
-0.00111206
0.0222012
0.0114992
0.00892883
0.0261241
-0.000258565
-0.0347944
0.0146964
0.026121
-0.0318886
0.0259101
0.0149104
0.00198608
-0.00395623
0.0396004
-0.0376303
0.0421907
0.000997692
-0.0412024
0.013494
-0.0152718
-0.00136236
0.00314017
-0.00737417
0.0154174
0.00545082
0.00603067
-0.00753167
-0.0137708
-0.00990758
0.0319353
0.00923201
0.0344618
-0.00798522
-0.00214172
-0.0277614
0.0289748
0.000928349
0.0382402
-0.00928861
-0.0310933
0.0386249
0.00407454
0.0662416
-0.0201684
-0.044394
-0.00167919
0.0144299
0.0616115
-0.00979976
0.0626832
0.0137429
-0.0619962
0.0187914
0.00876712
-0.00426996
0.0352041
0.00344406
-0.0343782
0.0268445
0.00128115
-0.0323956
0.0414027
-0.0101548
0.00286886
0.0427923
-0.0125572
-0.033104
0.00214735
0.0397462
-0.0390247
-0.0517268
-0.0544576
0.037526
-0.0477353
-0.0415175
-0.0624006
0.0132923
-0.0132657
-0.012091
-0.0636859
0.0133763
0.00293149
0.0392961
-0.00556445
-0.0366631
0.0389767
-0.0339595
-0.00208571
0.0129298
-0.0443301
0.036964
-0.0055637
-0.0254598
0.000215464
0.0381741
0.041093
0.0075162
-0.00923836
-0.0393708
0.00826207
-0.00799734
0.0408282
0.0222364
0.056903
-0.0210254
0.029879
-0.0525193
-0.0464611
0.0691014
0.0431177
-0.0718868
0.0586482
0.0196784
-0.0171869
0.0406262
0.0590527
0.0115593
-0.0594935
-0.0111186
0.00679844
0.0665568
-0.0143025
0.0983389
0.00346636
0.015936
-0.117741
-0.0140155
0.0574346
-0.00720169
0.0204794
-0.0206519
0.0326568
-0.00995775
-0.0299007
-0.0120578
0.00716072
-0.00910261
0.0139997
0.00492991
-0.0101156
-0.00687207
0.0107634
-0.0115909
0.00575745
0.000249719
0.0176744
-0.00715316
-0.00925494
-0.0339878
0.00762467
0.0356181
-0.0275167
0.0429441
-0.0246823
0.00536837
0.00244652
-0.0353316
0.00497764
-0.0335971
-0.0300256
0.0298775
-0.0409513
0.033571
0.0307165
-0.00210603
-0.0230271
0.00147991
0.0236532
-0.00189324
-0.0244568
-0.00321065
0.0295607
-0.0191473
-0.0144072
0.0316613
-0.0348963
-0.00870786
-0.0322301
-0.00775972
0.00509355
-0.0315446
-0.00302715
0.00234163
-0.0310921
-0.00104014
0.000587588
-0.0308242
0.000990757
-0.00125861
-0.030498
0.00329937
-0.00362561
-0.0303703
0.00575082
-0.00587849
-0.0303279
0.00792501
-0.00796744
-0.0306192
0.0101983
-0.00990696
-0.0309844
0.0118011
-0.0114359
-0.0317347
0.0134662
-0.0127159
-0.0324647
0.0142385
-0.0135086
-0.0335025
0.0151797
-0.0141419
-0.0343608
0.015308
-0.0144497
-0.0353927
0.0158886
-0.0148567
-0.0361225
0.0159012
-0.0151714
-0.036968
0.016617
-0.0157715
-0.0374912
0.0168613
-0.0163381
-0.0381711
0.0178571
-0.0171772
-0.0385487
0.0182709
-0.0178933
-0.0391291
0.019398
-0.0188175
-0.039391
0.0198139
-0.0195521
-0.0398634
0.0209515
-0.0204791
-0.0399707
0.0212847
-0.0211773
-0.0402751
0.0223448
-0.0220405
-0.0401571
0.0224829
-0.0226009
-0.0402043
0.0232969
-0.0232497
-0.0397515
0.0230577
-0.0235104
-0.0393974
0.0233583
-0.0237124
-0.0383357
0.022234
-0.0232956
-0.0385489
0.0214008
-0.0211876
-0.0358208
0.0194727
-0.0222008
-0.03499
-0.0187873
0.0179565
-0.0334744
-0.0185666
0.017051
0.0172817
-0.021547
-0.0292091
-0.035452
0.0380821
-0.0214175
-0.0379852
-0.0160334
-0.030864
0.032457
0.0154581
0.0311267
-0.0344938
-0.0110401
0.00871258
0.0341441
-0.0117299
0.00687413
0.0334998
-0.0272396
0.0136573
-0.0335091
0.0351327
0.0178491
0.0169044
-0.0358291
0.0368744
0.0211887
0.0207043
-0.037153
0.0379921
0.0222186
0.0230797
-0.0379236
0.0384377
0.0219687
0.0233654
-0.0380994
0.0383575
0.0210265
0.0226831
-0.0378313
0.0378955
0.0197497
0.0214778
-0.0372419
0.0371439
0.0183688
0.0200516
-0.0363576
0.0360534
0.0171655
0.0186434
-0.0350571
0.0345104
0.0164479
0.0176132
-0.0333326
0.0326967
0.015944
0.0170664
-0.0316021
0.0311752
0.0146654
0.0162743
-0.0304838
0.0304487
0.0118361
0.0141577
-0.0302784
0.0305908
0.00761263
0.0103686
-0.0308637
0.0314046
0.00275851
0.00547793
-0.0320092
0.0325592
-0.00159012
0.0003861
-0.0340269
0.0335792
-0.00731208
-0.00449483
-0.00962244
0.0315596
-0.0313645
0.00214648
-0.0339907
0.00205828
0.0287218
0.00266246
0.0311858
-0.0304083
-0.00203617
0.000408954
0.0304071
-0.0307371
-0.00554852
-0.00362678
0.0304101
-0.031325
-0.00899207
-0.00829444
0.0313267
-0.0327473
-0.0112952
-0.0114342
0.0330029
-0.0346875
-0.0124573
-0.013253
0.0349654
-0.0366304
-0.0131917
-0.0141718
0.0367165
-0.0382494
-0.0142385
-0.0150854
0.0381071
-0.0395722
-0.0157122
-0.0164804
0.0392653
-0.0407252
-0.0173576
-0.0182001
0.0402728
-0.0417162
-0.0190357
-0.0200045
0.0410842
-0.0424559
-0.0206687
-0.0218094
0.0415823
-0.0427872
-0.0220448
-0.0234745
0.0415429
-0.0423922
-0.0228631
-0.0247547
0.0404613
-0.0390166
-0.0226323
-0.0252266
-0.0231352
0.00586351
0.0305713
-0.0108995
0.0104185
0.0339808
-0.0119523
0.0351969
-0.0138264
0.00999217
-0.0234053
-0.0105091
-0.0248644
-0.0223734
0.0245216
0.00784398
0.00587538
-0.00687946
-0.0224013
-0.0207188
0.00422074
-0.0118974
-0.027378
0.00129021
-0.0379623
0.0385301
-0.0219852
-0.0359885
-0.0180072
0.0303137
-0.0318358
0.00358039
0.00421416
0.0303711
0.0293025
0.00522541
-0.00803218
0.00670026
0.0317031
0.0329577
-0.0267608
0.0287087
0.0135103
0.0114181
-0.0302238
0.0310152
0.0170577
0.0153892
-0.0316847
0.032259
0.0206144
0.0200349
-0.0332317
0.0336015
0.0218487
0.0221071
-0.0342737
0.0343707
0.0218716
0.0226932
-0.0347789
0.0346579
0.0211475
0.022275
-0.0348452
0.0345562
0.0200387
0.0212905
-0.0345567
0.0341052
0.0188202
0.0200511
-0.0338776
0.0331882
0.0178549
0.0188711
-0.0326691
0.0317455
0.0173715
0.0181324
-0.0310753
0.0301782
0.016841
0.0177366
-0.0297143
0.0292
0.0151797
0.0167383
-0.0292047
0.0292188
0.0118221
0.0141529
-0.0296727
0.0301268
0.00715859
0.00991467
-0.0308635
0.031608
0.002014
0.00474121
-0.032515
0.0334767
-0.00255186
-0.000520855
-0.0344727
0.0340857
-0.00692513
-0.00549078
-0.0339586
0.0338975
-0.010979
-0.00949535
-0.0344618
0.0352754
-0.012766
-0.0122942
0.0317183
-0.0310223
0.00145047
0.00254496
0.0302557
-0.0300345
-0.00225728
-0.000357723
0.0293474
-0.0288891
-0.00600682
-0.00431396
0.0292798
-0.0292101
-0.00906174
-0.00790375
0.0301517
-0.0304588
-0.0109881
-0.0104926
0.0317813
-0.0322389
-0.0119997
-0.0119305
0.0336244
-0.0339589
-0.0128571
-0.0127863
0.0351953
-0.0353113
-0.0141225
-0.0138491
0.0364195
-0.0363875
-0.0157442
-0.0153721
0.0374625
-0.03734
-0.0174801
-0.0171252
0.0384069
-0.0381892
-0.0192535
-0.0189375
0.039226
-0.0388828
-0.0210119
-0.0207726
0.0398391
-0.0393144
-0.0225695
-0.0225182
0.0401156
-0.0391792
-0.0237996
-0.0239535
0.0398185
-0.0389825
-0.0234683
-0.0245873
-0.0235876
-0.0114906
-0.0269373
0.0279189
0.0045474
0.0314553
-0.00777441
-0.0239694
-0.0140899
0.0125533
0.036812
0.0372215
-0.0363461
-0.0136414
0.0373631
-0.0142315
0.0015239
-0.00280494
-0.0211202
0.000709517
-0.0199044
-0.0312983
-0.0165875
0.011469
-0.0131674
-0.0295999
-0.0273997
-0.0114748
0.0104631
0.0349925
0.0362753
-0.00894005
0.00706217
0.0335809
0.0344807
-0.0211805
0.0227585
0.00626602
0.0199458
-0.0186139
-0.000622405
0.00298599
-0.0246363
0.0258226
0.0123239
0.00954031
-0.0264465
0.0267782
0.0167259
0.0147654
-0.0277556
0.0286073
0.0197627
0.0190575
-0.0293791
0.0300144
0.0212134
0.0213352
-0.0305538
0.0309631
0.0214623
0.0221538
-0.0312754
0.0314763
0.0209466
0.0219627
-0.0315881
0.0316043
0.0200224
0.0211788
-0.0315193
0.0313175
0.019022
0.0201362
-0.0309639
0.0304722
0.0183466
0.0192247
-0.0298352
0.0291548
0.018052
0.0187693
-0.0284824
0.0279583
0.0173651
0.018409
-0.0276346
0.0275733
0.015241
0.017062
-0.0277797
0.0282132
0.0113886
0.0139465
-0.0288643
0.0296481
0.00637478
0.00926354
-0.0305768
0.0315533
0.00103757
0.00381248
-0.0326081
0.0339567
-0.00390042
-0.00157572
-0.0347093
0.0356866
-0.00790248
-0.00624335
-0.0358355
0.0360187
-0.0111622
-0.00964424
-0.0126216
0.0300726
-0.0302562
0.00376398
-0.0310921
0.00488551
0.030754
0.00420594
0.0302187
-0.0295263
0.000758095
0.0025075
0.0288471
-0.028311
-0.00279332
-0.00103698
0.0279519
-0.027824
-0.0061347
-0.00467307
0.0279402
-0.0283045
-0.00869745
-0.00778756
0.0289027
-0.0296596
-0.0102312
-0.00989451
0.0305263
-0.0313873
-0.0111387
-0.0110638
0.0322052
-0.0329162
-0.0121462
-0.0119684
0.033536
-0.0340742
-0.0135843
-0.0132292
0.0345661
-0.0350337
-0.0152766
-0.0148803
0.0354866
-0.0359313
-0.0170353
-0.0166723
0.0363588
-0.0367741
-0.0188382
-0.0185101
0.0371601
-0.0375235
-0.0206485
-0.0203865
0.0378344
-0.0380988
-0.0223051
-0.0222072
0.0383321
-0.0386648
-0.0234669
-0.0237202
0.0387923
-0.0386875
-0.0235731
-0.0244598
0.0384985
-0.0377827
-0.022701
-0.0237766
0.0346894
-0.0340182
-0.0172587
-0.0211005
-0.00341853
0.00196973
-0.0184556
-0.0176688
-0.00436362
0.00612048
0.032397
-0.00913865
-0.0255731
-0.0136272
0.0129108
0.0375284
-0.0145382
0.0382741
-0.00378722
-0.0229871
0.00128043
-0.0204309
-0.0323564
-0.0148293
-0.00956626
0.00936859
-0.0294022
0.0308026
-0.0307809
0.00486377
-0.00714659
0.00652169
-0.0178307
-0.00786001
-0.0169554
0.00525801
0.0316164
0.0300241
0.0060365
-0.0110781
-0.0308445
-0.0271698
-0.012421
0.0108953
0.0365181
0.0367652
-0.00979442
0.00886404
0.0345113
0.0355817
-0.00722513
0.00665992
0.0321816
0.0340359
-0.0181106
0.018879
-0.00139078
0.0169859
-0.0168426
-0.00800332
-0.00548836
-0.0198575
0.0212736
0.00484994
0.00200745
-0.0224878
0.0238291
0.0109827
0.00832612
-0.0246162
0.025642
0.0157002
0.0139783
-0.0266546
0.02756
0.0188573
0.0180448
-0.0283968
0.0291014
0.0205089
0.0204984
-0.0297141
0.0301959
0.0209805
0.0215411
-0.0305814
0.0308515
0.0206765
0.0215771
-0.0310263
0.0310898
0.0199589
0.021004
-0.0310302
0.0308313
0.019221
0.0201958
-0.0304669
0.0299744
0.0188391
0.019589
-0.0293717
0.0287792
0.0186445
0.0193721
-0.0282574
0.0279262
0.0176963
0.0189307
-0.0278228
0.0279728
0.0150911
0.0171653
-0.0283732
0.0289671
0.0107948
0.013546
-0.0297548
0.0306494
0.00548014
0.00847581
-0.0316725
0.0327277
-1.76426e-05
0.00278939
-0.0338405
0.0349115
-0.00497143
-0.00268853
-0.0359704
0.0369283
-0.00886038
-0.00730221
-0.0378517
0.0385267
-0.0118372
-0.0105676
-0.0385311
0.0384615
-0.0135719
-0.012626
-0.0383277
0.0388851
-0.0150956
-0.0140977
0.030703
-0.0301495
0.00321056
0.00412804
0.0293938
-0.0287246
8.88257e-05
0.00175181
0.0281527
-0.0277583
-0.00318771
-0.00160888
0.0275536
-0.0275836
-0.00610462
-0.00487781
0.0278659
-0.0283683
-0.00819504
-0.00750535
0.0290786
-0.0298817
-0.00942812
-0.00918414
0.0307467
-0.031546
-0.0103394
-0.0101988
0.0322844
-0.0329032
-0.0115274
-0.01123
0.0334594
-0.0339474
-0.0130963
-0.0126731
0.0344269
-0.0348846
-0.014819
-0.0144007
0.035356
-0.0358117
-0.0165797
-0.0162008
0.0362796
-0.0367277
-0.01839
-0.0180422
0.0371817
-0.037606
-0.0202242
-0.0199325
0.0380177
-0.0383758
-0.021947
-0.0217956
0.0386854
-0.038905
-0.0232473
-0.0234106
0.0390222
-0.0389987
-0.0235966
-0.0243426
0.038813
-0.0391586
-0.0223554
-0.0239624
0.0386201
-0.0368706
-0.0190082
-0.0216391
0.0346107
-0.0328491
-0.0128397
-0.0170892
-0.0108378
0.0103206
-0.0164381
-0.0159885
-0.0116919
-0.00657918
0.00577114
-0.0300364
-0.0316693
-0.007759
-0.00455368
-0.0248067
0.00515491
-0.028786
0.00490034
0.0317837
0.000554629
-0.0222613
-0.014593
0.0142596
0.0392185
0.0396614
-0.0403609
-0.0143961
0.0394692
-0.0144008
0.00570927
-0.0196185
0.00999284
-0.017503
-0.00281568
0.00201552
-0.0292363
-0.0139213
0.0144152
-0.016932
-0.0138967
-0.0160131
-0.00400916
-0.0304758
-0.0265685
-0.0138653
0.0134949
0.0378988
0.0386684
-0.012307
0.01175
0.0370751
0.0379531
-0.0110904
0.0094822
0.0361196
0.0362413
-0.00938824
0.00753796
0.0340319
0.0341299
-0.0165795
0.0173711
-0.00879489
0.0158234
-0.0166095
-0.0131107
-0.012448
-0.0176617
0.0186131
-0.00234223
-0.00577898
-0.0197752
0.0205313
0.00409383
0.000845425
-0.0215309
0.0225652
0.00994838
0.00732646
-0.0236515
0.0246863
0.0146654
0.0128919
-0.0257196
0.02666
0.017917
0.0170115
-0.0275453
0.0283048
0.0197495
0.019613
-0.0289787
0.0295223
0.020437
0.0208672
-0.0299716
0.0302995
0.0203486
0.0211278
-0.0305232
0.0306167
0.0198653
0.0207803
-0.0305673
0.0303646
0.0194237
0.0202452
-0.0300003
0.0295351
0.0193043
0.0199533
-0.0290102
0.0285499
0.0191048
0.0198969
-0.0282164
0.028098
0.0178148
0.0192642
-0.0282212
0.0285777
0.0147345
0.0170421
-0.0291677
0.0299197
0.0100427
0.0129561
-0.0308455
0.0318509
0.00447469
0.00755002
-0.0329639
0.0340782
-0.0011319
0.0016764
-0.0352261
0.0363011
-0.00604647
-0.00383642
-0.0373389
0.0382503
-0.00977172
-0.00834002
-0.0390285
0.0396631
-0.0124718
-0.0113459
-0.0402111
0.0398295
-0.0131902
-0.013174
-0.0146291
0.0311279
-0.0306772
0.00441306
-0.0320121
0.00587027
0.0310422
0.00515228
0.0305012
-0.0297117
0.00242106
0.00395205
0.02903
-0.0284721
-0.000469086
0.00107011
0.0280444
-0.0278137
-0.00341835
-0.00203661
0.0277981
-0.028017
-0.00588564
-0.0048935
0.028478
-0.0291168
-0.00755619
-0.00704442
0.0299111
-0.0307332
-0.00860598
-0.00838988
0.0315609
-0.0322896
-0.00961066
-0.0093711
0.0329467
-0.0335005
-0.0109736
-0.010573
0.0340157
-0.0344894
-0.0126225
-0.0121579
0.0349738
-0.0354482
-0.0143446
-0.0139164
0.0359458
-0.0364355
-0.01609
-0.0157032
0.0369484
-0.037452
-0.0178864
-0.0175292
0.0379762
-0.0384828
-0.0197176
-0.0194084
0.0389955
-0.0394682
-0.0214743
-0.0212829
0.0399124
-0.0402762
-0.0228834
-0.0229663
0.0405545
-0.0407004
-0.0234507
-0.0240643
0.0406947
-0.0405201
-0.0225299
-0.0239681
0.0401383
-0.0395531
-0.0195933
-0.0220209
0.0387574
-0.037041
-0.0145561
-0.0178849
0.0338783
-0.0315828
-0.00630464
-0.0109217
-0.0160247
0.0169601
-0.0169485
-0.0172752
-0.015359
-0.001144
5.94827e-05
-0.0293913
-0.0300876
-0.00263927
0.00681243
0.0325092
-0.000391267
-0.0238608
0.000816014
-0.0275865
-0.0146149
0.0142132
0.0396203
-0.0152142
0.0400684
0.0044191
-0.0209711
-0.00213023
-0.0270466
0.00949794
-0.0191236
0.0141215
-0.0172092
0.0167712
-0.0167432
0.0315352
-0.0307851
0.00512021
0.00280907
-0.0059285
-0.0262719
-0.0180686
0.0185288
-0.0174087
-0.0166141
-0.0187297
0.000810277
-0.0280888
0.0058469
0.0320077
0.0304781
0.00690399
-0.0261438
-0.0136488
0.0129429
0.0386047
0.0392328
-0.0129407
0.012581
0.0374348
0.0379553
-0.0109176
0.0109388
0.0360984
0.0379046
-0.00932624
0.00890086
0.0344573
0.0357425
-0.00709141
0.00630743
0.0327917
0.0343187
-0.0176086
0.0179961
-0.0134982
0.018379
-0.01996
-0.0150331
-0.0145886
-0.0168258
0.0172219
-0.00919098
-0.0112777
-0.0176368
0.0184016
-0.00310701
-0.00619394
-0.0190506
0.019923
0.00322138
0.000196441
-0.0208479
0.021829
0.00896728
0.00640156
-0.022886
0.0239153
0.0136361
0.011835
-0.0249555
0.0259152
0.0169573
0.0159713
-0.0268325
0.0276322
0.0189498
0.0186957
-0.0283546
0.0289486
0.019843
0.0201448
-0.0294492
0.0298198
0.019978
0.0206272
-0.0300737
0.0301794
0.0197596
0.0205264
-0.0301289
0.029926
0.0196266
0.0202957
-0.0295844
0.0291841
0.0197045
0.0202949
-0.0287833
0.0284962
0.0193919
0.0202977
-0.0283807
0.028489
0.0177065
0.0193797
-0.0288413
0.029401
0.0141749
0.0166898
-0.0301752
0.0310795
0.00913836
0.012182
-0.032136
0.0332408
0.00336983
0.00649357
-0.0344266
0.0355809
-0.00228611
0.000490582
-0.0367387
0.0377934
-0.0071012
-0.00499425
-0.038783
0.0396261
-0.0106148
-0.00932962
-0.0405029
0.0407521
-0.012721
-0.0122227
-0.0411377
0.0420114
-0.0140639
-0.0135596
-0.0412729
0.0410995
-0.0142226
-0.0138906
-0.0412038
0.0400708
-0.0140811
-0.0145052
0.0307778
-0.0306809
0.00431613
0.00514498
0.0299625
-0.0293784
0.00183696
0.00323367
0.0288086
-0.0283895
-0.000888159
0.000500235
0.0281317
-0.028085
-0.00346511
-0.00229436
0.0282659
-0.0286625
-0.00548902
-0.00471259
0.0292708
-0.0299979
-0.0068291
-0.00643615
0.0308172
-0.0316046
-0.00781854
-0.00757058
0.032355
-0.0329947
-0.00897089
-0.00862075
0.03357
-0.0340689
-0.0104747
-0.00999767
0.0345548
-0.035021
-0.0121562
-0.011672
0.0355113
-0.0359997
-0.0138561
-0.0134261
0.0365189
-0.0370371
-0.0155718
-0.0151841
0.0375888
-0.0381401
-0.0173351
-0.0169775
0.0387255
-0.0393051
-0.019138
-0.0188229
0.0399091
-0.0404879
-0.0208955
-0.020679
0.0410606
-0.0415666
-0.0223774
-0.0223936
0.0420066
-0.0423186
-0.0231387
-0.0236243
0.0424884
-0.042476
-0.0225424
-0.0237983
0.0422577
-0.0418392
-0.0200118
-0.0222392
0.0411901
-0.0403535
-0.0153927
-0.018534
0.0384704
-0.0357014
-0.00907364
-0.0128048
0.0326593
-0.0314649
-0.000384149
-0.00568131
0.00559777
-0.00995465
-0.0237319
0.00266976
-0.0285369
-0.0166878
0.01817
-0.0202119
-0.0215419
-0.0151059
0.00335843
-0.0228001
-0.00244919
-0.0272675
0.00547475
0.0313108
0.00874263
-0.0202158
-0.00547068
-0.0275044
-0.0144814
0.0141397
0.0404125
0.0414788
-0.041525
-0.0140349
0.0405655
-0.0135681
0.0133513
-0.0183534
-0.00887121
-0.0273553
0.0170063
-0.0174443
-0.0140757
-0.034004
0.0243478
0.0193171
-0.0175314
0.0197259
-0.0189646
-0.0168696
0.0181134
-0.0214556
-0.0149539
-0.0234576
-0.0252346
-0.014241
0.0137118
0.0401496
0.0399671
-0.0139498
0.0134685
0.039086
0.0389948
-0.0119452
0.0120916
0.0372884
0.0394785
-0.0116845
0.0111235
0.0366593
0.0383118
-0.0107513
0.00953335
0.0356752
0.0361147
-0.00893824
0.00779711
0.0339328
0.0349138
-0.021606
0.0202241
-0.0136512
0.0226233
-0.0248377
-0.0127395
-0.0140887
-0.0188877
0.0183183
-0.0129289
-0.0132522
-0.0180876
0.0177176
-0.00882097
-0.0110469
-0.017949
0.0182203
-0.00337828
-0.00642538
-0.0188401
0.0195324
0.00252914
-0.000423401
-0.020384
0.0213064
0.00804491
0.00554991
-0.0223215
0.0233285
0.0126291
0.0108199
-0.0243604
0.0253246
0.0159931
0.0149394
-0.0262586
0.0270846
0.0181238
0.0177617
-0.0278416
0.028472
0.0192126
0.0193878
-0.0290071
0.0294017
0.0195833
0.0200922
-0.0296662
0.029771
0.0196549
0.0202619
-0.0297193
0.0295338
0.0198121
0.0203474
-0.02925
0.0289586
0.019996
0.0205787
-0.0287268
0.028647
0.0194718
0.0205294
-0.0287701
0.0291121
0.0173644
0.0192566
-0.0296915
0.0304481
0.0134182
0.0161105
-0.0313982
0.032445
0.00809157
0.0112319
-0.0336182
0.0348059
0.00218212
0.00532037
-0.0360433
0.0372141
-0.00345701
-0.000746779
-0.0383556
0.0393641
-0.00810967
-0.00613571
-0.0402791
0.041028
-0.0113637
-0.0102447
-0.0416513
0.0421164
-0.0131861
-0.012846
-0.0426332
0.042402
-0.0138327
-0.0140764
-0.0427876
0.0422385
-0.0136735
-0.0142763
-0.0137917
0.0310859
-0.0312966
0.00533095
-0.0322383
0.00616467
0.0315484
0.00575157
0.0310141
-0.0303536
0.00365555
0.0048625
0.029718
-0.0291883
0.00130727
0.0025981
0.0287654
-0.0285131
-0.00114042
7.73036e-05
0.028447
-0.028592
-0.00332007
-0.0023605
0.0289587
-0.029501
-0.00494671
-0.00434586
0.0302045
-0.0309592
-0.00607432
-0.00573273
0.0317438
-0.0324532
-0.00710919
-0.00678599
0.0331031
-0.0336516
-0.00842243
-0.00797082
0.0341556
-0.0346127
-0.0100175
-0.00949365
0.0350789
-0.0355411
-0.0116941
-0.0112058
0.036036
-0.036535
-0.0133572
-0.0129312
0.0370711
-0.0376126
-0.0150304
-0.0146479
0.0381962
-0.0387871
-0.0167442
-0.0163939
0.0394237
-0.0400645
-0.0184971
-0.0181863
0.0407462
-0.0414174
-0.0202244
-0.0199972
0.0421058
-0.042746
-0.0217373
-0.0217052
0.0433476
-0.0438349
-0.0226514
-0.0230226
0.044196
-0.0443665
-0.0223718
-0.0234372
0.044326
-0.0440611
-0.0202768
-0.0222797
0.0435534
-0.042839
-0.0161071
-0.0190417
0.0418783
-0.0407589
-0.0101931
-0.0137655
0.0394484
-0.0366001
-0.00323251
-0.00699171
-0.00121362
-0.014486
0.0163254
-0.025297
-0.0261227
-0.013201
0.00632372
0.0327842
0.00799837
-0.0220558
-0.00678253
-0.0259557
-0.0137626
0.0136267
0.0405484
-0.0141073
0.0409102
0.0128549
-0.0197195
-0.00975027
-0.0266253
0.0170339
-0.0183811
-0.0128531
-0.0285779
0.0199276
-0.0180548
-0.0144338
-0.0288349
0.0211374
-0.0189429
0.0202554
-0.0211066
0.0185148
-0.023645
-0.0145356
-0.027041
0.031238
-0.0316461
0.00657283
-0.0151059
0.0161268
-0.0263179
-0.0136985
-0.0275301
0.00606591
0.0318062
0.0314833
0.00582053
-0.0240187
-0.013134
0.0130584
0.0402252
0.0404598
-0.0120329
0.0125479
0.0385711
0.0400202
-0.0123195
0.0120415
0.0375665
0.0397069
-0.0117035
0.0112642
0.0370986
0.0386498
-0.0109257
0.0103324
0.0362685
0.0364532
-0.00966535
0.00834267
0.0352555
0.0355808
-0.00766685
0.00635594
0.0331171
0.03346
-0.0263457
0.0257753
-0.0121691
0.0276652
-0.0285581
-0.0128056
-0.0118815
-0.0235638
0.021969
-0.0120563
-0.0118772
-0.0209279
0.0192483
-0.0112492
-0.0122111
-0.0186228
0.0181644
-0.00836255
-0.0104214
-0.0180788
0.0182844
-0.00358384
-0.00633987
-0.0187374
0.0193483
0.0019182
-0.000876397
-0.0201243
0.0209833
0.00718583
0.00477398
-0.0219465
0.0229178
0.0116578
0.00985676
-0.0239271
0.0248819
0.0150382
0.0139301
-0.0258181
0.0266556
0.0172862
0.0168255
-0.0274307
0.0280796
0.0185637
0.0186127
-0.0286286
0.0290279
0.019184
0.0195432
-0.0292889
0.029391
0.0195528
0.0200009
-0.0293534
0.0292166
0.0199489
0.0203851
-0.0290348
0.0288971
0.0201336
0.0207605
-0.0288734
0.0290258
0.0193194
0.0205532
-0.0293991
0.0299755
0.0167881
0.0188833
-0.030776
0.0317207
0.0124736
0.0153099
-0.0328344
0.0340093
0.00691663
0.0101182
-0.0352814
0.0365295
0.00093396
0.00404835
-0.0377936
0.0389545
-0.0046179
-0.00201088
-0.0400508
0.0409857
-0.00904449
-0.00723203
-0.0417993
0.0424322
-0.0119966
-0.0110583
-0.042926
0.0432595
-0.0135196
-0.0133398
-0.0434683
0.0435607
-0.0139251
-0.0142851
-0.0433862
0.0437527
-0.01404
-0.0141019
-0.043389
0.0427194
-0.0133654
-0.0134279
-0.0425795
0.041322
-0.0128498
-0.0134282
0.031627
-0.0312997
0.00500365
0.00573247
0.0306591
-0.0300882
0.00308467
0.00422192
0.0295768
-0.0291928
0.000923275
0.00208663
0.0289455
-0.0288808
-0.00120513
-0.000169951
0.0290134
-0.0293379
-0.00299557
-0.00222788
0.0298547
-0.0304891
-0.00431234
-0.00382908
0.0312213
-0.0319415
-0.00535407
-0.00500053
0.0326419
-0.0332471
-0.00650403
-0.00608559
0.0337919
-0.0342591
-0.00795527
-0.00742599
0.0347072
-0.0351346
-0.00959017
-0.0090455
0.0355872
-0.0360457
-0.0112356
-0.0107533
0.0365427
-0.0370484
-0.0128515
-0.0124342
0.037597
-0.0381563
-0.014471
-0.0140994
0.0387651
-0.0393875
-0.0161218
-0.0157851
0.0400651
-0.0407554
-0.0178068
-0.0175088
0.0415004
-0.0422471
-0.0194777
-0.0192522
0.0430318
-0.0437864
-0.0209827
-0.0209205
0.0445318
-0.0451845
-0.0219987
-0.0222773
0.0457407
-0.0461161
-0.0219964
-0.0228809
0.0462883
-0.0462122
-0.0203529
-0.0221075
0.0458679
-0.0452808
-0.0166942
-0.019386
0.0444343
-0.0434077
-0.0112197
-0.014612
0.0421578
-0.0396247
-0.00576556
-0.00824167
0.038658
0.000154541
-0.00218029
-0.0147328
0.0156088
-0.0284062
-0.0295978
-0.0136931
0.0166959
-0.0200277
-0.0277615
-0.0315674
0.0205019
0.0121958
-0.0213967
-0.0110568
-0.0246492
0.00582047
0.0320188
0.0169959
-0.0196814
-0.0139191
-0.0255593
-0.0127723
0.0130615
0.0410328
0.041831
-0.042267
-0.0124138
0.0413416
-0.0122829
0.0206808
-0.0191342
-0.0164194
-0.0265923
0.0227162
-0.0196337
-0.0176283
-0.0257422
0.0224372
-0.0211247
-0.0202095
-0.0268593
0.0206349
-0.0232267
0.018335
-0.0258532
0.0172153
-0.0279244
0.0161882
-0.0155275
-0.0302586
0.0171045
-0.0293226
0.0202231
-0.0214036
-0.026581
-0.0284391
0.0170948
-0.0228797
-0.0130535
0.0126507
0.0409511
0.0409182
-0.0130238
0.0131473
0.0401017
0.0400867
-0.0123866
0.0122781
0.0386795
0.0407809
-0.012109
0.0118933
0.0377822
0.039876
-0.0116203
0.0118519
0.0368671
0.0389227
-0.0103442
0.0106938
0.035919
0.0379608
-0.00995265
0.00967873
0.0355294
0.036322
-0.00827178
0.00772412
0.0336648
0.034867
-0.0295488
0.0290498
-0.0123066
0.0301739
-0.0310984
-0.014603
-0.0130679
-0.0281556
0.027348
-0.0113614
-0.0109873
-0.0259493
0.0241079
-0.0102149
-0.0104785
-0.0222541
0.02069
-0.00968511
-0.0103573
-0.0194864
0.0187613
-0.00763748
-0.00921781
-0.0184435
0.018484
-0.00362441
-0.00602201
-0.0188096
0.0193305
0.00139728
-0.00120197
-0.0200305
0.0208262
0.00639017
0.004074
-0.0217334
0.0226613
0.0107299
0.00894949
-0.0236371
0.0245701
0.0141052
0.0129543
-0.0254935
0.0263259
0.0164539
0.0159021
-0.0270995
0.0277463
0.0179168
0.0178392
-0.0282894
0.0286798
0.0187935
0.0190002
-0.0289353
0.0290486
0.0194395
0.0197453
-0.0290563
0.0290107
0.0199945
0.0203773
-0.0289788
0.0290362
0.0200763
0.0207924
-0.0292512
0.0296515
0.0189191
0.0203381
-0.0302788
0.0310847
0.0159823
0.018256
-0.0320962
0.0332155
0.0113543
0.0142984
-0.0344765
0.03576
0.00563306
0.00885714
-0.037107
0.0383906
-0.000349649
0.00270137
-0.0396516
0.0407726
-0.00573885
-0.0032719
-0.0417927
0.0426255
-0.00987723
-0.00825218
-0.0433118
0.043808
-0.0124929
-0.0117446
-0.0441548
0.0443469
-0.0137118
-0.0136865
-0.0444176
0.0443858
-0.0138933
-0.0143557
-0.0444493
0.0438425
-0.0134332
-0.0141653
-0.0439002
0.0431797
-0.0126448
-0.0134856
-0.0125156
0.0324777
-0.0318668
0.00596191
-0.032434
0.00645365
0.0318008
0.00586423
0.0315456
-0.0309905
0.00444851
0.00541131
0.0304561
-0.0300112
0.00263982
0.00368752
0.0296559
-0.0294455
0.000712891
0.0017313
0.0293927
-0.0295185
-0.00107931
-0.000222783
0.0298321
-0.0302968
-0.00253087
-0.00191425
0.0309035
-0.0315614
-0.00365445
-0.00322236
0.0322541
-0.0328884
-0.00471979
-0.00430783
0.0334747
-0.0339695
-0.00600923
-0.00549929
0.0344196
-0.034822
-0.00755289
-0.0069759
0.0352293
-0.0356354
-0.0091841
-0.00863815
0.036077
-0.0365307
-0.0107819
-0.0103116
0.0370268
-0.0375356
-0.0123426
-0.011938
0.038092
-0.0386637
-0.0138993
-0.0135431
0.0392905
-0.0399362
-0.0154762
-0.0151582
0.0406447
-0.041373
-0.0170786
-0.0168003
0.0421672
-0.0429739
-0.018671
-0.018458
0.043836
-0.0446844
-0.0201343
-0.0200584
0.0455499
-0.0463454
-0.0212032
-0.0214118
0.0470791
-0.0476544
-0.0214211
-0.0221473
0.048054
-0.0482027
-0.0202042
-0.0217079
0.0480739
-0.0476618
-0.0171063
-0.0195148
0.0469525
-0.0460132
-0.012159
-0.0153213
0.0448036
-0.0434393
-0.00712985
-0.00945128
0.0420896
-0.0416975
-0.000237603
-0.00352999
0.0431163
-0.026197
0.0120554
0.00549342
0.0370436
-0.0306819
0.0141403
0.011775
0.020313
-0.022693
-0.026059
0.0301837
0.0186561
-0.0285268
0.0165965
0.00648017
0.0332627
-0.0165552
0.0173288
-0.0310321
-0.0315667
-0.0160869
0.0162028
-0.0206036
-0.0151725
-0.0233958
-0.0121668
0.0121331
0.0410664
-0.0121554
0.0413302
0.0204224
-0.0194231
-0.0178749
-0.0241038
0.0231692
-0.0195872
-0.0199888
-0.0242318
0.0239785
-0.021175
-0.0223462
-0.0236055
0.0229608
-0.0234505
-0.0241305
-0.0241324
0.0208015
-0.0256931
-0.0248828
-0.0243912
0.0188558
-0.0274938
0.0182028
-0.0290227
0.0186382
-0.030632
-0.0309259
0.0324557
0.0171263
-0.0175591
0.01832
-0.0317931
0.0321159
-0.0319423
0.00628
0.00583223
0.0324487
0.0322157
0.00573246
-0.0156121
-0.0335136
-0.0204656
-0.0286003
0.01814
-0.0225082
-0.0264842
-0.0244039
-0.0241634
-0.0218495
-0.0119707
0.0128106
0.0401113
0.0410807
-0.0113902
0.0120223
0.0394697
0.041507
-0.0120117
0.0119489
0.0387423
0.0407915
-0.0118311
0.0116688
0.0379444
0.0399939
-0.0114535
0.0112074
0.0371132
0.039138
-0.0109105
0.0105864
0.036243
0.0382578
-0.0102002
0.00967388
0.0360558
0.0367082
-0.00912503
0.00775739
0.0350324
0.0354158
-0.00736311
0.00670548
0.0331064
0.033657
-0.0322007
0.0313074
-0.0137097
0.0332171
-0.034275
-0.0145542
-0.0150705