/*--------------------------------*- C++ -*----------------------------------*\
  =========                 |
  \\      /  F ield         | OpenFOAM: The Open Source CFD Toolbox
   \\    /   O peration     | Website:  https://openfoam.org
    \\  /    A nd           | Version:  10
     \\/     M anipulation  |
\*---------------------------------------------------------------------------*/
FoamFile
{
    format      ascii;
    class       surfaceScalarField;
    location    "11";
    object      phi;
}
// * * * * * * * * * * * * * * * * * * * * * * * * * * * * * * * * * * * * * //

dimensions      [0 3 -1 0 0 0 0];

internalField   nonuniform List<scalar> 
57492
(
0.000335365
-1.34586e-05
-6.30428e-05
-0.000258863
-0.000277665
0.000394307
0.000218723
-2.96827e-05
8.38871e-05
0.000334179
-0.000388384
0.00316133
0.0033857
-0.000272764
-0.00627426
-0.00862837
0.00404448
0.00774521
0.00144325
-0.00135678
-0.000709208
0.000622738
-0.00262004
0.00055223
-0.000238875
0.00230669
0.000510067
-0.00168686
0.00126597
-0.00454107
0.00433312
-0.00105803
0.00109719
0.00417374
-0.00400495
-0.00112714
-0.000344025
0.00114561
0.000325563
-0.000116512
-0.00123749
0.000226858
0.000459373
-0.000552936
-2.29495e-05
-9.28545e-05
0.000208203
0.00302968
-0.00286437
-0.00108322
0.000917912
0.000379122
0.00243165
0.000218912
-0.000327022
0.00079046
0.00334414
-0.00380758
-0.000664935
0.00326964
-0.00293173
0.000135553
-0.000289965
0.000154411
-0.00167633
0.00122759
0.00058429
-0.00468365
0.000201929
0.00335749
0.00112424
0.00122147
-0.0047513
-0.00115383
-0.000126775
-0.000349286
-0.000845428
0.00132149
-0.000366635
0.000265082
-2.52222e-05
-0.00292758
0.00240934
0.000899299
-0.000381062
-0.0033028
0.000808978
-0.000433758
-0.00112001
0.000590329
0.000455444
7.42378e-05
-0.000774689
-0.000358883
1.35603e-05
-0.000372057
-0.00115111
0.00131716
0.000206004
-0.000422443
0.00011881
-6.84231e-05
0.0015171
-0.00101705
-0.000947027
0.000446973
-0.00131101
0.000987414
0.0018407
-0.00173882
-0.00335949
0.00302195
0.00207636
-0.00372959
-0.000947411
0.00293817
-0.000715742
-0.00015534
0.000871082
-0.00027481
-0.000440932
-0.00138856
0.00191242
-0.000798661
0.000205318
-0.000775776
-0.000818106
-0.00120959
0.00176182
-0.000235614
-0.0019024
0.00115121
0.000751196
-0.00432354
0.00242114
0.00455257
-0.000573038
0.000142512
-0.00412205
0.00335174
-0.000277788
0.00147862
-0.000482906
0.00444216
-0.00453229
0.00275924
0.000544601
-0.00279378
0.00273938
-0.000219013
0.00320408
-0.00119297
-0.00236227
0.000351156
0.00359692
0.00015176
0.00180459
-0.00108063
0.00201542
0.00155565
0.00255562
-0.00443976
-0.000664569
0.000626379
0.00447795
-0.00458263
-0.000359445
0.000502316
0.00093906
0.00443235
-0.00436707
-0.00100433
0.000619338
-0.00422135
-0.00372811
0.00276318
0.00313435
-0.00216942
-0.000978979
0.00349174
-0.00624087
-7.45291e-06
-0.000204495
5.10555e-06
0.000206843
-0.000483047
-7.7342e-05
0.000125521
-0.000187151
-0.000421416
-9.58221e-05
1.68475e-05
3.79606e-05
-3.2855e-05
1.55403e-05
2.24203e-05
0.00762294
0.00370803
-0.00606304
-0.00526793
0.00217846
-0.00060514
0.00604962
-0.00807126
0.00286693
0.00738278
0.00211683
-0.00648005
0.00161284
-0.00287845
0.00214883
-0.000883222
0.00237549
-0.00292943
0.00216678
-4.39749e-05
3.46871e-05
-4.17082e-06
-9.96202e-05
-7.39751e-06
-0.000314376
-4.41078e-05
-0.00296607
0.00539656
0.00337715
-0.00580764
0.00435429
-0.00494486
0.00295605
0.00479883
-0.00235833
0.0106414
-0.00203003
-0.00142576
-0.00718564
0.00161405
0.00585416
0.00317322
0.00120206
-0.00549102
0.00590301
4.84621e-05
-7.81448e-05
0.000132349
0.000851871
0.00179301
-0.000639338
-0.00200554
0.00108135
0.000104701
-0.000123807
3.68784e-05
8.69285e-05
-0.000357911
0.000234104
-0.00675184
0.00335695
-0.00201431
0.0054092
-0.00581558
-0.00264465
0.00170839
-0.00265387
0.0021476
-0.00530931
0.00199446
-2.51814e-05
-0.000960998
-0.00100828
-0.000726236
0.00227317
0.000447528
-0.000853037
-8.67134e-05
0.000213515
-0.000787379
-9.08391e-05
-0.000275736
-0.00147264
-0.000703439
-0.00017195
5.97929e-05
0.000815597
-0.000478398
-0.00123192
0.00100688
0.000414977
6.39978e-05
-0.000957373
0.000263723
-2.06955e-05
0.000350815
-2.72992e-05
-0.000652623
0.000376887
8.35489e-05
-0.000736172
0.000187719
-0.00054563
0.004274
0.00333138
-0.000178664
0.00212817
-0.00648255
-1.15955e-05
0.00226561
-0.00179797
-0.000456049
0.000289182
0.00316649
-0.00346727
0.00306107
0.00210355
-0.000864214
-0.0043004
-0.000699281
0.000134924
0.00362542
0.00408732
-0.00268305
-0.001623
-0.00304037
0.00121211
0.00345126
-0.00121491
0.00351746
-0.00392555
0.000391295
-0.00464657
0.000199433
0.000114981
-8.40227e-06
0.00143128
-0.000788867
-0.000920083
0.000255563
-0.000698429
0.00187415
0.000642666
7.20348e-06
-0.000187012
0.000335966
6.87571e-05
-0.000217711
0.0010028
-0.00123252
4.27123e-05
-0.000362573
0.000840012
0.000525358
-0.000126981
0.000100374
-0.00631621
0.00353944
0.00613371
0.00774746
-0.00210956
-0.00828255
-0.00297758
0.00440884
-9.67057e-05
-0.000883866
-0.000170538
-0.000528744
9.59495e-06
4.53852e-05
-0.000132274
4.1577e-05
4.53114e-05
-0.000129257
0.000141011
3.36319e-05
-0.000293214
3.16834e-05
-0.000269444
-0.000316014
5.67146e-05
-0.000814926
-0.000338384
-0.00151016
-0.00163127
0.00188983
0.0012516
6.95578e-05
0.000770826
-0.00235055
-0.00214632
0.000584609
-0.00294994
0.00133192
-5.83159e-05
-0.00350992
0.000799225
-0.000239242
0.000871387
-0.00334855
0.00256777
-9.06139e-05
0.000674586
-0.0027345
0.0029313
0.00252602
-0.0101981
-0.0017901
0.00220276
0.00303345
-0.00349162
0.002087
-0.000329927
-6.25408e-05
0.000126539
-6.99708e-05
7.42995e-06
0.000287377
-4.14704e-05
0.00488788
-0.00298798
-0.00228955
0.000389655
0.00425856
0.000146405
0.00520706
-0.000597277
-0.00558876
0.000828658
0.00371709
0.000661308
0.000149014
-0.00349487
0.00417452
5.60458e-06
-7.55754e-05
0.000765793
-0.00215489
-0.00289635
0.00126865
0.00315212
0.00168733
-9.78208e-05
-0.00177289
0.000183377
0.000536262
-0.000159942
-0.00214388
0.000404547
0.00272675
0.000354013
-0.00196163
-0.00013491
6.70271e-05
-6.35436e-05
5.98256e-05
7.0662e-06
-3.34819e-06
2.74304e-05
1.21675e-06
-9.21908e-05
5.13406e-05
-0.000319258
0.000295347
-0.00206821
0.00311967
-0.000863741
0.00302047
-0.00420047
-0.000888209
-2.72653e-05
-0.00282991
0.00326173
-0.00420105
0.000293111
-0.00285802
-0.00196738
0.000624355
0.00272413
0.00291527
-0.00543747
0.00259851
0.00434016
-0.00421454
0.00224589
-0.00309616
0.00161441
-0.000764135
0.00245936
-0.00303586
0.00282238
0.00440627
0.00186648
0.00474068
-0.000277695
-0.00473516
0.000272171
0.00521604
-0.000680744
0.000205384
0.00544645
-0.000733671
-8.46501e-05
-0.00462813
0.00391439
-0.00118676
0.00271882
0.00431273
-0.00135454
0.00109039
-0.00404858
0.00120505
0.00439483
-0.00128715
-0.00388732
-0.00162139
0.00415417
0.0010258
-0.00370101
-0.00180337
0.00363324
-0.0023221
-0.00326395
0.00208948
0.00349658
-0.00235015
-0.00329608
0.00332414
0.00219798
0.00308157
-0.00144337
-0.00383618
0.00305661
-0.00320878
-0.00254343
0.00255271
0.00304732
-0.0020113
0.00254944
-0.00409776
0.00364501
-0.000990621
-0.00511004
0.0010201
0.00542008
-0.00133014
0.00189474
-0.00088495
0.0018429
-0.0019189
0.000960951
-0.000591716
0.00215514
-0.00244838
-6.64638e-05
0.000449434
0.000259695
-0.00209692
-0.00308282
0.00197215
-1.11142e-05
1.23309e-05
2.60768e-07
-1.1375e-05
-0.000221483
-0.00349742
0.00263828
-0.00299865
-0.00015935
0.00293651
0.00011951
-0.00314384
2.56858e-05
-0.000409939
0.00187986
0.000438327
-0.00190825
0.00201652
0.0004219
-0.00284836
0.00186655
0.00202983
-8.31305e-06
1.18723e-05
0.000111422
5.70502e-06
-1.40181e-05
1.75773e-05
-8.92279e-06
1.18005e-05
-9.86998e-05
4.20703e-06
-1.31298e-05
1.60076e-05
-5.66349e-05
2.81314e-05
-0.000338131
3.09899e-05
-8.76248e-05
5.91213e-05
5.38656e-05
-5.45625e-06
-0.000175391
-1.71393e-05
7.10049e-05
-2.25956e-05
0.00107444
0.00311703
-0.00405655
0.00157312
-0.00441678
0.0039181
0.004332
0.000358148
-0.00118729
-0.00244655
0.00116302
0.00247082
-0.000707638
0.00272204
-0.0032017
0.000162108
-0.0033163
0.00399139
-0.0040297
-1.25644e-05
5.087e-05
0.00398912
3.61325e-05
-3.38613e-05
-2.49435e-05
-0.00402426
1.9504e-05
0.00401845
-1.19461e-06
-2.81306e-05
0.00408935
5.84468e-05
-0.000129351
2.87249e-05
0.00419067
-0.000130045
0.00414029
-0.00411633
4.76369e-06
-0.000194856
0.00438583
-2.98359e-07
0.00402459
-7.91561e-05
-0.00399082
-6.70676e-05
-0.00397763
-1.43822e-05
-0.00397266
3.11607e-05
-0.00405849
7.32667e-05
-0.00399274
-9.06875e-05
-0.000188926
0.00457534
-5.88138e-07
0.0038361
-4.38865e-07
-1.99323e-05
-0.00399104
-1.32909e-05
-0.00402588
1.32054e-05
-2.83338e-05
-0.00422206
0.000259361
-3.6189e-08
0.00457559
-2.14941e-07
0.00383694
-8.71684e-07
-0.00417428
0.000120064
0.00457596
1.4202e-07
-5.1072e-07
2.87596e-08
0.00457607
-1.3409e-07
0.00383744
-3.59734e-07
0.00383828
-8.07002e-07
-2.39587e-05
-0.00419717
-9.36199e-07
-0.00419717
-1.06346e-06
2.62276e-07
0.00457624
-4.3666e-07
0.00383883
-2.94076e-07
-3.14275e-07
-0.00419614
-7.15906e-07
-0.00419592
-1.56991e-06
2.57804e-07
0.00457604
-5.70148e-08
0.00383985
-7.5542e-07
-1.9998e-07
-0.00419486
-1.07915e-06
-0.00419491
-1.21305e-06
7.33118e-07
0.00457567
-3.66373e-07
0.00384082
-2.3863e-07
-3.13392e-07
-0.00419368
-8.71193e-07
-0.00419351
-1.70591e-06
1.19443e-06
0.00457446
1.46787e-08
0.00384272
-7.11388e-07
-1.58393e-07
-0.00419227
-1.24264e-06
-0.00419232
-1.35614e-06
2.61592e-06
0.00457215
-3.02296e-07
0.00384553
-1.88523e-07
9.48048e-06
-0.00420069
-1.06336e-06
-0.00418099
-1.84659e-06
4.95388e-06
0.00456711
9.0672e-08
0.00385115
-6.68413e-07
2.71817e-05
-0.0040815
-0.000146378
-0.00410896
-4.48429e-05
1.01348e-05
0.00455721
-2.40703e-07
0.0038436
1.76861e-05
2.69789e-05
-0.00410051
-7.96679e-06
-0.00407782
-4.16157e-06
1.99085e-05
0.00453714
1.6432e-07
0.0038167
4.68089e-05
5.82254e-05
-0.00395578
-0.000202949
-0.00395985
-5.97491e-05
0.000194469
0.00434284
-1.72661e-07
0.00393286
7.83127e-05
6.7162e-05
-0.00393784
-8.51037e-05
-0.00391635
2.36656e-05
0.000171696
0.00402269
0.000148458
0.00399774
0.000106815
0.000107229
-0.000151233
-0.00389384
-0.00390088
9.1761e-05
1.19307e-05
3.88766e-05
0.00397188
0.00397176
3.79062e-05
-0.00395206
0.00401431
-0.00014735
-0.00397428
-0.00012901
0.000183261
-0.0001594
-0.0039177
9.25821e-05
-0.00381021
-0.00392854
0.0039631
-4.25293e-05
-0.00011718
-0.00381969
0.00382114
-2.5153e-06
-2.9635e-06
-0.00382251
0.00382382
-2.1818e-06
-2.61695e-06
-0.00382506
0.00382625
-1.90308e-06
-2.31969e-06
-0.00382739
0.00408844
-1.68665e-06
-2.07549e-06
-0.00407702
0.00402118
7.53408e-05
-1.87092e-06
-0.00415059
0.00411804
-1.31158e-06
-7.85363e-05
-0.00398618
0.00392791
-7.10832e-05
0.00010373
-0.00383461
0.00383532
-1.00887e-06
-3.67473e-05
-0.003836
0.00383664
-8.59798e-07
-1.26444e-06
-0.00383726
0.00383784
-7.17043e-07
-1.1251e-06
-0.0038384
0.00383892
-5.83369e-07
-9.94405e-07
-0.00383943
0.0038399
-4.5913e-07
-8.72876e-07
-0.00384036
0.0038408
-3.41683e-07
-7.60205e-07
-0.00384121
0.0038416
-2.30201e-07
-6.53902e-07
-0.00381924
0.00390919
5.85107e-05
2.21872e-05
0.00389946
4.86051e-05
-2.39109e-05
7.68897e-05
0.0039189
-3.31977e-06
0.00395117
0.00392425
-0.00385951
1.35639e-05
-0.00396249
0.00395407
4.63259e-05
6.85769e-05
0.00385903
-0.00384079
-5.57232e-07
4.63337e-05
0.00384035
-0.00383989
-6.49144e-07
-1.1026e-06
0.00383941
-0.00383891
-7.47139e-07
-1.19053e-06
0.00383837
-0.00383781
-8.56285e-07
-1.28597e-06
0.00383722
-0.0038366
-9.81611e-07
-1.39498e-06
0.00383595
-0.00383526
-1.12683e-06
-1.52202e-06
0.00391275
-0.00390669
-1.30267e-06
-1.66851e-06
0.0039719
-0.00392857
-5.77196e-05
-1.84849e-06
0.00390253
-0.00387661
4.73481e-05
5.12197e-06
0.00392479
-0.0039499
3.83108e-05
-4.2503e-05
0.00382734
-0.00382621
-2.19151e-06
-2.49913e-06
0.00382503
-0.00382379
-2.45869e-06
-2.74532e-06
0.00382248
-0.0038211
-2.73853e-06
-3.00921e-06
0.00381966
-0.00386146
-3.03713e-06
-3.28985e-06
0.00386203
-0.00391842
-3.35974e-06
-3.591e-06
0.00389083
-0.00383435
3.52789e-05
-3.92467e-06
-0.00379257
5.08005e-05
-0.00400492
-0.000128767
0.00391153
6.48236e-05
3.99637e-07
0.00395035
0.000145044
-0.000130604
-0.00382465
0.000115708
-0.00376323
0.000134079
-0.000125045
-0.00401395
-0.00391422
-0.00392906
0.00386554
-8.38283e-05
0.00397387
-0.00400721
-9.54315e-05
-8.42034e-05
-0.00381687
0.00381831
-4.39732e-05
-6.85069e-05
-0.00381985
0.0038213
-3.96838e-06
-4.4994e-06
-0.00382267
0.00382398
-3.49033e-06
-3.98925e-06
-0.00382522
0.0038264
-3.0847e-06
-3.55668e-06
-0.00382752
0.00382858
-2.74451e-06
-3.19324e-06
-0.00382959
0.00390739
-2.45385e-06
-2.88591e-06
-0.00383146
0.00383234
-2.18608e-06
-2.61275e-06
-0.00393845
0.0038693
-1.93723e-06
-2.38106e-06
-0.0038347
0.00383541
-1.71824e-06
-2.14172e-06
-0.00383608
0.00383672
-1.50234e-06
-1.93615e-06
-0.00383733
0.00383791
-1.29879e-06
-1.73308e-06
-0.00383846
0.00383899
-1.11e-06
-1.54468e-06
-0.00383949
0.00383996
-9.36084e-07
-1.37104e-06
-0.00384041
0.00384085
-7.75306e-07
-1.21156e-06
-0.00384126
0.00384165
-6.2401e-07
-1.06394e-06
-0.00384173
0.00387295
2.72877e-05
2.21092e-05
9.14305e-06
-1.73991e-05
0.00392716
2.15658e-06
0.00391851
-0.00386145
0.00389975
2.65223e-05
6.01058e-05
0.00390202
-0.00390289
4.71946e-05
0.00387067
3.1752e-05
-2.16833e-06
4.59967e-05
0.00390653
0.0039316
0.00390343
-0.00387482
-1.50447e-05
6.91227e-05
0.00384125
-0.00384083
-9.75134e-07
1.27557e-05
0.00384039
-0.00383993
-1.10842e-06
-1.53726e-06
0.00383946
-0.00383895
-1.25349e-06
-1.66801e-06
0.00383842
-0.00383786
-1.41601e-06
-1.81364e-06
0.00383728
-0.00383666
-1.60036e-06
-1.97872e-06
0.00383601
-0.00383533
-1.80993e-06
-2.16743e-06
0.00383462
-0.00383386
-2.05306e-06
-2.38434e-06
0.00383308
-0.00388848
-2.31981e-06
-2.63226e-06
0.00388045
-0.00383048
-2.62412e-06
-2.91066e-06
0.00386977
-0.0038285
-2.9548e-06
-3.2104e-06
0.00382745
-0.00382633
-3.31028e-06
-3.5512e-06
0.00382516
-0.00382393
-3.69542e-06
-3.91307e-06
0.00382263
-0.00382126
-4.11103e-06
-4.30375e-06
0.00381982
-0.0038183
-4.56411e-06
-4.72802e-06
0.00381669
-0.00381499
-5.06358e-06
-5.19297e-06
0.0038132
-0.0037723
-5.62577e-06
-5.7144e-06
0.00374922
-0.00369645
6.29418e-05
2.77241e-05
-0.00403534
-9.69155e-05
0.00010243
-0.000160688
-0.00370498
-0.00367203
7.80091e-05
-0.000217154
-0.00376818
2.53633e-05
0.00387655
0.00387655
4.01147e-05
-6.09951e-05
8.54672e-05
-0.00403842
-5.78587e-05
-0.00403847
7.72771e-05
-0.000159219
-0.00362303
5.26948e-05
-0.00364745
-0.00404591
0.0039097
-0.00389813
1.49519e-05
0.00386971
6.53585e-05
6.91717e-05
-2.97627e-05
0.00386712
4.52784e-05
0.00390044
-0.00399156
0.004035
-0.000101307
-0.000111761
9.22804e-05
-0.00401899
0.00407999
-8.54672e-05
0.000322479
-0.004317
-2.33269e-05
-0.00403039
0.00399871
-6.37525e-05
-9.22969e-05
-0.00394724
0.00388487
-2.1463e-05
-3.27349e-05
-0.00385642
0.00381859
-6.13651e-06
-4.00586e-05
-0.00382011
0.00382155
-5.41498e-06
-6.01721e-06
-0.00382292
0.00382422
-4.79076e-06
-5.35368e-06
-0.00382545
0.00382662
-4.2567e-06
-4.78495e-06
-0.00382772
0.00382878
-3.80079e-06
-4.3005e-06
-0.00382978
0.00383073
-3.40306e-06
-3.88464e-06
-0.00383163
0.00383249
-3.04709e-06
-3.5179e-06
-0.0038333
0.00383409
-2.72109e-06
-3.18894e-06
-0.00383483
0.00383553
-2.42091e-06
-2.88111e-06
-0.00383619
0.00383683
-2.13875e-06
-2.60061e-06
-0.00383743
0.00383801
-1.87495e-06
-2.33474e-06
-0.00383855
0.00383907
-1.63196e-06
-2.08932e-06
-0.00383957
0.00384004
-1.40946e-06
-1.8645e-06
-0.00384049
0.00384092
-1.20574e-06
-1.65939e-06
-0.00384133
0.00384172
-1.01712e-06
-1.47175e-06
-0.00385269
0.00385946
2.0518e-05
1.11405e-05
2.14327e-05
2.545e-05
-9.19726e-06
0.0039109
-4.1218e-05
1.14485e-05
0.00390632
0.00390275
0.00389264
0.00389115
-0.00388689
4.29391e-05
-0.00388566
0.00386458
6.11897e-05
3.72413e-05
0.00384206
-0.00385587
-1.23677e-06
2.42961e-05
0.0038413
-0.00384088
-1.39167e-06
-1.81582e-06
0.00384045
-0.00384
-1.5643e-06
-1.96791e-06
0.00383952
-0.00383902
-1.75612e-06
-2.14204e-06
0.0038385
-0.00383794
-1.97123e-06
-2.33711e-06
0.00383736
-0.00383675
-2.21378e-06
-2.55732e-06
0.00383611
-0.00383543
-2.48764e-06
-2.8068e-06
0.00383473
-0.00383398
-2.7986e-06
-3.08998e-06
0.0038332
-0.00383238
-3.14441e-06
-3.40967e-06
0.00383152
-0.00383062
-3.52921e-06
-3.76676e-06
0.00382967
-0.00382867
-3.95321e-06
-4.16e-06
0.00382763
-0.00382652
-4.41595e-06
-4.59557e-06
0.00382536
-0.00382414
-4.92009e-06
-5.06896e-06
0.00382286
-0.0038215
-5.4709e-06
-5.586e-06
0.00382007
-0.00381856
-6.07728e-06
-6.15371e-06
0.00381697
-0.00381528
-6.75152e-06
-6.78217e-06
0.00381351
-0.00381162
-7.51179e-06
-7.48714e-06
0.00377561
-0.00370429
-8.37577e-06
-8.286e-06
0.00366236
-0.00366877
5.91043e-05
3.6079e-05
6.77254e-05
-6.72194e-05
-0.00364796
-0.00365004
4.8995e-05
0.000119283
-0.00406542
-9.5829e-05
-0.00383157
3.82842e-05
0.00384287
0.00387793
3.19265e-05
0.000142311
-0.00424677
3.1729e-06
-0.00369343
0.000832123
-0.0034097
0.00444413
-6.39929e-05
4.08007e-05
-0.00362685
-9.97706e-05
-0.00361218
-0.00269327
0.00409833
0.000624774
-0.00210331
-0.000151637
-0.00402246
-0.00388499
0.0040482
0.00015927
0.000340466
-0.000127128
-0.00400854
0.00397173
-6.44973e-05
1.63296e-05
-0.00393882
0.00388494
-9.86872e-06
-5.93853e-05
-0.00386171
0.00384898
-8.73241e-06
-9.50903e-06
-0.00381737
0.00381896
-7.72711e-06
-8.44689e-06
-0.00382046
0.00382189
-6.84493e-06
-7.51743e-06
-0.00382324
0.00382452
-6.0775e-06
-6.70355e-06
-0.00382574
0.0038269
-5.41556e-06
-6.00001e-06
-0.00382799
0.00382904
-4.84432e-06
-5.39481e-06
-0.00383002
0.00383096
-4.34366e-06
-4.87019e-06
-0.00383185
0.0038327
-3.89622e-06
-4.40683e-06
-0.0038335
0.00383427
-3.48862e-06
-3.99042e-06
-0.003835
0.00383569
-3.11399e-06
-3.607e-06
-0.00383634
0.00383697
-2.76595e-06
-3.25547e-06
-0.00383756
0.00383813
-2.44338e-06
-2.92801e-06
-0.00383867
0.00383918
-2.14731e-06
-2.62689e-06
-0.00383967
0.00384014
-1.87728e-06
-2.35205e-06
-0.00384058
0.00384101
-1.63145e-06
-2.1023e-06
-0.00384141
0.0038418
-1.4074e-06
-1.8756e-06
-0.00385462
0.00387634
-1.21002e-06
-1.67326e-06
-0.00386722
0.00386509
1.70907e-05
3.05528e-05
-0.00388042
0.00387619
4.2513e-05
5.00229e-05
5.40524e-05
-3.01415e-05
0.00388241
-3.3409e-05
7.46266e-06
0.00390214
0.00386351
3.79117e-05
1.55218e-05
0.00385747
0.00391052
-2.64871e-05
1.81393e-05
0.00387546
0.00388168
-2.25649e-05
3.11331e-06
0.00389738
0.00389601
0.00390029
-0.00388644
4.73489e-05
-0.00396063
0.00385502
0.000108721
-2.84162e-05
0.00387669
-0.00386846
3.47013e-05
2.74913e-05
0.00384213
-0.00384176
-1.61191e-06
-2.03016e-06
0.00384137
-0.00384096
-1.80278e-06
-2.20128e-06
0.00384053
-0.00384008
-2.01545e-06
-2.39397e-06
0.00383961
-0.00383912
-2.25349e-06
-2.61114e-06
0.0038386
-0.00383805
-2.52018e-06
-2.85488e-06
0.00383748
-0.00383687
-2.81993e-06
-3.12922e-06
0.00383624
-0.00383557
-3.15674e-06
-3.43837e-06
0.00383487
-0.00383414
-3.53538e-06
-3.78671e-06
0.00383337
-0.00383256
-3.95679e-06
-4.1775e-06
0.00383171
-0.00383081
-4.42454e-06
-4.61293e-06
0.00382988
-0.00382889
-4.94068e-06
-5.09416e-06
0.00382786
-0.00382677
-5.50744e-06
-5.62639e-06
0.00382563
-0.00382442
-6.12931e-06
-6.21005e-06
0.00382315
-0.00382181
-6.81387e-06
-6.85215e-06
0.0038204
-0.00381891
-7.57216e-06
-7.56188e-06
0.00381734
-0.00381567
-8.41898e-06
-8.35197e-06
0.00381392
-0.00381206
-9.37339e-06
-9.23961e-06
0.0038101
-0.00380802
-1.04568e-05
-1.02441e-05
0.00376055
-0.00368976
-1.16882e-05
-1.13876e-05
0.00369165
-0.00367702
2.6178e-05
5.0883e-05
4.96041e-05
-4.73331e-05
-0.00362912
-0.00365095
2.35328e-05
0.000115452
-0.00403856
-2.9324e-05
-0.00379907
0.000297477
-0.00371212
3.3706e-06
-0.00379657
0.00387759
-0.0038832
4.81287e-05
0.00386412
2.09239e-05
4.82274e-05
-3.27709e-05
0.00388193
1.23282e-05
0.00389092
0.000286363
-0.00327416
6.43495e-06
-0.00366595
-0.00197085
-0.0020407
-0.00319414
0.00366999
0.000148924
7.87296e-05
-5.38014e-05
-0.00365405
5.29122e-05
-0.00362514
-0.00297228
-0.000373501
-0.00393633
-0.00382792
0.00387813
0.000109062
0.000182542
-0.00390872
0.00385747
-1.32534e-05
-1.42611e-05
-0.00381079
0.00381269
-1.1777e-05
-1.26981e-05
-0.0038145
0.00381623
-1.04584e-05
-1.13165e-05
-0.00381786
0.00381942
-9.2862e-06
-1.00831e-05
-0.0038209
0.0038223
-8.25146e-06
-8.99205e-06
-0.00382363
0.0038249
-7.34517e-06
-8.03268e-06
-0.0038261
0.00382724
-6.55716e-06
-7.19719e-06
-0.00382832
0.00382934
-5.87185e-06
-6.47247e-06
-0.00383031
0.00383124
-5.26905e-06
-5.84018e-06
-0.00383211
0.00383295
-4.73061e-06
-5.28067e-06
-0.00383374
0.00383449
-4.24201e-06
-4.77809e-06
-0.0038352
0.00383588
-3.79466e-06
-4.31913e-06
-0.00383653
0.00383714
-3.3822e-06
-3.89881e-06
-0.00383773
0.00383828
-3.00223e-06
-3.51106e-06
-0.00383881
0.00383932
-2.65466e-06
-3.15576e-06
-0.0038398
0.00384026
-2.33817e-06
-2.83219e-06
-0.0038407
0.00384112
-2.05119e-06
-2.53884e-06
-0.00384152
0.0038419
-1.79165e-06
-2.27366e-06
-0.00384226
0.00384261
-1.55892e-06
-2.03585e-06
-0.00387499
0.00386176
3.03174e-05
-1.82691e-06
2.85864e-05
4.14158e-05
-6.62004e-05
0.00390719
-1.71174e-05
2.95807e-05
0.00388968
0.00388781
-1.71222e-08
-2.54528e-07
0.00385774
0.0038443
-3.7143e-05
5.53288e-05
0.00385728
0.00384428
0.00391857
0.0039025
-0.00389084
3.56902e-05
-0.00385409
0.00389331
6.94998e-05
1.9994e-05
0.00387904
-0.00384256
-1.78426e-06
1.56987e-05
0.00384221
-0.00384184
-1.98195e-06
-2.37806e-06
0.00384146
-0.00384105
-2.20753e-06
-2.58342e-06
0.00384063
-0.00384019
-2.46059e-06
-2.81423e-06
0.00383973
-0.00383924
-2.74399e-06
-3.07396e-06
0.00383872
-0.00383818
-3.06143e-06
-3.36545e-06
0.00383762
-0.00383702
-3.41702e-06
-3.69278e-06
0.0038364
-0.00383574
-3.81539e-06
-4.06033e-06
0.00383506
-0.00383433
-4.26085e-06
-4.47257e-06
0.00383357
-0.00383278
-4.75626e-06
-4.93327e-06
0.00383194
-0.00383106
-5.30559e-06
-5.44576e-06
0.00383014
-0.00382917
-5.91258e-06
-6.01319e-06
0.00382816
-0.00382708
-6.58171e-06
-6.64093e-06
0.00382596
-0.00382477
-7.3196e-06
-7.33319e-06
0.00382352
-0.0038222
-8.13579e-06
-8.09847e-06
0.00382081
-0.00381934
-9.04366e-06
-8.9481e-06
0.0038178
-0.00381616
-1.00598e-05
-9.89696e-06
0.00381443
-0.0038126
-1.12045e-05
-1.09637e-05
0.00381068
-0.00380863
-1.24998e-05
-1.21694e-05
0.00380648
-0.0038042
-1.39691e-05
-1.35362e-05
0.00373823
-0.00369641
-1.5636e-05
-1.50928e-05
0.00365602
-0.00362584
2.27293e-05
-1.68563e-05
9.48075e-05
-5.96955e-05
-0.00366025
-0.00360341
7.23712e-05
8.5503e-05
-0.00382659
6.10914e-07
-0.00379631
4.724e-05
0.00384646
0.00387879
2.68474e-05
0.000169818
-0.00359558
-0.000482595
-0.00433662
-7.38919e-05
-0.00368287
3.56405e-06
-0.0037937
6.81753e-06
-0.00372657
-0.00427668
-0.000736299
0.000147033
-0.000442376
-0.00398134
-0.000315113
-0.00387447
-5.41742e-05
-0.00365957
5.58783e-05
-0.000114763
-0.00360136
9.6339e-05
-0.00364387
-0.00385022
-0.00348427
0.0036399
-6.70837e-06
0.00366353
-0.00403485
-0.000364975
-0.000194243
-0.00375236
0.00380546
5.59645e-05
7.00783e-05
-0.00380758
0.00380962
-1.52918e-05
-1.63802e-05
-0.00381156
0.00381341
-1.36302e-05
-1.46368e-05
-0.00381517
0.00381685
-1.21413e-05
-1.30761e-05
-0.00381845
0.00381997
-1.08108e-05
-1.16786e-05
-0.00382142
0.00382279
-9.62974e-06
-1.04354e-05
-0.0038241
0.00382534
-8.58902e-06
-9.33621e-06
-0.00382652
0.00382764
-7.67789e-06
-8.37232e-06
-0.0038287
0.0038297
-6.88022e-06
-7.53019e-06
-0.00383066
0.00383156
-6.17642e-06
-6.79163e-06
-0.00383242
0.00383324
-5.54794e-06
-6.13706e-06
-0.00383401
0.00383475
-4.97962e-06
-5.54967e-06
-0.00383544
0.00383611
-4.46125e-06
-5.01615e-06
-0.00383674
0.00383734
-3.98602e-06
-4.52903e-06
-0.00383791
0.00383846
-3.55022e-06
-4.08248e-06
-0.00383898
0.00383948
-3.15248e-06
-3.67454e-06
-0.00383995
0.0038404
-2.79101e-06
-3.30364e-06
-0.00384083
0.00384124
-2.46357e-06
-2.96775e-06
-0.00384164
0.00384201
-2.16804e-06
-2.66462e-06
-0.00384237
0.00384271
-1.9036e-06
-2.39269e-06
-0.00384304
0.00387502
-1.66728e-06
-2.1503e-06
-0.00387809
0.00388726
3.8962e-05
2.55143e-05
-0.00383546
0.00385197
3.07377e-05
7.27205e-05
6.49933e-05
-4.80082e-05
0.00387269
-1.41184e-05
-8.142e-06
0.00387423
0.00389734
4.8274e-05
2.63445e-07
0.00385865
0.00388808
-5.94244e-09
-2.57886e-07
0.00385801
0.00384456
5.17584e-07
-7.81468e-07
0.00385754
0.00384454
-2.78606e-05
2.21714e-05
0.00388762
0.00388993
-1.57068e-05
2.07252e-05
0.00387377
0.00389738
0.00390627
-0.00386209
2.53179e-05
-0.00388831
0.00386557
4.34614e-05
4.48089e-05
0.00386972
-0.00386119
2.71584e-05
2.7625e-05
0.00384298
-0.00384265
-2.11241e-06
-2.51138e-06
0.0038423
-0.00384194
-2.34446e-06
-2.72119e-06
0.00384157
-0.00384117
-2.6055e-06
-2.95923e-06
0.00384075
-0.00384032
-2.89845e-06
-3.22758e-06
0.00383986
-0.00383938
-3.22638e-06
-3.52918e-06
0.00383888
-0.00383835
-3.59329e-06
-3.86739e-06
0.00383779
-0.00383721
-4.00355e-06
-4.24646e-06
0.00383659
-0.00383595
-4.4618e-06
-4.67098e-06
0.00383528
-0.00383456
-4.97288e-06
-5.14566e-06
0.00383382
-0.00383304
-5.5407e-06
-5.67486e-06
0.00383222
-0.00383136
-6.16998e-06
-6.26295e-06
0.00383045
-0.0038295
-6.86616e-06
-6.91471e-06
0.0038285
-0.00382745
-7.63587e-06
-7.63648e-06
0.00382635
-0.00382518
-8.48746e-06
-8.43529e-06
0.00382396
-0.00382266
-9.43291e-06
-9.32139e-06
0.0038213
-0.00381986
-1.0487e-05
-1.03081e-05
0.00381834
-0.00381673
-1.16683e-05
-1.1412e-05
0.00381504
-0.00381325
-1.29981e-05
-1.26532e-05
0.00381137
-0.00380937
-1.44997e-05
-1.40541e-05
0.00380726
-0.00380503
-1.61984e-05
-1.56385e-05
0.00380269
-0.00380021
-1.81211e-05
-1.74334e-05
0.0037976
-0.00375456
-2.03054e-05
-1.947e-05
0.00371243
-0.0036431
2.70108e-05
3.02425e-05
4.27282e-05
-7.71686e-05
-0.00360943
-0.00364046
4.00872e-05
5.6279e-05
-0.00371305
-0.00409016
-0.000387072
2.10153e-05
-0.00369049
0.00390165
-0.00391123
4.03191e-05
0.00389831
-4.80615e-06
4.15036e-05
-3.54394e-05
0.0038677
5.1746e-05
0.00385533
6.53659e-07
-0.0037934
3.7757e-06
-0.00379066
-0.000112122
-0.00388586
7.21141e-06
-0.00378795
1.09858e-05
-0.00378532
1.51276e-05
-0.00369366
6.19973e-05
-2.89562e-05
-0.00364247
1.69631e-05
-0.00359543
-0.00379328
-0.00394564
0.00375852
-0.000177855
-0.00031842
0.000435355
-0.00420709
0.0041139
-0.00427978
-0.000152539
-0.000218816
-0.00362552
0.00368987
-7.10676e-05
-6.12352e-05
-0.00376402
0.00380643
1.35549e-05
-4.06897e-06
-0.00380851
0.0038105
-1.72809e-05
-1.84624e-05
-0.00381239
0.0038142
-1.54367e-05
-1.65251e-05
-0.00381591
0.00381755
-1.37813e-05
-1.47903e-05
-0.00381911
0.00382059
-1.22982e-05
-1.32342e-05
-0.003822
0.00382335
-1.09764e-05
-1.18446e-05
-0.00382462
0.00382584
-9.80559e-06
-1.06105e-05
-0.00382699
0.00382809
-8.77431e-06
-9.52193e-06
-0.00382912
0.00383011
-7.86655e-06
-8.565e-06
-0.00383104
0.00383193
-7.06349e-06
-7.72205e-06
-0.00383276
0.00383356
-6.34654e-06
-6.97394e-06
-0.00383431
0.00383504
-5.69992e-06
-6.30343e-06
-0.00383572
0.00383637
-5.11234e-06
-5.69675e-06
-0.00383698
0.00383757
-4.57603e-06
-5.14476e-06
-0.00383813
0.00383867
-4.08604e-06
-4.64101e-06
-0.00383917
0.00383966
-3.6397e-06
-4.18201e-06
-0.00384012
0.00384057
-3.23444e-06
-3.76518e-06
-0.00384099
0.00384139
-2.8676e-06
-3.38793e-06
-0.00384177
0.00384214
-2.53665e-06
-3.04761e-06
-0.00384249
0.00384283
-2.23977e-06
-2.7421e-06
-0.00384315
0.00384345
-1.97331e-06
-2.46926e-06
-0.00387119
0.00388527
2.48831e-05
-2.22727e-06
4.67638e-05
1.86732e-05
-4.27367e-05
0.00389675
-2.9621e-05
2.49e-06
0.00390136
0.00388639
-4.85704e-07
2.37727e-07
0.0038589
0.00384486
1.10468e-08
-2.63726e-07
0.00385826
0.00384481
5.15732e-07
-7.69291e-07
0.0038578
0.00384479
-4.43444e-05
3.28833e-05
0.00389908
0.00384482
0.00389483
0.00390065
-0.00390298
2.76418e-05
-0.0038923
0.00387539
6.03719e-05
5.31639e-05
0.00387275
-0.00384338
-2.20677e-06
-2.60694e-06
0.00384308
-0.00384275
-2.43707e-06
-2.81702e-06
0.00384242
-0.00384206
-2.69965e-06
-3.05667e-06
0.00384169
-0.0038413
-2.99577e-06
-3.32769e-06
0.0038409
-0.00384047
-3.32781e-06
-3.63291e-06
0.00384002
-0.00383955
-3.69924e-06
-3.9755e-06
0.00383906
-0.00383854
-4.11437e-06
-4.35928e-06
0.00383799
-0.00383742
-4.57778e-06
-4.78874e-06
0.00383682
-0.00383619
-5.09449e-06
-5.26872e-06
0.00383553
-0.00383483
-5.66949e-06
-5.80425e-06
0.00383411
-0.00383334
-6.30799e-06
-6.40035e-06
0.00383254
-0.0038317
-7.01552e-06
-7.06237e-06
0.00383081
-0.00382988
-7.79912e-06
-7.7965e-06
0.00382891
-0.00382788
-8.66703e-06
-8.61044e-06
0.0038268
-0.00382565
-9.62992e-06
-9.51342e-06
0.00382446
-0.00382319
-1.07014e-05
-1.05175e-05
0.00382186
-0.00382045
-1.18979e-05
-1.16378e-05
0.00381897
-0.0038174
-1.32393e-05
-1.28924e-05
0.00381575
-0.003814
-1.47484e-05
-1.43027e-05
0.00381216
-0.00381021
-1.64497e-05
-1.58924e-05
0.00380816
-0.00380599
-1.83705e-05
-1.76871e-05
0.00380371
-0.00380129
-2.0541e-05
-1.97159e-05
0.00379875
-0.00379605
-2.29986e-05
-2.20115e-05
0.0037412
-0.00368841
-2.5781e-05
-2.46108e-05
0.00366318
-0.00366592
1.97054e-05
1.48562e-05
-0.00021375
3.60168e-05
-0.00369674
-0.00375973
6.15559e-05
-2.89216e-05
-0.00362806
-0.0036044
3.95003e-08
2.37024e-06
-0.00369441
4.52917e-05
0.00385551
0.00390801
1.91227e-05
0.000107318
-0.00424567
-0.00014143
7.12922e-07
-0.00379034
0.000219916
-0.00431969
-3.40139e-05
-0.00376859
3.99745e-06
-0.00378744
-4.13597e-05
-0.00380848
7.62428e-06
-0.00378459
1.16281e-05
-0.00378182
1.60408e-05
-0.00373866
-1.9619e-05
-0.00365177
2.9359e-05
-3.18768e-05
-0.00362554
3.02701e-05
-0.00360531
-0.0037902
-0.00420673
0.00403612
1.80658e-05
-0.000240825
-0.00418353
0.000178686
0.00432627
-0.0042238
-0.000343291
-2.18886e-05
-0.00392237
0.0038362
-9.16788e-05
-0.000105069
-0.00380057
0.00375356
-2.40519e-05
-2.56102e-05
-0.00377239
0.00380745
-2.15096e-05
-2.29007e-05
-0.0038095
0.00381144
-1.92276e-05
-2.05052e-05
-0.00381329
0.00381505
-1.7198e-05
-1.83689e-05
-0.00381672
0.00381832
-1.53784e-05
-1.64603e-05
-0.00381983
0.00382128
-1.37469e-05
-1.47489e-05
-0.00382265
0.00382396
-1.22887e-05
-1.32175e-05
-0.00382521
0.00382639
-1.09918e-05
-1.18527e-05
-0.00382751
0.00382858
-9.84358e-06
-1.0643e-05
-0.00382959
0.00383055
-8.82846e-06
-9.5742e-06
-0.00383146
0.00383233
-7.92827e-06
-8.62926e-06
-0.00383314
0.00383392
-7.12471e-06
-7.7896e-06
-0.00383465
0.00383536
-6.40165e-06