/*--------------------------------*- C++ -*----------------------------------*\
  =========                 |
  \\      /  F ield         | OpenFOAM: The Open Source CFD Toolbox
   \\    /   O peration     | Website:  https://openfoam.org
    \\  /    A nd           | Version:  10
     \\/     M anipulation  |
\*---------------------------------------------------------------------------*/
FoamFile
{
    format      ascii;
    class       volVectorField;
    location    "11";
    object      U;
}
// * * * * * * * * * * * * * * * * * * * * * * * * * * * * * * * * * * * * * //

dimensions      [0 1 -1 0 0 0 0];

internalField   nonuniform List<vector> 
28942
(
(0.00634973 -0.00353969 -2.22945e-22)
(0.0084792 -0.00425956 -3.45e-23)
(0.0186109 -0.0128052 -1.16078e-21)
(0.103308 0.018213 -6.31295e-21)
(0.102349 0.0222565 2.05737e-21)
(0.0309123 0.00132568 0)
(0.0368486 0.00116301 2.84393e-23)
(0.0419316 0.00167711 -2.50752e-23)
(0.132372 -0.0110262 -4.34562e-22)
(0.13083 -0.00976227 1.22186e-21)
(0.0162511 0.0102984 -2.46421e-22)
(0.0237361 0.0125243 4.30365e-23)
(0.0115068 0.00728807 0)
(0.00861895 0.00584259 0)
(0.0813424 0.00235584 -3.50568e-23)
(0.0793382 0.00362654 -1.04227e-23)
(0.0895314 0.0159426 7.77268e-22)
(0.0872029 0.0139457 1.24554e-21)
(0.0122618 -0.0152018 3.69447e-21)
(0.0296004 -0.0306349 -9.75553e-22)
(0.098718 0.0371179 1.13504e-21)
(0.0978208 0.0342288 0)
(0.0231696 0.00767309 9.33794e-22)
(0.0101556 0.00378558 3.94534e-22)
(0.0429336 0.010292 7.09453e-22)
(0.063553 0.00562598 -6.46757e-22)
(0.00767628 -0.0183953 9.53383e-21)
(0.00671635 -0.0164629 -3.48824e-21)
(0.0362426 -0.0256616 8.02951e-22)
(0.0196643 -0.0138817 2.82833e-22)
(0.0316321 -0.00316872 0)
(0.039476 -0.00328027 -2.68742e-23)
(0.0484878 0.00690233 6.39153e-22)
(0.0655964 0.00201956 -1.24555e-22)
(0.0190903 0.018212 1.57778e-21)
(0.0159197 0.0193249 -1.66693e-21)
(0.0325615 0.0379859 -3.51023e-21)
(0.0188686 0.030857 -1.18432e-21)
(0.0177114 0.000599908 -2.26343e-23)
(0.00875023 0.0163727 -2.94946e-21)
(0.0306548 -0.0062004 0)
(0.0513539 -0.0109638 0)
(0.104799 -0.00625837 -6.08877e-23)
(0.104826 -0.00586617 1.78922e-22)
(0.105245 -0.00634928 1.56152e-22)
(0.0569082 0.00113945 2.69338e-23)
(0.0532893 9.39769e-06 -4.58553e-23)
(0.071675 -0.000149395 -1.79263e-22)
(0.0692606 -0.000179262 4.97684e-23)
(0.0584492 -0.00392632 -4.59341e-22)
(0.0458377 -0.00538431 2.89425e-22)
(0.120381 0.00401375 -7.23854e-22)
(0.12048 0.00354395 -6.52291e-22)
(0.132409 -0.0143851 -4.12765e-24)
(0.130677 -0.0130705 2.26009e-22)
(0.0946661 0.0162806 4.73231e-22)
(0.11344 0.00941691 8.4141e-23)
(0.0052858 0.00352124 -3.46414e-22)
(0.0132139 0.00736828 0)
(0.0116115 0.00594573 1.70767e-22)
(0.00469394 0.0029494 2.95746e-22)
(0.000996909 0.00073092 -2.4436e-22)
(0.000823884 0.000655586 -2.1468e-22)
(0.114332 -0.0413118 0)
(0.111196 -0.0232927 4.12458e-23)
(0.127206 -0.0290817 6.06652e-24)
(0.127278 -0.0407409 0)
(0.090443 -0.0325 -7.46401e-22)
(0.0939894 -0.0349042 -4.93989e-22)
(0.00284095 -0.00171205 7.23459e-22)
(0.00369239 -0.00284971 -2.36302e-22)
(0.00679642 -0.00452531 5.9587e-22)
(0.08538 -0.0453571 0)
(0.0916512 -0.0392281 2.55129e-21)
(0.0811457 -0.0526173 6.93855e-22)
(0.123045 0.00515158 2.5334e-23)
(0.122936 -0.00243169 -4.20961e-23)
(0.133018 0.000368473 1.1034e-22)
(0.00485178 -0.00296146 -7.39349e-23)
(0.00656796 -0.004577 7.12578e-22)
(0.0528776 -0.0317282 2.20192e-22)
(0.0345878 -0.0212036 -3.23046e-22)
(0.00269864 -0.00101279 2.86854e-21)
(0.0062465 -0.00276846 -1.12472e-21)
(0.104662 0.0477089 7.06925e-23)
(0.0997331 0.0550149 -1.00181e-21)
(0.0826934 0.0543197 9.33174e-22)
(0.0483439 0.0350279 -3.43855e-21)
(0.0456012 0.0321661 2.43804e-21)
(0.0302042 0.020992 -1.55312e-22)
(0.0334492 0.0236578 -7.96667e-22)
(0.0387713 0.0287934 1.08986e-21)
(0.0115386 0.0082425 1.68865e-23)
(0.0163783 0.0112931 8.66818e-25)
(0.00781715 0.00638309 -1.73699e-24)
(0.00606461 0.00537188 6.05143e-23)
(0.00558745 0.00494128 -1.05371e-22)
(0.016056 0.0117426 -4.08825e-21)
(0.017816 0.0138408 9.51625e-22)
(0.0102748 -0.00471255 0)
(0.101389 0.00515552 0)
(0.0984003 0.0156748 -4.582e-21)
(0.0604718 0.0104733 2.45874e-21)
(0.088724 0.0178683 0)
(0.128723 -0.0181383 0)
(0.127721 -0.0189083 0)
(0.12779 -0.0199062 -1.14375e-21)
(0.115165 0.0253795 -2.78318e-22)
(0.114336 0.0268849 2.71634e-21)
(0.113481 0.024469 1.45813e-21)
(0.00454236 0.0033683 5.8821e-22)
(0.00358305 0.00268925 -6.60211e-22)
(0.0248319 -0.00959358 -3.42936e-22)
(0.0277321 -0.0109633 2.42802e-22)
(0.0136436 -0.006441 4.09043e-22)
(0.00651487 0.0113251 1.63227e-21)
(0.0190678 0.018423 3.84407e-21)
(0.0135731 0.0230732 2.74965e-22)
(0.00495889 0.0144822 -9.56241e-21)
(0.120808 0.0459388 8.47562e-23)
(0.110115 0.057302 1.45234e-21)
(0.120931 0.0531488 -2.50895e-21)
(0.0397277 -0.0297151 9.15886e-22)
(0.0243806 -0.017472 -6.24412e-22)
(0.00532091 -0.000610461 -4.53824e-21)
(0.00453797 -0.00347199 0)
(0.0125179 -0.00148393 2.23959e-21)
(0.0222538 -0.0162972 9.4569e-22)
(0.0347057 -0.0280139 -2.43785e-21)
(0.0687011 0.000461544 1.35145e-22)
(0.0720623 0.00057921 -8.60621e-23)
(0.0652829 0.000681591 -4.10544e-24)
(0.0282986 -0.0420583 0)
(0.0298284 -0.0428309 0)
(0.0897017 -0.0186065 -5.91761e-22)
(0.0996749 -0.0220219 3.9515e-21)
(0.0870496 -0.0252697 0)
(0.0477296 -0.0403948 0)
(0.0588816 -0.0514451 -9.63353e-22)
(0.0418967 0.0397198 2.40502e-21)
(0.00139913 0.00154517 9.38399e-23)
(0.000943362 0.00126148 -1.47389e-23)
(0.0225607 -0.0193922 -9.69979e-22)
(0.105778 -0.00671592 9.11582e-22)
(0.105699 -0.00637995 -1.6848e-22)
(0.125348 0.00586358 1.00086e-23)
(0.119463 0.0145278 -1.33384e-23)
(0.126781 0.0140635 -2.4947e-22)
(0.0012119 0.00129953 6.23955e-23)
(0.0446206 0.0348571 3.88215e-21)
(0.0632377 0.0467555 -9.67294e-22)
(0.0610324 0.0399481 -4.16438e-24)
(0.047827 -0.0017742 1.05006e-23)
(0.0472692 -0.00204774 5.88218e-23)
(0.0508295 -0.00250103 3.74957e-24)
(0.056002 -0.00178643 -3.02092e-23)
(0.0462024 0.0384932 1.38364e-22)
(0.019268 0.0162632 0)
(0.00152378 -0.00127358 2.30066e-23)
(0.00209335 -0.00203383 -2.59291e-23)
(0.00573834 -0.00433973 -3.98114e-23)
(0.0419477 -0.0106362 -1.58771e-21)
(0.072231 -0.00543327 -6.048e-22)
(0.06325 -0.00157505 -1.16684e-24)
(0.0797635 -0.00618609 2.36052e-22)
(0.0749848 -0.0153397 -1.33108e-22)
(0.0949354 0.0397196 2.53815e-21)
(0.0921346 0.0452426 9.74785e-23)
(0.0891232 0.0291202 1.423e-21)
(0.0918817 0.0307955 -1.03123e-21)
(0.0993776 0.040731 0)
(0.120063 -0.00242266 2.48033e-22)
(0.120112 -0.00290858 4.84222e-22)
(0.1252 -0.00740574 -4.77396e-22)
(0.126199 -0.00659983 8.25751e-22)
(0.117048 0.0225981 3.51032e-22)
(0.119047 0.023112 -9.98862e-22)
(0.117189 0.0246053 0)
(0.115251 0.0236518 2.01201e-22)
(0.116873 0.026592 0)
(0.117742 0.0344017 -7.21754e-22)
(0.116388 0.0366173 -3.85858e-22)
(0.112167 0.0408154 -6.81874e-22)
(0.114495 0.038757 0)
(0.117378 0.0413818 2.31617e-21)
(0.114722 0.0435639 4.67132e-23)
(0.109226 0.0432088 -3.75146e-22)
(0.100636 0.0496968 -1.57593e-21)
(0.0992196 0.0450553 -2.76083e-22)
(0.0450429 -0.0230582 -2.04968e-22)
(0.0538943 -0.0258229 7.91588e-23)
(0.0106592 -0.00640422 -3.17444e-22)
(0.0625632 0.000455034 -9.43461e-23)
(0.0757877 2.04278e-05 0)
(0.000549692 -0.000512871 8.89856e-23)
(0.000519027 -0.00046023 3.49828e-23)
(0.0699831 -0.00236829 4.01785e-23)
(0.0791989 -0.00220749 1.33254e-23)
(0.0785592 -0.00125852 0)
(0.0681881 -0.000610948 1.67618e-23)
(0.106429 0.000366247 -1.95573e-22)
(0.106416 0.00031956 9.38724e-22)
(0.106476 0.000329465 4.58433e-22)
(0.00234521 0.00180852 1.75236e-22)
(0.000256765 0.000240016 -3.04528e-22)
(0.000271355 0.000217396 1.91251e-22)
(0.00248137 0.00135934 0)
(0.000309407 0.000294746 8.95711e-22)
(0.000472095 0.000158611 -5.50995e-22)
(0.0093049 0.00476333 -7.80867e-22)
(0.00201792 0.00111684 -1.01789e-21)
(0.00228804 0.00117359 0)
(0.00158314 0.00764368 0)
(0.000581881 0.00332327 0)
(0.000315645 0.00200403 0)
(0.127883 -0.0175086 2.03446e-22)
(0.127386 -0.0167536 0)
(0.126882 -0.0182885 -2.31648e-22)
(0.0882666 -0.0146936 5.13306e-21)
(0.0902743 -0.0150915 -1.86474e-21)
(0.0891776 -0.0127221 0)
(0.107417 7.58462e-06 -1.1504e-23)
(0.107442 7.67378e-06 2.30259e-23)
(0.10739 8.15917e-06 -7.77653e-24)
(0.107467 7.78813e-06 0)
(0.10749 8.21465e-06 -1.47021e-23)
(0.107512 8.0175e-06 0)
(0.10751 -1.57101e-05 0)
(0.107532 7.02911e-06 5.45961e-23)
(0.107531 -1.62346e-05 0)
(0.107489 -1.63453e-05 -1.4796e-23)
(0.107466 -1.72426e-05 0)
(0.107442 -1.83128e-05 7.70211e-24)
(0.107416 -1.95494e-05 -1.15005e-23)
(0.10739 -2.0861e-05 7.76681e-24)
(0.107552 6.26594e-06 -5.2244e-23)
(0.107551 -1.63406e-05 -1.82947e-24)
(0.107363 8.43041e-06 9.14553e-28)
(0.107362 -2.18468e-05 -1.18719e-23)
(0.107333 8.74718e-06 6.31192e-23)
(0.10757 5.95001e-06 4.88776e-26)
(0.10757 -1.58004e-05 -1.83226e-24)
(0.107332 -2.2781e-05 2.33916e-23)
(0.107588 5.45296e-06 4.92514e-23)
(0.107605 4.91217e-06 -4.92109e-23)
(0.107588 -1.52855e-05 3.68812e-24)
(0.107605 -1.47962e-05 7.2955e-24)
(0.107302 1.05806e-05 -6.14119e-23)
(0.107302 -2.43254e-05 -1.53946e-23)
(0.107621 4.37794e-06 0)
(0.107621 -1.43462e-05 -7.19583e-24)
(0.10727 1.14466e-05 7.5911e-27)
(0.10727 -2.53906e-05 -7.61014e-27)
(0.107636 3.86064e-06 0)
(0.107636 -1.3883e-05 0)
(0.107236 1.23571e-05 0)
(0.107236 -2.64976e-05 0)
(0.10765 3.34138e-06 0)
(0.107651 -1.3487e-05 3.46215e-24)
(0.1072 1.35723e-05 -3.18329e-23)
(0.1072 -2.73279e-05 -7.76932e-27)
(0.107664 2.81748e-06 1.81543e-25)
(0.107664 -1.30436e-05 -3.69765e-24)
(0.107163 1.50287e-05 3.1985e-23)
(0.107162 -2.80636e-05 0)
(0.107678 2.29712e-06 0)
(0.107678 -1.26549e-05 0)
(0.107123 1.69886e-05 -2.02349e-24)
(0.107122 -2.84899e-05 3.47232e-23)
(0.10769 1.71554e-06 2.24808e-23)
(0.10769 -1.21633e-05 0)
(0.107081 1.89916e-05 -1.67711e-25)
(0.107081 -2.9196e-05 -3.28645e-23)
(0.107702 9.70834e-07 -3.36327e-23)
(0.107702 -1.17851e-05 -9.76444e-24)
(0.107037 2.02106e-05 3.35107e-23)
(0.107037 -2.97442e-05 0)
(0.107713 1.18173e-07 1.10825e-23)
(0.107713 -1.14036e-05 6.51273e-24)
(0.10699 2.21584e-05 -1.69568e-23)
(0.10699 -3.08377e-05 3.43907e-23)
(0.107724 -7.56859e-07 -4.43186e-23)
(0.107724 -1.04611e-05 4.99511e-23)
(0.106939 2.24495e-05 1.7493e-23)
(0.10694 -3.16986e-05 5.53626e-25)
(0.107735 -1.6641e-06 0)
(0.107735 -1.00193e-05 2.383e-23)
(0.106886 2.33901e-05 -3.51909e-23)
(0.106887 -3.33394e-05 7.04084e-23)
(0.107746 -1.74326e-06 0)
(0.107745 -1.0383e-05 0)
(0.106941 7.5188e-05 -1.73092e-23)
(0.106888 7.95052e-05 -7.00864e-23)
(0.106828 2.3918e-05 0)
(0.10683 -3.59718e-05 -3.58854e-23)
(0.107039 6.62093e-05 -1.08791e-23)
(0.106991 7.08713e-05 2.1352e-24)
(0.107126 5.76451e-05 0)
(0.107083 6.2033e-05 -3.51007e-23)
(0.107203 5.0561e-05 -6.77806e-26)
(0.107165 5.39271e-05 0)
(0.107273 4.46584e-05 0)
(0.107239 4.74982e-05 0)
(0.107336 3.93985e-05 0)
(0.107305 4.19207e-05 0)
(0.107392 3.62465e-05 1.53655e-23)
(0.107365 3.79525e-05 3.87075e-24)
(0.107444 3.33644e-05 -1.48203e-23)
(0.107419 3.4836e-05 -1.53473e-23)
(0.107491 3.04463e-05 2.63378e-23)
(0.107468 3.15821e-05 3.3677e-23)
(0.107534 2.75423e-05 0)
(0.107513 2.91144e-05 0)
(0.107572 2.42459e-05 -1.15973e-25)
(0.107553 2.591e-05 0)
(0.107606 2.12235e-05 0)
(0.107589 2.26979e-05 0)
(0.107637 1.83587e-05 0)
(0.107622 1.97708e-05 0)
(0.107665 1.57145e-05 0)
(0.107652 1.70155e-05 0)
(0.107691 1.33498e-05 0)
(0.107678 1.45123e-05 0)
(0.107714 1.11677e-05 0)
(0.107703 1.22343e-05 0)
(0.107736 8.47892e-06 -1.81358e-23)
(0.107725 1.01391e-05 0)
(0.107746 7.19923e-06 -5.86778e-24)
(0.107755 -2.219e-06 5.72499e-24)
(0.107755 -1.04107e-05 -5.67735e-24)
(0.107725 -2.10043e-05 0)
(0.107745 -1.92383e-05 -2.32905e-23)
(0.107735 -1.98238e-05 -1.19757e-23)
(0.107703 -2.36142e-05 3.27187e-24)
(0.107714 -2.21902e-05 -1.28215e-23)
(0.107678 -2.58469e-05 1.05898e-25)
(0.107691 -2.48963e-05 0)
(0.107651 -2.77056e-05 0)
(0.107665 -2.67524e-05 0)
(0.107621 -2.97812e-05 0)
(0.107637 -2.87008e-05 0)
(0.107588 -3.22368e-05 0)
(0.107605 -3.09354e-05 1.39023e-29)
(0.107552 -3.51878e-05 1.17143e-25)
(0.10757 -3.36298e-05 0)
(0.107511 -3.90614e-05 0)
(0.107532 -3.71731e-05 0)
(0.107467 -4.23821e-05 0)
(0.10749 -4.08014e-05 0)
(0.107418 -4.64778e-05 0)
(0.107443 -4.41431e-05 -7.78526e-24)
(0.107363 -5.16689e-05 2.04137e-24)
(0.107391 -4.95659e-05 -1.00355e-23)
(0.107304 -5.77336e-05 0)
(0.107335 -5.4228e-05 -8.16241e-24)
(0.107238 -6.34028e-05 0)
(0.107272 -6.06068e-05 0)
(0.107165 -6.91462e-05 0)
(0.107202 -6.62406e-05 0)
(0.107083 -7.5309e-05 0)
(0.107125 -7.22212e-05 0)
(0.106992 -8.17288e-05 -8.8831e-24)
(0.107039 -7.8238e-05 0)
(0.106891 -8.94922e-05 -3.60295e-23)
(0.106943 -8.51617e-05 -8.93765e-24)
(0.106834 -9.467e-05 3.6686e-23)
(0.10683 8.40713e-05 6.94842e-23)
(0.107756 6.28094e-06 1.14872e-23)
(0.107755 -1.8833e-05 -2.24602e-23)
(0.106769 -3.94102e-05 0)
(0.106774 -0.000101139 0)
(0.106769 8.86066e-05 0)
(0.106767 2.37202e-05 0)
(0.106947 0.000126897 0)
(0.106837 0.000142697 1.74294e-23)
(0.106893 0.000134515 1.75855e-23)
(0.107044 0.000111736 2.23547e-23)
(0.106997 0.000119154 -4.46707e-24)
(0.10713 9.82923e-05 6.91448e-26)
(0.107089 0.000104528 0)
(0.107208 8.72346e-05 0)
(0.10717 9.25541e-05 0)
(0.107277 7.7898e-05 0)
(0.107243 8.23529e-05 0)
(0.10734 7.03783e-05 0)
(0.107309 7.38634e-05 0)
(0.107396 6.33259e-05 0)
(0.107369 6.67072e-05 0)
(0.107448 5.76353e-05 -6.21654e-26)
(0.107422 6.06668e-05 1.60259e-23)
(0.107494 5.25144e-05 -5.97539e-26)
(0.107471 5.47833e-05 -3.13212e-23)
(0.107536 4.73503e-05 0)
(0.107515 4.9859e-05 0)
(0.107574 4.24084e-05 5.79347e-26)
(0.107555 4.4858e-05 0)
(0.107608 3.7778e-05 0)
(0.107591 4.00358e-05 0)
(0.107639 3.34825e-05 0)
(0.107624 3.55705e-05 0)
(0.107667 2.95289e-05 0)
(0.107653 3.14416e-05 0)
(0.107692 2.58288e-05 0)
(0.10768 2.76287e-05 0)
(0.107715 2.23314e-05 0)
(0.107704 2.40619e-05 0)
(0.107737 1.83665e-05 1.23861e-23)
(0.107726 2.04087e-05 0)
(0.107765 -3.02632e-06 0)
(0.107765 5.6199e-06 1.1251e-23)
(0.107756 1.45221e-05 0)
(0.107747 1.62598e-05 1.208e-23)
(0.107746 -2.87869e-05 2.40383e-23)
(0.107756 -2.78105e-05 5.91322e-24)
(0.107765 -1.83873e-05 4.61186e-23)
(0.107765 -1.01768e-05 0)
(0.107726 -3.21785e-05 0)
(0.107736 -3.02387e-05 -3.62822e-23)
(0.107704 -3.56025e-05 1.03102e-25)
(0.107715 -3.38625e-05 1.28994e-23)
(0.107679 -3.85544e-05 -1.05898e-25)
(0.107692 -3.70649e-05 0)
(0.107652 -4.17385e-05 0)
(0.107666 -4.01053e-05 0)
(0.107623 -4.5323e-05 0)
(0.107638 -4.34702e-05 0)
(0.10759 -4.94426e-05 0)
(0.107607 -4.73014e-05 -1.39023e-29)
(0.107553 -5.41677e-05 -2.34253e-25)
(0.107572 -5.17231e-05 0)
(0.107513 -5.9919e-05 0)
(0.107534 -5.68419e-05 0)
(0.107469 -6.61422e-05 3.93201e-24)
(0.107492 -6.29393e-05 0)
(0.107421 -7.29332e-05 0)
(0.107445 -6.93359e-05 -3.9156e-24)
(0.107367 -8.07211e-05 8.18424e-24)
(0.107394 -7.67818e-05 8.13259e-24)
(0.107307 -8.91e-05 0)
(0.107338 -8.49386e-05 0)
(0.107242 -9.79622e-05 0)
(0.107275 -9.34571e-05 0)
(0.107169 -0.000107471 0)
(0.107206 -0.000102628 0)
(0.107088 -0.000117778 0)
(0.107129 -0.00011254 0)
(0.106998 -0.000129029 1.42466e-25)
(0.107044 -0.000123267 0)
(0.106897 -0.000142225 -1.44549e-25)
(0.106949 -0.000135295 0)
(0.106783 -0.000159336 -3.7808e-23)
(0.106842 -0.000150394 3.77906e-23)
(0.106777 0.000151181 3.54303e-23)
(0.106711 -0.000108856 0)
(0.10672 -0.000170212 -7.69741e-23)
(0.106704 -4.30599e-05 0)
(0.107766 1.35824e-05 0)
(0.107765 -2.66618e-05 -5.74241e-24)
(0.106705 9.2894e-05 8.97723e-23)
(0.106714 0.00016012 3.58981e-23)
(0.106643 -0.000117075 1.94368e-23)
(0.106654 -0.000181888 9.72695e-23)
(0.106702 2.39193e-05 0)
(0.107757 2.43026e-05 4.73218e-23)
(0.107767 2.20862e-05 -2.33851e-23)
(0.107774 -1.82591e-05 -1.13743e-23)
(0.107774 -2.55386e-05 5.65782e-23)
(0.106728 0.00022607 1.25845e-22)
(0.106646 0.000169871 -7.07172e-23)
(0.106589 0.000256743 -3.20136e-22)
(0.106661 0.000240339 -7.18415e-23)
(0.106848 0.000200759 3.51087e-23)
(0.10679 0.000213089 -1.07157e-22)
(0.106956 0.000177673 -3.58831e-23)
(0.106904 0.000189025 -2.70538e-23)
(0.107052 0.000156954 -8.94429e-24)
(0.107005 0.000167074 -8.95994e-24)
(0.107138 0.000138978 -6.91448e-26)
(0.107096 0.000147511 0)
(0.107214 0.000123772 0)
(0.107177 0.000131084 0)
(0.107283 0.000110853 0)
(0.10725 0.00011704 0)
(0.107346 9.99701e-05 0)
(0.107315 0.000105177 0)
(0.107402 9.04488e-05 0)
(0.107374 9.49788e-05 0)
(0.107452 8.19176e-05 0)
(0.107428 8.59978e-05 0)
(0.107498 7.41075e-05 4.21864e-30)
(0.107476 7.80996e-05 0)
(0.10754 6.70592e-05 0)
(0.107519 7.04465e-05 0)
(0.107577 6.03302e-05 5.79324e-26)
(0.107559 6.36645e-05 0)
(0.107611 5.40023e-05 0)
(0.107594 5.71023e-05 0)
(0.107641 4.81673e-05 0)
(0.107627 5.1019e-05 0)
(0.107669 4.28217e-05 0)
(0.107656 4.54306e-05 0)
(0.107694 3.79094e-05 0)
(0.107682 4.03118e-05 0)
(0.107717 3.33314e-05 0)
(0.107706 3.55961e-05 0)
(0.107739 2.87055e-05 6.31384e-24)
(0.107728 3.09985e-05 -3.17613e-24)
(0.107748 2.64465e-05 -2.41285e-23)
(0.107774 -3.20692e-06 -5.38587e-24)
(0.107775 1.26659e-05 2.25413e-23)
(0.107774 4.49714e-06 -1.72112e-23)
(0.107774 -9.92507e-06 0)
(0.107747 -3.90562e-05 -1.79202e-23)
(0.107766 -3.50748e-05 -5.17947e-23)
(0.107757 -3.68963e-05 4.16666e-23)
(0.107727 -4.34887e-05 0)
(0.107737 -4.13502e-05 0)
(0.107705 -4.71933e-05 2.5405e-30)
(0.107717 -4.52224e-05 0)
(0.107681 -5.12464e-05 0)
(0.107693 -4.91672e-05 0)
(0.107654 -5.57617e-05 -1.08707e-25)
(0.107668 -5.34413e-05 0)
(0.107625 -6.08442e-05 0)
(0.10764 -5.82246e-05 0)
(0.107592 -6.66129e-05 0)
(0.107609 -6.36346e-05 0)
(0.107556 -7.31608e-05 1.17127e-25)
(0.107575 -6.97852e-05 0)
(0.107516 -8.06775e-05 1.19938e-25)
(0.107537 -7.67657e-05 0)
(0.107473 -8.906e-05 0)
(0.107495 -8.47455e-05 0)
(0.107424 -9.85077e-05 0)
(0.107449 -9.37104e-05 0)
(0.107371 -0.000108827 0)
(0.107398 -0.000103421 0)
(0.107312 -0.000120045 0)
(0.107343 -0.000114352 0)
(0.107247 -0.000132249 -1.34003e-25)
(0.107281 -0.000126018 0)
(0.107175 -0.000145536 0)
(0.107212 -0.000138748 0)
(0.107095 -0.000160113 0)
(0.107136 -0.000152653 0)
(0.107006 -0.000176273 -2.19145e-31)
(0.107052 -0.000167978 0)
(0.106906 -0.000194592 3.88884e-30)
(0.106957 -0.000185131 0)
(0.106794 -0.000216688 1.49781e-25)
(0.106852 -0.000204888 0)
(0.106667 -0.000244735 -7.88354e-23)
(0.106733 -0.000229839 1.93846e-23)
(0.106583 -0.000193923 1.98335e-23)
(0.106599 -0.00026085 3.93762e-23)
(0.106637 9.72692e-05 -3.51121e-23)
(0.106636 -4.7674e-05 -3.76775e-23)
(0.107776 2.05711e-05 5.73622e-24)
(0.107775 -3.36787e-05 4.07161e-23)
(0.106573 0.000178417 4.30707e-24)
(0.106571 -0.000125976 0)
(0.106503 0.000263199 4.88497e-22)
(0.106526 -0.00027771 6.07317e-23)
(0.106509 -0.000207154 8.09874e-23)
(0.106512 0.00035954 -8.24006e-22)
(0.106446 0.000392482 1.4635e-22)
(0.106634 2.40896e-05 0)
(0.106621 0.000324153 8.09884e-23)
(0.106564 0.000346085 4.2165e-23)
(0.106747 0.000288813 7.30125e-23)
(0.106684 0.000305674 -1.11407e-22)
(0.106864 0.000256259 -3.63801e-23)
(0.106807 0.000272401 -1.81736e-23)
(0.106969 0.000227008 1.82435e-23)
(0.106918 0.000241058 1.84729e-23)
(0.107063 0.000201391 0)
(0.107017 0.000213793 -4.38257e-26)
(0.107147 0.00017917 0)
(0.107106 0.000189906 0)
(0.107223 0.000159902 6.77403e-26)
(0.107186 0.000169177 0)
(0.107291 0.000143383 0)
(0.107258 0.000151321 0)
(0.107353 0.000129225 0)
(0.107323 0.000136039 0)
(0.107408 0.000116888 0)
(0.107381 0.000122846 0)
(0.107458 0.000105851 6.21331e-26)
(0.107434 0.00011119 0)
(0.107503 9.57599e-05 1.71186e-30)
(0.107481 0.000100767 0)
(0.107544 8.65522e-05 0)
(0.107524 9.10356e-05 0)
(0.107581 7.79399e-05 -1.15863e-25)
(0.107563 8.2182e-05 0)
(0.107614 6.99356e-05 0)
(0.107598 7.38551e-05 0)
(0.107645 6.25927e-05 0)
(0.10763 6.61816e-05 0)
(0.107672 5.58981e-05 0)
(0.107659 5.91664e-05 0)
(0.107697 4.98067e-05 0)
(0.107685 5.27811e-05 0)
(0.10772 4.42213e-05 0)
(0.107709 4.69655e-05 0)
(0.10774 3.89358e-05 -3.15493e-24)
(0.10773 4.1454e-05 0)
(0.107759 3.41109e-05 0)
(0.10775 3.65417e-05 -6.12767e-24)
(0.107777 2.88157e-05 3.06206e-27)
(0.107768 3.14127e-05 0)
(0.107783 1.16146e-05 -2.28543e-23)
(0.107785 2.67413e-05 1.38173e-24)
(0.107784 1.95184e-05 1.12063e-23)
(0.107783 -3.0379e-06 8.22197e-24)
(0.107783 3.97896e-06 -5.67527e-24)
(0.107783 -1.82302e-05 -2.85659e-24)
(0.107782 -1.02287e-05 2.85199e-24)
(0.107783 -3.29901e-05 0)
(0.107783 -2.49958e-05 -2.59165e-23)
(0.107767 -4.45268e-05 -1.16478e-23)
(0.107784 -4.13897e-05 -2.22966e-23)
(0.107775 -4.27204e-05 5.13111e-23)
(0.107749 -4.89981e-05 -6.10028e-24)
(0.107758 -4.66231e-05 0)
(0.107729 -5.40716e-05 0)
(0.107739 -5.15946e-05 0)
(0.107707 -5.86788e-05 2.18139e-30)
(0.107719 -5.63738e-05 0)
(0.107683 -6.38558e-05 0)
(0.107696 -6.11894e-05 0)
(0.107657 -6.96672e-05 1.08707e-25)
(0.10767 -6.66788e-05 0)
(0.107628 -7.62036e-05 0)
(0.107643 -7.28383e-05 0)
(0.107596 -8.35819e-05 0)
(0.107612 -7.97807e-05 0)
(0.10756 -9.19156e-05 0)
(0.107578 -8.76232e-05 0)
(0.107521 -0.000101334 1.60548e-30)
(0.107541 -9.64819e-05 0)
(0.107477 -0.000111838 0)
(0.1075 -0.000106442 0)
(0.10743 -0.000123565 0)
(0.107454 -0.00011757 0)
(0.107377 -0.000136483 0)
(0.107404 -0.000129827 0)
(0.107319 -0.000150658 0)
(0.107349 -0.000143416 0)
(0.107255 -0.000166186 1.34003e-25)
(0.107288 -0.000158246 0)
(0.107184 -0.000183241 0)
(0.10722 -0.000174509 0)
(0.107105 -0.000202107 0)
(0.107145 -0.000192429 0)
(0.107016 -0.000223165 -1.42452e-25)
(0.107062 -0.000212336 0)
(0.106918 -0.000246893 1.4527e-25)
(0.106968 -0.000234672 0)
(0.106808 -0.000273924 -1.48089e-25)
(0.106864 -0.00025993 0)
(0.106684 -0.000306284 1.95044e-23)
(0.106748 -0.000289077 -3.84508e-23)
(0.106546 -0.000345914 -1.96958e-23)
(0.106617 -0.000325176 3.99563e-23)
(0.106449 -0.000295493 7.43539e-25)
(0.106471 -0.000367666 4.04987e-23)
(0.106565 0.000101245 -3.60908e-23)
(0.106565 -5.20417e-05 0)
(0.106498 0.000187587 -3.50149e-22)
(0.106496 -0.000132844 0)
(0.107778 3.86339e-05 -5.74696e-24)
(0.107786 3.64048e-05 4.21009e-24)
(0.107791 -3.20357e-05 -2.1963e-23)
(0.107792 -4.00689e-05 -2.48941e-23)
(0.106418 0.000262799 -3.43615e-22)
(0.106431 -0.000220942 -8.17798e-23)
(0.106384 0.000396639 0)
(0.106531 0.000434113 -9.52171e-23)
(0.106367 -0.000314406 -4.016e-23)
(0.106391 -0.000390968 6.1518e-23)
(0.106459 0.000454819 1.91091e-22)
(0.106563 2.39905e-05 0)
(0.10665 0.000389845 0)
(0.106591 0.000413014 -8.4755e-23)
(0.10677 0.00034852 0)
(0.10671 0.000368713 0)
(0.106883 0.000309709 0)
(0.106828 0.000328633 1.88281e-23)
(0.106984 0.000275572 0)
(0.106935 0.000292119 0)
(0.107076 0.000245375 0)
(0.107031 0.000259971 0)
(0.107159 0.000218788 0)
(0.107119 0.000231663 0)
(0.107234 0.00019557 -6.77403e-26)
(0.107197 0.000206767 0)
(0.107301 0.000175496 0)
(0.107268 0.000185166 0)
(0.107362 0.000158127 0)
(0.107332 0.000166507 0)
(0.107416 0.00014291 0)
(0.10739 0.000150282 0)
(0.107465 0.000129332 -1.57963e-30)
(0.107441 0.000135937 0)
(0.10751 0.000117003 1.48945e-30)
(0.107488 0.000123045 0)
(0.10755 0.000105709 0)
(0.10753 0.000111231 0)
(0.107586 9.5269e-05 1.47522e-30)
(0.107568 0.000100392 0)
(0.107619 8.5641e-05 0)
(0.107603 9.0352e-05 0)
(0.107649 7.68371e-05 0)
(0.107634 8.11376e-05 0)
(0.107676 6.88326e-05 0)
(0.107662 7.27379e-05 0)
(0.1077 6.15795e-05 0)
(0.107688 6.51163e-05 0)
(0.107723 5.50266e-05 0)
(0.107712 5.82175e-05 0)
(0.107743 4.92199e-05 0)
(0.107733 5.20609e-05 0)
(0.107761 4.32639e-05 6.08788e-24)
(0.107752 4.6119e-05 6.22072e-24)
(0.10777 4.07556e-05 -1.16944e-23)
(0.107791 1.07847e-05 -1.12259e-23)
(0.107793 2.55501e-05 0)
(0.107792 1.85583e-05 -1.13371e-23)
(0.107791 -3.13846e-06 0)
(0.107791 3.93829e-06 1.14568e-23)
(0.107791 -1.82309e-05 1.70985e-23)
(0.107791 -1.07214e-05 -5.77853e-24)
(0.107791 -2.47567e-05 -3.35995e-23)
(0.107769 -5.39931e-05 5.87592e-24)
(0.107785 -4.89741e-05 2.19165e-23)
(0.107777 -5.20443e-05 0)
(0.107751 -5.91026e-05 -1.21563e-23)
(0.10776 -5.63891e-05 1.21964e-23)
(0.107731 -6.43987e-05 0)
(0.107742 -6.18632e-05 0)
(0.10771 -7.00021e-05 2.25052e-30)
(0.107721 -6.71374e-05 0)
(0.107686 -7.63125e-05 0)
(0.107698 -7.30642e-05 0)
(0.10766 -8.34e-05 0)
(0.107674 -7.97549e-05 0)
(0.107631 -9.13623e-05 0)
(0.107646 -8.72656e-05 0)
(0.1076 -0.000100318 0)
(0.107616 -9.57094e-05 0)
(0.107565 -0.000110387 1.17132e-25)
(0.107583 -0.000105207 0)
(0.107526 -0.000121694 -1.1994e-25)
(0.107546 -0.000115882 0)
(0.107483 -0.000134296 0)
(0.107505 -0.000127828 0)
(0.107437 -0.000148298 0)
(0.107461 -0.000141124 0)
(0.107385 -0.000163781 0)
(0.107411 -0.00015584 0)
(0.107328 -0.000180845 0)
(0.107357 -0.000172111 0)
(0.107265 -0.000199641 0)
(0.107297 -0.000190015 0)
(0.107194 -0.000220411 0)
(0.10723 -0.000209762 0)
(0.107116 -0.000243498 -1.39637e-25)
(0.107157 -0.000231643 0)
(0.10703 -0.000269348 1.42454e-25)
(0.107074 -0.000256047 0)
(0.106933 -0.000298498 -1.45271e-25)
(0.106982 -0.00028348 0)
(0.106824 -0.0003315 0)
(0.10688 -0.000314479 0)
(0.106704 -0.000368983 0)
(0.106766 -0.000349627 0)
(0.106569 -0.000413074 1.55642e-25)
(0.106638 -0.00038979 1.96906e-23)
(0.106418 -0.000466264 -1.03126e-22)
(0.106495 -0.000438645 0)
(0.106306 -0.000416826 -6.10033e-23)
(0.106335 -0.000496057 -7.46903e-25)
(0.10649 0.000105275 1.12895e-22)
(0.106489 -5.60339e-05 0)
(0.107794 3.37016e-05 -2.18868e-23)
(0.107793 -4.70007e-05 -4.21975e-23)
(0.106413 0.0001885 -6.01215e-23)
(0.10635 0.000339374 7.88486e-25)
(0.106333 0.000264196 1.7524e-22)
(0.106418 -0.000140322 0)
(0.106348 -0.000233554 2.05619e-23)
(0.106379 0.000475002 -1.74969e-22)
(0.106298 0.000478627 1.51505e-22)
(0.10628 0.000376826 -1.50297e-22)
(0.106281 -0.000333755 -6.18327e-23)
(0.106216 -0.000443173 4.14127e-23)
(0.106247 -0.000529042 4.06371e-23)
(0.106487 2.34506e-05 0)
(0.106551 0.000507183 5.32066e-24)
(0.106395 0.000565143 -8.13468e-25)
(0.106476 0.000535263 4.12139e-23)
(0.106677 0.000454376 4.07656e-23)
(0.106616 0.000480058 -4.09773e-23)
(0.106795 0.000405951 7.47596e-26)
(0.106736 0.000429779 0)
(0.106904 0.000362305 0)
(0.10685 0.000383474 0)
(0.107002 0.000323291 0)
(0.106954 0.000342268 0)
(0.107092 0.000288492 0)
(0.107048 0.000305364 0)
(0.107173 0.000257682 6.91392e-26)
(0.107134 0.000272608 0)
(0.107247 0.000230642 0)
(0.107211 0.000243707 0)
(0.107313 0.000207081 0)
(0.10728 0.000218454 0)
(0.107372 0.000186545 0)
(0.107343 0.000196469 0)
(0.107426 0.00016848 0)
(0.1074 0.000177238 0)
(0.107474 0.000152368 -6.21315e-26)
(0.10745 0.000160208 0)
(0.107517 0.000137794 1.61973e-30)
(0.107496 0.000144915 0)
(0.107556 0.00012449 0)
(0.107537 0.000130994 0)
(0.107592 0.000112276 1.15858e-25)
(0.107575 0.000118256 0)
(0.107624 0.000101069 0)
(0.107608 0.000106548 0)
(0.107653 9.08447e-05 0)
(0.107639 9.58366e-05 0)
(0.10768 8.15638e-05 0)
(0.107667 8.60903e-05 0)
(0.107704 7.317e-05 0)
(0.107692 7.72605e-05 0)
(0.107726 6.5611e-05 0)
(0.107715 6.92882e-05 0)
(0.107746 5.88957e-05 9.90681e-26)
(0.107736 6.21592e-05 0)
(0.107764 5.26337e-05 -6.11448e-24)
(0.107755 5.5829e-05 0)
(0.107781 4.62835e-05 5.82295e-24)
(0.107772 4.94156e-05 0)
(0.107796 4.08478e-05 5.57159e-24)
(0.107788 4.35096e-05 -5.68939e-24)
(0.107801 2.43887e-05 1.10106e-23)
(0.107804 3.79619e-05 0)
(0.107802 3.19751e-05 1.63882e-23)
(0.107799 1.06041e-05 0)
(0.1078 1.7267e-05 0)
(0.107798 -3.48242e-06 0)
(0.107799 3.84332e-06 0)
(0.107798 -1.8366e-05 0)
(0.107798 -1.09251e-05 0)
(0.107799 -3.15335e-05 2.23839e-23)
(0.107799 -2.47679e-05 5.56577e-24)
(0.107801 -4.54535e-05 5.51043e-24)
(0.1078 -3.85449e-05 4.38971e-23)
(0.107787 -5.70993e-05 2.8569e-23)
(0.107802 -5.27609e-05 5.4903e-24)
(0.107794 -5.47235e-05 -1.11406e-23)
(0.107771 -6.27201e-05 5.87075e-24)
(0.107779 -5.97546e-05 -3.51902e-23)
(0.107754 -6.87804e-05 7.67749e-30)
(0.107762 -6.57375e-05 0)
(0.107734 -7.45502e-05 0)
(0.107744 -7.15756e-05 0)
(0.107713 -8.11513e-05 2.29415e-30)
(0.107724 -7.77554e-05 0)
(0.10769 -8.85824e-05 0)
(0.107702 -8.47592e-05 0)
(0.107664 -9.69247e-05 0)
(0.107677 -9.26348e-05 0)
(0.107636 -0.000106284 0)
(0.10765 -0.000101471 0)
(0.107605 -0.000116782 0)
(0.107621 -0.000111384 0)
(0.10757 -0.000128546 -2.34264e-25)
(0.107588 -0.000122499 0)
(0.107532 -0.000141703 0)
(0.107552 -0.000134944 0)
(0.107491 -0.000156351 0)
(0.107512 -0.000148834 0)
(0.107445 -0.00017261 0)
(0.107468 -0.000164275 0)
(0.107394 -0.000190611 0)
(0.10742 -0.000181382 0)
(0.107338 -0.000210509 -1.31191e-25)
(0.107367 -0.000200314 0)
(0.107276 -0.000232517 0)
(0.107308 -0.000221234 0)
(0.107207 -0.000256936 0)
(0.107242 -0.000244405 0)
(0.107131 -0.000284163 1.39637e-25)
(0.10717 -0.000270173 0)
(0.107045 -0.000314691 4.80526e-31)
(0.107089 -0.000298981 0)
(0.10695 -0.000349106 2.90544e-25)
(0.106999 -0.000331377 0)
(0.106844 -0.000388033 0)
(0.106899 -0.000367969 0)
(0.106726 -0.000432082 0)
(0.106787 -0.000409372 0)
(0.106595 -0.000481991 -6.42611e-30)
(0.106662 -0.000456277 0)
(0.106448 -0.000539161 0)
(0.106523 -0.000509534 0)
(0.106283 -0.000608604 -6.1686e-23)
(0.106368 -0.000572026 0)
(0.106155 -0.000563159 -7.40042e-25)
(0.106193 -0.000648892 1.0506e-22)
(0.106409 0.000107461 0)
(0.106316 0.000585306 2.38575e-22)
(0.106326 0.000190216 4.1183e-23)
(0.107798 4.78595e-05 -5.5611e-24)
(0.107805 4.53158e-05 0)
(0.107808 -4.42455e-05 5.37485e-24)
(0.107809 -5.08708e-05 -1.06526e-23)
(0.10641 -5.9377e-05 0)
(0.106335 -0.000148583 0)
(0.106251 0.000285786 0)
(0.106261 -0.000246862 -2.02517e-23)
(0.106189 -0.000354661 -4.09804e-23)
(0.106121 -0.000472456 0)
(0.106057 -0.00059966 1.06025e-22)
(0.106098 -0.000690779 -8.47224e-23)
(0.106407 2.35192e-05 0)
(0.106423 0.000645991 -1.98336e-26)
(0.106228 0.000607884 7.57067e-23)
(0.106258 0.000709153 -2.70854e-22)
(0.106343 0.000677923 7.86233e-23)
(0.106576 0.00057709 -2.56904e-23)
(0.106501 0.000610263 -4.08631e-23)
(0.106704 0.000516659 0)
(0.106642 0.000545955 0)
(0.10682 0.000462244 -7.47527e-26)
(0.106763 0.000488802 0)
(0.106926 0.000413492 0)
(0.106875 0.00043719 0)
(0.107023 0.000369716 0)
(0.106976 0.000391016 0)
(0.10711 0.000330549 0)
(0.107067 0.000349571 0)
(0.107189 0.00029573 -6.91392e-26)
(0.107151 0.000312616 0)
(0.107261 0.000264996 0)
(0.107226 0.000279871 0)
(0.107326 0.000238031 0)
(0.107294 0.00025107 0)
(0.107384 0.000214385 0)
(0.107355 0.000225827 0)
(0.107436 0.000193518 0)
(0.107411 0.000203639 0)