/*--------------------------------*- C++ -*----------------------------------*\
  =========                 |
  \\      /  F ield         | OpenFOAM: The Open Source CFD Toolbox
   \\    /   O peration     | Website:  https://openfoam.org
    \\  /    A nd           | Version:  10
     \\/     M anipulation  |
\*---------------------------------------------------------------------------*/
FoamFile
{
    format      ascii;
    class       volScalarField;
    location    "26.5";
    object      p;
}
// * * * * * * * * * * * * * * * * * * * * * * * * * * * * * * * * * * * * * //

dimensions      [0 2 -2 0 0 0 0];

internalField   nonuniform List<scalar> 
6397
(
3.36389
2.97759
-0.237369
0.175759
0.129136
-0.26482
5.60028
0.9145
-18.5038
-15.902
7.34825
4.19312
-0.195541
-0.120457
-0.183351
-7.31126
-6.07376
-7.21293
12.3377
11.8629
11.3628
-20.3219
-20.4334
-19.6053
-0.0722773
-0.0199184
0.0158784
-2.32626
-2.43736
-3.19153
-3.49895
0.974161
0.777453
0.494714
1.34326
1.27157
1.23273
1.11887
1.2896
1.2897
1.35407
1.30841
-2.84427
-1.79063
-2.5467
-0.777541
-0.729956
-1.30504
1.11721
1.04871
1.00624
0.903309
0.97836
5.50013
5.19382
1.99862
2.03538
0.345401
-2.03922
-1.93916
-2.294
-2.68477
-3.20098
-3.78451
-4.33126
-4.68576
-4.78186
-4.49409
-1.5785
-1.9785
-1.42988
-1.86966
-2.32067
-2.92875
-3.68063
-4.50681
-5.2459
-5.71524
-5.73579
-5.31483
-1.38392
-2.12951
-3.91013
-4.53325
-1.38827
-2.30704
-3.2433
-3.66327
-1.40191
-2.42532
-2.67676
-2.91424
-1.38087
-1.31269
-2.3021
-2.3791
-0.569291
-0.525687
-0.534652
-0.716522
-0.628498
-1.1452
-0.874996
-2.13738
-1.56096
-3.82693
-2.90123
-5.74345
-4.84197
-6.28328
-6.29912
-4.78894
-5.7311
-2.8673
-3.75567
-2.21198
-2.60956
-2.04083
-2.23835
-3.43933
-3.04517
-3.51601
-3.5975
-2.89239
-3.23246
-2.26228
-2.52515
-2.09291
-2.10083
-2.52561
-2.23842
-3.32885
-2.936
-3.66474
-3.63059
-1.2032
-2.13283
-0.46125
-1.78001
-2.06553
-1.68999
-2.04867
-1.83627
-1.54194
-1.32491
-1.02716
-4.24
0.0950264
0.140163
-3.72321
-2.14235
0.0562138
0.0846136
-0.138882
-0.00748576
-0.685569
-0.359159
-1.79163
-1.154
-3.64875
-2.62914
-5.72238
-4.74944
-6.27213
-6.30244
-4.62067
-5.64648
-2.54007
-3.50917
-1.81698
-1.89951
-1.72235
-2.36435
-2.1488
-2.37941
-2.47179
-1.99134
-2.21951
-1.79487
-1.85533
-2.12076
-1.88411
-3.07626
-2.51325
-4.35413
-3.71754
-4.92383
-4.79667
-4.6629
-1.07786
-1.91862
0.156419
-0.396343
-2.17081
-2.26191
-1.94719
-0.76717
-0.450614
-0.866185
-1.4643
-1.89955
-2.72182
-2.51061
-2.46833
-3.14952
0.0937111
0.563874
0.477041
-4.3758
-5.11198
-2.19441
0.576431
0.560983
0.541368
0.572266
0.316898
0.470738
-0.242207
0.0856918
-1.33949
-0.712084
-3.18296
-2.17372
-5.20887
-4.26961
-5.71945
-5.78556
-4.07886
-5.0969
-2.00483
-2.97547
-1.27525
-1.28939
-1.50802
-1.23992
-1.2099
-1.4082
-1.33538
-1.39047
-1.45259
-1.24043
-1.30458
-1.38975
-1.26104
-2.09369
-1.66302
-3.48781
-2.70745
-5.23028
-4.38123
-5.94126
-5.78758
-5.67885
-1.00218
-1.7099
-0.396969
-0.249074
-2.6805
-2.01091
-3.42668
-3.55532
-0.805895
-1.52556
-0.064847
0.281319
-2.09438
-2.578
-5.56609
-4.62518
0.862609
0.749598
-0.124664
-0.0739391
-0.83066
-3.60835
-2.43377
0.941912
0.903107
0.905859
0.935426
0.677518
0.813682
0.164709
0.463419
-0.823571
-0.260159
-2.47872
-1.57192
-4.29296
-3.44744
-4.71277
-4.85252
-3.25164
-4.13664
-1.38953
-2.27282
-0.223616
-0.697648
0.311854
0.100409
0.531377
0.450382
-1.49206
-2.99155
-2.08883
-0.843213
-1.09486
-0.64114
-0.706646
-0.629287
-0.638505
-0.56817
-0.60709
-0.587861
-0.549833
-0.971349
-0.722295
-1.94263
-1.37169
-3.67548
-2.7187
-5.74361
-4.74622
-6.6259
-6.43361
-6.30962
-0.991201
-1.5486
-0.488191
-4.75295
-4.29918
-0.0726094
0.583984
-3.34688
-2.2425
0.563438
-2.88168
-5.60575
-4.5401
-4.76134
-1.70685
-6.03677
-6.49351
-0.931786
-0.107232
0.615405
-3.69452
-2.87738
1.07753
0.776733
0.961924
1.19526
1.16034
1.15671
1.19549
0.955765
1.07397
0.520178
0.7674
-0.288948
0.166418
-1.63743
-0.901599
-3.06512
-2.42402
-3.33877
-3.29459
-2.21639
-2.90445
-0.75024
-1.45392
0.254804
-0.174345
0.740756
0.538974
0.9788
0.879525
1.08811
1.04684
-2.35559
-5.05647
-3.51529
-1.01
-1.55327
-0.389481
-0.644609
-0.136845
-0.236199
-0.0190078
-0.0740798
0.0697095
0.03501
-0.0262537
0.0584431
-0.530454
-0.217818
-1.65915
-1.00504
-3.57579
-2.52609
-5.81897
-4.74111
-6.80162
-6.58045
-6.44743
-7.99429
-6.81257
0.644184
1.11839
-2.86529
-3.45678
-2.22386
-2.13775
-1.79052
-2.08208
-1.05967
-1.44212
-0.318771
-0.673554
0.288611
-0.00349061
0.543139
-4.31512
-2.6453
-6.30635
-1.9867
-8.39848
-1.0584
-8.23902
-9.55634
-0.119734
1.1358
0.654799
0.945461
0.733106
-3.55375
1.24181
1.12582
1.35939
1.32821
1.32437
1.35966
1.16455
1.26064
0.822725
1.01533
0.196308
0.54747
-0.830796
-0.2767
-1.88388
-1.4166
-2.04035
-2.09151
-1.2007
-1.70597
-0.135362
-0.648635
0.634893
0.298495
1.04526
0.876325
1.26065
1.17229
1.35813
1.31991
1.3874
1.38002
-3.71177
-6.2051
-5.11192
-1.58706
-2.5024
-0.491739
-0.944783
0.0324061
-0.189428
0.290246
0.185345
0.43628
0.367528
0.542104
0.501614
0.433839
0.528029
-0.103816
0.228128
-1.26993
-0.596876
-3.1967
-2.1438
-5.42846
-4.35466
-6.40269
-6.18258
-5.22347
-6.07126
-2.96213
-4.09165
-2.01713
-1.69734
-1.17787
-1.52274
-1.65193
-1.72852
-1.25928
-1.48603
-0.673442
-0.975315
-0.0691515
-0.364522
-8.60824
-6.40535
1.12895
1.35258
0.426719
0.202457
-5.55117
-3.18915
-7.95563
-2.29326
-9.89971
-1.17631
-9.99087
-0.103339
-5.56808
-7.70224
0.659748
1.26675
1.06987
-3.21742
-4.1731
-2.13558
1.14871
1.54611
1.49083
0.58524
0.0801809
0.333129
-4.4336
1.06698
0.889862
1.3482
1.25667
1.44662
1.42331
1.43368
1.45456
1.31871
1.39061
1.0594
1.20852
0.59142
0.8535
-0.122347
0.255467
-0.808259
-0.506548
-0.90219
-0.949337
-0.349657
-0.680854
0.375548
0.0225627
0.92475
0.681594
1.24758
1.11235
1.42894
1.35421
1.53858
1.49067
1.60076
1.58751
1.58694
-3.94485
-3.95557
-2.31012
-3.26932
-0.816741
-1.47532
-0.0168815
-0.358007
0.41587
0.230649
0.648688
0.551527
0.775697
0.717421
0.868281
0.829949
0.777565
0.860012
0.279907
0.589397
-0.806581
-0.180159
-2.58717
-1.61668
-4.62745
-3.64467
-5.54403
-5.3165
-4.41919
-5.22308
-2.32603
-3.38175
-1.42303
-0.686506
-0.272089
-1.34248
-1.04311
-1.64856
-1.54615
-1.57371
-1.65584
-1.15419
-1.39949
-0.548643
-0.864669
-0.220706
-6.84568
-3.75649
-9.22935
-2.51339
-10.3112
-1.19528
-9.02495
-0.050716
-5.95036
0.625844
-1.14446
-2.72536
0.950675
1.41862
1.04351
0.28134
-0.359862
0.745957
1.29649
1.53927
1.43026
-0.37645
-0.0339899
0.75487
0.499933
-5.34209
1.17224
0.994449
1.40735
1.31681
1.49129
1.45691
1.4969
1.4991
1.42174
1.46945
1.23384
1.34263
0.907256
1.09029
0.447614
0.689031
0.0492149
0.218936
0.0311105
-0.0130654
0.338139
0.160306
0.771183
0.551606
1.14826
0.97713
1.3946
1.28685
1.56842
1.48753
1.73367
1.65051
1.7942
1.76905
1.74462
1.78661
1.65587
-1.25544
-0.412204
-2.0126
-1.90595
-1.11363
-1.66813
-0.194087
-0.606084
0.37197
0.124661
0.71689
0.564522
0.917698
0.834015
1.01473
0.973698
1.07993
1.05111
1.01143
1.0749
0.598059
0.857253
-0.331542
0.204725
-1.85418
-1.0303
-3.57688
-2.75047
-4.35763
-4.16184
-3.40236
-4.06149
-1.62485
-2.51706
-0.842717
0.455384
0.758558
-0.302511
0.0959017
-1.1014
-0.714974
-1.7026
-1.43234
-1.96788
-1.88756
-1.76352
-1.92793
-1.14267
-1.49037
-0.758432
-7.81853
-4.16741
-9.55617
-2.56218
-9.35959
-1.09867
-7.10393
-0.00337329
-4.05891
0.54579
-1.50355
0.748489
1.07457
0.241906
0.955393
1.34524
1.12433
0.246915
-5.99894
0.91027
0.447133
0.651742
1.24124
1.0596
1.42858
1.32531
1.50841
1.46141
1.52926
1.52087
1.48029
1.51457
1.34583
1.42555
1.11975
1.24694
0.840371
0.982521
0.659767
0.728084
0.689344
0.652382
0.833657
0.75458
1.05907
0.934489
1.31844
1.1934
1.50224
1.41828
1.64248
1.5735
1.74622
1.70349
1.77588
1.77784
1.73474
1.75802
1.66221
1.70402
1.55408
1.61549
1.24426
1.67787
1.52936
0.124633
0.758223
-0.51026
-0.358127
-0.155633
-0.395106
0.303741
0.0896345
0.655507
0.491777
0.918531
0.797941
1.09518
1.01883
1.17456
1.14418
1.21104
1.19383
1.15957
1.20461
0.839997
1.04085
0.0988939
0.526133
-1.10931
-0.458581
-2.44934
-1.81095
-3.05452
-2.89604
-2.3073
-2.82779
-0.927224
-1.62333
0.18543
-0.299842
0.540249
0.716802
1.13371
0.967203
0.0116586
0.394656
-0.877659
-0.420427
-1.7893
-1.34439
-2.42011
-2.16086
-2.44429
-2.52386
-1.78531
-2.18094
-0.841529
-1.32482
0.0225646
-0.38091
1.32459
1.74565
1.24258
1.46984
-8.0398
-4.25508
0.964581
-8.72156
-2.39931
0.620032
-0.0765775
0.431959
-7.48384
-0.939491
-5.02081
-0.0363478
-2.47785
0.388761
-0.586616
0.503842
0.700127
0.857429
1.74765
1.48109
0.918212
1.09339
1.37386
-6.14757
0.979009
0.779663
1.24665
1.11326
1.40525
1.33126
1.49223
1.45774
1.51833
1.51548
1.4865
1.51152
1.4015
1.45047
1.2738
1.34305
1.12826
1.20225
1.04127
1.07115
1.08355
1.05064
1.15067
1.11968
1.25128
1.18733
1.42903
1.33577
1.57771
1.50679
1.70218
1.63944
1.81415
1.75923
1.85858
1.84349
1.83972
1.85751
1.73134
1.79488
1.62421
1.67271
1.52185
1.57783
1.96257
1.8619
1.93131
1.75281
1.91407
1.03221
1.43279
0.48287
0.676135
0.525277
0.455357
0.738854
0.633985
0.919415
0.834776
1.06564
0.995041
1.19469
1.13304
1.26749
1.23783
1.28693
1.27827
1.24512
1.27683
1.01175
1.15951
0.456692
0.777666
-0.440932
0.0420324
-1.4139
-0.950855
-1.85076
-1.73101
-1.30872
-1.68874
-0.305588
-0.820427
0.502274
0.145947
0.774848
1.27863
1.33345
0.94872
1.15419
0.299688
0.663492
-0.717225
-0.165879
-1.9237
-1.31857
-2.90011
-2.47289
-3.14658
-3.13928
-2.46587
-2.90954
-1.28018
-1.89412
-0.669279
1.70612
1.76977
1.30141
1.47717
-7.38319
-3.9624
0.812617
0.743733
-7.0906
-2.10533
-5.44875
-0.823795
-3.29261
-0.174589
-1.31936
0.137416
0.091725
0.254099
1.04187
0.666396
1.548
0.716103
1.64787
1.61562
0.929021
1.64201
1.48244
1.48502
1.41277
1.26237
1.47734
-5.68947
1.02535
0.883513
1.2389
1.13109
1.37827
1.31669
1.4637
1.43327
1.49706
1.49027
1.49326
1.50119
1.45601
1.47768
1.38745
1.42485
1.30452
1.34562
1.27363
1.27848
1.3134
1.28658
1.3555
1.33982
1.39658
1.36873
1.50308
1.44268
1.6214
1.56227
1.72847
1.67573
1.80443
1.77276
1.85016
1.83666
1.84646
1.85248
1.80522
1.82989
1.7329
1.77344
1.63163
1.68165
1.6099
1.6062
1.88794
1.77449
2.03514
1.97505
1.97035
2.04142
1.53059
1.79377
1.08236
1.26809
0.960226
0.988442
1.02058
0.98046
1.12246
1.07123
1.21267
1.16956
1.28653
1.24997
1.33192
1.31114
1.33304
1.33403
1.28916
1.31736
1.1213
1.22594
0.727794
0.955976
0.0928522
0.434374
-0.572157
-0.257557
-0.854604
-0.779599
-0.49241
-0.739162
0.172916
-0.158389
0.728863
0.480877
1.06848
0.92898
1.1802
1.39171
1.42745
1.13095
1.29524
0.505324
0.881428
-0.643523
-0.0160361
-2.08332
-1.34688
-3.34773
-2.77969
-3.77701
-3.7013
-3.06301
-3.55288
-1.64332
-2.38459
-0.126285
-0.853678
0.625764
0.356587
-6.11663
-3.42295
1.64499
1.5231
0.770392
0.530061
0.64864
1.71102
1.73488
-5.32249
-1.81975
-3.78143
-0.844801
-2.0495
-0.425117
-0.492594
-0.222732
0.591927
-0.0112298
1.26552
0.312593
1.53211
0.545693
1.30025
1.30311
1.11439
1.08839
1.46739
0.842044
1.28312
0.355664
1.26146
0.476085
-4.82594
0.930175
0.876012
1.0617
0.987132
1.22691
1.14722
1.35392
1.29943
1.4393
1.40726
1.48488
1.47124
1.49612
1.498
1.47452
1.48964
1.43585
1.45493
1.40827
1.41873
1.40392
1.40392
1.44925
1.42747
1.47978
1.46844
1.50065
1.48648
1.56353
1.52646
1.65312
1.60617
1.74622
1.70016
1.82022
1.78737
1.86011
1.84571
1.85997
1.86551
1.82084
1.84254
1.78332
1.80143
1.72995
1.75851
1.71075
1.61822
1.4686
1.86558
1.7491
2.03093
1.95877
2.03541
2.06374
1.75557
1.92675
1.41866
1.57229
1.24588
1.31026
1.20999
1.21768
1.23765
1.2181
1.29738
1.26505
1.3504
1.32551
1.37446
1.36413
1.36343
1.37155
1.31272
1.34306
1.18343
1.25982
0.908658
1.066
0.477831
0.707687
0.0537637
0.252155
-0.0993721
-0.0636061
0.11873
-0.0259887
0.518074
0.315852
0.872045
0.70875
1.11382
1.00416
1.19508
1.45282
1.38369
1.47326
1.48233
1.27509
1.41454
0.600645
1.01289
-0.612477
0.0511611
-2.20037
-1.37638
-3.66376
-3.00269
-4.2266
-4.0974
-3.49678
-4.0179
-1.88922
-2.74565
-0.250489
-1.00152
0.208659
1.25537
0.608918
1.70019
1.7722
-4.76428
-2.87402
-3.89613
-1.67149
-2.62297
-1.05585
1.58949
-1.18311
-0.791546
0.103181
-0.705584
0.919991
-0.40884
0.904707
0.962637
0.780337
0.690253
1.35614
-0.172563
0.847998
1.4316
0.393272
1.04388
1.25185
0.878221
0.629509
1.22403
1.30605
1.74926
1.8068
1.21259
-3.91846
0.819594
0.705033
0.740515
0.962452
0.901486
1.08719
1.03012
1.21563
1.15214
1.32708
1.27501
1.40655
1.372
1.45252
1.43476
1.47631
1.46911
1.48266
1.48154
1.47795
1.48035
1.47208
1.47303
1.48249
1.47417
1.52395
1.50286
1.55129
1.54142
1.56617
1.55719
1.60969
1.58416
1.67662
1.64104
1.75316
1.71462
1.81893
1.7889
1.85717
1.84141
1.86886
1.86689
1.84986
1.86211
1.81644
1.83427
1.78531
1.79849
1.78438
1.78015
1.82704
1.80034
1.82924
1.87981
1.85542
1.30394
1.1416
1.58847
1.45187
1.82243
1.71223
1.98308
1.91388
2.00787
2.01812
1.83515
1.94309
1.57517
1.70672
1.39937
1.47078
1.34765
1.36345
1.34084
1.34129
1.35292
1.34487
1.37063
1.36169
1.37846
1.37642
1.36496
1.37519
1.31321
1.34319
1.20675
1.26719
1.0082
1.11831
0.72463
0.870984
0.47455
0.585986
0.397842
0.409141
0.515597
0.437252
0.728079
0.614781
0.946606
0.844465
1.1179
1.04738
1.23213
1.18683
1.26971
1.46797
1.40449
1.51209
1.50432
1.32076
1.46684
0.632078
1.04224
-0.577563
0.0921293
-2.21158
-1.34577
-3.7627
-3.0904
-4.35441
-4.21095
-3.63544
-4.15347
-2.01967
-2.88411
-0.482618
-1.17542
0.188712
-0.0431226
0.417025
-3.70548
-2.50185
1.89244
1.92397
1.94633
-2.94873
-1.74615
1.32042
-1.86296
-1.46772
-0.580738
-1.33648
1.64327
0.602314
0.71226
0.570845
0.430622
0.472371
-1.35639
0.4799
1.09578
-0.990283
1.82487
1.76437
0.59201
1.29915
-0.647874
0.76637
1.22077
0.256558
0.991594
0.771263
0.714288
0.764359
0.636419
1.21989
1.16657
0.725202
-3.23048
0.851878
0.803151
0.969272
0.911593
1.08955
1.03208
1.20348
1.148
1.30363
1.25565
1.38162
1.34523
1.43292
1.40988
1.46296
1.45117
1.476
1.4715
1.48383
1.4793
1.50013
1.48982
1.52838
1.51244
1.56209
1.54535
1.58728
1.57692
1.60448
1.59536
1.64068
1.61966
1.69497
1.66637
1.75781
1.72571
1.81505
1.78869
1.85088
1.83543
1.86625
1.8613
1.86294
1.86611
1.84846
1.85719
1.82963
1.83739
1.83573
1.82822
1.8707
1.8504
1.8964
1.01171
0.860276
1.30325
1.16214
1.55451
1.43341
1.76775
1.66669
1.91497
1.85248
1.94689
1.94886
1.83183
1.90583
1.6526
1.74216
1.50549
1.57072
1.42313
1.4579
1.38673
1.39922
1.38646
1.38367
1.39315
1.391
1.38646
1.39241
1.36148
1.37771
1.30624
1.33939
1.20949
1.26471
1.05474
1.13839
0.864313
0.957064
0.718464
0.777343
0.673952
0.677952
0.732117
0.69259
0.849993
0.78832
0.990199
0.924563
1.11167
1.05371
1.19331
1.14926
1.21014
1.30474
1.13666
1.22275
1.42766
1.36817
1.50069
1.47693
1.30626
1.45912
0.634142
1.03208
-0.553715
0.103606
-2.12951
-1.31141
-3.59164
-2.92912
-4.16546
-4.0282
-3.4632
-3.96467
-1.97252
-2.75655
-0.650663
-1.24845
0.152945
-0.175466
0.414441
1.89179
1.96402
-3.05241
-2.39448
1.00361
-2.4066
-2.09734
0.444562
0.591406
0.500703
0.33177
-1.40668
-2.10247
1.43305
0.274126
-0.243759
-2.1895
0.272301
0.588314
-2.21605
1.80463
1.66515
0.339623
1.18755
-1.74499
1.74163
0.456273
1.06515
-0.934026
0.693973
0.943158
0.773336
1.09112
1.89296
1.98401
-2.86711
0.810908
0.799811
0.797385
0.880003
0.84235
0.973767
0.924952
1.08238
1.02857
1.1874
1.1366
1.27946
1.23509
1.35342
1.31785
1.407
1.38142
1.44452
1.42734
1.4706
1.45888
1.49097
1.48123
1.51204
1.50063
1.54203
1.52563
1.5779
1.56004
1.60583
1.59363
1.6263
1.61608
1.65845
1.64039
1.70513
1.68042
1.75908
1.73161
1.80898
1.78552
1.8443
1.82855
1.86343
1.85586
1.86952
1.86763
1.86696
1.86914
1.86443
1.86457
1.87604
1.86795
1.90831
1.88976
1.9628
1.93259
2.02283
1.99317
2.01349
2.10086
2.05705
0.804125
0.690997
1.05359
0.92662
1.30564
1.18072
1.52134
1.41423
1.71114
1.62173
1.83886
1.7853
1.8723
1.8704
1.80372
1.84962
1.6685
1.74185
1.53782
1.59866
1.46327
1.49324
1.42787
1.44251
1.41011
1.41726
1.39875
1.40435
1.38139
1.39157
1.34954
1.36859
1.29377
1.32626
1.20588
1.2563
1.08188
1.14931
0.945714
1.0126
0.850333
0.891266
0.820064
0.828454
0.851171
0.831967
0.921102
0.885386
1.01473
0.962539
1.09927
1.04331
1.14865
1.10676
1.15402
1.14647
1.13302
1.26055
1.20372
1.39221
1.32339
1.43987
1.43704
1.19891
1.36503
0.559346
0.934991
-0.543708
0.0609474
-1.9417
-1.22618
-3.18678
-2.62273
-3.64596
-3.54643
-3.00501
-3.45359
-1.71662
-2.39021
-0.534119
-1.08266
0.269137
-0.073288
0.661346
0.49071
0.785041
0.738694
0.267364
-2.76726
-2.57678
0.805987
1.07228
0.411469
0.225692
-2.20129
-2.78569
2.14323
2.05308
1.16551
0.13397
-1.25788
-3.04766
1.90805
0.07419
-0.20977
-3.51137
1.78827
1.53952
0.0842648
0.448257
-3.39827
1.70753
0.152797
0.924827
-2.50319
1.65169
0.341205
0.739371
-0.848462
0.611037
2.17496
2.23308
2.23345
0.338823
0.310355
-2.83232
0.814574
0.811588
0.816728
0.832186
0.818241
0.896801
0.861685
0.979393
0.936607
1.0757
1.02649
1.17204
1.12422
1.25791
1.2158
1.32926
1.29462
1.38393
1.35749
1.42447
1.40538
1.45563
1.44099
1.48428
1.47022
1.51479
1.49931
1.54834
1.53154
1.58166
1.56527
1.61052
1.59704
1.63574
1.62306
1.66802
1.65082
1.7091
1.68748
1.75633
1.73216
1.80124
1.77923
1.83582
1.81988
1.85854
1.8486
1.87227
1.86624
1.87988
1.87672
1.88774
1.88296
1.90765
1.89571
1.94235
1.92288
1.99903
1.96715
2.07344
2.03576
2.15955
2.11361
2.20393
0.572655
0.478863
0.509321
0.714487
0.642226
0.883909
0.792273
1.08881
0.983798
1.29011
1.19196
1.48981
1.39359
1.65271
1.57769
1.76495
1.71681
1.80209
1.79398
1.75595
1.78854
1.65525
1.70919
1.55736
1.60344
1.48803
1.51936
1.44134
1.4623
1.41436
1.42577
1.39616
1.40505
1.37307
1.38594
1.33766
1.35779
1.28262
1.3136
1.20434
1.24743
1.10381
1.15691
1.00171
1.05108
0.932109
0.962197
0.905643
0.914549
0.917936
0.908177
0.958408
0.936058
1.01243
0.982671
1.06334
1.03717
1.09031
1.08202
1.08871
1.10032
1.04466
1.06824
1.16342
1.12616
1.2774
1.22158
1.27173
1.30092
1.00186
1.17136
0.400496
0.750096
-0.569891
-0.0472122
-1.70944
-1.13774
-2.65037
-2.23321
-2.92021
-2.89292
-2.30171
-2.71334
-1.19202
-1.76405
-0.178894
-0.651677
0.475054
0.20936
0.726436
0.623212
0.8
0.772864
0.807825
0.138584
-2.81493
-3.1159
2.18613
2.1928
2.22496
0.833607
0.7987
2.0911
0.539127
0.00480395
-2.32275
-3.86192
1.94159
-0.105579
-1.39551
-4.53508
1.78929
1.30028
-0.168331
-0.413637
-5.27965
1.67308
-0.151078
0.356875
-4.76631
1.5539
1.60762
-0.0294608
0.573935
-2.79442
0.16885
0.366533
0.520242
0.125219
0.0947865
-3.1259
0.817253
0.814365
0.845129
0.826963
0.905195
0.871844
0.982524
0.941915
1.06923
1.02436
1.15721
1.11261
1.23744
1.19771
1.30628
1.27291
1.36211
1.33527
1.40647
1.38551
1.44256
1.42554
1.47491
1.45937
1.50761
1.49124
1.54379
1.5245
1.57965
1.56205
1.61037
1.59587
1.63742
1.62378
1.6698
1.65271
1.7087
1.68851
1.75145
1.72974
1.79264
1.77226
1.82698
1.81077
1.85276
1.84087
1.87227
1.86307
1.8891
1.88091
1.9056
1.89707
1.93146
1.91667
1.97172
1.94984
2.03066
1.99775
2.11529
2.07108
2.19994
2.15943
2.24748
2.232
2.15723
2.21837
2.29323
2.25462
0.701225
0.637232
0.651569
0.817555
0.759468
0.952814
0.88018
1.11922
1.03402
1.29002
1.20488
1.45789
1.37575
1.6012
1.53403
1.69835
1.65675
1.73157
1.72287
1.70412
1.72412
1.63417
1.67603
1.55217
1.59235
1.48751
1.51685
1.44395
1.4637
1.4142
1.42786
1.38984
1.40215
1.36215
1.37738
1.32453
1.34565
1.27205
1.30102
1.20311
1.23951
1.1204
1.16196
1.04006
1.07782
0.982986
1.00819
0.955316
0.96657
0.95506
0.951949
0.976129
0.962133
1.00627
0.988624
1.03186
1.02175
1.04113
1.04634
1.02954
1.04735
0.972126
1.00968
0.959613
0.902256
1.0368
0.995463
1.12177
1.0903
1.01808
1.10281
0.680492
0.872155
0.126412
0.435944
-0.653671
-0.243039
-1.47327
-1.07574
-2.04291
-1.80825
-2.08028
-2.14007
-1.49767
-1.86079
-0.561654
-1.03835
0.239906
-0.124675
0.689053
0.522605
0.808235
0.76803
0.818135
0.822928
0.809482
2.12758
-0.334697
-0.112011
-3.18692
-4.12908
0.770576
0.675296
1.98886
-0.272521
-2.71204
-5.37267
0.718019
2.29835
2.3676
1.8137
0.455453
0.269553
0.919314
-0.403561
-1.66385
-6.60024
1.6534
-0.462665
-0.635878
-6.9544
1.4107
1.55002
-0.40784
0.146382
-5.44182
1.5155
-0.342526
0.201838
-1.98937
2.10845
2.17271
-0.0678213
2.24017
-0.153323
-0.186959
-3.81018
0.81529
0.797209
0.851591
0.830192
0.90825
0.876676
0.980919
0.942695
1.06166
1.02045
1.14309
1.10205
1.21881
1.1815
1.28579
1.25337
1.3413
1.31473
1.38788
1.36579
1.42771
1.40869
1.46437
1.44658
1.50037
1.48253
1.5364
1.51969
1.5716
1.554
1.60466
1.58852
1.63515
1.61992
1.66757
1.65089
1.70439
1.68542
1.74429
1.72412
1.78329
1.76399
1.81771
1.80117
1.846
1.83257
1.87015
1.85836
1.89397
1.88206
1.91809
1.90586
1.95038
1.93248
1.99594
1.97184
2.05818
2.02395
2.14579
2.09919
2.22782
2.1912
2.27125
2.25259
2.34793
2.29767
0.759308
0.626718
0.877778
0.769036
0.805098
0.81227
0.776797
0.905278
0.857588
1.01106
0.953851
1.14709
1.07692
1.28951
1.2184
1.43099
1.36076
1.55539
1.49731
1.6358
1.60136
1.66824
1.65778
1.65137
1.66573
1.59669
1.62343
1.53388
1.56507
1.48073
1.50579
1.43912
1.45881
1.40666
1.42203
1.37909
1.3931
1.34899
1.36525
1.3112
1.33192
1.26195
1.28853
1.20051
1.23209
1.13071
1.16499
1.0641
1.09525
1.0142
1.03651
0.984828
0.997114
0.974959
0.977519
0.980014
0.975763
0.991697
0.986514
1.00098
1.00054
0.999941
1.00789
0.978796
0.995426
0.911385
0.95136
0.78856
0.849599
0.822684
0.749619
0.781012
0.883882
0.855482
0.858763
0.895257
0.621306
0.764953
0.236995
0.440772
-0.248859
0.00839464
-0.801383
-0.524202
-1.27178
-1.05814
-1.47318
-1.41767
-1.26044
-1.42263
-0.668314
-0.999972
0.0602352
-0.297909
0.607005
0.368848
0.856452
0.775372
0.877019
0.883962
0.833597
0.862121
0.773261
0.804518
0.741165
2.04476
-0.420901
-3.86327
-5.57838
0.744615
2.41558
0.727255
1.86376
2.08574
2.01306
0.633885
0.461892
0.251684
-0.626283
-3.15354
-7.25988
1.66564
-0.762998
-1.86396
-8.38623
1.2312
2.16255
1.50441
-0.810589
-0.788593
-7.41838
1.44797
-0.823905
-0.195412
-4.75637
1.45173
-0.592139
-0.26824
2.39456
-0.509906
0.00557562
-0.326394
2.33097
-0.527459
-4.90501
0.803007
0.77528
0.851031
0.826919
0.907651
0.877321
0.976857
0.940637
1.05304
1.0142
1.12971
1.09119
1.20179
1.16617
1.26586
1.23501
1.32256
1.29558
1.37055
1.34766
1.41258
1.39239
1.45121
1.4324
1.48894
1.47032
1.52639
1.50726
1.56259
1.54478
1.59615
1.57969
1.62834
1.61215
1.66195
1.64488
1.69797
1.67966
1.7357
1.71668
1.77279
1.75432
1.80749
1.79055
1.83807
1.82327
1.86649
1.8523
1.89569
1.88108
1.92589
1.9104
1.96484
1.94381
2.01531
1.98882
2.08105
2.0456
2.16753
2.12246
2.24608
2.21076
2.30032
2.27303
2.38963
2.3386
2.49291
2.52431
2.45227
2.45431
0.883138
0.770982
0.978218
1.06257
0.979623
0.884811
0.917141
0.907703
0.884163
0.977444
0.941329
1.06047
1.01553
1.17153
1.11381
1.28914
1.23033
1.4076
1.34855
1.51193
1.46311
1.58136
1.55119
1.61122
1.60122
1.60055
1.61051
1.56087
1.58221
1.51236
1.53701
1.46593
1.48846
1.42703
1.44565
1.39502
1.41053
1.36626
1.38104
1.33498
1.3516
1.29807
1.31769
1.25169
1.27613
1.19611
1.22409
1.13548
1.16529
1.07815
1.10565
1.03279
1.05396
1.00153
1.01512
0.983847
0.990539
0.977298
0.979277
0.976481
0.977854
0.974084
0.978322
0.961663
0.972253
0.928136
0.948648
0.86037
0.898893
0.751377
0.809135
0.691942
0.67679
0.616864
0.650654
0.709486
0.69411
0.694477
0.714381
0.5256
0.639598
0.147528
0.357055
-0.332857
-0.091053
-0.74999
-0.554965
-1.03218
-0.910384
-1.11666
-1.10291
-0.952856
-1.0684
-0.539354
-0.773643
0.0293947
-0.264558
0.574059
0.31815
0.896296
0.769732
0.980781
0.964807
0.927611
0.966888
0.845083
0.894987
0.749966
0.794593
0.698802
0.720023
1.93375
0.256089
-0.745087
-0.368477
-0.0177291
-0.991455
-0.943735
-0.826161
-4.60728
-7.13133
1.71181
-1.06768
-3.29431
-8.78964
2.57849
2.60222
0.852953
2.26207
2.49748
2.44356
1.06519
1.13494
0.532136
0.590136
0.520664
0.678115
0.683751
0.654407
1.48957
-1.23228
-1.89657
-8.65061
1.87883
1.96092
1.3591
-1.30919
-0.989072
-5.94937
1.41584
1.39987
-1.29528
-0.821062
-1.18508
-0.732406
-2.23488
-0.965028
-0.954087
-6.06933
0.728124
0.701828
0.786833
0.756961
0.843843
0.815818
0.903407
0.87252
0.97087
0.935999
1.04365
1.0068
1.11679
1.08028
1.18608
1.15187
1.24901
1.21835
1.30521
1.27808
1.35432
1.33069
1.39811
1.37692
1.43842
1.41877
1.47705
1.45798
1.51497
1.49617
1.55189
1.53365
1.58676
1.56963
1.61987
1.60336
1.6536
1.63653
1.68907
1.67108
1.72559
1.7073
1.762
1.74397
1.7967
1.77956
1.82944
1.8133
1.86174
1.84544
1.89534
1.87853
1.93072
1.91239
1.97566
1.95182
2.03021
2.00175
2.0996
2.06252
2.18543
2.14146
2.26281
2.22683
2.33227
2.29608
2.42482
2.37477
2.54988
2.48318
2.54459
0.826051
0.538167
0.687258
1.02533
0.935923
1.16153
1.09772
0.982684
1.01263
0.990376
0.97708
1.03738
1.01177
1.10244
1.06688
1.19193
1.14502
1.28902
1.24045
1.38595
1.33764
1.47396
1.43228
1.53337
1.50779
1.55889
1.54993
1.55429
1.5601
1.52517
1.54187
1.48552
1.5059
1.4464
1.46555
1.41156
1.42853
1.38082
1.39595
1.35179
1.36667
1.32032
1.33679
1.28432
1.30296
1.24075
1.264
1.19039
1.21559
1.13679
1.16341
1.08563
1.11067
1.0424
1.06304
1.00938
1.02436
0.986357
0.996354
0.971375
0.978175
0.960519
0.966648
0.947704
0.955991
0.925048
0.938798
0.884149
0.906664
0.816299
0.853256
0.715571
0.771295
0.655339
0.584917
0.553693
0.602634
0.606605
0.471145
0.562036
0.105637
0.325493
-0.475405
-0.171281
-1.04982
-0.781437
-1.35972
-1.24397
-1.34791
-1.39322
-1.03903
-1.22608
-0.529385
-0.803447
0.0798616
-0.229532
0.644437
0.377848
1.01004
0.855945
1.14045
1.10421
1.09758
1.13241
0.977888
1.04741
0.860189
0.927824
0.743812
0.795115
0.711117
1.79091
0.336331
-1.51314
-1.35907
-4.90251
-8.15144
2.62207
0.36302
2.38365
1.21733
0.567982
0.506388
0.65384
0.623814
1.51859
-1.6402
-3.09492
-8.8486
2.05065
1.28504
-1.81069
-1.9571
-7.02069
1.70094
1.79559
1.3226
1.24425
-2.02631
-1.42304
-1.80436
-1.43943
-3.27803
1.41351
-1.81117
-1.46635
0.0785492
-0.21067
-1.51966
-6.66175
0.71313
0.683791
0.772224
0.742468
0.833222
0.802453
0.895977
0.864064
0.963095
0.928925
1.03364
0.998145
1.10422
1.06912
1.17149
1.1383
1.23334
1.20307
1.28914
1.26201
1.33893
1.31478
1.38389
1.362
1.42552
1.40513
1.46509
1.44559
1.50338
1.48432
1.5405
1.52216
1.57596
1.55845
1.61004
1.5931
1.64406
1.62696
1.67871
1.66128
1.71421
1.69634
1.75025
1.73224
1.78539
1.76796
1.81977
1.80256
1.85554
1.83736
1.89297
1.87418
1.93353
1.91241
1.9837
1.95741
2.04215
2.01185
2.11433
2.07611
2.19925
2.15618
2.2796
2.24065
2.35961
2.31834
2.45409
2.40463
2.57303
2.51054
2.69755
2.71138
2.64109
2.66443
2.68162
2.60122
2.63807
0.101318
2.51841
2.56188
1.02232
0.82356
0.927107
1.16622
1.10068
1.26566
1.21928
1.26994
1.34955
1.30926
1.14036
1.19923
1.0661
1.09529
1.05937
1.05529
1.08832
1.07146
1.13764
1.11019
1.20874
1.17112
1.28819
1.2483
1.36755
1.3279
1.44021
1.40558
1.48986
1.46843
1.51247
1.50417
1.5112
1.51475
1.48909
1.50217
1.4574
1.47369
1.42486
1.44108
1.39362
1.40907
1.36453
1.379
1.33615
1.35062
1.30527
1.32124
1.26969
1.28804
1.22898
1.24832
1.18346
1.20663
1.13498
1.15933
1.08815
1.11126
1.04676
1.06661
1.01231
1.02839
0.984609
0.997565
0.962731
0.973375
0.943781
0.953667
0.922434
0.934209
0.892138
0.908993
0.844909
0.87118
0.77762
0.814318
0.680511
0.733646
0.624879
0.456763
0.437801
0.451213
0.478761
0.462989
0.463419
0.49042
0.200642
0.371268
-0.376256
-0.048385
-1.15513
-0.757299
-1.84705
-1.5357
-2.06553
-2.02907
-1.73044
-1.95901
-1.02278
-1.40772
-0.193697
-0.609102
0.553879
0.20023
1.08882
0.850611
1.34982
1.25657
1.34739
1.37586
1.21089
1.28481
1.03526
1.13175
0.88419
0.9627
0.75461
0.813249
0.670416
0.70975
0.593967
0.630358
1.5962
0.694717
-2.30961
-2.00011
-4.51379
-7.85692
2.16425
1.27112
-2.28395
-2.84983
-7.33903
1.88967
2.77296
2.78215
1.31782
1.38785
1.36827
0.366449
0.424268
0.360037
0.562195
0.564283
0.527519
1.05964
-0.641123
-2.44781
-2.41861
-4.70805
1.44648
1.55263
1.16704
1.49313
-2.71457
-2.06715
-0.881628
-3.06028
-2.24373
-2.46883
2.46485
2.66088
2.63266
0.538668
0.360475
-2.26215
-6.20892
2.30379
0.629758
0.59617
0.695717
0.663051
0.757841
0.726936
0.821058
0.789258
0.886496
0.85343
0.954182
0.920046
1.02334
0.988687
1.09198
1.05791
1.15767
1.12527
1.21872
1.18881
1.27432
1.24719
1.32458
1.30008
1.37034
1.34798
1.41276
1.39192
1.45306
1.43317
1.49174
1.47255
1.52908
1.51061
1.56468
1.54711
1.599
1.58194
1.63314
1.61602
1.66746
1.6503
1.70202
1.68463
1.73752
1.71967
1.77322
1.75538
1.80922
1.79105
1.84777
1.82811
1.88867
1.86799
1.93413
1.91043
1.98882
1.96039
2.05175
2.0192
2.12626
2.08735
2.21047
2.16787
2.29485
2.25274
2.38253
2.33789
2.48062
2.42981
2.59568
2.53584
2.72468
2.65903
2.75131
2.76149
2.70902
2.73096
2.68651
1.10637
0.967687
1.04253
1.21482
1.16272
1.30396
1.26189
1.37283
1.33955
1.43334
1.40397
1.20555
1.25636
1.13706
1.16542
1.11787
1.12178
1.13182
1.12209
1.16734
1.14695
1.22258
1.19307
1.28672
1.25429
1.35083
1.31895
1.40952
1.38141
1.45117
1.43301
1.47073
1.46349
1.47102
1.47313
1.45459
1.4645
1.42921
1.44242
1.40172
1.41555
1.37405
1.38791
1.34701
1.36054
1.3199
1.33371
1.29015
1.30544
1.25613
1.27357
1.21781
1.23696
1.17563
1.19716
1.13121
1.15362
1.08766
1.10923
1.04733
1.0669
1.01127
1.02852
0.979955
0.995051
0.952886
0.966269
0.927457
0.94042
0.898934
0.913925
0.862006
0.881931
0.810999
0.83863
0.740965
0.778957
0.650429
0.699303
0.546496
0.59932
0.488278
0.382384
0.37787
0.35918
0.374468
0.271554
0.334964
-0.0967083
0.138933
-0.867877
-0.435587
-1.8941
-1.36898
-2.73364
-2.37627
-2.82481
-2.88893
-2.14404
-2.56031
-1.05972
-1.62698
0.0525484
-0.487894
0.944078
0.536208
1.4651
1.25554
1.61613
1.58048
1.52261
1.59207
1.31789
1.42422
1.0919
1.20844
0.90859
0.997147
0.766946
0.833248
0.654877
0.708519
0.605666
1.33223
0.895815
-3.4653
-2.82093
-3.88048
-6.56986
2.01792
2.60344
2.39351
2.79104
1.4611
1.76732
0.411352
0.353419
0.532748
0.495011
0.947329
0.125589
-3.1754
-3.26266
-5.65666
1.65316
0.814045
1.8851
-3.6314
-3.14952
-2.96975
-1.25861
1.21435
-3.7108
-2.92797
2.57961
1.17153
1.37056
1.3928
1.04682
2.81061
2.83244
-3.32533
-5.20851
2.18995
0.60683
0.570748
0.676047
0.641873
0.742796
0.709755
0.808565
0.775513
0.875788
0.841942
0.944208
0.909863
1.01281
0.978567
1.0802
1.0468
1.14468
1.1129
1.20501
1.17541
1.26049
1.23335
1.31115
1.28638
1.35754
1.33483
1.40061
1.37943
1.4413
1.42121
1.48018
1.46092
1.51757
1.49906
1.55323
1.53562
1.5875
1.57047
1.62127
1.6044
1.65495
1.63812
1.68903
1.67187
1.72409
1.70645
1.75999
1.7419
1.79762
1.77846
1.83864
1.8177
1.88272
1.86025
1.9327
1.90668
1.99121