/*--------------------------------*- C++ -*----------------------------------*\
  =========                 |
  \\      /  F ield         | OpenFOAM: The Open Source CFD Toolbox
   \\    /   O peration     | Website:  https://openfoam.org
    \\  /    A nd           | Version:  10
     \\/     M anipulation  |
\*---------------------------------------------------------------------------*/
FoamFile
{
    format      ascii;
    class       surfaceScalarField;
    location    "26.5";
    object      phi;
}
// * * * * * * * * * * * * * * * * * * * * * * * * * * * * * * * * * * * * * //

dimensions      [0 3 -1 0 0 0 0];

internalField   nonuniform List<scalar> 
12623
(
0.39328
0.0985094
-0.155418
-0.336371
0.304592
-0.150654
0.239341
0.377343
0.0761626
-0.356716
-0.0967895
0.0745894
0.357143
-0.0543898
-0.343176
-0.0692599
0.0952622
0.317174
-0.356227
0.08764
-0.0507293
0.207041
-0.226298
0.0699861
-0.289289
0.238559
0.339126
-0.00302136
-0.336104
0.132952
0.00313081
0.203043
0.349365
-0.165615
-0.18375
-0.242427
0.189775
0.402017
-0.206438
-0.148883
0.151184
0.204137
0.0193349
0.0336236
-0.259397
-0.196099
0.0665517
2.80731e-06
0.0176174
-0.0709269
0.0533066
0.0715529
-0.0790299
0.00747982
-0.0298748
0.119045
0.0164802
-0.0415568
-0.0255299
0.0506065
-0.113821
0.056903
0.0733981
-0.128144
-0.0272338
-0.0155843
0.0958268
-0.0201698
-0.0600727
0.0123831
-0.0430889
0.0151215
-0.167326
0.275536
-0.274466
0.0249082
0.283182
0.040113
-0.305772
-0.00880713
-0.3119
0.0229405
0.313867
-0.180035
-0.00965577
-0.00145362
0.191145
-0.173392
-0.0413427
0.0346994
-0.205106
0.214079
0.0499374
-0.0589104
-0.187327
-0.0274346
-0.356148
-0.0195176
0.0493768
0.326289
0.0484147
-0.362339
-0.0422237
0.336298
-0.343964
0.000259423
0.016167
0.327538
0.00993944
-0.348394
-0.00550942
-0.362419
0.0359667
0.336392
-0.357002
-0.0249349
0.333913
-0.0276682
-0.359206
0.052961
-0.00945392
0.054036
0.289331
-0.34073
-0.0102263
0.323288
-0.346167
0.00569702
-0.0925798
0.0811122
0.225547
-0.33077
-0.103517
0.117861
0.316426
0.107897
-0.332343
-0.106324
0.0899342
-0.369998
-0.337716
0.112446
0.31291
-0.351298
-0.026183
-0.274267
0.00974313
0.290707
0.218292
0.0422178
-0.286693
-0.219945
0.0607804
0.377457
-0.0992754
0.353234
-0.287616
0.0336577
-0.277003
0.290005
0.0553284
-0.05514
-0.290194
0.0461346
0.270021
-0.0261506
-0.0287565
0.0177287
0.314061
-0.303033
-0.325155
0.322309
-0.0259102
0.308598
-0.0517395
0.0595327
-0.316392
0.199946
-0.206849
-0.212449
0.219351
-0.203683
0.196991
0.206639
-0.205455
-0.21504
0.213646
-0.207776
-0.204607
0.206929
-0.203066
-0.188269
0.183559
-0.205074
-0.154641
0.156648
-0.20604
-0.1025
0.103467
-0.215101
-0.0324437
0.0415041
-0.228565
0.0441555
-0.030691
0.117817
-0.244
-0.102382
0.198698
-0.211752
-0.190629
-0.181439
0.184021
0.194409
0.191418
-0.174159
-0.220057
-0.204144
-0.229351
-0.205746
-0.226842
-0.207116
-0.229097
-0.186014
-0.229238
-0.154499
-0.236195
-0.0955431
-0.245468
-0.0231706
-0.2573
0.0559872
-0.274446
0.134963
0.154896
0.182743
-0.146221
0.177138
0.161779
0.174641
-0.262505
-0.156135
-0.285122
0.185316
0.121491
0.178234
-0.116983
0.170061
0.128568
0.207608
-0.272424
-0.197689
-0.296871
0.219358
0.0827694
0.177465
-0.0820004
0.0794387
0.219906
-0.284256
-0.208075
-0.294524
0.217558
0.183419
-0.047296
-0.0111044
0.193069
0.212954
-0.217108
-0.280102
0.21719
-0.29876
0.186213
-0.189868
-0.0783457
-0.178285
0.186621
-0.0194409
-0.039368
0.199603
-0.209801
-0.136023
-0.107247
0.222647
-0.235785
-0.177491
-0.161313
0.248464
-0.254034
-0.200175
-0.191466
0.262524
-0.263298
-0.185241
-0.198626
0.271508
-0.275707
-0.0913443
-0.14629
0.286686
-0.293964
0.0632651
-0.0121914
0.29893
-0.309821
0.196207
0.139929
0.309813
-0.306681
0.214426
0.21935
-0.299891
0.210399
-0.262631
0.239397
-0.174454
0.265715
-0.211702
-0.271121
-0.204991
-0.226064
0.208081
-0.0843993
-0.142803
-0.201231
0.195256
0.0474795
-0.0238409
-0.193346
0.200972
0.149022
0.105376
-0.199049
0.206531
0.199446
0.185483
-0.201369
0.204609
0.216112
0.218808
-0.196914
0.192531
0.198792
0.214333
-0.180186
0.179052
0.129702
0.174124
-0.178217
0.0255884
0.0802745
-0.0374101
0.0260286
0.204451
0.203672
0.028666
0.183984
-0.20467
-0.29131
0.196089
-0.217734
-0.285696
-0.273305
0.25893
-0.197327
-0.212438
0.219198
-0.277881
-0.286786
-0.198956
0.179784
-0.196107
-0.274986
-0.300704
0.31344
0.183352
0.165743
-0.286663
0.233607
-0.215101
-0.0774164
0.192023
-0.201458
-0.0100058
0.200104
0.020585
0.240816
-0.0997886
-0.278638
0.201234
-0.209477
-0.0701026
-0.0395927
0.220953
-0.231581
-0.125395
-0.0957712
0.248385
-0.26073
-0.165145
-0.144509
0.274947
-0.285709
-0.189413
-0.177249
0.294243
-0.302731
-0.176753
-0.190093
0.309894
-0.318436
-0.0828022
-0.139126
0.323543
-0.330381
0.0701037
-0.00708471
0.332129
-0.328178
0.192255
0.141677
0.321232
-0.320909
0.214103
0.212405
0.20293
-0.241198
0.227976
-0.161233
-0.187258
-0.211729
0.202786
-0.0754565
-0.126556
-0.195484
0.197078
0.0458853
-0.0165391
-0.206092
0.20754
0.147573
0.0963632
-0.221925
0.217041
0.20433
0.171098
-0.229152
0.219768
0.225495
0.206697
-0.221458
0.206611
0.213639
0.212643
-0.200649
0.193667
0.136684
0.180085
-0.193129
0.204265
0.0144526
0.0808125
-0.0382707
-0.0713045
0.0843769
0.191378
0.21348
-0.0709649
0.204533
0.0665364
0.197396
0.218068
-0.210825
-0.29403
0.218284
-0.278097
-0.212421
-0.269382
-0.310958
0.318912
0.175398
-0.293216
0.148001
-0.168732
0.149807
-0.267739
-0.185993
-0.257724
-0.301289
0.290211
-0.199747
-0.224347
0.220284
-0.289966
-0.312017
-0.213619
-0.104264
0.112739
0.217073
0.243678
-0.107126
0.0817189
-0.0932846
0.216099
0.215978
-0.206702
0.0572601
0.229093
0.0686038
-0.258808
-0.106021
0.26504
-0.235499
-0.100725
-0.272775
0.206562
-0.208733
-0.00783491
0.0204452
0.214812
-0.226489
-0.0584263
-0.033513
0.233674
-0.247539
-0.11153
-0.0885856
0.263145
-0.277428
-0.150863
-0.128903
0.294789
-0.306492
-0.177711
-0.159887
0.323353
-0.334362
-0.165744
-0.173231
0.348287
-0.358736
-0.0723526
-0.125201
0.366246
-0.372243
0.0761012
0.000424374
0.365746
-0.357818
0.184327
0.135181
0.342561
-0.334523
0.206065
0.197148
0.187319
-0.278259
0.258644
-0.177712
-0.187004
-0.23959
0.225113
-0.146756
-0.168204
-0.209103
0.2018
-0.0681532
-0.110546
-0.1989
0.202534
0.0422518
-0.0136394
-0.210195
0.220106
0.137662
0.0887022
-0.229122
0.236556
0.196896
0.162083
-0.240975
0.241305
0.225165
0.202278
-0.239061
0.233675
0.219025
0.214887
-0.231801
0.220672
0.147814
0.181959
-0.220373
0.221544
0.0132816
0.081111
-0.0522251
-0.11257
0.104547
0.199402
0.213648
0.208658
-0.278456
0.135048
0.216754
-0.274567
-0.202633
-0.252742
0.230848
-0.228383
-0.314481
0.2271
-0.286219
-0.157173
0.134992
-0.245558
-0.177648
-0.23725
0.107438
-0.118681
0.227341
0.0908145
0.245717
-0.130804
0.144891
0.202986
-0.12269
0.235564
0.262208
-0.262102
-0.100831
-0.12796
0.284146
0.23249
-0.22089
0.0456596
0.243756
0.0573374
-0.262645
0.119181
-0.122034
0.0978858
-0.238497
-0.143403
-0.224189
0.268986
-0.111072
-0.258655
0.220538
-0.227837
-0.000535254
0.0200934
0.234277
-0.238799
-0.0539038
-0.0270737
0.250275
-0.261793
-0.100011
-0.0771104
0.276872
-0.293581
-0.134153
-0.113824
0.310633
-0.329413
-0.15893
-0.142836
0.348179
-0.366664
-0.147259
-0.154466
0.382282
-0.394527
-0.0601073
-0.109583
0.402557
-0.403573
0.0771168
0.00845445
0.397735
-0.385363
0.171955
0.129343
0.369148
-0.350023
0.18694
0.180933
0.335056
-0.312865
0.153208
0.172352
0.300105
-0.28548
0.120423
0.13524
0.264605
-0.245769
0.0790503
0.0983058
-0.308842
0.293319
-0.184224
0.320845
-0.336567
-0.212662
-0.201616
-0.278791
0.262866
-0.161786
-0.172477
-0.241821
0.228793
-0.133727
-0.147159
-0.215936
0.209273
-0.0614903
-0.0976888
-0.207755
0.212327
0.0376804
-0.0121219
-0.220448
0.23135
0.12676
0.0805811
-0.241689
0.251663
0.186922
0.151744
-0.258546
0.26341
0.220302
0.195394
-0.265483
0.266231
0.218278
0.212814
-0.263192
0.265054
0.145952
0.184998
-0.260036
0.258648
0.0146693
0.086129
-0.0556787
-0.147915
0.134464
0.212852
0.210623
0.224442
-0.232892
0.231999
-0.313588
-0.350486
-0.218973
0.075253
-0.0948068
-0.218943
-0.224961
0.0544446
0.214653
-0.262119
-0.198744
-0.231646
0.0830762
0.251495
-0.110363
0.256659
0.308098
-0.301926
-0.107003
0.312236
-0.132098
0.223884
-0.278104
-0.166812
-0.213841
0.211219
-0.204669
-0.357036
0.209354
-0.311723
-0.116975
-0.202021
0.0332071
-0.0553016
-0.196849
0.0223082
-0.214062
0.299956
-0.126882
-0.242746
0.253977
-0.246103
0.0377851
-0.255115
0.267383
0.0708086
0.0561994
0.247496
-0.24669
-0.00134136
0.0214864
0.248195
-0.252856
-0.049243
-0.0255681
0.262593
-0.274542
-0.0880627
-0.0673732
0.288931
-0.305471
-0.117613
-0.0994354
0.323844
-0.345238
-0.137536
-0.124463
0.367287
-0.389656
-0.12489
-0.132417
0.407772
-0.421708
-0.0461711
-0.0914672
0.428732
-0.429193
0.077578
0.0154779
0.421625
-0.406781
0.157111
0.121775
0.387623
-0.364996
0.164313
0.161775
0.339013
-0.321528
0.135723
0.146369
0.299053
-0.279457
0.100827
0.112766
0.262651
-0.248663
0.0650618
0.0815003
0.23659
-0.2283
0.0140189
0.0423715
-0.361097
0.341684
-0.193249
0.38169
-0.398508
-0.187851
-0.19838
-0.320245
0.303195
-0.167174
-0.180177
-0.281768
0.266884
-0.146903
-0.15105
-0.248974
0.235206
-0.119959
-0.129249
-0.225599
0.220404
-0.0562954
-0.0880819
-0.220444
0.225741
0.0323833
-0.0121622
-0.234554
0.2463
0.115015
0.071768
-0.258234
0.270277
0.174879
0.13981
-0.280374
0.289605
0.211071
0.185297
-0.296823
0.303178
0.211922
0.205596
-0.309281
0.307068
0.148165
0.178895
-0.307545
0.304909
0.017305
0.0856524
-0.0526956
-0.157372
0.159472
-0.359136
-0.407579
-0.148302
-0.0151656
0.00870787
-0.207604
-0.224358
-0.0191084
0.29749
-0.146989
-0.147398
0.156603
0.247454
0.267953
-0.179235
0.169144
0.213077
0.212931
-0.166512
0.158434
0.22093
0.213256
-0.146934
0.132612
0.241663
0.235942
-0.118198
0.10485
0.264843
0.260132
0.0924953
0.279737
0.206883
-0.245119
-0.187291
-0.211166
0.194881
-0.263632
-0.138308
-0.192508
0.149911
-0.302162
-0.0712401
-0.186082
0.0660351
-0.0647744
-0.408839
0.0620169
-0.355118
-0.000796656
-0.187344
0.0536737
-0.051186
-0.226845
0.0569331
-0.210864
0.277232
-0.270132
0.063708
0.292317
0.0774103
-0.223153
0.263506
-0.26016
0.034439
0.0495738
0.259522
-0.257435
-0.00342895
0.0208487
0.260975
-0.26497
-0.0452476
-0.0220281
0.274482
-0.285108
-0.0774362
-0.0578613
0.299135
-0.315231
-0.101517
-0.0854089
0.33449
-0.357189
-0.114837
-0.105204
0.38089
-0.404479
-0.101302
-0.108715
0.423045
-0.436328
-0.0328878
-0.0729009
0.44074
-0.438302
0.0751398
0.0198894
0.428536
-0.412709
0.141284
0.112009
0.392125
-0.369026
0.141214
0.141191
0.345823
-0.322642
0.112542
0.123166
0.302149
-0.282655
0.0813331
0.092272
0.266152
-0.253728
0.052638
0.0649968
0.243596
-0.239332
0.00975451
0.0322396
0.239515
-0.247421
-0.0432804
-0.0189249
-0.428674
0.406744
-0.165921
0.445324
-0.450987
-0.0591118
-0.131651
-0.378621
0.351296
-0.165924
-0.170257
-0.324139
0.306365
-0.1494
-0.153019
-0.286935
0.270108
-0.130075
-0.13162
-0.255183
0.242444
-0.107221
-0.114324
-0.234907
0.232017
-0.0534052
-0.0805451
-0.233859
0.240222
0.0260205
-0.0140042
-0.249763
0.262496
0.102281
0.0622272
-0.276047
0.290745
0.160181
0.126259
-0.304317
0.317905
0.197483
0.171726
-0.330086
0.341603
0.200405
0.193416
-0.350351
0.356259
0.142257
0.170146
-0.358563
0.352452
0.0234159
0.0833478
-0.345089
0.338184
-0.100098
-0.0453322
-0.340528
0.337987
-0.144448
-0.134442
-0.119635
-0.162549
0.184812
0.225192
0.132026
0.296846
0.23743
-0.185273
0.184135
0.214215
0.212471
-0.181754
0.171844
0.23084
0.215638
-0.165087
0.145672
0.261077
0.2427
-0.134063
0.115435
0.28347
0.271741
0.0499153
-0.0564568
-0.402298
-0.445126
0.0440541
-0.0745058
0.0867361
-0.239076
-0.259776
-0.0621502
-0.105197
0.0947529
0.302761
0.289976
0.178341
-0.228579
-0.158242
-0.191232
0.137828
-0.251549
-0.0890012
-0.174747
0.0557075
-0.295853
-0.0114988
-0.17538
-0.0611478
-0.350427
0.0576587
-0.18807
-0.159125
0.148053
-0.434054
-0.172215
-0.389208
0.0996291
-0.223757
0.0917524
-0.270404
-0.081125
0.111822
-0.259146
-0.438806
0.461337
0.125521
0.217769
-0.235916
-0.415906
-0.414398
0.19336
-0.0954681
0.106788
-0.281724
-0.256665
0.247763
-0.0722233
-0.269289
-0.0828437
0.316651
-0.303966
0.0820678
0.0917178
-0.114613
0.325656
0.323812
0.0845572
-0.203054
0.289059
-0.287038
0.0616873
0.062503
0.280239
-0.276138
0.0303385
0.0427745
0.271868
-0.268518
-0.0067785
0.0165782
0.27165
-0.275739
-0.0411583
-0.0188968
0.284949
-0.295314
-0.0670713
-0.048651
0.309188
-0.32527
-0.0854359
-0.0715351
0.344274
-0.366165
-0.0929456
-0.0861997
0.38837
-0.41033
-0.0793421
-0.0865101
0.427947
-0.440186
-0.0206489
-0.0552836
0.443125
-0.43767
0.0696857
0.0228279
0.425013
-0.407254
0.123526
0.0993513
0.38685
-0.364775
0.11914
0.120787
0.34243
-0.320785
0.090897
0.100821
0.301054
-0.28282
0.063099
0.072541
0.266734
-0.252413
0.0383168
0.0489104
0.241914
-0.236173
0.00401407
0.0217406
0.237054
-0.243804
-0.0365306
-0.0180442
-0.0581909
-0.471953
0.468061
-0.0552196
0.0334382
-0.444899
0.418339
-0.139361
-0.10849
-0.385781
0.361069
-0.141213
-0.137698
-0.3362
0.315519
-0.128718
-0.12815
-0.298203
0.280717
-0.11259
-0.114304
-0.26531
0.252083
-0.0939935
-0.0989168
-0.244094
0.241921
-0.0512322
-0.0725558
-0.245373
0.25346
0.0179337
-0.0174564
-0.264314
0.278323
0.0882725
0.0513726
-0.293216
0.309957
0.143441
0.111365
-0.326295
0.343613
0.180165
0.155388
-0.360007
0.376229
0.184183
0.177022
-0.388855
0.39797
0.133143
0.15752
-0.401341
0.398968
0.0257893
0.0799762
-0.388413
0.376863
-0.0885479
-0.0347775
-0.362357
0.352878
-0.134969
-0.119936
-0.136756
-0.12455
0.166992
0.254404
0.283622
-0.175643
0.18118
0.219655
0.228778
-0.184908
0.186757
0.212365
0.208743
-0.186618
0.184431
0.233027
0.215777
-0.17955
0.17294
0.267687
0.247581
-0.159421
0.137625
0.305267
0.28526
0.312988
0.121674
-0.212424
-0.104828
-0.175406
0.0473347
-0.243176
-0.0195319
-0.166714
-0.0625447
-0.294456
0.0589039
-0.176625
-0.177069
-0.345573
0.113229
-0.201669
-0.250844
-0.37428
0.133581
-0.245516
-0.23654
0.211225
-0.389082
-0.264576
-0.387871
0.124971
-0.277328
0.106966
-0.290337
-0.0859183
0.117252
-0.29201
-0.36342
0.396515
0.17813
0.194952
-0.229078
-0.354955
-0.328351
0.159882
-0.0896593
0.110622
-0.311299
-0.320091
0.310262
-0.0760893
-0.329383
-0.0803666
0.0896365
-0.113052
0.349071
0.0687959
0.344653
0.322876
-0.312061
0.0712529
0.335333
0.0721008
-0.186209
0.304453
-0.295091
0.0523256
0.0548942
0.291019
-0.283392
0.0227112
0.0387028
0.280332
-0.277724
-0.00938739
0.0135188
0.28123
-0.286656
-0.0357327
-0.0153902
0.295518
-0.307004
-0.0555851
-0.039789
0.319777
-0.335438
-0.0697751
-0.0587616
0.35174
-0.37043
-0.0742559
-0.0698981
0.38863
-0.407469
-0.0605027
-0.0683097
0.423177
-0.43378
-0.0100458
-0.0395763
0.435928
-0.429506
0.0632636
0.0249759
0.416763
-0.398187
0.104949
0.086609
0.37784
-0.355506
0.0968049
0.10044
0.333843
-0.312696
0.0697503
0.0791585
0.29464
-0.278945
0.0474039
0.0544848
0.267212
-0.258924
0.0300297
0.037177
0.256026
-0.256321
0.00430902
0.018842
0.261564
-0.266718
-0.0313774
-0.0128004
0.278842
-0.293063
-0.0580021
-0.0460663
-0.0656455
-0.435435
0.462318
0.0986372
0.154441
-0.475508
0.467888
-0.0475999
0.0202487
-0.445111
0.416579
-0.110829
-0.0857122
-0.390349
0.366387
-0.117251
-0.111468
-0.34628
0.327652
-0.11009
-0.108043
-0.311685
0.294836
-0.0957405
-0.0983369
-0.27876
0.263869
-0.0791027
-0.0828415
-0.254534
0.251357
-0.0480557
-0.0632203
-0.254491
0.263259
0.00916608
-0.0205903
-0.275284
0.290739
0.0728179
0.0393475
-0.307227
0.325921
0.124746
0.094877
-0.344469
0.36497
0.159664
0.13684
-0.384016
0.403474
0.164725
0.157976
-0.418799
0.43103
0.120912
0.142195
-0.435719
0.433723
0.0277856
0.0752865
-0.42447
0.408366
-0.0724435
-0.0255248
-0.39154
0.374157
-0.117586
-0.10311
-0.119315
-0.074145
0.107119
0.2842
0.31153
-0.135831
0.153758
0.236476
0.25491
-0.163645
0.171201
0.212099
0.218891
-0.176594
0.180367
0.208593
0.20335
-0.182454
0.182397
0.233085
0.213689
-0.17934
0.169322
0.277705
0.250637
-0.15254
0.134103
0.323704
0.302042
0.334039
0.0369917
-0.202081
-0.0278662
-0.167071
-0.0631763
-0.242544
0.0601064
-0.167917
-0.17624
-0.295284
0.125101
-0.188498
-0.258169
-0.338247
0.154204
-0.222292
-0.282216
-0.35664
0.150699
-0.271245
-0.256865
-0.360083
0.132959
-0.293036
-0.163874
0.129756
-0.294233
-0.200984
-0.317845
0.130282
-0.31167
0.0939456
-0.0851569
-0.338172
0.111635
-0.328988
0.118209
0.285919
-0.177083
0.323164
-0.314608
0.0626967
-0.302946
0.192498
0.228658
0.092319
0.314524
-0.300586
0.0383874
0.0548104
0.296369
-0.289346
0.015688
0.0344853
0.286362
-0.287014
-0.00873487
0.0105348
0.289823
-0.297316
-0.0282399
-0.0125815
0.304857
-0.315978
-0.0444648
-0.0322472
0.326741
-0.340635
-0.0558816
-0.0479981
0.354415
-0.369951
-0.05872
-0.0561178
0.38509
-0.399723
-0.0458701
-0.0531705
0.411166
-0.41687
-0.00434163
-0.0281332
0.416188
-0.408562
0.055638
0.0242938
0.396703
-0.379591
0.0878368
0.0747499
0.361342
-0.340652
0.076115
0.0821913
0.322261
-0.304824
0.0523137
0.060767
0.291859
-0.281608
0.037153
0.0415197
0.275216
-0.270527
0.0253401
0.0307851
0.26766
-0.265944
0.00259341
0.0159753
0.267505
-0.270665
-0.0282173
-0.0112401
0.275243
-0.284033
-0.0492123
-0.041488
0.291787
-0.304093
-0.0637838
-0.0578909
0.315889
-0.33171
-0.0693359
-0.06857
-0.351322
0.391909
0.137543
0.31836
-0.298771
0.110168
0.126919
-0.427488
0.460381
0.0657449
0.118862
-0.468857
0.456647
-0.03539
0.0117721
-0.433838
0.407234
-0.0842253
-0.0629031
-0.384574
0.364721
-0.0973982
-0.088807
-0.348541
0.332554
-0.0941038
-0.0918629
-0.318911
0.304945
-0.0817749
-0.0846931
-0.291184
0.276247
-0.0641662
-0.0690802
-0.265303
0.259607
-0.042359
-0.0522764
-0.261446
0.269534
0.0010781
-0.0224294
-0.281761
0.298036
0.0565429
0.0271206
-0.315422
0.335712
0.104456
0.077491
-0.355846
0.378421
0.13709
0.116705
-0.399214
0.420596
0.143344
0.137183
-0.437732
0.451186
0.107458
0.125058
-0.456922
0.455577
0.0291301
0.0695513
-0.445617
0.428332
-0.0551589
-0.0155647
-0.407377
0.386853
-0.0970623
-0.0821542
-0.363698
0.353419
-0.0865106
-0.0961599
-0.0633098
-0.0832674
0.1095
0.257967
0.0578461
0.304409
0.286109
-0.125463
0.134569
0.22737
0.238948
-0.143303
0.15093
0.204471
0.210158
-0.157418
0.163141
0.20287
0.196862
-0.167545
0.16981
0.230821
0.209285
-0.168959
0.161294
0.28537
0.251488
-0.151922
0.135939
0.339687
0.311413
-0.10485
0.0756226
0.378298
0.365128
-0.0105066
0.488924
0.409769
0.09865
-0.12587
-0.267013
-0.281792
0.0816712
-0.0783415
0.0953569
-0.355188
-0.347125
-0.0629273
-0.0625058
-0.202751
0.0618045
-0.168769
-0.360047
-0.0391784
-0.16989
-0.248895
0.137036
-0.179852
0.444346
-0.328546
0.112858
0.0840378
-0.0429333
0.447819
0.0883287
0.440055
-0.256203
-0.297251
0.174445
-0.208739
-0.291763
-0.328701
0.177771
-0.249363
-0.275046
-0.33846
0.157359
-0.295644
-0.230113
-0.330955
0.146849
-0.309603
-0.165139
-0.278576
0.137606
-0.337642
-0.0731074
0.0637374
-0.272422
-0.0894507
-0.25067
0.113075
-0.346707
-0.0746795
0.0929162
-0.373424
-0.06117
-0.360634
-0.177784
0.330183
-0.324304
0.0568173
0.093956
0.313033
-0.307521
0.032876
0.0435395
0.299372
-0.29647
0.0127863
0.0263357
0.293791
-0.297109
-0.00541652
0.00785569
0.299913
-0.306488
-0.021665
-0.00977756
0.312443
-0.320685
-0.036223
-0.0262925
0.3294
-0.34007
-0.0452117
-0.0392829
0.351189
-0.363712
-0.0461973
-0.0449983
0.37628
-0.388555
-0.0335954
-0.0406022
0.397448
-0.400736
-0.00105396
-0.0192401
0.397224
-0.386629
0.0450427
0.0207822
0.3729
-0.356887
0.0718231
0.0610215
0.341994
-0.327196
0.0613169
0.0672985
0.315306
-0.304999
0.042007
0.0488769
0.297818
-0.291905
0.0312402
0.0343382
0.287076
-0.282401
0.0206657
0.0259563
0.278231
-0.275732
9.46609e-05
0.0118047
0.275128
-0.278084
-0.0252614
-0.0118437
0.285768
-0.291124
-0.043856
-0.033805
0.300937
-0.311288
-0.0534333
-0.0480776
0.323013
-0.335957
-0.0563925
-0.0568441
0.343556
-0.353855
-0.0508709
-0.0553286
-0.304991
0.328225
0.0869342
0.294714
-0.288034
0.057058
0.0713939
-0.353052
0.387069
0.103526
0.102092
-0.42682
0.445787
0.0467779
0.0791103
-0.449473
0.437558
-0.0234753
0.0080865
-0.418876
0.39646
-0.0618089
-0.0442213
-0.375925
0.356317
-0.0777901
-0.0682724
-0.340467
0.325441
-0.0790777
-0.0760132
-0.313562
0.303039
-0.0712522
-0.0728137
-0.294458
0.284354
-0.0540617
-0.0604992
-0.275075
0.267977
-0.0352606
-0.042998
-0.26705
0.273092
-0.00496403
-0.0215029
-0.28417
0.300529
0.0401847
0.0160426
-0.318079
0.339044
0.0834904
0.059941
-0.359633
0.382682
0.114041
0.0961163
-0.404217
0.426059
0.121501
0.115648
-0.443813
0.457205
0.0940662
0.107304
-0.463576
0.462675
0.030031
0.0631804
-0.453869
0.438783
-0.0400731
-0.00675858
-0.414627
0.391279
-0.0737146
-0.0579979
-0.370674
0.359974
-0.0758106
-0.0755549
-0.0633832
-0.042934
0.0602387
0.287105
0.309625
-0.0821662
0.0902763
0.249857
0.264181
-0.099474
0.107793
0.21905
0.22975
-0.115299
0.122845
0.196926
0.202652
-0.129967
0.136623
0.196214
0.18974
-0.142013
0.145287
0.227546
0.203895
-0.14577
0.142952
0.288187
0.251006
-0.136863
0.125513
0.351036
0.317503
-0.109417
0.0843846
0.403331
0.381225
0.45122
0.0509203
-0.0545225
-0.26882
-0.280945
0.0438306
-0.0548154
0.0663581
-0.372177
-0.365499
-0.0431713
-0.159937
-0.212704
0.148776
-0.18051
0.407774
-0.365497
0.0705816
0.419659
0.0764429
-0.246206
-0.258891
0.19455
-0.199956
-0.29113
-0.297884
0.2023
-0.233268
-0.288079
-0.315667
0.187504
-0.279509
-0.249873
-0.3187
0.165733
-0.314529
-0.197717
-0.298376
0.162612
-0.334608
-0.124128
-0.243898
0.144381
-0.368948
-0.0585892
-0.246603
0.114097
-0.367888
-0.0338833
0.0273207
-0.274382
-0.0365997
-0.266104
0.0844963
-0.391562
-0.281943
0.284669
0.0245949
-0.0161563
-0.27672
0.0109335
-0.0154423
-0.275096
0.0132528
0.304059
-0.0418648
0.0567657
-0.387078
-0.0374826
-0.369881
-0.188946
0.339065
-0.3274
0.0451524
0.0675238
0.318292
-0.310816
0.0253991
0.0344317
0.303828
-0.302166
0.011124
0.0193482
0.300194
-0.302154
-0.0034562
0.00588395
0.303278
-0.306653
-0.0182892
-0.00865435
0.31035
-0.316362
-0.0302109
-0.0225956
0.323754
-0.333404
-0.035561
-0.0318917
0.344127
-0.356512
-0.0338127
-0.0342755
0.368377
-0.379233
-0.0227393
-0.0287367
0.386244
-0.388299
0.00100161
-0.0122295
0.384241
-0.373796
0.0345979
0.0167236
0.359827
-0.344551
0.0565468
0.0470528
0.331774
-0.321355
0.0508987
0.0545213
0.314129
-0.308342
0.0362196
0.0416506
0.303637
-0.298737
0.0263402
0.0296334
0.29364
-0.288548
0.0155743
0.0208588
0.284332
-0.282396
-0.00184079
0.00758847
0.282962
-0.286477
-0.0217458
-0.0112784
0.291464
-0.29789
-0.0374301
-0.028818
0.304432
-0.310068
-0.0477965
-0.0415363
0.318274
-0.325076
-0.0495909
-0.0486384
0.333106
-0.343475
-0.0405018
-0.0472982
0.351919
-0.358309
-0.0310921
-0.0347278
-0.292339
0.30197
0.0474271
0.0361607
-0.315708
0.334523
0.0681193
0.0576558
-0.360837
0.38926
0.0751037
0.0757771
-0.41087
0.422448
0.0351993
0.0575008
-0.422819
0.414475
-0.0151316
0.00771604
-0.402625
0.38827
-0.0474532
-0.0323719
-0.37349
0.356624
-0.060924
-0.053493
-0.341072
0.325387
-0.0633923
-0.0604611
-0.312548
0.301182
-0.0598869
-0.0599747
-0.293586
0.286918
-0.0473942
-0.0529027
-0.281073
0.27531
-0.0294972
-0.0371529
-0.272528
0.275298
-0.00773384
-0.0187207
-0.283316
0.297975
0.0255252
0.00802421
-0.314722
0.335688
0.0625245
0.0431941
-0.356229
0.379271
0.0909983
0.0755757
-0.400492
0.421744
0.10025
0.0944273
-0.438554
0.451742
0.0808774
0.0904942
-0.458856
0.458884
0.0300035
0.0560665
-0.451104
0.434683
-0.0236521
0.00102088
-0.415318
0.392249
-0.0506456
-0.0386324
-0.371688
0.353059
-0.0571821
-0.0549938
-0.34372
0.34471
-0.0401682
-0.0540439
-0.0286192
-0.0326058
0.0477038
0.272007
0.290272
-0.057523
0.0636847
0.243695
0.254362
-0.069029
0.0746549
0.213425
0.224406
-0.0806943
0.0873521
0.190268
0.196612
-0.0941567
0.100572
0.189799
0.182935
-0.106115
0.11023
0.223431
0.198352
-0.112054
0.11101
0.289231
0.249182
-0.106675
0.0948711
0.36284
0.321838
-0.0901386
0.0741703
0.419299
0.385957
-0.0933835
0.079122
0.462081
0.432007
-0.0474465
-0.0255211
0.492627
0.47173
-0.231149
-0.227761
0.213547
-0.199507
0.0286066
-0.0261145
-0.360801
0.0314947
-0.372769
0.403958
-0.431382
0.00190203
-0.0634701
0.275724
0.280373
0.355383
-0.0148951
-0.343108
0.335499
-0.0234829
-0.343185
-0.0260375
-0.282463
-0.267558
0.226958
-0.224615
-0.291506
-0.294457
0.214417
-0.26018
-0.267262
-0.298279
0.191855
-0.305631
-0.22159
-0.294827
0.184231
-0.336148
-0.161912
-0.260593
0.17033
-0.360556
-0.0795708
-0.222917
0.147228
-0.402079
-0.033675
-0.249528
0.112152
-0.395543
-0.00357431
-0.27971
0.00656434
-0.287005
0.284008
-0.000577598
0.0131368
-0.290874
-0.00926751
-0.286063
0.019489
-0.0156608
-0.265885
0.0726961
-0.407493
-0.278025
0.00949323
0.0754755
-0.163626
0.363875
-0.339603
-0.0120734
-0.0278242
0.383673
-0.206547
0.387119
-0.363897
0.0473594
0.0321804
0.341989
-0.32777
0.0309328
0.045616
0.319134
-0.314297
0.0205624
0.0257961
0.309661
-0.308601
0.010064
0.0147118
0.307192
-0.308321
-0.00232726
0.00447554
0.309564
-0.313229
-0.0146249
-0.00741126
0.3178
-0.324228
-0.0237833
-0.0180243
0.331313
-0.339048
-0.0278255
-0.0248067
0.346891
-0.354765
-0.0259387
-0.0264324
0.362163
-0.368683
-0.0162185
-0.0213393
0.373313
-0.375018
0.00270644
-0.00760019
0.37257
-0.365115
0.0271432
0.0142761
0.354124
-0.341276
0.0436985
0.0360613
0.330013
-0.321067
0.0419529
0.0432586
0.31483
-0.309976
0.0313656
0.0354137
0.30566
-0.301158
0.0218381
0.0253177
0.296605
-0.292414
0.0113835
0.0163054
0.289287
-0.287926
-0.00320212
0.00446161
0.288467
-0.291238
-0.0189753
-0.0107369
0.295236
-0.300747
-0.0319189
-0.0248198
0.306884
-0.314013
-0.0406675
-0.0353998
0.321032
-0.326124
-0.0444988
-0.0416197
0.330702
-0.333197
-0.0380066
-0.0427196
-0.0324262
-0.286757
0.291873
0.0194792
0.0081842
-0.299924
0.309532
0.0378188
0.0281097
-0.321485
0.33713
0.0524751
0.0457029
-0.354314
0.376066
0.0533512
0.0585929
-0.391852
0.400242
0.0268094
0.0417147
-0.400445
0.394307
-0.0089933
0.00751345
-0.384997
0.373608
-0.0360651
-0.0230617
-0.36304
0.352583
-0.0504671
-0.0429248
-0.343534
0.334017
-0.0538755
-0.0514115
-0.32473
0.31437
-0.0495268
-0.0506878
-0.305395
0.297486
-0.0394852
-0.0439282
-0.291431
0.286135
-0.0242013
-0.0310972
-0.282192
0.281592
-0.00713396
-0.0147776
-0.285067
0.295016
0.015576
0.0045487
-0.308444
0.327238
0.0437298
0.0297667
-0.346665
0.368904
0.0687594
0.0561493
-0.389345
0.409557
0.0800375
0.0739863
-0.425832
0.438851
0.067859
0.0742188
-0.445948
0.445062
0.0308893
0.0489696
-0.437055
0.421197
-0.00779467
0.00902805
-0.404482
0.385231
-0.0313947
-0.0219172
-0.368073
0.350937
-0.0400463
-0.0378354
-0.339914
0.336246
-0.0365002
-0.0430207
-0.0319765
-0.00397957
0.0146385
0.2934
0.309854
-0.0239911
0.027352
0.268646
0.280919
-0.0281239
0.0301614
0.241657
0.25359
-0.0330237
0.0369177
0.209531
0.221544
-0.0413692
0.0461175
0.18552
0.192161
-0.0508326
0.0556784
0.184953
0.17822
-0.0598599
0.0638887
0.219402
0.19417
-0.0665718
0.0678509
0.287952
0.246499
-0.0678524
0.0659539
0.364739
0.321836
-0.0617866
0.0590398
0.422046
0.390124
-0.061336
0.0812768
0.44214
0.429711
0.389381
0.0394281
-0.395011
0.336608
-0.00904908
-0.0142484
0.015195
-0.361748
-0.350429
-0.00700421
-0.267434
-0.24279
0.248549
-0.221098
-0.287626
-0.271439
0.241125
-0.251323
-0.27703
-0.284689
0.218642
-0.286967
0.0183645
-0.375939
-0.244145
-0.275724
0.205081
-0.326481
-0.192706
-0.264032
0.199372
-0.36519
-0.116665
-0.223499
0.175119
-0.388447
-0.01689
-0.296452
0.022468
-0.298684
0.29307
-0.0112765
0.0227361
-0.30497
-0.0164496
-0.303572
0.0298556
-0.0355164
-0.221075
0.143299
-0.433227
-0.294434
0.0308399
-0.0113032
-0.253886
0.105444
-0.428291
-0.284293
0.0257568
0.0124243
-0.268816
0.0566812
-0.424746
0.00150839
-0.0252801
0.36038
0.224619
-0.366387
0.195803
0.0370362
-0.030925
0.28322
-0.00415172
0.00250044
-0.360097
-0.35412
-0.000460886
-0.0344952
0.296151
-0.225432
0.368385
-0.385764
0.0192817
-0.348572
-0.00951324
0.349036
0.00491804
0.371375
-0.352751
0.0287355
0.0177912
0.337394
-0.328736
0.0222747
0.0302588
0.320925
-0.316924
0.0165608
0.0179852
0.313838
-0.312099
0.00832541
0.0116257
0.310893
-0.311376
-0.00184413
0.00326902
0.312569
-0.315391
-0.0118034
-0.00621777
0.318993
-0.323758
-0.0190192
-0.0144215
0.328955
-0.334729
-0.022052
-0.019609
0.340687
-0.346961
-0.0196645
-0.020474
0.352963
-0.358517
-0.0106649
-0.0153376
0.362349
-0.36378
0.00413729
-0.00376768
0.361872
-0.356397
0.0216686
0.0123676
0.348207
-0.338372
0.0338638
0.0278709
0.329105
-0.321138
0.0339858
0.0339917
0.315098
-0.310214
0.026481
0.0293743
0.306099
-0.302149
0.0178874
0.0212032
0.298537
-0.295407
0.00825304
0.0126942
0.293286
-0.292603
-0.00388581
0.00234111
0.293345
-0.295593
-0.016728
-0.0099943
0.298832
-0.303187
-0.0275638
-0.021581
0.308056
-0.313785
-0.0349384
-0.03053
0.319709
-0.326099
-0.0381082
-0.0356966
0.331643
-0.335284
-0.0343659
-0.0371759
0.336946
-0.335267
-0.0251622
-0.030764
0.339755
-0.339839
-0.00691948
-0.0215494
-0.00573678
-0.342944
-0.00543925
0.334263
-0.337492
-0.00250796
-0.00603751
-0.291599
0.292557
-0.00153618
-0.00779596
-0.294922
0.299238
0.0151632
0.00582003
-0.305113
0.312328
0.0306033
0.0222348
-0.322437
0.334513
0.0403991
0.0355934
-0.349266
0.363587
0.0390306
0.0438403
-0.374193
0.380658
0.0203441
0.0311086
-0.381996
0.37963
-0.00662719
0.00617534
-0.374105
0.365737
-0.0276962
-0.0175373
-0.356256
0.345735
-0.0399456
-0.0334446
-0.335915
0.32658
-0.0445401
-0.0415916
-0.318564
0.311077
-0.0420401
-0.0426721
-0.304634
0.29902
-0.0338706
-0.0374854
-0.294907
0.291656
-0.0209504
-0.0269846
-0.289455
0.288299
-0.00597877
-0.0125761
-0.289817
0.294965
0.0104286
0.00303083
-0.304199
0.317997
0.0299313
0.0205326
-0.334241
0.353319
0.0496817
0.0399056
-0.371608
0.389975
0.0616709
0.0556971
-0.404702
0.416376
0.0561851
0.0594909
-0.421131
0.419802
0.0322176
0.0442153
-0.41213
0.4015
0.00283577
0.0167003
-0.388654
0.375998
-0.0187391
-0.00907135
-0.363533
0.351566
-0.0280796
-0.0253698
-0.341966
0.331141
-0.0256756
-0.0334208
-0.329886
0.332901
-0.0150887
-0.0307211
-0.0206076
0.00675562
-0.000821473
0.287465
0.285685
0.00175953
-0.00221924
0.269106
0.281857
0.00217669
-0.00242148
0.241902
0.253547
0.002656
-0.00167326
0.208548
0.221778
0.000132186