/*--------------------------------*- C++ -*----------------------------------*\
  =========                 |
  \\      /  F ield         | OpenFOAM: The Open Source CFD Toolbox
   \\    /   O peration     | Website:  https://openfoam.org
    \\  /    A nd           | Version:  10
     \\/     M anipulation  |
\*---------------------------------------------------------------------------*/
FoamFile
{
    format      ascii;
    class       surfaceScalarField;
    location    "1.5";
    object      phi;
}
// * * * * * * * * * * * * * * * * * * * * * * * * * * * * * * * * * * * * * //

dimensions      [0 3 -1 0 0 0 0];

internalField   nonuniform List<scalar> 
12623
(
0.0978594
0.021428
-0.0355351
-0.0837523
0.0763203
-0.0365499
0.058089
0.0845048
-0.00891234
-0.0781837
0.00259119
-0.00886565
0.0851624
0.00820813
-0.0847551
0.00752192
-0.0060362
0.0832694
-0.0833357
-0.010285
-0.00243578
0.0462605
-0.0524312
0.0086065
-0.0545271
0.0520913
0.0169857
-0.010218
-0.00676773
-0.00723462
-0.0044799
0.0287003
0.0923973
-0.0413546
-0.0510427
-0.0621667
0.0509013
0.103663
-0.0547906
-0.0439696
0.0404376
0.0583225
0.00528566
0.00914928
-0.0692255
-0.0605586
0.0218746
0.0138457
0.000872562
-0.0175965
0.00287819
-0.000941231
-0.0168581
0.031645
-0.000648462
0.000579792
0.000452962
-0.0131279
-0.000108253
0.0127832
-0.0285333
0.00850146
0.0204848
-0.0263854
-0.0152758
0.00747667
0.021106
-0.0210935
-0.00748921
0.000368813
0.00905776
-0.0019499
-0.036364
0.0578388
-0.0658691
0.007111
0.0679074
0.0106295
-0.073517
-0.00298162
-0.07123
0.00684584
0.0714952
-0.0809889
0.00602326
-0.00699285
0.0819585
-0.0802204
-0.00550065
0.00473221
-0.08431
0.0842821
-0.00526839
0.00529629
-0.081811
0.0035242
-0.0856923
0.0105394
-0.00741514
0.082568
-0.00878503
-0.0831404
0.0062331
0.0838993
-0.0859991
0.00773969
-0.00614173
0.0844011
-0.00811564
-0.0838021
0.00591864
-0.0878217
-0.00557266
0.0852787
-0.0836831
0.00640087
0.0836606
-0.0102572
-0.0879987
0.0145953
-0.00568019
0.0153696
0.0739711
-0.0855463
-0.00784177
0.0831309
-0.0847505
0.00694387
0.00539191
-0.00570234
0.0845926
-0.085212
0.011036
-0.010329
0.084505
-0.0118266
-0.0822445
0.0088591
-0.0098852
-0.0823629
-0.0838614
-0.00816514
0.0817414
-0.0827106
-0.00896178
-0.0673477
0.00563977
0.0706697
0.0524521
0.00849957
-0.0699134
-0.0549531
0.018454
0.0889511
-0.0204701
0.0836944
-0.0688737
0.00564938
-0.0669236
0.0738086
0.0145381
-0.0129126
-0.0754341
0.0162394
0.0719515
-0.0143824
-0.0102117
0.00686591
0.0807115
-0.0773657
-0.0830418
0.0823574
-0.00952727
0.0783936
-0.00995446
0.0115892
-0.0800284
0.077821
-0.0783792
0.000168106
0.000390071
0.000142286
0.0781473
-0.000468589
-0.0787292
1.96277e-05
0.000330363
-0.078692
0.000183667
-0.000220856
-0.0784274
-0.000224995
-3.9608e-05
-0.0783632
-2.6037e-05
-3.81012e-05
-0.0783247
-2.00456e-05
-1.84286e-05
-0.0782677
3.96444e-06
-6.09971e-05
-0.0781621
0.000187795
-0.000293446
-0.000135991
-0.0777094
-0.000316677
0.0777282
-0.0779569
0.00037103
0.000625988
0.0781649
-0.000643605
0.0784292
-7.4998e-05
-0.0784634
0.00067458
-0.0786917
0.000247941
-0.0782527
-0.000255319
-0.0784205
-5.71709e-05
-0.0783957
-5.08741e-05
-0.0783382
-7.75618e-05
-0.078272
-6.22271e-05
-0.0779778
-0.000106453
-0.078138
2.42374e-05
0.000417079
0.0783313
-0.000319253
0.0786674
-8.54298e-05
-0.0005325
-0.0781041
0.000927162
-0.07861
-6.04731e-05
0.00141005
0.0785072
-0.00158586
0.0793449
0.000732589
-0.000809479
-0.0778198
0.000525264
-0.0787305
-0.00068894
0.00335626
0.0785436
-0.00339266
0.0024807
-0.00121706
-0.0779968
0.001394
-0.0785383
-0.00140933
0.0791184
-0.00607551
-0.00841515
0.0805407
-0.00255634
0.00100346
-0.0764439
-0.00132521
-0.0797694
0.0768638
-0.0778026
-0.00245385
-0.0733509
0.0748638
-0.009928
-0.00256264
0.0786783
-0.0785533
-0.000444343
-0.000710111
0.0784244
-0.078275
0.000221578
-0.000203844
0.0785193
-0.0779663
-0.000305029
0.000918933
0.0784138
-0.0779686
-0.000502341
0.000192101
0.078429
-0.0779698
-0.000536756
0.000409574
0.0784821
-0.0779135
-0.000675092
0.000450079
0.0778787
-0.0783678
0.000428639
-1.06049e-05
0.0788682
-0.0786277
-0.00164987
-0.00018848
-0.0789163
-0.00103664
-0.0779224
0.0777122
0.00073545
0.0766266
0.000212909
-0.0758361
9.82798e-05
-0.0782782
0.0780137
-5.22395e-05
0.000361192
-0.0791072
0.0780749
0.00097138
-0.00138696
-0.0791178
0.078229
0.000850661
-0.00106135
-0.0791347
0.0781976
0.000716316
-0.000945348
-0.079328
0.0783008
0.00141728
-0.000800051
-0.0793258
0.0778677
0.0008145
-0.00149364
-0.0786381
0.0791345
0.000236224
-0.000855846
-0.0805186
0.00343986
0.00109658
0.00659531
-0.00821721
0.0821626
0.0832854
-0.00500113
0.0716477
0.00109192
-0.0789511
-0.00105714
-0.000343368
-0.0783341
-0.0758115
0.0763036
-0.00027914
0.000275863
4.9572e-05
-0.0761615
-0.0762977
0.000762012
-0.00116323
0.000206543
-0.0779944
-0.0787822
0.0785375
-0.000812452
-0.00115676
-0.0787886
0.0866299
-0.0838957
0.00256207
0.071953
-0.076804
-0.00507701
0.0738433
-0.00689138
0.0855019
0.0065199
-0.0767377
0.0763429
-0.0773339
-0.00146281
-0.00302377
0.0780052
-0.0778516
-0.000597974
-3.88592e-05
0.0785448
-0.0777516
-0.000571665
0.000489431
0.0772504
-0.0774032
-0.000152223
0.000417715
0.0771784
-0.0774816
-0.000199183
-3.26886e-05
0.0771112
-0.0774657
-0.000182322
3.92302e-05
0.0770789
-0.0774144
-0.000339554
6.32946e-05
0.0772741
-0.0770246
0.0001792
-0.000150952
0.0770753
-0.0782667
-0.000458475
-0.000137786
-0.00076586
-0.0768675
0.0776062
-3.21475e-06
-0.000465637
-0.0780612
0.0783547
-0.00034575
-9.38256e-05
-0.0771928
0.0782806
-0.000116364
-0.000225087
-0.0773251
0.0782647
-8.88941e-05
-0.000105868
-0.0773916
0.0781586
-5.07523e-05
-7.22686e-05
-0.0773992
0.078849
-3.25901e-05
-4.05775e-05
-0.0773825
0.0782161
-1.9123e-05
-2.71112e-05
-0.0774457
0.0776938
-1.19358e-05
-8.53649e-05
-0.0784075
0.0818487
-1.41478e-06
0.000382931
0.00147724
0.005979
0.000315929
0.0758677
0.083562
0.00233353
0.0724431
-0.000933328
0.0742971
-0.000285482
-8.04286e-05
-0.0759318
0.000260195
-0.0767072
-0.000627538
-0.0775
-0.0787476
0.0776281
0.000307077
-0.0784732
-0.0014311
0.000817217
-0.00120429
-0.0784016
0.000497783
-0.0776749
-0.0758747
0.0760835
-0.000289204
8.70473e-05
0.000501211
-0.07652
-0.0761048
0.000317184
0.00812097
-0.00410638
0.080578
0.0842439
0.00937899
-0.00486349
0.00415871
0.0731479
0.0709396
-0.0700466
-0.00182632
0.0732112
-0.00713512
-0.0845719
0.00605678
0.0850351
-0.0814421
-0.000567738
-0.077105
0.0728713
-0.0744062
-0.00354212
-0.00406663
0.0760568
-0.0775194
-1.35473e-07
-0.00137321
0.0773487
-0.0778945
-5.2245e-05
-0.000209556
0.0773269
-0.0778244
-7.41496e-05
-7.81609e-05
0.0773063
-0.0773549
-0.000103674
-0.000100351
0.0772672
-0.0773516
-0.000114755
-0.000120362
0.0771927
-0.0772654
-0.000109551
-0.000119754
0.077083
-0.0772989
-0.000123645
-0.000119136
0.0773101
-0.0769798
-0.000151165
-0.000139717
0.0769318
-0.0771542
-0.000236015
-0.000185785
-0.000292042
-0.0771234
0.0769458
-0.000101547
-0.00027792
-0.077004
0.0774146
-0.000413803
-0.000523874
-0.0774501
0.0772723
-0.000167904
-0.000129336
-0.0771986
0.0772289
-0.000146691
-0.0001514
-0.0772488
0.0772681
-0.000108118
-0.000125779
-0.077287
0.0773058
-6.9557e-05
-9.11914e-05
-0.0773229
0.077335
-4.47166e-05
-5.76578e-05
-0.0773449
0.0773568
-3.10532e-05
-3.69868e-05
-0.0773069
0.077322
-2.70735e-05
-3.54377e-05
-0.0777293
0.0784807
-0.00075283
-2.43491e-05
-0.00148419
0.00361054
-0.00331725
0.0755744
0.0830662
0.0751386
-0.0784818
-0.00119572
0.000540413
-0.0767464
2.00663e-05
-0.0770223
0.000115043
-4.87876e-05
-0.0761711
0.000112987
-0.076518
0.000878559
-0.00166623
-0.0776139
0.000608489
-0.0774049
-0.00461613
0.00385217
0.0739118
-0.00630337
0.0748984
0.00894058
-0.00491166
0.0765491
0.00962504
0.0835595
0.0770099
-0.0774386
-0.000139052
0.00208251
0.0809842
0.0731849
-0.0717051
-0.00330614
0.0730869
-0.00703714
-0.0786625
-0.00148559
0.00104468
-0.00224376
-0.0774634
0.000619502
-0.0771887
0.0849087
0.00950535
-0.0765446
0.0731065
-0.0759199
-0.000728714
-0.00266516
0.0772397
-0.0772043
-3.55432e-05
-5.34771e-05
0.0773424
-0.0773362
-5.84717e-05
-7.14339e-05
0.0773322
-0.0773239
-8.24905e-05
-8.20729e-05
0.0773221
-0.0773201
-0.000105756
-0.000102116
0.0773104
-0.0772876
-0.000137531
-0.00013002
0.0772505
-0.0771952
-0.000164835
-0.000156913
0.077137
-0.0770783
-0.000182392
-0.000177283
0.0770226
-0.0769616
-0.000212118
-0.000195419
0.076906
-0.0768667
-0.000275337
-0.000241392
0.0770431
-0.0766216
-0.000114462
-0.000115631
0.0771869
-0.0782692
-0.000113438
-0.000865761
0.0777645
-0.0786029
-0.00140532
-0.00199029
-0.0769652
0.0768469
-0.000170971
0.0761467
-0.0761408
-5.47053e-05
-0.000501273
-0.0771233
0.0775077
-0.00048595
-0.000554329
-0.0772051
0.077043
-0.000251645
-0.000221276
-0.0771325
0.0771711
-0.000206443
-0.000218874
-0.077199
0.0772149
-0.000162584
-0.000179357
-0.0772288
0.0772424
-0.00012176
-0.000139673
-0.0772577
0.0772761
-8.79022e-05
-0.000106465
-0.0772957
0.0773145
-6.35348e-05
-7.72497e-05
-0.0773358
0.0773517
-4.70446e-05
-5.82623e-05
-0.0773618
0.077422
-8.72102e-05
-4.55302e-05
-0.0772787
0.0771841
-0.000658221
0.000118904
-0.0017387
0.000345287
-0.00186086
0.07709
0.0784998
0.0771299
-0.000323613
0.000420966
-0.0762684
-0.0760401
-0.000424332
-0.00079665
0.00093942
-0.0776061
-0.078234
-0.00116557
9.06453e-05
-0.0767241
2.09387e-05
-0.0764348
-0.00557475
0.0723583
0.0119678
0.0825659
0.077667
-0.076881
-0.000925068
0.0787738
0.000975701
0.000516754
-0.0766138
0.000155517
-0.0769409
0.000533178
-0.000411274
-0.076162
0.00067594
-0.0764112
0.00050998
-0.0767593
-0.00200809
0.00117995
-0.076778
-0.00159941
-0.0786427
0.0839676
0.00652193
-0.076433
0.0753979
-0.0756362
-0.0030678
-0.07313
0.0729426
-0.00538741
-0.00476919
0.0770923
-0.0776202
-0.000200846
-0.00120906
0.0773726
-0.0773801
-2.80918e-05
-0.000301042
0.0773715
-0.077363
-6.6917e-05
-8.006e-05
0.0773538
-0.0773463
-8.99777e-05
-9.12852e-05
0.0773384
-0.0773274
-0.00011678
-0.000110053
0.0773182
-0.0773021
-0.00015364
-0.000139208
0.0772792
-0.0772443
-0.000199789
-0.000179755
0.0771977
-0.0771372
-0.000242911
-0.00022386
0.0770697
-0.0769974
-0.000284477
-0.000262862
0.0769365
-0.0768884
-0.000323374
-0.000302277
0.0766589
-0.0763718
-0.000401599
-0.000345145
0.0767672
-0.0763146
-0.000566029
-0.000470372
0.0774553
-0.0781259
-0.000734743
-0.000849538
0.0784141
-0.078419
-0.00159444
-0.000877426
-0.0763776
0.0769719
-0.000649063
0.0760888
-0.0761393
-0.000360799
-0.000713084
-0.0768817
0.0772842
-0.000573484
-0.000411078
-0.0770707
0.0769484
-0.000363604
-0.000340833
-0.0770418
0.0770895
-0.000299358
-0.000314643
-0.0771315
0.0771631
-0.000238099
-0.000260883
-0.0771854
0.0772052
-0.000182336
-0.00020165
-0.0772234
0.0772442
-0.000142555
-0.00015785
-0.0772632
0.0772841
-0.000108886
-0.000125463
-0.0773047
0.0773224
-8.12445e-05
-9.77953e-05
-0.0773397
0.0773543
-6.16464e-05
-7.56009e-05
-0.0773701
0.0773279
-4.49927e-05
-6.12778e-05
-0.0774403
0.0773809
-0.000598851
6.50614e-06
-0.00123881
-0.000665078
0.000759307
-0.0762562
-0.076023
-0.000781383
-0.00185789
0.0010263
-0.0778111
-0.0780626
-0.0022143
0.0841088
0.0030513
0.00738449
-0.00620515
0.0813865
0.0811644
1.74491e-05
-0.00214589
0.0786775
0.0773718
0.00105188
-0.000964729
0.0770028
0.0774058
0.00163478
-0.00298563
0.0752627
0.0778
0.0040715
-0.00457279
0.0728596
0.0759843
-0.004475
0.0728448
0.000106945
-0.0763143
2.49976e-05
-0.0763042
0.000271534
-0.0762094
0.000178048
-0.076609
0.000473147
-0.076125
0.000800652
-0.07638
0.000898903
-0.000769262
-0.0761526
0.000715133
-0.0760724
0.00098283
-0.0767345
0.00218409
-0.00265836
-0.0775884
0.00126628
-0.0768933
0.0726186
-0.073384
-0.00462203
0.0725057
-0.00436209
-0.076301
0.0746273
-0.0758534
-0.00184171
-0.00352584
0.0769679
-0.0771938
2.50759e-05
-9.45956e-05
0.0773795
-0.0773862
-2.13458e-05
-0.000115334
0.0773704
-0.0773664
-7.08671e-05
-9.59114e-05
0.077357
-0.077347
-9.99929e-05
-0.00010075
0.0773379
-0.0773261
-0.000128546
-0.000119123
0.0773159
-0.0773029
-0.000166704
-0.0001494
0.077288
-0.0772664
-0.000221448
-0.000194582
0.0772371
-0.0771953
-0.000284679
-0.000253138
0.0771452
-0.0770858
-0.000343896
-0.000312994
0.077024
-0.0769555
-0.000391895
-0.00036408
0.0768856
-0.0768207
-0.000466547
-0.000414987
0.0767761
-0.0767436
-0.000598507
-0.000514977
0.0769214
-0.0769846
-0.000671503
-0.000671766
0.0768156
-0.0775074
-0.000902622
-0.0010464
0.0779673
-0.0785764
-0.00204931
-0.00175441
-0.0762417
0.0766855
-0.000804515
0.0760554
-0.0761452
-0.000679417
-0.000967726
-0.07675
0.0767913
-0.000690389
-0.000777641
-0.0769191
0.0768629
-0.000517318
-0.000538849
-0.0769611
0.0770159
-0.000418414
-0.000438938
-0.0770668
0.0771086
-0.000341219
-0.000365534
-0.0771406
0.0771703
-0.000267849
-0.00029286
-0.0771977
0.0772242
-0.000208822
-0.000229049
-0.0772482
0.0772703
-0.000164655
-0.000181795
-0.0772887
0.0773079
-0.000128044
-0.000143889
-0.0773235
0.0773384
-9.61262e-05
-0.000113454
-0.0773548
0.0773655
-7.23179e-05
-9.2048e-05
-0.0773752
0.0773851
-5.48774e-05
-7.09551e-05
-0.0774494
0.0769234
-7.27807e-05
-5.78537e-05
-0.0761541
0.0761748
-0.000945821
-0.000469507
-0.0773066
0.0791677
0.00119021
-0.000156087
0.00531623
0.00269542
-3.37417e-05
0.0787249
-0.00645619
0.082796
0.0774036
3.36921e-05
2.45774e-05
0.0786192
0.0773717
-6.92181e-05
-0.00160344
0.0786755
0.0773612
0.00127133
-0.0037268
0.0777181
0.0774679
0.00310237
-0.00452252
0.0742797
0.0753599
-0.00105949
0.000988422
-0.0760815
-0.0761555
-0.00104922
-0.0020233
0.00188024
-0.0774453
-0.0786725
-0.00192716
0.00378378
-0.00289421
0.0716161
0.0721061
0.000124903
-0.0761676
2.75926e-05
-0.0761538
0.00031653
-0.0760528
0.000202387
-0.0760107
0.000552929
-0.0759628
0.000428142
-0.0758253
0.000826431
-0.0759104
0.000641126
-0.0761094
0.00128146
-0.00134221
-0.0760948
0.00114019
-0.0759403
0.00132289
-0.076336
0.00227502
-0.0779512
-0.00299637
0.00155298
-0.0767233
-0.0761744
0.0761201
-0.00128794
-0.00155069
0.00147337
-0.0760175
-0.0759964
-0.00172866
-0.0027243
0.00224464
-0.0774715
-0.0782359
0.0780412
-0.00280166
-0.07783
-0.00313015
0.0725723
-0.0726288
-0.00283768
-0.00451394
0.00355194
0.0725781
0.0693791
-0.00132073
-0.0761485
0.0729918
-0.0752711
-0.00234267
-0.00399912
0.0763309
-0.0774455
-0.000727181
-0.00246603
0.0773852
-0.0774262
6.60424e-05
-0.000154874
0.0773909
-0.0774026
-9.63557e-06
-0.000150586
0.0773856
-0.0773827
-7.38142e-05
-0.000112903
0.0773722
-0.0773622
-0.000109985
-0.000111252
0.0773495
-0.0773362
-0.000141758
-0.00013184
0.0773218
-0.0773074
-0.000181129
-0.000163813
0.0772939
-0.0772807
-0.000234672
-0.000208058
0.0772676
-0.0772508
-0.000301553
-0.000266207
0.0772274
-0.0771908
-0.000380517
-0.000336311
0.0771389
-0.0770656
-0.000465161
-0.000416035
0.0769828
-0.076898
-0.000551296
-0.000497836
0.0768272
-0.0767669
-0.000658755
-0.000585831
0.0767174
-0.0765478
-0.000841141
-0.000721239
0.0766514
-0.0767187
-0.000835317
-0.000942793
0.0769791
-0.0780187
-0.00100971
-0.00149399
-0.00190469
-0.0761272
0.0766711
-0.00122334
-0.00105629
-0.0766358
0.0767689
-0.000937529
-0.000932477
-0.0767775
0.0768163
-0.000729236
-0.000786253
-0.0768939
0.0769609
-0.000584333
-0.000616439
-0.0770261
0.0770812
-0.000473551
-0.000504129
-0.0771215
0.0771567
-0.000376474
-0.00040574
-0.0771861
0.0772148
-0.00029658
-0.000322242
-0.0772395
0.0772618
-0.000231164
-0.000253717
-0.0772804
0.0772972
-0.00018146
-0.000200364
-0.0773126
0.0773274
-0.000142876
-0.000159248
-0.07734
0.077355
-0.000111135
-0.000126016
-0.0773636
0.0773747
-8.34254e-05
-0.000100669
-0.0773836
0.0773929
-6.4204e-05
-7.9852e-05
-0.0773947
0.0773691
-4.71845e-05
-5.95865e-05
-0.0769449
0.0766472
-0.000648056
-4.5369e-05
-0.0765284
0.0777845
-6.58245e-05
-3.73538e-05
0.000737811
0.00441801
-2.10633e-07
0.0783782
0.0801233
9.34502e-06
-2.11071e-05
0.0787366
0.0774127
1.47101e-05
3.28362e-05
0.0785717
0.0773653
-8.3833e-05
7.83397e-05
0.078681
0.0773102
-3.09947e-05
0.000377348
0.0773718
0.0775152
0.000420484
-0.0021604
0.0760196
0.0761577
0.0734976
0.000146117
-0.0759972
2.79502e-05
-0.0759794
0.000368567
-0.0758684
0.000232551
-0.0758151
0.000640083
-0.0757765
0.000493146
-0.0756773
0.000957265
-0.0757275
0.000807817
-0.0755943
0.00131953
-0.0757864
0.00117654
-0.0759595
0.0021894
-0.00171171
-0.0764741
0.00169929
-0.0755273
0.00186691
-0.0763455
0.00302538
-0.0779532
-0.00290224
0.00226369
-0.0767098
-0.0763625
0.0764274
-0.00177659
-0.002326
0.00199453
-0.0761426
-0.0762728
-0.00241577
-0.00300071
0.00245668
-0.0774092
-0.0781491
0.078629
-0.00338214
-0.0778544
-0.00329546
-0.0062707
0.00429376
0.074555
-0.00767553
0.0707839
0.0729032
-0.073852
-0.00188897
0.0734407
-0.00185818
-0.0759745
0.0746817
-0.0758938
-0.0011306
-0.00316934
0.0769375
-0.0774267
-0.000238014
-0.00142231
0.0774212
-0.0774119
5.67707e-05
-0.000160362
0.0774107
-0.0774008
-1.96064e-05
-0.000151798
0.0773975
-0.0773884
-8.29421e-05
-0.000116114
0.0773819
-0.0773729
-0.000119034
-0.000117743
0.0773626
-0.077352
-0.000152422
-0.000142089
0.0773398
-0.0773271
-0.000193859
-0.000175987
0.0773147
-0.0773023
-0.000247034
-0.000220429
0.0772907
-0.0772772
-0.000315102
-0.000277831
0.0772612
-0.077239
-0.000402681
-0.000352314
0.0772092
-0.0771663
-0.000508033
-0.00044587
0.0771126
-0.0770458
-0.00061813
-0.000551526
0.0769741
-0.0768982
-0.000734726
-0.000657462
0.0768347
-0.0767871
-0.000888728
-0.000784693
0.0767619
-0.0764547
-0.00114254
-0.000968019
0.0767617
-0.076373
-0.00139848
-0.00118693
0.076764
-0.0778842
-0.00168144
-0.00151363
-0.00238538
-0.0765282
0.0765245
-0.00128423
-0.00182942
-0.0765989
0.0766451
-0.00126957
-0.00113072
-0.076782
0.0768414
-0.000996924
-0.0010693
-0.0768945
0.0769512
-0.000785988
-0.000839386
-0.0770033
0.0770514
-0.000632359
-0.00066853
-0.0770938
0.0771354
-0.000515108
-0.000546598
-0.0771702
0.0772018
-0.000408078
-0.000440541
-0.077226
0.0772473
-0.000317827
-0.00034648
-0.0772656
0.0772838
-0.0002494
-0.000271996
-0.0773001
0.0773163
-0.000197633
-0.000216669
-0.0773305
0.077344
-0.00015633
-0.000173527
-0.0773561
0.0773675
-0.000122507
-0.000138167
-0.0773765
0.0773874
-9.4305e-05
-0.000109684
-0.0773936
0.0774018
-7.23488e-05
-8.60701e-05
-0.077407
0.0774118
-5.20109e-05
-6.47688e-05
-0.0774153
0.0770564
-0.000289175
-4.89047e-05
-0.0774641
0.0772292
0.000169075
-0.000445006
-0.000216679
0.00562515
-0.00221223
0.0798565
0.0821093
0.000313963
-2.26661e-05
0.0780869
0.078225
2.04825e-05
3.23207e-06
0.0787129
0.0774105
-3.55495e-05
5.34641e-05
0.0785538
0.077333
-6.71427e-05
3.51737e-05
0.0787129
0.0772965
5.43868e-07
-0.000684299
0.0780555
0.0775509
0.0020153
-0.00295713
0.0769615
0.0774887
0.0748342
0.000170275
-0.0757989
3.22603e-05
-0.0757791
0.000430159
-0.0756585
0.000268412
-0.0755904
0.000746332
-0.0755655
0.000567524
-0.075437
0.00111665
-0.0755246
0.00093723
-0.075355
0.00153393
-0.0756211
0.0013687
-0.0754613
0.00196834
-0.0755012
0.0018729
-0.0759547
0.00256929
-0.00273117
-0.0761109
0.00207274
-0.0756461
0.00222317
-0.0764763
0.00314434
-0.00336762
-0.0776311
0.00261061
-0.0768754
0.00989517
0.05587
-0.0757719
0.0725454
-0.0739745
-0.000459866
-0.0676619
0.0492687
0.0282884
0.00302524
0.0761844
-0.0763909
-0.000924052
-0.000959433
0.0772669
-0.0775649
5.99483e-05
-0.000546286
0.077439
-0.0774105
2.82254e-05
-0.000286249
0.0774349
-0.0774063
-4.82351e-05
-0.00012736
0.077415
-0.0774008
-9.72001e-05
-0.000107365
0.0773977
-0.0773868
-0.000129886
-0.000120848
0.0773791
-0.0773676
-0.000163984
-0.000149779
0.077357
-0.0773447
-0.000206214
-0.00018654
0.0773328
-0.0773203
-0.000259467
-0.000232318
0.0773088
-0.0772977
-0.000326263
-0.000289317
0.0772878
-0.0772776
-0.000412907
-0.000362209
0.0772658
-0.0772487
-0.000525214
-0.000457598
0.0772239
-0.0771868
-0.000655226
-0.000576327
0.0771386
-0.0770767
-0.000796604
-0.000705636
0.0770084
-0.0769313
-0.000965866
-0.000853005
0.0768579
-0.0768027
-0.00119769
-0.0010414
0.0768138
-0.0766892
-0.00152312
-0.00117584
0.0763162
-0.0765439
-0.00145381
-0.00188655
0.077061
-0.0781187
-0.00232446
-0.00186821
0.0782838
-0.0783123
-0.00333908
-0.0031304
-0.0764102
0.0764638
-0.00183012
0.0757341
-0.0769248
-0.00154053
-0.0030919
-0.0762317
0.0766741
-0.00172664
-0.00159737
-0.0768063
0.0768594
-0.00132259
-0.00126292
-0.0769006
0.0769483
-0.00104463
-0.00111056
-0.0770017
0.0770605
-0.000844731
-0.0008928
-0.0771127
0.0771557
-0.000675353
-0.00072073
-0.0771836
0.0772046
-0.00053608
-0.000574505
-0.0772204
0.0772365
-0.000424192
-0.000456345
-0.0772532
0.0772723
-0.000336872
-0.000363234
-0.0772902
0.077308
-0.000267239
-0.000289883
-0.0773232
0.0773378
-0.000212272
-0.000231817
-0.0773497
0.0773618
-0.000168417
-0.000185461
-0.0773713
0.0773813
-0.000132511
-0.000147617
-0.0773893
0.0773961
-0.000101144
-0.000117715
-0.0774036
0.0774098
-7.85452e-05
-9.35673e-05
-0.0774139
0.0774206
-5.86804e-05
-6.88475e-05
-0.0774287
0.0771302
9.39307e-06
-5.70692e-05
-0.0770018
0.0775921
-0.000421274
-0.000316618
-0.0773277
0.0787078
0.00121107
4.77593e-05
0.00377559
0.00201814
-0.000167092
0.0780054
-0.00397408
0.0809694
0.0801533
-0.00058341
-2.83623e-05
0.0786987
0.0774745
1.4457e-05
3.12202e-05
0.0786672
0.0773966
-7.88008e-05
6.2913e-05
0.0785697
0.0772854
-2.7214e-05
-1.79097e-05
0.0787581
0.0773322
2.3423e-05
-0.000816097
0.0788482
0.0775564
0.000763894
-0.00120966
0.0774072
0.0774365
0.00417117
-0.00641802
0.0768019
0.0777957
0.0155026
0.0896361
0.0798684
-0.00261537
0.00278376
-0.0762793
-0.0765742
-0.00296596
-0.00267525
0.00291861
-0.0778744
-0.0783257
-0.00266192
0.000202887
-0.0755717
3.44354e-05
-0.0755451
-0.081674
0.00422402
0.000505474
-0.0754176
0.000311402
-0.0753342
0.0871387
-0.0698264
0.0109761
0.000307658
0.0071858
0.0821427
0.00457357
0.0828728
0.000873326
-0.0753222
0.000664438
-0.0751642
0.00131292
-0.0753036
0.00109859
-0.0750849
0.00179424
-0.075447
0.00160029
-0.0751887
0.00229527
-0.0757237
0.00209587
-0.0758275
0.00280239
-0.0756647
0.00233115
-0.0761968
0.00338471
-0.00353543
-0.0764234
0.00329864
-0.0761932
0.00288085
-0.0768377
-0.0028492
0.00284653
-0.0778718
-0.00279462
-0.0783802
-0.0755346
0.0738374
-0.0753526
0.0010554
0.00703618
0.0760177
-0.0768703
-7.1402e-05
-0.000294404
0.0773181
-0.0773167
5.85749e-05
-9.84903e-05
0.0774465
-0.0774222
3.92575e-06
-0.000156532
0.0774405
-0.0774182
-7.05553e-05
-0.000109023
0.0774238
-0.0774142
-0.000106814
-0.000101764
0.0774104
-0.0774027
-0.000137623
-0.000124571
0.0773964
-0.0773872
-0.000173154
-0.000156115
0.0773786
-0.0773681
-0.000216663
-0.000195167
0.0773578
-0.0773466
-0.000270701
-0.000242618
0.0773356
-0.0773245
-0.000337387
-0.000300314
0.0773147
-0.0773063
-0.000421322
-0.000371936
0.0773002
-0.0772954
-0.000530051
-0.000463676
0.0772896
-0.0772772
-0.000667652
-0.000582087
0.0772536
-0.0772147
-0.000835481
-0.000729253
0.0771638
-0.0771002
-0.00102942
-0.000903972
0.0770379
-0.0769848
-0.00125072
-0.00110376
0.0768228
-0.0768125
-0.00153347
-0.00133786
0.0770363
-0.0765616
-0.00192853
-0.00166269
0.0764732
-0.0764913
-0.00230638
-0.0019566
0.0771933
-0.0781368
-0.00239555
-0.00242839
0.0781871
-0.0785351
-0.00244661
-0.00261166
-0.0761402
0.0772385
-0.00263881
0.0766383
-0.0771994
-0.00297431
-0.00246793
-0.0764417
0.0765886
-0.00197699
-0.00229509
-0.0768196
0.0768312
-0.00173821
-0.00182843
-0.0769803
0.0770206
-0.00136294
-0.00141199
-0.077068
0.0771103
-0.00108698
-0.00115789
-0.0771389
0.0771624
-0.000868269
-0.000921408
-0.077184
0.0772072
-0.000698632
-0.000742242
-0.077228
0.077248
-0.000556034
-0.000595284
-0.0772653
0.0772821
-0.000441001
-0.000473677
-0.0772967
0.077311
-0.000351158
-0.000377816
-0.0773237
0.0773367
-0.000280161
-0.000302655
-0.0773481
0.0773595
-0.000223658
-0.000243258
-0.0773694
0.0773789
-0.000177931
-0.000195357
-0.0773873
0.0773953
-0.000140513
-0.000156019
-0.0774018
0.0774091
-0.000108428
-0.000124201
-0.0774149
0.077418
-8.16944e-05
-9.93582e-05
-0.0774265
0.0774289
-6.11307e-05
-7.7285e-05
-0.077431
0.0774849
-4.44555e-05
-5.91818e-05
-0.0772077
0.0768199
-3.33945e-05
-3.94937e-05
-0.0768133
0.0782033
-0.000178904
5.43301e-05
0.000304819
0.00300727
-0.00152468
0.0794868
0.0821442
-0.00073645
-2.69609e-05
0.0787688
0.0778922
1.91388e-05
-6.32072e-06
0.0786859
0.0774667
-2.67572e-05
5.88232e-05
0.0786352
0.0773636
-8.66177e-05
4.36957e-05
0.0786126
0.0772576
1.71192e-05
-5.8859e-05
0.0787998
0.077393
4.19223e-05
4.03443e-06
0.0788023
0.0775395
-1.47269e-05
-0.000427257
0.0778492
0.0774258
0.0008618
-0.00279414
0.0787342
0.0782303
0.0842601
-0.00318338
0.00340726
-0.0766473
-0.0773159
-0.00306691
-0.0026707
0.00255037
-0.0782599
-0.0788814
-0.00232435
0.000239702
-0.0753059
3.82226e-05
-0.0752719
0.0832918
-0.077803
0.00548729
0.0820139
0.00585148
0.000594557
-0.0751388
0.000363638
-0.0750334
0.00102869
-0.075038
0.000780626
-0.0748463
0.0015507
-0.0750601
0.00129666
-0.0747813
0.00211267
-0.0752644
0.00188049
-0.0749733
0.00269148
-0.0756128
0.00243029
-0.0759266
0.00327737
-0.0756434
0.0032422
-0.0765582
0.00364063
-0.0764266
0.00290885
-0.0769
0.00376301
-0.00394409
-0.0771348
0.00426279
-0.0771471
0.00250991
-0.0778313
-0.0774504
0.0767256
-0.00321931
0.0030841
-0.0767871
-0.00374744
0.00409632
-0.078147
-0.00401325
0.0805726
-0.00188259
0.00245156
-0.0788289
-0.00256243
-0.0782016
-0.0752567
0.0759546
-0.0766955
0.00179635
0.00518783
0.0773943
-0.0774739
8.12674e-06
0.000404375
0.0774592
-0.0774213
2.06319e-05
-0.0001131
0.077475
-0.0774266
-4.44937e-05
-0.000102806
0.0774495
-0.0774337
-8.63395e-05
-8.61362e-05
0.0774349
-0.0774286
-0.000113132
-0.000100585
0.0774243
-0.0774195
-0.000142435
-0.000128831
0.077413
-0.077407
-0.000179081
-0.000162636
0.0773997
-0.0773919
-0.000224452
-0.000202544
0.0773835
-0.0773741
-0.000280068
-0.000250993
0.0773645
-0.077354
-0.000347898
-0.000309962
0.0773437
-0.0773335
-0.000431557
-0.000382196
0.0773249
-0.0773183
-0.000536672
-0.000472221
0.0773142
-0.0773113
-0.000670554
-0.000586228
0.0773081
-0.0773019
-0.000841682
-0.000732415
0.0772901
-0.0772703
-0.0010493
-0.000915758
0.0772443
-0.0772119
-0.00128312
-0.00112974
0.0771801
-0.0771587
-0.00155482
-0.00136968
0.0771574
-0.0771804
-0.00190551
-0.00166403
0.0770821
-0.0770144
-0.00237409
-0.00205488
0.0768728
-0.0766589
-0.00260941
-0.00256999
0.0766812
-0.0773525
-0.00177529
-0.00258942
0.0780035
-0.0782339
-0.00233204
-0.00167336
-0.0767041
0.0766289
-0.00289908
-0.00304541
-0.0771299
0.0770742
-0.00258305
-0.00296896
-0.0770044
0.0771041
-0.00207665
-0.00222532
-0.0771666
0.0771398
-0.00171143
-0.00189096
-0.0771821
0.0771966
-0.00137749
-0.00145426
-0.0772102
0.0772235
-0.0011003
-0.00117148
-0.0772349
0.0772462
-0.00087955
-0.000932796
-0.0772565
0.0772676
-0.000709784
-0.000752517
-0.0772787
0.077291
-0.000568389
-0.000606327
-0.0773031
0.0773159
-0.000453817
-0.000485759
-0.0773277
0.0773399
-0.000363374
-0.000389612
-0.0773511
0.0773622
-0.000291314
-0.00031381
-0.0773719
0.0773813
-0.000232987
-0.00025294
-0.0773895
0.0773969
-0.000185334
-0.000203588
-0.0774042
0.0774099
-0.000146253
-0.000163309
-0.0774157
0.0774216
-0.000114327
-0.000130017
-0.0774247
0.0774299
-8.68683e-05
-0.000102412
-0.0774339
0.0774357
-6.29197e-05
-8.13369e-05
-0.0774386
0.077443
-4.88641e-05
-6.20464e-05
-0.0774473
0.077451
-3.71514e-05
-4.37879e-05
-0.077576
0.0779988
-0.000601722
-7.06498e-05
-0.0777082
0.081013
0.000919181
0.000595477
0.00361183
0.0016299
-0.000432589
0.0782895
0.0797609
3.99102e-05
-1.46778e-05
0.0787436
0.0774995
-6.75601e-06
3.42981e-05
0.0786583
0.0774452
-6.54706e-05
7.07475e-05
0.0786299
0.0773324
-6.30042e-05
8.44541e-06
0.0786671
0.0772654
5.06379e-05
-7.85203e-05
0.0788277
0.0774521
5.69159e-05
-1.48115e-05
0.0787602
0.0775179
8.13151e-06
-0.000862557
0.0787037
0.0774191
2.93609e-05
-0.000725673
0.0794306
0.0773971
-0.00461161
0.00334171
0.0834126
0.0789228
0.00103462
-0.0119403
0.0929196
0.0872491
0.000284793
-0.0749961
4.29329e-05
-0.0749512
0.00253986
-0.00282134
-0.0779524
0.00206197
-0.0777237
0.0825933
-0.0887115
-0.00582207
-0.0178044
0.0572641
0.0534598
0.0729879
-0.008199
-0.0768762
0.0760348
-0.00149066
-0.0763545
-0.00334303
0.00070076
-0.0748109
0.000425888
-0.0746787
0.00122155
-0.0747088
0.000921967
-0.0744716
0.00184468
-0.0747921
0.00154401
-0.0744448
0.00250657
-0.0750795
0.00222571
-0.0747687
0.00317801
-0.0755134
0.0028262
-0.0755106
0.00385091
-0.0758537
0.00322112
-0.0768705
0.00424141
-0.0764052
0.00308056
-0.0774706
-0.00430848
-0.0774345
0.00495588
-0.0782107
0.0774592
-0.00355702
0.00431825
-0.0788266
-0.00370234
-0.078547
0.00543079
0.00461245
-0.0776632
0.00259718
-0.0779769
-0.0785945
0.00540338
0.0104327
-0.0225719
0.0694033
-0.0817699
0.00293811
-0.0106903
0.0745828
-0.074929
0.0828306
-0.080456
0.00311263
-2.93999e-05
0.0785497
-0.0774011
0.000647804
0.00328154
0.0774544
-0.0774419
-4.36851e-06
0.000457607
0.0774846
-0.0774361
-2.79547e-05
-7.03232e-05
0.0774671
-0.0774472
-6.4415e-05
-7.17873e-05
0.077453
-0.0774481
-9.11885e-05
-8.03229e-05
0.0774463
-0.0774436
-0.000115912
-0.000102366
0.0774399
-0.0774364
-0.000145862
-0.00013252
0.077432
-0.0774274
-0.000183629
-0.000167099
0.0774223
-0.0774168
-0.000229973
-0.000207646
0.0774111
-0.0774047
-0.000286425
-0.000256708
0.0773982
-0.077391
-0.000355097
-0.000316492
0.0773838
-0.0773762
-0.000439191
-0.000389394
0.0773691
-0.0773625
-0.000543306
-0.000479308
0.0773573
-0.0773538
-0.000673993
-0.000591421
0.0773537
-0.0773575
-0.000837826
-0.000732585
0.0773652
-0.0773759
-0.00103857
-0.000908063
0.0773859
-0.0773918
-0.00127724
-0.0011198
0.0773926
-0.0773912
-0.00155619
-0.00136888
0.0773933
-0.077412
-0.00188675
-0.00166193
0.0774591
-0.077558
-0.00227517
-0.00200786
0.0777099
-0.0775647
-0.00275466
-0.00241802
0.0772117
-0.0765342
-0.00245288
-0.00294237
-0.00217269
-0.0774868
0.0774692
-0.00320173
-0.00377499
-0.077769
0.077798
-0.0029281
-0.00334521
-0.0776138
0.0776201
-0.00258939
-0.00278471
-0.0773855
0.0773845
-0.0020756
-0.00199075
-0.0773707
0.0773537
-0.00169443
-0.00187715
-0.0773352
0.0773132
-0.00135547
-0.00143582
-0.0772998
0.0772996
-0.00110011
-0.00115807
-0.0773084
0.0773188
-0.000889939
-0.000941638
-0.0773258
0.0773308
-0.000714807
-0.000759491
-0.0773354