/*--------------------------------*- C++ -*----------------------------------*\
  =========                 |
  \\      /  F ield         | OpenFOAM: The Open Source CFD Toolbox
   \\    /   O peration     | Website:  https://openfoam.org
    \\  /    A nd           | Version:  10
     \\/     M anipulation  |
\*---------------------------------------------------------------------------*/
FoamFile
{
    format      ascii;
    class       volScalarField;
    location    "10.5";
    object      p;
}
// * * * * * * * * * * * * * * * * * * * * * * * * * * * * * * * * * * * * * //

dimensions      [0 2 -2 0 0 0 0];

internalField   nonuniform List<scalar> 
25879
(
0.00685001
0.0102317
0.00881205
0.00514662
0.0478807
0.0500578
-0.147203
-0.125728
-0.108672
-0.122719
-0.212828
-0.183638
-0.242935
-0.28863
-0.280976
0.234409
0.149301
-0.00966124
-0.13403
0.785508
0.776815
0.226048
0.348707
0.125509
0.126566
0.132978
0.131046
0.120263
0.125091
0.119867
0.118771
-0.297038
-0.301406
-0.297543
-0.0887674
-0.157061
-0.175763
-0.0878775
-0.0800405
-0.319738
-0.285479
-0.236613
0.361185
0.372235
0.374975
-0.124687
-0.140987
-0.389205
-0.374719
-0.396204
0.107002
0.127993
-0.668183
-0.481624
0.000531983
0.00245598
0.00384995
0.499673
0.509396
0.469772
0.453386
0.419102
0.416102
-0.000117789
0.00200745
0.000905196
-0.329201
-0.335457
-0.303195
-0.331094
-0.299165
0.181548
0.184888
0.189294
0.242472
0.38574
0.310488
0.0170313
0.0174085
0.0130601
0.392261
0.379881
0.823408
0.761594
0.749902
0.155062
0.163513
0.150919
-0.0124587
-0.00839921
-0.413159
-0.423892
-0.402731
0.114942
0.114829
0.0339993
0.0386178
0.0437023
-0.131503
-0.116392
-0.126619
-0.107307
-0.00608229
-0.00680718
-0.0164503
0.126425
0.124065
0.128144
0.181345
-0.194542
-0.212346
-0.129306
-0.123505
0.0057757
0.00580263
0.183688
0.171139
-0.206252
-0.0325196
-0.000587803
0.00394708
-0.176016
-0.180539
-0.20574
-0.210495
-0.421214
-0.418136
-0.320096
-0.30432
-0.299918
-0.312947
-0.299269
0.494863
0.478048
0.466026
0.47852
0.0101543
0.0144474
-0.14036
0.00345087
0.0287023
0.0284858
0.0289472
0.0299007
0.0309358
0.0320494
0.0332145
0.0344458
0.0357268
0.0370793
0.0385246
0.0400368
0.0416381
0.0433024
0.0450518
0.0468558
0.0487375
0.050662
0.0526541
0.0546751
0.0567509
0.0588393
0.060967
0.0630894
0.0652334
0.0673509
0.0694662
0.0715317
0.0735802
0.0755752
0.077522
0.0793082
0.0809216
0.0823185
0.0834676
0.085035
0.0869701
0.0812273
0.0816823
0.0884052
0.0284033
0.0274946
0.0276194
0.0903054
0.0844331
0.0861354
0.0809549
0.0827898
0.0768168
0.0789492
0.0724568
0.074661
0.0679901
0.0702429
0.0634814
0.065743
0.0590143
0.0612444
0.0546622
0.0568248
0.0504936
0.0525552
0.046569
0.0485006
0.0429385
0.0447168
0.039638
0.0412473
0.0366842
0.0381191
0.0340607
0.0353379
0.0316525
0.0328201
0.0296273
0.0305589
0.0289835
0.0310998
0.0290228
0.0299873
0.0333739
0.0322636
0.0358991
0.034588
0.0386656
0.0372399
0.0417093
0.0401493
0.045018
0.0433294
0.0485641
0.0467607
0.0523116
0.0504118
0.0562154
0.0542424
0.0602203
0.0582028
0.06426
0.0622328
0.0682468
0.0662576
0.0721015
0.0701821
0.075753
0.0739593
0.0787821
0.0773625
0.0802777
0.0278836
0.026801
0.0266619
0.0912945
0.0885365
0.0953861
0.0937022
0.0975683
0.0811685
0.078616
0.0786302
0.0291463
0.02804
0.0281683
0.0271875
0.0270236
0.0912911
0.0935918
0.0866364
0.0888481
0.0823359
0.0845232
0.0776875
0.0800361
0.0729181
0.0753077
0.0681088
0.0705139
0.0633213
0.065707
0.0586279
0.0609583
0.0540998
0.056339
0.0498058
0.0519198
0.0458081
0.047767
0.0421565
0.0439372
0.0388818
0.0404719
0.0359886
0.0373903
0.0334353
0.0346765
0.0311719
0.0322902
0.0294306
0.0302376
0.0280423
0.0287681
0.026462
0.0272682
0.0311406
0.0301207
0.033421
0.0322378
0.035767
0.0345699
0.038471
0.0371071
0.041418
0.0399372
0.0445943
0.0430043
0.0479775
0.0462905
0.0515371
0.0497692
0.0552349
0.0534063
0.0590218
0.0571584
0.0628345
0.0609703
0.0665821
0.0647668
0.0701741
0.0684476
0.0735036
0.0719387
0.0763776
0.0750478
0.0776991
0.0859682
0.027277
0.0902404
0.025803
0.0262927
0.0256433
0.0955261
0.0998118
0.0788326
0.0790464
0.0827769
0.0260786
0.0259633
0.0264023
0.0262611
0.098572
0.103496
0.101018
0.0936617
0.0961909
0.0883949
0.0910207
0.0832938
0.0858389
0.0781084
0.0807124
0.0729053
0.0755033
0.0677506
0.0703191
0.0626959
0.0652065
0.0578054
0.0602255
0.0531472
0.0554426
0.048788
0.0509259
0.0447862
0.046739
0.0411839
0.0429331
0.0379991
0.0395393
0.0352235
0.0365629
0.0328148
0.0339827
0.0307679
0.0317593
0.0291193
0.0299049
0.0276932
0.0284098
0.0269985
0.0291244
0.0273216
0.0281748
0.0311074
0.0301086
0.0332941
0.0321698
0.0356593
0.0344578
0.0382621
0.0369326
0.0410887
0.0396513
0.0441172
0.0425817
0.0473277
0.0457045
0.0506946
0.0489973
0.0541842
0.0524308
0.0577509
0.0559657
0.0613324
0.0595493
0.0648372
0.063106
0.0681589
0.066532
0.0711621
0.0697201
0.0736707
0.0724725
0.0754319
0.0747409
0.0758823
0.0756713
0.101923
0.10575
0.0264605
0.0861918
0.0251647
0.0250206
0.0911684
0.0972607
0.0758229
0.078759
0.0272328
0.103982
0.108102
0.0264602
0.0263577
0.0751491
0.0823656
0.0254248
0.0253059
0.0256492
0.0255554
0.025635
0.0256801
0.106048
0.110848
0.108871
0.100729
0.103315
0.0952268
0.098055
0.0893756
0.0922907
0.0836664
0.0865054
0.0780163
0.0808368
0.0724445
0.0752165
0.0670045
0.0697053
0.0617442
0.064348
0.0567244
0.0591999
0.0520096
0.0543244
0.0476607
0.0497855
0.043726
0.0456387
0.0402337
0.0419233
0.0371857
0.0386547
0.0345588
0.0358217
0.0323095
0.0333902
0.030405
0.0313143
0.0288078
0.0295708
0.0274055
0.0280891
0.0261168
0.0267567
0.0248742
0.0254782
0.0290047
0.0280949
0.030955
0.0299629
0.0330756
0.0319929
0.0353852
0.0342072
0.0378847
0.0366098
0.040577
0.0392071
0.0434482
0.041991
0.046481
0.0449455
0.0496532
0.0480513
0.0529341
0.0512825
0.0562803
0.0546025
0.05963
0.0579598
0.0628949
0.06128
0.065962
0.0644619
0.0686667
0.0673743
0.070828
0.069822
0.0722409
0.071654
0.0726537
0.0724959
0.0715889
0.0725432
0.110261
0.112841
0.0738618
0.0701063
0.0867388
0.0780258
0.0255106
0.0923093
0.0242823
0.0247327
0.0241345
0.0990564
0.106094
0.0727732
0.112428
0.114436
0.0687635
0.0823805
0.0245579
0.0244224
0.0247608
0.024675
0.0249124
0.0248522
0.0248269
0.024911
0.111386
0.114388
0.113337
0.106768
0.109367
0.101506
0.104148
0.0956112
0.0986324
0.0894342
0.0925198
0.0833597
0.0863815
0.077391
0.0803625
0.0715585
0.0744534
0.0659226
0.0687124
0.0605387
0.0631949
0.055468
0.0579598
0.050771
0.0530686
0.046499
0.0485786
0.042686
0.0445332
0.0393423
0.0409552
0.0364534
0.0378422
0.0339804
0.0351676
0.0318705
0.032883
0.030074
0.0309352
0.0285322
0.0292752
0.0271756
0.027843
0.0259128
0.0265449
0.0253099
0.0270093
0.025328
0.0261354
0.0287464
0.0278578
0.0306428
0.0296696
0.0326954
0.031649
0.0349106
0.0337807
0.037296
0.0360818
0.0398481
0.0385512
0.0425584
0.0411839
0.045413
0.0439685
0.048392
0.0468884
0.0514662
0.0499194
0.0545932
0.0530264
0.057712
0.0561585
0.0607371
0.0592428
0.0635563
0.0621816
0.0660099
0.0648413
0.0679078
0.067043
0.0689966
0.0685699
0.0691901
0.069198
0.0679489
0.0688118
0.0652648
0.0666944
0.116068
0.115756
0.0671908
0.0636373
0.0246858
0.0873197
0.0772752
0.0237011
0.023569
0.0936332
0.0715888
0.100914
0.108239
0.114116
0.025048
0.0650983
0.116937
0.116254
0.0613113
0.0244965
0.0242522
0.0821907
0.0239179
0.0238115
0.024117
0.0240324
0.0241999
0.0241735
0.0240864
0.0241698
0.0237382
0.0239339
0.112484
0.113438
0.113337
0.110043
0.111708
0.105725
0.10803
0.100625
0.103354
0.0946787
0.0976961
0.0884967
0.091601
0.0823079
0.0853949
0.0762061
0.0792425
0.0702624
0.0732089
0.0645569
0.0673751
0.0591579
0.0618144
0.0541296
0.0565931
0.0495273
0.0517715
0.0453917
0.0473987
0.0417396
0.0435043
0.0385645
0.0400929
0.0358365
0.0371467
0.033505
0.0346242
0.0315117
0.0324693
0.0297978
0.0306234
0.0283032
0.0290284
0.0269756
0.0276299
0.0257185
0.0263437
0.0245572
0.0251415
0.0234126
0.0239717
0.0266675
0.0258371
0.0283517
0.0274801
0.0301828
0.0292489
0.0321518
0.0311488
0.0342643
0.0331891
0.0365261
0.0353761
0.0389357
0.0377124
0.0414863
0.0401937
0.0441659
0.0428107
0.0469557
0.0455484
0.0498272
0.0483834
0.0527382
0.0512811
0.0556283
0.0541907
0.0584142
0.0570407
0.0609853
0.0597355
0.0631935
0.0621459
0.0648532
0.0641077
0.0657291
0.0654018
0.0656659
0.0658348
0.0642448
0.0651353
0.061841
0.0631228
0.0571906
0.0599733
0.0579177
0.0543384
0.11596
0.112779
0.0879743
0.076575
0.0234884
0.0947859
0.0696245
0.0228476
0.0232229
0.022668
0.10268
0.0620348
0.109942
0.0540543
0.115291
0.11712
0.115074
0.111328
0.0821956
0.0231419
0.0230071
0.0233516
0.0232586
0.0234655
0.0234143
0.0235033
0.0235048
0.0233661
0.0234598
0.0229934
0.0232127
0.108918
0.105911
0.107864
0.108874
0.109189
0.106832
0.108058
0.102991
0.105049
0.0981323
0.100521
0.0925888
0.095449
0.0866212
0.0896339
0.0805375
0.0835822
0.0744944
0.0775037
0.0686055
0.0715237
0.0629721
0.0657511
0.0576758
0.0602768
0.0527833
0.0551749
0.0483446
0.050504
0.0443899
0.0463051
0.0409208
0.0425949
0.0379167
0.039362
0.0353374
0.0365766
0.0331262
0.0341889
0.0312225
0.0321392
0.0295668
0.0303669
0.0281042
0.0288149
0.0267762
0.0274299
0.0255414
0.0261493
0.0243622
0.0249416
0.0237899
0.0247022
0.023202
0.0239271
0.0262238
0.0254448
0.0278574
0.0270229
0.0296119
0.0287192
0.0314879
0.0305334
0.0334932
0.0324738
0.0356307
0.034545
0.0379001
0.0367489
0.0402958
0.0390825
0.0428066
0.0415376
0.0454138
0.0440995
0.0480886
0.0467449
0.050789
0.0494389
0.0534554
0.0521311
0.0560069
0.0547518
0.058336
0.0572078
0.0603036
0.0593756
0.0617339
0.0611002
0.0624218
0.0621832
0.0621591
0.0624316
0.0606834
0.0615724
0.0579938
0.0595312
0.0530625
0.0558054
0.050953
0.108913
0.10309
0.0227393
0.0883376
0.0755914
0.0222937
0.0221093
0.0959965
0.0680173
0.104167
0.0597146
0.111452
0.053629
0.116109
0.116796
0.113157
0.0439559
0.0228444
0.105595
0.0993604
0.0224724
0.0221488
0.0818789
0.0225633
0.0224423
0.0227443
0.022657
0.0228384
0.0228081
0.022831
0.022854
0.0226636
0.0227681
0.0222978
0.0225086
0.0217668
0.0220391
0.0993425
0.0921832
0.0962106
0.103091
0.101766
0.103745
0.103645
0.102135
0.103082
0.0989735
0.100745
0.0946619
0.0969066
0.0895726
0.0922049
0.083983
0.0868201
0.0781845
0.0810962
0.0723725
0.0752707
0.0666909
0.0695072
0.0612585
0.0639369
0.0561673
0.0586649
0.0514858
0.0537713
0.047259
0.0493127
0.0435102
0.0453242
0.0402282
0.0418113
0.037384
0.0387528
0.0349324
0.0361119
0.0328162
0.0338355
0.0309762
0.0318647
0.0293569
0.0301419
0.0279074
0.0286139
0.0265796
0.0272309
0.0253363
0.0259495
0.0241456
0.0247343
0.0230118
0.0235759
0.0219036
0.0224507
0.0242515
0.023546
0.0257221
0.0249771
0.0272889
0.0264918
0.0289613
0.0281128
0.0307423
0.0298371
0.0326397
0.0316759
0.0346559
0.0336327
0.0367904
0.0357084
0.039038
0.0379004
0.0413872
0.0402007
0.043819
0.0425942
0.0463042
0.0450572
0.0488008
0.0475544
0.0512504
0.0500361
0.053575
0.0524345
0.0556719
0.0546599
0.0574104
0.0565961
0.058627
0.0580967
0.0591348
0.0589828
0.0587217
0.0590605
0.0572136
0.0581105
0.0542585
0.0559808
0.0497462
0.0520436
0.0467462
0.0481219
0.0947033
0.08721
0.0331235
0.0288669
0.0888952
0.07458
0.0214647
0.0970904
0.0664976
0.0213481
0.0216625
0.0211113
0.105593
0.0588059
0.11261
0.0492598
0.116285
0.0384385
0.115618
0.110389
0.101266
0.0811556
0.0888806
0.0309132
0.0266947
0.0816453
0.0217392
0.0215569
0.0220302
0.0219004
0.0221733
0.0221132
0.0222319
0.0222187
0.022184
0.0222237
0.0219966
0.0221091
0.0216167
0.0218285
0.0210921
0.0213693
0.0843974
0.0730698
0.0792353
0.0920545
0.0885972
0.0962388
0.094555
0.0974646
0.0971733
0.096562
0.0972228
0.0940971
0.0955148
0.0904223
0.0923844
0.0858952
0.0882536
0.0808026
0.0834009
0.0754261
0.0781355
0.0699788
0.0727004
0.0646234
0.0672805
0.0594906
0.0620219
0.054679
0.0570391
0.0502578
0.0524159
0.046268
0.0482064
0.0427336
0.0444435
0.03963
0.0411283
0.0369287
0.038231
0.0345829
0.0357139
0.0325393
0.0335262
0.0307436
0.0316132
0.0291453
0.0299223
0.0276992
0.0284056
0.0263656
0.0270202
0.0251108
0.02573
0.0239184
0.0245071
0.0227725
0.0233375
0.0222162
0.0224334
0.0211329
0.0217845
0.0237649
0.0230956
0.0251738
0.0244596
0.0266686
0.0259098
0.0282572
0.0274487
0.0299456
0.0290885
0.031738
0.0308283
0.0336375
0.0326741
0.0356433
0.0346271
0.0377497
0.0366843
0.0399448
0.0388371
0.0422087
0.0410697
0.0445119
0.0433577
0.0468125
0.0456658
0.0490536
0.0479449
0.0511602
0.0501296
0.0530357
0.0521344
0.0545583
0.0538506
0.0555787
0.0551428
0.055923
0.0558487
0.0554014
0.0557828
0.0538555
0.0547724
0.0508484
0.0525762
0.0468789
0.0488272
0.043363
0.0452398
0.033595
0.0393793
0.024884
0.0299472
0.0229627
0.0191863
0.022764
0.0207901
0.0735793
0.0653666
0.0893753
0.0737087
0.0208033
0.020566
0.0981766
0.0653291
0.106708
0.056074
0.113108
0.0453687
0.115618
0.0360319
0.113362
0.0273568
0.106542
0.0958152
0.0814495
0.0167818
0.0643216
0.0207499
0.0204803
0.0201316
0.0560612
0.01361
0.0163751
0.0200632
0.0813842
0.021212
0.0210191
0.0214829
0.0213571
0.0216238
0.0215719
0.0216428
0.0216487
0.0215556
0.0216137
0.0213419
0.0214721
0.0209685
0.0211736
0.0204561
0.0207334
0.019852
0.0201644
0.0649264
0.0480007
0.057221
0.0764058
0.0711433
0.0842078
0.0807063
0.0887549
0.0868563
0.0906879
0.0900894
0.0904798
0.0908013
0.0887069
0.0897743
0.0857061
0.0873366
0.0818001
0.0838567
0.0772744
0.079595
0.0724094
0.0748707
0.0674166
0.0699175
0.0624679
0.0649273
0.0577
0.0600538
0.053215
0.0554165
0.0490814
0.0511007
0.0453337
0.0471575
0.0420161
0.0436297
0.0390793
0.0404994
0.0365036
0.0377481
0.0342467
0.0353376
0.0322607
0.0332224
0.0304976
0.0313537
0.0289128
0.0296851
0.0274671
0.0281745
0.0261268
0.0267855
0.0248646
0.0254871
0.0236626
0.0242577
0.0225091
0.0230804
0.0213996
0.0219523
0.0203156
0.0208532
0.0219782
0.021366
0.0232513
0.0226052
0.0245955
0.0239135
0.0260184
0.0252966
0.0275252
0.0267603
0.0291221
0.0283119
0.0308134
0.0299556
0.0326014
0.0316952
0.0344847
0.0335313
0.0364566
0.03546
0.0385045
0.037472
0.0406078
0.0395508
0.0427366
0.0416713
0.0448495
0.0437983
0.0468913
0.0458836
0.0487904
0.0478643
0.0504561
0.0496595
0.0517762
0.0511681
0.0526153
0.0522663
0.0528149
0.0528072
0.0522137
0.0526243
0.0506418
0.05157
0.0477613
0.0493756
0.044206
0.045976
0.0398153
0.0423463
0.0322922
0.0361426
0.0237554
0.0281593
0.0203088
0.0452979
0.0374829
0.0129171
0.0101671
0.089937
0.072855
0.019522
0.0988864
0.063613
0.0197885
0.0200521
0.0195215
0.107184
0.0529815
0.112718
0.0422645
0.11382
0.032685
0.109947
0.0246372
0.101397
0.0166172
0.0886423
0.0722719
0.0532177
0.00984583
0.0327628
0.0251356
0.00691022
0.0810105
0.0202756
0.0200392
0.0206816
0.0204957
0.0209543
0.0208349
0.0210787
0.0210358
0.0210663
0.0210885
0.0209463
0.0210197
0.0207152
0.020849
0.0203551
0.0205527
0.0198483
0.0201142
0.0192473
0.0195571
0.0401839
0.0180672
0.0299985
0.0567095
0.0490753
0.0683662
0.0629735
0.0763114
0.072698
0.0813293
0.0791857
0.083711
0.0827452
0.0841805
0.0841761
0.083064
0.0837991
0.0807221
0.0820269
0.0774601
0.079189
0.0735402
0.0755649
0.0692322
0.0714214
0.0647442
0.0669994
0.0602481
0.0624877
0.0558817
0.0580412
0.0517484
0.0537804
0.0479164
0.0497913
0.0444447
0.0461222
0.0413066
0.0428277
0.0385251
0.039873
0.0360643
0.0372561
0.033887
0.0349421
0.0319518
0.0328913
0.0302174
0.0310616
0.0286454
0.029413
0.0272021
0.0279093
0.0258587
0.0265193
0.0245923
0.0252169
0.0233859
0.0239823
0.022229
0.0228017
0.0211165
0.0216699
0.0205787
0.0189331
0.0203321
0.019175
0.0197569
0.0214974
0.0209069
0.0227168
0.0220982
0.0239998
0.0233497
0.0253522
0.0246668
0.0267801
0.0260562
0.0282892
0.027524
0.0298838
0.0290755
0.0315654
0.0307136
0.0333316
0.0324381
0.035175
0.0342442
0.0370819
0.0361216
0.0390314
0.038053
0.0409933
0.0400131
0.0429268
0.0419667
0.0447788
0.0438672
0.0464812
0.045654
0.0479492
0.0472511
0.0490796
0.0485646
0.0497497
0.0494817
0.0498176
0.0498695
0.0491447
0.0495832
0.0475542
0.0484842
0.0448422
0.0463315
0.0414336
0.043205
0.036639
0.0393252
0.0300284
0.0334205
0.0224394
0.0262965
0.0151514
0.018774
0.00819863
0.0117204
0.00378919
0.00172268
0.00489496
0.0110653
0.00468139
0.0900567
0.0718819
0.0192659
0.0190055
0.0992467
0.0615582
0.106985
0.0505005
0.111268
0.0397867
0.110755
0.0304771
0.10508
0.0216332
0.0945165
0.0139337
0.0795799
0.00684847
0.0612135
0.0404569
0.0180478
-0.00474656
0.000300362
0.0011528
0.0186128
-0.00115021
-0.00265512
-0.0104933
0.0808002
0.0197604
0.0195216
0.0201685
0.0199791
0.0204345
0.0203207
0.0205383
0.0205066
0.0204998
0.0205353
0.0203523
0.0204386
0.0201062
0.0202436
0.019746
0.0199431
0.0192618
0.0195198
0.0186838
0.0189842
0.0180709
0.0183727
0.0115825
-0.0153922
-0.00102209
0.0326833
0.0228177
0.0486597
0.0411876
0.0603538
0.0550103
0.0684968
0.0647598
0.073858
0.0714732
0.0768165
0.0756078
0.0778589
0.0775585
0.0773559
0.0777806
0.0756433
0.0766343
0.0730058
0.074425
0.069699
0.0714248
0.065959
0.0678696
0.0619928
0.0639934
0.057967
0.0599782
0.0540169
0.0559751
0.0502447
0.052103
0.0467226
0.0484483
0.0434932
0.0450795
0.0405572
0.041985
0.0379266
0.0392045
0.0355768
0.0367178
0.033477
0.0344972
0.0315927
0.0325097
0.0298893
0.0307202
0.0283344
0.0290949
0.026899
0.0276031
0.0255587
0.0262181
0.0242935
0.0249176
0.0230883
0.023684
0.0219327
0.0225048
0.0208262
0.0213763
0.0197625
0.0202888
0.0187364
0.019248
0.0188071
0.0177514
0.0182769
0.0198885
0.0193501
0.0210044
0.0204391
0.0221727
0.0215816
0.0233965
0.0227772
0.0246812
0.0240308
0.0260331
0.0253482
0.0274582
0.0267361
0.0289603
0.0281994
0.03054
0.0297404
0.0321941
0.031358
0.0339142
0.0330466
0.035686
0.0347948
0.0374879
0.0365849
0.03929
0.0383912
0.0410524
0.0401792
0.042724
0.0419035
0.0442405
0.0435066
0.0455227
0.044917
0.046476
0.0460478
0.0469892
0.0467962
0.0469367
0.0470428
0.0461956
0.0466616
0.0446014
0.0455208
0.042047
0.043435
0.0387021
0.040488
0.0339875
0.0365525
0.0279218
0.031075
0.0210076
0.0245082
0.0139489
0.0174877
0.00690248
0.0104212
0.0035346
-0.0275938
-0.0313342
-0.00379795
-0.00554887
0.0901044
0.0707921
0.099134
0.0598683
0.0175455
0.0172386
0.0182419
0.0184549
0.0179692
0.10593
0.0486426
0.108648
0.0380436
0.106191
0.0282803
0.0984328
0.0194927
0.0857492
0.0113481
0.0685832
0.00456656
0.0481981
-0.00127622
0.0254668
0.00132703
-0.0230432
-0.00619318
-0.0467902
-0.0494195
-0.00833794
0.0804186
0.0187706
0.0185073
0.0192619
0.0190213
0.0196582
0.0194666
0.0199182
0.0198111
0.0200038
0.019982
0.0199426
0.0199897
0.0197724
0.0198693
0.0195128
0.0196544
0.0191575
0.0193486
0.0187062
0.0189433
0.0181485
0.0184407
0.0178427
-0.0508484
-0.0691314
-0.0691605
-0.0195697
-0.0342526
0.00556556
-0.00635311
0.0255991
0.016144
0.0411188
0.0338963
0.0527356
0.0473931
0.0610482
0.057256
0.0667083
0.0641849
0.0701092
0.0686727
0.0716574
0.0710937
0.0717153
0.0718552
0.0705881
0.0712848
0.0685419
0.069666
0.0658198
0.0672504
0.0626369
0.0642742
0.0591856
0.0609343
0.0556272
0.0574111
0.0520914
0.0538494
0.0486783
0.0503641
0.0454614
0.0470411
0.0424736
0.0439376
0.0397373
0.0410724
0.037258
0.0384657
0.0350204
0.0361098
0.0330012
0.0339847
0.0311727
0.0320645
0.0295065
0.0303207
0.0279757
0.0287255
0.026556
0.0272531
0.0252263
0.0258808
0.0239692
0.0245894
0.0227713
0.0233633
0.021624
0.0221912
0.0205229
0.0210683
0.0194621
0.0199862
0.0189523
0.0184154
0.0174141
0.0179098
0.0194388
0.0189238
0.0205085
0.0199675
0.0216261
0.0210613
0.0227924
0.0222029
0.0240122
0.0233951
0.0252915
0.0246439
0.0266362
0.0259553
0.0280495
0.0273341
0.0295314
0.0287819
0.0310778
0.0302969
0.0326793
0.0318724
0.0343212
0.0334964
0.0359815
0.0351507
0.0376307
0.0368097
0.03923
0.0384395
0.0407304
0.0399963
0.0420713
0.0414255
0.0431792
0.0426601
0.0439674
0.04362
0.0443352
0.0442116
0.0441721
0.0443281
0.0433659
0.0438585
0.0417759
0.0426798
0.039337
0.0406586
0.0360484
0.0378184
0.0316098
0.0339825
0.0260064
0.028909
0.0196089
0.0228716
0.0129007
0.0162844
0.00598674
0.00944454
-0.000636256
0.00260439
-0.00682988
-0.00379236
-0.0110647
-0.0127113
-0.00982999
0.0898903
0.0697861
0.0169271
0.017763
0.0174955
0.0983607
0.0585299
0.103822
0.0471278
0.104632
0.0364684
0.100002
0.0266177
0.0899562
0.0174229
0.0748499
0.00935187
0.0554822
0.00249284
0.032881
-0.0033134
0.00807146
-0.0088153
-0.017418
-0.0432768
-0.0681808
-0.0904363
-0.0140651
-0.013535
-0.0155718
-0.0172319
0.0799203
0.0182817
0.0180195
0.0187666
0.0185297
0.0191582
0.0189758
0.0194043
0.0193034
0.019475
0.0194614
0.0193946
0.0194515
0.0192058
0.0193113
0.0189368
0.0190809
0.0185913
0.0187742
0.0181666
0.0183899
0.0176374
0.0179036
0.0170468
0.0173478
0.0164457
0.0167455
-0.0867165
-0.099227
-0.0527847
-0.0700889
-0.0236979
-0.0374729
-4.61992e-05
-0.0113041
0.0191077
0.010087
0.0341637
0.0271293
0.0456227
0.0403164
0.0540286
0.0501757
0.0599179
0.0572657
0.0636784
0.0620468
0.0656722
0.0648768
0.0662316
0.0661155
0.0656373
0.0660647
0.0641384
0.0649881
0.0619599
0.0631219
0.0593039
0.0606808
0.0563456
0.0578531
0.0532378
0.0548022
0.0501037
0.0516673
0.0470399
0.048558
0.0441161
0.0455568
0.0413731
0.04272
0.0388342
0.0400766
0.0365079
0.0376442
0.0343866
0.0354221
0.0324537
0.0333974
0.030688
0.031551
0.0290672
0.0298606
0.0275691
0.0283038
0.0261734
0.0268594
0.0248622
0.0255081
0.0236204
0.0242333
0.0224359
0.0230215
0.0213007
0.0218624
0.0202094
0.0207501
0.0191648
0.0196799
0.0181765
0.0186625
0.0172384
0.0177012
0.0170681
0.0161517
0.0166122
0.0180079
0.0175356
0.0189883
0.0184923
0.0200137
0.0194955
0.0210818
0.0205425
0.0221924
0.0216315
0.0233498
0.0227648
0.0245596
0.0239477
0.025827
0.0251857
0.0271549
0.0264832
0.0285426
0.0278414
0.029985
0.0292574
0.0314724
0.0307239
0.0329892
0.0322283
0.0345136
0.0337522
0.0360165
0.03527
0.0374604
0.0367487
0.0387986
0.0381463
0.0399739
0.039411
0.0409181
0.0404801
0.0415519
0.04128
0.0417845
0.0417253
0.0415178
0.0417207
0.04065
0.0411675
0.0390655
0.0399551
0.036709
0.0379851
0.0335165
0.0352311
0.0293213
0.0315516
0.0241482
0.0268443
0.0182285
0.0212725
0.0118569
0.0150864
0.00517796
0.00854674
-0.00139811
0.00187612
-0.00782237
-0.00465
-0.0109584
-0.0184982
-0.0204903
0.0892416
0.0688328
0.0967152
0.0573395
0.0160063
0.0157207
0.0167853
0.0169705
0.0165309
0.10043
0.0458623
0.0990219
0.0351171
0.0919436
0.0249539
0.0793296
0.0157355
0.0616723
0.00767908
0.0398362
0.000784053
0.0147327
-0.00536377
-0.011955
-0.0109328
-0.0392036
-0.0160468
-0.0658633
-0.0913405
-0.112603
-0.0217762
-0.0239904
-0.154703
-0.150215
0.079217
0.0172964
0.0170367
0.0178066
0.0175517
0.0182832
0.018052
0.018664
0.0184888
0.0188948
0.0188012
0.0189516
0.0189453
0.0188553
0.0189202
0.0186524
0.0187643
0.0183782
0.018523
0.0180423
0.0182184
0.0176343
0.0178491
0.0171404
0.0173952
0.0165893
0.016867
0.0162921
-0.0850855
-0.10121
-0.0543291
-0.0693684
-0.0272398
-0.0401239
-0.00490362
-0.0155109
0.0133198
0.00470867
0.0278243
0.0210176
0.0390548
0.0338254
0.0474751
0.0435924
0.0535301
0.0507781
0.0575833
0.0557904
0.0599601
0.0589645
0.0609604
0.0606179
0.0608437
0.0610287
0.0598416
0.0604415
0.0581623
0.0590757
0.0559924
0.0571289
0.0534963
0.0547763
0.0508141
0.0521709
0.0480622
0.0494406
0.0453332
0.0466898
0.0426948
0.0439991
0.0401908
0.0414237
0.0378473
0.0389975
0.0356761
0.0367396
0.0336757
0.0346547
0.0318356
0.0327361
0.0301406
0.0309707
0.0285735
0.0293419
0.0271166
0.0278321
0.0257533
0.0264241
0.0244685
0.0251018
0.0232488
0.0238511
0.0220837
0.0226599
0.0209656
0.021519
0.0198909
0.0204227
0.0188634
0.0193705
0.0178892
0.0183688
0.0174216
0.0167095
0.0158496
0.016284
0.0176012
0.0171535
0.0185406
0.0180655
0.0195228
0.0190269
0.0205426
0.0200281
0.0215994
0.0210662
0.0226966
0.0221426
0.0238393
0.0232618
0.0250323
0.0244292
0.0262778
0.0256484
0.0275745
0.02692
0.0289167
0.0282404
0.0302939
0.0296017
0.0316904
0.0309909
0.0330844
0.0323894
0.0344475
0.033772
0.0357434
0.0351066
0.0369277
0.0363529
0.0379469
0.0374621
0.0387376
0.0383756
0.039227
0.0390256
0.0393333
0.0393343
0.0389691
0.0392166
0.0380425
0.0385835
0.0364589
0.0373389
0.0341626
0.0354038
0.0310786
0.0327285
0.0271115
0.0292088
0.0222988
0.0248048
0.016763
0.0196253
0.0107077
0.0137792
0.00433144
0.00755407
-0.00218033
0.00107247
-0.00869927
-0.00544476
-0.0152674
-0.0119603
-0.0221122
-0.0186415
-0.0276675
-0.0297594
-0.0258398
0.087957
0.0677862
0.0154472
0.0163505
0.01611
0.0939608
0.0560905
-0.14538
-0.163818
-0.161748
0.095522
0.0446406
0.0915594
0.0337181
0.0817516
0.0235465
0.0663225
0.0144356
0.0458723
0.00643647
0.0213167
-0.000662225
-0.00609432
-0.00724761
-0.0346967
-0.013015
-0.0634246
-0.019143
-0.0912444
-0.0252079
-0.116558
-0.136524
-0.153213
-0.172481
-0.0315648
-0.0317461
-0.0340545
-0.0359723
0.0781454
0.0168469
0.0165974
0.0173456
0.017097
0.0178082
0.0175847
0.0181742
0.0180068
0.0183903
0.018304
0.0184335
0.0184339
0.0183247
0.0183956
0.0181119
0.0182281
0.0178357
0.01798
0.0175098
0.0176793
0.0171247
0.0173257
0.0166668
0.0169046
0.0161431
0.0164107
0.015582
0.0158665
0.015039
0.0153106
-0.11406
-0.129893
-0.0832499
-0.0990169
-0.0546474
-0.0682073
-0.030009
-0.0419025
-0.00906711
-0.0190394
0.00816116
-8.37537e-06
0.0220724
0.0155155
0.0330253
0.0279007
0.0413979
0.037515
0.0475633
0.0447388
0.0518497
0.0499263
0.0545496
0.0533833
0.0559333
0.0553928
0.0562399
0.0562094
0.0556837
0.0560588
0.0544569
0.0551441
0.0527321
0.0536477
0.0506613
0.0517319
0.0483749
0.049538
0.0459824
0.047186
0.0435711
0.0447744
0.0412069
0.0423797
0.038935
0.0400571
0.0367842
0.0378429
0.0347693
0.035759
0.0328937
0.033814
0.0311525
0.0320066
0.0295354
0.0303289
0.0280298
0.0287693
0.0266221
0.0273144
0.0252989
0.0259506
0.0240474
0.0246647
0.0228563
0.0234448
0.0217161
0.0222802
0.0206201
0.0211627
0.0195665
0.0200878
0.0185582
0.0190561
0.0176014
0.0180722
0.0167016
0.0171432
0.0158674
0.0162761
0.0155512
0.0147788
0.0151735
0.0163477
0.0159491
0.0172005
0.0167693
0.0180993
0.0176446
0.0190381
0.0185643
0.0200105
0.0195203
0.0210149
0.0205086
0.0220537
0.0215297
0.0231317
0.0225875
0.0242527
0.0236866
0.0254186
0.02483
0.0266272
0.0260178
0.0278724
0.0272458
0.0291434
0.0285055
0.030424
0.0297837
0.031693
0.0310616
0.0329224
0.0323148
0.0340776
0.0335119
0.0351162
0.0346147
0.0359881
0.0355769
0.0366346
0.036344
0.036989
0.0368534
0.0369771
0.0370345
0.0365209
0.0368105
0.0355379
0.0361017
0.0339489
0.0348244
0.0316972
0.0329106
0.0287146
0.0303038
0.0249431
0.0269294
0.0204114
0.0227691
0.0152204
0.0178931
0.00947595
0.0123964
0.00334637
0.00644661
-0.00304584
0.000175905
-0.0096164
-0.00630807
-0.0163889
-0.0129633
-0.0236016
-0.0199103
-0.0274386
-0.0387373
-0.0407377
0.0858053
0.0664533
-0.176453
0.0898507
0.0546857
0.014674
0.014422
0.0154671
0.0156275
0.0152447
0.0888435
0.0432471
0.0819983
0.0324498
0.0691652
0.0224137
0.0506422
0.0134512
0.0271713
0.00528105
-0.000225629
-0.00240129
-0.0299624
-0.00893656
-0.0605551
-0.0156988
-0.0907456
-0.0220717
-0.119109
-0.0289241
-0.143867
-0.0362106
-0.161059
-0.181205
-0.192188
-0.043893
-0.0460384
0.0764943
0.0159293
0.0156949
0.0164141
0.0161742
0.0168972
0.0166568
0.0173413
0.0171274
0.0176896
0.0175311
0.0178904
0.0178115
0.0179209
0.0179273
0.0178026
0.0178779
0.0175841
0.0177026
0.0173091
0.0174516
0.0169952
0.0171571
0.0166345
0.0168219
0.01621
0.0164308
0.0157187
0.0159711
0.015195
0.0154577
0.014932
-0.139076
-0.193448
-0.109605
-0.123801
-0.0813775
-0.0956206
-0.0548617
-0.0674329
-0.0322351
-0.0431821
-0.0127063
-0.0220475
0.00356596
-0.00417447
0.0168787
0.0105797
0.0275193
0.0225196
0.0357948
0.0319371
0.0420203
0.0391487
0.0464857
0.0444595
0.0494534
0.0481438
0.0511668
0.050455
0.0518451
0.0516245
0.0516854
0.05186
0.0508652
0.0513487
0.0495437
0.0502588
0.0478616
0.0487403
0.0459403
0.0469244
0.043882
0.0449228
0.0417696
0.0428282
0.0396666
0.0407136
0.0376188
0.0386334
0.0356566
0.0366254
0.0337979
0.0347134
0.03205
0.0329097
0.0304123
0.0312173
0.0288791
0.0296329
0.0274418
0.0281488
0.0260901
0.0267557
0.0248136
0.0254429
0.0236017
0.0242
0.0224447
0.0230168
0.0213344
0.0218841
0.0202654
0.0207948
0.0192363
0.0197456
0.0182507
0.0187375
0.0173156
0.0177758
0.0164378
0.0168686
0.0160235
0.0152384
0.0145269
0.0148909
0.0159942
0.0156153
0.0168068
0.0163953
0.0176655
0.0172313
0.018561
0.0181092
0.0194866
0.0190203
0.0204396
0.0199596
0.0214218
0.0209268
0.0224368
0.0219249
0.0234881
0.0229577
0.0245767
0.0240277
0.0257001
0.0251343
0.0268515
0.0262728
0.0280199
0.0274344
0.0291891
0.0286056
0.0303382
0.0297678
0.0314399
0.030897
0.0324612
0.0319632
0.0333619
0.0329297
0.0340949
0.033753
0.0346059
0.0343824
0.0348337
0.0347599
0.0347112
0.0348214
0.034168
0.0344976
0.0331308
0.0337167
0.0315312
0.032406
0.0293139
0.0305044
0.026421
0.0279568
0.0228129
0.0247081
0.0185073
0.020745
0.01358
0.0161176
0.0081182
0.0109106
0.00222313
0.00521863
-0.00401547
-0.000855582
-0.0105688
-0.00725086
-0.0174811
-0.01397
-0.0249319
-0.0211214
-0.0330167
-0.0288348
-0.0423837
-0.0375143
-0.0517204
-0.0532777
-0.0476302
0.0825383
0.0646406
0.0141837
0.0150836
0.0148696
0.084128
0.0529111
0.0801492
0.0416823
0.0700839
0.0311277
0.0539017
0.0213597
0.0320181
0.0123507
0.00527131
0.00390338
-0.025053
-0.00355481
-0.0572389
-0.0110402
-0.0896476
-0.0180389
-0.120842
-0.0255284
-0.0496264
-0.149488
-0.0331292
-0.0411685
-0.171724
-0.189867
-0.206792
-0.214269
-0.213982
-0.0544271
-0.0579082
-0.0593926
-0.0604471
0.0740315
0.0155359
0.0153053
0.0159963
0.0157655
0.0164601
0.0162301
0.0168826
0.0166797
0.0172108
0.0170622
0.017395
0.0173238
0.017414
0.0174254
0.0172893
0.0173672
0.0170689
0.0171877
0.0167981
0.0169374
0.0164981
0.0166515
0.0161614
0.0163357
0.0157684
0.0159729
0.0153125
0.0155476
0.0148174
0.0150664
0.0143182
0.0145709
0.013846
0.014082
-0.162918
-0.193213
-0.17832
-0.131744
-0.147458
-0.104367
-0.117401
-0.0789632
-0.0916694
-0.0549021
-0.0664965
-0.0340204
-0.0441154
-0.015847
-0.0245776
-0.000492567
-0.00781838
0.0122175
0.00618319
0.0225162
0.017658
0.0306529
0.0268423
0.0368926
0.0339972
0.0414881
0.039384
0.0446734
0.0432456
0.046667
0.0458085
0.0476686
0.047282
0.0478589
0.0478561
0.0474015
0.0477028
0.0464433
0.0469774
0.0451144
0.0458184
0.0435275
0.0443473
0.0417784
0.0426682
0.0399453
0.0408682
0.0380894
0.0390169
0.0362562
0.0371676
0.0344776
0.0353584
0.0327736
0.0336152
0.0311546
0.0319529
0.0296237
0.0303779
0.0281791
0.0288907