/*--------------------------------*- C++ -*----------------------------------*\
  =========                 |
  \\      /  F ield         | OpenFOAM: The Open Source CFD Toolbox
   \\    /   O peration     | Website:  https://openfoam.org
    \\  /    A nd           | Version:  10
     \\/     M anipulation  |
\*---------------------------------------------------------------------------*/
FoamFile
{
    format      ascii;
    class       surfaceScalarField;
    location    "55";
    object      phi;
}
// * * * * * * * * * * * * * * * * * * * * * * * * * * * * * * * * * * * * * //

dimensions      [0 3 -1 0 0 0 0];

internalField   nonuniform List<scalar> 
57492
(
0.000236117
-1.06119e-05
-4.37966e-05
-0.000181709
-0.000162863
0.000267918
0.000131063
-2.8773e-05
8.08912e-05
0.0003235
-0.000375619
0.00315976
0.00338643
-0.000272073
-0.00627412
-0.00862823
0.00404528
0.00774271
0.00076343
-0.00070329
-0.000368748
0.000308608
-0.00136195
0.000238297
-8.4158e-05
0.00120781
0.000290852
-0.000889376
0.0015863
-0.00463353
0.00442607
-0.00137884
0.0013391
0.00424962
-0.00400241
-0.000612871
-0.000207009
0.00068582
0.00013406
-0.000122701
-0.000833795
0.000343626
0.000232245
-0.000325868
-2.90787e-05
-5.33936e-05
7.86294e-05
0.00180227
-0.00173783
-0.000651673
0.000587238
0.000257847
0.00145393
9.04895e-05
-0.000324275
0.000788127
0.00333529
-0.00379915
-0.000660479
0.00326116
-0.00292495
0.000135484
-0.000288616
0.000153132
-0.00166371
0.00122023
0.000578958
-0.00466004
0.000189982
0.00333587
0.00113419
0.00122769
-0.00473016
-0.00115758
-0.0001331
-0.000196963
-0.000702905
0.00103297
-0.000287413
0.000176365
-2.20523e-05
-0.00254814
0.00216256
0.000735424
-0.000349842
-0.00305106
0.000925395
-0.000422484
-0.00112777
0.000596457
0.000456779
7.45303e-05
-0.000778991
-0.000362308
1.35329e-05
-0.000367239
-0.00113377
0.00129075
0.000210255
-0.000416019
0.000116378
-6.75979e-05
0.000794931
-0.000529237
-0.000493019
0.000227325
-0.00068607
0.00055003
0.000930971
-0.000939138
-0.0017998
0.00173815
0.00100079
-0.00213389
-0.000511445
0.0017062
-0.000707359
-0.000152068
0.000859427
-0.000271267
-0.000436091
-0.00137444
0.00189197
-0.000788798
0.000203069
-0.000767154
-0.000810354
-0.000604224
0.000842521
-0.000233022
-0.00190183
0.00115082
0.000751007
-0.00432165
0.00241982
0.00489916
-0.000853257
0.000377236
-0.00442314
0.00360721
-5.32569e-05
0.00134521
-0.000760208
0.00490019
-0.00499324
0.0014938
0.000321157
-0.0015241
0.00150511
-9.54721e-05
0.00182168
-0.000682778
-0.00135618
0.000217277
0.0020396
0.000103242
0.0009337
-0.000580178
0.00115159
0.0009016
0.00123992
-0.00475185
-0.000638245
0.000550958
0.00483914
-0.0048849
-0.00030249
0.000435546
0.00121478
0.0045134
-0.00443797
-0.00129021
0.000886192
-0.00430495
-0.00278427
0.00253204
0.00253868
-0.00228646
-0.00027728
0.00320632
-0.00571331
1.48838e-05
-0.000116869
-8.08807e-07
0.000102794
-0.000321609
1.06254e-05
6.71124e-05
-0.000136144
-0.000252578
-5.64319e-05
6.67534e-06
1.1161e-05
-1.19698e-05
8.87612e-06
2.28491e-06
0.00730705
0.00378587
-0.00588183
-0.00521109
0.00233671
-0.000701385
0.00567172
-0.00785626
0.0030978
0.00709517
0.00229172
-0.00636211
0.00162398
-0.00286592
0.00213379
-0.000891849
0.00235647
-0.00291457
0.00218208
-2.99062e-05
2.18633e-05
-2.56892e-06
-7.02765e-05
-3.42628e-06
-0.000222943
-2.90426e-05
-0.00293868
0.00534851
0.00339297
-0.00580279
0.00436319
-0.0049454
0.00298447
0.00474848
-0.00238445
0.0100905
-0.00148468
-0.001789
-0.00681681
0.00224025
0.00542348
0.00242676
0.00160418
-0.00500961
0.00564569
4.681e-05
-7.5583e-05
0.000127701
0.000816444
0.00175789
-0.000626448
-0.00194789
0.00104028
9.96686e-05
-9.58309e-05
2.63462e-05
6.94847e-05
-0.000298211
0.00020238
-0.00660558
0.00342279
-0.00201318
0.00519597
-0.0057417
-0.00249768
0.0016338
-0.00262496
0.00208859
-0.00520533
0.00195183
-2.65816e-05
-0.000944209
-0.000981041
-0.000711585
0.00222749
0.000435928
-0.000834612
-8.52431e-05
0.000208269
-0.000771529
-8.96647e-05
-0.000271452
-0.00144429
-0.000237158
-6.26995e-05
1.85097e-05
0.000281348
-0.000215941
-0.000522675
0.000501458
0.000137595
1.68465e-05
-0.000370382
7.91591e-05
-4.26377e-06
0.00010033
-2.66083e-06
-0.000641083
0.000369631
8.34395e-05
-0.000724522
0.000172406
-0.000470617
0.0042736
0.00333163
-0.000178516
0.00212865
-0.00648328
-1.0352e-05
0.00226393
-0.00179747
-0.000456114
0.000291777
0.0031641
-0.00346623
0.00327075
0.00184556
-0.000504133
-0.00461217
-0.00103096
0.000497792
0.00380392
0.00399453
-0.00317994
-0.00164201
-0.00303466
0.00125018
0.00342648
-0.00118573
0.00350514
-0.00396142
0.000422365
-0.00464275
8.25914e-05
3.37955e-05
-4.59782e-06
0.00104649
-0.000617012
-0.000592339
7.70908e-05
-0.000325106
0.0012945
0.000364107
-1.90989e-05
-0.000187248
0.00033174
6.83257e-05
-0.000212818
0.000991582
-0.00121483
3.59952e-05
-0.000357536
0.000830806
0.000518312
-0.000125071
9.92744e-05
-0.00611495
0.00365053
0.00588721
0.00772213
-0.00200754
-0.00821227
-0.00285682
0.004464
-9.71163e-05
-0.000874428
-0.000162223
-0.000522266
9.13102e-06
4.79435e-05
-0.000129926
3.71588e-05
4.48233e-05
-0.000130034
0.000144599
3.33784e-05
-0.000299552
3.9593e-05
-0.000265324
-0.000312783
5.58413e-05
-0.000803784
-0.000335968
-0.000856899
-0.000919715
0.00105133
0.000725281
3.51021e-05
0.00045331
-0.00134531
-0.00119977
0.000315158
-0.00293469
0.001331
-6.00111e-05
-0.00350349
0.000809727
-0.000240932
0.000876031
-0.00334733
0.00256412
-9.28161e-05
0.000679053
-0.00272837
0.00292535
0.00252824
-0.0101972
-0.00176607
0.00218252
0.00302224
-0.00345732
0.00206092
-0.000321018
4.5437e-07
1.63921e-05
-3.37263e-06
3.82701e-06
0.000284295
-4.13056e-05
0.00560201
-0.00341601
-0.002473
0.000286998
0.00484431
-2.50369e-06
0.00464882
0.00016163
-0.00508773
0.00137656
0.00330186
-2.96112e-05
0.000547966
-0.00291865
0.00374725
5.38226e-06
-8.75489e-06
0.000759202
-0.00212005
-0.0028468
0.00123212
0.00308396
0.000896033
-5.08573e-05
-0.000942108
9.69322e-05
0.000297199
-8.72359e-05
-0.00115284
0.000253023
0.00144985
0.000209013
-0.00106466
-0.000134905
7.57771e-05
-7.38855e-06
1.03049e-05
-2.59967e-06
-3.16697e-07
1.09239e-05
-2.38916e-07
-1.80735e-05
4.65221e-05
-0.000104335
6.87367e-05
-0.0017186
0.00265294
-0.000761937
0.00291799
-0.00378652
-0.000850076
6.17783e-06
-0.00158176
0.0018286
-0.00399406
0.000241624
-0.00273791
-0.00183258
0.00057642
0.00269201
0.00291107
-0.0054131
0.00260468
0.00429368
-0.00420635
0.00223994
-0.00308422
0.00160635
-0.000762063
0.00245512
-0.0030234
0.00280822
0.00437096
0.00187598
0.00499906
-0.000234205
-0.00496496
0.000200105
0.00553891
-0.000662456
0.000122606
0.00552949
-0.000902027
8.07598e-05
-0.00470822
0.00396907
-0.00137417
0.0029346
0.00430789
-0.00140391
0.00114076
-0.00404474
0.00126931
0.00438798
-0.0013494
-0.00387624
-0.00166558
0.0041379
0.00106656
-0.00369261
-0.00185948
0.00362038
-0.00237829
-0.00323942
0.00215404
0.00346368
-0.00239444
-0.00326754
0.00328368
0.00223443
0.00304635
-0.00147409
-0.00380668
0.00302018
-0.00318019
-0.00258871
0.00261307
0.00299583
-0.00204041
0.00249804
-0.00406909
0.00361517
-0.00102017
-0.00506576
0.00105286
0.00537496
-0.00136207
0.00190989
-0.000266254
0.000994113
-0.00106006
0.000332199
-0.000109189
0.00127447
-0.00143153
-5.30991e-05
0.000306018
0.000111188
-0.00115555
-0.00180491
0.00117401
-1.78148e-07
-6.07686e-08
3.11142e-07
-4.89291e-07
-0.000107809
-0.00199405
0.00152168
-0.00177493
-7.27518e-05
0.00173987
4.99257e-05
-0.0018604
3.55441e-05
-0.000250646
0.00165676
0.00027554
-0.00168165
0.00170075
0.000485392
-0.00243679
0.00169808
0.00165943
-2.46124e-06
4.90168e-07
3.57666e-05
-4.77415e-06
2.3129e-06
-4.28398e-06
-5.56339e-06
4.25697e-06
-5.51254e-05
1.03753e-06
-6.60093e-06
5.2945e-06
-4.40205e-05
2.13262e-05
-0.000264719
2.22311e-05
-6.62517e-05
4.35573e-05
5.31913e-05
-5.33648e-06
-0.000172925
-1.6904e-05
7.00952e-05
-2.22405e-05
0.00142415
0.00328163
-0.00420799
0.00133009
-0.00446896
0.00456302
0.00471627
-0.000104548
-0.00118221
-0.00244439
0.00115805
0.00246855
-0.000710517
0.00272183
-0.00319353
0.000157226
-0.00331213
0.00402626
-0.00404293
-1.5548e-05
3.22233e-05
0.00404497
3.38384e-05
-5.2553e-05
-2.80832e-05
-0.00401472
-1.28169e-07
0.00409511
-3.71004e-06
-4.64306e-05
0.00418743
5.75772e-05
-0.000149897
2.7511e-05
0.00431076
-0.000150843
0.00425819
-0.00421448
-1.61917e-05
-0.000203225
0.00453106
-1.70719e-05
0.00415709
-0.000102131
-0.00406663
-9.02788e-05
-0.00403307
-3.72631e-05
-0.00400701
7.7702e-06
-0.00407134
4.87898e-05
-0.00398272
-0.00011671
-0.000198396
0.00474614
-1.66879e-05
0.00397885
-2.01525e-05
-2.30017e-05
-0.00395796
-3.37621e-05
-0.0039922
-1.35191e-05
-3.13446e-05
-0.00416205
0.00023544
-2.97289e-06
0.00476491
-1.57976e-05
0.00399532
-1.94449e-05
-0.00411416
9.06201e-05
0.00478292
-2.678e-06
-1.53231e-05
-2.65086e-06
0.00479991
-1.43421e-05
0.00401082
-1.81774e-05
0.00402579
-1.76239e-05
-2.68145e-05
-0.00411148
-2.37622e-05
-0.00411047
-3.05054e-05
-2.27548e-06
0.00481607
-1.38907e-05
0.00403991
-1.63942e-05
-3.63473e-06
-0.00408343
-2.44138e-05
-0.00408236
-3.17459e-05
-2.13151e-06
0.00483111
-1.29079e-05
0.0040537
-1.59194e-05
-3.66577e-06
-0.00405448
-2.52864e-05
-0.0040535
-3.25241e-05
-1.51304e-06
0.00484512
-1.24938e-05
0.00406691
-1.47261e-05
-3.91037e-06
-0.00402477
-2.57967e-05
-0.00402373
-3.36843e-05
-8.85056e-07
0.00485753
-1.15196e-05
0.00408036
-1.43284e-05
-3.94145e-06
-0.00399427
-2.65569e-05
-0.00399326
-3.44079e-05
7.30566e-07
0.00486794
-1.11485e-05
0.00409426
-1.31706e-05
5.08628e-06
-0.00397237
-2.69896e-05
-0.00395274
-3.54357e-05
3.34992e-06
0.00487478
-1.01848e-05
0.00411045
-1.28426e-05
2.15349e-05
-0.00382957
-0.000164336
-0.00385448
-7.67233e-05
8.99241e-06
0.00487564
-9.85742e-06
0.00411221
7.23502e-06
2.08131e-05
-0.00381677
-3.36127e-05
-0.00379478
-3.88854e-05
1.9625e-05
0.00486493
-8.91221e-06
0.00409258
3.92542e-05
4.92968e-05
-0.00365076
-0.000215299
-0.00365433
-9.11531e-05
0.000207358
0.00466619
-8.62121e-06
0.00422603
7.39029e-05
5.64328e-05
-0.00360252
-0.000104674
-0.00358312
-1.47822e-05
0.000183631
0.004331
0.000151567
0.00430431
0.000105353
9.15824e-05
-0.00016424
-0.00352986
-0.00353724
4.57012e-05
1.1955e-05
3.45548e-05
0.00428449
0.00428436
3.19062e-05
-0.0036222
0.00371124
-0.000193721
-0.00361041
-0.00017603
0.00015807
-0.000170095
-0.00351784
4.37061e-05
-0.00342287
-0.00366193
0.00372436
-9.60457e-05
-0.000165985
-0.00361695
0.00364554
-5.55751e-05
-5.69279e-05
-0.00367326
0.00370037
-5.29012e-05
-5.42812e-05
-0.00372661
0.00375223
-5.004e-05
-5.15238e-05
-0.00377705
0.00405958
-4.70938e-05
-4.85794e-05
-0.00407154
0.00403838
3.30311e-05
-4.57217e-05
-0.00419064
0.00417918
-4.11012e-05
-0.000120029
-0.00406479
0.00402421
-0.000109314
6.79592e-05
-0.00394652
0.0039643
-3.48571e-05
-7.31507e-05
-0.00398114
0.00399727
-3.19257e-05
-3.35213e-05
-0.00401256
0.00402723
-2.90065e-05
-3.06195e-05
-0.00404109
0.00405435
-2.61656e-05
-2.7755e-05
-0.00406685
0.00407877
-2.34407e-05
-2.49907e-05
-0.00408997
0.00410064
-2.08522e-05
-2.23546e-05
-0.00411064
0.00412013
-1.83998e-05
-1.98588e-05
-0.00410481
0.00420962
4.67605e-05
6.69293e-06
0.00420687
3.73092e-05
-2.67382e-05
7.63744e-05
0.00423485
-1.21202e-05
0.00426974
0.00421732
-0.00413924
-4.17552e-06
-0.00426684
0.00426569
3.30576e-05
5.58252e-05
0.00412954
-0.00410052
-2.17883e-05
2.95567e-05
0.00408992
-0.00407861
-2.4487e-05
-2.34374e-05
0.00406676
-0.00405414
-2.73447e-05
-2.61776e-05
0.00404095
-0.00402695
-3.04006e-05
-2.91058e-05
0.00401234
-0.00399686
-3.3652e-05
-3.22318e-05
0.00398076
-0.0039638
-3.7108e-05
-3.55522e-05
0.00402685
-0.0040024
-4.06499e-05
-3.90773e-05
0.00405009
-0.00398614
-0.000101218
-4.25796e-05
0.00393936
-0.00389229
1.72165e-06
-3.90078e-05
0.00391867
-0.00392077
-1.14187e-05
-9.03348e-05
0.00377657
-0.00375175
-5.53254e-05
-5.35771e-05
0.00372631
-0.00369995
-5.88876e-05
-5.71855e-05
0.003673
-0.00364515
-6.2258e-05
-6.06365e-05
0.00361671
-0.00362803
-6.54049e-05
-6.38741e-05
0.00360002
-0.00362283
-6.83437e-05
-6.68906e-05
0.00356783
-0.00348508
-3.70523e-05
-6.97784e-05
-0.00341693
-2.44463e-05
-0.00360491
-0.000175588
0.00422743
5.58103e-05
-1.54203e-05
0.00426899
8.7847e-05
-0.000107906
-0.00340282
3.04376e-05
-0.00335952
0.00014535
-0.00017143
-0.00357883
-0.00348039
-0.00361463
0.00358598
-0.000165071
0.00362515
-0.0036234
-0.000177344
-0.000165507
-0.00356933
0.00359875
-0.000125473
-0.000149331
-0.00362737
0.00365546
-8.36674e-05
-8.55439e-05
-0.0036827
0.00370933
-7.95314e-05
-8.15166e-05
-0.00373509
0.00376025
-7.51951e-05
-7.72917e-05
-0.00378455
0.00380818
-7.07201e-05
-7.28839e-05
-0.00383088
0.00393012
-6.62154e-05
-6.84187e-05
-0.00387401
0.00389451
-6.16068e-05
-6.3911e-05
-0.00402178
0.00396951
-5.70457e-05
-5.93124e-05
-0.00395103
0.0039685
-5.23257e-05
-5.46683e-05
-0.00398507
0.00400097
-4.78225e-05
-5.00931e-05
-0.00401603
0.00403047
-4.34429e-05
-4.56801e-05
-0.00404411
0.00405716
-3.92148e-05
-4.13985e-05
-0.00406946
0.00408119
-3.5177e-05
-3.72892e-05
-0.00409222
0.00410273
-3.13569e-05
-3.3386e-05
-0.00411258
0.00412193
-2.77506e-05
-2.97059e-05
-0.00413039
0.00417172
5.436e-06
-1.77386e-06
3.77013e-06
-1.97332e-05
0.00425081
-1.05199e-05
0.00424172
-0.00416678
0.00421519
7.39671e-06
4.22525e-05
0.00421049
-0.00420377
2.63382e-05
0.00418371
1.13553e-05
5.49287e-06
3.47794e-05
0.00422872
0.0042555
0.00419626
-0.00415731
-4.31302e-05
4.83149e-05
0.00411254
-0.00410256
-3.17645e-05
-1.52128e-05
0.00409211
-0.00408096
-3.56389e-05
-3.38867e-05
0.00406929
-0.00405686
-3.97729e-05
-3.78476e-05
0.00404388
-0.00403009
-4.41874e-05
-4.2087e-05
0.00401572
-0.00400051
-4.88665e-05
-4.66008e-05
0.00398469
-0.00396802
-5.37823e-05
-5.13673e-05
0.00395075
-0.00393256
-5.88466e-05
-5.63432e-05
0.00391371
-0.00395087
-6.40614e-05
-6.14287e-05
0.00392324
-0.00385224
-6.92722e-05
-6.66348e-05
0.00387068
-0.00380751
-7.45923e-05
-7.18985e-05
0.00378401
-0.00375959
-7.97443e-05
-7.70769e-05
0.00373458
-0.00370867
-8.47975e-05
-8.21896e-05
0.00368219
-0.00365481
-8.96356e-05
-8.71234e-05
0.00362687
-0.00359805
-9.42163e-05
-9.18181e-05
0.0035687
-0.00353851
-9.85284e-05
-9.62493e-05
0.00350786
-0.00344238
-0.000102541
-0.000100425
0.00339189
-0.00331557
-4.58859e-05
-7.49309e-05
-0.00361609
-0.000178735
1.46377e-05
-9.83545e-05
-0.0032758
-0.00326417
-3.67567e-05
-0.000181766
-0.0033194
7.64607e-06
0.00419702
0.00419704
2.14574e-05
-0.000113784
0.000100016
-0.00356507
-0.000144723
-0.00358515
-1.00257e-05
-9.31863e-05
-0.00317259
-6.27433e-05
-0.00321146
-0.00356214
0.00422747
-0.00420831
-1.1764e-05
0.00419081
4.42996e-05
6.09737e-05
-2.4842e-05
0.00419259
2.89722e-05
0.00422904
-0.00357029
0.00364139
-0.00021582
-0.000194964
0.000141665
-0.00353185
0.00362066
2.60595e-05
0.000170978
-0.0038177
-0.000144593
-0.00366881
0.0036704
-0.000178932
-0.00020616
-0.00365266
0.00362251
-0.000134928
-0.000147762
-0.00362392
0.00361479
-0.000116338
-0.000150743
-0.00364269
0.00367001
-0.000110993
-0.000113442
-0.0036965
0.0037224
-0.00010543
-0.000108003
-0.00374746
0.00377192
-9.96566e-05
-0.000102351
-0.00379554
0.00381853
-9.37138e-05
-9.65023e-05
-0.00384064
0.0038621
-8.76755e-05
-9.05299e-05
-0.00388268
0.00390263
-8.1564e-05
-8.44862e-05
-0.0039217
0.00394011
-7.54541e-05
-7.83802e-05
-0.00395772
0.00397471
-6.93189e-05
-7.22786e-05
-0.00399086
0.00400638
-6.33378e-05
-6.62432e-05
-0.00402108
0.00403518
-5.75387e-05
-6.03822e-05
-0.0040485
0.00406124
-5.19596e-05
-5.47207e-05
-0.00407326
0.00408472
-4.6644e-05
-4.93022e-05
-0.0040955
0.00410577
-4.16256e-05
-4.41659e-05
-0.0041154
0.00412456
-3.69072e-05
-3.93354e-05
-0.0041445
0.00415926
-9.32598e-06
-2.17122e-05
-6.79349e-06
2.20047e-05
-1.0854e-05
0.00423966
-3.25772e-05
-6.1247e-06
0.00423573
0.00423115
0.00421981
0.00420063
-0.00418882
1.45223e-05
-0.00420153
0.00418502
3.79742e-05
1.04519e-05
0.00413314
-0.0041394
-3.68719e-05
-7.36112e-06
0.00411531
-0.00410555
-4.15268e-05
-3.9303e-05
0.00409533
-0.00408442
-4.65425e-05
-4.41043e-05
0.00407302
-0.00406087
-5.19174e-05
-4.92539e-05
0.00404819
-0.00403473
-5.76498e-05
-5.47667e-05
0.00402071
-0.00400586
-6.37098e-05
-6.06245e-05
0.00399044
-0.00397417
-7.00502e-05
-6.67896e-05
0.00395732
-0.00393957
-7.65936e-05
-7.32018e-05
0.00392121
-0.00390197
-8.32988e-05
-7.97885e-05
0.00388211
-0.00386132
-9.00591e-05
-8.64969e-05
0.00383996
-0.00381771
-9.68437e-05
-9.32585e-05
0.00379484
-0.00377107
-0.000103509
-9.99511e-05
0.00374673
-0.00372152
-0.000110016
-0.000106528
0.00369574
-0.0036691
-0.000116275
-0.000112899
0.00364192
-0.00361391
-0.000122232
-0.000118996
0.00358538
-0.00355605
-0.00012786
-0.000124779
0.00352624
-0.00349565
-0.000133131
-0.000130229
0.00343526
-0.00334301
-0.000138131
-0.000135325
0.00327794
-0.00325645
-8.42411e-05
-0.000101826
-5.14453e-05
2.21751e-05
-0.00318219
-0.00321086
-9.703e-05
0.000128497
-0.0035519
-7.19868e-05
-0.0033406
1.67928e-05
0.0041679
0.00420569
8.30396e-06
0.000182991
-0.00368878
4.94401e-05
-0.00319986
0.000816113
-0.00293767
0.00381964
5.78618e-05
-0.000107793
-0.00316093
-3.52431e-06
-0.0031208
-0.00234985
0.00360452
0.000404751
-0.00178173
-0.000292582
-0.00350563
-0.00345129
0.00362667
-4.40891e-06
0.000155179
-1.94251e-06
-0.00361901
0.00361445
-0.000211259
-0.000136928
-0.00361387
0.0035916
-0.000156672
-0.000205579
-0.00359699
0.00361245
-0.000150384
-0.000153152
-0.00360846
0.00363599
-0.000143874
-0.00014675
-0.00366277
0.00368901
-0.000137238
-0.000140218
-0.00371448
0.0037394
-0.000130348
-0.000133471
-0.00376352
0.00378708
-0.000123213
-0.000126475
-0.00380983
0.00383199
-0.000115871
-0.00011925
-0.00385331
0.00387403
-0.000108391
-0.000111855
-0.0038939
0.00391316
-0.00010083
-0.000104358
-0.0039316
0.0039494
-9.32589e-05
-9.68107e-05
-0.00396641
0.00398281
-8.57267e-05
-8.92841e-05
-0.00399842
0.00401343
-7.83456e-05
-8.18513e-05
-0.00402766
0.00404131
-7.1187e-05
-7.46116e-05
-0.00405421
0.00406656
-6.43079e-05
-6.76243e-05
-0.0040782
0.00408932
-5.77609e-05
-6.09447e-05
-0.00409977
0.00410973
-5.15874e-05
-5.46199e-05
-0.00411908
0.00412798
-4.58032e-05
-4.86814e-05
-0.00414939
0.00418047
-4.04063e-05
-4.31232e-05
-0.00417763
0.00418174
-1.58736e-05
-3.9538e-06
-0.00420462
0.00420534
1.60747e-05
2.14175e-05
4.16679e-05
-2.16733e-05
0.00421573
-1.29334e-05
-2.11451e-05
0.00423942
0.00419663
3.60903e-05
1.59369e-05
0.00418764
0.00424557
-2.18404e-05
6.9016e-06
0.00420753
0.0042139
-5.52159e-06
-2.15886e-05
0.0042328
0.00423042
0.00422593
-0.00420471
1.67565e-05
-0.00429696
0.00418892
8.64522e-05
-6.2726e-05
0.00418767
-0.00417163
-1.51834e-06
-6.59337e-06
0.00413624
-0.00412779
-4.53217e-05
-4.27454e-05
0.00411893
-0.00410946
-5.09981e-05
-4.81683e-05
0.00409954
-0.00408896
-5.71204e-05
-5.40191e-05
0.0040779
-0.00406613
-6.36907e-05
-6.03156e-05
0.00405384
-0.0040408
-7.069e-05
-6.70538e-05
0.00402722
-0.00401286
-7.80766e-05
-7.4203e-05
0.00399793
-0.00398219
-8.57902e-05
-8.17127e-05
0.00396588
-0.00394872
-9.37529e-05
-8.9514e-05
0.00393098
-0.00391238
-0.000101894
-9.75304e-05
0.0038932
-0.00387315
-0.000110114
-0.000105681
0.00385253
-0.00383104
-0.000118328
-0.000113878
0.00380898
-0.00378607
-0.000126423
-0.000122009
0.00376261
-0.00373831
-0.000134318
-0.000129989
0.00371348
-0.00368782
-0.000141926
-0.000137729
0.00366167
-0.00363472
-0.000149183
-0.000145152
0.00360729
-0.0035791
-0.000156047
-0.000152206
0.00355047
-0.00352111
-0.000162493
-0.000158859
0.00349134
-0.00346093
-0.000168542
-0.000165096
0.00339181
-0.00330182
-0.000174239
-0.000170941
0.00327812
-0.00323733
-0.000148584
-0.00012073
-0.000102487
7.52909e-05
-0.00313373
-0.00318554
-0.00015427
0.000123026
-0.00349193
-1.24277e-05
-0.00327874
0.000314364
-0.00318704
5.07179e-05
-0.0032541
0.00421052
-0.00421049
1.60424e-05
0.00420068
-1.12992e-05
2.90622e-05
-1.80002e-05
0.00422173
-1.4802e-05
0.00423278
0.000336552
-0.00278883
8.78132e-05
-0.00313332
-0.00155742
-0.00190595
-0.002804
0.00326173
-5.29761e-05
-8.26267e-05
7.12193e-05
-0.00312233
-0.000130617
-0.00313755
-0.00256939
-0.000527198
-0.00339504
-0.00343457
0.0035074
-7.72432e-05
-1.76559e-05
-0.00356497
0.0035452
-0.00019149
-0.000194498
-0.00352709
0.00355494
-0.000184521
-0.000187472
-0.00358229
0.00360929
-0.000177392
-0.000180493
-0.00363574
0.0036618
-0.00016993
-0.000173202
-0.00368719
0.00371212
-0.000162168
-0.000165609
-0.00373634
0.00376007
-0.000154072
-0.000157693
-0.00378305
0.00380551
-0.000145672
-0.00014946
-0.00382721
0.00384836
-0.00013702
-0.000140949
-0.00386873
0.00388853
-0.00012819
-0.000132225
-0.00390754
0.00392597
-0.000119261
-0.000123367
-0.00394361
0.00396067
-0.000110318
-0.000114454
-0.00397696
0.00399268
-0.000101443
-0.000105572
-0.00400763
0.00402203
-9.27375e-05
-9.68095e-05
-0.00403568
0.00404878
-8.42894e-05
-8.82649e-05
-0.00406118
0.00407304
-7.61731e-05
-8.00178e-05
-0.00408423
0.00409492
-6.84518e-05
-7.21366e-05
-0.00410498
0.00411457
-6.11753e-05
-6.46774e-05
-0.00412357
0.00413214
-5.43724e-05
-5.76807e-05
-0.00414017
0.00414781
-4.80446e-05
-5.11587e-05
-0.00418897
0.00418129
-8.19456e-06
-4.51091e-05
-7.78489e-06
2.92557e-05
-6.18177e-05
0.00424829
2.38482e-06
5.14723e-06
0.00423188
0.00422827
-4.55584e-06
-1.16271e-06
0.00419335
0.00417919
-3.39984e-05
4.8153e-05
0.00419337
0.00417874
0.00426057
0.00423119
-0.00421266
-1.77618e-06
-0.00418482
0.00423165
3.9622e-05
-1.63566e-05
0.00419348
-0.00414767
-4.73305e-05
-2.57722e-05
0.00414005
-0.0041319
-5.3465e-05
-5.0364e-05
0.00412337
-0.00411425
-6.01152e-05
-5.67024e-05
0.00410471
-0.00409453
-6.73e-05
-6.35636e-05
0.00408389
-0.00407257
-7.50109e-05
-7.09565e-05
0.00406076
-0.00404823
-8.3217e-05
-7.88629e-05
0.00403519
-0.0040214
-9.18659e-05
-8.72413e-05
0.00400709
-0.00399199
-0.000100887
-9.60311e-05
0.00397635
-0.00395991
-0.000110195
-0.000105154
0.00394291
-0.00392511
-0.000119699
-0.000114523
0.00390675
-0.00388758
-0.000129291
-0.000124038
0.00386786
-0.00384732
-0.000138862
-0.000133595
0.00382626
-0.00380438
-0.000148297
-0.000143076
0.00378199
-0.00375882
-0.000157496
-0.000152377
0.00373515
-0.00371071
-0.000166364
-0.000161399
0.00368581
-0.00366016
-0.000174825
-0.000170055
0.00363409
-0.00360731
-0.000182826
-0.000178282
0.00358013
-0.00355229
-0.000190331
-0.000186036
0.0035241
-0.00349531
-0.00019733
-0.00019329
0.00346622
-0.00343665
-0.000203816
-0.000200028
0.00335109
-0.00328996
-0.000209717
-0.000206284
0.00323228
-0.00318084
-0.000182063
-0.000211946
-0.000100708
9.87114e-05
-0.00313556
-0.00313827
-0.000143272
9.49993e-05
-0.00327257
1.43199e-05
-0.00324234
1.91922e-05
0.00418663
0.00422133
-4.47883e-06
0.00020064
-0.00305112
-0.000297024
-0.00369719
2.30834e-05
-0.00310894
5.18714e-05
-0.00321816
8.89991e-05
-0.0031511
-0.00365782
-0.000817524
0.000284638
-0.000556959
-0.0033855
-0.000151234
-0.00326131
7.24614e-05
-0.00309608
-0.000134289
5.67626e-05
-0.00305803
-0.000127763
-0.0031448
-0.00328572
-0.00311289
0.00328043
-0.000220517
0.00324758
-0.0035335
-0.000531609
-0.000392503
-0.00340966
0.00348607
-0.000153652
-0.000146889
-0.00351269
0.00353924
-0.000218047
-0.000221117
-0.00356549
0.00359153
-0.000210557
-0.000213719
-0.00361711
0.00364241
-0.000202695
-0.000206078
-0.0036672
0.00369164
-0.000194369
-0.000197986
-0.00371548
0.00373892
-0.000185607
-0.000189454
-0.00376172
0.00378407
-0.000176422
-0.000180491
-0.00380574
0.00382694
-0.000166866
-0.000171134
-0.00384743
0.00386741
-0.000157005
-0.00016144
-0.00388668
0.00390541
-0.000146926
-0.000151488
-0.00392341
0.00394088
-0.000136725
-0.000141369
-0.00395761
0.00397379
-0.000126504
-0.000131183
-0.00398925
0.00400417
-0.000116365
-0.000121032
-0.00401838
0.00403206
-0.000106416
-0.000111018
-0.00404505
0.00405751
-9.67571e-05
-0.000101249
-0.00406931
0.00408062
-8.74759e-05
-9.18177e-05
-0.00409128
0.00410148
-7.86465e-05
-8.28036e-05
-0.00411107
0.00412023
-7.03269e-05
-7.42729e-05
-0.00412882
0.004137
-6.25554e-05
-6.62739e-05
-0.00414468
0.00415198
-5.53468e-05
-5.8832e-05
-0.00415882
0.00419932
-4.86949e-05
-5.19484e-05
-0.00420809
0.00422327
8.57282e-07
-1.65571e-05
-0.00417222
0.00419465
-3.23309e-06
3.97516e-05
4.60529e-05
-3.26785e-05
0.00421851
1.48854e-05
-4.2941e-05
0.0042227
0.00424757
3.81342e-05
9.47373e-06
0.00420068
0.00423373
-4.17762e-06
-1.17809e-06
0.00419871
0.00418449
6.50856e-06
-1.1807e-05
0.00419867
0.00418407
-1.40894e-05
2.65369e-06
0.00423317
0.00423467
9.45871e-06
-8.72288e-06
0.00422059
0.0042449
0.00424884
-0.00419568
-1.35397e-05
-0.00423389
0.00421419
1.09851e-05
1.04673e-05
0.00419903
-0.00418399
-1.6813e-05
-1.30043e-05
0.00415874
-0.0041518
-5.42697e-05
-5.1027e-05
0.00414452
-0.00413674
-6.12438e-05
-5.76404e-05
0.00412859
-0.00411989
-6.88223e-05
-6.48528e-05
0.00411077
-0.00410106
-7.70146e-05
-7.26762e-05
0.00409091
-0.00408012
-8.58028e-05
-8.11063e-05
0.00406887
-0.00405694
-9.51464e-05
-9.01148e-05
0.00404453
-0.00403141
-0.000104984
-9.96513e-05
0.00401779
-0.00400345
-0.000115235
-0.000109645
0.00398859
-0.00397298
-0.000125803
-0.000120009
0.00395686
-0.00393998
-0.000136581
-0.000130643
0.00392259
-0.00390443
-0.000147451
-0.000141433
0.00388576
-0.00386634
-0.000158286
-0.000152258
0.00384643
-0.00382576
-0.000168963
-0.000162991
0.00380462
-0.00378275
-0.000179366
-0.000173515
0.00376043
-0.00373741
-0.000189389
-0.000183717
0.00371396
-0.00368984
-0.000198947
-0.000193502
0.00366533
-0.00364018
-0.000207974
-0.000202793
0.00361468
-0.00358859
-0.000216422
-0.000211534
0.00356219
-0.00353526
-0.000224264
-0.000219688
0.00350806
-0.0034804
-0.000231482
-0.000227227
0.00345254
-0.00342425
-0.000238014
-0.000234137
0.00339582
-0.00333392
-0.00024396
-0.000240372
0.00327412
-0.00319412
-0.000207765
-0.000203071
-0.000174397
0.000117652
-0.00308805
-0.00316748
-0.000201041
6.82374e-05
-0.00314017
-0.00354099
-0.000549468
7.0863e-05
-0.0030989
0.00425108
-0.00425735
3.03204e-06
0.00425177
-4.36251e-05
1.52244e-05
-1.38921e-05
0.00421926
2.22361e-05
0.00420717
1.5189e-05
-0.00320566
5.2771e-05
-0.00318193
-1.04405e-05
-0.00324973
8.98107e-05
-0.00316845
0.000126527
-0.00316584
0.000162776
-0.00310315
-0.000160788
0.00015899
-0.00308626
-0.000222027
-0.00310624
-0.00320229
-0.00352637
0.00339446
-0.000399697
-0.000482188
0.000562906
-0.00362171
0.00364077
-0.00375165
-0.000371306
-0.000435076
-0.00329486
0.00337668
-0.000302333
-0.000292903
-0.00346931
0.00353376
-0.000218103
-0.000239515
-0.00355866
0.00358343
-0.000242809
-0.000246025
-0.00360784
0.00363203
-0.000234751
-0.000238128
-0.00365579
0.00367929
-0.000226191
-0.000229837
-0.0037023
0.003725
-0.000217072
-0.000221002
-0.00374717
0.00376898
-0.000207415
-0.000211622
-0.00379021
0.00381104
-0.000197254
-0.000201722
-0.00383126
0.00385105
-0.000186652
-0.000191352
-0.00387019
0.00388888
-0.000175691
-0.000180585
-0.0039069
0.00392445
-0.000164472
-0.000169513
-0.00394132
0.0039577
-0.000153105
-0.000158242
-0.0039734
0.00398861
-0.000141707
-0.000146885
-0.00400314
0.00401717
-0.000130397
-0.000135561
-0.00403054
0.00404342
-0.000119295
-0.000124388
-0.00405565
0.0040674
-0.000108511
-0.000113482
-0.00407853
0.0040892
-9.81449e-05
-0.000102949
-0.00409928
0.00410891
-8.82813e-05
-9.28789e-05
-0.00411799
0.00412665
-7.89861e-05
-8.3347e-05
-0.00413478
0.00414253
-7.03053e-05
-7.4409e-05
-0.0041498
0.00415671
-6.22623e-05
-6.60993e-05
-0.00416319
0.00416935
-5.48544e-05
-5.84281e-05
-0.00420418
0.00422466
-1.96236e-05
-5.13812e-05
7.06063e-06
-2.26737e-06
-2.8624e-05
0.0042494
-5.79997e-06
-2.89459e-05
0.00425745
0.0042395
-1.36656e-05
8.76911e-06
0.00420558
0.00419144
-3.81414e-06
-1.19318e-06
0.00420372
0.00418944
6.17968e-06
-1.11436e-05
0.00420363
0.00418906
-3.32412e-05
1.59281e-05
0.00425048
0.00419029
0.00424693
0.00424611
-0.00424367
-1.59774e-05
-0.00424157
0.00422702
2.55358e-05
1.50038e-05
0.00420619
-0.00416925
-5.37582e-05
-5.04868e-05
0.0041631
-0.00415653
-6.08477e-05
-5.71684e-05
0.00414963
-0.00414226
-6.86142e-05
-6.45319e-05
0.00413454
-0.0041263
-7.70668e-05
-7.25731e-05
0.00411767
-0.00410849
-8.62034e-05
-8.13007e-05
0.00409889
-0.0040887
-9.59979e-05
-9.0701e-05
0.00407807
-0.00406682
-0.000106402
-0.000100738
0.00405512
-0.00404276
-0.000117344
-0.000111353
0.00402994
-0.00401643
-0.000128736
-0.000122466
0.00400246
-0.0039878
-0.00014047
-0.00013398
0.00397266
-0.00395681
-0.000152424
-0.000145781
0.0039405
-0.00392349
-0.000164468
-0.000157744
0.00390601
-0.00388783
-0.000176462
-0.000169734
0.00386921
-0.0038499
-0.000188271
-0.000181613
0.00383017
-0.00380977
-0.000199766
-0.000193249
0.00378897
-0.00376752
-0.000210832
-0.00020452
0.00374571
-0.00372328
-0.000221371
-0.000215318
0.00370052
-0.00367718
-0.000231308
-0.000225557
0.00365355
-0.00362938
-0.000240587
-0.000235172
0.00360495
-0.00358005
-0.00024917
-0.000244116
0.00355492
-0.00352936
-0.000257036
-0.000252357
0.00350362
-0.00347748
-0.000264158
-0.000259878
0.00345118
-0.00342453
-0.000270605
-0.000266674
0.00335482
-0.0032863
-0.00027628
-0.000272785
0.00324416
-0.00322525
-0.000240937
-0.000243186
-0.000344282
0.000138824
-0.00305586
-0.00316687
-0.000188554
0.000189967
-0.00310765
-0.0031537
-0.000260101
2.09871e-05
-0.00309029
1.31604e-05
0.00420966
0.00426662
-1.73585e-05
0.000302172
-0.00369293
-0.000360891
1.60053e-05
-0.00316889
0.000371604
-0.00369114
2.38557e-05
-0.0031332
5.32774e-05
-0.00314539
5.1704e-05
-0.00316261
9.05052e-05
-0.00313243
0.00012762
-0.00313068
0.000164197
-0.00310836
0.000167434
-0.00306372
-0.000216205
0.00018806
-0.00307951
-0.000237766
-0.00313214
-0.0031653
-0.00377526
0.00365199
-0.000248038
-0.000447922
-0.00360678
0.000361773
0.00384795
-0.00372361
-0.000572255
-0.000288202
-0.00357618
0.00352453
-0.000348043
-0.000359271
-0.00351445
0.00349264
-0.000280523
-0.000282824
-0.00352973
0.00358547
-0.000273835
-0.000276608
-0.00360845
0.00363128
-0.000265634
-0.00026901
-0.00365374
0.00367598
-0.000256995
-0.000260589
-0.00369782
0.0037194
-0.000247778
-0.000251672
-0.00374055
0.00376141
-0.000237936
-0.000242148
-0.0037818
0.00380186
-0.00022748
-0.000232006
-0.00382141
0.0038406
-0.000216449
-0.00022127
-0.00385925
0.00387751
-0.000204913
-0.000209997
-0.0038952
0.00391247
-0.000192967
-0.000198271