/*--------------------------------*- C++ -*----------------------------------*\
  =========                 |
  \\      /  F ield         | OpenFOAM: The Open Source CFD Toolbox
   \\    /   O peration     | Website:  https://openfoam.org
    \\  /    A nd           | Version:  10
     \\/     M anipulation  |
\*---------------------------------------------------------------------------*/
FoamFile
{
    format      ascii;
    class       surfaceScalarField;
    location    "20.5";
    object      phi;
}
// * * * * * * * * * * * * * * * * * * * * * * * * * * * * * * * * * * * * * //

dimensions      [0 3 -1 0 0 0 0];

internalField   nonuniform List<scalar> 
29080
(
0.0907418
-0.145252
-0.0153115
0.0698214
0.0509752
0.0397666
0.0102683
0.0251463
-0.0226175
-0.0127971
0.036466
0.00507896
-0.0312767
0.0333905
-0.00146399
0.0045395
0.0315396
-0.0584935
0.0475996
-0.0206457
-0.0485099
0.0291636
0.0508859
0.029008
0.0042181
-0.0399007
0.00667465
-0.0271538
0.0610249
-0.0048631
0.0104548
-0.103352
-0.0159822
0.0608411
-0.0838419
0.0553438
0.0822405
0.0662583
-0.0162184
-0.107395
0.0377224
0.0652192
0.00445382
0.000808594
0.032232
-0.0110368
-0.0193407
0.0500536
0.0264877
0.0535655
-0.088298
0.00824475
0.0200098
0.0748221
0.0204044
0.063587
-0.00407643
-0.000477766
0.00257903
-0.00146256
-0.000638701
-0.00780454
-0.0176948
0.0250216
-0.00598096
-0.00304633
0.00122275
-0.00529604
0.00189411
-0.000566522
-0.00619208
-0.069647
0.00289433
0.00669519
0.0600575
-0.0350962
-0.048408
0.0138572
0.0401517
-0.0381623
-0.0370856
0.000527325
-0.00047157
0.00307457
-0.00313033
0.0102225
-0.00969518
-0.00330172
0.0135242
0.00786949
-0.0116428
0.00116784
0.00977622
-0.0210147
-0.00228044
0.017496
0.00579911
0.0013803
-0.0165264
-0.00586857
0.0209086
0.00136818
-0.0208964
0.0133035
0.00532466
0.0142891
0.0165104
-0.0345648
0.0128878
0.0300445
-0.0083675
0.0254778
-0.0488137
-0.0112289
0.0161393
0.0126649
-0.00332637
0.0188504
0.0101767
0.0187377
0.0301572
0.0747747
0.0179537
-0.0494376
-0.0432908
0.0154546
0.0679886
-0.00866845
-0.0571851
0.054505
0.0181347
-0.0570987
0.0178674
-0.0583384
-0.00315227
0.0132569
0.0482337
-0.066614
0.01117
-0.0452495
0.0187872
0.0749689
0.0286576
-0.0412102
-0.0624163
-0.0292332
0.0255355
0.0786666
0.0659705
-0.112787
0.0762361
-0.0294201
-0.0451221
0.0610484
0.0500442
-0.0177932
0.0193384
-0.0111852
0.00964005
0.0306574
-0.0170759
-0.0313747
-0.00211264
0.00400675
-0.00267917
-0.0606405
-0.0369321
0.0085488
0.0890238
-0.0266373
0.0231761
-0.0571794
0.0536244
-0.0578023
-0.0224593
0.0520476
-0.0353553
0.0673841
-0.00678771
0.0927336
-0.0413607
-0.0513729
-0.06266
0.0529444
0.102449
-0.0289042
-0.0297991
0.020541
-0.00333525
0.0161628
-0.0417318
0.0138162
-0.0469506
0.00600642
0.00665844
0.0161831
-0.0108511
0.0494085
0.0159476
-0.0402898
0.0413594
-0.00130023
0.000230714
-0.0693261
-0.011174
0.0402102
-0.0121886
0.0202391
-0.0411619
0.0177907
-0.0428011
0.00418097
-0.0231484
0.024292
-0.0305617
0.000447338
0.0342953
-0.0238249
0.0020447
0.0392736
-0.0382205
-0.002077
0.00102392
-0.0010542
-0.000976815
0.0413046
-0.020748
0.00320101
0.0157932
0.00175379
-0.01479
-0.0159514
0.00999353
-0.0249568
0.0378304
0.0177839
0.0388832
-0.0157859
-0.0480541
0.0752389
-0.00338045
-0.0859651
0.0141067
-0.0017868
0.0505844
0.0264413
0.0768541
-0.0116013
0.0107498
-0.0760025
0.0777393
0.0132519
-0.014137
0.0289162
-0.0349038
0.0357184
-0.0297308
-0.0364601
0.0362083
0.0291679
-0.034459
0.043539
-0.0440673
0.0349874
0.04435
-0.0343768
-0.0444322
-0.0328768
0.0422983
-0.0416473
0.0322259
0.0441009
-0.0341101
-0.0428676
-0.0279768
0.0388575
-0.0369673
0.0260866
0.0403624
-0.0299747
-0.0383645
0.0344956
0.0838276
-0.121704
-0.0724108
0.0776732
-0.0125809
-0.0518757
0.0101471
0.0543095
-0.0489524
-0.0177377
0.0541092
0.0122391
-0.01301
-0.0481815
0.00965435
-0.049291
-0.0528584
0.00772554
0.0525252
-0.00739233
0.0104115
-0.0531228
-0.000630247
-0.0167508
0.00184419
0.0155368
-0.00968251
0.00908762
-3.53552e-05
0.00112403
-0.0105533
-0.00025328
0.00239002
-0.0180168
-0.0161594
-0.00272049
0.00235347
0.00988669
-0.0242019
0.0186012
0.0408212
-0.0163829
-0.0430395
0.0240326
0.0557069
-0.0611383
0.00588299
0.0589708
-0.00746764
-0.0102222
0.0118212
-0.00259418
0.00421416
0.0301181
-0.0347139
-0.030308
-0.0296606
0.0233187
-0.026936
-0.0336627
0.0309381
-0.0452317
-0.0125796
0.0308753
0.0358844
-0.0481596
-0.0329565
-0.0324922
-0.0127458
-0.0305054
0.0306715
-0.0310825
-0.0125376
0.0308744
0.0477362
-0.0482799
-0.0305388
-0.0309288
-0.0123847
-0.0314024
0.0312495
-0.0324215
-0.0118994
0.0319363
0.0486505
-0.0488919
-0.03218
-0.0310319
-0.0116045
-0.0327326
0.0324377
-0.0334074
-0.0111052
0.032908
0.0489952
-0.0489207
-0.0334819
-0.0326293
-0.0108881
-0.0330557
0.0328386
-0.0326919
-0.0106263
0.0324301
0.0486235
-0.0480922
-0.0332232
-0.0333528
-0.010838
-0.0308299
0.0310416
-0.0283484
-0.0113158
0.0288262
0.0473642
-0.0464965
-0.0292161
-0.0315579
-0.0124838
-0.0240437
0.0252118
-0.0188319
-0.0141624
0.0205104
0.0456098
-0.0448047
-0.019637
-0.0249305
-0.0164716
-0.0121208
0.0144301
-0.00476339
-0.0189631
0.0072549
0.0441731
-0.043786
-0.00515051
-0.0127523
-0.0316808
0.00343134
0.00928631
0.0117763
-0.0343067
-0.00915039
0.0435149
-0.0433816
0.011643
0.00316021
-0.0380644
0.0219895
-0.0182318
0.0247414
-0.0396867
-0.0231192
0.0414946
-0.0412436
0.0244904
0.0201025
-0.0414634
0.0307816
-0.0290049
0.0331307
-0.0423455
-0.0322486
0.0411225
-0.0432598
0.0352679
0.0306606
-0.0337226
0.0348128
-0.0433327
-0.0327355
0.0268414
-0.0274569
0.0363339
0.0261433
0.0369064
-0.0335708
-0.0441386
0.0356954
-0.0343663
-0.028786
0.0240255
0.0358102
-0.0241403
0.023206
0.0371535
0.039991
-0.0408592
0.0300362
0.0409708
0.0251635
0.042054
-0.0436011
-0.0311884
-0.0402001
0.0385517
-0.0273566
-0.0303947
-0.0378697
0.0355979
-0.01596
-0.0224371
-0.0306854
0.0411121
-0.00114035
-0.00423791
-0.0420219
0.0430651
0.0133869
0.00634507
-0.0440645
0.0450063
0.02427
0.019511
-0.0458811
0.0466412
0.0302815
0.0279514
-0.0472406
0.0476562
0.032423
0.0318307
-0.0478956
0.0479856
0.0323477
0.0326685
-0.0479263
0.0477294
0.0314464
0.0319956
-0.0473348
0.0468087
0.0311976
0.0312689
-0.046159
0.0470873
0.0300098
0.031525
0.0295467
-0.0219835
0.0228063
0.0401481
0.0381288
0.0350259
-0.0378867
-0.0274472
-0.0290713
0.0411686
-0.0454113
-0.0287137
-0.0292103
0.0475452
-0.0483222
-0.0297618
-0.028795
0.0489758
-0.0495169
-0.0316389
-0.0303783
0.0499339
-0.0501983
-0.0332175
-0.0322123
0.0502702
-0.0501242
-0.0333693
-0.0332809
0.049745
-0.0491278
-0.0298332
-0.031937
0.0483273
-0.0474398
-0.0205245
-0.025731
0.0466248
-0.0459797
-0.00579568
-0.0135673
0.045274
-0.0443455
0.0107146
0.0024545
0.0427024
-0.0436355
0.0254235
0.0184594
0.0437734
-0.0430282
0.0345228
0.0307984
0.0353236
-0.0197007
0.0195898
0.0372644
-0.0207291
0.0368386
-0.0307361
-0.0464358
0.0329912
-0.0322112
-0.0452122
0.0414152
-0.0421345
0.0235256
-0.0193299
0.0408512
0.0198938
-0.0188489
0.0396671
-0.0455299
0.0344537
0.0422959
-0.0437769
-0.0297074
-0.0398449
0.0373722
-0.024884
-0.0279436
-0.0360415
0.0345851
-0.0145037
-0.0211063
-0.038858
0.0394835
-0.00176591
-0.00851072
-0.0403372
0.0413918
0.0123323
0.00549136
-0.0425163
0.0436202
0.0231661
0.0183865
-0.0446615
0.0455886
0.0293544
0.0269101
-0.0463649
0.0469664
0.0318215
0.0310544
-0.0474015
0.0476891
0.0320601
0.0322335
-0.0478253
0.0478054
0.0314663
0.0318595
-0.0476049
0.0472188
0.0315837
0.0314694
-0.0467246
0.044523
0.0322114
0.0320192
-0.0433211
0.0435646
0.0297927
0.0307487
0.0265936
0.0388696
-0.0360633
-0.0203404
0.0356746
0.0366143
-0.0396344
-0.0257659
-0.0235893
0.0429025
-0.0434688
-0.0268809
-0.0258031
0.0457533
-0.0469718
-0.0274952
-0.0269258
0.0479967
-0.0488562
-0.0289023
-0.0277701
0.0496005
-0.0502761
-0.0309633
-0.0296339
0.0508492
-0.0512875
-0.0327792
-0.0316392
0.0515453
-0.0516075
-0.0333071
-0.0330231
0.0514655
-0.0511202
-0.0301785
-0.032079
0.0505981
-0.0499304
-0.0211923
-0.0262531
0.0491903
-0.0484219
-0.00656415
-0.0143074
0.0478037
-0.0472998
0.0102107
0.00183635
0.0465944
-0.046054
0.0248832
0.0177539
0.0449144
-0.0426613
0.0322697
0.0296588
0.0428112
-0.0422277
0.0344039
0.0354736
0.0340241
-0.0339929
-0.0455611
0.0435923
-0.0453035
0.0357353
0.0358184
-0.0457266
-0.0287864
-0.0315854
-0.0447645
-0.0331765
-0.0460286
0.0143003
-0.0145575
0.0399243
0.034098
-0.033925
-0.0457341
0.0339114
-0.045117
0.0134021
0.0417495
0.0355671
-0.0367182
-0.0191893
0.0432109
-0.04384
0.0241548
0.0438338
0.0192708
0.0155648
0.0354067
-0.0154043
0.015524
0.0357154
0.0303469
-0.0283184
-0.0477552
-0.0476743
0.047068
-0.0484443
-0.0269421
-0.0449213
0.0418985
-0.0266846
-0.0266397
-0.039675
0.0382054
-0.0234143
-0.0257201
-0.0368836
0.0372109
-0.014831
-0.0197845
-0.0376072
0.0380594
-0.0022181
-0.00890702
-0.0388769
0.0399674
0.0112418
0.00467381
-0.0412012
0.0424549
0.0219124
0.0171526
-0.0436576
0.0447458
0.0282662
0.0257074
-0.0456894
0.0464692
0.0310417
0.0301109
-0.0470943
0.0475694
0.0315849
0.0316084
-0.0478899
0.0480324
0.0313238
0.031539
-0.0480015
0.0477925
0.0317928
0.0315003
-0.0474556
0.0470722
0.0325948
0.0323561
-0.0459666
0.0446338
0.0311254
0.0318543
0.0273874
0.0149891
-0.0161367
0.0384121
0.0393012
0.0362258
0.0387378
-0.0413669
-0.0231368
-0.0215697
0.0428327
-0.0443637
-0.0253499
-0.0243374
0.0457953
-0.0470823
-0.0262082
-0.0254941
0.048207
-0.0492378
-0.0278715
-0.0266454
0.0501915
-0.0511016
-0.0300533
-0.0286802
0.051924
-0.0526324
-0.0320708
-0.0308168
0.0531757
-0.0535252
-0.0329576
-0.0324799
0.0536336
-0.0534813
-0.0303309
-0.0319706
0.05309
-0.052514
-0.0217683
-0.0266443
0.0518321
-0.0510861
-0.00731011
-0.0149893
0.0503361
-0.0496069
0.00948159
0.00108629
0.0489569
-0.0479182
0.0238445
0.0171039
0.046876
-0.0469092
0.0323029
0.0286165
0.0455943
-0.0456919
0.0345014
0.0341587
0.0448182
-0.0442465
0.0351635
0.0349447
0.0442516
-0.0339139
-0.0442718
0.0339341
0.0339166
-0.0317003
-0.0462407
-0.029207
0.0304211
-0.0489692
-0.0495251
-0.0281261
-0.0104473
0.00988171
0.0362809
-0.0102827
0.0352421
-0.0334428
-0.0465107
-0.033896
-0.0451349
-0.0336927
-0.0459374
0.0327694
-0.0328497
-0.0450545
0.0138986
0.0433373
0.0325985
-0.0489535
-0.0278937
0.0297767
-0.0514081
0.0509664
-0.0516421
-0.0272181
-0.0488239
0.0471586
-0.0252769
-0.0259836
-0.0452746
0.0424002
-0.0238103
-0.0247556
-0.0401037
0.0383961
-0.0217067
-0.0234236
-0.0373795
0.0368084
-0.0142599
-0.0187679
-0.0367048
0.0370436
-0.00255698
-0.00880338
-0.0378073
0.0388947
0.0101544
0.00391019
-0.0401855
0.0415412
0.0205567
0.0158618
-0.0428698
0.0440937
0.0270422
0.0243788
-0.0451839
0.0461224
0.0301033
0.0290206
-0.0469177
0.047562
0.0309407
0.0308131
-0.0480512
0.048358
0.031017
0.0310497
-0.0484999
0.0484908
0.0318018
0.0313585
-0.0483767
0.0481998
0.0327717
0.0324702
-0.0474266
0.0470719
0.0314801
0.0326275
-0.0459511
0.0453699
0.0247359
0.0285082
-0.0452414
0.0456771
0.0134629
0.0193993
-0.00791926
0.00786961
0.043387
0.0083276
-0.00904933
0.040646
0.0421578
0.00906425
-0.00909625
0.0384441
0.0393162
0.0370113
-0.0350669
-0.0101981
0.0349823
0.0362405
-0.0378687
-0.0175611
-0.0142308
0.0400523
-0.0414585
-0.0217306
-0.0193862
0.0429963
-0.0445959
-0.0237503
-0.0227995
0.0461
-0.0474754
-0.0248329
-0.02399
0.0486867
-0.0498132
-0.0267451
-0.025434
0.050889
-0.0519484
-0.0289939
-0.0276045
0.0529486
-0.0538752
-0.0311442
-0.0298165
0.0546756
-0.055318
-0.0323151
-0.0316795
0.0557303
-0.0558664
-0.0301949
-0.0315582
0.0557015
-0.0552572
-0.0222126
-0.0268092
0.0546053
-0.0538152
-0.00810019
-0.0156412
0.0529626
-0.0520771
0.00859613
0.000233685
0.0512105
-0.0504158
0.0230499
0.0162372
0.0497889
-0.0491238
0.0316378
0.0279896
0.0480117
-0.0470671
0.0335568
0.0330466
0.0458023
-0.044178
0.0335393
0.0336799
0.0429634
-0.0427483
0.0337189
0.0327019
0.0321485
0.00864451
0.0449022
-0.0320267
-0.0476569
0.0311863
-0.0503788
-0.0327859
-0.0474175
0.0296564
-0.0532505
-0.028048
0.0309544
-0.0527061
-0.0330332
-0.0457539
0.0354193
-0.0361924
-0.00942495
0.00522583
0.0350169
-0.00482341
0.00472885
0.0354793
-0.0350523
-0.0441124
0.0325633
-0.0334847
-0.0419463
0.0474965
-0.0486679
0.0146343
0.0474893
0.00865169
0.0312784
-0.0497939
-0.0283936
0.0305134
-0.0553702
0.0543589
-0.0556107
-0.0271419
-0.052033
0.049944
-0.025129
-0.0257221
-0.0479777
0.0456952
-0.0229943
-0.0240173
-0.0435376
0.0415756
-0.0218483
-0.022598
-0.0397028
0.0381213
-0.0201253
-0.0215508
-0.0369685
0.0362997
-0.0135912
-0.017615
-0.0361098
0.0363818
-0.00282901
-0.00861343
-0.0370935
0.0381546
0.00909339
0.00319847
-0.0394596
0.040871
0.0191452
0.0145568
-0.0422868
0.0436175
0.0257115
0.0229631
-0.0448309
0.0459059
0.0290282
0.0278073
-0.0468501
0.0476484
0.0301424
0.0298689
-0.0482972
0.0487745
0.0305398
0.0304008
-0.0491008
0.0493014
0.0316012
0.0310322
-0.049418
0.0494747
0.032715
0.0323536
-0.0495178
0.049552
0.0314459
0.0325844
-0.0494678
0.049152
0.0250518
0.0285924
0.0198834
0.00318229
-0.00330015
0.0435048
-0.00287419
0.0030905
0.047273
0.0452103
0.00342671
-0.00336706
0.0405864
0.0422844
0.00362651
-0.00350681
0.0383244
0.0395756
0.00369651
-0.00399939
0.0365838
0.037201
0.0359715
0.0370677
-0.0390124
-0.0156164
-0.0133555
0.0402424
-0.0417126
-0.0202605
-0.0181561
0.0433104
-0.0449412
-0.0221195
-0.0212017
0.0464584
-0.0478492
-0.0234421
-0.0224728
0.0491156
-0.0503498
-0.0255109
-0.0241677
0.0515713
-0.0528042
-0.027761
-0.0263829
0.0539979
-0.0551482
-0.029994
-0.0286228
0.0562
-0.0571172
-0.0313979
-0.0306277
0.0578075
-0.0582111
-0.0297913
-0.0308679
0.0582738
-0.0579906
-0.0224957
-0.0267466
0.0574048
-0.0565808
-0.00892409
-0.016227
0.0556129
-0.0545538
0.00753699
-0.000734261
0.0534625
-0.0523903
0.0219777
0.0151459
0.0514281
-0.0506196
0.0308293
0.0270274
0.0500218
-0.0495948
0.0331297
0.0324488
0.048801
-0.0476146
0.0323529
0.0328861
0.0466013
-0.044281
0.0313987
0.0316886
0.0429198
-0.0408348
0.0301409
0.0307873
0.0293011
-0.0321847
-0.0482581
0.0323929
-0.0518173
-0.000310434
-0.00043124
0.0362209
-0.00100324
0.0357097
-0.0332317
-0.047219
0.0314778
-0.0536706
-0.034093
-0.0467131
0.0296163
-0.0578486
-0.0273784
0.0309836
-0.0567375
-0.0336976
-0.0438994
-0.0316402
-0.0402808
0.0497749
-0.0474148
0.00073049
0.0250773
-0.0265046
-0.0369372
-0.0351034
0.0232135
-0.00447537
0.00395439
0.047794
0.0503285
-0.005029
-0.0495858
-0.0297126
0.0311566
-0.0592926
0.0577101
-0.0598498
-0.0275729
-0.0559357
0.0539403
-0.0251466
-0.025604
-0.0522106
0.0502829
-0.0232013
-0.0239923
-0.0485239
0.0461993
-0.0206697
-0.0222584
-0.0438221
0.0418117
-0.0198379
-0.0202208
-0.0398334
0.0381294
-0.0184212
-0.0195725
-0.0368475
0.0360712
-0.0128149
-0.0163331
-0.0358017
0.0360214
-0.00304868
-0.00834393
-0.0366789
0.0377016
0.00807064
0.00254095
-0.0389943
0.0404272
0.0177122
0.0132642
-0.0418981
0.0433115
0.0242981
0.0214922
-0.0446299
0.0458255
0.0278326
0.0264889
-0.0469013
0.047838
0.0292057
0.0287931
-0.0486327
0.0492723
0.0299002
0.0296061
-0.0497799
0.0501845
0.0311967
0.0305245
-0.0505275
0.0508276
0.032415
0.0320105
-0.0511071
0.0513632
0.0311899
0.0323049
-0.050885
0.0508024
0.0251343
0.0290706
-0.0500943
0.0497088
0.0150198
0.0205915
0.0109456
-0.00329101
0.00310027
0.0436956
0.0458737
-0.0025765
0.0022553
0.0409076
0.0428082
-0.00218628
0.00207827
0.0384324
0.0396446
-0.00146108
0.000824984
0.0372199
0.0378182
0.0363653
-0.0360326
-0.000636266
0.0356656
0.0357954
-0.0363652
-0.0088551
-0.00506059
0.0383694
-0.0393507
-0.0146351
-0.0113513
0.0406108
-0.042126
-0.0187452
-0.0168961
0.0437514
-0.0453892
-0.0204817
-0.0195763
0.0469082
-0.0483174
-0.0220329
-0.0209538
0.0496335
-0.0509494
-0.024195
-0.0228516
0.0522735
-0.0536293
-0.0264052
-0.0250588
0.0549754
-0.0563225
-0.0286469
-0.0272766
0.0576137
-0.0588081
-0.0302035
-0.0293366
0.0597916
-0.0604834
-0.0290995
-0.0298844
0.0607892
-0.0606754
-0.0226096
-0.0264407
0.0601616
-0.05931
-0.00977564
-0.0167408
0.0582251
-0.0569808
0.00629277
-0.0018192
0.0556518
-0.0542956
0.0206215
0.0138169
0.0530122
-0.0518676
0.0296847
0.025744
0.0509293
-0.050184
0.0323845
0.0315105
0.0490204
-0.0478823
0.0312148
0.0317225
0.046544
-0.0446597
0.0295144
0.0303503
0.0428377
-0.0397078
0.027011
0.0289653
0.0377067
-0.0363933
0.0247731
0.0273
0.019706
-0.0222688
-0.0325406
0.0346896
-0.032481
0.0174975
0.0215098
-0.0324237
-0.0490661
0.0317112
-0.0520506
-0.0335611
-0.0477509
0.0327165
-0.0554035
-0.0344205
-0.0459902
0.0322527
-0.0578336
-0.0324817
-0.0430578
0.03003
-0.0607451
-0.0291347
0.0322785
-0.0615411
-0.0290381
-0.0377473
-0.0254508
-0.0337552
-0.0147048
-0.0302787
0.0125024
-0.0179381
-0.0293074
0.0531571
-0.0545952
0.00216868
0.0035126
-0.013142
-0.0206493
0.0367949
-0.0359056
-0.00152559
-0.0105513
0.00999153
0.0483537
-0.0114948
0.051272
-0.00263074
0.0369061
0.00251949
-0.00354968
0.0365845
0.0296747
-0.00285494
-0.0233071
0.0533536
-0.00522557
-0.0502983
-0.0302243
0.0329418
-0.0634626
0.0620533
-0.0637435
-0.0285341
-0.0596545
0.0581324
-0.0260508
-0.0267358
-0.0557153
0.0538214
-0.0232527
-0.0231869
-0.051854
0.0496781
-0.0210254
-0.0220249
-0.0475951
0.0460069
-0.0190815
-0.0201753
-0.0442058
0.0422203
-0.0178524
-0.0184197
-0.0401966
0.0383918
-0.0166164
-0.0175487
-0.0369888
0.0361082
-0.0119343
-0.0149301
-0.0357565
0.0359116
-0.00320387
-0.00799222
-0.0365161
0.0374947
0.00709197
0.00193651
-0.0387596
0.0401909
0.0162809
0.0119993
-0.0416929
0.0431696
0.0228215
0.0199902
-0.0445783
0.0458811
0.0265298
0.0250801
-0.047072
0.0481281
0.0281496
0.0276022
-0.0490489
0.0498313
0.0291178
0.0286853
-0.0505054
0.0511016
0.0306005
0.0298504
-0.0516612
0.0521957
0.0318805
0.0314509
-0.0527146
0.0531998
0.0307047
0.0317859
-0.0536488
0.0534056
0.0253776
0.0286216
-0.0528935
0.0519918
0.0159214
0.0211037
0.00834219
-0.00909044
0.00844701
0.044339
0.0467748
-0.00825769
0.00801978
0.0411455
0.0429975
-0.00773063
0.00739392
0.0387691
0.0399338
-0.00701256
0.00659686
0.0376356
0.0381996
-0.00536095
0.00410562
0.0374763
0.0376012
0.0362656
0.0366748
-0.0381335
-0.00739636
-0.00429135
0.0388132
-0.0398222
-0.0136261
-0.0106716
0.0411285
-0.0426765
-0.0171972
-0.0155897
0.0443065
-0.0459209
-0.0188674
-0.0179463
0.0474087
-0.0488073
-0.0206343
-0.019466
0.0501514
-0.0515306
-0.0228157
-0.0215075
0.0529402
-0.0544015
-0.0249439
-0.0236492
0.0558788
-0.0573939
-0.0271318
-0.0257993
0.0588903
-0.060331
-0.0287627
-0.0278401
0.0615914
-0.0625759
-0.028115
-0.028624
0.0631497
-0.0632401
-0.0225192
-0.0258669
0.0628284
-0.0619659
-0.0106381
-0.0171525
0.0607711
-0.0593279
0.0048496
-0.00301403
0.0577596
-0.0561147
0.0189766
0.0122485
0.0545144
-0.0530344
0.0282047
0.0241437
0.0517644
-0.0507034
0.0313235
0.0302405
0.049814
-0.0487723
0.0301731
0.030833
0.0472394
-0.0456422
0.0279172
0.0288175
0.0432796
-0.0422534
0.0259848
0.0266027
0.0391017
-0.0358927
0.0215641
0.0241484
0.033811
-0.0317954
0.0154819
0.0194281
0.0103817
-0.0333194
-0.0493078
0.0327023
-0.0520363
0.00687919
-0.00831693
0.0380223
0.00599091
0.0377944
0.0289686
-0.0324681
0.00064455
-0.0344966
-0.0476748
0.0327868
-0.0559376
-0.0339078
-0.0445641
0.0336499
-0.059205
-0.031109
-0.0409869
0.0333783
-0.0619776
-0.0264229
-0.0367752
0.0307672
-0.0654613
-0.0290494
0.0323046
-0.065
-0.0202881
-0.0314051
-0.0138114
-0.028638
-0.00939194
-0.0345644
-0.01114
0.0529988
-0.0509155
-0.0287718
-0.0679225
0.031233
0.0671239
-0.0694901
-0.0264056
-0.0638201
0.0611318
-0.0258458
-0.0257455
-0.058596
0.0558632
-0.0233181
-0.0242
-0.0546768
0.0525025
-0.0210784
-0.0220004
-0.0509088
0.0493792
-0.0194958
-0.0204312
-0.0478902
0.0463708
-0.0175621
-0.0186864
-0.0446791
0.0427824
-0.0159557
-0.016728
-0.0407721
0.038901
-0.0147453
-0.0155385
-0.0373872
0.0363926
-0.0109396
-0.0134163
-0.0359458
0.0360256
-0.00328365
-0.00754545
-0.0365699
0.037498
0.00616387
0.00139222
-0.038725
0.0401398
0.0148662
0.0107723
-0.0416546
0.0431766
0.0212996
0.0184753
-0.0446586
0.0460523
0.0251361
0.0235981
-0.0473418
0.0485002
0.0269912
0.0263127
-0.0495301
0.0504377
0.0282102
0.0276554
-0.0512604
0.0520315
0.0298294
0.0290277
-0.0527892
0.0535424
0.0311274
0.0306932
-0.0542907
0.055012
0.0299834
0.0310376
-0.0556776
0.0562675
0.0247877
0.0279559
-0.0567375
0.0570929
0.015566
0.0206337
-0.0565362
0.0559512
0.00275368
0.00889887
-0.0558724
0.0557528
-0.0110204
-0.00514677
0.0160925
-0.0164551
0.0533615
-0.0156458
0.0150057
0.0489938
0.0517187
-0.014794
0.0140352
0.0450977
0.0469865
-0.013676
0.0132409
0.0415806
0.0433568
-0.0127427
0.0121957
0.0393161
0.0404319
-0.0116061
0.0109916
0.0382501
0.0387892
-0.0103523
0.0096889
0.0381397
0.0382405
0.0376376
-0.0373397
0.00513862
0.038192
0.0373326
-0.0380394
-0.000818794
0.00251242
0.0383023
-0.0386765
-0.00702215
-0.00402848
0.0393755
-0.0404334
-0.0125683
-0.00997262
0.0417795
-0.0433392
-0.0156375
-0.0142436
0.0449412
-0.0465
-0.0173086
-0.0163443
0.0479369
-0.0493164
-0.0192547
-0.0180292
0.0506797
-0.0521027
-0.0213927
-0.0201442
0.053567
-0.0550977
-0.0234132
-0.022185
0.0566697
-0.0583162
-0.0254853
-0.0242273
0.0599828
-0.0616387
-0.0271068
-0.0261736
0.0631546
-0.0644255
-0.026844
-0.0271082
0.0652815
-0.0656112
-0.0221895
-0.025011
0.0653474
-0.0645151
-0.0114705
-0.0174163
0.0632293
-0.0616129
0.00323317
-0.00429978
0.0597976
-0.0578645
0.0170436
0.0104332
0.0559508
-0.0541334
0.0263873
0.02223
0.0525307
-0.0511507
0.0299434
0.0286378
0.0499755
-0.0488879
0.0290855
0.0296579
0.0477584
-0.0464242
0.0265829
0.027688
0.0448315
-0.0424745
0.0236278
0.02501
0.0398639
-0.0381034
0.0198036
0.0215378
0.0354007
-0.0320693
0.0121505
0.0167253
0.00728094
-0.0162052
0.0555028
-0.0340198
-0.0497846
0.0335936
-0.0528431
0.0274593
-0.071168
-0.0257815
-0.0701618
0.0296986
-0.0340575
-0.0475252
0.0336557
-0.0559434
-0.0322076
-0.0434656
0.034062
-0.0598888
-0.0288211
-0.0385888
0.0333944
-0.0630674
-0.0225991
-0.0344642
0.0324801
-0.0662471
-0.0149273
-0.0302893
-0.00821748
-0.0298124
0.00181924
-0.0316169
-0.00267045
-0.00155446
-0.0311907
-0.00648199
0.00814277
-0.0332777
0.0578711
-0.0585515
-0.01034
0.0384362
-0.0378233
0.00452578
-0.00859531
0.0394173
0.00761418
0.05758
-0.015914
-0.00959285
0.0391896
-0.0513416
-0.0256463
0.0270208
-0.0725424
0.0715479
-0.0732561
-0.0239382
-0.0687524
0.0665141
-0.0241673
-0.0229859
-0.0636819
0.0611425
-0.0233064
-0.0229134
-0.0585183
0.0560431
-0.0208429
-0.0215758
-0.0543548
0.0527485
-0.0194722
-0.0203121
-0.0511799
0.049669
-0.0179849
-0.0188625
-0.0482065
0.0467623
-0.016118
-0.0172238
-0.0452037
0.043451
-0.014203
-0.0151694
-0.0415237
0.0396365
-0.0128581
-0.0136112
-0.0380274
0.0369081
-0.00982034
-0.0118072
-0.0363492
0.0363373
-0.0032718
-0.0069865
-0.0368092
0.0376777
0.00529538
0.000920374
-0.0388582
0.0402455
0.0134788
0.00959179
-0.041759
0.0433088
0.0197497
0.0169618
-0.0448451
0.0463114
0.0236699
0.0220618
-0.0476834
0.0489309
0.0257437
0.0249407
-0.0500585
0.0510783
0.0271904
0.0265278
-0.0520333
0.0529592
0.0289034
0.0280728
-0.0538934
0.0548432
0.0301776
0.0297589
-0.0558016
0.0567395
0.0290455
0.0300792
-0.0576185
0.0584021
0.0240041
0.0270769
-0.0590487
0.0595314
0.0150833
0.0199871
-0.059326
0.0588557
0.00322392
0.00910429
-0.00484249
-0.0708966
0.0277555
-0.0236399
0.0249339
-0.0738364
-0.0750324
-0.0218636
-0.0202944
0.0202136
0.0534424
0.0206032
-0.0205182
0.057495
0.0558115
-0.0201098
0.0198143
0.0492893
0.0518224
-0.0190999
0.0187295
0.0454681
0.0477009
-0.0182468
0.0176655
0.0421619
0.0438394
-0.017007
0.0162973
0.0400257
0.0410905
-0.0155481
0.0147766
0.0390216
0.0395384
-0.0139859
0.0131938
0.0389318
0.0390312
-0.0119834
0.010712
0.0392937
0.0388479
0.0389136
0.038072
-0.0383565
-0.000534303
0.00276109
0.0389113
-0.0393084
-0.00662504
-0.00347368
0.0400589
-0.0411678
-0.0114594
-0.00922214
0.0425422
-0.044087
-0.0140928
-0.0128691
0.0456291
-0.047107
-0.0158306
-0.0148022
0.0484792
-0.0498305
-0.0179034
-0.0166571
0.0511983
-0.0526414
-0.0199496
-0.0187764
0.0541325
-0.0557028
-0.0218428
-0.0206939
0.0573357
-0.0590711
-0.0237499
-0.0225944
0.0608594
-0.0626825
-0.0252836
-0.0243853
0.0644159
-0.0659546
-0.0253054
-0.0253748
0.0671015
-0.0677096
-0.0215814
-0.0238641
0.0676551
-0.0669212
-0.0122044
-0.0174708
0.065607
-0.0638313
0.00145746
-0.00561399
0.061793
-0.0595856
0.0148361
0.00839493
0.0573559
-0.0551932
0.0242246
0.0200003
0.0532349
-0.0515061
0.0282147
0.0266796
0.0500189
-0.0486696
0.0277362
0.0281707
0.0473542
-0.0459203
0.0251491
0.0263725
0.0442943
-0.0424361
0.0217696
0.023384
0.0404202
-0.037755
0.0171383
0.019522
0.0350302
-0.0333065
0.0104269
0.0140005
0.0317209
-0.0328263
0.00174998
0.00569536
0.034003
-0.0407422
0.000257157
-0.00149379
-0.0182477
-0.0254737
0.00297924
-0.00846632
0.0187847
-0.0285661
-0.0336732
-0.000266735
-0.0343649
-0.0494772
0.0342307
-0.0534181
0.0109124
-0.0126162
0.0408934
0.0102764
0.0400534
-0.0333736
-0.0463592
0.0340854
-0.0559667
-0.0300449
-0.0422418
0.0333374
-0.0598318
-0.0242711
-0.0369168
0.0328413
-0.0634286
-0.0173316
-0.0320599
0.0311403
-0.0676888
-0.00866681
-0.0298399
-0.000441695
-0.0309252
0.00767324
-0.0307212
0.0136165
-0.0281095
-0.070731
0.0247683
0.0211623
-0.0761205
-0.0200742
0.0212171
-0.0738912
-0.0175747
0.0175291
-0.0760749
0.060248
-0.0596358
-0.0211304
-0.00598766
0.0113052
-0.0338836
-0.0242053
0.0239115
0.0577888
-0.0344768
-0.00518411
-0.0233314
0.059374
-0.0514759
-0.0766076
0.0749188
-0.0183853
-0.0164431
-0.0729582
0.0699057
-0.0208857
-0.019903
-0.0681187
0.0654714
-0.02152
-0.0211988
-0.0629782
0.0596759
-0.0200041
-0.0204202
-0.0578384
0.0561151
-0.0191196
-0.0197383
-0.0544815
0.0529336
-0.0179243
-0.0186785
-0.0514222
0.0499564
-0.0165192
-0.0173511
-0.048535
0.0471645
-0.0147474
-0.0158025
-0.0457452
0.0441751
-0.0126329
-0.0137501
-0.0424016
0.0405676
-0.0110241
-0.0118376
-0.0388993
0.0376531
-0.00857416
-0.0101389
-0.0369548
0.0368269
-0.00314398
-0.00628818
-0.0372078
0.0380053
0.00449791
0.000539472
-0.0391306
0.0404813
0.0121281
0.00846655
-0.041981
0.0435427
0.0181881
0.0154621
-0.045114
0.0466332
0.0221508
0.0204904
-0.0480706
0.0493936
0.0244206
0.0235033
-0.050608
0.0517287
0.0260697
0.0253134
-0.0528013
0.0538632
0.0278415
0.0270001
-0.0549516
0.0560721
0.0290571
0.0286705
-0.0572148
0.0583425
0.0279178
0.0289365
-0.0594132
0.0603737
0.0230437
0.0260061
-0.0611799
0.0617883
0.014475
0.0191808
-0.0617905
0.0622587
0.00275567
0.0091021
-0.0610143
0.0607859
-0.0101116
-0.00359803
-0.0147639
-0.0241355
0.0238541
0.0537238
0.0555875
-0.0237276
0.0231115
0.0499054
0.0519489
-0.0228128
0.0223786
0.0459023
0.0479996
-0.0218164
0.0211479
0.0428304
0.0444017
-0.0203938
0.0195851
0.0408344
0.0418445
-0.0187367
0.0178695
0.0398888
0.0403868
-0.016988
0.0161113
0.0398085
0.0399127
-0.0147774
0.0137341
0.040337
0.0401818
0.0400315
-0.0393612
0.00882277
0.0408148
0.0395796
-0.0398978
0.00484399
0.00783254
0.0393286
-0.0394826
-0.000380353
0.00219195
0.0395893
-0.0400414
-0.00617288
-0.00336699
0.0408547
-0.042013
-0.0103011
-0.00840887
0.0433948
-0.0448897
-0.0125979
-0.0114873
0.0463392
-0.0477168
-0.014453
-0.0133527
0.0490181
-0.0503368
-0.0165847
-0.0153557
0.0516961
-0.0531369
-0.0185088
-0.017417
0.0546283
-0.0562087
-0.0202625
-0.0192025
0.0578671
-0.0596475
-0.0219696
-0.0209359
0.0615067
-0.0634415
-0.0233488
-0.022526
0.0653396
-0.0671068
-0.0235383
-0.0234767
0.0685345
-0.0694505
-0.0206654
-0.0224363
0.0696733
-0.0691309
-0.0127468
-0.0172479
0.0678762
-0.0660263
-0.000392473
-0.00686871
0.0638098
-0.0613441
0.0123704
0.0061785
0.0588183
-0.0563115
0.0217178
0.0174745
0.0539832
-0.0518756
0.0261071
0.0243513
0.0500329
-0.0483764
0.0260797
0.026328
0.0468306
-0.0452555
0.0235739
0.0248267
0.0435816
-0.0417463
0.0199343
0.0217102
0.0398012
-0.0378008
0.015138
0.0175768
0.0359266
-0.0345529
0.00905316
0.0121263
0.0340591
-0.0348231
0.00251394
0.00520156
0.0377814
-0.0377669
0.000242706
0.00146449
0.0359361
-0.0358329
-0.000369906
0.00114838
0.0017872
0.00424628
-0.0405103
0.0382318
-0.0308239
-0.00562078
-0.00278514
-0.0340985
-0.0487522
0.0343439
-0.0536766
-0.0316437
-0.0447604
0.0337113
-0.0563406
-0.0265626
-0.0399503
0.0323468
-0.0593373
-0.0191574
-0.035091
0.0302328
-0.062521
-0.0102816
-0.0304452
0.0273689
-0.0673021
-0.00184923
-0.0284324
0.006143
-0.029395
0.0129295
-0.0300342
0.014467
-0.0312713
0.00843331
-0.0380707
-0.00253958
0.0283963
-0.0566806
0.00436428
-0.0474141
0.0776576
-0.00862005
-0.0768387
0.00780116
-0.0701483
0.0206344
0.0164775
-0.0728396
0.0130702
-0.0758933
-0.0262282
0.0266836
0.0573333
0.0617329
-0.0631026
-0.0197608
0.0411102
-0.0408103
0.00852288
-0.011352
0.0414621
0.0110001
-0.0125871
0.0420499
0.0618525
-0.0234509
-0.0262835
0.0594293
-0.0512306
-0.0775809
0.0770979
-0.013654
-0.0115246
-0.0759094
0.0739455
-0.0164214
-0.0152546
-0.0716705
0.0692503
-0.0184656
-0.017628
-0.0663859
0.0632399
-0.0183741
-0.0183344
-0.0613013
0.0594763
-0.018179
-0.0184817
-0.0577448
0.0561169
-0.0174918
-0.0180068
-0.0545616
0.0530854
-0.0164481
-0.0171232
-0.0516472
0.0502483
-0.0151203
-0.0159129
-0.048883
0.0475808
-0.0134453
-0.0144371
-0.0462872
0.0449109
-0.0112566
-0.0124566
-0.043347
0.0416472
-0.00932437
-0.0102738
-0.0399839
0.0386278
-0.00721809
-0.00847553
-0.0377672
0.0374856
-0.00286232
-0.00542756
-0.0377454
0.0384548
0.00378848
0.000279619
-0.0395161
0.040823
0.0108212
0.00740531
-0.0422988
0.0438572
0.0166298
0.0139862
-0.0454443
0.046995
0.0206
0.0189033
-0.0484776
0.0498588
0.0230394
0.0220206
-0.0511458
0.0523539
0.0248616
0.0240264
-0.0535294
0.0547088
0.0266621
0.0258247
-0.0559292
0.0571933
0.0277931
0.0274501
-0.0584907
0.0597774
0.0266311
0.0276391
-0.0610103
0.0621216
0.0219324
0.0247733
-0.0630654
0.0637935
0.0137468
0.018237
-0.0643087
0.0641344
0.00293
0.00858689
-0.0635846
0.0629484
-0.00947544
-0.00304828
-0.014918
-0.0263596
0.0261298
0.0539536
0.0559116
-0.0257832
0.0256642
0.0500244
0.0522955
-0.025374
0.0249269
0.0463494
0.0482898
-0.0243447
0.023653
0.0435221
0.0449839
-0.0228716
0.0220314
0.0416746
0.042626
-0.0211492
0.0202488
0.0407892
0.041269
-0.0193356
0.0184274
0.0407166
0.0408259
-0.0175187
0.0166191
0.0412365
0.0410905
-0.0148215
0.014326
0.041389
0.0418291
0.0417922
0.0403514
-0.0402227
0.00471526
0.00737367
0.0403256
-0.0401761
-0.000529872
0.0022949
0.0403399