/*--------------------------------*- C++ -*----------------------------------*\
  =========                 |
  \\      /  F ield         | OpenFOAM: The Open Source CFD Toolbox
   \\    /   O peration     | Website:  https://openfoam.org
    \\  /    A nd           | Version:  10
     \\/     M anipulation  |
\*---------------------------------------------------------------------------*/
FoamFile
{
    format      ascii;
    class       surfaceScalarField;
    location    "27";
    object      phi;
}
// * * * * * * * * * * * * * * * * * * * * * * * * * * * * * * * * * * * * * //

dimensions      [0 3 -1 0 0 0 0];

internalField   nonuniform List<scalar> 
66213
(
0.00950014
-0.0117474
-0.0063037
0.00855092
0.0301905
-0.0047749
-0.0159155
0.00873047
-0.0138175
0.0352775
-0.0166302
0.0253607
0.0234295
-0.0161771
-0.0190911
0.0118387
0.0226648
-0.0222365
0.0230013
0.041414
-0.0325668
-0.0435937
0.0322829
-0.0333425
-0.0013712
-0.0127132
-0.0184823
-0.00899603
-0.0146117
-0.000519234
0.000492735
0.00237863
-0.00235213
0.000418353
-0.000937587
0.000911089
-0.00242962
0.00124961
0.0110182
-0.00983823
0.00159737
-0.004027
0.00284698
0.0808819
0.105422
-0.0937734
-0.0925307
0.0617833
0.0539832
-0.0348846
-0.0529734
0.0295676
0.0851891
-0.0139171
0.0663658
0.0372219
0.0380327
-0.0446671
-0.0305875
-0.00226091
0.00243884
0.037044
-0.0144458
0.0118895
0.0002954
0.0123803
0.0112067
0.0535362
0.017654
-0.00993198
-0.0612582
-0.00611432
0.0522297
0.00742081
-0.0746229
0.00654587
0.0619627
-0.0217415
0.0291598
0.0238598
-0.0312781
-0.0618545
0.00670961
0.0334034
-0.0246604
-0.0695406
0.0323465
0.0301749
-0.0308326
0.0635572
-0.0882176
-5.24728e-05
-0.00449209
0.00195049
0.00259407
-0.00308181
0.00302933
-0.00177926
-0.00130254
-0.000515318
-0.00575603
0.044593
-0.00953412
0.00637837
-0.0414373
0.033648
-0.0122649
0.0232099
0.0195178
-0.0184195
0.0471425
-0.0482408
0.00736199
0.0460014
-0.0338456
-0.000645125
0.0212643
-0.0295075
0.0088883
0.0290889
0.00211317
-0.0318472
-0.00127258
-8.46597e-05
0.000841918
0.00131835
-0.00099498
-0.00513755
0.00481418
0.00291378
-0.00207267
0.000477242
-0.0132949
0.0144447
0.000570319
-0.0017201
0.0023446
-0.00374999
-0.011062
0.0256319
-0.0213001
0.00673013
-0.0184031
-0.00549883
0.01284
-0.0374659
0.0608295
0.0124234
-0.035787
-0.0287408
-0.0782657
-0.0643909
-0.00270461
0.0382768
0.0288187
0.0779782
-0.135823
-0.0241565
-0.00516161
0.0293181
-0.00992212
-0.0142343
-0.0292481
0.0405328
-0.0212068
0.00454587
-0.0106149
-0.0231791
-0.00149863
-0.0055644
0.00706304
-0.00639619
-0.0079458
0.0128434
-0.00968847
0.00724383
-0.0122324
0.0173688
0.00309442
-0.00120273
0.00535214
-0.00101573
0.00230948
0.00180066
0.00608437
-0.00369393
-0.00239043
0.0105684
-0.00448406
0.0362765
-0.0466102
-0.0118712
0.0222049
0.0755121
-0.0161848
-0.0732443
0.0613673
0.0284044
-0.0142597
0.0169365
-0.0142523
0.0134407
-0.0161249
0.0156126
0.0157823
-0.0144584
0.00899225
0.0189201
-0.0122998
-0.0012143
0.0102291
-0.0077616
-0.00125316
0.0336012
0.0427882
-0.0948089
0.0270862
0.0139723
-0.020184
-0.0208744
0.0218533
0.0112629
-0.00602999
0.0109709
0.00880177
-0.0101224
-0.00965025
0.012883
0.0100447
-0.0119569
0.0755591
0.0280069
-0.0169431
-0.0866229
0.0806797
0.0108487
-0.0159693
-0.0415994
0.0305238
-0.00547911
0.0165547
0.0136341
-0.0261291
-0.0291043
-0.02584
0.0343881
0.0219757
-0.0496155
0.025533
0.0576837
-0.0211976
0.0609937
-0.0894115
-0.00110815
0.0396734
-0.0597629
0.00119042
-0.0172604
0.0165513
-0.000481294
-0.00333227
0.00433464
0.000188049
0.000287481
-0.000705978
0.00112516
0.000593777
-0.000138274
-0.00158066
0.0183459
0.00208464
-0.0025604
-0.0178702
0.00292753
0.02038
-0.0049616
-0.00680714
-0.000615404
0.0103501
-0.00494523
0.000222727
-0.006927
-0.00057864
-0.0107704
0.0352466
0.0363533
0.0297666
-0.000956813
-0.0395802
0.0181804
-0.033112
0.0405635
-0.0269782
0.0010066
0.0441519
-0.0388085
-0.0098143
-0.000272648
0.0488954
0.0364136
-0.00885629
0.0561669
-0.0339172
-0.0188714
0.0166139
0.0361748
0.000716102
-0.00762562
-0.0270077
0.0433134
-0.0614688
-0.00653113
-0.00183321
0.00830033
6.4013e-05
-0.00139211
-0.00361136
-0.00152766
-0.000958459
0.0004749
-0.000908549
-0.000841181
-0.0536879
-0.0405123
0.0290249
0.0651753
-0.0189754
0.0277734
-0.0624859
0.0275496
-0.00429248
-0.0422326
-0.0140128
0.00105008
0.00393453
0.00985999
-0.00508628
-0.00870824
0.00245937
0.00147517
0.000976662
0.0113427
0.00527378
0.00411489
0.00181801
0.000537301
0.00503188
0.0327077
0.00465233
-0.0449857
0.00846405
0.0408575
0.000227077
-0.00117177
-0.0034576
0.0044023
-0.000519125
0.000660396
8.58054e-05
-0.00166956
-2.134e-05
0.00564437
0.0114406
-0.0113311
-0.00575388
-0.00171468
-0.0139411
0.0287392
0.046594
-0.0112229
0.0442233
-0.0454368
0.000142839
0.00107069
0.0477516
-9.80314e-05
-0.0034303
-0.00260071
-0.0129956
-0.00188437
0.0174807
-0.0160991
-0.00204591
0.0155443
-0.000199257
-0.000416147
-0.000179969
-1.92878e-05
0.0197774
0.0262257
-0.00535407
-0.040649
0.019526
0.0571679
-0.0569165
-0.0291212
0.0212833
0.0273639
-0.00700502
0.00410955
-0.0125534
-0.00275671
0.00129735
-0.0174924
0.00064648
0.0415282
-0.0388908
0.00289659
-0.00553394
0.00747094
-0.00817536
-0.0165575
-0.0300015
0.00766813
-0.0449156
-0.0049834
0.0458614
0.0040376
-0.0297992
-0.022176
0.00705962
0.000132456
-0.0505527
0.0386604
0.00641797
-0.0269907
-0.0180876
-0.0149364
0.0489742
0.00462261
0.0393262
-0.0052774
-0.0489852
0.0280962
0.0189586
-0.00772853
0.0206337
-0.0151782
-0.0235696
0.0181141
0.013745
-0.0178162
0.0247049
0.0269018
0.0198608
-0.0125868
-0.0341757
-0.0112075
0.0229311
0.0400509
0.0056346
-0.0260218
-0.0196637
-0.0019826
0.000981245
0.0410522
0.038851
0.00200707
-0.0428406
0.0260401
-0.00638959
0.0192004
0.0125213
0.0133809
-0.00404886
0.0193345
0.0121907
-0.0175529
0.016345
1.94604e-05
-0.00019943
-0.0223804
0.0170264
-0.0278498
0.00546937
-0.00146827
0.0491344
-0.0010721
0.00513408
-0.0034298
-0.00210814
0.00040386
-0.000632259
-3.13312e-05
0.00579767
-0.00102913
0.0053641
-0.00496723
0.00427479
-0.0162873
-0.00524792
-0.00275138
-0.0244755
0.0230902
0.00413664
-0.0269859
-0.00191985
0.0261543
0.00559892
-0.0154151
0.0413576
-0.0315414
0.0391586
0.00346408
-0.0370237
0.000947908
0.033545
-0.000188548
-0.0343044
0.0331235
0.00159347
-0.0337691
0.0140656
0.0366437
-0.0534139
0.0114657
0.0396038
-0.037004
0.0261828
0.00306079
-0.0194802
-0.00976345
0.0302601
-0.00429093
0.00021363
-0.0351653
0.00631032
0.0338156
-0.00496064
0.00752895
-0.0351922
-0.007502
-0.000832583
0.0328635
-0.0327934
0.000762491
0.0322312
0.000445551
-0.0335093
-0.0119095
-0.0304424
0.0405946
0.00175731
0.0246032
-0.00587995
-0.0306327
0.035395
0.00301234
-0.0343645
-0.00404287
0.0377304
0.00220023
-0.00453563
0.0253604
0.0131416
-0.00824182
0.0217627
-0.0116265
0.0152242
0.0143554
-0.0173129
0.0107167
-0.0065131
-0.0243877
-0.0332438
-0.0093504
0.036309
0.00628516
-0.00715403
-0.0309207
0.00483097
0.00518815
-0.0162741
-0.00170806
0.012794
-0.0163785
0.00320159
0.0183651
0.0355387
-0.0336197
0.0314891
-0.033408
0.057022
0.0263972
-0.0478805
0.0265193
-0.0263262
0.0568289
0.0356229
-0.0428037
0.0424722
-0.0352914
0.0659553
0.0303139
-0.0606463
0.0205023
0.0631132
-0.0176602
-0.0343836
0.0108691
0.0371486
-0.0321511
-0.0115829
-0.0369402
0.00669006
0.0385973
-0.0083472
-0.00766252
0.00718396
-0.0364616
0.00695269
-0.000461657
-6.13831e-05
-0.00642965
0.0021113
0.00714962
-0.00230823
0.0801649
-0.056581
0.00656931
-0.0301532
0.0305532
0.0695373
-0.0199256
0.0371351
0.00479352
-0.0133709
-0.0285578
0.0409383
-0.000290906
-0.0248822
-0.0226968
0.00331473
-0.000850124
-0.0211858
-0.000660882
-0.0184843
-0.00724798
0.000996829
0.00141381
-0.00144514
0.000139406
0.0012744
-0.0319239
0.0044896
0.0300845
-0.00265016
0.00361658
-0.00327403
-0.0322665
0.031813
0.00363992
-0.0318364
0.0304979
0.00580478
0.0343817
0.016762
-0.0426797
-0.0167684
0.0564281
-0.00527803
0.0298573
-0.0298637
-0.0255587
-0.00461489
0.0250072
0.00516636
0.0217644
-0.0435463
-0.00377671
-0.00631935
0.0234688
-0.000366835
0.000395378
-0.00210121
0.000250946
-0.000617781
0.000646324
0.00173358
-0.00449029
0.00303092
0.0216444
-0.00547335
-0.0315861
-0.000284689
0.0334146
-0.032803
-0.00032687
0.0341173
-0.000575854
-0.0338261
0.0444279
-0.00595428
-0.037497
0.00407412
0.0316939
-0.00378631
-0.0319817
0.0349384
-0.0282976
0.00888405
-0.0155249
0.0345393
-0.0013028
0.00170186
0.0419728
-0.00222026
-0.00521321
0.0423168
0.00506423
-0.00540826
0.0467875
0.00429066
-0.00876133
0.0476359
0.0110475
-0.0118959
0.048273
0.0137881
-0.0144252
0.049096
0.0158371
-0.0166602
0.0495773
0.0176737
-0.018155
0.0502658
0.0187321
-0.0194205
0.050536
0.0197033
-0.0199736
0.0510339
0.0199637
-0.0204616
0.0510908
0.0203152
-0.020372
0.0514056
0.0200819
-0.0203968
0.0512938
0.0200986
-0.0199867
0.0514703
0.0196455
-0.0198221
0.0512444
0.0195485
-0.0193226
0.0513291
0.0190553
-0.0191401
0.0510297
0.0189734
-0.018674
0.0510536
0.018531
-0.0185549
0.050699
0.0185286
-0.018174
0.0506727
0.0181841
-0.0181578
0.0502597
0.0183068
-0.0178938
0.0501804
0.0180872
-0.0180079
0.0496969
0.0183494
-0.0178659
0.0495538
0.0182018
-0.0180587
0.0450752
0.0185125
-0.014034
0.0448648
0.0182629
-0.0180525
0.0378106
0.02123
-0.0141759
0.0359763
0.0199104
-0.0180761
0.0351695
0.018414
-0.0176071
0.0349298
0.0172059
-0.0169662
-0.0262004
0.0331843
-0.00313681
-0.00384713
-0.00744589
0.0136684
-0.0255945
0.019372
-0.0252584
-0.0083879
-0.0266907
0.0120615
-0.0356056
0.026119
-0.0173023
0.026789
0.0162103
-0.0168861
0.0366851
-0.0370746
0.0188035
-0.0362163
0.0388402
0.0135864
0.0176747
0.0350292
-0.0328883
0.0190891
0.0178651
0.0336772
-0.0338101
0.0186455
0.0190518
0.0339458
-0.0340564
0.01846
0.0183375
0.0341455
-0.0342146
0.0183759
0.0181762
0.0342617
-0.0342892
0.0185561
0.0182313
0.0342955
-0.034279
0.0189569
0.0185373
0.0342364
-0.0341615
0.0194736
0.0190128
0.0340501
-0.033893
0.0199415
0.0195341
0.0336875
-0.033425
0.0200526
0.0198764
0.0331082
-0.0327339
0.0193289
0.019647
0.0323141
-0.0318533
0.0172128
0.0183124
0.0313719
-0.0308774
0.0132936
0.0153558
0.0303813
-0.0333127
0.00722213
0.0105514
0.0315112
-0.0335096
-0.000221872
0.00326268
-0.00162804
-0.0117693
0.0131403
-0.0269655
-0.0266841
-0.0103435
0.0304975
0.0096232
-0.00128049
-0.0272837
0.0137333
-0.0125169
0.00870798
0.0293174
-0.0255085
-0.0150833
0.0286854
-0.0143222
0.0145149
-0.0271582
-0.0255208
-0.0154856
0.00875336
0.0304521
0.0295773
-0.0322631
-0.0146165
-0.0282078
0.015439
0.0269815
-0.0124875
0.0161701
-0.0146605
-0.0270304
-0.0158185
0.0163412
-0.0287305
-0.0268066
-0.0294814
0.0312964
0.0102465
0.0285858
-0.0280634
0.0149165
0.0128378
-0.0339442
0.0339542
0.00169183
0.00623626
-0.0317891
0.0326286
-0.00624776
-0.00304814
-0.0329691
0.0333205
-0.0122473
-0.00910184
-0.0336717
0.0340055
-0.016994
-0.0147763
-0.0342982
0.0345399
-0.0196623
-0.0184476
-0.0347207
0.0348419
-0.0205828
-0.0201543
-0.0349056
0.0349193
-0.0204104
-0.0204358
-0.0348906
0.0348263
-0.0197578
-0.019958
-0.0347342
0.0346178
-0.0190236
-0.0192305
-0.0344826
0.0343282
-0.0184005
-0.0185389
-0.0341572
0.033965
-0.0179656
-0.0180031
-0.033752
0.0335136
-0.0177695
-0.0176808
-0.0332509
0.0329773
-0.0177851
-0.0176031
-0.0363307
0.0358504
-0.0175722
-0.0173874
-0.0377147
0.0365416
-0.016903
-0.0160402
-0.035248
0.033929
-0.0156472
-0.0163135
-0.0152203
-0.00877139
0.0082571
0.0298316
0.00901037
0.0279715
-0.0100003
0.0289244
0.035456
-0.0369465
0.0150769
-0.0329594
0.00991856
0.0317942
0.0121198
0.035156
-0.0341689
0.0178164
0.0158841
0.0352366
-0.0347084
0.018561
0.0189328
0.0341496
-0.0342109
0.0187068
0.0184929
0.0342692
-0.0343096
0.0185004
0.0183957
0.034336
-0.0343436
0.0183835
0.0182027
0.0343323
-0.0343011
0.0185249
0.0182199
0.0342491
-0.0341729
0.0188807
0.0184853
0.0340699
-0.0339325
0.0193363
0.0189098
0.0337574
-0.0335345
0.0197186
0.0193589
0.0332625
-0.0329322
0.0197223
0.0196045
0.0325483
-0.0321058
0.0188865
0.0192631
0.0316191
-0.031091
0.0166848
0.0178256
0.0305468
-0.0299989
0.0127457
0.0148116
0.0294856
-0.0294108
0.00714732
0.010038
0.0300571
-0.0308726
0.000593706
0.00390896
0.0297937
-0.0271891
-0.00574141
-0.00270695
0.0269023
-0.0260258
-0.01122
-0.00867475
0.0277783
-0.0275514
-0.0148873
-0.0137331
0.00804409
0.0306651
-0.0285953
0.0168732
-0.016683
0.0175473
-0.0278946
-0.0281007
-0.0161337
-0.00732731
0.00687892
0.0284199
0.0273109
-0.0277296
-0.0095816
0.0272579
-0.00727434
0.018392
-0.0184672
-0.0286553
0.033243
-0.0340185
0.0106941
0.00796647
0.0318718
0.0328549
0.00835457
0.0189898
-0.0291931
-0.0277265
-0.0304183
0.0302397
0.0150952
0.0302798
-0.0301276
0.0188376
0.0167346
-0.0315187
0.0329711
0.00879401
0.0115588
-0.0338227
0.0343014
0.00121313
0.00538467
-0.0339837
0.033782
-0.00604608
-0.00273044
-0.0340998
0.0344138
-0.0125613
-0.00941957
-0.0347078
0.0349696
-0.0172559
-0.0150702
-0.0351807
0.0353342
-0.0198158
-0.0186587
-0.035425
0.0354566
-0.0206144
-0.0202451
-0.0354345
0.0353662
-0.0203422
-0.0204137
-0.0352612
0.0351251
-0.0196217
-0.0198529
-0.0349664
0.0347868
-0.0188441
-0.0190717
-0.0345923
0.0343807
-0.0181888
-0.0183444
-0.0341549
0.0339086
-0.0177192
-0.0177773
-0.0336428
0.0333492
-0.017476
-0.017415
-0.0330309
0.0326843
-0.0174385
-0.0172848
-0.0325694
0.0323446
-0.0173475
-0.0172725
-0.0332708
0.0330576
-0.0166897
-0.0169664
-0.0325863
0.0315548
-0.0146158
-0.0158422
-0.0305329
0.0287535
-0.0128371
-0.0141983
-0.0114636
-0.00653591
0.00610863
0.0302589
0.0292674
-0.00587043
0.00565958
0.0320827
0.0309033
0.0350335
-0.0353056
0.015349
0.0131348
0.0358386
-0.0351832
0.017161
0.0164171
0.0346396
-0.0346478
0.0185691
0.0183892
0.0346443
-0.0346307
0.0186932
0.0184895
0.0346136
-0.0345842
0.018471
0.0183786
0.034546
-0.0344916
0.0183291
0.0181645
0.0344219
-0.0343328
0.0184358
0.0181502
0.0342241
-0.0340904
0.0187469
0.0183766
0.0339297
-0.0337331
0.0191397
0.0187491
0.0334981
-0.0332136
0.0194341
0.0191239
0.0328796
-0.0324858
0.0193286
0.0192704
0.0320386
-0.0315326
0.0183805
0.0188158
0.0309846
-0.030399
0.0160992
0.0172777
0.0298062
-0.029223
0.0121625
0.0142187
0.0286913
-0.0282369
0.00669293
0.00950632
0.02787
-0.0276107
0.000334445
0.00354205
0.0274363
-0.0271353
-0.00604235
-0.00288141
0.0269082
-0.0270472
-0.0110811
-0.00890186
0.0272278
-0.0274355
-0.0146796
-0.0135525
-0.0170594
0.0172697
-0.0283111
0.0275681
-0.0279523
-0.0166752
-0.016001
0.0207696
-0.0200033
-0.0299594
-0.0297275
0.0203695
-0.0189959
-0.0296627
0.0182123
-0.0288372
0.00536614
0.0331483
0.0176368
-0.0286543
-0.0169348
0.0181314
-0.0288057
-0.00434302
0.00439722
0.0283657
-0.00478833
0.0277032
0.0268946
-0.0270544
-0.00942179
0.020525
-0.0200814
-0.030403
0.0205524
-0.0297549
0.0266783
-0.0070581
-0.0285102
-0.0312947
0.0317021
0.0184302
0.0307397
-0.0306776
0.0204903
0.0198146
-0.0318954
0.0328462
0.0141444
0.0165413
-0.0331913
0.0338345
0.00815078
0.0112137
-0.0345588
0.0347381
0.00103381
0.00466039
-0.0346851
0.034987
-0.00634797
-0.00267743
-0.0352772
0.0355478
-0.012832
-0.00970982
-0.0357817
0.0359689
-0.0174431
-0.0153041
-0.0360959
0.0361585
-0.0198785
-0.0187857
-0.0361565
0.036095
-0.0205529
-0.020243
-0.0359835
0.0358301
-0.0201887
-0.0203023
-0.0356462
0.0354367
-0.0194122
-0.0196691
-0.0352106
0.0349679
-0.0186014
-0.0188456
-0.0347147
0.0344471
-0.0179212
-0.0180912
-0.0341682
0.0338701
-0.0174211
-0.0174984
-0.0335537
0.0332088
-0.0171311
-0.0170986
-0.0328387
0.0324365
-0.0170364
-0.0169146
-0.0320097
0.0315649
-0.0169026
-0.0168457
-0.031112
0.03066
-0.0162377
-0.0165135
-0.0302165
0.0301739
-0.0145732
-0.0153987
-0.0291503
0.0283873
-0.0120741
-0.0131748
-0.0101307
-0.00427435
0.00377462
0.0307587
0.0293903
-0.0033656
0.00283438
0.0326139
0.0313123
0.0345061
-0.0350056
0.0111936
-0.0343348
0.00607476
0.0336262
0.00852594
0.0354506
-0.0354441
0.0153425
0.0135798
0.0354159
-0.0357774
0.0175226
0.0163889
0.0353086
-0.0352325
0.018493
0.0179204
0.0351491
-0.035062
0.0186061
0.0184061
0.0349719
-0.0348746
0.0183737
0.0182885
0.0347722
-0.0346569
0.0182139
0.0180622
0.0345299
-0.0343846
0.0182905
0.0180231
0.0342213
-0.0340326
0.0185582
0.0182133
0.0338173
-0.033565
0.0188874
0.0185337
0.0332741
-0.0329323
0.0190924
0.018833
0.0325408
-0.0320887
0.0188765
0.0188789
0.0315841
-0.031022
0.0178184
0.0183112
0.0304222
-0.0297909
0.0154678
0.0166779
0.0291618
-0.028553
0.0115537
0.0135896
0.028005
-0.0275349
0.00622281
0.00895835
0.0271671
-0.0269102
7.75146e-05
0.00317428
0.0267673
-0.0267481
-0.00606157
-0.00302428
0.0268572
-0.0266119
-0.0113264
-0.00879273
0.0268513
-0.02688
-0.014651
-0.013313
0.0271378
-0.0276565
-0.0161565
-0.0157433
-0.0173646
0.0177006
-0.0289904
0.0280736
-0.0289328
-0.0165053
-0.0165177
0.00263062
0.0333521
0.0207064
-0.0202959
-0.0301653
-0.0307598
0.0207885
-0.0203352
-0.0294089
0.0187078
-0.0294136
-0.00497749
0.0268675
-0.016938
0.017263
-0.0292579
-0.0286823
0.0285008
-0.0163238
-0.0293699
-0.0162503
-0.0203235
-0.0303754
0.018521
-0.0296261
0.0179164
-0.0296437
0.0203578
-0.0205176
-0.0300055
0.0354076
-0.0355612
0.00622842
0.00276449
0.0334923
0.0352548
0.00291726
0.0198642
-0.0302662
-0.0301376
-0.0316029
0.032156
0.0199371
0.0310628
-0.0315598
0.0203612
0.0202485
-0.0327024
0.0332858
0.0178468
0.0192682
-0.0339777
0.034416
0.0137061
0.0158493
-0.0347161
0.0350241
0.00784279
0.0109136
-0.0353313
0.0356385
0.000726541
0.00435324
-0.0359388
0.0362253
-0.0066345
-0.00297764
-0.0364848
0.0367077
-0.0130549
-0.00996932
-0.0368779
0.0369862
-0.0175514
-0.0154743
-0.0370244
0.0369914
-0.0198455
-0.0188238
-0.0368926
0.0367354
-0.0203957
-0.0201442
-0.0365336
0.0362952
-0.0199503
-0.0201005
-0.0360338
0.0357527
-0.0191311
-0.0194077
-0.0354615
0.0351583
-0.0182983
-0.0185544
-0.0348494
0.0345289
-0.0176007
-0.0177822
-0.0342003
0.0338541
-0.017075
-0.0171698
-0.0334915
0.0331008
-0.0167403
-0.016736
-0.0326848
0.0322356
-0.0165871
-0.0164987
-0.031764
0.0312703
-0.0164089
-0.0163741
-0.0307731
0.0302746
-0.0157392
-0.0160163
-0.0297935
0.0293306
-0.0141102
-0.0149176
-0.0288929
0.028165
-0.0113462
-0.0127371
-0.0275211
0.0266633
-0.00856399
-0.00948682
-0.0261618
0.026125
-0.00494068
-0.00655655
-0.00208356
0.00184627
0.028603
0.00245601
-0.00241222
0.0268237
0.0280756
-0.00134698
0.00109758
0.0310081
0.0298896
-0.000984691
0.000917439
0.0326812
0.0314252
-0.00107426
0.000148205
0.0344183
0.0331952
0.0358532
-0.036497
0.0118374
0.00881788
0.0364386
-0.0363562
0.01526
0.0135214
0.0362479
-0.03612
0.0173947
0.0162806
0.0359775
-0.0358215
0.018337
0.0177779
0.0356608
-0.0354989
0.0184442
0.0182454
0.0353382
-0.0351749
0.0182104
0.0181278
0.0350104
-0.0348366
0.01804
0.0178976
0.0346543
-0.0344553
0.0180915
0.0178409
0.0342401
-0.0339995
0.0183176
0.0179981
0.033733
-0.0334288
0.0185832
0.0182672
0.033086
-0.0326917
0.018698
0.0184903
0.032248
-0.0317437
0.0183723
0.0184352
0.0311891
-0.0305797
0.0172089
0.0177566
0.029938
-0.0292711
0.0148009
0.0160363
0.0286148
-0.0279866
0.0109254
0.0129333
0.0274259
-0.0269482
0.00574513
0.00839767
0.0265802
-0.02633
-0.000172741
0.00280629
0.0262053
-0.0262119
-0.00605498
-0.00314894
0.0263431
-0.0265961
-0.0110734
-0.00866152
0.0269683
-0.0270833
-0.014536
-0.0129408
0.0277535
-0.0280009
-0.0159091
-0.0150731
-0.0160178
-0.0169044
0.0173527
-0.0297061
-0.0296162
-0.0166582
-0.00247697
0.0261897
0.021263
-0.0209213
-0.0306079
-0.0310091
0.0207124
-0.0199205
-0.0298119
0.0193346
-0.0302272
0.0353166
8.64303e-05
-0.0205528
-0.0303402
0.0184648
-0.0301745
-0.0207012
-0.0302255
0.0180126
-0.0303036
0.0171888
-0.0299767
-0.0168283
0.0176555
-0.0301728
0.0202621
-0.0206296
-0.0302405
0.0257328
-0.0258629
-0.00481053
0.0252541
-0.00199833
0.0187005
-0.0294476
-0.0307235
-0.0323251
0.0326841
0.0200022
0.0312721
-0.0326098
0.0200382
0.0196594
-0.033046
0.0334838
0.0194994
0.0198865
-0.0342855
0.0347843
0.017348
0.0184665
-0.0351264
0.0354882
0.0133443
0.0155073
-0.0358561
0.036219
0.00747988
0.0105457
-0.0365656
0.0368954
0.000396767
0.0040066
-0.0371989
0.0374713
-0.00690689
-0.00328117
-0.0376991
0.0378724
-0.0132282
-0.0101972
-0.0379763
0.038003
-0.0175781
-0.0155782
-0.0379496
0.0378187
-0.0197146
-0.0187703
-0.0376219
0.0373689
-0.0201428
-0.0199474
-0.0370774
0.0367556
-0.0196285
-0.019809
-0.0364186
0.0360683
-0.0187808
-0.0190707
-0.0357148
0.0353542
-0.0179377
-0.0182009
-0.0349927
0.0346227
-0.0172308
-0.0174206
-0.034248
0.0338579
-0.0166849
-0.0167951
-0.0334537
0.0330224
-0.016309
-0.0163318
-0.0325669
0.0320776
-0.0160979
-0.0160432
-0.0315667
0.0310323
-0.0158745
-0.0158631
-0.0304959
0.0299598
-0.0152031
-0.01548
-0.0294459
0.0289536
-0.0136179
-0.0144038
-0.0285026
0.0280895
-0.010933
-0.0122861
-0.0277202
0.0268036
-0.00764743
-0.00911755
-0.00561584
0.000895478
-0.00106122
0.0269894
-0.000422696
0.0253369
0.000339907
0.0266625
0.000806979
-0.00139712
0.0291931
0.0278214
0.00134351
-0.0012795
0.0309441
0.029836
0.00164886
-0.00170632
0.0327386
0.0317945
0.00211253
-0.00241808
0.0347239
0.0336014
-0.00225995
0.0351584
0.0366506
-0.0369514
0.00652917
-0.0362628
0.0359692
0.000380074
0.00330506
0.0376297
-0.0375356
0.0117434
0.00949622
0.0374147
-0.037257
0.0151023
0.0134004
0.0370721
-0.036863
0.0171856
0.0160957
0.0366395
-0.0364053
0.0181028
0.0175545
0.0361704
-0.0359358
0.0182096
0.0180105
0.0357076
-0.0354807
0.0179835
0.0178996
0.0352571
-0.0350277
0.0178105
0.017674
0.0347931
-0.0345436
0.017842
0.0176064
0.0342798
-0.0339908
0.0180287
0.0177343
0.0336767
-0.0333245
0.018231
0.0179531
0.0329343
-0.0324923
0.018256
0.0181001
0.032002
-0.0314523
0.0178225
0.017945
0.0308552
-0.0302069
0.0165606
0.0171595
0.0295321
-0.0288383
0.0141072
0.0153615
0.0281623
-0.0275208
0.0102839
0.0122573
0.0269525
-0.0264725
0.00526508
0.00782943
0.0261071
-0.0258636
-0.000416204
0.00244086
0.0257518
-0.0257758
-0.00603091
-0.00326076
0.0259329
-0.026223
-0.0107832
-0.00850449
0.0266356
-0.0271632
-0.0140083
-0.0125283
0.0273629
-0.0277156
-0.0155565
-0.0148734
0.0283054
-0.0288921
-0.0157371
-0.015428
0.0291466
-0.0293735
-0.0164313
-0.0159959
-0.0165396
-0.0303469
0.0169099
0.0307752
-0.0303431
-0.0169718
-0.0154266
0.0215343
-0.0208109
-0.030171
-0.0317104
0.0206349
-0.0199221
-0.0304426
0.019417
-0.0311794
0.017359
-0.0310988
-0.0166033
-0.0305653
0.0175774
-0.0200783
-0.0309631
0.0187952
-0.0309572
-0.020196
-0.0306591
0.0179953
-0.0306434
0.00276663
-0.00337008
0.0259404
0.025245
-0.0250635
0.000158365
0.0255586
0.00245307
-0.0208611
-0.0301902
0.0177644
-0.0310274
0.0222705
-0.0219324
-0.0305091
-0.0026456
0.0363548
0.021456
-0.0308958
-0.0312286
-0.0323321
0.0331612
0.019209
0.0319876
-0.0311365
0.0206049
0.0202904
-0.0331731
0.0337289
0.0194463
0.0196476
-0.0343658
0.0348845
0.0189807
0.0192497
-0.0352637
0.0356761
0.0169355
0.0180873
-0.0361079
0.036548
0.0129042
0.0150755
-0.0369803
0.0373963
0.00706382
0.0101135
-0.0377816
0.0381343
4.41117e-05
0.00362134
-0.0384434
0.0387039
-0.00716747
-0.00359028
-0.038901
0.0390237
-0.0133509
-0.0103942
-0.0390591
0.0390018
-0.0175209
-0.0156136
-0.0388548
0.0386251
-0.0194849
-0.0186233
-0.0383304
0.0379829
-0.0197953
-0.0196527
-0.0376041
0.037202
-0.0192263
-0.0194303
-0.0367931
0.0363776
-0.0183654
-0.0186618
-0.0359658
0.0355518
-0.0175237
-0.0177891
-0.0351417
0.0347264
-0.0168155
-0.0170105
-0.0343099
0.0338804
-0.0162554
-0.0163786
-0.0334396
0.0329732
-0.0158426
-0.015891
-0.0324843
0.0319617
-0.0155753
-0.0155544
-0.0314177
0.0308497
-0.0153066
-0.015319
-0.0302809
0.0297139
-0.0146361
-0.0149111
-0.0291734
0.0286598
-0.0131043
-0.0138632
-0.0281929
0.0277702
-0.0105103
-0.0118193
-0.0274077
0.0268111
-0.00705087
-0.00875504
-0.0263687
0.0254482
-0.00389001
-0.00517344
-0.00161359
0.00316089
-0.00341772
0.0272463
0.0264533
0.00396758
-0.00400623
0.0292318
0.0283713
0.00401501
-0.00400527
0.0309343
0.0298448
0.00398104
-0.00432404
0.0330816
0.0317703
0.00479255
-0.00455643
0.0344878
0.03407
0.0372011
-0.0376478
0.000826721
0.0372286
-0.00267304
0.0052864
-0.0054961
0.0365646
0.0358884
0.0381356
-0.0388045
0.00719814
0.00379283
0.0386967
-0.0385478
0.0115945
0.00938841
0.0383589
-0.0381289
0.0148724
0.0132115
0.0378699
-0.0375834
0.0168992
0.0158367
0.0372842
-0.036975
0.0177935
0.0172553
0.0366694
-0.0363664
0.0179066
0.017705
0.0360749
-0.0357882
0.0176968
0.0176081
0.0355093
-0.0352279
0.0175291
0.0173952
0.0349447
-0.0346482
0.0175455
0.0173232
0.0343393
-0.0340056
0.017695
0.0174254
0.0336476
-0.0332515
0.0178348
0.0175951
0.0328182
-0.0323333
0.0177711
0.0176668
0.0318021
-0.0312132
0.0172337
0.0174137
0.0305807
-0.0299013
0.0158812
0.0165269
0.0292013
-0.0284884
0.0133943
0.0146614
0.0277996
-0.027151
0.00963527
0.0115686
0.0265803
-0.0261015
0.00478631
0.0072587
0.0257405
-0.0255037
-0.000653078
0.00207989
0.0254039
-0.0254437
-0.00599103
-0.00336057
0.0256257
-0.0259495
-0.0104594
-0.00832257
0.0264036
-0.0269776
-0.0134343
-0.0120742
0.0276375
-0.0283569
-0.014837
-0.0142135
0.0287454
-0.0291711
-0.0153114
-0.0150395
0.029791
-0.0309133
-0.0153089
-0.015376
0.0305722
-0.0309377
-0.0166063
-0.0157677
-0.0164946
0.0174716
-0.0320758
0.0317366
-0.032107
-0.0161242
-0.0158044
0.0213195
-0.0214443
-0.030771
-0.0305395
0.0207224
-0.0308936
0.0177999
-0.0169462
0.0172281
-0.0323577
-0.032865
-0.0161881
-0.0196636
-0.0308574
0.0191506
-0.0315348
-0.0200415
-0.0311176
0.0187791
-0.0317409
0.00468
-0.00509984
0.0263602
0.00417032
0.0260683
-0.0205283
-0.030992
0.0184995
-0.0313784
-0.0206606
-0.031462
0.0179927
-0.0314426
-0.0206903
-0.0312631
0.0367254
-0.00499291
-0.0201387
-0.0307708
0.0203699
-0.0196931
-0.0312166
-0.031945
0.0182796
-0.0172144
0.0178028
-0.0329461
-0.0165759
-0.0335035
0.0192756
-0.0198189
-0.0302275
-0.0294664
0.0304395
0.0193968
0.0251173
-0.0248548
-0.000104149
0.0254661
0.00210425
-0.0301309
0.0199401
-0.0317416
-0.0311275
0.0326025
0.0191299
0.0200345
-0.0334406
0.033747
0.0189026
0.0194523
-0.0343724
0.0347335
0.0190852
0.0190222
-0.0351289
0.0355679
0.0185417
0.0188543
-0.036042
0.0365447
0.0164328
0.0176132
-0.0370584
0.0375732
0.0123894
0.0145618
-0.0380684
0.0385357
0.00659655
0.00961826
-0.0389595
0.0393366
-0.00033296
0.00319751
-0.0396538
0.0399041
-0.0074178
-0.0039075
-0.0400706
0.0401415
-0.0134218
-0.0105607
-0.0401066
0.0399637
-0.017378
-0.0155787
-0.0397226
0.0393947
-0.0191569
-0.0183822
-0.0390043
0.0385657
-0.0193567
-0.0192623
-0.038104
0.0376265
-0.0187487
-0.0189685
-0.0371507
0.0366751
-0.0178898
-0.018186
-0.0362098
0.0357472
-0.0170611
-0.0173239
-0.0352933
0.0348374
-0.0163597
-0.0165565
-0.0343837
0.0339195
-0.0157912
-0.0159249
-0.033447
0.0329512
-0.0153467
-0.0154185
-0.032435
0.0318858
-0.0150261
-0.0150382
-0.0313157
0.0307213
-0.0147122
-0.0147489
-0.0301265
0.029535
-0.0140446
-0.0143163
-0.0289736
0.028444
-0.0125748
-0.0133018
-0.0279677
0.027542
-0.0100847
-0.0113429
-0.0271827
0.0268231
-0.00669132
-0.00839569
-0.0263578
0.0256515
-0.00318369
-0.00470809
-0.000816868
0.00586556
-0.00626849
0.0276492
0.027219
0.00641423
-0.00652481
0.0293423
0.028517
0.00660228
-0.0066527
0.0309847
0.0299222
0.00667261
-0.00665454
0.0330635
0.0317902
0.0066018
-0.00712344
0.0350094
0.0340172
0.00703311
-0.00723471
0.0367662
0.0357981
-0.0332883
0.0333102
-0.0165979
-0.0175703
0.0176397
-0.0335729
-0.0338817
-0.0169769
-0.0078536
0.0373443
0.0387407
-0.0391827
0.0012687
-0.0381441
0.0380277
-0.00487644
-0.00207646
0.0399631
-0.0398647
0.0070998
0.00457321
0.0397149
-0.0395083
0.0113878
0.00923858
0.0392556
-0.0389569
0.0145737
0.0129588
0.0386277
-0.0382693
0.0165407
0.0155075
0.0379
-0.0375215
0.0174149
0.016886
0.0371505
-0.0367848
0.0175409
0.0173341
0.0364352
-0.0360935
0.0173551
0.0172584
0.035764
-0.0354347
0.0171998
0.0170658
0.0351068
-0.0347672
0.0172059
0.0169953
0.0344168
-0.0340419
0.0173201
0.0170749
0.0336438
-0.0332076
0.0173986
0.017197
0.0327353
-0.0322125
0.0172483
0.0171945
0.0316455
-0.0310236
0.0166118
0.0168467
0.0303622
-0.0296588
0.0151778
0.0158656
0.0289408
-0.0282158
0.0126693
0.0139434
0.0275208
-0.0268704
0.00898491
0.0108735
0.0263012
-0.0258261
0.0043112
0.00668947
0.0254705
-0.0252417
-0.000881866
0.00172429
0.0251533
-0.0252106
-0.00593379
-0.00344893
0.0254162
-0.025772
-0.0101035
-0.00811695
0.026264
-0.026879
-0.0128192
-0.0115823
0.0275772
-0.0283265
-0.0140876
-0.0135154
0.0290779
-0.0298092
-0.01458
-0.0142882
0.0304958
-0.0307915
-0.0150132
-0.0146894
0.0313477
-0.0323399
-0.015614
-0.0152116
0.0327132
-0.0330405
-0.0157969
-0.0154311
-0.0159183
-0.0193464
-0.0315525
0.0190972
-0.0318529
0.00375023
0.0258862
-0.0198631
-0.0317827
0.0188412
-0.0320826
-0.0202016
-0.0314509
0.0186939
-0.0320796
-0.0200707
-0.0320816
0.018272
-0.0319148
-0.0198451
-0.0311111
-0.0202535
-0.0307819
-0.0196462
-0.0297184
0.0192337
-0.0194247
-0.0304491
-0.032876
0.0187338
0.0183551
-0.0336616
0.0179903
-0.0177014
-0.0341706
0.0183943
-0.0339769
-0.00772
0.0378941
0.0187846
-0.0192942
-0.0292088
-0.0290577
0.0281842
0.0201073
0.0390536
-0.0396481
-0.00428191
0.0389467
-0.00761308
-0.0289264
0.0186533
-0.0319908
-0.0298772
0.0305345
0.0187395
0.0182471
-0.0323624
0.0329181
0.0185741
0.0182066
-0.0338759
0.0342385
0.0185401
0.0184945
-0.0347701
0.0352152
0.0186401
0.0184906
-0.0356972
0.0362242
0.0180147
0.0183722
-0.0367841
0.0373708
0.0158461
0.0170533
-0.0379619
0.0385472
0.0118041
0.0139707
-0.0391024
0.0396211
0.00607785
0.009063
-0.0400834
0.0404865
-0.000736055
0.00273522
-0.0408135
0.0410543
-0.00765861
-0.00423451
-0.0411898
0.0412075
-0.0134395
-0.0106961
-0.0411008
0.0408715
-0.0171487
-0.015472
-0.0405368
0.0401131
-0.0187332
-0.0180476
-0.039631
0.0391068
-0.0188325
-0.0187802
-0.0385681
0.0380216
-0.0182022
-0.0184299
-0.0374852
0.0369556
-0.0173601
-0.0176497
-0.0364427
0.035937
-0.0165554
-0.0168109
-0.0354444
0.0349529
-0.0158682
-0.0160639
-0.0344669
0.0339731
-0.0152973
-0.0154389
-0.0334741
0.0329543
-0.014827
-0.0149195
-0.0324168
0.0318476
-0.0144569
-0.0145006
-0.0312582
0.0306443
-0.0140983
-0.0141595
-0.0300302
0.0294201
-0.0134346
-0.0137022
-0.0288429
0.028302
-0.0120338
-0.0127246
-0.02782
0.0273958
-0.00966049
-0.0108609
-0.0270469
0.0267694
-0.00641392
-0.0080467
-0.026569
0.0259973
-0.00261193
-0.00450768
-0.0257938
0.025294
0.000395718
-0.000613416
-0.0252674