/*--------------------------------*- C++ -*----------------------------------*\
  =========                 |
  \\      /  F ield         | OpenFOAM: The Open Source CFD Toolbox
   \\    /   O peration     | Website:  https://openfoam.org
    \\  /    A nd           | Version:  10
     \\/     M anipulation  |
\*---------------------------------------------------------------------------*/
FoamFile
{
    format      ascii;
    class       volVectorField;
    location    "32";
    object      U;
}
// * * * * * * * * * * * * * * * * * * * * * * * * * * * * * * * * * * * * * //

dimensions      [0 1 -1 0 0 0 0];

internalField   nonuniform List<vector> 
25879
(
(1.08601 0.0113144 9.83003e-21)
(1.08265 0.012672 -1.46893e-20)
(1.08248 0.00867691 2.74094e-20)
(1.08571 0.00771517 -2.70609e-20)
(0.934685 0.538578 1.22482e-22)
(0.957949 0.539662 -1.06878e-21)
(1.33271 0.152686 0)
(1.31057 0.154053 -5.94654e-22)
(1.28923 0.143928 0)
(1.29782 0.130148 0)
(1.421 0.214019 -1.79682e-21)
(1.38383 0.190192 3.34654e-21)
(1.46429 0.236776 -4.52415e-20)
(0.279813 -0.0321419 5.6965e-20)
(0.3877 0.0672687 -8.40792e-20)
(0.996551 0.491317 -2.54515e-20)
(1.04931 0.624856 -3.7146e-20)
(1.35067 -0.690455 7.89615e-20)
(1.49087 -0.589232 -9.19397e-20)
(0.475242 -0.153572 6.45561e-20)
(0.46529 -0.311089 2.84713e-19)
(0.370847 0.691 -1.46316e-19)
(0.636716 0.616302 1.16442e-19)
(1.03594 0.0447678 3.80549e-21)
(1.04129 0.0493252 4.84389e-21)
(1.03557 0.0481591 3.4839e-22)
(1.02917 0.0412116 -4.60063e-23)
(1.03275 0.0383895 -4.89615e-21)
(1.02916 0.0380881 -6.85367e-21)
(1.0382 0.0425406 -2.76384e-21)
(1.04396 0.0473392 3.20309e-20)
(-0.137486 -0.122106 7.19086e-20)
(-0.128585 -0.121745 -3.28547e-20)
(-0.107463 -0.159795 4.63596e-20)
(1.46513 0.0514132 1.14459e-20)
(1.43368 -0.097321 -1.0804e-21)
(1.4005 -0.135105 1.01058e-21)
(1.07474 -0.252808 -3.8527e-22)
(1.05548 -0.251574 -5.7021e-21)
(1.54436 0.316751 -4.09804e-20)
(1.50794 0.293358 -5.11335e-21)
(1.45124 0.300153 -5.46077e-21)
(1.0124 -0.253538 -1.36091e-20)
(1.00129 -0.233876 0)
(0.997246 -0.216183 -1.50914e-21)
(1.45512 -0.16569 0)
(1.47083 -0.141114 6.4447e-20)
(0.128499 -0.00723896 6.03929e-20)
(0.441867 0.0392651 2.59546e-21)
(0.622188 0.0918659 0)
(1.23288 -0.420205 -3.48576e-21)
(1.22908 -0.364941 -1.57033e-21)
(0.737031 0.256486 -1.01106e-19)
(0.984305 0.417344 0)
(0.594794 0.00636869 -1.65192e-22)
(0.583653 0.00498452 0)
(0.621416 0.00666479 3.41667e-22)
(0.838818 0.206641 -9.66678e-20)
(0.839386 0.179046 9.27173e-20)
(0.884102 0.161816 -1.80823e-19)
(0.887541 0.201123 1.70656e-19)
(0.888058 0.320289 7.44037e-22)
(0.902355 0.254254 -3.64948e-21)
(0.754273 -0.00576352 6.70112e-23)
(0.819164 -0.00688009 2.74329e-21)
(0.776424 -0.00520015 -1.97645e-21)
(-0.118163 -0.0599728 2.81007e-21)
(-0.0719482 -0.0643163 0)
(-0.114326 -0.108921 0)
(-0.140847 -0.137751 1.26936e-19)
(-0.175574 -0.168449 -3.42103e-19)
(1.00633 0.0297897 1.26621e-20)
(1.01017 0.0416652 0)
(1.01335 0.045513 -7.01322e-21)
(1.06511 -0.109573 5.23179e-20)
(1.01922 -0.123734 0)
(1.00434 -0.0843171 1.97143e-20)
(1.0753 0.00737076 0)
(1.07344 0.00223689 1.57216e-20)
(1.07734 0.0037352 1.72286e-20)
(0.986322 -0.249632 0)
(0.997017 -0.278046 3.441e-20)
(0.330585 0.204214 6.3768e-20)
(0.504818 0.158245 3.38604e-19)
(0.422963 0.331841 0)
(0.998709 -0.0139739 1.942e-20)
(1.00027 -0.0186568 -1.81998e-20)
(1.00494 -0.0215886 0)
(1.12449 0.0465773 4.75004e-21)
(1.11705 0.0408671 -1.34429e-22)
(0.0776615 0.20375 -7.57308e-20)
(0.230715 0.189419 8.42522e-20)
(-0.00394245 0.154551 2.12532e-20)
(1.04036 0.0420938 1.28198e-20)
(1.03589 0.0379971 -3.83763e-22)
(0.879681 0.477583 1.36607e-21)
(0.892802 0.502718 -2.49557e-22)
(0.924732 0.511 4.72033e-22)
(1.44977 -0.0774944 2.72466e-21)
(1.47055 -0.0288012 5.48402e-22)
(1.4181 -0.0624526 -9.35949e-22)
(1.41865 -0.033229 -9.13605e-21)
(1.12339 0.0550386 5.00376e-21)
(1.12785 0.0575881 -2.31246e-23)
(1.13232 0.051607 -2.68997e-22)
(1.07243 -0.0792992 9.91191e-21)
(1.05464 -0.0641246 -2.95579e-21)
(1.22648 -0.474353 1.96872e-20)
(1.142 -0.667221 7.15166e-21)
(1.3677 -0.160982 -7.23511e-22)
(1.33344 -0.181041 9.14267e-22)
(1.21189 -0.118593 7.00793e-23)
(1.1988 -0.115528 0)
(1.17739 0.0086894 2.63353e-21)
(1.18073 0.00983557 -3.38477e-21)
(1.05313 0.160609 -2.94233e-21)
(1.06378 0.172639 3.08525e-21)
(1.41012 0.180965 6.67048e-21)
(1.23385 0.281315 1.0035e-20)
(1.20922 0.250741 -1.85294e-20)
(1.2037 0.224977 4.94549e-20)
(1.49849 -0.0638042 -8.07398e-21)
(1.49238 -0.0381741 0)
(1.43103 0.361722 -1.67156e-20)
(1.42979 0.343451 2.96572e-20)
(0.333424 0.134601 -3.60921e-20)
(0.546889 0.0900027 0)
(-0.212271 0.125785 -2.12847e-20)
(-0.0666447 0.155339 0)
(-0.0120131 0.00884178 0)
(-0.196453 -0.0849781 -1.45106e-19)
(-0.121079 -0.13537 2.73263e-19)
(0.910576 -0.0880948 0)
(0.925474 -0.102778 9.50815e-20)
(0.939911 -0.0832691 3.00579e-20)
(0.929492 -0.0726438 -2.4838e-20)
(1.08047 0.00680032 -3.87455e-20)
(1.07853 0.0100524 2.44359e-20)
(1.32023 0.135741 -1.09725e-21)
(0.620014 -0.00685793 -2.51184e-22)
(0.961029 -0.509107 -3.25372e-20)
(0.978179 -0.518295 0)
(0.983403 -0.538824 -4.11731e-21)
(0.980354 -0.545382 0)
(0.995509 -0.560746 0)
(1.00008 -0.559964 8.81962e-21)
(1.00838 -0.561525 -4.02242e-22)
(1.01415 -0.560227 -1.76754e-20)
(1.01962 -0.561274 8.57089e-21)
(1.024 -0.564394 -8.37974e-21)
(1.02744 -0.570004 -3.6467e-23)
(1.02997 -0.577695 8.41682e-21)
(1.03161 -0.586903 0)
(1.03219 -0.596708 -9.34888e-21)
(1.03157 -0.606213 9.24184e-21)
(1.0295 -0.613728 0)
(1.02568 -0.61728 1.16384e-20)
(1.02009 -0.614033 -1.17733e-20)
(1.01246 -0.600822 1.4145e-20)
(1.00335 -0.574535 -3.00966e-20)
(0.992693 -0.53209 3.2758e-20)
(0.981876 -0.472328 -3.62086e-20)
(0.970968 -0.394432 1.8645e-20)
(0.961918 -0.301245 0)
(0.954334 -0.195112 0)
(0.949824 -0.0819497 2.23269e-20)
(0.946742 0.0347357 -2.19923e-22)
(0.946329 0.148958 -2.2102e-20)
(0.946778 0.256939 -2.00518e-20)
(0.948834 0.3534 2.02667e-20)
(0.951515 0.43502 -1.71067e-20)
(0.95592 0.498341 1.77755e-20)
(0.961508 0.542789 -8.86142e-22)
(0.96965 0.569776 0)
(0.977764 0.58249 0)
(0.98659 0.583284 -2.3914e-21)
(0.99164 0.578277 -1.46266e-20)
(0.998421 0.587044 0)
(1.00284 0.590014 5.052e-21)
(0.967624 0.573163 -2.69271e-21)
(0.996809 -0.522504 4.06456e-21)
(0.99203 -0.490546 -2.09272e-21)
(0.969593 -0.486289 0)
(0.977466 0.568113 0)
(0.945586 0.565815 0)
(0.956992 0.574242 5.13785e-21)
(0.92496 0.503176 1.58271e-20)
(0.934444 0.54349 8.69042e-22)
(0.911478 0.367357 -1.36045e-21)
(0.916951 0.444453 -3.30824e-20)
(0.90606 0.17047 0)
(0.907483 0.275003 1.86334e-20)
(0.908481 -0.055234 -4.25951e-20)
(0.905779 0.0589751 2.06685e-20)
(0.921935 -0.272228 1.9667e-20)
(0.913475 -0.166836 2.05088e-20)
(0.945294 -0.446025 1.70654e-20)
(0.932384 -0.366091 -1.9012e-20)
(0.972563 -0.555629 0)
(0.95874 -0.509056 -1.64965e-20)
(0.996539 -0.603788 0)
(0.985183 -0.58628 0)
(1.01333 -0.610347 1.00827e-20)
(1.00585 -0.610758 0)
(1.02276 -0.597441 9.02394e-21)
(1.01886 -0.605183 -9.74611e-21)
(1.0265 -0.580383 -8.56663e-21)
(1.02524 -0.588796 -8.72265e-21)
(1.02596 -0.567917 -8.63877e-21)
(1.02677 -0.573241 8.28058e-21)
(1.02149 -0.564481 -9.19678e-21)
(1.02445 -0.565423 8.34735e-21)
(1.01356 -0.566167 -1.02709e-20)
(1.01881 -0.567035 8.77276e-21)
(1.00425 -0.558092 0)
(1.0102 -0.567371 1.00854e-20)
(1.00037 -0.543968 -4.58228e-22)
(0.976924 -0.546148 0)
(0.953143 -0.513155 1.84579e-20)
(0.965534 -0.5319 0)
(0.997585 -0.551452 8.79902e-21)
(0.988388 -0.55049 -9.01012e-21)
(1.01462 -0.553426 2.50293e-22)
(1.00696 -0.552146 5.27921e-25)
(1.02771 -0.563231 1.62478e-20)
(1.02161 -0.557007 -7.85056e-21)
(1.03747 -0.581448 0)
(1.03297 -0.5713 -7.90313e-21)
(1.04379 -0.603419 0)
(1.0412 -0.592174 0)
(1.04529 -0.619658 1.16122e-20)
(1.04547 -0.613029 0)
(1.04028 -0.611412 1.42333e-20)
(1.04405 -0.620172 -1.12594e-20)
(1.02849 -0.552526 1.7438e-20)
(1.03572 -0.590249 -1.38009e-20)
(1.01279 -0.422722 0)
(1.02161 -0.497671 -1.6908e-20)
(0.998811 -0.226081 -2.26647e-20)
(1.0062 -0.332251 0)
(0.991345 0.00536237 7.22968e-22)
(0.995227 -0.113162 2.26708e-20)
(0.989859 0.231441 2.15318e-20)
(0.991345 0.120225 -2.08473e-20)
(0.989904 0.417725 -3.75497e-20)
(0.990842 0.330504 1.84182e-20)
(0.991977 0.537657 4.93092e-22)
(0.991519 0.486087 1.74379e-20)
(0.995334 0.569672 0)
(0.94853 -0.475865 -3.91402e-21)
(0.962069 -0.442746 4.77015e-23)
(0.987746 -0.448199 -1.06887e-21)
(0.98677 0.563641 4.48484e-21)
(0.992286 0.572041 -7.79898e-21)
(0.980155 0.553729 -3.13067e-21)
(0.995376 0.56323 0)
(0.991573 0.554207 4.09408e-21)
(1.00561 0.586973 2.75434e-22)
(1.01988 0.58575 6.03687e-21)
(1.01984 0.591117 -1.63262e-20)
(0.93508 -0.495663 8.56607e-21)
(0.935108 -0.474647 1.0458e-20)
(0.919448 -0.463276 -3.4252e-21)
(0.920134 -0.427621 -7.49187e-21)
(0.938419 -0.432841 3.02244e-21)
(0.954123 0.561546 -4.87532e-21)
(0.967447 0.557214 2.3527e-21)
(0.926079 0.556055 -7.08307e-22)
(0.940319 0.562645 2.76988e-21)
(0.898557 0.50082 0)
(0.911786 0.536841 0)
(0.878721 0.37342 4.51824e-21)
(0.887424 0.446319 -1.57323e-23)
(0.870051 0.183255 -4.94931e-21)
(0.872981 0.284575 -4.33845e-21)
(0.873016 -0.0380314 0)
(0.870099 0.0741212 4.75303e-21)
(0.888259 -0.251891 0)
(0.879172 -0.148292 0)
(0.91443 -0.42494 0)
(0.900286 -0.345308 0)
(0.945994 -0.537649 3.77598e-21)
(0.930103 -0.489408 -3.62595e-21)
(0.975559 -0.591262 3.16581e-21)
(0.961494 -0.571109 -3.04006e-21)
(0.99845 -0.603125 2.68013e-21)
(0.988038 -0.601127 -2.57369e-21)
(1.01383 -0.593946 0)
(1.00706 -0.600085 0)
(1.02311 -0.578986 0)
(1.01914 -0.58653 0)
(1.02785 -0.567684 2.1446e-21)
(1.02603 -0.572552 -2.05941e-21)
(1.02881 -0.565201 0)
(1.02894 -0.56575 0)
(1.02662 -0.568386 1.24916e-21)
(1.02857 -0.567926 0)
(1.02254 -0.561824 0)
(1.02495 -0.568307 0)
(1.01853 -0.52699 -3.66901e-21)
(1.0202 -0.548022 3.27589e-21)
(1.01453 -0.452117 0)
(1.0167 -0.494868 2.01935e-21)
(0.963323 -0.53021 2.29976e-21)
(0.949652 -0.517983 -2.39749e-21)
(0.988477 -0.538506 -4.22001e-21)
(0.976135 -0.536112 4.23593e-21)
(1.00979 -0.542207 -2.56872e-22)
(0.999552 -0.53973 -1.17054e-25)
(1.02792 -0.55359 3.95824e-21)
(1.01932 -0.546694 -3.76762e-21)
(1.0431 -0.573491 4.11829e-21)
(1.03587 -0.562664 -3.91998e-21)
(1.05567 -0.598186 4.55913e-21)
(1.04979 -0.585602 -4.33961e-21)
(1.06461 -0.619495 5.33751e-21)
(1.06074 -0.610121 -5.08052e-21)
(1.06816 -0.619536 6.50922e-21)
(1.0672 -0.62373 -6.19579e-21)
(1.06515 -0.571011 8.05625e-21)
(1.06751 -0.603121 -7.66824e-21)
(1.05668 -0.44961 9.76982e-21)
(1.06145 -0.520147 -9.29908e-21)
(1.04635 -0.254841 1.12051e-20)
(1.05152 -0.359983 -1.0665e-20)
(1.03794 -0.018475 5.15417e-21)
(1.04191 -0.138957 -7.02514e-22)
(1.03259 0.214525 6.19198e-21)
(1.03495 0.101021 -6.30789e-21)
(1.02833 0.406823 -3.06531e-22)
(1.03084 0.317665 -4.58746e-21)
(1.02297 0.532234 -4.92977e-22)
(1.02589 0.478838 0)
(1.0213 0.567305 0)
(1.00309 0.578176 2.53446e-21)
(0.903048 -0.416849 1.89888e-21)
(1.00144 0.57066 -2.30954e-21)
(1.01309 -0.397375 -2.49687e-21)
(1.0429 -0.453363 1.95808e-21)
(1.04348 -0.398981 -2.84452e-22)
(1.00402 0.567027 0)
(1.00203 0.558742 -1.03997e-22)
(1.02044 0.588235 -2.14251e-21)
(1.02193 0.582187 -2.30958e-21)
(1.01288 0.5811 1.06645e-20)
(0.954655 -0.388214 -4.28362e-22)
(0.982906 -0.394444 -3.00159e-22)
(0.907481 -0.371433 1.90786e-21)
(0.928936 -0.37898 2.04528e-22)
(0.974909 0.541334 5.56452e-22)
(1.00127 0.548575 -1.87664e-21)
(0.988576 0.543403 9.1162e-22)
(0.943481 0.545286 1.34281e-22)
(0.959814 0.542709 0)
(0.909656 0.540776 7.28663e-22)
(0.926578 0.546237 -3.21786e-22)
(0.876957 0.489522 0)
(0.892746 0.523537 0)
(0.852273 0.367537 0)
(0.863186 0.437523 0)
(0.840607 0.183767 0)
(0.844592 0.281903 0)
(0.843889 -0.0316814 0)
(0.840393 0.077599 0)
(0.861288 -0.240297 0)
(0.850941 -0.139213 0)
(0.890271 -0.40959 0)
(0.874627 -0.331499 0)
(0.925227 -0.521642 0)
(0.907497 -0.473248 0)
(0.958955 -0.577521 0)
(0.94267 -0.555914 0)
(0.98654 -0.592863 0)
(0.973696 -0.589052 0)
(1.00677 -0.586815 0)
(0.997546 -0.591467 0)
(1.02086 -0.574086 0)
(1.01448 -0.580612 0)
(1.03035 -0.564368 0)
(1.02615 -0.568497 0)
(1.03631 -0.563111 0)
(1.03389 -0.562962 0)
(1.0396 -0.567247 -1.29147e-21)
(1.03865 -0.565699 0)
(1.04123 -0.561897 0)
(1.04077 -0.567057 6.45347e-22)
(1.04207 -0.52804 0)
(1.04182 -0.549158 2.52531e-23)
(1.04284 -0.496475 5.27709e-22)
(0.92091 -0.480373 -2.75843e-21)
(0.888939 -0.406564 7.35124e-22)
(0.904855 -0.449216 -2.22148e-21)
(0.952007 -0.513972 3.61232e-22)
(0.936553 -0.501233 -2.86764e-22)
(0.98152 -0.523933 0)
(0.967084 -0.520541 -5.20191e-25)
(1.00765 -0.530057 0)
(0.995077 -0.526511 1.19016e-25)
(1.03007 -0.543338 0)
(1.01926 -0.535595 0)
(1.04997 -0.564603 0)
(1.04026 -0.553116 0)
(1.06797 -0.590769 0)
(1.05922 -0.577362 0)
(1.08329 -0.614347 0)
(1.07605 -0.603692 0)
(1.09412 -0.617813 0)
(1.08939 -0.620181 0)
(1.09864 -0.573505 0)
(1.09723 -0.603589 0)
(1.09676 -0.455918 0)
(1.09841 -0.524904 0)
(1.09065 -0.263323 0)
(1.09408 -0.367899 0)
(1.08261 -0.0265684 0)
(1.08681 -0.147775 0)
(1.07378 0.207686 0)
(1.07827 0.0935389 0)
(1.0642 0.401107 3.11529e-22)
(1.06925 0.311377 0)
(1.05286 0.527833 -1.90371e-21)
(1.05874 0.473848 0)
(1.04185 0.582767 -3.87614e-22)
(1.04725 0.563515 1.84036e-21)
(1.03423 0.586003 7.20064e-21)
(1.03735 0.588507 3.4746e-22)
(1.01195 0.566256 4.78089e-22)
(1.01337 0.556734 1.35314e-21)
(0.88831 -0.360901 0)
(1.00746 0.575905 -1.76845e-21)
(1.00948 -0.331865 1.18642e-21)
(1.04307 -0.33333 -2.54961e-21)
(1.0063 0.57353 0)
(1.01151 0.574172 -1.96334e-21)
(1.03131 0.579974 -4.78832e-21)
(1.01946 0.577987 -1.99892e-21)
(0.876873 -0.392629 1.9095e-21)
(1.02162 0.57627 0)
(1.02521 0.567116 -4.24322e-22)
(0.873394 -0.351578 6.02638e-21)
(0.861381 -0.340583 -6.0862e-21)
(1.02671 0.57429 3.81149e-21)
(1.01301 0.578598 0)
(0.947498 -0.32314 5.77364e-22)
(0.97796 -0.329907 1.50806e-21)
(0.89661 -0.306681 0)
(0.920026 -0.314748 -6.59323e-23)
(0.859621 -0.286931 0)
(0.875771 -0.295797 0)
(1.00118 0.536191 0)
(1.02921 0.555401 1.29147e-21)
(1.01537 0.544654 -8.09598e-22)
(0.971148 0.526502 1.35968e-21)
(0.986529 0.530086 -1.82081e-21)
(0.935411 0.527574 -6.29403e-22)
(0.954048 0.526011 4.91228e-22)
(0.895827 0.522023 0)
(0.915582 0.527794 0)
(0.858481 0.472655 0)
(0.876416 0.505144 0)
(0.830399 0.355991 0)
(0.842857 0.422944 0)
(0.81663 0.179989 0)
(0.82149 0.273983 0)
(0.819624 -0.0268763 0)
(0.815986 0.0781202 0)
(0.838662 -0.22805 0)
(0.827321 -0.130477 0)
(0.870066 -0.392295 0)
(0.853154 -0.316338 0)
(0.90786 -0.502894 0)
(0.888636 -0.454737 0)
(0.945033 -0.560654 0)
(0.926934 -0.537769 0)
(0.976618 -0.579507 0)
(0.961712 -0.573851 0)
(1.00115 -0.576912 0)
(0.989748 -0.579913 0)
(1.01961 -0.56684 0)
(1.01105 -0.57214 0)
(1.03358 -0.559069 0)
(1.02712 -0.562279 0)
(1.04438 -0.559209 0)
(1.03942 -0.558309 0)
(1.05333 -0.564218 0)
(1.04917 -0.562033 0)
(1.0611 -0.559846 0)
(1.05735 -0.564408 0)
(1.06772 -0.526825 0)
(1.06459 -0.548044 -2.48083e-23)
(1.07343 -0.452465 -1.0916e-21)
(1.07056 -0.495351 -4.86027e-22)
(1.0777 -0.333754 5.02327e-21)
(1.07553 -0.398664 0)
(0.909757 -0.464248 5.59913e-22)
(0.892991 -0.434139 -6.43906e-22)
(0.943963 -0.497225 0)
(0.926776 -0.484745 -5.49161e-22)
(0.977222 -0.508426 0)
(0.960923 -0.504367 0)
(1.00695 -0.516536 0)
(0.992581 -0.51198 0)
(1.0332 -0.531382 0)
(1.02043 -0.522951 0)
(1.05746 -0.553597 0)
(1.04549 -0.541681 0)
(1.08061 -0.580764 0)
(1.06918 -0.566802 0)
(1.1021 -0.606141 0)
(1.09165 -0.594446 0)
(1.12001 -0.612685 0)
(1.11167 -0.613341 0)
(1.13164 -0.57228 0)
(1.12678 -0.600369 0)
(1.13548 -0.457811 0)
(1.13454 -0.525391 0)
(1.13272 -0.26673 0)
(1.13481 -0.370649 0)
(1.12524 -0.0310091 0)
(1.12956 -0.151638 0)
(1.11364 0.202468 0)
(1.11993 0.08872 0)
(1.09863 0.394718 0)
(1.10653 0.305616 0)
(1.08126 0.521013 0)
(1.09015 0.467084 0)
(1.0636 0.575783 -1.44107e-21)
(1.07232 0.556712 0)
(1.04848 0.580228 -6.3167e-22)
(1.05578 0.581884 1.70591e-21)
(1.03452 0.568395 0)
(1.04245 0.573646 -2.20651e-21)
(1.03714 0.579035 -2.81075e-21)
(1.04327 0.567086 2.20233e-21)
(1.02202 0.572858 -5.51902e-21)
(1.02702 0.56598 -6.30248e-21)
(1.00957 0.578045 -5.879e-22)
(1.01768 0.577415 1.98883e-21)
(0.847246 -0.277362 -5.71884e-21)
(1.01167 0.579851 0)
(1.07918 -0.259678 1.36347e-21)
(1.11346 -0.332172 -2.47593e-21)
(1.11596 -0.258518 1.29485e-21)
(1.01876 0.583681 1.87718e-21)
(1.03118 0.588242 -1.88763e-21)
(1.01555 0.575597 1.45112e-22)
(1.04926 0.592845 1.62799e-21)
(1.05739 0.581335 1.12668e-22)
(1.01837 0.5671 4.76532e-21)
(1.01352 0.579131 4.84007e-22)
(1.00679 -0.256629 -2.61795e-21)
(1.04221 -0.25884 2.46181e-21)
(0.940297 -0.248201 -5.81228e-22)
(0.972572 -0.253256 0)
(0.88699 -0.23297 -1.97601e-21)
(0.911776 -0.240666 0)
(0.848123 -0.215683 -9.22489e-22)
(0.865416 -0.224669 2.92448e-21)
(1.03326 0.540948 -1.16667e-21)
(1.06572 0.567543 1.66165e-21)
(1.0496 0.552909 3.68498e-22)
(1.00147 0.521386 0)
(1.01754 0.530266 8.86482e-22)
(0.968154 0.509425 0)
(0.985148 0.514367 0)
(0.929045 0.507255 0)
(0.94944 0.507386 0)
(0.884993 0.500608 0)
(0.907254 0.506506 0)
(0.843319 0.454756 0)
(0.863267 0.484928 0)
(0.812273 0.344654 0)
(0.826025 0.408079 0)
(0.796961 0.176909 0)
(0.802428 0.26658 0)
(0.799751 -0.0209792 0)
(0.796032 0.0795588 0)
(0.819934 -0.214334 0)
(0.807865 -0.120424 0)
(0.85332 -0.373381 0)
(0.835349 -0.299613 0)
(0.893514 -0.482372 0)
(0.873031 -0.434543 0)
(0.933596 -0.54182 0)
(0.913967 -0.517754 0)
(0.96863 -0.564079 0)
(0.951936 -0.556619 0)
(0.996982 -0.564954 0)
(0.983639 -0.566286 0)
(1.01946 -0.55762 0)
(1.00888 -0.561655 0)
(1.03764 -0.551812 0)
(1.02903 -0.554111 0)
(1.05311 -0.55319 0)
(1.04567 -0.551673 0)
(1.06743 -0.558823 0)
(1.06036 -0.556245 0)
(1.08125 -0.554901 0)
(1.07441 -0.559236 0)
(1.09381 -0.522876 -6.34975e-24)
(1.08781 -0.543539 6.35599e-24)
(1.10453 -0.449644 5.06728e-24)
(1.09962 -0.491483 1.23718e-23)
(1.10915 -0.396026 -5.52176e-22)
(0.867286 -0.37761 -1.22951e-21)
(0.837864 -0.269047 6.84682e-21)
(0.851517 -0.327634 -2.38709e-21)
(0.901127 -0.445994 -1.18276e-22)
(0.883643 -0.417135 -1.35168e-22)
(0.938214 -0.479095 0)
(0.919486 -0.466375 0)
(0.974495 -0.491568 0)
(0.956658 -0.486683 0)
(1.00733 -0.501531 0)
(0.991393 -0.496059 0)
(1.03693 -0.517686 0)
(1.02242 -0.508722 0)
(1.06513 -0.54042 0)
(1.05111 -0.528311 0)
(1.09301 -0.567941 0)
(1.0791 -0.553778 0)
(1.12026 -0.594232 0)
(1.10679 -0.581959 0)
(1.14496 -0.60303 0)
(1.13312 -0.602347 0)
(1.16363 -0.566461 0)
(1.15529 -0.592464 0)
(1.17319 -0.456336 0)
(1.16966 -0.521787 0)
(1.17344 -0.26867 0)
(1.1744 -0.37103 0)
(1.16616 -0.035715 0)
(1.1707 -0.154962 0)
(1.15203 0.195087 0)
(1.15997 0.0826265 0)
(1.13186 0.385235 0)
(1.1426 0.297096 0)
(1.10825 0.510728 0)
(1.12029 0.456952 0)
(1.08439 0.566642 0)
(1.09616 0.546811 0)
(1.06281 0.572541 0)
(1.07327 0.573805 0)
(1.04257 0.561728 8.02996e-22)
(1.05288 0.56712 0)
(1.02203 0.557338 0)
(1.03288 0.558045 3.02083e-21)
(1.07246 0.596365 -7.84376e-22)
(1.0832 0.581921 9.59125e-22)
(1.00864 0.571412 0)
(1.01019 0.559695 0)
(0.83492 -0.208122 0)
(1.01222 0.582966 -4.02351e-22)
(1.014 0.58116 0)
(1.07921 -0.176779 6.86531e-22)
(1.11849 -0.176291 2.63895e-21)
(1.01592 0.58886 4.58811e-22)
(1.00853 0.580751 8.08302e-22)
(1.02549 0.595436 4.51726e-22)
(1.04074 0.601893 -7.51276e-22)
(1.06129 0.608105 0)
(0.831232 -0.258773 -1.14454e-21)
(0.99686 0.577915 -2.49762e-21)
(1.08723 0.613281 -2.88844e-21)
(1.10064 0.598619 -2.39282e-21)
(0.996632 0.563713 -5.34165e-22)
(0.825563 -0.201682 0)
(0.81958 -0.196054 3.54493e-21)
(1.01297 0.583542 -6.96368e-22)
(1.00275 -0.173281 0)
(1.04033 -0.175951 1.66279e-22)
(0.934658 -0.164984 2.97503e-22)
(0.967515 -0.170088 -3.2075e-22)
(0.879049 -0.153006 1.26262e-22)
(0.904812 -0.158439 0)
(0.839652 -0.140304 0)
(0.857347 -0.146312 -1.28482e-22)
(0.816802 -0.129209 5.47649e-21)
(0.826168 -0.1336 -2.93076e-21)
(1.07352 0.550131 -7.84168e-22)
(1.11274 0.580833 -8.85306e-22)
(1.09291 0.564838 8.00253e-23)
(1.03767 0.524436 -2.34247e-23)
(1.05559 0.536649 0)
(1.00239 0.504493 0)
(1.02002 0.513869 -4.95955e-22)
(0.966196 0.490519 3.34749e-22)
(0.984646 0.496561 -4.09592e-22)
(0.924299 0.485017 0)
(0.946077 0.486778 0)
(0.876948 0.477366 0)
(0.900952 0.483259 0)
(0.831774 0.434948 0)
(0.853415 0.462812 0)
(0.798098 0.332051 0)
(0.813008 0.39154 0)
(0.781505 0.173398 0)
(0.787445 0.258366 0)
(0.78414 -0.0148438 0)
(0.780371 0.0809081 0)
(0.805128 -0.199899 0)
(0.792538 -0.109841 0)
(0.840021 -0.353592 0)
(0.821232 -0.282063 0)
(0.88212 -0.460847 0)
(0.860633 -0.413426 0)
(0.92456 -0.521726 0)
(0.903683 -0.496623 0)
(0.962489 -0.547109 0)
(0.944281 -0.537984 0)
(0.994184 -0.551242 0)
(0.979125 -0.551001 0)
(1.02029 -0.546495 0)
(1.00787 -0.549338 0)
(1.04237 -0.542434 0)
(1.03176 -0.543948 0)
(1.06222 -0.544668 0)
(1.05248 -0.542773 0)
(1.08157 -0.550435 0)
(1.07189 -0.547775 0)
(1.10103 -0.546658 0)
(1.09141 -0.550839 0)
(1.11961 -0.51539 7.89917e-22)
(1.11085 -0.535463 -7.79043e-22)
(1.13583 -0.443731 -4.42371e-22)
(1.12839 -0.48527 5.24411e-22)
(1.14887 -0.32832 0)
(1.14285 -0.39109 -2.67648e-22)
(1.15684 -0.175786 -5.51906e-21)
(1.15318 -0.255661 -1.11012e-21)
(0.860084 -0.361666 -4.85758e-22)
(0.844474 -0.314902 1.15982e-21)
(0.895258 -0.427209 1.18612e-22)
(0.876779 -0.398939 6.02435e-22)
(0.934491 -0.459567 0)
(0.91468 -0.446938 0)
(0.973152 -0.473257 0)
(0.954127 -0.467589 0)
(1.0085 -0.48503 0)
(0.991275 -0.47869 0)
(1.04103 -0.502222 0)
(1.02499 -0.492868 0)
(1.07277 -0.525133 0)
(1.05689 -0.513009 0)
(1.10497 -0.552591 0)
(1.08878 -0.538447 0)
(1.13761 -0.579356 0)
(1.1213 -0.566718 0)
(1.16875 -0.590193 0)
(1.15358 -0.588232 0)
(1.19421 -0.557779 0)
(1.18252 -0.581456 0)
(1.20931 -0.45298 0)
(1.20328 -0.515733 0)
(1.21237 -0.270102 0)
(1.21232 -0.370197 0)
(1.20501 -0.0412437 0)
(1.2099 -0.158461 0)
(1.18843 0.185502 0)
(1.19789 0.0750344 0)
(1.16352 0.372595 0)
(1.17687 0.285781 0)
(1.13377 0.49687 0)
(1.14897 0.443438 0)
(1.10368 0.553696 0)
(1.11851 0.533167 0)
(1.07631 0.561436 0)
(1.08959 0.561873 0)
(1.05134 0.551281 0)
(1.0637 0.556742 0)
(1.02662 0.545823 1.09829e-21)
(1.03922 0.547353 -6.91699e-22)
(0.997802 0.550057 -3.7392e-21)
(1.01328 0.546726 8.56045e-22)
(0.980729 0.567815 0)
(0.981267 0.553816 1.88268e-21)
(1.11846 0.615784 1.04943e-21)
(1.13335 0.597424 9.38144e-23)
(1.01337 0.591486 4.56202e-22)
(1.00943 0.587629 -7.73052e-22)
(0.811272 -0.126202 1.89013e-21)
(1.0198 0.600056 -4.57748e-22)
(0.999163 0.588128 3.502e-22)
(1.15902 -0.0892223 2.66437e-21)
(1.19402 -0.173017 6.15136e-22)
(1.19644 -0.0888243 -1.06765e-21)
(1.03201 0.608674 4.67386e-22)
(0.983082 0.583371 2.50309e-21)
(1.04974 0.617375 9.97863e-22)
(0.959345 0.568538 0)
(1.07323 0.624985 1.08588e-21)
(1.10216 0.630576 0)
(1.13684 0.63177 2.79862e-21)
(1.15476 0.613503 -2.5614e-21)
(1.01122 0.591089 2.18468e-22)
(1.07934 -0.0880205 6.88531e-22)
(1.11955 -0.0890406 0)
(1.00079 -0.0840845 -1.32664e-21)
(1.03951 -0.086884 0)
(0.929672 -0.0768962 0)
(0.963584 -0.0802539 1.62564e-21)
(0.873503 -0.0681969 0)
(0.899528 -0.0723175 0)
(0.834242 -0.0605436 6.92733e-24)
(0.851743 -0.0642212 0)
(0.811323 -0.0540482 0)
(0.820728 -0.057089 0)
(1.12326 0.560154 8.72105e-22)
(1.16967 0.592065 0)
(1.14586 0.576051 1.06211e-22)
(1.08097 0.530551 0)
(1.10158 0.545144 3.36873e-22)
(1.04178 0.506036 0)
(1.0609 0.517628 0)
(1.00385 0.485934 -2.73846e-22)
(1.02272 0.495426 0)
(0.965009 0.470149 0)
(0.984642 0.477321 3.43343e-22)
(0.921405 0.461575 0)
(0.944055 0.464943 0)
(0.871842 0.452548 0)
(0.89707 0.458635 0)
(0.823807 0.413678 0)
(0.846892 0.439095 0)
(0.78782 0.318569 0)
(0.803749 0.373798 0)
(0.770126 0.169582 0)
(0.776464 0.24959 0)
(0.77262 -0.00862416 0)
(0.768827 0.0821654 0)
(0.794117 -0.185058 0)
(0.781195 -0.0990048 0)
(0.830022 -0.33318 0)
(0.810673 -0.263984 0)
(0.873501 -0.438502 0)
(0.851277 -0.391597 0)
(0.917753 -0.500526 0)
(0.895905 -0.47454 0)
(0.958043 -0.528716 0)
(0.938583 -0.518082 0)
(0.992604 -0.535858 0)
(0.976056 -0.534158 0)
(1.02194 -0.533507 0)
(1.00786 -0.53525 0)
(1.04758 -0.530953 0)
(1.03512 -0.531818 0)
(1.07145 -0.533675 0)
(1.05962 -0.531629 0)
(1.09544 -0.539167 0)
(1.08337 -0.536684 0)
(1.1202 -0.53524 0)
(1.10787 -0.539468 0)
(1.1446 -0.504999 0)
(1.1328 -0.524471 0)
(1.16619 -0.435065 -1.21639e-22)
(1.15619 -0.475452 0)
(1.1832 -0.322212 -1.08525e-21)
(1.17551 -0.383832 1.32844e-21)
(1.18937 -0.251765 -6.11649e-22)
(0.82715 -0.248247 0)
(0.808276 -0.123779 -5.1844e-21)
(0.816007 -0.188447 1.86717e-21)
(0.855442 -0.345002 0)
(0.83993 -0.300649 0)
(0.891897 -0.407706 0)
(0.872833 -0.380734 0)
(0.932703 -0.439076 0)
(0.912045 -0.42659 0)
(0.973124 -0.453892 0)
(0.953208 -0.447472 0)
(1.01043 -0.467309 0)
(0.992183 -0.460195 0)
(1.04541 -0.485261 0)
(1.02807 -0.47567 0)
(1.08021 -0.507997 0)
(1.06272 -0.496046 0)
(1.11621 -0.534893 0)
(1.09801 -0.521041 0)
(1.15368 -0.561485 0)
(1.1348 -0.548814 0)
(1.19077 -0.573834 0)
(1.1725 -0.570814 0)
(1.22268 -0.54571 0)
(1.20778 -0.566874 0)
(1.24313 -0.447387 0)
(1.23469 -0.506749 0)
(1.24872 -0.270936 0)
(1.24781 -0.36795 0)
(1.24094 -0.0474599 0)
(1.24635 -0.162068 0)
(1.22194 0.174155 0)
(1.23283 0.0662337 0)
(1.19282 0.357145 0)
(1.2085 0.272128 0)
(1.1575 0.479717 0)
(1.1756 0.42682 0)
(1.12153 0.53716 0)
(1.13928 0.516066 0)
(1.08877 0.546763 0)
(1.10465 0.546248 0)
(1.0593 0.53793 0)
(1.07377 0.542927 0)
(1.03019 0.532748 0)
(1.045 0.534183 0)
(0.996749 0.53658 3.81212e-22)
(1.01441 0.533833 0)
(0.978168 0.538764 1.16377e-21)
(1.17611 0.62769 1.2485e-21)
(1.1946 0.605398 1.31358e-21)
(0.80594 -0.0532259 -2.39372e-21)
(1.01421 0.60179 2.608e-24)
(1.00384 0.595618 0)
(1.15926 0.000803903 2.07828e-21)
(1.19721 -0.000592998 -3.24066e-22)
(1.02298 0.612689 -1.80677e-23)
(0.989114 0.595446 -3.51925e-22)
(1.03772 0.623494 0)
(0.967917 0.587383 0)
(1.05848 0.633347 0)
(0.945166 0.562792 0)
(1.08494 0.641393 -2.53471e-21)
(1.11711 0.64612 0)
(1.15461 0.645734 -4.2757e-21)
(0.906332 0.53293 8.03984e-22)
(0.807765 -0.119853 1.82669e-21)
(1.19768 0.637418 -3.28072e-21)
(1.21961 0.616053 0)
(0.803709 -0.0542994 -2.82091e-21)
(0.80387 -0.0546928 8.48872e-22)
(1.00873 0.600435 0)
(1.07741 0.00444608 0)
(1.11903 0.00242413 -3.44043e-21)
(0.997527 0.00845767 0)
(1.03661 0.0067036 0)
(0.926415 0.0139413 0)
(0.96047 0.0114765 0)
(0.870417 0.0184563 0)
(0.896279 0.0164501 0)
(0.831892 0.0207204 -6.82093e-24)
(0.84897 0.0197411 0)
(0.809956 0.0209459 1.61919e-21)
(0.818851 0.0210187 -1.69345e-22)
(0.802926 0.016432 2.1331e-21)
(0.804516 0.0191444 -3.44549e-21)
(1.18216 0.566756 -2.1628e-22)
(1.23752 0.590297 1.18508e-21)
(1.20932 0.58014 -1.18367e-21)
(1.13237 0.537314 -3.72753e-22)
(1.15688 0.552053 5.82845e-22)
(1.08733 0.509589 2.56948e-22)
(1.10924 0.522934 -3.23706e-22)
(1.04567 0.48591 0)
(1.06602 0.497122 -2.54161e-22)
(1.00566 0.466096 0)
(1.02561 0.47562 0)
(0.965104 0.44911 0)
(0.985632 0.457174 0)
(0.920368 0.437466 0)
(0.943521 0.442502 0)
(0.869504 0.426613 0)
(0.895489 0.433133 0)
(0.819306 0.391143 0)
(0.843547 0.414112 0)
(0.781274 0.304258 0)
(0.798128 0.354951 0)
(0.762548 0.165512 0)
(0.769265 0.240293 0)
(0.764856 -0.00233205 0)
(0.76108 0.0833588 0)
(0.786595 -0.169924 0)
(0.773508 -0.0879832 0)
(0.823061 -0.312284 0)
(0.80339 -0.245515 0)
(0.867423 -0.415472 0)
(0.844711 -0.369191 0)
(0.912987 -0.478373 0)
(0.890418 -0.451647 0)
(0.955145 -0.509074 0)
(0.934678 -0.497077 0)
(0.992109 -0.518984 0)
(0.974299 -0.515936 0)
(1.02426 -0.518847 0)
(1.00872 -0.519579 0)
(1.05306 -0.51759 0)
(1.03897 -0.517928 0)
(1.08056 -0.52052 0)
(1.06685 -0.518491 0)
(1.10874 -0.525453 0)
(1.09451 -0.5233 0)
(1.13831 -0.521172 0)
(1.12346 -0.525511 0)
(1.16793 -0.491684 0)
(1.15335 -0.510651 0)
(1.19477 -0.424032 0)
(1.18189 -0.463238 0)
(1.21572 -0.314624 -1.12425e-21)
(1.20587 -0.374686 9.88055e-22)
(1.2288 -0.169571 -4.07559e-22)
(1.22334 -0.245736 1.32582e-22)
(1.23302 -0.00289373 -3.74437e-23)
(1.23209 -0.0876572 -2.50152e-21)
(0.825293 -0.236273 0)
(0.815267 -0.180613 -1.05868e-21)
(0.853613 -0.328177 0)
(0.838246 -0.285969 0)
(0.890767 -0.387492 0)
(0.87128 -0.362026 0)
(0.932663 -0.417842 0)
(0.911439 -0.405569 0)
(0.974249 -0.433742 0)
(0.953742 -0.426607 0)
(1.01298 -0.448605 0)
(0.993964 -0.44084 0)
(1.04993 -0.467025 0)
(1.03153 -0.457344 0)
(1.08728 -0.48927 0)
(1.06844 -0.477656 0)
(1.12651 -0.515187 0)
(1.10659 -0.501854 0)
(1.16816 -0.541069 0)
(1.14706 -0.528643 0)
(1.21056 -0.554463 0)
(1.1895 -0.550587 0)
(1.24845 -0.530682 0)
(1.23054 -0.549207 0)
(1.27402 -0.439827 0)
(1.26326 -0.49518 0)
(1.28192 -0.271408 0)
(1.28028 -0.364522 0)
(1.27333 -0.0545427 0)
(1.27947 -0.166018 0)
(1.25179 0.161198 0)
(1.2641 0.0561841 0)
(1.21896 0.339349 0)
(1.23666 0.256492 0)
(1.1788 0.459864 0)
(1.19942 0.407603 0)
(1.13762 0.517985 0)
(1.15798 0.496271 0)
(1.09994 0.529572 0)
(1.11821 0.528026 0)
(1.06626 0.522177 0)
(1.08273 0.52664 0)
(1.03324 0.516948 0)
(1.05 0.518623 0)
(0.995815 0.518028 0)
(1.01539 0.517174 0)
(0.952106 0.515352 0)
(0.974928 0.518014 -9.2157e-23)
(1.24419 0.620979 0)
(1.2657 0.596516 -1.61665e-21)
(0.857879 0.493472 -1.69949e-21)
(0.839009 0.458148 1.84377e-22)
(1.01388 0.613526 -4.51552e-22)
(0.996799 0.604861 0)
(0.803646 0.012032 1.63333e-21)
(1.02515 0.626408 4.72058e-22)
(0.977339 0.602032 0)
(1.23083 0.0844801 1.48336e-22)
(1.26515 -0.00382624 2.8047e-22)
(1.26269 0.0801566 -2.81294e-22)
(1.04258 0.638504 0)
(0.950737 0.58788 3.10458e-22)
(1.06612 0.648851 1.49171e-21)
(0.917501 0.560325 -1.8543e-21)
(1.09566 0.656075 1.27144e-21)
(0.873954 0.521473 8.8436e-22)
(1.13098 0.658467 1.47395e-21)
(1.17181 0.653937 3.26339e-21)
(1.2175 0.640433 -7.90959e-23)
(1.29272 0.595009 4.31404e-21)
(1.26636 0.617009 -1.02521e-21)
(0.824287 0.460659 0)
(0.811636 0.423985 8.78288e-23)
(1.00506 0.610897 0)
(1.15688 0.0924252 -3.34068e-22)
(1.19542 0.0886757 3.14497e-22)
(1.0763 0.097916 -1.35855e-21)
(1.11684 0.0949984 2.72397e-21)
(0.995616 0.102417 0)
(1.03507 0.100833 0)
(0.924982 0.104649 0)
(0.958683 0.103939 0)
(0.870018 0.104096 0)
(0.89525 0.104888 0)
(0.832895 0.100708 0)
(0.849287 0.103418 0)
(0.812067 0.094105 0)
(0.820586 0.098152 -1.90989e-22)
(0.805624 0.0843792 0)
(0.807185 0.0899742 0)
(1.2508 0.561525 0)
(1.3125 0.568387 -8.18172e-22)