/*--------------------------------*- C++ -*----------------------------------*\
  =========                 |
  \\      /  F ield         | OpenFOAM: The Open Source CFD Toolbox
   \\    /   O peration     | Website:  https://openfoam.org
    \\  /    A nd           | Version:  10
     \\/     M anipulation  |
\*---------------------------------------------------------------------------*/
FoamFile
{
    format      ascii;
    class       surfaceScalarField;
    location    "33.5";
    object      phi;
}
// * * * * * * * * * * * * * * * * * * * * * * * * * * * * * * * * * * * * * //

dimensions      [0 3 -1 0 0 0 0];

internalField   nonuniform List<scalar> 
29080
(
0.0906991
-0.145245
-0.0152918
0.0698375
0.0509639
0.0397352
0.0108957
0.0268309
-0.0240328
-0.0136939
0.0385045
0.00535011
-0.0329589
0.0353149
-0.00157291
0.00476253
0.0315237
-0.0585052
0.0476201
-0.0206386
-0.0485206
0.0291411
0.0509032
0.0310733
0.0045215
-0.0427029
0.0071081
-0.0288412
0.0650891
-0.0051746
0.0109952
-0.103353
-0.0159728
0.0608206
-0.08383
0.0553314
0.0822523
0.0662795
-0.0174449
-0.107387
0.0377361
0.0652083
0.0044429
0.000804336
0.0345807
-0.0117996
-0.0209476
0.0500361
0.0265036
0.0535169
-0.0882859
0.00826537
0.0200166
0.0748213
0.0204122
0.0635888
-0.00405934
0.00243714
-0.00108683
-0.00754805
0.00619775
-0.0130153
-0.0221086
0.0375611
-0.00779767
-0.00557329
0.000355609
-0.00881481
-6.96905e-05
-0.00627861
-0.0100843
-0.0696725
0.00682151
0.00339213
0.0594588
-0.032473
-0.0487647
0.0115652
0.0431901
-0.0394382
-0.0362249
0.00822684
-0.00334962
-0.0037662
-0.00111103
0.00348686
0.00473999
-0.0045887
0.00807556
0.00331772
-0.011256
-0.00266995
0.00222148
-0.0243735
-0.00285861
0.0203262
0.00690597
0.00142798
-0.0190319
-0.00676963
0.0239872
0.00122364
-0.0237828
0.0154511
0.00567743
0.0159815
0.0197958
-0.040069
0.0116181
0.0332798
-0.00482894
0.0246873
-0.0481528
-0.0166034
0.0224549
0.0117229
-0.00949061
0.0241173
0.00995578
0.0235969
0.0338002
0.0611554
0.00533603
-0.0339742
-0.0325172
0.000899227
0.0547472
0.00550896
-0.028923
0.0292171
0.000605096
-0.027086
0.00349907
-0.0579209
-0.00730718
0.0178231
0.047405
-0.0662703
0.0151709
-0.0446551
0.0215749
0.079956
0.0259732
-0.0404981
-0.0654311
-0.026118
0.022028
0.0840461
0.0641245
-0.103696
0.0681587
-0.0285875
-0.0398624
0.0550513
0.0489356
-0.0125183
-0.00183396
0.00397989
0.0103724
0.00718954
-0.0107076
-0.00900026
-0.00626184
0.00619215
-0.0125405
-0.0635403
-0.041378
0.00863608
0.0962822
-0.029869
0.025869
-0.0595403
0.0570304
-0.0604087
-0.0264908
0.0565653
-0.0409128
0.0732091
-0.00800777
0.0834777
-0.0395526
-0.0439251
-0.0589074
0.0475469
0.0948382
-0.0279249
-0.0302453
0.018732
-0.00459738
0.0181619
-0.0414894
0.011977
-0.0468197
0.0102558
0.00146709
0.0202116
0.00660426
0.0276538
-0.00504095
-0.0210948
0.0293854
0.0113366
-0.0196273
-0.0597864
0.00218422
0.0365074
0.00156506
0.022726
-0.040789
0.0207522
-0.0426814
0.00420109
-0.0261004
0.0275768
-0.0340778
-1.01716e-05
0.038289
-0.026732
0.00185522
0.0409019
-0.0398544
-0.00205824
0.00101075
-0.00101967
-0.00104702
0.0429686
-0.00733539
0.0160384
0.00562965
-0.0143326
0.000490616
-0.0184833
0.0106573
-0.00969473
0.00860971
0.00827456
0.0221081
-0.00606902
-0.0257338
0.0882605
-0.00974573
-0.0989867
0.0204719
-0.00909212
0.0611771
0.0361755
0.0555101
-0.0198419
0.0217162
-0.0573844
0.054633
0.019597
-0.0187199
-0.0272568
-0.0460232
0.0458925
0.0273875
-0.0467204
0.0476298
-0.0281662
0.0295063
0.0451726
-0.0455156
-0.0291633
0.0446385
0.027998
-0.0431302
-0.000796708
0.0499113
-0.049387
0.000272328
0.0480507
-0.00197006
-0.0468774
-0.0151389
0.0497921
-0.0483085
0.0136553
0.0484264
-0.0168343
-0.0467309
0.0303043
0.0920704
-0.13212
-0.0802106
0.0843969
-0.0106301
-0.0513522
0.00826383
0.0537184
-0.0486196
-0.0155966
0.0535862
0.0105284
-0.0111538
-0.0479942
0.00811669
-0.0489406
-0.0522646
0.00581023
0.0518044
-0.00534999
0.00864755
-0.0526484
-0.00066824
-0.0192961
0.00193251
0.0180319
-0.0113984
0.0107648
-3.46457e-05
0.0011758
-0.0123204
-0.000253818
0.00249452
-0.0206149
-0.0184947
-0.00299319
0.002456
0.0108618
-0.027424
0.0204898
0.0408042
-0.0182558
-0.0430381
0.0219959
0.0581006
-0.0596066
0.00324264
0.0595574
-0.00883216
-0.0119726
0.0140351
-0.00306608
0.00499873
-0.0282947
-0.0442138
0.0264854
-0.0421293
-0.0328858
-0.0416438
0.0254297
-0.0259151
0.0113713
-0.0297126
-0.0233025
0.0415549
-0.0482865
0.0181028
0.0227707
-0.028029
0.017516
-0.0191995
0.01213
-0.0260845
-0.0140745
0.0463303
-0.0458538
0.0116535
0.0155598
-0.023821
0.00568914
-0.00795266
-0.000833258
-0.0217497
-0.00123796
0.0456879
-0.0453189
-0.00120217
0.00552318
-0.0196159
-0.00755675
0.00542294
-0.0138579
-0.0175186
0.0117606
0.0453668
-0.045686
-0.0135387
-0.00750895
-0.0158273
-0.0190805
0.0173892
-0.0235693
-0.0143872
0.0221292
0.0462089
-0.046889
-0.0228893
-0.0185576
-0.0135093
-0.0263758
0.025498
-0.0283584
-0.0129026
0.0277516
0.0476655
-0.0485032
-0.0275207
-0.0255993
-0.0127948
-0.0287229
0.0286151
-0.0288807
-0.0127533
0.0288393
0.0492994
-0.049992
-0.0281881
-0.0279266
-0.012884
-0.0283022
0.0284328
-0.0283728
-0.0127951
0.028284
0.0505179
-0.0509072
-0.0279836
-0.0277763
-0.0290104
-0.028277
0.0444922
-0.0290389
-0.0323609
0.0323893
0.0511564
-0.0536463
-0.026549
-0.0280277
-0.0399894
-0.0197407
0.0273693
-0.0258384
-0.0419566
0.0278055
0.0469986
-0.0440703
-0.0287667
-0.0263884
-0.0437962
-0.0259629
0.0278024
-0.0273627
-0.0420546
0.0256211
0.0436383
-0.0456896
-0.0253115
-0.0263948
0.0278963
-0.0289474
-0.0435264
0.029368
-0.0288431
0.0271506
0.0475851
-0.0278962
0.0466828
0.0269446
-0.042473
0.047509
-0.0454249
0.0250665
-0.0272502
0.0481066
0.0266526
-0.0287971
0.049132
0.0483363
-0.0483575
-0.0281451
0.0511324
-0.0306923
0.0456485
-0.0436889
0.0274084
-0.0432275
0.0425294
0.0285005
0.0280422
-0.0406333
0.0391861
0.0288165
0.0297017
-0.0346233
0.0508772
0.0282384
0.0369521
-0.0506969
0.050445
0.0286847
0.0284643
-0.0501669
0.0498842
0.0288977
0.0291174
-0.0495929
0.049247
0.0258438
0.028043
-0.0488325
0.0484051
0.0178167
0.0225437
-0.0481418
0.0483083
0.00525648
0.0120238
-0.0486809
0.0490454
-0.00831715
-0.00161053
-0.0495286
0.0500788
-0.0197496
-0.0145578
-0.0505197
0.0513819
-0.0267773
-0.0237435
-0.0298613
0.0309843
-0.029342
0.0494901
0.0488701
0.0430605
-0.0429951
0.02642
0.0250231
0.0423944
-0.0444656
0.020174
0.0221701
0.0448127
-0.0441087
0.0109495
0.0159069
0.04362
-0.0437535
-0.00106869
0.00503444
0.0440158
-0.0444589
-0.0130956
-0.00724662
0.0450573
-0.0457953
-0.0221513
-0.0179592
0.0466266
-0.0475181
-0.0266292
-0.024768
0.0484072
-0.0492638
-0.0273315
-0.0270375
0.0500354
-0.0506976
-0.0273214
-0.0270047
0.051236
-0.0497611
-0.0280239
-0.0274893
0.0480237
-0.0493026
-0.0274877
-0.0281258
0.0486751
-0.0455779
-0.0284087
-0.0270223
-0.0293527
0.0272778
-0.0275285
0.0493827
0.0255205
0.0498639
0.027427
-0.0441712
-0.0280429
0.0275295
-0.0426168
0.0509635
-0.0506111
-0.0296944
0.0290922
0.0498764
-0.0280051
0.0287612
0.0498212
-0.0462183
-0.0273402
0.0440038
-0.0442793
0.0276839
-0.0442698
0.0425606
0.0302097
0.0277762
-0.0437499
0.0428517
0.0297147
0.0285124
-0.0512116
0.0513689
0.0280812
0.0285922
-0.0514244
0.0514047
0.0287044
0.0284087
-0.051344
0.0512632
0.0289786
0.0291782
-0.0511652
0.0510539
0.0259552
0.0281409
-0.0509711
0.0509446
0.0178432
0.0226265
-0.0509288
0.0507583
0.00542698
0.0120397
-0.0507759
0.0509732
-0.00851447
-0.00162814
-0.0512648
0.0515712
-0.0200561
-0.0148494
-0.0518769
0.0516975
-0.026598
-0.0240491
-0.0503301
0.0514131
-0.0292281
-0.028494
-0.0298902
0.0501028
-0.0482411
0.025293
0.0484686
0.0470124
-0.0472389
0.025293
0.0254239
0.0477936
-0.0458313
0.0244576
0.0255778
0.0456579
-0.0446518
0.0191678
0.0219968
0.0437264
-0.0430066
0.0102297
0.0149815
0.0425923
-0.0424253
-0.00123571
0.00462015
0.0426111
-0.0430666
-0.0126401
-0.0070608
0.0437284
-0.0445833
-0.0212964
-0.0172974
0.045594
-0.0467276
-0.0254957
-0.0237573
0.0478805
-0.0489798
-0.0262322
-0.0258846
0.0499339
-0.0507419
-0.0265134
-0.0260506
0.0514294
-0.0517063
-0.0277471
-0.0268018
0.051466
-0.0508114
-0.0281424
-0.028366
0.04917
-0.0462246
-0.0313541
-0.0286637
0.047176
-0.0462295
-0.0301097
-0.0284013
-0.0233516
0.0222254
-0.045092
0.0479732
-0.0477736
-0.0235512
-0.0255965
-0.043336
0.0264838
0.0266893
-0.0416328
0.0225765
-0.0429679
-0.0280595
0.027363
0.0505176
-0.0182605
0.0171543
-0.0439858
-0.0197483
-0.0462859
-0.0288789
0.0506958
0.0493544
-0.048302
0.0242406
0.051101
-0.051793
-0.0290023
0.0514509
-0.028355
-0.0248729
0.0499665
0.0242608
-0.025998
0.0495937
-0.0262381
0.0248202
-0.0419181
-0.0437201
0.0441525
-0.0426288
0.0232965
-0.0455658
0.0460777
0.0271719
0.0250705
-0.0465777
0.0483595
0.0284279
0.0272762
-0.0487167
0.0506374
0.027794
0.0281551
-0.0514768
0.0518857
0.0276722
0.0277528
-0.0521968
0.0524325
0.0284687
0.0280977
-0.0526342
0.0528249
0.0287879
0.0289764
-0.0530121
0.0531794
0.025788
0.0279537
-0.0533039
0.0533577
0.0177894
0.0225019
-0.0533585
0.0534154
0.00537001
0.0120389
-0.0534702
0.0535886
-0.0086329
-0.00168293
-0.0537419
0.0538918
-0.020206
-0.0150026
-0.053987
0.0539839
-0.0265949
-0.0241444
-0.0535104
0.0526131
-0.0283309
-0.0280204
-0.0290701
-0.0269773
0.0254435
0.0509165
0.0504885
0.0493093
0.0479803
-0.0483388
0.0256514
0.0251022
0.0472786
-0.0461156
0.0232946
0.0245176
0.0449738
-0.0438537
0.0180477
0.0208549
0.0428733
-0.0421122
0.00946863
0.0140011
0.0416459
-0.0415106
-0.001371
0.00415387
0.0416907
-0.0421663
-0.0121645
-0.00688075
0.0429039
-0.0438871
-0.0203132
-0.0165598
0.0450406
-0.046301
-0.0242353
-0.0226038
0.0475535
-0.0487447
-0.025041
-0.0246321
0.0498157
-0.0507851
-0.025544
-0.0249797
0.0516637
-0.0525031
-0.0269077
-0.0259231
0.0533159
-0.0527315
-0.0287268
-0.0275532
0.0518974
-0.0536162
-0.0296353
-0.0294978
0.0524317
-0.0525308
-0.0300107
-0.0295858
0.0509927
-0.0498106
-0.0247333
-0.0271346
0.0488766
0.0142532
-0.0480207
-0.0151091
-0.0206823
0.0229623
-0.0420186
0.0212903
-0.0222892
-0.0409192
-0.0403098
0.0189713
0.0250675
-0.0262569
0.0507831
0.0246437
0.0503903
0.0172139
-0.0430275
0.0135489
-0.0455815
0.0128816
-0.0433186
-0.00808874
0.00729834
-0.0447911
-0.0279133
0.0504853
-0.00805872
-0.043047
0.0149515
-0.0161402
-0.0391212
0.0400842
-0.0381158
0.0129832
-0.0417045
0.0439589
0.0210422
0.0173509
-0.0454306
0.0471017
0.0255009
0.0235988
-0.047767
0.049263
0.0269319
0.0266109
-0.0502414
0.0510587
0.0269767
0.0271767
-0.051769
0.0523874
0.0270539
0.0270425
-0.0529421
0.0534567
0.0279541
0.0275429
-0.0539596
0.0544479
0.0282995
0.0284736
-0.0549085
0.0553105
0.025386
0.0274931
-0.055638
0.0558785
0.0175489
0.0221744
-0.0560354
0.0561056
0.00529973
0.0118821
-0.0561426
0.0561498
-0.00864013
-0.00171989
-0.0561227
0.0560342
-0.0201175
-0.0149754
-0.0558624
0.0555908
-0.0263232
-0.0239727
-0.0551399
0.0546311
-0.0278221
-0.0275695
-0.0532394
0.0518837
-0.0276467
-0.0276784
-0.0513768
0.0510646
-0.0276011
-0.0278482
0.0279389
-0.0272751
0.0498215
-0.0279451
0.0277316
0.0507311
0.0506897
-0.0273894
0.0273035
0.0510024
0.0508307
0.050356
-0.0497238
0.0238796
0.0504879
0.0494878
-0.0493887
0.0241415
0.0240248
0.0491602
-0.0480986
0.0245898
0.0248737
0.0469446
-0.0457206
0.0220707
0.0233636
0.0445072
-0.0433335
0.016874
0.0196415
0.0423183
-0.0415277
0.00867809
0.0129859
0.0410394
-0.0408711
-0.00153929
0.00366555
0.041036
-0.0415191
-0.0116814
-0.00671589
0.042289
-0.0433285
-0.0192737
-0.0157899
0.044564
-0.045935
-0.0228643
-0.0213683
0.0473163
-0.0486378
-0.0237195
-0.0232508
0.0498247
-0.0509081
-0.0244605
-0.0237929
0.0519226
-0.0529338
-0.0258965
-0.0249086
0.0539401
-0.0549501
-0.0277168
-0.0265469
0.0559317
-0.0558208
-0.0297462
-0.0285163
0.0550974
-0.0552135
-0.0298946
-0.0303092
0.0535459
-0.0524711
-0.0258081
-0.0288022
0.0508853
-0.0508766
-0.0151178
-0.0222682
-0.00902395
-0.0260174
0.0498068
0.0178241
-0.0426288
-0.0169136
-0.0401458
0.0128042
-0.04295
-0.00848489
-0.0367817
0.00715072
-0.00973379
-0.0378723
0.00677493
-0.0427952
0.0511879
-0.0508777
0.0235694
-0.0243331
0.0513372
0.0241838
-0.0251681
0.0513228
-0.00234975
-0.0444115
0.00996118
-0.0105696
-0.0462689
0.0508465
-0.0527274
-0.0257202
0.0504363
-0.0256072
0.00900056
-0.0421364
0.00109275
-0.00162263
-0.0362518
0.0364322
-0.0355911
0.000251703
-0.0376765
0.0394922
0.0111675
0.0059064
-0.0412139
0.0430138
0.0192423
0.0156292
-0.0447135
0.046332
0.0238823
0.021899
-0.047784
0.0490644
0.0256515
0.0251589
-0.0502045
0.0511974
0.0259838
0.0260366
-0.052085
0.0528955
0.0262434
0.0261549
-0.0536719
0.0544351
0.0271909
0.0267665
-0.0552042
0.0559607
0.027543
0.0277045
-0.056686
0.0573436
0.0247284
0.0267677
-0.0579028
0.0583256
0.0171261
0.0216152
-0.0585988
0.0587329
0.00516554
0.0116089
-0.0587601
0.0586941
-0.00857414
-0.00174705
-0.0585368
0.0582718
-0.0198526
-0.0148181
-0.0578818
0.0573608
-0.0258023
-0.0235826
-0.0567181
0.0559733
-0.0270772
-0.0269268
-0.055173
0.0541278
-0.0266015
-0.026878
-0.0264478
-0.025632
0.0261913
0.0492622
0.0248948
-0.023413
0.0489546
0.0490696
-0.0267801
0.0271623
0.0503489
0.0501008
-0.0272398
0.0273624
0.0508798
0.0507532
-0.0269105
0.0263732
0.0513204
0.0508079
0.0515955
0.0498203
-0.0501838
0.024505
0.0229674
0.0491414
-0.0479918
0.0234402
0.0238313
0.0467744
-0.0455032
0.0207995
0.0221462
0.044251
-0.0430564
0.0156795
0.0183893
0.042027
-0.0412177
0.0078688
0.0119565
0.0407036
-0.0405115
-0.00173139
0.00315145
0.0406532
-0.0411356
-0.0111989
-0.00657421
0.0419373
-0.0430406
-0.0181704
-0.0149882
0.0443586
-0.0458118
-0.0214112
-0.0200503
0.0472594
-0.0486381
-0.0223408
-0.0218031
0.0498925
-0.0510707
-0.0232823
-0.0225385
0.0522044
-0.0533556
-0.0247453
-0.0237748
0.0545234
-0.0557279
-0.0265123
-0.0253791
0.0569409
-0.0581579
-0.0285292
-0.0273033
0.0593087
-0.060089
-0.0291143
-0.0291583
0.0603207
-0.0597097
-0.0264191
-0.0285705
0.0591612
-0.0567003
-0.0175787
-0.0228166
0.0549504
-0.0520859
-0.00259219
-0.0107739
0.00670678
0.0118511
-0.0416757
-0.0104291
-0.0394505
0.0246639
-0.0259219
0.0525809
0.0233524
0.0526487
0.00589018
-0.0420653
-0.00269589
-0.036799
-0.00131835
-0.0438266
0.00560043
-0.0357538
-0.00543774
0.00526869
-0.0359201
-0.0101771
-0.044804
-0.0176854
-0.0454179
0.0491394
-0.0481263
-0.0244261
0.0221327
-0.0224948
-0.0463689
-0.047146
0.0209703
-0.0241593
0.0248978
0.0482161
0.0483452
-0.0233651
-0.0407144
-0.0116768
0.0120455
-0.0361226
0.0355509
-0.036351
-0.0108768
-0.0357542
0.0365312
-0.000525245
-0.00564105
-0.037718
0.0392781
0.00960739
0.00471955
-0.0411076
0.0427701
0.0175799
0.0137997
-0.0443066
0.0459958
0.0221932
0.0203626
-0.0475518
0.0489537
0.0242497
0.0236029
-0.0502276
0.0513712
0.0248402
0.0247627
-0.0524196
0.0533993
0.0252636
0.0251064
-0.0543594
0.0553239
0.0262264
0.0258065
-0.056315
0.0573102
0.0265477
0.0267135
-0.0582824
0.0591773
0.0238336
0.0257955
-0.0599491
0.0605489
0.0165262
0.0208434
-0.0609612
0.0611804
0.0049463
0.0111967
-0.0612335
0.0611236
-0.0084642
-0.00180016
-0.0608464
0.0603933
-0.0193994
-0.0145409
-0.0597642
0.0589827
-0.0250207
-0.0229535
-0.0580824
0.0571032
-0.026098
-0.0260265
-0.0559666
0.0545644
-0.0251993
-0.0257414
-0.0529184
0.0517548
-0.0245566
-0.0248018
-0.0219787
-0.0253089
0.0259675
0.0486036
0.0486585
-0.0263497
0.0269123
0.0497863
0.0497187
-0.0273206
0.0275402
0.0506602
0.0503449
-0.0268915
0.0262368
0.0519751
0.0514566
0.0519103
-0.0531027
0.0235803
0.0528748
0.0516805
-0.0508003
0.0226892
0.0227615
0.0513992
-0.0503452
0.023451
0.0235663
0.0492206
-0.0480069
0.0222265
0.0227067
0.046745
-0.0454438
0.0194982
0.0208843
0.0441757
-0.0429778
0.0144816
0.0171212
0.041946
-0.0411273
0.00705015
0.0109247
0.0405956
-0.0403751
-0.00195189
0.00261976
0.0405011
-0.0409857
-0.0107142
-0.00644826
0.0418134
-0.042963
-0.0170208
-0.0141605
0.0443342
-0.0458366
-0.0199087
-0.0186791
0.0473228
-0.0487359
-0.0209277
-0.0203169
0.0500326
-0.0512738
-0.0220412
-0.0212417
0.0524934
-0.0537513
-0.0234874
-0.0225553
0.0550429
-0.0563974
-0.0251579
-0.0240875
0.0577976
-0.0592552
-0.0270716
-0.0259031
0.060705
-0.0613661
-0.0284533
-0.0277085
0.0617811
-0.06195
-0.0262503
-0.0281554
0.0609809
-0.0593546
-0.019205
-0.0237857
0.0574023
-0.0537796
-0.0062149
-0.0127261
0.051934
-0.051295
0.0130163
0.00486113
0.026697
-0.0284247
-0.0454183
0.0501079
-0.0484361
0.0250251
0.0197832
0.0054229
-0.0412084
-0.00410707
-0.0380394
-0.00168183
-0.0417018
0.00515343
-0.0366837
-0.0105863
-0.0434174
0.0121929
-0.0360674
-0.0176766
-0.0448127
0.015723
-0.0370847
-0.0149893
0.0172536
-0.0376531
-0.0239617
-0.0439509
-0.0304928
-0.0443008
-0.029156
-0.0471734
0.0278934
-0.0321772
-0.0423971
0.0500466
-0.0523419
-0.0221308
0.019848
-0.0366133
-0.0304081
0.0545023
-0.0526035
0.0216816
-0.0235085
0.0242938
0.0474308
-0.0230197
0.0478564
-0.0227551
0.0549719
0.0222854
-0.024091
0.0542107
0.0496041
0.0227062
-0.0524623
0.0488551
-0.0221737
-0.0393986
-0.0176784
0.0200431
-0.0394494
0.0382856
-0.0400293
-0.0159346
-0.036675
0.0361909
-0.0103927
-0.0133787
-0.0359315
0.0366656
-0.00125937
-0.00538166
-0.03764
0.0389735
0.0082739
0.00374513
-0.0403823
0.0422217
0.0157405
0.0123909
-0.0440457
0.0457838
0.0204551
0.0185386
-0.0474196
0.0489203
0.022749
0.021967
-0.0503054
0.0515717
0.0235739
0.0233776
-0.0527514
0.0538686
0.0241464
0.0239268
-0.0549778
0.0561063
0.0250978
0.0246973
-0.0572792
0.0584712
0.0253557
0.0255406
-0.0596498
0.0607503
0.022733
0.024617
-0.0617207
0.0624976
0.0157493
0.0198731
-0.0630486
0.0633704
0.00462445
0.0106457
-0.063459
0.0633195
-0.00832471
-0.00188867
-0.0629448
0.0623355
-0.0187901
-0.0141663
-0.0615072
0.0605042
-0.0240178
-0.0221252
-0.0593798
0.0581934
-0.0249116
-0.0249021
-0.0569788
0.0556222
-0.0238427
-0.0245269
-0.0539528
0.0517807
-0.0223844
-0.0231324
-0.0225399
-0.0247659
0.025386
0.0479834
0.0481863
-0.0262222
0.0268951
0.0491134
0.0488825
-0.0273899
0.0276873
0.0503629
0.0498501
-0.0277793
0.0276604
0.052094
0.0513646
-0.0262774
0.0247459
0.0541124
0.0532933
0.0533036
0.052271
-0.0527637
0.0231819
0.022429
0.0517003
-0.0505645
0.0223153
0.0225029
0.0493804
-0.0481206
0.0209667
0.0215226
0.0468305
-0.0455144
0.0181821
0.0195942
0.044244
-0.0430507
0.0132882
0.0158508
0.0420216
-0.0411984
0.006227
0.00989552
0.0406534
-0.0404194
-0.00218586
0.0020747
0.0405385
-0.0410338
-0.0102189
-0.00632916
0.0418916
-0.0430826
-0.0158298
-0.0133027
0.0444899
-0.0460114
-0.0183872
-0.0172719
0.0474996
-0.0489125
-0.0195148
-0.0188287
0.050226
-0.0515088
-0.0207583
-0.0199283
0.0527898
-0.0541219
-0.0221552
-0.0212743
0.0554996
-0.0569621
-0.0236955
-0.0227097
0.0585021
-0.0601449
-0.0254287
-0.0243631
0.0618286
-0.0634896
-0.0267922
-0.0260248
0.0649767
-0.0651425
-0.0260844
-0.0266684
0.065079
-0.0639691
-0.0203149
-0.0238492
0.0619728
-0.0616801
-0.00650759
-0.0147224
0.0579037
-0.0537648
0.00887741
0.00108473
0.0515295
-0.0497009
0.0231965
0.0175479
0.0277966
-0.0028634
-0.0400269
0.00384339
-0.0367293
0.0234294
-0.0253487
0.0561301
0.0220718
0.0563295
0.0475958
-0.0495107
0.024621
-0.0109598
-0.0413283
0.011918
-0.0364089
-0.0185974
-0.0424967
0.0182398
-0.0370536
-0.0248733
-0.0439012
0.0211214
-0.0387315
-0.0297174
-0.0447263
0.019027
-0.0419357
-0.0171205
0.0210571
-0.0414795
-0.033054
-0.0434241
-0.0357551
-0.0432552
-0.0388686
-0.0440018
-0.0214352
0.0472706
-0.0384186
-0.0177329
-0.0443026
0.0200998
0.0436292
-0.0455688
-0.0157933
-0.0409806
0.0387623
-0.0137163
-0.0144719
-0.0369359
0.0356215
-0.00907833
-0.0115523
-0.0357513
0.0360682
-0.00157634
-0.00551139
-0.0371503
0.0385994
0.0068248
0.0026631
-0.040286
0.0420816
0.0139449
0.0107043
-0.0439053
0.0456734
0.0186869
0.0167148
-0.0473662
0.0489435
0.0211717
0.0202742
-0.0504161
0.0517766
0.0222134
0.021905
-0.0530579
0.0542839
0.0229205
0.0226454
-0.0555118
0.0567692
0.0238404
0.0234694
-0.0580825
0.0594263
0.024012
0.0242273
-0.0607733
0.0620479
0.0214585
0.0232699
-0.0631884
0.0641188
0.0148188
0.0187325
-0.0648057
0.0652237
0.00420652
0.00995878
-0.0653699
0.0652295
-0.00818429
-0.00203495
-0.064786
0.064043
-0.0180472
-0.0137228
-0.0630332
0.0618272
-0.0228118
-0.0211154
-0.0605006
0.05913
-0.023541
-0.0235755
-0.0577632
0.0564304
-0.0225099
-0.0231601
-0.0551329
0.0538739
-0.0211254
-0.0218349
-0.0521544
0.0504063
-0.0203826
-0.0208204
-0.0490558
0.0476783
-0.0200577
-0.0208232
0.0214841
-0.0205216
0.0463081
-0.0224394
0.023255
0.0466152
0.0469011
-0.0244481
0.0250117
0.0474198
0.0469932
-0.0259152
0.02666
0.0483687
0.047979
-0.0272276
0.0275953
0.0499951
0.0492825
-0.0277532
0.0276875
0.0521597
0.0512068
-0.0273887
0.026863
0.0546381
0.0535922
0.0548178
-0.0557177
0.0207332
0.0570563
0.0551482
-0.0550965
0.0216299
0.0217159
0.0542924
-0.0531588
0.0220483
0.0216249
0.0520165
-0.0508245
0.0211233
0.0213607
0.049596
-0.0483068
0.0196776
0.0202941
0.0470017
-0.0456823
0.0168628
0.018289
0.0444175
-0.0432329
0.0121037
0.0145859
0.0422099
-0.0413874
0.00540454
0.00887251
0.0408386
-0.0406041
-0.00242033
0.00152588
0.0407333
-0.0412543
-0.00969794
-0.00619999
0.0421486
-0.043373
-0.0146055
-0.0124083
0.0447934
-0.0463009
-0.0168797
-0.0158514
0.0477584
-0.049145
-0.0181281
-0.0173712
0.0504538
-0.0517567
-0.0194555
-0.0186194
0.0530732
-0.054448
-0.0207803
-0.0199579
0.0558741
-0.057397
-0.0221725
-0.0212837
0.0590171
-0.0607719
-0.0236739
-0.022743
0.0626158
-0.0645151
-0.024893
-0.0241808
0.0663162
-0.0678443
-0.0245563
-0.0248673
0.0688431
-0.0690984
-0.0200595
-0.0228504
0.0684912
-0.0657583
-0.00924046
-0.0153297
0.0627391
-0.0607473
0.00688558
-0.00193447
0.0568916
-0.0521125
0.0184175
0.0136923
0.0232799
-0.019085
0.0462418
-0.011174
-0.0398126
0.011667
-0.0364783
0.0181425
-0.0470069
-0.0167044
-0.0465431
0.0203831
-0.0184122
-0.0415135
0.0182934
-0.0364624
-0.0248328
-0.0425372
0.0223518
-0.038284
-0.030438
-0.0431805
0.023012
-0.0406864
-0.0335046
-0.0442757
0.0220982
-0.0434779
-0.034844
-0.0443352
-0.0361247
-0.0459992
-0.0335882
-0.044647
0.0287246
-0.0332933
-0.0442968
0.0316968
-0.0302442
-0.0460996
0.0477728
-0.049484
-0.0183465
0.0575443
-0.0562418
0.0194307
-0.0207963
0.0588728
0.0194678
0.0464376
-0.0177498
-0.0222854
0.0585454
-0.0379256
-0.0183629
0.01983
-0.048474
0.0476804
-0.0490011
-0.0170422
-0.0458165
0.0442873
-0.0142642
-0.0148404
-0.0421637
0.0400937
-0.0116463
-0.0123483
-0.0380785
0.0366483
-0.00764814
-0.00953712
-0.0362679
0.0365642
-0.00187266
-0.00513101
-0.0374443
0.0387475
0.00552161
0.00178304
-0.0403355
0.0420695
0.012211
0.00911624
-0.0438693
0.0456455
0.0169107
0.014915
-0.0473716
0.049
0.0195434
0.0185481
-0.0505343
0.0519634
0.0207843
0.0203707
-0.0533202
0.0546287
0.0216119
0.0212886
-0.055945
0.0572969
0.0224886
0.0221531
-0.0587131
0.0601734
0.0225517
0.022811
-0.0616475
0.0630572
0.0200487
0.0217959
-0.0643295
0.0653892
0.013759
0.0174603
-0.0661919
0.0667149
0.00368348
0.00915615
-0.0669326
0.0668069
-0.00805856
-0.00225262
-0.0663094
0.0654518
-0.0171896
-0.0132253
-0.064289
0.0629169
-0.0214398
-0.0199525
-0.0614312
0.0599185
-0.0220284
-0.0220897
-0.0584314
0.0569958
-0.0210743
-0.021673
-0.0556244
0.0543026
-0.0198037
-0.0204634
-0.0527569
0.0510226
-0.0186483
-0.0192747
-0.0192847
-0.0480445
0.0213313
-0.0192172
0.0211173
-0.0503741
-0.0507414
-0.0174769
-0.0190256
0.0201664
0.0451673
0.0181818
-0.0169981
0.0452538
0.045398
-0.0213764
0.0224763
0.0455154
0.0456911
-0.0232163
0.0242619
0.0463741
0.0462532
-0.0251964
0.0259873
0.0475777
0.0470445
-0.0266132
0.027045
0.0495634
0.0486566
-0.027267
0.0272621
0.0521645
0.0509848
-0.0270222
0.0265553
0.055105
0.0538321
-0.0252426
0.0236857
0.057687
0.0561305
0.0577298
0.0558648
-0.0553086
0.0210738
0.0213389
0.0547311
-0.0535287
0.020846
0.0210473
0.0523358
-0.0511021
0.0198895
0.0201677
0.0498449
-0.0485396
0.0183723
0.0190369
0.0472293
-0.0459143
0.0155477
0.0169788
0.0446594
-0.0434866
0.010931
0.013331
0.0424737
-0.0416595
0.00459034
0.00785959
0.0411203
-0.0409039
-0.00263669
0.000986595
0.041064
-0.0416277
-0.00913429
-0.00603983
0.0425633
-0.0438083
-0.0133604
-0.0114727
0.0452144
-0.0466744
-0.0154197
-0.0144453
0.0480726
-0.0494124
-0.0167884
-0.015973
0.0507011
-0.0520068
-0.0181498
-0.0173307
0.0533372
-0.0547299
-0.0193877
-0.0186274
0.0561768
-0.0577259
-0.0206233
-0.0198368
0.0593782
-0.0611768
-0.0218753
-0.0210908
0.063091
-0.0651162
-0.0228678
-0.0222666
0.0671303
-0.0689951
-0.0226915
-0.0228532
0.0704375
-0.0711967
-0.0193003
-0.0214081
0.071025
-0.0698216
-0.0104439
-0.0155014
0.0677196
-0.0637395
0.00290549
-0.00403649
0.0596344
-0.0564965
0.0152795
0.00958724
0.05215
-0.0498815
0.0223526
0.0189334
0.0457832
-0.0411406
0.0270542
0.0246262
-0.0452763
-0.0267806
0.0309164
0.0148944
-0.0191379
-0.0410328
-0.0380852
0.026199
-0.018669
-0.0395558
0.0186282
-0.0368131
0.0195125
-0.0218576
0.0608904
0.0185807
0.0598047
-0.0249516
-0.0413947
0.023141
-0.0372516
-0.0298156
-0.0431597
0.0243906
-0.0396626
-0.0328905
-0.0437946
0.0238978
-0.042486
-0.0349389
-0.0441809
0.0225996
-0.0456944
-0.0347126
-0.0457473
-0.0334248
-0.0458676
-0.0304816
-0.0440594
-0.0258357
-0.0394019
-0.0494626
0.0225354
0.0202844
-0.0525579
-0.0184679
0.0219846
-0.0520743
-0.0195324
0.021158
-0.0541835
0.0460947
-0.0465972
-0.0164956
0.0226036
-0.0250407
-0.0385957
-0.0163155
0.0169523
0.0446169
-0.034075
0.0185934
-0.0148908
0.04467
-0.0379665
-0.0527516
0.0510312
-0.0167475
-0.0176509
-0.0494942
0.0474894
-0.0150375
-0.0159399
-0.0464535
0.0448301
-0.0126408
-0.0138045
-0.0431102
0.0407316
-0.00926776
-0.0106284
-0.0392142
0.0379973
-0.00643116
-0.00801978
-0.0373296
0.0373241
-0.00186723
-0.00446329
-0.037943
0.039052
0.00441269
0.00116411
-0.0405091
0.0421617
0.0105584
0.00765913
-0.0439197
0.0456846
0.0151458
0.013157
-0.0474209
0.0490748
0.0178895
0.0168118
-0.0506452
0.0521174
0.0193122
0.0188003
-0.0535241
0.0548876
0.0202485
0.0198818
-0.0562639
0.0576796
0.0210729
0.0207768
-0.0591679
0.0607094
0.0210101
0.0213228
-0.0622721
0.0637716
0.0185493
0.0202332
-0.0651375
0.0662933
0.0126032
0.0160944
-0.0672135
0.0678414
0.00305562
0.00823596
-0.0681409
0.0680382
-0.00795592
-0.00255212
-0.067497
0.0665417
-0.0162343
-0.0126841
-0.0652517
0.0637481
-0.0199362
-0.0186625
-0.0621421
0.0605288
-0.0204151
-0.0204837
-0.0589608
0.0574646
-0.0195782
-0.0201049
-0.056045
0.0546885
-0.0184471
-0.0190438
-0.0532934
0.0521312
-0.0174862
-0.0178796
-0.0499575
0.0485771
-0.0169661
-0.0171109
-0.0157699
-0.0181257
0.0189823
0.0443108
0.0442246
-0.0200756
0.0208045
0.0447865
0.0445978
-0.0219119
0.0229455
0.0453406
0.0451458
-0.0238873
0.0247059
0.0467591
0.0461027
-0.0253771
0.0258667
0.0490738
0.0479854
-0.026152
0.0262134
0.0521031
0.0506995
-0.026041
0.0256371
0.0555089
0.0540045
-0.0243381
0.0232536
0.0587715
0.0574294
0.0591259
-0.0587977
0.016526
0.0608524
0.0587596
-0.0586949
0.019366
0.0194297
0.0570722
-0.0563747
0.0203762
0.0197162
0.0551169
-0.0538683
0.0195974
0.0197895
0.0526394
-0.0513799
0.01863
0.0189388
0.0501072
-0.0487957
0.0170608
0.0177641
0.047487
-0.0461802
0.0142409
0.0156701
0.0449375
-0.0437795
0.00977296
0.0120884
0.0427828
-0.0419888
0.00379635
0.00686286
0.041478
-0.0413041
-0.00281063
0.000475832
0.0415192
-0.0421404
-0.00851304
-0.00582475
0.0431147
-0.0443591
-0.012116
-0.0104985
0.0457186
-0.0470999
-0.0140384
-0.0130859
0.0484168
-0.0496953
-0.0155099
-0.0146561
0.0509501
-0.0522393
-0.0168606
-0.0160759
0.0535595
-0.0549436
-0.0180036
-0.0173072
0.056385
-0.0579316
-0.0190766
-0.0183955
0.0595826
-0.061381
-0.0200768
-0.0194398
0.0633031
-0.0653611
-0.0208099
-0.0203445
0.0674639
-0.0695195
-0.0206359
-0.0207503
0.0712916
-0.0725278
-0.0180641
-0.019636
0.0729179
-0.0722644
-0.0110974
-0.0151114
0.0705325
-0.0678444
0.000217383
-0.00576834
0.0645203
-0.0610717
0.0118309
0.00626316
0.0574886
-0.0539636
0.0188276
0.0153503
0.0514618
-0.047258
0.0228504
0.0221244
0.0409556
-0.0372833
0.0225266
0.024614
0.0258773
-0.0232224
-0.0367299
0.0375429
-0.0232858
0.0116202
0.0188531
-0.0247032
-0.0398041
0.0240766
-0.0377487
-0.0294885
-0.0417217
0.026133
-0.038994
-0.0326119
-0.0434383
0.0254284
-0.0411931
-0.0340477
-0.0446858
0.0237059
-0.0435923
-0.0341253
-0.0447681
0.0225539
-0.046917
-0.0338019
-0.0453702
-0.0316318
-0.0447174
-0.0287605
-0.0411346
-0.026107
-0.0383356
-0.0246532
-0.0371649
-0.0223545
0.0383031
-0.0392344
-0.0209611
-0.0381233
0.0571784
-0.0190311
-0.0587913
0.020644
-0.0513016
0.0238236
0.0228267
-0.053743
0.0220008
-0.0565874
-0.0149172
0.015916
0.0436181
0.0461495
-0.047983
-0.0146621
0.0609352
-0.0604074
0.0159983
-0.0158
0.0612804
0.0154549
-0.0174933
0.0625457
0.0456148
-0.0143561
-0.0144668
0.0442197
-0.0385931
-0.0556869
0.0542994
-0.0173325
-0.0183504
-0.052921
0.0513244
-0.0151508
-0.0162725
-0.0497627
0.0482473
-0.0135221
-0.0143782
-0.0464991
0.0445972
-0.0107389
-0.0120563
-0.0434228
0.0421576
-0.00800251
-0.00945397
-0.0408201
0.0396013
-0.00521235
-0.00668231
-0.0387306
0.03841
-0.0015467
-0.0035926
-0.038699
0.0395344
0.00357727
0.00087515
-0.0407959
0.0423258
0.00902852
0.00639766
-0.0440157
0.0457504
0.0134111
0.0114671
-0.0474799
0.0491415
0.0162279
0.0150823
-0.0507287
0.0522237
0.0178172
0.0172131
-0.0536584
0.0550535
0.0188534
0.0184471
-0.0564648
0.0579198
0.0196179
0.0193655
-0.0594523
0.0610406
0.0194218
0.0197903
-0.0626502
0.0641984
0.0170011
0.0186236
-0.0656228
0.0668652
0.0113608
0.01467
-0.0678936
0.0686444
0.00230474
0.00720759
-0.0690206
0.0689324
-0.00786779
-0.00292824
-0.0683417
0.0672958
-0.0151884
-0.0120934
-0.0659025
0.0643049
-0.0183387
-0.0172692
-0.0626238
0.0609558
-0.018747
-0.0188026
-0.0593495
0.0578287
-0.0180574
-0.0184987
-0.0563921
0.055031
-0.017086
-0.0176073
-0.0537331
0.0522676
-0.0160206
-0.0165817
-0.0506224
0.0488936
-0.0152373
-0.0154657
-0.0148594
-0.0164223
0.0171411
0.0435919
0.0437184
-0.017855
0.0189209
0.0437207
0.0438839
-0.0199662
0.0209612
0.0443456
0.0441004
-0.0218881
0.0227141
0.0459332
0.0451757
-0.023413
0.0239468
0.04854
0.0472864
-0.0242894
0.0244175
0.0519749
0.0503569
-0.0243202
0.0239955
0.0558337
0.0541018
-0.0234447
0.0226931
0.0595231
0.0579802
-0.0204313
0.0199421
0.0613796
0.0613876
0.0622535
0.059422
-0.0587152
0.0186592
0.0184443
0.0580561
-0.0567194
0.0190395
0.0190571
0.0554335
-0.0541647
0.0183286
0.0185036
0.052916