/*--------------------------------*- C++ -*----------------------------------*\
  =========                 |
  \\      /  F ield         | OpenFOAM: The Open Source CFD Toolbox
   \\    /   O peration     | Website:  https://openfoam.org
    \\  /    A nd           | Version:  10
     \\/     M anipulation  |
\*---------------------------------------------------------------------------*/
FoamFile
{
    format      ascii;
    class       surfaceScalarField;
    location    "9";
    object      phi;
}
// * * * * * * * * * * * * * * * * * * * * * * * * * * * * * * * * * * * * * //

dimensions      [0 3 -1 0 0 0 0];

internalField   nonuniform List<scalar> 
57492
(
-0.0223821
0.000359891
0.00490723
0.017115
0.0121595
-0.0150021
-0.0195395
-0.00266726
0.00853885
0.0268042
-0.0326758
0.099057
0.0722964
-0.0164347
-0.154919
-0.209904
0.0849529
0.224008
0.0406527
-0.0374654
-0.0191243
0.0159369
-0.0700737
0.0143423
-0.00774382
0.0634753
0.0170619
-0.0464829
0.0313964
-0.100796
0.0959912
-0.0265912
0.0270623
0.0924598
-0.0881257
0.0174911
0.00532604
-0.0220332
-0.000783894
0.00641235
0.0210712
-0.00999242
0.00227681
0.0005729
0.00356264
-0.000398197
0.00800104
0.102002
-0.0883268
-0.037603
0.0239276
0.00396445
0.0775804
0.0204574
-0.00790962
0.0187176
0.0886764
-0.0994844
-0.0175953
0.0876771
-0.0779914
0.0132314
-0.0281857
0.0149543
-0.0815568
0.0546184
0.0401698
-0.121098
0.0129836
0.088553
0.0195614
0.0230476
-0.122261
-0.0218849
0.0150393
-0.000766962
0.00672588
-0.0209982
0.00646545
0.00596988
0.00260399
-0.0916677
0.103438
0.00432373
-0.0160937
-0.144049
0.0823894
-0.0300082
-0.052896
0.0160414
0.0291429
0.00771165
-0.0393901
-0.0162199
0.00271403
-0.0240314
-0.0645735
0.0802848
0.00832011
-0.0293986
0.0099885
-0.00462125
0.0578375
-0.0366378
-0.0350962
0.0138965
-0.0464197
0.0394021
0.0648551
-0.0704959
-0.122088
0.0747786
0.117806
-0.12644
-0.0390036
0.0949472
-0.0689496
-0.0106133
0.079563
-0.0180621
-0.0508875
-0.0880752
0.106374
-0.0363609
0.0176477
-0.0600754
-0.0456475
-0.0314008
0.0457431
-0.0332398
-0.1131
0.0549116
0.0581889
-0.204424
0.0913237
0.134744
0.0107428
-0.0251924
-0.120295
0.0989139
-0.036718
0.0725482
0.0108065
0.139398
-0.139462
0.0754831
0.0160488
-0.07447
0.0745215
-0.0067822
0.0889783
-0.0335955
-0.0663559
0.0109731
0.100088
0.00493891
0.0588643
-0.0333976
0.0490548
0.0236728
0.0986668
-0.104062
-0.0127213
0.0111261
0.105658
-0.107354
-0.00528543
0.00857704
0.0220754
0.0977946
-0.0962684
-0.0236016
0.0148034
-0.0935244
-0.053741
0.112385
0.0877638
-0.146408
0.0270769
0.123265
-0.204083
-0.00532457
-0.00837464
0.00221586
0.0114834
0.00184863
-0.00660029
0.00685039
0.00279521
-0.00779697
-0.00465723
0.00313298
0.00991732
-0.00770146
0.000230385
0.00968694
0.230698
0.0916529
-0.155895
-0.166456
0.0847064
-0.0601218
0.206114
-0.200399
0.0804411
0.204664
0.0433634
-0.152109
0.0232811
-0.0775539
0.0631695
-0.00889668
0.0675373
-0.0785176
0.0342613
0.00404376
-0.00434651
0.000662637
0.00646835
0.00248264
0.0176456
0.00593778
-0.0854767
0.152481
0.0624066
-0.129411
0.0864501
-0.104389
0.0450826
0.138512
-0.0311135
0.369284
-0.0596014
-0.0745565
-0.235126
0.060744
0.199639
0.108901
0.0347497
-0.152499
0.178493
0.00525352
-0.00792078
0.0137924
0.0466643
0.0808921
-0.0370846
-0.0904718
0.065389
0.00807949
0.0224225
-0.00883124
-0.0135913
0.0230917
-0.000669168
-0.205961
0.0917963
-0.0743537
0.188519
-0.171558
-0.105366
0.0709624
-0.0975016
0.100687
-0.174743
0.119243
-0.00194876
-0.0586544
-0.0586402
-0.053083
0.132997
0.0393297
-0.0662882
-0.00796261
0.0211678
-0.0580535
-0.0101835
-0.0221611
-0.0945468
-0.00782127
0.0110439
0.0171706
-0.0203932
0.0200146
0.0168657
-0.0447016
0.0106637
0.00927237
7.84983e-05
0.0153459
0.00636168
0.0239367
0.00857977
-0.0616254
0.0394643
0.00696372
-0.0685892
0.0114095
0.0116822
0.117923
0.0764351
-0.00869063
0.0421815
-0.134162
-0.0154743
0.0957518
-0.0672378
-0.0130396
-0.0230595
0.100916
-0.0933304
0.0726677
0.0496643
-0.0199992
-0.102333
-0.0174279
0.00400356
0.0860921
0.0977642
-0.0655278
-0.0343645
-0.0737815
0.0211811
0.0869649
-0.0359001
0.0858773
-0.0843417
0.00215065
-0.111832
0.0152764
0.0150549
-0.000176707
0.0195862
-0.00114904
-0.00627762
-0.0154678
-0.00401152
0.0390654
-0.0238711
-0.0065988
-0.0123381
0.0299215
0.00611619
-0.0236997
0.0530456
-0.0565517
-0.008832
-0.0322294
0.0635463
0.0217288
-0.0171637
0.0148558
-0.179989
0.0890482
0.182737
0.185499
-0.0718296
-0.219035
-0.0885956
0.0941054
-0.00621345
-0.0488393
-0.00952076
-0.0361142
0.000502144
-0.00457156
-0.0178628
0.0147871
0.00764732
-0.0115449
-0.000546989
0.00752038
-0.0116024
-0.0178054
-0.015412
-0.0245124
0.00381023
-0.0407669
-0.0234844
-0.0417592
-0.0457952
0.0511812
0.0363733
0.000404582
0.0243537
-0.0665175
-0.0597902
0.0143996
-0.113484
0.0392192
-0.00729226
-0.107137
0.00467335
-0.0110206
-0.00505517
-0.0858689
0.0790712
0.0118528
-0.000326553
-0.0889277
0.084199
-0.00954282
-0.28075
-0.068846
0.0826975
0.0773242
-0.106951
0.114272
-0.0185117
-0.0278348
0.0371072
-0.0254798
-0.00235494
0.0213521
-0.00466668
0.142179
-0.0883591
-0.0850126
0.0311924
0.130092
0.0228939
0.138904
0.0306052
-0.142432
0.0718286
0.109267
-0.0421918
0.0310941
-0.0712145
0.111949
-0.00208643
-0.0233934
0.037305
-0.124888
-0.118837
0.0825094
0.151174
0.058923
-0.00281341
-0.0616981
0.00558854
0.019464
-0.00696073
-0.0755928
0.0147128
0.100282
0.0111574
-0.0672862
-0.0109738
0.00035821
0.0451294
0.00219024
-0.0443265
-0.00299311
0.00500201
-0.00183582
0.0419632
0.0260165
0.0624912
-0.0835057
-0.0943583
0.144871
-0.039103
0.19678
-0.199082
-0.0920559
-0.00195999
-0.0957605
0.112433
-0.190447
-0.0137234
-0.142851
-0.0705461
0.0229497
0.0825192
0.0677034
-0.137239
0.0528141
0.128838
-0.0991331
0.0508214
-0.0842727
0.0485091
-0.0150578
0.0548823
-0.0809113
0.0768504
0.118597
0.0376594
0.105832
-0.00635167
-0.105886
0.0064057
0.116184
-0.0151819
0.00483072
0.122123
-0.0178696
-8.29037e-05
-0.104171
0.0871806
-0.0284191
0.0633617
0.103756
-0.0243492
0.0182183
-0.0976252
0.020589
0.105787
-0.0226194
-0.0948178
-0.0311455
0.101614
0.0167614
-0.0903981
-0.0327959
0.0886153
-0.0447311
-0.0817472
0.0384657
0.0880127
-0.0471162
-0.0835749
0.0859599
0.0438407
0.080125
-0.0258122
-0.0981535
0.0791001
-0.0823756
-0.0506141
0.0499845
0.0797297
-0.0405073
0.0700183
-0.104301
0.0925306
-0.0140415
-0.135538
0.0117281
0.138106
-0.0142956
0.0358732
-0.0752283
0.0939988
-0.0956099
0.0768393
-0.0512983
0.104789
-0.128719
-0.00396365
0.00965048
-0.0295579
-0.0568843
-0.0882252
0.0582426
0.00301229
-0.0048481
0.000422407
0.00258988
-0.0079942
-0.0968651
0.0714617
-0.0839372
-0.00584899
0.081792
0.00355921
-0.0882798
0.000783373
-0.0679559
0.0259268
0.0662988
-0.0242697
0.0685801
-0.0726132
-0.0639228
-0.0100266
0.104534
-0.00109799
0.00469044
0.0114624
0.00841224
-0.00951023
0.0131027
0.000202684
0.00321831
-0.00807822
0.00135018
-0.0011475
0.00456849
0.00503076
0.00126829
0.000166401
-0.00341166
0.00844242
-0.00214337
0.0103619
-0.00173164
-0.0257939
-0.0045513
0.0149132
-0.00628294
0.0256974
0.072548
-0.0942418
0.0358687
-0.100685
0.0905141
0.100923
0.00749383
-0.0362484
-0.0616009
0.0361643
0.0616851
-0.0123615
0.0634206
-0.0873075
0.0112876
-0.08525
0.0878542
-0.0860877
0.0472407
-0.0490072
0.0898556
0.0477577
-0.0497591
0.048056
-0.0834184
-0.0507253
0.0927492
0.0456779
-0.0485714
0.0967289
0.0460073
-0.049987
0.0443211
0.101225
-0.0488173
0.0994128
-0.0967011
0.0416094
0.037503
0.108599
-0.0448768
0.0979476
0.0389682
-0.0912961
0.0406024
-0.0884521
0.0428338
-0.0857119
0.0450176
-0.0852125
0.0467412
-0.080802
0.0436455
0.0371085
0.115392
-0.043902
0.094838
0.0402181
0.0489333
-0.0795971
-0.0527546
-0.0779281
0.0460594
0.0487945
-0.0818952
-0.0464963
0.041348
0.117662
-0.0436178
0.0968962
0.0392897
-0.0775469
0.0484132
0.119539
0.0410581
-0.0429353
0.0406443
0.121862
-0.0429669
0.0987401
0.0392142
0.10086
0.0385241
0.048329
-0.0775603
-0.0526639
-0.0746184
0.0454005
0.0405548
0.123861
-0.0425542
0.102813
0.0386024
0.047812
-0.0736097
-0.0517625
-0.0705099
0.0437035
0.0402291
0.126376
-0.0427441
0.10511
0.0379318
0.0455207
-0.0698176
-0.0493129
-0.0666265
0.0416373
0.0401319
0.128571
-0.0423264
0.107296
0.0379462
0.0418918
-0.0658302
-0.0458792
-0.0625779
0.0378432
0.0396178
0.131309
-0.0423555
0.109891
0.0370225
0.0368866
-0.0622611
-0.0404557
-0.0590421
0.0333508
0.0392442
0.133662
-0.0415979
0.112465
0.0366707
0.0306169
-0.0591023
-0.0337757
-0.0555837
0.0271585
0.0382585
0.136471
-0.0410673
0.115531
0.0351919
0.0231862
-0.0544786
-0.0278099
-0.0518871
0.0194896
0.0373767
0.138692
-0.0395978
0.117849
0.0350584
0.0141312
-0.0529074
-0.0157023
-0.0495247
0.0117688
0.0358277
0.140888
-0.0380237
0.119896
0.0337809
0.00457939
-0.0494871
-0.00799971
-0.0469081
0.00196277
0.03918
0.137013
-0.0353045
0.126823
0.0322537
-0.00629229
-0.048788
0.00559322
-0.046381
-0.0068194
0.0352608
0.130916
-0.0291644
0.132005
0.0300781
-0.0168158
0.0167475
-0.0487197
-0.0470762
-0.0161207
0.0257157
-0.027591
0.132792
0.13435
0.0233708
-0.0525802
0.0539399
0.00423349
-0.0527397
0.016907
-0.0270633
0.0285316
-0.0501879
-0.0264729
-0.0476665
-0.0537168
0.0562337
-0.0182192
-0.00777663
-0.0559604
0.0585746
-0.0363899
-0.0275366
-0.0615307
0.0647224
-0.0490708
-0.0434118
-0.0679645
0.0712185
-0.0550166
-0.052555
-0.0742255
0.0836019
-0.0558728
-0.0556709
-0.0858342
0.0874665
-0.0523577
-0.0549868
-0.092557
0.094102
-0.0513041
-0.0540976
-0.0923479
0.0924716
-0.0501107
-0.0468173
-0.0920883
0.0936961
-0.0464846
-0.048434
-0.0952471
0.0968103
-0.045181
-0.0454529
-0.0984175
0.100079
-0.0446288
-0.0445425
-0.1018
0.103614
-0.0445584
-0.0442743
-0.105519
0.107568
-0.0444037
-0.044232
-0.109731
0.112097
-0.0434334
-0.0437608
-0.11457
0.117269
-0.0407229
-0.0420715
-0.119992
0.125054
-0.0342268
-0.0380267
0.127522
-0.030059
0.0189953
-0.0200645
0.133861
0.0166398
0.136706
0.127783
-0.122312
0.0267822
-0.132207
0.134947
0.0206313
0.0256541
0.119284
-0.115335
0.0311096
0.0307529
0.112608
-0.10996
0.0340224
0.0324646
0.107504
-0.105119
0.0355618
0.0345667
0.102877
-0.1007
0.0364248
0.0356898
0.0986165
-0.0965726
0.0371703
0.0364409
0.0945961
-0.0925832
0.0382052
0.0373132
0.0921509
-0.0901166
0.0395751
0.0385359
0.0894842
-0.0862833
0.0396329
0.0399699
0.083148
-0.0797357
0.0433289
0.0418823
0.077782
-0.075421
0.0436984
0.0416918
0.0693984
-0.0658757
0.0418779
0.0423906
0.0622897
-0.0586765
0.0380242
0.0401174
0.0552369
-0.0520315
0.0301454
0.0344036
0.0492289
-0.0475325
0.0177931
0.0243558
0.045839
-0.0456005
0.00172432
0.0100753
0.0453916
-0.045569
-0.0159433
-0.00702826
-0.0472443
-0.0247977
-0.0533839
0.0291759
0.131439
-0.0239811
0.0137457
0.137841
-0.035279
0.0377481
-0.0501357
-0.0328994
-0.0496239
-0.0395298
0.0404065
-0.0542606
-0.0519696
-0.0573693
0.0570449
0.00455795
0.0576434
-0.0581874
0.0297199
0.0171811
-0.0572684
0.0586666
-0.0196175
-0.00800014
-0.060494
0.0628494
-0.0387453
-0.029364
-0.0654549
0.0682678
-0.0518838
-0.0460173
-0.0711704
0.0740884
-0.0579345
-0.0554576
-0.0768839
0.0795553
-0.0585441
-0.0584664
-0.0819016
0.0858072
-0.0562633
-0.0573332
-0.0861328
0.0879189
-0.0530903
-0.0544232
-0.0923715
0.0924442
-0.0501834
-0.0512699
-0.0926549
0.0940753
-0.047905
-0.0486447
-0.0954476
0.0968209
-0.0465543
-0.0468252
-0.0982065
0.0996503
-0.0460726
-0.0459281
-0.101146
0.102734
-0.0461462
-0.0457697
-0.104408
0.10622
-0.0462154
-0.0459065
-0.108155
0.110278
-0.0455563
-0.0456965
-0.112532
0.115
-0.0431912
-0.0443252
-0.117505
0.120638
-0.0373596
-0.0405313
-0.0153612
0.0123063
0.136916
-0.0182503
0.134328
-0.12293
0.127011
-0.0280617
-0.0323516
0.133273
-0.130389
0.0177478
0.134802
0.0122165
-0.00994668
0.00936185
0.138426
0.139065
0.127255
-0.122973
0.0225002
0.0225194
0.118632
-0.11573
0.0282084
0.0264117
0.112978
-0.110284
0.0313284
0.0297117
0.107763
-0.105309
0.0331081
0.0320461
0.102995
-0.10074
0.0341691
0.0333759
0.0985881
-0.0964724
0.0350547
0.0342893
0.0944029
-0.092316
0.0361183
0.0352437
0.0901949
-0.0879854
0.0373656
0.0364147
0.0857286
-0.0847589
0.0386632
0.0377131
0.0817892
-0.0780961
0.0396358
0.0389126
0.0759685
-0.0721599
0.0398898
0.0395643
0.0688961
-0.0655302
0.038512
0.0391267
0.0620745
-0.0586181
0.0345677
0.0366617
0.0553165
-0.0522552
0.0270841
0.0311021
0.0496056
-0.0474611
0.0156487
0.0217062
0.0459297
-0.0450946
0.000889229
0.00854387
0.0449395
-0.0453636
-0.0155192
-0.0071833
0.0467266
-0.0486663
-0.0309597
-0.0234347
-0.0588397
0.0410587
-0.0414075
0.043412
-0.0516284
-0.0513169
-0.0387569
0.0449523
-0.051676
-0.0209372
0.129698
0.137177
0.00698653
0.051068
-0.0484192
-0.0569095
0.0521191
-0.0598907
-0.0485168
0.0510085
-0.0541201
-0.0459872
-0.0538465
-0.0554365
0.123795
-0.121093
-0.0307642
0.125532
-0.0226741
0.00338716
-0.00395712
0.138996
0.00069034
0.139874
-0.0646377
0.0648658
0.051891
0.0612371
-0.0595458
-0.0615819
0.064581
-0.0748718
0.0674662
-0.0571753
0.0611804
-0.0647156
0.0644593
0.0299761
0.0412089
-0.0640087
0.0637425
0.00482409
0.0176317
-0.0642508
0.0646856
-0.0200523
-0.00850838
-0.0663053
0.068242
-0.040682
-0.0309836
-0.0704293
0.072804
-0.0542585
-0.0482047
-0.0752638
0.0777293
-0.0604
-0.0579174
-0.0801036
0.0823467
-0.0607872
-0.0608407
-0.0843715
0.0862241
-0.0581158
-0.059358
-0.0878711
0.0893944
-0.0546136
-0.0560702
-0.0907761
0.0920582
-0.0514655
-0.0526516
-0.0932978
0.0944978
-0.0491051
-0.0498842
-0.0956589
0.0968182
-0.0477136
-0.0479863
-0.0979849
0.0992003
-0.047288
-0.0470949
-0.100465
0.101813
-0.0474947
-0.0470343
-0.103244
0.104795
-0.0477665
-0.0473373
-0.106469
0.108311
-0.0473973
-0.0473708
-0.110315
0.112518
-0.0453941
-0.0463296
-0.115072
0.117346
-0.0396333
-0.0430858
-0.0360984
-0.006799
0.0046179
0.139097
0.00910464
-0.0131394
0.133733
0.136633
0.139726
0.132092
-0.129021
0.0146765
-0.134446
0.135897
0.00553573
0.00986264
0.124344
-0.12217
0.0203261
0.0178428
0.118627
-0.115804
0.025385
0.0228686
0.113054
-0.110375
0.0286499
0.0269622
0.10782
-0.105338
0.0306267
0.0294903
0.102982
-0.100688
0.031875
0.0310196
0.0984928
-0.0963314
0.0328933
0.0320943
0.0942156
-0.0920774
0.0339801
0.0331279
0.089932
-0.087717
0.0351506
0.0342694
0.0854463
-0.0830401
0.036257
0.0354424
0.0805242
-0.0778557
0.0369673
0.0363966
0.0750701
-0.0720489
0.0368685
0.0367787
0.0689402
-0.0656959
0.0352677
0.0360181
0.0624215
-0.059161
0.0313072
0.0333873
0.0560475
-0.0531654
0.0242021
0.0279886
0.0506632
-0.0486323
0.0136179
0.0192039
0.0471866
-0.0463948
9.75189e-05
0.00709807
0.0462731
-0.0468769
-0.0149154
-0.00730501
0.0479807
-0.0492585
-0.0296818
-0.022331
0.0516304
-0.0552037
-0.0424139
-0.036385
-0.0511375
0.0548102
-0.0575192
-0.0580514
-0.0482898
-0.0559683
-0.0604871
0.0537968
-0.0544643
-0.0152187
0.127611
0.137925
-0.00133756
-0.0646512
-0.0718025
0.0573709
-0.0566808
-0.062578
-0.0687197
0.121271
0.0560124
-0.0531602
-0.0609035
0.0589149
-0.0604218
-0.0607753
0.0833506
0.0819582
-0.0687188
0.0742423
-0.057608
-0.0726415
0.0724632
0.0676445
0.0748048
-0.0640958
-0.0721242
0.0716453
0.0523698
0.0615194
-0.0708728
0.0701582
0.0306907
0.0419815
-0.0700812
0.0704787
0.0044266
0.0177087
-0.0706666
0.071769
-0.0211547
-0.00869627
-0.0730642
0.0745368
-0.0421546
-0.0322788
-0.0761937
0.0780141
-0.0560788
-0.0498616
-0.0799128
0.0818352
-0.0623225
-0.0598161
-0.0836902
0.0854396
-0.0625365
-0.0626957
-0.0870354
0.0884848
-0.0595653
-0.0609538
-0.0897764
0.0909559
-0.0557932
-0.0573617
-0.0920364
0.0930484
-0.0524775
-0.0537322
-0.0940093
0.0949518
-0.0500475
-0.0508452
-0.0958733
0.0967948
-0.048635
-0.0489078
-0.0977214
0.0986842
-0.0482508
-0.0480215
-0.0996872
0.100761
-0.0485683
-0.0480372
-0.101905
0.10315
-0.049012
-0.0484813
-0.104512
0.106029
-0.0489145
-0.0487324
-0.107714
0.109598
-0.0472787
-0.0480144
-0.111589
0.114572
-0.0426165
-0.0450761
-0.116529
0.118636
-0.0328706
-0.0380556
-0.121693
0.123883
-0.0174083
-0.0257316
-0.00236373
0.000588889
0.135507
0.00599824
-0.00977501
0.127659
0.131246
0.00214341
-0.00235384
0.139307
0.139366
0.00368507
-0.00561958
0.14093
0.141057
0.00683467
-0.00867503
0.139765
0.141089
0.135561
-0.133099
0.00307384
-0.139078
0.136627
-0.00622391
-0.00485404
0.130411
-0.127561
0.011826
0.0071747
0.123795
-0.121026
0.0175572
0.0140772
0.118278
-0.115542
0.0226492
0.0201202
0.112853
-0.110221
0.0260173
0.0242733
0.107681
-0.105213
0.0281584
0.0269509
0.102853
-0.100556
0.029578
0.0286597
0.098351
-0.0961774
0.0307196
0.029889
0.0940504
-0.0919072
0.031837
0.0310009
0.0897636
-0.0875595
0.0329465
0.0321258
0.0853019
-0.0829325
0.0338876
0.0331848
0.0804757
-0.0778764
0.0343681
0.0339398
0.0751645
-0.0722896
0.0339936
0.0340668
0.0693373
-0.0662653
0.0321957
0.0330657
0.063194
-0.0601421
0.0282553
0.030316
0.0572417
-0.0545581
0.0215185
0.0250882
0.0522315
-0.0503423
0.0117287
0.0168773
0.049003
-0.0482679
-0.000637671
0.00575877
0.0481615
-0.0486919
-0.014385
-0.00741133
0.0497916
-0.0513698
-0.0281035
-0.0212313
0.0533265
-0.0552477
-0.0404927
-0.0344282
0.0588158
-0.0619126
-0.0500634
-0.0447217
-0.056286
0.0599074
-0.064525
-0.0647171
-0.0534815
-0.0624988
-0.0626395
0.0602719
-0.0573653
-0.0676649
-0.0667156
0.0623089
-0.0600747
0.119572
-0.117076
-0.0199042
0.121312
-0.0115159
-0.013478
0.0132238
0.140019
-0.015053
0.138202
-0.0742666
-0.0670663
0.0626559
-0.0631702
-0.118259
0.02527
-0.079381
0.081368
0.0799713
-0.059124
0.0618289
-0.06723
-0.0551664
-0.0686747
-0.0806581
0.0755194
-0.0598348
-0.0799033
0.0789876
0.0685601
0.0762696
-0.0782977
0.0772232
0.0534443
0.0622093
-0.0767111
0.0769249
0.030477
0.0424935
-0.0773747
0.077982
0.00381927
0.0172588
-0.0787175
0.0795526
-0.0219898
-0.00943175
-0.0804587
0.0814644
-0.0431602
-0.0331849
-0.0825758
0.0837948
-0.0572979
-0.0509731
-0.0850784
0.0863888
-0.0636329
-0.0610997
-0.0876607
0.0888647
-0.0637405
-0.0639677
-0.0899631
0.0909571
-0.0605593
-0.0620522
-0.0918446
0.0926525
-0.0566011
-0.0582492
-0.0933956
0.0940995
-0.0531814
-0.0544753
-0.0947722
0.0954378
-0.050713
-0.0515179
-0.0960957
0.0967588
-0.0492981
-0.0495657
-0.097428
0.0981247
-0.0489474
-0.0486907
-0.0988537
0.0996359
-0.0493505
-0.0487662
-0.100476
0.101401
-0.0499365
-0.0493214
-0.102422
0.103579
-0.050071
-0.0497539
-0.104893
0.106401
-0.048786
-0.0493292
-0.108086
0.109928
-0.0444586
-0.0467615
-0.112199
0.114186
-0.0348576
-0.0403262
-0.0286215
0.00681211
-0.00978365
0.138479
-0.00375311
0.0016279
0.129785
0.134305
0.00912297
-0.0106451
0.140829
0.138705
0.0107114
-0.0114321
0.141651
0.141124
0.142881
0.133696
-0.131488
0.000865912
-0.133446
0.135443
-0.00822054
-0.00460422
0.128988
-0.125305
0.00814282
0.00467447
0.12286
-0.12027
0.0149669
0.0116321
0.117652
-0.115008
0.0200049
0.017503
0.112411
-0.109849
0.0234549
0.0216767
0.107369
-0.104948
0.0257378
0.0244709
0.102625
-0.100359
0.0273125
0.0263362
0.0981768
-0.0960246
0.0285675
0.0277064
0.093918
-0.0918001
0.0297191
0.0288943
0.0896841
-0.0875134
0.0307758
0.0300097
0.0852991
-0.0829897
0.0315783
0.0309705
0.0806072
-0.0781015
0.0318624
0.0315572
0.0755028
-0.072779
0.0312699
0.0314681
0.0699925
-0.0671174
0.0293206
0.0302792
0.0642585
-0.0614281
0.0254249
0.0274572
0.058753
-0.0562829
0.0190484
0.0224131
0.0541501
-0.0524205
0.00999917
0.0147445
0.051197
-0.0505149
-0.00131979
0.00453526
0.050416
-0.0508615
-0.0139395
-0.00751017
0.0518092
-0.0532074
-0.0267054
-0.0202837
0.0550382
-0.057288
-0.038243
-0.0325974
0.059141
-0.0622415
-0.0469629
-0.0428687
0.0660397
-0.0693158
-0.0518902
-0.0496834
-0.0572056
0.0599992
-0.0714682
-0.0731887
-0.0533327
-0.0674474
-0.062857
0.0652516
-0.060308
-0.000208122
0.123148
0.135391
-0.0150013
-0.073259
-0.0677232
-0.0882063
-0.0939751
-0.0795422
-0.0757304
0.0658506
-0.0632694
0.0651516
-0.0664929
-0.115402
0.0600137
-0.0808729
0.0655589
-0.100088
-0.0837241
-0.0911238
0.0632245
-0.0704553
-0.0586512
0.0611206
-0.0739376
-0.0550678
-0.0767721
-0.0620306
-0.0816344
0.0831408
0.0784648
0.0839799
-0.0948996
0.0709334
0.0778649
-0.0836488
0.0831048
0.0691041
0.0757616
-0.0835695
0.0840987
0.0529151
0.0617446
-0.0846758
0.0853097
0.029843
0.0419165
-0.0859604
0.0865914
0.00318821
0.0166082
-0.0871901
0.0877546
-0.0225543
-0.0100304
-0.0882883
0.0888081
-0.04368
-0.0337187
-0.0893369
0.0899079
-0.0578689
-0.0515019
-0.0905248
0.0911759
-0.064284
-0.0617165
-0.0918236
0.0924435
-0.0643603
-0.0646154
-0.0930095
0.0935213
-0.0610711
-0.0626183
-0.0939783
0.0943969
-0.0570197
-0.0587062
-0.0947873
0.095167
-0.0535611
-0.0548656
-0.0955417
0.0959236
-0.0510949
-0.0518926
-0.0963104
0.0967075
-0.0496952
-0.0499525
-0.0971118
0.0975343
-0.0493699
-0.0490951
-0.0979784
0.0984588
-0.049831
-0.0492103
-0.0989789
0.0995606
-0.0505181
-0.0498415
-0.100214
0.100977
-0.0508337
-0.0504073
-0.10187
0.102931
-0.0498472
-0.0502225
-0.104179
0.105635
-0.0459144
-0.0480094
-0.107245
0.109656
-0.0372679
-0.0419366
-0.111433
0.113762
-0.0222337
-0.0303985
-0.114552
0.117423
-0.00307959
-0.0123053
0.0135756
-0.0149073
0.131116
-0.0100503
0.00676148
0.120712
0.126674
0.0165346
-0.0160879
0.138032
0.135932
0.0173307
-0.0183885
0.141887
0.139948
0.0192828
-0.0199782
0.142346
0.142018
0.0196336
-0.0203056
0.140691
0.142536
0.0207065
-0.0203732
0.135058
0.138603
0.133465
-0.131322
-0.0103633
-0.133
0.132453
-0.019826
-0.0145362
0.130478
-0.128569
-0.00104239
-0.00544869
0.126013
-0.123891
0.00602068
0.00211834
0.121634
-0.119221
0.0125542
0.00937506
0.116766
-0.114253
0.0174921
0.0150476
0.111775
-0.10931
0.0209904
0.0191981
0.106918
-0.104573
0.0233931
0.0220789
0.102316
-0.100109
0.0251052
0.0240788
0.0979768
-0.0958719
0.0264626
0.0255745
0.0938104
-0.0917389
0.0276476
0.0268328
0.0896712
-0.087554
0.0286587
0.0279419
0.0854025
-0.0831688
0.0293446
0.028819
0.080875
-0.0784778
0.0294653
0.0292633
0.0760095
-0.0734424
0.0287028
0.0289998
0.0708301
-0.0681594
0.0266499
0.0276669
0.0655168
-0.0629165
0.0228245
0.0248146
0.0604707
-0.0582211
0.0167988
0.0199674
0.0562859
-0.0547167
0.00842994
0.0128093
0.0536017
-0.0529599
-0.00196156
0.00342023
0.0528284
-0.0531713
-0.0135966
-0.00764167
0.0539741
-0.0552131
-0.0254663
-0.0194809
0.0568771
-0.0589494
-0.0361707
-0.0309334
0.0614451
-0.0643786
-0.0440294
-0.040373
0.0675671
-0.0706685
-0.0487888
-0.0464948
0.0738421
-0.0769708
-0.0519391
-0.0501592
-0.0572277
0.0595015
-0.0790459
-0.0800991
-0.0540993
-0.0715389
-0.0645771
-0.099073
0.0697324
-0.0765842
-0.0706811
0.112297
-0.110313
-0.00506352
0.114651
0.00440704
-0.0256775
0.0254665
0.135269
-0.0249616
0.131737
0.0689162
-0.0633737
0.0683061
-0.0664239
-0.0789299
-0.0805246
0.0666315
-0.0698998
0.0646955
-0.0740302
0.0630238
-0.07746
-0.0588541
0.0617677
-0.0819595
-0.0561206
-0.0828326
-0.0646534
-0.0911574
0.0856931
0.0763977
0.0691266
-0.0736527
-0.094547
0.0955983
-0.0995325
0.0730608
0.0741733
-0.0853507
0.0875885
0.076227
0.0782073
-0.0891888
0.0899213
0.0683715
0.0741613
-0.0909336
0.0919927
0.051856
0.0607323
-0.0929833
0.0938763
0.02895
0.0409259
-0.0946539
0.09527
0.00257213
0.0158305
-0.095755
0.096068
-0.0228672
-0.0105154
-0.0962152
0.0962293
-0.0436941
-0.0338658
-0.096171
0.0961019
-0.0577998
-0.0514436
-0.0960623
0.0960585
-0.0642802
-0.0616768
-0.0960783
0.0961041
-0.0643862
-0.0646352
-0.0961257
0.0961409
-0.0610863
-0.0626398
-0.096154
0.0961716
-0.0570373
-0.0587192
-0.0962014
0.0962505
-0.0536102
-0.0548955
-0.0963218
0.0964163
-0.0511894
-0.0519639
-0.0965287
0.0966547
-0.0498213
-0.0500649
-0.0967882
0.0969313
-0.049513
-0.0492286
-0.0970851
0.0972581
-0.050004
-0.0493641
-0.0974531
0.0976833
-0.0507484
-0.0500365
-0.0979592
0.0983094
-0.0511839
-0.0506832
-0.0987591
0.0993563
-0.0504444
-0.0506722
-0.100118
0.101087
-0.0468829
-0.0487712
-0.102247
0.103621
-0.0386415
-0.0430974
-0.105422
0.107646
-0.0244582
-0.0321994
-0.0149719
0.0220911
-0.0242399
0.133265
-0.020446
0.0179217
0.123236
0.128319
0.0236162
-0.0245739
0.13899
0.135309
0.025307
-0.02587
0.14245
0.140681
0.0262558
-0.0264715
0.142562
0.142404
0.0250085
-0.0255497
0.141233
0.141073
0.138519
0.1306
-0.130074
-0.0108891
-0.130626
0.129918
-0.019118
-0.0145627
0.128172
-0.125817
-0.00339804
-0.00735031
0.124157
-0.122232
0.0040965
0.000458207
0.120163
-0.117942
0.0103335
0.00730566
0.115662
-0.113311
0.0151403
0.0127678
0.110975
-0.108637
0.0186521
0.0168623
0.106358
-0.104114
0.0211488
0.0198007
0.101946
-0.0998171
0.0229764
0.0219105
0.0977559
-0.0957164
0.0244231
0.0235133
0.0937167
-0.0917072
0.0256382
0.0248331
0.0897026
-0.087654
0.0266101
0.0259372
0.0855789
-0.0834331
0.0271989
0.0267438
0.0812401
-0.0789622
0.0271873
0.0270702
0.0766328
-0.0742271
0.0262971
0.0266705
0.0717949
-0.0693284
0.0241835
0.0252347
0.0669016
-0.0645294
0.0204524
0.0223878
0.0623075
-0.0602714
0.0147627
0.0177454
0.0585203
-0.0570936
0.00700324
0.0110582
0.0560618
-0.0554475
-0.00257588
0.0023884
0.0552628
-0.055512
-0.0133473
-0.00782636
0.0561811
-0.0572906
-0.0243568
-0.0188118
0.0588473
-0.0608806
-0.0341373
-0.0293768
0.0633704
-0.0662396
-0.0411603
-0.0378832
0.0692945
-0.0724059
-0.0456775
-0.0434399
0.0751293
-0.077563
-0.0495053
-0.0474357
0.0808174
-0.084384
-0.052554
-0.0508449
0.0815397
-0.0711271
-0.101536
-0.0922008
-0.0577235
0.0612423
-0.0863514
-0.0872875
-0.05482
-0.0738994
-0.067262
0.0171299
0.115443
0.130667
-0.0257104
-0.0742057
-0.0968871
0.0715603
0.0711847
-0.0662523
-0.0755257
-0.0932269
-0.0773481
-0.0722629
0.0696936
-0.069486
-0.078353
-0.0732987
0.0676039
-0.0728082
0.0659012
-0.0769075
0.0648535
-0.0805458
0.063631
-0.0843483
-0.0598806
0.0628899
-0.0893607
-0.0564912
-0.0906769
-0.067368
-0.0971735
0.0935792
0.0766551
0.0685733
-0.0939895
-0.0714709
0.100173
-0.0961877
0.0645875
0.0745602
-0.0923196
0.0915946
0.0771227
0.0754328
-0.0925009
0.0930376
0.0756903
0.077301
-0.0954104
0.0971159
0.066666
0.0717886
-0.0985962
0.0999951
0.0504572
0.0592519
-0.101286
0.102367
0.0278686
0.0396354
-0.103249
0.103876
0.00194551
0.0149482
-0.104205
0.104232
-0.0228939
-0.0108444
-0.103975
0.103491
-0.0432102
-0.0336094
-0.10287
0.102191
-0.0571204
-0.0508228
-0.101519
0.100877
-0.0636376
-0.0610052
-0.100277
0.0997145
-0.0638233
-0.0640359
-0.099195
0.0987168
-0.060608
-0.0621203
-0.0982894
0.0979105
-0.0566585
-0.0582919
-0.097585
0.097308
-0.0533332
-0.05457
-0.0970792
0.0968891
-0.0509994
-0.0517352
-0.09673
0.096588
-0.0496793
-0.0499057
-0.0964546
0.0963223
-0.0493807
-0.0490951
-0.0961912
0.096061
-0.0498738
-0.0492329
-0.0959355
0.095816
-0.0506288
-0.049911
-0.0957146
0.0956489
-0.0511182
-0.0505818
-0.0956521
0.0957622
-0.0505546
-0.0506754
-0.0960241
0.0964773
-0.0473361
-0.049033
-0.0971495
0.0980582
-0.0395502
-0.0437696
-0.099186
0.101004
-0.0262759
-0.0333271
-0.103339
0.105429
-0.0071532
-0.0173073
-0.106298
0.108981
0.014447
0.00353819
0.0302843
-0.0306545
0.123606
-0.0275139
0.0244545
0.11204
0.118213
0.0318467
-0.0313012
0.13272
0.129511
0.0320587
-0.0325489
0.13948
0.136066
0.032808
-0.0328765
0.142519
0.14094
0.0327673
-0.0325021
0.142297
0.142294
0.0321101
-0.0304093
0.139532
0.140681
0.0304021
-0.0304415
0.135309
0.138512
0.0324078
-0.030162
0.128421
0.133703
0.12847
-0.127507
-0.0200811
-0.127286
0.127348
-0.0302242
-0.024526
0.126964
-0.125562
-0.012291
-0.0151058
0.12468
-0.12352
-0.00455798
-0.00823285
0.122089
-0.120382
0.00238916
-0.00097245
0.118511
-0.116486
0.00830896
0.00543487
0.114392
-0.11222
0.0129678
0.0106734
0.110045
-0.107853
0.0164608
0.0146873
0.105709
-0.103584
0.0190241
0.0176564
0.101523
-0.0994913
0.0209443
0.0198497
0.0975166
-0.0955571
0.0224636
0.0215386
0.0936323
-0.0916966
0.0237025
0.0229082
0.0897665
-0.0877976
0.0246413
0.0240071
0.0858091
-0.0837608
0.0251506
0.0247553
0.0816777
-0.0795263
0.0250359
0.0249871
0.0773405
-0.075098
0.0240546
0.0244847
0.0728458
-0.0705778
0.0219154
0.0229825
0.0683587
-0.0662016
0.0182953
0.0201687
0.0641869
-0.0623432
0.0129191
0.0157306
0.0607517
-0.0594419
0.0056935
0.00946671
0.0584719
-0.0578581
-0.00318973
0.00141839
0.0576244
-0.0577825
-0.0131893
-0.00806005
0.0583516
-0.0593692
-0.0233392
-0.0182427
0.0608612
-0.0628635
-0.032135
-0.0278847
0.0653206
-0.0681211
-0.0383597
-0.0354261
0.0710705
-0.0740469
-0.0427011
-0.0404905
0.0769954
-0.0799339
-0.0465668
-0.0444872
0.0825239
-0.0848812
-0.0501968
-0.0482549
0.0879536
-0.090789
-0.0536558
-0.0517476
0.0891617
-0.0794692
-0.111229
-0.0785649
-0.058512
0.062061
-0.094226
-0.0955973
-0.0537036
-0.0748508
-0.0697592
0.0724893
-0.069048
-0.0665411
-0.0916033
0.0619568
-0.0886103
-0.0719204
-0.080796
-0.0839018
-0.0773511
-0.0732648
0.0704853
-0.0723675
0.103712
-0.100287
0.0110217
0.105352
0.0228146
-0.0344131
0.0335326
0.129302
-0.0337338
0.126669
-0.0780628
-0.0747051
0.0686824
-0.0755895
0.0674816
-0.0795356
0.0668314
-0.0837461
0.0661427
-0.087601
0.0646976
-0.0919973
0.0645048
-0.0877123
-0.0683958
-0.0877005
0.0930735
0.0591318
-0.0629195
-0.0857765
0.0609955
-0.0599624
-0.0970016
0.062738
-0.0567952
-0.0987645
-0.0849697
-0.065662
-0.0697296
-0.0877535
0.0853374
0.0670036
0.0672768
-0.0894753
0.0926383
0.0734921
0.0704224
-0.093349
0.0948231
0.0756486
0.0747221
-0.0972562
0.0996446
0.073302
0.0748679
-0.101835
0.103933
0.0645682
0.0695982
-0.105911
0.107679
0.0486892
0.0572733
-0.109241
0.110541
0.0265685
0.0380736
-0.111448
0.112009
0.0013845
0.0140419
-0.112158
0.111897
-0.022633
-0.0109937
-0.111258
0.11031
-0.0422622
-0.0329702
-0.10917
0.107929
-0.05588
-0.0496827
-0.106676
0.105442
-0.0624038
-0.059752
-0.104266
0.103151
-0.0627082
-0.0628596
-0.102122
0.101177
-0.0596632
-0.0610911
-0.100332
0.0995754
-0.0559022
-0.0574467
-0.0989107
0.0983213
-0.0527437
-0.0539053
-0.097804
0.0973401
-0.0505354
-0.0512178
-0.0969195
0.0965196
-0.0492794
-0.0494851
-0.0961294
0.0957319
-0.0489832
-0.0487049
-0.0953262
0.094903
-0.0494506
-0.0488272
-0.0944666
0.0940098
-0.0501721
-0.0494746
-0.0935431
0.0930745
-0.0506496
-0.050115
-0.0926375
0.0922705
-0.0501875
-0.0502384
-0.0920273
0.0919644
-0.0472731
-0.0487899
-0.0921193
0.0925389
-0.0399699
-0.0439245
-0.093223
0.094209
-0.0272618
-0.0340112
-0.0957722
0.0978106
-0.00919164
-0.0188705
0.00106204
0.0380245
-0.0398916
0.125473
-0.036265
0.0334749
0.11483
0.119973
0.0388329
-0.0394392
0.133326
0.128452
0.0397571
-0.0398078
0.139531
0.136384
0.039624
-0.0392454
0.14214
0.140756
0.0387023