/*--------------------------------*- C++ -*----------------------------------*\
  =========                 |
  \\      /  F ield         | OpenFOAM: The Open Source CFD Toolbox
   \\    /   O peration     | Website:  https://openfoam.org
    \\  /    A nd           | Version:  10
     \\/     M anipulation  |
\*---------------------------------------------------------------------------*/
FoamFile
{
    format      ascii;
    class       volScalarField;
    location    "58.5";
    object      p;
}
// * * * * * * * * * * * * * * * * * * * * * * * * * * * * * * * * * * * * * //

dimensions      [0 2 -2 0 0 0 0];

internalField   nonuniform List<scalar> 
28942
(
-0.0037814
-0.00315454
0.00201737
0.00948676
0.0097868
9.91952e-05
0.000308596
3.00461e-05
0.00270581
0.00279378
-0.00232616
-0.00259528
-0.00297874
-0.00289614
0.000205221
0.000525368
0.00987363
0.0101435
0.00557103
0.00713191
0.00814591
0.00813761
-0.00523633
-0.00506108
-0.00358977
-0.00381315
0.0138714
0.0138205
0.00352377
0.00346667
2.25419e-05
5.86356e-05
0.00081236
0.000334837
0.00713805
0.00834383
0.0108809
0.0128395
-1.90261e-06
0.0150346
0.00908967
0.0115876
0.0017574
0.001674
0.00173239
0.00030942
0.000169376
0.000247274
0.000285381
0.000398398
0.000755703
0.00278225
0.00285307
0.00283814
0.0029935
-0.00235874
-0.00105584
-0.00338615
-0.00323169
-0.00350294
-0.00357605
-0.00357691
-0.00347487
-0.000121116
-0.00182275
-0.000366849
0.000965051
0.00941606
0.00891956
-0.00337226
-0.00358236
-0.0033173
0.00898099
0.00883284
0.00912477
-0.00148377
-0.00109599
-0.000756527
0.00235158
0.00275099
0.00184173
0.000746305
-0.00632313
-0.00755188
0.00107586
0.00380188
0.00484366
0.00563152
0.0040156
0.00413915
0.00610632
0.005485
-0.00140479
-0.00169623
-0.00197463
-0.00181295
-0.00163855
0.00532826
0.00661942
-0.00786314
0.0112841
0.010485
0.00577896
0.00937601
0.000895062
0.00080285
0.000712597
0.00546678
0.00565947
0.00565354
-0.00322952
-0.00315011
-0.00313762
-0.00262057
-0.00274319
0.0158262
0.0138207
0.0132626
0.0148939
0.0016363
0.00471695
0.00341482
0.00506328
0.00474016
0.0154982
0.0157937
0.0144534
0.0059051
0.00698432
0.000206413
0.00031104
0.000120706
0.0104913
0.0109946
0.00766697
0.00731912
0.0127761
0.00668989
0.0079809
0.00904569
-0.00191346
-0.00242315
0.00734978
0.00167639
0.00176369
-0.00118188
-0.00144528
-0.000985883
-0.00252247
0.0065877
0.00571485
0.00370722
0.000282347
0.000224469
9.2138e-05
0.00022686
0.0075244
0.0067887
-0.00186887
-0.00198604
-0.00188133
-0.00414748
-0.00369174
7.26225e-05
-0.00286244
-0.000508919
0.00838806
0.00849699
0.00959102
0.00912639
0.00770418
0.00307826
0.00299579
0.00324656
0.0031225
0.0050368
0.00481461
0.00514957
0.00537008
0.0053079
0.00537857
0.00558964
0.00614352
0.00583762
0.00543546
0.00576556
0.00647127
0.00722491
0.00751696
-0.000581776
-0.000562677
-0.00247855
0.000231233
7.1171e-05
-0.00199777
-0.00208649
0.000311838
0.000374738
0.000336843
0.000267416
0.00189336
0.00185005
0.00182616
-0.0029271
-0.00311455
-0.00277886
-0.00434793
-0.00483043
-0.00414145
-0.00472915
-0.0064954
-0.00519314
0.0160201
0.0167303
0.0164979
0.000930693
0.00107569
0.000963591
0.0103443
0.00991645
0.00999678
0.00152103
0.00150206
0.00153986
0.0014827
0.00146371
0.0014443
0.00144523
0.00142489
0.00142574
0.00146434
0.00148322
0.00150218
0.00152127
0.00154038
0.00140583
0.00140588
0.00155806
0.00155842
0.00157604
0.00138647
0.00138625
0.00157645
0.00136667
0.00134691
0.00136685
0.00134734
0.0015951
0.00159539
0.00132728
0.00132772
0.00161261
0.00161313
0.00130764
0.00130814
0.00163012
0.00163061
0.00128808
0.00128855
0.00164738
0.00164791
0.00126852
0.00126904
0.00166439
0.0016649
0.00124903
0.00124957
0.00168118
0.00168171
0.00122963
0.00123011
0.00169781
0.0016983
0.00121031
0.00121059
0.00171372
0.00171418
0.00119102
0.001191
0.00173029
0.00173055
0.0011717
0.00117126
0.00174553
0.00174556
0.00115176
0.00115173
0.00176102
0.00176093
0.00113177
0.0011322
0.00174454
0.00176001
0.00177635
0.00177603
0.00171188
0.0017288
0.00167899
0.00169593
0.00164583
0.00166265
0.00161102
0.00162863
0.00157482
0.00159304
0.00153848
0.00155778
0.00150149
0.00152019
0.00146289
0.00148176
0.00142371
0.00144337
0.00138486
0.0014044
0.00134579
0.00136537
0.00130667
0.00132625
0.00126765
0.00128716
0.00122883
0.00124823
0.00119031
0.00120955
0.00115129
0.00117108
0.00113166
0.0011121
0.00111234
0.0011713
0.00113211
0.00115167
0.00121042
0.00119076
0.00124928
0.0012299
0.00128827
0.00126877
0.00132741
0.00130785
0.00136659
0.00134702
0.00140548
0.00138615
0.0014446
0.00142517
0.00148321
0.00146408
0.0015205
0.00150181
0.00155821
0.00154007
0.00159446
0.0015761
0.00162985
0.00161237
0.00166395
0.00164711
0.00169693
0.00168052
0.001729
0.00171282
0.00175914
0.0017444
0.00177425
0.00177586
0.00111186
0.00111248
0.00179034
0.0017882
0.00179126
0.00179112
0.00174205
0.00177369
0.0017578
0.00170945
0.00172612
0.00167712
0.00169316
0.00164381
0.00166068
0.00160914
0.00162664
0.00157341
0.00159138
0.00153649
0.00155519
0.00149912
0.00151847
0.00146167
0.00147998
0.00142248
0.00144207
0.0013836
0.00140308
0.00134463
0.00136414
0.00130561
0.00132513
0.00126668
0.00128614
0.00122796
0.0012473
0.00118954
0.00120871
0.00115077
0.00117019
0.00109233
0.00109246
0.00111133
0.00113116
0.00113194
0.00111255
0.00109298
0.00109264
0.00117122
0.00115151
0.00120991
0.00119036
0.00124856
0.0012292
0.00128747
0.001268
0.00132653
0.001307
0.00136564
0.00134609
0.0014046
0.00138518
0.00144337
0.00142399
0.00148189
0.0014626
0.00151944
0.00150075
0.0015565
0.00153842
0.00159282
0.00157486
0.00162804
0.00161059
0.00166206
0.00164522
0.00169478
0.00167861
0.00172615
0.00171068
0.00175617
0.00174131
0.00178434
0.00177076
0.00178909
0.00180229
0.00179845
0.00180386
0.00109214
0.00109297
0.0018049
0.00180281
0.00181585
0.00181246
0.0018052
0.00111171
0.00109222
0.0010735
0.00107352
0.00179952
0.0018184
0.00183842
0.00182076
0.00176979
0.00178506
0.00173829
0.00175396
0.00170628
0.00172273
0.00167411
0.00168997
0.00164097
0.00165776
0.00160647
0.00162387
0.00157089
0.00158882
0.00153433
0.00155269
0.00149702
0.00151577
0.00145912
0.00147814
0.00142073
0.00144002
0.00138198
0.00140138
0.00134312
0.00136256
0.00130422
0.00132367
0.00126541
0.0012848
0.00122679
0.00124608
0.00118847
0.00120759
0.00115007
0.0011692
0.00113073
0.00107319
0.00107295
0.00107308
0.00107337
0.00113172
0.00109291
0.00111238
0.00117065
0.00115119
0.00120893
0.00118965
0.00124748
0.00122817
0.00128627
0.00126686
0.00132521
0.00130574
0.00136416
0.00134469
0.00140301
0.00138362
0.00144162
0.00142234
0.00147976
0.00146079
0.00151746
0.00149872
0.00155428
0.00153597
0.00159033
0.00157246
0.00162532
0.00160798
0.00165914
0.00164239
0.00169164
0.00167558
0.00172264
0.00170737
0.00175211
0.00173751
0.00178006
0.00176625
0.00180727
0.00179321
0.00182466
0.00181991
0.00181873
0.0018173
0.00107281
0.00107355
0.00183047
0.00182839
0.0018252
0.00183208
0.00183625
0.00176352
0.00184127
0.00181919
0.00182081
0.00181798
0.00179656
0.00181306
0.00176394
0.00178015
0.00173336
0.00174834
0.00170212
0.00171829
0.00167031
0.00168629
0.00163726
0.00165396
0.00160297
0.00162026
0.0015676
0.00158542
0.00153131
0.00154956
0.00149423
0.00151284
0.00145648
0.00147545
0.00141833
0.00143748
0.0013798
0.0013991
0.00134111
0.00136047
0.00130239
0.00132175
0.00126374
0.00128305
0.00122527
0.00124448
0.00118707
0.00120613
0.001149
0.00116795
0.00111094
0.00112993
0.00107247
0.00109157
0.00105398
0.00105333
0.00105367
0.00105427
0.00105409
0.00105449
0.00105438
0.00105478
0.00105452
0.00109272
0.00105463
0.00107398
0.00113109
0.00111203
0.00116951
0.00115042
0.00120761
0.00118855
0.00124604
0.0012268
0.00128468
0.00126534
0.00132345
0.00130407
0.00136223
0.00134285
0.00140088
0.00138159
0.00143929
0.00142013
0.00147723
0.00145834
0.00151465
0.00149604
0.00155128
0.00153306
0.00158705
0.0015693
0.00162178
0.00160457
0.00165532
0.00163872
0.00168753
0.00167161
0.00171824
0.00170311
0.00174725
0.00173296
0.00177459
0.00176117
0.00180082
0.00178768
0.00182578
0.00181265
0.00184333
0.00183704
0.00183105
0.00183069
0.00184263
0.00183848
0.00107211
0.00105324
0.0010357
0.0010356
0.00183812
0.00184773
0.0018704
0.00179301
0.0018523
0.00184706
0.00183132
0.0018314
0.00180729
0.00180516
0.00178951
0.00180259
0.0017572
0.00177329
0.00172793
0.00174266
0.0016973
0.00171287
0.00166558
0.00168156
0.00163272
0.00164931
0.0015987
0.00161586
0.0015636
0.00158128
0.00152759
0.00154571
0.00149078
0.00150928
0.00145333
0.00147213
0.0014154
0.00143443
0.00137712
0.0013963
0.00133866
0.00135791
0.00130015
0.00131941
0.00126169
0.00128091
0.0012234
0.00124252
0.00118536
0.00120435
0.00114767
0.00116648
0.00110978
0.00112868
0.00109083
0.00103519
0.00103446
0.00103497
0.00103575
0.00103558
0.00103585
0.00103589
0.00103571
0.0010922
0.00105398
0.00107362
0.00113017
0.00111117
0.00116802
0.00114922
0.00120599
0.00118698
0.00124424
0.00122509
0.00128271
0.00126346
0.00132128
0.00130199
0.00135984
0.00134057
0.00139826
0.00137908
0.0014364
0.00141738
0.0014741
0.00145533
0.00151122
0.00149275
0.00154757
0.00152951
0.00158304
0.00156544
0.00161745
0.0016004
0.00165066
0.00163423
0.00168254
0.00166679
0.00171293
0.00169794
0.00174164
0.00172752
0.00176855
0.00175535
0.00179394
0.0017816
0.00181734
0.0018046
0.00184011
0.00183013
0.00185592
0.00184852
0.00184366
0.00184124
0.00103393
0.00103519
0.00184661
0.00180475
0.00183199
0.00185005
0.00185629
0.00186666
0.00185829
0.00186363
0.0018614
0.00186447
0.00185908
0.00184246
0.00180449
0.00185794
0.00183496
0.00179639
0.0017973
0.0017796
0.0017929
0.00175054
0.00176498
0.00172161
0.00173624
0.00169138
0.00170668
0.00165997
0.00167582
0.00162741
0.00164385
0.00159371
0.00161071
0.00155894
0.00157646
0.00152324
0.00154121
0.00148675
0.0015051
0.00144962
0.00146826
0.00141198
0.00143086
0.00137399
0.00139302
0.00133579
0.00135491
0.00129752
0.00131666
0.00125929
0.0012784
0.00122121
0.00124023
0.00118337
0.00120226
0.00114585
0.00116457
0.0011085
0.00112724
0.00107078
0.00108966
0.00103313
0.00105206
0.00101586
0.00101421
0.00101515
0.00101701
0.00101642
0.00101763
0.00101739
0.00101765
0.00101771
0.00101712
0.00101743
0.00101665
0.00101692
0.00105349
0.00101621
0.00103474
0.00109111
0.00107236
0.00112886
0.00111003
0.00116626
0.00114752
0.00120405
0.00118513
0.00124211
0.00122305
0.00128035
0.00126122
0.00131869
0.00129952
0.001357
0.00133786
0.00139515
0.00137611
0.001433
0.00141413
0.0014704
0.00145178
0.00150719
0.00148889
0.00154321
0.00152532
0.00157833
0.00156091
0.00161238
0.00159551
0.00164523
0.00162898
0.00167674
0.00166118
0.00170676
0.00169196
0.00173515
0.00172118
0.00176178
0.00174871
0.00178655
0.0017745
0.00180959
0.00179804
0.00183051
0.00182088
0.00185
0.00183869
0.00186877
0.00186067
0.00185056
0.00185308
0.00184938
0.00103204
0.00101363
0.00099808
0.000997564
0.00185125
0.00185941
0.00185529
0.00186514
0.00186931
0.00187501
0.00187666
0.00186931
0.00185147
0.00184477
0.00185942
0.0018498
0.00184875
0.00180524
0.00182653
0.00178749
0.00179299
0.00176992
0.00178228
0.00174267
0.00175634
0.00171434
0.0017287
0.00168459
0.00169965
0.00165359
0.00166925
0.0016214
0.00163765
0.00158805
0.00160487
0.00155365
0.00157099
0.00151832
0.0015361
0.00148218
0.00150035
0.00144539
0.00146387
0.00140809
0.0014268
0.00137041
0.00138929
0.00133251
0.00135148
0.00129452
0.00131352
0.00125655
0.00127553
0.0012187
0.00123761
0.00118108
0.00119987
0.00114375
0.00116238
0.0011068
0.00112524
0.00106939
0.00108814
0.0010506
0.000997603
0.000995808
0.000996919
0.000999008
0.000998382
0.000999674
0.00099942
0.000999642
0.000999742
0.000998927
0.000999374
0.000998464
0.00105269
0.0010155
0.00103404
0.00108984
0.00107126
0.00112699
0.0011085
0.00116422
0.00114556
0.00120181
0.00118299
0.00123964
0.0012207
0.00127764
0.00125863
0.00131571
0.00129668
0.00135373
0.00133474
0.00139158
0.0013727
0.00142911
0.0014104
0.00146616
0.00144771
0.0015026
0.00148448
0.00153825
0.00152054
0.00157298
0.00155576
0.00160665
0.00158997
0.0016391
0.00162305
0.0016702
0.00165484
0.00169983
0.00168523
0.00172785
0.00171406
0.00175415
0.00174124
0.00177863
0.00176667
0.00180125
0.00179017
0.00182141
0.0018118
0.00184103
0.0018303
0.00185902
0.00184928
0.00187939
0.00186811
0.00187684
0.00186788
0.00185628
0.000995077
0.000996862
0.0018525
0.0018605
0.00186604
0.00186163
0.00186868
0.00187613
0.00187502
0.00188008
0.00188261
0.00188398
0.00188447
0.00187621
0.00185967
0.0018369
0.00186823
0.00186367
0.00184292
0.00183128
0.0018394
0.00180115
0.00181472
0.00177938
0.00178848
0.00176005
0.00177165
0.00173401
0.00174724
0.00170632
0.00172039
0.00167709
0.0016919
0.00164653
0.00166198
0.00161474
0.0016308
0.0015818
0.00159842
0.0015478
0.00156493
0.00151286
0.00153045
0.00147711
0.00149509
0.00144069
0.00145898
0.00140375
0.00142229
0.00136642
0.00138513
0.00132885
0.00134766
0.00129116
0.00131001
0.00125347
0.00127231
0.0012159
0.00123467
0.00117852
0.00119718
0.0011414
0.00115993
0.00110464
0.00112298
0.00106798
0.00108641
0.00103099
0.00104939
0.000994321
0.0010128
0.000977909
0.000975858
0.000976947
0.0009798
0.000978766
0.000981155
0.00098057
0.000981829
0.000981577
0.000981777
0.000981895
0.000981072
0.000981489
0.000979974
0.000980393
0.000978533
0.000979306
0.00101445
0.000977831
0.000996141
0.00105155
0.00103281
0.0010882
0.00107001
0.00112487
0.00110649
0.00116192
0.00114336
0.00119927
0.00118057
0.00123685
0.00121804
0.00127458
0.00125571
0.00131236
0.00129348
0.00135007
0.00133124
0.00138758
0.00136887
0.00142475
0.00140623
0.00146144
0.00144318
0.00149748
0.00147956
0.00153274
0.00151523
0.00156705
0.00155004
0.0016003
0.00158383
0.00163233
0.00161649
0.00166301
0.00164786
0.00169223
0.00167783
0.00171986
0.00170627
0.00174581
0.00173307
0.00176996
0.00175814
0.00179227
0.00178136
0.00181231
0.00180264
0.0018309
0.00182177
0.00184778
0.00183875
0.001865
0.00185739
0.00188263
0.00187895
0.00187928
0.00186737
0.00186644
0.0018701
0.00186767
0.00187726
0.00187351
0.00187485
0.00187816
0.000993167
0.000974878
0.000960355
0.000959712
0.00188559
0.00188413
0.00188821
0.00188949
0.0018904
0.001888
0.00187004
0.00186479
0.00186634
0.00188448
0.00187882
0.00188168
0.00186948
0.00185605
0.00185373
0.00182659
0.00183666
0.00181785
0.00182643
0.00179255
0.00180412
0.00177145
0.00178167
0.00175005
0.00176144
0.00172485
0.00173774
0.00169772
0.00171151
0.00166899
0.00168355
0.00163888
0.00165411
0.00160752
0.00162337
0.001575
0.00159141
0.00154143
0.00155835
0.00150691
0.00152429
0.00147157
0.00148934
0.00143556
0.00145365
0.001399
0.00141735
0.00136204
0.00138057
0.00132482
0.00134346
0.00128746
0.00130616
0.00125009
0.00126878
0.0012128
0.00123143
0.00117568
0.00119422
0.00113882
0.00115722
0.00110226
0.0011205
0.0010661
0.00108415
0.00102951
0.00104785
0.00101137
0.000960141
0.000957886
0.000959155
0.000962131
0.000961154
0.000963441
0.000962869
0.000964097
0.000963855
0.000964053
0.000964164
0.000963354
0.000963773
0.000962066
0.000962751
0.000961357
0.0010133
0.000977034
0.000995175
0.00104998
0.00103157
0.00108606
0.00106799
0.00112254
0.00110426
0.00115935
0.00114091
0.00119645
0.00117788
0.00123376
0.00121509
0.00127119
0.00125248
0.00130866
0.00128994
0.00134603
0.00132737
0.00138318
0.00136465
0.00141997
0.00140164
0.00145626
0.0014382
0.00149189
0.00147418
0.00152672
0.00150943
0.0015606
0.0015438
0.00159341
0.00157716
0.00162499
0.00160938
0.00165525
0.00164031
0.00168405
0.00166986
0.00171128
0.00169789
0.00173686
0.00172431
0.00176069
0.00174903
0.0017827
0.00177195
0.00180269
0.00179299
0.00182087
0.00181205
0.00183746
0.00182929
0.00185156
0.00184535
0.00186786
0.00185567
0.00187874
0.00187954
0.00189188
0.00188358
0.0018751
0.00186455
0.00188832
0.0018845
0.00187764
0.00187971
0.000957006
0.000958921
0.001891
0.00188584
0.00188723
0.00189207
0.00189256
0.00189562
0.00189696
0.00189432
0.00189022
0.00187097
0.00185976
0.00186093
0.0018627
0.00186959
0.00188059
0.00187359
0.00188596
0.00189488
0.00188978
0.00188745
0.0018796
0.00185706
0.0018527
0.00184016
0.00184314
0.00181872
0.00182962
0.0018048
0.00181286
0.00178328
0.00179421
0.00176209
0.00177264
0.00174001
0.00175142
0.00171527
0.00172793
0.00168862
0.00170218
0.00166037
0.00167469
0.00163072
0.00164573
0.00159981
0.00161543
0.00156773
0.00158392
0.0015346
0.0015513
0.00150051
0.00151768
0.00146561
0.00148317
0.00143002
0.0014479
0.00139387
0.00141202
0.00135731
0.00137564
0.00132046
0.00133892
0.00128345
0.00130197
0.0012464
0.00126493
0.00120942
0.0012279
0.00117259
0.00119099
0.00113599
0.00115426
0.00109968
0.0011178
0.00106372
0.00108165
0.00102786
0.00104589
0.000992031
0.00100982
0.000956098
0.000973952
0.000940233
0.000938308
0.000939226
0.000942671
0.000941403
0.000944571
0.000943701
0.000945851
0.00094529
0.000946481
0.000946249
0.000946446
0.000946548
0.000945761
0.000946179
0.000944381
0.00094518
0.000942642
0.000943531
0.000940984
0.000941774
0.000975714
0.000939664
0.00095799
0.00101203
0.000993754
0.00104785
0.00103006
0.00108372
0.00106573
0.00111998
0.00110181
0.00115654
0.00113823
0.00119336
0.00117493
0.00123038
0.00121186
0.0012675
0.00124894
0.00130462
0.00128607
0.00134163
0.00132316
0.0013784
0.00136007
0.00141479
0.00139666
0.00145066
0.00143281
0.00148586
0.00146837
0.00152025
0.00150318
0.00155368
0.00153711
0.00158604
0.00157002
0.00161718
0.00160178
0.00164699
0.00163228
0.00167537
0.00166139
0.00170221
0.00168901
0.00172743
0.00171505
0.00175093
0.00173943
0.00177265
0.00176204
0.00179248
0.00178284
0.0018105
0.00180175
0.00182674
0.00181888
0.00184027
0.00183402
0.00185251
0.00184655
0.00185209
0.00189772
0.00190053
0.001881
0.00187194
0.00188813
0.00188895
0.00188695
0.00189386
0.00189571
0.000954724
0.000937205
0.00092323
0.00092197
0.00190102
0.00190027
0.00190267
0.00190256
0.00190052
0.00189849
0.00186761
0.00185707
0.00186981
0.00187505
0.00188618
0.00188525
0.00189758
0.00189562
0.00188611
0.00187187
0.00188288
0.00188925
0.00185161
0.00183931
0.00184099
0.00184739
0.0018252
0.00183291
0.00180948
0.00181786
0.00179325
0.00180176
0.00177311
0.0017835
0.001752
0.00176263
0.00172975
0.00174115
0.00170534
0.00171781
0.00167912
0.00169246
0.00165132
0.00166542
0.00162213
0.00163691
0.00159167
0.00160706
0.00156004
0.00157601
0.00152736
0.00154384
0.00149373
0.00151066
0.00145927
0.00147661
0.00142412
0.00144178
0.00138839
0.00140633
0.00135224
0.00137037
0.00131578
0.00133404
0.00127914
0.00129748
0.00124244
0.0012608
0.00120578
0.00122411
0.00116926
0.0011875
0.00113294
0.00115107
0.00109689
0.00111488
0.00106115
0.00107898
0.0010258
0.00104344
0.000990254
0.00100792
0.000972404
0.000922719
0.000920599
0.000921806
0.000925332
0.000924117
0.000927143
0.000926307
0.000928377
0.000927838
0.000928981
0.000928758
0.000928954
0.000929047
0.000928295
0.000928702
0.000927049
0.000927738
0.000925118
0.000926154
0.000923974
0.000974348
0.000938762
0.000956827
0.00101029
0.000992251
0.00104553
0.00102788
0.00108119
0.00106332
0.00111719
0.00109916
0.00115349
0.00113531
0.00119002
0.00117174
0.00122672
0.00120836
0.00126351
0.00124512
0.00130027
0.00128191
0.00133691
0.00131863
0.00137328
0.00135514
0.00140925
0.00139134
0.00144469
0.00142706
0.00147944
0.00146217
0.00151338
0.00149654
0.00154636
0.00153001
0.00157825
0.00156247
0.00160895
0.00159378
0.00163832
0.00162383
0.00166628
0.00165251
0.00169274
0.00167973
0.0017176
0.0017054
0.00174078
0.00172943
0.00176223
0.00175176
0.00178186
0.0017723
0.00179968
0.00179103
0.00181564
0.00180793
0.00182922
0.00182281
0.00184031
0.00183529
0.00184835
0.00184403
0.00186072
0.00185594
0.00187305
0.00186385
0.00185551
0.0019036
0.00189833
0.0018966
0.00189749
0.000919363
0.000921007
0.00190132
0.00190187
0.00190352
0.00190876
0.00190733
0.00190883
0.00190816
0.00190579
0.00190115
0.001871
0.00185711
0.0018542
0.00185202
0.0018487
0.00186502
0.00186782
0.00188623
0.00188414
0.00189762
0.00189503
0.00189754
0.00189156
0.00188268
0.00187278
0.00189784
0.00185077
0.00185804
0.0018373
0.00183116
0.00182621
0.00183549
0.00181385
0.00182033
0.0017986
0.00180656
0.00178185
0.00179053
0.00176237
0.00177239
0.00174148
0.00175207
0.00171924
0.0017306
0.00169512
0.00170742
0.00166929
0.00168243
0.00164193
0.00165581
0.00161318
0.00162773
0.00158316
0.00159834
0.00155199
0.00156773
0.00151976
0.00153601
0.00148659
0.0015033
0.00145259
0.0014697
0.00141788
0.00143533
0.0013826
0.00140031
0.00134686
0.00136478
0.0013108
0.00132887
0.00127455
0.0012927
0.00123821
0.00125639
0.0012019
0.00122005
0.00116569
0.00118378
0.00112967
0.00114766
0.0010939
0.00111176
0.00105842
0.00107613
0.00102329
0.00104081
0.000988507
0.00100585
0.000953026
0.000970687
0.000917982
0.000935607
0.000903154
0.000900172
0.000901804
0.000905716
0.000904303
0.000908081
0.000907013
0.000909836
0.000909024
0.000911015
0.000910501
0.000911595
0.00091138
0.000911574
0.00091166
0.000910955
0.000911339
0.000909763
0.000910426
0.000908038
0.000908953
0.000905707
0.00090686
0.000903579
0.000904636
0.000937464
0.000902603
0.000920129
0.000972634
0.000955171
0.00100803
0.00099039
0.00104305
0.00102549
0.00107847
0.00106072
0.0011142
0.0010963
0.00115021
0.00113218
0.00118644
0.00116831
0.00122281
0.00120462
0.00125924
0.00124103
0.00129564
0.00127746
0.00133188
0.0013138
0.00136784
0.00134991
0.00140338
0.00138568
0.00143838
0.00142097
0.00147268
0.00145564
0.00150616
0.00148955
0.00153868
0.00152256
0.00157012
0.00155456
0.00160036
0.00158541
0.00162931
0.00161503
0.00165686
0.00164329
0.00168294
0.00167011
0.00170745
0.00169542
0.00173034
0.00171913
0.00175152
0.00174117
0.00177095
0.00176149
0.00178857
0.00178002
0.00180431
0.00179672
0.00181786
0.00181142
0.00182903
0.00182383
0.00183805
0.00183358
0.0018457
0.00184305
0.00184316
0.00191098
0.00190925
0.00186601
0.00185786
0.00190452
0.00190539
0.00190527
0.00190927
0.00191067
0.000916482
0.000899108
0.000886286
0.000885384
0.00191586
0.00191365
0.0019144
0.00191311
0.00190982
0.00190464
0.0018512
0.00184081
0.00183816
0.00185116
0.00186647
0.00188222
0.00189565
0.00189378
0.00190433
0.00190024
0.00189205
0.00188051
0.00187214
0.00184642
0.00185414
0.0019058
0.0018463
0.00183849
0.0018347
0.00184534
0.00182347
0.00182712
0.00181481
0.00182054
0.0018023
0.00180882
0.0017872
0.00179504
0.00177036
0.00177905
0.00175129
0.00176109
0.00173064
0.00174115
0.00170851
0.0017198
0.00168468
0.00169682
0.00165921
0.00167215
0.00163225
0.00164592
0.00160393
0.00161827
0.00157436
0.00158931
0.00154363
0.00155914
0.00151186
0.00152788
0.00147915
0.00149563
0.0014456
0.00146248
0.00141135
0.00142857
0.00137651
0.001394
0.0013412
0.00135891
0.00130556
0.00132342
0.0012697
0.00128766
0.00123374
0.00125173
0.00119778
0.00121576
0.00116191
0.00117983
0.0011262
0.00114403
0.00109072
0.00110843
0.00105551
0.00107308
0.00102062
0.00103803
0.000986102
0.00100332
0.000951175
0.000968687
0.000933657
0.00088602
0.000882963
0.000884729
0.000888786
0.000887396
0.000890954
0.000889929
0.000892639
0.000891865
0.000893764
0.000893273
0.00089432
0.000894113
0.000894306
0.000894385
0.000893724
0.000894086
0.000892581
0.000893221
0.000890928
0.000891812
0.000888629
0.000889849
0.000887348
0.000936136
0.000901406
0.000919039
0.000970871
0.000953426
0.00100559
0.000988324
0.0010404
0.00102295
0.00107556
0.00105794
0.00111101
0.00109325
0.00114671
0.00112884
0.00118262
0.00116466
0.00121865
0.00120063
0.00125472
0.0012367
0.00129073
0.00127275
0.00132657
0.00130869
0.00136211
0.00134439
0.00139722
0.00137974
0.00143176
0.00141458
0.00146561
0.0014488
0.00149863
0.00148225
0.00153069
0.0015148
0.00156168
0.00154634
0.00159149
0.00157676
0.00162002
0.00160594
0.00164718
0.00163379
0.00167289
0.00166024
0.00169707
0.0016852
0.00171967
0.0017086
0.00174061
0.00173038
0.00175984
0.00175047
0.00177729
0.00176882
0.00179287
0.00178535
0.00180635
0.00179991
0.0018176
0.00181231
0.00182683
0.00182237
0.00183337
0.00183082
0.00183706
0.001835
0.00184411
0.0018364
0.00184705
0.00183713
0.00183432
0.00191674
0.00191457
0.00191183
0.00191262
0.000881927
0.000884072
0.00190708
0.0019161
0.00191711
0.00192184
0.00191932
0.00191936
0.00191724
0.0019132
0.00190732
0.0018388
0.00182696
0.00181923
0.0018273
0.00181899
0.00183115
0.0018348
0.00185283
0.00186341
0.00188133
0.00189179
0.00190373
0.00190648
0.00190123
0.00189121
0.00187889
0.00186707
0.00185283
0.00184113
0.00191309
0.00183769
0.00183554
0.00183232
0.00181995
0.00182016
0.0018321
0.0018125
0.00181589
0.00180312
0.00180845
0.00179048
0.00179709
0.00177558
0.00178331
0.00175879
0.00176745
0.00174001
0.00174965
0.00171958
0.00173
0.00169762
0.00170881
0.00167405
0.00168605
0.00164892
0.00166169
0.00162235
0.00163582
0.00159444
0.00160857
0.00156529
0.00158003
0.00153501
0.0015503
0.00150369
0.00151949
0.00147144
0.00148769
0.00143835
0.001455
0.00140455
0.00142154
0.00137015
0.00138743
0.00133528
0.00135278
0.00130007
0.00131772
0.00126461
0.00128237
0.00122904
0.00124684
0.00119344
0.00121124
0.00115791
0.00117567
0.00112253
0.0011402
0.00108735
0.00110492
0.00105243
0.00106986
0.0010178
0.00103508
0.000983495
0.0010006
0.000949313
0.000966486
0.000915018
0.000931979
0.000880618
0.000897869
0.000866239
0.000863349
0.000864988
0.00086925
0.000867657
0.000871847
0.00087063
0.000873942
0.000872947
0.000875548
0.000874811
0.00087662
0.000876151
0.000877154
0.000876955
0.000877146
0.000877218
0.000876598
0.000876939
0.000875515
0.000876123
0.000873914
0.000874777
0.000871866
0.000872937
0.000869341
0.000870572
0.000867128
0.000868208
0.000900064
0.000866027
0.000882981
0.000934385
0.000917135
0.000968799
0.000951521
0.00100302
0.000985879
0.00103758
0.00102026
0.00107246
0.00105499
0.00110762
0.00109002
0.00114302
0.0011253
0.00117859
0.00116079
0.00121426
0.00119643
0.00124996
0.00123213
0.00128558
0.00126779
0.001321
0.00130333
0.00135611
0.00133861
0.00139078
0.00137352
0.00142488
0.00140792
0.00145827
0.00144168
0.00149083
0.00147468
0.00152244
0.00150678
0.00155299
0.00153788
0.00158237
0.00156786
0.0016105
0.00159662
0.00163728
0.00162409
0.00166265
0.00165017
0.00168653
0.0016748
0.00170885
0.00169791
0.00172957
0.00171945
0.00174862
0.00173934
0.00176592
0.00175752
0.00178137
0.00177391
0.00179482
0.00178839
0.00180611
0.00180078
0.00181532
0.00181096
0.00182197
0.00181913
0.00182559
0.00182417
0.00182738
0.00182672
0.00182283
0.00192149
0.00191889
0.0018319
0.00182427
0.0019185
0.00191915
0.0019118
0.00192208
0.00192285
0.000879176
0.000862143
0.00085022
0.000849066
0.0019269
0.0019243
0.00192353
0.00192065
0.00191582
0.00190931
0.0018214
0.00181339
0.00179936
0.0018072
0.00183831
0.0018471
0.00186668
0.00187116
0.00189062
0.00190125
0.00190984
0.00190099
0.00188968
0.00187732
0.00186067
0.00185075
0.00183657
0.00181381
0.00182161
0.00191969
0.00181925
0.00180114
0.00182481
0.00182722
0.00181687
0.00181171
0.00180896
0.00181656
0.0018012
0.00180488
0.00179128
0.0017967
0.00177865
0.00178526
0.00176388
0.00177154
0.00174717
0.00175578
0.0017286
0.00173813
0.00170837
0.00171869
0.0016866
0.0016977
0.00166329
0.00167515
0.00163848
0.00165108
0.00161227
0.00162556
0.00158475
0.00159868
0.00155602
0.00157055
0.00152617
0.00154125
0.0014953
0.00151087
0.00146349
0.00147952
0.00143086
0.00144728
0.00139751
0.00141428
0.00136356
0.00138061
0.00132913
0.00134641
0.00129434
0.00131178
0.0012593
0.00127685
0.00122412
0.00124173
0.0011889
0.00120651
0.00115372
0.00117131
0.00111868
0.00113619
0.00108381
0.00110122
0.00104919
0.00106647
0.00101483
0.00103198
0.00098078
0.00099777
0.000947078
0.000963898
0.00091313
0.000930013
0.000896188
0.000849623
0.000846484
0.000848268
0.000852566
0.000851067
0.000855015
0.00085385
0.00085703
0.000856081
0.000858558
0.000857856
0.000859582
0.000859134
0.000860094
0.000859903
0.000860092
0.000860158
0.000859577
0.000859898
0.000858555
0.000859129
0.000857036
0.000857857
0.000855072
0.000856104
0.00085256
0.000853876
0.000851289
0.000898659
0.000865032
0.000881785
0.00093265
0.000915558
0.000966326
0.000949458
0.0010003
0.000983275
0.00103461
0.00101742
0.0010692
0.00105187
0.00110406
0.00108661
0.00113912
0.00112157
0.00117435
0.00115673
0.00120966
0.00119201
0.00124498
0.00122733
0.00128019
0.00126261
0.0013152
0.00129774
0.00134988
0.0013326
0.0013841
0.00136707
0.00141775
0.00140102
0.00145069
0.00143433
0.00148281
0.00146688
0.00151398
0.00149853
0.0015441
0.00152919
0.00157307
0.00155875
0.00160081
0.00158712
0.00162723
0.00161421
0.00165227
0.00163995
0.00167586
0.00166428
0.00169795
0.00168712
0.00171846
0.00170843
0.00173734
0.00172814
0.00175452
0.00174618
0.00176989
0.00176247
0.00178332
0.00177688
0.00179467
0.00178929
0.0018039
0.00179957
0.00181066
0.00180768
0.00181468
0.00181301
0.00181572
0.00181579
0.00181319
0.00181452
0.00181354
0.00180803
0.00180341
0.00179726
0.00180455
0.00192534
0.00192172
0.00192441
0.00192495
0.000845374
0.000847936
0.00191563
0.00192719
0.00192787
0.00193115
0.00192851
0.00192693
0.00192325
0.00191765
0.0019102
0.0017878
0.00178939
0.00178551
0.00180236
0.00181198
0.0018252
0.00185025
0.00185729
0.00187583
0.00188452
0.00189817
0.00190847
0.00189969
0.00188749
0.00187358
0.00186023
0.00184469
0.00182763
0.00181075
0.00178964
0.00179865
0.00178719
0.00192554
0.00180903
0.00178357
0.0018051
0.00179894
0.00180997
0.00181051
0.00180324
0.00180554
0.00179818
0.00180205
0.00178979
0.00179405
0.00177952
0.00178501
0.00176688
0.00177348
0.00175216
0.00175979
0.00173554
0.0017441
0.00171712
0.00172656
0.00169708
0.00170731
0.0016755
0.00168649
0.00165243
0.00166417
0.00162793
0.00164037
0.00160206
0.00161517
0.00157491
0.00158865
0.00154658
0.00156091
0.00151715
0.00153201
0.00148671
0.00150206
0.00145534
0.00147115
0.00142316
0.00143936
0.00139026
0.0014068
0.00135676
0.00137359
0.00132277
0.00133983
0.0012884
0.00130563
0.00125378
0.00127113
0.001219
0.00123641
0.00118416
0.00120159
0.00114935
0.00116675
0.00111465
0.00113199
0.00108011
0.00109736
0.00104579
0.00106292
0.00101172
0.00102873
0.000977937
0.000994797
0.000944466
0.000961163
0.000910961
0.000927661
0.00087767
0.000894361
0.000844073
0.000860852
0.000830077
0.000827144
0.0008288
0.000833189
0.000831549
0.000835946
0.000834627
0.000838296
0.000837171
0.000840215
0.000839313
0.000841668
0.000841