/*--------------------------------*- C++ -*----------------------------------*\
  =========                 |
  \\      /  F ield         | OpenFOAM: The Open Source CFD Toolbox
   \\    /   O peration     | Website:  https://openfoam.org
    \\  /    A nd           | Version:  10
     \\/     M anipulation  |
\*---------------------------------------------------------------------------*/
FoamFile
{
    format      ascii;
    class       volVectorField;
    location    "22";
    object      U;
}
// * * * * * * * * * * * * * * * * * * * * * * * * * * * * * * * * * * * * * //

dimensions      [0 1 -1 0 0 0 0];

internalField   nonuniform List<vector> 
6397
(
(1.04602 -0.17557 1.00044e-20)
(1.05164 -0.186255 -4.61464e-20)
(1.20652 0.355761 0)
(1.16721 0.349337 6.24908e-22)
(1.1195 0.385672 3.6219e-22)
(1.15548 0.397916 2.99616e-22)
(0.788273 -0.485132 -4.30399e-20)
(0.478502 -0.705268 1.03893e-19)
(-0.0583235 0.12813 1.71347e-20)
(-0.121508 0.0979887 -7.56611e-21)
(0.500607 0.713898 7.30066e-20)
(0.802279 0.723071 -1.01869e-20)
(0.441123 0.026323 -3.51094e-22)
(0.507461 0.0140552 -8.56795e-23)
(0.323381 0.0256924 9.51711e-22)
(-0.0595197 0.0527581 -8.41676e-20)
(0.0973697 0.0712252 -4.78504e-20)
(-0.114293 0.0661925 4.07351e-20)
(0.32701 0.014035 5.56642e-20)
(0.448056 -0.16346 -1.69267e-19)
(0.545373 -0.0179304 -8.75276e-20)
(0.254009 -0.0100045 -1.14134e-19)
(0.0250755 0.0068289 5.09498e-21)
(0.512972 0.0338609 -7.84122e-20)
(0.644562 0.0124307 0)
(0.645112 0.0102834 7.98729e-23)
(0.774845 0.0137971 3.28957e-24)
(0.931162 0.023129 1.70441e-20)
(0.936169 -0.148804 -4.55726e-21)
(0.987126 0.209865 9.90371e-21)
(0.987528 0.0512889 -1.34339e-20)
(1.10527 0.283798 3.51097e-21)
(1.13757 0.292597 1.45262e-21)
(1.13095 0.339236 -4.06533e-21)
(1.06308 0.183634 1.61306e-21)
(1.08601 0.195386 0)
(1.08228 0.23121 -1.14509e-21)
(1.10984 0.241607 -2.16733e-21)
(1.05729 0.117846 3.70102e-21)
(1.04304 0.105986 -2.02029e-21)
(1.04989 0.142708 0)
(1.06944 0.153484 0)
(0.990533 0.341453 -4.19806e-21)
(1.14611 0.488186 -2.31855e-21)
(1.17879 0.476465 3.31342e-21)
(1.19495 0.404648 -2.36145e-21)
(1.13818 0.44432 -1.46785e-21)
(1.1748 0.450301 5.11956e-21)
(1.03015 0.0277879 3.86935e-21)
(1.04326 0.027046 -6.0568e-22)
(1.0462 0.00924627 7.17482e-21)
(1.06137 0.010871 -2.73882e-21)
(1.05468 0.0132906 -1.89236e-20)
(0.975932 0.19525 -9.05575e-21)
(1.03199 0.226816 5.9496e-21)
(1.03211 0.0515044 4.48818e-21)
(1.03766 0.0642336 4.54663e-21)
(1.13212 -0.0337384 -2.4141e-21)
(1.043 -0.552048 -3.4342e-21)
(1.02472 -0.570942 3.48211e-21)
(1.05395 -0.543871 2.8595e-21)
(1.05754 -0.552757 -2.81736e-21)
(1.05327 -0.566269 -3.43595e-21)
(1.0439 -0.563794 3.37723e-21)
(1.02733 -0.530602 0)
(0.999853 -0.457269 5.66763e-21)
(0.960521 -0.337174 -5.93509e-21)
(0.913746 -0.167967 0)
(1.01222 -0.547333 -3.39548e-21)
(1.00418 -0.573599 -2.90724e-23)
(0.982224 -0.55004 3.18361e-21)
(1.03818 -0.53506 0)
(1.05734 -0.535121 0)
(1.06837 -0.552287 0)
(1.07459 -0.570396 -1.2747e-23)
(1.07602 -0.571929 1.84999e-24)
(1.06971 -0.544715 0)
(1.04993 -0.480325 -7.31129e-25)
(1.01595 -0.36532 0)
(0.971476 -0.192616 0)
(0.953358 -0.518161 -5.39833e-21)
(0.982842 -0.535517 3.58282e-22)
(0.869107 0.0383385 0)
(0.924872 0.024644 0)
(0.927736 -0.440169 -9.0707e-22)
(0.963597 -0.446082 0)
(0.838026 0.246053 0)
(0.887261 0.246802 0)
(0.90779 -0.316058 1.30497e-20)
(0.946801 -0.31099 -2.03245e-21)
(0.829228 0.414072 0)
(0.867768 0.42911 0)
(0.895853 -0.162457 -1.09694e-20)
(0.890449 0.00261362 -6.67953e-21)
(0.843094 0.513929 0)
(0.870493 0.541109 6.78333e-22)
(0.878984 -0.312672 0)
(0.86224 -0.00562146 1.1933e-20)
(0.864951 -0.167804 7.72596e-22)
(0.932277 -0.498907 -3.29484e-21)
(0.902181 -0.428008 0)
(1.00532 -0.519216 -1.19226e-21)
(0.967942 -0.523877 3.30392e-21)
(1.06354 -0.518988 1.30057e-21)
(1.03819 -0.511395 9.77949e-22)
(1.0983 -0.561861 1.27676e-23)
(1.08226 -0.541575 -1.36833e-21)
(1.11568 -0.547158 -5.60083e-22)
(1.11083 -0.566738 -2.42259e-21)
(1.08115 -0.387615 -2.94647e-21)
(1.10539 -0.493065 5.7329e-21)
(0.995851 -0.000550139 0)
(1.04135 -0.219657 0)
(0.918438 0.426474 0)
(0.950526 0.231146 0)
(0.905812 0.551575 -1.40402e-21)
(0.801607 0.240455 -4.76545e-21)
(0.825443 0.478832 -1.45687e-21)
(0.800865 0.390652 4.71617e-21)
(0.869422 -0.14505 5.6437e-21)
(0.827124 0.0480112 -5.51654e-21)
(0.959874 -0.433207 3.78252e-23)
(0.916312 -0.31025 1.73385e-22)
(1.01928 -0.546966 0)
(0.993349 -0.509875 0)
(1.05123 -0.545959 2.71009e-21)
(1.03864 -0.552334 3.1343e-22)
(1.05155 -0.563201 5.76834e-22)
(1.05598 -0.546675 -2.69222e-21)
(1.03175 -0.584602 2.8861e-21)
(1.0436 -0.584389 -2.22287e-22)
(1.00846 -0.445113 -8.00441e-21)
(1.02121 -0.541774 -2.68604e-21)
(0.9905 -0.127685 0)
(0.999621 -0.299245 8.81918e-21)
(0.892757 0.160384 -7.27364e-21)
(0.933292 0.182634 -2.45585e-22)
(0.866895 0.147252 2.83764e-21)
(0.912748 0.602215 -1.44178e-21)
(0.890869 0.580987 3.96161e-22)
(0.819982 0.438208 -1.36384e-23)
(0.869218 0.503967 1.45992e-21)
(0.872379 0.455657 0)
(0.930034 0.600122 9.28348e-22)
(0.937065 0.610746 -1.79227e-21)
(0.942304 0.613134 1.78185e-21)
(1.05232 0.240228 4.6995e-21)
(0.844855 -0.00835796 -5.63118e-21)
(0.849667 0.14029 -2.71615e-21)
(1.05195 0.367813 4.12198e-21)
(0.875923 0.546402 1.06949e-22)
(0.860752 -0.300625 0)
(0.847973 -0.159081 -9.93037e-22)
(0.919151 -0.466824 4.44095e-23)
(0.884577 -0.406254 0)
(1.00281 -0.483705 -3.677e-22)
(0.960843 -0.486295 6.58074e-22)
(1.06979 -0.495285 0)
(1.03959 -0.482178 1.27911e-22)
(1.12163 -0.542053 0)
(1.09554 -0.520465 7.88353e-23)
(1.16274 -0.542503 0)
(1.1457 -0.55157 2.35074e-22)
(1.15388 -0.412046 2.90499e-24)
(1.1657 -0.503097 2.92683e-22)
(1.07668 -0.044077 2.73141e-22)
(1.12294 -0.257024 -4.86498e-22)
(0.975406 0.403354 -1.0124e-22)
(1.02321 0.192637 -1.25848e-22)
(0.945067 0.547148 7.1767e-22)
(0.778291 0.235478 4.91904e-23)
(0.786803 0.365615 5.75894e-23)
(0.831483 -0.112635 -4.82427e-24)
(0.795297 0.0653619 0)
(0.921913 -0.395283 0)
(0.876592 -0.27078 -5.10815e-23)
(0.997464 -0.518782 0)
(0.962994 -0.477058 0)
(1.04797 -0.5334 -2.05691e-24)
(1.02739 -0.531494 -3.18032e-22)
(1.06579 -0.567383 -3.8573e-22)
(1.06151 -0.543927 0)
(1.06691 -0.594495 -2.71923e-21)
(1.06808 -0.592058 0)
(1.06058 -0.450271 2.35726e-22)
(1.06456 -0.549267 2.72432e-21)
(1.05474 -0.107969 9.21258e-24)
(1.05585 -0.296571 1.06709e-21)
(1.05251 0.0783022 -4.78264e-21)
(0.90172 0.295875 1.72401e-21)
(0.939575 0.317656 0)
(0.863294 0.271724 1.09599e-21)
(0.879107 0.284969 -1.18661e-21)
(0.926947 0.453401 0)
(0.918781 0.498429 0)
(0.9218 0.574073 -3.26947e-22)
(0.956228 0.604509 -3.58354e-22)
(0.946866 0.614733 0)
(0.951771 0.588186 -1.35017e-22)
(0.948052 0.580936 6.34071e-23)
(0.938935 0.406742 0)
(0.968073 0.468335 0)
(0.979422 0.430978 -2.53327e-22)
(0.994749 0.439603 3.60722e-21)
(1.04773 0.458928 0)
(0.884574 0.373116 -2.13862e-21)
(0.85531 0.253133 -1.32283e-23)
(0.878473 0.349601 3.46733e-21)
(1.11609 0.379894 0)
(1.12308 0.254782 -4.10709e-21)
(0.917066 0.539586 0)
(0.832625 -0.00877814 4.51145e-22)
(0.841951 0.128813 0)
(0.847177 -0.277492 9.22861e-24)
(0.833686 -0.151074 2.2093e-22)
(0.91111 -0.426746 -1.46176e-22)
(0.87369 -0.371797 0)
(1.00027 -0.443728 9.52198e-25)
(0.955724 -0.444012 -1.21271e-22)
(1.07391 -0.465196 -1.08404e-24)
(1.03988 -0.447893 -1.02656e-22)
(1.14005 -0.512657 3.21607e-22)
(1.10605 -0.490903 0)
(1.2035 -0.526855 0)
(1.1745 -0.526126 -3.27747e-22)
(1.22488 -0.428975 -2.17624e-22)
(1.22182 -0.501811 8.86305e-23)
(1.16356 -0.0955285 0)
(1.20625 -0.292528 -3.23381e-23)
(1.03678 0.360038 -2.5154e-22)
(1.1017 0.13726 4.8366e-22)
(0.984697 0.523483 5.66397e-22)
(0.825782 0.39106 -1.74714e-22)
(0.884571 0.402058 1.82058e-25)
(0.763933 0.234012 -1.26688e-22)
(0.781954 0.339297 3.20746e-22)
(0.801332 -0.0753026 9.49927e-24)
(0.772646 0.0873909 -3.575e-22)
(0.890352 -0.350525 0)
(0.844157 -0.226659 4.08698e-22)
(0.980347 -0.483933 0)
(0.937386 -0.43586 0)
(1.04737 -0.515171 3.50462e-24)
(1.01871 -0.504067 0)
(1.0823 -0.562417 0)
(1.06842 -0.533399 0)
(1.10238 -0.594454 0)
(1.09314 -0.589848 0)
(1.11313 -0.454091 1.96544e-21)
(1.1077 -0.552806 0)
(1.11821 -0.10383 -9.12436e-24)
(1.11482 -0.295213 -2.00832e-21)
(1.11853 0.090609 4.72358e-21)
(0.917248 0.408071 1.65187e-21)
(0.950474 0.424273 -3.37988e-21)
(0.89712 0.392168 2.80084e-21)
(0.946329 0.587656 4.99414e-22)
(0.959042 0.50396 0)
(0.94981 0.562174 4.03331e-22)
(1.01401 0.468945 2.64789e-22)
(0.999699 0.506203 0)
(0.949881 0.570697 9.84548e-23)
(0.953911 0.578696 3.17736e-22)
(0.909296 0.44585 2.37746e-22)
(0.907397 0.419713 2.16181e-22)
(0.994412 0.510361 2.79225e-21)
(1.03876 0.518579 2.74981e-21)
(1.18622 0.258737 3.86852e-21)
(1.17544 0.383897 0)
(0.853625 0.234081 1.94727e-22)
(0.880004 0.325134 -4.029e-22)
(0.938796 0.555457 -5.00858e-22)
(0.912468 0.53181 -2.72209e-23)
(0.927351 0.570313 -3.53435e-22)
(1.10462 0.463589 -1.39634e-22)
(0.95354 0.535633 0)
(0.825338 -0.00926925 2.69914e-22)
(0.836291 0.11682 -1.09572e-21)
(0.840622 -0.255011 -2.50135e-22)
(0.826796 -0.140403 7.32113e-22)
(0.910224 -0.385522 0)
(0.869852 -0.339758 0)
(1.00341 -0.402189 -6.55837e-25)
(0.957346 -0.399356 -4.20498e-29)
(1.07927 -0.431758 1.07431e-24)
(1.04394 -0.411098 0)
(1.15533 -0.475258 0)
(1.11547 -0.455992 -4.45292e-29)
(1.23641 -0.496799 0)
(1.19744 -0.489557 0)
(1.28812 -0.42988 0)
(1.26878 -0.48374 0)
(1.2506 -0.146998 0)
(1.28469 -0.319122 0)
(1.10747 0.295289 0)
(1.18695 0.0713439 0)
(0.974961 0.57397 -2.67826e-22)
(1.03096 0.474798 0)
(0.918081 0.577383 0)
(0.940034 0.598884 7.93597e-23)
(0.867503 0.488446 0)
(0.900332 0.533005 1.17965e-22)
(0.951013 0.361916 1.55623e-23)
(1.02515 0.429826 -2.84954e-23)
(0.988495 0.393589 -1.56292e-23)
(0.842115 0.338337 3.05045e-23)
(0.901559 0.347217 -1.81986e-25)
(0.760946 0.223132 -5.40762e-23)
(0.790394 0.304004 -2.85141e-23)
(0.782293 -0.0433921 -1.22544e-24)
(0.760393 0.101602 0)
(0.867939 -0.303811 0)
(0.820942 -0.183955 0)
(0.968399 -0.442103 0)
(0.919132 -0.389837 0)
(1.04833 -0.488854 -6.25108e-25)
(1.01292 -0.469471 0)
(1.09778 -0.546613 0)
(1.07594 -0.513669 0)
(1.1342 -0.583205 0)
(1.11691 -0.575853 0)
(1.1629 -0.446556 7.36603e-22)
(1.15005 -0.543438 -7.66128e-22)
(1.18 -0.101042 1.09014e-21)
(1.1728 -0.291473 -1.15966e-22)
(1.18495 0.0927312 -5.45117e-21)
(0.934123 0.486959 -1.83641e-21)
(0.960303 0.500819 -2.97007e-21)
(0.9177 0.46862 0)
(1.05486 0.503587 0)
(1.07004 0.457522 2.01927e-23)
(0.86132 0.507039 -2.41681e-22)
(0.816625 0.43895 0)
(0.985914 0.537516 0)
(0.96546 0.574553 0)
(0.911173 0.39169 0)
(1.08708 0.514732 -6.5266e-21)
(1.24389 0.261343 2.67168e-21)
(1.23023 0.377049 0)
(1.03428 0.546663 4.98301e-23)
(0.941472 0.59709 -4.13998e-22)
(1.11931 0.483328 1.36422e-22)
(1.1032 0.533128 -5.39841e-23)
(0.884005 0.568044 3.83698e-22)
(0.793152 0.458746 -1.58695e-23)
(0.744811 0.371635 0)
(1.16026 0.459738 6.6274e-21)
(0.97644 0.559814 0)
(0.857191 0.212822 -7.45349e-22)
(0.91951 0.361758 -2.39542e-22)
(0.885302 0.29829 -1.93285e-21)
(0.824172 -0.011546 -2.61138e-22)
(0.835859 0.105303 7.62689e-22)
(0.840996 -0.232152 0)
(0.825488 -0.130144 1.39641e-22)
(0.914252 -0.340499 1.9276e-29)
(0.872114 -0.303781 -2.00438e-29)
(1.00655 -0.36013 -6.07037e-25)
(0.96182 -0.353458 0)
(1.08217 -0.395516 0)
(1.04608 -0.374008 0)
(1.16501 -0.432518 -3.83241e-25)
(1.12144 -0.416305 4.45297e-29)
(1.25741 -0.457033 9.93903e-29)
(1.21138 -0.446611 -1.03197e-28)
(1.33651 -0.41536 0)
(1.30151 -0.452036 0)
(1.33214 -0.191092 4.96842e-24)
(1.35058 -0.331645 0)
(1.19099 0.212677 -4.17758e-24)
(1.27624 0.00107511 0)
(1.00764 0.514078 -7.17732e-23)
(1.09442 0.39708 0)
(0.889235 0.545492 -2.9068e-22)
(0.939834 0.558102 5.61059e-23)
(0.804298 0.442024 -6.33467e-22)
(0.849099 0.49967 1.71338e-22)
(0.690136 0.294367 -1.70423e-21)
(0.752673 0.374274 6.31981e-22)
(1.03421 0.389295 -4.57226e-23)
(1.12758 0.434158 2.01401e-23)
(1.07994 0.41156 4.37704e-23)
(0.961995 0.322845 -1.44828e-22)
(0.995756 0.358477 8.53597e-23)
(0.866272 0.283393 5.61783e-23)
(0.920713 0.297739 3.68736e-23)
(0.7722 0.203422 0)
(0.811251 0.260882 -6.06206e-23)
(0.77547 -0.0164904 -7.01291e-25)
(0.761038 0.106787 -1.58649e-29)
(0.855752 -0.255017 0)
(0.809615 -0.143131 0)
(0.960916 -0.393887 2.6866e-25)
(0.908361 -0.338815 0)
(1.0489 -0.454739 -8.71893e-25)
(1.00882 -0.427801 0)
(1.11028 -0.521736 0)
(1.08173 -0.485475 0)
(1.16236 -0.561991 0)
(1.13652 -0.553284 0)
(1.20721 -0.434122 0)
(1.18607 -0.527071 0)
(1.23712 -0.0928326 0)
(1.22487 -0.280805 6.67164e-23)
(1.24461 0.0989711 -1.83386e-21)
(1.17074 0.513738 -1.52354e-22)
(1.17864 0.458821 0)
(0.667336 0.276246 -3.15501e-22)
(0.631434 0.196771 2.08744e-21)
(1.13533 0.502091 0)
(1.20944 0.443849 -1.05161e-21)
(1.07017 0.539371 -2.3167e-21)
(1.11073 0.519066 1.7097e-21)
(0.996602 0.551023 1.37958e-21)
(1.03083 0.550414 -3.77743e-22)
(0.949303 0.532824 7.60076e-23)
(0.968935 0.545016 -1.20135e-21)
(0.933758 0.492994 -1.72997e-21)
(0.937937 0.515119 2.89732e-22)
(0.941584 0.439101 0)
(0.935415 0.466986 1.34787e-21)
(0.951085 0.410097 5.73673e-22)
(1.01049 0.581103 -5.02399e-23)
(0.966259 0.607485 -2.05874e-28)
(1.07539 0.578835 5.41968e-23)
(0.914281 0.611209 0)
(1.15065 0.566056 0)
(0.826789 0.535335 0)
(1.23829 0.479445 3.60273e-23)
(1.22792 0.541204 4.80039e-24)
(0.714481 0.36908 2.19204e-22)
(0.587941 0.0880156 -3.79104e-22)
(0.592631 0.148945 -7.50581e-22)
(0.928861 0.332299 3.85672e-22)
(0.964662 0.378245 -4.27926e-22)
(0.990226 0.601266 -2.7015e-28)
(0.864304 0.190155 9.84859e-23)
(0.894713 0.269264 -8.29762e-23)
(0.829383 -0.0157914 -7.98738e-24)
(0.841289 0.0915475 0)
(0.848618 -0.208697 -5.08095e-31)
(0.831031 -0.121212 1.91585e-23)
(0.923584 -0.297018 0)
(0.880595 -0.267362 0)
(1.01189 -0.320184 3.18369e-25)
(0.96967 -0.309164 0)
(1.08482 -0.358318 0)
(1.04896 -0.337558 0)
(1.16942 -0.387541 9.33222e-26)
(1.12501 -0.375042 0)
(1.26618 -0.409508 5.48163e-25)
(1.21677 -0.399624 0)
(1.3645 -0.384706 0)
(1.31753 -0.408228 0)
(1.39855 -0.220252 -1.74727e-24)
(1.39598 -0.326271 0)
(1.28388 0.121417 1.42401e-24)
(1.36128 -0.0639781 0)
(1.07228 0.422183 7.76646e-26)
(1.17998 0.297076 -8.77478e-29)
(0.89853 0.482525 -1.11209e-24)
(0.976908 0.480851 0)
(0.779497 0.387895 -1.38704e-23)
(0.835416 0.444715 -4.0971e-22)
(0.689133 0.237962 1.31684e-21)
(0.73099 0.316804 1.66627e-21)
(0.668334 0.0807652 -2.57757e-21)
(0.666718 0.155959 -1.87396e-22)
(1.12979 0.387888 1.24058e-23)
(1.23411 0.419726 -4.04291e-23)
(1.17868 0.406722 0)
(1.04178 0.347928 1.76317e-23)
(1.08534 0.367468 -2.78752e-23)
(0.969194 0.289595 1.49748e-23)
(1.00187 0.323873 5.22131e-24)
(0.893706 0.232786 -7.21471e-25)
(0.937163 0.256261 7.90029e-24)
(0.796622 0.17431 0)
(0.841889 0.212522 0)
(0.779931 0.00504709 -1.90682e-25)
(0.774457 0.103899 9.50811e-29)
(0.853174 -0.205679 -8.37464e-29)
(0.80887 -0.104066 8.86398e-29)
(0.958666 -0.343318 6.80842e-25)
(0.905454 -0.286023 0)
(1.04951 -0.416854 0)
(1.00743 -0.383123 0)
(1.11848 -0.49152 3.67703e-25)
(1.08539 -0.452541 0)
(1.18322 -0.534183 0)
(1.15055 -0.524029 0)
(1.24284 -0.412775 3.57633e-24)
(1.21419 -0.501867 0)
(1.28604 -0.0818881 -1.02674e-23)
(1.26695 -0.265533 4.86068e-23)
(1.29426 0.259401 -2.09772e-21)
(1.29756 0.104831 0)
(1.24719 0.422966 -6.07354e-21)
(1.27588 0.365023 5.44537e-21)
(1.21188 0.445217 -1.42872e-22)
(1.05329 0.540545 0)
(1.1143 0.484706 -1.28294e-21)
(1.08406 0.518831 -4.66692e-22)
(0.996944 0.560788 0)
(1.02284 0.554927 0)
(0.962558 0.551803 -9.32483e-22)
(0.976236 0.559559 -2.39562e-28)
(0.956247 0.519954 3.84772e-22)
(0.9558 0.538222 1.59418e-21)
(0.97152 0.472126 0)
(0.96162 0.49732 -9.99663e-22)
(1.30418 0.491724 -1.76568e-24)
(1.29513 0.426547 3.69479e-23)
(0.577956 -0.0141685 2.16456e-21)
(0.701828 0.0222516 5.06209e-21)
(0.99572 0.418793 -5.27226e-22)
(0.983395 0.445499 1.43451e-22)
(1.03847 0.614831 -7.15644e-27)
(0.95952 0.631221 0)
(1.11474 0.607492 0)
(0.877761 0.590719 -8.11538e-27)
(1.19664 0.594988 -1.55497e-24)
(0.760983 0.455126 -1.85096e-22)
(1.28827 0.553356 2.98523e-24)
(0.633271 0.236366 0)
(1.36113 0.425306 8.1026e-22)
(1.36997 0.490602 -1.71825e-24)
(0.538335 0.00749939 1.36361e-21)
(0.758358 -0.0184892 -5.43198e-21)
(0.613351 -0.0893999 -1.01148e-21)
(1.33663 0.360388 -2.30642e-22)
(1.42813 0.407299 -8.15634e-22)
(1.39581 0.34314 -5.99927e-22)
(0.814909 -0.0569405 -2.53446e-21)
(0.870831 0.0239109 6.34905e-21)
(0.893492 -0.0286101 9.07935e-22)
(1.01297 0.386566 -7.62009e-23)
(1.02687 0.454088 0)
(1.04029 0.427629 1.02826e-22)
(1.0017 0.632357 -4.39263e-28)
(0.941823 0.29864 4.35431e-23)
(0.975445 0.349516 2.18116e-22)
(0.875088 0.164571 -1.66505e-23)
(0.904989 0.241128 -4.30624e-23)
(0.840555 -0.0207361 0)
(0.851559 0.0764205 0)
(0.861619 -0.183894 0)
(0.842643 -0.111501 0)
(0.936828 -0.25421 0)
(0.894687 -0.230104 0)
(1.01703 -0.283363 0)
(0.979406 -0.267737 0)
(1.08623 -0.321133 -1.23451e-28)
(1.05105 -0.30293 1.28272e-28)
(1.16924 -0.342957 2.89831e-25)
(1.12624 -0.333582 9.1375e-29)
(1.26393 -0.359023 -5.48163e-25)
(1.21486 -0.352295 0)
(1.37007 -0.341121 0)
(1.31721 -0.35728 0)
(1.43807 -0.226845 -1.72876e-24)
(1.41438 -0.301591 0)
(1.37296 0.0384168 1.53114e-24)
(1.42703 -0.110088 0)
(1.17245 0.314235 -7.75837e-26)
(1.28154 0.192115 0)
(0.972904 0.398891 5.71043e-24)
(1.06555 0.383038 1.3649e-28)
(0.841872 0.332181 5.38876e-22)
(0.898501 0.376057 0)
(0.785718 0.216656 -7.11965e-22)
(0.804115 0.275746 -6.87813e-22)
(0.808465 0.112115 2.91508e-21)
(0.789558 0.16075 -1.85532e-21)
(0.841678 0.068715 -5.67571e-21)
(1.22513 0.364744 -4.59636e-23)
(1.2791 0.366821 2.66341e-22)
(1.12814 0.343302 4.97551e-25)
(1.17461 0.357116 1.05493e-23)
(1.04727 0.307975 1.50156e-22)
(1.08696 0.325996 -1.59694e-22)
(0.976393 0.26013 8.59939e-25)
(1.00928 0.288325 -5.30327e-24)
(0.918355 0.192141 7.20884e-25)
(0.949198 0.224879 4.277e-28)
(0.833116 0.137598 0)
(0.877549 0.166447 0)
(0.79422 0.0177967 3.69398e-28)
(0.801434 0.0899875 -3.90903e-28)
(0.852857 -0.158019 0)
(0.813545 -0.0696862 0)
(0.955859 -0.29282 5.70436e-25)
(0.903075 -0.233638 0)
(1.04818 -0.377948 0)
(1.00496 -0.338196 0)
(1.12243 -0.457525 -3.67704e-25)
(1.08619 -0.417452 0)
(1.19645 -0.500051 0)
(1.15885 -0.489606 0)
(1.26806 -0.38485 -1.31729e-24)
(1.23286 -0.470111 -6.37871e-28)
(1.32638 -0.0662747 9.98209e-24)
(1.3 -0.242913 0)
(1.33382 0.251865 0)
(1.3391 0.110641 4.53987e-25)
(1.27537 0.391902 9.15364e-22)
(1.31158 0.343066 2.44997e-24)
(1.23611 0.403695 1.54295e-22)
(1.08501 0.468267 -1.02582e-21)
(1.10371 0.430016 5.18312e-22)
(1.03503 0.523937 0)
(1.05963 0.500105 0)
(0.993089 0.552162 -9.8154e-26)
(1.012 0.541214 -1.98425e-28)
(0.970605 0.556157 -1.12954e-25)
(0.97883 0.557057 -2.16381e-28)
(0.972547 0.538536 -8.84077e-23)
(0.968476 0.549802 -3.85978e-28)
(0.994615 0.502658 -5.87307e-22)
(0.981433 0.522546 4.16362e-22)
(1.01046 0.479343 -9.38127e-23)
(1.06286 0.63451 1.12098e-26)
(0.944283 0.62313 -2.03831e-27)
(1.14361 0.62712 0)
(0.827316 0.523466 9.30303e-27)
(1.23809 0.597628 3.23939e-24)
(0.684958 0.324971 1.85393e-22)
(1.33789 0.539321 -1.9271e-23)
(0.556923 0.0701201 -3.91866e-23)
(1.42549 0.45974 -4.27719e-23)
(0.522596 -0.123811 0)
(1.45158 0.311579 6.62817e-22)
(1.48351 0.363034 0)
(0.686859 -0.127673 -1.04363e-21)
(0.910931 -0.08683 3.92404e-21)
(0.860406 -0.107794 2.2741e-21)
(1.40286 0.260148 -4.02604e-23)
(1.49486 0.261402 1.57215e-21)
(1.44208 0.220252 3.16832e-24)
(0.931505 -0.144545 -8.6692e-22)
(0.949847 -0.0770242 4.47256e-21)
(0.967482 -0.125996 2.85157e-21)
(1.05446 0.489223 0)
(1.07152 0.464105 6.8363e-22)
(1.01939 0.365384 1.16464e-22)
(1.06751 0.387583 -1.21708e-22)
(1.00628 0.639887 2.67524e-27)
(0.950472 0.272735 -2.12094e-22)
(0.993051 0.309999 -1.14617e-23)
(0.886451 0.141338 4.10745e-23)
(0.920403 0.207099 -1.15764e-22)
(0.854383 -0.0246501 -6.99056e-25)
(0.866719 0.0586377 5.70265e-28)
(0.879407 -0.158078 0)
(0.85946 -0.100212 0)
(0.952163 -0.21454 0)
(0.913345 -0.19345 0)
(1.02163 -0.250443 1.69982e-24)
(0.989499 -0.231045 0)
(1.08733 -0.284709 0)
(1.05318 -0.269933 0)
(1.16536 -0.301006 0)
(1.12563 -0.293879 0)
(1.25356 -0.309786 0)
(1.2076 -0.307235 0)
(1.35575 -0.291643 0)
(1.30391 -0.305475 0)
(1.44236 -0.210547 -1.49233e-24)
(1.40472 -0.262749 0)
(1.43364 -0.0185687 1.49431e-24)
(1.45617 -0.128322 -1.49546e-28)
(1.284 0.213275 0)
(1.37219 0.104113 0)
(1.09948 0.316272 4.83042e-25)
(1.18758 0.286268 -1.3649e-28)
(0.974963 0.288263 4.70384e-24)
(1.02783 0.312313 1.17611e-27)
(0.925281 0.213454 7.26702e-22)
(0.941272 0.253044 6.62356e-25)
(0.925963 0.128466 -3.7364e-22)
(0.921913 0.171703 -3.67463e-22)
(0.935337 0.029814 -2.23074e-21)
(0.931715 0.081513 1.54179e-21)
(0.940006 -0.0239142 -5.07849e-21)
(1.30684 0.307205 -2.66827e-23)
(1.35639 0.289065 5.92364e-24)
(1.21039 0.316606 -9.20424e-25)
(1.25774 0.316091 0)
(1.12434 0.30271 -4.91901e-25)
(1.16618 0.312089 -1.06829e-23)
(1.052 0.272326 0)
(1.08683 0.288913 0)
(0.985873 0.23122 1.4508e-25)
(1.01785 0.254228 0)
(0.936849 0.163821 0)
(0.959745 0.199927 0)
(0.875469 0.100186 0)
(0.909819 0.130269 0)
(0.822594 0.016308 -2.29608e-24)
(0.842092 0.0653422 0)
(0.852163 -0.118025 0)
(0.826168 -0.047358 0)
(0.942136 -0.243569 -1.51994e-24)
(0.893669 -0.185099 0)
(1.03543 -0.337347 -1.63445e-24)
(0.990461 -0.292857 0)
(1.11701 -0.419934 -1.08239e-24)
(1.07685 -0.379649 8.92219e-29)
(1.19808 -0.461763 -2.70544e-25)
(1.15723 -0.451322 -2.84644e-29)
(1.28132 -0.349464 -1.2879e-24)
(1.23888 -0.433089 0)
(1.35632 -0.0449987 0)
(1.32236 -0.212261 0)
(1.36362 0.23648 0)
(1.37107 0.115166 -4.54756e-25)
(1.29528 0.351124 -3.36973e-22)
(1.33563 0.313944 -2.4063e-24)
(1.25104 0.359863 2.91277e-22)
(1.08672 0.368186 0)
(1.09767 0.326123 2.11712e-21)
(1.05429 0.442475 5.67879e-22)
(1.07129 0.407719 -1.16237e-24)
(1.01387 0.499783 1.11579e-25)
(1.03339 0.473063 2.11403e-28)
(0.98252 0.539132 1.85668e-25)
(0.996215 0.521784 3.39177e-28)
(0.970495 0.558956 -3.99446e-28)
(0.9736 0.551633 4.0615e-28)
(0.982264 0.557507 -1.90883e-22)
(0.973469 0.560974 3.96015e-28)
(1.01441 0.5332 5.84638e-22)
(0.996111 0.548253 1.94518e-22)
(1.03464 0.512957 4.64602e-22)
(1.07027 0.636593 0)
(0.909619 0.576611 8.38563e-28)
(1.15769 0.612482 0)
(0.756719 0.406428 -6.22529e-26)
(1.25944 0.558029 -4.32959e-24)
(0.600786 0.149832 -2.26249e-25)
(1.36173 0.481395 1.41026e-23)
(0.498779 -0.107842 -4.91741e-25)
(1.45284 0.386943 5.22564e-23)
(0.563346 -0.210908 -3.66189e-24)
(1.51125 0.287757 0)
(0.770084 -0.154786 -8.76348e-22)
(1.46907 0.170056 6.21042e-22)
(1.51673 0.191383 -3.0694e-21)
(0.889127 -0.171297 5.47962e-23)
(0.993482 -0.168888 -3.05356e-21)
(0.962737 -0.19649 -3.14869e-21)
(1.07895 0.442669 -6.23981e-22)
(0.99027 0.619344 -7.36917e-27)
(1.03483 0.326446 -5.48617e-22)
(1.11695 0.41436 4.76877e-22)
(1.0737 0.370116 -6.26618e-22)
(0.962127 0.235325 4.0686e-23)
(1.00374 0.285918 5.06886e-22)
(0.89946 0.113286 -4.10215e-23)
(0.933503 0.181453 1.01965e-22)
(0.871138 -0.0288403 -2.05215e-22)
(0.881481 0.0447787 1.80632e-22)
(0.90165 -0.131297 -1.96298e-24)
(0.880142 -0.0862141 8.9272e-28)
(0.967598 -0.179958 -2.0272e-24)
(0.934676 -0.158679 -9.52801e-28)
(1.02575 -0.221125 3.11382e-25)
(0.998525 -0.200038 0)
(1.08801 -0.250061 0)
(1.05558 -0.238548 0)
(1.15897 -0.262809 -1.82242e-24)
(1.12326 -0.257267 0)
(1.23848 -0.264985 7.0243e-28)
(1.19718 -0.266116 -7.29328e-28)
(1.32923 -0.243813 5.3428e-28)
(1.28308 -0.257962 -5.54545e-28)
(1.41526 -0.179686 -3.73697e-28)
(1.37497 -0.21921 3.87738e-28)
(1.44429 -0.0432347 -1.80185e-24)
(1.44177 -0.121145 4.33403e-28)
(1.35909 0.136 2.65713e-24)
(1.41576 0.0474564 9.56479e-28)
(1.2137 0.243961 3.29416e-25)
(1.28666 0.204898 0)
(1.09849 0.247825 5.04196e-24)
(1.14987 0.255518 2.43472e-27)
(1.03105 0.198185 5.5604e-24)
(1.05949 0.227323 0)
(0.99434 0.120699 3.70108e-22)
(1.01012 0.162019 0)
(0.974105 0.0258883 1.4812e-21)
(0.981831 0.0747781 -1.64729e-21)
(0.981125 -0.0679199 0)
(0.974107 -0.0226151 1.3971e-22)
(1.01705 -0.144527 2.93003e-21)
(0.995988 -0.108605 -2.76035e-21)
(1.3543 0.221398 -2.01581e-23)
(1.40933 0.147854 -5.53674e-23)
(1.38587 0.18786 4.89534e-23)
(1.27643 0.262982 5.36774e-24)
(1.31676 0.246329 -3.32684e-25)
(1.19509 0.275483 0)
(1.2355 0.272546 0)
(1.12078 0.266833 -8.14954e-25)
(1.15708 0.273398 0)
(1.05586 0.241115 0)
(1.08707 0.255854 0)
(0.997199 0.203332 -1.00497e-24)
(1.02611 0.223809 0)
(0.95137 0.143684 0)
(0.971725 0.176944 0)
(0.912764 0.0720667 0)
(0.933572 0.107219 0)
(0.866167 0.00165893 -3.63474e-25)
(0.88827 0.0385285 0)
(0.863429 -0.0940375 0)
(0.856121 -0.0426373 0)
(0.923176 -0.200023 -2.25118e-27)
(0.887489 -0.147755 2.38336e-27)
(1.00801 -0.294502 1.63249e-24)
(0.964646 -0.248542 2.07419e-27)
(1.09492 -0.378766 2.86055e-24)
(1.05142 -0.338138 1.53189e-27)
(1.18375 -0.41956 -9.17981e-25)
(1.13861 -0.409992 0)
(1.28611 -0.304198 -9.71008e-25)
(1.23234 -0.388936 3.99626e-29)
(1.37788 -0.0198697 -1.12228e-27)
(1.33846 -0.172251 1.19012e-27)
(1.38003 0.218716 0)
(1.39202 0.11805 0)
(1.30405 0.307875 4.148e-23)
(1.34778 0.27951 -3.46341e-23)
(1.21232 0.309275 0)
(1.25655 0.315262 -2.11815e-24)
(1.17207 0.302075 0)
(1.05449 0.345399 0)
(1.07553 0.269754 6.1984e-23)
(1.0666 0.308052 -9.3935e-22)
(1.02269 0.414659 -3.43886e-23)
(1.03889 0.380473 1.4935e-23)
(0.987437 0.478182 -2.32709e-26)
(1.00408 0.447197 0)
(0.96362 0.530494 -8.76522e-26)
(0.973323 0.506154 0)
(0.961442 0.565606 0)
(0.95935 0.550652 0)
(0.985126 0.578331 2.87181e-26)
(0.970148 0.575103 0)
(1.02947 0.564256 0)
(1.00517 0.57474 0)
(1.08364 0.522159 0)
(1.05662 0.546443 3.75964e-22)
(1.12242 0.452122 0)
(1.10587 0.494532 -4.62162e-22)
(1.47826 0.111588 -1.04016e-21)
(1.41991 0.103045 0)
(1.02524 -0.205268 1.04687e-22)
(1.04369 -0.175082 1.15806e-22)
(1.05567 0.597491 2.45595e-25)
(0.847183 0.484268 0)
(1.14092 0.249283 0)
(1.14612 0.541821 7.50861e-25)
(0.668521 0.238578 4.10715e-26)
(1.12909 0.396872 5.29752e-22)
(1.15639 0.473169 0)
(1.16643 0.436766 0)
(1.2453 0.462146 2.58027e-24)
(0.520503 -0.0551615 4.53627e-25)
(1.34589 0.368573 0)
(0.486724 -0.259069 4.15949e-24)
(1.43681 0.273987 0)
(0.655043 -0.24522 0)
(1.50197 0.186624 0)
(0.828461 -0.201972 5.31431e-22)
(1.51199 0.109878 3.18578e-22)
(0.925484 -0.233945 8.1168e-23)
(1.41877 0.0587905 0)
(1.46971 0.0516741 4.53714e-22)
(1.00109 -0.24112 -6.10154e-22)
(1.06292 -0.234709 1.30356e-22)
(1.07463 -0.199202 -4.59865e-22)
(0.947474 0.554018 5.40334e-27)
(1.04538 0.298614 3.72283e-22)
(1.08419 0.339792 0)
(0.971387 0.20151 -1.23937e-22)
(1.00994 0.253339 -1.70059e-22)
(0.911551 0.0875157 0)
(0.940915 0.153132 1.16454e-22)
(0.891595 -0.0280104 0)
(0.895973 0.0332712 2.8413e-23)
(0.92676 -0.104724 1.96212e-24)
(0.904524 -0.069195 0)
(0.981124 -0.152107 4.29581e-24)
(0.955536 -0.128596 0)
(1.03022 -0.194424 2.4674e-25)
(1.0061 -0.174219 0)
(1.08822 -0.218248 -2.22425e-24)
(1.05839 -0.208867 -2.152e-27)
(1.15137 -0.22859 1.82043e-24)
(1.11961 -0.224445 2.06709e-27)
(1.22149 -0.225752 -2.06372e-24)
(1.1854 -0.229412 1.80095e-27)
(1.29825 -0.202249 -1.71751e-27)
(1.25947 -0.216966 1.65494e-27)
(1.37205 -0.146735 -2.03511e-24)
(1.33679 -0.179533 1.71379e-27)
(1.41168 -0.0454594 3.9613e-24)
(1.39916 -0.102055 0)
(1.37267 0.0865454 6.31936e-25)
(1.40337 0.0201661 2.79821e-27)
(1.26897 0.181984 -8.35009e-24)
(1.32461 0.143394 0)
(1.16492 0.20162 -5.03958e-24)
(1.21422 0.20036 -4.90822e-27)
(1.08546 0.167494 0)
(1.12203 0.189614 0)
(1.0304 0.100841 6.59083e-22)
(1.05476 0.137134 -6.91716e-22)
(1.0014 0.0192178 0)
(1.01186 0.0610298 -2.98578e-28)
(1.00412 -0.0593941 1.592e-22)
(0.998696 -0.0214418 -2.65511e-22)
(1.03359 -0.123663 1.45199e-21)
(1.01615 -0.0936667 -1.44824e-21)
(1.08156 -0.168215 0)
(1.05573 -0.148563 -1.1526e-22)
(1.35488 0.130399 7.06791e-23)
(1.36482 0.0607054 -9.25867e-23)
(1.36395 0.0953209 -2.06505e-22)
(1.3111 0.189463 1.70617e-22)
(1.33642 0.16227 -6.96311e-23)
(1.24804 0.226778 1.05671e-22)
(1.28131 0.211349 -2.7876e-22)
(1.18006 0.240555 -7.44609e-25)
(1.21422 0.236476 5.37185e-24)
(1.11556 0.234816 8.14956e-25)
(1.1472 0.239787 0)
(1.05771 0.213099 3.91543e-27)
(1.08564 0.225832 -4.1399e-27)
(1.0069 0.178207 -4.43473e-27)
(1.03172 0.197152 4.68986e-27)
(0.965151 0.126462 -1.2978e-24)
(0.984118 0.155153 0)
(0.93908 0.0562687 5.17299e-27)
(0.950955 0.0926154 -5.47288e-27)
(0.912734 -0.0145135 2.65412e-24)
(0.926595 0.0204297 5.74721e-27)
(0.897385 -0.0878325 0)
(0.901312 -0.0499693 0)
(0.923186 -0.169557 2.85638e-24)
(0.904651 -0.127904 -1.87967e-28)
(0.985829 -0.253785 -4.90892e-27)
(0.951073 -0.211459 5.19856e-27)
(1.06843 -0.334842 6.4098e-25)
(1.02531 -0.295536 0)
(1.16777 -0.36895 1.18856e-24)
(1.11512 -0.363852 0)
(1.29473 -0.246704 -1.13188e-24)
(1.22842 -0.332475 0)
(1.39281 0.00588026 1.35263e-28)
(1.35423 -0.124467 -1.43425e-28)
(1.38333 0.195117 0)
(1.40131 0.117424 0)
(1.30222 0.26344 1.73177e-22)
(1.34737 0.241647 8.7939e-23)
(1.21255 0.265387 -7.54212e-22)
(1.25575 0.269202 4.67306e-22)
(1.17424 0.257847 0)
(1.04738 0.25014 -2.51339e-22)
(1.05646 0.216148 1.37749e-21)
(1.0217 0.319168 0)
(1.03665 0.284669 2.46795e-22)
(0.987552 0.390795 3.02435e-26)
(1.00448 0.354401 0)
(0.954837 0.461793 -8.80663e-26)
(0.969792 0.426586 -4.57809e-28)
(0.937602 0.524231 0)
(0.94357 0.494735 0)
(0.945599 0.569935 0)
(0.937995 0.549733 0)
(0.982266 0.592781 -2.85495e-26)
(0.960572 0.584622 0)
(1.04092 0.58735 0)
(1.00963 0.593702 0)
(1.1086 0.549297 6.14625e-22)
(1.07441 0.572984 -3.63106e-22)
(1.1392 0.520607 -1.69718e-22)
(1.40548 0.0172926 0)
(1.35684 0.0286079 1.80594e-22)
(1.10893 -0.216909 5.16663e-22)
(1.1101 -0.181934 2.96295e-23)
(1.01391 0.494169 3.0185e-26)
(0.761809 0.333 3.46484e-26)
(1.12622 0.345361 -1.01955e-21)
(1.1708 0.39651 1.07818e-22)
(1.09651 0.40748 -8.29875e-24)
(0.57494 0.0258247 0)
(1.18858 0.307175 -2.31021e-23)
(0.464911 -0.257052 -6.36267e-25)
(1.28304 0.212967 0)
(0.542232 -0.344777 0)
(1.37689 0.138879 -2.70586e-22)
(0.75604 -0.265228 1.5638e-23)
(1.45826 0.0797195 0)
(0.867094 -0.272589 3.30775e-22)
(1.48333 0.0315504 1.12613e-21)
(0.973 -0.285805 0)
(1.44688 -0.00167028 2.59008e-22)
(1.04618 -0.278588 5.04362e-22)
(1.34186 0.00237696 -7.44549e-22)
(1.38365 -0.0156462 6.69226e-22)
(1.10456 -0.256815 -1.83649e-22)