/*--------------------------------*- C++ -*----------------------------------*\
  =========                 |
  \\      /  F ield         | OpenFOAM: The Open Source CFD Toolbox
   \\    /   O peration     | Website:  https://openfoam.org
    \\  /    A nd           | Version:  10
     \\/     M anipulation  |
\*---------------------------------------------------------------------------*/
FoamFile
{
    format      ascii;
    class       volVectorField;
    location    "92";
    object      U;
}
// * * * * * * * * * * * * * * * * * * * * * * * * * * * * * * * * * * * * * //

dimensions      [0 1 -1 0 0 0 0];

internalField   nonuniform List<vector> 
28942
(
(0.0044275 -0.00225557 -3.38527e-22)
(0.00599291 -0.0023385 -6.27845e-23)
(0.0179331 -0.0123844 -8.31964e-22)
(0.103306 0.0182353 -5.27224e-21)
(0.102344 0.0222778 1.72609e-21)
(0.0133487 0.000401945 0)
(0.0158575 -1.02267e-05 9.73873e-24)
(0.0184075 0.000518413 -8.57139e-24)
(0.135234 -0.018448 -2.57765e-22)
(0.133891 -0.0168142 7.33404e-22)
(0.00979253 0.00401483 -6.63071e-22)
(0.0160641 0.00562799 2.50632e-22)
(0.00713573 0.00315241 0)
(0.00470641 0.00206988 0)
(0.0419768 0.00190236 -1.37262e-23)
(0.0402559 0.00243061 -5.60434e-24)
(0.0893152 0.0158895 6.69487e-22)
(0.0870032 0.013858 1.07737e-21)
(0.0121629 -0.0151103 2.93009e-21)
(0.0293268 -0.030463 -7.71216e-22)
(0.0981162 0.0374015 9.55166e-22)
(0.0972951 0.0344372 0)
(0.018735 0.00462543 1.1562e-21)
(0.00786175 0.00236281 5.44523e-22)
(0.0377896 0.00720884 9.32719e-22)
(0.0575196 0.00291043 -8.503e-22)
(0.00764708 -0.0184876 8.52353e-21)
(0.00669319 -0.0165524 -3.1389e-21)
(0.0355044 -0.0253192 5.76712e-22)
(0.0192975 -0.01368 1.99135e-22)
(0.0137079 -0.00125227 0)
(0.017136 -0.00107261 -1.24639e-23)
(0.0217984 0.00398921 2.62237e-22)
(0.0314826 0.00181304 -3.955e-23)
(0.0188246 0.0180093 1.3182e-21)
(0.0157194 0.0191194 -1.31088e-21)
(0.0321683 0.0376175 -3.05993e-21)
(0.0186685 0.0305362 -1.07024e-21)
(0.00730056 -2.19476e-05 -8.10809e-24)
(0.00864859 0.0161972 -2.61966e-21)
(0.0306494 -0.00620317 0)
(0.0513427 -0.0109694 0)
(0.111776 -0.0116803 -2.74177e-23)
(0.111267 -0.0116778 8.08347e-23)
(0.115836 -0.0115735 7.04482e-23)
(0.0259925 0.000155894 1.04376e-23)
(0.0241957 -0.000592225 -1.67403e-23)
(0.0346536 -0.000480059 -7.70236e-23)
(0.0331956 -0.000549027 2.19832e-23)
(0.0269363 -0.0025539 -1.92531e-22)
(0.0199906 -0.00304263 1.2531e-22)
(0.128659 0.00128492 -4.04189e-22)
(0.127973 0.000813973 -3.77475e-22)
(0.134552 -0.0212138 -3.7695e-24)
(0.133006 -0.0194879 1.39956e-22)
(0.0824683 0.00634907 7.07215e-22)
(0.10172 -0.000770793 2.44084e-22)
(0.00305767 0.00162036 -5.58658e-22)
(0.00894026 0.00367852 0)
(0.00825498 0.00328804 2.34892e-22)
(0.00288176 0.00148765 4.81991e-22)
(0.000362092 0.000226172 -4.00901e-22)
(0.000192809 0.000122634 -3.84865e-22)
(0.109754 -0.0426053 0)
(0.104884 -0.0256117 1.23714e-22)
(0.121754 -0.0331176 -4.20272e-23)
(0.123403 -0.0437705 0)
(0.0901038 -0.0328029 -6.40234e-22)
(0.0936075 -0.0352701 -4.20839e-22)
(0.00188422 -0.00112907 1.11911e-21)
(0.00248765 -0.00201666 -3.52656e-22)
(0.0048711 -0.00315471 8.74925e-22)
(0.0848722 -0.0457588 0)
(0.0911986 -0.0396233 2.17357e-21)
(0.0805405 -0.0530238 5.87366e-22)
(0.114115 0.0124107 2.31896e-22)
(0.112712 0.00690952 -2.57278e-22)
(0.125082 0.0110162 -1.07727e-22)
(0.00468299 -0.00286162 -5.38799e-23)
(0.00633796 -0.0044255 4.52938e-22)
(0.0510036 -0.0311445 1.27966e-22)
(0.0331512 -0.0205349 -2.5825e-22)
(0.00211024 -0.000595577 3.18705e-21)
(0.00515562 -0.00207174 -1.24204e-21)
(0.100976 0.0482493 1.47738e-23)
(0.0970259 0.0552168 -7.69266e-22)
(0.0807183 0.0540128 7.02409e-22)
(0.047203 0.0345098 -2.6952e-21)
(0.0444312 0.0316056 1.9088e-21)
(0.0294907 0.0205949 -1.14245e-22)
(0.0327113 0.0232477 -6.4398e-22)
(0.0379522 0.0283575 8.73298e-22)
(0.00440732 0.00272984 -5.78057e-23)
(0.00775916 0.00398117 -1.67076e-23)
(0.00318796 0.00202211 3.34802e-23)
(0.0019231 0.00164656 -4.47409e-22)
(0.00144998 0.00157093 5.48374e-22)
(0.0157417 0.0115433 -3.2679e-21)
(0.0174945 0.0136352 7.48735e-22)
(0.00880258 -0.00384583 0)
(0.101389 0.00515938 0)
(0.0984003 0.0156832 -3.96585e-21)
(0.0604415 0.0104756 1.94742e-21)
(0.0886813 0.0178811 0)
(0.135444 -0.00107152 0)
(0.134882 -0.00178476 0)
(0.133187 -0.00227963 -2.60781e-22)
(0.114973 0.0266153 -2.12937e-22)
(0.114065 0.0280178 2.10486e-21)
(0.113267 0.0254775 1.12948e-21)
(0.00229343 0.00129914 1.04087e-21)
(0.0015111 0.000777296 -1.16827e-21)
(0.0190422 -0.00553204 -5.43688e-22)
(0.0201209 -0.00506002 4.6346e-22)
(0.00909529 -0.0029254 9.16087e-22)
(0.00647655 0.0111507 1.48085e-21)
(0.0189675 0.0181626 3.46214e-21)
(0.0134648 0.0228015 2.72178e-22)
(0.00492077 0.0143072 -8.63508e-21)
(0.11698 0.047755 5.59712e-23)
(0.107859 0.058244 1.07517e-21)
(0.118318 0.0548829 -1.85427e-21)
(0.0390834 -0.0294123 7.33928e-22)
(0.0240045 -0.0172617 -4.69843e-22)
(0.00532072 -0.000740145 -4.10848e-21)
(0.00453781 -0.00359013 0)
(0.0124953 -0.0016695 2.00588e-21)
(0.0219599 -0.0161273 7.80685e-22)
(0.0342485 -0.027779 -1.9621e-21)
(0.0327574 -3.54185e-05 5.29998e-23)
(0.0348463 0.000119502 -3.91509e-23)
(0.0307484 0.000138167 -1.6394e-24)
(0.02805 -0.0419401 0)
(0.0295995 -0.0428312 0)
(0.0896237 -0.0186527 -4.64386e-22)
(0.0995916 -0.0220903 3.15435e-21)
(0.0870347 -0.0252785 0)
(0.0471083 -0.0401806 0)
(0.0581674 -0.051375 -7.85556e-22)
(0.0413101 0.0393376 2.08978e-21)
(-2.26988e-06 0.000214518 5.05726e-22)
(-0.000194142 0.000130974 -3.3269e-22)
(0.0223223 -0.0192368 -7.93572e-22)
(0.120262 -0.0114449 3.97468e-22)
(0.119626 -0.0113889 -7.68695e-23)
(0.11541 -0.00572788 -6.48785e-23)
(0.108336 0.00097493 8.64597e-23)
(0.117601 -0.000327219 1.72526e-22)
(8.22549e-05 0.000259039 1.95491e-22)
(0.0437417 0.0344178 3.21463e-21)
(0.0618695 0.0463073 -7.90865e-22)
(0.0593033 0.0393631 -3.04176e-24)
(0.0213511 -0.000786389 5.26584e-24)
(0.0210355 -0.000763515 2.72811e-23)
(0.0228323 -0.000533817 9.91481e-25)
(0.0255039 -0.000555772 -1.3466e-23)
(0.0454164 0.038089 1.33759e-22)
(0.0189604 0.0160583 0)
(0.000137955 -2.71174e-05 3.62768e-22)
(0.000420807 -0.000254721 -4.02484e-22)
(0.00185759 -0.00100694 2.80442e-22)
(0.0365434 -0.00771645 -1.83001e-21)
(0.0648497 -0.0020973 -7.45313e-22)
(0.0296859 -0.000174576 -2.13219e-24)
(0.0744627 -0.00764409 2.69697e-22)
(0.0706754 -0.0157263 5.63104e-23)
(0.0943028 0.0399237 2.14917e-21)
(0.0914033 0.0454591 9.92837e-23)
(0.0887478 0.0290902 1.21861e-21)
(0.0914731 0.0308071 -8.83112e-22)
(0.0986947 0.0410851 0)
(0.12612 -0.000309339 1.50354e-22)
(0.126891 -0.000741878 2.84099e-22)
(0.128093 -0.0123554 -2.97336e-22)
(0.129557 -0.0121612 5.09012e-22)
(0.117054 0.0241602 2.61234e-22)
(0.119112 0.0250618 -7.39845e-22)
(0.1171 0.0261724 0)
(0.115134 0.0249092 1.53935e-22)
(0.116671 0.0280944 0)
(0.117172 0.0361152 -5.53721e-22)
(0.115709 0.0381664 -3.02201e-22)
(0.111335 0.0419778 -5.42773e-22)
(0.113729 0.0401107 0)
(0.116418 0.0430863 1.79642e-21)
(0.113695 0.0450082 4.73861e-23)
(0.108329 0.0441881 -3.0478e-22)
(0.0996265 0.0502894 -1.29163e-21)
(0.0984175 0.045501 -2.27509e-22)
(0.0249403 -0.00846345 5.65309e-23)
(0.0327926 -0.00931953 -2.25417e-23)
(0.00627944 -0.00248482 -6.84637e-22)
(0.0290948 -9.5497e-05 -3.33952e-23)
(0.0373559 -0.000273896 0)
(-3.18508e-06 -3.97637e-05 4.26913e-22)
(1.30128e-05 -4.71306e-05 2.17533e-22)
(0.0337763 -0.00175147 1.60488e-23)
(0.0399771 -0.00170449 6.66201e-24)
(0.0395449 -0.00117831 0)
(0.0326594 -0.000816321 7.06558e-24)
(0.0853116 0.00331141 -1.09386e-22)
(0.0845395 0.00299535 5.16795e-22)
(0.0853948 0.00307464 2.39348e-22)
(0.000670528 0.000271915 3.8839e-22)
(-0.000159407 -0.000129272 -5.63364e-22)
(-0.000201055 -0.000169013 4.79687e-22)
(0.00149967 0.000617161 0)
(7.98433e-05 8.77269e-05 1.1313e-21)
(0.000171822 -3.9023e-05 -8.14642e-22)
(0.0074459 0.00367235 -9.84886e-22)
(0.00145109 0.00078102 -1.17801e-21)
(0.00171998 0.000860341 0)
(0.00157197 0.00754436 0)
(0.000576938 0.00328137 0)
(0.000313305 0.00197697 0)
(0.13662 -0.00108218 5.7564e-23)
(0.137634 -0.000916152 0)
(0.135992 -0.00186608 -6.70569e-23)
(0.0881098 -0.0148525 4.43581e-21)
(0.0901166 -0.015262 -1.61021e-21)
(0.0890321 -0.0128772 0)
(0.0955315 0.000366675 -6.39892e-24)
(0.0960796 0.000360279 1.28069e-23)
(0.0949808 0.000372345 -4.3298e-24)
(0.0966221 0.000355332 0)
(0.0971627 0.000358091 -8.16533e-24)
(0.0976968 0.000355502 0)
(0.0976892 -0.000210947 0)
(0.0982221 0.000342032 3.03018e-23)
(0.0982089 -0.000227726 0)
(0.0971615 -0.000205825 -8.22312e-24)
(0.0966209 -0.000206055 0)
(0.0960772 -0.000205669 4.28216e-24)
(0.0955263 -0.000209413 -6.39657e-24)
(0.0949771 -0.000212443 4.32439e-24)
(0.0987343 0.000326812 -2.89964e-23)
(0.0987264 -0.00023903 -1.01375e-24)
(0.0944208 0.000383007 5.16801e-29)
(0.0944118 -0.000209692 -6.60979e-24)
(0.0938502 0.000391562 3.51582e-23)
(0.0992391 0.000317476 2.70885e-26)
(0.0992472 -0.000243071 -1.01434e-24)
(0.093844 -0.000214742 1.3028e-23)
(0.0997457 0.000306963 2.7276e-23)
(0.100249 0.000298456 -2.72535e-23)
(0.0997583 -0.000248111 2.04271e-24)
(0.100264 -0.000251807 4.03681e-24)
(0.0932957 0.000410191 -3.42072e-23)
(0.0932818 -0.000218332 -8.57564e-24)
(0.100748 0.00028832 0)
(0.100764 -0.000256712 -3.98165e-24)
(0.0927183 0.000419236 4.23249e-27)
(0.0927053 -0.000217036 -4.2431e-27)
(0.101243 0.000279981 0)
(0.10126 -0.000260433 0)
(0.0921343 0.000424854 0)
(0.0921211 -0.000219275 0)
(0.101734 0.000269812 0)
(0.101752 -0.000265487 1.91221e-24)
(0.0915441 0.000430391 -1.77583e-23)
(0.0915301 -0.000220725 -4.33376e-27)
(0.102221 0.000261403 1.00233e-25)
(0.102239 -0.000269294 -2.04224e-24)
(0.0909472 0.000434022 1.78432e-23)
(0.0909328 -0.00022383 0)
(0.102704 0.00025107 0)
(0.102723 -0.000274311 0)
(0.0903442 0.000438084 -1.12912e-24)
(0.0903291 -0.000224958 1.938e-23)
(0.103184 0.00024252 1.23911e-23)
(0.103202 -0.00027773 0)
(0.0897355 0.000440387 -1.01264e-25)
(0.0897191 -0.00022628 -1.83429e-23)
(0.103659 0.0002322 -1.85334e-23)
(0.103679 -0.000282236 -5.37836e-24)
(0.0891072 0.000436391 1.87034e-23)
(0.0890938 -0.000228136 0)
(0.104133 0.000224684 6.10406e-24)
(0.104153 -0.000281867 3.58691e-24)
(0.0884751 0.00043874 -9.46889e-24)
(0.088462 -0.000232743 1.91999e-23)
(0.1046 0.000219147 -2.43735e-23)
(0.104628 -0.000275449 2.74712e-23)
(0.0878119 0.000426692 9.76174e-24)
(0.0878078 -0.000243002 3.08967e-25)
(0.105072 0.000215731 0)
(0.105097 -0.000269728 1.30893e-23)
(0.08714 0.000414875 -1.96384e-23)
(0.0871432 -0.000260229 3.92844e-23)
(0.105558 0.00020389 0)
(0.105567 -0.000269739 0)
(0.0881135 0.00109151 -9.65917e-24)
(0.0874357 0.00108845 -3.90995e-23)
(0.0864438 0.000396776 0)
(0.086464 -0.000288762 -2.00165e-23)
(0.0894173 0.0010885 -6.06357e-24)
(0.0887694 0.00109088 1.19092e-24)
(0.09065 0.00107062 0)
(0.0900326 0.00107908 -1.95826e-23)
(0.0918441 0.00104882 -3.77962e-26)
(0.0912509 0.00106026 0)
(0.0930089 0.00102323 0)
(0.0924299 0.00103644 0)
(0.0941468 0.000990655 0)
(0.0935816 0.00100851 0)
(0.0952378 0.000955769 8.54877e-24)
(0.0946892 0.000972284 2.15567e-24)
(0.0963241 0.000930877 -8.2439e-24)
(0.0957874 0.0009433 -8.53709e-24)
(0.0973876 0.000909176 1.46336e-23)
(0.0968522 0.000914627 1.86925e-23)
(0.0984502 0.000890274 0)
(0.0979214 0.000902559 0)
(0.0994737 0.000867743 -6.42425e-26)
(0.0989657 0.000878983 0)
(0.100476 0.000842224 0)
(0.0999769 0.000855208 0)
(0.10146 0.000815265 0)
(0.10097 0.000828766 0)
(0.102429 0.000787868 0)
(0.101946 0.000801521 0)
(0.103382 0.000760488 0)
(0.102907 0.000774079 0)
(0.10432 0.000733413 0)
(0.103853 0.000746862 0)
(0.105249 0.000691276 -9.95813e-24)
(0.104784 0.000718813 0)
(0.105716 0.000668556 -3.21528e-24)
(0.106035 0.000188021 3.13938e-24)
(0.106042 -0.00027399 -3.11326e-24)
(0.104799 -0.000740854 0)
(0.10573 -0.000733921 -1.27752e-23)
(0.105265 -0.000736021 -6.58302e-24)
(0.103858 -0.000750223 1.80256e-24)
(0.104329 -0.000746616 -7.0525e-24)
(0.102909 -0.000752586 5.83797e-26)
(0.103385 -0.000752613 0)
(0.101945 -0.000751678 0)
(0.102429 -0.000752021 0)
(0.100963 -0.000751818 0)
(0.101456 -0.000751487 0)
(0.0999637 -0.000753924 0)
(0.100466 -0.000752498 7.6884e-30)
(0.0989447 -0.000759239 6.48991e-26)
(0.0994565 -0.000756016 0)
(0.0979103 -0.000760848 0)
(0.0984272 -0.000761142 0)
(0.0968497 -0.000763363 0)
(0.097381 -0.000761158 0)
(0.0957674 -0.00077366 0)
(0.0963098 -0.000765714 -4.32793e-24)
(0.0946617 -0.000791802 1.13912e-24)
(0.0952167 -0.000785387 -5.58497e-24)
(0.0935442 -0.000814079 0)
(0.0941098 -0.00080127 -4.54437e-24)
(0.0923908 -0.000832816 0)
(0.0929711 -0.000823432 0)
(0.0912085 -0.000852321 0)
(0.0918034 -0.000842428 0)
(0.0899922 -0.00087111 0)
(0.0906057 -0.000861864 0)
(0.0887358 -0.00089089 -4.96044e-24)
(0.0893704 -0.000879593 0)
(0.0874433 -0.000929674 -2.0099e-23)
(0.0880941 -0.000905113 -4.98631e-24)
(0.086774 -0.000959307 2.04631e-23)
(0.086743 0.00108685 3.87712e-23)
(0.106186 0.000649261 6.29443e-24)
(0.106197 -0.000732271 -1.22938e-23)
(0.0857623 -0.000328169 0)
(0.0860955 -0.00100326 0)
(0.0860363 0.0010849 0)
(0.0857324 0.000371335 0)
(0.0887056 0.00174256 0)
(0.0873715 0.00177256 9.70856e-24)
(0.0880441 0.00175564 9.80019e-24)
(0.0899909 0.00171145 1.2452e-23)
(0.0893552 0.00172797 -2.48912e-24)
(0.0912022 0.00167253 3.84871e-26)
(0.0906026 0.00169184 0)
(0.0923778 0.00163361 0)
(0.0917939 0.00165321 0)
(0.0935237 0.00159395 0)
(0.0929542 0.00161386 0)
(0.0946443 0.00155612 0)
(0.0940867 0.00157409 0)
(0.0957336 0.0015166 0)
(0.0951923 0.00153688 0)
(0.0968013 0.0014812 -3.45458e-26)
(0.0962667 0.00149962 8.91287e-24)
(0.0978374 0.00144373 -3.31407e-26)
(0.0973249 0.00146174 -1.7384e-23)
(0.0988712 0.0014049 0)
(0.0983554 0.00142336 0)
(0.0998788 0.00136945 3.20771e-26)
(0.099378 0.00138697 0)
(0.100866 0.0013342 0)
(0.100375 0.00135185 0)
(0.101835 0.00129873 0)
(0.101352 0.00131646 0)
(0.102788 0.00126336 0)
(0.102313 0.001281 0)
(0.103725 0.00122838 0)
(0.103259 0.0012458 0)
(0.104648 0.00119291 0)
(0.104188 0.00121094 0)
(0.105561 0.00114536 6.80164e-24)
(0.105105 0.00117133 0)
(0.10651 0.000176667 0)
(0.106651 0.000630443 6.15354e-24)
(0.106476 0.00109778 0)
(0.106018 0.00112112 6.62556e-24)
(0.10604 -0.0011908 1.31811e-23)
(0.106496 -0.00118553 3.23694e-24)
(0.106664 -0.000734817 2.52704e-23)
(0.106514 -0.000275866 0)
(0.105123 -0.00120451 0)
(0.105581 -0.0011973 -1.99012e-23)
(0.104198 -0.00121749 5.67131e-26)
(0.104661 -0.00121009 7.09538e-24)
(0.103262 -0.00122577 -5.83795e-26)
(0.103731 -0.00122199 0)
(0.102311 -0.00123316 0)
(0.102788 -0.00122936 0)
(0.101343 -0.00124208 0)
(0.101829 -0.00123735 0)
(0.100358 -0.0012535 0)
(0.100853 -0.00124741 -7.68838e-30)
(0.0993548 -0.00126804 -1.29719e-25)
(0.0998586 -0.00126038 0)
(0.0983349 -0.00128393 0)
(0.0988469 -0.00127595 0)
(0.0972898 -0.00130231 2.18351e-24)
(0.0978157 -0.00129243 0)
(0.0962268 -0.00132305 0)
(0.0967592 -0.00131044 -2.1744e-24)
(0.09514 -0.00135144 4.55382e-24)
(0.095683 -0.00133691 4.52558e-24)
(0.0940292 -0.00137979 0)
(0.0945889 -0.00136559 0)
(0.0928909 -0.00141203 0)
(0.0934634 -0.00139554 0)
(0.0917241 -0.00144698 0)
(0.0923112 -0.00142916 0)
(0.0905252 -0.00148482 0)
(0.0911289 -0.00146544 0)
(0.0892906 -0.00152716 7.93471e-26)
(0.0899127 -0.00150534 0)
(0.0880169 -0.00157686 -8.04687e-26)
(0.0886598 -0.0015512 0)
(0.0867074 -0.00165863 -2.10481e-23)
(0.0873659 -0.00161424 2.10385e-23)
(0.0866831 0.00178967 1.97611e-23)
(0.0854105 -0.0010585 0)
(0.0860407 -0.00171536 -4.28143e-23)
(0.0850577 -0.000374449 0)
(0.106933 0.00108022 0)
(0.106955 -0.00118058 -3.13901e-24)
(0.085322 0.00108275 5.00465e-23)
(0.0859873 0.00180755 2.00209e-23)
(0.0847085 -0.00111648 1.08238e-23)
(0.0853626 -0.00177963 5.41063e-23)
(0.0850071 0.000341587 0)
(0.106906 0.00154188 2.58902e-23)
(0.107348 0.00151853 -1.27852e-23)
(0.107124 -0.000734206 -6.21826e-24)
(0.107407 -0.00117364 3.0914e-23)
(0.0869897 0.00250535 7.02338e-23)
(0.0852706 0.00182486 -3.94341e-23)
(0.0855869 0.00256194 -1.76328e-22)
(0.0862854 0.00253068 -4.01274e-23)
(0.0883142 0.00243785 1.95405e-23)
(0.0876588 0.00247279 -5.97483e-23)
(0.0895834 0.00237356 -1.99789e-23)
(0.0889563 0.0024054 -1.50756e-23)
(0.0908203 0.00231638 -4.97905e-24)
(0.0902094 0.0023458 -4.98373e-24)
(0.0920043 0.00226153 -3.84871e-26)
(0.0914191 0.00228919 0)
(0.0931511 0.00220657 0)
(0.0925815 0.00223392 0)
(0.0942686 0.00215291 0)
(0.0937133 0.00217958 0)
(0.0953601 0.00210142 0)
(0.0948174 0.00212674 0)
(0.0964258 0.00205222 0)
(0.0958959 0.00207622 0)
(0.0974669 0.00200323 0)
(0.0969487 0.00202735 0)
(0.0984857 0.00195587 6.07616e-29)
(0.0979798 0.00198044 0)
(0.0994871 0.00190753 0)
(0.0989881 0.00193118 0)
(0.10047 0.00186163 3.19973e-26)
(0.099981 0.00188438 0)
(0.101434 0.00181692 0)
(0.100954 0.00183917 0)
(0.102381 0.00177295 0)
(0.10191 0.00179485 0)
(0.103312 0.00172967 0)
(0.102848 0.00175123 0)
(0.104228 0.00168706 0)
(0.103772 0.0017083 0)
(0.105129 0.0016438 0)
(0.10468 0.00166578 0)
(0.106019 0.00159305 3.46254e-24)
(0.105575 0.0016192 -1.74281e-24)
(0.106463 0.00156768 -1.32101e-23)
(0.106974 0.000169297 -2.9474e-24)
(0.107386 0.00106208 1.23187e-23)
(0.107111 0.000617925 -9.42341e-24)
(0.106977 -0.000285447 0)
(0.10649 -0.00163815 -9.80914e-24)
(0.107376 -0.00161645 -2.82941e-23)
(0.106934 -0.00162785 2.2789e-23)
(0.105599 -0.00166126 0)
(0.106045 -0.00164891 0)
(0.104693 -0.00167549 -8.77407e-29)
(0.105146 -0.0016669 0)
(0.103777 -0.00169084 0)
(0.104236 -0.00168332 0)
(0.102846 -0.00170631 -5.98484e-26)
(0.103313 -0.00169842 0)
(0.101899 -0.00172373 0)
(0.102374 -0.00171472 0)
(0.100935 -0.00174389 0)
(0.101419 -0.00173344 0)
(0.0999532 -0.00176718 6.48291e-26)
(0.100446 -0.00175515 0)
(0.0989537 -0.00179325 6.63706e-26)
(0.0994558 -0.00177987 0)
(0.0979334 -0.00182307 0)
(0.098446 -0.00180755 0)
(0.0968923 -0.00185662 0)
(0.0974159 -0.00183959 0)
(0.0958286 -0.00189479 0)
(0.0963625 -0.00187474 0)
(0.0947407 -0.00193551 0)
(0.095288 -0.00191457 0)
(0.0936269 -0.00198124 -7.44951e-26)
(0.0941871 -0.00195783 0)
(0.092485 -0.00203124 0)
(0.0930596 -0.00200571 0)
(0.0913121 -0.00208588 0)
(0.0919026 -0.00205792 0)
(0.0901053 -0.00214639 -1.17388e-28)
(0.0907131 -0.00211533 0)
(0.0888625 -0.00221416 1.3425e-28)
(0.0894887 -0.0021794 0)
(0.0875861 -0.00229843 8.31629e-26)
(0.0882254 -0.00225183 0)
(0.0862823 -0.00241676 -4.3756e-23)
(0.0869368 -0.00235248 1.07548e-23)
(0.0846722 -0.00184414 1.10102e-23)
(0.0856298 -0.00248841 2.18718e-23)
(0.0845954 0.00107424 -1.95936e-23)
(0.0843348 -0.000424276 -2.09722e-23)
(0.107789 0.00149594 3.12839e-24)
(0.107821 -0.00161055 2.22339e-23)
(0.0845178 0.00182245 2.47277e-24)
(0.0839953 -0.00118127 0)
(0.0846439 0.0024758 2.70302e-22)
(0.0849699 -0.00256268 3.3639e-23)
(0.0839858 -0.00191331 4.48927e-23)
(0.0863311 0.00342912 -4.44983e-22)
(0.0860948 0.00357334 8.16105e-23)
(0.0842858 0.000314079 0)
(0.0870732 0.00326742 4.51264e-23)
(0.0865954 0.00337042 2.30471e-23)
(0.0882773 0.00316191 4.07208e-23)
(0.0876383 0.00320458 -6.21031e-23)
(0.0895335 0.00306908 -2.02348e-23)
(0.0889169 0.0031172 -1.01037e-23)
(0.0907357 0.00298435 1.01375e-23)
(0.0901392 0.00302539 1.02729e-23)
(0.0919081 0.00290549 0)
(0.0913234 0.00294326 -1.96253e-26)
(0.0930446 0.00283282 0)
(0.0924804 0.00286903 0)
(0.094152 0.00276266 3.7577e-26)
(0.0936018 0.00279734 0)
(0.0952324 0.00269554 0)
(0.0946954 0.00272876 0)
(0.0962879 0.00263136 0)
(0.0957632 0.00266307 0)
(0.0973195 0.00256991 0)
(0.0968066 0.00260028 0)
(0.0983284 0.00251014 3.43702e-26)
(0.0978265 0.00253969 0)
(0.0993163 0.00245211 6.5098e-29)
(0.0988251 0.00248132 0)
(0.100286 0.00239502 0)
(0.0998031 0.00242321 0)
(0.101238 0.00234001 -6.39351e-26)
(0.100764 0.00236732 0)
(0.102172 0.00228657 0)
(0.101707 0.00231312 0)
(0.103091 0.00223444 0)
(0.102634 0.00226036 0)
(0.103993 0.00218346 0)
(0.103544 0.00220882 0)
(0.104881 0.00213342 0)
(0.104439 0.00215836 0)
(0.105756 0.00208305 0)
(0.10532 0.00210847 0)
(0.106619 0.00203123 -1.72917e-24)
(0.106188 0.00205623 0)
(0.107473 0.00197533 0)
(0.107046 0.00200335 -3.34935e-24)
(0.108319 0.00191797 -3.127e-27)
(0.107899 0.00194731 0)
(0.107832 0.001045 -1.24898e-23)
(0.108749 0.00189594 7.51782e-25)
(0.108232 0.00147758 6.11208e-24)
(0.107427 0.000158149 4.49648e-24)
(0.107563 0.000603973 -3.10347e-24)
(0.107578 -0.000733522 -1.56345e-24)
(0.107433 -0.00028992 1.55945e-24)
(0.108261 -0.00160476 0)
(0.107856 -0.00117345 -1.41663e-23)
(0.107934 -0.00204835 -6.35768e-24)
(0.108791 -0.00202922 -1.2172e-23)
(0.108363 -0.00203848 2.7952e-23)
(0.10708 -0.00207581 -3.33751e-24)
(0.107508 -0.00206193 0)
(0.106214 -0.00210069 0)
(0.106648 -0.00208771 0)
(0.105337 -0.00212234 -1.08976e-28)
(0.105777 -0.00211173 0)
(0.104447 -0.00214451 0)
(0.104894 -0.00213338 0)
(0.103542 -0.00216778 5.98484e-26)
(0.103996 -0.00215593 0)
(0.102622 -0.0021934 0)
(0.103084 -0.00218026 0)
(0.101685 -0.00222207 0)
(0.102156 -0.00220734 0)
(0.100732 -0.00225416 0)
(0.101211 -0.00223769 0)
(0.0997603 -0.00228988 -1.21403e-28)
(0.100248 -0.00227155 0)
(0.0987693 -0.00232992 0)
(0.0992672 -0.00230932 0)
(0.0977581 -0.00237431 0)
(0.0982664 -0.00235165 0)
(0.0967252 -0.00242355 0)
(0.0972442 -0.00239822 0)
(0.0956692 -0.00247706 0)
(0.0962002 -0.00244969 0)
(0.0945881 -0.00253602 7.44951e-26)
(0.0951318 -0.00250587 0)
(0.0934802 -0.00260046 0)
(0.0940376 -0.00256755 0)
(0.0923431 -0.00267094 0)
(0.0929154 -0.0026349 0)
(0.0911745 -0.00274858 -7.92221e-26)
(0.0917628 -0.0027088 0)
(0.0899728 -0.00283425 8.07381e-26)
(0.0905779 -0.00279044 0)
(0.0887365 -0.00292955 -8.22233e-26)
(0.0893587 -0.00288047 0)
(0.0874763 -0.00304231 1.08091e-23)
(0.0881048 -0.00298133 -2.13209e-23)
(0.0862169 -0.00318785 -1.08891e-23)
(0.086844 -0.00310999 2.21392e-23)
(0.0842969 -0.00263385 3.19769e-25)
(0.0855754 -0.00326611 2.2354e-23)
(0.0838496 0.00104806 -2.0096e-23)
(0.0836077 -0.000464349 0)
(0.0837459 0.00177152 -1.94402e-22)
(0.0832731 -0.00123071 0)
(0.108982 0.00233412 -3.11895e-24)
(0.109384 0.00230248 2.2848e-24)
(0.108696 -0.00159997 -1.19676e-23)
(0.109212 -0.00201475 -1.35383e-23)
(0.0837123 0.00242105 -1.89101e-22)
(0.0832889 -0.00197832 -4.53319e-23)
(0.0852069 0.00356299 0)
(0.0877748 0.00408058 -5.15611e-23)
(0.0836229 -0.00270569 -2.22557e-23)
(0.0849243 -0.00334238 3.38308e-23)
(0.0872164 0.00407621 1.03507e-22)
(0.083551 0.000284247 0)
(0.0886595 0.0039028 0)
(0.0881854 0.00399472 -4.59216e-23)
(0.0898018 0.00377241 0)
(0.0892139 0.00383432 0)
(0.0909748 0.00366131 0)
(0.0903914 0.00371412 1.04675e-23)
(0.0921078 0.00356154 0)
(0.0915441 0.00361083 0)
(0.093219 0.00346803 0)
(0.0926661 0.00351333 0)
(0.0943043 0.00338097 0)
(0.0937649 0.00342413 0)
(0.0953644 0.00329761 -3.7577e-26)
(0.0948374 0.00333879 0)
(0.0964003 0.00321808 0)
(0.0958853 0.0032574 0)
(0.0974131 0.00314211 0)
(0.0969095 0.00317967 0)
(0.0984038 0.00306933 0)
(0.0979112 0.00310535 0)
(0.0993736 0.00299917 -7.83848e-29)
(0.0988912 0.00303392 0)
(0.100324 0.00293137 7.62998e-29)
(0.0998511 0.00296512 0)
(0.101256 0.00286544 0)
(0.100792 0.00289809 0)
(0.102171 0.00280182 7.1909e-29)
(0.101716 0.00283338 0)
(0.10307 0.00274014 0)
(0.102623 0.00277076 0)
(0.103954 0.00268022 0)
(0.103514 0.00270999 0)
(0.104823 0.00262185 0)
(0.10439 0.00265087 0)
(0.105677 0.00256473 0)
(0.105252 0.00259318 0)
(0.106519 0.00250802 0)
(0.1061 0.00253641 0)
(0.10735 0.002452 0)
(0.106936 0.00247995 0)
(0.10817 0.00239385 3.31787e-24)
(0.107759 0.00242169 3.4002e-24)
(0.108576 0.00236321 -6.36633e-24)
(0.108271 0.00102841 -6.13114e-24)
(0.109176 0.00187449 0)
(0.108662 0.00145499 -6.18341e-24)
(0.107875 0.000149179 0)
(0.108005 0.000592161 6.25722e-24)
(0.108023 -0.000734952 9.33994e-24)
(0.10788 -0.000294387 -3.15836e-24)
(0.108297 -0.00117049 -1.83462e-23)
(0.108621 -0.0024682 3.19607e-24)
(0.109433 -0.00243332 1.18789e-23)
(0.109033 -0.00245574 0)
(0.107799 -0.00249806 -6.63252e-24)
(0.108213 -0.00248381 6.65439e-24)
(0.106966 -0.00252647 0)
(0.107385 -0.00251275 0)
(0.106121 -0.0025547 -1.28328e-28)
(0.106545 -0.00254063 0)
(0.105263 -0.00258373 0)
(0.105694 -0.00256907 0)
(0.10439 -0.00261452 0)
(0.104828 -0.00259885 0)
(0.103503 -0.00264803 0)
(0.103948 -0.00263091 0)
(0.1026 -0.00268492 0)
(0.103053 -0.00266604 0)
(0.10168 -0.00272563 6.44738e-26)
(0.102142 -0.0027048 0)
(0.100743 -0.00277058 -6.62492e-26)
(0.101214 -0.00274756 0)
(0.0997878 -0.00282035 0)
(0.100268 -0.00279484 0)
(0.0988132 -0.00287505 0)
(0.099303 -0.0028471 0)
(0.0978181 -0.00293511 0)
(0.0983182 -0.00290439 0)
(0.0968011 -0.00300055 0)
(0.0973124 -0.00296713 0)
(0.0957605 -0.0030721 0)
(0.0962838 -0.00303555 0)
(0.0946949 -0.00315013 0)
(0.0952309 -0.0031103 0)
(0.0936023 -0.00323524 -7.73576e-26)
(0.0941521 -0.00319177 0)
(0.0924813 -0.00332835 7.89e-26)
(0.0930454 -0.00328075 0)
(0.0913307 -0.00343018 -8.04071e-26)
(0.0919097 -0.00337819 0)
(0.0901502 -0.00354112 0)
(0.090744 -0.00348448 0)
(0.08894 -0.00366109 0)
(0.0895483 -0.00359988 0)
(0.087716 -0.00379501 8.57297e-26)
(0.0883308 -0.00372574 1.08796e-23)
(0.08648 -0.00395251 -5.67057e-23)
(0.0870938 -0.0038704 0)
(0.0842868 -0.00342684 -3.36023e-23)
(0.0858663 -0.00403881 -3.17215e-25)
(0.0831002 0.00102079 6.28326e-23)
(0.0828703 -0.000499807 0)
(0.109794 0.00227505 -1.1879e-23)
(0.109844 -0.00242133 -2.28989e-23)
(0.0828852 0.00170931 -3.31769e-23)
(0.0840568 0.00312769 1.11374e-24)
(0.082934 0.00236907 9.44687e-23)
(0.0825497 -0.00127073 0)
(0.0825747 -0.00202581 1.13427e-23)
(0.0861947 0.00405608 -9.72345e-23)
(0.0852562 0.00396804 8.2941e-23)
(0.0836627 0.00322102 -8.16017e-23)
(0.0829352 -0.00276798 -3.40691e-23)
(0.0836273 -0.00350589 2.27282e-23)
(0.0852633 -0.00413783 2.23083e-23)
(0.0828059 0.000254709 0)
(0.0894093 0.00465236 2.8885e-24)
(0.0879694 0.00467589 5.00434e-25)
(0.0887578 0.00465351 2.25825e-23)
(0.0904081 0.00449547 2.22956e-23)
(0.0899112 0.00458023 -2.24112e-23)
(0.0915018 0.00434204 4.12779e-26)
(0.0909384 0.00441469 0)
(0.0926038 0.00421929 0)
(0.092057 0.00427775 0)
(0.0936788 0.00410752 0)
(0.093144 0.00416274 0)
(0.0947321 0.00400231 0)
(0.0942082 0.00405387 0)
(0.095762 0.00390309 3.81752e-26)
(0.09525 0.00395219 0)
(0.0967692 0.00380809 0)
(0.0962684 0.00385506 0)
(0.0977545 0.00371728 0)
(0.0972646 0.00376218 0)
(0.0987188 0.00363047 0)
(0.0982393 0.0036734 0)
(0.0996628 0.00354731 0)
(0.0991933 0.00358847 0)
(0.100588 0.0034674 -3.42918e-26)
(0.100127 0.00350697 0)
(0.101494 0.00339043 8.85901e-29)
(0.101043 0.00342862 0)
(0.102384 0.00331604 0)
(0.101941 0.0033529 0)
(0.103257 0.00324429 6.36481e-26)
(0.102822 0.00327987 0)
(0.104115 0.00317486 0)
(0.103688 0.00320931 0)
(0.104959 0.00310756 0)
(0.104539 0.00314097 0)
(0.105789 0.00304216 0)
(0.105375 0.00307465 0)
(0.106605 0.00297835 0)
(0.106198 0.00301009 0)
(0.107409 0.00291558 0)
(0.107008 0.00294688 0)
(0.108201 0.00285372 5.39577e-26)
(0.107806 0.00288454 0)
(0.108983 0.00279269 -3.33236e-24)
(0.108594 0.00282362 0)
(0.109752 0.00272687 3.17163e-24)
(0.109368 0.00276018 0)
(0.110516 0.00265854 3.01405e-24)
(0.110134 0.0026927 -3.08959e-24)
(0.109587 0.00184937 5.98253e-24)
(0.110902 0.00262667 0)
(0.110201 0.00224888 8.88829e-24)
(0.1087 0.001012 0)
(0.109085 0.00143536 0)
(0.108314 0.000141069 0)
(0.108442 0.000578735 0)
(0.10846 -0.00073499 0)
(0.108321 -0.00029832 0)
(0.109123 -0.00159399 1.2197e-23)
(0.108729 -0.00116919 3.03709e-24)
(0.110246 -0.00240812 2.98494e-24)
(0.10963 -0.00200649 2.38688e-23)
(0.110198 -0.00283145 1.54931e-23)
(0.110967 -0.00279587 2.95787e-24)
(0.110581 -0.00281239 -6.0233e-24)
(0.109424 -0.00286904 3.1851e-24)
(0.10981 -0.00284913 -1.90997e-23)
(0.108641 -0.00290286 -1.23677e-28)
(0.109033 -0.00288564 0)
(0.107843 -0.00293544 0)
(0.108243 -0.00291864 0)
(0.107035 -0.00296993 -1.48128e-28)
(0.10744 -0.00295261 0)
(0.106213 -0.00300572 0)
(0.106626 -0.00298761 0)
(0.105378 -0.00304373 0)
(0.105798 -0.00302441 0)
(0.104529 -0.0030848 0)
(0.104955 -0.00306386 0)
(0.103664 -0.00312957 0)
(0.104099 -0.00310671 0)
(0.102785 -0.00317855 -1.28782e-25)
(0.103226 -0.00315352 0)
(0.101888 -0.00323225 0)
(0.102338 -0.0032048 0)
(0.100974 -0.00329118 0)
(0.101433 -0.00326105 0)
(0.100042 -0.00335561 0)
(0.100511 -0.00332272 0)
(0.0990914 -0.00342593 0)
(0.0995694 -0.00339003 0)
(0.09812 -0.00350244 -7.24097e-26)
(0.0986084 -0.0034634 0)
(0.0971268 -0.0035857 0)
(0.0976262 -0.00354321 0)
(0.0961107 -0.00367621 0)
(0.0966217 -0.00363004 0)
(0.0950704 -0.00377454 7.73576e-26)
(0.0955937 -0.00372437 0)
(0.0940046 -0.00388138 -2.06036e-28)
(0.0945407 -0.00382687 0)
(0.092913 -0.00399724 1.60604e-25)
(0.0934621 -0.0039382 0)
(0.0917953 -0.00412215 0)
(0.0923574 -0.0040586 0)
(0.0906516 -0.00425571 0)
(0.0912265 -0.00418773 0)
(0.0894836 -0.00439631 -2.41127e-28)
(0.0900709 -0.00432617 0)
(0.0882918 -0.0045476 0)
(0.0888895 -0.00446967 0)
(0.0871233 -0.00472743 -3.37326e-23)
(0.0877036 -0.00463371 0)
(0.0846407 -0.00423093 -3.09281e-25)
(0.0865466 -0.00482892 5.72974e-23)
(0.0823099 0.00097389 0)
(0.0871603 0.00468694 1.31045e-22)
(0.0820929 0.00165373 2.26668e-23)
(0.111344 0.00302834 -3.00838e-24)
(0.11171 0.00299705 0)
(0.110648 -0.00239741 2.90106e-24)
(0.111346 -0.00277633 -5.76561e-24)
(0.0821288 -0.000533288 0)
(0.0818161 -0.00130208 0)
(0.0822889 0.00244117 0)
(0.0818528 -0.00206621 -1.11716e-23)
(0.0822395 -0.00283201 -2.24908e-23)
(0.0829617 -0.00358876 0)
(0.0840048 -0.0043263 5.794e-23)
(0.0859491 -0.00493174 -4.62153e-23)
(0.0820481 0.000220104 0)
(0.0900429 0.00526965 -1.08743e-26)
(0.0863148 0.00465447 4.11447e-23)
(0.0886126 0.00535872 -1.46677e-22)
(0.0893255 0.00533123 4.2968e-23)
(0.0913008 0.00518904 -1.3966e-23)
(0.0906907 0.00521143 -2.23901e-23)
(0.0923306 0.00504847 0)
(0.0918285 0.00513015 0)
(0.0933749 0.00488304 -4.12742e-26)
(0.0928425 0.00496119 0)
(0.0944171 0.00474751 0)
(0.0939001 0.00481283 0)
(0.0954321 0.00462385 0)
(0.0949275 0.00468474 0)
(0.0964248 0.00450745 0)
(0.0959312 0.00456475 0)
(0.0973954 0.0043971 -3.81752e-26)
(0.0969128 0.00445167 0)
(0.0983453 0.00429149 0)
(0.0978729 0.00434373 0)
(0.0992752 0.00419042 0)
(0.0988127 0.00424041 0)
(0.100186 0.00409372 0)
(0.0997329 0.00414155 0)
(0.101078 0.00400109 0)
(0.100634 0.00404693 0)
(0.101953 0.00391218 3.4098e-26)
(0.101518 0.00395619 0)