/*--------------------------------*- C++ -*----------------------------------*\
  =========                 |
  \\      /  F ield         | OpenFOAM: The Open Source CFD Toolbox
   \\    /   O peration     | Website:  https://openfoam.org
    \\  /    A nd           | Version:  10
     \\/     M anipulation  |
\*---------------------------------------------------------------------------*/
FoamFile
{
    format      ascii;
    class       surfaceScalarField;
    location    "9.5";
    object      phi;
}
// * * * * * * * * * * * * * * * * * * * * * * * * * * * * * * * * * * * * * //

dimensions      [0 3 -1 0 0 0 0];

internalField   nonuniform List<scalar> 
29080
(
0.0907857
-0.145259
-0.0153317
0.0698047
0.0509867
0.039799
0.0134459
0.0335172
-0.0297617
-0.0172014
0.0467908
0.00641476
-0.0397597
0.0430967
-0.00198992
0.00568403
0.0314876
-0.0585329
0.0476675
-0.0206222
-0.0485461
0.0290907
0.050943
0.0389346
0.00574843
-0.0534196
0.00873656
-0.0355213
0.0806319
-0.00617603
0.0133238
-0.103356
-0.0159513
0.0607743
-0.0838025
0.0553008
0.0822798
0.0663286
-0.0218923
-0.107368
0.0377691
0.0651843
0.00441497
0.000792619
0.0428276
-0.0141948
-0.0261095
0.0499974
0.0264715
0.053615
-0.0883103
0.0082238
0.0200028
0.0748233
0.0203963
0.0635855
-0.00409404
0.00235054
0.000651344
-0.00429618
0.0012943
-0.00818576
-0.0154592
0.0259955
-0.0066889
-0.00201119
0.00051433
-0.00647359
0.000436033
-0.00321095
-0.00755882
-0.0691806
0.00417855
0.00567364
0.0593284
-0.0339952
-0.0482505
0.013065
0.041039
-0.0384451
-0.0365891
0.000127311
0.00104406
0.00298688
-0.00415825
0.00699516
-0.00686785
-0.0029914
0.00998656
0.00377115
-0.00571849
0.00370516
0.00305287
-0.0305557
-0.00347543
0.0254002
0.00863094
0.00188113
-0.023763
-0.00867385
0.0292753
0.00154385
-0.028938
0.0189858
0.00681407
0.0192903
0.0250957
-0.0359417
0.0123953
0.030683
-0.0071366
0.0248527
-0.0480911
-0.0127034
0.0177006
0.0121295
-0.00497746
0.0201678
0.00992804
0.0201091
0.0307418
0.0697899
0.00551572
-0.0377146
-0.0375911
0.00172137
0.0634275
0.00464111
-0.0386518
0.0390255
0.00134767
-0.0324195
-0.000716505
-0.0577534
-0.00436566
0.0146316
0.0474875
-0.0660803
0.0125054
-0.0447884
0.0197471
0.0745049
0.0305824
-0.0425595
-0.0625278
-0.0311833
0.0275507
0.0781375
0.0699654
-0.101463
0.0647784
-0.0332803
-0.0370223
0.0536779
0.0533098
-0.00131741
0.00543002
-0.00409144
-2.11693e-05
0.0147636
-0.00187752
-0.0142035
-0.00439396
0.00483
-0.00760491
-0.0599947
-0.037844
0.00790277
0.089936
-0.028025
0.0250023
-0.0569721
0.053675
-0.0578407
-0.0238593
0.0523646
-0.0365337
0.0677062
-0.00743884
0.087884
-0.0397382
-0.0481459
-0.0598476
0.0505549
0.0971767
-0.0284321
-0.0298353
0.0198224
-0.00378129
0.0168497
-0.0415005
0.0131296
-0.0467462
0.00715311
0.00497643
0.0170812
0.00342387
0.0363313
-0.000729677
-0.0291516
0.0358078
0.00751576
-0.0141719
-0.0682863
-0.00155062
0.0406853
-0.00143499
0.0211331
-0.0408725
0.018934
-0.0425893
0.00496411
-0.0310516
0.0329016
-0.0393907
0.000142525
0.0442123
-0.0318233
0.00231548
0.0458673
-0.044736
-0.00232209
0.00119074
-0.00116057
-0.00120524
0.0482331
-0.015389
-0.00146903
0.0107646
0.00609344
-0.0151561
-0.00211125
0.00187833
-0.00340037
0.0178518
0.000312217
0.0296292
-0.00244171
-0.0305879
0.0726223
-0.00078172
-0.0838824
0.0120418
0.000704477
0.0481863
0.0237316
0.0667448
-0.0150385
0.0159816
-0.0676878
0.0666285
0.0146759
-0.0145596
0.00217101
-0.0460223
0.0467482
-0.00289692
-0.0462252
0.0469004
0.00149581
-0.00559191
0.0347749
-0.0338628
0.00467978
0.0359556
-0.0071722
-0.0343753
-0.00312585
0.0368282
-0.0364671
0.0027648
0.0329647
-0.00436797
-0.0317225
-0.000459055
0.0401153
-0.0393867
-0.000269623
0.0359098
-0.00183035
-0.0345385
0.0370625
0.0824225
-0.120267
-0.0707201
0.0765993
-0.0119713
-0.0514125
0.00965315
0.0537306
-0.0485834
-0.0169733
0.0535854
0.0116982
-0.0123636
-0.0479179
0.00924269
-0.048957
-0.0522583
0.00739788
0.0517884
-0.00692802
0.0100424
-0.0526475
-0.000916434
-0.0243095
0.00248265
0.0227433
-0.0143949
0.0135938
-0.000115373
0.0015243
-0.0155954
-0.000323751
0.00319713
-0.0259823
-0.0230497
-0.00382727
0.0031139
0.0134307
-0.0339977
0.0178154
0.0414453
-0.0155278
-0.0437329
0.0255151
0.0552983
-0.0629979
0.0074744
0.059486
-0.0112236
-0.0151143
0.017664
-0.00380177
0.006172
0.00134628
-0.0446729
-0.00269571
-0.0397529
-0.00512601
-0.0380336
-0.00375162
0.00203234
-0.0160036
-0.0241579
0.00212788
0.0436043
-0.0536528
-0.00595508
-0.00482022
-0.0240136
-0.00231267
0.00216845
-0.00241085
-0.0238351
0.00223232
0.05202
-0.0517478
-0.00268313
-0.00394544
-0.0236709
-0.0023941
0.00222992
-0.00239319
-0.0234827
0.00220492
0.0514272
-0.0510601
-0.00276034
-0.00271465
-0.0233093
-0.00230104
0.00212773
-0.00220212
-0.0231179
0.00201072
0.050645
-0.0501746
-0.00267251
-0.00271612
-0.0229428
-0.00201617
0.001841
-0.00180809
-0.0227578
0.00162315
0.049654
-0.0490738
-0.00238829
-0.00253672
-0.0225914
-0.00151814
0.00135174
-0.00119213
-0.0224257
0.00102642
0.0484446
-0.0477573
-0.00187946
-0.00214739
-0.0222808
-0.000795861
0.000650901
-0.000348404
-0.0221438
0.000211484
0.0470284
-0.0462466
-0.00113019
-0.00152469
-0.0220121
0.000119936
-0.00025168
0.000647389
-0.0219041
-0.000755382
0.0454507
-0.0446259
-0.000177485
-0.000675974
-0.0328771
0.00118773
0.00978525
0.00183291
-0.0339483
-0.000761699
0.0438133
-0.0439032
0.0019229
0.000375118
-0.0374487
0.00770406
-0.0042037
0.0048744
-0.038022
-0.00430112
0.0398676
-0.0376951
0.00270193
0.00366843
-0.0386824
0.00672495
-0.00606451
0.00666839
-0.0374814
-0.0078694
0.0363507
-0.0369512
0.00726882
0.00538054
-0.00665776
0.00566217
-0.0375832
-0.00655588
0.00127185
-0.00289356
0.0483699
0.00098106
0.0471912
-0.00808826
-0.0366672
0.0490567
-0.0467663
-0.00518398
0.00239424
0.0497279
-0.00306543
0.000718054
0.0500461
0.0484238
-0.0484567
0.00152873
0.0509061
-0.00150128
0.0419121
-0.0412198
-0.00724816
-0.0407822
0.0402943
-0.00557662
-0.00673951
-0.0399462
0.0386482
-0.00290573
-0.00395297
-0.0339864
0.0454487
-0.00167704
0.00390005
-0.0458803
0.0463133
-0.000684727
-0.00118693
-0.0467623
0.0472461
0.000167102
-0.000237473
-0.0477479
0.0482471
0.000852533
0.000524567
-0.0487378
0.0492093
0.00136944
0.0011325
-0.0496607
0.0500845
0.00170393
0.00155935
-0.0504826
0.0508464
0.00186615
0.00180679
-0.0511865
0.0514755
0.00187938
0.00189224
-0.0517662
0.0531172
0.000681341
0.00183719
-0.000465464
0.00155458
-0.000684577
0.0500361
0.0494638
0.0456191
-0.0471537
-0.00116105
-0.00404418
0.0485228
-0.051888
-0.00258987
-0.00345116
0.0531132
-0.052919
-0.0028773
-0.00272023
0.0526802
-0.0523925
-0.003048
-0.00295352
0.0520537
-0.0516535
-0.00307272
-0.00305489
0.0511933
-0.0506608
-0.00292084
-0.0029969
0.0500618
-0.0493841
-0.00255715
-0.00274637
0.048639
-0.0478144
-0.00195478
-0.00226979
0.0469341
-0.0459907
-0.0011209
-0.00155631
0.0449989
-0.0430464
-2.96228e-05
-0.000616687
0.0403602
-0.0401667
0.00250845
0.000982247
0.0387425
-0.0359513
0.00447763
0.00395632
0.00448577
-0.00188826
0.00132393
0.0506104
-0.00379457
0.0516342
-0.00710562
-0.0422024
0.00556252
-0.00634858
-0.0335892
0.0507099
-0.0505035
-0.000890901
0.000501588
0.0503014
-9.31169e-05
0.00020267
0.050335
-0.0335404
0.00524016
0.045017
-0.0452975
-0.00696766
-0.0442606
0.0425012
-0.00381715
-0.00598316
-0.0424852
0.0413251
-0.00174561
-0.003937
-0.0470728
0.0472321
-0.0018363
-0.00184772
-0.0474199
0.047659
-0.000923866
-0.00137469
-0.0479459
0.0482582
-0.000145212
-0.000524359
-0.0485852
0.0489301
0.000507691
0.000197533
-0.0492899
0.0496556
0.00100376
0.000772676
-0.0500241
0.0503862
0.00134184
0.00119079
-0.050741
0.0510785
0.00152864
0.00145201
-0.0514021
0.0516995
0.00158198
0.00156862
-0.0519771
0.05113
0.0015284
0.00155965
-0.0501357
0.0512802
0.000384258
0.00052883
-0.000724606
0.0509904
-0.0510462
-0.00384518
0.0510968
0.0505254
-0.0523628
-0.00334666
-0.00358621
0.0544448
-0.0534011
-0.00220472
-0.00196213
0.0544494
-0.0544099
-0.00262936
-0.00240293
0.054339
-0.054237
-0.0029793
-0.00279108
0.0540992
-0.0539184
-0.00322875
-0.00309137
0.0536913
-0.0534068
-0.00335723
-0.003282
0.0530626
-0.0526454
-0.00333802
-0.00334111
0.0521562
-0.0515807
-0.00313262
-0.00323562
0.0509245
-0.0501734
-0.00270584
-0.00292602
0.0493417
-0.0484169
-0.00204567
-0.00238801
0.0474129
-0.0462721
-0.00117045
-0.00162072
0.0446218
-0.0428142
0.000700878
-0.000668029
0.0402511
-0.0366729
0.000899441
0.00139318
0.0358045
-0.0338971
0.00277236
0.00361738
0.00589471
-0.00737072
-0.0320644
0.0338748
-0.0333463
0.00536623
0.00521783
-0.0454315
-0.00697164
-0.00711753
-0.0358982
-0.0079079
-0.033052
-0.000409333
-0.000507475
0.0512518
0.00628867
-0.00760157
-0.0307515
0.0047184
-0.031776
-0.00185647
0.0517485
0.0521894
-0.0524489
-0.00358574
0.0512357
-0.0514627
-0.000663841
0.0522759
-0.00113337
0.00364301
0.0523666
-0.00382015
0.00296272
0.0517771
0.00728054
-0.00715848
-0.0455535
-0.0420394
0.0501252
-0.0498587
-0.007425
-0.0499551
0.0488481
-0.00586066
-0.0068015
-0.0481622
0.0483505
-0.00400549
-0.00529725
-0.0478219
0.0489268
-0.00285052
-0.00340832
-0.0494371
0.0494723
-0.00187148
-0.00235808
-0.0495386
0.0496351
-0.00102033
-0.00144102
-0.0497615
0.0499137
-0.000297424
-0.000650762
-0.0501006
0.0503132
0.000295122
1.06624e-05
-0.0505503
0.0508055
0.000748509
0.000535539
-0.0510764
0.0513551
0.0010631
0.000919953
-0.0516391
0.0519199
0.00124778
0.00116807
-0.0521953
0.0524576
0.00131968
0.00129323
-0.0527025
0.0529314
0.00129952
0.00131471
-0.0525485
0.0518483
0.00108445
0.000911782
-0.000339059
0.00146531
-0.00342398
0.0525691
0.0519482
0.051173
0.0535066
-0.0552057
-0.0016476
-0.00252847
0.0552883
-0.0553551
-0.00213791
-0.00187953
0.0554011
-0.0554304
-0.00260005
-0.00235689
0.0554379
-0.0554239
-0.00299329
-0.00278363
0.0553841
-0.0553137
-0.00329919
-0.00313115
0.0552067
-0.0550543
-0.00350965
-0.00338897
0.0548509
-0.054585
-0.00360391
-0.00354451
0.0542533
-0.0538424
-0.00354347
-0.00356735
0.0533525
-0.0527691
-0.00328916
-0.00341598
0.0520982
-0.0513248
-0.00281913
-0.00305892
0.0504589
-0.049488
-0.00214135
-0.00248662
0.0484298
-0.0464313
-0.00129767
-0.00172616
0.0442076
-0.0435257
0.000217539
-0.000830458
0.0410443
-0.0397051
0.00143316
0.00113589
0.0375311
-0.0358237
0.0036588
0.00304388
0.0346054
-0.00450367
-0.0335659
0.00346416
0.00350012
-0.00786152
-0.0359446
-0.00821394
0.0080449
-0.0453845
-0.0491195
-0.00895313
-0.00336577
0.00234196
0.0528009
-0.00326324
0.052264
-0.00836654
-0.0322871
-0.00565458
-0.0306251
-0.00680387
-0.0296022
0.00347861
-0.00472452
-0.0293792
-0.00153613
0.0519556
0.00287739
-0.0418561
-0.00856315
0.00882405
-0.0493804
0.0528138
-0.052013
-0.00936394
-0.0524618
0.0527755
-0.0077387
-0.00860114
-0.0527337
0.052146
-0.00527296
-0.00675973
-0.0514851
0.0514625
-0.00398292
-0.00463634
-0.0514786
0.0514863
-0.00285823
-0.00342434
-0.0514978
0.0515146
-0.00188823
-0.00236962
-0.0515433
0.0515862
-0.00106314
-0.0014698
-0.0516473
0.0517293
-0.000379455
-0.00071191
-0.0518358
0.0519634
0.000167578
-9.58398e-05
-0.0521136
0.0522832
0.000578864
0.000385358
-0.0524712
0.0526724
0.000861904
0.000731947
-0.0528842
0.0530999
0.00103201
0.000956321
-0.0533157
0.0535252
0.00111023
0.00107742
-0.0537232
0.0539066
0.00111616
0.00111672
-0.0537268
0.0537474
0.0010638
0.00109154
-0.0528789
0.0523143
-9.92258e-05
0.000529446
-0.0524178
0.0529535
-0.00207179
-0.00123688
0.00171256
-0.00189371
0.0521367
-0.000971112
-0.000130997
0.0523539
0.05249
0.000625759
-0.00101019
0.0529535
0.052443
0.0525047
-0.0523853
-0.00330217
0.0524242
0.0533256
-0.0544338
-0.00247757
-0.00287983
0.0556956
-0.0558176
-0.00152565
-0.00126663
0.0559274
-0.0560259
-0.00203946
-0.00176964
0.0561133
-0.0561913
-0.00252203
-0.00226949
0.0562587
-0.0563159
-0.00293611
-0.0027162
0.0563586
-0.0563838
-0.00327397
-0.00308849
0.056385
-0.0563559
-0.00353877
-0.00338777
0.0562894
-0.056177
-0.00371627
-0.00361098
0.0560129
-0.0557865
-0.0037699
-0.00373148
0.0554938
-0.0551226
-0.00366037
-0.00370863
0.0546721
-0.0541282
-0.00336306
-0.00350943
0.0534948
-0.0527593
-0.00287689
-0.00311998
0.0519337
-0.0510068
-0.00222462
-0.0025517
0.0499935
-0.0483044
-0.00147161
-0.00184373
0.046094
-0.0443995
-0.000261347
-0.00107443
0.0419429
-0.0398933
0.00160922
0.000587256
0.0380615
-0.037629
0.00303169
0.00166826
0.00207658
-0.00110788
0.0521677
-0.00831735
-0.0359938
0.00883969
-0.0454001
-0.00741554
-0.0316754
0.00991418
-0.0518977
-0.0100294
0.00960875
-0.049075
-0.00593406
-0.0283926
0.053156
-0.0540255
-0.00243268
0.00294816
0.0523079
-0.00210009
0.00246719
0.0529052
-0.0054872
-0.02826
0.00314578
-0.00396718
-0.0309011
0.0531127
-0.054356
-0.000828437
0.0531575
-0.00115274
0.00258844
-0.0413337
-0.0102447
0.0105366
-0.0521895
0.0544776
-0.0542203
-0.010502
-0.0540494
0.0537591
-0.00907363
-0.00960127
-0.0534177
0.0529813
-0.00730225
-0.00825979
-0.0527564
0.0527786
-0.00529517
-0.00653486
-0.0528096
0.0528448
-0.00401811
-0.00466726
-0.0528803
0.0529191
-0.00289698
-0.00345991
-0.0529614
0.0530058
-0.00193263
-0.00241189
-0.0530553
0.0531113
-0.00111921
-0.0015193
-0.0531765
0.0532514
-0.000454297
-0.000777114
-0.0533382
0.0534378
6.79293e-05
-0.000182656
-0.0535512
0.0536776
0.000452503
0.000271952
-0.0538173
0.0539676
0.000711629
0.000592222
-0.054127
0.0542909
0.000868149
0.000796898
-0.0544559
0.0546163
0.000949801
0.0009124
-0.0547676
0.0549044
0.000979427
0.000965414
-0.0550226
0.0551189
0.00096756
0.000973273
-0.0551345
0.0548925
0.000142794
0.000513794
-0.000700393
-0.000366872
0.000133907
0.0523697
0.000627966
-0.000170111
0.0526997
0.0524288
0.000177606
-0.000312913
0.0524893
0.0528015
0.000843163
-0.000844976
0.0529554
0.0529732
0.00121405
-0.00159346
0.0531803
0.0528738
0.0531378
0.0543453
-0.0559296
-0.000893282
-0.00255994
0.0560655
-0.0561946
-0.00139659
-0.00113073
0.0563151
-0.0564308
-0.00192369
-0.00164917
0.0565418
-0.0566518
-0.00241211
-0.00215848
0.0567595
-0.0568667
-0.00282885
-0.00260849
0.0569694
-0.0570664
-0.00317697
-0.00298579
0.0571513
-0.0572203
-0.00346972
-0.00330296
0.0572663
-0.0572839
-0.00369862
-0.003565
0.0572663
-0.0572062
-0.00382994
-0.00374915
0.0570976
-0.0569313
-0.00382671
-0.00381725
0.0567024
-0.0563999
-0.0036656
-0.00373831
0.0560223
-0.055559
-0.00334023
-0.00349754
0.0550142
-0.0543771
-0.0028617
-0.00309649
0.0536603
-0.0528582
-0.00227373
-0.00256052
0.0519823
-0.0509583
-0.00128538
-0.00195031
0.049589
-0.0479144
-6.54043e-05
-0.000782013
0.0466848
-0.0444911
0.000837991
0.000438723
0.0432945
-0.0414668
0.000937132
0.000879907
0.001237
-0.00825321
-0.0351561
0.0095274
-0.0453188
-0.00263016
0.00204769
0.0534876
-0.00301613
0.0526939
-0.00720853
-0.0304009
0.00987677
-0.0484152
-0.00581316
-0.0280667
0.0112193
-0.0546851
-0.0107544
0.0108604
-0.0518307
-0.00456091
-0.0276662
-0.00281299
-0.0299185
0.053228
-0.0509976
-0.00240058
-7.5482e-05
-0.000314341
-0.0341487
-0.0388804
-0.000581802
-0.00150428
0.00117653
0.0530274
0.0535464
-0.00182259
-0.0400595
-0.012693
0.0123902
-0.0543823
0.0559975
-0.0564593
-0.0122312
-0.0559353
0.0556537
-0.0102204
-0.0106922
-0.0554083
0.0550254
-0.00869074
-0.00935586
-0.0547909
0.054144
-0.0066553
-0.00802532
-0.0536024
0.0535958
-0.00528864
-0.00599325
-0.0536119
0.0536463
-0.00405254
-0.00468329
-0.0536955
0.0537562
-0.00295771
-0.0035091
-0.0538265
0.0539037
-0.00200979
-0.00248222
-0.0539876
0.0540766
-0.0012082
-0.00160319
-0.0541707
0.0542687
-0.000552233
-0.00087127
-0.0543713
0.0544792
-4.00228e-05
-0.000285264
-0.0545923
0.0547106
0.000334255
0.000158857
-0.0548349
0.0549639
0.000582676
0.00046787
-0.0550971
0.0552314
0.000733806
0.000663666
-0.0553647
0.055492
0.000822435
0.00077917
-0.0556098
0.0557128
0.000876431
0.000847666
-0.0557972
0.0558592
0.000905547
0.000888847
-0.0554697
0.0551196
0.000492953
0.000903269
-0.054266
0.0537624
-0.000324831
0.000153159
0.00161212
-0.000601401
0.000467669
0.0525034
0.0530039
0.000215528
-0.000654392
0.0529281
0.0534847
0.000691886
-0.000693691
0.0529572
0.0530107
0.00131342
-0.00189549
0.0537624
0.0534936
0.05329
-0.0535847
-0.00183704
0.0524056
0.0534453
-0.0539239
-0.00195407
-0.00223947
0.055956
-0.0560927
-0.000756653
-0.000527838
0.0562224
-0.0563484
-0.0012706
-0.00100102
0.0564701
-0.0565921
-0.00180164
-0.00152746
0.0567146
-0.0568421
-0.00228469
-0.00203595
0.0569732
-0.0571108
-0.00269128
-0.00247734
0.057251
-0.0573944
-0.00303361
-0.00284557
0.0575349
-0.0576713
-0.00333326
-0.00316245
0.0577967
-0.0579087
-0.00358668
-0.0034396
0.0579999
-0.0580666
-0.00376321
-0.00365791
0.0581016
-0.0580992
-0.00382916
-0.00378226
0.0580524
-0.0579538
-0.0037642
-0.00378506
0.0577985
-0.0575784
-0.00356032
-0.00365284
0.0572923
-0.0569323
-0.0032217
-0.00338265
0.0565035
-0.0559997
-0.00277749
-0.00298929
0.055431
-0.054423
-0.00229338
-0.00251903
0.0531591
-0.0519856
-0.00123883
-0.00204596
0.0504546
-0.0487835
-0.000833187
-0.00109228
0.0473648
-0.0448719
-0.00155577
-0.000538753
0.0442056
-0.0448706
0.000395431
0.000570677
-4.6524e-05
-3.45006e-05
-0.0387993
0.0451425
-0.0440953
-0.00109375
-0.0003099
-0.00780812
-0.0345566
0.00870893
-0.0441509
-0.00680037
-0.0294137
0.0107409
-0.0482957
-0.00591658
-0.026711
0.0117658
-0.0512063
-0.00367758
-0.0268017
0.0128548
-0.0558175
-0.0134966
0.0131646
-0.0546921
-0.0016873
-0.0285456
-0.000911155
-0.033272
0.00139711
-0.0432726
-0.00221984
0.000400654
-0.0378029
0.0544096
-0.0561062
-0.000704022
-0.00731288
-0.0019615
-0.0339982
0.0535938
-0.0528817
-0.0025491
-0.00142108
0.00108688
0.0533616
-0.00218214
0.0543074
0.00298017
0.0528316
-0.00221795
0.0024942
0.0528916
0.0440151
-0.0210007
-0.0303272
0.0543369
-0.0017499
-0.0391587
-0.0145599
0.015141
-0.0563987
0.0578864
-0.0580567
-0.0143897
-0.0573974
0.0574008
-0.0122347
-0.0130075
-0.0565928
0.05626
-0.00988757
-0.00988419
-0.0556662
0.054938
-0.00796246
-0.00876212
-0.0542035
0.0541022
-0.00655396
-0.00729089
-0.0540377
0.0540059
-0.00525687
-0.00592873
-0.054004
0.054029
-0.00407755
-0.00468135
-0.0540773
0.0541445
-0.00302492
-0.00355744
-0.054228
0.0543241
-0.00210586
-0.00256573
-0.0544309
0.054545
-0.00132227
-0.00171003
-0.054665
0.0547878
-0.000675088
-0.000991234
-0.0549132
0.0550391
-0.000165947
-0.000410601
-0.0551665
0.0552936
0.000207158
3.14436e-05
-0.0554213
0.0555484
0.000455603
0.00034017
-0.0556749
0.0557986
0.000610097
0.000537132
-0.055918
0.0560293
0.000711145
0.000659779
-0.0561295
0.056214
0.000791946
0.000747491
-0.0562793
0.0563216
0.000863319
0.000823471
-0.056339
0.0559191
0.000912857
0.000885836
-0.0551561
0.0539108
0.000920534
0.000916127
-0.000583281
-0.000228362
-0.000433557
0.0531653
0.0538624
0.000470303
-0.000518697
0.0529765
0.0535214
0.000553872
-0.000558553
0.0529618
0.0530459
0.000520753
-0.000438388
0.05368
0.0534558
0.001499
-0.00255479
0.0545434
0.0543506
0.0526333
0.0540819
-0.055838
-0.000197967
-0.0010393
0.0559634
-0.0560869
-0.000633105
-0.000402465
0.0562059
-0.0563246
-0.00115182
-0.000882081
0.0564425
-0.0565645
-0.00167964
-0.00140956
0.0566905
-0.0568249
-0.00215025
-0.00191002
0.0569665
-0.0571185
-0.00253923
-0.00233574
0.0572776
-0.0574455
-0.00286571
-0.00268648
0.057617
-0.0577925
-0.00315772
-0.00299102
0.0579657
-0.0581362
-0.00341621
-0.00326642
0.0582969
-0.0584465
-0.00361363
-0.0034972
0.0585775
-0.0586872
-0.00371949
-0.00365121
0.058768
-0.0588155
-0.00371671
-0.00370428
0.058823
-0.0587851
-0.00359822
-0.00364532
0.0586971
-0.0585535
-0.00336535
-0.00347062
0.0583533
-0.0580918
-0.00303894
-0.00318947
0.0577746
-0.0574009
-0.00266705
-0.00283626
0.0569763
-0.0558911
-0.00232401
-0.00247059
0.0548086
-0.053547
-0.00209478
-0.00217482
0.0520458
-0.0525375
-0.00106413
-0.00203988
0.0505381
-0.0483004
-0.00184223
-0.00142873
0.0477773
-0.0467249
-0.00214608
-0.000833056
-0.00492969
-0.00813268
-0.0332242
0.0092001
-0.0426101
-0.00221736
0.00121366
0.0538953
-0.00230477
0.052919
0.0488553
-0.0597743
-0.0100817
-0.00725503
-0.0280753
0.0106209
-0.0471508
-0.00551663
-0.024872
0.0127352
-0.0507768
-0.00314255
-0.0253464
0.0140461
-0.0535972
-0.000839733
-0.028617
0.0150475
-0.0580476
-0.0150565
0.0150201
-0.0563713
0.000133153
-0.0330045
0.000103681
-0.0398681
-0.00448879
-0.0598366
-0.00155071
0.0537055
-0.0380913
-0.0153034
-0.0587697
0.0160255
0.0602778
-0.0609988
-0.0145824
-0.0588918
0.0579945
-0.0134924
-0.0136705
-0.0570107
0.0558695
-0.0110936
-0.0120236
-0.0558995
0.0551404
-0.00912843
-0.00991419
-0.0548566
0.0546289
-0.00773481
-0.00847831
-0.0544493
0.0543145
-0.00641917
-0.00711129
-0.0542199
0.0541636
-0.00520061
-0.00583407
-0.0541416
0.0541508
-0.00408667
-0.00465936
-0.0541875
0.0542479
-0.00308533
-0.00359421
-0.0543292
0.0544272
-0.00220389
-0.00264697
-0.0545396
0.0546624
-0.00144499
-0.00182247
-0.0547933
0.0549288
-0.000810536
-0.00112222
-0.0550674
0.0552063
-0.00030479
-0.000549237
-0.0553456
0.0554827
7.00489e-05
-0.000107848
-0.0556179
0.0557498
0.00032373
0.000204911
-0.0558782
0.0560011
0.000487198
0.000408736
-0.0561173
0.0562236
0.000604802
0.000543623
-0.0563175
0.0563953
0.000714138
0.000653584
-0.0564537
0.05649
0.000827074
0.000765077
-0.056501
0.0564872
0.000926691
0.0008748
-0.0564466
0.0563847
0.000982391
0.000956689
-0.05558
0.0547473
0.000128675
0.000221495
-0.0544067
0.0541264
-0.00127039
-0.00140935
0.00120854
-0.00135968
0.0538566
-0.000886504
0.000366213
0.0538819
0.0546294
-0.000339558
-0.000323748
0.0538286
0.0538891
0.000352311
-0.000395373
0.0530196
0.05355
0.000430229
-0.000439337
0.0529709
0.0530808
0.000410198
-0.000339695
0.0536095
0.0534266
0.000233157
-0.000102941
0.0544132
0.054244
0.053744
-0.0527522
-0.00245282
0.0529003
0.0536557
-0.0552083
-0.000996505
-0.0013145
0.0556282
-0.0557402
-8.59775e-05
-0.000619376
0.0558496
-0.0559588
-0.000523887
-0.000293068
0.0560666
-0.0561767
-0.00104169
-0.000774307
0.0562888
-0.0564072
-0.00156124
-0.0012975
0.0565314
-0.0566657
-0.00201594
-0.00178579
0.0568086
-0.0569637
-0.00238418
-0.00219283
0.0571279
-0.057304
-0.00268966
-0.00252225
0.0574873
-0.0576796
-0.0029654
-0.00280768
0.0578751
-0.0580746
-0.00321672
-0.00307096
0.0582714
-0.0584657
-0.00341932
-0.00330039
0.0586503
-0.0588246
-0.00354526
-0.00346656
0.0589809
-0.0591175
-0.00358017
-0.00354791
0.0592269
-0.0593061
-0.00351905
-0.00353588
0.0593487
-0.0593511
-0.00336298
-0.00342797
0.0593093
-0.0592199
-0.00312829
-0.0032313
0.0590833
-0.0588971
-0.00285329
-0.0029729
0.0586662
-0.0583926
-0.00259764
-0.00270145
0.0580818
-0.0577371
-0.0024395
-0.00248555
0.0573656
-0.0559596
-0.00247013
-0.00241142
0.0548281
-0.0549919
-0.00167841
-0.00256024
0.0534164
-0.0511376
-0.00442488
-0.00240853
-0.00721206
-0.00111045
0.0538772
-0.0083431
-0.0321362
0.00960119
-0.0415904
0.0151438
-0.0613634
-0.0147792
-0.059617
0.0159911
-0.00677085
-0.0268211
0.0111127
-0.0455283
-0.00455356
-0.023461
0.013043
-0.0497736
-0.0025041
-0.023682
0.0145071
-0.0530842
-0.000242555
-0.0282413
0.0158537
-0.0561996
0.00143514
-0.034336
0.000419382
-0.0447762
0.00574376
-0.0575891
-0.00792894
0.00029695
-0.0543898
-0.00846043
0.00919553
-0.0583242
0.0536741
-0.0545583
-0.000386213
0.0523177
-0.0526551
-0.00211545
0.00171962
0.0527934
-0.0021953
0.0530476
-0.000483966
0.00164721
0.0529727
-0.0368332
-0.0157849
0.0162033
-0.0617818
0.0623792
-0.0629097
-0.0152544
-0.0611457
0.0605034
-0.0139402
-0.0135457
-0.0593251
0.0583428
-0.0125101
-0.0124922
-0.0571366
0.0561195
-0.0100764
-0.0108174
-0.0556842
0.055316
-0.00876015
-0.00947897
-0.0550039
0.054747
-0.0074779
-0.00816627
-0.0545395
0.0543796
-0.0062593
-0.00690375
-0.0542617
0.0541835
-0.00512245
-0.00571614
-0.0541409
0.0541309
-0.00407669
-0.0046167
-0.0541502
0.0541955
-0.00313059
-0.00361357
-0.0542638
0.0543513
-0.00229138
-0.00271527
-0.0544555
0.0545724
-0.00156187
-0.00192668
-0.0546998
0.0548338
-0.000944594
-0.00124963
-0.0549729
0.0551139
-0.000445739
-0.000688341
-0.0552557
0.0553965
-7.07023e-05
-0.000249689
-0.0555352
0.05567
0.000188877
6.62152e-05
-0.0558005
0.0559244
0.000363295
0.000278277
-0.0560405
0.0561459
0.000499334
0.00042756
-0.0562386
0.0563153
0.00063744
0.000560955
-0.0563734
0.0564104
0.000790021
0.000706948
-0.0564245
0.0564146
0.000936592
0.000860762
-0.0563808
0.0563237
0.00103949
0.00099049
-0.0557971
0.055085
0.000840711
0.000748098
-0.000882573
-0.0597038
0.01629
-0.0157938
0.0166918
-0.0626799
-0.0639293
-0.0147742
-0.00057888
0.000683401
0.0537521
0.000679515
-0.000749461
0.0531175
0.0539778
-0.000519105
0.000400035
0.054001
0.0547937
0.000235453
-0.000223314
0.0538165
0.0545245
0.000245828
-0.000285618
0.0530594
0.0535725
0.000321729
-0.000336563
0.0529858
0.0531169
0.000317275
-0.000259123
0.0535514
0.0534073
0.000165443
-4.74671e-05
0.0542952
0.0541504
0.000520644
-0.00110498
0.0544796
0.0542172
0.0534612
0.0538352
-0.0546772
-0.000154485
-0.000134413
0.0554686
-0.0555634
8.81052e-06
0.000172052
0.0556573
-0.0557532
-0.000427944
-0.000199189
0.0558502
-0.0559518
-0.000940145
-0.000677296
0.0560571
-0.05617
-0.00144837
-0.00119215
0.0562894
-0.0564191
-0.00188623
-0.00166633
0.0565576
-0.0567082
-0.00223354
-0.00205442
0.0568686
-0.0570418
-0.00251643
-0.00236187
0.0572241
-0.0574177
-0.00277175
-0.00262541
0.0576175
-0.0578248
-0.00300941
-0.00287122
0.0580333
-0.058244
-0.00320863
-0.00309184
0.0584501
-0.0586519
-0.00334345
-0.00326049
0.0588425
-0.0590214
-0.00340131
-0.00335731
0.0591814
-0.0593208
-0.00337957
-0.00337587
0.059433
-0.0595155
-0.00328052
-0.00331577
0.059563
-0.059573
-0.00311825
-0.00318383
0.059543
-0.059471
-0.00292529
-0.00300288
0.0593581
-0.0592038
-0.00275203
-0.00281435
0.0590127
-0.0587864
-0.00266578
-0.00267657
0.058535
-0.0582621
-0.00274303
-0.00266284
0.0579683
-0.0565764
-0.00307024
-0.00285409
0.0556657
-0.0556781
-0.00441253
-0.00331925
0.0565133
-0.0598873
-0.00670769
-0.00637681
0.0606136
-0.0680687
-0.00100535
-0.00720266
-0.0323974
-0.0400324
0.00436117
-0.0112499
0.024343
-0.0454905
-0.0503033
-0.000979038
-0.00843684
-0.0304702
0.00990689
-0.0403847
-0.00210113
0.000921092
0.0541527
-0.00166417
0.0523564
-0.00649689
-0.0248777
0.0114821
-0.0439674
-0.00393457
-0.0220305
0.0129648
-0.0482313
-0.00111025
-0.0228143
0.0149005
-0.052131
0.000747638
-0.0275538
0.0161834
-0.0563918
0.00251921
-0.0364358
0.00381592
-0.0482952
0.00757971
-0.052774
0.0129599
-0.0469411
-0.0595639
0.0165519
0.0161557
-0.0649482
-0.0151368
0.0166577
-0.0631819
-0.0154505
0.0161973
-0.0656951
0.0538263
-0.0530422
-0.00153351
-0.00623364
0.0107585
-0.0500153
-0.00129514
0.000535085
0.0538776
-0.0489716
-0.00756533
-0.000755198
0.0532864
-0.0353632
-0.0653766
0.0642291
-0.0139892
-0.0141986
-0.0633038
0.0616888
-0.0136395
-0.0138489
-0.0612479
0.0601206
-0.0128129
-0.0131047
-0.0590348
0.0572781
-0.0107534
-0.0114064
-0.0566985
0.0561948
-0.00957268
-0.0102378
-0.0557507
0.0553681
-0.00837757
-0.0090349
-0.0550406
0.0547681
-0.00720544
-0.00783878
-0.0545438
0.0543665
-0.00608201
-0.00667942
-0.0542305
0.0541338
-0.0050257
-0.00558012
-0.054072
0.054043
-0.00404762
-0.00455498
-0.0540432
0.0540699
-0.00315727
-0.00361386
-0.0541202
0.0541906
-0.00236179
-0.00276554
-0.0542787
0.0543809
-0.00166406
-0.00201482
-0.0544951
0.0546178
-0.00106725
-0.00136383
-0.0547473
0.0548807
-0.000579128
-0.000817895
-0.0550169
0.0551532
-0.000207013
-0.000385853
-0.0552891
0.0554219
5.60674e-05
-6.96884e-05
-0.0555508
0.0556732
0.000240886
0.000149436
-0.0557877
0.0558916
0.000395364
0.000313048
-0.0559832
0.0560596
0.000561027
0.000469447
-0.056119
0.0561592
0.000749774
0.000647557
-0.0561792
0.0561777
0.000938064
0.00084077
-0.0561555
0.0561119
0.00108303
0.00101274
-0.0557394
0.0558389
0.000741215
0.00112068
-0.054469
0.0541081
-2.53232e-05
0.000487318
0.00058186
-0.000747773
0.000258082
0.0542418
0.0537651
-0.000458582
-0.000208369
0.0546679
0.0545932
0.00015001
-0.000133626
0.0538001
0.0544662
0.000152181
-0.000190298
0.0530975
0.0535911
0.000228634
-0.000249815
0.053007
0.0531552
0.000240775
-0.000195504
0.0535061
0.0533983
0.000115746
-1.08233e-05
0.0541903
0.0540706
0.000479812
-0.00063243
0.0546322
0.0546862
0.0537499
-0.0514706
-0.00252885
0.0523352
0.0532658
-0.0547464
-0.000634849
-0.000400105
0.0546432
-0.055188
0.000390378
-0.000237607
0.0552638
-0.055342
8.70003e-05
0.000247857
0.0554218
-0.0555056
-0.000344168
-0.000119426
0.0555926
-0.0556858
-0.000846983
-0.000590218
0.0557841
-0.0558904
-0.00134209
-0.00109385
0.0560033
-0.056126
-0.00176359
-0.00155339
0.0562567
-0.0563988
-0.00209141
-0.00192371
0.0565503
-0.0567144
-0.00235229
-0.0022104
0.0568881
-0.0570739
-0.00258597
-0.00245176
0.057267
-0.0574693
-0.00280715
-0.00267803
0.0576747
-0.0578843
-0.00299903
-0.00288646
0.0580917
-0.0582979
-0.00313728
-0.00305304
0.0584963
-0.0586873
-0.00321034
-0.00315886
0.0588642
-0.0590261
-0.00321765
-0.00319901
0.0591665
-0.0592837
-0.00316329
-0.00317536
0.0593722
-0.0594301
-0.00306039
-0.00309534
0.0594537
-0.0594414
-0.00293757
-0.00297926
0.0593924
-0.0593057
-0.00283868
-0.00286339
0.0591843
-0.0590292
-0.00282087
-0.00279804
0.0588468
-0.0586391
-0.00295078
-0.00284518
0.058418
-0.0581918
-0.00329646
-0.00307515
0.057975
-0.0585095
-0.00387807
-0.00353602
0.0591671
-0.0602954
-0.00557941
-0.00571918
0.0632454
-0.059736
-0.00451476
-0.00425266
0.0533867
-0.0507877
-0.00357803
-0.00198813
0.0030193
0.00329042
-0.0552813
0.0525456
-0.0413448
-0.00818142
-0.00580748
-0.00837249
-0.0285946
0.0100689
-0.0389714
-0.00603749
-0.0227748
0.011711
-0.0427136
-0.00310513
-0.0200356
0.0132361
-0.0465668
-7.00411e-05
-0.0219967
0.0145144
-0.050462
0.00258311
-0.0276177
0.0154558
-0.0555576
0.00385108
-0.036471
0.00552638
-0.0462419
0.00947366
-0.0492878
0.0116903
-0.047873
0.00642328
-0.0531482
-0.00466592
0.0374286
-0.0741076
0.00317662
-0.0631239
0.0678261
-0.0140191
-0.0686413
0.0148343
-0.0596627
0.0167565
0.016467
-0.0634515
0.016082
-0.0671012
-0.00120034
0.00128158
0.0537964
0.0533225
-0.0543058
-0.000550205
0.0517331
-0.0528901
-0.00137185
0.0020189
0.0511006
-0.00138634
0.00147691
0.0528772
0.0538462
-0.00127895
-0.00185929
0.0539453
-0.0336668
-0.0669045
0.0661216
-0.0137767
-0.0141169
-0.0652436
0.0640945
-0.0128401
-0.0133206
-0.0629442
0.0617952
-0.0124905
-0.0126986
-0.0603036
0.0585831
-0.0110925
-0.011613
-0.0578748