/*--------------------------------*- C++ -*----------------------------------*\
  =========                 |
  \\      /  F ield         | OpenFOAM: The Open Source CFD Toolbox
   \\    /   O peration     | Website:  https://openfoam.org
    \\  /    A nd           | Version:  10
     \\/     M anipulation  |
\*---------------------------------------------------------------------------*/
FoamFile
{
    format      ascii;
    class       volScalarField;
    location    "6.5";
    object      p;
}
// * * * * * * * * * * * * * * * * * * * * * * * * * * * * * * * * * * * * * //

dimensions      [0 2 -2 0 0 0 0];

internalField   nonuniform List<scalar> 
33313
(
-0.0132353
-0.0140825
-0.00799668
-0.0149402
-0.00134412
-0.000231946
-0.000998043
0.0095303
0.00824625
-0.0110953
-0.00693578
-0.390149
-0.390362
-0.392979
0.0320471
0.0147828
0.035858
-0.240048
-0.32866
-0.283248
-0.202062
0.78181
0.700351
0.844226
0.849534
0.181748
0.186846
0.189027
0.199633
0.190836
0.202561
0.204681
0.23434
-0.403668
-0.415171
-0.404957
-0.387496
-0.0138112
-0.0202234
-0.259647
-0.247367
0.28962
0.275
-0.389374
-0.414695
-0.434658
0.735476
0.814546
-0.0175577
-0.0169841
0.199558
0.227995
0.207693
0.254614
0.139342
0.165068
0.411567
0.534382
0.465991
0.373572
0.428023
0.843945
0.908048
0.936602
-0.0252699
-0.0469969
-0.239821
-0.107035
-0.109174
-0.522
-0.545765
-0.541355
-0.347154
-0.286652
-0.455904
-0.441252
-0.399738
-0.418478
-0.163802
-0.216572
0.55815
0.546541
0.570486
-0.339134
-0.359153
-0.385102
-0.480106
-0.459998
-0.457741
0.925819
-0.374495
-0.379153
-0.363021
-0.356492
-0.364283
0.187558
0.176939
-0.0017403
-0.00369526
-0.193284
-0.174153
-0.2356
-0.277006
-0.271598
-0.297241
-0.419523
-0.459882
-0.450987
-0.421271
-0.0429645
0.134806
0.0783971
-0.0539357
-0.609911
-0.718664
-0.557035
0.911086
0.868271
-0.264179
-0.26304
-0.36964
-0.372359
-0.371595
-0.0245215
-0.0213682
-0.0403314
0.329764
-0.102916
-0.0997513
-0.44381
-0.458174
-0.3587
-0.360533
0.0982635
0.0799333
-0.04311
0.0279124
-0.0797051
0.00460883
0.215619
0.109427
0.328648
-0.0947638
-0.0950312
-0.106149
0.02497
0.0204116
0.0202109
0.0161783
0.317314
0.2984
0.326034
0.310777
0.429224
0.433857
0.402497
0.406722
-0.436152
-0.49838
-0.487011
-0.364175
0.0892238
0.129034
0.254521
0.145842
-0.353876
-0.369848
-0.37227
-0.472106
-0.0105942
-0.00922247
0.0419135
0.0409797
0.0299815
0.0288666
0.181394
0.164955
-0.447349
-0.461595
-0.00590285
-0.0122899
-0.00849533
-0.0118609
0.131494
0.131705
-0.508094
-0.521591
-0.472888
-0.48633
-0.471243
-0.475433
0.541936
0.516592
-0.493807
-0.501867
0.414305
0.434258
0.436791
0.365281
0.387876
0.378498
0.566042
0.541935
0.136578
0.142452
-0.399746
-0.400185
-0.140319
-0.249293
0.155811
0.150861
-0.00547134
-0.00179826
-0.00506819
-0.00767327
0.028615
-0.346852
-0.365278
0.340259
0.343683
0.322712
0.317563
-0.246294
-0.250384
-0.229712
0.167439
0.188065
0.158385
-0.428815
-0.426558
-0.429049
-0.095035
-0.0496819
0.0440579
0.0291941
0.0276836
-0.439024
0.249361
0.0513635
0.0497692
0.0483236
0.0469874
0.0456116
0.0443139
0.04304
0.0418161
0.0406467
0.039525
0.0384484
0.0374118
0.0364146
0.0354528
0.0345258
0.0336299
0.032765
0.0319277
0.0311183
0.0303337
0.0295742
0.0288373
0.0281232
0.0274304
0.0267593
0.0261112
0.0254847
0.0248562
0.0242656
0.0236493
0.0230642
0.0224972
0.0514619
0.053325
0.0532779
0.0531031
0.021392
0.0219305
0.0230784
0.0219534
0.0225166
0.0242381
0.023645
0.0254925
0.0248632
0.0267872
0.0261341
0.0281553
0.0274614
0.0296088
0.0288711
0.0311553
0.03037
0.0328042
0.0319663
0.0345676
0.0336709
0.0364594
0.0354966
0.0384962
0.0374586
0.0406956
0.039575
0.0430675
0.0418585
0.0457284
0.0443445
0.0484954
0.0470847
0.049885
0.0549943
0.0550024
0.021443
0.0548345
0.0209312
0.0208962
0.0567259
0.0567476
0.0209432
0.0214126
0.0566165
0.0208866
0.058526
0.0584452
0.058501
0.0528054
0.0563926
0.0545712
0.0497163
0.0511923
0.0468138
0.0482983
0.0441323
0.0454426
0.0416622
0.0428727
0.0393902
0.0405025
0.0372932
0.0383218
0.0353475
0.0363027
0.0335362
0.0344262
0.0318442
0.0326762
0.0302591
0.0310391
0.0287702
0.0295034
0.027368
0.0280592
0.0260379
0.0266963
0.0247947
0.0253905
0.0236202
0.0241944
0.0224833
0.0230465
0.0219431
0.0204452
0.020377
0.0204169
0.0219959
0.0209416
0.0214773
0.023068
0.0225146
0.0242326
0.0236499
0.0254724
0.0248418
0.0267709
0.0261143
0.0281395
0.0274457
0.0295911
0.0288545
0.0311346
0.0303509
0.0327799
0.031944
0.0345391
0.0336446
0.0364263
0.0354658
0.0384589
0.0374233
0.0406557
0.0395362
0.0430262
0.0418181
0.0456547
0.0442973
0.0485214
0.047087
0.05144
0.0499597
0.0548856
0.0531242
0.0584979
0.0567315
0.020445
0.0582606
0.0604638
0.0604262
0.0198981
0.0203435
0.0198615
0.0603277
0.0209194
0.0204253
0.0204025
0.0601606
0.0604192
0.056072
0.0598168
0.0579423
0.0525554
0.0542622
0.0495295
0.0510064
0.0466119
0.0480716
0.0439329
0.0452304
0.0414996
0.042693
0.0392512
0.0403528
0.0371726
0.0381924
0.0352419
0.03619
0.033443
0.034327
0.0317615
0.0325885
0.0301854
0.030961
0.0287042
0.0294337
0.0273078
0.0279964
0.0259845
0.0266386
0.0247455
0.0253524
0.0235784
0.0241488
0.0224569
0.0230101
0.021384
0.0219156
0.0208532
0.0199495
0.0199301
0.0199312
0.0199502
0.0219778
0.0214512
0.0230549
0.0225116
0.0242139
0.0236237
0.0254383
0.024816
0.0267322
0.026077
0.0280975
0.0274055
0.0295441
0.0288102
0.0310812
0.0303009
0.0327189
0.0318869
0.034469
0.0335792
0.0363461
0.0353908
0.0383674
0.0373376
0.0405528
0.0394388
0.0429175
0.0417115
0.0455098
0.0441802
0.048369
0.0469138
0.0514019
0.0498712
0.0547575
0.0530212
0.0583839
0.0565559
0.0624226
0.0622894
0.0602889
0.0621504
0.0618146
0.0623305
0.0624627
0.0199063
0.0643617
0.0645529
0.0194288
0.0193894
0.0203058
0.0642522
0.0639289
0.0198195
0.0624278
0.0593609
0.0633772
0.0613038
0.0556464
0.0574927
0.052251
0.0539225
0.0491976
0.0506916
0.0463108
0.0477386
0.043686
0.0449625
0.041289
0.0424648
0.0390693
0.0401576
0.0370139
0.0380224
0.035103
0.0360416
0.0333205
0.0341967
0.0316531
0.0324733
0.0300892
0.030859
0.0286185
0.0293429
0.0272317
0.0279154
0.0259212
0.0265676
0.0246873
0.0252954
0.023521
0.024097
0.0224037
0.0229556
0.0213367
0.0218671
0.0208161
0.0194682
0.0194546
0.0194509
0.019468
0.0208846
0.0198799
0.0203728
0.0219355
0.0214061
0.0230244
0.0224748
0.0241732
0.0235877
0.0253905
0.0247734
0.0266764
0.0260248
0.028035
0.0273463
0.0294738
0.028744
0.0310016
0.0302261
0.0326281
0.0318019
0.0343653
0.0334822
0.0362275
0.03528
0.038232
0.037211
0.0403981
0.0392938
0.0427465
0.0415481
0.045309
0.043999
0.0481181
0.046682
0.0511791
0.0496192
0.0545029
0.0528074
0.058115
0.0562876
0.0619971
0.0600231
0.0665333
0.0661809
0.0640336
0.0194259
0.0660215
0.065504
0.0644444
0.0646245
0.0193448
0.0684219
0.0656622
0.0678622
0.0663883
0.0667632
0.0688351
0.0682592
0.0198397
0.0193955
0.019357
0.0677376
0.0645965
0.0626724
0.0670358
0.0648014
0.0587589
0.0606733
0.0551398
0.0569188
0.0518109
0.053445
0.0487645
0.0502548
0.0459528
0.0473309
0.0433838
0.0446384
0.0410245
0.0421815
0.0388392
0.0399112
0.0368126
0.0378073
0.0349263
0.0358531
0.0331647
0.0340309
0.0315152
0.0323268
0.0299668
0.0307291
0.0285098
0.0292275
0.0271355
0.0278129
0.0258374
0.0264774
0.0246109
0.0252156
0.0234482
0.0240226
0.0223395
0.0228873
0.021281
0.021804
0.0202649
0.0207652
0.0192961
0.0197747
0.0189653
0.0188848
0.0189295
0.0190045
0.0189904
0.0189839
0.0190014
0.0189209
0.0189574
0.020841
0.0203344
0.0218818
0.0213552
0.0229706
0.0224202
0.0241147
0.0235345
0.0253247
0.0247117
0.0266017
0.0259546
0.0279511
0.0272671
0.0293795
0.028655
0.030895
0.0301259
0.0325072
0.0316885
0.0342278
0.0333533
0.0360707
0.0351331
0.038053
0.0370435
0.0401934
0.0391024
0.0425142
0.0413298
0.0450422
0.0437512
0.0477977
0.0463902
0.0508136
0.049271
0.0541172
0.05243
0.0576903
0.0558764
0.0615434
0.0595901
0.0635645
0.0707592
0.0701438
0.0188312
0.0699984
0.0692282
0.0666716
0.0668896
0.0188843
0.0686868
0.0691334
0.0705905
0.0712627
0.0725183
0.0732224
0.0723974
0.0192432
0.0187774
0.0716175
0.0668605
0.0660354
0.070573
0.068277
0.0618657
0.0639169
0.0580356
0.0599123
0.0545117
0.056248
0.0512471
0.0528437
0.048268
0.0497238
0.0455368
0.0468743
0.0430248
0.0442544
0.0407101
0.041845
0.0385652
0.0396178
0.0365724
0.037551
0.0347149
0.0356279
0.0329781
0.0338323
0.03135
0.0321512
0.02982
0.0305734
0.0283792
0.0290891
0.0270194
0.0276897
0.025734
0.0263679
0.0245171
0.0251174
0.0233623
0.0239325
0.0222621
0.0228059
0.0212116
0.021731
0.0202103
0.0207028
0.019723
0.0184336
0.0183183
0.0183775
0.0185136
0.0184806
0.0185506
0.0185402
0.0185256
0.0185432
0.0184655
0.0184982
0.0184254
0.0197905
0.0188379
0.0193096
0.0207833
0.0202828
0.0218177
0.0212949
0.0229013
0.0223531
0.0240401
0.0234634
0.0252411
0.0246327
0.026508
0.0258661
0.0278459
0.0271678
0.0292614
0.0285436
0.0307619
0.0300006
0.0323568
0.031547
0.0340572
0.0331931
0.0358768
0.0349513
0.0378318
0.0368364
0.0399405
0.038866
0.0422244
0.0410592
0.0447075
0.04344
0.0474079
0.0460297
0.0503534
0.0488477
0.0535815
0.051931
0.0570978
0.0553059
0.0608749
0.0589472
0.0649446
0.0628676
0.0693059
0.0670846
0.0749537
0.0739724
0.0716143
0.0737663
0.0725865
0.0690354
0.0692977
0.0764222
0.0775284
0.0711044
0.0716366
0.0730815
0.0738131
0.0178777
0.0182562
0.017815
0.0747416
0.0757972
0.0762006
0.018375
0.0749099
0.0692528
0.0692093
0.0734226
0.0712566
0.0649436
0.0670914
0.0608943
0.0628721
0.0571877
0.0590095
0.0537552
0.0554383
0.0505988
0.0521418
0.0477131
0.0491243
0.045061
0.0463606
0.0426122
0.0438122
0.0403499
0.0414595
0.0382504
0.0392812
0.0362959
0.0372561
0.0344711
0.0353683
0.0327625
0.0336031
0.0311588
0.0319482
0.0296501
0.0303932
0.0282278
0.0289287
0.0268844
0.0275467
0.025613
0.0262401
0.024408
0.0250026
0.0232634
0.0238286
0.0221727
0.0227118
0.0211312
0.0216462
0.020139
0.020628
0.0191846
0.0196563
0.0187156
0.017992
0.0179396
0.0180702
0.0180352
0.0181001
0.0180918
0.0180779
0.0180952
0.0180208
0.0180526
0.0187816
0.0183207
0.0179271
0.0179756
0.0197304
0.0192522
0.0207137
0.0202161
0.0217418
0.0212221
0.0228184
0.0222737
0.0239495
0.0233769
0.0251403
0.0245372
0.0263955
0.0257596
0.0277201
0.0270488
0.0291203
0.0284105
0.0306034
0.0298511
0.0321781
0.0313788
0.0338551
0.0330032
0.0356475
0.0347362
0.0375707
0.0365919
0.039642
0.0385869
0.0418813
0.0407395
0.04431
0.0430709
0.0469467
0.0456015
0.0498132
0.0483497
0.0529391
0.0513422
0.0563473
0.0546077
0.0600287
0.0581554
0.0639745
0.0619582
0.068241
0.0660728
0.0727346
0.070421
0.0789336
0.0773727
0.075035
0.0773748
0.0757604
0.0801824
0.0814624
0.0797759
0.0715159
0.0718175
0.0736716
0.0742603
0.0174505
0.0173872
0.0756124
0.0765087
0.0773773
0.0785071
0.0788487
0.0178732
0.0782077
0.080032
0.0829567
0.0841329
0.0822526
0.0806041
0.0762315
0.0181877
0.0177472
0.078511
0.071775
0.0717674
0.0739405
0.0676888
0.0696698
0.0636412
0.0656502
0.0597657
0.0616664
0.0561983
0.0579463
0.0529084
0.0545198
0.0498813
0.0513631
0.0470978
0.048461
0.0445289
0.0457885
0.0421509
0.0433172
0.039947
0.0410286
0.0378972
0.0389041
0.0359851
0.036925
0.0341965
0.0350763
0.0325193
0.0333448
0.0309428
0.0317191
0.0294578
0.0301894
0.0280562
0.0287471
0.0267309
0.0273845
0.0254753
0.0260948
0.0242839
0.024872
0.023151
0.0237105
0.0220709
0.0226047
0.0210395
0.0215494
0.0200552
0.0205413
0.0191107
0.0195781
0.0186464
0.0175593
0.0175074
0.0176308
0.0176013
0.0176559
0.0176484
0.0176408
0.0176536
0.0175822
0.0176174
0.0174898
0.0175412
0.0801161
0.0847503
0.0824694
0.0174321
0.0187166
0.0178099
0.0182596
0.0196559
0.0191829
0.0206326
0.0201391
0.0216534
0.0211374
0.022722
0.0221815
0.0238435
0.0232759
0.0250229
0.0244258
0.0262648
0.0256358
0.0275743
0.0269108
0.0289572
0.0282562
0.0304205
0.0296784
0.0319724
0.0311849
0.033623
0.0327848
0.0353847
0.0344893
0.0372718
0.0363118
0.0393004
0.0382675
0.0414885
0.0403735
0.0438548
0.0426484
0.0464172
0.0451106
0.0491944
0.0477779
0.0522068
0.0506702
0.0554739
0.0538077
0.0590041
0.0572072
0.0627943
0.0608651
0.0668382
0.0647899
0.0712006
0.0689856
0.0755854
0.073368
0.0778344
0.0741455
0.0744636
0.0173187
0.0763545
0.0770062
0.0784039
0.0793155
0.0802189
0.0813235
0.0816641
0.0826369
0.0808935
0.0830033
0.085845
0.0868794
0.0848296
0.0873475
0.0173716
0.0832844
0.0783521
0.0177415
0.0173042
0.0804851
0.074422
0.0741076
0.0761825
0.0699167
0.0719511
0.0659764
0.0678912
0.0621623
0.0640565
0.0584973
0.0602979
0.0551151
0.0567717
0.05199
0.0535225
0.0490988
0.0505164
0.0464243
0.0477359
0.0439459
0.0451621
0.0416445
0.0427742
0.0395041
0.0405553
0.0375082
0.0384892
0.035642
0.0365598
0.0338929
0.0347536
0.0322499
0.0330589
0.0307031
0.0314651
0.0292441
0.0299632
0.0278652
0.0285452
0.0265597
0.0272038
0.0253215
0.0259326
0.0241451
0.024726
0.0230253
0.0235785
0.021957
0.022485
0.0209363
0.0214409
0.0199603
0.020443
0.019024
0.019487
0.0181173
0.0185645
0.0172451
0.0176758
0.0170344
0.0169005
0.0169696
0.0171359
0.01709
0.0171985
0.0171732
0.017221
0.017214
0.0172085
0.0172194
0.0171548
0.0171876
0.0170637
0.0171141
0.0169441
0.0170075
0.0186416
0.0181888
0.0195709
0.0191006
0.0205405
0.0200507
0.021553
0.0210412
0.0226122
0.0220765
0.0237228
0.0231609
0.0248894
0.0242989
0.0261165
0.0254952
0.0274091
0.0267543
0.0287727
0.0280817
0.030214
0.0294833
0.0317407
0.0309662
0.0333622
0.032539
0.0350899
0.0342121
0.0369369
0.0359977
0.038918
0.0379099
0.0410492
0.039964
0.0433466
0.0421763
0.0458259
0.0445627
0.0485032
0.0471391
0.0513934
0.0499212
0.054509
0.0529226
0.0578592
0.0561547
0.0614479
0.0596242
0.0652716
0.0633293
0.0693576
0.0672903
0.0735216
0.0714228
0.0777986
0.0756325
0.0821697
0.0799611
0.0872347
0.0843553
0.0168273
0.0769098
0.0772342
0.0168779
0.0792497
0.0798661
0.0813745
0.0822415
0.0831545
0.0842668
0.0845
0.0853532
0.0854826
0.0825411
0.0854728
0.0888075
0.0897202
0.0900475
0.0897437
0.0865299
0.0845714
0.0794678
0.0171684
0.0167496
0.0812977
0.0772021
0.075636
0.0776026
0.0717956
0.0737467
0.0678575
0.0698317
0.0641362
0.0659764
0.0605607
0.0623414
0.0571353
0.0588187
0.0539586
0.055517
0.0510051
0.0524557
0.0482556
0.0496057
0.0456977
0.0469537
0.0433164
0.0444861
0.0410963
0.0421872
0.0390239
0.0400426
0.0370855
0.0380389
0.0352686
0.0361627
0.033562
0.0344023
0.0319558
0.032747
0.0304411
0.0311876
0.02901
0.0297156
0.0276557
0.0283238
0.0263717
0.0270053
0.0251522
0.0257543
0.0239922
0.0245652
0.0228867
0.023433
0.0218311
0.022353
0.0208217
0.0213209
0.0198548
0.0203332
0.0189263
0.0193861
0.0180347
0.018474
0.0175983
0.0164912
0.0163358
0.0164162
0.0166246
0.0165633
0.0167214
0.0166792
0.016775
0.0167527
0.0167959
0.0167894
0.0167836
0.016794
0.016736
0.0167649
0.0166477
0.0166949
0.0165309
0.0165918
0.0832057
0.0887332
0.0851489
0.0164621
0.0176638
0.0168062
0.0172307
0.0185545
0.0181067
0.0194761
0.0190101
0.0204375
0.0199519
0.0214407
0.0209338
0.0224895
0.0219592
0.0235879
0.0230323
0.0247403
0.0241572
0.0259512
0.0253382
0.0272252
0.0265801
0.0285678
0.0278877
0.029985
0.0292667
0.0314841
0.0307239
0.0330738
0.0322671
0.0347645
0.033906
0.036568
0.0356515
0.0384975
0.0375163
0.0405667
0.0395139
0.0427894
0.0416582
0.0451788
0.0439627
0.0477475
0.0464402
0.0505067
0.0491029
0.0534644
0.0519606
0.0566264
0.0550197
0.0599966
0.058286
0.0635757
0.0617589
0.0673708
0.0654504
0.0712758
0.0693188
0.0752833
0.0732796
0.0792729
0.0772955
0.08124
0.079835
0.0801347
0.0822773
0.0828522
0.0844311
0.0852745
0.0159376
0.0162541
0.0158559
0.0861554
0.0873005
0.0874612
0.0881179
0.0882712
0.0877998
0.083085
0.0866209
0.0919008
0.0926918
0.0928228
0.0922558
0.0870808
0.0909584
0.0163871
0.0847892
0.0794993
0.0167239
0.0163102
0.0809515
0.0801246
0.0763314
0.0779713
0.0728612
0.0746044
0.0693055
0.071106
0.0656974
0.0674897
0.0622075
0.0639344
0.0588722
0.0605225
0.0557031
0.0572631
0.0527374
0.0541955
0.0499603
0.0513265
0.0473586
0.0486382
0.0449236
0.046121
0.0426444
0.0437654
0.0405097
0.0415597
0.0385091
0.0394934
0.0366316
0.0375557
0.0348669
0.0357358
0.0332054
0.0340239
0.0316383
0.0324107
0.0301578
0.0308878
0.0287566
0.0294477
0.0274284
0.0280838
0.0261673
0.0267899
0.0249681
0.0255603
0.0238257
0.0243901
0.0227356
0.0232744
0.0216938
0.022209
0.0206964
0.0211898
0.0197399
0.0202133
0.0188209
0.0192761
0.0179389
0.0183743
0.017086
0.0175083
0.0166677
0.016093
0.0160137
0.0162203
0.016162
0.016309
0.0162703
0.0163599
0.0163384
0.0163799
0.0163738
0.0163673
0.0163776
0.0163232
0.0163494
0.0162398
0.0162868
0.0161257
0.0161863
0.0159821
0.0160556
0.0175774
0.0171485
0.0184575
0.0180124
0.0193718
0.0189102
0.0203241
0.0198431
0.0213171
0.0208153
0.0223542
0.0218299
0.0234392
0.0228905
0.0245763
0.0240011
0.0257695
0.0251657
0.0270235
0.0263887
0.0283432
0.0276749
0.0297344
0.0290296
0.0312038
0.030459
0.0327593
0.0319704
0.0344103
0.0335724
0.0361671
0.0352749
0.0380412
0.0370889
0.0400443
0.039026
0.0421877
0.0410979
0.0444816
0.0433154
0.0469354
0.0456881
0.0495564
0.0482248
0.05235
0.0509316
0.0553192
0.0538126
0.058466
0.0568707
0.0617912
0.0601061
0.0652878
0.0635205
0.0689119
0.0670874
0.0726031
0.070759
0.0762344
0.0744585
0.0797809
0.0780231
0.0831608
0.081515
0.0889716
0.0847215
0.0828761
0.0831602
0.0853986
0.0859535
0.0155496
0.0154687
0.0875795
0.0884096
0.0893287
0.0904341
0.0904836
0.0910694
0.090993
0.0902155
0.0886875
0.0159046
0.0823248
0.0864575
0.0950345
0.0957045
0.0956384
0.0947982
0.0931861
0.0908132
0.0862389
0.0835414
0.0782176
0.0161665
0.0157693
0.0791689
0.083168
0.0758918
0.0771278
0.0730858
0.0745302
0.069979
0.071567
0.0667183
0.0683606
0.0634052
0.0650561
0.0601968
0.0617835
0.0571338
0.0586475
0.0542179
0.0556565
0.0514636
0.0528206
0.048866
0.050146
0.0464159
0.047623
0.0441075
0.0452445
0.0419341
0.0430045
0.0398882
0.0408957
0.0379625
0.038911
0.0361488
0.0370422
0.0344388
0.0352814
0.0328248
0.0336204
0.0312989
0.0320513
0.0298544
0.030567
0.0284848
0.0291607
0.0271843
0.0278263
0.0259476
0.0265583
0.0247697
0.0253516
0.0236461
0.0242014
0.0225726
0.0231034
0.0215454
0.0220535
0.0205608
0.021048
0.0196159
0.0200837
0.0187076
0.0191574
0.0178352
0.0182665
0.0169917
0.0174108
0.0165743
0.0157002
0.0156284
0.0158216
0.0157652
0.0159031
0.0158669
0.0159528
0.0159317
0.0159719
0.0159663
0.0159593
0.0159696
0.0159166
0.0159416
0.0158405
0.0158833
0.0157274
0.0157875
0.0155859
0.0156599
0.0816623
0.0876459
0.082778
0.0155098
0.0166364
0.0158226
0.0162257
0.0174804
0.0170563
0.0183518
0.0179114
0.019258
0.0188006
0.0202004
0.0197245
0.0211823
0.0206863
0.0222068
0.0216891
0.0232774
0.0227361
0.0243979
0.0238312
0.0255722
0.0249781
0.0268047
0.026181
0.0280999
0.0274442
0.0294633
0.0287728
0.030901
0.0301726
0.0324201
0.03165
0.0340288
0.0332128
0.0357361
0.0348696
0.0375518
0.0366299
0.0394853
0.0385033
0.0415456
0.0404992
0.0437401
0.0426258
0.0460747
0.0448897
0.0485536
0.0472961
0.0511791
0.049848
0.0539532
0.0525476
0.0568764
0.0553963
0.0599481
0.0583941
0.0631529
0.0615359
0.0664598
0.0647955
0.0698276
0.06814
0.0731455
0.0715088
0.0763143
0.0747273
0.079189
0.0778357
0.0804902
0.0860297
0.0863069
0.0153834
0.0886281
0.0891708
0.0908634
0.0916607
0.0925799
0.0936646
0.0936871
0.0940626
0.0937645
0.0926449
0.0907453
0.0880749
0.0799437
0.0846549
0.0982305
0.0987797
0.0985288
0.0973839
0.0954024
0.0925976
0.0837144
0.0889381
0.0154248
0.0805341
0.0753761
0.0157334
0.0153365
0.0756758
0.0863323
0.0741428
0.0748766
0.0722162
0.0732601
0.0697855
0.0710719
0.0670113
0.0684297
0.0640475
0.0655404
0.0610663
0.0625525
0.0581615
0.0596007
0.0553698
0.0567512
0.0526963
0.0540178
0.0501508
0.0514074
0.0477322
0.0489262
0.045435
0.0465686
0.0432552
0.0443307
0.0411898
0.0422085
0.0392351
0.0401989
0.0373868
0.0382979
0.0356393
0.0365009
0.0339864
0.0348015
0.0324217
0.0331935
0.0309389
0.0316705
0.0295321
0.0302265
0.0281956
0.0288555
0.0269242
0.0275521
0.0257131
0.0263114
0.0245577
0.0251287
0.023454
0.0239997
0.022398
0.0229203
0.0213863
0.0218869
0.0204155
0.020896
0.0194828
0.0199446
0.0185856
0.0190299
0.0177223
0.0181499
0.0168883
0.0173016
0.016073
0.0164765
0.0152918
0.0156781
0.0151726
0.0150035
0.0150902
0.0153162
0.015249
0.0154281
0.0153769
0.0155052
0.0154704
0.0155535
0.015533
0.0155717
0.0155664
0.0155592
0.0155693
0.0155171
0.0155418
0.0154452
0.0154851
0.0153371
0.0153961
0.0152003
0.0152743
0.0150373
0.0151205
0.0165413
0.0161353
0.0173746
0.0169533
0.0182381
0.0178024
0.0191349
0.0186823
0.0200669
0.0195964
0.0210368
0.020547
0.0220477
0.021537
0.0231029
0.0225696
0.0242057
0.0236482
0.0253599
0.0247762
0.0265696
0.0259576
0.0278389
0.0271965
0.0291729
0.0284976
0.030577
0.0298659
0.0320576
0.0313074
0.0336218
0.0328289
0.0352772
0.0344377
0.0370318
0.0361417
0.0388931
0.0379488
0.0408675
0.0398659
0.0429599
0.0418989
0.0451732
0.0440515
0.0475082
0.0463255
0.0499653
0.0487216
0.0525449
0.0512398
0.0552473
0.0538808
0.0580699
0.0566442
0.0609946
0.0595215
0.0639869
0.0624847
0.0670026
0.0654953
0.0699618
0.0684969
0.0727396
0.0713811
0.0752081
0.0740269
0.0771975
0.0762536
0.0786477
0.0780135
0.0844999
0.0790944
0.014912
0.0893082
0.0895765
0.0149495
0.091989
0.0925065
0.0942389
0.0950115
0.0959461
0.0969573
0.0969436
0.0971772
0.0965308
0.0950848
0.0927562
0.0895972
0.0856411
0.0757296
0.0809215
0.101514
0.101891
0.101364
0.0999041
0.0975434
0.0942578
0.0901004
0.085104
0.0792681
0.0755014
0.0707716
0.0151992
0.0148187
0.0702545
0.0896232
0.0709177
0.0709794
0.0700491
0.0705764
0.0685276
0.0693737
0.0664392
0.0675385
0.063984
0.0652424
0.061376
0.06269
0.0587332
0.0600542
0.0561252
0.0574214
0.0535934
0.0548486
0.0511525
0.0523611
0.048811
0.0499692
0.0465688
0.0476778
0.0444231
0.0454841
0.0423721
0.0433858
0.0404159
0.0413822
0.0385541
0.0394734
0.036785
0.0376582
0.0351056
0.0359344
0.0335115
0.0342982
0.0319979
0.032745
0.0305599
0.0312698
0.0291922
0.0298676
0.0278902
0.0285334
0.0266491
0.0272623
0.0254646
0.0260501
0.0243329
0.0248925
0.02325
0.0237856
0.0222125
0.0227258
0.021217
0.0217097
0.0202607
0.0207342
0.0193408
0.0197964
0.018455
0.0188939
0.0176009
0.0180242
0.0167758
0.0171849
0.0159738
0.016372
0.0155831
0.0146324
0.0144476
0.0145449
0.014802
0.0147195
0.014938
0.014873
0.015041
0.0149935
0.0151152
0.0150815
0.0151616
0.015142
0.0151789
0.0151739
0.0151666
0.0151764
0.0151252
0.0151495
0.0150555
0.0150938
0.0149552
0.0150098
0.0148214
0.0148912
0.0146602
0.014743
0.0736969
0.0792439
0.0733179
0.0145713
0.0156377
0.014858
0.0152452
0.0164363
0.016035
0.017261
0.0168445
0.0181162
0.0176849
0.019003
0.0185556
0.0199238
0.0194591
0.0208811
0.0203978
0.0218776
0.0213743
0.0229163
0.0223915
0.0240004
0.0234525
0.0251335
0.0245607
0.026319
0.0257195
0.0275611
0.0269328
0.0288642
0.0282048
0.0302331
0.0295401
0.0316734
0.030944
0.0331911
0.0324222
0.0347925
0.033981
0.036484
0.0356267
0.038271
0.0373653
0.0401578
0.0392018
0.0421466
0.0411395
0.0442376
0.0431795
0.0464294
0.0453211
0.04872
0.0475625
0.0511088
0.0499022
0.0535954
0.05234
0.056176
0.0548747
0.0588317
0.0574965
0.061525
0.0601766
0.0642017
0.0628696
0.0667892
0.0655113
0.0691935
0.0680229
0.0712406
0.0702752
0.0728355
0.0721074
0.0737254
0.0733589
0.0737852
0.0927134
0.0929678
0.0954628
0.0959524
0.0977434
0.0984533
0.014087
0.0143505
0.0139889
0.0993842
0.100342
0.100279
0.100288
0.099374
0.097471
0.0946961
0.0909945
0.0864385
0.0810823
0.0693825
0.0749487
0.104847
0.104995
0.104175
0.102388
0.0996193
0.0958022
0.0910283
0.0853877
0.0726955
0.0789186
0.0144797
0.0681683
0.0641582
0.0147635
0.0143856
0.0626553
0.0930385
0.0660194
0.0652761
0.0664987
0.0663813
0.0659812
0.0663148
0.0648274
0.0654721
0.063076
0.0640115
0.0609942
0.062063
0.0587473
0.059885
0.0564251
0.0575908
0.0540988
0.0552587
0.0518163
0.0529503
0.0495988
0.0506988
0.0474544
0.0485173
0.0453841
0.04641
0.0433868
0.0443764
0.0414634
0.0424158
0.0396166
0.0405303
0.0378486
0.0387227
0.03616
0.0369944
0.03455
0.0353454
0.0330162
0.0337738
0.0315552
0.0322769
0.0301631
0.0308509
0.0288359
0.0294917
0.0275694
0.0281954
0.0263598
0.0269578
0.0252031
0.0257751
0.0240959
0.0246436
0.0230347
0.0235598
0.0220164
0.0225204
0.0210381
0.0215225
0.0200969
0.020563
0.0191904
0.0196395
0.0183164
0.0187496
0.0174726
0.0178909
0.0166567
0.0170614
0.0158666
0.0162582
0.0151014
0.0154816
0.0147244
0.014271
0.0141795
0.0144326
0.0143549
0.0145625
0.0145017
0.0146607
0.014615
0.0147325
0.0146999
0.0147771
0.0147583
0.0147933
0.0147887
0.0147812
0.0147908
0.0147407
0.0147645
0.0146725
0.0147099
0.0145768
0.0146284
0.0144485
0.0145169
0.0142919
0.0143737
0.0141111
0.0142044
0.0155329
0.0151465
0.0163237
0.0159255
0.0171405
0.0167286
0.0179863
0.0175597
0.0188627
0.0184206
0.0197716
0.019313
0.0207155
0.0202391
0.0216967
0.0212013
0.0227182
0.0222023
0.0237828
0.0232449
0.0248936
0.0243322
0.026054
0.0254674
0.0272676
0.026654
0.0285384
0.0278957
0.0298706
0.0291966
0.031269
0.0305613
0.0327386
0.0319946
0.0342844
0.0335017
0.0359111
0.0350874
0.0376224
0.0367561
0.0394205
0.0385106
0.0413053
0.0403522
0.0432748
0.0422798
0.0453252
0.0442902
0.0474531
0.0463797
0.0496566
0.0485455
0.0519347
0.0507865
0.0542819
0.0531005
0.0566785
0.055476
0.0590858
0.0578841
0.0614433
0.0602754
0.0636738
0.0625793
0.0656862
0.0647152
0.0673438
0.066566
0.0685414
0.0680137
0.0689264
0.0688613
0.0683957
0.0687781
0.0668555
0.0677841
0.0716934
0.0655907
0.0962413
0.0964773
0.0990623
0.0995052
0.013737
0.0136393
0.101341
0.101993
0.102925
0.103811
0.103648
0.103426
0.102162
0.0998586
0.0964998
0.0922236
0.0870051
0.0809347
0.0740951
0.0140169
0.0608071
0.0666101
0.108211
0.108109
0.10697
0.104778
0.101478
0.0970897
0.091707
0.0854283
0.0782521
0.0142505
0.0138903
0.0585855
0.0554453
0.0703947
0.0639392
0.0529863
0.0965767
0.0591549
0.0574875
0.0613415
0.0604391
0.062137
0.061888
0.0619865
0.062164
0.0611648
0.0616578
0.0597883
0.0605306
0.0580819
0.0589663
0.0561727
0.0571469
0.0541505
0.0551704
0.0520922
0.0531219
0.0500489
0.0510666
0.0480451
0.0490413
0.0460897
0.0470611
0.0441852
0.0451311
0.0423324
0.0432522
0.0405344
0.0414263
0.0387961
0.0396576
0.0371218
0.0379508
0.0355144
0.0363097
0.0339748
0.0347362
0.0325024
0.0332304
0.0310951
0.0317908
0.0297501
0.0304151
0.0284644
0.0291001
0.0272345
0.0278427
0.0260572
0.0266396
0.0249292
0.0254873
0.0238474
0.0243828
0.0228088
0.0233229
0.0218105
0.0223048
0.0208498
0.0213256
0.0199244
0.0203829
0.0190319
0.0194742
0.0181703
0.0185974
0.0173375
0.0177504
0.0165317
0.0169314
0.0157519
0.0161386
0.0149967
0.0153723
0.0146213
0.0139136
0.0138272
0.0140674
0.0139949
0.0141917
0.0141335
0.0142871
0.0142425
0.0143567
0.0143252
0.0143994
0.0143815
0.0144149
0.0144106
0.0144028
0.0144123
0.0143632
0.0143864
0.0142965
0.0143332
0.0142036
0.0142533
0.014083
0.014147
0.0139294
0.01401
0.0137535
0.0138442
0.0579198
0.0619158
0.0556123
0.0136583
0.0146607
0.0139213
0.0142893
0.0154213
0.0150396
0.0162041
0.0158095
0.0170127
0.0166052
0.0178488
0.0174272
0.0187141
0.0182777
0.0196107
0.0191584
0.0205404
0.0200713
0.0215058
0.0210186
0.0225092
0.0220026
0.0235533
0.0230261
0.024641
0.0240916
0.0257753
0.0252022
0.0269594
0.026361
0.0281967
0.0275712
0.029491
0.0288365
0.0308461
0.0301608
0.0322662
0.0315479
0.033755
0.0330019
0.0353158
0.0345263
0.0369506
0.036124
0.0386597
0.037796
0.040441
0.0395416
0.0422906
0.0413577
0.0442029
0.0432393
0.0461731
0.0451811
0.0481982
0.0471789
0.050276
0.0492308
0.0523996
0.051333
0.0545483
0.0534728
0.0566819
0.0556204
0.058738
0.0577244
0.0606356
0.059712
0.0622772
0.0614958
0.0635431
0.0629634
0.0643163
0.0640029
0.0643091
0.0644326
0.0634099
0.0639845
0.0613524
0.0625675
0.0598217
0.0998926
0.100103
0.0135386
0.102771
0.103163
0.105044
0.105623
0.106527
0.107347
0.107073
0.106545
0.104904
0.102109
0.0982015
0.0932106
0.0872913
0.0804508
0.0728895
0.0646923
0.0502037
0.0559256
0.111598
0.111207
0.109693
0.10701
0.103135
0.0981512
0.0921487
0.0851082
0.0771767
0.0685987
0.0529011
0.0594153
0.0135571
0.0468061
0.0449709
0.0138194
0.0134586
0.0414435
0.100236
0.0504997
0.0480058
0.054377
0.0526472
0.0567736
0.0557562
0.0579005
0.0574761
0.058107
0.0581094
0.0576138
0.057933
0.0566121
0.0571666
0.0552538
0.0559692
0.0536566
0.0544786
0.0519175
0.0527993
0.0501144
0.05102
0.0482992
0.0492061
0.0464986
0.0473961
0.0447236
0.0456076
0.0429782
0.0438471
0.0412652
0.0421174
0.0395897
0.0404224
0.0379583
0.0387681
0.0363772
0.0371612
0.0348511
0.0356071
0.0333824
0.0341095
0.031972
0.03267
0.0306192
0.0312886
0.0293223
0.029964
0.0280789
0.0286941
0.0268865
0.0274766
0.0257425
0.0263087
0.0246439
0.0251877
0.0235882
0.0241109
0.0225728
0.0230757
0.0215951
0.0220794
0.0206528
0.0211197
0.0197438
0.0201943
0.0188658
0.019301
0.018017
0.0184379
0.0171957
0.0176031
0.0164003
0.0167949
0.0156297
0.016012
0.0148812
0.015253
0.0141497
0.0145135
0.013438
0.0137902
0.0133921
0.0131978
0.0132954
0.0135638
0.013482
0.0137103
0.0136415
0.0138274
0.0137719
0.0139201
0.0138768
0.0139875
0.013957
0.0140286
0.0140113
0.0140432
0.0140392
0.0140312
0.0140405
0.0139925
0.0140152
0.0139274
0.0139632
0.0138365
0.0138851
0.0137209
0.0137818
0.0135745
0.0136521
0.0134015
0.013492
0.0132068
0.0133046
0.0145518
0.0141849
0.0153036
0.0149251
0.0160783
0.015688
0.016878
0.016475
0.0177039
0.0172876
0.0185578
0.0181273
0.0194414
0.0189958
0.0203565
0.0198949
0.0213052
0.0208266
0.0222899
0.021793
0.0233129
0.0227965
0.0243767
0.0238396
0.0254839
0.0249247
0.0266375
0.0260548
0.0278404
0.0272327
0.0290956
0.0284613
0.0304065
0.029744
0.0317759
0.0310837
0.0332068
0.0324836
0.0347009
0.0339459
0.0362588
0.035472
0.0378792
0.0370614
0.0395583
0.0387118
0.0412904
0.0404182
0.0430687
0.0421743
0.044887
0.0439732
0.0467412
0.0458098
0.0486278
0.0476808
0.0505384
0.0495811
0.052451
0.0514965
0.0543243
0.0533959
0.0560953
0.0552272
0.0576822
0.0569174
0.0589847
0.058376
0.0598882
0.0594931
0.0602638
0.0601527
0.0599111
0.0601909
0.0586383
0.0594049
0.0561796
0.0575945
0.0522918
0.0544481
0.0468933
0.0498357
0.0497001
0.0435467
0.0130923
0.103659
0.10384
0.0131034
0.106588
0.106919
0.108829
0.109331
0.110193
0.110934
0.110503
0.109649
0.107549
0.104213
0.0996591
0.0939707
0.0872212
0.0796226
0.0712757
0.0622279
0.0526988
0.0373294
0.0428071
0.114981
0.114254
0.112298
0.109072
0.104582
0.0989125
0.0921219
0.0842718
0.0756107
0.066274
0.0563196
0.0397214
0.0459155
0.0325373
0.0324275
0.0133368