/*--------------------------------*- C++ -*----------------------------------*\
  =========                 |
  \\      /  F ield         | OpenFOAM: The Open Source CFD Toolbox
   \\    /   O peration     | Website:  https://openfoam.org
    \\  /    A nd           | Version:  10
     \\/     M anipulation  |
\*---------------------------------------------------------------------------*/
FoamFile
{
    format      ascii;
    class       surfaceScalarField;
    location    "39.5";
    object      phi;
}
// * * * * * * * * * * * * * * * * * * * * * * * * * * * * * * * * * * * * * //

dimensions      [0 3 -1 0 0 0 0];

internalField   nonuniform List<scalar> 
81299
(
0.0339591
0.0241135
-0.0386337
-0.0194389
0.0491356
-0.0283985
0.013222
-0.0513581
-0.0236933
0.0194968
0.0555546
-0.00825593
0.0278447
-0.0709469
0.072824
-0.0761457
-0.00493426
0.0565779
-0.00744717
0.080497
-0.00442237
-0.0426818
0.0336695
0.064567
0.0423815
-0.0572186
-0.054156
-0.0292589
0.00929692
0.0741179
0.00301498
-0.0351213
-0.0220496
0.0348745
-0.00663431
-0.0252252
-0.0166776
0.0222933
-0.040773
-0.00146391
0.0515339
-0.0175302
0.007695
-0.0309379
-0.0285379
-0.122604
0.0296863
0.107812
-0.014894
-0.0084379
0.0178606
-0.0198884
0.0207404
0.0238749
-0.0199502
-0.024665
0.0023754
0.0508205
-0.0324555
-0.036926
-0.0316455
-0.0108574
0.00325596
0.0147765
-0.00717513
-0.016359
-0.00113268
-0.0017747
-0.0366152
-0.076629
0.0256227
0.0806925
0.0344889
-0.0465508
0.0776558
0.0131685
-0.0652016
0.0729069
-0.00596337
0.0107123
-0.0585842
0.0323754
0.0457699
-0.0195611
-0.00914403
-0.0886201
0.0391799
0.0712873
-0.00752438
-0.0138909
0.000775417
0.00826972
0.00401148
-0.0130566
0.0104515
0.00226512
-0.0119412
0.00104402
0.00575857
0.00364895
0.00484293
0.00447081
0.0219292
-0.0218654
-0.00789864
0.00783485
-0.000176276
0.0237465
-0.00164105
0.00288916
-0.013836
-0.0109186
-0.0184411
0.0197522
0.00157806
0.000558313
-0.0193835
0.000384082
0.00241581
-0.0156935
-0.01765
0.00914722
0.00128809
-0.0195604
-0.00111125
0.00409738
-0.0185027
-0.0160901
0.00253749
-0.0371204
-0.0363519
0.0234982
0.0499741
-0.0326421
0.0198268
-0.024305
0.0224937
-0.0453182
-0.00981765
-0.0381478
0.0242895
-0.0447185
0.0275115
0.0411896
-0.0239826
0.0233151
-0.0445354
0.0879161
0.017194
-0.05252
-0.0525901
-0.0049524
0.0271398
0.0657287
-0.0620254
0.0558649
0.00120813
0.00999196
-0.0548234
0.0206852
-0.0408298
0.0630362
-0.0698563
0.0900537
-0.045227
0.0182095
0.0600527
0.0571408
-0.0465715
0.0371926
0.0423066
-0.0329277
0.0292464
-0.0483065
0.052313
0.0240257
-0.0470922
0.016843
0.0726626
0.000822912
-0.000400071
-0.0013928
0.000969959
-0.000992123
0.00181504
-0.00139219
-0.000462194
0.000334462
0.001767
-0.00163927
0.000307697
-0.000769892
0.000642159
7.21101e-05
0.000454824
0.000320678
-0.000847611
0.000226355
-0.000154245
0.000681179
0.034097
0.00163769
-0.00642582
-0.0293089
0.0249859
-0.0198892
0.0290003
-0.0244261
-0.0119752
-0.0108132
0.00486404
-0.00860389
-0.00467282
0.00841267
-0.0302397
0.0113299
0.0187335
-0.0142808
-0.0110949
-0.0134246
0.0247545
0.00903144
-0.0255648
0.0321467
-0.0156134
-0.0300165
-0.00627017
0.000186385
-0.00311058
-0.0270923
-0.000125354
-0.0252531
-0.0204899
-0.0240091
0.0298976
0.0146014
-0.00833008
0.0198398
-0.0319996
0.00383451
-0.0361737
0.0703276
0.0412289
-0.0224983
-0.0890582
0.013497
-0.122207
0.109242
-0.000532592
0.0959762
-0.0121516
0.00146507
-0.0656217
-0.05805
0.0430961
-0.077695
-0.00940608
0.044005
0.0124196
0.0233085
-0.014103
-0.0186793
0.00947376
-0.0206458
0.0416861
0.0022682
-0.00965172
-0.0174199
-0.00337207
-0.0203827
-0.0222213
0.000170015
0.117963
0.00174563
-0.0476431
0.0455363
0.0716576
0.000769191
-0.00332666
0.000524653
-0.00137859
0.0041806
-0.000365997
0.00255216
-0.00551282
-0.00356024
0.00343131
-1.05665e-06
0.000129982
-0.000672079
-0.000511906
-0.00237625
0.0286774
0.0233639
-0.0316345
-0.0204068
0.0226763
0.0138156
0.0018096
-0.0122462
-0.00337903
0.00302618
0.00496189
0.00582753
-0.00193969
0.00236872
-0.00076246
0.000333426
0.000192485
0.00271076
-0.0146624
0.0373963
0.0228023
0.013166
0.00666311
-0.00500434
-0.0148248
-0.0141812
-0.00196164
0.0170269
-0.00932141
0.0160411
0.0124557
0.0233047
-0.0268692
-0.00458203
0.0314512
-0.0114845
-0.0153847
-0.026258
0.0372254
-0.0224519
0.00508843
-0.0133511
-0.0179953
-0.000992951
-0.00394428
0.00493723
-0.00609342
-0.00694821
0.0120487
-0.0102963
0.00197505
-0.00202058
-0.0184572
-0.0153934
0.00127831
-0.0130322
-0.0126289
0.0021342
0.00643744
-0.00340906
-0.00302839
-0.00553778
0.0341069
0.00248838
0.00210874
0.0254783
-0.0378855
0.00383655
0.0333003
0.000748666
-0.0279727
0.00277035
-0.0126831
0.0283141
0.0149267
-0.0266716
-0.0165692
0.0228899
0.0288138
-0.0318639
0.0143151
0.0384725
0.0542428
0.0157999
-0.00840916
0.039088
0.00826061
-0.0389395
0.0421021
-0.0402987
-0.0102126
0.00663559
-0.00660921
0.0420757
0.000262772
0.0454608
0.0415692
-0.0316905
-0.0148817
0.00500302
0.047867
0.00196274
-0.00293135
-0.000669355
0.000274872
0.00332583
-0.00102628
-0.000266246
-0.00163882
-0.0019011
0.00122371
-0.0003489
-0.00303917
0.00226772
0.00109213
-0.00081096
-0.000283257
0.000246606
-0.000823947
0.0162263
-0.016766
0.0296447
0.05285
0.0436514
-0.00455253
0.000287312
0.00132247
0.00182153
-0.000233838
0.000301358
0.000219793
-0.000449542
0.000214648
0.000264894
0.00135893
0.000740239
0.000764069
-0.00217639
-0.000158642
0.000449339
-0.000163274
0.000768701
-0.00996528
0.0111506
3.43563e-05
-0.0012197
-0.0155981
0.00748029
-0.00184744
-0.0163181
0.00122445
-0.000504454
8.98969e-05
0.000895756
0.0175196
-0.000865817
-0.0289
0.0211343
0.00134719
-0.0262201
-0.00140045
0.0487549
-0.0449428
0.0199514
0.0516324
0.00268681
-0.0431686
0.00638125
-0.00756987
-0.000211833
-0.000942273
0.00726504
5.8484e-05
0.0225873
-0.00679134
0.000568664
-0.0255864
-0.0134901
0.0180042
0.0210723
-0.0037894
0.0304889
0.0273187
-0.0147608
-0.0430469
-0.0156403
0.00448626
0.041643
0.0369917
-0.0253134
-0.000673118
0.00185717
-0.00105407
0.00046075
-0.00164577
-0.00522141
0.0042013
0.000350761
-0.00414755
-0.00134011
0.0634973
-0.00247747
-0.0486002
0.0252697
-0.00699936
0.0267287
0.00811323
-0.00196956
-0.0328724
-0.0173654
0.00376281
0.0403313
0.022731
-0.0319831
-0.0188866
-0.0165944
0.0236384
0.0118426
0.00439239
0.00151181
-0.0247908
0.0160102
-0.0282122
0.0234048
-0.0436506
0.0186479
-0.0401859
0.00311037
0.000100071
0.0078003
-0.0110107
-0.00211829
0.00537278
-0.00014413
-0.00248713
0.000458746
-0.00576609
0.0504865
0.0158978
-0.0295906
-0.0367937
0.0142364
0.0785567
-0.0303307
0.00108157
0.0434855
-0.0271285
0.0126956
-0.00436163
-5.60036e-05
0.0011495
0.00326814
-0.000228924
-0.00449871
0.00218919
-0.00241811
0.00213318
-0.0296593
0.0345025
-0.00108036
0.00208027
-0.0337091
-0.00467137
0.000697316
0.00126458
-0.00922487
-0.00285287
-0.00127825
-0.0116384
0.0382376
-0.00518728
-0.0477128
0.0182834
0.0238851
-0.00393085
0.0524702
0.0354401
0.0381181
-0.0221969
-0.0513613
0.0296933
0.0357758
-0.0300289
-0.0251852
0.0262886
0.0285899
-0.0201786
0.0331115
0.0590235
0.0237252
-0.0110912
-0.00685334
0.0436799
0.0183662
-0.0184505
0.021444
-0.0265125
0.0234346
-0.0202798
-0.0013011
0.00109798
-0.0201042
-0.00127365
-0.00322995
0.0419691
0.0137311
-0.0282213
0.0178384
0.0103829
0.0218274
0.0226418
-0.0181806
-0.00695982
0.00089991
0.00832503
-0.049271
0.024246
-0.0080203
0.0330453
-0.0446991
-0.00120077
-0.00337105
0.00568585
0.00017318
-0.00500565
-0.000853384
0.00469454
-0.000387273
0.0389529
-0.0228954
0.0135872
0.00676504
-0.0080367
-0.00538941
0.00666107
-0.00450885
0.00265363
0.00862026
-0.0027937
0.00763874
-0.00935389
-0.000212428
-0.010618
-0.011344
0.00509884
0.000855755
0.00588372
-0.00588311
0.00325535
0.00398266
0.00182555
0.000384956
-0.00221051
0.000519736
0.00130582
0.0190346
0.0142943
-0.00891391
-0.024415
0.0191299
-0.0296858
-0.022709
0.0147104
-0.0114813
0.00306662
0.0371682
-0.00869544
-0.0347429
-0.00614743
0.033498
-0.0344327
0.00307584
0.0252094
-0.0138133
-0.0293148
0.0165458
0.0346346
-0.00998593
-0.0411945
0.0271539
-0.0417881
0.03118
-0.015451
0.00252362
0.0400812
0.0427656
-0.0235819
0.00665307
-0.0222909
-0.00478523
0.020423
-0.0214629
-0.00357449
-0.0195078
-0.00990326
-0.00165317
0.00197695
-0.00411372
-0.00776649
0.00316633
-0.00284256
-3.9594e-05
0.00129497
0.00111334
0.00234912
-0.00238871
0.00364409
0.00199563
0.000124442
0.00325271
-0.00114392
0.00313955
-0.00101948
-0.0152066
-0.00982853
0.0161717
0.00886334
0.00402714
0.00485873
-0.0240924
0.0187641
-0.0245655
-0.0109891
-0.0232588
0.00916682
0.025081
0.0159377
-0.0331058
0.0398991
-0.0413012
0.00841826
0.0509904
-0.0181075
-0.0329
0.000687593
0.0324529
-0.000240546
0.000825843
0.0332852
-0.0327578
-0.00135323
0.000541286
0.0345523
-0.0342678
0.000987658
0.0345292
-0.0349756
0.000960005
0.0347665
-0.0347388
-0.000154104
0.0345056
-0.0333915
0.00207205
0.0336874
-0.0359135
0.00450752
0.0328248
-0.0352603
0.00446309
0.0340438
-0.0339993
0.00581541
0.0325692
-0.0339215
0.00576438
0.0336277
-0.0335767
0.00694372
0.0323559
-0.0335352
0.00689298
0.0332772
-0.0332265
0.00791554
0.0321912
-0.0332138
0.00786683
0.0329849
-0.0329362
0.00874937
0.0320669
-0.0329494
0.00870392
0.0327445
-0.0326991
0.0106474
0.0307915
-0.032735
0.0100119
0.0331471
-0.0325116
0.0100743
0.0325068
-0.0325692
0.0100378
0.0324009
-0.0323644
0.0105978
0.0318832
-0.0324431
0.0105668
0.0322909
-0.03226
0.0110489
0.0318758
-0.0323578
0.0110237
0.032219
-0.0321938
0.0114407
0.0318933
-0.0323104
0.0114218
0.0321842
-0.0321653
0.0117857
0.0319368
-0.0323007
0.0117735
0.0321868
-0.0321746
0.0120949
0.0320082
-0.0323296
0.0120903
0.0322279
-0.0322233
0.0123789
0.0321108
-0.0323994
0.0123827
0.0323106
-0.0323144
0.0126447
0.0322505
-0.0325125
0.00936963
0.0357257
-0.0324507
0.0109092
0.031136
-0.0326756
0.0207801
0.0268934
-0.0367643
-0.012621
0.00366675
0.0297344
-0.0377854
0.0290009
-0.0357016
-0.00180516
0.00273566
0.0347711
-0.00176558
-0.000367082
-0.0335689
-0.00300956
0.0356223
-0.0343783
0.0359106
-0.00427025
-0.0346499
0.00255974
-0.00316895
0.0365198
0.0363769
-0.00407096
0.00154046
0.0358157
0.0347153
-0.0360506
-0.00117064
0.000620078
0.0350798
0.0349221
-0.000191325
0.000172709
0.0345242
0.0351952
-0.00028019
0.000442797
0.0326622
0.0335799
-0.000379143
0.000314506
0.0326338
0.0341074
-0.000248122
0.000184673
0.0324193
0.0336941
-0.000121058
6.03224e-05
0.0322519
0.0333408
5.22509e-07
-5.90667e-05
0.0321254
0.0330458
-0.000444711
-0.00135782
0.0325941
0.0322408
0.000818652
-0.000284213
0.0319723
0.032608
0.000339734
-0.000393718
0.0319372
0.0324564
0.000447758
-0.000500738
0.0319288
0.0323449
0.00055396
-0.000606392
0.0319458
0.0322722
0.000659092
-0.000711186
0.0319889
0.0322369
0.000763564
-0.000815491
0.0320601
0.0322392
0.00086772
-0.000919582
0.0321627
0.0322802
0.000971622
-0.000798738
0.0320776
0.0323626
-0.00287969
0.00156252
0.0324532
0.0320473
0.0321227
0.00341721
0.000628051
-0.036803
-0.0343537
0.0374039
-0.0014855
0.00124908
-0.0347392
-0.0351252
-0.000917215
0.002682
-0.0351563
-0.034407
-0.00263641
0.00130801
-0.0339319
-0.0358679
-0.000504603
0.000422351
-0.0338393
-0.0331959
-0.000340497
0.000263798
-0.0334585
-0.0334948
-0.000188202
0.000116916
-0.0331425
-0.0331509
-4.66391e-05
-2.05346e-05
-0.0328823
-0.032866
8.64885e-05
-0.000149384
-0.0326721
-0.0326331
0.000213659
-0.000274967
-0.0325079
-0.0324474
0.000334563
-0.000393493
-0.0323842
-0.0323048
0.000451936
-0.000509684
-0.0323001
-0.0322015
0.000566791
-0.000623528
-0.0322536
-0.0321367
0.000679686
-0.000735757
-0.0322446
-0.0321091
0.000791305
-0.000847009
-0.0322739
-0.032119
0.000902217
-0.000957634
-0.032344
-0.0321681
0.00101193
-0.00106438
-0.03246
-0.0322601
0.0011146
0.000212619
-0.0340028
-0.0324005
0.00285344
-0.00796598
-0.0326728
-0.0336983
-0.00405128
-0.0368427
0.0377251
-0.0379284
-0.00434758
0.0382247
0.00506253
-0.00621036
-0.0367806
-0.0360505
-0.0383988
-0.00754353
0.0415947
-0.03747
-0.00713912
-0.0102168
-0.0391148
-0.00333053
0.00201864
0.0310463
-0.00469987
0.0303703
-0.00133905
-0.0345997
0.00242022
-0.00374058
-0.033058
0.00196876
-0.0331175
-0.00413372
-0.0342568
-0.00603039
0.00485251
-0.0356027
-0.0362563
-0.00724405
-0.0479475
-0.00372787
0.0416895
-0.00730978
-0.0441015
-0.00384807
0.0375517
-0.00135621
0.00192432
0.0376566
0.0363904
-0.00195087
0.00140144
0.0370692
0.0376985
-0.00144096
2.92957e-05
0.0361828
0.0363374
0.000166191
2.32447e-05
0.0356262
0.0349108
-0.00016041
0.000606608
0.0346336
0.034785
-0.000547957
0.000741001
0.0343312
0.0352539
-0.00111375
0.000329543
0.0334464
0.0332072
-0.000266733
0.000207742
0.0326928
0.0341702
-0.000151844
9.53818e-05
0.0324758
0.03375
-4.09731e-05
-1.39019e-05
0.0323068
0.0333952
6.69286e-05
-0.000120067
0.0321786
0.0330988
0.000400637
-0.00022474
0.0324182
0.0325213
0.000275674
-0.000326338
0.032023
0.0326589
0.000376913
-0.000427773
0.031988
0.032507
0.00047799
-0.000528322
0.0319791
0.0323951
0.000578233
-0.000628288
0.0319958
0.0323221
0.00067809
-0.00072803
0.0320388
0.0322867
0.000777838
-0.000827776
0.03211
0.032289
0.000877688
-0.000927665
0.0322126
0.0323301
0.000977427
-0.00125082
0.032351
0.0324124
0.00113588
-0.00138441
0.0327017
0.0319324
0.0327569
-0.00328561
0.031886
-0.0341551
-0.00448305
0.0372991
-0.0340502
0.0360805
-0.00128161
-0.00666395
-0.0246159
-0.00195048
0.00100466
-0.0358572
-0.0343354
-0.000999505
0.00102946
-0.0347691
-0.03512
-0.0017784
0.00160869
-0.0349866
-0.0351559
-0.000160648
3.0106e-05
-0.0338013
-0.0344199
-0.000638666
0.000543639
-0.0337442
-0.0338045
-0.000455944
0.000371091
-0.0333737
-0.0334071
-0.000291042
0.000212948
-0.0330644
-0.0330708
-0.00013882
6.61403e-05
-0.0328096
-0.0327918
3.30632e-06
-7.15216e-05
-0.0326038
-0.0325637
0.000137162
-0.000202693
-0.0324424
-0.0323817
0.000265826
-0.000328509
-0.0323215
-0.0322417
0.000389238
-0.000449974
-0.0322393
-0.0321408
0.000509078
-0.00056841
-0.0321943
-0.0320776
0.000626368
-0.000684732
-0.0321862
-0.0320512
0.000741929
-0.000799677
-0.0322161
-0.0320618
0.000856441
-0.000914051
-0.0322864
-0.0321113
0.000971652
-0.0010314
-0.0324003
-0.0322025
0.00109031
-0.00192785
-0.0331652
-0.0323416
0.00292722
-0.00183606
-0.033764
-0.0326989
0.00282093
-0.0340101
-0.00296585
-0.0336148
-0.0353317
0.0029815
-0.00331991
-0.0327196
0.00222982
-0.0323658
-0.00404138
-0.0335353
-0.00422532
0.00396429
-0.0353417
-0.00399498
-0.0364867
-0.00279366
0.00256562
-0.0337821
-0.033682
0.0346753
-0.00395909
-0.00252377
-0.0339519
-0.00944024
-0.0458171
-0.039445
-0.00680887
0.00015489
0.03264
-0.0393954
-0.00729368
-0.0325822
-0.000162897
-0.00405411
0.00472368
0.042096
-0.0465747
0.00154564
0.0458093
-0.0442923
0.00690129
-0.00526454
0.0418785
0.00919533
0.0416718
-0.00377828
0.00254481
0.0387852
0.0410266
-0.000732301
0.000529212
0.0378597
0.0382029
-0.000919826
0.00163933
0.0363497
0.0373079
-0.000258912
0.00140607
0.0350356
0.0377178
0.000465832
0.000801453
0.0343589
0.0367827
0.000403578
0.000406076
0.0338239
0.03599
-0.000351356
0.00129998
0.0333825
0.0353086
0.000216243
0.000203659
0.0330265
0.0347234
-0.000154061
0.000102196
0.0327447
0.0342198
-5.55752e-05
5.92552e-06
0.0325255
0.0337966
3.99448e-05
-8.84628e-05
0.0323553
0.0334411
0.000134009
-0.000181975
0.0322265
0.0331444
0.000560984
-0.000275698
0.0321329
0.0329003
0.000321694
-0.000369276
0.0320706
0.0327049
0.000415203
-0.00046273
0.0320356
0.0325529
0.000509042
-0.000556618
0.0320267
0.0324415
0.000603223
-0.000650876
0.0320435
0.0323687
0.000697799
-0.000745597
0.0320866
0.0323337
0.000792867
-0.000840859
0.032158
0.0323362
0.000888493
-0.000936773
0.0322609
0.0323777
0.000984997
-0.00103372
0.0323997
0.0324606
0.00145516
-0.00157289
0.0328194
0.0323538
0.00125037
-0.00237457
0.0321705
0.0324344
0.00311241
-0.00276942
0.031543
0.0311081
0.0305582
0.0314187
-0.033779
-0.00430362
-0.00244512
-0.00358676
-0.00180722
0.00129627
-0.0353463
-0.0339129
-0.00149181
0.00174561
-0.0350229
-0.0353156
-0.00128747
0.00084511
-0.0345442
-0.0346978
-0.000583229
0.000839786
-0.0340579
-0.034158
-0.000731908
0.000626738
-0.0336391
-0.0336966
-0.000529721
0.000436318
-0.0332803
-0.0333101
-0.000348844
0.000263643
-0.0329792
-0.0329833
-0.000183399
0.000104736
-0.0327309
-0.0327116
-3.02715e-05
-4.33335e-05
-0.0325302
-0.0324892
0.000113415
-0.000183003
-0.0323728
-0.0323116
0.000249443
-0.000315767
-0.0322552
-0.0321752
0.000379491
-0.000443521
-0.0321753
-0.0320771
0.000505279
-0.000567606
-0.032132
-0.0320159
0.000627943
-0.000689091
-0.0321251
-0.0319908
0.000748485
-0.000808884
-0.0321557
-0.0320024
0.000867694
-0.000927588
-0.0322265
-0.0320525
0.000985655
-0.00104404
-0.0323419
-0.0321444
0.00110138
-0.00175749
-0.0325091
-0.0322842
0.00179872
-0.00225734
-0.0333054
-0.0326577
-0.0333065
-0.0354088
-0.00523618
-0.0381542
0.00304934
-0.00309317
-0.0326757
0.00331186
-0.0326283
-0.0346636
0.0335887
-0.00288424
-0.0344225
-0.00276491
-0.00262264
-0.0340058
-0.0527658
-0.00324916
0.00466745
0.00223133
0.0255541
-0.0301962
0.0201467
0.0147169
0.00435311
-0.0470998
-0.0100374
-0.040873
-0.0417737
-0.0140808
0.000295768
-0.000112369
0.0416951
-0.038849
-0.00345753
0.0426023
0.0175514
-0.0472051
-0.0395064
-0.00866027
-0.00529744
-0.0394452
-8.32984e-05
0.00128997
0.0408893
0.0414761
-0.00236724
0.00177238
0.03938
0.0399494
-0.000547379
0.0014799
0.0369272
0.0394279
2.85358e-05
0.000418724
0.0359025
0.0388163
-0.000395961
0.000352926
0.0350786
0.0377405
-0.000324744
0.000277017
0.0344067
0.0368109
-0.000249519
0.000211859
0.0338616
0.0360175
-0.000184148
0.00014362
0.0334231
0.0353363
-0.00011391
7.0942e-05
0.0330695
0.0347531
-3.80811e-05
-5.35137e-06
0.0327881
0.0342527
4.01503e-05
-8.32896e-05
0.0325686
0.0338314
0.000119212
-0.000162587
0.0323987
0.033477
0.000199972
-0.000243668
0.0322702
0.0331818
0.000282746
-0.000326848
0.032177
0.0329394
0.000366729
-0.000411179
0.032115
0.0327448
0.000452274
-0.000497069
0.0320804
0.032594
0.000539176
-0.00058435
0.0320718
0.0324836
0.000627378
-0.000672916
0.032089
0.0324118
0.000716762
-0.000762659
0.0321325
0.0323775
0.000807254
-0.00085352
0.0322043
0.0323808
0.000898822
-0.000945534
0.0323076
0.032423
0.00099164
-0.00103895
0.032447
0.0325067
0.00132131
-0.00113432
0.0326325
0.0326362
0.00152429
-0.00161935
0.0322655
0.0328243
0.0027939
-0.00225525
0.0310044
0.0322827
0.0305343
0.0317831
-0.0316015
-0.000344541
0.00134635
0.0318137
-0.0330389
-0.00307842
-0.00223284
-0.00303695
-0.00262848
0.0018377
-0.0345555
-0.0332295
-0.0016631
0.00150071
-0.0348605
-0.035141
-0.00134882
0.00120275
-0.0343981
-0.0345459
-0.00107113
0.000948276
-0.033935
-0.0340264
-0.000833845
0.000722441
-0.0335277
-0.0335822
-0.00061937
0.000518944
-0.0331799
-0.033207
-0.000425996
0.000334746
-0.0328879
-0.0328904
-0.000249931
0.000166042
-0.032647
-0.0326268
-8.77507e-05
9.69579e-06
-0.0324522
-0.0324109
6.34481e-05
-0.000136947
-0.0322993
-0.0322385
0.000206142
-0.000276055
-0.0321853
-0.032106
0.000342084
-0.000409247
-0.0321081
-0.0320111
0.000472949
-0.000538121
-0.0320668
-0.0319522
0.000600162
-0.000663956
-0.0320613
-0.0319288
0.000724896
-0.000787841
-0.0320928
-0.0319415
0.000848207
-0.000910897
-0.0321638
-0.0319921
0.000971359
-0.0010345
-0.0322788
-0.032084
0.00109565
-0.00115982
-0.032445
-0.0322231
0.00140061
-0.00203487
-0.0326711
-0.0324169
0.00200652
-0.00236595
-0.0334227
-0.0333349
0.0406902
0.0311922
-0.054331
-0.00742808
0.0446607
-0.0390603
-0.0113736
0.00536086
-0.0456647
0.00233226
-0.0341225
-0.00263219
-0.0339856
0.00346147
-0.00409052
-0.0347126
-0.0345699
0.00348889
-0.00415744
-0.0374857
-0.0370883
-0.0407246
-0.00363318
0.042963
-0.0191989
0.00424287
-0.053213
0.00404561
-0.0453572
0.00425924
-0.00453035
0.0432341
0.0029493
0.0459707
-0.00180705
0.00223662
-0.0330579
-0.000786262
-0.0336965
-0.0527522
-0.0140943
0.0439267
-0.0646854
0.00155989
-0.00368981
0.0430861
-0.00500335
-0.0385993
-0.00259914
0.0023612
-0.0338846
-0.0345103
0.0347287
-0.00285062
-0.0024308
-0.0346786
-0.0572031
-0.00323942
0.00343314
-0.0537821
-0.00863951
-0.0405279
-0.00105899
0.000324238
0.0424299
0.0444926
-0.000668581
0.00105938
0.0404985
0.0411318
0.000446505
0.000724537
0.038209
0.0414552
-9.5375e-05
8.19262e-05
0.0369406
0.0400571
-0.000101462
7.78488e-05
0.0359261
0.0387968
-9.56018e-05
7.07252e-05
0.0351035
0.0377228
-7.97176e-05
5.1036e-05
0.0344354
0.0368019
-5.28234e-05
2.17774e-05
0.0338926
0.0360157
-1.85582e-05
-1.40267e-05
0.0334557
0.0353395
2.4119e-05
-5.98671e-05
0.0331052
0.0347632
7.54978e-05
-0.000112839
0.0328255
0.0342683
0.000132936
-0.000171847
0.0326075
0.0338515
0.000195897
-0.000235932
0.0324387
0.0335011
0.000263395
-0.000304436
0.0323113
0.0332092
0.000334869
-0.000376758
0.0322189
0.0329698
0.000409743
-0.000452201
0.0321575
0.0327778
0.00048745
-0.00053055
0.0321235
0.0326292
0.000567734
-0.000611359
0.0321155
0.0325208
0.000650209
-0.000694315
0.0321331
0.0324506
0.000734604
-0.000779154
0.0321771
0.0324178
0.0008207
-0.000865682
0.0322493
0.0324224
0.000908348
-0.000953795
0.0323531
0.0324657
0.000997551
-0.00104361
0.0324931
0.0325505
0.00108879
-0.00113525
0.0326789
0.0326813
0.00118054
-0.00146947
0.0325545
0.0328696
0.00202587
-0.00316051
0.032139
0.0328391
0.00660657
0.0390943
0.0339803
0.0325078
-0.0321514
-0.000700938
-0.031307
0.0407276
0.00529642
0.00254708
0.0325561
-0.0336231
-0.0020114
-0.00182816
0.0344552
-0.0348199
-0.0025195
-0.00220487
-0.0028561
-0.00256216
0.00200876
-0.0340021
-0.033555
-0.00181993
0.00164417
-0.0346848
-0.0349521
-0.00148022
0.00132318
-0.0342411
-0.0343819
-0.00118248
0.0010466
-0.0337992
-0.0338857
-0.000923823
0.000802845
-0.0334067
-0.0334594
-0.000693392
0.000585086
-0.0330715
-0.0330976
-0.000487059
0.000389102
-0.03279
-0.0327924
-0.000300205
0.000210507
-0.0325573
-0.0325379
-0.000128909
4.57682e-05
-0.032369
-0.0323293
3.00657e-05
-0.000108013
-0.0322213
-0.0321627
0.000179275
-0.000253175
-0.0321114
-0.0320348
0.000320924
-0.000391762
-0.0320373
-0.0319433
0.000456906
-0.000525514
-0.0319982
-0.031887
0.0005888
-0.000655874
-0.0319942
-0.0318655
0.000717935
-0.000784062
-0.0320267
-0.0318794
0.000845415
-0.000911021
-0.0320982
-0.0319308
0.000971967
-0.00103739
-0.0322133
-0.032023
0.00109864
-0.00116468
-0.0323789
-0.0321618
0.00122619
-0.00129286
-0.0326044
-0.0323554
0.00201374
-0.00188337
-0.033553
-0.032614
-0.0335078
-0.00180923
-0.0329828
0.00279232
-0.00307051
-0.0344344
-0.0335868
0.00379221
-0.00474867
-0.0365292
-0.0363666
-0.0228138
-0.0413121
-0.00129923
-0.00190937
0.0464427
-0.000100279
0.0447717
-0.0405187
0.0413152
-0.0537196
-0.000786669
0.00313919
0.0367418
0.00287031
0.0370706
-0.0383912
-0.00733675
-0.00668007
-0.0366679
-0.0350088
0.0351155
-0.00295731
-0.0347062
-0.0027334
-0.0288516
-0.036991
0.0180732
-0.0599972
-0.00507204
0.0462488
-0.0534812
-0.0143952
-0.0347228
0.0178035
-0.0280259
0.0449453
0.0013597
-0.0018378
-0.0332184
0.00184909
-0.0335473
-0.000498108
0.000290378
0.0426376
0.0438942
0.000374384
-0.000631221
0.0407554
0.0417966
0.000497863
-0.000464035
0.0381752
0.0413219
0.000345814
-0.000335697
0.0369305
0.0399389
0.000250506
-0.000256686
0.0359323
0.0387116
0.000190438
-0.000204886
0.035118
0.0376565
0.000153701
-0.000174667
0.0344563
0.0367507
0.000136558
-0.000163787
0.0339199
0.0359776
0.000137544
-0.000168723
0.0334868
0.0353133
0.000152727
-0.000187491
0.03314
0.0347472
0.000181131
-0.000218445
0.0328628
0.034262
0.000219826
-0.00025899
0.0326467
0.0338529
0.000267328
-0.000307911
0.0324793
0.0335094
0.000322234
-0.00036385
0.0323529
0.0332235
0.000383264
-0.000425638
0.0322612
0.0329893
0.000449457
-0.000492343
0.0322004
0.0328016
0.000519903
-0.000563258
0.0321668
0.0326568
0.000594027
-0.000637732
0.0321592
0.0325515
0.000671206
-0.000715207
0.0321771
0.0324841
0.000750978
-0.000795252
0.0322213
0.0324536
0.000832981
-0.000877532
0.0322938
0.0324601
0.00091695
-0.000961811
0.0323979
0.0325051
0.00100275
-0.00104809
0.0325384
0.0325914
0.0010907
-0.00113641
0.0327246
0.032724
0.00117986
-0.00158725
0.0329618
0.032913
0.00190981
-0.00290953
0.0331388
0.0331616
0.03421
0.0330653
-0.0330989
-0.000667348
-0.0345143
0.0373562
0.00245447
0.00109812
0.033385
-0.0338295
-0.00156693
-0.00154206
0.0344511
-0.0349612
-0.0020094
-0.00158318
-0.00270185
-0.00198647
0.00217645
-0.0341921
-0.0336924
-0.00196637
0.00177477
-0.0344932
-0.0347421
-0.0016012
0.0014332
-0.0340731
-0.0342084
-0.00128546
0.00113865
-0.0336523
-0.033738
-0.00101052
0.000880818
-0.033277
-0.0333313
-0.00076764
0.000651521
-0.0329554
-0.0329844
-0.000550466
0.000445516
-0.032685
-0.0326913
-0.000354327
0.000258377
-0.0324614
-0.0324467
-0.000175117
8.63529e-05
-0.0322803
-0.0322461
-9.40893e-06
-7.36813e-05
-0.0321383
-0.0320857
0.000145673
-0.000224342
-0.0320327
-0.0319628
0.000292497
-0.000367796
-0.031962
-0.0318752
0.00043309
-0.000505941
-0.0319253
-0.0318217
0.000569205
-0.00064039
-0.031923
-0.0318022
0.000702339
-0.000772538
-0.0319565
-0.0318175
0.000833811
-0.000903661
-0.0320283
-0.0318695
0.000964881
-0.00103502
-0.0321432
-0.0319618
0.00109674
-0.00116763
-0.032308
-0.0321001
0.00123017
-0.00130161
-0.032533
-0.0322928
0.00136459
-0.00208905
-0.0328286
-0.032551
0.00198354
-0.00219595
-0.0336722
-0.0336133
-0.0639056
0.00694659
0.0029063
0.0373202
-0.038014
-0.00705727
-0.000863523
-0.041196
0.00237399
-0.0344208
-0.0026594
-0.0345006
-0.0513064
0.00845604
-0.00816799
0.041355
0.00609624
-0.00727399
-0.0354901
-0.001562
-0.0332586
-0.00211413
-0.0330347
-0.00278922
-0.0337593
-0.00454035
-0.0346155
-0.0349733
-0.0584915
-0.0795196
-0.021377
0.0215837
0.00039216
-0.00119557
0.0455751
0.000918866
0.045916
-0.00183053
0.00160218
-0.0333189
-0.00170551
-0.0333435
0.0367459
-0.0355792
0.00128781
0.0379967
0.00165547
-0.0352352
-0.0100528
0.036501
-0.00767722
0.0164002
-0.0452897
-0.00229543
0.00242277
-0.0345481
-0.0350115
0.0350512
-0.00269916
-0.0345747
-0.00273221
0.00181229
-0.00151386
0.0423392
0.044511
0.00131679
-0.00162238
0.041061
0.0415995
0.000407741
-0.000947415
0.0387148
0.0401073
0.000751906
-0.000741507
0.0369201
0.0397434
0.000578074
-0.000586299
0.0359405
0.0385482
0.000452279
-0.000474275
0.03514
0.0375225
0.000365121
-0.000396312
0.0344875
0.0366416
0.000307741
-0.000345741
0.0339579
0.035889
0.000276268
-0.000318981
0.0335295
0.0352438
0.000265726
-0.000311465
0.0331857
0.0346939
0.000273145
-0.000320868
0.0329105
0.0342237
0.00029509
-0.000343662
0.0326952
0.0338271
0.000328923
-0.000377848
0.0325282
0.0334947
0.000372708
-0.000421553
0.0324017
0.0332184
0.000424662
-0.000473172
0.0323097
0.0329924
0.000483356
-0.00053136
0.0322484
0.0328118
0.000547563
-0.000595059
0.0322143
0.032673
0.000616397
-0.000663378
0.0322062
0.0325729
0.000689036
-0.000735543
0.0322236
0.0325098
0.000764837
-0.000810945
0.0322674
0.0324829
0.000843299
-0.000889106
0.0323396
0.0324925
0.000924049
-0.000969672
0.0324436
0.03254
0.00100686
-0.00105255
0.0325841
0.0326286
0.00109196
-0.00113769
0.0327704
0.0327634
0.00117851
-0.00122505
0.0330084
0.0329539
0.00126714
-0.00143322
0.0333048
0.0332037
0.00114376
0.000322382
0.0352756
0.0339205
-0.00238803
0.00264172
0.0370665
0.0350049
0.0344593
-0.0339697
-0.001157
-2.1767e-05
0.0339556
-0.0339377
-0.00158475
-0.00155618
0.033915
-0.0342878
-0.00163664
-0.00160593
0.0346836
-0.0350923
-0.00254868
-0.00230599
-0.00277441
-0.00237082
0.00232241
-0.0341437
-0.034461
-0.00209512
0.00189094
-0.034289
-0.0345148
-0.0017103
0.00152951
-0.0338923
-0.0340277
-0.00137777
0.00121887
-0.0334934
-0.0335862
-0.00108813
0.000947486
-0.0331363
-0.0332006
-0.00083291
0.000707109
-0.0328296
-0.0328698
-0.000605557
0.000491838
-0.0325713
-0.0325898
-0.000400836
0.000296839
-0.0323574
-0.0323557
-0.000214328
0.000118098
-0.0321841
-0.0321636
-4.23633e-05
-4.77246e-05
-0.0320482
-0.03201
0.000118124
-0.00020343
-0.0319474
-0.0318924
0.000269714
-0.0003514
-0.0318803
-0.0318089
0.000414626
-0.000493694
-0.0318463
-0.0317585
0.000554766
-0.000632076
-0.0318457
-0.0317412
0.000691772
-0.000768064
-0.0318802
-0.0317578
0.000827044
-0.000902944
-0.0319524
-0.0318105
0.000961772
-0.00103787
-0.0320671
-0.031903
0.00109712
-0.00117396
-0.0322312
-0.0320409
0.00123405
-0.00131206
-0.032455
-0.0322327
0.00137305
-0.00145204
-0.0327496
-0.03249
0.0017937
-0.00211794
-0.0333479
-0.0332716
-0.0341958
0.0366134
-0.0727137
0.0459669
-0.00205323
-0.0329109
-0.00238893
-0.032699
-0.00329105
-0.0328572
-0.00455038
-0.0333561
-0.00559135
-0.0339324
-0.0075669
-0.0335146
0.00328313
0.0373553
-0.00146843
0.039415
-0.00260412
0.040588
-0.0331896
-0.00961245
0.00370202
-0.00597059
-0.0316638
0.00316913
-0.0328232
-0.0392706
-0.00898266
-0.00279954
0.0366964
0.0333095
-0.0220094
0.0313088
-0.00567662
-0.0029159
0.00240477
-0.034037
-0.00235133
-0.0351393
-0.0352078
0.0353883
-0.00287969
-0.0351998
-0.00274018
0.00254836
-0.00262644
0.0456532
0.0469959
0.00235059
-0.00222725
0.0422158
0.0442351
0.00188344
-0.00136087
0.0405384
0.0412557
0.00101525
-0.00141245
0.039112
0.0397616
0.00109668
-0.00112721
0.0369506
0.0394276
0.000853109
-0.000903571
0.0359909
0.0382741
0.000669094
-0.000734015
0.0352049
0.037288
0.000535783
-0.000609619
0.0345613
0.0364433
0.000442693
-0.000521221
0.0340364
0.0357221
0.00038282
-0.000463407
0.0336101
0.0351054
0.000350255
-0.000430646
0.0332661
0.0345808
0.000340438
-0.000419279
0.0329893
0.0341334
0.000348999
-0.000425051
0.0327713
0.0337568
0.000372342
-0.000445135
0.032601
0.033442
0.000407825
-0.00047712
0.032471
0.0331811
0.000453177
-0.000518981
0.0323755
0.0329684
0.000506556
-0.000568984
0.0323108
0.0327994
0.000566403
-0.000625755
0.0322737
0.0326704
0.000631567
-0.000688156
0.0322627
0.0325787
0.000701046
-0.000755216
0.0322778
0.0325226
0.000774048
-0.000826154
0.0323195
0.0325017
0.000849961
-0.000900355
0.03239
0.0325163
0.000928324
-0.000977356
0.0324926
0.032568
0.00100885
-0.00105696
0.0326322
0.0326601
0.00109163
-0.00113894
0.0328177
0.032798
0.00117583
-0.00122275
0.0330553
0.0329908
0.00126099
-0.00130505
0.0333489
0.033242
0.00092801
0.000372511
0.0339751
0.0335435
-0.000191097
0.00237092
0.0348867
0.0351863
0.0374089
-0.0361214
0.00199563
-0.00306956
0.00373914
0.0367394
0.0366567
0.0365387
-0.034962