/*--------------------------------*- C++ -*----------------------------------*\
  =========                 |
  \\      /  F ield         | OpenFOAM: The Open Source CFD Toolbox
   \\    /   O peration     | Website:  https://openfoam.org
    \\  /    A nd           | Version:  10
     \\/     M anipulation  |
\*---------------------------------------------------------------------------*/
FoamFile
{
    format      ascii;
    class       volVectorField;
    location    "8";
    object      U;
}
// * * * * * * * * * * * * * * * * * * * * * * * * * * * * * * * * * * * * * //

dimensions      [0 1 -1 0 0 0 0];

internalField   nonuniform List<vector> 
14667
(
(1.03752 0.0666075 -1.06944e-19)
(0.887755 0.0444643 -4.42974e-20)
(0.688935 0.0275798 -4.0558e-21)
(0.810371 0.0244482 5.65773e-22)
(0.7903 0.0264734 1.20194e-21)
(0.99094 -0.0892828 -2.54821e-20)
(1.03287 -0.0820157 5.59169e-20)
(0.553822 0.0401167 -1.81628e-21)
(0.645335 0.0318228 0)
(0.789046 0.0289163 -3.9849e-22)
(1.03701 -0.0667445 -2.44443e-20)
(1.02547 -0.0393193 1.3124e-20)
(0.986114 -0.0231189 -3.32011e-20)
(0.886316 -0.0752064 9.81884e-20)
(0.604332 0.0249189 -3.00444e-21)
(1.01841 -0.0306521 0)
(1.01872 -0.0290386 0)
(0.730041 0.017066 -8.00573e-22)
(0.44434 0.0168035 0)
(1.04002 -0.0582055 0)
(1.05604 0.0849277 -7.56077e-20)
(0.88556 -0.00308548 5.59044e-20)
(0.997391 0.0158655 0)
(1.00135 0.0404219 3.52988e-21)
(-0.017055 -0.109755 5.45034e-20)
(0.311016 -0.106231 1.84098e-19)
(-0.047446 -0.0565485 5.68709e-20)
(-0.122425 -0.123869 -2.1914e-19)
(-0.109161 -0.144736 4.00265e-21)
(0.805772 0.078156 1.5968e-20)
(0.857486 0.0501193 -1.51416e-21)
(0.871383 0.0227561 -4.48024e-20)
(-0.0392076 0.0419556 1.37572e-20)
(-0.0913266 0.0263839 7.12869e-20)
(-0.160712 0.01176 7.94475e-20)
(0.0133312 0.0212555 -1.2018e-19)
(0.0397595 0.0707918 -1.69208e-21)
(0.588827 -0.0688714 1.76835e-21)
(0.580744 -0.037761 1.75061e-21)
(0.722327 -0.0268139 -1.35575e-22)
(0.71469 -0.0210862 0)
(0.597073 0.0063738 -1.97871e-20)
(0.545477 -0.213051 5.21346e-19)
(0.604069 -0.0922743 -1.70806e-19)
(0.425289 -0.0585967 -1.19479e-19)
(0.348486 -0.269658 8.01049e-20)
(0.570886 -0.429992 -8.02162e-21)
(1.00163 0.0866986 -8.54982e-20)
(1.03602 0.0810259 2.76965e-20)
(0.659279 0.0826813 0)
(0.646957 0.084103 0)
(0.731655 0.0183781 0)
(0.791894 -0.00114918 0)
(0.848348 -0.0014714 -7.84606e-20)
(1.37335 -0.304777 2.13557e-20)
(1.41008 -0.283441 1.29574e-20)
(1.30105 0.246601 3.50097e-20)
(1.37274 0.240585 2.35869e-20)
(0.142461 0.100332 -3.0979e-20)
(0.303164 0.0766581 2.50476e-20)
(-0.0974702 -0.0813538 1.64156e-19)
(-0.100426 -0.0898554 0)
(0.977012 -0.485445 -9.07067e-21)
(0.993029 -0.407287 -5.72861e-20)
(0.913829 -0.358889 -4.82133e-21)
(0.857561 -0.622428 -8.99833e-21)
(0.932642 -0.556494 4.91041e-20)
(0.472895 0.675284 5.72998e-20)
(0.775456 0.704502 -2.58755e-20)
(0.90138 0.029281 3.99072e-20)
(0.920131 0.0133449 -3.67605e-20)
(0.924401 0.0378401 -4.01482e-20)
(0.142757 -0.024546 0)
(0.142598 -0.25729 4.05787e-20)
(0.675455 0.0814686 3.39737e-20)
(0.885265 0.0566058 4.78175e-20)
(1.06012 0.0582931 -1.56114e-19)
(0.971617 0.0724399 9.60356e-20)
(0.909609 -0.00490847 2.10849e-19)
(0.894924 -0.0365924 1.9567e-22)
(0.805518 -0.0199845 -7.90067e-22)
(0.87494 -0.0168753 0)
(0.814799 -0.0207666 1.20626e-21)
(0.970638 0.0212102 -2.58176e-22)
(0.96811 0.0222424 0)
(-0.118859 -0.112523 0)
(-0.262115 -0.0927673 -9.5515e-20)
(0.337811 0.101217 1.60115e-20)
(0.556903 0.0809768 -9.25888e-20)
(0.994265 -0.185201 -3.54893e-20)
(1.18848 -0.202106 4.9155e-20)
(1.15083 -0.260451 -1.65546e-22)
(1.13409 -0.243855 6.18556e-22)
(1.0466 -0.000722439 -1.34192e-21)
(1.04672 -0.00281101 6.60262e-22)
(0.950196 0.0679371 -4.37235e-21)
(0.909687 0.0520906 -3.37154e-21)
(1.04064 0.111944 -1.22739e-21)
(0.977431 0.0963489 2.72799e-21)
(1.07769 0.12495 -3.19663e-21)
(1.01906 0.112519 1.38349e-21)
(1.43391 -0.345989 5.48693e-21)
(1.43859 -0.288104 3.89542e-20)
(0.930528 0.123874 7.05684e-21)
(0.910233 0.0981513 -2.48294e-20)
(0.936549 0.0814867 3.24129e-21)
(0.956417 0.103582 3.10925e-21)
(0.958919 0.166307 2.15175e-20)
(0.948859 0.138167 4.72914e-22)
(0.504501 -0.0190162 7.99852e-22)
(0.312279 -0.0108543 -1.06804e-22)
(0.3412 -0.0072215 -1.38113e-21)
(0.535075 -0.012242 0)
(0.65063 -0.0308401 2.13201e-21)
(0.66043 -0.0205668 -8.43925e-22)
(1.24545 -0.135187 -1.30734e-20)
(1.26686 -0.151096 3.30271e-20)
(1.25523 -0.136284 0)
(0.463271 -0.0410012 -1.95293e-21)
(0.354218 -0.0384557 -7.4286e-22)
(0.524211 -0.0305604 -3.74536e-22)
(1.04454 -0.00024138 6.01205e-22)
(1.04475 -0.00248656 -3.10917e-21)
(1.04235 -0.00164127 1.61856e-21)
(1.04032 -0.000873823 -2.05061e-21)
(1.04009 0.00180877 0)
(1.04244 0.000632694 -3.65437e-22)
(1.03807 -0.000209187 5.81821e-21)
(1.03586 0.00148503 -2.9506e-21)
(1.03566 0.00461132 0)
(1.03788 0.0027255 0)
(1.03359 0.00310492 0)
(1.03123 0.00522169 3.37185e-21)
(1.0315 0.00888182 0)
(1.03361 0.00643821 0)
(1.02876 0.00753193 -3.38832e-21)
(1.02606 0.010189 0)
(1.02715 0.0146012 0)
(1.0294 0.0115373 0)
(1.02311 0.0130388 3.92655e-21)
(1.0198 0.0161064 -3.89829e-21)
(1.02205 0.0214857 0)
(1.02474 0.0179114 0)
(1.01605 0.0192686 0)
(1.01176 0.0225019 -4.54492e-21)
(1.01549 0.0290826 -1.06294e-24)
(1.01901 0.0252284 0)
(1.00681 0.0256832 4.57453e-21)
(1.00105 0.028765 0)
(1.00652 0.0367373 0)
(1.01137 0.0329564 0)
(0.994324 0.0316284 -5.07439e-24)
(0.98645 0.0342586 0)
(0.994243 0.0434945 0)
(1.00083 0.0402983 0)
(0.976358 0.0367205 -8.41111e-21)
(0.966172 0.0375792 7.39911e-21)
(0.978242 0.0482288 7.76177e-22)
(0.986757 0.0461883 0)
(0.954579 0.0389107 0)
(0.944392 0.0406394 0)
(0.961173 0.0523166 1.44629e-21)
(0.969547 0.0499072 -8.36079e-22)
(0.931334 0.0397777 -1.95175e-21)
(0.91838 0.0398811 -2.11812e-21)
(0.938507 0.0538998 2.10459e-21)
(0.948893 0.0525054 -1.95138e-21)
(0.925603 0.0537245 -4.14098e-21)
(0.902836 0.0382539 4.24048e-21)
(1.04866 -0.000996076 9.93398e-23)
(1.04866 -0.00293351 -5.78136e-22)
(0.886257 0.0351739 -9.32502e-24)
(1.05055 0.00071026 -4.532e-22)
(1.0523 0.000551083 8.84552e-22)
(1.05065 -0.00113259 1.25754e-23)
(1.04858 -0.00432511 0)
(1.05054 -0.00458348 6.16482e-22)
(0.903211 0.0233897 9.99991e-22)
(0.932894 0.0275652 4.80459e-21)
(0.918489 0.0258918 -1.92098e-21)
(0.958 0.0293739 -3.70864e-21)
(0.945708 0.0291355 3.8236e-21)
(0.977974 0.0307226 0)
(0.967639 0.0297263 0)
(0.994119 0.0274732 4.93796e-24)
(0.986453 0.0293634 0)
(1.00705 0.0225231 -2.20346e-24)
(1.00098 0.0251552 0)
(1.01708 0.0167911 0)
(1.01239 0.0197065 0)
(1.02485 0.0110496 -3.62608e-24)
(1.02121 0.0138868 0)
(1.03096 0.00588713 -1.89e-26)
(1.02808 0.00837676 0)
(1.03597 0.00169595 0)
(1.03359 0.0036716 0)
(1.04026 -0.00136327 -1.82958e-26)
(1.03822 4.68847e-05 0)
(1.04431 -0.00305217 0)
(1.04241 -0.0024375 0)
(1.04669 -0.00393339 1.63356e-21)
(1.05233 -0.00471333 5.78991e-22)
(1.05066 -0.00305227 -5.9724e-22)
(1.04688 0.00145377 2.6453e-22)
(1.04862 0.000946284 0)
(1.04357 0.00287555 3.23201e-23)
(1.04534 0.00214316 3.11133e-22)
(1.04063 0.00547387 0)
(1.04204 0.0039742 1.11032e-23)
(1.0383 0.00959604 0)
(1.03946 0.00732079 0)
(1.03624 0.0152907 0)
(1.03727 0.0122331 0)
(1.034 0.0224707 0)
(1.03519 0.018703 0)
(1.03082 0.0308437 0)
(1.03259 0.0265314 0)
(1.02569 0.039928 0)
(1.02857 0.0353355 0)
(1.01751 0.0489737 0)
(1.02203 0.0445202 0)
(1.00564 0.0566501 7.96983e-22)
(1.01206 0.0530993 0)
(0.991014 0.0627411 -4.24317e-22)
(0.99845 0.0598716 3.90646e-23)
(0.9739 0.066568 1.97033e-21)
(0.981878 0.064648 0)
(0.963542 0.0678515 5.35001e-21)
(1.0525 -0.00120559 3.52352e-22)
(1.05401 0.000454904 -7.47928e-23)
(0.88677 0.0188407 -1.05549e-21)
(0.892211 0.0494476 2.29964e-21)
(1.05618 -0.00623101 0)
(1.05737 -0.00607376 -1.37834e-22)
(1.05407 -0.00467778 -1.36309e-22)
(0.935189 0.0670655 0)
(0.927396 0.0099581 9.89496e-22)
(0.953188 0.0165246 7.45093e-22)
(0.940944 0.0136253 0)
(0.975452 0.0201094 3.46019e-21)
(0.964304 0.018964 -3.77723e-21)
(0.992027 0.0221214 0)
(0.983145 0.0220323 -1.3693e-21)
(1.00753 0.0203587 -4.86094e-24)
(1.00022 0.0214935 0)
(1.01974 0.0169001 3.5256e-26)
(1.01403 0.018797 0)
(1.02902 0.0124641 1.96203e-24)
(1.02472 0.0147612 0)
(1.03589 0.00772331 2.54131e-26)
(1.03273 0.0100959 0)
(1.04095 0.00323659 -2.04951e-26)
(1.03861 0.00542318 0)
(1.04479 -0.000576343 0)
(1.04299 0.00123209 0)
(1.04786 -0.0033943 -1.16599e-26)
(1.04642 -0.00211591 0)
(1.05055 -0.00509928 0)
(1.04927 -0.00437776 0)
(1.05338 -0.00600713 -3.29323e-24)
(1.05213 -0.00570248 -8.35976e-23)
(1.05481 -0.00621509 -9.74065e-22)
(1.05252 -0.00303892 1.0933e-24)
(1.05682 0.00185304 -1.271e-22)
(1.05422 0.00218416 -4.45304e-22)
(1.05549 0.0019687 -2.80032e-22)
(1.05192 0.00280962 -1.46358e-22)
(1.0529 0.00240568 1.48514e-22)
(1.05027 0.00409138 -6.59346e-25)
(1.05113 0.00338917 -1.00811e-23)
(1.04941 0.00648515 0)
(1.04979 0.00514405 0)
(1.04936 0.0102666 0)
(1.04931 0.00817101 0)
(1.04998 0.0157506 0)
(1.04962 0.0127795 0)
(1.05078 0.0230232 0)
(1.0504 0.0191644 0)
(1.05095 0.0319307 0)
(1.05101 0.0272917 0)
(1.04949 0.0420403 0)
(1.05049 0.0368743 0)
(1.04537 0.0526168 0)
(1.04782 0.0473301 0)
(1.03795 0.0625233 0)
(1.04209 0.057743 0)
(1.02722 0.0707019 -4.13575e-22)
(1.03291 0.0668537 4.04985e-22)
(1.01464 0.0770882 -2.96764e-21)
(1.02131 0.0741241 0)
(0.997153 0.0811906 2.21942e-21)
(1.00557 0.0792058 -3.21454e-21)
(0.918725 0.0652416 2.40107e-21)
(0.974679 0.0827654 -1.85939e-21)
(0.984837 0.0819045 5.95098e-22)
(0.913544 0.00522373 7.59437e-23)
(0.867863 0.0313404 2.27802e-21)
(0.872224 0.0451276 4.15038e-23)
(1.05564 -0.00447661 1.31462e-22)
(0.902485 0.0631638 0)
(0.960907 0.0822913 2.51224e-21)
(1.05853 -0.00578705 2.6615e-22)
(1.06046 0.00263058 0)
(1.06118 -0.00697172 2.82111e-22)
(1.06172 -0.0067745 -9.3617e-25)
(1.06118 0.00249418 0)
(1.05804 0.00173066 1.32837e-22)
(0.899796 -0.00105662 -4.2415e-21)
(0.869692 0.0138112 0)
(0.948125 -0.0114966 9.76133e-22)
(0.967935 -5.13599e-06 -1.20105e-21)
(0.958332 -0.00527558 -5.24436e-22)
(0.987238 0.00775628 1.00167e-22)
(0.978634 0.00412278 -9.26596e-22)
(1.00434 0.0124056 2.76545e-23)
(0.996311 0.0103528 -2.47317e-23)
(1.01912 0.014197 0)
(1.01186 0.0136413 -1.813e-22)
(1.03174 0.0138063 4.59602e-26)
(1.02579 0.0142222 0)
(1.04148 0.011861 2.17195e-24)
(1.03698 0.0130026 0)
(1.04841 0.00880086 -1.96203e-24)
(1.04528 0.0104385 0)
(1.05296 0.0051618 2.74661e-26)
(1.05096 0.0070195 0)
(1.05574 0.00148087 -2.23558e-26)
(1.05454 0.00329703 0)
(1.05735 -0.00179276 0)
(1.05666 -0.000227677 0)
(1.0583 -0.00435639 -1.35622e-24)
(1.0579 -0.00318108 0)
(1.05899 -0.00602411 0)
(1.05872 -0.00531256 0)
(1.05995 -0.00684972 5.79031e-23)
(1.05953 -0.00652679 -2.3167e-22)
(1.06054 -0.00699568 2.46872e-24)
(1.05431 -0.00110965 2.59982e-22)
(1.05426 -0.00287801 0)
(1.05563 0.000457294 -1.324e-22)
(1.0592 0.00288171 2.86944e-22)
(1.05976 0.00275216 0)
(1.05862 0.00332166 0)
(1.05879 0.00305868 0)
(1.05874 0.00424193 6.59422e-25)
(1.05857 0.00368405 0)
(1.05979 0.00615761 0)
(1.05914 0.00504423 0)
(1.06186 0.00951648 0)
(1.06071 0.00762666 0)
(1.06477 0.0147338 0)
(1.06324 0.0118692 0)
(1.06796 0.0220754 0)
(1.06638 0.0181312 0)
(1.07062 0.0315229 1.05124e-24)
(1.06942 0.026552 0)
(1.07182 0.0426325 1.15736e-24)
(1.07145 0.0369174 0)
(1.07086 0.0545113 0)
(1.07165 0.0485445 0)
(1.0674 0.066035 0)
(1.06944 0.0603895 0)
(1.06142 0.0761155 0)
(1.06474 0.0713179 0)
(1.05286 0.0844447 -4.44497e-22)
(1.05767 0.0804822 0)
(1.04163 0.0909797 0)
(1.04687 0.0877374 1.94876e-21)
(1.02715 0.0956999 -2.85376e-21)
(1.0331 0.0932265 5.50573e-22)
(1.0068 0.0978759 1.27067e-21)
(1.01762 0.0971727 0)
(0.847479 0.0251564 2.41322e-21)
(0.88603 -0.00871812 2.69681e-21)
(0.938601 -0.0191217 -1.61277e-21)
(1.05922 0.00163233 0)
(1.06189 0.00235157 1.19907e-22)
(0.853502 0.0414472 -3.86091e-21)
(0.945962 0.0811563 -1.27706e-21)
(0.883645 0.0600604 0)
(0.927286 0.078737 0)
(1.06229 -0.00646919 -3.93542e-22)
(0.993604 0.0977869 -1.27787e-21)
(0.851787 0.00652184 1.14972e-21)
(0.927871 -0.0277557 1.64807e-21)
(0.985435 -0.0345527 1.5928e-21)
(0.999741 -0.018705 -5.16867e-22)
(0.993096 -0.0261231 9.83982e-22)
(1.0136 -0.00724743 -6.81108e-22)
(1.00728 -0.0125547 1.36883e-21)
(1.02702 0.000549025 6.43824e-24)
(1.02067 -0.00294574 0)
(1.03953 0.00535701 -2.91075e-24)
(1.03341 0.00328652 0)
(1.05075 0.00798325 0)
(1.04534 0.00689138 0)
(1.05999 0.00895275 5.64159e-26)
(1.05568 0.008661 0)
(1.06658 0.0084587 0)
(1.06364 0.00887877 0)
(1.07048 0.00671157 1.89109e-24)
(1.06886 0.00772233 0)
(1.07208 0.0040957 1.75122e-24)
(1.07153 0.00548267 0)
(1.07204 0.00110702 -1.59662e-24)
(1.07223 0.00261696 0)
(1.07102 -0.00177319 0)
(1.07162 -0.000372759 0)
(1.06958 -0.00417627 -1.32445e-24)
(1.07034 -0.00305288 0)
(1.06814 -0.0058664 0)
(1.06888 -0.00511726 7.74081e-29)
(1.06704 -0.00678862 1.8322e-23)
(1.06761 -0.00641647 0)
(1.06648 -0.00697895 -1.37588e-22)
(1.06672 -0.00697403 1.4766e-22)
(1.06631 -0.00654417 5.2124e-22)
(1.06636 -0.00683238 1.39397e-22)
(1.06291 -0.00606928 2.51932e-22)
(1.05711 -0.00421538 -1.32305e-22)
(1.05965 -0.00543934 -1.22793e-22)
(1.05594 -0.00105713 0)
(1.05589 -0.00270244 0)
(1.05712 0.000429473 -1.26767e-22)
(1.06468 0.00260548 -2.37534e-22)
(1.06436 0.00283664 -6.19342e-23)
(1.0645 0.00274786 -1.19055e-22)
(1.06449 0.00292173 0)
(1.06431 0.00288899 -6.68956e-23)
(1.06531 0.00303723 0)
(1.06481 0.00296218 0)
(1.06692 0.00351422 0)
(1.066 0.00319931 0)
(1.06951 0.00488643 0)
(1.06808 0.00405254 0)
(1.07312 0.00774648 0)
(1.0712 0.00609299 0)
(1.07749 0.0126674 0)
(1.07524 0.00991712 0)
(1.08207 0.0200725 0)
(1.07981 0.0160442 0)
(1.08607 0.0300269 -1.05124e-24)
(1.0842 0.0247483 0)
(1.08877 0.042006 -1.15736e-24)
(1.08761 0.0358235 0)
(1.08984 0.0548797 0)
(1.08951 0.0484158 0)
(1.08939 0.0673874 0)
(1.0898 0.0612452 0)
(1.08758 0.0786675 0)
(1.08867 0.0732156 0)
(1.08395 0.0884304 4.33801e-22)
(1.08605 0.0837205 0)
(1.07812 0.0969935 0)
(1.08135 0.0928674 0)
(1.0698 0.104097 0)
(1.07396 0.10073 -4.98965e-22)
(1.05775 0.10937 2.34368e-21)
(1.06448 0.107099 1.13371e-21)
(1.0507 0.111205 -2.4867e-21)
(1.06632 -0.00614824 -6.25598e-22)
(0.82682 0.0193129 -6.39138e-22)
(0.871217 -0.0172356 -2.92284e-21)
(0.831549 0.0363149 1.28868e-21)
(0.979325 -0.044568 -1.08741e-21)
(0.918988 -0.0379539 0)
(0.860408 0.0551865 -1.41269e-21)
(1.06724 0.00244969 4.80922e-22)
(1.067 0.00230606 -1.1375e-22)
(1.06485 0.00242746 2.92369e-22)
(0.904473 0.0746824 -2.70977e-21)
(0.962125 0.0951206 1.42876e-21)
(1.07003 -0.0060173 0)
(1.06947 -0.00569111 0)
(1.03116 0.112549 -2.5363e-21)
(0.832903 -0.00115815 2.54155e-23)
(0.972041 -0.0557141 -1.76487e-23)
(1.02015 -0.0602934 1.76255e-23)
(1.03044 -0.0394013 -3.05375e-23)
(1.02533 -0.0491701 0)
(1.04122 -0.0236058 -5.9412e-22)
(1.03604 -0.030894 0)
(1.05154 -0.0123148 0)
(1.04671 -0.01748 1.15191e-22)
(1.06113 -0.00471927 0)
(1.05638 -0.00811914 0)
(1.0704 0.000265093 0)
(1.06584 -0.00197925 0)
(1.07872 0.00366509 -2.4739e-24)
(1.07473 0.0021309 0)
(1.08519 0.00580206 4.54872e-24)
(1.08224 0.00488858 0)
(1.08911 0.00664668 0)
(1.08749 0.00639332 0)
(1.09035 0.00614615 -4.22341e-26)
(1.09005 0.00656028 0)
(1.08932 0.00448887 -1.6869e-24)
(1.09008 0.00544011 0)
(1.08674 0.00210397 1.54461e-24)
(1.08818 0.00335596 0)
(1.08336 -0.000497061 0)
(1.08511 0.000800678 0)
(1.07978 -0.00287179 1.32445e-24)
(1.08157 -0.00173398 0)
(1.07645 -0.00471518 0)
(1.07808 -0.00386952 -7.74081e-29)
(1.07361 -0.00586947 0)
(1.07498 -0.00537805 0)
(1.07147 -0.0062758 1.32846e-22)
(1.07246 -0.00616112 0)
(1.07068 -0.00622285 -2.58595e-22)
(1.06332 -0.00555619 0)
(1.06891 -0.00528265 -1.18484e-22)
(1.06623 -0.00566318 2.45101e-22)
(1.05843 -0.00386221 -1.2024e-22)
(1.06056 -0.00496486 1.20304e-22)
(1.05743 -0.000976384 0)
(1.05739 -0.00247341 0)
(1.0602 0.00147338 0)
(1.05843 0.000378638 0)
(1.06247 0.00215639 -3.55986e-22)
(1.06788 0.00253653 0)
(1.06751 0.00252916 0)
(1.06911 0.00237316 0)
(1.06841 0.00247775 0)
(1.07094 0.00213307 -5.87653e-25)
(1.06993 0.0022462 0)
(1.07355 0.00216944 0)
(1.07214 0.00208546 0)
(1.07705 0.00304614 0)
(1.07518 0.00246156 0)
(1.08143 0.00546716 0)
(1.07914 0.00401677 0)
(1.0864 0.0101632 0)
(1.08387 0.00748933 0)
(1.0914 0.0176868 0)
(1.08894 0.0135521 0)
(1.09577 0.0281141 0)
(1.0937 0.0225611 0)
(1.09906 0.0407621 0)
(1.09757 0.0342362 0)
(1.1013 0.0542486 0)
(1.10029 0.0474999 0)
(1.1029 0.0671728 1.30257e-24)
(1.10215 0.0608435 1.53585e-28)
(1.10418 0.0789061 0)
(1.10358 0.0731903 0)
(1.10489 0.0896636 -6.93622e-26)
(1.10464 0.0843759 0)
(1.10424 0.099679 0)
(1.1048 0.0947746 0)
(1.10176 0.10863 -1.22314e-22)
(1.10328 0.104342 4.68748e-22)
(1.09686 0.116027 -2.17891e-21)
(1.09979 0.112606 -9.12837e-22)
(1.08918 0.121384 3.00021e-21)
(1.09404 0.119121 1.67446e-21)
(1.08436 0.123338 3.78351e-21)
(0.804253 0.0118176 1.28587e-21)
(0.856663 -0.0271987 1.78771e-21)
(1.06499 0.00220457 1.66271e-22)
(1.06681 0.00210521 1.14903e-22)
(0.806011 0.0288958 0)
(0.908606 -0.0489933 1.25128e-21)
(0.83318 0.0486843 -5.3562e-23)
(1.0153 -0.072871 -7.35146e-23)
(0.966022 -0.0682796 7.338e-23)
(0.883481 0.0714976 -2.77437e-21)
(0.943014 0.0930073 -1.43113e-21)
(1.07113 -0.00454064 -3.60033e-22)
(1.00202 0.111239 -2.78866e-21)
(1.06746 0.125617 -3.45341e-23)
(1.06846 -0.00479483 -1.11846e-22)
(1.07037 -0.00415202 0)
(0.81312 -0.0104039 0)
(1.0103 -0.0868045 2.93266e-21)
(1.04268 -0.0898356 -5.60468e-22)
(1.05046 -0.0637997 -1.02535e-21)
(1.04643 -0.0761004 1.0359e-21)
(1.05899 -0.0432333 -2.62862e-22)
(1.05473 -0.0528432 0)
(1.0678 -0.0276959 -1.08447e-22)
(1.06352 -0.0348918 0)
(1.07618 -0.0165502 0)
(1.07213 -0.0216223 1.09102e-22)
(1.08401 -0.00895716 0)
(1.08014 -0.0123929 0)
(1.09149 -0.0036235 2.6165e-24)
(1.08782 -0.00608494 0)
(1.09803 0.000483573 2.4739e-24)
(1.09493 -0.0014549 0)
(1.10281 0.00371969 -4.4087e-24)
(1.1007 0.00221195 0)
(1.1051 0.00590169 -1.97379e-24)
(1.10429 0.00496775 0)
(1.10469 0.00668146 -1.84885e-24)
(1.10522 0.00648123 0)
(1.10196 0.00599741 3.7758e-26)
(1.10358 0.00651064 0)
(1.09768 0.00417987 -3.03972e-26)
(1.09996 0.00519915 0)
(1.09265 0.00177489 0)
(1.09521 0.00301588 0)
(1.08757 -0.000677347 0)
(1.09009 0.000526682 0)
(1.08289 -0.00276789 0)
(1.08517 -0.00178507 0)
(1.07883 -0.00424583 0)
(1.08078 -0.00358971 0)
(1.07556 -0.00499652 -1.33624e-22)
(1.0771 -0.00471235 0)
(1.07307 -0.00502649 -2.52328e-22)
(1.07422 -0.00510161 3.86784e-22)
(1.07202 -0.00485892 0)
(1.06374 -0.00500146 0)
(1.06619 -0.00511356 -1.11999e-22)
(1.05962 -0.00345484 5.59306e-23)
(1.06141 -0.0044491 -5.64712e-23)
(1.05878 -0.000883889 0)
(1.05874 -0.00221065 0)
(1.06111 0.00133124 0)
(1.05962 0.000336433 0)
(1.063 0.00195111 -1.95449e-22)
(1.06829 0.00173152 -1.08276e-22)
(1.06929 0.00194006 1.21187e-22)
(1.06875 0.00186863 1.16979e-22)
(1.07063 0.00183826 0)
(1.0699 0.00193417 0)
(1.07251 0.00141641 0)
(1.07152 0.00165967 0)
(1.07493 0.000844308 5.87653e-25)
(1.07365 0.00113235 0)
(1.07801 0.00048801 0)
(1.07638 0.000606361 0)
(1.08182 0.000955709 0)
(1.07982 0.000572332 0)
(1.0863 0.00304904 0)
(1.08399 0.00174449 0)
(1.09116 0.00762575 0)
(1.08871 0.00497813 0)
(1.09592 0.0153234 0)
(1.09359 0.0110645 0)
(1.1001 0.0261665 9.67959e-25)
(1.09811 0.0203855 0)
(1.10349 0.0392685 1.05481e-24)
(1.10189 0.032527 0)
(1.10633 0.0530145 0)
(1.10495 0.046171 0)
(1.1092 0.0659147 -1.30257e-24)
(1.10773 0.059629 -1.53585e-28)
(1.11246 0.0775311 0)
(1.11078 0.0718602 0)
(1.116 0.0884694 -7.48519e-26)
(1.11423 0.0830352 0)
(1.11928 0.0992163 0)
(1.11771 0.093876 0)
(1.12166 0.109402 0)
(1.12063 0.104424 0)
(1.12264 0.118328 -5.07414e-22)
(1.12241 0.11405 0)
(1.12152 0.125525 0)
(1.12245 0.122179 -5.5701e-23)
(1.11793 0.13101 -5.92283e-22)
(1.11975 0.128356 1.16443e-21)
(1.05677 0.126221 3.93289e-21)
(1.1108 0.135145 1.13274e-21)
(1.11439 0.133232 -2.27427e-21)
(0.7795 0.00230094 -6.45128e-22)
(0.841638 -0.037947 -6.19622e-22)
(0.777337 0.0199003 0)
(0.899675 -0.0614359 -6.04947e-22)
(0.805415 0.0421156 6.64272e-22)
(0.959268 -0.0820493 1.28325e-21)
(0.85645 0.0664752 6.56377e-22)
(1.03873 -0.104902 0)
(1.00477 -0.102151 -2.37462e-21)
(0.919707 0.0896598 0)
(0.982766 0.109607 2.75441e-21)
(1.1063 0.137279 1.87359e-21)
(1.04624 0.127246 -1.98587e-21)
(1.07279 -0.00351759 4.55023e-22)
(1.09939 0.139165 -6.01263e-21)
(1.06935 0.00119274 0)
(1.06808 -0.0042637 2.17677e-22)
(1.06971 -0.00369868 1.04976e-22)
(1.06879 0.001081 4.16939e-22)
(1.06789 0.00154336 -3.14038e-22)
(1.13154 0.140675 -2.3079e-20)
(1.07181 -0.00324945 -1.0806e-22)
(0.792403 -0.0207382 0)
(1.03552 -0.121669 -1.71389e-21)
(1.05597 -0.122245 4.70072e-22)
(1.06028 -0.0918494 -9.77304e-22)
(1.0577 -0.106341 9.86706e-22)
(1.06637 -0.0668709 -9.34353e-22)
(1.06317 -0.0786929 3.64465e-22)
(1.07343 -0.04685 -2.34206e-22)
(1.06984 -0.0562765 4.65425e-22)
(1.08103 -0.0314161 0)
(1.07726 -0.0385874 0)
(1.08842 -0.020278 0)
(1.08477 -0.0253475 0)
(1.09545 -0.0125349 0)
(1.09198 -0.0160644 0)
(1.10204 -0.00686322 -2.6165e-24)
(1.09882 -0.00952145 0)
(1.10769 -0.00211243 0)
(1.10502 -0.00442464 0)
(1.11168 0.00218225 8.07682e-26)
(1.10994 9.96661e-05 0)
(1.11331 0.00569132 6.55578e-26)
(1.11282 0.00407607 0)
(1.11228 0.00777542 0)
(1.11312 0.00694599 0)
(1.10891 0.00809567 4.2185e-26)
(1.11085 0.00815629 0)
(1.10393 0.00685538 -3.40252e-26)
(1.10657 0.00764084 0)
(1.09819 0.00462633 0)
(1.10111 0.00582383 0)
(1.09239 0.00205528 0)
(1.09526 0.0033473 0)
(1.08702 -0.000326685 0)
(1.08963 0.000815613 0)
(1.08232 -0.0021714 -1.07616e-24)
(1.08458 -0.00133001 0)
(1.07839 -0.00330347 6.34e-23)
(1.08024 -0.00283635 0)
(1.07525 -0.00370555 2.43639e-22)
(1.0767 -0.00359581 -6.39431e-23)
(1.07388 -0.00369226 -1.1984e-22)
(1.06407 -0.00440862 -5.35929e-23)
(1.06614 -0.00452928 1.64152e-22)
(1.06067 -0.0030289 0)
(1.06214 -0.00390256 0)
(1.05998 -0.000784065 0)
(1.05995 -0.00194103 0)
(1.06187 0.00115773 0)
(1.06065 0.000284683 0)
(1.06513 0.00195707 -1.06175e-22)
(1.06345 0.00171791 7.91144e-23)
(1.06666 0.00186533 -1.05206e-22)
(1.0707 0.00121908 -2.34806e-22)
(1.06999 0.00124835 -1.14221e-22)
(1.07244 0.00090784 0)
(1.07151 0.00111006 0)
(1.07459 0.000256401 0)
(1.07346 0.000619336 0)
(1.0772 -0.000589989 0)
(1.07583 -0.000160141 0)
(1.08031 -0.00125745 0)
(1.07869 -0.000980539 0)
(1.08397 -0.00109893 0)
(1.08208 -0.00133251 0)
(1.0881 0.000769912 0)
(1.08599 -0.000439278 0)
(1.09245 0.00530479 0)
(1.09027 0.00265025 0)
(1.09665 0.0131809 0)
(1.09459 0.00880716 0)
(1.10042 0.0243392 -3.36351e-26)
(1.0986 0.0183944 0)
(1.10372 0.0376955 -4.03016e-26)
(1.10211 0.0308484 0)
(1.1069 0.0514531 0)
(1.10529 0.0446403 0)
(1.11051 0.0640968 0)
(1.10862 0.0579667 0)
(1.11494 0.0753523 0)
(1.11262 0.069859 0)
(1.12016 0.086081 -2.84938e-24)
(1.11747 0.0807165 0)
(1.12584 0.0970026 0)
(1.12297 0.0915157 0)
(1.13148 0.10773 -2.13569e-22)
(1.12871 0.102442 0)
(1.13646 0.117546 1.71508e-24)
(1.13411 0.112794 2.16157e-22)
(1.14004 0.125935 9.70372e-22)
(1.13846 0.121935 -9.69399e-22)
(1.14176 0.132632 -1.04316e-21)
(1.14092 0.1294 -9.68073e-22)
(1.14133 0.138216 -2.10744e-21)
(1.14168 0.135677 2.18121e-21)
(1.13891 0.140002 5.7705e-21)
(0.753476 -0.00884774 1.74263e-22)
(0.828153 -0.0504201 -6.63287e-22)
(1.06753 0.00133257 -1.49762e-22)
(1.0683 0.000920753 9.79474e-23)
(1.16347 0.145112 -3.73066e-21)
(0.74599 0.00943292 1.42686e-21)
(0.889992 -0.0747222 0)
(0.773174 0.0338421 1.44698e-21)
(0.952243 -0.0971564 -1.28385e-21)
(0.826116 0.0602003 8.44221e-24)
(0.999972 -0.119032 0)
(0.891805 0.0853509 -1.44683e-21)
(1.05492 -0.139654 -9.96818e-22)
(1.03237 -0.139804 2.24341e-21)
(0.965117 0.108627 0)
(1.03331 0.127953 -2.08945e-21)
(1.09966 0.141637 1.72956e-21)
(1.07096 -0.00291232 1.08336e-22)
(0.77241 -0.0332577 0)
(1.05506 -0.158421 0)
(1.06833 -0.155133 2.00726e-22)
(1.0662 -0.121702 -1.30482e-21)
(1.06665 -0.137878 6.80038e-22)
(1.06816 -0.0931654 -4.51253e-22)
(1.06678 -0.10678 4.52107e-22)
(1.07251 -0.0694719 0)
(1.07018 -0.0806747 1.18267e-22)
(1.07827 -0.0501214 1.34209e-25)
(1.07525 -0.0592726 0)
(1.08486 -0.0349322 0)
(1.08151 -0.0420036 0)
(1.09161 -0.0237596 0)
(1.08825 -0.0288783 0)
(1.09815 -0.0158179 0)
(1.09492 -0.0194578 0)
(1.10423 -0.00981441 2.36977e-24)
(1.10127 -0.0126635 0)
(1.10943 -0.00445305 -2.1789e-24)
(1.10698 -0.00711319 0)
(1.11312 0.000826869 4.08723e-24)
(1.1115 -0.00179313 0)
(1.11466 0.00558764 7.04615e-26)
(1.11419 0.0033263 0)
(1.11374 0.00893976 1.69152e-24)
(1.1145 0.00749275 0)
(1.11056 0.0102748 1.60696e-24)
(1.1124 0.00987287 0)
(1.10575 0.00964462 -3.76766e-26)
(1.10831 0.0101787 0)
(1.10011 0.00762205 0)
(1.10298 0.00876179 0)
(1.09433 0.00495296 0)
(1.0972 0.00632407 0)
(1.0889 0.00229139 0)
(1.09155 0.00358852 0)
(1.08408 8.76278e-05 1.07616e-24)
(1.08641 0.00111315 0)
(1.07995 -0.00142341 0)
(1.08192 -0.000761151 0)
(1.07654 -0.00219746 -9.16443e-25)
(1.07816 -0.00189242 0)
(1.07387 -0.00232977 1.09753e-22)
(1.07513 -0.00231942 0)
(1.07181 -0.00199672 -1.02009e-22)
(1.07277 -0.0021987 -2.15346e-22)
(1.07022 -0.00253976 -2.02661e-22)
(1.06773 -0.00371232 -2.8125e-24)
(1.06913 -0.00322452 -2.05767e-22)
(1.06437 -0.0038116 0)
(1.06609 -0.00393407 -4.98641e-23)
(1.06158 -0.00261008 0)
(1.06278 -0.00336179 0)
(1.06101 -0.000683695 0)
(1.06099 -0.00167594 0)
(1.06254 0.000986857 0)
(1.06156 0.00023509 0)
(1.0652 0.0016851 0)
(1.06381 0.00147573 0)
(1.06648 0.00160596 1.94142e-22)
(1.0688 0.000418062 -3.9259e-22)
(1.06999 0.000545517 1.08704e-22)
(1.06935 0.000512803 0)
(1.07148 0.00039346 0)
(1.07069 0.000511462 1.07582e-22)
(1.07332 -0.000101925 0)
(1.07236 0.000190137 0)
(1.07549 -0.000941871 0)
(1.07437 -0.000482622 0)
(1.07799 -0.00199406 -5.60063e-25)
(1.0767 -0.00145855 0)
(1.08086 -0.00288417 0)
(1.07938 -0.0024945 0)
(1.0841 -0.00293803 0)
(1.08244 -0.00306986 0)
(1.08763 -0.00121078 0)
(1.08583 -0.00236256 0)
(1.09128 0.00331562 0)
(1.08945 0.000646241 0)
(1.09483 0.0113232 0)
(1.09308 0.00686977 0)
(1.09814 0.0226613 -9.34323e-25)
(1.09652 0.0166298 0)
(1.10131 0.036088 -1.01451e-24)
(1.09972 0.0292295 0)
(1.10467 0.0496819 0)
(1.10293 0.0429836 0)
(1.10868 0.0619302 0)
(1.10657 0.0560208 0)
(1.11368 0.0726834 0)
(1.11105 0.0674447 0)
(1.11977 0.0829557 2.69518e-24)
(1.1166 0.0778044 0)
(1.12682 0.0936152 0)
(1.12319 0.0882242 0)
(1.13453 0.104448 0)
(1.13061 0.0990576 0)
(1.14246 0.114702 -1.19156e-25)
(1.1385 0.109676 0)
(1.15011 0.123939 0)
(1.14634 0.119456 0)
(1.15736 0.132253 -1.99074e-23)
(1.1538 0.128174 4.6336e-22)
(1.16362 0.139746 -9.05188e-22)
(1.16063 0.136105 9.16421e-22)
(1.16505 0.142889 8.95242e-22)
(1.07097 -0.00174143 3.0539e-22)
(0.725336 -0.0214087 -1.74152e-22)
(0.813357 -0.063549 0)
(1.07142 -0.173468 -1.04307e-22)
(1.05625 -0.17827 7.09512e-24)
(0.713148 -0.00148855 -1.4283e-21)
(0.880947 -0.0893974 0)
(0.737503 0.0243764 -1.09628e-21)
(0.944733 -0.113581 0)
(0.791831 0.0531301 1.47918e-21)
(0.994178 -0.137236 0)
(0.864213 0.0815247 1.4285e-21)
(1.03045 -0.159402 0)
(0.943152 0.107198 3.33435e-21)
(1.0245 0.129211 -1.36403e-21)
(1.15501 0.145339 -7.28887e-22)
(1.11239 0.142114 1.63417e-20)
(1.15502 0.149906 -1.94264e-21)
(1.07228 -0.00104191 -1.00079e-22)
(1.06904 -0.000114987 7.82711e-22)
(1.06853 -0.000163246 1.80438e-22)
(1.0714 -0.000915874 2.9643e-22)
(1.0683 0.000305827 0)
(0.751198 -0.0462805 0)
(1.07599 -0.192684 3.96368e-22)
(1.08476 -0.185013 1.20161e-21)
(1.07495 -0.150894 -9.64782e-22)
(1.07915 -0.167627 -1.29298e-21)
(1.07073 -0.120326 -3.46444e-22)
(1.07228 -0.135155 8.90086e-22)
(1.07075 -0.0938865 -4.11042e-22)
(1.07032 -0.106582 8.11577e-22)
(1.07347 -0.0715777 0)
(1.07187 -0.0822348 0)
(1.07792 -0.0529949 1.29254e-25)
(1.07551 -0.0618316 0)
(1.08349 -0.038125 0)
(1.08061 -0.0450856 0)
(1.0895 -0.0269656 0)
(1.08647 -0.0321038 0)
(1.09551 -0.0188807 0)
(1.09253 -0.0226081 0)
(1.10115 -0.0125724 -2.36977e-24)
(1.0984 -0.0156001 0)
(1.10599 -0.00665023 2.1789e-24)
(1.1037 -0.00962784 0)
(1.1095 -0.000500438 -3.91235e-24)
(1.10795 -0.0035959 0)
(1.11116 0.00537203 7.37106e-26)
(1.11059 0.00253488 0)
(1.11067 0.00988082 -6.07183e-26)
(1.11118 0.007865 0)
(1.10815 0.0121835 -1.51081e-24)
(1.10964 0.0113339 0)
(1.10409 0.0121775 -4.09444e-26)
(1.10627 0.0124468 0)
(1.09914 0.0104113 0)
(1.10168 0.0114656 0)
(1.09394 0.00770535 0)
(1.09654 0.00912476 0)
(1.08894 0.00482314 0)
(1.09139 0.00624685 0)
(1.0844 0.00231133 0)
(1.0866 0.00349747 0)
(1.08044 0.000465266 0)
(1.08235 0.00129791 0)
(1.07711 -0.000647459 8.84575e-25)
(1.0787 -0.000171013 0)
(1.0744 -0.00110138 -1.63559e-22)
(1.07568 -0.000931536 5.47172e-23)
(1.07327 -0.00111219 3.63644e-24)
(1.0589 -0.198985 -2.14878e-22)
(1.08237 -0.212975 0)
(1.09243 -0.203491 3.38554e-23)
(1.06956 -0.00215617 9.55371e-23)
(1.07062 -0.000748186 -8.02588e-24)
(1.07022 -0.00145688 9.34108e-23)
(1.06743 -0.0031606 0)
(1.06862 -0.00274075 0)
(1.06463 -0.00322949 0)
(1.06606 -0.003339 4.93111e-23)
(1.06236 -0.00221239 0)
(1.06333 -0.00284662 0)
(1.06189 -0.000587924 0)
(1.06188 -0.00142404 0)
(1.06311 0.000820805 0)
(1.06233 0.000186984 0)
(1.06526 0.00141086 0)
(1.06414 0.00123459 0)
(1.0672 0.00110833 4.91999e-23)
(1.06631 0.0013476 1.24353e-23)
(1.06786 0.000742729 -9.84388e-23)
(1.07025 -0.000145229 -8.15528e-23)
(1.06962 -9.35924e-05 -5.23036e-23)
(1.07173 -0.000442912 0)
(1.07096 -0.000249932 2.67667e-23)
(1.07349 -0.00108311 0)
(1.07258 -0.000719226 0)
(1.07549 -0.00206441 0)
(1.07446 -0.00153486 0)
(1.07772 -0.00325907 5.60063e-25)
(1.07658 -0.00265179 0)
(1.08018 -0.00429435 -5.92999e-25)
(1.07892 -0.0038323 0)
(1.08286 -0.00447877 0)
(1.0815 -0.00454901 0)
(1.08571 -0.00283271 0)
(1.08427 -0.00395242 0)
(1.08862 0.00168725 0)
(1.08716 -0.000988266 0)
(1.09152 0.00975206 -8.02385e-25)
(1.09008 0.00526576 0)
(1.0944 0.0211323 0)
(1.09296 0.0150882 0)
(1.09741 0.0344833 0)
(1.09588 0.0276832 0)
(1.10083 0.0478143 0)
(1.09905 0.0412725 0)
(1.10497 0.059617 1.07978e-24)
(1.10279 0.05395 0)
(1.11011 0.0698065 0)
(1.1074 0.0648596 0)
(1.11642 0.0794727 -7.615e-26)
(1.11312 0.0746251 0)
(1.12392 0.0895627 -1.30523e-24)
(1.12003 0.0844456 0)
(1.13243 0.0999626 0)
(1.12806 0.0947672 0)
(1.14164 0.109973 -1.16732e-25)
(1.13698 0.10505 0)
(1.15121 0.119194 0)
(1.14638 0.11469 0)
(1.1612 0.127631 -4.18529e-22)
(1.15616 0.123495 0)