/*--------------------------------*- C++ -*----------------------------------*\
  =========                 |
  \\      /  F ield         | OpenFOAM: The Open Source CFD Toolbox
   \\    /   O peration     | Website:  https://openfoam.org
    \\  /    A nd           | Version:  10
     \\/     M anipulation  |
\*---------------------------------------------------------------------------*/
FoamFile
{
    format      ascii;
    class       volScalarField;
    location    "1.5";
    object      p;
}
// * * * * * * * * * * * * * * * * * * * * * * * * * * * * * * * * * * * * * //

dimensions      [0 2 -2 0 0 0 0];

internalField   nonuniform List<scalar> 
25879
(
0.128603
0.130882
0.130531
0.128348
0.0841804
0.0832244
-0.0164544
-0.0073311
0.0137464
0.0109515
-0.100468
-0.064063
-0.145701
-0.559667
-0.457135
0.247756
0.150588
-0.108319
-0.265203
0.802571
0.790055
0.241259
0.36995
0.200638
0.201856
0.207706
0.205599
0.195701
0.199906
0.195604
0.19476
-0.500536
-0.525683
-0.505535
0.0981724
0.0999644
0.100626
0.100387
0.0999957
-0.32474
-0.268894
-0.185871
0.363396
0.376423
0.381495
-0.15572
-0.168804
-0.56644
-0.533534
-0.559509
0.0522122
0.0934729
-0.898963
-0.678961
0.00333403
0.00326498
0.0045167
0.524777
0.534228
0.495902
0.480024
0.44391
0.442253
0.00184445
0.00274494
0.00352857
-0.635776
-0.62223
-0.535398
-0.347828
-0.399934
0.254967
0.258412
0.262919
0.343244
0.486427
0.411233
0.135974
0.136598
0.133728
0.395865
0.381173
0.85528
0.790198
0.782169
0.255987
0.264459
0.251881
0.110884
0.114427
-0.282435
-0.211673
-0.375697
0.191234
0.19096
0.0855771
0.0853335
0.0841281
0.0993885
0.0988228
0.0996549
0.0987936
0.111979
0.109748
0.107169
0.227839
0.225574
0.0704737
0.125443
0.101259
0.101805
0.0894863
0.090066
0.0187377
0.0186639
0.234282
0.221547
-0.0723839
0.0120124
0.0542265
0.0636173
-0.198527
-0.18584
-0.19549
-0.184804
-0.236172
-0.229841
-0.18864
-0.201442
-0.387905
-0.351426
-0.450443
0.510766
0.492896
0.482247
0.49541
0.131527
0.13394
-0.00356422
0.00634454
0.0494605
0.0494441
0.0500854
0.0506806
0.0514736
0.0522634
0.0530485
0.0538372
0.0546143
0.0553817
0.0561506
0.0569187
0.05769
0.0584617
0.059236
0.0600108
0.0607887
0.0615674
0.0623477
0.0631274
0.0639139
0.0647054
0.0654968
0.0662891
0.0670842
0.0678843
0.0686954
0.0694868
0.0702772
0.0710804
0.0718938
0.0727378
0.0735356
0.0743304
0.0751178
0.0759467
0.0768787
0.0749988
0.0758689
0.0760752
0.0495488
0.0487812
0.0487697
0.0768682
0.0744978
0.0752793
0.0728928
0.0737029
0.0712599
0.0720802
0.0696295
0.0704568
0.0680122
0.0688164
0.0664181
0.0672158
0.0648298
0.0656247
0.0632472
0.06404
0.0616897
0.0624693
0.060133
0.0609127
0.0585778
0.0593568
0.0570295
0.0578012
0.055485
0.0562593
0.0539416
0.0547131
0.0524057
0.0531782
0.050944
0.051652
0.0502702
0.0513396
0.0495483
0.0504655
0.0528971
0.0521383
0.0543745
0.0536377
0.0558947
0.0551247
0.0574322
0.0566562
0.0589769
0.058198
0.060525
0.059745
0.0620755
0.0612952
0.0636453
0.0628457
0.0652212
0.0644256
0.0668057
0.0660073
0.0683902
0.0675922
0.0700134
0.0691977
0.0716327
0.0708174
0.0733167
0.0724402
0.0741585
0.0487582
0.048018
0.0480318
0.077741
0.0777934
0.0778023
0.0786312
0.0786592
0.0767639
0.0749201
0.0757771
0.0495907
0.0487584
0.0487886
0.0480196
0.0480038
0.0762211
0.076996
0.0746165
0.0754323
0.0730167
0.0738074
0.0713881
0.0722133
0.0697432
0.0705579
0.0681371
0.0689385
0.0665425
0.0673377
0.064963
0.0657503
0.0634118
0.0641796
0.0618317
0.0626181
0.060271
0.061049
0.0587215
0.0594948
0.0571737
0.0579504
0.0556248
0.056399
0.0540653
0.0548481
0.0525142
0.0532803
0.0510656
0.0517811
0.0495703
0.0503353
0.0480312
0.0487898
0.0512078
0.0504031
0.0527853
0.052001
0.0542943
0.0535465
0.0558186
0.0550582
0.0573531
0.0565872
0.0588973
0.058127
0.0604496
0.0596755
0.062009
0.0612314
0.0635747
0.0627929
0.0651448
0.0643604
0.066729
0.0659375
0.0683202
0.0675268
0.0699212
0.0691223
0.0715251
0.070726
0.0731963
0.0723503
0.0740467
0.0777515
0.0480199
0.0786059
0.0472781
0.048029
0.0472774
0.0794759
0.0795218
0.0766345
0.0775636
0.0776844
0.0472661
0.0472789
0.0472722
0.0472617
0.0778988
0.0795716
0.0787292
0.0762903
0.07709
0.0746615
0.0754812
0.0730242
0.0738386
0.0713828
0.0722067
0.0697515
0.0705622
0.0681452
0.0689468
0.0665522
0.0673469
0.0649714
0.0657604
0.0634005
0.0641844
0.061829
0.0626132
0.0602703
0.061049
0.058717
0.0594929
0.057169
0.057943
0.0556226
0.0563957
0.054078
0.0548497
0.0525545
0.0533125
0.0510794
0.0518198
0.0495619
0.0503332
0.04879
0.049602
0.0480502
0.0488086
0.0511596
0.0503911
0.0526954
0.0519275
0.0542242
0.0534612
0.0557532
0.0549879
0.0572891
0.0565202
0.0588324
0.0580598
0.060382
0.0596064
0.0619381
0.0611591
0.0635028
0.062719
0.0650738
0.0642873
0.0666538
0.0658625
0.0682427
0.0674467
0.0698459
0.0690425
0.0714694
0.0706545
0.0731035
0.0722854
0.0748164
0.0739498
0.0765547
0.0756677
0.0803568
0.0804162
0.047274
0.0785579
0.0465292
0.046516
0.0794513
0.0803302
0.0774568
0.0784808
0.0480776
0.0812183
0.0812579
0.0472836
0.0473078
0.078372
0.0785372
0.0465288
0.04654
0.0465257
0.0465277
0.0465055
0.0465094
0.0796109
0.081306
0.0804525
0.0779475
0.0787735
0.0763114
0.0771277
0.0746602
0.0754883
0.0730062
0.0738298
0.07137
0.0721871
0.0697466
0.0705559
0.0681406
0.0689418
0.0665478
0.0673426
0.0649661
0.0657556
0.0633944
0.064179
0.0618277
0.0626104
0.0602686
0.0610473
0.0587161
0.0594915
0.0571692
0.0579423
0.0556262
0.0563971
0.0540903
0.0548569
0.0525703
0.0533276
0.0510686
0.0518197
0.0495542
0.0503175
0.0480301
0.0487912
0.0465087
0.0472692
0.0496099
0.0488425
0.0511515
0.0503831
0.0526855
0.0519197
0.0542138
0.0534498
0.055744
0.0549784
0.0572797
0.056511
0.0588221
0.05805
0.0603712
0.0595958
0.0619269
0.0611482
0.0634899
0.0627073
0.0650607
0.0642741
0.0666409
0.0658496
0.0682283
0.0674338
0.0698246
0.069025
0.07144
0.070629
0.073068
0.0722533
0.0747305
0.0738921
0.0764337
0.0755747
0.0782361
0.0773308
0.0821133
0.0821478
0.0792796
0.0791569
0.0794284
0.0793563
0.0465103
0.0803165
0.045754
0.0465111
0.0457505
0.0811957
0.0820945
0.0801828
0.0829928
0.0830162
0.0800824
0.0794011
0.0457785
0.0457617
0.0457905
0.0457861
0.0457678
0.0457815
0.0457272
0.0457528
0.0813222
0.0830452
0.0821743
0.0796178
0.0804771
0.0779627
0.078782
0.0762975
0.0771286
0.0746372
0.075467
0.0729864
0.073809
0.071356
0.0721694
0.069737
0.0705449
0.0681324
0.0689329
0.0665409
0.0673351
0.0649605
0.0657494
0.0633892
0.0641738
0.0618242
0.0626059
0.0602663
0.0610443
0.058715
0.0594898
0.0571693
0.0579415
0.055629
0.0563984
0.0540959
0.0548613
0.0525734
0.0533331
0.0510621
0.051817
0.0495503
0.0503114
0.0480293
0.048789
0.0472641
0.0480856
0.0465415
0.0473122
0.0496088
0.048853
0.0511418
0.0503762
0.0526727
0.0519076
0.0542015
0.0534371
0.0557326
0.0549667
0.0572684
0.0564998
0.0588101
0.0580385
0.0603581
0.0595833
0.0619128
0.0611346
0.0634747
0.0626929
0.0650444
0.0642584
0.0666231
0.0658326
0.0682103
0.0674156
0.0698076
0.0690077
0.0714184
0.0706108
0.0730438
0.0722296
0.0746837
0.0738613
0.0763455
0.07551
0.0780791
0.0771989
0.0799031
0.0789768
0.0838934
0.0839097
0.0809931
0.0808371
0.0457288
0.0802947
0.0802346
0.0449966
0.044989
0.0811828
0.0810707
0.0820796
0.0829716
0.0838694
0.0465499
0.081899
0.0847632
0.0847904
0.0817693
0.0457503
0.0457837
0.0802737
0.0450202
0.0450085
0.0450341
0.0450345
0.0450143
0.0450187
0.0449695
0.0449884
0.0449642
0.0449521
0.0830376
0.0847813
0.083904
0.081322
0.0821915
0.0796094
0.0804634
0.0779399
0.0787723
0.0762655
0.0771002
0.0746084
0.0754351
0.0729655
0.0737848
0.0713389
0.0721505
0.0697237
0.0705298
0.0681217
0.068921
0.066532
0.0673254
0.0649527
0.0657411
0.0633821
0.0641664
0.0618186
0.0625995
0.0602621
0.0610395
0.0587119
0.0594862
0.0571676
0.0579391
0.0556291
0.0563976
0.0540973
0.0548623
0.0525739
0.0533345
0.051059
0.0518156
0.0495448
0.0503048
0.0480253
0.0487878
0.0465081
0.0472701
0.0449929
0.0457461
0.0480876
0.047321
0.0496049
0.048846
0.0511306
0.0503678
0.0526585
0.0518944
0.0541872
0.0534227
0.0557184
0.0549524
0.057254
0.0564856
0.058795
0.0580238
0.0603419
0.0595677
0.0618953
0.0611178
0.0634558
0.0626746
0.065024
0.0642388
0.0666009
0.0658114
0.0681866
0.0673925
0.0697835
0.0689837
0.071393
0.0705865
0.073018
0.0722033
0.0746574
0.0738363
0.0763091
0.0754811
0.0779816
0.0771415
0.079718
0.078832
0.0815969
0.0806398
0.0826618
0.082524
0.0856674
0.0856607
0.0811722
0.0811269
0.0449886
0.0820691
0.0819795
0.0442315
0.0449898
0.0442342
0.0829678
0.0828033
0.0838686
0.0835121
0.0847624
0.085666
0.0865555
0.0865542
0.0811555
0.0442427
0.0442359
0.0442636
0.0442562
0.0442706
0.0442646
0.0442508
0.0442601
0.0442129
0.0442355
0.0441864
0.0441967
0.0847551
0.0865221
0.0856268
0.083019
0.0838874
0.0812959
0.0821538
0.0795843
0.0804352
0.0779005
0.0787384
0.0762295
0.0770621
0.0745786
0.075402
0.0729417
0.0737585
0.0713183
0.0721284
0.0697069
0.0705111
0.0681078
0.0689058
0.06652
0.0673125
0.0649423
0.06573
0.063373
0.0641567
0.0618112
0.0625912
0.060256
0.0610328
0.0587073
0.0594809
0.0571644
0.0579351
0.0556273
0.0563951
0.0540966
0.0548611
0.052573
0.0533339
0.0510562
0.0518139
0.0495399
0.0502988
0.0480252
0.048784
0.0465072
0.0472671
0.0457496
0.0465592
0.045021
0.0457882
0.048078
0.0473218
0.0495958
0.0488368
0.0511188
0.0503569
0.0526445
0.0518814
0.0541724
0.0534082
0.0557032
0.0549374
0.0572382
0.0564701
0.0587783
0.0580076
0.0603241
0.0595504
0.0618761
0.0610993
0.063435
0.0626546
0.0650015
0.0642171
0.0665763
0.0657878
0.06816
0.0673669
0.0697546
0.0689559
0.0713615
0.0705564
0.0729835
0.0721701
0.0746219
0.073801
0.076275
0.075446
0.0779391
0.0771072
0.0796328
0.0787743
0.0814437
0.0805236
0.0823317
0.0874511
0.0874139
0.0441961
0.0820634
0.0820166
0.0434757
0.0434737
0.0829719
0.082882
0.0838793
0.0837167
0.0847807
0.0843435
0.0856815
0.086582
0.0874816
0.0852253
0.0450357
0.0883662
0.0883189
0.0442261
0.0442526
0.0820452
0.04349
0.0434822
0.0435077
0.0434924
0.043499
0.0435044
0.0434829
0.0434912
0.043459
0.0434722
0.0434232
0.0434418
0.0434345
0.0434219
0.086464
0.0882506
0.0873524
0.0847128
0.0855937
0.0829733
0.0838398
0.0812448
0.0821031
0.0795376
0.0803877
0.0778559
0.0786936
0.0761923
0.0770218
0.0745463
0.0753673
0.0729139
0.0737285
0.0712943
0.0721024
0.0696868
0.0704891
0.0680907
0.0688873
0.0665054
0.0672968
0.0649296
0.0657163
0.0633621
0.0641448
0.0618019
0.0625811
0.0602483
0.0610243
0.0587011
0.0594739
0.0571596
0.0579296
0.0556239
0.056391
0.0540941
0.0548583
0.0525705
0.0533316
0.0510522
0.0518108
0.0495362
0.050294
0.0480197
0.0487787
0.0465034
0.0472635
0.0449917
0.0457485
0.0434821
0.0442349
0.0465546
0.0457972
0.0480687
0.0473129
0.049585
0.0488262
0.051106
0.050345
0.0526302
0.0518678
0.054157
0.0533932
0.0556871
0.0549216
0.0572212
0.0564535
0.0587602
0.05799
0.0603047
0.0595317
0.0618552
0.0610792
0.0634123
0.0626329
0.0649769
0.0641936
0.0665495
0.0657621
0.0681309
0.0673389
0.0697228
0.0689254
0.0713264
0.0705231
0.0729439
0.072133
0.0745776
0.073759
0.0762275
0.0753999
0.0778961
0.0770602
0.0795904
0.0787366
0.0813368
0.0804566
0.0831464
0.0822271
0.0892376
0.0891651
0.0864046
0.0864759
0.0829685
0.0829203
0.0434622
0.0838878
0.0837915
0.0427164
0.04348
0.0427183
0.0848056
0.0845845
0.0857176
0.0853047
0.0866261
0.0863419
0.0875261
0.0884269
0.0893077
0.0900866
0.0901716
0.0873411
0.0872985
0.0829478
0.0427197
0.0427163
0.0427358
0.0427294
0.0427397
0.0427311
0.0427286
0.0427363
0.0427167
0.0427217
0.0427003
0.0427005
0.0426688
0.0426833
0.0426596
0.0426542
0.0881602
0.0899879
0.0890658
0.0863974
0.0872746
0.0846454
0.0855188
0.0829002
0.0837693
0.0811797
0.0820358
0.079482
0.0803281
0.077807
0.0786417
0.0761505
0.0769767
0.0745096
0.0753282
0.0728821
0.0736942
0.071267
0.072073
0.0696635
0.0704638
0.0680708
0.0688658
0.0664882
0.0672782
0.0649146
0.0657003
0.0633491
0.0641309
0.0617908
0.0625691
0.060239
0.0610141
0.0586933
0.0594654
0.0571534
0.0579227
0.055619
0.0563855
0.0540901
0.0548538
0.0525666
0.0533277
0.0510477
0.0518066
0.0495315
0.0502894
0.0480156
0.0487736
0.0465032
0.0472606
0.0449916
0.0457473
0.0442395
0.0450327
0.0434953
0.0442724
0.0465436
0.0457904
0.0480573
0.0473004
0.0495728
0.0488145
0.0510923
0.0503321
0.0526151
0.0518533
0.0541408
0.0533775
0.0556698
0.0549048
0.0572029
0.0564358
0.0587407
0.0579711
0.0602837
0.0595114
0.0618325
0.0610573
0.0633877
0.0626092
0.06495
0.0641679
0.0665202
0.0657341
0.068099
0.0673084
0.069688
0.0688921
0.0712881
0.0704866
0.0729008
0.0720927
0.0745282
0.0737128
0.0761698
0.0753467
0.0778322
0.0769983
0.079516
0.0786713
0.0812254
0.0803619
0.0830614
0.0821106
0.084852
0.0840682
0.0864272
0.0857156
0.0881499
0.0880872
0.0872523
0.0426721
0.0910183
0.0909134
0.083878
0.083831
0.0419558
0.0419576
0.0848087
0.0846949
0.0857377
0.0854578
0.0866651
0.0863303
0.087587
0.0873421
0.0884991
0.0882322
0.0893902
0.0902619
0.0911261
0.0880294
0.0919735
0.0435059
0.0427006
0.0427263
0.091856
0.0888842
0.088959
0.0890337
0.0838581
0.0419679
0.0419598
0.0419766
0.0419637
0.0419719
0.0419738
0.0419606
0.0419672
0.041948
0.0419538
0.0419322
0.0419405
0.0419095
0.0419204
0.0418856
0.0418971
0.0419122
0.0418943
0.0898589
0.0917004
0.0907806
0.0880528
0.0889491
0.0863088
0.0871722
0.0845552
0.0854289
0.0828159
0.0836806
0.081107
0.0819578
0.0794205
0.0802613
0.0777537
0.0785846
0.0761041
0.076927
0.074469
0.0752848
0.0728469
0.0736564
0.0712366
0.0720403
0.0696372
0.0704356
0.0680481
0.0688414
0.0664685
0.0672572
0.0648976
0.065682
0.0633343
0.064115
0.0617781
0.0625554
0.0602282
0.0610023
0.0586841
0.0594554
0.0571457
0.0579142
0.0556125
0.0563784
0.0540846
0.0548479
0.0525615
0.0533224
0.0510425
0.0518015
0.0495264
0.0502842
0.0480123
0.048769
0.0464996
0.0472562
0.0449864
0.0457441
0.0434792
0.0442348
0.0419656
0.0427222
0.0450263
0.0442765
0.0465336
0.0457797
0.0480448
0.0472885
0.0495596
0.0488017
0.0510778
0.0503182
0.0525992
0.0518381
0.0541236
0.053361
0.0556515
0.0548871
0.0571834
0.0564169
0.0587197
0.0579509
0.0602611
0.0594897
0.061808
0.0610338
0.0633611
0.0625838
0.0649211
0.0641402
0.0664885
0.0657038
0.0680644
0.0672753
0.06965
0.0688559
0.0712463
0.0704468
0.0728543
0.0720488
0.0744756
0.0736634
0.0761092
0.0752905
0.0777615
0.0769327
0.0794264
0.0785938
0.08111
0.0802573
0.0829099
0.0819853
0.0846447
0.0838084
0.0863762
0.0855274
0.0871757
0.0927952
0.0926276
0.0898321
0.0897527
0.0847981
0.084744
0.041936
0.0857422
0.0855861
0.0412045
0.0419734
0.041208
0.0866858
0.086412
0.0876255
0.0873508
0.08856
0.0882902
0.0894829
0.0891197
0.0903779
0.0899316
0.0912433
0.0921063
0.092951
0.090735
0.0937434
0.0935656
0.0906404
0.0847757
0.041198
0.0411989
0.0412056
0.0412046
0.041211
0.0412099
0.041205
0.0412085
0.0411943
0.0412002
0.0411822
0.0411881
0.0411665
0.0411758
0.0411526
0.0411543
0.0411263
0.0411378
0.0411226
0.0411157
0.0915203
0.0933561
0.0924307
0.0897215
0.09062
0.0879401
0.088822
0.0861878
0.0870622
0.0844467
0.085316
0.0827243
0.0835791
0.0810293
0.081874
0.0793539
0.0801894
0.0776959
0.0785227
0.0760536
0.0768729
0.0744248
0.0752375
0.0728084
0.0736151
0.0712031
0.0720044
0.0696082
0.0704044
0.0680229
0.0688144
0.0664466
0.0672337
0.0648785
0.0656616
0.0633177
0.0640972
0.0617636
0.0625399
0.0602157
0.0609889
0.0586735
0.0594439
0.0571366
0.0579043
0.0556048
0.05637
0.0540778
0.0548407
0.0525553
0.053316
0.0510367
0.0517956
0.0495209
0.0502785
0.0480074
0.0487639
0.0464954
0.0472512
0.0449839
0.0457404
0.0434751
0.0442331
0.0427245
0.0411472
0.043505
0.0419572
0.0427442
0.0450142
0.0442609
0.0465214
0.0457674
0.0480317
0.0472761
0.0495454
0.0487881
0.0510624
0.0503035
0.0525824
0.051822
0.0541056
0.0533436
0.0556322
0.0548684
0.0571626
0.0563969
0.0586974
0.0579294
0.060237
0.0594665
0.0617819
0.0610088
0.0633327
0.0625566
0.0648901
0.0641105
0.0664546
0.0656714
0.0680273
0.0672398
0.0696091
0.0688169
0.0712011
0.0704037
0.0728042
0.0720012
0.0744195
0.0736104
0.0760467
0.0752314
0.0776907
0.0768665
0.0793431
0.0785172
0.0810178
0.0801696
0.0827621
0.0818831
0.0844995
0.0836434
0.0862289
0.0853613
0.0879319
0.0870915
0.0896656
0.0888011
0.0915376
0.0914012
0.0905141
0.0945027
0.0942755
0.0857306
0.0856624
0.0404387
0.0404467
0.08669
0.0865188
0.0876477
0.0874036
0.0886009
0.0883316
0.0895451
0.0892299
0.0904724
0.0900475
0.0913737
0.0908648
0.092256
0.0916806
0.0931116
0.0939382
0.0947224
0.0954485
0.0912521
0.092466
0.0411751
0.0922986
0.0921254
0.0952092
0.0857051
0.0404417
0.0404382
0.0404454
0.040442
0.0404448
0.0404475
0.0404385
0.0404413
0.0404287
0.0404341
0.0404169
0.0404229
0.0404029
0.0404104
0.0403857
0.040394
0.040364
0.0403756
0.0403474
0.0403524
0.0403921
0.0403586
0.0931203
0.0949344
0.0940208
0.0913337
0.0922295
0.0895591
0.0904455
0.0877936
0.0886739
0.0860527
0.0869193
0.0843288
0.0851868
0.0826281
0.0834746
0.0809469
0.0817854
0.0792824
0.0801126
0.0776336
0.0784561
0.0759991
0.0768147
0.0743773
0.0751867
0.0727668
0.0735706
0.0711668
0.0719655
0.0695766
0.0703705
0.0679954
0.0687849
0.0664225
0.0672079
0.0648574
0.065639
0.0632993
0.0640775
0.0617476
0.0625227
0.0602017
0.0609739
0.0586614
0.0594309
0.0571261
0.0578931
0.0555957
0.0563603
0.0540699
0.0548323
0.0525482
0.0533085
0.0510301
0.0517887
0.0495149
0.0502722
0.0480019
0.0487582
0.0464907
0.0472461
0.0449807
0.0457356
0.0434764
0.0442322
0.0419676
0.0427217
0.0404538
0.0412158
0.041973
0.040423
0.0412029
0.0434953
0.0427434
0.0450009
0.0442478
0.0465081
0.0457543
0.0480178
0.0472626
0.0495304
0.0487737
0.0510461
0.0502879
0.0525649
0.0518051
0.0540867
0.0533254
0.0556119
0.0548488
0.0571408
0.0563758
0.0586738
0.0579067
0.0602115
0.059442
0.0617543
0.0609822
0.0633026
0.0625277
0.0648572
0.0640791
0.0664186
0.065637
0.0679877
0.0672021
0.0695654
0.0687753
0.0711526
0.0703577
0.0727503
0.0719501
0.0743593
0.0735534
0.07598
0.075168
0.0776156
0.076796
0.0792594
0.0784371
0.0809291
0.0800858
0.0826455
0.0817775
0.0843638
0.083507
0.0860871
0.0852234
0.0878125
0.086946
0.0895455
0.0886766
0.0904105
0.0961562
0.0958578
0.093209
0.0930169
0.0866783
0.0865997
0.0876531
0.0874868
0.0396021
0.0396257
0.0396931
0.040461
0.0397058
0.0886249
0.0883958
0.0895903
0.0893206
0.0905442
0.0901863
0.0914788
0.0910174
0.0923897
0.0918429
0.093283
0.0926427
0.0941397
0.0934103
0.0949583
0.0957368
0.0964581
0.0941258
0.0971218
0.0968072
0.0939015
0.0866498
0.0396816
0.0396808
0.0396839
0.0396773
0.0396842
0.0396748
0.0396788
0.0396825
0.0396736
0.0396748
0.0396638
0.0396689
0.0396521
0.0396583
0.0396388
0.0396457
0.0396213
0.0396308
0.0396033
0.0396121
0.0395796
0.0395932
0.0395784
0.0964385
0.0977222
0.0973559
0.0946295
0.0955205
0.0928799
0.0937584
0.0911232
0.0919958
0.089373
0.0902476
0.0876297
0.0884992
0.0859116
0.0867676
0.0842116
0.0850592
0.0825276
0.0833674
0.0808594
0.0816916
0.0792064
0.080031
0.0775674
0.0783852
0.0759411
0.0767527
0.0743264
0.0751324
0.0727223
0.0735231
0.0711279
0.0719239
0.0695425
0.0703341
0.0679655
0.068753
0.0663964
0.06718
0.0648345
0.0656146
0.0632792
0.064056
0.06173
0.0625038
0.0601864
0.0609575
0.0586479
0.0594165
0.0571144
0.0578806
0.0555855
0.0563494
0.0540609
0.0548227
0.0525401
0.0533
0.0510227
0.051781
0.0495082
0.0502652
0.047996
0.0487519
0.0464857
0.0472406
0.0449775
0.0457313
0.0434726
0.0442268
0.0419639
0.0427171
0.0412127
0.0419786
0.0404406
0.0412152
0.0434841
0.0427343
0.0449876
0.0442354
0.0464941
0.0457406
0.048003
0.0472482
0.0495146
0.0487585
0.0510291
0.0502715
0.0525465
0.0517874
0.0540669
0.0533063
0.0555905
0.0548283
0.0571178
0.0563537
0.058649
0.0578829
0.0601846
0.0594162
0.0617251
0.0609542
0.0632709
0.0624973
0.0648225
0.0640459
0.0663806
0.0656007
0.0679459
0.0671623
0.0695192
0.0687315
0.0711014
0.0703091
0.0726933
0.071896
0.0742956
0.0734931
0.075909
0.0751007
0.0775357
0.0767209
0.0791716
0.0783524
0.080831
0.0799962
0.0825237
0.0816716
0.084223
0.0833724
0.0859332
0.0850771
0.0876409
0.0867848
0.0893693
0.0885011
0.0910914
0.0902355
0.0928012
0.0919404
0.0947694
0.0945131
0.0936661
0.0876415
0.0875606
0.0396514
0.0389282
0.0389407
0.0886319
0.0884721
0.0896178
0.0893969
0.0905956
0.0903098
0.0915599
0.0911765
0.0925044
0.0920176
0.0934276
0.0928396
0.0943227
0.0936195
0.0951783
0.0943517
0.0959908
0.0950573
0.0967412
0.0974448
0.0980724
0.0985577
0.0942535
0.0956667
0.0953811
0.09509
0.0876117
0.0389195
0.038914
0.0389196
0.0389167
0.0389188
0.0389189
0.0389141
0.0389168
0.0389086
0.0389112
0.0388998
0.0389044
0.0388882
0.0388944
0.038875
0.0388819
0.0388588
0.0388674
0.038849
0.0388491
0.0388229
0.0388273
0.0388103
0.0388124
0.0388566
0.038829
0.0976803
0.0983058
0.0960557
0.096946
0.0943297
0.0951879
0.0926187
0.0934713
0.090894
0.0917556
0.0891732
0.0900331
0.0874608
0.0883149
0.0857678
0.086612
0.0840883
0.0849265
0.0824209
0.0832529
0.080767
0.0815923
0.0791261
0.0799449
0.0774973
0.0783102
0.0758798
0.0766872
0.0742726
0.0750749
0.0726751
0.0734727
0.0710864
0.0718797
0.0695062
0.0702953
0.0679336
0.0687189
0.0663684
0.0671501
0.0648098
0.0655883
0.0632575
0.0640329
0.0617109
0.0624835
0.0601696
0.0609396
0.0586332
0.0594008
0.0571015
0.0578668
0.0555742
0.0563373
0.0540508
0.054812
0.0525311
0.0532905
0.0510147
0.0517725
0.049501
0.0502575
0.0479896
0.048745
0.0464803
0.0472347
0.0449734
0.0457265
0.0434668
0.0442207
0.0419612
0.0427133
0.0404629
0.0412121
0.0389527
0.0397134
0.0404511
0.0388959
0.0396822
0.041967
0.0412156
0.0434708
0.0427199
0.044974
0.0442221
0.0464795
0.0457264
0.0479876
0.0472332
0.0494981
0.0487425
0.0510113
0.0502544
0.0525273
0.051769
0.0540462
0.0532864
0.0555683
0.0548069
0.0570938
0.0563306
0.0586231
0.0578579
0.0601565
0.0593892
0.0616945
0.0609249
0.0632375
0.0624654
0.0647861
0.0640111
0.0663407
0.0655626
0.0679021
0.0671205
0.0694708
0.0686854
0.0710477
0.0702581
0.0726334
0.0718393
0.0742288
0.0734299
0.0758345
0.0750302
0.0774518
0.0766418
0.0790792
0.0782639
0.0807259
0.0798995
0.0823947
0.0815574
0.0840743
0.0832338
0.0857641
0.0849163
0.0874522
0.0866082
0.089163
0.0883025
0.0908706
0.0900153
0.0925548
0.0917131
0.0934013
0.0962549
0.0959472
0.0886209
0.0885408
0.089627
0.0894717
0.0380695
0.0380925
0.0381877
0.0389561
0.038198
0.0906276
0.0904038
0.0916188
0.0913108
0.0925953
0.0921824
0.0935513
0.0930357
0.0944836
0.0938409
0.0953808
0.0946087
0.0962387
0.0953411
0.0970399
0.0960106
0.0977735
0.0965998
0.098429
0.0989972
0.0994487
0.0971305
0.0967614
0.100415
0.100132
0.0885909
0.0381564
0.0381706
0.0381563
0.0381542
0.0381577
0.0381573
0.0381552
0.0381571
0.0381505
0.0381529
0.038145
0.0381479
0.0381362
0.0381406
0.0381249
0.038131
0.0381119
0.0381188
0.0380972
0.0381046
0.0380812
0.0380889
0.038058
0.0380694
0.0380505
0.0380464
0.0380447
0.0973987
0.0982206
0.0956834
0.0965111
0.0940268
0.0948518
0.0923465
0.0931881
0.0906546
0.0915004
0.0889689
0.0898113
0.087288
0.0881273
0.0856192
0.0864522
0.0839597
0.0847884
0.0823098
0.0831334
0.0806706
0.0814889
0.0790421
0.0798551
0.0774239
0.0782318
0.0758154
0.0766185
0.0742161
0.0750146
0.0726254
0.0734197
0.0710428
0.0718331
0.0694677
0.0702543
0.0678998
0.0686829
0.0663385
0.0671183
0.0647835
0.0655603
0.0632343
0.0640082
0.0616904
0.0624617
0.0601515
0.0609203
0.0586173
0.0593838
0.0570875
0.0578519
0.0555617
0.0563241
0.0540398
0.0548003
0.0525213
0.0532801
0.0510059
0.0517632
0.0494931
0.0502492
0.0479827
0.0487376
0.0464743
0.0472282
0.0449679
0.0457209
0.0434626
0.0442151
0.0419602
0.0427108
0.040461
0.0412107
0.0397125
0.0404519
0.038918
0.0396948
0.0419551
0.041207
0.0434567
0.0427056
0.0449596
0.044208
0.0464644
0.0457117
0.0479714
0.0472176
0.0494809
0.0487258
0.0509928
0.0502365
0.0525074
0.0517498
0.0540248
0.0532657
0.0555451
0.0547846
0.0570688
0.0563065
0.058596
0.0578319
0.0601271
0.059361
0.0616626
0.0608943
0.0632028
0.0624321
0.0647481
0.0639747
0.0662991
0.0655228
0.0678562
0.0670769
0.0694202
0.0686373
0.0709915
0.0702049
0.0725709
0.0717801
0.0741591
0.0733639
0.0757566
0.0749566
0.0773642
0.0765592
0.0789818
0.0781714
0.0806145
0.0797961
0.0822621
0.0814368
0.0839184
0.0830892
0.0855875
0.0847493
0.0872556
0.0864232
0.0889387
0.0880935
0.0906191
0.089776
0.0922897
0.091453
0.0939517
0.0931189
0.0955888
0.0947733
0.0975867
0.0971645
0.0963909
0.089617
0.0895379
0.0381306
0.0374196
0.037433
0.0906394
0.090484
0.0994699
0.10057
0.100172
0.0916558
0.0914204
0.0926619
0.0923291
0.0936517
0.0932113
0.0946201
0.0940661
0.0955596
0.0948701
0.0964612
0.0956306
0.0973168
0.0963402
0.0981034
0.0969584
0.0988136
0.0975164
0.0994367
0.0979943
0.100002
0.100409
0.100662
0.101082
0.0967542
0.098409
0.0979495
0.0974878
0.0895872
0.0373924
0.0374019
0.0373952
0.0373939
0.0373953
0.0373957
0.0373923
0.0373942
0.0373877
0.0373902
0.0373818
0.037385
0.0373731
0.0373774
0.0373619
0.0373679
0.0373493
0.0373561
0.0373351
0.0373422
0.0373177
0.0373267
0.0372981
0.0373084
0.0372787
0.0372877
0.0372848
0.0372732
0.0373335
0.037303
0.0982649
0.0987771
0.0969811
0.0977307
0.0952904
0.0961024
0.0936983
0.0944995
0.0920621
0.0928837
0.0904115
0.0912369
0.0887625
0.0895871
0.0871119
0.087937
0.085467
0.0862886
0.0838277
0.0846466
0.0821954
0.0830106
0.080571
0.0813821
0.0789551
0.079762
0.0773476
0.0781503
0.0757484
0.076547
0.0741572
0.0749518
0.0725735
0.0733644
0.070997
0.0717844
0.0694273
0.0702113
0.0678641
0.0686449
0.066307
0.0670848
0.0647556
0.0655306
0.0632096
0.0639819
0.0616685
0.0624385
0.0601322
0.0608998
0.0586002
0.0593657
0.0570724
0.0578358
0.0555484
0.0563099
0.0540279
0.0547877
0.0525107
0.0532689
0.0509964
0.0517532
0.0494847
0.0502402
0.0479752
0.0487297
0.0464677
0.0472212
0.0449621
0.0457147
0.0434583
0.0442099
0.0419567
0.0427072
0.0404569
0.0412066
0.0389543
0.0397081
0.0374433
0.0382039
0.0389349
0.0373752
0.0381644
0.0404398
0.0396912
0.0419422
0.0411929
0.0434425
0.042692
0.0449447
0.0441934
0.0464487
0.0456964
0.0479547
0.0472014
0.049463
0.0487085
0.0509736
0.050218
0.0524867
0.0517298
0.0540025
0.0532443
0.0555211
0.0547614
0.0570428
0.0562816
0.0585679
0.0578049
0.0600967
0.0593318
0.0616294
0.0608625
0.0631666
0.0623974
0.0647086
0.063937
0.0662558
0.0654815
0.0678086
0.0670315
0.0693676
0.0685873
0.0709332
0.0701495
0.0725061
0.0717187
0.0740868
0.0732954
0.0756758
0.0748802
0.0772734
0.0764735
0.0788802
0.0780754
0.0804989
0.079688
0.082128
0.0813124
0.0837627
0.0829447
0.0854055
0.0845805
0.0870543
0.0862292
0.0887045
0.0878793
0.0903539
0.0895293
0.0920007
0.0911779
0.0936299
0.0928098
0.095236
0.0944335
0.0959874
0.098712
0.0982208
0.0906306
0.0905511
0.100865
0.0916706
0.0915098
0.0365428
0.0365728
0.0366765
0.0374534
0.0366941
0.0927043
0.0924521
0.0937264
0.0933685
0.0947311
0.0942585
0.0957116
0.0951085
0.0966587
0.0959039
0.0975641
0.0966653
0.0984111
0.097335
0.0991862
0.0979342
0.09988
0.0984558
0.100495
0.0989057
0.101018
0.0992358
0.101309
0.101646
0.101759
0.0994836
0.0989284
0.0906009
0.0366501
0.0366579
0.0366307
0.036635
0.0366341
0.0366333
0.0366329
0.0366337
0.03663
0.0366317
0.0366253
0.036628
0.0366191
0.0366225
0.0366104
0.0366147
0.0365995
0.0366053
0.0365871
0.0365938
0.0365729
0.0365801
0.0365562
0.0365647
0.0365383
0.0365475
0.0365164
0.0365282
0.0365106
0.0365069
0.0365123
0.099119
0.101512
0.0978333
0.0984059
0.0965085
0.0972237
0.0949149
0.0956997
0.0933675
0.0941454
0.0917794
0.0925776
0.0901702
0.090976
0.088555
0.0893633
0.0869333
0.0877447
0.0853122
0.0861225
0.0836933
0.0845025
0.0820783
0.0828851
0.0804687
0.0812727
0.0788654
0.0796662
0.0772689
0.0780663
0.0756792
0.0764732
0.0740961
0.0748868
0.0725196
0.073307
0.0709493
0.0717337
0.0693852
0.0701665
0.0678268
0.0686053
0.0662739
0.0670497
0.0647263
0.0654995
0.0631836
0.0639543
0.0616455
0.062414
0.0601117
0.0608781
0.0585821
0.0593464
0.0570563
0.0578187
0.055534
0.0562947
0.0540151
0.0547742
0.0524993
0.0532569
0.0509862
0.0517424
0.0494756
0.0502306
0.0479672
0.0487211
0.0464607
0.0472137
0.044956
0.0457081
0.0434532
0.0442044
0.0419521
0.0427024
0.0404527
0.0412022
0.0389526
0.0397035
0.0382042
0.0389304
0.0374064
0.0381763
0.0404281
0.0396836
0.041928
0.041178
0.0434279
0.0426778
0.0449293
0.0441784
0.0464324
0.0456806
0.0479374
0.0471846
0.0494445
0.0486907
0.0509537
0.0501988
0.0524654
0.0517093
0.0539795
0.0532221
0.0554963
0.0547375
0.057016
0.0562557
0.0585388
0.057777
0.0600651
0.0593015
0.0615951
0.0608296
0.0631292
0.0623616
0.0646677
0.0638978
0.0662109
0.0654387
0.0677593
0.0669844
0.0693132
0.0685355
0.070873
0.0700923
0.0724392
0.0716552
0.0740122
0.0732248
0.0755924
0.0748013
0.07718
0.0763853
0.0787754
0.0779766
0.0803799
0.0795765
0.0819922
0.0811852
0.0836089
0.0828003
0.0852273
0.0844173
0.0868485
0.0860377
0.0884688
0.0876593
0.0900834
0.0892769
0.0916908
0.0908883
0.0932831
0.0924878
0.0948433
0.0940717
0.0963059
0.0955775
0.0977295
0.0970219
0.0996041
0.0990209
0.0983955
0.0916629
0.0915812
0.0366098
0.0359041
0.0359224
0.0927222
0.0925519
0.0937746
0.0935034
0.0948145
0.094429
0.095835
0.0953226
0.0968279
0.0961691
0.0977831
0.0969624
0.0986889
0.0977034
0.0995295
0.0983504
0.100293
0.0989345
0.100973
0.0993931
0.100213
0.101563
0.0997958
0.100062
0.101986
0.102259
0.102524
0.102474
0.102189
0.0984426
0.100267
0.0996062
0.0989792
0.0916328
0.0358835
0.0358853
0.0358706
0.035871
0.0358728
0.0358728
0.0358712
0.0358721
0.0358682
0.0358699
0.0358634
0.0358661
0.035857
0.0358604
0.0358483
0.0358527
0.0358377
0.0358433
0.0358255
0.035832
0.0358114
0.0358186
0.0357954
0.0358035
0.035778
0.0357868
0.0357573
0.0357685
0.0357363
0.0357445
0.0357558
0.0357359
0.0358114
0.0357803
0.0998876
0.10088
0.100418
0.0986269
0.0993076
0.0973323
0.0979499
0.0960242
0.096705
0.094543
0.095289
0.093041
0.0937961
0.0915001
0.0922752
0.0899303
0.0907177
0.0883471
0.08914
0.0867535
0.0875514
0.0851557
0.0859548
0.0835569
0.0843564
0.081959
0.0827577
0.0803642
0.0811612
0.0787737
0.0795684
0.0771882
0.0779803
0.0756079
0.0763974
0.0740332
0.0748199
0.0724639
0.0732479
0.0709
0.0716813
0.0693414
0.0701201
0.067788
0.0685641
0.0662394
0.0670131
0.0646956
0.0654669
0.0631563
0.0639254
0.0616212
0.0623882
0.0600902
0.0608552
0.0585629
0.0593261
0.0570392
0.0578006
0.0555188
0.0562786
0.0540016
0.0547598
0.0524872
0.0532441
0.0509754
0.051731
0.049466
0.0502204
0.0479586
0.048712
0.0464532
0.0472057
0.0449495
0.0457011
0.0434475
0.0441983
0.0419472
0.0426971
0.0404485
0.0411976
0.0389522
0.0396998
0.037455
0.0382076