/*--------------------------------*- C++ -*----------------------------------*\
  =========                 |
  \\      /  F ield         | OpenFOAM: The Open Source CFD Toolbox
   \\    /   O peration     | Website:  https://openfoam.org
    \\  /    A nd           | Version:  10
     \\/     M anipulation  |
\*---------------------------------------------------------------------------*/
FoamFile
{
    format      ascii;
    class       surfaceScalarField;
    location    "87.5";
    object      phi;
}
// * * * * * * * * * * * * * * * * * * * * * * * * * * * * * * * * * * * * * //

dimensions      [0 3 -1 0 0 0 0];

internalField   nonuniform List<scalar> 
57492
(
0.000235145
-1.05722e-05
-4.36071e-05
-0.000180965
-0.00016204
0.000266793
0.000130391
-2.87422e-05
8.07974e-05
0.00032315
-0.000375205
0.0031599
0.00338638
-0.000272142
-0.00627415
-0.00862825
0.00404525
0.0077429
0.000650734
-0.000597775
-0.000313681
0.000260722
-0.00115777
0.000196139
-6.59569e-05
0.00102759
0.000250133
-0.000757168
0.00159297
-0.00463284
0.00442503
-0.00138517
0.00134437
0.0042484
-0.00399979
-0.000610315
-0.000206021
0.000682601
0.000133735
-0.000122127
-0.000830468
0.00034228
0.000231341
-0.000324559
-2.89094e-05
-5.31287e-05
7.84493e-05
0.00155507
-0.00150285
-0.000562852
0.000510623
0.000225388
0.00125558
7.41034e-05
-0.00032494
0.000788797
0.00333523
-0.00379908
-0.000661063
0.00326113
-0.002925
0.000135384
-0.000288407
0.000153024
-0.00166255
0.00121939
0.000578543
-0.00465975
0.00018909
0.00333539
0.00113527
0.00122867
-0.00472992
-0.0011585
-0.000132858
-0.000195817
-0.000700974
0.00102965
-0.000286514
0.000175649
-2.19933e-05
-0.00254219
0.00215799
0.000733369
-0.000349168
-0.0030459
0.000925677
-0.000421975
-0.00112668
0.000595798
0.000456407
7.4471e-05
-0.000778312
-0.000361892
1.35287e-05
-0.000366965
-0.00113287
0.00128962
0.000210216
-0.000415691
0.000116275
-6.75489e-05
0.000677613
-0.000450645
-0.000420018
0.00019305
-0.000584302
0.000472288
0.000789628
-0.00080181
-0.00153741
0.00149699
0.000842228
-0.00183503
-0.000436168
0.00146938
-0.000707283
-0.000151967
0.00085925
-0.000271195
-0.000436088
-0.00137458
0.00189189
-0.000788506
0.000203036
-0.000767361
-0.000810253
-0.000511143
0.000707282
-0.000233052
-0.00190189
0.00115086
0.000751034
-0.00432179
0.0024199
0.00486372
-0.000801678
0.000332571
-0.00439461
0.00357458
-9.66353e-05
0.00138578
-0.000709323
0.00488221
-0.00497456
0.00127514
0.000276902
-0.00130191
0.00128755
-7.83676e-05
0.00156275
-0.000586138
-0.00116454
0.000187937
0.00174939
9.02538e-05
0.000791351
-0.00049366
0.000989861
0.00077691
0.00104203
-0.00475729
-0.000632321
0.000542829
0.00484678
-0.00489057
-0.000295797
0.000429075
0.00122066
0.00451238
-0.00443718
-0.00129586
0.000892529
-0.0043047
-0.00277264
0.00252594
0.00253038
-0.00228368
-0.000270252
0.00319962
-0.00570201
1.47991e-05
-0.000116374
-7.97578e-07
0.000102372
-0.000320362
1.06023e-05
6.68473e-05
-0.000135631
-0.000251578
-5.61744e-05
6.64772e-06
1.10961e-05
-1.18937e-05
8.82583e-06
2.27026e-06
0.00729832
0.00378493
-0.00587598
-0.00520727
0.0023372
-0.000701998
0.00566311
-0.00784863
0.00309919
0.00708664
0.00229333
-0.00635703
0.00162383
-0.00286526
0.00213315
-0.000891721
0.00235564
-0.00291381
0.002182
-2.97715e-05
2.17513e-05
-2.55203e-06
-6.99913e-05
-3.38727e-06
-0.000222067
-2.889e-05
-0.00293748
0.00534609
0.00339222
-0.00580083
0.00436232
-0.00494416
0.00298385
0.00474579
-0.00238355
0.010079
-0.00147768
-0.00179164
-0.00680969
0.00224527
0.00541531
0.00241844
0.00160766
-0.00500152
0.00563913
4.67566e-05
-7.54987e-05
0.000127554
0.000815444
0.00175637
-0.000625899
-0.00194591
0.00103906
9.95357e-05
-9.5474e-05
2.62195e-05
6.92545e-05
-0.000297406
0.000201932
-0.0066026
0.00342363
-0.00201297
0.00519194
-0.00574038
-0.00249452
0.00163231
-0.00262454
0.00208738
-0.00520321
0.00195097
-2.66215e-05
-0.000943893
-0.000980453
-0.000711288
0.00222657
0.000435682
-0.000834231
-8.52136e-05
0.000208157
-0.000771209
-8.96436e-05
-0.000271374
-0.00144373
-0.000237922
-6.23508e-05
1.89967e-05
0.000281276
-0.000214845
-0.000521182
0.000498105
0.000137717
1.69471e-05
-0.000369509
7.95454e-05
-4.17923e-06
0.000101147
-2.60532e-06
-0.000640852
0.000369478
8.34526e-05
-0.000724305
0.000172149
-0.000469555
0.00427364
0.0033316
-0.000178533
0.00212861
-0.00648322
-1.04191e-05
0.00226404
-0.00179751
-0.000456112
0.000291652
0.00316422
-0.00346629
0.00326801
0.00183788
-0.000496939
-0.00460895
-0.00103447
0.000503239
0.00379924
0.00398513
-0.00318171
-0.00164304
-0.00303444
0.00125215
0.00342533
-0.0011842
0.00350467
-0.00396351
0.000424172
-0.00464281
8.22888e-05
3.37282e-05
-4.56814e-06
0.00104276
-0.000615077
-0.000589726
7.62303e-05
-0.000322789
0.00128932
0.000362171
-1.91474e-05
-0.000187108
0.000331909
6.8323e-05
-0.000213123
0.000991932
-0.00121579
3.67516e-05
-0.000357776
0.00083098
0.000518728
-0.000125168
9.93008e-05
-0.00611086
0.003652
0.00588249
0.0077217
-0.00200504
-0.00821119
-0.00285409
0.00446493
-9.70681e-05
-0.000873794
-0.000162012
-0.000521877
9.11865e-06
4.7727e-05
-0.000130061
3.74877e-05
4.48458e-05
-0.000129923
0.000144265
3.33858e-05
-0.000298938
3.89538e-05
-0.000265118
-0.000312557
5.57977e-05
-0.000803181
-0.000335732
-0.000734938
-0.00078814
0.000899893
0.000623186
2.99858e-05
0.000389643
-0.00115457
-0.00102724
0.000269089
-0.00293272
0.00133013
-5.99512e-05
-0.0035012
0.000809194
-0.000240717
0.000875893
-0.0033474
0.00256425
-9.27431e-05
0.00067894
-0.00272859
0.00292555
0.00252811
-0.0101973
-0.0017648
0.00218101
0.00302043
-0.0034551
0.0020606
-0.000320677
2.67563e-07
1.66796e-05
-3.50281e-06
3.77038e-06
0.000284088
-4.12768e-05
0.00557755
-0.00340892
-0.00249503
0.000326408
0.00482941
3.88158e-05
0.00463709
0.000169629
-0.00507697
0.00138021
0.00329285
-3.59623e-05
0.000551528
-0.00290862
0.0037373
5.31674e-06
-8.81956e-06
0.000759148
-0.00211942
-0.00284585
0.00123137
0.00308258
0.000764231
-4.37938e-05
-0.000803352
8.29147e-05
0.000254469
-7.45403e-05
-0.00098452
0.000219761
0.00123705
0.000179805
-0.000909856
-0.000134945
7.61201e-05
-7.00929e-06
1.0328e-05
-2.98627e-06
-3.3247e-07
1.0936e-05
-2.5588e-07
-1.76894e-05
4.67868e-05
-0.000103211
6.73598e-05
-0.0017142
0.00264683
-0.000760484
0.00291536
-0.00378031
-0.000849252
7.03849e-06
-0.00135589
0.00156862
-0.00398876
0.000240866
-0.00273455
-0.00182964
0.000575439
0.00269062
0.00291174
-0.00541327
0.00260581
0.00429239
-0.00420759
0.00224084
-0.00308398
0.00160581
-0.000762671
0.00245611
-0.0030231
0.00280783
0.00437006
0.00187707
0.00500265
-0.00022883
-0.00496813
0.00019431
0.00554387
-0.000657365
0.000116152
0.00552829
-0.000906712
8.64251e-05
-0.004708
0.00396772
-0.00137876
0.00293933
0.00430743
-0.00140615
0.00114315
-0.00404443
0.00127193
0.00438733
-0.00135183
-0.00387565
-0.00166755
0.00413706
0.0010687
-0.00369221
-0.001862
0.00361978
-0.00238045
-0.00323859
0.00215643
0.00346261
-0.00239626
-0.00326661
0.00328242
0.00223605
0.00304537
-0.00147551
-0.00380591
0.00301911
-0.00317932
-0.00259036
0.00261507
0.0029944
-0.00204161
0.00249662
-0.00406847
0.00361451
-0.00102156
-0.00506478
0.00105444
0.00537417
-0.00136383
0.00191109
-0.000262913
0.000988509
-0.00105424
0.000328639
-0.000106761
0.00126734
-0.00142349
-5.28982e-05
0.000304694
0.000110375
-0.000988155
-0.00155289
0.00101153
-1.49554e-07
-1.06326e-07
3.07919e-07
-4.57474e-07
-9.00271e-05
-0.00171173
0.00130809
-0.00152921
-6.01823e-05
0.00149937
4.06992e-05
-0.00160268
3.27677e-05
-0.000245904
0.00152398
0.00027142
-0.0015495
0.00157255
0.000428824
-0.00224728
0.00154894
0.00154759
-2.44891e-06
5.0935e-07
3.56678e-05
-4.74679e-06
2.29788e-06
-4.23744e-06
-5.53439e-06
4.22366e-06
-5.48637e-05
1.02229e-06
-6.55668e-06
5.24595e-06
-4.38671e-05
2.12585e-05
-0.000263905
2.21367e-05
-6.60038e-05
4.33952e-05
5.32172e-05
-5.34446e-06
-0.000173041
-1.69147e-05
7.01319e-05
-2.22591e-05
0.00142788
0.00327783
-0.00420247
0.00132247
-0.0044607
0.00456611
0.00471311
-0.000112809
-0.00118219
-0.0024441
0.00115806
0.00246823
-0.000710335
0.00272146
-0.00319331
0.000157406
-0.00331184
0.0035768
-0.00359074
-8.93292e-06
2.287e-05
0.00359483
3.46071e-05
-5.26424e-05
-1.97096e-05
-0.00356537
-5.65698e-06
0.00364138
8.21654e-07
-4.73641e-05
0.00372615
5.4977e-05
-0.00013975
2.78796e-05
0.00383915
-0.000140876
0.00379226
-0.0037502
-1.41782e-05
-0.000178198
0.00403925
-2.19074e-05
0.00370588
-9.18228e-05
-0.00361607
-7.91479e-05
-0.00358424
-3.1011e-05
-0.00355964
1.00024e-05
-0.00361595
4.73859e-05
-0.00353681
-9.88586e-05
-0.000174572
0.00423558
-2.17566e-05
0.00355101
-1.96961e-05
-1.47982e-05
-0.00351511
-3.54621e-05
-0.00354533
-6.26934e-06
-2.19054e-05
-0.00369734
0.00020414
-7.65338e-07
0.00425759
-2.1243e-05
0.00357022
-1.99781e-05
-0.00365444
8.72035e-05
0.00427951
-9.49488e-07
-2.0977e-05
-1.35725e-06
0.00430121
-2.03422e-05
0.00358908
-1.98098e-05
0.00360792
-2.02029e-05
-1.76016e-05
-0.00365364
-2.6099e-05
-0.00365247
-1.95794e-05
-1.44099e-06
0.00432272
-2.00672e-05
0.00362654
-2.00552e-05
3.34582e-06
-0.0036305
-2.6486e-05
-0.00362923
-1.98947e-05
-1.71418e-06
0.00434385
-1.94147e-05
0.00364529
-2.04624e-05
3.61168e-06
-0.00360707
-2.70397e-05
-0.00360588
-1.97338e-05
-1.55839e-06
0.00436456
-1.91518e-05
0.00366405
-2.0317e-05
3.67229e-06
-0.00358343
-2.73194e-05
-0.00358213
-2.00755e-05
-1.36867e-06
0.00438442
-1.84934e-05
0.0036834
-2.07229e-05
3.89986e-06
-0.00355954
-2.77823e-05
-0.00355828
-1.99471e-05
-2.79156e-07
0.00440295
-1.82494e-05
0.00370369
-2.05649e-05
1.21855e-05
-0.00354374
-2.79901e-05
-0.00352583
-2.02672e-05
1.75554e-06
0.00441878
-1.75873e-05
0.00372639
-2.09483e-05
2.71384e-05
-0.0034203
-0.000150577
-0.0034422
-5.64894e-05
6.54676e-06
0.0044296
-1.7364e-05
0.00373658
-3.64296e-06
2.67982e-05
-0.0034134
-3.36994e-05
-0.00339324
-2.21642e-05
1.59727e-05
0.00443034
-1.67158e-05
0.00372761
2.49452e-05
5.25738e-05
-0.00326948
-0.000196489
-0.00327224
-6.84255e-05
0.000187106
0.00425974
-1.65006e-05
0.00385865
5.60589e-05
5.92852e-05
-0.00323128
-9.74931e-05
-0.0032134
4.46948e-07
0.000165934
0.00396417
0.000129635
0.0039402
8.43928e-05
9.12369e-05
-0.000151123
-0.00317139
-0.00317749
5.53252e-05
8.93345e-06
2.2934e-05
0.0039323
0.00393237
1.67565e-05
-0.00325419
0.00332919
-0.00017249
-0.00324886
-0.000156452
0.000151462
-0.000156622
-0.00316623
5.42511e-05
-0.00308028
-0.00328045
0.00333213
-8.53734e-05
-0.000147756
-0.00323232
0.00325447
-5.01385e-05
-5.07735e-05
-0.00327624
0.00329784
-4.89199e-05
-4.95513e-05
-0.0033191
0.00334024
-4.7626e-05
-4.8299e-05
-0.00336111
0.00361164
-4.63903e-05
-4.69678e-05
-0.00362198
0.00359271
2.3619e-05
-4.58054e-05
-0.00372904
0.00372029
-4.3892e-05
-0.000113463
-0.00362019
0.00358663
-0.000106188
5.27316e-05
-0.00352046
0.00353977
-4.12156e-05
-7.47025e-05
-0.0035587
0.00357752
-4.00635e-05
-4.06914e-05
-0.00359608
0.0036146
-3.88637e-05
-3.95309e-05
-0.00363286
0.0036511
-3.76541e-05
-3.83306e-05
-0.00366908
0.00368705
-3.64567e-05
-3.71338e-05
-0.00370475
0.00372245
-3.52817e-05
-3.59558e-05
-0.00373988
0.00375728
-3.41145e-05
-3.4801e-05
-0.00375253
0.0038578
2.43643e-05
-1.17515e-05
0.00386527
1.54706e-05
-2.68934e-05
6.166e-05
0.00389753
-2.43681e-05
0.00392985
0.00385541
-0.00377503
-2.43173e-05
-0.0039105
0.00391967
7.58691e-06
2.92978e-05
0.00375738
-0.00372271
-3.83156e-05
7.29537e-06
0.00370513
-0.00368724
-3.84576e-05
-3.85226e-05
0.00366937
-0.00365118
-3.85009e-05
-3.85989e-05
0.00363301
-0.00361452
-3.85436e-05
-3.86377e-05
0.00359602
-0.00357721
-3.8626e-05
-3.86973e-05
0.00355837
-0.00353927
-3.87993e-05
-3.88161e-05
0.00359205
-0.00356725
-3.89821e-05
-3.90361e-05
0.00360722
-0.00354825
-8.99807e-05
-3.91734e-05
0.00350523
-0.00346256
4.71641e-06
-3.30257e-05
0.00348556
-0.00348766
-4.1634e-06
-7.58572e-05
0.00336007
-0.00333913
-4.05215e-05
-4.03873e-05
0.00331807
-0.00329663
-4.11702e-05
-4.09547e-05
0.00327508
-0.00325314
-4.18869e-05
-4.16304e-05
0.00323103
-0.00324484
-4.2684e-05
-4.2376e-05
0.00322377
-0.00324856
-4.36298e-05
-4.32323e-05
0.00320379
-0.00313469
-1.37734e-05
-4.43257e-05
-0.00307851
-1.93001e-06
-0.00324956
-0.000155926
0.00389487
3.20531e-05
-3.77775e-05
0.00393308
9.46082e-05
-0.000106736
-0.00306815
4.85114e-05
-0.00303242
0.000134498
-0.000152078
-0.00323197
-0.00313847
-0.00325745
0.00322697
-0.000142014
0.00327197
-0.0032758
-0.000152093
-0.00014193
-0.00320771
0.00323007
-0.00010773
-0.000128499
-0.003252
0.00327378
-7.19182e-05
-7.27068e-05
-0.00329519
0.00331644
-7.01699e-05
-7.09587e-05
-0.00333735
0.00335814
-6.84152e-05
-6.92075e-05
-0.00337863
0.00339896
-6.67142e-05
-6.74645e-05
-0.00341896
0.00350768
-6.51012e-05
-6.581e-05
-0.00345842
0.00347796
-6.34389e-05
-6.41971e-05
-0.00359332
0.003549
-6.18666e-05
-6.26294e-05
-0.00353522
0.00355416
-6.01588e-05
-6.09149e-05
-0.00357279
0.00359134
-5.86114e-05
-5.932e-05
-0.0036096
0.00362784
-5.70962e-05
-5.78e-05
-0.00364581
0.00366375
-5.56e-05
-5.62996e-05
-0.00368144
0.00369911
-5.41284e-05
-5.4821e-05
-0.00371652
0.00373393
-5.26835e-05
-5.33696e-05
-0.00375106
0.00376817
-5.12197e-05
-5.19369e-05
-0.00378476
0.0038316
-2.24796e-05
-2.83388e-05
-5.06792e-06
-2.07337e-05
0.00392334
-2.87995e-05
0.00391861
-0.00383654
0.00389107
-2.24774e-05
1.05305e-05
0.00387756
-0.00386165
-8.31923e-06
0.00386286
-2.30821e-05
1.84726e-05
7.51705e-06
0.00390709
0.00392759
0.00384546
-0.00380109
-6.86848e-05
1.31069e-05
0.00375183
-0.00373446
-5.56894e-05
-4.19674e-05
0.00371712
-0.00369949
-5.60926e-05
-5.58576e-05
0.00368187
-0.00366395
-5.64209e-05
-5.62115e-05
0.00364605
-0.00362783
-5.67612e-05
-5.65454e-05
0.00360961
-0.00359109
-5.71506e-05
-5.69117e-05
0.00357257
-0.00355375
-5.76133e-05
-5.73407e-05
0.00353495
-0.0035158
-5.81261e-05
-5.78416e-05
0.00349659
-0.00352783
-5.87458e-05
-5.83841e-05
0.00350178
-0.00343763
-5.94343e-05
-5.90672e-05
0.00345366
-0.0033975
-6.03276e-05
-5.98281e-05
0.00337716
-0.00335645
-6.123e-05
-6.07292e-05
0.00333566
-0.00331451
-6.23206e-05
-6.17419e-05
0.00329324
-0.00327159
-6.35421e-05
-6.28985e-05
0.00324978
-0.00322755
-6.4911e-05
-6.41869e-05
0.00320513
-0.00318228
-6.64843e-05
-6.56473e-05
0.00315925
-0.00310471
-6.83089e-05
-6.73558e-05
0.00306428
-0.00300049
-1.52754e-05
-4.23678e-05
-0.00327487
-0.000153013
3.50175e-05
-0.000104596
-0.00296284
-0.00295954
-5.9282e-06
-0.000173661
-0.00299909
-2.27497e-05
0.00388502
0.00388586
-1.54819e-05
-9.97713e-05
9.35422e-05
-0.00322575
-0.000121715
-0.00325292
1.29311e-05
-0.000100464
-0.0028753
-2.88905e-05
-0.00291772
-0.00321859
0.00391469
-0.00388771
-4.94558e-05
0.00389076
1.18508e-06
3.12715e-05
-9.04971e-06
0.00388487
-8.65275e-06
0.00392579
-0.00325287
0.00331177
-0.000180619
-0.000166855
0.000124765
-0.00321083
0.00330458
1.18201e-05
0.000173434
-0.00348983
-0.000115146
-0.00333117
0.00332731
-0.000148237
-0.000172409
-0.0033062
0.00327436
-0.000110171
-0.000120825
-0.00327135
0.00325913
-9.55036e-05
-0.000125491
-0.00328057
0.00330182
-9.31692e-05
-9.41496e-05
-0.00332269
0.00334341
-9.0887e-05
-9.1833e-05
-0.0033638
0.00338406
-8.86766e-05
-8.95906e-05
-0.00340401
0.00342384
-8.6549e-05
-8.74178e-05
-0.00344337
0.00346277
-8.45039e-05
-8.53363e-05
-0.0034819
0.00350096
-8.2497e-05
-8.3321e-05
-0.00351968
0.00353837
-8.05528e-05
-8.13582e-05
-0.00355684
0.00357526
-7.85859e-05
-7.938e-05
-0.00359342
0.00361152
-7.67169e-05
-7.74753e-05
-0.00362936
0.00364716
-7.48996e-05
-7.56374e-05
-0.00366471
0.00368223
-7.31223e-05
-7.38442e-05
-0.0036995
0.00371675
-7.13815e-05
-7.2089e-05
-0.00373375
0.00375074
-6.96713e-05
-7.0369e-05
-0.00376747
0.00378419
-6.7941e-05
-6.86667e-05
-0.00381104
0.00383322
-4.46646e-05
-5.51845e-05
-4.39599e-05
1.19017e-05
-1.27059e-05
0.00392414
-1.05461e-05
-3.62239e-05
0.00393179
0.00391996
0.00390583
0.00388168
-0.00386171
-2.82916e-05
-0.00389197
0.00388612
-9.62714e-06
-3.33755e-05
0.003802
-0.00379868
-7.20029e-05
-4.65993e-05
0.00376852
-0.00375152
-7.26905e-05
-7.21277e-05
0.00373457
-0.00371732
-7.33385e-05
-7.28084e-05
0.0037001
-0.00368258
-7.39453e-05
-7.34347e-05
0.00366506
-0.00364725
-7.45741e-05
-7.40562e-05
0.00362945
-0.00361134
-7.52584e-05
-7.47182e-05
0.00359323
-0.00357483
-7.6018e-05
-7.5447e-05
0.00355641
-0.00353768
-7.68567e-05
-7.62536e-05
0.00351892
-0.00349985
-7.78171e-05
-7.71489e-05
0.00348073
-0.00346128
-7.88892e-05
-7.81803e-05
0.00344178
-0.00342198
-8.01272e-05
-7.93326e-05
0.00340207
-0.00338182
-8.14786e-05
-8.06318e-05
0.00336149
-0.00334079
-8.30145e-05
-8.20789e-05
0.00331998
-0.0032988
-8.47301e-05
-8.37074e-05
0.00327746
-0.00325573
-8.66476e-05
-8.55218e-05
0.00323381
-0.00321148
-8.88163e-05
-8.756e-05
0.00318896
-0.00316599
-9.12765e-05
-8.98769e-05
0.00311586
-0.00303703
-9.41122e-05
-9.24958e-05
0.00298298
-0.00296864
-4.32324e-05
-5.99741e-05
-1.84714e-05
-2.33478e-06
-0.00289692
-0.0029329
-5.42061e-05
0.000119309
-0.00322029
-7.47597e-05
-0.00302479
-2.52448e-05
0.00387978
0.00391566
-3.81998e-05
0.000162196
-0.00336121
2.91446e-05
-0.00290678
0.000734135
-0.00269281
0.00350762
2.4003e-05
-6.36088e-05
-0.0028933
-2.58106e-05
-0.0028471
-0.0021732
0.00332263
0.00039816
-0.00165625
-0.000245532
-0.00317404
-0.00317327
0.00332743
1.9276e-05
0.000167159
-1.77925e-05
-0.00331475
0.00330527
-0.000171134
-0.000102472
-0.00329948
0.0032742
-0.000122961
-0.000166623
-0.00327437
0.00328383
-0.000119629
-0.00012099
-0.00327606
0.00329707
-0.000116511
-0.000117725
-0.00331771
0.00333819
-0.000113648
-0.000114789
-0.00335833
0.00337834
-0.000110897
-0.00011198
-0.00339804
0.00341762
-0.000108259
-0.000109287
-0.00343691
0.00345609
-0.000105729
-0.000106702
-0.00347497
0.00349377
-0.000103298
-0.000104223
-0.00351228
0.00353072
-0.000100941
-0.000101832
-0.00354888
0.00356699
-9.86562e-05
-9.95193e-05
-0.00358485
0.00360268
-9.6412e-05
-9.72457e-05
-0.00362025
0.00363778
-9.42479e-05
-9.50454e-05
-0.00365506
0.0036723
-9.21464e-05
-9.29145e-05
-0.0036893
0.00370628
-9.00986e-05
-9.08418e-05
-0.00372301
0.00373972
-8.80973e-05
-8.88194e-05
-0.00375619
0.00377265
-8.61311e-05
-8.68395e-05
-0.00378887
0.00380508
-8.41547e-05
-8.48799e-05
-0.00383279
0.00387031
-8.21869e-05
-8.28921e-05
-0.00387643
0.00388906
-6.20911e-05
-5.0077e-05
-0.00391971
0.00392906
-3.45886e-05
-2.94647e-05
8.17866e-06
-6.00467e-07
0.00392421
3.01546e-05
-7.26878e-05
0.00397159
0.00391811
2.51593e-05
1.18783e-05
0.0038871
0.00394452
-6.07753e-06
-1.87942e-05
0.00390974
0.00391163
3.15462e-05
-6.77343e-05
0.00395185
0.00393854
0.00394082
-0.00391182
-3.8633e-05
-0.00401634
0.00392714
2.14701e-05
-0.000113718
0.0038871
-0.00386335
-5.20507e-05
-5.80863e-05
0.00382262
-0.00380639
-8.82324e-05
-8.73291e-05
0.00379018
-0.00377369
-8.9183e-05
-8.83321e-05
0.00375724
-0.0037405
-9.00739e-05
-8.92583e-05
0.00372379
-0.00370678
-9.09506e-05
-9.01483e-05
0.00368979
-0.00367251
-9.18586e-05
-9.10485e-05
0.00365523
-0.00363766
-9.2829e-05
-9.19967e-05
0.00362009
-0.00360222
-9.38834e-05
-9.30186e-05
0.00358434
-0.00356616
-9.50395e-05
-9.41324e-05
0.00354795
-0.00352944
-9.63292e-05
-9.53609e-05
0.00351088
-0.00349201
-9.77603e-05
-9.67327e-05
0.00347309
-0.00345386
-9.93592e-05
-9.82514e-05
0.00343455
-0.00341491
-0.000101122
-9.99401e-05
0.00339518
-0.0033751
-0.00010309
-0.00010181
0.00335492
-0.00333437
-0.000105276
-0.000103892
0.00331369
-0.00329263
-0.000107707
-0.000106202
0.00327142
-0.00324981
-0.000110425
-0.000108776
0.00322803
-0.00320584
-0.000113466
-0.000111658
0.00318346
-0.00316071
-0.000116867
-0.000114872
0.00310223
-0.00302482
-0.000120642
-0.000118452
0.00300814
-0.00297635
-9.53986e-05
-7.08848e-05
-5.86274e-05
3.96826e-05
-0.00287435
-0.00293467
-0.000100307
0.000114431
-0.00317253
-2.07328e-05
-0.00297492
0.000282115
-0.00290919
3.03895e-05
-0.00296298
0.00395529
-0.00394534
-4.45329e-05
0.00395455
-7.1951e-05
-2.14364e-05
2.03389e-05
0.00395295
-7.2031e-05
0.00397773
0.000296822
-0.00256081
5.7965e-05
-0.00286538
-0.00145933
-0.00174642
-0.00260765
0.00302392
-1.81068e-05
-3.96456e-05
3.61159e-05
-0.00287082
-7.84985e-05
-0.00289582
-0.0023953
-0.000457883
-0.00308034
-0.00317681
0.00323813
-4.20448e-05
1.42628e-05
-0.00328564
0.00326239
-0.000147887
-0.000149979
-0.00324112
0.00326193
-0.000143766
-0.000145351
-0.00328244
0.00330283
-0.00014002
-0.000141506
-0.00332297
0.00334297
-0.00013651
-0.000137864
-0.00336267
0.00338224
-0.000133218
-0.000134485
-0.00340151
0.00342067
-0.000130057
-0.000131255
-0.00343955
0.00345832
-0.000127029
-0.000128159
-0.00347681
0.00349521
-0.000124127
-0.000125193
-0.00351333
0.00353137
-0.000121341
-0.000122349
-0.00354915
0.00356687
-0.000118654
-0.000119611
-0.00358432
0.00360172
-0.000116056
-0.000116971
-0.00361888
0.003636
-0.000113531
-0.000114405
-0.00365287
0.00366972
-0.00011109
-0.000111923
-0.00368632
0.00370289
-0.000108722
-0.000109517
-0.00371923
0.00373555
-0.000106416
-0.00010718
-0.00375163
0.0037677
-0.000104166
-0.000104902
-0.00378353
0.00379936
-0.000101957
-0.000102674
-0.00381496
0.00383056
-9.97613e-05
-0.000100476
-0.00384595
0.00386132
-9.75561e-05
-9.82754e-05
-0.00390733
0.00390917
-6.39351e-05
-9.60881e-05
-6.56354e-05
-3.65448e-06
-3.80496e-05
0.00396592
4.3716e-05
-4.85279e-05
0.0039764
0.00395817
-1.23523e-05
-4.06327e-06
0.00390352
0.00389412
-1.74169e-05
1.91493e-05
0.00390801
0.00389015
0.00397803
0.00396637
-0.00394035
-6.46518e-05
-0.00393292
0.00398408
-2.96924e-05
-8.02663e-05
0.00391372
-0.00386311
-0.000102662
-8.47155e-05
0.00384775
-0.00383211
-0.000103868
-0.000102691
0.00381652
-0.00380065
-0.000105048
-0.000103925
0.00378482
-0.00376871
-0.000106185
-0.000105092
0.00375262
-0.00373625
-0.000107323
-0.00010624
0.00371988
-0.00370324
-0.000108501
-0.00010741
0.0036866
-0.00366969
-0.000109748
-0.000108634
0.00365276
-0.00363556
-0.00011109
-0.000109941
0.00361834
-0.00360083
-0.00011255
-0.000111353
0.00358329
-0.00356546
-0.000114156
-0.000112897
0.0035476
-0.00352944
-0.000115924
-0.000114596
0.00351122
-0.00349271
-0.000117875
-0.000116464
0.00347412
-0.00345522
-0.000120023
-0.000118523
0.00343624
-0.00341693
-0.000122398
-0.000120792
0.00339753
-0.00337778
-0.000125022
-0.000123299
0.00335791
-0.0033377
-0.000127923
-0.000126067
0.00331735
-0.00329664
-0.000131134
-0.000129127
0.00327579
-0.00325457
-0.000134682
-0.000132513
0.0032332
-0.00321148
-0.000138582
-0.000136243
0.00318962
-0.00316744
-0.000142825
-0.000140311
0.00309354
-0.00304156
-0.000147378
-0.000144784
0.00299241
-0.00294997
-0.000120941
-0.000149461
-4.9944e-05
5.51691e-05
-0.00290104
-0.00291557
-8.43406e-05
8.89828e-05
-0.00297939
3.75917e-06
-0.00294829
-4.53301e-05
0.00395135
0.00398498
-7.29314e-05
0.00017869
-0.00279106
-0.000289356
-0.00341725
1.05843e-05
-0.00286075
3.16301e-05
-0.00293665
5.91885e-05
-0.00288846
-0.00340904
-0.000732675
0.000238435
-0.000490285
-0.00315719
-0.00015559
-0.00302323
3.7419e-05
-0.00285307
-8.19552e-05
1.60181e-05
-0.0028351
-6.94652e-05
-0.00292806
-0.0029876
-0.00290921
0.00305958
-0.00016848
0.0030387
-0.00331032
-0.000461061
-0.000328389
-0.00317403
0.00323937
-0.000107387
-0.000100187
-0.00325956
0.00327966
-0.000167989
-0.000170166
-0.00329951
0.00331921
-0.000163462
-0.000165201
-0.00333864
0.00335797
-0.000159348
-0.00016094
-0.00337704
0.00339599
-0.000155465
-0.000156933
-0.00341467
0.00343324
-0.000151786
-0.000153162
-0.00345154
0.00346974
-0.000148257
-0.000149555
-0.00348767
0.00350552
-0.000144875
-0.000146096
-0.00352311
0.00354062
-0.000141634
-0.000142781
-0.00355787
0.00357505
-0.000138522
-0.000139602
-0.00359199
0.00360886
-0.000135528
-0.000136546
-0.00362549
0.00364208
-0.00013264
-0.000133603
-0.00365843
0.00367474
-0.000129845
-0.000130758
-0.00369083
0.00370688
-0.000127144
-0.000128007
-0.00372271
0.00373851
-0.000124523
-0.000125344
-0.00375409
0.00376964
-0.000121975
-0.000122757
-0.00378498
0.0038003
-0.000119488
-0.000120237
-0.0038154
0.00383049
-0.000117049
-0.000117773
-0.00384536
0.00386024
-0.000114636
-0.000115348
-0.0038749
0.00388958
-0.000112231
-0.000112938
-0.00390402
0.00394994
-0.000109859
-0.000110532
-0.00396612
0.00398872
-6.71406e-05
-8.18075e-05
-0.00394954
0.0039792
-7.49846e-05
-3.27705e-05
-9.82117e-06
1.14503e-05
0.00397477
7.91845e-05
-0.000113741
0.00401375
0.00402071
4.90472e-06
2.81363e-05
0.00393287
0.00397453
-1.20541e-05
-4.23647e-06
0.00391981
0.0039102
2.04506e-05
-3.65384e-05
0.0039241
0.00390636
2.39769e-05
-4.61659e-05
0.00397514
0.00396546
6.84741e-05
-7.77393e-05
0.00399425
0.00400004
0.00402373
-0.00396467
-8.87531e-05
-0.00401817
0.00400994
-6.95124e-05
-6.73692e-05
0.00396001
-0.00393748
-8.71862e-05
-8.49209e-05
0.00390632
-0.00389165
-0.000117325
-0.000115876
0.00387699
-0.00386208
-0.000118783
-0.000117351
0.0038472
-0.00383206
-0.00012019
-0.000118803
0.00381694
-0.00380156
-0.00012157
-0.00012021
0.00378619
-0.00377055
-0.00012296
-0.000121609
0.00375492
-0.00373903
-0.000124396
-0.000123037
0.00372313
-0.00370697
-0.00012591
-0.000124527
0.00369081
-0.00367437
-0.000127528
-0.000126108
0.00365792
-0.00364119
-0.000129277
-0.000127806
0.00362444
-0.00360741
-0.000131183
-0.000129648
0.00359035
-0.00357301
-0.000133267
-0.000131657
0.00355562
-0.00353794
-0.000135551
-0.000133853
0.00352021
-0.00350217
-0.000138055
-0.000136259
0.00348407
-0.00346566
-0.000140807
-0.000138898
0.00344716
-0.00342835
-0.00014383
-0.000141796
0.00340944
-0.00339022
-0.000147151
-0.000144977
0.00337087
-0.00335121
-0.000150797
-0.000148469
0.00333143
-0.00331132
-0.000154787
-0.000152297
0.00329109
-0.00327055
-0.000159125
-0.000156473
0.00324987
-0.00322889
-0.000163807
-0.000160988
0.00320783
-0.00318644
-0.000168766
-0.000165847
0.00316494
-0.00311179
-0.000174097
-0.000170959
0.0030607
-0.00299
-0.000140174
-0.000135423
-0.000113997
6.70125e-05
-0.00288107
-0.00297038
-0.000133617
6.45285e-05
-0.00286523
-0.0033221
-0.000478498
6.05087e-05
-0.00284098
0.00405621
-0.00405453
-7.66714e-05
0.00406572
-0.000123242
-5.80041e-05
4.70856e-05
0.00400516
-6.06317e-05
0.00401257
4.79373e-06
-0.00292145
3.26214e-05
-0.00291008
-1.98468e-05
-0.00299649
6.01743e-05
-0.00291121
8.78839e-05
-0.00292494
0.000115743
-0.00288384
-0.000101687
0.000106407
-0.00288579
-0.000154358
-0.0029177
-0.00291828
-0.00332464
0.00319538
-0.000331798
-0.000416388
0.000493437
-0.00339915
0.00343715
-0.00354681
-0.000306727
-0.00036599
-0.00309819
0.0031704
-0.000240686
-0.000231203
-0.00325214
0.00330743
-0.000162682
-0.000181926
-0.00332658
0.00334561
-0.000187017
-0.00018931
-0.00336437
0.00338298
-0.000182073
-0.000183964
-0.00340131
0.00341952
-0.000177559
-0.00017927
-0.00343748
0.00345532
-0.000173309
-0.000174888
-0.00347291
0.0034904
-0.000169275
-0.000170749
-0.00350764
0.00352479
-0.00016541
-0.000166796
-0.00354171
0.00355854
-0.000161706
-0.000163007
-0.00357513
0.00359165
-0.000158155
-0.000159374
-0.00360794
0.00362416
-0.000154747
-0.00015589
-0.00364016
0.0036561
-0.00015147
-0.000152543
-0.00367182
0.0036875
-0.000148313
-0.000149322
-0.00370295
0.00371837
-0.000145265
-0.000146214
-0.00373358
0.00374875
-0.000142319
-0.000143212
-0.00376371
0.00377865
-0.000139462
-0.000140306
-0.00379338
0.00380809
-0.000136685
-0.000137485
-0.00382259
0.00383708
-0.000133975
-0.000134737
-0.00385136
0.00386563
-0.000131318
-0.000132051
-0.00387969
0.00389375
-0.000128695
-0.000129408
-0.0039076
0.00392145
-0.000126087
-0.000126791
-0.0039351
0.00394872
-0.000123475
-0.00012418
-0.0039885
0.004016
-9.46381e-05
-0.000121593
-7.12978e-05
-5.51748e-05
1.5057e-05
0.00401489
5.65115e-05
-0.000101332
0.00405858
0.00402205
-4.33802e-05
2.76779e-05
0.00394858
0.0039462
-1.17399e-05
-4.38241e-06
0.00393593
0.00392614
2.0435e-05
-3.63887e-05
0.00394005
0.00392242
6.16351e-06
-3.38846e-05
0.00400286
0.00393524
0.00401324
0.00404729
-0.00403654
-9.95031e-05
-0.00405128
0.00404502
-6.32533e-05
-7.13585e-05
0.00399368
-0.00395135
-0.000129515
-0.000127786
0.00393774
-0.00392385
-0.000131213
-0.000129484
0.00391
-0.00389589
-0.00013289
-0.000131208
0.00388181
-0.00386748
-0.000134523
-0.000132882
0.00385317
-0.0038386
-0.000136137
-0.000134522
0.00382404
-0.00380924
-0.000137769
-0.000136163
0.00379443
-0.00377938
-0.000139454
-0.000137839
0.00376432
-0.00374901
-0.000141221
-0.000139583
0.00373369
-0.00371812
-0.000143102
-0.000141425
0.00370253
-0.00368668
-0.000145122
-0.000143393
0.00367082
-0.00365469
-0.000147311
-0.000145515
0.00363853
-0.00362211
-0.000149689
-0.000147815
0.00360565
-0.00358892
-0.000152281
-0.000150316
0.00357213
-0.00355508
-0.000155111
-0.000153042
0.00353796
-0.00352056
-0.000158204
-0.000156017
0.00350309
-0.00348533
-0.000161584
-0.000159267
0.00346749
-0.00344937
-0.000165276
-0.000162816
0.00343115
-0.00341265
-0.000169301
-0.000166687
0.00339405
-0.00337516
-0.000173673
-0.000170899
0.00335617
-0.00333691
-0.000178391
-0.00017546
0.00331753
-0.00329789
-0.000183452
-0.000180363
0.00327813
-0.00325808
-0.000188817
-0.000185601
0.0032379
-0.00321745
-0.00019455
-0.000191143
0.00315583
-0.00309556
-0.000200439
-0.000197038
0.00305993
-0.00304655
-0.000167741
-0.000169251
-0.000293326
0.000112633
-0.00284254
-0.00295708
-0.000122915
0.000130057
-0.00292485
-0.00298267
-0.00018679
2.14071e-05
-0.00282613
-7.13238e-05
0.00403571
0.00409163
-0.000107238
0.000246419
-0.00349578
-0.000297454
5.69271e-06
-0.00289452
0.000315821
-0.00346855
1.7679e-05
-0.00287851
3.32825e-05
-0.00288319
3.69481e-05
-0.00292081
6.11614e-05
-0.00288449
8.9405e-05
-0.0028986
0.000117698
-0.00289513
0.000115228
-0.00287096
-0.000150483
0.000129453
-0.00290382
-0.000166036
-0.00296712
-0.00289118
-0.00359351
0.00347082
-0.00018404
-0.000380699
-0.00341866
0.000303582
0.0036687
-0.00355391
-0.00049549
-0.000222262
-0.00339466
0.00334137
-0.000278513
-0.000289827
-0.00332755
0.00330263
-0.000215765
-0.000217381
-0.0033337
0.00338186
-0.000210846
-0.000212991
-0.00339974
0.00341754
-0.000204819
-0.000207185
-0.00343509
0.0034525
-0.000199486
-0.000201515
-0.00346965
0.00348667
-0.000194584
-0.000196416
-0.00350345
0.00352012
-0.000189982
-0.000191667
-0.00353656
0.0035529
-0.000185617
-0.000187184
-0.00356901
0.00358505
-0.000181444
-0.00018291
-0.00360086
0.0036166
-0.000177448
-0.000178819
-0.00363213
0.00364759