/*--------------------------------*- C++ -*----------------------------------*\
  =========                 |
  \\      /  F ield         | OpenFOAM: The Open Source CFD Toolbox
   \\    /   O peration     | Website:  https://openfoam.org
    \\  /    A nd           | Version:  10
     \\/     M anipulation  |
\*---------------------------------------------------------------------------*/
FoamFile
{
    format      ascii;
    class       volScalarField;
    location    "34";
    object      p;
}
// * * * * * * * * * * * * * * * * * * * * * * * * * * * * * * * * * * * * * //

dimensions      [0 2 -2 0 0 0 0];

internalField   nonuniform List<scalar> 
6397
(
3.93516
3.58296
-1.24787
-0.633638
-0.674095
-1.2835
6.28913
2.24394
-18.2743
-15.0791
6.68562
3.26491
-0.209111
-0.138411
-0.199991
-9.85117
-8.01195
-8.68892
12.391
12.1077
11.5116
-16.963
-17.8462
-18.2864
-0.089932
-0.0419027
-0.00247729
-2.19674
-2.16046
-3.30764
-3.36481
0.633735
0.334368
-0.13322
1.32599
1.2147
1.09337
0.911873
1.3863
1.41147
1.41944
1.34333
-3.13456
-3.22025
-4.17421
-2.03623
-1.88636
-2.7242
1.30261
1.23874
1.21363
1.09311
1.17351
5.10446
4.71069
2.41775
2.45289
0.789519
-2.38879
-2.04952
-2.86291
-3.41036
-3.95045
-4.34973
-4.4701
-4.41693
-4.02109
-3.42864
-2.00063
-1.86156
-1.62258
-2.55054
-3.25065
-4.04957
-4.81733
-5.41455
-5.75378
-5.39568
-4.75221
-3.94532
-1.39498
-1.82578
-2.83013
-3.15316
-1.27747
-1.90121
-2.38505
-2.53848
-1.24016
-2.03672
-2.13767
-2.14857
-1.22935
-1.20918
-2.09348
-1.95125
-0.560483
-0.450805
-0.480414
-0.927429
-0.702954
-1.78509
-1.27539
-3.34059
-2.477
-5.26426
-4.32505
-6.21166
-5.96074
-5.09011
-5.87285
-3.15176
-4.09997
-1.921
-2.41388
-1.61833
-2.04458
-2.07336
-1.95788
-2.68691
-2.30093
-3.30416
-3.05874
-3.20073
-3.26181
-2.60417
-2.92016
-2.06106
-2.27978
-2.01754
-1.9625
-2.55441
-2.23192
-3.23455
-2.94809
-1.13956
-2.12755
-0.377008
-1.46234
-1.92382
-1.92147
-2.38899
-2.36535
-1.4437
-0.905899
-0.803645
-4.54357
0.139675
0.21584
-4.30996
-2.23858
-0.0131953
0.0821738
-0.460206
-0.182559
-1.43265
-0.86908
-3.14531
-2.19083
-5.24666
-4.22214
-6.20186
-5.97558
-4.9866
-5.83731
-2.87292
-3.9036
-1.48971
-2.06098
-1.12436
-1.61347
-1.67845
-1.89457
-1.70439
-2.2255
-2.11224
-2.11971
-2.23657
-1.78741
-1.97547
-1.69472
-1.69745
-2.15025
-1.84696
-3.19434
-2.60245
-4.34628
-3.82283
-4.56068
-1.01968
-1.9943
0.293363
-0.281305
-3.06943
-2.9409
-2.05954
-0.320421
-0.181998
-0.791106
-1.5554
-2.90648
-4.11432
-4.06855
-2.84409
-3.87947
0.311718
0.712873
0.716586
-5.3201
-5.67884
-2.5812
0.599462
0.643269
0.427419
0.533139
-0.0407317
0.247148
-1.00645
-0.44818
-2.70158
-1.76047
-4.7817
-3.77799
-5.66705
-5.48653
-4.46387
-5.29635
-2.37691
-3.40544
-0.958265
-1.55859
-0.568785
-1.6239
-2.12488
-1.15401
-1.31534
-1.15726
-1.12169
-1.27221
-1.24314
-1.19685
-1.25533
-1.11054
-1.13447
-1.36792
-1.17973
-2.20543
-1.70954
-3.70335
-2.88574
-5.24544
-4.53927
-5.64527
-0.931582
-1.8173
-0.228093
-0.101443
-3.76787
-2.3658
-5.64504
-5.49874
-0.844589
-1.77365
0.26402
0.635834
-2.47527
-3.31962
-6.31441
-5.8824
1.01534
0.981551
-0.0683162
-0.0768001
-0.939079
-4.74105
-3.13903
0.945365
0.980159
0.77763
0.878102
0.335738
0.591274
-0.540266
-0.0375953
-2.06928
-1.22234
-3.94787
-3.03987
-4.72466
-4.5772
-3.62664
-4.36978
-1.75452
-2.68051
-0.421907
-0.990669
0.202832
-0.0365787
0.463585
0.363149
0.554004
0.523081
-2.50431
-5.24011
-3.65064
-1.21034
-1.72468
-0.66686
-0.880095
-0.516866
-0.5656
-0.470891
-0.497159
-0.414022
-0.439947
-0.509783
-0.427649
-1.00754
-0.695174
-2.12105
-1.4782
-3.95326
-2.96408
-5.82895
-4.98644
-6.30503
-0.863799
-1.63888
-0.228697
-7.51525
-7.15512
-0.0898346
0.581678
-4.86217
-2.82357
0.90492
-4.01575
-6.50533
-6.00549
-7.10174
-2.04421
-8.9465
-9.27648
-1.03601
-0.0851359
0.61406
-5.16509
-3.89892
1.1929
1.08596
1.16743
1.19034
1.21775
1.03559
1.13807
0.655516
0.877688
-0.0744815
0.33971
-1.33494
-0.639494
-2.87927
-2.13749
-3.49433
-3.38274
-2.58016
-3.19127
-1.06298
-1.81779
0.054858
-0.430606
0.629495
0.397302
0.879641
0.774737
1.00508
0.949091
1.06233
1.04726
-4.37799
-7.68664
-6.09625
-1.92285
-2.95959
-0.730709
-1.21765
-0.198667
-0.415742
0.0258137
-0.0624707
0.154881
0.0942291
0.211872
0.198328
0.0277811
0.161008
-0.599709
-0.220017
-1.87824
-1.1485
-3.90427
-2.81703
-5.96141
-5.03463
-6.49629
-9.9313
-8.45681
0.63225
1.06259
-4.31858
-5.14253
-3.23262
-3.41887
-2.08936
-2.73541
-0.825604
-1.44054
0.148875
-0.287601
0.76179
0.489155
0.971006
-6.09413
-3.34751
-8.53694
-2.28166
-10.3881
-1.06314
-8.07093
-9.40965
-0.0337467
1.03522
0.618899
1.21135
1.10539
-4.75524
1.3301
1.29593
1.35296
1.36934
1.22519
1.31405
0.921264
1.10273
0.341256
0.671757
-0.637668
-0.100941
-1.78215
-1.23992
-2.20701
-2.13892
-1.51847
-1.9755
-0.389382
-0.953429
0.467732
0.0894496
0.938598
0.745001
1.15728
1.06816
1.2747
1.22513
1.31651
1.30621
1.27053
1.30754
-5.81569
-6.02364
-6.42799
-3.17883
-4.54871
-1.21451
-2.0541
-0.242533
-0.648224
0.240863
0.0398158
0.473465
0.377265
0.621073
0.551044
0.688861
0.673929
0.485514
0.632525
-0.182647
0.219384
-1.50409
-0.754246
-3.55066
-2.45804
-5.59892
-4.67816
-6.17418
-6.15857
-4.67328
-5.60608
-3.6422
-2.49774
-2.35156
-2.56939
-1.79553
-2.20283
-0.875249
-1.33835
-0.0417445
-0.431225
0.553186
0.284717
-6.62345
-4.82431
0.95884
1.19701
0.923808
0.769279
-7.15769
-3.79548
-9.27256
-2.38236
-9.71558
-1.01657
-7.80687
0.0143108
-3.35018
-4.78639
0.555944
1.11036
0.825537
-1.73097
-1.99573
-0.824337
1.01879
1.44489
1.35114
1.00355
0.697294
0.838284
-5.48499
1.28205
1.19957
1.42158
1.39608
1.4479
1.46198
1.35872
1.42538
1.12356
1.26556
0.679074
0.931619
-0.0214678
0.357652
-0.787321
-0.427152
-1.05993
-1.02235
-0.606974
-0.907925
0.169133
-0.225487
0.792993
0.515347
1.14961
1.00066
1.33417
1.25689
1.45183
1.40125
1.53048
1.49367
1.53606
1.5504
1.50128
-3.5868
-2.72622
-3.67641
-3.82526
-1.91074
-2.87457
-0.545158
-1.14022
0.207995
-0.113198
0.622396
0.444819
0.834054
0.747662
0.957381
0.898631
1.0246
1.00661
0.841507
0.976636
0.212346
0.592584
-1.03032
-0.324911
-2.92745
-1.91607
-4.81564
-3.95997
-5.30587
-5.32675
-3.90129
-4.78617
-2.89417
-1.59163
-1.17167
-1.90223
-1.82139
-1.63757
-1.82984
-1.03738
-1.36092
-0.34462
-0.688297
0.252511
-0.0305888
0.500061
-7.65201
-4.00163
-8.88403
-2.29007
-8.12764
-0.902316
-5.78749
0.0143489
-3.08348
0.428283
-0.0908359
-0.928439
0.638859
1.20536
0.920858
0.742488
0.476049
1.09184
1.02003
1.37373
1.29955
0.361516
0.571407
1.08261
0.907584
-5.81901
1.33903
1.24408
1.4693
1.42827
1.49928
1.49494
1.44055
1.47981
1.26623
1.36825
0.94782
1.125
0.483807
0.730943
0.017514
0.232329
-0.121448
-0.0967255
0.129646
-0.0336641
0.596945
0.35254
1.03134
0.833255
1.29916
1.18601
1.46475
1.38933
1.6041
1.53697
1.70838
1.67014
1.69932
1.72274
1.56314
1.64286
1.4637
-0.193554
0.320328
-1.55533
-0.865179
-1.86088
-1.92743
-0.831931
-1.39024
0.0322644
-0.353864
0.571109
0.334094
0.908014
0.758588
1.09353
1.01838
1.18746
1.14368
1.24097
1.22826
1.0945
1.20347
0.560719
0.884664
-0.516354
0.0938124
-2.15012
-1.28153
-3.7552
-3.02379
-4.20108
-4.17594
-2.96067
-3.7222
-2.07468
-0.146846
0.281459
-0.933086
-0.556815
-1.47053
-1.2493
-1.55759
-1.56702
-1.28654
-1.45864
-0.777506
-1.0527
-0.177805
-0.47749
0.104444
-7.40599
-3.8667
-7.57681
-2.05774
-6.15671
-0.779487
-3.93987
-0.0812386
-1.76648
0.240761
-0.144394
0.41139
1.35191
0.89292
0.7596
1.21379
0.841485
0.707938
-5.62613
1.15433
0.811605
0.975157
1.36984
1.25488
1.48394
1.41379
1.52169
1.49685
1.47992
1.50199
1.3515
1.42513
1.12919
1.25255
0.833359
0.987121
0.593702
0.69676
0.554502
0.552828
0.665874
0.59655
0.910367
0.775604
1.20123
1.06112
1.40845
1.31826
1.5445
1.47971
1.6572
1.60395
1.70725
1.69219
1.68791
1.70264
1.65064
1.67094
1.56552
1.61437
1.44677
1.51133
1.43197
1.69993
1.59303
0.921313
1.23136
-0.0531079
0.466507
-0.435066
-0.385309
0.0510736
-0.224202
0.510385
0.298355
0.853105
0.694787
1.10305
0.986339
1.26578
1.19676
1.33659
1.3057
1.36919
1.35868
1.25996
1.34114
0.839103
1.09506
-0.0295147
0.461984
-1.33612
-0.646172
-2.58856
-2.01975
-2.86629
-2.90042
-1.95471
-2.54701
-0.560097
-1.23006
-0.0329432
0.304565
0.896657
0.632685
-0.427
-0.0522143
-1.10278
-0.793559
-1.51992
-1.34409
-1.61044
-1.61166
-1.31813
-1.5124
-0.696924
-1.03128
-0.0256428
-0.353639
0.49091
0.26139
1.52537
1.7426
1.07294
1.38052
-6.42618
-3.44331
0.688868
-5.89997
-1.78868
0.893542
0.348026
0.700723
-4.36082
-0.742401
-2.53676
-0.287671
-0.826544
-0.0394228
0.426647
0.164355
1.17555
0.506465
1.7301
1.59588
0.682634
0.932844
1.32593
-4.95579
1.17216
1.01977
1.35335
1.25766
1.4637
1.40503
1.49618
1.48142
1.46882
1.4912
1.38634
1.43618
1.25537
1.32732
1.09118
1.17525
0.963175
1.01582
0.960601
0.94896
1.01308
0.98725
1.11882
1.05315
1.31042
1.21055
1.47871
1.4001
1.60468
1.54261
1.71521
1.66042
1.78507
1.75774
1.79285
1.79633
1.73414
1.77228
1.62557
1.67642
1.5642
1.59281
1.5071
1.53268
1.90306
1.80871
1.86649
1.86223
1.90065
1.6111
1.77011
0.954425
1.32035
0.552095
0.683194
0.702063
0.591847
0.929671
0.820502
1.10905
1.02532
1.25139
1.18017
1.37017
1.31394
1.42687
1.40319
1.44042
1.43668
1.3589
1.41845
1.04503
1.23761
0.387417
0.760517
-0.586639
-0.0725915
-1.50359
-1.08617
-1.68846
-1.72339
-1.01863
-1.4649
-0.00775007
-0.49888
0.39192
1.13009
1.2541
0.68566
0.943424
0.00166915
0.36061
-0.796895
-0.389467
-1.55871
-1.19697
-2.01673
-1.84174
-1.95203
-2.0589
-1.3257
-1.6977
-0.449541
-0.890229
-0.0340052
1.6704
1.7216
1.29779
1.52248
-5.15121
-2.91532
0.978771
0.916346
-4.36676
-1.59994
-3.02577
-0.870671
-1.56725
-0.60157
-0.16079
-0.431587
0.819983
-0.146052
1.32892
0.144024
1.58594
0.52882
1.59301
1.54473
0.880092
1.60404
1.45074
1.41956
1.43983
1.32509
1.58726
-4.09625
1.16969
1.05124
1.32597
1.23927
1.41195
1.37128
1.46239
1.44594
1.46159
1.47068
1.4233
1.44955
1.34976
1.39131
1.25029
1.29991
1.18579
1.20863
1.19764
1.18469
1.22952
1.21672
1.27307
1.24461
1.38837
1.32434
1.51628
1.45313
1.62929
1.57352
1.72081
1.67805
1.77593
1.75384
1.78473
1.78413
1.7731
1.7812
1.73021
1.75483
1.66685
1.69935
1.62132
1.63639
1.68067
1.63575
1.84257
1.73709
1.98053
1.92017
2.05552
2.02753
1.98052
2.05426
1.53738
1.79149
1.17153
1.32279
1.11939
1.11726
1.19708
1.15075
1.30463
1.24965
1.39297
1.34977
1.46027
1.42644
1.49113
1.47893
1.48309
1.48915
1.41057
1.45779
1.18535
1.32387
0.71416
0.982774
0.0221836
0.388884
-0.610721
-0.323785
-0.742982
-0.752715
-0.275058
-0.565847
0.418897
0.0776796
0.918228
0.706323
1.07755
1.33117
1.41233
0.977393
1.19005
0.351876
0.701398
-0.61611
-0.0985027
-1.68428
-1.15719
-2.4907
-2.14599
-2.64833
-2.6697
-2.00046
-2.41731
-0.889872
-1.45763
0.212197
-0.304489
0.792778
0.553079
-4.00459
-2.48324
1.74957
1.68765
0.90783
0.671131
0.749602
1.74744
1.78799
-3.25423
-1.58704
-2.15703
-1.19158
-0.911142
-1.04993
0.293376
-0.972612
1.03205
-0.596506
1.36409
-0.300322
1.52223
0.355333
1.27922
1.31949
1.15064
1.08714
1.36355
0.958269
1.21531
0.488436
1.26625
0.538142
-3.34072
1.04705
0.99559
1.16318
1.09691
1.29448
1.22972
1.38476
1.34472
1.43926
1.41946
1.45382
1.45488
1.43153
1.4503
1.3856
1.4118
1.34168
1.36191
1.32397
1.32843
1.34097
1.33041
1.36164
1.35275
1.38471
1.36982
1.45197
1.41217
1.54723
1.49825
1.6444
1.59564
1.73242
1.68973
1.78454
1.76263
1.79882
1.79549
1.78221
1.79448
1.75334
1.76587
1.73699
1.74599
1.71257
1.72169
1.7208
1.61276
1.47274
1.84632
1.73808
2.01054
1.93359
2.13321
2.07959
2.12222
2.1591
1.81776
1.99846
1.51538
1.62463
1.39828
1.43963
1.37992
1.38043
1.41627
1.39226
1.47356
1.44359
1.51658
1.49628
1.52978
1.52622
1.50191
1.52073
1.4365
1.47763
1.26879
1.3697
0.9399
1.12835
0.468559
0.718487
0.0648269
0.244578
-0.00724005
-0.018491
0.286923
0.109201
0.711086
0.500027
1.04206
0.888796
1.16229
1.52495
1.482
1.48606
1.52886
1.22843
1.3938
0.574047
0.964427
-0.533938
0.0606293
-1.8513
-1.185
-2.9668
-2.46875
-3.34105
-3.27656
-2.673
-3.13294
-1.32858
-2.03351
0.00658301
-0.610328
0.376003
1.4371
0.628855
1.80848
1.8263
-3.21138
-2.28073
-2.58013
-1.81148
-1.63271
-1.71249
1.84358
-0.492639
-1.72532
0.537009
-1.68114
1.09357
-1.25626
0.970951
1.06291
0.914549
0.794687
1.26981
-0.735915
0.873568
1.31564
0.238819
0.990589
1.13212
1.12312
0.587303
1.36668
1.44718
1.86441
1.85733
1.36677
-2.86429
0.902974
0.710861
0.796895
1.05184
0.988439
1.15905
1.1127
1.26516
1.21521
1.3483
1.31023
1.40169
1.37942
1.42595
1.41765
1.42881
1.43142
1.41685
1.42546
1.40014
1.40814
1.39796
1.39521
1.42039
1.40711
1.43971
1.43129
1.45578
1.44615
1.49946
1.47326
1.57192
1.5339
1.65094
1.61131
1.72293
1.68893
1.77534
1.75384
1.79881
1.78935
1.80084
1.80325
1.78221
1.79252
1.76426
1.77207
1.76405
1.7609
1.79047
1.77334
1.83952
1.81523
1.85557
1.85597
1.85581
1.35932
1.21448
1.61715
1.49263
1.8366
1.73232
2.00777
1.92724
2.13154
2.07684
2.14149
2.15946
1.94163
2.06326
1.69415
1.80097
1.56069
1.61299
1.51679
1.53181
1.51171
1.51099
1.52298
1.51655
1.53414
1.52909
1.53381
1.53636
1.50701
1.5239
1.44102
1.4788
1.30744
1.38345
1.07489
1.2051
0.766944
0.924498
0.523932
0.62636
0.487406
0.475656
0.648245
0.548705
0.879562
0.765678
1.10238
1.0031
1.27062
1.1941
1.33231
1.59995
1.53902
1.6032
1.62072
1.38364
1.53742
0.69428
1.10621
-0.483644
0.159481
-1.99202
-1.21877
-3.34655
-2.72879
-3.88166
-3.75486
-3.22327
-3.69672
-1.73758
-2.52778
-0.32294
-0.967126
0.23907
0.0715922
0.418655
-2.79905
-2.35443
1.83556
1.86414
1.85606
-2.25928
-2.31143
1.58813
-1.38367
-2.48431
-0.303342
-2.73707
1.8569
0.772147
0.90345
0.799974
0.642233
0.581453
-2.6296
0.623172
1.05422
-2.09168
1.81663
1.85551
0.65627
1.0955
-0.979414
0.732226
1.06655
0.345009
0.888924
0.769096
0.675528
0.725026
0.561648
1.33331
1.32206
0.654094
-2.71197
0.901215
0.831301
1.03307
0.970323
1.14482
1.09421
1.24109
1.19617
1.32005
1.28289
1.37586
1.35065
1.4072
1.39369
1.41756
1.41468
1.41749
1.41835
1.42304
1.41893
1.44011
1.4301
1.46209
1.45031
1.48059
1.47213
1.49723
1.48804
1.53203
1.5117
1.59011
1.55931
1.65578
1.62282
1.71743
1.68785
1.76512
1.7446
1.79043
1.77976
1.79953
1.79693
1.79955
1.7999
1.7926
1.79724
1.79268
1.78911
1.81725
1.80276
1.84858
1.83325
1.86079
1.14205
1.01967
1.38956
1.26682
1.61519
1.50558
1.8167
1.71992
1.97896
1.90315
2.09157
2.0421
2.10687
2.11703
1.9738
2.05527
1.79426
1.87875
1.66587
1.72247
1.5878
1.62147
1.55787
1.56737
1.55731
1.55654
1.55494
1.55835
1.5399
1.5504
1.50435
1.52538
1.43614
1.47435
1.31988
1.38283
1.14407
1.23596
0.938942
1.03609
0.792352
0.850173
0.765604
0.764251
0.846433
0.801257
0.988969
0.916006
1.13531
1.0591
1.24923
1.19011
1.30082
1.47935
1.29802
1.38829
1.61081
1.54751
1.665
1.65077
1.47699
1.62322
0.78656
1.19823
-0.437888
0.239489
-2.05155
-1.22031
-3.55213
-2.85844
-4.1933
-4.0251
-3.53853
-4.02069
-2.01647
-2.82667
-0.671199
-1.27768
0.0613597
-0.226923
0.327916
1.79661
1.84023
-2.71644
-2.72221
1.32727
-2.23717
-3.1438
0.713923
0.868877
0.8109
0.638686
-1.39892
-3.63298
1.77764
0.53254
-0.338419
-4.14452
0.459849
0.50013
-3.86444
1.75193
1.86048
0.44436
0.897213
-2.79655
1.80184
0.465602
0.813587
-0.765534
0.612038
0.786326
0.703018
1.26041
1.75449
1.82405
-2.87243
0.799604
0.735531
0.757751
0.905803
0.852815
1.01614
0.96111
1.1221
1.07164
1.21405
1.17127
1.28845
1.25383
1.34489
1.31874
1.38302
1.36478
1.40599
1.39534
1.42027
1.41383
1.43358
1.42665
1.45306
1.44266
1.47887
1.46531
1.50212
1.49112
1.52132
1.51148
1.55191
1.53446
1.60022
1.57463
1.65659
1.62814
1.71095
1.68459
1.75423
1.73444
1.78198
1.76973
1.79602
1.79046
1.80322
1.79997
1.80741
1.80559
1.81489
1.80996
1.83409
1.82313
1.85718
1.8459
1.87703
1.86831
1.87912
1.8792
1.81238
1.89081
1.88217
1.01385
0.933968
1.20807
1.10748
1.41558
1.31177
1.61123
1.51515
1.79154
1.70447
1.93748
1.86989
2.03351
1.99353
2.0527
2.0559
1.96703
2.02086
1.82357
1.89783
1.70382
1.75768
1.63472
1.66382
1.59823
1.61356
1.57695
1.58663
1.55802
1.56837
1.53264
1.5479
1.4918
1.5159
1.4239
1.4629
1.31995
1.37717
1.18006
1.25375
1.0337
1.10459
0.9374
0.978382
0.917987
0.920375
0.966794
0.933339
1.05411
0.997393
1.14679
1.08274
1.22091
1.17473
1.26144
1.25072
1.27526
1.47539
1.39762
1.64237
1.52663
1.71157
1.69306
1.49673
1.6557
0.821452
1.22298
-0.399737
0.276442
-2.0034
-1.17719
-3.50761
-2.80849
-4.17454
-3.98852
-3.57952
-4.02965
-2.09629
-2.91415
-0.823383
-1.41642
0.047691
-0.329775
0.538299
0.32754
0.688819
0.634094
0.700199
-2.93623
-3.44882
0.720857
1.29336
0.754339
0.569366
-2.50343
-4.37378
1.89625
1.80549
1.61695
0.43518
-1.6397
-5.28084
1.71861
0.313577
-0.506482
-5.80787
1.67873
1.85264
0.235458
0.359829
-4.98739
1.71245
0.215579
0.586713
-2.75557
1.80368
0.300968
0.497262
0.0240827
0.443219
1.89166
1.95388
1.92729
0.714203
0.718866
-3.36016
0.752341
0.721718
0.738006
0.812884
0.77713
0.907778
0.860398
1.0046
0.956413
1.10165
1.05409
1.18931
1.14724
1.26189
1.22709
1.31793
1.2913
1.35884
1.33915
1.38709
1.37343
1.40965
1.39842
1.43332
1.42139
1.459
1.44624
1.48458
1.47197
1.50888
1.4969
1.53208
1.52032
1.5626
1.54592
1.60493
1.5828
1.65357
1.62889
1.70198
1.6783
1.74194
1.72315
1.7708
1.75758
1.78951
1.78113
1.80295
1.79664
1.81328
1.80832
1.82679
1.81916
1.84696
1.83626
1.86813
1.85754
1.89235
1.87965
1.91504
1.90408
1.94499
1.92834
1.95737
0.913346
0.878222
0.878004
0.998781
0.955362
1.10851
1.04654
1.26493
1.18199
1.43593
1.34986
1.60597
1.52122
1.763
1.68812
1.88984
1.83093
1.97422
1.93834
1.99414
1.99404
1.93117
1.97113
1.82546
1.88156
1.73008
1.77442
1.65884
1.69199
1.61013
1.63151
1.58082
1.59414
1.55558
1.5688
1.52417
1.54182
1.47953
1.50473
1.41309
1.4499
1.32082
1.37039
1.20693
1.26589
1.0967
1.14967
1.02532
1.05579
1.00398
1.00975
1.02684
1.01056
1.07545
1.04661
1.13117
1.10214
1.182
1.16327
1.21466
1.20412
1.21334
1.21196
1.43288
1.3741
1.59234
1.50186
1.66236
1.65051
1.44363
1.59718
0.793419
1.18244
-0.375284
0.266509
-1.86735
-1.10322
-3.24136
-2.60585
-3.82716
-3.6719
-3.24294
-3.67198
-1.9283
-2.62978
-0.670826
-1.26093
0.178279
-0.183126
0.56239
0.404987
0.683513
0.634888
0.707824
0.518975
-3.47114
-4.62011
1.87774
1.8748
1.90429
1.04027
0.703431
1.80289
1.36445
0.346556
-3.00324
-6.00194
1.6948
0.183183
-1.9428
-7.20486
1.61233
1.83213
0.0457441
-0.698719
-7.05519
1.60093
-0.0323782
0.166288
-4.92973
1.83021
1.68775
-0.0217764
0.232144
-1.69927
-0.00260134
0.161232
0.949603
0.584259
0.512651
-4.23799
0.758136
0.739598
0.820032
0.785724
0.905194
0.861347
0.994906
0.949798
1.08368
1.03929
1.16597
1.12539
1.23595
1.20176
1.29255
1.26534
1.33672
1.3156
1.37047
1.35431
1.39803
1.38469
1.42514
1.4116
1.45421
1.44025
1.4832
1.46893
1.51009
1.49712
1.53527
1.52257
1.56541
1.54925
1.60452
1.58415
1.64824
1.62609
1.6916
1.67038
1.72926
1.71117
1.75895
1.74505
1.78092
1.77062
1.79911
1.79024
1.81592
1.80774
1.83259
1.82392
1.85512
1.84317
1.87871
1.867
1.90796
1.89171
1.94679
1.92717
1.98057
1.96537
1.9746
1.98565
1.83026
1.8746
1.97326
1.95864
1.04004
1.02693
1.01508
1.10778
1.07463
1.18917
1.1435
1.31345
1.24722
1.45321
1.38234
1.5978
1.52574
1.73452
1.66871
1.84507
1.7936
1.91514
1.88578
1.93184
1.93063
1.89145
1.91735
1.81172
1.86244
1.72668
1.76725
1.66066
1.69115
1.61416
1.63541
1.58063
1.59693
1.54916
1.56574
1.5132
1.53273
1.46665
1.49182
1.40346
1.43669
1.32152
1.36391
1.22705
1.27476
1.13971
1.18169
1.08033
1.10615
1.05562
1.0629
1.05997
1.05307
1.09077
1.07093
1.11618
1.10511
1.14654
1.14049
1.16443
1.16117
1.1472
1.15635
1.22071
1.13169
1.35116
1.28787
1.52342
1.43625
1.55583
1.5717
1.29587
1.46374
0.666229
1.0354
-0.3828
0.186759
-1.65732
-1.01283
-2.7681
-2.26258
-3.2016
-3.09845
-2.65215
-3.04588
-1.46717
-2.09378
-0.331568
-0.862356
0.373353
0.0889793
0.629735
0.528017
0.68903
0.663253
0.699757
1.8142
0.86898
0.27261
-4.27524
-6.11933
0.691825
1.09147
1.69376
0.0669492
-3.52204
-7.76315
0.641577
1.93367
2.0236
1.56764
0.929134
0.763771
1.80946
-0.126161
-2.09873
-8.4648
1.49675
-0.272556
-0.811333
-6.84084
1.9164
1.53462
-0.359038
-0.137371
-3.26742
1.71692
-0.446287
-0.135061
0.0360446
1.76208
1.80056
-0.266361
1.84491
0.323232
0.243319
-5.4253
0.758503
0.727412
0.822446
0.787923
0.899643
0.858902
0.983688
0.940866
1.06683
1.02541
1.14448
1.10619
1.21228
1.17919
1.26872
1.24165
1.31472
1.29291
1.35219
1.33433
1.38484
1.36905
1.41623
1.4007
1.44667
1.43441
1.47597
1.46133
1.50511
1.49077
1.53347
1.51922
1.56427
1.54826
1.60033
1.58167
1.64018
1.61997
1.68012
1.66025
1.71608
1.69865
1.74636
1.73195
1.77064
1.75903
1.79241
1.78159
1.81415
1.80339
1.83494
1.82449
1.86051
1.84695
1.88809
1.87443
1.92207
1.90322
1.97101
1.94532
2.00639
1.99298
2.0053
2.00749
2.0372
2.01006
1.19725
1.08085
1.30122
1.15129
1.20962
1.14901
1.13539
1.19889
1.1733
1.2578
1.22401
1.35535
1.30275
1.46988
1.41165
1.59135
1.52983
1.70897
1.65167
1.80085
1.7589
1.85874
1.83395
1.87558
1.8729
1.84154
1.86474
1.77833
1.80371
1.71327
1.74563
1.65658
1.68382
1.61023
1.63232
1.57332
1.59136
1.53858
1.55669
1.50037
1.52044
1.45378
1.47828
1.3941
1.42468
1.32103
1.35807
1.24098
1.28081
1.16766
1.20265
1.11404
1.13788
1.08489
1.09625
1.07552
1.07833
1.07568
1.07832
1.09846
1.09354
1.11447
1.11093
1.11674
1.11703
1.07908
1.10179
0.984048
1.03215
1.10502
0.971185
1.02787
1.25287
1.17895
1.37482
1.32745
1.31417
1.37128
1.0334
1.2034
0.454551
0.786739
-0.428595
0.0434133
-1.42527
-0.931128
-2.20502
-1.86615
-2.39808
-2.39295
-1.85074
-2.21031
-0.855057
-1.37222
0.0455566
-0.367436
0.554366
0.362132
0.697207
0.648101
0.699359
0.699087
0.677268
0.690677
0.65706
1.71996
-0.027359
-5.05384
-7.53673
0.675505
2.08585
0.933944
1.56004
1.68382
1.64139
1.12595
0.978651
1.67257
-0.292801
-3.6966
-8.8126
1.42261
-0.510875
-2.06859
-8.00121
2.05602
1.73499
1.37861
-0.697356
-0.938939
-4.69412
1.51703
-0.847703
-0.579867
-0.720246
1.8445
-0.778208
-0.640527
2.01261
-0.0125222
0.522848
0.220924
1.92143
-0.0820025
-6.46987
0.749368
0.712962
0.818727
0.78434
0.891993
0.854253
0.971379
0.931012
1.05057
1.0111
1.12475
1.08813
1.1908
1.15846
1.24725
1.21997
1.29469
1.27203
1.33448
1.31547
1.36967
1.35263
1.40229
1.38655
1.43485
1.41619
1.46735
1.45167
1.49772
1.48284
1.5272
1.51243
1.55893
1.54259
1.5938
1.57602
1.63081
1.61215
1.66768
1.64933
1.70224
1.68533
1.73284
1.71804
1.75915
1.74641
1.78408
1.77153
1.80919
1.7968
1.83398
1.82136
1.86358
1.84816
1.8957
1.87947
1.93484
1.91366
1.98695
1.9602
2.02195
2.0093
2.03875
2.02961
2.08976
2.05783
2.14842
2.19314
2.13528
2.09329
1.33743
1.24307
1.38928
1.48795
1.41831
1.25995
1.3115
1.24209
1.23862
1.27369
1.2567
1.31565
1.29156
1.39164
1.34987
1.48416
1.43715
1.58417
1.53304
1.68289
1.63508
1.75958
1.72432
1.80865
1.78776
1.82243
1.82036
1.79651
1.81392
1.74859
1.77233
1.695
1.72227
1.64366
1.66878
1.5996
1.62091
1.56237
1.58082
1.52646
1.54488
1.48731
1.50736
1.44098
1.46469
1.38453
1.41322
1.3186
1.35212
1.2489
1.28377
1.18525
1.21574
1.13517
1.15771
1.10157
1.116
1.08313
1.0913
1.07621
1.08053
1.08111
1.08113
1.08256
1.08385
1.06733
1.0763
1.02339
1.05046
0.937444
0.984918
0.88687
0.913773
0.825742
0.875443
1.00622
0.953719
1.12099
1.06623
1.15643
1.15832
1.00973
1.10671
0.668326
0.863192
0.136154
0.4249
-0.534057
-0.187828
-1.19315
-0.878374
-1.61234
-1.44813
-1.57955
-1.66122
-1.04516
-1.3671
-0.25392
-0.652906
0.379157
0.100087
0.68878
0.581087
0.744886
0.73445
0.708252
0.730643
0.650411
0.677941
0.616399
0.629459
1.59114
0.801088
-0.160556
0.256937
0.560878
1.62676
-0.417669
-0.433764
-5.30896
-8.2854
1.39469
-0.763604
-3.44009
-8.17494
2.22148
2.25901
2.22938
1.81849
2.10461
2.02481
1.46603
1.54914
0.74911
0.782256
0.718067
0.604574
0.597756
0.578006
1.25275
-1.02736
-2.02077
-5.96406
1.47541
1.52373
1.27499
-1.23758
-1.22545
-2.05821
2.07741
1.58831
-0.669537
-0.139251
-1.30749
-1.1761
1.47235
-1.31024
-0.494374
-6.70101
0.664481
0.63258
0.7367
0.699793
0.809739
0.773678
0.882868
0.845866
0.958962
0.920477
1.0348
0.997043
1.10632
1.07116
1.17092
1.13937
1.22733
1.19993
1.27595
1.25252
1.31786
1.29765
1.35521
1.33709
1.38968
1.3729
1.42332
1.40624
1.45677
1.44039
1.48879
1.47303
1.51949
1.50428
1.55093
1.53492
1.58469
1.56752
1.62
1.60225
1.65492
1.63757
1.68822
1.67184
1.71884
1.70383
1.747
1.73315
1.77474
1.76073
1.80255
1.78884
1.83101
1.81629
1.86477
1.84743
1.90112
1.88251
1.94594
1.92197
1.99994
1.97294
2.03927
2.02241
2.075
2.0555
2.13358
2.1003
2.23003
2.17673
2.17123
1.33151
1.09799
1.21691
1.49121
1.41924
1.59851
1.548
1.35151
1.39833
1.3231
1.32771
1.33579
1.32749
1.36425
1.34704
1.42216
1.38992
1.49628
1.4583
1.57693
1.53575
1.65819
1.61837
1.72306
1.69342
1.7622
1.74586
1.77393
1.77163
1.75579
1.76836
1.7166
1.73717
1.67131
1.69442
1.62646
1.64864
1.58578
1.60576
1.5491
1.56737
1.51297
1.53128
1.47345
1.49352
1.42811
1.45106
1.37491
1.40206
1.31496
1.34554
1.25288
1.28399
1.19516
1.2231
1.14673
1.16919
1.11037
1.12689
1.08591
1.09748
1.07081
1.07851
1.0625
1.06734
1.05013
1.05736
1.0252
1.03876
0.975894
1.00371
0.893749
0.940208
0.840143
0.841579
0.793125
0.924911
0.885921
0.961951
0.953509
0.858705
0.937262
0.56072
0.729796
0.149944
0.362009
-0.294095
-0.0687259
-0.720261
-0.516204
-1.01127
-0.888897
-1.0594
-1.0729
-0.786321
-0.962985
-0.262595
-0.543743
0.300778
0.0278337
0.682915
0.525112
0.815457
0.78035
0.790557
0.814107
0.719211
0.760854
0.636863
0.67244
0.614565
1.42366
0.926924
-0.958659
-0.96724
-4.88548
-7.43864
2.2907
2.64901
1.93377
1.64263
0.746398
0.689076
0.587774
0.555144
1.18685
-1.33355
-3.08914
-6.36955
1.58594
1.0592
-1.59887
-2.2059
-3.82396
1.25702
1.31461
2.45915
1.20778
-1.33692
-0.658067
-1.84784
-1.71896
-0.0332817
1.77512
-2.11126
-1.95749
0.738846
0.470293
-1.03455
-6.21435
0.654274
0.620958
0.72457
0.688744
0.798077
0.761118
0.871724
0.834738
0.946164
0.908853
1.01958
0.983139
1.08915
1.05501
1.15264
1.12167
1.20897
1.18154
1.25839
1.23445
1.30179
1.28072
1.34087
1.32182
1.37702
1.35932
1.41189
1.39444
1.44579
1.4291
1.47836
1.46227
1.50999
1.49428
1.54165
1.52575
1.57429
1.55781
1.60768
1.59096
1.64108
1.6244
1.67373
1.65758
1.70438
1.68929
1.73386
1.7191
1.76422
1.74888
1.79466
1.77955
1.82699
1.81018
1.86473
1.84547
1.90519
1.8844
1.95446
1.92842
2.00999
1.98249
2.05672
2.03454
2.10565
2.07973
2.16982
2.13516
2.26235
2.21245
2.35659
2.38057
2.31954
2.29803
2.32905
2.2002
2.25556
2.91333
2.06723
2.1382
1.53474
1.38872
1.46401
1.64123
1.59192
1.71101
1.67778
1.68521
1.77377
1.74336
1.53278
1.60395
1.42959
1.47395
1.39083
1.40283
1.3882
1.38724
1.40513
1.39382
1.4475
1.42341
1.50578
1.47559
1.56988
1.53719
1.63584
1.60329
1.68878
1.6648
1.72032
1.70709
1.73036
1.7282
1.71549
1.72615
1.68411
1.70107
1.64639
1.66574
1.60708
1.62681
1.56953
1.58814
1.53415
1.55177
1.49835
1.51643
1.45932
1.47905
1.41541
1.43779
1.36522
1.39098
1.31006
1.33822
1.25351
1.28175
1.1998
1.22585
1.15267
1.17504
1.11423
1.13252
1.08453
1.09887
1.06182
1.07292
1.04301
1.05261
1.02049
1.03262
0.985773
1.00518
0.933751
0.962875
0.851196
0.897106
0.799524
0.674983
0.623208
0.650956
0.753598
0.707641
0.821394
0.798546
0.750484
0.807644
0.475573
0.642584
0.0318233
0.267608
-0.468258
-0.222985
-0.836328
-0.67532
-0.986022
-0.941829
-0.888823
-0.96581
-0.588709
-0.761735
-0.134649
-0.376215
0.379078
0.12254
0.78155
0.604047
0.957663
0.899977
0.945747
0.968821
0.843391
0.905737
0.738002
0.794164
0.640359
0.683453
0.581814
0.60885
0.523545
0.551987
1.19767
1.29544
-1.71922
-1.5986
-4.16357
-5.95952
1.68248
0.91957
-2.00764
-3.15793
-4.783
1.381
2.42429
2.4435
1.72494
1.80391
3.0761
0.550443
0.595656
0.528665
0.498473
0.49354
0.463833
0.836756
0.128094
-2.39664
-2.63949
-2.50292
0.952106
1.01978
1.19333
2.15773
-2.96455
-2.37516
1.09572
-2.30737
-1.40481
-3.01248
1.98268
2.21077
2.15525
1.18365
1.04275
-1.77469
-5.1544
1.81822
0.569395
0.533764
0.641066
0.605326
0.711945
0.676263
0.785374
0.748517
0.859497
0.822357
0.933205
0.896452
1.00497
0.969401
1.07303
1.0396
1.1357
1.1051
1.19204
1.16462
1.24212
1.21779
1.28667
1.26499
1.32702
1.3073
1.3644
1.34603
1.40021
1.38242
1.43467
1.41767
1.46761
1.45134
1.49935
1.4836
1.53084
1.51506
1.56284
1.54678
1.59481
1.57893
1.62662
1.61068
1.65849
1.64259
1.68939
1.67409
1.71998
1.70454
1.75239
1.73597
1.78548
1.76887
1.8217
1.80287
1.86325
1.84203
1.9084
1.88522
1.96115
1.93368
2.01834
1.98991
2.07287
2.04571
2.1314
2.10121
2.20207
2.1646
2.29273
2.24446
2.40248
2.34573
2.37754
2.40176
2.30348
2.34323
2.26007
1.66977
1.59796
1.63719
1.729
1.69948
1.78414
1.75694
1.82462
1.80386
1.86509
1.84503
1.59108
1.6531
1.49639
1.53846
1.44802
1.46669
1.43298
1.43771
1.43944
1.43353
1.46861
1.45144
1.51288
1.48962
1.56299
1.53742
1.61472
1.58913
1.65722
1.6378
1.68275
1.67218
1.69018
1.68877
1.67852
1.68642
1.65285
1.66685
1.62077
1.63732
1.58621
1.6037
1.55179
1.56897
1.5181
1.53492
1.48327
1.50085
1.44524
1.46451
1.40287
1.42457
1.35538
1.37977
1.30414
1.33019
1.25177
1.27788
1.20101
1.22582
1.15455
1.17704
1.11411
1.13374
1.0802
1.09669
1.05122
1.06536
1.02409
1.03775
0.993127
1.00954
0.951826
0.974207
0.893758
0.925702
0.813422
0.857677
0.714588
0.764992
0.658931
0.603027
0.579393
0.644293
0.621808
0.663189
0.667258
0.492944
0.611902
0.0456264
0.305049
-0.611221
-0.266859
-1.24733
-0.958101
-1.49445
-1.42627
-1.32389
-1.45627
-0.836381
-1.10999
-0.199591
-0.526587
0.436374
0.127728
0.918363
0.703101
1.17002
1.07433
1.1951
1.20888
1.07559
1.14482
0.905709
0.998574
0.764179
0.83336
0.652231
0.704173
0.565947
0.607173
0.526902
0.892079
1.56409
-2.81479
-2.48746
-3.91139
-4.85832
1.49437
2.09478
1.87475
2.46118
1.88475
3.96206
0.570578
0.509573
0.474771
0.437207
0.566891
0.870377
-3.0128
-3.74698
-4.13133
1.09545
0.585584
2.75464
-3.67987
-3.40808
-2.05884
-0.387263
1.29793
-4.18336
-3.45896
2.03314
0.578337
1.97893
2.03361
0.489647
2.31396
2.30551
-2.82544
-4.48822
1.66342
0.551093
0.51352
0.62494
0.588148
0.698531
0.661813
0.772425
0.735283
0.846777
0.809601
0.920126
0.88363
0.990962
0.955903
1.05796
1.02503
1.11995
1.08966
1.1763
1.14885
1.22698
1.20231
1.27251
1.25032
1.31392
1.29365
1.35227
1.33341
1.38863
1.37065
1.42339
1.40621
1.45658
1.44018
1.48832
1.47261
1.51927
1.50382
1.55024
1.53476
1.58097
1.56558
1.61177
1.59633
1.64265
1.6272
1.67356
1.65808
1.70542
1.68923
1.73954
1.72224
1.77522
1.7571
1.81511
1.79445
1.86011
1.83708
1.9102
1.88438
1.9667
1.93776
2.02616
1.9964
2.08709
2.05615
2.15383
2.11958
2.23029
2.19063
2.31902
2.27274
2.42293
2.3695
2.52078
2.5345
2.47847
2.49249
2.5068