/*--------------------------------*- C++ -*----------------------------------*\
  =========                 |
  \\      /  F ield         | OpenFOAM: The Open Source CFD Toolbox
   \\    /   O peration     | Website:  https://openfoam.org
    \\  /    A nd           | Version:  10
     \\/     M anipulation  |
\*---------------------------------------------------------------------------*/
FoamFile
{
    format      ascii;
    class       surfaceScalarField;
    location    "34";
    object      phi;
}
// * * * * * * * * * * * * * * * * * * * * * * * * * * * * * * * * * * * * * //

dimensions      [0 3 -1 0 0 0 0];

internalField   nonuniform List<scalar> 
12623
(
0.390058
0.100487
-0.156425
-0.33412
0.301885
-0.145468
0.233641
0.411981
0.0742306
-0.38887
-0.0973417
0.0822541
0.390259
-0.0605321
-0.371059
-0.081287
0.108673
0.343673
-0.38314
0.0943356
-0.0461419
0.199529
-0.22152
0.0681329
-0.276076
0.229934
0.368078
0.00060433
-0.368683
0.193364
-0.0116689
0.186384
0.363149
-0.170853
-0.192296
-0.246
0.193649
0.415499
-0.206294
-0.148835
0.151022
0.204106
0.019367
0.0334426
-0.259103
-0.195996
0.0665282
0.0351099
0.0315925
-0.0981923
0.0314898
0.0640635
-0.0937901
0.0648365
-0.0323078
0.127964
0.0120322
-0.0411601
-0.0199811
0.049109
-0.10991
0.0496699
0.0722719
-0.119197
-0.0318728
-0.0580386
0.0648803
0.0381548
-0.0449966
0.0266092
-0.116966
0.0323184
-0.110207
0.201697
-0.274144
0.0247669
0.28282
0.0400147
-0.305438
-0.00872053
-0.311617
0.0228672
0.313516
-0.175137
0.0693197
-0.0730011
0.178819
-0.176489
-0.110551
0.111902
-0.186894
0.193097
-0.0229707
0.0167675
-0.179149
0.0615748
-0.388962
-0.0281877
0.0621273
0.355022
0.0582418
-0.396889
-0.0503148
0.367214
-0.365635
-0.00635261
0.0258258
0.346162
0.0177176
-0.371773
-0.0115797
-0.392089
0.047114
0.362692
-0.387454
-0.0328221
0.346611
-0.0215426
-0.373251
0.0481832
-0.00262067
0.0504432
0.298788
-0.357277
-0.00104283
0.336777
-0.364516
0.000886279
-0.0261118
0.0170583
0.20215
-0.334194
-0.0971913
0.107297
0.324088
0.0814325
-0.330675
-0.0849514
0.0865971
-0.395507
-0.355892
0.117809
0.332419
-0.366487
-0.0347159
-0.273862
0.0208514
0.287727
0.21678
0.0373842
-0.28888
-0.22326
0.0669984
0.373041
-0.093573
0.35212
-0.288809
0.0302617
-0.279448
0.292736
0.0582182
-0.0581097
-0.292844
0.0481476
0.273682
-0.0290944
-0.0286272
0.0175512
0.314152
-0.303076
-0.325206
0.322402
-0.0258231
0.311523
-0.0508609
0.0582512
-0.318914
0.20451
-0.206759
-0.210484
0.212733
-0.214047
0.206125
0.212432
-0.201893
-0.197596
0.192731
-0.203018
-0.16609
0.167214
-0.202529
-0.122327
0.121839
-0.210396
-0.0602035
0.0680697
-0.220654
0.00976773
0.000490895
-0.234858
0.0851519
-0.0709483
-0.253141
0.150663
-0.132381
0.194603
-0.267732
-0.180011
0.21001
-0.219843
-0.204214
-0.203003
0.195845
0.213283
0.204767
-0.19776
-0.223677
-0.20665
-0.228968
-0.192305
-0.226409
-0.168649
-0.231713
-0.117023
-0.238848
-0.0530685
-0.250608
0.0215279
-0.265618
0.100162
-0.276327
0.161372
-0.292346
0.210622
0.187994
0.19597
-0.179198
0.189567
0.194273
0.217642
-0.282168
-0.203205
-0.296878
0.222173
0.168276
0.188701
-0.161006
0.177745
0.180098
0.221141
-0.286101
-0.217208
-0.302177
0.22644
0.143651
0.181259
-0.136209
0.144908
0.213944
-0.291428
-0.208617
-0.293882
0.205649
0.180321
-0.109613
-0.0777941
0.185114
0.198271
-0.210138
-0.279562
0.196154
-0.291765
0.194736
-0.202075
-0.12887
-0.182114
0.184462
-0.0801418
-0.0969913
0.214972
-0.226249
-0.167922
-0.148109
0.238314
-0.248536
-0.193992
-0.185695
0.256971
-0.258972
-0.190304
-0.198215
0.266643
-0.269934
-0.113732
-0.160979
0.280262
-0.288219
0.0294844
-0.0427402
0.297684
-0.301672
0.16536
0.109627
0.301022
-0.308396
0.229548
0.209972
0.303834
-0.29662
0.198436
0.221877
-0.285666
0.1852
-0.283811
0.264371
-0.197768
0.280018
-0.213277
-0.276878
-0.212409
-0.253509
0.231172
-0.157675
-0.192343
-0.220987
0.20287
-0.0528312
-0.122195
-0.196813
0.194343
0.0705391
0.00654784
-0.191901
0.199377
0.159738
0.124282
-0.198411
0.206088
0.205056
0.193697
-0.203316
0.204246
0.212354
0.215204
-0.191876
0.188949
0.183025
0.206643
-0.176882
0.109636
0.156974
0.0308027
-0.038064
0.192375
0.186651
-0.0318157
0.178213
-0.183378
-0.271476
0.169188
-0.203976
-0.271167
-0.282434
0.276267
-0.20711
-0.218946
0.215303
-0.273235
-0.286611
-0.214769
0.1554
-0.177725
-0.249152
-0.274305
0.289386
0.154107
0.138403
-0.257308
0.214293
-0.202902
0.00537618
0.190088
-0.206114
-0.064116
0.195965
-0.0376932
0.218561
-0.0303796
-0.268235
0.212216
-0.225741
-0.115345
-0.0908892
0.240581
-0.252388
-0.156114
-0.133269
0.268988
-0.278445
-0.184535
-0.169096
0.28877
-0.296819
-0.182254
-0.18789
0.304098
-0.312325
-0.105505
-0.1537
0.318017
-0.325656
0.0371239
-0.0370488
0.326502
-0.327419
0.166276
0.110473
0.322737
-0.313378
0.220188
0.205291
0.302951
-0.299412
0.194897
0.21145
0.175174
-0.263382
0.252801
-0.187188
-0.199524
-0.234734
0.221718
-0.144658
-0.174276
-0.202669
0.199416
-0.0495777
-0.103147
-0.196343
0.197097
0.0697849
0.00962103
-0.207661
0.206921
0.160478
0.113718
-0.221713
0.218363
0.208406
0.178905
-0.226203
0.215363
0.223194
0.207363
-0.211755
0.202622
0.192158
0.21025
-0.197574
0.195255
0.111954
0.162023
0.0539285
-0.0097184
0.0227355
0.179358
0.193991
-0.0138694
0.194992
0.0148429
0.187079
0.229445
-0.230282
-0.285774
0.218944
-0.262735
-0.202393
-0.246499
-0.279783
0.288342
0.145548
-0.262098
0.120719
-0.142876
0.12177
-0.236202
-0.165114
-0.226914
-0.303298
0.296355
-0.223339
-0.234184
0.223297
-0.274887
-0.309628
-0.227854
-0.0536598
0.0589895
0.196821
0.222397
-0.0574959
0.0354722
-0.0436294
0.203149
0.205179
-0.199238
0.00890217
0.216245
0.0244061
-0.241412
-0.036011
0.247043
-0.228198
-0.00783766
-0.251684
0.207449
-0.214993
-0.0565715
-0.029483
0.226604
-0.243656
-0.0982931
-0.0792783
0.253209
-0.269318
-0.140005
-0.123715
0.285535
-0.298526
-0.171544
-0.152879
0.314883
-0.326325
-0.170811
-0.171533
0.341444
-0.351778
-0.095172
-0.138581
0.360659
-0.368162
0.0446262
-0.028167
0.365873
-0.364352
0.164755
0.108184
0.347441
-0.332999
0.205746
0.18838
0.314114
-0.304048
0.184831
0.192566
0.159468
-0.289861
0.276136
-0.193385
-0.208275
-0.261081
0.247799
-0.173906
-0.184469
-0.228461
0.217393
-0.13359
-0.154939
-0.203776
0.198936
-0.0447372
-0.0895301
-0.199016
0.204559
0.0642418
0.00954093
-0.212453
0.221576
0.151355
0.105824
-0.229594
0.235317
0.202683
0.170886
-0.238101
0.236708
0.224587
0.204579
-0.237255
0.223202
0.20621
0.209704
-0.222795
0.222531
0.112217
0.16243
0.0482619
-0.0568246
0.0514633
0.18472
0.196156
0.194913
-0.246419
0.106091
0.211413
-0.250851
-0.189053
-0.222559
0.214438
-0.218929
-0.305136
0.204509
-0.264958
-0.120474
0.0985123
-0.21424
-0.14298
-0.204408
0.0663038
-0.0760438
0.212889
0.0521916
0.230357
-0.0904571
0.100002
0.187275
-0.0879635
0.219903
0.255746
-0.256287
-0.00729663
-0.0541767
0.273911
0.223048
-0.215639
0.00149334
0.229896
0.0175575
-0.230539
0.0826323
-0.0686652
0.0485985
-0.210473
-0.0863405
-0.196565
0.251757
-0.0622094
-0.229323
0.221263
-0.233322
-0.044512
-0.0238589
0.245948
-0.25371
-0.0905309
-0.0666529
0.270638
-0.28415
-0.126494
-0.106787
0.300605
-0.318585
-0.153565
-0.136424
0.337546
-0.357015
-0.151342
-0.152572
0.374104
-0.38808
-0.0811956
-0.121492
0.397248
-0.401052
0.0484304
-0.0189993
0.39783
-0.387579
0.154505
0.104962
0.372695
-0.353455
0.186505
0.173496
0.334078
-0.31471
0.165463
0.173189
0.300271
-0.279981
0.125257
0.145029
0.26739
-0.2533
0.092001
0.108128
0.234749
-0.221967
0.0358165
0.0640814
-0.325274
0.309868
-0.207933
0.335289
-0.344894
-0.209325
-0.217839
-0.296898
0.283332
-0.179819
-0.195304
-0.263518
0.250603
-0.16099
-0.164655
-0.233895
0.221368
-0.121063
-0.138231
-0.212092
0.207542
-0.0401876
-0.0802539
-0.208443
0.214511
0.0581741
0.00863964
-0.223009
0.233592
0.140771
0.0973264
-0.243086
0.251537
0.194233
0.161392
-0.257125
0.260515
0.221197
0.198991
-0.259022
0.26401
0.201222
0.211197
-0.258101
0.257116
0.113202
0.168339
0.0490916
-0.102386
0.0901171
0.196989
0.193772
0.208987
-0.180241
0.172547
-0.297442
-0.348908
-0.176227
0.0111926
-0.0232845
-0.198381
-0.212365
0.00159059
0.186669
-0.233011
-0.166854
-0.198686
0.0464345
0.235653
-0.0805704
0.244364
0.303892
-0.299745
-0.0114431
0.30979
-0.0600755
0.160144
-0.252555
-0.106
-0.184749
0.0985343
-0.099864
-0.347578
0.0930329
-0.291941
-0.0358022
-0.184047
-0.0379115
0.0322318
-0.192701
-0.0361443
-0.214132
0.290155
-0.0784532
-0.209507
0.243562
-0.241315
-0.00075369
-0.241978
0.250315
0.0380972
0.0191422
0.246875
-0.252065
-0.039322
-0.0182987
0.258359
-0.268227
-0.0806633
-0.0603589
0.282118
-0.296903
-0.111708
-0.0928964
0.314517
-0.334654
-0.133429
-0.11881
0.356716
-0.379409
-0.128649
-0.13051
0.399422
-0.41564
-0.0649778
-0.10148
0.425699
-0.428857
0.0515881
-0.00893985
0.424061
-0.411344
0.141788
0.100166
0.393435
-0.372108
0.165179
0.155587
0.350247
-0.327784
0.143
0.151328
0.304169
-0.287838
0.108927
0.121414
0.268182
-0.251286
0.0751047
0.0884721
0.239218
-0.231626
0.0282243
0.0520137
0.227971
-0.22998
-0.034135
-0.0020645
-0.384237
0.370187
-0.195275
0.395373
-0.400714
-0.0945232
-0.165091
-0.348909
0.329354
-0.188378
-0.196561
-0.305687
0.290867
-0.164999
-0.171637
-0.271889
0.255379
-0.14448
-0.145677
-0.241213
0.229665
-0.109514
-0.124065
-0.222531
0.219515
-0.0371709
-0.0731202
-0.221522
0.228166
0.0515296
0.00663245
-0.23748
0.249098
0.129153
0.0880131
-0.260074
0.271111
0.183196
0.150416
-0.280024
0.288349
0.212872
0.190078
-0.29751
0.297079
0.201653
0.202036
-0.301565
0.302178
0.112589
0.163854
0.0515248
0.0140379
-0.0155183
-0.346097
-0.398549
0.0118726
-0.0710173
0.0799254
-0.223041
-0.236558
-0.0644393
0.291017
-0.0993381
-0.130708
0.134162
0.240909
0.267607
-0.151154
0.137866
0.200563
0.202912
-0.132068
0.122473
0.206584
0.199571
-0.110567
0.0972636
0.226193
0.220892
-0.0844847
0.073246
0.246892
0.243136
0.0632753
0.260286
0.141976
-0.214844
-0.12377
-0.180916
0.0812752
-0.240797
-0.0473815
-0.17317
-0.016846
-0.290613
0.0280033
-0.179818
-0.130459
0.123953
-0.392042
-0.131507
-0.34505
0.087628
-0.200404
0.0990201
-0.0875213
-0.248057
0.114721
-0.238741
0.26005
-0.255867
0.0339147
0.271897
0.0514277
-0.191301
0.253225
-0.254302
0.000322702
0.0164999
0.258987
-0.261748
-0.0365608
-0.0136137
0.271216
-0.280417
-0.0714625
-0.0508906
0.293869
-0.308511
-0.0970657
-0.0794446
0.327126
-0.348121
-0.112433
-0.100195
0.371422
-0.394922
-0.105148
-0.107209
0.415444
-0.431221
-0.0492008
-0.0809582
0.440076
-0.441584
0.0530961
-8.46031e-05
0.435558
-0.422124
0.128354
0.0941391
0.403185
-0.380475
0.142469
0.136648
0.357218
-0.334337
0.120119
0.128072
0.313071
-0.292923
0.0887785
0.100147
0.275252
-0.259282
0.0591349
0.0708014
0.247516
-0.240485
0.0211926
0.0402475
0.236631
-0.240829
-0.0299368
-0.00591808
0.249869
-0.262981
-0.0744087
-0.0553998
-0.44194
0.434914
-0.0874964
0.439586
-0.432489
0.116856
0.00951871
-0.414975
0.390388
-0.170688
-0.145153
-0.361452
0.339583
-0.166509
-0.167625
-0.315958
0.296742
-0.145783
-0.148012
-0.279632
0.262704
-0.127552
-0.128567
-0.24908
0.238478
-0.0989117
-0.110442
-0.233259
0.232397
-0.0363092
-0.0679018
-0.235647
0.243071
0.044106
0.00338255
-0.253231
0.266131
0.116253
0.0778532
-0.279161
0.29299
0.169366
0.137386
-0.305579
0.318523
0.199928
0.17749
-0.329707
0.340435
0.190924
0.190852
-0.350648
0.346918
0.116319
0.153641
-0.342685
0.342629
-0.0113874
0.0557578
-0.347323
0.350111
-0.102127
-0.064769
-0.101327
-0.158705
0.175308
0.224306
0.132924
0.308973
0.241826
-0.170372
0.16415
0.206784
0.207848
-0.157514
0.144906
0.219191
0.206207
-0.136649
0.117842
0.245
0.229149
-0.107226
0.0905648
0.263553
0.253752
0.209231
-0.22009
-0.381184
-0.420489
0.197231
-0.100288
0.11772
-0.265489
-0.275867
-0.0874023
-0.0821644
0.0741171
0.279945
0.268686
0.0696
-0.203169
-0.0578887
-0.170408
-0.0184841
-0.239159
0.0248272
-0.169994
-0.129445
-0.292675
0.0939602
-0.18615
-0.223263
-0.341877
0.132631
-0.218314
-0.251321
0.236031
-0.4052
-0.267147
-0.365358
0.138444
-0.259466
0.11113
-0.286071
-0.100925
0.129127
-0.283487
-0.409549
0.434373
0.211207
0.234673
-0.256568
-0.383305
-0.383765
0.208889
-0.108852
0.12727
-0.304489
-0.284965
0.267437
-0.0833972
-0.304273
-0.089544
0.292769
-0.283519
0.0648677
0.0776665
-0.0983837
0.300662
0.29897
0.0714649
-0.17959
0.270642
-0.273005
0.0362773
0.0385507
0.268955
-0.270689
0.00205674
0.0124503
0.271026
-0.274302
-0.0332849
-0.0132771
0.282483
-0.29183
-0.0621155
-0.0427097
0.305531
-0.320401
-0.082196
-0.0657432
0.338611
-0.358845
-0.0921994
-0.0819851
0.380348
-0.402206
-0.0832904
-0.0857057
0.421251
-0.435967
-0.0344848
-0.0619127
0.442999
-0.441698
0.0517954
0.00694741
0.433218
-0.418614
0.11375
0.0856587
0.399786
-0.378146
0.120828
0.117821
0.355831
-0.333704
0.0979919
0.105757
0.31302
-0.294053
0.0698116
0.0794632
0.276743
-0.261683
0.0440757
0.0534907
0.249462
-0.240668
0.0123983
0.0280261
0.238427
-0.240816
-0.0275476
-0.00815927
0.246383
-0.25803
-0.062762
-0.0498322
-0.0779955
-0.450661
0.465073
0.102445
0.180943
-0.467042
0.45535
-0.0758039
0.00754914
-0.429071
0.403534
-0.145151
-0.118874
-0.375416
0.351057
-0.14215
-0.139507
-0.330542
0.311282
-0.126523
-0.127498
-0.293945
0.275789
-0.109396
-0.11123
-0.2605
0.248907
-0.0873187
-0.0951535
-0.243439
0.24374
-0.0366099
-0.0624343
-0.248554
0.257448
0.035212
-0.00143087
-0.26874
0.282832
0.102161
0.0665608
-0.297665
0.313929
0.153103
0.122553
-0.32967
0.346546
0.183052
0.161748
-0.36199
0.376896
0.176018
0.175408
-0.387663
0.393192
0.11079
0.142874
-0.393355
0.387783
-0.00581546
0.055595
-0.379593
0.375301
-0.0978345
-0.056579
-0.121532
-0.137646
0.178079
0.268541
0.303446
-0.182037
0.182263
0.22408
0.237868
-0.180832
0.177931
0.209685
0.209279
-0.173725
0.168131
0.224786
0.210412
-0.161016
0.15312
0.252896
0.236264
-0.139662
0.119331
0.283885
0.26721
0.289633
-0.0206874
-0.200965
0.0231178
-0.168699
-0.124477
-0.244127
0.101241
-0.177274
-0.220432
-0.295506
0.150681
-0.2042
-0.274483
-0.334541
0.16405
-0.24392
-0.275733
-0.346193
0.152342
-0.28268
-0.209797
0.181802
-0.35577
-0.238886
-0.354216
0.140995
-0.297211
0.112382
-0.32421
-0.092445
0.133546
-0.325653
-0.326084
0.357496
0.15039
0.148667
-0.184078
-0.32036
-0.29259
0.115173
-0.0970855
0.112178
-0.339302
-0.337282
0.330137
-0.0852999
-0.349666
-0.0847014
0.0851857
-0.107286
0.322762
0.0651534
0.319003
0.299594
-0.291817
0.0570905
0.311413
0.0596455
-0.177159
0.286122
-0.281224
0.0313793
0.0328559
0.281092
-0.278671
-0.000365087
0.0123188
0.28136
-0.284672
-0.029972
-0.0105882
0.293673
-0.303628
-0.0521612
-0.0337087
0.316488
-0.331079
-0.0676049
-0.0528826
0.346614
-0.364528
-0.0742861
-0.0664502
0.38207
-0.401148
-0.0642124
-0.0681635
0.417792
-0.431466
-0.020811
-0.0452681
0.437099
-0.434515
0.049211
0.0125807
0.424697
-0.409065
0.0981173
0.0758408
0.390397
-0.369175
0.0996066
0.099153
0.347839
-0.326254
0.0764066
0.0844208
0.306761
-0.289408
0.0524586
0.0599704
0.275627
-0.265101
0.0335489
0.0397099
0.258964
-0.257561
0.0109959
0.0218891
0.260561
-0.26542
-0.0226886
-0.00515966
0.276918
-0.286981
-0.0526994
-0.038334
0.302937
-0.316571
-0.0697632
-0.0620394
-0.075978
-0.391225
0.415773
0.18666
0.17516
-0.444375
0.464645
0.0821748
0.152341
-0.47114
0.457563
-0.0622265
0.00105389
-0.433239
0.40502
-0.116933
-0.0945494
-0.380342
0.357825
-0.119633
-0.114829
-0.339655
0.322498
-0.109366
-0.109327
-0.306744
0.289373
-0.0920251
-0.0954765
-0.273537
0.260301
-0.074083
-0.0793171
-0.253618
0.253301
-0.0362934
-0.0557504
-0.258594
0.268699
0.0251065
-0.00672352
-0.281362
0.297057
0.0864656
0.0538979
-0.313366
0.331928
0.13454
0.106244
-0.349953
0.370024
0.162982
0.143724
-0.3883
0.406531
0.157787
0.157131
-0.419864
0.428921
0.101733
0.129541
-0.43062
0.423899
0.000905991
0.0538952
-0.41622
0.402874
-0.0844883
-0.0489005
-0.107528
-0.0897956
0.125216
0.308252
0.339545
-0.154691
0.171113
0.252119
0.273971
-0.178632
0.183087
0.219625
0.230348
-0.184914
0.184862
0.209737
0.207453
-0.183076
0.179399
0.228463
0.212198
-0.17362
0.162083
0.264433
0.242043
-0.14518
0.127234
0.30183
0.284113
0.309582
-0.11771
-0.207733
0.10956
-0.177018
-0.211232
-0.253327
0.167038
-0.193631
-0.273196
-0.296793
0.187551
-0.227701
-0.286643
-0.32363
0.179439
-0.271017
-0.259032
-0.326048
0.159335
-0.30102
-0.212458
-0.325836
0.154638
-0.318303
-0.114041
0.0850806
-0.26363
-0.152085
-0.282316
0.139039
-0.352515
0.0987132
-0.0835175
-0.364862
0.114922
-0.355511
0.111335
0.265232
-0.18531
0.302263
-0.295054
0.0498809
-0.282598
0.176319
0.217615
0.0793105
0.298066
-0.287647
0.0209609
0.0358678
0.289164
-0.286854
-0.00267553
0.0138357
0.28975
-0.295443
-0.0242786
-0.00769232
0.302735
-0.313083
-0.0418135
-0.0264166
0.322935
-0.336148
-0.0543917
-0.0430305
0.348892
-0.364473
-0.0587049
-0.0537062
0.379161
-0.394735
-0.0486388
-0.0534758
0.407349
-0.416334
-0.011826
-0.0326534
0.418956
-0.41523
0.0454849
0.015203
0.406195
-0.39145
0.0833729
0.0668052
0.374431
-0.354094
0.0792695
0.0821338
0.334986
-0.315694
0.0571148
0.065313
0.300392
-0.287426
0.0394924
0.0446682
0.279141
-0.272976
0.0273844
0.0314249
0.269674
-0.267459
0.00878043
0.0185872
0.267926
-0.269823
-0.0207916
-0.00469273
0.274619
-0.280854
-0.0464652
-0.0335374
0.286973
-0.296788
-0.0599486
-0.0559196
0.306989
-0.324708
-0.0675802
-0.0657772
0.340761
-0.356421
-0.0678575
-0.0686485
-0.306065
0.335139
0.121316
0.28202
-0.271196
0.0742562
0.0911285
-0.361874
0.403306
0.145227
0.148425
-0.440594
0.463254
0.059515
0.115053
-0.465092
0.449629
-0.0467641
-0.000784331
-0.426065
0.399215
-0.090082
-0.0709851
-0.376857
0.356469
-0.0992454
-0.0924718
-0.339881
0.324445
-0.0939295
-0.0927388
-0.311754
0.29808
-0.0783511
-0.0827858
-0.284435
0.27111
-0.0607577
-0.0656725
-0.262886
0.260961
-0.0343685
-0.0475262
-0.265549
0.275909
0.014746
-0.0113113
-0.289147
0.306143
0.0694693
0.0406599
-0.323587
0.344058
0.114069
0.0888012
-0.363926
0.38605
0.140858
0.123855
-0.406059
0.42596
0.137886
0.137122
-0.441007
0.451528
0.0912116
0.114495
-0.4547
0.447532
0.00807364
0.0507228
-0.435155
0.420564
-0.0698973
-0.0365228
-0.399109
0.387804
-0.0860371
-0.0860734
-0.0696163
-0.10248
0.132924
0.277808
0.0727543
0.329382
0.309819
-0.150965
0.160899
0.242185
0.25593
-0.169524
0.175821
0.213328
0.221723
-0.179923
0.182328
0.207332
0.203351
-0.183218
0.182018
0.229663
0.211308
-0.178371
0.168504
0.2743
0.24569
-0.157292
0.140281
0.318841
0.295325
-0.109545
0.0808913
0.351415
0.340318
-0.0182585
0.459809
0.381635
0.0606266
-0.078813
-0.245443
-0.263097
0.0525284
-0.0723278
0.0933115
-0.385845
-0.36913
-0.0596186
-0.198426
-0.220539
0.183165
-0.193145
-0.39257
-0.0451988
-0.26437
-0.262153
0.210631
-0.216712
0.417906
-0.306779
0.106487
0.0909572
-0.0549387
0.423791
0.0901226
0.418741
-0.288746
-0.294691
0.205302
-0.253564
-0.274012
-0.30865
0.18605
-0.297732
-0.234048
-0.304458
0.173387
-0.319769
-0.184458
-0.293463
0.166954
-0.346218
-0.115455
-0.245674
0.142462
-0.380055
-0.0411272
0.0383494
-0.26032
-0.0465314
-0.240039
0.117374
-0.379574
-0.0665295
0.0841398
-0.403456
-0.0536403
-0.38202
-0.200571
0.310706
-0.305824
0.0449982
0.0832379
0.29951
-0.297334
0.0187845
0.0295544
0.295202
-0.296747
-0.00113053
0.0117035
0.298949
-0.305028
-0.0181995
-0.00549033
0.309712
-0.318
-0.0335249
-0.0217325
0.32533
-0.335837
-0.0438842
-0.0357014
0.346507
-0.359142
-0.0460693
-0.0430365
0.371727
-0.384486
-0.03588
-0.0408911
0.394456
-0.400115
-0.00616769
-0.0226828
0.399569
-0.392594
0.0385097
0.0146576
0.381626
-0.367392
0.0691392
0.0558372
0.352833
-0.337299
0.0637355
0.0675746
0.323757
-0.311089
0.0444469
0.0517702
0.30197
-0.294478
0.032
0.03555
0.289582
-0.284984
0.0227861
0.026529
0.281366
-0.278326
0.00573975
0.0149696
0.276808
-0.27848
-0.0191189
-0.00621054
0.282936
-0.289523
-0.0398777
-0.029082
0.300572
-0.308026
-0.0524939
-0.0448713
0.319297
-0.329008
-0.0578698
-0.0545065
0.338845
-0.351784
-0.0549188
-0.0588107
0.361205
-0.372113
-0.0427321
-0.0501981
-0.279954
0.292914
0.0612971
0.275995
-0.273296
0.03565
0.048569
-0.304298
0.324636
0.100978
0.0797441
-0.363154
0.397577
0.110804
0.109906
-0.431635
0.449791
0.0413589
0.0809958
-0.449335
0.434623
-0.0320515
-0.00032871
-0.414684
0.391639
-0.067037
-0.0510463
-0.370927
0.350881
-0.0791996
-0.0717598
-0.33431
0.318961
-0.0785803
-0.0761675
-0.307704
0.297977
-0.0686235
-0.0715297
-0.289214
0.279335
-0.0508784
-0.0569095
-0.271304
0.267619
-0.0306836
-0.0394951
-0.270073
0.279398
0.00542048
-0.0137653
-0.292344
0.309797
0.0520165
0.0277138
-0.327931
0.349111
0.0928892
0.070667
-0.36985
0.392381
0.118327
0.103117
-0.413265
0.433624
0.117527
0.116238
-0.449491
0.459823
0.0808788
0.0986286
-0.463743
0.458843
0.0129733
0.0468032
-0.444683
0.425428
-0.0506425
-0.0223621
-0.406088
0.394123
-0.0740719
-0.0667339
-0.0680634
-0.058489
0.0808697
0.307001
0.330029
-0.108841
0.120928
0.265721
0.281848
-0.13324
0.144284
0.23114
0.243618
-0.153129
0.160437
0.206021
0.212879
-0.166276
0.17074
0.202867
0.197512
-0.173748
0.174653
0.228758
0.208301
-0.172636
0.167268
0.279667
0.247708
-0.158674
0.145028
0.332487
0.30392
-0.126426
0.099177
0.378665
0.35892
0.425874
0.0240912
-0.0244238
-0.259987
-0.269979
0.020774
-0.0418267
0.0546087
-0.394802
-0.381075
-0.0328649
-0.2502
-0.234709
0.232093
-0.214606
0.385524
-0.344886
0.065849
0.400325
0.0753223
-0.283884
-0.267015
0.231372
-0.242782
-0.280654
-0.288048
0.211292
-0.278806
-0.253813
-0.288885
0.195383
-0.319728
-0.208903
-0.280013
0.191535
-0.344351
-0.151789
-0.257129
0.173288
-0.377043
-0.0713336
-0.220872
0.148415
-0.411095
-0.0201481
-0.244315
0.112693
-0.408127
-0.00441197
0.00271814
-0.268285
-0.00332551
-0.261073
0.0690055
-0.417853
-0.2762
0.274443
0.00447537
0.0085775
-0.27577
-0.0090074
0.0148722
-0.274579
0.0266375
0.318481
-0.0253094
0.0384577
-0.40795
-0.0244516
-0.381932
-0.218678
0.321751
-0.312669
0.0359164
0.0601031
0.308074
-0.304332
0.0150434
0.0249587
0.301398
-0.302907
0.000378274
0.00876895
0.303249
-0.306806
-0.0146428
-0.00514798
0.309394
-0.31526
-0.0276593
-0.0191441
0.321588
-0.330927
-0.0345448
-0.0293732
0.341061
-0.353115
-0.0340157
-0.0329026
0.364927
-0.376197
-0.02461
-0.0290787
0.384132
-0.387709
-0.00259059
-0.0147487
0.385506
-0.377361
0.0303647
0.012455
0.365285
-0.351101
0.0549547
0.0437613
0.338174
-0.326835
0.052397
0.0546474
0.318386
-0.311442
0.0375031
0.0433209
0.306289
-0.301314
0.0270243
0.0303973
0.296738
-0.291771
0.0178184
0.0219535
0.287457
-0.284329
0.00261178
0.0106563
0.283657
-0.285767
-0.0170087
-0.00688276
0.289866
-0.295914
-0.0338298
-0.0249829
0.302199
-0.309279
-0.0454143
-0.0385866
0.316662
-0.323605
-0.0509273
-0.0471229
0.333222
-0.340273
-0.0478674
-0.0491936
0.347118
-0.355966
-0.0338849
-0.043353
0.363348
-0.367656
-0.0201435
-0.0254822
-0.277979
0.283813
0.0298159
0.0172377
-0.292142
0.301919
0.0515201
0.0402401
-0.316866
0.337882
0.0799629
0.0647968
-0.363743
0.39314
0.0814076
0.0840447
-0.417366
0.427466
0.0312587
0.0567702
-0.425037
0.414
-0.0210153
0.00210049
-0.400641
0.38495
-0.051346
-0.0376868
-0.369505
0.352713
-0.0624074
-0.0563151
-0.337557
0.322279
-0.0633024
-0.0610114
-0.309856
0.299563
-0.0583304
-0.0591064
-0.292076
0.285246
-0.0440482
-0.0494234
-0.278665
0.274329
-0.0263478
-0.0329137
-0.273855
0.280313
-0.00103715
-0.0132915
-0.291129
0.30768
0.0354655
0.0168979
-0.325638
0.346887
0.0716401
0.0527092
-0.367704
0.390201
0.0958294
0.0822994
-0.410931
0.430518
0.0979398
0.0955085
-0.445447
0.45543
0.0708961
0.0836995
-0.45963
0.455977
0.0166264
0.0426023
-0.44549
0.42696
-0.0321126
-0.0118751
-0.406543
0.38516
-0.0526885
-0.0463166
-0.371553
0.370105
-0.043751
-0.0544565
-0.03449
-0.0519563
0.0739807
0.284977
0.30471
-0.0906005
0.102418
0.253904
0.265228
-0.112539
0.121603
0.222076
0.233497
-0.129566
0.137065
0.198522
0.204915
-0.143772
0.149986
0.196653
0.190805
-0.154619
0.157481
0.225896
0.203668
-0.157127
0.153228
0.283566
0.248061
-0.145504
0.129802
0.348188
0.311644
-0.120219
0.0994871
0.399397
0.368503
-0.113285
0.0945605
0.442515
0.412076
-0.0594457
-0.0175839
0.477354
0.453856
-0.271998
-0.246594
0.254325
-0.237559
0.0132213
-0.0139431
-0.366935
0.0130686
-0.38178
0.390287
-0.413203
0.00533231
-0.0535246
0.257614
0.273265
0.34611
-0.00934758
-0.349609
0.344088
-0.0146228
-0.347496
-0.0160558
-0.280881
-0.266789
0.237069
-0.26856
-0.265322
-0.276539
0.217556
-0.300978
-0.233187
-0.264601
0.212695
-0.340888
-0.180832
-0.250969
0.204292
-0.375356
-0.106579
-0.221884
0.178097
-0.406726
-0.0249259
-0.216094
0.142497
-0.440899
0.00171804
-0.249358
0.0989641
-0.438086
-0.0207368
-0.281935
0.0269017
-0.288416
0.282754
-0.0150746
0.0279322
-0.294245
-0.0221031
-0.290608
0.0366051
0.0198122
-0.266013
0.0490629
-0.428458
-0.28173
0.0340523
0.082795
-0.178665
0.353484
-0.358261
-0.0178348
-0.0176054
0.373665
-0.236351
0.369983
-0.348165
0.0440309
0.0321019
0.329176
-0.317985
0.0247253
0.0411145
0.312467
-0.310506
0.0130825
0.019441
0.308361
-0.309426
0.00144396
0.00662326
0.309743
-0.313166
-0.0112193
-0.00483152
0.316687
-0.322969
-0.0213771
-0.015623
0.329373
-0.337202
-0.0267166
-0.0229692
0.344707
-0.352622
-0.0261015
-0.0253968
0.360046
-0.366913
-0.0177427
-0.0216545
0.37217
-0.374669
-9.15176e-05
-0.00949138
0.373505
-0.367298
0.0241576
0.011291
0.35742
-0.345054
0.0425886
0.0338834
0.333729
-0.324191
0.042859
0.0433218
0.317455
-0.312332
0.0323805
0.0365852
0.308193
-0.303985
0.0228164
0.0262579
0.299706
-0.295375
0.0134869
0.0176746
0.291792
-0.289539
0.000358402
0.00707411
0.289097
-0.290832
-0.0152731
-0.00732518
0.294067
-0.298997
-0.0288999
-0.0217479
0.30463
-0.311526
-0.038519
-0.0329533
0.318562
-0.32591
-0.0435792
-0.040087
0.332696
-0.337493
-0.0430708
-0.0424069
0.34175
-0.343377
-0.0322579
-0.0390956
-0.0247713
-0.281493
0.28253
0.00343854
-0.00774666
-0.286888
0.292898
0.023806
0.0128789
-0.300003
0.309212
0.0423108
0.0331357
-0.31977
0.339061
0.060672
0.0542387
-0.360997
0.38333
0.059075
0.0621084
-0.398273
0.404674
0.0248573
0.0418275
-0.402904
0.394766
-0.0128777
0.00387049
-0.383967
0.371539
-0.0389173
-0.0268876
-0.360448
0.349843
-0.0518029
-0.0452244
-0.340744
0.331091
-0.0536498
-0.0519118
-0.321435
0.311382
-0.0482779
-0.0494497
-0.302945
0.295836
-0.0369386
-0.0409867
-0.289698
0.284726
-0.021375
-0.0267765
-0.281866
0.283976
-0.00314696
-0.0104322
-0.290358
0.303131
0.0226925
0.010516
-0.318738
0.338537
0.0518418
0.0371021
-0.358684
0.380449
0.0740637
0.0621523
-0.400434
0.418725
0.0796492
0.0755239
-0.433264
0.4434
0.0607605
0.0691601
-0.447858
0.443751
0.0207332
0.0381436
-0.433153
0.415506
-0.014466
-0.00127657
-0.396994
0.377146
-0.0328403
-0.027804
-0.363254
0.357163
-0.0376598
-0.0405649
-0.0355878
-0.0164989
0.0341022
0.300878
0.317658
-0.0513837
0.0622771
0.274083
0.287429
-0.0691075
0.0763754
0.246636
0.258398
-0.0837284
0.0910887
0.214716
0.226144
-0.0982955
0.105451
0.191367
0.197709
-0.112193
0.118495
0.190351
0.184063
-0.123666
0.127221
0.222342
0.198497
-0.128454
0.126954
0.285065
0.246828
-0.122795
0.115266
0.355718
0.315803
-0.104963
0.0956409
0.408719
0.378806
-0.0910873
0.102994
0.430608
0.41663
0.378185
0.012962
-0.407843
0.331907
-0.00340207
-0.00182583
-0.000696477
-0.364412
-0.35233
0.00300755
-0.273023
-0.254452
0.258662
-0.259152
-0.270008
-0.262103
0.23965
-0.290654
-0.250688
-0.259038
0.231721
-0.320004
-0.00209977
-0.380376
-0.209043
-0.236391
0.230105
-0.3667
-0.140078
-0.21747
0.209692
-0.40695
-0.0463781
-0.200431
0.17913
-0.443359
-0.028011
-0.301554
0.0353205
-0.302565
0.295451
-0.020897
0.0318907
-0.309924
-0.0245314
-0.309928
0.040264
0.0124901
-0.226866
0.127171
-0.469106
-0.300889
0.0456015
0.0261004
-0.255647
0.0769968
-0.46602
-0.290466
0.0453414
0.0422609
-0.274222
0.0241872
-0.439683
-0.00870125
-0.0197653
0.360373
0.2316
-0.376578
0.195422
0.0271718
-0.0164913
0.288108
0.00803676
-0.0132907
-0.359158
-0.353511
0.00921785
-0.0416032
0.300375
-0.250712
0.359928
-0.374607
0.0200109
-0.343325
-0.0068273
0.34675
0.00725511
0.359851
-0.342559
0.0267393
0.017346
0.328767
-0.322199
0.0181566
0.0273226
0.316182
-0.313914
0.0108151
0.0134241
0.312471
-0.312318
0.00129096
0.00517957
0.312994
-0.315338
-0.00887477
-0.00415514
0.318332
-0.322845
-0.0168638
-0.0126295
0.32764
-0.333378
-0.0209782
-0.0181745
0.339125
-0.34541
-0.0198162
-0.0196504
0.351474
-0.357251
-0.0119659
-0.0155903
0.361663
-0.363787
0.00203271
-0.0050793
0.36288
-0.358345
0.0196227
0.0103838
0.350847
-0.34129
0.0330317
0.0263848
0.331975
-0.323706
0.0345904
0.0340071
0.317415
-0.312487
0.0274519
0.030294
0.308459
-0.304654
0.0190106
0.0222307
0.301071
-0.297734
0.0101506
0.0140918
0.295191
-0.293793
-0.00103988
0.00453096
0.293873
-0.295438
-0.0137079
-0.0072457
0.298141
-0.302027
-0.0250142
-0.0190446
0.306519
-0.311858
-0.0331795
-0.0284611
0.317482
-0.323768
-0.0372936
-0.0344631
0.329885
-0.335965
-0.0369909
-0.0362903
0.340772
-0.343283
-0.0297472
-0.0342883
0.343551
-0.340378
-0.017796
-0.0245031
0.342985
-0.341221
0.00124402
-0.0134487
0.00326536
-0.340072
-0.0167041
0.334028
-0.335578
0.00481542
0.00202452
-0.292129
0.290527
-0.0134728
-0.0187811
-0.289874
0.290963
0.00235011
-0.00709395
-0.293588
0.29746
0.019934
0.0102534
-0.303908
0.311815
0.0344038
0.0266878
-0.323161
0.337981
0.045852
0.0428926
-0.35358
0.368925
0.0437302
0.0465096
-0.379351
0.384658
0.0195504
0.0314018
-0.38455
0.380594
-0.00892208
0.00397862
-0.373686
0.364317
-0.0295486
-0.0199798
-0.354142
0.343259
-0.0409196
-0.035049
-0.333319
0.324058
-0.0443885
-0.0419726
-0.316176
0.308807
-0.0409089
-0.0415674
-0.302854
0.297785
-0.031869
-0.0350342
-0.294261
0.291139
-0.0182525
-0.023253
-0.289319
0.289252
-0.00307978
-0.00861247
-0.292595
0.300388
0.0149
0.00717253
-0.311884
0.327856
0.0358698
0.0256061
-0.345204
0.364841
0.0544274
0.0448037
-0.382614
0.400059
0.0622036
0.0577505
-0.413032
0.42264
0.0511526
0.0561877
-0.424553
0.420421
0.0248653
0.0362304
-0.410598
0.397926
-0.00179439
0.00854624
-0.384551
0.370988
-0.0192772
-0.0144284
-0.36003
0.347116
-0.0247461
-0.029607
-0.344481
0.346598
-0.0199522
-0.032952
-0.0257671
-0.0127966
0.0253922
0.288283
0.28837
-0.0313111
0.0368968
0.268498
0.28151
-0.0425436
0.0478977
0.241282
0.252751
-0.0523712
0.0572621
0.209825
0.22167
-0.0624729
0.067936
0.185903