/*--------------------------------*- C++ -*----------------------------------*\
  =========                 |
  \\      /  F ield         | OpenFOAM: The Open Source CFD Toolbox
   \\    /   O peration     | Website:  https://openfoam.org
    \\  /    A nd           | Version:  10
     \\/     M anipulation  |
\*---------------------------------------------------------------------------*/
FoamFile
{
    format      ascii;
    class       volScalarField;
    location    "38.5";
    object      p;
}
// * * * * * * * * * * * * * * * * * * * * * * * * * * * * * * * * * * * * * //

dimensions      [0 2 -2 0 0 0 0];

internalField   nonuniform List<scalar> 
6397
(
0.251422
0.236063
-0.00443306
-0.0127113
-0.0364914
-0.0241402
0.4301
0.150749
-0.55734
-0.505505
0.378104
0.249105
0.00260766
0.0034547
-0.00296471
-0.431825
-0.410877
-0.404902
0.843306
0.783042
0.748935
-0.545445
-0.49541
-0.503858
0.00398146
0.0042998
0.00459629
-0.0921272
-0.104921
-0.0712368
-0.0779933
-0.018936
-0.00942712
-0.0225644
-0.00250979
0.0036409
-0.0119749
-0.00364248
0.0206149
0.0160501
0.00809229
0.0130411
-0.0663136
-0.0360913
-0.0286909
-0.0146759
-0.0352599
-0.0250526
0.0261026
0.0293123
0.0292039
0.0325208
0.0310426
0.341127
0.326877
0.183972
0.195479
0.0201743
-0.110956
-0.126856
-0.0937777
-0.0788755
-0.0685089
-0.0627113
-0.0613618
-0.0641079
-0.0719397
-0.0860134
-0.143673
-0.136109
-0.155896
-0.124638
-0.103895
-0.086104
-0.0733973
-0.0657583
-0.0627582
-0.0639863
-0.0700328
-0.0817266
-0.157963
-0.136605
-0.107105
-0.099404
-0.150268
-0.129721
-0.134077
-0.121314
-0.135662
-0.118331
-0.163782
-0.144401
-0.118563
-0.102091
-0.190151
-0.163002
-0.147496
-0.106913
-0.127528
-0.172125
-0.163751
-0.155697
-0.170076
-0.10918
-0.133209
-0.0735843
-0.0885867
-0.058893
-0.0639257
-0.0617445
-0.0580724
-0.0837468
-0.0703971
-0.11656
-0.100363
-0.128686
-0.138001
-0.205852
-0.172824
-0.0841947
-0.107176
-0.0593133
-0.0683055
-0.0550416
-0.0549889
-0.0674965
-0.0590161
-0.0937603
-0.0796537
-0.113997
-0.106234
-0.108212
-0.113859
-0.0873219
-0.0977623
-0.0880864
-0.0818029
-0.0890998
-0.132062
-0.171806
-0.207782
-0.226995
-0.234572
-0.125027
-0.0927366
-0.085028
-0.058343
-0.105246
-0.0846578
-0.0559426
-0.205054
-0.151585
-0.128012
-0.181874
-0.171137
-0.16134
-0.177828
-0.108896
-0.136103
-0.0685935
-0.0857847
-0.0502457
-0.0572209
-0.0481326
-0.0471832
-0.0628384
-0.0534674
-0.085166
-0.0744091
-0.0922953
-0.132146
-0.169752
-0.0774111
-0.100891
-0.0511605
-0.0613294
-0.044432
-0.046121
-0.0525837
-0.0467019
-0.0736254
-0.0626255
-0.0902867
-0.0845327
-0.0863343
-0.0910497
-0.06919
-0.0782317
-0.0628212
-0.0771107
-0.0738754
-0.0691751
-0.0748695
-0.238647
-0.226195
-0.165747
-0.0556758
-0.0482297
-0.0710277
-0.107943
-0.235502
-0.21531
-0.214013
-0.0632106
-0.0554286
-0.0577782
-0.0606475
-0.0489403
-0.0442279
-0.0445307
-0.200842
-0.0982092
-0.077294
-0.146859
-0.122041
-0.178065
-0.16732
-0.157664
-0.174675
-0.103629
-0.131828
-0.0600799
-0.0790457
-0.0382724
-0.0471512
-0.0315277
-0.0332116
-0.0395105
-0.0339318
-0.0541396
-0.0473291
-0.0579125
-0.196112
-0.226485
-0.119148
-0.156658
-0.0664223
-0.0891395
-0.0409725
-0.0511091
-0.0330049
-0.0354422
-0.0374539
-0.0336661
-0.0532608
-0.044465
-0.0670839
-0.0616299
-0.0641164
-0.0683528
-0.0523852
-0.0584478
-0.0473306
-0.0681618
-0.0677749
-0.0645405
-0.0370576
-0.202169
-0.145189
-0.171183
-0.173909
-0.0555376
-0.0867852
-0.0498686
-0.0406179
-0.0618443
-0.0568734
-0.0311349
-0.0319317
-0.0502117
-0.0388358
-0.0267697
-0.0205772
-0.0434424
-0.0456765
-0.177877
-0.0860616
-0.0659175
-0.133292
-0.109327
-0.165437
-0.154352
-0.144656
-0.161602
-0.0916571
-0.119042
-0.0483625
-0.0673955
-0.0245992
-0.0345623
-0.0139598
-0.0177811
-0.0161463
-0.0135023
-0.024758
-0.0206958
-0.0232941
-0.0259056
-0.00873272
-0.0164409
-0.00155377
-0.00328732
-0.213205
-0.155976
-0.196776
-0.171003
-0.202068
-0.0988881
-0.133666
-0.0521021
-0.0722178
-0.0290912
-0.0382761
-0.0208978
-0.0236947
-0.0226036
-0.0205327
-0.0337521
-0.027314
-0.0445062
-0.0401178
-0.0434321
-0.0458311
-0.0349511
-0.0390999
-0.0320301
-0.0624016
-0.0639248
-0.0575184
-0.122463
-0.105841
-0.0184137
-0.00248445
-0.164575
-0.117744
-0.0302536
-0.0492285
-0.0173367
-0.0193194
-0.129001
-0.0681113
-0.0609794
-0.0803974
-0.0367067
-0.0198878
-0.00563388
-0.0347099
-0.144696
-0.0379936
-0.0194819
-0.0273794
-0.0699327
-0.0518844
-0.113695
-0.0910058
-0.143069
-0.132935
-0.123679
-0.139688
-0.0739392
-0.0996283
-0.0330987
-0.0511867
-0.00937642
-0.0195765
0.00350488
-0.00173684
0.00579398
0.00599362
0.00164095
0.0037118
0.00454808
0.00166489
0.0130436
0.00885322
0.0137126
0.0145568
0.00704816
0.0111957
-0.129899
-0.0346161
-0.0809487
-0.17826
-0.166585
-0.135253
-0.164625
-0.0747693
-0.103604
-0.0359811
-0.0525264
-0.016578
-0.0244121
-0.0089849
-0.0117575
-0.00873932
-0.00798282
-0.0158672
-0.0115325
-0.0237323
-0.0204807
-0.023177
-0.0239212
-0.0184271
-0.0208517
-0.0171321
-0.0274826
0.00105445
-0.0117485
0.000664643
-0.0395778
-0.0230077
-0.0551837
-0.0469409
-0.0633798
-0.0607513
-0.0595408
-0.0629656
-0.0445746
-0.0532276
-0.0238198
-0.0345551
-0.0133266
-0.125107
-0.091684
-0.0912052
-0.0556978
-0.0490982
-0.0349086
0.0269434
-0.00249156
-0.0248802
-0.00868992
-0.021728
-0.0086704
-0.0033544
-0.11169
-0.0244535
-0.0155283
-0.0511834
-0.0363138
-0.0893553
-0.0696686
-0.114738
-0.106035
-0.0966694
-0.111309
-0.0524963
-0.0751848
-0.016046
-0.032345
0.00626118
-0.00351779
0.0197108
0.0139449
0.0244669
0.023215
0.023526
0.0240691
0.0261962
0.0241715
0.0291384
0.0283351
0.0258294
0.0281089
0.0180301
0.0225645
0.00297009
0.0116465
-0.00651614
0.0579996
0.0306145
-0.0962594
-0.0519667
-0.132358
-0.126442
-0.0959331
-0.119887
-0.0490968
-0.0708413
-0.0196653
-0.0322774
-0.00433471
-0.0106349
0.0021759
-0.000305915
0.00349237
0.00341533
-0.000481055
0.0021376
-0.0060704
-0.0036071
-0.00648706
-0.00687656
-0.00348234
-0.00510484
-0.00460253
-0.00323183
-0.0117696
-0.00719211
-0.0174959
-0.0640623
-0.0467213
-0.0571232
-0.0683248
-0.0679578
-0.0596275
-0.0654102
-0.0415534
-0.0514732
-0.0192624
-0.0305848
0.0473619
0.0784519
-0.0220788
-0.00839794
0.000845001
-0.00864622
-0.0928639
-0.0728462
-0.063318
-0.0498469
-0.0256832
-0.0381537
0.0175011
-0.035071
0.0948335
0.0645366
-0.0370983
-0.0228436
-0.0402084
0.113981
0.108029
0.12398
-0.0411292
-0.00832277
-0.0221182
0.00931753
0.00408384
0.0119676
-0.0860115
0.00162126
0.00603685
-0.0108901
-0.00377442
-0.0323501
-0.0202565
-0.0627823
-0.0470329
-0.0831701
-0.0763033
-0.0665205
-0.0796882
-0.0289499
-0.0479197
0.00101996
-0.0124665
0.0206417
0.011817
0.0334802
0.0278437
0.0393011
0.037262
0.0406726
0.0401036
0.0422165
0.0415029
0.0407567
0.042116
0.0353633
0.0383473
0.0269446
0.0316278
0.0129003
0.0208021
0.00338912
0.0801032
0.0996018
0.0175306
0.0530858
-0.0590441
-0.0231524
-0.0840103
-0.0806658
-0.0567505
-0.0733729
-0.0249336
-0.0396848
-0.00440981
-0.0133257
0.00695241
0.00218096
0.0121806
0.0101298
0.0138962
0.0133884
0.0121787
0.0135056
0.00846534
0.0102487
0.00765245
0.00757054
0.00899712
0.00844132
0.00676744
0.00846349
-0.00114155
0.00362277
-0.00706943
-0.0610688
-0.0493402
-0.0764875
-0.0708021
-0.0766131
-0.0785263
-0.0626892
-0.0711133
-0.0406598
-0.0522394
-0.0167653
-0.0286375
-0.00561308
-0.070143
-0.0619348
-0.0433265
-0.0499947
-0.00724318
-0.0477115
0.0340583
-0.0522819
0.0791329
-0.0594154
0.129225
0.1178
-0.0638199
-0.0378835
-0.0629495
0.127873
0.129174
0.125232
-0.0547229
-0.0182893
-0.0297848
0.00655639
0.0148278
0.0169302
0.01907
-0.0692992
0.0111768
0.0146838
0.00173407
0.00713538
-0.0142597
-0.00520998
-0.0367496
-0.025114
-0.0517636
-0.0468085
-0.0366866
-0.0482967
-0.00522119
-0.0207622
0.0177087
0.00751389
0.0335416
0.0261811
0.0448868
0.0398149
0.0509286
0.048535
0.0532192
0.0523504
0.0528454
0.0535127
0.048864
0.0512482
0.0426107
0.0459362
0.0340538
0.0386909
0.0212176
0.0281562
0.00375215
0.0130405
-0.00689736
0.119272
0.125832
0.0907087
0.107774
0.0369716
0.0668973
-0.020602
0.005482
-0.0379209
-0.0349174
-0.0227763
-0.0320844
-0.00408436
-0.012946
0.0090308
0.00320871
0.016899
0.0135102
0.0208481
0.0192635
0.022483
0.0218638
0.0221624
0.0226209
0.0199721
0.0211564
0.0189395
0.0191663
0.0191187
0.0191305
0.0164488
0.0183589
0.00870306
0.013188
0.0025448
-0.0518218
-0.0352088
-0.0790788
-0.0666144
-0.0930675
-0.0884161
-0.0885447
-0.0929659
-0.0690512
-0.0802582
-0.0423893
-0.0560322
-0.0159729
-0.0288807
-0.00398837
-0.0553159
-0.0579369
-0.0292861
-0.0576122
0.00638278
-0.0656887
0.0468192
-0.078674
0.0913224
-0.0902461
0.123404
-0.0941791
0.118266
0.123871
-0.0876798
-0.0400118
-0.0709861
0.0200765
-0.0601136
0.023784
0.025606
0.0256323
0.0195991
0.0221236
0.0128216
0.0166856
0.00184436
0.00813894
-0.0131859
-0.0054029
-0.0230647
-0.0199116
-0.0100273
-0.0198567
0.0165152
0.00347586
0.0341942
0.0266218
0.0458593
0.0403515
0.0547683
0.0507202
0.0599366
0.057821
0.0614698
0.0611129
0.0593445
0.0611143
0.0543563
0.0570768
0.0479021
0.051295
0.0395168
0.0440194
0.0281731
0.0342096
0.0136345
0.0213032
-0.00311866
0.00548748
-0.018451
-0.011314
0.121803
0.110432
0.117968
0.117125
0.121496
0.094816
0.108339
0.0548035
0.0765753
0.014714
0.0327018
-0.000935275
0.00336723
0.00361628
6.22535e-05
0.0127572
0.0081748
0.0203163
0.0168523
0.0253389
0.0231157
0.0281263
0.0269789
0.0294301
0.0288944
0.0297612
0.0297465
0.0287342
0.0293972
0.0276372
0.0280865
0.0270089
0.0273737
0.0243254
0.0260408
0.0172118
0.0213259
0.00554445
0.0117983
-0.00148007
-0.0696432
-0.0306605
-0.0503368
-0.0996406
-0.0861685
-0.112659
-0.108931
-0.103352
-0.110459
-0.0779896
-0.0920832
-0.0462253
-0.0622887
-0.0166389
-0.0307662
0.00715745
-0.00395687
0.0237325
0.0165182
0.107137
0.0995957
-0.0480836
-0.0233389
-0.0474822
-0.0618518
0.00323951
-0.0218482
-0.0746816
0.0320817
0.0266114
0.0328992
0.0141598
-0.0946561
0.0562838
-0.116336
0.101511
-0.130704
0.122891
-0.130295
0.113493
-0.113102
0.0854635
0.0920802
-0.083907
-0.0519624
-0.0255181
-0.0586614
0.0294873
0.0308788
0.0266553
0.0282762
0.0222379
0.024663
0.015397
0.0190342
0.00666653
0.011141
0.00160132
0.00297003
0.0123054
0.00456762
0.0343786
0.0233257
0.0490826
0.0429902
0.0572368
0.0535357
0.0630321
0.0604133
0.0661982
0.0649713
0.0662136
0.0666286
0.0631219
0.0648123
0.0580655
0.0607821
0.0517274
0.0550499
0.0437896
0.0479984
0.0337952
0.0390221
0.0217108
0.0278857
0.00851667
0.0150315
-0.0025121
0.0025793
-0.00736686
-0.00581072
0.102335
0.0792007
0.0920199
0.114171
0.109745
0.112512
0.115193
0.0969146
0.106517
0.0690885
0.0841072
0.0399888
0.0535615
0.0249408
0.0304844
0.0228373
0.0228406
0.0258196
0.024065
0.029455
0.0276954
0.0322804
0.0309875
0.0340587
0.0333006
0.0349658
0.0345851
0.035423
0.0352526
0.035116
0.0353934
0.0341677
0.034683
0.0330319
0.0336482
0.0304044
0.0319603
0.02454
0.0278317
0.0150857
0.0202493
0.0093034
-0.0436125
-0.0219918
-0.0871756
-0.0659473
-0.12086
-0.106007
-0.132833
-0.130234
-0.118653
-0.128517
-0.0874591
-0.104403
-0.0507557
-0.0691715
-0.0176475
-0.0332822
0.00801708
-0.00393887
0.0181281
0.0682798
0.063927
-0.0247295
-0.00715784
-0.0481024
-0.0756281
0.0360982
0.037205
-0.0220712
-0.103325
0.0170913
-0.136575
0.0646912
-0.165603
0.108283
-0.178591
0.116039
-0.168341
0.0979135
-0.134252
0.0729492
-0.0905743
0.046807
0.0485107
-0.0508512
0.0457237
0.0298869
0.0279919
-0.00934538
-0.0212122
-0.00521439
-0.0668047
0.0341313
0.0354059
0.0323335
0.0333547
0.0297541
0.0311757
0.026151
0.0280371
0.0222439
0.0241263
0.0213344
0.0210212
0.0303559
0.0243191
0.0477509
0.0388641
0.0602081
0.0550411
0.065913
0.0635765
0.0689256
0.0676398
0.0700861
0.0697579
0.0688913
0.0698087
0.0654101
0.0673259
0.060421
0.0630666
0.0543436
0.0575153
0.0470279
0.0508561
0.0382869
0.0428307
0.0281585
0.033362
0.0175744
0.0227401
0.00899825
0.0126791
0.00527548
0.00652141
0.00621726
0.00531603
0.073839
0.0604791
0.0946648
0.085292
0.106093
0.101653
0.107003
0.10791
0.0968051
0.103286
0.0773344
0.087915
0.0554884
0.0660355
0.0416157
0.0474035
0.0362343
0.0381021
0.0355781
0.0355562
0.0365986
0.0360057
0.0378236
0.0372274
0.0387634
0.038343
0.0393015
0.0390738
0.0396249
0.0394828
0.0396025
0.0396855
0.0389251
0.0393496
0.0376354
0.0383559
0.0350826
0.0365666
0.0302084
0.0329782
0.0229909
0.0268203
0.0141081
0.018934
0.0093259
-0.0548551
-0.0311017
-0.102355
-0.0789897
-0.139479
-0.1235
-0.150187
-0.148746
-0.131443
-0.143893
-0.0951815
-0.114563
-0.0545188
-0.0747533
-0.0185881
-0.0354967
0.00871599
-0.00388823
0.026547
0.0192359
0.037293
0.031901
-0.0579648
-0.100712
0.00786338
-0.00232462
0.0404423
0.0385753
0.0400025
0.014716
0.0156956
-0.0281101
-0.144918
0.0189997
-0.190558
0.0742069
-0.22193
0.108103
-0.226441
0.100734
-0.198481
0.07726
-0.145157
0.0501764
-0.0892649
0.0132403
0.0181957
0.00437615
-0.00368566
0.0263372
-0.045006
0.00797867
0.0352582
0.0170024
0.0376502
-0.0853861
0.0395287
0.0400134
0.0380588
0.0386885
0.0368782
0.0373986
0.0356413
0.0362571
0.0343196
0.0349421
0.033667
0.0338163
0.0357823
0.0341746
0.0440195
0.0390414
0.0572157
0.0504797
0.0670868
0.062939
0.0711375
0.0696504
0.0723721
0.0719572
0.0721615
0.0724495
0.0702348
0.0714293
0.066645
0.0685987
0.0618331
0.0643637
0.0560978
0.059078
0.049398
0.0528707
0.041729
0.0456762
0.0332647
0.0375752
0.0246536
0.0288893
0.0178064
0.020815
0.0145432
0.0156317
0.0143326
0.0453666
0.0320269
0.0693723
0.0578922
0.0876813
0.0794193
0.0986396
0.0941387
0.10088
0.100839
0.0943752
0.0986722
0.0805449
0.0881391
0.0641049
0.0722452
0.051865
0.0573046
0.0452677
0.0479444
0.0426571
0.043614
0.0420311
0.042198
0.0421373
0.0420406
0.0424128
0.0422735
0.0426196
0.0425305
0.0427432
0.0426891
0.0427219
0.0427679
0.0422379
0.042553
0.0410535
0.0417332
0.0387888
0.0400855
0.0348919
0.0370743
0.0297705
0.0323575
0.0237667
0.0267071
0.0204634
-0.0150063
0.00347062
-0.0617614
-0.037054
-0.113005
-0.087463
-0.151875
-0.135497
-0.161273
-0.16073
-0.138947
-0.153545
-0.0993583
-0.120285
-0.0563251
-0.077611
-0.0189592
-0.036394
0.00859649
-0.00402269
0.0262759
0.0189251
0.0308027
-0.0162241
0.0390483
0.00955584
0.0168275
-0.0745993
-0.137015
-0.0353267
-0.197353
0.0243928
-0.249321
0.000599443
0.0818484
-0.273766
0.0978742
-0.260336
0.0785494
-0.21019
-0.00891022
0.000729777
-0.00887298
-0.020954
0.0518238
-0.14131
-0.0201196
0.0241283
-0.0792921
-0.0126897
0.00214557
-0.0355784
0.0390298
0.0253575
0.0128239
0.0107913
0.0176539
0.0215321
-0.112684
0.0416841
0.0406221
0.0412719
0.0416558
0.0417931
0.0409181
0.0412638
0.040326
0.0405536
0.040067
0.0401487
0.0402566
0.0400655
0.0415887
0.0407109
0.0454174
0.0430887
0.0531673
0.0488034
0.0633497
0.0582553
0.070803
0.067665
0.0736631
0.0726928
0.0739654
0.0740072
0.0729858
0.0736237
0.070674
0.0720054
0.0671152
0.0689724
0.0625688
0.0649497
0.0572351
0.0599945
0.0511553
0.0542849
0.0444049
0.0478521
0.0372385
0.0408494
0.0302153
0.0336523
0.0246169
0.0271344
0.0217174
0.0228237
0.0214968
0.0212767
0.0230331
0.0221442
0.0181925
0.0244064
0.0237535
0.0226692
0.0114138
0.0453345
0.034135
0.0656679
0.0559211
0.0816635
0.0743013
0.0917516
0.0875282
0.0947465
0.094115
0.0906929
0.0935407
0.080791
0.0862929
0.0683052
0.0746471
0.057853
0.0626692
0.0511624
0.0540527
0.0476361
0.0490923
0.0460352
0.0466703
0.0453962
0.0456403
0.0451763
0.0452562
0.0450971
0.0451304
0.0450342
0.0450677
0.0449029
0.0449863
0.0444872
0.0447492
0.043491
0.0440693
0.0416905
0.0427181
0.0388805
0.0404404
0.0354623
0.0371827
0.0319831
0.0336938
0.0270594
0.0298985
0.0235104
-0.0177635
0.000800319
-0.0639658
-0.0391799
-0.11661
-0.0904727
-0.155068
-0.139024
-0.163843
-0.163446
-0.13911
-0.155792
-0.0990034
-0.120113
-0.0556606
-0.0770671
-0.0181877
-0.0351055
0.00851361
-0.00360983
0.0262911
0.0184141
0.0346372
0.0301782
0.0376235
-0.0931907
-0.1814
0.0251442
0.0301216
0.0313113
-0.038379
-0.251699
-0.0108035
0.033648
-0.299036
0.0823043
-0.304497
0.00284439
-0.0168234
-0.00476716
-0.00888672
-0.0224627
0.076361
-0.266759
-0.0311717
0.0499089
-0.198388
0.0183632
0.0113566
-0.0353712
0.0217209
-0.123409
-0.0332621
-0.0047195
-0.0624921
-0.0232452
0.0416352
0.0403591
0.0411298
0.0393113
0.0289093
0.0299977
0.0403104
-0.144587
0.042588
0.0421597
0.0429625
0.0428229
0.0428669
0.0429156
0.0428598
0.0428129
0.0432787
0.0429924
0.0444088
0.0437209
0.0468227
0.0454072
0.0513588
0.0487785
0.05846
0.0546201
0.0665831
0.062597
0.0723317
0.0699175
0.0744367
0.0737631
0.0742987
0.0745522
0.0729535
0.0737565
0.070523
0.0718736
0.0670782
0.0689006
0.0628213
0.0650384
0.0579082
0.0604402
0.0524226
0.0552303
0.0464879
0.049498
0.0403821
0.0434315
0.03461
0.0374117
0.0300142
0.0321078
0.0275717
0.0284626
0.0271913
0.0270902
0.0284354
0.0277087
0.0291872
0.00893176
0.00129822
0.0267182
0.0175251
0.0454948
0.0361586
0.0627043
0.0544044
0.0765435
0.0701343
0.0856094
0.08174
0.0889823
0.0880555
0.0865345
0.0884131
0.0793948
0.0834112
0.0698561
0.074929
0.0610915
0.0652224
0.0548314
0.057636
0.0510004
0.0526607
0.0488829
0.0497806
0.0477766
0.0482415
0.047206
0.0474465
0.0468934
0.0470304
0.04667
0.0467786
0.0464263
0.0465569
0.0460111
0.0462544
0.0452029
0.0456608
0.0439156
0.0446377
0.0421683
0.0431147
0.0402063
0.0412087
0.0382778
0.0393303
0.0343639
0.0364269
0.0307003
0.0110287
0.0274909
0.0202868
-0.0168811
-0.000432998
-0.0611989
-0.0371576
-0.111735
-0.0869214
-0.14793
-0.132821
-0.155517
-0.155642
-0.133165
-0.147631
-0.0943854
-0.114854
-0.0525478
-0.0731911
-0.0166341
-0.0333585
0.00916304
-0.00244884
0.0258777
0.0184774
0.0346447
0.0307275
0.0376355
0.0257871
0.0328299
-0.107549
-0.225132
-0.0251783
-0.0333444
-0.293482
-0.0108443
0.00132409
0.00214619
-0.0107314
0.0428029
-0.323744
-0.00628314
-0.0254761
0.0688012
-0.300388
-0.0388351
0.0454863
-0.242908
0.0180581
0.00392237
-0.0484831
0.0155467
-0.166357
0.0110047
-0.0527497
-0.0128335
-0.0942473
-0.0489983
-0.0355183
0.0408606
0.0292013
0.0265143
0.0345873
-0.173596
0.0421056
0.0410909
0.0414793
0.0431186
0.0426242
0.0437365
0.0434293
0.0441201
0.0439076
0.0445853
0.0443112
0.045493
0.0449645
0.0471835
0.0462162
0.0501108
0.0484631
0.0547542
0.0522033
0.0610877
0.0577454
0.0677117
0.0645041
0.0723355
0.0703818
0.0740507
0.0735098
0.0737737
0.0740895
0.0723256
0.0731711
0.069929
0.0712392
0.066671
0.0683945
0.0627255
0.0647727
0.0582361
0.0605416
0.0533084
0.0558189
0.0480923
0.0507223
0.0428662
0.0454571
0.0380863
0.0403861
0.0343523
0.0360532
0.0322958
0.0330835
0.0320691
0.0319951
0.0332248
0.0325072
0.0353478
0.0341108
0.0389205
0.0369083
0.0367976
0.0447504
0.0413809
0.00519239
0.00225951
0.0159455
0.00990444
0.030373
0.0228675
0.0457983
0.0380941
0.0602804
0.0532538
0.072211
0.066654
0.0802806
0.0768856
0.0837224
0.0826319
0.0823506
0.0835725
0.0770664
0.0801039
0.0697106
0.0733511
0.0625516
0.0660117
0.0569421
0.0595196
0.0531524
0.0548426
0.0508138
0.0518377
0.0494379
0.0500362
0.0486334
0.0489847
0.0481403
0.0483611
0.0477851
0.0479541
0.0474484
0.0476214
0.0470214
0.0472525
0.0463724
0.0467187
0.045524
0.0459759
0.0445567
0.0450513
0.0436629
0.0440729
0.0423014
0.0431123
0.0387577
0.0408137
0.03283
0.0361927
0.0309521
0.011762
0.0203034
-0.0138291
0.000639675
-0.0538652
-0.0320883
-0.0991651
-0.076974
-0.13212
-0.118219
-0.1398
-0.139478
-0.120955
-0.133224
-0.086169
-0.1047
-0.0477329
-0.0667725
-0.0142281
-0.0300016
0.0103525
-0.00072123
0.026133
0.0191895
0.0347658
0.0310917
0.0394365
0.03761
0.0404969
0.0400944
-0.0431726
-0.111205
-0.25534
0.0406177
0.0255935
0.00396454
-0.0091464
-0.0220672
-0.309144
0.0488191
0.0401486
-0.0164442
-0.0261666
0.0413078
-0.315039
0.0275286
-0.0436106
0.0385505
-0.266248
0.0173705
-0.00388791
-0.0588436
0.00696398
-0.194571
0.00964026
-0.0697635
-0.0248318
-0.121597
0.00327644
-0.0739835
-0.050768
-0.0624603
-0.0674146
0.0536717
0.0610879
0.0648322
0.00685049
0.0119481
-0.189693
0.041
0.0395061
0.0399967
0.0422141
0.041543
0.0432708
0.0427275
0.0441159
0.0436962
0.0448322
0.044456
0.0456646
0.0452178
0.0469194
0.0462265
0.0489266
0.0478121
0.0520365
0.0503274
0.0564934
0.0540995
0.0620617
0.0591711
0.0675711
0.0649272
0.0714172
0.0697744
0.072936
0.0724422
0.0726833
0.0729787
0.0712889
0.0721032
0.0690231
0.0702544
0.0659976
0.0675956
0.0623783
0.0642509
0.0583051
0.0603904
0.0538983
0.0561344
0.0493219
0.0516175
0.0448423
0.0470489
0.0408617
0.0427612
0.0378567
0.0392119
0.0362443
0.0368593
0.0362883
0.0360507
0.0375155
0.0367457
0.0400594
0.0385911
0.0443702
0.0419998
0.0509931
0.047235
0.0558302
0.0149409
0.0218022
0.0175491
0.0114789
0.0127779
0.0136999
0.0116408
0.0219225
0.017141
0.033539
0.0274435
0.0461998
0.0398013
0.0583946
0.0524689
0.0686823
0.0638601
0.0757558
0.0726579
0.0790281
0.0778759
0.078385
0.0791546
0.0745391
0.0767769
0.0687799
0.0717307
0.0628928
0.0657745
0.0579757
0.0602775
0.054404
0.056029
0.0520273
0.0530897
0.0505186
0.0511882
0.0495677
0.0499915
0.0489418
0.0492264
0.0484815
0.0486992
0.04807
0.0482765
0.0475829
0.0478475
0.0471046
0.047362
0.0465527
0.0468323
0.046053
0.0462954
0.0455945
0.0458539
0.0444231
0.0452255
0.0412148
0.0431543
0.0360891
0.0388966
0.0322695
0.0337538
0.0139263
0.0209131
-0.00854479
0.00419298
-0.0428953
-0.0242915
-0.0817121
-0.0626067
-0.111111
-0.0984721
-0.119592
-0.11833
-0.105249
-0.11492
-0.0759639
-0.0917837
-0.042127
-0.0590408
-0.0116367
-0.0261242
0.0115106
0.000990396
0.0265919
0.0199425
0.0349996
0.0314576
0.0395502
0.0375845
0.0401252
0.0394485
0.0403376
-0.00597023
-0.103365
-0.261299
0.0584623
0.063603
0.0694647
0.031258
0.0384614
0.0451773
-0.0268486
-0.0247338
-0.0144777
-0.293898
0.030008
-0.0452162
0.0192069
-0.272725
0.0170673
-0.0113475
-0.0656946
-0.00492307
-0.209157
0.0073276
-0.0834931
-0.0393765
-0.134536
-0.00436084
0.000718795
-0.0963919
-0.0710667
-0.0734346
-0.0993733
-0.0910555
0.0297336
0.00776376
-0.000724191
-0.188113
0.0406146
0.039954
0.0419287
0.0412775
0.0431069
0.0425453
0.0441593
0.0436594
0.0451355
0.0446478
0.0462426
0.0456653
0.047739
0.0469325
0.0499134
0.0487285
0.05303
0.0513454
0.0571892
0.05499
0.0620741
0.0595727
0.0667355
0.0645075
0.0700189
0.0685999
0.0714182
0.0709411
0.071252
0.0714938
0.0699885
0.0707337
0.0679006
0.0690355
0.0651362
0.0665958
0.0618469
0.0635457
0.0581751
0.0600505
0.0542509
0.056235
0.0502468
0.0522455
0.0464135
0.0482902
0.0431007
0.0446685
0.0407054
0.0417677
0.0395582
0.039963
0.0398236
0.0395229
0.0413759
0.0404245
0.0443273
0.0426275
0.0491663
0.0465269
0.0563008
0.0523732
0.0656304
0.0609602
0.0595848
0.0683818
0.0754261
0.0700737
0.0233871
0.0309791
0.0261688
0.019997
0.0213869
0.0208639
0.019746
0.02698
0.0233366
0.0362124
0.0313631
0.0466859
0.0413709
0.0569651
0.0519515
0.0656853
0.0615772
0.0718551
0.0691279
0.0749025
0.0737743
0.0747364
0.0751913
0.0718556
0.0735862
0.0673778
0.0697346
0.0625342
0.0649323
0.0582727
0.0602964
0.0549968
0.05651
0.0526869
0.0537355
0.0511339
0.0518339
0.0500975
0.0505665
0.0493789
0.0497096
0.0488342
0.0490928
0.0483644
0.0485947
0.0479051
0.0481356
0.0474775
0.0476905
0.0470921
0.0472756
0.0468029
0.0469391
0.0464411
0.0466698
0.0452647
0.046042
0.0423495
0.0440696
0.0380492
0.0403331
0.0341222
0.0358863
0.0266238
0.0301642
0.0169828
0.0225858
-0.00170962
0.00902177
-0.0302371
-0.014897
-0.0627717
-0.0466252
-0.0887281
-0.0773014
-0.0982503
-0.0958968
-0.0887478
-0.0956641
-0.0654901
-0.07832
-0.0366902
-0.0512879
-0.00939674
-0.022517
0.012271
0.00229236
0.026885
0.0203947
0.0350993
0.0317101
0.0388249
0.0373539
0.0397759
0.0394214
0.0396016
0.0525007
-0.0345167
-0.0217766
-0.0916639
-0.244717
0.0381333
0.0383886
0.0354049
-0.0438858
-0.0243988
-0.256259
0.0363215
0.0773654
0.0833136
0.0187368
0.0316254
0.0216376
-0.0167286
-0.0689014
-0.0249255
-0.216424
0.00529432
-0.0931311
-0.0598905
-0.144193
-0.0109059
-0.00355621
-0.114561
-0.0947404
-0.074428
-0.00804229
-0.129368
-0.12113
-0.0310337
0.053498
0.062817
-0.132615
0.0717155
-0.00731753
-0.0168494
-0.173469
0.0398529
0.039132
0.0413307
0.0406637
0.0426832
0.0420524
0.0439268
0.0433348
0.0451212
0.0445243
0.0464356
0.0457522
0.0481005
0.0472134
0.050357
0.0491442
0.0533974
0.0517753
0.0572394
0.0552312
0.0615502
0.0593699
0.0655451
0.0636385
0.0684059
0.0671561
0.0697113
0.0692467
0.0696377
0.0698211
0.0685304
0.0691921
0.0666413
0.0676715
0.0641403
0.0654584
0.0611751
0.0627053
0.0578853
0.0595622
0.0544075
0.0561601
0.0509174
0.0526511
0.0476504
0.0492396
0.0449112
0.0461952
0.0430371
0.0438482
0.0423153
0.0425219
0.0428737
0.0424381
0.0447073
0.0436327
0.048038
0.046143
0.0531913
0.0503446
0.0604922
0.0565349
0.0694902
0.0649364
0.0802382
0.0741569
0.0476683
0.040599
0.0536942
0.0384077
0.0452761
0.0306154
0.0336795
0.0270218
0.0284554
0.0268555
0.0263315
0.0313038
0.0285971
0.0386224
0.0347306
0.0472192
0.042843
0.0557886
0.0515871
0.0631738
0.0596811
0.068522
0.0661369
0.0713006
0.0702365
0.0714339
0.0716752
0.0693036
0.070597
0.0657523
0.0676402
0.0617518
0.0637526
0.0580748
0.0598415
0.0551127
0.056498
0.0529223
0.0539293
0.0513772
0.0520825
0.0502952
0.0507912
0.0495106
0.0498756
0.0488993
0.0491898
0.0483834
0.0486332
0.0479294
0.0481495
0.047534
0.0477246
0.0472218
0.0473658
0.0469758
0.0470982
0.0465452
0.046814
0.0452862
0.0460661
0.0425642
0.0440989
0.0387386
0.0406928
0.0348141
0.0366622
0.0310872
0.0328123
0.0276475
0.0299275
0.0295211
0.0200097
0.0245486
0.00501901
0.0136202
-0.0180059
-0.00561811
-0.0449365
-0.031431
-0.0677532
-0.0574392
-0.0783164
-0.0748994
-0.0734713
-0.0777404
-0.0560835
-0.0659888
-0.032218
-0.0445477
-0.00800285
-0.0198205
0.012278
0.00280003
0.0265724
0.0201694
0.0347761
0.0314194
0.0382328
0.0369239
0.0390402
0.0388759
0.0378016
0.038645
0.0371668
0.0436407
-0.0406845
-0.0911928
-0.217988
0.0372541
0.0878642
0.029665
0.0238446
0.0537891
0.0435645
0.0460354
0.0375626
-0.0159605
-0.0688704
-0.0607995
-0.213988
0.00551038
-0.0983559
-0.0883716
-0.161004
-0.014192
0.0640041
-0.00800718
-0.127527
-0.128787
-0.0847469
-0.0146195
-0.154462
-0.157759
-0.0238314
-0.0155533
-0.172798
-0.173033
0.0878523
-0.0258984
0.00748284
-0.00925088
0.0820734
-0.0358388
-0.160721
0.0389498
0.0380879
0.0405659
0.0398053
0.0420477
0.0413362
0.0434537
0.0427732
0.0448339
0.0441452
0.0463247
0.0455576
0.0481201
0.0471751
0.0504182
0.0491984
0.0533542
0.0518056
0.0568976
0.0550633
0.0607269
0.0588093
0.0642085
0.0625498
0.0667271
0.0656171
0.0679435
0.0674961
0.0679442
0.0680776
0.0669867
0.0675666
0.0652967
0.0662202
0.0630469
0.0642303
0.0603903
0.0617602
0.0574607
0.058951
0.0543976
0.0559361
0.051374
0.0528685
0.048611
0.0499452
0.0463765
0.0474111
0.0449616
0.0455512
0.0446189
0.0446475
0.0454766
0.0448968
0.0476078
0.0463797
0.0511858
0.0492033
0.0565151
0.0536086
0.0638805
0.0599443
0.0725993
0.068102
0.0837758
0.0776792
0.0961104
0.0987469
0.0909079
0.0926415
0.0586493
0.0529727
0.0586124
0.0674145
0.0634304
0.0447046
0.050994
0.0366395
0.0399733
0.0326308
0.034269
0.0318732
0.0317814
0.0349667
0.0330007
0.040706
0.0376095
0.0476993
0.0441217
0.0548175
0.0513082
0.0610618
0.0580973
0.065671
0.0636014
0.0681726
0.0671915
0.068481
0.0685829
0.0668927
0.0678836
0.0640531
0.0655777
0.0607273
0.0624056
0.0575516
0.0590927
0.0548882
0.0561471
0.0528348
0.0537894
0.0513228
0.0520209
0.0502167
0.0507294
0.0493824
0.049774
0.0487182
0.0490344
0.0481646
0.0484304
0.047699
0.0479219
0.0473152
0.0474971
0.0470174
0.0471569
0.0467299
0.0468831
0.0461703
0.0465106
0.0447989
0.0456171
0.0421774
0.0436346
0.0385239
0.0404264
0.0346546
0.0365556
0.0309721
0.032736
0.0294203
0.0285989
0.0278235
0.0283512
0.0275772
0.0283128
0.0222547
0.0256971
0.0107087
0.017332
-0.00744264
0.002397
-0.0295756
-0.0183364
-0.0497037
-0.040337
-0.0612293
-0.0568563
-0.0605289
-0.0624401
-0.0484384
-0.0556904
-0.0290855
-0.0393372
-0.00767447
-0.0183173
0.0113884
0.00234571
0.025468
0.0191084
0.0338805
0.0303997
0.0373919
0.0361061
0.0380772
0.0379655
0.0371954
0.0377705
0.0354485
0.0363865
0.0325742
0.0265972
-0.0299819
-0.00420285
0.0127687
-0.00415869
-0.0482116
-0.0660103
-0.115818
-0.199895
0.00971823
-0.0998769
-0.124433
-0.184589
0.105127
0.107171
-0.00994388
0.0758673
0.098565
0.094157
0.0627489
0.0707663
0.0263785
0.0270258
0.025476
0.0343216
0.0345423
0.03332
-0.0102653
-0.135447
-0.170674
-0.119149
0.0303307
0.0416515
-0.0224177
-0.172344
-0.211401
-0.0407835
-0.0198217
-0.024898
-0.0567563
-0.0255482
-0.206561
-0.22624
0.00885039
-0.224443
-0.0595816
-0.167825
0.0361775
0.0352468
0.0379384
0.037045
0.0396394
0.0388189
0.0412253
0.040443
0.042776
0.0420141
0.0443243
0.0435503
0.0459763
0.0451313
0.0478876
0.0468916
0.0502155
0.0489935
0.0530503
0.0515707
0.0563304
0.0546479
0.0597607
0.0580555
0.0628383
0.0613823
0.0650689
0.06408
0.0661893
0.0657683
0.0662349
0.0663329
0.0654047
0.065913
0.0638926
0.0647195
0.061879
0.0629377
0.0595092
0.0607295
0.0569164
0.0582321
0.0542388
0.0555787
0.0516434
0.0529194
0.0493352
0.0504401
0.0475533
0.0483642
0.0465513
0.0469415
0.0465516
0.0464181
0.0476915
0.0469757
0.0500787
0.0487234
0.0538818
0.051794
0.059357
0.0563938
0.066649
0.0628005
0.0754142
0.0708403
0.0866388
0.0806447
0.100814
0.0933763
0.102263
0.0609704
0.0471094
0.0545194
0.0704882
0.0661982
0.0769313
0.0739435
0.0497696
0.0556576
0.0416706
0.0451424
0.0372558
0.0390719
0.0360078
0.0362299
0.0380324
0.0366543
0.0424599
0.0400307
0.0481132
0.0452004
0.0540079
0.0510875
0.0592688
0.0567615
0.0632213
0.0614353
0.0654492
0.0645578
0.0658542
0.0658659
0.0646612
0.0654257
0.0623676
0.0636112
0.0595793
0.0609979
0.0568227
0.0581723
0.0544242
0.0555688
0.0525019
0.0534047
0.0510277
0.0517157
0.0499052
0.0504306
0.0490293
0.0494432
0.0483199
0.0486584
0.0477331
0.048013
0.0472524
0.0474808
0.0468649
0.0470478
0.0465517
0.046703
0.0461941
0.0463905
0.0455059
0.0459135
0.0440397
0.0448911
0.0414681
0.0428868
0.0379905
0.0397877
0.0341734
0.0360846
0.0304714
0.0322958
0.0287398
0.027628
0.0271807
0.0272477
0.0275731
0.0238658
0.0262
0.015303
0.0202721
0.00114346
0.0089013
-0.0170423
-0.00767043
-0.0349797
-0.0263782
-0.0473503
-0.0421583
-0.0502255
-0.0500918
-0.042853
-0.0477208
-0.0276347
-0.035973
-0.00880437
-0.0183773
0.00925369
0.000543069
0.0233432
0.0169145
0.0321862
0.0284554
0.0360415
0.0346299
0.0368614
0.0366707
0.0363291
0.0367345
0.0355294
0.0188061
0.0376521