/*--------------------------------*- C++ -*----------------------------------*\
  =========                 |
  \\      /  F ield         | OpenFOAM: The Open Source CFD Toolbox
   \\    /   O peration     | Website:  https://openfoam.org
    \\  /    A nd           | Version:  10
     \\/     M anipulation  |
\*---------------------------------------------------------------------------*/
FoamFile
{
    format      ascii;
    class       volScalarField;
    location    "1";
    object      p;
}
// * * * * * * * * * * * * * * * * * * * * * * * * * * * * * * * * * * * * * //

dimensions      [0 2 -2 0 0 0 0];

internalField   nonuniform List<scalar> 
33313
(
0.0028309
0.000509811
0.0208077
0.0168073
0.00834968
0.010877
0.0153607
0.0197303
0.0141241
0.00510882
0.00428232
-0.311827
-0.291511
-0.33146
-0.0131603
-0.0283675
-0.0101841
-0.284868
-0.397481
-0.278239
-0.196646
0.802536
0.717002
0.865576
0.871517
0.296597
0.300442
0.302183
0.310302
0.303341
0.315884
0.320493
0.346794
-0.69491
-0.725606
-0.707018
-0.674964
0.132449
0.129767
-0.159327
-0.119118
0.325545
0.313315
-0.635922
-0.598023
-0.662573
0.751128
0.83431
-0.0117676
-0.0133779
0.314107
0.339746
0.318171
0.365715
0.107888
0.137523
0.408129
0.538369
0.453569
0.358018
0.419383
0.863961
0.93116
0.960632
-0.036077
-0.0735173
0.0824401
-0.0746451
-0.0629802
0.1459
0.153325
0.148645
-0.646489
-0.21929
0.157917
0.124995
-0.0346575
0.0185228
-0.114706
-0.159475
0.582306
0.571634
0.593455
-0.309468
-0.378083
-0.557662
-0.734333
-0.724591
-0.699958
0.948959
-0.0686838
-0.114146
-0.234423
-0.246605
-0.122581
0.30282
0.289775
0.00967674
0.00103704
-0.128916
-0.13352
-0.201649
-0.14704
-0.168763
-0.198966
-0.747026
-0.818655
-0.786098
-0.721552
-0.123405
0.0970309
0.0339356
-0.120363
-1.02549
-1.17593
-0.941465
0.935455
0.891584
-0.150794
-0.115433
-0.498112
-0.50831
-0.466289
-0.0330604
-0.0236802
-0.0575872
0.320661
0.116109
0.116513
0.0169627
0.081622
-0.227691
-0.272937
0.0568291
0.0389659
-0.122202
-0.0308728
-0.145198
-0.0480158
0.190252
0.0703118
0.314487
0.116659
0.116524
0.115604
0.157067
0.154422
0.153454
0.151349
0.34729
0.328696
0.358696
0.344591
0.462171
0.465919
0.437226
0.440332
0.108459
0.156675
0.140467
-0.30779
0.0479747
0.0936654
0.238078
0.11345
-0.140356
-0.18827
-0.174032
-0.792639
-4.55778e-05
0.00053832
0.168494
0.167372
0.161581
0.160155
0.293705
0.277135
-0.050284
0.00662838
0.112601
0.113277
0.14195
0.139876
0.196488
0.199597
0.112534
0.120181
0.0565893
0.0897728
0.0630884
0.174381
0.568323
0.544263
0.124353
0.144751
0.4387
0.452987
0.449432
0.383106
0.397366
0.38182
0.590897
0.568055
0.250441
0.256221
-0.460801
-0.541213
-0.241556
-0.375941
0.269044
0.263726
0.00381916
0.00613046
0.00442042
0.00327784
-0.0204932
-0.15274
-0.195465
0.376165
0.381145
0.362435
0.355749
-0.0897116
-0.0720008
-0.0648046
0.198358
0.221275
0.194765
-0.63217
-0.621855
-0.638919
-0.159562
-0.123429
0.170217
0.164879
0.163593
-0.739826
0.289273
0.0812763
0.0804147
0.0795613
0.0788086
0.0780012
0.0772119
0.0763981
0.0755732
0.074748
0.0739303
0.0731192
0.0723073
0.0714968
0.0706831
0.0698705
0.0690587
0.0682466
0.0674362
0.0666283
0.0658192
0.0650129
0.0642092
0.0634066
0.0626069
0.0618102
0.0610172
0.0602318
0.0594199
0.0586403
0.0578031
0.0569866
0.0561783
0.0813065
0.0822091
0.0821685
0.0821278
0.0545546
0.0553512
0.0570044
0.0553816
0.0562048
0.0585954
0.0577902
0.0602301
0.0594183
0.0618401
0.0610351
0.0634472
0.0626416
0.0650572
0.0642501
0.0666694
0.0658615
0.0682847
0.0674754
0.0699022
0.0690924
0.0715336
0.0707135
0.0731577
0.0723435
0.0747869
0.0739714
0.0764219
0.0756035
0.0780847
0.0772465
0.0796638
0.0788641
0.0804453
0.0829824
0.0829876
0.0546076
0.0829525
0.0538334
0.0537897
0.0837592
0.0837612
0.0538553
0.0546001
0.0837623
0.0537924
0.0845686
0.0845637
0.0845428
0.0820664
0.08375
0.0829109
0.0804573
0.0812425
0.0788022
0.0796443
0.0771755
0.0779872
0.0755325
0.076356
0.073893
0.0747106
0.0722649
0.0730777
0.0706379
0.0714517
0.0690127
0.0698243
0.0673931
0.0682024
0.0657755
0.0665817
0.0641686
0.0649727
0.0625632
0.063366
0.060956
0.0617592
0.059368
0.0601429
0.0577896
0.0585719
0.0561818
0.0569874
0.0553925
0.0530836
0.0529974
0.053043
0.0554642
0.0538726
0.0546891
0.0570135
0.0562233
0.0586091
0.0578214
0.0602264
0.0594148
0.0618363
0.061032
0.063444
0.06264
0.0650544
0.0642489
0.066668
0.065861
0.068284
0.0674761
0.0699039
0.069094
0.0715202
0.0707135
0.0731589
0.0723419
0.0747916
0.073975
0.0764245
0.0756083
0.0780821
0.0772469
0.0797337
0.0789139
0.081299
0.0805178
0.0829769
0.082142
0.0846018
0.0838063
0.0530882
0.0845804
0.0853698
0.0854101
0.0522355
0.0529818
0.0522129
0.0853637
0.053876
0.0530731
0.0530713
0.0853995
0.0853515
0.0837444
0.0854057
0.0845801
0.0820669
0.0828938
0.0804736
0.0812698
0.0788021
0.0796499
0.0771558
0.0779716
0.0755213
0.0763399
0.0738864
0.0747034
0.0722582
0.0730711
0.070631
0.0714445
0.0690085
0.0698191
0.0673893
0.0681986
0.0657801
0.0665835
0.0641683
0.0649724
0.0625601
0.0633634
0.0609521
0.0617562
0.0593584
0.0601462
0.0577811
0.0585597
0.0561902
0.0569844
0.0545954
0.0553948
0.0537803
0.0522934
0.052268
0.052288
0.0523003
0.0554802
0.0546907
0.0570347
0.0562589
0.0586302
0.0578283
0.0602324
0.0594294
0.0618399
0.0610361
0.0634479
0.0626436
0.0650582
0.0642527
0.0666717
0.0658646
0.0682884
0.0674798
0.0699083
0.069098
0.0715306
0.0707191
0.0731625
0.0723465
0.0747959
0.0739788
0.0764306
0.0756133
0.0780755
0.0772505
0.0797405
0.0789072
0.0813631
0.0805608
0.0830015
0.0821725
0.0846495
0.0838298
0.0862091
0.0862662
0.0854589
0.0862143
0.0862283
0.0861815
0.086185
0.0522827
0.0870704
0.0870242
0.051471
0.0514418
0.0529755
0.0870239
0.0870487
0.0521955
0.0861689
0.085401
0.0870519
0.0862222
0.0837359
0.0845728
0.0820852
0.0829098
0.0804631
0.0812757
0.0787887
0.0796317
0.0771434
0.0779607
0.0755104
0.0763277
0.0738758
0.0746928
0.0722466
0.0730604
0.0706212
0.0714336
0.0689986
0.0698095
0.0673783
0.0681885
0.065767
0.0665728
0.0641565
0.0649614
0.0625493
0.0633526
0.0609461
0.0617471
0.0593545
0.0601476
0.0577681
0.0585611
0.0561769
0.0569716
0.0545827
0.0553851
0.0537793
0.0515092
0.0514937
0.0515056
0.0515142
0.0538795
0.0522914
0.0530776
0.0554733
0.0546807
0.0570517
0.056264
0.0586374
0.0578386
0.0602384
0.0594374
0.0618436
0.0610407
0.0634514
0.0626472
0.065062
0.0642564
0.0666756
0.0658684
0.0682925
0.0674837
0.0699127
0.0691022
0.0715369
0.0707242
0.073167
0.0723515
0.0748009
0.0739835
0.0764378
0.075619
0.0780804
0.0772582
0.0797353
0.078906
0.081387
0.0805635
0.0830308
0.0822083
0.084687
0.0838632
0.0863246
0.0855063
0.08788
0.0879319
0.0871302
0.0515007
0.087851
0.0878699
0.0869938
0.0870004
0.0514176
0.0887566
0.0880006
0.0888142
0.0878258
0.087842
0.0886901
0.0886528
0.0522938
0.0515015
0.0515037
0.0886806
0.0869978
0.0870431
0.0887162
0.0878744
0.0853927
0.0862172
0.0837359
0.0845643
0.082085
0.0829116
0.0804364
0.0812613
0.0787761
0.0796071
0.077132
0.0779511
0.0754972
0.0763147
0.0738629
0.0746797
0.0722337
0.0730476
0.0706085
0.0714208
0.0689868
0.0697971
0.0673716
0.0681781
0.0657557
0.0665626
0.0641454
0.0649501
0.0625391
0.0633418
0.0609376
0.0617376
0.0593425
0.060139
0.0577522
0.0585473
0.0561622
0.0569574
0.0545752
0.0553668
0.0529799
0.0537741
0.0514017
0.0521892
0.0507001
0.0506499
0.0506755
0.0507399
0.0507224
0.0507318
0.05074
0.0507131
0.0507241
0.0538867
0.0530873
0.055471
0.0546788
0.0570553
0.0562634
0.058643
0.0578471
0.0602424
0.0594421
0.0618464
0.061044
0.0634538
0.0626497
0.0650644
0.0642587
0.0666782
0.0658709
0.0682953
0.0674864
0.0699159
0.0691052
0.0715409
0.0707278
0.0731703
0.0723551
0.0748042
0.0739867
0.0764424
0.0756228
0.0780856
0.0772635
0.0797345
0.0789092
0.0813894
0.0805611
0.0830498
0.0822194
0.084709
0.083882
0.0863576
0.085536
0.08718
0.0895787
0.0896415
0.0506227
0.0895061
0.0895223
0.0878168
0.0878293
0.0507156
0.0886352
0.0886698
0.0894778
0.0895189
0.0904712
0.0904054
0.0903141
0.0513934
0.0506084
0.0903335
0.087822
0.0887027
0.0903666
0.0895295
0.0870397
0.0878705
0.0853854
0.0862113
0.0837289
0.0845599
0.082068
0.0828982
0.0804138
0.0812399
0.0787627
0.0795883
0.0771188
0.0779392
0.0754824
0.0763003
0.0738488
0.0746651
0.0722199
0.0730338
0.0705952
0.0714072
0.0689743
0.0697843
0.0673578
0.0681656
0.0657436
0.0665502
0.0641337
0.0649381
0.0625279
0.0633303
0.0609266
0.0617266
0.0593302
0.0601276
0.0577389
0.0585341
0.0561488
0.0569439
0.0545608
0.0553547
0.0529807
0.0537656
0.0521885
0.049881
0.0498212
0.0498465
0.0499323
0.0499127
0.04997
0.0499596
0.0499561
0.0499635
0.0499411
0.0499469
0.0499363
0.0522992
0.0507164
0.0515067
0.0538866
0.0530946
0.0554703
0.0546787
0.0570562
0.0562628
0.0586469
0.0578506
0.060245
0.0594452
0.0618483
0.0610462
0.0634554
0.0626514
0.0650659
0.0642603
0.0666798
0.0658725
0.0682972
0.0674881
0.0699181
0.0691072
0.0715433
0.0707302
0.0731726
0.0723575
0.0748063
0.0739889
0.0764448
0.0756249
0.0780884
0.0772661
0.0797362
0.0789119
0.081389
0.0805616
0.0830525
0.0822194
0.0847206
0.0838872
0.0863808
0.0855499
0.0880496
0.0872146
0.0897127
0.0888822
0.0913027
0.0913706
0.0905462
0.0911643
0.0911716
0.0886416
0.0886666
0.0921989
0.0921389
0.0894679
0.0895086
0.0903063
0.090363
0.0490477
0.0498011
0.049024
0.0911452
0.091241
0.0919887
0.0499278
0.091988
0.0886538
0.0903597
0.0919931
0.0911815
0.0886968
0.0895328
0.0870333
0.0878627
0.0853738
0.0862052
0.0837085
0.0845418
0.0820469
0.0828766
0.0803944
0.0812195
0.0787467
0.0795704
0.0771031
0.0779239
0.0754663
0.0762841
0.0738337
0.0746495
0.0722053
0.073019
0.070581
0.0713927
0.0689605
0.0697703
0.0673438
0.0681517
0.0657304
0.0665367
0.0641208
0.0649251
0.0625152
0.0633175
0.0609139
0.061714
0.0593173
0.060115
0.0577251
0.0585208
0.0561357
0.0569301
0.054549
0.0553419
0.0529717
0.0537572
0.0513908
0.0521798
0.0505949
0.0491121
0.0490823
0.0491645
0.0491387
0.049188
0.0491802
0.0491822
0.0491887
0.0491703
0.0491768
0.0507162
0.0499258
0.0491487
0.0491555
0.0523049
0.05151
0.0538853
0.0530937
0.0554692
0.0546771
0.0570562
0.0562622
0.0586484
0.0578515
0.0602463
0.0594467
0.0618492
0.0610473
0.0634561
0.0626522
0.0650666
0.0642609
0.0666805
0.0658731
0.0682981
0.0674889
0.0699192
0.0691082
0.0715444
0.0707313
0.0731738
0.0723586
0.0748073
0.0739901
0.0764457
0.0756259
0.0780891
0.0772668
0.0797372
0.0789127
0.0813895
0.0805626
0.0830508
0.0822188
0.0847213
0.0838854
0.0863925
0.0855569
0.0880675
0.0872273
0.0897522
0.0889118
0.0914162
0.0905808
0.0930185
0.0930989
0.0922579
0.0928214
0.0928266
0.0929798
0.0938484
0.0939152
0.0894777
0.0895054
0.090307
0.0903579
0.0482832
0.0482552
0.091145
0.0912155
0.091995
0.0920774
0.0928271
0.0491452
0.0936692
0.093664
0.0938139
0.0946747
0.0947252
0.0945023
0.0936683
0.0497837
0.0490029
0.0945138
0.0894953
0.0919946
0.092828
0.0903558
0.0911776
0.0886876
0.0895209
0.0870169
0.0878511
0.0853487
0.0861831
0.0836835
0.0845154
0.0820254
0.0828535
0.0803746
0.0811992
0.0787281
0.0795511
0.0770856
0.0779061
0.0754494
0.0762668
0.0738175
0.074633
0.0721896
0.073003
0.0705657
0.0713772
0.0689455
0.0697552
0.0673291
0.0681369
0.0657161
0.0665222
0.0641068
0.064911
0.0625015
0.0633037
0.0609002
0.0617003
0.0593034
0.0601013
0.0577106
0.0585066
0.0561212
0.0569156
0.0545358
0.0553278
0.0529588
0.0537453
0.0513802
0.052169
0.0505839
0.0483424
0.0483111
0.0483871
0.0483702
0.0484049
0.0483971
0.0484127
0.0484105
0.0483931
0.0484128
0.0483736
0.0483866
0.094766
0.0955537
0.0955996
0.0483609
0.0507181
0.0491378
0.0499272
0.0523013
0.051512
0.0538826
0.0530916
0.0554671
0.0546745
0.0570552
0.0562607
0.0586482
0.0578511
0.0602463
0.0594467
0.0618491
0.0610472
0.0634558
0.062652
0.0650663
0.0642607
0.0666803
0.0658729
0.068298
0.0674887
0.0699192
0.0691081
0.0715445
0.0707314
0.0731737
0.0723586
0.0748072
0.07399
0.0764453
0.0756257
0.0780882
0.0772662
0.079736
0.0789116
0.0813885
0.0805617
0.0830478
0.0822172
0.0847151
0.0838805
0.086389
0.0855514
0.0880678
0.0872272
0.0897529
0.0889117
0.0914373
0.0905927
0.093112
0.0922755
0.0939431
0.0903258
0.0903511
0.0482296
0.0911616
0.0912093
0.0920005
0.0920708
0.0928395
0.0929211
0.0936654
0.0945016
0.0953474
0.0953436
0.0946575
0.0955085
0.0964316
0.0963902
0.0483547
0.0961788
0.0953478
0.0491358
0.0483484
0.0961799
0.0903382
0.0936645
0.0944966
0.0919942
0.0928175
0.0903403
0.0911644
0.0886655
0.0895031
0.0869885
0.0878259
0.0853202
0.0861536
0.0836585
0.0844886
0.0820031
0.0828301
0.0803532
0.0811776
0.0787079
0.0795301
0.0770669
0.0778867
0.0754314
0.0762486
0.0738001
0.0746153
0.0721728
0.072986
0.0705494
0.0713606
0.0689296
0.0697391
0.0673135
0.0681211
0.0657008
0.0665067
0.0640918
0.0648959
0.0624867
0.0632888
0.0608855
0.0616856
0.0592883
0.0600864
0.0576952
0.0584913
0.0561057
0.0569001
0.0545204
0.0553125
0.0529398
0.0537296
0.0513656
0.0521507
0.049779
0.0505684
0.048207
0.0489897
0.0475245
0.0474615
0.0474905
0.0475765
0.0475541
0.0476092
0.0475977
0.047626
0.0476178
0.0476364
0.0476324
0.0476279
0.0476378
0.0476037
0.047618
0.0475767
0.0475911
0.0507199
0.0499286
0.052297
0.0515066
0.0538788
0.0530875
0.055464
0.054671
0.0570531
0.0562581
0.0586467
0.0578493
0.0602451
0.0594453
0.0618478
0.061046
0.0634546
0.0626508
0.0650651
0.0642594
0.0666792
0.0658717
0.0682968
0.0674876
0.0699182
0.0691071
0.0715434
0.0707304
0.0731725
0.0723575
0.0748059
0.0739887
0.0764437
0.0756242
0.078086
0.0772643
0.0797333
0.0789091
0.0813856
0.0805588
0.0830438
0.082214
0.0847083
0.0838753
0.0863796
0.0855431
0.0880582
0.0872179
0.0897422
0.0889002
0.0914337
0.0905862
0.0931187
0.0922772
0.0948111
0.0939617
0.0964647
0.0956408
0.0972615
0.0972754
0.0474355
0.0911819
0.0912014
0.047569
0.0920208
0.0920647
0.0928564
0.0929229
0.0936832
0.0937823
0.094519
0.0953483
0.0961846
0.0970134
0.0970182
0.0955094
0.0963595
0.0972363
0.0981029
0.0981255
0.0978477
0.0970018
0.0481911
0.0474133
0.097843
0.0911906
0.0953111
0.0961572
0.0936471
0.0944872
0.0919737
0.092815
0.0903119
0.0911439
0.0886343
0.0894754
0.0869574
0.0877943
0.0852919
0.0861237
0.0836329
0.0844618
0.0819792
0.0828054
0.0803305
0.0811543
0.0786865
0.079508
0.077047
0.0778662
0.0754122
0.0762291
0.0737816
0.0745965
0.072155
0.0729679
0.070532
0.0713431
0.0689127
0.069722
0.0672969
0.0681044
0.0656846
0.0664904
0.0640759
0.0648798
0.0624708
0.0632729
0.0608696
0.0616697
0.0592723
0.0600705
0.0576788
0.0584751
0.0560892
0.0568836
0.0545035
0.0552959
0.0529217
0.0537122
0.051342
0.0521321
0.0497706
0.050552
0.0489807
0.0466973
0.0466318
0.0466647
0.0467643
0.0467352
0.0468134
0.0467965
0.0468334
0.0468249
0.0468496
0.0468418
0.0468593
0.0468553
0.046862
0.0468628
0.0468372
0.0468478
0.0468102
0.0468225
0.0981857
0.0989773
0.0990171
0.0467951
0.049133
0.0475638
0.0483458
0.0507157
0.0499265
0.0522918
0.0515024
0.053874
0.0530825
0.0554599
0.0546665
0.0570498
0.0562544
0.058644
0.0578464
0.0602426
0.0594428
0.0618455
0.0610436
0.0634523
0.0626485
0.0650629
0.0642572
0.066677
0.0658695
0.0682948
0.0674855
0.0699161
0.069105
0.0715413
0.0707283
0.0731703
0.0723553
0.0748033
0.0739863
0.0764407
0.0756215
0.0780826
0.0772611
0.0797291
0.0789053
0.0813808
0.0805543
0.0830381
0.0822088
0.0847011
0.083869
0.08637
0.0855348
0.0880461
0.0872072
0.0897281
0.0888864
0.0914206
0.0905727
0.0931129
0.0922687
0.0948098
0.0939617
0.0964979
0.0956521
0.0973619
0.0920386
0.0920563
0.0928773
0.0929213
0.0937133
0.0937802
0.0458649
0.046606
0.0458347
0.0945387
0.0946486
0.0953726
0.0962086
0.0970331
0.0978634
0.0986797
0.0986925
0.0963744
0.0972274
0.0980967
0.0989482
0.0998503
0.0998274
0.046779
0.0995148
0.0986572
0.0475528
0.0467709
0.0994991
0.0920471
0.0969655
0.0978108
0.0952919
0.0961249
0.093623
0.0944631
0.0919483
0.0927833
0.0902755
0.0911126
0.0885973
0.0894369
0.0869251
0.0877598
0.0852625
0.0860929
0.0836055
0.0844334
0.0819535
0.0827789
0.0803064
0.0811294
0.0786639
0.0794846
0.0770257
0.0778443
0.0753919
0.0762083
0.0737622
0.0745766
0.0721362
0.0729487
0.0705138
0.0713245
0.0688949
0.069704
0.0672795
0.0680868
0.0656674
0.0664731
0.0640589
0.0648627
0.062454
0.063256
0.0608527
0.0616529
0.0592552
0.0600535
0.0576615
0.0584579
0.0560716
0.0568661
0.0544855
0.0552781
0.0529033
0.0536939
0.051325
0.0521137
0.0497541
0.0505367
0.0481804
0.0489654
0.0473942
0.0459401
0.0458941
0.0460027
0.0459761
0.0460393
0.0460259
0.0460587
0.0460498
0.0460744
0.0460671
0.0460835
0.0460797
0.0460894
0.046087
0.0460719
0.0460852
0.0460452
0.0460596
0.0460079
0.0460245
0.0491318
0.0483433
0.0507071
0.049917
0.0522856
0.0514961
0.0538682
0.0530764
0.0554547
0.054661
0.0570453
0.0562496
0.0586401
0.0578422
0.0602391
0.0594391
0.0618422
0.0610402
0.0634491
0.0626452
0.0650597
0.064254
0.0666739
0.0658664
0.0682917
0.0674824
0.0699131
0.069102
0.0715381
0.0707251
0.0731669
0.072352
0.0747997
0.0739828
0.0764366
0.0756176
0.0780778
0.0772567
0.0797236
0.0789002
0.0813744
0.0805484
0.0830305
0.0822018
0.0846921
0.0838607
0.0863593
0.085525
0.0880327
0.0871953
0.0897121
0.0888716
0.0914012
0.0905552
0.0930974
0.0922491
0.0947968
0.0939479
0.0964963
0.0956468
0.0982008
0.0973532
0.0998672
0.0990395
0.100687
0.100698
0.0928932
0.0929144
0.093734
0.0937802
0.045103
0.0450705
0.0945739
0.0946456
0.0954065
0.0955169
0.0962337
0.0970667
0.0978981
0.0987173
0.0995411
0.0459943
0.100336
0.100361
0.0972437
0.0981039
0.0989639
0.0998115
0.100685
0.101528
0.101542
0.101169
0.100302
0.046582
0.0458046
0.101141
0.092905
0.0986084
0.099455
0.0969324
0.0977675
0.0952651
0.0961016
0.0935891
0.0944274
0.0919075
0.0927474
0.0902309
0.0910686
0.088558
0.0893941
0.086891
0.0877236
0.0852311
0.0860604
0.0835763
0.0844032
0.0819263
0.0827508
0.080281
0.0811031
0.0786401
0.0794601
0.0770033
0.0778212
0.0753706
0.0761865
0.0737417
0.0745557
0.0721164
0.0729286
0.0704946
0.0713051
0.0688762
0.069685
0.0672611
0.0680682
0.0656493
0.0664548
0.064041
0.0648448
0.0624361
0.0632382
0.0608348
0.0616351
0.0592372
0.0600356
0.0576432
0.0584397
0.0560529
0.0568476
0.0544665
0.0552592
0.052884
0.0536748
0.0513061
0.0520945
0.0497367
0.0505193
0.0481622
0.0489508
0.0473672
0.0451774
0.045142
0.0452362
0.0452099
0.0452636
0.0452516
0.045285
0.045275
0.045301
0.0452938
0.0453099
0.0453063
0.0453153
0.0453128
0.0453106
0.0453156
0.0452804
0.0452969
0.0452409
0.0452612
0.101546
0.102385
0.102389
0.0452266
0.0475466
0.0459839
0.0467629
0.0491254
0.0483382
0.0506986
0.0499104
0.0522781
0.051488
0.0538613
0.0530692
0.0554485
0.0546545
0.0570398
0.0562437
0.058635
0.0578369
0.0602344
0.0594343
0.0618378
0.0610357
0.0634449
0.0626409
0.0650556
0.0642498
0.0666699
0.0658623
0.0682877
0.0674784
0.069909
0.0690979
0.0715339
0.070721
0.0731625
0.0723477
0.0747949
0.0739782
0.0764313
0.0756126
0.0780719
0.0772511
0.0797169
0.0788939
0.0813665
0.0805411
0.0830212
0.0821933
0.0846812
0.0838506
0.0863466
0.0855132
0.0880176
0.0871815
0.0896945
0.0888553
0.0913789
0.0905357
0.0930721
0.0922244
0.0947733
0.0939222
0.0964786
0.0956259
0.0981851
0.097329
0.099874
0.0990341
0.100706
0.0937516
0.0937749
0.0450383
0.094596
0.0946438
0.095436
0.095515
0.0962749
0.0963844
0.0971081
0.0979329
0.0987616
0.0995872
0.100399
0.101211
0.101976
0.102018
0.098121
0.0989879
0.0998429
0.100697
0.101552
0.102392
0.103234
0.103238
0.0452052
0.102811
0.101924
0.0459728
0.045188
0.102764
0.0937652
0.100242
0.101093
0.098564
0.0994003
0.0968983
0.097734
0.0952235
0.0960612
0.0935391
0.0943814
0.0918579
0.0926974
0.0901853
0.0910207
0.088518
0.0893512
0.0868553
0.087686
0.0851981
0.086026
0.0835458
0.0843714
0.081898
0.0827213
0.0802546
0.0810758
0.0786153
0.0794345
0.0769798
0.0777971
0.0753482
0.0761636
0.0737202
0.0745338
0.0720957
0.0729075
0.0704745
0.0712847
0.0688565
0.0696651
0.0672418
0.0680488
0.0656304
0.0664357
0.0640222
0.0648259
0.0624174
0.0632194
0.060816
0.0616163
0.0592181
0.0600167
0.0576239
0.0584206
0.0560333
0.0568281
0.0544464
0.0552394
0.0528636
0.0536545
0.0512853
0.0520739
0.0497116
0.050498
0.0481429
0.0489257
0.0465594
0.0473477
0.0450042
0.045778
0.0443511
0.0442734
0.044312
0.0444185
0.0443887
0.0444649
0.0444465
0.0444908
0.0444781
0.0445133
0.0445028
0.0445296
0.0445223
0.0445386
0.044535
0.0445425
0.044541
0.0445419
0.0445432
0.0445173
0.0445351
0.0444825
0.0445056
0.0444351
0.0444569
0.0475429
0.0467581
0.0491141
0.0483258
0.0506896
0.0499015
0.0522694
0.051479
0.0538534
0.0530609
0.0554413
0.0546469
0.0570331
0.0562367
0.058629
0.0578306
0.0602287
0.0594284
0.0618323
0.0610301
0.0634396
0.0626356
0.0650505
0.0642447
0.0666649
0.0658573
0.0682827
0.0674734
0.0699039
0.0690929
0.0715287
0.0707159
0.073157
0.0723424
0.074789
0.0739726
0.0764249
0.0756065
0.0780648
0.0772443
0.0797088
0.0788863
0.0813573
0.0805325
0.0830106
0.0821834
0.0846687
0.083839
0.086332
0.0854997
0.0880006
0.0871657
0.0896749
0.088837
0.0913553
0.0905143
0.0930428
0.0921981
0.0947387
0.0938897
0.0964428
0.09559
0.0981444
0.0972948
0.0998488
0.098996
0.101547
0.1007
0.103228
0.102388
0.104077
0.104061
0.0442344
0.0946141
0.0946386
0.0444144
0.0954611
0.095512
0.096305
0.0963864
0.0971451
0.0972561
0.0979831
0.0988134
0.0996333
0.100456
0.101272
0.102071
0.102869
0.103597
0.103658
0.0990046
0.0998722
0.100729
0.101589
0.102426
0.103264
0.104102
0.104925
0.104887
0.104427
0.103528
0.0449794
0.0442015
0.104361
0.0946286
0.101854
0.102697
0.100184
0.101021
0.0985198
0.0993539
0.0968475
0.0976834
0.0951636
0.0960059
0.0934814
0.0943216
0.0918069
0.0926431
0.0901396
0.0909725
0.0884768
0.0893078
0.0868178
0.0876468
0.0851636
0.0859902
0.083514
0.0843383
0.0818685
0.0826908
0.080227
0.0810473
0.0785894
0.0794078
0.0769553
0.0777719
0.0753249
0.0761397
0.0736978
0.0745109
0.072074
0.0728856
0.0704535
0.0712634
0.068836
0.0696444
0.0672217
0.0680285
0.0656105
0.0664157
0.0640025
0.0648061
0.0623977
0.0631997
0.0607962
0.0615966
0.0591982
0.0599968
0.0576036
0.0584005
0.0560126
0.0568077
0.0544254
0.0552186
0.052842
0.0536332
0.0512629
0.052052
0.0496877
0.0504748
0.0481149
0.0489014
0.0465421
0.0473293
0.045758
0.0435151
0.0434336
0.0434794
0.0436014
0.0435586
0.0436602
0.0436304
0.0436936
0.043679
0.043721
0.0437077
0.0437435
0.0437331
0.0437596
0.0437524
0.0437688
0.0437651
0.0437719
0.0437711
0.0437706
0.0437716
0.043759
0.043768
0.0437235
0.0437412
0.043673
0.0436978
0.104876
0.105733
0.10571
0.0436452
0.045963
0.044395
0.0451773
0.047533
0.0467483
0.0491029
0.0483164
0.0506793
0.0498907
0.0522597
0.051469
0.0538443
0.0530516
0.0554329
0.0546382
0.0570254
0.0562287
0.0586218
0.0578232
0.060222
0.0594215
0.0618259
0.0610236
0.0634335
0.0626293
0.0650445
0.0642386
0.0666589
0.0658513
0.0682767
0.0674675
0.0698979
0.0690869
0.0715225
0.0707098
0.0731505
0.0723361
0.0747821
0.0739659
0.0764174
0.0755993
0.0780565
0.0772365
0.0796996
0.0788776
0.0813468
0.0805227
0.0829985
0.0821721
0.0846548
0.0838261
0.0863159
0.0854848
0.087982
0.0871483
0.0896533
0.088817
0.0913302
0.0904911
0.0930129
0.0921708
0.0947023
0.0938567
0.0964001
0.0955502
0.0981019
0.0972512
0.0998046
0.0989531
0.101515
0.100661
0.1032
0.10236
0.104037
0.0954808
0.0955062
0.0963306
0.096384
0.0971778
0.097261
0.0426722
0.0433938
0.0426264
0.0980218
0.0981338
0.0988605
0.0996951
0.10052
0.101332
0.102144
0.102947
0.10373
0.104507
0.105188
0.10527
0.0998928
0.100761
0.101624
0.102483
0.10332
0.104153
0.104979
0.105787
0.10654
0.106586
0.043621
0.106013
0.105104
0.0443825
0.0436002
0.105927
0.0954958
0.10345
0.104278
0.101793
0.102612
0.100123
0.100948
0.0984582
0.0992886
0.096778
0.0976189
0.0950969
0.0959367
0.093423
0.0942591
0.0917554
0.0925885
0.0900929
0.0909236
0.0884341
0.0892631
0.086779
0.0876061
0.085128
0.085953
0.083481
0.084304
0.0818379
0.082659
0.0801984
0.0810177
0.0785625
0.07938
0.0769299
0.0777458
0.0753006
0.0761149
0.0736745
0.0744872
0.0720516
0.0728627
0.0704316
0.0712413
0.0688147
0.0696228
0.0672007
0.0680074
0.0655898
0.0663949
0.0639819
0.0647855
0.0623771
0.0631791
0.0607756
0.0615759
0.0591773
0.0599761
0.0575824
0.0583794
0.055991
0.0567863
0.0544033
0.0551967
0.0528193
0.0536108
0.0512394
0.0520289
0.0496635
0.0504509
0.0480919
0.0488771
0.0465226
0.0473061
0.0449578
0.0457393
0.0441759
0.0427637
0.0427158
0.042842
0.0428047
0.0428931
0.0428707
0.0429246
0.0429093
0.0429529
0.0429393
0.0429752
0.0429649
0.042991
0.0429839
0.0430004
0.0429965
0.0430033
0.0430027
0.0430004
0.0430023
0.0429928
0.0429979
0.0429635
0.042982
0.0429152
0.0429419
0.042854
0.0428865
0.0459497
0.0451658
0.0475194
0.0467349
0.049091
0.0483047
0.0506678
0.0498788
0.0522489
0.0514579
0.0538343
0.0530411
0.0554236
0.0546285
0.0570167
0.0562197
0.0586136
0.0578148
0.0602143
0.0594135
0.0618186
0.061016
0.0634264
0.0626221
0.0650376
0.0642316
0.0666521
0.0658444
0.0682699
0.0674606
0.069891
0.06908
0.0715153
0.0707028
0.073143
0.0723288
0.0747742
0.0739582
0.0764089
0.0755911
0.0780471
0.0772276
0.0796892
0.0788677
0.0813352
0.0805117
0.0829852
0.0821597
0.0846395
0.0838119
0.0862983
0.0854684
0.0879616
0.0871294
0.0896298
0.0887951
0.0913031
0.0904658
0.0929813
0.0921416
0.0946649
0.0938224
0.0963545
0.0955089
0.0980501
0.0972017
0.0997509
0.0988998
0.101458
0.100604
0.103147
0.102307
0.104833
0.103992
0.106495
0.105668
0.107375
0.107315
0.0963514
0.0963779
0.097205
0.0972601
0.0419221
0.041871
0.0980555
0.0981405
0.0989026
0.0990177
0.0997447
0.10058
0.101408
0.102224
0.103025
0.103822
0.104607
0.105367
0.106116
0.0428291
0.106745
0.106849
0.100785
0.101657
0.102524
0.103378
0.104219
0.105052
0.105866
0.106659
0.107448
0.0433579
0.0425852
0.107568
0.106643
0.108217
0.108135
0.107463
0.0963672
0.105007
0.105817
0.103368
0.104186
0.101706
0.102543
0.100044
0.100876
0.0983794
0.0992149
0.0967017
0.0975403
0.0950301
0.095865
0.0933644
0.0941967
0.0917027
0.0925331
0.0900447
0.0908733
0.0883901
0.089217
0.0867388
0.087564
0.0850911
0.0859145
0.083447
0.0842686
0.0818063
0.0826262
0.0801688
0.0809872
0.0785346
0.0793514
0.0769035
0.0777187
0.0752755
0.0760892
0.0736504
0.0744626
0.0720283
0.072839
0.070409
0.0712183
0.0687926
0.0696004
0.067179
0.0679854
0.0655683
0.0663733
0.0639605
0.064764
0.0623557
0.0631577
0.060754
0.0615545
0.0591555
0.0599544
0.0575603
0.0583575
0.0559684
0.056764
0.0543801
0.0551739
0.0527956
0.0535874
0.0512148
0.0520047
0.0496382
0.050426
0.0480658
0.0488515
0.0464984
0.0472813
0.0449353
0.0457192
0.0441448
0.042006
0.0419639
0.0420762
0.0420463
0.0421233
0.042103
0.0421571
0.0421406
0.042186
0.0421723
0.0422082
0.0421979
0.042224
0.0422169
0.0422333
0.0422295
0.0422362
0.0422356
0.0422325
0.0422351
0.0422241
0.0422289
0.0422064
0.0422172
0.0421579
0.0421858
0.0420989
0.0421293
0.108055
0.108951
0.108862
0.0420681
0.0443669
0.0428101
0.0435885
0.0459359
0.0451519
0.0475046
0.0467194
0.0490776
0.0482906
0.0506551
0.0498658
0.0522371
0.0514456
0.0538232
0.0530296
0.0554132
0.0546177
0.057007
0.0562096
0.0586045
0.0578053
0.0602056
0.0594046
0.0618103
0.0610075
0.0634183
0.0626139
0.0650297
0.0642236
0.0666443
0.0658367
0.0682621
0.0674529
0.0698831
0.0690723
0.0715073
0.0706948
0.0731347
0.0723206
0.0747653
0.0739496
0.0763993
0.0755819
0.0780368
0.0772176
0.0796777
0.0788568
0.0813224
0.0804996
0.0829708
0.0821461
0.0846231
0.0837964
0.0862794
0.0854507
0.0879399
0.0871091
0.0896047
0.0887718
0.091274
0.0904388
0.0929477
0.0921103
0.0946257
0.0937862
0.096308
0.0954664
0.0979945
0.0971507
0.0996863
0.0988397
0.101384
0.100534
0.103076
0.102233
0.104761
0.103919
0.106424
0.105598
0.107242
0.0972267
0.0972541
0.0418223
0.0980841
0.0981407
0.0989385
0.0990252
0.0997887
0.0999071
0.100634
0.101471
0.102299
0.103118
0.103921
0.104705
0.105483
0.106245
0.106975
0.107691
0.108273
0.108393
0.101684
0.10256
0.103428
0.104282
0.105127
0.105956
0.106763
0.10755
0.108324
0.109064
0.10967
0.109779
0.0420329
0.109075
0.108144
0.04279
0.0420105
0.108941
0.0972431
0.10652
0.107333
0.104898
0.105711
0.103269
0.104095
0.101616
0.102445
0.0999564
0.100788
0.098292
0.0991254
0.096625
0.097458
0.0949631
0.0957935
0.0933045
0.0941335
0.0916484
0.0924761
0.0899952
0.0908214
0.088345
0.0891697
0.0866976
0.0875209
0.0850533
0.0858751
0.083412
0.0842323
0.0817737
0.0825925
0.0801384
0.0809557
0.078506
0.0793219
0.0768764
0.0776908
0.0752496
0.0760626
0.0736255
0.0744372
0.0720042
0.0728145
0.0703856
0.0711946
0.0687696
0.0695773
0.0671564
0.0679627
0.0655459
0.0663509
0.0639383
0.0647418
0.0623335
0.0631355
0.0607316
0.0615322
0.0591328
0.0599319
0.0575372
0.0583347
0.0559449
0.0567407
0.054356
0.0551501
0.0527708
0.053563
0.0511893
0.0519796
0.0496118
0.0504001
0.0480386
0.0488247
0.0464698
0.0472537
0.0449042
0.0456864
0.0433346
0.0441187
0.0417813
0.042553
0.0411712
0.0410731
0.0411189
0.0412518
0.0412164
0.0413153
0.0412901
0.0413558
0.0413364
0.0413913
0.0413741
0.0414204
0.0414067
0.0414428
0.0414324
0.0414586
0.0414515
0.0414679
0.0414641
0.0414707
0.0414701
0.0414667
0.0414695
0.0414568
0.0414624
0.0414423
0.0414501
0.0414053
0.0414297
0.0413457
0.0413786
0.0412731
0.0413063
0.0443531
0.0435734
0.0459193
0.0451363
0.0474887
0.0467035
0.0490627
0.0482752
0.0506413
0.0498515
0.0522241
0.0514322
0.053811
0.0530171
0.0554018
0.054606
0.0569963
0.0561986
0.0585944
0.0577949
0.060196
0.0593948
0.061801
0.0609981
0.0634094
0.0626048
0.065021
0.0642148
0.0666357
0.065828
0.0682535
0.0674443
0.0698744
0.0690636
0.0714983
0.070686
0.0731254
0.0723115
0.0747555
0.0739401
0.0763888
0.0755718
0.0780254
0.0772067
0.0796652
0.0788449
0.0813085
0.0804865
0.0829552
0.0821314
0.0846055
0.0837799
0.0862594
0.085432
0.0879169
0.0870877
0.0895783
0.0887472
0.0912435
0.0904104
0.0929124
0.0920775
0.0945849
0.0937483
0.0962606
0.0954224
0.097939
0.0970995
0.0996206
0.0987794
0.101306
0.100463
0.102993
0.10215
0.10467
0.103834
0.106333
0.105506
0.107968
0.107154
0.109575
0.108774
0.110483
0.11037
0.0410163
0.0981068
0.0981351
0.041236
0.0989684
0.0990264
0.0998268
0.0999157
0.100681
0.100802
0.101528
0.102368
0.103198
0.104015
0.104819
0.105605
0.106368
0.107119
0.107846
0.108536
0.109217
0.109729
0.109871
0.102589
0.103468
0.104338
0.105194
0.106039
0.106865
0.107667
0.108452
0.109206
0.109924
0.110624
0.111163
0.111306
0.110483
0.109566
0.04175
0.0409689
0.11034
0.0981238
0.107984
0.108776
0.106385
0.107189
0.104791
0.105598
0.10316
0.103981
0.101513
0.102338
0.0998586
0.100686
0.0982035
0.0990311
0.0965484
0.0973758
0.0948951
0.0957215
0.0932431