/*--------------------------------*- C++ -*----------------------------------*\
  =========                 |
  \\      /  F ield         | OpenFOAM: The Open Source CFD Toolbox
   \\    /   O peration     | Website:  https://openfoam.org
    \\  /    A nd           | Version:  10
     \\/     M anipulation  |
\*---------------------------------------------------------------------------*/
FoamFile
{
    format      ascii;
    class       surfaceScalarField;
    location    "39";
    object      phi;
}
// * * * * * * * * * * * * * * * * * * * * * * * * * * * * * * * * * * * * * //

dimensions      [0 3 -1 0 0 0 0];

internalField   nonuniform List<scalar> 
17221
(
0.0885621
-0.0277106
-0.0729585
0.012107
0.00134363
0.0810296
0.00618884
0.0701521
-0.0213799
-0.0764828
0.0855636
-0.0106913
-0.0772392
0.00236692
0.0138927
0.0768063
-0.00513543
0.0730638
0.017056
-0.076227
0.00170864
-0.00537246
0.0690287
-0.0653649
-0.00628438
-0.0674267
0.0754198
-0.00270989
-0.0432555
0.0127962
0.0331692
-0.0425782
0.00433765
0.0355307
-0.000482967
0.0479731
-0.0555952
0.00810512
-0.0558649
0.055382
0.0446594
0.0632327
-0.068554
-0.0393382
0.0585664
0.0374887
-0.0513957
0.050691
0.0357653
-0.0336688
-0.0527875
0.0302698
0.00242161
0.0179996
0.0184866
0.0563996
-0.0678807
-0.00700544
0.00914526
0.0483994
-0.0390581
-0.0427542
-0.00542005
0.0573195
-0.0282642
-0.065481
0.0743828
0.0193624
-0.0695896
0.00408501
0.0372404
0.0449008
0.0495022
-0.054456
-0.039947
0.107451
-0.0696191
0.00706892
-0.0322634
0.0117763
0.0906392
-0.120711
-0.0589981
0.0944366
0.085272
-0.0454168
0.0254927
-0.100786
0.111688
-0.104635
-0.0524707
0.101445
-0.0487546
-0.025999
-0.0455344
0.0120426
0.0594908
-0.0123944
-0.0501515
0.0365469
-0.0565819
0.00231783
0.0418697
-0.100904
-0.00165889
0.0706609
0.0319015
0.01988
-0.0972306
-0.0235529
0.113061
0.0201496
-0.113331
0.011276
0.100126
0.0664542
1.76328e-05
-0.0191349
-0.047337
0.0117289
0.0672078
-0.0124825
-0.0417738
0.0410838
0.0638933
-0.0632034
0.102465
-0.0792999
-0.0249276
0.00176203
0.0713312
-0.0106395
0.0349005
0.0938374
-0.0377014
0.0238541
0.0422291
-0.00593524
-0.0362939
0.0227772
-0.00444904
0.0239009
0.0846201
-0.0414045
-0.0432156
-0.0568316
0.044047
0.0974047
0.00323387
0.00212547
-0.0106639
0.00530459
0.00348854
-0.0069021
0.00664743
-0.0033131
0.00892712
0.0430502
0.0640285
-0.063972
-0.0431067
0.0514129
-0.0700937
0.0617309
-0.0330805
0.0445528
0.0399406
-0.0240821
0.0550301
-0.0832787
0.0150766
0.0685372
-0.000335172
-0.0736757
-0.00809609
-0.00150683
-0.00852716
-0.0655397
0.000391113
-0.0641534
-0.0292828
0.0676219
0.0258143
-0.0201155
-0.0681682
0.0241303
-0.056423
0.0625061
0.0247294
-0.0308125
-0.0130285
-0.0726772
-0.0777409
0.0135786
0.071736
-0.00757366
0.0121821
-0.0769448
-0.0129782
0.0793312
0.00562249
-0.0698828
-0.0150709
0.0120181
0.0794952
0.00803246
-0.0576616
0.00198356
0.0476456
0.0626337
0.00144688
-0.0560481
0.0691893
-0.0119281
-0.104508
0.00330962
0.0365006
0.0646978
-0.00456497
-0.110663
0.0107204
-0.00335359
0.10624
-0.0458802
-0.0543187
0.0419929
0.0582059
-0.0611623
0.056786
-0.0415038
0.0499379
-0.0618361
-0.0424205
-0.060565
0.0425712
0.0679318
0.014038
0.0591973
-0.013453
-0.0597823
0.0580556
-0.0614495
0.0174319
-0.0144771
0.0604598
0.0132145
-0.0126465
0.0586912
-0.0605218
0.0275449
-0.0887062
-0.0588948
-0.00747344
0.00625928
0.060109
-0.0624879
0.0191929
-0.0155998
-0.022108
-0.0518684
0.0206033
0.053373
-0.0531019
0.0535438
-0.0225498
0.0933444
-0.0779598
0.0121603
0.0968787
0.00718612
0.0788084
0.0312174
0.0661951
-0.0647046
-0.0327079
0.0657474
0.0285311
-0.0630611
-0.0040524
0.0630904
-0.0629459
0.00390786
0.060052
-0.00658818
-0.0575163
0.0828577
-0.0516167
-0.0397681
0.0712653
0.00349631
-0.000967098
-0.00156234
-0.0630103
0.0221812
0.0771455
-0.0270682
-0.0722585
0.0175961
0.0750833
-0.0704983
-0.0475286
-0.0182712
0.0537159
0.0120839
-0.00729751
0.0400327
-0.0802637
0.0581039
0.00360489
-0.0690063
0.0430481
-0.00321541
-0.0105217
-0.0611511
0.0696558
0.00201708
-0.0367708
0.079965
0.0683068
0.00598668
-0.00850371
-0.0657898
0.00830905
0.0704551
-0.0104573
0.0622749
0.0360319
-0.0397403
0.0613561
0.0381718
-0.0372529
0.0619952
0.0375728
-0.0382119
0.0599246
0.0392838
-0.0372133
0.0600595
0.0368902
-0.037025
0.0585135
0.0396844
-0.0381384
0.057784
0.0365001
-0.0357705
0.056047
0.0331405
-0.0314036
0.0563843
0.0256342
-0.0259715
0.0550838
0.0162458
-0.0149453
0.05632
0.00394216
-0.00517827
0.0576224
-0.007275
0.00597255
0.0583174
-0.0183437
0.0176488
0.0596068
-0.0268388
0.0255493
-0.0334276
0.0613135
0.0317209
0.0621959
-0.0607926
-0.0348309
-0.0381693
0.0389178
-0.0378095
0.0610049
-0.0600468
-0.0193018
-0.0266265
0.05923
-0.0590948
0.003807
-0.00809176
0.0588938
-0.058901
0.0256415
0.0160447
0.0597942
-0.0606109
0.0373168
0.0340337
0.0616672
-0.0635142
0.0387372
0.0407407
0.0625393
-0.0619758
0.0370093
0.038309
0.0625829
-0.0637108
0.0371598
0.0387789
0.0362839
-0.0632914
0.0630634
-0.0370249
-0.039799
-0.0622021
0.0605984
-0.0356096
-0.0373506
-0.059552
0.0564473
-0.0350336
-0.0359787
-0.0561896
0.0551314
-0.0303453
-0.0355129
-0.0530774
0.0539401
-0.015808
-0.0239176
-0.0547162
0.0551985
0.00549028
-0.00595434
-0.0564073
0.0586773
0.0232793
0.01644
-0.0603882
0.063455
0.0358511
0.03001
0.062941
0.0430851
-0.0290115
-0.0662252
0.0822082
0.0448891
0.0650356
-0.0639268
-0.039656
0.0694344
0.0383956
-0.0229605
-0.0698322
-0.0318181
0.0644239
-0.064395
-0.0348599
-0.0373124
0.0646377
-0.0631893
-0.0207503
-0.0263837
0.0629025
-0.0625981
0.00350259
-0.00837851
0.0630556
-0.0633373
0.0259231
0.0165023
0.0625433
-0.0649822
0.0397557
0.0332397
0.0625817
-0.0664164
0.0425718
0.0383402
0.0643569
-0.0645142
0.0371666
0.0362495
0.0636444
-0.0634875
0.0370029
0.037909
0.0622872
0.0300641
0.0350837
0.0410818
-0.0435282
0.0674821
0.0402131
0.0703031
-0.0698082
0.0662942
-0.0358242
-0.0354312
-0.0644706
0.064852
-0.0374063
-0.0379754
-0.0618719
0.0618697
-0.0356075
-0.0343705
-0.0593147
0.0571033
-0.0328222
-0.0334236
-0.0549328
0.0555971
-0.0310095
-0.0333424
-0.053217
0.0536467
-0.0162377
-0.0215375
-0.0528732
0.0528132
0.00555022
-0.00518085
-0.0565559
0.057103
0.0227322
0.0126972
-0.0600859
0.0634213
0.0325156
0.0270271
-0.0691931
0.0698515
0.0377373
0.0373133
0.0593369
0.0289083
-0.0314592
0.0740146
-0.0606546
0.0400101
0.0700545
-0.0155916
0.00807199
-0.0606486
-0.0254788
-0.059945
-0.0603798
0.0638292
0.020681
-0.06621
0.0139021
0.0906422
-0.0561114
0.0302227
0.0724376
-0.0606588
-0.0269118
-0.0288471
0.0238252
-0.0580392
-0.0630051
-0.0305467
0.0630506
-0.0665246
-0.0361821
-0.039112
0.0694455
-0.0687623
-0.0355431
-0.0343915
0.0692373
-0.0679792
-0.0220084
-0.0259088
0.067526
-0.0672489
0.00322549
-0.00883166
0.0651423
-0.0678873
0.0286681
0.0143957
0.0662213
-0.0667137
0.0402481
0.0315737
0.0667011
-0.0663935
0.0422642
0.0383277
0.0646269
-0.0665926
0.0391323
0.0344829
0.0615601
-0.0630941
0.0385369
0.0328764
0.0615689
-0.0622292
0.0307245
0.0335584
0.0274142
0.0668583
-0.0645845
0.0354635
0.0699839
0.0368845
-0.0655845
0.0679923
-0.0351157
-0.0255607
0.0233471
-0.0607915
0.0662207
-0.0271355
-0.0646458
-0.0299105
-0.0665582
0.0718835
-0.0411496
-0.033997
-0.0671997
0.0661918
-0.0363984
-0.0332916
-0.0647726
0.0631418
-0.0339767
-0.0329513
-0.0588635
0.0592068
-0.0331654
-0.0291453
-0.0552814
0.0544365
-0.0301646
-0.0294171
-0.0532082
0.0527669
-0.0157964
-0.0203092
-0.0525243
0.0536693
0.00440525
-0.00493827
-0.0549174
0.05597
0.0216796
0.0114492
-0.0598475
0.0606518
0.0317113
0.0231496
0.0333806
-0.0361036
0.0360501
0.0675356
0.0681337
-0.0367288
0.0385805
0.0682027
0.0696244
-0.0623082
0.000640934
-0.0119406
-0.0493489
-0.0385057
-0.0270634
0.01023
-0.00408122
-0.0446544
-0.0397879
0.0229545
-0.0630969
-0.0336977
0.0375037
0.0710607
0.0244183
-0.0591105
-0.0172514
-0.0546343
-0.0649479
0.0692045
-0.0313922
-0.0182406
0.0140818
-0.0604869
-0.0644463
-0.0187423
0.0139217
-0.0606314
-0.00652395
-0.0469061
0.00532274
-0.0402095
-0.0049011
0.00375005
-0.0430817
-0.0159557
0.0156884
-0.0399423
-0.0324985
0.039592
-0.0230491
0.0168944
-0.0191231
0.0699788
-0.0706857
-0.0354751
-0.0322301
0.0705457
-0.0718533
-0.0342355
-0.0345315
0.0719624
-0.0717647
-0.0222061
-0.0257996
0.07147
-0.0710235
0.00277893
-0.00912632
0.0706679
-0.0701997
0.0281999
0.0140401
0.0697616
-0.0706571
0.0411436
0.0311355
0.0683765
-0.0674717
0.0413594
0.0360471
0.0665725
-0.0653143
0.0378741
0.0335837
0.0639327
-0.0618216
0.0364259
0.0314948
0.05841
-0.0605692
0.0328837
0.0301469
0.0578147
-0.0566805
0.0195467
0.0246597
0.0555181
-0.0396072
0.00704353
0.0127398
-0.00491631
-0.0722399
0.0722888
-0.0351646
-0.0329458
-0.0740234
0.0706159
-0.0377421
-0.0357316
-0.068847
0.0683233
-0.0358747
-0.0315226
-0.0641556
0.0630945
-0.0329155
-0.0287836
-0.0609552
0.0595671
-0.0317773
-0.0270061
-0.056013
0.053861
-0.0280126
-0.025863
-0.0526006
0.0519106
-0.0151063
-0.0190489
-0.0520826
0.0530538
0.003434
-0.00511026
-0.0543261
0.0563016
0.0197041
0.0101769
-0.0581089
0.0605703
0.0292499
0.0213424
-0.0637203
0.067013
0.0321708
0.0302307
-0.0691167
0.0702085
0.036412
0.0347808
-0.0227945
0.0293232
0.0659089
0.0702792
-0.031516
0.0336163
0.0654353
0.0659409
-0.0359651
0.0362462
0.0679216
0.0672756
-0.038098
0.0370366
0.0712698
0.0692089
-0.0551413
-0.00685327
0.00641838
-0.0082091
0.0717599
-0.0682002
0.0328523
0.0728332
0.0359633
0.0115277
-0.0567165
-0.0112994
-0.0498588
-0.0504905
0.0406115
-0.0131701
-0.0158488
0.00112356
0.00143997
-0.055653
0.00191837
-0.0450744
0.0135736
-0.0409669
0.0181527
-0.0412006
0.0679343
-0.0699039
-0.0317281
-0.0240814
0.0696608
-0.0726182
-0.0325177
-0.0324732
0.0736482
-0.0748283
-0.0330554
-0.0335015
0.075331
-0.0754565
-0.0220806
-0.0252969
0.0752305
-0.0747166
0.00226509
-0.00935234
0.0741121
-0.0732387
0.0273265
0.0134356
0.0723441
-0.0711131
0.0399125
0.030241
0.0699769
-0.0685366
0.039919
0.0349109
0.0672536
-0.065571
0.0361915
0.0323007
0.063863
-0.061473
0.0340359
0.0297868
0.0590975
-0.0560331
0.0298193
0.0277714
0.0536827
-0.0516147
0.0174787
0.0223093
0.0484369
-0.0436596
0.00226615
0.00956206
-0.00796436
-0.0672013
0.0712086
-0.0122164
0.0381884
-0.02266
-0.0784743
0.0646003
-0.0401506
0.0137387
0.00130682
-0.075917
0.0747897
-0.0302649
-0.0234507
-0.0760017
0.0748129
-0.0339757
-0.0341579
-0.073936
0.0716449
-0.0354511
-0.0348547
-0.0696178
0.0673506
-0.0336075
-0.0294956
-0.0654839
0.0632366
-0.0306683
-0.026917
-0.0611287
0.0583867
-0.0290354
-0.0248981
-0.0560379
0.0536921
-0.0256669
-0.0235141
-0.0523576
0.0516538
-0.0144025
-0.0177143
-0.0518035
0.0527812
0.00245627
-0.00525994
-0.0540636
0.0560253
0.0177423
0.00889452
-0.0569512
0.0607494
0.0254517
0.0204165
-0.0628517
0.0659781
0.0290444
0.0281284
0.0325586
0.0225357
-0.0169511
0.0661514
-0.0284627
0.0298808
0.0644908
0.0643522
-0.0331328
0.0334731
0.0650949
0.062689
-0.0353988
0.0367163
0.0666041
0.06535
-0.0368138
0.0367579
0.0713258
0.0691113
0.0370898
0.0725013
-0.054913
0.0619349
-0.0890117
0.0195031
-0.0300949
0.0750787
0.00681207
0.0118148
-0.0587774
-0.0718709
-0.030119
0.00103179
-0.0563083
0.000718255
-0.0486587
-0.00752565
-0.0547155
0.0136689
-0.0451698
-0.0763297
-0.0342445
0.0817122
0.0288619
-0.0216727
-0.0585035
0.0234459
-0.04626
-0.0290342
-0.042628
0.0237493
-0.0625283
0.0358706
-0.0464624
-0.0780279
0.038788
0.0675491
-0.0702782
-0.0289991
-0.0284032
0.0729239
-0.0736864
-0.0317553
-0.0298274
0.0760179
-0.0776046
-0.0314688
-0.03117
0.0784774
-0.0789086
-0.0216494
-0.0244241
0.0787473
-0.0780914
0.00160915
-0.00951362
0.0772322
-0.0759435
0.0260377
0.0125764
0.074647
-0.072921
0.0381865
0.0289445
0.0713581
-0.0694949
0.0380558
0.0333481
0.0678905
-0.0658694
0.0341703
0.0306963
0.0639199
-0.0612714
0.0313873
0.0278374
0.0586943
-0.0554176
0.0265425
0.0251943
0.051741
-0.0497395
0.0154772
0.0186328
0.0466366
-0.0435129
-0.000857529
0.0064591
0.044383
-0.0455131
-0.01204
-0.00709425
0.043509
-0.0541299
-0.0230479
-0.0178529
-0.0608829
0.0700031
0.00461849
-0.0671451
0.0180769
-0.0741025
0.0773477
-0.0154616
-0.00279264
-0.0794093
0.0800472
-0.0309028
-0.0255122
-0.0783026
0.0794043
-0.0350774
-0.0324133
-0.0741628
0.0725152
-0.0338035
-0.0296132
-0.0702485
0.0677607
-0.0311196
-0.0272289
-0.065821
0.0635288
-0.0283761
-0.0249773
-0.0614409
0.0586939
-0.0262884
-0.0228101
-0.0563523
0.0539086
-0.0232233
-0.0211724
-0.0524794
0.0517021
-0.0136253
-0.0162851
-0.0518155
0.0527778
0.00149396
-0.00537327
-0.0540766
0.0561173
0.0157016
0.00759572
-0.0589236
0.0594774
0.0248979
0.0176102
-0.064554
0.064912
0.0286864
0.0230518
-0.0678849
0.0709758
0.0297614
0.0295858
0.0289112
-0.0296511
0.0333613
-0.0564978
-0.057718
-0.026063
-0.0221281
0.0259178
0.0623618
0.00436656
-0.0241487
0.0556527
0.0573171
-0.028431
0.0311746
0.0617472
0.061839
-0.0314828
0.0324983
0.0640794
0.0623807
-0.0348875
0.0351134
0.0663782
0.0629607
-0.0355467
0.0362549
0.0706176
0.068678
0.0745117
-0.053163
-0.0112314
-0.0526026
0.0132826
-0.0482724
0.0348779
-0.0326753
0.0795096
-0.0655462
0.0481485
0.0561857
0.0368884
0.0830372
-0.0850476
-0.0223294
-0.0540588
0.024953
-0.046677
-0.0328194
-0.0547183
0.0291077
-0.0516184
-0.0429618
-0.0584436
0.0263379
-0.0555049
0.0320675
-0.0392767
-0.0599359
0.029588
-0.0254272
-0.0618788
0.0331146
-0.0600244
-0.0490222
-0.0269949
0.0221307
0.0541254
0.0286347
-0.0248641
-0.0575284
0.0537579
0.0655966
-0.0682143
-0.0275013
-0.029888
0.0705712
-0.0722109
-0.0273594
-0.0260463
0.0744573
-0.0748696
-0.031343
-0.027581
0.0790991
-0.0799875
-0.0305803
-0.0269404
0.081225
-0.0819419
-0.0209325
-0.0231866
0.0818477
-0.0809997
0.000761106
-0.00960785
0.0798628
-0.0781627
0.0243376
0.0114396
0.0764897
-0.0743389
0.0360356
0.0272715
0.072443
-0.0702462
0.0358591
0.0314522
0.0684051
-0.0661479
0.0319131
0.0288552
0.0640241
-0.0611801
0.0285433
0.0257137
0.0584585
-0.055063
0.023147
0.0224727
0.0521751
-0.0490998
0.0124018
0.015745
0.0471373
-0.0461234
-0.00187138
0.00449659
0.046543
-0.0473675
-0.0112155
-0.00667463
0.0495606
-0.0545495
-0.0180589
-0.0156598
0.0598366
-0.0630792
-0.0221846
-0.020776
-0.0282116
0.0307584
-0.0644256
0.0738841
0.035291
-0.048282
-0.0608931
-0.0174067
-0.0750397
0.0776179
0.00204031
0.0715213
-0.065515
0.0260613
0.0145585
-0.0848978
0.0874174
-0.0179811
-0.0100726
-0.086575
0.0849432
-0.0292711
-0.0246698
-0.0811221
0.0787139
-0.0326693
-0.0285921
-0.0759324
0.0729769
-0.0308479
-0.0268317
-0.0706714
0.0681215
-0.0285697
-0.0249235
-0.0661399
0.0638565
-0.0260927
-0.0229956
-0.0618474
0.0592196
-0.0236607
-0.020801
-0.0569312
0.0544491
-0.0207412
-0.018884
-0.0529231
0.0520278
-0.0127301
-0.0147591
-0.0520721
0.0529882
0.000577854
-0.00541753
-0.0542832
0.0563138
0.0136709
0.00630079
-0.0581928
0.0606241
0.0224665
0.0157312
-0.0624747
0.0640443
0.0271168
0.0212012
-0.068246
0.0698259
0.0281815
0.0253841
0.0331909
-0.0212893
0.0259473
0.0577039
0.0581585
-0.0284294
0.0284844
0.0616923
0.0593569
-0.0306766
0.0317633
0.0629928
0.0601885
-0.0325512
0.0330383
0.0658911
0.0621728
-0.034266
0.0350501
0.0698334
0.0674504
0.0768865
-0.0511118
-0.0586402
-0.0214566
0.0800992
-0.0698164
0.0378656
0.0823249
0.0346627
-0.0236774
-0.0512546
0.0246264
-0.0479458
-0.033516
-0.0533622
0.0320221
-0.0495915
-0.0404244
-0.0572557
0.0343001
-0.0595805
-0.0410005
-0.0567198
-0.0379248
-0.0598916
0.0323014
-0.0406316
-0.0572291
0.0351009
-0.0574912
0.0325415
-0.0618074
0.0334163
-0.062551
0.0351776
-0.0548249
-0.0558051
0.0647012
-0.0160313
0.00713522
-0.058966
-0.0217032
0.0288704
-0.0268127
-0.0595862
0.0648666
-0.0684362
-0.0239317
-0.0236616
0.0698149
-0.0719485
-0.0252258
-0.0246675
0.0746982
-0.0772881
-0.0287531
-0.0248313
0.0795128
-0.0818775
-0.0282156
-0.0247157
0.0834304
-0.0844134
-0.0199495
-0.0216337
0.0843845
-0.0833804
-0.000242991
-0.00963677
0.0819424
-0.0798458
0.022241
0.0100016
0.0778498
-0.075359
0.0335448
0.0252755
0.0732213
-0.070788
0.0334258
0.0293144
0.0687813
-0.0663687
0.0295005
0.0268485
0.0641266
-0.0611597
0.0255764
0.0234715
0.0583616
-0.0549357
0.0197211
0.0196746
0.0521316
-0.0493837
0.0096539
0.0129409
0.0479204
-0.0476647
-0.00212713
0.00303335
0.0485045
-0.0495648
-0.0101552
-0.00583484
0.0538686
-0.0572258
-0.0147017
-0.0113561
0.0603799
-0.0644953
-0.0180691
-0.0176219
-0.0172009
-0.0720076
0.0783786
0.0196903
0.0323868
-0.0363947
-0.0558837
0.0668014
-0.0601682
0.0257536
0.0270952
-0.0840095
0.0875988
-0.00154906
0.00892759
-0.0890477
0.0904389
-0.0193723
-0.0115215
-0.0876498
0.0864419
-0.0280631
-0.0218807
-0.0824039
0.0789688
-0.0292342
-0.0245541
-0.0762392
0.0732758
-0.0278845
-0.024102
-0.0709852
0.0684347
-0.0260193
-0.0226329
-0.0664415
0.0641978
-0.023849
-0.0210024
-0.0623031
0.0598687
-0.0212262
-0.0189063
-0.0577076
0.0552614
-0.0182949
-0.016723
-0.0536627
0.0526218
-0.0116892
-0.0131604
-0.0525547
0.0533687
-0.000236079
-0.0053505
-0.0546303
0.0566344
0.0116669
0.00503917
-0.0585265
0.060966
0.0200271
0.0138391
-0.0629079
0.0651966
0.024828
0.0192593
-0.0663485
0.0675459
0.0269841
0.0242322
0.0309205
-0.0230027
0.0226577
0.0544704
0.0233482
-0.0212534
0.051449
0.0537184
-0.0237559
0.0245386
0.0569212
0.0570603
-0.0260341
0.0274993
0.0602271
0.0578614
-0.02876
0.0298389
0.0619138
0.0589277
-0.0306519
0.0312167
0.0653263
0.0613598
-0.0318155
0.0324319
0.0692171
0.0668516
-0.0332889
0.0338031
0.0789954
0.0760295
-0.0351068
0.0837735
0.0336582
0.0817334
-0.0501627
-0.033077
-0.0516935
0.0329636
-0.0488873
-0.0396129
-0.0541737
0.0356453
-0.0509367
0.0329113
-0.0327952
0.0836574
0.0841381
-0.0835393
0.0330594
0.0853144
0.031735
-0.0417131
-0.0565432
-0.0417186
-0.0556329
-0.0388227
-0.0548011
-0.0309718
-0.0543744
0.025178
-0.0349906
-0.0518649
-0.0565589
0.0320793
0.0351144
-0.0600641
0.0330247
-0.0614158
0.0326228
-0.0599962
0.03165
-0.0576044
0.050906
-0.0569849
-0.0151746
-0.0615351
-0.0242436
-0.0261687
0.0270416
-0.0604591
-0.0222201
-0.0654837
-0.0216341
0.0207614
0.0523217
0.0495229
-0.0202509
0.0609852
-0.0622713
-0.0201705
-0.0185495
0.0648637
-0.0681888
-0.0206067
-0.0210692
0.0713068
-0.0720863
-0.0244463
-0.0215495
0.075398
-0.0781329
-0.0260181
-0.0215196
0.0805227
-0.0831634
-0.0255749
-0.0223259
0.084987
-0.0862351
-0.0187014
-0.0198101
0.0862919
-0.0851629
-0.00137201
-0.00957991
0.0834464
-0.0809535
0.0197482
0.00828508
0.0786799
-0.0759616
0.0308265
0.0230019
0.0736655
-0.0710572
0.0308176
0.0270183
0.0688995
-0.0663244
0.0269254
0.0246908
0.0639642
-0.0609097
0.0225219
0.0211113
0.0581099
-0.0548155
0.0164267
0.0168748
0.0523014
-0.0501524
0.00750492
0.0104268
0.0493861
-0.0499034
-0.00160978
0.00226702
0.0513745
-0.0535833
-0.00794641
-0.00436372
0.0558803
-0.0577912
-0.0127907
-0.00905907
0.0608698
-0.0619436
-0.0169953
-0.0145433
0.0613894
-0.0604296
-0.0169912
-0.017755
0.0621518
-0.0636499
-0.0227455
-0.019981
-0.0671597
0.071635
0.0212783
0.0246123
-0.0274841
-0.0515026
0.0624378
-0.0582092
0.0203837
0.0204561
-0.0785686
0.0854373
0.0128216
0.0201616
-0.0901816
0.0931827
-0.00455016
0.00418329
-0.0925313
0.0917899
-0.0186309
-0.0108702
-0.088831
0.0853861
-0.0246182
-0.0189217
-0.082297
0.0788259
-0.0257631
-0.021465
-0.0761571
0.0732781
-0.0250054
-0.0214333
-0.0710676
0.0686071
-0.0235587
-0.0204225
-0.0666688
0.0645054
-0.0216856
-0.0190641
-0.0627442
0.0605566
-0.0190386
-0.0171452
-0.0586003
0.0562876
-0.0159822
-0.0147667
-0.0546655
0.0534776
-0.0105013
-0.0115382
-0.0532582
0.0539139
-0.000891807
-0.00513112
-0.0550876
0.0570238
0.00973069
0.00386546
-0.0588969
0.0612693
0.0176547
0.011966
-0.0625083
0.066688
0.0206483
0.0180203
-0.0675947
0.0698271
0.0247517
0.0233255
-0.0732805
0.0798182
0.031328
0.0274671
0.0309416
-0.0205582
0.0212366
0.0537921
0.0539216
-0.0212683
0.0216476
0.0565419
0.0570285
-0.0229871
0.0243009
0.0589133
0.0565219
-0.0254482
0.0264647
0.0608974
0.0577805
-0.0272634
0.0278614
0.0647283
0.060561
-0.0285566
0.0293375
0.0684362
0.0661565
-0.0307425
0.0333955
0.0763425
0.0746245
0.0823337
-0.0502762
-0.0613675
-0.0245025
-0.0241123
0.015927
-0.0572983
-0.03225
-0.0532298
-0.0387598
-0.0525466
0.037631
-0.050873
0.0273587
-0.0262771
0.0825758
0.0294181
0.083255
-0.0416627
-0.0542241
-0.0422213
-0.0560404
-0.0399108
-0.0545448
-0.0366169
-0.0531748
-0.030174
-0.049175
-0.0202555
-0.0560213
0.0180677
-0.0236611
-0.048097
-0.0571426
0.0356981
0.0333632
-0.0604026
0.0329918
-0.0617847
0.0339426
-0.0622889
0.0319673
-0.0625301
0.0234096
-0.0679417
-0.0230633
0.0191304
0.0562546
-0.0316944
0.0581541
0.0583883
-0.0603284
-0.0132345
-0.0839677
0.0853638
0.030339
-0.0826985
0.0317901
0.0389656
-0.000828317
0.036587
-0.0554444
0.0623752
-0.0647515
-0.0177941
-0.0165027
0.0669536
-0.0684096
-0.0191506
-0.0188672
0.0712142
-0.0735765
-0.022084
-0.0187449
0.0757784
-0.0785573
-0.0232392
-0.0193178
0.0810217
-0.08383
-0.0227666
-0.0198615
0.0858569
-0.0873682
-0.0171901
-0.0177833
0.0875684
-0.0863951
-0.00254534
-0.00937971
0.0844082
-0.0814676
0.0168075
0.00629821
0.0788624
-0.0758958
0.02786
0.0203967
0.0734715
-0.0707135
0.0280596
0.024594
0.0683991
-0.0656488
0.0241751
0.0223763
0.063202
-0.0601904
0.0195103
0.0186645
0.057603
-0.0548031
0.0136268
0.0142874
0.052932
-0.0517093
0.00628231
0.00855557
0.0516831
-0.0526921
-0.000600789
0.00224079
0.0540642
-0.0557828
-0.00622787
-0.00299161
0.0571638
-0.0582959
-0.0116586
-0.00767806
0.0607692
-0.0616393
-0.0161252
-0.01207
0.0637055
-0.0637226
-0.0169741
-0.0156888
0.0653176
-0.0674211
-0.0206421
-0.018386
0.00652766
-0.096076
0.0641819
-0.0885577
-0.028854
-0.0277416
-0.0691128
0.0717682
0.0177283
0.0155406
-0.0163083
-0.0552536
0.0668011
-0.065361
0.0141005
0.015756
-0.0741692
0.0788933
0.0165543
0.0180551
-0.0852037
0.0901181
0.00790716
0.0138512
-0.0924887
0.093613
-0.00567443
0.00181272
-0.0928535
0.0905422
-0.0163197
-0.0101107
-0.0878472
0.0843758
-0.0211468
-0.0162267
-0.0815016
0.0782932
-0.0225547
-0.0185909
-0.0758275
0.0731532
-0.022331
-0.0189676
-0.0710879
0.0687753
-0.0212461
-0.0183572
-0.0669302
0.0648572
-0.0196127
-0.017219
-0.0632106
0.0612581
-0.017086
-0.0154986
-0.0595452
0.0574578
-0.0138948
-0.0130538
-0.0558876
0.0545861
-0.00919978
-0.00996804
-0.0541901
0.054623
-0.00132472
-0.0047351
-0.0556476
0.0574494
0.0079289
0.00284085
-0.0592785
0.061624
0.0153091
0.0101369
-0.0644422
0.06491
0.0201805
0.0152021
-0.0683059
0.0718961
0.0211614
0.0199297
-0.0746572
0.0798476
0.0261376
0.024706
0.0280907
-0.0177569
0.0167302
0.0548187
0.0552951
-0.0172979
0.018416
0.0554237
0.0564609
-0.0186789
0.0197554
0.0578368
0.056259
-0.0207153
0.0215998
0.0600129
0.0568205
-0.022327
0.0229129
0.0641424
0.0598339
-0.0243168
0.0227593
0.0699937
0.0647525
-0.0245281
0.0253186
0.075552
0.0728558
0.0813751
-0.0514049
0.0325555
0.0822263
-0.0407474
-0.0534618
-0.0415625
-0.054883
-0.0403683
-0.0555829
-0.0374234
-0.0537383
-0.033278
-0.0500708
-0.0267995
-0.0460366
-0.0592673
0.0354879
0.0353503
-0.0627611
0.0348585
-0.0627006
0.033801
-0.0641226
-0.0188547
-0.0455506
-0.0120785
-0.0650832
0.0118008
-0.0110727
-0.0562594
0.0287094
-0.0678298
0.0197363
-0.0811504
0.0230038
-0.0864442
-0.0251173
-0.0552166
0.0389989
-0.0532849
0.0161121
-0.0891843
0.0365238
-0.0562701
-0.0305428
0.0636584
0.0145968
-0.0477124
0.060829
-0.0618497
-0.0122138
0.00478402
0.0634134
-0.0654396
-0.015768
-0.014939
0.0682389
-0.0689649
-0.0184245
-0.0160679
0.0714704
-0.0737795
-0.0197749
-0.0162394
0.075906
-0.0786086
-0.0205367
-0.0171913
0.0810395
-0.0838891
-0.0199171
-0.0174306
0.0860433
-0.0878117
-0.0154216
-0.0156291
0.0882479
-0.0872119
-0.0035814
-0.0089435
0.0850881
-0.081697
0.0134165
0.00417444
0.0786159
-0.0752078
0.0244519
0.0173155
0.0725548
-0.0696394
0.0251442
0.021941
0.0672415
-0.0644727
0.0214063
0.0199784
0.0621441
-0.0595053
0.0168716
0.0163359
0.0574638
-0.0555357
0.0116987
0.0122459
0.0545002
-0.0541411
0.00592316
0.00752009
0.0545131
-0.0554499
0.000336053
0.00261278
0.0563852
-0.0574753
-0.00513778
-0.00205628
0.0584434
-0.059748
-0.010354
-0.00671003
0.0611047
-0.0628675
-0.0143625
-0.0107133
0.0649264
-0.0651343
-0.0167662
-0.0136299
0.0666055
-0.0684966
-0.018751
-0.0169148
0.0754448
-0.0826291
-0.0216697
-0.0207934
-0.0227796
0.0269462
-0.0906108
0.085267
-0.0871145
-0.0209321
-0.0224794
-0.0731874
0.0738243
0.0134636
0.00856815
-0.00763069
-0.0660207
0.0715777
-0.0700771
0.00706755
0.0101911
-0.0752767
0.0783416
0.0146634
0.0143035
-0.0818945
0.0839687
0.0144801
0.0145022
-0.0888189
0.0909754
0.00575061
0.00900098
-0.0928584
0.0926769
-0.00549303
-7.02082e-05
-0.091158
0.0886551
-0.0138168
-0.00859167
-0.0861447
0.0830314
-0.0180335
-0.0137163
-0.0804891
0.0776333
-0.0196989
-0.0160486
-0.075402
0.0729428
-0.0198718
-0.0167363
-0.0710258
0.0688756
-0.0190959
-0.0164401
-0.067152
0.0651983
-0.017659
-0.0154955
-0.0636599
0.0619121
-0.0153382
-0.0139601
-0.0604474
0.058661
-0.0121084
-0.0115892
-0.0572404
0.055913
-0.00787241
-0.00854741
-0.0553554
0.0555086
-0.00147791
-0.00417753
-0.0563169
0.0579024
0.00634335
0.00203258
-0.0596261
0.0618506
0.0130846
0.00841326
-0.0638472
0.0662206
0.0178071
0.0132054
-0.0696873
0.0694366
0.0214121
0.016463
-0.0740288
0.0766445
0.0235219
0.0201138
-0.0810805
0.0842622
0.0286084
0.0236547
-0.0847286
0.0741686
0.0431156
0.0298726
-0.0156118
0.013552
0.0583144
0.0617351
-0.0120543
0.0112123
0.0556607
0.0567929
-0.0129192
0.0118764
0.0564665
0.054754
-0.0133408
0.0140689
0.0571088
0.0547946
-0.0147597
0.015427
0.0593455
0.0561297
-0.0160052
0.0165085
0.0636391
0.0592556
-0.0168704
0.0170688
0.0697952
0.0643906
-0.0190006
0.0177567
0.0767958
0.070924
-0.0194672
0.0204145
0.0816285
0.0796647
-0.021405
0.0268872
0.0767441
0.0822646
0.0705129
-0.0531535
-0.0404429
-0.0545814
-0.0405205
-0.0547307
-0.0393747
-0.0536315
-0.036303
-0.0507133
-0.030983
-0.0458874
-0.06129
0.0373731
0.0374616
-0.0653643
0.036951
-0.0658506
-0.0231406
-0.0417507
-0.0140546
-0.0425688
-0.00890917
-0.0549809
0.033716
-0.0691292
0.0287964
-0.0768899
0.0250621
-0.0901004
-0.00551143
-0.0693268
0.00476115
-0.00830647
-0.0632256
0.028434
-0.0906722
0.0228368
-0.0911951
-0.0187562
0.0234255
-0.0911996
0.0224426
-0.0694362
0.102426
-0.055432
-0.0624169
-0.00589789
0.0608413
-0.0699142
-0.00810254
0.000829281
0.0852717
0.0387145
-0.0554756
-0.0640599
0.00922045
0.0372727
-0.0580549
0.0612297
-0.0625719
-0.0108716
-0.00390046
0.0636599
-0.0665943
-0.0128336
-0.0138509
0.0680215
-0.0699141
-0.0165319
-0.0146407
0.0716201
-0.0738098
-0.0175852
-0.0145334
0.0758087
-0.0783555
-0.0179899
-0.0151924
0.0806571
-0.0834126
-0.0171615
-0.015129
0.0855889
-0.0875606
-0.0134499
-0.0134529
0.0883092
-0.0876755
-0.00421506
-0.00819488
0.0857386
-0.0822114
0.00988934
0.00223744
0.0787471
-0.0748032
0.020508
0.0138512
0.0718175
-0.0687339
0.0220606
0.0189553
0.0663728
-0.06384
0.0188735
0.0176173
0.0618877
-0.0598969
0.0148808
0.0143836
0.0585394
-0.0574432
0.0106025
0.0108885
0.0569792
-0.0569409
0.00588481
0.00705618
0.0572077
-0.0576886
0.000816978
0.00287954
0.0581593
-0.058827
-0.00447007
-0.00158558
0.0595796
-0.0607281
-0.00920541
-0.00595744
0.0619141
-0.0634656
-0.012811
-0.00952732
0.0649216
-0.0662683
-0.0154194
-0.0121739
0.0686622
-0.0710693
-0.016344
-0.0145209
0.0757083
-0.0804931
-0.0168849
-0.0161544
0.0833841
-0.0862734
-0.0180429
-0.0195883
-0.0160476
0.0174379
-0.0925854
0.0885452
-0.0897651
-0.0148277
-0.0164843
-0.0711592
0.0723325
0.00589427
0.00134569
-0.00420108
-0.0664714
0.0717966
-0.071162
0.000711106
0.00539848
-0.0730394
0.074369
0.012134
0.00948421
-0.0764243
0.0785692
0.0125185
0.0122481
-0.0817244
0.0853352
0.0108694
0.0113469
-0.0878891
0.0899891
0.00365062
0.00644702
-0.0905358
0.0899731
-0.00493036
-0.000616884
-0.0885792
0.0862994
-0.011537
-0.00719776
-0.0841534
0.0815129
-0.015393
-0.0115702
-0.0793295
0.0768371
-0.0172065
-0.0138652
-0.0748548
0.0726336
-0.0176507
-0.014754
-0.0708821
0.0689114
-0.0171252
-0.0146886
-0.0673308
0.0655268
-0.015855
-0.0139148
-0.0641005
0.062519
-0.0137567
-0.0125338
-0.0612633
0.0597919
-0.010637
-0.0103334
-0.0586002
0.0573786
-0.00665072
-0.00735576
-0.0567316
0.0566142
-0.00136052
-0.00353058
-0.0571384
0.0584078
0.005074
0.00150834
-0.0599213
0.0619799
0.0110261
0.00689975
-0.0638872
0.0661635
0.0155308
0.0112982
-0.0680633
0.0705098
0.0189656
0.0145633
-0.0726443
0.0761657
0.0200005
0.0179792
-0.077231
0.0822949
0.0235444
0.0225894
-0.083895
0.113816
0.0131946
0.0282726
0.00204369
-0.00778478
0.00629472
0.0598044
0.0602096
-0.0076039
0.00654375
0.0567208
0.0554837
-0.0067374
0.00697692
0.056227
0.0545604
-0.0072583
0.00758872
0.0567783
0.0545132
-0.00793669
0.00830485
0.0589774
0.0557818
-0.00865658
0.00900237
0.0632933
0.0589039
-0.00929421
0.00951699
0.0695725
0.0640988
-0.00964466
0.00965678
0.0767837
0.0707963
-0.0103342
0.011033
0.0809297
0.0789873
-0.00958425
0.00802318
0.0783052
0.0837133
0.0793654
-0.0548819
-0.0398781
-0.0552238
-0.0400913
-0.0540142
-0.0386901
-0.0512444
-0.0347264
-0.0469699
-0.0634344
0.039606
0.0395731
-0.0679863
-0.0277089
-0.0413191
-0.0181711
-0.0376342
-0.00940537
-0.0420726
0.0388723
-0.0710069
0.0350208
-0.0753536
0.0310292
-0.082857
-0.00752643
-0.055761
0.0288799
-0.0905463
-0.0045558
-0.0628709
0.0267912
-0.0940379
-0.00155102
-0.0683314
-0.00127956
-0.00132332
-0.0666991
0.0210378
-0.0947995
0.0130756
-0.0904876
-0.0123531
0.0162056
-0.0957154
0.0137617
0.0931186
-0.00445475
-0.0652342
0.06163
-0.0022937
-0.0656961
-0.00764069
0.0084724
0.0905611
0.03874
-0.0569429
0.00082683
-0.000824494
0.060839
0.000755
0.0601808
-0.0758909
0.0296793
0.0389084
-0.0595902
0.0628573
-0.0634039
-0.0103249
-0.00673926
0.0661006
-0.0662775
-0.0126567
-0.0111542
0.068336
-0.0701055
-0.0147624
-0.0125822
0.0716869
-0.0737065
-0.0155656
-0.012952
0.0755402
-0.0778707
-0.0156594
-0.0133587
0.0799709
-0.0825143
-0.014618
-0.0130288
0.0845903
-0.0866359
-0.0114044
-0.0113769
0.0876701
-0.0876083
-0.00427693
-0.00716066
0.0862122
-0.0831298
0.00680686
0.000841413
0.0797414
-0.0755996
0.0163662
0.0104628
0.0724005
-0.0692122
0.0188723
0.0157562
0.0669517
-0.0647355
0.0166573
0.0153568
0.0631747
-0.0617075
0.0134136
0.0128228
0.0607658
-0.0600025
0.00983913
0.00994672
0.0596063
-0.0593678
0.00564634
0.00666003
0.0592959
-0.0593404
0.000861453
0.00280764
0.0595278
-0.059986