/*--------------------------------*- C++ -*----------------------------------*\
  =========                 |
  \\      /  F ield         | OpenFOAM: The Open Source CFD Toolbox
   \\    /   O peration     | Website:  https://openfoam.org
    \\  /    A nd           | Version:  10
     \\/     M anipulation  |
\*---------------------------------------------------------------------------*/
FoamFile
{
    format      ascii;
    class       volScalarField;
    location    "38.5";
    object      p;
}
// * * * * * * * * * * * * * * * * * * * * * * * * * * * * * * * * * * * * * //

dimensions      [0 2 -2 0 0 0 0];

internalField   nonuniform List<scalar> 
40874
(
0.623812
0.70218
0.156687
0.237567
0.133317
0.0445166
-0.075738
0.129409
0.218296
0.344533
0.53851
0.478728
0.338353
0.46138
0.47847
0.539605
-0.155759
-0.134421
0.229762
0.344707
0.341913
0.305561
0.17668
0.378276
0.392332
0.100177
0.122001
0.133397
0.0796995
-0.103759
-0.0844755
0.0281264
0.00810622
-0.441131
-0.441041
-0.403439
-0.416562
0.00924083
0.00811661
0.00792233
0.0096621
0.010405
0.0114452
0.00736429
0.0101837
0.0102695
0.00748186
0.327124
0.44276
0.514345
0.412873
0.153008
0.254864
-0.149375
-0.188066
-0.0726409
-0.0422613
-0.0721422
-0.209501
-0.34543
-0.315889
-0.0448073
0.094796
0.0673584
-0.0512703
-0.475663
-0.515939
-0.473653
-0.481731
-0.469679
-0.485019
0.926798
0.932023
0.917075
0.00194094
0.024956
0.030492
-0.0198008
0.0088135
0.0111282
0.00842186
0.00840572
0.487521
0.539405
0.54679
0.509067
-0.045756
-0.0411642
-0.0250303
-0.14624
-0.31115
-0.233636
-0.257575
-0.335713
-0.258927
0.00574859
0.00715661
-0.000512533
0.0020248
0.00543449
0.25739
0.242657
-0.565599
-0.573664
-0.392517
-0.382493
0.413503
0.420123
0.910584
0.893371
-0.40302
-0.397257
0.230294
-0.00279804
-0.00151904
0.00737422
0.00887303
0.155824
0.198876
0.465737
0.61696
0.535991
0.424619
0.486836
0.0092219
0.00848003
0.0106938
0.00627316
-0.00619257
-0.0167905
0.241783
0.00766315
0.0858636
0.0861931
0.68224
-0.0712576
-0.0740636
-0.129392
-0.293279
-0.268359
-0.238655
-0.263265
-0.345824
-0.320538
-0.367817
-0.360405
-0.354113
0.899999
0.93469
0.925973
-0.177131
-0.184425
-0.0947061
-0.392954
-0.401125
-0.403585
-0.398684
-0.392421
-0.403055
-0.402082
-0.700627
-0.705334
-0.690849
0.907585
0.830825
0.723487
0.618785
0.664471
0.192007
-0.605384
0.755074
0.694808
0.563795
0.799021
0.00918858
0.0150639
-0.452628
-0.433783
-0.485625
-0.387629
-0.368996
-0.36015
-0.350661
-0.458658
-0.446972
0.0127586
0.0119662
0.0121804
0.441994
0.453628
0.430932
0.314793
0.249711
0.875753
0.901276
0.910783
0.868558
-0.105287
-0.213622
-0.349595
-0.229458
-0.612529
-0.60583
-0.598891
-0.618814
0.0127367
0.0138154
-0.590237
-0.00232938
-0.00813126
0.221672
0.217528
0.337449
0.266505
0.26605
0.228455
0.227854
0.253029
0.244861
0.70687
0.803206
0.820937
0.00997397
0.00991911
0.217238
0.115093
0.157763
0.220886
-0.452748
-0.356235
-0.377655
-0.549175
-0.553225
-0.164713
-0.481139
-0.496336
-0.472873
-0.462077
-0.464513
0.0888177
0.160766
-0.429223
-0.443875
-0.0171363
-0.0382216
-0.165018
-0.127407
0.628798
0.640508
0.760455
0.718033
-0.132546
-0.115983
-0.126278
-0.145324
-0.357587
-0.372049
-0.378861
-0.454851
-0.449263
-0.424489
-0.416584
-0.437016
-0.459975
0.877224
0.838613
0.892998
0.62148
0.599835
0.604382
-0.505144
0.0110393
-0.188474
0.0820431
-0.000302074
0.00709899
0.0140715
0.0206509
0.0271041
0.0325413
0.0369579
0.0418746
0.0462424
0.0500694
0.05364
0.0568113
0.0598044
0.0624797
0.0650085
0.067275
0.069411
0.0712786
0.0731275
0.0747793
0.076297
0.0776594
0.0789381
0.0800786
0.0811372
0.0820716
0.0829281
0.0836717
0.0843399
0.0849032
0.0853901
0.0857736
0.0861005
0.0864031
0.0864975
0.0861937
0.0856576
0.0860726
-0.0211503
-0.0143536
-0.024314
-0.0347535
-0.0419495
-0.0308804
-0.00405043
-0.0126977
0.010527
0.00359484
0.0237932
0.0173448
0.0347529
0.0300004
0.0437019
0.0394168
0.0512007
0.0476151
0.0575048
0.0544796
0.0628462
0.0602798
0.0672679
0.0652006
0.0712787
0.0693685
0.0745303
0.0729696
0.0772886
0.0759643
0.079601
0.078496
0.081503
0.0805991
0.0830262
0.0823086
0.0841975
0.083653
0.0849933
0.0846491
0.085219
0.0852338
0.0852927
0.00416233
-0.00416119
0.0179798
0.0113406
0.0304108
0.024333
0.039574
0.0352743
0.0477299
0.0436472
0.0549484
0.0514912
0.0610017
0.0580933
0.0661407
0.0636673
0.0705277
0.0684152
0.074226
0.072439
0.0774141
0.0758846
0.0800956
0.078809
0.0823449
0.08127
0.0841987
0.083318
0.0856852
0.0849856
0.0868182
0.0862957
0.0875991
0.0872478
0.0881089
0.0879122
0.0877545
0.0879347
-0.0542926
-0.0682186
-0.0594016
-0.046323
-0.0848894
-0.0745267
-0.104203
0.0842559
0.0842762
0.0878223
-0.0169114
-0.00782185
-0.0265896
-0.0499681
-0.0639348
-0.155154
-0.121872
-0.106826
-0.0753576
-0.0911417
-0.0479615
-0.0607321
-0.0262453
-0.0364967
-0.0082021
-0.0175035
0.00738135
-8.35239e-05
0.0204917
0.0140488
0.0312266
0.0263275
0.0398076
0.0356315
0.0473859
0.0437443
0.053876
0.0507624
0.0594195
0.0567611
0.064141
0.0618649
0.0682367
0.0662628
0.07172
0.0700539
0.0746694
0.0732557
0.07716
0.07597
0.0792341
0.078247
0.0809272
0.0801266
0.0822731
0.0816412
0.083246
0.0828183
0.0838346
0.0835617
0.084093
0.08425
0.0877549
0.0848075
0.0855161
0.00877512
0.000525891
0.0225019
0.0159518
0.0338413
0.028601
0.0433505
0.0386494
0.0512432
0.0474894
0.0580864
0.0548002
0.0638869
0.0611088
0.0688202
0.0664526
0.0730264
0.0710102
0.0766089
0.0748885
0.0796744
0.078204
0.0822655
0.081026
0.0844387
0.0834023
0.0862284
0.08538
0.0876582
0.0869874
0.0887389
0.088242
0.0895035
0.0891551
0.0898904
0.089763
0.0899496
0.0899007
0.0896591
0.089873
-0.0375759
-0.00869515
-0.000608481
-0.0178359
-0.0394894
-0.0527403
0.0916328
0.0893524
0.0913011
-0.145124
-0.0914731
0.0837992
-0.0800922
0.083155
-0.155126
-0.186339
-0.220737
-0.220786
-0.187679
-0.108931
-0.130288
-0.0797631
-0.094311
-0.0522173
-0.0652766
-0.0296978
-0.0404349
-0.0115376
-0.02034
0.00444029
-0.00331553
0.0172351
0.0110579
0.0280629
0.0229103
0.0369903
0.0327005
0.0446938
0.0409926
0.0513038
0.0481285
0.0569694
0.0542496
0.0618181
0.0594763
0.0659846
0.0639781
0.0695587
0.0678459
0.0725926
0.0711384
0.0751549
0.0739303
0.077294
0.0762752
0.0790481
0.0782177
0.0804519
0.0797909
0.0815182
0.0810359
0.0822034
0.0818686
0.082612
0.082482
0.0824258
0.082603
0.0822172
0.0856771
0.0843333
0.0874714
0.0143368
0.00693631
0.0275711
0.0213164
0.038229
0.033192
0.0474944
0.0429934
0.055068
0.051472
0.0615005
0.0584031
0.0670025
0.0643624
0.071698
0.069442
0.075716
0.0737857
0.0791504
0.0775005
0.0820941
0.0806796
0.0845968
0.0833982
0.0867021
0.0856969
0.0884421
0.0876163
0.0898365
0.0891818
0.0908924
0.0904067
0.0916063
0.0912941
0.0919251
0.0918131
0.0919476
0.0919846
0.0918321
-0.0279448
-0.0685876
-0.000177445
0.0072969
0.0889467
0.0908438
-0.00856642
-0.177406
0.0804839
0.0798109
-0.217066
-0.110659
-0.13204
-0.213097
-0.243711
-0.253712
-0.0988463
-0.0867315
-0.159181
-0.184488
-0.114627
-0.135645
-0.081993
-0.0974294
-0.0549217
-0.0679373
-0.0321915
-0.0429929
-0.0137363
-0.0224391
0.00168482
-0.00570944
0.0145961
0.00844667
0.0255634
0.0203111
0.0348037
0.0303802
0.0426401
0.0388843
0.0493291
0.0461163
0.0550619
0.0523077
0.0599642
0.0576093
0.0641717
0.0621495
0.0677689
0.0660435
0.0708312
0.0693638
0.0734149
0.0721802
0.0755709
0.0745442
0.0773383
0.0765017
0.0787499
0.0780862
0.0798358
0.0793382
0.0805388
0.080213
0.0809841
0.0808013
0.0808118
0.0810052
0.0805595
0.0825654
0.0812321
0.0854462
0.0839588
0.0871109
0.0210752
0.014268
0.03337
0.0275446
0.0433903
0.0385873
0.0520362
0.0478869
0.0591882
0.0557813
0.065231
0.0623267
0.0703996
0.067917
0.0748214
0.0726958
0.0786128
0.0767898
0.0818668
0.0803019
0.0846568
0.0833159
0.0870348
0.0858948
0.0890387
0.0880815
0.0906956
0.0899093
0.0920205
0.091399
0.0930189
0.0925602
0.093688
0.093396
0.0940047
0.0938886
0.0940218
0.0940531
0.0936716
0.0939101
-0.29089
-0.275469
-0.118798
-0.248622
0.0928199
0.0933151
-0.0283357
-0.018006
-0.0546992
-0.0400336
-0.108653
-0.322954
-0.290266
-0.246265
-0.315829
-0.269785
0.0157517
0.00877183
-0.161901
-0.370417
-0.354925
-0.0721624
0.0948773
0.0922094
0.094244
-0.371486
-0.216551
-0.282711
-0.205671
-0.233763
-0.159215
-0.180733
-0.117687
-0.137572
-0.0836641
-0.0997048
-0.0564294
-0.0692842
-0.0339915
-0.0446741
-0.0155191
-0.0242533
-0.000283089
-0.00756017
0.0126216
0.00645925
0.0236104
0.0183445
0.0329115
0.0284537
0.0408091
0.0370249
0.0475412
0.0443092
0.0533076
0.050537
0.0582422
0.0558739
0.0624719
0.0604393
0.0660853
0.0643529
0.0691655
0.0676897
0.0717649
0.0705226
0.0739352
0.0729016
0.0757155
0.0748726
0.0771362
0.0764691
0.0782318
0.0777257
0.0789632
0.0786346
0.0794322
0.0792355
0.0794132
0.0795132
0.0790476
0.0791998
0.0820008
0.0789141
0.0806382
0.085006
0.0834781
0.0884083
0.0866507
0.0902635
0.0283255
0.0222039
0.0396473
0.0342395
0.0489771
0.0445164
0.0568812
0.0530956
0.0635056
0.06034
0.0691128
0.0664188
0.0739184
0.0716075
0.0780459
0.0760598
0.0815994
0.0798888
0.0846609
0.0831871
0.087296
0.0860283
0.0895515
0.088469
0.0914598
0.0905474
0.0930429
0.092291
0.0943115
0.0937162
0.0952663
0.0948285
0.0958944
0.0956227
0.0961823
0.0960798
0.0961387
0.0962038
0.0957576
0.0959861
0.0953805
0.000998417
-0.0163983
-0.00735813
-0.0396208
-0.0269069
-0.148771
-0.30423
-0.265877
-0.391995
-0.416154
0.0776072
0.0774858
-0.0939812
-0.0545242
0.0914719
0.0934393
-0.346036
-0.25406
-0.341868
-0.208177
-0.144189
0.0183026
0.0247098
-0.202192
-0.230827
-0.156332
-0.178108
-0.117134
-0.135837
-0.0838944
-0.0996536
-0.0569966
-0.0696772
-0.035026
-0.0454778
-0.0168093
-0.0254689
-0.00165428
-0.00888815
0.0111453
0.00502368
0.0220318
0.016818
0.0312637
0.0268351
0.0391401
0.0353619
0.0458717
0.0426393
0.0516416
0.0488691
0.056588
0.0542126
0.0608304
0.0587918
0.0644599
0.0627183
0.0675546
0.0660716
0.0701704
0.0689198
0.0723582
0.0713159
0.074157
0.0733048
0.0755961
0.0749203
0.0767073
0.0761922
0.0774806
0.0771317
0.0779739
0.0777644
0.0780901
0.0780995
0.077945
0.0814668
0.0785805
0.0800062
0.0844284
0.0829279
0.0877531
0.0860429
0.0895684
0.0362076
0.0306235
0.0463479
0.0414709
0.0548293
0.0507753
0.0619849
0.0585564
0.0680352
0.0651365
0.0731808
0.0707083
0.0775994
0.0754728
0.0814098
0.0795744
0.0847045
0.0831167
0.0875568
0.0861822
0.0900225
0.0888352
0.0921423
0.0911237
0.0939436
0.0930815
0.0954432
0.0947305
0.0966475
0.0960823
0.097553
0.0971382
0.0981468
0.09789
0.0984137
0.0983218
0.0983392
0.0984211
0.0978911
0.0981629
0.0969959
0.0975243
-0.431606
0.0774112
-0.0714059
-0.117721
0.0955006
0.0963311
-0.292243
-0.433407
-0.383658
-0.0360926
0.0114758
0.00410605
-0.003923
-0.0132806
-0.0237901
-0.183951
-0.409997
-0.258814
-0.259067
-0.295322
0.0341378
0.0285062
0.0783338
0.0771949
-0.050277
-0.487129
-0.142332
0.0976745
0.0945399
0.0966529
-0.199068
-0.227098
-0.152128
-0.174335
-0.113939
-0.131946
-0.0824246
-0.0973816
-0.0565218
-0.0687992
-0.0351807
-0.0453353
-0.0174095
-0.0258805
-0.00249972
-0.00962401
0.0100935
0.00406903
0.0208001
0.0156707
0.0299085
0.0255369
0.0377049
0.0339615
0.04439
0.0411782
0.0501314
0.0473719
0.055064
0.0526937
0.0593013
0.057265
0.0629333
0.0611891
0.0660331
0.0645475
0.0686581
0.0674026
0.0708583
0.0698096
0.0726724
0.0718123
0.0741299
0.0734448
0.0752589
0.0747346
0.0760643
0.0756994
0.0765768
0.0763583
0.0767346
0.0767113
0.0764248
0.0766355
0.0763217
0.076373
0.0809251
0.0795509
0.0838035
0.0823499
0.0869939
0.0853414
0.0906062
0.0887567
0.092525
0.0444711
0.0395335
0.05338
0.0490846
0.0609227
0.0573138
0.067302
0.0642425
0.0727311
0.0701251
0.0773774
0.0751424
0.0813865
0.0794546
0.0848631
0.0831862
0.0878872
0.0864278
0.0905212
0.08925
0.0928126
0.0917076
0.0947951
0.0938411
0.0964903
0.095678
0.0979101
0.0972345
0.0990559
0.0985178
0.0999193
0.099524
0.100483
0.10024
0.100724
0.100645
0.100617
0.100716
0.100125
0.100422
0.0991965
0.0997255
0.0985111
-0.330936
-0.480942
-0.333837
0.0225018
0.0161187
0.00905435
0.0011712
-0.00756888
-0.0176441
0.0761192
-0.321597
-0.423418
-0.0289798
0.00810465
0.0157395
-0.0910794
-0.468049
-0.530433
-0.5259
-0.182769
0.0999414
0.0989177
0.0934297
0.0954905
-0.248689
-0.2833
-0.19153
-0.218271
-0.145887
-0.167478
-0.109359
-0.126553
-0.0795588
-0.0936696
-0.0549453
-0.0666577
-0.0344515
-0.0442224
-0.0172878
-0.0254828
-0.00280926
-0.00973692
0.00946703
0.00358873
0.0199317
0.0149135
0.0288712
0.0245786
0.036543
0.0328573
0.0431399
0.0399689
0.0488197
0.046089
0.0537107
0.0513596
0.0579201
0.055897
0.0615355
0.0597991
0.0646254
0.0631443
0.0672474
0.065993
0.0694498
0.0683997
0.0712708
0.0704069
0.0727401
0.0720488
0.0738833
0.0733519
0.0747099
0.0743347
0.0752368
0.075012
0.0754307
0.0753803
0.0753157
0.0754012
0.0752331
0.0752769
0.0757768
0.0747043
0.0750418
0.0779243
0.0768583
0.080387
0.0791237
0.0831562
0.0817532
0.0861831
0.084626
0.0896247
0.0878652
0.0914817
-0.00858293
7.62104e-06
0.0339666
0.0224819
0.0284993
0.0441291
0.0391554
0.0530239
0.0487087
0.0606713
0.0569792
0.0672191
0.0640794
0.0727959
0.070118
0.0775773
0.0752782
0.0817009
0.0797147
0.0852822
0.0835542
0.0884097
0.086899
0.0911503
0.0898256
0.093556
0.0923931
0.0956651
0.0946464
0.0975047
0.0966181
0.0990896
0.0983291
0.100428
0.0997899
0.101515
0.101004
0.102338
0.101961
0.102877
0.102646
0.103102
0.103031
0.102976
0.103086
0.102453
0.102768
0.101485
0.102023
0.100785
-0.0398219
-0.0652499
-0.50721
-0.0166951
-0.451475
-0.413685
0.0755451
0.0741175
0.0976512
0.0922251
0.0941713
-0.110892
-0.529123
-0.543129
-0.497094
-0.482495
-0.30004
-0.330899
-0.233719
-0.266827
-0.179923
-0.204901
-0.137649
-0.157492
-0.103618
-0.119735
-0.0755588
-0.0888497
-0.0523541
-0.0634224
-0.0328982
-0.0421984
-0.0164931
-0.024342
-0.002581
-0.00924828
0.0092783
0.00359079
0.0194335
0.014558
0.0281483
0.0239608
0.0356509
0.0320447
0.0421213
0.03901
0.0477074
0.045021
0.0525297
0.0502112
0.0566888
0.0546898
0.0602682
0.0585494
0.0633332
0.0618639
0.0659396
0.0646926
0.0681339
0.0670875
0.0699532
0.0690898
0.0714271
0.0707329
0.0725797
0.0720432
0.0734231
0.0730392
0.0739722
0.0737348
0.0742216
0.0741357
0.0742127
0.0742438
0.0740732
0.0741701
0.0737929
0.0739537
0.0774521
0.0764049
0.0798057
0.0785967
0.0824715
0.0811264
0.0853555
0.0838827
0.0885887
0.0869235
0.0903381
-0.00763394
0.0114238
0.00408851
0.0244049
0.0179873
0.0362467
0.0305048
0.0458982
0.0412597
0.0543004
0.0501895
0.0617424
0.0581602
0.0681597
0.0650661
0.0736827
0.071029
0.0784309
0.0761473
0.0825401
0.0805605
0.0861192
0.0843922
0.0892574
0.0877407
0.0920241
0.0906853
0.0944727
0.093287
0.0966437
0.0955923
0.0985669
0.0976362
0.100262
0.0994434
0.101737
0.101028
0.102996
0.102395
0.104029
0.103543
0.104819
0.104457
0.105339
0.105116
0.105553
0.105488
0.105416
0.105533
0.104869
0.105199
0.103852
0.104422
0.102303
0.103158
0.073384
0.0962556
0.0999826
0.101251
-0.0287592
-0.539551
-0.558821
-0.534338
-0.486535
0.0716481
0.0984744
-0.493321
0.740472
0.234387
0.23528
-0.0661581
0.676234
-0.563453
-0.441053
-0.47004
-0.406394
-0.322227
-0.214139
-0.242481
-0.165685
-0.188293
-0.127582
-0.145515
-0.0964867
-0.111295
-0.0705061
-0.0828817
-0.0488677
-0.0592252
-0.0306043
-0.0393643
-0.0150909
-0.0225366
-0.0018479
-0.00821047
0.00950952
0.0040502
0.0192868
0.0145844
0.0277192
0.023662
0.0350078
0.0315007
0.0413157
0.0382801
0.0467786
0.0441498
0.0515078
0.0492329
0.0555967
0.0536307
0.0591234
0.0574295
0.06215
0.0606986
0.0647297
0.0634951
0.0669068
0.0658682
0.0687172
0.0678576
0.0701898
0.0694956
0.0713482
0.0708082
0.072207
0.0718146
0.072783
0.0725303
0.0730835
0.0729682
0.0731274
0.073136
0.0729773
0.0730825
0.0726746
0.0728203
0.07126
0.0723523
0.0528878
0.0561059
0.053997
0.0548067
0.0554343
0.0558889
0.0563163
0.0566929
0.0570496
0.0573819
0.0576934
0.0579837
0.0582531
0.0585014
0.0587282
0.0589333
0.0591163
0.0592772
0.0594156
0.0595315
0.059625
0.0596961
0.0597452
0.0597725
0.0597784
0.0597637
0.0597287
0.0596744
0.0596015
0.0595109
0.0594037
0.0592807
0.0591432
0.0589923
0.058829
0.0586548
0.0584707
0.0582781
0.0580782
0.0578724
0.0576618
0.0574479
0.0572318
0.0570147
0.056798
0.0565828
0.0563703
0.0561616
0.0559578
0.0557599
0.055569
0.0553858
0.0552114
0.0550465
0.0548919
0.0547483
0.0546163
0.0544964
0.0543892
0.0542951
0.0542144
0.0541474
0.0540943
0.0540553
0.0540305
0.05402
0.054024
0.054043
0.0540765
0.0541208
0.0541739
0.0542565
0.0544118
0.0545738
0.0543732
0.0537634
0.0552793
0.0549379
0.0552014
0.0553015
0.0554979
0.0556768
0.0558805
0.0560894
0.0563107
0.0565408
0.0567808
0.05703
0.0572887
0.0575568
0.0578343
0.0581216
0.0584188
0.0587262
0.0590443
0.0593735
0.0597143
0.0600673
0.0604333
0.0608129
0.061207
0.0616164
0.062042
0.0624851
0.062947
0.0634288
0.0639312
0.0644544
0.0650041
0.0655999
0.0662659
0.0669694
0.0675333
0.0678556
0.0694706
0.0706484
0.0705549
0.0704245
0.0726735
0.0723529
0.0750806
0.0748269
0.0769112
0.0760567
0.0792109
0.0780413
0.0817594
0.0804749
0.084509
0.083108
0.0875448
0.0859846
0.0909152
0.08919
0.0947126
0.0927672
0.100852
0.0990497
0.0968041
0.219557
0.101475
0.104055
0.106692
0.109524
0.11257
0.11593
0.119599
0.123627
0.128012
0.132916
0.138428
0.144576
0.151406
0.158948
0.166979
0.175495
0.185532
0.199828
-0.546714
-0.661444
-0.567483
-0.615345
0.102421
0.103708
0.104744
0.105614
0.106341
0.106931
0.107388
0.107721
0.107939
0.108055
0.108075
0.108008
0.107861
0.10764
0.107352
0.107
0.10659
0.106124
0.105606
0.105039
0.104425
0.103765
0.103059
0.102308
0.10151
0.100667
0.0997764
0.0988368
0.0978452
0.0967996
0.0956956
0.0945303
0.0932981
0.0919949
0.0906135
0.0891485
0.0875912
0.0859347
0.0841687
0.0822848
0.0802706
0.0781157
0.075807
0.0733322
0.0706719
0.067795
0.0647763
0.0615568
0.0581859
0.0545217
0.0504176
0.0458037
0.0419041
0.0360912
0.0315259
0.0259992
0.0142346
-0.00644794
-0.0461178
-0.142204
0.10336
0.106021
0.108795
0.11174
0.114909
0.118348
0.122074
0.126126
0.130525
0.135261
0.140567
0.146346
0.15261
0.159254
0.166082
0.172956
0.181531
0.193878
0.20837
0.217789
0.220961
0.0533599
0.221153
-0.530447
0.20114
0.188014
0.17725
0.16701
0.157557
0.149088
0.141758
0.135335
0.129704
0.124773
0.120411
0.116487
0.112961
0.109743
0.106866
0.104133
0.101886
0.0994711
0.0972052
0.0950832
0.0931827
0.0913481
0.0896649
0.0880581
0.0865106
0.0850458
0.0836531
0.082325
0.0810459
0.0798298
0.0786434
0.0775544
0.0764523
0.0756581
0.0750028
0.0739159
0.0722478
0.071281
0.0709165
0.0699923
0.0696908
0.0688142
0.0678972
0.0672811
0.0667427
0.0661452
0.0655413
0.0649683
0.0644262
0.0639072
0.0634082
0.0629286
0.0624679
0.062025
0.0615988
0.0611882
0.0607925
0.0604107
0.0600422
0.0596862
0.0593421
0.0590093
0.0586875
0.0583761
0.0580749
0.0577835
0.0575018
0.0572296
0.0569667
0.0567133
0.0564692
0.0562351
0.0560099
0.0557969
0.0555899
0.0554058
0.0552084
0.0550964
0.0548402
0.0550136
0.0538646
0.0545494
0.0545671
0.0543182
0.0541457
0.054056
0.0539955
0.0539466
0.0539108
0.0538905
0.0538854
0.0538949
0.0539187
0.0539568
0.0540091
0.0540754
0.0541554
0.0542489
0.0543555
0.0544748
0.0546063
0.0547494
0.0549035
0.0550679
0.0552418
0.0554245
0.055615
0.0558124
0.0560158
0.0562241
0.0564363
0.0566511
0.0568675
0.0570842
0.0573001
0.0575139
0.0577243
0.0579301
0.0581301
0.0583229
0.0585072
0.0586819
0.0588457
0.0589973
0.0591357
0.0592596
0.0593681
0.0594601
0.0595345
0.0595906
0.0596276
0.0596446
0.0596411
0.0596166
0.0595705
0.0595026
0.0594125
0.0593003
0.0591657
0.0590089
0.05883
0.0586293
0.058407
0.0581635
0.057899
0.0576139
0.0573079
0.0569819
0.056632
0.0562699
0.0558545
0.0555548
0.0546141
0.0539099
0.22019
-0.41181
-0.417594
-0.46628
-0.433824
-0.477695
-0.467385
-0.482345
-0.414602
0.070659
0.0712603
0.0715332
0.0717666
0.0719518
0.0720541
0.0720856
0.0720723
0.071998
0.0718612
0.0716588
0.0713919
0.0710584
0.0706574
0.0701865
0.0696433
0.069026
0.0683326
0.06756
0.0667055
0.0657654
0.0647364
0.063614
0.0623942
0.0610717
0.0596414
0.0580967
0.0564314
0.0546387
0.0527112
0.0506397
0.0484154
0.0460277
0.0434657
0.0407175
0.0377696
0.0346078
0.0312163
0.0275778
0.0236732
0.0194832
0.0149826
0.0101491
0.00495554
-0.00062904
-0.00663922
-0.0131103
-0.0200874
-0.0276154
-0.0357504
-0.0445458
-0.0540755
-0.0644158
-0.075675
-0.0879937
-0.101366
-0.115942
-0.131964
-0.149698
-0.169334
-0.191539
-0.214736
-0.296477
-0.386651
-0.36458
-0.337098
-0.425349
-0.400736
-0.369814
-0.452202
-0.429609
-0.398639
-0.474925
-0.450664
-0.423009
-0.488065
-0.460454
-0.44125
-0.464912
0.0700096
0.0699749
0.0704649
0.0698736
0.0706811
0.0699584
0.0708733
0.0700919
0.0710241
0.0701708
0.071093
0.0701933
0.0710999
0.070171
0.0710617
0.0701071
0.0709661
0.0699904
0.0708112
0.0698185
0.0705945
0.069589
0.070316
0.0693008
0.0699739
0.0689517
0.0695666
0.0685401
0.0690922
0.068064
0.0685482
0.0675211
0.0679327
0.0669093
0.0672434
0.0662262
0.0664775
0.0654692
0.0656321
0.0646354
0.0647039
0.0637217
0.0636894
0.0627247
0.0625848
0.0616407
0.0613855
0.0604657
0.0600874
0.0591954
0.0586849
0.057825
0.057173
0.0563496
0.0555446
0.0547634
0.0537946
0.0530604
0.0519148
0.051234
0.0498981
0.0492776
0.0477355
0.0471833
0.0454184
0.0449432
0.0429361
0.0425481
0.0402788
0.0399891
0.0374337
0.0372555
0.0343892
0.0343369
0.0311305
0.0312212
0.0276439
0.0278963
0.0239117
0.0243482
0.0199185
0.0205635
0.0156424
0.0165255
0.0110653
0.0122188
0.00616365
0.00762569
0.000913084
0.00272686
-0.00471479
-0.00249838
-0.0107479
-0.00807141
-0.0172216
-0.014017
-0.0241713
-0.020361
-0.0316399
-0.0271325
-0.0396704
-0.0343622
-0.0483162
-0.0420851
-0.0576326
-0.0503379
-0.0676924
-0.0591635
-0.0785905
-0.0686206
-0.0903953
-0.07878
-0.103178
-0.0897096
-0.117105
-0.101493
-0.132525
-0.114397
-0.149216
-0.128512
-0.167665
-0.144264
-0.188107
-0.16235
-0.21051
-0.182938
-0.236543
-0.207291
-0.267443
-0.233689
-0.300986
-0.264011
-0.333112
-0.294146
-0.362694
-0.321745
-0.387659
-0.347334
-0.410048
-0.372724
-0.424268
-0.39644
-0.41259
-0.441829
-0.421974
-0.449037
-0.458742
-0.471393
0.055455
0.0549766
0.0537953
0.0532567
0.0525756
0.0524292
0.0518156
0.0515107
0.0508616
0.0504254
0.050116
0.0495767
0.0491026
0.0486668
0.0482287
0.0477856
0.0473426
0.0469011
0.0464601
0.0460192
0.0455788
0.0451395
0.0447013
0.0442649
0.0438341
0.0434184
0.0430002
0.042594
0.0421212
0.0416935
0.0411486
0.0409601
0.0404016
0.0397917
0.0392997
0.0388823
0.0385113
0.0378752
0.0373481
0.0368739
0.0365064
0.0358953
0.0353151
0.0347694
0.0342331
0.0333848
0.0330436
0.0323337
0.031627
0.0307739
0.0303336
0.0294065
0.0287449
0.0281304
0.0271791
0.0262671
0.0254363
0.0246105
0.02365
0.0227814
0.0216314
0.0205936
0.019798
0.0184786
0.0175472
0.0165501
0.0152766
0.0142031
0.0132244
0.0121688
0.0112965
0.00994116
0.00930829
0.0695744
0.0677486
0.0673767
0.0669467
0.0663061
0.0656465
0.0650473
0.0644957
0.0639704
0.0634649
0.0629799
0.0625158
0.0620717
0.061646
0.0612374
0.0608451
0.060468
0.0601052
0.0597559
0.0594195
0.0590951
0.0587822
0.0584803
0.0581889
0.0579077
0.0576363
0.0573746
0.0571223
0.0568796
0.056646
0.0564224
0.0562075
0.0560046
0.0558078
0.0556319
0.0554478
0.0553196
0.0551081
0.0550387
0.054638
0.0546129
0.0546717
0.0545798
0.054453
0.0543683
0.0543151
0.0542749
0.054245
0.0542285
0.0542265
0.054239
0.0542654
0.0543058
0.0543601
0.054428
0.0545095
0.0546042
0.0547118
0.0548319
0.054964
0.0551075
0.0552618
0.0554264
0.0556003
0.0557828
0.0559731
0.0561702
0.0563732
0.056581
0.0567925
0.0570067
0.0572223
0.0574382
0.0576532
0.057866
0.0580753
0.0582799
0.0584784
0.0586697
0.0588523
0.0590251
0.0591868
0.0593362
0.059472
0.0595932
0.0596986
0.0597872
0.059858
0.0599101
0.0599427
0.059955
0.0599464
0.0599164
0.0598644
0.0597901
0.0596934
0.059574
0.0594319
0.0592673
0.0590802
0.058871
0.0586398
0.0583869
0.0581127
0.0578173
0.0575005
0.0571621
0.0567998
0.0564115
0.0559896
0.0555198
0.0550881
0.0544694
0.0548587
0.0536829
0.0541852
0.0542392
0.0539684
0.0533739
0.0527709
0.0523083
0.0517845
0.051351
0.0510424
0.0504619
0.0499614
0.0495625
0.0490989
0.0486394
0.0481919
0.0477475
0.0473047
0.0468639
0.0464245
0.0459865
0.0455503
0.0451161
0.044684
0.0442535
0.0438244
0.0433982
0.0429843
0.0425601
0.0421362
0.0417229
0.0412129
0.0407711
0.0403491
0.0398414
0.0393665
0.0388927
0.0384435
0.0379377
0.0373519
0.0368565
0.0365176
0.0360223
0.0353672
0.0347377
0.0341916
0.0335552
0.0329739
0.0323648
0.0316693
0.0309215
0.0302722
0.0295815
0.0288372
0.0281037
0.0272793
0.026388
0.0255493
0.0246298
0.0239107
0.0227639
0.0217882
0.020833
0.0198713
0.0187911
0.0177524
0.0167168
0.0156024
0.0145015
0.013525
0.0125228
0.0115158
0.0103406
0.0692849
0.0682733
0.0675815
0.0670033
0.0663656
0.0657122
0.0651001
0.064533
0.0639968
0.0634839
0.0629936
0.0625258
0.0620795
0.0616531
0.0612452
0.0608546
0.0604804
0.0601214
0.0597769
0.0594459
0.0591278
0.0588217
0.0585272
0.0582437
0.0579707
0.057708
0.0574551
0.0572118
0.0569782
0.0567539
0.0565394
0.0563338
0.0561393
0.0559521
0.0557804
0.0556078
0.0554616
0.0552843
0.0551606
0.0549938
0.0548597
0.0548216
0.0547608
0.0546711
0.0545951
0.0545428
0.0545061
0.0544808
0.0544681
0.0544691
0.0544841
0.0545128
0.0545551
0.0546109
0.05468
0.0547624
0.0548576
0.0549655
0.0550855
0.0552173
0.0553603
0.0555139
0.0556775
0.0558504
0.0560317
0.0562206
0.0564163
0.0566177
0.0568239
0.0570339
0.0572464
0.0574604
0.0576748
0.0578882
0.0580995
0.0583073
0.0585105
0.0587078
0.0588978
0.0590793
0.059251
0.0594116
0.05956
0.0596948
0.059815
0.0599195
0.0600071
0.0600769
0.0601279
0.0601594
0.0601705
0.0601606
0.0601291
0.0600756
0.0599996
0.059901
0.0597796
0.0596353
0.0594682
0.0592784
0.0590662
0.0588319
0.0585758
0.0582981
0.0579991
0.0576789
0.0573374
0.0569738
0.056588
0.0561801
0.0557548
0.055325
0.0549497
0.0546163
0.0542181
0.0541319
0.0542276
0.0539395
0.0534343
0.0528565
0.0523426
0.0518624
0.0513812
0.0509759
0.0504757
0.0499709
0.0495677
0.0491253
0.0486657
0.0482135
0.0477685
0.0473273
0.0468884
0.0464513
0.0460162
0.0455836
0.0451541
0.0447281
0.0443053
0.0438858
0.0434682
0.0430521
0.0426318
0.0422197
0.0417715
0.0413164
0.0408002
0.0403314
0.0398962
0.039427
0.0389556
0.0384803
0.0380279
0.037468
0.0369865
0.036604
0.0361819
0.0354929
0.0348283
0.0342701
0.0336892
0.033088
0.032474
0.0318198
0.0311209
0.0304406
0.0297147
0.0289931
0.0282587
0.0274469
0.0266053
0.0257747
0.024876
0.0240767
0.0228927
0.0220643
0.0211364
0.0201386
0.0191021
0.0180668
0.0170272
0.0159822
0.0149323
0.0139447
0.0129141
0.0118667
0.0109405
0.0106269
0.0103603
0.0101433
0.00970265
0.00908335
0.00747895
0.0693061
0.0685152
0.0677273
0.0670396
0.0663859
0.0657414
0.0651245
0.0645449
0.0639981
0.0634782
0.0629829
0.0625113
0.0620626
0.0616352
0.0612276
0.0608387
0.0604672
0.0601122
0.0597725
0.0594474
0.0591359
0.0588374
0.058551
0.0582763
0.0580127
0.0577597
0.0575171
0.0572843
0.0570615
0.0568481
0.0566445
0.05645
0.0562659
0.0560897
0.0559257
0.0557652
0.0556212
0.0554716
0.0553511
0.0552172
0.0550929
0.055024
0.0549689
0.0549024
0.0548396
0.0547929
0.0547617
0.0547427
0.0547359
0.0547419
0.0547611
0.0547936
0.0548391
0.0548976
0.054969
0.0550531
0.0551497
0.0552584
0.0553789
0.0555107
0.0556534
0.0558064
0.055969
0.0561406
0.0563204
0.0565076
0.0567014
0.0569008
0.0571049
0.0573126
0.0575229
0.0577346
0.0579465
0.0581576
0.0583666
0.0585722
0.0587733
0.0589684
0.0591565
0.0593361
0.059506
0.0596649
0.0598117
0.059945
0.0600639
0.060167
0.0602534
0.060322
0.0603719
0.0604022
0.0604122
0.0604012
0.0603686
0.0603138
0.0602366
0.0601365
0.0600136
0.0598677
0.0596988
0.0595071
0.0592929
0.0590564
0.058798
0.0585181
0.0582171
0.0578955
0.0575538
0.0571927
0.0568137
0.0564202
0.0560173
0.05562
0.055225
0.0549045
0.0545855
0.0543703
0.054239
0.0539337
0.053451
0.0529227
0.0524291
0.0519623
0.0514977
0.0510461
0.0505798
0.0501091
0.0496654
0.0492191
0.0487647
0.0483134
0.0478684
0.0474278
0.0469899
0.0465541
0.0461207
0.0456903
0.0452633
0.0448397
0.0444192
0.0440011
0.043583
0.0431639
0.0427381
0.0423206
0.0418821
0.0414315
0.0409252
0.0404749
0.0400381
0.0395829
0.0391199
0.0386459
0.0381809
0.0376429
0.0371738
0.0367543
0.0362957
0.0356328
0.0350212
0.0344621
0.0338895
0.0332914
0.0326713
0.0320253
0.031348
0.0306619
0.029953
0.0292286
0.0284823
0.0276929
0.0268699
0.0260341
0.0251597
0.0242713
0.0233172
0.0223975
0.0214536
0.0204721
0.0194635
0.0184466
0.0174279
0.0164062
0.0153843
0.01438
0.013386
0.0124344
0.0115936
0.0110517
0.0106617
0.0101779
0.00950285
0.00879941
0.00798203
0.0693487
0.0685644
0.067772
0.0670458
0.0663741
0.0657287
0.0651082
0.0645198
0.063964
0.0634375
0.0629376
0.0624628
0.0620119
0.0615837
0.0611768
0.0607898
0.0604215
0.0600707
0.0597365
0.0594178
0.0591138
0.0588235
0.0585462
0.0582814
0.0580283
0.0577864
0.0575554
0.0573347
0.0571243
0.0569237
0.056733
0.0565516
0.0563803
0.0562174
0.0560651
0.0559195
0.0557862
0.0556572
0.0555427
0.0554305
0.0553294
0.0552576
0.0552034
0.0551506
0.0551019
0.055065
0.055042
0.0550316
0.0550328
0.0550462
0.055072
0.0551103
0.055161
0.0552241
0.0552995
0.0553869
0.0554861
0.0555969
0.0557189
0.0558517
0.0559947
0.0561476
0.0563097
0.0564803
0.0566588
0.0568443
0.057036
0.0572331
0.0574346
0.0576395
0.0578468
0.0580554
0.0582642
0.058472
0.0586777
0.05888
0.0590778
0.0592697
0.0594545
0.059631
0.0597979
0.0599539
0.0600979
0.0602286
0.0603448
0.0604455
0.0605295
0.060596
0.0606438
0.0606721
0.0606802
0.0606673
0.0606328
0.0605763
0.0604973
0.0603955
0.0602709
0.0601232
0.0599525
0.0597591
0.0595431
0.0593048
0.0590448
0.0587636
0.0584618
0.0581401
0.0577997
0.057442
0.0570693
0.0566857
0.0562948
0.0559094
0.0555277
0.0551961
0.0548757
0.0545873
0.0543126
0.0539669
0.053529
0.053051
0.0525781
0.0521159
0.0516549
0.0511968
0.0507373
0.0502746
0.0498193
0.0493688
0.0489176
0.0484683
0.0480234
0.0475825
0.0471446
0.0467094
0.0462771
0.0458479
0.0454217
0.0449983
0.0445772
0.0441577
0.0437381
0.043318
0.0428941
0.0424673
0.0420289
0.0415797
0.0411218
0.0406739
0.0402294
0.0397757
0.0393147
0.0388447
0.0383712
0.0378844
0.0374052
0.0369255
0.0364156
0.0358482
0.0352715
0.034705
0.0341288
0.0335324
0.0329147
0.0322754
0.0316115
0.0309305
0.0302304
0.029508
0.0287614
0.0279846
0.0271758
0.0263449
0.0254847
0.0246056
0.0236962
0.0227647
0.0218207
0.0208562
0.0198701
0.0188716
0.0178684
0.0168628
0.01586
0.0148717
0.0139128