/*--------------------------------*- C++ -*----------------------------------*\
  =========                 |
  \\      /  F ield         | OpenFOAM: The Open Source CFD Toolbox
   \\    /   O peration     | Website:  https://openfoam.org
    \\  /    A nd           | Version:  10
     \\/     M anipulation  |
\*---------------------------------------------------------------------------*/
FoamFile
{
    format      ascii;
    class       surfaceScalarField;
    location    "38.5";
    object      phi;
}
// * * * * * * * * * * * * * * * * * * * * * * * * * * * * * * * * * * * * * //

dimensions      [0 3 -1 0 0 0 0];

internalField   nonuniform List<scalar> 
81299
(
0.0319156
0.0277779
-0.0407897
-0.0189038
0.0526117
-0.0322502
0.0115541
-0.0544237
-0.0256906
0.0204285
0.0596859
-0.00954613
0.0307449
-0.0756225
0.0781938
-0.0821392
-0.00560069
0.0606166
-0.00811345
0.0858682
-0.00482305
-0.0447661
0.0355879
0.0688641
0.0456227
-0.0596439
-0.0606041
-0.0327405
0.0120163
0.0813283
0.000649821
-0.0350611
-0.0261928
0.0385662
-0.00866111
-0.0292553
-0.0182958
0.0241214
-0.043789
-1.05268e-06
0.0558064
-0.021876
0.0102554
-0.0321685
-0.0291592
-0.130411
0.0317389
0.114313
-0.0156403
-0.00895504
0.018981
-0.0197919
0.0204447
0.0257878
-0.0202164
-0.0260161
0.000856721
0.0544378
-0.0348498
-0.0387512
-0.0360146
-0.0116952
0.00344479
0.0162324
-0.00798197
-0.0187421
-0.00161423
0.000223764
-0.038976
-0.0810745
0.0275264
0.085287
0.03679
-0.0490005
0.0817703
0.0141856
-0.0684295
0.0767782
-0.00659018
0.0115823
-0.0618486
0.0340873
0.0482014
-0.0204401
-0.0094149
-0.0935883
0.0411546
0.0749982
-0.00763484
-0.0148914
0.0228313
0.0181069
-0.0236172
-0.017321
0.0128279
0.0186322
-0.00862875
-0.0190567
0.0127729
0.0191117
0.0108206
-0.0117704
0.0215573
-0.0214953
-0.00785972
0.00779766
-0.00026669
0.0233659
-0.00154185
0.0029096
-0.0136243
-0.0107806
-0.0181607
0.0194403
0.00163002
0.000499041
-0.0191146
0.000454849
0.00234713
-0.0154724
-0.0174255
0.00899204
0.00121776
-0.0193117
-0.00102065
0.00400735
-0.018262
-0.015874
0.0024559
-0.0334255
-0.0350901
0.0209628
0.0475528
-0.0313712
0.0192195
-0.0212738
0.0192147
-0.043478
-0.00710786
-0.0376479
0.0217725
-0.0428059
0.0252075
0.0393933
-0.021795
0.0211224
-0.0429654
0.0925318
0.0178319
-0.0552655
-0.0550982
-0.00563992
0.029434
0.0687377
-0.0649748
0.0583078
0.00102704
0.0103264
-0.0574693
0.0217266
-0.0429048
0.0670203
-0.0739171
0.0960503
-0.0483618
0.0193319
0.0649609
0.0605233
-0.044568
0.0348611
0.0403995
-0.0306926
0.0268501
-0.0462106
0.049782
0.0220809
-0.0450127
0.0156259
0.0690172
0.000987702
-0.000521691
-0.00191599
0.00144998
-0.00118165
0.00216936
-0.00170334
-0.000145029
0.000201239
0.000519702
-0.000575912
0.000163616
-0.000308646
0.000364855
-8.35076e-06
0.000646632
0.000735407
-0.00137369
0.000391497
-0.000399848
0.00103813
0.0344767
0.00170983
-0.006543
-0.0296436
0.025277
-0.0201234
0.0293232
-0.0248408
-0.0121681
-0.0109628
0.00480002
-0.00841016
-0.00457118
0.00818132
-0.0296659
0.0110229
0.0183762
-0.0139753
-0.0108905
-0.0130764
0.0240994
0.0110545
-0.0239119
0.029642
-0.0167846
-0.0287545
-0.00366908
-0.00223785
-0.000475573
-0.026041
-0.00185621
-0.0242936
-0.0197984
-0.0231486
0.028724
0.014223
-0.00797876
0.0190014
-0.0308211
0.0037866
-0.034914
0.066973
0.0397906
-0.0214708
-0.0852929
0.0136949
-0.116285
0.103631
-0.00104124
0.0914455
-0.0107776
0.0015629
-0.0625114
-0.055336
0.0457411
-0.0822192
-0.010001
0.0464791
0.0129785
0.0235707
-0.0142268
-0.0188768
0.00953282
-0.0208396
0.0421447
0.00226563
-0.0097809
-0.0176017
-0.00343521
-0.0205725
-0.0224299
0.000117945
0.117958
0.00174149
-0.0476337
0.045529
0.0716665
0.000762256
-0.00509537
0.00029105
-0.000666896
0.00547122
-0.000406251
0.00140991
-0.00609903
-0.00598447
0.00541329
-0.00129812
0.0018693
-0.00617375
0.00234657
-0.00215729
0.0285519
0.0214381
-0.0313815
-0.0186086
0.020546
0.0164135
0.00111998
-0.0124984
-0.0050351
0.00286307
0.00648364
0.00706682
-0.00127148
-0.00815181
0.0092158
0.000207488
0.0201469
-0.0105978
-0.0146725
0.0374059
0.0227957
0.01332
0.00669601
-0.00508026
-0.0149358
-0.0143082
-0.0020154
0.0166719
-0.00911174
0.0158057
0.0122596
0.0227885
-0.0244344
-0.00452275
0.0289571
-0.0106723
-0.0137621
-0.0229509
0.0334862
-0.0212076
0.00480966
-0.0111306
-0.01663
-0.000971668
-0.00451559
0.00548725
-0.00687961
-0.00751492
0.0134229
-0.00895239
0.00190167
-0.00193534
-0.0182283
-0.0151872
0.00121489
-0.012843
-0.0124377
0.00205059
0.00654982
-0.00346479
-0.00308504
-0.00561831
0.0341041
0.00248705
0.00214913
0.0250888
-0.0380113
0.00367676
0.0334808
0.000853698
-0.0281663
0.00285383
-0.0126989
0.0314166
0.0130788
-0.0256045
-0.0188909
0.0221886
0.0274979
-0.0306851
0.0140134
0.0368993
0.0518335
0.015455
-0.00490511
0.0325478
0.00565432
-0.033297
0.0369058
-0.0354625
-0.00634842
0.00316625
-0.00266293
0.0364025
-0.00103374
0.0367478
0.0330356
-0.0254706
-0.0114956
0.00393064
0.0372242
0.00146568
-0.0110652
-0.000173713
0.00158355
0.00965531
-0.00938306
0.00200194
-0.00368403
-0.00777349
-0.00536915
0.00375958
-0.00391212
0.00325352
0.001394
-0.000550455
-0.000977549
0.000154316
-0.00159951
0.0172019
-0.0180948
0.0306315
0.056201
0.0453256
-0.00511254
0.000160774
0.00166982
0.00358269
-0.000694212
0.000692816
0.000162171
-0.00198565
-6.67725e-06
0.000274502
0.00208814
-9.4383e-05
-0.00278014
-0.00329922
-0.00199915
-8.08838e-05
-0.0041491
-0.000630193
-0.00994466
0.0104155
0.000706732
-0.00117757
-0.0150179
0.00675326
-0.00168001
-0.0155729
0.000919203
-0.000364185
-0.00144432
0.000964793
0.0199682
0.00128426
-0.0337508
0.0254688
0.000983047
-0.0277032
-0.00200834
0.0551803
-0.0432326
0.0181444
0.048039
0.00337744
-0.0410009
0.0075798
-0.0092011
-0.000387044
-0.000827366
0.00844129
-3.4127e-05
0.0250976
-0.00879428
0.000576227
-0.0258783
-0.0136792
0.0182291
0.0213284
-0.00385707
0.0273896
0.0244938
-0.0129112
-0.0389722
-0.0139631
0.00456469
0.036788
0.0327266
-0.0221959
-0.000700489
0.00225655
0.000313238
0.00135138
0.000294696
-0.0123397
0.00927409
0.0028919
-0.0109664
0.000628637
0.0673399
-0.00281358
-0.0515478
0.0265849
-0.00760678
0.0251822
0.00845677
-0.00296
-0.030679
-0.0154929
0.0023276
0.0383475
0.0227943
-0.0298305
-0.018031
-0.0166353
0.0221048
0.0125616
0.00347241
0.00270305
-0.0242065
0.0146942
-0.0278571
0.0212605
-0.0424534
0.0168259
-0.038798
0.0033551
0.00459204
0.0057728
-0.0137199
-0.000551644
0.00369473
0.000212005
-0.0027421
0.000746131
-0.00318516
0.0474075
0.0151468
-0.0275872
-0.0349671
0.0135448
0.0742622
-0.028647
0.00102297
0.0411689
-0.0255697
0.0120695
-0.00324712
-5.47508e-05
0.000757341
0.00254453
-0.000206762
-0.00344661
0.00192336
-0.00213012
0.00186861
-0.0276632
0.0323278
-0.00233695
0.000815551
-0.0314388
-0.00372175
0.000566194
0.00122529
-0.00932311
-0.00286503
-0.00133971
-0.0117431
0.0382346
-0.00519482
-0.0477123
0.0182912
0.0238849
-0.00394152
0.0481829
0.0354565
0.0381192
-0.0222131
-0.0513627
0.0296946
0.0357941
-0.0300322
-0.0252063
0.0263072
0.0285938
-0.0202025
0.0331154
0.0590303
0.0237174
-0.0110811
-0.00686955
0.0436868
0.0166384
-0.017472
0.0253819
-0.0292035
0.02046
-0.0200406
-0.00120643
0.00102165
-0.0198848
-0.0011775
-0.00268726
0.0389965
0.0118737
-0.0262699
0.016598
0.00967193
0.0218318
0.0226565
-0.0181812
-0.0030497
0.00870143
0.0129805
-0.0427649
0.0199691
-0.00572113
0.028517
-0.0393065
-7.5333e-05
-0.00338314
0.00414346
-0.00106291
-0.00267605
-0.000404498
0.00373099
-0.000254428
0.0414438
-0.0243998
0.0135876
-0.00720674
0.00176083
0.00400737
0.00143854
-0.00117435
0.00187095
-0.00790334
0.0113383
-0.0214651
0.00895238
0.00473799
0.00836118
0.00327877
-0.000346593
0.0010752
0.00632118
-0.00635068
0.0034743
0.00425778
6.8344e-05
-0.000528002
0.000459658
-0.000219439
0.000287784
0.0175858
0.0135359
-0.00824848
-0.0228731
0.0181061
-0.0281075
-0.0214166
0.013953
-0.0108392
0.00295846
0.0359063
-0.00577127
-0.0338041
-0.00347922
0.0322777
-0.0334884
0.00639705
0.0236121
-0.00977404
-0.0294856
0.016786
0.0330749
-0.0103963
-0.0394646
0.0259286
-0.039811
0.0306684
-0.0158982
0.00332319
0.0385036
0.0408397
-0.023663
0.00499175
-0.0188429
-0.00329253
0.0171437
-0.0176111
-0.00286777
-0.0164849
0.0061612
0.00185555
0.000296999
-0.00226345
0.00812766
-0.00057936
0.00273191
0.000283422
-0.00174605
-0.00668918
-0.000985382
0.0012688
-0.00273143
0.00162895
0.000200739
0.00186505
-0.000900587
0.00252953
-0.000699848
-0.0149139
-0.0105423
0.015894
0.00956219
0.00299377
0.00604663
-0.0239543
0.0174919
-0.0250404
-0.0112848
-0.00833003
0.00254252
0.0170723
0.0162443
-0.0310389
0.0375889
-0.0396034
0.00709146
0.048756
-0.0162441
-0.0330765
0.000564787
0.0326286
-0.000116805
0.00155478
0.0327243
-0.0321756
-0.00210345
0.00124841
0.0340434
-0.033737
0.00168113
0.0340959
-0.0345286
0.00160867
0.0344235
-0.034351
0.00051187
0.0342392
-0.0331424
0.00254642
0.0335862
-0.0356208
0.0046742
0.0326112
-0.0347389
0.00462969
0.0338678
-0.0338233
0.00598158
0.0324362
-0.0337881
0.00593024
0.033533
-0.0334817
0.00711153
0.0322934
-0.0334747
0.00706037
0.0332488
-0.0331977
0.00808638
0.0321875
-0.0332135
0.00803688
0.0330111
-0.0329616
0.00892334
0.0321116
-0.0329981
0.00887663
0.0328151
-0.0327684
0.0108479
0.0308517
-0.032823
0.0101985
0.0332654
-0.032616
0.0102525
0.032635
-0.032689
0.0102136
0.0325356
-0.0324967
0.0107761
0.032025
-0.0325875
0.0107423
0.0324478
-0.032414
0.0112262
0.0320375
-0.0325214
0.0111977
0.032393
-0.0323645
0.0116158
0.0320704
-0.0324885
0.0115931
0.0323711
-0.0323484
0.0119573
0.0321252
-0.0324894
0.0119411
0.0323827
-0.0323665
0.012262
0.0322046
-0.0325256
0.0122531
0.03243
-0.032421
0.0125407
0.0323123
-0.0325999
0.01254
0.032516
-0.0325154
0.0128006
0.0324547
-0.0327152
0.00956814
0.0358857
-0.0326533
0.0111105
0.0313352
-0.0328775
0.0210291
0.0270451
-0.0369637
-0.0124927
0.00355881
0.029963
-0.0380032
0.0291872
-0.0349764
-0.0028375
0.00375679
0.0340572
-0.00266414
0.000597833
-0.0329101
-0.0038895
0.0347956
-0.0335702
0.0349683
-0.00510318
-0.0337546
0.00354619
-0.00413572
0.0355578
0.0355043
-0.00479562
0.00230672
0.0352132
0.0339682
-0.035007
-0.00195211
0.00134458
0.0347034
0.034398
-0.000949601
0.000917998
0.0342708
0.0348184
-0.00111493
0.00123041
0.0324957
0.0333893
-0.00113775
0.00104683
0.0325271
0.0339604
-0.000953203
0.00086347
0.0323831
0.0336266
-0.000773045
0.000686657
0.0322739
0.0333393
-0.00059997
0.000516636
0.0321949
0.0330978
-0.00100226
-0.000855056
0.032709
0.0323294
0.000327502
0.000196383
0.0321112
0.0327379
-0.000118663
4.32143e-05
0.0321004
0.0326134
3.19134e-05
-0.00010518
0.0321108
0.0325229
0.000178227
-0.000249763
0.0321419
0.0324661
0.000321093
-0.000391164
0.0321953
0.0324424
0.000461034
-0.000529858
0.0322734
0.0324526
0.000598503
-0.000666269
0.0323801
0.0324986
0.000733824
-0.000567281
0.0322881
0.0325836
-0.00307234
0.00174521
0.0326623
0.0322461
0.0323491
0.00271349
0.00131879
-0.0362079
-0.0337991
0.0371105
-0.00217146
0.00190592
-0.0342631
-0.0345897
-0.00154907
0.00326556
-0.0348589
-0.0339941
-0.00316591
0.0020483
-0.0336213
-0.0355211
-0.00119615
0.00109002
-0.033682
-0.0329711
-0.000985398
0.000885886
-0.0333752
-0.0333771
-0.000787619
0.000693662
-0.0331195
-0.0330994
-0.000601072
0.000511917
-0.0329089
-0.0328691
-0.000424077
0.000339791
-0.0327387
-0.0326805
-0.000254475
0.000172588
-0.0326071
-0.0325307
-9.3106e-05
1.47088e-05
-0.0325091
-0.0324172
6.27027e-05
-0.00013902
-0.0324451
-0.0323366
0.000214173
-0.000288503
-0.0324141
-0.0322894
0.000361741
-0.000434456
-0.0324166
-0.0322751
0.00050615
-0.000577571
-0.0324541
-0.0322948
0.000647998
-0.000718155
-0.0325297
-0.0323506
0.000786493
-0.000852306
-0.0326494
-0.0324471
0.000915636
0.000401226
-0.0341944
-0.0325899
0.00267626
-0.00781286
-0.0328666
-0.0338862
-0.00500754
-0.0357927
0.0366645
-0.0367379
-0.00527007
0.0370004
0.00585663
-0.00693495
-0.0356596
-0.0350392
-0.0370488
-0.00840418
0.0401829
-0.0362136
-0.00777007
-0.0106619
-0.0375533
-0.00317082
0.00187256
0.0312613
-0.00456158
0.030578
-0.00118692
-0.0347922
0.00319885
-0.00449125
-0.0322778
0.00271996
-0.0324313
-0.00485107
-0.0333948
-0.00665149
0.005534
-0.0345421
-0.035104
-0.00776112
-0.0458777
-0.00442568
0.0399071
-0.00778652
-0.04234
-0.00241327
0.0364049
-0.00253234
0.00305417
0.0364786
0.0352373
-0.00307709
0.00251719
0.0361177
0.0366416
-0.00251662
0.00112754
0.0354462
0.0355048
-0.000816179
0.000983878
0.0350455
0.0342796
-0.00106875
0.00146443
0.0343078
0.0343131
-0.00135846
0.00157812
0.0340512
0.0349244
-0.00195779
0.00116865
0.0332848
0.0330096
-0.00107379
0.000984101
0.0326168
0.0340553
-0.00089648
0.00081007
0.0324696
0.0337143
-0.000725075
0.000641398
0.0323576
0.0334243
-0.000559246
0.000478502
0.0322757
0.03318
-0.000166966
0.000320077
0.0325559
0.032641
-0.000243287
0.000167906
0.0321865
0.0328147
-9.30717e-05
1.91618e-05
0.0321743
0.0326882
5.37129e-05
-0.000125622
0.0321827
0.0325958
0.000196615
-0.000266842
0.0322121
0.0325371
0.0003363
-0.000405089
0.032264
0.0325118
0.000473226
-0.000540789
0.032341
0.0325207
0.000607833
-0.00067436
0.0324466
0.0325656
0.000740202
-0.00103795
0.0325859
0.0326494
0.000950032
-0.00121842
0.0329307
0.0321582
0.0330033
-0.00317082
0.0320901
-0.0343413
-0.0043512
0.0375055
-0.0342459
0.0362828
-0.00118322
-0.00658538
-0.0248067
-0.00260141
0.00164104
-0.0352476
-0.0336806
-0.00162212
0.00166349
-0.0343045
-0.0345708
-0.00242129
0.00218126
-0.0346189
-0.0347519
-0.000754125
0.000670634
-0.0335378
-0.034094
-0.00128864
0.0011765
-0.0335698
-0.0335891
-0.00107095
0.000967663
-0.0332719
-0.0332715
-0.000868897
0.000771768
-0.0330224
-0.0330006
-0.000678578
0.000586651
-0.032817
-0.0327759
-0.000498311
0.00041117
-0.0326516
-0.0325922
-0.000326966
0.000242773
-0.0325229
-0.0324465
-0.000161254
8.04816e-05
-0.0324284
-0.0323357
-2.06243e-06
-7.60884e-05
-0.0323669
-0.0322582
0.000152194
-0.000228242
-0.0323381
-0.0322133
0.000302485
-0.000376837
-0.0323423
-0.0322009
0.000449588
-0.000522589
-0.0323811
-0.0322221
0.00059417
-0.000666316
-0.0324576
-0.032279
0.000738207
-0.000812425
-0.0325752
-0.0323752
0.000885515
-0.00173757
-0.0333423
-0.0325169
0.00275056
-0.00167395
-0.0339432
-0.0328732
0.00267604
-0.034187
-0.00283034
-0.0337901
-0.0343563
0.00363301
-0.00394533
-0.0319655
0.00288665
-0.0316849
-0.00464374
-0.0326964
-0.0047648
0.00454326
-0.0343205
-0.00450434
-0.0353645
-0.00265521
0.00241327
-0.033945
-0.0338567
0.034866
-0.00383955
-0.00239774
-0.0341142
-0.00978335
-0.0438809
-0.038012
-0.00731138
0.000256694
0.0328553
-0.0380421
-0.00773098
-0.0327708
-4.9013e-05
-0.00505934
0.00567812
0.0402209
-0.0444368
0.000407771
0.0435847
-0.0421242
0.00563102
-0.00395176
0.0398054
0.00773108
0.0397449
-0.00483041
0.00382583
0.0374095
0.0393513
-0.00209864
0.00184482
0.0367324
0.0369645
-0.0022156
0.00288241
0.0354509
0.0362708
-0.00148334
0.00256971
0.0343599
0.0369039
-0.000671846
0.00185563
0.0338617
0.0361774
-0.00061326
0.00144873
0.0334723
0.0355555
-0.0013568
0.00225321
0.0331548
0.0350163
-0.000713947
0.00109605
0.0329027
0.0345489
-0.00100903
0.00092201
0.0327039
0.0341423
-0.000839251
0.000755721
0.0325531
0.033797
-0.000675535
0.00059456
0.0324385
0.0335044
-0.000516544
0.000438027
0.0323542
0.033258
-2.53393e-05
0.000285587
0.0322957
0.0330537
-0.000211515
0.000137349
0.0322607
0.0328887
-6.52957e-05
-7.00984e-06
0.0322466
0.0327602
7.74068e-05
-0.000147891
0.0322532
0.0326662
0.000216802
-0.0002857
0.032281
0.032606
0.000353257
-0.000420763
0.0323316
0.0325794
0.000487146
-0.00055345
0.0324073
0.0325871
0.000618839
-0.000684197
0.0325119
0.032631
0.000749015
-0.000813661
0.0326505
0.0327142
0.00125752
-0.00139906
0.0330722
0.0326021
0.00107455
-0.00222484
0.0324116
0.0326787
0.00297956
-0.00265375
0.0317643
0.0313327
0.0307663
0.0316134
-0.0339923
-0.00420649
-0.00234063
-0.00347755
-0.00246622
0.00195176
-0.0347331
-0.0332602
-0.00214763
0.00238111
-0.0345379
-0.0347666
-0.0019016
0.00145599
-0.0341733
-0.0342724
-0.00120277
0.00145199
-0.033787
-0.0338408
-0.00133206
0.00121279
-0.0334505
-0.0334692
-0.00110067
0.000991637
-0.0331629
-0.0331594
-0.000888188
0.000786598
-0.0329208
-0.0328972
-0.000689759
0.000594279
-0.0327215
-0.032679
-0.000503006
0.00041251
-0.0325611
-0.0325009
-0.000325628
0.000239296
-0.0324366
-0.0323596
-0.000156322
7.35707e-05
-0.0323456
-0.0322527
6.32153e-06
-8.6347e-05
-0.0322869
-0.0321783
0.000163798
-0.000241623
-0.0322603
-0.0321358
0.000317119
-0.000393208
-0.0322662
-0.0321254
0.000467188
-0.000541939
-0.0323064
-0.0321481
0.000614733
-0.000688364
-0.0323839
-0.0322062
0.000759778
-0.000831138
-0.0325038
-0.0323037
0.000900996
-0.00156971
-0.0326736
-0.032447
0.00162213
-0.00209287
-0.0334725
-0.0328208
-0.0334697
-0.0344568
-0.005659
-0.0368875
0.00360514
-0.00362699
-0.0319436
0.0038627
-0.0319425
-0.0348379
0.0337732
-0.0027748
-0.0345839
-0.00265173
-0.00314336
-0.03318
-0.0502852
-0.00393503
0.0047644
0.00212475
0.0257394
-0.030404
0.0202199
0.0149484
0.00318819
-0.0449047
-0.0103442
-0.0393072
-0.0400431
-0.014182
-0.00107115
0.00128643
0.0395901
-0.0368888
-0.00462115
0.0404388
0.0157827
-0.0449404
-0.0380473
-0.00899089
-0.00566508
-0.0380412
-0.00148685
0.00268534
0.0390224
0.0395445
-0.00369758
0.0031621
0.037945
0.0383391
-0.00199943
0.00291303
0.0358188
0.0381271
-0.00139058
0.0017916
0.0350499
0.0377933
-0.00172936
0.00164859
0.0344406
0.0369661
-0.00157755
0.0014899
0.0339494
0.0362485
-0.0014171
0.00133555
0.0335538
0.0356283
-0.00126173
0.00117773
0.0332388
0.0350902
-0.0011024
0.00101748
0.0329876
0.0346242
-0.000941298
0.000857675
0.0327875
0.0342185
-0.000782002
0.000700506
0.0326346
0.0338727
-0.000626121
0.000546828
0.0325178
0.0335788
-0.00047375
0.000396579
0.0324314
0.0333311
-0.000324631
0.000249556
0.0323707
0.0331256
-0.000179284
0.000106227
0.0323338
0.032959
-3.72467e-05
-3.3919e-05
0.0323178
0.0328292
0.000101626
-0.00017104
0.0323226
0.0327339
0.000237536
-0.000305373
0.0323489
0.0326725
0.000370768
-0.000437201
0.032398
0.0326448
0.000501621
-0.000566842
0.0324725
0.0326515
0.000630443
-0.000694716
0.0325762
0.0326946
0.000757792
-0.000821441
0.0327142
0.0327773
0.0011235
-0.000947665
0.0328964
0.0329041
0.00135687
-0.0014655
0.0325202
0.033088
0.00266451
-0.00213509
0.0312348
0.0325317
0.030756
0.0319837
-0.0317952
-0.000237597
0.00146298
0.0320024
-0.0332282
-0.00298072
-0.00213336
-0.0029326
-0.00319327
0.00242064
-0.0339605
-0.0325907
-0.00224881
0.00208664
-0.0343758
-0.0345948
-0.00193288
0.00178294
-0.0340233
-0.0341187
-0.00164483
0.00151362
-0.0336558
-0.0337027
-0.00139057
0.00126936
-0.0333293
-0.0333462
-0.00115513
0.00104252
-0.0330503
-0.0330452
-0.000936684
0.000831908
-0.032816
-0.0327914
-0.000733145
0.000634888
-0.0326233
-0.0325803
-0.000542022
0.000449171
-0.0324683
-0.032408
-0.000361169
0.000272657
-0.0323481
-0.0322716
-0.000188488
0.000103576
-0.0322607
-0.0321686
-2.27027e-05
-5.92634e-05
-0.0322049
-0.0320974
0.000137555
-0.000217221
-0.0321806
-0.0320575
0.000293505
-0.000371411
-0.0321883
-0.0320491
0.000446185
-0.00052281
-0.0322298
-0.0320733
0.000596568
-0.000672503
-0.032308
-0.0321325
0.000745957
-0.000821982
-0.0324278
-0.0322303
0.000895783
-0.000972556
-0.0325969
-0.0323732
0.00122462
-0.0018734
-0.0328237
-0.0325687
0.00185517
-0.00222643
-0.0335738
-0.0334879
0.0387959
0.0286984
-0.0517116
-0.00785875
0.0420335
-0.0375837
-0.0114502
0.00425699
-0.0435663
0.00220305
-0.0342724
-0.00251459
-0.0341376
0.00394807
-0.00454669
-0.0337219
-0.0336521
0.00391813
-0.00451725
-0.0362883
-0.035993
-0.0392179
-0.00403095
0.0399847
-0.0191451
0.00302545
-0.0504801
0.00297287
-0.043351
0.00532599
-0.00546166
0.0401203
0.00424159
0.0431179
-0.00229247
0.00272959
-0.0323796
-0.00128289
-0.0329532
-0.0503763
-0.0140908
0.0403147
-0.0600611
0.000601419
-0.00444641
0.0392994
-0.00529265
-0.0372658
-0.00248166
0.00223413
-0.0340249
-0.0346606
0.0348918
-0.00274576
-0.00232465
-0.0348176
-0.0532762
-0.00375945
0.00235884
-0.0511985
-0.0087843
-0.0387229
-0.00259069
0.00191705
0.0402637
0.0420897
-0.00234007
0.00267094
0.0386916
0.0391215
-0.00122103
0.00236279
0.0368032
0.039789
-0.00172694
0.00168196
0.0358638
0.038763
-0.00165996
0.00159407
0.0351158
0.0378153
-0.00156058
0.00148733
0.0345139
0.0369996
-0.00144224
0.00136289
0.0340288
0.0362935
-0.00130968
0.00122726
0.0336363
0.0356815
-0.00116972
0.00108644
0.033322
0.0351477
-0.00102423
0.00094018
0.0330717
0.0346864
-0.000875254
0.000792097
0.0328706
0.0342834
-0.000726106
0.000644512
0.0327162
0.0339387
-0.000578017
0.000498381
0.0325975
0.0336453
-0.0004319
0.000354385
0.0325089
0.0333976
-0.000288269
0.000212915
0.0324461
0.0331917
-0.000147356
7.42614e-05
0.0324069
0.0330246
-9.37848e-06
-6.17057e-05
0.0323889
0.0328941
0.000125885
-0.000195038
0.0323918
0.0327981
0.000258456
-0.000325869
0.0324163
0.0327359
0.000388558
-0.000454422
0.0324639
0.0327075
0.000516439
-0.000580966
0.032537
0.0327136
0.000642411
-0.000705853
0.0326397
0.0327561
0.000766924
-0.000829637
0.0327769
0.0328384
0.000890773
-0.000952739
0.0329584
0.0329653
0.00101303
-0.00131809
0.0328253
0.0331482
0.00189496
-0.00305397
0.0323938
0.0331086
0.0065438
0.0394155
0.0342458
0.0327219
-0.0323547
-0.000604789
-0.0315204
0.0410409
0.00542795
0.00266452
0.0327513
-0.0338136
-0.00191848
-0.00173677
0.0346397
-0.0349942
-0.00242027
-0.00210645
-0.0027542
-0.00306195
0.00252131
-0.0334198
-0.0329231
-0.00233938
0.00216801
-0.0342044
-0.0344129
-0.00200611
0.0018487
-0.0338659
-0.0339568
-0.0017053
0.00156495
-0.0335155
-0.0335593
-0.00143618
0.00130799
-0.0332011
-0.0332174
-0.00119013
0.00107236
-0.0329325
-0.0329273
-0.000964037
0.000855034
-0.032707
-0.032683
-0.000754523
0.000652671
-0.0325214
-0.0324797
-0.000558561
0.000462543
-0.0323722
-0.0323139
-0.000373643
0.000282389
-0.0322568
-0.0321827
-0.000197768
0.000110376
-0.0321733
-0.0320839
-2.91717e-05
-5.51743e-05
-0.0321206
-0.0320162
0.000133714
-0.000215705
-0.0320986
-0.031979
0.000292206
-0.000372441
-0.0321081
-0.0319726
0.000447457
-0.000526452
-0.0321508
-0.0319983
0.000600439
-0.000678571
-0.0322299
-0.0320585
0.000751782
-0.000829337
-0.0323503
-0.0321571
0.000902481
-0.000980325
-0.032519
-0.0323001
0.00105334
-0.00113134
-0.0327457
-0.0324957
0.00186468
-0.00174348
-0.033695
-0.0327546
-0.0336469
-0.00226463
-0.0321983
0.0032001
-0.00344269
-0.0334793
-0.0327166
0.00411966
-0.00501344
-0.0353946
-0.0353161
-0.0223188
-0.0395077
0.000408136
-0.0031202
0.0428324
0.00159736
0.0419287
-0.0368881
0.0370063
-0.0491978
-0.000689076
0.00306009
0.0370445
0.00298248
0.0373693
-0.0369536
-0.00755695
-0.00683458
-0.0354446
-0.0351594
0.0352795
-0.0028658
-0.0348456
-0.00263842
-0.0268408
-0.0352198
0.0162048
-0.057197
-0.00555974
0.0417389
-0.0506454
-0.0146439
-0.0331886
0.0167559
-0.0271059
0.0435387
0.00177849
-0.00223199
-0.0324997
0.00227507
-0.0328762
-0.00226548
0.00216183
0.0403674
0.0414215
-0.00153654
0.00129642
0.0389317
0.0397468
-0.00140499
0.00140747
0.0368007
0.0396804
-0.00147746
0.00144076
0.0359005
0.038693
-0.00146811
0.00140685
0.035177
0.0377879
-0.00140913
0.00133447
0.0345885
0.0369974
-0.00131993
0.00123755
0.0341111
0.0363081
-0.00121057
0.00112302
0.0337238
0.0357085
-0.00108649
0.000997201
0.0334113
0.0351842
-0.000953824
0.000864248
0.0331613
0.0347298
-0.000815362
0.000726808
0.0329592
0.0343323
-0.000674551
0.000588121
0.0328026
0.0339909
-0.000533272
0.000449319
0.0326814
0.0337002
-0.000392676
0.000311486
0.0325901
0.0334542
-0.000253712
0.000175347
0.0325245
0.0332495
-0.000116824
4.12777e-05
0.0324824
0.0330831
1.7681e-05
-9.05407e-05
0.0324618
0.0329531
0.000149591
-0.000220071
0.0324623
0.0328571
0.000279123
-0.000347396
0.0324846
0.032795
0.000406328
-0.000472647
0.0325302
0.0327664
0.000531411
-0.000596048
0.0326017
0.0327723
0.000654649
-0.000717893
0.0327029
0.0328147
0.00077642
-0.000838662
0.0328391
0.0328969
0.000897465
-0.000958868
0.0330198
0.0330241
0.00101742
-0.00144313
0.033251
0.0332068
0.00178304
-0.00280731
0.0334181
0.0334485
0.0344986
0.0332886
-0.0333116
-0.000581788
-0.0347628
0.0376369
0.00255386
0.0011903
0.0335877
-0.0340244
-0.00148176
-0.00146062
0.0346354
-0.0351368
-0.00191889
-0.00149544
-0.00261156
-0.00242332
0.00262158
-0.0336181
-0.0330714
-0.00242292
0.00223967
-0.0340211
-0.0342142
-0.00207172
0.00190693
-0.0337011
-0.0337888
-0.00176005
0.00161224
-0.0333677
-0.0334124
-0.0014814
0.00134758
-0.0330673
-0.0330865
-0.0012289
0.00110609
-0.0328097
-0.0328086
-0.000997293
0.000883703
-0.0325935
-0.0325742
-0.000783132
0.000677135
-0.0324154
-0.0323792
-0.00058332
0.000483518
-0.0322724
-0.0322201
-0.000395212
0.000300414
-0.032162
-0.0320944
-0.000216533
0.000125741
-0.0320825
-0.0320001
-4.54006e-05
-4.22278e-05
-0.032033
-0.0319359
0.000119819
-0.00020504
-0.0320134
-0.0319014
0.000280576
-0.000364057
-0.0320246
-0.0318971
0.000438154
-0.000520486
-0.0320684
-0.0319242
0.000593711
-0.000675475
-0.0321481
-0.0319852
0.000748411
-0.000830223
-0.0322685
-0.0320841
0.000903408
-0.000985708
-0.0324367
-0.0322269
0.00105942
-0.0011419
-0.0326632
-0.032422
0.00121564
-0.00195183
-0.0329588
-0.0326809
0.00185528
-0.00207856
-0.0338016
-0.0337435
-0.0590246
0.0060673
0.00300478
0.0376146
-0.0366562
-0.00713196
-0.00117516
-0.0395704
0.00226682
-0.03455
-0.00256248
-0.0346294
-0.0493588
0.00785986
-0.00676161
0.0356897
0.00624186
-0.00734232
-0.0343442
-0.00194722
-0.0324831
-0.00245855
-0.0322053
-0.00308119
-0.0328567
-0.00476529
-0.033632
-0.033918
-0.0562084
-0.0738766
-0.0203677
0.0196046
-0.00146071
0.000923366
0.0424661
-0.000648765
0.0420204
-0.00217309
0.00196541
-0.0326685
-0.00203037
-0.0326424
0.0370229
-0.0358354
0.00136636
0.0382952
0.0017324
-0.0340287
-0.00996977
0.031277
-0.00531205
0.0151525
-0.0434336
-0.00219782
0.00231568
-0.0346678
-0.0351414
0.0351924
-0.00261348
-0.0346941
-0.00264517
-0.000393853
0.000694053
0.0400672
0.0419511
-0.00088065
0.00056277
0.0392495
0.0395602
-0.00171006
0.00114277
0.037368
0.0385331
-0.00127289
0.00122066
0.0359527
0.0385629
-0.00130838
0.00123016
0.0352553
0.0377002
-0.00128534
0.00119049
0.0346834
0.0369422
-0.0012213
0.00111761
0.0342148
0.0362773
-0.00113031
0.00102234
0.0338318
0.0356958
-0.00102021
0.000911247
0.0335203
0.0351863
-0.000897856
0.000790356
0.0332688
0.0347432
-0.00076744
0.000662689
0.0330639
0.0343552
-0.000632692
0.000532035
0.0329033
0.0340209
-0.000496292
0.000400055
0.0327776
0.0337359
-0.000359691
0.000268064
0.0326817
0.0334946
-0.000224069
0.000136992
0.0326115
0.0332935
-9.01147e-05
7.42437e-06
0.0325651
0.03313
4.165e-05
-0.00012032
0.0325404
0.0330021
0.000171137
-0.000246133
0.0325373
0.032908
0.000298254
-0.000369971
0.0325563
0.0328471
0.000423073
-0.000491921
0.032599
0.0328195
0.000545766
-0.000612158
0.0326681
0.0328262
0.000666591
-0.000730941
0.0327673
0.0328691
0.0007859
-0.000848729
0.032902
0.0329519
0.00090444
-0.000965986
0.0330813
0.0330798
0.00102196
-0.00108319
0.0333122
0.0332628
0.00113946
-0.00132187
0.0336005
0.0335048
0.00104076
0.000424497
0.0355792
0.0342175
-0.00249393
0.00273504
0.0373735
0.0352999
0.0346956
-0.0341897
-0.00108766
5.05306e-05
0.0341636
-0.0341339
-0.00151149
-0.00148672
0.0340995
-0.0344609
-0.00155754
-0.00152981
0.0348467
-0.0352448
-0.00246761
-0.00222578
-0.00269085
-0.00273827
0.00270538
-0.0335852
-0.0338442
-0.00249304
0.00230049
-0.0338286
-0.0340019
-0.00212857
0.00195408
-0.0335266
-0.0336169
-0.00180615
0.00164916
-0.0332107
-0.0332645
-0.00151834
0.00137611
-0.0329251
-0.0329557
-0.00125843
0.00112831
-0.0326796
-0.032691
-0.00102124
0.000901059
-0.0324733
-0.0324672
-0.000802704
0.000690609
-0.0323033
-0.0322808
-0.000599361
0.00049382
-0.0321669
-0.0321289
-0.000408336
0.00030807
-0.0320618
-0.0320089
-0.000227218
0.000131139
-0.0319864
-0.0319192
-5.39341e-05
-3.89019e-05
-0.0319401
-0.0318587
0.000113323
-0.000203737
-0.031923
-0.031827
0.000276115
-0.000364834
-0.0319359
-0.0318247
0.000435835
-0.000523492
-0.0319808
-0.0318532
0.000593686
-0.000680824
-0.032061
-0.0319151
0.000750702
-0.000837847
-0.0321813
-0.0320143
0.000907936
-0.000995573
-0.0323491
-0.0321568
0.00106622
-0.00115473
-0.0325747
-0.0323514
0.00122596
-0.00131514
-0.0328696
-0.0326096
0.00166679
-0.00200171
-0.0334667
-0.0333918
-0.0343154
0.033622
-0.0665269
0.0410148
-0.00234812
-0.0321653
-0.0026493
-0.0319041
-0.00350112
-0.0320049
-0.00469396
-0.0324391
-0.00566971
-0.0329422
-0.00753648
-0.0324774
0.00336896
0.0376613
0.000467793
0.0348259
-0.00168816
0.0339948
-0.0320998
-0.00946537
0.00379887
-0.00596753
-0.0307736
0.00331189
-0.0319521
-0.0377817
-0.00892066
-0.000694337
0.0302832
0.0298765
-0.0184503
0.0268483
-0.00228393
-0.00281932
0.00229848
-0.034147
-0.00226364
-0.0352498
-0.0353421
0.0355342
-0.00280563
-0.0353224
-0.00266486
0.000159145
-0.000104741
0.0424116
0.0426474
-0.000195643
0.000308178
0.0399546
0.0416507
-0.000606269
0.00107928
0.0387765
0.0392621
-0.00135921
0.000904599
0.0378226
0.0382532
-0.00113511
0.00102508
0.0360628
0.0383324
-0.00120528
0.00106878
0.0353918
0.03752
-0.00120863
0.0010568
0.0348352
0.0368023
-0.0011636
0.0010051
0.0343733
0.0361705
-0.00108544
0.000926373
0.0339909
0.0356154
-0.000984391
0.00082861
0.0336761
0.0351283
-0.000868054
0.000718417
0.0334184
0.0347038
-0.000741702
0.00059961
0.033206
0.0343319
-0.000609555
0.000476278
0.0330365
0.034011
-0.000474889
0.000350584
0.032902
0.0337373
-0.000339544
0.000224073
0.0327972
0.0335056
-0.000204914
9.78368e-05
0.0327186
0.0333127
-7.18666e-05
-2.73931e-05
0.0326643
0.0331559
5.89559e-05
-0.000151138
0.0326326
0.0330337
0.000187386
-0.00027326
0.0326231
0.0329442
0.000313296
-0.000393622
0.0326366
0.0328871
0.000436731
-0.000512264
0.0326746
0.0328626
0.000557861
-0.000629322
0.0327395
0.0328718
0.000676948
-0.000745023
0.0328353
0.0329167
0.000794354
-0.000859783
0.0329674
0.0330012
0.000910766
-0.000973979
0.0331445
0.0331308
0.00102593
-0.00108751
0.0333738
0.0333147
0.00113973
-0.00119743
0.0336582
0.033557
0.000829101
0.000471119
0.034279
0.0338492
-0.000274939
0.00245966
0.0351887
0.0354961
0.0377173
-0.0364092
0.00206094
-0.00315008
0.0038136
0.0370538
0.0369709
0.0368186
-0.0352179
-0.000234286
0.00214171
0.0344724
-0.0341008
-0.00145924
-0.000694961