/*--------------------------------*- C++ -*----------------------------------*\
  =========                 |
  \\      /  F ield         | OpenFOAM: The Open Source CFD Toolbox
   \\    /   O peration     | Website:  https://openfoam.org
    \\  /    A nd           | Version:  10
     \\/     M anipulation  |
\*---------------------------------------------------------------------------*/
FoamFile
{
    format      ascii;
    class       surfaceScalarField;
    location    "40";
    object      phi;
}
// * * * * * * * * * * * * * * * * * * * * * * * * * * * * * * * * * * * * * //

dimensions      [0 3 -1 0 0 0 0];

internalField   nonuniform List<scalar> 
12623
(
0.393877
0.0890103
-0.148615
-0.334272
0.304744
-0.130746
0.219879
0.279347
-0.0321794
-0.259875
0.0127067
-0.0556561
0.283414
0.0515892
-0.260444
0.0714457
-0.0699829
0.258981
-0.258337
-0.0577633
-0.0183999
0.188569
-0.209439
0.0392705
-0.250296
0.231896
-0.167201
-0.029414
0.196615
-0.132152
-0.0717608
0.0367126
0.386626
-0.165546
-0.22108
-0.2658
0.217015
0.435412
-0.204825
-0.147347
0.150532
0.201639
0.0189409
0.0341508
-0.257917
-0.193934
0.0655276
-0.031577
-0.0700464
-0.00183736
0.103461
-0.0115936
-0.00163844
-0.0183449
-0.106936
0.0252959
-0.00169809
-0.0493708
0.00106131
0.0500075
-0.105143
0.0290035
0.0744412
-0.0989867
-0.0555268
0.0514937
0.109813
-0.126906
-0.0344007
-0.0137151
0.0624671
0.00274167
-0.214469
0.310568
-0.273753
0.0259321
0.281971
0.0409233
-0.305229
-0.00944681
-0.311251
0.0243348
0.312849
-0.26592
-0.15659
0.160032
0.262477
-0.265519
0.169119
-0.16952
-0.26658
0.251434
0.142918
-0.127772
-0.262379
-0.16079
-0.305792
0.0943655
-0.0900288
0.301455
-0.0741756
-0.292729
0.061113
0.280684
-0.352204
0.0977953
-0.103941
0.35835
-0.0958895
-0.33051
0.0741954
-0.32791
-0.0953542
0.327375
-0.31082
0.077275
0.37413
-0.10086
-0.378402
0.105132
-0.0864339
0.116446
0.344118
-0.369394
-0.10782
0.376354
-0.351632
0.0800334
-0.112043
0.122639
0.240838
-0.237784
0.0282867
-0.0187431
0.22824
0.0058967
-0.240097
-0.0035833
-0.031107
-0.259409
-0.242819
-0.0492245
0.23428
-0.245639
-0.0055827
-0.339271
-0.0165659
0.361419
0.259712
0.062943
-0.328237
-0.241761
0.064399
0.437074
-0.12162
0.381154
-0.30425
0.0447167
-0.300438
0.29657
0.0594242
-0.0664137
-0.28958
0.0637889
0.272856
-0.040075
-0.0287547
0.0177504
0.31398
-0.302975
-0.325072
0.322195
-0.0258778
0.303943
-0.0371985
0.0437385
-0.310483
0.199406
-0.184973
0.0726473
-0.0870805
0.118101
0.215479
-0.134174
-0.17578
0.0180934
-0.0272858
-0.172967
-0.0393848
0.0365715
-0.175393
-0.0940202
0.0964461
-0.186856
-0.140867
0.15233
-0.19554
-0.177595
0.186278
-0.210431
-0.201781
0.216672
-0.217169
-0.217539
0.224277
-0.225818
-0.221775
0.230424
0.220124
-0.201255
0.0992325
0.150579
0.235078
-0.170178
0.238276
0.132428
-0.187847
0.0592391
-0.178964
0.0092098
-0.176216
-0.0421327
-0.182267
-0.0879689
-0.190706
-0.132428
-0.20527
-0.16303
-0.215467
-0.191584
-0.22856
-0.204445
-0.233508
-0.220871
-0.166268
0.251506
0.153038
0.248331
-0.179521
-0.229791
-0.224153
0.232168
-0.244569
-0.218729
-0.175237
0.260932
0.16581
0.264166
-0.191071
-0.22345
-0.22502
0.224318
-0.244182
-0.223837
-0.176784
0.269281
0.168435
-0.178137
-0.206226
-0.21985
0.201055
-0.247072
-0.203335
0.272993
0.165407
0.164987
0.268038
-0.171171
0.165489
-0.214168
-0.168801
-0.249442
0.261692
-0.263883
0.170627
-0.247308
0.253973
0.158323
0.17979
0.255383
-0.239852
0.137507
0.15731
0.221859
-0.2057
0.0830733
0.114435
0.194591
-0.187704
0.00232324
0.0481299
0.190372
-0.195155
-0.0831858
-0.039465
0.208042
-0.219115
-0.151957
-0.119541
0.237624
-0.249153
-0.192917
-0.173075
0.264493
-0.270531
-0.212691
-0.205531
0.280188
-0.280998
-0.202525
-0.214179
-0.286126
-0.163673
-0.212386
0.223027
0.213677
0.208962
0.158316
-0.201789
0.197631
-0.220885
0.221599
0.22971
0.23431
-0.209973
0.205874
0.220772
0.235902
-0.191324
0.186214
0.15744
0.200828
-0.181958
0.184439
0.0340906
0.100701
-0.199104
0.205883
-0.0938591
-0.0419508
-0.22763
0.229183
-0.171731
-0.155922
-0.248007
0.249022
-0.192085
-0.198346
-0.264818
-0.167082
-0.193933
-0.149892
0.153132
0.264798
0.255503
0.166671
0.240434
0.102793
-0.291124
-0.0977958
0.101998
-0.248647
-0.200447
0.213321
0.145443
0.101537
-0.104117
-0.19921
-0.19394
0.0950301
-0.0120601
0.0157386
-0.294802
-0.337561
0.327698
-0.0879332
-0.00296875
-0.346652
0.251011
-0.250845
-0.127938
0.264635
-0.273599
0.167286
0.267656
0.16365
0.237294
-0.0983258
-0.216287
0.263722
-0.256892
0.163797
0.169913
0.247427
-0.235907
0.125987
0.147844
0.224867
-0.210962
0.0691682
0.103396
0.201617
-0.199424
0.000130693
0.0387844
0.201669
-0.209315
-0.0755399
-0.0372197
0.220359
-0.235307
-0.137009
-0.108497
0.251105
-0.268399
-0.175622
-0.157278
0.284142
-0.297657
-0.199176
-0.189788
0.309326
-0.319821
-0.19203
-0.202511
-0.155795
-0.229446
0.237129
0.205994
0.181506
-0.246397
0.242985
0.233123
0.225042
-0.241065
0.226222
0.235614
0.237823
-0.223056
0.207818
0.172679
0.203994
-0.204696
0.204351
0.0344355
0.103822
-0.202535
0.220272
-0.111596
-0.0401349
-0.218078
0.238491
-0.192144
-0.153728
-0.237381
0.241673
-0.196377
-0.197236
-0.240905
0.259539
-0.185717
-0.193165
-0.152096
-0.132754
0.165997
0.231555
0.245388
-0.157709
0.269533
0.155832
0.248723
-0.0277882
0.0259169
-0.192069
-0.0245312
-0.202467
0.0192278
-0.252136
-0.384015
0.368887
-0.0728048
-0.39012
0.00313544
-0.0803058
0.0861289
-0.352475
-0.0731581
-0.30195
-0.193021
0.19666
0.0222787
-0.0455941
0.0528717
-0.199347
-0.199175
-0.0394401
-0.0769633
0.102306
0.215495
0.222725
-0.062394
0.108574
-0.117371
0.27833
0.298048
-0.290247
0.148031
0.310674
0.0959469
-0.249888
-0.086502
0.238064
-0.242242
-0.135583
-0.221591
0.281135
-0.276945
0.163096
0.154538
0.273007
-0.26478
0.15557
0.165976
0.257921
-0.24775
0.115816
0.140985
0.232739
-0.226161
0.0625901
0.0883846
0.217815
-0.215304
-0.00237963
0.0304386
0.21717
-0.222601
-0.070109
-0.0353538
0.234934
-0.247678
-0.124265
-0.0961641
0.265805
-0.28152
-0.159906
-0.139151
0.304008
-0.319212
-0.183972
-0.167301
0.338947
-0.352111
-0.178866
-0.182777
-0.139019
-0.210318
0.224462
0.131298
0.081372
-0.239307
0.251373
0.193928
0.166661
-0.264657
0.260681
0.237098
0.211758
-0.266338
0.258961
0.242991
0.232166
-0.252855
0.245539
0.179995
0.2101
-0.239495
0.235369
0.0385619
0.109867
-0.235375
0.238515
-0.114736
-0.040141
-0.242881
0.247798
-0.19706
-0.158095
-0.245059
0.252
-0.203318
-0.194496
-0.244555
0.236467
-0.177628
-0.185721
-0.157871
-0.118428
0.121968
0.228015
0.229266
0.253319
-0.39688
0.0928897
0.0604809
-0.210076
-0.0662145
-0.25908
0.110532
-0.0995164
-0.210191
0.122894
-0.211709
-0.15808
0.157061
-0.351456
-0.151583
-0.308447
0.071503
-0.0773355
0.284163
0.0582458
0.323932
-0.0476556
0.069396
0.193755
-0.0330145
0.208084
0.22775
-0.23865
-0.124684
-0.0923005
0.233549
0.330961
-0.314429
0.131499
0.342256
0.084652
-0.401735
0.161915
-0.209464
0.197693
-0.389964
-0.212995
-0.347924
0.226682
-0.0510122
-0.227324
0.306465
-0.305296
0.161927
0.146573
0.29456
-0.285824
0.146834
0.15524
0.267733
-0.257366
0.105448
0.122894
0.247053
-0.238016
0.0535533
0.0780715
0.232036
-0.229147
-0.00526841
0.0244586
0.231
-0.237868
-0.0632417
-0.0335008
0.24911
-0.263896
-0.109479
-0.0849215
0.280742
-0.299985
-0.140663
-0.122306
0.319431
-0.339957
-0.163445
-0.147855
0.360894
-0.381851
-0.15791
-0.161839
0.398331
-0.406206
-0.06493
-0.122539
0.415222
-0.421139
0.0988065
0.0121519
0.415309
-0.405637
0.188022
0.156085
-0.204683
0.208752
0.0182094
0.205582
-0.215314
-0.0897847
-0.0385408
-0.220642
0.237998
0.113942
0.0694821
-0.256243
0.264713
0.185459
0.148417
-0.278107
0.286282
0.228923
0.198363
-0.290668
0.292172
0.241487
0.227781
-0.291323
0.288557
0.182761
0.210949
-0.284963
0.281335
0.0421901
0.11346
-0.279568
0.278092
-0.11326
-0.0383735
-0.276216
0.273001
-0.193845
-0.156219
-0.271298
0.260552
-0.192571
-0.192793
-0.254282
0.243465
-0.166811
-0.179451
-0.153057
-0.0870556
0.0849727
0.230098
0.211607
0.260957
-0.14671
0.16153
-0.22501
-0.232163
-0.129861
0.218801
-0.227671
-0.381094
-0.383325
0.196489
0.133975
-0.221157
-0.144609
-0.266053
0.0559463
0.344556
-0.0155882
0.209256
0.241664
-0.245403
-0.120945
0.236037
-0.0866731
0.17662
-0.2268
-0.210423
-0.31102
0.171203
-0.151678
-0.251689
0.191319
-0.245126
-0.239299
-0.336296
0.200153
-0.22881
-0.352436
0.183589
-0.366762
0.232861
-0.050324
-0.237958
0.368838
-0.353017
0.115678
-0.366541
0.375294
0.0471936
0.086949
0.348264
-0.331672
0.145334
0.14182
0.316782
-0.300743
0.130795
0.140351
0.286064
-0.272366
0.0917504
0.108216
0.260404
-0.250962
0.0441117
0.0661087
0.244532
-0.242601
-0.00719944
0.0180292
0.24495
-0.252455
-0.0557366
-0.0311521
0.263485
-0.279085
-0.0938786
-0.0738915
0.296733
-0.316619
-0.120777
-0.104658
0.336349
-0.357808
-0.141987
-0.128125
0.379903
-0.401967
-0.135845
-0.139744
0.420767
-0.429869
-0.0558284
-0.103739
0.433427
-0.425608
0.0909874
0.0157102
0.414819
-0.400416
0.173618
0.145296
0.381631
-0.358757
0.160715
0.177703
-0.224868
0.217133
-0.0820502
0.241627
-0.263378
-0.129926
-0.113102
-0.215739
0.223733
0.0102161
-0.0371467
-0.236781
0.248676
0.102047
0.0564342
-0.26641
0.282947
0.168922
0.130683
-0.297238
0.310344
0.215817
0.184072
-0.320657
0.328979
0.233165
0.217468
-0.333943
0.33582
0.180883
0.205985
-0.334764
0.331309
0.0456451
0.114516
-0.327096
0.320889
-0.107053
-0.0341602
-0.313298
0.303613
-0.184161
-0.148628
-0.290877
0.282583
-0.184277
-0.180056
-0.269216
0.257102
-0.154697
-0.166084
-0.141358
-0.159131
0.181449
-0.274006
-0.285179
-0.137331
0.158772
-0.189286
-0.336248
-0.335973
0.135988
0.223169
-0.0543844
0.00433105
0.0057892
0.199136
0.208757
-0.0263623
0.0253742
0.194743
0.187511
-0.0326709
0.0358355
0.226933
0.20431
-0.0348189
0.0289954
0.289986
0.261973
-0.023377
0.0192644
0.348668
0.32955
0.0179739
0.376584
0.189153
-0.23369
-0.200848
-0.275628
0.204936
-0.240417
-0.238566
-0.311752
0.198287
-0.261964
-0.236274
-0.328833
0.161884
-0.141502
-0.305561
0.180326
-0.292448
-0.208579
-0.333143
-0.133878
0.114287
-0.316382
-0.163495
-0.306632
0.392474
-0.389986
0.0447049
0.394807
0.0156413
-0.249653
0.38397
-0.376445
0.108152
0.0809337
0.36381
-0.351521
0.133045
0.129185
0.332191
-0.313905
0.112509
0.121021
0.297464
-0.282875
0.077162
0.0917741
0.270396
-0.261774
0.0354896
0.0536294
0.256104
-0.255444
-0.00785878
0.012359
0.257897
-0.265628
-0.0480056
-0.0286997
0.276348
-0.29154
-0.0786871
-0.063171
0.307538
-0.325485
-0.10283
-0.0886602
0.344398
-0.366308
-0.120078
-0.109211
0.389373
-0.412394
-0.112825
-0.116679
0.431814
-0.443857
-0.0437851
-0.0843188
0.445882
-0.436364
0.081469
0.0177355
0.418549
-0.399453
0.154523
0.127481
0.377571
-0.358009
0.141154
0.155821
0.338243
-0.321021
0.097065
0.116222
-0.274549
0.254515
-0.109893
0.29502
-0.311688
-0.124834
-0.11686
-0.23752
0.228607
-0.0731369
-0.0961068
-0.228143
0.234351
0.00400768
-0.0366827
-0.247465
0.264314
0.0851986
0.0433201
-0.281246
0.299059
0.151109
0.11375
-0.315616
0.332618
0.198815
0.167515
-0.347995
0.362642
0.218519
0.20209
-0.373723
0.381404
0.173202
0.194903
-0.383622
0.380834
0.0484333
0.112299
-0.374569
0.363856
-0.0963402
-0.0278953
-0.350419
0.333839
-0.167581
-0.135191
-0.317922
0.301433
-0.167789
-0.164139
-0.282752
0.270069
-0.142014
-0.147402
-0.256603
0.244061
-0.108402
-0.127892
-0.242451
0.240057
-0.0519904
-0.0850632
-0.0091656
0.0316509
-0.0261233
0.193608
-0.040146
0.219162
0.200262
0.0243992
-0.0220298
0.192373
0.185787
0.0197899
-0.0226352
0.229779
0.20207
0.0187128
-0.0257368
0.29701
0.258051
0.0215679
-0.0280094
0.35511
0.325381
-0.151746
0.167862
-0.321677
-0.327283
-0.136151
0.101798
-0.121696
-0.296484
-0.300948
0.0817259
0.0228829
-0.0161757
0.3881
0.371458
0.219634
-0.248387
-0.230371
-0.283823
0.214589
-0.25672
-0.241223
-0.306803
0.198308
-0.279946
-0.22456
-0.312852
0.185739
-0.310325
-0.190732
-0.305905
0.161606
-0.14305
-0.345839
0.18035
-0.34042
-0.147384
-0.280944
-0.0888286
-0.279408
0.0672883
-0.113083
-0.272229
-0.349081
0.32731
-0.121278
-0.146477
0.169256
-0.368619
-0.36761
-0.127948
0.0598441
-0.0835541
-0.255698
-0.267055
0.283325
0.051019
-0.252064
0.044853
0.404887
-0.405825
-0.015237
-0.0501284
0.0545297
0.383699
0.376923
-0.022165
-0.260391
0.405865
-0.410961
0.0498012
0.015681
0.405964
-0.396662
0.0988498
0.0759368
0.378679
-0.357493
0.11186
0.111202
0.338835
-0.319888
0.0935616
0.102363
0.303708
-0.289722
0.0631767
0.075594
0.278311
-0.271169
0.0283475
0.0422179
0.265931
-0.265929
-0.00786136
0.00712124
0.267778
-0.275564
-0.0402199
-0.0268503
0.284448
-0.297044
-0.0660905
-0.054287
0.309671
-0.32579
-0.0867105
-0.0760336
0.344616
-0.367249
-0.0974453
-0.0903851
0.390227
-0.411962
-0.0910897
-0.0937005
0.428834
-0.43861
-0.0340093
-0.0674471
0.438941
-0.430175
0.0727028
0.0180667
0.415197
-0.395242
0.134567
0.112504
0.368444
-0.340513
0.113223
0.129022
0.31913
-0.300197
0.0781325
0.0948383
0.0648532
-0.309759
0.297068
-0.112143
-0.1186
-0.27953
0.26284
-0.0932026
-0.0993226
-0.245451
0.238063
-0.065749
-0.0787172
-0.237439
0.244556
-0.00310929
-0.0360586
-0.256757
0.273622
0.0683334
0.031119
-0.291929
0.312207
0.130832
0.0954428
-0.331712
0.352511
0.178015
0.14801
-0.371913
0.391402
0.19903
0.182689
-0.407168
0.419334
0.161036
0.179138
-0.424891
0.423787
0.0495365
0.106742
-0.415589
0.400758
-0.0815093
-0.0196971
-0.383018
0.362095
-0.146658
-0.117451
-0.34251
0.322269
-0.147548
-0.144554
-0.304267
0.287473
-0.12522
-0.1294
-0.268631
0.257353
-0.0971242
-0.10905
-0.249248
0.247292
-0.0500341
-0.0769583
-0.0212831
0.0694961
-0.0655165
0.215182
0.233794
0.0681994
-0.0706662
0.196075
0.202945
0.0718595
-0.0722364
0.19275
0.18698
0.0719393
-0.0698152
0.227654
0.201773
0.0659486
-0.058572
0.289634
0.254184
0.0552219
-0.0557016
0.355589
0.322031
0.370286
0.227784
-0.261582
-0.235872
-0.289175
0.213058
-0.27147
-0.230711
-0.300652
0.201321
-0.295528
-0.208231
-0.295353
0.198519
-0.328494
-0.178598
-0.274691
0.193056
-0.36422
-0.137234
-0.256794
0.152525
-0.126923
-0.393212
0.179236
-0.39533
-0.103194
-0.25259
-0.0430953
-0.243058
0.0340892
-0.063596
-0.235197
-0.382078
0.359748
-0.104593
-0.126291
0.154208
-0.421129
-0.408069
-0.1003
0.0173178
-0.0240977
-0.236278
-0.26572
0.271556
0.0282538
-0.260756
0.0123536
-0.0899337
0.0908685
0.382764
-0.0843505
0.37134
0.406953
-0.415616
-0.00657402
0.405748
-0.0209602
-0.268478
0.416979
-0.417652
0.0504744
0.0170436
0.410834
-0.398631
0.0866469
0.0691187
0.378893
-0.359722
0.0926881
0.0914647
0.340778
-0.323287
0.0760704
0.0834195
0.308094
-0.295221
0.0503036
0.060401
0.285066
-0.278198
0.0214796
0.0320631
0.273998
-0.274191
-0.00766802
0.00292118
0.27724
-0.283888
-0.0335712
-0.023802
0.29173
-0.301033
-0.0567869
-0.0464457
0.312262
-0.326358
-0.0726146
-0.0648051
0.343689
-0.363516
-0.0776181
-0.0730544
0.384705
-0.406076
-0.069719
-0.0725111
0.422713
-0.430168
-0.0265541
-0.0508102
0.425295
-0.409996
0.0574033
0.0131941
0.38982
-0.367019
0.111767
0.0923279
0.343214
-0.322882
0.0928909
0.105217
0.302294
-0.285399
0.0612372
0.0742511
0.275211
-0.274874
0.050682
0.0546652
0.0415348
-0.338127
0.319854
-0.103005
-0.106327
-0.301504
0.289126
-0.099765
-0.10025
-0.277299
0.265447
-0.0813506
-0.0874954
-0.253308
0.245316
-0.0577569
-0.0665789
-0.245101
0.252484
-0.0104925
-0.0358429
-0.264153
0.28018
0.0523061
0.0194499
-0.297981
0.319043
0.109769
0.0776423
-0.340546
0.364388
0.154173
0.126507
-0.387196
0.410557
0.175669
0.159881
-0.430294
0.445611
0.145719
0.159401
-0.453587
0.453001
0.0501225
0.0987668
-0.444242
0.427184
-0.064452
-0.0109382
-0.406733
0.38251
-0.122436
-0.0969992
-0.359981
0.338029
-0.125596
-0.122024
-0.319277
0.300584
-0.106528
-0.110648
-0.284645
0.270597
-0.0830758
-0.0931113
-0.262924
0.259152
-0.0462622
-0.0692854
-0.0220058
0.0891963
-0.08649
0.256275
0.279852
0.0917273
-0.100177
0.223632
0.239031
0.104867
-0.108492
0.1997
0.207635
0.111575
-0.113699
0.194874
0.190063
0.114676
-0.113223
0.226202
0.20275
0.109136
-0.104592
0.28509
0.250096
0.101102
-0.0951785
0.349666
0.318541
0.365976
0.223828
-0.272351
-0.229237
-0.290649
0.214189
-0.284339
-0.219746
-0.289137
0.213705
-0.310714
-0.197971
-0.275979
0.214742
-0.350181
-0.166487
-0.245438
0.207437
-0.392421
-0.123611
-0.236377
0.188643
-0.429765
-0.0882159
-0.22797
0.11903
-0.0907708
-0.436328
0.15008
-0.452179
-0.0339925
-0.225302
0.00299497
-0.0073991
-0.256352
0.00496378
-0.238247
0.0267867
0.294611
-0.273888
0.399029
-0.413137
0.00753417
-0.367602
0.281128
0.113261
0.0104664
0.421665
-0.415578
0.044387
0.0255718
0.407814
-0.39306
0.0718931
0.0613543
0.376994
-0.35764
0.073334
0.0753992
0.339598
-0.322978
0.0594506
0.0653775
0.309096
-0.296505
0.0377126
0.0465186
0.288231
-0.281582
0.0148305
0.023789
0.280181
-0.28041
-0.00743864
0.00152029
0.284977
-0.289536
-0.0290128
-0.0192347
0.297143
-0.305515
-0.0484144
-0.0388389
0.317489
-0.331407
-0.0586968
-0.0528309
0.346959
-0.363976
-0.0606007
-0.0575028
0.381363
-0.399235
-0.0518464
-0.0551246
0.412716
-0.419111
-0.0201594
-0.037329
0.41389
-0.397235
0.0407482
0.00797291
0.374024
-0.349852
0.087595
0.0691172
0.330131
-0.314322
0.0770813
0.0854963
0.303482
-0.295097
0.0528524
0.0634112
0.288113
-0.281849
0.0444179
0.0476816
0.278081
-0.27484
0.0250124
0.0377668
0.270201
-0.269379
-0.00822119
0.00771475
-0.383375
0.362293
-0.0835111
0.399044
-0.423711
-0.0661042
-0.0846308
-0.343264
0.32713
-0.0868711
-0.087298
-0.310508
0.295927
-0.0851846
-0.0836281
-0.283879
0.273275
-0.0707464
-0.0754471
-0.262907
0.253483
-0.0483322
-0.0562114
-0.25022
0.255352
-0.0156252
-0.0325797
-0.266672
0.283281
0.0356969
0.00813015
-0.301464
0.322653
0.0885801
0.0594599
-0.344325
0.368575
0.129923
0.104835
-0.392733
0.417678
0.150723
0.135723
-0.439098
0.456006
0.12881
0.137981
-0.465735
0.466846
0.0490124
0.0890376
-0.458758
0.440936
-0.0466299
-0.00285115
-0.418687
0.392738
-0.0964864
-0.0747501
-0.369126
0.347263
-0.103733
-0.0984126
-0.329123
0.312323
-0.0897281
-0.0925073
-0.295878
0.282838
-0.0700358
-0.0766663
-0.272747
0.271203
-0.0447183
-0.0591945
-0.269642
0.27809
0.00425928
-0.0204451
0.0369496
0.102921
-0.112325
0.265679
-0.0978687
0.30397
0.284904
0.120286
-0.129423
0.232769
0.246992
0.134306
-0.13839
0.203783
0.212518
0.142063
-0.144566
0.197377
0.193737
0.145623
-0.144075
0.224654
0.203807
0.139258
-0.133741
0.279573
0.245279
0.121274
-0.108117
0.336509
0.306074
0.106366
-0.101371
0.377768
0.364225
0.130899
0.444839
0.400869
-0.0719964
0.102017
-0.466349
-0.438166
-0.0575415
-0.0228714
0.0244448
-0.257925
-0.272645
-0.0196056
0.221616
-0.279778
-0.223613
-0.286783
-0.300242
0.0505355
0.224874
-0.295507
-0.215879
-0.271229
0.440488
-0.368703
0.0414768
-0.0450258
0.0922849
0.39758
-0.00311614
0.398578
0.231523
-0.327495
-0.19188
-0.250586
0.231137
-0.373881
-0.152055
-0.216994
0.219519
-0.423297
-0.103943
-0.22065
0.18746
-0.467145
-0.0588139
-0.203148
0.136459
-0.486621
0.0057382
-0.226077
0.0504642
-0.0386134
-0.450016
0.0705123
-0.486397
0.0310762
-0.244878
-0.0363949
0.0439484
-0.265479
-0.0305848
-0.278455
-0.275884
0.396414
-0.409687
0.0208067
0.0381773
0.411483
-0.409059
0.0419624
0.0273684
0.398482
-0.384836
0.0582472
0.0507772
0.366297
-0.350355
0.0573919
0.0568606
0.334332
-0.319653
0.044771
0.0493549
0.30783
-0.29824
0.028122
0.0346961
0.292992
-0.28972
0.0115584
0.0185416
0.290797
-0.292532
-0.00570424
0.00259724
0.29738
-0.302694
-0.0236995
-0.014386
0.310628
-0.320083
-0.0389589
-0.0309047
0.33056
-0.341465
-0.0477921
-0.0423543
0.351348
-0.362392
-0.0495569
-0.0476194
0.373439
-0.385994
-0.0392915
-0.0440774
0.396495
-0.403603
-0.0130517
-0.0268279
0.402441
-0.39111
0.0294172
0.00681075
0.371839
-0.349899
0.0656551
0.0498462
0.331858
-0.319054
0.0642771
0.0674554
0.309639
-0.304578
0.0477915
0.0539963
0.297386
-0.289216
0.0362484
0.0404894
0.280485
-0.2741
0.0186278
0.0290357
0.273058
-0.275299
-0.0059805
0.00667209
0.277664
-0.283352
-0.0248964
-0.0172405
-0.394666
0.386029
-0.057467
0.410496
-0.42351
-0.0255997
-0.0417115
-0.36831
0.358355
-0.0735561
-0.0669113
-0.34585
0.337823
-0.0788439
-0.0747934
-0.327485
0.314723
-0.0724218
-0.0732907
-0.302047
0.290298
-0.0589976
-0.0627718
-0.280053
0.2697
-0.03798
-0.0459655
-0.262318
0.261106
-0.0144131
-0.0251971
-0.267513
0.281492
0.0217178
0.00172321
-0.299424
0.32129
0.0667143
0.0415276
-0.343747
0.368323
0.105347
0.0823783
-0.392431
0.416812
0.126343
0.111615
-0.438019
0.455835
0.110993
0.116774
-0.466811
0.469118
0.0467057
0.0780616
-0.460985
0.443043
-0.028688
0.005282
-0.420691
0.395871
-0.0716668
-0.052398
-0.373166
0.352609
-0.0831765
-0.075707
-0.335679
0.321001
-0.0750505
-0.0755769
-0.306436
0.295782
-0.0593819
-0.0621012
-0.282696
0.276955
-0.0389768
-0.0461086
-0.275543
0.283204
-0.00340186
-0.0190333
0.0199117
0.110393
-0.116018
0.309594
0.333827
0.124067
-0.137128
0.278739
0.292953
0.145134
-0.151413
0.239047
0.254998
0.156092
-0.159721
0.207413
0.217197
0.16237
-0.163637
0.198645
0.196385
0.163137
-0.160279
0.221796
0.203307
0.154588
-0.145784
0.270769
0.239588
0.133973
-0.120486
0.323022
0.294263
0.10344
-0.0927211
0.36705
0.347179
0.400432
-0.00765083
0.0126312
-0.454997
-0.426141
-0.00501984
-0.0384801
0.0441691
-0.284144
-0.291325
-0.0305075
0.228689
-0.283593
-0.226418
-0.276243
0.408947
-0.392154
0.0246842
0.387861
0.01797
0.240729
-0.304713
-0.215374
-0.247735
0.247189
-0.343548
-0.180593
-0.222048
0.242233
-0.396595
-0.126433
-0.194503
0.215742
-0.451578
-0.0710901
-0.208374
0.163068
-0.493754
-0.0115747
-0.185835
0.0916262
-0.507735
0.0514902
-0.246491
0.0169286
-0.490694
0.0513719
-0.252302
-0.0209822
0.012354
-0.417513
-0.0287927
-0.447186
0.0577725
-0.279082
-0.392221
0.394607
0.0099675
-0.0372785
-0.377146
0.0222034
-0.049377
-0.405414
-0.105873
0.356403
-0.041316
0.0505714
-0.293399
-0.0366013
-0.296039
-0.273614
0.389218
-0.396257
0.0278456
0.0352408
0.399646
-0.393348
0.0356639
0.0307582
0.383422
-0.369915
0.0447406
0.0408511
0.356095
-0.34148
0.0427768
0.0430405
0.328423
-0.317159
0.0335068
0.0362982
0.308476
-0.302342
0.0219879
0.0260127
0.298807
-0.296866
0.00961747
0.0150075
0.296717
-0.297246
-0.00517462
0.00244755
0.299133
-0.30198
-0.0208525
-0.0124994
0.306527
-0.312688
-0.0327979
-0.026358
0.319891
-0.328847
-0.0388359
-0.0351512
0.338632
-0.350336
-0.0378533
-0.0378339
0.361826
-0.373395
-0.0277225
-0.0325873
0.382287
-0.388062
-0.00727728
-0.0179355
0.388102
-0.381433
0.0227481
0.00685135
0.368439
-0.351641
0.0488568
0.0368522
0.336058
-0.323676
0.0518947
0.0518727
0.315056
-0.307979
0.0407143
0.0453766
0.301352
-0.294153
0.0290491
0.0338627
0.286542
-0.281396
0.0134818
0.0214244
0.27771
-0.277138
-0.00655163
0.0029859
0.279302
-0.285184
-0.0190146
-0.0150769
0.291642
-0.297934
-0.0303097
-0.0240489
-0.395875
0.392339
-0.0220643
-0.00628735
-0.387643
0.37646
-0.0462838
-0.0370154
-0.362646
0.349132
-0.0600421
-0.0530974
-0.335738
0.322558
-0.0656639
-0.0613993
-0.310468
0.300641
-0.0625954
-0.0612009
-0.292506
0.285687
-0.0521787
-0.0546359
-0.28063
0.276135
-0.0334848
-0.0409093
-0.271904
0.269185
-0.0116939
-0.020966
-0.270949
0.279215
0.013451
-4.05084e-05
-0.293424
0.313335
0.046804
0.0273188
-0.335762
0.36052
0.0805893
0.0599505
-0.384917
0.409145
0.102116
0.0872171
-0.430076
0.447119
0.0939504
0.0958429
-0.45646
0.456696
0.0464693
0.0687209
-0.448162
0.431924
-0.0124496
0.0138155
-0.412716
0.392005
-0.0509557
-0.0331903
-0.372332
0.354205
-0.0650494
-0.0560336
-0.338527
0.325784
-0.0623076
-0.0598994
-0.314237
0.303869
-0.0490137
-0.0505543
-0.294281
0.288412
-0.0331079
-0.0365207
-0.286947
0.291706
-0.00816071
-0.0175683
-0.293797
0.31364
0.0306931
0.0178205
0.0604052
0.114593
-0.128832
0.323833
0.342547
0.143594
-0.155229
0.290375
0.307715
0.163606
-0.169009
0.24445
0.263376
0.17243
-0.174117
0.2091
0.220618
0.174663
-0.174172
0.198154
0.196931
0.171731
-0.166981
0.217046
0.200866
0.159492
-0.148672
0.259949
0.232098
0.135003
-0.121806
0.309825
0.280594
0.100413
-0.084344
0.350981
0.325786
0.0437213
-0.0310978
0.384957
0.35981
0.0357327
-0.0682431
0.420371
0.403213
0.240513
-0.283377
-0.23272
-0.258898
0.0397922
-0.0349925
-0.302734
0.0458522
-0.302099
0.378346
-0.41291
-0.0336796
-0.0945477
0.275561
0.239358
0.330469
-0.0466706
-0.295043
0.287456
-0.0227233
-0.297501
-0.0325339
0.25211
-0.309634
-0.207211
-0.221117
0.252922
-0.354236
-0.15359
-0.194891
0.232387
-0.41324
-0.0852492
-0.180344
0.179018
-0.467528
-0.022622
-0.197327
0.0994036
-0.501532
0.046605
-0.18095
0.0133189
-0.504126
0.0791212
-0.27424
-0.047706
-0.471781
0.067119
-0.261649
0.030187
-0.364848
-0.0424846
-0.356372
0.3643
0.0222589
-0.034911
-0.347295
0.0258342
-0.35364
-0.0461189
-0.0696972
-0.426866
0.0678494
-0.29636
-0.385862
-0.0620371
0.0323556
-0.0669086
0.310114
-0.334888
0.057451
-0.0617155
0.333429
-0.26582
0.392769
-0.388061
0.0199769
-0.00217092
0.381542
-0.37691
0.0232139
0.0287214
0.375801
-0.371334
0.0311967
0.0296491
0.364329
-0.3545
0.0349109
0.0338463
0.344774
-0.33402
0.0320225
0.0333149
0.325435
-0.317478
0.0255498
0.0277139
0.312072
-0.307718
0.0176333
0.0206065
0.305081
-0.30319
0.00772681
0.0123705
0.302399
-0.302663
-0.00491059
0.00165663
0.304304
-0.307853
-0.0173039
-0.0108579
0.312534
-0.318923
-0.0264089
-0.0216771
0.32569
-0.333751
-0.030774
-0.0283847
0.341639
-0.350017
-0.0294758
-0.0299464
0.357208
-0.36382
-0.0211111
-0.0253955
0.36871
-0.371923
-0.00406395
-0.0130453
0.371986
-0.367803
0.018565
0.00691389
0.359328
-0.347519
0.037047
0.0283779
0.335409
-0.324358
0.0408442
0.0397628
0.315702
-0.308481
0.0334932
0.0367207
0.302295
-0.296411
0.0231648
0.0276769
0.291444
-0.287652
0.00968978
0.0164573
0.285994
-0.285333
-0.0072127
0.00132747
0.285644
-0.285916
-0.0187419
-0.0147657
-0.0225092
-0.373954
0.379798
0.00412377
0.0125486
-0.382219
0.379125
-0.018971
-0.00870768
-0.371954
0.364838
-0.0391682
-0.029844
-0.356642
0.348034
-0.0514343
-0.044901
-0.339616
0.330187
-0.0562346
-0.0529815
-0.320764
0.311075
-0.0529067
-0.0517777
-0.302332
0.294221
-0.044068
-0.0458926
-0.288122
0.283723
-0.0290861
-0.0348096
-0.280959
0.279123
-0.00985774
-0.0182022
-0.279235
0.282798
0.00988799
-0.000152845
-0.291244
0.305375
0.0326727
0.018873
-0.323497
0.345257
0.0588291
0.0418287
-0.367264
0.389369
0.0800106
0.0652104
-0.407823
0.422246
0.0795282
0.0773888
-0.429773
0.43053
0.0457124
0.0611936
-0.424728
0.413653
-0.00137447
0.019617
-0.399911
0.384069
-0.0351131
-0.0194485
-0.368536
0.353064
-0.0495774
-0.0405009
-0.339012
0.327392
-0.0506878
-0.0458475
-0.317484
0.309562
-0.0410911
-0.0406461
-0.301875
0.295656
-0.0268893
-0.0288338
-0.292277
0.290786
-0.00667015
-0.014189
-0.299852
0.309812
0.0207333
0.00875466
0.0353295
0.102185
-0.115257
0.369475
0.392105
0.128341
-0.145276
0.340768
0.355631
0.158846
-0.168994
0.300523
0.321285
0.175638
-0.179065
0.247877
0.270019
0.180206
-0.179416
0.20831
0.221759
0.177459
-0.174458
0.195153
0.194974
0.169958
-0.163602
0.21069
0.196366
0.155168
-0.14401
0.248791
0.223664
0.131032
-0.116141
0.294934
0.267616
0.0997001
-0.0791577
0.330438
0.309344
0.0551938
-0.0184986
0.348261
0.335846
0.317806
0.0542013
-0.301748
0.305907
-0.0371529
-0.0318821
0.037998
-0.30885
-0.307897
-0.0214862
0.245655
-0.276923
-0.230505
-0.235604
0.249654
-0.306366
-0.18133
-0.193376
0.23352
-0.355369
-0.106832
-0.173308
0.0464771
-0.310578
0.181511
-0.415733
-0.0278533
-0.175113
0.0947281
-0.462853
0.0401897
-0.190911
-0.00808387
-0.480129
0.0921513
-0.19398
0.0266235
-0.338538
-0.03538
-0.335887
0.34053
0.02198
-0.0248464
-0.331761
0.0207203
-0.33276
-0.0306247
-0.0799113
-0.47192
0.0923192
-0.29944
-0.344583
-0.0444365
-0.102669
-0.438809
0.0828527
-0.276652
-0.367385
-0.0645958
-0.0898016
-0.399102
0.0746264
-0.316785
0.0316545
-0.0480575
0.32231
0.252569
-0.391429
0.255307
0.103863
-0.118949
0.359204
-0.02978
0.0357629
-0.314832
-0.316724
-0.0209531
-0.00683576
0.363267
-0.25067
0.357821
-0.384692
-0.00680914
-0.332744
-0.0320506
0.327642
-0.0215935
0.382453
-0.374317
0.0118402
-0.0044093
0.367257
-0.363304
0.0192616
0.0216613
0.357605
-0.353518
0.0271095
0.02395
0.348249
-0.341888
0.0285499
0.0285773
0.335558
-0.328919
0.0253836
0.0269847
0.323468
-0.318313
0.0203944
0.022263
0.314362
-0.31095
0.0142208
0.0166561
0.308312
-0.3065
0.00591553
0.00973245
0.305546
-0.3061
-0.00435696
0.000702093
0.307649
-0.310738
-0.0142154
-0.00930814
0.314575
-0.319491
-0.021493
-0.0178401
0.324633
-0.330402
-0.0250052
-0.0232421
0.336112
-0.34229
-0.0232978
-0.0242364
0.348205
-0.353944
-0.0153726
-0.01948
0.358156
-0.360346
-0.0018735
-0.00883344
0.359665
-0.355887
0.0147864
0.00623287
0.349434
-0.340763
0.028376
0.0219248
0.331638
-0.322789
0.0319957
0.0306382
0.315305
-0.308801
0.0269895
0.0292361
0.30338
-0.298569
0.0183541
0.0222559
0.294739
-0.29202
0.00697105
0.0126266
0.290915
-0.291508
-0.00661957
0.000222061
0.293308
-0.294778
-0.0172712
-0.0129657
0.296114
-0.295711
-0.0231268
-0.0211732
0.301967
-0.30519
-0.0182628
-0.0262777
-0.0301184
-0.31288
0.0262743
0.303904
-0.311795
-0.0222267
-0.0222398
-0.348963
0.358444
0.0127784
0.0174009
-0.36501
0.368996
0.000138003
0.00598238
-0.369661
0.366991
-0.016301
-0.00937282
-0.364015
0.358057
-0.0332101
-0.0268683
-0.350709
0.341247
-0.0419722
-0.0375524
-0.33314
0.324611
-0.0477058
-0.044875
-0.317276
0.310026
-0.0456569
-0.0444419
-0.303718
0.297535
-0.0378855
-0.0395845
-0.292671
0.288896
-0.0253114
-0.0299454
-0.28681
0.285992
-0.00903994
-0.0161156
-0.286421
0.288623
0.00768565
-0.000581973
-0.293174
0.30154
0.0243072
0.014322
-0.312899
0.328093
0.0436358
0.0304693
-0.343993
0.361304
0.0627002
0.0493096
-0.376319
0.3896
0.0662472
0.0623737
-0.398049
0.402063
0.0416982
0.0527446
-0.400908
0.39536
0.00417399
0.0207721
-0.386986
0.375638
-0.0237653
-0.0110746
-0.364464
0.35178
-0.0368934
-0.0293272
-0.340798
0.329575
-0.0394644
-0.0348653
-0.321203
0.313643
-0.0335309
-0.0322745
-0.307871
0.302626
-0.0216451
-0.0230615
-0.29937
0.299109
-0.00640962
-0.0109321
-0.303058
0.309696
0.0140951
0.00480588
-0.319206
0.341723
0.0349343
0.0258191
0.0433542
0.0988424
-0.110225
0.380857
0.371998
0.130693
-0.148121
0.358196
0.3761
0.161173
-0.171784
0.311134
0.334337
0.178666
-0.181642
0.250854
0.2769
0.181233
-0.178309
0.205387
0.221349
0.173822
-0.168319