/*--------------------------------*- C++ -*----------------------------------*\
  =========                 |
  \\      /  F ield         | OpenFOAM: The Open Source CFD Toolbox
   \\    /   O peration     | Website:  https://openfoam.org
    \\  /    A nd           | Version:  10
     \\/     M anipulation  |
\*---------------------------------------------------------------------------*/
FoamFile
{
    format      ascii;
    class       volVectorField;
    location    "40";
    object      U;
}
// * * * * * * * * * * * * * * * * * * * * * * * * * * * * * * * * * * * * * //

dimensions      [0 1 -1 0 0 0 0];

internalField   nonuniform List<vector> 
6397
(
(4.35724 -0.754259 1.00748e-19)
(4.24558 -0.572717 -4.42795e-19)
(3.42294 -0.0676215 0)
(3.45505 -0.403109 2.40776e-21)
(3.25188 -0.790954 3.05745e-20)
(3.23001 -0.416606 6.24803e-20)
(3.53123 -2.17327 -3.51263e-19)
(1.94362 -3.72986 1.16858e-18)
(-0.447414 1.72525 4.6086e-19)
(-1.47 1.56596 -2.36599e-19)
(1.78679 2.85402 1.27409e-18)
(3.54541 3.52984 -1.70568e-19)
(3.6954 0.103189 -2.36125e-20)
(3.69556 0.0909288 -8.93791e-21)
(2.5446 0.110364 1.56976e-20)
(-1.26456 -0.521276 -1.58179e-18)
(0.0618841 0.0739523 -7.69678e-19)
(-2.27598 0.465955 8.4942e-19)
(1.33613 -0.0654952 8.07387e-19)
(2.11105 -0.678285 -2.45839e-18)
(1.83748 -0.136733 -1.22116e-18)
(2.09207 0.0138012 -3.55716e-18)
(0.730683 0.0964253 1.73245e-19)
(3.96131 0.545006 -2.56199e-18)
(4.07133 0.126469 0)
(4.33157 0.0730667 -3.61306e-21)
(4.44284 0.123122 -2.93413e-21)
(3.05348 2.58064 1.9902e-19)
(3.07511 2.61034 -5.00289e-20)
(2.8792 2.27362 9.22386e-20)
(2.97287 2.45551 -1.3925e-19)
(3.77147 -0.963076 9.32612e-20)
(3.75471 -0.641305 6.66718e-20)
(3.50772 -0.743366 -2.28097e-19)
(4.40784 -1.0956 1.89267e-20)
(4.32436 -0.871914 0)
(4.17145 -1.04429 -2.69591e-20)
(3.97434 -0.839346 -6.19283e-20)
(4.71647 -0.812777 4.34666e-20)
(4.85689 -0.885399 -2.16515e-20)
(4.72625 -1.03418 0)
(4.5089 -0.880133 0)
(2.77195 1.9747 -4.36312e-20)
(2.77345 0.0604643 3.49992e-20)
(2.84278 0.517877 -3.43218e-20)
(3.2112 -0.0349814 1.14965e-19)
(2.99263 -0.420328 4.52789e-20)
(2.99363 0.0059311 -1.34671e-19)
(5.17751 -0.59705 2.44721e-20)
(4.94875 -0.457 -5.15994e-21)
(4.88654 -0.329713 6.64583e-20)
(4.60189 -0.261122 -2.08885e-20)
(4.7346 -0.311246 -1.39377e-19)
(4.38759 0.928094 -1.46202e-19)
(3.44528 0.634247 9.43642e-20)
(4.03584 0.0514465 4.44145e-20)
(4.05237 0.06586 4.31679e-20)
(4.30983 -0.0574424 -3.18668e-20)
(2.33543 0.981725 -1.27342e-19)
(2.51844 1.56438 1.26587e-19)
(2.22684 0.264673 1.41336e-19)
(2.21384 -0.503297 -1.38671e-19)
(2.31553 -1.23522 -1.33877e-19)
(2.47575 -1.8592 1.31622e-19)
(2.68322 -2.33642 0)
(2.87518 -2.65875 9.74348e-20)
(3.05306 -2.84759 -1.0242e-19)
(3.16756 -2.92618 0)
(2.54074 1.37864 -6.91906e-20)
(2.71759 1.99173 -1.81364e-21)
(2.7391 1.81568 6.47747e-20)
(2.3772 0.824946 0)
(2.27502 0.168523 0)
(2.27326 -0.529176 0)
(2.36011 -1.18886 -2.53432e-22)
(2.52223 -1.75538 5.05375e-23)
(2.7222 -2.1959 0)
(2.92134 -2.50949 -7.56932e-24)
(3.113 -2.71497 0)
(3.25796 -2.85055 0)
(2.90913 2.1347 -6.90375e-20)
(2.89045 2.27259 5.46659e-21)
(3.24072 -2.94159 0)
(3.36754 -2.92059 0)
(3.06168 2.36649 -3.18334e-21)
(3.00444 2.44943 0)
(3.21566 -2.86423 0)
(3.4014 -2.9031 0)
(3.14859 2.5208 1.47106e-19)
(3.07985 2.55932 -2.10565e-20)
(3.13865 -2.64084 0)
(3.3827 -2.71235 0)
(3.2067 2.59038 -1.22426e-19)
(3.21989 2.59213 -9.27763e-20)
(3.02343 -2.17464 0)
(3.32018 -2.23061 2.96708e-20)
(3.24415 2.42521 0)
(3.42062 2.56169 1.72531e-19)
(3.34006 2.55074 1.01729e-20)
(2.97479 1.95382 -3.59959e-20)
(3.12898 2.22969 0)
(2.62328 1.18224 -1.8182e-20)
(2.81422 1.61967 3.55964e-20)
(2.40915 0.0751774 2.11134e-20)
(2.50237 0.664779 1.59395e-20)
(2.51127 -1.11392 2.53835e-22)
(2.43322 -0.534544 -2.17028e-20)
(2.84571 -2.04979 -1.66143e-21)
(2.65981 -1.63014 -2.3064e-20)
(3.258 -2.58199 -2.43228e-20)
(3.04317 -2.36297 4.78322e-20)
(3.58173 -2.83381 0)
(3.42861 -2.73363 0)
(3.72056 -2.68423 0)
(3.66341 -2.84177 0)
(3.73619 -2.2085 -6.06413e-20)
(3.13011 -2.77962 -1.19011e-19)
(2.86837 -2.0597 -8.05924e-20)
(3.01949 -2.53096 1.17512e-19)
(3.1468 -2.94347 1.01864e-19)
(3.18128 -2.89958 -9.95551e-20)
(2.92791 -2.74615 8.84689e-22)
(3.06795 -2.89974 3.16123e-21)
(2.56846 -1.95483 0)
(2.75708 -2.43676 0)
(2.3498 -0.455502 2.00678e-19)
(2.42858 -1.27287 2.77906e-20)
(2.45556 1.16976 3.48886e-20)
(2.36729 0.406697 -1.98857e-19)
(2.78608 2.16703 6.37472e-20)
(2.61124 1.77267 -8.04205e-21)
(3.03042 2.51591 -8.99741e-20)
(2.94 2.39659 -5.83728e-20)
(3.03244 2.54504 0)
(3.06017 2.56683 9.87777e-20)
(3.18683 2.47491 -1.2027e-19)
(2.97951 2.42173 3.41662e-21)
(3.47138 2.45026 5.98205e-20)
(3.78552 -1.3465 -1.1347e-19)
(3.28845 -1.40673 2.7491e-20)
(2.82942 -1.91338 -6.54049e-22)
(2.75012 -1.3291 8.0847e-20)
(2.68796 -1.23095 0)
(3.81672 -0.201364 7.79721e-20)
(4.3643 -1.24949 -1.5501e-19)
(4.42807 -0.0780537 1.54146e-19)
(2.85503 2.13504 4.21107e-20)
(3.65702 2.50108 -8.42335e-20)
(3.79362 2.42662 -5.71896e-20)
(2.72915 1.82353 4.28382e-20)
(2.93716 -1.38287 7.36153e-21)
(3.43627 2.29536 0)
(3.54699 2.44663 -9.7654e-21)
(3.13096 1.78671 -9.36558e-22)
(3.26781 2.07247 0)
(2.8086 1.01839 -1.19526e-21)
(2.94228 1.4301 4.62338e-22)
(2.63302 0.0298257 0)
(2.68096 0.548609 1.58656e-21)
(2.69967 -1.01918 0)
(2.62599 -0.498157 7.59028e-22)
(2.99666 -1.86788 0)
(2.81605 -1.4855 1.64474e-21)
(3.43035 -2.36656 -7.93744e-22)
(3.19487 -2.14858 2.09062e-21)
(3.83988 -2.68272 2.24843e-21)
(3.6369 -2.5447 -3.52333e-21)
(4.14088 -2.59494 -2.84615e-21)
(4.00139 -2.73639 -2.43992e-21)
(4.26267 -2.12081 3.06288e-20)
(3.15112 -2.66771 1.18175e-21)
(3.01168 -2.37128 1.70677e-21)
(3.26761 -2.96919 -9.78166e-23)
(3.24197 -2.85671 0)
(3.13339 -2.87844 0)
(3.2281 -2.9861 -1.84878e-21)
(2.86134 -2.06273 0)
(2.98754 -2.57871 0)
(2.69475 -0.382353 -2.8434e-22)
(2.73908 -1.28471 -2.82015e-20)
(2.73223 1.39399 -2.54693e-20)
(2.67201 0.56308 0)
(2.96304 2.3636 -6.80782e-20)
(2.82772 1.99229 0)
(3.12367 2.56539 3.01256e-21)
(3.06876 2.52658 6.82306e-20)
(3.05511 2.48474 6.42499e-23)
(3.11238 2.55338 1.03099e-20)
(2.95967 2.34948 -3.93383e-20)
(3.15848 2.21048 2.16366e-20)
(2.91681 2.1365 0)
(3.86382 2.19609 4.39926e-20)
(3.49058 2.21469 -3.89969e-20)
(2.60363 -0.346759 0)
(2.69028 -0.351239 0)
(3.29247 -0.283013 -3.64142e-20)
(4.93673 -1.05958 -1.4925e-20)
(5.02238 0.0893533 0)
(4.4511 1.15047 -1.96056e-20)
(3.87507 1.03865 1.02115e-20)
(2.62322 -0.316937 0)
(2.60371 0.620086 0)
(2.60916 0.546876 -3.71185e-20)
(2.6832 1.56984 6.52121e-20)
(2.60751 1.42662 0)
(3.94821 1.78095 -9.86213e-20)
(4.2605 2.13281 -6.61336e-22)
(4.39319 1.73974 2.26323e-19)
(2.78884 1.64043 0)
(2.93301 1.94635 -2.16169e-20)
(2.91585 -0.332007 0)
(3.92515 2.37088 5.67329e-21)
(4.16946 2.30618 0)
(3.60747 2.12989 -7.99776e-24)
(3.81633 2.29889 1.92817e-21)
(3.28592 1.59207 2.02899e-22)
(3.45446 1.90219 0)
(3.0056 0.864045 -3.22695e-23)
(3.11791 1.25862 5.12337e-22)
(2.85261 -0.0084314 3.26356e-23)
(2.87928 0.451434 6.60579e-22)
(2.8959 -0.938098 -2.26297e-21)
(2.8228 -0.474347 0)
(3.18604 -1.68269 0)
(2.99932 -1.34828 2.30604e-21)
(3.61856 -2.16388 -7.61536e-22)
(3.38393 -1.95255 1.658e-22)
(4.09768 -2.46497 0)
(3.85158 -2.33399 -1.78534e-22)
(4.56861 -2.40007 -2.73978e-21)
(4.33072 -2.53685 8.0857e-21)
(4.78015 -1.9296 2.96206e-20)
(2.89569 -1.74967 -6.93393e-21)
(2.73798 -1.11126 2.39366e-23)
(3.26419 -2.54674 -3.41108e-21)
(3.09097 -2.21375 1.14228e-20)
(3.46068 -2.96416 -2.95123e-21)
(3.38431 -2.78889 -1.03923e-20)
(3.44543 -2.99091 0)
(3.47487 -3.04298 1.56043e-20)
(3.3012 -2.18066 0)
(3.37424 -2.71817 0)
(3.16351 -0.443581 5.90689e-22)
(3.22146 -1.39573 0)
(3.14957 1.42701 0)
(3.1338 0.548483 0)
(3.24415 2.43717 0)
(3.18506 2.07463 0)
(3.28281 2.56087 2.09934e-20)
(3.28199 2.56341 0)
(3.15517 2.36621 -6.36087e-23)
(3.23515 2.48707 -2.14491e-20)
(3.03147 2.1943 2.40045e-20)
(3.13775 1.77054 4.04576e-20)
(2.85136 1.71208 -6.11133e-20)
(3.51259 1.80486 8.9035e-20)
(5.00378 1.29653 1.26256e-19)
(2.72652 0.711543 0)
(3.36524 0.919168 4.63727e-20)
(2.69519 1.35553 3.91323e-20)
(2.69697 1.50767 0)
(4.45315 2.19023 1.73533e-20)
(3.93065 2.09926 4.59446e-20)
(3.99466 1.23864 1.08415e-21)
(4.50065 1.21824 4.73937e-21)
(2.58518 1.02448 6.47973e-20)
(2.49625 0.930758 4.03923e-20)
(3.05098 1.80503 1.02869e-20)
(2.89611 1.47753 0)
(4.64958 2.01025 4.6015e-21)
(4.81838 1.65162 7.8748e-21)
(4.95017 2.30029 -1.26605e-19)
(4.83146 2.91787 -1.23305e-20)
(4.4023 2.8801 -8.01162e-20)
(2.64907 1.25252 1.58962e-20)
(2.97134 0.80922 0)
(4.20558 2.24275 7.86333e-21)
(4.51336 2.18987 -3.82663e-20)
(3.79417 1.96403 1.01468e-22)
(4.08879 2.15255 3.91387e-21)
(3.46043 1.42176 0)
(3.68744 1.72798 0)
(3.20013 0.74162 -1.55358e-23)
(3.33522 1.11024 2.53089e-27)
(3.04377 -0.0536445 -3.23451e-23)
(3.08997 0.366262 0)
(3.09011 -0.857578 0)
(3.01504 -0.462147 3.01013e-27)
(3.38471 -1.49517 0)
(3.19628 -1.2041 0)
(3.83811 -1.91548 0)
(3.58244 -1.73583 0)
(4.35362 -2.21036 0)
(4.08437 -2.07962 0)
(4.91512 -2.1396 0)
(4.61675 -2.27745 0)
(5.37464 -0.906874 -2.2817e-20)
(5.17272 -1.71052 0)
(5.40824 1.31425 0)
(5.46299 0.180716 1.88128e-21)
(5.07145 2.75455 0)
(5.28195 2.23251 -1.73146e-20)
(2.72534 -0.240498 -4.05705e-21)
(2.77924 1.22503 -5.42035e-21)
(2.70504 0.511541 4.07472e-21)
(3.03224 -1.55766 1.57913e-21)
(2.84568 -0.95471 -2.39314e-23)
(3.44 -2.40809 -1.57489e-21)
(3.24025 -2.03488 -1.86764e-21)
(3.72443 -2.91951 -1.36351e-23)
(3.60152 -2.69873 0)
(3.83908 -3.03474 0)
(3.79884 -3.051 0)
(3.84753 -2.26724 0)
(3.84819 -2.79274 0)
(3.78471 -0.497827 1.16493e-23)
(3.81256 -1.47625 0)
(3.71992 1.44109 0)
(3.7393 0.530279 0)
(3.63273 2.4608 0)
(3.67127 2.09689 0)
(3.51766 2.5089 1.32551e-20)
(3.57827 2.55799 -1.37903e-20)
(3.28212 2.25004 4.28475e-21)
(3.40757 2.38819 -8.14106e-22)
(3.14686 2.06206 -1.64763e-20)
(3.0936 1.18831 -6.3657e-20)
(2.77981 1.13122 -7.0141e-20)
(3.50522 1.24788 0)
(2.85719 1.98041 0)
(2.94088 1.78356 4.00895e-21)
(4.69357 3.1539 5.2856e-20)
(4.85743 2.92654 0)
(2.82046 1.67005 0)
(3.45804 1.96193 0)
(4.96563 1.16767 0)
(2.52589 0.787033 -3.91269e-20)
(3.18337 1.64147 -1.22319e-21)
(3.02819 1.31952 0)
(2.86927 2.17979 3.97204e-21)
(3.99595 2.82515 -6.29675e-20)
(3.17322 2.10384 2.82825e-21)
(3.0839 2.35793 -2.29251e-21)
(4.32955 3.18952 9.32327e-20)
(4.51692 3.06172 -1.9733e-20)
(4.57184 2.77955 0)
(2.78633 1.10548 2.29098e-20)
(3.07814 1.82232 0)
(4.995 1.85061 -4.40636e-20)
(5.36464 1.08118 -5.10614e-20)
(5.18539 1.54476 -1.76006e-19)
(4.49866 2.07325 -2.9005e-21)
(4.78578 2.03939 3.43127e-20)
(4.02539 1.79239 0)
(4.33938 1.9737 8.85019e-22)
(3.64277 1.27129 -2.57112e-27)
(3.91353 1.54926 2.67341e-27)
(3.35105 0.630604 -1.05478e-23)
(3.54293 0.966742 0)
(3.19842 -0.0781814 0)
(3.27435 0.286171 0)
(3.2735 -0.755011 5.73764e-23)
(3.20871 -0.423789 -3.01016e-27)
(3.57634 -1.29639 -2.92716e-27)
(3.392 -1.04592 3.03947e-27)
(4.05538 -1.66941 0)
(3.7922 -1.50109 0)
(4.5825 -1.95088 -5.17875e-24)
(4.30568 -1.83 0)
(5.18053 -1.85871 -4.47246e-23)
(4.86437 -1.98831 0)
(5.69836 -0.771007 -5.26872e-21)
(5.46461 -1.47174 0)
(5.70713 1.24761 3.08485e-20)
(5.78411 0.211038 1.16913e-20)
(5.17454 2.49744 1.27e-20)
(5.48728 2.0668 -1.33669e-20)
(4.54265 2.40801 -2.50244e-21)
(4.86443 2.58904 -1.26839e-20)
(2.90767 1.11144 3.28176e-23)
(3.33095 1.82452 1.01105e-21)
(3.06545 1.56758 -2.96062e-22)
(2.89011 -0.188671 -2.17389e-22)
(2.84082 0.481772 -2.36256e-23)
(3.19354 -1.37529 -8.38604e-23)
(3.01113 -0.820314 -3.61526e-23)
(3.62648 -2.23273 0)
(3.40896 -1.84099 3.68286e-22)
(4.00443 -2.81617 -1.20091e-22)
(3.82488 -2.55653 -3.0711e-27)
(4.28376 -3.01081 0)
(4.15054 -2.98959 0)
(4.45113 -2.30461 -2.44542e-22)
(4.37442 -2.80044 0)
(4.45807 -0.559291 -3.24811e-22)
(4.45971 -1.53129 0)
(4.32715 1.36552 0)
(4.39251 0.464742 0)
(4.08339 2.36438 0)
(4.19898 2.01695 0)
(3.79881 2.39326 0)
(3.92516 2.46487 0)
(3.47725 2.09369 0)
(3.61748 2.25003 5.4308e-22)
(3.29571 1.89252 -4.36666e-22)
(3.46408 2.21449 -3.21006e-21)
(3.64108 1.91059 0)
(4.27838 2.49298 -8.28385e-22)
(4.26132 2.11919 2.29272e-21)
(2.64429 0.652791 0)
(2.9567 0.941525 7.05156e-21)
(2.48676 0.248714 -3.04286e-20)
(2.6033 0.161155 4.216e-21)
(2.54198 0.362916 3.94247e-20)
(2.46965 0.324525 -9.11613e-21)
(3.0544 0.484555 -2.08541e-21)
(2.72825 0.439213 -3.54646e-20)
(4.01081 0.55879 -1.16176e-19)
(3.49939 0.547591 1.24918e-20)
(4.99228 0.586124 0)
(4.52575 0.579258 1.09683e-19)
(5.38711 0.581626 9.1523e-20)
(2.99166 2.38707 -4.00479e-21)
(3.58144 2.7077 -2.63171e-26)
(3.06455 2.57825 2.3019e-21)
(4.03099 3.1791 0)
(3.32954 2.48604 0)
(4.23718 3.15933 0)
(3.92732 1.96329 -4.10726e-24)
(3.74439 2.24798 4.64944e-23)
(4.32664 2.79935 -3.22774e-20)
(3.99789 1.81744 -1.94559e-21)
(3.98394 2.13708 -2.26486e-21)
(5.63903 0.979526 6.60985e-20)
(5.67978 0.563601 -7.20832e-20)
(3.21978 2.54905 -2.02586e-26)
(5.2594 1.66382 7.66952e-21)
(5.45924 1.42105 -1.8455e-20)
(4.74076 1.84083 1.58498e-21)
(5.00444 1.84617 0)
(4.23317 1.57583 -1.75481e-27)
(4.5163 1.75211 -1.45503e-21)
(3.79355 1.08881 0)
(4.0607 1.34457 0)
(3.47816 0.506804 5.80904e-23)
(3.67704 0.801603 0)
(3.34929 -0.10277 0)
(3.43232 0.20142 0)
(3.43496 -0.67374 -1.22432e-22)
(3.39429 -0.402862 0)
(3.73973 -1.11024 -5.97965e-23)
(3.57561 -0.921618 0)
(4.1788 -1.42334 0)
(3.95813 -1.28304 0)
(4.68713 -1.66769 -2.15392e-23)
(4.41717 -1.567 0)
(5.31145 -1.58243 3.74663e-23)
(4.98825 -1.6944 0)
(5.84172 -0.624418 3.99661e-23)
(5.60183 -1.23464 -3.60354e-27)
(5.89945 1.11615 -6.24176e-23)
(5.93927 0.227806 0)
(5.38444 2.19204 -3.54361e-21)
(5.69056 1.82841 4.33231e-21)
(4.66261 2.06886 1.3289e-20)
(5.01512 2.24377 4.01733e-21)
(4.07713 1.52365 -2.38719e-20)
(4.35281 1.79476 2.88179e-21)
(3.49403 1.55482 7.36088e-24)
(4.03761 1.76906 -3.69954e-23)
(3.7884 1.64542 0)
(3.05658 0.998218 4.39208e-22)
(3.22045 1.35674 -9.20989e-22)
(3.03548 -0.0934374 1.78588e-22)
(2.98752 0.48841 1.14985e-22)
(3.37184 -1.19496 -1.36809e-23)
(3.17598 -0.665138 9.93294e-23)
(3.82712 -2.04072 0)
(3.5969 -1.65085 0)
(4.27124 -2.63735 5.1049e-23)
(4.04977 -2.36846 -3.60537e-27)
(4.68706 -2.87186 1.20184e-26)
(4.47485 -2.82325 -1.27188e-26)
(5.02026 -2.25121 3.63957e-23)
(4.85992 -2.69716 0)
(5.11521 -0.603316 0)
(5.09465 -1.52779 0)
(4.92457 1.25709 2.22434e-22)
(5.04468 0.387173 0)
(4.52727 2.19716 0)
(4.73587 1.87287 0)
(4.08781 2.1997 3.98441e-23)
(4.29291 2.27635 0)
(3.67143 1.90054 1.04752e-23)
(3.86313 2.05357 2.65465e-22)
(3.32865 1.48473 8.44275e-21)
(3.46802 1.71777 0)
(3.11552 0.80765 6.77681e-20)
(3.19927 1.17785 -4.16521e-20)
(3.05239 0.422143 -8.13233e-21)
(2.52706 -0.350915 0)
(2.7777 -0.390709 2.20274e-21)
(2.62496 -0.33663 -6.64223e-21)
(2.52442 -0.322141 0)
(2.4781 -0.336601 0)
(3.01428 -0.257358 -5.13726e-20)
(2.69275 -0.293352 -1.07058e-26)
(3.98044 -0.142616 2.9047e-20)
(3.45359 -0.190179 9.30538e-20)
(5.01714 -0.0424 0)
(4.52158 -0.0750496 -8.14108e-20)
(4.141 2.07217 -1.5817e-23)
(4.22954 1.92694 -1.86222e-22)
(3.77499 1.61941 2.34462e-20)
(3.81738 1.32189 6.05373e-20)
(5.6821 0.0200206 -6.86702e-20)
(5.41189 -0.0100642 3.1617e-20)
(3.17443 2.79157 -1.75082e-25)
(3.67756 3.08287 0)
(3.27445 2.71313 0)
(4.05568 3.19147 -3.51376e-25)
(3.58634 2.49018 -2.02439e-23)
(4.1381 2.92474 -7.80769e-21)
(3.98408 2.34351 2.91819e-23)
(4.0942 2.49242 0)
(4.46529 2.04948 6.19137e-21)
(4.34908 2.21345 -3.0133e-24)
(3.68084 1.86664 6.04467e-21)
(3.56927 1.15513 -6.46532e-20)
(3.57944 1.46643 -9.56891e-21)
(4.50382 1.73747 1.83513e-21)
(4.74675 2.12696 -6.25186e-21)
(4.77032 1.78161 -3.95522e-21)
(3.31565 0.984034 -4.09689e-20)
(3.41224 0.852802 8.95934e-20)
(3.223 0.736841 1.572e-20)
(5.81815 0.0430538 -1.63988e-20)
(5.53195 -0.380336 0)
(5.69181 -0.258652 1.86402e-20)
(3.35759 2.94961 -1.21647e-26)
(5.76333 0.882751 -7.36972e-21)
(5.83032 0.53399 -3.01293e-20)
(5.37929 1.46147 1.00481e-20)
(5.5958 1.27362 7.28226e-21)
(4.85783 1.57005 0)
(5.13078 1.60658 0)
(4.3324 1.32264 0)
(4.60389 1.49134 0)
(3.88987 0.899411 0)
(4.12788 1.11207 0)
(3.59644 0.410565 0)
(3.76681 0.635141 0)
(3.48342 -0.0973223 -8.39002e-27)
(3.56238 0.133765 8.7172e-27)
(3.56453 -0.554219 6.50473e-23)
(3.53304 -0.357759 8.68442e-27)
(3.83049 -0.900855 5.97971e-23)
(3.70422 -0.754888 0)
(4.1842 -1.20572 0)
(4.01175 -1.06663 0)
(4.69435 -1.40949 -1.7715e-23)
(4.42091 -1.33107 0)
(5.31633 -1.31174 3.08639e-23)
(5.00911 -1.41001 0)
(5.78024 -0.486815 -3.99608e-23)
(5.58288 -1.00306 0)
(5.78575 0.997398 -2.495e-23)
(5.84885 0.252133 3.17538e-28)
(5.34786 1.84465 3.46669e-21)
(5.59988 1.59348 0)
(4.63432 1.64668 -7.05918e-21)
(5.01309 1.83111 -3.8871e-21)
(3.92592 1.16934 3.28876e-20)
(4.25243 1.40645 -2.24446e-20)
(3.63935 0.980825 -7.90015e-20)
(4.01647 1.55451 2.31585e-21)
(4.23506 1.68497 -4.301e-21)
(3.58065 1.27814 1.79611e-23)
(3.82314 1.39651 5.20261e-22)
(3.17298 0.874797 4.26027e-21)
(3.34016 1.13936 -4.51214e-21)
(3.16857 -0.0145485 2.0666e-23)
(3.12306 0.471386 -1.16783e-22)
(3.48957 -0.982128 1.3668e-23)
(3.29815 -0.508609 9.15235e-27)
(3.98396 -1.80618 0)
(3.72595 -1.41628 0)
(4.51263 -2.4151 -1.794e-27)
(4.24042 -2.1405 1.89795e-27)
(5.03775 -2.67431 0)
(4.76576 -2.60892 0)
(5.48832 -2.14648 4.96845e-23)
(5.27741 -2.54037 0)
(5.6671 -0.631363 0)
(5.62634 -1.49564 0)
(5.42971 1.09141 -2.22428e-22)
(5.61588 0.286004 0)
(4.91443 1.95557 0)
(5.20659 1.65849 0)
(4.37579 1.97166 -2.06563e-23)
(4.65677 2.04238 -1.20337e-26)
(3.88892 1.68478 -1.01792e-23)
(4.14738 1.83721 0)
(3.48317 1.32455 0)
(3.68697 1.52799 -4.06748e-24)
(3.26556 0.720426 -2.74071e-20)
(3.37776 1.05826 -4.88249e-23)
(3.25416 0.342825 -3.34176e-20)
(2.85225 -0.835791 1.8125e-20)
(3.03064 -0.816376 -1.33881e-20)
(2.54887 -0.929316 0)
(2.6831 -0.858793 0)
(2.51583 -0.961625 -3.26907e-24)
(2.4752 -0.940116 -5.77789e-27)
(3.00646 -0.95432 -5.64612e-24)
(2.688 -0.970014 -9.90325e-27)
(3.91651 -0.831238 -5.98635e-21)
(3.43002 -0.90123 -2.36257e-26)
(4.8743 -0.624108 -3.6628e-20)
(4.40675 -0.727664 3.12217e-20)
(5.26019 -0.501903 6.88335e-21)
(3.36071 2.90789 4.37038e-25)
(3.77386 3.12673 -8.69958e-26)
(3.48364 2.71054 0)
(4.00581 3.03525 4.10603e-25)
(3.79696 2.53771 3.80969e-23)
(3.99754 2.67038 7.82342e-21)
(4.20006 2.51625 -1.95778e-22)
(3.79982 2.24695 -7.0313e-23)
(4.62567 2.35045 -5.13713e-22)
(3.41794 1.65728 0)
(5.03695 1.83151 4.3012e-21)
(5.07049 2.22728 0)
(3.34732 1.3435 -1.23471e-20)
(3.08008 0.566617 8.65242e-20)
(3.08338 0.687604 3.6835e-20)
(4.91198 1.56668 -7.80302e-22)
(5.37617 1.84841 2.79053e-20)
(5.24818 1.49541 -2.78736e-23)
(3.00209 0.350193 -4.8521e-21)
(3.3781 0.446455 9.29974e-20)
(3.34434 0.192162 9.21985e-20)
(5.40024 -0.814359 0)
(5.53376 -0.657468 1.94368e-20)
(5.82125 0.0360939 -1.51863e-20)
(5.74872 -0.136122 1.59538e-20)
(3.48483 3.05449 8.59489e-26)
(5.74862 0.759833 7.52107e-21)
(5.86202 0.510362 2.03871e-20)
(5.37394 1.22608 3.63783e-22)
(5.61875 1.10773 2.85985e-21)
(4.86492 1.28789 -1.90012e-23)
(5.15841 1.3504 1.28885e-26)
(4.36536 1.06457 0)
(4.63702 1.23546 0)
(3.96027 0.712554 0)
(4.1789 0.901795 0)
(3.68911 0.309247 7.11489e-23)
(3.84586 0.486673 0)
(3.58597 -0.108623 0)
(3.66368 0.0496176 0)
(3.67899 -0.481949 0)
(3.65812 -0.360516 0)
(3.89821 -0.803728 0)
(3.82067 -0.698061 0)
(4.20076 -1.03261 0)
(4.05861 -0.970562 0)
(4.66406 -1.09628 4.44334e-23)
(4.42594 -1.08745 0)
(5.23352 -1.01299 2.23262e-23)
(4.94435 -1.07975 1.05152e-26)
(5.69029 -0.386432 0)
(5.50767 -0.780099 0)
(5.55025 0.834639 3.27789e-23)
(5.70591 0.213337 -3.17532e-28)
(5.00733 1.55728 3.43995e-23)
(5.29233 1.35431 1.15003e-26)
(4.39894 1.28197 8.7004e-21)
(4.71351 1.50874 5.82766e-24)
(3.8367 0.85629 -4.89067e-21)
(4.09327 1.04691 -3.9878e-21)
(3.53022 0.683369 -3.54814e-20)
(3.65303 0.743547 2.40768e-20)
(3.44745 0.602566 -1.03951e-19)
(4.35583 1.4897 4.43963e-22)
(4.62359 1.55263 -3.83756e-23)
(3.88339 1.36371 -1.08503e-22)
(4.09958 1.44124 0)
(3.6004 1.087 -1.77553e-23)
(3.74104 1.22941 -5.26877e-22)
(3.2735 0.785344 0)
(3.42563 0.964562 0)
(3.27026 0.0844657 4.74465e-24)
(3.21558 0.484146 0)
(3.58682 -0.77058 0)
(3.40126 -0.347882 0)
(4.06795 -1.52383 0)
(3.80487 -1.16077 0)
(4.65019 -2.11082 -1.14869e-23)
(4.34111 -1.8426 0)
(5.26489 -2.39016 0)
(4.95129 -2.31035 0)
(5.81052 -1.95901 1.58479e-22)
(5.56682 -2.29081 0)
(6.04332 -0.642466 1.44483e-22)
(5.99508 -1.39312 0)
(5.78942 0.89011 1.15944e-22)
(5.99956 0.173922 -8.95193e-27)
(5.20227 1.68271 5.10057e-23)
(5.54385 1.40917 4.56207e-26)
(4.58472 1.7074 -1.94898e-23)
(4.91434 1.771 0)
(4.07721 1.44058 0)
(4.3529 1.5915 0)
(3.64795 1.1541 0)
(3.87591 1.31674 4.07338e-24)
(3.42705 0.639841 2.96822e-20)
(3.53625 0.947262 4.79409e-23)
(3.43492 0.296514 -2.59542e-20)
(3.34406 -1.11715 0)
(3.56089 -1.06521 9.20365e-20)
(2.91406 -1.28044 -5.56816e-21)
(3.13128 -1.18794 -3.76201e-21)
(2.56414 -1.41326 2.39134e-24)
(2.70881 -1.34406 3.15289e-27)
(2.5198 -1.49557 6.11478e-24)
(2.48756 -1.44783 1.03058e-26)
(2.9516 -1.52098 -1.67761e-26)
(2.6775 -1.518 1.70577e-26)
(3.79015 -1.39884 -9.83585e-21)
(3.33006 -1.47676 1.97162e-26)
(4.76894 -1.13373 3.64846e-20)
(4.29122 -1.27414 1.00211e-20)
(5.1439 -0.977516 2.89404e-20)
(3.5203 2.86744 0)
(3.82544 3.00785 2.73157e-26)
(3.67024 2.74103 0)
(3.91124 2.86132 -1.05056e-24)
(3.98651 2.70852 -4.78647e-23)
(3.78798 2.49274 -5.91846e-24)
(4.45194 2.70997 1.47654e-22)
(3.43135 2.06126 2.08406e-24)
(4.96829 2.52239 6.05016e-22)
(3.17326 1.47925 -3.46205e-23)
(5.46122 2.30666 0)
(3.08832 1.11899 -1.42444e-20)
(5.60688 1.36837 1.22431e-20)
(5.79989 1.81178 -6.9475e-20)
(2.91528 0.259895 1.31138e-21)
(3.31886 -0.140103 -9.79526e-20)
(3.00998 0.0850883 -8.4511e-20)
(5.56697 -0.517119 -2.90124e-20)
(3.57186 2.99798 -1.49666e-25)
(5.72501 0.103175 2.42179e-21)
(5.4311 -0.419237 2.33374e-20)
(5.68674 -0.103068 -1.90809e-20)
(5.65918 0.69295 -2.5517e-21)
(5.79367 0.430734 -2.59644e-21)
(5.3102 1.04296 -3.63361e-22)
(5.54548 0.903091 1.16158e-21)
(4.82946 1.06751 -4.86183e-21)
(5.10409 1.07352 4.34472e-21)
(4.36125 0.864686 -6.03089e-23)
(4.6125 0.965702 2.82181e-26)
(3.98933 0.559277 -6.80606e-23)
(4.17723 0.689078 -3.34512e-26)
(3.75493 0.226932 1.24053e-24)
(3.85794 0.351623 0)
(3.6969 -0.0904805 0)
(3.70208 0.0186719 0)
(3.7941 -0.373561 -7.60021e-23)
(3.73055 -0.270413 0)
(3.97707 -0.633816 3.63297e-26)
(3.87302 -0.527192 -3.7722e-26)
(4.28523 -0.796345 3.48014e-26)
(4.10772 -0.728898 -3.61238e-26)
(4.69969 -0.862698 -3.18722e-26)
(4.47813 -0.821853 3.3073e-26)
(5.16939 -0.769962 -1.06923e-22)
(4.92338 -0.828563 2.87999e-26)
(5.53898 -0.312793 5.81501e-23)
(5.38928 -0.579793 2.54325e-26)
(5.39593 0.608114 2.03461e-23)
(5.55423 0.123991 0)
(4.77223 1.26404 7.48405e-23)
(5.10968 1.05764 3.36362e-26)
(4.24429 1.05969 6.94507e-23)
(4.48222 1.24715 0)
(3.93957 0.721821 5.86075e-21)
(4.07134 0.864927 0)
(3.7498 0.599561 2.5777e-20)
(3.84515 0.648402 -2.81104e-20)
(3.55609 0.373275 0)
(3.65899 0.515282 3.00616e-21)
(3.46376 -0.0687262 9.55386e-20)
(3.48823 0.159122 -9.08969e-20)
(4.96032 1.22044 4.99637e-22)
(5.48358 1.04807 4.40643e-21)
(5.23735 1.15642 -4.36935e-21)
(4.44619 1.20016 3.25674e-22)
(4.68225 1.23111 2.31314e-23)
(4.00121 1.14239 0)
(4.22062 1.16824 0)
(3.68698 0.934073 -2.61378e-23)
(3.81545 1.06405 0)
(3.40773 0.660041 0)
(3.54511 0.794147 0)
(3.32097 0.180463 -2.54075e-23)
(3.30048 0.466365 0)
(3.6293 -0.556987 0)
(3.42782 -0.176125 0)
(4.11953 -1.25716 0)
(3.84841 -0.922227 0)
(4.70205 -1.79061 -1.62099e-23)
(4.39211 -1.54719 0)
(5.34995 -2.053 0)
(5.01975 -1.97084 0)
(5.93634 -1.72823 6.27067e-26)
(5.67623 -1.97924 -6.6375e-26)
(6.21201 -0.635782 -1.4438e-22)
(6.13838 -1.25853 -1.10025e-25)
(5.98194 0.679228 -1.79716e-22)
(6.18017 0.0731827 -9.23059e-26)
(5.3576 1.35842 -3.2103e-23)
(5.70725 1.12879 0)
(4.71476 1.42716 3.04857e-25)
(5.03285 1.45235 5.41218e-28)
(4.2307 1.22109 2.9423e-26)
(4.46728 1.34032 -3.12204e-26)
(3.82484 0.985131 0)
(4.02416 1.10176 0)
(3.59155 0.58378 -4.74317e-21)
(3.6703 0.816076 7.71201e-21)
(3.61521 -0.0271978 0)
(3.55514 0.279816 -1.01399e-21)
(3.63234 -0.36066 0)
(3.44391 -1.43557 0)
(3.94802 -1.1965 -5.40053e-21)
(3.71251 -1.33484 -2.47347e-20)
(2.95704 -1.67588 3.86973e-22)
(3.18979 -1.56515 3.02878e-21)
(2.60655 -1.79647 1.0576e-25)
(2.75492 -1.73398 0)
(2.54419 -1.89556 -2.85017e-24)
(2.52475 -1.84668 0)
(2.94606 -1.9234 0)
(2.69247 -1.92077 0)
(3.71177 -1.7932 7.86101e-25)
(3.29681 -1.88284 0)
(4.5443 -1.45738 0)
(4.13937 -1.64507 0)
(5.15429 -1.01624 0)
(4.89296 -1.24106 5.46786e-21)
(5.36987 -0.502745 0)
(5.29447 -0.774525 1.69653e-21)
(5.9994 1.15423 -2.84968e-20)
(5.7084 0.867507 0)
(3.33179 -0.457743 5.48264e-21)
(3.51446 -0.294767 5.90143e-21)
(3.64909 2.8674 3.13534e-24)
(3.82426 2.90603 0)
(3.94348 -0.536787 0)
(3.81722 2.89716 8.08811e-24)
(3.71026 2.77462 7.60983e-25)
(5.27927 -0.273864 3.29358e-20)
(5.13789 -0.661884 0)
(5.07718 -0.443571 0)
(4.18687 2.93788 3.01171e-23)
(3.48809 2.36234 7.42427e-24)
(4.7555 2.90765 0)
(3.04111 1.86259 4.17904e-23)
(5.36012 2.682 0)
(2.98498 1.23762 0)
(5.93909 2.27336 0)
(2.77476 0.706201 7.13359e-21)
(6.26778 1.63331 -1.3027e-20)
(2.85943 -0.280329 2.71877e-21)
(5.89706 0.607736 0)
(6.3412 0.79379 1.84582e-20)
(3.13053 -0.195254 -4.40131e-20)
(3.39901 -0.68432 8.50495e-20)
(3.60686 -0.478968 -8.46833e-20)
(3.632 2.94912 9.6139e-26)
(5.55881 0.150776 5.52921e-21)
(5.47618 -0.0406204 0)
(5.50691 0.580514 -2.3772e-21)
(5.60671 0.381765 -2.20163e-21)
(5.18168 0.827913 0)
(5.3868 0.738572 1.84188e-21)
(4.74311 0.817039 0)
(4.97604 0.850178 6.14885e-22)
(4.31575 0.63473 6.02813e-23)
(4.52177 0.748972 0)
(3.99877 0.387551 1.36748e-22)
(4.13689 0.524873 0)
(3.84641 0.142427 3.61817e-25)
(3.89391 0.265819 0)
(3.85524 -0.0981884 -7.52852e-23)
(3.82491 0.0175642 -7.60806e-26)
(3.96659 -0.3616 7.59271e-23)
(3.8905 -0.234588 7.76489e-26)
(4.16828 -0.595245 -7.65213e-23)
(4.04387 -0.493577 7.26006e-26)
(4.44874 -0.704307 -7.24793e-26)
(4.29601 -0.664649 7.04312e-26)
(4.71935 -0.702004 -7.29618e-23)
(4.57883 -0.710134 7.17772e-26)
(5.02213 -0.572383 1.32113e-22)
(4.86124 -0.649677 0)
(5.31093 -0.21921 1.35577e-23)
(5.18353 -0.42401 6.75437e-26)
(5.27925 0.419946 -1.43099e-22)
(5.36672 0.0828971 0)
(4.76116 0.952438 -7.47948e-23)
(5.06405 0.754027 -8.0225e-26)
(4.28322 0.892872 0)
(4.49154 0.996084 0)
(4.06531 0.645803 1.07569e-20)
(4.15828 0.761915 -1.12753e-20)
(3.88573 0.501707 0)
(3.98496 0.572959 -5.55977e-27)
(3.67519 0.265538 3.86553e-21)
(3.78069 0.407632 -6.00843e-21)
(3.58794 -0.122493 4.90328e-20)
(3.60846 0.0749591 -4.89289e-20)
(3.69062 -0.437272 0)
(3.6215 -0.301297 -5.87514e-21)
(5.18919 0.8691 4.85118e-21)
(5.53842 0.416548 -3.75174e-21)
(5.38032 0.678555 -1.09003e-20)
(4.82068 1.02216 1.05727e-20)
(4.99684 0.968946 -4.78026e-21)
(4.53198 1.05714 5.42367e-21)
(4.66403 1.0506 -1.62072e-20)
(4.25642 0.986556 -2.6108e-23)
(4.40395 1.02666 2.07326e-22)
(3.91407 0.826885 2.61376e-23)
(4.06806 0.924224 0)
(3.64143 0.542025 1.1172e-25)
(3.76444 0.683228 -1.18136e-25)
(3.44234 0.213003 -1.1408e-25)
(3.49566 0.39249 1.20646e-25)
(3.61669 -0.331982 -2.89991e-23)
(3.46119 -0.0334355 0)
(4.09713 -0.970446 1.03298e-25)
(3.82005 -0.655661 -1.09258e-25)
(4.69886 -1.48374 2.76192e-23)
(4.38429 -1.24739 8.21712e-26)
(5.34534 -1.74532 0)
(5.02297 -1.65059 0)
(5.92496 -1.51794 -1.64948e-23)
(5.66299 -1.70196 9.97264e-29)
(6.23162 -0.605334 1.01453e-25)
(6.13842 -1.12189 -1.07434e-25)
(6.00816 0.466321 4.3209e-23)
(6.20303 -0.0191977 0)
(5.39591 1.04538 -1.89454e-23)
(5.72767 0.83757 0)
(4.78915 1.16669 -3.01513e-23)
(5.07517 1.152 0)
(4.34387 1.02687 7.66737e-26)
(4.53353 1.11247 -8.13299e-26)
(3.98928 0.821453 0)
(4.13773 0.906656 0)
(3.73366 0.532779 6.40934e-21)
(3.79838 0.679366 8.14448e-21)
(3.75279 0.0196052 -3.45029e-20)
(3.64831 0.262817 1.73317e-20)
(3.76232 -0.311187 0)
(4.00253 -1.47622 -4.11086e-21)
(4.22828 -1.30379 2.31814e-20)
(3.54713 -1.74535 0)
(3.79121 -1.6182 4.03855e-21)
(3.06682 -1.96903 8.39412e-25)
(3.31431 -1.88356 0)
(2.66822 -2.0792 -2.48378e-24)
(2.83729 -2.02101 -1.669e-26)
(2.56909 -2.15029 0)
(2.57547 -2.1223 0)
(2.88669 -2.13707 0)
(2.68102 -2.16422 0)
(3.57435 -1.99216 -7.81611e-25)
(3.19025 -2.08895 0)
(4.37549 -1.67263 0)
(3.98374 -1.85674 0)
(4.94452 -1.19889 -1.84143e-21)
(4.70391 -1.44932 -5.28472e-21)
(5.08134 -0.917729 2.19224e-22)
(6.00261 0.219829 0)
(5.62825 0.115086 8.91188e-21)
(3.71628 -0.654916 6.4672e-20)
(3.78814 -0.547567 -8.06523e-20)
(3.71659 2.99033 5.76383e-26)
(3.73324 2.91239 4.63841e-25)
(5.10337 -0.110165 -5.36571e-20)
(4.95596 -0.20067 4.66293e-20)
(3.94646 3.13505 -1.06422e-22)
(3.43296 2.73828 0)
(4.41341 3.15289 -3.98101e-22)
(3.11573 2.18765 -1.39544e-23)
(5.0667 3.05825 0)
(2.69159 1.56783 0)
(5.78675 2.6582 -9.12558e-21)
(2.8188 0.788811 2.49723e-22)
(6.39118 1.99306 0)
(2.48356 0.118704 6.87744e-21)
(6.66274 1.15225 5.17159e-20)
(3.02562 -0.785172 0)
(6.49312 0.263135 7.75276e-22)
(3.25507 -0.510266 3.84216e-20)
(5.58537 -0.183183 -3.95534e-20)
(5.94202 -0.255392 3.21302e-20)
(3.55298 -0.806846 -6.47591e-20)
(5.25827 -0.103874 -9.33125e-21)
(5.15685 -0.299059 -1.08656e-20)
(5.41632 -0.441604 4.96104e-20)
(4.63767 -1.23238 -4.38902e-20)
(3.8232 -0.8103 -7.70244e-22)
(3.91186 -0.637818 1.73762e-19)
(3.6324 3.0216 0)
(5.28492 0.197233 -3.07668e-21)
(5.19806 0.0721379 1.91452e-20)
(5.25477 0.46825 0)
(5.30947 0.369046 0)
(4.98482 0.630829 0)
(5.15154 0.58649 0)
(4.61188 0.616235 0)
(4.80109 0.635798 0)
(4.27043 0.480555 6.30071e-23)
(4.4155 0.536323 3.76057e-27)
(4.04408 0.308525 -6.87866e-23)
(4.11431 0.376147 1.36929e-25)
(3.94635 0.136985 -7.289e-23)
(3.95281 0.211062 1.45796e-25)
(3.93469 -0.052779 7.52129e-23)
(3.90867 0.0412156 1.51473e-25)
(3.97701 -0.258464 0)
(3.93087 -0.155931 -4.82459e-27)
(4.09443 -0.42229 7.64477e-23)
(4.01179 -0.344364 4.85599e-27)
(4.28795 -0.534513 0)
(4.17459 -0.479503 4.8009e-27)
(4.55332 -0.565179 -3.95268e-24)
(4.40663 -0.561362 0)
(4.86625 -0.426115 -1.48314e-22)
(4.70851 -0.51311 0)
(5.10879 -0.122906 -7.19464e-23)
(5.00742 -0.286679 1.54024e-25)
(5.10988 0.317881 1.62281e-22)
(5.15517 0.0902677 0)
(4.7612 0.703182 0)
(4.97653 0.548765 0)
(4.34578 0.727766 0)
(4.53889 0.767379 0)
(4.1158 0.560824 0)
(4.21519 0.650399 0)