/*--------------------------------*- C++ -*----------------------------------*\
  =========                 |
  \\      /  F ield         | OpenFOAM: The Open Source CFD Toolbox
   \\    /   O peration     | Website:  https://openfoam.org
    \\  /    A nd           | Version:  10
     \\/     M anipulation  |
\*---------------------------------------------------------------------------*/
FoamFile
{
    format      ascii;
    class       surfaceScalarField;
    location    "7";
    object      phi;
}
// * * * * * * * * * * * * * * * * * * * * * * * * * * * * * * * * * * * * * //

dimensions      [0 3 -1 0 0 0 0];

internalField   nonuniform List<scalar> 
51391
(
-0.0353654
0.0131048
-0.0117027
0.0339633
0.0155856
-0.0166281
-0.0343229
0.0238182
-0.0154218
0.0071892
0.0359914
0.000931626
0.0441789
-0.00895617
0.00662453
-0.0418473
0.0360739
-0.00767334
0.0157784
-0.0566925
0.0391325
0.0428847
-0.0253246
0.0106125
-0.0506566
-0.0166484
0.0597659
0.0015449
-0.0506984
0.0246291
0.0397734
-0.00463663
0.0248923
-0.0301434
0.061559
-0.0563079
0.0569016
0.0226737
-0.054683
0.0710672
-0.056726
-0.0444847
0.00567475
0.00561277
-0.0017086
-0.00957891
0.0079745
0.00252087
-0.00482062
0.0532242
0.0391346
-0.0494313
-0.0429275
0.0766057
0.0214785
-0.04486
0.104165
-0.0613243
-0.0600304
0.0171898
0.0428958
0.0708215
-0.00955244
0.0390588
-0.00853576
-0.036814
0.00629095
0.00754258
0.0275297
0.00398647
0.0110501
-0.0351488
0.0240988
0.0235921
0.0113693
-0.0239113
-0.0036964
-0.0428022
-0.000200692
0.0466993
-0.0459502
0.0514019
-0.00914812
0.00585681
-0.00718131
-0.0446257
0.00619423
-0.0431396
-0.044043
0.0107106
0.0364006
-0.00306825
1.03735e-05
-0.0442541
0.0261384
0.0312715
0.020374
0.0255724
-0.019808
0.0105838
-0.00399451
-0.00658927
0.00710113
0.00348265
-0.0110015
0.00964966
-0.00264267
-0.0322439
0.0416628
0.00507724
-0.0144961
-0.0539642
0.0249407
0.0406886
-0.0116651
-0.0531001
0.00802336
-0.00888745
0.0546141
-0.00950089
-0.0522725
0.00715938
0.0381159
0.00182808
0.0146701
0.0264353
0.0477695
0.0122151
-0.0864199
0.0223975
-0.0516678
0.0557056
0.0597417
0.0212807
-0.0586249
-0.0378914
0.00285054
0.00707131
0.0279696
-0.0380663
0.000230377
-5.54831e-05
0.000653024
-0.0373912
-0.00132818
0.0652089
0.025404
-0.0346158
-0.0559972
0.0166607
0.0700915
-0.0215433
0.00270503
-0.00529928
0.00490516
-0.00231091
-0.0235175
0.009997
0.0162255
0.0227349
-0.0243334
-0.021919
0.0152361
-0.0479247
-0.0520722
0.0847608
-0.0150502
0.0874275
-0.0571412
-0.0449495
0.0297774
0.0151721
-0.0289283
-0.0160212
0.0392991
-0.0247402
0.00418941
-0.0187483
0.00590565
0.000739105
0.0326543
0.000493302
-0.0303505
0.00511695
-0.0641697
-0.018759
0.0289376
0.0539912
-0.0173145
-0.0472817
0.000426552
0.0212348
-0.00211612
-0.0364332
0.0268548
-0.024379
-0.0512161
0.0272487
-0.0240274
0.0479948
0.0190786
-0.0413571
-0.0206246
0.0104397
-0.021739
0.0319239
-0.0388702
-0.00891345
0.027159
-0.0403633
-0.00573818
0.00723128
0.00651946
-0.0020811
-0.00443836
0.00306707
0.00345238
0.00250764
0.00459349
0.00783906
-0.0136032
0.000358605
0.00540552
-0.00139288
0.00923194
0.0191422
0.0167462
-0.00622388
-0.0296645
0.0218317
0.0239967
-0.0266862
0.0465671
0.0049979
-0.0297332
-0.0471278
0.0468092
-0.00519231
0.00551093
0.00517858
0.0385684
-0.00643358
-0.00463576
0.0032485
0.0306682
0.00554403
-0.0394608
0.029146
-0.0375595
0.011662
0.015262
0.0445522
0.0366466
-0.0367441
0.000327911
0.0248755
0.0146216
-0.0102362
0.0117491
-0.0057787
0.00426586
0.0186064
-0.0257901
-0.00305255
0.0193726
0.0109828
0.00893556
0.0261265
-0.000267273
-0.0347948
0.0146917
0.0261315
-0.0318877
0.0259212
0.0148971
0.00291712
-0.00497415
0.0399408
-0.0378838
0.0425655
0.0018282
-0.0414766
0.0104307
-0.00894512
0.0013412
-0.00282679
-0.00218027
0.0115152
0.00109573
0.00558407
-0.00403366
-0.0104955
-0.00992002
0.0319499
0.00924169
0.0344793
-0.00799865
0.0208862
-0.0298471
0.0220229
-0.013062
0.043733
0.0122505
-0.0350973
0.0432633
-0.00848648
0.0572289
-0.0222798
-0.0390188
0.00406968
0.00403867
0.0559984
-0.00280824
0.0549938
0.00377751
-0.0547326
0.0249769
-0.00222691
-0.00537563
0.0353282
0.00445606
-0.0344086
0.02643
0.000583185
-0.0323889
0.0416817
-0.0113277
0.00283014
0.0428114
-0.0125328
-0.0331087
0.00210359
0.0397627
-0.0390361
-0.0539506
-0.0552983
0.037939
-0.0486054
-0.0432842
-0.0526057
0.00831213
-0.00880653
-0.00846091
-0.0532949
0.00915008
0.00278363
0.0423937
-0.00582513
-0.0393522
0.041868
-0.0363836
-0.00270074
0.0117899
-0.0421771
0.0352288
-0.00484155
-0.0243603
-0.000213073
0.0363633
0.0406223
0.00751539
-0.00916189
-0.0389758
0.00827897
-0.00795566
0.040299
0.0245717
0.0556727
-0.0233427
0.030153
-0.0511681
-0.0462428
0.067258
0.0433793
-0.0704982
0.0572719
0.0199317
-0.0163391
0.0397867
0.0611494
0.0125714
-0.0612892
-0.0124315
0.00751376
0.0693529
-0.0157173
0.0967041
0.00481627
0.0124341
-0.113954
-0.0123231
0.0573594
-0.00259871
0.0148459
-0.0144274
0.023811
-0.00502203
-0.0213877
0.00175633
0.0155564
-0.0190964
0.00178365
0.0121983
0.00229076
-0.0127328
-0.00239313
0.00423709
0.0103544
0.0172537
-0.0040904
0.00485929
-0.00859525
-0.0340287
0.00691068
0.0357133
-0.0276559
0.0432868
-0.0242262
0.00473828
0.00293579
-0.03533
0.00434892
-0.0336394
-0.0303176
0.0301579
-0.0414017
0.0340475
0.0297141
-0.00259857
-0.030824
0.00185394
0.0315686
0.00470208
-0.0251015
-0.0134569
0.0338563
-0.0251387
-0.00691545
0.0367562
-0.0468464
-0.00339373
-0.0424066
-0.00370149
-0.000738272
-0.0419402
0.000445506
-0.000911965
-0.0419899
0.000326766
-0.000277085
-0.0422216
-3.66315e-05
0.000268349
-0.0422163
-0.000108839
0.000103532
-0.0421889
-0.000136562
0.000109206
-0.0421585
-0.000140915
0.000110498
-0.0421224
-0.00015048
0.000114419
-0.0420852
-0.000154996
0.00011777
-0.0420422
-0.000166123
0.000123132
-0.041998
-0.000172124
0.000127942
-0.0419476
-0.000185933
0.000135536
-0.0418961
-0.000194443
0.000142859
-0.0418376
-0.000212341
0.00015388
-0.0417779
-0.000224693
0.000164995
-0.0417104
-0.00024844
0.000180911
-0.0416415
-0.000266138
0.00019725
-0.0415634
-0.000297714
0.000219669
-0.0414838
-0.000322256
0.000242637
-0.0413932
-0.000363659
0.000273087
-0.0413007
-0.000396298
0.000303766
-0.0411948
-0.000449244
0.000343373
-0.0410862
-0.000490706
0.000382021
-0.0409609
-0.000556617
0.000431313
-0.0408327
-0.000606655
0.00047848
-0.0406831
-0.000683568
0.000533961
-0.0405266
-0.000730539
0.000574065
-0.0403128
-0.000826513
0.000612695
-0.0399193
-0.00110859
0.000715116
-0.0402253
-0.00170408
0.00201004
-0.0394364
-0.00193691
0.001148
-0.0398192
0.00264288
-0.00226006
-0.042122
0.00154708
0.000755743
0.00542464
-0.0311834
-0.0163632
-0.0383971
0.0394869
0.00155307
-0.0412586
0.00440858
-0.0407066
0.0413468
0.000115569
0.035929
-0.0403976
-0.00244678
-0.000468921
0.0380353
-0.00163743
-0.00153987
0.0378271
-0.0367833
0.00150141
-0.0404626
0.0406236
-0.00209788
-0.00137592
-0.0405012
0.0404798
-0.00108724
-0.00158167
-0.0406402
0.0407635
-0.000853837
-0.000986861
-0.040902
0.041004
-0.000708699
-0.000822053
-0.0411219
0.0412109
-0.000579651
-0.000674538
-0.0413135
0.0413926
-0.0004754
-0.000551897
-0.0414834
0.0415546
-0.0003935
-0.000454385
-0.0416355
0.0416997
-0.000330353
-0.000378572
-0.0417717
0.041829
-0.000282055
-0.000320447
-0.0418926
0.041943
-0.000244855
-0.000275933
-0.0419984
0.0420417
-0.000215464
-0.000241289
-0.042089
0.0421253
-0.000191271
-0.000213387
-0.0421647
0.0421943
-0.000170471
-0.0001899
-0.0422262
0.0422667
-0.000149334
-0.000168543
-0.0423205
0.0423053
0.000341879
-9.03505e-05
-0.0432445
0.0414015
-0.00185851
-0.000493664
-0.00238985
0.0416497
-0.0423222
-0.000239457
-0.0429413
-0.00479631
0.0342807
-0.00202986
0.0428487
-0.0424084
-0.000172
0.000249415
0.0426861
-0.0429299
0.000353061
0.000381229
0.0426335
-0.0428721
0.000352945
-0.000185916
0.0425708
-0.0428036
0.000355869
-0.000183448
0.0424974
-0.0427237
0.000361891
-0.000178272
0.042412
-0.0426309
0.000372733
-0.000168827
0.0423128
-0.0425223
0.000390468
-0.000153127
0.0421962
-0.042394
0.000417468
-0.000128834
0.0420579
-0.0422409
0.000456119
-9.34799e-05
0.041892
-0.0420568
0.000508206
-4.52209e-05
0.0416905
-0.0418319
0.000572753
1.574e-05
0.0414488
-0.0415617
0.000646908
9.5285e-05
0.0411307
-0.0412311
0.000713127
0.000143063
0.0406175
-0.0394559
0.000848461
0.000101509
0.00117893
-0.00290304
0.0352195
-0.000782876
0.000819727
0.0377903
-0.00110912
0.0383616
-0.00311334
0.000994812
-0.0346648
0.000180307
-0.0344771
-0.0362553
0.0376417
-0.000391518
0.000141433
9.15176e-05
-0.0348978
-0.035368
-0.000745927
0.00635409
-0.0296015
-0.0180112
-0.0389904
0.0398907
0.000652723
-0.0378956
0.00331374
0.0381021
-0.0412466
-0.00165186
-0.00419217
0.0355698
0.0354032
-0.00149322
0.00128736
-0.00232086
0.0366033
0.0373266
-0.0393685
0.0402968
-0.000812793
-0.000225387
-0.0406438
0.0405497
-0.00200381
-0.0017229
-0.0402795
0.0403517
-0.00115945
-0.00131148
-0.040454
0.0405587
-0.000958497
-0.00108915
-0.0406344
0.0407149
-0.000789129
-0.000897785
-0.0407798
0.0408514
-0.000651288
-0.000739453
-0.040912
0.0409786
-0.000542033
-0.000612446
-0.0410369
0.0411
-0.000456654
-0.000512664
-0.0411563
0.041216
-0.000390011
-0.000434861
-0.0412694
0.0413247
-0.000337367
-0.00037387
-0.0413739
0.0414238
-0.000294739
-0.000325163
-0.0414676
0.0415112
-0.000259024
-0.000285077
-0.0415487
0.0415854
-0.00022802
-0.000250872
-0.0416162
0.0416462
-0.000200393
-0.000220734
-0.0416713
0.0416976
-0.000175604
-0.000193722
-0.0417771
0.0418208
0.000298176
-0.0001698
-0.0419289
0.0402055
-0.000135099
-0.000601833
-0.0389307
0.0376803
-0.00119644
-0.00111498
-0.0375175
0.0374928
-0.00108437
-0.00147462
0.0422811
-0.0424906
-2.98752e-05
-0.000995373
0.042312
-0.042582
9.80064e-05
7.07494e-05
0.0422678
-0.0419781
6.33682e-05
6.70139e-05
0.0422282
-0.0419368
6.16156e-05
6.41592e-05
0.0421836
-0.0418897
6.19774e-05
6.33489e-05
0.0421331
-0.0418366
6.53432e-05
6.51137e-05
0.0420759
-0.041776
7.28285e-05
7.05314e-05
0.04201
-0.0417053
8.5795e-05
8.08536e-05
0.0419318
-0.0416203
0.000105926
9.76382e-05
0.0418365
-0.0415154
0.000135019
0.000122712
0.0417183
-0.0413843
0.000174283
0.000157687
0.0415713
-0.0412218
0.000223183
0.000202745
0.0413841
-0.0410154
0.000278222
0.000257618
0.0411686
-0.0405995
0.00014404
0.00029627
0.040748
-0.0403295
0.000429905
0.000250018
0.000740183
0.00047297
-0.0346671
0.0343744
-0.00383553
0.0369179
0.000250946
-0.0346365
-0.00180031
0.0012144
0.0380787
0.0386901
-0.0384011
-0.0013733
0.0382451
-0.00135534
-0.000752291
0.000500005
-0.0346455
-0.000379182
-0.0357411
-0.0343412
0.00279976
-0.00427138
0.00328918
-0.033359
-0.0333999
-0.000620803
0.00014813
0.038263
0.0389552
0.00102243
-0.00264291
0.0382238
0.0384971
-0.0373752
0.038306
-0.00132234
0.0371649
-0.0363295
-0.00121461
-0.000956265
-0.039427
0.0401717
-0.00155749
-0.00134635
-0.0400709
0.0395303
-0.00146323
-0.00162206
-0.0395942
0.0396449
-0.00121016
-0.00137543
-0.0396881
0.0397235
-0.000993858
-0.0011323
-0.0397556
0.0397846
-0.000818073
-0.000929954
-0.0398137
0.0398425
-0.000680059
-0.000768636
-0.0398735
0.0399053
-0.000573766
-0.000643456
-0.0399399
0.0399752
-0.000491917
-0.000547311
-0.040013
0.0400506
-0.000427593
-0.000472698
-0.0400898
0.0401276
-0.000375158
-0.000413071
-0.0401658
0.0402016
-0.000330514
-0.000363401
-0.0402367
0.0402687
-0.000290982
-0.000320221
-0.0402992
0.0403263
-0.000255053
-0.000281404
-0.0403514
0.0403732
-0.000222134
-0.000245898
-0.0403929
0.0404097
-0.000192326
-0.000213484
-0.0404244
0.0408887
-0.000166185
-0.000184504
-0.0404462
0.0404545
-0.000143393
-0.000159305
-0.0394978
0.0388176
-0.000516263
-0.000158302
-0.00105812
0.0385258
-0.0398301
-0.000347586
-0.0386431
-0.00236895
0.0371765
-0.00161055
0.0409201
-0.0410114
6.14997e-05
9.46192e-05
0.0410018
-0.0409606
5.68211e-05
6.11157e-05
0.04095
-0.0409393
5.26735e-05
5.63902e-05
0.0409279
-0.0409164
5.00995e-05
5.27679e-05
0.0409043
-0.0408923
4.99591e-05
5.12725e-05
0.0408798
-0.0408672
5.27857e-05
5.25833e-05
0.0408539
-0.0408401
5.90481e-05
5.72034e-05
0.0408249
-0.0408085
6.93741e-05
6.56548e-05
0.0407896
-0.0407685
8.47968e-05
7.87756e-05
0.0407436
-0.0407152
0.000106617
9.78278e-05
0.0406815
-0.0406428
0.000135562
0.000124016
0.0405974
-0.0405449
0.000170689
0.000157294
0.0404825
-0.0404117
0.000207369
0.000195302
0.0403464
-0.0404395
0.000237107
0.000230961
0.0404435
-0.0402635
0.00024984
0.000254086
0.039777
-0.039365
0.000240737
0.000253755
0.0359541
-0.0357169
0.00256252
-9.72157e-05
-0.00133792
0.00041126
-0.0348144
-0.0361501
-0.00151733
-0.00324452
0.0375195
0.000271353
-0.0346875
-0.00111832
0.000534006
0.038663
-0.00149903
0.0386258
0.000606888
-0.0347434
0.000816384
-0.0350506
-0.0345143
0.00208658
0.00296023
-0.00139132
-0.0349279
0.0381459
-0.0391209
-0.00139402
-0.00147813
0.00160066
-0.034937
-0.0017302
-0.035898
-0.00339485
0.0373269
0.0361639
-0.00141278
0.00242024
-0.0339743
-0.0345198
-0.000950405
-0.000200615
0.039414
0.0385388
0.000829205
-0.00128091
0.0386755
0.0391257
0.00264663
-0.00271822
0.0373985
0.0388852
-0.037831
0.037899
-0.00128264
0.0366666
-0.0372056
-0.00119119
-0.00268165
-0.0382322
0.0390535
-0.0021436
-0.00128951
-0.0397486
0.0400032
-0.00181204
-0.00204145
-0.0400853
0.0401183
-0.0014962
-0.0017042
-0.0401382
0.040147
-0.00121902
-0.00139534
-0.0401485
0.0401452
-0.000990508
-0.00113381
-0.0401393
0.0401332
-0.000812022
-0.00092403
-0.0401284
0.0401265
-0.000678107
-0.000763864
-0.0401282
0.0401337
-0.000579339
-0.000645111
-0.0401437
0.0401573
-0.000505484
-0.000557309
-0.0401749
0.0401948
-0.000447522
-0.000490312
-0.0402177
0.0402412
-0.000398724
-0.000435919
-0.0402663
0.0402906
-0.000354828
-0.00038848
-0.0403152
0.0403378
-0.000313659
-0.000344744
-0.0403598
0.0403792
-0.000274544
-0.000303318
-0.0403974
0.040413
-0.00023776
-0.000264064
-0.0404271
0.0404389
-0.000204081
-0.000227579
-0.0404491
0.0404572
-0.000174307
-0.000194739
-0.0404642
0.0404698
-0.000149001
-0.000166293
-0.0404862
0.0402111
-0.000241126
-0.000174653
-0.0395693
0.03894
-0.000744042
-0.00041632
-0.0385548
0.0387287
-0.00167297
-0.00097012
0.0400852
-0.0404958
6.29976e-05
-0.000646171
0.0404638
-0.0404604
5.80616e-05
6.26011e-05
0.0404566
-0.040453
5.32178e-05
5.73984e-05
0.0404494
-0.0404462
4.9483e-05
5.27875e-05
0.0404434
-0.0404413
4.79462e-05
4.99536e-05
0.0404398
-0.0404391
4.92977e-05
4.97922e-05
0.0404393
-0.0404403
5.37148e-05
5.27695e-05
0.0404419
-0.0404439
6.10767e-05
5.88654e-05
0.0404463
-0.0404483
7.13952e-05
6.79604e-05
0.0404498
-0.0404502
8.52006e-05
8.03046e-05
0.0404491
-0.0404459
0.000103396
9.6707e-05
0.0404398
-0.0404305
0.00012624
0.000117958
0.0404166
-0.0403977
0.000151841
0.000143397
0.0403717
-0.0403387
0.000174363
0.000169291
0.0402951
-0.0402419
0.000183891
0.000187317
0.0401739
-0.0400933
0.00016926
0.000186127
0.0399934
-0.0398721
0.000119522
0.000153787
0.0400509
-0.0375183
2.99096e-05
8.15927e-05
0.0353936
-0.0342581
0.00128474
-3.81329e-05
-0.0014198
0.000940953
-0.0354191
-0.036352
-0.00227343
0.00326286
-0.00218118
-0.0350559
-0.0345827
0.00358744
0.000933274
-0.0350139
-0.00142432
-0.0356848
-0.00380731
0.037253
0.00113137
-0.0350584
-0.00117417
0.00132534
0.0385775
0.0386881
-0.0395579
-0.000803177
0.0383709
-0.000856978
0.00140048
-0.0348504
0.0011144
-0.0351104
0.00235409
-0.00165469
-0.0357553
-0.00162067
0.00212898
-0.0359274
-0.00172845
-0.0362442
0.00279806
-0.0350267
-0.0350109
-0.00098148
0.00102305
0.0386214
0.0389697
-8.9642e-05
4.05211e-05
0.0394631
0.0394722
7.81742e-05
-0.00113594
0.0397333
0.0392444
0.000595454
-0.00204091
0.0388439
0.0383447
-0.0379916
0.0391799
-0.00237945
0.0363717
-0.0372123
-0.000887854
-0.00389331
-0.0388745
0.0396701
-0.00207824
-0.00237631
-0.0405923
0.0405708
-0.00212206
-0.00221172
-0.0406145
0.0406401
-0.00183767
-0.00208516
-0.0406508
0.0406483
-0.00149373
-0.00171486
-0.0406337
0.0406102
-0.00119548
-0.00138071
-0.040579
0.0405449
-0.000956391
-0.00110267
-0.0405081
0.0404732
-0.000777058
-0.000887251
-0.0404396
0.0404111
-0.000649528
-0.000730345
-0.0403866
0.0403683
-0.000561047
-0.000620641
-0.0403552
0.0403479
-0.000498216
-0.000544205
-0.0403456
0.0403477
-0.00044966
-0.000487991
-0.0403537
0.0403624
-0.000407354
-0.0004419
-0.0403734
0.0403853
-0.000366759
-0.000399494
-0.0403982
0.0404107
-0.000326172
-0.000357665
-0.0404232
0.0404344
-0.000285784
-0.00031576
-0.0404449
0.040454
-0.000246783
-0.000274595
-0.040462
0.0404686
-0.00021066
-0.000235629
-0.0404742
0.0404786
-0.000178709
-0.000200347
-0.0404822
0.040485
-0.000151744
-0.000169903
-0.0404419
0.0403493
-0.000148541
-0.000131606
-0.0402989
0.0394208
0.000134063
-0.000365882
-0.00110726
0.0393033
-0.0397788
-0.000918479
-0.039248
-0.00169866
0.0371394
-0.00135755
0.040607
-0.0404857
-5.82992e-05
0.000181987
0.0404862
-0.0404871
5.89843e-05
6.31086e-05
0.0404885
-0.0404905
5.52093e-05
5.88043e-05
0.0404934
-0.0404971
5.3252e-05
5.56673e-05
0.0405022
-0.0405085
5.42047e-05
5.50398e-05
0.0405165
-0.0405257
5.85738e-05
5.776e-05
0.040537
-0.0405495
6.62046e-05
6.40092e-05
0.040564
-0.0405794
7.65369e-05
7.33565e-05
0.0405967
-0.0406145
8.91706e-05
8.52278e-05
0.0406336
-0.0406528
0.00010431
9.94949e-05
0.0406727
-0.0406918
0.000122507
0.000116644
0.0407108
-0.040728
0.000143389
0.000136999
0.0407436
-0.0407555
0.000163772
0.000158963
0.0407633
-0.040765
0.000176049
0.000177117
0.040759
-0.0407437
0.00016866
0.000181281
0.0407163
-0.0406763
0.000129257
0.000158692
0.0406197
-0.0405478
4.75825e-05
9.71778e-05
0.0404569
-0.0403489
-7.80175e-05
-9.3002e-06
0.0402218
-0.0386862
-0.000250812
-0.000165285
0.035714
-0.0345655
0.00164959
0.000615214
-0.00201391
0.00220694
-0.0364373
-0.0370264
-0.00219979
0.00102497
-0.000248153
-0.0358035
-0.0346612
0.00112064
-0.00242103
0.0376331
0.000977625
-0.0348601
-0.00170477
-0.0356347
-0.00136865
0.00100682
0.0389394
-0.00191278
0.0389151
0.000641899
-0.0342998
-0.00131156
-0.0346919
0.000998996
-0.034735
0.0015484
-0.0345298
0.00128677
-0.0350073
0.0384866
-0.0385573
-0.00162792
0.00018678
-0.00166289
-0.0343274
-0.00298245
0.00184916
-0.035304
-0.00272497
-0.0372839
4.33993e-05
-0.0345178
-0.00279242
0.0375108
0.0362108
-0.000516615
-0.035738
-0.000857042
0.000277917
0.0392005
0.0391194
-0.000563254
0.000734704
0.0392917
0.0391868
0.00049543
1.12498e-05
0.0392266
0.0404745
0.0010469
-0.00102107
0.0388181
0.0394028
0.00255508
-0.00297715
0.0379328
0.0391671
-0.0386833
0.0405399
-0.00274444
0.038049
-0.0379155
-0.00285847
-0.00283417
-0.0390142
0.0397343
-0.00309956
-0.00236757
-0.0401548
0.0408558
-0.00277929
-0.00279678
-0.0409934
0.0411008
-0.00222941
-0.00234934
-0.0411129
0.0411115
-0.00183623
-0.00209731
-0.0410966
0.0410704
-0.00146753
-0.00169998
-0.0410328
0.0409879
-0.00115058
-0.00134307
-0.0409351
0.0408803
-0.000901581
-0.00104993
-0.0408223
0.0407669
-0.000721683
-0.000829253
-0.0407125
0.040664
-0.000601015
-0.000675944
-0.0406194
0.0405821
-0.000523769
-0.000576013
-0.0405501
0.0405253
-0.000473379
-0.000512177
-0.0405057
0.040492
-0.000435992
-0.000468407
-0.0404827
0.0404775
-0.000402136
-0.000432558
-0.0404752
0.0404753
-0.000366854
-0.000397249
-0.040477
0.0404797
-0.000328813
-0.000359391
-0.0404829
0.0404861
-0.000288995
-0.000318978
-0.0404892
0.0404919
-0.000249453
-0.000277723
-0.0404942
0.0404959
-0.000212381
-0.000237913
-0.0404972
0.040498
-0.000179536
-0.000201643
-0.0404985
0.0404987
-0.000151928
-0.000170375
-0.0405117
0.0404929
-0.000129766
-0.000144581
-0.0402501
0.0405877
-0.000203514
-0.000123127
-0.0397013
0.0394082
-0.000509992
-0.000220909
-0.0395276
0.0384767
-0.000861907
-0.000976428
0.0395018
-0.0404901
6.9805e-05
-0.000413051
0.0403786
-0.0405036
6.66745e-05
7.04772e-05
0.0405077
-0.0405125
6.37843e-05
6.7298e-05
0.0405185
-0.0405253
6.20553e-05
6.47089e-05
0.0405337
-0.0405433
6.28622e-05
6.40672e-05
0.0405549
-0.040568
6.72428e-05
6.66459e-05
0.0405834
-0.0406004
7.55523e-05
7.31993e-05
0.0406201
-0.0406412
8.73999e-05
8.36915e-05
0.0406653
-0.0406908
0.000101999
9.74441e-05
0.0407193
-0.0407489
0.00011879
0.000113681
0.0407815
-0.040815
0.00013782
0.000132129
0.0408514
-0.0408882
0.000159271
0.000153043
0.0409273
-0.0409658
0.000181847
0.000176119
0.0410052
-0.0410421
0.000200635
0.000198415
0.0410773
-0.041107
0.000205727
0.00021235
0.041131
-0.0411458
0.000183401
0.000205337
0.0411498
-0.0411407
0.000120132
0.000162743
0.041116
-0.0410757
7.28772e-06
7.24615e-05
0.0410153
-0.0409387
-0.000154566
-6.97222e-05
0.0408427
-0.0407321
-0.000361438
-0.000261328
0.039624
-0.0373754
-0.000598958
-0.000492886
0.0354998
-0.0359725
0.000516119
-0.00075498
0.000837705
-0.00315647
-0.0321991
-0.000565284
-0.0345695
-0.00242668
0.00196592
-0.0368231
-0.0376388
-0.00270338
0.000315162
-0.0345334
-0.000338839
-0.0366074
-0.00323324
0.0364669
0.000763452
-0.0340643
0.000135062
-0.0364899
-0.00144048
0.00121801
0.0386992
0.0391371
-0.0392224
-0.000776572
0.0386141
-0.000917493
0.000869991
-0.0340566
-0.000324106
-0.0371597
0.00114988
-0.0343929
-0.00373373
-0.0472565
0.0187911
0.00153885
-0.034697
0.00203591
-0.035374
-0.00307344
0.00208455
-0.0358343
-0.00274227
-0.03797
-0.0357617
-0.00130608
0.000813588
0.0394318
0.038827
-0.00115781
0.000904954
0.0394534
0.0387752
0.000391015
8.28615e-05
0.0388178
0.0404828
-8.0083e-05
-1.09493e-05
0.0393176
0.0404773
-6.95142e-05
-0.000578652
0.0394662
0.0393224
0.000729182
-0.00165076
0.0388544
0.0393176
-0.0392624
0.0396785
-0.00327455
0.038094
-0.0385627
-0.00227366
-0.00387171
-0.0398968
0.0406974
-0.00354511
-0.00305247
-0.0413862
0.0413115
-0.00302486
-0.00305632
-0.041441
0.0412995
-0.00263777
-0.00292635
-0.0414654
0.0414661
-0.0022301
-0.00251521
-0.0414563
0.0414367
-0.0018167
-0.00208749
-0.041406
0.0413664
-0.0014279
-0.00166925
-0.0413162
0.04126
-0.00109438
-0.00129291
-0.0411959
0.0411301
-0.000835767
-0.00098587
-0.0410605
0.0409935
-0.00065468
-0.000759634
-0.0409267
0.0408657
-0.000540081
-0.000609118
-0.040808
0.0407577
-0.000473549
-0.000518239
-0.0407123
0.0406745
-0.000435562
-0.000466699
-0.0406417
0.0406155
-0.000409833
-0.000435608
-0.0405937
0.040577
-0.000385387
-0.000410762
-0.0405634
0.0405533
-0.00035673
-0.000383741
-0.0405453
0.0405392
-0.000322755
-0.000351335
-0.0405343
0.0405304
-0.000285093
-0.000314037
-0.040527
0.040524
-0.000246544
-0.000274314
-0.0405213
0.0405188
-0.000209915
-0.000235179
-0.0405164
0.0405143
-0.000177348
-0.000199246
-0.0405121
0.0405102
-0.000150023
-0.000168244
-0.0405086
0.0405071
-0.000128287
-0.000142922
-0.0405071
0.0404153
-0.000111682
-0.000123125
-0.040303
0.0398923
-9.93411e-05
-0.000108613
-0.000306509
0.0388079
-0.0400139
-0.000421856
-0.0392596
-0.00149231
0.0375186
-0.000968338
0.0405042
-0.0405085
7.40517e-05
7.72609e-05
0.0405137
-0.0405195
7.25539e-05
7.56541e-05
0.0405265
-0.0405344
7.16554e-05
7.42758e-05
0.0405438
-0.0405543
7.2596e-05
7.41273e-05
0.0405668
-0.0405807
7.66927e-05
7.65678e-05
0.0405969
-0.0406145
8.49003e-05
8.28336e-05
0.0406349
-0.0406568
9.7464e-05
9.35729e-05
0.0406817
-0.0407083
0.000113912
0.000108641
0.0407381
-0.0407696
0.00013347
0.000127319
0.0408048
-0.0408417
0.000155656
0.000148891
0.0408827
-0.0409254
0.000180479
0.000173139
0.0409724
-0.0410208
0.000207635
0.000200095
0.0410732
-0.041126
0.000234565
0.000228586
0.0411814
-0.041235
0.000254192
0.000253896
0.0412885
-0.0413367
0.000253927
0.000265847
0.0413805
-0.0414148
0.000217719
0.000249155
0.0414394
-0.0414504
0.000131146
0.000187318
0.0414466
-0.0414266
-1.27365e-05
6.86904e-05
0.0413881
-0.041333
-0.00020961
-0.000108283
0.0412592
-0.0411724
-0.000448232
-0.000335106
0.0410683
-0.040951
-0.000716211
-0.000597079
0.0408124
-0.0391845
-0.00111185
-0.000893548
-0.00367587
-0.00245915
0.00225049
-0.0377613
-0.0384063
-0.00261546
-0.00282818
0.0376443
0.000709967
-0.0344799
-0.000251017
-0.0362213
-0.00120456
0.000974314
0.0389295
-0.00165936
0.0390689
0.000747412
-0.0339417
0.00027247
-0.0370865
0.00106862
-0.0339753
7.73456e-05
-0.0409708
0.00141819
-0.0342723
0.000630963
-0.0412629
0.00190612
-0.0345672
0.00212163
-0.0354111
0.00262561
-0.0362094
0.00661456
-0.0362113
0.0377919
-0.039213
-7.11529e-05
-0.00280526
0.00231799
-0.037274
-0.00274156
-0.03847
-0.00246712
0.0371576
0.037286
-0.00196119
-0.0353028
-0.000569238
0.000404979
0.0395961
0.0392321
0.000543276
8.51773e-05
0.0388249
0.0397235
-8.32307e-05
8.13137e-05
0.0388197
0.0404848
-7.92138e-05
-3.00093e-06
0.0393999
0.0404794
-8.7717e-05
-7.01927e-05
0.0396241
0.0392317
0.000258136
-0.00105489
0.0396512
0.0395056
0.00166823
-0.00266362
0.038153
0.0382576
-0.0396587
0.0409278
-0.00354273
0.0394813
-0.0391177
-0.00310517
-0.00279288
-0.0404691
0.0409682
-0.00377371
-0.00341298
-0.041618
0.0414708
-0.00339792
-0.0037022
-0.0417307
0.0417282
-0.00302237
-0.00331626
-0.0417215
0.0417127
-0.00262893
-0.00291965
-0.0416991
0.0416816
-0.00221268
-0.00250157
-0.0416576
0.0416273
-0.00178639
-0.00206342
-0.0415881
0.0415423
-0.00138209
-0.00163005
-0.0414872
0.0414273
-0.00103442
-0.00123788
-0.0413598
0.0412908
-0.000766724
-0.00091843
-0.0412175
0.0411465
-0.000583638
-0.000686386
-0.0410748
0.0410084
-0.000473676
-0.000537422
-0.0409442
0.040887
-0.000416381
-0.000454029
-0.0408337
0.0407878
-0.000389671
-0.000413405
-0.0407463
0.0407115
-0.000375036
-0.000394104
-0.0406808
0.0406554
-0.000360048
-0.000379996
-0.0406333
0.0406152
-0.000338616
-0.000361613
-0.0405994
0.0405863
-0.00030971
-0.000335509
-0.0405748
0.0405651
-0.000275431
-0.000302498
-0.0405564
0.040549
-0.000239149
-0.00026562
-0.0405423
0.0405365
-0.000204148
-0.000228445
-0.0405313
0.0405268
-0.000172861
-0.000193986
-0.0405227
0.0405193
-0.000146627
-0.000164192
-0.0405163
0.0405138
-0.000125767
-0.000139905
-0.0405117
0.0405099
-0.000109931
-0.000121033
-0.0405071
0.040585
-0.000177265
-0.000105772
-0.04046
0.0400651
-0.000381627
-0.000181528
-0.0400897
0.0390588
-0.00062844
-0.000942071
0.0400051
-0.0405068
7.9765e-05
-0.000176255
0.0405119
-0.0405177
7.98401e-05
8.23972e-05
0.0405245
-0.0405321
8.01423e-05
8.24646e-05
0.0405411
-0.040551
8.16177e-05
8.32619e-05
0.0405627
-0.0405756
8.54741e-05
8.58482e-05
0.0405906
-0.0406069
9.29519e-05
9.15515e-05
0.0406255
-0.0406456
0.00010491
0.00010151
0.0406683
-0.0406924
0.000121549
0.000116287
0.0407195
-0.040748
0.000142485
0.000135754
0.0407801
-0.0408138
0.000167174
0.00015936
0.0408516
-0.0408913
0.000195387
0.000186667
0.0409358
-0.0409824
0.000227119
0.000217626
0.0410343
-0.0410881
0.000261408
0.00025197
0.0411469
-0.0412064
0.000294114
0.000287393
0.0412696
-0.0413311
0.000315689
0.000317054
0.0413932
-0.04145
0.000310726
0.00032794
0.0415028
-0.0415461
0.000260967
0.000302037
0.0415801
-0.0416004
0.000151512
0.000221297
0.0416066
-0.0415968
-2.25125e-05
7.4858e-05
0.0415696
-0.0415265
-0.000252704
-0.000135558
0.0414656
-0.0413919
-0.000521942
-0.000395986
0.0413016
-0.0412014
-0.000816391
-0.000687326
0.0410883
-0.0400039
-0.00219627
-0.0010067
0.0408776
-0.00528764
-0.00280217
-0.0032352
0.00282091
-0.0380558
-0.0391459
-0.00320703
-0.00374062
0.00325663
-0.0346133
-0.0375818
0.00399414
0.000622411
-0.0343549
-0.000136338
-0.0358125
-0.00267027
0.0372926
0.00108929
-0.0339624
0.000430338
-0.0374394
-0.000988334
0.00101572
0.0390314
0.039216
-0.039339
-0.000505461
0.0391079
-0.000880265
0.00162607
-0.0341832
0.000498395
-0.0408383
0.002202
-0.0345682
0.00417083
-0.0388192
0.00242751
-0.0348731
0.00459536
-0.0375501
0.0025641
-0.0353495
0.0026583
-0.0365497
0.0030192
-0.0374723
0.00411264
-0.00446787
-0.0387906
0.00390248
-0.0378456
-0.00170935
0.00404906
-0.036953
-0.0374934
-0.00179774
-0.0348167
-0.000946623
0.00038972
0.0394864
0.039138
-0.000628224
0.000850737
0.0393736
0.0389936
-8.37474e-05
8.28287e-05
0.0388259
0.0404905
-8.14871e-05
7.99522e-05
0.0388212
0.0404861
-7.82169e-05
0.000660588
0.0388175
0.0404812
0.000586729
0.000219883
0.0388175
0.040479
0.000105628
7.53411e-05
0.0394702
0.0398311
0.00104463
-0.00126907
0.0383774
0.0393776
-0.0397293
0.0404008
-0.00377663
0.0392794
-0.0392519
-0.00449531
-0.00365697
-0.0407729
0.0416797
-0.00444953
-0.00316506
-0.042031
0.0420043
-0.00374703
-0.00376421
-0.0419748
0.0419475
-0.00337063
-0.00367268
-0.0419175
0.04189
-0.00299489
-0.00328624
-0.0418624
0.0418358
-0.00260231
-0.00289209
-0.0418075
0.0417782
-0.00218339
-0.00247326
-0.0417449
0.0417083
-0.00174982
-0.0020301
-0.0416652
0.0416176
-0.00133451
-0.00158689
-0.0415624
0.0415035
-0.000975546
-0.00118271
-0.041438
0.0413711
-0.00069983
-0.000852893
-0.0413
0.0412306
-0.000514221
-0.000615258
-0.0411598
0.0410935
-0.000407368
-0.000466704
-0.0410284
0.0409695
-0.000357398
-0.000388945
-0.0409133
0.0408638
-0.000340188
-0.000357275
-0.0408179
0.0407782
-0.000335348
-0.000348144
-0.040742
0.0407111
-0.000329167
-0.000343758
-0.0406832
0.0406595
-0.000314949
-0.00033368
-0.0406381
0.04062
-0.000291617
-0.000314155
-0.0406037
0.0405898
-0.000261551
-0.000286149
-0.0405773
0.0405666
-0.000228496
-0.000253063
-0.040557
0.0405489
-0.000196045
-0.000218837
-0.0405416
0.0405356
-0.000166824
-0.000186744
-0.0405303
0.0405259
-0.000142257
-0.000158873
-0.0405221
0.0405191
-0.000122706
-0.000136112
-0.0405165
0.0405144
-0.000107851
-0.000118436
-0.0405137
0.0404333
-9.6839e-05
-0.000105117
-0.0403473
0.0400542
-8.85652e-05
-9.5489e-05
-0.000226829
0.0400894
-0.0402437
8.3086e-05
-0.0392387
-0.00111957
0.037688
-0.00111048
0.0405067
-0.0405117
8.47573e-05
8.68009e-05
0.0405176
-0.0405242
8.64227e-05
8.83014e-05
0.040532
-0.0405406
8.87248e-05
9.0249e-05
0.0405507
-0.0405617
9.26472e-05
9.3328e-05
0.0405745
-0.0405884
9.93502e-05
9.86565e-05
0.0406043
-0.0406213
0.000109965
0.000107464
0.0406406
-0.0406609
0.000125264
0.000120771
0.0406837
-0.0407077
0.000145487
0.000139106
0.0407344
-0.0407624
0.00017048
0.000162473
0.0407937
-0.0408266
0.00020009
0.00019066
0.0408636
-0.0409026
0.000234419
0.000223636
0.0409465
-0.0409928
0.000273385
0.000261537
0.0410445
-0.0410982
0.00031518
0.00030366
0.0411572
-0.0412169
0.000353868
0.000346338
0.0412803
-0.041342
0.000377348
0.000380431
0.0414041
-0.041461
0.00036754
0.000390119
0.0415138
-0.0415572
0.000304328
0.000354921
0.0415916
-0.0416129
0.000172769
0.00025569
0.0416207
-0.0416134
-2.97427e-05
8.2677e-05
0.0415901
-0.0415522