/*--------------------------------*- C++ -*----------------------------------*\
  =========                 |
  \\      /  F ield         | OpenFOAM: The Open Source CFD Toolbox
   \\    /   O peration     | Website:  https://openfoam.org
    \\  /    A nd           | Version:  10
     \\/     M anipulation  |
\*---------------------------------------------------------------------------*/
FoamFile
{
    format      ascii;
    class       volScalarField;
    location    "22";
    object      p;
}
// * * * * * * * * * * * * * * * * * * * * * * * * * * * * * * * * * * * * * //

dimensions      [0 2 -2 0 0 0 0];

internalField   nonuniform List<scalar> 
6397
(
2.33574
1.90835
1.32544
1.37108
1.20173
1.20732
4.422
0.285765
-12.4476
-15.4516
7.25586
4.84049
-0.153904
-0.0661781
-0.133391
-4.74819
-4.26894
-6.40972
12.1805
11.3125
10.9238
-20.6817
-20.1108
-18.1978
-0.0189438
0.0484777
0.0686266
-1.74034
-1.71247
-1.76036
-1.78276
1.41364
1.44275
1.38379
1.22733
1.30464
1.35862
1.41523
0.983041
0.908177
1.04783
1.1581
-1.79075
0.469871
0.351064
1.15032
0.915137
0.870068
0.593782
0.633682
0.50143
0.605786
0.618575
5.98258
5.73706
1.67927
1.72035
0.231922
-3.08968
-2.8451
-3.00396
-2.80693
-2.53012
-2.27362
-2.11826
-2.10864
-2.27875
-2.63584
-1.75326
-2.53366
-1.59604
-1.85927
-1.83646
-1.75557
-1.66567
-1.61389
-1.6652
-1.85045
-2.21771
-2.78521
-1.4427
-2.19736
-3.17618
-3.55184
-1.34762
-1.93442
-3.84051
-4.46756
-1.33384
-1.77308
-4.52286
-5.37723
-1.39248
-1.53465
-5.04092
-6.0571
-0.783222
-1.18439
-0.936694
-0.71088
-0.721283
-0.80248
-0.749001
-0.860906
-0.842324
-0.8856
-0.867552
-1.13769
-0.962899
-1.95207
-1.45508
-3.60103
-2.66464
-5.82351
-4.71863
-6.61284
-2.9922
-3.81968
-3.42749
-2.2792
-2.5663
-2.24216
-2.16269
-2.9287
-2.50692
-3.95412
-3.46707
-4.22054
-4.28164
-3.50916
-4.00884
-2.47031
-2.9645
-1.89448
-2.12062
-1.74098
-1.84323
-1.51428
-6.8034
-6.25734
-2.56486
-4.0372
-2.59388
-6.30229
-6.70303
-6.14545
-1.5213
-0.78228
-1.23223
-1.42808
-5.26091
-0.235214
-0.462658
-0.0126381
-0.0922353
-0.0128671
0.00521006
-0.0915706
-0.053737
-0.214547
-0.137963
-0.592911
-0.358039
-1.52627
-0.971949
-3.30949
-2.29416
-5.73144
-4.53481
-6.54953
-2.08074
-2.34309
-1.85659
-1.90016
-2.32235
-1.9929
-3.56651
-2.84358
-5.10197
-4.34344
-5.58757
-5.53118
-4.51234
-5.2001
-2.93105
-3.68252
-1.93741
-2.34915
-1.67554
-2.06436
-2.02375
-1.87075
-2.01877
-2.59398
-3.81249
-5.86444
-5.93604
-5.38098
-5.0902
-5.29859
-1.50707
-2.3325
-1.3836
-1.89707
-1.38164
-2.64932
-1.62517
-2.4176
-0.977725
-1.16498
-4.95402
-0.3842
-0.924662
0.276218
0.0128822
0.545062
0.451819
0.577339
0.574838
0.498152
0.537832
0.337095
0.431444
-0.0763764
0.172085
-1.0053
-0.465012
-2.74389
-1.7622
-5.0449
-3.92053
-5.82415
-1.45949
-1.50416
-1.26308
-1.34665
-1.4382
-1.28465
-2.30393
-1.77453
-4.00132
-3.0556
-6.00326
-5.04403
-6.72345
-6.61441
-5.29726
-6.20911
-3.2166
-4.21282
-1.82535
-2.4133
-1.42623
-2.56061
-2.30769
-2.68538
-4.3662
-3.36962
-5.01654
-1.21833
-2.01311
-3.86338
-4.12427
-3.43091
-3.20236
-2.07554
-1.41561
-0.74732
-0.481759
-1.2794
-2.02514
-3.22034
-2.18799
-2.73957
-0.824036
-4.30374
-0.0108322
-0.591482
0.696649
0.410038
0.957277
0.855263
0.989576
0.989696
0.927227
0.966685
0.770643
0.867408
0.380034
0.618008
-0.464875
0.0268073
-1.99329
-1.13349
-3.95504
-2.99442
-4.67603
-4.59012
-3.2033
-4.12556
-1.37767
-2.22391
-0.620448
-0.533412
-0.586649
-0.563303
-0.588501
-0.565621
-0.536456
-1.00268
-0.718429
-2.12513
-1.4626
-4.1492
-3.03093
-6.50142
-5.38081
-7.35286
-7.22189
-5.69161
-6.75453
-3.25454
-4.43312
-1.58698
-2.29346
-1.08791
-3.13385
-2.66239
-3.4027
-1.10348
-0.51396
-1.36045
-0.706686
-2.82032
-3.99971
-2.75296
-0.73819
-0.308344
-0.0201177
-1.74285
-3.0488
-0.588427
-1.10799
-1.87089
-0.781415
-0.188913
-0.28829
-3.52096
-0.82722
-2.19183
-1.51783
0.329359
-0.205236
0.992823
0.713033
1.23723
1.14376
1.27879
1.27231
1.2321
1.26554
1.09232
1.17931
0.747353
0.956838
0.0521059
0.453028
-1.15367
-0.475531
-2.71012
-1.94181
-3.23165
-3.2164
-1.99802
-2.78228
-0.479174
-1.17892
0.429959
0.0414163
0.0271359
-0.132348
-0.00955171
0.0298012
0.0289688
0.0969901
0.0332252
-0.00782146
0.0849033
-0.557244
-0.215753
-1.79382
-1.07283
-3.95794
-2.76679
-6.44717
-5.26008
-7.40306
-7.22571
-5.60404
-6.73304
-3.02173
-4.27313
-1.2425
-1.99829
-0.695986
-0.787711
-0.342469
0.181284
0.721292
-0.143708
0.200135
-0.778314
-0.103064
-2.31704
-1.54208
-3.67292
-3.05739
-4.11713
-4.04363
-3.395
-3.88995
-2.73892
-2.34575
-3.05747
-1.61187
-2.22708
-1.25594
-1.2783
-0.638617
-1.11045
-0.37273
0.930704
0.450779
-1.5437
-2.00506
-2.81278
-0.327748
-0.953976
0.655727
0.20572
1.19801
0.958872
1.41858
1.3302
1.46719
1.45306
1.42997
1.45683
1.31249
1.38493
1.03641
1.20074
0.528269
0.819582
-0.350379
0.145344
-1.4346
-0.910266
-1.76577
-1.74649
-0.913922
-1.44932
0.271072
-0.289945
0.94481
0.668379
1.31466
1.15269
0.231478
-0.207906
0.0399823
0.435171
0.365612
0.500138
0.466254
0.551843
0.523084
0.43258
0.532162
-0.119918
0.221255
-1.33195
-0.628182
-3.42534
-2.27452
-5.83155
-4.68043
-6.79402
-6.5883
-5.03576
-6.12115
-2.55544
-3.75986
-0.81472
-1.56273
0.100547
-0.281293
0.603996
0.385872
0.762191
-0.871674
0.467967
-0.1554
-2.49953
-1.66062
-4.06488
-3.33063
-4.56966
-4.48432
-3.78202
-4.31965
-1.05285
-0.544432
1.06964
1.43461
-2.21283
-3.05466
-2.05079
-2.36234
-1.66735
-1.70382
-1.56384
-0.914031
-1.60239
-0.104256
-1.01005
-1.66717
0.623681
1.51441
1.15348
-0.349549
-1.63778
-0.743774
1.59107
1.74963
1.81281
-1.42963
-2.14698
-1.38084
-2.32245
-0.86692
-1.26558
0.139119
-0.380497
0.922937
0.569163
1.35069
1.16439
1.53351
1.4561
1.58755
1.56378
1.56247
1.5762
1.4729
1.5268
1.26489
1.38504
0.908145
1.11014
0.327358
0.648745
-0.313913
-0.0156484
-0.421654
-0.4584
0.0963759
-0.209457
0.809899
0.454097
1.30727
1.09421
1.58546
1.46438
1.68028
0.199236
-0.0353104
0.528554
0.374393
0.733992
0.648692
0.81117
0.775345
0.869986
0.84459
0.770563
0.854258
0.285392
0.58663
-0.794946
-0.167436
-2.65607
-1.6353
-4.75563
-3.75844
-5.39226
-5.38019
-4.08265
-4.99693
-1.91921
-2.97614
-0.38327
-1.05184
0.454489
0.0988667
0.911402
0.71084
1.05758
0.383923
0.868833
-0.867304
-0.17437
-2.49857
-1.66142
-4.23692
-3.34371
-4.68536
-4.62204
-3.85915
-4.41041
-3.14399
-1.97254
-1.9733
-1.91518
-1.42586
-2.08297
-0.71069
-2.34051
0.0415285
-2.5769
0.717157
-1.25468
-2.49643
1.22259
1.83954
1.67425
-0.314722
-1.89483
-0.623215
1.82681
2.07568
2.05932
-1.93709
-1.15399
-0.728124
-0.752974
-2.08617
-0.249346
-0.571979
0.528178
0.133303
1.12122
0.854009
1.44759
1.31002
1.5913
1.53433
1.65385
1.62678
1.64388
1.65021
1.58469
1.62195
1.44914
1.52452
1.23029
1.35171
0.876319
1.07069
0.498113
0.664881
0.540722
0.454047
0.899605
0.71895
1.22453
1.05667
1.56411
1.40064
1.7845
1.68544
1.94652
1.8688
2.01231
0.23051
-0.0262794
0.59765
0.438785
0.809341
0.707124
0.967374
0.899397
1.03795
1.00969
1.08573
1.06294
1.01826
1.07935
0.628351
0.87359
-0.258598
0.257418
-1.76859
-0.943687
-3.44567
-2.65279
-4.02335
-3.95494
-2.9361
-3.67416
-1.20736
-2.05303
0.0283539
-0.515874
0.736644
0.433515
1.12366
0.958337
1.2355
1.12934
1.338
0.379806
0.805474
-0.805246
-0.142512
-2.40897
-1.57945
-3.94618
-3.22967
-4.39819
-4.34255
-3.56345
-4.11887
-2.81445
-2.11591
-1.83555
-2.39125
-1.32827
-2.91604
-0.640095
-3.46634
0.0834417
-3.87683
0.745281
-3.64025
1.26107
-0.862264
-2.56102
1.75267
2.01569
1.73641
-0.589582
-2.08457
-0.139957
-0.0605623
-0.156717
0.239253
0.00651217
0.811287
0.537736
1.24763
1.06404
1.49721
1.39981
1.61783
1.57497
1.67379
1.65841
1.70464
1.70032
1.6814
1.70156
1.59993
1.64791
1.44683
1.5316
1.22744
1.33907
1.05962
1.1225
1.14865
1.06183
1.40039
1.28005
1.54673
1.47691
1.72719
1.63342
1.88733
1.81252
2.01886
1.95887
2.06104
2.0589
1.98336
2.04462
0.350281
0.235661
0.251346
0.60589
0.481389
0.857621
0.733284
1.04643
0.960551
1.16839
1.11648
1.21642
1.20166
1.22613
1.22209
1.17948
1.2208
0.896592
1.07893
0.223855
0.617045
-0.908939
-0.292136
-2.15471
-1.56816
-2.61377
-2.54083
-1.79501
-2.34246
-0.525157
-1.14512
0.390308
-0.0161583
0.949239
0.704911
1.26031
1.12824
1.40835
1.34803
1.44382
1.01916
1.33265
1.22498
0.363865
0.744178
-0.749495
-0.134626
-2.18339
-1.44817
-3.46212
-2.88585
-3.81426
-3.79227
-2.97734
-3.5251
-1.49325
-2.26753
-0.197292
-0.757778
-0.866637
0.383106
1.92662
1.89768
-2.48983
-1.89624
1.44117
-3.19955
-1.40008
0.443573
0.37875
0.763826
-4.18929
-0.715353
-5.13133
0.0364537
-5.58491
0.731865
-4.89181
1.27711
-2.92055
1.76869
0.766764
-0.435816
1.61137
1.79137
1.80769
-2.3125
0.315722
0.329783
0.601238
0.439336
1.00713
0.812706
1.3279
1.18702
1.52257
1.44266
1.63141
1.58822
1.71017
1.67468
1.72886
1.72279
1.71852
1.73028
1.66308
1.69565
1.57497
1.61926
1.48771
1.52797
1.44125
1.45324
1.53213
1.47026
1.70009
1.62128
1.77773
1.74811
1.85194
1.81177
1.95341
1.90011
2.06117
2.01092
2.11748
2.09788
2.03654
2.09154
1.85528
1.95688
0.885481
1.35514
1.06295
0.821403
0.816737
0.912248
0.856303
1.03489
0.968341
1.1687
1.10394
1.27162
1.22569
1.32724
1.30799
1.32004
1.33043
1.27548
1.30798
1.08577
1.21006
0.610936
0.889675
-0.190037
0.243713
-1.04652
-0.648809
-1.35503
-1.30728
-0.796706
-1.16421
0.0520608
-0.360395
0.681711
0.400082
1.09144
0.909168
1.33799
1.23067
1.44242
1.40913
1.45186
1.1756
1.24762
0.843615
1.03477
0.230283
0.588609
-0.753605
-0.224196
-1.91151
-1.33021
-2.83499
-2.43465
-3.00906
-3.04505
-2.20648
-2.71147
-0.919882
-1.58608
-0.259338
1.33625
1.73473
1.69901
1.73133
-3.16236
-2.16319
0.812844
0.938742
-4.46293
-1.65371
-6.03818
-0.911721
-7.32069
-0.0343492
-7.37948
0.701137
-5.60644
1.31965
-2.49205
1.61047
0.398764
1.50845
2.08161
1.91689
1.59469
2.07138
2.18493
2.30659
1.07607
1.5552
1.60014
-2.79415
0.66415
0.711538
0.847417
0.740949
1.12774
0.988433
1.36777
1.25684
1.52577
1.45485
1.62244
1.58159
1.66356
1.65748
1.71659
1.70296
1.72587
1.72513
1.71676
1.7228
1.6921
1.70527
1.65829
1.67383
1.66285
1.64938
1.75844
1.71635
1.87518
1.82203
1.91832
1.90519
1.94748
1.93102
2.00332
1.97227
2.07272
2.03969
2.09488
2.09601
2.03808
2.08161
1.90424
1.97824
1.70043
1.81022
1.64225
1.8774
1.23175
1.40744
1.10335
1.13029
1.1416
1.11642
1.20782
1.17088
1.27431
1.2438
1.32882
1.30287
1.37146
1.35462
1.37451
1.38045
1.33517
1.36311
1.20289
1.28797
0.884024
1.07035
0.353591
0.63674
-0.170097
0.0642836
-0.328267
-0.313756
-0.00769129
-0.210518
0.486884
0.241182
0.894188
0.707194
1.17877
1.05014
1.36394
1.28516
1.44222
1.42251
1.41598
1.44485
1.37334
0.905425
1.02378
0.56221
0.750857
-0.023625
0.306353
-0.823948
-0.405257
-1.65623
-1.25248
-2.18787
-1.98348
-2.12102
-2.2424
-1.34929
-1.81039
-0.255799
-0.814523
0.773809
0.299401
1.04087
0.964846
-4.23878
-2.6611
1.60437
1.49125
1.0808
1.1656
1.17582
1.76967
1.70017
-6.25553
-2.05109
-8.40114
-1.14282
-9.55229
-0.0987056
-8.4029
0.5726
-5.10737
1.2812
-1.20356
1.35382
1.38941
1.41726
2.20334
2.04079
1.9627
2.13519
2.34294
1.35003
2.38417
1.21701
1.23667
1.27695
-3.58163
0.970709
1.02497
0.894553
0.924219
0.999142
0.932717
1.19314
1.0966
1.38052
1.29413
1.51941
1.45545
1.61442
1.57002
1.68032
1.64981
1.72676
1.7056
1.75081
1.74158
1.74968
1.75271
1.73576
1.74167
1.74236
1.73466
1.78387
1.75956
1.86933
1.79963
1.96325
1.92343
1.98987
1.98376
2.00472
1.99526
2.04043
2.02079
2.08203
2.06208
2.09169
2.09579
2.03845
2.07526
1.92546
1.98782
1.85042
2.00014
2.05658
1.73254
1.88164
1.44343
1.56781
1.3124
1.36172
1.26948
1.28544
1.28597
1.26844
1.35047
1.31733
1.39836
1.37901
1.41782
1.41188
1.41243
1.42012
1.37097
1.39896
1.26782
1.33057
1.04966
1.17527
0.724314
0.891366
0.450151
0.567969
0.37445
0.381872
0.521156
0.416182
0.786904
0.646749
1.04172
0.92074
1.23008
1.14512
1.35745
1.30613
1.41197
1.40417
1.36136
1.40871
1.31788
0.857372
0.900584
0.583917
0.743504
0.161141
0.389885
-0.3799
-0.10091
-0.956191
-0.667034
-1.43083
-1.21754
-1.58827
-1.5665
-1.27437
-1.48769
-0.55477
-0.957432
0.321364
-0.111046
0.990561
0.708543
1.13161
1.38654
1.27435
1.53762
1.64666
-5.74944
-3.36298
-8.45787
-2.48162
-10.7143
-1.32796
1.40954
-10.8197
-0.223193
-7.86884
0.47475
-3.2693
1.20639
1.82714
1.6954
1.52469
1.62693
0.446239
1.12593
1.98867
2.19947
1.23766
2.33395
2.55171
1.12966
1.3461
0.844924
0.784822
1.48193
1.60481
0.818674
-4.67508
1.11496
1.27326
1.19355
1.04573
1.0746
1.02395
1.02641
1.09281
1.04517
1.23471
1.16083
1.38373
1.31241
1.50591
1.44754
1.59673
1.55237
1.66121
1.6307
1.70767
1.68644
1.74017
1.7259
1.76321
1.75268
1.78318
1.7732
1.80555
1.79322
1.84624
1.82242
1.92358
1.87595
2.00297
1.96899
2.02607
2.021
2.03333
2.02808
2.05721
2.04364
2.08408
2.07157
2.08652
2.09106
2.04106
2.07029
1.95191
2.00145
1.82977
1.89199
1.7344
1.7755
1.57045
1.69093
1.70589
1.89599
1.82004
1.89939
1.92104
1.74964
1.83839
1.53416
1.63921
1.39464
1.44895
1.36676
1.37244
1.37443
1.3678
1.39814
1.38618
1.41668
1.40816
1.42644
1.42325
1.42026
1.42646
1.3808
1.40458
1.29294
1.34455
1.13305
1.22178
0.940579
1.03524
0.810997
0.864935
0.778748
0.784578
0.841466
0.797682
0.969875
0.896837
1.12795
1.04829
1.25749
1.1968
1.34339
1.30657
1.373
1.36536
1.32757
1.35668
1.18287
1.26903
1.09105
0.554064
0.689287
0.145736
0.363737
-0.367931
-0.101455
-0.836226
-0.61769
-1.15896
-1.01814
-1.2561
-1.24058
-1.06792
-1.20389
-0.550091
-0.845036
0.148182
-0.211324
0.795184
0.499449
1.18701
1.02443
1.32405
1.28743
1.34475
-7.53095
-4.13456
1.68686
1.79362
1.80961
-10.5054
-2.79124
1.23439
-11.9627
-1.37588
-10.2286
-0.316565
1.3273
1.30926
1.27025
1.07002
1.0618
-5.70297
0.416231
1.36111
-0.972059
1.05377
1.53195
1.41738
1.76189
1.83826
0.900792
2.19109
2.64807
0.946443
2.5568
1.26448
1.33851
1.31295
1.40707
0.932716
0.783489
1.38048
-5.91526
1.17419
1.21195
1.10227
1.12973
1.09545
1.08945
1.15421
1.11579
1.26308
1.20403
1.38489
1.3254
1.49318
1.44141
1.58088
1.53831
1.649
1.61646
1.69941
1.67563
1.7372
1.72028
1.7637
1.75188
1.78993
1.77577
1.82993
1.80758
1.88482
1.85607
1.95111
1.91611
2.01071
1.9842
2.0364
2.02772
2.04677
2.04148
2.06255
2.05384
2.08013
2.07194
2.07955
2.08367
2.043
2.06607
1.97369
2.0117
1.88437
1.92944
1.8134
1.8441
1.79539
1.59368
1.44969
1.76926
1.69836
1.80986
1.8078
1.69828
1.77412
1.5622
1.63135
1.47238
1.50949
1.4255
1.44648
1.4044
1.41016
1.41721
1.40853
1.43135
1.42496
1.43383
1.43391
1.42126
1.42953
1.38097
1.40431
1.3049
1.34782
1.18837
1.25016
1.07092
1.12564
1.01182
1.03486
0.994383
1.00141
1.02503
1.00288
1.07865
1.04376
1.17326
1.12511
1.25858
1.21511
1.31296
1.28376
1.32126
1.3134
1.28488
1.29973
1.13197
1.217
1.04786
0.577993
0.742343
0.708676
0.203708
0.408502
-0.368297
-0.0613624
-1.0258
-0.703209
-1.42164
-1.26846
-1.45817
-1.48362
-1.16243
-1.349
-0.626821
-0.918108
0.0425888
-0.302222
0.692516
0.38171
1.18028
0.968093
1.40592
1.3199
1.46007
1.45158
1.43921
1.6816
1.83586
-9.09524
-4.72394
0.954633
-11.5196
-2.87059
0.860227
0.915721
0.74441
0.648335
-11.1968
-1.34094
1.10051
0.802149
-7.84527
-0.38871
1.05955
-3.01075
0.366109
1.49006
1.22581
1.44966
0.922935
0.712286
1.33681
1.94991
2.6314
0.625533
2.42939
2.75464
1.33794
0.72661
1.6897
1.86829
-6.92446
1.24559
1.2986
1.27904
1.18217
1.2122
1.14113
1.15715
1.14186
1.13365
1.19497
1.16138
1.28383
1.23504
1.38582
1.33484
1.48193
1.43563
1.56435
1.5245
1.63126
1.5992
1.6841
1.65871
1.7277
1.7072
1.76478
1.74726
1.80036
1.78271
1.83957
1.81898
1.89238
1.86368
1.9551
1.92312
2.00867
1.98476
2.03341
2.02415
2.04706
2.0403
2.06142
2.05426
2.07343
2.06806
2.0724
2.07543
2.04575
2.06258
1.99403
2.02246
1.93144
1.96275
1.88457
1.90378
1.88599
1.87705
1.95572
1.91293
1.92238
2.0763
2.00914
1.24691
1.085
1.51249
1.39288
1.67121
1.6041
1.71942
1.71071
1.6667
1.70231
1.57681
1.62525
1.49165
1.53058
1.44463
1.46314
1.43041
1.43461
1.43341
1.43084
1.436
1.43535
1.43111
1.4344
1.41445
1.42419
1.37649
1.39761
1.314
1.34748
1.23142
1.27264
1.15916
1.18978
1.12515
1.13751
1.1061
1.11483
1.08844
1.10178
1.13803
1.11766
1.19355
1.16712
1.24284
1.22018
1.26613
1.25798
1.25172
1.26713
1.16888
1.23343
1.08657
1.1504
0.948465
1.00651
0.820668
0.306864
0.486958
-0.221334
0.0707331
-1.02374
-0.590724
-1.83299
-1.46265
-2.12811
-2.05543
-1.85234
-2.05567
-1.1617
-1.54529
-0.298729
-0.73723
0.521128
0.126023
1.15127
0.870243
1.50496
1.36203
1.59769
1.5756
1.57928
1.59438
1.46943
1.53574
1.35597
1.41397
0.634648
-9.71957
-4.8513
1.31108
0.395653
0.573482
0.444505
-10.6652
-2.69026
2.15928
2.01839
0.771798
0.543388
-8.70973
-1.28628
1.73809
0.744548
-4.91469
-0.511834
1.47416
0.939882
1.08359
-0.78646
0.235357
1.25229
1.58029
2.06215
0.1242
1.08924
2.17771
2.90484
0.278257
2.65867
2.25275
2.33481
2.39261
0.419539
0.300977
-7.24559
1.26808
1.25636
1.27997
1.22004
1.24382
1.18345
1.19703
1.16488
1.16997
1.17396
1.16374
1.22184
1.19247
1.29817
1.25664
1.38631
1.34191
1.47269
1.43092
1.55018
1.51303
1.6157
1.5845
1.66959
1.64375
1.7152
1.69346
1.75535
1.73592
1.79678
1.77575
1.84329
1.81926
1.89513
1.86847
1.94728
1.92085
1.99459
1.97248
2.02367
2.0114
2.04052
2.03292
2.05461
2.04778
2.06498
2.06053
2.06538
2.06696
2.04793
2.05906
2.01285
2.0322
1.97181
1.99175
1.94598
1.95476
1.96539
1.94858
2.0492
1.99919
2.18075
2.11076
2.25704
0.688722
0.449423
0.558292
0.963796
0.823489
1.23429
1.10271
1.4494
1.35088
1.58535
1.52818
1.64324
1.62463
1.62314
1.64389
1.55464
1.5915
1.49467
1.52125
1.45996
1.47509
1.43902
1.4479
1.43313
1.43435
1.43069
1.43232
1.42242
1.42728
1.40455
1.41484
1.37062
1.38972
1.31988
1.34668
1.26007
1.2896
1.21168
1.23223
1.18477
1.19577
1.16545
1.17483
1.15294
1.15847
1.16864
1.16013
1.19518
1.18106
1.22024
1.20915
1.22729
1.22685
1.2026
1.22016
1.13588
1.17548
1.0424
1.09182
0.897607
0.970457
0.684639
0.804173
0.0144891
0.237617
-0.674569
-0.286398
-1.72785
-1.16403
-2.69635
-2.27146
-2.91741
-2.91837
-2.30592
-2.70062
-1.21688
-1.79246
-0.062014
-0.628198
0.879338
0.448087
1.47873
1.22328
1.74721
1.64769
1.76283
1.78013
1.66758
1.7167
1.50607
1.59876
1.36244
1.43111
1.30867
0.259916
-8.9505
-4.4395
2.33085
2.38202
2.43376
0.48579
1.2102
2.14413
0.364374
0.294804
-8.38785
-2.42993
1.8472
0.424451
-5.80326
-1.32395
1.51804
0.552431
0.694411
-2.5377
-0.730097
1.2047
1.11012
0.629791
-0.148908
0.745593
0.946112
1.7568
2.62231
-0.501929
2.40988
2.87091
0.404265
0.0201197
0.111099
-6.62322
1.22652
1.23394
1.19693
1.21099
1.17885
1.18417
1.17582
1.17357
1.19375
1.18094
1.23952
1.21335
1.30743
1.2716
1.38583
1.34658
1.46437
1.42629
1.5371
1.50221
1.60082
1.57037
1.65562
1.62926
1.70351
1.6803
1.74651
1.72546
1.78884
1.76758
1.83446
1.81093
1.88533
1.85942
1.93627
1.91141
1.97888
1.95892
2.00801
1.99498
2.02864
2.01906
2.045
2.03739
2.05595
2.05137
2.05872
2.05853
2.04999
2.05593
2.03033
2.04122
2.00688
2.01828
2.0015
1.99973
2.03632
2.01304
2.12445
2.07297
2.25483
2.18743
2.37629
2.31995
2.35471
2.44707
2.50424
2.42762
0.777383
0.593427
0.672185
1.00559
0.890213
1.22613
1.11895
1.40056
1.32068
1.51707
1.46524
1.57964
1.5562
1.57221
1.5835
1.53074
1.55253
1.4896
1.50977
1.4559
1.47133
1.43562
1.44389
1.4279
1.43055
1.4219
1.4251
1.41097
1.417
1.39332
1.40322
1.36305
1.37991
1.32151
1.34307
1.27598
1.29841
1.23943
1.25629
1.21489
1.2272
1.19406
1.2057
1.17963
1.18589
1.1811
1.17947
1.19066
1.18317
1.19641
1.19334
1.18748
1.19481
1.15419
1.17525
1.09055
1.12518
0.994959
1.04351
0.856351
0.928712
0.67746
0.779555
0.247324
0.396847
-0.222898
0.046464
-1.11151
-0.60699
-2.43938
-1.73865
-3.57057
-3.08742
-3.70298
-3.78774
-2.75578
-3.33605
-1.29642
-2.0476
0.106694
-0.564912
1.16124
0.688338
1.75066
1.51342
1.92062
1.87781
1.85865
1.90761
1.71316
1.78662
1.52214
1.62808
1.35892
1.43813
1.28745
2.27313
-0.179464
0.0610066
-7.13605
-3.77771
1.13811
0.557776
2.00978
0.112622
-5.85935
-2.27114
1.0493
2.56567
2.62077
1.64556
0.234981
0.0332889
0.111752
0.28617
-3.54889
-1.59789
1.24852
0.622232
-1.00987
-1.04366
0.332371
0.869825
1.17989
1.5102
-0.858944
0.572972
1.95185
2.86022
-1.11124
2.31061
2.42619
2.62141
2.54086
-0.246603
-0.138822
-5.38844
1.18442
1.17312
1.17619
1.18186
1.1717
1.17201
1.17974
1.17328
1.20464
1.18988
1.25012
1.22553
1.31281
1.28051
1.38437
1.34859
1.45699
1.4215
1.52543
1.49228
1.58708
1.55733
1.64162
1.61515
1.69035
1.66652
1.73533
1.71303
1.77958
1.7574
1.82506
1.80205
1.87259
1.84861
1.91973
1.89644
1.9613
1.94155
1.99199
1.97807
2.01398
2.00375
2.03231
2.02354
2.04619
2.04014
2.05268
2.05036
2.05187
2.05314
2.04524
2.04917
2.03746
2.04071
2.04901
2.03923
2.09658
2.06799
2.18592
2.13471
2.30946
2.24627
2.41645
2.36684
2.55654
2.47038
0.570561
0.424962
0.698557
0.710635
0.686738
0.857247
0.773693
1.04181
0.948557
1.22094
1.13336
1.36372
1.29834
1.46316
1.41771
1.52079
1.49837
1.52736
1.52977
1.50278
1.51717
1.47118
1.48695
1.44427
1.45658
1.42698
1.43432
1.41709
1.42121
1.40881
1.41296
1.39694
1.40337
1.37998
1.3893
1.35337
1.36847
1.31893
1.33679
1.28268
1.30073
1.25178
1.26688
1.22782
1.24026
1.20626
1.21772
1.18904
1.19689
1.17996
1.18088
1.17593
1.17617
1.16903
1.17231
1.15037
1.16154
1.11115
1.13347
1.04562
1.08091
0.950499
1.00074
0.823066
0.892145
0.668357
0.756506
0.51742
0.598834
0.196659
0.409505
0.351704
-0.38587
-0.0500798
-1.50708
-0.877642
-3.04508
-2.25
-4.26995
-3.75974
-4.33215
-4.47559
-3.12186
-3.85206
-1.36187
-2.25585
0.232162
-0.517662
1.34851
0.858225
1.91936
1.69722
2.05182
2.03027
1.92745
2.01032
1.72703
1.82522
1.51912
1.63198
1.34322
1.4343
1.15628
1.24678
1.09799
2.17598
-0.176571
-5.24561
-3.28069
1.08066
2.66047
0.42676
1.83804
2.35943
2.21528
0.323963
0.116126
-0.733921
-0.121648
-3.9768
-2.33301
1.3951
0.117112
-2.11047
-2.16591
-0.181459
2.49772
0.904366
0.556805
0.0667471
-1.66417
0.462403
1.25351
2.17706
-1.78102
0.122859
2.12244
2.73084
2.70905
-0.592216
-0.238268
-0.582881
2.6769
-0.438851
-4.27623
1.137
1.11168
1.15279
1.14728
1.16091
1.15554
1.17874
1.16789
1.20994
1.19251
1.25616
1.2317
1.31528
1.285
1.38158
1.3484
1.44953
1.41609
1.51461
1.48291
1.57433
1.54535
1.62832
1.60205
1.67725
1.65333
1.72282
1.70019
1.76738
1.74508
1.81265
1.78979
1.85864
1.83569
1.9028
1.88115
1.9421
1.92323
1.97411
1.95905
1.99888
1.98734
2.01879
2.00934
2.03496
2.02747
2.0462
2.04134
2.05294
2.04994
2.057
2.0553
2.06292
2.0588
2.08875
2.07241
2.14393
2.11259
2.23501
2.18452
2.35221
2.29282
2.45608
2.40555
2.59716
2.51672
2.77006
2.78903
2.68964
2.74695
0.625632
0.490536
0.806619
0.841872
0.741825
0.815911
0.796995
0.925864
0.861947
1.0714
0.996193
1.21778
1.14609
1.33614
1.28194
1.41848
1.37971
1.47195
1.44948
1.48602
1.48406
1.47037
1.48007
1.44902
1.45968
1.42835
1.43825
1.41259
1.4195
1.40229
1.40678
1.39316
1.39784
1.38115
1.38762
1.36515
1.37372
1.34191
1.35636
1.31242
1.32764
1.28189
1.29737
1.25488
1.26851
1.23144
1.24368
1.20874
1.22016
1.18772
1.19726
1.17133
1.17728
1.15821
1.164
1.14239
1.15128
1.11601
1.13108
1.0718
1.09561
1.00444
1.04014
0.911956
0.96133
0.794036
0.857141
0.660287
0.7321
0.517357
0.591851
0.434793
0.322309
0.358682
0.335618
0.159957
0.290321
-0.475556
-0.0883276
-1.74517
-1.03944
-3.40142
-2.55334
-4.70565
-4.17356
-4.71724
-4.9027
-3.32476
-4.15719
-1.38742
-2.36249
0.320726
-0.477425
1.48934
0.979286
2.04981
1.84269
2.12673
2.13405
1.96714
2.06334
1.74354
1.85473
1.52012
1.63285
1.32127
1.4239
1.12389
1.214
1.01836
1.06623
2.03903
-0.125206
-1.01605
-0.832441
-0.439173
-1.81808
-1.01105
-0.494824
-3.96265
-3.10035
1.61077
-0.409758
-2.80488
-2.78831
2.8851
2.89276
-1.27253
2.65386
2.84858
2.83189
0.898452
0.926084
0.305393
0.3796
0.324383
0.972398
0.987289
0.93459
1.05192
-0.0634201
-1.04623
-3.04899
2.07465
2.25533
0.455961
0.460817
0.969707
-2.98579
-0.524228
-0.0531956
-1.58481
-1.34281
1.33292
2.58134
-2.96972
2.27961
-0.814088
-3.69669
1.037
1.00572
1.09184
1.0659
1.12479
1.11101
1.14727
1.13602
1.17385
1.1594
1.21027
1.19058
1.25801
1.23297
1.31526
1.28595
1.37807
1.34658
1.44215
1.41046
1.50434
1.47386
1.5623
1.53401
1.61557
1.58954
1.66451
1.64053
1.71029
1.68761
1.7546
1.7325
1.79874
1.77657
1.84298
1.82092
1.8854
1.86443
1.92369
1.90522
1.95562
1.94044
1.98222
1.96947
2.00513
1.99421
2.02381
2.01497
2.03945
2.03192
2.05353
2.04662
2.06655
2.06011
2.08452
2.07398
2.12172
2.10037
2.18189
2.14856
2.27445
2.22401
2.38655
2.33019
2.49557
2.44069
2.6335
2.55928
2.80592
2.7161
2.86892
0.442924
0.0567293
0.261739
0.707883
0.587862
0.895012
0.808661
0.902974
0.889621
0.986338
0.937617
1.09892
1.0406
1.21633
1.15829
1.31492
1.2694
1.38374
1.35346
1.43051
1.41014
1.44668
1.44262
1.43855
1.44425
1.42428
1.43159
1.40829
1.41623
1.39456
1.40069
1.38509
1.38941
1.37583
1.38066
1.36403
1.37042
1.34783
1.35676
1.32728
1.33561
1.3032
1.31591
1.27719
1.29051
1.25233
1.26512
1.22811
1.24056
1.20407
1.21586
1.18074
1.19161
1.15982
1.16919
1.13986
1.14982
1.11648
1.12924
1.08362
1.10157
1.03542
1.06104
0.967439
1.00354
0.878058
0.925591
0.769598
0.826352
0.647011
0.710366
0.511557
0.580255
0.443777
0.241328
0.275227
0.0826881
0.198566
-0.522246
-0.130298
-1.81057
-1.1014
-3.43141
-2.59632
-4.76482
-4.25907
-4.71057
-4.9263
-3.2885
-4.13375
-1.34156
-2.32059
0.370245
-0.428785
1.52888
1.02523
2.08774
1.8786
2.17827
2.1796
2.0038
2.10922
1.76051
1.88186
1.5147
1.63888
1.29915
1.4052
1.10852
1.19431
1.04374
1.85933
-0.203446
-1.56133
-0.90521
-3.29108
-3.24748
2.89947
-2.49461
2.81976
0.968291
0.390314
0.33366
0.92597
0.884588
1.3032
-0.727199
-1.99963
-3.85338
2.42942
0.596348
-0.301526
-0.181543
-4.61598
1.89375
2.12554
-1.6862
-0.123688
-2.32751
-1.99423
0.380676
1.67958
-5.07675
-0.804014
1.51686
2.38225
-0.528643
-0.955423
-1.30006
-3.54265
0.998145
0.963866
1.05519
1.02896
1.09704
1.07724
1.13124
1.11447
1.16638
1.14826
1.20757
1.18594
1.25678
1.23123
1.3129
1.28423
1.37337
1.34295
1.43479
1.4043
1.49461
1.46514
1.55094
1.52332
1.60329
1.57764
1.65187
1.62802
1.69759
1.67501
1.74149
1.71966
1.78468
1.7631
1.82712
1.80601
1.86783
1.84771
1.90529
1.88704
1.93766
1.92218
1.9653
1.95189
1.99027
1.97815
2.01206
2.00157
2.03219
2.0222
2.05261
2.04232
2.07376
2.06299
2.10234
2.08629
2.1487
2.12323
2.21391
2.17861
2.30604
2.25654
2.41566
2.36006
2.53053
2.47194
2.66448
2.59472
2.8236
2.74143
2.99482
2.99766
2.91021
2.99442
2.99459
2.98135
2.99053
-4.52629
2.98123
2.97768
0.577842
0.271871
0.434009
0.799997
0.698048
0.956799
0.882882
1.0338
1.07914
1.02161
0.976424
0.998738
0.976846
0.968576
1.03707
1.00108
1.12329
1.07848
1.21589
1.16982
1.29681
1.25894
1.35474
1.32857
1.39398
1.37666
1.41085
1.40543
1.40754
1.41073
1.39797
1.40295
1.38599
1.39213
1.37457
1.37982
1.36605
1.3701
1.35725
1.36193
1.34606
1.35205
1.33148
1.33934
1.31341
1.32227
1.29247
1.30349
1.26914
1.28122
1.24526
1.25751
1.22116
1.2333
1.19622
1.20856
1.17065
1.18303
1.14569
1.15794
1.12053
1.13347
1.09178
1.10701
1.05411
1.07403
1.00264
1.02986
0.934262
0.970587
0.84829
0.893624
0.745666
0.798946
0.630658
0.689677
0.507764
0.568528
0.449767
0.257538
0.280094
0.272461
0.183296
0.229486
-0.00208473
0.121372
-0.514086
-0.163773
-1.66981
-1.03258
-3.17136
-2.40341
-4.36884
-3.88049
-4.354
-4.53953
-3.05266
-3.82749
-1.23084
-2.15156
0.397956
-0.365463
1.52039
1.03054
2.06543
1.86286
2.15108
2.1498
2.00295
2.09401
1.76687
1.88881
1.50358
1.6383
1.27317
1.38085
1.09277
1.17548
0.954043
1.01972
0.839956
0.89317
1.60499
0.0749626
-2.30815
-1.38705
-3.05725
-4.06343
2.6101
0.888374
-1.14216
-1.56294
-5.67939
2.32008
3.08888
3.08465
1.09133
1.13063
-2.95463
0.237824
0.28655
0.243413
0.792559
0.791096
0.740958
-0.00154791
-1.42596
-0.594483
0.422295
-7.15388
1.63362
1.9097
-0.920027
-1.82977
0.240395
2.08211
-7.50208
-3.36623
-2.90953
1.38383
2.98568
3.14016
3.16266
-0.165979
-0.460069
-1.95186
-3.90185
2.80059
0.882997
0.839583
0.960732
0.923209
1.02268
0.993773
1.07139
1.04858
1.11413
1.09306
1.15653
1.13515
1.20232
1.17881
1.25337
1.2272
1.30915
1.28082
1.36782
1.33831
1.42717
1.39762
1.48516
1.4565
1.54019
1.51313
1.59168
1.56639
1.63969
1.61609
1.68497
1.66262
1.72826
1.70678
1.77047
1.74946
1.81144
1.79112
1.85061
1.83126
1.88709
1.86926
1.91955
1.90385
1.94852
1.93435
1.9751
1.96211
1.99974
1.9876
2.02416
2.01183
2.05013
2.03696
2.07859
2.06382
2.11635
2.09572
2.1698
2.14112
2.24062
2.20277
2.33262
2.28412
2.4405
2.38516
2.55919
2.4984
2.69222
2.62383
2.84231
2.76523
3.00289
2.92216
3.10081
3.09363
3.11062
3.10598
3.12298
0.49741
0.20459
0.360878
0.723618
0.616814
0.893336
0.819039
1.02593
0.964005
1.13087
1.0813
1.04251
1.06182
1.03975
1.03493
1.08098
1.056
1.14475
1.11118
1.21656
1.18048
1.28213
1.25108
1.32986
1.30828
1.36225
1.34772
1.37813
1.37249
1.3778
1.3793
1.37128
1.37478
1.36248
1.36706
1.35317
1.35766
1.34558
1.34924
1.33768
1.3419
1.32763
1.33295
1.31494
1.32164
1.299
1.30725
1.28003
1.28999
1.25883
1.26981
1.23632
1.24784
1.21208
1.22434
1.18597
1.19903
1.15862
1.17221
1.13099
1.1449
1.10188
1.11685
1.06868
1.08598
1.02706
1.04886
0.973105
1.00155
0.904744
0.940896
0.821196
0.864933
0.723457
0.773764
0.613828
0.669803
0.503035
0.558142
0.392818
0.448748
0.338066
0.2221
0.23185
0.170256
0.204495
0.000914843
0.113189
-0.430558
-0.14612
-1.38286
-0.853325
-2.6674
-2.01022
-3.68619
-3.26404
-3.67719
-3.83415
-2.59776
-3.23899
-1.05333
-1.84102
0.379206
-0.298758
1.40563
0.951751
1.95307
1.73642
2.08529
2.06392
1.95336
2.03787
1.72847
1.84611
1.46976
1.60238
1.23639
1.3446
1.05912
1.14183
0.910493
0.982553
0.846629
1.25811
0.0347666
-3.336
-2.04898
-3.45129
-5.80786
2.52384
3.19355
2.98095
3.08305
1.1751
-5.91075
0.290184
0.245522
0.749413
0.69717
0.305976
-0.803778
-1.68859
-1.58011
-8.33979
2.12687
-0.841209
-3.25274
-1.10129
0.796609
-9.85537
-2.20986
-1.84069
-0.134662
1.70424
3.24683
1.51939
0.570362
0.497361
1.17154
3.3967
3.48223
-2.82749
-5.09552
2.75251
0.844393
0.799283
0.924518
0.886041
0.992228
0.96017
1.0478
1.02115
1.09727
1.07294
1.1455
1.1214
1.19526
1.17007
1.24813
1.2213
1.30407
1.2758
1.36176
1.33281
1.41956
1.39076
1.476
1.44805
1.52986
1.50331
1.58053
1.55558
1.62804
1.60466
1.67272
1.65069
1.71527
1.6942
1.7564
1.736
1.79602
1.77641
1.83386
1.81515
1.86942
1.85199
1.90154
1.8859
1.93139
1.91664
1.95958
1.9457
1.98667
1.97312
2.01498
2.00052
2.04608
2.0302
2.08119
2.06283
2.12672
2.10229
2.18615
2.15471
2.26178
2.22168
2.35529
2.30662
2.46241
2.4073
2.58314
2.52102
2.71669
2.64867
2.85936
2.78665
3.00982
2.93424
3.16286
3.16017
3.08565
3.17788
3.16865
3.2023
3.18899
3.23718
3.21833
3.29512
3.26109
3.33685
0.730762
0.650255
0.874266