/*--------------------------------*- C++ -*----------------------------------*\
  =========                 |
  \\      /  F ield         | OpenFOAM: The Open Source CFD Toolbox
   \\    /   O peration     | Website:  https://openfoam.org
    \\  /    A nd           | Version:  10
     \\/     M anipulation  |
\*---------------------------------------------------------------------------*/
FoamFile
{
    format      ascii;
    class       surfaceScalarField;
    location    "22";
    object      phi;
}
// * * * * * * * * * * * * * * * * * * * * * * * * * * * * * * * * * * * * * //

dimensions      [0 3 -1 0 0 0 0];

internalField   nonuniform List<scalar> 
12623
(
0.397251
0.0908402
-0.151646
-0.336446
0.307922
-0.138738
0.228068
0.283365
0.00410737
-0.264258
-0.0232145
-0.0164139
0.281304
0.0184747
-0.262222
0.0338875
-0.027384
0.255719
-0.264329
-0.0143068
-0.0279687
0.198196
-0.218946
0.0487191
-0.267332
0.239364
-0.0439698
-0.0499917
0.0939615
-0.0862513
-0.0438865
0.086168
0.367313
-0.163214
-0.204099
-0.256925
0.207481
0.416757
-0.205268
-0.147697
0.150758
0.202206
0.0190116
0.0341553
-0.258435
-0.194464
0.0657786
-0.0435727
-0.0569692
-0.0052143
0.105756
-0.00402712
-0.00547139
-0.0340742
-0.0837643
0.022768
0.00560004
-0.0474712
-0.00852311
0.0503943
-0.110537
0.0413006
0.0748368
-0.11254
-0.0454683
0.0682752
0.123755
-0.147148
-0.044882
-0.0159332
0.087204
-0.00299561
-0.223882
0.331704
-0.274136
0.0257915
0.282499
0.0408046
-0.305576
-0.00936446
-0.311618
0.0240576
0.313352
-0.263504
-0.159029
0.157031
0.265502
-0.256684
0.157702
-0.164522
-0.275538
0.264149
0.155236
-0.143847
-0.264764
-0.169803
-0.298488
0.0644939
-0.0563754
0.290369
-0.0396463
-0.289384
0.030543
0.275545
-0.334155
0.0772001
-0.0808849
0.33784
-0.0709518
-0.317453
0.05425
-0.317737
-0.0667575
0.313543
-0.303083
0.0498401
0.352102
-0.0871093
-0.359391
0.0943981
-0.0750927
0.104551
0.322644
-0.348395
-0.0914978
0.352784
-0.334252
0.0630573
-0.138998
0.147104
0.256042
-0.252204
-0.0167627
0.0301322
0.238835
0.0488039
-0.258414
-0.0425939
0.0094581
-0.26968
-0.251231
-0.00113217
0.238057
-0.258536
-0.000665408
-0.323449
-0.0232499
0.347365
0.251532
0.0632068
-0.315404
-0.233515
0.0566598
0.428387
-0.121318
0.37599
-0.298708
0.0440355
-0.291626
0.292883
0.0567733
-0.0622118
-0.287445
0.0578098
0.269002
-0.0339279
-0.0288586
0.017888
0.31392
-0.30295
-0.325043
0.322139
-0.0259543
0.302971
-0.0416115
0.0488108
-0.310171
0.177142
-0.172017
-0.011386
0.00626004
0.0460485
0.190118
-0.0590239
-0.17172
-0.0684887
0.0681922
-0.179594
-0.1167
0.124575
-0.187598
-0.157039
0.165043
-0.201827
-0.187008
0.201236
-0.208561
-0.207787
0.214521
-0.219893
-0.218289
0.22962
-0.22066
-0.224077
0.224845
-0.223489
-0.21877
0.2216
0.194612
-0.181401
0.0328376
0.0953213
0.209341
-0.114545
0.212525
0.0774087
-0.176986
-0.015801
-0.180118
-0.0653575
-0.185173
-0.111646
-0.197292
-0.14492
-0.207131
-0.177168
-0.221335
-0.193583
-0.227975
-0.211649
-0.236189
-0.215863
-0.235493
-0.224185
-0.127256
0.228919
0.110861
0.227055
-0.14497
-0.214328
-0.216157
0.211715
-0.241898
-0.207923
-0.147917
0.243544
0.133293
0.248457
-0.169319
-0.185504
-0.215049
0.184396
-0.240478
-0.186924
-0.15802
0.25733
0.144234
-0.166247
-0.135704
-0.213664
0.134319
-0.244849
-0.131333
0.266288
0.148744
0.157694
0.265624
-0.0669584
0.0673434
-0.214049
-0.0574572
-0.25435
0.246984
-0.244675
0.141926
-0.23669
0.245769
0.148615
0.159038
0.232994
-0.216322
0.0941895
0.121612
0.200903
-0.191009
0.0229436
0.0619892
0.189378
-0.191729
-0.0630068
-0.0174314
0.202513
-0.211538
-0.135895
-0.100861
0.227482
-0.238655
-0.18241
-0.161224
0.255673
-0.263084
-0.208452
-0.194632
0.273449
-0.275391
-0.20598
-0.21382
0.283039
-0.285503
-0.128869
-0.179277
-0.293615
-0.0493447
-0.199276
0.210928
0.172743
0.196996
0.0666879
-0.19634
0.132039
-0.21452
0.221147
0.214973
0.208123
-0.215001
0.215902
0.22872
0.23099
-0.202644
0.197863
0.206016
0.22778
-0.183981
0.180496
0.12806
0.178925
-0.182382
0.18643
0.00221179
0.0663058
-0.202544
0.207146
-0.119147
-0.0751372
-0.229588
0.238031
-0.177762
-0.167411
-0.260528
-0.168758
-0.188744
-0.158145
0.158552
0.265217
0.262594
0.169824
0.234497
-0.0284558
-0.303593
0.0384333
-0.0235396
-0.259267
-0.191464
0.196523
0.0616295
-0.00816665
0.0149143
-0.203088
-0.195218
-0.00441349
0.119748
-0.114642
-0.308698
-0.349706
0.339353
0.0487868
0.128032
-0.35799
0.266448
-0.261875
-0.14842
0.251704
-0.258241
0.155151
0.255598
0.165931
0.254829
-0.127379
-0.222674
0.24671
-0.238322
0.133537
0.147507
0.228113
-0.217024
0.0831003
0.111403
0.209371
-0.201827
0.0153999
0.0543358
0.200853
-0.206178
-0.0576822
-0.0184052
0.215141
-0.227863
-0.123173
-0.0918977
0.242619
-0.258992
-0.166038
-0.146467
0.273861
-0.288882
-0.193431
-0.179763
0.301434
-0.311426
-0.195988
-0.201267
0.320222
-0.330607
-0.118484
-0.170482
-0.0405991
-0.209636
0.220243
0.162136
0.118926
-0.234413
0.237502
0.211884
0.193952
-0.242051
0.233008
0.237762
0.226442
-0.234908
0.216455
0.224469
0.22588
-0.21381
0.20155
0.14032
0.18157
-0.199672
0.205413
-0.00352912
0.0681846
-0.202902
0.220598
-0.136843
-0.0726262
-0.223865
0.234203
-0.188099
-0.170679
-0.240396
0.265876
-0.194238
-0.194937
-0.165802
-0.155087
0.187812
0.232492
0.254611
-0.177946
0.259814
0.17373
0.244363
0.0865155
-0.0760309
-0.205702
0.0977785
-0.214351
-0.108777
-0.265132
-0.393133
0.379636
0.0622832
-0.393723
0.128622
-0.184675
0.184322
-0.357637
-0.178823
-0.31455
-0.204301
0.196008
-0.0677377
-0.135454
0.148425
-0.218673
-0.220972
-0.118783
-0.114722
0.14211
0.228654
0.239987
-0.0998805
0.146387
-0.156854
0.270281
0.283706
-0.274312
0.164336
0.297298
0.132795
-0.267351
-0.116768
0.25674
-0.254388
-0.161384
-0.233673
0.263277
-0.258466
0.150341
0.154896
0.253445
-0.245383
0.125475
0.142485
0.238325
-0.230091
0.074866
0.104345
0.220064
-0.217773
0.013109
0.0443095
0.216777
-0.220156
-0.0543026
-0.0194019
0.230031
-0.24103
-0.112174
-0.0820227
0.258424
-0.272901
-0.151561
-0.129074
0.292294
-0.307548
-0.178177
-0.160369
0.329068
-0.34216
-0.182896
-0.179748
0.358528
-0.368893
-0.108118
-0.154114
-0.0298558
-0.19819
0.204639
0.0551808
-0.00659596
-0.216899
0.230811
0.148225
0.106666
-0.247562
0.2497
0.209745
0.177201
-0.260968
0.25939
0.23934
0.215174
-0.256887
0.250976
0.23038
0.228383
-0.244695
0.238093
0.146923
0.187851
-0.233493
0.231809
-0.00184463
0.0727839
-0.233399
0.237774
-0.141219
-0.074216
-0.238072
0.249752
-0.199779
-0.170977
-0.247615
0.243941
-0.190564
-0.1928
-0.176249
-0.16043
0.163019
0.229904
0.236291
0.250527
-0.393727
0.184326
0.163223
-0.229149
-0.171777
-0.272178
0.174081
-0.157419
-0.237634
0.190937
-0.23553
-0.219091
0.211011
-0.349557
-0.217591
-0.316049
0.127286
-0.13515
0.278145
0.110083
0.314501
-0.102903
0.130046
0.201512
-0.0821367
0.219221
0.242128
-0.252741
-0.150771
-0.125315
0.250675
0.310931
-0.293235
0.14664
0.326297
0.117429
-0.390557
0.207841
-0.222738
0.2042
-0.372018
-0.232365
-0.33993
0.244915
-0.0880549
-0.242227
0.283853
-0.281794
0.148282
0.145513
0.271717
-0.263446
0.117205
0.132408
0.248807
-0.241052
0.0671111
0.0897056
0.234707
-0.230799
0.00920129
0.0379644
0.230768
-0.235151
-0.0499201
-0.0194325
0.244267
-0.257714
-0.0987278
-0.0729061
0.273732
-0.292077
-0.133215
-0.113056
0.310815
-0.330165
-0.158827
-0.141632
0.349252
-0.369235
-0.162912
-0.160661
0.387214
-0.401128
-0.0942046
-0.136135
0.409891
-0.408363
0.0607548
-0.0210927
0.412107
-0.411181
0.183399
0.132366
0.39882
-0.382521
0.187901
0.19548
-0.212952
0.205412
-0.0601981
0.224499
-0.243371
-0.138547
-0.107236
-0.20697
0.216846
0.0453042
-0.0081533
-0.231384
0.241807
0.137802
0.0921282
-0.25737
0.269538
0.197577
0.161637
-0.27825
0.284028
0.233562
0.206463
-0.286501
0.286792
0.230089
0.22591
-0.285114
0.281957
0.15008
0.189529
-0.278638
0.276184
0.000609141
0.0761034
-0.274681
0.272616
-0.139154
-0.0727123
-0.272853
0.265736
-0.192662
-0.171214
-0.263531
0.255589
-0.182622
-0.190596
-0.1734
-0.147831
0.144539
0.233195
0.218506
0.259917
-0.17791
0.196504
-0.256228
-0.266355
-0.154926
0.197388
-0.210579
-0.358827
-0.356735
0.171601
0.203807
-0.242019
-0.21444
-0.275329
0.103442
0.332938
-0.0601681
0.222946
0.259186
-0.262886
-0.14707
0.252846
-0.118975
0.212704
-0.25173
-0.236459
-0.311955
0.180605
-0.159991
-0.286969
0.201906
-0.277529
-0.226745
-0.323764
0.16758
-0.19741
-0.328997
0.148654
-0.337809
0.251071
-0.0884507
-0.252859
0.344987
-0.326729
0.128382
-0.346705
0.361537
0.08861
0.115711
0.32103
-0.304632
0.131884
0.139814
0.291247
-0.277324
0.103281
0.119023
0.265598
-0.255452
0.0569653
0.0779798
0.247878
-0.244059
0.00538278
0.0303901
0.244141
-0.249493
-0.044569
-0.0193501
0.258584
-0.272387
-0.0849241
-0.0638151
0.28837
-0.307428
-0.114157
-0.0970731
0.326339
-0.347077
-0.138089
-0.122721
0.368079
-0.390315
-0.140677
-0.139658
0.409797
-0.424392
-0.0796098
-0.116653
0.42912
-0.426813
0.0584477
-0.0163642
0.415363
-0.401475
0.169512
0.120916
0.385446
-0.368961
0.171416
0.179451
0.349871
-0.328278
0.127062
0.152512
-0.253122
0.235396
-0.120821
0.275605
-0.29659
-0.139006
-0.132443
-0.222437
0.218852
-0.0566132
-0.0942773
-0.22095
0.22804
0.0382137
-0.0102511
-0.24185
0.257755
0.121897
0.0783181
-0.272989
0.28812
0.182447
0.146403
-0.30083
0.31215
0.222243
0.193753
-0.320602
0.326875
0.223816
0.217458
-0.330051
0.330424
0.149707
0.186353
-0.328494
0.324244
0.00485882
0.0780335
-0.319497
0.312769
-0.132427
-0.0679649
-0.302504
0.296474
-0.186632
-0.160948
-0.28518
0.274316
-0.171757
-0.179302
-0.161971
-0.165321
0.184381
-0.306029
-0.313146
-0.148765
0.126854
-0.157023
-0.30764
-0.307474
0.10605
0.239706
-0.0940194
-0.0535557
0.0696459
0.206856
0.216283
-0.0971869
0.0988998
0.199799
0.19168
-0.108157
0.1108
0.230552
0.209249
-0.107617
0.0979924
0.287769
0.2631
-0.0870301
0.0773373
0.342631
0.325463
0.0697713
0.369103
0.224165
-0.25348
-0.232529
-0.279259
0.214453
-0.264277
-0.233387
-0.305314
0.19835
-0.291497
-0.2099
-0.311273
0.175973
-0.158116
-0.331003
0.19053
-0.320586
-0.179925
-0.306095
-0.110034
0.0916027
-0.289043
-0.139588
-0.278087
0.377502
-0.369347
0.0804551
0.387325
0.0599485
-0.261224
0.358378
-0.348004
0.118008
0.104742
0.334954
-0.32274
0.119671
0.126764
0.305785
-0.289848
0.0873444
0.102068
0.276915
-0.266369
0.0464195
0.0650467
0.259018
-0.256226
0.00259071
0.0230386
0.25671
-0.262453
-0.0388261
-0.0188654
0.270829
-0.284014
-0.0717392
-0.0554392
0.298237
-0.315377
-0.0970174
-0.08285
0.332769
-0.354027
-0.116831
-0.105329
0.376606
-0.400705
-0.116577
-0.11708
0.421752
-0.438113
-0.0632489
-0.095606
0.445687
-0.440596
0.0533566
-0.00879049
0.426381
-0.403636
0.146767
0.106701
0.378715
-0.358767
0.151468
0.15453
0.340221
-0.324966
0.111807
0.133965
0.308578
-0.293227
0.0762522
0.0896611
-0.300582
0.283476
-0.121899
0.317076
-0.335076
-0.140117
-0.132271
-0.262938
0.244926
-0.102809
-0.111905
-0.232202
0.22892
-0.0533309
-0.0815534
-0.232123
0.242607
0.0277296
-0.0134538
-0.25621
0.272566
0.105541
0.0647154
-0.288773
0.305864
0.165355
0.130196
-0.321802
0.33796
0.206085
0.177814
-0.352023
0.36483
0.211009
0.203395
-0.373582
0.378359
0.14493
0.177601
-0.378119
0.372996
0.00998249
0.0782729
-0.365154
0.352954
-0.120226
-0.0601233
-0.339376
0.32394
-0.171197
-0.14737
-0.305588
0.293026
-0.159196
-0.16095
-0.277862
0.261774
-0.130983
-0.146806
-0.25832
0.25297
-0.0886684
-0.115521
-0.0481603
-0.0306606
0.0448337
0.192683
0.0127366
0.224966
0.198359
-0.0499749
0.0557685
0.194006
0.186538
-0.0611117
0.059621
0.232043
0.203906
-0.0624592
0.0512717
0.298957
0.260261
-0.0496548
0.0373532
0.354932
0.32708
-0.167786
0.187312
-0.350529
-0.356046
-0.146816
0.0835969
-0.103381
-0.269259
-0.274738
0.0651074
-0.0352533
0.03385
0.388728
0.371203
0.226371
-0.265398
-0.231899
-0.280747
0.211747
-0.277674
-0.222241
-0.292973
0.204118
-0.305085
-0.201047
-0.290152
0.205234
-0.338508
-0.17082
-0.274862
0.176549
-0.15303
-0.379565
0.200927
-0.374907
-0.128894
-0.252574
-0.0682652
-0.255459
0.0489868
-0.0924857
-0.245038
-0.378243
0.353616
-0.128403
-0.157913
0.186705
-0.408357
-0.403982
-0.132175
0.0340797
-0.0521541
-0.237385
-0.250179
0.262439
0.0367275
-0.239936
0.0238369
0.405698
-0.398277
0.0264282
-0.0019467
-0.00290667
0.393581
0.38677
0.0169814
-0.266752
0.391702
-0.389574
0.0783267
0.0533739
0.380326
-0.367586
0.105268
0.0954946
0.349352
-0.329133
0.0994522
0.108529
0.312928
-0.296809
0.0712254
0.0858624
0.284736
-0.274966
0.0366495
0.0529741
0.268702
-0.266584
0.000473157
0.0167743
0.266846
-0.272391
-0.0332818
-0.0186032
0.279389
-0.290855
-0.0602731
-0.0484414
0.301981
-0.316945
-0.0820537
-0.0717238
0.333613
-0.355511
-0.0949328
-0.0886611
0.378411
-0.401844
-0.0931451
-0.0941792
0.421304
-0.43568
-0.0488728
-0.0761455
0.442101
-0.43858
0.0498359
-0.00236981
0.426703
-0.406656
0.126719
0.0948242
0.383002
-0.357403
0.125869
0.130876
0.330578
-0.306905
0.0881351
0.10714
0.290183
-0.275731
0.0618007
0.0729387
0.0518145
-0.332464
0.315476
-0.123128
-0.125664
-0.297791
0.284415
-0.108522
-0.114587
-0.26571
0.2519
-0.089
-0.0932003
-0.2411
0.238282
-0.0505136
-0.0707529
-0.242168
0.252347
0.0175508
-0.0173391
-0.266493
0.284271
0.0877638
0.0505687
-0.302318
0.321951
0.145722
0.112148
-0.340712
0.360799
0.185998
0.159054
-0.379068
0.396756
0.193321
0.185125
-0.409864
0.418573
0.136221
0.164493
-0.42085
0.416006
0.0148264
0.0759957
-0.405288
0.388797
-0.103735
-0.0494051
-0.370609
0.3502
-0.150788
-0.129182
-0.331633
0.314333
-0.141896
-0.142383
-0.292412
0.277259
-0.11583
-0.124885
-0.263836
0.257619
-0.0824518
-0.102098
-0.0602211
0.0196169
-0.0053063
0.210655
0.23029
0.00417684
-0.00297931
0.191485
0.197229
0.000271588
0.00297474
0.190759
0.183831
-0.00614789
0.0102874
0.227903
0.200733
-0.0139841
0.0190948
0.293846
0.256565
-0.0182205
0.0103605
0.362792
0.327954
0.378657
0.220728
-0.274379
-0.223371
-0.279617
0.21447
-0.288026
-0.214274
-0.279746
0.218219
-0.31807
-0.194399
-0.266574
0.221122
-0.358703
-0.162951
-0.240805
0.214224
-0.402426
-0.11507
-0.229989
0.159618
-0.1237
-0.439901
0.192125
-0.440863
-0.0719667
-0.225226
-0.00922612
-0.23696
0.00625015
-0.0185313
-0.22808
-0.428168
0.400572
-0.0961043
-0.11462
0.147967
-0.473248
-0.457021
-0.0857669
-0.0137777
0.0156836
-0.238866
-0.259695
0.263556
0.00238924
-0.256831
-0.0166413
-0.0486875
0.0431023
0.399167
-0.0502768
0.38836
0.406672
-0.407113
0.0268692
0.410982
0.0126717
-0.269395
0.402781
-0.396735
0.0722806
0.0490415
0.385901
-0.370859
0.0902263
0.0846612
0.351015
-0.333049
0.0814856
0.0886853
0.316477
-0.302232
0.0569803
0.0692907
0.290721
-0.282097
0.0280254
0.0414632
0.276536
-0.274675
-0.0013882
0.0112138
0.275777
-0.281088
-0.027971
-0.0175007
0.287961
-0.297181
-0.0510537
-0.0415683
0.307417
-0.320564
-0.0689063
-0.061488
0.336685
-0.355581
-0.0760369
-0.0725396
0.376114
-0.39725
-0.0720097
-0.0736463
0.415899
-0.427807
-0.0369653
-0.0574959
0.429488
-0.420892
0.0412407
-0.000689107
0.406233
-0.386619
0.107106
0.0801648
0.3649
-0.340039
0.101008
0.109157
0.315431
-0.296374
0.0690779
0.0825315
0.280885
-0.269255
0.0501711
0.0574502
0.263224
-0.264692
0.0381957
0.0457827
0.022701
-0.372967
0.350535
-0.105971
-0.104569
-0.328618
0.31051
-0.10502
-0.103746
-0.29376
0.281906
-0.0966683
-0.097837
-0.27043
0.257871
-0.076441
-0.0817248
-0.248607
0.245718
-0.047625
-0.0614888
-0.249965
0.260041
0.00747506
-0.0215859
-0.273626
0.291197
0.0701923
0.0369838
-0.310015
0.331683
0.124054
0.0933308
-0.353156
0.376375
0.162779
0.137581
-0.39823
0.41938
0.172171
0.16327
-0.436157
0.447597
0.12478
0.147717
-0.451357
0.446638
0.0195451
0.0722364
-0.434286
0.415183
-0.084632
-0.0370537
-0.393333
0.369321
-0.126776
-0.107332
-0.347732
0.327363
-0.121527
-0.120794
-0.309407
0.291472
-0.0978952
-0.106929
-0.277871
0.269339
-0.0739205
-0.0884959
-0.0551397
0.0515765
-0.0435942
0.247736
0.270747
0.0424484
-0.0460558
0.214263
0.229144
0.0480735
-0.0488012
0.192213
0.199247
0.048628
-0.0478831
0.190014
0.183658
0.0466201
-0.0443266
0.22561
0.19947
0.0409042
-0.039113
0.292055
0.253142
0.0403329
-0.0407061
0.363165
0.329174
0.381053
0.219479
-0.279388
-0.219085
-0.274805
0.226408
-0.296215
-0.212394
-0.261751
0.234785
-0.331733
-0.187809
-0.241716
0.234767
-0.379246
-0.14423
-0.211645
0.219995
-0.430295
-0.0885662
-0.213389
0.179373
-0.47227
-0.039221
-0.204536
0.0906732
-0.066223
-0.481471
0.114669
-0.497243
0.0209403
-0.233336
0.0356651
-0.033924
-0.258573
0.0401152
-0.243316
0.0497284
0.310977
-0.269002
0.398576
-0.405223
0.0335157
-0.371831
0.278709
0.142851
0.0394166
0.407264
-0.396006
0.0610232
0.0510825
0.383926
-0.367256
0.0735563
0.0725813
0.350636
-0.333079
0.0639289
0.0720649
0.316965
-0.303993
0.0440078
0.0531764
0.293337
-0.285606
0.0202948
0.0308072
0.281864
-0.280759
-0.00249301
0.00747167
0.283961
-0.288273
-0.0236592
-0.0142987
0.29566
-0.303318
-0.0433952
-0.0341817
0.314593
-0.327232
-0.0562679
-0.050213
0.342537
-0.358383
-0.0601912
-0.0572341
0.37523
-0.392488
-0.0547514
-0.0567991
0.407342
-0.41658
-0.027727
-0.0426426
0.415905
-0.404828
0.0301642
-0.00136406
0.385974
-0.363789
0.0849207
0.0613104
0.343214
-0.324939
0.0827322
0.0885825
0.310139
-0.298079
0.0570176
0.0677319
0.289807
-0.282925
0.04329
0.0491777
0.276299
-0.270658
0.0325553
0.0391558
0.26803
-0.268475
0.00283483
0.0200726
0.269665
-0.274416
-0.0291733
-0.0154516
-0.414456
0.395008
-0.0766558
0.428923
-0.452839
-0.0423062
-0.0713005
-0.374945
0.357019
-0.088045
-0.0845066
-0.339842
0.323667
-0.0888454
-0.0865689
-0.307459
0.293095
-0.0823043
-0.0816298
-0.281551
0.269343
-0.0642329
-0.0701806
-0.258651
0.252569
-0.0415438
-0.0507962
-0.25424
0.263494
-0.00177855
-0.0232565
-0.277144
0.294854
0.0524825
0.023333
-0.313905
0.335665
0.102293
0.0742802
-0.357944
0.382257
0.138467
0.115302
-0.40606
0.429208
0.149022
0.139467
-0.447786
0.460744
0.111823
0.129139
-0.465728
0.46224
0.0230332
0.0672524
-0.449809
0.429471
-0.0642934
-0.024623
-0.405761
0.380257
-0.101272
-0.0836229
-0.357578
0.33753
-0.101479
-0.0981149
-0.319208
0.303701
-0.0823885
-0.0886068
-0.28867
0.280132
-0.0653822
-0.0734649
-0.272096
0.275999
-0.0271174
-0.0471037
0.00508957
0.0667955
-0.0711543
0.252095
-0.0660641
0.289676
0.271478
0.0764113
-0.0836737
0.221525
0.234401
0.0872147
-0.0899322
0.194931
0.202788
0.0922555
-0.0938813
0.19164
0.185981
0.094545
-0.0929165
0.223981
0.200133
0.0886764
-0.0847631
0.288142
0.248902
0.075403
-0.0672917
0.355054
0.319814
0.0725361
-0.0745587
0.401189
0.386298
0.11247
0.477215
0.426271
-0.0309714
0.0436288
-0.494128
-0.461497
-0.0223139
-0.0430339
0.05348
-0.269019
-0.280887
-0.0365627
0.227299
-0.280278
-0.222807
-0.264391
-0.29473
0.0221901
0.240716
-0.302146
-0.210641
-0.238919
0.464042
-0.380888
0.0596971
-0.0288563
0.0788583
0.427213
0.0103881
0.424797
0.246039
-0.343005
-0.171436
-0.214511
0.236969
-0.39622
-0.111579
-0.188632
0.199964
-0.450886
-0.0501093
-0.202501
0.132892
-0.490492
0.00891656
-0.192512
0.050648
-0.504263
0.0608259
-0.254047
-0.0103404
0.00703415
-0.458191
-0.022724
-0.481745
0.0597142
-0.249551
-0.0515328
0.06708
-0.284566
-0.0448983
-0.287521
-0.26451
0.399775
-0.405475
0.0392157
0.0583039
0.39854
-0.391578
0.0540607
0.0441476
0.376623
-0.361606
0.0585386
0.0576268
0.342972
-0.328423
0.0493797
0.0534311
0.314976
-0.304152
0.033184
0.0397293
0.296362
-0.291809
0.0157415
0.0230178
0.290941
-0.291922
-0.00151152
0.00660336
0.296052
-0.300665
-0.0190458
-0.0101694
0.307883
-0.315917
-0.0353613
-0.0269637
0.326148
-0.336614
-0.0458019
-0.039982
0.347074
-0.357789
-0.0494764
-0.0467741
0.368852
-0.381431
-0.0421724
-0.0457355
0.392773
-0.401682
-0.0188184
-0.0313009
0.403125
-0.395232
0.0222707
7.98328e-05
0.378506
-0.357205
0.0636202
0.0445844
0.337799
-0.32301
0.067943
0.0691764
0.313017
-0.306022
0.0500225
0.0577391
0.298966
-0.293692
0.0380166
0.0421213
0.286163
-0.27825
0.024642
0.0316264
0.272179
-0.269629
0.000284731
0.0140017
0.272483
-0.279226
-0.0224299
-0.0125978
0.28474
-0.29306
-0.036579
-0.0310484
-0.419487
0.4123
-0.0351194
0.429057
-0.429887
0.00786426
-0.0127442
-0.391826
0.378341
-0.0631709
-0.0508258
-0.362875
0.35213
-0.0773002
-0.0690408
-0.341721
0.331405
-0.0785298
-0.0761597
-0.320077
0.307288
-0.0695146
-0.0703017
-0.296053
0.28511
-0.0532903
-0.0589453
-0.274671
0.265419
-0.0322912
-0.0403577
-0.261868
0.266035
-0.00594551
-0.0197057
-0.276912
0.293695
0.0356997
0.0124563
-0.313113
0.335241
0.0801657
0.0548619
-0.357835
0.382135
0.114167
0.0927076
-0.405641
0.428574
0.126089
0.11596
-0.447073
0.461438
0.0974575
0.11064
-0.467934
0.465779
0.0251881
0.0607564
-0.453397
0.433041
-0.0439371
-0.0122404
-0.409659
0.385132
-0.0767448
-0.0602409
-0.363273
0.344071
-0.0822768
-0.0762562
-0.327228
0.315253
-0.0704135
-0.0717638
-0.29868
0.287544
-0.0542463
-0.0568923
-0.279909
0.282503
-0.029712
-0.0394682
-0.00713732
0.0828098
-0.0857136
0.292579
0.315468
0.0902963
-0.101318
0.263117
0.276061
0.108504
-0.11447
0.227491
0.241587
0.119188
-0.123327
0.19907
0.207506
0.126736
-0.129017
0.193922
0.189389
0.130058
-0.128807
0.22273
0.201174
0.124729
-0.117429
0.280842
0.244825
0.107099
-0.0954988
0.343453
0.309484
0.0811828
-0.0741547
0.394161
0.371982
0.430974
0.0448918
-0.0626361
-0.440446
-0.41624
0.0312448
-0.0500955
0.0566469
-0.294073
-0.303173
-0.0399823
0.236987
-0.276549
-0.227321
-0.247712
0.426525
-0.405497
0.0386692
0.406985
0.0299282
0.246763
-0.30287
-0.197235
-0.213119
0.241138
-0.347174
-0.137104
-0.188986
0.207976
-0.404232
-0.0627421
-0.175999
0.137417
-0.455412
0.000356924
-0.193942
0.0424568
-0.482301
0.0629617
-0.194648
-0.0464156
-0.480571
0.0872125
-0.281545
-0.094046
-0.450335
0.0754337
-0.257904
-0.0692397
0.0465578
-0.393558
-0.099392
-0.410294
0.0738542
-0.301773
-0.37689
0.387993
0.0354549
-0.0624901
-0.355905
0.0415046
-0.0815998
-0.374449
-0.0875708
0.333913
-0.0496373
0.0619654
-0.306401
-0.0441699
-0.30864
-0.254844
0.395609
-0.395455
0.0390612
0.0484163
0.391046
-0.37912
0.0421348
0.0397392
0.365398
-0.35047
0.0436105
0.0439047
0.336926
-0.323995
0.0364495
0.0398865
0.313843
-0.306093
0.0254336
0.0295773
0.300971
-0.298321
0.0130922
0.0178954
0.297286
-0.297716
-0.00108078
0.00556773
0.299079
-0.301288
-0.0168359
-0.00880725
0.305082
-0.310273
-0.0301696
-0.0231706
0.317057
-0.32533
-0.0375291
-0.0331979
0.334818
-0.34615
-0.038144
-0.0372865
0.357879
-0.370034
-0.0300165
-0.0340071
0.380021
-0.387394
-0.0114453
-0.0213142
0.389199
-0.384678
0.0177496
0.00188511
0.373203
-0.356836
0.0472529
0.0331088
0.34035
-0.326714
0.0543068
0.0526907
0.317205
-0.310338
0.0431556
0.0482302
0.304364
-0.297916
0.0315694
0.0361471
0.291288
-0.284978
0.0183322
0.024998
0.279964
-0.278273
-0.00140615
0.00898762
0.279164
-0.281262
-0.0203319
-0.0117072
0.285264
-0.29272
-0.0291227
-0.0270467
0.300467
-0.308067
-0.0365696
-0.0322353
-0.397611
0.400646
0.00482888
0.021627
-0.401638
0.395156
-0.0286378
-0.0137357
-0.384384
0.372138
-0.0509245
-0.0400534
-0.358879
0.344176
-0.0625974
-0.0557819
-0.329005
0.315744
-0.0652691
-0.0609885
-0.305187
0.295929
-0.0602573
-0.0597445
-0.288764
0.283172
-0.0476979
-0.0517804
-0.278644
0.273811
-0.0274586
-0.0358298
-0.270304
0.27023
-0.00587187
-0.0161982
-0.276356
0.288961
0.0230946
0.00633031
-0.306592
0.328089
0.0586679
0.0372317
-0.350993
0.37549
0.0896699
0.0698041
-0.398696
0.421401
0.103384
0.0927537
-0.439783
0.453864
0.0833764
0.0922582
-0.459305
0.455806
0.0286868
0.0553155
-0.443224
0.424665
-0.0253785
0.000341698
-0.404141
0.383247
-0.0558512
-0.0397166
-0.363804
0.346423
-0.0648966
-0.0568123
-0.331996
0.31986
-0.058277
-0.0573368
-0.30895
0.298986
-0.0442823
-0.0459829
-0.291512
0.288829
-0.0270286
-0.0319938
-0.288384
0.303164
0.0074099
-0.00669237
0.0355511
0.0926758
-0.103108
0.303011
0.320573
0.115304
-0.126037
0.27385
0.288257
0.134569
-0.140929
0.233851
0.250119
0.145968
-0.14993
0.203032
0.212545
0.152958
-0.154765
0.195729
0.192417
0.154761
-0.152411
0.220379
0.201171
0.14713
-0.138211
0.271923
0.239544
0.125701
-0.113571
0.331324
0.296974
0.0923627
-0.077376
0.379174
0.350773
0.0353233
-0.0228735
0.414764
0.388922
0.0271277
-0.06236
0.442217
0.429052
0.236658
-0.266444
-0.220082
-0.224865
0.0448856
-0.0393458
-0.313607
0.0510377
-0.314792
0.388622
-0.425458
-0.0255242
-0.0919084
0.28367
0.250455
0.338161
-0.0414466
-0.303327
0.29488
-0.0281222
-0.306154
-0.0365189
0.23316
-0.294892
-0.16331
-0.186914
0.202096
-0.341294
-0.0820255
-0.169703
0.130407
-0.397222
-0.00256041
-0.173082
0.025596
-0.438551
0.0590091
-0.189989
-0.0809373
-0.447779
0.105134
-0.212569
-0.139488
-0.435129
0.0947091
-0.300821
-0.13959
-0.410137
0.0893446
-0.273395
0.0418169
-0.341499
-0.0562221
-0.338719
0.348185
0.0323504
-0.0398963
-0.329578
0.0307557
-0.330816
-0.0505802
-0.110646
-0.381248
0.0775698
-0.317378
-0.354364
-0.0763071
0.0376309
-0.0783153
0.324355
-0.319458
0.0394553
-0.0583886
0.346474
-0.238269
0.402837
-0.395382
0.0312143
0.0073073
0.385034
-0.376516
0.030543
0.0380681
0.370825
-0.362257
0.0335667
0.0340481
0.352095
-0.341171
0.0326871
0.0337428
0.331439
-0.322278
0.0272879
0.0301543
0.315766
-0.310268
0.0199356
0.0230661
0.307107
-0.30466
0.0106456
0.0147337
0.303681
-0.303319
-0.0014428
0.00458877
0.304443
-0.307083
-0.0141957
-0.00768327
0.311236
-0.317053
-0.0243526
-0.0190174
0.323557
-0.331307
-0.0297793
-0.0266945
0.339063
-0.347524
-0.0296831
-0.0295302
0.355099
-0.362329
-0.0227857
-0.0264324
0.367899
-0.372049
-0.00729549
-0.0157445
0.373376
-0.370805
0.0151784
0.00321233
0.363506
-0.352194
0.0359413
0.0258099
0.339697
-0.327931
0.0425406
0.0401934
0.318678
-0.311287
0.0357643
0.038977
0.305162
-0.299369
0.0257772
0.030022
0.294043
-0.289432
0.0137206
0.019672
0.286478
-0.285545
-0.00233945
0.00603428
0.286835
-0.288496
-0.0186709
-0.0104169
0.290817
-0.29245
-0.02749
-0.0247257
-0.0298058
-0.361567
0.373603
0.0234184
0.0281227
-0.383031
0.38656
0.00129976
0.0121995
-0.383997
0.378544
-0.0231848
-0.0111727
-0.370407
0.361902
-0.0424194
-0.031917
-0.353726
0.345001
-0.0538719
-0.0476058
-0.336164
0.326427
-0.0555324
-0.0521519
-0.317063
0.307459
-0.050653
-0.0503801
-0.299014
0.291618
-0.040302
-0.0433358
-0.286586
0.282774
-0.0236474
-0.0307972
-0.280291
0.27903
-0.00461134
-0.0137143
-0.281257
0.288169
0.0161833
0.00410299
-0.300412
0.317824
0.0412552
0.0249888
-0.337976
0.360806
0.0668398
0.0496519
-0.382554
0.403655
0.0822839
0.0710057
-0.420093
0.431843
0.0716261
0.0758207
-0.435683
0.432003
0.0323669
0.0514751
-0.422672
0.408761
-0.0114685
0.00967327
-0.393527
0.377371
-0.0396953
-0.0244822
-0.36161
0.346628
-0.0499145
-0.0410509
-0.333513
0.322678
-0.0474419
-0.0442226
-0.313932
0.305356
-0.0357061
-0.0372365
-0.298425
0.291513
-0.020117
-0.0250633
-0.294052
0.299818
0.00164416
-0.00923137
0.0159117
0.0885791
-0.0993829
0.344716
0.36627
0.110342
-0.125307
0.317977
0.331532
0.13806
-0.148072
0.283862
0.301009
0.155413
-0.160505
0.238943
0.25746
0.164269
-0.166771
0.205533
0.21631
0.168375
-0.168662
0.196017
0.194021
0.16707
-0.1634
0.216709
0.199578
0.157265
-0.148113
0.262771
0.23341
0.135974
-0.120456
0.315806
0.284835
0.102424
-0.0797511
0.356502
0.33274
0.0530296
-0.0125711
0.374305
0.3622
0.338165
0.0626324
-0.317996
0.313259
-0.0334868
-0.0343662
0.0406758
-0.319917
-0.31689
-0.0236294
0.214769
-0.248054
-0.190756
-0.197418
0.185165
-0.277961
-0.10492
-0.164019
0.113784
-0.324671
-0.0103331
-0.16193
0.0492722
-0.323389
0.00279692
-0.374423
0.0629218
-0.176995
-0.11612
-0.403368
0.113654
-0.198509
-0.189799
-0.397468
0.125294
-0.243154
0.0271882
-0.322
-0.0347663
-0.322649
0.326592
0.0232455
-0.0215961
-0.319948
0.0188951
-0.318409
-0.0251866
-0.191723
-0.382996
0.100495
-0.311971
-0.32367
-0.0419122
-0.147501
-0.373282
0.103012
-0.298837
-0.337525
-0.0674188
-0.102135
-0.35542
0.0796064
-0.334352
0.0299865
-0.0468607
0.330133
0.238178
-0.373109
0.239482
0.0979993
-0.111961
0.336605
-0.0305336
0.036329
-0.325712
-0.325786
-0.0216379
-0.00667403
0.342852
-0.214255
0.364274
-0.390445
0.000646794
-0.339244
-0.0287934
0.33455
-0.0164166
0.386672
-0.375749
0.020291
0.00353515
0.366284
-0.360624
0.0248831
0.0286025
0.35314
-0.347397
0.0278244
0.0265641
0.340859
-0.333981
0.0258098
0.0272041
0.327697
-0.321837
0.0214277
0.02387
0.317379
-0.313304
0.0158609
0.0186085
0.310495
-0.308154
0.00830394
0.0119246
0.306838
-0.30673
-0.00155025
0.00327269
0.307702
-0.310188
-0.0117099
-0.00671108
0.313541
-0.318168
-0.0197257
-0.0156643
0.323086
-0.328769
-0.0240965
-0.0217762
0.334407
-0.340554
-0.0235356
-0.0238928
0.346528
-0.352559
-0.0167551
-0.020458
0.357458
-0.360726
-0.00402716
-0.0108459
0.36125
-0.358644
0.012572
0.00373667
0.353016
-0.344721
0.0276463
0.0201815
0.335463
-0.326125
0.0332021
0.0309362
0.318175
-0.311405
0.0289947
0.0310268
0.305797
-0.300781
0.0207611
0.0244141
0.29654
-0.293118
0.0102986
0.0154313
0.29102
-0.29052
-0.00283941
0.00393583
0.291605
-0.294177
-0.0160988
-0.00933189
0.297456
-0.30024
-0.0247055
-0.0214473
0.302573
-0.302673
-0.0280222
-0.0274724
0.309359
-0.312673
-0.0203152
-0.0298332
-0.0296452
-0.321358
0.0252174
0.311192
-0.318893
-0.0219439
-0.0231192
-0.33507
0.346143
0.0212781
0.0222773
-0.355954
0.364342
0.0150305
0.0183116
-0.369598
0.370772
0.000125524
0.00694344
-0.370931
0.367988
-0.0202422
-0.0113315
-0.363236
0.355199
-0.0343819
-0.0271647
-0.34713
0.337809
-0.0445514
-0.0395368
-0.329444
0.321205
-0.0472932
-0.0437871
-0.314132
0.307117
-0.0436375
-0.0433073
-0.301045
0.29537
-0.0346275
-0.0372636
-0.291173
0.288306
-0.020781
-0.0265998
-0.286847
0.286439
-0.00420323
-0.0122553
-0.287623
0.291446
0.0123605
0.00291931
-0.298356
0.309788
0.0298231
0.0180788
-0.32379
0.341114
0.0495158
0.0356494
-0.358112
0.375278
0.0651179
0.0540082
-0.389071
0.399445
0.0612523
0.0620276
-0.40455
0.40443
0.0324875
0.0463696
-0.400332
0.39208
-0.00321644
0.0137713
-0.382474
0.370401
-0.0276222
-0.0148766
-0.359133
0.346671
-0.0374518
-0.0297836
-0.336044
0.325933
-0.0373307
-0.0335962
-0.318105
0.31143
-0.0290307
-0.0294084
-0.305743
0.30181
-0.0161848
-0.0193764
-0.300314
0.301347
0.000611301
-0.00773473
-0.307394
0.325153
0.0216969
0.00986398
0.0288191
0.0933265
-0.103585
0.354975
0.347636
0.122167
-0.138182
0.333991
0.350113
0.150677
-0.161473
0.294658
0.313505
0.169329
-0.174267
0.243881