/*--------------------------------*- C++ -*----------------------------------*\
  =========                 |
  \\      /  F ield         | OpenFOAM: The Open Source CFD Toolbox
   \\    /   O peration     | Website:  https://openfoam.org
    \\  /    A nd           | Version:  10
     \\/     M anipulation  |
\*---------------------------------------------------------------------------*/
FoamFile
{
    format      ascii;
    class       surfaceScalarField;
    location    "27.5";
    object      phi;
}
// * * * * * * * * * * * * * * * * * * * * * * * * * * * * * * * * * * * * * //

dimensions      [0 3 -1 0 0 0 0];

internalField   nonuniform List<scalar> 
57492
(
0.000243791
-1.10447e-05
-4.5266e-05
-0.00018748
-0.000169112
0.000277467
0.000135436
-2.90028e-05
8.16127e-05
0.000326132
-0.000378742
0.00315946
0.00338652
-0.000271926
-0.00627405
-0.00862818
0.00404533
0.0077423
0.000990085
-0.000917393
-0.000480281
0.000407588
-0.00177582
0.000330288
-0.000126531
0.00157207
0.000369824
-0.00115556
0.00152594
-0.00462993
0.00442483
-0.00132083
0.00129198
0.0042501
-0.00401615
-0.00065106
-0.00021896
0.000725705
0.000144315
-0.000126489
-0.000872227
0.000347655
0.000246852
-0.000343209
-3.01312e-05
-5.66851e-05
8.45767e-05
0.00226854
-0.00217599
-0.000817774
0.000725223
0.000313965
0.00182733
0.000127246
-0.000324057
0.000787603
0.00333786
-0.00380141
-0.000661016
0.00326368
-0.00292673
0.000135672
-0.000289315
0.000153643
-0.00166892
0.00122359
0.000581004
-0.00466748
0.000195065
0.00334323
0.00112918
0.00122355
-0.00473652
-0.00115451
-0.000134738
-0.000210341
-0.000721812
0.00106689
-0.000296708
0.000184574
-2.26036e-05
-0.00260353
0.0022034
0.00075586
-0.000355727
-0.00309569
0.000918449
-0.000426294
-0.00112692
0.000595399
0.000456979
7.45453e-05
-0.000778682
-0.0003618
1.35591e-05
-0.00036886
-0.00113925
0.00129834
0.000209767
-0.000418061
0.000117085
-6.78847e-05
0.00103221
-0.000688664
-0.000641068
0.000297522
-0.000891902
0.000702847
0.00122127
-0.00121241
-0.00232482
0.00220333
0.00133391
-0.00271143
-0.000660985
0.00216
-0.000710345
-0.000153018
0.000863363
-0.000272474
-0.000437871
-0.00137983
0.00189953
-0.000792173
0.000203882
-0.000770409
-0.000813305
-0.000795904
0.00112619
-0.000233989
-0.00190169
0.00115074
0.000750943
-0.00432134
0.00241965
0.00478548
-0.00102382
0.000552596
-0.00431426
0.00354494
0.000112551
0.00112798
-0.000922009
0.00467564
-0.00477744
0.00192843
0.000405299
-0.00196391
0.00193451
-0.000132613
0.00232285
-0.000869182
-0.00172495
0.000271284
0.00260232
0.000125824
0.00122262
-0.000752545
0.00146443
0.00114132
0.00165337
-0.00469451
-0.000659772
0.000585034
0.00476924
-0.00482755
-0.000331679
0.000464725
0.00116102
0.00451291
-0.0044364
-0.00123753
0.00083008
-0.00429899
-0.00289948
0.00258063
0.00261928
-0.00230042
-0.00035393
0.00326614
-0.00581169
1.48375e-05
-0.000123336
-7.65684e-07
0.000109264
-0.000336118
7.7457e-06
7.08862e-05
-0.000141652
-0.000265351
-5.96257e-05
7.17637e-06
1.24081e-05
-1.31738e-05
9.48935e-06
2.91875e-06
0.00737548
0.00378472
-0.00592539
-0.00523481
0.00232438
-0.000692364
0.00574346
-0.00791229
0.003075
0.00716167
0.00226938
-0.00639694
0.00161841
-0.00287081
0.00214
-0.000887602
0.002364
-0.00292029
0.00217471
-3.08482e-05
2.2503e-05
-2.69952e-06
-7.24335e-05
-3.68067e-06
-0.000229728
-3.01862e-05
-0.00294901
0.0053659
0.00338868
-0.00580557
0.00435953
-0.00494454
0.00297824
0.00476575
-0.00237809
0.010218
-0.00155665
-0.00176491
-0.0068964
0.00218903
0.00551279
0.00251614
0.00156855
-0.00509656
0.00571703
4.72182e-05
-7.6221e-05
0.000128831
0.000824321
0.00176819
-0.000630196
-0.00196231
0.00104971
0.000100747
-9.89367e-05
2.73567e-05
7.158e-05
-0.000305775
0.000206838
-0.0066462
0.00342249
-0.00201936
0.00524306
-0.00576722
-0.00252924
0.00165026
-0.00263572
0.00210374
-0.00523524
0.00196392
-2.63682e-05
-0.000949342
-0.00098821
-0.000715833
0.00224072
0.00043903
-0.000839846
-8.56955e-05
0.000209709
-0.000776146
-9.00678e-05
-0.00027282
-0.00145267
-0.000269692
-6.70907e-05
2.33052e-05
0.000313478
-0.000231917
-0.000574886
0.000537111
0.000151216
1.87052e-05
-0.000401838
8.84864e-05
-4.3612e-06
0.000114433
-2.64174e-06
-0.000644596
0.000371777
8.3619e-05
-0.000728215
0.000175133
-0.000480909
0.00427351
0.00333168
-0.000178479
0.00212875
-0.00648342
-1.02234e-05
0.00226373
-0.00179739
-0.000456117
0.000292011
0.00316386
-0.00346609
0.00328127
0.00192124
-0.000579768
-0.00462275
-0.000984556
0.00043474
0.00383109
0.00407606
-0.00313938
-0.00163452
-0.00303773
0.00123461
0.00343764
-0.00119857
0.003511
-0.00394695
0.000407979
-0.00464428
8.86218e-05
3.69186e-05
-4.98195e-06
0.00108319
-0.00063578
-0.000616526
8.22999e-05
-0.000346952
0.00134785
0.000379373
-1.96059e-05
-0.000187415
0.00033329
6.85281e-05
-0.000214403
0.000995816
-0.00122109
3.78639e-05
-0.000359337
0.000834282
0.000520871
-0.000125739
9.96912e-05
-0.00616277
0.0036438
0.00594146
0.00774178
-0.00203157
-0.00823945
-0.00288498
0.00446399
-9.71774e-05
-0.000877804
-0.000164264
-0.000524485
9.24683e-06
4.73083e-05
-0.000130727
3.84075e-05
4.50111e-05
-0.000129979
0.000143802
3.34854e-05
-0.00029815
3.74435e-05
-0.000266635
-0.00031397
5.612e-05
-0.000807443
-0.000336997
-0.00109314
-0.00117545
0.00134797
0.000920619
4.57894e-05
0.000573892
-0.00171282
-0.00153664
0.000406983
-0.00294212
0.00133286
-5.96561e-05
-0.00350922
0.000807868
-0.000240768
0.000876321
-0.00334717
0.00256382
-9.29719e-05
0.000679283
-0.0027279
0.00292494
0.00252853
-0.010197
-0.00177394
0.00219008
0.00302858
-0.00346966
0.00206998
-0.000323469
-2.90478e-07
1.89957e-05
-4.38124e-06
4.09074e-06
0.000285408
-4.14006e-05
0.0053433
-0.00322671
-0.00221257
9.59835e-05
0.00458464
-0.000163357
0.00474938
7.63796e-05
-0.00517969
0.00132785
0.00338031
4.12258e-05
0.000505764
-0.00301043
0.00383251
5.74245e-06
-1.01237e-05
0.000761977
-0.00213103
-0.00286195
0.00124141
0.00310305
0.00116084
-6.51554e-05
-0.0012208
0.000125118
0.00038143
-0.000112494
-0.00148887
0.000314589
0.00187712
0.000264776
-0.00137221
-0.000135148
7.41029e-05
-6.32523e-06
1.11756e-05
-4.42736e-06
-4.22992e-07
1.16055e-05
-2.83974e-07
-1.76467e-05
5.00254e-05
-0.000107401
6.89809e-05
-0.00176237
0.00271416
-0.00077665
0.0029486
-0.00385158
-0.000859397
1.63071e-06
-0.00202352
0.00233647
-0.00403707
0.000249019
-0.00276435
-0.00185773
0.000585011
0.00270356
0.00291164
-0.00542013
0.00260271
0.0043092
-0.00420836
0.00223961
-0.00308816
0.00160991
-0.000761359
0.00245394
-0.00302755
0.00281323
0.00438297
0.0018719
0.00495364
-0.000263452
-0.00492424
0.000234052
0.00548057
-0.000686287
0.000159357
0.00552659
-0.000862413
3.63171e-05
-0.00470049
0.00397017
-0.00133419
0.00289061
0.00431319
-0.00138566
0.00112101
-0.00404853
0.00124728
0.0043951
-0.00132919
-0.00388263
-0.00164993
0.0041469
0.00104922
-0.00369723
-0.00183971
0.00362742
-0.00236302
-0.00324897
0.00213604
0.00347595
-0.00238251
-0.00327804
0.00329754
0.00222454
0.00305806
-0.00146547
-0.00381713
0.00303243
-0.0031904
-0.00257892
0.00259973
0.00301162
-0.00203407
0.00251322
-0.00407914
0.00362551
-0.00101184
-0.00508058
0.00104402
0.0053904
-0.00135384
0.0019051
-0.000318143
0.00108085
-0.00114376
0.000381048
-0.000152323
0.00137816
-0.00154398
-5.53281e-05
0.000319315
0.000115386
-0.00148512
-0.00228413
0.00147981
-2.04112e-08
-2.63563e-07
2.84797e-07
-3.05208e-07
-0.000144718
-0.00254006
0.00193223
-0.00223951
-9.97118e-05
0.0021945
7.03496e-05
-0.00234756
3.77023e-05
-0.000387315
0.0019163
0.000415727
-0.00194471
0.00203563
0.000462089
-0.00288504
0.001918
0.00203393
-2.76321e-06
6.7277e-07
3.9009e-05
-4.82639e-06
2.06318e-06
-4.15363e-06
-5.90148e-06
4.742e-06
-5.84662e-05
1.25542e-06
-7.1569e-06
5.99741e-06
-4.56155e-05
2.20469e-05
-0.00027314
2.3258e-05
-6.88735e-05
4.53049e-05
5.34372e-05
-5.37471e-06
-0.000173801
-1.69872e-05
7.04244e-05
-2.23619e-05
0.00137563
0.00330181
-0.0042427
0.00140301
-0.00452802
0.00450065
0.00471692
-1.21073e-05
-0.00118416
-0.00244486
0.00116
0.00246902
-0.000709189
0.00272127
-0.00319624
0.000159189
-0.00331324
0.00414929
-0.00418707
-1.33705e-05
5.1151e-05
0.00414883
3.72353e-05
-3.67717e-05
-2.61989e-05
-0.00417924
1.83678e-05
0.00418112
-1.6079e-06
-3.06892e-05
0.00425662
6.04661e-05
-0.000135963
2.95286e-05
0.00436373
-0.000136637
0.00431123
-0.00428467
2.97082e-06
-0.00020339
0.00456855
-1.43475e-06
0.00419224
-8.43931e-05
-0.00415236
-7.18514e-05
-0.00413687
-1.70981e-05
-0.00412979
3.01606e-05
-0.00421695
7.37901e-05
-0.00414646
-9.66876e-05
-0.00019734
0.00476753
-1.63319e-06
0.00399723
-2.33526e-06
-2.09351e-05
-0.0041424
-1.59047e-05
-0.00417854
1.11445e-05
-2.96076e-05
-0.00437964
0.000266847
-5.86537e-07
0.00476927
-1.15409e-06
0.00399934
-2.69467e-06
-0.00432999
0.000121843
0.00477104
-4.00689e-07
-1.36972e-06
-5.29959e-07
0.00477246
-8.93972e-07
0.00400104
-2.10331e-06
0.004003
-2.48903e-06
-2.49956e-05
-0.00435106
-3.58205e-06
-0.00435096
-4.03372e-06
-2.7812e-07
0.00477387
-1.13332e-06
0.00400462
-1.90121e-06
-4.37469e-07
-0.00434702
-3.60292e-06
-0.0043467
-4.69816e-06
-2.83761e-07
0.00477482
-6.632e-07
0.00400665
-2.30692e-06
-2.87597e-07
-0.00434253
-4.20308e-06
-0.00434246
-4.52596e-06
2.16871e-07
0.00477553
-9.23689e-07
0.00400859
-1.72201e-06
-3.74709e-07
-0.00433791
-4.24957e-06
-0.00433762
-5.20759e-06
6.98145e-07
0.00477529
-4.57508e-07
0.00401143
-2.14672e-06
-1.96266e-07
-0.00433284
-4.87262e-06
-0.00433274
-5.08037e-06
2.18234e-06
0.00477384
-7.36843e-07
0.00401518
-1.56284e-06
9.78868e-06
-0.00433766
-4.96901e-06
-0.00431716
-5.78949e-06
4.63007e-06
0.00476949
-2.74178e-07
0.00402181
-1.99988e-06
2.80672e-05
-0.00421048
-0.000155242
-0.00423868
-5.04158e-05
1.00442e-05
0.00476001
-5.7056e-07
0.00401465
1.71949e-05
2.78185e-05
-0.00422573
-1.25679e-05
-0.00420219
-8.66872e-06
2.02612e-05
0.00473986
-1.08471e-07
0.00398724
4.7678e-05
5.99671e-05
-0.00407189
-0.000213813
-0.004076
-6.62197e-05
0.000202668
0.00453761
-4.15153e-07
0.00410925
8.06541e-05
6.90273e-05
-0.00404841
-9.25043e-05
-0.00402631
1.93303e-05
0.000178922
0.00420374
0.000154948
0.00417768
0.000110494
0.000110018
-0.000160663
-0.00399776
-0.00400509
8.87978e-05
1.19821e-05
4.04967e-05
0.00415126
0.00415113
3.85286e-05
-0.00406346
0.00413252
-0.000161559
-0.00408097
-0.000143154
0.0001877
-0.000169141
-0.00401632
8.88981e-05
-0.00390629
-0.00404869
0.00408865
-5.25205e-05
-0.000129991
-0.0039444
0.00394945
-1.00162e-05
-1.09966e-05
-0.00395416
0.0039586
-8.69373e-06
-9.58551e-06
-0.00396276
0.00396669
-7.53305e-06
-8.35915e-06
-0.00397039
0.00424377
-6.52989e-06
-7.28202e-06
-0.00423422
0.0041784
7.41854e-05
-6.35793e-06
-0.00431495
0.00428305
-4.87276e-06
-8.53998e-05
-0.00414763
0.00408863
-7.69605e-05
0.000104735
-0.00399302
0.00399518
-3.59139e-06
-4.10278e-05
-0.00399719
0.00399911
-3.06882e-06
-3.65188e-06
-0.00400091
0.00400262
-2.60262e-06
-3.16819e-06
-0.00400422
0.00400575
-2.18872e-06
-2.73849e-06
-0.00400718
0.00400854
-1.82094e-06
-2.35755e-06
-0.00400983
0.00401105
-1.49375e-06
-2.01976e-06
-0.00401219
0.00401329
-1.19937e-06
-1.71899e-06
-0.00399057
0.00408518
6.03404e-05
2.23008e-05
0.0040756
5.00773e-05
-2.54867e-05
8.02859e-05
0.00409646
-4.54084e-06
0.00413019
0.00410028
-0.00403199
1.23664e-05
-0.00414086
0.00413265
4.67391e-05
6.99088e-05
0.00403081
-0.00401105
-2.56685e-06
4.64974e-05
0.00400984
-0.00400854
-2.85521e-06
-3.21063e-06
0.00400719
-0.00400574
-3.16917e-06
-3.50163e-06
0.00400422
-0.0040026
-3.52199e-06
-3.82468e-06
0.0040009
-0.00399908
-3.92124e-06
-4.19043e-06
0.00399717
-0.00399513
-4.37535e-06
-4.60569e-06
0.00407445
-0.00406658
-4.89264e-06
-5.08036e-06
0.00413282
-0.00408597
-6.39429e-05
-5.61507e-06
0.00405704
-0.00402813
4.48849e-05
1.22644e-06
0.00407608
-0.00409987
3.49313e-05
-4.8737e-05
0.00397032
-0.00396662
-7.73356e-06
-7.70497e-06
0.00396271
-0.00395853
-8.71249e-06
-8.60689e-06
0.0039541
-0.00394935
-9.82896e-06
-9.63814e-06
0.00394432
-0.00398362
-1.11106e-05
-1.082e-05
0.00398011
-0.00403375
-1.2588e-05
-1.21791e-05
0.00400065
-0.00393738
2.55278e-05
-1.37638e-05
-0.0038891
4.06175e-05
-0.00410658
-0.000143531
0.00408878
6.71059e-05
-1.21033e-06
0.00412932
0.000141813
-0.000133217
-0.00391488
0.000105873
-0.00385316
0.000143199
-0.000140295
-0.00410948
-0.00400634
-0.00404069
0.00398008
-0.000100951
0.00408164
-0.00411022
-0.000114958
-0.000102198
-0.00393425
0.00393978
-5.80502e-05
-8.41647e-05
-0.0039451
0.00395011
-1.50243e-05
-1.63133e-05
-0.00395478
0.00395919
-1.31006e-05
-1.42592e-05
-0.00396331
0.0039672
-1.14251e-05
-1.24786e-05
-0.00397084
0.00397428
-9.96545e-06
-1.09267e-05
-0.0039775
0.00406038
-8.69904e-06
-9.58019e-06
-0.00398339
0.0039861
-7.58058e-06
-8.40446e-06
-0.00409821
0.00402785
-6.60277e-06
-7.37719e-06
-0.00399328
0.00399542
-5.73314e-06
-6.45689e-06
-0.00399743
0.00399933
-4.97215e-06
-5.6584e-06
-0.00400112
0.00400282
-4.29974e-06
-4.95384e-06
-0.00400441
0.00400592
-3.70419e-06
-4.33159e-06
-0.00400735
0.0040087
-3.17602e-06
-3.78081e-06
-0.00400998
0.00401119
-2.70693e-06
-3.29292e-06
-0.00401233
0.00401342
-2.28567e-06
-2.85931e-06
-0.00401413
0.00404736
2.71173e-05
2.15839e-05
9.50164e-06
-1.86743e-05
0.00410563
1.67304e-06
0.00409661
-0.00403591
0.00407649
2.6521e-05
6.15245e-05
0.00407829
-0.00407862
4.7065e-05
0.00404605
3.10391e-05
-1.26831e-06
4.65418e-05
0.00408405
0.00411025
0.00407858
-0.00404807
-1.81392e-05
6.98675e-05
0.00401234
-0.00401119
-3.71911e-06
1.07634e-05
0.00400998
-0.0040087
-4.13963e-06
-4.41571e-06
0.00400735
-0.00400592
-4.60546e-06
-4.84687e-06
0.00400441
-0.0040028
-5.13054e-06
-5.33089e-06
0.00400111
-0.00399931
-5.72463e-06
-5.8788e-06
0.00399742
-0.00399539
-6.39775e-06
-6.50022e-06
0.00399327
-0.003991
-7.16229e-06
-7.20672e-06
0.00398861
-0.00404452
-8.0281e-06
-8.00676e-06
0.00403438
-0.00398048
-9.00869e-06
-8.91783e-06
0.00401927
-0.0039742
-1.01343e-05
-9.95295e-06
0.00397077
-0.0039671
-1.14065e-05
-1.11342e-05
0.00396322
-0.00395906
-1.28669e-05
-1.24862e-05
0.00395467
-0.00394996
-1.45408e-05
-1.40344e-05
0.00394496
-0.00393961
-1.64674e-05
-1.58139e-05
0.00393392
-0.00392782
-1.86913e-05
-1.78657e-05
0.00392134
-0.00387455
-2.12617e-05
-2.02433e-05
0.00384558
-0.00378601
4.6303e-05
1.16535e-05
-0.00413298
-0.000117533
9.07843e-05
-0.000156801
-0.00378714
-0.00375503
5.9805e-05
-0.000221226
-0.00385046
2.54089e-05
0.00405276
0.00405273
3.98529e-05
-7.54381e-05
9.34364e-05
-0.00412748
-7.89087e-05
-0.00412951
6.37342e-05
-0.000154087
-0.00369679
3.19809e-05
-0.00372328
-0.00413413
0.00408696
-0.00407434
1.38993e-05
0.00404566
6.67044e-05
7.08499e-05
-3.01545e-05
0.00404335
4.54024e-05
0.00407818
-0.00408379
0.00413466
-0.000129783
-0.00013586
0.000108386
-0.00410203
0.00416823
-6.27321e-05
0.000301932
-0.00440743
-5.14161e-05
-0.00413586
0.00410877
-8.78656e-05
-0.000118737
-0.00406087
0.00400112
-4.12035e-05
-5.4297e-05
-0.00397608
0.00394091
-2.28805e-05
-5.91225e-05
-0.00394616
0.00395109
-1.9962e-05
-2.15572e-05
-0.0039557
0.00396005
-1.7445e-05
-1.88667e-05
-0.00396411
0.00396794
-1.52611e-05
-1.65394e-05
-0.00397153
0.00397493
-1.33598e-05
-1.45168e-05
-0.0039781
0.00398111
-1.17015e-05
-1.27564e-05
-0.00398392
0.00398659
-1.02488e-05
-1.122e-05
-0.00398908
0.00399146
-8.97432e-06
-9.8721e-06
-0.00399368
0.0039958
-7.84709e-06
-8.68486e-06
-0.00399778
0.00399966
-6.85494e-06
-7.64086e-06
-0.00400143
0.00400311
-5.97879e-06
-6.72008e-06
-0.00400468
0.00400618
-5.20384e-06
-5.90754e-06
-0.00400759
0.00400893
-4.5174e-06
-5.18907e-06
-0.00401019
0.0040114
-3.90866e-06
-4.55321e-06
-0.00401253
0.0040136
-3.36482e-06
-3.98921e-06
-0.00402569
0.00403335
1.94621e-05
9.49692e-06
2.05338e-05
2.65826e-05
-1.00741e-05
0.00408912
-4.25709e-05
1.09429e-05
0.00408439
0.00408062
0.00407002
0.00406702
-0.00406203
4.20689e-05
-0.0040618
0.00404025
6.14064e-05
3.62592e-05
0.00401462
-0.00402839
-4.36783e-06
2.24611e-05
0.00401253
-0.00401139
-4.86073e-06
-5.09918e-06
0.0040102
-0.00400893
-5.41043e-06
-5.60728e-06
0.0040076
-0.00400617
-6.02617e-06
-6.17764e-06
0.00400469
-0.00400309
-6.72116e-06
-6.82041e-06
0.00400143
-0.00399964
-7.50739e-06
-7.54795e-06
0.00399777
-0.00399577
-8.39776e-06
-8.37253e-06
0.00399367
-0.00399142
-9.40789e-06
-9.30822e-06
0.00398906
-0.00398653
-1.05542e-05
-1.03705e-05
0.00398387
-0.00398103
-1.18553e-05
-1.15783e-05
0.00397803
-0.00397482
-1.33404e-05
-1.29541e-05
0.00397143
-0.0039678
-1.50323e-05
-1.45227e-05
0.00396397
-0.00395987
-1.69692e-05
-1.63172e-05
0.00395553
-0.00395088
-1.91919e-05
-1.83747e-05
0.00394595
-0.00394067
-2.17509e-05
-2.07412e-05
0.00393506
-0.00392905
-2.47058e-05
-2.34712e-05
0.00392266
-0.0039158
-2.81273e-05
-2.6631e-05
0.00387384
-0.00379542
-3.21224e-05
-3.02988e-05
0.0037469
-0.00374754
3.26261e-05
1.12822e-05
4.55156e-05
-5.18099e-05
-0.00371699
-0.00372173
1.97085e-05
0.000128193
-0.00414729
-9.66595e-05
-0.00390789
3.8517e-05
0.00401809
0.0040547
3.09561e-05
0.000159925
-0.00432469
1.22634e-05
-0.00376086
0.000871597
-0.00346306
0.00450946
-3.94674e-05
8.56528e-06
-0.00369083
-8.33146e-05
-0.00367314
-0.00273633
0.00417287
0.000597388
-0.00212198
-0.000198632
-0.0041026
-0.00396451
0.00413834
0.000128104
0.000310396
-0.00010203
-0.00410382
0.00407193
-9.78945e-05
-1.68972e-05
-0.00404381
0.00399342
-3.74797e-05
-9.06131e-05
-0.00397417
0.00396554
-3.25718e-05
-3.50512e-05
-0.00393696
0.00394245
-2.83762e-05
-3.0538e-05
-0.00394758
0.00395241
-2.47922e-05
-2.66846e-05
-0.00395692
0.00396118
-2.17021e-05
-2.33783e-05
-0.00396516
0.00396892
-1.90231e-05
-2.05204e-05
-0.00397244
0.00397578
-1.66911e-05
-1.80384e-05
-0.00397889
0.00398185
-1.46549e-05
-1.58758e-05
-0.00398461
0.00398724
-1.28719e-05
-1.39864e-05
-0.0039897
0.00399203
-1.1306e-05
-1.23304e-05
-0.00399422
0.0039963
-9.92601e-06
-1.08739e-05
-0.00399825
0.0040001
-8.70856e-06
-9.59145e-06
-0.00400184
0.00400349
-7.63319e-06
-8.45975e-06
-0.00400505
0.00400653
-6.68211e-06
-7.46066e-06
-0.00400791
0.00400924
-5.84024e-06
-6.57752e-06
-0.00401048
0.00401167
-5.09435e-06
-5.79635e-06
-0.00401278
0.00401385
-4.43152e-06
-5.10458e-06
-0.00402784
0.00405114
-3.84448e-06
-4.49095e-06
-0.00404216
0.00404044
1.56232e-05
2.9512e-05
-0.00405697
0.00405299
4.25039e-05
5.01691e-05
5.55914e-05
-3.10521e-05
0.00405985
-3.35126e-05
5.90384e-06
0.0040806
0.00404017
3.96407e-05
1.57749e-05
0.00403371
0.00408921
-2.67738e-05
1.75897e-05
0.00405254
0.00405902
-2.17305e-05
9.22236e-07
0.0040755
0.00407404
0.00407771
-0.00406275
4.64515e-05
-0.00414124
0.00403134
0.000110818
-3.25743e-05
0.00405206
-0.00404289
3.29048e-05
2.55654e-05
0.00401484
-0.00401383
-5.37896e-06
-5.58951e-06
0.00401278
-0.00401165
-5.98493e-06
-6.15267e-06
0.00401048
-0.00400923
-6.66302e-06
-6.78168e-06
0.00400792
-0.00400652
-7.42632e-06
-7.48925e-06
0.00400505
-0.00400348
-8.28827e-06
-8.28814e-06
0.00400184
-0.00400008
-9.26344e-06
-9.19227e-06
0.00399824
-0.00399627
-1.03677e-05
-1.02167e-05
0.0039942
-0.00399198
-1.16199e-05
-1.13786e-05
0.00398966
-0.00398717
-1.30411e-05
-1.2698e-05
0.00398455
-0.00398175
-1.46566e-05
-1.41979e-05
0.0039788
-0.00397564
-1.64972e-05
-1.59059e-05
0.00397231
-0.00396874
-1.85971e-05
-1.78545e-05
0.00396498
-0.00396095
-2.10003e-05
-2.00828e-05
0.00395668
-0.00395212
-2.37582e-05
-2.26378e-05
0.00394728
-0.0039421
-2.69328e-05
-2.55761e-05
0.00393661
-0.00393071
-3.05983e-05
-2.89652e-05
0.00392446
-0.00391774
-3.48445e-05
-3.28868e-05
0.0039106
-0.00390293
-3.97884e-05
-3.74409e-05
0.0038489
-0.00377069
-4.55788e-05
-4.27544e-05
0.00376665
-0.00374481
-1.3268e-05
1.56633e-05
1.47098e-05
-2.00603e-05
-0.00368548
-0.00371063
-1.94695e-05
0.000124341
-0.0041117
-2.84779e-05
-0.00386714
0.000318327
-0.00377142
1.32336e-05
-0.00385741
0.00405465
-0.00406003
4.78801e-05
0.00404098
1.95757e-05
4.82065e-05
-3.25064e-05
0.0040598
1.0279e-05
0.00406927
0.000316307
-0.00331727
2.58371e-05
-0.00371904
-0.00195723
-0.00210945
-0.00324456
0.00373921
0.00010274
4.0386e-05
-2.42925e-05
-0.00370157
6.82744e-06
-0.00367707
-0.00300803
-0.000435162
-0.00400673
-0.0039085
0.0039664
7.01963e-05
0.000141108
-0.00400424
0.0039573
-5.09553e-05
-5.47384e-05
-0.00391425
0.00392105
-4.42799e-05
-4.75565e-05
-0.00392742
0.00393343
-3.85837e-05
-4.1422e-05
-0.00393906
0.00394438
-3.36919e-05
-3.61694e-05
-0.00394935
0.00395404
-2.94846e-05
-3.16565e-05
-0.00395843
0.00396258
-2.58488e-05
-2.77679e-05
-0.00396646
0.00397013
-2.26936e-05
-2.44018e-05
-0.00397357
0.00397682
-1.99453e-05
-2.14764e-05
-0.00397987
0.00398276
-1.75437e-05
-1.89252e-05
-0.00398547
0.00398804
-1.54396e-05
-1.66942e-05
-0.00399044
0.00399273
-1.35911e-05
-1.47383e-05
-0.00399487
0.00399691
-1.19631e-05
-1.30184e-05
-0.00399882
0.00400064
-1.05263e-05
-1.15035e-05
-0.00400235
0.00400397
-9.25663e-06
-1.01664e-05
-0.0040055
0.00400695
-8.13378e-06
-8.98533e-06
-0.00400831
0.00400961
-7.1398e-06
-7.94129e-06
-0.00401083
0.004012
-6.25981e-06
-7.01792e-06
-0.00401309
0.00401414
-5.47998e-06
-6.20099e-06
-0.00401513
0.00401607
-4.78784e-06
-5.4776e-06
-0.00405042
0.00403713
2.89177e-05
-4.83774e-06
2.72678e-05
4.24538e-05
-6.88169e-05
0.00408621
-1.66187e-05
2.91782e-05
0.00406804
0.004066
-4.29616e-09
-7.07549e-07
0.00403442
0.00402038
-3.79723e-05
5.65467e-05
0.00403396
0.00402034
0.00409808
0.00408018
-0.00406752
3.37928e-05
-0.00403006
0.0040714
6.94714e-05
1.75468e-05
0.00405469
-0.00401605
-5.73411e-06
1.27302e-05
0.00401511
-0.00401412
-6.37205e-06
-6.52224e-06
0.00401309
-0.00401198
-7.08803e-06
-7.18792e-06
0.00401083
-0.0040096
-7.8931e-06
-7.93486e-06
0.00400831
-0.00400694
-8.80093e-06
-8.7772e-06
0.0040055
-0.00400396
-9.82663e-06
-9.72902e-06
0.00400234
-0.00400062
-1.09867e-05
-1.08061e-05
0.00399881
-0.00399688
-1.23004e-05
-1.20262e-05
0.00399485
-0.00399268
-1.37897e-05
-1.34097e-05
0.00399039
-0.00398796
-1.54799e-05
-1.49804e-05
0.00398539
-0.00398264
-1.74011e-05
-1.67656e-05
0.00397975
-0.00397666
-1.9589e-05
-1.87979e-05
0.0039734
-0.00396991
-2.20854e-05
-2.11161e-05
0.00396623
-0.00396229
-2.49413e-05
-2.37661e-05
0.00395812
-0.00395366
-2.82173e-05
-2.68034e-05
0.00394894
-0.00394389
-3.19864e-05
-3.02944e-05
0.00393854
-0.0039328
-3.63355e-05
-3.43187e-05
0.00392671
-0.00392019
-4.13699e-05
-3.89719e-05
0.00391326
-0.00390583
-4.72184e-05
-4.43698e-05
0.00389793
-0.00388948
-5.40342e-05
-5.06508e-05
0.00381584
-0.00376714
-6.19646e-05
-5.79758e-05
0.00372008
-0.00368224
-3.1007e-05
-6.65322e-05
4.41072e-05
-1.83232e-05
-0.00370286
-0.00365231
1.41735e-05
9.38774e-05
-0.00388726
2.21782e-06
-0.00385613
4.72192e-05
0.00402294
0.00405667
2.50156e-05
0.000188742
-0.00364385
-0.000455009
-0.00438726
-4.89868e-05
-0.0037233
1.42531e-05
-0.00384583
2.77648e-05
-0.00377109
-0.00431845
-0.000799027
0.000199205
-0.000503198
-0.00401446
-0.000282211
-0.00390585
-2.20672e-05
-0.00369783
9.07902e-07
-6.94162e-05
-0.00363435
3.24843e-05
-0.00368389
-0.00391064
-0.00354676
0.0037131
-6.36013e-05
0.00372228
-0.00408781
-0.000433504
-0.000259639
-0.00383503
0.00389604
9.19213e-06
1.91755e-05
-0.00390366
0.00391091
-5.82086e-05
-6.2356e-05
-0.00391776
0.00392425
-5.0771e-05
-5.44028e-05
-0.00393034
0.00393611
-4.43511e-05
-4.75181e-05
-0.00394152
0.00394664
-3.88084e-05
-4.15789e-05
-0.00395143
0.00395596
-3.40177e-05
-3.6451e-05
-0.00396021
0.00396423
-2.9866e-05
-3.20149e-05
-0.00396799
0.00397156
-2.62569e-05
-2.81663e-05
-0.0039749
0.00397806
-2.31093e-05
-2.48165e-05
-0.00398103
0.00398384
-2.03562e-05
-2.18921e-05
-0.00398648
0.00398898
-1.79423e-05
-1.93323e-05
-0.00399133
0.00399356
-1.58206e-05
-1.70864e-05
-0.00399565
0.00399764
-1.39515e-05
-1.51111e-05
-0.00399951
0.00400128
-1.23018e-05
-1.33705e-05
-0.00400295
0.00400454
-1.08436e-05
-1.1834e-05
-0.00400603
0.00400745
-9.55361e-06
-1.04762e-05
-0.00400878
0.00401005
-8.41177e-06
-9.27565e-06
-0.00401125
0.00401239
-7.4008e-06
-8.21372e-06
-0.00401346
0.00401449
-6.50563e-06
-7.27442e-06
-0.00401546
0.00401638
-5.71315e-06
-6.44363e-06
-0.00401725
0.00405118
-5.00965e-06
-5.70799e-06
-0.00405485
0.00406488
3.78516e-05
2.35968e-05
-0.00401115
0.0040288
2.95719e-05
7.3303e-05
6.63629e-05
-4.90169e-05
0.00405069
-1.26951e-05
-1.09328e-05
0.00405243
0.00407661
4.97096e-05
6.47596e-07
0.00403585
0.0040667
2.5152e-08
-7.04868e-07
0.0040351
0.00402106
1.37942e-06
-2.05546e-06
0.00403464
0.00402101
-2.74755e-05
2.10975e-05
0.00406618
0.00406855
-1.39221e-05
1.8781e-05
0.00405181
0.00407644
0.00408515
-0.00403852
2.28397e-05
-0.00406674
0.00404339
4.21317e-05
4.34199e-05
0.0040461
-0.0040367
2.44e-05
2.51269e-05
0.00401722
-0.00401635
-6.60778e-06
-6.75337e-06
0.00401543
-0.00401446
-7.34223e-06
-7.43462e-06
0.00401345
-0.00401237
-8.16705e-06
-8.20037e-06
0.00401124
-0.00401004
-9.09653e-06
-9.06308e-06
0.00400878
-0.00400744
-1.01455e-05
-1.00371e-05
0.00400603
-0.00400452
-1.13308e-05
-1.11382e-05
0.00400294
-0.00400126
-1.26714e-05
-1.2384e-05
0.00399949
-0.0039976
-1.41889e-05
-1.37948e-05
0.00399562
-0.0039935
-1.5909e-05
-1.53942e-05
0.00399127
-0.00398889
-1.78607e-05
-1.72092e-05
0.00398638
-0.00398371
-2.00784e-05
-1.92714e-05
0.00398089
-0.00397787
-2.26029e-05
-2.16182e-05
0.00397469
-0.0039713
-2.54824e-05
-2.42938e-05
0.00396771
-0.00396388
-2.87746e-05
-2.73508e-05
0.00395983
-0.0039555
-3.25486e-05
-3.08524e-05
0.00395092
-0.00394602
-3.68868e-05
-3.48739e-05
0.00394083
-0.00393528
-4.18879e-05
-3.95053e-05
0.0039294
-0.0039231
-4.76696e-05
-4.48542e-05
0.00391642
-0.00390926
-5.43723e-05
-5.10494e-05
0.00390167
-0.00389355
-6.21592e-05
-5.82418e-05
0.00388492
-0.00387568
-7.12076e-05
-6.66025e-05
0.00386588
-0.00381515
-8.1737e-05
-7.63354e-05
0.00376516
-0.0036883
-4.43775e-05
-3.58088e-05
-2.65567e-05
-1.77619e-05
-0.00363957
-0.00367689
-3.79697e-05
6.43302e-05
-0.00376284
-0.00413164
-0.000459364
3.81173e-05
-0.00373096
0.00408088
-0.00409053
3.92226e-05
0.00407777
-7.82466e-06
4.05825e-05
-3.46908e-05
0.00404592
5.0942e-05
0.00403303
2.48044e-06
-0.00384436
1.53582e-05
-0.00383342
-8.63716e-05
-0.00391913
2.97791e-05
-0.00382294
4.59174e-05
-0.00381316
6.3876e-05
-0.00371599
-1.33587e-05
3.54247e-05
-0.00366163
-6.73261e-05
-0.00362292
-0.00384383
-0.00400634
0.00382648
-0.000253637
-0.00039211
0.000504338
-0.00424387
0.00416621
-0.00432236
-0.000235952
-0.000299502
-0.00369685
0.00376895
-0.000135705
-0.000130008
-0.00385119
0.00390076
-4.03795e-05
-6.30616e-05
-0.00390808
0.00391502
-6.51494e-05
-6.9678e-05
-0.00392156
0.00392776
-5.69684e-05
-6.09379e-05
-0.00393358
0.0039391
-4.98685e-05
-5.33429e-05
-0.00394428
0.00394918
-4.37145e-05
-4.676e-05
-0.00395379
0.00395815
-3.83771e-05
-4.10551e-05
-0.00396224
0.00396611
-3.37391e-05
-3.61046e-05
-0.00396974
0.00397319
-2.96993e-05
-3.17996e-05
-0.00397642
0.00397948
-2.61712e-05
-2.80463e-05
-0.00398235
0.00398508
-2.3082e-05
-2.47655e-05
-0.00398764
0.00399006
-2.03709e-05
-2.18908e-05
-0.00399234
0.00399451
-1.79863e-05
-1.93663e-05
-0.00399654
0.00399848
-1.58847e-05
-1.71448e-05
-0.00400029
0.00400202
-1.40292e-05
-1.51863e-05
-0.00400364
0.00400519
-1.23887e-05
-1.34569e-05
-0.00400664
0.00400802
-1.09369e-05
-1.19282e-05
-0.00400932
0.00401056
-9.65167e-06
-1.05761e-05
-0.00401173
0.00401284
-8.51357e-06
-9.37972e-06
-0.00401389
0.00401489
-7.50599e-06
-8.32141e-06
-0.00401583
0.00401673
-6.61427e-06
-7.3856e-06
-0.00401758
0.0040184
-5.82326e-06
-6.55796e-06
-0.00404782
0.00406299
2.26821e-05
-5.82501e-06
4.57623e-05
1.80416e-05
-4.36003e-05
0.00407625
-2.9161e-05
3.57046e-07
0.00408123
0.00406549
-1.22265e-06
5.8316e-07
0.00403649
0.00402187
5.81391e-08
-7.05112e-07
0.00403575
0.0040217
1.34932e-06
-1.99332e-06
0.00403528
0.00402166
-4.48061e-05
3.24188e-05
0.00407857
0.00402175
0.00407417
0.00407947
-0.00408148
2.4847e-05
-0.00407112
0.00405377
5.94872e-05
5.17675e-05
0.00404948
-0.00401835
-6.72779e-06
-6.87637e-06
0.00401755
-0.00401669
-7.46096e-06
-7.55508e-06
0.00401581
-0.00401486
-8.28737e-06
-8.32246e-06
0.00401387
-0.00401282
-9.21871e-06
-9.18699e-06
0.00401172
-0.00401055
-1.02693e-05
-1.01626e-05
0.00400932
-0.00400801
-1.14554e-05
-1.12648e-05
0.00400664
-0.00400517
-1.27957e-05
-1.25108e-05
0.00400364
-0.004002
-1.43114e-05
-1.39204e-05
0.00400028
-0.00399844
-1.60267e-05
-1.55163e-05
0.00399651
-0.00399445
-1.79701e-05
-1.73247e-05
0.00399228
-0.00398997
-2.01745e-05
-1.9376e-05
0.00398753
-0.00398493
-2.26782e-05
-2.17057e-05
0.0039822
-0.00397927
-2.55267e-05
-2.43555e-05
0.00397619
-0.0039729
-2.87739e-05
-2.73748e-05
0.00396943
-0.00396572
-3.24838e-05
-3.08221e-05
0.0039618
-0.00395762
-3.6733e-05
-3.47675e-05
0.0039532
-0.00394847
-4.16123e-05
-3.92941e-05
0.00394348
-0.00393814
-4.72301e-05
-4.45012e-05
0.00393248
-0.00392644
-5.37152e-05
-5.05068e-05
0.00392004
-0.00391319
-6.12189e-05
-5.74507e-05
0.00390594
-0.00389818
-6.99163e-05
-6.54956e-05
0.00388995
-0.00388116
-8.00037e-05
-7.48276e-05
0.00387184
-0.00386187
-9.1702e-05
-8.56573e-05
0.00379948
-0.0037386
-0.00010526
-9.81949e-05
0.00370575
-0.00370022
-7.28646e-05
-7.08178e-05
-0.000271291
7.28279e-05
-0.00370738
-0.00378141
-3.06736e-05
5.26642e-05
-0.00364491
-0.00363078
-0.000100105
9.78437e-06
-0.00373451
4.47239e-05
0.0040334
0.00408825
1.64648e-05
0.000185041
-0.00427751
-0.000229896
2.82158e-06
-0.00383182
0.000289196
-0.00434802
-1.66879e-05
-0.00380064
1.65034e-05
-0.00382015
-1.22327e-05
-0.00383407
3.19463e-05
-0.00380897
4.92989e-05
-0.00379859
6.86353e-05
-0.0037492
4.98514e-05
-0.00365882
-6.9919e-05
5.60948e-05
-0.00363109
-7.88569e-05
-0.00362185
-0.00383122
-0.0042596
0.00409739
-7.37352e-05
-0.000335809
-0.0042029
0.0002612
0.0043676
-0.00425184
-0.000451575
-0.000121895
-0.00399058
0.00391101
-0.000174069
-0.0001927
-0.00388138
0.00383949
-9.38151e-05
-0.000100373
-0.00386405
0.00390571
-8.20391e-05
-8.76222e-05
-0.00391274
0.00391938
-7.1793e-05
-7.67071e-05
-0.00392562
0.00393153
-6.28796e-05
-6.71781e-05
-0.00393709
0.00394235
-5.5133e-05
-5.88984e-05
-0.0039473
0.00395199
-4.84031e-05
-5.1707e-05
-0.00395639
0.00396057
-4.25518e-05
-4.54595e-05
-0.00396449
0.00396821
-3.74563e-05
-4.00254e-05
-0.0039717
0.00397501
-3.30097e-05
-3.52902e-05
-0.00397812
0.00398107
-2.91207e-05
-3.1155e-05
-0.00398384
0.00398647
-2.57116e-05
-2.75355e-05
-0.00398894