/*--------------------------------*- C++ -*----------------------------------*\
  =========                 |
  \\      /  F ield         | OpenFOAM: The Open Source CFD Toolbox
   \\    /   O peration     | Website:  https://openfoam.org
    \\  /    A nd           | Version:  10
     \\/     M anipulation  |
\*---------------------------------------------------------------------------*/
FoamFile
{
    format      ascii;
    class       volVectorField;
    location    "11";
    object      U;
}
// * * * * * * * * * * * * * * * * * * * * * * * * * * * * * * * * * * * * * //

dimensions      [0 1 -1 0 0 0 0];

internalField   nonuniform List<vector> 
25879
(
(1.10096 0.0324714 5.85204e-22)
(1.09691 0.0329299 -1.64479e-21)
(1.09669 0.028842 1.98784e-21)
(1.10064 0.0285637 -1.78752e-21)
(0.940641 -0.081931 -1.91572e-22)
(1.0002 -0.112763 1.68534e-21)
(1.35803 0.1929 0)
(1.3353 0.192952 -1.0264e-20)
(1.31408 0.183171 0)
(1.32391 0.169083 0)
(1.4441 0.258438 -4.45366e-21)
(1.40745 0.232834 1.34637e-20)
(1.48496 0.28197 -9.35294e-20)
(-0.0376651 -0.0228724 2.25613e-20)
(-0.0228554 -0.00854841 -3.36579e-20)
(1.01417 0.535368 -2.05364e-20)
(1.07009 0.668384 -2.20513e-20)
(1.21296 -0.649516 3.27119e-20)
(1.33923 -0.617528 -2.30775e-20)
(0.461461 -0.0958426 6.71055e-20)
(0.447248 -0.245938 3.05589e-19)
(0.37754 0.745209 -1.04315e-19)
(0.650556 0.660526 9.18233e-20)
(1.03803 0.038383 3.6999e-21)
(1.04348 0.0433392 4.70032e-21)
(1.03722 0.0429659 3.40661e-22)
(1.03085 0.0354252 -7.19311e-23)
(1.03559 0.0307472 -4.78715e-21)
(1.03129 0.0311871 -6.72328e-21)
(1.04108 0.035408 -2.6814e-21)
(1.04686 0.0403713 3.08113e-20)
(-0.0473711 -0.0100127 3.4864e-20)
(-0.0506491 -0.0247235 -1.56529e-20)
(-0.0774618 -0.0112963 2.24696e-20)
(1.29967 0.396062 1.83471e-20)
(1.40699 0.281568 4.21989e-21)
(1.42788 0.282929 -3.94107e-21)
(1.27416 -0.10802 1.12989e-21)
(1.27148 -0.107542 1.46516e-20)
(1.52739 0.350225 -5.81935e-20)
(1.51072 0.332181 -8.16807e-21)
(1.4708 0.343086 -9.75006e-21)
(0.979043 -0.2409 -1.71646e-20)
(0.972306 -0.218708 0)
(0.971951 -0.19996 -1.44556e-21)
(1.38125 -0.312667 0)
(1.38974 -0.301399 3.02189e-20)
(0.129503 0.0469952 7.40954e-20)
(0.413074 0.0763175 3.85683e-21)
(0.591192 0.109991 0)
(1.14568 -0.436517 3.56865e-21)
(1.15154 -0.397894 -1.13121e-20)
(0.718955 0.257799 -1.13748e-19)
(0.972007 0.421096 0)
(0.685076 0.00239897 -4.43765e-23)
(0.673442 0.000922643 0)
(0.716184 0.00236813 1.65819e-22)
(0.846199 0.251439 -9.14923e-20)
(0.843269 0.225579 8.87938e-20)
(0.888874 0.203405 -1.70916e-19)
(0.893728 0.24319 1.59827e-19)
(0.899599 0.366726 9.87296e-22)
(0.912593 0.298156 -4.44366e-21)
(0.821382 -0.000456146 -2.8183e-22)
(0.880239 -0.000828764 5.61775e-22)
(0.843652 8.82228e-05 -4.04609e-22)
(-0.0814594 -0.0372622 1.47637e-21)
(-0.0600221 -0.0485351 0)
(-0.0481884 -0.0279789 0)
(-0.0885283 0.169161 6.70857e-20)
(-0.0394136 0.0600738 -1.89132e-19)
(1.00651 0.0283571 1.24443e-20)
(1.0104 0.0399733 0)
(1.01372 0.0438876 -6.87005e-21)
(1.06516 -0.109327 3.63615e-20)
(1.01922 -0.123658 0)
(1.00434 -0.084242 1.45506e-20)
(1.0879 0.0262212 0)
(1.08558 0.0200438 2.32154e-21)
(1.09034 0.022239 1.79771e-21)
(0.956198 -0.228966 0)
(0.962546 -0.25973 4.32069e-20)
(0.325219 0.264253 6.35909e-20)
(0.505325 0.211324 3.32997e-19)
(0.429072 0.39555 0)
(0.998778 -0.0137178 1.20884e-20)
(1.00032 -0.0183878 -1.13288e-20)
(1.00498 -0.0211839 0)
(1.14436 0.0748897 -3.18253e-22)
(1.13618 0.0679711 1.24338e-23)
(0.112128 0.140483 -1.17298e-19)
(0.24531 0.118066 1.55987e-19)
(0.0428566 0.168645 2.96801e-20)
(1.04375 0.0341597 1.23275e-20)
(1.0394 0.0294668 -3.74497e-22)
(1.06852 -0.106175 -6.88776e-21)
(0.995005 -0.0879101 3.49028e-21)
(1.04899 -0.116496 -1.30112e-21)
(1.37116 0.348243 4.48521e-20)
(1.34987 0.361135 1.83415e-21)
(1.3525 0.384906 -3.33197e-21)
(1.32236 0.404461 -1.69492e-20)
(1.14259 0.0829301 -1.59622e-22)
(1.14741 0.0858 -2.33319e-23)
(1.15294 0.0807273 2.65301e-23)
(1.07278 -0.078223 5.72706e-21)
(1.05501 -0.0629246 -1.68345e-21)
(1.14218 -0.504431 -2.39042e-20)
(1.05095 -0.630253 2.1593e-20)
(1.45153 0.26226 2.42578e-21)
(1.47074 0.250946 -2.34011e-21)
(1.27098 -0.0438667 1.28327e-20)
(1.25919 -0.0440974 0)
(1.06438 0.0123696 5.68491e-22)
(1.06467 0.0130495 -7.31201e-22)
(1.06415 0.192165 -2.07239e-21)
(1.07588 0.205282 2.2354e-21)
(1.43438 0.224496 1.74331e-20)
(1.25188 0.321978 -1.36976e-21)
(1.22867 0.290156 1.5905e-21)
(1.22306 0.26273 4.01258e-21)
(1.41957 -0.267348 -4.01017e-21)
(1.41379 -0.255651 0)
(1.4433 0.402564 -3.04431e-20)
(1.44949 0.384869 6.29564e-20)
(0.360083 0.105992 -6.83975e-20)
(0.558993 0.0923013 0)
(-0.221189 0.0710554 -1.25787e-20)
(-0.199937 0.0389633 0)
(-0.152514 0.0228941 0)
(-0.150165 0.0777193 -7.21485e-20)
(-0.09814 0.0234639 1.36627e-19)
(0.903682 -0.0572829 0)
(0.916784 -0.074741 1.01129e-19)
(0.932304 -0.0552246 3.15538e-20)
(0.923156 -0.0432883 -2.60735e-20)
(1.09423 0.0261939 -4.10507e-21)
(1.09192 0.0296654 2.71289e-21)
(1.34599 0.175467 -1.42084e-20)
(0.697301 -0.00239204 -6.82084e-23)
(1.02118 -0.0204516 6.84551e-21)
(1.02039 -0.0175713 0)
(1.01575 -0.024993 8.75491e-22)
(1.01517 -0.0295174 0)
(1.01083 -0.0370471 0)
(1.00865 -0.0432841 -2.78516e-21)
(1.00632 -0.0500934 -1.46871e-22)
(1.00486 -0.056557 6.3472e-21)
(1.00358 -0.0630265 -3.20013e-21)
(1.00278 -0.0693378 3.5071e-21)
(1.0021 -0.0756002 1.39087e-22)
(1.00173 -0.0817217 -3.64785e-21)
(1.00124 -0.0877854 0)
(1.00089 -0.0937116 4.08251e-21)
(1.00014 -0.0995702 -4.03645e-21)
(0.999345 -0.105271 0)
(0.997866 -0.110866 -4.4793e-21)
(0.996135 -0.116243 4.53045e-21)
(0.993444 -0.121422 -4.77159e-21)
(0.990306 -0.12627 9.79617e-21)
(0.985935 -0.130763 -9.96891e-21)
(0.980925 -0.134753 1.03625e-20)
(0.974404 -0.138158 -5.1905e-21)
(0.967052 -0.140832 0)
(0.957901 -0.142619 0)
(0.947732 -0.143397 -5.74828e-21)
(0.93547 -0.142926 -1.0802e-22)
(0.922023 -0.141137 5.85738e-21)
(0.906188 -0.137689 5.9899e-21)
(0.889018 -0.13259 -6.05511e-21)
(0.869193 -0.125392 6.19539e-21)
(0.84813 -0.1163 -6.46199e-21)
(0.824656 -0.104896 4.03599e-22)
(0.802167 -0.0924105 0)
(0.773743 -0.0754167 0)
(0.747442 -0.0581479 1.59484e-21)
(0.713489 -0.0364732 9.95169e-21)
(0.838927 -0.108631 0)
(0.81239 -0.092725 -2.73672e-21)
(0.700184 -0.0254832 1.77971e-21)
(1.02353 -0.0132351 -7.65528e-22)
(1.03008 -0.00650118 3.43811e-22)
(1.02435 -0.0118049 0)
(0.673833 -0.00408272 0)
(0.749263 -0.0610663 0)
(0.724891 -0.0439373 -3.40943e-21)
(0.794865 -0.0895792 -6.36513e-21)
(0.77195 -0.0760287 -3.95925e-22)
(0.836826 -0.110549 -1.22745e-22)
(0.816206 -0.100966 1.2575e-20)
(0.872451 -0.123695 0)
(0.855148 -0.11795 -6.11507e-21)
(0.90151 -0.130173 1.175e-20)
(0.887489 -0.127629 -5.74318e-21)
(0.924413 -0.131282 -5.52782e-21)
(0.913428 -0.131284 -5.61553e-21)
(0.941858 -0.128274 -5.23102e-21)
(0.933528 -0.130203 5.34368e-21)
(0.95474 -0.122246 0)
(0.948599 -0.125574 5.05675e-21)
(0.964067 -0.114058 0)
(0.959601 -0.118383 0)
(0.970916 -0.104318 -4.28952e-21)
(0.96758 -0.109364 0)
(0.976384 -0.0933959 -3.97666e-21)
(0.973632 -0.0989998 4.14661e-21)
(0.981521 -0.0814909 3.67333e-21)
(0.978843 -0.087566 3.84418e-21)
(0.987221 -0.0687283 3.3845e-21)
(0.984194 -0.0752112 -3.55094e-21)
(0.994134 -0.055255 3.10276e-21)
(0.990454 -0.0620596 -3.27058e-21)
(1.00268 -0.0412406 2.82033e-21)
(0.998126 -0.0482996 -2.96104e-21)
(1.01238 -0.0272994 0)
(1.00736 -0.0344099 -2.7729e-21)
(1.01747 -0.0203298 7.91406e-23)
(1.02254 -0.0371498 0)
(1.02655 -0.0245556 -3.77843e-21)
(1.02322 -0.0300608 0)
(1.02186 -0.0493732 -2.88284e-21)
(1.0218 -0.0430654 2.95187e-21)
(1.0229 -0.0614896 -1.02436e-22)
(1.02212 -0.0554513 -1.93591e-25)
(1.02465 -0.0736485 -7.10669e-21)
(1.02394 -0.0674903 3.38107e-21)
(1.02672 -0.0858448 0)
(1.02615 -0.0796541 3.5085e-21)
(1.02825 -0.0981129 0)
(1.02812 -0.0918876 0)
(1.02847 -0.110375 -4.45631e-21)
(1.02915 -0.104178 0)
(1.02667 -0.122385 -4.73581e-21)
(1.02849 -0.116372 4.32023e-21)
(1.02214 -0.133691 -5.00557e-21)
(1.02547 -0.128124 4.59121e-21)
(1.0141 -0.143613 0)
(1.01936 -0.138874 4.85276e-21)
(1.00169 -0.151229 5.48576e-21)
(1.00933 -0.147824 0)
(0.983907 -0.155378 -1.73661e-22)
(0.994467 -0.153933 -5.48397e-21)
(0.959653 -0.154688 -5.58821e-21)
(0.973716 -0.155932 5.42015e-21)
(0.927741 -0.147634 1.18419e-20)
(0.945931 -0.152363 -5.55293e-21)
(0.887464 -0.132743 -1.87778e-22)
(0.910056 -0.141715 -5.77966e-21)
(0.865887 -0.122654 0)
(1.02444 -0.0149669 7.54338e-22)
(1.02896 -0.00566667 2.64209e-24)
(1.03619 -0.000274423 1.62977e-22)
(0.646548 0.0222445 -3.81766e-21)
(0.66681 -0.00166814 6.17025e-21)
(0.647881 0.0437727 3.31102e-21)
(0.626076 0.0467162 0)
(0.636603 0.0643262 -4.49047e-21)
(0.78843 -0.0771267 1.14562e-22)
(0.906225 -0.138337 -2.98088e-21)
(0.882182 -0.125907 8.63272e-21)
(1.03898 -0.0245157 -2.03357e-21)
(1.02957 -0.0181154 -2.11423e-21)
(1.03981 -0.0190797 6.83612e-22)
(1.03195 -0.012232 1.3539e-21)
(1.02783 -0.00918592 -5.14216e-22)
(0.681194 0.00071448 3.91391e-21)
(0.663069 0.0216249 -2.01204e-21)
(0.719406 -0.0343193 4.69841e-22)
(0.700332 -0.0177409 -2.09592e-21)
(0.758962 -0.0647476 0)
(0.739048 -0.050257 0)
(0.797729 -0.0886177 -1.66051e-21)
(0.778777 -0.077692 6.33512e-24)
(0.832707 -0.105194 1.58106e-21)
(0.815873 -0.0978577 1.59439e-21)
(0.862846 -0.115163 0)
(0.848498 -0.11101 -1.51827e-21)
(0.887939 -0.119508 0)
(0.876097 -0.118024 0)
(0.908321 -0.119299 0)
(0.898756 -0.119951 0)
(0.924707 -0.115521 -1.29457e-21)
(0.917021 -0.117837 1.24315e-21)
(0.938038 -0.108978 -1.20944e-21)
(0.931737 -0.112584 1.1614e-21)
(0.949374 -0.100257 -1.1242e-21)
(0.943921 -0.104887 1.07955e-21)
(0.959767 -0.0897597 0)
(0.954644 -0.0952351 0)
(0.970141 -0.0777742 0)
(0.964914 -0.0839587 0)
(0.981171 -0.0645701 -8.81076e-22)
(0.975548 -0.0713218 8.4608e-22)
(0.9932 -0.0504832 0)
(0.987078 -0.0576111 0)
(1.00626 -0.0358969 -3.58186e-22)
(0.999721 -0.0431786 0)
(1.01994 -0.0212244 0)
(1.01312 -0.0285246 0)
(1.0346 -0.00708201 6.84245e-22)
(1.02715 -0.0140302 -6.84113e-22)
(1.04928 0.00584609 0)
(1.04228 -0.000361157 -3.3182e-22)
(1.03841 -0.0357497 -6.5205e-22)
(1.03799 -0.0300085 6.81987e-22)
(1.04065 -0.0471046 1.4699e-21)
(1.03948 -0.0413438 -1.47524e-21)
(1.0439 -0.058496 1.05159e-22)
(1.04229 -0.0527475 4.76763e-26)
(1.04752 -0.0704096 -1.77084e-21)
(1.04574 -0.0644149 1.68556e-21)
(1.051 -0.0827403 -1.90229e-21)
(1.04938 -0.0765313 1.81068e-21)
(1.05382 -0.0954985 -2.03764e-21)
(1.05261 -0.0890781 1.93951e-21)
(1.05549 -0.108589 -2.17516e-21)
(1.05492 -0.102023 2.07041e-21)
(1.05556 -0.121774 -2.31257e-21)
(1.05585 -0.115202 2.20121e-21)
(1.05354 -0.13465 -2.44691e-21)
(1.05495 -0.128297 2.32908e-21)
(1.04883 -0.146629 -2.57446e-21)
(1.05167 -0.140815 2.4505e-21)
(1.04064 -0.156904 -2.6908e-21)
(1.04534 -0.152062 2.56124e-21)
(1.02795 -0.164426 -1.23786e-21)
(1.03503 -0.161113 1.66908e-22)
(1.00954 -0.167884 -1.63391e-21)
(1.01965 -0.166785 1.52021e-21)
(0.983953 -0.165783 8.99223e-23)
(0.997838 -0.167664 1.20192e-21)
(0.949576 -0.156384 1.87716e-22)
(0.968004 -0.162143 0)
(0.929204 -0.148537 0)
(0.713991 -0.0343504 -2.00317e-21)
(1.0413 -0.0135694 -3.28785e-22)
(0.64215 0.0209666 1.99139e-21)
(1.05672 0.0118797 3.04117e-22)
(1.06721 0.0125174 -2.62125e-22)
(1.07457 0.0181123 3.72475e-23)
(0.606097 0.0705206 0)
(0.627594 0.0853966 -7.6875e-23)
(0.860602 -0.113017 1.4929e-21)
(0.83497 -0.0965773 1.67308e-21)
(0.776288 -0.068007 -7.2074e-21)
(1.03369 0.000215001 5.92774e-23)
(1.04231 0.00566703 3.82311e-23)
(1.03459 -0.00677853 -3.29445e-22)
(1.03134 -0.00367926 -2.98185e-23)
(0.677613 0.0544113 -5.30938e-22)
(0.675272 0.0903078 2.3387e-21)
(0.674598 0.072318 -1.18133e-21)
(0.692879 0.0175707 -1.31401e-22)
(0.683522 0.0357665 0)
(0.7178 -0.0154926 -4.83293e-22)
(0.704628 0.000492107 2.43691e-22)
(0.747625 -0.0455031 0)
(0.732306 -0.0310987 0)
(0.779468 -0.0700138 0)
(0.763486 -0.0585379 0)
(0.810662 -0.0882735 0)
(0.795296 -0.0799456 0)
(0.839471 -0.100414 0)
(0.825448 -0.095094 0)
(0.865091 -0.107011 0)
(0.852714 -0.104371 0)
(0.887411 -0.10885 0)
(0.876659 -0.108484 0)
(0.906826 -0.10673 0)
(0.89745 -0.108246 0)
(0.924045 -0.101353 0)
(0.915663 -0.104417 0)
(0.939908 -0.0932807 0)
(0.932094 -0.097629 0)
(0.955229 -0.0829656 0)
(0.947593 -0.0883824 0)
(0.970644 -0.0708112 0)
(0.9629 -0.0770948 0)
(0.986508 -0.0572486 0)
(0.97853 -0.064173 0)
(1.00285 -0.042787 0)
(0.994699 -0.0500747 0)
(1.01938 -0.0279805 3.5774e-22)
(1.01132 -0.0353177 0)
(1.0358 -0.0134133 0)
(1.02784 -0.0205456 -1.73643e-22)
(1.05171 0.000130922 0)
(1.04386 -0.00650393 -5.01867e-24)
(1.05971 0.00651975 -7.74173e-23)
(1.05372 -0.0236667 6.95989e-22)
(1.05378 -0.0137902 -1.66723e-22)
(1.05323 -0.0186305 5.02811e-22)
(1.05564 -0.0339876 -1.12419e-22)
(1.05433 -0.0287946 8.90651e-23)
(1.05898 -0.0447531 0)
(1.05723 -0.0392926 1.80085e-25)
(1.06288 -0.0560554 0)
(1.0609 -0.0503328 -4.84798e-26)
(1.0669 -0.0679538 0)
(1.06492 -0.0619107 0)
(1.07066 -0.0805072 0)
(1.06885 -0.0741325 0)
(1.07385 -0.0936897 0)
(1.07236 -0.0870073 0)
(1.07624 -0.107383 0)
(1.07518 -0.100465 0)
(1.07758 -0.121359 0)
(1.07708 -0.114335 0)
(1.07754 -0.135274 0)
(1.07778 -0.128331 0)
(1.07567 -0.148635 0)
(1.07689 -0.142041 0)
(1.07126 -0.160766 0)
(1.07385 -0.154886 0)
(1.06336 -0.170754 0)
(1.06784 -0.166077 0)
(1.05075 -0.177403 0)
(1.05776 -0.174563 0)
(1.03192 -0.179285 -9.13926e-23)
(1.04223 -0.179023 0)
(1.00516 -0.174691 7.13237e-22)
(1.01961 -0.177878 0)
(0.969528 -0.162244 1.78426e-22)
(0.98847 -0.169505 -6.89452e-22)
(0.925778 -0.14057 -4.2568e-21)
(0.94791 -0.152427 -1.73385e-22)
(0.62271 0.104887 -6.23946e-22)
(0.678632 0.107587 -1.89705e-21)
(1.04304 -0.00841284 0)
(0.680199 -0.00890941 1.36041e-21)
(1.06296 0.017185 -1.48159e-22)
(1.08134 0.0231973 2.8577e-22)
(0.613155 0.0467752 0)
(0.590446 0.0934482 2.28904e-21)
(0.901526 -0.126596 2.91093e-21)
(0.803245 -0.0773687 1.52529e-21)
(1.06723 -0.01324 -4.85632e-22)
(0.620044 0.124259 0)
(0.682733 0.124344 6.05843e-22)
(1.05467 -0.00892421 -1.2578e-21)
(1.06714 -0.00874289 1.27001e-21)
(0.873813 -0.109716 -2.79403e-21)
(0.734581 -0.0421022 0)
(1.03869 0.00583654 -7.45501e-23)
(1.04826 0.011235 -1.81644e-22)
(1.03726 -0.00164868 0)
(1.03508 0.00160446 9.56183e-24)
(1.05601 -0.00429291 0)
(1.04498 -0.00349501 0)
(0.739436 0.0880524 0)
(0.753848 0.119743 -1.9107e-21)
(0.74704 0.103688 1.21137e-21)
(0.730348 0.0567837 -1.73639e-21)
(0.733374 0.0723647 2.38029e-21)
(0.732233 0.0252217 6.75705e-22)
(0.730179 0.04098 -5.40055e-22)
(0.743752 -0.00487737 0)
(0.737174 0.00984574 0)
(0.761824 -0.0322868 0)
(0.752043 -0.0190105 0)
(0.784664 -0.0556451 0)
(0.772804 -0.0445644 0)
(0.809801 -0.0739631 0)
(0.79709 -0.0654783 0)
(0.835246 -0.0869311 0)
(0.822583 -0.0811255 0)
(0.859763 -0.0947123 0)
(0.847674 -0.0914556 0)
(0.8828 -0.0977618 0)
(0.871481 -0.0968017 0)
(0.904337 -0.0966532 0)
(0.893743 -0.097697 0)
(0.924702 -0.0919643 0)
(0.91464 -0.0947271 0)
(0.944365 -0.084233 0)
(0.934593 -0.0884511 0)
(0.963762 -0.0739688 0)
(0.954077 -0.0793887 0)
(0.983162 -0.0616949 0)
(0.973459 -0.0680501 0)
(1.00259 -0.0479883 0)
(0.992892 -0.0549815 0)
(1.02182 -0.0334898 0)
(1.01228 -0.0407921 0)
(1.04044 -0.0188777 0)
(1.03127 -0.0261505 0)
(1.05795 -0.00486644 0)
(1.04939 -0.0117472 0)
(1.07392 0.00790881 0)
(1.06607 0.00165872 4.92973e-24)
(1.08853 0.0191905 1.50803e-22)
(1.08134 0.0137415 7.45486e-23)
(1.10141 0.0287018 -5.61783e-22)
(1.09504 0.0241305 0)
(1.06831 -0.0225008 -1.73305e-22)
(1.0674 -0.0178237 1.62836e-22)
(1.07115 -0.0323165 0)
(1.06967 -0.0273319 1.69998e-22)
(1.07456 -0.0428007 0)
(1.07281 -0.0374631 0)
(1.07822 -0.0540102 0)
(1.07638 -0.0483089 0)
(1.08188 -0.0659776 0)
(1.08007 -0.0598908 0)
(1.08534 -0.0787175 0)
(1.08365 -0.0722475 0)
(1.08851 -0.0921701 0)
(1.08697 -0.0853554 0)
(1.09129 -0.106206 0)
(1.08995 -0.0991202 0)
(1.09359 -0.120627 0)
(1.09251 -0.113378 0)
(1.09521 -0.13515 0)
(1.09451 -0.127891 0)
(1.0958 -0.149383 0)
(1.09567 -0.142328 0)
(1.09477 -0.162779 0)
(1.09553 -0.156224 0)
(1.09131 -0.174571 0)
(1.09342 -0.168931 0)
(1.08427 -0.183719 0)
(1.08833 -0.179552 0)
(1.0722 -0.1889 0)
(1.07897 -0.186901 0)
(1.05338 -0.188494 0)
(1.06376 -0.189512 0)
(1.02584 -0.180834 6.69805e-22)
(1.04086 -0.185692 0)
(0.987767 -0.163841 3.3039e-22)
(1.00871 -0.173784 -8.17861e-22)
(0.942584 -0.13855 0)
(0.967706 -0.152808 1.38969e-21)
(0.689708 0.14103 3.87405e-21)
(0.763788 0.135755 -3.1941e-21)
(0.844707 -0.0910367 4.1574e-21)
(0.917819 -0.122856 4.89939e-21)
(0.647272 0.0163838 5.13172e-22)
(0.769356 -0.054841 -1.51714e-21)
(1.068 -0.00433829 1.23221e-21)
(0.587949 0.0724052 0)
(1.10706 0.032634 -1.35404e-22)
(1.12165 0.033403 2.76263e-22)
(1.12587 0.0366837 -1.34849e-22)
(0.577617 0.116499 -2.18853e-21)
(0.620272 0.143151 2.43264e-21)
(0.811357 -0.0697832 -6.59285e-23)
(0.698178 0.157925 -2.21455e-21)
(0.771002 0.152721 8.25418e-24)
(0.891216 -0.105247 -3.83099e-21)
(0.701498 -0.018187 -4.23008e-22)
(1.06949 0.0221886 2.7663e-22)
(1.08755 0.0276563 -2.60987e-22)
(1.04355 0.011057 6.94185e-23)
(1.05423 0.0165027 0)
(1.04014 0.00332249 2.88721e-22)
(1.03894 0.00672055 0)
(1.05702 0.000126711 1.48849e-22)
(1.04671 0.00112687 -4.41258e-22)
(0.822383 0.113818 1.85782e-21)
(0.835144 0.149028 -2.53149e-21)
(0.830708 0.130722 -6.23833e-22)
(0.80879 0.0823543 0)
(0.816344 0.0976854 -1.46459e-21)
(0.796442 0.0536662 0)
(0.80154 0.0677843 0)
(0.790484 0.0258403 0)
(0.792593 0.0395937 0)
(0.79161 -0.000366441 0)
(0.790159 0.0124834 0)
(0.799541 -0.0243961 0)
(0.794745 -0.0127036 0)
(0.813431 -0.0453896 0)
(0.805828 -0.0353469 0)
(0.831624 -0.0624262 0)
(0.822101 -0.0544556 0)
(0.852391 -0.0749654 0)
(0.84178 -0.0692855 0)
(0.874383 -0.0828547 0)
(0.863299 -0.079496 0)
(0.896736 -0.0862521 0)
(0.88555 -0.0851036 0)
(0.919035 -0.0855109 0)
(0.907905 -0.0863784 0)
(0.941169 -0.0810861 0)
(0.930123 -0.0837333 0)
(0.963167 -0.073488 0)
(0.952184 -0.0776539 0)
(0.985041 -0.0632756 0)
(0.974125 -0.0686739 0)
(1.00668 -0.0510688 0)
(0.995908 -0.0573812 0)
(1.02782 -0.0375523 0)
(1.01735 -0.0444288 0)
(1.04804 -0.0234562 0)
(1.03809 -0.0305273 0)
(1.06686 -0.0095137 0)
(1.05768 -0.0164145 0)
(1.0838 0.0035834 0)
(1.07562 -0.0028085 0)
(1.0985 0.0152988 1.1747e-24)
(1.09147 0.00962317 -1.17585e-24)
(1.11094 0.0252208 2.35972e-24)
(1.1052 0.02056 -9.84317e-25)
(1.11649 0.0295528 7.14291e-23)
(1.07973 -0.0124253 3.13364e-22)
(1.07956 -0.00416614 -1.50448e-21)
(1.07912 -0.00817634 5.99188e-22)
(1.08132 -0.0212269 4.17259e-23)
(1.08014 -0.0167734 4.28435e-23)
(1.08374 -0.0307959 0)
(1.08239 -0.0259163 0)
(1.08652 -0.0411412 0)
(1.08508 -0.0358614 0)
(1.08946 -0.0523149 0)
(1.08797 -0.0466196 0)
(1.09243 -0.0643236 0)
(1.09094 -0.0582135 0)
(1.09541 -0.0771318 0)
(1.09392 -0.0706294 0)
(1.09842 -0.0906584 0)
(1.09691 -0.0838099 0)
(1.10148 -0.10478 0)
(1.09994 -0.0976521 0)
(1.10458 -0.119332 0)
(1.10303 -0.112013 0)
(1.10762 -0.134097 0)
(1.10612 -0.126703 0)
(1.11032 -0.148774 0)
(1.10903 -0.141469 0)
(1.11228 -0.162932 0)
(1.11143 -0.155951 0)
(1.11279 -0.175951 0)
(1.11277 -0.169632 0)
(1.11088 -0.186962 0)
(1.11221 -0.181775 0)
(1.10526 -0.194801 0)
(1.10864 -0.191367 0)
(1.09428 -0.197988 0)
(1.10056 -0.197084 0)
(1.07609 -0.194892 0)
(1.08622 -0.19734 0)
(1.04854 -0.18374 0)
(1.06365 -0.190448 0)
(1.00999 -0.163481 -5.8596e-22)
(1.0308 -0.174832 0)
(0.966257 -0.134961 0)
(0.98815 -0.149994 -2.353e-21)
(0.7798 0.170893 1.27721e-21)
(0.843696 0.167796 -1.26975e-21)
(0.859342 -0.0848681 0)
(0.939496 -0.117381 0)
(1.06872 -0.000238264 0)
(0.613737 0.0434235 4.06143e-22)
(0.73326 -0.0311556 0)
(1.11179 0.0360447 -6.38767e-23)
(1.12986 0.0395351 -2.61226e-22)
(0.563818 0.0984625 -4.89174e-22)
(0.774792 -0.0461298 -7.32062e-22)
(0.567369 0.138717 -5.86714e-22)
(0.624068 0.161798 9.02195e-22)
(0.70611 0.17534 0)
(1.08947 -0.00389543 2.91378e-22)
(0.819329 -0.0600633 2.40862e-21)
(0.785783 0.189813 3.46728e-21)
(0.847297 0.188138 2.69254e-21)
(0.908616 -0.0976247 5.60944e-22)
(1.07991 -0.000281598 0)
(1.08949 -0.000290419 -8.68783e-22)
(0.66426 0.00798471 6.22392e-22)
(1.07492 0.0264896 0)
(1.09292 0.031585 -1.6735e-23)
(1.04876 0.0160842 -3.42718e-23)
(1.05973 0.0211932 3.28225e-23)
(1.04314 0.00797612 -1.73393e-23)
(1.04312 0.0116325 0)
(1.05831 0.00415926 0)
(1.04876 0.0055538 1.76434e-23)
(1.08091 0.00331975 -1.12001e-21)
(1.06972 0.0035788 5.62543e-22)
(0.890394 0.146147 1.21322e-21)
(0.898139 0.187096 1.18275e-21)
(0.895616 0.165972 2.35922e-23)
(0.88287 0.109385 7.82376e-24)
(0.887 0.1273 0)
(0.873395 0.0769059 0)
(0.878299 0.09257 8.78094e-22)
(0.863523 0.0486039 -5.61948e-22)
(0.868515 0.0623429 7.00015e-22)
(0.855864 0.0229362 0)
(0.859308 0.0354071 0)
(0.852155 -0.000135167 0)
(0.853402 0.0110957 0)
(0.853663 -0.0208884 0)
(0.852203 -0.0108128 0)
(0.860734 -0.0390173 0)
(0.856513 -0.0303263 0)
(0.872771 -0.0539053 0)
(0.866189 -0.0469118 0)
(0.888681 -0.0650261 0)
(0.880311 -0.0599695 0)
(0.907333 -0.0720831 0)
(0.897727 -0.0690784 0)
(0.927783 -0.0750399 0)
(0.917381 -0.0740739 0)
(0.949345 -0.0740823 0)
(0.938459 -0.0750376 0)
(0.97154 -0.0695629 0)
(0.960389 -0.0722451 0)
(0.993993 -0.0619619 0)
(0.982758 -0.0661166 0)
(1.01634 -0.0518649 0)
(1.00521 -0.057187 0)
(1.03817 -0.0399467 0)
(1.02735 -0.0460889 0)
(1.05899 -0.0269451 0)
(1.04874 -0.0335328 0)
(1.07829 -0.0136178 0)
(1.06887 -0.0202729 0)
(1.09559 -0.00068643 0)
(1.08724 -0.00705533 0)
(1.1105 0.0112161 0)
(1.10343 0.00543906 0)
(1.12278 0.0216176 -1.49604e-22)
(1.11715 0.0166497 1.47557e-22)
(1.13262 0.0302443 6.10976e-23)
(1.12821 0.0261819 -8.09982e-23)
(1.14022 0.0369938 0)
(1.13671 0.0338707 3.42781e-23)
(1.14568 0.0418699 5.39532e-22)
(1.1431 0.0396617 1.15961e-22)
(1.08976 -0.0116993 1.58419e-22)
(1.08932 -0.00771456 -3.0709e-22)
(1.09103 -0.0202326 -4.18448e-23)
(1.09024 -0.0158609 -1.95601e-22)
(1.09269 -0.0296363 0)
(1.09178 -0.0248323 0)
(1.09459 -0.0398939 0)
(1.0936 -0.0346552 0)
(1.09666 -0.0510145 0)
(1.0956 -0.0453455 0)
(1.09893 -0.0629693 0)
(1.09777 -0.0568892 0)
(1.10145 -0.0756945 0)
(1.10015 -0.069239 0)
(1.10432 -0.0891008 0)
(1.10284 -0.0823173 0)
(1.10763 -0.103079 0)
(1.10592 -0.0960246 0)
(1.11141 -0.117501 0)
(1.10946 -0.110243 0)
(1.1156 -0.132202 0)
(1.11346 -0.124828 0)
(1.12007 -0.146956 0)
(1.11781 -0.139589 0)
(1.12449 -0.161433 0)
(1.12231 -0.154255 0)
(1.12837 -0.175144 0)
(1.12654 -0.168424 0)
(1.13092 -0.187378 0)
(1.12987 -0.181502 0)
(1.13104 -0.19715 0)
(1.13137 -0.192649 0)
(1.12727 -0.203159 0)
(1.12975 -0.200721 0)
(1.11781 -0.203842 0)
(1.12338 -0.204281 0)
(1.10054 -0.197526 0)
(1.11029 -0.201662 0)
(1.07355 -0.182952 0)
(1.08839 -0.191373 0)
(1.03584 -0.159022 -1.05106e-21)
(1.05582 -0.172136 5.46338e-22)
(0.989353 -0.127792 4.1993e-21)
(1.01459 -0.144401 -1.01639e-21)
(0.87518 -0.0766011 0)
(0.963482 -0.110798 -2.1816e-21)
(0.851008 0.209403 -1.23947e-21)
(0.901456 0.208925 -6.26939e-23)
(0.581563 0.0703664 -4.45805e-22)
(0.694592 -0.00500932 7.00207e-22)
(1.09029 0.00315458 -5.38724e-22)
(0.542053 0.124224 5.01278e-22)
(0.733285 -0.0191847 -3.29869e-22)
(1.14769 0.0436188 -2.55067e-22)
(1.15849 0.0430761 -6.51861e-23)
(1.15914 0.0443441 9.64115e-23)
(0.561452 0.160265 -5.60531e-22)
(0.782804 -0.0355597 -2.41271e-21)
(0.628 0.179883 -1.22062e-21)
(0.847179 -0.0563363 0)
(0.713867 0.193247 -1.24541e-21)
(0.791024 0.210172 0)
(0.855066 0.231612 -2.23406e-21)
(0.904728 0.23175 2.06714e-21)
(0.62769 0.0347038 -2.04427e-22)
(1.11624 0.0389242 -6.45651e-23)
(1.13312 0.0418126 0)
(1.08076 0.0305129 1.29365e-22)
(1.09826 0.0350635 0)
(1.05356 0.0205065 0)
(1.06516 0.0254976 -1.60059e-22)
(1.04634 0.0123946 0)
(1.04721 0.0161047 0)
(1.05963 0.0080017 -1.04527e-24)
(1.05091 0.00970243 0)
(1.08161 0.00666885 0)
(1.07057 0.00710599 0)
(0.939979 0.186102 -1.05716e-21)
(0.945437 0.230952 0)
(0.942412 0.208031 -1.21656e-23)
(0.935882 0.144609 0)
(0.937666 0.164892 -5.33583e-22)
(0.931683 0.106821 0)
(0.93365 0.125071 0)
(0.927558 0.0734947 5.50054e-22)
(0.929869 0.0895388 0)
(0.922517 0.0446627 0)
(0.925167 0.0585176 -6.77497e-22)
(0.917492 0.0198304 0)
(0.919893 0.031763 0)
(0.914068 -0.00150591 0)
(0.915476 0.00875505 0)
(0.913692 -0.0198716 0)
(0.913412 -0.0110441 0)
(0.917385 -0.0354277 0)
(0.914986 -0.028015 0)
(0.925431 -0.0479714 0)
(0.920867 -0.0421024 0)
(0.93748 -0.0571897 0)
(0.930988 -0.053022 0)
(0.952845 -0.0628306 0)
(0.944794 -0.0604742 0)
(0.97073 -0.0648052 0)
(0.961519 -0.0642803 0)
(0.990375 -0.0632195 0)
(0.980377 -0.0644484 0)
(1.01109 -0.0583657 0)
(1.00064 -0.0611802 0)
(1.03223 -0.050698 0)
(1.02164 -0.0548523 0)
(1.05317 -0.0408042 0)
(1.04277 -0.0459896 0)
(1.07332 -0.0293705 0)
(1.06339 -0.0352344 0)
(1.09208 -0.0171341 0)
(1.08291 -0.023305 0)
(1.10892 -0.00482547 0)
(1.10077 -0.010943 0)
(1.12343 0.00688839 0)
(1.1165 0.00114491 0)
(1.13537 0.0174644 0)
(1.12976 0.0123477 0)
(1.14466 0.0265025 0)
(1.14039 0.022198 0)
(1.15138 0.0338198 1.73342e-23)
(1.14842 0.0303841 0)
(1.15586 0.0393111 1.35135e-22)
(1.15395 0.0368034 -1.66345e-22)
(1.15739 0.0414042 6.48167e-23)
(1.0968 -0.00382361 0)
(1.09745 0.00284879 1.35878e-21)
(1.09686 -0.000364536 -5.52956e-22)
(1.09677 -0.0113054 0)
(1.09655 -0.0074593 0)
(1.09726 -0.0196841 0)
(1.09693 -0.0153883 0)
(1.09802 -0.0289561 0)
(1.09759 -0.0242114 0)
(1.09904 -0.0391075 0)
(1.09849 -0.0339232 0)
(1.10035 -0.0501045 0)
(1.09965 -0.0445021 0)
(1.10204 -0.0618906 0)
(1.10114 -0.0559019 0)
(1.10422 -0.0743889 0)
(1.10306 -0.0680546 0)
(1.10703 -0.087512 0)
(1.10554 -0.0808766 0)
(1.11056 -0.101168 0)
(1.1087 -0.094278 0)
(1.11488 -0.115256 0)
(1.11262 -0.108164 0)
(1.11999 -0.129654 0)
(1.11734 -0.122425 0)
(1.12581 -0.144192 0)
(1.12282 -0.136918 0)
(1.13217 -0.158618 0)
(1.12894 -0.151439 0)
(1.13872 -0.172551 0)
(1.13545 -0.165677 0)
(1.14489 -0.185426 0)
(1.14189 -0.179166 0)
(1.14982 -0.196432 0)
(1.14758 -0.191226 0)
(1.1523 -0.204474 0)
(1.15146 -0.200906 0)
(1.15072 -0.208164 0)
(1.15214 -0.206966 0)
(1.1431 -0.20596 0)
(1.1478 -0.207898 0)
(1.12734 -0.196429 0)
(1.13639 -0.202215 0)
(1.10126 -0.178475 0)
(1.11571 -0.188531 0)
(1.06362 -0.152262 -4.58343e-22)
(1.08411 -0.166489 0)
(1.04032 -0.136032 -1.82686e-21)
(0.907584 0.255157 -1.10281e-21)
(0.950044 0.25412 -9.64049e-22)
(1.09104 0.00636036 5.51803e-22)
(0.549413 0.0987912 -2.58081e-23)
(0.653248 0.0230166 0)
(1.14914 0.0449245 -1.86783e-22)
(1.1595 0.0452099 3.1132e-23)
(0.523937 0.148921 2.44957e-23)
(0.690878 0.00835896 3.31569e-22)
(0.557723 0.180476 0)
(0.743521 -0.0110807 0)
(0.635024 0.19763 0)
(0.838727 -0.0442899 0)
(0.721087 0.212174 2.42417e-21)
(0.795832 0.23148 0)
(0.857521 0.25494 3.3e-21)
(0.88904 -0.0546968 -9.53193e-22)
(1.10213 0.00241075 -5.6874e-22)
(0.911881 0.2791 1.89978e-21)
(0.954531 0.277854 0)
(1.09824 0.00589408 7.93016e-22)
(1.10288 0.00532648 -2.63824e-22)
(0.588449 0.0638179 0)
(1.11943 0.0412095 0)
(1.13559 0.043608 3.08418e-22)
(1.08521 0.0337406 0)
(1.10215 0.0378372 0)
(1.05829 0.0245104 0)
(1.07002 0.0291895 0)
(1.04968 0.016439 0)
(1.05134 0.0201956 0)
(1.06113 0.0116148 1.02924e-24)
(1.05326 0.0135782 0)
(1.08235 0.00972624 -3.23329e-22)
(1.0715 0.0104086 3.26614e-23)
(1.0992 0.00868371 -5.10943e-22)
(1.09194 0.00924125 7.8219e-22)
(0.9794 0.228779 2.28837e-22)
(0.989889 0.274653 -7.84827e-22)
(0.984168 0.251593 7.83849e-22)
(0.973663 0.184878 4.80096e-22)
(0.976041 0.206603 -7.01725e-22)
(0.97097 0.143716 -5.1135e-22)
(0.972121 0.163896 5.12736e-22)
(0.970019 0.105978 0)
(0.970422 0.124299 5.05796e-22)
(0.96965 0.072379 0)
(0.969794 0.0886369 0)
(0.96922 0.0432376 0)
(0.969469 0.0572537 0)
(0.968634 0.0184612 0)
(0.968914 0.0303032 0)
(0.96849 -0.00220277 0)
(0.968449 0.00763248 0)
(0.969734 -0.019235 0)
(0.968868 -0.0111524 0)
(0.973357 -0.0329852 0)
(0.971188 -0.0265139 0)
(0.980034 -0.0435761 0)
(0.976286 -0.0386821 0)
(0.989941 -0.0509666 0)
(0.984586 -0.0476833 0)
(1.00284 -0.0550736 0)
(0.996039 -0.0534401 0)
(1.0182 -0.0558813 0)
(1.01025 -0.0558913 0)
(1.03537 -0.0535112 0)
(1.0266 -0.055084 0)
(1.05362 -0.0482477 0)
(1.04441 -0.0512202 0)
(1.07221 -0.040534 0)
(1.06292 -0.0446658 0)
(1.09044 -0.0309445 0)
(1.08142 -0.0359345 0)
(1.10762 -0.0201431 0)
(1.0992 -0.0256514 0)
(1.12317 -0.00882461 0)
(1.11564 -0.014504 0)
(1.13663 0.00234005 0)
(1.13019 -0.00318189 0)
(1.14768 0.0127695 0)
(1.14247 0.00767998 0)
(1.15621 0.0220106 0)
(1.15227 0.017563 0)
(1.16226 0.0297587 0)
(1.15954 0.0260853 0)
(1.166 0.0358684 0)
(1.1644 0.0330267 0)
(1.16772 0.0403219 1.48359e-22)
(1.16705 0.0382931 -1.30534e-22)
(1.16778 0.0431876 4.67921e-23)
(1.1679 0.0419394 -1.59549e-23)
(1.16666 0.0445868 3.79908e-24)
(1.16734 0.0440578 2.59161e-22)
(1.10111 -0.00399196 0)
(1.10158 -0.000701304 3.43558e-22)
(1.10052 -0.011338 0)
(1.10076 -0.00756585 0)
(1.10021 -0.0195819 0)
(1.10032 -0.0153515 0)
(1.10019 -0.0287174 0)
(1.10015 -0.0240413 0)
(1.1005 -0.038707 0)
(1.10029 -0.0336081 0)
(1.10125 -0.0494935 0)
(1.10081 -0.0440037 0)
(1.10255 -0.0610044 0)
(1.10182 -0.0551619 0)
(1.10454 -0.0731596 0)
(1.10345 -0.0670052 0)
(1.10735 -0.0858785 0)
(1.10584 -0.0794522 0)
(1.11109 -0.0990837 0)
(1.1091 -0.0924239 0)
(1.11582 -0.112695 0)
(1.11333 -0.105843 0)
(1.1216 -0.126619 0)
(1.11858 -0.119624 0)
(1.12841 -0.140722 0)
(1.12488 -0.133657 0)
(1.13617 -0.154809 0)
(1.13218 -0.147783 0)
(1.14467 -0.168583 0)
(1.14034 -0.161759 0)
(1.15356 -0.181594 0)
(1.1491 -0.17522 0)
(1.16222 -0.193191 0)
(1.15797 -0.187621 0)
(1.16972 -0.202471 0)
(1.16619 -0.19819 0)
(1.17474 -0.208258 0)
(1.17264 -0.205888 0)
(1.17556 -0.209185 0)
(1.1758 -0.209423 0)
(1.17016 -0.203825 0)
(1.17378 -0.207388 0)
(1.15654 -0.191152 0)
(1.16448 -0.19843 0)
(1.13273 -0.170647 0)
(1.14623 -0.182048 0)
(1.08771 -0.138829 0)
(1.11366 -0.156258 3.73566e-22)
(0.959651 0.301897 0)
(0.996195 0.298127 5.79629e-22)
(0.914892 -0.0517223 3.79477e-21)
(1.0044 -0.0760491 3.22321e-21)
(0.520252 0.125921 4.9464e-22)
(0.610894 0.051408 0)
(1.1039 0.00799302 -5.10639e-22)
(0.508847 0.172454 -5.21738e-22)
(0.647154 0.0349043 0)
(1.16562 0.0447946 -1.45771e-23)
(1.17049 0.0432082 -2.97518e-23)
(1.16876 0.043216 2.98385e-23)
(0.557391 0.199897 0)
(0.707423 0.00999525 -3.09916e-22)
(0.640771 0.215823 -1.44971e-21)
(0.766215 -0.00844242 2.28356e-21)