/*--------------------------------*- C++ -*----------------------------------*\
  =========                 |
  \\      /  F ield         | OpenFOAM: The Open Source CFD Toolbox
   \\    /   O peration     | Website:  https://openfoam.org
    \\  /    A nd           | Version:  10
     \\/     M anipulation  |
\*---------------------------------------------------------------------------*/
FoamFile
{
    format      ascii;
    class       volVectorField;
    location    "14.5";
    object      U;
}
// * * * * * * * * * * * * * * * * * * * * * * * * * * * * * * * * * * * * * //

dimensions      [0 1 -1 0 0 0 0];

internalField   nonuniform List<vector> 
28942
(
(-0.112206 0.072133 -4.22587e-20)
(-0.111493 0.0817819 -8.86749e-21)
(0.437091 -0.307667 2.60148e-20)
(1.01585 0.0415754 -1.04495e-19)
(0.994219 0.051521 3.4398e-20)
(0.28218 0.0110014 0)
(0.345819 0.0334942 -3.51061e-22)
(0.385308 0.0086428 4.78751e-22)
(1.22362 -0.190577 1.01194e-22)
(1.21422 -0.175943 8.14878e-22)
(-0.0907517 -0.124018 -8.81533e-20)
(-0.0719112 -0.110427 4.03606e-20)
(-0.0871627 -0.0845726 0)
(-0.0889074 -0.0913373 0)
(0.763187 -0.0135736 -4.41878e-23)
(0.757075 -0.010711 -5.83041e-23)
(0.93291 0.109458 3.06251e-20)
(0.91638 0.0942226 4.92273e-20)
(0.314995 -0.428856 9.55573e-20)
(0.607941 -0.692925 -2.67273e-20)
(0.989448 0.252609 3.99008e-20)
(0.990432 0.237532 0)
(0.010101 -0.0297652 8.3534e-20)
(-0.0644803 -0.0354746 4.6629e-20)
(0.548882 -0.151386 9.03696e-20)
(0.905864 -0.271587 -8.21391e-20)
(0.188434 -0.430986 4.82174e-19)
(0.195656 -0.357317 -1.85148e-19)
(0.711438 -0.520045 6.79266e-21)
(0.430454 -0.300764 1.53188e-21)
(0.282461 -0.0186865 0)
(0.369207 -0.025574 9.30747e-22)
(0.467532 -0.00633386 8.87107e-21)
(0.628112 -0.0173352 5.81353e-23)
(0.445571 0.486959 2.52113e-20)
(0.373799 0.537853 -2.10324e-20)
(0.591254 0.703388 -1.23062e-19)
(0.383231 0.632552 -4.99507e-20)
(0.146529 0.0139463 4.70135e-22)
(0.205565 0.490946 -7.81252e-20)
(0.657737 -0.0597226 0)
(0.856706 -0.0777758 0)
(1.52677 -0.0553634 3.62487e-21)
(1.52346 -0.0733039 -1.2054e-20)
(1.53448 -0.0621952 -9.13899e-21)
(0.537564 0.0116381 -1.5464e-22)
(0.508129 0.0237433 2.21877e-22)
(0.670021 0.0121651 1.44086e-21)
(0.651297 0.0116806 -4.05367e-22)
(0.555095 0.0107824 -3.82207e-21)
(0.459381 0.00372139 2.48812e-21)
(1.17939 -0.0437075 6.3205e-21)
(1.17487 -0.0484314 4.30283e-21)
(1.21609 -0.204008 -8.99757e-23)
(1.20517 -0.189374 8.68206e-22)
(1.17633 -0.248136 7.32026e-20)
(1.43279 -0.350581 3.92082e-20)
(-0.0682109 -0.053018 -5.48143e-20)
(-0.0794977 -0.0719889 0)
(-0.0700242 -0.0567916 1.97943e-20)
(-0.0627119 -0.044615 4.80777e-20)
(-0.0277964 -0.0205199 -3.83377e-20)
(-0.0264304 -0.0204374 -4.00897e-20)
(1.29246 -0.59424 0)
(1.41699 -0.536723 1.43329e-20)
(1.32454 -0.478117 -5.93045e-21)
(1.26512 -0.469329 0)
(0.926535 -0.228435 -2.91565e-20)
(0.945203 -0.250164 -1.89998e-20)
(-0.0687237 0.0494456 1.40404e-19)
(-0.0839276 0.0538772 -4.45984e-20)
(-0.108066 0.0810297 1.12156e-19)
(0.917169 -0.313503 0)
(0.935567 -0.27815 1.01282e-19)
(0.8661 -0.426626 2.66578e-20)
(1.42151 0.332209 4.99867e-20)
(1.45014 0.313764 -5.41779e-20)
(1.43065 0.275957 -3.59499e-20)
(0.134282 -0.0768441 1.06886e-21)
(0.190147 -0.121402 -3.13373e-20)
(0.946355 -0.605148 -3.59719e-21)
(0.686286 -0.475536 1.09246e-20)
(-0.0780483 0.0465689 2.38632e-19)
(-0.0830534 0.0474841 -9.17421e-20)
(1.24566 0.602341 -6.01382e-21)
(1.18155 0.571928 -1.40523e-20)
(1.07591 0.672622 8.96712e-21)
(0.925583 0.658483 -3.1738e-20)
(0.882997 0.631268 2.17797e-20)
(0.660664 0.457094 -4.90676e-23)
(0.726721 0.548539 -7.82878e-21)
(0.767984 0.632364 1.32806e-20)
(-0.125652 -0.166688 -1.20452e-20)
(-0.108607 -0.177015 -3.04247e-21)
(-0.0983127 -0.126998 6.09677e-21)
(-0.107081 -0.132031 -8.5692e-20)
(-0.111862 -0.131584 1.08806e-19)
(0.369772 0.293479 -5.01135e-20)
(0.417467 0.360386 1.00599e-20)
(-0.0212551 0.0197314 0)
(1.00712 0.00411767 0)
(0.965137 0.0529707 -7.96623e-20)
(0.891231 0.135029 5.68071e-20)
(1.08126 0.117511 0)
(1.37491 0.120025 0)
(1.37572 0.117032 0)
(1.38861 0.120517 6.43364e-20)
(1.08603 0.18691 -5.9286e-21)
(1.08248 0.198613 6.3929e-20)
(1.07565 0.176412 3.35392e-20)
(-0.0682964 -0.0581946 1.10288e-19)
(-0.0654815 -0.0581318 -1.2376e-19)
(0.00813219 0.0612008 -7.68175e-20)
(-0.0155382 0.0475684 7.32955e-20)
(-0.108722 0.0692699 1.41593e-19)
(0.164478 0.249799 8.07828e-20)
(0.380503 0.2469 1.9766e-19)
(0.292496 0.466562 1.58277e-20)
(0.130552 0.363889 -4.69422e-19)
(1.26688 0.478158 9.77372e-22)
(1.12577 0.458069 2.61417e-20)
(1.16422 0.4409 -4.52001e-20)
(0.78648 -0.616314 1.47368e-20)
(0.532225 -0.389808 -7.35705e-21)
(0.159603 0.00849441 -2.44319e-19)
(0.146236 -0.067299 0)
(0.307049 -0.0360264 1.31166e-19)
(0.49751 -0.384817 1.67889e-20)
(0.711855 -0.607045 -3.9317e-20)
(0.638702 0.0141917 -1.67593e-21)
(0.672793 0.012863 5.94328e-22)
(0.598421 0.0127855 5.02487e-23)
(0.496274 -0.752187 0)
(0.52418 -0.585901 0)
(1.06246 -0.132312 -1.23608e-20)
(1.04871 -0.113617 7.07006e-20)
(1.03247 -0.0809801 0)
(0.809088 -0.721853 0)
(0.811972 -0.666824 -3.28331e-20)
(0.742019 0.735581 7.63959e-20)
(-0.0443531 -0.0447075 7.70525e-20)
(-0.0389842 -0.036061 -5.79099e-20)
(0.540105 -0.500417 -1.87297e-20)
(1.51597 -0.0413331 -4.61146e-20)
(1.52353 -0.0604801 9.1449e-21)
(1.42338 -0.296707 -1.17933e-20)
(1.41945 -0.284922 1.57717e-20)
(1.43963 -0.272039 5.59375e-20)
(-0.0401121 -0.0325059 2.6522e-20)
(0.851349 0.710773 8.62241e-20)
(0.98372 0.689535 -2.59394e-20)
(1.05947 0.729007 7.57545e-23)
(0.442526 -0.0125495 -2.3185e-22)
(0.441033 -0.0139607 -2.03675e-21)
(0.48377 -0.018031 -2.14899e-22)
(0.526828 -0.0161591 5.33317e-22)
(0.800363 0.705138 1.73609e-20)
(0.434593 0.41642 0)
(-0.0363454 0.00863092 6.69311e-20)
(-0.050627 0.0384921 -7.41517e-20)
(-0.102421 0.0158442 5.93447e-20)
(0.468427 0.0745771 -1.68879e-19)
(0.998165 0.245108 -8.22195e-20)
(0.597199 -0.0168579 2.76704e-22)
(1.17462 -0.446881 1.74116e-20)
(1.1387 -0.521593 4.02634e-20)
(0.97059 0.277241 9.30435e-20)
(0.953087 0.31416 7.82337e-21)
(0.930578 0.195846 5.40061e-20)
(0.947941 0.202438 -3.90114e-20)
(0.995387 0.278217 0)
(1.14483 0.0547614 -3.514e-22)
(1.15026 0.0536802 -1.56506e-21)
(1.17431 -0.134197 -9.85718e-22)
(1.18654 -0.139725 9.72692e-22)
(1.09788 0.176049 6.35288e-21)
(1.11077 0.184834 -1.75309e-20)
(1.09837 0.186935 0)
(1.08571 0.176095 4.30924e-21)
(1.09632 0.197971 0)
(1.10091 0.253122 -1.62141e-20)
(1.09439 0.267018 -9.63568e-21)
(1.07145 0.291273 -1.87777e-20)
(1.08446 0.280071 0)
(1.10475 0.300751 5.5922e-20)
(1.0879 0.314845 2.92884e-21)
(1.05494 0.307889 -1.15731e-20)
(1.00221 0.363191 -5.14013e-20)
(1.00134 0.304859 -9.17061e-21)
(-0.0667696 -0.0898264 3.73238e-20)
(0.0417097 -0.0764249 -1.51391e-20)
(-0.11314 0.0727399 -1.04809e-19)
(0.577282 0.0109191 1.72553e-21)
(0.706114 0.0120885 0)
(-0.024904 0.0128094 7.30862e-20)
(-0.0276722 0.0164159 3.76965e-20)
(0.6595 0.0126747 1.7741e-22)
(0.746177 0.0123435 3.16638e-23)
(0.739807 0.0129011 0)
(0.646708 0.0151563 -4.30754e-23)
(0.369426 -0.325058 -1.96766e-21)
(0.379921 -0.337134 8.9111e-21)
(0.382233 -0.329412 4.02608e-21)
(-0.0589199 -0.0526989 4.77561e-20)
(-0.0191937 -0.0160219 -6.1077e-20)
(-0.0204448 -0.0161746 5.90424e-20)
(-0.0511873 -0.0335146 0)
(-0.0229029 -0.0139002 8.14605e-20)
(-0.0220964 -0.0148982 -7.08144e-20)
(-0.0637614 -0.013512 -7.34158e-20)
(-0.0860061 -0.0348385 -7.52279e-20)
(-0.0505179 -0.0229109 0)
(0.0560591 0.237573 0)
(0.0256865 0.141971 0)
(0.00956465 0.0809574 0)
(1.36215 0.113199 -8.84998e-21)
(1.34901 0.106419 0)
(1.36287 0.109121 9.7113e-21)
(0.921599 -0.0917362 2.02908e-19)
(0.935299 -0.0988569 -7.36927e-20)
(0.932193 -0.079713 0)
(0.820165 0.0945424 -1.12253e-22)
(0.845494 0.114051 2.38271e-22)
(0.795094 0.0733065 -8.13375e-23)
(0.868369 0.130329 0)
(0.890385 0.144648 -1.3912e-22)
(0.911424 0.156535 0)
(0.863555 0.135867 0)
(0.92834 0.165005 6.82642e-22)
(0.880545 0.145886 0)
(0.842572 0.122319 -1.75487e-22)
(0.821363 0.106826 0)
(0.798265 0.0888749 1.03873e-22)
(0.773624 0.0679619 -1.31172e-22)
(0.749348 0.045403 8.12296e-23)
(0.942443 0.171159 -6.53201e-22)
(0.895665 0.15383 -2.52882e-23)
(0.768131 0.0492801 8.72798e-24)
(0.724849 0.0209104 -1.32027e-22)
(0.740164 0.0225996 5.6581e-22)
(0.955997 0.175767 6.3209e-25)
(0.910843 0.160489 -2.6795e-23)
(0.699738 -0.00579155 2.72883e-22)
(0.967884 0.178545 6.87862e-22)
(0.978339 0.179761 -6.87328e-22)
(0.924273 0.165231 5.24373e-23)
(0.936195 0.168284 1.08033e-22)
(0.714982 -0.00340005 -5.50545e-22)
(0.676081 -0.0333343 -1.80607e-22)
(0.987152 0.179556 0)
(0.946435 0.169807 -1.06576e-22)
(0.686055 -0.0338182 8.09685e-26)
(0.653622 -0.0619322 -8.11627e-26)
(0.994609 0.17816 0)
(0.955207 0.170022 0)
(0.659635 -0.0643415 0)
(0.633451 -0.090652 0)
(1.00062 0.175716 0)
(0.962464 0.169101 5.3052e-23)
(0.634095 -0.095568 -3.23955e-22)
(0.616078 -0.118975 -8.99072e-26)
(1.00542 0.172432 2.77043e-24)
(0.968388 0.167232 -5.66483e-23)
(0.611145 -0.126397 3.25411e-22)
(0.602305 -0.146153 0)
(1.00905 0.168432 0)
(0.973049 0.164575 0)
(0.591078 -0.156196 -2.60567e-23)
(0.592615 -0.171618 5.13954e-22)
(1.01149 0.163897 3.43668e-22)
(0.976424 0.16127 0)
(0.57471 -0.184366 -7.16609e-23)
(0.587438 -0.195005 -4.90407e-22)
(1.01319 0.158901 -5.13737e-22)
(0.978942 0.157466 -1.49459e-22)
(0.562355 -0.211135 4.1218e-22)
(0.586622 -0.21609 0)
(1.01334 0.15361 1.69035e-22)
(0.980061 0.153182 9.95989e-23)
(0.554966 -0.234382 -2.5208e-22)
(0.590649 -0.234652 5.57194e-22)
(1.01384 0.148078 -6.69793e-22)
(0.981374 0.14858 7.54932e-22)
(0.552784 -0.255911 2.20542e-22)
(0.598081 -0.251061 9.26569e-24)
(1.01286 0.142277 0)
(0.982085 0.143614 3.52865e-22)
(0.555193 -0.273607 -5.51295e-22)
(0.609526 -0.265563 1.17618e-21)
(1.01103 0.136245 0)
(0.981234 0.138434 0)
(0.529709 -0.249058 -2.18251e-22)
(0.520202 -0.271592 -7.91875e-22)
(0.562189 -0.289154 0)
(0.623654 -0.278814 -6.2962e-22)
(0.563384 -0.19434 -8.91837e-23)
(0.543904 -0.222869 2.10448e-23)
(0.612108 -0.13177 0)
(0.586027 -0.163813 -3.57681e-22)
(0.670117 -0.0659014 -5.59478e-25)
(0.640357 -0.0989358 0)
(0.731958 -0.00203574 0)
(0.701182 -0.0333174 0)
(0.79221 0.0546816 0)
(0.763793 0.0280331 0)
(0.847439 0.101963 1.1973e-22)
(0.820939 0.0799141 3.12726e-23)
(0.897577 0.139362 -1.24829e-22)
(0.872993 0.121972 -1.03431e-22)
(0.938657 0.165259 2.84312e-22)
(0.917988 0.15307 3.00513e-22)
(0.973545 0.181633 0)
(0.957684 0.174847 0)
(0.999105 0.18898 -1.46451e-24)
(0.987267 0.186298 0)
(1.0178 0.189347 0)
(1.00923 0.189905 0)
(1.03073 0.1846 0)
(1.02493 0.187513 0)
(1.03878 0.17621 0)
(1.03532 0.180771 0)
(1.04278 0.165431 0)
(1.0413 0.171035 0)
(1.04329 0.153285 0)
(1.04362 0.159438 0)
(1.04044 0.140361 -2.67966e-22)
(1.04295 0.146873 0)
(1.03803 0.133717 -8.48908e-23)
(1.00777 0.130348 8.2298e-23)
(0.979064 0.133129 -8.16142e-23)
(0.950316 0.148374 0)
(0.951895 0.139805 -3.30491e-22)
(0.951595 0.144293 -1.80278e-22)
(0.946263 0.155308 5.01402e-23)
(0.948763 0.152056 -1.93368e-22)
(0.93872 0.160136 1.64544e-24)
(0.942989 0.158 0)
(0.926354 0.162041 0)
(0.933159 0.161515 0)
(0.908497 0.15982 0)
(0.918138 0.161525 0)
(0.884673 0.152074 0)
(0.897341 0.156726 2.14829e-28)
(0.854883 0.137466 1.75809e-24)
(0.870508 0.145683 0)
(0.819838 0.115271 0)
(0.837886 0.127361 0)
(0.779966 0.0841219 0)
(0.799764 0.100419 0)
(0.736514 0.0440381 0)
(0.758567 0.0653166 -9.96004e-23)
(0.694442 -0.00274725 1.97938e-23)
(0.714599 0.0208369 -1.46914e-22)
(0.656493 -0.0546936 0)
(0.674492 -0.028277 -1.15074e-22)
(0.629577 -0.106153 0)
(0.641436 -0.080656 0)
(0.617964 -0.153204 0)
(0.62164 -0.130508 0)
(0.623821 -0.192588 0)
(0.618749 -0.173938 0)
(0.644571 -0.224205 -1.45088e-22)
(0.6325 -0.209196 0)
(0.673628 -0.25148 -6.39293e-22)
(0.658096 -0.238097 -1.67498e-22)
(0.689363 -0.265159 6.4367e-22)
(0.515896 -0.290841 8.08552e-22)
(1.03451 0.127196 1.65176e-22)
(0.951356 0.134996 -3.00247e-22)
(0.638485 -0.291675 0)
(0.703809 -0.279612 0)
(0.516061 -0.3068 0)
(0.572528 -0.302369 0)
(0.532578 -0.230697 0)
(0.494202 -0.281023 8.78721e-23)
(0.511153 -0.257596 1.68341e-22)
(0.587252 -0.168461 1.4078e-22)
(0.558172 -0.200624 -2.97643e-23)
(0.650632 -0.10127 2.22816e-25)
(0.618196 -0.135233 0)
(0.718194 -0.0333104 0)
(0.684215 -0.0670403 0)
(0.78511 0.030138 0)
(0.752105 -0.000738946 0)
(0.847366 0.0851451 0)
(0.817241 0.0588763 0)
(0.901924 0.129208 0)
(0.876217 0.108853 0)
(0.948861 0.162118 -5.03044e-25)
(0.926366 0.147127 1.17863e-22)
(0.985491 0.183459 -5.20396e-25)
(0.967727 0.173895 -2.76203e-22)
(1.01454 0.195235 0)
(1.00108 0.190475 0)
(1.03575 0.198936 7.14639e-25)
(1.02604 0.197988 0)
(1.0505 0.196287 0)
(1.04385 0.198287 0)
(1.06005 0.189047 0)
(1.05586 0.193143 0)
(1.06544 0.178633 0)
(1.06321 0.184156 0)
(1.06751 0.166193 0)
(1.06685 0.172595 0)
(1.0669 0.152634 0)
(1.06751 0.159485 0)
(1.06368 0.138479 1.83054e-22)
(1.06571 0.145573 0)
(1.00422 0.124436 0)
(1.03085 0.120796 1.56061e-22)
(1.05782 0.124291 0)
(1.06115 0.13135 1.76707e-22)
(0.926337 0.139562 3.42074e-22)
(0.927913 0.13508 7.90296e-23)
(0.950441 0.12991 6.35875e-22)
(0.976644 0.127692 0)
(0.921617 0.146893 0)
(0.924213 0.143528 -5.20126e-22)
(0.915123 0.152077 1.56337e-24)
(0.91903 0.14979 1.94571e-22)
(0.905557 0.154777 -1.64543e-24)
(0.910962 0.153788 0)
(0.891468 0.154151 0)
(0.899118 0.154936 0)
(0.872305 0.149135 0)
(0.882537 0.152261 0)
(0.847812 0.138512 0)
(0.860712 0.144598 -2.14828e-28)
(0.818247 0.121179 -3.63281e-24)
(0.833623 0.130728 0)
(0.78434 0.0963821 0)
(0.801742 0.109768 0)
(0.747879 0.0636774 6.09113e-23)
(0.766179 0.0808709 0)
(0.711604 0.0239791 0)
(0.729682 0.0448095 -6.06521e-23)
(0.679638 -0.0205361 1.24002e-22)
(0.694655 0.00187035 1.20697e-22)
(0.656202 -0.0672072 0)
(0.666268 -0.0441261 0)
(0.646622 -0.111283 0)
(0.649465 -0.08977 0)
(0.653456 -0.149616 0)
(0.647964 -0.131314 0)
(0.675388 -0.18114 0)
(0.662826 -0.166155 0)
(0.706224 -0.208389 2.98955e-24)
(0.690241 -0.195034 0)
(0.737335 -0.236287 -2.93272e-24)
(0.722237 -0.221968 0)
(0.763381 -0.268548 -7.16709e-22)
(0.751518 -0.251697 7.1633e-22)
(0.481817 -0.300924 3.2789e-22)
(0.716784 -0.295204 0)
(0.773743 -0.286756 -1.29435e-21)
(0.651926 -0.304783 0)
(1.0544 0.11735 0)
(0.929498 0.130027 -7.38266e-23)
(0.518831 -0.319906 1.11413e-21)
(0.473466 -0.317313 3.91994e-22)
(0.725896 -0.312001 2.8503e-22)
(0.780908 -0.306233 1.61806e-21)
(0.582918 -0.314265 0)
(1.07742 0.121621 6.69973e-22)
(1.07406 0.114314 -3.29437e-22)
(0.94973 0.124522 -1.46422e-22)
(0.931444 0.124523 7.04249e-22)
(0.456179 -0.302343 1.15258e-21)
(0.467801 -0.330463 -7.67983e-22)
(0.42508 -0.329554 -3.05715e-21)
(0.438654 -0.318485 -6.47983e-22)
(0.501961 -0.25854 1.8266e-22)
(0.477265 -0.282197 -9.32806e-22)
(0.560954 -0.201927 -1.98859e-22)
(0.530115 -0.231575 -2.14694e-22)
(0.630432 -0.135552 -4.14269e-23)
(0.594922 -0.169401 -2.23479e-23)
(0.703702 -0.0659722 -2.22816e-25)
(0.666949 -0.100837 0)
(0.776262 0.00171326 0)
(0.740327 -0.0315779 0)
(0.844243 0.0628109 0)
(0.811057 0.0333314 0)
(0.904655 0.114073 0)
(0.875559 0.0898139 0)
(0.955831 0.153794 0)
(0.93149 0.135417 0)
(0.997227 0.181689 0)
(0.977735 0.169199 0)
(1.02918 0.198758 4.69676e-26)
(1.01432 0.191501 0)
(1.05267 0.206434 0)
(1.0419 0.203638 0)
(1.06901 0.206713 6.47973e-25)
(1.06166 0.207387 0)
(1.07952 0.201334 0)
(1.07491 0.204622 0)
(1.08555 0.191942 0)
(1.08303 0.197048 0)
(1.08819 0.179864 0)
(1.08724 0.186167 0)
(1.08827 0.166126 0)
(1.0885 0.173147 0)
(1.08642 0.151508 0)
(1.08752 0.158884 0)
(1.08279 0.13653 9.03521e-23)
(1.08478 0.144018 -4.58201e-23)
(1.08023 0.129049 -3.43269e-22)
(1.00042 0.118641 -7.50621e-23)
(1.05036 0.110635 3.12475e-22)
(1.02663 0.114598 -2.44425e-22)
(0.973762 0.122287 0)
(0.908153 0.136963 -2.39718e-22)
(0.916846 0.127496 -6.47689e-22)
(0.912407 0.132551 5.45486e-22)
(0.89922 0.143585 0)
(0.903818 0.140606 0)
(0.889529 0.147509 -1.25532e-26)
(0.894864 0.145944 0)
(0.877301 0.148407 0)
(0.883893 0.148396 0)
(0.86148 0.145574 -1.75279e-24)
(0.869892 0.147508 0)
(0.841527 0.138142 0)
(0.852031 0.142489 0)
(0.817386 0.125151 0)
(0.829952 0.132394 0)
(0.789617 0.105799 1.87519e-24)
(0.803889 0.116298 0)
(0.759505 0.0796688 2.08783e-24)
(0.774724 0.0935885 0)
(0.729433 0.0470373 0)
(0.744271 0.0640679 0)
(0.702607 0.00910564 0)
(0.715355 0.0286239 0)
(0.683408 -0.0313544 0)
(0.691824 -0.0110372 0)
(0.675858 -0.0713923 0)
(0.677864 -0.0517453 0)
(0.682955 -0.107563 -2.85728e-24)
(0.677499 -0.0901121 0)
(0.704301 -0.138388 0)
(0.69205 -0.123634 0)
(0.7352 -0.165248 0)
(0.719013 -0.152105 0)
(0.767986 -0.192101 1.19492e-25)
(0.751867 -0.178387 0)
(0.795774 -0.22303 -6.87863e-26)
(0.782808 -0.206891 0)
(0.815937 -0.259633 2.83193e-24)
(0.806674 -0.240657 0)
(0.829414 -0.301192 -1.20974e-21)
(0.823354 -0.279919 3.41998e-22)
(0.78508 -0.326469 2.86793e-22)
(0.833616 -0.322918 6.43133e-22)
(0.523042 -0.330893 -4.57557e-22)
(0.663598 -0.318501 -5.75947e-22)
(1.07041 0.107137 7.85433e-23)
(0.921615 0.121714 5.04823e-22)
(0.464437 -0.340636 1.98917e-24)
(0.731881 -0.329673 0)
(0.414765 -0.338739 4.77478e-21)
(0.836437 -0.344802 6.49291e-22)
(0.787502 -0.346809 9.12271e-22)
(0.381623 -0.318489 -7.51052e-21)
(0.364591 -0.316329 1.4415e-21)
(0.593089 -0.325445 0)
(0.421144 -0.307503 6.35248e-22)
(0.400756 -0.315834 3.84188e-22)
(0.471771 -0.275498 5.44371e-22)
(0.443742 -0.294277 -8.48124e-22)
(0.538028 -0.226043 -1.72754e-22)
(0.503878 -0.252237 -7.95623e-23)
(0.611771 -0.165409 3.76036e-23)
(0.57417 -0.196928 8.79026e-23)
(0.690048 -0.0974844 0)
(0.650612 -0.131977 8.77836e-24)
(0.767833 -0.0281821 0)
(0.729277 -0.0626588 0)
(0.841115 0.0371878 -1.28999e-25)
(0.80526 0.00529041 0)
(0.906789 0.0944371 0)
(0.875061 0.0670288 0)
(0.962844 0.140932 0)
(0.936102 0.119138 0)
(1.00842 0.175553 0)
(0.986959 0.159743 0)
(1.04366 0.198522 3.21957e-25)
(1.02729 0.188435 0)
(1.06947 0.211072 4.01324e-26)
(1.05766 0.205991 0)
(1.0872 0.21496 0)
(1.07924 0.213975 0)
(1.09842 0.212148 -1.26404e-24)
(1.09353 0.214273 0)
(1.10461 0.204406 0)
(1.10205 0.208791 0)
(1.10714 0.193256 0)
(1.10626 0.199173 0)
(1.10707 0.179903 0)
(1.10737 0.186793 0)
(1.1052 0.16524 0)
(1.10631 0.172691 0)
(1.1021 0.149924 0)
(1.10375 0.157635 0)
(1.09799 0.13442 -4.4788e-23)
(1.10009 0.142175 0)
(1.09288 0.11907 0)
(1.09548 0.126735 -8.39924e-23)
(1.08649 0.104109 -1.82848e-24)
(1.08983 0.111522 0)
(1.04584 0.104187 -3.16895e-22)
(1.08287 0.0968115 1.82597e-23)
(1.06626 0.100183 1.51543e-22)
(0.996277 0.113041 1.10918e-22)
(1.02196 0.108598 -7.71383e-23)
(0.948998 0.118811 -3.83148e-23)
(0.971004 0.116766 3.55154e-23)
(0.92684 0.115166 0)
(0.933368 0.118495 -3.32332e-22)
(0.914913 0.121857 -1.43316e-22)
(0.931142 0.10857 -2.61864e-22)
(0.922878 0.115572 5.71955e-22)
(0.900589 0.13164 -8.16875e-23)
(0.907722 0.127065 0)
(0.887068 0.138096 0)
(0.893855 0.135221 0)
(0.873367 0.141299 -1.52831e-26)
(0.880406 0.140131 0)
(0.85822 0.140913 0)
(0.866071 0.141593 0)
(0.840772 0.136433 1.75279e-24)
(0.849829 0.139223 0)
(0.820604 0.127221 0)
(0.83103 0.132457 0)
(0.797887 0.112633 0)
(0.809521 0.120629 0)
(0.773511 0.0922446 0)
(0.785817 0.103169 0)
(0.749214 0.0660775 1.52001e-25)
(0.761201 0.079852 0)
(0.727693 0.0349398 0)
(0.737909 0.0510312 0)
(0.712381 0.000485135 0)
(0.719014 0.0179818 0)
(0.706903 -0.0345712 0)
(0.70823 -0.0171508 0)
(0.713999 -0.067631 0)
(0.70879 -0.051528 0)
(0.73386 -0.0969098 2.85727e-24)
(0.722459 -0.0827794 0)
(0.76312 -0.122918 0)
(0.747676 -0.110185 0)
(0.795448 -0.148611 0)
(0.779355 -0.135557 0)
(0.824373 -0.177764 -3.10898e-24)
(0.810658 -0.162555 0)
(0.846424 -0.2126 3.01606e-24)
(0.836326 -0.194441 0)
(0.861728 -0.25272 -2.7999e-24)
(0.854827 -0.232102 0)
(0.872554 -0.29644 3.26849e-22)
(0.867395 -0.274256 -6.61292e-22)
(0.88076 -0.34185 -2.73478e-22)
(0.876822 -0.319129 5.29378e-22)
(0.837642 -0.36652 -2.1718e-22)
(0.883319 -0.364549 3.14275e-22)
(0.527808 -0.340175 -4.394e-22)
(0.670055 -0.332791 0)
(0.463594 -0.346197 -3.48844e-21)
(0.732716 -0.347578 0)
(1.0989 0.101384 -7.34684e-23)
(1.09587 0.0939659 5.34809e-23)
(0.932611 0.108026 -2.30352e-22)
(0.940157 0.100713 -2.42826e-22)
(0.415318 -0.345756 -3.27704e-21)
(0.787808 -0.366774 -9.21171e-22)
(0.349236 -0.321994 0)
(0.397959 -0.296613 -9.95154e-22)
(0.837735 -0.38769 -4.64663e-22)
(0.885294 -0.386779 1.70571e-22)
(0.369136 -0.299963 1.78899e-21)
(0.600089 -0.336594 0)
(0.451613 -0.277618 0)
(0.424577 -0.288932 -7.02882e-22)
(0.518769 -0.239987 0)
(0.483119 -0.261011 0)
(0.597323 -0.187457 0)
(0.557304 -0.215231 8.24232e-23)
(0.679274 -0.12488 0)
(0.638076 -0.157148 0)
(0.761281 -0.0572791 0)
(0.720534 -0.091356 0)
(0.839208 0.00979152 0)
(0.801006 -0.0233332 0)
(0.909647 0.0713229 1.28999e-25)
(0.875528 0.0415124 0)
(0.970329 0.123687 0)
(0.941314 0.0988165 0)
(1.02003 0.164786 0)
(0.996588 0.145715 0)
(1.05858 0.194014 0)
(1.04067 0.180869 0)
(1.08672 0.212011 -3.84342e-26)
(1.07388 0.204336 0)
(1.10582 0.220269 3.36705e-26)
(1.0973 0.217238 0)
(1.11755 0.220693 0)
(1.1125 0.221336 0)
(1.12365 0.215215 3.08038e-26)
(1.1212 0.218576 0)
(1.12564 0.205541 0)
(1.12507 0.210808 0)
(1.12484 0.193053 0)
(1.12552 0.199574 0)
(1.12225 0.178812 0)
(1.12372 0.186099 0)
(1.11856 0.163578 0)
(1.1205 0.171282 0)
(1.11425 0.147892 0)
(1.11645 0.155768 0)
(1.10961 0.132156 0)
(1.11193 0.140014 0)
(1.10455 0.116604 8.01034e-23)
(1.10708 0.124343 8.52715e-23)
(1.1018 0.108922 -1.5488e-22)
(1.04077 0.0980427 -1.50626e-22)
(1.07918 0.0897192 0)
(1.0618 0.0935739 -1.53325e-22)
(0.992106 0.107481 0)
(1.01703 0.102865 1.53746e-22)
(0.948654 0.112876 2.05472e-22)
(0.968333 0.111151 -7.17231e-23)
(0.935924 0.112016 -3.9628e-22)
(0.925377 0.113089 6.5238e-23)
(0.946851 0.0989691 1.97839e-22)
(0.936355 0.106198 0)
(0.905961 0.123493 -1.50267e-22)
(0.915779 0.118594 1.50776e-22)
(0.887766 0.130281 0)
(0.896857 0.127269 0)
(0.870123 0.1333 -1.97639e-26)
(0.878982 0.13226 0)
(0.852232 0.132289 0)
(0.861273 0.133317 0)
(0.833519 0.126908 0)
(0.843008 0.130166 0)
(0.813816 0.116778 0)
(0.823782 0.122455 0)
(0.793554 0.101598 0)
(0.8037 0.109825 0)
(0.773899 0.0813468 2.21836e-24)
(0.783548 0.092085 0)
(0.756815 0.0564914 -2.23983e-24)
(0.764883 0.0694349 0)
(0.744962 0.0282086 0)
(0.750056 0.0426707 0)
(0.74127 -0.00166733 0)
(0.741931 0.0133289 0)
(0.748007 -0.0309037 0)
(0.743252 -0.0164857 0)
(0.765744 -0.0579155 0)
(0.755586 -0.0447494 0)
(0.792119 -0.0826233 0)
(0.778126 -0.0704807 0)
(0.822153 -0.107003 0)
(0.807061 -0.0946642 0)
(0.850185 -0.134195 -3.19772e-24)
(0.83673 -0.120056 0)
(0.872589 -0.166623 3.12226e-24)
(0.862194 -0.149677 0)
(0.88902 -0.204697 -2.95368e-24)
(0.881472 -0.18501 0)
(0.901235 -0.247106 0)
(0.895528 -0.225475 0)
(0.911157 -0.29207 0)
(0.906393 -0.269369 0)
(0.920181 -0.338098 1.66892e-24)
(0.915612 -0.315004 2.70868e-22)
(0.928133 -0.383716 -4.34793e-22)
(0.924216 -0.361109 0)
(0.886907 -0.408227 -3.01774e-22)
(0.931872 -0.405798 3.10013e-22)
(0.531484 -0.34844 1.2172e-21)
(0.671432 -0.347255 0)
(1.09261 0.0866434 -2.80328e-22)
(0.958498 0.0906162 -4.10315e-22)
(0.467907 -0.351566 -5.60302e-22)
(0.35557 -0.334697 -1.12524e-23)
(0.405225 -0.347501 1.59473e-21)
(0.731781 -0.364799 0)
(0.784867 -0.385892 1.15727e-22)
(0.336179 -0.303431 -1.88038e-21)
(0.313208 -0.307318 1.41755e-21)
(0.335011 -0.328394 -1.35197e-21)
(0.836223 -0.407629 -2.70984e-22)
(0.886823 -0.428176 -3.93863e-23)
(0.935594 -0.426784 2.59582e-22)
(0.603615 -0.347534 0)
(0.442094 -0.265447 4.40945e-23)
(0.36878 -0.273795 -1.6536e-22)
(0.405261 -0.271268 4.1708e-22)
(0.511212 -0.240958 2.54443e-22)
(0.47689 -0.255011 -2.55806e-22)
(0.589194 -0.19978 1.12904e-25)
(0.548722 -0.222283 0)
(0.673697 -0.145566 0)
(0.631152 -0.174053 0)
(0.758492 -0.0828975 0)
(0.716303 -0.114941 0)
(0.839873 -0.0172513 0)
(0.799847 -0.05011 0)
(0.914295 0.0461395 -3.9252e-25)
(0.878153 0.0150336 0)
(0.979075 0.102769 0)
(0.948017 0.0755255 0)
(1.03262 0.149548 0)
(1.00731 0.127524 0)
(1.0744 0.184894 0)
(1.05498 0.168688 0)
(1.10489 0.208674 0)
(1.091 0.198187 0)
(1.12535 0.221887 -2.83523e-25)
(1.11627 0.216504 0)
(1.13754 0.22623 2.76585e-26)
(1.13236 0.225044 0)
(1.14334 0.223649 0)
(1.14112 0.225683 0)
(1.14454 0.216001 1.14106e-24)
(1.14441 0.22035 0)
(1.14264 0.204862 0)
(1.14389 0.210783 0)
(1.13882 0.191458 0)
(1.14091 0.198379 0)
(1.13397 0.176695 0)
(1.13648 0.184201 0)
(1.12867 0.161207 0)
(1.13135 0.169011 0)
(1.1233 0.145431 0)
(1.12598 0.153335 0)
(1.11806 0.129674 1.26161e-24)
(1.12066 0.137536 0)
(1.11299 0.114161 -8.04499e-23)
(1.11553 0.12188 0)
(1.10786 0.0989097 7.82426e-23)
(1.11047 0.106493 0)
(1.10251 0.084049 6.82208e-23)
(1.10525 0.0914379 -7.30055e-23)
(1.0749 0.0830707 1.41699e-22)
(1.09967 0.0768337 0)
(1.08912 0.0795486 2.08494e-22)
(1.03564 0.0921683 0)
(1.0569 0.0873191 0)
(0.987989 0.10196 0)
(1.0121 0.0972641 0)
(0.948585 0.106607 0)
(0.965821 0.105389 0)
(0.939044 0.100201 2.3478e-22)
(0.938933 0.105036 5.92317e-23)
(0.9705 0.0816245 4.61563e-23)
(0.949693 0.0922149 4.14287e-22)
(0.973495 0.0869325 2.75387e-22)
(1.0001 0.0690922 3.93455e-23)
(0.986368 0.078449 -9.38241e-23)
(0.948328 0.101695 5.75913e-23)
(0.960736 0.0947128 -3.51962e-22)
(0.92479 0.112903 -5.1679e-26)
(0.936512 0.10771 0)
(0.902685 0.120341 0)
(0.913611 0.117099 0)
(0.881811 0.123692 -2.66103e-26)
(0.892148 0.12253 0)
(0.861819 0.122741 0)
(0.87174 0.123762 0)
(0.842498 0.117296 0)
(0.852085 0.120587 0)
(0.823993 0.107226 0)
(0.833121 0.112838 0)
(0.806978 0.0925572 0)
(0.815237 0.100449 0)
(0.792753 0.0736348 -4.51154e-24)
(0.799416 0.0835846 0)
(0.783189 0.0512592 0)
(0.78726 0.0628033 0)
(0.780439 0.0267493 0)
(0.78084 0.0391687 0)
(0.786304 0.00173083 0)
(0.782232 0.0141978 0)
(0.801273 -0.0224254 0)
(0.792702 -0.0105081 0)
(0.823798 -0.0453529 -3.06127e-24)
(0.811797 -0.0340095 0)
(0.850102 -0.0682451 0)
(0.836785 -0.0566701 0)
(0.875495 -0.0934794 0)
(0.863193 -0.0804071 0)
(0.896513 -0.123306 3.19772e-24)
(0.886678 -0.107723 0)
(0.91234 -0.158584 -8.35553e-26)
(0.905028 -0.140278 0)
(0.924412 -0.198614 5.79708e-24)
(0.918718 -0.17809 0)
(0.934786 -0.241975 0)
(0.929705 -0.219969 0)
(0.944938 -0.287352 0)
(0.939838 -0.264486 0)
(0.955438 -0.333534 -1.59709e-25)
(0.95014 -0.310414 0)
(0.966381 -0.379306 0)
(0.960885 -0.356582 0)
(0.978237 -0.422805 1.60389e-22)
(0.972175 -0.401564 0)
(0.937636 -0.445988 4.101e-22)
(0.983949 -0.442728 -9.70295e-22)
(0.533366 -0.35505 0)
(0.334841 -0.276954 2.63812e-21)
(0.462635 -0.354443 3.72934e-22)
(1.10937 0.0819827 -6.81033e-23)
(1.10715 0.0748143 0)
(0.982892 0.0720566 3.78122e-23)
(1.0132 0.0594533 -8.23167e-23)
(0.669945 -0.361383 0)
(0.726976 -0.381247 0)
(0.389113 -0.345891 0)
(0.780544 -0.403574 -1.13972e-22)
(0.833103 -0.425962 3.89797e-23)
(0.885811 -0.446138 0)
(0.938615 -0.462963 -1.01096e-21)
(0.98851 -0.460643 8.19708e-22)
(0.603058 -0.35794 0)
(0.437632 -0.239981 -2.17595e-25)
(0.303723 -0.272564 1.02493e-21)
(0.36415 -0.238834 -3.97416e-21)
(0.399067 -0.242332 9.96799e-22)
(0.515058 -0.228825 -1.97092e-22)
(0.475014 -0.236692 -4.13772e-22)
(0.593393 -0.200487 0)
(0.554564 -0.216475 0)
(0.676389 -0.157283 -1.12886e-25)
(0.634099 -0.180567 0)
(0.762039 -0.102663 0)
(0.719293 -0.131119 0)
(0.845111 -0.0415425 0)
(0.804132 -0.0725734 0)
(0.92212 0.020782 0)
(0.884582 -0.0102119 0)
(0.990072 0.0794335 3.9252e-25)
(0.957389 0.050844 0)
(1.04688 0.130433 0)
(1.01996 0.106085 0)
(1.09157 0.171208 0)
(1.07076 0.152197 0)
(1.12429 0.200704 0)
(1.10938 0.187373 0)
(1.14609 0.219226 0)
(1.13646 0.211272 0)
(1.1587 0.22806 2.35132e-25)
(1.15342 0.224746 0)
(1.16414 0.229009 2.22377e-26)
(1.16219 0.229397 0)
(1.16437 0.223979 0)
(1.16479 0.227126 0)
(1.16112 0.214696 -2.79066e-26)
(1.16309 0.219772 0)
(1.15578 0.202564 0)
(1.15864 0.208911 0)
(1.14936 0.188642 0)
(1.15265 0.195772 0)
(1.14259 0.173689 0)
(1.14599 0.181257 0)
(1.13592 0.158223 0)
(1.13922 0.165995 0)
(1.12965 0.14259 0)
(1.13273 0.150411 0)
(1.12391 0.127027 -2.4669e-24)
(1.12671 0.134788 0)
(1.11875 0.111711 -1.16565e-24)
(1.12125 0.119328 0)
(1.114 0.0966948 1.47886e-22)
(1.11632 0.104163 -1.47346e-22)
(1.11166 0.0892835 1.34589e-22)
(1.07047 0.0767265 3.47756e-23)
(1.09691 0.0699158 8.20101e-24)
(1.08548 0.0729064 -1.05009e-22)
(1.03045 0.0864947 0)
(1.05194 0.0813457 0)
(0.984011 0.0963283 -1.03047e-27)
(1.00716 0.0917395 0)
(0.949084 0.0999934 0)
(0.963688 0.0993779 0)
(0.946073 0.0919218 1.0543e-22)
(0.942606 0.0976408 -1.15804e-22)
(0.959761 0.0832029 -2.06128e-23)
(1.00839 0.0735735 -3.08466e-24)
(1.03549 0.0558104 -8.51528e-23)
(1.02192 0.0649481 5.83238e-24)
(0.981434 0.0887787 -5.8823e-23)
(0.994723 0.0815855 5.89232e-23)
(0.955507 0.100711 -1.15752e-24)
(0.968419 0.0951448 0)
(0.931047 0.108899 -1.27818e-24)
(0.943131 0.105282 0)
(0.908227 0.112968 -3.48283e-26)
(0.919447 0.111457 0)
(0.887174 0.112691 0)
(0.897486 0.113375 0)
(0.868082 0.107983 0)
(0.877373 0.110885 0)
(0.851397 0.0989115 0)
(0.859406 0.103976 0)
(0.837943 0.0857655 0)
(0.844206 0.0928139 0)
(0.828938 0.0691391 2.29319e-24)
(0.832805 0.0778322 0)
(0.825821 0.04997 2.50162e-24)
(0.826565 0.059798 0)
(0.829825 0.0294394 0)
(0.826892 0.0397969 0)
(0.841334 0.00863443 0)
(0.834684 0.0190186 0)
(0.859204 -0.0120094 0)
(0.849627 -0.00169206 0)
(0.880653 -0.0331448 3.06127e-24)
(0.869715 -0.0224353 0)
(0.90201 -0.0564007 -3.10106e-24)
(0.891583 -0.0443817 0)
(0.92018 -0.0836474 0)
(0.911627 -0.0694312 0)
(0.934045 -0.115919 0)
(0.927639 -0.0991423 0)
(0.94455 -0.152971 -1.26624e-25)
(0.939609 -0.133905 0)
(0.953633 -0.193719 -5.53964e-24)
(0.949152 -0.172963 0)
(0.963019 -0.236985 0)
(0.958212 -0.215101 0)
(0.973739 -0.281862 0)
(0.96818 -0.259272 0)
(0.986201 -0.327558 -1.78762e-25)
(0.979747 -0.304658 0)
(1.0004 -0.372993 0)
(0.993114 -0.350413 0)
(1.01604 -0.416384 -1.81057e-22)
(1.00794 -0.395085 0)
(1.03232 -0.455103 -4.30775e-22)
(1.02403 -0.43666 7.02672e-22)
(0.314169 -0.320161 -1.82966e-21)
(0.290053 -0.299843 -2.29468e-21)
(0.992227 -0.476125 7.64113e-22)
(1.0396 -0.471315 -7.63807e-22)
(0.52947 -0.361247 0)
(1.10496 0.067848 1.15983e-22)
(1.04892 0.0461782 -2.97758e-22)
(0.332698 -0.23031 7.73091e-22)
(0.664704 -0.374818 0)
(0.275597 -0.262648 2.66438e-22)
(0.45182 -0.3561 0)
(0.720277 -0.396305 0)