/*--------------------------------*- C++ -*----------------------------------*\
  =========                 |
  \\      /  F ield         | OpenFOAM: The Open Source CFD Toolbox
   \\    /   O peration     | Website:  https://openfoam.org
    \\  /    A nd           | Version:  10
     \\/     M anipulation  |
\*---------------------------------------------------------------------------*/
FoamFile
{
    format      ascii;
    class       surfaceScalarField;
    location    "29.5";
    object      phi;
}
// * * * * * * * * * * * * * * * * * * * * * * * * * * * * * * * * * * * * * //

dimensions      [0 3 -1 0 0 0 0];

internalField   nonuniform List<scalar> 
66213
(
0.00942477
-0.0116558
-0.0061961
0.00842714
0.0304034
-0.00505504
-0.0159236
0.00896099
-0.0143352
0.0357776
-0.0162224
0.0251834
0.0237912
-0.0160999
-0.0191763
0.011485
0.0233286
-0.022278
0.0227406
0.0418504
-0.032857
-0.0449575
0.0336649
-0.0343178
-0.00175927
-0.0128139
-0.0182839
-0.00937024
-0.014667
0.000127653
-0.000123833
-0.000453163
0.000449343
-0.000119759
0.000247412
-0.000243592
-0.00269295
0.00139108
0.0121471
-0.0108453
0.0017905
-0.00448344
0.00318158
0.0896868
0.101129
-0.0995252
-0.0912911
0.0550777
0.0664002
-0.031791
-0.0594613
0.0231305
0.0914085
-0.0212068
0.0628749
0.0340773
0.0394116
-0.0457689
-0.02772
-7.72976e-05
0.000695488
0.0334591
-0.0125419
0.0108777
0.00158689
0.0153792
0.0114905
0.0535501
0.0176405
-0.00994143
-0.0612492
-0.00608466
0.0522333
0.00740147
-0.0746206
0.00656708
0.0619689
-0.021705
0.0291416
0.0238358
-0.0312723
-0.0618351
0.00674045
0.0333896
-0.0246801
-0.0695237
0.0323687
0.0301576
-0.030813
0.0635146
-0.0881947
-0.000343508
-0.00403278
0.000408129
0.00396815
-0.00354035
0.00319685
-0.0017667
-0.00177365
-0.000961593
-0.00483788
0.0436495
-0.00883866
0.00581122
-0.0406221
0.0328709
-0.0114828
0.0222614
0.0245218
-0.0280541
0.043941
-0.0404087
0.011648
0.0428949
-0.0300212
-0.000206499
0.0217845
-0.0303194
0.00874142
0.0298003
0.00254953
-0.0325564
-0.00180641
-0.000231151
0.00107597
0.00246005
-0.000318964
-0.00495069
0.0028096
0.0036347
-0.00179403
0.000619382
-0.0116234
0.0128825
0.000167531
-0.00142658
0.00213548
-0.00288121
-0.0107696
0.0250655
-0.0207654
0.0064695
-0.0180426
-0.00534716
0.0126202
-0.0374912
0.0608106
0.0124478
-0.0357672
-0.0287262
-0.0782886
-0.0643946
-0.00274284
0.0382898
0.0288477
0.0780154
-0.135843
-0.0217294
-0.00478503
0.0265144
-0.00908343
-0.0126459
-0.0263869
0.0371993
-0.0198958
0.00413033
-0.00939057
-0.0211267
-0.00156806
-0.00635935
0.00792741
-0.0071337
-0.00861487
0.0141805
-0.00851561
0.00610885
-0.0101325
0.0194028
0.00294314
-0.00304256
0.00620827
-0.00205809
0.00294259
0.00205863
0.00585183
-0.00355503
-0.0022968
0.0101809
-0.00432911
0.0429242
-0.0542911
-0.0178638
0.0292308
0.0729729
-0.0188448
-0.0753349
0.0645332
0.0262649
-0.0178252
0.00634195
-0.00256337
-0.0327785
0.0289999
-0.027837
0.00735562
0.0268234
-0.0163719
0.015705
-0.0271702
0.000827985
0.0291847
-0.0194679
-0.0105448
0.023733
0.0409157
-0.0927028
-0.0315374
-0.0109058
0.0186015
0.0238418
-0.0296555
0.000105581
-0.00198755
0.0318529
-0.00385884
-0.00415027
-0.0238438
0.0369056
-0.00653194
0.00147928
0.069758
0.0299754
-0.0134811
-0.0862522
0.0796158
0.0147533
-0.0246111
-0.0433688
0.0324031
-0.00422133
0.015187
0.0122937
-0.0253988
-0.0302637
-0.0255971
0.0332643
0.024736
-0.0526375
0.0295332
0.0468373
-0.0220051
0.0456978
-0.0763303
-0.00302204
0.0197872
-0.0387703
-0.00524594
-0.00808358
0.0133951
-6.55613e-05
-0.00431969
-0.00113256
0.000206309
0.000187346
-0.000872332
0.00154944
0.000746685
-0.000272834
-0.00202329
0.0040548
0.00382901
-0.00123485
-0.00664896
0.00309097
-0.00242026
0.00338409
-0.0117519
-0.00186777
0.0167107
-0.00951451
0.00159161
-0.00917837
-0.00157099
-0.0107273
0.0352398
0.036298
0.0297584
-0.000920305
-0.0395653
0.0179057
-0.0324189
0.0395787
-0.0264926
0.0010899
0.0433084
-0.038016
-0.00573093
-0.00536947
0.0491164
0.0406482
-0.0157893
0.0580477
-0.034874
-0.0169406
0.0116238
0.0401908
0.00405476
-0.0132899
-0.0256389
0.0478069
-0.0606928
-0.0105218
-0.00139767
0.0159907
-0.00407126
-0.000751732
-0.00600826
-0.00376179
0.000150361
6.30516e-05
-0.000965144
-0.000839181
-0.0577093
-0.0441524
0.030149
0.0717128
-0.0201435
0.0289966
-0.0665624
0.0300558
-0.0045892
-0.0456101
-0.015382
0.00128534
0.00532643
0.0124986
-0.00697659
-0.0108484
0.00298377
0.00234266
-4.66227e-05
0.015529
0.00339692
0.00665384
0.00143972
0.000782929
0.00420089
0.0332403
-0.000371066
-0.0461591
0.00312753
0.0417366
-0.000149854
-0.00367026
-0.0037369
0.00755702
-0.00124166
0.00141864
-0.000326834
-0.00401854
-0.000893378
0.00553509
0.0110671
-0.0110154
-0.00558682
-0.00162606
-0.0136042
0.0277175
0.0431405
-0.0107261
0.0465445
-0.0483897
-0.00355103
0.00539618
0.0496085
0.00467665
-0.00774064
-0.00432012
0.0153598
0.00735079
-0.0183905
0.01626
0.00255035
-0.0231305
0.00651854
-0.00838632
0.00619985
0.00031869
0.0185853
0.0237548
-0.00494882
-0.0373913
0.0175359
0.0541641
-0.0531147
-0.0265312
0.0198126
0.0242545
-0.00636178
0.00358538
-0.0138746
-0.00303908
0.00153168
-0.019204
0.00074018
0.0448649
-0.0420117
0.00321156
-0.00606479
0.00816987
-0.00891503
-0.0174484
-0.032764
0.00820063
-0.0476555
-0.00197847
0.0482629
0.00137107
-0.0312998
-0.0210296
0.00467394
0.00405115
-0.0544193
0.0383028
0.00619484
-0.0267304
-0.0177673
-0.0146193
0.0484932
0.00442898
0.03892
-0.00499245
-0.0485469
0.0277523
0.0185837
-0.00741609
0.0218811
-0.0152386
-0.0250773
0.0184348
0.0146499
-0.0180813
0.0253125
0.0283485
0.0201159
-0.0137124
-0.034752
-0.0109057
0.0240156
0.039382
0.00662121
-0.0256201
-0.0203831
-0.00300974
0.00210519
0.0402865
0.0379655
0.00102569
-0.0420009
0.025442
-0.00716836
0.0196918
0.0143363
-0.0219342
-0.0220576
-0.0304676
-0.00479663
0.0243585
-0.0329254
0.00176367
0.00443618
-0.0200455
0.0150967
-0.025153
0.00510749
-0.00136138
0.0455118
-0.00100995
-0.00209601
-0.00151443
0.00353282
7.76218e-05
-0.000779922
6.34405e-05
-0.00137953
-0.000766311
0.000585882
-0.000599493
0.00634379
-0.0109984
-0.00342893
-0.00298771
-0.0240758
0.0227464
0.00431715
-0.0263759
-0.00220597
0.0255941
0.00576412
-0.0155101
0.0410509
-0.0313049
0.0388733
0.0036786
-0.0367878
0.000563143
0.0338029
0.000156212
-0.0345223
0.0333914
0.00116543
-0.0339937
0.0140439
0.0366718
-0.0534586
0.0114435
0.0396434
-0.037043
0.00225945
0.00808224
-0.00126625
-0.00907544
0.00310503
0.00910411
-0.00994969
-0.053596
0.000579867
0.0521037
0.00091251
0.000513638
-0.052376
-0.0017337
-0.00100198
0.033483
-0.0333717
0.000890635
0.0329073
0.000233647
-0.0341429
-0.0110481
-0.0297692
0.0395958
0.00122153
0.024375
-0.0054119
-0.0300112
0.0325762
-0.0122488
-0.0342728
0.0139454
0.0312933
-0.0120595
0.0133424
0.00562986
-0.0123439
0.00981908
0.0086607
0.00964322
-0.0126741
0.00325548
0.000660653
-0.01339
0.00356959
0.0284219
-0.033201
-0.00768166
0.0364705
0.0044121
-0.00572959
-0.0307781
0.00330668
-0.000862455
0.0135152
-0.00142302
-0.0112297
0.0146818
-0.000109567
-0.0154347
0.0350393
-0.0330407
0.0293849
-0.0313835
0.0554829
0.0244704
-0.0449139
0.0242494
-0.0236392
0.0548727
0.0365391
-0.0439414
0.0447402
-0.0373379
0.0684432
0.0322256
-0.0641297
0.022162
0.0663921
-0.0201109
-0.0349689
0.00903745
0.0382251
-0.0324353
-0.0102152
-0.0369671
0.00664637
0.0386313
-0.0083106
-0.00763008
0.0071429
-0.0364799
0.00518862
0.00144387
-0.00467643
-0.00195606
0.00496561
-0.00031034
0.000533341
0.0863826
-0.0619462
0.00767463
-0.032111
0.0304856
0.0778046
-0.0219076
0.0371615
0.00476137
-0.0133555
-0.0285673
0.0409749
-0.000536093
-0.024934
-0.0225729
0.00286051
-0.000585811
-0.0209657
-0.00102148
-0.0184095
-0.00711031
0.00111305
-0.000391389
0.000454829
-5.1698e-05
-0.000339691
-0.0312706
0.00370613
0.029409
-0.00184447
0.00282286
-0.00240239
-0.0316911
0.0311674
0.00291343
-0.031258
0.0298266
0.00504692
0.0339113
0.0130383
-0.043822
-0.0204183
0.054035
0.000294529
0.0230955
-0.0304755
-0.0245495
-0.00415927
0.0239742
0.00473465
0.0211367
-0.0419051
-0.00378115
-0.00556699
0.0225444
-0.00026238
0.000426795
-0.00195845
0.000212035
-0.000474415
0.000638831
0.00199573
-0.0050348
0.0035274
0.0213824
-0.00555393
-0.0313386
-0.00041952
0.0337108
-0.0330813
-0.000209978
0.0344301
-0.000732574
-0.034117
0.0549363
-0.0115119
-0.043471
0.00443653
0.0324854
-0.00422502
-0.0326969
0.033543
-0.0278239
-0.0081946
0.00247552
0.0319443
0.0105241
-0.00892547
0.0380529
0.00261261
-0.00872119
0.0376838
0.0028573
-0.0024882
0.0410715
-0.00431353
0.000925855
0.0411269
-0.00433081
0.00427536
0.0414269
-0.0077056
0.00740569
0.04172
-0.0106789
0.0103858
0.0423124
-0.0134516
0.0128592
0.0427629
-0.0155632
0.0151127
0.0435318
-0.0174712
0.0167023
0.0440278
-0.0186129
0.0181169
0.0448276
-0.0196557
0.018856
0.0452572
-0.019978
0.0195483
0.0459762
-0.0203709
0.019652
0.0462786
-0.0201652
0.0198627
0.0468696
-0.0201914
0.0196004
0.0470362
-0.0197388
0.0195722
0.0475009
-0.0196297
0.0191649
0.0475512
-0.0191221
0.0190719
0.0479119
-0.0190179
0.0186571
0.0478689
-0.0185567
0.0185998
0.0481455
-0.0185294
0.0182527
0.0480205
-0.0181656
0.0182906
0.0482209
-0.0182573
0.0180569
0.0480088
-0.0180131
0.0182253
0.0443622
-0.0182215
0.0218681
0.0441495
-0.0180516
0.0182643
0.0383353
-0.0155254
0.0213396
0.0368838
-0.0162626
0.0177141
0.0366511
-0.0167373
0.01697
0.0367231
-0.0167754
0.0167034
-0.0258107
0.0331283
0.0149062
-0.0222237
0.0157426
-0.00955079
-0.02594
0.0197482
-0.0260914
0.0160232
-0.0263182
-0.0110565
-0.039173
0.0295665
0.0112879
-0.0016814
-0.0163194
0.0138695
0.0364328
-0.0370334
-0.0161367
-0.0355776
0.0364068
-0.0171486
-0.0159201
0.034907
-0.0331512
-0.0172811
-0.0183891
0.0334133
-0.0335312
-0.0181037
-0.0177895
0.0336264
-0.0336999
-0.0181839
-0.0179179
0.033747
-0.0337699
-0.0185065
-0.0181184
0.033767
-0.0337366
-0.0190482
-0.0185596
0.0336757
-0.0335787
-0.0197267
-0.019183
0.0334417
-0.0332575
-0.0203757
-0.0198757
0.0330249
-0.0327384
-0.0206574
-0.0203978
0.0324048
-0.0320259
-0.0200347
-0.0203115
0.0316204
-0.0312002
-0.0178914
-0.0190183
0.0307937
-0.0304169
-0.0138284
-0.0159697
0.030095
-0.0298364
-0.00796418
-0.0110008
0.0296546
-0.0326165
-0.00135166
-0.00451261
0.0312921
-0.0336818
0.00500225
0.00153296
0.00997059
0.0154081
-0.0141848
-0.0271633
-0.028206
0.0175227
0.0294806
-0.0193491
0.0262753
-0.0264159
-0.0140871
0.0125137
-0.0177515
0.0298317
-0.0245939
0.0109353
0.0311449
0.0165962
-0.0164044
-0.0273551
-0.0273159
0.015706
-0.0175373
0.0292665
0.033598
-0.0355813
0.0132711
-0.0264792
-0.0163411
0.0316893
0.012844
-0.0174098
0.0190721
-0.0289781
0.0179994
-0.017484
-0.0269946
-0.0267655
-0.026421
0.0274413
-0.0120768
0.0258937
-0.0258141
-0.0164207
-0.0146144
-0.0293259
0.0288755
-0.00847503
-0.0100792
-0.0266412
0.0270879
-0.00293482
-0.00648695
-0.0272598
0.0275283
0.00400683
0.000753904
-0.027884
0.028322
0.00994777
0.00705007
-0.028817
0.0293551
0.0145746
0.0123642
-0.0299068
0.0304584
0.0175653
0.0161506
-0.0309829
0.0314737
0.0190576
0.0183314
-0.0319136
0.0323055
0.0194708
0.019212
-0.0326427
0.032934
0.019281
0.0192632
-0.0331787
0.0333869
0.0188637
0.0189202
-0.0335597
0.0337049
0.0184545
0.0184843
-0.0338232
0.0339187
0.0181952
0.0181344
-0.0339941
0.0340554
0.018164
0.0179815
-0.0372025
0.0373454
0.0181213
0.018721
-0.0391262
0.038522
0.0183183
0.0195588
-0.0373863
0.0373782
0.0167116
0.0181057
0.0156664
0.0126794
-0.0135449
0.0306972
-0.0122603
0.0322678
0.0116819
0.031564
0.0336925
-0.0347648
-0.0160763
-0.0309536
-0.0159803
0.0293966
-0.0166102
0.0334366
-0.0324668
-0.0171065
-0.0172483
0.0337319
-0.0331115
-0.0179015
-0.017124
0.0331849
-0.0333655
-0.0179231
-0.017716
0.0335217
-0.0336536
-0.018052
-0.0177617
0.0337598
-0.0338428
-0.0184235
-0.0180122
0.0339013
-0.033935
-0.0190145
-0.0185012
0.0339406
-0.0339138
-0.0197534
-0.0191775
0.0338502
-0.0337435
-0.0204825
-0.0199393
0.0335909
-0.0333869
-0.0208614
-0.0205503
0.0331358
-0.0328381
-0.0203324
-0.0205627
0.0325097
-0.0321607
-0.0182404
-0.0193468
0.0318166
-0.0314924
-0.0141525
-0.0163139
0.031212
-0.0309832
-0.00819296
-0.0112813
0.0308116
-0.0310855
-0.0010778
-0.00468423
0.0321159
-0.0332728
0.00615915
0.00256337
0.0327109
-0.0301755
0.0123708
0.00940868
0.0296037
-0.0292543
0.0171733
0.0154514
0.0317338
-0.0318585
0.0191968
0.0181856
-0.0141101
0.0298317
-0.0260743
-0.0172238
0.0184867
-0.017905
-0.0295598
-0.0332902
0.0199185
0.00959065
-0.0101696
0.0328468
0.0333725
-0.0331424
0.0114518
0.0333766
0.00958655
-0.017862
0.0174009
-0.0265335
0.0294249
-0.030689
-0.0147163
-0.0140608
0.0293473
0.0286954
-0.0133314
-0.0170188
-0.0269175
-0.0272696
-0.0263785
0.0255368
-0.0155789
0.0266545
-0.0265747
-0.0170986
-0.0169478
-0.0261009
0.026782
-0.0127579
-0.0151786
-0.0273799
0.0273682
-0.00846331
-0.0106771
-0.0267335
0.0263434
-0.00254469
-0.00585226
-0.0265009
0.0267789
0.00372887
0.000596385
-0.0271609
0.0276343
0.00947439
0.00666801
-0.0281703
0.0287526
0.0139922
0.0118281
-0.0293497
0.0299485
0.0169665
0.0155536
-0.0305215
0.0310629
0.0185162
0.0177584
-0.0315547
0.032
0.0190255
0.0187202
-0.032391
0.0327366
0.0189354
0.0188722
-0.0330354
0.0332978
0.0186013
0.0186214
-0.0335248
0.0337246
0.0182547
0.0182573
-0.0338987
0.0340521
0.0180417
0.0179604
-0.034188
0.0343096
0.0180425
0.0178455
-0.0350928
0.0350149
0.0181992
0.0179378
-0.0365038
0.0365984
0.0182236
0.0180699
-0.0368467
0.0358822
0.017676
0.0178575
-0.0352562
0.0337428
0.0147846
0.0162923
0.0134444
0.0106937
-0.011295
0.0312985
0.0320881
0.0117565
-0.0119674
0.0295582
0.0302932
0.0321497
-0.0321115
-0.0161145
-0.0151495
0.0327502
-0.0325273
-0.0173295
-0.0166095
0.0324223
-0.0327163
-0.0176075
-0.017229
0.0329859
-0.0332298
-0.0176793
-0.0174464
0.0334438
-0.0336336
-0.0178622
-0.0175476
0.0337969
-0.0339392
-0.0182812
-0.0178489
0.0340582
-0.034156
-0.0189167
-0.0183821
0.0342282
-0.0342727
-0.019709
-0.0191053
0.0342838
-0.0342566
-0.0205096
-0.0199282
0.0341867
-0.034069
-0.0209791
-0.0206203
0.0339047
-0.0336942
-0.0205429
-0.020727
0.0334498
-0.0331808
-0.0185094
-0.0195912
0.032909
-0.0326481
-0.0144134
-0.0165856
0.0324175
-0.0322231
-0.00838739
-0.0115119
0.0320717
-0.031959
-0.00119045
-0.00483564
0.0318916
-0.031859
0.00612657
0.00249589
0.031881
-0.0320653
0.0125551
0.00943073
0.0316791
-0.0318591
0.0173534
0.0150652
0.0324851
-0.0329558
0.0196675
0.0188115
0.0196403
-0.0203324
-0.0325981
0.0333298
-0.0336445
0.0199549
0.0202925
-0.0170605
0.0171908
-0.0270479
-0.0272948
-0.0163404
0.0176408
-0.0269835
-0.0186543
-0.0312379
-0.0119223
0.0286504
-0.0195891
-0.0338716
0.0198162
-0.0193292
-0.032858
0.00821515
-0.00843192
0.0330635
0.00740051
0.0341913
0.0342319
-0.0338715
0.0110914
-0.0175642
0.0177223
-0.027206
-0.0168156
-0.0280434
0.0343553
0.00946313
-0.0282831
-0.0277793
0.0272408
-0.0165602
0.0275884
-0.0280959
-0.0163082
-0.0165312
-0.0266848
0.0267208
-0.0156149
-0.0163918
-0.0261479
0.0263226
-0.0129326
-0.0146056
-0.0263367
0.0261152
-0.0082418
-0.0106912
-0.0257188
0.0257362
-0.00256201
-0.00545589
-0.0258875
0.0261705
0.00344585
0.000445053
-0.0265676
0.0270652
0.00897684
0.0062709
-0.027632
0.02825
0.0133742
0.0112613
-0.0288849
0.0295235
0.016328
0.0149187
-0.0301373
0.0307216
0.017932
0.0171446
-0.0312575
0.0317489
0.0185341
0.0181842
-0.0321868
0.0325807
0.0185415
0.0184343
-0.0329282
0.0332403
0.0182892
0.0182739
-0.0335174
0.0337688
0.0180033
0.0179802
-0.0339953
0.034204
0.017833
0.0177338
-0.0343957
0.0345769
0.0178612
0.0176538
-0.0347472
0.034915
0.0180314
0.0177676
-0.0350732
0.0352353
0.0180615
0.0179117
-0.0353883
0.0355618
0.0175025
0.0177045
-0.0351572
0.0348196
0.0151222
0.016697
0.0143924
0.00857445
-0.00918567
0.0319097
0.0322307
0.00946334
-0.00977608
0.0298709
0.0305709
0.029152
-0.0300588
-0.0138094
-0.0285534
-0.0110017
0.0276328
-0.0127328
0.0306301
-0.0310089
-0.0157357
-0.0145782
0.0313889
-0.0318444
-0.0168739
-0.0162296
0.0321448
-0.0324981
-0.0172542
-0.0169286
0.0328233
-0.033124
-0.0173786
-0.0171213
0.033393
-0.0336382
-0.017617
-0.0172786
0.0338573
-0.034058
-0.0180806
-0.0176298
0.0342375
-0.0343998
-0.0187544
-0.0182026
0.0345399
-0.0346579
-0.019591
-0.0189651
0.0347471
-0.0348041
-0.0204525
-0.019839
0.0348224
-0.0347974
-0.0210041
-0.0206021
0.0347267
-0.0346099
-0.0206596
-0.0207977
0.0344546
-0.0342689
-0.0186951
-0.0197465
0.0340704
-0.0338719
-0.0146119
-0.0167841
0.03369
-0.0335303
-0.00854713
-0.0116937
0.0333977
-0.0332883
-0.00129985
-0.00496824
0.0332019
-0.0331346
0.00605936
0.00240947
0.0330895
-0.0330604
0.0125261
0.0093856
0.033044
-0.032995
0.0173044
0.0150487
0.0329883
-0.03345
0.0201291
0.0188048
0.0337582
-0.0343602
0.0205569
0.0206007
0.0199501
-0.0199012
-0.0339205
0.0348754
-0.0347821
0.0198567
0.0203315
-0.00989948
0.0287738
-0.0163596
0.0161262
-0.02781
-0.0278202
-0.0166353
0.0178874
-0.0271486
-0.0194298
-0.0311373
0.00681411
0.0349417
0.0196877
-0.0198138
-0.034656
-0.0348189
0.0342372
0.0204383
-0.0349738
0.0198427
0.0168979
-0.0279776
-0.0198219
-0.0329373
-0.0199936
-0.0337407
-0.0171812
0.0171069
-0.0277357
0.0277845
-0.0282919
-0.0104943
-0.00958024
0.0273135
0.0273036
-0.00909941
-0.017623
-0.0273784
-0.0298255
-0.0279032
0.027949
-0.016354
0.0281033
-0.0296916
-0.0160347
-0.0164351
-0.0277763
0.0273903
-0.0161742
-0.0163585
-0.0271077
0.02687
-0.0153773
-0.0161091
-0.0263222
0.0258739
-0.0124843
-0.0140579
-0.0255426
0.0253309
-0.00803006
-0.01036
-0.0252312
0.025255
-0.00258585
-0.00535615
-0.0254112
0.0256999
0.00315716
0.000288842
-0.0261061
0.0266178
0.00846513
0.00586469
-0.0272041
0.0278468
0.0127315
0.010675
-0.0285099
0.0291797
0.0156582
0.0142556
-0.0298267
0.0304463
0.0173123
0.0164976
-0.0310193
0.0315499
0.0180036
0.0176112
-0.0320284
0.0324647
0.0181053
0.0179558
-0.0328557
0.0332128
0.0179321
0.0178829
-0.0335357
0.0338349
0.0177042
0.0176572
-0.0341101
0.0343707
0.0175724
0.0174586
-0.0346159
0.0348556
0.0176216
0.0174086
-0.0350886
0.0353231
0.0177968
0.0175346
-0.0355557
0.0357901
0.0178271
0.0176792
-0.0360182
0.0362406
0.0172801
0.0174764
-0.0364528
0.035825
0.0157501
0.0164847
-0.0358334
0.0355402
0.0113846
0.014384
-0.0353473
0.0356072
0.00655421
0.009656
0.00552848
-0.00592833
0.0334634
-0.00486974
0.0047462
0.0350652
0.03485
0.00662908
-0.00682264
0.0321032
0.0329314
0.006828
-0.00678981
0.0298327
0.0305762
0.00653536
-0.0071383
0.0279165
0.0285193
0.0290993
-0.0298001
-0.0131087
-0.0119253
0.0302057
-0.0306313
-0.0153101
-0.0141726
0.0310602
-0.0314933
-0.0164408
-0.0158007
0.0319147
-0.0323214
-0.0168475
-0.0165072
0.0326979
-0.0330499
-0.0170266
-0.0167448
0.0333696
-0.033667
-0.0173196
-0.0169589
0.0339394
-0.0341963
-0.0178236
-0.0173575
0.0344347
-0.0346605
-0.0185287
-0.0179642
0.034868
-0.0350595
-0.0193995
-0.0187576
0.0352275
-0.0353703
-0.0203097
-0.0196711
0.0354792
-0.0355506
-0.0209327
-0.0204931
0.035578
-0.0355604
-0.0206773
-0.0207703
0.0355
-0.0354032
-0.0187919
-0.0198069
0.0352825
-0.0351489
-0.0147455
-0.0169048
0.035016
-0.0348893
-0.00867388
-0.0118266
0.0347726
-0.0346623
-0.00141019
-0.0050849
0.0345559
-0.0344485
0.00595201
0.00230304
0.0343406
-0.0342309
0.0124163
0.00927771
0.0341228
-0.0340217
0.0172033
0.0149407
0.0339231
-0.0337552
0.0199612
0.0187062
0.0337638
-0.0340201
0.0208132
0.0206094
0.0205486
0.0196491
-0.0197794
-0.0345257
-0.0350896
0.0197649
0.00451781
0.0358356
-0.0152546
0.016498
-0.0286218
-0.0288989
-0.0160473
0.0182035
-0.0284542
-0.0192667
-0.0316924
0.0271935
-0.00702818
0.0176685
-0.0285393
-0.0201094
-0.0328215
0.0169374
-0.0281751
-0.0199337
-0.0335864
-0.0196294
-0.03496
0.0194997
-0.0197984
-0.0343567
-0.017082
0.016592
-0.0281318
0.0365659
-0.0363869
0.00637523
0.0361468
0.00493688
-0.017863
-0.0281179
-0.0308887
-0.029233
0.029488
-0.0162897
0.0292758
-0.0313475
-0.0157912
-0.0160046
-0.0289203
0.0284938
-0.0159276
-0.0158673
-0.0282191
0.0279762
-0.0159312
-0.0160839
-0.0272535
0.0265905
-0.0147142
-0.0153865
-0.0260157
0.025542
-0.0120106
-0.0134831
-0.0251899
0.0249632
-0.00780339
-0.0100079
-0.0248644
0.0248958
-0.00261727
-0.00525736
-0.0250587
0.0253538
0.00286204
0.000125948
-0.0257666
0.0262862
0.00794547
0.00545195
-0.0268832
0.0275405
0.0120743
0.010078
-0.028222
0.028914
0.0149662
0.0135741
-0.0295861
0.0302338
0.0166646
0.0158255
-0.0308373
0.0314008
0.0174401
0.0170077
-0.0319141
0.0323874
0.017632
0.0174424
-0.0328166
0.033214
0.0175347
0.0174536
-0.0335783
0.0339211
0.0173615
0.017293
-0.0342413
0.0345501
0.0172636
0.0171384
-0.0348462
0.0351412
0.0173266
0.0171124
-0.035433
0.0357314
0.0174985
0.0172427
-0.0360313
0.0363365
0.0175219
0.0173793
-0.0366381
0.0369343
0.0169838
0.0171748
-0.0372145
0.0374757
0.0154889
0.0162046
-0.0377064
0.0370843
0.0120067
0.0141533
0.0103534
0.00348659
-0.00377224
0.0353509
-0.00273511
0.0362668
0.00261512
0.036587
0.00347374
-0.00419193
0.0341816
0.0345515
0.00410473
-0.00399285
0.0319913
0.0328442
0.00425689
-0.00420844
0.0297843
0.0308403
0.00443893
-0.00457114
0.0280487
0.0287498
-0.00433166
0.026954
0.027491
-0.0281501
-0.00983518
-0.0268687
0.0264094
-0.00656887
-0.00847708
0.0290047
-0.0294194
-0.0126939
-0.0110708
0.0298551
-0.0303192
-0.0148459
-0.0137369
0.0307901
-0.0312694
-0.0159615
-0.0153299
0.0317348
-0.0321871
-0.0163952
-0.0160417
0.0326089
-0.0330068
-0.0166286
-0.016323
0.0333727
-0.0337184
-0.0169739
-0.0165931
0.0340409
-0.0343515
-0.0175129
-0.017035
0.0346466
-0.034934
-0.0182413
-0.0176691
0.0352077
-0.035472
-0.0191352
-0.0184839
0.0357186
-0.0359478
-0.0200805
-0.0194245
0.0361488
-0.0363184
-0.0207631
-0.0202921
0.0364466
-0.0365309
-0.0205929
-0.0206421
0.0365682
-0.0365626
-0.0187975
-0.0197696
0.0365213
-0.0364537
-0.0148131
-0.0169462
0.0363699
-0.0362751
-0.00876867
-0.0119104
0.036172
-0.0360569
-0.00152532
-0.00518798
0.0359274
-0.035778
0.00580256
0.00217353
0.03561
-0.0354243
0.0122305
0.0091098
0.03523
-0.0350316
0.0170049
0.0147464
0.0348345
-0.0346479
0.0197746
0.0185091
0.0343379
-0.0342389
0.0207142
0.0202993
0.0344217
-0.0345237
0.0205404
0.0207314
0.034851
-0.0349824
0.0198963
0.02017
0.0198592
-0.0351413
-0.0196779
0.0354072
-0.0350043
0.0194562
0.0199246
-0.0143028
0.0159129
-0.029728
-0.0308521
-0.0147982
0.0188023
-0.0295879
-0.0194352
-0.0323667
-0.0196872
-0.0347583
0.0194412
-0.0349156
-0.0199129
0.0178988
-0.0295007
-0.0200467
-0.0327085
0.017594
-0.0291772
-0.0202405
-0.0331443
0.000433283
-0.00117875
0.0370123
0.0373647
-0.0370435
0.00229395
0.037741
5.69625e-05
0.0167563
-0.0289752
-0.0200285
-0.034006
-0.0145218
0.0150714
-0.0302775
-0.00450955
0.0265873
-0.0143673
-0.0310067
-0.0315216
-0.0310335
0.0311779
-0.0159356
0.0313127
-0.0308152
-0.0148647
-0.0145191
-0.0303285
0.0299876
-0.0159487
-0.0151552
-0.0297748
0.0294178
-0.0155705
-0.0156545
-0.0286435
0.0278611
-0.0151489
-0.0153096
-0.0271091
0.026412
-0.0140171
-0.0146345
-0.0258088
0.0253136
-0.0115154
-0.0128799
-0.0249467
0.0247112
-0.00756789
-0.00964097
-0.0246119
0.0246476
-0.00265295
-0.00515805
-0.0248168
0.0251177
0.00256117
-4.32634e-05
-0.0255353
0.0260592
0.00742151
0.00503439
-0.0266611
0.0273254
0.01141
0.00947611
-0.028017
0.0287228
0.0142604
0.0128825
-0.0294123
0.030081
0.0159959
0.015136
-0.0307085
0.031299
0.0168495
0.0163803
-0.0318417
0.0323467
0.017127
0.0168998
-0.0328094
0.0332424
0.0171017
0.0169909
-0.0336436
0.0340255
0.0169795
0.0168918
-0.0343867
0.0347396
0.0169108
0.0167772
-0.0350828
0.0354286
0.0169808
0.0167692
-0.0357749
0.0361318
0.0171415
0.0168964
-0.0364934
0.0368643
0.0171509
0.0170177
-0.0372332
0.0375986
0.0166184
0.016806
-0.0379464
0.0382725
0.0151628
0.0158568
-0.0385647
0.0383271
0.0122444
0.0138611
-0.0382478
0.0374108
0.00721216
0.0104327
0.00530417
0.00083707
-0.0010706
0.0355844
0.0362454
0.00159791
-0.00153179
0.0341155
0.0350788
0.00145726
-0.00137281
0.0319069
0.0327697
0.00128394
-0.00154865
0.030049
0.0307514
0.00190767
-0.00164166
0.0277827
0.0291088
0.0262283
-0.0267977
-0.00599942
0.0261327
-0.00441396
0.00214092
-0.00226378
0.0267101
0.0274533
0.0275953
-0.0282924
-0.00913801
-0.00767953
0.028683
-0.0291154
-0.0122615
-0.0106803
0.0295784
-0.0300744
-0.01435
-0.013274
0.0305809
-0.0310986
-0.0154438
-0.0148233
0.0316026
-0.0320943
-0.0159035
-0.0155377
0.0325551
-0.0329933
-0.0161904
-0.0158622
0.0334005
-0.0337903
-0.0165841
-0.0161859
0.0341592
-0.0345201
-0.0171519
-0.0166661
0.0348689
-0.0352151
-0.0178951
-0.0173204
0.0355523
-0.0358871
-0.0188003
-0.0181467
0.0362106
-0.0365248
-0.0197663
-0.0191011
0.0368173
-0.0370855
-0.0204949
-0.0199997
0.0373152
-0.0375029
-0.0204053
-0.0204123
0.0376393
-0.0377258
-0.018711
-0.0196332
0.0377639
-0.0377611
-0.0148159
-0.0169081
0.0377246
-0.0376594
-0.00883386
-0.0119468
0.0375675
-0.0374453
-0.00164756
-0.00527985
0.0372913
-0.0370993
0.00561061
0.00201952
0.0368734
-0.0366151
0.0119722
0.00888381
0.0363369
-0.0360444
0.0167123
0.0144683
0.0357494
-0.0354565
0.0194817
0.0182141
0.0351775
-0.034914
0.0204507
0.0200204
0.0345071
-0.0342668
0.0203001
0.0203244
0.0340519
-0.0340287
0.0198731
0.0199552
0.0340943
-0.0339999
0.0193619
0.0199902
0.0192375
-0.0194673
-0.0345284
0.0339723
-0.0343399
0.019605
0.0194136
-0.0153075
0.0152152
-0.0309144
-0.0311452
-0.0149775
-0.0342956
-0.0200873
0.0195937
-0.019799
-0.0343231
-0.0340066
0.0192604
0.0188784
-0.0305675
-0.0198112
-0.0326021
0.0185257
-0.0304324
-0.0200424
-0.0329067
-0.00237093
0.00201515
0.0373681
-0.00286976
0.0382399
0.0177033
-0.0301242
-0.0202378
-0.032935
0.016914
-0.0308178
-0.020484
-0.0334349
0.0161517
-0.031214
0.0257812
-0.00191235
0.0164343
-0.0315799
-0.0159996
0.0171829
-0.0316631
-0.0335492
-0.0205453
0.019251
-0.0201726
-0.0334016
0.0187591
-0.0335147
-0.0163556
0.0166008
-0.031825
-0.0313851
0.0314891
-0.0161035
0.0382696
-0.0378018
0.0018262
0.0386241
-0.000297594
-0.0325356
-0.0152051
-0.0324545
-0.0312785
0.0319689
-0.0155551
-0.0147669
-0.0320975
0.0316249
-0.015463
-0.0146477
-0.0315552
0.0308773
-0.0152708
-0.0150855
-0.030168
0.0294132
-0.0148157
-0.0149452
-0.0286283
0.027826
-0.0143466
-0.0145247
-0.0270498
0.0263271
-0.0132943
-0.0138584
-0.0257
0.0251857
-0.0110011
-0.0122528
-0.0248057
0.0245628
-0.00732499
-0.00926097
-0.0244619
0.0245
-0.00269113
-0.00505707
-0.0246734
0.0249781
0.00225652
-0.000216671
-0.0253982
0.0259235
0.00689622
0.00461428
-0.0265262
0.0271922
0.0107441
0.00887339
-0.0278876
0.0286005
0.0135475
0.012187
-0.0293008
0.0299841
0.0153125
0.0144357
-0.0306296
0.0312416
0.0162375
0.0157348
-0.0318084
0.0323403
0.0165951
0.016333
-0.0328318
0.0332957
0.0166377
0.0164994
-0.0337295
0.0341462
0.0165628
0.0164581
-0.034544
0.0349364
0.0165185
0.0163794
-0.0353218
0.0357133
0.0165893
0.0163838
-0.0361085
0.0365181
0.016732
0.0165012
-0.0369352
0.0373652
0.0167209
0.0166007
-0.0377946
0.0382232
0.0161899
0.0163765
-0.0386333
0.0390217
0.0147744
0.0154466
-0.0393724
0.0393564
0.0122604
0.0135103
-0.0393262
0.0387434
0.007795
0.0104629
0.0062457
-0.00131159
0.00106245
0.0358335
0.0369489
-0.0011314
0.00119397
0.0340529
0.0350099
-0.0012479
0.00129863
0.0318562
0.0327158
-0.00134201
0.00137119
0.0300198
0.030708
-0.00138287
0.000889085
0.0282765
0.0290971
-0.000899255
0.000683217
0.0269262
0.0274431
-0.0331122
0.0328644
0.019007
0.0188227
-0.0195013
-0.0328362
-0.0326165
0.018327
0.000169824
0.0262946
0.0263672
-0.0269169
-0.00544973
-0.025846
0.0257962
-0.00186254
-0.00389282
0.0277069
-0.0280501
-0.00879483
-0.00688947
0.0284414
-0.0288891
-0.0118137
-0.010289
0.0293729
-0.0298951
-0.0138278
-0.0127902
0.0304311
-0.0309805
-0.0148944
-0.0142874
0.0315165
-0.032041
-0.015379
-0.0150017
0.0325347
-0.0330075
-0.0157176
-0.0153685
0.0334509
-0.0338802
-0.0161548
-0.0157425
0.0342913
-0.0346986
-0.0167446
-0.016255
0.0350972
-0.0354984
-0.0174938
-0.0169218
0.0358956
-0.0362975
-0.0183984
-0.0177495
0.0366945
-0.0370909
-0.0193699
-0.0187041
0.0374723
-0.0378371
-0.0201301
-0.0196183
0.0381672
-0.0384574
-0.020115
-0.0200823
0.0386924
-0.0388704
-0.0185329
-0.0193982
0.0389866
-0.0390465
-0.014756
-0.016792
0.0390542
-0.0390151
-0.00887298
-0.0119391
0.0389312
-0.0387998
-0.00177891
-0.00536376
0.0386192
-0.0383856
0.00537705
0.00183886
0.0381037
-0.0377758
0.0116444
0.00860187
0.0374172
-0.0370347
0.0163298
0.0141097
0.0366449
-0.036254
0.0190908
0.0178244
0.0358766
-0.0355153
0.0200894
0.0196429
0.0351772
-0.0348547
0.0199775
0.0199864
0.0345429
-0.0342376
0.0195679
0.0196433
0.0335533
-0.0335434
0.0193519
0.0193059
0.0333762
-0.0331014
0.0193302
0.0192464
0.0190233
0.0195692
-0.031611
-0.019841
-0.0328035
-0.00318725
0.0389416
0.0188083
-0.0315373
-0.020141
-0.0330035
0.0179902
-0.0312003
-0.0203916
-0.0330274
0.0177059
-0.032372
-0.0205974
-0.0329249
0.0179903
-0.0320215
0.0174991
-0.0325614
0.0167011
-0.033283
-0.0159537
0.0177114
-0.0328354
-0.0328842
-0.0208375
-0.0203802
-0.0325226
-0.0187467
0.0183248
-0.0321946
-0.0195694
-0.0320135
0.000151504
0.0258146
-0.0164154
0.01664
-0.0335075
-0.0334623
0.0314283
-0.0139197
0.0257026
-0.0260711
-0.00149396
0.0258244
2.9671e-05
-0.0342451
-0.0156326
-0.0327263
-0.0323774
0.0315243
-0.0152504
-0.0161542
-0.0327326
0.0321014
-0.0149238
-0.0159753
-0.0325299
0.0318849
-0.0148181
-0.0150763
-0.0316075
0.0309272
-0.0145905
-0.014808
-0.0302169
0.029462
-0.0140608
-0.0142349
-0.0286749
0.0278651
-0.0135367
-0.0137376
-0.0270745
0.0263324
-0.0125523
-0.0130678
-0.0256847
0.0251519
-0.0104683
-0.0116051
-0.0247583
0.0245071
-0.00707378
-0.00886737
-0.0244028
0.0244412
-0.0027295
-0.00495277
-0.0246163
0.024922
0.0019508
-0.000391717
-0.0253419
0.0258655
0.00637254
0.0041944
-0.0264658
0.0271295
0.0100804
0.00827312
-0.0278243
0.0285392
0.0128326
0.0114923
-0.0292449
0.0299374
0.0146199
0.0137301
-0.0305959
0.0312244
0.0156089
0.0150764
-0.0318107
0.032365
0.0160408
0.0157467
-0.032881
0.0333716
0.0161471
0.0159835
-0.0338336
0.0342806
0.0161158
0.0159961
-0.0347106
0.0351376
0.0160915
0.0159494
-0.03556
0.0359916
0.0161576
0.0159614
-0.0364296
0.0368853
0.0162762
0.0160632
-0.0373508
0.0378325
0.0162393
0.0161351
-0.0383151
0.0387993
0.0157057
0.0158939
-0.0392648
0.0397092
0.0143301
0.0149811
-0.0401123
0.0404724
0.0119003
0.0131072
-0.0407735
0.040156
0.00841257
0.0101618
-0.0401581
0.0394475
0.00253675
0.0062436
-0.0392469
0.0395213
-0.00346161