/*--------------------------------*- C++ -*----------------------------------*\
  =========                 |
  \\      /  F ield         | OpenFOAM: The Open Source CFD Toolbox
   \\    /   O peration     | Website:  https://openfoam.org
    \\  /    A nd           | Version:  10
     \\/     M anipulation  |
\*---------------------------------------------------------------------------*/
FoamFile
{
    format      ascii;
    class       volVectorField;
    location    "29.5";
    object      U;
}
// * * * * * * * * * * * * * * * * * * * * * * * * * * * * * * * * * * * * * //

dimensions      [0 1 -1 0 0 0 0];

internalField   nonuniform List<vector> 
33313
(
(0.305284 0.014946 -3.51384e-21)
(0.443134 0.0101521 1.93853e-21)
(0.388486 0.0304002 0)
(0.172439 0.0119124 0)
(0.755827 0.0324145 1.4105e-22)
(0.713598 0.0328304 0)
(0.599815 0.0342367 -8.58539e-22)
(0.635178 0.0269221 0)
(0.731299 0.0266552 3.15651e-22)
(0.602935 0.0231709 9.22491e-22)
(0.67517 0.0307946 0)
(0.0209116 -0.018275 -2.01832e-20)
(0.0115796 -0.00806021 -7.19066e-20)
(0.0119592 -0.00825099 -1.44628e-19)
(0.474021 -0.388229 5.60881e-21)
(0.181835 -0.133976 -4.09631e-20)
(0.162106 -0.127793 -2.63064e-20)
(1.53751 -0.342058 0)
(1.60563 -0.192541 0)
(1.53273 -0.125096 0)
(1.52516 -0.226642 5.39726e-20)
(0.519061 -0.0104019 0)
(0.437263 0.287988 -1.29662e-19)
(0.291343 0.244752 3.91269e-19)
(0.409553 -0.0250652 -8.33469e-20)
(1.00474 -0.0201431 -7.26694e-20)
(1.00455 -0.039307 5.03607e-20)
(1.0049 -0.0786274 0)
(0.962449 0.105519 -4.82023e-20)
(1.03566 0.101054 3.83448e-20)
(1.01574 0.0820014 2.60795e-20)
(0.996668 -0.0192247 -4.47592e-20)
(0.881719 0.0570024 -1.8601e-20)
(-0.0170956 -0.0837144 1.43182e-19)
(-0.0792252 -0.0510687 -2.95819e-19)
(-0.0862114 -0.0524424 1.83887e-19)
(-0.110508 -0.078002 2.55833e-20)
(1.10957 -0.00172703 5.3146e-24)
(1.11292 -0.00100908 9.31254e-22)
(1.463 0.26007 -7.88531e-21)
(1.44336 0.239641 1.46446e-20)
(1.0334 -0.191421 -4.45278e-20)
(1.03941 -0.185849 -3.48704e-21)
(-0.0880773 -0.0525433 -1.22153e-19)
(-0.0822488 0.0502348 2.35551e-20)
(-0.0896398 0.0612615 -9.52167e-20)
(0.191629 0.458419 9.40898e-20)
(0.174675 0.324392 3.30384e-20)
(0.439937 -0.047132 -8.34948e-22)
(0.555535 -0.0274501 -3.90867e-22)
(1.042 0.0688638 -3.35705e-20)
(1.05968 0.0631974 1.83131e-20)
(1.06401 -0.097589 -6.25276e-20)
(1.01903 -0.0607793 1.65068e-19)
(0.458099 0.511732 2.08384e-19)
(0.396153 0.561809 -1.07672e-19)
(0.612093 0.689917 -1.05499e-19)
(0.360626 0.632353 2.25873e-19)
(0.2459 -0.417558 2.34027e-20)
(0.384761 -0.765319 -2.34216e-21)
(0.205215 0.50113 -7.43507e-20)
(0.425815 -0.317495 2.26603e-19)
(0.237103 -0.249466 -6.8148e-20)
(0.103117 -0.186209 0)
(0.093689 -0.0046535 0)
(0.126271 -0.0146724 1.0949e-20)
(1.45748 0.00856085 1.87166e-20)
(1.41324 -0.195954 0)
(1.40584 -0.189764 0)
(0.340782 0.609366 4.10506e-20)
(0.315231 0.652841 0)
(0.495372 0.599456 0)
(0.476755 0.0669204 1.76385e-20)
(1.47575 0.30189 3.34258e-20)
(0.0672064 0.463837 1.1667e-19)
(0.185526 0.423909 9.58148e-20)
(0.737754 0.296923 0)
(0.668042 0.353635 5.41024e-20)
(1.37767 0.335047 1.80126e-20)
(1.40954 0.286928 -1.20662e-20)
(0.829008 -0.0890197 1.43493e-19)
(0.842402 -0.0670533 -4.76422e-20)
(0.80444 -0.124293 0)
(1.29291 0.208713 9.21418e-21)
(1.14646 0.227061 -2.31342e-21)
(0.53254 0.0678134 -9.79343e-21)
(0.0313937 0.0340602 0)
(-0.0630074 0.0656198 1.14504e-20)
(-0.0750148 0.0575334 6.42869e-20)
(0.0406203 -0.164694 2.76078e-19)
(-0.124572 -0.0767827 1.17725e-20)
(-0.000219223 -0.0195652 -4.76517e-21)
(-0.120234 -0.150969 -8.07397e-19)
(-0.165431 -0.167134 0)
(-0.172919 -0.174089 7.76635e-20)
(1.04194 0.0639323 0)
(1.01533 0.0615863 -3.99673e-21)
(0.512133 -0.0520024 1.2795e-21)
(0.652023 -0.0357835 -1.84522e-21)
(1.50184 -0.135486 0)
(1.50588 -0.18907 -1.18518e-19)
(1.52936 -0.104128 0)
(1.52885 0.00176666 4.77897e-20)
(1.54402 -0.0179247 7.89447e-21)
(1.54146 -0.00932521 -5.30308e-20)
(0.437366 0.018643 -4.03308e-21)
(0.286371 -0.0339025 -1.55956e-19)
(-0.00105719 -0.0539819 -1.09979e-19)
(0.0187703 -0.0504036 -5.58898e-22)
(0.986395 -0.655684 3.50537e-20)
(1.17954 -0.82158 -1.585e-20)
(1.0041 -0.781921 -3.32427e-20)
(0.788525 -0.544855 0)
(0.907829 -0.248396 1.23051e-19)
(0.353434 -0.0462927 6.06267e-20)
(0.832526 -0.0987537 -5.49887e-20)
(0.212545 0.0245512 -4.33085e-19)
(0.173973 0.172801 5.04391e-20)
(1.52438 -0.0139729 2.34998e-21)
(1.50646 0.00633272 0)
(-0.0745577 -0.0956605 0)
(-0.0762681 -0.0677251 1.88147e-19)
(-0.0844409 -0.0946143 0)
(0.366437 -0.0161286 -1.25872e-21)
(0.430074 -0.0118629 7.5227e-22)
(0.225454 -0.0370079 -6.65242e-21)
(0.751556 0.687643 1.88469e-19)
(1.21511 -0.113397 -2.05259e-23)
(1.20853 -0.122514 0)
(-0.119653 0.290137 1.44255e-20)
(-0.0766456 0.396518 -2.03234e-20)
(-0.11888 -0.132659 -2.76011e-19)
(-0.107382 -0.120273 5.11254e-19)
(0.8605 0.662984 4.33527e-20)
(1.0204 0.678396 8.08024e-20)
(0.883723 0.631677 0)
(0.730525 0.570711 0)
(0.543477 -0.371741 -2.39387e-20)
(0.674367 -0.474238 0)
(0.919783 -0.809778 -5.58219e-20)
(0.926964 -0.778208 3.8684e-20)
(0.776787 -0.833934 6.96286e-20)
(1.20454 -0.099812 -4.44483e-22)
(1.20632 -0.0917223 -3.14751e-21)
(1.22162 -0.106532 4.30779e-25)
(1.07071 0.00659085 0)
(1.07327 0.00721347 -1.81557e-21)
(1.07566 0.00517584 2.58122e-21)
(1.07788 0.00393837 1.50514e-21)
(1.01922 -0.235619 3.38452e-20)
(1.03427 -0.238489 0)
(1.01212 -0.194685 -5.92808e-20)
(1.02038 -0.20737 3.43811e-20)
(0.936876 0.0744635 3.10243e-20)
(0.929015 0.0919407 -4.82438e-20)
(0.947752 0.100429 2.96747e-20)
(0.941025 0.112629 1.75106e-19)
(0.427987 0.382065 3.86022e-20)
(0.173297 0.57765 0)
(0.319647 0.538094 -4.73607e-20)
(-0.0986409 -0.109376 -4.35898e-19)
(0.428914 0.348732 -5.3707e-22)
(0.458017 0.41079 -2.66528e-20)
(0.829373 0.681669 -4.78091e-20)
(0.464849 0.457887 -8.5097e-20)
(0.022662 -0.091268 0)
(0.0210246 -0.0542886 7.90918e-20)
(-0.0383664 -0.00794583 -5.35987e-20)
(0.37977 0.0764418 0)
(0.774179 0.0268791 0)
(0.829134 0.0280704 -2.86327e-22)
(1.05857 0.013935 2.38726e-21)
(1.05945 0.0113182 -1.4985e-21)
(1.08465 0.0263036 2.07712e-21)
(1.08789 0.0308532 1.60976e-23)
(1.01304 -0.0917573 1.53432e-20)
(1.02485 -0.0761884 -6.76243e-20)
(0.221649 0.169192 4.96552e-20)
(0.200346 0.226521 -4.21578e-20)
(1.43411 -0.0282779 0)
(1.42182 -0.0538384 0)
(1.11731 0.00937591 -8.6498e-22)
(1.12233 0.0122885 -1.16874e-20)
(1.0902 0.177828 -4.5428e-20)
(1.0862 0.17143 1.56115e-20)
(0.974268 0.462311 0)
(0.91995 0.462281 -7.75736e-21)
(0.221342 0.277203 1.09141e-20)
(0.275491 0.316093 1.38253e-20)
(0.072816 0.337731 1.33038e-21)
(-0.0703754 0.547744 -3.02393e-19)
(0.838942 0.00985395 -5.26899e-20)
(0.868549 0.0104683 2.23368e-20)
(0.0397244 0.450456 5.00938e-21)
(0.0499139 0.486415 0)
(0.91278 0.216676 0)
(0.884901 0.246655 -3.36857e-21)
(0.854143 0.340809 -6.30335e-20)
(0.993106 -0.293924 2.17922e-20)
(0.971168 -0.325287 0)
(0.973645 -0.490381 2.55789e-20)
(0.818178 -0.0332843 -4.34661e-20)
(0.845395 -0.0263724 5.3641e-20)
(1.04032 -0.0685725 6.22258e-21)
(1.03351 -0.0615102 -1.35668e-20)
(-0.106772 0.0325588 0)
(-0.10595 0.0155553 -3.37218e-20)
(1.35265 -0.673822 -5.5584e-20)
(1.28342 -0.685742 1.86524e-20)
(1.02886 -0.0576945 -4.64332e-20)
(1.03383 -0.0666833 5.51111e-20)
(0.724192 0.0323941 -6.12131e-25)
(0.788842 0.0312657 7.08872e-25)
(0.786243 0.0307849 -3.71725e-22)
(0.732835 0.0309386 -2.02643e-22)
(0.612092 -0.46866 -1.10321e-20)
(0.0218103 -0.0134784 8.20057e-20)
(0.0180158 -0.0101861 -4.04453e-20)
(0.97372 0.167127 1.39161e-20)
(0.973601 0.149904 -6.49638e-21)
(0.985022 0.150462 6.52412e-21)
(0.987036 0.168336 0)
(1.48882 -0.000946707 -3.6804e-20)
(1.47585 0.0205851 2.04401e-21)
(1.45546 0.0228398 3.58608e-20)
(1.08928 0.276572 0)
(1.0734 0.270322 -4.29093e-20)
(1.09258 0.273801 0)
(-0.0596949 0.0377482 -3.81784e-20)
(-0.0205592 0.012404 -8.57087e-20)
(-0.0261373 0.0164864 0)
(0.217322 -0.147082 -1.24083e-19)
(0.186849 -0.130085 4.57295e-20)
(1.05709 0.0151372 1.72479e-21)
(1.07602 -0.00123476 -8.58948e-21)
(1.07793 0.00176109 -4.12791e-21)
(1.53812 -0.410919 0)
(1.05611 -0.189248 0)
(0.854504 0.351107 -6.00733e-21)
(0.850172 0.271992 -6.24489e-21)
(0.847398 0.173364 8.54072e-21)
(0.845801 0.0752859 -7.13369e-22)
(0.849896 -0.0303263 0)
(0.856421 -0.132004 -4.97294e-21)
(0.865398 -0.229842 4.97196e-21)
(0.875894 -0.319375 4.5809e-21)
(0.888302 -0.397843 -4.57798e-21)
(0.902076 -0.463311 -4.02278e-21)
(0.9168 -0.51518 4.02007e-21)
(0.931519 -0.553468 3.43947e-21)
(0.945806 -0.579468 -3.43703e-21)
(0.95896 -0.594698 0)
(0.970824 -0.601417 0)
(0.981067 -0.601601 0)
(0.989799 -0.597386 2.36464e-21)
(0.996971 -0.590367 -2.36666e-21)
(1.00282 -0.58201 0)
(1.00742 -0.573259 0)
(1.011 -0.564914 0)
(1.01364 -0.557435 1.99409e-21)
(1.01549 -0.551292 -4.09427e-24)
(1.01656 -0.546738 -3.99939e-21)
(1.01685 -0.544093 2.00933e-21)
(1.01661 -0.543299 -2.10429e-21)
(1.01506 -0.544055 6.65633e-21)
(1.01339 -0.54531 1.90206e-23)
(1.01095 -0.545985 0)
(1.00913 -0.544441 8.03458e-22)
(1.00666 -0.538361 0)
(1.00515 -0.526695 -1.89507e-21)
(0.892954 0.367266 0)
(0.879685 0.439338 1.22131e-20)
(0.902558 0.441954 3.83798e-21)
(0.856891 0.424793 2.8658e-21)
(1.00407 -0.477262 -2.41934e-21)
(1.00116 -0.506909 1.95545e-21)
(0.989754 -0.533997 0)
(0.979085 -0.499546 -1.03427e-21)
(0.984269 -0.522681 -9.47017e-22)
(0.999569 -0.542164 0)
(0.994487 -0.540362 0)
(1.00752 -0.540972 0)
(1.00336 -0.541742 0)
(1.01325 -0.54284 -5.07107e-26)
(1.01063 -0.541157 0)
(1.01608 -0.551898 0)
(1.01502 -0.546448 0)
(1.01589 -0.567462 -5.78476e-24)
(1.01637 -0.559005 0)
(1.01219 -0.586882 0)
(1.01453 -0.57692 0)
(1.00391 -0.605065 -7.13344e-24)
(1.0087 -0.596615 0)
(0.989878 -0.611956 -8.35001e-24)
(0.997665 -0.610782 0)
(0.9698 -0.591854 -9.95574e-24)
(0.980545 -0.606408 -1.12192e-27)
(0.945427 -0.527032 0)
(0.957937 -0.565989 0)
(0.921011 -0.406233 0)
(0.932884 -0.473783 0)
(0.901675 -0.232897 0)
(0.910475 -0.325241 0)
(0.889081 -0.0254053 0)
(0.894546 -0.131938 0)
(0.884411 0.184879 3.52948e-21)
(0.884873 0.0786471 8.87535e-22)
(0.88581 0.279789 -1.78076e-22)
(0.88578 0.493902 2.39117e-23)
(0.909173 0.503455 1.738e-21)
(0.971265 -0.476807 0)
(0.865109 0.483836 -9.37275e-21)
(0.979924 -0.433768 0)
(1.00318 -0.437232 2.75322e-21)
(0.895403 0.540017 7.9897e-23)
(0.917907 0.549221 -1.5994e-21)
(0.962148 -0.435271 -5.06024e-21)
(1.02738 -0.479319 0)
(0.875319 0.528408 -1.30471e-21)
(1.02857 -0.441256 -2.79883e-21)
(0.925768 0.581421 -1.53313e-21)
(0.887945 0.558821 1.2761e-21)
(0.906092 0.570467 0)
(0.834196 0.414059 -3.6748e-22)
(0.857978 0.516606 2.42983e-21)
(0.845245 0.471953 5.82723e-21)
(0.820742 0.261118 1.92076e-22)
(0.826035 0.342169 -2.94345e-21)
(0.814859 0.0744556 -6.83474e-24)
(0.817132 0.172294 -6.9345e-21)
(0.823539 -0.124364 0)
(0.816921 -0.0255728 0)
(0.84559 -0.304459 0)
(0.833452 -0.21828 0)
(0.875273 -0.444068 0)
(0.859667 -0.380276 0)
(0.908492 -0.533462 0)
(0.891786 -0.49505 0)
(0.940095 -0.576948 0)
(0.924766 -0.560241 0)
(0.966641 -0.58761 0)
(0.95412 -0.58542 0)
(0.987021 -0.580222 0)
(0.97759 -0.585344 0)
(1.00183 -0.566312 0)
(0.995045 -0.57355 0)
(1.01232 -0.552956 0)
(1.00752 -0.559277 0)
(1.01957 -0.544285 5.82811e-26)
(1.01621 -0.547867 0)
(1.02441 -0.542637 -3.44693e-26)
(1.02181 -0.542568 0)
(1.02612 -0.546308 -3.58491e-22)
(1.0247 -0.544321 -5.15864e-21)
(1.02538 -0.546273 -1.50664e-21)
(1.02521 -0.547547 2.74843e-21)
(1.02575 -0.528125 1.91326e-21)
(1.02523 -0.540121 -8.44761e-22)
(1.02543 -0.50827 0)
(0.975259 -0.386727 -6.80459e-22)
(1.02795 -0.393192 -2.99776e-22)
(1.00034 -0.390179 0)
(0.95843 -0.4947 -1.19125e-22)
(0.941422 -0.425597 4.91855e-21)
(0.950494 -0.464672 0)
(0.97418 -0.527377 0)
(0.966267 -0.514219 4.45588e-22)
(0.98894 -0.536261 -3.918e-22)
(0.981602 -0.533878 0)
(1.00147 -0.536389 0)
(0.995629 -0.536535 3.92711e-22)
(1.01094 -0.53968 -1.0993e-25)
(1.00663 -0.537225 0)
(1.01735 -0.550202 0)
(1.01452 -0.544017 0)
(1.02087 -0.567296 5.7949e-24)
(1.01947 -0.558042 0)
(1.02119 -0.588672 0)
(1.02147 -0.577658 0)
(1.01734 -0.609516 7.14764e-24)
(1.01986 -0.599643 0)
(1.00814 -0.619716 8.36699e-24)
(1.01347 -0.616834 0)
(0.99304 -0.602909 9.97468e-24)
(1.0013 -0.615892 1.12418e-27)
(0.973337 -0.540024 0)
(0.983585 -0.578283 0)
(0.952707 -0.418483 0)
(0.962836 -0.486786 0)
(0.935776 -0.241802 0)
(0.943545 -0.336058 0)
(0.925003 -0.0306208 1.63634e-23)
(0.929562 -0.138732 0)
(0.921327 0.184649 0)
(0.922272 0.0786701 0)
(0.925396 0.371307 0)
(0.922242 0.282421 0)
(0.93537 0.510956 -7.87279e-22)
(0.930281 0.448835 -4.39409e-21)
(0.946939 0.591006 -1.22461e-21)
(0.941917 0.559243 4.67276e-21)
(0.953546 -0.384757 2.11175e-21)
(0.872288 0.546062 -2.1472e-21)
(0.934726 0.600216 1.3629e-21)
(0.954235 0.61043 -1.93391e-21)
(1.02752 -0.337189 1.81492e-21)
(1.05573 -0.394077 2.18241e-21)
(1.0575 -0.338143 1.17474e-21)
(0.90115 0.576616 0)
(0.922493 -0.4177 2.18748e-21)
(0.931658 -0.376983 6.62222e-22)
(0.912283 -0.370249 2.65874e-21)
(0.887553 0.563206 1.03125e-22)
(0.91713 0.589213 0)
(0.842021 0.502645 -5.69615e-22)
(0.875828 0.547241 -2.45451e-21)
(0.858434 0.530764 1.09115e-21)
(0.813716 0.403861 -2.93283e-21)
(0.826947 0.460004 0)
(0.797301 0.25543 7.77054e-23)
(0.803494 0.335024 1.54275e-21)
(0.792311 0.0757753 -3.68648e-22)
(0.793831 0.168656 4.60346e-22)
(0.800799 -0.11589 0)
(0.794303 -0.0205521 0)
(0.824205 -0.290513 0)
(0.811097 -0.206829 0)
(0.856436 -0.426984 0)
(0.839508 -0.364426 0)
(0.892412 -0.515904 0)
(0.874304 -0.477395 0)
(0.926959 -0.56118 0)
(0.910128 -0.543347 0)
(0.956646 -0.574828 -3.08518e-24)
(0.942532 -0.571069 0)
(0.980273 -0.570528 0)
(0.96921 -0.574144 0)
(0.998349 -0.559195 0)
(0.989924 -0.565226 0)
(1.01211 -0.547805 0)
(1.00565 -0.55321 0)
(1.02272 -0.540666 8.52562e-26)
(1.0176 -0.543506 0)
(1.03104 -0.54018 -6.70397e-26)
(1.02669 -0.539538 0)
(1.03734 -0.544616 -5.70908e-23)
(1.03375 -0.54212 0)
(1.04196 -0.545058 -2.16291e-22)
(1.03939 -0.546061 -1.61031e-21)
(1.04659 -0.527519 5.0627e-22)
(1.04414 -0.539292 2.23284e-22)
(1.05153 -0.479308 -6.47899e-22)
(1.04861 -0.5077 -1.1043e-21)
(1.05433 -0.441723 6.57748e-22)
(0.970695 -0.331403 -9.25503e-22)
(0.997822 -0.335083 0)
(0.922788 -0.320406 1.87614e-21)
(0.946116 -0.327783 -3.35009e-22)
(0.941597 -0.484443 5.77768e-23)
(0.932229 -0.455432 0)
(0.961242 -0.518507 8.96719e-23)
(0.951305 -0.505469 -1.85547e-22)
(0.980152 -0.528516 6.15075e-24)
(0.970966 -0.525663 1.03779e-22)
(0.996499 -0.530066 0)
(0.988758 -0.529445 0)
(1.00948 -0.534898 -1.67684e-25)
(1.0034 -0.531659 0)
(1.01934 -0.546877 -5.37046e-24)
(1.01476 -0.539986 0)
(1.02653 -0.565373 0)
(1.02326 -0.555407 0)
(1.03088 -0.588427 0)
(1.0291 -0.576519 0)
(1.03154 -0.61147 0)
(1.03174 -0.600426 0)
(1.02734 -0.624339 -8.61856e-24)
(1.03012 -0.620083 0)
(1.0175 -0.610119 0)
(1.02313 -0.621876 0)
(1.00289 -0.548714 0)
(1.01065 -0.586438 0)
(0.986636 -0.426735 0)
(0.994709 -0.495511 0)
(0.972708 -0.247987 0)
(0.979184 -0.343406 0)
(0.963271 -0.0344019 -1.64879e-23)
(0.967385 -0.143657 0)
(0.959007 0.183268 0)
(0.960496 0.0758704 0)
(0.959691 0.375115 1.85697e-21)
(0.958825 0.283979 0)
(0.963887 0.516173 4.68694e-23)
(0.961263 0.453257 -1.85365e-21)
(0.970197 0.596785 -6.23549e-22)
(0.967251 0.564597 2.96205e-21)
(0.96025 0.618171 -2.23314e-21)
(0.978326 0.624054 0)
(0.974633 0.616307 -2.08526e-21)
(0.903561 0.570131 4.95516e-21)
(0.894271 0.554443 -2.53825e-21)
(0.914939 0.584022 2.13829e-21)
(0.943591 0.608742 0)
(0.902482 -0.313976 -2.93196e-21)
(0.982413 0.624357 0)
(0.967343 0.618631 4.86774e-21)
(1.02593 -0.273749 -7.37469e-22)
(1.05769 -0.274384 1.24063e-21)
(1.08374 -0.392919 3.28374e-21)
(0.919966 0.57088 0)
(0.912643 0.555489 -1.20365e-21)
(1.08717 -0.337441 0)
(0.92846 0.597025 0)
(0.86606 0.529599 1.96794e-21)
(0.905991 0.537946 1.22959e-21)
(0.886104 0.536295 -1.45441e-21)
(0.828122 0.487292 -3.46024e-22)
(0.846579 0.514175 1.03928e-21)
(0.797266 0.393221 -1.82005e-21)
(0.811629 0.447225 3.07739e-22)
(0.778822 0.249539 -4.98176e-22)
(0.786213 0.32653 0)
(0.773633 0.0761129 -6.05605e-25)
(0.774881 0.165538 3.30195e-22)
(0.782416 -0.107321 0)
(0.775915 -0.0158692 0)
(0.806588 -0.275818 0)
(0.792895 -0.19489 0)
(0.840733 -0.40896 0)
(0.822769 -0.34769 0)
(0.879004 -0.497394 0)
(0.85972 -0.458801 0)
(0.916032 -0.54437 3.20774e-24)
(0.897937 -0.525472 0)
(0.94839 -0.560854 3.08518e-24)
(0.932916 -0.555604 0)
(0.974855 -0.55951 0)
(0.962355 -0.561683 0)
(0.995875 -0.550648 0)
(0.985961 -0.555521 0)
(1.01266 -0.541108 0)
(1.00466 -0.545649 0)
(1.02641 -0.535308 1.12684e-25)
(1.01971 -0.537509 0)
(1.03803 -0.535687 -9.86754e-26)
(1.03216 -0.534641 0)
(1.04828 -0.540498 -2.98289e-24)
(1.04302 -0.537804 0)
(1.05784 -0.541138 -6.99326e-24)
(1.05303 -0.54203 0)
(1.06709 -0.524063 -5.21658e-22)
(1.0625 -0.535703 0)
(1.07588 -0.476714 -5.8767e-22)
(1.07119 -0.504791 1.13528e-21)
(1.07969 -0.440078 -1.00559e-21)
(0.966316 -0.268097 2.13128e-22)
(0.995156 -0.27193 8.1963e-22)
(0.915117 -0.256762 2.80038e-21)
(0.939811 -0.263659 3.9219e-22)
(0.905467 -0.407067 -2.57505e-21)
(0.884634 -0.306134 2.2929e-21)
(0.894835 -0.360624 -3.07588e-22)
(0.927255 -0.473542 4.87927e-25)
(0.916152 -0.444389 5.11469e-22)
(0.950238 -0.507762 -4.1098e-22)
(0.938724 -0.494378 0)
(0.972745 -0.518824 -5.54571e-24)
(0.961727 -0.515282 0)
(0.992478 -0.521921 0)
(0.98302 -0.52046 0)
(1.00877 -0.528383 -2.20925e-25)
(1.00105 -0.524347 0)
(1.02202 -0.541737 5.37046e-24)
(1.01572 -0.534192 0)
(1.03286 -0.561474 0)
(1.02772 -0.550881 0)
(1.04132 -0.586004 0)
(1.03742 -0.573305 0)
(1.0467 -0.611064 0)
(1.04446 -0.59893 0)
(1.04784 -0.626578 8.61856e-24)
(1.04789 -0.620933 0)
(1.04366 -0.615186 0)
(1.04645 -0.625563 0)
(1.03446 -0.555694 0)
(1.03959 -0.592658 0)
(1.02263 -0.433663 0)
(1.02865 -0.502737 0)
(1.01165 -0.25312 0)
(1.01685 -0.349574 0)
(1.00342 -0.03738 1.72056e-23)
(1.00717 -0.147684 0)
(0.997976 0.18197 0)
(1.00037 0.073813 0)
(0.994922 0.375169 -1.41644e-25)
(0.996212 0.283474 0)
(0.99385 0.518282 0)
(0.994123 0.454127 0)
(0.994302 0.600222 7.11568e-22)
(0.993937 0.56724 0)
(0.996663 0.6273 -3.92826e-21)
(0.995612 0.619778 3.21519e-22)
(0.985912 0.620055 -3.83156e-21)
(0.999093 0.622302 4.14856e-21)
(0.998065 0.627104 1.42576e-22)
(0.893609 -0.250787 -2.18766e-22)
(0.92974 0.554815 0)
(0.924829 0.538276 -2.803e-23)
(0.929094 0.585038 -2.10719e-21)
(0.952876 0.609709 -1.04e-21)
(1.08945 -0.273899 -3.29661e-21)
(1.00009 0.616445 5.58951e-23)
(1.01261 0.621354 3.50947e-21)
(1.01092 0.615375 -6.91854e-21)
(0.935737 0.569888 -1.85215e-21)
(0.973354 0.614738 -2.03716e-21)
(0.989367 0.614571 3.7091e-21)
(0.946018 0.554749 0)
(0.869289 -0.29711 -2.15522e-21)
(0.875331 -0.244227 -5.06312e-22)
(0.859874 -0.236819 -2.33682e-21)
(0.942694 0.539595 1.4509e-21)
(0.940132 0.598231 9.89506e-22)
(0.901078 0.519024 6.71372e-22)
(0.940715 0.523496 0)
(0.921547 0.520699 -2.06217e-21)
(0.858094 0.509503 3.76753e-22)
(0.879768 0.516386 -3.80767e-22)
(0.8171 0.469308 4.7913e-22)
(0.836954 0.494733 -8.9073e-22)
(0.784443 0.380173 0)
(0.799471 0.431387 0)
(0.764401 0.243199 0)
(0.77262 0.316732 0)
(0.758857 0.0768279 -9.48867e-24)
(0.759893 0.162466 0)
(0.768194 -0.0987725 0)
(0.761512 -0.0112286 0)
(0.79282 -0.260699 0)
(0.778814 -0.182777 0)
(0.828177 -0.390097 0)
(0.809525 -0.330294 0)
(0.868163 -0.477857 0)
(0.847976 -0.439254 0)
(0.907201 -0.52641 -3.20774e-24)
(0.888071 -0.50651 0)
(0.941803 -0.545609 0)
(0.925179 -0.538929 0)
(0.970722 -0.547123 0)
(0.956969 -0.547896 0)
(0.994366 -0.540655 0)
(0.983119 -0.544403 0)
(1.01391 -0.532879 0)
(1.00452 -0.536604 0)
(1.03058 -0.528275 1.37368e-25)
(1.02244 -0.529933 0)
(1.04542 -0.529332 -1.25439e-25)
(1.03804 -0.528017 0)
(1.05946 -0.534376 2.98234e-24)
(1.05239 -0.531651 0)
(1.07346 -0.53517 0)
(1.06641 -0.536029 0)
(1.08732 -0.518541 0)
(1.08031 -0.529923 0)
(1.10029 -0.472287 1.22409e-21)
(1.09341 -0.499825 0)
(1.11129 -0.389859 -3.57122e-21)
(1.10517 -0.435855 6.80009e-22)
(1.12063 -0.272372 6.58749e-21)
(1.11613 -0.335328 -1.95528e-22)
(1.02492 -0.203093 -8.2513e-22)
(1.09224 -0.204356 8.62165e-22)
(1.05855 -0.20405 0)
(0.962078 -0.197645 0)
(0.992308 -0.201007 0)
(0.908739 -0.18779 -4.45143e-22)
(0.934313 -0.193506 1.47846e-21)
(0.867473 -0.176497 1.63579e-21)
(0.886442 -0.182582 -2.6686e-21)
(0.890787 -0.395668 -7.20333e-24)
(0.879734 -0.350335 -2.29994e-21)
(0.915144 -0.461622 5.33076e-25)
(0.902624 -0.432761 0)
(0.941146 -0.495604 -1.1773e-23)
(0.928075 -0.482183 0)
(0.96665 -0.507475 3.71718e-25)
(0.954114 -0.503371 0)
(0.989479 -0.512177 0)
(0.97849 -0.509862 0)
(1.00884 -0.520284 -2.68954e-25)
(0.999577 -0.515461 0)
(1.02531 -0.534909 0)
(1.01737 -0.526777 0)
(1.03971 -0.555683 0)
(1.03274 -0.544578 0)
(1.05225 -0.581381 0)
(1.04623 -0.56806 0)
(1.0624 -0.608067 0)
(1.05769 -0.595046 0)
(1.06902 -0.625852 0)
(1.06624 -0.61899 0)
(1.07079 -0.617136 -1.03658e-23)
(1.07057 -0.626165 0)
(1.06733 -0.559853 0)
(1.06966 -0.595841 0)
(1.06021 -0.438597 -1.48488e-23)
(1.06406 -0.507495 0)
(1.05218 -0.25739 0)
(1.05615 -0.354303 0)
(1.04495 -0.0405591 -1.72056e-23)
(1.04845 -0.151394 0)
(1.03825 0.179476 0)
(1.04159 0.0710559 0)
(1.03145 0.372852 3.90918e-26)
(1.03489 0.281157 0)
(1.02483 0.516102 0)
(1.02806 0.451775 0)
(1.01922 0.598628 -3.66846e-23)
(1.02184 0.565134 0)
(1.0156 0.62612 -1.66668e-21)
(1.01727 0.618311 -9.85477e-22)
(1.01412 0.626094 1.36316e-21)
(1.00021 0.611667 3.16903e-21)
(1.00869 0.610319 3.4794e-21)
(1.12478 -0.203124 0)
(0.95922 0.54343 -3.97705e-21)
(0.958077 0.528116 1.34086e-21)
(0.943021 0.583526 1.72325e-21)
(0.961873 0.606583 4.96355e-22)
(0.85178 -0.170843 -2.18954e-21)
(0.950478 0.568768 0)
(0.979319 0.609816 0)
(0.961179 0.557187 -1.52713e-21)
(0.991986 0.610294 0)
(1.00584 0.607706 0)
(0.99974 0.609349 -3.20126e-21)
(0.974886 0.548161 4.62496e-21)
(1.15078 -0.26998 -1.25108e-20)
(1.15522 -0.201792 4.03835e-21)
(0.975036 0.534042 -2.26455e-24)
(0.95167 0.595987 3.90968e-22)
(0.939032 0.505655 -1.06521e-21)
(0.975507 0.518619 -5.11199e-22)
(0.957718 0.511585 1.09248e-21)
(0.898014 0.498667 -1.95772e-23)
(0.919269 0.501615 -2.90615e-22)
(0.852719 0.487897 -2.43582e-24)
(0.875616 0.495011 3.03694e-22)
(0.809397 0.450317 0)
(0.830435 0.474094 0)
(0.774765 0.366326 0)
(0.790626 0.41455 0)
(0.753572 0.236679 0)
(0.76231 0.30642 0)
(0.747824 0.0777017 8.29209e-24)
(0.748761 0.159597 0)
(0.757703 -0.0900504 0)
(0.750787 -0.00641487 0)
(0.782668 -0.245258 0)
(0.768479 -0.170443 0)
(0.818689 -0.370615 0)
(0.79965 -0.312434 0)
(0.859798 -0.457457 -2.88024e-24)
(0.838993 -0.418953 0)
(0.900363 -0.507436 2.54913e-24)
(0.880426 -0.486602 0)
(0.936806 -0.529233 0)
(0.919225 -0.521177 0)
(0.967828 -0.533507 0)
(0.952994 -0.532926 0)
(0.993786 -0.529357 0)
(0.98136 -0.532018 0)
(1.01583 -0.523263 0)
(1.00518 -0.526222 0)
(1.0352 -0.519737 1.58181e-25)
(1.02572 -0.520933 0)
(1.05311 -0.521313 -1.48221e-25)
(1.04422 -0.519826 0)
(1.07074 -0.526404 -2.7211e-24)
(1.06187 -0.52373 0)
(1.08884 -0.527139 0)
(1.07967 -0.528026 0)
(1.10708 -0.51088 0)
(1.09783 -0.52196 0)
(1.12414 -0.46567 -9.11409e-24)
(1.11539 -0.492474 0)
(1.13863 -0.385224 -4.3924e-23)
(1.13077 -0.429956 0)
(1.14411 -0.332048 -1.39611e-21)
(1.09223 -0.129186 -8.55847e-22)
(1.15854 -0.128056 8.84624e-22)
(1.12594 -0.128592 0)
(1.02321 -0.12705 0)
(1.05798 -0.128919 -8.6624e-22)
(0.958434 -0.121834 0)
(0.989523 -0.125014 0)
(0.903648 -0.114167 2.13703e-21)
(0.929845 -0.118299 0)
(0.861539 -0.105475 2.76409e-21)
(0.880914 -0.109901 -1.60179e-21)
(0.845688 -0.101394 -5.32099e-22)
(0.856391 -0.287206 -2.41616e-22)
(0.839235 -0.165019 2.14883e-22)
(0.847095 -0.228769 1.95267e-21)
(0.878727 -0.383382 6.64e-25)
(0.866994 -0.338893 2.39194e-22)
(0.905147 -0.44834 5.64263e-25)
(0.891548 -0.420081 0)
(0.933707 -0.481954 4.7668e-25)
(0.919309 -0.468595 0)
(0.961926 -0.494657 4.06362e-25)
(0.948032 -0.489982 0)
(0.987488 -0.500979 0)
(0.975135 -0.497803 0)
(1.00964 -0.510681 -3.10823e-25)
(0.998963 -0.505107 0)
(1.02914 -0.526431 -4.67142e-24)
(1.01965 -0.517795 0)
(1.04698 -0.548018 0)
(1.03823 -0.536523 0)
(1.06352 -0.574574 0)
(1.05542 -0.560796 0)
(1.07842 -0.602519 0)
(1.07123 -0.588795 0)
(1.09061 -0.62227 -8.22985e-24)
(1.08495 -0.614327 0)
(1.09847 -0.616157 1.03658e-23)
(1.09518 -0.623836 0)
(1.10092 -0.561372 0)
(1.10038 -0.596192 0)
(1.09861 -0.441545 1.48488e-23)
(1.10025 -0.509899 0)
(1.09355 -0.260626 0)
(1.09629 -0.357489 0)
(1.08712 -0.0438666 -1.7027e-23)
(1.0905 -0.154636 0)
(1.07902 0.175744 0)
(1.08335 0.0675873 0)
(1.0686 0.368531 3.00924e-23)
(1.0741 0.277126 0)
(1.05675 0.511625 0)
(1.06276 0.447296 0)
(1.045 0.594525 1.03923e-23)
(1.05077 0.560673 0)
(1.03481 0.622797 -4.63648e-22)
(1.03968 0.614549 -5.83963e-22)
(1.02604 0.617918 -1.78299e-21)
(1.03021 0.622785 2.97486e-21)
(1.01707 0.606304 -3.11726e-21)
(1.02175 0.611678 3.09284e-21)
(1.00209 0.6078 -2.47715e-21)
(1.00618 0.602679 0)
(1.01187 0.603247 0)
(0.990447 0.542716 2.92498e-21)
(0.991692 0.527233 -1.64421e-21)
(0.955915 0.581546 -1.75164e-21)
(0.970268 0.602596 0)
(0.999356 0.604387 0)
(0.997695 0.610167 2.6224e-21)
(0.96405 0.569984 -1.75614e-23)
(0.984416 0.606372 3.97391e-22)
(0.975406 0.561345 -1.35809e-21)
(0.993823 0.60866 4.78472e-23)
(1.15894 -0.0509331 -2.56133e-21)
(1.18823 -0.126845 -2.0029e-22)
(1.18989 -0.0508093 0)
(0.989291 0.556089 -1.31499e-21)
(0.998342 0.609926 -1.74535e-22)
(1.00638 0.55041 1.17366e-21)
(0.833194 -0.09717 -2.21218e-22)
(1.009 0.535435 0)
(0.962508 0.593031 2.82174e-23)
(0.976327 0.501491 -6.49074e-22)
(1.01193 0.51908 0)
(0.993925 0.510401 1.29929e-21)
(0.93894 0.486938 2.26112e-22)
(0.958128 0.493919 -2.31033e-22)
(0.896586 0.47705 0)
(0.918393 0.481424 0)
(0.85 0.465081 2.40901e-24)
(0.873673 0.472414 0)
(0.80453 0.429831 2.40633e-24)
(0.8266 0.451871 0)
(0.768167 0.351839 0)
(0.784802 0.396744 0)
(0.746101 0.229797 0)
(0.755177 0.295635 0)
(0.74023 0.0787117 -5.70879e-25)
(0.741124 0.156641 0)
(0.750512 -0.0811117 0)
(0.743387 -0.00138577 0)
(0.775744 -0.229618 0)
(0.761438 -0.15791 0)
(0.812069 -0.350804 0)
(0.792855 -0.294333 0)
(0.853799 -0.436506 2.88024e-24)
(0.832632 -0.398213 0)
(0.895423 -0.487712 -2.54913e-24)
(0.874903 -0.466039 0)
(0.933319 -0.511951 -2.0137e-24)
(0.914968 -0.502593 0)
(0.966112 -0.518862 0)
(0.950358 -0.516986 0)
(0.994088 -0.516928 0)
(0.98063 -0.518553 0)
(1.01835 -0.512418 0)
(1.00658 -0.514667 0)
(1.04021 -0.509838 1.75581e-25)
(1.02948 -0.510648 0)
(1.06096 -0.511741 -1.68228e-25)
(1.05062 -0.51018 0)
(1.08188 -0.516632 2.7211e-24)
(1.07131 -0.514116 0)
(1.10372 -0.517056 5.96252e-24)
(1.09262 -0.518068 0)
(1.12601 -0.50102 0)
(1.11473 -0.511864 0)
(1.14713 -0.456935 8.35172e-24)
(1.13646 -0.483007 0)
(1.16513 -0.378598 -6.50759e-22)
(1.15581 -0.422045 0)
(1.17941 -0.26645 8.99303e-21)
(1.17158 -0.326536 1.75391e-21)
(1.1844 -0.199538 -3.01588e-21)
(1.09199 -0.0502675 0)
(1.1261 -0.0512019 0)
(1.0213 -0.0471377 0)
(1.05672 -0.0489875 8.59319e-22)
(0.9555 -0.0424483 0)
(0.987158 -0.0449573 0)
(0.900185 -0.0370987 -1.06843e-21)
(0.926524 -0.0399419 0)
(0.85773 -0.0324291 -9.10998e-22)
(0.87717 -0.0346525 8.85401e-22)
(0.829395 -0.158958 3.76916e-21)
(0.823878 -0.0935488 -2.00695e-21)
(0.829658 -0.0277164 2.02312e-21)
(0.841983 -0.0296062 9.4206e-22)
(0.846034 -0.276772 -6.40123e-24)
(0.836988 -0.220279 -1.07899e-21)
(0.869242 -0.370831 1.22109e-23)
(0.856904 -0.327198 0)
(0.897274 -0.434053 5.83579e-25)
(0.882782 -0.406495 0)
(0.927985 -0.4671 5.00425e-25)
(0.912464 -0.453858 0)
(0.958543 -0.480573 4.768e-24)
(0.943474 -0.47535 0)
(0.986467 -0.488502 0)
(0.972928 -0.484481 0)
(1.01111 -0.499705 -3.46064e-25)
(0.999164 -0.49344 0)
(1.03343 -0.516405 4.67142e-24)
(1.02249 -0.507362 0)
(1.05451 -0.538556 -4.75954e-24)
(1.04408 -0.526807 0)
(1.0749 -0.565622 0)
(1.06479 -0.551575 0)
(1.09445 -0.594394 0)
(1.08482 -0.580189 0)
(1.11216 -0.615718 3.28073e-25)
(1.10364 -0.606873 0)
(1.12617 -0.612079 0)
(1.11976 -0.618423 0)
(1.13461 -0.560138 0)
(1.13116 -0.59355 0)
(1.1371 -0.442548 0)
(1.13655 -0.509909 0)
(1.1349 -0.262937 0)
(1.13649 -0.35923 0)
(1.12914 -0.0473442 1.7027e-23)
(1.13246 -0.157486 0)
(1.11954 0.170702 0)
(1.12488 0.0633612 0)
(1.10563 0.361988 -2.94302e-23)
(1.1131 0.271275 0)
(1.08873 0.504386 0)
(1.09743 0.440289 0)
(1.07095 0.587324 -1.03948e-23)
(1.07983 0.553353 0)
(1.05429 0.616097 0)
(1.06238 0.607486 0)
(1.03975 0.611544 -2.23831e-22)
(1.04673 0.616315 2.23454e-22)
(1.02577 0.599418 5.43863e-22)
(1.03279 0.605108 -7.01211e-22)
(1.01038 0.594848 -1.19136e-21)
(1.01832 0.595991 1.20007e-21)
(0.991657 0.60741 -2.19814e-21)
(0.991374 0.597951 1.94225e-21)
(1.00119 0.595934 0)
(1.02633 0.545123 2.21876e-21)
(1.03037 0.529151 0)
(0.992142 0.61423 0)
(0.982798 0.611045 2.05227e-21)
(0.98031 0.600251 -1.72231e-21)
(0.967744 0.58168 7.69434e-22)
(0.977869 0.600285 0)
(0.976569 0.573368 2.17033e-21)
(0.988638 0.605659 -3.94082e-22)
(1.15817 0.0280734 -2.50081e-21)
(1.18975 0.0268227 3.36141e-21)
(0.988496 0.568332 0)
(0.994806 0.610101 0)
(1.00387 0.56402 -1.30017e-21)
(0.996183 0.61307 1.70541e-22)
(1.02235 0.560078 -2.22585e-21)
(0.820605 -0.0265358 -2.04403e-21)
(1.04926 0.540042 3.00062e-21)
(1.04394 0.556206 8.42075e-23)
(0.985661 0.619124 2.42534e-21)
(0.972637 0.614341 2.23728e-21)
(0.96803 0.601692 -1.82033e-21)
(1.06787 0.552732 -1.05836e-21)
(1.05434 0.52281 -9.36418e-22)
(1.21654 -0.124998 -6.42665e-21)
(1.2187 -0.0509174 3.88981e-22)
(1.07414 0.535201 1.00293e-21)
(0.972341 0.591966 4.01261e-22)
(1.01537 0.501709 -7.63688e-22)
(1.03444 0.512139 1.18634e-21)
(0.978101 0.483357 2.01957e-22)
(0.996395 0.492643 -8.21951e-22)
(0.939621 0.467177 0)
(0.95913 0.475005 0)
(0.896776 0.454627 1.48241e-24)
(0.918864 0.460399 0)
(0.849295 0.441241 -1.69684e-24)
(0.873437 0.448902 0)
(0.802387 0.408562 -2.40633e-24)
(0.825243 0.428767 0)
(0.764571 0.336778 0)
(0.781877 0.378244 0)
(0.741715 0.222669 0)
(0.751091 0.284432 0)
(0.735714 0.07985 -5.43439e-25)
(0.736602 0.15365 0)
(0.746247 -0.0720147 0)
(0.738986 0.00381887 0)
(0.771625 -0.213894 0)
(0.75727 -0.145257 0)
(0.808007 -0.330881 0)
(0.788761 -0.276156 0)
(0.849979 -0.415261 0)
(0.828649 -0.377283 0)
(0.892256 -0.467472 0)
(0.871353 -0.445069 0)
(0.931246 -0.493956 2.0137e-24)