/*--------------------------------*- C++ -*----------------------------------*\
  =========                 |
  \\      /  F ield         | OpenFOAM: The Open Source CFD Toolbox
   \\    /   O peration     | Website:  https://openfoam.org
    \\  /    A nd           | Version:  10
     \\/     M anipulation  |
\*---------------------------------------------------------------------------*/
FoamFile
{
    format      ascii;
    class       surfaceScalarField;
    location    "3";
    object      phi;
}
// * * * * * * * * * * * * * * * * * * * * * * * * * * * * * * * * * * * * * //

dimensions      [0 3 -1 0 0 0 0];

internalField   nonuniform List<scalar> 
81299
(
0.0327343
0.0263832
-0.0400027
-0.0191149
0.05127
-0.0307719
0.0122363
-0.0532224
-0.0247179
0.0202131
0.0577272
-0.00885631
0.0293341
-0.0737002
0.0760926
-0.0796975
-0.00525149
0.0591569
-0.00778218
0.0839802
-0.00461021
-0.0440285
0.0350269
0.0667287
0.0441414
-0.0588358
-0.0578666
-0.0311249
0.0107076
0.0782839
0.00180284
-0.035203
-0.0244665
0.0370257
-0.00769949
-0.0275233
-0.0176878
0.0235886
-0.0426289
-0.000655394
0.0539919
-0.0201428
0.00925428
-0.0317404
-0.0289625
-0.1278
0.0306947
0.112762
-0.0156569
-0.00879264
0.0186803
-0.0200939
0.0207085
0.0250223
-0.0201889
-0.0255419
0.00169931
0.052946
-0.0339369
-0.0381029
-0.033898
-0.0114299
0.00340387
0.0157106
-0.00768462
-0.0177537
-0.0013757
-0.000642592
-0.0381157
-0.0792303
0.0263375
0.0835875
0.035574
-0.0480755
0.0800321
0.0135037
-0.0671984
0.0750953
-0.00593941
0.0108762
-0.0600505
0.0327773
0.0477426
-0.0204694
-0.00970605
-0.0917033
0.0413589
0.0732689
-0.00787963
-0.0140552
-0.00104601
0.023309
0.00440048
-0.0266635
0.0147688
-0.000425782
-0.015389
-0.00314318
0.00951724
0.00839473
0.0170604
0.00310541
0.0376846
-0.0364049
-0.0135207
0.012241
0.000336745
0.040399
-0.00305114
0.00443316
-0.022427
-0.0184111
-0.027878
0.0302199
0.00209122
0.00101014
-0.0292628
0.000374699
0.0040339
-0.0254508
-0.0305361
0.0161589
0.00213821
-0.0296518
-0.00174928
0.00691648
-0.030229
-0.0283916
0.00477206
-0.0349227
-0.0352119
0.0221056
0.0480289
-0.0315909
0.0191748
-0.0225066
0.0205892
-0.0439197
-0.00826041
-0.0374557
0.022833
-0.0430295
0.0263385
0.0395135
-0.0228225
0.0221871
-0.0431109
0.0904416
0.0166391
-0.0543309
-0.0527497
-0.00638451
0.0302532
0.0665729
-0.0634041
0.0566336
0.000385934
0.0094203
-0.0561853
0.0205206
-0.0420742
0.0671338
-0.072141
0.0943318
-0.0476466
0.0204487
0.0657412
0.0588438
-0.044721
0.0364867
0.0400601
-0.0318259
0.0281399
-0.0465224
0.0502565
0.0233367
-0.0454534
0.0167896
0.0699536
0.000900896
-0.000444736
-0.00153995
0.00108379
-0.00109764
0.00199854
-0.00154238
-0.000530275
0.000271463
0.0018521
-0.00159329
0.000311905
-0.00084218
0.000583368
1.91693e-05
0.000576193
0.000576967
-0.00117233
0.000333622
-0.000314453
0.000909815
0.063141
0.00119306
-0.0108774
-0.0534567
0.0495892
-0.0325608
0.0461126
-0.0498269
-0.026195
-0.0224388
0.00991909
-0.0182643
-0.0100329
0.0183782
-0.0588703
0.0230862
0.0361208
-0.0268962
-0.022055
-0.0289686
0.0520549
0.0100786
-0.0244515
0.0305174
-0.0161445
-0.0290956
-0.00474548
-0.00125578
-0.00152214
-0.0263177
-0.00115857
-0.0245487
-0.0204633
-0.0234469
0.0289457
0.0149645
-0.00768954
0.0188427
-0.0316164
0.00434189
-0.0354783
0.0675911
0.041674
-0.0209702
-0.088295
0.0164935
-0.118616
0.106275
-0.00415259
0.0934411
-0.00935652
0.00363187
-0.063365
-0.0588827
0.0446654
-0.0813891
-0.00986188
0.0465856
0.0138833
0.034899
-0.0212461
-0.026967
0.0133141
-0.0332266
0.0649485
0.00317711
-0.0152336
-0.0288704
-0.00493411
-0.0315456
-0.0320293
0.000128226
0.117951
0.00173311
-0.0476188
0.045518
0.0716841
0.00074911
-0.000567478
0.000972824
-0.00115575
0.000750403
0.000166557
0.00260909
-0.00334312
-0.00501411
0.00488949
-0.00295451
0.00307913
-0.0100086
0.00434272
0.0006518
0.0283332
0.0221727
-0.0312435
-0.0192624
0.021395
0.015295
0.00140459
-0.0123529
-0.00434669
0.00291536
0.00582933
0.00655034
-0.004101
-0.011903
0.0151573
0.000846658
0.0195225
-0.00656305
-0.0146903
0.0374226
0.0227856
0.0235115
0.0111942
-0.00848938
-0.0262163
-0.0265382
-0.00340698
0.0305484
-0.0153058
0.0251564
0.0198078
0.0468614
-0.0250898
-0.00443047
0.0295203
-0.0108529
-0.0142369
-0.0242021
0.0348627
-0.0215135
0.00485161
-0.0119923
-0.0170614
-0.00099346
-0.00431191
0.00530537
-0.00658076
-0.00732575
0.012913
-0.00938527
0.00348329
-0.00328881
-0.0304235
-0.0274061
0.00249772
-0.024258
-0.0239222
0.0044363
0.0142005
-0.00756525
-0.00663526
-0.0119945
0.0340986
0.00248417
0.00287426
0.0395867
-0.0377531
0.00346833
0.0333015
0.000983221
-0.0281005
0.00293024
-0.0125828
0.0302058
0.0137562
-0.0259633
-0.0179986
0.0231646
0.0274883
-0.0318103
0.0147487
0.0373616
0.0526453
0.0165171
-0.00436677
0.039301
0.00499255
-0.0399268
0.0429682
-0.0404631
-0.00687185
0.00306608
-0.00342037
0.0433225
-0.00285155
0.0452186
0.039379
-0.0292909
-0.0112839
0.0011959
0.0455385
-0.00116699
-0.0124141
-0.00269458
0.00533235
0.00977633
-0.0129051
-6.48608e-06
0.000497436
-0.0057209
-0.00989826
0.00271411
-0.00355905
0.00285711
0.0012789
-0.000646676
-0.000710055
0.000184402
-0.00129036
0.0173176
-0.0184165
0.0293178
0.0556716
0.0438295
-0.00561235
-0.000248017
0.00120313
0.00393437
-0.00116008
0.00109274
-0.000180684
-0.00348418
-0.000630402
8.43088e-05
0.00221156
-0.00143154
-0.0060633
-0.00251379
-0.00360931
-0.0013064
-0.00687416
-0.00279845
-0.0076773
0.00956959
-0.000842618
-0.00104967
-0.0133313
0.00745181
-0.00179777
-0.0143012
0.00158219
-0.000612341
-0.000850621
0.000964842
0.0189763
0.000290153
-0.0316194
0.0236576
0.00114808
-0.0270936
-0.0017537
0.0525049
-0.043502
0.0191667
0.0444033
0.00179413
-0.0366278
0.00710684
-0.0085431
-0.00031743
-0.000876926
0.00798073
3.03587e-06
0.0241046
-0.00796951
0.000574493
-0.0380154
-0.0189078
0.0266742
0.030249
-0.00562768
0.0282105
0.0222241
-0.010081
-0.0403537
-0.0160321
0.00712198
0.0371207
0.0303276
-0.0241356
0.00194448
0.000479451
0.000655201
0.00507328
0.00121391
-0.0164901
0.0122882
0.00150732
-0.0158834
-0.000613133
0.067864
-0.00259807
-0.0513827
0.027783
-0.00756558
0.0241692
0.00789671
-0.00257644
-0.0294894
-0.0151004
0.00260032
0.0366693
0.0213871
-0.0285908
-0.0182731
-0.016511
0.0226206
0.0121635
0.00382867
0.00220992
-0.0243117
0.0151611
-0.0278435
0.022229
-0.0425069
0.0177464
-0.0390194
0.00322374
0.00269015
0.00659981
-0.0125137
-0.00117517
0.00434024
5.86653e-05
-0.00264534
0.000619554
-0.00430188
0.0483021
0.0149188
-0.0282385
-0.0349824
0.0129808
0.0753814
-0.028755
0.000766938
0.0409689
-0.0257184
0.0118822
-0.00427032
4.18566e-05
0.000905332
0.00332313
-6.58483e-05
-0.00403791
0.0019033
-0.00196915
0.00194516
-0.0267143
0.0311986
-0.00188396
0.00104964
-0.0303404
-0.00373856
0.000673467
0.00161298
-0.0185603
-0.0054915
-0.00273688
-0.0221883
0.0382303
-0.00520838
-0.0477122
0.0183044
0.0238853
-0.00395947
0.049607
0.0354813
0.0381234
-0.0222376
-0.0513672
0.0296983
0.0358206
-0.0300375
-0.0252362
0.0263333
0.0286011
-0.0202361
0.0331234
0.0590433
0.0237055
-0.0110646
-0.00689334
0.043699
0.0172449
-0.0178111
0.023685
-0.0280644
0.0216243
-0.0309359
-0.0020047
0.00183603
-0.0308228
-0.00194909
-0.00297057
0.0397849
0.0127926
-0.0265497
0.0168286
0.00972108
0.0218391
0.0226771
-0.018183
-0.00391343
0.000701016
0.00278663
-0.046914
0.0192124
-0.00416258
0.0318642
-0.0416475
0.00204187
-0.00730842
0.00478728
0.000508363
-0.00455153
-0.000744112
0.00387989
-0.000248359
0.0410687
-0.024346
0.0125951
0.00755829
-0.0101148
-0.005271
0.00782752
-0.00830773
0.00384732
0.0120187
0.00225982
0.0054986
-0.0160661
0.00324897
-0.011104
-0.0118359
0.00544684
0.00111801
0.00617749
-0.00621225
0.00343862
0.00420029
0.00218656
0.000251139
-0.0024377
0.00065359
0.00153297
0.0180456
0.0134968
-0.00842743
-0.023115
0.0180337
-0.0282267
-0.0214638
0.0137791
-0.0108346
0.00286764
0.0361758
-0.0069409
-0.0339804
-0.00458003
0.0324955
-0.03369
0.00497459
0.0241354
-0.0113357
-0.0292953
0.0174268
0.0341543
-0.0109502
-0.0406309
0.0267552
-0.0409696
0.0316413
-0.0165597
0.00341885
0.039896
0.0423835
-0.0247889
0.00363921
-0.0222161
-0.00180577
0.0203826
-0.019252
-0.00639969
-0.0222557
-0.00800697
-0.000579914
0.00314477
-0.0102634
-0.000888331
0.00346957
-0.000904708
0.00171247
-0.00211533
-0.0115001
-0.00454408
0.00625655
-0.00665941
0.00175191
0.000173805
0.00241452
-0.000976761
0.00272868
-0.000802956
-0.0149885
-0.0102808
0.0159628
0.00930657
0.00334156
0.00563964
-0.0239697
0.0178995
-0.0248388
-0.00421344
-0.0217841
0.0111933
0.0148042
0.0151028
-0.0296276
0.0359118
-0.0411547
0.00690351
0.0507706
-0.0165194
-0.0328506
0.000338773
0.0323558
0.000156084
0.00128719
0.0332285
-0.0326557
-0.00186004
0.000962392
0.0345153
-0.0341905
0.0013832
0.0345122
-0.0349331
0.00131362
0.0347799
-0.0347103
0.000190709
0.034536
-0.0334131
0.00231802
0.0337761
-0.0359035
0.00460171
0.0328434
-0.0351271
0.00455285
0.0340695
-0.0340206
0.00590492
0.032599
-0.033951
0.00585023
0.0336664
-0.0336117
0.00702982
0.0323956
-0.0335752
0.00697632
0.0333242
-0.0332707
0.0079998
0.032238
-0.0332615
0.00794905
0.0330375
-0.0329867
0.00883291
0.0321183
-0.0330022
0.00878604
0.0328003
-0.0327535
0.0107424
0.0308341
-0.0327905
0.0101003
0.03321
-0.032568
0.0101593
0.0325676
-0.0326265
0.0101226
0.0324586
-0.0324218
0.0106848
0.0319386
-0.0325008
0.0106542
0.0323482
-0.0323175
0.0111389
0.0319307
-0.0324155
0.0111146
0.0322757
-0.0322513
0.0115349
0.0319478
-0.0323681
0.0115173
0.0322405
-0.0322229
0.011885
0.0319911
-0.0323588
0.0118748
0.0322432
-0.032233
0.0122007
0.0320632
-0.0323891
0.0121987
0.0322857
-0.0322837
0.0124925
0.0321679
-0.0324617
0.0124999
0.0323712
-0.0323785
0.0127677
0.0323118
-0.0325796
0.00958698
0.0357036
-0.0325228
0.0111399
0.0311976
-0.0327504
0.0210273
0.0269185
-0.0368059
-0.0122681
0.00345016
0.0298452
-0.037859
0.0290592
-0.0356013
-0.00256361
0.0034484
0.0347165
-0.00249325
0.00034447
-0.0334525
-0.00379069
0.0354804
-0.0341829
0.0357177
-0.00509399
-0.0344144
0.00335332
-0.00402325
0.0363876
0.0362701
-0.0045533
0.00199331
0.0357885
0.034617
-0.0357219
-0.00160231
0.000998613
0.0351159
0.0349063
-0.000565353
0.00052516
0.0345762
0.0352132
-0.000664731
0.000796781
0.0327114
0.0336366
-0.000709081
0.000624625
0.0326834
0.0341572
-0.000540456
0.000461486
0.0324746
0.0337506
-0.000384498
0.000312388
0.0323102
0.0334012
-0.000242208
0.000175864
0.0321847
0.0331076
-0.000676556
-0.00114498
0.0326556
0.0322997
0.000603623
-6.56856e-05
0.0320296
0.0326687
0.000121686
-0.000175386
0.0319923
0.0325146
0.000227802
-0.000278448
0.0319814
0.0324006
0.000328108
-0.00037636
0.0319961
0.0323253
0.000423771
-0.000470044
0.0320374
0.0322879
0.000515623
-0.000560316
0.0321079
0.0322888
0.000604505
-0.000648064
0.0322114
0.0323298
0.000691298
-0.000499986
0.0321204
0.0324144
-0.00312802
0.00183162
0.032494
0.0320756
0.0322003
0.00295038
0.00109852
-0.0367046
-0.0342871
0.037582
-0.00193416
0.00165671
-0.0346556
-0.0350261
-0.0012898
0.00302063
-0.035144
-0.0343434
-0.00293351
0.00169237
-0.033886
-0.0358163
-0.00085095
0.00074852
-0.0338486
-0.0331792
-0.000650125
0.000559383
-0.0334844
-0.0335133
-0.000471616
0.00039006
-0.03318
-0.0331829
-0.000311154
0.000237055
-0.0329281
-0.0329078
-0.000165239
9.81601e-05
-0.0327234
-0.0326817
-3.10291e-05
-3.22131e-05
-0.0325633
-0.0325008
9.26797e-05
-0.000151389
-0.0324421
-0.0323614
0.000208704
-0.000264413
-0.0323598
-0.0322602
0.00031869
-0.00037181
-0.032315
-0.032197
0.000423675
-0.000474779
-0.0323077
-0.032171
0.000524798
-0.000574416
-0.0323395
-0.032183
0.0006231
-0.00067159
-0.0324132
-0.032235
0.000718805
-0.000764047
-0.0325344
-0.0323313
0.000808834
0.000518994
-0.0340783
-0.0324781
0.00251347
-0.00759932
-0.0327731
-0.0337734
-0.0049912
-0.0366125
0.0375804
-0.0376379
-0.00535792
0.0380047
0.00593765
-0.00712986
-0.0364457
-0.0357688
-0.0380078
-0.0086953
0.0413452
-0.0370469
-0.00809072
-0.0111195
-0.0385454
-0.00299271
0.00174747
0.0310905
-0.00435401
0.0304205
-0.00100545
-0.0346944
0.00311935
-0.00448455
-0.0328177
0.00259799
-0.0329311
-0.00491151
-0.0339874
-0.00689352
0.00567646
-0.0352287
-0.0358372
-0.00810329
-0.0472909
-0.00496769
0.0413084
-0.00826895
-0.0434814
-0.00257212
0.0376322
-0.0024397
0.0028909
0.0375535
0.0363334
-0.00283591
0.00220245
0.0370211
0.0376354
-0.00215783
0.000696347
0.0361779
0.0363147
-0.000389245
0.000532083
0.0356457
0.0349241
-0.000611174
0.00101355
0.0347136
0.0348272
-0.000912053
0.00109997
0.0343883
0.0353147
-0.00146186
0.000659217
0.033514
0.0332747
-0.000572784
0.000493171
0.032763
0.0342436
-0.000418816
0.000346646
0.0325467
0.0338249
-0.000278629
0.000212471
0.0323763
0.0334692
-0.000150073
8.93763e-05
0.0322454
0.03317
0.000198721
-2.55988e-05
0.0324825
0.0325878
7.8955e-05
-0.000131086
0.0320817
0.032722
0.000181632
-0.000231394
0.032042
0.0325651
0.000279152
-0.000326167
0.0320284
0.0324484
0.000371528
-0.000416285
0.0320408
0.0323707
0.000459664
-0.000502526
0.0320803
0.0323313
0.000544253
-0.000585559
0.0321492
0.0323305
0.000626002
-0.000666127
0.0322515
0.0323703
0.000705403
-0.000977431
0.0323925
0.0324537
0.000870857
-0.00111754
0.0327406
0.031969
0.0328302
-0.00297225
0.0319198
-0.0342518
-0.00412502
0.0373714
-0.0341048
0.0360952
-0.00100714
-0.00638593
-0.0247886
-0.00247161
0.00147585
-0.0357088
-0.0341607
-0.00143718
0.00145394
-0.0346724
-0.0349874
-0.00219257
0.00196574
-0.0349171
-0.035082
-0.000512623
0.000394951
-0.0337683
-0.0343632
-0.00100033
0.000887943
-0.0337362
-0.0337845
-0.000784827
0.000686313
-0.0333859
-0.0334102
-0.000594279
0.00050569
-0.0330914
-0.0330909
-0.000422551
0.000342134
-0.0328477
-0.0328247
-0.000266448
0.00019309
-0.03265
-0.032606
-0.000123299
5.47137e-05
-0.0324947
-0.032431
1.04709e-05
-7.42565e-05
-0.0323783
-0.0322962
0.00013525
-0.000195437
-0.0322996
-0.0321992
0.000253268
-0.000310612
-0.0322576
-0.0321392
0.000365968
-0.000421117
-0.0322526
-0.0321157
0.000474598
-0.000528124
-0.0322859
-0.0321295
0.000580277
-0.000632847
-0.0323606
-0.0321829
0.000684978
-0.000738784
-0.0324806
-0.0322792
0.00079172
-0.00161946
-0.0332505
-0.0324251
0.00260529
-0.00151789
-0.0338605
-0.0327876
0.00249987
-0.0341173
-0.00263439
-0.0337124
-0.0350039
0.00363011
-0.00399672
-0.0324511
0.00283439
-0.0321354
-0.0047608
-0.0332233
-0.00501329
0.00472079
-0.0349362
-0.00481981
-0.0360307
-0.00247498
0.00224663
-0.033889
-0.0337982
0.0347891
-0.0036253
-0.00220749
-0.0340657
-0.0104627
-0.0450971
-0.0389217
-0.00771442
0.000424101
0.0326988
-0.0388671
-0.0081579
-0.0326132
0.000186612
-0.00547179
0.00593337
0.0419219
-0.045868
-0.000254386
0.0454716
-0.0437558
0.00518771
-0.00375473
0.0417155
0.00751081
0.0415441
-0.00491252
0.00374723
0.0387975
0.0409169
-0.00185459
0.00152009
0.037888
0.038226
-0.00182454
0.0024515
0.0363941
0.037331
-0.000980271
0.0020537
0.0351045
0.0377859
-0.000106159
0.00130808
0.0344438
0.0368717
-4.75718e-05
0.000845552
0.0339156
0.0360877
-0.000750272
0.0016617
0.0334769
0.0354099
-0.000111981
0.000505001
0.033121
0.0348244
-0.000430398
0.000357356
0.0328361
0.0343182
-0.000291946
0.000226539
0.0326121
0.0338903
-0.000167196
0.000107343
0.0324362
0.0335285
-5.25746e-05
-2.56962e-06
0.0323005
0.0332248
0.000387878
-0.000104997
0.0321996
0.0329731
0.000152949
-0.000201206
0.03213
0.03277
0.000246314
-0.000291931
0.0320876
0.0326102
0.000334932
-0.000378267
0.0320717
0.0324914
0.000419358
-0.000460679
0.0320821
0.0324118
0.000500101
-0.000539672
0.0321198
0.0323707
0.000577651
-0.000615719
0.0321873
0.0323685
0.000652499
-0.000689412
0.0322884
0.0324071
0.000725566
-0.000761795
0.0324287
0.0324898
0.00117686
-0.0012946
0.0328584
0.0323841
0.000937319
-0.00206084
0.032214
0.0324729
0.00278752
-0.00244929
0.0315815
0.0311472
0.0305883
0.031517
-0.0339248
-0.0039781
-0.00210329
-0.00326075
-0.00237521
0.00182486
-0.0351585
-0.0337016
-0.00199424
0.00221136
-0.0348895
-0.0351568
-0.00171678
0.00125551
-0.0344558
-0.0345875
-0.000983246
0.00122253
-0.0340076
-0.034091
-0.00109834
0.000977782
-0.0336157
-0.0336604
-0.000866579
0.0007606
-0.03328
-0.033299
-0.000662111
0.000567242
-0.0329965
-0.0329924
-0.000478628
0.000392782
-0.0327618
-0.0327361
-0.000312322
0.00023382
-0.0325715
-0.0325255
-0.000159769
8.71184e-05
-0.0324221
-0.032357
-1.84853e-05
-4.92177e-05
-0.0323106
-0.0322275
0.000113565
-0.000177507
-0.0322357
-0.0321349
0.000238535
-0.00029952
-0.0321966
-0.0320782
0.000357978
-0.000416738
-0.0321938
-0.0320572
0.000473316
-0.000530502
-0.0322288
-0.032073
0.000585797
-0.000641921
-0.0323045
-0.0321276
0.000696129
-0.000750715
-0.032426
-0.032225
0.000804233
-0.00145354
-0.0326012
-0.0323716
0.00148994
-0.00194299
-0.0334075
-0.0327512
-0.0334088
-0.0350439
-0.00607713
-0.0376098
0.00366153
-0.00372712
-0.0323856
0.00388415
-0.032358
-0.0347831
0.0337133
-0.00255549
-0.0345418
-0.00244886
-0.00328432
-0.0336661
-0.0516098
-0.00472091
0.00486866
0.00190066
0.0255865
-0.0302403
0.0199344
0.0151745
0.00248788
-0.046498
-0.0109178
-0.0402781
-0.0410252
-0.0149897
-0.00161461
0.00163621
0.0416939
-0.0387174
-0.00558951
0.0426923
0.0158069
-0.0470135
-0.0388946
-0.0095414
-0.00616344
-0.0388083
-0.00165565
0.00272645
0.0408511
0.0415247
-0.00363048
0.0029469
0.0394811
0.0400128
-0.00162862
0.00247634
0.0370402
0.0395443
-0.000849204
0.00120887
0.0360345
0.0389581
-0.00110204
0.000988355
0.0352182
0.0378928
-0.000893449
0.000788902
0.0345483
0.0369666
-0.000707092
0.000622965
0.0339997
0.0361695
-0.000551916
0.000474275
0.0335545
0.035481
-0.000410153
0.000338505
0.0331926
0.0348885
-0.00027992
0.000214992
0.032901
0.0343768
-0.000161373
0.000102246
0.0326713
0.033944
-5.28893e-05
-1.17488e-06
0.0324902
0.0335779
4.70459e-05
-9.7315e-05
0.0323508
0.0332707
0.000140975
-0.000188014
0.0322467
0.0330167
0.00022913
-0.000273534
0.0321744
0.0328111
0.000313005
-0.00035511
0.0321297
0.0326497
0.000393079
-0.000433198
0.0321119
0.0325293
0.000469837
-0.000508175
0.0321205
0.0324484
0.000543581
-0.000580302
0.0321566
0.0324061
0.000614572
-0.000649853
0.0322226
0.0324028
0.000683134
-0.000717272
0.0323226
0.0324403
0.000749956
-0.000783511
0.0324623
0.0325225
0.00105442
-0.000849526
0.0326535
0.032655
0.0012283
-0.00130893
0.0322946
0.0328517
0.00247801
-0.00192952
0.0310331
0.0323163
0.0305594
0.0318228
-0.0316661
2.99283e-05
0.00173858
0.031903
-0.0331491
-0.00273199
-0.00186638
-0.00269655
-0.00317057
0.00235624
-0.0343442
-0.032988
-0.00215432
0.00196763
-0.0347028
-0.0349549
-0.00179406
0.00162782
-0.0342896
-0.0344139
-0.00147639
0.00133535
-0.0338665
-0.0339395
-0.00120545
0.00108017
-0.0334904
-0.0335305
-0.000964321
0.000852224
-0.0331679
-0.0331831
-0.000748872
0.000648338
-0.032896
-0.032889
-0.000555377
0.000464352
-0.0326708
-0.0326431
-0.00037994
0.000296668
-0.0324883
-0.0324411
-0.000219193
0.000142148
-0.032345
-0.0322795
-7.01902e-05
-1.78349e-06
-0.0322387
-0.0321556
6.91976e-05
-0.000137138
-0.0321677
-0.0320675
0.000201041
-0.000265896
-0.0321318
-0.0320143
0.000327143
-0.000389718
-0.0321312
-0.031996
0.000449064
-0.000510089
-0.0321677
-0.0320136
0.000568262
-0.000628528
-0.0322442
-0.0320694
0.000686392
-0.000746811
-0.0323656
-0.0321671
0.000805267
-0.000867087
-0.0325394
-0.0323132
0.00110317
-0.00173653
-0.0327741
-0.0325151
0.00170389
-0.00206091
-0.033532
-0.0334414
0.0409235
0.0293201
-0.0544367
-0.00898694
0.044321
-0.0384735
-0.0120931
0.00361152
-0.0454373
0.00202494
-0.0342428
-0.00232395
-0.0341016
0.00415926
-0.00483304
-0.0342624
-0.0341689
0.00425229
-0.00492673
-0.0369353
-0.0366114
-0.0400599
-0.00457701
0.0419716
-0.0216383
0.0017235
-0.0525487
0.00215731
-0.0451068
0.00665361
-0.00729863
0.0426166
0.005141
0.0458336
-0.0023784
0.00278372
-0.0327633
-0.00139598
-0.033368
-0.0515492
-0.0150503
0.041877
-0.0619495
-0.0015658
-0.00694282
0.0415212
-0.00579287
-0.0379421
-0.00230674
0.00207163
-0.0340077
-0.0346403
0.0348623
-0.00254601
-0.0021428
-0.0348042
-0.0543401
-0.00588598
0.00140243
-0.0526214
-0.0100053
-0.0403861
-0.00311804
0.00216004
0.0426519
0.0447152
-0.00239418
0.00255899
0.0406863
0.0412905
-0.000892535
0.00195104
0.0384226
0.0416793
-0.00118508
0.00105761
0.0371677
0.0403102
-0.00096832
0.000852319
0.0361505
0.0390474
-0.000781657
0.000681595
0.0353183
0.0379634
-0.000619803
0.00053085
0.0346373
0.0370284
-0.000476263
0.000396813
0.0340792
0.0362241
-0.000349148
0.000278383
0.0336253
0.0355286
-0.000234055
0.000169189
0.0332575
0.0349328
-0.000127704
6.86043e-05
0.0329601
0.0344183
-2.97451e-05
-2.42445e-05
0.0327253
0.0339828
6.08965e-05
-0.000111085
0.0325404
0.0336145
0.00014639
-0.000193278
0.0323977
0.033306
0.000227539
-0.000271713
0.0322908
0.033051
0.000305182
-0.000346887
0.0322161
0.0328446
0.000379797
-0.000419525
0.0321695
0.0326826
0.000451887
-0.000489803
0.0321498
0.0325617
0.000521601
-0.000557859
0.0321567
0.0324802
0.000589038
-0.000623743
0.0321913
0.0324373
0.000654251
-0.000687527
0.0322558
0.0324333
0.000717389
-0.000749469
0.0323547
0.0324702
0.000778934
-0.000810354
0.0324937
0.032552
0.000840096
-0.000871062
0.0326844
0.0326847
0.000900617
-0.00117492
0.0325689
0.0328812
0.001722
-0.00285107
0.0321621
0.0328633
0.00630463
0.0392163
0.034013
0.0325908
-0.032254
-0.000306892
-0.0313553
0.0408285
0.00570135
0.00297408
0.0326691
-0.0337454
-0.00165569
-0.00145131
0.0345869
-0.0349524
-0.00218995
-0.00185507
-0.00253891
-0.00308516
0.00250785
-0.0337668
-0.0332894
-0.00229657
0.0021003
-0.0345065
-0.0347436
-0.00191744
0.00174248
-0.0341146
-0.034231
-0.00158496
0.00143361
-0.0337152
-0.033782
-0.0012968
0.00116312
-0.0333567
-0.0333937
-0.00104214
0.000923306
-0.033049
-0.0330622
-0.000815805
0.00070932
-0.0327895
-0.0327815
-0.000612856
0.000516443
-0.0325744
-0.0325466
-0.000428994
0.000340768
-0.0324
-0.0323536
-0.000260613
0.000179004
-0.0322634
-0.0321994
-0.000104754
2.84611e-05
-0.0321624
-0.0320813
4.10972e-05
-0.000113228
-0.0320956
-0.0319979
0.000179167
-0.000248134
-0.0320628
-0.0319483
0.000311371
-0.000378048
-0.0320646
-0.0319327
0.0004394
-0.000504566
-0.0321026
-0.0319523
0.000564755
-0.00062907
-0.0321799
-0.0320092
0.000688665
-0.000752773
-0.0323014
-0.0321075
0.00081282
-0.000877914
-0.0324743
-0.0322531
0.000938754
-0.00100498
-0.0327079
-0.0324543
0.00172488
-0.0015918
-0.033665
-0.0327215
-0.0336218
-0.00243566
-0.0326265
0.00343543
-0.00373641
-0.0339614
-0.0331692
0.00448509
-0.00545729
-0.0359631
-0.0358627
-0.0233247
-0.0403176
0.00138626
-0.00474149
0.0459718
0.00223879
0.0449811
-0.0384701
0.0386493
-0.0501169
-0.000434239
0.00285498
0.0367955
0.00325544
0.0371388
-0.0376096
-0.00824323
-0.00737616
-0.0360233
-0.0351491
0.0352636
-0.00266049
-0.0348443
-0.00244755
-0.026947
-0.0373984
0.0153217
-0.059026
-0.00793941
0.0447191
-0.051333
-0.0163387
-0.0336818
0.0167721
-0.027985
0.0448946
0.00190035
-0.00239868
-0.0328696
0.00236713
-0.0332301
-0.00263379
0.00225386
0.0430318
0.0443202
-0.00136226
0.000919615
0.041129
0.0421821
-0.000876816
0.000760367
0.0385391
0.0417221
-0.000734784
0.000622835
0.0372797
0.0403358
-0.000593491
0.000489629
0.0362543
0.0390767
-0.000464084
0.000370761
0.0354116
0.037989
-0.000349008
0.000265251
0.034721
0.0370501
-0.000245958
0.000169284
0.0341558
0.0362434
-0.000150649
8.13167e-05
0.0336946
0.0355473
-6.31246e-05
-2.51548e-07
0.0333209
0.034951
1.89216e-05
-7.70624e-05
0.0330182
0.0344369
9.61116e-05
-0.000149848
0.032779
0.0340019
0.000169984
-0.000219873
0.0325903
0.0336347
0.000241154
-0.000287818
0.0324443
0.0333273
0.000310283
-0.000354232
0.0323348
0.0330734
0.000377864
-0.000419383
0.0322576
0.0328682
0.000444042
-0.000483522
0.0322089
0.0327073
0.000509016
-0.000546604
0.0321874
0.0325872
0.000572658
-0.000608477
0.0321925
0.0325063
0.000634822
-0.000668957
0.0322254
0.0324636
0.000695353
-0.000727912
0.0322884
0.0324597
0.000754219
-0.000785409
0.0323859
0.0324965
0.000811703
-0.000842025
0.032524
0.0325783
0.000868866
-0.00089868
0.0327143
0.0327116
0.000925796
-0.00131864
0.0329618
0.0329083
0.00162673
-0.00261868
0.0331541
0.0331714
0.0342493
0.0331901
-0.033239
-0.000257914
-0.0346432
0.0374637
0.00288083
0.00152095
0.0335299
-0.0339833
-0.00120231
-0.0011604
0.0346002
-0.0351129
-0.00167723
-0.00123818
-0.00238829
-0.00248382
0.0026535
-0.0339365
-0.0334061
-0.00242541
0.0022169
-0.034298
-0.0345155
-0.00202752
0.00184456
-0.0339317
-0.0340416
-0.00168274
0.00152276
-0.0335552
-0.0336202
-0.00138248
0.00124162
-0.0332158
-0.0332534
-0.00111821
0.000992649
-0.0329235
-0.0329388
-0.000882982
0.000770171
-0.0326767
-0.0326719
-0.000671905
0.000569571
-0.0324721
-0.0324484
-0.000480645
0.000386841
-0.0323062
-0.0322647
-0.000305503
0.000218581
-0.0321765
-0.032118
-0.000143329
6.18913e-05
-0.0320809
-0.0320061
8.5317e-06
-8.56768e-05
-0.0320185
-0.0319275
0.000152387
-0.000226301
-0.0319889
-0.0318816
0.000290276
-0.000361901
-0.0319929
-0.0318688
0.00042402
-0.000494201
-0.0320324
-0.0318901
0.000555275
-0.00062483
-0.0321103
-0.0319481
0.000685672
-0.000755453
-0.0322317
-0.0320467
0.000816874
-0.000887653
-0.0324035
-0.0321917
0.000950264
-0.00102205
-0.0326361
-0.0323917
0.00108572
-0.00181034
-0.0329404
-0.0326579
0.00170378
-0.00191839
-0.033793
-0.0337284
-0.0589228
0.00291989
0.00331649
0.0374027
-0.0372434
-0.00774234
-0.00166269
-0.0402623
0.00209763
-0.034557
-0.00238493
-0.034625
-0.0520114
0.0109376
-0.0103611
0.0365441
0.00672091
-0.00789995
-0.0348442
-0.00215332
-0.0328718
-0.00271538
-0.0326071
-0.00339123
-0.0332855
-0.00516208
-0.0340919
-0.0344043
-0.0578856
-0.0723399
-0.0239812
0.0180764
-0.00236042
0.00133827
0.0460032
-0.00210021
0.0457116
-0.00233374
0.00208912
-0.0329855
-0.00222625
-0.0329771
0.0369061
-0.0357557
0.00173037
0.038129
0.00209369
-0.0345387
-0.0106047
0.0300181
-0.0100517
0.0145969
-0.0442445
-0.00203491
0.00215848
-0.0346806
-0.0351587
0.0352056
-0.00243184
-0.0347172
-0.00247647
-0.000425108
0.000465288
0.0429916
0.0452334
-0.000430899
-9.00476e-05
0.0416499
0.0422165
-0.000961908
0.000254519
0.0392464
0.0406701
-0.00030262
0.000185562
0.0373967
0.0402877
-0.000230332
0.000120337
0.0363643
0.039032
-0.000160357
5.74809e-05
0.0355145
0.037949
-9.2678e-05
-1.98768e-06
0.0348157
0.0370149
-2.87402e-05
-5.81281e-05
0.0342427
0.0362127
3.25514e-05
-0.000112626
0.0337747
0.0355217
9.20341e-05
-0.000165495
0.0333943
0.0349304
0.000150897
-0.000218461
0.0330858
0.0344223
0.000209072
-0.000271078
0.032841
0.0339925
0.000266931
-0.000324176
0.0326476
0.0336305
0.000324995
-0.000378071
0.0324974
0.0333281
0.000383459
-0.000432906
0.0323842
0.0330788
0.000442357
-0.000488557
0.0323038
0.0328776
0.00050152
-0.000544887
0.0322523
0.0327202
0.000560797
-0.000601569
0.0322281
0.0326031
0.000619802
-0.000658163
0.0322309
0.0325245
0.000678137
-0.000714237
0.0322615
0.0324836
0.000735434
-0.000769437
0.0323224
0.0324809
0.000791474
-0.000823631
0.032418
0.0325185
0.000846361
-0.000877227
0.0325549
0.032601
0.000901003
-0.000930912
0.0327442
0.0327354
0.000955285
-0.000985255
0.0329918
0.0329327
0.00100937
-0.00115934
0.033304
0.0331955
0.000842147
0.000652972
0.0353004
0.0339321
-0.00275296
0.00303384
0.0371218
0.0350388
0.0346391
-0.0341495
-0.000747461
0.000404336
0.0341366
-0.0341182
-0.0012207
-0.00117337
0.0340935
-0.0344586
-0.00131206
-0.00126287
0.0348505
-0.0352529
-0.00225812
-0.0019964
-0.00249481
-0.00283756
0.00277502
-0.033874
-0.0341546
-0.00253422
0.00231685
-0.0340807
-0.0342747
-0.00212353
0.00193061
-0.0337388
-0.0338483
-0.00176731
0.0015975
-0.0333854
-0.0334569
-0.0014565
0.00130628
-0.0330656
-0.0331124
-0.00118279
0.00104872
-0.0327894
-0.0328153
-0.000939523
0.000818745
-0.0325559
-0.0325627
-0.000721291
0.000611387
-0.0323621
-0.0323509
-0.00052354
0.000422469
-0.0322052
-0.0321769
-0.000342419
0.000248459
-0.0320825
-0.032038
-0.000174668
8.63545e-05
-0.0319926
-0.0319323
-1.74857e-05
-6.64572e-05
-0.0319345
-0.0318586
0.000131573
-0.000212261
-0.0319082
-0.0318165
0.000274647
-0.00035308
-0.0319145
-0.0318064
0.000413663
-0.000490729
-0.0319553
-0.0318296
0.000550328
-0.000626825
-0.0320338
-0.0318885
0.000686188
-0.000762904
-0.0321549
-0.0319873
0.000822819
-0.000900497
-0.0323258
-0.0321318
0.000961551
-0.00104079
-0.0325569
-0.0323306
0.0011032
-0.00118403
-0.0328596
-0.0325955
0.00152642
-0.0018536
-0.0334659
-0.033386
-0.0343201
0.028724
-0.0661577
0.0446608
-0.00258738
-0.0325107
-0.002934
-0.0322605
-0.00384348
-0.0323761
-0.00510057
-0.0328348
-0.00614287
-0.033362
-0.00807931
-0.0329078
0.00371488
0.0374479
0.00174078
0.0387574
-0.0064845
0.0357202
-0.032526
-0.0100919
0.00420209
-0.00643825
-0.0311258
0.00366584
-0.0322985
-0.0383704
-0.0096342
-0.00645886
0.0299925
0.0260089
-0.0214205
0.0240604
-0.00810324
-0.00266729
0.00215297
-0.0341663
-0.00210922
-0.0352752
-0.0353801
0.0355702
-0.00262186
-0.03536
-0.00249663
-0.000382664
-6.05783e-05
0.0464464
0.0470697
9.94412e-05
-0.000252076
0.0431443
0.0452723
0.00015179
0.000167401
0.0413307
0.0421162
-0.000325058
-0.000250914
0.0398224
0.0405125
8.37332e-05
-0.000246314
0.0375593
0.0401205
9.05414e-05
-0.000245846
0.0365196
0.0388762
0.000104385
-0.000251672
0.0356617
0.0378075
0.000125518
-0.000263265
0.0349534
0.0368888
0.000151587
-0.000278971
0.0343701
0.036101
0.000182164
-0.000299091
0.0338916
0.0354249
0.000216336
-0.000323019
0.033501
0.0348477
0.000254388
-0.000351647
0.0331831
0.0343537
0.000295946
-0.00038417
0.0329292
0.0339368
0.0003406
-0.000420693
0.0327276
0.033587
0.000388285
-0.000461071
0.0325702
0.0332957
0.000438715
-0.000504991
0.0324505
0.0330565
0.000491478
-0.000551906
0.0323643
0.0328641
0.000546022
-0.000601291
0.0323076
0.0327144
0.000601861
-0.000652497
0.0322788
0.0326037
0.000658349
-0.000704799
0.0322774
0.0325304
0.000714852
-0.000757504
0.0323042
0.0324936
0.000770796
-0.000810024
0.0323616
0.0324941
0.000825777
-0.00086201
0.0324542
0.0325343
0.000879719
-0.000913618
0.0325888
0.0326187
0.000933217
-0.000965105
0.0327761
0.032755
0.000985605
-0.00101551
0.0330217
0.0329532
0.00103476
-0.00105773
0.033327
0.0332148
0.000654226
0.000679445
0.0339667
0.0335286
-0.000530125
0.00275053
0.0349014
0.0351881
0.0375849
-0.0363367
0.00246669
-0.00348873
0.00421152
0.0368621
0.0367097
0.0367901
-0.0352103
0.00015055
0.00254708