/*--------------------------------*- C++ -*----------------------------------*\
  =========                 |
  \\      /  F ield         | OpenFOAM: The Open Source CFD Toolbox
   \\    /   O peration     | Website:  https://openfoam.org
    \\  /    A nd           | Version:  10
     \\/     M anipulation  |
\*---------------------------------------------------------------------------*/
FoamFile
{
    format      ascii;
    class       surfaceScalarField;
    location    "65";
    object      phi;
}
// * * * * * * * * * * * * * * * * * * * * * * * * * * * * * * * * * * * * * //

dimensions      [0 3 -1 0 0 0 0];

internalField   nonuniform List<scalar> 
57492
(
0.000235634
-1.05905e-05
-4.37028e-05
-0.000181341
-0.000162468
0.000267355
0.000130747
-2.87555e-05
8.08376e-05
0.000323301
-0.000375383
0.00315983
0.00338641
-0.000272108
-0.00627413
-0.00862824
0.00404527
0.00774281
0.000719966
-0.000662563
-0.000347495
0.000290093
-0.00128318
0.000221847
-7.6992e-05
0.00113832
0.000275192
-0.000838403
0.00159025
-0.00463328
0.00442562
-0.0013826
0.00134221
0.00424906
-0.00400102
-0.000611148
-0.000206368
0.000683739
0.000133777
-0.000122368
-0.000831692
0.000342911
0.000231619
-0.000325007
-2.89796e-05
-5.32187e-05
7.84689e-05
0.00170802
-0.0016483
-0.000617886
0.000558164
0.000245566
0.00137832
8.41323e-05
-0.000324579
0.000788438
0.00333523
-0.00379909
-0.000660736
0.00326111
-0.00292495
0.000135436
-0.000288511
0.000153075
-0.00166311
0.0012198
0.00057874
-0.00465982
0.00018953
0.00333557
0.00113472
0.00122817
-0.00472998
-0.00115802
-0.000132966
-0.000196228
-0.000701726
0.00103092
-0.000286852
0.000175903
-2.20166e-05
-0.00254457
0.00215986
0.000734163
-0.000349445
-0.00304803
0.000925651
-0.000422198
-0.00112729
0.00059618
0.00045661
7.45035e-05
-0.000778695
-0.00036213
1.35306e-05
-0.00036709
-0.00113328
0.00129013
0.000210246
-0.000415839
0.00011632
-6.75714e-05
0.000749671
-0.000498912
-0.000464851
0.000214092
-0.000646825
0.000520142
0.000876354
-0.00088634
-0.00169881
0.00164585
0.000939298
-0.00201941
-0.000482563
0.00161563
-0.00070729
-0.000152013
0.000859303
-0.000271222
-0.000436068
-0.00137443
0.00189184
-0.00078863
0.000203045
-0.000767203
-0.000810273
-0.000568248
0.000790096
-0.000233024
-0.00190186
0.00115084
0.000751021
-0.00432172
0.00241986
0.00488041
-0.000820433
0.000348149
-0.00440813
0.00358949
-8.18305e-05
0.00137276
-0.000728139
0.00489264
-0.00498493
0.00140967
0.000304186
-0.00143866
0.00142151
-8.88337e-05
0.00172244
-0.000645693
-0.00128279
0.000206044
0.00192835
9.82806e-05
0.000878777
-0.000546906
0.00108964
0.000853883
0.00116322
-0.00475522
-0.000635118
0.000546609
0.00484373
-0.00488838
-0.000298913
0.00043207
0.00121827
0.00451295
-0.00443764
-0.00129358
0.000889916
-0.00430493
-0.00277721
0.00252849
0.0025337
-0.00228497
-0.000272927
0.00320247
-0.00570675
1.48413e-05
-0.000116539
-8.03528e-07
0.000102501
-0.000320812
1.06469e-05
6.6933e-05
-0.00013582
-0.000251925
-5.6261e-05
6.65484e-06
1.11108e-05
-1.19143e-05
8.84245e-06
2.26834e-06
0.00730207
0.00378549
-0.00587854
-0.00520902
0.00233715
-0.000701816
0.00566673
-0.00785199
0.0030988
0.00709033
0.0022928
-0.0063593
0.001624
-0.00286555
0.00213341
-0.000891856
0.00235599
-0.00291414
0.00218215
-2.98409e-05
2.1811e-05
-2.56064e-06
-7.01358e-05
-3.40787e-06
-0.000222509
-2.89678e-05
-0.00293798
0.00534716
0.00339271
-0.00580188
0.00436286
-0.00494486
0.0029843
0.00474701
-0.00238416
0.0100839
-0.00148082
-0.00179033
-0.00681273
0.0022429
0.0054188
0.00242219
0.00160603
-0.00500502
0.00564188
4.67795e-05
-7.5535e-05
0.000127617
0.00081587
0.00175705
-0.000626143
-0.00194678
0.00103958
9.95918e-05
-9.56473e-05
2.62827e-05
6.93645e-05
-0.000297785
0.000202138
-0.00660378
0.00342313
-0.002013
0.00519365
-0.0057408
-0.00249593
0.00163295
-0.00262464
0.00208788
-0.00520404
0.00195131
-2.66013e-05
-0.000944009
-0.000980699
-0.000711405
0.00222693
0.000435784
-0.000834384
-8.52249e-05
0.000208203
-0.000771334
-8.96507e-05
-0.000271402
-0.00144394
-0.000237
-6.24897e-05
1.86463e-05
0.000280844
-0.000215212
-0.000521248
0.000499459
0.000137476
1.68753e-05
-0.000369563
7.92122e-05
-4.22631e-06
0.000100502
-2.64357e-06
-0.000640941
0.000369539
8.34429e-05
-0.000724384
0.000172263
-0.000470048
0.00427362
0.00333162
-0.000178525
0.00212863
-0.00648325
-1.03861e-05
0.00226399
-0.00179749
-0.000456113
0.000291714
0.00316416
-0.00346626
0.00326909
0.00184108
-0.000499963
-0.00461021
-0.00103297
0.000500939
0.00380112
0.00398899
-0.00318087
-0.00164255
-0.00303452
0.00125124
0.00342584
-0.0011849
0.00350486
-0.00396252
0.000423339
-0.00464276
8.23643e-05
3.37229e-05
-4.57734e-06
0.00104454
-0.000615991
-0.000591016
7.67287e-05
-0.00032398
0.00129179
0.000363187
-1.9103e-05
-0.000187184
0.000331794
6.83219e-05
-0.000212932
0.00099168
-0.00121516
3.62984e-05
-0.000357618
0.000830839
0.00051846
-0.000125105
9.92809e-05
-0.00611258
0.00365122
0.0058845
0.00772167
-0.00200617
-0.00821144
-0.00285529
0.00446438
-9.70939e-05
-0.000874091
-0.000162096
-0.000522057
9.12361e-06
4.78559e-05
-0.000129974
3.72878e-05
4.48307e-05
-0.000129986
0.000144461
3.33803e-05
-0.000299301
3.93407e-05
-0.000265211
-0.000312663
5.58173e-05
-0.000803456
-0.000335846
-0.000810144
-0.000869186
0.000993194
0.000686136
3.31743e-05
0.000428878
-0.0012722
-0.00113348
0.000297471
-0.0029337
0.00133058
-5.99899e-05
-0.00350238
0.000809523
-0.000240839
0.000875962
-0.00334736
0.00256418
-9.27798e-05
0.000678997
-0.00272848
0.00292545
0.00252818
-0.0101973
-0.00176538
0.00218173
0.00302134
-0.00345614
0.00206067
-0.000320841
3.61259e-07
1.6514e-05
-3.43278e-06
3.79404e-06
0.000284185
-4.12912e-05
0.00559038
-0.00341373
-0.00248881
0.000312164
0.00483853
2.37097e-05
0.00464195
0.000166583
-0.00508147
0.00137897
0.0032966
-3.3616e-05
0.000550224
-0.00291271
0.00374146
5.34232e-06
-8.7751e-06
0.000759143
-0.00211964
-0.0028462
0.00123168
0.00308313
0.000845222
-4.81929e-05
-0.00088859
9.15607e-05
0.00028072
-8.23235e-05
-0.00108804
0.000240301
0.00136788
0.000197758
-0.00100507
-0.000134919
7.5945e-05
-7.26219e-06
1.0324e-05
-2.73916e-06
-3.22606e-07
1.0925e-05
-2.44707e-07
-1.79425e-05
4.65571e-05
-0.000103917
6.82851e-05
-0.00171623
0.00264964
-0.000761146
0.00291646
-0.00378308
-0.000849604
6.5091e-06
-0.00149503
0.00172883
-0.00399101
0.000241162
-0.00273599
-0.00183086
0.000575841
0.00269126
0.00291135
-0.00541308
0.00260519
0.00429292
-0.00420686
0.00224034
-0.00308407
0.00160607
-0.00076234
0.00245557
-0.00302322
0.00280799
0.00437041
0.00187651
0.00500122
-0.000231318
-0.00496687
0.000196965
0.00554186
-0.000659742
0.000119103
0.00552899
-0.000904751
8.40031e-05
-0.00470824
0.00396844
-0.00137686
0.00293741
0.00430762
-0.00140512
0.00114206
-0.00404455
0.00127073
0.0043876
-0.00135072
-0.0038759
-0.00166664
0.00413742
0.00106772
-0.00369238
-0.00186083
0.00362003
-0.00237942
-0.00323894
0.0021553
0.00346305
-0.00239537
-0.003267
0.00328296
0.00223525
0.00304577
-0.00147481
-0.00380621
0.00301956
-0.00317968
-0.00258954
0.00261409
0.00299501
-0.002041
0.00249724
-0.00406869
0.00361475
-0.00102088
-0.00506514
0.00105366
0.00537441
-0.00136292
0.00191046
-0.000265053
0.000990984
-0.00105693
0.000330996
-0.000108311
0.00127043
-0.00142717
-5.29877e-05
0.000305326
0.000110848
-0.00109116
-0.00170854
0.00111188
-1.70487e-07
-7.42207e-08
3.10128e-07
-4.80615e-07
-0.000100965
-0.00188589
0.00143994
-0.00168113
-6.79202e-05
0.00164808
4.63706e-05
-0.001762
3.45041e-05
-0.000244188
0.0015789
0.000269376
-0.00160409
0.00162304
0.000456121
-0.00232335
0.00161266
0.00158928
-2.45044e-06
4.98675e-07
3.56746e-05
-4.75944e-06
2.309e-06
-4.26076e-06
-5.54429e-06
4.233e-06
-5.49497e-05
1.02647e-06
-6.57076e-06
5.25948e-06
-4.39242e-05
2.12834e-05
-0.000264211
2.21705e-05
-6.60947e-05
4.34539e-05
5.31997e-05
-5.33954e-06
-0.000172965
-1.69077e-05
7.01074e-05
-2.22472e-05
0.0014263
0.00327936
-0.00420472
0.00132564
-0.00446411
0.00456477
0.00471435
-0.000109346
-0.00118218
-0.00244425
0.00115803
0.00246839
-0.00071045
0.00272167
-0.00319339
0.000157283
-0.00331198
0.00382514
-0.00383644
-1.71926e-05
2.84898e-05
0.00384783
2.95701e-05
-5.22616e-05
-2.89092e-05
-0.00380549
-2.04071e-06
0.00390081
-6.25361e-06
-4.67211e-05
0.00399449
5.21168e-05
-0.000145803
2.34297e-05
0.0041183
-0.000147238
0.00406796
-0.00402027
-2.42635e-05
-0.000197328
0.00433543
-1.98009e-05
0.00397758
-0.000106946
-0.00387374
-9.44091e-05
-0.00383661
-4.33802e-05
-0.00380697
-7.65609e-08
-0.00386349
3.93337e-05
-0.00377521
-0.000117189
-0.000193285
0.00454844
-1.97196e-05
0.00381322
-2.89229e-05
-2.38296e-05
-0.00374786
-3.38051e-05
-0.00378041
-1.86323e-05
-3.14659e-05
-0.00393763
0.000221242
-6.29471e-06
0.00457393
-1.91967e-05
0.00383533
-2.84103e-05
-0.00389239
8.05176e-05
0.00459896
-6.06074e-06
-1.89744e-05
-6.01877e-06
0.0046233
-1.83135e-05
0.00385678
-2.75124e-05
0.00387784
-2.7076e-05
-2.68599e-05
-0.00388665
-2.41232e-05
-0.00388573
-3.3521e-05
-5.64436e-06
0.00464702
-1.80829e-05
0.00389832
-2.61252e-05
-4.6509e-06
-0.00385739
-2.46038e-05
-0.00385644
-3.39414e-05
-5.43929e-06
0.00466986
-1.73953e-05
0.00391855
-2.56652e-05
-4.37358e-06
-0.00382773
-2.52908e-05
-0.00382686
-3.39574e-05
-4.78825e-06
0.00469181
-1.71664e-05
0.00393842
-2.46597e-05
-4.28034e-06
-0.00379778
-2.56668e-05
-0.00379686
-3.42762e-05
-4.07881e-06
0.00471235
-1.64555e-05
0.00395852
-2.41803e-05
-3.97139e-06
-0.00376753
-2.62822e-05
-0.00376663
-3.4201e-05
-2.4235e-06
0.004731
-1.62281e-05
0.00397922
-2.31202e-05
4.8992e-06
-0.00374581
-2.66183e-05
-0.00372736
-3.43789e-05
2.75852e-07
0.00474621
-1.54915e-05
0.00400211
-2.26118e-05
2.07845e-05
-0.00361046
-0.000156129
-0.00363403
-7.25394e-05
5.88821e-06
0.00475558
-1.52564e-05
0.00401112
-3.12214e-06
2.04929e-05
-0.00359815
-3.28062e-05
-0.00357748
-3.60625e-05
1.64655e-05
0.00475361
-1.4492e-05
0.00399916
2.84229e-05
4.77575e-05
-0.00344169
-0.000204224
-0.00344513
-8.45847e-05
0.000200417
0.00456743
-1.42367e-05
0.00413693
6.26467e-05
5.49062e-05
-0.00339663
-9.99634e-05
-0.00337842
-1.18054e-05
0.000177928
0.004247
0.000142499
0.00422103
9.38291e-05
8.85084e-05
-0.000156271
-0.00332887
-0.00333593
4.60143e-05
1.00148e-05
2.80702e-05
0.00420892
0.00420883
2.22158e-05
-0.00341801
0.00350166
-0.000183614
-0.0034076
-0.000166678
0.000151701
-0.000161968
-0.0033186
4.49332e-05
-0.00322916
-0.00345513
0.00351433
-9.20112e-05
-0.000157698
-0.00341362
0.00344157
-5.45696e-05
-5.54103e-05
-0.00346907
0.00349639
-5.29782e-05
-5.37898e-05
-0.00352326
0.00354996
-5.13035e-05
-5.21643e-05
-0.00357628
0.00384717
-4.96522e-05
-5.04416e-05
-0.00386227
0.00383493
2.52973e-05
-4.89033e-05
-0.00398415
0.00397824
-4.63457e-05
-0.000120733
-0.00387437
0.00384113
-0.000112567
5.71481e-05
-0.00377262
0.00379547
-4.26531e-05
-7.87247e-05
-0.00381762
0.00383934
-4.09229e-05
-4.18631e-05
-0.00386045
0.0038812
-3.90577e-05
-4.00872e-05
-0.0039013
0.00392101
-3.71052e-05
-3.81877e-05
-0.00394006
0.00395869
-3.50873e-05
-3.62157e-05
-0.00397665
0.00399417
-3.30124e-05
-3.4185e-05
-0.00401101
0.00402738
-3.08609e-05
-3.20953e-05
-0.00401956
0.00412929
3.27743e-05
-6.41894e-06
0.00413367
2.36832e-05
-2.78907e-05
6.93894e-05
0.00416742
-2.0855e-05
0.00420179
0.00412954
-0.00404611
-2.07772e-05
-0.00418535
0.00419146
1.61017e-05
3.80186e-05
0.00402948
-0.00399416
-3.84324e-05
1.17832e-05
0.00397678
-0.00395867
-4.12288e-05
-3.99934e-05
0.00394018
-0.00392097
-4.38714e-05
-4.26756e-05
0.00390139
-0.0038811
-4.6414e-05
-4.52474e-05
0.00386045
-0.00383911
-4.8851e-05
-4.77198e-05
0.00381744
-0.00379516
-5.11999e-05
-5.00887e-05
0.00384973
-0.00382068
-5.33191e-05
-5.23739e-05
0.00386078
-0.00379474
-0.000109428
-5.43013e-05
0.00374552
-0.00369652
-9.67295e-06
-4.92877e-05
0.00371752
-0.00371585
-2.03014e-05
-9.61861e-05
0.00357611
-0.00354979
-5.98406e-05
-5.92264e-05
0.00352328
-0.00349627
-6.09677e-05
-6.04499e-05
0.0034691
-0.00344145
-6.18479e-05
-6.14465e-05
0.00341363
-0.00342366
-6.25098e-05
-6.22056e-05
0.00339693
-0.00341848
-6.30393e-05
-6.27847e-05
0.00336694
-0.00328962
-3.13115e-05
-6.33414e-05
-0.00322629
-1.83974e-05
-0.00340347
-0.000166091
0.00416114
4.19277e-05
-3.10895e-05
0.0042017
8.73773e-05
-0.000104861
-0.00321168
3.45545e-05
-0.00317346
0.000138791
-0.000162029
-0.00338024
-0.00328467
-0.00341658
0.00338914
-0.000156179
0.00342722
-0.00342659
-0.000166725
-0.000156029
-0.00337337
0.00340142
-0.000120058
-0.000141925
-0.00342901
0.00345646
-8.20267e-05
-8.30007e-05
-0.00348348
0.0035103
-7.98047e-05
-8.08041e-05
-0.00353669
0.00356289
-7.75077e-05
-7.855e-05
-0.00358867
0.00361419
-7.51695e-05
-7.62207e-05
-0.00363919
0.00373733
-7.28434e-05
-7.3904e-05
-0.00368815
0.00371218
-7.03732e-05
-7.1551e-05
-0.0038384
0.00379372
-6.78876e-05
-6.90755e-05
-0.00378138
0.0038038
-6.50686e-05
-6.63871e-05
-0.00382557
0.00384697
-6.23157e-05
-6.36364e-05
-0.00386773
0.00388813
-5.94576e-05
-6.08533e-05
-0.00390789
0.00392727
-5.64826e-05
-5.79502e-05
-0.003946
0.00396431
-5.34065e-05
-5.49397e-05
-0.00398197
0.0039992
-5.0243e-05
-5.18377e-05
-0.00401575
0.00403186
-4.69655e-05
-4.86487e-05
-0.00404704
0.00409426
-1.44414e-05
-2.16055e-05
-1.94497e-06
-2.08898e-05
0.00419025
-2.28117e-05
0.004182
-0.00409618
0.00415054
-1.2429e-05
2.17603e-05
0.00413921
-0.0041257
2.58717e-06
0.00411964
-1.15177e-05
1.38482e-05
1.86292e-05
0.00416922
0.00419475
0.00411138
-0.00406653
-6.56294e-05
2.3702e-05
0.00401598
-0.00399924
-5.51693e-05
-3.87654e-05
0.00398214
-0.00396433
-5.90389e-05
-5.70995e-05
0.00394615
-0.00392726
-6.27572e-05
-6.08561e-05
0.00390802
-0.00388808
-6.63499e-05
-6.44896e-05
0.00386781
-0.00384687
-6.97966e-05
-6.79917e-05
0.00382561
-0.00380374
-7.30744e-05
-7.13401e-05
0.00378162
-0.00375884
-7.60986e-05
-7.44974e-05
0.00373576
-0.00376628
-7.89132e-05
-7.7374e-05
0.00373552
-0.00366378
-8.14096e-05
-8.00472e-05
0.0036775
-0.00361403
-8.37691e-05
-8.24726e-05
0.00358865
-0.00356274
-8.57426e-05
-8.46096e-05
0.00353669
-0.00351014
-8.7515e-05
-8.65063e-05
0.00348343
-0.00345625
-8.90346e-05
-8.8153e-05
0.00342889
-0.00340106
-9.0338e-05
-8.95599e-05
0.00337306
-0.0033446
-9.15012e-05
-9.07862e-05
0.00331601
-0.00325474
-9.25841e-05
-9.19278e-05
0.00320802
-0.00313712
-3.63518e-05
-6.51147e-05
-0.003421
-0.000167614
2.06654e-05
-9.80384e-05
-0.00309609
-0.00309009
-2.63664e-05
-0.000175027
-0.00313469
-1.1858e-05
0.00413958
0.00413969
-1.42214e-06
-0.00010741
9.61012e-05
-0.00336893
-0.00013499
-0.00339342
-1.80544e-06
-9.39101e-05
-0.00300037
-4.98101e-05
-0.00304208
-0.00336359
0.00416556
-0.00414039
-3.75999e-05
0.00413598
1.77228e-05
4.50857e-05
-1.63394e-05
0.00414047
7.12829e-06
0.00417765
-0.00338762
0.00345344
-0.000200805
-0.000182187
0.000133641
-0.00334488
0.00343731
2.14151e-05
0.000167993
-0.00362672
-0.000132494
-0.00347812
0.00347857
-0.00016717
-0.0001923
-0.00346097
0.00343195
-0.000127166
-0.000138431
-0.00343318
0.00342467
-0.000111552
-0.000143149
-0.00345157
0.00347829
-0.000108737
-0.000109903
-0.00350455
0.00353064
-0.000105887
-0.000107072
-0.00355629
0.00358175
-0.000102976
-0.0001042
-0.00360679
0.00363161
-9.99913e-05
-0.000101253
-0.00365595
0.00368003
-9.69315e-05
-9.82412e-05
-0.00370362
0.00372698
-9.37352e-05
-9.51361e-05
-0.00374978
0.00377231
-9.04104e-05
-9.18784e-05
-0.00379435
0.00381612
-8.68361e-05
-8.84302e-05
-0.0038373
0.00385814
-8.31595e-05
-8.48194e-05
-0.00387838
0.00389826
-7.93404e-05
-8.10898e-05
-0.00391752
0.00393641
-7.53716e-05
-7.72117e-05
-0.00395467
0.00397253
-7.12681e-05
-7.31924e-05
-0.00398974
0.00400655
-6.70492e-05
-6.9051e-05
-0.0040227
0.00403843
-6.26994e-05
-6.4799e-05
-0.00406463
0.00408556
-3.53627e-05
-4.78083e-05
-3.30721e-05
1.61585e-05
-1.19838e-05
0.00418608
-1.9732e-05
-2.5209e-05
0.00418452
0.00417843
0.00416643
0.00413292
-0.00411483
-1.55035e-05
-0.00414024
0.00413014
8.67397e-06
-1.88381e-05
0.00405389
-0.00405303
-6.64876e-05
-3.72388e-05
0.00402296
-0.00400663
-7.14992e-05
-6.88366e-05
0.00398995
-0.00397258
-7.64034e-05
-7.3778e-05
0.00395486
-0.00393646
-8.1163e-05
-7.85773e-05
0.00391771
-0.00389829
-8.57685e-05
-8.32368e-05
0.00387855
-0.00385816
-9.01852e-05
-8.773e-05
0.00383749
-0.00381619
-9.43736e-05
-9.20196e-05
0.00379462
-0.00377245
-9.82777e-05
-9.60591e-05
0.00375001
-0.00372702
-0.000101908
-9.98083e-05
0.00370378
-0.00367998
-0.000105216
-0.000103278
0.003656
-0.00363152
-0.00010825
-0.000106454
0.00360682
-0.00358162
-0.000110939
-0.000109306
0.00355626
-0.00353043
-0.000113354
-0.000111865
0.00350443
-0.00347796
-0.0001155
-0.000114148
0.00345134
-0.00342426
-0.000117421
-0.000116183
0.00339702
-0.00336933
-0.000119191
-0.000118029
0.00334149
-0.00331319
-0.000120877
-0.000119766
0.00325686
-0.00317059
-0.000122622
-0.000121452
0.00311032
-0.00309158
-6.85499e-05
-8.66288e-05
-3.81287e-05
1.23971e-05
-0.00301635
-0.00305034
-7.93742e-05
0.00012316
-0.00335845
-7.18177e-05
-0.00315678
-8.96774e-06
0.00411974
0.00415696
-1.96934e-05
0.000172644
-0.00349611
4.05273e-05
-0.0030285
0.000771112
-0.0027923
0.00363385
4.32308e-05
-8.84231e-05
-0.00300515
-1.26865e-05
-0.00296043
-0.00224527
0.00343891
0.000395637
-0.00170563
-0.000270263
-0.00331225
-0.00328938
0.0034538
3.57765e-06
0.000156656
-7.1283e-06
-0.00344462
0.00343876
-0.000194945
-0.000123317
-0.0034369
0.00341465
-0.000144917
-0.000190437
-0.00341894
0.00343307
-0.000141295
-0.000142727
-0.00342905
0.00345526
-0.000137767
-0.000139125
-0.00348108
0.00350673
-0.000134388
-0.000135718
-0.00353198
0.00355707
-0.000130976
-0.000132326
-0.00358176
0.00360627
-0.000127489
-0.000128884
-0.00363036
0.00365426
-0.000123891
-0.000125346
-0.00367771
0.00370093
-0.000120159
-0.000121687
-0.00372368
0.0037462
-0.000116254
-0.000117881
-0.00376821
0.00378995
-0.000112154
-0.000113889
-0.0038112
0.00383218
-0.000107813
-0.000109677
-0.0038526
0.00387272
-0.000103276
-0.000105248
-0.00389226
0.00391146
-9.85441e-05
-0.000100629
-0.00393007
0.00394832
-9.36236e-05
-9.58197e-05
-0.00396596
0.00398323
-8.85346e-05
-9.08332e-05
-0.00399987
0.00401613
-8.33033e-05
-8.56943e-05
-0.00403175
0.00404699
-7.79355e-05
-8.0425e-05
-0.00407419
0.00411127
-7.24422e-05
-7.50097e-05
-0.00411475
0.00412483
-4.76793e-05
-3.65482e-05
-0.00415356
0.0041597
-1.51076e-05
-1.1014e-05
2.26959e-05
-9.43016e-06
0.00417126
1.25875e-05
-5.26385e-05
0.00419975
0.00415502
3.02598e-05
1.4588e-05
0.00414123
0.00419926
-1.38134e-05
-7.41626e-06
0.0041617
0.0041672
1.55316e-05
-4.87954e-05
0.00419023
0.00418576
0.0041746
-0.00414759
-1.83385e-05
-0.00425051
0.00415063
5.10758e-05
-9.55958e-05
0.00412475
-0.00410262
-3.76334e-05
-4.16835e-05
0.00406194
-0.00404717
-8.12577e-05
-7.79181e-05
0.00403203
-0.00401625
-8.72825e-05
-8.39701e-05
0.00400013
-0.00398334
-9.3187e-05
-8.99018e-05
0.00396622
-0.00394844
-9.89441e-05
-9.57015e-05
0.00393033
-0.00391158
-0.000104518
-0.000101343
0.00389253
-0.00387285
-0.000109861
-0.000106783
0.0038529
-0.00383234
-0.000114928
-0.000111974
0.00381153
-0.00379014
-0.000119674
-0.000116871
0.0037685
-0.00374632
-0.00012409
-0.000121442
0.00372392
-0.00370099
-0.000128151
-0.000125679
0.00367787
-0.00365425
-0.000131866
-0.000129569
0.00363046
-0.00360618
-0.00013522
-0.000133103
0.00358174
-0.00355684
-0.000138255
-0.000136303
0.00353179
-0.00350629
-0.000140998
-0.000139198
0.00348065
-0.00345457
-0.000143502
-0.000141827
0.00342834
-0.00340169
-0.000145838
-0.000144252
0.00337491
-0.00334771
-0.000148081
-0.000146551
0.00332037
-0.00329267
-0.000150323
-0.000148791
0.00322823
-0.00314413
-0.00015265
-0.000151065
0.00312333
-0.00308657
-0.000125178
-0.000100179
-8.23455e-05
5.88372e-05
-0.00298164
-0.00303955
-0.000129368
0.000118174
-0.00330398
-1.58544e-05
-0.0031004
0.000297196
-0.00302219
4.12388e-05
-0.00308243
0.00417066
-0.0041644
-2.13695e-05
0.00416597
-4.79459e-05
2.21289e-06
2.29156e-06
0.00418572
-4.66486e-05
0.0041995
0.000316184
-0.00265236
7.34399e-05
-0.00297504
-0.00149414
-0.00181558
-0.00268789
0.00312262
-3.9092e-05
-6.21589e-05
5.42314e-05
-0.00297371
-0.000105724
-0.00299598
-0.0024652
-0.000492952
-0.00320993
-0.00328509
0.00335246
-6.37957e-05
-5.81823e-06
-0.00340564
0.00338527
-0.000174574
-0.000176493
-0.00336677
0.00339225
-0.000170394
-0.000171935
-0.00341748
0.00344265
-0.000166464
-0.000167958
-0.00346757
0.0034924
-0.000162595
-0.000164049
-0.0035169
0.00354127
-0.000158765
-0.000160217
-0.0035653
0.00358918
-0.000154862
-0.000156351
-0.0036127
0.00363606
-0.000150848
-0.000152397
-0.00365902
0.00368181
-0.000146681
-0.00014831
-0.00370418
0.00372635
-0.000142329
-0.000144056
-0.00374807
0.00376957
-0.000137757
-0.000139602
-0.0037906
0.00381139
-0.000132941
-0.000134919
-0.00383169
0.00385173
-0.000127854
-0.000129977
-0.00387126
0.00389049
-0.000122511
-0.000124773
-0.00390918
0.00392756
-0.000116921
-0.000119321
-0.00394537
0.00396285
-0.000111101
-0.000113632
-0.00397974
0.00399629
-0.000105077
-0.00010773
-0.00401224
0.00402782
-9.88857e-05
-0.000101645
-0.00404281
0.00405743
-9.25548e-05
-9.54117e-05
-0.00407146
0.00408512
-8.61002e-05
-8.90484e-05
-0.00413116
0.00412974
-4.62595e-05
-8.25816e-05
-4.56778e-05
1.09369e-05
-4.95927e-05
0.00420991
2.63344e-05
-2.56109e-05
0.00419903
0.00419229
-9.71667e-06
-2.16162e-06
0.00415311
0.00413995
-2.63623e-05
3.3963e-05
0.0041541
0.00413868
0.00422202
0.0041849
-0.00416091
-4.23272e-05
-0.00414523
0.00419599
3.23932e-07
-5.59327e-05
0.00413608
-0.00408534
-8.83715e-05
-6.65165e-05
0.00407177
-0.0040576
-9.54241e-05
-9.14848e-05
0.00404311
-0.00402799
-0.000102401
-9.84669e-05
0.00401254
-0.00399646
-0.000109264
-0.000105349
0.00398007
-0.00396304
-0.000115966
-0.0001121
0.00394571
-0.00392778
-0.000122456
-0.000118671
0.00390955
-0.00389074
-0.000128676
-0.000125007
0.00387166
-0.00385201
-0.000134577
-0.000131053
0.00383212
-0.00381167
-0.000140118
-0.000136763
0.00379101
-0.00376982
-0.000145279
-0.000142108
0.00374843
-0.00372654
-0.000150042
-0.000147068
0.00370447
-0.00368193
-0.000154409
-0.000151636
0.00365922
-0.00363605
-0.000158385
-0.000155811
0.00361274
-0.00358899
-0.000162005
-0.000159616
0.0035651
-0.00354079
-0.000165308
-0.000163086
0.00351635
-0.0034915
-0.000168349
-0.000166268
0.00346653
-0.00344117
-0.0001712
-0.000169224
0.00341569
-0.00338984
-0.000173932
-0.000172029
0.00336388
-0.00333759
-0.000176618
-0.00017475
0.00331121
-0.00328455
-0.00017931
-0.000177443
0.00320451
-0.00314768
-0.000182011
-0.00018022
0.00309408
-0.00304697
-0.000152835
-0.000182961
-7.5692e-05
7.6924e-05
-0.00299722
-0.00300839
-0.000114275
9.18279e-05
-0.00309861
9.17298e-06
-0.00306833
-1.73803e-05
0.00415774
0.00419177
-4.24345e-05
0.000189525
-0.00289553
-0.000288374
-0.00352911
1.87179e-05
-0.00295945
4.18977e-05
-0.00305089
7.39604e-05
-0.00299476
-0.00350801
-0.000772769
0.000262156
-0.000522577
-0.00324759
-0.00014986
-0.0031171
5.47148e-05
-0.0029515
-0.000107306
3.5819e-05
-0.00292573
-9.81267e-05
-0.00301757
-0.00310893
-0.00299373
0.00315222
-0.000197582
0.00312464
-0.00340096
-0.000496445
-0.000362042
-0.00327394
0.00334515
-0.000135004
-0.00012754
-0.00336921
0.00339333
-0.000198691
-0.000200555
-0.00341729
0.00344121
-0.000194315
-0.000195899
-0.00346491
0.00348857
-0.000190122
-0.000191659
-0.00351198
0.00353532
-0.000185934
-0.000187461
-0.00355837
0.00358131
-0.00018171
-0.000183262
-0.00360394
0.00362645
-0.000177373
-0.000178981
-0.00364862
0.00367066
-0.000172882
-0.000174568
-0.00369233
0.00371384
-0.000168194
-0.000169981
-0.00373497
0.00375591
-0.000163274
-0.000165181
-0.00377644
0.00379677
-0.000158088
-0.000160134
-0.00381666
0.00383633
-0.00015261
-0.00015481
-0.00385554
0.00387451
-0.000146822
-0.000149187
-0.00389299
0.00391121
-0.000140726
-0.000143256
-0.00392892
0.00394633
-0.000134337
-0.000137029
-0.00396322
0.0039798
-0.000127676
-0.000130521
-0.00399583
0.00401153
-0.000120778
-0.000123761
-0.00402668
0.00404148
-0.000113685
-0.000116789
-0.00405571
0.0040696
-0.000106442
-0.000109649
-0.00408294
0.00409593
-9.90896e-05
-0.000102383
-0.00410837
0.00415378
-9.16692e-05
-9.50262e-05
-0.00416766
0.00418794
-4.16497e-05
-5.95604e-05
-0.00414276
0.00416989
-4.45021e-05
-2.76838e-06
1.63739e-05
-9.05243e-06
0.00419171
5.05857e-05
-8.27523e-05
0.00420205
0.0042247
2.05411e-05
2.0497e-05
0.00416888
0.00420378
-9.28178e-06
-2.07156e-06
0.00416446
0.00415116
1.33681e-05
-2.45775e-05
0.00416531
0.00414997
5.1279e-06
-2.2634e-05
0.00420323
0.00420257
4.05307e-05
-4.51875e-05
0.00419643
0.00421739
0.00421861
-0.00416055
-5.77322e-05
-0.00420868
0.00419478
-3.12859e-05
-3.25093e-05
0.00415901
-0.00413866
-6.26745e-05
-5.7473e-05
0.0041087
-0.00409615
-0.000100929
-9.64768e-05
0.00408327
-0.00406982
-0.000108873
-0.000104361
0.00405606
-0.00404171
-0.000116753
-0.000112228
0.00402704
-0.00401179
-0.000124519
-0.000120012
0.00399623
-0.00398009
-0.000132108
-0.000127657
0.00396366
-0.00394667
-0.000139454
-0.000135098
0.0039294
-0.00391158
-0.000146495
-0.000142271
0.00389352
-0.00387492
-0.000153176
-0.000149117
0.00385609
-0.00383676
-0.000159457
-0.000155588
0.00381721
-0.00379718
-0.000165313
-0.000161651
0.00377696
-0.00375627
-0.000170728
-0.000167286
0.00373542
-0.00371413
-0.000175705
-0.000172486
0.00369268
-0.00367081
-0.000180257
-0.000177256
0.00364881
-0.00362639
-0.000184418
-0.000181623
0.00360386
-0.00358093
-0.000188235
-0.000185624
0.00355789
-0.00353447
-0.000191764
-0.00018931
0.00351095
-0.00348707
-0.000195076
-0.000192746
0.0034631
-0.0034388
-0.000198239
-0.000196001
0.0034144
-0.00338971
-0.000201316
-0.000199141
0.00336493
-0.00333988
-0.000204363
-0.000202219
0.0033148
-0.00328944
-0.000207371
-0.000205294
0.00326406
-0.0032064
-0.000210491
-0.000208343
0.00315093
-0.00307571
-0.000173344
-0.000169751
-0.000142465
9.07232e-05
-0.00296583
-0.00305249
-0.000165681
6.66354e-05
-0.00297572
-0.00340997
-0.000513575
6.66707e-05
-0.00294349
0.0042308
-0.00423262
-4.26816e-05
0.00423626
-8.82154e-05
-2.10402e-05
1.61003e-05
0.00420137
-1.89137e-05
0.00419265
9.74202e-06
-0.00303618
4.2305e-05
-0.00301923
-1.30221e-05
-0.00309629
7.41977e-05
-0.00301425
0.000105817
-0.0030215
0.000137147
-0.00297215
-0.000128662
0.000130005
-0.00296717
-0.000185481
-0.00299567
-0.00303255
-0.00340804
0.00327866
-0.000367059
-0.00044878
0.000526936
-0.00348812
0.00352046
-0.00362983
-0.000339412
-0.000401152
-0.00318106
0.00325808
-0.0002746
-0.000264449
-0.00334535
0.00340557
-0.000195234
-0.000214805
-0.00342821
0.00345082
-0.000221306
-0.000223188
-0.00347324
0.0034956
-0.000216672
-0.000218317
-0.00351772
0.00353978
-0.000212181
-0.000213778
-0.00356159
0.00358334
-0.000207679
-0.000209279
-0.00360482
0.0036262
-0.000203098
-0.000204738
-0.0036473
0.0036683
-0.00019837
-0.000200081
-0.00368899
0.00370955
-0.000193448
-0.000195255
-0.00372979
0.00374988
-0.000188289
-0.000190215
-0.00376962
0.0037892
-0.000182854
-0.000184921
-0.0038084
0.00382742
-0.000177107
-0.000179334
-0.00384604
0.00386445
-0.000171024
-0.000173427
-0.00388244
0.00390021
-0.000164589
-0.000167177
-0.00391753
0.00393461
-0.000157801
-0.000160576
-0.00395121
0.00396755
-0.000150676
-0.000153634
-0.0039834
0.00399896
-0.00014324
-0.000146371
-0.00401402
0.00402878
-0.000135532
-0.00013882
-0.00404301
0.00405693
-0.000127603
-0.000131026
-0.00407032
0.00408339
-0.00011951
-0.000123044
-0.00409594
0.00410816
-0.000111308
-0.00011493
-0.00411987
0.00413124
-0.000103046
-0.000106737
-0.0041702
0.0041956
-6.70522e-05
-9.85131e-05
-3.97878e-05
-3.03131e-05
-6.06065e-06
0.00422808
2.69041e-05
-6.75954e-05
0.00424274
0.00422129
-3.00779e-05
1.95301e-05
0.00417942
0.00416764
-8.83365e-06
-1.98313e-06
0.00417528
0.00416186
1.27516e-05
-2.34561e-05
0.00417602
0.00416074
-1.47937e-05
-8.2737e-06
0.0042263
0.00416432
0.00422522
0.00422199
-0.00421453
-6.51937e-05
-0.00422228
0.00421203
-2.10325e-05
-3.28015e-05
0.00417284
-0.00413151
-0.000104007
-9.91548e-05
0.00412024
-0.00410842
-0.000112745
-0.000107754
0.00409632
-0.00408367
-0.000121519
-0.000116464
0.00407073
-0.00405724
-0.000130245
-0.000125167
0.00404346
-0.00402913
-0.000138851
-0.000133792
0.00401452
-0.00399937
-0.00014726
-0.000142265
0.00398395
-0.00396801
-0.000155398
-0.000150511
0.00395182
-0.00393512
-0.000163196
-0.000158458
0.0039182
-0.00390078
-0.000170597
-0.000166042
0.00388315
-0.00386505
-0.000177557
-0.000173214
0.00384677
-0.00382803
-0.000184051
-0.000179937
0.00380912
-0.00378979
-0.000190064
-0.000186191
0.0037703
-0.00375041
-0.0001956
-0.000191971
0.00373038
-0.00370995
-0.000200678
-0.000197287
0.00368941
-0.0036685
-0.000205334
-0.000202166
0.00364747
-0.00362609
-0.000209615
-0.000206649
0.00360461
-0.00358279
-0.000213583
-0.000210791
0.00356088
-0.00353865
-0.000217304
-0.000214655
0.00351634
-0.00349374
-0.000220847
-0.00021831
0.00347106
-0.0034481
-0.000224272
-0.000221819
0.00342508
-0.00340181
-0.000227638
-0.000225239
0.00337848
-0.00335488
-0.000230969
-0.000228624
0.00333122
-0.00330732
-0.000234385
-0.000232006
0.0032416
-0.00317719
-0.000237755
-0.000235478
0.00313823
-0.00312196
-0.000201752
-0.000204642
-0.000318801
0.000126702
-0.002925
-0.00303946
-0.000152252
0.000156435
-0.00299986
-0.00305436
-0.000219847
2.20635e-05
-0.00293111
-3.09803e-05
0.00419965
0.00425605
-6.2939e-05
0.000274504
-0.00357513
-0.000329207
1.02129e-05
-0.00300409
0.000343382
-0.003557
2.22619e-05
-0.00297877
4.23594e-05
-0.00298739
4.59761e-05
-0.00301556
7.4411e-05
-0.00298284
0.000106429
-0.00299078
0.000138088
-0.00298023
0.00013783
-0.00294856
-0.000178924
0.000154434
-0.00297537
-0.000197489
-0.0030358
-0.00300028
-0.00366881
0.00354653
-0.000217131
-0.000413571
-0.00349381
0.000332253
0.00374231
-0.00362305
-0.000532831
-0.000255709
-0.00347115
0.00341925
-0.000315161
-0.000325772
-0.00340767
0.00338475
-0.000251684
-0.000252864
-0.00341909
0.0034714
-0.000247545
-0.000249139
-0.00349237
0.00351333
-0.000242264
-0.000244164
-0.00353408
0.00355475
-0.000237345
-0.000239063
-0.00357519
0.00359556
-0.000232548
-0.000234216
-0.00361569
0.00363574
-0.000227737
-0.00022941
-0.00365555
0.00367528
-0.000222825
-0.000224546
-0.00369474
0.00371411
-0.000217741
-0.000219545
-0.0037332
0.00375219
-0.000212431
-0.000214345
-0.00377087