/*--------------------------------*- C++ -*----------------------------------*\
  =========                 |
  \\      /  F ield         | OpenFOAM: The Open Source CFD Toolbox
   \\    /   O peration     | Website:  https://openfoam.org
    \\  /    A nd           | Version:  10
     \\/     M anipulation  |
\*---------------------------------------------------------------------------*/
FoamFile
{
    format      ascii;
    class       volScalarField;
    location    "18.5";
    object      p;
}
// * * * * * * * * * * * * * * * * * * * * * * * * * * * * * * * * * * * * * //

dimensions      [0 2 -2 0 0 0 0];

internalField   nonuniform List<scalar> 
6397
(
4.73078
4.52858
-0.243104
-0.784541
-1.74004
-1.05738
8.1034
5.76405
-10.2141
-8.1752
2.65786
-0.67292
-0.250518
-0.194185
-0.25369
-18.129
-17.2172
-16.8941
12.0215
12.0317
11.1941
-8.03816
-6.78106
-5.95513
-0.143048
-0.107506
-0.0588725
-3.6888
-3.80915
-2.57491
-2.69555
-1.51605
-0.939664
-1.37357
-1.17912
-0.831127
-1.44325
-0.947053
0.00681614
0.00256984
-0.613879
-0.49089
-2.39606
-1.0274
-0.591664
-0.481793
-1.28441
-0.725451
0.735382
0.791289
0.868634
0.887519
0.851872
3.74578
3.09241
3.37375
3.40628
2.22495
-2.02861
-2.28329
-1.92752
-1.96273
-2.12926
-2.43498
-2.85153
-3.33859
-3.75752
-4.01976
-2.466
-2.65708
-3.03035
-2.04501
-1.79297
-1.67802
-1.69325
-1.81471
-2.02817
-2.27472
-2.49954
-2.61108
-3.65965
-3.10037
-3.89196
-2.56424
-4.23232
-3.49959
-3.55349
-2.40657
-4.59846
-3.76321
-3.13097
-2.22851
-4.70239
-4.53892
-2.74074
-2.06136
-5.10756
-5.08697
-5.33336
-3.91926
-4.61503
-2.43544
-3.14687
-1.4926
-1.87603
-1.14739
-1.25967
-1.19928
-1.13798
-1.4052
-1.30654
-1.45102
-1.46346
-1.3757
-1.42526
-1.37013
-4.75245
-3.34521
-4.0485
-5.34201
-5.29105
-4.40617
-5.06748
-2.97944
-3.66196
-2.09944
-2.45424
-1.84622
-1.90013
-2.12392
-1.92757
-2.6248
-2.37669
-2.77248
-2.74954
-4.1386
-3.43792
-4.51546
-1.48507
-2.02501
-3.81753
-2.80543
-2.98789
-1.73962
-0.900874
-1.21825
-1.69626
-5.17809
-4.53147
-1.65097
-2.4774
-5.19539
-5.37805
-3.81212
-4.61139
-2.15567
-2.94626
-1.06202
-1.52505
-0.566832
-0.757367
-0.449165
-0.474056
-0.522276
-0.476485
-0.5991
-0.571597
-0.620166
-0.610274
-0.707742
-5.88125
-4.84654
-6.7462
-6.61101
-5.43908
-6.31893
-3.43867
-4.39087
-2.13078
-2.68225
-1.55353
-1.76814
-1.50864
-1.48523
-1.72711
-1.62033
-1.76749
-1.7877
-1.75454
-3.5801
-3.07942
-3.67052
-3.74023
-2.46474
-2.52998
-2.14607
-0.332972
-0.661164
-1.70241
-2.16544
-2.24946
-2.19902
-1.79623
-2.18924
-1.62002
-2.7686
-3.36541
-2.4541
-0.978336
-0.911775
-2.42447
-4.96087
-4.2912
-4.954
-5.15922
-3.47119
-4.32054
-1.74718
-2.57409
-0.599758
-1.0936
-0.0523854
-0.272785
0.132999
0.0693105
0.126051
0.140906
0.064925
0.0895036
-0.00961502
0.0363185
-0.130105
-4.09147
-3.00448
-6.71972
-5.41071
-7.89609
-7.64202
-6.17754
-7.2849
-3.68026
-4.88089
-2.02611
-2.7315
-1.20928
-1.53749
-0.921288
-1.01474
-0.902825
-0.901596
-0.939456
-0.936849
-0.910072
-2.90779
-2.65399
-2.92988
-1.1509
-2.47922
-2.45157
-1.55485
-2.13178
-2.42229
-2.81809
-1.94411
-1.61681
-1.97149
-1.62841
-0.304062
-0.426148
-2.9009
-2.03004
-1.8601
-2.84093
-3.44445
-1.08784
-2.5634
-4.37187
-3.75064
-4.31816
-4.55772
-2.92849
-3.73756
-1.30909
-2.07827
-0.201269
-0.677505
0.345463
0.127816
0.55509
0.479675
0.590065
0.588072
0.555103
0.575527
0.461807
0.521906
0.151266
0.346755
-0.579256
-0.145493
-2.0258
-1.18729
-1.91543
-0.972328
-1.32687
-4.08571
-2.833
-7.03315
-5.56645
-8.40818
-8.06968
-6.42091
-7.67009
-3.62053
-4.96892
-1.75415
-2.55015
-0.800681
-1.19317
-0.370586
-0.539908
-0.217077
-0.268393
-0.19914
-0.188395
-0.229222
-2.27636
-2.21832
-2.17474
-1.48027
-0.783915
-4.09318
-3.05965
-2.61392
-2.97364
-1.20621
-1.27183
0.224694
0.0442371
-2.2305
-3.76953
-0.716926
-1.54195
-4.78051
-5.44341
-4.14341
-0.628815
-2.9007
-2.28305
-0.767159
-1.50482
-3.50178
-2.99757
-3.4359
-3.65193
-2.21493
-2.91656
-0.806263
-1.47028
0.154145
-0.258819
0.649026
0.453024
0.857977
0.780784
0.916264
0.900887
0.912552
0.918522
0.825954
0.883558
0.552231
0.716292
-0.023963
0.304502
-1.07532
-0.483751
-2.64928
-1.82893
-0.419032
-0.0438565
-0.174347
-1.4996
-0.837583
-3.72095
-2.46011
-6.68243
-5.21169
-7.9139
-7.70225
-6.06756
-7.30304
-3.25453
-4.61084
-1.36924
-2.17521
-0.382227
-0.795001
0.106464
-0.094133
0.350475
0.248745
0.394783
0.400276
0.333375
-0.746876
-0.00861166
-4.96948
-3.19258
-0.932361
-0.216688
-1.52236
-1.30409
-1.79673
-1.69386
-1.73611
-1.82573
-1.22966
-1.5251
-0.509708
-0.882319
-0.158754
-2.93322
-3.76621
-2.4764
-5.02824
-1.68782
-6.23157
-0.0366442
-0.819418
-6.50563
-3.17546
-5.17795
-0.340214
0.153713
-3.46761
-1.55364
-0.943948
-2.47979
-2.12075
-2.4422
-2.62057
-1.45123
-2.01754
-0.298733
-0.844348
0.483525
0.151265
0.888468
0.729323
1.06703
1.0013
1.13038
1.10916
1.1504
1.1437
1.09792
1.13629
0.890654
1.01398
0.472904
0.711549
-0.267268
0.145946
-1.31678
-0.790274
-1.43533
-1.59465
0.491106
0.565997
0.555838
0.0709842
0.337336
-0.963422
-0.347935
-3.00358
-1.85212
-5.70558
-4.35998
-6.83383
-6.64042
-5.17051
-6.29317
-2.60665
-3.84162
-0.894908
-1.62728
0.0140527
-0.370633
0.498405
0.2928
0.762505
0.649649
0.857342
0.833107
0.644051
0.78906
0.132381
0.436656
-0.256738
-1.77296
-1.52837
-1.69906
-1.69358
-1.78481
-1.29471
-1.52854
-0.648399
-0.995306
0.0575385
-0.290944
-0.0569434
0.543142
-2.68577
-0.942521
0.568591
0.345684
-3.43733
-4.8297
-2.81796
-6.40407
-1.84664
-7.38685
-0.865306
-6.85629
0.535454
-0.0589246
-4.66538
-0.392011
-1.94335
0.971405
0.525581
0.945018
0.0703883
0.678936
1.00659
0.743207
0.879091
0.977902
-4.26632
0.0404839
0.428182
-0.838639
-0.398535
-1.53599
-1.24856
-1.48704
-1.62809
-0.739337
-1.16457
0.136644
-0.278645
0.747624
0.49318
1.06048
0.941287
1.20192
1.15088
1.26964
1.2422
1.31664
1.29728
1.28515
1.31524
1.11511
1.21441
0.80582
0.978388
0.339571
0.586712
-0.195355
0.0592179
-0.176578
-0.319385
0.23322
0.962494
0.967022
0.902968
0.950673
0.550948
0.77162
-0.332324
0.189134
-2.02072
-1.0629
-4.28097
-3.16152
-5.29234
-5.06943
-3.92405
-4.84958
-1.79946
-2.82084
-0.378575
-0.987521
0.389354
0.0621787
0.815407
0.631357
1.06237
0.954938
1.16117
1.13992
0.982398
1.11259
0.432615
0.757836
0.0194502
-2.13103
-1.97852
-2.09156
-2.18723
-1.63964
-1.91117
-0.939538
-1.30462
-0.18286
-0.559663
0.479334
0.173061
0.717243
-4.02535
-5.99424
-3.10297
-7.50242
-1.89744
-7.77281
-0.827971
-6.26876
-0.0399501
-3.59121
0.858609
0.481357
-1.09176
1.23045
0.49249
1.05262
0.728498
0.949711
1.43262
1.71127
1.78852
1.13468
1.17686
0.878353
1.06124
-5.14859
0.367751
0.657393
-0.238092
0.0736926
-0.704845
-0.503367
-0.682762
-0.771168
-0.151324
-0.454061
0.482641
0.178896
0.934688
0.74167
1.17114
1.07704
1.28633
1.24012
1.35312
1.32295
1.39218
1.3795
1.34925
1.38159
1.23615
1.29755
1.08113
1.16347
0.862103
0.982905
0.600987
0.718042
0.710985
0.562611
1.31568
0.978952
1.57076
1.22318
1.15307
1.22806
1.23988
1.17956
1.20838
0.950469
1.10214
0.287733
0.68792
-1.02773
-0.284476
-2.76449
-1.90658
-3.56778
-3.37789
-2.55745
-3.23909
-0.983096
-1.74351
0.110217
-0.36142
0.718212
0.459559
1.06488
0.917825
1.2699
1.18295
1.35905
1.33598
1.2168
1.32727
0.693726
1.00279
0.269892
-2.55958
-2.08786
-2.92141
-2.83343
-2.56552
-2.83993
-1.68959
-2.16272
-0.681307
-1.18099
0.181019
-0.219952
0.805481
0.525805
1.01155
-4.48619
-6.91503
-3.16361
-7.85785
-1.78809
-7.13347
-0.718285
-4.90621
-0.0421181
-2.27962
0.386002
-0.303236
0.835345
0.565942
0.893578
1.84263
1.61402
1.18437
-5.8345
0.966196
1.22193
1.1163
0.615079
0.81145
0.224983
0.42471
-0.0666116
0.0695147
-0.0597847
-0.108227
0.286542
0.0815107
0.731197
0.509002
1.0568
0.90765
1.23452
1.15304
1.334
1.28499
1.40243
1.36826
1.43901
1.42534
1.42961
1.43964
1.38498
1.41192
1.29658
1.34844
1.1663
1.23294
1.10159
1.11875
1.28569
1.14041
1.65289
1.44808
1.89995
1.81535
1.9425
1.93491
1.23548
1.0853
1.16621
1.36667
1.30862
1.40432
1.39496
1.37307
1.39653
1.22744
1.32293
0.764556
1.04785
-0.184159
0.351366
-1.373
-0.798296
-1.89929
-1.77141
-1.26404
-1.69248
-0.243505
-0.740804
0.518914
0.183034
0.980021
0.782165
1.25335
1.13902
1.40832
1.34465
1.47434
1.45274
1.36636
1.44565
0.91093
1.18455
0.0750591
0.529835
-0.425925
-3.48152
-2.17648
-2.90269
-3.82632
-3.79417
-3.12592
-3.59238
-1.84049
-2.51204
-0.541205
-1.1667
0.450733
0.00838462
1.03064
0.786047
1.29778
1.20035
1.31843
1.3287
0.69447
0.982943
1.88693
1.9353
-4.59286
-7.19587
-0.467424
-2.93372
-7.24257
1.23446
1.38789
1.30063
-1.54831
-5.69919
-0.620059
-3.30782
-0.11092
-1.08567
0.236884
0.337635
0.362986
1.24831
0.865588
0.529013
1.75809
1.93027
1.91934
-6.01863
1.02816
1.12793
0.789111
0.915076
0.547781
0.667641
0.376876
0.446004
0.372934
0.346705
0.582843
0.451145
0.882639
0.726123
1.12104
1.008
1.26597
1.19769
1.36228
1.31535
1.43527
1.40123
1.48484
1.46439
1.4947
1.49701
1.44972
1.47931
1.38641
1.41713
1.35525
1.36612
1.38637
1.36164
1.5295
1.43974
1.81398
1.67849
1.94212
1.90265
1.9334
1.94475
1.85963
1.90665
1.25167
1.04825
1.14742
1.41817
1.34434
1.51599
1.47214
1.5446
1.53651
1.51922
1.54123
1.41267
1.4792
1.09299
1.28894
0.464264
0.809671
-0.198615
0.11034
-0.515562
-0.41773
-0.230558
-0.435544
0.354427
0.0599715
0.845091
0.623612
1.17253
1.02809
1.38297
1.29226
1.49535
1.44844
1.53011
1.51588
1.44314
1.50131
1.10378
1.30693
0.422981
0.800096
-0.0240612
-2.87785
-1.97942
-4.34274
-3.72186
-4.65455
-4.67375
-3.64481
-4.288
-2.00373
-2.84623
-0.47319
-1.19408
0.627051
0.13988
1.21481
0.981334
1.42096
1.35329
1.42734
0.748119
0.971165
1.88
1.78314
-4.24176
-6.65672
1.21329
1.23528
-2.49819
-5.89362
-1.29784
-4.04513
-0.635673
-1.93785
-0.255807
-0.220412
0.0284702
0.805824
0.128996
1.54046
0.330522
1.87716
0.914714
0.610953
1.96078
1.16198
1.10353
0.87689
-1.43993
1.79148
1.66733
-5.57165
1.07014
1.14081
0.89301
0.981722
0.736947
0.814438
0.637917
0.682779
0.634266
0.623692
0.756561
0.678404
0.962104
0.852374
1.14474
1.05743
1.27004
1.21152
1.35986
1.31774
1.42528
1.39547
1.46178
1.44673
1.47902
1.47299
1.48485
1.48271
1.48812
1.48804
1.48797
1.48716
1.52462
1.49953
1.60571
1.5673
1.85482
1.7495
1.92699
1.91312
1.87683
1.91026
1.76817
1.83028
1.55311
1.67712
1.27981
1.22279
1.40024
1.34052
1.49596
1.45158
1.57339
1.5361
1.60949
1.59554
1.59997
1.60819
1.51904
1.56989
1.29183
1.42821
0.925822
1.11222
0.634086
0.768316
0.442409
0.520944
0.502289
0.446664
0.782906
0.632773
1.0764
0.937891
1.30323
1.20034
1.46122
1.39008
1.54341
1.50728
1.5534
1.54674
1.47294
1.51926
1.22599
1.37405
0.716476
1.00041
-0.0325252
0.366435
-0.431519
-3.38262
-2.39594
-4.91448
-4.26147
-5.2272
-5.27105
-4.006
-4.77388
-2.10324
-3.06984
-0.411583
-1.19767
0.738677
0.2351
1.32547
1.09778
1.49814
1.44624
1.40405
1.48582
1.28227
1.36063
-3.55652
-5.49931
1.3876
1.50005
1.1799
1.26525
1.1946
1.45935
1.3049
-2.05811
-4.34566
-1.18948
-2.65959
-0.78451
-0.984942
-0.478996
0.330116
-0.270404
1.15732
-0.133359
1.77637
0.110252
1.97682
1.07988
1.32294
1.3285
1.11885
0.458805
1.93782
0.841567
1.28248
-0.267094
1.23157
-4.64284
1.1511
1.17725
1.07228
1.12102
0.955849
1.00833
0.8612
0.898205
0.793841
0.818801
0.78954
0.781857
0.863837
0.815162
1.00679
0.928828
1.15314
1.0829
1.26568
1.21317
1.35409
1.31316
1.42366
1.39252
1.47188
1.45079
1.49982
1.48922
1.5025
1.50386
1.50197
1.50033
1.53276
1.5117
1.60421
1.56573
1.69326
1.64674
1.83414
1.77038
1.87295
1.86884
1.80845
1.85073
1.67607
1.75022
1.58043
1.35636
1.34017
1.39317
1.37156
1.483
1.43132
1.57411
1.53265
1.63528
1.60758
1.66141
1.65227
1.64833
1.65949
1.57973
1.62162
1.42147
1.51227
1.23438
1.31865
1.13242
1.17998
1.00083
1.07154
0.964374
0.950548
1.09655
1.02145
1.25713
1.17943
1.39146
1.32792
1.49372
1.44431
1.55197
1.52581
1.54691
1.55187
1.4752
1.51518
1.29073
1.39569
0.922128
1.12317
0.338448
0.645676
0.0161898
-1.53263
-0.621305
-3.50135
-2.51431
-5.12541
-4.40579
-5.44371
-5.50538
-4.11497
-4.94555
-2.11208
-3.12147
-0.359386
-1.17312
0.808847
0.302087
1.4042
1.1696
1.53735
1.50993
1.42649
1.50238
1.35121
1.62448
1.18148
1.18442
1.11872
-2.84555
-4.18412
-1.7955
-3.05489
-1.2892
-1.70872
1.26904
-1.04679
-0.370715
-0.823956
0.73287
-0.688886
1.40703
1.39738
1.56076
1.63299
1.51391
-0.447159
1.96535
1.2201
-0.104322
1.99963
0.818511
0.303072
1.82396
1.12591
0.394121
0.0675182
0.96615
0.940794
0.413039
-3.62065
1.12049
1.10519
1.12217
1.09634
1.10965
1.05868
1.083
0.987338
1.02259
0.915263
0.947126
0.882899
0.89569
0.884832
0.880057
0.93749
0.905401
1.03998
0.985139
1.15633
1.09921
1.25588
1.20846
1.33762
1.29927
1.40221
1.37285
1.44874
1.4279
1.48256
1.46726
1.50921
1.49594
1.53367
1.52173
1.55987
1.54514
1.6135
1.58174
1.69373
1.65372
1.79231
1.75358
1.80293
1.80857
1.73344
1.77713
1.59577
1.67199
1.38555
1.50157
1.08726
1.24453
0.752343
0.771429
0.925967
1.48414
1.51341
1.46835
1.46856
1.50796
1.48326
1.57445
1.53935
1.63407
1.60768
1.67253
1.65455
1.69135
1.68537
1.67686
1.68821
1.62277
1.65468
1.52815
1.57916
1.44929
1.47959
1.41595
1.43404
1.32014
1.37543
1.25665
1.26802
1.29521
1.26706
1.37901
1.33482
1.459
1.42079
1.51591
1.49009
1.54436
1.53466
1.52786
1.54218
1.45693
1.49946
1.31021
1.391
1.03966
1.1851
0.62675
0.842877
0.215142
0.408948
0.0719716
-1.43748
-0.456072
-3.24068
-2.29784
-4.88344
-4.14375
-5.21796
-5.26578
-3.95387
-4.74574
-2.03414
-3.00386
-0.331139
-1.12615
0.816429
0.318974
1.39312
1.16694
1.53628
1.50493
1.44351
1.51453
1.29151
1.35437
1.21988
-2.37153
-3.11688
0.616895
0.797032
0.672793
-1.78452
-2.18819
1.34851
-1.55732
-1.10318
-1.47284
0.0632213
0.999181
1.71899
1.81219
1.88076
1.7949
-1.34573
1.0838
1.63421
-1.22674
1.52985
0.560311
0.740645
1.3503
-0.856659
2.1253
0.856338
-0.277583
1.8696
0.239066
1.03766
1.05375
0.999545
1.06605
0.417946
0.621119
0.994823
-2.85821
1.06977
1.05868
1.05774
1.06439
1.03312
1.04929
0.993517
1.01406
0.955664
0.971438
0.937539
0.943413
0.945655
0.938622
0.987882
0.962801
1.06637
1.02444
1.15966
1.11283
1.24719
1.20445
1.32324
1.2866
1.38555
1.3568
1.43287
1.4111
1.46728
1.45183
1.49244
1.48005
1.52149
1.50562
1.56487
1.54087
1.62037
1.59197
1.69869
1.65271
1.73379
1.71426
1.73068
1.7408
1.6597
1.70303
1.5245
1.60012
1.32708
1.43425
1.07077
1.20356
0.9316
1.67632
1.74093
1.59072
1.6237
1.58109
1.57872
1.59511
1.58762
1.62734
1.60733
1.67066
1.65044
1.69829
1.68564
1.71184
1.70796
1.69834
1.7085
1.66106
1.68263
1.61109
1.63634
1.58377
1.59223
1.56824
1.57912
1.49572
1.53731
1.43055
1.45552
1.41849
1.41738
1.44959
1.43069
1.493
1.47147
1.52585
1.51216
1.53384
1.5336
1.50467
1.5254
1.42798
1.47795
1.29968
1.37807
1.09605
1.21256
0.818753
0.962903
0.546836
0.665381
0.43698
0.157141
0.67352
0.488604
-1.00757
-0.306625
-2.67792
-1.79399
-4.25625
-3.55052
-4.62381
-4.63539
-3.56174
-4.23155
-1.88453
-2.74246
-0.334892
-1.06519
0.756357
0.276466
1.32195
1.09935
1.47158
1.43864
1.40629
1.45839
1.25932
1.32672
1.18294
0.457227
0.557913
-2.20129
-2.4585
1.59034
-1.99401
-1.68093
1.93439
1.99701
2.02855
1.96342
-2.0248
-0.708577
1.05918
1.86744
-2.14103
0.446001
1.74285
-2.0822
1.39344
0.348327
0.718805
1.48205
-1.9011
1.48117
0.499555
1.02945
-1.3391
2.28233
0.358465
-0.415007
0.947728
0.729003
0.293203
0.439317
-2.46473
0.98291
0.909799
0.953761
1.01423
1.00061
1.02101
1.01782
1.01316
1.01924
0.992879
1.0041
0.973635
0.981451
0.968353
0.968676
0.982514
0.972904
1.02079
0.999056
1.08446
1.05073
1.16159
1.12265
1.23808
1.20013
1.30723
1.27327
1.36515
1.33743
1.41176
1.38972
1.44941
1.4318
1.48001
1.46517
1.50855
1.49427
1.54298
1.52394
1.59175
1.56599
1.64133
1.61832
1.67369
1.66373
1.65724
1.6716
1.58985
1.63014
1.46443
1.53441
1.28416
1.37991
1.06116
1.17675
0.830097
0.94485
0.635585
0.725604
0.323513
0.485761
0.555654
1.88637
1.94811
1.75761
1.81966
1.68571
1.71198
1.65978
1.67046
1.65422
1.65388
1.67368
1.66056
1.70213
1.68804
1.71858
1.71156
1.72596
1.72418
1.71532
1.72308
1.6904
1.70458
1.66392
1.67649
1.65538
1.65761
1.64243
1.65346
1.58488
1.61806
1.52399
1.55169
1.49471
1.50432
1.49848
1.49386
1.51241
1.5043
1.52103
1.51595
1.51227
1.51591
1.47411
1.49603
1.3974
1.44264
1.28058
1.35383
1.1192
1.21478
0.918937
1.02337
0.72405
0.810616
0.641465
0.665611
0.700749
0.346545
0.607353
-0.548456
-0.0248387
-1.98708
-1.21411
-3.34636
-2.74671
-3.73235
-3.68808
-3.00895
-3.48546
-1.68511
-2.37874
-0.377081
-1.00259
0.602317
0.16377
1.14869
0.926295
1.34425
1.28639
1.31768
1.34979
1.16905
1.24891
0.98892
1.10386
0.883171
0.932156
1.64991
-2.27196
-2.13513
0.840263
0.838046
2.05433
1.9826
-2.43693
-1.412
0.421617
0.247357
1.12384
1.89704
-2.81124
-0.421311
0.138673
1.79637
-3.11057
0.865774
0.122491
0.701552
1.61928
-3.14612
1.68769
0.218982
1.25457
-2.71707
1.2701
0.419555
0.656916
-1.76226
2.02736
-0.415411
0.38463
0.509854
0.472935
2.08367
2.13622
-2.3455
0.874439
0.744986
0.817684
0.93463
0.910316
0.965858
0.951032
0.985403
0.978361
0.987387
0.988062
0.98289
0.986694
0.980184
0.981566
0.985773
0.981611
1.00429
0.993424
1.04076
1.02037
1.09568
1.06658
1.16164
1.12801
1.22897
1.19518
1.29164
1.2606
1.34531
1.31952
1.38949
1.36837
1.42604
1.40874
1.45771
1.44225
1.48888
1.47314
1.52289
1.50544
1.55802
1.54044
1.59342
1.57646
1.61437
1.60888
1.59153
1.60872
1.52494
1.56328
1.41198
1.47474
1.25096
1.33641
1.05946
1.15821
0.864718
0.960108
0.704762
0.779521
0.59525
0.642933
0.552201
2.11882
2.1984
2.14737
2.05434
2.09234
1.9454
2.00477
1.8277
1.88202
1.75686
1.78575
1.71683
1.73345
1.70375
1.70606
1.70985
1.70476
1.72348
1.71677
1.73213
1.72874
1.73472
1.7344
1.72623
1.73213
1.70903
1.71833
1.69374
1.70059
1.68842
1.69024
1.67319
1.68445
1.62842
1.65353
1.57553
1.60141
1.53504
1.55255
1.51838
1.52435
1.5153
1.51588
1.51056
1.51319
1.49032
1.50132
1.44651
1.47132
1.37194
1.41477
1.26605
1.3257
1.12723
1.20287
0.964824
1.05006
0.821476
0.891054
0.755206
0.777645
0.800508
0.761903
0.595215
0.764847
-0.0824066
0.31544
-1.19917
-0.596189
-2.29474
-1.79949
-2.76602
-2.63064
-2.39836
-2.68167
-1.47168
-1.97016
-0.463391
-0.957847
0.371035
-0.0130945
0.889926
0.670945
1.11711
1.03909
1.1277
1.13914
1.02288
1.08345
0.924879
0.974081
0.826025
0.877354
0.776804
2.00769
-2.59579
-2.05575
0.387959
0.423945
0.482373
0.932026
0.663693
0.237326
1.18059
1.90863
-3.21991
-1.31494
0.0450322
1.82477
-4.04296
-0.1496
-0.0767976
0.649893
1.70871
-4.61397
1.35734
-0.0828916
1.49537
-4.69933
1.86301
0.321469
0.0630122
1.02805
-3.59065
1.27384
-0.128482
-1.86005
2.29107
2.13587
2.05379
-2.47284
0.81894
0.776411
0.885834
0.854755
0.925019
0.909076
0.952824
0.941718
0.965768
0.961684
0.97203
0.970162
0.97863
0.975401
0.992208
0.984386
1.01624
1.00294
1.0526
1.03263
1.10166
1.07558
1.15926
1.12969
1.21893
1.18884
1.27575
1.24762
1.32543
1.30145
1.36771
1.34735
1.40299
1.38626
1.43368
1.41889
1.46235
1.44812
1.49335
1.47745
1.52418
1.50929
1.54749
1.53718
1.55531
1.55454
1.53168
1.54828
1.46835
1.50469
1.3665
1.42239
1.22475
1.30002
1.06193
1.14563
0.90258
0.978695
0.774545
0.83586
0.676239
0.720167
0.603613
0.640954
0.356874
0.397545
0.563541
0.571643
2.16325
2.26377
2.2007
2.10217
2.13643
1.99773
2.05577
1.88315
1.93686
1.80948
1.84077
1.76496
1.78508
1.74184
1.75017
1.73768
1.73837
1.73999
1.73871
1.74147
1.74119
1.74013
1.74138
1.73189
1.7379
1.71838
1.7255
1.7069
1.71197
1.70055
1.7033
1.68378
1.69458
1.64438
1.66613
1.5949
1.62011
1.55261
1.57162
1.52959
1.5391
1.51424
1.52127
1.49596
1.50582
1.46554
1.48356
1.41745
1.4464
1.34592
1.38771
1.25026
1.301
1.12991
1.18961
0.995004
1.06032
0.879728
0.933371
0.825962
0.843751
0.852994
0.82743
0.951514
0.946641
0.849074
0.933912
0.382783
0.666763
-0.421671
0.0154759
-1.28029
-0.874055
-1.81642
-1.60761
-1.77771
-1.87155
-1.29086
-1.57112
-0.623019
-0.966371
0.0261936
-0.28371
0.520028
0.29356
0.828648
0.702886
0.914123
0.892463
0.87014
0.899068
0.827887
0.846391
0.763469
0.804856
0.710811
0.297082
1.45287
1.91588
-3.27548
-2.24467
0.636886
2.35223
0.0539403
1.8226
-4.53889
-1.34767
0.551472
0.431306
0.588857
-0.188206
2.34724
2.27105
0.660162
1.73254
-5.98288
0.132311
-0.338523
1.6158
-6.99004
1.79909
0.199198
-0.320575
1.30991
-6.58335
1.28562
-0.103286
0.427066
-4.16721
0.829387
0.227108
0.248509
-1.34859
0.276556
2.01973
1.94124
-2.94343
0.775932
0.719334
0.844304
0.815557
0.889718
0.870834
0.921555
0.908362
0.943356
0.9342
0.958854
0.951821
0.974327
0.966459
0.993779
0.983243
1.02073
1.00604
1.05732
1.03759
1.10312
1.07901
1.15502
1.12848
1.20851
1.18168
1.25972
1.2345
1.30557
1.28297
1.34544
1.32627
1.37922
1.36314
1.40848
1.39442
1.43504
1.42211
1.46087
1.44802
1.48506
1.47337
1.50206
1.49503
1.50248
1.50489
1.47599
1.49302
1.41819
1.45099
1.32788
1.37706
1.2084
1.27088
1.06756
1.13811
0.938234
0.999523
0.835716
0.884056
0.750295
0.789099
0.689814
0.7202
0.6548
0.658962
2.45675
2.4104
2.49655
2.31613
2.40038
2.20728
2.25119
2.13921
2.17413
2.03885
2.09375
1.92673
1.98024
1.85204
1.88433
1.80292
1.82591
1.77157
1.78444
1.75884
1.76393
1.7524
1.75539
1.7472
1.74985
1.74171
1.74497
1.73225
1.73675
1.72064
1.72657
1.71068
1.71519
1.70078
1.70595
1.68015
1.6921
1.64413
1.66326
1.60812
1.62409
1.5601
1.58057
1.52947
1.54368
1.5049
1.51699
1.47868
1.49307
1.44287
1.46373
1.39278
1.42196
1.32352
1.36174
1.23416
1.27983
1.12691
1.17966
1.01281
1.06777
0.918636
0.960941
0.869386
0.886064
0.875613
0.864697
0.895411
0.88657
1.03769
0.94333
0.979521
1.05583
1.07404
0.807775
0.96795
0.307853
0.591579
-0.377881
-0.0260984
-0.985357
-0.712169
-1.24949
-1.16341
-1.17884
-1.25178
-0.86136
-1.04405
-0.416659
-0.644921
0.0373783
-0.187598
0.425576
0.246693
0.65121
0.55816
0.734074
0.706354
0.732223
0.741279
0.685244
0.715768
0.590698
0.638902
0.564393
0.143848
1.80684
-4.46246
-2.73711
0.610045
0.688045
0.901629
-0.179936
0.0460126
0.0114871
2.49388
2.42393
0.566138
1.71165
-6.73784
-1.49678
-0.479415
1.64908
-8.94934
0.331815
0.0922885
0.0921561
-0.657164
1.54282
-9.81808
1.74952
-0.59421
1.01965
-7.83951
0.338159
-0.322708
-0.456875
-3.67796
0.513153
1.87213
2.15736
2.01378
0.360367
1.81011
-3.84376
0.728808
0.670722
0.806641
0.774043
0.856996
0.834706
0.894047
0.877924
0.921851
0.90946
0.944228
0.933823
0.966187
0.955187
0.991252
0.978242
1.02136
1.00556
1.05801
1.03876
1.10109
1.07866
1.14864
1.12437
1.19752
1.17304
1.24418
1.22129
1.28647
1.26562
1.32354
1.30574
1.35516
1.34002
1.38234
1.36936
1.40638
1.39475
1.42836
1.41771
1.44644
1.43812
1.45687
1.45285
1.45348
1.4574
1.42647
1.44326
1.37319
1.40295
1.29398
1.33684
1.19031
1.24476
1.07314
1.13161
0.967926
1.01809
0.880744
0.922225
0.816261
0.84497
0.765937
0.790352
0.74611
0.746133
0.739229
0.816388
0.771657
0.645298
2.57491
2.54107
2.52672
2.62276
2.60064
2.36088
2.43867
2.24685
2.297
2.16706
2.20632
2.07041
2.12251
1.9631
2.01475
1.88636
1.92056
1.83326
1.85818
1.79512
1.81197
1.77452
1.78328
1.76103
1.76761
1.74993
1.75522
1.74065
1.7455
1.73021
1.73548
1.71849
1.72432
1.70685
1.71249
1.69283
1.70003
1.67109
1.6832
1.63645
1.65526
1.58842
1.61505
1.55546
1.57363
1.52274
1.53831
1.49358
1.50839
1.46186
1.47934
1.4222
1.44459
1.37053
1.39922
1.30297
1.33833
1.21898
1.26113
1.12203
1.17048
1.02325
1.0721
0.941887
0.979601
0.893651
0.911351
0.878645
0.882263
0.873031
0.875188
0.875799
0.961283
0.881778
0.918922
1.09409
1.00705
1.20674
1.17154
1.15495
1.20473
0.866189
1.05104
0.32061
0.61236
-0.292125
0.011872
-0.819588
-0.573482
-1.13514
-1.00881
-1.18712
-1.19491
-0.974791
-1.11127
-0.539363
-0.780342
-0.0263424
-0.279646
0.369188
0.190857
0.595333
0.505458
0.632479
0.634433
0.59104
0.613026
0.530485
0.562056
0.497059
0.507933
-0.0808093
2.33775
1.83517
2.06238
2.21716
0.26778
1.69543
1.6742
-6.48337
-3.55466
-0.489888
1.60781
-10.0171
-1.77466
0.806239
0.874071
-0.159453
0.193932
0.615654
0.486543
2.55332
2.64187
0.884028
0.842574
0.832079
0.485779
0.442394
0.431508
-0.867265
1.60149
-12.3304
0.394363
-0.280593
-0.210652
-1.07416
1.43264
-11.4254
1.02918
-0.516732
-0.95005
1.58791
1.85785
0.446507
-7.2624
-0.332878
-2.30338
1.65303
-5.3319
0.59064
0.539027
0.690434
0.64126
0.770284
0.734603
0.826126
0.800559
0.868424
0.849085
0.901689
0.886264
0.92993
0.916464
0.956949
0.943518
0.985784
0.971019
1.01834
1.00149
1.0556
1.03636
1.09708
1.07578
1.14121
1.11885
1.18599
1.16357
1.2289
1.20782
1.26795
1.24885
1.30229
1.28578
1.33154
1.31755
1.35629
1.34451
1.37741
1.3673
1.39566
1.38698
1.40931
1.4033
1.41474
1.41321
1.40785
1.41323
1.38154
1.39735
1.33356
1.36016
1.26458
1.3016
1.17589
1.22233
1.07916
1.12706
0.992971
1.03444
0.919015
0.954195
0.868583
0.890482
0.833866
0.850082
0.828068
0.823925
0.884881
0.848415
0.720927
2.63912
2.5329
2.58956
2.69596
2.67306
2.72281
2.70818
2.39804
2.4709
2.283
2.33571
2.19237
2.23645
2.09612
2.14636
1.99335
2.04344
1.91407
1.95011
1.85709
1.884
1.81299
1.83313
1.78582
1.79778
1.76615
1.77571
1.75023
1.75772
1.73773
1.74388
1.7254
1.73167
1.71188
1.71856
1.6984
1.70497
1.68245
1.69074
1.65884
1.67192
1.62444
1.64289
1.58505
1.60472
1.54786
1.56597
1.51372
1.53047
1.48072
1.4976
1.4451
1.46422
1.40268
1.42576
1.34991
1.37802
1.28387
1.31788
1.20478
1.24482
1.11673
1.16123
1.0291
1.07257
0.954449
0.989267
0.903506
0.924972
0.874804
0.886532
0.859258
0.865994
0.851862
0.998493
0.939802
1.15448
1.05869
1.33292
1.25013
1.42694
1.39919
1.30467
1.40303
0.893164
1.13176
0.245686
0.591516
-0.499083
-0.12675
-1.15829
-0.847414
-1.57624
-1.40788
-1.6074
-1.64305
-1.22205
-1.46422
-0.565722
-0.910236
0.052718
-0.236366
0.43081
0.279227
0.51898
0.502426
0.49705
0.509714
0.466723
0.483104
0.452419
-0.39157
2.45144
1.45331
1.52078
-9.5173
-4.73272
0.933462
-0.379547
0.34436
2.73299
0.806337
0.788544
0.469558
0.418927
-0.912626
1.50353
-13.5444
-2.05035
-0.134187
-1.38001
1.55511
-14.2316
0.0233873
-0.649737
-0.531606
-0.874809
-1.54185
1.27743
1.58833
1.1824
-10.1965
-0.385677
-1.2059
-0.493017
-4.4725
2.3438
2.20376
1.44673
-7.54357
0.570012
0.520648
0.661794
0.617628
0.738311
0.701828
0.797646
0.769877
0.844379
0.822468
0.882401
0.864365
0.915476
0.899446
0.946912
0.931305
0.979081
0.962804
1.01343
0.995922
1.05078
1.03175
1.09099
1.07055
1.13279
1.11175
1.17438
1.15366
1.2139
1.19448
1.24982
1.23231
1.2814
1.26618
1.30829
1.29546
1.33052
1.31998
1.34884
1.34016
1.36361
1.35675
1.37323
1.36923
1.37536
1.37535
1.36642
1.37263
1.34083
1.35579
1.29824
1.3216
1.23824
1.27038
1.16304
1.20205
1.08427
1.12305
1.01325
1.04774
0.952525
0.981011
0.912768
0.929876
0.892014
0.900191
0.897419
0.890258
0.946671
0.916405
0.992458
1.04028
0.989443
0.883503
0.941053
0.724548
0.810638
-0.888747
0.510482
0.623704
2.78136
2.7291
2.75728
2.8091
2.79786
2.82014
2.81519
2.74259
2.8276
2.82378
2.57665
2.65828
2.43015
2.50025
2.3134
2.36842
2.2151
2.26327
2.11717
2.16692
2.01745
2.06635
1.93648
1.97395
1.87524
1.90428
1.82666
1.84921
1.79313
1.80833
1.7685
1.78023
1.74836
1.75795
1.73244
1.74005
1.71784
1.7251
1.70295
1.71024
1.68797
1.69544
1.66957
1.67936
1.6444
1.658
1.61134
1.62884
1.57121
1.59225
1.53741
1.55494
1.50213
1.51971
1.46686
1.48499
1.42875
1.44879
1.38443
1.40785
1.33098
1.35883
1.2664
1.29961
1.19151
1.22982
1.11053
1.15167
1.03037
1.07006
0.959767
0.992813
0.905119
0.929829
0.868865
0.884886
0.842224
0.855704
0.824907
0.888314
0.772258
0.823494
1.04647
0.963862
1.22736
1.12715
1.44151
1.33187
1.6175
1.54509
1.59766
1.64221
1.28359
1.47719
0.651694
1.00835
-0.249881
0.222754
-1.22606
-0.743101
-2.00337
-1.65931
-2.27639
-2.21561
-1.9084
-2.17033
-1.10822
-1.53648
-0.300622
-0.68259
0.211118
0.0015243
0.386237
0.329024
0.409046
0.406362
0.397126
0.403933
0.385791
0.391612
0.368333
0.377601
-0.81406
2.68972
1.15142
1.35567
-12.6954
-6.05289
-0.00882697
-1.465
1.43312
-15.5954
-2.5794
-0.432067
1.05866
1.09737
2.75278
2.83391
-1.35896
0.75281
0.725552
0.698079
0.356607
0.316496
0.30614
-2.01064
2.01913
1.60551
-12.9095
-0.916139
-1.14379
-0.974903
-2.08623
-1.86798
1.00081
-6.57236
-1.89209
0.786385
1.16255
-1.27883
0.380298
0.685413
0.592814
2.6343
2.56761
1.21448
-9.89161
0.172855
0.453631
0.405891
0.548221
0.501149
0.6358
0.593619
0.710426
0.675115
0.77191
0.742709
0.822183
0.798319
0.864247
0.844069
0.901288
0.883231
0.936233
0.918914
0.971122
0.95358
1.0072
0.988968
1.04481
1.02582
1.08385
1.06419
1.12348
1.10364
1.16245
1.14311
1.19922
1.18117
1.23236
1.21629
1.26121
1.24731
1.28557
1.27397
1.30527
1.29599
1.32087
1.31355
1.33253
1.32727
1.33865
1.33638
1.33815
1.33927
1.32812
1.33465
1.30401
1.31785
1.26621
1.28672
1.21459
1.24214
1.15147
1.18391
1.08765
1.11895
1.02966
1.0579
0.981347
1.00368
0.951273
0.963923
0.941102
0.943556
0.956354
0.944975
1.00364
0.975107
1.08482
1.04055
0.966576
1.01536
0.841739
0.908943
0.766871
2.9209
2.91588
2.92055
2.91893
2.91997
2.91664
2.91759
2.91215
2.91552
2.9104
2.91028
2.5979
2.67267
2.45949
2.52676
2.34018
2.39777
2.23489
2.28636
2.13454
2.18463
2.037
2.08484
1.95423
1.99327
1.88901
1.91991
1.83637
1.8612
1.79721
1.81516
1.76827
1.78203
1.74397
1.75559
1.72498
1.73388
1.70869
1.71669
1.6923
1.70042
1.67544
1.68395
1.65559
1.66612
1.63003
1.64364
1.59798
1.61481
1.56092
1.57981
1.52563
1.54339
1.48978
1.50778
1.45295
1.47187
1.41313
1.4338
1.36734
1.39113
1.31341
1.34129
1.25033
1.28281
1.17919
1.21564
1.10342
1.1418
1.02802
1.06527
0.959341
0.992145
0.902209
0.928984
0.858831
0.879212
0.821341
0.840798
0.775712
0.799027
0.751291
0.891661
0.817669
1.08223
0.980814
1.30232
1.18316
1.54228
1.41624
1.76478
1.6652
1.83609
1.82721
1.62035
1.7745
0.963755
1.34944
-0.0812508
0.479014
-1.31876
-0.693822
-2.41363
-1.91046
-2.93772
-2.77105
-2.60803
-2.87968
-1.65774
-2.17541
-0.675934
-1.13857
-0.0401749
-0.307448
0.23764
0.13291
0.315988
0.29303
0.324971
0.322481
0.327752
0.328046
0.324239
-1.36415
2.91414
0.723169
1.21592
-14.5016
-6.69875
-0.283293
0.488198
0.21622
1.13419
2.91185
-1.99304
0.685186
0.6519
0.342887
0.295317
-2.25859
2.48191
1.54594
-14.4403
-3.03689
-0.849231
-2.92247
-2.49853
1.9942
-9.10167
-2.46124
1.6882
-2.95631
1.16262
-2.49125
0.372136
-1.66442
3.18378
3.24645
-1.90235
0.750138
0.704977
0.956136
-11.1834
-0.0540077
0.437824
0.39127
0.527141
0.482864
0.612049
0.570828
0.686061
0.650531
0.748815
0.718769
0.801768
0.776406
0.847175
0.825236
0.887649
0.867868
0.925555
0.906802
0.962606
0.944084
0.999899
0.98116
1.03775
1.01875
1.07602
1.05689
1.11393
1.09508
1.15052
1.13245
1.18472
1.16797
1.21534
1.20052
1.24175
1.22906
1.26367
1.25329
1.2808
1.27279
1.2937
1.28772
1.30252