/*--------------------------------*- C++ -*----------------------------------*\
  =========                 |
  \\      /  F ield         | OpenFOAM: The Open Source CFD Toolbox
   \\    /   O peration     | Website:  https://openfoam.org
    \\  /    A nd           | Version:  10
     \\/     M anipulation  |
\*---------------------------------------------------------------------------*/
FoamFile
{
    format      ascii;
    class       volScalarField;
    location    "13";
    object      p;
}
// * * * * * * * * * * * * * * * * * * * * * * * * * * * * * * * * * * * * * //

dimensions      [0 2 -2 0 0 0 0];

internalField   nonuniform List<scalar> 
8711
(
-0.00303601
-0.00300304
-0.00263208
-0.0705874
-0.0793526
-0.0898694
0.0366801
0.0376757
0.704546
0.706438
0.485749
0.23864
0.0604235
0.0489962
0.0807917
0.0798375
-0.0778814
-0.0821164
-0.0880038
-0.000275013
-0.000415266
-0.00134196
-0.000998207
-0.00246291
-0.242898
-0.187964
-0.277499
-0.32934
-0.0048762
-0.00463175
-0.00372524
-0.311421
-0.367517
-0.226148
-0.246124
0.165012
0.155897
0.159969
0.167471
0.159625
0.204255
0.178481
-0.334147
-0.359195
0.358573
0.248519
-0.301924
-0.306461
-0.316228
0.00242141
0.00188953
0.00203084
0.00248905
-0.00507656
0.00307797
0.0111745
0.0360853
0.0402729
0.0427326
0.0459175
0.0190337
0.0193271
0.0216689
0.0208923
0.0516954
0.0478435
0.0374991
-0.00164857
-0.00174265
-0.00106477
0.0261655
0.0260714
0.0279595
0.0275495
0.0514804
0.0510814
0.0427063
0.0430996
-0.00178461
0.00759622
0.0082212
0.0136079
0.0127213
-0.00230571
-0.00229396
-0.0021921
0.0615763
0.0607339
-0.0185162
-0.0117568
0.0159868
0.00940393
0.0205987
-0.0248452
-0.0146059
0.0702094
0.0880577
0.0875738
0.0726783
0.0504442
0.0493865
0.348416
0.33979
0.0479599
0.0446162
0.0412277
0.0382398
0.0362879
0.0354544
0.0349317
0.034634
0.0345484
0.0343256
0.0340742
0.0335449
0.0329082
0.0318579
0.030612
0.0304958
0.0290589
0.0291915
0.0322091
0.031429
0.0326626
0.0325522
0.0318932
0.0323478
0.0301624
0.0310468
0.0286958
0.0291983
0.0305322
0.0290263
0.0355392
0.0326504
0.0385074
0.0553351
0.0587915
0.047892
0.0516369
0.0424402
0.0453161
0.0390772
0.0405797
0.0367438
0.0377576
0.0344054
0.0355596
0.0318799
0.0332816
0.0283396
0.0301866
0.0263558
0.0553201
0.0257837
0.0274777
0.0243639
0.0493343
0.0615202
0.0297319
0.0287046
0.0310337
0.0305257
0.0310896
0.031277
0.029562
0.0305214
0.0262695
0.028093
0.022239
0.0243841
0.020785
0.0213334
0.0234153
0.0215537
0.0316668
0.0270275
0.0237967
0.0223808
0.0654697
0.0644588
0.0628332
0.0649403
0.0563528
0.0598353
0.0493682
0.0526578
0.0438832
0.0464718
0.0394043
0.0414217
0.0354232
0.0373949
0.0316114
0.0335395
0.0271326
0.0294849
0.0224976
0.0247907
0.0244877
0.0245433
0.0563795
0.0204209
0.0431749
0.0494363
0.0307622
0.0367404
0.0234121
0.0226625
0.0243721
0.0559284
0.0556255
0.0265114
0.0252376
0.0284712
0.027477
0.0295475
0.0291169
0.0293761
0.0296509
0.0273139
0.0286549
0.0232422
0.0255814
0.0176875
0.0205599
0.013074
0.0152144
0.0130049
0.0127277
0.0197663
0.0159565
0.024663
0.0204576
0.018315
0.0596039
0.046611
0.0429145
0.0527222
0.0658904
0.0635225
0.065941
0.0667106
0.0611981
0.064014
0.0546775
0.0578109
0.0479059
0.0513197
0.0418604
0.0447972
0.0362232
0.0389526
0.0311234
0.033685
0.0257176
0.0285287
0.022957
0.0220702
0.0228424
0.018484
0.0205359
0.0538248
0.0433321
0.0396974
0.0429069
0.0453454
0.0230035
0.0164332
0.048279
0.045926
0.0376904
0.029354
0.0234811
0.033923
0.0409109
0.0507366
0.0449877
0.0554297
0.0600225
0.072733
0.0250314
0.0240432
0.0267431
0.0258346
0.0277247
0.0273218
0.0275038
0.0277747
0.0253957
0.0267139
0.0209773
0.0234585
0.0147091
0.0180741
0.00821659
0.0113118
0.00555725
0.00628872
0.00978787
0.00701662
0.0222756
0.0156388
0.0384128
0.0294394
0.0506617
0.0549123
0.0477063
0.0630832
0.0597123
0.0647304
0.0644578
0.0617782
0.0637735
0.0566562
0.0593177
0.0498697
0.0533926
0.0430074
0.0464122
0.0364344
0.0396904
0.0301941
0.0333103
0.0241933
0.0271877
0.0185614
0.021153
0.0146192
0.0164164
0.0213529
0.0203485
0.0204017
0.0212701
0.0167403
0.0188136
0.0130938
0.0147234
0.0479663
0.0115289
0.00521573
0.0133811
0.0121754
0.0371431
0.0402607
0.0578771
0.0618519
0.0178318
0.0371813
0.0446289
0.0606583
0.0212482
0.0201035
0.0233142
0.0223589
0.0248579
0.0241078
0.0257518
0.0253913
0.0255427
0.0257988
0.0236002
0.0248081
0.0194064
0.0217692
0.0130963
0.0164816
0.00584489
0.00943056
0.00114541
0.00296569
0.00322274
0.00123429
0.0144625
0.00818154
0.033121
0.0227977
0.0456384
-0.0008697
-0.0464837
-0.0497751
-0.0235197
0.0306541
0.0170306
0.0484682
0.040961
0.0575484
0.05383
0.0604576
0.0595408
0.0591645
0.0602194
0.0549635
0.0573341
0.049204
0.0522648
0.0424276
0.04587
0.0355154
0.0389714
0.0287876
0.0321275
0.0226505
0.0255755
0.0170923
0.0196657
0.0149645
0.0186502
0.0200508
0.0195954
0.0188473
0.0198624
0.0151218
0.0171451
0.0117534
0.0132181
0.010943
0.03898
0.0174491
0.0172749
-0.0813878
0.0178788
0.0227557
0.0313961
-0.00377643
0.0308561
0.00999777
-0.0393377
0.043422
-0.0697209
0.0656703
0.0162408
0.0108652
0.0196131
0.0186576
0.0214866
0.0206047
0.0229497
0.022285
0.0237688
0.0234373
0.0236144
0.0238279
0.0219594
0.0229888
0.0183301
0.0203889
0.0126212
0.0157028
0.0056529
0.0091786
7.7205e-05
0.00249674
6.64651e-05
-0.000825564
0.00901002
0.00357974
0.0277676
0.0178057
0.0525514
0.0401076
0.07763
0.0644684
-0.0493645
-0.08178
-0.00581796
-0.0256912
0.0235531
0.0105237
0.0410993
0.0334995
0.0505923
0.0470446
0.0545378
0.0530468
0.0545099
0.0549225
0.0515363
0.0533029
0.0466269
0.0492791
0.0404274
0.0436231
0.0337701
0.0371076
0.0272341
0.0304301
0.0212149
0.0240925
0.0162439
0.0186594
0.0127476
0.0143107
0.0118104
0.0806454
0.0857865
0.0179135
0.0153765
0.0166238
0.0188456
0.0185816
0.0173209
0.0184648
0.013663
0.0155802
0.0106557
0.0119369
0.00996149
0.027066
0.00420685
0.0195459
0.00916113
0.0106738
0.00950767
-0.0301501
0.0225277
-0.0688288
0.0405198
-0.101342
0.0762696
-0.119857
0.0919443
0.0928943
0.0145025
0.0146166
0.0584062
0.01675
0.0158313
0.018166
0.0173349
0.0197252
0.0189447
0.0210878
0.0205
0.0218528
0.0215398
0.0217723
0.0219311
0.0204345
0.02127
0.0174834
0.0191601
0.0127832
0.015326
0.00690481
0.00990775
0.00177366
0.0040937
0.000739108
0.000565656
0.00751428
0.00307145
0.0234706
0.0145022
0.0446913
0.0337499
0.0666629
0.0562297
0.0786242
0.0743297
0.0963297
0.0823395
0.0817421
-0.04824
-0.110655
-0.0770188
-0.00972826
-0.0264886
0.0166547
0.00440321
0.0336647
0.0264058
0.043324
0.0391957
0.0478944
0.0460626
0.0488353
0.0487297
0.04696
0.0481888
0.043012
0.045185
0.0376712
0.0404595
0.0316769
0.0347041
0.0256917
0.0286441
0.0202691
0.0228823
0.015857
0.0179417
0.0127965
0.0141915
0.0116196
0.0167839
0.0157159
0.0175887
0.0174257
0.0158908
0.0170998
0.0124089
0.0141724
0.00978792
0.0108786
0.00922402
0.0113125
0.0135872
0.0106491
0.00976519
-0.0194789
0.00521922
-0.060371
0.0123571
-0.102252
0.0382035
-0.131488
-0.147414
-0.163201
0.0745247
0.0941031
0.0959175
0.0740831
0.055616
0.0427806
0.0453682
0.0153618
0.0145369
0.01669
0.0159793
0.0181091
0.0173904
0.0193157
0.0187552
0.020038
0.0197404
0.0200373
0.0201378
0.0190038
0.0196558
0.0166878
0.0180037
0.0130271
0.0150023
0.0084997
0.0108068
0.004553
0.00634071
0.0036875
0.00360227
0.00886077
0.0054192
0.0214184
0.0145194
0.0380348
0.0297497
0.0561575
0.047789
0.0627714
0.0613389
0.0617353
-0.0999532
-0.186909
-0.164706
-0.131341
-0.0475508
-0.0719209
-0.0134252
-0.0282809
0.010216
-0.000814938
0.0267191
0.019542
0.0362081
0.0320289
0.0412496
0.0391644
0.042918
0.0424162
0.0419547
0.0427144
0.0389674
0.0406523
0.0346004
0.0369066
0.0294943
0.0320904
0.0242988
0.0268719
0.0195629
0.0218551
0.0156916
0.0175301
0.0127905
0.0140804
0.0117523
0.0139192
0.0120563
0.0129812
0.0157242
0.0148531
0.0163794
0.0162512
0.0145535
0.0157856
0.0113423
0.0129376
0.0091659
0.0100376
0.00867403
0.00873356
0.00915701
0.0088605
-0.00802589
-0.0470322
-0.0117151
-0.0933448
0.00141704
0.00870655
0.00923725
0.00867704
-0.137768
-0.175401
-0.206398
-0.197964
-0.22548
0.0376114
0.0727163
0.0936261
0.0879878
0.062835
0.0112457
0.0276477
0.0267629
0.00928269
0.0113794
0.0105737
0.0125754
0.0118758
0.0140202
0.0133087
0.015273
0.0146765
0.0165697
0.0159348
0.0176401
0.017139
0.0183146
0.0180349
0.0183803
0.0184309
0.0176139
0.0181045
0.0158527
0.016853
0.0131038
0.0145804
0.00979207
0.0114663
0.00703984
0.0082618
0.00668668
0.00646922
0.0108345
0.00813674
0.020567
0.0151281
0.0331618
0.0266854
0.0453938
0.039946
0.0489883
0.0490234
0.0391532
0.0452809
0.0121225
0.0279314
-0.144176
-0.229282
-0.197127
-0.171228
-0.0907304
-0.116867
-0.0468984
-0.0673248
-0.0164966
-0.0302914
0.00483842
-0.0051205
0.0201962
0.0132432
0.0295834
0.0254378
0.0349057
0.0326418
0.0371229
0.0363236
0.0369163
0.0372644
0.0348179
0.0360513
0.031401
0.0332267
0.0272252
0.0293647
0.0228676
0.0250363
0.0188149
0.0207867
0.015443
0.0170149
0.0127939
0.0140322
0.010706
0.0117028
0.00988732
0.0131961
0.0123134
0.0147773
0.0140202
0.0152131
0.015183
0.0133494
0.0145463
0.0104323
0.0118884
0.00869801
0.00938124
0.00833248
0.00836965
0.00840688
-0.0308417
-0.00610859
-0.00673507
-0.0222464
-0.0775082
-0.0304613
0.00822387
0.00816624
-0.129376
-0.177272
-0.21783
-0.247834
-0.260574
-0.220107
-0.256045
0.0321654
0.0698793
0.0863491
0.0745867
0.0425546
0.00335878
0.0107482
0.00990649
0.010408
0.00851822
0.00912673
0.00988458
-0.0100894
0.0115612
0.0109812
0.0127233
0.0121601
0.0139664
0.0133655
0.0151108
0.0145527
0.0160652
0.0156194
0.0166833
0.0164236
0.0167946
0.0168077
0.0162401
0.0166018
0.0149261
0.015672
0.0129126
0.0139875
0.0105807
0.0117459
0.00878769
0.00955712
0.00885302
0.00852315
0.0122218
0.0100948
0.0193091
0.0154083
0.0282168
0.0237214
0.0355329
0.0323851
0.0361623
0.0374779
0.024252
0.0323373
-0.000142504
0.0135961
-0.0291181
-0.0324273
-0.0150196
-0.169757
-0.238454
-0.202967
-0.187944
-0.126912
-0.149164
-0.0831118
-0.104244
-0.0464835
-0.0637241
-0.0194595
-0.0320964
7.67514e-05
-0.00905042
0.0143016
0.00777931
0.0235224
0.0194171
0.029002
0.0266249
0.0316411
0.0306065
0.0320542
0.0320685
0.0307274
0.0315607
0.0281597
0.0295542
0.0248463
0.0265598
0.0212742
0.0230648
0.0178727
0.0195351
0.0148901
0.0163279
0.0125128
0.0136053
0.0105935
0.0114977
0.00978995
0.0124151
0.0116173
0.0138892
0.013196
0.0141149
0.0142078
0.01231
0.0134105
0.00974594
0.0109257
0.00838831
0.0088824
0.008131
0.0081812
0.00815892
-0.0563832
0.00799103
-0.110562
-0.167011
-0.218253
-0.259707
-0.284023
-0.289303
0.0258409
0.0633602
0.0739564
0.0536419
-0.276131
-0.212699
-0.250123
0.0170756
-0.0238166
-0.0580502
0.00909262
-0.0503595
-0.0549978
-0.0206188
0.00671714
0.00954742
0.00910864
0.0105657
0.0100458
0.0115784
0.0111034
0.0127057
0.0121574
0.0137277
0.0132357
0.0145737
0.0141795
0.0151284
0.0148933
0.0152608
0.0152511
0.0148593
0.0151265
0.0138775
0.0144342
0.0124035
0.0131847
0.0107745
0.0115765
0.00964551
0.010106
0.0099262
0.00956871
0.0125378
0.0109313
0.0175086
0.0148195
0.0232534
0.0204243
0.0269185
0.0255307
0.0249616
0.026836
0.0124076
0.0203515
-0.00929569
0.0023931
-0.0413876
-0.0232299
-0.0889452
-0.0875927
-0.0629239
-0.173137
-0.216946
-0.185242
-0.181137
-0.147595
-0.16173
-0.111886
-0.130982
-0.0766593
-0.0945535
-0.0460175
-0.0606348
-0.0220597
-0.0334204
-0.00413718
-0.0124956
0.0090536
0.00295759
0.0180166
0.0139822
0.023575
0.0211283
0.0265393
0.025318
0.0274521
0.0272004
0.0267772
0.0272697
0.0249427
0.0259657
0.0223832
0.023721
0.0195106
0.0209614
0.0166769
0.0180756
0.014142
0.015362
0.0119596
0.0130206
0.0102479
0.0110387
0.00885004
0.00947406
0.00775752
0.00820664
0.0100707
0.00917479
0.0116197
0.0108825
0.0129616
0.0123703
0.0131245
0.0132439
0.0113555
0.0123711
0.00922261
0.0102126
0.00815202
0.00853308
0.00792827
0.00798704
0.00784573
0.00790323
0.00748213
0.0077164
0.00712862
-0.0837906
-0.144478
-0.204207
-0.256939
-0.294052
-0.311527
0.0179921
0.0523553
0.0533493
-0.308479
-0.287307
-0.253656
0.0266178
-0.0140581
-0.0544456
-0.185751
-0.216467
-0.0895938
-0.114289
-0.120395
0.00615792
0.0069978
0.00752313
0.00628648
-0.0707295
0.00673032
-0.0280593
0.00861867
0.00818686
0.00958991
0.00914397
0.0105353
0.0100762
0.0115096
0.0110335
0.0124109
0.0119788
0.0131502
0.0128065
0.0136346
0.0134288
0.0137644
0.0137462
0.0134626
0.0136663
0.0127127
0.0131371
0.0116103
0.0121909
0.0104376
0.0110085
0.00968688
0.00998064
0.0099771
0.00967782
0.0118338
0.0107147
0.0150635
0.0133473
0.0183473
0.0168132
0.0193783
0.0192722
0.0153517
0.0181414
0.0029295
0.0101819
-0.0167372
-0.0060139
-0.0465036
-0.0299714
-0.0862764
-0.0655066
-0.140656
-0.129543
-0.108033
-0.159901
-0.182682
-0.158798
-0.16049
-0.150092
-0.156171
-0.129154
-0.141566
-0.100411
-0.115375
-0.0713387
-0.0858271
-0.0453949
-0.0578469
-0.0241566
-0.0342811
-0.00777654
-0.0154297
0.00444409
-0.00123689
0.0130585
0.0091395
0.0186277
0.0161464
0.0218301
0.0204675
0.0231509
0.0226788
0.0230135
0.0232241
0.0218024
0.0225075
0.0198862
0.0209021
0.0176213
0.0187744
0.0153045
0.0164542
0.0131493
0.0141974
0.0112656
0.012162
0.00969653
0.0104208
0.00839186
0.00897991
0.00738835
0.00775261
0.006876
0.00931197
0.00841599
0.0108343
0.0101234
0.0120529
0.0115195
0.0121305
0.0122898
0.010584
0.0114913
0.00882071
0.00962462
0.00796595
0.00827559
0.0077288
0.00781652
0.0075066
0.00764107
0.00699513
0.0072854
0.00662855
-0.111661
-0.176922
-0.238548
-0.288382
-0.319548
0.00727227
0.0340341
-0.328652
-0.317411
-0.28882
0.0256085
-0.0074791
-0.0503031
-0.249776
-0.0902284
-0.210781
-0.126975
-0.154689
-0.175948
-0.153155
-0.14996
-0.166331
0.00571472
0.00643766
0.0068652
0.00600581
-0.0919272
0.00660978
0.00717308
0.0058416
-0.0418369
0.00777341
0.00731085
0.00864887
0.00827948
0.00952677
0.00910171
0.0103725
0.00996117
0.0111502
0.0107774
0.0117815
0.0114891
0.0121878
0.0120162
0.0122928
0.0122793
0.0120441
0.0122109
0.0114423
0.0117813
0.0105793
0.0110314
0.00968052
0.0101165
0.00910156
0.00933179
0.00924871
0.00907148
0.0103822
0.00970494
0.0121819
0.0112548
0.0135395
0.0130027
0.0126619
0.0134764
0.00725279
0.0106293
-0.00467446
0.00202384
-0.0231051
-0.0130171
-0.0493817
-0.03514
-0.0838059
-0.0661724
-0.119204
-0.101672
-0.168581
-0.150527
-0.135602
-0.140179
-0.149142
-0.133387
-0.137166
-0.140456
-0.141316
-0.132085
-0.138008
-0.113991
-0.124501
-0.0910151
-0.103193
-0.0668093
-0.0788138
-0.0445943
-0.0553676
-0.0258223
-0.0347828
-0.01094
-0.0179389
0.000386065
-0.00490449
0.00860612
0.00483176
0.0141315
0.0116432
0.0175034
0.0160351
0.0191548
0.0185021
0.0194604
0.019439
0.018769
0.0192081
0.017403
0.0181442
0.0156625
0.016559
0.0138062
0.0147344
0.0120107
0.0128946
0.0103949
0.0111816
0.00898907
0.00965278
0.00776301
0.00838852
0.00668065
0.00728407
0.00638974
0.00861118
0.00784512
0.0100719
0.00937504
0.0111784
0.0107032
0.0112338
0.0113815
0.00992128
0.0106896
0.00850151
0.00913937
0.00780444
0.00806985
0.00751767
0.00764605
0.00718557
0.00737184
0.00665888
0.00695364
0.00632387
-0.138199
0.00605362
-0.205728
-0.266201
-0.31114
-0.00860757
-0.334135
-0.334679
-0.315729
0.00734777
-0.0110431
-0.0490499
-0.281816
-0.0935202
-0.240097
-0.134105
-0.201118
-0.166359
-0.168062
-0.18429
-0.129177
-0.143022
-0.189687
-0.164078
-0.184457
0.0052015
0.00563942
-0.105304
0.00501925
0.00550597
-0.0539841
0.00620661
0.00546291
0.00582724
0.00695799
0.0065905
0.0077595
0.00739913
0.00854999
0.00817251
0.00927974
0.00892569
0.00993591
0.00962217
0.0104572
0.0102173
0.0107775
0.0106448
0.0108382
0.0108409
0.0106034
0.0107558
0.0100822
0.0103732
0.00935542
0.00973489
0.0085973
0.00896732
0.00805588
0.0082872
0.00798084
0.00795458
0.00846063
0.00816702
0.00912262
0.0088147
0.00902144
0.00923214
0.00676173
0.00823326
0.000543149
0.00421409
-0.0109255
-0.00458204
-0.0278732
-0.0187524
-0.0510561
-0.038691
-0.0800985
-0.0652771
-0.109859
-0.0952409
-0.135216
-0.123161
-0.175189
-0.157312
-0.146686
-0.163644
-0.120808
-0.124741
-0.113757
-0.117435
-0.125257
-0.123387
-0.125161
-0.126494
-0.117109
-0.122702
-0.102273
-0.110361
-0.0833037
-0.0931829
-0.062935
-0.0730843
-0.0437697
-0.0531226
-0.0271823
-0.0351353
-0.0136861
-0.0200766
-0.00318899
-0.00811454
0.00461831
0.00100554
0.0100535
0.00758214
0.0135387
0.0119944
0.0154518
0.0146541
0.0161241
0.0159098
0.0158665
0.0160833
0.0149668
0.0154733
0.0136809
0.0143548
0.0122366
0.0129637
0.0107725
0.0114956
0.0094198
0.0100825
0.00818817
0.00878776
0.00713286
0.00764514
0.00618568
0.00662904
0.00581237
0.00571767
0.00683907
0.00627873
0.00805692
0.00741239
0.00936422
0.00872873
0.0103567
0.00993411
0.010417
0.0105376
0.00934764
0.00997016
0.00823306
0.00873018
0.00764923
0.00788887
0.00729409
0.00746784
0.0068862
0.00710227
0.00636038
0.0066416
0.00602502
-0.160389
0.00515316
0.00460525
-0.228989
-0.28623
-0.0681222
-0.323707
-0.337844
-0.330014
-0.0316979
-0.029293
-0.0561437
-0.304873
-0.0989232
-0.267869
-0.143969
-0.226195
-0.181515
-0.18829
-0.205627
-0.158956
-0.214029
-0.136978
-0.209931
-0.110764
-0.12085
-0.197019
-0.180883
-0.157338
-0.143061
-0.143482
0.00463649
0.00492597
-0.119277
-0.104892
-0.102081
0.00557143
0.00523229
0.0062622
0.00592151
0.00693626
0.00660339
0.00760342
0.00727646
0.00822129
0.00792154
0.00875902
0.00850316
0.00916848
0.00898235
0.00939609
0.00930655
0.00939601
0.00942453
0.00914357
0.0092993
0.00865104
0.00892269
0.00798479
0.00833211
0.00727388
0.00762576
0.00668382
0.00695629
0.00635258
0.00648506
0.00626126
0.00629265
0.00603094
0.00620066
0.00485904
0.00561162
0.00163323
0.00355615
-0.00500667
-0.00122219
-0.0159514
-0.00996945
-0.0314891
-0.0231732
-0.0518703
-0.0411682
-0.0760833
-0.0638247
-0.101365
-0.0889463
-0.122663
-0.112801
-0.137591
-0.131366
-0.140451
-0.110272
-0.107702
-0.113246
-0.112198
-0.112543
-0.113921
-0.105119
-0.10956
-0.0927962
-0.099433
-0.0769124
-0.0851635
-0.0595857
-0.0682664
-0.0429713
-0.0511132
-0.0282865
-0.0353654
-0.0160562
-0.0218806
-0.00633935
-0.01092
0.00105034
-0.00239187
0.00635749
0.00392339
0.0099078
0.00831292
0.0120244
0.0111116
0.0129989
0.0126247
0.0131065
0.0131356
0.0126002
0.0129092
0.0117041
0.0121833
0.0106023
0.0111698
0.00946407
0.0100379
0.00835519
0.00890626
0.00729924
0.00783243
0.00637002
0.0068678
0.00559554
0.0060057
0.00484373
0.0052494
0.00419969
0.00449132
0.0043786
0.00540428
0.00487609
0.00649528
0.00594964
0.00759488
0.00702983
0.0087175
0.00816849
0.00958613
0.00921343
0.00967201
0.00975498
0.00884457
0.00932656
0.00799149
0.00837255
0.00748654
0.00771263
0.00706274
0.0072788
0.00658274
0.00683016
0.00601968
0.0063179
0.00521808
0.00565019
0.00428684
0.00479839
0.00389659
-0.178963
-0.10864
-0.0999174
-0.246233
-0.132947
-0.297498
-0.326271
-0.331147
-0.0641085
-0.0753731
-0.315755
-0.110584
-0.286077
-0.156863
-0.248427
-0.199925
-0.20925
-0.230645
-0.175495
-0.243454
-0.150097
-0.240679
-0.131717
-0.226142
-0.118138
-0.181661
-0.205943
0.00387956
0.0041394
0.00365244
0.00318265
-0.107691
-0.156928
-0.138222
-0.0985328
0.00438736
0.00411734
0.00496488
0.00466775
0.00555836
0.00525792
0.00613166
0.0058453
0.00668563
0.00641283
0.00719043
0.00694606
0.00761148
0.00741324
0.00790818
0.00777697
0.00803739
0.0079946
0.00796336
0.00802543
0.00766879
0.00784167
0.00716589
0.00743948
0.00650652
0.00684999
0.00578189
0.00614607
0.00509505
0.00542966
0.00450553
0.00479018
0.00392922
0.00423037
0.00300494
0.0035401
0.00106188
0.00219782
-0.00279734
-0.000589224
-0.00959057
-0.00580738
-0.0199544
-0.0143474
-0.0341179
-0.0265891
-0.052054
-0.0426929
-0.0725352
-0.0622351
-0.0935099
-0.0833551
-0.112125
-0.103683
-0.12219
-0.118504
-0.126769
-0.124539
-0.129599
-0.0914132
-0.0841723
-0.0879176
-0.0968721
-0.0943353
-0.101178
-0.0992015
-0.103334
-0.102698
-0.101714
-0.103062
-0.0953662
-0.099046
-0.084944
-0.0905725
-0.0714642
-0.0784631
-0.0566476
-0.0640978
-0.0422047
-0.0493105
-0.029183
-0.0354921
-0.0181067
-0.0234079
-0.00912467
-0.013379
-0.00214788
-0.00541674
0.00300331
0.000622428
0.00657914
0.00495446
0.00885088
0.00784809
0.0100734
0.00956676
0.0104887
0.010359
0.0103196
0.0104583
0.00976402
0.0100748
0.00898739
0.00939316
0.00812289
0.00856093
0.00724445
0.00768281
0.00640242
0.00681486
0.00563603
0.00601471
0.00495296
0.00527807
0.0042457
0.00458195
0.00370221
0.00396252
0.00343046
0.00511119
0.00461544
0.00613093
0.00562107
0.00713363
0.00662872
0.0081053
0.00763439
0.00885928
0.00853097
0.00898824
0.00902478
0.00839272
0.0087444
0.00775925
0.00804661
0.00730656
0.00752743
0.00681794
0.00707305
0.00625598
0.00654364
0.00562485
0.0059536
0.00481752
0.00524619
0.0039952
0.0044427
0.00360782
-0.193996
-0.257259
-0.300637
0.00249708
-0.0966122
-0.0867689
-0.319677
-0.10623
-0.315526
-0.13083
-0.293859
-0.173485
-0.262164
-0.221091
-0.225911
-0.259089
-0.0866219
-0.191389
-0.278393
-0.094478
-0.163045
-0.277704
-0.106055
-0.136049
-0.157623
-0.142496
-0.26249
-0.116402
-0.182051
-0.127827
-0.237178
-0.132867
0.00273341
-0.112931
-0.116549
0.00341257
0.00291179
-0.147624
-0.0785629
-0.112349
0.00315085
0.00390465
0.00345014
0.00385128
0.00361158
0.00436634
0.00412949
0.00486152
0.00460936
0.00534326
0.00510475
0.0057905
0.00557163
0.00618197
0.00599429
0.00648684
0.00634648
0.0066701
0.00659468
0.00669672
0.0067034
0.00653879
0.00664024
0.00618389
0.0063841
0.00564248
0.00593325
0.00495303
0.0053119
0.00417643
0.00457142
0.00336983
0.00377503
0.00253989
0.00296135
0.00156592
0.0020841
0.0001138
0.000922849
-0.00237193
-0.000972092
-0.00661018
-0.00424441
-0.01336
-0.00966177
-0.0230823
-0.0178678
-0.0359108
-0.0291405
-0.0516414
-0.0434791
-0.0691585
-0.0603246
-0.0867349
-0.0780611
-0.102245
-0.0950145
-0.110308
-0.107383
-0.1166
-0.113275
-0.118607
-0.0834883
-0.0804144
-0.0892888
-0.0866754
-0.0927212
-0.0916187
-0.0945223
-0.0941631
-0.092665
-0.0939637
-0.0872599
-0.0903846
-0.0783357
-0.0831593
-0.0668295
-0.0728012
-0.0541109
-0.0605259
-0.0415081
-0.0477343
-0.0299325
-0.0355664
-0.0198967
-0.0247219
-0.0115998
-0.0155478
-0.00502496
-0.00812175
-4.86291e-05
-0.0023646
0.00352083
0.00188331
0.00590767
0.00483568
0.0073326
0.00671675
0.00800771
0.00774329
0.0081292
0.00812054
0.00787158
0.00803417
0.00738042
0.00764542
0.00676954
0.00708405
0.00611208
0.00644335
0.00546069
0.00578407
0.00484447
0.00515004
0.00423269
0.00454972
0.0036602
0.00396123
0.00317208
0.00342338
0.00292655
0.00481227
0.00435443
0.00574453
0.00527979
0.00665575
0.00620079
0.00750715
0.00709876
0.00816898
0.00787537
0.00835373
0.00833908
0.00797418
0.00820777
0.00752308
0.00773565
0.00710247
0.00732412
0.00655401
0.00684437
0.00591662
0.00624124
0.0052334
0.0055825
0.00446934
0.00485568
0.00370877
0.00411702
0.0033295
-0.206095
-0.263211
-0.210064
0.00225843
0.00264954
-0.296994
-0.146189
-0.305627
-0.158041
-0.293062
-0.194911
-0.266859
-0.24371
-0.234768
-0.289468
-0.0750119
-0.0830546
-0.202997
-0.317887
-0.0932692
-0.109748
-0.129689
-0.174327
-0.322282
-0.103937
-0.15536
-0.152457
-0.306682
-0.114942
-0.181514
-0.136909
-0.277841
-0.165537
-0.125303
-0.0696472
-0.067181
-0.0620899
0.00296714
0.00295356
0.00274836
0.00335039
0.00314761
0.00377179
0.0035669
0.00418045
0.00397917
0.00456828
0.00437926
0.00491173
0.00474661
0.00519091
0.0050603
0.0053799
0.00529761
0.00544919
0.00543014
0.00537031
0.00542836
0.00512146
0.0052664
0.00469356
0.00492819
0.00409468
0.00441282
0.0033516
0.00373792
0.00250156
0.00293726
0.00156851
0.00204501
0.000524921
0.00106471
-0.000766211
-7.82203e-05
-0.00260703
-0.00159969
-0.00545784
-0.00388558
-0.00988903
-0.00745734
-0.0164638
-0.0129054
-0.0255106
-0.0206952
-0.0370765
-0.0310124
-0.0508378
-0.0437452
-0.0657859
-0.0582605
-0.080437
-0.0732326
-0.0929296
-0.0871056
-0.0998883
-0.0972829
-0.104777
-0.102439
-0.101879
-0.104571
-0.0940867
-0.0981621
-0.106308
-0.0725496
-0.0705454
-0.0768187
-0.0744315
-0.082458
-0.0796404
-0.0856189
-0.0841751
-0.0867823
-0.0865111
-0.0850953
-0.0862607
-0.0804188
-0.0831156
-0.0727517
-0.0768912
-0.0628945
-0.0680123
-0.0519193
-0.0574711
-0.0408763
-0.0463527
-0.0305638
-0.0356028
-0.0214666
-0.025859
-0.0138086
-0.0174685
-0.00762374
-0.0105511
-0.00283515
-0.00507764
0.000702062
-0.000934363
0.00317076
0.00204686
0.00476026
0.00405444
0.00565544
0.00527623
0.00602876
0.0058919
0.00603355
0.00606493
0.00579789
0.00593669
0.00542121
0.00562115
0.00497283
0.00520213
0.00449979
0.0047376
0.00402386
0.00426208
0.00354173
0.00378145
0.0030813
0.00331059
0.00263294
0.00286237
0.00222881
0.00242402
0.00284164
0.00366127
0.00323997
0.004511
0.00408573
0.00535906
0.00493616
0.0061791
0.00577242
0.0069232
0.00656824
0.00751233
0.00724472
0.00775821
0.00769222
0.00757375
0.00770276
0.00727338
0.00742627
0.0068714
0.0070973
0.00627163
0.00659113
0.00557954
0.00592927
0.00487516
0.00522829
0.00415449
0.00451347
0.00342053
0.00381306
0.00304431
-0.217111
-0.211726
0.00249097
0.00187925
-0.265773
-0.188597
-0.244185
-0.288483
-0.188836
-0.286345
-0.218512
-0.266354
-0.26614
-0.0561165
-0.0636684
-0.0809884
-0.237286
-0.3183
-0.0782664
-0.0986945
-0.207376
-0.358172
-0.0915102
-0.124328
-0.18125
-0.37248
-0.102402
-0.151
-0.160292
-0.35942
-0.113866
-0.179239
-0.144871
-0.32856
-0.124093
-0.210679
-0.133803
-0.0493039
-0.0497131
0.00213566
0.00182341
-0.0429664
0.00250415
0.00239785
0.00284526
0.00267552
0.0031876
0.0030215
0.00351397
0.00335757
0.00380574
0.0036665
0.00404533
0.00393353
0.00421291
0.00413899
0.00428632
0.00426202
0.00424135
0.00427895
0.00405518
0.00416575
0.0037109
0.00390196
0.00320184
0.00347541
0.00253371
0.00288547
0.00172366
0.00214403
0.000790958
0.00127102
-0.000263823
0.000279344
-0.00148952
-0.000851018
-0.00302685
-0.00220952
-0.00514318
-0.00399847
-0.00821987
-0.00654632
-0.0127071
-0.0102754
-0.01902
-0.0156364
-0.027383
-0.0229621
-0.0377731
-0.0323578
-0.0498106
-0.0436432
-0.0626019
-0.0561869
-0.074861
-0.0688794
-0.0848393
-0.0802362
-0.0909814
-0.0883394
-0.0937101
-0.0930759
-0.0898695
-0.0923511
-0.084049
-0.0870911
-0.0601228
-0.0554386
-0.0665317
-0.0638889
-0.0710374
-0.0687426
-0.0757282
-0.0734806
-0.0791907
-0.0778728
-0.0800612
-0.0798643
-0.0786292
-0.0796307
-0.0745814
-0.0769113
-0.0680017
-0.0715513
-0.0595299
-0.0639341
-0.0500141
-0.0548404
-0.040309
-0.0451382
-0.0311076
-0.0356201
-0.0228583
-0.026857
-0.0157945
-0.0191845
-0.00998553
-0.0127476
-0.00539207
-0.00755542
-0.00190724
-0.00353151
0.000616278
-0.000545425
0.00233925
0.00155929
0.00342185
0.00294417
0.00401496
0.00376572
0.00425292
0.00416721
0.00424808
0.00427248
0.00408787
0.00418154
0.00383514
0.00396916
0.00353101
0.00368729
0.00319613
0.00336622
0.00284179
0.00301941
0.00248272
0.00266268
0.00211874
0.00229846
0.0017399
0.00191559
0.00157453
0.00122541
0.00147263
0.0020388
0.00270801
0.00238551
0.00342853
0.00305222
0.00420217
0.00381462
0.00498172
0.00459421
0.00571733
0.00535619
0.00636282
0.00605587
0.00689033
0.00664402
0.00719392
0.00708091
0.00717993
0.00721857
0.00700425
0.00710887
0.00661437
0.00684505
0.00597509
0.00631624
0.00524906
0.00561293
0.00454086
0.00489146
0.00383857
0.00418979
0.00312421
0.00349701
0.0023733
0.00276123
0.00198338
-0.229038
-0.286919
0.00168432
-0.267064
-0.218075
-0.247318
0.00187506
0.00154509
0.00137048
0.00103254
-0.276957
-0.239525
-0.0351425
-0.0416102
-0.264384
-0.285531
-0.0567979
-0.0607099
-0.0697421
-0.23813
-0.341411
-0.0730369
-0.0904599
-0.208079
-0.39288
-0.0887344
-0.115837
-0.181912
-0.422062
-0.101435
-0.144597
-0.16328
-0.419182
-0.113285
-0.174426
-0.149995
-0.388419
-0.124026
-0.207261
-0.140713
-0.341478
-0.132851
0.00183235
-0.026169
-0.0291975
-0.0208559
0.00149287
0.00208592
0.00199541
0.00234537
0.0022116
0.00261568
0.00248478
0.00285772
0.00274301
0.00305355
0.00296278
0.00318834
0.00312949
0.0032443
0.00322672
0.00320238
0.00323585
0.00304313
0.00313743
0.0027488
0.00291247
0.00230664
0.00254527
0.00171188
0.0020269
0.000968216
0.00135686
8.52241e-05
0.000542397
-0.000931082
-0.000407127
-0.00209599
-0.00149391
-0.00347048
-0.00275292
-0.00519159
-0.00427964
-0.00749235
-0.00625864
-0.0106869
-0.00896698
-0.0151286
-0.012745
-0.0211208
-0.0179346
-0.0288052
-0.0247682
-0.0381025
-0.0332835
-0.0486174
-0.0432576
-0.0595692
-0.0540998
-0.0698352
-0.0648623
-0.0778914
-0.074203
-0.0829626
-0.0807438
-0.0839655
-0.0842731
-0.0801837
-0.0828683
-0.0747688
-0.077866
-0.0616137
-0.0691132
-0.0497766
-0.0434467
-0.0531882
-0.0373022
-0.0315968
-0.0436444
-0.03698
-0.0537721
-0.0490549
-0.0603994
-0.0575395
-0.0657087
-0.0632524
-0.0700695
-0.0680938
-0.0732618
-0.0719002
-0.0741917
-0.0739646
-0.0730259
-0.0738613
-0.0695647
-0.0715591
-0.0639315
-0.0669723
-0.0566332
-0.0604344
-0.0483565
-0.0525647
-0.0398097
-0.0440758
-0.0315899
-0.0356349
-0.024107
-0.0277475
-0.0175953
-0.0207326
-0.012147
-0.0147489
-0.00775228
-0.00983293
-0.00433523
-0.00593868
-0.00177871
-0.00296677
5.23114e-05
-0.000788814
0.00129562
0.000732843
0.00208232
0.00173363
0.00252952
0.00233833
0.00273523
0.0026549
0.00277597
0.00277072
0.00270711
0.00275148
0.00256514
0.00264289
0.00237096
0.00247296
0.0021377
0.00225807
0.00187435
0.00200962
0.00156944
0.00173184
0.00124334
0.00143901
0.000877121
0.00105433
0.00250158
0.00217732
0.00318487
0.00283542
0.00389814
0.0035395
0.00461343
0.00425856
0.00527312
0.00495263
0.0058322
0.00556723
0.00630477
0.00607787
0.00665559
0.00650336
0.00678513
0.00674771
0.00671345
0.00677789
0.00633504
0.00656855
0.00566829
0.00602426
0.00492104
0.00529337
0.00421109
0.00456021
0.003521
0.00386583
0.00283234
0.00318605
0.00210942
0.00248485
0.0017322
-0.243747
-0.0128738
-0.016676
-0.245928
0.00140634
0.00117314
0.000689359
-0.268788
-0.254055
-0.0326415
-0.290804
0.00158434
0.00124491
-0.0134452
-0.0233006
-0.00828707
-0.00477175
0.000292534
-0.265092
-0.296382
0.00376636
-0.0119451
-0.00159547
-0.049698
-0.05797
-0.242128
-0.355431
-0.0671557
-0.0805095
-0.210802
-0.41573
-0.0842632
-0.105071
-0.181856
-0.461213
-0.0997755
-0.134878
-0.160984
-0.476201
-0.113017
-0.166287
-0.150246
-0.454608
-0.124635
-0.200995
-0.144773
-0.406062
-0.133709
-0.240831
-0.140089
-0.0149655
-0.00361654
0.00136848
0.00112226
0.00122732
0.0016282
0.00152705
0.00185589
0.00175712
0.0020519
0.00195582
0.00220858
0.00213557
0.00230841
0.00226566
0.0023379
0.00233209
0.00228194
0.00232069
0.00212477