/*--------------------------------*- C++ -*----------------------------------*\
  =========                 |
  \\      /  F ield         | OpenFOAM: The Open Source CFD Toolbox
   \\    /   O peration     | Website:  https://openfoam.org
    \\  /    A nd           | Version:  10
     \\/     M anipulation  |
\*---------------------------------------------------------------------------*/
FoamFile
{
    format      ascii;
    class       surfaceScalarField;
    location    "13";
    object      phi;
}
// * * * * * * * * * * * * * * * * * * * * * * * * * * * * * * * * * * * * * //

dimensions      [0 3 -1 0 0 0 0];

internalField   nonuniform List<scalar> 
17221
(
0.0831561
-0.0257393
-0.0690127
0.0115958
0.00132495
0.0758092
0.006022
0.0653642
-0.0195604
-0.0715431
0.0885752
-0.0119641
-0.0798967
0.00328562
0.0136907
0.0795231
-0.00463866
0.0760517
0.0173857
-0.0797467
-0.00142822
-0.00268431
0.0701474
-0.0660348
-0.00868242
-0.0679763
0.0752305
0.00199435
-0.0422942
0.00807916
0.0322207
-0.0423971
0.00850929
0.0358821
0.00183496
0.0439429
-0.0518781
0.00610019
-0.048924
0.0507589
0.015325
0.0398784
-0.0431606
-0.0120428
0.0348078
0.0128318
-0.0323145
0.0156963
0.030198
-0.00637344
-0.0395208
0.013989
-0.0176661
0.0193734
0.0107643
0.0639369
-0.0746006
-0.000100631
0.00381423
0.0556303
-0.0486803
-0.0467204
-0.0156496
0.0661842
-0.0288339
-0.0606126
0.07285
0.0165966
-0.0660894
0.00245137
0.0348042
0.0439767
0.045132
-0.0507436
-0.0383652
0.0999057
-0.0650997
0.00917072
-0.0295435
0.0112058
0.0837019
-0.111131
-0.0581602
0.0836429
0.0856482
-0.0470038
0.0299697
-0.0940967
0.0994617
-0.0954322
-0.0510334
0.0859195
-0.044618
-0.0265049
-0.0483503
0.0124396
0.0624156
-0.0121527
-0.0520777
0.0377255
-0.0573527
0.00293833
0.0422617
-0.0880398
0.0047994
0.0626188
0.0206216
0.0243219
-0.089987
-0.0223748
0.111018
0.0256846
-0.112381
0.0173117
0.098506
0.0665209
-0.000137134
-0.0190506
-0.0473332
0.0115525
0.0673118
-0.0123434
-0.0418531
0.0410185
0.0639672
-0.0631325
0.102442
-0.0792987
-0.0248445
0.0017007
0.0713081
-0.0107187
0.0348687
0.0938497
-0.0376819
0.0238235
0.00412573
-0.0102017
0.00607602
0.00322053
-0.0098964
0.0108016
0.089402
-0.0416857
-0.0477164
-0.0577652
0.0472404
0.0999268
0.00134546
-0.00320081
-0.00334303
0.00519837
-0.00153867
0.000552443
0.00233169
-0.00560872
0.00086925
0.0433967
0.0680787
-0.06583
-0.0456455
0.0540548
-0.0724097
0.0617517
-0.0323079
0.0466361
0.0397265
-0.0221521
0.0579229
-0.0856736
0.0145612
0.0703962
0.000716298
-0.0756295
-0.00737707
-0.00266705
-0.00777956
-0.0670661
-0.000783824
-0.0346141
-0.0124422
0.0381496
0.00890676
-0.0106577
-0.0364199
0.0124635
-0.0300613
0.0343371
0.00656881
-0.0108446
-0.00373642
-0.0387671
-0.0788042
-0.00619894
0.0730057
0.0119975
-0.00709251
-0.0775568
0.00584512
0.078285
-0.0122211
-0.0699557
0.00389181
-0.007432
0.0786245
0.00585232
-0.0587034
0.00348468
0.0493664
0.063773
-0.00106103
-0.0568596
0.0702932
-0.00920458
-0.0970622
0.00240501
0.0348178
0.0598394
-0.00264869
-0.103575
0.00916154
-0.00077396
0.0980309
-0.0160545
-0.0562492
0.0128605
0.0594432
-0.0632697
0.0605068
-0.0132916
0.0193408
-0.062501
-0.013089
-0.0590832
0.0140027
0.0644213
0.0148599
0.0597439
-0.0143267
-0.0602771
0.0585552
-0.0619151
0.0182199
-0.0154404
0.0610976
0.0140867
-0.0136709
0.0593657
-0.0611351
0.0250396
-0.0834826
-0.0712235
-0.00104396
-0.000314311
0.0725817
-0.077654
0.0132338
-0.00680325
-0.00408868
-0.0600449
0.00169369
0.0624399
-0.0592404
0.0621932
-0.00704145
0.0873386
-0.0732377
0.0109386
0.0903449
0.00615526
0.0731895
0.0102726
0.0486195
-0.0486984
-0.0101937
0.0431706
0.0111795
-0.0440775
0.0256759
0.0555119
-0.056626
-0.0245617
0.052892
0.0244399
-0.051656
0.0850749
-0.0528927
-0.0399617
0.0729644
0.00473336
-0.00226513
-0.000441815
-0.0643592
0.0273029
0.0768377
-0.0322216
-0.0719191
0.0224327
0.0751866
-0.0703164
-0.0485278
-0.0163167
0.0549289
0.00991557
-0.00550568
0.0386172
-0.0816393
0.0590582
0.00537283
-0.0699367
0.0445931
-0.00185159
-0.00861096
-0.0623983
0.071261
-0.000251693
-0.035571
0.081889
0.0670167
0.00549869
-0.00764449
-0.0648709
0.00731921
0.0686286
-0.0089311
0.0377047
0.00854861
-0.0114455
0.0392014
0.00652969
-0.00802638
0.0421418
0.0033669
-0.00630735
0.0435738
0.00152362
-0.00295561
0.0476341
-0.00413872
7.84225e-05
0.049393
-0.004149
0.0023901
0.0525901
-0.00784234
0.00464528
0.0543157
-0.00838612
0.00666051
0.0563947
-0.0096791
0.0076001
0.0567168
-0.00935281
0.0090307
0.0584043
-0.0103089
0.00862139
0.0595993
-0.0095638
0.0083688
0.0595639
-0.00995373
0.00998913
0.0598225
-0.00967924
0.00942066
-0.010108
0.0606481
0.00928246
0.063106
-0.0626171
-0.0105969
-0.0106293
0.0121941
-0.0100243
0.0633605
-0.0630267
-0.0102876
-0.00893584
0.0624993
-0.0621511
-0.0106572
-0.0100912
0.0603837
-0.0590262
-0.0110365
-0.0111202
0.0573821
-0.056262
-0.00896243
-0.0100302
0.0524096
-0.0507748
-0.00577351
-0.00800148
0.0461565
-0.0427853
-4.25688e-06
-0.00309468
0.039783
-0.0382344
0.00699992
0.00352741
0.00893451
-0.039686
0.0401168
-0.00845712
-0.0112531
-0.0412336
0.0426477
-0.00436972
-0.00742419
-0.0440922
0.0457043
0.000778008
-0.00136602
-0.0483839
0.0498548
0.00518962
0.00196561
-0.0514712
0.0527452
0.00775675
0.00598372
-0.0550086
0.0554315
0.00794591
0.00635794
-0.0559269
0.0569804
0.0083671
0.00949377
-0.0577107
0.059722
0.0101828
0.00855223
0.0593322
0.0143925
-0.00840681
-0.0384888
0.0431592
0.0151153
0.0621665
-0.0648465
-0.0115123
0.0638632
0.0105843
-0.0108051
-0.0386197
-0.00839681
0.0654258
-0.0667196
-0.0093031
-0.00944493
0.066825
-0.0664282
-0.0106843
-0.00883042
0.0663954
-0.0650949
-0.0119577
-0.010124
0.0655485
-0.0645245
-0.0120605
-0.0106666
0.0630549
-0.0609945
-0.0110228
-0.0114998
0.0593549
-0.0561029
-0.00902548
-0.00964107
0.0532783
-0.0495204
-0.00376211
-0.00591932
0.0459333
-0.0416309
0.00269753
-5.97738e-05
0.0377952
0.00692315
0.00509887
0.0123862
-0.0145749
0.0643552
0.0114194
0.06483
-0.0500674
0.0470677
-0.0090431
-0.00984468
-0.0451846
0.0452393
-0.00851185
-0.00937005
-0.0438574
0.0439262
-0.0044385
-0.00604233
-0.0449792
0.046419
-0.000661772
-0.00241896
-0.0468952
0.0486086
0.00347617
0.0014894
-0.0504637
0.0519891
0.00623125
0.00412867
-0.0521235
0.0523993
0.00767006
0.00622363
-0.0549463
0.0552058
0.00810756
0.0069468
-0.0561652
0.0588455
0.00750257
0.00759281
-0.0635427
0.0640954
0.0100316
0.00969523
0.028156
0.0427276
-0.0103767
0.0730243
-0.0381144
0.0115236
0.0639913
-0.0117511
0.00778839
-0.0324571
-0.0158138
-0.034557
-0.0365581
0.0404041
0.00861747
-0.0399634
0.0111937
0.0795694
-0.0490629
0.00169949
0.0704379
-0.0623417
0.00290208
-0.0131049
0.0120907
-0.0430633
-0.0488927
-0.0129105
0.0644574
-0.0675271
-0.00844262
-0.0111759
0.0693481
-0.0696395
-0.00901174
-0.00762389
0.0699989
-0.0698737
-0.0108095
-0.00847101
0.0700946
-0.0697127
-0.0123396
-0.00990313
0.0693815
-0.068147
-0.013295
-0.0109978
0.0682357
-0.0666034
-0.0126551
-0.0114112
0.0650842
-0.0627556
-0.0113541
-0.0111603
0.0604688
-0.0568438
-0.00738714
-0.00820607
0.0530301
-0.04893
-0.00140257
-0.00387342
0.0457311
-0.0425939
0.00378604
0.00189989
0.0067169
0.0629284
-0.0607367
0.00783985
0.0662461
0.0082059
-0.0514916
0.053506
-0.0122081
-0.015926
0.0160923
-0.0490591
0.0527142
-0.0156737
-0.0529665
-0.0116879
-0.0532093
0.0554198
-0.0112536
-0.00954793
-0.0536537
0.0519261
-0.00678421
-0.00760395
-0.0507291
0.0498431
-0.00355253
-0.00484537
-0.0491293
0.0489295
-0.000462012
-0.00170508
-0.0493694
0.0501652
0.00268039
0.00104947
-0.0509093
0.051942
0.00519853
0.00338458
-0.0530439
0.0539744
0.00673953
0.00512175
-0.0549465
0.0558228
0.00723124
0.00597475
-0.0574702
0.0583044
0.00666837
0.0059454
0.00726297
-0.00799234
0.00778255
0.064565
0.0667315
-0.00833438
0.00909268
0.063233
0.0642781
-0.0418375
0.00855067
-0.014143
-0.0268648
-0.0220787
-0.009334
0.0148879
-0.0160357
-0.0209309
-0.020261
0.0258149
-0.0623767
-0.0046769
0.0080873
0.0672515
0.0188278
-0.0457987
-0.0158347
-0.0328653
-0.0532719
0.0560419
-0.0184437
-0.0179386
0.0164697
-0.0514976
-0.0545011
-0.0167094
0.0181977
-0.0507871
-0.0176636
-0.0252368
-0.01368
-0.019957
0.0133759
-0.016355
-0.0182558
0.0100187
-0.0133094
-0.0166663
-0.0243412
0.0287696
0.00559034
-0.0113198
0.00096758
0.0697678
-0.0705932
-0.00761718
-0.00378487
0.0704358
-0.070855
-0.00859258
-0.00778125
0.0711237
-0.0714224
-0.0105108
-0.00820235
0.0716496
-0.0718488
-0.0121404
-0.00967595
0.0719197
-0.0718454
-0.0133693
-0.0109269
0.0715673
-0.0704228
-0.0137997
-0.0116892
0.0700549
-0.0685631
-0.012846
-0.0115281
0.0668159
-0.0642202
-0.00998284
-0.00995321
0.0614838
-0.0578064
-0.00507998
-0.00660985
0.0541588
-0.0514022
0.00102943
-0.00174769
0.0476188
-0.0448809
0.00587965
0.00293345
0.0422833
-0.0293851
0.0129168
0.00859606
0.0127604
-0.0585594
0.05927
-0.0129187
-0.0142055
-0.0607672
0.05963
-0.0101165
-0.0110451
-0.0589616
0.0582669
-0.00608955
-0.00693546
-0.0569525
0.0559414
-0.00254151
-0.00353092
-0.0551466
0.0544029
0.000281709
-0.000910279
-0.0541672
0.0541537
0.00269388
0.00128514
-0.054423
0.0550192
0.00460232
0.0031153
-0.055707
0.0566758
0.00577074
0.004434
-0.0576209
0.0588436
0.00600853
0.00502959
-0.0599631
0.0611675
0.00546389
0.00482598
-0.0639676
0.0672223
0.00458516
0.00446292
-0.0690752
0.0702493
0.00691319
0.00635296
-0.000447369
0.00250095
0.0683843
0.0719782
-0.00382767
0.00533267
0.06306
0.0654047
-0.00651181
0.00616235
0.0635824
0.063099
-0.007012
0.00581926
0.0714421
0.0664018
-0.0388444
-0.0208578
0.0222522
-0.019847
0.0758737
-0.0724324
0.00347193
0.0759161
0.00577688
0.0179915
-0.0455925
-0.0192336
-0.0312953
-0.0410314
0.0386744
0.00794732
0.00950757
-0.020341
0.0193952
-0.0479301
-0.0190183
-0.0225735
-0.016161
-0.0154042
-0.0143424
-0.0136437
0.0701726
-0.0701883
-0.00466126
-0.0034924
0.0688209
-0.0707096
-0.00572848
-0.00515221
0.0710258
-0.0715118
-0.00810652
-0.00746511
0.0718721
-0.0723244
-0.0100585
-0.00784206
0.0727291
-0.0732002
-0.0116692
-0.00927123
0.0735745
-0.0739384
-0.0130053
-0.0105527
0.0741359
-0.07417
-0.0137657
-0.0114917
0.0739448
-0.0733109
-0.0134799
-0.0117532
0.0723771
-0.0707562
-0.0116038
-0.010887
0.0688801
-0.0661111
-0.00784897
-0.00848591
0.0632861
-0.0596031
-0.00265353
-0.00457274
0.0568151
-0.0535327
0.00259725
0.000145459
0.0494575
-0.0441724
0.0076316
0.00452086
0.00726235
-0.0585602
0.059548
-0.0208348
-0.0106347
0.0201768
-0.0661681
0.0596608
-0.0403034
-0.0299921
-0.0234611
-0.0620921
0.0610388
-0.0173904
-0.0192534
-0.062493
0.0626004
-0.0130261
-0.0156597
-0.0630208
0.0628323
-0.00992795
-0.0114655
-0.0625568
0.0621863
-0.00571899
-0.00666005
-0.0617985
0.061248
-0.00199104
-0.00314309
-0.0607619
0.0602309
0.000812708
-0.000424167
-0.0599104
0.0597329
0.00287135
0.00160564
-0.0597908
0.0601154
0.00427777
0.00305737
-0.0605931
0.0613788
0.00498498
0.00395633
-0.0621908
0.0633209
0.00487841
0.00421767
-0.0641999
0.0657398
0.00392405
0.00394692
-0.0670502
0.0694539
0.0021815
0.00315247
0.00337442
-0.000891953
0.00322054
0.0706771
-0.00245539
0.00354272
0.067297
0.0686309
-0.00518428
0.004386
0.0638582
0.0637632
-0.00499684
0.00491209
0.0636672
0.0624882
-0.00420415
0.00441973
0.0712265
0.0671097
0.00587074
0.0744651
-0.0400866
0.0615871
-0.0861237
0.0365342
-0.0186135
0.0834211
0.0430804
-0.0677779
-0.0156059
-0.0729563
-0.0073223
0.0202013
-0.0463985
-0.0197148
-0.0305989
0.0246297
-0.0481199
-0.0180813
-0.0206532
-0.0780942
-0.00153183
0.0787544
0.000871662
0.0239555
-0.0554347
-0.0145433
-0.0152033
0.0249587
-0.0480463
-0.00999883
-0.021311
0.0403054
-0.0223848
-0.0848955
0.012672
0.0710689
-0.0702057
-0.00552444
-0.0053798
0.0708631
-0.0704681
-0.00612354
-0.00449477
0.0712043
-0.0717448
-0.00756602
-0.00672887
0.0721577
-0.0727008
-0.00951546
-0.00742918
0.0732117
-0.073856
-0.011025
-0.00876029
0.0744304
-0.0751088
-0.0123269
-0.00997829
0.0756592
-0.0762215
-0.0132034
-0.0109413
0.0765692
-0.0767456
-0.0133035
-0.0114056
0.0766182
-0.0760589
-0.0121631
-0.0110143
0.0751631
-0.0735853
-0.00942686
-0.00938169
0.0717864
-0.0692079
-0.0052321
-0.00637155
0.0666405
-0.0635262
-0.000517038
-0.00242195
0.0604101
-0.0561528
0.00337427
0.00140478
0.0541695
-0.0525707
0.00634853
0.00527913
0.046976
-0.0532059
-0.000143578
0.00391281
-0.0592774
0.064046
-0.0347607
-0.0896444
-0.037411
-0.0639903
0.0638592
-0.0207037
-0.0234054
-0.0643969
0.0650441
-0.0180376
-0.0197911
-0.0647261
0.0660243
-0.0143243
-0.0153417
-0.0649414
0.0650415
-0.010028
-0.0103826
-0.06494
0.0648981
-0.00567714
-0.00655857
-0.0648938
0.0648796
-0.00197679
-0.00313878
-0.064847
0.0647999
0.000859786
-0.000391571
-0.0647878
0.0648514
0.00280779
0.00161769
-0.065006
0.0653407
0.00394302
0.00290279
-0.065762
0.0664255
0.00432148
0.00353506
-0.0671022
0.0680165
0.00396411
0.00354098
-0.0690115
0.0699891
0.00294643
0.00295192
-0.0712453
0.0717483
0.00167843
0.00189632
-0.0740454
0.0783801
-0.000862814
0.00107735
-0.00073846
-0.00191672
-0.00336259
-0.0342415
-0.0523225
-0.00280008
-0.00195539
0.001973
0.0706595
-0.018795
-0.00371111
0.0628115
0.0626707
-0.00250754
0.00360859
0.0661959
0.0680963
-0.0030107
0.00296204
0.0639069
0.0643611
-0.00392424
0.00270253
0.0648889
0.0615259
-0.00201311
0.00223983
0.0709998
0.0677992
0.0751731
-0.0396001
0.0217331
-0.0435019
-0.0198145
-0.0288657
-0.000569724
0.00129954
0.0780246
-0.0742911
0.0103766
0.0765865
-0.00234701
0.0792355
-0.0774582
0.0237882
-0.0479527
-0.0167507
-0.0184458
0.023089
-0.0535651
-0.0122722
-0.0129299
0.0173108
-0.080963
-0.0064663
-0.0182073
-0.0332567
0.026005
-0.0823926
0.00245929
-0.000876686
-0.0539051
0.000682614
-0.0324648
-0.0563163
-0.00743968
0.00173555
0.0627697
0.00780575
-0.00703769
-0.0595854
0.0588173
0.0684046
-0.06953
-0.00619693
-0.0102965
0.0707057
-0.0711219
-0.00510826
-0.00420408
0.0705242
-0.0706313
-0.00601647
-0.00509245
0.0716141
-0.0716937
-0.00748642
-0.00574604
0.0721258
-0.0727014
-0.00893988
-0.00699705
0.0732536
-0.073968
-0.0103105
-0.0082081
0.0746291
-0.0754542
-0.0115019
-0.00931715
0.0761828
-0.0770383
-0.0123479
-0.0102126
0.0777319
-0.0784491
-0.0125863
-0.0107119
0.0789157
-0.0792156
-0.0118632
-0.0105478
0.0791875
-0.0787591
-0.00985519
-0.0094098
0.0780166
-0.0767091
-0.00653954
-0.00711412
0.0752544
-0.073285
-0.00248642
-0.0038767
0.0714511
-0.06931
0.00123315
-0.000429121
0.0675119
-0.0644801
0.00331674
0.00348103
0.0627835
-0.0643671
0.00144011
0.00221619
0.0675766
-0.0681617
-0.00029149
0.000409336
-0.00504984
0.00389668
-0.0527519
0.0803417
0.0116873
-0.0508232
-0.0412058
0.00713011
-0.0766478
0.0696364
-0.0277494
0.0837347
-0.0872796
-0.0297118
-0.0303241
-0.0710078
0.0703871
-0.020083
-0.0247767
-0.0691826
0.0683886
-0.0172436
-0.0185867
-0.0672425
0.0670033
-0.0140851
-0.0141956
-0.0666438
0.0664007
-0.00978493
-0.0100231
-0.0663505
0.0664577
-0.00578436
-0.00650834
-0.0666489
0.0669536
-0.0022815
-0.00333003
-0.0672417
0.0676105
0.00049098
-0.000679627
-0.0679329
0.0683421
0.00239858
0.00129531
-0.0687194
0.0692269
0.00343547
0.00252549
-0.0697106
0.0703598
0.00367227
0.00305143
-0.0709558
0.0717143
0.00320553
0.00294501
-0.0723594
0.0731199
0.00218593
0.00230685
-0.0737222
0.0745553
0.00084528
0.00129403
-0.0755159
0.0753875
-0.000734435
0.00011679
0.000357959
0.00237743
0.00221347
0.0660686
0.0667837
-0.00274734
0.00129666
0.0676466
0.0675625
-0.00235797
0.00218915
0.0640757
0.0632998
-0.00160837
0.000696284
0.065801
0.0621067
-0.000554026
0.000468444
0.0710853
0.0679414
0.0769411
-0.0376816
-0.0628255
-0.00385459
0.0807071
-0.0752958
0.00496518
0.0779855
0.000374653
0.0217674
-0.0414811
-0.019304
-0.0263124
0.0225111
-0.0473748
-0.0149911
-0.015727
0.0221683
-0.0584226
-0.00871886
-0.0106773
0.0196787
-0.0746367
0.0301537
-0.0881922
-0.0292411
0.0309363
-0.0831752
-0.00230665
-0.015218
0.00245374
-0.0310219
0.00656698
-0.0476316
0.00926245
-0.0522799
-0.0586062
0.0719343
0.00428347
-0.0176115
-0.0628087
-0.00283523
0.00832687
-0.00822728
-0.059685
0.0680101
-0.0693131
-0.0048939
-0.00511193
0.0694242
-0.0699959
-0.00453661
-0.00409298
0.0704451
-0.0707447
-0.00571694
-0.00464321
0.0710562
-0.0714931
-0.00704951
-0.0054345
0.0719292
-0.0725136
-0.00835544
-0.00656098
0.0730761
-0.073811
-0.00957561
-0.00764565
0.0744989
-0.0753734
-0.0106274
-0.00862927
0.076166
-0.0771356
-0.0113783
-0.00941999
0.0779736
-0.078936
-0.011624
-0.00987393
0.0796969
-0.0804633
-0.0110967
-0.00978689
0.080951
-0.0812661
-0.0095401
-0.00892209
0.0812631
-0.0809127
-0.00688995
-0.00711716
0.0803121
-0.0792975
-0.00350098
-0.0044773
0.0782147
-0.0767972
-0.000184358
-0.0015119
0.0742933
-0.0730493
0.00207269
0.000977129
0.0732074
-0.0733896
0.00162223
0.00237433
0.073769
-0.0763034
0.00224296
0.000788735
0.00276101
-0.0875999
0.0842916
-0.0264034
-0.0288603
0.0293759
-0.0887077
0.0909608
-0.0925002
-0.0273209
-0.0258802
-0.0796234
0.0752263
-0.0233524
-0.0256559
-0.0715168
0.0718094
-0.0203757
-0.0210672
-0.0698385
0.0698756
-0.0172806
-0.0166158
-0.0685581
0.0678352
-0.0133623
-0.0128781
-0.0674329
0.0671899
-0.00954194
-0.00962074
-0.0671509
0.0672883
-0.00592174
-0.00646935
-0.067536
0.067958
-0.00270359
-0.00357767
-0.0683889
0.0689731
-9.32202e-05
-0.00111052
-0.0694935
0.0701378
0.00175433
0.000774895
-0.0706896
0.0713572
0.00276795
0.00197364
-0.071922
0.0725976
0.00299661
0.00248662
-0.0731565
0.0738014
0.00256063
0.00238609
-0.0743079
0.0748497
0.00164416
0.0018004
-0.0752362
0.0756079
0.00047359
0.000907543
-0.0758812
0.0749492
0.000197551
-0.000156526
1.1382e-05
-0.0055683
0.00327867
0.0650593
0.00767945
-0.00658794
0.0611017
0.064551
-0.00194108
0.00101754
0.0669921
0.0681213
-0.0013175
0.00161825
0.0673458
0.0672625
-0.00169459
0.00141867
0.0643516
0.0632234
-0.000784798
-0.000109741
0.0666955
0.0627406
0.000688184
-0.000977687
0.0713748
0.0685199
0.000848118
-0.000763609
0.0779401
0.0768115
-0.000101868
0.078509
-0.000421645
0.07837
-0.0352181
0.0211615
-0.0401316
-0.0181302
-0.0231732
0.0216585
-0.046865
-0.0123692
-0.0120767
0.00079609
3.6123e-05
0.0776768
0.0777927
-0.0792819
0.00106762
0.0771108
0.00147792
0.0225248
-0.0612686
0.025393
-0.0690934
0.0258347
-0.0796341
0.0277966
-0.0931769
-0.02712
0.0264246
-0.0873357
-0.00754699
-0.005437
0.00134379
-0.0141081
0.00559126
-0.0300462
0.00678129
-0.0451505
0.00821669
-0.0521697
0.059426
-0.0641336
-0.00188037
-0.0638076
-0.00722834
-0.00988631
0.00770443
-0.0575031
-0.00702743
-0.0666665
-0.00917262
0.00646755
0.0638067
0.0590156
-0.00876218
0.0665911
-0.0662031
-0.00424259
-0.00458393
0.0670331
-0.0686245
-0.00330252
-0.0042819
0.0693201
-0.0696252
-0.00423148
-0.00339739
0.0701665
-0.0704633
-0.00542022
-0.0041019
0.0707738
-0.0712036
-0.00661962
-0.00512401
0.07163
-0.0722018
-0.00778366
-0.00613463
0.0727514
-0.0734707
-0.00885627
-0.00709602
0.074146
-0.0750095
-0.00976393
-0.00795401
0.0757996
-0.0767802
-0.0103976
-0.00862989
0.0776465
-0.0786747
-0.0105958
-0.00900765
0.0795319
-0.0804728
-0.0101558
-0.00892971
0.0811755
-0.0818286
-0.00888699
-0.00821937
0.0821911
-0.0823457
-0.00673531
-0.00675473
0.0822209
-0.0817733
-0.00394858
-0.0046021
0.0811487
-0.08018
-0.00115298
-0.00213654
0.0791897
-0.0779561
0.000839081
-1.3236e-05
0.076722
-0.0763962
0.00129644
0.00114029
0.0764342
-0.0744561
0.000264878
0.000826716
0.0716646
-0.0673788
-2.29699e-06
-3.05495e-05
0.0670851
-0.0671655
-0.007148
-0.00312889
-0.0934843
0.0899257
-0.0237623
-0.0232675
0.0252655
-0.095175
0.0954805
-0.096903
-0.021845
-0.0251238
-0.0857582
0.0829873
-0.0236325
-0.0217128
-0.0799606
0.0772074
-0.0205992
-0.0226292
-0.0739934
0.0728346
-0.0192169
-0.0178531
-0.0710845
0.0698663
-0.0160624
-0.0148657
-0.0690803
0.0683811
-0.012663
-0.0120922
-0.0679672
0.0676917
-0.00926647
-0.0092068
-0.0676266
0.0677327
-0.00602786
-0.00640424
-0.06796
0.0683753
-0.00311882
-0.00380498
-0.0688219
0.0694442
-0.000715482
-0.00155718
-0.0700205
0.0707433
0.00103147
0.000198603
-0.0713615
0.072094
0.00203548
0.0013555
-0.0726918
0.07337
0.00231844
0.00188879
-0.0738996
0.0744676
0.00199272
0.0018564
-0.0748836
0.0752908
0.00123704
0.00138432
-0.0755319
0.0759214
8.40916e-05
0.000666394
-0.0754148
0.0755029
0.000109373
0.00035011
-0.0758173
0.0792603
0.00152216
-0.000302953
0.00035302
-0.00508947
0.00410385
0.0660449
0.0659291
-0.00205978
0.000591355
0.0684605
0.0701654
-0.000843331
0.00105987
0.0671293
0.0670105
-0.0010343
0.000669602
0.0647163
0.063249
-9.75277e-06
-0.000846342
0.0675516
0.0634005
0.0014072
-0.00132705
0.0712947
0.0690807
0.000813494
0.000668831
0.0764577
0.0762979
0.079075
-0.0321868
-0.064113
-0.01008
-0.0145181
0.00143251
-0.0535809
-0.0403211
-0.0383099
0.0197324
-0.0382055
-0.0161038
-0.0194386
0.000491166
0.000656338
0.0765293
0.00263661
0.0749654
0.0210144
-0.0453546
0.0211005
-0.0569761
0.0231379
-0.0663966
0.02394
-0.0771495
0.023602
-0.0856721
0.0214193
-0.0984432
-0.0198791
0.0202715
-0.0940271
-0.00513368
-0.00106952
0.00523038
-0.0137472
0.00801035
-0.0312752
0.00940674
-0.0463405
0.00973124
-0.0541965
0.00595947
-0.0620301
-0.013659
0.00789964
0.0695661
-0.0258879
0.0712445
0.0653729
-0.0662176
-0.00103565
-0.0772264
0.0765813
0.00212303
-0.0784786
0.00231979
0.0482065
0.00840425
-0.00894229
-0.00857137
0.0671025
-0.0681701
-0.003175
-0.00369901
0.0686778
-0.0691708
-0.00280958
-0.00377421
0.0694726
-0.0696561
-0.00404801
-0.00309551
0.069859
-0.0701517
-0.00512755
-0.00389899
0.0704537
-0.0708697
-0.00620361
-0.00482198
0.0712789
-0.071825
-0.00723753
-0.00572551
0.0723474
-0.073029
-0.00817466
-0.00657363
0.0736672
-0.0744825
-0.00894857
-0.00731584
0.0752293
-0.0761594
-0.00946748
-0.00788315
0.0769866
-0.0779797
-0.00960267
-0.00818047
0.0788232
-0.0797768
-0.00920218
-0.00808617
0.080524
-0.0812781
-0.00813287
-0.00747219
0.0817745
-0.0821415
-0.00636832
-0.00625833
0.0822385
-0.0820815
-0.00410559
-0.00450517
0.0817133
-0.0810318
-0.00183447
-0.00250474
0.0802679
-0.0792206
-0.000208247
-0.000777045
0.0782259
-0.0771235
0.000194026
0.000145571
0.0761548
-0.0749804
-0.000909494
-0.000141956
0.0735121
-0.0714699
-0.00204452
-0.00149892
0.0707824
-0.0712803
-0.00665006
-0.00381634
-0.00553212
-0.0883699
0.067021
-0.0877964
-0.0175345
-0.0143393
-0.0968916
0.0942723
-0.0192258
-0.0174561
0.0186497
-0.0996368
0.0985022
-0.100268
-0.0156907
-0.0182684
-0.0898845
0.0854604
-0.0193381
-0.0207361
-0.0845732
0.08118
-0.0202393
-0.0208256
-0.077661
0.0754705
-0.0184088
-0.0191102
-0.0740405
0.0724531
-0.0176295
-0.0164231
-0.0713108
0.0701824
-0.014934
-0.0137234
-0.0694171
0.0687292
-0.0119751
-0.0113269
-0.0683174
0.0680191
-0.00896812
-0.00879504
-0.0679217
0.0679777
-0.00608384
-0.00630688
-0.0681557
0.0685087
-0.00347188
-0.00398295
-0.0689053
0.069476
-0.00128617
-0.00195381
-0.0700166
0.0707073
0.000340778
-0.000341977
-0.0713039
0.0720124
0.00132696
0.00075893
-0.0725864
0.0732268
0.00167797
0.00131482
-0.0737146
0.0742204
0.00148691
0.00136865
-0.0745742
0.074897
0.000914252
0.00103054
-0.0751155
0.0750578
0.000141761
0.000447826
-0.075657
0.0757884
-2.20405e-05
-0.000249012
-0.0761279
0.0779869
-0.000336892
-0.00064243
-0.000138662
-0.00485309
0.00200745
0.0688906
0.0689757
-0.00124143
0.00110064
0.0686013
0.0709314
-0.000388007
0.000512697
0.0670046
0.0677232
-0.000394747
-3.19972e-05
0.0651431
0.0633669
0.000694617
-0.00148687
0.0683439
0.0640631
0.00115114
-0.00351201
0.0736556
0.068745
0.00225084
-0.00168356
0.0758905
0.0750367
0.0780477
-0.0285582
0.00646263
0.0727553
0.0173171
-0.0345081
0.0181332
-0.0423873
0.0190177
-0.0528559
0.0197782
-0.0622348
0.0192215
-0.072769
0.018715
-0.0841156
-0.00348055
0.00357725
0.00942806
-0.0151649
0.0111396
-0.0330081
0.0107604
-0.0473697
0.0169603
-0.0923377
0.0145185
-0.101476
-0.0133103
0.0168519
-0.10197
0.0092876
-0.0575246
0.00518782
-0.07275
0.0104773
-0.0835071
-0.0147667
-0.0553355
-0.0131206
-0.0152602
0.00500953
-0.0829021
-0.00471863
-0.00492226
-0.0103349
0.0565559
0.00325029
-0.0494713
0.0660282
-0.0667145
-0.000349301
0.0190969
0.0675976
-0.0680708
-0.00270181
-0.00281591
0.0690365
-0.0689368
-0.00290927
-0.00280849
0.0691636
-0.0693492
-0.0038624
-0.00286871
0.0695496
-0.0698379
-0.00483918
-0.00369865
0.0701296
-0.0705285
-0.00580465
-0.00453034
0.0709171
-0.0714325
-0.00672216
-0.00533693
0.0719218
-0.0725564
-0.00754007
-0.00608434
0.0731467
-0.073897
-0.00819833
-0.00672546
0.0745807
-0.0754291
-0.00861909
-0.00719946
0.0761817
-0.0770852
-0.00869917
-0.00742778
0.077855
-0.0787317
-0.00832549
-0.00731641
0.0794289
-0.0801512
-0.00741059
-0.00677501
0.0806511
-0.0810635
-0.00595589
-0.00575839
0.0812368
-0.0812092
-0.00413322
-0.00433187
0.0809794
-0.0804823
-0.00233161
-0.00273453
0.0798875
-0.0790331
-0.00106262
-0.00137184
0.0782142
-0.0772331
-0.000787006
-0.000673379
0.0764247
-0.0756261
-0.00170812
-0.000950388
0.0749045
-0.0733702
-0.0035788
-0.0022205
0.0726004
-0.0725272
-0.00672322
-0.00458614
0.0773755
-0.0832377
-0.0116723
-0.00949106
-0.0144903
0.017144
-0.0861608
0.0841978
-0.0849772
-0.0137108
-0.0138066
-0.099525
0.0962801
-0.0124458
-0.011714
0.0139537
-0.103716
0.100842
-0.101225
-0.0113301
-0.0119937
-0.0940156
0.0919095
-0.0171196
-0.016004
-0.0867769
0.0860319
-0.0185932
-0.0156034
-0.0811849
0.0798797
-0.0189341
-0.0159786
-0.0763938
0.0759682
-0.0179832
-0.0156242
-0.0739895
0.0725237
-0.0161637
-0.0144443
-0.0714598
0.0703945
-0.0138688
-0.0126595
-0.0696625
0.0689864
-0.0112989
-0.0105949
-0.0685721
0.0682525
-0.00864851
-0.00838078
-0.0681223
0.0681238
-0.0060853
-0.00617672
-0.068245
0.0685202
-0.00374701
-0.00410421
-0.0688455
0.069328
-0.00176872
-0.00227909
-0.0697936
0.0703995
-0.000265117
-0.000807588
-0.0709287
0.0715623
0.000693342
0.000229758
-0.072077
0.072651
0.001104
0.000800119
-0.073085
0.0735309
0.001041
0.000934661
-0.0738381
0.0741164
0.00063596
0.000723309
-0.0742738
0.0743712
4.43337e-05
0.000290468
-0.0743577
0.074927
-0.00059139
-0.000235527
-0.0749824
0.0749458
-0.000300274
-0.000697768
-0.076448
0.0766256
0.00214222
-0.00164088
-0.075628
0.067213
0.0148776
0.00312058
-0.00797149
0.00474045
0.0727971
0.0765069
-0.00189778
-0.000213898
0.0710022
0.0718184
-0.00103328
-0.00108813
0.0707227
0.0696842
4.46846e-05
-9.78508e-06
0.0669697
0.0666797
0.000205237
-0.000672924
0.0656108
0.0635624
0.001316
-0.00203323
0.0690611
0.0647062
0.00263231
-0.00304385
0.0740671
0.0693441
0.00148304
-0.00261304
0.0770205
0.0734759
0.00124266
-0.000293561
0.0755802
0.0766774
-0.000867141
0.00598301
0.0676394
0.0738047
0.0628611
-0.0243618
0.0138305
-0.0302054
0.0141505
-0.0375201
0.0140483
-0.0471261
0.0141409
-0.0571541
0.0135144
-0.0675684
-0.00266679
0.00861431
0.0134665
-0.0174918
0.0138558
-0.0361034
0.0124505
-0.0796059
0.0118804
-0.0873661
0.00998716
-0.0980037
0.0125984
-0.0506805
0.0114203
-0.0637571
0.0115801
-0.0793206
0.00961477
-0.102105
-0.00873497
0.00551652
-0.0996173
0.0173191
-0.0830773
0.0162153
-0.0879952
-0.0131973
0.015778
-0.0857236
0.0243852
-0.0571587
0.0837259
-0.0509525
-0.0727188
0.000246674
0.0714282
-0.0794656
-5.64585e-05
0.00870042
0.0722407
-0.00920114
-0.0107777
-0.0543161
0.000407783
0.000124773
-0.00146979
0.0665346
-0.0667791
-0.000104783
0.00616589
0.0671746
-0.0684907
-0.00138577
-0.00242034
0.0686445
-0.0687499
-0.0028038
-0.0026547
0.0688711
-0.0690594
-0.00367414
-0.0027475
0.0692578
-0.0695394
-0.00455764
-0.00350024
0.0698203
-0.070201
-0.00542403
-0.00424936
0.0705683
-0.0710517
-0.00623874
-0.00496962
0.071507
-0.0720933
-0.00695382
-0.00562899
0.0726346
-0.0733175
-0.00751547
-0.00618415
0.0739352
-0.0746962
-0.00785806
-0.00658177
0.0753668
-0.0761669
-0.00789908
-0.00675721
0.0768452
-0.0776154
-0.00755524
-0.0066381
0.078228
-0.0788655
-0.00677304
-0.00616244
0.0793129
-0.079694
-0.00557478
-0.00531103
0.0798725
-0.0798912
-0.00411457
-0.00415333
0.0797363
-0.0793635
-0.00270439
-0.00288941
0.0788998
-0.0782214
-0.00174108
-0.00183555
0.0775683
-0.0767793
-0.00157603
-0.00132643
0.0761379
-0.075479
-0.00236702
-0.00159173
0.0750316
-0.0746023
-0.00400812
-0.0026679
0.0747611
-0.0755382
-0.0059461
-0.00442736
0.0782928
-0.0820594
-0.00790572
-0.00673644
0.0837071
-0.0855679
-0.01185
-0.0121589
-0.0120499
0.0130574
-0.0890027
0.0872284
-0.0879874
-0.0112909
-0.0115367
-0.0971911
0.0954945
-0.00963349
-0.00790524
0.00509122
-0.0992913
0.100103
-0.100899
-0.00710949
-0.00582272
-0.0937615
0.092168
-0.0108522
-0.0102608
-0.0883539
0.0856589
-0.0144247
-0.0121899
-0.0840044
0.0819776
-0.0165664
-0.0139489
-0.080247
0.0783096
-0.0169967
-0.014248
-0.076783
0.0751041
-0.0163043
-0.0140976
-0.0738163
0.0724854
-0.0148328
-0.0131566
-0.0715052
0.0705101
-0.0128736
-0.0116793
-0.069818
0.0691644
-0.0106453
-0.00990285
-0.0687528
0.0684186
-0.00831434
-0.00796915
-0.0682616
0.0682146
-0.00603831
-0.00601969
-0.0682831
0.0684825
-0.00394642
-0.00417269
-0.0687355
0.0691246
-0.0021578
-0.00253217
-0.069508
0.0700139
-0.000771037
-0.00119096
-0.0704619
0.0710027
0.000152513
-0.000218212
-0.0714453
0.0719412
0.000608107
0.000357571
-0.0723172
0.0727045
0.000653668
0.000558647
-0.0729715
0.0732129
0.000394613
0.000456289
-0.0733524
0.0734393
-4.26076e-05
0.000150985
-0.0734535
0.0733975
-0.000535389
-0.000249741
-0.0734608
0.0741647
-0.00100418
-0.000761021
-0.0726574
0.0744862
0.000313495
-0.000133655
-0.0742486
0.0921389
-0.0030127
0.00335816
-0.0116486
-0.00208289
-0.00016582
0.0750458
0.0741097
-0.00109333
-0.000590009
0.0726856
0.0705592
0.000588647
-0.000522262
0.0706564
0.0696828
0.000453293
-0.000499237
0.0670157
0.0666108
0.000756118
-0.0012408
0.0660954
0.0638193
0.0018442
-0.00247395
0.0696909
0.0653096
0.00296472
-0.00326732
0.0743697
0.0698348
0.00333752
-0.00321659
0.0768995
0.0735461
0.00241147
-0.00158227
0.074751
0.0758722
0.00263565
-0.00325578
0.0682596
0.0748581
0.0683058
-0.0197325
0.00938684
-0.0254417
0.00933699
-0.0328088
0.00889652
-0.0418818
0.00839773
-0.0520375
-0.00277637
0.0135761
0.0169446
-0.0205807
0.00762292
-0.0627408
0.00677994
-0.0745054
0.00651261
-0.0838916
0.016593
-0.0400981
0.0153297
-0.0545899
0.0152544
-0.0674314
0.00268396
-0.0951712
0.0165124
-0.0785138
0.00406921
-0.0985953
0.017927
-0.0852262
0.00205325
-0.0975518
-0.00540054
0.00252644
-0.0997645
0.0160169
-0.0886831
0.0108922
-0.0886699
-0.0102098
0.0138502
-0.0919607
0.0136116