/*--------------------------------*- C++ -*----------------------------------*\
  =========                 |
  \\      /  F ield         | OpenFOAM: The Open Source CFD Toolbox
   \\    /   O peration     | Website:  https://openfoam.org
    \\  /    A nd           | Version:  10
     \\/     M anipulation  |
\*---------------------------------------------------------------------------*/
FoamFile
{
    format      ascii;
    class       volScalarField;
    location    "31";
    object      p;
}
// * * * * * * * * * * * * * * * * * * * * * * * * * * * * * * * * * * * * * //

dimensions      [0 2 -2 0 0 0 0];

internalField   nonuniform List<scalar> 
28942
(
-0.517786
-0.513826
-0.26077
0.247313
0.257472
-0.00116446
0.00203583
-0.00332655
0.0195006
0.0270667
-0.548781
-0.566935
-0.554865
-0.541763
0.00391505
0.00776556
0.44579
0.468445
0.20511
0.26377
0.330921
0.334406
-0.593286
-0.59374
-0.593414
-0.60052
0.785464
0.799389
-0.0231358
-0.00185552
-0.00627511
-0.00559984
0.0246024
0.00907884
0.0599848
0.106402
0.403232
0.53921
-0.00406913
0.403083
0.301647
0.32948
0.100236
0.103161
0.100579
0.00166631
0.00241059
0.00152402
0.00304717
0.00868243
0.0172197
0.0559334
0.056877
0.0248631
0.0338253
-0.447997
-0.363314
-0.555562
-0.563689
-0.565685
-0.56256
-0.552699
-0.544503
-0.204318
-0.3125
-0.170112
-0.0899422
0.417378
0.388436
-0.524044
-0.527155
-0.530974
0.413366
0.393158
0.411353
-0.318329
-0.311354
-0.241282
-0.229197
-0.298868
-0.203643
-0.35653
-0.586272
-0.632252
-0.09182
-0.00174588
0.0644773
0.0166932
-0.0485966
-0.0539787
-0.0160137
0.00741709
-0.490821
-0.497429
-0.496777
-0.485599
-0.488839
-0.0100828
0.0414134
-0.670738
0.275657
0.277762
0.255125
0.261945
-0.158765
-0.155057
-0.174092
0.168742
0.177709
0.17921
-0.545267
-0.536126
-0.509792
-0.461522
-0.484569
0.851258
0.781815
0.711656
0.792148
-0.0396869
0.110812
0.0482045
0.0717224
0.0588317
0.899683
0.913772
0.878913
0.095266
0.134868
0.00127854
0.00277759
0.000150835
0.457722
0.553456
0.228087
0.218349
0.298223
0.204859
0.341664
0.27665
-0.45986
-0.472494
0.165195
0.0935828
0.0993818
-0.301224
-0.303179
-0.26297
-0.482984
0.0886414
0.107935
-0.107639
0.000254161
-0.00110738
-0.00132357
-4.09696e-05
0.16779
0.0603934
-0.575088
-0.5599
-0.537293
-0.533953
-0.524327
0.000742356
-0.567372
-0.53318
0.351126
0.360372
0.42225
0.39985
0.320781
0.0422242
0.0391888
0.0534891
0.0469624
0.143021
0.129959
0.150252
0.162388
0.159521
0.166453
0.178369
0.213156
0.194261
0.170932
0.190839
0.233816
0.286247
0.308318
-0.610702
-0.609913
-0.492009
-0.000196148
0.000538713
-0.627717
-0.590913
0.00562481
0.00523995
0.00410218
0.00384059
-0.17106
-0.191254
-0.186126
-0.525562
-0.519486
-0.506125
-0.575266
-0.57966
-0.569879
-0.609913
-0.675328
-0.632808
0.83477
0.800308
0.848097
-0.137251
-0.12322
-0.137478
0.461893
0.445619
0.454163
-0.109022
-0.115112
-0.104502
-0.122964
-0.132566
-0.143793
-0.137341
-0.15673
-0.148663
-0.127424
-0.118751
-0.111662
-0.106215
-0.102371
-0.170432
-0.16112
-0.101353
-0.0998265
-0.0996019
-0.184216
-0.17403
-0.0987072
-0.197983
-0.211062
-0.186517
-0.198238
-0.0993517
-0.0990318
-0.222411
-0.208367
-0.100512
-0.100839
-0.231329
-0.216187
-0.10319
-0.104194
-0.237265
-0.220958
-0.107495
-0.109251
-0.240718
-0.221937
-0.11361
-0.116177
-0.237626
-0.221267
-0.1217
-0.125118
-0.232037
-0.216743
-0.131842
-0.136181
-0.223379
-0.209054
-0.144339
-0.149678
-0.212235
-0.198971
-0.158906
-0.165405
-0.199221
-0.18707
-0.175958
-0.183753
-0.185215
-0.174257
-0.194813
-0.204042
-0.170292
-0.161109
-0.165233
-0.1824
-0.214799
-0.225479
-0.136372
-0.150028
-0.116087
-0.12531
-0.103863
-0.109023
-0.0984667
-0.100392
-0.0990153
-0.0980281
-0.1051
-0.101367
-0.117003
-0.110339
-0.135767
-0.125453
-0.161697
-0.147854
-0.191304
-0.176345
-0.220118
-0.20615
-0.241698
-0.232242
-0.248944
-0.247668
-0.243149
-0.248458
-0.22246
-0.234207
-0.193123
-0.208586
-0.177248
-0.155864
-0.148203
-0.174075
-0.150671
-0.162441
-0.193997
-0.184848
-0.205001
-0.200816
-0.205089
-0.206053
-0.19412
-0.20097
-0.174564
-0.185094
-0.151376
-0.163156
-0.129575
-0.139899
-0.112943
-0.120545
-0.10206
-0.106747
-0.0968392
-0.0987629
-0.0971131
-0.0962915
-0.103315
-0.0994243
-0.116471
-0.108944
-0.138012
-0.126093
-0.169264
-0.152343
-0.209884
-0.188542
-0.232632
-0.200296
-0.161793
-0.139236
-0.247104
-0.255511
-0.217662
-0.234519
-0.152202
-0.182954
-0.167218
-0.126725
-0.13865
-0.109191
-0.116967
-0.0990904
-0.103295
-0.0952272
-0.0964303
-0.0969805
-0.0954289
-0.104159
-0.099863
-0.117245
-0.109869
-0.137178
-0.126428
-0.164251
-0.149899
-0.195272
-0.17954
-0.225481
-0.210848
-0.248421
-0.23827
-0.258944
-0.25531
-0.250858
-0.256597
-0.229214
-0.241553
-0.198406
-0.21453
-0.142461
-0.147419
-0.165751
-0.181927
-0.139207
-0.12924
-0.128447
-0.136148
-0.159731
-0.14956
-0.177297
-0.169146
-0.187541
-0.183577
-0.187947
-0.188925
-0.178337
-0.184337
-0.160991
-0.170367
-0.14026
-0.150762
-0.120787
-0.130078
-0.105898
-0.112673
-0.0966576
-0.100607
-0.0926116
-0.0939715
-0.0939007
-0.0925736
-0.100993
-0.0966646
-0.115039
-0.107058
-0.137625
-0.125161
-0.170209
-0.152612
-0.212373
-0.190251
-0.259486
-0.235955
-0.198388
-0.276478
-0.28149
-0.266615
-0.150772
-0.119871
-0.233301
-0.212181
-0.293645
-0.299704
-0.252454
-0.167668
-0.152131
-0.11903
-0.111684
-0.189702
-0.223324
-0.201421
-0.198994
-0.163674
-0.177223
-0.137433
-0.150132
-0.115887
-0.125886
-0.101178
-0.107614
-0.0930856
-0.0963864
-0.0906732
-0.0911985
-0.0935566
-0.0914687
-0.101698
-0.0969501
-0.115764
-0.107924
-0.136613
-0.125305
-0.164423
-0.149743
-0.196469
-0.180183
-0.227781
-0.212603
-0.251709
-0.241095
-0.262142
-0.258893
-0.254965
-0.260616
-0.232824
-0.245496
-0.201244
-0.217733
-0.184286
-0.13083
-0.137219
-0.134787
-0.12548
-0.126826
-0.110441
-0.118343
-0.144393
-0.135661
-0.159869
-0.152664
-0.169156
-0.165495
-0.169817
-0.17059
-0.161564
-0.16674
-0.146382
-0.154622
-0.128084
-0.137348
-0.110977
-0.119144
-0.0980021
-0.103874
-0.0901884
-0.093463
-0.0873005
-0.0881298
-0.0894487
-0.0877226
-0.0972498
-0.0925821
-0.111929
-0.103634
-0.135204
-0.122379
-0.16868
-0.150616
-0.211951
-0.189268
-0.259979
-0.235959
-0.301633
-0.282557
-0.312338
-0.315092
-0.246158
-0.282355
-0.137992
-0.10338
-0.231171
-0.30528
-0.209493
-0.32151
-0.318209
-0.173395
-0.163699
-0.266446
-0.176224
-0.174907
-0.166191
-0.173797
-0.143802
-0.155407
-0.121749
-0.132382
-0.104027
-0.112286
-0.0920795
-0.0972858
-0.085863
-0.0883007
-0.0848529
-0.0847259
-0.0888076
-0.0862176
-0.097814
-0.0926558
-0.112564
-0.104412
-0.133998
-0.12239
-0.16224
-0.147352
-0.194873
-0.178273
-0.226795
-0.211322
-0.251245
-0.240384
-0.261945
-0.258613
-0.25536
-0.260803
-0.233209
-0.245954
-0.201273
-0.217951
-0.167151
-0.184108
-0.136752
-0.151178
-0.125571
-0.123976
-0.125607
-0.120938
-0.123962
-0.111231
-0.116598
-0.0975385
-0.104846
-0.100067
-0.0894125
-0.0942717
-0.11381
-0.106655
-0.128818
-0.12135
-0.14212
-0.135857
-0.150373
-0.147069
-0.151214
-0.151818
-0.144249
-0.148649
-0.131137
-0.138278
-0.115219
-0.123279
-0.10037
-0.107449
-0.0892902
-0.0942664
-0.0828635
-0.0854992
-0.0810103
-0.0813686
-0.0838894
-0.0818299
-0.0922023
-0.0873031
-0.107223
-0.0987751
-0.130743
-0.117801
-0.164508
-0.146282
-0.208341
-0.185338
-0.256972
-0.232666
-0.298838
-0.279653
-0.319845
-0.312808
-0.320284
-0.319151
-0.255075
-0.292539
-0.234003
-0.309759
-0.133611
-0.120701
-0.092874
-0.0856031
-0.209871
-0.31642
-0.164307
-0.146571
-0.31127
-0.310285
-0.144452
-0.275727
-0.150914
-0.149268
-0.142379
-0.148589
-0.123944
-0.13363
-0.105918
-0.114574
-0.0915158
-0.0981866
-0.0820159
-0.0861115
-0.0775904
-0.0791918
-0.0779362
-0.0771821
-0.0828894
-0.0798393
-0.0926147
-0.0871279
-0.107822
-0.0994698
-0.129514
-0.117807
-0.157831
-0.142918
-0.190515
-0.173887
-0.222502
-0.206993
-0.247112
-0.236154
-0.258099
-0.254604
-0.252069
-0.257233
-0.230314
-0.242889
-0.198484
-0.215185
-0.164207
-0.181157
-0.148162
-0.115848
-0.113093
-0.115203
-0.112848
-0.115071
-0.104969
-0.109481
-0.0993865
-0.0891656
-0.0806813
-0.0844924
-0.100503
-0.0945518
-0.113123
-0.10677
-0.124463
-0.119123
-0.131606
-0.128726
-0.13255
-0.132801
-0.126809
-0.130493
-0.115618
-0.121734
-0.101946
-0.108869
-0.0892515
-0.0952867
-0.0799577
-0.0840979
-0.0748427
-0.0768776
-0.0739052
-0.0738508
-0.0773746
-0.0750566
-0.0859995
-0.0809775
-0.101073
-0.09263
-0.124414
-0.111587
-0.157852
-0.139797
-0.201459
-0.178536
-0.250274
-0.225816
-0.292144
-0.273048
-0.313295
-0.305854
-0.305031
-0.314181
-0.29447
-0.289544
-0.258265
-0.296783
-0.109541
-0.0775703
-0.23185
-0.182147
-0.201956
-0.307182
-0.307235
-0.142357
-0.139447
-0.169118
-0.295495
-0.273339
-0.26833
-0.279548
-0.122857
-0.117645
-0.121455
-0.125891
-0.125015
-0.119155
-0.124131
-0.104386
-0.112098
-0.0899523
-0.0969009
-0.0784545
-0.0837424
-0.0712023
-0.074255
-0.0684909
-0.0692925
-0.0701096
-0.0687716
-0.0759509
-0.0725007
-0.0862346
-0.0805065
-0.101694
-0.0932526
-0.12334
-0.111697
-0.15133
-0.136609
-0.183538
-0.167154
-0.215094
-0.199784
-0.239494
-0.228604
-0.25063
-0.24701
-0.2452
-0.250022
-0.22418
-0.236392
-0.192878
-0.209349
-0.158985
-0.175788
-0.128643
-0.143119
-0.104674
-0.115823
-0.104178
-0.0953299
-0.100236
-0.10803
-0.106792
-0.106492
-0.107881
-0.100157
-0.103913
-0.0894449
-0.0952715
-0.075496
-0.0828229
-0.0713482
-0.0676557
-0.0691
-0.0780753
-0.07445
-0.0872135
-0.082415
-0.0976692
-0.0924049
-0.1072
-0.1027
-0.113342
-0.110836
-0.114328
-0.114471
-0.109611
-0.112669
-0.10016
-0.105341
-0.0885547
-0.0944283
-0.077866
-0.0829273
-0.0702266
-0.0735954
-0.0663099
-0.0678006
-0.0661625
-0.0657594
-0.0700752
-0.0675766
-0.0788146
-0.0737767
-0.0936585
-0.0853748
-0.116404
-0.10392
-0.148917
-0.131357
-0.191465
-0.169067
-0.239506
-0.215365
-0.281241
-0.262136
-0.301751
-0.294936
-0.293517
-0.300248
-0.259234
-0.27924
-0.243657
-0.235066
-0.255323
-0.111552
-0.22377
-0.0985493
-0.0892808
-0.0743164
-0.0671
-0.294105
-0.298294
-0.192121
-0.291717
-0.274421
-0.248567
-0.217233
-0.209033
-0.276629
-0.0936563
-0.105665
-0.0803667
-0.0874129
-0.100328
-0.0982847
-0.102123
-0.101746
-0.096754
-0.100652
-0.0852623
-0.0912647
-0.0739124
-0.0793831
-0.0650351
-0.0690683
-0.0598849
-0.0619546
-0.0587715
-0.0588327
-0.0615423
-0.059681
-0.0681394
-0.0643576
-0.0788223
-0.0729371
-0.0943308
-0.0859104
-0.11564
-0.104216
-0.142918
-0.128595
-0.17419
-0.158286
-0.204853
-0.189967
-0.228669
-0.218013
-0.23981
-0.236104
-0.23503
-0.239459
-0.21503
-0.226712
-0.184749
-0.200724
-0.151649
-0.16809
-0.121961
-0.136119
-0.109424
-0.0970771
-0.0876761
-0.0929035
-0.101881
-0.100137
-0.101636
-0.102369
-0.0965753
-0.099691
-0.0871482
-0.092358
-0.0810821
-0.0618615
-0.059519
-0.0603118
-0.0669629
-0.0641518
-0.0742318
-0.0703598
-0.0827061
-0.0784212
-0.0905956
-0.0868516
-0.0958272
-0.0936635
-0.0968085
-0.0968897
-0.0929473
-0.0954713
-0.0850346
-0.0893826
-0.075298
-0.0802193
-0.06644
-0.070612
-0.0603018
-0.0629728
-0.057449
-0.0584616
-0.0579608
-0.0572749
-0.0621705
-0.0595677
-0.0708393
-0.0658847
-0.0851976
-0.0772125
-0.106976
-0.0950395
-0.138028
-0.121256
-0.1788
-0.157308
-0.225174
-0.20182
-0.265984
-0.247203
-0.286526
-0.279597
-0.278774
-0.285986
-0.246142
-0.265177
-0.197779
-0.223092
-0.154337
-0.130116
-0.182692
-0.172246
-0.2466
-0.0816137
-0.0594053
-0.0736745
-0.285166
-0.0972866
-0.212966
-0.283478
-0.179499
-0.27144
-0.250323
-0.222656
-0.191055
-0.157829
-0.14743
-0.267747
-0.0591378
-0.0675745
-0.0489912
-0.0534974
-0.0715686
-0.0656982
-0.0782764
-0.0758782
-0.0797369
-0.0796064
-0.0755436
-0.0785009
-0.0668037
-0.0713959
-0.0580838
-0.0622708
-0.0515525
-0.0544568
-0.0483096
-0.0494872
-0.0486284
-0.0480296
-0.0524059
-0.0500918
-0.0596206
-0.0555766
-0.0705505
-0.0645879
-0.0859136
-0.0776187
-0.106625
-0.0955588
-0.132854
-0.119106
-0.162789
-0.147573
-0.192143
-0.177886
-0.215059
-0.204779
-0.226052
-0.222306
-0.221957
-0.225951
-0.203215
-0.21422
-0.17435
-0.189623
-0.142493
-0.158344
-0.113836
-0.127507
-0.0911796
-0.101687
-0.0747617
-0.0822512
-0.0816823
-0.0686276
-0.0754288
-0.0916438
-0.0871435
-0.0972781
-0.0950497
-0.0980918
-0.098292
-0.0941426
-0.0966915
-0.0859256
-0.0905334
-0.0741673
-0.0804008
-0.0600093
-0.0673173
-0.0510855
-0.0523436
-0.0514188
-0.0524078
-0.0514253
-0.0560113
-0.053924
-0.0616626
-0.0586398
-0.0684088
-0.0649766
-0.0748447
-0.0717713
-0.079244
-0.0774021
-0.0801756
-0.0801971
-0.0770338
-0.0791061
-0.0704593
-0.0740775
-0.0623856
-0.0664563
-0.0551699
-0.0585443
-0.0503669
-0.0524198
-0.0484344
-0.0490386
-0.0494736
-0.0485704
-0.0538417
-0.0512061
-0.0622728
-0.0574901
-0.0759217
-0.0683564
-0.0964128
-0.0851985
-0.125536
-0.109806
-0.163895
-0.143646
-0.207906
-0.185683
-0.24711
-0.228998
-0.26736
-0.260379
-0.260456
-0.267309
-0.22919
-0.247349
-0.183704
-0.207524
-0.13546
-0.159262
-0.139713
-0.118494
-0.124638
-0.112942
-0.234261
-0.27084
-0.045096
-0.0618044
-0.0885131
-0.19951
-0.263981
-0.0671441
-0.0611499
-0.0613204
-0.0539578
-0.163189
-0.247988
-0.224856
-0.196801
-0.16625
-0.135063
-0.0418784
-0.0273745
-0.0257711
-0.104467
-0.0928839
-0.0392306
-0.254136
-0.0322282
-0.0292988
-0.0406174
-0.0361123
-0.0509725
-0.0458488
-0.0573698
-0.0548731
-0.0588713
-0.0586714
-0.055747
-0.0579234
-0.0492516
-0.0526859
-0.0427777
-0.0458578
-0.0382842
-0.0402074
-0.0366995
-0.0371017
-0.0382554
-0.0370885
-0.0428822
-0.0401902
-0.050576
-0.0463382
-0.0616091
-0.0556433
-0.0766522
-0.068575
-0.0965444
-0.0859538
-0.121446
-0.10842
-0.149713
-0.135354
-0.177418
-0.163955
-0.199168
-0.189381
-0.209863
-0.206146
-0.206469
-0.209995
-0.189171
-0.19939
-0.162035
-0.176435
-0.131816
-0.146876
-0.104497
-0.11754
-0.0828657
-0.0929296
-0.0743253
-0.0771203
-0.0636883
-0.070712
-0.0876092
-0.0828167
-0.0940051
-0.0913679
-0.0957578
-0.0954719
-0.0928499
-0.0948705
-0.0856997
-0.089768
-0.0748822
-0.0806792
-0.0683805
-0.0426203
-0.044546
-0.0432838
-0.0430361
-0.0425877
-0.0454515
-0.0440095
-0.0496431
-0.047365
-0.0549027
-0.0522035
-0.0600784
-0.0575886
-0.0637282
-0.0621831
-0.0645759
-0.0645576
-0.0620247
-0.0637212
-0.0565989
-0.0595861
-0.0499865
-0.0533068
-0.0442209
-0.0468919
-0.040582
-0.0420992
-0.0394244
-0.0396898
-0.0408634
-0.0398054
-0.045264
-0.0426595
-0.0533147
-0.0487785
-0.0660728
-0.0590245
-0.0850232
-0.0746695
-0.111843
-0.0973615
-0.147251
-0.128533
-0.18827
-0.167488
-0.225385
-0.208157
-0.245017
-0.23814
-0.238845
-0.245232
-0.209279
-0.226456
-0.166408
-0.18877
-0.12096
-0.143419
-0.0803988
-0.0999614
-0.0569794
-0.0750715
-0.086489
-0.0593988
-0.0471299
-0.0628187
-0.126224
-0.105848
-0.218866
-0.252314
-0.0563006
-0.046402
-0.0796972
-0.183461
-0.241456
-0.147341
-0.223115
-0.199406
-0.172382
-0.143707
-0.114697
-0.0248247
-0.0132263
-0.0136482
-0.0346287
-0.021157
-0.0334854
-0.0247262
-0.0373481
-0.0530317
-0.0710803
-0.0455302
-0.236942
-0.014237
-0.0134696
-0.0179307
-0.0157573
-0.0244909
-0.0210112
-0.0324363
-0.0284205
-0.0380674
-0.0357607
-0.0396539
-0.0393467
-0.0374717
-0.0390113
-0.0327956
-0.0352784
-0.0282144
-0.0303594
-0.0254363
-0.0265348
-0.0252453
-0.0249956
-0.0278359
-0.0261954
-0.0331515
-0.0301578
-0.0411875
-0.0368226
-0.0521904
-0.0462892
-0.0667651
-0.0589826
-0.0856614
-0.0756389
-0.10902
-0.0968283
-0.135369
-0.121996
-0.161175
-0.148629
-0.181552
-0.172354
-0.191846
-0.188195
-0.189135
-0.192188
-0.173386
-0.18275
-0.148207
-0.161607
-0.119928
-0.134042
-0.0942491
-0.106522
-0.0738832
-0.0833518
-0.0589606
-0.0657762
-0.048546
-0.0532035
-0.0600242
-0.0448524
-0.0524971
-0.0738176
-0.0671734
-0.0848194
-0.0797505
-0.0919267
-0.0889036
-0.094594
-0.0938327
-0.0926681
-0.0941989
-0.0864336
-0.0900531
-0.0764132
-0.0818551
-0.0634717
-0.0702334
-0.0488387
-0.056326
-0.0367425
-0.0413008
-0.038744
-0.0343337
-0.0352391
-0.0339384
-0.0338872
-0.0353177
-0.0344153
-0.0382749
-0.0366265
-0.0422735
-0.0401956
-0.0463731
-0.0443836
-0.0493593
-0.0480828
-0.0500984
-0.0500626
-0.0480209
-0.04941
-0.043571
-0.0460176
-0.0382293
-0.0408952
-0.0337258
-0.0357862
-0.0310816
-0.0321446
-0.0305578
-0.0305515
-0.0322782
-0.0311226
-0.0366013
-0.0340827
-0.0441564
-0.0399258
-0.0558878
-0.0494283
-0.0731168
-0.0637217
-0.0973669
-0.0842809
-0.12942
-0.112456
-0.166915
-0.14785
-0.201492
-0.185338
-0.220358
-0.213636
-0.214971
-0.220813
-0.187265
-0.203393
-0.146859
-0.16794
-0.104244
-0.12528
-0.0662392
-0.084457
-0.0497943
-0.113361
-0.0959727
-0.0211967
-0.00905823
-0.201183
-0.231073
-0.0724317
-0.166462
-0.217629
-0.0406215
-0.0370277
-0.0520678
-0.0444277
-0.132503
-0.198432
-0.175395
-0.150129
-0.123832
-0.0973796
-0.014833
-0.00495837
-0.00718996
-0.0167896
-0.0252767
-0.0361325
-0.049756
-0.0578312
-0.0337889
0.001847
-0.0105156
-0.217386
-0.00260541
-0.00332914
-0.00291265
-0.00258969
-0.00526198
-0.0038392
-0.00990834
-0.0073413
-0.015829
-0.0128091
-0.0205501
-0.0185268
-0.0221666
-0.0217632
-0.0207765
-0.021806
-0.0175562
-0.0192691
-0.0145324
-0.0159073
-0.0131604
-0.0135839
-0.014108
-0.0133262
-0.0175346
-0.0155141
-0.0233807
-0.0201603
-0.0316271
-0.0271986
-0.0424806
-0.0367029
-0.0564676
-0.04904
-0.0742389
-0.0648509
-0.0959097
-0.0846269
-0.12018
-0.107874
-0.143926
-0.132375
-0.162795
-0.154249
-0.172614
-0.169044
-0.170541
-0.173143
-0.156371
-0.164849
-0.133288
-0.145606
-0.107166
-0.120219
-0.0833599
-0.0947469
-0.0644125
-0.0732363
-0.0504684
-0.056875
-0.0450745
-0.0573909
-0.0419351
-0.0497661
-0.0715819
-0.0647126
-0.0831205
-0.0777653
-0.090988
-0.0875537
-0.0945807
-0.093347
-0.093585
-0.0946584
-0.0881614
-0.0913947
-0.0788769
-0.083962
-0.0664768
-0.0729886
-0.0594564
-0.0290048
-0.0337377
-0.0310926
-0.0262414
-0.0273997
-0.0251754
-0.0255076
-0.025684
-0.0252368
-0.0276213
-0.0264941
-0.0305696
-0.0290101
-0.0337631
-0.0321967
-0.0361692
-0.0351323
-0.0367821
-0.0367485
-0.0350774
-0.0362183
-0.0314518
-0.0334378
-0.0272067
-0.0293069
-0.0237863
-0.0253249
-0.0219742
-0.0226609
-0.0219517
-0.0217361
-0.023847
-0.0226446
-0.028001
-0.025613
-0.0349744
-0.0310924
-0.04559
-0.0397648
-0.0609913
-0.0526114
-0.0825179
-0.0709131
-0.110963
-0.0958948
-0.144547
-0.127408
-0.176174
-0.161286
-0.194127
-0.187588
-0.189719
-0.194874
-0.16407
-0.179053
-0.126232
-0.146011
-0.0862348
-0.105972
-0.0506463
-0.067682
-0.0213485
-0.0351921
0.00308749
-0.00861434
0.0116149
0.0235322
0.0138698
-0.101624
-0.0869798
-0.182413
-0.208693
-0.0341674
-0.0367873
-0.066663
-0.149994
-0.194089
-0.118891
-0.175261
-0.153701
-0.130547
-0.106581
-0.0822553
-0.00980886
-0.00111945
-0.00440509
0.0350419
0.0435297
0.0323116
-0.0131917
-0.0191801
-0.0264989
-0.0358101
-0.0473268
-0.0462861
-0.0234689
-0.00113862
0.0202025
-0.196728
0.00396075
0.00165816
0.00655208
0.00557682
0.0069585
0.00691089
0.00590952
0.00663823
0.00307854
0.00472305
-0.0011072
0.001078
-0.00486404
-0.00318675
-0.00643217
-0.00596168
-0.00568008
-0.00630746
-0.00360435
-0.00470838
-0.00182665
-0.00258474
-0.00157602
-0.00146211
-0.00342371
-0.00222271
-0.00749516
-0.00518474
-0.0137192
-0.0103441
-0.0220534
-0.0176194
-0.0326556
-0.0270502
-0.0459658
-0.0389365
-0.0625307
-0.0538172
-0.0824365
-0.0721012
-0.104553
-0.0933524
-0.126165
-0.115646
-0.143459
-0.135598
-0.152737
-0.149288
-0.151234
-0.153405
-0.138628
-0.146224
-0.117698
-0.128894
-0.0938653
-0.105784
-0.07209
-0.0825115
-0.0546959
-0.0628086
-0.0418359
-0.0477439
-0.0326874
-0.0368712
-0.0265617
-0.0292502
-0.03992
-0.0244037
-0.0319983
-0.0556796
-0.0478648
-0.0703191
-0.0632427
-0.0824484
-0.0767586
-0.0911719
-0.0872868
-0.095712
-0.0940034
-0.0956172
-0.0962522
-0.0909442
-0.0938268
-0.0822396
-0.0870513
-0.070293
-0.0766158
-0.0558794
-0.0632986
-0.040447
-0.0482226
-0.0262171
-0.0326925
-0.02921
-0.0214681
-0.0236391
-0.0184429
-0.0197831
-0.0168157
-0.0174475
-0.0166124
-0.0165392
-0.0177196
-0.0170172
-0.0198085
-0.0186742
-0.0222481
-0.0210361
-0.0241516
-0.0233265
-0.0246277
-0.0246118
-0.0232134
-0.0241547
-0.0202836
-0.0218775
-0.0169789
-0.0185943
-0.0144746
-0.0155749
-0.0133426
-0.0137257
-0.0137008
-0.0133321
-0.0156789
-0.0144727
-0.0195913
-0.017368
-0.0259254
-0.0224189
-0.0353802
-0.0302104
-0.0489167
-0.0415703
-0.0676718
-0.0575758
-0.0923967
-0.0792933
-0.121828
-0.106754
-0.150181
-0.13672
-0.167052
-0.160744
-0.163648
-0.168119
-0.140445
-0.154147
-0.105355
-0.123751
-0.0679214
-0.0864247
-0.0345188
-0.0505039
-0.00709737
-0.0200646
0.0157159
0.00477363
0.0257078
-0.0923382
-0.0798207
0.0401119
0.0513252
-0.163975
-0.186605
-0.0620831
-0.134798
-0.172081
-0.0190413
-0.0169322
-0.0448089
-0.0369082
-0.107163
-0.154443
-0.134736
-0.113678
-0.0917123
-0.0691444
-0.00842355
-5.88381e-05
-0.00449426
-0.0130981
-0.017222
-0.0222364
-0.0285173
-0.036394
-0.0461509
-0.0361842
-0.0143731
0.00720848
0.0277477
0.0583272
0.0468814
-0.17631
0.00692738
0.00376485
0.0116887
0.0095171
0.0145844
0.0133519
0.0157657
0.0153357
0.0158245
0.0159462
0.0144818
0.0153464
0.0118196
0.0132695
0.00902015
0.0103271
0.00758017
0.00807714
0.00783978
0.00752392
0.00903023
0.00839818
0.00983813
0.00955987
0.00922392
0.00975066
0.00669625
0.00821151
0.00215991
0.00467507
-0.00429873
-0.000836307
-0.0126096
-0.00822203
-0.0228765
-0.0174825
-0.0354493
-0.0288457
-0.0507707
-0.042747
-0.0688979
-0.0595142
-0.0888642
-0.0787653
-0.108347
-0.098858
-0.124053
-0.116888
-0.132758
-0.129441
-0.131728
-0.133502
-0.120621
-0.127365
-0.101829
-0.1119
-0.0803439
-0.0910928
-0.0606873
-0.0700985
-0.0449428
-0.0522913
-0.0332354
-0.038626
-0.0248228
-0.0286993
-0.0216401
-0.0386737
-0.0227511
-0.0306606
-0.0548437
-0.046778
-0.0699291
-0.062608
-0.082799
-0.0766976
-0.0924775
-0.0881021
-0.0980029
-0.0958058
-0.0988075
-0.0990098
-0.0948418
-0.0974016
-0.0865798
-0.0912021
-0.074862
-0.0810925
-0.0605229
-0.0679441
-0.0527746
-0.0189024
-0.0252401
-0.0217966
-0.014234
-0.0163895
-0.0109494
-0.012433
-0.00890652
-0.00976604
-0.00814156
-0.00836493
-0.00858654
-0.00822375
-0.00998344
-0.00919297
-0.0118023
-0.0108846
-0.0132722
-0.0126335
-0.0136077
-0.01362
-0.0124208
-0.0132001
-0.0100813
-0.0113404
-0.00757858
-0.00878174
-0.00583654
-0.00657534
-0.0052458
-0.00539112
-0.00587806
-0.00540538
-0.00786178
-0.00668717
-0.0114788
-0.00944431
-0.0171427
-0.0140243
-0.0254321
-0.0209165
-0.0371303
-0.0308
-0.0531648
-0.0445505
-0.0742001
-0.0630542
-0.0993877
-0.0864457
-0.124216
-0.112321
-0.139813
-0.133801
-0.137682
-0.141248
-0.117018
-0.12935
-0.0848182
-0.101776
-0.049972
-0.0672467
-0.0186051
-0.033636
0.00722799
-0.00500985
0.0285632
0.0183588
0.0464987
0.0379324
0.0617763
0.0543693
0.064389
0.0744897
0.0685365
-0.0851046
-0.0739093
-0.146961
-0.165988
-0.0152523
-0.0290347
-0.0586621
-0.121371
-0.152394
-0.0974769
-0.136354
-0.118512
-0.0992978
-0.0789958
-0.0578511
-0.00944321
-0.000981982
-0.0062713
0.0835322
0.0885072
0.0796389
-0.0153962
-0.0185862
-0.022057
-0.0262055
-0.0314136
-0.0379559
-0.0460438
-0.0274744
-0.00644628
0.0143713
0.0342454
0.0526457
0.0694099
-0.157339
0.00765105
0.00364308
0.014183
0.0112332
0.0186861
0.0166024
0.0217794
0.02041
0.0236081
0.022827
0.024518
0.0241748
0.0243684
0.0245959
0.0230289
0.0238298
0.0211584
0.0220841
0.0199316
0.0204087
0.0198387
0.0197559
0.0203554
0.0200829
0.0204286
0.0205125
0.0191745
0.020004
0.0161651
0.0178995
0.011329
0.0139705
0.00476728
0.00825538
-0.00342122
0.000874334
-0.0132849
-0.00813241
-0.0250845
-0.0189203
-0.0391639
-0.0318244
-0.0555535
-0.047096
-0.0734394
-0.0644051
-0.0908666
-0.0823731
-0.105015
-0.0985393
-0.112881
-0.109914
-0.112474
-0.113867
-0.102756
-0.108703
-0.0860369
-0.0950081
-0.0668926
-0.0764686
-0.0493798
-0.0577664
-0.0353159
-0.0418873
-0.0247768
-0.0296412
-0.0171516
-0.02065
-0.0117652
-0.0142034
-0.00822447
-0.00979117
-0.0218081
-0.00706257
-0.014157
-0.0380713
-0.0298308
-0.0546831
-0.0464167
-0.07038
-0.0627075
-0.0841776
-0.0775836
-0.0949137
-0.0900037
-0.101488
-0.0987745
-0.103214
-0.102979
-0.0999243
-0.102184
-0.0920071
-0.0964999
-0.0803316
-0.0865668
-0.0659645
-0.0734288
-0.0498397
-0.0580145
-0.0333984
-0.0415887
-0.0178845
-0.0254758
-0.0214758
-0.0118974
-0.0147104
-0.00728623
-0.00946912
-0.00382922
-0.00542954
-0.00148327
-0.00251468
-0.000290994
-0.00074219
-0.000221307
-0.000123877
-0.00106964
-0.000553429
-0.00238108
-0.00170637
-0.00347775
-0.00300272
-0.00367576
-0.00372144
-0.00267165
-0.0033165
-0.000837899
-0.00180954
0.000985493
0.000129084
0.00210546
0.001658
0.00227896
0.002313
0.00146434
0.00199919
-0.000462896
0.000652357
-0.00374843
-0.00191756
-0.00873455
-0.00600401
-0.0158875
-0.0120063
-0.0258244
-0.0204651
-0.0392703
-0.0320655
-0.0567702
-0.0475066
-0.0777776
-0.0669573
-0.0989268
-0.0887029
-0.112998
-0.107397
-0.112111
-0.114747
-0.0942679
-0.105093
-0.0651187
-0.0805785
-0.0328742
-0.0489252
-0.0034642
-0.0175952
0.0209497
0.00936887
0.0409911
0.0314389
0.0577157
0.0497293
0.0717967
0.0650735
0.077953
-0.0797079
-0.0693112
0.0840525
0.0928833
-0.132004
-0.147631
-0.0566657
-0.109921
-0.135375
-0.00153843
-0.00030732
-0.0383397
-0.0300176
-0.0898923
-0.120992
-0.104827
-0.0871467
-0.068177
-0.0481801
-0.012197
-0.00300707
-0.00868116
-0.0188022
-0.0221189
-0.0250016
-0.0279486
-0.0313131
-0.0352846
-0.0405975
-0.0471884
-0.0201138
0.000216795
0.0203487
0.0396526
0.0574803
0.0735821
0.0964341
0.0876927
-0.140599
0.00673247
0.00212571
0.0145581
0.0108071
0.0205748
0.0178219
0.0249528
0.0229068
0.0282262
0.0267273
0.0305174
0.0294775
0.0320761
0.0313809
0.0328516
0.0325792
0.0326201
0.0328639
0.0316335
0.0321762
0.0307105
0.0311132
0.0303946
0.0304749
0.0304098
0.0304062
0.0299411
0.0302899
0.0282378
0.0292762
0.0249198
0.0267896
0.0199309
0.0226288
0.0133845
0.0168428
0.00540568
0.00956952
-0.00400081
0.000887638
-0.0150118
-0.00928932
-0.0278814
-0.0212035
-0.0426172
-0.0350379
-0.0585449
-0.0505109
-0.0740425
-0.0664837
-0.0867264
-0.0808985
-0.0940068
-0.0911925
-0.0938581
-0.0949776
-0.0853756
-0.090599
-0.0706231
-0.07854
-0.0537642
-0.0621905
-0.0383667
-0.0457409
-0.0259681
-0.0317696
-0.0166074
-0.0209386
-0.00976302
-0.0129126
-0.00486067
-0.00709909
-0.0030176
-0.0214213
-0.00621153
-0.0136358
-0.0380428
-0.0295782
-0.0551474
-0.0466076
-0.0716872
-0.0635474
-0.0865806
-0.0794205
-0.0984918
-0.0929915
-0.106205
-0.102935
-0.108893
-0.108208
-0.106259
-0.108235
-0.0986129
-0.10302
-0.0868248
-0.0931593
-0.0721347
-0.0797722
-0.0555365
-0.0639917
-0.0469023
-0.0108681
-0.0179032
-0.0141929
-0.00524463
-0.00794999
-0.000697041
-0.00284732
0.00286756
0.00120251
0.00542767
0.00427472
0.00693252
0.00631327
0.00739072
0.00728618
0.00697065
0.00727069
0.00607254
0.00654673
0.00529639
0.00562849
0.00522608
0.00514708
0.00607453
0.0055461
0.0074703
0.00674671
0.00872411
0.00815523
0.00934847
0.00912945
0.00921312
0.00937605
0.00829276
0.00885538
0.00646986
0.00750517
0.0035363
0.00515689
-0.000784152
0.00156916
-0.0068564
-0.00357531
-0.0151489
-0.0106931
-0.0261999
-0.0202978
-0.0404188
-0.0329069
-0.0574508
-0.0486676
-0.074883
-0.0663895
-0.0871376
-0.0821095
-0.0872964
-0.0890663
-0.0724578
-0.0816454
-0.0466032
-0.0604589
-0.017037
-0.0318483
0.0104638
-0.00280099
0.0335471
0.02258
0.0524506
0.0434631
0.0680923
0.0606289
0.0811414
0.0749256
0.0917544
0.0867921
0.100065
0.0961555
0.0992756
0.105691
0.10324
-0.0759832
-0.0662284
-0.119279
-0.131888
0.000611869
-0.0221102
-0.055859
-0.100558
-0.121039
-0.0842817
-0.108156
-0.0934111
-0.0769937
-0.0591135
-0.0400374
-0.0152787
-0.00524686
-0.0110278
-0.0226962
-0.0265527
-0.0298543
-0.0326066
-0.0350795
-0.0375681
-0.0405558
-0.0444889
-0.0495446
-0.0141387
0.00560629
0.025185
0.0439234
0.0612897
0.0769457
0.0906527
0.10998
0.107245
0.110881
-0.126373
0.00526844
0.000266857
0.013804
0.00974201
0.0207153
0.0174254
0.0262954
0.0236587
0.0305772
0.0285745
0.0339528
0.0323675
0.0365691
0.0353453
0.0386035
0.0376507
0.0400626
0.0394174
0.0407179
0.0405037
0.0405441
0.0407155
0.0400066
0.0402818
0.039596
0.0397726
0.0392544
0.0394457
0.0383975
0.0389337
0.0364
0.0375702
0.0329191
0.0348533
0.0279051
0.0305982
0.0214778
0.0248577
0.0137847
0.0177827
0.00487758
0.00948555
-0.0053455
-5.83298e-05
-0.0170598
-0.0110089
-0.0302557
-0.0234907
-0.0443835
-0.0372672
-0.0581141
-0.0514114
-0.0694461
-0.0642189
-0.0761197
-0.0735014
-0.07615
-0.0770644
-0.0687463
-0.0733219
-0.0558355
-0.0627554
-0.0411695
-0.0484895
-0.0278142
-0.0342101
-0.0170297
-0.0220836
-0.00882259
-0.0126305
-0.00275395
-0.00555639
0.00166935
-0.000375605
0.00476046
0.00335403
0.00678273
0.00595895
-0.00584989
0.00739823
0.00112383
-0.0214145
-0.0133958
-0.0384965
-0.0298229
-0.0562675
-0.0473419
-0.0738532
-0.0651543
-0.0899885
-0.0821923
-0.10321
-0.0970529
-0.112169
-0.108294
-0.115875
-0.11472
-0.113887
-0.115593
-0.106441
-0.110805
-0.0944048
-0.100919
-0.0791305
-0.087081
-0.0618961
-0.0707126
-0.0438688
-0.0528685
-0.0266122
-0.0351433
-0.0107909
-0.0186246
-0.0145235
-0.00431395
-0.00737483
0.00104479
-0.0015131
0.00551525
0.00339105
0.00911866
0.00742491
0.0118127
0.0105823
0.0135328
0.0127963
0.0142744
0.0140206
0.0141842
0.0143154
0.0136227
0.0139312
0.0131209
0.0133292
0.013161
0.0130539
0.0138668
0.0134439
0.0148803
0.0143708
0.015664
0.0153288
0.0159056
0.0158595
0.0155538
0.0158032
0.0145899
0.0151528
0.0129062
0.0138474
0.0103317
0.0117422
0.00664928
0.00864412
0.00158268
0.00430816
-0.00520848
-0.00157478
-0.0140997
-0.00937014
-0.0253641
-0.0194318
-0.0387473
-0.0318494
-0.0525631
-0.0457944
-0.0627204
-0.0584476
-0.0635411
-0.0646168
-0.0516764
-0.0591828
-0.0293781
-0.041486
-0.00270392
-0.016188
0.0228433
0.0104482
0.0446346
0.0342573
0.0625028
0.0540201
0.0771569
0.0701847
0.0892053
0.0834874
0.0987915
0.0943241
0.105783
0.102655
0.108231
-0.0738193
-0.0646147
0.101399
-0.108779
-0.118773
-0.0564491
-0.0932126
-0.109199
0.0125264
0.0132034
-0.0315995
-0.0230741
-0.080515
-0.097604
-0.0840548
-0.0686956
-0.0517263
-0.0334169
-0.0174933
-0.00656078
-0.0117135
0.107738
0.110827
-0.0241906
-0.0301518
-0.0350785
-0.0386566
-0.0412883
-0.0434354
-0.0453079
-0.0473209
-0.0498501
-0.0533598
-0.00957586
0.00971811
0.0288872
0.0472296
0.0642599
0.0796426
0.0927852
-0.114631
0.00363999
-0.00136541
0.0125713
0.00831591
0.0200581
0.0164084
0.0262493
0.0233139
0.0313805
0.0289319