/*--------------------------------*- C++ -*----------------------------------*\
  =========                 |
  \\      /  F ield         | OpenFOAM: The Open Source CFD Toolbox
   \\    /   O peration     | Website:  https://openfoam.org
    \\  /    A nd           | Version:  10
     \\/     M anipulation  |
\*---------------------------------------------------------------------------*/
FoamFile
{
    format      ascii;
    class       surfaceScalarField;
    location    "56.5";
    object      phi;
}
// * * * * * * * * * * * * * * * * * * * * * * * * * * * * * * * * * * * * * //

dimensions      [0 3 -1 0 0 0 0];

internalField   nonuniform List<scalar> 
57492
(
0.000236026
-1.06075e-05
-4.37789e-05
-0.000181639
-0.000162791
0.00026781
0.000131006
-2.87695e-05
8.08807e-05
0.000323461
-0.000375572
0.00315977
0.00338643
-0.000272079
-0.00627412
-0.00862823
0.00404528
0.00774272
0.000756188
-0.000696497
-0.000365205
0.000305514
-0.00134881
0.00023553
-8.29402e-05
0.00119622
0.000288254
-0.000880878
0.00158711
-0.00463351
0.00442601
-0.00137961
0.00133973
0.00424953
-0.00400215
-0.00061249
-0.000206872
0.000685375
0.000133987
-0.000122636
-0.00083335
0.000343495
0.000232104
-0.00032568
-2.90593e-05
-5.33558e-05
7.85875e-05
0.00178664
-0.00172301
-0.000646074
0.000582444
0.000255833
0.0014414
8.94097e-05
-0.00032432
0.000788175
0.00333528
-0.00379913
-0.000660516
0.00326114
-0.00292494
0.000135476
-0.000288598
0.000153122
-0.0016636
0.00122016
0.000578918
-0.00465999
0.000189899
0.0033358
0.00113428
0.00122777
-0.00473011
-0.00115765
-0.000133074
-0.000196806
-0.000702661
0.00103254
-0.000287295
0.000176266
-2.2045e-05
-0.00254741
0.00216201
0.000735163
-0.000349762
-0.00305045
0.00092546
-0.000422428
-0.0011277
0.00059642
0.000456754
7.45263e-05
-0.000778949
-0.000362283
1.35324e-05
-0.000367211
-0.00113368
0.00129063
0.000210255
-0.000415985
0.000116367
-6.75929e-05
0.000787385
-0.000524179
-0.000488322
0.000225116
-0.000679525
0.000545061
0.000921849
-0.00093034
-0.00178297
0.00172282
0.000990486
-0.00211488
-0.000506629
0.00169117
-0.000707338
-0.000152057
0.000859395
-0.000271257
-0.000436082
-0.00137442
0.00189192
-0.000788762
0.000203063
-0.00076715
-0.000810333
-0.000598215
0.000833745
-0.000233019
-0.00190184
0.00115083
0.00075101
-0.00432167
0.00241983
0.00489601
-0.000846494
0.000371122
-0.00442064
0.00360413
-5.93006e-05
0.00135118
-0.000753668
0.00489939
-0.00499222
0.00147978
0.000318346
-0.00150988
0.0014912
-9.43519e-05
0.0018052
-0.000676623
-0.001344
0.000215424
0.00202111
0.00010243
0.000924529
-0.00057463
0.0011413
0.000893681
0.00122707
-0.00475256
-0.000637654
0.000550128
0.00484009
-0.00488563
-0.000301809
0.000434881
0.00121549
0.00451333
-0.00443792
-0.0012909
0.000886949
-0.00430496
-0.00278281
0.00253133
0.00253766
-0.00228618
-0.000276368
0.00320555
-0.00571199
1.48767e-05
-0.000116797
-8.08028e-07
0.000102728
-0.000321439
1.06357e-05
6.70727e-05
-0.000136076
-0.000252436
-5.63946e-05
6.67054e-06
1.1149e-05
-1.19571e-05
8.8688e-06
2.28023e-06
0.00730606
0.00378582
-0.00588119
-0.0052107
0.00233682
-0.000701482
0.00567072
-0.00785543
0.00309803
0.00709422
0.00229196
-0.00636157
0.00162401
-0.00286585
0.00213371
-0.000891865
0.00235637
-0.00291448
0.00218211
-2.98941e-05
2.1854e-05
-2.56736e-06
-7.02501e-05
-3.42295e-06
-0.000222861
-2.90286e-05
-0.00293854
0.00534824
0.00339295
-0.00580265
0.00436315
-0.00494532
0.00298447
0.0047482
-0.00238443
0.0100891
-0.00148389
-0.00178925
-0.00681595
0.00224078
0.0054225
0.00242582
0.00160455
-0.00500865
0.00564488
4.6804e-05
-7.55736e-05
0.000127685
0.00081633
0.00175773
-0.00062639
-0.00194767
0.00104014
9.96533e-05
-9.5795e-05
2.6334e-05
6.94609e-05
-0.000298126
0.000202331
-0.00660518
0.00342284
-0.00201313
0.00519548
-0.00574148
-0.00249732
0.00163362
-0.00262487
0.00208844
-0.00520504
0.00195172
-2.65851e-05
-0.000944162
-0.000980968
-0.000711545
0.00222736
0.000435897
-0.000834561
-8.52389e-05
0.000208255
-0.000771485
-8.96613e-05
-0.00027144
-0.00144421
-0.000237033
-6.26568e-05
1.85127e-05
0.000281177
-0.000215782
-0.000522306
0.000501055
0.000137538
1.68463e-05
-0.000370166
7.91394e-05
-4.25845e-06
0.000100312
-2.65983e-06
-0.00064105
0.00036961
8.34393e-05
-0.00072449
0.000172377
-0.000470502
0.00427361
0.00333163
-0.000178518
0.00212865
-0.00648328
-1.03582e-05
0.00226394
-0.00179747
-0.000456114
0.000291765
0.00316411
-0.00346623
0.0032704
0.00184461
-0.000503252
-0.00461176
-0.00103139
0.00049846
0.00380333
0.00399336
-0.00318014
-0.00164211
-0.00303463
0.00125039
0.00342635
-0.00118556
0.00350508
-0.00396163
0.000422557
-0.00464275
8.25376e-05
3.37751e-05
-4.59331e-06
0.0010461
-0.000616808
-0.000592083
7.70339e-05
-0.000324895
0.00129396
0.00036394
-1.90958e-05
-0.000187238
0.000331742
6.83245e-05
-0.000212829
0.000991581
-0.00121485
3.60324e-05
-0.000357542
0.000830799
0.000518324
-0.000125073
9.92739e-05
-0.00611445
0.00365065
0.00588664
0.007722
-0.00200727
-0.00821206
-0.00285651
0.00446405
-9.71127e-05
-0.000874366
-0.000162197
-0.000522227
9.1295e-06
4.79329e-05
-0.00012993
3.71733e-05
4.48237e-05
-0.000130027
0.000144581
3.33783e-05
-0.00029952
3.95638e-05
-0.000265303
-0.000312761
5.58368e-05
-0.000803723
-0.000335946
-0.000849131
-0.000911321
0.00104166
0.000718789
3.47766e-05
0.000449265
-0.00133317
-0.00118875
0.000312209
-0.00293452
0.00133093
-6.00093e-05
-0.0035033
0.000809704
-0.000240919
0.000876019
-0.00334734
0.00256413
-9.28095e-05
0.000679043
-0.00272839
0.00292537
0.00252823
-0.0101972
-0.00176594
0.00218238
0.00302208
-0.0034571
0.00206085
-0.000320985
4.4026e-07
1.64061e-05
-3.38053e-06
3.82075e-06
0.000284275
-4.13031e-05
0.00560036
-0.00341598
-0.00247663
0.000292252
0.00484387
2.81807e-06
0.00464743
0.000162669
-0.00508647
0.00137709
0.0033008
-3.04603e-05
0.000548446
-0.00291744
0.00374609
5.37441e-06
-8.75494e-06
0.000759183
-0.00211995
-0.00284666
0.00123202
0.00308377
0.000887566
-5.0411e-05
-0.000933191
9.6036e-05
0.00029446
-8.64191e-05
-0.00114205
0.000250922
0.00143619
0.000207149
-0.00105474
-0.000134906
7.58069e-05
-7.37962e-06
1.03082e-05
-2.61129e-06
-3.17304e-07
1.0922e-05
-2.39281e-07
-1.80623e-05
4.65073e-05
-0.000104284
6.86986e-05
-0.00171812
0.00265227
-0.000761775
0.00291767
-0.00378581
-0.000849976
6.2457e-06
-0.00156734
0.00181202
-0.00399346
0.000241528
-0.00273753
-0.00183223
0.000576303
0.00269186
0.00291111
-0.00541307
0.00260476
0.00429352
-0.00420642
0.00224
-0.00308419
0.0016063
-0.000762106
0.00245519
-0.00302336
0.00280817
0.00437084
0.00187607
0.00499953
-0.00023364
-0.00496537
0.000199486
0.00553954
-0.00066193
0.000121915
0.00552942
-0.000902577
8.14073e-05
-0.00470825
0.00396896
-0.00137472
0.00293518
0.00430783
-0.00140415
0.00114102
-0.0040447
0.00126959
0.0043879
-0.00134966
-0.00387617
-0.00166579
0.0041378
0.00106679
-0.00369256
-0.00185974
0.0036203
-0.00237851
-0.00323932
0.00215428
0.00346355
-0.00239461
-0.00326742
0.00328353
0.00223458
0.00304623
-0.00147423
-0.00380658
0.00302005
-0.00318008
-0.00258887
0.00261326
0.00299566
-0.00204051
0.00249788
-0.004069
0.00361507
-0.0010203
-0.00506562
0.00105301
0.00537483
-0.00136222
0.00190998
-0.000266063
0.000993442
-0.0010594
0.000332022
-0.000109044
0.0012736
-0.00143062
-5.30754e-05
0.000305879
0.000111136
-0.00114484
-0.00178893
0.00116372
-1.78259e-07
-6.1023e-08
3.1102e-07
-4.89277e-07
-0.000106659
-0.00197608
0.00150811
-0.00175937
-7.19341e-05
0.00172465
4.93217e-05
-0.00184408
3.53876e-05
-0.00024887
0.00164177
0.000273778
-0.00166668
0.00168542
0.000480277
-0.00241457
0.00168197
0.00164523
-2.45854e-06
4.91169e-07
3.57424e-05
-4.7716e-06
2.31306e-06
-4.28045e-06
-5.55926e-06
4.25151e-06
-5.50869e-05
1.03501e-06
-6.59427e-06
5.28653e-06
-4.40003e-05
2.13172e-05
-0.000264612
2.22182e-05
-6.62185e-05
4.35354e-05
5.31916e-05
-5.3368e-06
-0.000172928
-1.69042e-05
7.00959e-05
-2.2241e-05
0.00142461
0.00328116
-0.00420731
0.00132915
-0.00446795
0.00456341
0.00471588
-0.000105567
-0.0011822
-0.00244436
0.00115804
0.00246852
-0.000710512
0.00272181
-0.0031935
0.000157228
-0.0033121
0.00399678
-0.00401212
-1.59766e-05
3.13107e-05
0.00401662
3.3056e-05
-5.28923e-05
-2.84187e-05
-0.00398295
-7.49063e-07
0.00406771
-4.21034e-06
-4.68796e-05
0.00416077
5.67036e-05
-0.000149767
2.68616e-05
0.00428473
-0.000150817
0.00423243
-0.00418763
-1.79374e-05
-0.000202523
0.00450518
-1.79228e-05
0.00413331
-0.000103406
-0.00403941
-9.15116e-05
-0.00400481
-3.88115e-05
-0.00397768
5.92418e-06
-0.00404031
4.66576e-05
-0.00395119
-0.000117539
-0.000197817
0.00472058
-1.75825e-05
0.00395741
-2.19135e-05
-2.33609e-05
-0.00392551
-3.40844e-05
-0.00395948
-1.5074e-05
-3.16189e-05
-0.00412683
0.000232939
-3.48045e-06
0.0047408
-1.67463e-05
0.0039751
-2.11759e-05
-0.00407934
8.82416e-05
0.00476027
-3.17067e-06
-1.62975e-05
-3.11838e-06
0.00477874
-1.53541e-05
0.00399184
-1.99125e-05
0.00400805
-1.93207e-05
-2.7095e-05
-0.00407563
-2.41022e-05
-0.00407462
-3.18145e-05
-2.72184e-06
0.00479638
-1.49169e-05
0.00402341
-1.80819e-05
-4.09476e-06
-0.00404683
-2.47009e-05
-0.00404577
-3.29429e-05
-2.5496e-06
0.00481289
-1.39612e-05
0.00403841
-1.75567e-05
-4.10131e-06
-0.00401722
-2.55116e-05
-0.00401625
-3.36237e-05
-1.90874e-06
0.00482835
-1.35505e-05
0.00405285
-1.6343e-05
-4.31458e-06
-0.00398694
-2.59686e-05
-0.00398591
-3.46564e-05
-1.25399e-06
0.0048422
-1.25934e-05
0.00406748
-1.58851e-05
-4.31201e-06
-0.00395595
-2.66701e-05
-0.00395496
-3.52643e-05
3.86772e-07
0.00485403
-1.22159e-05
0.00408256
-1.46961e-05
4.66834e-06
-0.00393357
-2.70529e-05
-0.00391414
-3.61499e-05
3.02685e-06
0.00486226
-1.12588e-05
0.00409989
-1.43003e-05
2.09979e-05
-0.00379156
-0.00016301
-0.00381624
-7.69042e-05
8.68319e-06
0.00486449
-1.09142e-05
0.00410281
5.75693e-06
2.03259e-05
-0.00377836
-3.35199e-05
-0.00375662
-3.92954e-05
1.93289e-05
0.00485513
-9.96669e-06
0.00408436
3.77862e-05
4.85726e-05
-0.00361359
-0.000213351
-0.00361714
-9.08992e-05
0.000206768
0.00465801
-9.64892e-06
0.00421867
7.24541e-05
5.56846e-05
-0.00356547
-0.000103798
-0.0035463
-1.51583e-05
0.000183194
0.00432455
0.00015027
0.00429793
0.000103939
9.05247e-05
-0.000162725
-0.00349327
-0.00350062
4.4841e-05
1.18367e-05
3.35108e-05
0.0042792
0.00427907
3.06881e-05
-0.00358545
0.00367397
-0.00019232
-0.00357349
-0.00017469
0.000156377
-0.000168495
-0.00348115
4.29997e-05
-0.00338724
-0.0036256
0.00368793
-9.58496e-05
-0.000164979
-0.00358213
0.00361107
-5.59948e-05
-5.72113e-05
-0.00363923
0.00366686
-5.35911e-05
-5.48304e-05
-0.00369369
0.00371999
-5.09992e-05
-5.23425e-05
-0.00374554
0.0040268
-4.83185e-05
-4.96617e-05
-0.00403978
0.00400805
3.09842e-05
-4.70638e-05
-0.0041604
0.00415031
-4.27995e-05
-0.00012104
-0.00403795
0.00399891
-0.000110735
6.54806e-05
-0.003923
0.00394197
-3.68954e-05
-7.49002e-05
-0.00396
0.00397734
-3.4087e-05
-3.56108e-05
-0.00399385
0.00400974
-3.12453e-05
-3.2809e-05
-0.00402482
0.0040393
-2.84387e-05
-2.99992e-05
-0.004053
0.00406611
-2.57081e-05
-2.72484e-05
-0.00407849
0.0040903
-2.30772e-05
-2.45877e-05
-0.00410142
0.004112
-2.05481e-05
-2.20323e-05
-0.00409782
0.0042035
4.45871e-05
4.53871e-06
0.00420178
3.52324e-05
-2.67954e-05
7.53438e-05
0.00423065
-1.32326e-05
0.00426551
0.00421008
-0.00413107
-6.56011e-06
-0.00426062
0.00426052
3.07835e-05
5.34037e-05
0.00412027
-0.00409018
-2.43294e-05
2.6983e-05
0.00407844
-0.00406595
-2.71876e-05
-2.60356e-05
0.00405292
-0.00403909
-3.01708e-05
-2.89174e-05
0.0040247
-0.00400946
-3.33154e-05
-3.1953e-05
0.00399364
-0.00397694
-3.66128e-05
-3.51472e-05
0.00395962
-0.00394147
-4.00676e-05
-3.84907e-05
0.00400288
-0.00397727
-4.35482e-05
-4.19896e-05
0.00402339
-0.0039586
-0.000103595
-4.53972e-05
0.00391095
-0.00386307
-1.2167e-06
-4.17322e-05
0.00388812
-0.00388912
-1.40777e-05
-9.24924e-05
0.00374511
-0.00371955
-5.73736e-05
-5.57664e-05
0.00369344
-0.00366649
-6.05813e-05
-5.9047e-05
0.00363902
-0.00361073
-6.3551e-05
-6.2122e-05
0.00358194
-0.00359258
-6.6261e-05
-6.49423e-05
0.00356437
-0.00358653
-6.87407e-05
-6.75124e-05
0.00353175
-0.00344956
-3.73419e-05
-6.99393e-05
-0.00338192
-2.46402e-05
-0.00356783
-0.000174155
0.00422334
5.37754e-05
-1.75227e-05
0.00426481
8.6824e-05
-0.000106794
-0.00336727
2.98998e-05
-0.003325
0.00014399
-0.000169948
-0.00354187
-0.00344396
-0.003579
0.00355098
-0.000164303
0.00358914
-0.00358719
-0.000176105
-0.000164548
-0.0035349
0.00356452
-0.000125468
-0.000148899
-0.0035934
0.00362184
-8.4433e-05
-8.60904e-05
-0.0036495
0.00367663
-8.07266e-05
-8.24903e-05
-0.00370298
0.00372879
-7.6811e-05
-7.86897e-05
-0.00375382
0.00377824
-7.27379e-05
-7.46914e-05
-0.00380179
0.00390138
-6.8605e-05
-7.0612e-05
-0.00384679
0.00386831
-6.43219e-05
-6.64533e-05
-0.00399595
0.00394525
-6.00381e-05
-6.21564e-05
-0.0039281
0.00394673
-5.55252e-05
-5.77497e-05
-0.00396448
0.00398157
-5.11754e-05
-5.33545e-05
-0.00399782
0.00401346
-4.68858e-05
-4.90623e-05
-0.0040283
0.00404254
-4.2685e-05
-4.48378e-05
-0.00405602
0.00406893
-3.8616e-05
-4.07254e-05
-0.00408111
0.00409274
-3.4712e-05
-3.67636e-05
-0.00410368
0.00411411
-3.09733e-05
-3.29754e-05
-0.00412362
0.00416587
2.32906e-06
-4.96942e-06
2.85748e-06
-1.97869e-05
0.00424758
-1.23564e-05
0.00423856
-0.00416193
0.00421124
4.46013e-06
3.91815e-05
0.00420558
-0.00419786
2.30618e-05
0.0041798
8.26203e-06
6.52709e-06
3.27167e-05
0.00422557
0.00425225
0.00418932
-0.0041494
-4.64772e-05
4.48625e-05
0.00410365
-0.00409257
-3.54123e-05
-1.87666e-05
0.004081
-0.0040687
-3.94921e-05
-3.7605e-05
0.00405587
-0.00404225
-4.37848e-05
-4.17476e-05
0.00402809
-0.0040131
-4.83045e-05
-4.61199e-05
0.00399754
-0.00398112
-5.30264e-05
-5.07092e-05
0.00396413
-0.00394628
-5.79146e-05
-5.54854e-05
0.00392787
-0.00390855
-6.28704e-05
-6.03964e-05
0.00388861
-0.00392431
-6.78955e-05
-6.53337e-05
0.00389573
-0.00382412
-7.28303e-05
-7.03113e-05
0.00384135
-0.00377763
-7.77988e-05
-7.52626e-05
0.00375335
-0.0037282
-8.25164e-05
-8.00508e-05
0.00370255
-0.00367606
-8.70707e-05
-8.47e-05
0.00364907
-0.00362127
-9.13542e-05
-8.91094e-05
0.00359298
-0.0035639
-9.5339e-05
-9.32308e-05
0.00353436
-0.00350407
-9.90319e-05
-9.7056e-05
0.0034734
-0.00340832
-0.000102422
-0.000100612
0.00335816
-0.00328251
-4.57524e-05
-7.47964e-05
-0.00357982
-0.00017732
1.44739e-05
-9.73611e-05
-0.00324211
-0.00323161
-3.64274e-05
-0.000179945
-0.00328469
4.83141e-06
0.00419405
0.00419407
1.84432e-05
-0.000112807
9.91134e-05
-0.00352817
-0.000143494
-0.00354913
-9.7263e-06
-9.23903e-05
-0.00313999
-6.18767e-05
-0.00317946
-0.00352479
0.00422381
-0.00420377
-1.55793e-05
0.0041881
4.05429e-05
5.90195e-05
-2.38423e-05
0.00419039
2.61719e-05
0.00422692
-0.00353603
0.00360649
-0.000213958
-0.000193097
0.000140327
-0.00349636
0.00358596
2.56913e-05
0.000169672
-0.00378132
-0.00014317
-0.00363378
0.00363553
-0.000177862
-0.000204606
-0.0036182
0.00358865
-0.000134748
-0.000147217
-0.00359043
0.00358182
-0.00011685
-0.000150684
-0.00360997
0.00363762
-0.000112091
-0.000114241
-0.00366452
0.0036909
-0.000107111
-0.000109385
-0.00371652
0.00374161
-0.000101905
-0.000104307
-0.00376593
0.00378969
-9.64982e-05
-9.90083e-05
-0.00381263
0.00383497
-9.09485e-05
-9.35467e-05
-0.00385648
0.00387742
-8.52632e-05
-8.79593e-05
-0.0038975
0.00391697
-7.95075e-05
-8.22422e-05
-0.00393567
0.00395379
-7.36411e-05
-7.64492e-05
-0.00397107
0.00398775
-6.78475e-05
-7.06402e-05
-0.00400361
0.00401887
-6.21515e-05
-6.49228e-05
-0.00403335
0.00404726
-5.65933e-05
-5.93214e-05
-0.00406042
0.00407303
-5.12223e-05
-5.38838e-05
-0.00408492
0.00409629
-4.60802e-05
-4.86567e-05
-0.00410699
0.00411719
-4.11773e-05
-4.36716e-05
-0.00413811
0.00415382
-1.33729e-05
-2.58949e-05
-1.07702e-05
2.11249e-05
-1.09038e-05
0.00423736
-3.07639e-05
-8.82811e-06
0.00423364
0.00422892
0.00421751
0.00419609
-0.00418334
1.03111e-05
-0.00419791
0.00418228
3.4082e-05
6.43958e-06
0.0041268
-0.00413197
-4.13006e-05
-1.16815e-05
0.0041069
-0.00409607
-4.62509e-05
-4.38364e-05
0.00408476
-0.00407274
-5.15158e-05
-4.89112e-05
0.0040602
-0.00404691
-5.70807e-05
-5.42809e-05
0.00403308
-0.00401845
-6.29332e-05
-5.99503e-05
0.00400327
-0.00398726
-6.90317e-05
-6.58896e-05
0.0039707
-0.00395329
-7.53184e-05
-7.20499e-05
0.00393533
-0.00391649
-8.17069e-05
-7.83611e-05
0.00389708
-0.00387682
-8.81537e-05
-8.47439e-05
0.00385599
-0.00383427
-9.45501e-05
-9.11451e-05
0.00381204
-0.00378896
-0.000100871
-9.74964e-05
0.00376533
-0.00374087
-0.000106978
-0.000103682
0.00371591
-0.00369013
-0.000112847
-0.000109663
0.00366387
-0.00363683
-0.000118402
-0.000115366
0.00360932
-0.00358105
-0.00012361
-0.000120739
0.00355234
-0.00352291
-0.000128465
-0.000125763
0.00349308
-0.00346254
-0.000132961
-0.000130441
0.00340256
-0.00331111
-0.000137203
-0.000134772
0.00324665
-0.0032254
-8.31243e-05
-0.000100889
-5.04196e-05
2.15399e-05
-0.00315058
-0.00318036
-9.54578e-05
0.000127292
-0.00351514
-7.13846e-05
-0.00330569
1.32114e-05
0.00416606
0.0042038
4.64786e-06
0.000181148
-0.00365182
4.86261e-05
-0.00316708
0.000807845
-0.00290949
0.00378361
5.6511e-05
-0.0001058
-0.00313107
-4.09986e-06
-0.00308996
-0.00232955
0.00357265
0.000402124
-0.00176666
-0.000289117
-0.00346888
-0.00342043
0.00359402
-3.91827e-06
0.000154512
-2.29382e-06
-0.00358637
0.00358188
-0.000209466
-0.000135512
-0.00358139
0.00355947
-0.000155937
-0.000204123
-0.00356501
0.00358059
-0.000150337
-0.000152756
-0.00357697
0.00360466
-0.000144547
-0.000147055
-0.00363167
0.00365823
-0.000138649
-0.000141253
-0.00368409
0.00370947
-0.000132491
-0.000135238
-0.00373412
0.00375828
-0.000126064
-0.000128961
-0.00378169
0.00380458
-0.000119387
-0.000122421
-0.00382669
0.00384825
-0.000112509
-0.000115658
-0.00386901
0.00388922
-0.00010547
-0.000108721
-0.00390863
0.00392745
-9.83299e-05
-0.000101649
-0.0039455
0.00396298
-9.11249e-05
-9.44984e-05
-0.00397968
0.0039958
-8.39661e-05
-8.73377e-05
-0.00401114
0.00402591
-7.69245e-05
-8.02652e-05
-0.00403993
0.0040534
-7.00612e-05
-7.3342e-05
-0.00406615
0.00407836
-6.34364e-05
-6.66292e-05
-0.00408989
0.00410091
-5.71017e-05
-6.01831e-05
-0.00411128
0.00412119
-5.1084e-05
-5.40464e-05
-0.00414352
0.00417554
-4.53922e-05
-4.82224e-05
-0.00417362
0.00417858
-2.05448e-05
-8.84944e-06
-0.00420231
0.00420376
1.17568e-05
1.68179e-05
3.91062e-05
-1.99781e-05
0.00421452
-9.47195e-06
-2.54414e-05
0.00423868
0.00419569
3.52566e-05
1.58839e-05
0.00418622
0.0042442
-2.09157e-05
5.13195e-06
0.00420618
0.00421247
-2.86465e-06
-2.50968e-05
0.00423176
0.00422919
0.00422358
-0.00420153
1.20308e-05
-0.00429536
0.00418828
8.19749e-05
-6.71297e-05
0.00418363
-0.00416667
-6.64523e-06
-1.14584e-05
0.00413045
-0.00412101
-5.07339e-05
-4.79087e-05
0.00411115
-0.00410064
-5.67586e-05
-5.37033e-05
0.00408967
-0.00407802
-6.31715e-05
-5.98741e-05
0.00406587
-0.00405299
-6.9961e-05
-6.64266e-05
0.0040396
-0.00402544
-7.70934e-05
-7.33431e-05
0.00401075
-0.00399527
-8.45129e-05
-8.05781e-05
0.00397925
-0.00396242
-9.21472e-05
-8.80681e-05
0.00394505
-0.00392685
-9.99091e-05
-9.57331e-05
0.0039081
-0.00388853
-0.000107724
-0.00010349
0.00386842
-0.00384748
-0.000115494
-0.000111258
0.00382602
-0.00380375
-0.00012314
-0.000118949
0.00378098
-0.0037574
-0.000130555
-0.00012646
0.00373334
-0.00370851
-0.000137679
-0.000133719
0.00368323
-0.00365719
-0.000144442
-0.000140653
0.00363072
-0.00360352
-0.000150803
-0.000147209
0.00357593
-0.00354765
-0.000156746
-0.000153357
0.003519
-0.00348969
-0.000162273
-0.000159092
0.00346004
-0.00342981
-0.000167425
-0.000164422
0.00336131
-0.00327217
-0.000172267
-0.000169395
0.00324879
-0.00320853
-0.00014606
-0.000118836
-0.000100235
7.35094e-05
-0.00310435
-0.00315743
-0.000151336
0.000121877
-0.00345587
-1.25161e-05
-0.00324455
0.000311139
-0.00315511
4.97577e-05
-0.00322094
0.00420959
-0.0042087
1.0874e-05
0.00420041
-1.62656e-05
2.57233e-05
-1.55012e-05
0.00422154
-1.88329e-05
0.00423284
0.000332922
-0.00276214
8.61417e-05
-0.0031026
-0.00154438
-0.00188896
-0.00278144
0.003235
-5.14379e-05
-8.02269e-05
6.92347e-05
-0.00309336
-0.000127545
-0.00311011
-0.0025489
-0.000521653
-0.00335952
-0.00340612
0.00347817
-7.59708e-05
-1.66067e-05
-0.0035352
0.0035156
-0.000189867
-0.000192541
-0.0034977
0.00352543
-0.000183661
-0.000186222
-0.00355271
0.00357972
-0.000177352
-0.000180037
-0.00360625
0.00363246
-0.000170751
-0.000173584
-0.00365807
0.00368329
-0.000163869
-0.000166863
-0.00370787
0.00373203
-0.000156646
-0.000159821
-0.00375551
0.00377853
-0.000149088
-0.000152443
-0.00380086
0.00382269
-0.000141224
-0.000144745
-0.0038438
0.0038644
-0.000133105
-0.000136769
-0.00388425
0.00390357
-0.000124792
-0.000128572
-0.00392214
0.00394017
-0.000116354
-0.000120217
-0.00395744
0.00397418
-0.000107862
-0.000111776
-0.00399017
0.00400562
-9.94129e-05
-0.00010333
-0.00402033
0.0040345
-9.10968e-05
-9.49766e-05
-0.00404796
0.00406089
-8.29927e-05
-8.67987e-05
-0.00407313
0.00408487
-7.51731e-05
-7.88718e-05
-0.00409595
0.00410655
-6.77009e-05
-7.12635e-05
-0.00411653
0.00412606
-6.06189e-05
-6.40279e-05
-0.00413503
0.00414358
-5.39427e-05
-5.71911e-05
-0.0041855
0.00417871
-1.37521e-05
-5.07657e-05
-1.31787e-05
2.68303e-05
-6.02147e-05
0.0042479
5.57092e-06
1.09336e-06
0.00423201
0.00422809
-5.31964e-06
-1.19741e-06
0.00419274
0.00417866
-3.31487e-05
4.64757e-05
0.00419285
0.00417813
0.00426016
0.00422937
-0.00421004
-7.29125e-06
-0.00418386
0.00423127
3.45623e-05
-2.16247e-05
0.00419003
-0.00414344
-5.32362e-05
-3.14703e-05
0.00413492
-0.00412583
-5.98166e-05
-5.64323e-05
0.00411635
-0.00410624
-6.68633e-05
-6.31924e-05
0.0040957
-0.00408449
-7.43778e-05
-7.04173e-05
0.00407282
-0.00406045
-8.23343e-05
-7.80995e-05
0.00404758
-0.00403399
-9.06845e-05
-8.62033e-05
0.0040199
-0.00400505
-9.93596e-05
-9.46703e-05
0.0039897
-0.00397357
-0.000108276
-0.000103425
0.00395693
-0.0039395
-0.000117338
-0.000112377
0.00392156
-0.00390283
-0.000126451
-0.000121432
0.0038836
-0.00386358
-0.000135509
-0.00013049
0.00384308
-0.00382181
-0.000144411
-0.00013945
0.00380006
-0.00377757
-0.000153052
-0.000148204
0.00375462
-0.00373095
-0.000161353
-0.000156663
0.00370685
-0.00368205
-0.000169242
-0.000164751
0.00365686
-0.00363099
-0.000176669
-0.000172404
0.00360476
-0.00357789
-0.000183611
-0.000179588
0.0035507
-0.00352291
-0.000190061
-0.000186287
0.00349483
-0.00346622
-0.000196035
-0.000192503
0.00343737
-0.00340809
-0.000201549
-0.000198245
0.00332335
-0.00326286
-0.000206557
-0.000203571
0.00320581
-0.00315502
-0.000178331
-0.000208383
-9.751e-05
9.591e-05
-0.00310851
-0.00311308
-0.000139452
9.4149e-05
-0.00323888
1.38854e-05
-0.00320868
1.43902e-05
0.00418711
0.00422174
-9.29537e-06
0.000198521
-0.00302071
-0.000294847
-0.0036641
2.24877e-05
-0.00307947
5.07725e-05
-0.00318557
8.71257e-05
-0.00312049
-0.0036282
-0.000809663
0.00028091
-0.000551006
-0.0033581
-0.000150523
-0.00323266
7.02302e-05
-0.00306768
-0.000130543
5.40306e-05
-0.003032
-0.000123682
-0.00311994
-0.00325149
-0.00308988
0.00325588
-0.000217446
0.00322367
-0.00350749
-0.000525842
-0.000387855
-0.00338391
0.00345958
-0.00015164
-0.00014463
-0.00348595
0.0035123
-0.000216217
-0.000218912
-0.00353838
0.00356431
-0.000209587
-0.000212309
-0.00358984
0.00361516
-0.000202665
-0.000205571
-0.00364002
0.00366459
-0.000195328
-0.000198442
-0.00368864
0.00371235
-0.000187576
-0.000190909
-0.00373548
0.00375822
-0.000179395
-0.000182951
-0.00378036
0.00380208
-0.000170805
-0.000174577
-0.00382315
0.00384377
-0.000161848
-0.000165816
-0.00386372
0.0038832
-0.000152584
-0.000156721
-0.00390199
0.00392028
-0.000143087
-0.000147359
-0.00393788
0.00395497
-0.000133443
-0.00013781
-0.00397135
0.00398723
-0.00012374
-0.000128161
-0.00400241
0.00401708
-0.000114082
-0.000118508
-0.00403106
0.00404453
-0.000104571
-0.000108955
-0.00405733
0.00406964
-9.52996e-05
-9.9599e-05
-0.0040813
0.00409248
-8.63541e-05
-9.05291e-05
-0.00410304
0.00411314
-7.78073e-05
-8.18242e-05
-0.00412266
0.00413176
-6.97144e-05
-7.3549e-05
-0.00414031
0.00414848
-6.21079e-05
-6.57462e-05
-0.00415615
0.0041974
-5.4999e-05
-5.84344e-05
-0.00420689
0.00422279
-5.02677e-06
-2.26738e-05
-0.00417247
0.00419554
-8.67407e-06
3.40549e-05
4.22663e-05
-2.96485e-05
0.00421939
1.94964e-05
-4.81e-05
0.00422414
0.00424888
3.58721e-05
1.09567e-05
0.00420107
0.00423432
-4.91044e-06
-1.20529e-06
0.00419885
0.00418471
7.29195e-06
-1.334e-05
0.0041989
0.00418421
-1.17745e-05
-4.29113e-07
0.00423374
0.00423505
1.32981e-05
-1.32503e-05
0.00422169
0.00424571
0.00424903
-0.00419516
-1.93116e-05
-0.00423473
0.00421575
5.73414e-06
5.00703e-06
0.00419784
-0.00418204
-2.30906e-05
-1.89464e-05
0.00415608
-0.0041483
-6.10101e-05
-5.74332e-05
0.00414017
-0.00413151
-6.84821e-05
-6.4562e-05
0.00412245
-0.00411282
-7.65019e-05
-7.22439e-05
0.00410276
-0.00409208
-8.50597e-05
-8.04716e-05
0.00408096
-0.00406918
-9.41169e-05
-8.9221e-05
0.00405694
-0.00404401
-0.000103613
-9.84435e-05
0.00403061
-0.0040165
-0.000113469
-0.000108069
0.00400191
-0.0039866
-0.000123589
-0.000118012
0.0039708
-0.00395427
-0.000133867
-0.000128171
0.00393727
-0.00391953
-0.000144193
-0.000138438
0.00390132
-0.00388238
-0.000154448
-0.0001487
0.00386299
-0.00384288
-0.000164519
-0.000158841
0.00382234
-0.00380109
-0.000174294
-0.000168746
0.00377944
-0.00375712
-0.00018368
-0.000178316
0.0037344
-0.00371105
-0.0001926
-0.000187462
0.00368733
-0.003663
-0.000200996
-0.000196118
0.00363835
-0.00361313
-0.000208837
-0.000204239
0.00358761
-0.00356157
-0.000216107
-0.000211801
0.00353528
-0.0035085
-0.000222806
-0.000218797
0.00348152
-0.00345412
-0.000228948
-0.000225228
0.00342658
-0.00339865
-0.000234491
-0.000231108
0.00337063
-0.0033094
-0.00023956
-0.000236408
0.0032503
-0.00317113
-0.000202853
-0.000198546
-0.00016969
0.00011377
-0.00306402
-0.00314503
-0.000195795
6.76723e-05
-0.00310803
-0.00351507
-0.000543429
7.00451e-05
-0.00306827
0.00425244
-0.00425813
-2.98563e-06
0.00425374
-4.93986e-05
1.0845e-05
-1.02848e-05
0.00422113
1.72452e-05
0.00420935
1.46787e-05
-0.00317258
5.15283e-05
-0.00314997
-1.0731e-05
-0.00321926
8.77473e-05
-0.00313801
0.000123593
-0.00313724
0.000158952
-0.00307718
-0.000155891
0.000154552
-0.00306268
-0.00021637
-0.00308455
-0.00316913
-0.00350332
0.0033721
-0.000394622
-0.000476492
0.000556589
-0.00359517
0.00361714
-0.00372755
-0.000366079
-0.000429603
-0.00327302
0.00335408
-0.000298509
-0.00028878
-0.00344588
0.00350975
-0.000215504
-0.000236428
-0.00353443
0.00355901
-0.000240798
-0.000243598
-0.00358329
0.00360739
-0.00023369
-0.000236582
-0.00363111
0.00365462
-0.000226173
-0.000229289
-0.0036777
0.00370053
-0.000218157
-0.000221527
-0.00372288
0.00374494
-0.000209629
-0.000213262
-0.00376647
0.00378766
-0.000200589
-0.000204485
-0.0038083
0.00382856
-0.000191069
-0.000195214
-0.00384824
0.00386751
-0.00018112
-0.000185492
-0.00388617
0.0039044
-0.000170813
-0.000175379
-0.00392199
0.00393914
-0.000160233
-0.000164954
-0.00395564
0.00397167
-0.000149479
-0.000154309
-0.00398706
0.00400197
-0.000138656
-0.000143546
-0.00401624
0.00403004
-0.000127879
-0.000132776
-0.00404319
0.00405588
-0.000117259
-0.000122111
-0.00406794
0.00407955
-0.000106903
-0.000111661
-0.00409054
0.0041011
-9.69083e-05
-0.000101527
-0.00411107
0.00412062
-8.73578e-05
-9.17986e-05
-0.00412963
0.00413823
-7.8317e-05
-8.25508e-05
-0.00414632
0.00415404
-6.983e-05
-7.38376e-05
-0.0041613
0.00416821
-6.19139e-05
-6.56899e-05
-0.00420365
0.00422483
-2.62046e-05
-5.81132e-05
7.55428e-07
-5.80701e-06
-2.57943e-05
0.00425099
-1.69625e-06
-3.38261e-05
0.00425966
0.00424137
-1.57779e-05
1.01805e-05
0.00420667
0.00419274
-4.51373e-06
-1.21378e-06
0.00420458
0.00419038
6.91724e-06
-1.25935e-05
0.00420457
0.00418992
-3.10801e-05
1.30355e-05
0.00425179
0.00419137
0.00424846
0.00424692
-0.0042438
-2.24284e-05
-0.00424302
0.00422901
1.97398e-05
8.90886e-06
0.0042057
-0.0041681
-6.06935e-05
-5.70472e-05
0.00416121
-0.00415385
-6.83688e-05
-6.43218e-05
0.00414616
-0.00413797
-7.66802e-05
-7.225e-05
0.00412941
-0.00412029
-8.56153e-05
-8.0805e-05
0.00411079
-0.0041007
-9.51492e-05
-8.99737e-05
0.0040902
-0.00407909
-0.000105233
-9.97198e-05
0.00406754
-0.00405536
-0.000115796
-0.000109984
0.00404274
-0.00402947
-0.000126748
-0.000120688
0.00401575
-0.00400135
-0.000137983
-0.000131732
0.00398651
-0.003971
-0.000149384
-0.000143007
0.00395504
-0.00393841
-0.000160826
-0.000154392
0.00392135
-0.00390362
-0.00017218
-0.00016576
0.00388548
-0.00386668
-0.000183319
-0.000176984
0.00384748
-0.00382765
-0.000194126
-0.00018794
0.00380745
-0.00378663
-0.000204495
-0.000198517
0.00376548
-0.00374373
-0.000214343
-0.000208621
0.00372167
-0.00369907
-0.000223605
-0.000218176
0.00367617
-0.00365277
-0.000232241
-0.00022713
0.00362912
-0.00360499
-0.000240231
-0.000235453
0.00358066
-0.0035559
-0.000247569
-0.000243132
0.00353096
-0.00350564
-0.000254266
-0.000250168
0.00348017
-0.00345435
-0.000260318
-0.000256572
0.00342839
-0.00340213
-0.00026582
-0.00026236
0.00333308
-0.00326526
-0.000270681
-0.000267598
0.00322364
-0.00320515
-0.000234858
-0.000237411
-0.000339883
0.000136799
-0.00302958
-0.0031414
-0.000182795
0.00018463
-0.00308638
-0.00313431
-0.000253638
2.09365e-05
-0.00305892
7.63085e-06
0.00421228
0.0042692
-2.29451e-05
0.000297524
-0.00366949
-0.000355583
1.54064e-05
-0.00313646
0.000366697
-0.00366434
2.35257e-05
-0.00310253
5.18928e-05
-0.00311412
5.07684e-05
-0.00313323
8.82664e-05
-0.00310268
0.000124488
-0.00310277
0.000160155
-0.00308278
0.000162729
-0.00304078
-0.000210075
0.000182545
-0.00305885
-0.000231137
-0.00311325
-0.00313279
-0.00375439
0.00363146
-0.000243146
-0.000441973
-0.00358417
0.000356651
0.0038271
-0.00370364
-0.000565426
-0.000282879
-0.00355587
0.00350432
-0.000343069
-0.000354017
-0.0034941
0.00347222
-0.000276634
-0.000278554
-0.00350893
0.0035642
-0.00027077
-0.000273141
-0.00358698
0.00360965
-0.000263463
-0.000266382
-0.00363199
0.00365416
-0.000255857
-0.000258925
-0.00367596
0.00369756
-0.000247775
-0.000251092
-0.00371877
0.00373975
-0.000239135
-0.000242736
-0.0037603
0.00378058
-0.000229912
-0.00023381
-0.0038004
0.00381992
-0.000220109
-0.000224303
-0.00383894
0.00385763
-0.00020976
-0.000214236
-0.00387579
0.0038936
-0.000198924
-0.000203655
-0.00391085
0.00392771
-0.000187679