/*--------------------------------*- C++ -*----------------------------------*\
  =========                 |
  \\      /  F ield         | OpenFOAM: The Open Source CFD Toolbox
   \\    /   O peration     | Website:  https://openfoam.org
    \\  /    A nd           | Version:  10
     \\/     M anipulation  |
\*---------------------------------------------------------------------------*/
FoamFile
{
    format      ascii;
    class       volVectorField;
    location    "56.5";
    object      U;
}
// * * * * * * * * * * * * * * * * * * * * * * * * * * * * * * * * * * * * * //

dimensions      [0 1 -1 0 0 0 0];

internalField   nonuniform List<vector> 
28942
(
(0.00444511 -0.00226569 -3.43019e-22)
(0.00601567 -0.00235123 -6.37399e-23)
(0.0179518 -0.0123967 -8.22213e-22)
(0.103305 0.0182374 -5.25647e-21)
(0.102343 0.0222796 1.72107e-21)
(0.0158133 0.000502694 0)
(0.018804 7.53514e-05 1.25959e-23)
(0.0217758 0.00064889 -1.11982e-23)
(0.135257 -0.0183054 -2.54525e-22)
(0.133906 -0.0166692 7.24561e-22)
(0.00983278 0.00402381 -6.76575e-22)
(0.0161256 0.00564735 2.56621e-22)
(0.00716307 0.00316172 0)
(0.00472498 0.00207327 0)
(0.0488708 0.00212512 -1.70301e-23)
(0.0469442 0.00275886 -6.56939e-24)
(0.089319 0.0158726 6.67175e-22)
(0.0870069 0.0138414 1.07374e-21)
(0.0121709 -0.0151205 2.90959e-21)
(0.0293461 -0.0304835 -7.65729e-22)
(0.0981274 0.0373709 9.51277e-22)
(0.0973046 0.0344082 0)
(0.0187842 0.00464522 1.16963e-21)
(0.00788436 0.00237214 5.51698e-22)
(0.0378654 0.00723661 9.4689e-22)
(0.0576198 0.00293528 -8.63219e-22)
(0.00764974 -0.0185038 8.501e-21)
(0.00669493 -0.0165672 -3.13123e-21)
(0.0355326 -0.0253365 5.69944e-22)
(0.0193123 -0.0136896 1.96699e-22)
(0.0162134 -0.00149929 0)
(0.0202723 -0.00132233 -1.53666e-23)
(0.0256982 0.00457651 3.1477e-22)
(0.0368964 0.00200423 -5.13174e-23)
(0.0188285 0.0180104 1.31258e-21)
(0.0157218 0.0191192 -1.30295e-21)
(0.0321739 0.0376142 -3.04999e-21)
(0.0186716 0.030531 -1.06784e-21)
(0.00870054 2.04694e-05 -1.05641e-23)
(0.00864968 0.0161958 -2.61271e-21)
(0.0306485 -0.00620325 0)
(0.0513416 -0.0109696 0)
(0.112459 -0.0128343 -2.75255e-23)
(0.111984 -0.0128785 8.14257e-23)
(0.116339 -0.0127384 7.0738e-23)
(0.030641 0.000239671 1.31041e-23)
(0.0285369 -0.000597166 -2.11907e-23)
(0.0406372 -0.000511064 -9.52328e-23)
(0.0389568 -0.000578777 2.70732e-23)
(0.0317278 -0.00288271 -2.32193e-22)
(0.0236855 -0.00349148 1.50264e-22)
(0.128574 0.00148981 -4.00333e-22)
(0.127897 0.00100951 -3.73777e-22)
(0.13458 -0.021085 -3.7842e-24)
(0.133026 -0.0193574 1.38343e-22)
(0.0826648 0.0064214 7.19092e-22)
(0.101925 -0.000690053 2.51395e-22)
(0.00306948 0.00162561 -5.67184e-22)
(0.00897222 0.00369059 0)
(0.00828274 0.00329929 2.38041e-22)
(0.00289288 0.00149294 4.89453e-22)
(0.000364046 0.000227241 -4.06915e-22)
(0.000193917 0.00012311 -3.91099e-22)
(0.109869 -0.0426122 0)
(0.105018 -0.0256035 1.27688e-22)
(0.121889 -0.0330897 -4.40503e-23)
(0.123516 -0.043752 0)
(0.0901242 -0.0328068 -6.37847e-22)
(0.0936298 -0.0352711 -4.1918e-22)
(0.00189283 -0.00113416 1.13411e-21)
(0.00249889 -0.00202429 -3.5736e-22)
(0.00488977 -0.00316686 8.8666e-22)
(0.084903 -0.0457694 0)
(0.0912258 -0.0396276 2.16481e-21)
(0.0805756 -0.0530395 5.84761e-22)
(0.114255 0.0123467 2.3935e-22)
(0.112869 0.00683107 -2.65416e-22)
(0.125228 0.0109192 -1.1413e-22)
(0.00468784 -0.00286451 -5.33097e-23)
(0.00634459 -0.00442996 4.44748e-22)
(0.0510553 -0.0311684 1.24814e-22)
(0.0331877 -0.0205548 -2.56919e-22)
(0.00211774 -0.000599902 3.2114e-21)
(0.00516936 -0.00207965 -1.25134e-21)
(0.101041 0.0482442 1.2838e-23)
(0.0970751 0.0552113 -7.62954e-22)
(0.0807546 0.0540137 6.95999e-22)
(0.0472241 0.0345178 -2.6757e-21)
(0.0444531 0.0316154 1.89488e-21)
(0.0295041 0.020602 -1.13221e-22)
(0.0327249 0.0232547 -6.40241e-22)
(0.0379671 0.0283641 8.67821e-22)
(0.00442535 0.00271467 -5.93783e-23)
(0.00779664 0.00397461 -1.71264e-23)
(0.00319899 0.00201708 3.43195e-23)
(0.00192517 0.00163581 -4.58834e-22)
(0.00144948 0.00155555 5.62696e-22)
(0.0157476 0.0115468 -3.24901e-21)
(0.0175003 0.0136383 7.44073e-22)
(0.00882159 -0.00385643 0)
(0.101389 0.0051598 0)
(0.0984002 0.015684 -3.95655e-21)
(0.0604394 0.0104757 1.93971e-21)
(0.0886788 0.0178817 0)
(0.13557 -0.00132862 0)
(0.135011 -0.00205187 0)
(0.13334 -0.00253711 -2.48719e-22)
(0.114979 0.0265594 -2.11684e-22)
(0.114072 0.0279649 2.09294e-21)
(0.113272 0.025426 1.12311e-21)
(0.00230238 0.00130254 1.05795e-21)
(0.00151667 0.000778099 -1.18744e-21)
(0.0190994 -0.00555897 -5.51886e-22)
(0.0201899 -0.00509293 4.71384e-22)
(0.0091322 -0.00294458 9.31557e-22)
(0.00647699 0.0111409 1.47768e-21)
(0.0189698 0.0181475 3.45387e-21)
(0.0134665 0.0227915 2.72196e-22)
(0.00492116 0.0143002 -8.61552e-21)
(0.11705 0.0477302 5.52788e-23)
(0.107901 0.0582207 1.06569e-21)
(0.118368 0.0548502 -1.83789e-21)
(0.0391119 -0.0294314 7.2894e-22)
(0.0240218 -0.0172733 -4.65544e-22)
(0.00532266 -0.000751015 -4.0993e-21)
(0.00453956 -0.00360117 0)
(0.0124982 -0.00168528 2.0009e-21)
(0.0219751 -0.016138 7.76262e-22)
(0.0342721 -0.027797 -1.94917e-21)
(0.0384638 -1.42223e-05 6.66304e-23)
(0.0408684 0.000149653 -4.78306e-23)
(0.0361446 0.000178649 -2.05809e-24)
(0.0280675 -0.0419685 0)
(0.0296162 -0.0428607 0)
(0.0896204 -0.0186541 -4.62654e-22)
(0.0995881 -0.0220922 3.1435e-21)
(0.0870334 -0.0252789 0)
(0.04714 -0.0402055 0)
(0.058204 -0.0514045 -7.80702e-22)
(0.041319 0.0393369 2.08288e-21)
(-5.00404e-06 0.00021096 5.16839e-22)
(-0.000197212 0.000128656 -3.40736e-22)
(0.0223373 -0.0192496 -7.88883e-22)
(0.120547 -0.0125646 3.99075e-22)
(0.119939 -0.0125492 -7.71669e-23)
(0.115625 -0.00562879 -6.74983e-23)
(0.108572 0.00107673 8.9951e-23)
(0.117834 -0.000196431 1.84953e-22)
(8.10137e-05 0.000258329 1.99397e-22)
(0.0437573 0.034423 3.19895e-21)
(0.0618944 0.0463113 -7.8666e-22)
(0.059335 0.0393732 -3.01006e-24)
(0.0251982 -0.000920001 6.32936e-24)
(0.0248293 -0.000917945 3.36344e-23)
(0.0269246 -0.000714422 1.46998e-24)
(0.0300437 -0.000683542 -1.65306e-23)
(0.0454297 0.0380916 1.33825e-22)
(0.0189656 0.0160607 0)
(0.000144719 -4.04668e-05 3.70704e-22)
(0.000429278 -0.000264953 -4.11268e-22)
(0.00187235 -0.0010302 2.87045e-22)
(0.0366123 -0.0077466 -1.84829e-21)
(0.0649499 -0.00212961 -7.54319e-22)
(0.03487 -0.000277887 -2.29209e-24)
(0.0745668 -0.00763504 2.72251e-22)
(0.0707666 -0.0157325 6.46141e-23)
(0.0943145 0.039895 2.14065e-21)
(0.0914171 0.0454314 9.92727e-23)
(0.0887546 0.0290672 1.21422e-21)
(0.0914802 0.030783 -8.79931e-22)
(0.0987077 0.0410536 0)
(0.126058 -0.000463335 1.49129e-22)
(0.126822 -0.000903631 2.81703e-22)
(0.128086 -0.0122186 -2.9427e-22)
(0.129549 -0.0120157 5.03635e-22)
(0.117058 0.0240959 2.59563e-22)
(0.119117 0.0249918 -7.34999e-22)
(0.117106 0.0261098 0)
(0.115139 0.0248516 1.5303e-22)
(0.116679 0.0280345 0)
(0.117187 0.0360582 -5.50298e-22)
(0.115726 0.0381131 -3.00467e-22)
(0.111353 0.0419324 -5.39786e-22)
(0.113747 0.0400614 0)
(0.11644 0.043035 1.78518e-21)
(0.113717 0.0449615 4.73882e-23)
(0.108347 0.0441464 -3.03262e-22)
(0.0996466 0.0502569 -1.28522e-21)
(0.0984332 0.0454689 -2.26453e-22)
(0.0250655 -0.00854491 6.00944e-23)
(0.0329534 -0.00941232 -2.39849e-23)
(0.00631032 -0.00250423 -6.96037e-22)
(0.0342412 -7.32687e-05 -4.31391e-23)
(0.0437262 -0.000292712 0)
(-1.48646e-06 -4.21542e-05 4.35492e-22)
(1.43978e-05 -4.84223e-05 2.21859e-22)
(0.0396052 -0.0019509 1.98185e-23)
(0.0466784 -0.00189699 7.95891e-24)
(0.0461898 -0.00129632 0)
(0.0383264 -0.000875042 8.73328e-24)
(0.0918288 0.0042452 -1.19086e-22)
(0.0912099 0.00381641 5.63427e-22)
(0.0921224 0.0039686 2.60932e-22)
(0.000672083 0.000270664 3.95508e-22)
(-0.000160207 -0.00013004 -5.72822e-22)
(-0.000202182 -0.000170011 4.88569e-22)
(0.00150591 0.000620258 0)
(8.0941e-05 8.85544e-05 1.14457e-21)
(0.000173242 -3.85271e-05 -8.25821e-22)
(0.00746619 0.00368241 -9.96282e-22)
(0.00145673 0.000784042 -1.18866e-21)
(0.00172563 0.000863235 0)
(0.00157206 0.00753976 0)
(0.000576989 0.00327953 0)
(0.000313306 0.00197564 0)
(0.136723 -0.00135574 5.57606e-23)
(0.137715 -0.00120125 0)
(0.136102 -0.00214992 -6.5031e-23)
(0.0881179 -0.0148602 4.42034e-21)
(0.0901244 -0.0152681 -1.60457e-21)
(0.0890393 -0.0128847 0)
(0.107255 0.000232841 -6.97353e-24)
(0.107886 0.000227411 1.39575e-23)
(0.106605 0.000239354 -4.72803e-24)
(0.108497 0.000224497 0)
(0.109089 0.000228571 -8.86699e-24)
(0.109658 0.00022679 0)
(0.109653 -0.000370605 0)
(0.110204 0.000213601 3.27734e-23)
(0.11019 -0.00037011 0)
(0.10909 -0.000382728 -8.93008e-24)
(0.108498 -0.000399954 0)
(0.107887 -0.000417158 4.66887e-24)
(0.107252 -0.000438088 -6.97497e-24)
(0.106606 -0.000456722 4.72212e-24)
(0.110722 0.000198693 -3.13614e-23)
(0.110708 -0.000363259 -1.09521e-24)
(0.105931 0.000250044 5.48341e-28)
(0.105928 -0.000468966 -7.22935e-24)
(0.105231 0.000259531 3.84989e-23)
(0.111216 0.000190473 2.92284e-26)
(0.111214 -0.000347936 -1.09175e-24)
(0.105232 -0.000488879 1.42604e-23)
(0.111695 0.000181436 2.93527e-23)
(0.112153 0.000174391 -2.93285e-23)
(0.111696 -0.000333575 2.20278e-24)
(0.112155 -0.000318103 4.33661e-24)
(0.104535 0.000282792 -3.74575e-23)
(0.10453 -0.000507502 -9.38954e-24)
(0.112591 0.00016596 0)
(0.112594 -0.000303917 -4.27732e-24)
(0.103803 0.000294113 4.63855e-27)
(0.1038 -0.000518729 -4.65017e-27)
(0.11301 0.000159111 0)
(0.113013 -0.000288978 0)
(0.103052 0.000301284 0)
(0.103049 -0.000533268 0)
(0.113408 0.000150786 0)
(0.113412 -0.000275457 2.04248e-24)
(0.102282 0.00030872 -1.94856e-23)
(0.102279 -0.00054557 -4.75432e-27)
(0.113788 0.000143878 1.06956e-25)
(0.113791 -0.00026131 -2.18124e-24)
(0.101494 0.000314077 1.95788e-23)
(0.101492 -0.000558907 0)
(0.114148 0.000135563 0)
(0.114151 -0.00024844 0)
(0.10069 0.000320306 -1.23924e-24)
(0.100687 -0.000568633 2.12681e-23)
(0.114491 0.000128615 1.31595e-23)
(0.114494 -0.000234759 0)
(0.0998712 0.000324058 -1.10029e-25)
(0.0998674 -0.000577633 -2.01298e-23)
(0.114815 0.000120351 -1.96711e-23)
(0.114818 -0.000222388 -5.70359e-24)
(0.0990212 0.000318926 2.05245e-23)
(0.0990211 -0.000585477 0)
(0.115123 0.000113772 6.47108e-24)
(0.115127 -0.000207603 3.80268e-24)
(0.0981602 0.000322499 -1.03849e-23)
(0.0981603 -0.000595859 2.10567e-23)
(0.115412 0.000108565 -2.57762e-23)
(0.115422 -0.000189253 2.90521e-23)
(0.0972559 0.000307276 1.07022e-23)
(0.097266 -0.000610993 3.38634e-25)
(0.115689 0.000104383 0)
(0.115699 -0.000172904 1.38227e-23)
(0.0963359 0.000293744 -2.15179e-23)
(0.096353 -0.000633839 4.3042e-23)
(0.115961 9.59351e-05 0)
(0.115963 -0.000161235 0)
(0.0974363 0.00122018 -1.05898e-23)
(0.0965155 0.00122061 -4.2821e-23)
(0.0953826 0.000272956 0)
(0.0954174 -0.000669489 -2.19123e-23)
(0.0991981 0.00120606 -6.65321e-24)
(0.0983243 0.00121514 1.30656e-24)
(0.100855 0.00116771 0)
(0.100029 0.00118761 -2.14905e-23)
(0.102437 0.00112012 -4.14635e-26)
(0.101655 0.00114475 0)
(0.103945 0.00106637 0)
(0.1032 0.00109396 0)
(0.105382 0.00100033 0)
(0.104671 0.00103618 0)
(0.106715 0.000934262 9.32898e-24)
(0.106053 0.000966454 2.35625e-24)
(0.107982 0.000878008 -8.98434e-24)
(0.107364 0.000905567 -9.32072e-24)
(0.109164 0.000825561 1.58889e-23)
(0.108579 0.00084603 2.03395e-23)
(0.110274 0.000774942 0)
(0.109728 0.000803689 0)
(0.111288 0.000718859 -6.93235e-26)
(0.110792 0.000746925 0)
(0.112216 0.000660387 0)
(0.111762 0.000689688 0)
(0.113065 0.000601979 0)
(0.112651 0.000631014 0)
(0.113836 0.00054492 0)
(0.11346 0.000573185 0)
(0.114532 0.000489718 0)
(0.114193 0.000517032 0)
(0.115158 0.000436564 0)
(0.114853 0.00046283 0)
(0.115723 0.00037715 -1.05112e-23)
(0.115446 0.000410443 0)
(0.115987 0.000348607 -3.38784e-24)
(0.116214 8.54319e-05 3.3044e-24)
(0.116215 -0.000152344 -3.27691e-24)
(0.115452 -0.00047051 0)
(0.115989 -0.000413909 -1.34585e-23)
(0.115727 -0.000440672 -6.94922e-24)
(0.114852 -0.000534379 1.91269e-24)
(0.11516 -0.000502629 -7.47278e-24)
(0.11419 -0.000597594 6.22021e-26)
(0.11453 -0.000566413 0)
(0.113456 -0.000661986 0)
(0.113832 -0.000629315 0)
(0.112645 -0.000729941 0)
(0.11306 -0.000695468 0)
(0.111754 -0.000801449 0)
(0.11221 -0.000765196 8.26968e-30)
(0.110779 -0.000876948 7.0176e-26)
(0.111277 -0.000838556 0)
(0.109727 -0.000948483 0)
(0.110261 -0.000914249 0)
(0.108586 -0.00101851 0)
(0.109164 -0.000983373 0)
(0.107356 -0.00109411 0)
(0.107981 -0.00105352 -4.71522e-24)
(0.106045 -0.00117437 1.247e-24)
(0.106708 -0.00113842 -6.09784e-24)
(0.10466 -0.00125581 0)
(0.105367 -0.00121275 -4.97053e-24)
(0.103192 -0.00132658 0)
(0.103936 -0.00129212 0)
(0.101647 -0.00139065 0)
(0.102429 -0.0013594 0)
(0.100027 -0.00144591 0)
(0.100847 -0.00141948 0)
(0.098331 -0.00149241 -5.44162e-24)
(0.09919 -0.00146842 0)
(0.0965657 -0.00155125 -2.20205e-23)
(0.0974585 -0.00151635 -5.46686e-24)
(0.095645 -0.00158984 2.24011e-23)
(0.0955728 0.00122267 4.24422e-23)
(0.116237 0.000322931 6.62049e-24)
(0.116237 -0.00038858 -1.29132e-23)
(0.0944498 -0.000716927 0)
(0.0947067 -0.0016438 0)
(0.09461 0.00122508 0)
(0.0944086 0.000244082 0)
(0.0978028 0.00211432 0)
(0.0959951 0.0021677 1.06232e-23)
(0.0969083 0.00213924 1.07433e-23)
(0.0995346 0.00205163 1.36592e-23)
(0.0986783 0.00208554 -2.72979e-24)
(0.101163 0.00197176 4.22212e-26)
(0.100359 0.00201287 0)
(0.102718 0.00188611 0)
(0.10195 0.00192962 0)
(0.104199 0.00179513 0)
(0.103468 0.00184126 0)
(0.105606 0.00170078 0)
(0.104912 0.00174776 0)
(0.106931 0.00160173 0)
(0.106278 0.00165287 0)
(0.108172 0.00150512 -3.76264e-26)
(0.107558 0.00155512 9.71819e-24)
(0.109327 0.00140418 -3.59888e-26)
(0.108764 0.00145277 -1.89176e-23)
(0.110412 0.00130037 0)
(0.109878 0.00135176 0)
(0.11141 0.00119985 3.4617e-26)
(0.110922 0.00124983 0)
(0.112324 0.00110039 0)
(0.111877 0.00114998 0)
(0.113159 0.00100265 0)
(0.112751 0.00105121 0)
(0.113917 0.000907817 0)
(0.113548 0.000954796 0)
(0.114603 0.000816704 0)
(0.114269 0.000861756 0)
(0.115219 0.000729261 0)
(0.114919 0.000772615 0)
(0.115775 0.000639024 7.18113e-24)
(0.115503 0.000684937 0)
(0.116452 7.71875e-05 0)
(0.116471 0.000298804 6.45254e-24)
(0.116279 0.00055488 0)
(0.116033 0.000595945 6.98569e-24)
(0.116035 -0.000663439 1.39172e-23)
(0.116278 -0.000623513 3.40969e-24)
(0.116471 -0.000366969 2.65835e-23)
(0.116452 -0.00014299 0)
(0.115505 -0.000751447 0)
(0.115777 -0.000706207 -2.10165e-23)
(0.114916 -0.000845987 6.02154e-26)
(0.115219 -0.000797279 7.51823e-24)
(0.114264 -0.000942525 -6.22019e-26)
(0.114599 -0.000893814 0)
(0.113541 -0.00104386 0)
(0.113912 -0.000992492 0)
(0.112743 -0.00115068 0)
(0.113152 -0.00109659 0)
(0.111867 -0.00126258 0)
(0.112315 -0.00120602 -8.26965e-30)
(0.11091 -0.00137894 -1.40275e-25)
(0.111398 -0.00132026 0)
(0.109873 -0.00149645 0)
(0.110402 -0.00143793 0)
(0.10875 -0.00161498 2.37721e-24)
(0.109323 -0.00155545 0)
(0.107548 -0.00173108 0)
(0.10816 -0.00167077 -2.36729e-24)
(0.106263 -0.00185088 4.97831e-24)
(0.106911 -0.00179248 4.94043e-24)
(0.104897 -0.00196439 0)
(0.10559 -0.00190828 0)
(0.103454 -0.00207291 0)
(0.104185 -0.00201944 0)
(0.101936 -0.00217446 0)
(0.102704 -0.00212461 0)
(0.100345 -0.00226825 0)
(0.101149 -0.00222225 0)
(0.0986835 -0.00235479 8.69452e-26)
(0.0995229 -0.00231227 0)
(0.096955 -0.00243508 -8.80778e-26)
(0.0978287 -0.00239593 0)
(0.095155 -0.0025415 -2.30189e-23)
(0.0960618 -0.00248605 2.30083e-23)
(0.0950611 0.00219524 2.15884e-23)
(0.0937558 -0.00170848 0)
(0.0942305 -0.00260941 -4.67193e-23)
(0.0934772 -0.00076973 0)
(0.116509 0.000519284 0)
(0.116509 -0.000585495 -3.30306e-24)
(0.0936346 0.00122948 5.46627e-23)
(0.0941145 0.00222364 2.1848e-23)
(0.0927837 -0.00177321 1.18203e-23)
(0.0932908 -0.00268259 5.90372e-23)
(0.0934157 0.000212827 0)
(0.11634 0.000786296 2.72739e-23)
(0.116564 0.000735197 -1.34612e-23)
(0.11669 -0.000345219 -6.53044e-24)
(0.116726 -0.000548338 3.24492e-23)
(0.0948428 0.00318437 7.66196e-23)
(0.0931394 0.00225205 -4.30458e-23)
(0.0929345 0.00328118 -1.91575e-22)
(0.0938914 0.00322565 -4.37335e-23)
(0.0966392 0.00308492 2.1366e-23)
(0.0957498 0.00313685 -6.52282e-23)
(0.0983636 0.00297899 -2.18733e-23)
(0.0975112 0.00303305 -1.6481e-23)
(0.100031 0.00287093 -5.46078e-24)
(0.0992073 0.00292753 -5.45883e-24)
(0.101617 0.00275668 -4.22212e-26)
(0.100835 0.00281506 0)
(0.103128 0.00263481 0)
(0.102381 0.00269652 0)
(0.104569 0.00250698 0)
(0.103857 0.00257162 0)
(0.105936 0.00237419 0)
(0.105261 0.00244103 0)
(0.107226 0.00223836 0)
(0.10659 0.00230653 0)
(0.108435 0.0020989 0)
(0.10784 0.0021692 0)
(0.109565 0.0019579 6.03806e-29)
(0.109011 0.00202878 0)
(0.110616 0.00181353 0)
(0.1101 0.00188562 0)
(0.111589 0.00167144 3.45398e-26)
(0.111113 0.00174215 0)
(0.112481 0.00153185 0)
(0.112045 0.00160132 0)
(0.113296 0.00139554 0)
(0.112898 0.00146321 0)
(0.114036 0.00126375 0)
(0.113675 0.00132901 0)
(0.114706 0.00113751 0)
(0.11438 0.00119989 0)
(0.115308 0.00101691 0)
(0.115015 0.0010766 0)
(0.11585 0.000897963 3.6586e-24)
(0.115587 0.000957081 -1.842e-24)
(0.116102 0.000841118 -1.39236e-23)
(0.116672 7.13614e-05 -3.09331e-24)
(0.116725 0.000484376 1.29226e-23)
(0.11669 0.000278358 -9.89913e-24)
(0.116672 -0.000137834 0)
(0.116102 -0.000908675 -1.03406e-23)
(0.116564 -0.000800159 -2.9771e-23)
(0.11634 -0.000853574 2.40194e-23)
(0.115585 -0.0010286 0)
(0.11585 -0.000966705 0)
(0.115011 -0.00115087 -5.13879e-29)
(0.115306 -0.00108761 0)
(0.114373 -0.00128097 0)
(0.1147 -0.00121509 0)
(0.113667 -0.00141836 -6.40679e-26)
(0.114029 -0.00134873 0)
(0.112888 -0.00156301 0)
(0.113287 -0.00148984 0)
(0.112033 -0.001714 0)
(0.11247 -0.0016378 0)
(0.1111 -0.00186997 7.01095e-26)
(0.111576 -0.00179148 0)
(0.110089 -0.0020284 7.20128e-26)
(0.110604 -0.00194906 0)
(0.108996 -0.00218849 0)
(0.109552 -0.00210827 0)
(0.107823 -0.0023475 0)
(0.10842 -0.00226816 0)
(0.106572 -0.00250498 0)
(0.107207 -0.00242683 0)
(0.105243 -0.00265673 0)
(0.105917 -0.00258135 0)
(0.103838 -0.0028027 -8.16008e-26)
(0.10455 -0.00273063 0)
(0.102361 -0.00294068 0)
(0.103108 -0.00287277 0)
(0.100814 -0.00306975 0)
(0.101596 -0.00300635 0)
(0.0991997 -0.00318976 -1.93648e-28)
(0.100015 -0.00313085 0)
(0.0975221 -0.00330085 2.20471e-28)
(0.0983689 -0.00324645 0)
(0.0957851 -0.00341434 9.07925e-26)
(0.0966586 -0.00335421 0)
(0.0939903 -0.00355399 -4.76436e-23)
(0.0948932 -0.00347993 1.17289e-23)
(0.0923389 -0.00275185 1.19858e-23)
(0.0930879 -0.00363282 2.38314e-23)
(0.0926439 0.00122698 -2.14208e-23)
(0.092481 -0.000824781 -2.28903e-23)
(0.116776 0.000686555 3.28842e-24)
(0.116777 -0.000751672 2.33901e-23)
(0.0921162 0.00225759 2.65889e-24)
(0.0917984 -0.00184475 0)
(0.0917325 0.00317506 2.93526e-22)
(0.0921778 -0.00370923 3.65189e-23)
(0.0913909 -0.00282278 4.87923e-23)
(0.0929381 0.00444879 -4.84932e-22)
(0.0924468 0.00461579 8.87281e-23)
(0.0924286 0.000186399 0)
(0.0941262 0.00424683 4.90722e-23)
(0.0934287 0.00437652 2.50406e-23)
(0.0957802 0.00409089 4.43481e-23)
(0.0949169 0.00415631 -6.75506e-23)
(0.0974769 0.00395303 -2.21149e-23)
(0.0966399 0.00402536 -1.10151e-23)
(0.0991099 0.00381187 1.10937e-23)
(0.0983005 0.00388226 1.12283e-23)
(0.100691 0.00366527 0)
(0.0999053 0.0037384 -1.80637e-26)
(0.102209 0.00351532 0)
(0.101459 0.00359116 0)
(0.103663 0.00335876 4.11626e-26)
(0.102944 0.00343786 0)
(0.105049 0.00319553 0)
(0.104364 0.003278 0)
(0.106365 0.00302608 0)
(0.105716 0.0031115 0)
(0.107608 0.0028519 0)
(0.106996 0.00293954 0)
(0.108776 0.0026737 3.74293e-26)
(0.108202 0.00276328 0)
(0.109868 0.00249294 6.75144e-29)
(0.109332 0.0025836 0)
(0.110883 0.00231035 0)
(0.110384 0.00240166 0)
(0.111822 0.00212914 -6.90235e-26)
(0.111362 0.00221944 0)
(0.112685 0.00195103 0)
(0.112263 0.00203962 0)
(0.113474 0.00177745 0)
(0.113089 0.00186358 0)
(0.114191 0.0016099 0)
(0.113841 0.00169284 0)
(0.11484 0.00144967 0)
(0.114524 0.00152881 0)
(0.115424 0.00129723 0)
(0.11514 0.00137254 0)
(0.11595 0.0011516 -1.82658e-24)
(0.115694 0.00122283 0)
(0.116422 0.00101307 0)
(0.116192 0.0010811 -3.53529e-24)
(0.116844 0.000884175 -8.40015e-28)
(0.116639 0.000947359 0)
(0.116927 0.000451553 -1.31021e-23)
(0.117039 0.000826734 7.89698e-25)
(0.116976 0.000641894 6.40594e-24)
(0.116876 6.42393e-05 4.71096e-24)
(0.116894 0.000258437 -3.25179e-24)
(0.116895 -0.000324839 -1.63741e-24)
(0.116877 -0.000131039 1.63418e-24)
(0.116975 -0.00070714 0)
(0.116927 -0.000517183 -1.48869e-23)
(0.116639 -0.00101361 -6.69543e-24)
(0.117037 -0.000895233 -1.27912e-23)
(0.116844 -0.000952041 2.93887e-23)
(0.116191 -0.00114885 -3.52393e-24)
(0.116421 -0.00107977 0)
(0.11569 -0.00129482 0)
(0.115947 -0.00122005 0)
(0.115134 -0.00144772 -6.59917e-29)
(0.11542 -0.00137006 0)
(0.114516 -0.00161039 0)
(0.114833 -0.00152787 0)
(0.113832 -0.00178265 6.40679e-26)
(0.114183 -0.00169536 0)
(0.113077 -0.0019638 0)
(0.113464 -0.00187221 0)
(0.11225 -0.00215249 0)
(0.112673 -0.00205733 0)
(0.111348 -0.00234687 0)
(0.111808 -0.00224912 0)
(0.11037 -0.00254463 -1.20403e-28)
(0.110869 -0.00244549 0)
(0.109315 -0.00274398 0)
(0.109852 -0.00264425 0)
(0.108183 -0.0029423 0)
(0.108758 -0.00284336 0)
(0.106975 -0.00313773 0)
(0.107588 -0.00304066 0)
(0.105693 -0.00332722 0)
(0.106343 -0.00323324 0)
(0.10434 -0.00350936 8.16008e-26)
(0.105026 -0.00341936 0)
(0.102918 -0.00368223 0)
(0.103637 -0.00359705 0)
(0.101429 -0.00384478 0)
(0.102181 -0.00376485 0)
(0.0998772 -0.00399667 -8.67433e-26)
(0.100661 -0.00392206 0)
(0.0982662 -0.00413779 8.8299e-26)
(0.0990789 -0.00406861 0)
(0.0965994 -0.00427026 -8.97666e-26)
(0.0974391 -0.00420482 0)
(0.0948884 -0.004405 1.17736e-23)
(0.095746 -0.00433387 -2.32377e-23)
(0.0931608 -0.00455994 -1.18299e-23)
(0.0940233 -0.00447913 2.40584e-23)
(0.0912543 -0.00377906 2.74482e-25)
(0.0922842 -0.0046363 2.42014e-23)
(0.0916318 0.00120316 -2.19081e-23)
(0.091484 -0.000864351 0)
(0.091094 0.00220288 -2.11088e-22)
(0.0908097 -0.00189186 0)
(0.11693 0.0010803 -3.27995e-24)
(0.117116 0.00100851 2.4029e-24)
(0.117161 -0.000664906 -1.25302e-23)
(0.11722 -0.0008381 -1.41947e-23)
(0.0906068 0.00307672 -2.05911e-22)
(0.0904316 -0.00288743 -4.92696e-23)
(0.0914837 0.00454692 0)
(0.094046 0.0052831 -5.6102e-23)
(0.0903292 -0.00384664 -2.41632e-23)
(0.0913976 -0.00470599 3.65305e-23)
(0.0932723 0.00527203 1.12738e-22)
(0.0914247 0.000159114 0)
(0.0953482 0.00509336 0)
(0.09467 0.00519672 -5.00678e-23)
(0.0968895 0.00492546 0)
(0.0961008 0.00500866 0)
(0.0984684 0.00476005 0)
(0.0976821 0.00484174 1.14118e-23)
(0.1 0.00459312 0)
(0.0992391 0.00467743 0)
(0.101491 0.00441927 0)
(0.100751 0.00450666 0)
(0.10293 0.0042394 0)
(0.102218 0.00433038 0)
(0.104312 0.00405134 -4.11626e-26)
(0.103629 0.00414641 0)
(0.105632 0.00385505 0)
(0.10498 0.00395423 0)
(0.106887 0.0036511 0)
(0.106268 0.00375397 0)
(0.108074 0.00344086 0)
(0.10749 0.00354669 0)
(0.109191 0.00322578 -8.79619e-29)
(0.108642 0.00333387 0)
(0.110235 0.00300762 8.01757e-29)
(0.109722 0.00311698 0)
(0.111207 0.002788 0)
(0.11073 0.00289784 0)
(0.112106 0.00256966 6.7173e-29)
(0.111666 0.00267853 0)
(0.112934 0.0023549 0)
(0.112529 0.00246172 0)
(0.113691 0.00214569 0)
(0.113321 0.00224949 0)
(0.11438 0.00194389 0)
(0.114044 0.00204377 0)
(0.115004 0.00175109 0)
(0.1147 0.0018463 0)
(0.115566 0.00156828 0)
(0.115292 0.00165842 0)
(0.116071 0.00139578 0)
(0.115825 0.00148073 0)
(0.116524 0.00123228 3.49986e-24)
(0.116304 0.00131167 3.58897e-24)
(0.116733 0.00115398 -6.70363e-24)
(0.117115 0.000420658 -6.41554e-24)
(0.117221 0.000773172 0)
(0.117161 0.000597942 -6.4807e-24)
(0.117067 5.79716e-05 0)
(0.117082 0.000240644 6.54748e-24)
(0.117084 -0.000306926 9.77432e-24)
(0.117067 -0.000125133 -3.30395e-24)
(0.117116 -0.000486571 -1.92166e-23)
(0.116732 -0.00122164 3.37157e-24)
(0.117116 -0.00107411 1.2489e-23)
(0.116929 -0.00114897 0)
(0.116301 -0.0013808 -7.0047e-24)
(0.116523 -0.00129992 7.02785e-24)
(0.11582 -0.00155227 0)
(0.116067 -0.00146559 0)
(0.115285 -0.00173431 -8.0285e-29)
(0.11556 -0.00164178 0)
(0.114691 -0.00192842 0)
(0.114996 -0.0018299 0)
(0.114034 -0.00213408 0)
(0.114371 -0.00202988 0)
(0.113309 -0.00235013 0)
(0.11368 -0.00224092 0)
(0.112515 -0.00257484 0)
(0.112921 -0.00246155 0)
(0.111651 -0.00280603 6.97836e-26)
(0.112092 -0.00268979 0)
(0.110713 -0.0030412 -7.18924e-26)
(0.111191 -0.00292329 0)
(0.109703 -0.00327798 0)
(0.110217 -0.00315957 0)
(0.108621 -0.0035135 0)
(0.109171 -0.00339605 0)
(0.107467 -0.0037452 0)
(0.108053 -0.00363007 0)
(0.106244 -0.00397026 0)
(0.106864 -0.00385869 0)
(0.104953 -0.00418661 0)
(0.105606 -0.00407968 0)
(0.103597 -0.00439231 0)
(0.104283 -0.0042909 0)
(0.10218 -0.0045861 -8.46181e-26)
(0.102896 -0.00449076 0)
(0.100705 -0.00476743 8.62223e-26)
(0.10145 -0.00467835 0)
(0.099176 -0.00493616 -8.77393e-26)
(0.099947 -0.00485339 0)
(0.0975976 -0.00509294 0)
(0.0983925 -0.00501597 0)
(0.0959756 -0.00523881 0)
(0.0967912 -0.00516695 0)
(0.0943286 -0.00537893 9.28545e-26)
(0.0951568 -0.00530864 1.18205e-23)
(0.0926605 -0.00552622 -6.12218e-23)
(0.093492 -0.0054508 0)
(0.0905194 -0.00478298 -3.63223e-23)
(0.0918257 -0.00560168 -2.52835e-25)
(0.0906196 0.00117441 6.83895e-23)
(0.0904771 -0.000895797 0)
(0.117293 0.000941414 -1.24631e-23)
(0.117292 -0.00100858 -2.40847e-23)
(0.0899867 0.00212763 -3.60996e-23)
(0.0904588 0.00396978 7.65015e-25)
(0.0895727 0.00299498 1.02834e-22)
(0.0898232 -0.00192518 0)
(0.0894603 -0.00292786 1.22943e-23)
(0.0921228 0.00522352 -1.04487e-22)
(0.0910828 0.00510162 8.96704e-23)
(0.0898163 0.00410867 -8.84511e-23)
(0.0893929 -0.00389931 -3.68598e-23)
(0.0896249 -0.00484757 2.45234e-23)
(0.090998 -0.0056875 2.40912e-23)
(0.0904097 0.000132052 0)
(0.0952757 0.00602711 3.13565e-24)
(0.0934868 0.00606393 3.12384e-25)
(0.0944296 0.00603338 2.4402e-23)
(0.0966605 0.00587143 2.42323e-23)
(0.0959759 0.00595829 -2.43581e-23)
(0.0981156 0.00568941 4.48592e-26)
(0.0973723 0.00578022 0)
(0.0995828 0.00551035 0)
(0.098853 0.00559977 0)
(0.101017 0.0053247 0)
(0.100304 0.00541882 0)
(0.102414 0.005129 0)
(0.101721 0.00522798 0)
(0.103766 0.00492333 4.17578e-26)
(0.103096 0.00502753 0)
(0.105066 0.00470697 0)
(0.104423 0.00481648 0)
(0.10631 0.00448034 0)
(0.105695 0.00459491 0)
(0.107495 0.0042444 0)
(0.10691 0.00436346 0)
(0.108617 0.0040007 0)
(0.108064 0.00412342 0)
(0.109673 0.00375115 -3.73413e-26)
(0.109153 0.00387655 0)
(0.110663 0.00349792 9.28417e-29)
(0.110177 0.00362486 0)
(0.111585 0.00324326 0)
(0.111132 0.00337061 0)
(0.112438 0.00298993 6.87554e-26)
(0.11202 0.00311627 0)
(0.113225 0.00274061 0)
(0.11284 0.00286463 0)
(0.113945 0.00249772 0)
(0.113593 0.00261823 0)
(0.114601 0.00226347 0)
(0.114281 0.0023794 0)
(0.115196 0.00203974 0)
(0.114906 0.0021502 0)
(0.115731 0.00182791 0)
(0.115471 0.00193229 0)
(0.116213 0.00162872 5.7138e-26)
(0.115979 0.00172671 0)
(0.116645 0.00144158 -3.51515e-24)
(0.116435 0.00153392 0)
(0.117032 0.00126527 3.33654e-24)
(0.116844 0.00135168 0)
(0.117378 0.00110304 3.16964e-24)
(0.117209 0.00118276 -3.24832e-24)
(0.117389 0.000720702 6.26609e-24)
(0.117536 0.00102838 0)
(0.117458 0.000878369 9.32955e-24)
(0.117288 0.000392194 0)
(0.117332 0.000557791 0)
(0.117243 5.20992e-05 0)
(0.117258 0.000223017 0)
(0.11726 -0.0002898 0)
(0.117244 -0.000119421 0)
(0.117333 -0.00062545 1.27704e-23)
(0.117289 -0.000458982 3.17098e-24)
(0.117455 -0.000946682 3.13364e-24)
(0.117388 -0.000787777 2.50027e-23)
(0.117209 -0.0012518 1.63211e-23)
(0.117534 -0.0011017 3.11506e-24)
(0.117376 -0.00117412 -6.34147e-24)
(0.116842 -0.00142073 3.35684e-24)
(0.11703 -0.00133427 -2.01262e-23)
(0.116432 -0.00160345 -7.10872e-29)
(0.116643 -0.00151008 0)
(0.115973 -0.00179893 0)
(0.116208 -0.00169935 0)
(0.115463 -0.00200882 -9.43939e-29)
(0.115725 -0.00190209 0)
(0.114896 -0.00223288 0)
(0.115187 -0.00211915 0)
(0.11427 -0.00247021 0)
(0.114591 -0.00234999 0)
(0.11358 -0.00271929 0)
(0.113933 -0.00259342 0)
(0.112826 -0.00297806 0)
(0.113211 -0.00284763 0)
(0.112004 -0.00324403 -1.39413e-25)
(0.112423 -0.00311034 0)
(0.111115 -0.00351443 0)
(0.111568 -0.00337888 0)
(0.110157 -0.00378637 0)
(0.110645 -0.00365042 0)
(0.109133 -0.00405673 0)
(0.109653 -0.00392195 0)
(0.108041 -0.00432247 0)
(0.108595 -0.0041904 0)
(0.106885 -0.00458064 -7.91396e-26)
(0.107471 -0.00445267 0)
(0.105667 -0.00482879 0)
(0.106284 -0.00470613 0)
(0.10439 -0.00506483 0)
(0.105036 -0.00494845 0)
(0.103056 -0.00528726 8.46181e-26)
(0.10373 -0.00517782 0)
(0.10167 -0.00549527 -3.22778e-28)
(0.102369 -0.00539311 0)
(0.100235 -0.00568856 1.75136e-25)
(0.100958 -0.00559378 0)
(0.0987571 -0.00586721 0)
(0.0995012 -0.00577972 0)
(0.0972406 -0.00603139 0)
(0.0980031 -0.00595095 0)
(0.0956921 -0.00618006 -4.1062e-28)
(0.0964705 -0.00610828 0)
(0.094117 -0.00631802 0)
(0.0949064 -0.00624968 0)
(0.0925501 -0.00646787 -3.62544e-23)
(0.0933312 -0.00639062 0)
(0.0901576 -0.00576294 -2.30608e-25)
(0.0917714 -0.00655082 6.13634e-23)
(0.0895618 0.00112888 0)
(0.0925521 0.00604739 1.41419e-22)
(0.0889314 0.00205449 2.46707e-23)
(0.117476 0.00126094 -3.16368e-24)
(0.117626 0.00117829 0)
(0.117609 -0.000889318 3.04733e-24)
(0.117682 -0.00103161 -6.04561e-24)
(0.0894669 -0.000921991 0)
(0.0888269 -0.00194839 0)
(0.0886844 0.00307365 0)
(0.0884833 -0.00295739 -1.21088e-23)
(0.0884488 -0.00395138 -2.42673e-23)
(0.0887244 -0.00491494 0)
(0.0893072 -0.00583649 6.21618e-23)
(0.0909789 -0.00662882 -4.9492e-23)
(0.08938 0.000103243 0)
(0.0951106 0.00684566 -1.17182e-26)
(0.0915583 0.00599252 4.42803e-23)
(0.093405 0.0069035 -1.57696e-22)
(0.0942594 0.00689108 4.62709e-23)
(0.0967012 0.0067407 -1.51219e-23)
(0.095916 0.00677709 -2.4194e-23)
(0.0980811 0.00659324 0)
(0.0974072 0.006678 0)
(0.0994512 0.00640182 -4.48551e-26)
(0.0987579 0.00649731 0)
(0.100816 0.00620968 0)
(0.100138 0.00630654 0)
(0.102149 0.00600704 0)
(0.101487 0.00610996 0)
(0.103446 0.00579149 0)
(0.102802 0.00590087 0)
(0.104703 0.00556286 -4.17578e-26)
(0.10408 0.00567886 0)
(0.105913 0.00532108 0)
(0.105314 0.00544359 0)
(0.107073 0.00506695 0)
(0.1065 0.0051955 0)
(0.108179 0.00480177 0)
(0.107633 0.00493565 0)
(0.109228 0.00452739 0)
(0.108711 0.00466561 0)
(0.110218 0.00424607 3.71263e-26)
(0.109731 0.00438746 0)
(0.111146 0.00396038 1.04529e-28)
(0.11069 0.00410362 0)
(0.112011 0.00367307 0)
(0.111586 0.00381676 0)
(0.112814 0.00338714 -8.7621e-29)
(0.11242 0.00352976 0)
(0.113554 0.00310558 0)
(0.113192 0.00324565 0)
(0.114233 0.0028312 0)