/*--------------------------------*- C++ -*----------------------------------*\
  =========                 |
  \\      /  F ield         | OpenFOAM: The Open Source CFD Toolbox
   \\    /   O peration     | Website:  https://openfoam.org
    \\  /    A nd           | Version:  10
     \\/     M anipulation  |
\*---------------------------------------------------------------------------*/
FoamFile
{
    format      ascii;
    class       surfaceScalarField;
    location    "18";
    object      phi;
}
// * * * * * * * * * * * * * * * * * * * * * * * * * * * * * * * * * * * * * //

dimensions      [0 3 -1 0 0 0 0];

internalField   nonuniform List<scalar> 
12623
(
0.0975626
0.0237721
-0.0373943
-0.0839403
0.0762874
-0.0393819
0.060657
0.103486
-0.0134659
-0.0923939
0.00237368
-0.0063375
0.106619
0.00320436
-0.0989939
-0.000951569
0.000638917
0.0993065
-0.0941397
-0.0111917
-0.00329344
0.046622
-0.0528452
0.00951667
-0.0557158
0.0524224
0.0211851
-0.0113763
-0.00980879
0.00671586
-0.00830212
0.0227714
0.0868838
-0.0395582
-0.0473256
-0.0586579
0.0476788
0.0978629
-0.027281
-0.0177984
0.020292
0.0247874
0.00312629
0.00539306
-0.0358004
-0.0233937
0.00872157
0.00230024
-0.00119052
-0.00639022
0.0052805
0.000265718
-0.00419929
0.00623381
-0.00354653
0.00262173
0.00181602
-0.0127096
-0.00132316
0.0122167
-0.029185
0.0102166
0.0207845
-0.0284954
-0.0133993
0.00197246
0.01468
-0.0132117
-0.00344077
0.00355728
-0.000990061
-0.000594759
-0.0217181
0.0399554
-0.0427192
0.00510054
0.0430117
0.00708529
-0.0484212
-0.0013833
-0.0547741
0.00533706
0.0545376
-0.068683
0.0372028
-0.0372889
0.0687692
-0.0681792
-0.0384521
0.0379483
-0.0677063
0.0669029
-0.0349974
0.0358008
-0.0680589
0.0375554
-0.114214
-0.00162387
0.00678977
0.109048
0.00104936
-0.110277
-0.00498596
0.106717
-0.113541
-0.00392252
0.00852402
0.108939
0.0050495
-0.113454
-0.00513665
-0.1199
0.0108136
0.114136
-0.11486
-0.00666428
0.104636
-0.00192322
-0.111984
0.00927155
0.00416493
0.00951071
0.0909603
-0.109924
0.00392134
0.10408
-0.111109
-0.00273813
0.0362017
-0.0347905
0.0654917
-0.0777477
0.0229902
-0.0253855
0.0801429
-0.0334064
-0.0716483
0.027307
-0.0181829
-0.0894227
-0.0868273
-0.0122337
0.0878694
-0.08202
-0.018986
-0.0769829
0.0157736
0.0801953
0.0584517
0.00389698
-0.0813347
-0.0679371
0.0288801
0.0975087
-0.0144228
0.0951177
-0.0800218
-0.000673118
-0.0784629
0.0724005
0.0144279
-0.0124757
-0.0743527
0.0174187
0.0700989
-0.0151171
-0.0107915
0.00729678
0.0807533
-0.0772586
-0.0830282
0.0827285
-0.0104918
0.080661
-0.00955656
0.0108746
-0.0819791
0.0621535
-0.0608605
-0.0328032
0.0315102
-0.0386548
0.0648085
0.0359998
-0.0590334
-0.0238406
0.0220136
-0.0581965
-0.0111676
0.0103307
-0.0578633
0.0026373
-0.00297055
-0.0582934
0.0177835
-0.0173535
-0.0606162
0.03136
-0.0290372
-0.062822
0.040967
-0.0387612
-0.0669594
0.0463188
-0.0421814
0.0468193
-0.0704343
-0.0433443
0.0659691
-0.0655202
-0.0391037
-0.0401755
0.0650448
0.0399392
0.067582
-0.0417884
-0.0642289
-0.0340945
-0.0632714
-0.0247981
-0.0613827
-0.0130562
-0.0607729
0.00202746
-0.0611471
0.0181578
-0.0617619
0.0319748
-0.0644357
0.0436409
-0.0665155
0.0483985
-0.0707867
0.0510905
0.0406779
0.06791
-0.0410058
0.0663225
0.0394001
0.0458711
-0.0741449
-0.0421605
-0.0728779
0.0479623
0.0401309
0.0683759
-0.0405969
0.0662086
0.0402448
0.0455193
-0.075273
-0.0443912
-0.0751337
0.0477751
0.0397047
0.0679535
-0.0392822
0.0377341
0.0471396
-0.0769551
-0.0454575
-0.0741453
0.0461511
0.0683281
-0.0388268
-0.0391489
0.0701882
0.0476135
-0.049477
-0.0750915
0.0484695
-0.0750013
0.0703942
-0.0704725
-0.0392039
-0.0678686
0.0686491
-0.0399295
-0.0363012
0.071812
-0.0721066
-0.0407112
-0.0392574
0.0720654
-0.0713647
-0.0398044
-0.0418297
0.0703045
-0.0678585
-0.0272441
-0.0351548
0.0663631
-0.0643623
2.6633e-05
-0.0145516
0.0635834
-0.0632563
0.0316477
0.0173789
0.0639662
-0.0654164
0.0498487
0.0443508
0.0669421
-0.0705227
0.0515428
0.0526162
0.0713548
-0.0709651
0.0457614
0.0486072
-0.0694023
0.0469068
-0.0777034
0.0734562
-0.0401439
0.0769464
-0.0490962
-0.0773273
-0.0462145
-0.0710243
0.0655807
-0.0379007
-0.0397287
-0.0635019
0.0578705
-0.0331298
-0.0401026
-0.0573864
0.055216
-0.015183
-0.0285531
-0.0562906
0.0571396
0.00948165
-0.00404518
-0.0589397
0.0613907
0.0290592
0.0202135
-0.0632779
0.0653267
0.0378905
0.0341127
-0.065717
0.067981
0.0379808
0.0390098
-0.0670996
0.036989
0.0386155
0.0350512
-0.0357494
0.0708864
0.0688229
-0.0321501
0.0650499
-0.0482013
-0.0671543
0.0459533
-0.0516819
-0.0715208
-0.0799391
0.0771894
-0.0463465
-0.0509913
0.052415
-0.078751
-0.0833551
-0.0475754
0.0419842
-0.0461893
-0.0629492
-0.0633898
0.0663924
0.0429507
0.0382185
-0.0596241
0.0693143
-0.0694721
0.0359585
0.0667587
-0.0725794
-0.0341088
0.0685671
-0.0339585
0.0665856
0.0389305
-0.0743584
0.0735876
-0.0759643
-0.0368272
-0.035293
0.0778999
-0.0780021
-0.0406089
-0.0373217
0.079011
-0.0778349
-0.0409805
-0.0408209
0.0764935
-0.0742729
-0.0294646
-0.0364962
0.0712509
-0.06872
-0.0025043
-0.0175736
0.0659738
-0.0647322
0.0304061
0.0146326
0.0635802
-0.0643542
0.0506227
0.0431988
0.0654261
-0.0663492
0.0524659
0.0536881
0.0666922
-0.0677383
0.0468075
0.0489502
0.0455609
-0.0741758
0.072373
-0.0383411
-0.0432009
-0.0683492
0.0646535
-0.034205
-0.0357049
-0.0582305
0.0568536
-0.031753
-0.0336796
-0.052961
0.0540597
-0.0162817
-0.0246604
-0.0543169
0.0563106
0.00748795
-0.00430242
-0.0593912
0.0615485
0.0269019
0.0171329
-0.064461
0.065441
0.0369105
0.0312001
-0.0673673
0.0683104
0.0370377
0.0370835
-0.0689904
0.0679736
0.0380057
0.0379355
0.0360569
0.0335374
-0.0276318
0.0649808
0.0675698
0.0278613
0.0649138
-0.024208
0.0652794
0.0522277
-0.0501456
-0.0854372
0.0521943
-0.0787176
-0.0504003
-0.0673097
-0.0609766
0.0632608
0.0406665
-0.0559502
0.033192
-0.0348996
0.0297445
-0.0544689
-0.0395572
-0.0582916
-0.0896075
0.086424
-0.046962
-0.0494628
0.0489482
-0.0849226
-0.0924243
-0.046646
0.0359818
-0.0329587
0.0624685
0.0649381
0.0376293
-0.0254687
0.0274538
0.0629287
0.0641448
-0.064685
-0.0236678
0.0646072
-0.025931
-0.0679441
0.039037
0.0678376
-0.069384
0.0373985
-0.0725644
0.0700401
-0.0728114
-0.0313375
-0.0286034
0.0759453
-0.0795468
-0.0332258
-0.0321591
0.0799295
-0.0816096
-0.0389289
-0.036939
0.0828322
-0.0827223
-0.0410904
-0.0395982
0.0823477
-0.0801055
-0.0317068
-0.0368708
0.0778199
-0.0747783
-0.00554589
-0.0198593
0.071451
-0.0695745
0.0285296
0.0113053
0.06694
-0.0671499
0.0508325
0.0405644
0.0656552
-0.0663819
0.0531926
0.0521934
0.0657352
-0.0659922
0.0470644
0.0483035
0.0428296
-0.0834283
0.0789601
-0.0418783
-0.0445797
-0.0752896
0.072689
-0.0357405
-0.0395304
-0.068316
0.0645827
-0.0304716
-0.031332
-0.0589915
0.0554241
-0.0281857
-0.0280883
-0.0531725
0.0526463
-0.0157554
-0.0224089
-0.053507
0.0555273
0.00546756
-0.00516306
-0.0579501
0.0607559
0.0240961
0.0147102
-0.0632919
0.065769
0.0344335
0.0286642
-0.0683726
0.0677276
0.0376827
0.0344798
-0.0690428
0.0697452
0.0373033
0.0366203
0.0364181
0.0322868
-0.0294872
0.0621812
0.0668979
0.063246
-0.0512731
0.0250674
0.0478372
-0.0776066
-0.0440198
-0.0628471
0.0437943
-0.0442231
-0.0919956
0.0422899
-0.0834181
-0.023787
0.0181005
-0.0487824
-0.0293006
-0.052778
-0.0237905
0.025673
0.0610462
-0.0226848
0.0635014
0.0356741
-0.0335444
0.0603388
0.0343811
0.0662311
0.0657596
-0.0666357
0.0382745
0.037533
0.0672637
0.0681171
-0.0682011
-0.0235837
0.0659425
-0.0237564
-0.0467065
0.0135339
-0.00516108
0.000222441
-0.0417679
-0.0101487
-0.0437948
0.0674729
0.0379939
-0.068747
0.0712313
-0.0755108
-0.0270581
-0.0255732
0.079221
-0.0802644
-0.0321823
-0.0284489
0.0836426
-0.0851072
-0.0374642
-0.0335609
0.0868323
-0.0879918
-0.0399309
-0.0378731
0.0881574
-0.0870794
-0.0327848
-0.0367051
0.0847983
-0.0813858
-0.00895844
-0.0221404
0.0776848
-0.0739194
0.0247643
0.00760434
0.0708337
-0.0684907
0.0484895
0.0374787
0.067157
-0.0665063
0.0525418
0.0508598
0.0658628
-0.0642997
0.0455014
0.04766
0.0621512
-0.0571756
0.0356909
0.040681
0.0533605
-0.0491285
0.0208353
0.029377
0.0444776
-0.0419695
-0.00228565
0.00888299
-0.0935192
0.0889955
-0.0424384
0.0963816
-0.0987147
-0.04189
-0.0437836
-0.0850821
0.0810528
-0.0378489
-0.0406663
-0.0761086
0.0735159
-0.0331478
-0.0345862
-0.0700852
0.0660388
-0.0264252
-0.0279013
-0.0614239
0.0569327
-0.0236945
-0.0234734
-0.0540861
0.0529669
-0.0146362
-0.0195623
-0.053461
0.0551381
0.00379039
-0.00565714
-0.0574124
0.0602108
0.0212976
0.0124359
-0.0629423
0.0656552
0.0317205
0.0259327
-0.067265
0.0695941
0.0353536
0.0328701
-0.0689066
0.0682738
0.0379361
0.0373078
0.0380562
0.0280485
-0.0268504
0.0609832
0.061402
0.0620686
-0.0375348
0.0348765
-0.0893373
-0.0986247
-0.0376248
-0.0116071
0.00925662
-0.0394174
-0.0417864
-0.0117902
0.0388038
-0.0741204
-0.0347705
-0.0573772
-0.0200807
0.0633384
0.0348035
0.0670506
0.0671027
-0.0680374
0.0392092
0.0684652
0.0361705
0.0311072
-0.0796488
-0.0156962
-0.0472305
0.025408
-0.0284495
-0.0955831
0.0211317
-0.0850611
0.0057071
-0.0402453
-0.0218073
0.0229975
-0.0406076
-0.018346
-0.0452477
0.0696054
0.0356522
-0.0647138
0.0712305
-0.0733106
-0.0215036
-0.0679391
0.0658625
-0.0180041
-0.020465
0.0760153
-0.0788788
-0.0241946
-0.0228685
0.0804649
-0.0828756
-0.0297716
-0.0268628
0.0853088
-0.0879524
-0.0348205
-0.0311277
0.0903975
-0.0924978
-0.0378306
-0.0354281
0.0936767
-0.0935686
-0.0328929
-0.0355263
0.0918911
-0.0885877
-0.0122619
-0.0238178
0.0843725
-0.0795871
0.0199789
0.00338909
0.0751765
-0.0712261
0.0445391
0.0330681
0.0683231
-0.0662385
0.0504572
0.0479568
0.0646644
-0.0626602
0.0434973
0.0460859
0.058985
-0.0558504
0.0325562
0.0370058
0.0509227
-0.0466139
0.0165265
0.0244494
0.0439738
-0.0437637
-0.00249572
0.00624286
0.0465832
-0.0523582
-0.012571
-0.00897076
-0.103535
0.100463
-0.0388182
0.105355
-0.104651
-0.0291533
-0.0358047
-0.0954346
0.0908626
-0.0378664
-0.0387551
-0.0853823
0.0818964
-0.0343629
-0.0351861
-0.0777087
0.0743146
-0.0297537
-0.0303986
-0.0714914
0.0680766
-0.0230104
-0.0250781
-0.0639398
0.0592563
-0.0190109
-0.0193366
-0.05579
0.0539993
-0.0128455
-0.016096
-0.0540817
0.0555522
0.00231996
-0.00573958
-0.0577668
0.0605915
0.0184729
0.0102213
-0.0633872
0.0661132
0.0289945
0.0231371
-0.0685822
0.0688797
0.0350562
0.0304011
-0.0695973
0.0693263
0.0382071
0.0365901
0.0393451
-0.0160633
0.0107081
-0.090228
-0.100852
-0.0198627
-0.0205782
0.0269235
-0.051593
-0.0586325
-0.0143039
0.0710025
0.032469
0.0264448
-0.0275478
0.0681535
0.0720618
0.0242345
-0.025968
0.0620724
0.0629178
0.024542
-0.023029
0.0594701
0.059976
0.0214877
-0.020235
0.0597934
0.0605273
0.018739
-0.0169109
0.0615103
0.0620055
-0.0148754
0.063827
0.0259409
-0.0689542
-0.0209189
-0.0521544
0.0150036
-0.0735207
0.00130578
-0.0428292
0.00390317
-0.0782561
0.0217199
-0.0389677
0.00214516
-0.00790579
-0.0950911
-0.00536738
-0.0827154
0.0318315
-0.0455155
0.0214831
-0.0168561
-0.0632596
0.0279809
-0.0580907
0.067572
-0.0693572
-0.0162189
0.0658447
-0.013148
-0.0596918
0.0719358
-0.074351
-0.0190884
-0.0178865
0.0775712
-0.0790791
-0.0226868
-0.0196483
0.0819501
-0.0844757
-0.0272461
-0.0239917
0.0871613
-0.0902076
-0.0317743
-0.0284421
0.0932221
-0.0961595
-0.0348933
-0.0324135
0.0983571
-0.0993815
-0.0318685
-0.0333286
0.0986211
-0.0958085
-0.0150744
-0.0245783
0.0913924
-0.0858003
0.0143868
-0.00102703
0.0801549
-0.0746156
0.0389998
0.0274227
0.0700054
-0.0661677
0.0466195
0.0433466
0.0631965
-0.060304
0.0406047
0.0431147
0.0571446
-0.0533251
0.0287367
0.0338464
0.0495526
-0.0465304
0.0135043
0.0206769
0.045879
-0.0482523
-0.000122429
0.00559151
0.0530843
-0.0594588
-0.00619652
-0.00413875
0.0644252
-0.06791
-0.0133713
-0.0093375
-0.110875
0.109769
-0.0280468
0.109666
-0.106151
-0.0114212
-0.0210718
-0.105795
0.100808
-0.0338317
-0.0318304
-0.0951656
0.0910574
-0.0337582
-0.0331127
-0.0864458
0.0824571
-0.0303742
-0.0305745
-0.0788345
0.0753604
-0.0262796
-0.026776
-0.072644
0.0698883
-0.0202547
-0.0223617
-0.0665851
0.0622615
-0.0146874
-0.0160334
-0.0583836
0.0557443
-0.0102062
-0.0122181
-0.0551294
0.0562402
0.00120913
-0.00512459
-0.0583688
0.0612105
0.0156312
0.00809262
-0.0639893
0.0666254
0.0263584
0.0203582
-0.0685229
0.069816
0.0337631
0.0285036
-0.0713214
0.069734
0.0397945
0.0350847
-0.0685942
0.0704188
0.0373846
0.0404849
-0.0718725
0.0765429
0.0277986
0.0347168
0.0218299
0.0135438
-0.0141177
0.0687274
-0.0139816
0.0818908
0.071624
0.0155751
-0.0165402
0.0630375
0.0643752
0.017021
-0.0182082
0.0606573
0.0604568
0.0172062
-0.0177386
0.0603258
0.0595253
0.0154689
-0.0147266
0.0607679
0.0597358
0.00344633
-0.0110515
-0.0874859
-0.100644
-0.00206042
-0.0198449
0.0235981
-0.0670128
-0.0707498
-0.0170051
0.012159
-0.00961079
0.0632964
0.0612595
0.00915579
-0.0631064
-0.00361201
-0.0472366
-0.00291455
-0.0667029
0.0190598
-0.0401692
-0.0132459
-0.0703776
0.0345437
-0.0416799
-0.0197518
-0.0740151
0.0352847
-0.0528193
-0.0132465
0.00661983
-0.0940175
-0.022042
-0.0786904
0.0287451
-0.0632377
0.0236802
-0.0733539
-0.0210761
0.0274789
-0.0708115
-0.105822
0.110222
0.00222079
0.0134396
-0.0208424
-0.0866148
-0.100513
0.0081305
-0.0237559
0.0278919
-0.07749
-0.0755573
0.0722284
-0.0177473
-0.078613
-0.0207001
0.0667512
-0.0680101
-0.00835188
-0.00894937
0.00983758
0.0624082
0.0623354
-0.00453357
-0.054148
0.0693183
-0.0724969
-0.0130402
-0.0118399
0.0745802
-0.0770285
-0.0166401
-0.0158032
0.0788333
-0.0809255
-0.0205946
-0.0178434
0.0831377
-0.0857154
-0.0246684
-0.0217795
0.0885249
-0.0917686
-0.0285305
-0.0256326
0.0951411
-0.0986959
-0.0313385
-0.029041
0.101771
-0.103962
-0.0296779
-0.0302533
0.104393
-0.102555
-0.0169124
-0.024147
0.0985204
-0.0925931
0.00845958
-0.00506165
0.0860498
-0.079187
0.0321369
0.0208794
0.0730677
-0.0675542
0.041106
0.0372274
0.0631189
-0.0592009
0.0366868
0.0386794
0.0558043
-0.0526659
0.0255983
0.0304497
0.0504745
-0.049947
0.0129767
0.0184855
0.0518232
-0.0558087
0.00386307
0.00746772
0.060635
-0.0645289
-0.00230261
0.000687576
0.06708
-0.0701379
-0.0103133
-0.00678646
-0.0149146
-0.113252
0.114963
-0.0131322
-0.00509096
-0.113161
0.110147
-0.0250325
-0.0192699
-0.104824
0.100382
-0.0293904
-0.0265071
-0.095325
0.0907145
-0.0291477
-0.0280553
-0.0867433
0.0830168
-0.0266476
-0.0266033
-0.0797236
0.0764021
-0.022958
-0.0234829
-0.0736954
0.0713283
-0.0178876
-0.019655
-0.0689386
0.0655715
-0.0113204
-0.0136437
-0.0618659
0.0585074
-0.00684775
-0.00851244
-0.0568611
0.0570604
0.00100988
-0.00347834
-0.058689
0.0612848
0.0130355
0.00646396
-0.0639445
0.0665022
0.0238007
0.0176985
-0.068418
0.06992
0.0322611
0.0265877
-0.0710409
0.0718264
0.039009
0.0339638
-0.0738054
0.07475
0.0364401
0.0385059
-0.0772066
0.081799
0.0232063
0.0322602
0.0142063
9.1092e-05
0.0013624
0.0804373
0.0885994
0.00132234
-0.00379276
0.0711979
0.0743088
0.00593566
-0.00777645
0.0648783
0.0665181
0.00920465
-0.0102416
0.0616943
0.061885
0.0108088
-0.0104746
0.0599916
0.0600925
0.0104001
-0.0104128
0.0607807
0.0596612
0.0606842
-0.0094185
-0.0566024
0.0149407
-0.0431175
-0.0209095
-0.0590394
0.0346659
-0.0402914
-0.0286898
-0.0614396
0.0417104
-0.0481056
-0.0315772
-0.06448
0.0359282
-0.0600025
-0.0300878
-0.069445
0.0318669
-0.0676257
-0.0174797
0.012899
-0.0959326
-0.0255134
-0.0785811
0.0319304
-0.0748499
0.0261879
-0.0825887
-0.0222123
0.0299399
-0.0812419
-0.10422
0.107993
0.00912581
0.0153382
-0.0204124
-0.0908584
-0.100236
0.0113542
-0.0237322
0.0275929
-0.0864494
-0.0832812
0.0807642
-0.0196952
-0.0865832
-0.0204302
-0.00827765
0.00785444
0.0628314
-0.00838539
0.0624432
0.0691974
-0.0707897
-0.00675951
0.0689884
-0.00432466
-0.0486258
0.0721569
-0.0742454
-0.0109518
-0.0104727
0.0763388
-0.0782263
-0.0147527
-0.0137098
0.079957
-0.0819404
-0.0186112
-0.0161127
0.0840993
-0.0866294
-0.0221383
-0.0196206
0.0894138
-0.0926684
-0.0252759
-0.0228482
0.0961492
-0.100006
-0.027482
-0.0255602
0.103658
-0.106834
-0.0265021
-0.0266007
0.108545
-0.108138
-0.01732
-0.0224361
0.105207
-0.0998057
0.0030581
-0.00799206
0.0930845
-0.0855419
0.0245944
0.0141581
0.0784699
-0.0718477
0.0344838
0.0301553
0.0664587
-0.0620033
0.0322314
0.0332904
0.0588371
-0.0568468
0.023608
0.0272835
0.0564519
-0.0578132
0.0143381
0.0180906
0.0604899
-0.0637035
0.00707662
0.0101444
0.0663151
-0.0678979
-0.000719825
0.00329922
0.0697821
-0.0712641
-0.0088312
-0.00490229
0.0740971
-0.0771413
-0.0147031
-0.0120816
-0.0170772
-0.111629
0.113978
-0.000128222
0.00449509
-0.114917
0.114166
-0.012381
-0.00603049
-0.1114
0.107443
-0.0210761
-0.0165036
-0.103141
0.0985557
-0.0248053
-0.0222045
-0.0943901
0.0902929
-0.0250505
-0.0238898
-0.0867179
0.0833047
-0.0232345
-0.0230282
-0.0803607
0.0773852
-0.0199825
-0.0205388
-0.0747902
0.0725374
-0.0156347
-0.0170601
-0.0707418
0.0685307
-0.00910924
-0.0118481
-0.065734
0.0624238
-0.00353757
-0.00571574
-0.0599297
0.0587823
0.00215726
-0.000984156
-0.0592561
0.0610048
0.0112868
0.00599011
-0.0632293
0.0656621
0.021368
0.015474
-0.0677447
0.0697194
0.0302864
0.0245051
-0.0715835
0.0738445
0.0367479
0.0320998
-0.0762689
0.0791586
0.0335504
0.0360815
-0.0835281
0.0867028
0.0200315
0.0278907
0.00851515
-0.00885925
0.0121762
0.0959896
0.104648
-0.0130333
0.0111611
0.0823095
0.0877423
-0.00859973
0.0059431
0.0738545
0.0768701
-0.00340885
0.001014
0.0672731
0.0690523
0.00107052
-0.00289527
0.0635191
0.0639695
0.00433445
-0.00580241
0.0614596
0.0615317
0.0072229
-0.00769104
0.0612488
0.0610817
0.0608476
-0.0275419
-0.04997
0.0322959
-0.0407476
-0.0367722
-0.050957
0.0453023
-0.0438832
-0.040938
-0.0520788
0.0431746
-0.055352
-0.0397832
-0.0547846
0.0369394
-0.065075
-0.0344113
-0.0605471
0.0365938
-0.0722891
-0.0269154
-0.0720782
0.0350008
-0.0799108
-0.0166268
0.0127948
-0.096404
-0.0206962
-0.0867891
0.032607
-0.086256
0.0246423
-0.0212772
-0.0899483
0.0288686
-0.0906757
0.00899009
0.051613
-0.0438718
0.0703276
-0.0722478
-0.00483929
-0.0651927
0.0459722
0.0282106
0.000810237
0.0747676
-0.075868
-0.00985134
-0.00795289
0.0778262
-0.0796632
-0.0129156
-0.0117517
0.0806679
-0.0827844
-0.0164947
-0.0151081
0.0848327
-0.087253
-0.019718
-0.0175722
0.0898959
-0.0930049
-0.0221668
-0.0202054
0.0963574
-0.100175
-0.0236643
-0.0222077
0.103996
-0.107734
-0.0227639
-0.0227799
0.110483
-0.111637
-0.0161659
-0.0196876
0.110421
-0.106495
-0.00086762
-0.00920819
0.100734
-0.0936138
0.0174743
0.00839708
0.0865906
-0.0798489
0.0277421
0.0231322
0.0743575
-0.0700125
0.0278865
0.027799
0.06728
-0.0659563
0.0222843
0.024551
0.0659904
-0.0669909
0.0153386
0.0181247
0.0682845
-0.0694071
0.00819922
0.011438
0.0701599
-0.0709209
4.11542e-05
0.00405199
0.0720732
-0.0735825
-0.00732194
-0.00374996
0.0751019
-0.0776294
-0.0121756
-0.0105622
0.0801478
-0.083924
-0.015919
-0.0145588
0.08695
-0.0902656
-0.0179616
-0.0174042
-0.105373
0.108424
0.00607454
0.101308
-0.0994393
0.0109262
0.00728902
-0.110148
0.111959
-0.00193915
0.00277162
-0.111901
0.110372
-0.010852
-0.00597299
-0.107709
0.104223
-0.01759
-0.0138402
-0.100617
0.0967455
-0.0209338
-0.0185989
-0.093197
0.0896529
-0.0215064
-0.0203413
-0.0865213
0.0834686
-0.0201817
-0.0198966
-0.0808387
0.0782415
-0.0173853
-0.017909
-0.0759214
0.0737715
-0.0134848
-0.0147399
-0.0721822
0.0707444
-0.00767145
-0.0102588
-0.0691139
0.0668097
-0.00123334
-0.00408525
-0.0643956
0.0623529
0.00419996
0.0014299
-0.0615012
0.061876
0.010912
0.00684185
-0.0631736
0.0651507
0.0193909
0.0141764
-0.0672997
0.0698012
0.0277849
0.0223561
-0.0724807
0.0758032
0.0334254
0.0294203
-0.0798928
0.0834964
0.0299467
0.031992
-0.0880441
0.0937511
0.0143246
0.023343
-0.0974096
0.102177
-0.00239341
0.00485662
-0.00489594
-0.0182847
0.0213309
0.0929434
0.0145657
0.105296
0.100929
-0.0212275
0.0187888
0.0847483
0.0878457
-0.0165779
0.0140757
0.0763568
0.0790809
-0.0115011
0.00888831
0.0698859
0.0716269
-0.00643614
0.00414329
0.0658119
0.0664217
-0.00213462
-0.000232523
0.0638267
0.0635404
0.00149892
-0.00257215
0.0623221
0.0623481
0.00495801
-0.00620169
0.0640751
0.0632335
0.0136324
0.0839528
0.0698738
0.0133082
-0.0163291
-0.0933831
-0.0958478
0.00971663
-0.0196408
0.0243482
-0.0946557
-0.093415
-0.0164914
-0.0427905
-0.0439517
0.0457607
-0.041206
-0.111595
-0.0082512
-0.0486124
-0.0432825
0.0494586
-0.0501672
0.0851193
-0.068588
0.0116793
0.00372606
0.004254
0.0759727
0.0077582
0.0810872
-0.0487135
-0.0431485
0.0428564
-0.061269
-0.0434868
-0.045709
0.041045
-0.0695262
-0.0346949
-0.0527676
0.0407991
-0.0780874
-0.0251598
-0.0676145
0.0382351
-0.0855388
-0.0189422
-0.084176
0.0342046
-0.091592
-0.012051
0.00896162
-0.0927584
-0.0147745
-0.0906596
0.0294466
-0.0957741
-0.019017
0.0231898
-0.0988285
-0.015831
-0.096601
-0.0409016
0.0727814
-0.074512
-0.00310871
0.00500362
0.0757101
-0.0770961
-0.00846529
-0.0067548
0.0789475
-0.079862
-0.0120011
-0.00990032
0.0819533
-0.0834588
-0.0149892
-0.0130167
0.0853754
-0.0876288
-0.0174646
-0.0156557
0.0900678
-0.0929243
-0.0193103
-0.0177663
0.0959929
-0.0995083
-0.0201489
-0.019139
0.103112
-0.106864
-0.0190122
-0.019176
0.110063
-0.112319
-0.0139101
-0.016488
0.112758
-0.110901
-0.00272477
-0.0087692
0.106965
-0.101356
0.0118651
0.00446147
0.0953677
-0.0893618
0.0217362
0.0171436
0.0843093
-0.0801567
0.0237338
0.0227464
0.0773181
-0.0754665
0.0204327
0.0217125
0.0744643
-0.0738681
0.0147425
0.0171224
0.0734283
-0.0730354
0.00780633
0.0109981
0.0728736
-0.0731697
0.000337309
0.00389018
0.0739256
-0.0751479
-0.00609963
-0.00299408
0.0772822
-0.0784982
-0.0109596
-0.00842796
0.0807031
-0.0828956
-0.0137266
-0.0123539
0.0856445
-0.0892545
-0.0143515
-0.0146553
0.0916297
-0.0943481
-0.0131126
-0.0141162
-0.0970214
0.101245
0.00670277
0.0949093
-0.0930716
0.00712391
0.00760449
-0.102853
0.105171
0.00375697
0.00568091
-0.107224
0.107808
-0.00252328
0.000718005
-0.107502
0.106026
-0.00937634
-0.00566652
-0.103873
0.10106
-0.0147773
-0.0116868
-0.0981333
0.0949432
-0.0177436
-0.0156721
-0.0919646
0.0889367
-0.0184785
-0.0173627
-0.086224
0.0835373
-0.017495
-0.0171838
-0.081199
0.0789276
-0.0151139
-0.0155708
-0.0769296
0.0750164
-0.0115716
-0.012742
-0.0735454
0.0724158
-0.00654183
-0.00878783
-0.0715438
0.0704406
-0.00013009
-0.00321325
-0.0690474
0.0673847
0.00586257
0.00282309
-0.0660905
0.065455
0.0115476
0.00813606
-0.0657405
0.0669519
0.0181795
0.0138909
-0.0688468
0.071573
0.0250586
0.0204612
-0.0748324
0.0790262
0.0292316
0.0261609
-0.0840798
0.0887865
0.02524
0.0269384
-0.0943276
0.0982082
0.010444
0.0178019
-0.101681
0.106034
-0.00674631
0.00138356
-0.0104564
-0.0164926
0.0206715
0.101117
0.106168
-0.0258331
0.0254411
0.0933354
0.0957669
-0.0249768
0.023816
0.085909
0.0883099
-0.022156
0.0200533
0.0784595
0.080741
-0.0177254
0.0152173
0.072394
0.0739548
-0.0127257
0.0102588
0.0682789
0.0689133
-0.0079755
0.00585839
0.0659438
0.0658236
-0.00402777
0.00220545
0.0641444
0.0641787
-0.000955437
-0.000723734
0.0657543
0.0644835
0.0734041
0.00847097
-0.0106291
-0.0906002
-0.0909672
0.00636657
-0.0140657
0.0168354
-0.0993707
-0.0970085
-0.0114053
-0.0529897
-0.0395744
0.053172
-0.0449194
0.0833843
-0.0776116
0.00590657
0.0827511
0.00839146
-0.0550208
-0.0369752
0.0491455
-0.0564563
-0.0512612
-0.0353742
0.0450781
-0.0653022
-0.0425712
-0.0378327
0.0460045
-0.0747316
-0.0312023
-0.0467251
0.0439689
-0.0838213
-0.021113
-0.0654438
0.0407736
-0.0921079
-0.0161906
-0.08276
0.0357394
-0.0978848
-0.0125911
-0.0886976
0.0284927
-0.101077
-0.00643847
0.00448183
-0.0890105
-0.00796698
-0.0890717
0.0206631
-0.102656
-0.0887503
0.08937
0.00386219
-0.0045317
-0.0867856
0.00256697
-0.00461266
-0.0889296
0.0117105
0.10115
-0.0109848
0.0141278
-0.102514
-0.0101359
-0.0978574
-0.0407193
0.0757466
-0.0767725
-0.00208273
0.00313857
0.0780641
-0.0788288
-0.00770061
-0.00546322
0.0798181
-0.0810261
-0.0107931
-0.00891102
0.0823903
-0.0840042
-0.0133753
-0.0116525
0.0857618
-0.0878157
-0.0154107
-0.0138981
0.0900212
-0.0925753
-0.0167563
-0.0155607
0.0952872
-0.0983659
-0.0170701
-0.0164271
0.101522
-0.104874
-0.0156604
-0.01602
0.107919
-0.11048
-0.0113487
-0.0134429
0.111841
-0.111599
-0.00296743
-0.00740823
0.109538
-0.105805
0.00813217
0.0024005
0.101283
-0.0963335
0.0167871
0.0126214
0.0918288
-0.0877416
0.0196467
0.0182417
0.0844792
-0.081761
0.0177145
0.0184501
0.0796534
-0.077866
0.012955
0.0150149
0.0764783
-0.0754543
0.00678231
0.00961051
0.0749694
-0.0750414
0.000409312
0.00340525
0.0756285
-0.076662
-0.00506615
-0.00240696
0.0779966
-0.0796761
-0.00928009
-0.00709333
0.0815075
-0.0831233
-0.0121107
-0.0105225
0.0852523
-0.0867764
-0.0128274
-0.0125264
0.0885443
-0.091073
-0.0105839
-0.0123484
0.0932215
-0.0948019
-0.00855553
-0.00925681
-0.0912001
0.0932586
0.0050654
0.00453647
-0.0960742
0.0983605
0.00441653
0.00478885
-0.100504
0.102315
0.00194513
0.00353774
-0.103371
0.103688
-0.00283983
-0.00033754
-0.103283
0.102105
-0.00819841
-0.00526175
-0.100416
0.0981906
-0.0125522
-0.00999754
-0.0958381
0.0932302
-0.0151357
-0.0133197
-0.0907495
0.0881846
-0.0159136
-0.0148821
-0.0858581
0.0835293
-0.0151662
-0.0148573
-0.0814812
0.0794971
-0.0131298
-0.0135227
-0.0777897
0.0761624
-0.0099443
-0.0110345
-0.0748717
0.073884
-0.00555413
-0.0074971
-0.0733288
0.0729595
0.000239158
-0.00265806
-0.0726065
0.0720648
0.00640436
0.00317609
-0.0714793
0.0710478
0.0119791
0.00872156
-0.071118
0.0719408
0.0173567
0.0138206
-0.0735622
0.0762373
0.0223835
0.0188398
-0.0796682
0.0842168
0.024683
0.02273
-0.0891816
0.0948132
0.0196084
0.0219736
-0.0997833
0.103921
0.00630634
0.0128318
-0.10639
0.107362
-0.00771872
-0.00108507
-0.107431
0.110638
-0.0114584
-0.010525
-0.00948009
-0.0182167
0.0229766
0.0963569
0.0996613
-0.0256981
0.0266868
0.0923468
0.0930453
-0.0269289
0.0264474
0.0863906
0.0880678
-0.0253933
0.0238266
0.0800262
0.081795
-0.0219277
0.0197455
0.0745762
0.0758537
-0.0174518
0.0150685
0.0706621
0.071207
-0.0127721
0.0105514
0.0681645
0.06812
-0.00849623
0.00588997
0.0667506
0.0662339
-0.00517576
0.00381227
0.0671177
0.0651977
-0.00880306
0.008616
0.0761598
0.0684133
-0.00495802
-0.00831083
0.0960199
0.0847452
-0.0570467
-0.0375485
0.0545705
-0.0503443
0.0081046
-0.00756012
-0.0953464
0.00875778
-0.0985106
0.085702
-0.0909704
-0.00304244
-0.0139051
0.0537845
0.0561404
0.076181
-0.00438406
-0.0906746
0.0887396
-0.00662048
-0.0907011
-0.00753366
-0.0558656
-0.0323708
0.0489757
-0.060354
-0.0490618
-0.0288836
0.0497183
-0.069016
-0.0376992
-0.0313357
0.0492618
-0.0800246
-0.0248212
-0.0430169
0.0467213
-0.0897689
-0.0158266
-0.0658077
0.041988
-0.0983565
-0.0128629
-0.0824883
0.0350116
-0.104404
-0.00946295
-0.0872016
0.0262335
-0.106647
0.00111056
-0.0866431
-0.00125304
-0.0868221
0.0867843
0.00114835
-0.000318444
-0.086898
0.000394319
-0.087302
0.000340433
-0.00524965
-0.0884347
0.0175783
-0.106107
-0.0886219
-0.00156072
0.0154601
-0.0303358
0.0686602
-0.10774
-0.00850556
-0.00483355
0.0764341
-0.0431955
0.0841298
-0.0812786
0.00305537
0.00155088
0.0793255
-0.0784104
-0.00299785
0.00118544
0.0790117
-0.0797278
-0.00698451
-0.00486189
0.0806076
-0.0817189
-0.00968174
-0.00803126
0.0829566
-0.0844321
-0.0118998
-0.0104149
0.0860228
-0.0878712
-0.0135623
-0.0123074
0.0898319
-0.0920739
-0.0145143
-0.0136
0.0944161
-0.0970314
-0.0144549
-0.0140849
0.0996728
-0.102458
-0.0128749
-0.0133785
0.105019
-0.1073
-0.00906766
-0.0108821
0.108796
-0.109248
-0.00251522
-0.00591225
0.108354
-0.106078
0.00585579
0.00150616
0.102871
-0.0989666
0.012883
0.0094146
0.0950732
-0.0912047
0.0157783
0.0143483
0.0878112
-0.0847171
0.0146204
0.0150565
0.0821685
-0.0799873
0.0107737
0.0124663
0.0783587
-0.0772077
0.00563129
0.00798195
0.0766339
-0.0765673
0.000342788
0.00283144
0.0769489
-0.0777233
-0.00429169
-0.00202543
0.0787785
-0.0801339
-0.00792468
-0.00603816
0.0816596
-0.0833964
-0.0103739
-0.00899685
0.0851847
-0.0865213
-0.0114908
-0.0107381
0.0877197
-0.0882761
-0.0100275
-0.01115
-0.00879334
-0.0878983
0.0892181
0.00254239
0.00145294
-0.0910691
0.0928881
0.00324637
0.00268547
-0.0946052
0.0963922
0.00262953
0.00307183
-0.0976508
0.0990293
0.000566628
0.00227914
-0.0998073
0.100047
-0.00307958
-0.00111554
-0.0996984
0.0987743
-0.00727435
-0.00491313
-0.0974603
0.0957112
-0.0108031
-0.00868349
-0.0938272
0.0916984
-0.0130069
-0.0114358
-0.0896378
0.0874743
-0.0137502
-0.0128214
-0.08549
0.0834886
-0.0131648
-0.012873
-0.0817164
0.0799963
-0.0114096
-0.0117506
-0.0785345
0.0771719
-0.00858162
-0.00957279
-0.0760921
0.075253
-0.00471504
-0.00641738
-0.0748236
0.0747585
0.000304259
-0.00222861
-0.0749744
0.0753427
0.00603604
0.00296021
-0.0757375
0.0762426
0.011474
0.00832677
-0.0769497
0.0781625
0.0161438
0.0131136
-0.079939
0.0826486
0.0196739
0.0170633
-0.0860267
0.0904271
0.0202826
0.0193519
-0.0950714
0.0999988
0.014681
0.0173293
-0.103933
0.106679
0.00356023
0.00889788
-0.107528
0.106441
-0.00663176
-0.00193438
-0.105564
0.106044
-0.0119384
-0.00964829
-0.0111757
-0.00999166
0.0150366
0.0961053
0.0982532
-0.0200981
0.0232678
0.0931873
0.0945998
-0.0250812
0.0264125
0.0910156
0.0912318
-0.0271231
0.0271969
0.0863167
0.0873572
-0.026702
0.0256899
0.0810384
0.0822899
-0.0242897
0.0225439
0.076322
0.0772539
-0.0205975
0.0184892
0.0727704
0.0731535
-0.0163876
0.0142704
0.0702817
0.0702217
-0.0122047
0.0101681
0.0687873
0.0682996
-0.0084381
0.00793967
0.0676162
0.0669277
-0.00897835
0.0133965
0.0717417
0.0673746
0.0678058
0.00980288
-0.103559
0.0727577
-0.0014102
-0.00464571
0.00496379
-0.0956644
-0.0927016
-0.00264522
-0.056185
-0.0372291
0.0531099
-0.0544785
-0.0527513
-0.0286813
0.0514084
-0.0620441
-0.0433833
-0.0231996
0.0531123
-0.0728664
0.00574567
-0.0992924
-0.0298674
-0.0262895
0.0510104
-0.0843137
-0.0165632
-0.0422803
0.0477641
-0.095545
-0.010373
-0.0682976
0.0412791
-0.104624
-0.000235458
-0.0872276
0.000565153
-0.0866281
0.0860396
0.000353053
0.00066998
-0.0872425
-5.55774e-05
-0.0879857
0.00142806
-0.00915539
-0.0827958
0.0326232
-0.110794
-0.0883876
0.00165072
-0.00556367
-0.0868876
0.0233509
-0.11242
-0.0888949
0.000613415
-0.00174448
-0.0882509
0.0139231
-0.110227
-0.00292796
-0.00343299
0.0791186
0.0693921
-0.11244
0.0525591
0.000608963
0.00295551
0.0873958
-0.00217264
0.00197033
-0.0954621
-0.0938215
-0.00105272
-0.0176364
0.0876374
-0.0462705
0.0826672
-0.086779
0.00106939
-0.0787521
-0.00235651
0.0796984
-0.000469022
0.0846237
-0.0819705
0.000402213
-0.00060442
0.0803852
-0.0797926