/*--------------------------------*- C++ -*----------------------------------*\
  =========                 |
  \\      /  F ield         | OpenFOAM: The Open Source CFD Toolbox
   \\    /   O peration     | Website:  https://openfoam.org
    \\  /    A nd           | Version:  10
     \\/     M anipulation  |
\*---------------------------------------------------------------------------*/
FoamFile
{
    format      ascii;
    class       volVectorField;
    location    "7";
    object      U;
}
// * * * * * * * * * * * * * * * * * * * * * * * * * * * * * * * * * * * * * //

dimensions      [0 1 -1 0 0 0 0];

internalField   nonuniform List<vector> 
6397
(
(1.04443 -0.195043 9.38778e-21)
(1.05008 -0.209524 -4.3138e-20)
(1.06072 0.000781859 0)
(1.06062 0.000614654 -2.62051e-23)
(1.06036 0.000601101 3.68461e-22)
(1.06047 0.000761743 7.36398e-22)
(0.782547 -0.510299 -3.98138e-20)
(0.468254 -0.726908 9.96945e-20)
(-0.175061 -0.080286 1.62272e-20)
(-0.181571 -0.141295 -6.70446e-21)
(0.489718 0.676077 7.3662e-20)
(0.785171 0.691039 -9.91937e-21)
(0.693474 0.0347906 -1.63317e-21)
(0.754969 0.0191659 -8.6517e-22)
(0.502396 0.0334605 2.89545e-21)
(-0.0198728 0.0360789 -8.056e-20)
(0.102523 0.0497608 -4.56273e-20)
(-0.0603281 0.064133 3.90639e-20)
(0.321528 -0.0160074 5.4431e-20)
(0.442287 -0.198782 -1.65352e-19)
(0.54267 -0.044611 -8.54408e-20)
(0.123522 -0.0614386 -8.83929e-20)
(-0.0645741 -0.0846445 4.0175e-21)
(0.352883 -0.0581601 -6.33205e-20)
(0.879048 0.0223589 0)
(0.89158 0.0153104 5.77382e-22)
(0.971069 0.0212899 1.39266e-22)
(1.0547 0.000869192 -2.17264e-21)
(1.05331 0.00130155 5.32351e-22)
(1.05623 0.00177732 -1.09581e-21)
(1.05545 0.00222987 1.52326e-21)
(1.06051 0.000128456 9.79187e-22)
(1.06064 0.00028387 7.04348e-22)
(1.06051 0.000441528 -2.53348e-21)
(1.06059 -0.000359174 2.59496e-22)
(1.06069 -0.000217318 0)
(1.06051 -2.33388e-05 -3.01046e-22)
(1.06066 0.00010034 -6.34589e-22)
(1.06079 -0.000802904 5.17004e-22)
(1.0607 -0.000893137 -2.48411e-22)
(1.06066 -0.000622864 0)
(1.06075 -0.000520352 0)
(1.05688 0.0013905 4.89202e-22)
(1.06003 0.00123621 8.01676e-22)
(1.06013 0.00146569 -8.68191e-22)
(1.06058 0.000927002 1.64542e-21)
(1.06025 0.000933558 7.94063e-22)
(1.06036 0.00111669 -2.4235e-21)
(1.06036 -0.00174375 3.98022e-22)
(1.06053 -0.00177212 -6.36794e-23)
(1.06051 -0.00177777 7.01653e-22)
(1.06081 -0.00224141 -2.39189e-22)
(1.06046 -0.00190127 -1.8338e-21)
(0.971966 0.190313 -8.4175e-21)
(1.01975 0.225487 5.56111e-21)
(1.03261 0.0502778 3.24008e-21)
(1.03818 0.0633304 3.33885e-21)
(1.15768 -0.0460438 1.81856e-21)
(1.03582 0.00720549 1.54087e-21)
(1.03994 0.00553289 -1.54202e-21)
(1.03146 0.00921469 -1.65952e-21)
(1.02687 0.0116704 1.63357e-21)
(1.02201 0.0145001 1.92091e-21)
(1.01694 0.0180271 -1.88808e-21)
(1.01146 0.0221003 0)
(1.00557 0.0269346 -2.31468e-21)
(0.998873 0.0322593 2.42968e-21)
(0.990968 0.0381038 0)
(1.03927 0.00138136 1.37712e-21)
(1.0436 0.00430987 -6.79124e-25)
(1.04333 0.000634375 -1.3086e-21)
(1.03457 0.00244203 0)
(1.02928 0.00384219 0)
(1.02345 0.00573739 0)
(1.01699 0.00818849 7.27876e-24)
(1.00989 0.0111627 -9.58534e-25)
(1.00197 0.0146611 0)
(0.993131 0.0186168 2.74067e-25)
(0.98316 0.0228786 0)
(0.971585 0.0271221 0)
(1.0467 0.000138771 1.33462e-21)
(1.04671 0.0032565 -9.054e-23)
(0.981548 0.0440988 0)
(0.95839 0.0309879 0)
(1.04951 -0.000175343 -6.98519e-23)
(1.04935 0.0024633 0)
(0.970511 0.0500792 0)
(0.943026 0.0339984 0)
(1.05182 -0.000379817 -2.37947e-21)
(1.05155 0.00183153 2.91614e-22)
(0.956139 0.0553157 0)
(0.925161 0.035927 0)
(1.05367 -0.000545381 1.75218e-21)
(1.05513 -0.000635774 1.07729e-21)
(0.939512 0.0597855 0)
(0.904363 0.0361691 -4.5476e-22)
(1.0541 -0.00240412 0)
(1.05662 -0.00200987 -2.1154e-21)
(1.05543 -0.00216374 -1.43961e-22)
(1.05031 -0.00283432 1.29017e-21)
(1.05235 -0.00261275 0)
(1.04479 -0.00271774 6.93403e-22)
(1.04776 -0.00288859 -1.29388e-21)
(1.03749 -0.00152994 -8.4248e-22)
(1.04135 -0.00227056 -5.40638e-22)
(1.02773 0.00132653 -7.29076e-24)
(1.03281 -0.000316028 8.89693e-22)
(1.01522 0.00591335 7.21459e-23)
(1.02167 0.00348538 1.13129e-21)
(0.998886 0.0114422 1.02442e-21)
(1.00725 0.00874913 -2.10204e-21)
(0.976975 0.0158485 0)
(0.988246 0.0141218 0)
(0.948275 0.0156599 0)
(0.963426 0.016549 0)
(0.930124 0.013187 9.08448e-22)
(1.02638 0.0590048 3.11979e-21)
(1.00954 0.0765754 1.82501e-21)
(1.02013 0.067803 -3.07604e-21)
(1.03314 0.0427136 -2.703e-21)
(1.03108 0.0504822 2.64192e-21)
(1.03626 0.029984 -1.75158e-23)
(1.03612 0.0358841 -7.44023e-23)
(1.03817 0.0208392 0)
(1.03788 0.0249994 0)
(1.04071 0.0146136 -1.62645e-21)
(1.03975 0.0174666 -2.21937e-22)
(1.04411 0.0101962 -2.78299e-22)
(1.04265 0.0122965 1.61632e-21)
(1.04809 0.00698374 -7.19025e-22)
(1.04625 0.00850941 8.6609e-23)
(1.05173 0.00451709 1.19402e-21)
(1.05007 0.0056791 6.54594e-22)
(1.05444 0.00283185 0)
(1.05325 0.00358187 -1.32021e-21)
(1.05628 -0.000727708 1.01639e-21)
(1.05577 0.000576593 2.63015e-23)
(1.05751 -0.0017929 -5.51539e-22)
(0.910966 0.00801301 1.52422e-21)
(0.880829 0.034555 -3.67753e-22)
(1.07322 0.0844935 2.50806e-23)
(0.99476 0.0846408 -1.82932e-21)
(1.06688 0.0971765 0)
(0.888888 0.000360038 -1.02897e-21)
(0.983936 -0.00854724 1.98081e-21)
(0.97055 -0.0176191 -1.96938e-21)
(1.05746 0.00233301 -5.20179e-22)
(1.0585 -0.00270986 1.11591e-21)
(1.059 -0.00220303 5.28001e-22)
(1.0578 0.00188598 -4.80369e-22)
(0.917542 0.0626578 -1.15848e-22)
(1.05743 -0.00373838 0)
(1.05795 -0.00319249 2.80953e-22)
(1.05601 -0.00464406 -3.97999e-23)
(1.05673 -0.00419795 0)
(1.05402 -0.00514448 2.09117e-22)
(1.05503 -0.00496114 -4.30782e-22)
(1.05148 -0.00469985 0)
(1.05272 -0.00506385 -1.00308e-22)
(1.04772 -0.00284334 0)
(1.04961 -0.00391393 -5.44523e-23)
(1.04243 0.000327219 0)
(1.04508 -0.00135809 -1.23116e-22)
(1.03467 0.00388183 4.03682e-25)
(1.03854 0.00222281 -1.0665e-22)
(1.02294 0.00570401 -8.30464e-23)
(1.02886 0.00527706 1.49853e-22)
(1.00675 0.00242323 5.09453e-23)
(1.01555 0.00486048 4.92835e-23)
(0.995658 -0.0018482 -4.48399e-22)
(1.07689 0.0600401 -4.42405e-23)
(1.07661 0.0719075 -4.91784e-23)
(1.07289 0.0406798 2.49555e-24)
(1.07564 0.0496602 0)
(1.06692 0.0271886 0)
(1.07051 0.0332952 3.52204e-23)
(1.06114 0.0187443 0)
(1.06409 0.0225313 0)
(1.05702 0.0136427 1.61816e-24)
(1.05892 0.015968 2.25175e-22)
(1.05492 0.0102672 1.85375e-22)
(1.05583 0.0118805 0)
(1.05471 0.00758106 6.3471e-22)
(1.05468 0.00893568 0)
(1.05553 0.00532392 -3.79028e-23)
(1.05504 0.00642064 -6.35874e-22)
(1.05658 0.00351084 -1.05064e-24)
(1.05605 0.00433586 -1.40653e-22)
(1.05704 0.00287964 5.25676e-22)
(1.05705 -0.0006145 -2.38518e-22)
(1.05661 0.00036149 0)
(1.05924 -0.00175008 -2.49978e-22)
(1.05808 -0.00140964 2.2025e-22)
(1.05677 0.108923 0)
(0.973543 0.0907909 0)
(0.851707 0.0289588 5.53481e-22)
(1.04639 -0.017984 2.1642e-22)
(1.03802 -0.0283765 0)
(0.956272 -0.0292943 2.79884e-22)
(0.865574 -0.0106865 -1.37452e-22)
(1.105 0.114545 0)
(1.04223 0.118649 0)
(1.10206 0.127817 1.88078e-21)
(1.05741 0.00111509 -4.8182e-22)
(1.05809 0.00150799 0)
(1.05947 -0.00131505 4.97481e-22)
(1.06035 -0.00168136 3.97907e-24)
(1.06034 -0.00126202 -1.21582e-21)
(1.05891 0.00208854 0)
(1.05886 0.00252448 4.48499e-22)
(0.888503 0.0621015 0)
(1.06035 -0.0027065 -1.4253e-22)
(1.06039 -0.00220863 0)
(1.06061 -0.00375615 -4.5352e-24)
(1.06044 -0.00324988 -6.14703e-24)
(1.06134 -0.00465149 7.99668e-23)
(1.06093 -0.0042379 0)
(1.06252 -0.00509963 -1.36662e-24)
(1.06183 -0.00497516 8.54168e-23)
(1.06408 -0.00468989 1.53073e-24)
(1.06315 -0.00504106 9.56927e-23)
(1.06578 -0.00311018 -2.29884e-22)
(1.06482 -0.00406103 0)
(1.06729 -0.000482815 0)
(1.06646 -0.00190187 2.34285e-22)
(1.06778 0.00207634 7.29169e-23)
(1.06755 0.000917417 -3.47337e-23)
(1.06565 0.00209168 0)
(1.06688 0.0025786 9.9129e-24)
(1.05911 -0.00381746 8.70223e-23)
(1.06294 6.42092e-05 -1.88996e-22)
(1.05332 -0.00981906 -4.34005e-22)
(1.10546 0.0849007 3.47284e-22)
(1.10588 0.0999162 -1.53848e-24)
(1.10042 0.0570888 1.3762e-22)
(1.10362 0.070318 -5.48704e-22)
(1.09174 0.0362299 -2.16962e-23)
(1.09631 0.0457267 3.10181e-22)
(1.08239 0.0227666 0)
(1.08701 0.0286486 -3.31716e-22)
(1.07412 0.0151131 0)
(1.0781 0.0183175 0)
(1.06755 0.0110826 -3.12269e-24)
(1.07061 0.0127452 0)
(1.06294 0.00877763 0)
(1.06501 0.00978188 0)
(1.06023 0.00696706 0)
(1.06137 0.00782458 0)
(1.05903 0.00524273 -2.82079e-22)
(1.05945 0.00607798 0)
(1.05872 0.00372104 1.04053e-24)
(1.05877 0.00445887 2.88208e-22)
(1.05877 0.00303713 -5.18767e-22)
(1.05773 -0.000508315 -2.42742e-22)
(1.0573 0.00024972 4.51325e-22)
(1.05854 -0.00107055 -4.94738e-22)
(1.02855 -0.0408734 -2.07565e-21)
(0.946637 0.0942817 0)
(0.819677 0.0202969 -7.0438e-22)
(1.09766 0.138972 -2.01464e-21)
(1.02222 0.125423 0)
(0.941984 -0.0440021 -3.02623e-22)
(0.840326 -0.0247927 -9.75997e-22)
(1.05963 -0.000960021 -2.8245e-24)
(1.06032 -0.000935596 -2.24461e-24)
(1.0579 0.000833827 -4.13827e-22)
(1.05836 0.00117895 -4.23289e-22)
(1.0599 0.00250894 -4.55594e-22)
(1.05982 0.00207693 0)
(1.06121 -0.00152381 -1.32481e-22)
(1.06104 -0.001193 -2.31839e-22)
(1.01922 -0.055811 2.0818e-21)
(1.00948 -0.0732671 2.95539e-22)
(0.926946 -0.0616642 2.25984e-21)
(1.05898 0.00169508 1.19805e-23)
(0.854437 0.0586805 0)
(1.06171 -0.00232416 -1.27649e-22)
(1.06145 -0.00189776 5.25954e-22)
(1.0628 -0.0031539 1.42042e-22)
(1.06217 -0.00275413 -3.46802e-22)
(1.0647 -0.00376413 0)
(1.06364 -0.00352581 0)
(1.06746 -0.00381903 2.81677e-26)
(1.06597 -0.00387426 8.29003e-29)
(1.07112 -0.00302969 -1.51702e-24)
(1.06918 -0.00354791 0)
(1.07556 -0.00119173 0)
(1.07325 -0.00224319 9.9152e-29)
(1.08044 0.00144696 0)
(1.07797 8.53564e-05 0)
(1.08484 0.003452 0)
(1.08278 0.00269459 0)
(1.08668 0.00170281 0)
(1.08623 0.00329983 0)
(1.08335 -0.00737672 0)
(1.08578 -0.00175538 0)
(1.07352 -0.0250355 3.29852e-22)
(1.0792 -0.0151905 0)
(1.05945 -0.049913 0)
(1.06698 -0.0368105 -4.84834e-24)
(1.04634 -0.0816566 0)
(1.05264 -0.0649602 4.44316e-22)
(1.1178 0.110853 4.04152e-22)
(1.12777 0.136901 5.5126e-22)
(1.12256 0.124548 -4.05893e-22)
(1.1091 0.0807589 -1.30311e-22)
(1.11337 0.0960499 1.53791e-24)
(1.10049 0.0523674 8.15115e-23)
(1.10492 0.0659648 1.84657e-22)
(1.0914 0.0314054 1.19556e-25)
(1.09595 0.04084 0)
(1.08296 0.0184703 0)
(1.08703 0.0240086 0)
(1.07594 0.0115685 0)
(1.07927 0.0144182 0)
(1.07037 0.0082918 4.37943e-26)
(1.07299 0.00960108 0)
(1.06608 0.00675734 0)
(1.06807 0.00739692 0)
(1.06304 0.00572995 0)
(1.06441 0.0062297 0)
(1.06116 0.00467529 -1.44996e-22)
(1.06197 0.00521651 1.50804e-22)
(1.06024 0.00350676 -1.29368e-22)
(1.0606 0.00407751 1.71088e-23)
(1.06002 0.0029863 6.41282e-22)
(1.05825 -0.00032561 3.09251e-22)
(1.05786 0.000213191 4.43265e-22)
(1.05889 -0.000771698 0)
(1.08991 0.148112 0)
(1.13273 0.148068 -4.88967e-22)
(1.00114 -0.0941843 -2.38842e-21)
(1.04156 -0.101166 0)
(0.912791 0.0942075 0)
(0.783284 0.00829106 0)
(1.06091 -0.000873232 0)
(1.05903 0.0013777 9.22518e-22)
(1.06052 0.00233346 -3.67711e-22)
(1.06037 0.00199503 0)
(0.997517 0.129406 -1.44831e-22)
(0.814074 -0.0423654 1.27187e-21)
(1.13683 0.158397 -3.46701e-22)
(1.07796 0.155124 1.36292e-22)
(0.913017 -0.0830632 -2.57636e-21)
(0.993137 -0.118916 -3.56929e-23)
(1.03883 -0.12418 0)
(1.05975 0.00173158 -9.28901e-22)
(0.813879 0.0514501 0)
(1.0618 -0.00122828 4.79499e-22)
(1.06137 -0.000683458 3.20769e-22)
(1.06156 -0.000959169 1.1485e-21)
(1.06255 -0.00178272 2.09238e-22)
(1.06213 -0.00149183 -4.84593e-22)
(1.06393 -0.00227092 0)
(1.06315 -0.00205091 -1.29692e-22)
(1.06613 -0.00244466 -7.02027e-29)
(1.06493 -0.00241539 7.29986e-29)
(1.06927 -0.00202647 3.29854e-26)
(1.06758 -0.00232716 0)
(1.07335 -0.000765751 0)
(1.0712 -0.00151691 0)
(1.07827 0.00145632 1.59718e-24)
(1.07572 0.000232524 -9.91516e-29)
(1.08362 0.00416981 -1.07855e-28)
(1.08094 0.00282975 1.11983e-28)
(1.08826 0.00544645 0)
(1.08614 0.00518247 0)
(1.09011 0.0017023 -2.21143e-24)
(1.08969 0.00445891 0)
(1.08689 -0.0103968 2.46366e-24)
(1.08923 -0.00320772 0)
(1.07823 -0.0308146 9.79731e-23)
(1.08309 -0.0197681 0)
(1.06693 -0.056564 -8.27516e-22)
(1.07259 -0.0432359 -2.08445e-22)
(1.05822 -0.0865607 -8.66234e-22)
(1.06185 -0.071014 3.79271e-22)
(1.05637 -0.125495 -1.66239e-21)
(1.05634 -0.104486 8.64333e-22)
(1.12823 0.127487 -3.84874e-22)
(1.14875 0.148411 7.76461e-23)
(1.1379 0.137975 4.29557e-22)
(1.11269 0.103879 -5.82882e-22)
(1.11987 0.116349 3.64792e-22)
(1.10128 0.0754718 2.74627e-22)
(1.10664 0.0901322 1.55882e-22)
(1.09218 0.0479245 0)
(1.09655 0.0611618 -3.39475e-22)
(1.08429 0.0273994 4.08971e-24)
(1.08809 0.0365708 1.35737e-28)
(1.0777 0.0152001 0)
(1.08081 0.0203686 0)
(1.07266 0.00902692 1.61257e-24)
(1.075 0.0115403 0)
(1.06887 0.00629671 1.49944e-24)
(1.07064 0.00736095 0)
(1.06591 0.00520707 0)
(1.0673 0.00563037 0)
(1.06362 0.00461969 0)
(1.06469 0.00489779 0)
(1.062 0.00394624 0)
(1.06272 0.00431092 0)
(1.06101 0.00315173 0)
(1.06143 0.00356395 -8.62186e-24)
(1.06072 0.0027262 2.43677e-22)
(1.13857 0.167891 4.52002e-22)
(1.1601 0.158925 0)
(1.03724 -0.150953 -3.19913e-22)
(1.05888 -0.149853 2.14924e-21)
(1.05965 0.00143485 0)
(1.06025 0.00171348 2.16768e-22)
(1.05909 0.00111086 4.02612e-22)
(1.05958 0.00119847 -4.01778e-22)
(1.05834 0.000653027 -2.30067e-22)
(1.05861 0.000937847 1.2765e-23)
(1.05863 -0.000170392 -3.25197e-24)
(1.05834 0.000197198 2.02517e-22)
(1.05971 -0.000652269 4.30008e-22)
(1.05913 -0.000497643 -5.32057e-23)
(1.0608 -0.000588775 0)
(1.06028 -0.000641372 -4.23616e-22)
(1.06121 -0.000421817 -5.29275e-22)
(0.8731 0.0907721 1.46018e-22)
(0.743415 -0.00754596 6.31418e-28)
(0.965017 0.129856 -1.36827e-22)
(0.787547 -0.0636367 0)
(1.06058 0.159918 0)
(0.898694 -0.107968 0)
(1.17124 0.16918 -8.00195e-23)
(1.13691 0.175933 -6.89708e-24)
(0.985629 -0.1477 2.29691e-21)
(1.06442 -0.177258 -4.36039e-22)
(1.03867 -0.181816 -1.43531e-21)
(1.06169 -0.00041551 -4.38257e-22)
(1.06147 -0.000200905 4.23072e-22)
(0.768198 0.0406967 6.32123e-28)
(1.0622 -0.000865496 3.89231e-24)
(1.06192 -0.000658524 2.31562e-22)
(1.06303 -0.0012229 1.10648e-22)
(1.06256 -0.00106628 0)
(1.06438 -0.00139345 -6.19301e-29)
(1.06363 -0.0013521 -1.27564e-22)
(1.06645 -0.00114106 0)
(1.06532 -0.0013306 0)
(1.06935 -0.000268028 1.29439e-24)
(1.0678 -0.00079544 0)
(1.07306 0.00141635 0)
(1.07111 0.000463092 0)
(1.07739 0.00392569 -3.13276e-24)
(1.07517 0.00258689 0)
(1.08179 0.00654079 -1.69583e-24)
(1.07963 0.00532117 0)
(1.08514 0.0069242 0)
(1.08369 0.00723186 0)
(1.08578 0.00127191 1.51147e-25)
(1.0859 0.0050939 0)
(1.08242 -0.0132394 -2.06173e-25)
(1.08462 -0.00484448 0)
(1.07547 -0.0354442 -2.44551e-24)
(1.07927 -0.023634 1.59733e-28)
(1.06747 -0.0611116 3.50928e-25)
(1.07136 -0.0480343 0)
(1.06277 -0.0891883 4.5955e-23)
(1.06434 -0.0746726 -3.70556e-22)
(1.06523 -0.124595 6.42278e-22)
(1.06293 -0.105541 1.12301e-21)
(1.07837 -0.170625 -1.23501e-21)
(1.07018 -0.146388 -2.72526e-22)
(1.14099 0.136369 -9.66941e-23)
(1.16705 0.15555 8.6447e-23)
(1.1534 0.145795 0)
(1.12065 0.118464 5.2199e-23)
(1.1301 0.127433 -1.16227e-22)
(1.10562 0.097318 4.21945e-23)
(1.11266 0.108692 9.90662e-24)
(1.09414 0.0706352 -1.09985e-24)
(1.0995 0.0845035 2.10721e-23)
(1.08533 0.0440202 0)
(1.08946 0.056806 0)
(1.07848 0.0242421 -1.98475e-24)
(1.08169 0.0330582 2.54676e-28)
(1.07326 0.0127888 -2.18632e-28)
(1.07568 0.0175862 2.31417e-28)
(1.06952 0.00729434 -6.94761e-26)
(1.07123 0.0094887 0)
(1.06689 0.00502844 0)
(1.06809 0.00589205 0)
(1.06492 0.00421157 -1.264e-24)
(1.06584 0.00451527 0)
(1.06336 0.00383442 0)
(1.06409 0.00400956 0)
(1.06215 0.00340013 -1.03158e-24)
(1.06271 0.00363723 0)
(1.06133 0.00277496 1.92633e-24)
(1.06169 0.00310841 -8.40649e-24)
(1.06083 0.00213837 3.48847e-22)
(1.06104 0.00245011 0)
(1.06056 0.00154663 1.4937e-21)
(1.06068 0.00181911 -1.11408e-21)
(1.06047 0.00130283 -1.00455e-23)
(1.05916 0.000924737 0)
(1.05993 0.00103477 3.9537e-22)
(1.05955 0.00096096 1.35103e-23)
(1.05865 0.000547596 0)
(1.05883 0.000766219 0)
(1.05892 -4.19662e-05 1.92624e-22)
(1.05868 0.000219236 4.62043e-29)
(1.05977 -0.000394303 -1.04146e-22)
(1.0593 -0.000275986 -3.4147e-22)
(1.06072 -0.000334431 0)
(1.06026 -0.000387892 3.03863e-22)
(1.18108 0.178036 1.5265e-24)
(1.18127 0.164686 -6.46814e-23)
(1.07327 -0.207107 1.14495e-21)
(1.08995 -0.19614 1.47749e-21)
(1.06126 3.63217e-05 4.05377e-22)
(1.06106 -0.000184705 -2.06009e-22)
(0.824364 0.083267 1.02672e-26)
(0.700026 -0.0273473 0)
(0.925502 0.12736 0)
(0.760039 -0.088031 1.9829e-26)
(1.03677 0.162449 1.48424e-24)
(0.883027 -0.136687 6.96886e-22)
(1.13088 0.181969 -2.44479e-24)
(0.97908 -0.180791 0)
(1.19575 0.172486 -4.51241e-22)
(1.18928 0.184986 1.65057e-24)
(1.04212 -0.21595 2.18461e-21)
(1.10538 -0.221941 -1.64286e-21)
(1.08624 -0.238222 -7.7791e-22)
(1.18716 0.1575 3.7942e-22)
(1.20983 0.178276 4.5199e-22)
(1.20225 0.163125 2.22518e-22)
(1.12549 -0.248009 -4.86138e-23)
(1.11558 -0.204758 1.09503e-21)
(1.13614 -0.225688 -4.65802e-24)
(1.0613 0.000324645 1.91217e-22)
(1.06104 0.00023673 0)
(1.06104 0.000495085 -2.23968e-22)
(0.71557 0.0256546 6.92486e-28)
(1.06184 -0.000109847 1.06291e-22)
(1.06158 7.12865e-05 4.08185e-22)
(1.06245 -0.000487921 -2.22846e-22)
(1.06213 -0.000333133 -1.05114e-22)
(1.06328 -0.00071904 0)
(1.06283 -0.000648303 0)
(1.0645 -0.00060702 0)
(1.06384 -0.000723899 0)
(1.06626 -4.37063e-06 0)
(1.06531 -0.000383046 0)
(1.06866 0.00123549 0)
(1.06738 0.000525169 0)
(1.07161 0.00321272 -1.62611e-28)
(1.07008 0.00212747 1.68958e-28)
(1.07483 0.00582882 1.5354e-24)
(1.07322 0.00446999 1.86084e-28)
(1.0777 0.00814939 1.69583e-24)
(1.07636 0.00714265 0)
(1.07928 0.00761752 0)
(1.07871 0.00846752 0)
(1.07857 0.000470768 1.50103e-25)
(1.07925 0.00508849 0)
(1.07521 -0.0155673 -1.97702e-25)
(1.0772 -0.00645814 0)
(1.07005 -0.0384503 2.44537e-24)
(1.07275 -0.0264614 0)
(1.06511 -0.0633899 4.85152e-24)
(1.06738 -0.0508951 1.41524e-28)
(1.06358 -0.0892372 2.60495e-22)
(1.06368 -0.0760174 0)
(1.06902 -0.120736 -2.72969e-22)
(1.06514 -0.103915 -3.50079e-22)
(1.08565 -0.161272 9.50497e-22)
(1.07573 -0.14005 -5.28336e-22)
(1.09885 -0.183174 -1.033e-21)
(1.15835 0.142171 2.49581e-22)
(1.17251 0.150396 -5.9783e-22)
(1.13378 0.125756 1.03079e-24)
(1.14543 0.133767 3.19515e-23)
(1.11494 0.110477 2.83095e-22)
(1.12373 0.118227 -3.0242e-22)
(1.10027 0.0911875 1.05004e-24)
(1.10718 0.101672 -1.0062e-23)
(1.08885 0.0658318 1.09898e-24)
(1.09418 0.0790235 5.5058e-28)
(1.08046 0.0404123 0)
(1.0843 0.0526363 0)
(1.07456 0.0215829 4.49843e-28)
(1.07724 0.0299568 -4.7603e-28)
(1.07045 0.0108751 0)
(1.07232 0.0153194 0)
(1.06762 0.00597348 -7.18267e-26)
(1.0689 0.00789235 0)
(1.06566 0.00410669 0)
(1.06656 0.00479707 0)
(1.06423 0.00350912 1.264e-24)
(1.0649 0.00372066 0)
(1.06308 0.00327013 0)
(1.06363 0.00337982 0)
(1.06215 0.00297012 2.64046e-26)
(1.06259 0.00314068 2.70618e-28)
(1.06146 0.00250315 -1.87286e-24)
(1.06178 0.00275186 0)
(1.06103 0.00190163 0)
(1.0612 0.0022151 -1.12525e-25)
(1.06078 0.00133436 -4.13412e-22)
(1.06088 0.00161896 -8.2907e-25)
(1.06067 0.00110614 -4.15361e-22)
(1.05985 0.000872106 7.02086e-22)
(1.06015 0.000762029 -3.83321e-22)
(1.05925 0.000763826 0)
(1.05956 0.000764904 0)
(1.05887 0.000485648 2.12817e-26)
(1.059 0.000648996 4.34766e-29)
(1.05911 6.52562e-05 2.25654e-26)
(1.05892 0.000249118 4.36347e-29)
(1.0598 -0.000168271 2.24898e-23)
(1.05942 -9.03692e-05 8.66072e-29)
(1.06061 -0.000105413 1.7865e-22)
(1.06021 -0.000151477 -1.17427e-22)
(1.0609 2.22725e-05 -1.07722e-23)
(0.769174 0.0725094 -1.97974e-26)
(0.653493 -0.0502678 4.22701e-27)
(0.877777 0.122094 0)
(0.731494 -0.115664 -2.25967e-26)
(1.006 0.16251 -2.03494e-24)
(0.867443 -0.169457 -6.98005e-22)
(1.12018 0.185523 8.58117e-24)
(0.97262 -0.217538 -1.24207e-22)
(1.19517 0.189578 1.09945e-23)
(1.04915 -0.252634 0)
(1.21752 0.167288 -2.35898e-22)
(1.22333 0.182218 0)
(1.10469 -0.270296 -4.16317e-22)
(1.16149 -0.245256 -1.42289e-21)
(1.15125 -0.272933 3.09815e-23)
(1.20471 0.151729 9.68566e-24)
(1.23289 0.170284 1.63151e-22)
(1.21976 0.153923 1.5448e-24)
(1.19142 -0.262516 -1.14871e-21)
(1.16296 -0.217956 -7.8628e-22)
(1.19055 -0.230603 -2.51298e-21)
(1.06082 0.000424671 0)
(1.06079 0.000725259 -6.96048e-22)
(1.06123 0.000675487 3.65113e-22)
(1.06093 0.000701927 -3.81561e-22)
(0.657363 0.00728467 -4.07211e-27)
(1.06184 0.000245978 -1.88876e-22)
(1.06156 0.000351286 -1.94409e-22)
(1.06255 -0.000109774 2.63529e-23)
(1.06221 -9.38454e-06 -1.01058e-22)
(1.0634 -0.000240682 -4.43481e-25)
(1.06297 -0.000247726 4.44857e-28)
(1.06446 5.28832e-05 0)
(1.06391 -0.000172952 0)
(1.06586 0.000902231 0)
(1.06512 0.000391685 0)
(1.06766 0.00238153 1.17478e-24)
(1.06672 0.00155644 0)
(1.06973 0.00449151 0)
(1.06869 0.00335916 0)
(1.0717 0.00700477 0)
(1.07077 0.00573419 0)
(1.07299 0.00886393 0)
(1.07247 0.00813762 0)
(1.07292 0.00748269 0)
(1.07315 0.00879873 0)
(1.07114 -0.000697359 1.91018e-24)
(1.07224 0.00443555 0)
(1.06797 -0.0175147 -1.86922e-25)
(1.06967 -0.00808149 4.8924e-28)
(1.06443 -0.0404391 0)
(1.06615 -0.028545 0)
(1.06206 -0.0643828 -2.91947e-25)
(1.06298 -0.0525414 -1.41524e-28)
(1.06294 -0.0877561 2.21495e-24)
(1.06193 -0.0759853 5.21559e-28)
(1.07041 -0.115012 2.11953e-22)
(1.06554 -0.100519 2.73283e-25)
(1.08827 -0.149526 -9.04589e-23)
(1.07786 -0.131541 -1.25343e-22)
(1.11894 -0.186286 -2.07465e-22)
(1.1019 -0.168119 1.7019e-22)
(1.13912 -0.202996 8.09633e-22)
(1.17538 0.143156 4.13735e-23)
(1.1899 0.148188 -4.23073e-24)
(1.14817 0.129452 -7.20299e-24)
(1.16152 0.136767 0)
(1.12553 0.115526 -1.01925e-24)
(1.13619 0.122201 -3.23559e-23)
(1.10798 0.102417 0)
(1.11624 0.109126 0)
(1.09396 0.0847375 -1.11659e-25)
(1.10059 0.0944375 0)
(1.0831 0.0610207 0)
(1.08813 0.0733911 0)
(1.07559 0.0371489 0)
(1.07894 0.0486346 0)
(1.0709 0.0194587 -1.62728e-24)
(1.07296 0.0273228 0)
(1.06802 0.00946454 0)
(1.0693 0.0135951 0)
(1.06615 0.00501065 -1.47127e-24)
(1.06699 0.00673063 0)
(1.06483 0.00342041 -1.28445e-24)
(1.06544 0.00399124 0)
(1.06381 0.00297298 -1.17547e-24)
(1.0643 0.00312182 7.94693e-29)
(1.06293 0.00282413 -1.07211e-24)
(1.06336 0.00289179 -5.78526e-28)
(1.06217 0.00261325 2.85507e-26)
(1.06253 0.00273793 0)
(1.06157 0.00224191 0)
(1.06185 0.00244857 0)
(1.06118 0.00174528 0)
(1.06135 0.00199775 1.12719e-25)
(1.06092 0.00122923 3.79037e-22)
(1.06104 0.0014818 8.14337e-25)
(1.06081 0.00100161 -3.30401e-22)
(1.06025 0.000456699 0)
(1.06039 0.000296027 1.04299e-21)
(1.0598 0.000694998 -3.67928e-22)
(1.06006 0.000593232 -1.06128e-22)
(1.05931 0.000642884 -3.97752e-26)
(1.05955 0.000625353 -8.11902e-29)
(1.05903 0.000447651 -4.13609e-26)
(1.05911 0.00056132 -8.20983e-29)
(1.05924 0.000160324 8.09803e-29)
(1.05908 0.000282886 -8.23395e-29)
(1.05981 2.39863e-05 4.2539e-23)
(1.0595 6.71245e-05 -8.17161e-29)
(1.06048 9.75124e-05 -1.77845e-22)
(1.06015 4.53983e-05 -4.33475e-23)
(1.06072 0.000224434 -1.81928e-22)
(0.704734 0.0582408 0)
(0.604131 -0.0760676 -1.42907e-27)
(0.821523 0.114168 0)
(0.701718 -0.145792 9.07732e-26)
(0.9681 0.160124 2.46026e-24)
(0.84912 -0.204958 1.18626e-24)
(1.10466 0.186767 -5.79567e-24)
(0.967013 -0.256787 -3.68626e-24)
(1.19888 0.192294 -1.46325e-23)
(1.05971 -0.289668 -4.89113e-24)
(1.23647 0.184992 0)
(1.12857 -0.301709 1.50596e-22)
(1.2354 0.155364 6.5744e-22)
(1.24864 0.172316 -7.16228e-22)
(1.18264 -0.296099 -2.84834e-23)
(1.2214 -0.239769 2.64424e-21)
(1.22607 -0.275922 2.66783e-21)
(1.06071 0.00105856 1.82256e-23)
(0.592561 -0.0143324 8.36246e-27)
(1.06104 0.000971606 -3.87254e-22)
(1.06034 0.00128931 2.17931e-21)
(1.06096 0.00101192 -1.34737e-21)
(1.06174 0.000594772 4.92795e-23)
(1.06149 0.000717984 3.59947e-22)
(1.06254 0.000274976 -2.6319e-23)
(1.06218 0.000376231 4.91709e-23)
(1.06341 0.000212092 -1.09623e-22)
(1.063 0.000179881 9.82743e-23)
(1.06436 0.000592856 -9.46934e-25)
(1.06389 0.00031462 4.76909e-28)
(1.06543 0.00157017 -1.03537e-24)
(1.06489 0.000991876 -5.23053e-28)
(1.06664 0.00316042 -4.44185e-26)
(1.06603 0.00228709 0)
(1.06785 0.00525366 0)
(1.06727 0.00415345 0)
(1.06867 0.00750708 -1.33201e-24)
(1.06834 0.00640141 0)
(1.0686 0.00882329 7.08275e-28)
(1.06878 0.00840049 -7.35379e-28)
(1.06724 0.0067345 7.62618e-28)
(1.06808 0.00841011 -7.91524e-28)
(1.06472 -0.00203378 -8.1437e-28)
(1.06608 0.00335652 8.44949e-28)
(1.0618 -0.0190059 -3.5728e-24)
(1.06324 -0.00956474 8.92132e-28)
(1.0596 -0.0414932 1.7373e-24)
(1.06054 -0.0298926 9.26041e-28)
(1.05923 -0.064331 -2.5965e-25)
(1.05912 -0.0531428 0)
(1.06201 -0.0854867 1.57265e-24)
(1.06011 -0.0749989 8.86494e-28)
(1.07067 -0.108821 1.58452e-24)
(1.06537 -0.0965315 0)
(1.08881 -0.137815 4.61517e-23)
(1.07841 -0.122707 0)
(1.11852 -0.168449 5.97983e-23)
(1.10219 -0.153457 -9.81443e-23)
(1.15963 -0.192629 0)
(1.13763 -0.181514 -2.2401e-23)
(1.21136 -0.206556 -2.55398e-21)
(1.18426 -0.201027 2.45785e-21)
(1.1902 0.137653 4.47935e-24)
(1.21894 0.140311 -2.04791e-22)
(1.20418 0.139336 1.98503e-22)
(1.16285 0.129812 5.42519e-24)
(1.17641 0.134531 5.8105e-25)
(1.13786 0.11783 0)
(1.15005 0.124094 0)
(1.11734 0.106245 -7.34942e-25)
(1.12697 0.111769 0)
(1.10127 0.0950446 0)
(1.10888 0.100917 0)
(1.08813 0.0788426 -9.38327e-25)
(1.09438 0.0878206 0)
(1.07797 0.0567575 0)
(1.08264 0.0682826 0)
(1.07131 0.034512 0)
(1.07421 0.0452179 0)
(1.06767 0.0179862 1.1337e-25)
(1.06919 0.0253411 0)
(1.06584 0.00861583 0)
(1.0666 0.0124913 0)
(1.06484 0.00445022 -1.35635e-27)
(1.06528 0.00605409 1.43603e-27)
(1.06413 0.00298925 1.2832e-24)
(1.06446 0.00350897 1.32633e-27)
(1.06349 0.00259164 2.30305e-24)
(1.06381 0.002722 1.13972e-27)
(1.06284 0.00246943 3.73956e-26)
(1.06317 0.00252315 0)
(1.06222 0.00230652 9.77417e-25)
(1.06253 0.00240319 -1.01973e-27)
(1.06169 0.00200588 8.7561e-28)
(1.06194 0.0021764 -9.28532e-28)
(1.06132 0.00158008 0)
(1.06149 0.00180876 0)
(1.06105 0.00112229 -6.22788e-23)
(1.06117 0.0013528 9.78411e-23)
(1.06085 0.000634524 0)
(1.06094 0.000866637 -1.17765e-23)
(1.06077 0.000440939 0)
(1.06014 0.000307038 0)
(1.06039 -1.64269e-05 -1.55894e-23)
(1.06027 0.000161876 -3.17546e-22)
(1.05976 0.00053737 4.05313e-23)
(1.05997 0.000424952 8.11633e-23)
(1.05935 0.000548068 2.30622e-27)
(1.05955 0.000513992 0)
(1.05913 0.000423491 2.01171e-26)
(1.05919 0.000494852 0)
(1.05933 0.000244464 0)
(1.05919 0.000317033 0)
(1.0598 0.000175945 -4.71822e-27)
(1.05955 0.000194592 0)
(1.06034 0.000293164 0)
(1.06008 0.000212126 0)
(1.06057 0.000648264 0)
(1.06051 0.000441093 -7.82401e-23)
(1.06057 0.00101675 0)
(1.06055 0.000865903 1.55592e-22)
(1.25124 0.155774 -1.70645e-21)
(1.23328 0.139734 0)
(1.25481 -0.243915 -2.82162e-22)
(1.23979 -0.208044 -2.39202e-22)
(0.632922 0.0416557 -1.63763e-25)
(0.5519 -0.103542 0)
(1.06078 0.000245292 0)
(0.757192 0.104353 -3.66927e-25)
(0.668545 -0.17739 -6.80988e-26)
(1.06068 0.00168756 4.85651e-22)
(1.06054 0.00141417 0)
(1.06071 0.00187755 0)
(0.92366 0.156003 -9.59504e-25)
(0.827806 -0.242279 -1.04494e-24)
(1.08481 0.18647 0)
(0.961387 -0.295917 4.88398e-24)
(1.20055 0.193811 0)
(1.07355 -0.325507 0)
(1.24924 0.186788 0)
(1.15798 -0.330575 1.32681e-22)
(1.26476 0.173219 -4.50052e-22)
(1.21988 -0.314776 -1.00739e-22)
(1.2486 0.138613 0)
(1.26755 0.15504 1.11799e-21)
(1.26457 -0.283563 2.99428e-21)
(1.28938 -0.241175 -6.09493e-21)
(1.26852 -0.204236 5.36304e-21)
(0.522215 -0.0378335 -5.61495e-27)
(1.06102 0.00132974 1.86374e-22)
(1.06085 0.00138691 0)
(1.06167 0.000994208 -4.77101e-23)
(1.06138 0.00110667 -8.57089e-23)
(1.06248 0.000698079 0)
(1.0621 0.00079472 4.55988e-23)
(1.06336 0.00064117 0)
(1.06294 0.000597981 1.34688e-23)
(1.06424 0.0010334 9.46476e-25)
(1.06383 0.000759876 0)
(1.06505 0.00202226 2.03472e-24)
(1.06467 0.00144446 0)
(1.06573 0.00359311 -4.55933e-26)
(1.06541 0.00274031 0)
(1.06616 0.00554863 -1.17195e-24)
(1.06599 0.00454125 -1.1948e-27)
(1.06603 0.0074448 1.33077e-24)
(1.06619 0.00654887 1.29093e-27)
(1.06492 0.00819686 -1.34985e-24)
(1.06562 0.00807383 1.30404e-27)
(1.06265 0.00554429 -1.42431e-27)
(1.06392 0.0074818 1.39027e-27)
(1.05965 -0.00346541 -1.49495e-24)
(1.06118 0.00198556 1.55953e-27)
(1.05697 -0.0201179 3.23558e-24)
(1.0582 -0.0109095 0)
(1.05577 -0.0417688 -1.97409e-25)
(1.05612 -0.0306404 1.65387e-27)
(1.05687 -0.0633424 -3.19359e-24)
(1.056 -0.0528477 0)
(1.06107 -0.0824391 -1.57206e-24)
(1.0585 -0.0731244 -1.50058e-27)
(1.07042 -0.102124 0)
(1.06491 -0.0918971 0)
(1.08817 -0.126049 9.22201e-23)
(1.07808 -0.113569 -9.66899e-23)
(1.11589 -0.151039 0)
(1.1008 -0.138871 -7.73231e-30)
(1.15308 -0.16973 -4.58719e-23)
(1.13343 -0.161503 5.6309e-23)
(1.19824 -0.17883 -1.23624e-21)
(1.17483 -0.175746 1.23309e-21)
(1.24642 -0.173859 0)
(1.22226 -0.178346 2.38079e-22)
(1.20203 0.125694 -1.15229e-22)
(1.22884 0.123119 2.29499e-22)
(1.21513 0.12474 5.18826e-22)
(1.17585 0.12388 4.72322e-24)
(1.18888 0.125376 1.13519e-22)
(1.15093 0.117182 4.51637e-23)
(1.16334 0.121222 -5.40892e-23)
(1.12831 0.107082 -4.61773e-25)
(1.13923 0.112252 2.93063e-24)
(1.10995 0.097846 7.34942e-25)
(1.11859 0.10226 0)
(1.09527 0.0882478 2.88331e-27)
(1.10226 0.093422 -3.04856e-27)
(1.08307 0.0733185 -3.05258e-27)
(1.08888 0.0816439 3.22815e-27)
(1.07371 0.052831 -7.46442e-25)
(1.07798 0.06351 0)
(1.06787 0.0322681 3.00458e-27)
(1.07035 0.0421618 -3.17874e-27)
(1.06508 0.0169479 1.51103e-24)
(1.06617 0.0237797 3.05154e-27)
(1.06407 0.00817407 0)
(1.06443 0.0118171 0)
(1.06374 0.00421105 1.25213e-24)
(1.06386 0.00574644 -8.3567e-29)
(1.06353 0.00277895 -2.38291e-27)
(1.06364 0.00329672 2.52359e-27)
(1.06323 0.0023503 -4.75839e-26)
(1.06339 0.00249894 0)
(1.0628 0.00219917 1.03526e-24)
(1.06303 0.00226327 0)
(1.06231 0.00204668 -9.1513e-25)
(1.06255 0.00213045 0)
(1.06185 0.00179556 1.69965e-27)
(1.06207 0.00193312 -1.80224e-27)
(1.06148 0.00142932 0)
(1.06165 0.00162037 0)
(1.06121 0.000992112 6.0641e-23)
(1.06133 0.00121531 9.6093e-23)
(1.06098 0.000584056 -3.5212e-22)
(1.0611 0.000771192 1.66171e-22)
(1.06088 0.000403845 0)
(1.06025 -0.000138234 -7.29057e-23)
(1.06038 -0.000140045 2.76385e-22)
(1.06001 0.00015109 0)
(1.06014 3.39289e-05 7.15911e-23)
(1.0597 0.000398849 -1.47587e-25)
(1.05987 0.000270589 0)
(1.05936 0.000467962 3.72654e-26)
(1.05952 0.000416743 2.88228e-28)
(1.0592 0.000408065 0)
(1.05924 0.000443214 0)
(1.05938 0.000314185 0)