/*--------------------------------*- C++ -*----------------------------------*\
  =========                 |
  \\      /  F ield         | OpenFOAM: The Open Source CFD Toolbox
   \\    /   O peration     | Website:  https://openfoam.org
    \\  /    A nd           | Version:  10
     \\/     M anipulation  |
\*---------------------------------------------------------------------------*/
FoamFile
{
    format      ascii;
    class       volScalarField;
    location    "49.5";
    object      p;
}
// * * * * * * * * * * * * * * * * * * * * * * * * * * * * * * * * * * * * * //

dimensions      [0 2 -2 0 0 0 0];

internalField   nonuniform List<scalar> 
28942
(
-0.00375677
-0.00312828
0.0020447
0.00952694
0.00982708
0.000109855
0.000332253
3.56247e-05
0.00274191
0.00282998
-0.0023028
-0.00257229
-0.00295691
-0.00287421
0.000220128
0.000554195
0.00990885
0.0101787
0.0056026
0.00716366
0.00818122
0.00817305
-0.00522022
-0.00504381
-0.00357244
-0.00379476
0.0139067
0.0138557
0.00355323
0.00349659
2.64604e-05
6.40655e-05
0.000866203
0.000360089
0.00717283
0.00837884
0.0109161
0.0128751
3.28794e-06
0.0150709
0.00913115
0.011629
0.00184356
0.00176794
0.00181964
0.000331076
0.000186048
0.00026499
0.000305666
0.000427449
0.000804123
0.00282544
0.0028958
0.00287366
0.00302953
-0.00233878
-0.00103405
-0.00336541
-0.0032107
-0.00348288
-0.00355584
-0.00355683
-0.00345455
-9.68807e-05
-0.0018019
-0.000341443
0.000992776
0.00945024
0.00895364
-0.00334663
-0.00355721
-0.00329159
0.00901437
0.00886652
0.00915817
-0.00145677
-0.00106842
-0.000727192
0.00237991
0.00277942
0.00186877
0.000771726
-0.00630207
-0.00753238
0.00110634
0.00383377
0.0048761
0.00566453
0.00404767
0.00417212
0.00614015
0.00551808
-0.00137453
-0.00166837
-0.00194815
-0.00178502
-0.00160905
0.00536223
0.00665398
-0.0078437
0.0113243
0.0105253
0.00581921
0.00941646
0.000931039
0.000841588
0.000748983
0.00550343
0.00569607
0.00569007
-0.00320835
-0.00312873
-0.00311182
-0.0025936
-0.00271571
0.0158623
0.0138562
0.0132983
0.01493
0.00166765
0.00475067
0.00344768
0.00509379
0.00477081
0.0155339
0.0158296
0.0144892
0.00593632
0.00701586
0.000223077
0.000332193
0.000132794
0.0105247
0.0110284
0.0077084
0.00736061
0.0128175
0.00672104
0.00801297
0.00908045
-0.00188583
-0.00239873
0.0073817
0.00176524
0.00184746
-0.00116012
-0.00142541
-0.000961893
-0.00249835
0.00662152
0.00574839
0.00373858
0.000299728
0.000239202
0.000101598
0.000242196
0.00755872
0.00682339
-0.00183873
-0.00195631
-0.0018512
-0.0041246
-0.00366757
8.1423e-05
-0.00284254
-0.000487286
0.00842328
0.0085321
0.00962634
0.00916169
0.00773934
0.00312108
0.00303894
0.00328413
0.00316037
0.00507388
0.00485164
0.00518639
0.0054069
0.00534445
0.0054144
0.00562529
0.00617889
0.00587313
0.0054707
0.00580073
0.00650651
0.00725975
0.00755201
-0.000545229
-0.000526718
-0.00245062
0.000248313
8.1818e-05
-0.00196756
-0.00205697
0.000334923
0.000397613
0.000358308
0.000287839
0.00202477
0.001987
0.00195765
-0.00290471
-0.00309317
-0.00275601
-0.00432963
-0.00481347
-0.00412255
-0.00471161
-0.00648003
-0.00517584
0.0160563
0.0167666
0.0165341
0.000970028
0.00111531
0.00100175
0.0103788
0.00995097
0.0100314
0.00156671
0.00154523
0.00158819
0.00152367
0.00150247
0.00148122
0.00148212
0.00146017
0.00146114
0.00150303
0.00152414
0.00154547
0.00156709
0.00158866
0.00143958
0.00144006
0.00160943
0.00160991
0.00163089
0.00141904
0.00141915
0.00163132
0.00139827
0.00137767
0.0013986
0.00137816
0.00165282
0.00165329
0.0013573
0.00135781
0.00167394
0.00167463
0.00133708
0.00133762
0.00169525
0.00169592
0.00131703
0.00131758
0.00171648
0.00171719
0.0012971
0.00129772
0.00173763
0.00173831
0.00127744
0.0012779
0.00175868
0.00175933
0.00125787
0.00125828
0.00177954
0.00178022
0.00123844
0.00123875
0.0018001
0.00180067
0.00121912
0.0012192
0.00182095
0.00182145
0.00119993
0.00119954
0.00184106
0.00184126
0.00118034
0.00118011
0.00186122
0.00186138
0.00116041
0.00116065
0.00184003
0.00186015
0.00188126
0.00188117
0.00179847
0.00181963
0.00175674
0.00177798
0.00171507
0.00173605
0.00167252
0.0016939
0.00162946
0.00165097
0.0015871
0.001609
0.00154469
0.00156582
0.00150188
0.00152305
0.00145937
0.0014806
0.00141781
0.00143857
0.00137675
0.00139722
0.00133628
0.00135645
0.00129642
0.00131628
0.00125719
0.00127674
0.00121855
0.0012378
0.0011798
0.00119939
0.0011603
0.00114083
0.001141
0.00119963
0.00116076
0.0011802
0.00123869
0.00121911
0.00127778
0.00125822
0.00131741
0.00129754
0.00135764
0.00133746
0.00139848
0.001378
0.00143979
0.00141912
0.00148189
0.00146087
0.00152424
0.00150313
0.00156663
0.00154532
0.0016099
0.00158859
0.00165268
0.00163101
0.00169551
0.0016742
0.00173776
0.00171675
0.00177944
0.00175863
0.00182052
0.00179987
0.00186006
0.00184057
0.00187985
0.00188054
0.00114072
0.00114128
0.00190033
0.00189866
0.00190051
0.0019008
0.00183768
0.00187821
0.00185797
0.00179623
0.0018172
0.00175511
0.00177557
0.0017134
0.00173437
0.00167104
0.00169229
0.00162842
0.00164973
0.00158549
0.00160702
0.00154288
0.00156456
0.00150094
0.00152157
0.00145848
0.00147962
0.00141692
0.00143765
0.00137595
0.00139637
0.00133555
0.00135568
0.00129576
0.00131558
0.00125658
0.0012761
0.00121801
0.00123722
0.00117946
0.00119876
0.00112125
0.00112137
0.00114065
0.00116011
0.00116091
0.00114167
0.00112198
0.00112147
0.00119974
0.00118033
0.00123839
0.0012189
0.00127735
0.0012578
0.00131691
0.00129706
0.00135709
0.00133693
0.00139788
0.00137741
0.0014392
0.0014185
0.00148108
0.00146006
0.00152348
0.00150218
0.00156593
0.00154469
0.00160873
0.00158752
0.00165158
0.00163022
0.0016942
0.00167295
0.00173634
0.00171536
0.00177774
0.00175717
0.00181816
0.00179813
0.0018575
0.00183797
0.00189521
0.00187679
0.001898
0.00191745
0.00191392
0.00191862
0.00112154
0.00112226
0.00191894
0.0019164
0.00193556
0.00193232
0.00191967
0.00114071
0.0011217
0.00110271
0.00110299
0.0019123
0.00193639
0.00195873
0.0019371
0.00187425
0.00189362
0.0018342
0.00185426
0.00179346
0.00181411
0.00175258
0.00177285
0.00171112
0.00173198
0.00166899
0.00169012
0.00162654
0.0016478
0.00158392
0.00160519
0.00154139
0.00156262
0.00149914
0.00152025
0.00145727
0.00147817
0.00141583
0.00143649
0.00137494
0.00139532
0.00133463
0.00135471
0.00129492
0.0013147
0.00125581
0.00127529
0.0012173
0.00123649
0.00117902
0.00119809
0.00115983
0.00110223
0.00110232
0.00110224
0.00110241
0.00116096
0.00112257
0.00114182
0.00119947
0.0011802
0.0012378
0.0012185
0.00127668
0.00125716
0.00131616
0.00129635
0.00135625
0.00133614
0.00139694
0.00137653
0.00143817
0.0014175
0.00147993
0.00145898
0.00152206
0.00150096
0.00156459
0.00154332
0.00160717
0.00158584
0.00164979
0.00162853
0.00169218
0.00167104
0.00173409
0.00171322
0.00177524
0.00175479
0.00181526
0.00179544
0.001854
0.00183476
0.00189122
0.00187277
0.00192738
0.00190903
0.00194897
0.00194436
0.00193736
0.00193674
0.00110268
0.00110343
0.00195364
0.00195253
0.00195101
0.00196065
0.00196494
0.00189876
0.00197767
0.00193819
0.00194078
0.00194227
0.00190832
0.0019284
0.00186851
0.00188838
0.00182952
0.00184883
0.00178973
0.00181002
0.00174937
0.00176962
0.00170814
0.00172887
0.00166628
0.00168728
0.00162406
0.00164521
0.00158172
0.00160289
0.00153942
0.00156053
0.00149732
0.00151836
0.00145563
0.00147643
0.00141436
0.00143494
0.00137361
0.00139392
0.00133342
0.00135344
0.00129382
0.00131355
0.00125481
0.00127424
0.00121638
0.00123552
0.00117838
0.00119728
0.00114064
0.00115947
0.00110263
0.00112153
0.00108353
0.00108361
0.0010836
0.00108351
0.00108344
0.00108382
0.00108361
0.00108456
0.00108414
0.00112267
0.00108498
0.00110385
0.00116066
0.00114168
0.00119878
0.00117976
0.00123698
0.00121782
0.00127577
0.00125631
0.00131516
0.00129539
0.00135514
0.00133508
0.00139569
0.00137535
0.00143679
0.00141618
0.00147838
0.00145753
0.00152034
0.00149933
0.00156264
0.00154148
0.00160503
0.00158382
0.0016474
0.00162625
0.00168952
0.00166852
0.00173112
0.00171041
0.00177193
0.00175166
0.00181161
0.00179195
0.00184976
0.00183089
0.00188616
0.00186822
0.00192103
0.0019037
0.00195417
0.00193726
0.00197581
0.00196925
0.00195431
0.00195456
0.0019682
0.00196728
0.00110252
0.00108379
0.00106573
0.00106591
0.0019734
0.00198038
0.00200322
0.00192986
0.0019888
0.0019831
0.00196646
0.00195492
0.00192855
0.00193297
0.00190127
0.0019182
0.00186206
0.00188169
0.00182447
0.00184341
0.00178547
0.00180518
0.0017454
0.00176555
0.0017045
0.00172505
0.00166297
0.00168381
0.00162107
0.00164206
0.001579
0.00160005
0.00153697
0.00155797
0.00149513
0.00151602
0.00145363
0.00147434
0.00141255
0.00143303
0.00137197
0.00139219
0.00133193
0.00135188
0.00129246
0.00131213
0.00125358
0.00127295
0.00121526
0.00123435
0.00117751
0.00119632
0.00113996
0.00115866
0.00112114
0.00106492
0.00106488
0.00106491
0.00106514
0.0010651
0.00106534
0.00106527
0.00106545
0.00112253
0.00108484
0.00110396
0.00116013
0.00114131
0.00119785
0.00117903
0.00123596
0.00121685
0.00127464
0.00125523
0.0013139
0.0012942
0.00135373
0.00133375
0.00139413
0.00137387
0.00143506
0.00141454
0.00147645
0.0014557
0.00151821
0.0014973
0.00156024
0.00153921
0.00160238
0.00158131
0.00164445
0.00162344
0.00168623
0.0016654
0.00172747
0.00170694
0.00176788
0.00174781
0.00180712
0.00178768
0.00184483
0.0018262
0.00188061
0.001863
0.00191439
0.00189792
0.00194574
0.00192939
0.00197582
0.00196202
0.00199557
0.00198788
0.00197112
0.00196974
0.00106477
0.00106614
0.00198004
0.00194346
0.00197337
0.00198287
0.00199309
0.00199305
0.00199801
0.00199952
0.0020015
0.00200725
0.00200121
0.00197067
0.00193894
0.00198866
0.00196777
0.0019188
0.00192614
0.00189224
0.00190929
0.00185586
0.00187407
0.00181881
0.00183753
0.00178033
0.00179974
0.00174071
0.00176064
0.00170023
0.00172057
0.0016591
0.00167974
0.00161756
0.00163837
0.00157583
0.00159671
0.0015341
0.00155495
0.00149254
0.00151329
0.00145128
0.00147187
0.00141042
0.0014308
0.00137004
0.00139017
0.00133018
0.00135005
0.00129088
0.00131046
0.00125213
0.00127144
0.00121395
0.00123297
0.00117632
0.00119508
0.0011391
0.00115771
0.00110182
0.00112045
0.00106443
0.00108328
0.00104633
0.00104571
0.00104595
0.00104683
0.00104655
0.00104717
0.00104701
0.00104725
0.00104725
0.00104726
0.00104726
0.00104767
0.00104732
0.00108468
0.00104776
0.00106619
0.00112196
0.00110339
0.00115933
0.00114064
0.00119675
0.00117798
0.00123473
0.00121567
0.00127327
0.00125394
0.00131238
0.00129276
0.00135206
0.00133215
0.00139227
0.0013721
0.00143299
0.00141257
0.00147415
0.00145352
0.00151566
0.00149487
0.0015574
0.00153652
0.00159923
0.00157832
0.00164095
0.00162012
0.00168235
0.00166171
0.00172317
0.00170286
0.00176311
0.00174328
0.00180186
0.00178267
0.00183907
0.00182069
0.00187435
0.00185698
0.00190736
0.00189124
0.00193794
0.00192281
0.00196565
0.00195257
0.00199107
0.0019773
0.0020132
0.00200396
0.0019835
0.00199177
0.00198847
0.00106399
0.00104562
0.00102914
0.00102909
0.00198419
0.00199627
0.00199724
0.00200566
0.00201276
0.00202015
0.00202332
0.00201474
0.00198442
0.00197712
0.00200124
0.00199079
0.00198535
0.00193697
0.00195884
0.00191039
0.00192113
0.00188343
0.00189964
0.00184863
0.00186616
0.0018123
0.00183069
0.00177444
0.00179355
0.00173537
0.00175504
0.00169537
0.00171548
0.00165469
0.00167511
0.00161356
0.00163417
0.0015722
0.0015929
0.00153082
0.00155151
0.00148957
0.00151017
0.00144859
0.00146904
0.00140799
0.00142824
0.00136783
0.00138785
0.00132818
0.00134794
0.00128905
0.00130855
0.00125048
0.0012697
0.00121245
0.0012314
0.00117495
0.00119363
0.00113799
0.00115641
0.00110096
0.00111949
0.00108244
0.00102811
0.00102733
0.00102778
0.00102891
0.00102857
0.00102938
0.00102918
0.00102941
0.00102945
0.00102917
0.00102933
0.0010291
0.00108442
0.00104749
0.00106594
0.00112121
0.00110281
0.00115816
0.0011397
0.00119546
0.00117674
0.0012333
0.00121431
0.00127169
0.00125243
0.00131062
0.00129109
0.00135011
0.0013303
0.00139011
0.00137005
0.00143059
0.0014103
0.00147149
0.001451
0.00151271
0.00149207
0.00155414
0.00153341
0.0015956
0.00157488
0.00163693
0.00161631
0.0016779
0.00165749
0.00171825
0.00169818
0.00175769
0.00173811
0.00179589
0.00177698
0.00183253
0.00181444
0.00186726
0.00185017
0.00189971
0.00188382
0.00192961
0.001915
0.0019563
0.00194346
0.00198122
0.00196825
0.00200334
0.00199182
0.0020182
0.00200959
0.00202407
0.00201369
0.00199397
0.00102727
0.00102886
0.00199687
0.00199753
0.00201087
0.0020034
0.00200926
0.00201863
0.00201869
0.00202601
0.00203022
0.00203253
0.00203299
0.00202313
0.0019969
0.0019771
0.00201261
0.00200536
0.00198567
0.00196384
0.00197481
0.00193104
0.0019467
0.00190218
0.00191543
0.00187425
0.00188972
0.00184064
0.00185769
0.00180509
0.00182311
0.0017679
0.00178669
0.00172943
0.00174882
0.00168997
0.00170981
0.00164977
0.00166995
0.00160909
0.00162949
0.00156815
0.00158865
0.00152715
0.00154765
0.00148624
0.00150668
0.00144557
0.00146588
0.00140525
0.00142537
0.00136535
0.00138525
0.00132592
0.00134558
0.00128701
0.0013064
0.00124862
0.00126775
0.00121075
0.00122962
0.00117341
0.00119202
0.00113658
0.00115493
0.00110009
0.00111835
0.00106346
0.00108169
0.00102693
0.00104532
0.00100938
0.00100862
0.00100893
0.00101037
0.00100982
0.0010112
0.00101081
0.00101168
0.00101149
0.00101169
0.00101175
0.00101137
0.00101154
0.00101096
0.00101109
0.00101058
0.00101075
0.00104709
0.00101066
0.00102895
0.00108376
0.00106532
0.00112016
0.00110201
0.00115682
0.00113844
0.00119398
0.00117534
0.00123167
0.00121276
0.00126988
0.00125071
0.00130863
0.00128919
0.00134789
0.0013282
0.00138766
0.00136772
0.00142788
0.00140772
0.00146849
0.00144815
0.00150939
0.00148892
0.00155046
0.00152992
0.00159153
0.00157101
0.00163243
0.00161203
0.00167293
0.00165276
0.00171277
0.00169296
0.00175166
0.00173236
0.00178929
0.00177066
0.00182532
0.00180753
0.00185942
0.00184265
0.00189126
0.00187567
0.00192055
0.00190626
0.00194676
0.0019341
0.00197031
0.0019589
0.00199093
0.00198034
0.00201038
0.0020017
0.00202691
0.00202303
0.00202764
0.00201424
0.00200759
0.0020108
0.00201142
0.00202271
0.00202033
0.00201859
0.00202203
0.00102643
0.00100837
0.00099252
0.000992476
0.00203148
0.00203062
0.00203662
0.00203925
0.0020405
0.00203791
0.00201586
0.00200773
0.00201059
0.00203342
0.00202531
0.00202739
0.00201032
0.00199546
0.00199639
0.00196559
0.00197704
0.0019504
0.00196149
0.00192141
0.00193531
0.00189379
0.00190758
0.00186475
0.00187986
0.0018321
0.00184874
0.00179732
0.00181496
0.00176081
0.00177926
0.00172296
0.00174204
0.00168406
0.00170363
0.00164439
0.00166432
0.0016042
0.00162435
0.0015637
0.00158398
0.00152311
0.00154341
0.00148257
0.00150283
0.00144225
0.00146238
0.00140223
0.0014222
0.0013626
0.00138237
0.00132343
0.00134296
0.00128474
0.00130402
0.00124655
0.00126559
0.00120888
0.00122765
0.00117171
0.00119023
0.00113502
0.00115331
0.00109883
0.00111687
0.00106258
0.0010807
0.00104452
0.000991544
0.000990595
0.000991064
0.000992744
0.000992177
0.000993617
0.000993224
0.000994085
0.000993906
0.000994105
0.000994153
0.000993718
0.000993947
0.000993158
0.000993444
0.000992876
0.00104652
0.00101039
0.00102848
0.00108276
0.00106459
0.00111882
0.00110074
0.00115533
0.00113701
0.00119234
0.00117377
0.00122984
0.00121103
0.00126786
0.00124879
0.0013064
0.00128707
0.00134543
0.00132586
0.00138494
0.00136513
0.00142487
0.00140486
0.00146516
0.00144498
0.00150571
0.00148541
0.00154639
0.00152605
0.00158704
0.00156674
0.00162748
0.00160731
0.00166747
0.00164756
0.00170677
0.00168724
0.00174508
0.00172608
0.0017821
0.00176379
0.00181751
0.00180004
0.00185097
0.00183452
0.00188217
0.00186689
0.00191083
0.00189685
0.00193658
0.00192411
0.0019594
0.00194841
0.0019793
0.00196967
0.00199554
0.00198831
0.00201219
0.00200071
0.00202671
0.00202654
0.00204053
0.00203028
0.0020194
0.00201008
0.00203691
0.00203296
0.00202169
0.00202372
0.000990363
0.000992173
0.00203739
0.00203222
0.00203407
0.00204134
0.00204163
0.00204625
0.00204835
0.002046
0.00204121
0.00201578
0.00200206
0.00200378
0.00200485
0.00201059
0.00202392
0.00201902
0.00203256
0.00204208
0.00203906
0.00203329
0.00202364
0.00199705
0.001995
0.00197888
0.0019837
0.00195577
0.00196776
0.00193702
0.00194736
0.00191126
0.0019245
0.00188408
0.00189783
0.00185503
0.00186994
0.00182312
0.00183939
0.00178905
0.00180633
0.00175322
0.00177134
0.00171601
0.00173478
0.00167771
0.00169698
0.00163859
0.00165824
0.0015989
0.00161881
0.00155888
0.00157893
0.00151872
0.00153881
0.00147858
0.00149864
0.00143862
0.00145858
0.00139893
0.00141874
0.0013596
0.00137922
0.0013207
0.0013401
0.00128226
0.00130142
0.0012443
0.00126322
0.00120682
0.0012255
0.00116984
0.00118827
0.00113332
0.00115152
0.00109727
0.00111524
0.00106152
0.00107942
0.00102582
0.0010436
0.000989998
0.00100783
0.000972891
0.000972128
0.000972431
0.000974089
0.000973391
0.00097527
0.000974703
0.000976137
0.000975755
0.000976585
0.000976413
0.000976614
0.000976652
0.00097623
0.000976467
0.000975516
0.000975932
0.000974749
0.000975117
0.000974096
0.000974425
0.00100971
0.000973778
0.000991881
0.00104574
0.00102769
0.00108142
0.00106363
0.00111732
0.00109931
0.00115368
0.00113545
0.00119052
0.00117204
0.00122783
0.00120912
0.00126564
0.00124668
0.00130394
0.00128473
0.00134272
0.00132327
0.00138194
0.00136228
0.00142156
0.00140171
0.00146151
0.00144151
0.00150168
0.00148158
0.00154195
0.00152182
0.00158216
0.00156208
0.0016221
0.00160218
0.00166157
0.00164192
0.0017003
0.00168106
0.00173802
0.00171932
0.00177441
0.00175641
0.00180917
0.00179203
0.00184198
0.00182586
0.00187254
0.00185758
0.00190057
0.0018869
0.00192578
0.00191356
0.00194808
0.00193733
0.00196733
0.00195813
0.00198272
0.00197565
0.00199541
0.00198948
0.00199563
0.00204699
0.00204915
0.00202358
0.00201194
0.00203493
0.00203597
0.00203706
0.00204297
0.00204521
0.000989251
0.000971591
0.000956274
0.000955784
0.00205229
0.00205164
0.00205515
0.00205544
0.00205299
0.00204943
0.00200979
0.00199639
0.00200743
0.00201639
0.00203026
0.00203299
0.00204599
0.00204417
0.00203159
0.00201067
0.00202408
0.00203627
0.00199088
0.00198088
0.00197974
0.00198652
0.00196287
0.00197137
0.00194484
0.0019545
0.00192477
0.00193526
0.00190036
0.001913
0.00187372
0.00188727
0.001845
0.00185969
0.00181374
0.00182967
0.00178035
0.0017973
0.0017452
0.00176298
0.00170863
0.00172709
0.00167094
0.00168992
0.00163239
0.00165176
0.00159324
0.00161288
0.00155371
0.00157352
0.001514
0.00153387
0.00147429
0.00149414
0.00143471
0.00145448
0.00139537
0.00141501
0.00135636
0.00137582
0.00131775
0.00133701
0.00127957
0.00129861
0.00124185
0.00126065
0.0012046
0.00122317
0.00116781
0.00118615
0.00113148
0.00114959
0.00109559
0.00111348
0.00106014
0.00107782
0.00102474
0.00104236
0.001007
0.000955303
0.000954291
0.000954833
0.000956734
0.000956054
0.000957921
0.000957364
0.000958749
0.000958385
0.000959179
0.000959013
0.000959213
0.000959246
0.000958845
0.000959079
0.00095812
0.00095852
0.000957121
0.000957656
0.000956591
0.00100895
0.000973339
0.000991295
0.00104462
0.00102674
0.00107994
0.00106224
0.00111569
0.00109777
0.00115188
0.00113374
0.00118853
0.00117015
0.00122564
0.00120703
0.00126322
0.00124437
0.00130127
0.00128219
0.00133977
0.00132047
0.00137869
0.00135919
0.00141798
0.0013983
0.00145757
0.00143775
0.00149734
0.00147745
0.00153718
0.00151727
0.00157691
0.00155707
0.00161635
0.00159669
0.00165527
0.0016359
0.00169341
0.00167446
0.00173051
0.00171213
0.00176627
0.00174859
0.00180038
0.00178357
0.00183255
0.00181674
0.00186246
0.00184782
0.00188987
0.00187652
0.00191453
0.00190258
0.00193627
0.00192579
0.00195495
0.00194603
0.00197007
0.00196302
0.00198149
0.00197645
0.00198877
0.00198511
0.00199834
0.00199495
0.00201016
0.00199838
0.00199252
0.00205463
0.00205015
0.00204609
0.00204722
0.00095374
0.00095552
0.00205109
0.0020533
0.00205539
0.00206183
0.00206065
0.00206287
0.00206209
0.00205871
0.0020523
0.00200814
0.00199182
0.00198852
0.00198428
0.00197942
0.00199749
0.0020048
0.0020259
0.00202856
0.00204406
0.00204505
0.00204537
0.00203547
0.00202245
0.00200802
0.00204758
0.00198677
0.00199293
0.0019748
0.00196995
0.00196356
0.00197254
0.00194998
0.0019572
0.00193262
0.00194177
0.00191254
0.00192298
0.00188897
0.00190115
0.00186293
0.00187623
0.00183466
0.00184911
0.00180402
0.00181963
0.00177129
0.0017879
0.00173681
0.00175426
0.00170089
0.00171902
0.0016638
0.00168248
0.00162584
0.00164492
0.00158724
0.00160661
0.00154822
0.00156777
0.00150898
0.00152862
0.00146971
0.00148935
0.00143053
0.0014501
0.00139156
0.00141101
0.00135289
0.00137218
0.00131458
0.00133369
0.00127668
0.00129558
0.00123922
0.0012579
0.0012022
0.00122066
0.00116563
0.00118386
0.0011295
0.00114751
0.00109379
0.00111159
0.00105849
0.00107609
0.00102356
0.00104099
0.000988273
0.00100588
0.000952994
0.000970754
0.000936679
0.000935237
0.000935915
0.000938092
0.000937329
0.000939496
0.00093881
0.000940661
0.000940124
0.00094145
0.000941103
0.000941864
0.000941704
0.000941902
0.00094193
0.000941563
0.00094178
0.000940861
0.000941255
0.000939846
0.000940378
0.000938756
0.000939274
0.000937841
0.000938265
0.000972714
0.000937775
0.000955271
0.00100792
0.00099042
0.00104317
0.00102557
0.00107835
0.00106071
0.00111393
0.00109609
0.00114994
0.00113189
0.00118638
0.00116811
0.00122326
0.00120477
0.0012606
0.00124188
0.00129839
0.00127944
0.0013366
0.00131744
0.0013752
0.00135586
0.00141414
0.00139464
0.00145334
0.00143372
0.0014927
0.00147302
0.00153208
0.0015124
0.00157132
0.00155174
0.00161024
0.00159084
0.00164859
0.00162951
0.00168615
0.0016675
0.00172263
0.00170456
0.00175775
0.00174039
0.00179122
0.00177473
0.00182274
0.00180726
0.00185203
0.0018377
0.00187884
0.00186578
0.00190294
0.00189127
0.00192416
0.00191395
0.00194232
0.00193366
0.00195711
0.00195018
0.00196836
0.00196326
0.00197627
0.00197255
0.00198149
0.00198008
0.00197805
0.00206341
0.00206162
0.00199615
0.00198547
0.00205637
0.00205752
0.0020561
0.00206268
0.00206457
0.000952235
0.000934779
0.000920419
0.000920118
0.00207042
0.00206861
0.00206962
0.00206772
0.00206297
0.0020555
0.00198475
0.00197133
0.00196763
0.00198326
0.00200254
0.00202171
0.0020383
0.00204095
0.00205372
0.00204693
0.00203457
0.00201867
0.00200524
0.00197251
0.00198281
0.00205793
0.00197822
0.00197043
0.00196902
0.00197794
0.00195922
0.00196265
0.00195038
0.00195614
0.00193695
0.00194406
0.00191998
0.00192888
0.00190018
0.00191046
0.00187728
0.0018891
0.00185182
0.00186485
0.00182406
0.00183824
0.00179401
0.00180932
0.00176193
0.00177822
0.0017281
0.00174522
0.00169281
0.00171063
0.00165635
0.00167472
0.00161897
0.00163776
0.00158092
0.00160002
0.00154243
0.00156172
0.00150368
0.00152308
0.00146486
0.00148428
0.00142609
0.00144546
0.00138751
0.00140678
0.00134919
0.00136832
0.00131121
0.00133016
0.00127361
0.00129236
0.00123641
0.00125496
0.00119964
0.00121798
0.0011633
0.00118142
0.00112738
0.00114529
0.00109186
0.00110957
0.00105673
0.00107425
0.00102199
0.00103932
0.000987125
0.00100457
0.000969612
0.000919295
0.000917808
0.000918686
0.000920974
0.000920176
0.000922375
0.000921698
0.000923484
0.000922975
0.000924236
0.000923904
0.000924635
0.00092448
0.000924677
0.0009247
0.000924365
0.000924565
0.000923702
0.000924077
0.000922716
0.000923243
0.000921477
0.000922131
0.000920847
0.000971983
0.000937105
0.000954717
0.00100682
0.000989372
0.00104161
0.00102424
0.00107664
0.00105908
0.00111204
0.00109429
0.00114785
0.0011299
0.00118407
0.00116591
0.00122072
0.00120234
0.0012578
0.00123921
0.0012953
0.00127651
0.00133321
0.00131421
0.00137148
0.00135231
0.00141005
0.00139074
0.00144885
0.00142944
0.00148778
0.00146832
0.00152669
0.00150725
0.00156543
0.0015461
0.00160381
0.00158469
0.00164159
0.0016228
0.00167855
0.00166021
0.00171442
0.00169665
0.00174891
0.00173187
0.00178174
0.00176556
0.00181263
0.00179746
0.00184132
0.00182729
0.00186756
0.00185478
0.00189114
0.00187972
0.00191187
0.00190189
0.00192959
0.00192114
0.00194406
0.00193727
0.00195515
0.00195008
0.00196306
0.00195942
0.00196722
0.00196593
0.0019676
0.00196741
0.00196986
0.00196516
0.00197027
0.00195825
0.00195848
0.00207047
0.00206793
0.00206572
0.00206681
0.000917379
0.000919587
0.00205894
0.00207113
0.00207271
0.00207765
0.00207557
0.00207541
0.00207222
0.00206622
0.00205757
0.00196643
0.0019521
0.0019431
0.00194658
0.00193602
0.00194973
0.00196084
0.001983
0.0019983
0.00201981
0.00203428
0.0020495
0.00205581
0.00204661
0.00203214
0.00201509
0.00199812
0.00197882
0.00196177
0.00206729
0.00196478
0.00196143
0.0019622
0.0019502
0.00195284
0.00196278
0.00194633
0.00194937
0.00193707
0.0019424
0.00192374
0.00193082
0.00190719
0.00191587
0.00188775
0.00189785
0.0018654
0.00187694
0.00184049
0.00185326
0.00181324
0.00182716
0.00178378
0.00179878
0.00175231
0.00176829
0.00171911
0.00173592
0.00168445
0.00170196
0.0016486
0.00166667
0.00161181
0.00163032
0.00157433
0.00159315
0.00153636
0.0015554
0.00149812
0.00151727
0.00145976
0.00147895
0.00142142
0.00144058
0.00138324
0.00140231
0.00134529
0.00136423
0.00130764
0.00132643
0.00127035
0.00128895
0.00123344
0.00125185
0.00119693
0.00121514
0.00116083
0.00117883
0.00112513
0.00114293
0.00108981
0.00110742
0.00105487
0.0010723
0.00102029
0.00103754
0.000985903
0.00100312
0.000951422
0.000968563
0.000916763
0.000934204
0.000900732
0.000899355
0.000899982
0.000902381
0.000901505
0.000903975
0.000903204
0.000905338
0.00090469
0.000906387
0.000905904
0.000907105
0.000906788
0.000907488
0.000907339
0.000907534
0.000907553
0.000907245
0.000907431
0.000906625
0.000906976
0.000905673
0.00090619
0.000904459
0.000905085
0.000903102
0.000903781
0.000902329
0.000902871
0.00093642
0.000902122
0.000919236
0.000970953
0.000953721
0.00100546
0.000988161
0.00103996
0.00102268
0.00107481
0.00105735
0.00111002
0.00109238
0.00114562
0.00112778
0.00118161
0.00116357
0.00121801
0.00119977
0.00125482
0.00123637
0.00129203
0.00127338
0.00132961
0.00131078
0.00136753
0.00134854
0.00140573
0.00138661
0.00144412
0.00142491
0.0014826
0.00146336
0.00152103
0.00150184
0.00155926
0.00154019
0.00159709
0.00157824
0.0016343
0.0016158
0.00167067
0.00165262
0.00170592
0.00168846
0.00173979
0.00172306
0.001772
0.00175614
0.00180229
0.00178742
0.00183041
0.00181666
0.00185611
0.00184359
0.0018792
0.00186801
0.0018995
0.00188973
0.00191684
0.00190857
0.00193104
0.00192437
0.00194198
0.00193696
0.00194973
0.00194624
0.00195391
0.00195241
0.00195421
0.00195456
0.00195175
0.00195335
0.00194523
0.00207629
0.00207294
0.00194725
0.00193773
0.0020741
0.00207508
0.00206382
0.00207843
0.00207982
0.000915985
0.000898788
0.000885159
0.000884864
0.00208367
0.00208149
0.00208006
0.00207565
0.00206839
0.00205864
0.00194283
0.00193234
0.001917
0.00192733
0.00196182
0.0019757
0.00199938
0.00200921
0.0020322
0.00204666
0.00205863
0.00204482
0.00202875
0.00201126
0.0019895
0.00197386
0.00195437
0.00192472
0.00193434
0.00207564
0.00194174
0.00192324
0.00194997
0.00195066
0.00194529
0.00193964
0.0019398
0.00194587
0.00193331
0.00193654
0.00192374
0.00192907
0.00191061
0.00191758
0.00189439
0.00190289
0.00187529
0.00188521
0.00185342
0.0018647
0.001829
0.00184152
0.00180226
0.00181593
0.00177336
0.00178808
0.00174249
0.00175816
0.0017099
0.0017264
0.00167586
0.00169305
0.00164061
0.00165837
0.00160441
0.00162262
0.00156748
0.00158603
0.00153005
0.00154882
0.00149231
0.00151122
0.00145442
0.00147338
0.00141653
0.00143548
0.00137876
0.00139763
0.00134118
0.00135994
0.00130389
0.0013225
0.00126692
0.00128536
0.00123031
0.00124857
0.00119407
0.00121214
0.00115822
0.0011761
0.00112275
0.00114044
0.00108765
0.00110516
0.00105291
0.00107024
0.0010185
0.00103566
0.000984426
0.00100143
0.000950259
0.000967282
0.000933165
0.000883739
0.000882157
0.000883017
0.000885516
0.000884644
0.000887073
0.000886323
0.000888372
0.000887759
0.000889367
0.000888908
0.000890051
0.000889749
0.000890419
0.000890275
0.000890469
0.000890484
0.000890202
0.000890375
0.000889622
0.000889951
0.000888732
0.000889216
0.000887564
0.000888175
0.000886184
0.000886911
0.000885633
0.000935707
0.000901623
0.000918644
0.000969838
0.000952712
0.00100388
0.000986827
0.00103822
0.00102101
0.00107288
0.00105551
0.00110789
0.00109034
0.00114326
0.00112553
0.00117901
0.00116109
0.00121515
0.00119704
0.00125168
0.00123337
0.00128858
0.00127009
0.00132583
0.00130717
0.00136338
0.00134457
0.00140118
0.00138226
0.00143915
0.00142016
0.00147717
0.00145817
0.00151512
0.00149617
0.00155283
0.00153402
0.00159011
0.00157154
0.00162676
0.00160854
0.00166253
0.00164478
0.00169718
0.00168003
0.00173045
0.00171402
0.00176207
0.00174649
0.00179178
0.00177719
0.00181935
0.00180587
0.00184456
0.00183228
0.0018672
0.00185623
0.00188711
0.00187753
0.00190414
0.00189602
0.00191813
0.00191155
0.00192897
0.00192398
0.00193663
0.00193322
0.00194087
0.00193926
0.00194153
0.00194164
0.00193844
0.00194064
0.00193118
0.001935
0.00192568
0.00192368
0.00191159
0.00190398
0.00191415
0.00208091
0.00207627
0.0020814
0.0020823
0.000881671
0.000884278
0.00206741
0.00208457
0.00208586
0.00208859
0.0020863
0.00208362
0.00207793
0.00206945
0.00205834
0.00190368
0.00190259
0.0018963
0.00191464
0.00192903
0.00194715
0.00197627
0.00198871
0.00201163
0.00202521
0.00204287
0.00205681
0.00204172
0.00202442
0.00200514
0.00198617
0.00196508
0.00194271
0.00192072
0.00189536
0.00190182
0.00188968
0.00208291
0.0019254
0.00189964
0.00192596
0.0019184
0.00193379
0.00193269
0.00193026
0.0019312
0.00192732
0.00193009
0.00192036
0.00192404
0.0019106
0.00191593
0.00189761
0.0019045
0.00188164
0.00189001
0.00186286
0.00187261
0.00184139
0.00185246
0.00181743
0.00182972
0.00179118
0.00180459
0.0017628
0.00177725
0.0017325
0.00174789
0.0017005
0.00171671
0.00166705
0.00168395
0.00163239
0.00164987
0.00159677
0.0016147
0.00156041
0.00157868
0.00152352
0.00154202
0.00148628
0.00150494
0.00144887
0.0014676
0.00141143
0.00143016
0.00137408
0.00139274
0.00133689
0.00135546
0.00129996
0.0013184
0.00126332
0.0012816
0.00122702
0.00124513
0.00119107
0.001209
0.00115548
0.00117323
0.00112025
0.00113782
0.00108538
0.00110277
0.00105084
0.00106807
0.00101662
0.0010337
0.000982718
0.000999635
0.000948894
0.00096576
0.000915134
0.000932047
0.000880966
0.00089812
0.000865331
0.000863866
0.000864616
0.000867047
0.000866131
0.00086874
0.000867908
0.000870245
0.000869525
0.000871475
0.000870895
0.00087242
0.000871984
0.000873071
0.000872783
0.000873425