/*--------------------------------*- C++ -*----------------------------------*\
  =========                 |
  \\      /  F ield         | OpenFOAM: The Open Source CFD Toolbox
   \\    /   O peration     | Website:  https://openfoam.org
    \\  /    A nd           | Version:  10
     \\/     M anipulation  |
\*---------------------------------------------------------------------------*/
FoamFile
{
    format      ascii;
    class       surfaceScalarField;
    location    "5.5";
    object      phi;
}
// * * * * * * * * * * * * * * * * * * * * * * * * * * * * * * * * * * * * * //

dimensions      [0 3 -1 0 0 0 0];

internalField   nonuniform List<scalar> 
12623
(
0.383287
0.0963807
-0.152924
-0.326744
0.296438
-0.125245
0.212094
0.490307
-0.143762
-0.448669
0.102124
-0.12347
0.508803
0.104974
-0.475335
0.085883
-0.0842244
0.473677
-0.458278
-0.140528
-0.0267823
0.179474
-0.204429
0.0517369
-0.235039
0.208257
0.223099
0.012901
-0.236
0.173984
0.0192733
0.0298421
0.410328
-0.184213
-0.226115
-0.266841
0.214623
0.462545
-0.217238
-0.161818
0.155184
0.223873
0.0223436
0.0298278
-0.269409
-0.214377
0.0749021
0.0993385
0.0284587
-0.123566
-0.00423078
0.0224577
-0.123668
0.200549
-0.0130614
0.0639777
-0.00756857
-0.0421686
0.00738111
0.0423561
-0.097841
0.0217206
0.0685518
-0.0870506
-0.052959
-0.0397919
-0.0100825
0.0097157
0.0401586
0.00863136
-0.083564
0.0351408
-0.0367034
0.0352523
-0.276619
0.0201266
0.28632
0.0361225
-0.306908
-0.00583311
-0.308629
0.0181689
0.310587
-0.23711
0.196867
-0.196023
0.236267
-0.235409
-0.194871
0.19317
-0.244141
0.242841
-0.189536
0.190836
-0.246876
0.199602
-0.530458
0.073211
-0.0551854
0.512432
-0.0887519
-0.508007
0.0663012
0.505934
-0.51252
0.027708
-0.00944189
0.494254
-0.0384073
-0.502431
0.0283175
-0.541322
-0.0199599
0.522875
-0.513791
0.0456795
0.435533
-0.0396183
-0.461592
0.0656775
-0.00921886
0.065989
0.378763
-0.478692
-0.0157823
0.454856
-0.481015
0.0300317
0.195942
-0.187855
0.234754
-0.373438
0.179422
-0.180646
0.374661
-0.205679
-0.347988
0.180229
-0.161709
-0.440331
-0.423684
-0.136632
0.419788
-0.405971
-0.057804
-0.311739
0.0475138
0.322029
0.235828
0.0287785
-0.32241
-0.255893
0.0995169
0.392204
-0.0787991
0.371941
-0.310327
0.0171849
-0.305913
0.303469
0.0680205
-0.0728112
-0.298678
0.0597874
0.283231
-0.0395493
-0.0283495
0.017183
0.314315
-0.303148
-0.325283
0.322551
-0.0256173
0.318689
-0.0396636
0.0448323
-0.323858
0.208452
-0.211956
-0.019729
0.0232324
-0.0838864
0.214206
0.0781331
-0.220658
0.0470152
-0.0383134
-0.23022
0.109352
-0.0997898
-0.243409
0.158073
-0.144885
-0.25182
0.195408
-0.186997
-0.264978
0.217552
-0.204395
-0.267584
0.223542
-0.220936
-0.271002
0.222567
-0.21915
0.215271
-0.263195
-0.223077
0.21504
-0.217319
-0.0816074
-0.129833
0.217217
0.126822
0.220259
-0.135052
-0.222305
-0.0147426
-0.229249
0.0539587
-0.239364
0.119468
-0.249283
0.167993
-0.260761
0.206886
-0.263522
0.220313
-0.268473
0.228493
-0.262051
0.216145
-0.256698
0.209918
0.161031
0.224418
-0.16519
0.225602
0.152646
0.207084
-0.25182
-0.21846
-0.237453
0.18784
0.178468
0.229138
-0.183188
0.226356
0.177714
0.188141
-0.230137
-0.209824
-0.219299
0.169988
0.190605
0.228281
-0.189748
0.181552
0.15164
-0.214833
-0.166944
-0.196244
0.128584
0.228683
-0.195274
-0.200836
0.233495
0.0907913
-0.10948
-0.196144
0.081601
-0.187054
0.237331
-0.235618
-0.19146
-0.228181
0.228329
-0.200984
-0.186124
0.237944
-0.237698
-0.165436
-0.180862
0.238714
-0.239819
-0.0805023
-0.134036
0.243632
-0.246857
0.0571837
-0.0109296
0.253728
-0.26029
0.174555
0.126338
0.265301
-0.26704
0.222052
0.211897
0.263683
-0.25588
0.208343
0.225135
0.240251
-0.228518
0.176106
0.194289
0.207625
-0.189729
0.110689
0.149095
-0.177944
0.0698161
-0.260683
0.26462
-0.213762
0.23764
-0.123004
-0.224116
-0.189987
-0.278679
0.274794
-0.219192
-0.232518
-0.280824
0.259019
-0.199131
-0.22518
-0.256647
0.233916
-0.164266
-0.202022
-0.22968
0.214007
-0.0841166
-0.14065
-0.213183
0.211476
0.0249396
-0.037489
-0.218257
0.228404
0.116675
0.0713519
-0.233689
0.245903
0.165501
0.14736
-0.241738
0.188032
0.185716
0.188806
-0.189708
0.234397
0.235537
-0.176374
0.214996
-0.0189171
-0.174311
0.0152835
-0.0270357
-0.178935
-0.264664
0.269312
-0.127651
-0.0313644
0.0301429
-0.222894
-0.266775
-0.0292536
-0.0458024
0.0497414
-0.17825
-0.178489
0.182315
0.011457
-0.04125
-0.183041
0.272949
-0.273597
0.191484
0.222332
-0.246187
-0.177129
0.226404
-0.180447
0.260042
0.208849
-0.193037
0.251657
-0.260357
-0.182761
-0.180654
0.266684
-0.266825
-0.165295
-0.174534
0.270633
-0.267869
-0.0832665
-0.130227
0.266518
-0.267734
0.0583991
-0.0122804
0.267763
-0.269862
0.176655
0.126367
0.267049
-0.265856
0.220859
0.209084
0.258215
-0.250764
0.200892
0.217494
0.237954
-0.220555
0.158707
0.18148
0.202565
-0.191766
0.09989
0.131105
0.0603652
-0.271934
0.278964
-0.220791
-0.192609
-0.276614
0.277518
-0.220096
-0.230169
-0.259252
0.258993
-0.198871
-0.206914
-0.234543
0.234607
-0.164329
-0.177573
-0.21675
0.218155
-0.0855214
-0.122794
-0.214445
0.222145
0.0172396
-0.0337785
-0.23118
0.239434
0.108421
0.0623162
-0.251076
0.258937
0.157639
0.135718
-0.265552
0.261952
0.191633
0.179101
0.187957
0.181581
-0.162584
0.215399
0.229263
0.159429
0.208681
-0.141706
0.211841
-0.0726099
0.0737798
-0.267945
-0.0637774
-0.231727
0.0548316
-0.184025
-0.188059
0.188197
0.0113191
-0.191527
-0.0377826
0.104259
-0.0913909
-0.195909
0.118983
-0.192974
-0.318155
0.317326
0.0746083
0.171783
-0.158843
-0.280885
-0.317803
0.171432
0.194141
-0.180274
0.220887
0.248873
0.205311
-0.136937
0.14812
0.197498
0.207114
-0.213501
-0.135319
0.204879
-0.134703
-0.291356
0.207054
0.293151
-0.295207
0.195335
-0.201983
0.239626
-0.253066
-0.163689
-0.154322
0.26699
-0.282268
-0.167483
-0.16673
0.284858
-0.292169
-0.157984
-0.171944
0.296447
-0.299227
-0.0804859
-0.125949
0.299139
-0.301811
0.0610711
-0.0123686
0.298843
-0.300087
0.177898
0.123399
0.290542
-0.286996
0.217313
0.199538
0.272307
-0.263834
0.192418
0.202805
0.243784
-0.227618
0.142541
0.16143
0.209103
-0.197767
0.0885546
0.11259
0.0507952
-0.319125
0.314078
-0.122605
-0.0310517
-0.308408
0.304846
-0.217229
-0.186939
-0.291771
0.288249
-0.216575
-0.217094
-0.271356
0.259633
-0.187148
-0.190021
-0.245802
0.234841
-0.153368
-0.163741
-0.227042
0.222862
-0.0813421
-0.114995
-0.22305
0.228998
0.0112913
-0.0339658
-0.238486
0.250668
0.0962392
0.0528282
-0.264843
0.266408
0.156075
0.121543
-0.278396
0.290172
0.179857
0.167112
0.182922
0.17577
-0.160447
0.200076
0.224759
0.199515
-0.202627
-0.0802905
-0.148151
-0.242419
0.133759
-0.198802
-0.23557
0.236655
-0.318889
-0.22899
-0.287465
0.151515
-0.132162
-0.215262
0.173684
-0.215142
-0.119776
0.13069
0.186584
-0.112045
0.197148
0.195728
-0.182917
0.208076
0.195911
0.24869
0.306113
-0.300147
0.189369
0.196546
0.316621
0.22458
-0.231411
-0.128488
0.212087
-0.122209
-0.219902
-0.114887
0.158734
-0.139217
-0.239419
0.183935
-0.240464
0.287306
0.211156
-0.216374
0.248881
-0.269034
-0.143536
-0.136852
0.287692
-0.294963
-0.160211
-0.148072
0.311517
-0.318835
-0.150666
-0.155391
0.32651
-0.331482
-0.0755137
-0.118274
0.33407
-0.334129
0.0611305
-0.00978041
0.331419
-0.324787
0.171265
0.120689
0.315633
-0.30249
0.204171
0.190384
0.287662
-0.270638
0.175395
0.187977
0.253901
-0.236825
0.125466
0.144692
0.221784
-0.208753
0.0755234
0.097548
0.201058
-0.195903
0.00616358
0.0431007
0.199729
-0.21242
-0.0675997
-0.0339567
0.225191
-0.245954
-0.118454
-0.102116
-0.38071
0.377294
0.078024
0.373212
-0.363091
0.226535
0.163934
-0.372374
0.365155
-0.115386
-0.0261322
-0.347869
0.336749
-0.206109
-0.169652
-0.318978
0.303311
-0.200908
-0.199323
-0.288087
0.271597
-0.170657
-0.174798
-0.256581
0.244109
-0.140897
-0.148725
-0.237039
0.233673
-0.077976
-0.107924
-0.234134
0.239344
0.00608047
-0.0344266
-0.248015
0.259742
0.0845121
0.044158
-0.269462
0.285303
0.140234
0.111823
-0.290602
0.297338
0.173121
0.161813
0.180113
0.154815
-0.141978
0.187239
0.196657
0.188226
0.271608
-0.272474
-0.318023
-0.345615
0.254131
-0.15066
0.171505
-0.260264
-0.263746
-0.132868
-0.212907
-0.258503
0.194984
-0.220102
-0.100829
0.200872
0.203649
0.279568
0.325195
-0.321098
0.185272
0.336485
0.185256
-0.265774
-0.294164
0.209709
-0.240915
-0.27089
0.257618
-0.332343
-0.278921
-0.309993
0.198839
-0.267797
-0.164167
0.186444
-0.282541
-0.14629
-0.281623
0.323892
0.203885
-0.234297
0.240753
-0.256579
-0.112662
-0.224548
0.213421
-0.0897021
-0.106004
0.273173
-0.291533
-0.125176
-0.120258
0.303291
-0.318131
-0.145372
-0.136314
0.332415
-0.34581
-0.137271
-0.141106
0.356787
-0.364661
-0.0676399
-0.107298
0.368624
-0.367609
0.0601148
-0.00581659
0.362101
-0.351361
0.160525
0.115182
0.337643
-0.320385
0.186913
0.176666
0.302601
-0.283797
0.15659
0.170193
0.266972
-0.250857
0.109351
0.127868
0.236658
-0.223056
0.0619216
0.0833487
0.21175
-0.206975
0.00138857
0.0317943
0.210725
-0.217445
-0.0608797
-0.0302059
0.234593
-0.250332
-0.102715
-0.0849683
0.266989
-0.288402
-0.124877
-0.116212
-0.400277
0.417528
0.209284
0.377265
-0.355778
0.23613
0.23112
-0.425223
0.428025
0.0752222
0.156239
-0.417683
0.402914
-0.100616
-0.0157903
-0.382691
0.361282
-0.1847
-0.14943
-0.340585
0.320267
-0.18059
-0.178626
-0.302645
0.284689
-0.152701
-0.157176
-0.268716
0.254911
-0.127091
-0.132753
-0.247249
0.244586
-0.0753137
-0.100262
-0.24609
0.251052
0.00111898
-0.0359306
-0.258981
0.270112
0.0733815
0.0362287
-0.283595
0.291355
0.132473
0.0983404
-0.304321
0.314954
0.162488
0.148847
0.173968
0.242523
-0.257192
-0.317674
-0.334366
0.221112
-0.152783
0.174327
-0.303167
-0.312101
-0.129084
0.321862
0.192382
0.18091
-0.176553
0.275211
0.322126
0.156843
-0.151103
0.202336
0.22898
0.134045
-0.117763
0.170957
0.179598
0.103759
-0.0935886
0.176414
0.174223
0.0852455
-0.0774212
0.193047
0.188805
-0.0690789
0.205078
-0.251912
-0.272365
0.23305
-0.243443
-0.274642
-0.298442
0.224267
-0.266343
-0.263449
-0.303736
0.205175
-0.286528
-0.219234
0.197778
-0.312911
-0.231911
-0.304996
0.194862
-0.303075
0.158778
-0.135995
-0.334884
0.18216
-0.326549
0.224844
-0.235498
-0.079048
0.216262
-0.0604975
-0.253159
0.251954
-0.26894
-0.0956768
-0.089548
0.289721
-0.30271
-0.112186
-0.0994769
0.321244
-0.336936
-0.12968
-0.11778
0.352563
-0.368191
-0.121643
-0.125479
0.382409
-0.392626
-0.0574225
-0.0930797
0.397898
-0.396232
0.0584487
-0.000544682
0.38942
-0.376006
0.147112
0.10837
0.359255
-0.338903
0.16656
0.159915
0.319122
-0.299213
0.136682
0.150413
0.281785
-0.264898
0.0924636
0.110439
0.249868
-0.2359
0.0479536
0.0683189
0.226198
-0.221599
-0.00321056
0.0220929
0.223809
-0.231603
-0.0530854
-0.0279959
0.245047
-0.259159
-0.0886021
-0.0715249
0.275412
-0.296953
-0.103336
-0.0999589
0.317003
-0.337773
-0.115226
-0.109034
-0.373919
0.401233
0.208816
0.347991
-0.328713
0.1785
0.195185
-0.426155
0.447078
0.18836
0.206197
-0.461765
0.459271
0.0777166
0.141551
-0.450127
0.432359
-0.0828478
-0.00664677
-0.409775
0.384139
-0.159063
-0.126846
-0.360603
0.338044
-0.158031
-0.155091
-0.318924
0.299984
-0.133761
-0.138055
-0.282973
0.267501
-0.111618
-0.115743
-0.257908
0.254569
-0.0719745
-0.0906694
-0.256749
0.262388
-0.0045204
-0.0381106
-0.270171
0.280338
0.0632143
0.0284464
-0.291798
0.305719
0.118551
0.0868807
-0.32273
0.327015
0.158203
0.131837
-0.332857
0.351501
0.166628
0.168126
-0.363043
0.387523
0.167901
0.173714
0.161782
0.125866
-0.121142
0.270488
-0.134136
0.372165
0.313856
0.114724
-0.105036
0.192648
0.222561
0.0940995
-0.0855097
0.162367
0.168662
0.0731734
-0.0682791
0.17152
0.161886
0.0580034
-0.0542492
0.189293
0.178529
0.17534
-0.193982
-0.294269
-0.309286
0.155914
-0.139631
0.165739
-0.360992
-0.359911
-0.117493
0.0460633
-0.0376814
0.207881
0.196892
-0.263997
-0.28301
0.246721
-0.265897
-0.264927
-0.296964
0.225492
-0.28666
-0.242064
-0.293583
0.211906
-0.303572
-0.209979
-0.289
0.203825
-0.32474
-0.151521
0.129234
-0.286999
-0.171398
-0.274391
0.192313
-0.353122
0.145662
-0.382496
-0.123077
0.172627
-0.387957
-0.27733
0.31077
0.0957941
0.0938426
-0.121899
-0.258943
-0.246876
0.0633886
-0.12202
0.153699
-0.414175
-0.379437
0.355911
-0.0995513
-0.403293
-0.0981638
0.223499
-0.229705
-0.0314755
-0.0228165
0.0231931
0.207504
0.210844
-0.0101617
-0.270436
0.235934
-0.254641
-0.0603416
-0.0542677
0.268065
-0.287171
-0.0765704
-0.0761243
0.301042
-0.317786
-0.0954424
-0.0856054
0.33281
-0.349516
-0.112973
-0.102757
0.366936
-0.384122
-0.104458
-0.108059
0.399963
-0.411014
-0.046372
-0.0772381
0.416637
-0.414316
0.056127
0.00507866
0.406177
-0.39176
0.132694
0.100231
0.373762
-0.351999
0.144797
0.141917
0.330711
-0.30951
0.115481
0.129124
0.290905
-0.273286
0.0748446
0.0918342
0.25792
-0.244664
0.0346982
0.0529521
0.236077
-0.23286
-0.0064276
0.0135054
0.236014
-0.245667
-0.0434327
-0.0248412
0.259664
-0.274906
-0.0733596
-0.0575284
0.292247
-0.307787
-0.0877962
-0.0826183
0.320517
-0.340818
-0.094925
-0.0963036
-0.102399
-0.339453
0.367092
0.150861
0.127231
-0.393839
0.41644
0.186215
0.168437
-0.44627
0.461881
0.172749
0.176368
-0.47568
0.477744
0.0756521
0.127753
-0.467967
0.448307
-0.0631876
0.00313018
-0.424514
0.397633
-0.132183
-0.103053
-0.373269
0.350442
-0.135204
-0.130727
-0.33163
0.31332
-0.115451
-0.119243
-0.296658
0.280659
-0.095619
-0.0990808
-0.269282
0.263767
-0.0664599
-0.0792924
-0.264897
0.271479
-0.0111022
-0.0392402
-0.280064
0.29103
0.0522478
0.019861
-0.30225
0.316015
0.104786
0.0756613
-0.329595
0.344978
0.14282
0.118257
-0.364479
0.375908
0.155199
0.148625
-0.391965
0.413949
0.145917
0.157657
0.1354
0.0830776
-0.0744794
0.363567
0.418642
0.0728896
-0.0690376
0.266636
0.312266
0.0640223
-0.0577457
0.186372
0.217546
0.0503959
-0.0431922
0.155164
0.161312
0.0362795
-0.0290968
0.164337
0.154974
0.0251395
-0.0240682
0.188222
0.174572
0.196017
-0.257121
-0.290816
0.243495
-0.2839
-0.2469
-0.292128
0.225435
-0.300189
-0.221625
-0.281937
0.220879
-0.320626
-0.189827
-0.270571
0.215898
-0.348325
-0.144505
-0.251785
0.201447
-0.381943
-0.0491865
0.0284647
-0.226154
-0.0797558
-0.228374
0.180606
-0.414865
0.116356
-0.431317
-0.0883327
0.143949
-0.441767
-0.238724
0.24451
0.022678
-0.00188167
-0.00583527
-0.218437
-0.242736
0.00213122
-0.0760649
0.100011
-0.455263
-0.415271
0.400837
-0.073898
-0.431898
-0.0594378
-0.00389791
-0.000723566
0.212125
-0.00863022
0.215576
0.235545
-0.243937
-0.0230835
0.236919
-0.0115364
-0.284062
0.252394
-0.266878
-0.0458574
-0.0458108
0.282214
-0.296103
-0.0626818
-0.0607879
0.31079
-0.323138
-0.0830937
-0.0709186
0.339658
-0.354985
-0.097647
-0.0862368
0.375133
-0.392756
-0.0868345
-0.0879109
0.409597
-0.420226
-0.0357426
-0.0603974
0.424414
-0.420397
0.0521106
0.00926625
0.410353
-0.394731
0.117072
0.0901866
0.376259
-0.354901
0.123439
0.123446
0.333793
-0.312917
0.0946048
0.108016
0.294057
-0.276973
0.0577603
0.0729749
0.262792
-0.252753
0.0246594
0.0387714
0.248286
-0.250404
-0.00430933
0.00903762
0.258244
-0.270927
-0.0307491
-0.0170015
0.28436
-0.298001
-0.0597187
-0.0440958
0.311299
-0.319524
-0.0795713
-0.0693194
0.333186
-0.343077
-0.0850343
-0.0826417
0.360687
-0.379392
-0.0808456
-0.0847897
-0.0767194
-0.264845
0.29102
0.0696192
0.0430535
-0.323545
0.354605
0.1198
0.0947062
-0.390865
0.422712
0.154368
0.132178
-0.446786
0.465322
0.154213
0.152294
-0.474176
0.475543
0.0742849
0.118899
-0.468061
0.450551
-0.0456772
0.0106121
-0.427542
0.400852
-0.105492
-0.080044
-0.376589
0.354288
-0.112903
-0.106464
-0.336893
0.321195
-0.0997523
-0.101848
-0.306822
0.29212
-0.0809175
-0.0847078
-0.280313
0.27292
-0.0590671
-0.0674855
-0.272156
0.27757
-0.0165161
-0.038476
-0.286848
0.299149
0.0399472
0.0105831
-0.312044
0.326552
0.0902776
0.0627662
-0.341658
0.358449
0.12603
0.103151
-0.375723
0.392701
0.138221
0.131351
-0.414404
0.424256
0.136065
0.135954
0.110988
0.045115
-0.0265738
0.455136
0.495864
0.0169988
-0.0158589
0.362427
0.409067
0.012408
-0.0085359
0.262763
0.308815
0.00529007
-0.00293476
0.184016
0.2143
0.000717093
0.00142992
0.153017
0.159095
-0.00360547
0.00436501
0.163578
0.152798
-0.00321878
0.00262987
0.188811
0.175718
0.197924
-0.243724
-0.293992
0.23602
-0.294486
-0.230872
-0.282881
0.230053
-0.309363
-0.20483
-0.266935
0.23045
-0.335179
-0.166334
-0.248742
0.22252
-0.369398
-0.105105
-0.226435
0.205207
-0.406544
-0.0247891
-0.20942
0.173859
-0.444775
0.0249122
-0.0171405
-0.250508
0.0308974
-0.224422
0.126415
-0.468171
0.0550765
-0.04151
-0.445465
0.0715363
-0.471723
0.0465976
0.181692
-0.291765
0.244532
-0.253357
-0.0142579
-0.22348
0.146327
0.12375
0.00951539
0.268694
-0.276606
-0.0379448
-0.0304743
0.291891
-0.301977
-0.0525952
-0.0455034
0.312961
-0.324114
-0.0719404
-0.0599349
0.340396
-0.356969
-0.0810746
-0.0699547
0.376122
-0.393609
-0.0693476
-0.0687572
0.407926
-0.41827
-0.0253986
-0.0460808
0.42131
-0.417354
0.0481547
0.012306
0.406578
-0.390937
0.101432
0.0794106
0.372159
-0.351212
0.102492
0.104668
0.330354
-0.309845
0.0740961
0.0871582
0.291954
-0.276469
0.0422756
0.0550832
0.265207
-0.258755
0.0182077
0.0275092
0.256944
-0.258978
-0.0022757
0.00722671
0.262278
-0.26545
-0.0275779
-0.013701
0.269023
-0.274697
-0.0540443
-0.0405227
0.283906
-0.296958
-0.0665188
-0.0601106
0.312821
-0.328922
-0.0689328
-0.066779
0.34319
-0.359129
-0.0649066
-0.0705225
0.374223
-0.394618
-0.0535038
-0.0616248
0.410089
-0.421214
-0.0303851
-0.0439664
-0.254304
0.255305
0.0216762
0.253744
-0.260197
-0.0106873
0.00157133
-0.25995
0.278294
0.0512751
0.0384086
-0.304257
0.33449
0.0895672
0.0687435
-0.364826
0.394363
0.12483
0.101842
-0.417089
0.435625
0.135677
0.129568
-0.448739
0.456933
0.0660906
0.105785
-0.455664
0.443068
-0.0330811
0.0118816
-0.423534
0.399628
-0.0815868
-0.06051
-0.377357
0.355904
-0.0914506
-0.0841928
-0.338749
0.324196
-0.0851992
-0.0846924
-0.312352
0.300322
-0.0688867
-0.0728644
-0.289614
0.281435
-0.0508878
-0.0567777
-0.27867
0.282023
-0.0198687
-0.0357117
-0.290579
0.303072
0.0274539
0.00202747
-0.317708
0.333484
0.0745009
0.0481304
-0.350404
0.367764
0.10867
0.0862309
-0.387933
0.403116
0.123039
0.111182
-0.420953
0.445199
0.111819
0.118117
-0.459309
0.477364
0.0840699
0.0968768
0.0743306
-0.0136998
0.0305875
0.438248
-0.0050219
0.497494
0.477142
-0.0396141
0.0410959
0.360945
0.40004
-0.0444421
0.0463181
0.260887
0.305469
-0.046761
0.0463971
0.18438
0.213857
-0.0449567
0.04284
0.155133
0.160535
-0.040858
0.0376695
0.166766
0.15478
-0.0364451
0.0342965
0.190959
0.176943
-0.0250157
0.0164903
0.220651
0.207204
0.0164591
0.31156
0.248526
-0.0343509
0.0430939
-0.259251
-0.262976
-0.0315721
-0.0131452
0.0211414
-0.453461
-0.424954
-0.00940496
-0.234888
-0.289976
0.234132
-0.298565
-0.497412
0.0499224
-0.220016
-0.267695
0.237834
-0.316747
0.309491
-0.242389
0.0566483
0.0520837
-0.0269237
0.2864
0.0546758
0.306899
-0.186409
-0.246859
0.235822
-0.348481
-0.130363
-0.223485
0.222529
-0.38672
-0.0479298
-0.203294
0.194369
-0.427054
0.0327211
-0.211244
0.146204
-0.464563
0.0542856
-0.235614
0.0842609
-0.480895
0.0521213
-0.0454661
-0.269631
0.0630965
-0.270226
0.0249697
-0.475551
0.0118042
-0.0184692
-0.446796
0.00763209
-0.420782
-0.292521
0.259592
-0.26667
-0.00718002
0.0267191
0.276521
-0.28479
-0.0296761
-0.0206237
0.296571
-0.302573
-0.0465936
-0.0337219
0.314148
-0.325209
-0.0608787
-0.0483601
0.339079
-0.356943
-0.0632098
-0.0560854
0.372339
-0.388766
-0.0529211
-0.0533613
0.400214
-0.408873
-0.0167403
-0.0346322
0.409536
-0.404554
0.0431717
0.0129697
0.393108
-0.378111
0.0864352
0.0679652
0.360566
-0.341543
0.0834693
0.0871224
0.32264
-0.304998
0.0564539
0.0682551
0.290959
-0.280627
0.0319436
0.0410439
0.274963
-0.272889
0.0161333
0.0218454
0.273329
-0.274436
-0.00116912
0.00766742
0.276337
-0.279865
-0.0240497
-0.0117997
0.286423
-0.296154
-0.0443137
-0.033965
0.307381
-0.3186
-0.0552995
-0.0488833
0.329003
-0.337148
-0.0607879
-0.0563758
0.349078
-0.355205
-0.0587802
-0.0585926
0.365978
-0.375067
-0.0444146
-0.0508514
0.384779
-0.393617
-0.0215475
-0.0342541
0.395386
-0.394391
0.00663691
-0.00763564
-0.26443
0.266561
-0.0128177
0.27123
-0.280156
-0.0365397
-0.0247726
-0.264352
0.266267
0.0197607
0.0037799
-0.273223
0.280166
0.0443314
0.0314533
-0.294381
0.313899
0.0700492
0.0545285
-0.334807
0.357565
0.102072
0.0809349
-0.379237
0.402888
0.112026
0.107895
-0.423685
0.438148
0.0516284
0.0849874
-0.440407
0.43078
-0.0234538
0.00962224
-0.414709
0.394688
-0.0615656
-0.0444393
-0.375669
0.356438
-0.0722201
-0.0651738
-0.339946
0.325292
-0.0705449
-0.0681998
-0.31443
0.304784
-0.0592404
-0.0620028
-0.29639
0.288733
-0.0432303
-0.0483843
-0.284659
0.285524
-0.0207334
-0.0316385
-0.292034
0.303363
0.016124
-0.00448212
-0.317969
0.334831
0.0576394
0.0335245
-0.352604
0.371581
0.0896919
0.0684583
-0.391795
0.408894
0.10594
0.0909678
-0.428979
0.439076
0.101722
0.0980315
-0.450228
0.467238
0.0670605
0.0857249
0.0441562
-0.0219033
0.0436818
0.475715
0.49153
-0.0695962
0.0758003
0.432044
0.451228
-0.0848811
0.0925197
0.353307
0.390959
-0.0971362
0.0985948
0.259429
0.300852
-0.0973042
0.093926
0.187758
0.215148
-0.088768
0.0826712
0.16123
0.165693
-0.0770848
0.0725113
0.171339
0.160367
-0.0691414
0.064816
0.195285
0.180313
-0.0598188
0.0498083
0.230661
0.212202
0.27141
-0.0533549
0.0623727
-0.278649
-0.288991
-0.0445197
0.0255916
-0.0386255
-0.407748
-0.387621
0.0188218
-0.232166
-0.277827
0.237762
-0.298493
0.304554
-0.28213
0.0342248
0.312047
0.047183
-0.206811
-0.247292
0.240788
-0.321712
-0.154868
-0.222354
0.230079
-0.356031
-0.0729401
-0.198474
0.20272
-0.395071
0.0218747
-0.192448
0.150968
-0.431818
0.0738787
-0.230837
0.0815847
-0.461887
0.0698928
-0.24241
0.0174141
-0.47334
0.079481
-0.287335
-0.0363527
-0.457668
0.0624465
-0.0537127
-0.297725
0.0740487
-0.290251
-0.0577561
-0.427665
-0.298776
0.289346
-0.0442831
0.0553491
-0.303844
-0.0502814
0.0698566
-0.312233
0.0207148
0.457757
0.041119
-0.0555193
-0.393348
0.0260628
-0.372565
-0.286925
0.275011
-0.279768
-0.00242333
0.0196001
0.288922
-0.29327
-0.0253281
-0.0114695
0.300811
-0.307542
-0.0398633
-0.0261808
0.31663
-0.32899
-0.0485182
-0.0392717
0.341122
-0.356213
-0.0481194
-0.0439536
0.368578
-0.382216
-0.0392834
-0.0409961
0.391321
-0.396846
-0.0112152
-0.0255266
0.395205
-0.387641
0.0356074
0.0113282
0.375147
-0.359781
0.0710682
0.0554721
0.343797
-0.328258
0.0679305
0.071139
0.314306
-0.302651
0.0447992
0.054303
0.29423
-0.28874
0.0264528
0.0326229
0.285629
-0.283472
0.0139758
0.0187351
0.282023
-0.281285
-0.00190732
0.00621851
0.282039
-0.284743
-0.021346
-0.0110449
0.289927
-0.296585
-0.0376557
-0.0287812
0.303909
-0.311188
-0.0480211
-0.0415592
0.319103
-0.328196
-0.0516945
-0.0484604
0.338625
-0.349146
-0.0482597
-0.0481638
0.357901
-0.363475
-0.0388411
-0.0420961
0.368271
-0.36972
-0.0200989
-0.0294574
0.369109
-0.3681
0.00562701
-0.00824614
0.364952
-0.357746
0.0188568
0.0156741
-0.283031
0.277376
-0.0308842
-0.0382049
-0.275083
0.273099
-0.0108333
-0.0224799
-0.274505
0.278548
0.0157172
0.00237386
-0.283297
0.28904
0.0385881
0.0267049
-0.297867
0.308905
0.0590108
0.0457019
-0.322214
0.340361
0.0839255
0.0676256
-0.362017
0.387756
0.0862871
0.0862401
-0.409064
0.421714
0.038979
0.0636789
-0.422363
0.414222
-0.0153127
0.00897278
-0.401795
0.386638
-0.0464086
-0.032012
-0.371992
0.356838
-0.0570661
-0.0505278
-0.3431
0.32958
-0.0570252
-0.0544619
-0.318779
0.309483
-0.0499443
-0.0512013
-0.302201
0.295475
-0.0365042
-0.0411032
-0.290929
0.289302
-0.0191072
-0.0270917
-0.292505
0.301039
0.00758936
-0.0076844
-0.313621
0.329935
0.0413246
0.0209433
-0.347493
0.366893
0.0702922
0.0509004
-0.385388
0.405433
0.0858955
0.0724726
-0.42305
0.44116
0.0836119
0.080414
-0.456558
0.46805
0.0555683
0.0703273
-0.464158
0.486242
0.0278385
0.0480482
0.029491
-0.0517149
0.0774191
0.450011
0.46053
-0.0964774
0.111657
0.416864
0.432169
-0.12414
0.133029
0.344419
0.378476
-0.13771
0.138128
0.259011
0.296171
-0.13488
0.128671
0.193967
0.218397
-0.12067
0.112192
0.169708
0.173695
-0.10496
0.0989621
0.177337
0.167599
-0.0945277
0.0877117
0.202101
0.184747
-0.0857894
0.077222
0.239229
0.214124
-0.0894213
0.0811157
0.294705
0.259211
-0.0579657
-0.00484151
0.374854
0.330049
-0.225998
-0.25864
0.237454
-0.295159
-0.0309654
0.0208877
-0.347668
-0.0462616
-0.357269
0.324061
-0.337914
0.00901112
-0.02627
0.179689
0.221435
0.28982
0.0079709
-0.340862
0.343716
0.016003
-0.331906
0.0119318
-0.17862
-0.223541
0.228283
-0.319917
-0.0987386
-0.196556
0.199462
-0.352773
0.00439255
-0.180992
0.142891
-0.386994
0.0877935
-0.206363
0.0620817
-0.412315
0.0907791
-0.251723
-0.0200379
-0.424435
0.0890689
-0.251998
-0.0740301
-0.435662
0.0892352
-0.302521
-0.0888447
-0.426579
-0.0543425
-0.314482
0.0649813
-0.316506
0.306997
-0.0448334
0.0541479
-0.32532
-0.045334
-0.327738
0.0674035
0.0822998
-0.302694
-0.0808023
-0.402382
-0.324661
0.0774097
0.0893559
-0.17328
0.263613
-0.467978
0.0152799
0.0155425
0.295248
-0.275469
0.310995
-0.299817
0.0230466
0.0202645
0.29394
-0.294324
-0.0020394
0.0137227
0.298183
-0.304919
-0.0185916
-0.00761042
0.309355
-0.318223
-0.0309947
-0.0217454
0.325025
-0.335834
-0.0377096
-0.0324698
0.34331
-0.35346
-0.0379696
-0.036477
0.361509
-0.37185
-0.0289422
-0.0329473
0.379454
-0.384341
-0.00632817
-0.0179221
0.38308
-0.375249
0.0277763
0.0100665
0.36288
-0.347379
0.0555679
0.0431029
0.33301
-0.320155
0.0550746
0.0567702
0.310743
-0.303599
0.0376544
0.0448919
0.299008
-0.295429
0.0228739
0.0280325
0.292792
-0.290067
0.0112506
0.0160975
0.288122
-0.286881
-0.0031484
0.00427416
0.287472
-0.28991
-0.0189075
-0.0104543
0.294054
-0.299653
-0.0320562
-0.0246379
0.306265
-0.313986
-0.0402999
-0.0349471
0.322021
-0.329916
-0.0437988
-0.0404262
0.336714
-0.343193
-0.0417812
-0.0413657
0.349327
-0.355302
-0.0328663
-0.0359614
0.359649
-0.36017
-0.0195783
-0.0251102
0.357304
-0.350942
-0.000735582
-0.011112
0.00844825
-0.300514
0.294302
-0.0380709
-0.0437987
-0.290198
0.285939
-0.0266252
-0.0341005
-0.282093
0.280771
-0.0095114
-0.0186342
-0.280778
0.28449
0.0120052
0.00236678
-0.289623
0.295915
0.0322957
0.0215724
-0.302681
0.311437
0.0502546
0.0389359
-0.322625
0.338965
0.0675854
0.0564379
-0.358524
0.380142
0.0646688
0.0666812
-0.396379
0.405075
0.0302824
0.0474424
-0.404804
0.39756
-0.00806849
0.00924429
-0.386933
0.37432
-0.0337959
-0.0213848
-0.362928
0.352012
-0.0461501
-0.0391362
-0.342684
0.333179
-0.0475209
-0.0451335
-0.324611
0.316353
-0.0416864
-0.0426329
-0.309698
0.303688
-0.0304942
-0.0344484
-0.298964
0.295874
-0.0160171
-0.0223673
-0.295911
0.300378
0.00312177
-0.00772123
-0.308914
0.32212
0.0281179
0.0124079
-0.337379
0.355397
0.0522747
0.0356416
-0.373161
0.391824
0.0672333
0.0547079
-0.408936
0.424594
0.067954
0.0633015
-0.437004
0.439279
0.0532935
0.0579174
-0.447958
0.453336
0.0224613
0.0393683
0.0148487
-0.0173679
0.0451962
0.429929
0.428269
-0.0747566
0.0975078
0.42726
0.430969
-0.11631
0.13392
0.399254
0.413367
-0.148395
0.158521
0.334292
0.364001
-0.16368
0.164152
0.258539
0.291012
-0.160351
0.153131
0.201186
0.222197
-0.144432
0.135873
0.178267
0.182393
-0.128596
0.122634
0.1833
0.174876
-0.11771
0.112963
0.206848
0.189671
-0.107232
0.103551
0.242909
0.219855
-0.101801
0.110202
0.286304
0.260961
0.266971
-0.068096
-0.371514
0.282845
0.0225179
0.0257646
-0.0360682
-0.337365
-0.331049
0.0249078
-0.202223
-0.235036
0.219281
-0.286157
-0.122976
-0.199303
0.186772
-0.307227
-0.0164415
-0.175722
0.126011
-0.335894
-0.0486213
-0.344716
0.0877914
-0.18099
0.033985
-0.358897
0.122757
-0.238341
-0.065499
-0.366854
0.101883
-0.264538
-0.129465
-0.369001
-0.0442459
-0.334248
0.0531738
-0.329897
0.321318
-0.0356666
0.0415262
-0.337644
-0.0337787
-0.343287
0.050565
0.107031
-0.269794
-0.137096
-0.387411
-0.341081
0.0665166
0.0984219
-0.318643
-0.109025
-0.398356
-0.337068
0.0798102
0.091993
-0.317277
-0.0864913
-0.383987
-0.0495717
0.0182948
0.314122
0.277841
-0.442311
0.230459
0.0260501
-0.0108391
0.363552
0.0278326
-0.0379845
-0.327213
-0.328517
0.0253001
-0.0537612
0.357652
-0.258411
0.311903
-0.323277
0.0203848
-0.299993
0.012502
0.310009
0.019881
0.314458
-0.305844
0.0144329
0.0114452
0.301137
-0.302175
-0.00100171
0.00901577
0.301543
-0.306159
-0.0139757
-0.00824241
0.308583
-0.315155
-0.0244229
-0.0193209
0.320542
-0.328942
-0.0293098
-0.0270828
0.336315
-0.345736
-0.0285491
-0.0291038
0.354203
-0.36304
-0.0201046
-0.0244803
0.369318
-0.372983
-0.00266301
-0.0116443
0.372014
-0.365928
0.021691
0.00909694
0.355719
-0.342351
0.0421994
0.0328938
0.330008
-0.318881
0.0439468
0.0444279
0.311387
-0.305666
0.0319331
0.0373987
0.302039
-0.298773
0.0196077
0.0244053
0.296101
-0.293639
0.00878877
0.013426
0.291892
-0.291547
-0.00349328
0.00252661
0.292295
-0.294804
-0.0163988
-0.00970618
0.298154
-0.302867
-0.0273431
-0.0212875
0.307797
-0.313507
-0.0345892
-0.0300176
0.319186
-0.325714
-0.0372706
-0.0347481
0.332103
-0.338644
-0.0352408
-0.0349761
0.343765
-0.347941
-0.0286904
-0.03084
0.350651
-0.352368
-0.017862
-0.0224002
0.352232
-0.348387
-0.00458038
-0.0112475
0.341788
-0.333041
0.00725698
0.0018486
0.330145
-0.324618
0.0193801
0.00903574
0.0138555
-0.314421
-0.0279511
0.31528
-0.315329
0.0139042
0.0159622
-0.315519
0.310061
-0.0393747
-0.0395356
-0.304631
0.299681
-0.0331202
-0.0383695
-0.294703
0.289763
-0.0216846
-0.0291232
-0.287714
0.286285
-0.00808263
-0.0165851
-0.287011
0.28949
0.00952619
0.00164119
-0.293587
0.299233
0.0266497
0.0174748
-0.305706
0.314257
0.0417041
0.0324629
-0.324773
0.339057
0.0533013
0.0459213
-0.35459
0.370292
0.0489669
0.0511487
-0.381298
0.387138
0.0244423
0.0364365
-0.387352
0.383336
-0.00405342
0.00903057
-0.376705
0.36767
-0.0247607
-0.0147531
-0.358162
0.347855
-0.0358431
-0.0296281
-0.3387
0.329877
-0.038698
-0.0359792
-0.322579
0.315895
-0.0350019
-0.0353349
-0.310728
0.306406
-0.0261716
-0.0292817
-0.303221
0.300888
-0.0136841
-0.0191827
-0.300093
0.301906
0.00130852
-0.00692651
-0.306726
0.315469
0.0193757
0.00758794
-0.326875
0.341205
0.0379455
0.0242349
-0.356546
0.372464
0.0513153
0.0393664
-0.387833
0.401138
0.0546491
0.0479324
-0.412558
0.420066
0.0457851
0.0464979
-0.425503
0.422368
0.0255962
0.033932
-0.422047
0.43002
0.0073075
0.015169
-0.00154066
-0.0358038
0.0648085
0.400924
0.381626
-0.0861516
0.10739
0.406021
0.409626
-0.127696
0.14598
0.38097
0.393061
-0.160927
0.171377
0.323843
0.349054
-0.176578
0.176731