/*--------------------------------*- C++ -*----------------------------------*\
  =========                 |
  \\      /  F ield         | OpenFOAM: The Open Source CFD Toolbox
   \\    /   O peration     | Website:  https://openfoam.org
    \\  /    A nd           | Version:  10
     \\/     M anipulation  |
\*---------------------------------------------------------------------------*/
FoamFile
{
    format      ascii;
    class       volVectorField;
    location    "5.5";
    object      U;
}
// * * * * * * * * * * * * * * * * * * * * * * * * * * * * * * * * * * * * * //

dimensions      [0 1 -1 0 0 0 0];

internalField   nonuniform List<vector> 
6397
(
(4.31819 -0.862466 1.64501e-19)
(4.05255 -0.560496 -7.88803e-19)
(6.10828 -1.34521 0)
(6.19041 -1.00307 2.24952e-20)
(5.89872 -0.771345 -1.24277e-19)
(5.8787 -1.22908 -2.20777e-19)
(3.20872 -2.25514 -6.60685e-19)
(1.55014 -3.32954 1.54598e-18)
(0.102028 -2.44418 4.5154e-19)
(0.662463 -1.65536 -1.16439e-19)
(2.43045 2.94227 7.37344e-19)
(3.45674 3.58797 1.8551e-20)
(4.0215 0.169222 -4.31004e-20)
(3.80437 0.162427 -1.88879e-20)
(2.86713 0.143893 3.7122e-20)
(1.45243 1.09976 -4.48273e-18)
(2.54849 -0.998215 -2.0839e-18)
(-0.0200856 -0.407187 2.07672e-18)
(0.965879 0.0888665 7.59528e-19)
(2.13245 -0.532566 -2.36941e-18)
(1.61008 -0.124332 -1.21624e-18)
(-1.59449 0.255512 -1.21776e-18)
(-1.34527 0.174447 7.2991e-20)
(1.00785 -0.466652 -9.52081e-19)
(4.05564 0.208507 0)
(4.42536 0.146824 6.8354e-21)
(4.38588 0.206541 -4.13429e-23)
(3.22365 -2.51019 2.10468e-19)
(3.29639 -2.45809 -5.09319e-20)
(3.28271 -2.60974 1.09799e-19)
(3.33905 -2.56895 -1.73759e-19)
(6.3607 -0.14499 -1.83495e-19)
(6.38566 -0.497436 -1.79515e-19)
(6.22117 -0.626268 7.32376e-19)
(6.0316 0.347644 -1.0051e-20)
(6.14886 0.140014 0)
(6.32276 0.207719 5.93752e-20)
(6.36576 -0.0871573 1.21243e-19)
(5.33158 0.184747 4.48982e-21)
(5.23876 0.255534 -9.6882e-21)
(5.64011 0.360494 0)
(5.75203 0.19805 0)
(3.1763 -2.6013 -7.64984e-20)
(4.79529 -2.06419 -2.7809e-19)
(4.8083 -2.33109 2.4664e-19)
(5.83732 -1.60787 -4.68925e-19)
(5.40853 -1.43057 -2.87203e-19)
(5.39302 -1.85019 8.22359e-19)
(4.72113 0.283415 2.02788e-20)
(4.70102 0.181938 -3.1753e-21)
(4.62479 0.175331 4.1998e-20)
(4.59337 0.114668 -1.60803e-20)
(4.59706 0.162494 -1.099e-19)
(4.33134 1.0308 -7.25899e-20)
(3.72534 0.569043 4.68263e-20)
(4.0389 0.0455527 5.86716e-20)
(4.05525 0.0617117 5.64548e-20)
(4.51377 -0.0537269 -7.6072e-20)
(2.83518 -0.285792 -1.31658e-19)
(2.93525 -1.05894 1.31689e-19)
(2.80956 0.551777 1.35911e-19)
(2.82197 1.33002 -1.34132e-19)
(2.90267 1.97267 -1.27725e-19)
(2.99787 2.43657 1.2553e-19)
(3.11151 2.71661 0)
(3.20624 2.82231 1.23656e-19)
(3.26279 2.817 -1.29711e-19)
(3.21663 2.78775 0)
(3.02221 -1.11402 -1.49145e-19)
(3.03157 -1.64255 1.97552e-21)
(3.10131 -1.75189 1.43111e-19)
(2.95096 -0.284218 0)
(2.92753 0.626515 0)
(2.94656 1.46547 0)
(3.02342 2.12531 -6.83643e-22)
(3.09823 2.58867 6.55024e-23)
(3.17237 2.84556 0)
(3.21831 2.90903 -1.53297e-23)
(3.22814 2.83522 0)
(3.14796 2.70636 0)
(3.17934 -2.13785 -1.23295e-19)
(3.15761 -2.03644 7.64908e-21)
(3.08545 2.72898 0)
(2.98084 2.56477 0)
(3.2437 -2.33706 1.29942e-20)
(3.24134 -2.26381 0)
(2.8841 2.54686 0)
(2.72826 2.33029 0)
(3.26154 -2.4248 2.05819e-19)
(3.27627 -2.37312 -2.14323e-20)
(2.70533 2.10551 0)
(2.50789 1.89111 0)
(3.26617 -2.44779 -1.49711e-19)
(3.18673 -2.41952 -9.27313e-20)
(2.57787 1.36309 0)
(2.34587 1.19889 2.50746e-20)
(3.32001 -2.41797 0)
(3.22234 -2.324 1.71871e-19)
(3.29201 -2.39735 1.19114e-20)
(3.29823 -2.16994 -1.51868e-19)
(3.33373 -2.37277 0)
(3.21922 -1.08548 -9.48851e-20)
(3.26557 -1.73931 1.52192e-19)
(3.17906 0.729363 1.05672e-19)
(3.18927 -0.210356 7.21416e-20)
(3.23538 2.27325 6.84885e-22)
(3.18671 1.59937 -1.11621e-19)
(3.31769 2.92346 8.9123e-21)
(3.27913 2.71232 -8.5037e-20)
(3.2722 2.79527 -5.45346e-20)
(3.31396 2.93007 1.19243e-19)
(2.95501 2.37419 0)
(3.15344 2.59384 0)
(2.47389 1.67451 0)
(2.70614 2.09605 0)
(2.29006 1.06836 -4.29219e-20)
(3.17435 2.71711 -2.64076e-19)
(2.99785 1.495 -1.87387e-19)
(3.08393 2.27982 2.5988e-19)
(3.36696 2.83837 1.67708e-19)
(3.29526 2.86294 -1.63962e-19)
(3.27051 2.72576 8.99047e-22)
(3.37469 2.77819 3.92048e-21)
(2.99356 2.28152 0)
(3.14043 2.57357 0)
(2.80044 1.17791 9.57708e-20)
(2.88051 1.79152 1.01571e-20)
(2.82708 -0.30146 1.61171e-20)
(2.78609 0.447736 -9.54295e-20)
(3.06656 -1.54137 4.25605e-20)
(2.93117 -0.987588 -6.29278e-21)
(3.31942 -2.18209 -7.70947e-20)
(3.19536 -1.91922 -3.79531e-20)
(3.39502 -2.45897 0)
(3.36679 -2.34759 8.83097e-20)
(3.13793 -2.35759 -1.06219e-19)
(3.17713 -2.49112 4.70087e-21)
(3.14622 -2.23489 4.24315e-20)
(2.20955 0.280897 -7.17542e-20)
(2.27981 0.316486 1.76535e-20)
(3.55705 1.568 -3.06075e-21)
(2.98788 0.395587 1.87811e-19)
(3.58538 0.397504 0)
(2.24088 -0.610468 4.47727e-20)
(2.26454 0.202603 -5.78815e-20)
(2.28426 -0.559428 5.75516e-20)
(3.50578 -2.68014 6.51987e-20)
(3.29219 -2.20234 -8.55172e-20)
(3.19357 -2.08026 -4.06984e-20)
(3.43801 -2.70498 7.51708e-20)
(2.53926 0.367333 8.39838e-21)
(3.4341 -2.35206 0)
(3.39697 -2.29412 -2.00255e-20)
(3.52604 -2.14677 4.91406e-21)
(3.50376 -2.32819 0)
(3.54664 -1.06421 -2.83921e-20)
(3.5558 -1.73247 6.186e-20)
(3.55067 0.751548 0)
(3.5445 -0.193929 1.49005e-20)
(3.5456 2.28465 0)
(3.545 1.61837 6.82996e-21)
(3.50376 2.89574 0)
(3.52935 2.70854 1.03293e-20)
(3.35823 2.69277 -1.07034e-21)
(3.44158 2.86792 5.91019e-21)
(3.02694 2.15758 2.91892e-21)
(3.20999 2.43668 -5.62471e-21)
(2.56232 1.44289 -1.04627e-21)
(2.79619 1.84682 -1.5904e-21)
(2.35494 0.899054 1.75592e-20)
(3.56171 2.84047 3.86674e-21)
(3.56026 2.39992 4.76088e-21)
(3.54261 2.84846 -1.43971e-22)
(3.56072 2.93865 0)
(3.34366 2.58365 0)
(3.48142 2.70456 -1.63389e-21)
(3.03709 2.11605 0)
(3.19559 2.41458 0)
(2.83714 1.10518 -4.86103e-23)
(2.92936 1.67515 -1.03021e-20)
(2.86574 -0.231024 -9.20712e-21)
(2.83356 0.449647 0)
(3.1304 -1.3982 -2.4797e-20)
(2.9872 -0.86227 0)
(3.41779 -2.09254 2.05479e-21)
(3.28132 -1.79705 2.48621e-20)
(3.54716 -2.46681 7.66031e-23)
(3.49911 -2.29766 9.00789e-21)
(3.53509 -2.59986 -5.23094e-20)
(2.97899 -2.29204 2.16798e-20)
(3.0439 -2.4522 0)
(3.02247 -1.95775 1.76664e-20)
(2.98179 -2.13498 -2.05017e-20)
(3.65496 -0.922002 0)
(3.0375 -0.84781 0)
(2.33208 -0.684525 -3.03875e-20)
(2.39331 0.163811 -5.19836e-21)
(2.41287 -0.481746 0)
(2.443 -1.28769 -8.5287e-21)
(2.40915 -1.45672 2.28828e-21)
(4.36623 -0.941702 0)
(3.73093 -2.13312 0)
(4.39779 -2.15207 -1.86848e-19)
(3.03459 -2.51682 8.07525e-20)
(3.33469 -2.64212 0)
(2.82967 -1.77951 -3.63497e-20)
(3.11123 -1.8158 -1.9377e-22)
(2.93449 -1.6132 4.82504e-20)
(3.8264 -2.77175 0)
(3.82009 -2.72508 -5.06266e-20)
(2.59476 -0.757652 0)
(3.40569 -2.07841 8.8468e-21)
(3.28829 -1.94833 0)
(3.6401 -2.27673 3.36651e-22)
(3.53832 -2.19598 3.29491e-21)
(3.82902 -2.09416 -9.51689e-21)
(3.74935 -2.26812 0)
(3.94958 -1.05742 2.13892e-22)
(3.90381 -1.7047 -1.18919e-20)
(3.98494 0.777521 -2.38739e-22)
(3.96837 -0.180908 -1.54023e-20)
(3.93409 2.30882 2.25027e-20)
(3.9694 1.65375 0)
(3.77208 2.84779 0)
(3.86983 2.70193 -2.29396e-20)
(3.5061 2.55694 -2.76629e-21)
(3.64891 2.77952 1.67591e-21)
(3.13128 1.93973 0)
(3.32938 2.25759 -3.16679e-22)
(2.66779 1.23729 -1.27451e-21)
(2.89364 1.61359 3.94147e-21)
(2.47429 0.757074 8.24104e-21)
(4.2071 1.57707 -4.12982e-20)
(4.28934 0.390569 2.1059e-22)
(4.02122 2.80496 -1.4233e-20)
(4.11945 2.39297 6.20103e-20)
(3.81247 2.77566 5.16748e-21)
(3.91582 2.89067 -1.94637e-20)
(3.52304 2.43641 0)
(3.69039 2.59018 1.62811e-20)
(3.16089 1.99401 0)
(3.32788 2.26856 0)
(2.95728 1.04258 7.03871e-23)
(3.04216 1.57328 0)
(2.96608 -0.165146 0)
(2.9355 0.450669 0)
(3.22016 -1.26206 0)
(3.08167 -0.749808 0)
(3.52423 -1.99495 1.16095e-20)
(3.3917 -1.67678 0)
(3.73572 -2.44105 -7.58914e-23)
(3.6494 -2.25195 -1.18724e-20)
(3.78881 -2.61717 5.97999e-20)
(2.79129 -2.16386 3.4254e-20)
(2.87107 -2.35421 -7.55292e-20)
(2.77965 -1.97061 5.09329e-20)
(2.53566 -1.10269 2.86482e-20)
(3.16714 -2.00352 0)
(2.50673 -1.64746 3.70449e-20)
(4.37113 -3.03218 1.99031e-19)
(3.81212 -3.02033 0)
(2.68084 -1.87335 7.59234e-21)
(2.6631 -2.13186 2.63818e-20)
(2.69163 -1.5514 7.00058e-21)
(2.80592 -1.37308 6.94451e-21)
(2.92043 -2.32012 8.46476e-20)
(3.25777 -2.4457 1.25112e-19)
(4.16306 -2.68067 4.8177e-20)
(4.23995 -2.73722 0)
(3.2326 -1.64059 2.65131e-21)
(3.06897 -1.43926 -1.25414e-20)
(2.75471 -1.60127 -2.87371e-20)
(3.05426 -1.9331 -4.14737e-21)
(3.01085 -2.26364 -3.57583e-20)
(3.75904 -2.71593 2.10396e-20)
(2.76048 -1.83485 0)
(3.55467 -1.92225 4.11475e-21)
(3.39593 -1.78413 -1.66638e-20)
(3.86096 -2.11746 -8.74396e-21)
(3.69614 -2.03877 2.01942e-20)
(4.16464 -1.97868 0)
(4.0154 -2.12731 0)
(4.38679 -0.979624 -1.65005e-23)
(4.27984 -1.60682 -1.20488e-26)
(4.45976 0.784017 2.36622e-22)
(4.43215 -0.134883 0)
(4.34933 2.24373 0)
(4.42186 1.62505 -1.2634e-26)
(4.07972 2.71775 0)
(4.23364 2.60818 0)
(3.6765 2.36964 0)
(3.89502 2.61563 0)
(3.23788 1.71933 0)
(3.45822 2.04264 0)
(2.83379 1.05563 0)
(3.0229 1.39879 0)
(2.59231 0.109237 -4.32174e-21)
(2.67295 0.623478 0)
(2.66578 -0.980964 0)
(2.58132 -0.451855 8.79268e-22)
(3.09957 -1.69657 0)
(2.86788 -1.4005 -1.35437e-21)
(5.1041 -1.00049 -5.03368e-20)
(4.99266 -3.0053 -4.45961e-20)
(5.09661 -2.18727 5.05478e-20)
(4.90146 1.49363 1.53188e-20)
(5.03862 0.323642 -2.1054e-22)
(4.5167 2.68701 -7.13429e-21)
(4.71897 2.28924 -2.17932e-20)
(4.09889 2.62919 -2.29402e-23)
(4.30653 2.75003 0)
(3.69852 2.23887 0)
(3.89708 2.42448 0)
(3.29395 1.83899 0)
(3.47909 2.06724 0)
(3.10126 0.988991 -1.94556e-23)
(3.16025 1.47172 0)
(3.1133 -0.116583 0)
(3.07619 0.448576 0)
(3.34799 -1.14274 0)
(3.20624 -0.649692 0)
(3.6656 -1.89693 2.3643e-21)
(3.5092 -1.55303 -2.45986e-21)
(3.93637 -2.37979 9.45614e-21)
(3.80458 -2.16773 -4.97612e-22)
(4.05083 -2.55116 -6.5023e-20)
(2.60552 -1.94285 -4.42091e-20)
(2.70338 -2.1312 -9.10365e-20)
(2.62048 -1.74068 0)
(4.28174 -3.51119 0)
(4.79634 -3.42209 3.77205e-20)
(3.36138 -2.14521 2.5059e-20)
(3.34745 -1.91619 0)
(3.32794 -2.87245 0)
(2.74705 -2.41385 0)
(2.94617 -1.2073 0)
(3.72973 -2.52413 -2.432e-19)
(4.49295 -2.55445 3.60452e-20)
(4.62175 -2.57797 0)
(3.87757 -3.51913 7.95763e-21)
(2.98708 -2.57377 -3.37983e-20)
(4.56372 -3.49634 1.32299e-20)
(4.1731 -3.60542 -6.14565e-21)
(3.37482 -2.45231 4.02319e-20)
(3.63925 -2.32509 2.59644e-21)
(3.57795 -2.08336 0)
(4.27796 -2.70352 2.21229e-19)
(2.96464 -2.67106 0)
(3.37838 -1.46998 -8.82375e-21)
(3.08919 -1.06377 3.38826e-21)
(3.2186 -1.28544 -1.71051e-20)
(3.7291 -1.74596 -6.80234e-21)
(3.53784 -1.61694 1.02911e-20)
(4.10609 -1.95555 0)
(3.91239 -1.86464 4.2602e-21)
(4.49009 -1.83632 6.1093e-27)
(4.29812 -1.96292 -6.35257e-27)
(4.80562 -0.911061 -2.96839e-23)
(4.65838 -1.50172 0)
(4.91616 0.7845 0)
(4.8876 -0.090606 0)
(4.73495 2.14129 -1.36479e-22)
(4.84807 1.58352 1.26332e-26)
(4.34234 2.5288 6.0112e-27)
(4.55183 2.46258 -6.24041e-27)
(3.85574 2.15277 0)
(4.11126 2.40843 0)
(3.41166 1.52474 1.31484e-24)
(3.62908 1.83416 0)
(3.03405 0.898364 4.95308e-24)
(3.21975 1.22025 0)
(2.76233 0.0553799 -4.96694e-22)
(2.8715 0.501498 0)
(2.8167 -0.819767 -1.4173e-22)
(2.73423 -0.403309 9.47952e-22)
(3.16697 -1.44163 -2.37575e-22)
(2.98132 -1.16048 1.49772e-21)
(3.6271 -1.81108 2.55912e-21)
(3.37504 -1.66567 2.35892e-22)
(5.49228 -2.84566 2.82533e-20)
(4.88499 -3.23271 -2.24965e-21)
(5.2258 -3.1946 -3.12493e-20)
(5.72769 -1.00278 6.93483e-20)
(5.66181 -2.10026 -4.23108e-20)
(5.46906 1.33335 -2.89137e-20)
(5.65971 0.228521 -1.98302e-20)
(4.91573 2.4356 0)
(5.20643 2.07916 3.64715e-20)
(4.35263 2.37791 -1.58328e-22)
(4.62046 2.49101 -6.44112e-27)
(3.87782 2.02091 0)
(4.1017 2.19392 0)
(3.4482 1.67901 2.38334e-25)
(3.64756 1.86437 0)
(3.24032 0.954515 -3.48002e-24)
(3.29307 1.38038 0)
(3.28005 -0.0563438 0)
(3.22545 0.457755 0)
(3.49354 -1.00661 0)
(3.34848 -0.551098 0)
(3.81088 -1.76076 0)
(3.63047 -1.41484 0)
(4.14591 -2.2763 0)
(3.96126 -2.04897 3.69936e-22)
(4.29254 -2.4353 -2.2994e-20)
(4.33177 -3.32679 -1.7915e-20)
(4.56146 -3.06365 0)
(3.85008 -2.21376 1.05586e-21)
(3.94455 -1.89488 -5.08049e-21)
(4.24856 -2.5358 0)
(4.77617 -2.52 -4.76449e-20)
(3.60177 -2.17936 -1.39227e-19)
(4.18652 -2.20338 1.64814e-19)
(2.72809 -1.98608 5.88997e-20)
(3.09146 -2.11533 1.61633e-20)
(2.37336 -1.62143 1.55724e-21)
(2.48555 -1.7974 -5.19345e-20)
(2.48779 -1.26133 -3.71598e-20)
(2.39318 -1.4274 8.91703e-21)
(2.78666 -0.941469 0)
(2.62289 -1.09572 2.17349e-20)
(2.95425 -0.818082 -3.90905e-21)
(3.49257 -3.38256 -8.02152e-21)
(3.04828 -2.90561 -1.7631e-26)
(3.90164 -3.656 6.16911e-21)
(3.33734 -2.76519 0)
(4.0537 -3.4424 0)
(3.70319 -2.56118 0)
(4.26037 -2.7899 1.08678e-21)
(4.11966 -3.03968 1.4992e-22)
(3.88509 -2.50072 -2.63699e-20)
(4.28374 -1.96924 3.7159e-21)
(4.1573 -2.30387 2.22681e-20)
(3.23125 -0.921552 -2.28338e-21)
(3.12795 -0.696784 4.06622e-21)
(3.20077 -3.17268 -2.31558e-26)
(3.5354 -1.26253 9.34879e-22)
(3.386 -1.12744 1.49941e-21)
(3.92585 -1.52821 -1.98564e-21)
(3.73468 -1.42347 0)
(4.34552 -1.74249 1.98831e-27)
(4.14019 -1.66354 2.31105e-21)
(4.76736 -1.64296 0)
(4.55433 -1.7666 0)
(5.16147 -0.781935 -1.65974e-22)
(4.97649 -1.31592 0)
(5.29988 0.769877 0)
(5.2655 -0.0264731 0)
(5.08261 1.99619 2.37327e-22)
(5.21987 1.50872 0)
(4.61074 2.29273 4.34568e-23)
(4.8585 2.26826 0)
(4.07031 1.89637 0)
(4.33633 2.15566 0)
(3.60576 1.30019 -1.48954e-23)
(3.82983 1.59819 0)
(3.20065 0.699868 1.46855e-23)
(3.39923 1.01167 0)
(2.93953 -0.0243941 -2.19939e-23)
(3.03791 0.350134 9.57436e-28)
(2.99928 -0.754305 -1.62385e-23)
(2.92876 -0.402791 0)
(3.30041 -1.31351 4.62674e-22)
(3.13086 -1.07251 -2.52652e-21)
(3.78918 -1.49544 2.58267e-21)
(3.53039 -1.45465 7.4008e-21)
(4.28466 -1.58753 -4.21754e-21)
(4.0496 -1.51594 -4.02268e-21)
(5.10864 -2.8688 3.30393e-21)
(4.44113 -2.49225 -1.2245e-21)
(4.76047 -2.72022 0)
(5.80065 -2.58572 -3.20626e-21)
(5.47114 -2.86289 5.5398e-21)
(6.14825 -1.00506 -4.8387e-21)
(6.03685 -1.95959 -7.85259e-22)
(5.89113 1.12008 9.24663e-23)
(6.09922 0.111755 -2.48075e-21)
(5.24628 2.14662 0)
(5.58426 1.8128 0)
(4.60221 2.1201 6.61998e-23)
(4.90543 2.21043 -8.95598e-27)
(4.08745 1.79087 2.64592e-27)
(4.32849 1.95584 -2.80125e-27)
(3.62779 1.49458 1.33298e-23)
(3.84501 1.64415 0)
(3.37082 0.925292 0)
(3.44616 1.27081 0)
(3.43256 0.0132487 -2.719e-23)
(3.35799 0.490125 0)
(3.64284 -0.869815 0)
(3.49799 -0.441507 0)
(3.95491 -1.59171 -1.1116e-23)
(3.75763 -1.24164 0)
(4.32364 -2.11692 -3.62163e-23)
(4.10524 -1.86698 1.23855e-22)
(4.76604 -2.39671 -4.01059e-20)
(4.5055 -2.28765 0)
(5.19409 -2.32112 -3.07599e-19)
(4.97732 -2.40344 1.82795e-19)
(5.3519 -2.10716 -3.63844e-20)
(3.55587 -1.60545 0)
(4.78106 -1.57735 -1.73651e-19)
(4.14484 -1.68283 6.48088e-21)
(2.57315 -1.44556 0)
(2.99561 -1.54513 0)
(2.2013 -1.15676 -3.3394e-20)
(2.30747 -1.29739 -1.09327e-26)
(2.35292 -0.875775 6.57502e-21)
(2.23178 -1.00629 5.19857e-20)
(2.69458 -0.63232 0)
(2.51826 -0.754252 -1.6078e-20)
(4.00626 -2.4994 -2.43684e-23)
(4.16604 -2.22694 -2.05316e-22)
(4.61959 -2.06235 -1.8457e-20)
(4.54719 -1.71536 -1.05708e-20)
(3.03245 -0.436214 5.50925e-21)
(2.86586 -0.522738 -4.37953e-21)
(3.64194 -3.52703 -2.52963e-25)
(3.35626 -3.08955 0)
(3.91625 -3.51108 0)
(3.66356 -2.80922 -3.44837e-25)
(3.92492 -3.1637 -3.71947e-23)
(3.93043 -2.68788 -1.13775e-20)
(3.91933 -2.72927 4.37187e-23)
(4.15916 -2.63711 0)
(3.86301 -1.90622 -2.56679e-21)
(3.74961 -2.19961 2.24442e-23)
(4.51143 -2.39798 -3.1175e-20)
(4.85297 -1.82503 1.18549e-20)
(4.92688 -2.14907 4.50675e-21)
(3.82894 -1.49276 4.48368e-21)
(3.52938 -1.46639 2.5897e-21)
(3.40287 -1.02391 7.89304e-21)
(5.2395 -1.85586 2.38144e-20)
(4.82928 -1.47042 8.9635e-21)
(5.13383 -1.42642 -2.75425e-22)
(3.19719 -0.350839 7.39071e-21)
(2.97116 -0.145523 0)
(3.16456 -0.112105 -8.7625e-21)
(3.44222 -3.3472 -1.5337e-26)
(3.39399 -0.791293 2.63166e-21)
(3.27689 -0.593261 1.50434e-20)
(3.70226 -1.09408 -2.32174e-21)
(3.52317 -0.942816 -2.60193e-21)
(4.09188 -1.33987 0)
(3.8824 -1.20653 0)
(4.49826 -1.55251 0)
(4.30128 -1.45281 0)
(4.96026 -1.43422 0)
(4.73956 -1.54301 0)
(5.39092 -0.640407 0)
(5.20595 -1.11466 0)
(5.53407 0.745276 1.45829e-26)
(5.51568 0.0445951 -1.51522e-26)
(5.29677 1.80159 -1.00835e-22)
(5.45126 1.39974 -1.18526e-26)
(4.79503 2.00023 -4.34571e-23)
(5.0635 2.01573 0)
(4.21849 1.61841 0)
(4.50158 1.86464 0)
(3.71942 1.07933 -1.04266e-23)
(3.96004 1.35017 0)
(3.30882 0.533864 9.6758e-24)
(3.50525 0.811946 0)
(3.08111 -0.0578436 2.19932e-23)
(3.16324 0.240158 0)
(3.16325 -0.588293 6.08355e-23)
(3.08336 -0.3377 2.16435e-27)
(3.53012 -0.954776 3.73168e-21)
(3.32111 -0.79327 0)
(3.97076 -1.19333 -3.29023e-21)
(3.76222 -1.07968 -4.65078e-21)
(4.35076 -1.40356 1.0302e-20)
(4.16345 -1.3019 -5.87161e-21)
(4.57779 -1.47219 -7.58471e-21)
(4.61816 -2.17251 1.31159e-21)
(4.24626 -1.87359 -6.5464e-21)
(5.33636 -2.5538 -1.54458e-23)
(4.96911 -2.40182 -1.02361e-22)
(6.03146 -2.34309 -1.23501e-20)
(5.70099 -2.55859 1.33836e-20)
(6.36851 -0.978141 -6.34422e-23)
(6.26918 -1.80721 7.97401e-22)
(6.10758 0.884423 -9.23664e-23)
(6.31407 -0.00281135 -4.04589e-26)
(5.43353 1.80404 0)
(5.78788 1.49753 0)
(4.76927 1.82518 -9.75521e-27)
(5.08131 1.87946 1.03259e-26)
(4.25986 1.55203 0)
(4.49656 1.69635 0)
(3.80901 1.29435 9.97941e-24)
(4.02721 1.41803 0)
(3.50117 0.871808 0)
(3.61544 1.1268 0)
(3.53907 0.0970359 2.71901e-23)
(3.47089 0.516351 0)
(3.77711 -0.736468 0)
(3.63035 -0.332036 0)
(4.08731 -1.40899 -9.58148e-24)
(3.90452 -1.08982 5.34678e-27)
(4.47261 -1.90205 3.51977e-23)
(4.25658 -1.67159 0)
(4.94588 -2.19365 0)
(4.69997 -2.08035 3.13625e-24)
(5.47212 -2.12443 8.3649e-20)
(5.24013 -2.1961 8.52216e-23)
(5.72853 -1.87854 1.2889e-19)
(4.81573 -0.953234 -3.50442e-19)
(5.42121 -0.886981 1.82415e-19)
(3.48817 -0.930901 0)
(4.13474 -1.01436 0)
(2.43815 -0.796857 -8.48206e-24)
(2.89393 -0.867553 -1.82654e-26)
(2.03307 -0.611187 -4.85185e-24)
(2.14829 -0.701601 -1.16376e-26)
(2.19568 -0.438006 -1.75314e-21)
(2.06578 -0.518623 -1.12391e-26)
(2.57298 -0.28759 -3.6536e-21)
(2.3717 -0.364039 6.91433e-21)
(2.77951 -0.213846 2.29944e-22)
(3.77591 -3.42494 6.77821e-25)
(3.63852 -3.07402 -8.55077e-26)
(3.88228 -3.24439 0)
(3.8925 -2.85772 3.99505e-25)
(3.79882 -2.87917 4.86017e-23)
(4.13374 -2.82293 1.13985e-20)
(3.69783 -2.43609 -1.29528e-22)
(4.43783 -2.73502 2.37461e-21)
(3.47792 -1.83027 -7.94194e-23)
(4.8752 -2.48924 0)
(3.02915 -0.485793 -9.05498e-21)
(3.15113 -0.865498 0)
(5.26927 -2.2114 1.55301e-20)
(5.44785 -1.3511 -1.56474e-20)
(5.62988 -1.7657 -2.29782e-20)
(3.11205 -0.281673 -2.99345e-22)
(2.83684 0.014947 -1.45674e-20)
(3.1301 0.0207894 -1.88965e-22)
(5.78772 -1.20773 -5.68204e-21)
(5.30629 -1.01854 1.69868e-20)
(5.52224 -0.883147 1.43766e-20)
(2.94271 0.178423 0)
(3.11323 0.217676 -3.42981e-20)
(3.28455 -0.263905 1.75492e-20)
(3.38493 -0.073789 -1.83856e-20)
(3.65887 -3.27808 1.06652e-25)
(3.45478 -0.590397 -8.16273e-21)
(3.49844 -0.530494 -6.54759e-21)
(3.76319 -0.834863 8.03967e-22)
(3.75118 -0.848654 -3.54273e-21)
(4.13011 -1.08833 -7.0822e-24)
(4.07814 -1.07218 7.06005e-27)
(4.53801 -1.31754 0)
(4.4263 -1.27543 0)
(5.05659 -1.20888 0)
(4.85561 -1.31235 0)
(5.50495 -0.512903 -4.99654e-23)
(5.34083 -0.910729 0)
(5.61521 0.703834 0)
(5.63333 0.104477 0)
(5.32962 1.60815 0)
(5.52241 1.27937 0)
(4.82593 1.72246 0)
(5.10973 1.77266 0)
(4.25919 1.35151 0)
(4.5509 1.58398 0)
(3.75915 0.849998 2.40072e-23)
(4.00823 1.10385 0)
(3.38755 0.359125 6.08718e-24)
(3.56136 0.605738 8.12058e-27)
(3.27412 -0.102835 0)
(3.29676 0.122842 0)
(3.48474 -0.519785 4.70863e-24)
(3.34614 -0.314864 -2.16439e-27)
(3.85408 -0.945817 3.54513e-23)
(3.67065 -0.739838 9.64468e-27)
(4.1789 -1.20141 3.9886e-21)
(4.02622 -1.11884 4.24188e-24)
(4.47339 -1.22885 -1.91539e-21)
(4.33441 -1.23328 -2.15271e-21)
(4.87078 -1.16299 -9.14467e-21)
(4.66186 -1.21545 6.95006e-21)
(5.10311 -1.0996 -1.79563e-20)
(3.62417 -1.03206 1.02482e-21)
(3.28895 -0.645904 -1.88677e-22)
(4.50992 -1.74436 -4.81196e-23)
(4.05201 -1.41493 0)
(5.39036 -2.14844 1.52877e-23)
(4.96061 -1.98507 1.03673e-22)
(6.0626 -2.04393 0)
(5.77055 -2.18255 0)
(6.31684 -0.948826 3.52949e-23)
(6.23918 -1.63839 0)
(6.12153 0.670704 0)
(6.28806 -0.108143 0)
(5.47789 1.49272 0)
(5.82638 1.21178 0)
(4.81689 1.55614 -2.48277e-24)
(5.12742 1.575 0)
(4.34676 1.34094 0)
(4.5541 1.46444 0)
(3.95791 1.10061 -2.35476e-23)
(4.1495 1.20989 0)
(3.63615 0.793406 -3.63612e-23)
(3.77105 0.975684 0)
(3.61642 0.180116 -3.81484e-23)
(3.58153 0.524683 2.43156e-27)
(3.86482 -0.581158 -3.60189e-23)
(3.72067 -0.203451 -1.83777e-26)
(4.20814 -1.22751 -6.4625e-24)
(4.03726 -0.932045 0)
(4.60647 -1.68619 0)
(4.41788 -1.48378 0)
(5.09526 -1.95179 0)
(4.86955 -1.84133 -3.14132e-24)
(5.65741 -1.87536 -5.99788e-20)
(5.40768 -1.93862 -8.36822e-23)
(5.93226 -1.62369 4.95528e-20)
(5.90241 -0.218555 0)
(6.20739 -0.178473 -3.10193e-19)
(4.8288 -0.217994 1.94056e-19)
(5.4313 -0.232243 5.37789e-20)
(3.47102 -0.13205 2.23113e-23)
(4.1431 -0.203129 4.57064e-26)
(2.42849 -0.047786 1.69695e-23)
(2.881 -0.0840314 3.75805e-26)
(2.00748 0.017305 -2.33487e-26)
(2.13074 -0.00850412 2.37404e-26)
(2.15712 0.0588838 -3.59205e-21)
(2.03045 0.0362061 1.15079e-26)
(2.54006 0.1127 3.63872e-21)
(2.33449 0.083093 3.66026e-21)
(2.74697 0.141261 -1.30734e-21)
(3.86691 -3.22881 0)
(3.83389 -3.02597 3.02973e-26)
(3.80891 -2.99958 0)
(4.03274 -2.9615 -1.97296e-24)
(3.62921 -2.63207 -5.46802e-23)
(4.31582 -2.94845 -2.59432e-23)
(3.43779 -2.0924 9.40718e-23)
(4.72858 -2.81887 1.26388e-22)
(3.15295 -1.28171 7.78599e-23)
(5.2266 -2.54803 2.95289e-22)
(2.8251 -0.155304 0)
(5.67055 -2.14056 3.29594e-20)
(3.24667 0.277222 -2.01074e-20)
(2.87017 0.370062 2.84266e-20)
(5.98982 -1.56421 -7.44515e-22)
(5.71136 -0.658782 -1.57665e-20)
(6.06725 -0.894684 2.3789e-20)
(3.28093 0.177192 -5.1949e-21)
(3.81194 -3.13112 -1.98939e-25)
(3.47241 -0.174939 -2.01849e-20)
(3.46545 0.297197 1.27248e-19)
(3.4461 -0.0735436 -8.04861e-20)
(3.62706 -0.516043 1.74557e-21)
(3.57005 -0.394441 1.86784e-20)
(3.88555 -0.771546 -8.02965e-22)
(3.81781 -0.609229 2.06024e-21)
(4.1873 -1.03348 -2.62244e-21)
(4.09403 -0.810618 2.26146e-21)
(4.59215 -1.17867 -9.61235e-24)
(4.39668 -1.0162 4.08927e-27)
(5.09631 -1.01325 6.28752e-24)
(4.85164 -1.02325 5.03449e-27)
(5.48642 -0.398501 2.9651e-23)
(5.31764 -0.692267 0)
(5.5714 0.635278 0)
(5.58724 0.148974 0)
(5.27661 1.39402 6.3396e-24)
(5.47624 1.12966 0)
(4.77194 1.44151 -1.29745e-28)
(5.06168 1.51522 1.34687e-28)
(4.21147 1.07214 9.70307e-27)
(4.51223 1.29094 -1.00691e-26)
(3.73473 0.621976 -1.54154e-26)
(3.97829 0.834084 1.5992e-26)
(3.4391 0.257272 -7.48564e-23)
(3.57449 0.413095 1.86556e-26)
(3.3962 -0.016319 4.33467e-23)
(3.40196 0.101738 2.02761e-26)
(3.48377 -0.295923 3.53227e-24)
(3.45045 -0.152096 0)
(3.57973 -0.62323 4.36902e-23)
(3.53596 -0.467132 2.08093e-26)
(3.82401 -0.853793 3.60171e-23)
(3.68559 -0.754627 0)
(4.23697 -0.999627 2.56649e-21)
(4.02605 -0.941982 0)
(4.68275 -1.00122 9.98284e-21)
(4.47529 -1.01245 -1.13307e-20)
(5.05651 -0.85326 0)
(4.87454 -0.954757 1.1904e-21)
(5.40745 -0.425806 3.76566e-20)
(5.24863 -0.653774 -3.66576e-20)
(3.33581 -0.273456 1.48978e-21)
(3.3933 0.190672 1.20741e-20)
(3.36013 -0.0541389 -1.16683e-20)
(3.52386 -0.722661 3.93117e-22)
(3.37278 -0.487382 4.50577e-23)
(4.18773 -1.262 0)
(3.80389 -0.987657 0)
(5.03628 -1.69725 -1.01813e-23)
(4.61731 -1.49677 0)
(5.65497 -1.79729 0)
(5.38956 -1.826 0)
(6.01645 -0.896011 2.81319e-23)
(5.85819 -1.4965 0)
(5.98981 0.485452 0)
(6.0792 -0.162456 0)
(5.44688 1.15993 0)
(5.75264 0.920202 0)
(4.83892 1.27781 -1.58175e-23)
(5.13014 1.25426 0)
(4.37398 1.16235 0)
(4.57771 1.24036 0)
(4.05305 0.928808 -3.09283e-26)
(4.20286 1.0397 3.27497e-26)
(3.76079 0.688073 3.63244e-23)
(3.89327 0.816197 3.87869e-26)
(3.68601 0.235402 7.83269e-23)
(3.68257 0.497642 3.83017e-26)
(3.91022 -0.420783 -2.02333e-24)
(3.7727 -0.0776705 0)
(4.29132 -1.03953 2.71911e-23)
(4.10156 -0.740035 -3.34093e-26)
(4.72904 -1.48103 1.65011e-26)
(4.52267 -1.26597 -1.75035e-26)
(5.22487 -1.70994 0)
(4.98681 -1.58987 0)
(5.78133 -1.61998 4.10003e-21)
(5.50867 -1.67284 -7.16343e-21)
(6.23173 -1.14694 0)
(6.01901 -1.40695 1.85011e-21)
(6.32751 -0.827338 0)
(5.87389 0.368362 0)
(6.33543 0.251794 -5.92271e-21)
(6.18506 0.321911 9.21488e-20)
(4.7819 0.484582 -2.24804e-20)
(5.39826 0.431306 -4.08601e-20)
(3.43043 0.621567 -1.60239e-24)
(4.10625 0.557889 0)
(2.39432 0.644171 -8.50645e-24)
(2.84212 0.646934 0)
(1.98465 0.594907 0)
(2.10167 0.628315 0)
(2.14003 0.523465 5.78692e-25)
(2.01079 0.552818 0)
(2.51892 0.498669 0)
(2.31799 0.50566 0)
(2.96906 0.476844 0)
(2.74171 0.485878 -2.72869e-22)
(3.36824 0.415734 0)
(3.16889 0.491639 7.22354e-21)
(3.37132 0.550575 3.74025e-20)
(3.44381 0.435621 0)
(5.82235 -0.316255 3.14094e-22)
(5.49152 -0.196074 3.32564e-21)
(3.87491 -3.06768 4.05397e-24)
(3.93014 -3.04797 0)
(6.39997 -0.368309 0)
(3.64099 -2.81374 8.08853e-24)
(4.1198 -3.08393 1.41888e-24)
(3.61321 0.206048 3.44383e-20)
(3.45063 0.621728 0)
(3.55895 0.582551 0)
(3.40749 -2.35377 2.35677e-23)
(4.50903 -3.02645 4.46572e-23)
(3.11519 -1.59007 0)
(5.00864 -2.85426 -2.73607e-22)
(2.81196 -0.506586 0)
(5.52833 -2.43021 0)
(2.68468 0.493768 0)
(6.04362 -1.83737 -1.18178e-20)
(3.05465 0.589017 -2.47674e-21)
(6.2706 -1.12074 -1.8224e-21)
(3.52998 0.622759 0)
(3.48992 0.808175 -1.80049e-20)
(6.20094 -0.396636 2.60834e-21)
(5.77507 0.100534 5.40485e-20)
(5.45658 0.0373764 -6.61214e-20)
(3.8731 -3.06838 1.30783e-25)
(3.63565 -0.156192 1.08004e-20)
(3.53626 0.0343026 0)
(3.76845 -0.403992 -2.21409e-21)
(3.64695 -0.306033 -4.83349e-21)
(3.97059 -0.625283 0)
(3.85721 -0.530402 2.38122e-21)
(4.2216 -0.84464 0)
(4.07162 -0.727822 4.10543e-22)
(4.60654 -0.898108 9.60836e-24)
(4.37396 -0.847114 0)
(5.03926 -0.756391 2.10117e-24)
(4.82143 -0.802226 0)
(5.3659 -0.253497 2.11193e-23)
(5.23722 -0.527816 0)
(5.39731 0.583299 -3.21543e-24)
(5.44896 0.171034 7.32221e-27)
(5.09887 1.18032 -6.34142e-24)
(5.29928 0.964585 1.90252e-27)
(4.63537 1.15536 -2.19275e-23)
(4.89832 1.24831 1.34813e-26)
(4.13116 0.796027 -2.63779e-26)
(4.39498 1.00109 2.56533e-26)
(3.75867 0.437049 -3.80337e-23)
(3.93112 0.605208 3.60642e-26)
(3.60825 0.197474 8.09914e-23)
(3.66301 0.300067 0)
(3.61677 -0.0344102 9.15755e-25)
(3.60911 0.0868205 4.50852e-26)
(3.66462 -0.381272 -9.00137e-23)
(3.6418 -0.196183 0)
(3.83578 -0.701485 -4.3664e-23)
(3.73633 -0.561992 -4.72615e-26)
(4.13663 -0.799353 0)
(3.99388 -0.777729 0)
(4.40817 -0.803293 5.23396e-21)
(4.29146 -0.798131 -5.47854e-21)
(4.65744 -0.791086 0)
(4.54074 -0.806798 -2.66808e-27)
(4.94142 -0.62708 1.73484e-21)
(4.80376 -0.714901 -2.52012e-21)
(5.12844 -0.391045 2.47354e-20)
(5.05827 -0.518988 -2.46886e-20)
(5.14721 0.019786 0)
(5.15971 -0.185795 -3.31164e-21)
(3.50671 0.188326 6.42855e-21)
(3.65351 0.53778 1.2356e-22)
(3.55971 0.385929 -1.0931e-20)
(3.52763 -0.251936 1.34285e-20)
(3.50423 -0.0412292 -6.33381e-21)
(3.6407 -0.588844 6.4099e-21)
(3.56765 -0.43462 -2.01246e-20)
(4.00271 -0.946408 -2.29516e-23)
(3.78045 -0.752477 2.04436e-22)
(4.57882 -1.38481 1.01809e-23)
(4.28101 -1.16133 0)
(5.16887 -1.54967 4.42794e-26)
(4.87155 -1.55614 -4.68039e-26)
(5.73613 -0.733072 -2.73509e-26)
(5.47433 -1.26463 2.89178e-26)
(5.80203 0.35407 -7.93114e-24)
(5.85552 -0.141047 0)
(5.35758 0.882364 2.1247e-26)
(5.60876 0.68458 -2.24832e-26)
(4.83743 1.0174 1.82563e-23)
(5.08948 0.977987 4.67126e-26)
(4.38906 0.982398 0)
(4.59484 1.01296 0)
(4.09286 0.807529 3.98793e-23)
(4.21893 0.903331 -2.46316e-27)
(3.86273 0.591345 -7.88868e-26)
(3.97128 0.697029 8.35513e-26)
(3.75048 0.266082 1.33e-24)
(3.77537 0.453927 0)
(3.92131 -0.259863 3.80595e-23)
(3.80129 0.0293747 0)
(4.3068 -0.823474 -3.34515e-23)
(4.09887 -0.531571 0)
(4.77895 -1.24142 4.49949e-26)
(4.53983 -1.0217 -4.7709e-26)
(5.28562 -1.44333 0)
(5.02824 -1.32613 0)
(5.80324 -1.37431 -6.63589e-21)
(5.5369 -1.41083 -3.92189e-21)
(6.23358 -0.953317 3.38465e-20)
(6.02594 -1.18458 -2.10294e-20)
(6.33927 -0.654552 0)
(6.21894 0.629504 2.08214e-20)
(6.20292 0.490764 -3.463e-20)
(5.73115 0.908234 0)
(6.05949 0.774999 -2.04432e-20)
(4.66404 1.14861 8.05829e-23)
(5.25814 1.05903 0)
(3.40479 1.31739 -2.05988e-23)
(4.03206 1.254 -1.5754e-25)
(2.43894 1.29194 0)
(2.85681 1.32492 0)
(2.07267 1.14308 0)
(2.17427 1.22897 0)
(2.21038 0.97991 -5.75323e-25)
(2.09854 1.05247 0)
(2.55426 0.892701 0)
(2.3716 0.924905 0)
(2.99624 0.808336 -5.1835e-21)
(2.76497 0.849904 2.63582e-22)
(3.23136 0.775223 -1.64633e-21)
(3.6672 0.782317 0)
(3.77893 0.659589 7.08405e-21)
(5.31733 0.28787 4.9286e-20)
(5.07028 0.189901 -7.51766e-20)
(3.76168 -2.98832 -3.14681e-25)
(3.9339 -3.13581 8.7064e-25)
(3.65613 0.236564 -5.51532e-20)
(3.74902 0.357645 3.58053e-20)
(3.40699 -2.60567 -8.225e-23)
(4.21447 -3.13984 0)
(3.09998 -1.908 -1.67184e-22)
(4.66531 -2.98909 -1.38524e-22)
(2.77241 -0.828693 0)
(5.21472 -2.65449 0)
(2.53872 0.396015 -4.1232e-22)
(5.7628 -1.95769 -1.93989e-21)
(2.85989 0.872535 0)
(6.18317 -1.15049 -2.05798e-20)
(3.18398 0.838866 -1.04571e-20)
(6.31304 -0.364672 0)
(3.694 0.979398 8.19882e-21)
(6.05589 0.208062 -2.90825e-21)
(3.90729 0.746382 -1.21695e-20)
(3.79395 0.928115 8.54785e-21)
(5.58117 0.475313 -3.7003e-20)
(3.94045 0.67261 -4.53037e-21)
(4.0574 0.750767 -3.07398e-21)
(4.06545 0.813227 1.49945e-20)
(5.88157 0.557963 4.68465e-20)
(5.11665 0.463301 8.13852e-22)
(4.9338 0.290027 1.74352e-19)
(3.82927 -3.08775 0)
(3.69155 -0.132683 -4.73985e-21)
(3.68286 0.0174507 1.90796e-20)
(3.82804 -0.354575 0)
(3.78394 -0.189127 0)
(4.00165 -0.551609 0)
(3.94475 -0.364188 0)
(4.25059 -0.688011 0)
(4.13189 -0.545928 0)
(4.60007 -0.695258 2.44931e-23)
(4.43671 -0.625174 1.73786e-27)
(4.9552 -0.586814 -8.42553e-24)
(4.80769 -0.60244 3.31505e-26)
(5.2164 -0.18239 -8.24752e-25)
(5.14665 -0.394558 2.0837e-26)
(5.17901 0.500534 3.18673e-24)
(5.27944 0.161887 2.25318e-26)
(4.84701 0.995531 0)
(5.0721 0.810357 -1.34553e-27)
(4.42576 0.943474 2.19132e-23)
(4.66603 1.02895 1.07758e-27)
(4.056 0.617634 0)
(4.25416 0.780829 1.72011e-27)
(3.83602 0.357851 -1.53459e-24)
(3.94354 0.46135 0)
(3.75331 0.195927 -8.40063e-23)
(3.79931 0.261214 0)
(3.71377 -0.00140091 -4.44096e-23)
(3.74364 0.0988927 8.6737e-26)