/*--------------------------------*- C++ -*----------------------------------*\
  =========                 |
  \\      /  F ield         | OpenFOAM: The Open Source CFD Toolbox
   \\    /   O peration     | Website:  https://openfoam.org
    \\  /    A nd           | Version:  10
     \\/     M anipulation  |
\*---------------------------------------------------------------------------*/
FoamFile
{
    format      ascii;
    class       surfaceScalarField;
    location    "31.5";
    object      phi;
}
// * * * * * * * * * * * * * * * * * * * * * * * * * * * * * * * * * * * * * //

dimensions      [0 3 -1 0 0 0 0];

internalField   nonuniform List<scalar> 
57492
(
-0.00606476
0.000318213
0.00130667
0.00443988
0.00177649
-0.00471509
-0.00312616
-0.000873069
0.00270818
0.00903076
-0.0108659
0.0386069
0.0296173
-0.00602161
-0.0622026
-0.0831276
0.0348253
0.0869092
0.0132855
-0.0126419
-0.00643798
0.00579435
-0.0242045
0.00702212
-0.00421708
0.0213995
0.00466093
-0.01558
0.0111489
-0.0412549
0.0392631
-0.00915721
0.00983641
0.0378318
-0.0365192
0.00229763
0.000855719
0.000227498
-0.00338085
-0.00223435
-0.00276215
0.00729413
-0.00471258
0.00341858
-0.000940349
0.000702347
-0.00455921
0.0297996
-0.0260555
-0.0111849
0.00744082
0.00162021
0.0227328
0.0054466
-0.00111663
0.00560253
0.0345884
-0.0390743
-0.00511155
0.034119
-0.0301241
0.0040987
-0.00871159
0.00461289
-0.034234
0.0240439
0.0142888
-0.0463298
0.00524575
0.0338505
0.00723358
0.00852088
-0.0469852
-0.00786552
-0.00110059
0.00107863
-0.00617542
0.00619738
0.0016842
-0.00300464
0.000219853
-0.0460703
0.0469112
0.00650878
-0.00734976
-0.0621021
0.0274473
-0.0114154
-0.023966
0.0100537
0.0114152
0.00249711
-0.0164857
-0.0082104
0.000730118
-0.00855838
-0.0247597
0.0298868
0.00343133
-0.0101576
0.00321002
-0.00161084
0.0142547
-0.00929434
-0.00870886
0.00374847
-0.0120904
0.009466
0.0168792
-0.0183372
-0.0308878
0.0218622
0.0273628
-0.0342945
-0.0106666
0.0266239
-0.0185228
-0.0027443
0.0212671
-0.00591445
-0.0126084
-0.0284466
0.0360894
-0.0135573
0.00483537
-0.017884
-0.0153979
-0.0112142
0.0182363
-0.007773
-0.0378117
0.0203261
0.0174856
-0.0730905
0.0352789
0.039395
-0.00893436
0.00550753
-0.0359682
0.0286133
0.00128221
0.00949953
-0.00765621
0.0384797
-0.0397579
0.0258286
0.0045016
-0.0256693
0.0248818
-0.00327028
0.0296879
-0.0104232
-0.0218951
0.00263035
0.0334787
0.000710764
0.0201096
-0.011905
0.0166772
0.00955071
0.0319584
-0.0415166
-0.00493045
0.00417773
0.0422693
-0.0428442
-0.00203437
0.00336197
0.00753703
0.0401847
-0.0396409
-0.0080808
0.00463882
-0.0383567
-0.0358527
0.0449545
0.0432655
-0.0523673
-0.000680431
0.0501373
-0.0853095
0.00141801
0.00323436
-0.000447472
-0.00420489
0.00158395
0.00325263
-0.00177064
0.00113032
0.00222427
0.0020423
-0.000578581
-0.00207474
0.00162727
-0.000153634
-0.00192111
0.101307
0.0392232
-0.0696039
-0.0709266
0.0310945
-0.0192901
0.0895029
-0.0877406
0.0305538
0.0882812
0.0174715
-0.0659889
0.0120604
-0.0312891
0.0248035
-0.00557486
0.026955
-0.0316186
0.016724
0.00102842
-0.000903687
0.000193483
0.00182953
0.000505556
0.00498932
0.00128009
-0.0344276
0.0627251
0.0285943
-0.0568918
0.0387642
-0.0462367
0.0227624
0.057503
-0.0175403
0.140618
-0.0121202
-0.0412196
-0.0872785
0.0391291
0.0779696
0.0235196
0.0225012
-0.0544687
0.0710965
0.0016841
-0.00255717
0.00439228
0.0185882
0.0335214
-0.0142218
-0.0378878
0.0249328
0.00268608
0.00303577
-0.00132843
-0.00170733
0.0035368
-0.000501036
-0.0801401
0.0393094
-0.0294321
0.0702628
-0.0697155
-0.0348866
0.024462
-0.0378713
0.0333502
-0.0651943
0.0386093
-0.000728156
-0.0193317
-0.0185494
-0.0152441
0.043593
0.0102604
-0.0187212
-0.00187189
0.00534899
-0.0170909
-0.00235845
-0.00637105
-0.0300516
-0.0111592
0.00514412
0.00524813
0.000766936
0.00573017
-0.00761813
-0.00927123
-0.0041187
-0.000664239
0.0105131
-0.00101325
0.00203867
0.00199185
0.00224303
-0.0157042
0.00933312
0.00225778
-0.0179619
0.0027207
0.000816102
0.0464856
0.0310494
-0.00326785
0.017448
-0.0540899
-0.00311907
0.0358541
-0.0265229
-0.0062121
-0.0048929
0.041368
-0.0395941
0.0344143
0.0191551
-0.0049852
-0.0485842
-0.0113662
0.0053692
0.0404113
0.043369
-0.03558
-0.013928
-0.0287938
0.00919225
0.0335295
-0.0133959
0.0333848
-0.0339169
0.0015331
-0.0437228
-0.00529888
-0.00462205
2.55253e-05
-0.00330139
0.00334256
0.00173532
-0.000188467
0.00160673
-0.00471965
-0.00567363
0.000770072
-0.00498194
0.00820189
0.00199124
-0.00521119
0.0185669
-0.0181684
-0.00538048
-0.00836231
0.0194819
0.00744735
-0.00348441
0.003324
-0.0644075
0.036955
0.0667619
0.071724
-0.0253197
-0.081291
-0.0314531
0.0387696
-0.00230352
-0.0191115
-0.00334474
-0.0127044
0.000243336
0.000805658
-0.00408409
0.00173062
0.00154781
-0.00358569
0.00312378
0.00126757
-0.00657137
-0.00109842
-0.00589057
-0.0081691
0.00135526
-0.0165505
-0.0084516
-0.0139115
-0.014522
0.017453
0.0109805
0.00091193
0.00659563
-0.0214191
-0.0191881
0.00557802
-0.0511672
0.0195557
-0.00262252
-0.0516122
0.00580943
-0.00536443
0.00225108
-0.0368528
0.0325296
0.00207209
0.00197061
-0.034033
0.0343135
0.00246765
-0.112411
-0.0295067
0.0370001
0.0369651
-0.0469161
0.0387161
-0.00537098
0.00497769
-0.00564193
0.00546759
-0.000489901
0.0072177
-0.00138048
0.0445335
-0.0271053
-0.0182335
0.000805361
0.0378433
-0.000965988
0.0601798
0.00178865
-0.0626489
0.0195263
0.045674
-0.00502045
0.00692809
-0.0340648
0.046663
-8.14994e-05
0.00554909
0.0133628
-0.0411566
-0.0430579
0.0249802
0.051963
0.0154819
-0.000852546
-0.0161623
0.00153297
0.0050481
-0.00165666
-0.0200434
0.00379027
0.0257191
0.00310856
-0.0181038
-0.00330516
0.000864668
0.0028483
-0.000137644
-0.00236401
-0.000346645
0.000771426
-0.000193594
0.00227047
0.00648705
0.00755497
-0.0132706
-0.0120781
0.0235302
-0.00873137
0.0641603
-0.0558299
-0.0204086
-0.000493489
-0.0263339
0.0306177
-0.0804856
-0.000906614
-0.0586583
-0.0319844
0.0101571
0.0320784
0.0255503
-0.052383
0.020144
0.0476785
-0.0357441
0.0184825
-0.0323747
0.0188527
-0.00496055
0.0201286
-0.0314123
0.0297662
0.0450887
0.014312
0.0445675
-0.00197505
-0.0444123
0.00181988
0.0491616
-0.00578565
0.00119156
0.0497887
-0.00644051
-0.000943186
-0.042405
0.0356356
-0.0107653
0.0249184
0.0405606
-0.0106922
0.00834941
-0.0382177
0.00948323
0.0412281
-0.0101508
-0.0369256
-0.0131686
0.039402
0.00753356
-0.0352669
-0.0139765
0.0343373
-0.0183873
-0.0313806
0.0162993
0.0334685
-0.0187821
-0.0319863
0.0323811
0.0173229
0.0303109
-0.0103311
-0.0373028
0.0299029
-0.031362
-0.0204263
0.0204065
0.0299227
-0.0160671
0.0259518
-0.0396886
0.0351119
-0.00575437
-0.0513493
0.00495304
0.0524438
-0.00604758
0.0138834
0.0182289
0.00972624
-0.00521754
-0.0227376
0.0129504
0.014172
-0.00889357
0.0010549
-0.00325012
-0.00347841
-0.0186394
-0.0284802
0.0175657
1.87878e-05
-0.000212382
6.10524e-05
-4.22646e-05
-0.00359191
-0.0324026
0.0240895
-0.0282439
-0.00313879
0.0277908
0.00219417
-0.0294713
-0.000966788
0.0113626
0.0173047
-0.0102003
-0.018467
0.00840152
0.0236742
-0.0207131
0.0258522
-0.000145991
0.00028006
-0.00109315
-0.00380896
-0.00161552
0.00189558
-0.00270867
0.000361613
-0.000630505
0.00231119
-0.000418184
0.000779797
-0.00104869
0.00120721
-0.000156427
0.000633415
-0.00128009
0.0024873
-0.00143652
0.00209904
-0.000160781
-0.00542267
-0.000752089
0.00285113
-0.00091287
0.0144398
0.0337582
-0.0428289
0.0136085
-0.0445286
0.0453599
0.0486382
-0.0012715
-0.0134236
-0.0252998
0.0133163
0.0254071
-0.00629532
0.027046
-0.0341743
0.00287745
-0.0344725
0.0370204
-0.0372927
-0.0218988
0.022171
0.037214
-0.0212537
0.0210601
-0.0224609
-0.0369793
0.0221475
0.0374907
-0.0211696
0.020893
0.0380299
-0.0202874
0.0197482
-0.0202801
0.0388781
0.0194319
0.0382846
-0.0382281
-0.0203367
-0.021939
0.0402852
0.0205319
0.0373274
-0.0209818
-0.0372988
-0.0212166
-0.0373586
-0.0211098
-0.0373884
-0.0212239
-0.0380179
-0.0212693
-0.037342
-0.0231368
-0.021963
0.0418777
0.0203704
0.0355829
-0.0202185
-0.0228068
-0.0364264
0.0222539
-0.0376978
-0.022451
-0.0230084
-0.0378267
0.0244088
-0.0203148
0.0416397
0.0205528
0.0352989
-0.0200307
-0.0388056
-0.0219006
0.0415579
-0.0204155
0.0204973
-0.0203749
0.0412573
0.0206754
0.0350937
-0.0202103
0.0347479
-0.0200291
-0.0228081
-0.0373017
0.0222831
-0.0384804
-0.0231334
-0.0203289
0.0411427
0.0204436
0.0344964
-0.0200775
-0.0224845
-0.0368779
0.0220607
-0.0381907
-0.0227742
-0.0199439
0.0408229
0.0202636
0.0341165
-0.019564
-0.0217944
-0.0362996
0.0212161
-0.0376919
-0.0222932
-0.0193665
0.0407032
0.0194863
0.0338446
-0.0190946
-0.0206122
-0.0357893
0.0201019
-0.0372902
-0.0210139
-0.0183011
0.0403933
0.0186109
0.03346
-0.0179164
-0.0188289
-0.035196
0.0182356
-0.0367455
-0.0193736
-0.016941
0.0402735
0.0170608
0.0331879
-0.0166689
-0.0163445
-0.034815
0.0159635
-0.0362429
-0.0168471
-0.0150674
0.0399886
0.0153524
0.0328341
-0.0147136
-0.0132386
-0.0334724
0.0118959
-0.0352325
-0.014249
-0.0128837
0.0398476
0.0130247
0.0325971
-0.0126468
-0.00973941
-0.0332472
0.00951424
-0.034726
-0.0102459
-0.0102342
0.0395439
0.0105379
0.0321701
-0.0098073
-0.00548776
-0.0319808
0.00422135
-0.0335058
-0.00670797
-0.00590139
0.0378556
0.00758965
0.0329558
-0.00668709
-0.00105805
-0.0317412
0.000818434
-0.032961
-0.0016028
-0.00291711
0.0347854
0.00598738
0.0333626
-0.00332384
0.00377799
-0.00416467
-0.0313545
-0.0326962
0.00351311
-0.000812898
0.00137946
0.0342188
0.0330573
-0.000507608
-0.0306187
0.031261
0.000176147
-0.0308474
-0.00393603
0.00897399
-0.008704
-0.0316245
0.00812774
-0.0318499
-0.0310054
0.0316061
0.00891345
0.004477
-0.0311104
0.0317317
0.0153422
0.0123917
-0.0323692
0.0329997
0.0194713
0.0175982
-0.0335903
0.0341238
0.0215272
0.0206256
-0.0345846
0.0369121
0.0220813
0.0218223
-0.0372895
0.0369174
0.0225195
0.0218765
-0.0383912
0.0381938
0.0212574
0.0206973
-0.037359
0.0370449
0.0200623
0.0217277
-0.0361556
0.0361681
0.0205194
0.0203212
-0.0361482
0.0361046
0.0205963
0.0203904
-0.0360391
0.0359541
0.0207605
0.0205628
-0.0358548
0.0357402
0.0203783
0.0205429
-0.0356128
0.0354696
0.0187541
0.0196137
-0.0353144
0.0351482
0.0155186
0.017216
-0.0349794
0.0348153
0.010702
0.0131936
-0.0343436
0.0351013
0.00522964
0.00806135
0.0348651
0.00161566
0.00250177
-0.00194187
0.0336589
0.00265934
0.0328997
0.0317784
-0.031519
-0.00694656
-0.032005
0.0319361
-0.000438679
-0.00355043
0.0317809
-0.0320974
-0.0123303
-0.00954532
0.0324602
-0.0328508
-0.0162782
-0.0143508
0.0332512
-0.0336585
-0.0186873
-0.0175161
0.0340598
-0.0344527
-0.0196846
-0.0191627
0.0348222
-0.0351658
-0.0198667
-0.0196596
0.035473
-0.0357403
-0.0199511
-0.0197236
0.0367878
-0.0368052
-0.0203192
-0.0199344
0.0375559
-0.0372421
-0.0214236
-0.020466
0.0371436
-0.0370447
-0.0213682
-0.0213224
0.0375469
-0.0376604
-0.0223375
-0.0226345
0.0365937
-0.0364479
-0.0232792
-0.0229674
0.0362289
-0.0359393
-0.0225828
-0.0229932
0.0355924
-0.0352042
-0.0197618
-0.0213608
0.034803
-0.0347908
-0.0142612
-0.0172483
0.0345063
-0.0347458
-0.00646845
-0.0105304
0.0342672
-0.0335674
0.00281333
-0.00208146
-0.0328901
0.0074504
-0.0314144
-0.00813693
0.0348625
-0.00193925
0.00253194
0.0320635
0.0129317
-0.0127659
-0.0320157
0.0124174
-0.0323758
0.0125713
-0.0119723
-0.0320135
-0.0318191
-0.0293749
0.0290933
0.000457778
0.0297678
-0.030305
-0.00759975
-0.00354307
-0.0291023
0.0296447
0.00837107
0.00446793
-0.0302271
0.0308897
0.0146796
0.0118093
-0.0315829
0.0322786
0.0187757
0.0169049
-0.0329404
0.0335518
0.0209159
0.0199638
-0.0340913
0.0345733
0.0215992
0.0212828
-0.034973
0.0360267
0.0214659
0.0214769
-0.0355867
0.0358189
0.0210253
0.0211373
-0.0368669
0.0363163
0.0206129
0.0206797
-0.0362833
0.036376
0.0204267
0.0203541
-0.0364416
0.0364859
0.0205521
0.0203249
-0.0365128
0.0365255
0.0207478
0.0205358
-0.0365255
0.0365117
0.0203921
0.0205429
-0.0364824
0.0364346
0.0188019
0.019643
-0.0363687
0.036285
0.0156023
0.0172819
-0.0361885
0.0360778
0.0108127
0.01329
-0.0359751
0.0361818
0.00502286
0.00816411
-0.00614801
0.00616547
0.0336415
-0.00599055
0.034705
-0.0358789
0.0359637
-0.00202404
0.00191858
0.0306915
-0.0306733
-0.000456868
0.0305979
0.00262548
-0.00601354
0.00626392
0.0318131
0.0330516
0.0307787
-0.0308484
-0.00687684
-0.00344501
0.0309888
-0.03136
-0.0119591
-0.00940499
0.0317724
-0.0322171
-0.0158336
-0.0139383
0.0326783
-0.0331552
-0.0182104
-0.0170548
0.0336296
-0.0340989
-0.0192153
-0.0186883
0.0345434
-0.0349612
-0.0194489
-0.019215
0.0353384
-0.0356798
-0.0196097
-0.0193464
0.0359814
-0.036256
-0.0200447
-0.0196327
0.0365013
-0.037159
-0.0207659
-0.0202206
0.0374206
-0.0370855
-0.0217034
-0.0210608
0.0376603
-0.037304
-0.0226938
-0.0220597
0.0373355
-0.0373081
-0.0233065
-0.0229358
0.0372118
-0.0370447
-0.0227499
-0.0230895
0.036815
-0.0365339
-0.020043
-0.0215904
0.036224
-0.0359079
-0.0145773
-0.0175582
0.0356115
-0.035351
-0.00672889
-0.0108268
0.0351403
-0.0345328
0.0022058
-0.00229218
0.0340955
-0.0332629
0.0115848
0.00701313
-0.0310651
-0.0112122
0.0162644
-0.0168306
-0.0318096
-0.0327275
0.015729
-0.0170255
-0.0318209
-0.00563948
0.0356127
0.0308746
0.00598722
-0.0148628
0.0153956
-0.0325463
-0.0141914
-0.0317365
0.019083
-0.0200054
-0.0308872
0.0187868
-0.0324313
-0.033449
0.0375351
-0.037686
-0.00187321
0.0368871
-0.00499143
0.0096085
-0.00943785
0.0316425
0.00891871
0.0315644
-0.0303897
0.0300416
-0.0138433
-0.0175945
0.018056
-0.0321981
0.0324843
0.0189409
-0.0130472
-0.038378
-0.0154998
-0.0295285
0.0290173
-0.00708854
-0.010699
-0.028621
0.0283717
0.000707133
-0.00314681
-0.0285398
0.028855
0.00805588
0.00429982
-0.0294845
0.030186
0.0139781
0.0111797
-0.0309231
0.0316702
0.0180286
0.0161678
-0.0323899
0.0330665
0.0202392
0.0192441
-0.0336767
0.0342231
0.0210529
0.0206726
-0.0346954
0.0351075
0.0210538
0.0210045
-0.0354574
0.0357597
0.020723
0.0207874
-0.0360205
0.0362476
0.0203858
0.0204189
-0.0364427
0.036613
0.0202563
0.0201591
-0.0367612
0.0368934
0.0204198
0.0201767
-0.0370129
0.0371234
0.0206373
0.0204164
-0.0372239
0.0373128
0.0203031
0.0204424
-0.0373851
0.0374369
0.01875
0.0195708
-0.0374652
0.0374679
0.0155996
0.0172536
-0.0374479
0.0374041
0.0108565
0.0133101
-0.0374678
0.0374736
0.00501711
0.00810032
0.00170623
-0.00924616
0.00912658
0.033761
0.0091249
-0.00928052
0.0357683
0.0345838
0.0327404
0.0299262
-0.0298896
-0.000493469
-0.0300514
0.0302811
0.00575746
0.00250031
0.0297428
-0.0300394
-0.00658017
-0.00359184
0.0303438
-0.0307458
-0.0115571
-0.00910064
0.0311931
-0.0316838
-0.015343
-0.0134911
0.0321982
-0.0327358
-0.0176727
-0.0165404
0.0332749
-0.0338117
-0.0186785
-0.0181492
0.0343231
-0.0348068
-0.0189652
-0.0187037
0.0352483
-0.0356549
-0.0192031
-0.0189049
0.0360244
-0.0363691
-0.0196999
-0.0192632
0.0366891
-0.0369912
-0.0204637
-0.0199007
0.0372712
-0.0375302
-0.0214443
-0.0207809
0.0377613
-0.0379568
-0.0224983
-0.0218286
0.0381058
-0.0382009
-0.0232114
-0.0227869
0.0382305
-0.0381898
-0.0227906
-0.02306
0.0380802
-0.0379098
-0.0202134
-0.0217
0.0376963
-0.0374571
-0.0148165
-0.0177717
0.0372137
-0.0369784
-0.00696424
-0.0110702
0.0367635
-0.0365661
0.00200842
-0.0025071
0.0359387
-0.034905
0.0105511
0.00638577
0.0340455
-0.0335498
0.0182911
0.0148695
0.0212019
-0.0214795
-0.0321536
-0.0331318
0.0207839
0.0186112
-0.0331014
-0.018917
-0.0329093
-0.00876531
0.0363719
0.0308055
0.00839431
0.020439
-0.0336963
-0.0201338
-0.0322329
0.0271937
-0.025081
0.0237394
-0.0228753
0.0225483
-0.0328048
-0.023265
-0.0317639
-0.0194821
0.0308076
-0.0114715
-0.0107316
-0.0189508
-0.0337548
-0.0297158
0.0308257
-0.0141571
-0.0135468
0.0146386
-0.029606
0.0286339
-0.0128713
-0.01428
-0.0280167
0.0274119
-0.00648376
-0.0100818
-0.0272812
0.0274285
0.000559803
-0.00301609
-0.0276391
0.0282035
0.00749156
0.00408916
-0.028869
0.0296076
0.0132395
0.0105142
-0.0303827
0.0311711
0.0172402
0.0153927
-0.0319369
0.0326655
0.0195106
0.0184783
-0.0333324
0.0339384
0.0204469
0.0200056
-0.0344746
0.034951
0.0205774
0.0204683
-0.0353679
0.0357381
0.0203528
0.0203705
-0.0360662
0.0363619
0.0200901
0.0200908
-0.0366276
0.0368728
0.0200111
0.0198934
-0.0371003
0.0373182
0.0202019
0.0199492
-0.0375285
0.0377358
0.0204299
0.0202061
-0.0379365
0.0381285
0.0201111
0.0202418
-0.0383032
0.0384559
0.0185973
0.0193961
-0.0385794
0.0386712
0.0155078
0.0171301
-0.03873
0.0387537
0.0108328
0.0132513
-0.0389354
0.0390725
0.00488004
0.0079186
-0.0388669
0.0386424
-0.00164864
0.00191174
-0.0385145
0.0379449
-0.00819564
-0.00486359
-0.0118884
0.012138
0.0355187
0.012238
-0.012221
0.0379279
0.0367214
-0.0119752
0.0122669
0.0334693
0.0347465
-0.0121665
0.0117375
0.0320714
0.0328408
-0.0115184
0.0109108
0.0314131
0.0317835
0.0299581
-0.0295225
0.00532182
-0.0310045
0.0303627
0.0115527
0.00734794
0.0292888
-0.0292289
-0.000553285
0.00226659
0.0292249
-0.0294842
-0.00632089
-0.00359585
0.0298292
-0.0302514
-0.0111348
-0.00875567
0.0307252
-0.0312514
-0.0148168
-0.0130173
0.0318095
-0.0323986
-0.0170837
-0.0159823
0.0329934
-0.0335885
-0.0180834
-0.0175544
0.0341579
-0.0346995
-0.0184236
-0.0181344
0.0351984
-0.0356643
-0.0187372
-0.018406
0.0360954
-0.036506
-0.0192893
-0.0188322
0.0368956
-0.037274
-0.0200854
-0.019511
0.0376361
-0.0379862
-0.0210943
-0.0204187
0.0383152
-0.0386207
-0.0221928
-0.0214996
0.0388886
-0.0391109
-0.0229892
-0.0225189
0.0392716
-0.0393627
-0.0226994
-0.0228992
0.0393781
-0.0393209
-0.0202705
-0.0216847
0.0392026
-0.0390381
-0.014981
-0.01789
0.0388457
-0.0386357
-0.00717421
-0.0112626
0.0384168
-0.0381884
0.00178
-0.002726
0.0379498
-0.0376938
0.0102951
0.00614713
0.0367242
-0.0355149
0.0170817
0.0139
0.0348973
-0.0344194
0.0220704
0.0201663
0.0236211
-0.02376
-0.032666
-0.0340386
0.0232403
0.0207837
-0.0334461
-0.0203117
-0.0327314
0.0231368
-0.0296394
-0.0216195
-0.0338783
0.0398766
-0.0400828
-0.0079894
0.0391908
-0.0115352
0.0136442
-0.0138741
0.031643
0.0125509
0.031456
0.023603
-0.0250098
-0.0226341
-0.0328898
0.00273456
-0.0319331
-0.0224387
0.0268828
-0.0159156
0.0247398
-0.0240375
-0.0333682
0.023958
-0.0332568
-0.0201005
-0.021289
-0.0332829
-0.0282174
0.0282217
-0.0141615
-0.0148813
-0.0280662
0.0272055
-0.0120106
-0.0141245
-0.026466
0.0263433
-0.00636108
-0.00934229
-0.0264123
0.0266747
0.000297393
-0.00308503
-0.0271054
0.0276876
0.00690938
0.00365844
-0.028378
0.0291463
0.0124712
0.00982375
-0.0299525
0.0307742
0.0164185
0.0145865
-0.0315766
0.0323463
0.0187409
0.0176759
-0.0330596
0.0337164
0.0197901
0.0192923
-0.034307
0.0348407
0.0200437
0.0198776
-0.0353174
0.0357494
0.0199209
0.0198938
-0.03614
0.0365005
0.0197296
0.0197002
-0.0368333
0.0371497
0.0196947
0.0195606
-0.0374529
0.0377528
0.019902
0.0196461
-0.0380505
0.0383514
0.0201291
0.0199084
-0.0386491
0.0389413
0.0198189
0.0199441
-0.0392161
0.0394678
0.0183456
0.0191213
-0.0396856
0.0398663
0.0153271
0.0169123
-0.0400038
0.0400979
0.0107387
0.0131137
-0.0401429
0.0401344
0.00488848
0.00787369
-0.0404096
0.0401132
-0.00135227
0.00163659
-0.00483323
-0.0147238
0.0142971
0.0359454
0.0147597
-0.0148441
0.0380123
0.0367573
-0.0144829
0.0142582
0.033694
0.0345607
-0.0144019
0.0144188
0.0320545
0.0326971
0.0323282
0.0295435
-0.0291496
0.00492792
-0.0294852
0.0307346
0.0103032
0.00740623
0.0289316
-0.0286863
-0.0007986
0.00204862
0.0288379
-0.0291
-0.00605886
-0.0034442
0.0294463
-0.0298751
-0.0107061
-0.00840935
0.0303661
-0.0309192
-0.0142636
-0.0125263
0.0315128
-0.0321445
-0.0164519
-0.0153887
0.0327859
-0.0334298
-0.0174394
-0.0169131
0.0340476
-0.0346382
-0.017833
-0.0175165
0.0351867
-0.0357049
-0.018219
-0.0178575
0.0361915
-0.0366625
-0.0188183
-0.0183456
0.0371171
-0.0375669
-0.0196357
-0.0190564
0.0380068
-0.0384436
-0.0206575
-0.0199788
0.0388681
-0.0392805
-0.0217805
-0.0210751
0.0396651
-0.040014
-0.0226404
-0.0221342
0.0403066
-0.0405316
-0.0224744
-0.0226066
0.0406746
-0.0407333
-0.0202119
-0.0215417
0.0407108
-0.0406189
-0.0150729
-0.0179125
0.0404726
-0.0402826
-0.00736421
-0.0114089
0.0400568
-0.0397948
0.00151799
-0.00295178
0.0394967
-0.0391618
0.00996023
0.00584901
0.0387983
-0.0384099
0.0166933
0.0135364
0.0372808
-0.0360972
0.0208868
0.0190373
0.0347543
-0.0339765
0.0231802
0.0218974
0.0248805
-0.0241256
-0.0340118
-0.0331306
0.0240346
0.0217147
-0.032024
-0.0213245
-0.0330263
-0.0143822
0.0387289
0.0311084
0.0121771
0.0230336
-0.02907
0.0161487
-0.0341272
0.0204308
-0.0292919
-0.0224501
-0.0340623
-0.0229557
-0.0339716
-0.0298333
-0.0222003
0.0209731
-0.0205046
-0.0303018
0.0166487
-0.0298028
-0.0239551
-0.0335387
0.0239352
-0.0247619
-0.033185
0.0243535
-0.0335489
-0.0328926
-0.0264398
0.027122
-0.0165978
0.0290835
-0.0320383
-0.0192455
-0.0186453
-0.0275221
0.0275455
-0.0141849
-0.0152814
-0.0269189
0.0264448
-0.0115365
-0.0134979
-0.0261305
0.0259959
-0.00622645
-0.00902803
-0.0260496
0.0262966
5.03856e-05
-0.00313868
-0.0267223
0.0273066
0.00632515
0.00323269
-0.0280081
0.028795
0.0116843
0.00912217
-0.029624
0.0304714
0.0155711
0.0137575
-0.0313025
0.0321048
0.0179386
0.0168448
-0.0328553
0.0335539
0.0190916
0.0185418
-0.0341903
0.0347737
0.0194603
0.0192412
-0.0353028
0.0357902
0.0194335
0.0193646
-0.0362379
0.0366583
0.0193091
0.0192525
-0.037054
0.0374374
0.0193113
0.0191649
-0.0378117
0.0381888
0.019525
0.0192717
-0.0385686
0.0389573
0.0197404
0.0195285
-0.0393464
0.0397336
0.0194317
0.019555
-0.0401036
0.0404506
0.0179986
0.0187513
-0.0407595
0.0410264
0.0150603
0.0166033
-0.0412401
0.0413987
0.0105801
0.0129
-0.0414932
0.0415245
0.00485718
0.00777916
-0.0414833
0.0416954
-0.00156441
0.00167784
-0.0414549
0.0411882
-0.0077227
-0.00459272
-0.040304
0.0399161
-0.0139943
-0.0106509
-0.0166517
0.0167916
0.0378724
0.0173807
-0.0167489
0.0392843
0.0394579
-0.0166389
0.0167241
0.0358602
0.03691
-0.0165391
0.0162645
0.0339685
0.0347458
-0.0159129
0.0154961
0.0324714
0.0330488
-0.0155078
0.0151184
0.0320324
0.0323165
-0.0145248
0.0138693
0.0317639
0.0320497
0.0304107
-0.0294954
0.00938797
-0.0310074
0.031316
0.0135608
0.0115803
0.0290534
-0.0287082
0.00458274
0.00696422
0.0284239
-0.0284459
-0.000776619
0.00176433
0.0285888
-0.028838
-0.00580963
-0.00330132
0.0291791
-0.0296091
-0.010276
-0.00806832
0.0301104
-0.0306832
-0.0136908
-0.012025
0.0313046
-0.0319707
-0.0157858
-0.0147673
0.0326496
-0.0333327
-0.0167563
-0.0162342
0.0339896
-0.03462
-0.0172026
-0.0168596
0.0352099
-0.0357733
-0.0176556
-0.0172676
0.0363089
-0.0368342
-0.018293
-0.01781
0.0373479
-0.0378632
-0.0191204
-0.0185427
0.0383753
-0.0388931
-0.0201396
-0.0194667
0.039408
-0.0399224
-0.0212661
-0.0205602
0.0404195
-0.0408918
-0.0221681
-0.0216371
0.0413143
-0.0416723
-0.0221163
-0.0221842
0.0419428
-0.0421169
-0.0200378
-0.0212712
0.0421891
-0.0421668
-0.0150951
-0.0178403
0.0420621
-0.0418863
-0.00754
-0.0115136
0.0416487
-0.0413501
0.00121939
-0.00318938
0.0409929
-0.0405788
0.00954609
0.00549183
0.0401173
-0.0396197
0.0161957
0.0130749
0.0391167
-0.0386157
0.0203858
0.0185344
0.0381303
-0.0370196
0.0220695
0.0214119
0.0359286
-0.0343178
0.0227426
0.0229437
0.0232622
-0.0237302
-0.0330808
-0.0339262
0.0228706
0.0223793
-0.0313696
-0.0326837
-0.0198591
0.0219313
-0.0305704
0.0415534
-0.0423097
-0.0132381
0.0409844
-0.0161799
0.0159695
-0.0161352
0.0319296
0.0152673
0.0320182
-0.0221508
-0.0333257
-0.0227495
-0.0342685
0.0192865
-0.0319298
-0.0229148
-0.0350119
-0.0227852
-0.0355154
-0.0224776
-0.0344377
0.0232486
-0.0228447
-0.0334846
0.0222564
-0.0329341
-0.0326642
-0.032659
0.0308155
-0.017402
-0.0194117
0.0225716
-0.0358436
0.0345794
-0.0365179
-0.0174733
-0.0179388
-0.0284369
0.0279398
-0.0161007
-0.0162667
-0.0277249
0.0274218
-0.0138818
-0.0150666
-0.026752
0.0262494
-0.0110339
-0.0128281
-0.0259279
0.0257891
-0.00608767
-0.00870652
-0.0258355
0.0260695
-0.00018364
-0.00318503
-0.026482
0.0270562
0.00575093
0.00282018
-0.0277554
0.028548
0.0108917
0.00842302
-0.0293893
0.030254
0.0147064
0.0129162
-0.0311063
0.0319339
0.017111
0.0159925
-0.032714
0.0334465
0.0183591
0.0177618
-0.034121
0.0347466
0.0188348
0.0185667
-0.0353211
0.0358571
0.0188974
0.0187901
-0.0363559
0.0368306
0.0188344
0.0187538
-0.0372836
0.0377285
0.0188664
0.0187119
-0.0381685
0.0386164
0.019077
0.0188317
-0.0390717
0.0395409
0.0192712
0.0190732
-0.040014
0.0404889
0.0189569
0.0190818
-0.0409474
0.0413832
0.0175629
0.0182927
-0.0417777
0.0421251
0.0147129
0.0162088
-0.0424109
0.0426305
0.0103606
0.0126142
-0.0427738
0.0428367
0.00479426
0.00763586
-0.0428173
0.0427118
-0.00145883
0.00169721
-0.0427322
0.042563
-0.00755346
-0.00461317
-0.0103976
-0.0186691
0.0183785
0.038163
0.0179953
-0.018454
0.039743
0.0387841
-0.0184864
0.0183681
0.0359784
0.0368022
-0.0181549
0.0178533
0.0342701
0.034959
-0.0174719
0.0170192
0.0329241
0.0334301
-0.0170381
0.0165709
0.0324995
0.0322976
0.0324854
0.0301718
-0.0296542
0.00887035
-0.0307395
0.0314535
0.0128468
0.0110126
0.0289525
-0.0284343
0.00406457
0.00626255
0.0283209
-0.0283304
-0.000767131
0.00165092
0.0284541
-0.028687
-0.00557677
-0.0031776
0.0290175
-0.0294441
-0.00984938
-0.00773777
0.0299506
-0.0305375
-0.013104
-0.0115185
0.0311803
-0.031873
-0.0150931
-0.0141245
0.0325807
-0.0332934
-0.0160436
-0.0155265
0.0339798
-0.0346412
-0.0165412
-0.0161732
0.0352645
-0.0358656
-0.0170545
-0.0166443
0.0364434
-0.0370163
-0.0177202
-0.0172322
0.0375824
-0.0381563
-0.0185465
-0.0179765
0.0387334
-0.039325
-0.019548
-0.0188896
0.0399228
-0.0405316
-0.0206573
-0.0199625
0.0411341
-0.0417234
-0.0215788
-0.0210346
0.0422706
-0.0427581
-0.0216289
-0.0216369
0.0431538
-0.0434419
-0.0197497
-0.0208755
0.0436071
-0.0436516
-0.0150507
-0.0176751
0.043584
-0.0434172
-0.00770679
-0.0115812
0.0431632
-0.0428253
0.000881489
-0.00344341
0.0424105
-0.0419174
0.00905304
0.00507702
0.0413647
-0.0407646
0.0155956
0.0125221
0.0401463
-0.0395264
0.0197659
0.017916
0.0389285
-0.0383598
0.0215009
0.020814
0.0369961
-0.0358172
0.0215637
0.02158
0.0348375
-0.0342869
0.0217058
0.0218909
-0.0221503
0.0179992
-0.0256518
-0.0298805
0.0227759
-0.0226512
-0.0330587
-0.0328345
0.0213234
0.0220071
-0.0314455
-0.0178129
0.0403434
0.0325299
0.0141909
0.0183933
-0.0371897
-0.0177215
-0.0224292
-0.033646
0.0208463
-0.0382966
0.0209916
-0.0322755
-0.0227062
-0.0344772
0.019845
-0.0337756
-0.0227138
-0.0350833
-0.0225387
-0.0354544
-0.0222756
-0.0350068
-0.0225301
-0.0336058
0.0221642
-0.0225068
-0.0327161
0.0216844
-0.0323547
-0.0330863
-0.0367614
0.0347472
-0.015459
-0.0190052
-0.0374096
0.019225
0.0382089
-0.03797
-0.0192441
-0.016274
-0.0330045
0.0315167
-0.0159142
-0.0161961
-0.0302262
0.0288281
-0.0147025
-0.0149763
-0.0279145
0.0274176
-0.013385
-0.0141529
-0.0267132
0.0261819
-0.0105026
-0.0121237
-0.0258447
0.0256994
-0.00594243
-0.00836933
-0.0257425
0.0259692
-0.000410337
-0.00322806
-0.0263684
0.0269272
0.00519214
0.00242093
-0.0276137
0.0283999
0.0101056
0.0077365
-0.0292419
0.030114
0.0138343
0.0120742
-0.0309794
0.0318253
0.0162651
0.015127
-0.0326283
0.0333882
0.0175991
0.0169588
-0.0340942
0.0347552
0.0181738
0.0178606
-0.0353684
0.0359465
0.0183194
0.0181769
-0.0364899
0.0370126
0.0183118
0.0182103
-0.0375165
0.0380165
0.0183664
0.018208
-0.0385152
0.0390267
0.0185655
0.018333
-0.0395494
0.0400906
0.0187299
0.0185506
-0.0406389
0.0411923
0.0184035
0.0185335
-0.0417306
0.0422467
0.0170467
0.0177545
-0.0427188
0.04314
0.0142916
0.0157367
-0.0434917
0.0437685
0.0100837
0.0122626
-0.0439565
0.0440518
0.00469902
0.00744784
-0.0440487
0.0439503
-0.00136046
0.00170031
-0.0437627
0.0436998
-0.00749052
-0.00442558
-0.0435229
0.0430105
-0.0127257
-0.0102208
-0.0418706
0.0413004
-0.0172427
-0.01504
-0.0192419
0.0194044
0.0395805
0.0195758
-0.0187792
0.0405038
0.0406772
-0.0194197
0.0197173
0.0378654
0.0387688
-0.0196921
0.0195638
0.0361067
0.0368274
-0.0193418
0.0190299
0.0345821
0.035181
-0.0186374
0.0181724
0.033389
0.0338227
-0.0176484
0.0175751
0.0325727
0.0328217
-0.0170901
0.0164717
0.032548
0.0329704
-0.0156119
0.0152595
0.0328822
0.032878
0.0315641
-0.0306542
0.0119369
-0.0323211
0.0330496
0.014531
0.0134339
0.0299409
-0.0290502
0.00797964
0.0102993
0.0286934
-0.0284482
0.0038193
0.00590582
0.0283241
-0.0283139
-0.000777274
0.00152682
0.0284175
-0.0286324
-0.00536184
-0.00307406
0.0289497
-0.0293701
-0.00942903
-0.00742046
0.0298785
-0.0304752
-0.0125073
-0.0110101
0.0311338
-0.0318459
-0.014381
-0.0134659
0.0325738
-0.0333069
-0.0153105
-0.0147986
0.0340137
-0.0346974
-0.0158575
-0.0154664
0.0353462
-0.0359777
-0.016423
-0.0159955
0.0365906
-0.0372039
-0.0171069
-0.0166192
0.0378152
-0.03844
-0.0179217
-0.0173653
0.039074
-0.0397307
-0.0188913
-0.0182556
0.0404021
-0.0410957
-0.0199637
-0.019291
0.0417938
-0.0424908
-0.0208818
-0.0203366
0.0431548
-0.0437653
-0.0210184
-0.0209728
0.044282
-0.0446814
-0.0193502
-0.0203588
0.0449375
-0.0450462
-0.014942
-0.017419
0.045012
-0.0448493
-0.00786946
-0.0116154
0.0445747
-0.0441951
0.000501948
-0.00371803
0.0437235
-0.0431572
0.00848671
0.0046054
0.0425185
-0.0418217
0.0148989
0.0118835
0.041099
-0.0403697
0.0190367
0.0171933
0.0396639
-0.038991
0.0208279
0.0201082
0.0383634
-0.0377683
0.0209685
0.0209524
0.0365474
-0.0353326
0.020491
0.02067
0.0341966
-0.0325905
0.0200783
0.0201874
-0.0256762
0.0200957
-0.0200712
-0.0347104
0.0221094
-0.0223363
-0.0321278
-0.0320777
0.0215967
0.0219372
-0.0323911
-0.0223746
-0.0339775
0.0194459
-0.0386463
-0.0187696
-0.0379848
0.0200211
0.0177727
-0.0368443
0.0205291
-0.0329596
-0.0225224
-0.0346685
0.0429054
-0.043467
-0.0166812
0.0418661
-0.0177398
0.0161778
-0.0166902
0.0333946
0.0157595
0.033468
0.0201812
-0.0338611
-0.0224927
-0.0351292
-0.0223739
-0.0353561
-0.0221917
-0.0353452
-0.0219399
-0.0341727
-0.0224899
-0.0325624
-0.0187866
-0.0390408
0.0191811
-0.0394471
0.0393881
-0.0187275
0.0192378
-0.0405634
-0.0181216
0.0216122
-0.0306871
-0.0230529
0.020473
-0.0309386
-0.0402038
0.0204008
-0.0335237
-0.0370486
0.0347915
-0.016987
-0.0164301
-0.0346874
0.0343659
-0.0151376
-0.0161699
-0.0328698
0.031347
-0.0143914
-0.0146999
-0.0303849
0.0293869
-0.0137045
-0.0140142
-0.0284149
0.0275335
-0.0125036
-0.0131809
-0.0267958
0.0262333
-0.00994003
-0.011386
-0.0258724
0.0257137
-0.00578374
-0.00800848
-0.0257504
0.0259708
-0.000630761
-0.00326468
-0.0263594
0.0269025
0.004649
0.00203235
-0.0275717
0.0283428
0.00933444
0.00706734
-0.0291754
0.030045
0.0129647
0.0112416
-0.0309149
0.0317716
0.0154084
0.0142571
-0.0325909
0.0333723
0.0168178
0.0161395
-0.034104
0.0347946