/*--------------------------------*- C++ -*----------------------------------*\
  =========                 |
  \\      /  F ield         | OpenFOAM: The Open Source CFD Toolbox
   \\    /   O peration     | Website:  https://openfoam.org
    \\  /    A nd           | Version:  10
     \\/     M anipulation  |
\*---------------------------------------------------------------------------*/
FoamFile
{
    format      ascii;
    class       surfaceScalarField;
    location    "33.5";
    object      phi;
}
// * * * * * * * * * * * * * * * * * * * * * * * * * * * * * * * * * * * * * //

dimensions      [0 3 -1 0 0 0 0];

internalField   nonuniform List<scalar> 
57492
(
-0.0195208
0.00256209
0.00425612
0.0127026
-0.00406935
-0.0161951
0.000743676
-0.00368277
0.0123834
0.0357913
-0.044492
0.0989082
0.0723731
-0.0163844
-0.154897
-0.209937
0.0849976
0.223847
0.0525269
-0.0515653
-0.0268754
0.0259138
-0.0961997
0.0235526
-0.0141345
0.0867816
0.0171161
-0.060789
0.0226641
-0.104022
0.0989935
-0.0176356
0.0207419
0.0951832
-0.093261
0.0236245
0.0019839
0.00331799
-0.0289264
-0.00682712
0.00572913
0.0247225
-0.0188364
0.0141813
-0.00217203
0.00378175
-0.0206342
0.10019
-0.0854805
-0.037257
0.0225479
0.00272085
0.0755513
0.0219175
0.00195102
0.00946115
0.0851394
-0.0965516
-0.00800538
0.0839583
-0.0740019
0.0196493
-0.0397044
0.0200551
-0.104119
0.07084
0.0529287
-0.11232
0.0169792
0.0826004
0.0127408
0.0162457
-0.114288
-0.0142784
-0.000691208
0.0118308
-0.0176456
0.00650597
0.0166729
-0.0187247
0.00136063
-0.165592
0.182733
0.00848765
-0.0256282
-0.196727
0.0797454
-0.0486105
-0.0879034
0.0323582
0.0439978
0.0115474
-0.0607609
-0.0306906
0.0035481
-0.0304427
-0.0813206
0.101588
0.0101756
-0.0380005
0.0133748
-0.00581691
0.0584706
-0.0370683
-0.0355346
0.0141323
-0.0468184
0.0390927
0.0661964
-0.0709569
-0.122639
0.0718936
0.121702
-0.123884
-0.0394499
0.0923774
-0.0527038
-0.0101419
0.0628456
-0.0159172
-0.0367865
-0.0626884
0.0813273
-0.0345561
0.0143402
-0.0383647
-0.0386639
-0.0499456
0.0734982
-0.0224464
-0.113277
0.0549746
0.0583019
-0.204676
0.0913993
0.107197
-0.0382012
0.0287389
-0.0977343
0.0788252
0.0188635
0.00950779
-0.0336453
0.100999
-0.105555
0.0955013
0.015163
-0.0935482
0.0933713
-0.0120045
0.10421
-0.0361298
-0.0763642
0.00828358
0.117766
0.00160748
0.0788348
-0.0436954
0.058232
0.0286021
0.137014
-0.0992131
-0.0144195
0.0137284
0.0999042
-0.102526
-0.00782675
0.01114
0.0141436
0.101513
-0.100059
-0.0155984
0.00649176
-0.0963702
-0.115908
0.128068
0.134016
-0.146175
-0.0188347
0.134525
-0.231598
0.00281855
0.0138736
-0.000418693
-0.0162734
0.0105839
0.00641593
-0.0045455
0.0101788
0.0049506
0.0104099
-0.00108185
-0.00613868
0.00571999
-0.00153059
-0.00460809
0.270654
0.0932984
-0.187598
-0.176355
0.0756752
-0.055577
0.250556
-0.229319
0.072903
0.232091
0.0394028
-0.175423
0.0336393
-0.080324
0.0632799
-0.0165953
0.068529
-0.0811305
0.0462408
0.00257871
-0.00088699
0.000870378
0.00560505
0.00122978
0.0155444
0.0027632
-0.0884847
0.162485
0.0786256
-0.152626
0.101981
-0.121936
0.0607114
0.157934
-0.0561602
0.339406
-0.0306549
-0.101623
-0.207128
0.0920011
0.186252
0.0611535
0.0521704
-0.128347
0.168178
0.00765412
-0.0113369
0.0200375
0.0627958
0.0945751
-0.0450376
-0.112333
0.0853159
0.0132712
0.00541296
-0.0019754
-0.00343756
0.0118245
-0.00641159
-0.177273
0.0836292
-0.065548
0.159191
-0.14611
-0.0909674
0.0598051
-0.0796774
0.0825038
-0.148937
0.0978713
-0.00138656
-0.047882
-0.0486028
-0.0435247
0.110119
0.0312766
-0.0539873
-0.00642074
0.0168834
-0.0472543
-0.00811953
-0.0179645
-0.0771718
0.0706188
0.00116743
-0.0367417
-0.0350446
-0.00244118
0.0181018
0.0549582
-0.0713402
-0.0144433
0.0833422
-0.0625104
-0.00766233
-0.0901409
-0.00911117
-0.0500404
0.0320759
0.00525351
-0.0552939
0.0065631
0.00526145
0.117895
0.0764579
-0.00868541
0.0422623
-0.134304
-0.0153609
0.0956076
-0.0671782
-0.0130685
-0.0228828
0.100794
-0.0932725
0.081344
0.0407608
-0.00717449
-0.11493
-0.0300358
0.0166811
0.0946988
0.0982572
-0.0875322
-0.0320317
-0.0703569
0.0197729
0.0826157
-0.0348179
0.0809554
-0.0781692
0.00146536
-0.10664
-0.0199761
-0.0172833
0.00108899
-0.0225402
0.0167392
0.00173162
0.0284967
-0.0164659
-0.034571
-0.0028693
0.0151709
-0.0143839
0.0168519
0.00495235
-0.00742036
0.0346278
-0.0223714
-0.0266403
-0.0150205
0.0433397
0.00630866
-0.00759651
0.00942793
-0.155255
0.0842073
0.154677
0.161938
-0.0653714
-0.187534
-0.0768689
0.0835526
-0.0080742
-0.0624257
-0.0108207
-0.0466676
0.000592845
0.00477449
-0.00763656
-0.00100545
0.00386752
-0.0115193
0.01158
0.00471382
-0.0267172
0.0075613
-0.0191154
-0.0324072
0.00485495
-0.0501324
-0.0314087
-0.0489692
-0.0514857
0.0626014
0.0378535
0.00348287
0.0220432
-0.0744953
-0.0687197
0.0207169
-0.14618
0.0546755
-0.0126146
-0.143647
0.0155532
-0.0180865
-0.00528828
-0.0859443
0.079178
0.0120547
-0.000493022
-0.0891793
0.084384
-0.00975045
-0.28087
-0.081941
0.102649
0.0971673
-0.124433
0.0902401
-0.0190547
0.0136847
-0.028128
0.0113329
0.00235184
0.0281112
-0.00659115
0.121127
-0.0724435
-0.0414359
-0.00724728
0.100215
-0.0127336
0.160373
-0.0135025
-0.165706
0.0346287
0.120249
0.00549565
0.00870015
-0.0967828
0.122711
0.00100175
0.0103311
0.0291309
-0.101049
-0.0991493
0.066559
0.126064
0.0588583
-0.00327106
-0.0614408
0.00585359
0.0187559
-0.00671605
-0.0751751
0.0137311
0.100537
0.0102112
-0.0666303
-0.00755172
-0.00325737
-0.0434696
-0.004698
0.0489246
-0.00075698
-0.00608482
0.00147526
-0.0388601
-0.0320114
-0.0355799
0.0615064
-0.0299049
0.0595776
-0.0231097
0.178285
-0.145178
-0.0630114
-0.00274363
-0.0940278
0.110503
-0.240115
-0.0121887
-0.184135
-0.0977048
0.0417243
0.0821529
0.057773
-0.122947
0.0405418
0.118554
-0.0769427
0.0390094
-0.0804327
0.0494817
-0.0080584
0.0430705
-0.0780136
0.0739525
0.110492
0.0298819
0.109294
-0.00310048
-0.10881
0.00261642
0.12081
-0.012365
0.000849196
0.124954
-0.0127848
-0.00618899
-0.10598
0.0895752
-0.0235313
0.0589101
0.0986888
-0.023611
0.0181533
-0.0932312
0.0208136
0.10017
-0.0222944
-0.0902384
-0.0295695
0.0961969
0.0159961
-0.0864616
-0.030534
0.0835802
-0.0397326
-0.076348
0.0346319
0.0814487
-0.0413669
-0.0779201
0.0795544
0.0377881
0.073687
-0.0207487
-0.0907263
0.0730314
-0.0766103
-0.044196
0.0447036
0.0725238
-0.0346266
0.0641176
-0.0956572
0.0841531
-0.00924461
-0.123241
0.00539823
0.122619
-0.00477655
0.0277926
0.0181182
-0.0323695
0.0351509
-0.0208995
0.0152851
-0.0189956
0.0218287
0.0131788
-0.0326192
0.0165711
-0.0670766
-0.0970792
0.0585684
-0.0135044
0.0149797
-0.000404643
-0.0130998
-0.0132808
-0.11418
0.0837651
-0.0949046
-0.0116479
0.0932718
0.00841827
-0.0991129
-0.00420996
0.041335
0.0474205
-0.037845
-0.0509105
0.0159081
0.0783564
-0.0529294
0.0782962
-0.0149677
0.00203005
-0.00157035
-0.017743
-0.00148906
0.0035191
-0.00305941
0.00200298
-0.00266845
0.0110754
-0.00196969
0.00397267
-0.00463814
0.00598852
-0.00176364
0.012448
-0.00609913
0.0120876
-0.00786277
0.00580998
-0.000477028
-0.0129295
-0.00223352
0.0080435
-0.00271055
0.0373174
0.0793013
-0.0999377
0.0280591
-0.10253
0.111788
0.116301
-0.00894074
-0.0329349
-0.0651834
0.0326013
0.065517
-0.017328
0.0702446
-0.0858515
0.00487579
-0.0873872
0.0830066
-0.0834264
-0.0787768
0.0791965
0.0839113
-0.0788654
0.0779607
-0.0776649
-0.0824474
0.0766859
0.0847583
-0.0789817
0.0781346
0.0859401
-0.0766643
0.0754825
-0.0760641
0.0877828
0.0742214
0.0879914
-0.0883355
-0.0757199
-0.0787749
0.0904491
0.0761086
0.0857215
-0.0765051
-0.0866576
-0.0783422
-0.0871945
-0.0784448
-0.0875844
-0.0784755
-0.0892828
-0.0770784
-0.0879951
-0.0789525
-0.0782791
0.0938137
0.0749145
0.0815172
-0.0740747
-0.0745329
-0.0811358
0.0732212
-0.0894642
-0.0730638
-0.0695608
-0.0842978
0.0727229
-0.0739046
0.0928954
0.0748229
0.0802232
-0.0726106
-0.0929852
-0.0660398
0.0924736
-0.0732854
0.0737072
-0.0720782
0.0912216
0.0733302
0.0791971
-0.0722593
0.0776382
-0.0705193
-0.0622414
-0.0836054
0.0615489
-0.0929922
-0.0622344
-0.0709186
0.0905809
0.0715593
0.0763798
-0.0696602
-0.0535676
-0.0834568
0.053419
-0.0933525
-0.0532072
-0.068755
0.0892388
0.0700971
0.0746671
-0.0670423
-0.0431689
-0.0832725
0.0429846
-0.0934519
-0.0430696
-0.0661089
0.088669
0.0666787
0.0733713
-0.0648131
-0.0312656
-0.0834608
0.0314539
-0.0938549
-0.0308626
-0.0618744
0.0876395
0.062904
0.0718121
-0.0603152
-0.0182173
-0.0837613
0.0185179
-0.0942171
-0.0178552
-0.0565338
0.0874775
0.0566958
0.0708332
-0.0555549
-0.00434293
-0.0845874
0.00516898
-0.0945455
-0.00401447
-0.0492814
0.087038
0.0497208
0.0698082
-0.0482564
0.00972897
-0.0830517
-0.0112646
-0.0935492
0.00873263
-0.0407716
0.0872898
0.0405198
0.069528
-0.0404914
0.0236573
-0.0846912
-0.0220178
-0.0932499
0.023358
-0.030633
0.0872924
0.0306305
0.0690633
-0.0301684
0.0375179
-0.0824827
-0.0397264
-0.0907989
0.0350669
-0.0164162
0.0843736
0.019335
0.0714832
-0.0188361
0.0498801
-0.0831374
-0.0492253
-0.0899255
0.0490067
-0.00494969
0.0784846
0.0108387
0.073256
-0.0067224
0.0613977
-0.061177
-0.0833582
-0.0894579
0.0609301
0.00442409
-0.00427366
0.0783342
0.0736197
0.00406032
-0.0759304
0.0752806
-0.0485756
-0.0791405
-0.0579669
0.0714161
-0.0696221
-0.0851522
0.0695722
-0.087614
-0.0718193
0.0719523
-0.0221508
-0.0362651
-0.0687819
0.0688551
0.00509581
-0.0080942
-0.0691665
0.0697406
0.0308797
0.0182065
-0.0705499
0.0715231
0.0524458
0.0421753
-0.072587
0.0777231
0.0675868
0.060485
-0.0791395
0.0788819
0.0769435
0.0718048
-0.0830048
0.0832734
0.0776921
0.0750736
-0.0825804
0.0826275
0.0754354
0.0788277
-0.0809534
0.0812077
0.0758543
0.0758955
-0.0812201
0.0810991
0.0749439
0.0749021
-0.0808625
0.0805159
0.0736768
0.0739438
-0.0801038
0.0796751
0.0705257
0.0719715
-0.079305
0.0790211
0.0631879
0.0670488
-0.0788558
0.0788351
0.0497416
0.056861
-0.0789623
0.0792745
0.0303183
0.0403926
-0.0790487
0.0815973
0.00829015
0.0195608
0.08184
-0.00451641
0.016192
-0.0157911
0.0779332
0.0153531
0.0744587
0.0670311
-0.0659718
-0.0198954
-0.068467
0.0694098
0.00311758
-0.00815837
0.0662871
-0.0671667
-0.0396118
-0.029853
0.0683613
-0.0698964
-0.0540198
-0.0470618
0.0716602
-0.073545
-0.0629282
-0.0585514
0.0754583
-0.0773333
-0.0677852
-0.0651291
0.0791113
-0.0808044
-0.0705661
-0.0687413
0.0823872
-0.0837908
-0.0726711
-0.0710279
0.087053
-0.0876177
-0.0751553
-0.0732429
0.0900297
-0.0898836
-0.0785908
-0.0759302
0.0904381
-0.0910848
-0.0764317
-0.077921
0.0931923
-0.094508
-0.0717481
-0.0768451
0.0929328
-0.0936874
-0.0614799
-0.067615
0.0942731
-0.0947071
-0.0426356
-0.0526215
0.0950354
-0.0952976
-0.017593
-0.0305342
0.0955054
-0.0968196
0.0100468
-0.00380666
0.0968135
-0.0978803
0.0361337
0.0233518
0.0961216
-0.0945163
0.0593248
0.047248
-0.0918373
0.0668932
-0.0829938
-0.0657688
0.0828372
-0.0167882
0.0136448
0.071118
0.0764565
-0.0755987
-0.0884718
0.074667
-0.0900478
0.0740814
-0.070729
-0.0863462
-0.0866695
-0.068836
0.0654059
-0.0451455
0.0728582
-0.0769251
-0.0617019
-0.0539446
-0.0628572
0.0619885
-0.0212821
-0.0337164
-0.0616298
0.0616637
0.00506188
-0.0077355
-0.0621278
0.0629762
0.0300313
0.0177425
-0.0641591
0.0655953
0.0510096
0.0409924
-0.0672451
0.0692136
0.0656183
0.0588352
-0.071083
0.0745143
0.0735122
0.0699355
-0.0747598
0.0764544
0.0759976
0.0748281
-0.0795964
0.0791994
0.0758325
0.0756856
-0.0801163
0.0808568
0.0751137
0.0749786
-0.0813818
0.0817536
0.0745722
0.0743771
-0.0820047
0.0821712
0.0735103
0.0736927
-0.0822853
0.0823988
0.0704122
0.0718573
-0.0825439
0.0827625
0.0629693
0.0669038
-0.0830645
0.0834538
0.0493522
0.0565589
-0.0839487
0.0845116
0.0297554
0.0398977
-0.085116
0.0863668
0.00703939
0.0189564
-0.0288099
0.0280332
0.0787098
-0.0289772
0.0830045
-0.086318
0.0870745
-0.0175447
-0.00446768
0.0650805
-0.0639752
0.00201225
0.0661392
0.0125861
-0.0261034
0.0255911
0.0716303
0.0763885
0.0634064
-0.0631595
-0.0201423
-0.00872712
0.0635116
-0.0646435
-0.0384799
-0.029501
0.0662121
-0.0681123
-0.0521196
-0.0454932
0.0702449
-0.0725203
-0.0606528
-0.0564188
0.0747811
-0.0770073
-0.0655589
-0.0628684
0.0791174
-0.0811557
-0.0685279
-0.0666313
0.0830917
-0.0849531
-0.0708097
-0.0690919
0.0866852
-0.0883436
-0.0734968
-0.0715108
0.0899342
-0.0924964
-0.0760286
-0.0743397
0.0944287
-0.0947316
-0.0761289
-0.0759886
0.0976037
-0.0980299
-0.0713219
-0.073973
0.0994912
-0.100858
-0.0601134
-0.0661536
0.102004
-0.102941
-0.0416988
-0.051475
0.10364
-0.104106
-0.0171271
-0.0298351
0.104351
-0.104428
0.0101231
-0.00356108
0.104321
-0.103924
0.0357371
0.0232447
0.103197
-0.0999614
0.0560887
0.0465216
0.0979221
-0.0943573
0.0711023
0.0648538
-0.081247
-0.0664071
0.0781442
-0.079738
-0.088454
-0.0918688
0.0756556
-0.0797611
-0.0884487
-0.0288819
0.0869792
0.0680823
0.023648
-0.07275
0.0744753
-0.0880715
-0.0695372
-0.0844598
0.078291
-0.0814057
-0.0853393
0.0768167
-0.0903945
-0.0919553
0.0930958
-0.0930234
-0.0176171
0.0919183
-0.0277044
0.0359204
-0.036543
0.0722529
0.032772
0.0712308
-0.0789875
0.0759455
-0.0664952
-0.074001
0.0758059
-0.0862647
0.086716
0.0740138
-0.0542165
-0.106513
-0.0662725
-0.0720936
0.0677981
-0.0574064
-0.0625552
-0.0638127
0.0598939
-0.0412268
-0.0499592
-0.0576188
0.0557894
-0.0194527
-0.0314413
-0.0553595
0.055415
0.00500632
-0.0073056
-0.0560043
0.057103
0.0289327
0.0171532
-0.0586377
0.0605388
0.0491085
0.0394577
-0.0627169
0.0651037
0.0632315
0.056657
-0.0675465
0.0700334
0.0710252
0.0674927
-0.0723541
0.0745285
0.0738231
0.0725075
-0.0764907
0.0781877
0.0741355
0.0737235
-0.0796142
0.0808176
0.0739103
0.0735522
-0.0818224
0.0826792
0.0737154
0.0733722
-0.0834189
0.0840885
0.0728407
0.072953
-0.0847197
0.0853584
0.0697736
0.0712261
-0.0860313
0.086766
0.0622345
0.0662309
-0.0875449
0.0883606
0.0485365
0.0557801
-0.0891846
0.0899837
0.0289562
0.0390737
-0.0910006
0.0917901
0.00624987
0.0179395
-0.00570091
-0.0380102
0.0365357
0.0801843
0.038509
-0.0394728
0.0879429
0.0835033
0.0763812
0.0620181
-0.0609326
0.000926693
-0.0635385
0.0656137
0.0215728
0.0110657
0.0600597
-0.0604595
-0.0197425
-0.00960002
0.0614048
-0.0628367
-0.037048
-0.0285556
0.0646842
-0.0669186
-0.0498852
-0.0436456
0.0693439
-0.0719071
-0.0580895
-0.0539936
0.0744464
-0.0769594
-0.0630458
-0.0603291
0.0793854
-0.0817525
-0.0661608
-0.0642053
0.0840216
-0.0862338
-0.0685975
-0.0668228
0.0883667
-0.0904827
-0.0713808
-0.0693778
0.0925852
-0.0947337
-0.0738801
-0.0722372
0.0969244
-0.0991946
-0.0738587
-0.073798
0.101499
-0.10374
-0.0690804
-0.0716689
0.105856
-0.107784
-0.0581861
-0.0640373
0.10942
-0.110772
-0.0403462
-0.0498393
0.111805
-0.112506
-0.0164259
-0.0288022
0.112839
-0.112807
0.0100908
-0.00322812
0.112442
-0.111674
0.0349691
0.0228797
0.11054
-0.109056
0.0546047
0.0453872
0.105396
-0.100683
0.0663893
0.0611943
0.0965831
-0.0936084
0.073842
0.0715556
0.0766371
-0.0786149
-0.0884167
-0.0912624
0.0742911
0.0772871
-0.0895527
-0.0782154
-0.091639
-0.0384444
0.0908899
0.0681919
0.0301938
0.0769299
-0.0891808
-0.0749675
-0.0889867
0.0910383
-0.0637858
0.0510437
-0.0759099
0.0737548
-0.0891073
-0.0781376
-0.0861891
-0.050087
0.0806172
-0.0454978
-0.0234079
-0.0645241
-0.0928836
-0.0776895
0.080195
-0.0567221
-0.0525419
0.0554696
-0.0747392
0.0697003
-0.0614563
-0.0608167
-0.0655527
0.0608682
-0.052722
-0.0584076
-0.057268
0.0545672
-0.0385259
-0.046359
-0.0520341
0.0508351
-0.0182536
-0.0289083
-0.0502578
0.0503304
0.00493371
-0.00672833
-0.0510311
0.0523371
0.0276266
0.0164525
-0.0541657
0.0564434
0.0468309
0.0376291
-0.0590218
0.0618381
0.0604151
0.0540786
-0.0647443
0.0676694
0.0681001
0.0645866
-0.0704614
0.073075
0.0712095
0.0697154
-0.0754491
0.0775634
0.0720211
0.0713494
-0.0794059
0.0810421
0.0722741
0.0717097
-0.0824897
0.083806
0.0723991
0.0719246
-0.0850181
0.0861807
0.0716782
0.0717409
-0.0873256
0.0884985
0.0686007
0.0700811
-0.0896984
0.0909368
0.0609961
0.0650311
-0.092171
0.0933752
0.0473323
0.0545459
-0.094505
0.0955257
0.0279355
0.037944
-0.0968519
0.0979988
0.00510297
0.0166133
-0.0980911
0.0979175
-0.0174435
-0.00579315
-0.097881
0.0961999
-0.0367633
-0.0276679
-0.0463174
0.0465389
0.0877215
0.0477203
-0.0476486
0.0961281
0.0922928
-0.0455364
0.0454777
0.080243
0.0845058
-0.0444272
0.0423094
0.0743707
0.0774317
-0.0408145
0.0381203
0.0708861
0.0727257
0.06355
-0.061251
0.0192738
-0.0674932
0.0670624
0.0385511
0.0262506
0.0596244
-0.0586911
-6.56918e-06
0.00943911
0.058308
-0.0588478
-0.0192027
-0.00998317
0.0599641
-0.0616624
-0.0353498
-0.0274393
0.0637558
-0.0662191
-0.047422
-0.0415522
0.0688683
-0.0716366
-0.0553213
-0.0513444
0.074393
-0.0771325
-0.0603063
-0.0575727
0.0797995
-0.0824453
-0.063515
-0.0615383
0.0850204
-0.0875719
-0.066046
-0.0642477
0.0900665
-0.0925819
-0.0688655
-0.0668831
0.0951207
-0.0977551
-0.0712457
-0.0696983
0.100464
-0.103288
-0.0710348
-0.0710893
0.106142
-0.108988
-0.0662341
-0.0688145
0.111692
-0.114177
-0.0557018
-0.0613333
0.116314
-0.118063
-0.0385978
-0.0477015
0.119368
-0.120225
-0.0155694
-0.0274969
0.120603
-0.120494
0.00998141
-0.00284955
0.119852
-0.118766
0.0338833
0.0222381
0.117186
-0.115182
0.0526011
0.043807
0.112935
-0.110466
0.0639203
0.0589465
0.105451
-0.100047
0.0684383
0.0665407
0.0963884
-0.0934989
0.0708653
0.0706325
0.0725557
-0.0743398
-0.0873232
-0.0910464
0.0701032
0.0778457
-0.0904685
-0.0761919
-0.0904145
0.0798362
-0.0779787
-0.0743189
-0.0928054
0.103083
-0.103505
-0.0363411
0.100742
-0.0453071
0.0459752
-0.0475355
0.0724464
0.0418374
0.0712002
0.0791118
-0.0645413
-0.0722492
-0.0882797
0.021704
-0.0960224
-0.0572225
0.0693328
-0.0576081
0.0731034
-0.0724301
-0.0879966
0.0693716
-0.0873145
-0.0498496
-0.071897
-0.0912299
-0.0727212
0.0716793
-0.0556801
-0.0559302
-0.0696793
0.0650278
-0.0568047
-0.0588167
-0.0600782
0.0565531
-0.0491969
-0.053458
-0.0533163
0.0506051
-0.0358147
-0.0431222
-0.048487
0.047114
-0.0168807
-0.0267901
-0.0464464
0.0465373
0.00484281
-0.00606072
-0.0473225
0.0487801
0.026169
0.0156674
-0.0508232
0.0533748
0.0442792
0.035586
-0.0562688
0.0594308
0.0572531
0.0511846
-0.0626894
0.0659694
0.0648201
0.061328
-0.0691208
0.0720843
0.068246
0.0665641
-0.074799
0.0772676
0.0695526
0.0686347
-0.079477
0.0814987
0.0702523
0.0695003
-0.0833491
0.0850949
0.0706533
0.0700743
-0.0867605
0.0884043
0.0700344
0.0700753
-0.0900472
0.091732
0.0669159
0.0684382
-0.0934251
0.0951265
0.0592947
0.0633379
-0.0967811
0.0983529
0.0457605
0.0528913
-0.0997655
0.100997
0.0267042
0.0365313
-0.10198
0.102694
0.00438881
0.01563
-0.10384
0.103484
-0.0170876
-0.00693852
-0.0276897
-0.0532819
0.0518785
0.0891249
0.0531925
-0.0534883
0.0964239
0.0922034
-0.0516878
0.0505881
0.0813428
0.0846965
-0.0503479
0.0497633
0.0749552
0.0776719
0.0749536
0.0617001
-0.0596236
0.0171973
-0.0628197
0.0676057
0.0337652
0.025131
0.0582215
-0.0570858
-0.00114229
0.00803695
0.057185
-0.0579599
-0.0184278
-0.00988398
0.0592642
-0.0611216
-0.0334923
-0.026135
0.0634083
-0.0660455
-0.0447848
-0.0392655
0.0688603
-0.0717837
-0.0523979
-0.0485296
0.0746867
-0.0775925
-0.0574006
-0.0546697
0.08044
-0.0832936
-0.0606613
-0.0586908
0.0861018
-0.0889206
-0.0632273
-0.0614395
0.0917185
-0.0945778
-0.0660062
-0.0640852
0.0974973
-0.100555
-0.0681877
-0.0667788
0.103712
-0.107
-0.0677469
-0.0679323
0.110328
-0.113664
-0.0628979
-0.0654869
0.116847
-0.119794
-0.0527547
-0.0581499
0.122352
-0.124464
-0.0364857
-0.0451444
0.126033
-0.127031
-0.0145714
-0.0259279
0.127419
-0.127195
0.00975715
-0.00246133
0.126326
-0.124893
0.0324507
0.0213693
0.122932
-0.12049
0.0501588
0.0418454
0.117722
-0.114784
0.0609821
0.0561794
0.111801
-0.108778
0.0654148
0.0635577
0.103666
-0.0983019
0.0655015
0.0655204
0.0927323
-0.0889921
0.0656314
0.0645337
0.0704998
-0.0699159
-0.0878984
-0.0850393
0.066547
0.0759349
-0.0865672
-0.0744483
-0.0902851
-0.0517925
0.099046
0.0696929
0.0397501
0.0775456
-0.0764124
0.0575464
-0.0887718
0.0692721
-0.076267
-0.0730851
-0.0919695
-0.0706667
-0.090043
-0.0741552
-0.0717168
0.0705299
-0.06746
-0.0772251
0.0581838
-0.0764258
-0.070893
-0.0870195
0.0674226
-0.0711875
-0.0841336
0.0669984
-0.084615
-0.0897433
-0.0681971
0.0697258
-0.0591369
0.0758981
-0.0830356
-0.0645793
-0.064196
-0.0702203
0.0693016
-0.0547614
-0.0564247
-0.0658048
0.0621346
-0.0531345
-0.05532
-0.0583453
0.0546526
-0.0455043
-0.0496687
-0.0512754
0.0484112
-0.0329505
-0.0397449
-0.0461762
0.0446988
-0.0154033
-0.0245551
-0.0439874
0.0440737
0.00475653
-0.00534936
-0.0449092
0.046461
0.0246172
0.0148319
-0.0486395
0.0513663
0.0415525
0.0334075
-0.0544748
0.0578725
0.0538554
0.0480761
-0.0613788
0.06491
0.0612888
0.0578218
-0.0683188
0.0715493
0.0650156
0.0631552
-0.0745329
0.0772952
0.0667903
0.0656511
-0.0798195
0.0821801
0.0678917
0.066976
-0.0843976
0.0865367
0.0685142
0.0678568
-0.0886188
0.0907143
0.067939
0.0679932
-0.0928083
0.0949492
0.064775
0.0663441
-0.0970948
0.0992175
0.057172
0.0611923
-0.101249
0.103159
0.0438501
0.05086
-0.104821
0.10622
0.025305
0.0348695
-0.107289
0.107981
0.00369631
0.0145616
-0.108333
0.109096
-0.0178503
-0.00729052
-0.108355
0.107326
-0.0353122
-0.026949
-0.104512
0.102654
-0.0499352
-0.0424924
-0.0568762
0.0576163
0.0956838
0.0582957
-0.055445
0.0998037
0.100465
-0.057375
0.0574039
0.089096
0.0924447
-0.0567649
0.0557065
0.0824012
0.0853354
-0.0542749
0.0525317
0.0766984
0.0791035
-0.051926
0.0501563
0.0742161
0.0755592
-0.0475917
0.044706
0.0725786
0.0737648
0.0660087
-0.0625724
0.0303289
-0.0689076
0.0708216
0.0427919
0.0368512
0.060232
-0.0583901
0.0153554
0.0227907
0.0569185
-0.0565717
-0.00148917
0.00656537
0.0568429
-0.0577124
-0.0175582
-0.00961277
0.0591749
-0.0611684
-0.0314988
-0.0246725
0.0635735
-0.0663078
-0.0420504
-0.0368604
0.0691924
-0.0721926
-0.0493977
-0.045645
0.0751802
-0.0782003
-0.0543805
-0.0516821
0.0811953
-0.0842218
-0.0576349
-0.0556958
0.0872211
-0.0902489
-0.0601995
-0.0584402
0.0932821
-0.0964117
-0.0628766
-0.061052
0.0996288
-0.103009
-0.0648071
-0.0635617
0.106508
-0.11016
-0.0640949
-0.0644337
0.113869
-0.117607
-0.0591598
-0.0617784
0.121197
-0.124537
-0.0494145
-0.0545597
0.127437
-0.129821
-0.0341013
-0.0422448
0.131584
-0.132691
-0.0134641
-0.0241651
0.133088
-0.132772
0.00944189
-0.00206482
0.131731
-0.129981
0.0307008
0.0203274
0.127702
-0.1249
0.0473575
0.0395662
0.12176
-0.118416
0.0576373
0.0530397
0.115016
-0.111576
0.0619743
0.0601584
0.108254
-0.105053
0.0622998
0.0621989
0.101951
-0.0971856
0.0608655
0.0614327
0.0925706
-0.0866102
0.061038
0.061932
0.0642789
-0.0670069
-0.081887
-0.0839584
0.061627
0.0750004
-0.084022
-0.0839955
-0.0665001
0.0731454
-0.0802857
0.107189
-0.110246
-0.0468783
0.104617
-0.0528731
0.0507974
-0.052005
0.0737862
0.0477375
0.0738816
-0.0734074
-0.0899628
-0.0715045
-0.0911317
0.0651038
-0.083187
-0.0694907
-0.0914454
-0.0673498
-0.0908572
-0.0652285
-0.0859119
0.0646062
-0.0650721
-0.0814211
0.0604575
-0.0798097
-0.0881503
-0.0862156
0.0812726
-0.0596363
-0.0651488
0.0744661
-0.0933128
0.0916228
-0.0969145
-0.0598572
-0.0610929
-0.074034
0.071916
-0.0570189
-0.0569574
-0.0705041
0.0685815
-0.0528388
-0.0550127
-0.0649967
0.0612816
-0.0494194
-0.0517351
-0.0575192
0.0538153
-0.0418003
-0.0459063
-0.0503708
0.0474132
-0.0299929
-0.0363004
-0.0451341
0.0435704
-0.0138396
-0.0222761
-0.0428655
0.0429093
0.00471274
-0.0046444
-0.0437512
0.0453412
0.0230272
0.0139899
-0.0475834
0.0503945
0.0387414
0.0311653
-0.05361
0.0571287
0.0503367
0.0448605
-0.0607701
0.0644455
0.0576134
0.0541804
-0.0680142
0.0714296
0.0616002
0.0595866
-0.0746187
0.0776178
0.0637912
0.0624619
-0.0804095
0.0830685
0.0652328
0.0641843
-0.0856084
0.0881014
0.0660212
0.0653169
-0.0905546
0.0930373
0.0654564
0.0655399
-0.0955387
0.0980773
0.0622364
0.0638427
-0.100604
0.103111
0.0546644
0.0586659
-0.105459
0.107635
0.0416748
0.048512
-0.109535
0.111059
0.0237806
0.0329693
-0.11218
0.112879
0.00299715
0.0134414
-0.113106
0.112901
-0.0176451
-0.00751808
-0.112602
0.111747
-0.0344577
-0.0266499
-0.0409911
-0.0607378
0.0606103
0.0958113
0.057912
-0.058335
0.100227
0.0976396
-0.0611402
0.0610565
0.0891796
0.0919148
-0.0605228
0.0595687
0.0833553
0.0858692
-0.0582172
0.0565049
0.0784108
0.0804549
-0.0559027
0.054022
0.0760968
0.0761614
0.0757818
0.0650817
-0.0626188
0.027866
-0.0677704
0.0709878
0.0395746
0.0341625
0.059883
-0.0577824
0.0132548
0.0200549
0.0569611
-0.0567135
-0.00173675
0.00574409
0.0571022
-0.0580879
-0.0165724
-0.00922411
0.0596447
-0.0617264
-0.0294171
-0.0231158
0.0641833
-0.0669551
-0.0392787
-0.0344035
0.0698595
-0.072874
-0.0463831
-0.0427406
0.0758953
-0.0789722
-0.0513035
-0.0486608
0.0820537
-0.0851916
-0.054497
-0.0526143
0.0883251
-0.0915114
-0.0570132
-0.0553066
0.0947262
-0.0980646
-0.0595382
-0.0578372
0.101509
-0.105128
-0.0611879
-0.0601175
0.108864
-0.112757
-0.0602022
-0.0606973
0.116709
-0.120705
-0.0551643
-0.057826
0.124571
-0.128204
-0.0457821
-0.0506935
0.131381
-0.133993
-0.0314892
-0.0390675
0.135903
-0.137075
-0.0122917
-0.0222552
0.137456
-0.137068
0.00905389
-0.00168409
0.135887
-0.133957
0.0287714
0.0191463
0.131402
-0.128351
0.0443072
0.0370102
0.12493
-0.121276
0.0539827
0.0496186
0.117544
-0.113825
0.0582555
0.0564264
0.110213
-0.106726
0.0588133
0.0585869
0.10339
-0.100199
0.0576742
0.0580968
0.0949868
-0.090366
0.0564172
0.0567196
0.0862565
-0.0832645
0.0574655
0.0575175
-0.0740904
0.0606198
-0.0629552
-0.0768493
0.062097
-0.0633454
-0.0785613
-0.0780163
0.0568488
0.0722132
-0.0830898
-0.0556598
0.101942
0.0749181
0.0438071
0.0628762
-0.0993057
-0.060485
-0.0719736
-0.0894937
0.0704974
-0.100934
0.0692607
-0.0844426
-0.0703597
-0.0902627
0.0661429
-0.0887101
-0.0687455
-0.0900496
-0.0669784
-0.0891073
-0.065096
-0.085888
-0.0645234
-0.080243
0.0604991
-0.0629286
-0.0761318
0.0577674
-0.0752846
-0.0879107
-0.0976323
0.0916851
-0.0539099
-0.0642065
-0.100535
0.065436
0.101883
-0.101858
-0.0642315
-0.0562342
-0.0864488
0.0821649
-0.0553524
-0.0558566
-0.0782292
0.0739538
-0.0527435
-0.0530218
-0.0707111
0.0683476
-0.0504753
-0.0517701
-0.0648275
0.0611446
-0.0457366
-0.048215
-0.0574357
0.0537952
-0.0381598
-0.0421973
-0.0504254
0.0474798
-0.0270473
-0.0329306
-0.0451977
0.0436306
-0.0122725
-0.019994
-0.042886
0.0429151
0.0046836
-0.00389976
-0.0437382
0.0453158
0.0214497
0.0131669
-0.0475537
0.0503675
0.0359276
0.0289273
-0.0535949
0.0571326
0.0467989
0.0416332
-0.0608063
0.0645293
0.0538905
0.0505067
-0.0681675
0.0716877
0.05808
0.0559484
-0.0750176
0.078195
0.0606138
0.059132
-0.0812041
0.0841125
0.0623244
0.0611753
-0.086927
0.0897244
0.0632237
0.0625024
-0.092497
0.0953144
0.062639
0.0627673
-0.0981539
0.101037
0.0593536
0.0610031
-0.103883
0.106679
0.0518684
0.0558194
-0.109311
0.111692
0.0392929
0.0458806
-0.113734
0.115405
0.0221093
0.0309282
-0.11654
0.117197
0.00233968
0.0123067
-0.117323
0.116918
-0.0172401
-0.00764392
-0.116047
0.115159
-0.0335693
-0.0257792
-0.113722
0.111249
-0.0444056
-0.0395542
-0.107064
0.104279
-0.0528749
-0.0486881
-0.0593549
0.0606804
0.0989011
0.0590741
-0.0555895
0.100795
0.101661
-0.0615815
0.063022
0.0943709
0.0967385
-0.0635228
0.063552
0.0891503
0.0914141
-0.0631381
0.0622919
0.0842016
0.0862831
-0.0610351
0.0594088
0.080037
0.0817117
-0.0574697
0.0565656
0.0770009
0.0781006
-0.0545813
0.052073
0.0762945
0.0777661
-0.0490705
0.0468549
0.0771337
0.076884
0.0709881
-0.0675501
0.0361366
-0.0742759
0.07724
0.0438908
0.0405194
0.0645989
-0.0612598
0.0245269
0.0312113
0.0595119
-0.058253
0.0119958
0.018307
0.0575709
-0.0574331
-0.00187459
0.00506205
0.0579069
-0.0589794
-0.0154999
-0.00875034
0.0605956
-0.0627068
-0.0273058
-0.0214996
0.0651649
-0.0679035
-0.03654
-0.0319455
0.0707684
-0.0737457
-0.0434058
-0.0398757
0.0767578
-0.079857
-0.0482043
-0.0456488
0.0829872
-0.08619
-0.0512942
-0.0494841
0.0893998
-0.0926802
-0.0537327
-0.0520969
0.0960096
-0.0994824
-0.0560654
-0.0545078
0.103071
-0.10684
-0.0574192
-0.0565288
0.110722
-0.114756
-0.056168
-0.0568149
0.118847
-0.122984
-0.0510264
-0.0537358
0.127003
-0.1308
-0.0419849
-0.0466753
0.134142
-0.136902
-0.0287295
-0.035725
0.138918
-0.140141
-0.0110686
-0.0202396
0.140514
-0.140042
0.00858245
-0.00131104
0.138763
-0.136716
0.0267238
0.0178671
0.13401
-0.130766
0.0410629
0.034305
0.127177
-0.123323
0.0501291
0.0460295
0.119391
-0.115456
0.0543208
0.052494
0.111655
-0.107985
0.0551436
0.0547856
0.104498
-0.101187
0.054363
0.0546099
0.0981051
-0.0951398
0.0534519
0.0536375
0.0905729
-0.0860254
0.0529181
0.0529506
0.0816856
-0.0762075
0.0522893
0.0525089
-0.086
0.0680218
-0.044977
-0.0923519
0.0583931
-0.0604809
-0.0731968
-0.0734005
0.0555861
0.0708319
-0.084661
-0.0707625
-0.0890909
0.0658644
-0.104726
-0.0629969
-0.102986
0.0683156
0.0623852
-0.0978831
0.0674541
-0.0857538
-0.0696937
-0.0893145
0.108046
-0.110966
-0.0499549
0.104055
-0.0515993
0.0495021
-0.051638
0.0792696
0.0473625
0.0793796
0.0674635
-0.0881519
-0.0684188
-0.0886093
-0.0669791
-0.0872242
-0.0652894
-0.085122
-0.0630335
-0.0801381
-0.0623909
-0.0742218
-0.0636815
-0.106785
0.065741
-0.109809
0.108492
-0.0623646
0.0653969
-0.114082
-0.0611235
0.0561173
-0.0681463
-0.0611678
0.0519273
-0.0692105
-0.111122
0.0697336
-0.0878413
-0.101423
0.0946241
-0.0574323
-0.0559282
-0.0936474
0.0921873
-0.0524498
-0.0552575
-0.0876352
0.0829329
-0.0506501
-0.0513044
-0.0796387
0.076037
-0.0491418
-0.0497276
-0.0723131
0.0686759
-0.0468381
-0.0480462
-0.065109
0.0615127
-0.0421404
-0.0446481
-0.0579527
0.0544867
-0.0346938
-0.0386372
-0.0512686
0.0484281
-0.0242068
-0.0297125
-0.0461811
0.0446507
-0.010742
-0.017747
-0.0438989
0.0439218
0.0046607
-0.00314804
-0.0447133
0.0462386
0.0199244
0.0123754
-0.0484106
0.0511517
0.0331865
0.0267554
-0.0543082
0.0577802
0.0433269
0.0384767
-0.0614024
0.0650947
0.0501981
0.0468845
-0.0687296
0.0722855
0.0545241
0.0523135
-0.0756931
0.0789908
0.0573161
0.0557244
-0.0821595
0.0852638
0.0592201
0.0580065
-0.0883024
0.0913461
0.06018
0.0594638
-0.0943886
0.0974804
0.0595472
0.0597248
-0.100592
0.10375
0.056196
0.0578914
-0.106848
0.10987
0.0488463
0.0527212
-0.112689
0.115243
0.0367397
0.0430612
-0.117385
0.119089
0.0204052
0.0287855
-0.120287
0.12086
0.00176656
0.011109
-0.120892
0.120337
-0.0166851
-0.00767538
-0.119237
0.117655
-0.0319877
-0.0246792
-0.115716
0.113605
-0.0422942
-0.0376153
-0.0460491
-0.0610332
0.0617837
0.0981506
0.0584022
-0.0579877
0.10038
0.0990303
-0.0633893
0.0643973
0.0933629
0.0951329
-0.0649666