/*--------------------------------*- C++ -*----------------------------------*\
  =========                 |
  \\      /  F ield         | OpenFOAM: The Open Source CFD Toolbox
   \\    /   O peration     | Website:  https://openfoam.org
    \\  /    A nd           | Version:  10
     \\/     M anipulation  |
\*---------------------------------------------------------------------------*/
FoamFile
{
    format      ascii;
    class       volVectorField;
    location    "33.5";
    object      U;
}
// * * * * * * * * * * * * * * * * * * * * * * * * * * * * * * * * * * * * * //

dimensions      [0 1 -1 0 0 0 0];

internalField   nonuniform List<vector> 
28942
(
(-0.402492 0.00419992 -2.64289e-19)
(-0.433624 -0.11885 -5.92858e-20)
(2.16806 -1.50873 7.01225e-19)
(2.53 0.0507148 -4.09464e-19)
(2.49161 0.079761 1.36515e-19)
(1.16403 0.0614959 0)
(1.35971 0.0859321 -4.09188e-21)
(1.5112 0.0559113 4.62647e-21)
(3.01045 -0.102579 4.64478e-20)
(2.97295 -0.0829139 -1.13845e-19)
(-0.0903088 -0.667235 -1.74549e-18)
(-0.151478 -0.298587 7.94697e-19)
(-0.134486 -0.423997 0)
(-0.226933 -0.499402 0)
(2.49684 -0.105845 2.56925e-21)
(2.52909 -0.104339 2.86468e-22)
(2.32103 0.121498 1.77504e-19)
(2.28416 0.0766801 2.75038e-19)
(1.26823 -2.14461 -4.20585e-19)
(1.93947 -2.1949 1.12601e-19)
(2.43331 0.439056 2.54295e-19)
(2.45967 0.408995 0)
(0.178084 0.0666046 1.60069e-18)
(-0.457244 -0.254053 8.80277e-19)
(3.2678 -0.846799 1.69753e-18)
(4.07955 -0.93533 -1.53573e-18)
(0.936214 -1.68629 2.27232e-18)
(0.878395 -1.34568 -9.92875e-19)
(2.42393 -1.75213 -2.51306e-19)
(1.87199 -1.25043 -1.01219e-19)
(1.11032 -0.0430937 0)
(1.51735 -0.0748783 1.0869e-20)
(1.88743 -0.121916 1.49693e-20)
(2.224 -0.0993289 1.5633e-20)
(1.29507 1.56017 2.37714e-19)
(0.966095 1.64245 -2.84521e-19)
(1.52159 1.50025 -8.99731e-19)
(1.16706 1.43317 -3.1537e-19)
(0.535307 0.0562165 4.86803e-21)
(0.545054 1.47671 -5.39065e-19)
(2.04084 -0.0241567 0)
(2.36185 -0.0741279 0)
(2.46286 -0.825772 -3.06047e-21)
(2.383 -0.821745 8.07857e-21)
(2.4584 -0.770206 8.04811e-21)
(1.93322 0.0724633 -2.44144e-21)
(1.89973 0.0886374 4.21114e-21)
(2.29492 0.0867714 1.38235e-20)
(2.23977 0.0873213 -3.77477e-21)
(2.00683 0.0836634 1.16435e-20)
(1.8573 0.0931367 -6.53145e-21)
(2.67807 0.0875898 6.41372e-21)
(2.68496 0.079161 8.65637e-21)
(3.02888 -0.155236 -1.87696e-21)
(2.98521 -0.132675 -2.08298e-20)
(4.01222 0.0666154 1.25118e-18)
(4.19485 -0.0603556 6.3001e-19)
(-0.350129 -0.240818 -1.05239e-18)
(-0.154757 -0.356424 0)
(-0.329976 -0.194539 3.79304e-19)
(-0.36813 -0.180299 9.23972e-19)
(-0.164699 -0.107955 -7.37964e-19)
(-0.157932 -0.107699 -7.7935e-19)
(3.56514 -1.26732 0)
(4.18639 -0.931463 2.34822e-19)
(3.61193 -0.762433 -1.06619e-19)
(3.42775 -0.881715 0)
(2.39256 -0.639308 -1.30128e-19)
(2.46874 -0.668824 -8.06168e-20)
(-0.192418 0.0704234 8.70052e-19)
(-0.263705 0.162133 -2.8031e-19)
(-0.370675 0.248259 7.11199e-19)
(2.5599 -0.806738 0)
(2.43604 -0.757329 4.19192e-19)
(2.3299 -1.16794 8.21649e-20)
(3.48512 0.765658 1.95552e-19)
(3.6044 0.706292 -2.17537e-19)
(3.47016 0.56565 -1.04899e-19)
(0.72355 -0.386781 4.01317e-20)
(1.10578 -0.64999 -6.78911e-19)
(3.08604 -1.90453 -1.67487e-19)
(2.9886 -1.86541 2.06326e-19)
(-0.15398 0.0688986 1.30807e-18)
(-0.323648 0.0114767 -5.0247e-19)
(3.06571 1.30258 -5.33259e-21)
(2.66135 1.03818 -1.74832e-19)
(2.60565 1.44458 1.46458e-19)
(2.43866 1.56718 -5.2918e-19)
(2.44995 1.66736 3.42233e-19)
(2.05729 1.46492 -1.98858e-20)
(2.1056 1.58199 -1.18039e-19)
(2.13199 1.65182 1.962e-19)
(0.0462116 -1.12142 -2.29818e-19)
(0.573344 -0.770168 -5.80702e-20)
(-0.346623 -1.00808 1.1554e-19)
(-0.762459 -1.55622 -1.61465e-18)
(-0.694997 -1.74383 2.10971e-18)
(1.13682 1.14542 -6.87768e-19)
(1.29887 1.30222 1.5931e-19)
(-0.320156 -0.0832112 0)
(2.51601 -0.00103449 0)
(2.43047 0.0787155 -3.06696e-19)
(2.39859 0.178278 2.55975e-19)
(2.60611 0.150659 0)
(3.33804 0.196557 0)
(3.35595 0.191257 0)
(3.38397 0.210925 -2.20545e-20)
(2.64453 0.326835 -4.95406e-20)
(2.62274 0.34506 5.06894e-19)
(2.63702 0.313574 2.71712e-19)
(-0.375279 -0.32049 2.12416e-18)
(-0.396653 -0.358019 -2.38021e-18)
(-0.453303 -0.173808 -5.36183e-19)
(-0.622845 -0.582915 5.19477e-19)
(-0.551775 -0.444265 9.94918e-19)
(0.442296 0.430601 4.822e-19)
(0.968718 0.32146 1.1541e-18)
(0.804899 0.896436 7.74426e-20)
(0.373838 0.845683 -2.82699e-18)
(3.22422 1.04659 1.40346e-20)
(2.80915 0.982391 2.76286e-19)
(2.72304 0.906734 -4.75725e-19)
(2.8348 -2.16469 -1.44895e-19)
(2.10324 -1.54631 1.65893e-19)
(0.451633 -0.147004 -1.40389e-18)
(0.523176 -0.327719 0)
(0.828126 -0.433292 7.96484e-19)
(1.96367 -1.51844 -1.10915e-19)
(2.34625 -2.00004 4.06119e-19)
(2.21771 0.0810437 -1.23172e-20)
(2.28724 0.0797595 4.31239e-21)
(2.08051 0.0734471 3.30326e-22)
(1.53647 -2.21196 0)
(1.60526 -1.6201 0)
(2.57383 -0.164478 -1.03052e-19)
(2.5313 -0.153023 6.01886e-19)
(2.53266 -0.0460311 0)
(2.35085 -2.11462 0)
(2.35801 -1.83839 -3.28754e-20)
(2.05672 1.60852 5.78063e-19)
(-0.0196235 -0.535646 1.5973e-18)
(-0.14168 -0.324292 -1.22463e-18)
(2.3051 -2.05421 1.33592e-19)
(2.52957 -0.705736 5.27626e-20)
(2.48749 -0.692799 -1.06418e-20)
(3.94158 0.129923 -1.69878e-19)
(3.93152 0.318468 2.2884e-19)
(3.83102 0.304208 7.37938e-19)
(-0.19575 -0.218039 5.40462e-19)
(2.32944 1.65809 8.89821e-19)
(2.42268 1.47674 -2.21717e-19)
(2.81171 1.8451 -1.35224e-22)
(1.66753 -0.0537259 -2.31239e-21)
(1.66045 -0.0538592 -2.37809e-20)
(1.8763 -0.0634788 -1.99823e-21)
(1.88902 -0.0781397 6.90492e-21)
(2.03351 1.55482 7.71652e-20)
(1.27038 1.39027 0)
(0.592361 -1.72209 9.38776e-19)
(0.770609 -1.27222 -1.01386e-18)
(0.18159 -1.13913 6.46231e-19)
(1.5579 0.419495 -9.26464e-19)
(2.77186 0.846997 -4.24817e-19)
(2.11607 -0.085004 2.11879e-21)
(4.28224 -1.6848 2.5962e-19)
(4.16373 -1.68642 7.46776e-19)
(2.4119 0.480804 5.90476e-19)
(2.24296 0.563842 4.30078e-20)
(2.31145 0.305321 3.23542e-19)
(2.36027 0.312472 -2.32618e-19)
(2.45095 0.496376 0)
(2.75086 0.0438496 3.2508e-20)
(2.76265 0.0378487 6.24704e-20)
(2.85299 -0.0426636 2.66765e-20)
(2.86945 -0.0417435 -4.9238e-20)
(2.66974 0.308423 6.07583e-20)
(2.69485 0.327023 -1.71244e-19)
(2.669 0.327952 0)
(2.64585 0.305773 3.63279e-20)
(2.66469 0.351919 0)
(2.63374 0.448851 -1.35549e-19)
(2.62973 0.498938 -7.4988e-20)
(2.60718 0.545292 -1.40857e-19)
(2.63091 0.53656 0)
(2.68179 0.551611 4.55546e-19)
(2.62513 0.588981 1.42647e-20)
(2.56399 0.580018 -8.2332e-20)
(2.4202 0.678189 -3.6273e-19)
(2.44157 0.540095 -6.1783e-20)
(-0.821753 0.467115 1.89053e-19)
(-0.431147 0.461352 -7.85477e-20)
(-0.411356 -0.51384 -7.19723e-19)
(2.02538 0.0766395 1.19354e-20)
(2.37645 0.0848617 0)
(0.750369 -0.447588 1.04491e-18)
(0.618731 -0.420889 4.45598e-19)
(2.27739 0.0945199 -1.86571e-21)
(2.46177 0.101072 -4.26734e-22)
(2.46469 0.0982266 0)
(2.25527 0.0918746 -1.0785e-21)
(2.26703 1.82567 8.22742e-20)
(2.23301 1.86175 -4.15381e-19)
(2.20686 1.86122 -1.9331e-19)
(-0.436936 -0.333505 9.24297e-19)
(-0.110506 -0.0586765 -1.20225e-18)
(-0.0608488 -0.02114 1.17709e-18)
(-0.359842 -0.220701 0)
(-0.171941 -0.104561 1.56529e-18)
(-0.164097 -0.1141 -1.35697e-18)
(-0.467035 -0.222003 -1.37983e-18)
(-0.432803 -0.250392 -1.28458e-18)
(-0.298337 -0.191286 0)
(0.158719 0.615641 0)
(0.0796785 0.424174 0)
(0.0195673 0.240486 0)
(3.32307 0.17314 7.40452e-21)
(3.28301 0.14 0)
(3.3295 0.157449 -8.66262e-21)
(2.35803 -0.320319 9.82139e-19)
(2.39477 -0.322092 -3.59298e-19)
(2.38637 -0.289287 0)
(2.27457 -2.20025 9.71513e-21)
(2.28597 -2.21257 -1.94509e-20)
(2.25795 -2.15601 7.65087e-21)
(2.29611 -2.20101 0)
(2.30239 -2.17516 1.05014e-20)
(2.30129 -2.14699 0)
(2.34783 -2.13674 0)
(2.29745 -2.11967 -3.64791e-20)
(2.32939 -2.10404 0)
(2.36496 -2.16961 1.05665e-20)
(2.37534 -2.19931 0)
(2.38394 -2.21337 -6.5668e-21)
(2.39311 -2.2017 1.00286e-20)
(2.40134 -2.15484 -7.63218e-21)
(2.28813 -2.09626 3.48564e-20)
(2.30545 -2.07647 1.17709e-21)
(2.23844 -2.06943 -1.13894e-22)
(2.40016 -2.06669 1.33573e-20)
(2.22828 -1.93663 -7.79415e-20)
(2.27202 -2.07627 -3.29798e-23)
(2.27659 -2.05257 1.2037e-21)
(2.40919 -1.92795 -2.85097e-20)
(2.25132 -2.05484 -3.45703e-20)
(2.22702 -2.02737 3.45397e-20)
(2.24348 -2.02796 -2.39637e-21)
(2.20632 -1.99845 -5.09018e-21)
(2.20926 -1.7566 7.59461e-20)
(2.41761 -1.73818 1.92967e-20)
(2.20003 -1.98888 0)
(2.16582 -1.95914 5.0221e-21)
(2.19375 -1.5185 -1.06409e-23)
(2.41655 -1.49866 1.06217e-23)
(2.17152 -1.93277 0)
(2.12323 -1.90424 0)
(2.18303 -1.23148 0)
(2.41894 -1.2069 0)
(2.14384 -1.85062 0)
(2.08064 -1.82544 -2.96569e-21)
(2.17216 -0.89966 4.95546e-20)
(2.41901 -0.872781 1.20551e-23)
(2.11792 -1.73413 -1.6753e-22)
(2.03968 -1.71454 3.18136e-21)
(2.16726 -0.535134 -4.97639e-20)
(2.4205 -0.506259 0)
(2.09789 -1.57557 0)
(2.00398 -1.56296 0)
(2.16602 -0.150852 3.24715e-21)
(2.42353 -0.121865 -5.59764e-20)
(2.08198 -1.37397 -2.61547e-20)
(1.97497 -1.36802 0)
(2.17115 0.23904 6.51599e-22)
(2.43064 0.266821 5.30287e-20)
(2.07513 -1.12982 3.99747e-20)
(1.95601 -1.12829 1.10019e-20)
(2.18657 0.62298 -5.14908e-20)
(2.43556 0.648882 0)
(2.07029 -0.850755 -1.37381e-20)
(1.94556 -0.853057 -7.5117e-21)
(2.19984 0.984408 2.45691e-20)
(2.44297 1.0106 -5.01195e-20)
(2.07776 -0.543718 5.69624e-20)
(1.94615 -0.546524 -6.40831e-20)
(2.23181 1.31698 -2.27895e-20)
(2.44791 1.34069 -7.18917e-22)
(2.09299 -0.215137 0)
(1.9581 -0.224373 -2.93158e-20)
(2.2548 1.5944 4.32016e-20)
(2.45921 1.61554 -8.67071e-20)
(2.11752 0.128746 0)
(1.98123 0.103082 0)
(2.02369 1.28446 2.25392e-20)
(2.06697 1.5633 7.84981e-20)
(2.2942 1.80979 0)
(2.47533 1.83075 3.97629e-20)
(1.95729 0.595122 1.51744e-20)
(1.98253 0.956767 -2.99788e-21)
(1.93401 -0.153973 0)
(1.93897 0.22515 5.3526e-20)
(1.95045 -0.881337 1.01603e-22)
(1.93836 -0.526511 0)
(1.9958 -1.48879 0)
(1.97001 -1.20608 0)
(2.06066 -1.90691 0)
(2.02023 -1.72306 0)
(2.1297 -2.12947 -1.3959e-20)
(2.09387 -2.04133 -4.08549e-21)
(2.19741 -2.19012 1.2403e-20)
(2.16624 -2.176 1.40953e-20)
(2.24683 -2.16233 -1.87912e-20)
(2.2248 -2.18321 -2.47799e-20)
(2.27233 -2.11987 0)
(2.2619 -2.14009 0)
(2.27627 -2.08642 7.89041e-23)
(2.27727 -2.10227 0)
(2.26039 -2.04569 0)
(2.27017 -2.06919 0)
(2.23635 -1.95623 0)
(2.24875 -2.01046 0)
(2.21583 -1.75507 0)
(2.22547 -1.87409 0)
(2.20773 -1.38515 0)
(2.21094 -1.59267 0)
(2.21657 -0.848177 0)
(2.21166 -1.13516 0)
(2.24471 -0.195457 2.62437e-20)
(2.23222 -0.533086 0)
(2.26459 0.149436 8.73398e-21)
(2.14071 0.458207 -7.62605e-21)
(2.0094 0.426449 7.56328e-21)
(1.83903 -0.553125 0)
(1.86188 0.0740826 2.77906e-20)
(1.84277 -0.242202 1.60272e-20)
(1.86637 -1.10834 -3.52945e-21)
(1.84678 -0.84421 1.33931e-20)
(1.93463 -1.51799 -9.04857e-23)
(1.89556 -1.3336 0)
(2.03282 -1.77064 0)
(1.98123 -1.66237 0)
(2.1406 -1.90724 0)
(2.08667 -1.84959 0)
(2.24181 -1.98404 0)
(2.19265 -1.95023 -8.61098e-27)
(2.32965 -2.04133 -7.0026e-23)
(2.28774 -2.01284 0)
(2.40032 -2.1094 0)
(2.36754 -2.07308 0)
(2.45913 -2.17805 0)
(2.43119 -2.14657 0)
(2.51304 -2.18391 0)
(2.48446 -2.19462 6.33064e-21)
(2.56705 -2.05358 -2.67627e-21)
(2.54435 -2.13783 9.76666e-21)
(2.62083 -1.72755 0)
(2.59548 -1.9171 9.24144e-21)
(2.65579 -1.19731 0)
(2.64068 -1.48733 0)
(2.67454 -0.494058 0)
(2.66727 -0.862014 0)
(2.68638 0.278907 0)
(2.68039 -0.108471 0)
(2.68873 1.01031 1.35165e-20)
(2.68811 0.655159 0)
(2.67233 1.60095 4.45633e-20)
(2.67685 1.32937 1.26164e-20)
(2.66312 1.80932 -4.06584e-20)
(2.12049 1.77432 -7.40604e-20)
(2.28457 0.483508 -1.62466e-20)
(1.89086 0.384055 2.60607e-20)
(2.48866 1.97722 0)
(2.65479 1.95454 0)
(2.17079 1.92085 0)
(2.3256 1.95534 0)
(1.83566 1.23498 0)
(1.96116 1.69856 -1.72004e-20)
(1.89417 1.4962 -2.15304e-20)
(1.75391 0.579235 -2.98176e-20)
(1.78841 0.925622 5.85459e-21)
(1.72921 -0.147232 -9.31601e-23)
(1.73374 0.218206 0)
(1.7563 -0.855629 0)
(1.73712 -0.509839 0)
(1.82296 -1.44871 0)
(1.78432 -1.17193 0)
(1.91447 -1.86129 0)
(1.86235 -1.67782 0)
(2.02042 -2.08109 0)
(1.9663 -1.99299 0)
(2.12094 -2.14682 4.88976e-23)
(2.07247 -2.12925 -1.35967e-20)
(2.2028 -2.13345 4.02098e-23)
(2.16519 -2.14637 2.30694e-20)
(2.25682 -2.10594 0)
(2.23312 -2.11859 0)
(2.28742 -2.08454 -3.9244e-23)
(2.27482 -2.0951 0)
(2.29979 -2.05189 0)
(2.29528 -2.07169 0)
(2.30559 -1.96572 0)
(2.30285 -2.01921 0)
(2.31437 -1.75973 0)
(2.30935 -1.88205 0)
(2.33236 -1.38142 0)
(2.32203 -1.59327 0)
(2.36245 -0.836579 0)
(2.34589 -1.12725 0)
(2.39841 -0.180521 -1.79812e-20)
(2.38018 -0.518176 0)
(2.1691 0.766289 0)
(2.30797 0.789692 -1.48133e-20)
(2.43365 0.496931 0)
(2.41514 0.161505 -1.76771e-20)
(1.76338 0.0437572 -2.58154e-20)
(1.79112 0.340023 -6.02666e-21)
(1.92579 0.675364 -5.43105e-20)
(2.04214 0.727437 0)
(1.75255 -0.557548 0)
(1.74993 -0.261005 3.95238e-20)
(1.79262 -1.08437 -9.10235e-23)
(1.76536 -0.833421 -1.3475e-20)
(1.87934 -1.47519 9.04871e-23)
(1.83047 -1.29758 0)
(1.99888 -1.71846 0)
(1.93645 -1.61346 0)
(2.12706 -1.85411 0)
(2.06341 -1.79596 0)
(2.24645 -1.93392 0)
(2.18825 -1.89841 8.61114e-27)
(2.35543 -1.99538 1.35245e-22)
(2.30217 -1.9646 0)
(2.45354 -2.06888 0)
(2.40593 -2.02992 0)
(2.54336 -2.14005 -2.91769e-21)
(2.49859 -2.10825 0)
(2.63259 -2.14444 0)
(2.5871 -2.15555 2.90526e-21)
(2.72639 -2.01041 -8.6944e-21)
(2.68049 -2.09781 -7.8118e-21)
(2.81309 -1.6957 0)
(2.77212 -1.87731 0)
(2.88032 -1.17629 0)
(2.84995 -1.46068 0)
(2.92038 -0.484082 0)
(2.90417 -0.847072 0)
(2.93258 0.283995 0)
(2.92923 -0.101662 0)
(2.92289 1.00847 -1.99412e-22)
(2.93132 0.658465 0)
(2.88001 1.58293 1.70608e-22)
(2.90434 1.32101 0)
(2.81907 1.92715 3.83893e-20)
(2.84999 1.78644 -3.83456e-20)
(2.03308 1.84697 -3.03256e-20)
(2.64998 2.03923 0)
(2.79349 2.01018 6.05848e-20)
(2.50141 2.06194 0)
(2.4519 0.805141 0)
(1.82861 0.624861 5.75066e-21)
(2.22361 2.00651 -7.24239e-20)
(2.10725 1.94783 -2.63775e-20)
(2.64736 2.07722 -1.52485e-20)
(2.76203 2.05138 -7.57344e-20)
(2.35883 2.04408 0)
(2.58977 0.498829 -6.95415e-20)
(2.60023 0.802469 3.40498e-20)
(1.96846 0.940115 1.21895e-20)
(1.87662 0.885784 -5.74289e-20)
(2.00639 1.85367 -9.56715e-20)
(2.17665 2.00414 5.42649e-20)
(2.15145 1.9385 1.76435e-19)
(2.08725 1.92048 5.0819e-20)
(1.82129 1.61477 -3.18343e-20)
(1.91277 1.75393 8.64662e-20)
(1.67546 1.17819 3.73971e-20)
(1.74187 1.42415 2.41302e-20)
(1.58252 0.555623 1.15121e-20)
(1.62195 0.883667 9.89028e-21)
(1.55192 -0.145116 9.31601e-23)
(1.55798 0.207578 0)
(1.58729 -0.827292 0)
(1.5621 -0.493962 0)
(1.67329 -1.40104 0)
(1.62366 -1.1326 0)
(1.79241 -1.80228 0)
(1.72781 -1.62359 0)
(1.92937 -2.01982 0)
(1.86008 -1.93198 0)
(2.06027 -2.09221 0)
(1.99679 -2.07033 0)
(2.16945 -2.09306 -2.2164e-24)
(2.11829 -2.09802 0)
(2.24962 -2.0797 0)
(2.21302 -2.08553 0)
(2.3062 -2.0696 -3.76462e-23)
(2.28038 -2.07508 0)
(2.34654 -2.04311 0)
(2.32785 -2.06043 0)
(2.38135 -1.9571 0)
(2.36394 -2.01137 0)
(2.41952 -1.74685 0)
(2.39958 -1.87146 0)
(2.46485 -1.36528 0)
(2.44095 -1.57855 0)
(2.51376 -0.818825 0)
(2.48859 -1.10986 0)
(2.55661 -0.166848 -9.26075e-21)
(2.53539 -0.500205 4.64527e-21)
(2.57278 0.171402 3.57796e-20)
(2.19984 1.0351 7.08426e-21)
(2.46758 1.07431 -3.00014e-20)
(2.33061 1.05913 2.38443e-20)
(2.07665 0.988867 0)
(1.68845 0.0185111 1.75795e-20)
(1.75217 0.574199 4.88389e-20)
(1.7144 0.303067 -3.94708e-20)
(1.68463 -0.552961 0)
(1.67922 -0.272128 0)
(1.73771 -1.04698 1.11241e-23)
(1.70359 -0.812209 0)
(1.84144 -1.41424 0)
(1.78367 -1.24806 0)
(1.97807 -1.64696 6.39051e-23)
(1.90751 -1.54531 0)
(2.12173 -1.7855 0)
(2.05037 -1.72476 0)
(2.25856 -1.87209 0)
(2.19132 -1.8332 0)
(2.38638 -1.9392 -6.51882e-23)
(2.3236 -1.90581 0)
(2.50655 -2.0162 -6.63669e-23)
(2.44728 -1.97578 0)
(2.6244 -2.08789 0)
(2.56536 -2.05617 0)
(2.74868 -2.09028 0)
(2.68569 -2.10202 0)
(2.87857 -1.95749 0)
(2.81338 -2.04434 0)
(2.99997 -1.64843 0)
(2.94127 -1.82686 0)
(3.09443 -1.14148 1.80813e-22)
(3.05127 -1.42007 0)
(3.15327 -0.464085 0)
(3.12868 -0.819032 0)
(3.17037 0.284804 0)
(3.1673 -0.0910869 0)
(3.14547 0.991631 1.09008e-23)
(3.16337 0.650235 0)
(3.07763 1.55088 -9.21618e-24)
(3.11648 1.29605 0)
(2.98111 1.88025 -1.32694e-22)
(3.03051 1.74624 0)
(2.87787 2.0018 5.21838e-20)
(2.93031 1.96325 -1.51089e-20)
(2.72703 2.0579 -1.26164e-20)
(2.82589 2.00806 -2.77777e-20)
(2.27643 2.05663 3.0869e-20)
(2.52147 2.09793 2.89419e-20)
(2.60694 1.0717 -7.82908e-21)
(1.79974 0.825253 -3.83088e-20)
(2.23421 2.01823 -9.98754e-22)
(2.63385 2.08635 0)
(2.19877 1.92078 -2.61732e-19)
(2.77217 1.99135 -3.16507e-20)
(2.68999 2.03885 -4.48715e-20)
(2.17888 1.81358 3.62441e-19)
(2.23517 1.80262 -6.27959e-20)
(2.39377 2.09004 0)
(2.05149 1.82919 -4.4999e-20)
(2.12005 1.83034 -2.15204e-20)
(1.90842 1.73846 -4.87822e-20)
(1.98671 1.79849 6.47215e-20)
(1.70892 1.51561 3.10736e-20)
(1.81127 1.64632 1.2588e-20)
(1.54344 1.10708 -1.76542e-20)
(1.61792 1.3365 -1.5843e-20)
(1.4409 0.524288 0)
(1.48493 0.832825 -8.45081e-22)
(1.40844 -0.143379 0)
(1.41513 0.194162 0)
(1.44962 -0.794805 -7.12765e-23)
(1.42015 -0.476597 0)
(1.5517 -1.34418 0)
(1.49325 -1.08667 0)
(1.69459 -1.73045 0)
(1.6187 -1.55857 0)
(1.85708 -1.94512 0)
(1.77484 -1.85751 0)
(2.01335 -2.02615 -3.95649e-23)
(1.93729 -1.99889 0)
(2.14629 -2.04133 -2.75022e-24)
(2.08344 -2.03828 0)
(2.25 -2.04153 0)
(2.20156 -2.0412 0)
(2.33111 -2.04055 7.35121e-23)
(2.29279 -2.04204 0)
(2.39828 -2.018 0)
(2.36588 -2.034 0)
(2.46188 -1.93156 0)
(2.42978 -1.98644 0)
(2.52972 -1.71984 0)
(2.49494 -1.84502 0)
(2.60071 -1.33801 0)
(2.56475 -1.55122 0)
(2.66663 -0.793909 0)
(2.63413 -1.08334 0)
(2.71715 -0.151262 4.64299e-21)
(2.69347 -0.479343 0)
(2.74535 0.498877 0)
(2.73332 0.179035 8.895e-21)
(2.74516 1.06079 1.74697e-22)
(2.74904 0.796124 0)
(2.4772 1.30034 3.04384e-20)
(2.73822 1.28589 -1.73991e-21)
(2.6075 1.29885 -1.40937e-20)
(2.22948 1.2585 -1.0037e-20)
(2.35094 1.28594 7.047e-21)
(2.01716 1.1682 3.40794e-21)
(2.11608 1.21406 -2.95016e-21)
(1.8577 1.04501 0)
(1.92989 1.10915 2.70362e-20)
(1.69418 0.524182 1.03169e-20)
(1.80073 0.977704 1.91245e-20)
(1.74335 0.763851 -4.09239e-20)
(1.63456 -0.00525422 5.47757e-21)
(1.65723 0.26552 0)
(1.63847 -0.539578 0)
(1.6298 -0.278019 0)
(1.70128 -1.00407 1.12237e-23)
(1.66196 -0.784633 0)
(1.81886 -1.35082 0)
(1.75457 -1.1936 0)
(1.96793 -1.57518 -6.39051e-23)
(1.89127 -1.47629 0)
(2.12349 -1.71339 0)
(2.04614 -1.65231 0)
(2.27393 -1.80182 0)
(2.19946 -1.76195 0)
(2.41914 -1.87224 0)
(2.34725 -1.837 0)
(2.55951 -1.95146 6.2713e-24)
(2.48972 -1.91049 0)
(2.70238 -2.02033 0)
(2.63004 -1.99052 0)
(2.85543 -2.01761 0)
(2.77737 -2.03204 0)
(3.01704 -1.88489 0)
(2.93589 -1.97014 0)
(3.17122 -1.58662 0)
(3.09678 -1.75802 0)
(3.29377 -1.09878 -1.80813e-22)
(3.23805 -1.36692 0)
(3.36789 -0.441751 0)
(3.33747 -0.786458 0)
(3.38759 0.284951 0)
(3.38499 -0.0793448 0)
(3.34967 0.966795 1.88428e-22)
(3.37581 0.638014 0)
(3.25702 1.50384 -1.62058e-22)
(3.3094 1.25884 0)
(3.12867 1.82494 1.3119e-22)
(3.1958 1.69307 0)
(2.98809 1.945 -1.38233e-20)
(3.05857 1.90619 2.86003e-20)
(2.84779 1.93873 1.11296e-20)
(2.91626 1.95399 -2.27795e-20)
(2.72162 1.95976 3.61386e-21)
(2.78136 1.90989 -1.78874e-20)
(2.3284 2.07687 2.56631e-20)
(2.53385 2.10382 0)
(2.27267 2.00164 1.97392e-19)
(2.60923 2.07455 0)
(2.88458 1.0431 6.93881e-21)
(2.86792 1.25522 -5.01041e-21)
(1.92092 1.23181 1.79499e-20)
(1.8693 1.1648 1.79361e-20)
(2.25638 1.91075 1.63009e-19)
(2.65591 2.00094 4.53386e-20)
(2.30282 1.80483 0)
(2.17153 1.76291 3.58387e-20)
(2.66814 1.92612 2.06753e-20)
(2.71808 1.87577 -2.32969e-20)
(2.27789 1.75351 -7.61852e-20)
(2.42897 2.10723 0)
(2.00297 1.73759 0)
(2.08082 1.75713 3.44406e-20)
(1.84577 1.64145 0)
(1.92869 1.70079 0)
(1.63403 1.42246 0)
(1.74506 1.55033 -1.30453e-20)
(1.45043 1.03621 0)
(1.53328 1.25282 0)
(1.3372 0.487951 0)
(1.38494 0.778191 0)
(1.30117 -0.141497 0)
(1.30884 0.177115 0)
(1.34658 -0.756737 7.12766e-23)
(1.31423 -0.456255 0)
(1.46068 -1.27726 0)
(1.39568 -1.03288 0)
(1.62209 -1.64696 0)
(1.53684 -1.48216 0)
(1.8044 -1.8585 0)
(1.71212 -1.771 0)
(1.98076 -1.94885 4.02928e-24)
(1.89479 -1.91566 0)
(2.13314 -1.97802 -3.21297e-24)
(2.06055 -1.96747 0)
(2.2574 -1.99105 0)
(2.1985 -1.98496 0)
(2.361 -1.99793 -2.34345e-24)
(2.31111 -1.99606 0)
(2.45376 -1.97867 0)
(2.40816 -1.99352 0)
(2.54546 -1.89207 0)
(2.49911 -1.94724 0)
(2.64108 -1.67964 0)
(2.59275 -1.80506 0)
(2.73549 -1.29992 0)
(2.68873 -1.51138 0)
(2.81752 -0.763488 0)
(2.77844 -1.04804 0)
(2.87452 -0.133685 0)
(2.84925 -0.454551 0)
(2.89702 0.499692 -8.38877e-21)
(2.89002 0.18873 -9.03094e-21)
(2.89577 0.788868 1.56971e-20)
(2.48488 1.48084 1.348e-20)
(2.72451 1.46431 0)
(2.60509 1.47688 1.42607e-20)
(2.2589 1.43949 0)
(2.36859 1.46611 -1.37654e-20)
(2.06768 1.35459 -1.70405e-20)
(2.15705 1.39868 6.05751e-21)
(1.98857 1.29786 3.22406e-20)
(1.65474 0.477178 -3.80949e-21)
(1.76404 0.914158 -1.28576e-20)
(1.70622 0.704534 0)
(1.60191 -0.0235893 8.68934e-21)
(1.6218 0.230658 -8.71364e-21)
(1.6105 -0.521505 0)
(1.59894 -0.278461 0)
(1.68371 -0.954863 1.09508e-23)
(1.63957 -0.749987 0)
(1.81187 -1.27911 0)
(1.74231 -1.13181 0)
(1.97022 -1.49477 0)
(1.8891 -1.39861 0)
(2.13413 -1.63476 0)
(2.05252 -1.5722 0)
(2.29474 -1.72601 0)
(2.21485 -1.68503 0)
(2.45305 -1.79756 -4.68043e-23)
(2.37423 -1.76184 0)
(2.61047 -1.87648 6.00955e-23)
(2.53161 -1.83604 0)
(2.77481 -1.94093 0)
(2.69119 -1.91382 0)
(2.95291 -1.93249 0)
(2.86221 -1.94968 0)
(3.1413 -1.79804 0)
(3.04662 -1.88319 0)
(3.32227 -1.50923 0)
(3.23445 -1.67433 0)
(3.46835 -1.04291 0)
(3.40128 -1.29913 0)
(3.55733 -0.41547 0)
(3.52099 -0.744768 0)
(3.57749 0.279879 1.69158e-22)
(3.57646 -0.068942 0)
(3.52698 0.931492 -1.57461e-22)
(3.5608 0.617604 0)
(3.41203 1.44254 1.35518e-22)
(3.47674 1.20969 0)
(3.25722 1.75342 0)
(3.33784 1.62431 0)
(3.08771 1.87612 0)
(3.17336 1.83504 0)
(2.92406 1.86984 -7.02516e-23)
(3.00313 1.8853 -1.10323e-20)
(2.77034 1.81257 3.85176e-20)
(2.84458 1.8437 0)
(2.66058 1.84316 2.46536e-20)
(2.69936 1.78286 -2.02489e-21)
(2.35949 2.07234 -7.04403e-20)
(2.53138 2.09346 0)
(2.83944 1.43056 2.43793e-20)
(1.83109 1.09081 2.75396e-20)
(2.31115 1.98645 3.10998e-20)
(2.31238 1.84628 3.29848e-21)
(2.32871 1.91063 -7.68675e-20)
(2.58967 2.03742 0)
(2.6158 1.9647 -9.59697e-21)
(2.33394 1.76612 6.45709e-20)
(2.35567 1.78584 -6.02364e-20)
(2.36071 1.84974 6.33087e-20)
(2.62247 1.89318 2.63803e-20)
(2.59948 1.81912 -1.57421e-20)
(2.63029 1.75779 -1.41595e-20)
(2.44755 2.0997 0)
(2.16077 1.68959 -1.81701e-21)
(2.3426 1.70511 -3.17797e-21)
(2.25928 1.70141 -1.37259e-20)
(1.96952 1.63927 -1.59717e-20)
(2.06333 1.6674 1.60789e-20)
(1.79457 1.52902 -3.50247e-23)
(1.88466 1.59499 0)
(1.5832 1.31711 0)
(1.69272 1.43847 0)
(1.39132 0.956339 0)
(1.47952 1.15758 0)
(1.27012 0.447368 0)
(1.32139 0.716922 0)
(1.23151 -0.138658 -5.4609e-23)
(1.23987 0.158785 0)
(1.27924 -0.713833 0)
(1.24516 -0.43286 0)
(1.40108 -1.20238 0)
(1.3318 -0.972596 0)
(1.57486 -1.55421 0)
(1.4831 -1.39667 0)
(1.77107 -1.76264 0)
(1.67182 -1.67505 0)
(1.96211 -1.86198 3.55357e-23)
(1.86877 -1.82298 0)
(2.1298 -1.90463 -3.54055e-24)
(2.04938 -1.88715 0)
(2.27166 -1.92944 0)
(2.20363 -1.91805 0)
(2.39565 -1.9434 -6.42765e-23)
(2.3352 -1.93852 0)
(2.51214 -1.92671 0)
(2.45431 -1.9408 0)
(2.62951 -1.83922 0)
(2.57028 -1.89515 0)
(2.75008 -1.62649 0)
(2.68963 -1.75171 0)
(2.8659 -1.25172 0)
(2.8094 -1.45987 0)
(2.96198 -0.72693 0)
(2.91745 -1.00517 0)
(3.02348 -0.113886 -1.30091e-22)
(2.99773 -0.426336 0)
(3.04257 0.496976 8.42382e-21)
(3.03859 0.197611 0)
(3.01579 1.01969 -7.8821e-21)
(3.0347 0.774272 0)
(2.94697 1.39686 -5.92074e-21)
(2.98592 1.22839 6.87145e-21)
(2.70154 1.59813 -1.20216e-20)
(2.90204 1.52642 0)
(2.80552 1.56401 -1.80992e-20)
(2.48877 1.61804 0)
(2.59521 1.61448 0)
(2.28795 1.58091 0)
(2.38497 1.60451 0)
(2.11891 1.50175 0)
(2.19812 1.54412 0)
(1.98769 1.38205 -1.82926e-20)
(2.04806 1.4462 -4.77435e-21)
(1.90362 1.23738 -3.11364e-21)
(1.93963 1.31301 -3.10139e-20)
(1.74153 0.843244 -1.59444e-20)
(1.88222 1.15949 -2.08914e-21)
(1.80808 1.0155 5.4747e-21)
(1.63671 0.431157 -3.05587e-21)
(1.68411 0.645935 2.02374e-20)
(1.58759 -0.0369247 1.15539e-23)
(1.60569 0.19931 0)
(1.60203 -0.499263 0)
(1.58685 -0.272646 0)
(1.68332 -0.901472 1.04149e-23)
(1.63485 -0.711518 0)
(1.81812 -1.20481 0)
(1.74556 -1.06645 0)
(1.98089 -1.413 0)
(1.8978 -1.31924 0)
(2.14947 -1.55246 0)
(2.06523 -1.4899 0)
(2.31833 -1.64403 0)
(2.23391 -1.60281 0)
(2.48729 -1.71639 8.69383e-23)
(2.40294 -1.68035 0)
(2.65798 -1.793 0)
(2.57203 -1.75437 0)
(2.83909 -1.8508 0)
(2.74674 -1.82741 0)
(3.03641 -1.83517 0)
(2.93577 -1.85565 0)
(3.24608 -1.69933 0)
(3.14047 -1.78394 0)
(3.44967 -1.42224 1.12455e-22)
(3.35058 -1.57953 0)
(3.61473 -0.980571 0)
(3.53914 -1.22322 0)
(3.7146 -0.38532 0)
(3.67395 -0.697628 0)
(3.73566 0.272077 -1.69158e-22)
(3.73568 -0.0573627 0)
(3.67426 0.886488 1.83148e-23)
(3.71476 0.59062 0)
(3.54142 1.36783 -2.55355e-22)
(3.61595 1.14872 0)
(3.36444 1.66375 0)
(3.45627 1.53977 0)
(3.17405 1.7871 0)
(3.26984 1.74434 0)
(2.98722 1.79005 7.82431e-24)
(3.07942 1.79922 0)
(2.81312 1.74146 0)
(2.89663 1.76881 0)
(2.66005 1.68939 1.81493e-20)
(2.73342 1.71341 0)
(2.56541 1.74317 -9.74551e-22)
(2.5874 1.67512 -2.75088e-20)
(2.38728 2.05073 0)
(2.38852 1.72297 -8.63348e-20)
(2.36705 1.9724 -2.06587e-20)
(3.04734 1.34733 5.91232e-21)
(2.99362 1.46841 0)
(1.97966 1.35497 -2.44515e-21)
(1.96025 1.27932 5.76757e-21)
(2.52416 2.0662 0)
(2.56533 1.99589 0)
(2.3781 1.9072 0)
(2.58024 1.93348 9.44892e-21)
(2.57223 1.86907 1.55907e-20)
(2.54303 1.80327 0)
(2.4968 1.73781 -3.2522e-20)
(2.51293 1.66929 2.24245e-20)
(2.46127 2.07465 0)
(2.35096 1.63282 6.07407e-24)
(2.42648 1.74008 -2.45462e-20)
(2.49823 1.67875 8.35138e-20)
(2.42981 1.65638 -2.51598e-20)
(2.16583 1.60533 7.85571e-21)
(2.26548 1.61785 1.35649e-20)
(1.95897 1.5542 0)
(2.0603 1.58728 0)
(1.76883 1.43265 3.50396e-23)
(1.86449 1.50266 0)
(1.56026 1.217 0)
(1.66757 1.33904 0)
(1.36517 0.876057 0)
(1.45633 1.06382 0)
(1.23925 0.405589 0)
(1.29244 0.654572 0)
(1.19889 -0.135656 5.4609e-23)
(1.20792 0.138856 0)
(1.24652 -0.668268 0)
(1.21191 -0.40778 0)
(1.37208 -1.12327 0)
(1.30067 -0.908796 0)
(1.55203 -1.45604 0)
(1.45696 -1.30615 0)
(1.75593 -1.66081 0)
(1.65279 -1.57329 0)
(1.95614 -1.76824 -2.68774e-23)
(1.85797 -1.72394 0)
(2.13541 -1.82345 -3.70809e-24)
(2.04885 -1.79964 0)
(2.2922 -1.85886 0)
(2.21626 -1.84271 0)
(2.43442 -1.87863 3.07098e-24)
(2.36452 -1.87142 0)
(2.57193 -1.863 0)
(2.50329 -1.87716 0)
(2.71176 -1.77392 0)
(2.64129 -1.83071 0)
(2.85422 -1.56198 0)
(2.78314 -1.68603 0)
(2.9884 -1.19486 0)
(2.92339 -1.39822 0)
(3.09635 -0.685772 0)
(3.04669 -0.955249 0)
(3.16122 -0.0948723 2.50909e-22)
(3.13469 -0.395397 0)
(3.17491 0.491975 1.16222e-22)
(3.17421 0.205278 0)
(3.13471 0.990449 -1.46047e-20)
(3.16099 0.756918 1.43295e-20)
(3.09588 1.18791 -1.19562e-20)
(2.67718 1.69203 -2.77359e-21)
(2.85277 1.61883 -6.23755e-22)
(2.76812 1.65756 8.51097e-21)
(2.49061 1.71719 0)
(2.5835 1.71185 0)
(2.31592 1.68751 8.33049e-26)
(2.40016 1.70754 0)
(2.16841 1.61257 0)
(2.2377 1.6542 0)
(2.05438 1.49823 -8.30774e-21)
(2.10685 1.55969 9.28702e-21)
(2.01182 1.42931 1.38371e-21)
(1.73475 0.774531 5.63322e-22)
(1.8738 1.08187 5.17922e-21)
(1.80031 0.941105 -1.05608e-21)
(1.63567 0.388296 2.83819e-21)
(1.67973 0.589314 -2.84275e-21)
(1.59007 -0.0451561 5.22608e-23)
(1.6059 0.172967 0)
(1.6108 -0.473375 4.05351e-23)
(1.59228 -0.263703 0)
(1.69783 -0.844963 9.67183e-24)
(1.64686 -0.669523 0)
(1.83616 -1.12836 0)
(1.76226 -0.998272 0)
(1.99991 -1.32952 0)
(1.91657 -1.23795 0)
(2.17026 -1.46804 0)
(2.08486 -1.40577 0)
(2.3439 -1.5584 0)
(2.25671 -1.5179 0)
(2.52039 -1.62969 -4.01341e-23)
(2.43198 -1.5942 0)
(2.70134 -1.70291 -3.92277e-23)
(2.60989 -1.66656 0)
(2.89525 -1.75322 0)
(2.7963 -1.73387 0)
(3.10596 -1.72961 0)
(2.99865 -1.7539 0)
(3.32919 -1.5905 0)
(3.21674 -1.67567 0)
(3.54804 -1.32387 -1.12455e-22)
(3.44101 -1.47364 0)
(3.7285 -0.91092 1.15094e-22)
(3.64562 -1.13725 0)
(3.83651 -0.354353 0)
(3.79296 -0.646748 0)
(3.8574 0.261235 0)
(3.85833 -0.0470879 0)
(3.78805 0.834962 1.89612e-23)
(3.83352 0.558927 0)
(3.64284 1.28501 2.23465e-22)
(3.72392 1.07994 0)
(3.44912 1.56381 0)
(3.54969 1.44621 0)
(3.24132 1.68567 0)
(3.34548 1.64164 0)
(3.03821 1.69881 8.47785e-24)
(3.13851 1.70209 0)
(2.85153 1.65946 0)
(2.94173 1.68262 0)
(2.68661 1.6153 -1.04945e-20)
(2.76606 1.63559 0)
(2.53025 1.59537 -9.47105e-21)
(2.60662 1.60384 1.96533e-20)
(2.43722 1.86339 1.05694e-19)
(2.45565 1.80644 8.65794e-20)
(2.43867 1.6654 9.8463e-21)
(2.45183 1.59023 -9.83909e-21)
(2.41694 2.0154 0)
(2.93472 1.55588 -8.45417e-21)
(1.95179 1.19955 1.81359e-20)
(2.55658 1.70264 -1.5746e-20)
(2.51438 2.021 0)
(2.5053 1.7771 -6.17876e-21)
(2.40013 1.94302 0)
(2.53916 1.96578 0)
(2.43265 1.8998 0)
(2.54619 1.9102 0)
(2.52214 1.85567 0)
(2.48192 1.80032 3.15671e-21)
(2.428 1.73685 9.14866e-21)
(2.35749 1.66009 0)
(2.36873 1.58107 1.7639e-20)
(2.46585 2.03182 0)
(2.48337 1.59296 -3.64123e-20)
(2.63699 1.74511 -7.46687e-20)
(2.63966 1.65169 -4.01531e-20)
(2.56616 1.62054 4.06874e-20)
(2.32661 1.52878 -2.57633e-21)
(2.40294 1.55799 1.22881e-20)
(2.15302 1.50668 -5.94459e-21)
(2.24165 1.51661 5.1507e-24)
(1.95987 1.45087 -2.11738e-23)
(2.05852 1.48736 0)
(1.7636 1.32466 -2.4297e-23)
(1.86202 1.39672 0)
(1.55884 1.11297 0)
(1.66278 1.23125 0)
(1.36749 0.793862 0)
(1.45778 0.967768 0)
(1.24074 0.362726 0)
(1.29429 0.59057 0)
(1.19892 -0.133271 0)
(1.20877 0.117966 0)
(1.24541 -0.622309 0)
(1.21126 -0.382763 0)
(1.37087 -1.04315 0)
(1.29942 -0.844233 0)
(1.55163 -1.35625 0)
(1.45611 -1.2143 0)
(1.75751 -1.55656 0)
(1.65329 -1.46949 0)
(1.96176 -1.67065 4.30243e-24)
(1.86117 -1.62193 0)
(2.14889 -1.73676 -2.54057e-23)
(2.05788 -1.70749 0)
(2.31777 -1.781 0)
(2.2353 -1.76092 0)
(2.47563 -1.80479 5.20928e-23)
(2.39757 -1.79619 0)
(2.63113 -1.78888 0)
(2.55323 -1.80365 0)
(2.79014 -1.69795 0)
(2.7101 -1.75548 0)
(2.95085 -1.48786 0)
(2.87091 -1.61027 0)
(3.09955 -1.13093 0)
(3.02784 -1.32812 0)
(3.21639 -0.641184 0)
(3.16319 -0.899935 0)
(3.28313 -0.0759337 -1.20818e-22)
(3.25703 -0.363045 0)
(3.29052 0.483557 -1.03981e-23)
(3.29434 0.210042 0)
(3.23936 0.952465 -6.71603e-21)
(3.27188 0.733862 0)
(3.13674 1.28624 0)
(3.19316 1.13718 1.48943e-20)
(3.00524 1.48953 9.07615e-21)
(3.07384 1.40197 0)
(2.80034 1.67882 9.00692e-21)