/*--------------------------------*- C++ -*----------------------------------*\
  =========                 |
  \\      /  F ield         | OpenFOAM: The Open Source CFD Toolbox
   \\    /   O peration     | Website:  https://openfoam.org
    \\  /    A nd           | Version:  10
     \\/     M anipulation  |
\*---------------------------------------------------------------------------*/
FoamFile
{
    format      ascii;
    class       volScalarField;
    location    "21.5";
    object      p;
}
// * * * * * * * * * * * * * * * * * * * * * * * * * * * * * * * * * * * * * //

dimensions      [0 2 -2 0 0 0 0];

internalField   nonuniform List<scalar> 
6397
(
5.26803
5.1907
-3.41934
-3.82806
-4.98479
-4.71391
8.44204
5.5424
-7.8346
-5.64152
2.93454
-0.97358
-0.244587
-0.185462
-0.244369
-20.3331
-18.0439
-18.8284
11.9612
12.1554
11.3149
-3.75034
-4.67199
-3.6086
-0.135573
-0.0983696
-0.050495
-1.74404
-2.03234
-1.63554
-1.63703
-2.79614
-2.83349
-3.98217
-0.228897
-0.51842
-1.4738
-1.65728
1.02533
1.17165
0.662904
0.432737
-1.65302
-4.69287
-3.96672
-4.21822
-5.22138
-4.66824
1.55233
1.52283
1.56769
1.46658
1.51308
3.39546
2.68239
3.74989
3.78113
2.46613
-3.73914
-3.93242
-3.35545
-2.8613
-2.38781
-2.01814
-1.8104
-1.76282
-1.85521
-2.10241
-4.80524
-3.71785
-4.65972
-4.55583
-4.01018
-3.33942
-2.68111
-2.14031
-1.78014
-1.5888
-1.54296
-1.61694
-4.20127
-3.35405
-2.52225
-1.8217
-3.55575
-2.88436
-3.10255
-2.12289
-2.85637
-2.42485
-3.73449
-2.4871
-2.23428
-1.72862
-4.23775
-2.76503
-3.05666
-1.59038
-2.26081
-4.72352
-3.93409
-5.36145
-5.26189
-4.33471
-5.02689
-2.69561
-3.49738
-1.54674
-2.02642
-1.08683
-1.24828
-1.07682
-1.03621
-1.37092
-1.20775
-1.50529
-4.0388
-5.75006
-5.00946
-2.4786
-3.15147
-1.77714
-2.02928
-1.72936
-1.67567
-2.20619
-1.91665
-2.72499
-2.49867
-2.6713
-2.74233
-2.1281
-2.41368
-1.70038
-1.85686
-1.33804
-1.53829
-1.06673
-1.54021
-2.85819
-7.06948
-5.992
-7.41868
-1.49281
-0.525662
-0.516155
-1.66886
-1.34513
-0.735903
-1.90601
-4.40047
-2.97763
-2.07486
-4.82785
-3.9549
-5.49035
-5.40516
-4.29899
-5.095
-2.433
-3.34274
-1.13833
-1.68864
-0.548032
-0.77471
-0.394348
-0.427837
-0.463565
-0.420699
-0.503868
-4.80942
-6.06407
-2.72015
-3.63636
-1.65233
-2.07678
-1.31403
-1.41379
-1.46634
-1.35779
-1.71476
-1.63091
-1.65333
-1.74305
-1.38391
-1.52666
-1.34268
-1.31357
-1.47422
-1.02871
-1.37325
-0.281468
-0.644366
-6.94422
-5.63858
-2.7445
0.214896
0.203977
-0.495389
-1.37022
-7.86752
-5.89158
-6.54766
-1.71891
-2.21298
0.0641443
0.0731236
0.421391
-2.13589
-1.67538
-4.17065
-1.00235
-0.398312
-2.66182
-1.74659
-4.51235
-3.6302
-5.14697
-5.07822
-3.95115
-4.74587
-2.03176
-2.97866
-0.684403
-1.26053
-0.0433458
-0.297322
0.178473
0.0986576
0.22379
0.206943
0.221315
-7.97432
-8.41483
-5.25388
-6.76275
-2.74967
-3.85602
-1.42152
-1.96736
-0.862015
-1.0723
-0.762778
-0.773429
-0.820609
-0.79623
-0.778407
-0.816474
-0.724581
-0.739728
-1.00568
-0.817525
-1.29437
-0.801747
-1.25784
-0.343959
0.185304
-4.8667
-2.46738
-4.98174
-4.65485
-0.502589
-1.25306
0.316836
0.676342
-1.87351
-2.56715
-1.59104
-2.27374
0.392607
0.713593
0.12134
-0.0102701
-0.582105
-2.68784
-3.67399
-0.593325
-0.0300227
-2.13335
-1.28986
-3.85025
-3.04435
-4.40484
-4.35509
-3.26733
-3.99406
-1.51239
-2.37996
-0.247221
-0.790664
0.385112
0.132037
0.631459
0.539853
0.709671
0.681964
0.725161
0.722654
0.691623
0.722215
0.489285
0.617159
-8.10122
-4.94583
-6.69246
-8.18417
-8.6751
-5.21136
-6.85628
-2.52173
-3.71432
-1.0671
-1.66927
-0.388777
-0.659656
-0.136003
-0.22743
-0.0529006
-0.0854037
-0.0224333
-0.0341613
-0.143997
-0.0473008
-0.625325
-0.326394
-1.04067
-0.653641
-1.23158
-0.130791
-3.59612
-3.35196
-0.233747
0.297313
-3.9777
-2.14982
0.953019
-3.23957
-1.38487
-2.19978
-3.55051
-1.22028
-2.15695
-2.57033
-0.779863
-0.564949
0.0221602
-3.03026
-3.09256
0.679685
1.16207
0.956955
-0.163364
0.320735
-1.48644
-0.757696
-2.94021
-2.24893
-3.40109
-3.36712
-2.39268
-3.02822
-0.894205
-1.63075
0.187545
-0.281431
0.743455
0.516655
0.976055
0.884568
1.06146
1.02958
1.09944
1.08307
1.05824
1.08862
0.887373
0.99103
0.485091
0.727
-4.43232
-1.61065
-2.85062
-7.47206
-6.11009
-7.54081
-8.03357
-4.66075
-6.25595
-2.05602
-3.20746
-0.631006
-1.22595
0.0799996
-0.213753
0.402199
0.274473
0.554349
0.489627
0.58803
0.587233
0.395359
0.527361
-0.210526
0.15324
-0.719544
-1.36493
-0.763485
-0.387282
0.16067
-3.74111
-3.1082
-3.6813
-4.32275
-2.04017
-2.86254
-0.543617
-1.24002
0.513619
0.039089
1.15187
0.882999
1.3304
-3.18816
-1.92103
-2.73857
-1.33322
-1.89601
-1.12028
-0.219994
-0.866316
-1.03761
-0.258117
-0.978749
1.31299
1.43896
-2.61435
0.919836
1.14554
0.240406
0.625477
-0.817417
-0.245398
-1.91537
-1.3977
-2.25698
-2.19542
-1.48496
-1.97842
-0.290282
-0.877998
0.579176
0.200247
1.02712
0.842513
1.22165
1.14076
1.30318
1.26914
1.33895
1.32482
1.32364
1.33992
1.19578
1.27652
0.903992
1.07336
0.407001
0.690865
-0.919878
0.418083
-0.120694
-3.41781
-2.0375
-6.05839
-4.87748
-6.19923
-6.58537
-3.69486
-5.07125
-1.43993
-2.43889
-0.170959
-0.707256
0.497999
0.216503
0.832208
0.693782
1.00754
0.929765
1.05737
1.0541
0.839447
0.991744
0.204771
0.580102
-1.07614
-0.347356
-2.95805
-1.9575
-3.90469
-4.01927
-5.24196
-4.77873
-2.12799
-3.09034
-0.440218
-1.22063
0.672773
0.187839
1.28649
1.03182
0.125614
0.765985
-0.831929
0.0225155
1.52936
1.44234
-2.65012
-1.87478
-2.24407
-1.62236
-1.49736
-1.65275
-0.576554
-1.73307
0.96737
0.332503
-1.82083
-0.471277
-1.61961
1.39622
1.04054
1.45255
-1.0082
0.420737
0.197257
1.56068
1.57634
1.57838
-2.34959
1.40863
1.48842
1.09795
1.26995
0.573344
0.86569
-0.189953
0.220023
-0.969321
-0.602478
-1.20117
-1.17432
-0.653426
-1.00347
0.220672
-0.215233
0.881985
0.591205
1.22803
1.08448
1.38147
1.31527
1.46394
1.42294
1.53358
1.49723
1.55119
1.55454
1.43524
1.50867
1.18998
1.32781
0.8362
1.02424
0.643052
0.952261
1.23853
-0.155299
0.505016
-2.15902
-1.0705
-4.26658
-3.32327
-4.42902
-4.68908
-2.51205
-3.57877
-0.742473
-1.52865
0.269827
-0.162783
0.843718
0.595195
1.15255
1.02218
1.32695
1.24763
1.39087
1.37809
1.18875
1.33119
0.565797
0.935954
-0.692514
0.0216626
-2.55985
-1.56924
-3.49093
-5.55866
-5.5486
-4.24929
-5.07272
-2.17473
-3.22743
-0.359721
-1.19694
0.804269
0.308049
1.38948
1.15598
1.5143
-2.39332
-2.03986
-2.02615
-2.12165
-1.30847
-2.44709
-0.433122
-2.76553
0.426825
-2.9364
1.44211
1.02372
-2.5241
0.0468898
-1.40283
1.77048
1.42798
1.73459
0.124384
0.98503
1.14607
1.60267
1.59717
1.54729
1.56093
-2.32581
1.45036
1.51409
1.21835
1.34668
0.845241
1.04903
0.331476
0.598025
-0.1753
0.0524189
-0.334409
-0.324923
0.0220216
-0.214036
0.613514
0.310974
1.09015
0.87522
1.35445
1.24293
1.48054
1.42505
1.56596
1.52168
1.63484
1.60243
1.62632
1.64443
1.51946
1.5812
1.37957
1.44643
1.22576
1.30647
1.01325
1.11827
0.95027
1.683
1.73789
1.34886
1.56657
0.506416
0.999939
-0.931372
-0.152972
-2.37534
-1.72223
-2.57349
-2.70425
-1.30397
-2.0282
-0.0533165
-0.616615
0.684147
0.366395
1.12529
0.92814
1.38753
1.27475
1.53888
1.4711
1.6047
1.59247
1.43665
1.56017
0.876563
1.21507
-0.255706
0.390196
-1.90865
-1.04605
-2.76406
-4.97108
-3.98099
-5.52969
-5.52029
-4.23584
-5.05773
-2.16043
-3.21221
-0.328188
-1.17787
0.868767
0.357981
1.44351
1.22399
1.5234
-2.38561
-2.43401
-2.02004
-2.90928
-1.28995
-3.58275
-0.407296
-4.16898
0.437166
-4.19052
0.97857
-3.22924
1.67669
1.39214
-1.3969
1.46226
0.537412
1.53762
-2.53769
1.528
1.5096
1.54324
1.45453
1.51107
1.28695
1.38398
1.03371
1.17285
0.706497
0.869627
0.428587
0.539214
0.319514
0.330916
0.507323
0.37055
0.889043
0.687135
1.22155
1.06988
1.42142
1.33726
1.53112
1.48411
1.60831
1.57323
1.65729
1.6395
1.65421
1.66223
1.62373
1.641
1.56632
1.59978
1.46468
1.51847
1.39627
1.41465
1.51554
1.43395
1.86796
1.65591
1.88185
1.77501
1.84477
1.85801
1.89312
1.62778
1.77878
1.03683
1.38215
0.145778
0.60412
-0.682017
-0.2937
-0.930349
-0.934714
-0.249036
-0.661671
0.537197
0.171148
1.04463
0.823493
1.35955
1.21693
1.56421
1.47546
1.67811
1.63054
1.72782
1.72094
1.59796
1.70031
1.13207
1.4211
0.209052
0.73464
-1.17187
-0.447514
-2.42531
-1.8817
-2.72359
-4.56922
-2.56292
-3.71147
-5.05561
-5.02434
-3.933
-4.66403
-2.03977
-3.00847
-0.316572
-1.1222
0.854352
0.345691
1.42036
1.2073
1.57779
1.52684
1.52501
1.56646
1.58106
1.68163
1.84573
2.11792
-2.61017
-3.10353
-1.73607
-2.21
-4.06293
1.4774
1.46136
1.45001
-1.41173
-5.09701
-0.447735
-5.70639
0.410789
-5.13232
0.937244
-3.21478
1.31954
-0.796791
1.56954
1.44757
1.20682
2.19617
2.3175
-3.00431
1.48715
1.49741
1.43378
1.47323
1.32419
1.38366
1.15903
1.24309
0.955416
1.05496
0.779325
0.859027
0.74091
0.750324
0.827979
0.766808
1.05444
0.931235
1.29433
1.18376
1.45695
1.38821
1.56127
1.51543
1.64723
1.60707
1.71012
1.68289
1.73344
1.72945
1.69893
1.72434
1.62528
1.662
1.58651
1.59919
1.60766
1.58114
1.7589
1.66672
2.02605
1.88684
2.25589
2.15989
1.90875
1.73148
1.83489
1.99579
1.96331
1.97879
1.99481
1.82147
1.92556
1.42906
1.65195
0.983564
1.19032
0.564312
0.786815
0.266068
0.350347
0.554964
0.350397
1.00924
0.791039
1.33519
1.19114
1.54554
1.45072
1.69167
1.6282
1.7697
1.74085
1.79442
1.79419
1.69414
1.77319
1.33392
1.5581
0.620458
1.02226
-0.432412
0.104662
-1.41798
-0.982496
-1.68459
-2.09111
-1.14742
-3.70983
-3.0293
-4.21183
-4.12655
-3.37538
-3.94311
-1.80686
-2.6216
-0.307028
-1.0172
0.768015
0.29221
1.34144
1.11526
1.52503
1.46592
1.53051
1.43767
1.60273
2.40454
2.29049
-3.08057
-4.11264
1.41475
1.38713
-2.57223
-5.55988
-1.59381
-6.7443
-0.44995
-6.80488
0.397067
-5.15301
0.889667
-2.33201
1.18257
0.252702
1.2672
1.88575
1.47059
1.30048
2.42654
1.64522
1.5562
1.34179
0.145592
2.40818
2.25886
-3.7584
1.43798
1.44914
1.41134
1.43763
1.34597
1.3854
1.23618
1.29163
1.1037
1.16398
1.00985
1.04676
0.986847
0.991705
1.02551
0.998323
1.15665
1.08182
1.33
1.24585
1.46658
1.40639
1.56073
1.51797
1.63494
1.60221
1.68443
1.66634
1.70194
1.69713
1.70514
1.70465
1.7037
1.70497
1.69871
1.70155
1.71644
1.69863
1.83654
1.76169
2.03249
1.92619
2.15034
2.11154
2.08834
2.14177
1.82075
1.73155
1.96847
1.90603
2.04078
2.01526
2.04458
2.05522
1.94483
2.00824
1.72713
1.84396
1.55498
1.62583
1.33606
1.47097
1.06849
1.17126
1.12032
1.05497
1.328
1.2205
1.52926
1.43413
1.68019
1.61271
1.78305
1.73966
1.83025
1.81737
1.82982
1.83941
1.74277
1.80547
1.47797
1.64153
0.947261
1.24277
0.178421
0.570287
-0.531542
-0.225038
-0.789186
-0.715911
-0.705231
-1.30829
-0.554102
-2.6142
-2.01407
-3.19244
-3.03332
-2.68219
-3.06131
-1.53025
-2.1418
-0.324869
-0.909781
0.616263
0.190913
1.1771
0.94397
1.39526
1.32124
1.39777
1.42361
1.35588
1.37459
-3.76368
-5.4332
1.99117
2.17635
1.30188
1.26654
1.25008
1.93492
1.83135
-2.97964
-7.12968
-1.70646
-7.9206
-0.409305
-6.82397
0.402974
-4.02613
0.762566
-0.974754
0.99261
1.28885
1.06394
2.36615
1.44699
1.60159
1.53597
1.32672
1.16328
2.53746
1.207
1.21042
0.242023
1.15452
-4.78027
1.36435
1.32472
1.40009
1.37828
1.38504
1.39479
1.33685
1.36384
1.26583
1.30143
1.19271
1.22653
1.14393
1.16462
1.12966
1.13322
1.15056
1.13729
1.22965
1.18391
1.35349
1.29141
1.46748
1.41471
1.55671
1.51488
1.63413
1.59653
1.68553
1.66279
1.71281
1.70276
1.71265
1.71648
1.701
1.70494
1.71937
1.70578
1.77735
1.74276
1.87236
1.82187
1.98293
1.92648
2.02972
2.02146
2.00052
1.74195
1.67191
1.8894
1.81469
2.02104
1.96349
2.08583
2.06215
2.09007
2.09459
2.04416
2.07342
1.95613
2.00018
1.91063
1.92694
1.77759
1.86914
1.55704
1.65397
1.49998
1.49948
1.57408
1.53148
1.66899
1.62132
1.75665
1.71631
1.8244
1.79573
1.85706
1.85031
1.84739
1.85799
1.7609
1.81294
1.56481
1.68232
1.18515
1.39621
0.641818
0.922053
0.164695
0.366023
0.00294096
0.0162449
0.0553596
0.592944
0.932899
-0.44297
0.124224
-1.53859
-1.00976
-2.14841
-1.94097
-1.97716
-2.14632
-1.29145
-1.67852
-0.417018
-0.858471
0.364076
-0.000780871
0.916875
0.66813
1.22147
1.10235
1.32394
1.30088
1.26854
2.36822
1.12225
1.85335
1.69109
-4.48835
-6.79054
-3.2274
-8.22518
-1.61748
-7.96834
2.04887
-0.294939
-5.64805
0.322651
-2.46551
0.564363
0.259592
1.47742
1.65238
1.64266
1.44037
0.7747
2.03834
1.22926
0.857519
2.60359
1.07563
1.01837
2.55828
0.985722
1.33228
1.32294
1.66486
1.51709
1.40073
-5.8428
1.21956
1.06082
1.15703
1.2971
1.26302
1.33836
1.31584
1.34228
1.34394
1.32117
1.3362
1.28397
1.30561
1.24244
1.26269
1.21687
1.22706
1.21428
1.21298
1.23177
1.22095
1.28379
1.25377
1.37199
1.32618
1.46404
1.41951
1.54382
1.50535
1.60696
1.57782
1.6596
1.63705
1.69049
1.6769
1.70898
1.70146
1.71967
1.71468
1.7297
1.72459
1.76765
1.74159
1.84824
1.80594
1.91859
1.88701
1.91772
1.9304
1.80292
1.87572
1.56976
1.70067
1.30694
1.22741
1.41177
1.72706
1.68198
1.84325
1.78511
1.95614
1.89916
2.06017
2.01326
2.11323
2.09347
2.1287
2.12471
2.11818
2.12596
2.09955
2.10725
2.10145
2.10114
2.00669
2.07459
1.80446
1.91075
1.73272
1.75944
1.73955
1.72872
1.77868
1.75701
1.81837
1.79955
1.84817
1.83514
1.85902
1.85824
1.82136
1.84899
1.75607
1.79876
1.60412
1.69438
1.33324
1.48757
0.959213
1.15561
0.635749
0.779087
0.555681
0.554316
0.731008
0.620058
0.878126
1.01313
1.21013
0.313046
0.717664
-0.569128
-0.129961
-1.20507
-0.944283
-1.39174
-1.35209
-1.13066
-1.31072
-0.596777
-0.884349
0.0032254
-0.292195
0.527251
0.275888
0.926938
0.751362
1.14218
1.06105
1.12242
1.14589
1.05511
-4.96353
-7.71076
1.03383
1.18312
1.02024
-3.15872
-8.26954
2.28219
-1.35952
-6.7599
-0.257744
-3.8801
1.85245
1.65892
1.82224
1.87007
1.70152
0.0975947
-1.05741
1.4478
0.370605
1.18099
1.06844
1.41234
1.18317
0.528014
2.47394
0.971015
0.62221
2.70431
0.837195
1.02267
0.948355
0.93467
0.874979
1.24274
1.42072
0.851125
-6.55329
1.15043
1.09215
1.23682
1.19909
1.29014
1.26542
1.30669
1.30138
1.29794
1.30541
1.27892
1.28999
1.26304
1.27051
1.25614
1.25711
1.26148
1.25682
1.27899
1.2683
1.31873
1.29568
1.38544
1.35
1.46038
1.42328
1.53049
1.49612
1.59047
1.56182
1.63768
1.6164
1.66755
1.65436
1.6853
1.67786
1.70165
1.69256
1.72662
1.71334
1.7601
1.74217
1.80196
1.77997
1.83944
1.82434
1.81759
1.84161
1.69581
1.76998
1.47983
1.59775
1.34053
1.79092
1.79278
1.84123
1.81022
1.92005
1.87945
2.00297
1.96053
2.08532
2.04649
2.13649
2.11513
2.1553
2.14732
2.16364
2.15996
2.1745
2.16787
2.18568
2.18378
2.11529
2.16536
1.96784
2.045
1.87487
1.91497
1.83771
1.85013
1.83943
1.83419
1.85751
1.84676
1.86828
1.86331
1.85935
1.86573
1.81605
1.84246
1.74404
1.78641
1.61687
1.68885
1.41393
1.52479
1.15286
1.28671
0.933935
1.03753
0.886086
0.898674
1.01248
0.939134
1.11751
1.48573
1.47986
1.49172
1.35918
1.45603
0.881603
1.16938
0.204743
0.550809
-0.451736
-0.135895
-0.921777
-0.725872
-1.03664
-1.02039
-0.86215
-0.982271
-0.471634
-0.685838
0.0397888
-0.226689
0.546531
0.310755
0.870015
0.730952
0.928699
0.936034
0.902968
0.831973
0.861659
-4.8917
-7.72683
2.5297
-2.75885
-7.13498
1.92514
2.05634
2.11053
1.98
-1.12933
-4.85294
2.0973
1.76227
-0.403732
-2.17834
1.4954
-0.194299
0.0884165
0.804718
1.54777
1.19698
0.147689
1.8932
1.10908
0.885395
0.229113
2.76173
0.609674
0.340694
0.84168
1.46027
0.619659
0.70474
-6.52099
0.988289
0.835436
0.918265
1.0953
1.04372
1.18009
1.14074
1.23826
1.21291
1.26676
1.2547
1.27513
1.27339
1.27278
1.27572
1.27015
1.27133
1.27152
1.26906
1.28406
1.27621
1.30501
1.29274
1.33933
1.31965
1.39262
1.36408
1.45469
1.42356
1.51531
1.48542
1.56972
1.5435
1.6128
1.59274
1.64365
1.62965
1.66415
1.65512
1.68
1.6723
1.6983
1.68818
1.73025
1.71266
1.75919
1.74686
1.76622
1.76577
1.72942
1.75659
1.60941
1.67951
1.41445
1.51999
1.16134
1.29266
0.900245
1.02617
0.548208
0.672516
0.783308
1.95002
1.99913
1.90771
1.9182
1.93055
1.91412
1.98146
1.95382
2.04293
2.0112
2.10667
2.07556
2.14775
2.13058
2.17131
2.16077
2.18838
2.17986
2.20636
2.19683
2.21564
2.21485
2.15985
2.19847
2.04519
2.105
1.95141
1.99325
1.90452
1.92319
1.8856
1.89332
1.87711
1.88053
1.86718
1.87272
1.84526
1.85796
1.80117
1.82566
1.72829
1.76666
1.61602
1.6716
1.4539
1.53105
1.26271
1.35075
1.11164
1.17799
1.07069
1.08332
1.13942
1.10565
1.293
1.20611
1.38455
1.63739
1.6025
1.60062
1.64387
1.32715
1.49709
0.831494
1.10692
0.128733
0.495993
-0.538103
-0.225594
-1.01122
-0.80211
-1.20463
-1.1512
-1.04647
-1.16669
-0.578422
-0.84655
0.0443035
-0.262585
0.499615
0.297705
0.682832
0.6301
0.765892
0.723762
0.760398
0.774716
2.7866
-4.29618
-6.73348
0.744112
1.62603
2.15869
2.03234
-2.27908
-5.33152
0.561279
0.410872
2.39445
1.82473
-1.10814
-3.00408
0.407165
1.56064
-0.682133
-0.81323
0.522092
1.75465
1.23936
-0.523677
1.12526
0.770008
0.841145
-0.212883
2.4831
1.16016
0.375129
-0.0988235
3.04458
0.0328274
0.470543
0.58551
0.499405
2.21907
2.31889
-5.70569
0.818355
0.672397
0.748433
0.947909
0.887382
1.04935
1.00126
1.13226
1.09451
1.19322
1.16714
1.22848
1.21353
1.24632
1.23939
1.256
1.25207
1.26317
1.2601
1.2768
1.2699
1.29339
1.28405
1.31605
1.30307
1.3487
1.33036
1.39428
1.37003
1.44721
1.4206
1.49968
1.47388
1.54801
1.52474
1.58658
1.56859
1.61577
1.60225
1.63667
1.62716
1.65421
1.64572
1.67007
1.66223
1.68924
1.67896
1.70696
1.69939
1.70125
1.7083
1.65269
1.68343
1.53873
1.60464
1.36586
1.45883
1.15141
1.26218
0.940057
1.04168
0.761707
0.846798
0.67708
2.26246
2.40446
2.31655
2.16365
2.21599
2.05725
2.10695
2.00119
2.01947
2.00428
1.99751
2.03145
2.01471
2.07573
2.05157
2.1226
2.09957
2.15693
2.14157
2.17837
2.16805
2.19778
2.18817
2.2145
2.2067
2.21486
2.21876
2.16716
2.19778
2.08045
2.126
1.99868
2.03797
1.9405
1.96645
1.90485
1.92005
1.88404
1.89319
1.86389
1.87464
1.83271
1.85023
1.78364
1.81072
1.7093
1.74952
1.60477
1.65858
1.4685
1.53654
1.32102
1.39195
1.21204
1.25904
1.17875
1.18412
1.21787
1.18889
1.30906
1.25899
1.45365
1.37999
1.76802
1.70234
1.80513
1.80439
1.67428
1.77023
1.2773
1.51413
0.587505
0.959251
-0.238007
0.185255
-1.0546
-0.660913
-1.61572
-1.38452
-1.69723
-1.7234
-1.24996
-1.53269
-0.511652
-0.887761
0.0901098
-0.183042
0.446672
0.299147
0.64986
0.5581
0.684696
0.695681
0.670985
2.09901
-3.49008
-5.1864
0.422875
0.422421
0.461794
1.47167
0.599012
0.332877
2.76542
1.8826
-1.98757
-3.61453
0.240121
1.62842
-1.26949
-1.64319
0.247785
2.04128
1.2891
-1.08864
0.302014
0.422498
0.847561
-0.954557
2.11566
1.27732
0.71382
0.257874
-0.737877
2.99042
-0.226707
-0.466356
2.5431
2.35811
2.20205
-4.50979
0.789147
0.728034
0.909995
0.854297
1.00967
0.963588
1.09028
1.05323
1.15228
1.12454
1.1941
1.17561
1.22079
1.20906
1.23869
1.23023
1.2537
1.24596
1.27193
1.26208
1.29389
1.28218
1.31933
1.30566
1.35087
1.33387
1.391
1.36992
1.43701
1.41388
1.48332
1.46062
1.52598
1.50555
1.56088
1.54451
1.5877
1.57523
1.60745
1.59835
1.62328
1.61575
1.637
1.6303
1.6493
1.6435
1.65422
1.65322
1.63915
1.65009
1.58707
1.61873
1.48239
1.54159
1.32974
1.41106
1.15072
1.24184
0.979749
1.06294
0.821558
0.901118
0.664766
0.743959
0.341855
0.348002
0.54021
0.590418
2.34254
2.4875
2.39766
2.25259
2.29994
2.14539
2.19879
2.07736
2.10255
2.06472
2.06718
2.07358
2.06628
2.10264
2.0863
2.13522
2.11937
2.15799
2.14851
2.18023
2.17054
2.1968
2.18903
2.2067
2.20305
2.20078
2.20704
2.16114
2.18596
2.08985
2.12841
2.01305
2.04928
1.95602
1.98135
1.91722
1.93442
1.88686
1.90111
1.85653
1.87219
1.8182
1.839
1.76542
1.79347
1.6921
1.7304
1.59498
1.64562
1.47723
1.53916
1.35804
1.41983
1.27241
1.31301
1.24136
1.24836
1.26355
1.24136
1.32574
1.28562
1.42813
1.37454
1.68425
1.57411
1.8623
1.78223
1.95781
1.91887
1.94536
1.97718
1.64378
1.84144
0.959134
1.34432
-0.0375663
0.492583
-1.15647
-0.599066
-2.06303
-1.66082
-2.39877
-2.31949
-1.97927
-2.27765
-1.09302
-1.55791
-0.276412
-0.660104
0.278511
0.0392863
0.542936
0.440385
0.608024
0.591263
0.607683
0.327528
3.24499
1.94551
-2.85286
-3.77027
0.595819
2.61255
0.159195
1.69457
-1.95566
-2.44762
0.526037
0.346248
0.525325
0.0419393
2.64865
2.57533
2.42189
1.34802
-1.58484
-0.704836
0.0814289
0.908922
-1.66196
1.34433
1.44585
0.292507
0.314953
-1.54245
3.07676
0.769124
-0.362914
-1.42837
3.23406
0.195232
0.171997
-0.93671
0.157983
2.22076
2.048
-3.48235
0.763126
0.689806
0.878378
0.826434
0.974489
0.929342
1.05337
1.01621
1.1155
1.08648
1.16129
1.14004
1.19424
1.17889
1.21957
1.20734
1.24166
1.23052
1.26404
1.25248
1.28841
1.27584
1.31571
1.3015
1.34762
1.33104
1.38472
1.36563
1.42523
1.40501
1.46597
1.44593
1.50371
1.48569
1.53507
1.52027
1.55938
1.54813
1.57728
1.56895
1.59089
1.5846
1.60079
1.59626
1.60746
1.60461
1.60569
1.6083
1.58285
1.59746
1.53013
1.56079
1.43626
1.48865
1.30341
1.37341
1.15679
1.22991
1.01724
1.08546
0.876846
0.948547
0.743728
0.808351
0.639601
0.681465
2.75487
2.70983
2.79399
2.55648
2.66767
2.41215
2.47067
2.3217
2.3671
2.21566
2.26878
2.14121
2.17133
2.11483
2.12436
2.11006
2.10978
2.1246
2.11553
2.14559
2.13521
2.16226
2.15463
2.17696
2.17016
2.18816
2.18316
2.19278
2.19179
2.18247
2.19061
2.14428
2.16726
2.08324
2.11566
2.01827
2.04986
1.96345
1.98895
1.91915
1.93955
1.88201
1.8996
1.84578
1.86428
1.80302
1.82571
1.74807
1.77725
1.67661
1.71439
1.58718
1.63461
1.48526
1.53927
1.38655
1.43724
1.31347
1.34688
1.27985
1.2893
1.28607
1.27534
1.32833
1.30166
1.38708
1.35731
1.39714
1.39636
1.69157
1.46273
1.55846
1.9149
1.81084
2.09823
2.01031
2.1514
2.15596
1.88863
2.06607
1.21227
1.60597
0.0933712
0.700038
-1.27195
-0.57821
-2.48191
-1.92841
-3.03161
-2.86785
-2.64518
-2.94705
-1.62945
-2.17798
-0.57171
-1.07944
0.161312
-0.147806
0.453959
0.352015
0.526741
0.499273
0.531138
0.538825
0.52459
0.16865
1.76618
-2.55679
-2.86995
0.590605
0.638625
1.39552
-0.0616636
-0.055681
-0.0354587
2.85011
2.79721
3.16331
1.4238
-2.1357
-1.74686
-0.193326
1.0046
-2.17536
0.097387
1.67711
-0.0613474
-0.140529
0.460168
-2.40918
2.36977
0.182797
-0.361576
-2.34017
4.13718
0.763801
-1.50058
-2.24393
0.390636
2.0489
2.45703
2.31333
0.206031
1.87125
-2.89017
0.731193
0.660586
0.847992
0.795727
0.940791
0.896687
1.01921
0.982269
1.08237
1.05279
1.13147
1.1085
1.16906
1.15134
1.19961
1.18481
1.22663
1.21307
1.25332
1.23967
1.28072
1.26684
1.30923
1.29474
1.34045
1.32445
1.37519
1.35749
1.41203
1.39372
1.44827
1.43051
1.48143
1.46556
1.50921
1.49608
1.53097
1.52089
1.54668
1.53945
1.55781
1.55277
1.56435
1.56168
1.56586
1.56576
1.55874
1.56392
1.53267
1.54856
1.48104
1.5103
1.39739
1.44349
1.28334
1.34309
1.16139
1.22175
1.04346
1.10248
0.923991
0.98277
0.815554
0.86748
0.73879
0.768757
0.660096
0.752099
0.734225
0.545056
2.90829
2.88498
2.82592
2.94656
2.92873
2.61485
2.71379
2.47167
2.53373
2.37523
2.42235
2.2731
2.32452
2.19428
2.22819
2.15711
2.17188
2.14071
2.14687
2.14223
2.13935
2.15331
2.14774
2.16181
2.15791
2.17027
2.16615
2.17654
2.17411
2.17507
2.17731
2.15964
2.16972
2.12445
2.1447
2.07215
2.09979
2.01328
2.04213
1.95974
1.98501
1.91447
1.93589
1.87434
1.89403
1.83428
1.8548
1.78846
1.81226
1.73239
1.76169
1.66296
1.69958
1.58061
1.62434
1.49113
1.53811
1.40594
1.44858
1.34
1.36935
1.30235
1.31549
1.29583
1.29431
1.31584
1.3045
1.3426
1.3306
1.34159
1.34404
1.33228
1.46969
1.31769
1.39525
1.68661
1.56128
1.95627
1.82069
2.18525
2.07978
2.27882
2.25664
2.08777
2.23225
1.40306
1.81576
0.188067
0.851716
-1.35747
-0.564045
-2.80653
-2.13005
-3.53381
-3.29974
-3.15233
-3.47436
-1.99807
-2.62736
-0.760503
-1.35071
0.0544287
-0.279948
0.366927
0.258013
0.447772
0.418402
0.462647
0.461852
0.465765
0.462332
-0.05789
2.7277
2.1434
2.51155
2.62684
2.71622
1.85108
1.51752
-2.59137
-2.40309
-0.342749
1.08433
-2.62441
-1.26403
0.69956
0.785228
2.27179
-0.00398002
0.460642
0.297751
2.85496
2.96272
1.29762
1.24603
1.21875
0.467883
0.410416
0.414282
-0.495964
0.578976
-3.17597
0.739508
-0.341364
-0.342771
-0.389295
-0.270269
-3.53995
3.24211
0.87479
0.0702455
1.91043
2.34919
-1.803
-3.44607
4.76114
-3.02199
1.64501
-2.69488
0.584905
0.52557
0.705886
0.645108
0.818292
0.765575
0.909974
0.866286
0.987888
0.950822
1.05219
1.02183
1.10396
1.07942
1.14556
1.12573
1.18042
1.16358
1.21118
1.19596
1.24071
1.22583
1.27023
1.25532
1.30037
1.28518
1.33149
1.31578
1.36416
1.34773
1.39754
1.38096
1.43006
1.41414
1.45945
1.44529
1.484
1.47244
1.5029
1.49419
1.51632
1.51023
1.52487
1.52117
1.52826
1.52723
1.5262
1.52794
1.51483
1.52218
1.48699
1.50312
1.43868
1.46573
1.36442
1.40484
1.26791
1.31803
1.16653
1.21686
1.06483
1.11625
0.965059
1.01336
0.880085
0.920734
0.824464
0.845446
0.831992
0.819583
0.59307
3.03965
2.98726
3.01352
3.05751
3.05908
3.06793
3.06202
2.66339
2.75331
2.52374
2.58693
2.42043
2.47023
2.31981
2.37002
2.2381
2.27451
2.19221
2.21166
2.16578
2.17714
2.15651
2.1591
2.15764
2.15674
2.15929
2.15849
2.16182
2.16077
2.16199
2.16255
2.15503
2.15979
2.13721
2.14789
2.10365
2.12252
2.05602
2.08093
2.00245
2.02883
1.95222
1.97634
1.90694
1.92898
1.86462
1.88572
1.82179
1.84369
1.77403
1.79864
1.7177
1.74689
1.6509
1.68592
1.57486
1.61474
1.49426
1.53573
1.41772
1.45518
1.35537
1.38364
1.31428
1.33118
1.29735
1.30317
1.29851
1.29669
1.30394
1.30093
1.28963
1.29986
1.27077
1.48091
1.38896
1.69846
1.581
1.98467
1.83501
2.25019
2.12558
2.37847
2.34024
2.19327
2.33775
1.50611
1.92177
0.261361
0.946653
-1.36758
-0.526966
-2.93186
-2.19529
-3.76259
-3.47935
-3.41502
-3.73817
-2.21148
-2.87054
-0.911447
-1.52778
-0.0683025
-0.414491
0.282804
0.152956
0.377134
0.347341
0.396801
0.390366
0.403802
-0.36394
2.94227
1.5702
1.17329
-3.01651
-2.2709
0.858632
1.93217
0.113135
3.07164
1.18441
1.15151
0.465149
0.4133
-0.705824
0.665665
-3.69492
-1.11983
-0.328111
-0.882979
-0.072444
-4.87789
0.97768
-0.730766
-0.70098
0.844353
-0.671899
1.59272
2.13413
-1.54407
-5.49482
3.55546
-0.0533944
-3.39875
-4.94065
2.8816
2.80034
1.33221
-2.92173
0.57483
0.519251
0.68661
0.631284
0.791445
0.740259
0.881968
0.838484
0.95942
0.922292
1.0247
0.9936
1.0786
1.05292
1.12326
1.10186
1.16146
1.14303
1.19563
1.17887
1.2278
1.2118
1.25889
1.24335
1.28971
1.27426
1.32059
1.30511
1.35195
1.33628
1.3827
1.36753
1.41175
1.39757
1.43763
1.42519
1.45914
1.44906
1.47527
1.46789
1.48632
1.48139
1.49237
1.48997
1.49299
1.49334
1.48828
1.49133
1.47442
1.48294
1.44608
1.46204
1.4016
1.42616
1.33608
1.37142
1.25488
1.29658
1.17055
1.21273
1.08349
1.12751
1.00142
1.04062
0.935762
0.9665
0.896172
0.911282
0.902414
0.893261
0.897704
0.95807
0.92535
0.754152
0.830569
0.543745
0.658135
2.95281
0.256004
0.409822
3.21355
3.22198
3.21567
3.19882
3.20939
3.18523
3.19104
3.07724
3.17779
3.18054
2.88116
2.97781
2.70519
2.78957
2.56753
2.63158
2.45855
2.51128
2.35745
2.40713
2.27452
2.31243
2.22089
2.24462
2.1863
2.20178
2.16714
2.17491
2.15972
2.16263
2.15489
2.15733
2.15074
2.15259
2.14597
2.1488
2.13524
2.14172
2.11472
2.1264
2.08186
2.09979
2.03874
2.06093
1.9895
2.01388
1.94176
1.9652
1.89673
1.91898
1.8535
1.87517
1.80908
1.8316
1.76019
1.78526
1.70407
1.73309
1.63986
1.67331
1.56879
1.60555
1.49455
1.53206
1.42384
1.45826
1.36362
1.39171
1.3194
1.33932
1.29253
1.30444
1.27864
1.28443
1.26861
1.27326
1.2396
1.25779
1.21448
1.27065
1.11447
1.18592
1.48328
1.3721
1.72261
1.60006
2.00792
1.86181
2.26988
2.14755
2.39876
2.35668
2.24805
2.37492
1.57129
1.98361
0.327255
1.01301
-1.29402
-0.457571
-2.86404
-2.12231
-3.71241
-3.42073
-3.36927
-3.70593
-2.22072
-2.84068
-0.987234
-1.57389
-0.169326
-0.511822
0.201406
0.0566451
0.30997
0.274259
0.337958
0.32655
0.359878
0.350423
0.362451
0.363945
-0.770419
3.22502
1.17439
0.774716
-4.07499
-2.70454
-0.253594
-1.19629
0.124926
-5.83806
-1.63441
-0.665963
0.945446
0.998523
3.08557
3.17971
0.676376
1.06558
1.04826
0.996051
0.357015
0.314331
0.308654
-1.37454
2.6881
-0.946509
-7.77268
0.527068
-1.2389
-1.1763
-1.00988
-0.2585
-3.22703
-8.29902
2.39586
1.17634
1.80102
-6.62849
0.0780448
0.41549
0.278802
3.22061
3.21427
0.926835
-3.81663
-0.108739
0.458879
0.407963
0.562711
0.510406
0.668018
0.615753
0.767365
0.718991
0.85639
0.813278
0.933588
0.89642
0.999635
0.967949
1.05543
1.02869
1.10265
1.07991
1.14354
1.12374
1.18023
1.16228
1.21441
1.19752
1.24701
1.23083
1.27845
1.26283
1.30887
1.29375
1.33868
1.32386
1.36726
1.35322
1.39358
1.38078
1.41638
1.40548
1.43481
1.42623
1.44823
1.44213
1.45693
1.45315
1.46058
1.45942
1.45876
1.46027
1.45201
1.45607
1.43666
1.44572
1.40932
1.42445
1.36879
1.3909
1.31185
1.34229
1.24366
1.27842
1.17293
1.20852
1.10008
1.13655
1.03363
1.06529
0.983125
1.00608
0.957303
0.966187
0.965932
0.956235
1.01279
0.984874
0.81692
0.885364
0.642462
0.736633
0.534502
3.43797
3.52217
3.4776
3.37305
3.4027
3.328
3.34801
3.29503
3.31173
3.27527
3.28365
2.90563
2.99276
2.74244
2.82185
2.60477
2.67034
2.49029
2.5455
2.38883
2.43808
2.30439
2.34386
2.24424
2.2715
2.2024
2.2216
2.17484
2.18687
2.15962
2.16625
2.14816
2.15377
2.13863
2.14308
2.12955
2.13447
2.11511
2.12329
2.09262
2.10489
2.06076
2.07784
2.01945
2.04103
1.97471
1.99738
1.92935
1.95191
1.88525
1.90725
1.84171
1.86357
1.79645
1.81935
1.74696
1.77224
1.6914
1.72006
1.62943
1.66144
1.56228
1.59662
1.49277
1.52756
1.42586
1.45859
1.36663
1.39495
1.31914
1.34146
1.28403
1.30033
1.25841
1.27025
1.23246
1.24596
1.19331
1.21679
1.13079
1.16434
1.09226
1.23457
1.14681
1.4612
1.34012
1.72419
1.59144
1.99797
1.86029
2.2529
2.13197
2.39222
2.34629
2.20934
2.35569
1.54089
1.93955
0.369475
1.01186
-1.12633
-0.357531
-2.55879
-1.88212
-3.35367
-3.0739
-3.08513
-3.35423
-2.06305
-2.62429
-0.947059
-1.47902
-0.197942
-0.513634
0.151744
0.0116142
0.259481
0.219505
0.294914
0.280622
0.31598
0.308112
0.317956
-1.29629
3.58644
0.690304
0.230938
-6.27637
-4.04886
-0.575606
0.12183
-0.141513
1.04719
3.27014
0.127906
0.990487
0.936601
0.349563
0.302344
-1.84005
3.208
-0.561644
-9.44316
-2.97389
-1.12371
-1.92802
-0.516458
-2.52616
-11.5014
-0.513878
2.48608
-1.32633
-7.14776
-10.8146
-0.0526707
-1.88747
3.79236
3.90536
-1.98972
0.383808
0.28547
0.37701
-5.76871
-0.391485
0.449666
0.399738
0.5493
0.499339
0.650184
0.599965
0.746102
0.699091
0.833246
0.79084
0.910133
0.872972
0.976762
0.944646
1.03411
1.00648
1.08349
1.05962
1.12667
1.10571
1.16546
1.14652
1.2012
1.18364
1.23482
1.21823
1.26666
1.25095
1.29678
1.28191
1.32524
1.31122
1.35166
1.33875
1.37527
1.36388
1.39548
1.38587
1.41121
1.40395
1.42198
1.41717
1.42819
1.42563
1.42961
1.42953
1.4259
1.4283
1.41752
1.42238
1.40131
1.41057
1.37559
1.38958
1.3392
1.35887
1.29056
1.31626
1.23393
1.26275
1.17449
1.20452
1.11441
1.14408
1.06192
1.0868
1.02417
1.04073
1.00943
1.01358
1.02024
1.01122
1.06157
1.03727
1.08657
1.12736
1.0921
0.999685
1.04513
0.891875
0.94913
0.751397
0.825554
0.583156
0.670067
0.485763
3.62943
3.70175
3.51893
3.56899
3.44574
3.47815
3.39662
3.41934