/*--------------------------------*- C++ -*----------------------------------*\
  =========                 |
  \\      /  F ield         | OpenFOAM: The Open Source CFD Toolbox
   \\    /   O peration     | Website:  https://openfoam.org
    \\  /    A nd           | Version:  10
     \\/     M anipulation  |
\*---------------------------------------------------------------------------*/
FoamFile
{
    format      ascii;
    class       surfaceScalarField;
    location    "21.5";
    object      phi;
}
// * * * * * * * * * * * * * * * * * * * * * * * * * * * * * * * * * * * * * //

dimensions      [0 3 -1 0 0 0 0];

internalField   nonuniform List<scalar> 
12623
(
0.380702
0.0913598
-0.148257
-0.323804
0.292595
-0.119077
0.207184
0.430612
-0.133715
-0.397433
0.100535
-0.104892
0.443334
0.0921707
-0.391262
0.0619755
-0.0575379
0.386825
-0.380113
-0.116042
-0.0147182
0.170205
-0.194364
0.0388776
-0.215744
0.201026
0.140609
-0.0173273
-0.123281
0.128586
0.012925
-0.000902509
0.430757
-0.186939
-0.243818
-0.277892
0.223497
0.485152
-0.204893
-0.147808
0.150145
0.202556
0.0192221
0.0332969
-0.257412
-0.1945
0.065914
0.105177
0.038304
-0.127227
-0.0162539
0.0104697
-0.113306
0.208013
0.0126184
0.0361553
-0.0169261
-0.0448816
0.0206027
0.041205
-0.0933689
0.00929924
0.0671436
-0.0737596
-0.0644909
-0.0282415
-0.0143401
-0.0102989
0.0528805
-0.0073471
-0.0593022
0.0384078
-0.0477711
0.0260839
-0.272965
0.0250786
0.281183
0.0403494
-0.304409
-0.00890468
-0.310747
0.0236049
0.312221
-0.20746
0.195172
-0.19944
0.211729
-0.20279
-0.19656
0.191889
-0.204295
0.207404
-0.185064
0.181955
-0.203221
0.194098
-0.481016
0.0487784
-0.0276515
0.459889
-0.0681848
-0.464376
0.0515448
0.437125
-0.491537
0.00572446
0.0180575
0.467755
-0.0139534
-0.486432
0.00884778
-0.508042
0.00832834
0.48576
-0.484799
0.025536
0.423996
-0.0238664
-0.456096
0.0559657
0.00206107
0.0579263
0.364009
-0.46594
0.00607989
0.435993
-0.474662
0.014447
0.18201
-0.17833
0.203724
-0.282399
0.155478
-0.153811
0.280732
-0.183559
-0.266073
0.167234
-0.144846
-0.368981
-0.332285
-0.109337
0.32558
-0.321654
-0.0517487
-0.297543
0.0426233
0.306669
0.22777
0.0316385
-0.311157
-0.242825
0.087855
0.38274
-0.0856782
0.362588
-0.301738
0.0248287
-0.296865
0.307685
0.0729843
-0.0799747
-0.300695
0.0643774
0.287384
-0.0440758
-0.0283151
0.0171396
0.314326
-0.30315
-0.32529
0.322563
-0.0255888
0.318209
-0.0362973
0.0409519
-0.322863
0.215514
-0.231029
0.0894052
-0.073891
0.0205719
0.205591
-0.0106487
-0.249287
0.145073
-0.126815
-0.259894
0.182052
-0.171444
-0.270838
0.202512
-0.191568
-0.272824
0.212338
-0.210352
-0.277786
0.212334
-0.207372
-0.271007
0.20567
-0.212449
-0.265254
0.199594
-0.205347
0.188175
-0.250555
-0.202874
0.22922
-0.242218
0.0335697
-0.0458248
0.197807
0.0536086
0.221491
-0.0380955
-0.258158
0.105345
-0.268781
0.155696
-0.27927
0.19254
-0.284189
0.207431
-0.288619
0.216767
-0.282855
0.20657
-0.278257
0.201073
-0.26303
0.184367
-0.250204
0.175349
0.106426
0.215306
-0.100242
0.197046
0.107187
0.170836
-0.234021
-0.18737
-0.227587
0.14822
0.151467
0.214184
-0.150345
0.194094
0.15442
0.139254
-0.20998
-0.163295
-0.207832
0.119499
0.182518
0.21212
-0.180453
0.173822
0.090865
-0.193058
-0.107787
-0.187373
0.0704058
0.214276
-0.198715
-0.209638
0.224474
0.0241025
-0.0392531
-0.177907
0.0175972
-0.180867
0.239503
-0.240678
-0.179277
-0.230766
0.234291
-0.213163
-0.189979
0.250319
-0.259336
-0.091225
-0.140705
0.269954
-0.279912
0.0435281
-0.027477
0.289471
-0.294519
0.160744
0.114904
0.29872
-0.299687
0.208398
0.196742
0.296455
-0.289142
0.199258
0.213535
0.277582
-0.261956
0.168742
0.189513
0.241434
-0.22699
0.133776
0.154826
0.207374
-0.191689
0.0547206
0.0998832
-0.184178
0.0100858
-0.229677
0.240487
-0.174105
0.205031
-0.052224
-0.192061
-0.132433
-0.260113
0.263609
-0.206371
-0.206996
-0.278252
0.265781
-0.199978
-0.21999
-0.271361
0.25148
-0.190471
-0.212951
-0.249299
0.226369
-0.148515
-0.189386
-0.218472
0.200932
-0.0563513
-0.118917
-0.196236
0.192268
0.0575771
-0.00595328
-0.19114
0.199479
0.146081
0.108315
-0.19542
0.184088
0.177881
0.189546
-0.195903
0.230831
0.216212
-0.184762
0.22315
0.042927
-0.18515
-0.0419544
0.0404726
-0.178413
-0.220348
0.228409
-0.0602848
0.0428239
-0.0418523
-0.193032
-0.222152
0.0446275
-0.0931991
0.101999
-0.193951
-0.197455
0.194554
-0.0390538
-0.0845177
-0.206136
0.220316
-0.220752
0.18239
0.23885
-0.26407
-0.187943
0.245336
-0.191247
0.209497
0.192829
-0.179287
0.271663
-0.284117
-0.166823
-0.182386
0.295407
-0.301712
-0.0849198
-0.129416
0.312149
-0.314449
0.0458273
-0.0170398
0.312973
-0.312965
0.160737
0.113428
0.308861
-0.306032
0.205569
0.192637
0.296658
-0.288784
0.191384
0.20416
0.2748
-0.261649
0.155591
0.175529
0.244343
-0.224503
0.113936
0.13752
0.207381
-0.19921
0.0465497
0.082761
0.00542982
-0.238042
0.252801
-0.188864
-0.142066
-0.258854
0.266793
-0.21431
-0.213049
-0.255673
0.261701
-0.206006
-0.208871
-0.240597
0.242778
-0.192652
-0.191848
-0.219359
0.217293
-0.146449
-0.165967
-0.199328
0.198751
-0.0557747
-0.100952
-0.192963
0.193774
0.0567664
-0.000165399
-0.199323
0.205408
0.139996
0.102766
-0.212745
0.209162
0.187671
0.170543
0.182508
0.177325
-0.162379
0.215885
0.215207
0.162578
0.229
-0.146242
0.223349
-0.13746
0.140455
-0.225147
-0.124954
-0.205538
0.112392
-0.188806
-0.211941
0.207348
-0.03446
-0.218861
-0.0775981
0.137168
-0.123057
-0.220246
0.153793
-0.210576
-0.265102
0.263424
0.142134
0.218955
-0.201546
-0.242556
-0.268274
0.222127
0.174836
-0.165199
0.194086
0.200098
0.184236
-0.140172
0.148207
0.220965
0.232857
-0.238389
-0.140711
0.233809
-0.141124
-0.227407
0.194622
0.225614
-0.234252
0.189236
-0.191849
0.266946
-0.283381
-0.171508
-0.162691
0.301414
-0.321885
-0.146352
-0.164352
0.331158
-0.34396
-0.0721182
-0.120143
0.348879
-0.35668
0.0536282
-0.01212
0.351798
-0.350589
0.159527
0.108546
0.33834
-0.332055
0.199285
0.180388
0.315212
-0.305064
0.181235
0.187317
0.28573
-0.271681
0.141542
0.156195
0.249378
-0.231732
0.0962893
0.115217
0.216755
-0.20977
0.0395639
0.0677848
0.00300781
-0.266762
0.268485
-0.062008
0.0412895
-0.271714
0.277507
-0.194656
-0.145295
-0.273696
0.277932
-0.218545
-0.209239
-0.26722
0.260856
-0.199643
-0.198159
-0.249524
0.237147
-0.180275
-0.180515
-0.224537
0.212681
-0.134593
-0.153357
-0.203132
0.197285
-0.0499275
-0.0914029
-0.196045
0.19969
0.0531206
0.00107523
-0.208428
0.209368
0.139057
0.0940274
-0.220847
0.231691
0.176827
0.159064
0.179947
0.165798
-0.156068
0.206154
0.215806
0.215488
-0.231182
-0.110736
-0.188152
-0.218933
0.171069
-0.206082
-0.258831
0.266641
-0.276084
-0.247902
-0.253484
0.1691
-0.151309
-0.238037
0.190506
-0.231982
-0.120392
0.126744
0.214614
-0.116414
0.22983
0.171851
-0.162316
0.184551
0.171073
0.200877
0.239243
-0.238069
0.188062
0.192399
0.241466
0.258033
-0.264935
-0.133809
0.245804
-0.128894
-0.247205
-0.135287
0.168342
-0.153066
-0.262481
0.188962
-0.258657
0.217627
0.192223
-0.208931
0.28532
-0.311675
-0.145153
-0.142306
0.33605
-0.349649
-0.132753
-0.139978
0.368326
-0.37904
-0.0614037
-0.101466
0.386799
-0.388587
0.0554162
-0.00436173
0.385225
-0.375528
0.149831
0.105184
0.362788
-0.346101
0.182597
0.167648
0.328889
-0.310105
0.162451
0.170105
0.292046
-0.27384
0.123337
0.138136
0.257522
-0.242622
0.0813899
0.0988987
0.231116
-0.222794
0.0312421
0.0562785
0.219775
-0.220605
-0.0336295
-1.12651e-05
0.22867
-0.245071
-0.0943355
-0.0695332
0.257937
-0.279252
-0.131751
-0.122421
-0.321081
0.319874
0.143341
0.316291
-0.310242
0.260592
0.217336
-0.319306
0.319852
-0.0625543
0.041858
-0.313053
0.312164
-0.193767
-0.138496
-0.30414
0.296634
-0.21104
-0.201215
-0.286639
0.27371
-0.186714
-0.188163
-0.259716
0.244945
-0.165504
-0.166521
-0.232049
0.220202
-0.122746
-0.140461
-0.211475
0.206188
-0.04464
-0.0826764
-0.205455
0.209233
0.0493424
0.00180792
-0.214595
0.227463
0.126188
0.088666
-0.232055
0.2382
0.170682
0.154472
0.180078
0.138978
-0.131773
0.19895
0.192468
0.210459
0.281523
-0.275074
-0.282533
-0.299358
0.270638
-0.161017
0.178611
-0.280075
-0.298911
-0.141358
-0.229688
-0.237147
0.210755
-0.226332
-0.105889
0.235279
0.178301
0.210398
0.258437
-0.259003
0.188627
0.263021
0.187816
-0.26448
-0.264078
0.211372
-0.254391
-0.26598
0.258673
-0.292051
-0.268988
-0.279525
0.199663
-0.279709
-0.173872
0.196467
-0.30267
-0.152856
-0.319927
0.241599
0.192089
-0.227864
0.279319
-0.297722
-0.115406
-0.261385
0.249511
-0.0940152
-0.110961
0.318322
-0.342032
-0.121443
-0.121706
0.359182
-0.379722
-0.112213
-0.122828
0.396929
-0.410555
-0.0477784
-0.0842585
0.417809
-0.417613
0.0552208
0.0028927
0.410965
-0.397203
0.136069
0.0985356
0.38058
-0.359553
0.16157
0.151025
0.339234
-0.318034
0.141251
0.149787
0.299489
-0.281967
0.105815
0.11959
0.267074
-0.25345
0.0677652
0.0840064
0.242376
-0.233895
0.0227607
0.0452054
0.229885
-0.230319
-0.0331962
-0.00402115
0.240336
-0.24879
-0.0858809
-0.0595161
0.268762
-0.288715
-0.111798
-0.102448
0.310437
-0.334621
-0.128672
-0.119636
-0.349015
0.363142
0.246466
0.330491
-0.314556
0.242739
0.252113
-0.371334
0.377105
0.13757
0.209144
-0.374597
0.367839
-0.0557958
0.0443656
-0.357197
0.344637
-0.181207
-0.127854
-0.331008
0.316862
-0.196895
-0.187586
-0.303645
0.288178
-0.171246
-0.174946
-0.272118
0.255466
-0.148852
-0.150461
-0.241784
0.230376
-0.111337
-0.12678
-0.222818
0.218706
-0.0405276
-0.0751187
-0.218848
0.22322
0.0449703
0.00166508
-0.231755
0.237289
0.120654
0.0801318
-0.247812
0.256503
0.161991
0.143949
0.177578
0.233689
-0.245021
-0.28072
-0.297161
0.216295
-0.161236
0.184788
-0.343479
-0.357547
-0.138311
0.236342
0.189037
0.151562
-0.14659
0.205425
0.234093
0.129571
-0.125918
0.180898
0.183858
0.113904
-0.10312
0.188165
0.180454
0.0950922
-0.0903274
0.209849
0.202431
0.0863314
-0.0815327
0.230481
0.225834
-0.0755939
0.243572
-0.250113
-0.251515
0.231703
-0.246663
-0.262022
-0.271044
0.219546
-0.274274
-0.249694
-0.274852
0.211425
-0.294667
-0.205503
0.184824
-0.276482
-0.218021
-0.268202
0.207878
-0.325759
0.170713
-0.149224
-0.379035
0.194283
-0.367049
0.261983
-0.27457
-0.0814281
0.254252
-0.0678628
-0.246274
0.292329
-0.31257
-0.0951648
-0.0932026
0.335968
-0.354363
-0.103047
-0.0983083
0.37741
-0.39907
-0.0905537
-0.0997808
0.417037
-0.431318
-0.0334973
-0.0662916
0.438327
-0.436805
0.0536984
0.00990157
0.428243
-0.411724
0.11955
0.0899738
0.392546
-0.369385
0.138409
0.131847
0.348147
-0.326336
0.11944
0.128549
0.308309
-0.29109
0.088596
0.101563
0.276867
-0.263743
0.0546416
0.0697829
0.253482
-0.246086
0.0153651
0.034944
0.242924
-0.244393
-0.0317273
-0.00718305
0.250927
-0.262947
-0.0738611
-0.0529817
0.280059
-0.296199
-0.0956573
-0.0853366
0.311247
-0.331439
-0.10848
-0.104589
0.353011
-0.380901
-0.121334
-0.116738
-0.333713
0.359892
0.216559
0.30846
-0.288907
0.165271
0.191042
-0.383835
0.403774
0.226526
0.228171
-0.420691
0.421065
0.137196
0.192227
-0.419935
0.410938
-0.0467986
0.0454953
-0.395648
0.37599
-0.161549
-0.112563
-0.356719
0.33796
-0.178136
-0.168315
-0.322015
0.305046
-0.154277
-0.159001
-0.287656
0.269087
-0.130283
-0.133071
-0.253911
0.242078
-0.0995037
-0.111604
-0.235222
0.232248
-0.0375537
-0.0682624
-0.233401
0.238535
0.0398355
0.00051211
-0.246163
0.256723
0.110094
0.0725045
-0.270878
0.272892
0.159977
0.129795
-0.275633
0.289435
0.174824
0.174837
-0.294636
0.311953
0.17172
0.182615
0.157533
0.0986136
-0.0929002
0.199712
-0.106237
0.277633
0.226469
0.0870743
-0.0800985
0.173922
0.178032
0.0731267
-0.0703729
0.185412
0.173482
0.0634781
-0.0649243
0.211295
0.195536
0.0584881
-0.0582586
0.230251
0.219398
0.155115
-0.175774
-0.255824
-0.270051
0.136259
-0.150068
0.178282
-0.407249
-0.413155
-0.117814
0.0509586
-0.0428138
0.246107
0.236272
-0.25236
-0.261177
0.237589
-0.264706
-0.250549
-0.270189
0.225748
-0.288597
-0.230892
-0.26198
0.226
-0.312789
-0.194473
-0.249503
0.218111
-0.349587
-0.123537
0.103798
-0.250312
-0.145031
-0.23433
0.203707
-0.392474
0.144986
-0.441906
-0.116235
0.173735
-0.435998
-0.252612
0.280083
0.0763268
0.0624314
-0.0839424
-0.228801
-0.228405
0.0382245
-0.103108
0.129413
-0.468211
-0.434211
0.405434
-0.0874582
-0.458789
-0.0785307
0.260389
-0.266699
-0.0365041
-0.0344098
0.0316998
0.248818
0.246894
-0.0209147
-0.261044
0.274017
-0.295117
-0.0603284
-0.060544
0.310172
-0.331511
-0.0738259
-0.0781477
0.3475
-0.367855
-0.082692
-0.0823188
0.386675
-0.407688
-0.0695404
-0.0809616
0.425306
-0.439058
-0.0197454
-0.0486733
0.445429
-0.443844
0.0521132
0.0162727
0.435043
-0.418454
0.102962
0.0811726
0.398633
-0.375349
0.115124
0.112026
0.354253
-0.332789
0.0979767
0.107453
0.314977
-0.297488
0.071107
0.0837502
0.283285
-0.270015
0.0413717
0.0555799
0.25992
-0.252979
0.00842406
0.0248495
0.250529
-0.253901
-0.0283545
-0.00963355
0.261984
-0.274888
-0.060957
-0.0448994
0.288772
-0.302139
-0.0822895
-0.0714527
0.318702
-0.336542
-0.0906407
-0.0880258
0.354466
-0.382578
-0.0932223
-0.0988144
-0.0949583
-0.303896
0.327638
0.141528
0.112446
-0.352148
0.373947
0.19476
0.166533
-0.404812
0.423052
0.208287
0.197306
-0.442681
0.45309
0.126788
0.172597
-0.453095
0.441661
-0.0353644
0.0454901
-0.423185
0.399221
-0.137586
-0.0940872
-0.375698
0.352387
-0.154825
-0.144792
-0.333336
0.315493
-0.136434
-0.139949
-0.298783
0.280698
-0.112198
-0.116361
-0.265315
0.253318
-0.087507
-0.0962213
-0.246901
0.245277
-0.0359303
-0.0618445
-0.247533
0.253813
0.0335546
-0.0017434
-0.262282
0.273893
0.0984828
0.0640361
-0.285321
0.297848
0.14745
0.118367
-0.314092
0.322322
0.166595
0.158593
-0.3341
0.350997
0.154823
0.170837
0.139549
0.0543392
-0.0441582
0.267452
0.322381
0.0423953
-0.0394878
0.196804
0.224706
0.0366771
-0.0336773
0.170922
0.175221
0.0303163
-0.027308
0.182403
0.170121
0.0249338
-0.022079
0.20844
0.193162
0.0231678
-0.0275552
0.234638
0.220487
0.240417
-0.246378
-0.265348
0.238071
-0.277029
-0.238484
-0.262597
0.236352
-0.29895
-0.212151
-0.244303
0.237588
-0.332266
-0.166235
-0.228299
0.226671
-0.372551
-0.103713
-0.21456
0.19765
-0.416389
-0.0133424
0.000316907
-0.215379
-0.0326768
-0.209466
0.147922
-0.454506
0.0731956
-0.477923
-0.0540615
0.0800214
-0.475037
-0.232773
0.234044
-0.000953657
-0.0310036
0.0309351
-0.215311
-0.242727
-0.0210502
-0.0188682
0.0161487
-0.475203
-0.453083
0.439899
-0.0408768
-0.458197
-0.0137546
-0.0163753
0.00772101
0.257472
-0.0241113
0.25463
0.270731
-0.279849
-0.0273854
0.271908
-0.0220921
-0.269351
0.290196
-0.30582
-0.0447037
-0.0501977
0.322504
-0.337438
-0.0588922
-0.0614643
0.354008
-0.37016
-0.0665399
-0.0657485
0.39
-0.407531
-0.0520098
-0.0611213
0.4251
-0.436241
-0.00860348
-0.0311044
0.441986
-0.438916
0.049044
0.0220167
0.430219
-0.414881
0.0876245
0.0724748
0.396654
-0.375033
0.0935036
0.0937983
0.354401
-0.333686
0.077262
0.0868208
0.315568
-0.298505
0.0540441
0.0656319
0.284831
-0.273727
0.030267
0.0419061
0.266914
-0.264492
0.00600241
0.0180363
0.266608
-0.273628
-0.0213353
-0.00751718
0.283146
-0.294634
-0.0494691
-0.0353811
0.306149
-0.31878
-0.0696592
-0.0599373
0.332637
-0.342949
-0.0803279
-0.0741687
0.361168
-0.375689
-0.0787016
-0.0805959
0.395804
-0.416684
-0.0665776
-0.0748431
-0.0553164
-0.250455
0.273721
0.0530614
0.021813
-0.302241
0.328502
0.115268
0.0839257
-0.360338
0.389837
0.165261
0.134697
-0.41623
0.441615
0.182902
0.170912
-0.459592
0.47039
0.11599
0.15462
-0.470187
0.457984
-0.0231609
0.0456928
-0.43773
0.411226
-0.111082
-0.0738331
-0.38462
0.35812
-0.128325
-0.118186
-0.336622
0.318393
-0.118205
-0.118451
-0.303558
0.288367
-0.0970074
-0.101526
-0.274408
0.262967
-0.0760657
-0.0822624
-0.256862
0.256065
-0.0351332
-0.0557395
-0.259644
0.267402
0.0257965
-0.00532282
-0.277275
0.290161
0.0855975
0.0541632
-0.303609
0.319462
0.131597
0.104918
-0.334976
0.350013
0.151557
0.14308
-0.369438
0.375919
0.148342
0.151412
0.118035
0.01464
0.00394933
0.368235
0.424113
-0.0129878
0.0146954
0.265744
0.313343
-0.0158602
0.0157537
0.196911
0.223542
-0.0152639
0.0144186
0.171767
0.175711
-0.0136429
0.0128154
0.183231
0.170897
-0.0118504
0.00877677
0.211514
0.194127
-0.00300385
-0.00203231
0.239675
0.22626
0.246106
-0.241606
-0.262225
0.24163
-0.282307
-0.227647
-0.247101
0.245604
-0.306966
-0.187475
-0.223062
0.23877
-0.344365
-0.124893
-0.207119
0.211874
-0.386776
-0.0476393
-0.199597
0.158446
-0.426914
0.0250113
-0.203543
0.0804669
-0.454952
0.0512803
-0.0372205
-0.256786
0.0626364
-0.226667
0.00206718
-0.460955
-0.0258163
0.0164311
-0.448812
-0.0522409
-0.448779
0.0402993
0.207497
-0.269327
0.278652
-0.287638
-0.0183994
-0.255221
0.17982
0.1157
0.00133912
0.305386
-0.312582
-0.0375077
-0.0324497
0.328623
-0.339851
-0.0476645
-0.0454234
0.353313
-0.36826
-0.0515931
-0.0522864
0.38541
-0.40045
-0.0369695
-0.0439709
0.414168
-0.423654
0.000882736
-0.0173867
0.427592
-0.425304
0.0467564
0.0259542
0.416695
-0.40301
0.0739397
0.0638657
0.385493
-0.365843
0.0738538
0.0762809
0.345797
-0.326707
0.0581714
0.0667751
0.309625
-0.2952
0.0396189
0.04855
0.284183
-0.276842
0.022926
0.0308898
0.272991
-0.271856
0.00486748
0.0141849
0.272821
-0.274788
-0.019368
-0.00655237
0.277935
-0.282746
-0.0446582
-0.0322346
0.290349
-0.300572
-0.0594362
-0.0523334
0.313261
-0.328059
-0.0655304
-0.0614799
0.344494
-0.36005
-0.0631455
-0.0641609
0.374122
-0.39153
-0.0491701
-0.0607706
0.408405
-0.425764
-0.0235176
-0.0384412
0.431087
-0.425599
0.0109439
-0.00843227
-0.248057
0.245221
0.0018829
0.251194
-0.259801
-0.0286135
-0.0179133
-0.248129
0.265808
0.0353816
0.018905
-0.291883
0.321948
0.0852022
0.0578511
-0.352822
0.385207
0.132876
0.103823
-0.413564
0.438221
0.158246
0.142555
-0.455582
0.466163
0.10541
0.137258
-0.467289
0.456727
-0.0125994
0.0445671
-0.438106
0.413667
-0.086643
-0.0552119
-0.389069
0.363758
-0.103014
-0.0935888
-0.341791
0.322772
-0.099186
-0.0964835
-0.308069
0.294694
-0.0836324
-0.0868234
-0.282304
0.27161
-0.0653715
-0.0698725
-0.265124
0.264394
-0.0344032
-0.0492537
-0.268566
0.277405
0.0169568
-0.00949435
-0.288892
0.302906
0.0715832
0.0426766
-0.318544
0.335309
0.114832
0.08928
-0.355532
0.36988
0.13721
0.122856
-0.38772
0.410412
0.12565
0.133571
-0.423691
0.43832
0.0859057
0.104756
0.0661148
-0.0460124
0.0633026
0.350945
0.0266329
0.441585
0.404734
-0.0712871
0.0716795
0.265352
0.305358
-0.0719069
0.0697077
0.19911
0.223314
-0.0660261
0.0615274
0.176266
0.179393
-0.0570049
0.0527714
0.187464
0.175419
-0.0489003
0.0423954
0.218019
0.197998
-0.0368548
0.0290129
0.247517
0.2318
-0.0126128
-0.000946084
0.271031
0.262506
0.0407023
0.346615
0.294386
-0.0524442
0.066431
-0.270773
-0.264138
-0.0481074
0.0486939
-0.0715707
-0.425935
-0.41074
0.0338349
-0.238602
-0.25127
0.245622
-0.282325
-0.470267
0.037012
-0.209045
-0.225531
0.242397
-0.310592
0.338974
-0.270871
0.0475979
0.0264051
-0.00436425
0.324574
0.0340273
0.331351
-0.146342
-0.201613
0.21655
-0.349041
-0.0649037
-0.189854
0.161392
-0.389721
0.0190207
-0.193607
0.0740501
-0.420497
0.0744989
-0.215405
-0.0231655
-0.429719
0.0807987
-0.241034
-0.0932179
-0.419978
0.068107
-0.0601714
-0.272073
0.0833685
-0.286035
-0.11091
-0.409439
0.0672738
-0.0964701
-0.396739
0.0478437
-0.39131
-0.262307
0.290397
-0.29964
-0.00915667
0.0208652
0.308748
-0.317057
-0.0291995
-0.0233412
0.329086
-0.337546
-0.0392048
-0.0333941
0.351834
-0.364485
-0.0389424
-0.0379979
0.376848
-0.389364
-0.0244529
-0.0316079
0.397769
-0.404369
0.0074834
-0.00898254
0.405184
-0.402564
0.0441365
0.0267689
0.394295
-0.382702
0.0623468
0.0555967
0.3676
-0.351158
0.0574115
0.0611793
0.334398
-0.319229
0.0430022
0.0500148
0.306516
-0.297047
0.0301504
0.035837
0.290567
-0.286759
0.0191181
0.0244092
0.284738
-0.283801
0.0039307
0.0121642
0.284012
-0.285874
-0.017506
-0.00634147
0.290829
-0.298415
-0.0370716
-0.0272799
0.308201
-0.318695
-0.0489418
-0.042548
0.329201
-0.339649
-0.0550827
-0.0509736
0.349799
-0.358808
-0.0541368
-0.054011
0.371569
-0.378552
-0.0421874
-0.0480097
0.386293
-0.390763
-0.0190475
-0.0306995
0.395377
-0.396306
0.0118728
-0.00381828
0.387636
-0.375831
0.0360386
0.0251646
-0.26575
0.264833
-0.0276964
0.275538
-0.287254
-0.0484554
-0.0383192
-0.259552
0.258185
0.00324979
-0.0126321
-0.261288
0.266925
0.0297441
0.0158023
-0.282048
0.30508
0.0621702
0.0427285
-0.331547
0.360488
0.103935
0.0773563
-0.386186
0.410508
0.133924
0.116856
-0.430612
0.44639
0.0896323
0.117154
-0.451833
0.445355
-0.0061215
0.0391238
-0.429673
0.408404
-0.0653731
-0.0395303
-0.387161
0.365622
-0.081474
-0.0723464
-0.346058
0.327811
-0.0809392
-0.0769198
-0.31346
0.30106
-0.0712326
-0.0724719
-0.290295
0.280058
-0.0551344
-0.0591077
-0.273105
0.270942
-0.0322399
-0.0423007
-0.274568
0.283307
0.00821786
-0.0131205
-0.295805
0.3108
0.0565876
0.0301787
-0.327844
0.346137
0.0965397
0.0722361
-0.367324
0.384357
0.120177
0.101669
-0.406037
0.415932
0.115755
0.111891
-0.42681
0.442892
0.0698239
0.0938782
0.0387403
-0.0541113
0.0776522
0.418044
0.449706
-0.104369
0.110626
0.344688
0.378017
-0.116749
0.119088
0.263012
0.299235
-0.117931
0.113782
0.203259
0.224471
-0.107895
0.101304
0.182857
0.18528
-0.0948349
0.0885775
0.193722
0.181889
-0.0826317
0.0763682
0.224282
0.203944
-0.0698017
0.0608418
0.256476
0.238367
-0.0498179
0.032903
0.287946
0.27353
0.322925
-0.0657333
0.0762896
-0.28263
-0.298517
-0.0544711
0.0542827
-0.0741228
-0.37147
-0.361748
0.0402001
-0.2258
-0.234515
0.23756
-0.277489
0.32885
-0.308204
0.0269518
0.329283
0.0335945
-0.169161
-0.202712
0.213354
-0.307396
-0.0822155
-0.184301
0.157437
-0.345086
0.0116043
-0.182438
0.065104
-0.380775
0.0848916
-0.203999
-0.0479765
-0.395686
0.100939
-0.235545
-0.135528
-0.387409
0.0945443
-0.25221
-0.159983
-0.370906
0.0954118
-0.305157
-0.13652
-0.36939
0.0723005
-0.0618797
-0.308937
0.0864326
-0.296762
-0.0998895
-0.370972
-0.305622
0.295215
-0.0514723
0.0615456
-0.311629
-0.055539
0.0767357
-0.324127
0.0462787
0.427557
0.0566375
-0.0715656
-0.356542
0.0402836
-0.345394
-0.250548
0.302389
-0.308562
-0.00298324
0.0150504
0.315864
-0.321315
-0.0237493
-0.016039
0.329137
-0.338588
-0.0297531
-0.0255722
0.349083
-0.360477
-0.0275477
-0.0275036
0.370409
-0.379466
-0.0153959
-0.0216759
0.384408
-0.386306
0.00938157
-0.00404092
0.383719
-0.378219
0.0386366
0.0241821
0.369719
-0.35963
0.0522576
0.0470966
0.348187
-0.33664
0.0458647
0.0497357
0.325606
-0.316124
0.03352
0.0389809
0.308441
-0.302656
0.024366
0.0281541
0.298162
-0.294569
0.015525
0.0199154
0.291611
-0.289516
0.00183563
0.00920582
0.289217
-0.290863
-0.0158601
-0.00664013
0.294726
-0.300351
-0.0314474
-0.0234165
0.30687
-0.313903
-0.0419082
-0.0360288
0.321292
-0.329788
-0.0465864
-0.0435851
0.339277
-0.349715
-0.0436991
-0.044522
0.359279
-0.367508
-0.0339576
-0.038446
0.372949
-0.375726
-0.0162697
-0.0252592
0.374155
-0.368851
0.0065684
-0.00538964
0.361015
-0.353657
0.0286806
0.0173294
0.346661
-0.337187
0.0308101
0.0332032
-0.287634
0.280348
-0.0411694
-0.0468906
-0.276181
0.271714
-0.023229
-0.034152
-0.270165
0.271055
0.0023603
-0.0110835
-0.273078
0.276425
0.0263964
0.0137796
-0.284634
0.297249
0.0495555
0.0345193
-0.313618
0.334198
0.0833544
0.0609879
-0.356182
0.38189
0.108215
0.094873
-0.405964
0.42541
0.0701862
0.09308
-0.432607
0.428215
-0.0017302
0.0319276
-0.415435
0.39804
-0.0479781
-0.0267499
-0.380821
0.364315
-0.0649686
-0.0551274
-0.349439
0.334665
-0.0661658
-0.0620432
-0.321683
0.309869
-0.0594179
-0.0594899
-0.299996
0.290219
-0.0453567
-0.0492354
-0.282625
0.277945
-0.0275591
-0.0347074
-0.279214
0.285687
0.00174493
-0.0143901
-0.297594
0.31257
0.0416116
0.0182716
-0.330326
0.349273
0.0775925
0.0544807
-0.368818
0.38997
0.0990253
0.0821241
-0.408955
0.428791
0.0959184
0.092906
-0.444789
0.456292
0.0583209
0.0778801
-0.451988
0.472618
0.0163815
0.043045
0.0117223
-0.079763
0.106946
0.390861
0.416222
-0.126131
0.139083
0.331736
0.358832
-0.148002
0.1517
0.259314
0.290316
-0.15072
0.146341
0.207639
0.225451
-0.140443
0.134008
0.189291
0.191177
-0.127641
0.120868
0.200495
0.188256
-0.113681
0.10545
0.232514
0.211131
-0.0962296
0.0823959
0.27031
0.247587
-0.0745586
0.0597905
0.302714
0.281367
-0.070583
0.0557888
0.339368
0.312132
-0.028859
-0.0295486
0.38769
0.358281
-0.188963
-0.214713
0.203679
-0.267814
-0.0384759
0.0278681
-0.326579
-0.0532534
-0.330617
0.33844
-0.358486
-0.00950259
-0.0507287
0.212764
0.225655
0.301444
-0.0137328
-0.325023
0.329616
0.0262168
-0.315761
0.0186062
-0.100887
-0.184041
0.147724
-0.297684
0.00222986
-0.174927
0.0550926
-0.335074
0.0920525
-0.189599
-0.0637042
-0.365047
0.127256
-0.230317
-0.1642
-0.367014
0.111346
-0.252347
-0.208484
-0.338908
0.110921
-0.26772
-0.181699
-0.325726
0.100582
-0.319306
-0.125369
-0.34391
-0.0577786
-0.323362
0.0695121
-0.323858
0.314083
-0.0480032
0.0555429
-0.332713
-0.0466878
-0.33751
0.0696902
0.0925282
-0.312554
-0.0913517
-0.351186
-0.335953
0.0813376
0.0671491
-0.140879
0.286494
-0.463195
-0.00261895
-0.0170528
0.309856
-0.235831
0.33451
-0.324509
0.0169506
0.00961888
0.319802
-0.317694
-0.00509115
0.0103432
0.322505
-0.32863
-0.0176246
-0.0112279
0.334806
-0.342621
-0.0219384
-0.019396
0.349247
-0.356992
-0.0198034
-0.0208772
0.363108
-0.369216
-0.00928759
-0.0155594
0.372173
-0.372828
0.010037
-0.0010844
0.369069
-0.36249
0.032058
0.0204227
0.353646
-0.344274
0.0428859
0.0382518
0.335351
-0.327491
0.038004
0.0408132
0.320833
-0.315359
0.0280459
0.0323231
0.310726
-0.306561
0.0202003
0.0235218
0.302743
-0.29916
0.0119418
0.0160976
0.296294
-0.294394
-6.43093e-05
0.00633997
0.294141
-0.295721
-0.0142799
-0.0068929
0.298945
-0.303664
-0.026729
-0.0201925
0.309336
-0.316204
-0.03504
-0.0303567
0.323595
-0.331511
-0.0386699
-0.0361946
0.3387
-0.345441
-0.0369583
-0.0373332
0.351405
-0.35709
-0.0282729
-0.0324818
0.36141
-0.363709
-0.0139703
-0.0209394
0.363432
-0.359013
0.00214858
-0.00566621
0.350715
-0.339706
0.0176708
0.00903217
0.0231135
-0.306968
0.299722
-0.0442269
-0.048424
-0.294385
0.288487
-0.0352718
-0.0415531
-0.282703
0.279278
-0.0198042
-0.028368
-0.277192
0.278299
0.00125363
-0.00899747
-0.281225
0.285238
0.0223837
0.0108529
-0.29028
0.297598
0.0422374
0.0294772
-0.3077
0.32289
0.0681645
0.0508866
-0.342394
0.367269
0.0833397
0.0753688
-0.390197
0.40756
0.0528237
0.0701516
-0.413802
0.410361
0.00171139
0.0256852
-0.399993
0.385492
-0.0334778
-0.0163821
-0.371164
0.3575
-0.0513045
-0.040799
-0.346061
0.335118
-0.0552225
-0.0506043
-0.325198
0.31563
-0.0498498
-0.0495705
-0.307686
0.299724
-0.0373943
-0.0412916
-0.293181
0.287222
-0.021601
-0.0281641
-0.28584
0.28843
-0.000844551
-0.0130081
-0.297114
0.309964
0.028762
0.00958738
-0.326366
0.345057
0.0589018
0.0380783
-0.364433
0.384957
0.0785008
0.062748
-0.404172
0.421956
0.0781347
0.0736912
-0.435525
0.438583
0.0552628
0.0643111
-0.446753
0.451844
0.0112903
0.0348749
0.000371359
-0.0344844
0.0668603
0.395181
0.40357
-0.0994992
0.12399
0.36637
0.383583
-0.141762
0.155542
0.317956
0.34106
-0.164441
0.168213
0.255542
0.281418
-0.167937
0.165187
0.210389
0.225728
-0.16142
0.15678
0.193932
0.194944
-0.151554
0.145533
0.206515
0.193482
-0.138756
0.1308
0.240469
0.217908
-0.121627
0.110278
0.281659
0.256761
-0.0969252
0.0846684
0.31497
0.29472
-0.0762887
0.080805
0.334852
0.320512
0.298207
-0.0731796
-0.336616
0.288373
-0.00398161
0.0281136
-0.0376283
-0.317064
-0.315087
0.0274402
-0.119693
-0.195907
0.134907
-0.254997
-0.00798944
-0.173822
0.0435434
-0.286135
0.094608
-0.177482
-0.0736002
-0.325178
-0.0490692
-0.319176
0.153269
-0.215612
-0.179358
-0.349889
0.140906
-0.259876
-0.232524
-0.342974
0.125536
-0.266961
-0.219515
-0.301092
-0.0440169
-0.341577
0.0528809
-0.336058
0.327682
-0.0356403
0.0395239
-0.34329
-0.0322923
-0.350442
0.0483886
0.121386
-0.288524
-0.15584
-0.295256
-0.350841
0.066212
0.107507
-0.334286
-0.103176
-0.332086
-0.347665
0.081402
0.099013
-0.33023
-0.0851962
-0.339169
-0.0181813
-0.0101747
0.316729
0.268559
-0.431308
0.220676
0.0179977
0.00205843
0.343953
0.0261556
-0.0342542
-0.308966
-0.313657
0.024725
-0.0544304
0.340987
-0.220617
0.327145
-0.344142
0.00749413
-0.311795
-0.0072621
0.315075
0.00161733
0.336873
-0.327322
0.00739948
0.00235019
0.322305
-0.321634
-0.00576211
0.00532657
0.322918
-0.327566
-0.0129767
-0.00994371
0.332109
-0.338002
-0.0160456
-0.0148535
0.343556
-0.349785
-0.0135738
-0.0153229
0.35532
-0.360074
-0.00453395
-0.0100244
0.362725
-0.362743
0.0100547
0.00156669
0.359613
-0.353522
0.0259663
0.0172934
0.345718
-0.337313
0.0344804
0.0304483
0.329811
-0.323559
0.0317529
0.033311
0.318681
-0.314661
0.0240265
0.0274441
0.31114
-0.307693
0.0167526
0.0200011
0.304468
-0.301476
0.00895053
0.0128726
0.299269
-0.29813
-0.00120352
0.00413257
0.298341
-0.299986
-0.0126355
-0.00668134
0.302742
-0.306673
-0.0227984
-0.0174358
0.311135
-0.316322
-0.0298528
-0.0258948
0.321688
-0.327658
-0.0327003
-0.0308288
0.333694
-0.339962
-0.0306898
-0.031297
0.345403
-0.349779
-0.023897
-0.0270416
0.352483
-0.353674
-0.0127787
-0.0182354
0.353177
-0.350842
-0.000186403
-0.00616309
0.34687
-0.339464
0.0102645
0.00506026
0.330501
-0.320649
0.0163653
0.01415
0.317082
-0.311867
0.0222256
0.0150391
0.011144
-0.301822
-0.0229782
0.303543
-0.304728
0.012329
0.0164007
-0.321839
0.315962
-0.0421271
-0.0408447
-0.309934
0.304092
-0.0383848
-0.0423955
-0.298055
0.29169
-0.0289065
-0.0355166
-0.288174
0.285042
-0.0166729
-0.0248515
-0.283883
0.28432
0.00081603
-0.007838
-0.286568
0.290249
0.0187034
0.00860505
-0.294679
0.300971
0.0359449
0.0250468
-0.3093
0.322396
0.0550681
0.0425584
-0.339136
0.359636
0.0628393
0.0586291
-0.377439
0.389989
0.0402729
0.0523491
-0.394459
0.392314
0.00385651
0.0212156
-0.386043
0.376362
-0.0237969
-0.0101111
-0.365722
0.353413
-0.0389951
-0.0301594
-0.342085
0.330938
-0.0440748
-0.0392767
-0.321662
0.313388
-0.0415755
-0.0402947
-0.307028
0.30187
-0.0322371
-0.0349315
-0.297728
0.294086
-0.0179583
-0.024022
-0.291975
0.292699
-0.00156912
-0.010897
-0.297201
0.306686
0.0192764
0.00508583
-0.319343
0.335954
0.0422912
0.0254214
-0.353548
0.372741
0.0593086
0.0451533
-0.390664
0.406691
0.0621074
0.055768
-0.419841
0.428474
0.0466292
0.0511614
-0.433783
0.428811
0.0162629
0.0295658
-0.426055
0.428808
-0.00537233
0.00312748
-0.0128404
-0.05001
0.0810343
0.364156
0.355618
-0.103245
0.122974
0.346642
0.361373
-0.140096
0.154296
0.303757
0.323937
-0.16465
0.171329
0.248863
0.271063
-0.174511
0.175406
0.209493
0.222546
-0.174556