/*--------------------------------*- C++ -*----------------------------------*\
  =========                 |
  \\      /  F ield         | OpenFOAM: The Open Source CFD Toolbox
   \\    /   O peration     | Website:  https://openfoam.org
    \\  /    A nd           | Version:  10
     \\/     M anipulation  |
\*---------------------------------------------------------------------------*/
FoamFile
{
    format      ascii;
    class       volVectorField;
    location    "1";
    object      U;
}
// * * * * * * * * * * * * * * * * * * * * * * * * * * * * * * * * * * * * * //

dimensions      [0 1 -1 0 0 0 0];

internalField   nonuniform List<vector> 
6397
(
(1.05964 -0.186818 1.24073e-20)
(1.04988 -0.188753 -5.85485e-20)
(1.01766 0.000475807 0)
(1.0176 -0.000121239 -4.87967e-23)
(1.01948 -0.000272139 1.25956e-21)
(1.01942 -0.000710604 2.50215e-21)
(0.820699 -0.51585 -4.10425e-20)
(0.496969 -0.750895 1.07202e-19)
(0.039092 0.00564904 -1.16478e-22)
(-0.0150407 0.0924052 -2.5897e-21)
(0.515326 0.69129 7.69201e-20)
(0.814128 0.711865 -9.9477e-21)
(1.06368 0.0226875 -1.02689e-21)
(0.977664 0.00780938 -8.60297e-22)
(0.927125 0.0267837 2.43662e-21)
(0.311048 -0.113502 -1.21442e-19)
(0.591728 -0.293515 -4.85674e-20)
(0.125966 -0.136793 4.81418e-20)
(0.325662 -0.0144975 5.75577e-20)
(0.44658 -0.198614 -1.75538e-19)
(0.540733 -0.044058 -9.18631e-20)
(0.603299 0.100204 -1.29308e-19)
(0.358586 0.152521 5.06616e-21)
(0.9105 0.275293 -6.84739e-20)
(0.988732 0.0168849 0)
(1.03981 0.0073895 1.817e-22)
(1.0123 0.0151761 -3.62485e-23)
(1.01874 -0.000873211 -6.03805e-21)
(1.01892 -0.000982289 1.4831e-21)
(1.01814 0.000181564 -3.07443e-21)
(1.01764 0.000239079 4.31592e-21)
(1.01839 8.24109e-05 3.56394e-21)
(1.01843 0.000402391 2.4696e-21)
(1.01867 -0.00122036 -8.79367e-21)
(1.01859 -0.00273486 1.02189e-21)
(1.01936 -0.000884427 0)
(1.01796 0.000643742 -1.10226e-21)
(1.01834 -0.00117274 -2.30396e-21)
(1.02097 -0.00179475 2.12498e-21)
(1.02066 -0.00336549 -1.0891e-21)
(1.02078 0.00108482 0)
(1.01792 0.000505271 0)
(1.01767 0.000465846 1.4247e-21)
(1.01752 -0.000927118 2.58513e-21)
(1.01817 -0.000279004 -2.76996e-21)
(1.01872 -0.000446452 5.42719e-21)
(1.01937 0.000104549 2.59439e-21)
(1.01836 -0.000556489 -7.90359e-21)
(1.01816 -0.00231425 1.82827e-21)
(1.02104 -0.00331103 -2.91922e-22)
(1.02046 -0.00479878 3.27136e-21)
(1.02051 5.47637e-05 -1.24592e-21)
(1.02407 -0.0020167 -8.74139e-21)
(0.992835 0.206545 -9.85058e-21)
(1.02701 0.189209 6.40412e-21)
(1.02718 0.0618032 6.27435e-21)
(1.01904 0.0727172 6.27304e-21)
(1.09171 0.00050912 -9.83654e-21)
(1.01641 -0.000272386 3.60992e-21)
(1.01642 -0.000122373 -3.61952e-21)
(1.01634 -0.000203514 -3.61969e-21)
(1.01603 0.00015729 3.56377e-21)
(1.01565 0.00016238 3.87787e-21)
(1.01553 0.000245522 -3.81164e-21)
(1.01533 9.12869e-05 0)
(1.01493 -7.80954e-05 -4.063e-21)
(1.01444 -0.000424946 4.26351e-21)
(1.01415 -0.000451993 0)
(1.01672 0.000402498 3.32685e-21)
(1.01659 0.000190069 -7.30707e-25)
(1.01684 2.86726e-05 -3.15813e-21)
(1.01668 0.000593126 0)
(1.01661 0.000612479 0)
(1.01605 0.000689547 0)
(1.01545 0.000910115 1.50373e-23)
(1.01474 0.000948989 -1.89275e-24)
(1.01421 0.000616843 0)
(1.01374 0.000147849 4.96511e-25)
(1.01354 -0.00018904 0)
(1.01324 -0.000420499 0)
(1.01714 -0.000411006 3.41511e-21)
(1.01685 0.000634854 -2.29309e-22)
(1.01418 -0.000548524 0)
(1.01296 -0.000686011 0)
(1.01746 -0.000710916 -9.81215e-23)
(1.01733 0.000487263 0)
(1.01401 -0.000745368 0)
(1.01323 -0.00107571 0)
(1.01767 0.000412279 -6.32538e-21)
(1.01846 -0.00010661 7.81065e-22)
(1.013 -0.000693945 0)
(1.01359 -0.00113802 0)
(1.01771 0.000441488 4.73385e-21)
(1.01775 0.000930592 2.98316e-21)
(1.01202 9.08776e-05 0)
(1.01323 -0.00104198 -5.92919e-22)
(1.01691 -0.000244088 0)
(1.01711 0.000110053 -5.86999e-21)
(1.01736 -0.000466778 -3.94913e-22)
(1.01682 3.91509e-05 3.21809e-21)
(1.01677 0.00026081 0)
(1.0166 -0.00020062 1.62494e-21)
(1.01664 -0.000107209 -3.22958e-21)
(1.01575 -0.000619379 -1.8451e-21)
(1.01624 -0.000327797 -1.27332e-21)
(1.0146 -0.0011552 -1.50621e-23)
(1.01516 -0.000978766 1.94732e-21)
(1.0131 -0.000868883 4.77689e-23)
(1.0138 -0.00107433 2.21406e-21)
(1.01234 -0.00103895 1.82543e-21)
(1.01261 -0.000861608 -3.82409e-21)
(1.01302 -0.000893133 0)
(1.01241 -0.00107889 0)
(1.01325 -0.00100643 0)
(1.0134 -0.000751111 0)
(1.01311 -0.00145536 1.19807e-21)
(1.01381 0.000430928 4.50664e-21)
(1.01202 0.000675291 2.38314e-21)
(1.01264 0.00113086 -4.44359e-21)
(1.01589 0.000114626 -4.34372e-21)
(1.01476 -6.77948e-05 4.24539e-21)
(1.01725 0.00123207 -3.17362e-23)
(1.0167 0.000811634 -1.2829e-22)
(1.01719 0.00145959 0)
(1.01725 0.00146198 0)
(1.01701 0.0013676 -3.59308e-21)
(1.01692 0.00149237 -4.67159e-22)
(1.01722 0.00102519 -6.50316e-22)
(1.01687 0.00124432 3.56929e-21)
(1.01739 0.000747084 -1.8043e-21)
(1.01747 0.000737048 2.07456e-22)
(1.01727 0.00105611 3.16876e-21)
(1.01751 0.000425031 1.64617e-21)
(1.01642 0.000999415 0)
(1.01656 0.0011726 -3.50453e-21)
(1.01859 0.00063283 2.86983e-21)
(1.01793 7.76459e-05 4.91775e-23)
(1.01791 0.00151104 -1.56137e-21)
(1.0127 -0.00173811 1.84872e-21)
(1.01239 -0.000776507 -4.5301e-22)
(1.01225 0.00127266 3.64764e-23)
(1.0115 0.000682113 -2.38838e-21)
(1.0116 0.00155683 0)
(1.01168 -0.00194222 -1.23862e-21)
(1.01268 -0.0023055 2.4752e-21)
(1.01252 -0.00257548 -2.46091e-21)
(1.01622 -0.00086433 -1.49312e-21)
(1.01656 -0.000271277 3.09842e-21)
(1.01691 -0.0013286 1.49473e-21)
(1.01683 -0.001755 -1.39897e-21)
(1.0114 0.000318738 -1.42523e-22)
(1.01702 -0.000798856 0)
(1.01672 0.000135454 7.71241e-22)
(1.01654 -0.00104101 -1.03003e-22)
(1.01665 -0.00101059 0)
(1.01636 -0.000620369 5.22282e-22)
(1.01659 -0.000888969 -1.05698e-21)
(1.01619 -0.000864828 0)
(1.01619 -0.000814026 -2.26989e-22)
(1.01577 -0.000889107 0)
(1.01595 -0.000832566 -1.18067e-22)
(1.01471 -0.00109171 0)
(1.01537 -0.000929147 -2.47809e-22)
(1.01347 -0.000519641 -1.36437e-24)
(1.01398 -0.000854414 -1.95083e-22)
(1.01325 -0.000491107 -1.36828e-22)
(1.01331 -0.000201442 2.52989e-22)
(1.01245 -0.00183856 7.48137e-23)
(1.01279 -0.00111198 7.26303e-23)
(1.01255 -0.00208948 -5.98241e-22)
(1.01396 0.00135031 -7.04784e-23)
(1.01285 0.000880331 -7.08681e-23)
(1.01646 0.00127905 4.187e-24)
(1.01505 0.00142835 0)
(1.01766 0.000498975 0)
(1.01726 0.00089231 6.4251e-23)
(1.01781 2.77976e-06 0)
(1.01764 0.000203806 0)
(1.01722 4.77473e-05 3.6077e-24)
(1.01748 0.0001831 4.73974e-22)
(1.01694 4.64654e-05 4.34967e-22)
(1.01703 0.000203733 0)
(1.0174 0.000146227 1.61482e-21)
(1.01699 -0.000279623 0)
(1.01718 -0.000585718 -9.9894e-23)
(1.01729 0.000287007 -1.61776e-21)
(1.01714 -7.05702e-05 -2.93335e-24)
(1.01735 -0.000871914 -3.80046e-22)
(1.01661 0.000106069 1.48247e-21)
(1.01794 0.000318889 -6.58186e-22)
(1.01729 0.00108785 0)
(1.01727 -0.00165103 -7.34716e-22)
(1.01877 0.00222845 6.43399e-22)
(1.01107 0.00178159 0)
(1.01102 0.000823905 0)
(1.01123 -0.000540071 6.26352e-22)
(1.0116 -0.00168856 2.97715e-22)
(1.01111 -0.00282404 0)
(1.01173 -0.00268196 3.17304e-22)
(1.01076 -0.0021298 -1.59748e-22)
(1.01113 0.00223932 0)
(1.01033 0.00208452 0)
(1.01044 0.00280949 2.52097e-21)
(1.01671 0.000121884 -1.41313e-21)
(1.01745 -0.00138653 0)
(1.01812 -0.000855963 1.4779e-21)
(1.01826 0.000842452 1.18003e-23)
(1.01824 -0.000552187 -3.6671e-21)
(1.01791 0.000778077 0)
(1.01731 -0.000201158 1.29516e-21)
(1.01094 0.000245851 0)
(1.01759 0.00023998 -3.97453e-22)
(1.01819 0.000990306 0)
(1.01666 0.000327401 -1.23494e-23)
(1.0169 -0.000144178 -5.84965e-24)
(1.01717 0.000275828 2.05052e-22)
(1.01693 -0.000196837 0)
(1.01701 -0.00051931 -3.37122e-24)
(1.01707 -1.38593e-05 2.13258e-22)
(1.01657 -0.000594074 3.56433e-24)
(1.0168 -0.000563032 2.2529e-22)
(1.01635 -0.00145891 -4.86599e-22)
(1.0165 -0.00122725 0)
(1.01602 -0.00191773 0)
(1.01616 -0.00188036 4.95914e-22)
(1.01521 -0.00134031 1.32127e-22)
(1.01571 -0.00163684 -6.58456e-23)
(1.01338 -0.00133298 0)
(1.01441 -0.0012864 1.71002e-23)
(1.0121 -0.000855553 1.42157e-22)
(1.0125 -0.00114859 -2.92421e-22)
(1.0119 -0.0010062 -6.06945e-22)
(1.01356 0.0020438 5.36139e-22)
(1.01227 0.00171252 -2.32489e-24)
(1.01468 0.00244565 2.12857e-22)
(1.0142 0.0026195 -8.55477e-22)
(1.01507 0.00199287 -1.61757e-23)
(1.01495 0.00196956 5.41999e-22)
(1.01541 0.00151844 0)
(1.01514 0.00169152 -6.05019e-22)
(1.01607 0.00107016 0)
(1.01568 0.00103336 0)
(1.01651 0.000730382 -7.04171e-24)
(1.01631 0.000567957 0)
(1.01675 0.000444511 0)
(1.01665 0.000463187 0)
(1.01709 0.000528553 0)
(1.01697 0.000807064 0)
(1.01708 0.000819189 -7.65508e-22)
(1.01715 -4.30085e-05 0)
(1.01741 -0.000154116 2.90513e-24)
(1.01746 0.000950965 7.82136e-22)
(1.01737 -0.000660265 -1.50128e-21)
(1.01667 0.000921585 -7.08561e-22)
(1.01773 0.00134977 1.3237e-21)
(1.01913 0.00166477 -1.44876e-21)
(1.01055 -0.00407291 -2.55747e-21)
(1.01008 0.00132127 0)
(1.01012 -0.000632802 -7.93485e-22)
(1.00964 0.00353726 -2.70696e-21)
(1.00942 0.0023282 0)
(1.01035 -0.00296373 -3.2761e-22)
(1.00974 -0.00211298 -9.93464e-22)
(1.01933 0.000153256 -1.37815e-24)
(1.01799 -0.00153061 -2.87717e-24)
(1.01536 0.000482175 -1.23643e-21)
(1.01747 0.00010459 -1.28225e-21)
(1.01792 -0.000243661 -1.33421e-21)
(1.01749 -0.000646071 0)
(1.01891 -0.00104004 -3.88155e-22)
(1.01921 -0.000880383 -7.28653e-22)
(1.01017 -0.00496642 2.56503e-21)
(1.00968 -0.005218 3.31317e-22)
(1.00891 -0.00344487 2.35627e-21)
(1.01847 0.000149806 4.52429e-23)
(1.01026 0.000131321 0)
(1.01764 -0.000721118 -3.71889e-22)
(1.01814 -0.00133093 1.53908e-21)
(1.0171 -0.000525253 3.93523e-22)
(1.01761 -0.000809259 -9.66252e-22)
(1.01712 -0.00104323 0)
(1.01728 -0.000763475 0)
(1.01672 -0.000979392 3.96584e-28)
(1.01664 -0.00125767 2.09191e-28)
(1.01633 -0.0012942 -3.53241e-24)
(1.01661 -0.00123848 0)
(1.01627 -0.00136134 0)
(1.01628 -0.00119065 2.29844e-28)
(1.01644 -0.00159406 0)
(1.01633 -0.00141453 0)
(1.01587 -0.00207298 0)
(1.01631 -0.00184177 0)
(1.01438 -0.00230625 0)
(1.01515 -0.00224712 0)
(1.01292 -0.00254287 0)
(1.01369 -0.0024272 0)
(1.01073 -0.00318214 4.63016e-22)
(1.01186 -0.00278947 0)
(1.00992 -0.00361982 0)
(1.01006 -0.00353992 3.06878e-24)
(1.00985 -0.00505268 0)
(1.00997 -0.00397997 6.3941e-22)
(1.01218 0.00356284 6.13439e-22)
(1.01041 0.00398646 8.03002e-22)
(1.01111 0.00355026 -6.16083e-22)
(1.01359 0.00282456 -2.14664e-22)
(1.01292 0.00361567 2.32404e-24)
(1.0146 0.0018741 1.38134e-22)
(1.01431 0.00194503 3.07649e-22)
(1.01504 0.00172224 7.38811e-28)
(1.01481 0.0019113 0)
(1.01524 0.0010163 0)
(1.01508 0.00127694 0)
(1.01575 0.000681148 0)
(1.0155 0.000790215 0)
(1.01638 0.000417529 6.72386e-29)
(1.01602 0.000583441 0)
(1.01684 0.000382634 0)
(1.01662 0.000476491 0)
(1.017 0.000274407 0)
(1.01712 0.000117057 0)
(1.01741 -0.00022944 -3.89913e-22)
(1.01738 0.000375707 4.05528e-22)
(1.01707 0.000251689 -3.72065e-22)
(1.01739 -0.000616914 4.81035e-23)
(1.01781 3.10955e-05 1.87165e-21)
(1.01616 0.00176188 9.24066e-22)
(1.01717 0.000938365 1.32551e-21)
(1.01945 0.000476252 0)
(1.00873 0.00397919 0)
(1.00954 0.00464298 -7.24392e-22)
(1.00871 -0.00554932 -2.75553e-21)
(1.0092 -0.00625496 0)
(1.00917 0.00153979 0)
(1.00909 -0.000788912 0)
(1.01894 -0.000110302 0)
(1.01839 -0.00113978 2.79437e-21)
(1.01822 -9.09025e-06 -1.10261e-21)
(1.01798 0.000219364 0)
(1.00837 0.00258922 -1.64291e-22)
(1.0084 -0.00222064 1.31408e-21)
(1.00811 0.00546774 -5.08915e-22)
(1.00781 0.00446974 1.67669e-22)
(1.00738 -0.00376196 -2.70977e-21)
(1.00727 -0.00604087 -4.98014e-23)
(1.00798 -0.00720888 0)
(1.01705 -0.00115484 -2.82261e-21)
(1.00912 0.0001613 0)
(1.01804 0.000352525 1.43345e-21)
(1.01833 -0.000199832 1.02347e-21)
(1.01796 -0.00130393 3.51243e-21)
(1.01738 3.48114e-05 6.03004e-22)
(1.01797 -0.000441418 -1.43563e-21)
(1.01763 -0.00022069 0)
(1.01784 -0.000106903 -3.73114e-22)
(1.01723 -0.000249895 -1.89717e-28)
(1.01729 -0.000205569 1.97273e-28)
(1.01714 -0.000667089 9.28921e-28)
(1.01738 -0.000559767 0)
(1.017 -0.000964564 0)
(1.01703 -0.000883043 0)
(1.01668 -0.001354 3.7181e-24)
(1.01681 -0.00121644 -2.29843e-28)
(1.01636 -0.00183744 -2.35584e-28)
(1.01652 -0.00160778 2.446e-28)
(1.01608 -0.00244764 0)
(1.01623 -0.00216463 0)
(1.01529 -0.00256188 -4.28225e-24)
(1.01581 -0.00259629 0)
(1.01355 -0.00275464 4.46944e-24)
(1.01453 -0.0025434 0)
(1.0113 -0.00343853 1.5213e-22)
(1.01237 -0.00316504 0)
(1.01046 -0.00424848 -1.27756e-21)
(1.01074 -0.00364733 -3.13364e-22)
(1.00887 -0.00617604 -1.34181e-21)
(1.00977 -0.00527908 6.32152e-22)
(1.00824 -0.00892992 -2.75909e-21)
(1.00843 -0.00755266 1.33882e-21)
(1.01078 0.00512601 -6.39384e-22)
(1.00925 0.0069313 1.65776e-22)
(1.00986 0.0059544 7.07018e-22)
(1.01232 0.0035273 -9.9066e-22)
(1.01155 0.00447222 6.14019e-22)
(1.01343 0.00327781 4.98831e-22)
(1.01304 0.00309619 2.65003e-22)
(1.01445 0.00306044 0)
(1.01393 0.00339953 -6.10968e-22)
(1.01474 0.0020342 8.15861e-24)
(1.0146 0.00237048 2.66579e-28)
(1.01538 0.00175297 0)
(1.01506 0.00187234 0)
(1.01598 0.00141902 3.7062e-24)
(1.01566 0.00155529 0)
(1.01648 0.00113452 3.52024e-24)
(1.01624 0.0011654 0)
(1.0168 0.000833285 0)
(1.01672 0.000985656 0)
(1.01719 0.000757136 0)
(1.01705 0.000932233 0)
(1.01723 0.000668958 0)
(1.01722 0.000368648 0)
(1.0176 0.000240453 0)
(1.01784 0.000855966 -2.37931e-23)
(1.01788 -0.000147064 7.2626e-22)
(1.00692 0.0063462 6.75189e-22)
(1.00863 0.00757795 0)
(1.00656 -0.00825385 -5.28393e-22)
(1.00765 -0.0100423 3.51001e-21)
(1.01756 -0.000284744 0)
(1.01782 0.000629886 6.81373e-22)
(1.01859 -0.000891889 1.23366e-21)
(1.01837 0.000550194 -1.26402e-21)
(1.01508 0.00134435 -7.02269e-22)
(1.01771 0.000330922 2.47868e-23)
(1.01693 0.0020293 -6.32786e-24)
(1.01601 0.000381857 6.18868e-22)
(1.02033 0.000508698 1.32779e-21)
(1.02011 -0.00076776 -1.6144e-22)
(1.01773 3.37307e-05 0)
(1.01777 -0.00119077 -1.31954e-21)
(1.01799 -1.1762e-05 -1.68923e-21)
(1.00816 0.00169897 1.65635e-22)
(1.00788 -0.000722481 6.36059e-28)
(1.00715 0.00329392 -1.68324e-22)
(1.00697 -0.00229457 0)
(1.00643 0.00514369 0)
(1.00582 -0.0040812 0)
(1.00742 0.00838852 -1.63468e-22)
(1.00574 0.00732843 -1.16045e-23)
(1.00558 -0.00651855 2.64248e-21)
(1.00654 -0.0108872 -7.24624e-22)
(1.00487 -0.00936895 -2.21477e-21)
(1.01884 0.000635761 -1.38125e-21)
(1.01798 0.000370881 1.35436e-21)
(1.00789 0.00029416 6.42199e-28)
(1.01749 0.000364138 1.22862e-23)
(1.01842 -0.00202954 7.16229e-22)
(1.01753 -0.000358087 3.24524e-22)
(1.01839 -0.00186471 0)
(1.01748 -0.000801915 -1.78255e-28)
(1.01783 -0.00085883 -3.74128e-22)
(1.01726 -0.00109028 0)
(1.01753 -0.00102479 0)
(1.01706 -0.00131699 3.34257e-24)
(1.01717 -0.00109476 0)
(1.01683 -0.0014438 0)
(1.01695 -0.00132262 0)
(1.01657 -0.00160196 -7.43496e-24)
(1.0167 -0.00150647 0)
(1.01628 -0.00189559 -3.90507e-24)
(1.01642 -0.00171882 0)
(1.01601 -0.00255006 0)
(1.01614 -0.00217647 0)
(1.01559 -0.00358758 1.87363e-27)
(1.01585 -0.00301811 0)
(1.0144 -0.00470805 -1.49845e-27)
(1.0151 -0.00421857 0)
(1.01298 -0.00474054 -4.65506e-24)
(1.0137 -0.0048636 2.91664e-28)
(1.01078 -0.00491584 1.6221e-27)
(1.01197 -0.00466087 0)
(1.0091 -0.00669644 7.12669e-23)
(1.00971 -0.0056911 -6.56207e-22)
(1.00868 -0.00848126 1.41367e-21)
(1.00902 -0.00747294 2.10754e-21)
(1.00732 -0.0120444 -2.82321e-21)
(1.008 -0.0101086 -3.04013e-22)
(1.00982 0.00676989 -1.65996e-22)
(1.00801 0.0103664 1.74393e-22)
(1.00889 0.00828282 0)
(1.01113 0.00554036 9.9475e-23)
(1.01048 0.0061819 -2.23955e-22)
(1.01237 0.00509203 7.5267e-23)
(1.01183 0.00514778 1.95741e-23)
(1.01379 0.00392078 -2.22557e-24)
(1.01308 0.00477716 3.82086e-23)
(1.01434 0.00254155 0)
(1.01411 0.00295946 0)
(1.0152 0.00218809 -4.07947e-24)
(1.01474 0.00238106 5.32937e-28)
(1.01581 0.00176277 -4.80907e-28)
(1.01556 0.00197965 5.09027e-28)
(1.0163 0.00130971 -5.404e-28)
(1.01606 0.00151526 0)
(1.01673 0.0010146 0)
(1.0165 0.00114738 0)
(1.01707 0.000802282 -3.33403e-24)
(1.01687 0.000836799 0)
(1.01719 0.000363904 0)
(1.01724 0.00060054 0)
(1.01764 0.000195503 -2.96285e-24)
(1.01748 0.000715223 0)
(1.01746 0.000235784 5.7502e-24)
(1.01747 -0.000140745 -2.40898e-23)
(1.01786 0.000368322 1.0718e-21)
(1.01767 0.000814244 0)
(1.01809 -0.000223142 4.74275e-21)
(1.01802 -0.000500822 -3.49139e-21)
(1.01797 -0.000522421 -3.93395e-23)
(1.01821 0.00055496 0)
(1.01702 -0.000282108 1.26243e-21)
(1.01818 -9.40823e-05 2.35064e-23)
(1.01553 0.00209451 0)
(1.01707 0.000192473 0)
(1.01825 0.00116271 6.00306e-22)
(1.01609 -0.000445469 1.43613e-28)
(1.0204 0.000305785 -3.22454e-22)
(1.02051 -0.00175657 -1.06497e-21)
(1.01725 -0.00100512 0)
(1.0179 -0.000525922 9.61017e-22)
(1.00582 0.009585 2.79177e-24)
(1.00724 0.0119876 -1.77473e-22)
(1.00525 -0.0120828 2.9727e-21)
(1.00638 -0.0136839 5.52775e-21)
(1.01877 -0.00193593 1.32508e-21)
(1.01808 -0.00105532 -6.71847e-22)
(1.0068 0.00161656 1.06608e-26)
(1.00668 -0.00103582 0)
(1.00571 0.00347841 0)
(1.00537 -0.00269604 1.87078e-26)
(1.00479 0.0057605 2.07559e-24)
(1.00418 -0.00452558 7.15535e-22)
(1.00419 0.0084614 -4.19475e-24)
(1.00355 -0.00717028 0)
(1.00641 0.0135056 -1.46742e-21)
(1.00398 0.0109786 5.66835e-24)
(1.00323 -0.0106317 3.4819e-21)
(1.00545 -0.0152907 -5.9748e-21)
(1.00357 -0.0141759 -1.46995e-21)
(1.00769 0.0127504 1.24996e-21)
(1.00522 0.0149571 1.47262e-21)
(1.00698 0.0150654 1.4979e-21)
(1.00456 -0.0173998 -3.37764e-21)
(1.0072 -0.0167087 6.72876e-21)
(1.00665 -0.0192128 1.12526e-21)
(1.01864 -0.00170465 6.44205e-22)
(1.01905 0.000238874 0)
(1.01926 -0.000233385 -7.55372e-22)
(1.0067 0.000480035 6.66394e-28)
(1.01815 0.00199423 3.40632e-22)
(1.0175 -0.000986896 1.3458e-21)
(1.01646 0.00154455 -6.89507e-22)
(1.01845 -0.00335129 -3.36863e-22)
(1.01733 0.00024777 0)
(1.01873 -0.001412 0)
(1.01743 -0.000468973 0)
(1.01811 -0.000656761 0)
(1.01751 -0.000704555 0)
(1.0177 -0.000516117 0)
(1.01736 -0.000988367 0)
(1.01744 -0.00081743 0)
(1.01714 -0.00131718 -4.24855e-28)
(1.01726 -0.00115615 4.41438e-28)
(1.01683 -0.00170483 3.71642e-24)
(1.01701 -0.00151892 4.65122e-28)
(1.01641 -0.00215481 3.90507e-24)
(1.01663 -0.0019271 0)
(1.01598 -0.00271073 0)
(1.01619 -0.00241984 0)
(1.01566 -0.00336517 1.33522e-27)
(1.01579 -0.00303424 0)
(1.0155 -0.0040785 -1.50229e-27)
(1.0156 -0.00369713 0)
(1.01473 -0.00514556 4.65483e-24)
(1.01525 -0.00456841 0)
(1.01246 -0.00625742 9.67969e-24)
(1.0138 -0.00576816 3.00266e-28)
(1.0102 -0.00667411 5.68957e-22)
(1.01115 -0.00641346 0)
(1.00794 -0.00929509 -6.94254e-22)
(1.00912 -0.00757581 -7.46779e-22)
(1.00777 -0.0127705 2.82761e-21)
(1.00757 -0.0112449 -1.77443e-21)
(1.00766 -0.0144592 -5.97892e-21)
(1.00852 0.00957665 7.15945e-22)
(1.00799 0.0108912 -1.94286e-21)
(1.01012 0.00819588 2.52729e-24)
(1.00925 0.00905748 8.43194e-23)
(1.01181 0.00617727 6.11017e-22)
(1.01098 0.00709883 -6.51042e-22)
(1.01377 0.00472703 2.31702e-24)
(1.01288 0.00542141 -1.9881e-23)
(1.0143 0.00406158 2.22381e-24)
(1.01409 0.00420578 1.16144e-27)
(1.01518 0.00355783 0)
(1.01471 0.00391566 0)
(1.01575 0.00270303 1.00714e-27)
(1.01553 0.00309782 -1.06576e-27)
(1.01615 0.00213031 0)
(1.01596 0.00239285 0)
(1.01653 0.00170711 -2.06309e-28)
(1.01634 0.00189909 0)
(1.01686 0.00135742 0)
(1.01671 0.00153048 0)
(1.01716 0.00110458 3.33403e-24)
(1.017 0.00123489 0)
(1.01741 0.00095275 0)
(1.01718 0.000936363 0)
(1.01741 0.000507167 -1.72722e-27)
(1.0175 0.000746938 7.79259e-28)
(1.01817 0.000304793 -5.59061e-24)
(1.01768 0.000973704 0)
(1.01762 0.000375449 0)
(1.01773 0.000167508 -3.49902e-25)
(1.01825 0.000387837 -1.34618e-21)
(1.01781 0.000329552 -2.66458e-24)
(1.01841 0.000330744 -1.39225e-21)
(1.0174 0.00049437 2.31509e-21)
(1.01908 0.000859595 -1.26071e-21)
(1.01683 0.00111759 0)
(1.01758 -0.00088524 0)
(1.01601 0.00230563 6.81473e-26)
(1.01552 0.000469423 1.38271e-28)
(1.01918 -9.86859e-05 7.06431e-26)
(1.0171 -0.00118025 1.38015e-28)
(1.01962 -2.40467e-05 7.2314e-23)
(1.02009 -0.00207858 2.76593e-28)
(1.01778 -0.000895077 5.88506e-22)
(1.0182 0.000323074 -3.76333e-22)
(1.01856 -2.5146e-05 -2.50502e-23)
(1.00532 0.00212418 -2.09359e-26)
(1.00522 -0.001055 3.97371e-27)
(1.00415 0.00407503 0)
(1.0038 -0.00303248 -2.13204e-26)
(1.00318 0.00643934 -2.81469e-24)
(1.00248 -0.0053825 -7.16697e-22)
(1.00251 0.00967584 1.71717e-23)
(1.00144 -0.00808006 -1.82229e-22)
(1.00216 0.0126654 3.50622e-23)
(1.00136 -0.0116723 0)
(1.00579 0.0177935 -1.68134e-21)
(1.00368 0.0166818 0)
(1.00168 -0.016157 -1.49105e-21)
(1.0058 -0.021895 6.17798e-21)
(1.00309 -0.0201457 3.05837e-21)
(1.0077 0.0190459 2.85856e-25)
(1.00467 0.020481 -3.06177e-21)
(1.00733 0.0212951 -2.36019e-23)
(1.00468 -0.0247209 -1.17291e-23)
(1.00763 -0.0224203 6.01226e-21)
(1.00786 -0.0259569 5.82979e-21)
(1.01778 0.00197392 0)
(1.01935 0.00326537 -2.39427e-21)
(1.01818 -0.00335002 1.25678e-21)
(1.01586 0.00169173 -1.31333e-21)
(1.0052 0.000438109 -3.97451e-27)
(1.01509 0.00507102 -6.34015e-22)
(1.0202 -0.00221017 -6.36971e-22)
(1.01604 0.00365172 8.51361e-23)
(1.02107 -0.00664128 -3.30464e-22)
(1.01699 0.000269125 -1.38928e-24)
(1.01921 -0.00306685 1.38822e-27)
(1.01753 -0.000707473 0)
(1.01828 -0.00133275 0)
(1.01755 -0.00109712 0)
(1.0177 -0.00112194 0)
(1.01737 -0.00135565 3.3384e-24)
(1.01747 -0.00123557 0)
(1.01718 -0.00159981 0)
(1.0173 -0.0014651 0)
(1.01696 -0.0018964 0)
(1.01709 -0.00173637 0)
(1.01667 -0.00231244 0)
(1.01683 -0.00208419 0)
(1.01633 -0.00292129 0)
(1.0165 -0.00259174 0)
(1.01602 -0.0037846 4.27904e-24)
(1.01617 -0.0033171 0)
(1.01569 -0.00488909 -2.67069e-27)
(1.01586 -0.00431033 1.11883e-27)
(1.01517 -0.00626715 0)
(1.01547 -0.00555362 0)
(1.01424 -0.00746677 -2.72369e-27)
(1.01477 -0.00689814 -3.00266e-28)
(1.01232 -0.00925296 5.02218e-24)
(1.01346 -0.00826237 1.25865e-27)
(1.01015 -0.0101358 6.78321e-22)
(1.01102 -0.00991425 6.58046e-25)
(1.00921 -0.0122135 -3.54607e-22)
(1.00971 -0.0106698 -3.37238e-22)
(1.008 -0.0163304 -2.40896e-21)
(1.00859 -0.0143529 1.63006e-21)
(1.00758 -0.0190133 -6.76286e-21)
(1.00888 0.0147757 1.78481e-22)
(1.00802 0.0168394 -2.83855e-23)
(1.01051 0.0117383 -2.11799e-23)
(1.00979 0.0132235 0)
(1.01184 0.00879853 -2.49873e-24)
(1.01123 0.0101187 -8.53865e-23)
(1.01309 0.00766695 0)
(1.01244 0.00809412 0)
(1.01405 0.00642118 -6.75466e-28)
(1.01358 0.00709844 0)
(1.01503 0.00463083 0)
(1.01457 0.00554993 0)
(1.01552 0.00338172 0)
(1.01533 0.00389272 0)
(1.01592 0.00273572 -4.0766e-24)
(1.01569 0.00303064 0)
(1.01637 0.00222038 0)
(1.01616 0.0024636 0)
(1.01674 0.0017707 -3.70545e-24)
(1.01656 0.00199005 0)
(1.01705 0.00138355 -3.51909e-24)
(1.0169 0.00157418 0)
(1.0173 0.00105161 -3.33358e-24)
(1.01719 0.00123213 2.215e-28)
(1.01754 0.000781331 -3.14675e-24)
(1.01741 0.0009425 -1.65339e-27)
(1.01774 0.00069947 3.95384e-28)
(1.01754 0.000633137 0)
(1.01773 0.000475025 0)
(1.01777 0.000265825 0)
(1.0181 0.000189145 0)
(1.01787 0.000516274 3.50504e-25)
(1.01823 -7.69546e-05 1.25954e-21)
(1.01813 0.0003398 2.61724e-24)
(1.01821 0.000251893 -1.0979e-21)
(1.01818 -0.000626804 0)
(1.01923 -0.000630501 3.65014e-21)
(1.01689 0.000817404 -1.21821e-21)
(1.01828 0.00065235 -3.59945e-22)
(1.01615 0.00132533 -1.31227e-25)
(1.01667 -0.000211866 -2.67381e-28)
(1.0168 0.0016334 -1.33635e-25)
(1.01475 0.000558296 -2.66705e-28)
(1.01959 -0.000878806 2.61189e-28)
(1.01817 -0.0014572 -2.65573e-28)
(1.01841 -0.000200002 1.39262e-22)
(1.01937 -0.00175497 -2.65965e-28)
(1.01755 -0.000109217 -5.85848e-22)
(1.01798 0.000600415 -1.41909e-22)
(1.01734 0.00045954 -6.06255e-22)
(1.00378 0.00238091 0)
(1.00355 -0.00119137 -1.3328e-27)
(1.00241 0.00488815 0)
(1.00204 -0.00340772 8.84363e-26)
(1.00129 0.00765748 3.5392e-24)
(1.00064 -0.0064528 1.42534e-24)
(1.00061 0.0111437 -1.14817e-23)
(0.999401 -0.00975756 -5.79821e-24)
(1.00041 0.0147478 -4.65794e-23)
(0.998883 -0.0134311 -1.18253e-23)
(1.00197 0.0190023 0)
(0.999675 -0.017956 -1.55497e-21)
(1.00673 0.0240485 -3.10731e-21)
(1.00364 0.0235329 6.1766e-21)
(1.00123 -0.023357 9.6637e-23)
(1.00785 -0.0294394 -6.19908e-21)
(1.00365 -0.0282349 -6.37281e-21)
(1.02056 0.00290657 2.66299e-23)
(1.00355 0.000583193 8.09647e-27)
(1.01647 -0.00190608 -1.33148e-21)
(1.02149 0.0012647 7.63917e-21)
(1.01492 0.000597838 -4.73928e-21)
(1.00912 0.00139307 1.61619e-22)
(1.02482 2.61343e-05 1.23588e-21)
(1.01302 0.000650129 -8.50263e-23)
(1.02505 -0.00231413 1.64865e-22)
(1.0165 -6.00126e-05 -3.50691e-22)
(1.02086 -0.00128293 3.13428e-22)
(1.01755 -0.00082092 -2.96242e-24)
(1.01852 -0.000698396 1.48097e-27)
(1.01766 -0.000891381 -3.14762e-24)
(1.01795 -0.000807448 -1.57524e-27)
(1.01758 -0.00119945 -1.38856e-27)
(1.0177 -0.00118002 0)
(1.01741 -0.00159842 0)
(1.0175 -0.00145608 0)
(1.01717 -0.00201688 -3.7129e-24)
(1.0173 -0.0018122 0)
(1.01688 -0.00248491 1.88189e-27)
(1.01703 -0.00224434 -1.9539e-27)
(1.01655 -0.00304183 1.97352e-27)
(1.01672 -0.0027497 -2.04833e-27)
(1.0162 -0.00372277 -2.065e-27)
(1.01637 -0.00336532 2.14254e-27)
(1.0159 -0.00461415 -8.92984e-24)
(1.01604 -0.0041315 2.23666e-27)
(1.01575 -0.00590853 4.64722e-24)
(1.01581 -0.0052021 2.33045e-27)
(1.01546 -0.0074776 -1.52595e-27)
(1.01566 -0.00669833 0)
(1.0146 -0.00882892 5.0162e-24)
(1.0151 -0.0081882 2.51624e-27)
(1.01321 -0.0106313 5.20271e-24)
(1.01403 -0.00957222 0)
(1.01054 -0.0136703 3.78614e-22)
(1.01186 -0.0119907 0)
(1.00946 -0.0179077 1.64186e-21)
(1.00983 -0.0156661 -1.79264e-21)
(1.0092 -0.0222323 0)
(1.00925 -0.0200483 1.85797e-22)
(1.01029 -0.0295947 6.0823e-21)
(1.0095 -0.0252467 -5.78716e-21)
(1.00997 0.0187471 1.84926e-22)
(1.00941 0.0252354 1.54272e-21)
(1.00949 0.0216776 -1.48941e-21)
(1.0106 0.0144113 4.44032e-23)
(1.01042 0.0165438 5.63186e-24)
(1.0117 0.0108761 0)
(1.01102 0.0123874 0)
(1.01344 0.00917497 -2.49848e-24)
(1.01247 0.0099547 0)
(1.01472 0.00714592 0)
(1.0143 0.00814107 0)
(1.01495 0.00564195 -2.31623e-24)
(1.01485 0.00632545 0)
(1.01523 0.00465388 0)
(1.01507 0.00509258 0)
(1.01576 0.00386178 0)
(1.01547 0.00426197 0)
(1.01628 0.00306955 7.40205e-28)
(1.01604 0.00345076 0)
(1.01666 0.00245171 0)
(1.01648 0.00274057 0)
(1.01696 0.00195416 -3.66428e-27)
(1.01682 0.00218907 3.87954e-27)
(1.01722 0.00155702 3.5156e-24)
(1.01709 0.00174775 3.68853e-27)
(1.01742 0.00124354 6.66371e-24)
(1.01732 0.00139639 3.27622e-27)
(1.01758 0.000983841 -8.71894e-31)
(1.01752 0.00110771 0)
(1.01774 0.000665683 2.96662e-24)
(1.01771 0.000919636 -3.11681e-27)
(1.01803 0.000613002 2.7606e-27)
(1.01779 0.000813027 -2.92743e-27)
(1.01784 0.000493252 0)
(1.018 0.000223537 0)
(1.01794 0.000608282 -2.07206e-22)
(1.01834 0.000579316 3.27782e-22)
(1.01859 -0.000308862 0)
(1.01835 -2.98519e-05 -3.98875e-23)
(1.01836 -0.000281182 0)
(1.01679 -0.000812739 0)
(1.01798 -0.00137261 -4.02344e-23)
(1.01894 0.00119187 -1.1374e-21)
(1.0162 0.00121738 1.37013e-22)
(1.01817 0.00028143 2.75854e-22)
(1.01671 0.00171602 6.08107e-27)
(1.01611 0.000896006 0)
(1.01782 0.000516806 6.56136e-26)
(1.01519 3.47727e-05 0)
(1.01972 -0.000944365 0)
(1.01898 -0.00137383 0)
(1.01758 -0.000423065 -1.57371e-26)
(1.0189 -0.00117927 0)
(1.01736 -0.000533337 0)
(1.0175 6.86014e-05 0)
(1.01676 -0.00265837 0)
(1.01647 -0.000899481 -2.69606e-22)
(1.01943 -0.0006873 0)
(1.01709 -0.00151918 5.51799e-22)
(1.00611 0.0276885 6.23554e-21)
(1.00941 0.028484 0)
(1.00762 -0.0336218 3.97528e-22)
(1.01122 -0.0340027 3.97922e-22)
(1.00181 0.00271364 -1.76926e-25)
(1.00162 -0.00143116 0)
(1.01852 -0.0010219 0)
(1.00034 0.0054982 -5.34742e-25)
(0.999774 -0.00389225 -6.61208e-26)
(1.01767 -0.00644284 1.8097e-21)
(1.01857 -0.00016469 0)
(1.02205 8.67316e-05 0)
(0.999161 0.00883128 -1.45177e-24)
(0.998149 -0.00716836 -1.46515e-24)
(0.998385 0.012782 0)
(0.997045 -0.0111498 1.17546e-23)
(0.998524 0.0171491 0)
(0.996366 -0.0158633 0)
(1.00008 0.0218626 0)
(0.997389 -0.0204318 7.5391e-22)
(1.00253 0.0268712 4.14481e-23)
(0.999286 -0.0268694 1.95597e-22)
(1.00953 0.0322988 0)
(1.00548 0.0318372 -3.30506e-21)
(1.00275 -0.0323047 -3.57066e-21)
(1.00732 -0.0383937 6.38862e-21)
(1.01237 -0.0386751 -6.38685e-21)
(1.0016 0.000694653 -5.43055e-27)
(1.01478 -0.00224386 6.61014e-22)
(1.01914 0.00682979 0)
(1.01223 0.00401264 -1.63455e-22)
(1.02398 -0.00401027 -3.01233e-22)
(1.01532 0.00128507 0)
(1.02215 -0.00378742 1.59245e-22)
(1.0173 -0.000749456 0)
(1.01961 -0.0012185 4.40129e-23)
(1.0178 -0.000881128 2.961e-24)
(1.01823 -0.000901229 0)
(1.01776 -0.00126108 6.297e-24)
(1.01796 -0.00101982 0)
(1.01769 -0.0014828 -1.30266e-27)
(1.01779 -0.00119178 0)
(1.01757 -0.00174313 -3.52026e-24)
(1.01763 -0.00154015 -3.52778e-27)
(1.01739 -0.00211986 3.70932e-24)
(1.01748 -0.00191053 3.717e-27)
(1.01716 -0.00262058 -3.90339e-24)
(1.01728 -0.00235445 3.66521e-27)
(1.01689 -0.0032452 -3.94604e-27)
(1.01703 -0.00291676 3.84257e-27)
(1.0166 -0.00401619 -4.27906e-24)
(1.01675 -0.00361146 4.2843e-27)
(1.01629 -0.00498089 8.92494e-24)
(1.01645 -0.00446844 0)
(1.01608 -0.00626426 -5.9955e-27)
(1.01616 -0.00557363 4.65976e-27)
(1.01612 -0.00802756 -9.66797e-24)
(1.01607 -0.00707954 0)
(1.01605 -0.0101501 -5.01377e-24)
(1.01617 -0.00907102 -5.03099e-27)
(1.01505 -0.0122984 0)
(1.01568 -0.0112512 0)
(1.01326 -0.0142029 6.69993e-22)
(1.0142 -0.0132574 -7.03135e-22)
(1.01182 -0.0169802 0)
(1.01236 -0.0152916 -3.40463e-28)
(1.01161 -0.0221647 2.36581e-22)
(1.01161 -0.0193685 -3.69588e-22)
(1.01274 -0.0284056 3.08009e-21)
(1.01198 -0.0253956 -3.07209e-21)
(1.01622 -0.0368287 0)
(1.01407 -0.0322062 -3.96051e-22)
(1.01233 0.0243115 7.54399e-22)
(1.01338 0.0315187 -2.08859e-22)
(1.01266 0.0277558 -1.55539e-21)
(1.01203 0.0196839 1.45382e-21)
(1.01209 0.0220342 -7.43196e-22)
(1.01282 0.0153981 6.86293e-22)
(1.01224 0.0172068 -2.17411e-21)
(1.0143 0.0132782 -2.58655e-24)
(1.01368 0.0142938 2.18963e-23)
(1.01448 0.010523 2.49848e-24)
(1.01445 0.0119442 0)
(1.01494 0.00823045 9.49254e-27)
(1.01464 0.00928938 -1.00365e-26)
(1.01556 0.00645933 -9.1363e-27)
(1.01528 0.0072811 9.66171e-27)
(1.01598 0.00510528 -2.22285e-24)
(1.01579 0.00575595 0)
(1.01633 0.00399222 8.41502e-27)
(1.01616 0.00450776 -8.90276e-27)
(1.01664 0.00319584 4.06781e-24)
(1.01649 0.00356227 8.52128e-27)
(1.01693 0.00257997 0)
(1.01678 0.00287326 0)
(1.01718 0.00207471 3.70404e-24)
(1.01706 0.00231488 -2.45324e-28)
(1.01739 0.00165845 -6.96514e-27)
(1.01729 0.00185752 7.37634e-27)
(1.01758 0.00132406 -4.60989e-28)
(1.01749 0.00147254 0)