/*--------------------------------*- C++ -*----------------------------------*\
  =========                 |
  \\      /  F ield         | OpenFOAM: The Open Source CFD Toolbox
   \\    /   O peration     | Website:  https://openfoam.org
    \\  /    A nd           | Version:  10
     \\/     M anipulation  |
\*---------------------------------------------------------------------------*/
FoamFile
{
    format      ascii;
    class       volScalarField;
    location    "20";
    object      p;
}
// * * * * * * * * * * * * * * * * * * * * * * * * * * * * * * * * * * * * * //

dimensions      [0 2 -2 0 0 0 0];

internalField   nonuniform List<scalar> 
28942
(
-0.61423
-0.60818
-0.14689
0.247344
0.257224
-0.0059986
-0.000913332
-0.00731225
0.046393
0.0506414
-0.327411
-0.320722
-0.338175
-0.339609
0.00156667
0.00600197
0.433703
0.459259
0.203794
0.276014
0.301712
0.306187
-0.357457
-0.361345
-0.348231
-0.380859
0.79462
0.808385
0.0377797
0.0504981
-0.00804146
-0.00715782
0.0198834
0.00613188
0.077487
0.130356
0.403446
0.540938
-0.00642795
0.416568
0.267624
0.295442
-0.0372673
-0.0528862
-0.0254147
-0.00274398
-0.0011239
-0.00340771
-0.00139493
0.00532238
0.0132526
0.0340946
0.0374984
0.0577921
0.062915
-0.276088
-0.229309
-0.342107
-0.338549
-0.342418
-0.344683
-0.342229
-0.341165
-0.0941218
-0.185429
-0.0699575
-0.00295487
0.44416
0.418153
-0.622927
-0.625558
-0.624716
0.447431
0.425102
0.446744
-0.395217
-0.392852
-0.315517
-0.123566
-0.174966
-0.1003
-0.224115
-0.695694
-0.743903
-0.144765
-0.0443606
0.0304403
-0.00741228
-0.079523
-0.0719355
-0.0301514
-0.00463959
-0.363384
-0.342991
-0.3532
-0.364471
-0.38126
-0.00860549
0.045299
-0.784546
0.275697
0.277625
0.254272
0.261219
-0.168875
-0.161211
-0.17961
0.126273
0.135842
0.137967
-0.340871
-0.341321
-0.620997
-0.59393
-0.589652
0.846659
0.778079
0.709156
0.788084
-0.0967253
0.0672565
-0.0022171
0.116966
0.101494
0.901336
0.918045
0.882117
0.129164
0.167876
-0.00465943
-0.00374079
-0.00615355
0.471244
0.567066
0.19428
0.184527
0.264315
0.237922
0.37374
0.274021
-0.372254
-0.360598
0.183581
-0.000580742
-0.0123434
-0.195086
-0.207684
-0.188466
-0.356195
0.0787257
0.0846983
-0.144599
-0.00388575
-0.00434187
-0.00375566
-0.00343517
0.161535
0.0693669
-0.45997
-0.49455
-0.50554
-0.640219
-0.612771
-0.00252599
-0.363808
-0.338761
0.323378
0.333365
0.402411
0.37793
0.29041
0.0101236
0.00807088
0.0686672
0.0603207
0.0989941
0.0845475
0.106255
0.119766
0.115874
0.122166
0.135071
0.172816
0.152324
0.126891
0.148623
0.195274
0.252969
0.276657
-0.565512
-0.566937
-0.578709
-0.00527861
-0.00517587
-0.478281
-0.500545
0.00235668
0.00208405
0.000257586
3.40071e-05
-0.134555
-0.13633
-0.139123
-0.343026
-0.342607
-0.3503
-0.349337
-0.349913
-0.347782
-0.372342
-0.424344
-0.38973
0.829255
0.795398
0.842965
-0.14544
-0.130635
-0.140631
0.47569
0.460291
0.467095
-0.219894
-0.202113
-0.237299
-0.184932
-0.168602
-0.153659
-0.148936
-0.140447
-0.137307
-0.162133
-0.176663
-0.192016
-0.207955
-0.223329
-0.128863
-0.126895
-0.253908
-0.23786
-0.269042
-0.118746
-0.117647
-0.250761
-0.110045
-0.102801
-0.110026
-0.103828
-0.281039
-0.260739
-0.0968817
-0.0988508
-0.289852
-0.267881
-0.0921257
-0.0949861
-0.294663
-0.271399
-0.088443
-0.0921509
-0.295347
-0.271168
-0.0857099
-0.0902566
-0.291658
-0.266956
-0.0838737
-0.0892321
-0.28377
-0.259078
-0.0828331
-0.0890177
-0.272073
-0.247935
-0.0825764
-0.0895963
-0.256977
-0.234145
-0.0830913
-0.0909857
-0.239941
-0.218547
-0.0843398
-0.0932497
-0.221124
-0.201664
-0.0862866
-0.0963047
-0.202103
-0.184597
-0.0894408
-0.100327
-0.238961
-0.218426
-0.184045
-0.168557
-0.277185
-0.258633
-0.304325
-0.292382
-0.314946
-0.311949
-0.307631
-0.313566
-0.283899
-0.297479
-0.249274
-0.267657
-0.210386
-0.229704
-0.173707
-0.191669
-0.142649
-0.157309
-0.118721
-0.129874
-0.100953
-0.109097
-0.0886275
-0.0941832
-0.0806783
-0.0841666
-0.0762753
-0.0780773
-0.0749352
-0.0752266
-0.0767338
-0.0753361
-0.078874
-0.0935341
-0.105291
-0.10151
-0.111028
-0.105839
-0.0957021
-0.0980914
-0.0935906
-0.0942383
-0.0948173
-0.0937775
-0.0997501
-0.0967894
-0.108935
-0.103777
-0.123229
-0.115375
-0.142698
-0.132445
-0.166886
-0.154365
-0.194071
-0.180243
-0.219935
-0.207632
-0.239125
-0.230672
-0.247184
-0.244741
-0.241752
-0.246211
-0.22342
-0.234016
-0.196291
-0.210683
-0.166101
-0.181208
-0.152043
-0.19876
-0.0818864
-0.11705
-0.154054
-0.139557
-0.181204
-0.167992
-0.254808
-0.212535
-0.233411
-0.29444
-0.275506
-0.321892
-0.310076
-0.332005
-0.329282
-0.322673
-0.329669
-0.296337
-0.311327
-0.258251
-0.278325
-0.216184
-0.237385
-0.176866
-0.19581
-0.143403
-0.159202
-0.117596
-0.129608
-0.098382
-0.107228
-0.0847485
-0.0909412
-0.0755812
-0.0796719
-0.0699727
-0.07238
-0.0673442
-0.0683074
-0.0675923
-0.0670685
-0.0982225
-0.085628
-0.070779
-0.0687674
-0.121321
-0.128457
-0.123829
-0.110909
-0.109408
-0.114914
-0.101418
-0.104888
-0.0973005
-0.0989074
-0.0966594
-0.0965516
-0.0996474
-0.097677
-0.10669
-0.102636
-0.118369
-0.111905
-0.134992
-0.126114
-0.155843
-0.144991
-0.178919
-0.167217
-0.200931
-0.190563
-0.217104
-0.209985
-0.223204
-0.221613
-0.217033
-0.221676
-0.199364
-0.209462
-0.174009
-0.187318
-0.147121
-0.160293
-0.124333
-0.134805
-0.193398
-0.129503
-0.115875
-0.142275
-0.0733461
-0.136135
-0.166349
-0.176881
-0.121948
-0.109607
-0.154457
-0.0601481
-0.0618424
-0.130381
-0.143456
-0.185821
-0.163165
-0.158187
-0.170351
-0.224517
-0.203996
-0.268603
-0.246484
-0.308987
-0.289882
-0.336577
-0.324847
-0.345768
-0.343656
-0.334639
-0.342688
-0.30552
-0.322016
-0.264575
-0.286026
-0.219707
-0.242159
-0.177928
-0.198116
-0.142751
-0.159379
-0.115433
-0.128147
-0.0950439
-0.104453
-0.0803522
-0.087065
-0.0701692
-0.0747663
-0.0635253
-0.0664564
-0.0597661
-0.0613155
-0.0586374
-0.0588699
-0.0590345
-0.102946
-0.0765084
-0.0894995
-0.116772
-0.131063
-0.14787
-0.139314
-0.116765
-0.123433
-0.106542
-0.111132
-0.100348
-0.102972
-0.0977297
-0.0986073
-0.0986685
-0.0977405
-0.103474
-0.100568
-0.112543
-0.107452
-0.126094
-0.118775
-0.143516
-0.134418
-0.162891
-0.153078
-0.181239
-0.172529
-0.194329
-0.188682
-0.198485
-0.197703
-0.191706
-0.196476
-0.174821
-0.184357
-0.151492
-0.163637
-0.127542
-0.139192
-0.108546
-0.117199
-0.0967118
-0.101703
-0.10537
-0.0935191
-0.154292
-0.133303
-0.0641844
-0.156161
-0.151939
-0.116453
-0.144519
-0.0921142
-0.103025
-0.141251
-0.132426
-0.144195
-0.163021
-0.152185
-0.192417
-0.175823
-0.233882
-0.212099
-0.279568
-0.2568
-0.320402
-0.301065
-0.347886
-0.336282
-0.356158
-0.35463
-0.343241
-0.352295
-0.311655
-0.32944
-0.268043
-0.290828
-0.220847
-0.244386
-0.177166
-0.198247
-0.140696
-0.157932
-0.112277
-0.125513
-0.0909984
-0.100835
-0.0754869
-0.0826068
-0.0644856
-0.0694943
-0.0569817
-0.0603507
-0.0522602
-0.0543091
-0.0499401
-0.0508284
-0.0500435
-0.0496884
-0.0527137
-0.0510503
-0.0797807
-0.05464
-0.0667683
-0.107502
-0.0934059
-0.136053
-0.121839
-0.163412
-0.14996
-0.159238
-0.17635
-0.16826
-0.140261
-0.149662
-0.123478
-0.131387
-0.110975
-0.116691
-0.102662
-0.106327
-0.0980215
-0.0999081
-0.0968692
-0.0970044
-0.0993922
-0.0976561
-0.105861
-0.102122
-0.116351
-0.110617
-0.130342
-0.122991
-0.146154
-0.138158
-0.160976
-0.153928
-0.171184
-0.166885
-0.17353
-0.17349
-0.166295
-0.171116
-0.15033
-0.159242
-0.12911
-0.140068
-0.108049
-0.118193
-0.0922461
-0.0992884
-0.0833362
-0.0870234
-0.080643
-0.0812286
-0.0923583
-0.081634
-0.144731
-0.127043
-0.14294
-0.113224
-0.0417949
-0.0432389
-0.16908
-0.182526
-0.137005
-0.102414
-0.130265
-0.139707
-0.0943386
-0.0842699
-0.12976
-0.136556
-0.163873
-0.151242
-0.196335
-0.178461
-0.24016
-0.217263
-0.286853
-0.263669
-0.328212
-0.30872
-0.355623
-0.344138
-0.362964
-0.362017
-0.348323
-0.358324
-0.314505
-0.333443
-0.268634
-0.292516
-0.21961
-0.243993
-0.174623
-0.196301
-0.137286
-0.154913
-0.108192
-0.121751
-0.0863305
-0.0964514
-0.070245
-0.0776554
-0.0586265
-0.0639508
-0.0504359
-0.0541582
-0.0449131
-0.04738
-0.0416319
-0.0430089
-0.0405551
-0.0408529
-0.0409064
-0.0828455
-0.0566612
-0.0694891
-0.111294
-0.0967907
-0.14061
-0.125933
-0.155025
-0.169805
-0.188236
-0.179672
-0.148681
-0.159228
-0.129505
-0.138643
-0.114622
-0.121488
-0.104165
-0.10888
-0.0974913
-0.100391
-0.0942485
-0.0954456
-0.0944932
-0.0939255
-0.0983963
-0.0959829
-0.105941
-0.10173
-0.116618
-0.110957
-0.128982
-0.122718
-0.140505
-0.135044
-0.148049
-0.144976
-0.148746
-0.149386
-0.141211
-0.146021
-0.126238
-0.134499
-0.10713
-0.11691
-0.0889132
-0.0975798
-0.0760347
-0.0816442
-0.0696461
-0.072097
-0.0689551
-0.0686336
-0.073674
-0.0706213
-0.0887124
-0.0785118
-0.137835
-0.122692
-0.0448501
-0.195136
-0.135861
-0.131299
-0.131602
-0.111917
-0.103794
-0.123785
-0.118996
-0.126001
-0.0984372
-0.0955179
-0.0854228
-0.131003
-0.134206
-0.114988
-0.12348
-0.161174
-0.146837
-0.197155
-0.177666
-0.242737
-0.219168
-0.290516
-0.266816
-0.332479
-0.312792
-0.359703
-0.348412
-0.366041
-0.365692
-0.34975
-0.360641
-0.313971
-0.3339
-0.266314
-0.291038
-0.216036
-0.240971
-0.170332
-0.192312
-0.132619
-0.150405
-0.103262
-0.116951
-0.0811256
-0.0913885
-0.0647046
-0.0722928
-0.0526636
-0.0582105
-0.0439565
-0.0479491
-0.0378097
-0.0406022
-0.0337559
-0.0355369
-0.031733
-0.0324838
-0.0318539
-0.0315252
-0.0340327
-0.0327142
-0.0587306
-0.0354439
-0.0465118
-0.0853278
-0.0717509
-0.11403
-0.099521
-0.143562
-0.128718
-0.172768
-0.15836
-0.199447
-0.186501
-0.199347
-0.211306
-0.206667
-0.17921
-0.189892
-0.156141
-0.16772
-0.13464
-0.144969
-0.117406
-0.125424
-0.104805
-0.110567
-0.0961179
-0.100019
-0.0908211
-0.0930597
-0.0888391
-0.0894123
-0.0902529
-0.0891212
-0.094992
-0.0922257
-0.102555
-0.0984813
-0.111679
-0.107037
-0.120164
-0.116169
-0.125284
-0.123318
-0.124564
-0.125769
-0.116831
-0.121576
-0.102907
-0.110498
-0.0858949
-0.0945125
-0.0704472
-0.0776815
-0.0603019
-0.0646
-0.0560885
-0.0575112
-0.0570015
-0.0559469
-0.0628727
-0.0592728
-0.0749878
-0.0680308
-0.094619
-0.0839817
-0.132561
-0.10868
-0.131369
-0.0238624
-0.0248065
-0.201065
-0.212597
-0.120235
-0.11241
-0.128002
-0.107259
-0.104841
-0.104696
-0.106342
-0.0953932
-0.127243
-0.105473
-0.104411
-0.0910444
-0.0973992
-0.126863
-0.115267
-0.156337
-0.140566
-0.195007
-0.174345
-0.242025
-0.21783
-0.290926
-0.266712
-0.333286
-0.313518
-0.360087
-0.349098
-0.365336
-0.365608
-0.347476
-0.359192
-0.310035
-0.330774
-0.26111
-0.286394
-0.210206
-0.235373
-0.164398
-0.186383
-0.126815
-0.144523
-0.0975886
-0.111222
-0.0754765
-0.0857431
-0.0589488
-0.066607
-0.0466718
-0.0523522
-0.0376106
-0.0417942
-0.0309982
-0.0340378
-0.02634
-0.0284435
-0.023523
-0.0246962
-0.0226874
-0.022882
-0.0230635
-0.0603659
-0.0365163
-0.0481042
-0.0870385
-0.0733803
-0.115547
-0.101135
-0.144995
-0.13019
-0.174245
-0.159802
-0.188009
-0.20899
-0.221728
-0.216847
-0.18747
-0.198939
-0.16246
-0.175082
-0.138726
-0.150186
-0.119242
-0.128372
-0.104552
-0.111336
-0.0939063
-0.0987791
-0.0866285
-0.0898697
-0.0825138
-0.0841781
-0.0815613
-0.0816452
-0.0836643
-0.0822499
-0.0883492
-0.0857378
-0.0945042
-0.0913437
-0.100238
-0.0975669
-0.1032
-0.102213
-0.101268
-0.102943
-0.0934635
-0.0980952
-0.080615
-0.0875329
-0.0656647
-0.0731439
-0.0528832
-0.0587484
-0.0452871
-0.0483723
-0.0429887
-0.0435398
-0.0451403
-0.0435363
-0.0518242
-0.0478565
-0.0642129
-0.0572445
-0.0839934
-0.0730574
-0.122562
-0.115509
-0.109431
-0.0972869
-0.129323
-0.0257725
-0.223284
-0.0864736
-0.119649
-0.101388
-0.129204
-0.114953
-0.126449
-0.113032
-0.113745
-0.116496
-0.120833
-0.126253
-0.113142
-0.125391
-0.0773949
-0.0836518
-0.0664529
-0.0708991
-0.0953396
-0.0856778
-0.11872
-0.10627
-0.150138
-0.133364
-0.190544
-0.169139
-0.238665
-0.21395
-0.288329
-0.263808
-0.330692
-0.311022
-0.356819
-0.346239
-0.36087
-0.361796
-0.341519
-0.353992
-0.302755
-0.324102
-0.253133
-0.27867
-0.202268
-0.227335
-0.156971
-0.178666
-0.120011
-0.137412
-0.0912886
-0.104693
-0.0694788
-0.07962
-0.0530569
-0.0606851
-0.0407169
-0.046448
-0.0314529
-0.0357536
-0.0245197
-0.0277337
-0.0194135
-0.0217592
-0.0159646
-0.0174785
-0.014322
-0.0149056
-0.0145003
-0.0142002
-0.0161083
-0.0151615
-0.0374924
-0.0170823
-0.0267801
-0.0612905
-0.0490862
-0.0876378
-0.0741994
-0.115756
-0.101513
-0.144803
-0.130237
-0.173468
-0.159293
-0.199421
-0.186885
-0.220725
-0.209928
-0.230701
-0.233511
-0.233156
-0.21696
-0.225227
-0.194283
-0.206489
-0.167438
-0.181017
-0.141646
-0.154155
-0.120055
-0.13023
-0.103381
-0.111137
-0.0908735
-0.0966687
-0.0817258
-0.0859119
-0.0756104
-0.0782967
-0.0724555
-0.0736684
-0.0721287
-0.0719571
-0.0741951
-0.07291
-0.0776835
-0.0758489
-0.0809751
-0.079476
-0.0820551
-0.0819178
-0.0791167
-0.0811697
-0.0713479
-0.0758277
-0.0595876
-0.0658344
-0.0466596
-0.053026
-0.0364233
-0.0409949
-0.031148
-0.0331428
-0.0305152
-0.0303197
-0.0337282
-0.0316542
-0.0410315
-0.0368126
-0.0534932
-0.0465515
-0.0724665
-0.0620756
-0.0997587
-0.0849908
-0.121181
-0.113902
-0.131917
-0.117225
-0.128316
-0.121145
-0.0635028
-0.0825061
-0.10006
-0.12915
-0.119841
-0.00717589
-0.00790987
-0.217018
-0.226313
-0.126443
-0.121319
-0.125269
-0.131132
-0.138319
-0.146027
-0.0617119
-0.0409945
-0.0386936
-0.153668
-0.137268
-0.0614295
-0.125713
-0.0492913
-0.044336
-0.0636248
-0.0556707
-0.0840762
-0.0731672
-0.109551
-0.0961213
-0.142355
-0.124889
-0.183982
-0.162054
-0.232868
-0.207809
-0.282831
-0.258242
-0.324813
-0.305414
-0.349997
-0.339949
-0.352718
-0.354342
-0.331976
-0.345123
-0.292277
-0.314002
-0.242571
-0.268035
-0.192426
-0.217054
-0.148239
-0.169359
-0.112364
-0.129244
-0.0844851
-0.0975039
-0.0632285
-0.0731281
-0.0471044
-0.0546122
-0.0348582
-0.0405647
-0.0255285
-0.0298795
-0.0184044
-0.0217279
-0.0129879
-0.0155053
-0.00906051
-0.0108389
-0.00672956
-0.00768322
-0.00613851
-0.00624031
-0.00649652
-0.0381749
-0.017777
-0.0276076
-0.0614764
-0.0494903
-0.087147
-0.0740532
-0.114636
-0.100708
-0.142915
-0.128769
-0.170524
-0.156887
-0.195734
-0.183565
-0.206789
-0.237296
-0.238309
-0.239615
-0.223128
-0.231658
-0.199278
-0.212122
-0.170916
-0.185305
-0.143294
-0.156745
-0.119787
-0.130918
-0.101279
-0.109935
-0.0870448
-0.0936943
-0.0761738
-0.0812293
-0.0682239
-0.0718463
-0.0630628
-0.065302
-0.0605436
-0.0614905
-0.0602733
-0.0601685
-0.061412
-0.0607415
-0.0625785
-0.0620959
-0.062055
-0.0626354
-0.0583036
-0.0606521
-0.0506563
-0.0549539
-0.0399912
-0.0455701
-0.0290444
-0.0343261
-0.0212079
-0.0245758
-0.0179984
-0.0190382
-0.0187686
-0.0179513
-0.022852
-0.0203967
-0.0305976
-0.0262168
-0.0429261
-0.0361226
-0.0610842
-0.0511941
-0.0864469
-0.0727832
-0.120557
-0.102358
-0.0825161
-0.160056
-0.178022
-0.185263
-0.164368
-0.141371
-0.122625
-0.11347
-0.129625
-0.124978
-0.00867235
-0.232118
-0.100395
-0.131351
-0.12727
-0.12893
-0.132288
-0.139692
-0.148777
-0.158886
-0.169052
-0.0371618
-0.013864
-0.0114557
-0.143558
-0.166178
-0.189575
-0.0366049
-0.0618462
-0.0840647
-0.204961
-0.21197
-0.128361
-0.0210291
-0.0170001
-0.032906
-0.0263872
-0.049608
-0.0406015
-0.0717163
-0.0600428
-0.0987227
-0.0845281
-0.132721
-0.114689
-0.175294
-0.152946
-0.224682
-0.199432
-0.27456
-0.250099
-0.315803
-0.296847
-0.339758
-0.330371
-0.341021
-0.34338
-0.319024
-0.332739
-0.278827
-0.300675
-0.229688
-0.254737
-0.180936
-0.204797
-0.13842
-0.158704
-0.104045
-0.120214
-0.0773059
-0.0898032
-0.0568198
-0.0663768
-0.0411609
-0.0484695
-0.0291466
-0.0347623
-0.0198732
-0.0242149
-0.0126729
-0.0160489
-0.00706703
-0.0096937
-0.00280468
-0.00477249
5.76418e-05
-0.00118566
0.00130105
0.000892127
0.000987651
0.00131896
-0.000317028
0.000435078
-0.018311
-0.00110337
-0.00929969
-0.0383039
-0.027973
-0.0608824
-0.0493028
-0.0856802
-0.0730203
-0.112226
-0.0987932
-0.139392
-0.125822
-0.165669
-0.15273
-0.189589
-0.17805
-0.209465
-0.200084
-0.222821
-0.2172
-0.241581
-0.225793
-0.235456
-0.241418
-0.243412
-0.227075
-0.23585
-0.202367
-0.215676
-0.17277
-0.187824
-0.143589
-0.157847
-0.118396
-0.130373
-0.098244
-0.107711
-0.0824547
-0.0898738
-0.0700379
-0.0758721
-0.060449
-0.0649071
-0.0535029
-0.0566539
-0.0490489
-0.0509805
-0.0467381
-0.0476612
-0.0458489
-0.0461798
-0.0452059
-0.0455854
-0.0433449
-0.0445194
-0.0389548
-0.0415247
-0.0315019
-0.0355929
-0.021944
-0.0268526
-0.0129395
-0.0171672
-0.00733202
-0.00960086
-0.00592064
-0.00614287
-0.00785485
-0.00652635
-0.0126334
-0.00987983
-0.0206547
-0.0161949
-0.0327203
-0.0261229
-0.0498905
-0.0405961
-0.0733431
-0.0607554
-0.10419
-0.0878312
-0.122667
-0.126217
-0.115167
-0.215065
-0.189617
-0.13332
-0.131344
-0.102069
-0.136028
-0.137456
0.00721121
0.0064763
-0.210661
-0.213158
-0.133794
-0.146238
-0.157268
-0.169656
-0.182547
-0.194609
-0.00969594
0.0150571
0.0174821
-0.00834163
-0.0362258
-0.0625815
-0.0861685
-0.233322
-0.239663
-0.213567
-0.240737
-0.133517
0.00803143
0.0121486
-0.00267651
0.00301052
-0.0169313
-0.00924452
-0.0353281
-0.025586
-0.0583502
-0.0462641
-0.0863371
-0.0716284
-0.121311
-0.102808
-0.164637
-0.141956
-0.214272
-0.188976
-0.263706
-0.239558
-0.30384
-0.28551
-0.326285
-0.317681
-0.325988
-0.329105
-0.302918
-0.317069
-0.262716
-0.284408
-0.214813
-0.239106
-0.168098
-0.190884
-0.127752
-0.14697
-0.0952308
-0.110528
-0.0698775
-0.0817405
-0.0503421
-0.0594728
-0.0352894
-0.0423319
-0.0236251
-0.0290929
-0.0145139
-0.0187945
-0.00733722
-0.0107162
-0.00164594
-0.00432842
0.0028263
0.000734763
0.00607918
0.00461493
0.00789755
0.00717752
0.00817611
0.0081899
0.00782453
-0.0185824
-0.00170847
-0.00983482
-0.0379036
-0.0279001
-0.0595693
-0.0484688
-0.0833361
-0.0712099
-0.10864
-0.0958556
-0.134381
-0.121541
-0.15905
-0.146952
-0.181113
-0.170496
-0.199119
-0.190736
-0.205768
-0.24267
-0.226566
-0.236443
-0.243061
-0.244827
-0.228669
-0.237515
-0.203456
-0.217083
-0.172913
-0.188487
-0.142471
-0.157391
-0.11586
-0.128555
-0.0942901
-0.104459
-0.0771464
-0.0852359
-0.0633869
-0.0698968
-0.052378
-0.05756
-0.0438871
-0.0478266
-0.0377674
-0.040545
-0.0337165
-0.035514
-0.0311171
-0.0322899
-0.0289677
-0.030062
-0.0260154
-0.0276707
-0.021136
-0.023866
-0.013944
-0.0178022
-0.00552325
-0.00974985
0.00158148
-0.00162995
0.00516169
0.00387196
0.0050516
0.0055097
0.00217326
0.00391375
-0.0031447
-0.000166134
-0.01131
-0.00683387
-0.0230062
-0.0166671
-0.0391137
-0.0304483
-0.0606514
-0.0491395
-0.0884837
-0.0737501
-0.123374
-0.105007
-0.164274
-0.143373
-0.23673
-0.207235
-0.185876
-0.132079
-0.118658
-0.139565
-0.140462
0.00572907
-0.213635
-0.105313
-0.143298
-0.150647
-0.141012
-0.163398
-0.178113
-0.19376
-0.209134
-0.222685
0.0200428
0.0441306
0.0476646
-0.17783
-0.196427
-0.227207
0.0229306
-0.00638065
-0.0353264
-0.0635259
-0.0886683
-0.262456
-0.266726
-0.265316
-0.257599
-0.141361
0.0374338
0.0409895
0.0273748
0.0327902
0.0144451
0.0211964
-0.00124149
0.00707653
-0.0206267
-0.0104662
-0.0441597
-0.0318313
-0.0727948
-0.0577369
-0.108495
-0.0896351
-0.15234
-0.12945
-0.201909
-0.176737
-0.250512
-0.226876
-0.289161
-0.271638
-0.30981
-0.302117
-0.307893
-0.311766
-0.283995
-0.298417
-0.244336
-0.265568
-0.198336
-0.221538
-0.154241
-0.175679
-0.116486
-0.134448
-0.0860976
-0.100397
-0.0623218
-0.073463
-0.0438783
-0.0525166
-0.029545
-0.0362674
-0.0183285
-0.0236009
-0.00946905
-0.0136444
-0.00240165
-0.00574103
0.00328707
0.000593842
0.00786342
0.00570443
0.0113759
0.00975899
0.0136429
0.0126775
0.0144734
0.0142285
0.0138967
0.0143054
0.0124001
0.0132579
-0.00225659
0.01157
0.00507826
-0.0185243
-0.0101512
-0.0370369
-0.0275052
-0.0576609
-0.0470889
-0.0802195
-0.0687294
-0.104054
-0.0920349
-0.128122
-0.116139
-0.150983
-0.139807
-0.170995
-0.161441
-0.186781
-0.17949
-0.196619
-0.19257
-0.198744
-0.198656
-0.224784
-0.196818
-0.211889
-0.241194
-0.234784
-0.242111
-0.243627
-0.227932
-0.236716
-0.202486
-0.216286
-0.171305
-0.187243
-0.139918
-0.155342
-0.112179
-0.125451
-0.0894417
-0.100192
-0.0711685
-0.0798176
-0.0562895
-0.0633623
-0.044097
-0.0498826
-0.0343148
-0.0389139
-0.0268039
-0.0302875
-0.0213089
-0.0238305
-0.0173037
-0.0191668
-0.0139291
-0.015603
-0.0101018
-0.0121406
-0.00486128
-0.00769763
0.00199664
-0.00159478
0.00922573
0.00570325
0.0144888
0.012242
0.0162728
0.0158303
0.0149121
0.0159206
0.0112858
0.0133508
0.00556512
0.00870453
-0.0026368
0.00180595
-0.0138929
-0.00784218
-0.0289234
-0.0208876
-0.0485419
-0.03811
-0.0734834
-0.0603073
-0.104277
-0.0881485
-0.139862
-0.121642
-0.158773
-0.14023
-0.123857
-0.244183
-0.212689
-0.14854
-0.152541
-0.109424
-0.153157
-0.167012
0.0185521
0.0177763
-0.18254
-0.180316
-0.150464
-0.183834
-0.202203
-0.220773
-0.237967
-0.252337
0.0511706
0.0726587
0.0748275
0.0548321
0.0268431
-0.00339041
-0.0339955
-0.0640113
-0.0913401
-0.290715
-0.292216
-0.287016
-0.275211
-0.225265
-0.257238
-0.152067
0.0653158
0.0693366
0.0561992
0.0609262
0.0447812
0.0509555
0.0308113
0.038036
0.0143301
0.0229753
-0.00554124
0.00483185
-0.0293694
-0.0168938
-0.0584578
-0.0431466
-0.0946856
-0.0755721
-0.138782
-0.115827
-0.187926
-0.163069
-0.235281
-0.212366
-0.27206
-0.255527
-0.290644
-0.283975
-0.287085
-0.291686
-0.262675
-0.277167
-0.224148
-0.244603
-0.180689
-0.20249
-0.139711
-0.159575
-0.10487
-0.121434
-0.0768156
-0.0900287
-0.0547522
-0.0651098
-0.0375029
-0.0456003
-0.023975
-0.0303357
-0.0132838
-0.0183229
-0.00474958
-0.00878328
0.00213662
-0.0011273
0.00774936
0.00508273
0.012343
0.0101628
0.016002
0.0142921
0.0185923
0.0174443
0.0198742
0.0194026
0.0197712
0.0199572
0.0192382
-0.00266279
0.0108963
0.00437291
-0.0182253
-0.0101949
-0.0357716
-0.0267558
-0.0552769
-0.0452845
-0.076477
-0.065701
-0.0986884
-0.0875113
-0.120915
-0.109875
-0.14182
-0.131628
-0.159801
-0.15128
-0.173379
-0.167206
-0.181397
-0.178194
-0.182814
-0.220596
-0.19252
-0.207683
-0.237312
-0.230668
-0.238714
-0.240034
-0.224876
-0.23352
-0.199455
-0.213286
-0.167953
-0.184093
-0.135942
-0.15171
-0.107375
-0.121078
-0.0837362
-0.0949388
-0.0645732
-0.0736639
-0.0488108
-0.0563278
-0.0356819
-0.0419459
-0.0248694
-0.0299959
-0.0162416
-0.0202923
-0.00958782
-0.01269
-0.00445931
-0.00687338
-0.000109162
-0.00224438
0.00441101
0.00207007
0.00989705
0.00700677
0.0163201
0.0130466
0.0222853
0.0194922
0.0257964
0.0244426
0.0260398
0.0263055
0.0236828
0.0251238
0.0194786
0.0217927
0.0134739
0.0167186
0.0053233
0.00969298
-0.00544596
0.000299388
-0.0194154
-0.0119923
-0.03721
-0.0277985
-0.0593966
-0.0477219
-0.0863176
-0.072279
-0.117119
-0.101343
-0.149836
-0.133436
-0.180526
-0.166031
-0.233992
-0.201472
-0.19264
-0.150323
-0.130439
-0.160306
-0.167712
0.0169758
-0.176053
-0.114249
-0.16548
-0.186582
-0.161878
-0.20743
-0.229119
-0.249962
-0.268225
-0.282333
0.0767118
0.0908654
0.0895695
-0.16949
-0.174979
-0.206566
0.0771708
0.0581921
0.0314902
0.000769598
-0.0314272
-0.0635111
-0.0936541
-0.316565
-0.314354
-0.304763
-0.288293
-0.265742
-0.238153
-0.165726
0.0896311
0.0910129
0.0827063
0.0865606
0.0728629
0.0780342
0.0609493
0.0672813
0.0465857
0.0540268
0.0297485
0.0385313
0.00972139
0.0201649
-0.0142689
-0.00169989
-0.0436987
-0.0281921
-0.0802994
-0.0610203
-0.124375
-0.101509
-0.172702
-0.148369
-0.218359
-0.196392
-0.252867
-0.23751
-0.269154
-0.263599
-0.263977
-0.269247
-0.239451
-0.253773
-0.202671
-0.222032
-0.162326
-0.182459
-0.124852
-0.142974
-0.0931409
-0.108215
-0.0675419
-0.0796156
-0.0472705
-0.0568076
-0.0312807
-0.0388057
-0.0186183
-0.0245876
-0.00851072
-0.0132873
-0.000359877
-0.00422282
0.00628632
0.00312735
0.0117627
0.00915324
0.0163038
0.0141393
0.020015
0.018263
0.0228138
0.0215401
0.0244758
0.0237987
0.0248442
0.0248204
0.0240174
0.0245431
0.0223236
0.0232599
0.0101787
0.0212824
0.0160686
-0.00287423
0.00384143
-0.0176553
-0.0100476
-0.0342096
-0.025705
-0.0525338
-0.0431641
-0.0722788
-0.0622644
-0.0927772
-0.0824868
-0.113076
-0.103023
-0.131944
-0.122775
-0.147915
-0.14039
-0.159474
-0.154325
-0.165682
-0.163278
-0.165903
-0.166594
-0.159552
-0.163515
-0.186018
-0.154036
-0.170175
-0.2138
-0.200896
-0.230929
-0.224054
-0.232892
-0.233913
-0.219568
-0.227983
-0.194428
-0.208153
-0.162914
-0.179098
-0.130597
-0.146552
-0.101499
-0.115489
-0.0772249
-0.0887509
-0.057416
-0.0668281
-0.0410101
-0.0488507
-0.0271945
-0.0338104
-0.0156132
-0.0211352
-0.00613685
-0.01062
0.00140727
-0.00214195
0.00740584
0.00456406
0.01252
0.0100223
0.0175798
0.0150065
0.0231865
0.0203046
0.0290353
0.0261506
0.033665
0.0316176
0.035559
0.0350032
0.0345302
0.0353657
0.0314053
0.0331762
0.0267678
0.0292668
0.0205813
0.0238838
0.0125526
0.0168186
0.00229694
0.0077299
-0.0106448
-0.00380885
-0.02674
-0.0182722
-0.0463846
-0.0360994
-0.0697196
-0.0576082
-0.0961423
-0.0826167
-0.123982
-0.110053
-0.149902
-0.137501
-0.160922
-0.161946
-0.137971
-0.207085
-0.176399
-0.174792
-0.185971
-0.11913
-0.179958
-0.209173
0.0271681
0.0262157
-0.143342
-0.138289
-0.174783
-0.233711
-0.25808
-0.280303
-0.298509
-0.311062
0.0870022
0.0942319
0.0892406
0.0830137
0.0763385
0.0607634
0.0364679
0.0058207
-0.0274983
-0.0618235
-0.0948485
-0.338476
-0.331878
-0.317433
-0.296079
-0.268968
-0.237272
-0.17366
-0.202771
-0.182291
0.100525
0.0978811
0.101366
0.101714
0.0964143
0.0993784
0.0875163
0.0923297
0.0759097
0.0820852
0.0616233
0.0690637
0.0447839
0.0535561
0.0247877
0.0352238
0.000704144
0.0133415
-0.0289996
-0.0133382
-0.0658179
-0.0464664
-0.109564
-0.0869611
-0.156631
-0.133054
-0.200104
-0.179325
-0.231921
-0.217931
-0.245716
-0.241341
-0.239046
-0.244874
-0.214886
-0.228762
-0.180463
-0.198427
-0.143705
-0.16196
-0.10999
-0.126267
-0.0815161
-0.0950601
-0.0584157
-0.069332
-0.0399656
-0.0486678
-0.0252663
-0.0322027
-0.0135058
-0.0190648
-0.00402237
-0.0085158
0.00370128
3.1389e-05
0.0100609
0.00703048
0.0153521
0.0128246
0.0197855
0.0176658
0.0234739
0.0217205
0.0263809
0.0250333
0.0283233
0.0274851
0.0291087
0.0288623
0.0286554
0.0290183
0.0280179
0.0094515
0.0203077
0.0150814
-0.00294465
0.00344536
-0.0168894
-0.00972148
-0.032456
-0.0244682
-0.0495529
-0.0408311
-0.0677996
-0.0585671
-0.0865532
-0.0771635
-0.104912
-0.095848
-0.12174
-0.113594
-0.135745
-0.129181
-0.145558
-0.141255
-0.150234
-0.148553
-0.149592
-0.150641
-0.147101
-0.177785
-0.147027
-0.162492
-0.204991
-0.192223
-0.222205
-0.215216
-0.224783
-0.225456
-0.212137
-0.220221
-0.187529
-0.201014
-0.156299
-0.172376
-0.123978
-0.139971
-0.094632
-0.108771
-0.0699759
-0.0817017
-0.0497561
-0.0593735
-0.0329397
-0.0409868
-0.0186806
-0.0255253
-0.00658359
-0.0123736
0.00348626
-0.00130228
0.0116758
0.00779987
0.0183259
0.0151612
0.0240284
0.0212504
0.0294849
0.0267492
0.0350522
0.0322638
0.0401527
0.0377394
0.043406
0.0420967
0.0438673
0.0439941
0.0418326
0.0431073
0.0381359
0.0401507
0.0331865
0.0358155
0.0269059
0.0302255
0.0190547
0.0231938
0.0093246
0.0144456
-0.00263862
0.0036438
-0.0171738
-0.00956682
-0.0345321
-0.0254918
-0.0546978
-0.0442851
-0.0771392
-0.0656903
-0.100543
-0.088855
-0.122162
-0.111792
-0.138698
-0.131314
-0.146199
-0.144098
-0.1672
-0.140034
-0.144814
-0.174406
-0.145855
-0.191717
-0.207087
0.0251766
-0.131888
-0.123504
-0.19605
-0.234273
-0.188465
-0.261854
-0.287927
-0.310314
-0.327131
-0.336859
0.0832798
0.0868958
0.0798126
0.0766105
0.0778554
0.0738855
0.0620338
0.0408278
0.0115422
-0.0224472
-0.0585178
-0.0943434
-0.355173
-0.343619
-0.324218
-0.298129
-0.266657
-0.231375
-0.193834
-0.1136
-0.13196
-0.107238
-0.201496
0.0985056
0.0928428
0.106402
0.103022
0.109228
0.108479
0.106763
0.108622
0.0997489
0.103742
0.0891555
0.0948758
0.0754647
0.0826599
0.0589433
0.0675754
0.0391095
0.0494884
0.014976
0.027665
-0.0149239
0.000840747
-0.0517443
-0.0324492
-0.0947709
-0.072647
-0.140066
-0.11751
-0.180842
-0.161501
-0.209574
-0.19713
-0.220721
-0.217542
-0.21283
-0.219034
-0.189593
-0.202724
-0.158089
-0.174394
-0.125258
-0.141497
-0.095418
-0.109813
-0.0701823
-0.0822024
-0.0495556
-0.0593271
-0.0329114
-0.0407843
-0.0195041
-0.0258491
-0.00866048
-0.0138004
0.000174117
-0.00402288
0.00743974
0.00397896
0.0134776
0.0105937
0.018545
0.016119
0.0228278
0.0207753
0.0264358
0.0247127
0.0293666
0.0279908
0.0314834
0.030538
0.0325846
0.0321673
0.0325373
0.0326889
0.0314248
0.032097
0.0294183
0.0305472
0.0192642
0.0281781
0.0240123
0.00880889
0.0141759
-0.00291958
0.00310892
-0.0160341
-0.00929521
-0.0306023
-0.0231421
-0.0464542
-0.038387
-0.0632024
-0.0547498
-0.0802294
-0.0717287
-0.0966925
-0.0885923
-0.111558
-0.104394
-0.123696
-0.118039
-0.131967
-0.128383
-0.135438
-0.13433
-0.134142
-0.135361
-0.128023
-0.131631
-0.117625
-0.123312
-0.138514
-0.111061
-0.124378
-0.167814
-0.153172
-0.194148
-0.181718
-0.211381
-0.204279
-0.214585
-0.214889
-0.20277
-0.210428
-0.178938
-0.192053
-0.148272
-0.164099
-0.116227
-0.132119
-0.0868874
-0.101051
-0.0620778
-0.0738921
-0.04166
-0.0513771
-0.024647
-0.0327925
-0.0101693
-0.0171287
0.00220852
-0.00373146
0.012639
0.00766034
0.0212584
0.0171604
0.0283756
0.0249757
0.0345113
0.031528
0.0402015
0.0373895
0.0455181
0.0429347
0.0496888
0.0478224
0.0515857
0.0509721
0.0508405
0.0515214
0.0480472
0.0496456
0.0439402
0.0461289
0.0387805
0.0414932
0.0324801
0.0357831
0.0248494
0.0288447
0.0156455
0.0204602
0.0046031
0.0103696
-0.00851194
-0.00168418
-0.0238344
-0.0158966
-0.0412534
-0.0323045
-0.0602466
-0.0506052
-0.0796989
-0.0700201
-0.097551
-0.0889856
-0.111062
-0.105032
-0.117246
-0.115312
-0.116836
-0.186758
-0.153164
-0.156665
-0.21054
-0.230522
-0.126701
-0.212955
-0.261025
0.0331486
0.0320279
-0.104617
-0.0988172
-0.201963
-0.290639
-0.317134
-0.338303
-0.352389
-0.358174
0.0721054
0.073915
0.0655626
-0.120079
-0.0979001
0.0635468
0.0690271
0.0714395
0.0698318
0.0614807
0.0441339
0.0172751
-0.0163878
-0.0535305
-0.0917242
-0.365627
-0.348894
-0.324555
-0.294022
-0.258789
-0.220556
-0.181075
-0.22279
0.088631
0.0815726
0.100697
0.0950032
0.109531
0.105606
0.114056
0.112362
0.113888
0.11457
0.109046
0.112025
0.100044
0.105031
0.0874314
0.0941537
0.0715394
0.0799018
0.0520116
0.0622757
0.0279142
0.0406117
-0.0020228
0.0137482
-0.0385174
-0.0194657
-0.0803299
-0.0589495
-0.12328
-0.102034
-0.160828
-0.143177
-0.186154
-0.175378
-0.194644
-0.192628
-0.185933
-0.192265
-0.164218
-0.176302
-0.136095
-0.150544
-0.107369
-0.121538
-0.0813813
-0.0939217
-0.0592933
-0.069837
-0.0410573
-0.0497221
-0.0261669
-0.0332327
-0.0140281
-0.0197905