/*--------------------------------*- C++ -*----------------------------------*\
  =========                 |
  \\      /  F ield         | OpenFOAM: The Open Source CFD Toolbox
   \\    /   O peration     | Website:  https://openfoam.org
    \\  /    A nd           | Version:  10
     \\/     M anipulation  |
\*---------------------------------------------------------------------------*/
FoamFile
{
    format      ascii;
    class       surfaceScalarField;
    location    "50";
    object      phi;
}
// * * * * * * * * * * * * * * * * * * * * * * * * * * * * * * * * * * * * * //

dimensions      [0 3 -1 0 0 0 0];

internalField   nonuniform List<scalar> 
57492
(
0.000236502
-1.06317e-05
-4.38707e-05
-0.000181999
-0.000163158
0.000268373
0.000131287
-2.87873e-05
8.09356e-05
0.000323664
-0.000375812
0.00315971
0.00338645
-0.000272049
-0.00627411
-0.00862822
0.00404529
0.00774264
0.000789896
-0.00072814
-0.000381705
0.000319949
-0.00141003
0.000248502
-8.86851e-05
0.00125021
0.000300307
-0.000920442
0.00158279
-0.00463356
0.00442625
-0.00137548
0.00133634
0.0042499
-0.00400344
-0.000614619
-0.000207623
0.000687816
0.000134426
-0.000122976
-0.000835779
0.000344136
0.000232902
-0.000326718
-2.91596e-05
-5.3564e-05
7.88424e-05
0.00185906
-0.00179162
-0.000672012
0.000604575
0.000265098
0.00149947
9.44937e-05
-0.000324135
0.000787976
0.00333539
-0.00379923
-0.000660382
0.00326125
-0.002925
0.00013551
-0.000288682
0.000153172
-0.00166412
0.00122052
0.000579113
-0.00466035
0.000190311
0.00333621
0.00113383
0.00122738
-0.00473042
-0.00115731
-0.000133208
-0.000197665
-0.000703972
0.00103485
-0.000287933
0.000176809
-2.20843e-05
-0.00255131
0.00216493
0.000736573
-0.000350186
-0.00305367
0.000925072
-0.000422717
-0.00112795
0.000596545
0.000456859
7.45424e-05
-0.000779111
-0.000362371
1.35347e-05
-0.000367351
-0.00113414
0.00129124
0.000210245
-0.000416157
0.000116424
-6.76178e-05
0.000822521
-0.000547738
-0.000510197
0.000235414
-0.000710008
0.000568148
0.000964381
-0.000971277
-0.00186129
0.00179395
0.00103861
-0.00220313
-0.000529046
0.0017609
-0.00070747
-0.000152117
0.000859587
-0.00027132
-0.00043615
-0.00137459
0.00189223
-0.000788961
0.000203101
-0.000767224
-0.00081047
-0.000626235
0.000874737
-0.000233049
-0.00190181
0.00115081
0.000750998
-0.00432161
0.00241979
0.00490887
-0.000881606
0.000403443
-0.0044307
0.00361735
-2.71321e-05
0.00131865
-0.000787286
0.00489974
-0.00499406
0.00154497
0.000331369
-0.00157603
0.00155589
-9.96083e-05
0.00188175
-0.000705183
-0.00140055
0.000223985
0.00210696
0.000106161
0.000967271
-0.000600455
0.00118907
0.000930423
0.00128706
-0.00474864
-0.000640652
0.00055438
0.00483492
-0.00488164
-0.000305293
0.000438289
0.00121168
0.0045136
-0.00443808
-0.0012872
0.000882918
-0.00430479
-0.00279067
0.00253513
0.00254313
-0.00228759
-0.000281321
0.00320957
-0.00571891
1.49088e-05
-0.000117197
-8.11139e-07
0.0001031
-0.000322369
1.05595e-05
6.7295e-05
-0.000136448
-0.000253216
-5.66005e-05
6.69811e-06
1.12185e-05
-1.20297e-05
8.90918e-06
2.30935e-06
0.00731119
0.003786
-0.00588452
-0.00521267
0.00233616
-0.00070093
0.00567596
-0.00785973
0.0030967
0.00709918
0.0022906
-0.00636433
0.00162382
-0.00286623
0.00213413
-0.000891724
0.00235691
-0.00291492
0.00218183
-2.99558e-05
2.18996e-05
-2.57546e-06
-7.03867e-05
-3.43975e-06
-0.000223285
-2.91009e-05
-0.00293929
0.0053496
0.00339296
-0.00580327
0.00436323
-0.00494561
0.00298436
0.00474962
-0.00238438
0.0100968
-0.00148819
-0.00178789
-0.00682071
0.00223793
0.00542792
0.00243095
0.00160253
-0.00501392
0.00564933
4.68353e-05
-7.56225e-05
0.000127771
0.000816922
0.00175856
-0.000626691
-0.00194879
0.00104085
9.97334e-05
-9.59854e-05
2.63975e-05
6.95879e-05
-0.000298582
0.000202597
-0.00660745
0.00342266
-0.00201343
0.00519822
-0.00574278
-0.00249926
0.00163459
-0.00262539
0.0020893
-0.0052067
0.00195238
-2.65677e-05
-0.000944433
-0.00098138
-0.000711777
0.00222808
0.000436073
-0.00083485
-8.52631e-05
0.000208336
-0.000771736
-8.96816e-05
-0.000271511
-0.00144466
-0.000238012
-6.28841e-05
1.85819e-05
0.000282314
-0.00021666
-0.000524544
0.000503192
0.000137957
1.68692e-05
-0.000371486
7.93512e-05
-4.27867e-06
0.00010059
-2.65668e-06
-0.000641238
0.000369727
8.34431e-05
-0.000724681
0.000172539
-0.000471121
0.00427359
0.00333164
-0.00017851
0.00212867
-0.0064833
-1.03288e-05
0.0022639
-0.00179745
-0.000456114
0.00029182
0.00316405
-0.0034662
0.00327222
0.00184982
-0.000508131
-0.00461391
-0.00102898
0.000494732
0.00380647
0.00399976
-0.00317892
-0.00164158
-0.0030348
0.00124931
0.00342707
-0.00118644
0.00350543
-0.00396057
0.000421557
-0.0046428
8.28493e-05
3.39036e-05
-4.61831e-06
0.00104818
-0.000617905
-0.000593433
7.72906e-05
-0.000325993
0.00129688
0.000364789
-1.91259e-05
-0.00018728
0.00033176
6.83331e-05
-0.000212814
0.00099166
-0.00121486
3.59219e-05
-0.000357551
0.00083089
0.000518322
-0.000125075
9.92833e-05
-0.00611725
0.00365009
0.00588982
0.00772289
-0.00200877
-0.00821339
-0.00285823
0.00446387
-9.71278e-05
-0.000874673
-0.000162338
-0.000522422
9.13763e-06
4.79633e-05
-0.000129927
3.71387e-05
4.48254e-05
-0.000130053
0.000144635
3.33805e-05
-0.00029962
3.96395e-05
-0.000265412
-0.00031287
5.586e-05
-0.000804034
-0.000336051
-0.000885197
-0.000950295
0.0010866
0.000748892
3.6304e-05
0.000468003
-0.0013895
-0.00123993
0.000325935
-0.00293534
0.00133123
-6.001e-05
-0.00350413
0.000809759
-0.000240967
0.00087608
-0.00334731
0.00256407
-9.28418e-05
0.000679093
-0.0027283
0.00292528
0.00252829
-0.0101972
-0.0017666
0.00218309
0.00302281
-0.00345819
0.00206128
-0.000321159
4.96999e-07
1.63722e-05
-3.35492e-06
3.85192e-06
0.000284376
-4.13146e-05
0.00560514
-0.00341385
-0.00245586
0.000264576
0.00484227
-2.44158e-05
0.00465479
0.000157019
-0.00509313
0.00137416
0.00330643
-2.58024e-05
0.000545808
-0.0029239
0.00375225
5.41461e-06
-8.76953e-06
0.000759303
-0.00212052
-0.00284746
0.00123255
0.00308483
0.00092698
-5.24951e-05
-0.000974695
0.000100211
0.000307188
-9.02159e-05
-0.00119228
0.000260637
0.00149979
0.000215786
-0.00110088
-0.000134905
7.56624e-05
-7.36951e-06
1.02948e-05
-2.60923e-06
-3.16055e-07
1.09404e-05
-2.40218e-07
-1.80697e-05
4.66617e-05
-0.000104451
6.87296e-05
-0.00172071
0.0026559
-0.000762651
0.00291949
-0.00378967
-0.000850528
5.88884e-06
-0.00163433
0.00188907
-0.00399664
0.000242043
-0.00273951
-0.00183405
0.000576923
0.00269264
0.00291097
-0.00541331
0.00260443
0.00429443
-0.00420621
0.00223976
-0.0030844
0.00160657
-0.000761928
0.0024549
-0.0030236
0.00280846
0.00437153
0.00187566
0.00499691
-0.000236576
-0.00496306
0.000202724
0.00553602
-0.000664652
0.000125543
0.00552967
-0.000899663
7.7999e-05
-0.004708
0.0039694
-0.0013718
0.00293206
0.00430816
-0.00140291
0.00113968
-0.00404493
0.00126811
0.00438835
-0.0013483
-0.00387657
-0.00166471
0.00413837
0.00106559
-0.00369285
-0.00185837
0.00362073
-0.00237741
-0.0032399
0.00215302
0.00346429
-0.00239372
-0.00326806
0.00328437
0.00223382
0.00304692
-0.00147356
-0.00380718
0.00302079
-0.00318069
-0.00258811
0.00261229
0.00299662
-0.00203999
0.0024988
-0.00406954
0.00361563
-0.00101965
-0.00506644
0.00105229
0.00537565
-0.00136149
0.00190952
-0.000267058
0.000997251
-0.00106308
0.00033289
-0.000109822
0.00127851
-0.00143574
-5.32078e-05
0.000306631
0.000111365
-0.00119461
-0.00186303
0.00121137
-1.71776e-07
-6.84426e-08
3.11393e-07
-4.83169e-07
-0.00011204
-0.00205951
0.0015711
-0.00183146
-7.57747e-05
0.0017952
5.21665e-05
-0.00191969
3.60636e-05
-0.000260767
0.00171459
0.000285798
-0.00173963
0.00176208
0.000501744
-0.00252459
0.00175822
0.00171845
-2.47455e-06
4.88556e-07
3.58896e-05
-4.78351e-06
2.30896e-06
-4.29495e-06
-5.58201e-06
4.28231e-06
-5.53008e-05
1.04925e-06
-6.63126e-06
5.33156e-06
-4.41103e-05
2.13664e-05
-0.000265189
2.22888e-05
-6.6399e-05
4.36552e-05
5.31945e-05
-5.33624e-06
-0.000172933
-1.69047e-05
7.00992e-05
-2.22409e-05
0.00142203
0.00328368
-0.00421098
0.00133433
-0.00447342
0.00456112
0.0047179
-9.98914e-05
-0.00118229
-0.00244446
0.00115812
0.00246863
-0.00071051
0.00272189
-0.00319367
0.000157256
-0.00331223
0.00411137
-0.0041335
-1.42462e-05
3.63781e-05
0.00412536
3.60897e-05
-5.00768e-05
-2.69972e-05
-0.00410973
3.22476e-06
0.00417133
-2.32932e-06
-4.36452e-05
0.00426011
5.99172e-05
-0.000148691
2.91749e-05
0.00438026
-0.000149331
0.00432702
-0.00428775
-1.00942e-05
-0.000205141
0.00459864
-1.3242e-05
0.00421927
-9.73913e-05
-0.00414237
-8.54697e-05
-0.00411324
-3.14517e-05
-0.00409174
1.4587e-05
-0.00416261
5.66191e-05
-0.00407704
-0.000112569
-0.000199916
0.00481137
-1.28083e-05
0.00403361
-1.42579e-05
-2.17831e-05
-0.00405664
-3.13056e-05
-0.00409173
-7.08435e-06
-3.03167e-05
-0.00427089
0.00024457
-1.70729e-06
0.00482491
-1.18315e-05
0.00404569
-1.37801e-05
-0.00422182
9.97702e-05
0.00483777
-1.48195e-06
-1.13768e-05
-1.54837e-06
0.00484969
-1.03716e-05
0.00405683
-1.26211e-05
0.00406758
-1.22986e-05
-2.57131e-05
-0.00422398
-2.11983e-05
-0.00422307
-2.44658e-05
-1.25094e-06
0.00486092
-9.97839e-06
0.00407753
-1.1201e-05
-1.8977e-06
-0.00420006
-2.20224e-05
-0.00419904
-2.59262e-05
-1.19927e-06
0.00487112
-9.00662e-06
0.0040873
-1.09725e-05
-1.92138e-06
-0.00417501
-2.31307e-05
-0.0041741
-2.68614e-05
-6.5311e-07
0.00488046
-8.68288e-06
0.00409657
-9.92772e-06
-2.17964e-06
-0.00414898
-2.385e-05
-0.00414796
-2.83157e-05
-1.01063e-07
0.00488831
-7.75041e-06
0.00410626
-9.7831e-06
-2.22926e-06
-0.00412189
-2.48662e-05
-0.00412091
-2.92791e-05
1.44029e-06
0.00489436
-7.49334e-06
0.00411649
-8.78848e-06
7.04843e-06
-0.00410341
-2.55258e-05
-0.00408318
-3.06806e-05
3.99528e-06
0.00489696
-6.59669e-06
0.0041292
-8.71807e-06
2.40025e-05
-0.00395973
-0.000167684
-0.00398551
-7.36697e-05
9.59067e-06
0.00489378
-6.40727e-06
0.00412748
1.13051e-05
2.32294e-05
-0.00395006
-3.28913e-05
-0.00392731
-3.497e-05
2.01674e-05
0.00487916
-5.54923e-06
0.00410449
4.31584e-05
5.26582e-05
-0.00378157
-0.000221154
-0.00378519
-8.94639e-05
0.000208221
0.00467635
-5.41346e-06
0.0042351
7.76137e-05
6.00266e-05
-0.00373461
-0.000106983
-0.00371437
-1.07964e-05
0.000184139
0.00433718
0.000155032
0.0043104
0.000108843
9.64509e-05
-0.000169023
-0.00366204
-0.00366947
5.15486e-05
1.20621e-05
3.75598e-05
0.00428756
0.00428744
3.50228e-05
-0.00375319
0.00384237
-0.000196157
-0.00374374
-0.000178474
0.000165445
-0.000175406
-0.00365208
4.91691e-05
-0.00355319
-0.00378806
0.00384912
-9.3953e-05
-0.000166849
-0.00373459
0.00376034
-5.12729e-05
-5.31534e-05
-0.00378499
0.00380879
-4.76416e-05
-4.95204e-05
-0.00383151
0.00385342
-4.3927e-05
-4.58589e-05
-0.00387435
0.00415916
-4.02378e-05
-4.21308e-05
-0.00416644
0.00412747
4.21898e-05
-3.85832e-05
-0.00427787
0.00426098
-3.31805e-05
-0.000114025
-0.00413943
0.00409316
-0.000102414
7.78998e-05
-0.00400928
0.00402258
-2.65423e-05
-6.54545e-05
-0.00403501
0.00404678
-2.36018e-05
-2.52421e-05
-0.00405782
0.00406827
-2.08259e-05
-2.24082e-05
-0.00407804
0.00408729
-1.82535e-05
-1.97528e-05
-0.00409592
0.00410407
-1.58983e-05
-1.73095e-05
-0.00411166
0.00411882
-1.37578e-05
-1.50829e-05
-0.00412548
0.00413174
-1.18169e-05
-1.30659e-05
-0.00411323
0.00421527
5.29914e-05
1.30961e-05
0.00420965
4.31818e-05
-2.66769e-05
7.91642e-05
0.00423507
-9.20117e-06
0.00426996
0.0042261
-0.00415094
2.45055e-06
-0.00427264
0.00426855
3.9116e-05
6.23076e-05
0.0041445
-0.00411873
-1.44691e-05
3.67209e-05
0.00411161
-0.00410394
-1.64572e-05
-1.58349e-05
0.00409584
-0.00408712
-1.86457e-05
-1.78904e-05
0.00407791
-0.00406803
-2.10831e-05
-2.01765e-05
0.00405761
-0.00404644
-2.37897e-05
-2.27207e-05
0.00403468
-0.00402214
-2.67951e-05
-2.55439e-05
0.00409085
-0.00407091
-3.00389e-05
-2.86778e-05
0.0041244
-0.00406423
-9.162e-05
-3.1979e-05
0.00402144
-0.00397822
1.33921e-05
-2.82019e-05
0.00401005
-0.00401705
-8.36274e-08
-8.07325e-05
0.00387382
-0.00385287
-4.54143e-05
-4.34639e-05
0.00383111
-0.00380826
-4.97114e-05
-4.7685e-05
0.00378459
-0.00375982
-5.40565e-05
-5.1985e-05
0.00373419
-0.00374946
-5.84027e-05
-5.63042e-05
0.00372382
-0.00375055
-6.27311e-05
-6.06099e-05
0.0036964
-0.00361326
-3.15911e-05
-6.49512e-05
-0.00354479
-1.92941e-05
-0.00374057
-0.000178576
0.0042274
6.14155e-05
-9.76868e-06
0.00426911
9.4628e-05
-0.000113361
-0.00353446
3.69875e-05
-0.00348715
0.000150014
-0.000174831
-0.00371575
-0.00361543
-0.00374163
0.00370911
-0.000163636
0.00375514
-0.00375573
-0.000177983
-0.000164968
-0.00368885
0.003716
-0.000121108
-0.000146584
-0.00374212
0.00376744
-7.65946e-05
-7.92727e-05
-0.00379168
0.00381507
-7.10323e-05
-7.37563e-05
-0.00383741
0.00385892
-6.54424e-05
-6.8195e-05
-0.00387943
0.0038991
-5.99104e-05
-6.26395e-05
-0.00391775
0.0040145
-5.45604e-05
-5.72272e-05
-0.00395247
0.00396865
-4.93575e-05
-5.19976e-05
-0.00409347
0.00403548
-4.44272e-05
-4.69233e-05
-0.00401209
0.00402517
-3.96202e-05
-4.20647e-05
-0.00403742
0.00404904
-3.52142e-05
-3.74955e-05
-0.00405991
0.00407021
-3.11282e-05
-3.32802e-05
-0.00407984
0.00408895
-2.73648e-05
-2.93815e-05
-0.00409745
0.00410548
-2.39302e-05
-2.5809e-05
-0.00411296
0.00412002
-2.08186e-05
-2.25629e-05
-0.00412659
0.00413277
-1.80029e-05
-1.96305e-05
-0.00413823
0.0041768
1.44227e-05
7.64346e-06
6.37264e-06
-1.96785e-05
0.00424838
-5.38058e-06
0.00423915
-0.0041691
0.0042149
1.56119e-05
5.0882e-05
0.00421286
-0.00420896
3.52151e-05
0.00418343
1.96652e-05
2.81715e-06
4.01329e-05
0.00422616
0.0042531
0.0042044
-0.00416833
-3.36194e-05
5.77431e-05
0.00412656
-0.0041199
-2.11265e-05
-5.04916e-06
0.00411287
-0.0041053
-2.40274e-05
-2.28661e-05
0.0040973
-0.0040887
-2.72454e-05
-2.58868e-05
0.00407963
-0.00406988
-3.08253e-05
-2.92516e-05
0.00405962
-0.00404862
-3.47868e-05
-3.29878e-05
0.00403705
-0.00402471
-3.91415e-05
-3.71116e-05
0.00401176
-0.00399794
-4.38558e-05
-4.16232e-05
0.00398345
-0.00402611
-4.89547e-05
-4.64763e-05
0.00400262
-0.00393489
-5.43366e-05
-5.16973e-05
0.00395836
-0.00389834
-6.0102e-05
-5.72613e-05
0.00387875
-0.00385813
-6.60407e-05
-6.30502e-05
0.00383672
-0.00381425
-7.21887e-05
-6.90905e-05
0.00379096
-0.00376659
-7.84332e-05
-7.52657e-05
0.00374139
-0.00371509
-8.47068e-05
-8.15024e-05
0.00368795
-0.00365973
-9.09539e-05
-8.77409e-05
0.00363075
-0.00356525
-9.70861e-05
-9.39369e-05
0.00351508
-0.00343772
-4.03795e-05
-6.94617e-05
-0.0037503
-0.000180264
1.99207e-05
-0.000105174
-0.0034019
-0.00338591
-3.18874e-05
-0.00019005
-0.00344958
1.53918e-05
0.00419413
0.00419413
2.9427e-05
-0.000115534
0.000103188
-0.00370341
-0.000145786
-0.00372005
-6.48254e-06
-9.94165e-05
-0.003296
-5.98935e-05
-0.0033325
-0.00370229
0.00422646
-0.00420977
-1.07767e-06
0.00418735
5.4508e-05
6.59186e-05
-2.73299e-05
0.00418758
3.6267e-05
0.00422379
-0.00369846
0.00377038
-0.000217698
-0.000198611
0.000144968
-0.00366641
0.00375188
2.4124e-05
0.000180181
-0.00395619
-0.000145193
-0.00379675
0.00379616
-0.000177394
-0.000206639
-0.00377536
0.00374162
-0.000129894
-0.000144168
-0.00374017
0.00372773
-0.000108664
-0.000145134
-0.00375321
0.00377786
-0.000101247
-0.000104757
-0.00380146
0.00382423
-9.38028e-05
-9.73487e-05
-0.00384597
0.00386692
-8.63874e-05
-8.99392e-05
-0.00388687
0.00390604
-7.90778e-05
-8.2593e-05
-0.00392422
0.00394163
-7.19739e-05
-7.54104e-05
-0.0039581
0.00397387
-6.51214e-05
-6.84678e-05
-0.00398873
0.00400289
-5.85897e-05
-6.17881e-05
-0.00401627
0.00402901
-5.23625e-05
-5.54387e-05
-0.00404097
0.00405232
-4.65661e-05
-4.9456e-05
-0.00406295
0.00407303
-4.12041e-05
-4.39107e-05
-0.00408245
0.00409136
-3.62793e-05
-3.87996e-05
-0.00409968
0.00410754
-3.17925e-05
-3.41261e-05
-0.00411486
0.00412178
-2.77344e-05
-2.98863e-05
-0.00412821
0.00413428
-2.40738e-05
-2.60631e-05
-0.00415133
0.00416339
2.36063e-06
-9.39822e-06
4.49504e-06
2.44136e-05
-1.08072e-05
0.00423477
-3.74551e-05
1.23906e-06
0.00423034
0.00422611
0.00421496
0.00420216
-0.00419299
2.60469e-05
-0.00420052
0.00418166
4.82922e-05
2.13011e-05
0.00413994
-0.00414929
-2.4263e-05
4.6877e-06
0.00412814
-0.00412161
-2.76568e-05
-2.61993e-05
0.00411472
-0.0041073
-3.14464e-05
-2.97574e-05
0.00409947
-0.00409105
-3.56678e-05
-3.37203e-05
0.00408216
-0.00407263
-4.03589e-05
-3.81355e-05
0.00406259
-0.00405183
-4.55381e-05
-4.30296e-05
0.00404053
-0.00402846
-5.12109e-05
-4.84153e-05
0.0040158
-0.0040023
-5.73568e-05
-5.4287e-05
0.00398815
-0.00397313
-6.3974e-05
-6.06243e-05
0.00395742
-0.00394075
-7.10024e-05
-6.74112e-05
0.00392339
-0.00390507
-7.84294e-05
-7.4616e-05
0.00388597
-0.00386587
-8.61441e-05
-8.21437e-05
0.00384501
-0.0038231
-9.40945e-05
-8.99545e-05
0.00380042
-0.00377667
-0.000102179
-9.79486e-05
0.00375214
-0.00372654
-0.000110309
-0.000106035
0.00370015
-0.0036727
-0.000118402
-0.000114128
0.00364449
-0.00361522
-0.000126361
-0.000122147
0.00355468
-0.00346086
-0.0001342
-0.000130001
0.00339482
-0.00337362
-8.10954e-05
-9.79212e-05
-4.93183e-05
1.98756e-05
-0.00330306
-0.00332725
-9.56918e-05
0.000132988
-0.00369143
-7.58722e-05
-0.00347313
2.64486e-05
0.00416214
0.00419997
1.79558e-05
0.000188506
-0.00383079
4.93741e-05
-0.0033255
0.000845251
-0.00304749
0.00396046
5.70647e-05
-0.000108203
-0.00327611
-6.00572e-06
-0.00323998
-0.00242928
0.00372783
0.000419902
-0.0018424
-0.000301082
-0.00364517
-0.00356909
0.00374996
-6.91887e-07
0.000163017
-4.27128e-06
-0.00374097
0.00373479
-0.000211517
-0.000136199
-0.00373241
0.00370753
-0.000152519
-0.000204261
-0.00371097
0.00372448
-0.000143403
-0.000147605
-0.00371778
0.00374328
-0.00013416
-0.000138437
-0.00376777
0.00379148
-0.000124955
-0.00012925
-0.0038142
0.00383613
-0.000115742
-0.000120063
-0.0038571
0.0038773
-0.000106588
-0.000110902
-0.00389654
0.00391504
-9.75771e-05
-0.000101841
-0.00393261
0.00394945
-8.88111e-05
-9.29772e-05
-0.00396538
0.00398063
-8.03668e-05
-8.44032e-05
-0.00399502
0.00400875
-7.2314e-05
-7.61824e-05
-0.00402169
0.00403402
-6.46914e-05
-6.83788e-05
-0.0040456
0.0040566
-5.75707e-05
-6.10397e-05
-0.00406692
0.0040767
-5.09828e-05
-5.42225e-05
-0.00408584
0.0040945
-4.49375e-05
-4.79435e-05
-0.00410258
0.00411022
-3.94345e-05
-4.22071e-05
-0.00411734
0.00412407
-3.44615e-05
-3.7007e-05
-0.00413033
0.00413624
-2.99882e-05
-3.23236e-05
-0.00415496
0.00418329
-2.59723e-05
-2.81123e-05
-0.00417789
0.00417963
-2.82274e-06
9.89737e-06
-0.00420016
0.0041989
2.77069e-05
3.39786e-05
4.84155e-05
-2.61837e-05
0.00420811
-2.21425e-05
-9.64357e-06
0.00423069
0.00418841
3.82899e-05
1.59406e-05
0.00418054
0.00423822
-2.41276e-05
1.14593e-05
0.00420024
0.00420678
-1.2431e-05
-1.2363e-05
0.00422476
0.00422281
0.00422155
-0.00420267
2.94065e-05
-0.00429039
0.00418005
9.79768e-05
-5.08821e-05
0.00418803
-0.00417459
1.26077e-05
6.65994e-06
0.0041417
-0.00413612
-2.98499e-05
-2.81955e-05
0.00413022
-0.00412386
-3.40122e-05
-3.2102e-05
0.00411715
-0.00410993
-3.86658e-05
-3.64652e-05
0.00410231
-0.00409412
-4.38571e-05
-4.134e-05
0.00408549
-0.00407623
-4.962e-05
-4.67696e-05
0.00406648
-0.00405604
-5.5973e-05
-5.27799e-05
0.00404508
-0.00403337
-6.29192e-05
-5.93825e-05
0.00402108
-0.004008
-7.04434e-05
-6.65717e-05
0.00399429
-0.00397974
-7.85264e-05
-7.43296e-05
0.00396453
-0.00394841
-8.71175e-05
-8.2624e-05
0.00393162
-0.00391389
-9.6161e-05
-9.14066e-05
0.00389544
-0.00387602
-0.000105565
-0.000100592
0.00385587
-0.00383472
-0.000115241
-0.000110103
0.00381284
-0.00378994
-0.000125079
-0.000119835
0.00376629
-0.00374163
-0.000134972
-0.000129679
0.00371623
-0.00368983
-0.00014481
-0.000139527
0.0036627
-0.00363457
-0.00015449
-0.000149274
0.00360575
-0.003576
-0.000163945
-0.000158823
0.00350581
-0.00341377
-0.000173139
-0.000168109
0.00338993
-0.00334826
-0.000149877
-0.000119529
-0.000104127
7.62791e-05
-0.00324826
-0.00329498
-0.000157401
0.000127513
-0.00363043
-1.3778e-05
-0.00340997
0.00032554
-0.00331108
5.12258e-05
-0.00338273
0.00420251
-0.00420476
2.99587e-05
0.0041909
1.9632e-06
3.76166e-05
-2.43926e-05
0.00421154
-4.31395e-06
0.00422198
0.000348273
-0.00289402
8.97703e-05
-0.00325348
-0.00161297
-0.00196906
-0.00289267
0.00336517
-5.25989e-05
-8.49608e-05
7.32171e-05
-0.00323652
-0.000134629
-0.00324531
-0.00265113
-0.000542629
-0.00353144
-0.00354327
0.00361787
-7.5297e-05
-1.50756e-05
-0.00367615
0.00365449
-0.000189859
-0.000194479
-0.00363442
0.00366142
-0.000179518
-0.00018419
-0.00368765
0.00371328
-0.000169028
-0.000173835
-0.00373809
0.00376224
-0.000158317
-0.000163246
-0.0037855
0.00380805
-0.000147509
-0.000152508
-0.00382969
0.00385061
-0.000136665
-0.000141701
-0.00387062
0.00388992
-0.000125883
-0.00013091
-0.00390831
0.00392601
-0.00011527
-0.000120237
-0.00394282
0.00395895
-0.000104939
-0.000109792
-0.00397423
0.00398885
-9.4987e-05
-9.96825e-05
-0.00400266
0.00401585
-8.54974e-05
-8.99954e-05
-0.00402827
0.00404011
-7.65328e-05
-8.08059e-05
-0.00405125
0.00406183
-6.81539e-05
-7.2172e-05
-0.00407175
0.00408117
-6.03989e-05
-6.41461e-05
-0.00408998
0.00409833
-5.32837e-05
-5.67533e-05
-0.00410612
0.00411349
-4.68082e-05
-5.00007e-05
-0.00412037
0.00412686
-4.09587e-05
-4.38811e-05
-0.00413291
0.00413863
-3.57055e-05
-3.8373e-05
-0.00414395
0.00414898
-3.1001e-05
-3.3436e-05
-0.0041879
0.0041778
7.28241e-06
-2.90214e-05
7.01431e-06
3.5578e-05
-6.59119e-05
0.00423844
-5.99931e-06
1.58109e-05
0.00422088
0.00421799
-2.47947e-06
-1.144e-06
0.00418417
0.00416983
-3.60496e-05
5.23249e-05
0.00418397
0.00416958
0.00425075
0.00422556
-0.00420922
1.30688e-05
-0.00417697
0.00422211
5.2831e-05
-2.29515e-06
0.0041924
-0.0041489
-3.0886e-05
-1.01603e-05
0.00414388
-0.00413847
-3.5256e-05
-3.32209e-05
0.00413277
-0.00412663
-4.01541e-05
-3.78074e-05
0.00412014
-0.00411317
-4.56402e-05
-4.29478e-05
0.00410581
-0.00409791
-5.17606e-05
-4.86977e-05
0.00408958
-0.00408065
-5.85489e-05
-5.50983e-05
0.00407125
-0.0040612
-6.60233e-05
-6.21756e-05
0.00405064
-0.00403938
-7.41866e-05
-6.9941e-05
0.00402756
-0.00401498
-8.3023e-05
-7.83885e-05
0.00400181
-0.00398784
-9.25027e-05
-8.74962e-05
0.00397324
-0.00395779
-0.00010257
-9.72226e-05
0.00394169
-0.0039247
-0.000113152
-0.000107506
0.00390703
-0.00388845
-0.000124149
-0.000118256
0.00386918
-0.00384897
-0.000135453
-0.000129374
0.00382806
-0.0038062
-0.000146938
-0.000140741
0.00378365
-0.00376014
-0.000158476
-0.000152231
0.00373596
-0.00371083
-0.000169935
-0.000163712
0.00368505
-0.00365835
-0.00018119
-0.000175059
0.00363103
-0.00360284
-0.000192129
-0.000186148
0.00357409
-0.00354459
-0.000202642
-0.000196863
0.003457
-0.00339434
-0.000212537
-0.000207112
0.00333503
-0.00328191
-0.000187746
-0.000216717
-0.000105409
0.000103039
-0.00324294
-0.00323769
-0.000149629
9.85307e-05
-0.00340343
1.42493e-05
-0.003373
3.17668e-05
0.00417495
0.00420976
8.04147e-06
0.000207864
-0.00317067
-0.000308776
-0.00382878
2.33647e-05
-0.00322616
5.29542e-05
-0.00334591
9.18838e-05
-0.00327214
-0.00377675
-0.000843432
0.000295157
-0.000575856
-0.00349605
-0.000156985
-0.00337664
7.5661e-05
-0.00320914
-0.000141671
6.10177e-05
-0.00316229
-0.000135506
-0.00324385
-0.00341866
-0.00320279
0.00337522
-0.000225032
0.0033418
-0.00363715
-0.000548087
-0.000403612
-0.00350798
0.00358603
-0.000153343
-0.000147839
-0.00361252
0.00363872
-0.000216067
-0.000220966
-0.0036644
0.00368964
-0.000204757
-0.000209869
-0.00371419
0.00373821
-0.00019305
-0.000198385
-0.00376148
0.00378417
-0.000181001
-0.000186515
-0.00380604
0.00382728
-0.000168749
-0.00017438
-0.00384768
0.00386743
-0.000156416
-0.000162105
-0.00388634
0.00390459
-0.000144133
-0.000149819
-0.00392201
0.00393877
-0.000132033
-0.000137652
-0.00395472
0.00397002
-0.000120244
-0.000125737
-0.00398453
0.00399843
-0.000108882
-0.000114195
-0.00401157
0.00402411
-9.80463e-05
-0.000103133
-0.00403595
0.00404723
-8.78143e-05
-9.264e-05
-0.00405784
0.00406794
-7.82492e-05
-8.27841e-05
-0.00407741
0.0040864
-6.93931e-05
-7.36187e-05
-0.00409483
0.00410281
-6.12661e-05
-6.51739e-05
-0.00411027
0.00411733
-5.38693e-05
-5.74594e-05
-0.00412391
0.00413014
-4.71873e-05
-5.04675e-05
-0.00413594
0.00414143
-4.11897e-05
-4.41751e-05
-0.00414654
0.00415137
-3.58309e-05
-3.85432e-05
-0.00415586
0.0041942
-3.10541e-05
-3.35188e-05
-0.00420097
0.0042142
1.67256e-05
2.45963e-07
-0.00416132
0.00418202
1.10649e-05
5.48469e-05
5.5763e-05
-4.04709e-05
0.00420559
2.88217e-06
-2.94379e-05
0.00420858
0.00423359
4.39261e-05
5.57023e-06
0.00418895
0.00422145
-2.22057e-06
-1.16337e-06
0.00418755
0.00417318
4.53143e-06
-7.88333e-06
0.00418732
0.00417295
-1.99696e-05
1.0572e-05
0.00422094
0.00422289
-4.42529e-07
2.95884e-06
0.00420724
0.00423211
0.00423793
-0.0041868
1.70041e-06
-0.00422131
0.00419978
2.44935e-05
2.46631e-05
0.00419196
-0.00417907
1.72422e-07
2.8661e-06
0.00415584
-0.00415127
-3.54575e-05
-3.33896e-05
0.00414644
-0.00414125
-4.04452e-05
-3.80436e-05
0.00413578
-0.00412988
-4.60483e-05
-4.3283e-05
0.00412366
-0.00411698
-5.23275e-05
-4.91668e-05
0.00410993
-0.00410236
-5.933e-05
-5.57487e-05
0.00409439
-0.00408584
-6.70897e-05
-6.307e-05
0.00407686
-0.00406726
-7.56252e-05
-7.11575e-05
0.00405718
-0.00404643
-8.4938e-05
-8.00224e-05
0.00403516
-0.00402317
-9.50103e-05
-8.9657e-05
0.00401063
-0.00399733
-0.000105804
-0.000100035
0.00398345
-0.00396877
-0.000117254
-0.000111105
0.00395348
-0.00393735
-0.000129276
-0.000122795
0.0039206
-0.003903
-0.000141758
-0.000135005
0.00388475
-0.00386563
-0.000154574
-0.000147619
0.00384587
-0.00382522
-0.000167582
-0.000160503
0.00380394
-0.00378179
-0.000180632
-0.00017351
0.00375901
-0.00373538
-0.000193571
-0.000186488
0.00371115
-0.00368609
-0.000206248
-0.000199288
0.00366048
-0.00363408
-0.00021852
-0.000211761
0.00360719
-0.00357958
-0.000230247
-0.000223762
0.00355154
-0.00352283
-0.000241246
-0.000235149
0.00349378
-0.00343005
-0.00025148
-0.000245769
0.00336819
-0.00328545
-0.00021825
-0.000211483
-0.000185234
0.000126029
-0.00318465
-0.00325737
-0.000213319
7.08241e-05
-0.00326639
-0.00364539
-0.000567613
7.32795e-05
-0.00322058
0.00423723
-0.00424501
1.88414e-05
0.00423631
-2.85199e-05
2.63577e-05
-2.30233e-05
0.00420391
3.49132e-05
0.00419122
1.53748e-05
-0.00333542
5.4476e-05
-0.00330851
-1.10882e-05
-0.00337206
9.36152e-05
-0.0032901
0.00013287
-0.00328099
0.000171986
-0.00320825
-0.000172887
0.000170117
-0.00318188
-0.00023659
-0.00319366
-0.00333246
-0.00361787
0.00348218
-0.000412398
-0.000499661
0.000583399
-0.00372913
0.00373545
-0.00384911
-0.000386001
-0.00045003
-0.00337985
0.00346374
-0.000308929
-0.000301278
-0.0035586
0.00362425
-0.000218995
-0.000242691
-0.00364903
0.00367347
-0.000240502
-0.000245751
-0.00369734
0.0037208
-0.000228212
-0.000233746
-0.00374361
0.00376594
-0.000215376
-0.000221195
-0.00378757
0.00380867
-0.000202105
-0.00020815
-0.00382905
0.00384885
-0.000188552
-0.00019475
-0.00386789
0.00388635
-0.000174871
-0.000181149
-0.00390403
0.00392112
-0.000161221
-0.000167505
-0.00393744
0.00395317
-0.000147757
-0.000153973
-0.00396814
0.00398252
-0.000134626
-0.000140707
-0.00399617
0.00400925
-0.000121963
-0.000127845
-0.00402163
0.00403346
-0.00010988
-0.000115512
-0.00404463
0.00405528
-9.8468e-05
-0.000103808
-0.00406531
0.00407486
-8.77966e-05
-9.28129e-05
-0.00408383
0.00409234
-7.79122e-05
-8.25842e-05
-0.00410033
0.0041079
-6.88384e-05
-7.31559e-05
-0.00411498
0.00412169
-6.05771e-05
-6.454e-05
-0.00412795
0.00413387
-5.31124e-05
-5.67288e-05
-0.0041394
0.00414462
-4.64123e-05
-4.96978e-05
-0.00414948
0.00415408
-4.04307e-05
-4.34074e-05
-0.00415837
0.00416242
-3.51066e-05
-3.78043e-05
-0.00419549
0.00421403
-1.81175e-06
-3.28226e-05
2.38667e-05
6.80787e-06
-3.58111e-05
0.00423459
-1.63099e-05
-1.63536e-05
0.00424124
0.00422409
-8.20164e-06
5.10514e-06
0.00419205
0.00417743
-1.97716e-06
-1.18178e-06
0.00419071
0.00417631
4.32774e-06
-7.46225e-06
0.00419045
0.0041761
-3.86234e-05
2.32166e-05
0.00423634
0.00417681
0.00423231
0.00423376
-0.00423314
1.08905e-06
-0.00422755
0.00421161
4.04314e-05
3.08695e-05
0.00419743
-0.00416238
-3.48763e-05
-3.28466e-05
0.00415834
-0.00415398
-3.98169e-05
-3.74363e-05
0.00414938
-0.00414444
-4.5391e-05
-4.26379e-05
0.00413922
-0.00413361
-5.1662e-05
-4.85002e-05
0.00412769
-0.00412132
-5.86892e-05
-5.50867e-05
0.00411462
-0.00410743
-6.65206e-05
-6.24517e-05
0.00409986
-0.00409176
-7.51912e-05
-7.06373e-05
0.00408325
-0.00407415
-8.47197e-05
-7.96713e-05
0.00406461
-0.00405444
-9.51059e-05
-8.95639e-05
0.0040438
-0.00403248
-0.000106328
-0.000100305
0.00402065
-0.00400811
-0.000118341
-0.000111863
0.00399504
-0.00398122
-0.000131072
-0.000124179
0.00396685
-0.0039517
-0.000144422
-0.00013717
0.00393598
-0.00391947
-0.000158268
-0.000150724
0.00390238
-0.00388448
-0.000172468
-0.000164711
0.00386601
-0.00384673
-0.000186861
-0.000178978
0.00382688
-0.00380623
-0.000201279
-0.000193361
0.00378503
-0.00376305
-0.000215546
-0.000207689
0.00374055
-0.00371731
-0.000229492
-0.00022179
0.00369358
-0.00366915
-0.000242948
-0.000235492
0.00364428
-0.00361877
-0.000255757
-0.000248633
0.00359286
-0.00356636
-0.000267754
-0.000261055
0.0035395
-0.00351212
-0.000278862
-0.000272621
0.00344038
-0.00336973
-0.000288903
-0.000283221
0.00332598
-0.0033059
-0.000256668
-0.000257068
-0.000357856
0.000144411
-0.0031632
-0.00327051
-0.000204033
0.000204433
-0.00319406
-0.0032319
-0.000278039
2.16938e-05
-0.0032148
2.73219e-05
0.00419264
0.00424956
-3.03914e-06
0.00031583
-0.00378843
-0.000376512
1.65099e-05
-0.00329745
0.000387065
-0.00380036
2.45319e-05
-0.0032562
5.56292e-05
-0.00327052
5.37832e-05
-0.00328143
9.5201e-05
-0.00325243
0.000135051
-0.00324406
0.000174675
-0.00321281
0.000180148
-0.0031576
-0.000233883
0.000203848
-0.00316403
-0.000256979
-0.0032088
-0.00329426
-0.00385918
0.0037338
-0.000260613
-0.000466727
-0.00369963
0.000377921
0.00393261
-0.00380533
-0.000594006
-0.000303086
-0.0036564
0.00360358
-0.000359574
-0.000372637
-0.00359335
0.00357106
-0.000286631
-0.000291051
-0.00360889
0.00366552
-0.000275619
-0.000280527
-0.00368842
0.00371096
-0.000263046
-0.000268655
-0.00373295
0.00375454
-0.000249794
-0.000255736
-0.00377552
0.00379606
-0.000235917
-0.000242181
-0.00381597
0.00383541
-0.000221539
-0.000228061
-0.00385418
0.00387245
-0.000206819
-0.000213523
-0.00389003
0.00390709
-0.000191928
-0.000198733
-0.00392345
0.00393928
-0.000177047
-0.000183868
-0.00395441
0.003969
-0.00016235
-0.000169106
-0.00398291
0.00399629
-0.000148002