/*--------------------------------*- C++ -*----------------------------------*\
  =========                 |
  \\      /  F ield         | OpenFOAM: The Open Source CFD Toolbox
   \\    /   O peration     | Website:  https://openfoam.org
    \\  /    A nd           | Version:  10
     \\/     M anipulation  |
\*---------------------------------------------------------------------------*/
FoamFile
{
    format      ascii;
    class       surfaceScalarField;
    location    "19";
    object      phi;
}
// * * * * * * * * * * * * * * * * * * * * * * * * * * * * * * * * * * * * * //

dimensions      [0 3 -1 0 0 0 0];

internalField   nonuniform List<scalar> 
57492
(
-0.0188033
-0.000233778
0.00408695
0.0149502
0.0137515
-0.0120545
-0.0205003
-0.00270187
0.00869405
0.0274409
-0.0334331
0.099041
0.0723067
-0.0164306
-0.154917
-0.209919
0.0849666
0.223994
0.051844
-0.0508218
-0.026373
0.0253509
-0.0948813
0.02302
-0.0138984
0.0857598
0.0169969
-0.0600343
0.0308258
-0.101782
0.0970168
-0.0260608
0.0266064
0.0933772
-0.0891578
0.0274345
0.00761375
-0.02351
-0.0115382
0.00636073
0.0293101
-0.00823631
-0.00538052
0.00802011
0.00372114
0.0010043
0.00122892
0.102014
-0.0868409
-0.0379472
0.0227743
0.00270693
0.0770494
0.0222574
-0.00678915
0.0176744
0.0883019
-0.0991872
-0.0164505
0.0872344
-0.077573
0.0142655
-0.0298864
0.0156209
-0.0851615
0.0573679
0.0420591
-0.120155
0.0137943
0.0879718
0.0183891
0.0219739
-0.121443
-0.0206862
0.0125483
0.00337367
0.0119743
-0.0278963
0.00854271
0.00169013
0.00231549
-0.0925622
0.108864
0.000342519
-0.0166446
-0.147315
0.0859735
-0.0312205
-0.0582232
0.0185108
0.0314465
0.00826586
-0.0432668
-0.0178189
0.00286246
-0.0248398
-0.0668728
0.082686
0.00902654
-0.0302998
0.0101896
-0.00472957
0.0596879
-0.037831
-0.0364333
0.0145764
-0.0477145
0.0397063
0.067696
-0.0721603
-0.124949
0.0738227
0.123287
-0.12609
-0.0402991
0.0942291
-0.0663693
-0.0109925
0.0773619
-0.0180019
-0.0483674
-0.0833267
0.10208
-0.0367548
0.0171364
-0.0558694
-0.0445937
-0.0487193
0.0717393
-0.031231
-0.113114
0.0549164
0.0581975
-0.20444
0.091326
0.16041
-0.00181108
-0.0163284
-0.14227
0.120134
-0.0264202
0.0666955
-0.000197644
0.15622
-0.157834
0.0943858
0.0150917
-0.0924806
0.0923084
-0.011821
0.10317
-0.0358793
-0.075658
0.00836716
0.116525
0.00173713
0.0779395
-0.0431749
0.0575439
0.0278311
0.135868
-0.103526
-0.0136003
0.012329
0.104798
-0.106812
-0.00627213
0.00955834
0.0216503
0.0988623
-0.0972404
-0.0232722
0.0142146
-0.0943461
-0.057134
0.116865
0.0933261
-0.153057
0.0257887
0.127929
-0.210852
-0.00458835
-0.00361854
0.0019381
0.0062688
0.00717899
-0.00374724
0.00344164
0.00387098
-0.000133621
-0.00235079
0.00217388
0.00738048
-0.00544238
-0.0003895
0.00776998
0.236567
0.0944932
-0.159378
-0.171682
0.0876382
-0.0626734
0.211603
-0.205096
0.0829538
0.20978
0.0447362
-0.155339
0.0247529
-0.0777565
0.0630072
-0.0100036
0.0674477
-0.0786375
0.0359428
0.00360822
-0.00427869
0.000436685
0.00568653
0.00200864
0.0156059
0.00503083
-0.0856149
0.153273
0.064829
-0.132487
0.0887492
-0.106916
0.0482078
0.140618
-0.0355535
0.361288
-0.0597598
-0.0710786
-0.23045
0.0582703
0.19522
0.107797
0.0335857
-0.149811
0.174495
0.00530577
-0.00800764
0.0139998
0.0475787
0.0832843
-0.0380819
-0.0927811
0.0668216
0.00819803
0.0205388
-0.00788631
-0.0126525
0.0208253
-0.000286494
-0.201814
0.0880512
-0.0716253
0.185389
-0.166642
-0.105455
0.0702823
-0.0940674
0.0989179
-0.171493
0.116283
-0.00158432
-0.0569463
-0.0577526
-0.0519246
0.129629
0.0385792
-0.0650275
-0.0078113
0.0209141
-0.0567462
-0.00986556
-0.021514
-0.0921785
0.0493651
0.0087523
0.000221286
-0.0583387
0.0169651
0.0532837
-0.0208837
-0.017262
0.00238615
0.031841
-0.0110772
0.00256751
-0.0155979
0.00474199
-0.0607357
0.0392217
0.00647983
-0.0672155
0.0111441
0.00968127
0.117923
0.0764364
-0.00869141
0.0421919
-0.134188
-0.0154577
0.0957288
-0.0672276
-0.0130435
-0.0230333
0.100901
-0.093325
0.0711222
0.0472148
-0.0180269
-0.10031
-0.0181407
0.00537352
0.0838894
0.0942345
-0.0651604
-0.0338772
-0.0734561
0.0206153
0.0867179
-0.0361228
0.085404
-0.0831584
0.0016745
-0.111253
0.00960044
0.0104083
0.000196467
0.0255767
-0.00483703
-0.00698816
-0.0184741
-0.00333609
0.0473869
-0.0221945
-0.00833406
-0.0116867
0.0273994
0.00553712
-0.0212498
0.049586
-0.0497527
-0.0115199
-0.0291006
0.0596789
0.0190076
-0.0154709
0.0137698
-0.177745
0.0856433
0.180153
0.181188
-0.0722451
-0.214397
-0.0881825
0.0916255
-0.00673115
-0.0509522
-0.00918942
-0.0374801
0.00044915
-0.00332571
-0.0158834
0.012317
0.00689208
-0.0115028
0.000950658
0.00722645
-0.0143365
-0.0130497
-0.0157247
-0.0256216
0.00386615
-0.0419128
-0.0247641
-0.048503
-0.05108
0.0619222
0.0376608
0.00334244
0.0220798
-0.0739252
-0.0681276
0.02039
-0.119099
0.0419425
-0.00800536
-0.113502
0.00642535
-0.0120217
-0.00507745
-0.0858763
0.0790758
0.011878
-0.000342548
-0.088945
0.0842101
-0.00955379
-0.280762
-0.0704421
0.0858972
0.0809008
-0.1094
0.110176
-0.0190888
-0.0185313
0.0209174
-0.0178083
-0.000723037
0.022261
-0.00496607
0.159537
-0.0977183
-0.0886143
0.0267959
0.142901
0.0164379
0.144179
0.0289037
-0.147294
0.0713705
0.113546
-0.0407379
0.0301652
-0.0749217
0.116127
-0.000178207
-0.0176301
0.035495
-0.121194
-0.116325
0.080962
0.147585
0.0599052
-0.00341694
-0.0624921
0.00600383
0.0189955
-0.00680481
-0.0765079
0.0138336
0.102381
0.0102375
-0.0677498
-0.0101463
-0.000871604
0.0398363
-0.0105606
-0.0303099
0.00103426
0.00117205
-0.000947381
0.0396116
0.00753674
0.0398508
-0.0462155
-0.0960595
0.147388
-0.0401843
0.192413
-0.197499
-0.090974
-0.00298012
-0.0956286
0.112442
-0.194753
-0.0152355
-0.145753
-0.0718382
0.0228377
0.0830661
0.0661957
-0.135467
0.0507
0.128043
-0.0956766
0.0491732
-0.0839271
0.0488424
-0.0140885
0.0532357
-0.080676
0.0766135
0.117877
0.0362901
0.105778
-0.00538887
-0.105764
0.00537462
0.116315
-0.0142031
0.00366552
0.123016
-0.0173848
-0.000796204
-0.104835
0.0879301
-0.0280021
0.0630881
0.10322
-0.0237916
0.0177498
-0.0971782
0.0200898
0.105175
-0.0220446
-0.0944082
-0.0305037
0.10112
0.016248
-0.0900409
-0.031897
0.0881111
-0.0434799
-0.0813214
0.0373712
0.0874301
-0.0458066
-0.0831495
0.0854762
0.0425251
0.079594
-0.0246604
-0.0974587
0.0786322
-0.0819137
-0.0490987
0.0485138
0.0792171
-0.0392345
0.0697298
-0.103388
0.0915947
-0.0128667
-0.134231
0.0101771
0.136255
-0.0122012
0.034346
-0.0853751
0.0783999
-0.0859783
0.0929535
-0.0552747
0.0866081
-0.116708
-0.00321148
0.00661676
-0.0255998
-0.0664377
-0.0963786
0.0583814
0.00930835
-0.0102557
0.000771667
0.00853669
-0.0130559
-0.11293
0.0828113
-0.0939873
-0.011365
0.0922964
0.00822664
-0.0982195
-0.00399452
-0.0548419
0.0417298
0.052879
-0.0397668
0.0739513
-0.048187
-0.0806062
0.019989
0.0956921
-0.000744667
0.00379495
0.00735799
0.00722178
-0.00796645
0.0110167
0.000220409
0.00228057
-0.00485177
0.000987929
-0.00076752
0.0032685
0.00543592
0.00120739
0.0018994
-0.0034647
0.00890062
-0.00225731
0.0095046
-0.00154173
-0.0234338
-0.00414714
0.0136517
-0.00568886
0.0263238
0.0707716
-0.0917219
0.0335461
-0.0975168
0.0902946
0.0990873
0.00523042
-0.0358735
-0.0619756
0.035739
0.06211
-0.0129077
0.0641703
-0.0871361
0.0105768
-0.0854601
0.0911818
-0.0920365
0.0692662
-0.0684115
0.0903686
0.0714363
-0.0706231
0.0688573
-0.0921716
-0.0687221
0.0908026
0.0709749
-0.071409
0.0922585
0.0724472
-0.073903
0.0712847
0.0942664
-0.0732927
0.0974716
-0.096725
0.0705381
0.0647882
0.0992558
-0.0697776
0.0941616
0.0680982
-0.0931696
0.0688918
-0.0921317
0.069937
-0.0915638
0.0708684
-0.0935698
0.0712722
-0.0915614
0.0668488
0.0632715
0.103017
-0.0670325
0.0895664
0.0678668
0.0690389
-0.0913469
-0.0698636
-0.0911175
0.068595
0.0687911
-0.0974062
-0.0627318
0.0638272
0.102694
-0.0635042
0.0899772
0.0634164
-0.0938396
0.0715132
0.101776
0.0585487
-0.0576306
0.0510381
0.101424
-0.0506862
0.0901253
0.0584006
0.0906115
0.0505519
0.0687815
-0.096074
-0.0701137
-0.0941484
0.0690904
0.0421296
0.100667
-0.0413729
0.0908415
0.0418996
0.0705801
-0.0952229
-0.0714312
-0.0926373
0.069069
0.0314644
0.100358
-0.0311555
0.0912873
0.0310185
0.0712993
-0.0944634
-0.0720588
-0.0913258
0.0699877
0.0197869
0.0999182
-0.0193469
0.0914505
0.0196237
0.0718487
-0.0931503
-0.0731618
-0.0893079
0.0698308
0.00734518
0.0996711
-0.00709808
0.0916639
0.0071317
0.0717591
-0.0919355
-0.0729739
-0.0875283
0.0699795
-0.00533722
0.099551
0.00545727
0.0918394
-0.00551266
0.0709134
-0.0904601
-0.0723888
-0.0849809
0.068366
-0.0178874
0.0994403
0.0179981
0.0918961
-0.0179441
0.0690973
-0.0858635
-0.0736939
-0.0811769
0.0652934
-0.0300055
0.0998064
0.0296394
0.0918833
-0.0299927
0.0651354
-0.0853124
-0.0656865
-0.0779523
0.0619108
-0.0410727
0.100209
0.0406705
0.0911518
-0.0403412
0.0596356
-0.0795444
-0.0654036
-0.0732727
0.054956
-0.047172
0.097761
0.0496197
0.0934719
-0.0494921
0.0510224
-0.0775656
-0.0530013
-0.0705806
0.0483303
-0.0563922
0.089621
0.0645321
0.0945568
-0.0574771
0.0413724
-0.0434941
-0.0754439
-0.0685952
0.039387
-0.0670527
0.0684129
0.0882608
0.0931775
-0.0656734
-0.0843887
0.0864886
-0.0551011
-0.0845983
-0.0432845
0.0299638
-0.0305421
-0.0748656
0.0272808
-0.0659122
-0.084329
0.0868131
-0.0681706
-0.063244
-0.0836204
0.0844021
-0.0731705
-0.0705012
-0.0850629
0.0855842
-0.0736831
-0.0736347
-0.0859342
0.0861138
-0.0716107
-0.0724088
-0.0861909
0.0932109
-0.0697518
-0.0701908
-0.0921395
0.0908476
-0.0674303
-0.0687922
-0.0927741
0.0914761
-0.0693251
-0.070338
-0.0868291
0.0839568
-0.0710308
-0.066762
-0.0811386
0.0800344
-0.0686734
-0.0704744
-0.0790446
0.0782205
-0.0626802
-0.0660427
-0.0774812
0.0768695
-0.0500745
-0.0568912
-0.0764315
0.076161
-0.0308849
-0.0409349
-0.0760551
0.0761748
-0.00721784
-0.019241
-0.0764591
0.0769168
0.0175405
0.00517303
-0.0775148
0.0782407
0.0399446
0.0290413
-0.0776309
0.0818319
0.0603311
0.0502295
0.083376
0.0668688
-0.0733342
0.0736205
0.0879744
-0.0720938
0.0919371
0.0985196
-0.0982716
-0.0497401
-0.0982281
0.096691
-0.0641362
-0.0571857
0.0989236
-0.0990515
-0.0298648
-0.0396892
0.099039
-0.0988589
-0.00569282
-0.0179566
0.0985594
-0.098104
0.0191684
0.00683225
0.0974971
-0.0967464
0.0411488
0.0304116
0.095905
-0.095014
0.0575096
0.0497105
0.0941403
-0.0931888
0.0669153
0.0625428
0.0937687
-0.0934656
0.070235
0.0686781
0.0943581
-0.0927562
0.0683352
0.0697842
0.0912538
-0.089602
0.0696204
0.069366
0.0896772
-0.0895454
0.0684632
0.066924
0.0850815
-0.0836195
0.0676283
0.0670493
0.0819813
-0.0801004
0.0681069
0.0674308
0.078
-0.07567
0.0676495
0.0677304
0.0731949
-0.0715534
0.0636519
0.0658908
0.0687717
-0.0672312
0.0534155
0.0591291
0.0641744
-0.0619214
0.037134
0.0452734
-0.0599043
0.0252637
-0.0847481
-0.0303922
0.0838098
0.0731867
-0.0694266
0.0940238
0.0142033
-0.0142504
-0.065865
0.0135094
-0.0592104
0.0150764
-0.0158362
-0.0839884
-0.0740397
-0.0908769
0.0892137
-0.0534379
0.0921365
-0.0926728
-0.0298559
-0.0420248
-0.087687
0.0875725
-0.068056
-0.0617174
-0.0876487
0.0877675
-0.0732893
-0.0705774
-0.0878091
0.0877468
-0.0736207
-0.0736764
-0.0875698
0.0872717
-0.0713126
-0.0722319
-0.0868248
0.0861984
-0.0691253
-0.0697439
-0.0855326
0.0862707
-0.0681684
-0.0681264
-0.0836091
0.0824951
-0.0682111
-0.0676763
-0.0837304
0.0810204
-0.0683208
-0.0679973
-0.078201
0.0765929
-0.0670654
-0.0676549
-0.0750515
0.0736355
-0.0612642
-0.0645012
-0.0723643
0.0712804
-0.0489907
-0.05562
-0.0704713
0.0699223
-0.0303359
-0.0401259
-0.0696585
0.0697008
-0.00726014
-0.0189772
-0.0700132
0.0706074
0.0169462
0.00486068
-0.0714563
0.0725226
0.0388783
0.0281924
-0.0738939
0.0770719
0.0571531
0.0488582
0.0751614
-0.0761553
0.0889684
0.0729156
0.0860556
-0.0790533
0.0823833
0.0698567
0.0648873
0.100008
-0.102135
-0.0620095
0.0968996
-0.0663177
0.0729445
-0.0717106
0.0927899
0.0887264
0.10409
-0.105118
-0.0487121
-0.0552304
0.105459
-0.105929
-0.0293953
-0.0393485
0.10612
-0.105987
-0.00582586
-0.0177647
0.105629
-0.104968
0.0185075
0.00647374
0.104094
-0.103016
0.0400717
0.0295371
0.101749
-0.100353
0.0561135
0.0484431
0.0989192
-0.0974515
0.0654476
0.0611091
0.0959838
-0.0946266
0.0688778
0.0672104
0.0933408
-0.093712
0.0687064
0.0684984
0.0918683
-0.0895558
0.0673079
0.0675223
0.0888712
-0.0866585
0.0662505
0.0662394
0.0850666
-0.0832804
0.0658421
0.0654574
0.0812839
-0.0790603
0.0658833
0.0654344
0.0766047
-0.0739204
0.0649652
0.0652747
0.0710959
-0.0681947
0.0607507
0.0630664
0.0653689
-0.0627639
0.0508105
0.0563033
0.0604929
-0.0572623
0.0339034
0.0430025
0.0557597
-0.0544098
0.0121595
0.0237611
-0.092797
-0.015712
-0.000570637
0.000162318
-0.0588021
-0.0545146
-0.000465816
-0.000827165
-0.0648755
0.0730399
0.082259
0.0954692
-0.0702803
0.000851472
-0.00119181
-0.083648
4.67209e-05
-0.0919923
-0.014707
0.0147711
-0.0588662
-0.0137353
-0.0554864
-0.0760586
0.0785857
-0.0751447
0.0664157
0.0796472
0.0719784
-0.0724794
0.0739441
0.0913252
-0.0699887
0.0929785
-0.099509
0.101109
-0.00155363
0.0140899
-0.0157912
-0.090291
0.100156
-0.0353077
0.0342643
-0.0991126
0.014737
-0.101218
0.100241
-0.0288789
-0.0158207
-0.0985498
0.0958556
-0.0507436
-0.0403336
-0.0944526
0.0923467
-0.0659502
-0.0603143
-0.0918285
0.0912804
-0.0727412
-0.0700592
-0.090703
0.0900659
-0.0729836
-0.0730989
-0.0893607
0.0885616
-0.0705135
-0.0715267
-0.087662
0.0866447
-0.068108
-0.0688443
-0.0855032
0.0842082
-0.0668734
-0.066985
-0.0828248
0.0812107
-0.0665969
-0.0662929
-0.0794317
0.0775895
-0.0664786
-0.0662183
-0.0755657
0.0734503
-0.06495
-0.0656311
-0.0714028
0.0694953
-0.0593568
-0.0624537
-0.0677959
0.0663158
-0.0475106
-0.0539206
-0.0651619
0.0643454
-0.0295195
-0.0389719
-0.0639269
0.0638806
-0.00721386
-0.0185587
-0.0642262
0.0649546
0.0162179
0.00451504
-0.0660223
0.0673746
0.0375261
0.0271247
-0.0693624
0.0720461
0.0544694
0.0468703
0.0617888
0.0760524
-0.0740434
0.0869594
-0.0765348
0.0750972
0.0836966
0.0855731
0.0886271
0.105069
-0.107769
-0.0593101
-0.102017
0.0977982
-0.0660612
-0.0632656
0.109227
-0.110633
-0.0473066
-0.0537718
0.111694
-0.112434
-0.0286555
-0.0382878
0.112781
-0.11273
-0.00587691
-0.0174172
0.112282
-0.111475
0.0177005
0.00602552
0.110357
-0.108925
0.0386397
0.0284193
0.107276
-0.105439
0.0542768
0.0467943
0.103513
-0.101534
0.0634687
0.0591828
0.0995871
-0.0976765
0.0669671
0.0652635
0.0958812
-0.0941172
0.0669424
0.0667032
0.0924325
-0.0907527
0.0656281
0.0658376
0.0890109
-0.0871776
0.0644172
0.0644976
0.0852683
-0.0831815
0.0637552
0.0635481
0.0809
-0.0783884
0.0633717
0.0631529
0.0756497
-0.0726915
0.062007
0.062536
0.0695955
-0.066432
0.0575872
0.0599704
0.0633607
-0.0604975
0.0479473
0.053232
0.0579974
-0.0559753
0.0318814
0.0405024
0.0537289
-0.0519836
0.0104142
0.0215146
0.0517586
-0.0533505
-0.0121433
-0.000690814
-0.0255147
0.0277344
-0.0577061
-0.0551061
-0.0237591
-0.015488
-0.0839513
0.0160662
-0.0661706
0.0739341
0.0808104
0.0955586
-0.0677491
-0.0292322
-0.0963665
0.029875
-0.0610067
-0.027663
-0.0873734
0.135025
0.0367946
-0.034577
-0.0573237
0.0387033
-0.0596148
-0.0795274
0.114021
0.0611989
-0.0779446
0.0512961
-0.0754804
-0.104186
0.108001
0.0304491
0.0457476
-0.0359128
-0.10759
0.107021
-0.000984315
0.0151476
-0.106141
0.103945
-0.0266828
-0.0149406
-0.102216
0.100825
-0.0493522
-0.038605
-0.0983962
0.0972047
-0.0647587
-0.0578858
-0.0960206
0.0948307
-0.0715513
-0.0688752
-0.0936456
0.0924425
-0.0717804
-0.0719139
-0.0912157
0.089939
-0.0692369
-0.0702999
-0.088605
0.0871741
-0.0666771
-0.0675102
-0.0856402
0.0839781
-0.0652113
-0.065451
-0.0821874
0.0802282
-0.0646377
-0.0645023
-0.0781055
0.0758124
-0.0641856
-0.0640956
-0.0734024
0.0708901
-0.0624377
-0.0632211
-0.0684058
0.0660457
-0.0569966
-0.0599693
-0.0639296
0.0620992
-0.0456802
-0.0518045
-0.0606458
0.0595987
-0.0284723
-0.0375185
-0.0590366
0.0589222
-0.00709944
-0.0179966
-0.0592874
0.0601173
0.0153879
0.00414985
-0.061356
0.0629584
0.0359237
0.025886
-0.0655422
0.0679437
0.0520679
0.0442865
-0.0704296
0.0733961
0.0634491
0.059303
-0.0763374
0.0801593
0.0701122
0.0690371
0.0759125
-0.0758477
0.0836317
-0.0761314
0.0740257
0.082265
0.0805915
0.0759054
-0.0743862
0.0854402
0.0856309
0.073699
-0.0723303
0.0899566
0.0879399
0.0713784
-0.0697367
0.0939168
0.0920266
0.103297
-0.106419
-0.0629392
-0.100809
0.0971184
-0.0660463
-0.0652612
0.109495
-0.112014
-0.0567918
-0.0601892
0.114179
-0.11598
-0.0455051
-0.0516067
0.117383
-0.118368
-0.02767
-0.0368853
0.118856
-0.118855
-0.0058777
-0.0169294
0.118358
-0.117422
0.0167639
0.00552886
0.116098
-0.114361
0.0369026
0.0270953
0.112357
-0.110126
0.0520455
0.0447909
0.107762
-0.105334
0.0610413
0.0568185
0.102945
-0.100587
0.0646095
0.0628736
0.0983399
-0.096165
0.0647675
0.0644561
0.0940798
-0.0920241
0.0635724
0.0637525
0.0899729
-0.0878477
0.062292
0.0624464
0.0856636
-0.0833116
0.0614032
0.061364
0.0807906
-0.0780437
0.0606248
0.0606319
0.0750947
-0.0719476
0.0588599
0.059587
0.0686889
-0.0653803
0.0542786
0.0567117
0.0621686
-0.0591528
0.0449315
0.0500202
0.0565031
-0.0543397
0.029718
0.0378527
0.0528537
-0.0521196
0.00968006
0.0200287
0.0515956
-0.051697
-0.012042
-0.00121479
0.0538356
-0.0562013
-0.0322113
-0.0216205
-0.0436318
0.0467451
-0.060437
-0.0585976
-0.0412355
-0.0296624
-0.0835211
0.0305889
-0.0668846
-0.0388652
-0.0851642
0.0414951
-0.0637985
0.0746726
-0.0732591
0.0686987
0.0782636
0.0704347
-0.0684715
0.0702548
0.0921335
-0.065418
0.094065
-0.0513234
-0.084237
0.0492754
-0.0621451
-0.115427
-0.00228472
-0.0994507
0.108044
0.0526052
-0.0518551
0.0542668
-0.0628486
-0.0483123
-0.0621405
-0.0965107
0.0483561
-0.0745539
-0.110494
0.111562
0.0293813
0.0432981
-0.112478
0.111069
0.000425275
0.0142309
-0.109182
0.108255
-0.0257553
-0.0130541
-0.106918
0.105311
-0.0477456
-0.037268
-0.103567
0.101787
-0.0629788
-0.0561415
-0.100018
0.0982542
-0.0697877
-0.0671058
-0.0965172
0.094787
-0.0700502
-0.0701769
-0.0930742
0.0913491
-0.0675119
-0.0685871
-0.0896058
0.0877992
-0.0648705
-0.0657669
-0.0859199
0.0839227
-0.0632141
-0.0635717
-0.0818094
0.079531
-0.0623593
-0.062389
-0.077091
0.0744585
-0.0615531
-0.0616556
-0.0716993
0.0688349
-0.0595732
-0.0604619
-0.0659943
0.0632717
-0.054274
-0.0571288
-0.0608118
0.0586907
-0.0435591
-0.0493446
-0.0569852
0.0557412
-0.0272283
-0.035813
-0.055052
0.0548859
-0.00693325
-0.0173075
-0.0552615
0.0561642
0.0144852
0.00377419
-0.0575281
0.059299
0.0341528
0.0245222
-0.061375
0.0637321
0.0497109
0.0422105
-0.0678431
0.0699335
0.0613587
0.055192
0.0657115
0.0758085
-0.0759044
0.0837277
-0.073773
0.0747472
0.0812907
0.082627
0.0731175
-0.0727521
0.0850747
0.0828439
0.07167
-0.0710466
0.0893331
0.0868578
0.0912348
0.107231
-0.110716
-0.0594547
-0.103397
0.0986429
-0.0612919
-0.0614273
0.113635
-0.116058
-0.0543691
-0.0572694
0.118516
-0.120677
-0.0433441
-0.0491487
0.122362
-0.123559
-0.0264725
-0.0352004
0.124187
-0.124245
-0.00582046
-0.0163016
0.123724
-0.122679
0.0157183
0.00500865
0.121164
-0.119187
0.0349261
0.0255801
0.116885
-0.114313
0.0494733
0.0424892
0.111581
-0.108768
0.0582277
0.0540865
0.105996
-0.103264
0.0618777
0.0601018
0.100653
-0.0981279
0.0622421
0.0618454
0.0957131
-0.0933442
0.0612035
0.0613376
0.0910072
-0.0886308
0.0599157
0.0601093
0.086201
-0.0836227
0.058825
0.0589341
0.0809077
-0.0779937
0.0577107
0.0579168
0.0749195
-0.0716794
0.0556199
0.0565128
0.0683571
-0.0649955
0.050917
0.0533894
0.0617269
-0.0586417
0.0418463
0.0467517
0.055922
-0.0537124
0.0275083
0.035133
0.0521928
-0.051449
0.00893625
0.0185091
0.051541
-0.052394
-0.011189
-0.0011228
0.053111
-0.0550846
-0.0302377
-0.0209035
0.0580363
-0.0609902
-0.0453583
-0.0382839
-0.0547829
0.0574835
-0.0648411
-0.064758
-0.0510151
-0.0423123
-0.080074
0.0429646
-0.0683541
0.0732437
0.0797672
0.0957741
-0.0625493
-0.0527647
-0.083723
-0.0754873
-0.120546
-0.0657173
-0.094007
0.0512963
-0.0658194
0.0572731
-0.0651514
-0.136834
0.0380388
-0.0668509
0.0511772
-0.12116
-0.0752758
-0.112121
0.060378
-0.0657431
-0.0591491
0.0618708
-0.0675629
-0.0554931
-0.068414
-0.0739016
-0.105012
0.110287
0.0473306
0.107191
-0.118189
0.0490362
0.0505349
-0.113822
0.115414
0.0277902
0.0397627
-0.115989
0.115902
0.000512856
0.0136552
-0.115195
0.11402
-0.0245802
-0.0123472
-0.112408
0.110453
-0.0457908
-0.0356565
-0.108297
0.106037
-0.0607187
-0.0539853
-0.103763
0.101489
-0.0675141
-0.0648318
-0.0992545
0.0970476
-0.0678432
-0.067942
-0.0948922
0.092758
-0.0653778
-0.0664318
-0.0906477
0.0885038
-0.0627266
-0.0636566
-0.086313
0.0840236
-0.0609247
-0.061381
-0.081632
0.079088
-0.0598152
-0.0599974
-0.0763963
0.073511
-0.0586678
-0.0589639
-0.0704884
0.0673518
-0.0564366
-0.0574394
-0.0642371
0.0612299
-0.0512668
-0.0540141
-0.0584963
0.0561238
-0.0411866
-0.046611
-0.0542118
0.0528044
-0.0258209
-0.0339011
-0.0520034
0.0517869
-0.00671679
-0.0165064
-0.0521611
0.0531086
0.0135378
0.00339999
-0.0545637
0.0564783
0.0322382
0.023067
-0.0587266
0.0612324
0.0472051
0.0399622
-0.0638875
0.0676761
0.0575701
0.0525369
-0.0712189
0.0745945
0.0653231
0.0621687
-0.0759794
0.0795437
0.0696794
0.0690497
0.0746097
-0.0747215
0.0814025
-0.073921
0.0693728
0.0840919
0.0804559
0.0746669
-0.0727328
0.0817936
0.0825724
0.0726958
-0.0721958
0.0845747
0.082807
0.0712353
-0.0697953
0.0878931
0.0858973
0.0684116
-0.0672026
0.0909246
0.0898511
0.0650383
-0.0617707
0.0925065
0.0919006
0.10243
-0.104977
-0.0587448
-0.0980331
0.0950391
-0.0587767
-0.0581523
0.109502
-0.112849
-0.056108
-0.0569024
0.116295
-0.119383
-0.0512807
-0.0538234
0.12218
-0.124603
-0.0409218
-0.0463515
0.126515
-0.127889
-0.0250978
-0.0332883
0.128644
-0.128765
-0.00569978
-0.0155467
0.128244
-0.127134
0.0146081
0.00448805
0.125456
-0.123301
0.0327713
0.0239022
0.120776
-0.117926
0.046624
0.0399636
0.114913
-0.111794
0.0551084
0.0510736
0.10871
-0.105672
0.0588397
0.0570173
0.102767
-0.0999567
0.0594318
0.0589406
0.0972711
-0.0946398
0.0585722
0.058652
0.0920615
-0.0894635
0.0573177
0.0575311
0.0868295
-0.0840832
0.0560787
0.0563001
0.081239
-0.0782364
0.0547081
0.0550726
0.0751164
-0.0718583
0.0523618
0.0533928
0.068536
-0.0651788
0.0475598
0.0500671
0.0619142
-0.0588369
0.0387689
0.043487
0.0561389
-0.0539645
0.025334
0.032435
0.0524755
-0.0517419
0.00820265
0.0170201
0.051778
-0.052517
-0.01045
-0.00108678
0.0539027
-0.0559377
-0.0282027
-0.0195178
0.0583963
-0.0609981
-0.0427565
-0.0358253
0.0640564
-0.0675321
-0.0520174
-0.0479567
-0.058472
0.0611341
-0.0710762
-0.0710504
-0.0549537
-0.053717
-0.0791217
-0.119991
0.0529792
-0.0635805
-0.0858598
0.0804881
-0.0771033
0.0662946
0.0830834
0.0667775
-0.0621472
0.0634251
0.0912287
-0.0584017
0.0912936
0.0532097
-0.0702675
0.0593598
-0.0679061
-0.0702059
-0.0990769
0.0634599
-0.0682333
0.0650783
-0.0689506
0.0647606
-0.0711893
-0.0597042
0.0628744
-0.0742464
-0.0564923
-0.0742623
-0.0744089
-0.115329
0.110899
0.0534667
0.0561845
-0.0611614
-0.115014
0.118287
-0.121178
0.0590756
0.0559368
-0.110591
0.114886
0.0430353
0.0508425
-0.11855
0.120639
0.0257011
0.0360994
-0.121264
0.121118
0.000659071
0.0130299
-0.120353
0.119012
-0.0232398
-0.0115823
-0.11717
0.114917
-0.0435379
-0.0338138
-0.112417
0.109773
-0.0580749
-0.0514852
-0.107093
0.104399
-0.0648205
-0.0621515
-0.101747
0.0991316
-0.065228
-0.0652898
-0.0965922
0.0941033
-0.0628889
-0.0638924
-0.0916732
0.0892408
-0.0602942
-0.0612265
-0.086794
0.0842663
-0.058397
-0.0589341
-0.081658
0.0789114
-0.0570687
-0.0573891
-0.076029
0.0729631
-0.0556019
-0.0560815
-0.0697618
0.0664381
-0.0531129
-0.0542381
-0.0631279
0.0599132
-0.0480521
-0.0507038
-0.0569728
0.0543993
-0.0386132
-0.0436706
-0.0523181
0.0507904
-0.0242932
-0.0318199
-0.0498864
0.0496143
-0.00644462
-0.0156024
-0.0499729
0.0509397
0.0125711
0.00304134
-0.052449
0.0544468
0.0302403
0.0215577
-0.0568059
0.0594579
0.044553
0.0376031
-0.0622669
0.0651965
0.0546405
0.0497279
-0.0696843
0.0729621
0.0620454
0.0576809
0.0649085
0.0726907
-0.0735549
0.0822667
-0.07012
0.069866
0.0843459
0.0830266
0.0720635
-0.0722931
0.0820231
0.0810811
0.0720908
-0.0714508
0.0839348
0.0826046
0.0703862
-0.0689144
0.0864214
0.0848326
0.0665858
-0.0653655
0.0897043
0.0875225
0.0899602
0.104789
-0.108577
-0.0549571
-0.10094
0.0963977
-0.0542348
-0.0543026
0.111992
-0.115224
-0.0528759
-0.053487
0.118685
-0.122031
-0.0479347
-0.0503626
0.125044
-0.12767
-0.0382955
-0.0433388
0.129764
-0.131285
-0.0235766
-0.0311943
0.132148
-0.132334
-0.00551414
-0.0146839
0.131828
-0.130686
0.0134657
0.00398227
0.128919
-0.126634
0.0304871
0.022135
0.123955
-0.12091
0.043579
0.0372845
0.117699
-0.11436
0.0517694
0.0478619
0.111042
-0.107767
0.055565
0.0536999
0.104628
-0.101588
0.0563915
0.0558012
0.098682
-0.0958411
0.0557313
0.0557464
0.0930745
-0.0903063
0.0545495
0.0547644
0.0875333
-0.0846879
0.0532334
0.0535271
0.0817812
-0.0787524
0.0516792
0.052166
0.0756364
-0.0724011
0.0491265
0.0502768
0.0691165
-0.0658091
0.0442524
0.0467824
0.0626098
-0.0596184
0.0357775
0.0402878
0.0570189
-0.0549355
0.0232505
0.0298355
0.0535019
-0.0527676
0.00746833
0.0155865
0.0527474
-0.0534112
-0.00978618
-0.001107
0.0547073
-0.0565595
-0.0263505
-0.0182217
0.0588154
-0.0614391
-0.0401328
-0.0335694
0.064182
-0.0670073
-0.0491921
-0.0452139
0.070707
-0.0745985
-0.0526008
-0.0512539
0.0721952
-0.0646932
-0.119623
-0.110127
-0.0571783
0.0607544
-0.0778384
-0.0777937
-0.053983
-0.0625046
-0.0801976
0.0696203
0.083329
0.093541
-0.055545
-0.0647703
-0.116822
0.0604141
0.0612743
-0.072182
-0.0663535
-0.113431
-0.069871
-0.0861948
0.0656772
-0.0701233
-0.0734329
-0.0903373
0.0677296
-0.0708847
0.0677864
-0.0719764
0.0661554
-0.0744703
0.0633724
-0.0768644
-0.0581077
0.0609534
-0.0806842
-0.0548375
-0.0810639
-0.0756392
-0.11915
0.116497
0.0617295
0.0582999
-0.11184
-0.063281
0.120612
-0.114433
0.0521211
0.0618754
-0.116265
0.116513
0.0532189
0.0561684
-0.118276
0.119328
0.0419835
0.0490792
-0.122292
0.124658
0.0233357
0.0331353
-0.125412
0.12538
0.000691577
0.0122749
-0.124601
0.123114
-0.0217528
-0.010803
-0.121055
0.118581
-0.0410641
-0.0317554
-0.115863
0.112974
-0.0551857
-0.0487671
-0.110003
0.106976
-0.0617932
-0.0591803
-0.103973
0.10101
-0.0622652
-0.0622869
-0.0981472
0.0953641
-0.0601058
-0.0610295
-0.0926756
0.0900169
-0.0576355
-0.0585379
-0.0873682
0.0846556
-0.0556844
-0.0562854
-0.0818756
0.0789734
-0.0541665
-0.0546091
-0.0759565
0.0727753
-0.0524206
-0.0530646
-0.0694688
0.0660396
-0.0496837
-0.0509317
-0.0626175
0.0592781
-0.0447127
-0.0472817
-0.0562062
0.0534946
-0.0359016
-0.0405986
-0.051288
0.0496643
-0.0226695
-0.0296132
-0.0486705
0.0483378
-0.00611198
-0.0146086
-0.0486649
0.0496244
0.0116116
0.00271427
-0.0511498
0.0531846
0.0282055
0.0200322
-0.0556047
0.0583428
0.0418149
0.0351831
-0.0612532
0.0642769
0.0516169
0.0468174
-0.0672909
0.0714884
0.0578478
0.0546669
-0.0756525
0.0789674
0.0629797
0.0607444
-0.0809467
0.0840036
0.0665634
0.0647983
0.0715683
-0.0710326
0.0838102
-0.0699824
0.0661947
0.0877913
0.084915
0.0717236
-0.0712476
0.0817907
0.0837175
0.0717108
-0.0717738
0.0820862
0.0815443
0.0714236
-0.0706555
0.0831667
0.0822544
0.0694942
-0.0679586
0.0848857
0.0836713
0.0660713
-0.0634094
0.0870424
0.0856352
0.0616637
-0.0594696
0.0890346
0.0882145
0.0587636
-0.0541884
0.0889658
0.0905876
0.0991134
-0.102107
-0.0512408
-0.0943649
0.0915763
-0.0513997
-0.0507965
0.105787
-0.109555
-0.051189
-0.0506231
0.113119
-0.116816
-0.049178
-0.0499234
0.120444
-0.123942
-0.0444369
-0.0467348
0.127102
-0.129869
-0.035528
-0.040179
0.132083
-0.133713
-0.0219472
-0.0289805
0.134662
-0.134913
-0.00526399
-0.0137342
0.134443
-0.133277
0.0122999
0.00351223
0.131487
-0.129138
0.0281374
0.0203457
0.126367
-0.123216
0.0404275
0.0345142
0.119878
-0.1164
0.0482917
0.044524
0.112932
-0.109497
0.0521294
0.0502316
0.10619
-0.102983
0.0531841
0.0524949
0.0999175
-0.0969298
0.0527437
0.0526809
0.0940358
-0.0911606
0.0516743
0.0518705
0.0883111
-0.0854198
0.0503421
0.0506776
0.0824948
-0.0794746
0.048659
0.0492409
0.0763897
-0.0732062
0.045943
0.047192
0.0699971
-0.0667909
0.0410462
0.0435733
0.0637184
-0.0608727
0.0329317
0.0372153
0.0584138
-0.0564405
0.0212771
0.0273767
0.0550632
-0.0543241
0.00672923
0.0142092
0.0542421
-0.0547987
-0.00922959
-0.00118892
0.055942
-0.057606
-0.0246864
-0.0170784
0.0597071
-0.0622368
-0.0376032
-0.0314683
0.0651938
-0.0684847
-0.0459013
-0.0422569
0.0716857
-0.0745623
-0.0497242
-0.0480529
0.0778305
-0.0806318
-0.0520361
-0.0507149
0.0809691
-0.0746026
-0.125989
-0.0955112
-0.0561168
0.0592163
-0.0841634
-0.084858
-0.0518907
-0.0687379
-0.0813306
0.0674578
-0.0739627
-0.0565858
-0.10884
0.0509923
-0.1055
-0.0629266
-0.0755934
-0.101118
-0.0739954
-0.0856322
0.070083
-0.0724767
0.0860019
-0.0814174
0.0619788
0.0879607
0.064236
-0.0530153
0.0543774
0.0876037
-0.0500603
0.0886213
-0.0753999
-0.0895399
0.0703953
-0.0734935
0.0690805
-0.0749015
0.0666475
-0.0777454
0.0641179
-0.0800288
0.0614349
-0.0829028
0.0537975
-0.103633
-0.0590041
-0.103754
0.110258
0.0472938
-0.0521879
-0.101656
0.0500901
-0.0568171
-0.086418
0.0590717
-0.0542215
-0.0874535
-0.100802
-0.055019
-0.0769192
-0.105285
0.103283
0.0541232
0.0559652
-0.109301
0.114287
0.0567434
0.0558574
-0.115868
0.117891
0.051196
0.0545874
-0.121119
0.123865
0.0392373
0.0458511
-0.126075
0.12773
0.0216807
0.0309255
-0.12863
0.128645
0.000676237
0.0113752
-0.127754
0.126122
-0.0201211
-0.00991166
-0.123978
0.121461
-0.0385465
-0.0296118
-0.118667
0.115622
-0.0521405
-0.0459735
-0.112419
0.109115
-0.0584897
-0.0559771
-0.10583
0.102601
-0.0590358
-0.0590018
-0.0994976
0.0964988
-0.057107
-0.057926
-0.0936177
0.0907851
-0.0548029
-0.0556568
-0.0879808
0.0851305
-0.0528341
-0.0534811
-0.0822312
0.0792299
-0.0511652
-0.0517099
-0.0761384
0.072905
-0.0491872
-0.0499731
-0.0695652
0.0661096
-0.0462282
-0.0475918
-0.0626567
0.0592706
-0.0413266
-0.0438288
-0.0561376
0.0533511
-0.033115
-0.0374657
-0.0510695
0.0493612
-0.0209613
-0.0273316
-0.0482974
0.0479053
-0.00571987
-0.0135449
-0.0481854
0.0491123
0.0106848
0.00243418
-0.0506192
0.0526496
0.0261751
0.0185253
-0.0550808
0.057846
0.0390497
0.0327518
-0.0607993
0.0638864
0.0485298
0.0438641
-0.0669753
0.0700541
0.0547691
0.051578
-0.0743891
0.0776711
0.0596977
0.0564094
0.061052
0.0698018
-0.0711876
0.085196
-0.0676809
0.065826
0.0896461
0.0870359
0.0702423
-0.0709875
0.0825359
0.0827722
0.0713154
-0.0712389
0.0820097
0.0818722
0.0707506
-0.0698601
0.0822763