/*--------------------------------*- C++ -*----------------------------------*\
  =========                 |
  \\      /  F ield         | OpenFOAM: The Open Source CFD Toolbox
   \\    /   O peration     | Website:  https://openfoam.org
    \\  /    A nd           | Version:  10
     \\/     M anipulation  |
\*---------------------------------------------------------------------------*/
FoamFile
{
    format      ascii;
    class       volVectorField;
    location    "19";
    object      U;
}
// * * * * * * * * * * * * * * * * * * * * * * * * * * * * * * * * * * * * * //

dimensions      [0 1 -1 0 0 0 0];

internalField   nonuniform List<vector> 
28942
(
(-0.390366 0.340413 -7.15357e-19)
(-0.378607 0.441951 -1.52396e-19)
(1.59256 -1.13569 -2.11489e-20)
(2.53044 0.0483715 -8.32954e-19)
(2.49252 0.0778775 2.76929e-19)
(1.14562 0.059926 0)
(1.33865 0.0845992 -5.52928e-21)
(1.4922 0.0541778 6.19055e-21)
(2.95957 -0.308298 -7.01478e-20)
(2.93462 -0.276675 1.94264e-19)
(-0.308708 -0.507462 -6.09624e-19)
(-0.44404 -0.33483 3.07368e-19)
(-0.310714 0.0698624 0)
(-0.17785 -0.0321958 0)
(2.53793 -0.110351 -3.03125e-22)
(2.57309 -0.109928 -6.58128e-23)
(2.37434 0.35635 1.45522e-19)
(2.33605 0.313536 2.40214e-19)
(1.01365 -1.59616 8.22702e-19)
(1.59389 -1.75801 -2.37551e-19)
(2.59234 0.623211 1.38277e-19)
(2.60559 0.616735 0)
(-0.461196 0.332173 4.63742e-19)
(-0.269677 0.138919 2.50891e-19)
(2.09541 -0.890902 5.05137e-19)
(2.89913 -1.0725 -4.56985e-19)
(0.806205 -1.15631 2.90431e-18)
(0.798662 -0.883113 -1.13882e-18)
(1.99693 -1.4639 1.62158e-19)
(1.46215 -1.0004 5.17075e-20)
(1.13686 -0.0441315 0)
(1.54571 -0.0767504 6.46344e-21)
(1.91587 -0.118288 2.44371e-20)
(2.26525 -0.0994101 4.64769e-21)
(1.55423 2.03635 -2.52144e-19)
(1.12218 2.18603 3.9128e-19)
(1.75632 1.97196 -4.08458e-19)
(1.33018 1.98136 -2.21277e-19)
(0.517892 0.0507046 6.45893e-21)
(0.620399 2.01634 -5.15854e-20)
(2.03768 -0.024597 0)
(2.35927 -0.0749625 0)
(3.68719 0.299173 -3.35493e-21)
(3.77394 0.216381 8.21968e-22)
(3.69053 0.219721 9.09454e-21)
(1.9101 0.0693939 -3.51284e-21)
(1.8788 0.0872585 5.94293e-21)
(2.27346 0.0817602 2.24303e-20)
(2.21737 0.0829478 -6.14908e-21)
(1.98202 0.0816633 1.82401e-20)
(1.84069 0.0966826 -1.03758e-20)
(2.78586 0.0341225 -1.00148e-19)
(2.78503 0.015869 -9.01446e-20)
(2.94746 -0.346315 -5.49773e-22)
(2.91874 -0.31444 3.82077e-20)
(3.34849 -0.711457 4.47504e-19)
(3.83851 -0.77831 2.05254e-19)
(0.0189205 0.189868 -3.50296e-19)
(-0.325788 0.0882178 0)
(-0.197 0.054453 1.14433e-19)
(0.047701 0.173489 3.09341e-19)
(0.133724 0.168491 -2.4887e-19)
(0.173942 0.196724 -2.84764e-19)
(3.11828 -1.32295 0)
(3.56626 -1.27929 1.7743e-20)
(3.17838 -1.07063 -1.11981e-22)
(3.07158 -0.973488 0)
(2.28442 -0.424674 -1.79344e-19)
(2.34126 -0.467356 -1.2042e-19)
(-0.236058 0.173642 2.35852e-18)
(-0.299129 0.166312 -7.36069e-19)
(-0.382316 0.280786 1.82388e-18)
(2.31289 -0.577409 0)
(2.28857 -0.527719 6.44845e-19)
(2.13289 -0.866634 1.82844e-19)
(3.9564 0.301731 6.57747e-19)
(3.97492 0.129815 -7.32948e-19)
(3.7525 0.0477034 -4.83298e-19)
(0.50441 -0.276158 -3.81054e-21)
(0.767187 -0.465682 -2.28779e-20)
(2.51997 -1.66315 3.3012e-20)
(2.25331 -1.52361 3.78327e-20)
(-0.696111 0.198708 3.75677e-18)
(-0.776078 0.170863 -1.45148e-18)
(3.57944 1.40268 -1.32716e-19)
(3.02081 1.10367 2.15273e-19)
(2.999 1.74812 -2.60869e-19)
(2.93112 1.8599 8.61622e-19)
(2.91842 1.95992 -5.73172e-19)
(2.52398 1.76964 5.70018e-20)
(2.52495 1.89023 1.60662e-19)
(2.56036 1.995 -1.99667e-19)
(-0.531691 -0.557564 -1.1508e-19)
(-0.556309 -0.644617 -2.53586e-20)
(-0.210897 -0.398349 5.09904e-20)
(-0.291643 -0.191455 -8.55698e-19)
(-0.511559 0.0321949 1.09862e-18)
(1.34848 1.4206 8.08031e-19)
(1.56505 1.636 -2.26515e-19)
(-0.598987 -0.176672 0)
(2.51611 -0.00130736 0)
(2.43012 0.0775816 -5.64148e-19)
(2.40116 0.177084 4.70009e-19)
(2.6083 0.149016 0)
(2.98248 -0.30813 0)
(2.9494 -0.326885 0)
(2.98784 -0.36506 4.25019e-19)
(2.77421 0.345966 -5.14658e-21)
(2.7658 0.38517 7.55011e-20)
(2.75282 0.332875 4.34885e-20)
(0.067261 0.225815 7.89023e-19)
(0.135966 0.250558 -8.86637e-19)
(0.493782 0.222163 -1.27865e-18)
(0.635025 0.0659095 1.25941e-18)
(-0.24561 0.446806 2.52177e-18)
(0.484419 0.911972 4.27931e-19)
(1.02791 0.725429 1.08067e-18)
(0.852236 1.45172 1.07284e-19)
(0.39271 1.38234 -2.40405e-18)
(3.56109 1.04634 -2.24182e-20)
(3.17563 1.10736 -2.32147e-19)
(3.15253 0.96859 3.86373e-19)
(2.32152 -1.77535 1.65611e-19)
(1.69749 -1.25616 -1.12167e-19)
(0.602059 0.270181 -1.42882e-18)
(0.642873 0.096253 0)
(0.97529 0.0458952 7.6609e-19)
(1.56695 -1.21619 1.62742e-19)
(1.93658 -1.61853 -4.41501e-19)
(2.19703 0.0759602 -1.99507e-20)
(2.26976 0.073431 8.6693e-21)
(2.06152 0.0691153 5.88956e-22)
(1.25446 -1.70243 0)
(1.36039 -1.18432 0)
(2.57124 -0.166042 -4.90517e-20)
(2.52823 -0.157165 2.68381e-19)
(2.53146 -0.0459913 0)
(1.99031 -1.6889 0)
(2.04381 -1.40464 -2.69079e-19)
(2.45414 2.02475 1.90837e-19)
(0.22747 0.450344 7.12549e-19)
(0.225814 0.419005 -5.62011e-19)
(1.80468 -1.62025 -1.88287e-19)
(3.50458 0.269061 9.24557e-20)
(3.56834 0.190218 -1.25979e-20)
(3.66681 -0.55388 -4.04944e-20)
(3.75598 -0.508473 5.45021e-20)
(3.73599 -0.452765 1.65873e-19)
(0.239278 0.380682 2.32325e-19)
(2.79987 2.00115 -1.69715e-19)
(2.83226 1.76498 3.06268e-20)
(3.45444 2.17738 2.34176e-21)
(1.69646 -0.0566895 -8.57556e-22)
(1.69007 -0.0569252 -1.41422e-20)
(1.90828 -0.0636499 -7.61794e-22)
(1.92272 -0.081665 3.01718e-21)
(2.39404 1.92978 1.29847e-19)
(1.50684 1.76667 0)
(-0.649544 1.22209 1.27994e-18)
(-0.717789 1.17636 -1.42791e-18)
(-0.608072 0.683449 1.20121e-18)
(3.05752 0.308256 -2.78109e-18)
(4.22946 0.631696 -1.35191e-18)
(2.15365 -0.0870605 1.48115e-21)
(3.22731 -1.60141 6.41476e-20)
(3.18257 -1.54901 1.1942e-19)
(2.57853 0.704657 3.26787e-19)
(2.44801 0.803834 4.69935e-20)
(2.41635 0.531006 2.28824e-19)
(2.47349 0.543857 -1.6436e-19)
(2.62617 0.691191 0)
(2.67622 -0.0316409 -6.78736e-21)
(2.67423 -0.0399769 -1.28995e-20)
(2.83597 -0.187147 -7.63904e-20)
(2.86397 -0.197198 1.33092e-19)
(2.78492 0.291328 -1.81892e-21)
(2.819 0.298129 1.23617e-20)
(2.79513 0.320045 0)
(2.7634 0.308046 3.77689e-21)
(2.80079 0.356705 0)
(2.83965 0.491346 -1.56353e-21)
(2.83452 0.557215 -8.93503e-21)
(2.8124 0.647595 -2.4044e-20)
(2.82922 0.61876 0)
(2.91043 0.606341 -1.05833e-20)
(2.86387 0.672316 1.83344e-20)
(2.78028 0.710692 -2.51241e-20)
(2.65615 0.873601 -1.10448e-19)
(2.64823 0.73738 -2.5417e-20)
(1.9605 -1.90775 6.31625e-19)
(2.34152 -2.01675 -2.78963e-19)
(-0.202811 0.560417 -1.84975e-18)
(2.00462 0.0731977 1.85408e-20)
(2.35775 0.0784641 0)
(-0.540726 0.365157 1.54339e-18)
(-0.433999 0.293503 7.54282e-19)
(2.25228 0.0914233 -3.02137e-21)
(2.43908 0.0949105 -8.0217e-22)
(2.44205 0.0923836 0)
(2.23036 0.0884306 -1.71409e-21)
(2.76369 -1.55809 1.78858e-19)
(2.61731 -1.6941 -9.62946e-19)
(2.72659 -1.4236 -4.68852e-19)
(0.231799 0.317996 3.70104e-19)
(0.243377 0.247654 -4.61636e-19)
(0.287684 0.305907 4.69236e-19)
(0.0512185 0.155091 0)
(0.0475284 0.0609094 4.63302e-19)
(0.078089 0.11193 -4.29264e-19)
(-0.357259 0.0752182 -3.88004e-19)
(-0.330477 -0.099021 -3.73385e-19)
(-0.17607 -0.0349455 0)
(0.158778 1.1109 0)
(0.0833849 0.74447 0)
(-0.000801898 0.468249 0)
(2.9209 -0.306543 -5.20929e-20)
(2.88241 -0.274112 0)
(2.88847 -0.299992 5.30817e-20)
(2.317 -0.108103 1.1767e-18)
(2.34957 -0.11426 -4.32299e-19)
(2.3389 -0.0664367 0)
(2.41467 1.95232 7.12038e-21)
(2.40883 1.96547 -1.4234e-20)
(2.41438 1.94287 4.39765e-21)
(2.4027 1.98038 0)
(2.3911 1.9911 1.061e-20)
(2.37707 1.98506 0)
(2.47454 1.99077 0)
(2.36747 1.95596 -5.23e-20)
(2.48134 1.96207 0)
(2.47373 1.99396 1.09958e-20)
(2.46593 1.9822 0)
(2.45812 1.96548 -4.62092e-21)
(2.45007 1.94941 6.93741e-21)
(2.4368 1.93603 -4.39442e-21)
(2.35861 1.89383 5.00863e-20)
(2.49389 1.89656 1.97528e-21)
(2.41273 1.94029 1.38551e-23)
(2.42161 1.93079 6.45926e-21)
(2.4056 1.94825 -3.47271e-20)
(2.34757 1.79013 -5.41049e-23)
(2.50318 1.78888 2.43802e-21)
(2.39951 1.93472 -1.26274e-20)
(2.34233 1.63696 -6.47366e-20)
(2.33914 1.43175 6.46898e-20)
(2.51421 1.63364 -4.43637e-21)
(2.52523 1.42697 -1.06021e-20)
(2.39295 1.96449 3.37458e-20)
(2.37652 1.94366 8.30111e-21)
(2.33797 1.17707 0)
(2.53734 1.17213 1.04519e-20)
(2.37772 1.98707 -4.22133e-24)
(2.34569 1.95987 4.25594e-24)
(2.33821 0.878438 0)
(2.54919 0.876179 0)
(2.35388 2.01061 0)
(2.30705 1.97587 0)
(2.34271 0.547704 0)
(2.5611 0.550731 -5.98339e-21)
(2.32551 2.0282 2.05759e-20)
(2.26443 1.98621 4.7674e-24)
(2.3483 0.195996 -3.17081e-22)
(2.56821 0.205189 6.38825e-21)
(2.2921 2.02858 -2.06711e-20)
(2.21401 1.98027 0)
(2.35595 -0.163268 0)
(2.57594 -0.148458 0)
(2.25436 2.00027 1.43285e-21)
(2.16073 1.94807 -2.51226e-20)
(2.36434 -0.51614 -3.90359e-20)
(2.58035 -0.499238 0)
(2.2156 1.93049 9.21355e-22)
(2.10488 1.8777 2.37888e-20)
(2.37265 -0.84952 5.78145e-20)
(2.58519 -0.835021 1.65702e-20)
(2.1729 1.80653 -2.79554e-20)
(2.04798 1.7578 0)
(2.38454 -1.15115 -1.8662e-20)
(2.58461 -1.14268 -1.09949e-20)
(2.13761 1.62438 1.56467e-20)
(1.99602 1.58223 -3.06368e-20)
(2.38941 -1.41129 6.9289e-20)
(2.57643 -1.41387 -7.77534e-20)
(2.09721 1.37635 -1.83678e-20)
(1.94494 1.34181 -5.51202e-22)
(2.39127 -1.62465 0)
(2.56264 -1.63763 -3.43323e-20)
(2.07017 1.06965 3.7363e-20)
(1.90667 1.04736 -7.19226e-20)
(2.39544 -1.79728 0)
(2.55142 -1.80412 0)
(2.26932 1.39753 1.81644e-20)
(2.25266 1.08191 8.15384e-20)
(2.04283 0.712297 0)
(1.86938 0.699403 3.67166e-20)
(2.31262 1.84597 9.98098e-21)
(2.29112 1.65384 -2.0197e-21)
(2.35597 2.03761 0)
(2.33473 1.96939 2.84077e-20)
(2.3925 2.05374 4.27117e-23)
(2.37612 2.06095 0)
(2.41236 1.99913 0)
(2.4056 2.02936 0)
(2.41471 1.94911 0)
(2.41567 1.97004 0)
(2.39704 1.93552 -8.83188e-21)
(2.40718 1.93781 -2.13544e-21)
(2.36434 1.94892 8.93043e-21)
(2.3829 1.9404 8.43406e-21)
(2.31698 1.96529 -1.94216e-20)
(2.34318 1.96044 -2.21174e-20)
(2.25861 1.92906 0)
(2.28841 1.9576 0)
(2.19953 1.75798 1.25333e-22)
(2.2268 1.86651 0)
(2.16114 1.39821 0)
(2.17783 1.60196 0)
(2.1388 0.858554 0)
(2.14787 1.14852 0)
(2.13626 0.195312 0)
(2.13483 0.537153 0)
(2.15442 -0.501484 0)
(2.14243 -0.155511 0)
(2.18836 -1.12784 0)
(2.16791 -0.830186 0)
(2.23299 -1.60839 2.49008e-20)
(2.20657 -1.38922 0)
(2.25383 -1.77879 7.01282e-21)
(2.40134 -1.91859 -6.97663e-21)
(2.53699 -1.91843 6.91457e-21)
(2.75292 -1.40825 0)
(2.70023 -1.78502 2.92776e-20)
(2.72952 -1.62215 1.77218e-20)
(2.78214 -0.837336 -5.61274e-21)
(2.7679 -1.14414 2.05868e-20)
(2.78076 -0.155641 -1.83319e-22)
(2.78198 -0.50518 0)
(2.76086 0.542102 0)
(2.77184 0.197835 0)
(2.72329 1.15774 0)
(2.7439 0.865553 0)
(2.67431 1.6156 0)
(2.6995 1.4102 -1.8824e-26)
(2.6208 1.87742 -1.15627e-22)
(2.64766 1.77048 0)
(2.57329 1.97089 0)
(2.59515 1.94076 0)
(2.53069 1.96634 0)
(2.55507 1.97548 0)
(2.48762 1.93151 0)
(2.51031 1.94944 4.8318e-21)
(2.433 1.90869 -1.16782e-21)
(2.46332 1.91524 5.34119e-21)
(2.36706 1.90935 0)
(2.4023 1.90569 4.25563e-21)
(2.27366 1.9295 0)
(2.32236 1.9201 0)
(2.15452 1.92351 0)
(2.21761 1.93444 0)
(2.01747 1.81736 0)
(2.08796 1.88841 0)
(1.88291 1.53301 7.67429e-21)
(1.94825 1.70181 0)
(1.77317 1.02631 3.53511e-20)
(1.82315 1.30775 7.6246e-21)
(1.73199 0.694356 -3.75381e-20)
(2.2398 0.720907 -8.28404e-20)
(2.27529 -1.90403 -1.31481e-20)
(2.66794 -1.89722 2.29897e-20)
(1.84024 0.312863 0)
(1.70242 0.326834 0)
(2.22647 0.331546 0)
(2.01805 0.318374 0)
(2.45262 1.41112 0)
(2.45596 0.737663 -2.06448e-20)
(2.45351 1.09855 -1.90187e-20)
(2.45528 1.8554 -2.06214e-20)
(2.45338 1.66649 4.2923e-21)
(2.45969 2.04748 -5.21709e-23)
(2.45674 1.98097 0)
(2.46137 2.05827 0)
(2.46134 2.0685 0)
(2.4511 1.99605 0)
(2.45775 2.0306 0)
(2.42638 1.93882 0)
(2.44159 1.96359 0)
(2.38553 1.91496 0)
(2.40802 1.92217 0)
(2.32789 1.9188 3.77801e-23)
(2.35851 1.91446 -9.2411e-21)
(2.25417 1.92809 4.0247e-23)
(2.29331 1.92522 2.03975e-20)
(2.1676 1.89233 0)
(2.21266 1.92063 0)
(2.08009 1.72869 -6.17154e-23)
(2.12297 1.8312 0)
(2.01019 1.382 0)
(2.04178 1.57937 0)
(1.96694 0.852564 0)
(1.985 1.13778 0)
(1.95485 0.200193 0)
(1.95668 0.536408 0)
(1.97444 -0.483522 0)
(1.9602 -0.144003 0)
(2.02156 -1.1001 0)
(1.99362 -0.806091 0)
(2.08809 -1.57498 -1.70807e-20)
(2.05123 -1.35783 0)
(2.40291 -1.99315 0)
(2.29389 -1.98529 -1.07801e-20)
(2.15981 -1.87221 0)
(2.12324 -1.74492 -1.54017e-20)
(2.84512 -1.74313 -3.18289e-20)
(2.79967 -1.85306 -6.62621e-21)
(2.63165 -1.96567 -5.2718e-20)
(2.51722 -1.99038 0)
(2.92515 -1.37064 0)
(2.889 -1.58048 4.8962e-20)
(2.97177 -0.820564 -1.65628e-22)
(2.9492 -1.1162 -2.07129e-20)
(2.98053 -0.157912 1.83318e-22)
(2.97888 -0.498155 0)
(2.95651 0.52638 0)
(2.97178 0.187657 0)
(2.90428 1.13299 0)
(2.93328 0.844995 0)
(2.83159 1.58522 0)
(2.86981 1.38192 1.88236e-26)
(2.74817 1.84537 2.26744e-22)
(2.79066 1.73924 0)
(2.66902 1.93839 0)
(2.70701 1.90871 0)
(2.59616 1.93493 -2.40285e-21)
(2.63323 1.94384 0)
(2.52726 1.89896 0)
(2.5627 1.91837 2.39182e-21)
(2.44946 1.87183 -4.18427e-21)
(2.49081 1.88232 -4.31824e-21)
(2.36099 1.86433 0)
(2.40957 1.86366 0)
(2.24989 1.87217 0)
(2.30822 1.86844 0)
(2.1113 1.85414 0)
(2.18344 1.87091 0)
(1.95291 1.74113 0)
(2.03399 1.81471 0)
(1.79626 1.46207 -9.83811e-23)
(1.87281 1.62611 0)
(1.67126 0.983114 1.12743e-22)
(1.72788 1.24773 0)
(1.59332 0.322161 3.31497e-20)
(1.62444 0.668786 -3.31279e-20)
(2.45579 0.344241 -4.4472e-20)
(1.68844 -0.062124 0)
(1.58209 -0.0451276 6.75114e-20)
(1.82417 -0.0851444 0)
(2.19214 -1.95857 0)
(2.74788 -1.92118 5.83061e-21)
(2.21379 -0.0694166 -1.10101e-19)
(2.44705 -0.0656035 -4.44764e-20)
(1.69546 -0.45248 -2.1671e-20)
(1.59314 -0.41077 -8.61201e-20)
(2.00107 -0.0937963 0)
(2.05513 -1.83194 -5.20366e-20)
(2.10155 -1.92058 2.47347e-20)
(2.59169 -1.999 1.10172e-20)
(2.69118 -1.9566 -5.19913e-20)
(2.67887 -0.0228272 -1.57442e-19)
(2.43531 -0.488642 8.81808e-20)
(2.667 -0.78925 3.62418e-19)
(2.6699 -0.414822 8.92182e-20)
(2.66889 0.749389 -4.13914e-20)
(2.68011 0.369652 1.34422e-19)
(2.63239 1.40636 4.02416e-20)
(2.65199 1.09904 3.36337e-20)
(2.59886 1.8492 8.18568e-21)
(2.61646 1.65906 8.84156e-21)
(2.56673 2.04152 5.21708e-23)
(2.58245 1.97496 0)
(2.53396 2.04867 0)
(2.55112 2.06111 0)
(2.49454 1.98039 0)
(2.51508 2.01786 0)
(2.44408 1.91519 0)
(2.47056 1.94471 0)
(2.37985 1.88348 0)
(2.41426 1.89476 0)
(2.29969 1.87957 0)
(2.34185 1.87917 0)
(2.20027 1.88043 -2.58664e-24)
(2.252 1.8821 0)
(2.08618 1.83852 0)
(2.14455 1.8688 0)
(1.97112 1.67898 -5.40113e-23)
(2.02739 1.77863 0)
(1.87632 1.34211 0)
(1.91999 1.53355 0)
(1.8137 0.831021 0)
(1.84044 1.10631 0)
(1.792 0.199259 0)
(1.79724 0.52509 0)
(1.81285 -0.464602 0)
(1.79656 -0.134637 0)
(1.87214 -1.06616 0)
(1.83746 -0.778802 0)
(1.95768 -1.5328 -8.00286e-21)
(1.91181 -1.31914 4.16833e-21)
(2.00593 -1.70298 2.75085e-20)
(2.39811 -2.03504 5.47463e-21)
(2.22227 -2.01088 -2.14737e-20)
(2.30727 -2.02997 1.83358e-20)
(2.49338 -2.02835 0)
(2.98205 -1.6908 2.04248e-20)
(2.85396 -1.86448 5.04136e-20)
(2.9229 -1.79576 -4.52704e-20)
(3.08619 -1.33676 0)
(3.03982 -1.53625 0)
(3.1497 -0.805157 9.8491e-24)
(3.1219 -1.09137 0)
(3.1685 -0.15916 0)
(3.16465 -0.490606 0)
(3.14163 0.506812 1.63285e-22)
(3.16052 0.177164 0)
(3.07532 1.09826 0)
(3.11293 0.817352 0)
(2.98041 1.54087 0)
(3.03075 1.34148 0)
(2.87101 1.79936 -1.11244e-22)
(2.92685 1.69347 0)
(2.76184 1.89394 -8.55511e-23)
(2.81549 1.86352 0)
(2.66108 1.89134 0)
(2.71057 1.9001 0)
(2.56717 1.85473 0)
(2.615 1.87425 0)
(2.46979 1.8229 0)
(2.51997 1.83738 0)
(2.3616 1.80862 0)
(2.41969 1.81241 0)
(2.23455 1.80439 5.75659e-23)
(2.30235 1.80645 0)
(2.08101 1.77331 0)
(2.16094 1.796 0)
(1.90734 1.65351 0)
(1.99563 1.72916 0)
(1.73573 1.38154 1.29681e-23)
(1.81963 1.53995 0)
(1.59707 0.924183 -1.56931e-23)
(1.6605 1.17631 0)
(1.51709 0.308821 -1.06812e-22)
(1.54795 0.631692 0)
(1.52089 -0.375271 5.87664e-20)
(1.50702 -0.0334045 -1.38727e-20)
(1.62453 -0.754224 -1.55343e-20)
(1.55158 -0.69939 -2.98918e-20)
(2.21128 -0.472582 4.44073e-20)
(1.82797 -0.480911 3.83059e-20)
(2.14417 -1.97808 -5.27533e-21)
(2.78531 -1.89779 -3.87366e-20)
(2.41945 -0.917797 -5.42671e-21)
(1.72014 -0.815142 0)
(2.63969 -1.20521 -5.45887e-19)
(1.60112 -0.999891 -4.12628e-20)
(1.67042 -1.06918 -6.15769e-20)
(2.83234 -1.4351 8.08632e-19)
(2.87834 -1.60391 -1.32314e-19)
(2.00107 -0.496438 0)
(2.86153 -0.792386 -9.46936e-20)
(2.86696 -1.13084 -4.65329e-20)
(2.89129 -0.0250355 -8.96663e-20)
(2.87556 -0.421244 1.31755e-19)
(2.87263 0.744776 4.28831e-20)
(2.89245 0.368928 2.16598e-20)
(2.81157 1.39435 -1.91911e-20)
(2.84289 1.09133 -2.18191e-20)
(2.7442 1.82938 0)
(2.77948 1.6422 2.94553e-22)
(2.67512 2.01697 0)
(2.70917 1.95201 0)
(2.60815 2.02212 -4.00723e-23)
(2.64171 2.03564 0)
(2.53922 1.95119 0)
(2.57443 1.99019 0)
(2.46469 1.88063 0)
(2.503 1.91276 0)
(2.37843 1.84229 0)
(2.42319 1.85719 0)
(2.27692 1.8297 -3.17787e-23)
(2.33002 1.83368 0)
(2.15715 1.81983 -3.06418e-24)
(2.21965 1.82621 0)
(2.02011 1.77415 0)
(2.09026 1.8055 0)
(1.88103 1.61988 1.03114e-22)
(1.94955 1.71538 0)
(1.76265 1.2973 0)
(1.81768 1.48099 0)
(1.68331 0.805563 0)
(1.71744 1.07057 0)
(1.65299 0.196724 0)
(1.6614 0.510707 0)
(1.67462 -0.443731 0)
(1.65696 -0.12525 0)
(1.74384 -1.02616 0)
(1.70358 -0.747348 0)
(1.84528 -1.47955 3.8578e-21)
(1.79172 -1.27169 0)
(1.96373 -1.78025 0)
(1.90369 -1.64975 6.44048e-21)
(2.07729 -1.93322 3.48858e-22)
(2.02232 -1.87288 0)
(2.24693 -2.0353 2.17806e-20)
(2.12618 -1.96922 -1.11973e-21)
(2.18346 -2.00917 -9.68157e-21)
(2.39116 -2.05028 -7.70638e-21)
(2.31664 -2.0495 5.33721e-21)
(2.55367 -2.00601 2.71686e-21)
(2.47072 -2.03695 -2.56478e-21)
(2.71816 -1.90445 0)
(2.63685 -1.96383 2.51433e-20)
(2.95341 -1.791 1.10559e-20)
(2.79696 -1.83223 1.92081e-20)
(2.87743 -1.82163 -4.07806e-20)
(3.10577 -1.62381 7.02952e-21)
(3.03456 -1.72431 0)
(3.23154 -1.28605 0)
(3.17505 -1.47649 0)
(3.3126 -0.779998 1.20082e-23)
(3.27856 -1.0518 0)
(3.33977 -0.159943 0)
(3.3337 -0.478475 0)
(3.31075 0.482843 -1.63285e-22)
(3.33202 0.164903 0)
(3.2326 1.05489 0)
(3.27743 0.783133 0)
(3.11758 1.48394 0)
(3.17881 1.2904 0)
(2.98448 1.73839 0)
(3.05227 1.6332 0)
(2.84985 1.83612 6.17863e-24)
(2.91658 1.80371 0)
(2.72438 1.83681 0)
(2.78571 1.84422 0)
(2.60788 1.80155 0)
(2.66607 1.82062 0)
(2.49292 1.76666 0)
(2.55141 1.78315 0)
(2.36912 1.74561 0)
(2.43393 1.75417 0)
(2.22758 1.72979 -5.7566e-23)
(2.30291 1.73802 0)
(2.0625 1.68642 0)
(2.14874 1.71455 0)
(1.8799 1.56127 0)
(1.97253 1.63805 0)
(1.70005 1.29718 8.53525e-23)
(1.78803 1.44978 0)
(1.55211 0.8614 -9.75383e-23)
(1.6203 1.10098 0)
(1.46809 0.283434 1.05601e-22)
(1.4999 0.585156 0)
(1.47315 -0.344333 -1.27503e-20)
(1.45969 -0.0308525 2.63194e-20)
(1.55903 -0.927862 1.14337e-20)
(1.50524 -0.646091 -2.65659e-20)
(1.66481 -1.26546 3.43681e-21)
(1.62372 -1.1778 -2.19644e-20)
(2.21451 -0.853761 4.0702e-20)
(1.85378 -0.845629 0)
(2.42578 -1.2703 3.83677e-19)
(1.76123 -1.13948 0)
(2.02068 -1.87796 4.16893e-21)
(2.08242 -1.92011 -3.05138e-21)
(2.65031 -1.89484 1.57539e-20)
(2.71726 -1.82528 1.63312e-20)
(2.51983 -1.49318 3.5298e-19)
(1.72876 -1.33759 6.21623e-20)
(2.84987 -1.83875 0)
(2.96387 -1.40741 7.83048e-20)
(1.73395 -1.48992 2.70617e-20)
(1.69892 -1.39159 -2.8823e-20)
(2.97351 -1.62521 -1.68979e-19)
(2.01463 -0.884523 0)
(3.02871 -0.778481 0)
(2.99608 -1.11426 8.15468e-20)
(3.09246 -0.0243 0)
(3.06725 -0.411281 0)
(3.05949 0.726563 0)
(3.08927 0.359204 -2.24417e-20)
(2.97859 1.35441 0)
(3.0209 1.06125 0)
(2.88113 1.7832 0)
(2.93151 1.59807 0)
(2.77913 1.97366 0)
(2.8298 1.90701 0)
(2.68116 1.98044 4.00723e-23)
(2.72965 1.99342 0)
(2.58493 1.90868 0)
(2.63293 1.9485 0)
(2.48707 1.83512 0)
(2.53666 1.86915 0)
(2.38155 1.79036 0)
(2.43574 1.80888 0)
(2.26219 1.76953 2.85087e-24)
(2.32381 1.77824 0)
(2.1242 1.75144 -3.42136e-24)
(2.19582 1.76172 0)
(1.96793 1.69883 0)
(2.04788 1.733 0)
(1.80843 1.54819 -5.32142e-24)
(1.88715 1.64023 0)
(1.67099 1.24122 0)
(1.73535 1.41595 0)
(1.57742 0.773557 0)
(1.61789 1.02561 0)
(1.53965 0.192652 0)
(1.55085 0.4925 0)
(1.56176 -0.420123 0)
(1.54318 -0.115248 0)
(1.63833 -0.979612 0)
(1.59384 -0.711434 0)
(1.75402 -1.42017 0)
(1.69236 -1.21734 0)
(1.88724 -1.71531 -5.4098e-21)
(1.82016 -1.58675 -6.53936e-21)
(1.95519 -1.81202 9.95382e-21)
(2.26611 -2.04169 9.8353e-21)
(2.17166 -1.98721 0)
(2.21726 -2.02115 9.79769e-21)
(2.38152 -2.04729 0)
(2.32139 -2.0512 -1.00368e-20)
(2.51293 -1.9976 -1.41887e-20)
(2.44581 -2.02992 4.929e-21)
(2.58143 -1.95352 2.77803e-20)
(3.04377 -1.70707 -4.60601e-21)
(2.86607 -1.75213 -1.26681e-20)
(2.95855 -1.73713 0)
(3.21579 -1.55003 1.17086e-20)
(3.13354 -1.64458 -1.175e-20)
(3.35892 -1.23271 0)
(3.29269 -1.41325 0)
(3.45532 -0.749192 1.35859e-23)
(3.41409 -1.0087 0)
(3.49057 -0.158798 0)
(3.48127 -0.462347 0)
(3.46002 0.454915 0)
(3.48317 0.150902 0)
(3.37192 1.00349 0)
(3.42249 0.742551 0)
(3.24034 1.41674 0)
(3.3105 1.22996 0)
(3.08638 1.66475 -8.88827e-23)
(3.16478 1.56129 0)
(2.93051 1.76569 7.93727e-23)
(3.00784 1.7308 0)
(2.78445 1.7724 0)
(2.85593 1.77693 0)
(2.64921 1.74071 0)
(2.71603 1.75847 0)
(2.51842 1.70474 0)
(2.58439 1.72213 0)
(2.38136 1.67713 0)
(2.45196 1.68997 0)
(2.22832 1.6506 0)
(2.30849 1.66468 0)
(2.05586 1.59683 0)
(2.14558 1.62962 0)
(1.86968 1.46779 5.30003e-23)
(1.96425 1.54518 0)
(1.68655 1.21146 -6.04618e-23)
(1.77646 1.35842 0)
(1.53445 0.799016 6.79751e-23)
(1.60468 1.02467 0)
(1.44914 0.260114 0)
(1.4813 0.540913 0)
(1.45194 -0.322286 0)
(1.44015 -0.0318086 0)
(1.53989 -0.867933 -7.17901e-23)
(1.48468 -0.603169 -1.13884e-20)
(1.67661 -1.31338 4.54942e-20)
(1.60449 -1.107 0)
(1.7817 -1.56149 3.02922e-20)
(1.75991 -1.48272 -2.24408e-21)
(2.22929 -1.18973 -1.23909e-19)
(1.89124 -1.16768 0)
(2.13676 -1.9444 1.61464e-20)
(2.77632 -1.74802 2.72886e-20)
(2.38811 -1.60311 5.98184e-20)
(2.7286 -1.84109 8.1814e-21)
(2.54761 -1.77438 -1.56997e-19)
(1.81487 -1.42279 0)
(1.79586 -1.5516 -1.32773e-20)
(2.88197 -1.83123 1.3025e-19)
(2.74551 -1.98423 -1.06241e-19)
(2.69329 -1.97901 1.27413e-19)
(1.80905 -1.66678 3.42043e-20)
(1.87237 -1.6866 -1.95947e-20)
(1.85118 -1.60825 -1.66818e-20)
(2.03656 -1.23919 0)
(3.12338 -1.33126 -4.31897e-21)
(2.97831 -1.72822 -1.38483e-20)
(3.09241 -1.55078 -3.05573e-20)
(3.19889 -0.748752 -3.87112e-20)
(3.16022 -1.06365 3.89692e-20)
(3.26485 -0.0151085 -7.6577e-23)
(3.24228 -0.39291 0)
(3.22432 0.707418 0)
(3.25612 0.357708 0)
(3.12862 1.30744 0)
(3.18068 1.02546 0)
(3.00703 1.72763 0)
(3.07008 1.54463 0)
(2.87709 1.91769 -4.27927e-23)
(2.9421 1.85103 0)
(2.75094 1.92529 0)
(2.81339 1.93775 0)
(2.63 1.85461 0)
(2.68996 1.89389 0)
(2.51141 1.77986 0)
(2.57071 1.81499 0)
(2.3883 1.7308 0)
(2.45102 1.75162 0)
(2.25349 1.70277 2.89278e-23)
(2.3228 1.71528 0)
(2.10144 1.67435 -3.65004e-24)
(2.17996 1.6902 0)
(1.93067 1.61478 0)
(2.01806 1.65127 0)
(1.75539 1.46846 -8.20388e-23)
(1.84211 1.5567 0)
(1.60254 1.17853 0)
(1.67446 1.34338 0)
(1.49685 0.737328 0)
(1.54276 0.975054 0)
(1.45272 0.187682 0)
(1.46641 0.471701 0)
(1.47468 -0.394065 0)
(1.45561 -0.10443 0)
(1.55644 -0.927929 0)
(1.5088 -0.671546 0)
(1.68187 -1.35258 -8.78987e-23)
(1.61506 -1.15653 0)
(1.82919 -1.64322 5.43401e-21)
(1.75453 -1.51476 0)
(1.97651 -1.81153 -5.0507e-21)
(1.90397 -1.74111 0)
(2.11134 -1.88928 -3.62003e-21)
(2.04603 -1.8586 4.24435e-21)
(2.21136 -1.99351 -8.26617e-21)
(2.16974 -1.9082 0)
(2.18707 -1.95667 -1.1883e-20)
(2.27958 -2.03727 0)
(2.24352 -2.02145 0)
(2.3696 -2.03397 0)
(2.32253 -2.04188 0)
(2.47418 -1.97766 0)
(2.42059 -2.01268 0)
(2.58603 -1.87351 -1.6065e-20)
(2.52915 -1.9317 -4.04013e-21)
(2.6927 -1.73004 -2.92382e-21)
(2.64149 -1.80562 -2.78044e-20)
(2.92627 -1.6633 -1.77195e-20)
(2.74241 -1.64694 -2.17234e-21)
(2.83201 -1.66162 5.67025e-21)
(3.12005 -1.61296 -3.64777e-21)
(3.02308 -1.64807 2.3144e-20)
(3.3067 -1.46449 1.06034e-23)
(3.21516 -1.55444 0)
(3.46547 -1.16805 0)
(3.39056 -1.33757 0)
(3.57422 -0.713682 1.45353e-23)
(3.52724 -0.958286 0)
(3.61656 -0.156571 0)
(3.60438 -0.443254 0)
(3.58604 0.424362 0)
(3.61034 0.136298 0)
(3.49033 0.945464 0)
(3.54542 0.697278 0)
(3.3461 1.34078 0)
(3.42307 1.16163 0)
(3.17577 1.58144 1.68323e-22)
(3.26278 1.4803 0)
(3.00257 1.68471 0)
(3.08853 1.64763 0)
(2.83984 1.69835 0)
(2.9196 1.69935 0)
(2.68927 1.6718 0)
(2.76341 1.68755 0)
(2.54478 1.63619 0)
(2.61718 1.65393 0)
(2.39669 1.60334 3.75071e-23)
(2.47215 1.61944 0)
(2.23641 1.56822 0)
(2.31901 1.58695 0)
(2.06098 1.50629 0)
(2.15141 1.54282 0)
(1.87456 1.37409 -5.30003e-23)
(1.96929 1.45205 0)
(1.69158 1.12522 1.13564e-23)
(1.78164 1.26665 0)
(1.54055 0.737708 -1.22754e-22)
(1.61011 0.948385 0)
(1.45705 0.239677 0)
(1.4887 0.498828 0)
(1.45778 -0.30187 0)
(1.4473 -0.0303623 0)
(1.53768 -0.813712 1.34305e-23)
(1.48886 -0.566855 0)
(1.67095 -1.22613 0)
(1.59923 -1.03381 0)
(1.84773 -1.50478 2.07143e-20)
(1.75374 -1.38597 0)
(1.94453 -1.68674 -1.62299e-21)
(1.94678 -1.58087 -3.09427e-20)
(2.25174 -1.47334 0)
(2.87757 -1.85411 -1.64698e-19)
(2.40092 -1.8429 -3.96921e-20)
(2.09202 -1.82417 3.61434e-21)
(2.15849 -1.84804 0)
(2.60959 -1.70597 -2.29555e-21)
(2.65272 -1.62618 5.24223e-21)
(1.94246 -1.43922 0)
(1.86882 -1.65481 0)
(2.53454 -1.90747 0)
(1.87105 -1.72056 1.30741e-20)
(1.88904 -1.7915 1.93923e-20)
(1.96349 -1.76381 0)
(2.04166 -1.7274 -3.72669e-20)
(2.04809 -1.6235 2.52666e-20)
(2.06708 -1.54442 0)
(3.09909 -1.6625 1.32166e-23)
(2.82677 -1.92447 -3.91782e-20)
(2.902 -1.83204 1.27254e-19)
(2.99502 -1.76954 -4.57145e-20)
(3.26386 -1.27708 1.91923e-20)
(3.20386 -1.49354 3.04069e-20)
(3.35032 -0.716103 0)
(3.31054 -1.0199 0)
(3.40802 -0.0216632 7.65713e-23)
(3.38942 -0.376965 0)
(3.36729 0.657963 0)
(3.3991 0.327301 0)
(3.25846 1.24014 0)
(3.31881 0.964545 0)
(3.11706 1.65577 0)
(3.19024 1.47409 0)
(2.96487 1.8467 4.27927e-23)
(3.04131 1.77915 0)
(2.81506 1.85731 0)
(2.88919 1.86815 0)
(2.67246 1.78987 0)
(2.74287 1.82766 0)
(2.53594 1.71575 0)
(2.60381 1.75103 0)
(2.39838 1.66327 0)
(2.46789 1.68644 0)
(2.2514 1.62834 -2.25652e-23)
(2.32648 1.64476 0)
(2.08881 1.59091 -3.75988e-24)
(2.17247 1.61121 0)
(1.90815 1.52469 0)
(2.00049 1.56383 0)
(1.72172 1.3817 5.53405e-24)
(1.81419 1.46652 0)
(1.55711 1.10956 0)
(1.63486 1.26383 0)
(1.44161 0.696936 0)
(1.49193 0.919271 0)
(1.39205 0.181459 0)
(1.40802 0.448114 0)
(1.41295 -0.366609 0)
(1.39387 -0.0934394 0)
(1.49772 -0.872644 0)
(1.44813 -0.629108 0)
(1.62978 -1.27967 1.63619e-22)
(1.55922 -1.09101 0)
(1.78712 -1.56356 6.58669e-23)
(1.70659 -1.43715 0)
(1.94536 -1.73498 -8.52836e-21)
(1.86767 -1.66181 8.1559e-21)
(2.02059 -1.78815 -6.71633e-21)
(2.2444 -1.99338 -2.0307e-21)
(2.22262 -1.91799 -4.34884e-22)
(2.23179 -1.96119 6.05196e-21)
(2.28876 -2.02653 0)
(2.26412 -2.01551 0)
(2.35437 -2.0152 6.8141e-26)
(2.31942 -2.02695 0)
(2.43456 -1.95323 0)
(2.39322 -1.99045 0)
(2.52281 -1.84767 -7.15785e-21)
(2.47757 -1.90601 7.89322e-21)
(2.56669 -1.78025 1.28111e-21)
(2.97884 -1.56729 4.35667e-22)
(2.78513 -1.56025 5.07328e-21)
(2.88091 -1.56907 -7.99293e-22)
(3.17957 -1.51673 3.66736e-21)
(3.0786 -1.55118 -3.67236e-21)
(3.37699 -1.37632 8.26925e-23)
(3.2804 -1.4605 0)
(3.54817 -1.09824 8.76737e-23)
(3.46808 -1.25636 0)
(3.6671 -0.673595 1.48607e-23)
(3.61586 -0.901845 0)
(3.71556 -0.152842 0)
(3.70107 -0.420782 0)
(3.6863 0.392062 0)
(3.7107 0.121523 0)
(3.58591 0.882912 0)
(3.64408 0.648973 0)
(3.43295 1.258 0)
(3.51467 1.08756 0)
(3.25124 1.49078 -7.944e-23)
(3.34427 1.39221 0)
(3.06489 1.59572 -5.63634e-23)
(3.15755 1.55685 0)
(2.88892 1.61586 0)
(2.97528 1.61343 0)
(2.72594 1.59486 0)
(2.80611 1.6083 0)
(2.57066 1.56081 0)
(2.64803 1.57832 0)
(2.4149 1.52497 -3.75071e-23)
(2.49358 1.543 0)
(2.2513 1.48393 3.08166e-23)
(2.33468 1.50593 0)
(2.07593 1.41563 0)
(2.16558 1.45523 0)
(1.89136 1.28076 0)
(1.98486 1.35918 0)
(1.71192 1.03991 1.03941e-23)
(1.80003 1.1754 0)
(1.56628 0.67807 9.76488e-23)
(1.63313 0.873564 0)
(1.48586 0.219513 0)
(1.5168 0.457959 0)
(1.48421 -0.281513 0)
(1.47531 -0.0296947 0)
(1.55703 -0.761001 1.21029e-23)
(1.51264 -0.528128 0)
(1.68228 -1.15843 0)
(1.61402 -0.973154 0)
(1.85154 -1.42014 -1.15509e-20)
(1.76178 -1.3095 0)
(2.0506 -1.53465 -1.04805e-20)
(1.94832 -1.49259 2.17252e-20)
(2.61984 -2.14105 1.68972e-19)
(2.74028 -2.07595 1.64567e-19)
(2.14646 -1.64898 1.104e-20)
(2.14978 -1.56157 -1.10391e-20)
(2.2663 -1.70177 0)
(2.21985 -1.86461 -5.70634e-21)
(2.69151 -1.54139 1.69727e-20)
(2.80108 -1.86602 -2.88624e-20)
(1.99354 -1.65914 0)
(2.72088 -1.95761 -8.49176e-21)
(2.38307 -2.02611 0)
(1.93071 -1.83169 0)
(2.56122 -1.99582 0)
(1.94794 -1.84257 0)
(1.9735 -1.86715 0)
(2.05199 -1.80357 3.63827e-21)
(2.13407 -1.74363 1.01019e-20)
(2.23728 -1.67052 0)
(2.24524 -1.5869 2.02992e-20)
(2.09789 -1.78114 0)
(2.97738 -1.76568 -5.69255e-20)
(2.73652 -1.87295 -8.60861e-20)
(2.79003 -1.77335 -4.61099e-20)
(2.87899 -1.78455 5.58874e-20)
(3.18925 -1.5949 -5.19057e-21)
(3.08006 -1.7041 2.28734e-20)
(3.36482 -1.21976 -1.46505e-20)
(3.28744 -1.4311 1.1608e-23)
(3.47021 -0.676461 -5.6705e-23)
(3.42499 -0.96673 0)
(3.52393 -0.0241794 -5.991e-23)
(3.5062 -0.358743 0)
(3.4838 0.628007 0)
(3.51667 0.309474 0)
(3.36434 1.18458 0)
(3.43073 0.921848 0)
(3.21046 1.5826 0)
(3.29003 1.40797 0)
(3.04213 1.768 0)
(3.12737 1.70208 0)
(2.87257 1.77965 0)
(2.95672 1.7894 0)
(2.71179 1.71606 0)
(2.79083 1.75181 0)
(2.56071 1.64468 0)
(2.63535 1.67902 0)
(2.41182 1.59037 0)
(2.48673 1.61495 0)
(2.2553 1.55013 3.31008e-24)
(2.33498 1.56955 0)
(2.08527 1.50454 -2.44753e-23)
(2.17232 1.52932 0)
(1.89884 1.43079 0)
(1.994 1.473 0)
(1.70607 1.29058 6.00627e-23)
(1.80187 1.37223 0)
(1.53386 1.03619 0)
(1.61549 1.17977 0)
(1.4111 0.653 0)
(1.46482 0.85955 0)
(1.3567 0.17366 0)
(1.37481 0.42185 0)
(1.37564 -0.338894 0)
(1.3571 -0.0830137 0)
(1.46133 -0.815564 0)
(1.41095 -0.585601 0)
(1.59695 -1.2037 -7.57207e-23)
(1.52427 -1.02297 0)
(1.75998 -1.48008 -1.00699e-23)
(1.67649 -1.35603 0)
(1.92822 -1.65306 -3.70257e-21)
(1.84496 -1.57775 0)
(2.0832 -1.75166 0)
(2.00751 -1.71019 8.28801e-21)
(2.22445 -1.80276 6.13912e-21)
(2.15574 -1.78079 0)
(2.27121 -1.92311 6.89669e-21)
(2.28943 -1.81864 0)
(2.27837 -1.8757 -6.79242e-21)
(2.27169 -1.98942 0)
(2.26935 -1.96162 7.88017e-21)
(2.2927 -2.01395 0)
(2.28027 -2.00669 0)
(2.33501 -1.99444 -2.03743e-27)
(2.31172 -2.00985 0)