/*--------------------------------*- C++ -*----------------------------------*\
  =========                 |
  \\      /  F ield         | OpenFOAM: The Open Source CFD Toolbox
   \\    /   O peration     | Website:  https://openfoam.org
    \\  /    A nd           | Version:  10
     \\/     M anipulation  |
\*---------------------------------------------------------------------------*/
FoamFile
{
    format      ascii;
    class       volScalarField;
    location    "16";
    object      p;
}
// * * * * * * * * * * * * * * * * * * * * * * * * * * * * * * * * * * * * * //

dimensions      [0 2 -2 0 0 0 0];

internalField   nonuniform List<scalar> 
25879
(
0.0236425
0.0270107
0.026485
0.0233846
-0.365454
-0.343586
-0.16503
-0.144278
-0.121903
-0.133554
-0.250291
-0.213138
-0.290311
-0.288116
-0.269007
0.196433
0.101768
-0.00723375
-0.136252
0.784159
0.778304
0.174698
0.308474
0.159717
0.160968
0.16721
0.165083
0.154429
0.159106
0.154229
0.153286
-0.325104
-0.327017
-0.322369
-0.0405329
-0.0878558
-0.10605
0.0924566
0.092343
-0.395599
-0.350796
-0.290249
0.367688
0.378066
0.380853
-0.109159
-0.124014
-0.497182
-0.482715
-0.505624
0.112966
0.137037
-0.803494
-0.605531
0.00083413
0.00265961
0.00409322
0.481937
0.494628
0.454806
0.43644
0.395795
0.395018
-0.000198614
0.00189844
0.000619149
-0.351779
-0.358903
-0.325971
-0.403078
-0.34781
0.215624
0.219061
0.223585
0.25855
0.401873
0.326539
0.0341421
0.0350594
0.0310763
0.397781
0.385916
0.812543
0.749603
0.733425
0.170164
0.178764
0.166033
-0.0013793
0.00359989
-0.546273
-0.561376
-0.527178
0.149411
0.149154
-0.362795
-0.370291
-0.35338
-0.0688546
-0.0558089
-0.0721836
-0.0552649
0.00174496
-0.000506714
-0.00644519
0.142467
0.139934
0.134293
0.188477
-0.124473
-0.142082
-0.035058
-0.0320554
0.00605327
0.00604003
0.168683
0.155085
-0.236096
-0.0661548
-0.0277089
-0.0211293
-0.155594
-0.156169
-0.262003
-0.264593
-0.557963
-0.548477
-0.351561
-0.31302
-0.313195
-0.35177
-0.32958
0.49234
0.476956
0.464614
0.47599
0.0279571
0.0313256
-0.153891
0.00287676
-0.0144021
-0.0175071
-0.0213473
-0.0238757
-0.0291321
-0.0344391
-0.0399584
-0.0454688
-0.050894
-0.0558619
-0.0603137
-0.063893
-0.0664563
-0.0678598
-0.0679392
-0.0665921
-0.064193
-0.0607943
-0.0569747
-0.0529648
-0.0493344
-0.0462634
-0.0440358
-0.0426688
-0.0422063
-0.0426048
-0.043932
-0.0462313
-0.0496848
-0.0543763
-0.0605671
-0.068494
-0.0784839
-0.0902944
-0.104404
-0.120289
-0.139452
-0.104377
-0.123721
-0.116227
-0.0205248
-0.016522
-0.013993
-0.131084
-0.0909015
-0.103226
-0.0710971
-0.0800306
-0.0587151
-0.0640799
-0.0520569
-0.0547625
-0.0499577
-0.0505059
-0.0517495
-0.0503933
-0.0573846
-0.0541254
-0.0661749
-0.0615622
-0.075491
-0.0710828
-0.0816221
-0.0792542
-0.0820448
-0.0827061
-0.0765083
-0.0800244
-0.0665596
-0.0720438
-0.0541888
-0.0605964
-0.0415199
-0.0478158
-0.0304782
-0.03572
-0.0255058
-0.0229982
-0.0126985
-0.0181123
-0.0320584
-0.0274676
-0.0409935
-0.0366875
-0.0484941
-0.0448361
-0.0531222
-0.0511121
-0.0535337
-0.053734
-0.0497221
-0.0518939
-0.0434784
-0.0465512
-0.0375289
-0.0401307
-0.0340663
-0.0352634
-0.0338954
-0.0334338
-0.0371039
-0.0349336
-0.0442041
-0.0399779
-0.056435
-0.049431
-0.075784
-0.0649593
-0.0886623
-0.0108464
-0.0106062
-0.0129677
-0.150045
-0.160191
-0.1385
-0.168514
-0.154526
-0.146065
-0.103125
-0.122749
-0.00929691
-0.0084415
-0.00584994
-0.00557908
-0.00799754
-0.111119
-0.123764
-0.0888196
-0.0994869
-0.0718286
-0.0793873
-0.0616796
-0.0659778
-0.0569434
-0.0586634
-0.0567424
-0.0562848
-0.0606672
-0.0581467
-0.0687807
-0.0641794
-0.0799643
-0.074113
-0.0907814
-0.0856532
-0.0970855
-0.0946674
-0.0964898
-0.0976667
-0.0891801
-0.0936236
-0.076928
-0.0834863
-0.0623219
-0.0697301
-0.0478159
-0.0548761
-0.0349023
-0.0410613
-0.0235908
-0.0289897
-0.0149868
-0.0188646
-0.0169225
-0.0129689
-0.0246276
-0.0206802
-0.0320114
-0.0282682
-0.038142
-0.0354492
-0.0413212
-0.0402669
-0.0405843
-0.0415236
-0.0364554
-0.0389253
-0.0308492
-0.0337251
-0.0263497
-0.028349
-0.024706
-0.0251382
-0.0262747
-0.02511
-0.0309772
-0.0282256
-0.0393722
-0.0346501
-0.0527893
-0.0453403
-0.0731421
-0.0619881
-0.086589
-0.166997
-0.00310516
-0.18004
-0.0115181
-0.0166936
-0.0130708
-0.186783
-0.170161
-0.144529
-0.170494
-0.170613
-0.00778105
-0.00977425
-0.00340709
-0.00559804
-0.126124
-0.151538
-0.139009
-0.103016
-0.11412
-0.0840092
-0.0929192
-0.0703719
-0.0763362
-0.0629354
-0.0659453
-0.0606163
-0.061169
-0.0627826
-0.0611531
-0.0693349
-0.0654883
-0.0802682
-0.0742982
-0.0937721
-0.0869149
-0.105672
-0.100223
-0.111662
-0.10961
-0.109597
-0.11167
-0.100104
-0.105672
-0.0854813
-0.0932556
-0.0686997
-0.0771713
-0.0523557
-0.0603416
-0.0380745
-0.0449646
-0.0260048
-0.0317806
-0.0209484
-0.00540667
-0.00050837
-0.00268828
-0.0113009
-0.00826004
-0.0176951
-0.0144787
-0.0235658
-0.0207436
-0.0279623
-0.0260563
-0.0296192
-0.0292016
-0.0279589
-0.0292085
-0.0238029
-0.0260954
-0.0192173
-0.0214144
-0.0164095
-0.0174843
-0.0164864
-0.0160647
-0.0194664
-0.0176201
-0.0253453
-0.0220131
-0.0348107
-0.0295544
-0.0492135
-0.0412832
-0.0702523
-0.058786
-0.100475
-0.0839471
-0.141771
-0.119384
-0.184582
-0.16301
-0.00108355
-0.189763
-0.00858774
-0.0099333
-0.201457
-0.204744
-0.167457
-0.198974
0.002316
-0.19801
-0.173099
0.00127782
0.00372977
-0.19635
-0.196758
-0.00540131
-0.00712081
-0.00155159
-0.00353878
0.00275199
0.000588451
-0.130695
-0.146404
-0.139397
-0.110962
-0.120804
-0.0922294
-0.101229
-0.0770121
-0.0839707
-0.067119
-0.0713177
-0.0628313
-0.0643159
-0.0633888
-0.0625305
-0.0683968
-0.0653355
-0.0779384
-0.0725868
-0.0916635
-0.0843692
-0.107019
-0.0994
-0.1194
-0.113893
-0.124604
-0.123093
-0.120842
-0.123855
-0.109142
-0.115854
-0.0922812
-0.101149
-0.0736229
-0.0829817
-0.055892
-0.0645144
-0.0405874
-0.0479081
-0.0280057
-0.0339883
-0.0182185
-0.0227412
-0.0110866
-0.0143778
-0.00138739
0.000624695
-0.00591381
-0.00354798
-0.0108294
-0.00838092
-0.0151472
-0.0131277
-0.0179164
-0.0167938
-0.0182323
-0.0184204
-0.0159688
-0.0173919
-0.0122039
-0.0141634
-0.00890848
-0.0103716
-0.0077526
-0.00800008
-0.0092844
-0.00818297
-0.0133678
-0.0110081
-0.0201347
-0.0163752
-0.0303734
-0.0247404
-0.0454169
-0.0371859
-0.0669313
-0.055233
-0.0970958
-0.0807594
-0.137275
-0.115788
-0.190791
-0.162213
-0.180557
-0.150947
-0.227053
-0.221788
-0.21384
-0.227727
0.00492279
-0.222666
-0.00830549
-0.0120331
-0.00914747
-0.220912
-0.208566
-0.257808
-0.185264
-0.153411
-0.253734
-0.223045
-0.00614704
-0.00730056
-0.00339053
-0.00482045
8.32107e-05
-0.00171008
0.00391993
0.00196157
-0.118683
-0.121314
-0.121326
-0.10764
-0.114017
-0.0934049
-0.100572
-0.0793701
-0.0861755
-0.068589
-0.0734019
-0.0627373
-0.0650009
-0.0619034
-0.0617179
-0.0655813
-0.0631915
-0.0736293
-0.0690432
-0.0862235
-0.0793568
-0.102598
-0.094072
-0.119558
-0.111299
-0.132205
-0.126734
-0.136444
-0.135554
-0.130832
-0.134852
-0.116854
-0.124719
-0.0978596
-0.107749
-0.0775215
-0.0876549
-0.0586036
-0.0677616
-0.0425131
-0.0501626
-0.0295427
-0.035674
-0.0195075
-0.0241582
-0.0154469
0.00534504
0.00718114
0.00638958
0.00276613
0.00416532
-0.000573472
0.00115173
-0.00404966
-0.00233836
-0.006875
-0.0055994
-0.00821217
-0.00777772
-0.00747873
-0.00811688
-0.00492927
-0.00637437
-0.00183955
-0.00334399
8.4733e-05
-0.000639188
-0.000242084
0.000230202
-0.00294679
-0.00130731
-0.00786906
-0.00512259
-0.0152843
-0.0112181
-0.0260368
-0.0201645
-0.0414188
-0.0330432
-0.0630957
-0.051336
-0.0930785
-0.0769067
-0.133004
-0.111654
-0.184074
-0.157215
-0.244654
-0.213305
-0.152809
-0.118631
-0.285006
-0.277027
0.00586504
-0.237394
-0.256172
-0.00595017
-0.0066792
-0.241619
-0.287012
-0.234327
-0.215875
-0.186102
0.00955198
-0.31462
-0.148781
-0.113552
-0.30847
0.00780726
0.00981284
-0.249212
-0.00410361
-0.00511952
-0.00162243
-0.00293714
0.00141451
-0.000142799
0.00471356
0.00304522
0.00809794
0.00640253
-0.0888473
-0.0790487
-0.0850178
-0.0900254
-0.090895
-0.0835038
-0.0874855
-0.0744286
-0.078952
-0.0653459
-0.0696718
-0.059307
-0.0618184
-0.0575599
-0.0578634
-0.0602031
-0.0583421
-0.0670057
-0.0630808
-0.0781139
-0.0719922
-0.0937537
-0.0853831
-0.112701
-0.10299
-0.131126
-0.122305
-0.143827
-0.13851
-0.146834
-0.146702
-0.139165
-0.144287
-0.12291
-0.131902
-0.101949
-0.11276
-0.080195
-0.0909636
-0.0603825
-0.0699298
-0.0437826
-0.0516427
-0.0305562
-0.0367712
-0.0204033
-0.0251497
-0.0127905
-0.0163083
-0.00729756
-0.00981184
0.00855201
0.00917249
0.00692025
0.0078726
0.00476765
0.0058881
0.00261502
0.00365058
0.00115771
0.00175459
0.00104147
0.000901218
0.00250321
0.00158467
0.00498862
0.0036889
0.00717665
0.00621289
0.00775706
0.00772443
0.00618214
0.00724176
0.00257771
0.0046231
-0.00296184
6.67257e-05
-0.0108275
-0.00655429
-0.02187
-0.0158764
-0.0373132
-0.0289405
-0.0587709
-0.0471592
-0.0882009
-0.0723467
-0.127533
-0.106501
-0.177116
-0.151165
-0.234998
-0.204971
-0.29818
-0.266383
-0.335708
-0.326133
-0.105649
-0.0705301
-0.259361
-0.283413
0.00981151
-0.258196
-0.314491
-0.00514824
-0.00772642
-0.00555585
-0.244179
-0.340215
-0.218946
-0.355735
-0.183635
-0.141525
-0.0953461
-0.0602341
-0.273704
-0.00399656
-0.00463884
-0.00235876
-0.00324264
-0.00021536
-0.00134744
0.0024129
0.00106713
0.00520536
0.00380745
0.00811323
0.00664121
-0.0455534
-0.0276588
-0.0372904
-0.0569912
-0.0522063
-0.0613894
-0.0601074
-0.0594073
-0.0608018
-0.0549451
-0.0571913
-0.0508456
-0.052693
-0.0493775
-0.0496825
-0.0515407
-0.0499734
-0.0575313
-0.0540527
-0.0674074
-0.0619605
-0.0816058
-0.0739271
-0.100304
-0.0904331
-0.12171
-0.110892
-0.141344
-0.132105
-0.153769
-0.148773
-0.155271
-0.156016
-0.14545
-0.151684
-0.127047
-0.137076
-0.10441
-0.115983
-0.0815954
-0.0928197
-0.0612259
-0.071
-0.0443874
-0.0523385
-0.0310969
-0.0373178
-0.0209447
-0.0256651
-0.0133249
-0.0168692
-0.0103086
0.0120403
0.0116364
0.0119584
0.0118988
0.0120845
0.0111661
0.011609
0.0100886
0.0106472
0.00914221
0.00956564
0.00887935
0.00889328
0.00971146
0.00914624
0.0115569
0.0105405
0.0136392
0.0126399
0.0147857
0.0143983
0.0141489
0.0147152
0.0115946
0.0131011
0.00734213
0.00967531
0.00137639
0.004597
-0.00676666
-0.00237373
-0.0179084
-0.0118924
-0.0331871
-0.0249365
-0.0541001
-0.0428183
-0.0824801
-0.0672167
-0.120285
-0.100079
-0.168289
-0.143049
-0.224982
-0.195691
-0.284856
-0.25509
-0.313098
-0.0491968
-0.017195
0.00960811
-0.278915
-0.307781
-0.00336082
-0.0037225
-0.271024
-0.336966
-0.250182
-0.359634
-0.218067
-0.370589
-0.177336
-0.131404
-0.0833338
-0.378893
0.0136073
-0.0377393
-0.00795688
0.011154
0.0128241
-0.295688
-0.0023965
-0.00293459
-0.000960895
-0.0017173
0.000915381
-6.69304e-05
0.00310585
0.00198482
0.0054506
0.00426562
0.00785489
0.00663872
0.0104497
0.00914033
0.00308488
0.0183583
0.0114198
-0.0137972
-0.00569348
-0.0265228
-0.0205001
-0.0332149
-0.0304464
-0.0354891
-0.0347989
-0.0356516
-0.0356535
-0.0361439
-0.0357174
-0.0388316
-0.0371309
-0.0445928
-0.0412942
-0.05375
-0.0487279
-0.0666551
-0.0596912
-0.0839794
-0.074724
-0.105693
-0.0943635
-0.129333
-0.117543
-0.149818
-0.140348
-0.161615
-0.157105
-0.161396
-0.163101
-0.14942
-0.156739
-0.1291
-0.140025
-0.105167
-0.1173
-0.081703
-0.09318
-0.0611371
-0.0709671
-0.0443326
-0.0522499
-0.0311721
-0.037319
-0.0211301
-0.0257981
-0.0136056
-0.0171077
-0.00803056
-0.0105982
-0.00398475
-0.00584653
0.0146828
0.0142323
0.015294
0.0150701
0.0154267
0.0154116
0.0153556
0.0153962
0.0154789
0.0153673
0.0161892
0.0157429
0.0176443
0.0168294
0.0194989
0.0185669
0.0209133
0.0203225
0.0210013
0.021164
0.0193541
0.0203972
0.016088
0.0179099
0.0113997
0.0139234
0.00516593
0.00850331
-0.00310547
0.00133178
-0.014183
-0.00822873
-0.0291101
-0.0210792
-0.0492502
-0.0384186
-0.0762739
-0.061773
-0.111946
-0.0929148
-0.157349
-0.1334
-0.211469
-0.183542
-0.269125
-0.240061
-0.329688
-0.299571
-0.000838973
0.0227369
-0.379706
-0.369763
-0.294534
-0.328292
0.0118658
-0.279629
-0.354575
-0.00240169
-0.00412187
-0.00254624
-0.251763
-0.371983
-0.213314
-0.383732
-0.167708
-0.386549
-0.118855
-0.0705888
-0.0280837
0.0241449
0.00336489
-0.37645
-0.367647
-0.31387
-0.00188141
-0.0021856
-0.0010274
-0.00150012
0.000203435
-0.000442771
0.00177588
0.000957894
0.00355746
0.00264433
0.0054367
0.00448574
0.00741187
0.00640911
0.00955844
0.00843387
0.0407972
0.0411936
0.0422921
0.0306877
0.0366164
0.0160902
0.0235126
0.00256682
0.00896898
-0.00667429
-0.00248468
-0.0125566
-0.00997382
-0.0167616
-0.014726
-0.0212958
-0.0188762
-0.0276562
-0.0241759
-0.036665
-0.0317924
-0.0487956
-0.0423049
-0.0646942
-0.0562142
-0.0851546
-0.074323
-0.109758
-0.0970585
-0.135308
-0.122731
-0.156226
-0.146737
-0.167027
-0.163172
-0.164906
-0.167632
-0.150874
-0.159196
-0.128978
-0.140603
-0.104212
-0.116668
-0.080553
-0.0920627
-0.0601607
-0.0698743
-0.0436608
-0.0514201
-0.0308012
-0.0368031
-0.0209933
-0.0255505
-0.0136318
-0.017042
-0.00814798
-0.0106902
-0.00598357
0.0157426
0.0134608
0.0146719
0.0174812
0.0166757
0.0187562
0.0181703
0.0196943
0.0192591
0.0205209
0.0201053
0.0215302
0.0209866
0.0229323
0.022179
0.0246477
0.0237729
0.0261776
0.0254817
0.0267791
0.0266382
0.0259133
0.0265459
0.0235034
0.0248924
0.0197632
0.0217892
0.0148084
0.0174458
0.00843628
0.0118278
0.000162478
0.00458041
-0.0107158
-0.00489242
-0.0251384
-0.0174067
-0.044323
-0.0340372
-0.069757
-0.0561449
-0.103013
-0.085299
-0.145232
-0.122966
-0.195232
-0.169484
-0.250628
-0.222028
-0.310858
-0.2808
-0.346545
-0.335855
-0.360453
-0.356752
-0.362553
-0.351336
-0.357106
0.0107709
0.0225805
0.0375147
-0.305597
-0.343755
-0.00108843
-0.0012169
-0.28334
-0.365875
-0.248677
-0.380949
-0.204675
-0.387768
-0.155384
-0.382652
-0.105195
-0.370124
-0.0586025
-0.0210908
0.004452
-0.335348
0.0188207
0.0151977
0.0120983
0.0135665
0.031922
-0.325153
-0.339517
-0.349968
-0.327248
-0.000638964
-0.000897697
9.04545e-05
-0.000300708
0.00113784
0.000587437
0.00239573
0.00174621
0.00378233
0.00307669
0.00523572
0.00450071
0.00675742
0.00598495
0.00842303
0.00754871
0.0105304
0.00941557
0.0547888
0.0427299
0.0495357
0.0592262
0.0579751
0.0543688
0.0577941
0.0430196
0.0491247
0.0297557
0.0361294
0.0183115
0.0236903
0.00938461
0.0135844
0.00172307
0.00550478
-0.00626156
-0.00213804
-0.0158085
-0.0107754
-0.0277224
-0.0214259
-0.0426685
-0.0347633
-0.061554
-0.0515494
-0.0851267
-0.0727467
-0.112399
-0.0984705
-0.139431
-0.126299
-0.160287
-0.151024
-0.169717
-0.166679
-0.165586
-0.169347
-0.149706
-0.158886
-0.126683
-0.138763
-0.101615
-0.114127
-0.0782328
-0.0895516
-0.0583728
-0.0678059
-0.0424258
-0.0499155
-0.0300292
-0.0358141
-0.0205721
-0.0249669
-0.0134429
-0.0167496
-0.00810477
-0.010581
-0.00417156
-0.00598357
-0.00127435
-0.00261331
0.0180379
0.0166846
0.0203477
0.0192381
0.0222644
0.0213473
0.0239179
0.0231155
0.0254859
0.024702
0.0271392
0.0262963
0.0289057
0.0280176
0.0305352
0.0297682
0.0315141
0.0311443
0.0312982
0.0315788
0.0296691
0.0306603
0.0267405
0.0283552
0.0227184
0.0248611
0.0176276
0.0203188
0.0112237
0.0146172
0.00305225
0.00739818
-0.00751817
-0.00188066
-0.02132
-0.013947
-0.0394193
-0.0297465
-0.0631042
-0.0504651
-0.0937734
-0.0774622
-0.132542
-0.112117
-0.178329
-0.15472
-0.23064
-0.203358
-0.284801
-0.258732
-0.319005
-0.304268
-0.339061
-0.332156
-0.339911
0.0246615
0.0346514
-0.32337
-0.309839
-0.31151
-0.353398
0.0117607
-0.28215
-0.371904
-0.000145305
-0.00126533
-0.000146738
-0.241377
-0.382647
-0.192938
-0.383693
-0.141482
-0.374055
-0.0918032
-0.356457
-0.0490076
-0.332752
-0.0171078
0.00279753
0.0126246
-0.301485
0.0158063
0.0250378
-0.289225
-0.335117
1.81815e-05
-8.26153e-05
0.000400038
0.000176666
0.00100956
0.000670247
0.00184457
0.00140789
0.00280249
0.00231279
0.00381782
0.00330622
0.00484697
0.00433211
0.00591069
0.00535755
0.00715274
0.00649394
0.00877056
0.00789579
0.0514305
0.0325552
0.0426908
0.0654429
0.0590465
0.0735643
0.0703993
0.0735569
0.074654
0.0656207
0.0704382
0.0538328
0.0600756
0.0416001
0.0476524
0.0303907
0.035851
0.0199002
0.0251249
0.0090256
0.014584
-0.00326829
0.00311608
-0.0178196
-0.0102081
-0.035509
-0.026203
-0.0574034
-0.0458632
-0.0839902
-0.0701393
-0.11357
-0.0986277
-0.141526
-0.128133
-0.161764
-0.152991
-0.16947
-0.167388
-0.163318
-0.16807
-0.145928
-0.15576
-0.122325
-0.134572
-0.0975187
-0.109814
-0.0748767
-0.0857905
-0.0558768
-0.0648818
-0.0406991
-0.0478229
-0.0289058
-0.0344112
-0.0198852
-0.0240823
-0.0130534
-0.0162247
-0.00792706
-0.0103011
-0.00408549
-0.00587743
-0.00255982
0.00976765
0.017041
0.0130797
0.0151451
0.0203742
0.0187672
0.0232297
0.0218497
0.0257233
0.0245148
0.0279672
0.02687
0.0300734
0.0290334
0.0320884
0.0310961
0.0338968
0.0330353
0.035182
0.0346314
0.0355371
0.0355019
0.0346137
0.0352395
0.032442
0.033676
0.0292035
0.0309463
0.0250446
0.0272392
0.0199185
0.0226166
0.01357
0.0169224
0.00558603
0.00981754
-0.00459268
0.000817222
-0.0176919
-0.0107181
-0.0346263
-0.0256065
-0.0564808
-0.0448553
-0.0844571
-0.069612
-0.119518
-0.101079
-0.161099
-0.139552
-0.209547
-0.184297
-0.258255
-0.235013
-0.294025
-0.277945
-0.314859
-0.307061
-0.31501
-0.317802
-0.292954
-0.306531
-0.264495
-0.250811
-0.274132
0.0140218
0.0214389
-0.312047
-0.35734
0.000811755
0.000805639
-0.276029
-0.371868
-0.230197
-0.377626
-0.17887
-0.373103
-0.127102
-0.35866
-0.0800971
-0.338017
-0.0424132
-0.309542
-0.0164549
-0.275011
-0.00173238
0.0045396
0.00512205
0.00163174
-0.234736
-0.235338
0.0108432
-0.223447
-0.209718
0.00887441
-0.337365
0.000936463
0.000858366
0.00125731
0.00107584
0.00173765
0.00147263
0.00235394
0.00203581
0.00302302
0.00268626
0.00367965
0.00335602
0.0042887
0.00399011
0.00489627
0.00458151
0.00568836
0.00525254
0.00681708
0.00620453
0.0084123
0.00754372
0.0387739
0.0151131
0.0276169
0.0580944
0.0489444
0.0734728
0.066343
0.0840066
0.079463
0.0878575
0.0869347
0.0842333
0.0869715
0.0750317
0.0801316
0.0628327
0.0690417
0.0502868
0.0565606
0.0376914
0.0440233
0.0244709
0.0312133
0.00979254
0.0173717
-0.00723746
0.00163583
-0.0276711
-0.0169514
-0.0525576
-0.0395073
-0.0819077
-0.0667505
-0.113252
-0.0975989
-0.141445
-0.128138
-0.160473
-0.152458
-0.166165
-0.165138
-0.158114
-0.163746
-0.139682
-0.149898
-0.116114
-0.128216
-0.0921369
-0.103946
-0.0706563
-0.080974
-0.0527951
-0.0612485
-0.0385624
-0.0452428
-0.0274841
-0.0326602
-0.0189737
-0.0229392
-0.0124918
-0.0155058
-0.00758769
-0.00986428
-0.00391508
-0.00562693
-0.00116863
-0.00243501
0.000839511
-8.88372e-05
0.0144158
0.00932017
0.0119535
0.0188369
0.0167158
0.0226385
0.0207938
0.0259832
0.0243606
0.0289551
0.0275107
0.03163
0.0303268
0.0340462
0.0328723
0.0361498
0.0351468
0.0377533
0.0370319
0.038575
0.0382802
0.0383915
0.038619
0.0369101
0.0377895
0.0344025
0.0357773
0.0310163
0.0328136
0.0268262
0.0290254
0.0217425
0.0244104
0.0155202
0.0187965
0.00779181
0.0118753
-0.00193134
0.00321974
-0.0142725
-0.00772413
-0.0300009
-0.0216522
-0.0500104
-0.0394015
-0.075289
-0.0619168
-0.106573
-0.0901623
-0.143727
-0.124412
-0.186947
-0.164602
-0.230511
-0.209057
-0.266279
-0.249774
-0.288114
-0.279237
-0.291334
-0.292265
-0.272889
-0.284941
-0.256057
-0.00532342
0.00146177
-0.193201
-0.181118
-0.30719
-0.355526
-0.265372
-0.365493
0.00576681
0.00644208
0.00162678
0.000897338
0.00166541
-0.215846
-0.366112
-0.163458
-0.356508
-0.113549
-0.338834
-0.071091
-0.313665
-0.0393165
-0.281928
-0.0191897
-0.244409
-0.00885401
-0.203307
-0.00557425
-0.00743929
-0.0130889
-0.160675
-0.0213806
-0.0140782
-0.150514
-0.333926
0.001617
0.00161447
0.00171511
0.00165355
0.00194125
0.00181788
0.00229628
0.002111
0.00269567
0.002494
0.00308002
0.00289453
0.00337825
0.00324302
0.00356618
0.00348422
0.00371343
0.00363506
0.00402985
0.00383693
0.00472754
0.00433134
0.00519877
-0.00710363
-0.0311361
-0.0232258
0.0205023
0.00749654
0.0435418
0.0324847
0.0630206
0.0537552
0.0790016
0.0714695
0.0910737
0.0856116
0.09781
0.0952274
0.0979679
0.0987507
0.0917998
0.0955663
0.0812001
0.0868898
0.0684549
0.0750062
0.0546
0.0616547
0.0395972
0.047275
0.0228447
0.0314941
0.00343866
0.0135434
-0.0197117
-0.00759507
-0.047418
-0.032976
-0.079052
-0.0628701
-0.111418
-0.095448
-0.139061
-0.126223
-0.1563
-0.149292
-0.159808
-0.15986
-0.150133
-0.156454
-0.131245
-0.141528
-0.108356
-0.119998
-0.0857325
-0.096815
-0.0657668
-0.0753324
-0.0492601
-0.057068
-0.0361021
-0.0422823
-0.0258201
-0.0306307
-0.0178758
-0.0215838
-0.0117849
-0.0146224
-0.00714672
-0.0093029
-0.00365154
-0.00527306
-0.00103469
-0.00224579
1.30991e-06
0.0156105
0.0101647
0.012967
0.0204111
0.0181027
0.024645
0.0225894
0.0284008
0.0265787
0.0317299
0.0301161
0.0346642
0.0332471
0.0371807
0.0359805
0.0391711
0.0382533
0.0404467
0.0399127
0.0408134
0.040753
0.0403361
0.0406402
0.0383678
0.039408
0.035703
0.0371368
0.032286
0.0340864
0.0281401
0.0303096
0.0231587
0.0257674
0.0171182
0.0202911
0.00969658
0.0136071
0.000472305
0.00534423
-0.0110822
-0.00497111
-0.0256025
-0.0179215
-0.0438122
-0.0341899
-0.0664937
-0.0545372
-0.0941953
-0.0796981
-0.127019
-0.109945
-0.164615
-0.145353
-0.20317
-0.183984
-0.236454
-0.22054
-0.258721
-0.249414
-0.264556
-0.263841
-0.250113
-0.259899
-0.216627
-0.235508
-0.167936
-0.194026
-0.118838
-0.109445
-0.139426
-0.297269
-0.347856
0.00718043
0.00231618
0.00233721
-0.250906
-0.352999
-0.199416
-0.348919
-0.148012
-0.335337
-0.10194
-0.31386
-0.06535
-0.285325
-0.0398788
-0.250439
-0.024933
-0.211376
-0.0182938
-0.169332
-0.0178479
-0.126754
-0.0217217
-0.0295357
-0.0393902
-0.0490247
-0.0996909
-0.0856151
-0.078804
-0.0715823
-0.324989
0.0022906
0.00230383
0.00235209
0.00231092
0.00250065
0.002417
0.00270595
0.00260196
0.00289285
0.002806
0.00299
0.00295794
0.0029226
0.00297987
0.00267936
0.0028198
0.00236004
0.00251898
0.00223498
0.00224225
0.0024514
0.00227478
0.00307778
0.00271311
0.00427374
0.00360701
-0.0320714
-0.0448953
-0.00194797
-0.0172299
0.0244312
0.0118238
0.0469861
0.0361605
0.0662631
0.0570414
0.0824408
0.0747452
0.0952942
0.0893377
0.103894
0.100215
0.106931
0.106174
0.10398
0.1062
0.0957533
0.100435
0.0838911
0.0901836
0.0696762
0.0770389
0.0534946
0.0618439
0.035001
0.0445838
0.0133895
0.024651
-0.0122774
0.00111829
-0.0423661
-0.0267907
-0.0755371
-0.0587394
-0.108005
-0.092185
-0.134264
-0.122283
-0.149226
-0.143411
-0.150542
-0.151606
-0.139695
-0.146433
-0.121016
-0.131025
-0.0994287
-0.110318
-0.0785986
-0.0887592
-0.0604114
-0.0691121
-0.0454051
-0.0525057
-0.0334042
-0.0390485
-0.02397
-0.028392
-0.0166288
-0.0200621
-0.0109585
-0.0136052
-0.00661191
-0.00863575
-0.00330262
-0.00484276
-0.000802968
-0.0019613
0.00106377
0.000202298
0.00243216
0.00179629
0.0109906
0.00509534
0.00802928
0.0165739
0.0138304
0.0216621
0.0191897
0.0262339
0.0240136
0.0302933
0.0283277
0.0338495
0.0321349
0.0368923
0.0354385
0.0393623
0.0382062
0.0411424
0.0403488
0.0420842
0.0417281
0.0420611
0.0422003
0.0408439
0.0416454
0.0391477
0.0401687
0.0364742
0.0379067
0.0331054
0.0348742
0.0290569
0.0311719
0.0242234
0.0267505
0.018407
0.0214558
0.0113293
0.0150492
0.00263172
0.00721217
-0.00812505
-0.00245408
-0.0214554
-0.0144284
-0.0379282
-0.0292549
-0.0581281
-0.0475216
-0.0824407
-0.0697523
-0.11101
-0.096179
-0.143291
-0.12681
-0.176438
-0.159991
-0.206212
-0.191998
-0.227575
-0.218334
-0.234771
-0.233205
-0.224424
-0.231976
-0.196431
-0.212687
-0.15304
-0.176366
-0.127421
-0.0473026
-0.0424555
-0.282941
-0.334574
-0.233696
-0.335378
0.00129242
0.00214656
0.002976
0.00253412
0.00305566
-0.18226
-0.327105
-0.133906
-0.310119
-0.0933361
-0.285593
-0.0632728
-0.253913
-0.0438193
-0.217114
-0.0334401
-0.176614
-0.0303397
-0.133869
-0.0325803
-0.091371
-0.0388622
-0.0515637
-0.047908
-0.0584487
-0.0673696
-0.0169554
-0.0144818
-0.094447
-0.0859588
-0.311064
0.00289857
0.0029139
0.002852
0.00287077
0.00287373
0.00285412
0.00293723
0.00290301
0.0029916
0.00297023
0.00296307
0.00299309
0.00276437
0.00289087
0.00231871
0.00257519
0.00163185
0.00200083
0.000848745
0.00123916
0.000234839
0.00050034
2.06492e-05
7.31335e-05
0.000312523
8.62495e-05
0.000638481
-0.0269624
-0.0423009
0.00232895
-0.0116512
0.027536
0.0154595
0.0493435
0.0388491
0.0681629
0.0591181
0.0841868
0.0765274
0.0972966
0.0911392
0.106849
0.102639
0.11185
0.109995
0.111526
0.112382
0.105825
0.10932
0.0955615
0.1012
0.0817806
0.0890665
0.0650422
0.0737792
0.045237
0.055558
0.0217808
0.0340163
-0.00591856
0.00848673
-0.0376379
-0.0213422
-0.0713525
-0.0544568
-0.102892
-0.0877249
-0.126973
-0.116199
-0.139327
-0.134813
-0.13869
-0.140597
-0.127276
-0.134097
-0.109495
-0.118894
-0.0897452
-0.0996403
-0.0710325
-0.0801345
-0.0547867
-0.0625564
-0.0413562
-0.0477189
-0.0305499
-0.0356423
-0.0219875
-0.0260098
-0.0152687
-0.018418
-0.0100367
-0.0124842
-0.00599366
-0.00788087
-0.00289224
-0.00433718
-0.000538038
-0.00163009
0.00122655
0.000409957
0.00192997
0.0118125
0.0060994
0.00892525
0.0173473
0.0145899
0.0225752
0.0200056
0.027344
0.0250235
0.0315779
0.0295314
0.0352381
0.0334831
0.03828
0.0368413
0.0406305
0.0395486
0.0421911
0.0415172
0.0428649
0.0426448
0.0425932
0.0428502
0.0413641
0.0420981
0.0394635
0.040516
0.036827
0.0382306
0.0335541
0.0352694
0.0296403
0.0316829
0.0249884
0.0274173
0.0194267
0.0223366
0.0127177
0.0162355
0.00456038
0.00884446
-0.00540556
-0.00016785
-0.0175891
-0.0111884
-0.0324264
-0.0246426
-0.0503324
-0.0409683
-0.0715518
-0.0605149
-0.0961314
-0.0834229
-0.123469
-0.109548
-0.151479
-0.137577
-0.177055
-0.164779
-0.196295
-0.187871
-0.203505
-0.201655
-0.196698
-0.201917
-0.173492
-0.186793
-0.136117
-0.156235
-0.0889557
-0.113618
-0.0371203
-0.0632884
0.0129212
0.0134598
-0.0113933
-0.265228
-0.316676
0.00334533
0.00344729
0.00350861
-0.215088
-0.313652
-0.0778469
-0.0991562
-0.0949405
-0.165853
-0.301979
-0.122454
-0.282207
-0.0884264
-0.255023
-0.0648699
-0.221136
-0.0508607
-0.182574
-0.0446841
-0.140791
-0.0449376
-0.0981356
-0.0497924
-0.0568776
-0.0581459
-0.0197379
-0.0686845
0.0123164
-0.0797666
-0.0893526
-0.0972066
-0.111165
0.0147616
0.0384171
0.0366147
0.0353392
-0.293124
0.00337819
0.00340997
0.003318
0.00334323
0.00329729
0.00330457
0.003269
0.00328771
0.00317162
0.0032341
0.00291933
0.00307128
0.00241062
0.0027035
0.00156965
0.00203402
0.0004265
0.00102953
-0.000828843
-0.000202889
-0.00190253
-0.00140801
-0.00250315
-0.00227054
-0.00248592
-0.00258059
-0.00147264
-0.00216122
0.000978907
-0.000453408
-0.049274
-0.0628355
-0.0213089
-0.0360391
0.00643953
-0.00661053
0.0299487
0.0185422
0.0507877
0.0407218
0.0689385
0.0601891
0.0845729
0.0770746
0.0975818
0.0914311
0.107528
0.10296
0.113591
0.111109
0.115023
0.114928
0.111417
0.113861
0.102914
0.107754
0.0900634
0.0970029
0.0733276
0.0821748
0.0527509
0.0635407
0.0280488
0.0409429
-0.000893585
0.0140959
-0.0332139
-0.01674
-0.0663206
-0.0499042
-0.0959076
-0.0818724
-0.117193
-0.107866
-0.126911
-0.123664
-0.124758
-0.127227
-0.113484
-0.120027
-0.097232
-0.105729
-0.07972
-0.0884521
-0.0633119
-0.0712834
-0.0490701
-0.0558879
-0.0372264
-0.042849
-0.0276129
-0.0321547
-0.019922
-0.0235443
-0.0138296
-0.0166924
-0.00904325
-0.0112874
-0.00531343
-0.00705828
-0.00243226
-0.00377664
-0.000230875
-0.00125437
0.00143036
0.000660665
0.00266733
0.00209682
0.0035836
0.00315862
0.00735774
0.00269943
0.00485538
0.012628
0.00991266
0.0180327
0.0153467
0.0232341
0.0206691
0.0280394
0.0256971
0.0323126
0.0302495
0.0359695
0.0342238
0.0389394
0.0375461
0.0411474
0.0401446
0.0425191
0.0419431
0.0430014
0.0428745
0.0425875
0.0429061
0.0413394
0.0420615
0.0394094
0.0404587
0.0368487
0.0382058
0.0337008
0.0353489
0.029947
0.0319048
0.0255003
0.0278196
0.0202141
0.0229753
0.0138881
0.0171978
0.00627353
0.010262
-0.00291999
0.00189706
-0.0140102
-0.00820357
-0.0273196
-0.0203633
-0.0431246
-0.0348926
-0.061555
-0.0520051
-0.0825415
-0.0717421
-0.105465
-0.0938347
-0.128753
-0.117202
-0.14995
-0.13981
-0.165979
-0.15873
-0.172783
-0.170572
-0.167582
-0.171823
-0.148716
-0.159875
-0.117313
-0.134389
-0.0764075
-0.0977314
-0.0303291
-0.0537031
-0.00780412
0.0582754
0.0550199
-0.245438
-0.29532
-0.110031
-0.196609
-0.289255
-0.00124689
0.000712794
0.00396003
0.00368231
0.00403084
-0.151663
-0.27504
-0.114596
-0.253031
-0.087404
-0.223859
-0.0699483
-0.188464
-0.0608909
-0.148594
-0.0588494
-0.106276
-0.0623813
-0.063365
-0.0699558
-0.0238589
-0.0804177
0.0117406
-0.0924437
0.0404773
-0.104591
0.0622977
-0.111912
-0.123891
-0.129621
0.0779698
0.0721969
-0.272416
0.00384781
0.00390208
0.00378063
0.00382153
0.00370659
0.00374029
0.00363799
0.00367518
0.00351358
0.00358701
0.00325917
0.00340888
0.00277046
0.00305168
0.00193273
0.00240224
0.000676603
0.00135849
-0.000933718
-9.28835e-05
-0.00265847
-0.00180054
-0.00415269
-0.00345639
-0.00507729
-0.00470218
-0.00518973
-0.00525103
-0.0041059
-0.00484917
-0.00295621
-0.0700662
-0.126315
-0.0423432
-0.0554449
-0.0159678
-0.0293805
0.00963726
-0.00254991
0.0316788
0.0209598
0.0514299
0.0418558
0.0688075
0.0604125
0.0839064
0.0766471
0.0966179
0.0905822
0.10656
0.10197
0.113084
0.110304
0.115491
0.114848
0.113262
0.114983
0.106195
0.110339
0.0943919
0.100879
0.0780646
0.086792
0.0573086
0.0682491
0.0321478
0.0452796
0.00297675
0.018015
-0.0287632
-0.0127139
-0.0601121
-0.0447297
-0.0869056
-0.0743657
-0.105067
-0.0972829
-0.112405
-0.110099
-0.109431
-0.112092
-0.0990051
-0.104932
-0.0847741
-0.0921582
-0.0697287
-0.0772129
-0.0556758
-0.0625069
-0.043411
-0.0492952
-0.0331116
-0.0380153
-0.0246572
-0.0286636
-0.0178175
-0.0210483
-0.0123427
-0.0149221
-0.00800052
-0.0100414
-0.00458792
-0.0061878
-0.0019323
-0.00317373
0.000111036
-0.000840947
0.00166338
0.000942917
0.00282503
0.00228915
0.00328467
0.00880403
0.0046004
0.00657425
0.013657
0.0111786
0.0187635
0.0161953
0.023779
0.0212972
0.0284666
0.0261767
0.0326514
0.0306315
0.0362122
0.0345172
0.0390578
0.0377306
0.0411141
0.0401899
0.0423267
0.0418295
0.0426748
0.0426098
0.0421864
0.0425329
0.0409538
0.0416554
0.0390644
0.040083
0.0366083
0.0379067
0.0336038
0.035176
0.0300267
0.0318915
0.0258008
0.0280029
0.0208025
0.0234093
0.0148652
0.0179651
0.00778664
0.0114849
-0.000662867
0.00375125
-0.0107239
-0.00547363
-0.0226243
-0.0164276
-0.03653
-0.0293167
-0.0524744
-0.0442476
-0.0702901
-0.0611689
-0.0893662
-0.0797325
-0.108455
-0.099014
-0.125627
-0.117441
-0.138312
-0.132705
-0.143714
-0.142083
-0.139314