/*--------------------------------*- C++ -*----------------------------------*\
  =========                 |
  \\      /  F ield         | OpenFOAM: The Open Source CFD Toolbox
   \\    /   O peration     | Website:  https://openfoam.org
    \\  /    A nd           | Version:  10
     \\/     M anipulation  |
\*---------------------------------------------------------------------------*/
FoamFile
{
    format      ascii;
    class       volScalarField;
    location    "39";
    object      p;
}
// * * * * * * * * * * * * * * * * * * * * * * * * * * * * * * * * * * * * * //

dimensions      [0 2 -2 0 0 0 0];

internalField   nonuniform List<scalar> 
28942
(
-0.00369116
-0.00305786
0.00212745
0.00963684
0.00993715
0.000126319
0.000369741
4.38466e-05
0.00284638
0.00293452
-0.00222989
-0.00250024
-0.0028877
-0.0028048
0.000243526
0.000597911
0.0100055
0.0102752
0.00569681
0.00725697
0.00827698
0.00826931
-0.00516617
-0.00498643
-0.00351541
-0.00373485
0.0140054
0.0139543
0.00364119
0.00358595
3.19209e-05
7.18541e-05
0.000952242
0.0004004
0.00726431
0.00847114
0.0110106
0.0129714
1.15563e-05
0.015169
0.00924104
0.0117388
0.00209171
0.00203632
0.00206808
0.000364403
0.000212642
0.000291974
0.000336778
0.000473662
0.00088087
0.00294777
0.00301691
0.00297638
0.00313344
-0.00227404
-0.000967433
-0.00329901
-0.00314373
-0.00341837
-0.00349086
-0.00349195
-0.00338905
-2.25233e-05
-0.00173602
-0.000264086
0.00107585
0.00954675
0.00905007
-0.00327851
-0.00349038
-0.00322308
0.00910957
0.00896221
0.00925363
-0.0013856
-0.000995402
-0.000648909
0.00246527
0.00286499
0.00195062
0.000849682
-0.00624792
-0.00748294
0.0011868
0.00391831
0.00496224
0.00575185
0.00413228
0.00425893
0.00622963
0.00560553
-0.00128326
-0.00158286
-0.0018669
-0.00170026
-0.00152031
0.00545156
0.00674506
-0.00779452
0.0114343
0.0106353
0.00592923
0.00952679
0.00103309
0.0009521
0.000852062
0.00560265
0.00579519
0.00578895
-0.00314088
-0.00306073
-0.00304317
-0.00252118
-0.00264127
0.0159613
0.0139547
0.0133956
0.0150282
0.00175073
0.00484069
0.00353539
0.00518423
0.00486181
0.0156334
0.0159287
0.014587
0.00602864
0.0071086
0.00024881
0.000364337
0.000151527
0.0106208
0.0111252
0.00781822
0.00747051
0.0129273
0.00681258
0.00810623
0.00917318
-0.00179988
-0.00232104
0.0074755
0.00201815
0.00208815
-0.00109137
-0.00136232
-0.000886359
-0.0024222
0.0067112
0.00583729
0.00382129
0.000325669
0.000261328
0.000116301
0.000265357
0.00764991
0.00691474
-0.00175324
-0.00187308
-0.0017661
-0.00406522
-0.00360475
9.51791e-05
-0.00277869
-0.000419274
0.00851879
0.00862719
0.00972274
0.00925788
0.00783456
0.00323828
0.00315729
0.00339139
0.00326939
0.00517429
0.00495192
0.00528605
0.00550659
0.00544337
0.00551125
0.00572165
0.00627444
0.00596906
0.00556577
0.00589562
0.00660169
0.00735378
0.00764684
-0.000442375
-0.000426585
-0.00237454
0.000274438
9.87655e-05
-0.00188606
-0.00197702
0.000371289
0.000432483
0.000391037
0.000319709
0.0021574
0.00212878
0.00209885
-0.00283431
-0.00302506
-0.00268322
-0.00426968
-0.00475698
-0.00406082
-0.00465365
-0.00642735
-0.00511821
0.0161554
0.0168662
0.0166334
0.00108224
0.00122847
0.00111092
0.0104753
0.0100477
0.0101281
0.00163137
0.00160978
0.00165304
0.00158828
0.00156705
0.00154597
0.00154674
0.00152511
0.00152614
0.00156752
0.00158871
0.0016101
0.00163184
0.00165347
0.00150468
0.00150552
0.00167482
0.00167536
0.00169712
0.00148444
0.00148487
0.00169757
0.00146407
0.00144385
0.00146457
0.00144442
0.00171933
0.00171995
0.00142381
0.00142438
0.00174151
0.00174245
0.00140391
0.0014045
0.00176408
0.00176516
0.00138413
0.00138475
0.00178692
0.00178803
0.00136453
0.00136509
0.00181001
0.00181105
0.00134508
0.00134553
0.00183342
0.00183415
0.00132571
0.00132611
0.00185681
0.00185751
0.00130642
0.00130676
0.00188056
0.00188109
0.00128721
0.00128736
0.00190457
0.00190507
0.00126815
0.00126778
0.00192886
0.00192911
0.00124871
0.00124836
0.00195343
0.00195372
0.0012287
0.00122884
0.00192804
0.00195261
0.00197835
0.00197832
0.00187937
0.00190374
0.00183208
0.00185586
0.00178602
0.00180897
0.00174058
0.00176323
0.00169567
0.00171804
0.00165228
0.00167429
0.00160926
0.00163053
0.0015667
0.0015879
0.00152464
0.00154563
0.00148361
0.00150406
0.00144315
0.00146331
0.00140328
0.00142315
0.00136396
0.00138356
0.00132514
0.0013445
0.00128677
0.00130591
0.00124816
0.00126768
0.00122863
0.001209
0.00120912
0.00126796
0.00122911
0.00124858
0.0013068
0.0012874
0.00134554
0.00132616
0.00138468
0.00136505
0.00142433
0.00140444
0.00146454
0.00144437
0.00150534
0.00148487
0.00154686
0.00152613
0.00158887
0.00156787
0.00163165
0.00161011
0.00167545
0.00165362
0.0017197
0.00169726
0.00176491
0.00174225
0.00181077
0.00178777
0.00185736
0.00183393
0.00190484
0.00188086
0.00195325
0.00192885
0.00197756
0.00197766
0.00120895
0.00120954
0.00200312
0.00200203
0.0020028
0.00200333
0.00192646
0.00197572
0.00195096
0.00187792
0.00190213
0.00183104
0.00185428
0.00178504
0.00180796
0.0017397
0.00176229
0.00169513
0.00171731
0.0016512
0.00167313
0.00160816
0.00162982
0.00156606
0.00158681
0.00152409
0.00154498
0.00148306
0.0015035
0.00144265
0.00146278
0.00140283
0.00142267
0.00136355
0.00138313
0.00132476
0.00134409
0.00128643
0.00130554
0.001248
0.00126728
0.00118927
0.00118934
0.00120918
0.00122867
0.0012295
0.00121017
0.00119022
0.00118939
0.00126821
0.00124893
0.00130669
0.00128734
0.00134532
0.00132596
0.00138442
0.00136481
0.00142404
0.00140417
0.00146422
0.00144406
0.001505
0.00148454
0.00154644
0.00152564
0.0015886
0.00156741
0.00163127
0.00160984
0.00167484
0.0016531
0.00171915
0.00169692
0.00176421
0.0017416
0.00180998
0.00178701
0.0018564
0.00183312
0.00190338
0.00187985
0.00195064
0.00192706
0.00199956
0.00197529
0.00200057
0.00202686
0.00202435
0.00202762
0.00119002
0.00119064
0.00202734
0.00202498
0.0020516
0.00204924
0.0020283
0.00120949
0.00119033
0.00117071
0.00117116
0.0020213
0.00205073
0.00207749
0.00205015
0.00197275
0.00199704
0.00192412
0.00194833
0.00187624
0.00190012
0.00182956
0.00185265
0.00178372
0.00180657
0.00173853
0.00176104
0.00169408
0.00171622
0.00165031
0.00167209
0.00160728
0.00162871
0.001565
0.00158606
0.00152338
0.00154411
0.00148242
0.00150282
0.00144207
0.00146217
0.00140229
0.00142211
0.00136305
0.00138261
0.0013243
0.00134362
0.001286
0.0013051
0.00124782
0.00126688
0.00122865
0.00117009
0.00117053
0.00117019
0.00117026
0.00122978
0.0011912
0.00121055
0.0012682
0.001249
0.00130639
0.00128719
0.00134497
0.00132563
0.00138403
0.00136444
0.00142361
0.00140375
0.00146373
0.0014436
0.00150446
0.00148402
0.00154582
0.00152505
0.00158784
0.00156675
0.00163058
0.00160914
0.00167402
0.0016522
0.0017182
0.00169604
0.00176311
0.00174057
0.00180873
0.00178584
0.00185497
0.00183179
0.0019017
0.00187831
0.00194883
0.0019252
0.00199678
0.00197273
0.0020457
0.00202091
0.00207331
0.0020699
0.0020521
0.00205243
0.00117105
0.00117185
0.00207554
0.0020759
0.00208749
0.00209387
0.00209722
0.00205555
0.00212468
0.00205309
0.00206263
0.00207324
0.0020176
0.00204265
0.00196863
0.00199297
0.00192088
0.00194451
0.00187386
0.00189743
0.00182765
0.00185067
0.00178199
0.00180475
0.00173698
0.00175941
0.00169267
0.00171474
0.00164907
0.00167078
0.00160617
0.00162752
0.00156396
0.00158499
0.00152245
0.00154312
0.00148157
0.00150193
0.00144129
0.00146136
0.00140158
0.00142137
0.0013624
0.00138193
0.0013237
0.00134299
0.00128545
0.00130453
0.00124748
0.0012664
0.00120958
0.00122855
0.00117136
0.00119045
0.00115144
0.00115207
0.00115175
0.00115116
0.00115117
0.00115154
0.00115126
0.00115266
0.00115204
0.0011916
0.00115356
0.00117254
0.00122979
0.00121073
0.00126786
0.00124884
0.00130596
0.00128686
0.00134449
0.00132517
0.0013835
0.00136394
0.00142301
0.00140319
0.00146307
0.00144297
0.00150372
0.00148332
0.00154499
0.00152428
0.00158692
0.00156588
0.00162955
0.00160815
0.00167286
0.00165111
0.00171691
0.0016948
0.00176166
0.0017392
0.00180708
0.00178429
0.00185311
0.00183003
0.00189961
0.00187632
0.00194642
0.00192298
0.00199352
0.00196996
0.00204101
0.00201717
0.00208888
0.0020647
0.0021173
0.00211215
0.00207638
0.00207713
0.0020983
0.00209899
0.00117154
0.00115257
0.0011336
0.00113408
0.00211893
0.00212082
0.00214809
0.00208197
0.00213957
0.00213501
0.00211747
0.00207708
0.00205454
0.00207021
0.00201259
0.00203539
0.00196423
0.00198834
0.00191762
0.00194089
0.00187125
0.00189441
0.0018253
0.00184822
0.00177988
0.00180252
0.00173509
0.00175741
0.00169096
0.00171294
0.00164753
0.00166916
0.00160478
0.00162607
0.00156271
0.00158366
0.00152131
0.00154193
0.00148053
0.00150084
0.00144034
0.00146036
0.00140072
0.00142046
0.00136161
0.0013811
0.00132298
0.00134224
0.00128479
0.00130383
0.001247
0.00126585
0.00120936
0.00122812
0.0011904
0.00113255
0.00113303
0.00113273
0.0011325
0.00113256
0.00113281
0.00113265
0.00113308
0.00119178
0.00115372
0.00117297
0.00122957
0.00121069
0.00126737
0.00124849
0.00130541
0.00128634
0.00134388
0.00132459
0.00138282
0.00136329
0.00142226
0.00140248
0.00146223
0.00144218
0.00150279
0.00148244
0.00154395
0.00152329
0.00158576
0.00156478
0.00162825
0.00160692
0.00167142
0.00164975
0.00171529
0.00169327
0.00175984
0.00173748
0.00180504
0.00178237
0.0018508
0.00182786
0.00189702
0.00187387
0.00194351
0.00192025
0.00199007
0.00196681
0.00203647
0.0020134
0.00208263
0.002059
0.00212949
0.00210666
0.00215704
0.00215135
0.00210085
0.0021005
0.00113326
0.00113465
0.00212181
0.00210591
0.0021333
0.00212258
0.00214284
0.00214122
0.00216177
0.00215666
0.00216163
0.00217837
0.00217383
0.00210089
0.00209027
0.00214381
0.00212043
0.00204935
0.00206768
0.00200698
0.00203008
0.00196036
0.00198357
0.00191418
0.00193727
0.00186817
0.00189114
0.00182253
0.0018453
0.0017774
0.0017999
0.00173286
0.00175506
0.00168896
0.00171083
0.00164572
0.00166726
0.00160314
0.00162435
0.00156123
0.00158211
0.00151996
0.00154052
0.0014793
0.00149956
0.00143923
0.0014592
0.0013997
0.0014194
0.00136068
0.00138013
0.00132213
0.00134135
0.00128402
0.00130302
0.00124631
0.00126512
0.00120887
0.00122759
0.0011713
0.00119011
0.0011333
0.00115247
0.00111409
0.00111418
0.00111405
0.0011141
0.00111405
0.00111424
0.00111414
0.00111437
0.00111432
0.00111478
0.00111453
0.00111575
0.00111519
0.00115393
0.00111624
0.00113509
0.00119164
0.00117288
0.00122918
0.00121041
0.00126677
0.00124794
0.00130475
0.00128571
0.00134314
0.00132389
0.001382
0.00136251
0.00142134
0.00140161
0.00146122
0.00144122
0.00150166
0.00148137
0.0015427
0.00152211
0.00158437
0.00156346
0.0016267
0.00160545
0.00166969
0.00164811
0.00171335
0.00169144
0.00175767
0.00173544
0.0018026
0.00178007
0.00184806
0.00182527
0.00189393
0.00187096
0.00194005
0.00191698
0.00198618
0.00196314
0.00203195
0.00200918
0.00207706
0.00205455
0.00212113
0.00209943
0.0021649
0.00214235
0.00219499
0.00218696
0.00212335
0.00216071
0.00214083
0.00113335
0.00111457
0.00109685
0.0010972
0.00212358
0.00214501
0.00216035
0.0021648
0.00218272
0.00220032
0.00221486
0.00220743
0.00212374
0.00213723
0.00217958
0.00217247
0.00215587
0.00208822
0.0021144
0.00204433
0.00206464
0.00200164
0.00202427
0.00195591
0.00197873
0.00191021
0.00193307
0.00186463
0.00188739
0.00181937
0.00184195
0.00177457
0.00179691
0.00173031
0.00175237
0.00168666
0.00170841
0.00164365
0.00166508
0.00160127
0.00162238
0.00155954
0.00158033
0.00151842
0.0015389
0.0014779
0.00149809
0.00143795
0.00145786
0.00139854
0.00141818
0.00135962
0.00137902
0.00132116
0.00134034
0.00128314
0.0013021
0.0012455
0.00126427
0.00120823
0.00122683
0.00117092
0.00118958
0.00115214
0.00109544
0.00109538
0.00109539
0.00109579
0.00109566
0.0010961
0.00109595
0.00109618
0.00109617
0.00109626
0.00109623
0.0010965
0.00115405
0.00111647
0.00113528
0.00119126
0.00117267
0.00122856
0.00120993
0.00126607
0.00124727
0.00130397
0.00128497
0.00134228
0.00132307
0.00138103
0.0013616
0.00142028
0.00140059
0.00146003
0.00144009
0.00150035
0.00148012
0.00154124
0.00152072
0.00158275
0.00156192
0.00162489
0.00160374
0.00166768
0.00164621
0.00171111
0.00168932
0.00175516
0.00173306
0.00179979
0.00177741
0.0018449
0.00182229
0.00189038
0.00186761
0.00193605
0.00191321
0.00198169
0.0019589
0.00202693
0.0020044
0.00207139
0.00204931
0.00211442
0.00209312
0.00215681
0.00213535
0.00219761
0.00217694
0.00218194
0.00218139
0.0022266
0.00221734
0.0021441
0.00109586
0.00109748
0.00218888
0.00214602
0.0021995
0.00216446
0.00216731
0.00218681
0.00218701
0.00220482
0.0022202
0.00223382
0.002245
0.00223618
0.00214577
0.00216236
0.00221034
0.00220387
0.00218029
0.00212772
0.00214757
0.00208309
0.00210526
0.00203881
0.00206031
0.00199585
0.00201797
0.00195088
0.00197339
0.00190575
0.00192833
0.00186066
0.00188319
0.00181582
0.0018382
0.00177139
0.00179355
0.00172745
0.00174936
0.00168409
0.0017057
0.00164132
0.00166263
0.00159917
0.00162017
0.00155763
0.00157832
0.00151669
0.00153709
0.00147633
0.00149644
0.00143652
0.00145636
0.00139723
0.00141681
0.00135843
0.00137777
0.00132008
0.0013392
0.00128215
0.00130106
0.0012446
0.00126333
0.00120741
0.00122597
0.00117042
0.00118893
0.00113327
0.00115182
0.00109591
0.00111474
0.00107697
0.00107707
0.00107696
0.00107724
0.00107702
0.00107768
0.00107745
0.00107802
0.00107788
0.00107808
0.00107808
0.00107803
0.00107803
0.00107815
0.00107802
0.0010787
0.00107831
0.00111652
0.00107905
0.00109785
0.00115379
0.00113516
0.00119074
0.00117231
0.00122783
0.00120925
0.00126527
0.00124651
0.00130307
0.00128412
0.00134128
0.00132213
0.00137993
0.00136055
0.00141905
0.00139944
0.00145868
0.00143881
0.00149885
0.0014787
0.00153958
0.00151914
0.00158091
0.00156017
0.00162284
0.0016018
0.0016654
0.00164405
0.00170857
0.00168691
0.00175232
0.00173038
0.00179661
0.00177441
0.00184135
0.00181894
0.00188639
0.00186385
0.00193158
0.00190899
0.00197665
0.00195415
0.00202128
0.00199906
0.00206509
0.00204333
0.00210747
0.0020865
0.00214815
0.00212812
0.00218684
0.00216735
0.00222445
0.00220644
0.00220146
0.00220519
0.00225136
0.00223923
0.00216673
0.00216847
0.00221976
0.00222869
0.00221833
0.00218721
0.00218944
0.00109579
0.00107737
0.00106005
0.00106038
0.00220987
0.00220845
0.00222523
0.00223927
0.00225159
0.00226033
0.00223438
0.0022266
0.00223892
0.00226661
0.00225787
0.0022527
0.00216828
0.00219618
0.0022087
0.0021535
0.00217311
0.00211801
0.00213777
0.00207539
0.00209643
0.00203279
0.00205417
0.00198962
0.0020114
0.00194541
0.00196758
0.00190088
0.00192317
0.0018563
0.00187858
0.00181192
0.00183408
0.00176788
0.00178985
0.0017243
0.00174603
0.00168124
0.0017027
0.00163875
0.00165992
0.00159684
0.00161772
0.00155552
0.00157611
0.00151477
0.00153507
0.00147458
0.00149461
0.00143493
0.00145469
0.00139578
0.0014153
0.00135711
0.00137639
0.00131888
0.00133794
0.00128105
0.00129992
0.0012436
0.00126228
0.0012065
0.00122501
0.00116973
0.00118809
0.0011329
0.00115132
0.00111443
0.00105857
0.00105849
0.00105846
0.00105914
0.00105887
0.00105967
0.00105942
0.00105999
0.00105986
0.00106005
0.00106005
0.00105991
0.00105999
0.00105986
0.00105987
0.00105992
0.00111643
0.00107937
0.00109793
0.00115331
0.00113485
0.00119002
0.00117164
0.00122702
0.00120848
0.00126436
0.00124565
0.00130207
0.00128317
0.00134017
0.00132107
0.0013787
0.00135938
0.00141768
0.00139813
0.00145717
0.00143736
0.00149717
0.0014771
0.00153772
0.00151738
0.00157885
0.00155821
0.00162056
0.00159963
0.00166286
0.00164164
0.00170574
0.00168423
0.00174917
0.0017274
0.0017931
0.00177108
0.00183741
0.00181522
0.001882
0.00185969
0.00192665
0.00190433
0.00197113
0.00194894
0.0020151
0.00199321
0.00205818
0.00203679
0.00209985
0.00207923
0.00213959
0.00212004
0.00217688
0.00215858
0.00221085
0.00219454
0.00224455
0.00222587
0.00224401
0.00226919
0.00228196
0.00228141
0.00227008
0.00225394
0.00222143
0.00222866
0.00218943
0.0021907
0.00105881
0.00106053
0.00224158
0.00220989
0.00221108
0.00223054
0.00222927
0.00224495
0.00225816
0.00226756
0.00227389
0.0022523
0.00223898
0.00224948
0.00225483
0.00226762
0.00228222
0.0022643
0.0022669
0.00226528
0.00229062
0.00229185
0.00219071
0.00221608
0.00222488
0.00218263
0.00219715
0.00214467
0.0021643
0.00210787
0.00212673
0.00206748
0.00208797
0.00202571
0.00204673
0.00198306
0.00200452
0.00193954
0.00196138
0.00189561
0.00191761
0.00185159
0.0018736
0.00180768
0.00182961
0.00176407
0.00178584
0.00172086
0.00174241
0.00167813
0.00169944
0.00163594
0.00165697
0.00159429
0.00161505
0.0015532
0.00157368
0.00151267
0.00153287
0.00147267
0.00149261
0.00143319
0.00145287
0.0013942
0.00141364
0.00135566
0.00137488
0.00131756
0.00133656
0.00127985
0.00129866
0.00124251
0.00126114
0.00120551
0.00122397
0.00116883
0.00118713
0.00113231
0.00115059
0.00109584
0.00111403
0.00105886
0.00107731
0.0010402
0.00104033
0.00104021
0.00104053
0.00104024
0.00104117
0.00104084
0.00104171
0.00104147
0.00104201
0.00104189
0.00104209
0.00104208
0.00104194
0.00104204
0.0010417
0.00104185
0.00104165
0.00104162
0.00104188
0.00104174
0.0010792
0.00104207
0.00106079
0.00111611
0.00109769
0.0011526
0.00113439
0.0011892
0.00117087
0.00122612
0.00120762
0.00126335
0.0012447
0.00130095
0.00128211
0.00133893
0.00131989
0.00137733
0.00135808
0.00141617
0.00139669
0.00145549
0.00143577
0.00149532
0.00147534
0.00153567
0.00151543
0.00157658
0.00155606
0.00161804
0.00159724
0.00166007
0.00163899
0.00170264
0.00168129
0.00174572
0.00172413
0.00178925
0.00176744
0.00183313
0.00181116
0.00187721
0.00185516
0.00192131
0.00189928
0.00196516
0.00194329
0.00200845
0.00198691
0.00205077
0.00202976
0.00209164
0.00207142
0.00213055
0.00211139
0.0021669
0.00214912
0.00219965
0.00218382
0.00222887
0.00221493
0.00223905
0.00223903
0.00225172
0.00228994
0.00227641
0.0022117
0.00221253
0.00225455
0.00223067
0.00223209
0.00105864
0.00104031
0.00102335
0.0010234
0.00225091
0.00224933
0.00226395
0.00227554
0.0022841
0.00229033
0.00226145
0.00224753
0.00226236
0.0022738
0.00228066
0.00227757
0.00227922
0.00230325
0.00229851
0.00228226
0.00229674
0.00221276
0.00222776
0.00222961
0.00220132
0.00221588
0.00216887
0.00218549
0.00213491
0.00215248
0.00209835
0.00211693
0.00205907
0.00207902
0.00201811
0.00203874
0.00197613
0.00199725
0.0019333
0.0019548
0.00189
0.00191169
0.00184653
0.00186828
0.00180313
0.00182482
0.00175997
0.00178151
0.00171715
0.00173851
0.00167478
0.00169591
0.0016329
0.00165378
0.00159154
0.00161215
0.0015507
0.00157105
0.00151039
0.00153048
0.0014706
0.00149044
0.0014313
0.00145089
0.00139248
0.00141184
0.0013541
0.00137324
0.00131613
0.00133507
0.00127855
0.0012973
0.00124133
0.0012599
0.00120444
0.00122284
0.00116785
0.00118611
0.00113153
0.00114967
0.00109525
0.00111334
0.00107699
0.00102198
0.00102185
0.00102192
0.00102259
0.00102228
0.00102329
0.00102295
0.0010238
0.00102357
0.00102409
0.00102397
0.00102417
0.00102416
0.00102403
0.00102413
0.00102371
0.00102389
0.00102338
0.00102355
0.00102327
0.00107896
0.00104218
0.00106072
0.00111554
0.00109724
0.0011518
0.00113365
0.00118832
0.00117002
0.00122513
0.00120668
0.00126225
0.00124365
0.00129973
0.00128095
0.00133757
0.0013186
0.00137583
0.00135665
0.00141451
0.00139512
0.00145366
0.00143403
0.00149329
0.00147342
0.00153344
0.0015133
0.00157411
0.00155371
0.00161531
0.00159464
0.00165704
0.00163611
0.00169928
0.0016781
0.00174199
0.00172059
0.0017851
0.00176351
0.00182851
0.00180678
0.00187207
0.00185029
0.00191559
0.00189386
0.00195879
0.00193725
0.00200136
0.00198019
0.00204291
0.0020223
0.00208295
0.00206316
0.00212097
0.00210226
0.00215637
0.00213905
0.00218833
0.00217285
0.00221605
0.00220293
0.00223875
0.00222784
0.00226085
0.00225104
0.0022872
0.00227302
0.00226326
0.00225661
0.00226574
0.00223267
0.00223365
0.00102182
0.00102371
0.00227518
0.00225092
0.00225234
0.00227024
0.00226854
0.0022819
0.00229218
0.00229926
0.00230275
0.00226946
0.0022529
0.00225603
0.00225625
0.00225709
0.00227692
0.00227339
0.00228772
0.0022878
0.00229413
0.00228948
0.00231252
0.00230844
0.00230107
0.00228999
0.0022339
0.00223692
0.00224758
0.00221285
0.00221826
0.00218659
0.00220227
0.00215735
0.00217245
0.00212439
0.00214133
0.00208857
0.00210681
0.00205022
0.00206968
0.00201013
0.00203035
0.00196886
0.00198963
0.00192672
0.00194788
0.00188406
0.00190544
0.00184117
0.00186263
0.00179829
0.00181972
0.00175559
0.00177691
0.00171319
0.00173435
0.00167119
0.00169214
0.00162965
0.00165036
0.00158858
0.00160905
0.00154802
0.00156824
0.00150795
0.00152792
0.00146838
0.0014881
0.00142928
0.00144877
0.00139063
0.0014099
0.00135241
0.00137147
0.00131459
0.00133346
0.00127715
0.00129583
0.00124006
0.00125856
0.00120328
0.00122163
0.0011668
0.001185
0.00113058
0.00114866
0.0010946
0.00111256
0.00105826
0.00107641
0.00102154
0.00104011
0.00100354
0.00100309
0.00100325
0.00100405
0.00100374
0.00100475
0.00100437
0.00100546
0.00100513
0.00100594
0.00100573
0.00100623
0.00100611
0.00100631
0.0010063
0.00100619
0.00100628
0.00100587
0.00100605
0.00100541
0.00100564
0.00100517
0.00100525
0.00100539
0.0010052
0.0010421
0.00100565
0.00102393
0.00107855
0.00106041
0.00111478
0.00109668
0.00115093
0.00113282
0.00118735
0.00116911
0.00122405
0.00120566
0.00126105
0.00124251
0.0012984
0.00127968
0.0013361
0.00131721
0.0013742
0.00135511
0.00141272
0.00139341
0.00145168
0.00143214
0.00149111
0.00147134
0.00153102
0.00151101
0.00157144
0.00155117
0.00161236
0.00159184
0.00165378
0.00163301
0.00169567
0.00167467
0.00173799
0.00171679
0.00178067
0.0017593
0.00182359
0.00180211
0.0018666
0.0018451
0.00190951
0.00188809
0.00195205
0.00193086
0.0019939
0.0019731
0.00203466
0.00201445
0.00207385
0.00205449
0.00211097
0.00209272
0.00214541
0.00212858
0.00217646
0.00216142
0.00220341
0.00219054
0.00222569
0.00221511
0.00224305
0.00223553
0.00224664
0.00227481
0.00228539
0.00227891
0.00226501
0.00225292
0.00225402
0.00229004
0.00227028
0.00227175
0.00102147
0.00100331
0.000987119
0.000987211
0.00228864
0.00228678
0.00229881
0.00230761
0.00231295
0.00231468
0.00225773
0.00224102
0.0022416
0.00226033
0.00227706
0.00229147
0.00230186
0.002301
0.00230494
0.00232126
0.00231418
0.00230292
0.00229131
0.00225749
0.0022708
0.00225428
0.00223741
0.00223676
0.00221915
0.00223152
0.00219737
0.00220799
0.00217388
0.00218668
0.00214557
0.00216021
0.00211347
0.00212995
0.00207847
0.00209631
0.00204104
0.00206003
0.00200179
0.00202161
0.00196127
0.00198167
0.00191983
0.00194065
0.00187781
0.00189888
0.00183552
0.00185669
0.00179317
0.00181435
0.00175096
0.00177204
0.001709
0.00172994
0.00166738
0.00168814
0.00162618
0.00164673
0.00158543
0.00160575
0.00154515
0.00156524
0.00150534
0.00152519
0.001466
0.00148562
0.00142711
0.0014465
0.00138865
0.00140783
0.00135061
0.00136958
0.00131295
0.00133174
0.00127566
0.00129426
0.0012387
0.00125714
0.00120204
0.00122033
0.00116567
0.00118383
0.00112957
0.00114759
0.0010937
0.00111161
0.00105772
0.00107572
0.00103958
0.000985415
0.000984917
0.000985142
0.000986208
0.000985837
0.000987009
0.000986608
0.000987672
0.000987367
0.000988138
0.000987928
0.000988413
0.000988299
0.000988499
0.00098848
0.000988394
0.00098847
0.000988102
0.000988272
0.00098764
0.000987885
0.000987163
0.000987412
0.000987022
0.00104193
0.00100566
0.00102399
0.00107799
0.00105999
0.00111394
0.00109599
0.00115
0.00113194
0.00118631
0.00116812
0.00122289
0.00120456
0.00125977
0.00124129
0.00129697
0.00127833
0.00133452
0.0013157
0.00137246
0.00135344
0.00141079
0.00139157
0.00144955
0.00143012
0.00148876
0.0014691
0.00152844
0.00150855
0.00156859
0.00154846
0.00160921
0.00158885
0.0016503
0.00162971
0.00169183
0.00167102
0.00173374
0.00171275
0.00177596
0.00175483
0.00181838
0.00179716
0.00186084
0.00183962
0.00190313
0.00188202
0.00194499
0.00192414
0.0019861
0.00196567
0.00202607
0.00200627
0.00206443
0.00204549
0.00210066
0.00208285
0.00213417
0.00211781
0.00216431
0.00214972
0.00219042
0.00217794
0.00221202
0.00220178
0.00222808
0.00222096
0.0022382
0.00223371
0.0022467
0.00224031
0.00225652
0.0022408
0.0022402
0.00229175
0.00230142
0.00227237
0.00227355
0.000985103
0.000987395
0.00230312
0.00228875
0.00229021
0.00230584
0.00230399
0.0023146
0.00232173
0.00232526
0.00232505
0.00224321
0.00222631
0.00222072
0.00222574
0.00221744
0.00223402
0.00224094
0.00226289
0.00227817
0.00229561
0.00230605
0.00231481
0.00231558
0.00232782
0.00231791
0.00230405
0.00228837
0.00226873
0.0022495
0.00227382
0.00223083
0.00223126
0.00222036
0.00221641
0.00220246
0.0022154
0.00218394
0.00219347
0.00216104
0.00217319
0.00213348
0.00214775
0.00210228
0.0021183
0.00206815
0.00208555
0.00203159
0.00205014
0.00199317
0.00201258
0.0019534
0.00197343
0.00191266
0.00193313
0.0018713
0.00189205
0.00182961
0.00185049
0.00178781
0.00180871
0.00174609
0.00176693
0.00170457
0.0017253
0.00166336
0.00168393
0.00162253
0.0016429
0.00158211
0.00160227
0.00154212
0.00156206
0.00150258
0.0015223
0.00146348
0.00148298
0.00142481
0.00144409
0.00138656
0.00140564
0.0013487
0.00136758
0.00131121
0.00132991
0.00127407
0.0012926
0.00123725
0.00125562
0.00120073
0.00121896
0.00116448
0.00118258
0.00112849
0.00114646
0.00109272
0.00111058
0.00105705
0.00107491
0.00102123
0.00103909
0.00098499
0.00100323
0.000967021
0.000966677
0.000966804
0.000967677
0.000967273
0.000968515
0.000968087
0.00096931
0.00096893
0.000969932
0.000969644
0.000970377
0.000970177
0.000970644
0.000970533
0.000970731
0.00097071
0.000970642
0.000970708
0.000970377
0.000970531
0.000969932
0.000970178
0.000969367
0.00096965
0.00096906
0.000969163
0.000969345
0.000969111
0.00100557
0.000969453
0.000987577
0.00104155
0.00102365
0.00107731
0.0010594
0.00111305
0.00109516
0.001149
0.001131
0.00118519
0.00116706
0.00122164
0.00120338
0.00125839
0.00123998
0.00129544
0.00127687
0.00133284
0.0013141
0.00137059
0.00135167
0.00140874
0.00138962
0.00144729
0.00142796
0.00148627
0.00146673
0.00152569
0.00150593
0.00156556
0.00154557
0.00160587
0.00158567
0.00164662
0.0016262
0.00168777
0.00166715
0.00172926
0.00170848
0.00177101
0.00175011
0.00181291
0.00179196
0.00185479
0.00183387
0.00189646
0.00187568
0.00193764
0.00191714
0.00197802
0.00195796
0.0020172
0.00199779
0.00205473
0.00203621
0.0020901
0.00207273
0.00212273
0.00210681
0.00215201
0.00213784
0.0021773
0.00216521
0.00219809
0.00218829
0.00221359
0.00220662
0.0022231
0.00221918
0.00222692
0.00222582
0.00222386
0.00230759
0.00231606
0.0022308
0.00221752
0.00229093
0.00229213
0.00231661
0.00230612
0.00230763
0.000984772
0.0009668
0.000951266
0.000951436
0.00232186
0.00232006
0.00232909
0.00233448
0.00233607
0.00233388
0.0022205
0.00220584
0.00219334
0.00220805
0.00224246
0.00225933
0.00228186
0.00229231
0.00231039
0.00231996
0.00232581
0.0023324
0.00231985
0.00230414
0.00228307
0.00226489
0.00224231
0.00220496
0.00221822
0.00229244
0.00221229
0.00219876
0.00221401
0.00221731
0.00220269
0.00220308
0.00218825
0.00219807
0.00217047
0.00217971
0.00214805
0.00215989
0.00212127
0.00213515
0.00209094
0.00210652
0.00205764
0.00207463
0.00202191
0.00204005
0.0019843
0.00200332
0.00194528
0.00196495
0.00190525
0.00192538
0.00186455
0.00188497
0.00182346
0.00184404
0.00178222
0.00180285
0.001741
0.0017616
0.00169994
0.00172044
0.00165915
0.00167951
0.00161869
0.00163887
0.0015786
0.0015986
0.00153893
0.00155872
0.00149967
0.00151925
0.00146082
0.00148019
0.00142239
0.00144156
0.00138435
0.00140332
0.00134668
0.00136547
0.00130937
0.00132798
0.00127239
0.00129084
0.00123572
0.00125402
0.00119934
0.0012175
0.00116323
0.00118125
0.00112735
0.00114526
0.00109169
0.00110949
0.00105623
0.00107394
0.00102066
0.0010384
0.00100277
0.000949146
0.000948647
0.000948869
0.000950021
0.000949592
0.000950897
0.000950467
0.000951647
0.000951292
0.000952236
0.000951962
0.00095266
0.000952468
0.000952917
0.00095281
0.000953008
0.000952983
0.000952931
0.00095299
0.000952691
0.000952831
0.000952288
0.00095251
0.000951737
0.000952024
0.000951226
0.000951485
0.000951153
0.00100542
0.000969736
0.000987559
0.00104101
0.00102318
0.00107647
0.00105873
0.0011121
0.00109426
0.00114794
0.00112999
0.001184
0.00116594
0.00122032
0.00120213
0.00125692
0.00123859
0.00129382
0.00127533
0.00133104
0.00131239
0.00136862
0.00134979
0.00140656
0.00138754
0.00144489
0.00142568
0.00148363
0.00146421
0.00152278
0.00150316
0.00156236
0.00154252
0.00160235
0.00158231
0.00164275
0.00162251
0.0016835
0.00166308
0.00172455
0.001704
0.00176583
0.00174518
0.0018072
0.00178652
0.00184851
0.00182788
0.00188954
0.00186908
0.00193004
0.00190989
0.00196969
0.00195
0.00200809
0.00198908
0.00204482
0.00202671
0.00207936
0.00206241
0.00211116
0.00209565
0.00213963
0.00212586
0.00216418
0.00215245
0.00218424
0.00217481
0.00219917
0.00219242
0.00220842
0.00220454
0.00221146
0.0022109
0.00220776
0.00221029
0.00220221
0.00220176
0.00219119
0.00217978
0.00219105
0.00232215
0.00232895
0.00230845
0.00230968
0.00094877
0.000951455
0.00232845
0.00232232
0.00232391
0.00233661
0.00233485
0.0023422
0.00234571
0.0023453
0.00234085
0.00218106
0.00217436
0.00216683
0.00218827
0.00220817
0.00223089
0.00226062
0.00227591
0.00229734
0.00231004
0.00232345
0.00233204
0.00233497
0.00232002
0.00230139
0.00228094
0.00225711
0.00223085
0.00220387
0.0021676
0.00217407
0.00215928
0.00231003
0.00219456
0.00217343
0.0021942
0.00218937
0.00219609
0.00219765
0.00218634
0.00219116
0.00217445
0.00218156
0.00215697
0.00216621
0.00213508
0.0021466
0.00210905
0.00212254
0.00207949
0.00209468
0.00204699
0.00206358
0.00201207
0.0020298
0.00197523
0.00199386
0.00193696
0.00195626
0.00189763
0.00191741
0.00185758
0.00187768
0.0018171
0.00183738
0.00177641
0.00179677
0.0017357
0.00175605
0.00169511
0.00171539
0.00165474
0.0016749
0.00161467
0.00163467
0.00157494
0.00159476
0.00153558
0.00155522
0.00149661
0.00151605
0.00145803
0.00147728
0.00141984
0.00143889
0.00138202
0.00140089
0.00134456
0.00136325
0.00130743
0.00132596
0.00127063
0.00128899
0.00123412
0.00125234
0.00119788
0.00121597
0.0011619
0.00117986
0.00112615
0.001144
0.00109061
0.00110836
0.00105526
0.00107291
0.00101994
0.00103757
0.000984548
0.00100229
0.000948617
0.000966664
0.000930897
0.000930528
0.000930665
0.000931571
0.000931164
0.000932459
0.000931999
0.000933316
0.000932906
0.000934021
0.000933687
0.000934579
0.000934319
0.000934983
0.0009348
0.000935232
0.000935127
0.000935324
0.000935298
0.000935261
0.000935312
0.000935045
0.000935172
0.000934678
0.00093488
0.000934155
0.000934437
0.000933604
0.000933857