/*--------------------------------*- C++ -*----------------------------------*\
  =========                 |
  \\      /  F ield         | OpenFOAM: The Open Source CFD Toolbox
   \\    /   O peration     | Website:  https://openfoam.org
    \\  /    A nd           | Version:  10
     \\/     M anipulation  |
\*---------------------------------------------------------------------------*/
FoamFile
{
    format      ascii;
    class       surfaceScalarField;
    location    "30";
    object      phi;
}
// * * * * * * * * * * * * * * * * * * * * * * * * * * * * * * * * * * * * * //

dimensions      [0 3 -1 0 0 0 0];

internalField   nonuniform List<scalar> 
66213
(
0.00934016
-0.0114888
-0.00610765
0.00825632
0.0299789
-0.0049146
-0.0157241
0.0087907
-0.0141006
0.0352888
-0.0159092
0.0246999
0.0234801
-0.0159434
-0.018949
0.0114122
0.0229861
-0.0220397
0.0225337
0.0413394
-0.0324539
-0.0443294
0.0331702
-0.0338232
-0.00167006
-0.0126572
-0.0181267
-0.00920555
-0.0145042
0.000312463
-0.000221931
-0.00133199
0.00124146
-0.00021916
0.000531623
-0.000441091
-0.00272931
0.00139682
0.0123655
-0.0110331
0.00178647
-0.00451578
0.0031833
0.0910418
0.10449
-0.101213
-0.0943196
0.0577183
0.0669022
-0.0335788
-0.0603753
0.0244902
0.0936034
-0.020803
0.064918
0.0321595
0.0398567
-0.0460218
-0.0259944
0.00122699
-0.000677523
0.03161
-0.0111212
0.0101308
0.00221744
0.01736
0.0113754
0.0535506
0.0176401
-0.00994149
-0.0612492
-0.00608258
0.0522328
0.00740039
-0.0746202
0.0065691
0.0619685
-0.0216997
0.02914
0.0238322
-0.0312725
-0.0618348
0.00674549
0.0333896
-0.0246832
-0.0695234
0.0323718
0.0301576
-0.0308127
0.0635091
-0.0881922
-0.000319488
-0.00524625
0.0013292
0.00423653
-0.00397514
0.00365565
-0.00207389
-0.00190125
-0.00103049
-0.00628965
0.0438275
-0.0085069
0.00544436
-0.0407649
0.0330363
-0.0111144
0.0219055
0.0234239
-0.0263319
0.0427492
-0.0398412
0.0110973
0.0416738
-0.0293472
5.10367e-05
0.0218813
-0.0305078
0.00857544
0.0299343
0.00279798
-0.0326813
-0.00197158
-0.000231343
0.00117244
0.00191056
-0.00027028
-0.00354208
0.00190179
0.00295711
-0.00155407
0.000507525
-0.0105451
0.0120096
-0.000217749
-0.00124673
0.00199084
-0.00240515
-0.0107671
0.02498
-0.0206951
0.00648225
-0.0179841
-0.00535541
0.0125724
-0.0374936
0.060811
0.0124495
-0.0357669
-0.0287259
-0.0782911
-0.0643934
-0.00274775
0.0382898
0.0288513
0.0780189
-0.135843
-0.0208321
-0.00482569
0.0256578
-0.00882871
-0.0120034
-0.0248091
0.0354469
-0.0194665
0.00403538
-0.00864659
-0.0201979
-0.00156232
-0.00667222
0.00823454
-0.00746304
-0.00885062
0.0147513
-0.00796804
0.00553165
-0.00877625
0.0206046
0.00288719
-0.00396058
0.00660504
-0.00245509
0.00318325
0.00215903
0.00580923
-0.00353418
-0.00227505
0.0101249
-0.00431567
0.0414678
-0.0526284
-0.0196296
0.0307902
0.0749737
-0.0189127
-0.076864
0.0657089
0.0270717
-0.0178068
0.017876
-0.0120353
-0.0327379
0.0268972
-0.0264467
0.0189695
0.0253532
-0.0164883
0.0267531
-0.0367115
-0.000140988
0.0268272
-0.0178586
-0.00882764
0.0239846
0.0397624
-0.0900789
-0.0264378
0.000126429
0.0198312
0.00648018
-0.0225866
0.00885671
-0.0127079
0.0354464
-0.000164076
-0.00902421
-0.0262581
0.0425944
-0.00268817
-0.00445982
0.0685169
0.0290564
-0.0135198
-0.0840536
0.0774238
0.0140339
-0.0229408
-0.0440743
0.0332303
-0.00369904
0.014543
0.0117531
-0.0251537
-0.0306737
-0.0254836
0.0327429
0.025971
-0.0501036
0.0280007
0.0460874
-0.0205352
0.0458668
-0.0754351
-0.00153816
0.0217055
-0.0407025
-0.00326736
-0.00983188
0.0133
-0.000200772
-0.00347738
2.96676e-05
0.000180345
0.000195763
-0.000716031
0.00168691
0.000797942
-0.000306848
-0.00217801
0.0230189
0.00320292
-0.00717233
-0.0190495
0.00264702
0.0135606
0.00681121
-0.0189133
-0.00289674
0.0244571
-0.0168032
0.00109279
-0.0188938
-0.00508174
-0.0107238
0.0352409
0.0362939
0.0297591
-0.000917484
-0.0395654
0.0178328
-0.0323702
0.0395174
-0.0264519
0.00104619
0.0432385
-0.0390922
-0.00626267
-0.00506901
0.0504239
0.0413153
-0.0154895
0.0595429
-0.0359542
-0.0176892
0.0123303
0.041313
0.00393174
-0.0133235
-0.0265624
0.0491692
-0.0629266
-0.0100091
-0.00192982
0.0148999
-0.00296101
-0.0012446
-0.00559069
-0.00317377
-0.000414973
0.000273281
-0.00110291
-0.00101559
-0.0590259
-0.0450045
0.0311005
0.07293
-0.0210773
0.0306192
-0.0685679
0.0307348
-0.00477408
-0.047038
-0.015554
0.0012843
0.00512156
0.0123509
-0.00672559
-0.0107469
0.003013
0.00210857
0.000323294
0.0150406
0.00234792
0.0078018
0.00122572
0.000871094
0.00369426
0.0342652
-9.01396e-05
-0.0474985
0.00348955
0.043106
-3.66445e-05
-0.00375061
-0.00508364
0.0088709
-0.00130345
0.00146517
-0.000198363
-0.00433792
-0.000716146
0.00549532
0.0110353
-0.0109787
-0.00555193
-0.00164042
-0.0135594
0.0276424
0.0415122
-0.0108909
0.0478976
-0.0495589
-0.00246581
0.00412709
0.0512528
0.00342229
-0.00677745
-0.0154199
-0.00131987
0.0121756
0.00456418
0.00354195
-0.00743834
-0.0115235
0.00570942
-0.00860616
0.00511189
0.000597527
0.0178726
0.0232726
-0.00477167
-0.0363735
0.0172829
0.0524518
-0.0518621
-0.0259489
0.0193064
0.0239254
-0.00623599
0.00355961
-0.0140438
-0.00304675
0.00153658
-0.019556
0.000738095
0.0460964
-0.0434911
0.00384671
-0.00645192
0.00830196
-0.00924363
-0.0175471
-0.0342025
0.0082585
-0.048601
-0.00317526
0.0494092
0.00236704
-0.0319709
-0.0224092
0.00577906
0.00269932
-0.0554335
0.0383606
0.00600808
-0.0267272
-0.0176414
-0.0144658
0.0485973
0.00422912
0.0389749
-0.00479086
-0.0486499
0.0277598
0.0184165
-0.00720133
0.0224066
-0.0151226
-0.0256896
0.0184056
0.0151033
-0.0180352
0.0253385
0.0288335
0.0200942
-0.0141079
-0.0348198
-0.0106852
0.0243962
0.0392631
0.00687433
-0.0255525
-0.020585
-0.00329565
0.0024307
0.0401281
0.0377975
0.000750377
-0.0418436
0.0253175
-0.00742253
0.0199026
0.0222042
-0.0173164
-0.0274744
-0.0268414
0.00570473
0.0212631
-0.03002
0.00168026
0.00343163
-0.0197299
0.0149582
-0.0245485
0.00481858
-0.00110933
0.0440258
-0.00140425
-0.00777791
-0.00182834
0.00919057
0.000415674
-0.002688
0.000362871
-0.00545278
-0.00630856
-0.00291425
0.0065348
0.00552045
-0.0116693
-0.003683
-0.00287599
-0.0239101
0.0225751
0.00421101
-0.0262298
-0.00208054
0.0254344
0.00592634
-0.0156837
0.0410396
-0.0312822
0.0388817
0.00385271
-0.0368081
0.000386255
0.0337327
0.000329606
-0.0344486
0.0333183
0.000984471
-0.0339165
0.0140401
0.0366745
-0.0534623
0.0114394
0.0396474
-0.0370467
0.00199995
0.00250374
-0.00333415
-0.00116954
0.000197747
0.00225131
-0.0004491
-0.046825
-0.00562165
0.045902
0.00654465
-0.00512136
-0.0450613
0.00335773
-0.00132386
0.0334939
-0.0333668
0.00119678
0.0329595
-0.000151715
-0.0341316
-0.011248
-0.0295528
0.0393197
0.00148108
0.0240847
-0.00554118
-0.0297915
0.0405873
-0.0143489
-0.0418889
0.0156505
0.039894
-0.0146753
0.0153686
-9.15306e-05
-0.00300551
0.00329479
0.00055235
0.00435612
-0.005
-0.00430943
0.00484587
-0.00309206
0.0087815
0.0141418
-0.0331868
-0.00705678
0.0365278
0.00371574
-0.00525476
-0.030733
0.00280097
-0.00860448
0.00590277
0.00504293
-0.00234122
0.00722967
-0.0091621
-0.00667205
0.0351251
-0.0330228
0.0284841
-0.0305864
0.0553671
0.0235247
-0.0437666
0.0228306
-0.0221492
0.0546857
0.0365772
-0.044156
0.0457667
-0.0381879
0.0689459
0.0331436
-0.0655123
0.0233937
0.0672582
-0.021706
-0.0351814
0.00826877
0.0386657
-0.0325202
-0.00971799
-0.0369681
0.00663839
0.038633
-0.00830326
-0.00762475
0.00713672
-0.0364801
0.00218759
0.0022783
-0.00650327
0.00203739
0.00390204
-0.00279433
0.00107988
0.0879145
-0.0627287
0.00766863
-0.0328544
0.0314877
0.0786796
-0.0222529
0.0371631
0.00475719
-0.013353
-0.0285673
0.0409778
-0.000486725
-0.0246622
-0.022344
0.00290832
-0.000635189
-0.0207765
-0.000932368
-0.0182286
-0.00706873
0.0011115
-0.0010797
0.00144258
-0.000250567
-0.000829137
-0.0311722
0.00337614
0.0293072
-0.00151117
0.0025224
-0.00208146
-0.0316131
0.0310786
0.00262416
-0.0311804
0.0297444
0.00471036
0.0350276
0.0135732
-0.0451112
-0.0209757
0.0559378
6.54457e-05
0.0239619
-0.0313644
-0.0243324
-0.00437909
0.0237585
0.00495292
0.0206881
-0.0416592
-0.00336125
-0.00600164
0.0223106
-0.000243242
0.000365044
-0.00167587
0.000192438
-0.00043568
0.000557482
0.00198614
-0.00503289
0.00352272
0.0212697
-0.00565929
-0.0312941
-0.000600054
0.0337395
-0.0331144
-2.50953e-05
0.0344477
-0.000916377
-0.0341314
0.0546776
-0.0106115
-0.0437428
0.0047137
0.0326142
-0.00452343
-0.0328044
0.0381193
-0.031562
-0.0152494
0.00869214
0.0359303
0.0213483
-0.0191593
0.0425669
0.0156218
-0.0222585
0.0418886
0.0192264
-0.018548
0.0449833
0.0144859
-0.0175807
0.0444579
0.0169358
-0.0164103
0.0437012
0.0153765
-0.0146198
0.0432005
0.0131193
-0.0126186
0.0425758
0.0106959
-0.0100713
0.0421766
0.00774937
-0.00735023
0.0417832
0.00469073
-0.00429728
0.0415631
0.001383
-0.00116288
0.0414596
-0.00191382
0.00201733
0.0414331
-0.00513822
0.00516474
0.0416645
-0.00828766
0.0080562
0.0418641
-0.0110232
0.0108236
0.042403
-0.0136198
0.0130809
0.042777
-0.0155515
0.0151776
0.0435151
-0.0173545
0.0166163
0.0439556
-0.0183848
0.0179442
0.0447504
-0.0193922
0.0185974
0.0451489
-0.0196615
0.019263
0.0458867
-0.0200689
0.019331
0.0461782
-0.0198469
0.0195555
0.0468037
-0.0199153
0.0192898
0.0469746
-0.0194623
0.0192914
0.0437575
-0.0194087
0.0226259
0.0438635
-0.0189011
0.0187951
0.0382951
-0.0160527
0.0216211
0.0370343
-0.0165929
0.0178537
0.0369615
-0.0170849
0.0171576
0.0371525
-0.0173802
0.0171893
-0.0279819
0.0360458
0.0227108
-0.0307747
0.0207217
-0.0139201
-0.0288842
0.0220826
-0.0284932
0.0212331
-0.0297902
-0.0156919
-0.0397456
0.0301535
0.0133451
-0.00375301
-0.0175567
0.0149637
0.0373812
-0.0378277
-0.0166384
-0.0366741
0.037728
-0.0186107
-0.0166731
0.0354494
-0.0334878
-0.0180143
-0.0189711
0.0335288
-0.0334144
-0.0195231
-0.0188601
0.0332589
-0.0330611
-0.0201132
-0.0196178
0.0328201
-0.0325329
-0.0203561
-0.020088
0.0322093
-0.0318528
-0.0197487
-0.019985
0.0314838
-0.0311138
-0.0177245
-0.0187537
0.0307694
-0.0304641
-0.0139251
-0.0158959
0.030219
-0.0300404
-0.00846623
-0.0112683
0.0299355
-0.0298999
-0.00194939
-0.00524318
0.0299436
-0.0300373
0.00478448
0.00142669
0.03018
-0.03037
0.0108859
0.007892
0.0305983
-0.0308631
0.0156413
0.0133476
0.0311628
-0.0350239
0.0183471
0.0172354
0.0341204
-0.0369715
0.0184729
0.0183228
0.0204226
0.0181434
-0.0168813
-0.0301463
-0.0307406
0.0203908
0.0307073
-0.021899
0.0289197
-0.0298203
-0.0168512
0.015948
-0.0215306
0.0307493
-0.0251667
0.0144489
0.0316526
0.017807
-0.0177095
-0.0302438
-0.0296568
0.0167231
-0.0213958
0.0305725
0.0335357
-0.0354273
0.0152366
-0.0297911
-0.0177387
0.031812
0.0161726
-0.0176574
0.0193099
-0.0313093
0.0184624
-0.0180474
-0.0302061
-0.0294388
-0.0303356
0.0314267
-0.016783
0.0296897
-0.0294728
-0.0179556
-0.0174971
-0.0333341
0.0325943
-0.0184195
-0.0171568
-0.0296546
0.0297171
-0.0186105
-0.0193187
-0.0292638
0.0288517
-0.0159983
-0.0171273
-0.0284719
0.0281374
-0.0122841
-0.01424
-0.0278677
0.0276738
-0.00715625
-0.00980164
-0.027566
0.0275517
-0.00114858
-0.00418951
-0.0276386
0.0278232
0.00498008
0.00193044
-0.0280987
0.0284606
0.0104617
0.00778079
-0.0288885
0.0293701
0.0146959
0.012653
-0.0298761
0.0303928
0.0174275
0.0161104
-0.0308924
0.0313679
0.0187874
0.0180978
-0.0318007
0.0321931
0.0191631
0.0188983
-0.0325354
0.0328373
0.0189895
0.0189475
-0.036141
0.0364945
0.0184416
0.0193222
-0.0384705
0.038033
0.0182912
0.0196452
-0.0370367
0.0371446
0.0170814
0.0181539
0.016681
0.0177272
-0.0187299
0.031752
-0.0172163
0.0323198
0.0167085
0.0321635
0.0355324
-0.0365033
-0.0176398
-0.0328047
-0.0198591
0.031268
-0.0191713
0.0348957
-0.0336885
-0.0178456
-0.0182807
0.0347888
-0.0339136
-0.0188895
-0.0178708
0.0337729
-0.0337246
-0.0195714
-0.0190009
0.0336409
-0.0335161
-0.0202379
-0.0197016
0.033351
-0.033142
-0.0205652
-0.020253
0.0328968
-0.0326185
-0.0200271
-0.0202301
0.0323249
-0.0320269
-0.0180226
-0.0190473
0.0317483
-0.0315017
-0.0141718
-0.0161745
0.0313058
-0.0311665
-0.00860556
-0.0114642
0.0310892
-0.0310714
-0.0019672
-0.00532043
0.0311086
-0.0311916
0.00486745
0.00146387
0.0313107
-0.0314615
0.0110368
0.00801111
0.0316358
-0.0318301
0.0158356
0.0135219
0.032032
-0.0325584
0.0188736
0.0174373
0.0337915
-0.0354927
0.020174
0.0195559
0.0352021
-0.032472
0.0199807
0.020132
0.0317406
-0.0312946
0.0199448
0.0205018
0.0338341
-0.0337871
0.0192629
0.0192626
-0.0194684
0.031311
-0.0296024
-0.0179178
0.0181496
-0.0176755
-0.0317834
-0.0350946
0.0194571
0.016309
-0.0168863
0.0328972
0.032957
-0.0325706
0.0163221
0.0329604
0.0163055
-0.0179782
0.0172768
-0.0295047
0.0317915
-0.033047
-0.0186036
-0.0194958
0.0312954
0.031048
-0.0187522
-0.0172618
-0.0303188
-0.0298374
-0.0305683
0.0297429
-0.0171303
0.0306659
-0.0303255
-0.0176023
-0.0178201
-0.0304443
0.0311379
-0.0174767
-0.0181984
-0.0317094
0.0313914
-0.0181015
-0.0177282
-0.0302999
0.0292054
-0.017516
-0.0182273
-0.0286897
0.028214
-0.0155226
-0.0166116
-0.0277909
0.0274242
-0.0119174
-0.0138169
-0.0271323
0.0269259
-0.00694982
-0.00950981
-0.0268194
0.0268153
-0.00114451
-0.00408296
-0.0269182
0.0271274
0.00477079
0.00182758
-0.0274339
0.0278314
0.0100642
0.00747431
-0.0282979
0.0288207
0.0141731
0.0121865
-0.0293694
0.0299309
0.016866
0.0155617
-0.0304765
0.0309999
0.0182641
0.0175523
-0.0314814
0.0319233
0.0187211
0.0184168
-0.0323164
0.0326653
0.0186406
0.0185544
-0.0336511
0.0337378
0.0183548
0.0183364
-0.0353566
0.0355751
0.0180727
0.0180264
-0.0359327
0.0350725
0.0179416
0.0177962
-0.0345301
0.033086
0.0166807
0.0172234
0.016688
0.017484
-0.0182029
0.0324709
0.0327612
0.0188657
-0.0191971
0.0316268
0.0319738
0.034463
-0.0342358
-0.0178669
-0.0177553
0.0347144
-0.0342505
-0.0183095
-0.0178021
0.0339165
-0.0339921
-0.0188139
-0.0182048
0.0340417
-0.0340632
-0.0195498
-0.0189513
0.0340517
-0.0340038
-0.0202858
-0.0197131
0.033918
-0.0337919
-0.0206913
-0.0203388
0.0336305
-0.0334373
-0.0202204
-0.0203915
0.0332268
-0.0330096
-0.0182399
-0.0192577
0.0328058
-0.032627
-0.0143505
-0.0163782
0.0324882
-0.0323933
-0.00870048
-0.011603
0.032345
-0.0323399
-0.00197229
-0.00536866
0.0323718
-0.0324332
0.00492888
0.00149572
0.0325161
-0.0326165
0.0111372
0.008094
0.032727
-0.0328434
0.015952
0.0136324
0.0329575
-0.0330652
0.0189812
0.0175515
0.0331703
-0.0332696
0.0202733
0.0196611
0.0333878
-0.0337613
0.0203543
0.0202501
0.0333031
-0.0334199
0.0200616
0.0200435
0.0339836
-0.0343199
0.0195991
0.0198264
0.019058
-0.0199601
-0.0341925
0.0345251
-0.0346703
0.0192033
0.0196623
-0.0172779
0.0172054
-0.0302463
-0.0308289
-0.0167745
0.0175035
-0.0298028
-0.0183918
-0.0333517
-0.0191275
0.0309784
-0.0191808
-0.0347341
0.0192446
-0.0191044
-0.0342688
0.0169431
-0.017269
0.0332231
0.0160447
0.0338589
0.0332297
-0.0327946
0.0158869
-0.0181555
0.0180631
-0.0301539
-0.0176006
-0.0313837
0.0334398
0.0160955
-0.0307258
-0.0320086
0.0317102
-0.017304
0.0314861
-0.0317771
-0.0173097
-0.017297
-0.0313328
0.0315788
-0.0173762
-0.0174427
-0.0309829
0.0311585
-0.0176523
-0.0176026
-0.0309374
0.030377
-0.0175411
-0.0175071
-0.0293762
0.02877
-0.0169098
-0.0172265
-0.0282
0.0276787
-0.0150013
-0.0160416
-0.0272217
0.0268312
-0.0115268
-0.0133599
-0.0265248
0.0263115
-0.00673645
-0.00920343
-0.0262047
0.0262123
-0.00115211
-0.00397621
-0.0263313
0.0265637
0.00453841
0.00170854
-0.0268973
0.0273248
0.00963672
0.00714072
-0.0278225
0.0283781
0.0136175
0.0116889
-0.0289604
0.0295573
0.016269
0.0149794
-0.0301397
0.0307021
0.0177017
0.0169699
-0.031224
0.0317083
0.0182368
0.0178948
-0.0321453
0.0325408
0.0182451
0.0181174
-0.0328969
0.0332176
0.0180341
0.0179804
-0.0335053
0.0337676
0.0178104
0.0177387
-0.0340027
0.0342334
0.0177109
0.0175611
-0.0339085
0.0336328
0.0169564
0.0175483
0.0175262
0.0173885
-0.0181384
0.0332208
0.0328806
0.0184698
-0.0187997
0.0319567
0.0323052
0.0319325
-0.0328206
-0.0177156
-0.0313145
-0.0180959
0.0302829
-0.0181342
0.0332903
-0.0335269
-0.0176303
-0.0172856
0.0337338
-0.0339976
-0.0180457
-0.0175952
0.0340817
-0.0342222
-0.0186734
-0.0181207
0.0343389
-0.0344317
-0.0194569
-0.0188347
0.0344959
-0.0345291
-0.0202525
-0.019649
0.0345279
-0.0344908
-0.0207284
-0.0203401
0.0344194
-0.0343172
-0.0203226
-0.0204628
0.0341948
-0.034062
-0.0183726
-0.0193801
0.0339351
-0.0338247
-0.0144609
-0.0165051
0.0337421
-0.0336902
-0.0087524
-0.0116857
0.0336688
-0.0336732
-0.00196788
-0.00539004
0.0336966
-0.0337319
0.00496426
0.00151909
0.0337723
-0.0338141
0.011179
0.00813437
0.0338528
-0.0338858
0.0159851
0.013671
0.0339103
-0.0339275
0.0189984
0.0175759
0.0339395
-0.0339467
0.0202805
0.0196731
0.0339584
-0.0339651
0.020361
0.0202618
0.0339633
-0.0339178
0.0200161
0.0200417
0.0338448
-0.0341921
0.0199464
0.0197534
0.0343541
-0.0348015
0.0196507
0.0198243
0.0197177
-0.0198633
-0.0345885
0.0351493
-0.0348821
0.0194504
0.0195923
-0.0189904
0.0311691
-0.017478
0.0169945
-0.0309002
-0.0312326
-0.0180224
0.0179735
-0.0297133
-0.0194149
-0.0330412
0.0153597
0.0341248
0.0196472
-0.0199799
-0.0345494
-0.0343525
0.0339625
0.0198404
-0.0343008
0.0195955
0.0175792
-0.0307386
-0.0199802
-0.0341519
-0.02038
-0.0341884
-0.0187842
0.0184765
-0.0305925
0.0308229
-0.0314208
-0.017498
-0.0185977
0.0298901
0.0301527
-0.0179275
-0.019503
-0.0305138
-0.0321672
-0.0318524
0.0322
-0.0176573
0.031823
-0.0334138
-0.0179123
-0.0180518
-0.032336
0.0322279
-0.0171959
-0.0174329
-0.0322028
0.0321374
-0.0173108
-0.0174176
-0.0315878
0.0309952
-0.0170596
-0.017053
-0.030371
0.0297214
-0.0168915
-0.016883
-0.0290671
0.0284173
-0.0162601
-0.0165722
-0.0278073
0.0272498
-0.0144438
-0.0154316
-0.0267658
0.0263584
-0.0111195
-0.012876
-0.0260437
0.0258282
-0.00652098
-0.00888867
-0.0257257
0.0257417
-0.00116804
-0.00387371
-0.0258765
0.0261287
0.00428621
0.0015737
-0.0264847
0.0269362
0.00918521
0.00678469
-0.0274581
0.0280384
0.0130372
0.011167
-0.0286457
0.0292692
0.0156455
0.014372
-0.0298796
0.0304725
0.0171089
0.0163595
-0.031027
0.0315465
0.0177173
0.0173403
-0.0320204
0.0324561
0.0178093
0.0176435
-0.0328512
0.0332151
0.0176702
0.0175853
-0.0335463
0.033855
0.0175017
0.0174075
-0.0341393
0.0344107
0.0174395
0.0172768
-0.0346678
0.0340909
0.0175332
0.0172912
-0.0341894
0.0340514
0.016025
0.0174278
-0.0339959
0.0343384
0.0150172
0.016151
0.0162571
-0.0166957
0.0336617
-0.015482
0.0152899
0.0343169
0.0346339
0.0175837
-0.0177511
0.0333882
0.0337687
0.0177476
-0.017694
0.0319031
0.0323017
0.0173659
-0.017927
0.0304513
0.030841
0.0323019
-0.0329463
-0.0170712
-0.0172531
0.0332585
-0.0335471
-0.0173417
-0.0169733
0.0338075
-0.0340489
-0.0178044
-0.0173348
0.0342686
-0.0344727
-0.0184693
-0.017901
0.0346561
-0.0348214
-0.0192916
-0.0186513
0.0349623
-0.0350788
-0.020136
-0.0195081
0.035165
-0.0352203
-0.020673
-0.0202539
0.035243
-0.0352363
-0.0203293
-0.0204401
0.0352062
-0.0351616
-0.0184172
-0.0194103
0.0351141
-0.0350732
-0.0145018
-0.0165526
0.0350463
-0.035035
-0.00876369
-0.0117126
0.0350367
-0.0350459
-0.00195865
-0.00538835
0.0350554
-0.0350592
0.004968
0.00152862
0.0350519
-0.0350309
0.0111579
0.00812714
0.0349945
-0.0349423
0.0159328
0.0136347
0.0348759
-0.0347982
0.0189207
0.0175096
0.034714
-0.0346245
0.0201911
0.0195889
0.0345358
-0.0344415
0.0202667
0.0201731
0.0343451
-0.0342403
0.0199113
0.0199453
0.034119
-0.0338836
0.0197109
0.0196322
0.0337973
-0.0339073
0.0197607
0.019738
0.0196475
0.019926
-0.0202962
-0.0341792
-0.034172
0.0197973
0.0150772
0.0345511
-0.0171529
0.0183754
-0.0317363
-0.0323686
-0.018198
0.0187403
-0.0308744
-0.0196236
-0.0333978
0.0299258
-0.0177002
0.0188551
-0.0311171
-0.0207319
-0.0338
0.0186741
-0.0308913
-0.0207029
-0.0337817
-0.020093
-0.0337475
0.0196684
-0.0205521
-0.0337201
-0.019497
0.0187899
-0.0310292
0.03492
-0.0345787
0.0146759
0.0348315
0.0151657
-0.0205047
-0.0313609
-0.0330504
-0.0331722
0.0336489
-0.0183889
0.0330807
-0.0353189
-0.0182665
-0.0182895
-0.0332545
0.0330722
-0.0174751
-0.0176574
-0.0331114
0.0331769
-0.0172614
-0.0174721
-0.0326482
0.0320949
-0.0167575
-0.0168889
-0.0315128
0.030887
-0.0164338
-0.016471
-0.0302272
0.029536
-0.0162004
-0.0162231
-0.0288408
0.0281543
-0.0155735
-0.0158769
-0.0275106
0.0269239
-0.0138571
-0.0147878
-0.0264189
0.0259995
-0.0107001
-0.012371
-0.0256809
0.0254682
-0.00630821
-0.00857007
-0.0253728
0.0253979
-0.00119315
-0.00377833
-0.0255462
0.0258142
0.00401828
0.00142534
-0.0261874
0.0266568
0.00871578
0.00641148
-0.0271964
0.0277943
0.0124393
0.0106274
-0.0284193
0.0290616
0.0150032
0.013747
-0.0296923
0.030308
0.0164932
0.0157287
-0.0308878
0.0314357
0.0171694
0.0167605
-0.03194
0.0324096
0.0173397
0.0171392
-0.0328396
0.0332413
0.0172685
0.0171553
-0.0336119
0.0339629
0.0171506
0.017037
-0.0342925
0.0346119
0.0171201
0.0169473
-0.0349201
0.0352287
0.0172246
0.016983
-0.0355317
0.0350525
0.0165042
0.0171248
0.0166248
0.0159935
-0.0164192
0.0347426
-0.0147899
0.0347428
0.0148787
0.0357547
0.0161717
-0.0171241
0.0346141
0.0343864
0.0170686
-0.0169388
0.0332584
0.0337131
0.0170772
-0.0169525
0.0317783
0.0324401
0.017047
-0.0170502
0.0304545
0.0309355
-0.0166021
0.0294778
0.0307869
-0.0315915
-0.0166934
-0.0299571
0.029183
-0.0169261
-0.0170977
0.0325057
-0.0328966
-0.0166804
-0.0163389
0.0332549
-0.033592
-0.0170046
-0.016615
0.0339026
-0.0341981
-0.0175088
-0.0170242
0.0344744
-0.0347401
-0.0182036
-0.0176247
0.0349891
-0.0352264
-0.0190543
-0.0184022
0.0354444
-0.0356451
-0.0199354
-0.0192901
0.0358202
-0.0359701
-0.0205231
-0.0200789
0.0360891
-0.0361801
-0.0202383
-0.020321
0.0362438
-0.0362882
-0.0183729
-0.0193465
0.0363198
-0.036347
-0.0144746
-0.016521
0.0363734
-0.0363998
-0.00873724
-0.0116862
0.0364212
-0.0364315
-0.00194835
-0.00536693
0.0364234
-0.0363912
0.00493583
0.00152044
0.0363322
-0.0362448
0.0110705
0.00806816
0.0361312
-0.0359924
0.015794
0.0135211
0.0358343
-0.0356598
0.0187462
0.0173514
0.0354774
-0.0352898
0.0200035
0.0194065
0.0351041
-0.0349172
0.0200798
0.0199874
0.0347337
-0.0345454
0.0197231
0.0197617
0.0343491
-0.0341384
0.0195002
0.0194358
0.0337664
-0.0335643
0.0195585
0.0193661
0.0336051
-0.0335313
0.0197666
0.0196884
0.0336471
-0.0335287
0.0196789
0.0197113
0.0199407
-0.0335609
-0.0201273
0.0336124
-0.032859
0.0191873
0.0197521
-0.0166655
0.0183813
-0.0330768
-0.0346869
-0.0172975
0.0198414
-0.0318607
-0.0202682
-0.0338616
-0.0194785
-0.0321617
0.0187812
-0.0329009
-0.0201386
0.0195181
-0.031961
-0.0210825
-0.0334205
0.0197195
-0.0318208
-0.0212929
-0.0330408
0.014285
-0.0154414
0.0358992
0.0358461
-0.0351853
0.0142178
0.0363596
0.0137715
0.0191927
-0.0318407
-0.0208385
-0.0330088
-0.0170651
0.0175803
-0.0335919
-0.0165424
0.0291233
-0.0169379
-0.034814
-0.0334772
-0.0352674
0.0355079
-0.0185069
0.0355427
-0.0349411
-0.0175395
-0.0170223
-0.0346582
0.034446
-0.0181767
-0.0174399
-0.0344408
0.0343315
-0.0173657
-0.0176523
-0.033782
0.0332281
-0.0167075
-0.0169226
-0.0326677
0.0320842
-0.016174
-0.0163285
-0.031475
0.0308244
-0.0157831
-0.0158619
-0.0301392
0.0294197
-0.0154809
-0.0155379
-0.028694
0.0279772
-0.0148568
-0.0151512
-0.027306
0.0266962
-0.0132473
-0.0141167
-0.026175
0.0257474
-0.0102725
-0.0118497
-0.0254284
0.0252207
-0.00610048
-0.00825109
-0.0251333
0.0251707
-0.0012306
-0.00369091
-0.0253298
0.0256097
0.0037384
0.00126622
-0.025995
0.0264765
0.00823428
0.00602615
-0.0270277
0.0276369
0.0118301
0.0100763
-0.0282732
0.0289278
0.0143487
0.0131107
-0.0295723
0.0302043
0.0158612
0.0150842
-0.0308029
0.0313729
0.0165994
0.0161619
-0.0319019
0.0323996
0.0168421
0.0166102
-0.0328596
0.0332942
0.0168339
0.0166953
-0.0336996
0.0340884
0.0167618
0.0166316
-0.0344583
0.0348215
0.0167569
0.0165773
-0.0351767
0.0355348
0.0168665
0.0166277
-0.0358931
0.0357717
0.0166256
0.0167665
-0.03585
0.0353153
0.0152105
0.0165465
0.0152958
0.0151191
-0.0155598
0.0351834
0.0354324
0.0163679
-0.0163722
0.0346184
0.0351945
0.0163045
-0.0161643
0.0331182
0.0336454
0.015958
-0.0159697
0.03179
0.0322339
0.0160871
-0.0156197
0.0299871
0.0310529
0.0291892
-0.0300966
-0.0160186
0.0287244
-0.0160777
0.015888
-0.0157579
0.0289932
0.0297461
0.0312176
-0.0319949
-0.0159162
-0.0159767
0.032447
-0.0328786
-0.0162488
-0.0158868
0.0332788
-0.0336604
-0.016623
-0.0162149
0.0340176
-0.0343638
-0.0171626
-0.0166669
0.0346941
-0.0350189
-0.0178788
-0.0172944
0.0353315
-0.0356391
-0.0187467
-0.0180896
0.0359329
-0.0362169
-0.0196514
-0.0189963
0.0364805
-0.036725
-0.0202785
-0.0198152
0.0369408
-0.0371297
-0.0200494
-0.0201053
0.0372872
-0.0374196
-0.0182405
-0.0191889
0.0375282
-0.0376204
-0.0143824
-0.0164123
0.0376964
-0.0377564
-0.00867721
-0.0116102
0.0377937
-0.0378017
-0.00194036
-0.00532967
0.0377731
-0.0377028
0.00486551
0.00149183
0.03759
-0.0374347
0.0109151
0.00795543
0.0372428
-0.0370169
0.0155681
0.0133293
0.0367669
-0.0364966
0.0184759
0.0171014
0.036218
-0.0359349
0.0197204
0.0191279
0.0356576
-0.0353846
0.0198068
0.0197101
0.0351202
-0.0348553
0.0194582
0.0194973
0.0345882
-0.0343082
0.0192202
0.0191687
0.0340125
-0.033692
0.019238
0.0190703
0.0331825
-0.0327906
0.0193747
0.0191789
0.0323755
-0.0320812
0.0193846
0.0192962
0.0318467
-0.031381
0.0187217
0.0195176
0.0179529
-0.0186975
-0.0314171
0.0309071
-0.0307316
0.0177774
0.0183073
-0.0180551
0.0178622
-0.0346211
-0.0352878
-0.0177084
-0.03179
-0.0198083
0.0173815
-0.0181574
-0.0306412
-0.0298587
0.0165086
0.0203514
-0.0326941
-0.0210983
-0.0338457
0.0205372
-0.0327787
-0.0213874
-0.033326
0.0131502
-0.013768
0.0365171
0.0123738
0.037136
0.020066
-0.0326941
-0.0213994
-0.0324799
0.0194784
-0.0337388
-0.0211246
-0.0320228
0.0187724
-0.0345021
0.0279782
-0.0150117
0.0192058
-0.0357009
-0.0187927
0.0199105
-0.0353258
-0.03051
-0.0194375
0.0158948
-0.0173233
-0.0292127
0.0148689
-0.0288328
-0.0188816
0.0190293
-0.0358486
-0.0358814
0.0360229
-0.0189343
0.0363227
-0.0355439
0.013439
0.0370861
0.013008
-0.0371218
-0.0176412
-0.0342241
-0.0357753
0.0365703
-0.0183346
-0.0174608
-0.0367371
0.0362501
-0.0180199
-0.017189
-0.03627
0.0356476
-0.0175542
-0.0174599
-0.0350485
0.0344587
-0.0167759
-0.0170532
-0.0338784
0.0332948
-0.0161239
-0.0163423
-0.0327081
0.032102
-0.0155679
-0.0157418
-0.0314738
0.0308067
-0.015116
-0.0152337
-0.0301057
0.0293683
-0.0147435
-0.0148369
-0.028622
0.0278828
-0.0141175
-0.0144048
-0.02719
0.0265615
-0.0126189
-0.0134239
-0.0260273
0.0255938
-0.00983901
-0.0113154
-0.0252758
0.0250747
-0.00589928
-0.00793317
-0.0249972
0.0250444
-0.00127787
-0.00361341
-0.0252139
0.0255029
0.0034494
0.00109676
-0.0258961
0.0263845
0.00774585
0.00563293
-0.0269417
0.0275566
0.0112153
0.00951906
-0.0281987
0.0288599
0.0136874
0.0124686
-0.0295127
0.0301554
0.0152185
0.0144314
-0.0307675
0.0313542
0.0160128
0.0155498
-0.0319026
0.032423
0.0163216
0.0160618
-0.0329083
0.0333708
0.0163713
0.0162101
-0.0338065
0.0342284
0.0163399
0.0161959
-0.034634
0.0350362
0.0163547
0.0161718
-0.0354334
0.0358372
0.0164628
0.0162305
-0.0362444
0.0362935
0.0165765
0.0163593
-0.0364498
0.0361444
0.015516
0.0163901
0.0158963
0.0148292
-0.0153025
0.0356567
0.0364935
0.0153617
-0.015351
0.0346076
0.0352537
0.0152702
-0.0151215
0.0329694
0.0335646
0.0149127
-0.0146478
0.0315251
0.0320251
0.0143342
-0.0144261
0.030079
0.0307394
0.0140143
-0.0138588
0.0288378
0.0293342
-0.0280662
0.0284674
0.0144678
0.0134122
-0.0146214
-0.0276237
-0.0270717
0.0124177
-0.0140324
0.0281518
0.0294887
-0.0303983
-0.0151089
-0.0285289
0.027985
-0.0144678
-0.0151179
0.031427
-0.0319388
-0.0154044
-0.014948
0.0324234
-0.0328906
-0.0157816
-0.0154022
0.0333279
-0.0337495
-0.0162014
-0.0157775
0.0341494
-0.0345426
-0.0167695
-0.016267
0.0349234
-0.035304
-0.0174982
-0.0169136
0.0356771
-0.0360519
-0.0183719
-0.0177165
0.0364189
-0.0367838
-0.0192866
-0.0186293
0.0371338
-0.0374712
-0.0199412
-0.0194651
0.0377819
-0.038067
-0.0197644
-0.0197946
0.0383162
-0.0385336
-0.0180231
-0.0189397
0.0387156
-0.0388681
-0.0142299
-0.0162304
0.0389886
-0.0390772
-0.0085886
-0.0114898
0.0391261
-0.0391286
-0.00193782
-0.00528081
0.0390777
-0.0389685
0.00475629
0.00144091
0.038802
-0.0385796
0.0106928
0.00778894
0.0383109
-0.0379998
0.0152569
0.0130606
0.0376605
-0.0372981
0.0181135
0.0167622
0.0369283
-0.0365556
0.0193476
0.0187582
0.0361932
-0.03584
0.0194535
0.0193478
0.0355007
-0.0351655
0.019123
0.019158
0.0348325
-0.0344894
0.0188771
0.0188358
0.0341328
-0.033751
0.0188562
0.0187137
0.0333402
-0.0328882
0.0189227
0.0187682
0.0323915
-0.0318536
0.0188467
0.0187995
0.0308902
-0.0305049
0.0183363
0.0185542
0.0299319
-0.0292056
0.0170511
0.0177344
0.0157704
0.0214282
-0.0335851
-0.0214559
-0.0337772
0.0117013
0.0377585
0.0210555
-0.0337681
-0.0216312
-0.0330943
0.0204716
-0.0336873
-0.021441
-0.0321635
0.0203108
-0.0352773
-0.0207893
-0.0310418
0.0206218
-0.0352134
0.019843
-0.0361395
0.0186859
-0.0378159
-0.0179918
0.0196058
-0.0367686
-0.0292976
-0.0185358
-0.015977
-0.0278571
-0.0115896
0.0106321
-0.0261141
-0.012851
-0.0263623
-0.0136348
0.0275874
-0.0176966
0.0176828
-0.0378021
-0.0384836
0.0362255
-0.0157337
0.0279941
-0.0288384
-0.0136235
0.0274997
-0.0131404
-0.0391742
-0.0170059
-0.0342519
-0.0373461
0.0363317
-0.0179198
-0.0187618
-0.0376961
0.0369392
-0.0175777
-0.0188252
-0.0374374
0.0367257
-0.0173081
-0.0176873
-0.0364859
0.0358322
-0.0169005
-0.0172201
-0.0352039
0.034587
-0.016159
-0.0164249
-0.0339822
0.0333761
-0.0155178
-0.0157375
-0.0327694
0.0321468
-0.0149453
-0.0151351
-0.0315062
0.03083
-0.0144398
-0.014593
-0.0301218
0.0293763
-0.013998
-0.0141287
-0.0286189
0.0278653
-0.013364
-0.0136474
-0.0271567
0.0265134
-0.0119756
-0.0127153
-0.0259683
0.0255296
-0.00940037
-0.0107703
-0.0252128
0.0250178
-0.00570431
-0.00761637
-0.0249494
0.0250063
-0.00133479
-0.00354498
-0.0251845
0.0254803
0.00315365
0.000918558
-0.025878
0.0263692
0.00725472
0.00523517
-0.0269278
0.0275435
0.0105996
0.00896045
-0.0281866
0.0288498
0.0130242
0.0118255
-0.0295063
0.0301551
0.0145697
0.0137749
-0.030776
0.0313747
0.0154142
0.0149289
-0.031938
0.0324765
0.0157832
0.0154984
-0.0329823
0.0334683
0.0158853
0.0157042
-0.0339297
0.0343801
0.0158895
0.0157345
-0.0348165
0.0352528
0.0159184
0.0157353
-0.0356868
0.0361308
0.0160188
0.0157966
-0.0365816
0.0370479
0.0161102
0.0159085
-0.0375211
0.0370711
0.015966
0.0159169
-0.0374303
0.0372233
0.013646
0.0155371
-0.0373945
0.0380463
0.0110496
0.0128368
0.0120678
-0.0125433
0.0369926
-0.0109165
0.0103775
0.0382975
0.0382873
0.0132249
-0.0140333
0.0364651
0.0371751