/*--------------------------------*- C++ -*----------------------------------*\
  =========                 |
  \\      /  F ield         | OpenFOAM: The Open Source CFD Toolbox
   \\    /   O peration     | Website:  https://openfoam.org
    \\  /    A nd           | Version:  10
     \\/     M anipulation  |
\*---------------------------------------------------------------------------*/
FoamFile
{
    format      ascii;
    class       volVectorField;
    location    "4";
    object      U;
}
// * * * * * * * * * * * * * * * * * * * * * * * * * * * * * * * * * * * * * //

dimensions      [0 1 -1 0 0 0 0];

internalField   nonuniform List<vector> 
33313
(
(0.52077 0.0282893 -5.69842e-21)
(0.703364 0.01872 3.03684e-21)
(0.668787 0.0348985 0)
(0.313071 0.021697 0)
(0.98606 0.026568 1.32067e-22)
(0.966189 0.027169 0)
(0.890955 0.0306225 -9.65968e-22)
(0.902287 0.0262002 0)
(0.96526 0.0201867 3.97156e-22)
(0.873895 0.027463 9.63789e-22)
(0.939144 0.0304841 0)
(-0.0710109 0.0606966 -2.36309e-20)
(-0.0268833 0.0198767 -8.41241e-20)
(-0.0240198 0.0194915 -1.75889e-19)
(0.442311 -0.362485 1.10331e-21)
(0.168717 -0.124812 -7.07035e-21)
(0.14947 -0.11859 -1.13864e-21)
(1.45606 -0.418969 0)
(1.49241 -0.299339 0)
(1.4541 -0.257733 0)
(1.46972 -0.329912 3.35999e-20)
(0.525692 0.00965461 0)
(0.444335 0.311797 -1.26901e-19)
(0.293209 0.267741 3.84256e-19)
(0.402301 -0.000330209 -8.24463e-20)
(1.00473 -0.0200487 -5.55826e-20)
(1.00458 -0.0391265 3.85593e-20)
(1.00492 -0.0784428 0)
(0.963425 0.10514 -4.94074e-20)
(1.03625 0.100327 3.93032e-20)
(1.016 0.0816486 2.66618e-20)
(0.996633 -0.0192024 -3.45387e-20)
(0.882116 0.0570545 -1.90492e-20)
(-0.0563574 -0.0761193 8.61517e-20)
(-0.0717608 -0.0447184 -1.79628e-19)
(-0.0727771 -0.0412187 1.11485e-19)
(-0.111198 -0.0712243 1.554e-20)
(1.13035 -0.0195991 -1.39222e-23)
(1.13605 -0.0185492 5.49981e-22)
(1.4792 0.238763 -1.66548e-20)
(1.45928 0.216878 3.09259e-20)
(1.01841 -0.18848 -5.36163e-20)
(1.02496 -0.184339 -4.38766e-21)
(-0.0710884 -0.0376624 -7.43465e-20)
(-0.0750879 0.0742897 3.15548e-20)
(-0.089481 0.0651282 -1.27296e-19)
(0.19558 0.484013 9.09691e-20)
(0.176366 0.348415 3.32921e-20)
(0.743767 -0.0707993 2.93359e-21)
(0.862927 -0.0374164 -3.9508e-21)
(1.04196 0.0681065 -3.46131e-20)
(1.05973 0.0626277 1.88337e-20)
(1.06412 -0.0973743 -4.98712e-20)
(1.0191 -0.0606498 1.33977e-19)
(0.471672 0.532181 1.45107e-19)
(0.408364 0.586991 -6.8897e-20)
(0.626904 0.719225 -9.173e-20)
(0.371307 0.661323 2.11272e-19)
(0.228592 -0.385991 3.82607e-20)
(0.363432 -0.714413 -3.15474e-21)
(0.211634 0.525398 -6.21021e-20)
(0.413593 -0.284614 2.33244e-19)
(0.231464 -0.214288 -7.02502e-20)
(0.0995597 -0.154295 0)
(0.169071 -0.00677675 0)
(0.219752 -0.0201206 3.02591e-20)
(1.40775 -0.0457796 3.86106e-20)
(1.37594 -0.280048 0)
(1.37433 -0.272892 0)
(0.196007 0.0660443 5.00502e-20)
(0.24844 0.156391 0)
(0.457369 0.166219 0)
(0.236685 -0.0330744 1.04594e-20)
(1.49724 0.288184 6.06684e-20)
(-0.235587 -0.0611741 1.14368e-19)
(-0.0449498 -0.0746052 8.4258e-20)
(0.480656 -0.105004 0)
(0.448549 -0.0866725 4.89356e-20)
(1.39392 0.325152 5.29685e-20)
(1.42681 0.273141 -3.25985e-20)
(0.822838 -0.0647405 1.46476e-19)
(0.837433 -0.0442239 -4.90295e-20)
(0.797771 -0.100494 0)
(1.33088 0.1982 1.68965e-20)
(1.18836 0.218541 -3.52704e-21)
(0.588912 0.0675684 -1.37994e-20)
(0.0555805 0.032309 0)
(-0.0485745 0.0639808 1.52031e-20)
(-0.0694983 0.0551661 8.61781e-20)
(0.0389947 -0.141634 2.82189e-19)
(-0.268123 -0.227474 8.35128e-21)
(-0.13493 -0.248874 -3.40566e-21)
(-0.151555 -0.241907 -5.27872e-19)
(-0.212122 -0.226745 0)
(-0.24011 -0.208931 5.43377e-20)
(1.04226 0.062769 0)
(1.01576 0.0602866 -4.13804e-21)
(0.801264 -0.0752649 -5.64378e-21)
(0.921253 -0.0513641 1.27539e-21)
(1.4794 -0.259007 0)
(1.4745 -0.29961 -7.37889e-20)
(1.48423 -0.232015 0)
(1.51755 -0.169934 3.51564e-20)
(1.53268 -0.182935 5.81033e-21)
(1.48117 -0.177649 -3.91214e-20)
(0.274107 -0.0198482 -1.9194e-21)
(0.185644 -0.053586 -9.68756e-20)
(-0.0268533 -0.0559566 -6.83053e-20)
(-0.0232067 -0.0554293 -3.44003e-22)
(0.926185 -0.624612 5.70447e-21)
(1.12077 -0.793069 8.69517e-21)
(0.947176 -0.74484 2.41001e-20)
(0.733081 -0.51153 0)
(0.75634 -0.224724 8.2203e-20)
(0.28016 -0.0471988 4.02838e-20)
(0.672404 -0.101625 -3.65507e-20)
(0.207748 0.052659 -4.33951e-19)
(0.172057 0.199769 4.97176e-20)
(1.51574 -0.168929 1.72859e-21)
(1.51404 -0.157874 0)
(-0.086749 -0.10833 0)
(-0.0605191 -0.055291 1.1727e-19)
(-0.0812095 -0.0878783 0)
(0.647251 -0.0239 -7.36952e-21)
(0.724418 -0.0202144 5.36597e-21)
(0.387649 -0.0638944 -1.40184e-20)
(0.768456 0.712149 1.60656e-19)
(1.17746 -0.0886657 4.63581e-22)
(1.1716 -0.0937092 0)
(-0.15694 0.18362 2.90357e-20)
(-0.189654 0.13451 -3.97427e-20)
(-0.110733 -0.128379 -1.82415e-19)
(-0.0932742 -0.111206 3.3626e-19)
(0.881448 0.67896 2.88277e-20)
(1.04027 0.692996 4.22056e-20)
(0.906376 0.646389 0)
(0.750319 0.585221 0)
(0.502538 -0.347992 -9.80523e-21)
(0.629321 -0.445415 0)
(0.873221 -0.775666 -9.58182e-20)
(0.87617 -0.741806 -2.37472e-20)
(0.739521 -0.79125 1.07369e-19)
(1.17166 -0.0794702 8.67784e-22)
(1.17422 -0.0743404 8.35553e-21)
(1.18348 -0.0847384 -1.22571e-22)
(1.08141 -0.00631152 0)
(1.08509 -0.00555506 -2.01467e-21)
(1.0873 -0.00830987 3.15749e-21)
(1.09066 -0.00976406 1.782e-21)
(1.00195 -0.229842 4.04411e-20)
(1.01593 -0.23476 0)
(0.997797 -0.186626 -6.99777e-20)
(1.00564 -0.201213 4.01179e-20)
(0.939082 0.0955083 2.96065e-20)
(0.931803 0.114293 -4.58246e-20)
(0.952131 0.123049 2.81241e-20)
(0.945538 0.134044 1.64163e-19)
(0.187419 -0.0696211 3.56307e-20)
(-0.051285 -0.00016101 0)
(0.124237 -0.00753995 -4.59459e-20)
(-0.0793948 -0.0902986 -2.84883e-19)
(0.442579 0.359872 5.11587e-21)
(0.471432 0.423768 -1.52663e-20)
(0.84762 0.702026 -4.02883e-20)
(0.478127 0.473739 -5.85555e-20)
(-0.104058 0.0640899 0)
(-0.114842 0.118648 8.0168e-20)
(-0.194338 0.139366 -5.42776e-20)
(0.419238 0.0769017 0)
(1.00241 0.0228061 0)
(1.02054 0.0219401 -5.15732e-22)
(1.0662 0.00265297 2.70957e-21)
(1.06731 -0.000490133 -1.6799e-21)
(1.08671 0.0307253 9.71707e-22)
(1.0902 0.0350368 4.64901e-24)
(1.01323 -0.0914164 1.1546e-20)
(1.02502 -0.0757461 -5.01309e-20)
(0.432651 0.12852 1.25061e-19)
(0.371309 0.122253 -1.03819e-19)
(1.05057 0.0725367 0)
(1.05306 0.076168 0)
(1.11556 0.0153172 -2.42145e-22)
(1.12043 0.0176528 -2.96361e-21)
(1.10154 0.187344 -3.1567e-20)
(1.09673 0.180875 1.1222e-20)
(1.06359 0.205946 0)
(1.06748 0.245417 -1.57049e-20)
(0.340178 0.102462 2.63043e-20)
(0.340996 0.0812715 3.182e-20)
(0.096751 0.139579 -2.02634e-22)
(-0.368385 -0.0150155 -2.99146e-19)
(0.83789 0.0348601 -5.25675e-20)
(0.868032 0.0346072 2.23648e-20)
(-0.0821094 0.0957134 1.01442e-20)
(-0.131823 0.0690533 0)
(0.921324 0.238835 0)
(0.895943 0.270431 -4.54361e-21)
(0.863999 0.362792 -5.76747e-20)
(0.969456 -0.281963 2.51018e-20)
(0.942573 -0.311322 0)
(0.941438 -0.471233 3.0115e-20)
(0.814418 -0.00912094 -4.40424e-20)
(0.842695 -0.00206299 5.35525e-20)
(1.04048 -0.0678853 4.45322e-21)
(1.03363 -0.0609287 -9.77774e-21)
(-0.0963844 0.187804 0)
(-0.0843105 0.126822 -4.54269e-20)
(1.25782 -0.665693 -2.55679e-20)
(1.19264 -0.672931 1.07244e-20)
(1.02897 -0.0572433 -3.41485e-20)
(1.03397 -0.0661587 4.06532e-20)
(0.973804 0.0288963 6.08292e-24)
(1.0011 0.0256501 -7.05555e-24)
(1.00118 0.0252572 -7.53281e-22)
(0.978981 0.026944 -4.92363e-22)
(0.572578 -0.440175 1.67862e-21)
(-0.0513331 0.0365489 7.62666e-20)
(-0.0477124 0.0353009 -4.19951e-20)
(0.980953 0.187064 1.24268e-20)
(0.979969 0.169706 -5.81845e-21)
(0.99178 0.169335 5.84324e-21)
(0.994725 0.187358 0)
(1.5105 -0.157025 -2.85012e-20)
(1.51093 -0.135111 1.61599e-21)
(1.49342 -0.126346 2.77323e-20)
(1.1033 0.288389 0)
(1.08701 0.283841 -3.31419e-20)
(1.10614 0.28611 0)
(-0.0607782 0.0423453 -5.15751e-20)
(-0.0214733 0.0141368 -1.1659e-19)
(-0.0264012 0.0176566 0)
(0.199128 -0.135399 -5.55501e-20)
(0.166113 -0.118534 1.87115e-20)
(1.06443 0.00387594 1.9079e-21)
(1.07666 0.00513713 -4.19997e-21)
(1.07857 0.00812775 -1.93359e-21)
(1.3316 -0.415273 0)
(1.04057 -0.191082 0)
(1.03305 -0.00232784 1.29313e-21)
(1.03374 -0.00218824 1.15167e-21)
(1.03439 -0.00211859 -1.60141e-21)
(1.03493 -0.00202377 1.18952e-22)
(1.03551 -0.00203329 0)
(1.03603 -0.0019717 8.44689e-22)
(1.03653 -0.00191226 -8.44595e-22)
(1.03702 -0.00185818 -8.14324e-22)
(1.03747 -0.00181212 8.13822e-22)
(1.0379 -0.00176839 7.85006e-22)
(1.0383 -0.00172895 -7.84487e-22)
(1.03868 -0.00169017 -7.56982e-22)
(1.03904 -0.00165482 7.56447e-22)
(1.03938 -0.00161973 0)
(1.0397 -0.00158743 0)
(1.04 -0.001555 0)
(1.04028 -0.00152486 -6.91126e-22)
(1.04055 -0.0014943 6.91707e-22)
(1.0408 -0.00146571 0)
(1.04104 -0.00143647 0)
(1.04127 -0.00140918 0)
(1.04148 -0.00138077 -6.32086e-22)
(1.04168 -0.00135519 1.13432e-23)
(1.04187 -0.00132686 1.23097e-21)
(1.04205 -0.00130583 -6.10196e-22)
(1.04221 -0.00127508 5.87488e-22)
(1.04238 -0.00127132 -1.82571e-21)
(1.04253 -0.00124612 -4.85107e-24)
(1.04268 -0.00121976 0)
(1.04283 -0.00118195 -1.75649e-22)
(1.04296 -0.00116195 0)
(1.04309 -0.00112321 3.45244e-22)
(1.03316 -0.0029176 0)
(1.03227 -0.00268516 -2.7271e-21)
(1.03244 -0.00332213 -7.79489e-22)
(1.03226 -0.00204362 -7.29353e-22)
(1.04333 -0.00100937 3.51926e-22)
(1.04321 -0.00113949 -3.30799e-22)
(1.04299 -0.00130654 0)
(1.04323 -0.00121702 1.64557e-22)
(1.04312 -0.001289 1.7108e-22)
(1.04273 -0.00138274 0)
(1.04287 -0.00135054 0)
(1.04242 -0.00147674 0)
(1.04258 -0.00144448 0)
(1.04209 -0.00156707 -9.80528e-28)
(1.04226 -0.00152692 0)
(1.04173 -0.0016512 0)
(1.04192 -0.00160922 0)
(1.04131 -0.00173873 1.82218e-24)
(1.04153 -0.00169443 0)
(1.04085 -0.00183167 0)
(1.04109 -0.00178459 0)
(1.04033 -0.00193113 1.95971e-24)
(1.0406 -0.00188068 0)
(1.03975 -0.00203849 2.03231e-24)
(1.04005 -0.00198391 0)
(1.03909 -0.00215548 2.10777e-24)
(1.03943 -0.00209587 2.54972e-28)
(1.03836 -0.00228392 0)
(1.03874 -0.0022184 0)
(1.03754 -0.00242447 0)
(1.03796 -0.00235292 0)
(1.03663 -0.00258056 0)
(1.0371 -0.00250009 0)
(1.03557 -0.00275345 0)
(1.03612 -0.00266747 0)
(1.03444 -0.00285469 -6.08089e-22)
(1.03501 -0.00277113 -1.48061e-22)
(1.03383 -0.00281376 -4.92837e-24)
(1.03153 -0.00271226 3.85214e-24)
(1.03167 -0.00337237 -4.04582e-22)
(1.04336 -0.00131136 0)
(1.03147 -0.00203561 2.35403e-21)
(1.04337 -0.00112152 0)
(1.04339 -0.000998505 -3.9854e-22)
(1.03076 -0.00276181 -1.96819e-25)
(1.03092 -0.00352876 4.10953e-22)
(1.04343 -0.00128404 7.54218e-22)
(1.04328 -0.000933796 0)
(1.03065 -0.00200449 3.99318e-22)
(1.04338 -0.000911468 3.6689e-22)
(1.03007 -0.00355564 4.22306e-22)
(1.02979 -0.00201102 -4.0901e-22)
(1.02992 -0.00281031 0)
(1.03227 -0.00139515 -1.8857e-23)
(1.03063 -0.00122232 -6.88753e-22)
(1.03148 -0.00131684 -1.5044e-21)
(1.03365 -0.00149227 -3.8826e-23)
(1.033 -0.00150347 6.86553e-22)
(1.03491 -0.00136235 1.24912e-24)
(1.03429 -0.00138242 1.31169e-21)
(1.03601 -0.00136299 0)
(1.03548 -0.00136038 0)
(1.03701 -0.00135496 0)
(1.03652 -0.00136128 0)
(1.03789 -0.00133637 0)
(1.03746 -0.00134624 0)
(1.03867 -0.00131473 0)
(1.03829 -0.00132583 0)
(1.03936 -0.00129147 0)
(1.03902 -0.00130327 0)
(1.03998 -0.00126709 0)
(1.03968 -0.00127945 0)
(1.04053 -0.00124148 0)
(1.04026 -0.0012545 0)
(1.04102 -0.00121443 0)
(1.04078 -0.00122825 0)
(1.04146 -0.00118589 0)
(1.04125 -0.00120066 0)
(1.04186 -0.00115635 -1.18656e-27)
(1.04167 -0.00117237 0)
(1.04221 -0.00112774 1.2726e-27)
(1.04204 -0.00114674 0)
(1.04252 -0.00110816 1.00652e-22)
(1.04238 -0.00113544 1.40422e-21)
(1.0428 -0.00108042 3.49884e-22)
(1.04266 -0.00111099 -6.29483e-22)
(1.04306 -0.00101267 -3.48418e-22)
(1.04293 -0.00104649 1.75334e-22)
(1.04317 -0.000983454 0)
(1.04347 -0.00110596 9.60995e-23)
(1.04347 -0.000920026 1.95598e-23)
(1.04347 -0.00100418 0)
(1.04325 -0.00139418 2.22523e-23)
(1.04347 -0.0013696 -7.33598e-22)
(1.04336 -0.00139254 0)
(1.04303 -0.0014543 0)
(1.04315 -0.00142173 -9.03854e-23)
(1.04277 -0.00153692 1.0104e-22)
(1.04291 -0.00150182 0)
(1.04247 -0.00163442 0)
(1.04263 -0.00158423 -1.01271e-22)
(1.04214 -0.00173686 -1.28054e-28)
(1.04231 -0.00168567 0)
(1.04178 -0.00184208 0)
(1.04196 -0.00178906 0)
(1.04136 -0.00195313 -1.81855e-24)
(1.04158 -0.0018968 0)
(1.0409 -0.00207209 0)
(1.04114 -0.00201162 0)
(1.04039 -0.00220057 -1.95581e-24)
(1.04065 -0.00213514 0)
(1.03981 -0.00234054 -2.02826e-24)
(1.04011 -0.0022691 0)
(1.03917 -0.00249438 -2.10358e-24)
(1.0395 -0.00241569 -2.54461e-28)
(1.03845 -0.00266459 0)
(1.03882 -0.00257743 0)
(1.03764 -0.00285305 0)
(1.03805 -0.00275661 0)
(1.03674 -0.00306021 0)
(1.0372 -0.00295453 0)
(1.03571 -0.00329 -2.42153e-24)
(1.03625 -0.00317087 0)
(1.03455 -0.00351117 0)
(1.03515 -0.00341873 0)
(1.03334 -0.00371153 0)
(1.03395 -0.0035939 0)
(1.03189 -0.0040632 1.94326e-22)
(1.03264 -0.00391796 8.84767e-22)
(1.03026 -0.00433844 2.8302e-22)
(1.03109 -0.00425494 -1.15517e-21)
(1.04351 -0.0012324 -2.80401e-22)
(1.02974 -0.00116039 7.25995e-22)
(1.02919 -0.00368505 -4.20151e-22)
(1.0294 -0.0045399 5.90769e-22)
(1.04355 -0.000911149 -2.05632e-22)
(1.04347 -0.000833452 -2.77136e-22)
(1.04354 -0.000828189 -1.37567e-22)
(1.02888 -0.00202327 0)
(1.04351 -0.00143806 -3.66486e-22)
(1.04356 -0.00132356 -9.09228e-23)
(1.0436 -0.0013981 -4.1063e-22)
(1.02881 -0.00109819 8.31411e-24)
(1.02902 -0.00286931 0)
(1.03067 -0.0004518 1.92997e-22)
(1.02885 -0.00017794 1.006e-21)
(1.02978 -0.000314317 -3.90425e-22)
(1.03228 -0.000648569 7.0657e-22)
(1.03151 -0.000554324 0)
(1.03365 -0.000751251 -2.03019e-23)
(1.03298 -0.000710343 -3.32186e-22)
(1.03492 -0.000785525 7.8046e-23)
(1.0343 -0.000765271 -9.84142e-23)
(1.03603 -0.000846727 0)
(1.0355 -0.000816207 0)
(1.03702 -0.000892333 0)
(1.03654 -0.000872229 0)
(1.03789 -0.000922496 0)
(1.03747 -0.00090851 0)
(1.03867 -0.000945163 0)
(1.03829 -0.00093458 0)
(1.03936 -0.000961715 0)
(1.03903 -0.000954095 0)
(1.03998 -0.000972864 9.91899e-25)
(1.03968 -0.000967889 0)
(1.04053 -0.000978925 0)
(1.04027 -0.000976487 0)
(1.04102 -0.00098007 0)
(1.04078 -0.000980104 0)
(1.04146 -0.00097664 0)
(1.04125 -0.000979015 0)
(1.04185 -0.000969405 -1.19431e-27)
(1.04166 -0.0009739 0)
(1.04221 -0.000958364 1.05936e-27)
(1.04204 -0.000965714 0)
(1.04252 -0.000941563 1.41241e-23)
(1.04237 -0.00094958 0)
(1.04279 -0.00092828 4.48843e-23)
(1.04266 -0.000937469 3.79744e-22)
(1.04304 -0.000903058 -9.21156e-23)
(1.04292 -0.000918052 -4.64252e-23)
(1.04327 -0.000865069 9.24753e-23)
(1.04316 -0.000883943 1.82439e-22)
(1.04338 -0.000843957 -9.3914e-23)
(1.04357 -0.00108939 1.15529e-22)
(1.04356 -0.000999025 0)
(1.04364 -0.00127916 -2.57165e-22)
(1.0436 -0.00119521 4.70358e-23)
(1.04329 -0.00151346 -9.95185e-24)
(1.0434 -0.00147285 0)
(1.04308 -0.0015939 -2.40215e-23)
(1.04319 -0.00155643 3.48063e-23)
(1.04283 -0.00169188 -1.56844e-24)
(1.04296 -0.00163938 -2.42739e-23)
(1.04253 -0.00179033 0)
(1.04269 -0.00173739 0)
(1.0422 -0.00190645 2.96993e-28)
(1.04237 -0.00184719 0)
(1.04184 -0.00203143 1.75319e-24)
(1.04203 -0.00196799 0)
(1.04143 -0.00216526 0)
(1.04164 -0.00209721 0)
(1.04097 -0.00230954 0)
(1.04121 -0.00223605 0)
(1.04047 -0.00246614 0)
(1.04073 -0.00238624 0)
(1.0399 -0.00263748 2.02759e-24)
(1.04019 -0.00254988 0)
(1.03926 -0.00282647 0)
(1.03959 -0.00272967 0)
(1.03856 -0.00303613 0)
(1.03892 -0.00292864 0)
(1.03776 -0.00326927 0)
(1.03817 -0.00314973 0)
(1.03688 -0.00352567 0)
(1.03734 -0.00339505 0)
(1.03589 -0.00380491 2.43983e-24)
(1.0364 -0.00366122 0)
(1.03476 -0.00413225 0)
(1.03534 -0.0039639 0)
(1.03351 -0.00447286 -3.41718e-22)
(1.03415 -0.00430878 0)
(1.03211 -0.00482239 1.77131e-24)
(1.03284 -0.00463131 3.46859e-22)
(1.03051 -0.00524256 8.02829e-23)
(1.03133 -0.00503322 -7.42472e-22)
(1.02845 -0.00470771 8.0027e-22)
(1.02872 -0.00574922 0)
(1.02964 -0.00548916 5.72355e-22)
(1.02781 -0.000987699 -2.09082e-21)
(1.02785 2.7748e-05 1.04556e-21)
(1.02788 -0.00197803 -8.7372e-22)
(1.02821 -0.00375174 0)
(1.04368 -0.00135315 4.04037e-22)
(1.02772 -0.00604528 0)
(1.02742 -0.00496364 -1.84492e-21)
(1.04362 -0.000903288 9.0896e-23)
(1.04361 -0.000827314 -1.32292e-22)
(1.04346 -0.00075645 -4.17344e-22)
(1.02674 -0.000839166 0)
(1.02679 0.000281258 6.40245e-22)
(1.04354 -0.000750642 0)
(1.02802 -0.00286595 0)
(1.02898 0.000768851 -8.28071e-22)
(1.02698 0.00130436 -6.34394e-22)
(1.02801 0.0010147 6.58164e-22)
(1.03077 0.000384336 1.39116e-22)
(1.0299 0.000572754 -4.25694e-22)
(1.03234 0.000145957 5.21346e-22)
(1.03158 0.000255413 -8.60185e-23)
(1.03372 -5.38341e-05 1.21647e-22)
(1.03305 4.20212e-05 0)
(1.03498 -0.000210976 3.25564e-27)
(1.03436 -0.000138702 -8.13184e-23)
(1.03608 -0.000327854 0)
(1.03555 -0.000271369 0)
(1.03705 -0.000426909 0)
(1.03658 -0.000379886 0)
(1.03792 -0.000507817 0)
(1.0375 -0.000469159 0)
(1.03869 -0.000575701 0)
(1.03832 -0.000543172 0)
(1.03938 -0.000632418 -1.02641e-24)
(1.03905 -0.00060532 0)
(1.04 -0.000679197 -9.91899e-25)
(1.0397 -0.00065694 0)
(1.04055 -0.00071688 0)
(1.04028 -0.000699099 0)
(1.04104 -0.000746053 0)
(1.0408 -0.000732478 0)
(1.04147 -0.000767364 0)
(1.04126 -0.000757668 0)
(1.04186 -0.000781513 -1.38514e-27)
(1.04167 -0.000775369 0)
(1.04221 -0.000788037 1.21824e-27)
(1.04204 -0.000785567 0)
(1.04252 -0.000786111 7.95983e-25)
(1.04237 -0.000784793 0)
(1.04279 -0.000787291 1.53677e-24)
(1.04266 -0.000784111 0)
(1.04304 -0.000788617 9.49595e-23)
(1.04292 -0.000789777 0)
(1.04327 -0.000778238 9.47588e-23)
(1.04316 -0.000784435 -1.87628e-22)
(1.04337 -0.000770456 1.40059e-22)
(1.04365 -0.00106963 -2.19548e-23)
(1.04364 -0.000983106 -8.77979e-23)
(1.04372 -0.00124146 -3.61457e-22)
(1.04368 -0.0011649 -4.3506e-23)
(1.04355 -0.00150865 4.38177e-22)
(1.04371 -0.00142165 -3.61005e-22)
(1.04364 -0.00146723 2.30034e-23)
(1.04335 -0.00160858 -5.97399e-28)
(1.04345 -0.0015527 -9.23975e-23)
(1.04314 -0.00171635 9.52902e-23)
(1.04325 -0.00166345 0)
(1.04289 -0.00182763 1.5683e-24)
(1.04302 -0.00176925 0)
(1.0426 -0.00194595 0)
(1.04275 -0.00188456 0)
(1.04228 -0.0020784 6.73679e-28)
(1.04244 -0.00201055 0)
(1.04192 -0.00222288 -1.75319e-24)
(1.0421 -0.00214927 0)
(1.04151 -0.00237901 0)
(1.04172 -0.00229948 0)
(1.04106 -0.00254805 0)
(1.04129 -0.00246186 0)
(1.04056 -0.00273206 0)
(1.04082 -0.00263809 0)
(1.04 -0.00293385 -2.02759e-24)
(1.04029 -0.0028306 0)
(1.03938 -0.00315689 0)
(1.0397 -0.00304257 0)
(1.03869 -0.00340485 0)
(1.03904 -0.00327762 0)
(1.03791 -0.00368134 0)
(1.03831 -0.00353941 0)
(1.03705 -0.00398782 0)
(1.03749 -0.00383109 0)
(1.03608 -0.00432381 -2.4349e-24)
(1.03658 -0.00415172 0)
(1.03499 -0.00470605 0)
(1.03555 -0.00450773 0)
(1.03376 -0.00513609 -3.55235e-27)
(1.03439 -0.00491799 0)
(1.03238 -0.00558109 0)
(1.03309 -0.00535743 0)
(1.0308 -0.00611274 -1.87768e-22)
(1.03161 -0.00583684 0)
(1.02903 -0.00675727 1.40117e-21)
(1.02994 -0.00642829 -9.5836e-23)
(1.02664 -0.00638057 1.68615e-21)
(1.02702 -0.00754586 -1.64911e-21)
(1.02807 -0.00712329 1.33432e-22)
(1.04375 -0.00131074 5.48395e-24)
(1.02568 0.000492228 0)
(1.02588 0.00161637 1.05094e-23)
(1.02681 -0.00190771 8.61436e-22)
(1.02716 -0.00390071 4.14241e-22)
(1.0436 -0.00075291 3.56296e-22)
(1.02589 -0.00803579 -2.60968e-23)
(1.02746 -0.00870848 -1.6006e-21)
(1.02637 -0.00926298 3.32649e-21)
(1.0256 -0.00069078 9.06654e-22)
(1.0263 -0.00519924 8.14919e-22)
(1.02545 -0.00678148 -1.63194e-21)
(1.02448 0.000766959 0)
(1.04374 -0.00148676 3.37739e-22)
(1.04378 -0.00137516 4.42475e-23)
(1.04381 -0.0014332 3.47934e-22)
(1.02471 0.0019651 -8.86923e-22)
(1.02694 -0.00289158 -4.25617e-22)
(1.02727 0.00231906 -4.16055e-22)
(1.02505 0.00314953 0)
(1.0262 0.00271317 1.27275e-21)
(1.02921 0.00168616 -1.93291e-22)
(1.02827 0.00198321 1.95341e-22)
(1.03094 0.00122513 -1.78844e-22)
(1.0301 0.00143669 3.69437e-22)
(1.03248 0.000887615 0)
(1.03173 0.00104623 0)
(1.03385 0.000597532 0)
(1.03319 0.000738872 0)
(1.03507 0.000364203 2.46333e-24)
(1.03448 0.00047046 0)
(1.03615 0.000185268 0)
(1.03563 0.000271517 0)
(1.03711 3.00619e-05 0)
(1.03665 0.000104681 0)
(1.03797 -0.000101475 0)
(1.03756 -3.83457e-05 0)
(1.03874 -0.00021372 0)
(1.03836 -0.000159712 0)
(1.03942 -0.000309726 1.02641e-24)
(1.03909 -0.000263568 0)
(1.04003 -0.000391411 0)
(1.03973 -0.000352209 0)
(1.04057 -0.000460146 0)
(1.04031 -0.000427291 0)
(1.04106 -0.000516856 0)
(1.04082 -0.00048992 0)
(1.04149 -0.000562415 0)
(1.04128 -0.00054095 0)
(1.04188 -0.000597713 -1.62378e-27)
(1.04169 -0.000581265 0)
(1.04223 -0.000623449 1.48382e-27)
(1.04206 -0.000611519 0)
(1.04254 -0.00064204 -7.9593e-25)
(1.04239 -0.000632606 0)
(1.04281 -0.000660564 0)
(1.04268 -0.000650798 0)
(1.04305 -0.000676992 0)
(1.04293 -0.000670185 0)
(1.04326 -0.000688734 -1.86151e-22)
(1.04316 -0.000687162 0)
(1.04345 -0.000684028 4.56878e-22)
(1.04336 -0.00069119 -9.07113e-23)
(1.04359 -0.000691012 -7.34289e-22)
(1.04353 -0.0006851 2.225e-23)
(1.04369 -0.000892961 8.72004e-23)
(1.04366 -0.000754674 -8.60781e-23)
(1.04367 -0.000824323 0)
(1.04372 -0.00105165 0)
(1.04371 -0.00096812 0)
(1.04378 -0.00120185 4.21502e-23)
(1.04376 -0.00113489 -1.7129e-22)
(1.04384 -0.0013237 -2.179e-22)
(1.04381 -0.00126376 3.39057e-22)
(1.04359 -0.00158572 1.41738e-24)
(1.04367 -0.00153883 3.86196e-22)
(1.04341 -0.00170407 -8.46607e-28)
(1.0435 -0.00164159 0)
(1.0432 -0.00183042 3.02067e-24)
(1.04331 -0.00176651 0)
(1.04296 -0.00195857 -7.91205e-28)
(1.04309 -0.00189439 0)
(1.04268 -0.00209714 0)
(1.04283 -0.00202653 0)
(1.04236 -0.0022481 1.1035e-27)
(1.04253 -0.00217104 0)
(1.042 -0.00241224 0)
(1.04219 -0.00232856 0)
(1.04161 -0.00259013 0)
(1.04181 -0.00249946 0)
(1.04116 -0.00278312 0)
(1.04139 -0.00268467 0)
(1.04067 -0.00299347 0)
(1.04092 -0.00288601 0)
(1.04012 -0.00322442 0)
(1.0404 -0.0031062 0)
(1.03951 -0.00348007 2.09872e-24)
(1.03982 -0.00334896 0)
(1.03884 -0.00376487 0)
(1.03918 -0.00361863 0)
(1.03809 -0.00408322 2.25732e-24)
(1.03847 -0.0039197 0)
(1.03725 -0.00443826 0)
(1.03768 -0.00425616 0)
(1.0363 -0.00483232 2.4349e-24)
(1.03679 -0.00463024 0)
(1.03524 -0.00527375 0)
(1.03579 -0.00504624 0)
(1.03404 -0.00577569 -5.59726e-27)
(1.03466 -0.0055169 0)
(1.03269 -0.00634085 0)
(1.03339 -0.00605059 0)
(1.03116 -0.00699166 -1.70754e-24)
(1.03195 -0.00665314 0)
(1.02941 -0.00777855 5.86614e-22)
(1.03031 -0.00737001 2.82457e-22)
(1.02846 -0.00821627 -4.95862e-22)
(1.02466 -0.00858639 -1.72704e-21)
(1.02521 -0.00990322 -1.77753e-21)
(1.04365 -0.000694967 0)
(1.02344 0.00230283 2.80633e-21)
(1.02386 0.00358466 -8.88523e-22)
(1.02564 -0.00179877 -9.06176e-22)
(1.026 -0.00405075 -2.04462e-22)
(1.04386 -0.00138086 3.41654e-22)
(1.02437 -0.000459229 0)
(1.02507 -0.00551696 0)
(1.02317 0.00104704 9.34662e-22)
(1.02416 -0.00724978 0)
(1.02395 -0.0106303 0)
(1.02332 -0.00923339 1.74566e-21)
(1.02212 0.00280079 -3.30646e-21)
(1.04358 -0.000635457 1.41629e-21)
(1.04364 -0.000651265 -4.33834e-22)
(1.0226 0.00415521 1.55345e-23)
(1.02577 -0.00290024 -2.10405e-22)
(1.02553 0.00424176 8.5207e-22)
(1.02318 0.00540144 4.4976e-22)
(1.02439 0.00478536 -8.73918e-22)
(1.02764 0.00332778 -4.03484e-24)
(1.02661 0.00376136 2.02033e-22)
(1.02951 0.00260603 1.44543e-24)
(1.0286 0.00294507 -1.93764e-22)
(1.03119 0.00205015 0)
(1.03037 0.0023138 0)
(1.03269 0.00159912 0)
(1.03196 0.00181206 0)
(1.03402 0.00123118 0)
(1.03338 0.00140656 0)
(1.03521 0.000932154 -2.45507e-24)
(1.03463 0.00107305 0)
(1.03627 0.000688034 0)
(1.03575 0.000805189 0)
(1.03721 0.00047815 0)
(1.03675 0.000579207 0)
(1.03805 0.000298375 0)
(1.03764 0.000384865 0)
(1.0388 0.000143554 1.05858e-24)
(1.03843 0.000218213 0)
(1.03947 9.60278e-06 -1.02121e-24)
(1.03914 7.42088e-05 0)
(1.04007 -0.000106081 0)
(1.03978 -5.0339e-05 0)
(1.04061 -0.000205281 0)
(1.04035 -0.000157617 0)
(1.0411 -0.000289154 0)
(1.04086 -0.000249027 0)
(1.04153 -0.000358786 0)
(1.04132 -0.000325635 0)
(1.04191 -0.000415546 -1.85711e-27)
(1.04172 -0.000388624 0)
(1.04226 -0.000461414 1.72277e-27)
(1.04209 -0.000439573 0)
(1.04256 -0.00049958 7.92888e-25)
(1.04241 -0.000481078 0)
(1.04283 -0.000534582 0)
(1.0427 -0.000517354 0)
(1.04306 -0.000567277 0)
(1.04295 -0.000551469 0)
(1.04327 -0.000597758 1.41913e-24)
(1.04317 -0.000583163 0)
(1.04344 -0.000618313 5.54436e-24)
(1.04336 -0.000612457 0)
(1.04352 -0.000629519 1.72409e-22)
(1.04372 -0.0007656 8.54497e-23)
(1.0437 -0.000666665 -8.45247e-23)
(1.04371 -0.000709738 0)
(1.04375 -0.000887032 0)
(1.04373 -0.000824806 8.282e-23)
(1.04379 -0.00102758 0)
(1.04377 -0.000958016 0)
(1.04385 -0.00116283 -2.49749e-22)
(1.04382 -0.00110051 0)
(1.04389 -0.00127487 -3.77999e-22)
(1.04387 -0.00121877 1.8949e-22)
(1.04391 -0.00132519 4.49161e-23)
(1.04378 -0.00154113 4.49952e-23)
(1.04389 -0.00142667 -2.10218e-25)
(1.04383 -0.00148413 -3.51702e-22)
(1.04363 -0.00165969 -9.86621e-28)
(1.04371 -0.00159814 -4.45459e-23)
(1.04347 -0.00179618 -1.0993e-27)
(1.04356 -0.00172789 0)
(1.04327 -0.00193884 -1.16382e-27)
(1.04338 -0.00186679 0)
(1.04304 -0.0020867 -1.20913e-27)
(1.04316 -0.00201219 0)
(1.04277 -0.00224436 0)
(1.04291 -0.00216415 0)
(1.04246 -0.00241458 1.54803e-27)
(1.04262 -0.00232786 0)
(1.04211 -0.00259869 1.74941e-24)
(1.04229 -0.00250487 0)
(1.04171 -0.00279796 0)
(1.04191 -0.0026964 0)
(1.04128 -0.00301406 0)
(1.0415 -0.00290383 0)
(1.04079 -0.00324956 0)
(1.04104 -0.00312925 0)
(1.04026 -0.00350815 2.02137e-24)
(1.04053 -0.00337576 0)
(1.03966 -0.00379467 -2.09872e-24)
(1.03997 -0.00364766 0)
(1.03901 -0.0041146 0)
(1.03934 -0.00395021 0)
(1.03828 -0.00447319 -2.25732e-24)
(1.03865 -0.00428886 0)
(1.03746 -0.00487478 0)
(1.03788 -0.00466848 0)
(1.03655 -0.00532387 2.4257e-24)
(1.03702 -0.00509316 0)
(1.03552 -0.00582682 0)
(1.03605 -0.00556822 0)
(1.03436 -0.00639409 -5.23926e-24)
(1.03496 -0.00610162 0)
(1.03304 -0.00704278 0)
(1.03372 -0.00670725 0)
(1.03155 -0.0077925 -2.82874e-24)
(1.03232 -0.0074037 0)
(1.02986 -0.00868699 1.9799e-22)
(1.03073 -0.00821287 1.89913e-22)
(1.02796 -0.00979371 7.46525e-22)
(1.02894 -0.00920789 -1.19647e-21)
(1.02582 -0.0111725 1.6576e-21)
(1.02692 -0.010442 -1.65124e-21)
(1.02261 -0.0114507 1.69071e-21)
(1.02341 -0.0129536 0)
(1.02464 -0.0120052 0)
(1.02124 0.00464435 -2.45814e-21)
(1.02195 0.00597861 1.38573e-21)
(1.02437 -0.00167812 8.70428e-22)
(1.02472 -0.00422809 0)
(1.02208 -0.0139908 0)
(1.02117 -0.0123943 -1.78191e-21)
(1.02301 -0.000245435 1.10571e-23)
(1.0237 -0.00587809 -2.13526e-22)
(1.02175 0.00142259 9.4324e-22)
(1.02274 -0.00779116 -2.71294e-23)
(1.04374 -0.000681991 2.5264e-22)
(1.04369 -0.000619646 2.15805e-23)
(1.04373 -0.000640095 0)
(1.02067 0.0032564 9.68354e-22)
(1.02187 -0.00997071 1.11321e-22)
(1.01985 0.00539246 -9.86614e-22)
(1.04393 -0.00136366 2.49548e-25)
(1.02068 0.00681187 0)
(1.02449 -0.00292395 4.52193e-24)
(1.0239 0.00658599 6.53677e-22)
(1.02159 0.00814526 0)
(1.02275 0.00729513 -1.3554e-21)
(1.02609 0.00533972 -2.05408e-22)
(1.02501 0.00592716 2.09858e-22)
(1.02809 0.00432014 0)
(1.02712 0.00480138 0)
(1.02989 0.00350212 -1.42988e-24)
(1.02901 0.00389258 0)
(1.03151 0.00282977 -1.3673e-24)
(1.03072 0.00314801 0)
(1.03295 0.00228818 0)
(1.03225 0.00254433 0)
(1.03424 0.00184774 0)
(1.03361 0.00205742 0)
(1.03538 0.00148279 5.06038e-27)
(1.03483 0.00165687 0)
(1.03641 0.00117743 0)
(1.03591 0.0013239 0)
(1.03732 0.000915899 0)
(1.03688 0.00104186 0)
(1.03815 0.000690475 0)
(1.03775 0.000799129 0)
(1.03888 0.000495045 -1.05858e-24)
(1.03852 0.000589427 0)
(1.03954 0.00032473 1.02121e-24)
(1.03922 0.000407045 0)
(1.04014 0.000176191 9.82363e-25)
(1.03985 0.000247953 0)
(1.04067 4.72697e-05 0)
(1.04041 0.000109419 0)
(1.04115 -6.33698e-05 0)
(1.04091 -1.02184e-05 0)
(1.04157 -0.000156986 0)
(1.04137 -0.000112171 0)
(1.04195 -0.00023542 -2.0857e-27)
(1.04177 -0.000197906 0)
(1.04229 -0.000301438 1.93821e-27)
(1.04213 -0.000269714 0)
(1.04259 -0.00035859 -7.92888e-25)
(1.04244 -0.000330837 0)
(1.04285 -0.000410854 -1.52459e-24)
(1.04272 -0.000385169 0)
(1.04308 -0.00046029 0)
(1.04297 -0.000435995 0)
(1.04327 -0.000506995 -1.41356e-24)
(1.04318 -0.000484141 0)
(1.04343 -0.000548476 8.82983e-23)
(1.04336 -0.000529457 0)
(1.04357 -0.000580409 -1.04974e-21)
(1.04351 -0.000568229 -2.19332e-22)
(1.04363 -0.000598761 3.26929e-22)
(1.04377 -0.000773537 0)
(1.04375 -0.000728285 0)
(1.0438 -0.000886674 0)
(1.04379 -0.000828645 -8.21609e-23)
(1.04385 -0.0010042 0)
(1.04383 -0.000945795 0)
(1.0439 -0.00112234 1.2173e-22)
(1.04388 -0.00106504 0)
(1.04393 -0.00122548 1.25243e-22)
(1.04392 -0.00117549 -1.02477e-22)
(1.04391 -0.00146774 -6.87337e-22)
(1.04396 -0.00140634 3.35088e-22)
(1.04397 -0.00130679 -3.31256e-22)
(1.04395 -0.00126907 -1.25622e-22)
(1.0438 -0.00159072 1.36329e-24)
(1.04386 -0.00153071 1.75457e-22)
(1.04368 -0.0017308 -2.79408e-24)
(1.04374 -0.00165693 0)
(1.04353 -0.0018829 -1.40985e-27)
(1.04361 -0.00180579 0)
(1.04334 -0.00204249 -1.50582e-27)
(1.04344 -0.00196178 0)
(1.04312 -0.00220974 -1.56641e-24)
(1.04324 -0.00212511 0)
(1.04286 -0.00238713 0)
(1.043 -0.00229703 0)
(1.04256 -0.00257722 1.98842e-27)
(1.04272 -0.00248053 0)
(1.04222 -0.00278171 -1.74941e-24)
(1.04239 -0.00267762 0)
(1.04183 -0.0030022 1.81162e-24)
(1.04203 -0.0028899 0)
(1.0414 -0.0032407 0)
(1.04162 -0.00311911 0)
(1.04093 -0.00350011 0)
(1.04117 -0.00336763 0)
(1.04041 -0.0037847 -3.45061e-27)
(1.04068 -0.003639 0)
(1.03983 -0.00410026 0)
(1.04013 -0.00393828 0)
(1.0392 -0.00445348 0)
(1.03952 -0.00427182 0)
(1.03849 -0.00485088 0)
(1.03885 -0.0046464 0)
(1.0377 -0.00529786 0)
(1.03811 -0.00506797 0)
(1.03682 -0.0058 -2.4257e-24)
(1.03727 -0.00554174 0)
(1.03582 -0.00636441 0)
(1.03633 -0.00607406 0)
(1.03469 -0.00700094 5.22389e-24)
(1.03527 -0.00667289 0)
(1.03342 -0.00772946 0)
(1.03408 -0.00735212 0)
(1.03198 -0.0085807 2.82925e-24)
(1.03272 -0.00813772 0)
(1.03035 -0.00959807 0)
(1.03119 -0.00906516 0)
(1.02853 -0.0108428 9.84562e-23)
(1.02946 -0.0101848 -9.8293e-23)
(1.0265 -0.0123992 -3.06356e-22)
(1.02755 -0.0115781 3.99976e-22)
(1.02428 -0.0143306 8.57075e-22)
(1.02542 -0.0132992 -8.63373e-22)
(1.0207 -0.0151553 1.88093e-21)
(1.02186 -0.0166817 -1.87012e-21)
(1.02308 -0.0154387 0)
(1.01932 0.00768937 -1.95077e-21)
(1.02033 0.00907251 0)
(1.01961 -0.0134457 0)
(1.01923 -0.0163968 -1.75799e-21)
(1.02058 -0.0180097 1.63224e-21)
(1.02297 -0.00157291 -4.48366e-22)
(1.02332 -0.00443928 0)
(1.02152 1.23081e-05 -1.35583e-21)